/*--------------------------------*- C++ -*----------------------------------*\
| =========                 |                                                 |
| \\      /  F ield         | OpenFOAM: The Open Source CFD Toolbox           |
|  \\    /   O peration     | Version:  2312                                  |
|   \\  /    A nd           | Website:  www.openfoam.com                      |
|    \\/     M anipulation  |                                                 |
\*---------------------------------------------------------------------------*/
FoamFile
{
    version     2.0;
    format      ascii;
    arch        "LSB;label=32;scalar=64";
    class       volScalarField;
    location    "50";
    object      epsilon;
}
// * * * * * * * * * * * * * * * * * * * * * * * * * * * * * * * * * * * * * //

dimensions      [0 2 -3 0 0 0 0];

internalField   nonuniform List<scalar> 
43008
(
1.99144e-07
2.32903e-07
1.99145e-07
2.32882e-07
2.32897e-07
2.72843e-07
2.72733e-07
2.72476e-07
2.32904e-07
2.32924e-07
2.32909e-07
2.32935e-07
2.72582e-07
2.32874e-07
2.32928e-07
2.32893e-07
2.32939e-07
2.32885e-07
2.3291e-07
2.72871e-07
2.72548e-07
2.32898e-07
2.32903e-07
2.32905e-07
2.72517e-07
2.72811e-07
2.32908e-07
2.32931e-07
2.72908e-07
2.32898e-07
2.32949e-07
2.32922e-07
2.72886e-07
2.3291e-07
2.01754e-06
8.7108e-06
2.01855e-06
8.71018e-06
1.97207e-05
2.01762e-06
8.71165e-06
2.01862e-06
8.71185e-06
1.99156e-07
1.99159e-07
1.99162e-07
1.99146e-07
1.99169e-07
1.99172e-07
1.99173e-07
5.32736e-07
2.32874e-07
1.63846e-06
2.10367e-07
1.97224e-05
1.97229e-05
5.33098e-07
2.10379e-07
1.63998e-06
2.32903e-07
5.33429e-07
2.10382e-07
1.63882e-06
2.72442e-07
3.74605e-06
3.74572e-06
2.01747e-06
8.7106e-06
2.01847e-06
8.71035e-06
1.97193e-05
1.97191e-05
2.01758e-06
8.71247e-06
2.01858e-06
8.71154e-06
1.9916e-07
1.99165e-07
1.9917e-07
5.33187e-07
1.63954e-06
2.10374e-07
2.32902e-07
5.33234e-07
1.63818e-06
2.10383e-07
1.972e-05
1.97182e-05
5.32991e-07
2.10377e-07
1.63987e-06
2.32899e-07
5.33337e-07
2.10381e-07
1.63838e-06
3.74157e-06
3.74165e-06
2.72497e-07
3.74005e-06
3.74043e-06
1.97179e-05
1.97182e-05
1.97206e-05
1.97211e-05
3.75833e-06
3.75989e-06
2.72443e-07
3.7567e-06
3.75842e-06
1.97172e-05
1.97173e-05
1.972e-05
1.97202e-05
2.72781e-07
3.75246e-06
3.75417e-06
3.7573e-06
3.75901e-06
2.01741e-06
8.71332e-06
2.01833e-06
8.71226e-06
5.32874e-07
1.63982e-06
2.10379e-07
2.32909e-07
5.33139e-07
1.63853e-06
2.10388e-07
5.3283e-07
1.6402e-06
2.10375e-07
2.32927e-07
5.33144e-07
1.63899e-06
2.10387e-07
2.01841e-06
8.7101e-06
8.71037e-06
2.01752e-06
2.01826e-06
8.71225e-06
8.71246e-06
2.01734e-06
5.33131e-07
2.32908e-07
1.63832e-06
2.10382e-07
1.63961e-06
2.1038e-07
5.33e-07
5.33076e-07
2.32934e-07
1.6388e-06
2.10386e-07
1.6401e-06
2.10374e-07
5.32901e-07
2.72487e-07
3.75597e-06
3.75475e-06
1.97197e-05
1.97201e-05
1.97198e-05
2.72909e-07
3.75346e-06
3.75134e-06
3.75506e-06
3.75402e-06
1.97181e-05
1.97187e-05
5.3286e-07
1.64002e-06
2.10382e-07
2.32894e-07
5.3318e-07
1.63881e-06
2.1039e-07
2.01756e-06
8.71783e-06
2.01852e-06
8.71712e-06
5.32842e-07
2.10387e-07
1.64049e-06
2.32939e-07
5.33142e-07
2.10394e-07
1.63926e-06
2.0185e-06
8.71209e-06
8.71233e-06
2.01761e-06
5.33094e-07
2.32882e-07
1.63868e-06
2.10393e-07
1.63991e-06
2.10378e-07
5.32966e-07
2.0184e-06
8.71367e-06
8.71807e-06
2.01747e-06
5.33089e-07
2.32929e-07
2.10394e-07
1.639e-06
2.10391e-07
1.64035e-06
5.32894e-07
2.01742e-06
8.71213e-06
5.32799e-07
2.32924e-07
2.10401e-07
1.63832e-06
2.01748e-06
8.71819e-06
5.32958e-07
2.32884e-07
1.63829e-06
2.10376e-07
1.63953e-06
2.10377e-07
5.32867e-07
2.01832e-06
8.7131e-06
8.7128e-06
2.01734e-06
5.33024e-07
2.32913e-07
2.10386e-07
1.63814e-06
2.10386e-07
1.63946e-06
5.32732e-07
2.01833e-06
8.71815e-06
8.71854e-06
2.01747e-06
3.76011e-06
3.75883e-06
2.72525e-07
3.75862e-06
3.75783e-06
1.972e-05
1.97207e-05
1.97216e-05
1.9722e-05
2.72848e-07
3.75461e-06
3.75527e-06
3.75922e-06
3.75872e-06
1.97196e-05
1.972e-05
5.3293e-07
2.10384e-07
1.63934e-06
2.32902e-07
5.33286e-07
2.10398e-07
1.63827e-06
2.01759e-06
8.71646e-06
2.01852e-06
8.71656e-06
2.01748e-06
8.71294e-06
2.0184e-06
8.71288e-06
5.33325e-07
2.32904e-07
2.10381e-07
1.6387e-06
2.10383e-07
1.63995e-06
5.33075e-07
5.33147e-07
2.32895e-07
2.10396e-07
1.63809e-06
2.10396e-07
1.6394e-06
5.32906e-07
2.01844e-06
8.71364e-06
8.71608e-06
2.01752e-06
2.01836e-06
8.71202e-06
8.71315e-06
2.01745e-06
1.97189e-05
1.9719e-05
2.72781e-07
3.74103e-06
3.7413e-06
3.74716e-06
3.74661e-06
1.97165e-05
1.97178e-05
1.97165e-05
1.97178e-05
1.9716e-05
1.9715e-05
1.9719e-05
1.97182e-05
3.75149e-06
3.7543e-06
2.72457e-07
3.74731e-06
3.74575e-06
2.01719e-06
8.71289e-06
2.01813e-06
8.71198e-06
5.33154e-07
1.63932e-06
2.10391e-07
2.3292e-07
5.333e-07
1.63795e-06
2.10394e-07
5.33e-07
1.63983e-06
2.10395e-07
2.32947e-07
5.33169e-07
1.63853e-06
2.1041e-07
3.75422e-06
3.75172e-06
2.72586e-07
3.74457e-06
3.74355e-06
1.9717e-05
1.97175e-05
5.33099e-07
1.6397e-06
2.10372e-07
2.32928e-07
5.33253e-07
1.63833e-06
2.10478e-07
2.01738e-06
8.71394e-06
2.01826e-06
8.71302e-06
5.32941e-07
2.10397e-07
1.63994e-06
2.3294e-07
5.33155e-07
2.104e-07
1.63846e-06
2.01736e-06
8.71391e-06
2.01825e-06
8.71469e-06
5.32795e-07
2.10395e-07
1.63919e-06
2.32946e-07
5.3298e-07
2.10414e-07
1.63794e-06
2.01745e-06
8.71839e-06
2.01833e-06
8.71746e-06
3.75327e-06
3.75542e-06
2.72561e-07
3.74478e-06
3.74656e-06
1.97187e-05
1.9718e-05
5.32985e-07
2.10391e-07
1.63905e-06
2.32924e-07
5.33168e-07
2.10403e-07
1.63782e-06
2.0174e-06
8.71367e-06
2.01831e-06
8.71254e-06
2.01732e-06
8.71228e-06
2.01825e-06
8.71193e-06
1.9715e-05
1.97164e-05
1.97153e-05
1.97165e-05
1.33006e-05
2.01848e-06
1.21789e-05
2.55395e-06
1.21792e-05
2.55233e-06
1.33005e-05
2.29017e-05
5.46565e-06
8.71035e-06
2.28994e-05
5.46392e-06
1.33004e-05
2.01751e-06
1.21792e-05
2.55758e-06
1.33005e-05
1.21789e-05
2.55483e-06
2.2899e-05
5.46289e-06
8.71072e-06
5.46579e-06
2.29008e-05
1.97213e-05
1.97206e-05
1.33006e-05
2.01854e-06
2.55394e-06
1.21791e-05
2.55223e-06
1.21794e-05
1.33005e-05
2.29003e-05
5.46181e-06
8.71148e-06
2.28968e-05
5.46149e-06
1.33003e-05
2.01758e-06
2.5574e-06
1.21794e-05
1.33004e-05
2.5547e-06
1.21791e-05
2.28985e-05
5.46425e-06
8.71205e-06
5.46471e-06
2.29018e-05
1.97231e-05
1.97224e-05
7.31644e-06
2.21856e-05
2.21858e-05
2.21823e-05
2.21825e-05
7.30845e-06
2.08843e-06
3.74366e-06
8.51887e-07
8.78681e-06
2.09122e-06
3.73909e-06
8.5232e-07
8.79022e-06
7.31855e-06
2.21847e-05
2.2185e-05
2.09245e-06
8.78679e-06
3.74694e-06
8.51994e-07
8.52384e-07
8.78726e-06
2.09225e-06
2.09522e-06
8.79037e-06
3.74557e-06
8.52414e-07
8.52787e-07
8.7907e-06
2.09503e-06
1.33006e-05
2.0184e-06
1.21789e-05
2.5555e-06
1.21792e-05
2.55623e-06
1.33005e-05
2.29015e-05
5.46602e-06
8.71032e-06
2.28987e-05
5.46498e-06
1.33004e-05
2.01742e-06
1.21792e-05
2.55746e-06
1.33004e-05
1.21789e-05
2.5545e-06
2.28988e-05
5.46573e-06
8.71072e-06
5.46715e-06
2.29013e-05
1.97201e-05
1.97188e-05
1.33006e-05
2.0185e-06
2.55388e-06
1.2179e-05
2.55261e-06
1.21794e-05
1.33005e-05
2.29017e-05
5.4681e-06
8.71191e-06
2.29e-05
5.46501e-06
1.33004e-05
2.01753e-06
2.55764e-06
1.21793e-05
1.33004e-05
2.55488e-06
1.2179e-05
2.28984e-05
5.46329e-06
8.71214e-06
5.46624e-06
2.29e-05
1.97199e-05
1.97183e-05
7.3162e-06
2.21854e-05
2.21857e-05
2.21829e-05
2.21832e-05
7.31144e-06
2.09367e-06
8.52243e-07
8.7859e-06
3.73989e-06
2.09463e-06
8.51641e-07
8.78542e-06
2.09111e-06
8.52551e-07
8.78954e-06
3.74037e-06
2.08919e-06
8.51973e-07
8.78913e-06
7.31196e-06
2.2182e-05
2.21822e-05
7.30276e-06
2.21852e-05
2.21855e-05
2.09503e-06
8.78531e-06
3.74044e-06
8.51672e-07
8.52084e-07
8.78559e-06
2.0938e-06
2.09511e-06
8.78907e-06
3.74137e-06
8.52019e-07
8.5242e-07
8.78946e-06
2.09501e-06
1.97184e-05
1.97176e-05
1.97213e-05
1.97207e-05
7.31993e-06
2.21865e-05
2.21866e-05
2.21843e-05
2.21844e-05
7.31278e-06
2.09406e-06
8.53108e-07
8.78835e-06
3.7572e-06
2.09517e-06
8.78809e-06
8.52608e-07
2.09685e-06
8.53644e-07
8.79261e-06
3.75882e-06
2.098e-06
8.79229e-06
8.53134e-07
7.3137e-06
2.21837e-05
2.21838e-05
7.3159e-06
2.21862e-05
2.21863e-05
2.09537e-06
8.78805e-06
3.75819e-06
8.52646e-07
8.78848e-06
2.09435e-06
8.53086e-07
2.09811e-06
8.79225e-06
3.75989e-06
8.53169e-07
8.79263e-06
2.0969e-06
8.53613e-07
1.97169e-05
1.97179e-05
1.97198e-05
1.97208e-05
7.30193e-06
2.21822e-05
2.21823e-05
7.29927e-06
2.2183e-05
2.21833e-05
2.09578e-06
8.52475e-07
3.75608e-06
8.78903e-06
8.78803e-06
8.52975e-07
2.09423e-06
2.09736e-06
8.52972e-07
3.75779e-06
8.79161e-06
8.79215e-06
8.5348e-07
2.09565e-06
2.09448e-06
8.78833e-06
8.52989e-07
3.75556e-06
2.09573e-06
8.78787e-06
8.52528e-07
2.09637e-06
8.79243e-06
8.53505e-07
3.7573e-06
2.09798e-06
8.79197e-06
8.53038e-07
7.30189e-06
2.21794e-05
2.21799e-05
2.21788e-05
2.21793e-05
7.29997e-06
1.33011e-05
2.01834e-06
1.21787e-05
2.55849e-06
1.2179e-05
2.55955e-06
1.33009e-05
2.29112e-05
5.47076e-06
8.71287e-06
2.29092e-05
5.46998e-06
1.33009e-05
2.01734e-06
1.2179e-05
2.55952e-06
1.21787e-05
1.33011e-05
2.55844e-06
2.29065e-05
5.46789e-06
8.71296e-06
5.47023e-06
2.29078e-05
1.33005e-05
1.21792e-05
2.55758e-06
2.01749e-06
1.33007e-05
1.21789e-05
2.55731e-06
2.28976e-05
8.71031e-06
5.46335e-06
2.29009e-05
5.46364e-06
2.28996e-05
5.46327e-06
8.70981e-06
2.28976e-05
5.46067e-06
1.33006e-05
2.01845e-06
1.21789e-05
2.55664e-06
1.33003e-05
1.21792e-05
2.5589e-06
1.33008e-05
1.2179e-05
2.55934e-06
2.01733e-06
1.3301e-05
1.21787e-05
2.55828e-06
2.2903e-05
8.71235e-06
5.46856e-06
5.46909e-06
2.29063e-05
2.29063e-05
5.46943e-06
8.71199e-06
2.29042e-05
5.46773e-06
1.3301e-05
2.01827e-06
1.21787e-05
2.55791e-06
1.2179e-05
2.55931e-06
1.33008e-05
7.31762e-06
2.2187e-05
2.21863e-05
2.21842e-05
2.21835e-05
7.31898e-06
2.09128e-06
3.75872e-06
8.79182e-06
8.53005e-07
2.08857e-06
3.75763e-06
8.52526e-07
8.78869e-06
7.30289e-06
2.21867e-05
2.2186e-05
2.09505e-06
8.79194e-06
3.7594e-06
8.5281e-07
8.79224e-06
8.53228e-07
2.09506e-06
2.0924e-06
8.7887e-06
3.75824e-06
8.52331e-07
8.52759e-07
8.78906e-06
2.09239e-06
1.972e-05
1.97192e-05
1.97194e-05
1.97204e-05
7.32024e-06
2.21839e-05
2.21832e-05
7.3219e-06
2.21857e-05
2.2185e-05
2.0983e-06
8.52571e-07
3.75453e-06
8.79163e-06
8.52964e-07
8.79214e-06
2.09728e-06
2.0956e-06
8.52052e-07
3.75309e-06
8.78822e-06
8.78876e-06
8.52477e-07
2.09458e-06
2.09655e-06
8.79228e-06
8.52868e-07
3.75364e-06
8.52439e-07
2.09723e-06
8.79191e-06
2.09387e-06
8.78897e-06
8.52389e-07
3.75254e-06
2.09456e-06
8.78858e-06
8.5196e-07
7.32404e-06
2.21864e-05
2.21859e-05
2.21835e-05
2.21828e-05
7.32368e-06
1.97178e-05
1.97189e-05
1.33014e-05
2.0185e-06
1.21789e-05
2.55943e-06
1.21792e-05
2.56067e-06
1.33011e-05
2.2917e-05
5.48324e-06
8.71723e-06
2.29175e-05
5.47886e-06
1.33013e-05
2.01751e-06
1.21792e-05
2.56112e-06
1.21789e-05
1.33015e-05
2.55975e-06
2.29119e-05
5.47595e-06
8.71758e-06
5.47927e-06
2.29121e-05
1.33004e-05
2.55771e-06
1.21794e-05
2.01758e-06
1.33007e-05
2.55751e-06
1.21791e-05
2.29004e-05
8.71252e-06
5.46607e-06
2.29027e-05
5.46814e-06
2.29028e-05
5.46651e-06
8.71207e-06
2.28997e-05
5.46573e-06
1.33006e-05
2.01854e-06
2.55682e-06
1.2179e-05
1.33003e-05
2.55912e-06
1.21794e-05
1.3301e-05
1.21792e-05
2.56012e-06
2.01746e-06
1.33012e-05
1.21789e-05
2.55889e-06
2.29043e-05
8.7148e-06
5.46908e-06
5.47316e-06
2.29057e-05
2.29085e-05
5.47635e-06
8.71515e-06
2.29075e-05
5.47301e-06
1.33011e-05
2.01841e-06
1.21789e-05
2.55862e-06
1.21792e-05
2.55981e-06
1.33008e-05
1.32988e-05
2.01839e-06
2.55738e-06
1.21783e-05
2.55841e-06
1.21786e-05
1.32986e-05
2.28981e-05
5.46158e-06
8.71226e-06
5.45952e-06
2.29025e-05
1.33013e-05
2.01839e-06
1.21786e-05
2.56037e-06
1.21789e-05
2.56139e-06
1.33011e-05
2.29258e-05
5.50079e-06
8.71853e-06
5.50231e-06
2.29285e-05
1.32987e-05
2.55856e-06
1.21786e-05
2.01734e-06
1.32989e-05
2.55757e-06
1.21783e-05
2.29042e-05
8.71325e-06
5.46707e-06
5.46346e-06
2.29087e-05
2.29058e-05
5.46655e-06
8.71262e-06
2.29013e-05
5.46451e-06
1.3299e-05
2.01834e-06
2.55794e-06
1.21783e-05
2.55894e-06
1.21786e-05
1.32988e-05
1.33012e-05
1.2179e-05
2.5613e-06
2.01742e-06
1.33013e-05
1.21786e-05
2.56028e-06
2.29258e-05
8.71853e-06
5.50081e-06
5.50236e-06
2.29285e-05
2.29286e-05
5.50219e-06
8.71818e-06
2.29258e-05
5.50067e-06
1.33013e-05
2.01838e-06
1.21786e-05
2.56037e-06
1.21789e-05
2.5614e-06
1.33011e-05
7.32522e-06
2.21881e-05
2.21873e-05
2.21865e-05
2.21857e-05
7.32139e-06
2.09139e-06
8.53608e-07
8.79241e-06
3.75904e-06
8.79218e-06
2.08939e-06
8.53133e-07
2.08853e-06
8.53127e-07
8.78837e-06
3.75777e-06
8.52641e-07
2.08651e-06
8.78816e-06
7.32156e-06
2.21841e-05
2.21832e-05
2.21887e-05
7.31811e-06
2.21879e-05
2.09564e-06
8.7922e-06
3.76008e-06
8.53191e-07
8.79256e-06
8.53604e-07
2.0954e-06
2.09275e-06
8.78826e-06
3.75881e-06
8.52727e-07
8.53129e-07
8.78855e-06
2.09252e-06
1.97207e-05
1.97201e-05
1.97213e-05
1.97224e-05
7.31988e-06
2.21851e-05
2.21842e-05
7.32326e-06
2.21864e-05
2.21856e-05
2.09742e-06
8.53068e-07
3.75804e-06
8.79166e-06
8.53535e-07
8.79213e-06
2.09611e-06
2.09453e-06
8.52653e-07
3.75766e-06
8.78781e-06
8.78833e-06
8.53119e-07
2.09322e-06
2.09616e-06
8.7924e-06
8.53527e-07
3.75752e-06
8.53095e-07
2.09727e-06
8.79194e-06
2.09326e-06
8.78858e-06
8.531e-07
3.75691e-06
2.09438e-06
8.78804e-06
8.52656e-07
7.31968e-06
2.21849e-05
2.21841e-05
2.21829e-05
2.21821e-05
7.31755e-06
1.97195e-05
1.97203e-05
1.33007e-05
2.01852e-06
2.55875e-06
1.2179e-05
2.55981e-06
1.21793e-05
1.33005e-05
2.29104e-05
5.47228e-06
8.71561e-06
5.4708e-06
2.29091e-05
1.33005e-05
2.01753e-06
2.55981e-06
1.21793e-05
2.55868e-06
1.33007e-05
1.2179e-05
2.29067e-05
5.47218e-06
8.71636e-06
5.47346e-06
2.2908e-05
1.33011e-05
2.0184e-06
2.55814e-06
1.2179e-05
2.55911e-06
1.21793e-05
1.3301e-05
2.29078e-05
5.46392e-06
8.71277e-06
2.29048e-05
5.46437e-06
1.33009e-05
2.01741e-06
2.55891e-06
1.21793e-05
1.3301e-05
2.55789e-06
1.2179e-05
2.2905e-05
5.46712e-06
8.71325e-06
5.46763e-06
2.29071e-05
1.33004e-05
2.5596e-06
1.21793e-05
2.01751e-06
1.33006e-05
2.55851e-06
1.2179e-05
2.29028e-05
8.71491e-06
5.47176e-06
5.47426e-06
2.29046e-05
2.2906e-05
5.47402e-06
8.71546e-06
2.29043e-05
5.47268e-06
1.33005e-05
2.01846e-06
2.55843e-06
1.2179e-05
2.55954e-06
1.21793e-05
1.33003e-05
1.3301e-05
2.55909e-06
1.21793e-05
2.01743e-06
1.33011e-05
2.55804e-06
1.2179e-05
2.29008e-05
8.71257e-06
5.46582e-06
5.4676e-06
2.29029e-05
2.2905e-05
5.46951e-06
8.71257e-06
2.29036e-05
5.46741e-06
1.33011e-05
2.0184e-06
2.55802e-06
1.2179e-05
2.5591e-06
1.21793e-05
1.33008e-05
1.97187e-05
1.97184e-05
1.97186e-05
1.97183e-05
7.30783e-06
2.21829e-05
2.21831e-05
7.31873e-06
2.21849e-05
2.21851e-05
2.09442e-06
8.51823e-07
3.74299e-06
8.78578e-06
2.09317e-06
8.52309e-07
8.78635e-06
2.09504e-06
8.52192e-07
3.74325e-06
8.78939e-06
2.09191e-06
8.52695e-07
8.78997e-06
2.09309e-06
8.78694e-06
8.52345e-07
3.74075e-06
2.09414e-06
8.51879e-07
8.7863e-06
2.09425e-06
8.79046e-06
8.52753e-07
3.74069e-06
2.09688e-06
8.52283e-07
8.78989e-06
7.30909e-06
2.21837e-05
2.21839e-05
7.30525e-06
2.21812e-05
2.21815e-05
1.97164e-05
1.9718e-05
1.97167e-05
1.97181e-05
1.97162e-05
1.97147e-05
1.97192e-05
1.97179e-05
7.304e-06
2.21781e-05
2.21787e-05
2.21752e-05
2.21758e-05
7.30497e-06
2.09404e-06
8.52715e-07
8.78818e-06
3.74908e-06
2.09544e-06
8.7871e-06
8.52201e-07
2.09553e-06
8.5324e-07
8.7918e-06
3.752e-06
2.09684e-06
8.79116e-06
8.52725e-07
7.28974e-06
2.21755e-05
2.2176e-05
7.29983e-06
2.21773e-05
2.21778e-05
2.0951e-06
8.78633e-06
3.74889e-06
8.52102e-07
8.78692e-06
2.09379e-06
8.52591e-07
2.09673e-06
8.79074e-06
3.75225e-06
8.52614e-07
8.79124e-06
2.09566e-06
8.53134e-07
1.33008e-05
2.01816e-06
1.21787e-05
2.54946e-06
1.2179e-05
2.55738e-06
1.33003e-05
2.2905e-05
5.4696e-06
8.71223e-06
2.29037e-05
5.46379e-06
1.33008e-05
2.0172e-06
1.2179e-05
2.55834e-06
1.21787e-05
1.33009e-05
2.55681e-06
2.29006e-05
5.46026e-06
8.7127e-06
5.46379e-06
2.29011e-05
7.33123e-06
2.21884e-05
2.2188e-05
2.21865e-05
2.21861e-05
7.32653e-06
2.09783e-06
8.52946e-07
8.79177e-06
3.74909e-06
8.79119e-06
2.09884e-06
8.52537e-07
2.09511e-06
8.52411e-07
8.78837e-06
3.7501e-06
8.51988e-07
2.09613e-06
8.78781e-06
7.32843e-06
2.21848e-05
2.21844e-05
2.21883e-05
7.32756e-06
2.21879e-05
2.0991e-06
8.79061e-06
3.75171e-06
8.52539e-07
8.79129e-06
8.53007e-07
2.09786e-06
2.09636e-06
8.78817e-06
3.75142e-06
8.52022e-07
8.52498e-07
8.7898e-06
2.09513e-06
1.97173e-05
1.97165e-05
1.33008e-05
2.01832e-06
1.21789e-05
2.55605e-06
1.21792e-05
2.55836e-06
1.33005e-05
2.29052e-05
5.47058e-06
8.7134e-06
2.29034e-05
5.46529e-06
1.33007e-05
2.01734e-06
1.21792e-05
2.55931e-06
1.21789e-05
1.33009e-05
2.55759e-06
2.29007e-05
5.45692e-06
8.71364e-06
5.46418e-06
2.29006e-05
1.32992e-05
2.01831e-06
2.55859e-06
1.21783e-05
2.55959e-06
1.21786e-05
1.3299e-05
2.29122e-05
5.47205e-06
8.71396e-06
5.47179e-06
2.2907e-05
1.3299e-05
2.01727e-06
2.55913e-06
1.21786e-05
2.55818e-06
1.32991e-05
1.21783e-05
2.29108e-05
5.47505e-06
8.71481e-06
5.47723e-06
2.29148e-05
1.33013e-05
2.01838e-06
1.21786e-05
2.56024e-06
1.21789e-05
2.56132e-06
1.33011e-05
2.29279e-05
5.50144e-06
8.71794e-06
2.29254e-05
5.49955e-06
1.33012e-05
2.01741e-06
1.21789e-05
2.56127e-06
1.33013e-05
1.21786e-05
2.56023e-06
2.29242e-05
5.49598e-06
8.71807e-06
5.49936e-06
2.29257e-05
7.32047e-06
2.21871e-05
2.21863e-05
2.21839e-05
2.21831e-05
7.31636e-06
2.09654e-06
8.53292e-07
8.79168e-06
3.74621e-06
8.79254e-06
2.09751e-06
8.52759e-07
2.09363e-06
8.52951e-07
8.78809e-06
3.75343e-06
8.52478e-07
2.09461e-06
8.78762e-06
7.3152e-06
2.21823e-05
2.21815e-05
2.21852e-05
7.31168e-06
2.21844e-05
2.09793e-06
8.79069e-06
3.74762e-06
8.52622e-07
8.79159e-06
8.53113e-07
2.09698e-06
2.09502e-06
8.78718e-06
3.75361e-06
8.5239e-07
8.529e-07
8.78781e-06
2.09408e-06
1.97191e-05
1.97179e-05
1.33003e-05
2.01834e-06
2.55658e-06
1.2179e-05
2.55834e-06
1.21793e-05
1.33001e-05
2.29043e-05
5.47309e-06
8.71302e-06
5.47133e-06
2.29019e-05
1.33001e-05
2.01738e-06
2.55916e-06
1.21793e-05
2.55755e-06
1.33004e-05
1.2179e-05
2.29015e-05
5.46968e-06
8.7132e-06
5.47305e-06
2.2903e-05
1.3301e-05
2.01827e-06
2.55613e-06
1.2179e-05
2.55793e-06
1.21793e-05
1.33007e-05
2.29032e-05
5.46732e-06
8.71186e-06
2.29003e-05
5.46629e-06
1.33009e-05
2.01731e-06
2.55879e-06
1.21793e-05
1.3301e-05
2.55733e-06
1.2179e-05
2.29006e-05
5.45572e-06
8.7122e-06
5.46592e-06
2.29039e-05
1.97154e-05
1.97145e-05
1.97156e-05
1.9715e-05
1.92257e-07
1.92258e-07
1.99147e-07
1.92261e-07
1.92261e-07
1.88788e-07
1.88789e-07
6.84715e-07
2.72405e-07
3.77979e-07
3.7809e-07
1.9226e-07
1.9226e-07
1.9915e-07
1.92264e-07
1.92265e-07
1.88842e-07
1.88787e-07
6.84792e-07
3.78334e-07
3.78374e-07
2.72482e-07
6.85275e-07
3.78057e-07
3.7809e-07
6.84912e-07
3.78327e-07
3.78381e-07
2.72416e-07
6.85409e-07
3.78048e-07
3.78093e-07
6.85406e-07
2.72819e-07
3.78066e-07
3.78114e-07
3.78325e-07
3.78371e-07
6.84807e-07
6.84739e-07
2.72471e-07
3.78149e-07
3.78106e-07
6.85374e-07
2.72904e-07
3.78101e-07
3.78123e-07
3.78362e-07
3.78379e-07
6.84827e-07
6.84756e-07
3.78376e-07
3.78443e-07
2.72535e-07
3.78154e-07
6.85232e-07
3.78095e-07
6.85414e-07
2.72893e-07
3.78249e-07
3.78152e-07
3.78503e-07
3.7842e-07
6.84854e-07
6.85358e-07
2.72817e-07
3.78054e-07
3.78105e-07
6.8478e-07
3.78322e-07
3.78367e-07
6.84811e-07
3.7832e-07
3.78369e-07
2.72474e-07
6.85322e-07
3.78049e-07
3.78101e-07
6.84903e-07
3.78376e-07
3.78387e-07
2.72581e-07
3.78128e-07
6.85376e-07
3.7813e-07
6.84899e-07
3.78491e-07
3.78399e-07
2.7257e-07
3.78127e-07
6.85386e-07
3.78225e-07
1.92271e-07
1.92272e-07
1.99165e-07
1.92278e-07
1.92277e-07
1.88801e-07
1.88802e-07
1.92271e-07
1.92276e-07
1.99169e-07
1.92275e-07
1.92282e-07
1.88803e-07
1.88803e-07
1.92272e-07
1.92278e-07
1.99166e-07
1.9228e-07
1.92281e-07
1.88808e-07
1.88809e-07
1.99147e-07
1.9226e-07
1.92261e-07
1.9226e-07
1.92262e-07
1.88791e-07
1.88791e-07
1.99169e-07
1.92274e-07
1.92279e-07
1.92263e-07
1.92279e-07
1.88802e-07
1.88803e-07
1.99172e-07
1.92277e-07
1.9228e-07
1.92277e-07
1.92281e-07
1.88805e-07
1.88805e-07
1.99171e-07
1.92277e-07
1.92281e-07
1.92276e-07
1.92281e-07
1.88805e-07
1.88807e-07
3.12139e-07
5.33036e-07
6.2711e-07
2.90979e-07
6.27469e-07
2.91193e-07
3.11805e-07
3.78037e-07
9.85886e-07
1.63966e-06
5.0375e-07
5.04192e-07
9.86422e-07
3.77519e-07
3.12289e-07
5.33368e-07
2.91026e-07
6.27532e-07
2.91251e-07
6.27922e-07
3.11968e-07
3.77866e-07
5.04296e-07
9.87858e-07
1.63873e-06
3.78321e-07
5.03833e-07
9.87065e-07
3.11973e-07
5.33122e-07
2.91234e-07
6.28024e-07
3.12318e-07
2.91048e-07
6.2758e-07
3.78399e-07
9.87087e-07
1.63998e-06
5.03837e-07
5.0427e-07
9.87806e-07
3.7786e-07
6.85161e-07
2.72766e-07
3.78001e-07
3.78085e-07
3.78251e-07
3.78344e-07
6.84733e-07
1.92282e-07
1.92274e-07
1.99193e-07
1.92279e-07
1.92276e-07
1.88868e-07
1.88803e-07
1.92271e-07
1.92274e-07
1.99172e-07
1.92276e-07
1.92284e-07
1.8884e-07
1.88803e-07
1.92278e-07
1.92275e-07
1.99203e-07
1.92283e-07
1.92288e-07
1.88875e-07
1.88806e-07
3.12204e-07
5.33382e-07
6.27478e-07
2.91048e-07
6.27762e-07
2.91234e-07
3.11865e-07
3.77543e-07
5.04163e-07
9.85794e-07
1.63819e-06
3.78061e-07
5.03709e-07
9.85444e-07
3.11846e-07
5.33042e-07
6.27614e-07
2.91171e-07
3.1217e-07
6.27279e-07
2.90985e-07
3.78126e-07
9.8625e-07
1.63947e-06
5.03803e-07
5.04174e-07
9.8661e-07
3.77663e-07
3.12234e-07
5.33278e-07
2.91011e-07
6.27268e-07
2.91232e-07
6.27668e-07
3.11882e-07
3.77817e-07
5.04256e-07
9.87515e-07
1.63851e-06
3.78308e-07
5.03796e-07
9.86673e-07
3.11925e-07
5.33037e-07
2.91246e-07
6.27765e-07
3.12284e-07
2.9101e-07
6.27321e-07
3.78334e-07
9.86836e-07
1.63967e-06
5.03816e-07
5.04233e-07
9.87392e-07
3.77772e-07
6.85223e-07
2.72852e-07
3.78057e-07
3.78105e-07
3.78333e-07
3.78372e-07
6.84769e-07
6.85324e-07
2.72763e-07
3.78045e-07
3.78085e-07
6.84853e-07
3.78316e-07
3.78358e-07
6.84894e-07
2.72465e-07
3.78297e-07
3.78338e-07
6.85389e-07
3.78035e-07
3.78077e-07
3.12246e-07
5.3311e-07
6.27431e-07
2.91008e-07
6.27795e-07
2.91218e-07
3.11913e-07
3.778e-07
5.04265e-07
9.86845e-07
1.63853e-06
9.86049e-07
3.78288e-07
5.03811e-07
3.1189e-07
5.32864e-07
6.27873e-07
2.91191e-07
6.27449e-07
3.1222e-07
2.90991e-07
3.78383e-07
9.8604e-07
1.63974e-06
5.03819e-07
9.86799e-07
5.04252e-07
3.77852e-07
3.12248e-07
5.33098e-07
6.27345e-07
2.90958e-07
6.27698e-07
2.91193e-07
3.11878e-07
3.77888e-07
5.04371e-07
9.87396e-07
1.63893e-06
3.78343e-07
9.86707e-07
5.03914e-07
3.11888e-07
5.32865e-07
6.277e-07
2.91157e-07
3.12233e-07
6.2731e-07
2.90933e-07
3.78474e-07
9.86693e-07
1.64022e-06
5.03927e-07
9.87419e-07
3.77903e-07
5.04363e-07
3.11928e-07
6.27756e-07
2.91222e-07
5.32897e-07
3.12267e-07
6.27415e-07
2.91029e-07
3.78301e-07
5.03798e-07
1.63957e-06
9.8599e-07
5.04236e-07
9.86653e-07
3.77872e-07
3.77905e-07
9.8662e-07
5.04231e-07
1.63839e-06
5.038e-07
3.78333e-07
9.85873e-07
3.12284e-07
5.33213e-07
6.2746e-07
2.91045e-07
6.27817e-07
2.91256e-07
3.11969e-07
3.11892e-07
6.27649e-07
2.91151e-07
5.32841e-07
3.12246e-07
6.27292e-07
2.90966e-07
3.78389e-07
5.03903e-07
1.64003e-06
9.86624e-07
9.87275e-07
5.04336e-07
3.77961e-07
3.77995e-07
9.87283e-07
5.04331e-07
1.63884e-06
3.7844e-07
9.86567e-07
5.03901e-07
3.12254e-07
5.33144e-07
6.27289e-07
2.9098e-07
6.27665e-07
2.91182e-07
3.1193e-07
6.85194e-07
2.72811e-07
3.78078e-07
3.78124e-07
3.78393e-07
3.78348e-07
6.84728e-07
6.84821e-07
2.72584e-07
3.78342e-07
3.78387e-07
3.78081e-07
6.85286e-07
3.78111e-07
3.12263e-07
5.33141e-07
6.27431e-07
2.91045e-07
6.27795e-07
2.91252e-07
3.1193e-07
3.77744e-07
5.0435e-07
9.86672e-07
1.63878e-06
9.85945e-07
3.78246e-07
5.03892e-07
3.11914e-07
5.32887e-07
6.27862e-07
2.91245e-07
6.2744e-07
3.12275e-07
2.9103e-07
3.78313e-07
9.86112e-07
1.63999e-06
5.03897e-07
9.86757e-07
5.04329e-07
3.77798e-07
3.12325e-07
5.33108e-07
2.9103e-07
6.2749e-07
2.91248e-07
6.27863e-07
3.11958e-07
3.78026e-07
5.0443e-07
9.89223e-07
1.63924e-06
3.78508e-07
9.88203e-07
5.03973e-07
3.11972e-07
5.32869e-07
2.91219e-07
6.27925e-07
3.12282e-07
2.91009e-07
6.27507e-07
3.7853e-07
9.87786e-07
1.64046e-06
5.03982e-07
9.88711e-07
3.77935e-07
5.04402e-07
3.1195e-07
6.27762e-07
2.91255e-07
5.3287e-07
3.12291e-07
6.27418e-07
2.91048e-07
3.78275e-07
5.03894e-07
1.63991e-06
9.86182e-07
5.04308e-07
9.86897e-07
3.77874e-07
3.77859e-07
9.86775e-07
5.04302e-07
1.63871e-06
5.03874e-07
3.78273e-07
9.86115e-07
3.12314e-07
5.33178e-07
6.27474e-07
2.91055e-07
6.27825e-07
2.9128e-07
3.11991e-07
3.11938e-07
2.91238e-07
6.27766e-07
5.32849e-07
3.12298e-07
2.9104e-07
6.2739e-07
3.78334e-07
5.0399e-07
1.64027e-06
9.86918e-07
9.87794e-07
5.04396e-07
3.77927e-07
3.77945e-07
9.88173e-07
5.04379e-07
1.63911e-06
3.78417e-07
9.87264e-07
5.03961e-07
3.12296e-07
5.33132e-07
2.91018e-07
6.27377e-07
2.91237e-07
6.27744e-07
3.11944e-07
3.12319e-07
5.3308e-07
2.9101e-07
6.27559e-07
2.91206e-07
6.27927e-07
3.11983e-07
3.78524e-07
9.89032e-07
1.63947e-06
5.03814e-07
5.04237e-07
9.89729e-07
3.78003e-07
3.11814e-07
6.27427e-07
2.91185e-07
5.32706e-07
3.12164e-07
6.27067e-07
2.90962e-07
3.77997e-07
5.0372e-07
1.63954e-06
9.84431e-07
3.7761e-07
5.04155e-07
9.84762e-07
3.77578e-07
9.83763e-07
5.04148e-07
1.63829e-06
3.7799e-07
5.03715e-07
9.83478e-07
3.12166e-07
5.33027e-07
6.27138e-07
2.90946e-07
3.11826e-07
6.27463e-07
2.91168e-07
3.11995e-07
2.91231e-07
6.27888e-07
5.32746e-07
3.12328e-07
2.91031e-07
6.27533e-07
3.78433e-07
5.03806e-07
1.6394e-06
9.89033e-07
9.89739e-07
5.04238e-07
3.78024e-07
3.78033e-07
9.89673e-07
5.04227e-07
1.63822e-06
3.7846e-07
9.88976e-07
5.03803e-07
3.12344e-07
5.3299e-07
2.91062e-07
6.27556e-07
2.91256e-07
6.27915e-07
3.12013e-07
6.85202e-07
2.72844e-07
3.7816e-07
3.78149e-07
3.7842e-07
3.78388e-07
6.84772e-07
6.84877e-07
2.72518e-07
3.78447e-07
3.78394e-07
3.78218e-07
6.85343e-07
3.78139e-07
3.12269e-07
5.33233e-07
2.91011e-07
6.27331e-07
2.91252e-07
6.27685e-07
3.1191e-07
3.77818e-07
5.0434e-07
9.86713e-07
1.63811e-06
5.03881e-07
3.78316e-07
9.86084e-07
3.11911e-07
5.32982e-07
2.91251e-07
6.27678e-07
2.91015e-07
3.12273e-07
6.27288e-07
3.78388e-07
9.86308e-07
1.6394e-06
5.03891e-07
5.0432e-07
9.86922e-07
3.77868e-07
3.11966e-07
2.91237e-07
6.27804e-07
5.33061e-07
3.12315e-07
2.91041e-07
6.2743e-07
3.78328e-07
5.03819e-07
1.63994e-06
9.86822e-07
3.77907e-07
5.04252e-07
9.87592e-07
3.77929e-07
9.87656e-07
5.04245e-07
1.63873e-06
3.78351e-07
5.03816e-07
9.8692e-07
3.123e-07
5.33324e-07
2.91048e-07
6.27409e-07
3.11961e-07
2.91251e-07
6.27783e-07
3.11921e-07
2.91211e-07
6.27645e-07
5.32858e-07
3.12271e-07
2.91007e-07
6.27286e-07
3.78298e-07
5.03879e-07
1.63934e-06
9.86208e-07
9.86937e-07
5.04295e-07
3.77891e-07
3.77893e-07
9.86968e-07
5.04299e-07
1.63816e-06
3.78312e-07
9.86266e-07
5.0387e-07
3.12265e-07
5.33131e-07
2.91033e-07
6.27304e-07
2.91222e-07
6.27672e-07
3.11937e-07
6.84828e-07
2.72466e-07
3.78273e-07
3.78342e-07
6.85297e-07
3.78033e-07
3.78094e-07
6.85234e-07
2.7281e-07
3.78052e-07
3.78106e-07
6.84729e-07
3.78317e-07
3.78371e-07
3.1228e-07
5.3339e-07
6.27388e-07
2.91094e-07
6.27774e-07
2.91306e-07
3.11915e-07
3.77743e-07
5.04199e-07
9.86616e-07
1.63806e-06
9.85952e-07
3.78298e-07
5.03773e-07
3.11959e-07
5.33091e-07
6.27767e-07
2.91274e-07
6.27395e-07
3.12309e-07
2.91083e-07
3.78282e-07
9.86024e-07
1.63919e-06
5.03813e-07
9.86724e-07
5.04221e-07
3.77736e-07
3.12238e-07
5.33249e-07
6.27092e-07
2.91024e-07
6.27543e-07
2.91219e-07
3.11913e-07
3.7786e-07
5.04307e-07
9.87191e-07
1.63862e-06
3.78384e-07
9.86415e-07
5.03879e-07
3.11929e-07
5.32947e-07
6.2757e-07
2.91191e-07
3.12253e-07
6.27191e-07
2.9099e-07
3.78358e-07
9.86197e-07
1.63979e-06
5.03901e-07
9.87044e-07
3.77763e-07
5.04314e-07
6.85359e-07
2.72897e-07
3.78171e-07
3.78159e-07
3.7842e-07
3.78428e-07
6.84891e-07
3.12277e-07
5.33335e-07
6.27429e-07
2.91066e-07
6.27791e-07
2.91273e-07
3.11915e-07
3.77776e-07
5.04308e-07
9.86772e-07
1.63845e-06
9.86045e-07
3.78328e-07
5.039e-07
3.11956e-07
5.33035e-07
6.27786e-07
2.91261e-07
6.27429e-07
3.12326e-07
2.91058e-07
3.78297e-07
9.85999e-07
1.6396e-06
5.03964e-07
9.86768e-07
5.0436e-07
3.77764e-07
3.12228e-07
5.33197e-07
2.91065e-07
6.27224e-07
2.91255e-07
6.27648e-07
3.11865e-07
3.77829e-07
5.04394e-07
9.87397e-07
1.63863e-06
3.7838e-07
9.86583e-07
5.03989e-07
3.11906e-07
5.32918e-07
2.91237e-07
6.27673e-07
3.12258e-07
2.91031e-07
6.27289e-07
3.78329e-07
9.86242e-07
1.63973e-06
5.04039e-07
9.8717e-07
3.77792e-07
5.04436e-07
3.12321e-07
5.33014e-07
2.91053e-07
6.27544e-07
2.91263e-07
6.2791e-07
3.11975e-07
3.77974e-07
5.04211e-07
9.89635e-07
1.63796e-06
5.0378e-07
3.78461e-07
9.88905e-07
3.12e-07
5.32724e-07
2.91273e-07
6.27882e-07
2.91063e-07
3.12337e-07
6.27527e-07
3.78538e-07
9.88798e-07
1.63913e-06
5.03811e-07
5.04217e-07
9.89587e-07
3.78049e-07
6.85346e-07
2.72894e-07
3.78199e-07
3.78106e-07
3.78395e-07
3.78481e-07
6.84872e-07
3.12265e-07
5.33234e-07
2.91089e-07
6.27198e-07
2.91285e-07
6.27595e-07
3.11904e-07
3.77779e-07
5.0428e-07
9.86756e-07
1.63783e-06
5.03875e-07
3.78343e-07
9.86086e-07
3.11932e-07
5.32942e-07
2.91249e-07
6.27611e-07
2.91051e-07
3.12263e-07
6.27234e-07
3.78293e-07
9.8612e-07
1.639e-06
5.03942e-07
5.04331e-07
9.86821e-07
3.77776e-07
4.99179e-07
5.00027e-07
5.00022e-07
4.99886e-07
4.45614e-07
4.54481e-07
4.54443e-07
4.63896e-07
4.03812e-07
4.18885e-07
4.18873e-07
4.39567e-07
3.68419e-07
3.88763e-07
3.88764e-07
4.17782e-07
3.38066e-07
3.62242e-07
3.62244e-07
3.96145e-07
3.11694e-07
3.3838e-07
3.38382e-07
3.74658e-07
2.88515e-07
3.16724e-07
3.16726e-07
3.53772e-07
2.6794e-07
2.97074e-07
2.97076e-07
3.34182e-07
2.49566e-07
2.79306e-07
2.79308e-07
3.16219e-07
2.32855e-07
2.62852e-07
2.62856e-07
2.99353e-07
2.17822e-07
2.48106e-07
2.48107e-07
2.85471e-07
2.06824e-07
2.38215e-07
2.38197e-07
2.77556e-07
2.01243e-07
2.34029e-07
2.34004e-07
2.73384e-07
1.99506e-07
2.33068e-07
2.3307e-07
2.72639e-07
1.99217e-07
2.32973e-07
2.32988e-07
2.72699e-07
1.99163e-07
2.32947e-07
2.32954e-07
2.72806e-07
1.99152e-07
2.3291e-07
2.3293e-07
2.7281e-07
1.99148e-07
2.32894e-07
2.32918e-07
2.72769e-07
1.99146e-07
2.32877e-07
2.32915e-07
2.72766e-07
2.32874e-07
2.7272e-07
5.06188e-07
5.0555e-07
5.0557e-07
5.06178e-07
5.05564e-07
5.05566e-07
5.05976e-07
5.05981e-07
5.0598e-07
5.05985e-07
5.05542e-07
5.0557e-07
5.06171e-07
5.05539e-07
5.05569e-07
5.06175e-07
4.99882e-07
4.67448e-07
5.00025e-07
5e-07
4.64508e-07