/*--------------------------------*- C++ -*----------------------------------*\
| =========                 |                                                 |
| \\      /  F ield         | OpenFOAM: The Open Source CFD Toolbox           |
|  \\    /   O peration     | Version:  2312                                  |
|   \\  /    A nd           | Website:  www.openfoam.com                      |
|    \\/     M anipulation  |                                                 |
\*---------------------------------------------------------------------------*/
FoamFile
{
    version     2.0;
    format      ascii;
    arch        "LSB;label=32;scalar=64";
    class       surfaceScalarField;
    location    "50";
    object      phi;
}
// * * * * * * * * * * * * * * * * * * * * * * * * * * * * * * * * * * * * * //

dimensions      [0 3 -1 0 0 0 0];

oriented        oriented;

internalField   nonuniform List<scalar> 
124832
(
7.25391e-10
-3.79808e-09
-1.23925e-09
-1.23915e-09
0.00110679
-0.00110678
-1.24559e-06
-1.15518e-11
1.38623e-08
0.00110467
-3.01957e-07
1.24881e-06
3.00105e-07
9.47863e-07
-3.11944e-07
-9.48158e-07
3.06946e-07
-0.00110468
1.03284e-09
1.52602e-09
-0.00110678
-6.236e-09
-6.06013e-09
0.00110679
-0.00110478
-1.24827e-06
-1.31187e-09
-1.19385e-09
0.00110479
-3.01573e-07
1.25152e-06
3.00187e-07
9.47705e-07
-3.1127e-07
-9.47818e-07
3.06758e-07
-0.00110466
-1.24574e-06
-1.58475e-09
3.8115e-09
0.00110466
-3.01914e-07
1.24899e-06
3.00168e-07
9.48281e-07
-3.1155e-07
-9.47592e-07
3.0691e-07
-0.000270896
1.27645e-06
1.24015e-06
-2.44488e-07
-2.47224e-07
0.000268871
1.28754e-06
1.24845e-06
-2.42083e-07
-2.50003e-07
0.000268923
-0.000270967
-1.29379e-06
-1.2521e-06
0.000270969
-0.000268925
2.47999e-07
2.53402e-07
3.77473e-09
0.00110427
-3.0463e-07
1.29077e-06
3.03033e-07
9.53672e-07
-3.11786e-07
-9.53248e-07
3.06995e-07
-0.00110427
-6.77004e-09
3.99805e-09
0.00110433
1.28837e-06
3.05771e-07
9.53224e-07
-3.1188e-07
-9.53472e-07
3.06996e-07
-0.00110433
-1.28238e-06
-3.04877e-07
0.00110426
-6.89359e-10
-0.00110427
1.36886e-08
-1.28773e-06
3.08701e-07
-3.07627e-07
-9.53107e-07
3.06889e-07
-3.11817e-07
9.5348e-07
1.28848e-06
0.00110433
-1.16431e-09
-0.00110433
3.41189e-09
-1.28502e-06
3.05987e-07
-3.04618e-07
-9.52856e-07
3.06748e-07
-3.11881e-07
9.5343e-07
-1.25197e-06
0.000270951
-0.000268909
2.48164e-07
2.50499e-07
3.71407e-09
0.00110523
-3.01854e-07
1.25188e-06
3.00567e-07
9.5344e-07
-3.11786e-07
-9.53133e-07
3.07187e-07
-0.00110523
-1.27976e-06
-2.57769e-10
4.02728e-09
0.00110423
-3.07711e-07
1.28269e-06
3.05411e-07
9.5364e-07
-3.11873e-07
-9.53108e-07
3.04202e-07
-0.00110422
0.00110523
-9.95645e-10
-0.00110523
3.48553e-09
-1.24867e-06
3.00547e-07
-3.02128e-07
-9.53136e-07
3.06932e-07
-3.11757e-07
9.53236e-07
1.28313e-06
0.00110422
-1.00796e-09
-0.00110422
3.54304e-09
-1.27979e-06
3.05887e-07
-3.07614e-07
-9.5256e-07
3.0402e-07
-3.08959e-07
9.53544e-07
-9.23682e-10
-0.00110479
8.14394e-09
-1.24818e-06
3.00537e-07
-3.01453e-07
-9.47937e-07
3.06864e-07
9.4754e-07
-3.11541e-07
1.2803e-06
0.00110385
-9.69182e-10
-0.00110385
3.86908e-09
-1.27677e-06
3.02997e-07
-3.04649e-07
-9.44813e-07
3.0143e-07
-3.06082e-07
9.44762e-07
-2.44985e-07
-2.50021e-07
0.000268898
-0.000270928
-1.24647e-06
0.000270926
-0.000268897
2.48232e-07
2.53174e-07
-9.96695e-08
-1.72174e-07
0.00110474
1.20882e-06
2.89616e-07
9.5017e-07
-3.09245e-07
3.06864e-07
-9.50809e-07
-1.31201e-06
-0.00110434
-3.12787e-07
-9.36961e-10
-0.00110466
3.25912e-09
-1.24307e-06
3.00406e-07
-3.01942e-07
-9.47553e-07
3.07042e-07
9.48364e-07
-3.11816e-07
1.24387e-06
0.0011048
-1.24775e-09
-0.0011048
3.73879e-09
-1.24045e-06
3.00323e-07
-3.02084e-07
-9.49981e-07
3.06887e-07
-3.11662e-07
9.50571e-07
-0.000268871
2.47981e-07
2.50779e-07
1.29028e-06
1.24859e-06
-2.44584e-07
-2.50044e-07
0.000268925
-7.16447e-09
0.00110427
-3.10166e-07
1.29364e-06
3.08552e-07
9.53479e-07
-3.11732e-07
-9.53422e-07
3.06633e-07
-1.28507e-06
-1.41572e-09
4.17507e-09
0.00110433
-3.07471e-07
1.28807e-06
3.05619e-07
9.53592e-07
-3.1163e-07
-9.53393e-07
3.04126e-07
-2.44683e-07
-2.46984e-07
0.000268909
3.79473e-09
0.00110523
-3.01945e-07
1.25189e-06
3.00366e-07
9.53692e-07
-3.11705e-07
-9.53162e-07
3.0681e-07
-1.27977e-06
-1.68392e-09
3.9802e-09
0.00110422
-3.07467e-07
1.28293e-06
3.05677e-07
9.53559e-07
-3.08779e-07
-9.52961e-07
3.03998e-07
-1.44175e-09
3.67527e-09
0.00110385
-3.04501e-07
1.28005e-06
3.02872e-07
9.45002e-07
-3.05846e-07
3.01398e-07
-9.44785e-07
-2.44822e-07
-2.49934e-07
0.000268895
-1.81764e-09
3.71742e-09
0.0011048
-3.01924e-07
1.24359e-06
3.00202e-07
9.50906e-07
-3.11394e-07
3.06902e-07
-9.49959e-07
-3.07316e-10
-6.98836e-08
0.000248234
-0.000248194
3.02063e-08
4.43988e-10
-7.24683e-09
5.05184e-08
-8.23731e-09
0.000208293
-0.000208328
-4.20677e-11
6.98061e-08
0.000248194
-3.05092e-08
5.83359e-10
-0.000248234
9.00162e-09
-4.82846e-08
0.000208325
5.13188e-09
-0.000208291
-9.30455e-09
-2.3042e-08
0.000103794
-0.000103762
-7.00358e-08
-3.15034e-10
0.00024822
-0.00024818
5.06399e-10
3.04257e-08
-7.78964e-09
5.03415e-08
-8.18971e-09
0.000208272
-0.000208306
6.97459e-08
6.2298e-11
0.00024818
4.73954e-10
-3.04407e-08
-0.00024822
9.26274e-09
-4.86684e-08
0.000208307
4.75757e-09
-0.000208272
4.22944e-09
-2.1245e-08
0.00110656
4.6213e-10
-0.00110655
-1.36892e-09
2.74127e-08
0.00110638
-0.00110641
-4.91523e-08
-2.78693e-08
0.00110631
-1.59878e-07
-0.00110618
-0.00110679
4.67437e-09
-1.29542e-09
0.00110657
-0.00110657
-1.25635e-09
-1.46058e-09
0.00110637
-0.00110637
-1.50876e-09
-1.70902e-09
0.00110634
-0.00110634
-1.6088e-09
-1.31935e-09
6.97974e-08
-1.7627e-09
0.000262515
-0.000262386
-1.87605e-09
-1.94982e-07
-2.24897e-09
1.25194e-06
0.00110478
-5.99078e-10
-9.47796e-07
3.06998e-07
-3.11729e-07
9.47501e-07
-1.2484e-06
3.00571e-07
-3.01757e-07
-0.00110478
3.1564e-08
4.83893e-08
0.000263103
-1.41924e-08
-0.000263037
-1.31434e-07
-1.72763e-08
0.00110123
7.46386e-10
-1.01249e-06
8.27493e-07
-8.29572e-07
1.01173e-06
-0.00110121
7.6124e-09
2.15943e-08
0.000103758
-0.000103787
-9.07327e-09
-2.03581e-08
0.000103787
-0.000103757
-4.08435e-10
6.95569e-08
0.000262501
-0.000262376
-1.92161e-07
-2.12889e-09
0.00110108
5.121e-08
9.68399e-10
1.01456e-06
-8.29778e-07
-1.0128e-06
8.27353e-07
-0.00110112
-2.79283e-08
-5.09115e-08
1.32974e-07
1.16282e-08
0.000263027
-0.000263093
1.31484e-08
1.24654e-06
0.00110466
1.68873e-11
-9.4793e-07
3.07077e-07
-3.12048e-07
9.47988e-07
-1.24582e-06
3.00749e-07
-3.01916e-07
1.56778e-09
-6.97185e-08
0.000262376
1.94437e-07
1.5669e-09
-0.000262504
1.79397e-08
0.00110107
9.88153e-10
-1.0128e-06
8.30123e-07
-8.27225e-07
1.01452e-06
3.12032e-08
4.82613e-08
0.000263093
-1.36551e-08
-0.000263029
-1.28885e-07
-1.28548e-06
-1.23839e-06
0.000270897
-0.000268869
2.42733e-07
2.53377e-07
-3.17328e-08
1.97304e-08
0.000300476
1.60857e-08
-0.00030043
-4.99794e-08
-3.18761e-08
1.97404e-08
0.000300392
1.68403e-08
-0.000300347
-4.9692e-08
-3.86609e-10
-6.97125e-08
-0.000248196
3.0052e-08
3.53323e-10
-0.00020833
-7.31673e-09
5.11001e-08
-7.03462e-09
0.000208293
-0.000248235
1.80245e-10
6.92803e-08
0.000248195
-3.01683e-08
2.27798e-10
8.85184e-09
-4.83424e-08
5.06611e-09
-0.000208293
-0.000103792
8.28017e-09
2.19776e-08
0.000103762
-8.57503e-09
-1.95549e-08
-0.000103759
-6.97304e-08
-4.00339e-10
-0.000248182
2.60223e-10
3.01528e-08
-0.000208307
-8.36078e-09
5.09224e-08
-7.74876e-09
0.000208272
-0.00024822
6.93412e-08
4.47972e-10
0.000248181
-9.45477e-11
-3.02148e-08
8.71136e-09
-4.82325e-08
5.33171e-09
-0.000208272
-1.20569e-09
-1.27417e-09
0.00110657
-1.49523e-09
-1.59123e-09
0.00110637
-1.48725e-09
-1.24916e-09
0.00110634
7.00935e-08
-1.26259e-09
-0.000262385
-2.5128e-09
-1.94708e-07
-0.000263101
-3.01419e-08
-5.2396e-08
1.34769e-07
1.1054e-08
0.000263038
0.00110122
-0.00110123
3.34114e-09
1.41746e-09
1.01451e-06
-8.26717e-07
-1.00998e-06
8.29888e-07
8.81519e-09
1.25185e-06
-9.08913e-10
-9.47508e-07
3.06445e-07
-3.11179e-07
9.47426e-07
-1.24818e-06
3.00609e-07
-3.01478e-07
-0.000262515
-6.86873e-08
1.78258e-09
0.000262386
1.95042e-09
1.93942e-07
3.152e-08
5.03427e-08
-1.42729e-08
-0.000263039
-1.31286e-07
-3.46813e-09
1.61718e-09
-1.01231e-06
8.26951e-07
-8.29519e-07
1.0115e-06
-0.000103783
9.28576e-09
2.24868e-08
0.000103751
-8.95781e-09
-1.98181e-08
-0.000103748
-7.45129e-10
6.97933e-08
-0.000262376
-1.95028e-07
-1.99556e-09
0.00110106
-0.00110106
4.12299e-09
8.59232e-10
1.015e-06
-8.29408e-07
-1.01268e-06
8.27593e-07
-0.000263093
-3.08562e-08
-5.02181e-08
1.32654e-07
1.15934e-08
0.00026303
3.27495e-09
1.24939e-06
-1.66503e-09
-9.47393e-07
3.06871e-07
-3.11349e-07
9.47749e-07
-1.24556e-06
2.97886e-07
-3.0168e-07
-0.000262504
8.29188e-10
-6.92004e-08
0.000262376
1.93978e-07
2.27492e-09
-3.50493e-09
9.15957e-10
-1.0123e-06
8.30154e-07
-8.26837e-07
1.01456e-06
3.16665e-08
4.7866e-08
-1.41132e-08
-0.000263031
-1.28935e-07
-0.000300481
3.07209e-08
-2.12804e-08
5.32451e-08
-1.53202e-08
0.000300434
-0.000300397
3.07683e-08
-2.11536e-08
4.82374e-08
-1.59522e-08
0.000300355
-1.28025e-06
-1.24382e-06
-0.000268871
2.47996e-07
2.50888e-07
-3.13843e-08
2.08236e-08
1.58744e-08
-0.000300435
-5.16478e-08
-3.15894e-08
2.09687e-08
1.62286e-08
-0.000300356
-4.68532e-08
2.32482e-08
0.000103786
-0.000103816
-2.05631e-08
0.000103817
-0.000103787
2.11109e-08
0.000103774
-0.000103803
-2.1074e-08
0.000103802
-0.000103772
3.11706e-08
5.11217e-08
-1.57708e-08
0.000300484
-0.000300528
2.82319e-08
5.33457e-08
-1.54938e-08
0.000300404
-0.000300449
0.000270967
-1.29125e-06
-1.25232e-06
-0.000268922
2.45507e-07
2.53526e-07
0.000300529
-2.88379e-08
1.84645e-08
-0.000300487
-5.20119e-08
0.00030045
-2.91977e-08
1.58049e-08
-0.000300406
-5.23099e-08
-2.03102e-08
-7.84741e-09
0.000103812
-0.000103784
2.19083e-08
8.46587e-09
0.000103787
-2.02535e-08
-8.44629e-09
0.0001038
-0.000103771
2.17768e-08
8.37474e-09
0.000103772
1.28782e-06
1.24875e-06
0.000268922
-2.42104e-07
-2.50102e-07
-3.11138e-08
0.000300531
-5.20077e-08
-0.000300483
1.48796e-08
-2.88162e-08
0.000300452
-5.18023e-08
-0.000300407
1.51716e-08
2.89386e-08
-1.89275e-08
5.38652e-08
0.000300487
2.85681e-08
-1.58547e-08
5.33849e-08
0.000300406
-6.98589e-08
0.000248191
-0.000248152
3.02434e-08
3.99697e-10
5.32232e-08
-8.68312e-09
0.000208223
-7.46923e-09
-0.00020826
6.96806e-08
0.000248152
-3.0331e-08
5.31222e-11
-0.000248191
-5.06865e-08
0.000208261
5.0987e-09
-0.000208225
-9.74099e-10
0.00026253
-0.000262402
-1.81378e-09
-1.95003e-07
1.35476e-07
1.18793e-08
0.000263042
-0.000263108
0.00110149
3.70105e-09
1.43944e-09
1.02018e-06
-8.35117e-07
-1.01841e-06
8.35614e-07
-0.00110149
3.0149e-09
0.00110427
-8.57191e-10
-1.28772e-06
3.06163e-07
-3.04638e-07
-9.53331e-07
3.0709e-07
-3.11924e-07
9.53514e-07
7.95608e-10
0.000262402
3.00753e-09
1.94285e-07
-0.00026253
0.000263106
-1.37904e-08
-0.000263038
-1.31515e-07
-3.18438e-09
0.00110149
-5.28474e-09
-1.01826e-06
8.35781e-07
-8.35262e-07
1.0204e-06
0.0002625
-0.000262375
-7.13398e-10
-1.95098e-07
1.35412e-07
1.1381e-08
0.00026293
-0.000262993
-3.00494e-08
0.00110144
-4.19687e-09
1.02008e-06
-8.35214e-07
-1.01829e-06
8.35558e-07
-0.00110143
3.35156e-09
0.00110433
1.28862e-06
-5.25512e-10
-9.53305e-07
3.07066e-07
9.53444e-07
-3.12091e-07
-1.28501e-06
3.06195e-07
-3.07424e-07
0.000262375
1.09237e-09
1.94336e-07
-0.0002625
0.000262993
3.12278e-08
-1.36281e-08
-0.00026293
-1.31429e-07
0.00110144
-5.0859e-09
-1.01808e-06
8.35793e-07
-8.35346e-07
1.02014e-06
-4.32384e-11
6.91461e-08
-3.03341e-08
5.80873e-10
0.000248195
-4.83896e-08
-0.000208295
6.1179e-09
5.06184e-08
-1.01594e-08
0.000208293
-2.27104e-10
-6.97204e-08
-0.000248195
3.05714e-08
1.94277e-10
6.9295e-08
-3.04034e-08
5.34764e-11
0.000248152
-4.83245e-08
8.4302e-09
0.000208254
-0.00020822
5.75222e-09
5.30016e-08
-8.15403e-09
-7.77256e-09
0.000208224
-6.95694e-08
0.00024819
-0.000248152
3.03318e-08
2.23949e-10
8.02922e-10
2.9133e-09
1.93969e-07
0.000262401
-1.03022e-09
-6.60961e-10
1.29077e-06
-3.07556e-07
3.05687e-07
9.53893e-07
-3.12014e-07
3.07024e-07
-9.53293e-07
0.000263106
-1.31402e-07
-0.000263041
-1.39538e-08
-0.00110149
-3.37756e-09
0.0011015
1.04954e-09
-1.01818e-06
8.33177e-07
-8.32233e-07
1.01992e-06
9.47732e-09
1.35439e-07
0.00026304
3.86119e-09
1.5656e-09
1.02045e-06
-8.32448e-07
-1.01825e-06
8.32874e-07
-8.66097e-10
0.000262529
-0.000262401
-2.72637e-09
-1.94777e-07
1.02039e-09
1.94065e-07
0.000262375
3.95233e-09
-1.28521e-06
-8.26669e-10
9.53933e-07
-3.12083e-07
-9.5319e-07
3.06966e-07
1.28834e-06
-3.04702e-07
3.03182e-07
2.88175e-08
0.000262993
-1.31303e-07
-0.000262925
-1.40716e-08
-0.00110144
0.00110144
1.05948e-09
-1.0182e-06
8.33269e-07
-8.32256e-07
1.01989e-06
-3.13715e-08
1.19529e-08
1.35583e-07
0.00026293
1.63671e-09
1.02019e-06
-8.32545e-07
-1.01819e-06
8.32891e-07
0.0002625
-0.000262374
-1.02132e-09
-1.94912e-07
0.00027095
-0.000268909
2.48161e-07
2.50604e-07
0.000300384
1.60789e-08
-0.000300343
-4.93496e-08
2.06584e-08
0.000300542
1.57074e-08
-0.000300495
-5.18718e-08
0.000103811
-8.74553e-09
-0.000103781
-2.00775e-08
-0.000103764
2.441e-08
0.000103762
1.24844e-06
0.000268909
-2.44884e-07
-2.47168e-07
0.00030039
-5.17497e-08
-0.000300346
1.60414e-08
2.31077e-08
-3.14808e-08
0.000300541
-5.19243e-08
-0.000300496
1.5562e-08
-1.62282e-08
5.37429e-08
0.00030034
-2.12081e-08
3.0976e-08
-1.6369e-08
5.34482e-08
0.000300495
-8.64734e-09
0.000103812
-0.00010378
8.49285e-09
0.000103781
-1.77286e-09
0.000262523
-0.000262394
-1.52738e-09
-1.95163e-07
1.32822e-07
1.14331e-08
0.000263001
-0.000263067
0.00110134
3.20039e-09
6.47788e-09
1.01999e-06
-8.32424e-07
-1.0183e-06
8.32867e-07
-0.00110135
2.99884e-09
0.00110523
-9.29122e-10
-1.2486e-06
3.00865e-07
-3.01849e-07
-9.53302e-07
3.07354e-07
-3.11833e-07
9.53341e-07
1.74519e-09
0.000262394
1.72877e-09
1.94231e-07
-0.000262522
0.000263066
-1.43379e-08
-0.000263001
-1.29192e-07
-3.97899e-09
0.00110134
1.10116e-09
-1.01813e-06
8.33075e-07
-8.32535e-07
1.02007e-06
-6.9729e-08
0.000248178
-0.000248138
3.0095e-08
8.9647e-12
5.07937e-08
-8.30767e-09
0.000208212
-0.000208247
6.98084e-08
0.000248138
-3.05676e-08
3.39464e-10
-0.000248178
-4.80748e-08
0.000208245
5.24102e-09
-0.000208211
0.000262492
-0.000262367
-1.94993e-07
-1.09563e-09
0.0011013
1.62684e-09
1.02008e-06
-8.32475e-07
-1.01828e-06
8.32768e-07
-0.0011013
-3.10823e-08
1.30346e-07
1.2116e-08
0.000262916
-0.000262977
3.47734e-09
0.00110422
1.28312e-06
8.59636e-09
-9.52863e-07
3.04314e-07
9.53829e-07
-3.09194e-07
-1.27997e-06
3.05889e-07
-3.07699e-07
0.000262367
1.94286e-07
1.53427e-09
-0.000262491
0.00110129
5.69126e-09
-1.01794e-06
8.32974e-07
-8.32522e-07
1.02029e-06
0.000262977
3.11094e-08
-1.3485e-08
-0.000262916
-1.26259e-07
6.91415e-08
1.35557e-10
2.88209e-10
-3.02711e-08
0.00024818
-4.81053e-08
-0.000208273
5.64311e-09
5.05613e-08
-7.86081e-09
0.000208272
-6.96294e-08
-6.30289e-11
-0.000248181
-5.30902e-11
3.04231e-08
1.76355e-09
1.66727e-09
1.94031e-07
0.000262394
3.73245e-09
-7.95671e-10
1.25186e-06
-3.02074e-07
3.0037e-07
9.53652e-07
-3.11952e-07
3.0721e-07
-9.53358e-07
0.000263067
-1.28844e-07
-0.000263001
-1.39337e-08
-0.00110134
-3.47519e-09
0.00110134
1.13603e-09
-1.01809e-06
8.33275e-07
-8.32288e-07
1.01978e-06
1.17159e-08
1.32783e-07
0.000263001
3.1326e-09
6.32009e-09
1.02008e-06
-8.32464e-07
-1.0182e-06
8.32838e-07
-1.56591e-09
0.000262522
-0.000262391
-1.69978e-09
-1.97455e-07
6.94327e-08
-3.06258e-08
3.97099e-10
0.000248139
-4.82008e-08
8.54192e-09
0.000208243
-0.000208209
5.67507e-09
5.0801e-08
-8.10202e-09
-7.67074e-09
0.00020821
-6.93793e-08
0.000248178
-0.000248139
3.01521e-08
1.83207e-10
1.94077e-07
1.69564e-09
0.000262367
-6.34266e-10
-1.28004e-06
-6.04179e-10
9.53967e-07
-3.09165e-07
-9.52783e-07
3.04266e-07
1.28273e-06
-3.07795e-07
3.05567e-07
-0.00110128
0.00110128
9.67823e-10
-1.01785e-06
8.33221e-07
-8.32153e-07
1.02015e-06
3.10894e-08
0.000262978
-1.26158e-07
-0.000262917
-1.39491e-08
6.14575e-09
1.0203e-06
-8.32417e-07
-1.01801e-06
8.32993e-07
-3.16125e-08
1.23787e-08
1.30279e-07
0.000262917
0.000262492
-0.000262364
-1.97473e-07
-9.5908e-10
-6.84774e-11
0.000248216
-0.00024818
1.56224e-10
3.29075e-08
0.000208311
5.22628e-09
-0.000208277
6.97792e-08
0.000262484
-0.000262359
-1.94982e-07
-1.59705e-09
1.97955e-08
0.00110385
5.29406e-09
-1.27686e-06
3.05889e-07
-3.04613e-07
-9.47459e-07
3.04251e-07
-3.1187e-07
9.45033e-07
-0.00110388
0.00110115
9.28717e-10
-1.01236e-06
8.30274e-07
-8.29496e-07
1.01451e-06
-0.00110115
4.8009e-08
0.00026302
-1.38813e-08
-0.000262959
-1.26325e-07
0.000248175
-0.000248136
3.05271e-08
-1.60715e-10
0.000208253
8.53493e-09
5.52194e-09
-0.000208219
-6.86776e-08
1.44162e-09
1.71416e-09
1.93761e-07
0.000262387
-1.2995e-09
-7.68539e-10
1.25181e-06
-3.017e-07
3.00576e-07
9.47766e-07
-3.11777e-07
-9.48191e-07
3.06965e-07
5.07388e-08
-1.31304e-07
-0.000263038
-1.41114e-08
-0.00110122
-4.93093e-09
1.10875e-09
-1.01264e-06
8.27613e-07
1.01168e-06
-8.29437e-07
-5.0072e-08
1.1316e-08
1.35028e-07
0.000263038
-1.18155e-09
1.10815e-09
1.01466e-06
-8.26765e-07
-1.00996e-06
8.30222e-07
6.96508e-08
-1.30822e-09
-0.000262386
-2.17787e-09
-1.94574e-07
-9.09753e-11
3.80786e-10
-3.19899e-08
0.00024818
0.000208315
-0.000208278
5.37911e-09
-7.50812e-09
0.000208277
-5.38345e-11
0.000248217
-0.00024818
-3.75792e-10
3.27008e-08
-6.90312e-08
1.93858e-07
1.09649e-09
0.000262359
9.43982e-09
-1.27955e-06
-1.40295e-10
9.45187e-07
-3.09131e-07
-9.45022e-07
3.01566e-07
1.28271e-06
-3.07466e-07
3.0567e-07
-0.00110115
0.00110115
9.88764e-10
-1.01243e-06
8.30292e-07
-8.29395e-07
1.01448e-06
4.80823e-08
3.17968e-08
0.000263021
-1.31506e-07
-0.000262955
-1.41635e-08
1.24932e-09
1.01465e-06
-8.29595e-07
-1.01257e-06
8.29954e-07
-5.08202e-08
-3.09154e-08
1.16466e-08
1.32688e-07
0.000262957
6.95913e-08
0.000262482
-0.000262359
-1.92099e-07
-1.22842e-09
-2.9987e-08
-3.09536e-13
0.000248136
8.30644e-09
0.000208252
-0.000208218
5.62231e-09
-8.74739e-09
-7.49077e-09
0.000208218
0.000248175
-0.000248136
3.05225e-08
2.64446e-10
4.86862e-08
-1.5893e-08
0.000300341
-0.000300384
-2.15129e-08
5.11184e-08
-1.55907e-08
0.00030049
-0.000300532
0.000270926
-0.000268898
2.48103e-07
2.53196e-07
0.000300383
1.59206e-08
-0.000300342
-4.70733e-08
2.05882e-08
0.000300531
1.61119e-08
-0.000300487
-4.9284e-08
7.72211e-09
0.000103782
-0.000103811
0.000103812
-9.20802e-09
-0.000103782
-1.97645e-08
-0.000103755
2.2101e-08
0.000103756
1.24327e-06
0.000268898
-2.45143e-07
-2.50011e-07
0.000300385
-4.72678e-08
-0.000300343
1.6173e-08
2.00616e-08
-3.11954e-08
0.000300532
-4.95006e-08
-0.00030049
1.90104e-08
-1.63112e-08
4.86162e-08
0.000300342
-2.18915e-08
3.1209e-08
-1.88813e-08
5.09648e-08
0.00030049
-8.71352e-09
0.000103809
-0.000103781
8.01197e-09
0.000103782
7.22789e-08
0.00026247
-0.000262348
-1.94891e-07
1.53518e-10
0.00110101
2.80074e-08
1.01698e-06
-8.29782e-07
8.272e-07
-1.0156e-06
-0.00110115
-5.05978e-08
1.35604e-07
1.17338e-08
0.000262916
-3.08168e-08
-0.000262982
-3.44766e-08
0.0011048
-5.72002e-09
-1.2432e-06
2.95051e-07
-3.0456e-07
-9.50723e-07
3.06953e-07
-3.0936e-07
9.50365e-07
-7.21997e-08
0.000262348
1.97028e-07
1.11658e-09
-0.000262472
0.00110098
1.31577e-09
-1.01543e-06
8.30133e-07
-8.27235e-07
1.01689e-06
4.78838e-08
0.000262982
-1.39649e-08
-0.000262919
-1.28815e-07
-7.86122e-11
0.000248211
-0.000248172
3.2875e-10
3.01685e-08
-8.58569e-09
0.000208274
-0.000208309
3.89807e-10
0.000248172
-6.84127e-11
-3.02776e-08
-0.000248212
0.000208308
5.04824e-09
-0.000208274
0.000248169
-0.000248128
4.80069e-10
3.0366e-08
-8.2034e-09
0.000208205
-0.000208239
-8.05594e-09
0.000248128
9.94888e-11
-3.01488e-08
-0.00024817
0.000208239
9.02496e-09
4.82687e-09
-0.000208205
1.09402e-09
-6.94924e-08
1.91542e-07
2.07823e-09
0.000262376
8.77265e-09
-1.69908e-10
1.2461e-06
-3.01907e-07
3.00225e-07
9.48518e-07
-3.1204e-07
-9.47797e-07
3.07109e-07
-0.00110107
-1.37489e-09
1.02589e-09
-1.01265e-06
8.30571e-07
1.01475e-06
-8.26922e-07
4.84301e-08
-1.28903e-07
-0.00026303
-1.37589e-08
1.04558e-08
1.21234e-09
1.01501e-06
-8.29803e-07
-1.01271e-06
8.27493e-07
-5.07326e-08
1.20348e-08
1.32927e-07
0.00026303
-6.45954e-10
6.93135e-08
-0.000262376
-1.94868e-07
-1.85445e-09
-7.19748e-08
1.941e-07
7.97498e-10
0.000262348
-5.78991e-10
-1.24055e-06
-2.54066e-10
9.50782e-07
-3.12045e-07
-9.50485e-07
3.07027e-07
1.24361e-06
-3.02047e-07
3.00338e-07
-0.00110099
0.00110099
8.90338e-10
-1.01505e-06
8.30368e-07
-8.26767e-07
1.01694e-06
4.81096e-08
3.16517e-08
0.000262983
-1.26385e-07
-0.000262922
-1.41288e-08
1.39424e-09
1.01716e-06
-8.29773e-07
-1.01532e-06
8.27255e-07
-5.12417e-08
-3.06546e-08
1.17945e-08
1.32878e-07
0.000262919
7.17788e-08
0.000262473
-0.000262348
-1.97318e-07
-3.35378e-11
7.18081e-11
8.17279e-11
-3.04259e-08
0.000248172
0.000208307
-0.000208273
5.77726e-09
-8.01639e-09
0.000208273
-3.19248e-11
0.000248212
-0.000248173
3.907e-10
3.00819e-08
-9.65832e-11
-3.02648e-08
0.000248127
8.29622e-09
0.000208238
-0.000208204
5.79449e-09
-8.5516e-09
-7.97219e-09
0.000208204
0.000248169
-0.000248128
5.39556e-10
3.00166e-08
0.000103784
-0.000103756
0.000103777
-0.000103749
0.000268869
-2.44547e-07
-2.47427e-07
2.02666e-08
-5.23922e-08
-0.000300433
1.55519e-08
1.99858e-08
-4.75667e-08
-0.000300354
1.61486e-08
-2.23695e-08
-1.52591e-08
5.06777e-08
0.000300432
-2.25943e-08
-1.5423e-08
5.06216e-08
0.000300349
0.000103778
-0.00010375
0.000103753
0.000103772
-0.000103743
0.000103746
2.2593e-08
0.000103782
-2.0252e-08
-0.000103779
2.1795e-08
0.000103769
-2.0118e-08
-0.000103767
3.08977e-08
5.33838e-08
-1.6032e-08
0.000300485
3.09967e-08
5.34543e-08
-1.61795e-08
0.000300406
-1.29134e-06
-1.25224e-06
-0.000268927
2.48123e-07
2.53614e-07
-3.15252e-08
1.58022e-08
-0.000300488
-4.94662e-08
-3.13704e-08
1.56996e-08
-0.000300408
-5.2137e-08
-6.96185e-08
-0.000248153
2.99529e-08
-4.51642e-11
5.05822e-08
-7.91199e-09
0.00020822
6.91158e-08
0.000248152
-3.02007e-08
1.08609e-10
-4.78052e-08
5.36722e-09
-0.000208222
-1.00626e-09
-0.0002624
-1.62656e-09
-1.94914e-07
1.35302e-07
1.15e-08
0.000263042
0.00110149
3.30059e-09
1.37484e-09
1.02037e-06
-8.35306e-07
-1.01843e-06
8.35429e-07
8.4378e-09
-8.74427e-10
-1.28744e-06
3.0611e-07
-3.0715e-07
-9.52934e-07
3.06794e-07
-3.11362e-07
9.53315e-07
9.95947e-10
0.000262401
2.6376e-09
1.94231e-07
-1.42246e-08
-0.000263042
-1.28801e-07
-3.86871e-09
1.02889e-09
-1.01768e-06
8.35484e-07
-8.34863e-07
1.0199e-06
-0.000262374
-9.12858e-10
-1.94879e-07
-2.76924e-08
1.35094e-07
1.14153e-08
0.000262925
0.00110144
1.31467e-09
1.02035e-06
-8.35255e-07
-1.01826e-06
8.35439e-07
4.00223e-09
1.28828e-06
-1.30477e-09
-9.52748e-07
3.04067e-07
9.5333e-07
-3.08589e-07
-1.28506e-06
3.05957e-07
-3.07311e-07
0.000262375
1.26557e-09
1.94148e-07
2.89428e-08
-1.3842e-08
-0.000262928
-1.28795e-07
1.06485e-09
-1.01751e-06
8.35393e-07
-8.34984e-07
1.01985e-06
5.33638e-08
-1.43788e-08
0.000300346
-2.39321e-08
5.27059e-08
-1.50953e-08
0.000300497
-0.000268909
2.48129e-07
2.50392e-07
1.89171e-08
-0.000300345
-5.19558e-08
2.24751e-08
1.63078e-08
-0.000300498
-5.2197e-08
8.86712e-09
0.000103779
-8.23868e-09
-0.000103778
-1.69762e-09
-0.00026239
-1.3222e-09
-1.97604e-07
1.32642e-07
1.17291e-08
0.000263005
0.00110134
3.49142e-09
1.29498e-09
1.02021e-06
-8.32584e-07
-1.01827e-06
8.3275e-07
3.29103e-09
-1.54238e-09
-1.24846e-06
3.0068e-07
-3.01756e-07
-9.52636e-07
3.06964e-07
-3.11339e-07
9.5352e-07
1.92549e-09
0.000262391
1.67939e-09
1.96916e-07
-1.4006e-08
-0.000263006
-1.28911e-07
-3.64809e-09
9.35872e-10
-1.01765e-06
8.3278e-07
-8.32215e-07
1.01993e-06
-6.95533e-08
-0.00024814
2.98775e-08
-1.85578e-10
5.08285e-08
-7.42736e-09
0.000208209
6.92925e-08
0.000248139
-3.03837e-08
5.88298e-10
-4.77714e-08
5.24077e-09
-0.000208209
-0.000262364
-1.97511e-07
-9.68516e-10
0.00110128
1.14464e-09
1.0204e-06
-8.32478e-07
-1.01805e-06
8.32728e-07
-3.09802e-08
1.30003e-07
1.14509e-08
0.000262918
3.51199e-09
1.28331e-06
-1.45268e-09
-9.52649e-07
3.0405e-07
9.53234e-07
-3.08486e-07
-1.27963e-06
3.06064e-07
-3.07298e-07
0.000262364
1.96777e-07
1.73057e-09
9.54291e-10
-1.01753e-06
8.32648e-07
-8.32249e-07
1.01991e-06
3.15952e-08
-1.38264e-08
-0.000262919
-1.26245e-07
1.58454e-11
-0.000248182
-4.34476e-10
3.28814e-08
-7.42596e-09
0.000208278
-2.34695e-10
0.00024818
6.52737e-10
-3.22333e-08
5.57099e-09
-0.000208279
6.99606e-08
-0.00026236
-1.92162e-07
-5.97172e-10
0.00110115
1.15149e-09
1.01488e-06
-8.29521e-07
8.30052e-07
-1.01245e-06
-5.04352e-08
1.34819e-07
1.14538e-08
0.000262956
3.38928e-09
-1.16138e-09
-1.27667e-06
3.03313e-07
-3.04311e-07
-9.4439e-07
3.01227e-07
-3.05589e-07
9.44811e-07
-6.90467e-08
0.00026236
1.91198e-07
1.46382e-09
1.17106e-09
-1.01197e-06
8.29881e-07
-8.29386e-07
1.01421e-06
4.8722e-08
-1.3999e-08
-0.000262956
-1.31459e-07
-0.000248136
3.0457e-08
2.42384e-10
-8.15098e-09
-8.02249e-09
0.000208218
0.000248136
-3.02092e-08
3.04121e-11
1.01703e-08
4.52044e-09
-0.000208218
4.79577e-08
-1.62374e-08
0.000300345
-2.17177e-08
5.09069e-08
-1.88449e-08
0.000300491
-0.000268895
2.48441e-07
2.53351e-07
1.65477e-08
-0.000300349
-4.71134e-08
1.97767e-08
1.94243e-08
-0.000300493
-4.99875e-08
8.27731e-09
0.000103779
-8.40301e-09
-0.000103777
7.23877e-08
-0.000262348
-1.97505e-07
-3.80728e-10
0.001101
1.0223e-09
1.01731e-06
-8.29587e-07
8.27256e-07
-1.01509e-06
-5.02358e-08
1.29698e-07
1.12911e-08
0.000262923
3.70887e-09
-1.53179e-09
-1.24038e-06
3.00579e-07
-3.01746e-07
-9.49551e-07
3.06893e-07
-3.11141e-07
9.50214e-07
-7.1785e-08
0.000262348
1.96702e-07
9.10712e-10
8.9034e-10
-1.0145e-06
8.29972e-07
-8.2664e-07
1.01694e-06
4.89424e-08
-1.44841e-08
-0.000262923
-1.26473e-07
2.38299e-10
-0.000248172
2.14339e-10
3.02253e-08
-7.69817e-09
0.000208273
2.66447e-10
0.000248172
2.22739e-10
-3.02434e-08
5.24017e-09
-0.000208273
-0.000248128
5.8479e-10
3.02042e-08
-8.44998e-09
-7.63005e-09
0.000208203
0.000248127
3.20712e-10
-3.03451e-08
9.87101e-09
4.54494e-09
-0.000208204
0.000103749
-0.00010375
0.000103742
-0.000103743
-1.29637e-09
3.04121e-08
0.000153689
-0.000153719
2.92228e-10
-3.04307e-08
6.0489e-10
-0.000248234
-4.13553e-10
6.93865e-08
-0.000184353
-9.65308e-10
-2.57994e-10
0.000184384
-0.000242344
3.02577e-08
1.75692e-09
0.000242387
-7.42237e-08
-0.000184384
-5.43043e-10
-0.000242386
7.72026e-11
7.25307e-08
5.06058e-10
0.000153718
-8.34164e-05
-2.82441e-08
-7.07758e-10
8.34454e-05
-3.06968e-08
0.000285524
-6.16832e-11
6.66001e-08
-0.000285568
4.64062e-09
0.000208325
1.12895e-08
-4.83426e-08
1.19933e-09
-8.34483e-05
-2.09174e-09
0.00028557
-6.71447e-08
-0.00015369
1.03381e-09
-3.02347e-08
3.02263e-08
2.90745e-10
-9.91254e-11
-6.96828e-08
1.18952e-09
0.000184353
-7.92248e-11
-0.000184384
-3.05801e-08
0.000242344
7.32885e-08
-0.000242386
-0.000153718
-1.99779e-10
-7.39338e-08
2.98197e-08
8.34158e-05
-0.000285525
2.8732e-08
0.000285571
-6.73249e-08
-8.00449e-09
-8.10992e-09
5.04836e-08
6.6552e-08
8.34451e-05
0.000103794
-9.44767e-09
-2.23491e-08
-0.000103762
7.86132e-09
2.41891e-08
3.01318e-08
-1.50832e-09
0.000153687
-0.000153717
8.54439e-10
2.75273e-10
-3.03585e-08
-0.000248219
-2.00532e-10
6.93541e-08
-0.000242332
3.06759e-08
1.92233e-09
0.000242375
-7.43098e-08
-0.000184349
-5.5226e-10
-4.29906e-10
0.00018438
-0.000242374
9.84375e-11
7.24847e-08
-0.00018438
-6.27492e-10
1.43823e-09
0.000153716
-8.34179e-05
-2.9376e-08
-1.53595e-09
8.34488e-05
-2.92844e-08
0.000285518
-6.97811e-11
6.7066e-08
-0.000285564
5.23165e-09
0.000208306
8.971e-09
-4.86701e-08
-1.09385e-10
-8.3447e-05
-2.00738e-09
0.000285563
-6.70129e-08
-0.000153688
-3.06891e-08
4.30404e-10
5.77269e-10
3.03417e-08
-1.76438e-10
-6.97935e-08
-2.99575e-08
0.000242333
7.31114e-08
-0.000242375
1.90005e-09
0.000184349
-5.76588e-10
-0.00018438
-0.000153716
-7.40714e-08
-6.50618e-10
2.93077e-08
8.34203e-05
-0.000285517
2.97557e-08
0.000285561
-6.69031e-08
-8.23041e-09
-7.57882e-09
5.01299e-08
6.71749e-08
8.34515e-05
0.000103787
-9.30498e-09
-1.97175e-08
7.76509e-09
2.17396e-08
-1.172e-08
-1.19274e-08
0.000232755
-0.000232784
2.52364e-08
2.73208e-08
-8.55876e-05
-1.17563e-08
-1.66037e-08
8.5616e-05
-8.55754e-05
-1.16813e-08
-1.66966e-08
8.56038e-05
-8.56149e-05
1.56026e-08
-8.56028e-05
1.54472e-08
-2.37884e-08
-2.41184e-08
0.000232779
-3.30203e-08
3.45833e-08
2.42701e-08
0.000239362
-7.19071e-08
-0.000239316
-4.92418e-08
1.60107e-08
0.000300477
2.07843e-08
-0.000300434
-3.10574e-08
0.000265887
-1.01502e-07
-0.000265817
-5.04719e-08
1.59045e-08
0.000196404
-0.000196369
-3.05267e-08
3.44562e-08
2.67205e-08
0.000239292
-7.19357e-08
-0.000239251
-4.93175e-08
1.63876e-08
0.000300392
2.04908e-08
-3.17184e-08
-0.000300348
0.000265768
-1.0621e-07
-4.5457e-08
-0.000265697
1.61811e-08
0.000196347
-0.000196312
1.20519e-08
1.18196e-08
-0.000232756
-8.5587e-05
-8.55748e-05
3.22982e-08
-3.67998e-08
0.000239319
7.2461e-08
-0.000196367
-3.65901e-08
0.000196403
5.36336e-08
-1.58479e-08
-2.17801e-08
3.12957e-08
-0.000265815
2.98944e-08
0.000265887
-1.04323e-07
-4.7909e-08
1.06568e-07
5.11953e-08
0.000239358
-6.92657e-08
3.20821e-08
-3.48377e-08
0.000239254
6.80282e-08
-0.000196312
-3.45199e-08
0.000196346
5.1565e-08
-1.60111e-08
-2.17534e-08
3.10335e-08
-0.000265699
2.76503e-08
0.000265774
-1.06547e-07
-4.5441e-08
1.0167e-07
5.10661e-08
0.000239295
-7.17433e-08
-7.76933e-10
3.0604e-08
0.000153689
-0.000153718
-7.44936e-11
-3.03466e-08
1.42832e-10
-0.000248235
-1.86386e-10
6.91635e-08
-0.000184353
-1.2305e-09
-4.38359e-10
-0.000242346
3.01343e-08
1.71936e-09
-7.44557e-08
-0.000184383
-4.8317e-10
-0.000242387
-2.19901e-10
7.23423e-08
1.02318e-09
-8.34178e-05
-2.8617e-08
-7.94313e-10
8.34472e-05
-2.89554e-08
0.000285523
5.71636e-10
-0.000285569
6.73264e-08
5.57188e-09
0.000208327
8.13055e-09
-4.77633e-08
-1.67395e-11
-8.34467e-05
-1.3768e-09
0.000285569
-6.67527e-08
-0.00015369
1.16772e-09
-3.00847e-08
3.01023e-08
-1.66075e-10
1.92516e-10
-6.97528e-08
1.71437e-09
0.000184352
-0.000184384
6.78545e-11
-2.97335e-08
0.000242345
-0.000242387
7.28994e-08
-0.000153718
-7.35739e-11
-7.37902e-08
3.00275e-08
8.34171e-05
-0.000285524
2.88311e-08
-6.69069e-08
-7.71942e-09
-8.69668e-09
5.03511e-08
6.69343e-08
0.00010379
-8.73439e-09
-1.92101e-08
8.53208e-09
2.22619e-08
3.08805e-08
-4.64665e-10
0.000153687
-0.000153717
-7.36029e-10
-1.57726e-10
-3.03461e-08
-0.00024822
-6.30389e-11
6.92055e-08
-0.000242333