/*--------------------------------*- C++ -*----------------------------------*\
| =========                 |                                                 |
| \\      /  F ield         | OpenFOAM: The Open Source CFD Toolbox           |
|  \\    /   O peration     | Version:  2312                                  |
|   \\  /    A nd           | Website:  www.openfoam.com                      |
|    \\/     M anipulation  |                                                 |
\*---------------------------------------------------------------------------*/
FoamFile
{
    version     2.0;
    format      ascii;
    arch        "LSB;label=32;scalar=64";
    class       volVectorField;
    location    "50";
    object      U;
}
// * * * * * * * * * * * * * * * * * * * * * * * * * * * * * * * * * * * * * //

dimensions      [0 1 -1 0 0 0 0];

internalField   nonuniform List<vector> 
43008
(
(-7.46329e-07 -7.43556e-07 0.105133)
(1.05434e-06 -9.55849e-07 0.104893)
(-8.06705e-07 -7.77821e-07 0.105133)
(-7.92913e-07 1.00598e-06 0.104893)
(1.05121e-06 -8.114e-07 0.104893)
(-4.59245e-05 -4.59034e-05 0.104569)
(4.59809e-05 4.59553e-05 0.104569)
(-4.86912e-05 -4.86641e-05 0.104589)
(1.05191e-06 8.83233e-07 0.104893)
(-1.05964e-06 9.74387e-07 0.104893)
(9.55751e-07 8.93337e-07 0.104893)
(-9.28514e-07 9.06317e-07 0.104893)
(4.86752e-05 -4.8687e-05 0.104589)
(8.68865e-07 1.01349e-06 0.104893)
(9.67376e-07 -1.08649e-06 0.104893)
(8.60877e-07 9.24579e-07 0.104893)
(9.45425e-07 -9.48349e-07 0.104893)
(-8.72334e-07 8.66555e-07 0.104893)
(-9.19326e-07 -9.62293e-07 0.104893)
(4.59702e-05 -4.60494e-05 0.104569)
(-4.86567e-05 4.86792e-05 0.104588)
(-1.02582e-06 -1.12322e-06 0.104893)
(9.09647e-07 -9.09777e-07 0.104893)
(-9.53111e-07 -8.99206e-07 0.104893)
(4.86304e-05 4.86821e-05 0.104588)
(4.5972e-05 4.59582e-05 0.104569)
(1.05992e-06 8.2055e-07 0.104893)
(-1.08354e-06 7.93138e-07 0.104893)
(-4.59255e-05 4.58863e-05 0.104569)
(7.92855e-07 1.03504e-06 0.104893)
(7.94452e-07 -1.05965e-06 0.104893)
(-8.00819e-07 -9.694e-07 0.104893)
(4.59812e-05 -4.60369e-05 0.104569)
(-9.73096e-07 -7.92969e-07 0.104893)
(1.84302e-07 -1.87659e-05 0.0989305)
(6.41149e-07 1.44098e-05 0.0884438)
(-4.05069e-07 1.85872e-05 0.0988773)
(-1.62784e-06 -1.39495e-05 0.0885002)
(4.33743e-06 -7.20711e-06 0.0758024)
(-1.88208e-05 1.84282e-07 0.0989302)
(1.43195e-05 7.77161e-07 0.0884434)
(1.85994e-05 -4.33384e-07 0.0988771)
(-1.40504e-05 -1.77617e-06 0.0885002)
(7.63738e-07 -7.48505e-07 0.105133)
(-7.74837e-07 7.13382e-07 0.105133)
(6.5031e-07 6.27373e-07 0.105133)
(-7.97682e-07 -7.73195e-07 0.105133)
(7.58478e-07 -8.08939e-07 0.105133)
(-8.2641e-07 7.91965e-07 0.105133)
(7.52063e-07 7.76291e-07 0.105133)
(2.35944e-05 5.22953e-07 0.103402)
(-9.26178e-07 8.96754e-07 0.104893)
(2.0089e-05 -1.05025e-05 0.0997269)
(-7.70939e-07 -1.71853e-07 0.105051)
(7.44916e-06 -4.01461e-06 0.0757434)
(-7.12825e-06 4.33638e-06 0.0758017)
(3.83647e-07 2.34853e-05 0.103401)
(-1.12352e-07 -8.44056e-07 0.105051)
(9.6148e-06 -2.13223e-05 0.0996519)
(9.0762e-07 -9.84119e-07 0.104893)
(-4.37139e-07 -2.39132e-05 0.103372)
(-1.35221e-07 -8.39803e-07 0.105051)
(-1.03022e-05 2.00677e-05 0.0997257)
(4.8657e-05 4.87068e-05 0.104589)
(7.24372e-06 9.60522e-06 0.0946046)
(9.59785e-06 7.09045e-06 0.0946025)
(2.46083e-07 -1.87634e-05 0.0989311)
(1.28894e-06 1.44175e-05 0.0884434)
(-2.61528e-07 1.83449e-05 0.0988776)
(-1.5237e-06 -1.39004e-05 0.0885)
(-4.10491e-06 7.47201e-06 0.0757415)
(4.12468e-06 -6.81672e-06 0.0757994)
(-1.87652e-05 2.40936e-07 0.0989308)
(1.44057e-05 9.3823e-07 0.0884436)
(1.83772e-05 -2.60851e-07 0.0988773)
(-1.38953e-05 -1.49277e-06 0.0884996)
(7.55447e-07 -7.74803e-07 0.105133)
(-8.0286e-07 8.05488e-07 0.105133)
(7.5578e-07 8.02341e-07 0.105133)
(2.35686e-05 5.90257e-07 0.103401)
(-2.10645e-05 9.44152e-06 0.099651)
(-8.46586e-07 -1.00345e-07 0.105051)
(-8.44056e-07 9.0569e-07 0.104893)
(-2.3697e-05 -3.76258e-07 0.103372)
(2.01078e-05 -1.05227e-05 0.0997274)
(-8.58919e-07 -8.82355e-08 0.105051)
(7.7123e-06 -4.32939e-06 0.0757394)
(-6.80266e-06 4.11982e-06 0.0757943)
(3.79988e-07 2.35859e-05 0.103401)
(-1.37742e-07 -7.75424e-07 0.105051)
(9.79559e-06 -2.12778e-05 0.099652)
(8.83536e-07 -8.0608e-07 0.104893)
(-3.98019e-07 -2.37126e-05 0.103372)
(-1.44334e-07 -7.67444e-07 0.105051)
(-1.04426e-05 1.99949e-05 0.0997259)
(-7.52118e-06 -9.54686e-06 0.0945371)
(-9.51292e-06 -7.42946e-06 0.0945366)
(4.86765e-05 4.87348e-05 0.104589)
(6.48426e-06 9.2215e-06 0.094606)
(9.2044e-06 6.59379e-06 0.0946038)
(3.9899e-06 7.34681e-06 0.0757432)
(-4.35646e-06 -7.21923e-06 0.0758016)
(7.27465e-06 4.00027e-06 0.0757419)
(-7.46297e-06 -4.493e-06 0.0758001)
(9.62658e-06 7.56198e-06 0.0945354)
(7.53143e-06 9.46646e-06 0.0945327)
(-4.87146e-05 -4.87158e-05 0.104589)
(-9.38828e-06 -7.1018e-06 0.0946043)
(-7.2866e-06 -9.47755e-06 0.0946021)
(-3.80863e-06 -7.2764e-06 0.0758006)
(4.20061e-06 7.52534e-06 0.0757421)
(-7.1944e-06 -4.08913e-06 0.075799)
(7.39055e-06 4.07087e-06 0.075741)
(4.60244e-05 4.59856e-05 0.104569)
(-9.29572e-06 -7.14125e-06 0.0946048)
(-7.02683e-06 -9.43281e-06 0.0946029)
(9.76928e-06 7.67992e-06 0.0945352)
(7.49137e-06 9.60294e-06 0.0945323)
(-3.01006e-07 -1.87607e-05 0.0989308)
(-5.22585e-07 1.45182e-05 0.0884435)
(2.93448e-07 1.85155e-05 0.0988778)
(1.65807e-06 -1.39147e-05 0.0885001)
(3.80612e-07 -2.35418e-05 0.103401)
(9.90815e-06 2.13017e-05 0.0996519)
(-1.26551e-07 8.86585e-07 0.105051)
(8.99571e-07 8.84338e-07 0.104893)
(-4.65827e-07 2.39063e-05 0.103372)
(-1.03362e-05 -2.00467e-05 0.0997259)
(-1.45545e-07 8.0687e-07 0.105051)
(-4.70691e-07 -2.35754e-05 0.103402)
(-9.54864e-06 2.12879e-05 0.0996509)
(8.49607e-08 9.22238e-07 0.105051)
(-9.10154e-07 9.70317e-07 0.104893)
(4.02539e-07 2.38849e-05 0.103372)
(1.02287e-05 -2.00333e-05 0.0997248)
(1.0505e-07 8.42455e-07 0.105051)
(-4.24138e-07 1.84461e-05 0.0988774)
(-1.17475e-06 -1.40915e-05 0.0885008)
(9.67013e-07 1.44009e-05 0.0884435)
(2.7962e-07 -1.89051e-05 0.0989308)
(3.13052e-07 1.85057e-05 0.0988778)
(1.27678e-06 -1.40024e-05 0.0885)
(-8.66253e-07 1.44047e-05 0.0884431)
(-3.32351e-07 -1.87999e-05 0.0989306)
(-4.95144e-07 2.37174e-05 0.103372)
(1.07409e-06 9.00185e-07 0.104893)
(-1.02798e-05 -2.01088e-05 0.0997262)
(-1.33095e-07 8.02486e-07 0.105051)
(9.94508e-06 2.13315e-05 0.099652)
(-1.39137e-07 9.23876e-07 0.105051)
(4.75931e-07 -2.35256e-05 0.103401)
(4.01757e-07 2.37676e-05 0.103372)
(-1.05926e-06 9.35227e-07 0.104893)
(1.03415e-05 -1.99657e-05 0.0997248)
(1.20826e-07 8.10234e-07 0.105051)
(-9.94983e-06 2.13966e-05 0.0996511)
(1.17031e-07 9.48729e-07 0.105051)
(-4.18442e-07 -2.35557e-05 0.103402)
(4.86901e-05 -4.86496e-05 0.104589)
(9.37118e-06 -6.95408e-06 0.0946025)
(7.02689e-06 -9.40279e-06 0.0946058)
(7.22632e-06 -4.16023e-06 0.0758048)
(4.15491e-06 -7.10049e-06 0.0758024)
(-4.03436e-06 7.42724e-06 0.0757425)
(-4.60066e-05 4.5977e-05 0.104569)
(9.46398e-06 -6.80165e-06 0.0946026)
(6.99979e-06 -9.35748e-06 0.0946068)
(-9.71715e-06 7.74646e-06 0.0945324)
(-7.59962e-06 9.75824e-06 0.0945329)
(7.31517e-06 -4.08788e-06 0.0758041)
(-7.24531e-06 4.23563e-06 0.0757396)
(-2.36708e-05 4.20293e-07 0.103401)
(2.12605e-05 9.73102e-06 0.0996515)
(9.23235e-07 -1.14085e-07 0.105051)
(8.69267e-07 8.59876e-07 0.104893)
(2.38496e-05 -4.38535e-07 0.103372)
(-2.02068e-05 -1.05982e-05 0.0997252)
(8.29394e-07 -1.24855e-07 0.105051)
(-1.8693e-05 -2.78932e-07 0.0989305)
(1.44409e-05 -6.14397e-07 0.0884445)
(1.85996e-05 3.30629e-07 0.0988774)
(-1.383e-05 1.56633e-06 0.0885003)
(-2.35589e-05 -4.29177e-07 0.103402)
(9.26526e-07 9.82598e-08 0.105051)
(2.13632e-05 -9.90555e-06 0.0996509)
(9.77285e-07 -9.52859e-07 0.104893)
(2.38917e-05 4.2522e-07 0.103372)
(8.4358e-07 1.13736e-07 0.105051)
(-1.99997e-05 1.01577e-05 0.0997242)
(1.84331e-05 -4.00636e-07 0.098877)
(-1.39268e-05 -1.40119e-06 0.0885009)
(1.43772e-05 8.7024e-07 0.0884435)
(-1.8861e-05 3.46287e-07 0.0989305)
(2.37239e-05 -4.51382e-07 0.103372)
(8.68091e-07 1.03818e-06 0.104893)
(-2.00143e-05 -1.03079e-05 0.0997257)
(8.30996e-07 -1.16127e-07 0.105051)
(2.12849e-05 9.72938e-06 0.0996513)
(9.50684e-07 -1.27737e-07 0.105051)
(-2.34931e-05 5.00138e-07 0.103401)
(1.85938e-05 3.65781e-07 0.0988774)
(-1.41641e-05 1.41652e-06 0.0884996)
(1.4432e-05 -8.8935e-07 0.0884433)
(-1.87212e-05 -2.19021e-07 0.0989304)
(2.37928e-05 4.37417e-07 0.103372)
(9.37303e-07 -1.10286e-06 0.104893)
(8.10141e-07 1.31973e-07 0.105051)
(-1.98906e-05 1.01059e-05 0.0997245)
(9.36363e-07 1.17459e-07 0.105051)
(2.13926e-05 -1.01087e-05 0.0996509)
(-2.35072e-05 -3.65651e-07 0.103402)
(1.88214e-05 3.68316e-07 0.0989324)
(1.3915e-05 -1.54621e-06 0.088502)
(2.35931e-05 -4.10437e-07 0.103402)
(-1.07194e-06 -1.03719e-06 0.104893)
(-8.00975e-07 1.01244e-08 0.105051)
(1.99575e-05 1.03285e-05 0.0997256)
(1.88053e-05 -2.19983e-07 0.0989307)
(1.39011e-05 1.44361e-06 0.0885017)
(-2.36145e-05 -4.28272e-07 0.103373)
(-8.79571e-07 1.01967e-06 0.104893)
(2.00564e-05 -1.04472e-05 0.0997276)
(-8.12892e-07 -1.20699e-07 0.105051)
(-2.11137e-05 9.56496e-06 0.0996508)
(-8.16326e-07 -1.47561e-07 0.105051)
(2.33683e-05 5.77438e-07 0.103402)
(-1.82238e-05 -4.32017e-07 0.0988766)
(1.38971e-05 -1.48142e-06 0.0885029)
(-1.42912e-05 1.00071e-06 0.0884423)
(1.88925e-05 4.1391e-07 0.0989325)
(-2.36929e-05 3.9895e-07 0.103373)
(-9.81442e-07 -1.07219e-06 0.104893)
(-7.74769e-07 7.56925e-08 0.105051)
(1.99941e-05 1.04351e-05 0.0997262)
(-8.70378e-07 4.69983e-08 0.105051)
(-2.13606e-05 -9.79688e-06 0.0996515)
(2.35219e-05 -3.30815e-07 0.103402)
(-1.83591e-05 2.84494e-07 0.0988773)
(1.37862e-05 1.3339e-06 0.0885017)
(-1.44765e-05 -1.04451e-06 0.0884446)
(1.88518e-05 -2.57262e-07 0.0989305)
(7.59721e-06 -9.54457e-06 0.094533)
(9.43693e-06 -7.58209e-06 0.0945347)
(-4.86499e-05 4.86431e-05 0.104589)
(-6.99907e-06 9.32775e-06 0.0946006)
(-9.27367e-06 6.816e-06 0.0946045)
(4.07498e-06 -7.44957e-06 0.0757436)
(-4.31037e-06 7.23201e-06 0.0758022)
(-7.15138e-06 4.30822e-06 0.0758008)
(7.52199e-06 -4.00784e-06 0.0757426)
(4.60373e-05 -4.60798e-05 0.104569)
(-7.09892e-06 9.53036e-06 0.0946011)
(-9.4434e-06 6.91735e-06 0.0946049)
(7.65553e-06 -9.65001e-06 0.0945329)
(9.56652e-06 -7.53842e-06 0.0945341)
(-4.20223e-06 7.11441e-06 0.0758012)
(4.00172e-06 -7.45152e-06 0.0757439)
(-4.36036e-07 2.35484e-05 0.103402)
(5.03895e-09 -9.56722e-07 0.105051)
(-9.70052e-06 -2.13124e-05 0.0996518)
(-9.80898e-07 -1.09555e-06 0.104893)
(3.92219e-07 -2.38751e-05 0.103372)
(2.03333e-08 -8.80975e-07 0.105051)
(1.04387e-05 1.99775e-05 0.0997251)
(2.01593e-07 1.8696e-05 0.0989316)
(6.10364e-07 -1.4618e-05 0.0884449)
(-2.3812e-07 -1.85106e-05 0.0988778)
(-1.63724e-06 1.38501e-05 0.088501)
(-2.8734e-07 1.87479e-05 0.0989314)
(-7.5038e-07 -1.44149e-05 0.0884433)
(3.33521e-07 -1.84668e-05 0.0988772)
(1.72211e-06 1.38443e-05 0.0884996)
(-4.59034e-07 -2.38052e-05 0.103372)
(1.06215e-06 -9.39775e-07 0.104893)
(-1.40035e-07 -8.08397e-07 0.105051)
(-1.01585e-05 1.99699e-05 0.0997261)
(-1.34332e-07 -8.497e-07 0.105051)
(9.91482e-06 -2.13519e-05 0.0996518)
(4.31561e-07 2.34892e-05 0.103401)
(4.13344e-07 -2.37798e-05 0.103372)
(-1.04674e-06 -9.80971e-07 0.104893)
(7.16812e-08 -7.85333e-07 0.105051)
(1.02668e-05 1.99605e-05 0.0997256)
(5.39888e-08 -8.99097e-07 0.105051)
(-9.77536e-06 -2.14689e-05 0.0996519)
(-4.04646e-07 2.34103e-05 0.103402)
(-3.77462e-07 -1.85346e-05 0.0988777)
(-1.43315e-06 1.41066e-05 0.0885008)
(7.90015e-07 -1.44446e-05 0.0884444)
(2.04042e-07 1.86702e-05 0.0989316)
(2.92156e-07 -1.84828e-05 0.0988768)
(1.27014e-06 1.38488e-05 0.0884993)
(-8.59717e-07 -1.45999e-05 0.0884429)
(-2.05277e-07 1.86505e-05 0.0989313)
(6.98838e-06 4.11666e-06 0.075799)
(4.25602e-06 7.15516e-06 0.0757972)
(-4.59666e-05 -4.59703e-05 0.104569)
(7.19032e-06 9.55559e-06 0.0946065)
(9.64539e-06 7.24376e-06 0.0946041)
(-7.38614e-06 -9.4483e-06 0.0945356)
(-9.29607e-06 -7.28393e-06 0.0945351)
(6.93051e-06 3.98783e-06 0.0757952)
(-7.73031e-06 -4.26507e-06 0.0757383)
(4.0575e-06 6.83076e-06 0.075793)
(-4.18198e-06 -7.74969e-06 0.0757368)
(4.56234e-06 7.76814e-06 0.0757391)
(-4.15481e-06 -7.07461e-06 0.0757963)
(7.41618e-06 4.19785e-06 0.0757393)
(-7.05122e-06 -4.16191e-06 0.075796)
(9.48342e-06 7.43838e-06 0.0945364)
(7.49563e-06 9.52427e-06 0.0945332)
(-4.87957e-05 -4.87427e-05 0.104589)
(-9.44179e-06 -6.85607e-06 0.0946056)
(-7.03879e-06 -9.49759e-06 0.0946033)
(-4.38898e-07 -1.87393e-05 0.0989311)
(-8.79811e-07 1.43732e-05 0.0884434)
(2.73251e-07 1.8358e-05 0.0988777)
(1.46109e-06 -1.37837e-05 0.0884991)
(3.12753e-07 -2.35307e-05 0.103401)
(9.77001e-06 2.13863e-05 0.0996524)
(-1.34638e-07 8.65047e-07 0.105051)
(9.01717e-07 8.5992e-07 0.104893)
(-3.86871e-07 2.38508e-05 0.103372)
(-1.04219e-05 -2.00744e-05 0.0997264)
(-1.45172e-07 7.54335e-07 0.105051)
(-4.14916e-07 -2.35134e-05 0.103401)
(-9.53498e-06 2.12572e-05 0.0996515)
(8.2997e-08 8.58506e-07 0.105051)
(-9.92949e-07 8.17217e-07 0.104893)
(4.84756e-07 2.3793e-05 0.103372)
(1.03325e-05 -1.99723e-05 0.0997246)
(8.06142e-08 7.6242e-07 0.105051)
(-9.33992e-06 7.66935e-06 0.0945328)
(-7.19457e-06 9.39898e-06 0.0945334)
(4.85937e-05 -4.8634e-05 0.104589)
(9.47696e-06 -7.04437e-06 0.0946028)
(7.29636e-06 -9.55857e-06 0.0946066)
(-7.45188e-06 4.30805e-06 0.0757387)
(7.12627e-06 -4.10686e-06 0.0758018)
(-2.35504e-05 4.06172e-07 0.103401)
(2.13481e-05 9.80855e-06 0.0996517)
(8.75243e-07 -1.21381e-07 0.105051)
(8.05423e-07 8.82951e-07 0.104894)
(2.38474e-05 -3.83302e-07 0.103372)
(-2.00634e-05 -1.02965e-05 0.0997259)
(7.6167e-07 -1.34904e-07 0.105051)
(-1.86654e-05 -3.7987e-07 0.0989308)
(1.42892e-05 -1.20492e-06 0.0884429)
(1.84537e-05 3.56069e-07 0.0988773)
(-1.36468e-05 1.53368e-06 0.0884988)
(-2.35256e-05 -3.16836e-07 0.103402)
(8.38505e-07 1.13208e-07 0.105051)
(2.13839e-05 -9.82698e-06 0.0996515)
(8.23748e-07 -9.1199e-07 0.104893)
(2.3806e-05 4.80722e-07 0.103372)
(7.52008e-07 1.07247e-07 0.105051)
(-1.99665e-05 1.03428e-05 0.0997251)
(1.89786e-05 4.45992e-07 0.0989331)
(-1.43065e-05 1.14112e-06 0.0884429)
(-1.81819e-05 -4.71311e-07 0.0988768)
(1.3911e-05 -1.41473e-06 0.0885026)
(2.35342e-05 -2.56529e-07 0.103402)
(-8.15578e-07 1.00369e-07 0.105051)
(-2.12054e-05 -9.67176e-06 0.0996521)
(-8.34984e-07 -9.31742e-07 0.104893)
(-2.36949e-05 5.275e-07 0.103373)
(-7.85824e-07 1.21257e-07 0.105051)
(2.0178e-05 1.04421e-05 0.099726)
(1.88919e-05 -2.97007e-07 0.0989306)
(-1.44414e-05 -8.79847e-07 0.0884447)
(-1.83985e-05 2.22224e-07 0.0988771)
(1.41408e-05 1.96948e-06 0.0885009)
(7.09734e-06 -9.33382e-06 0.0945338)
(9.47223e-06 -7.51038e-06 0.0945347)
(-4.8742e-05 4.8761e-05 0.104589)
(-6.86393e-06 9.3941e-06 0.0946025)
(-9.58007e-06 7.29559e-06 0.0946049)
(4.11493e-06 -7.40635e-06 0.075742)
(-4.07271e-06 6.92552e-06 0.0757983)
(-3.65674e-07 2.35513e-05 0.103402)
(7.52378e-08 -8.02844e-07 0.105051)
(-9.6972e-06 -2.11977e-05 0.0996525)
(-9.39627e-07 -8.06637e-07 0.104893)
(4.4727e-07 -2.37904e-05 0.103372)
(7.54867e-08 -7.54388e-07 0.105051)
(1.06407e-05 2.02649e-05 0.0997256)
(3.9003e-07 1.87611e-05 0.0989315)
(9.53114e-07 -1.41895e-05 0.0884442)
(-3.06996e-07 -1.84401e-05 0.0988774)
(-1.49447e-06 1.38825e-05 0.0885002)
(-1.78232e-07 1.87855e-05 0.0989317)
(-1.07887e-06 -1.43656e-05 0.0884426)
(4.06876e-07 -1.8439e-05 0.0988765)
(1.86956e-06 1.41721e-05 0.0884989)
(-7.49072e-06 -4.15914e-06 0.0757342)
(7.55804e-06 4.56648e-06 0.0757959)
(-4.2578e-06 -7.56343e-06 0.0757327)
(4.50754e-06 7.578e-06 0.0757932)
(-1.15533e-06 6.22951e-06 0.0823944)
(-4.75156e-07 1.85567e-05 0.0988772)
(2.55015e-07 -5.44717e-06 0.084784)
(-2.36997e-07 -1.86721e-05 0.0975707)
(-4.77601e-07 5.63689e-06 0.0847468)
(-2.62588e-07 1.80289e-05 0.0975064)
(8.65648e-07 -5.91905e-06 0.0824401)
(9.62731e-07 -6.25079e-06 0.0720379)
(-9.892e-07 1.36619e-05 0.0930593)
(-1.82463e-06 -1.39896e-05 0.0885002)
(-8.29016e-07 7.46118e-06 0.071967)
(-2.72171e-07 -1.40421e-05 0.0931367)
(8.5018e-07 -6.0324e-06 0.0824413)
(2.12754e-07 -1.87302e-05 0.0989304)
(-4.51047e-07 5.67599e-06 0.0847466)
(-6.78033e-08 1.84041e-05 0.0975065)
(-6.74349e-07 6.26828e-06 0.0823944)
(1.40187e-07 -5.38837e-06 0.0847837)
(-1.87843e-07 -1.85104e-05 0.0975704)
(-1.49619e-06 6.516e-06 0.0719673)
(-1.9396e-07 -1.44046e-05 0.0931369)
(8.09703e-07 1.43303e-05 0.0884445)
(-7.72787e-07 1.38649e-05 0.0930602)
(7.11623e-07 -6.48918e-06 0.0720367)
(4.36847e-06 -7.19125e-06 0.0758025)
(-3.96364e-06 7.44555e-06 0.0757428)
(6.12726e-06 -1.35364e-06 0.0823946)
(1.85288e-05 -4.58366e-07 0.0988771)
(-1.87696e-05 -2.82816e-07 0.0975704)
(-5.45922e-06 1.4174e-07 0.0847839)
(1.79728e-05 -2.41644e-07 0.0975062)
(5.64587e-06 -5.67219e-07 0.0847467)
(-6.07969e-06 4.77689e-07 0.0824404)
(-6.80128e-06 6.99241e-07 0.072039)
(1.42164e-05 -7.6592e-07 0.0930597)
(-1.40206e-05 -1.51962e-06 0.0884999)
(6.68284e-06 -1.22256e-06 0.0719673)
(-1.38443e-05 -1.42457e-07 0.0931365)
(-6.23286e-06 4.51868e-07 0.0824414)
(-1.87565e-05 2.07646e-07 0.0989301)
(1.82586e-05 -1.94757e-07 0.0975064)
(5.63672e-06 -6.55425e-07 0.0847466)
(6.03124e-06 -1.23567e-06 0.0823945)
(-1.86124e-05 -2.56353e-07 0.0975702)
(-5.44864e-06 -3.74172e-08 0.0847837)
(6.34832e-06 -1.56426e-06 0.0719697)
(-1.40112e-05 -1.73941e-07 0.0931361)
(1.43007e-05 7.14968e-07 0.0884443)
(1.44059e-05 -7.60814e-07 0.09306)
(-6.97062e-06 4.47569e-07 0.0720411)
(-7.097e-06 4.37455e-06 0.0758017)
(7.50283e-06 -3.97465e-06 0.075744)
(-7.90699e-06 -8.01437e-06 0.091036)
(3.21199e-06 7.22631e-06 0.0726596)
(7.22768e-06 3.19029e-06 0.0726529)
(-2.90977e-06 -6.80954e-06 0.0725925)
(-6.7176e-06 -2.98337e-06 0.0725862)
(7.27498e-06 7.23843e-06 0.0911001)
(2.26303e-05 8.83524e-06 0.0989207)
(6.78743e-06 9.26155e-06 0.0946047)
(2.74684e-05 1.1781e-05 0.102134)
(5.05922e-06 4.62538e-06 0.0875476)
(8.88639e-06 2.2576e-05 0.0989154)
(9.46405e-06 6.88786e-06 0.0946028)
(1.18499e-05 2.73587e-05 0.102132)
(4.72178e-06 5.0056e-06 0.0875417)
(7.61557e-06 7.54324e-06 0.0911014)
(2.96962e-06 6.88465e-06 0.0726588)
(6.99126e-06 2.88883e-06 0.0726521)
(-2.20615e-05 -9.00624e-06 0.0988567)
(5.17148e-06 4.8611e-06 0.0875472)
(-7.60311e-06 -9.65197e-06 0.0945351)
(2.75302e-05 1.1722e-05 0.102134)
(-2.78852e-05 -1.29008e-05 0.102091)
(-5.79176e-06 -4.69776e-06 0.0874838)
(2.25245e-05 8.63206e-06 0.0989208)
(-8.94307e-06 -2.21868e-05 0.0988528)
(4.95572e-06 5.16598e-06 0.0875415)
(-9.64348e-06 -7.82585e-06 0.0945349)
(1.18113e-05 2.74329e-05 0.102132)
(-1.28265e-05 -2.79763e-05 0.10209)
(-4.62051e-06 -5.88072e-06 0.0874796)
(8.80249e-06 2.25565e-05 0.0989156)
(-9.11467e-07 6.25683e-06 0.0823946)
(-3.05193e-07 1.83629e-05 0.0988781)
(2.67716e-07 -5.28839e-06 0.0847838)
(-1.95733e-07 -1.89517e-05 0.0975711)
(-3.48922e-07 5.69342e-06 0.0847469)
(-6.79407e-08 1.79085e-05 0.0975066)
(8.08882e-07 -5.77032e-06 0.0824388)
(8.46447e-07 -6.57406e-06 0.0720388)
(-6.00554e-07 1.41213e-05 0.0930593)
(-1.29211e-06 -1.37516e-05 0.0885002)
(-1.28999e-06 6.333e-06 0.0719674)
(-1.09459e-07 -1.40093e-05 0.0931363)
(8.15703e-07 -6.06633e-06 0.0824407)
(4.06439e-07 -1.88052e-05 0.0989308)
(-4.09846e-07 5.59673e-06 0.0847465)
(3.22576e-08 1.81013e-05 0.0975063)
(-1.13863e-06 5.93239e-06 0.0823946)
(2.9939e-07 -5.36045e-06 0.0847835)
(2.73868e-08 -1.85196e-05 0.0975707)
(-1.2455e-06 6.92537e-06 0.0719683)
(-2.13834e-07 -1.41073e-05 0.0931362)
(1.12102e-06 1.44592e-05 0.0884445)
(-7.93894e-07 1.41093e-05 0.0930602)
(6.29628e-07 -6.4897e-06 0.0720376)
(4.35845e-06 -7.35625e-06 0.0758017)
(-4.25755e-06 7.81073e-06 0.0757411)
(6.44405e-06 -6.23479e-07 0.0823948)
(1.83717e-05 -3.12829e-07 0.0988776)
(-1.86456e-05 -1.15642e-07 0.0975707)
(-5.31039e-06 2.24396e-07 0.0847837)
(1.80252e-05 -2.91149e-08 0.0975061)
(5.68873e-06 -2.50499e-07 0.0847468)
(-5.74891e-06 1.06599e-06 0.0824395)
(-6.31564e-06 1.00699e-06 0.0720408)
(1.3887e-05 -7.16533e-07 0.0930584)
(-1.37882e-05 -1.41848e-06 0.0885)
(6.74453e-06 -1.09658e-06 0.0719715)
(-1.44188e-05 -1.90364e-07 0.0931359)
(-6.06254e-06 9.83378e-07 0.0824413)
(-1.88163e-05 4.23592e-07 0.0989305)
(1.82821e-05 7.21814e-08 0.0975059)
(5.63604e-06 -3.64059e-07 0.0847465)
(6.09107e-06 -8.87324e-07 0.0823946)
(-1.8389e-05 4.38065e-08 0.0975702)
(-5.39351e-06 3.20141e-07 0.0847834)
(7.28074e-06 -1.04631e-06 0.0719696)
(-1.45676e-05 -2.26106e-07 0.0931363)
(1.44857e-05 1.00057e-06 0.0884442)
(1.38381e-05 -8.23397e-07 0.0930596)
(-6.10781e-06 9.26389e-07 0.0720371)
(-6.76596e-06 3.9212e-06 0.0757971)
(8.08019e-06 -4.51655e-06 0.0757366)
(-7.87704e-06 -7.90393e-06 0.0910351)
(2.78561e-06 6.79066e-06 0.0726606)
(6.82313e-06 2.78052e-06 0.0726539)
(-2.80129e-06 -6.66563e-06 0.0725946)
(-6.62489e-06 -2.82157e-06 0.0725883)
(7.91131e-06 7.92962e-06 0.0910985)
(2.25096e-05 8.63872e-06 0.098921)
(-2.76777e-05 -1.28873e-05 0.102092)
(-5.44985e-06 -4.38487e-06 0.0874825)
(7.03493e-06 9.30797e-06 0.0946062)
(-2.20608e-05 -8.99225e-06 0.0988565)
(2.75919e-05 1.17166e-05 0.102135)
(5.28114e-06 4.66706e-06 0.0875459)
(8.73628e-06 2.26291e-05 0.0989154)
(-1.28874e-05 -2.76584e-05 0.102091)
(-4.41875e-06 -5.46872e-06 0.0874786)
(9.1974e-06 6.78994e-06 0.0946039)
(-8.969e-06 -2.20632e-05 0.0988523)
(1.17455e-05 2.76168e-05 0.102133)
(4.64772e-06 5.31547e-06 0.0875403)
(7.61516e-06 7.62605e-06 0.0911005)
(-2.90366e-06 -6.3339e-06 0.0725943)
(-6.30484e-06 -2.91359e-06 0.0725879)
(-8.00773e-06 -8.0513e-06 0.0910359)
(2.98111e-06 7.09131e-06 0.0726597)
(7.08175e-06 2.99634e-06 0.072653)
(-2.19944e-05 -8.97452e-06 0.0988566)
(5.26368e-06 4.62997e-06 0.0875459)
(-7.62709e-06 -9.64199e-06 0.0945381)
(2.7632e-05 1.19075e-05 0.102135)
(-2.75022e-05 -1.27871e-05 0.102092)
(-5.37322e-06 -4.58429e-06 0.0874829)
(2.25406e-05 8.83463e-06 0.0989206)
(-8.8883e-06 -2.19328e-05 0.0988526)
(4.59689e-06 5.25872e-06 0.0875399)
(-9.64691e-06 -7.50476e-06 0.0945373)
(1.19477e-05 2.76686e-05 0.102133)
(-1.27503e-05 -2.74945e-05 0.102091)
(-4.61541e-06 -5.43444e-06 0.0874791)
(8.8744e-06 2.26528e-05 0.0989152)
(-4.60756e-06 -7.42531e-06 0.0758018)
(4.01492e-06 7.36033e-06 0.0757433)
(-7.16889e-06 -4.20811e-06 0.0758006)
(7.32919e-06 4.01401e-06 0.0757428)
(8.00544e-06 8.03778e-06 0.0910338)
(-7.03966e-06 -3.04498e-06 0.0726601)
(-3.16412e-06 -6.95195e-06 0.0726532)
(6.51336e-06 2.60919e-06 0.072595)
(2.63183e-06 6.52943e-06 0.0725884)
(-7.94217e-06 -7.85822e-06 0.0911002)
(-8.87641e-06 -2.27317e-05 0.0989216)
(1.28387e-05 2.78086e-05 0.102091)
(4.75621e-06 5.67349e-06 0.0874857)
(-9.50666e-06 -7.0015e-06 0.0946043)
(8.91862e-06 2.21719e-05 0.098856)
(-4.69393e-06 -5.17304e-06 0.087549)
(-1.19487e-05 -2.75876e-05 0.102134)
(-2.2558e-05 -8.95672e-06 0.0989172)
(2.77657e-05 1.2773e-05 0.102089)
(5.61018e-06 4.55079e-06 0.0874799)
(-6.76411e-06 -9.43326e-06 0.0946022)
(2.20971e-05 8.93165e-06 0.0988515)
(-5.08303e-06 -4.78325e-06 0.0875432)
(-2.7485e-05 -1.19408e-05 0.102133)
(-7.7456e-06 -7.85385e-06 0.091102)
(6.8948e-06 3.32967e-06 0.0725949)
(3.07349e-06 6.79764e-06 0.0725881)
(7.68463e-06 7.85654e-06 0.0910343)
(-6.99337e-06 -3.01609e-06 0.0726594)
(-2.95032e-06 -7.22128e-06 0.0726522)
(8.97477e-06 2.20638e-05 0.098856)
(-4.65832e-06 -5.2377e-06 0.0875485)
(9.58179e-06 7.56975e-06 0.094536)
(-1.17732e-05 -2.75495e-05 0.102134)
(4.45131e-06 5.48506e-06 0.0874857)
(-8.67121e-06 -2.25083e-05 0.0989216)
(1.29272e-05 2.78108e-05 0.102091)
(2.20488e-05 9.01455e-06 0.0988518)
(-5.34055e-06 -4.64971e-06 0.087543)
(7.41488e-06 9.55261e-06 0.0945335)
(-2.75924e-05 -1.18118e-05 0.102133)
(5.49297e-06 4.5246e-06 0.0874805)
(-2.24664e-05 -8.63103e-06 0.0989171)
(2.76865e-05 1.28513e-05 0.102089)
(4.40721e-06 7.49682e-06 0.075741)
(-4.19661e-06 -7.24623e-06 0.0758017)
(7.43832e-06 4.24551e-06 0.0757406)
(-7.19197e-06 -4.09898e-06 0.0758001)
(-7.69144e-06 -7.72077e-06 0.0911012)
(7.01294e-06 3.40172e-06 0.0725939)
(3.30591e-06 7.1445e-06 0.0725873)
(7.47211e-06 7.553e-06 0.0910341)
(-6.47292e-06 -2.45693e-06 0.072658)
(-2.52725e-06 -6.42033e-06 0.0726509)
(9.17391e-06 2.23468e-05 0.0988571)
(-1.18903e-05 -2.73683e-05 0.102135)
(9.73866e-06 7.67839e-06 0.094536)
(-4.17122e-06 -4.60697e-06 0.0875478)
(4.96804e-06 5.93996e-06 0.0874844)
(1.28675e-05 2.79859e-05 0.102091)
(-8.61291e-06 -2.22877e-05 0.0989225)
(2.24283e-05 9.34584e-06 0.098852)
(-2.73705e-05 -1.18606e-05 0.102133)
(7.42619e-06 9.53193e-06 0.0945331)
(-4.91224e-06 -4.26744e-06 0.0875428)
(5.65531e-06 4.90039e-06 0.0874794)
(2.78863e-05 1.29001e-05 0.102089)
(-2.22361e-05 -8.54959e-06 0.0989174)
(-8.57277e-06 -2.25113e-05 0.0989225)
(4.90495e-06 5.79596e-06 0.0874845)
(1.28832e-05 2.79425e-05 0.102091)
(-9.31458e-06 -7.23835e-06 0.0946049)
(9.15007e-06 2.2371e-05 0.098857)
(-4.247e-06 -5.07412e-06 0.0875485)
(-1.18291e-05 -2.75693e-05 0.102134)
(-2.2249e-05 -8.43316e-06 0.0989177)
(5.66658e-06 4.86856e-06 0.0874791)
(2.78436e-05 1.28555e-05 0.102089)
(-7.15216e-06 -9.42901e-06 0.0946029)
(2.24269e-05 9.31746e-06 0.0988524)
(-5.19554e-06 -4.34163e-06 0.0875433)
(-2.75121e-05 -1.17818e-05 0.102133)
(7.48083e-06 7.5191e-06 0.0910344)
(-6.64857e-06 -2.24396e-06 0.0726554)
(-2.33282e-06 -6.49797e-06 0.0726482)
(7.04263e-06 3.4398e-06 0.0725925)
(3.35648e-06 7.24612e-06 0.0725857)
(-8.22849e-06 -8.20736e-06 0.0911019)
(4.13008e-07 6.50503e-06 0.0823887)
(2.73118e-07 1.854e-05 0.0988778)
(-3.74748e-07 -5.45833e-06 0.0847831)
(1.24591e-07 -1.85077e-05 0.0975721)
(1.22632e-07 5.624e-06 0.084746)
(-3.93339e-08 1.83722e-05 0.0975084)
(-1.19388e-06 -5.85721e-06 0.0824341)
(-9.79867e-07 -6.17943e-06 0.0720479)
(8.70808e-07 1.42023e-05 0.093057)
(1.84769e-06 -1.3804e-05 0.0885002)
(1.2907e-06 6.79598e-06 0.0719786)
(3.15847e-07 -1.45313e-05 0.0931327)
(-1.02752e-06 -5.91466e-06 0.0824348)
(-3.32248e-07 -1.88422e-05 0.0989308)
(3.12684e-07 5.63803e-06 0.084746)
(1.18849e-08 1.82726e-05 0.0975083)
(-3.35828e-07 -5.44461e-06 0.0847829)
(1.02998e-06 6.24355e-06 0.0823889)
(1.08157e-08 -1.8435e-05 0.0975717)
(8.83388e-07 7.50042e-06 0.0719748)
(2.60372e-07 -1.45482e-05 0.0931338)
(-6.4356e-07 1.45424e-05 0.0884441)
(8.82827e-07 1.36604e-05 0.093058)
(-1.11129e-06 -6.0735e-06 0.072043)
(8.89418e-07 -5.96546e-06 0.0824401)
(-2.76807e-07 5.62731e-06 0.0847468)
(-1.01469e-07 1.80331e-05 0.0975068)
(2.08196e-07 -1.88783e-05 0.0989305)
(-7.80205e-07 6.4186e-06 0.0823945)
(2.18068e-07 -5.45028e-06 0.0847838)
(-2.37395e-07 -1.86731e-05 0.0975711)
(-1.45023e-06 6.47495e-06 0.0719663)
(1.28302e-06 1.433e-05 0.0884439)
(-2.92225e-08 -1.43282e-05 0.0931374)
(4.84412e-07 -7.39133e-06 0.0720374)
(-4.83447e-07 1.43381e-05 0.0930603)
(8.15387e-07 -6.34613e-06 0.072036)
(-6.53437e-07 1.37549e-05 0.0930597)
(-1.40987e-06 -1.40036e-05 0.0885006)
(-1.24444e-06 6.81782e-06 0.0719661)
(-1.15633e-07 -1.41382e-05 0.0931381)
(-1.12422e-06 6.19753e-06 0.0823937)
(-3.94385e-07 1.83324e-05 0.0988779)
(-7.35235e-09 -5.46895e-06 0.0847841)
(-1.52916e-07 -1.85656e-05 0.0975712)
(2.64757e-07 -6.42329e-06 0.0824401)
(-3.9223e-07 5.62684e-06 0.0847474)
(-1.06664e-07 1.80211e-05 0.0975074)
(-1.00938e-06 -5.92839e-06 0.082434)
(2.67231e-07 5.62912e-06 0.0847461)
(1.76693e-08 1.81551e-05 0.0975085)
(-2.90883e-07 -1.8814e-05 0.0989307)
(5.98813e-07 6.34921e-06 0.0823888)
(-3.43884e-07 -5.40918e-06 0.0847829)
(1.8699e-07 -1.86369e-05 0.0975721)
(1.08438e-06 6.91719e-06 0.0719703)
(-1.0083e-06 1.42959e-05 0.0884432)
(-1.07824e-07 -1.37742e-05 0.0931344)
(6.09349e-07 1.42154e-05 0.0930588)
(-5.33253e-07 -7.26494e-06 0.0720424)
(-8.95322e-07 -6.36535e-06 0.0720418)
(6.64613e-07 1.41172e-05 0.0930578)
(1.45477e-06 -1.40653e-05 0.0885003)
(9.33395e-07 7.04014e-06 0.0719717)
(1.74932e-07 -1.4503e-05 0.0931347)
(7.34589e-07 6.26685e-06 0.0823886)
(2.93355e-07 1.84302e-05 0.0988783)
(-2.78047e-07 -5.40656e-06 0.0847828)
(2.25133e-07 -1.89834e-05 0.097572)
(2.86651e-07 5.65946e-06 0.0847468)
(5.64837e-08 1.80858e-05 0.0975092)
(-4.87968e-07 -6.18691e-06 0.0824338)
(-7.8827e-06 7.97258e-06 0.0910341)
(6.92364e-06 -2.92552e-06 0.0726541)
(2.8782e-06 -6.93733e-06 0.072659)
(-6.83084e-06 3.08514e-06 0.072589)
(-2.98322e-06 6.86633e-06 0.0725941)
(7.55557e-06 -7.59012e-06 0.0910997)
(8.94526e-06 -2.26151e-05 0.0989171)
(9.45886e-06 -6.81561e-06 0.0946028)
(4.69812e-06 -5.22738e-06 0.0875435)
(1.18186e-05 -2.74957e-05 0.102133)
(2.26384e-05 -8.92285e-06 0.0989218)
(6.90186e-06 -9.41326e-06 0.0946059)
(2.75375e-05 -1.1855e-05 0.102135)
(5.24746e-06 -4.68485e-06 0.0875488)
(7.86801e-06 -7.88256e-06 0.091101)
(6.96741e-06 -2.81227e-06 0.0726534)
(2.78483e-06 -6.98142e-06 0.0726584)
(-8.99588e-06 2.21319e-05 0.098852)
(4.64998e-06 -5.14116e-06 0.0875433)
(-9.58734e-06 7.67115e-06 0.0945328)
(1.17856e-05 -2.74826e-05 0.102133)
(-4.66611e-06 5.60491e-06 0.0874797)
(-1.28843e-05 2.78602e-05 0.102089)
(8.7735e-06 -2.25182e-05 0.0989176)
(-2.20534e-05 9.01124e-06 0.0988567)
(5.15778e-06 -4.70663e-06 0.0875484)
(-7.49709e-06 9.67079e-06 0.0945336)
(2.74735e-05 -1.18241e-05 0.102135)
(-2.77134e-05 1.29381e-05 0.102091)
(-5.51117e-06 4.74619e-06 0.0874848)
(2.25295e-05 -8.77262e-06 0.0989222)
(7.19929e-06 -4.10459e-06 0.0758045)
(-7.23872e-06 4.12868e-06 0.0757409)
(-4.06534e-06 7.48071e-06 0.0757419)
(4.18413e-06 -7.22645e-06 0.0758024)
(7.69403e-06 -7.80014e-06 0.0911007)
(-7.20097e-06 3.4983e-06 0.0725888)
(-3.42937e-06 7.18003e-06 0.0725939)
(-7.45879e-06 7.5196e-06 0.091034)
(6.7595e-06 -2.88081e-06 0.0726516)
(2.75428e-06 -6.72269e-06 0.0726565)
(-9.09254e-06 2.2138e-05 0.0988527)
(1.18402e-05 -2.7411e-05 0.102133)
(-9.5808e-06 7.63634e-06 0.0945328)
(4.74597e-06 -4.97265e-06 0.0875428)
(-1.28615e-05 2.78442e-05 0.10209)
(-4.58921e-06 5.62745e-06 0.0874781)
(8.79176e-06 -2.25453e-05 0.0989183)
(-2.21569e-05 9.11428e-06 0.0988576)
(2.73904e-05 -1.18819e-05 0.102135)
(-7.21367e-06 9.53758e-06 0.0945333)
(4.99428e-06 -4.698e-06 0.0875473)
(-5.61184e-06 4.59274e-06 0.0874834)
(-2.77785e-05 1.28997e-05 0.102091)
(2.24939e-05 -8.78985e-06 0.0989227)
(8.73803e-06 -2.25963e-05 0.0989186)
(-4.97817e-06 5.87539e-06 0.0874785)
(-1.27841e-05 2.78912e-05 0.102089)
(9.3428e-06 -6.99989e-06 0.0946029)
(1.18817e-05 -2.75042e-05 0.102133)
(-9.12644e-06 2.2268e-05 0.0988528)
(4.43918e-06 -4.97357e-06 0.0875434)
(2.2584e-05 -8.77707e-06 0.0989231)
(-5.83313e-06 4.99505e-06 0.0874837)
(-2.77929e-05 1.2829e-05 0.102091)