/*--------------------------------*- C++ -*----------------------------------*\
| =========                 |                                                 |
| \\      /  F ield         | OpenFOAM: The Open Source CFD Toolbox           |
|  \\    /   O peration     | Version:                                        |
|   \\  /    A nd           | Website:  www.openfoam.com                      |
|    \\/     M anipulation  |                                                 |
\*---------------------------------------------------------------------------*/
FoamFile
{
    version     2.0;
    format      ascii;
    class       volScalarField;
    location    "6.5";
    object      p;
}
// * * * * * * * * * * * * * * * * * * * * * * * * * * * * * * * * * * * * * //

dimensions      [0 2 -2 0 0 0 0];


internalField   nonuniform List<scalar> 
247096
(
1.65338e-06
1.65363e-06
1.65355e-06
1.65341e-06
1.65333e-06
1.65343e-06
1.65356e-06
1.6536e-06
1.65363e-06
1.65362e-06
1.65338e-06
1.65308e-06
1.65296e-06
1.65311e-06
1.65342e-06
1.65363e-06
1.65355e-06
1.65338e-06
1.65292e-06
1.65252e-06
1.65237e-06
1.65255e-06
1.65298e-06
1.65343e-06
1.65354e-06
1.65341e-06
1.65308e-06
1.65252e-06
1.65206e-06
1.65191e-06
1.6521e-06
1.65258e-06
1.65314e-06
1.65342e-06
1.65338e-06
1.65333e-06
1.65296e-06
1.65237e-06
1.65191e-06
1.65175e-06
1.65195e-06
1.65245e-06
1.65303e-06
1.65334e-06
1.65343e-06
1.65311e-06
1.65255e-06
1.6521e-06
1.65195e-06
1.65215e-06
1.65262e-06
1.65317e-06
1.65343e-06
1.65356e-06
1.65342e-06
1.65298e-06
1.65258e-06
1.65245e-06
1.65262e-06
1.65304e-06
1.65346e-06
1.65355e-06
1.6536e-06
1.65362e-06
1.65343e-06
1.65314e-06
1.65303e-06
1.65317e-06
1.65346e-06
1.65363e-06
1.65354e-06
1.65341e-06
1.65334e-06
1.65343e-06
1.65355e-06
1.62651e-06
1.62594e-06
1.62552e-06
1.62394e-06
1.62389e-06
1.62382e-06
1.62392e-06
1.62542e-06
1.62565e-06
1.62552e-06
1.62336e-06
1.62091e-06
1.62097e-06
1.62097e-06
1.62091e-06
1.62362e-06
1.62416e-06
1.62395e-06
1.62091e-06
1.62082e-06
1.62093e-06
1.62093e-06
1.62082e-06
1.62092e-06
1.62422e-06
1.62595e-06
1.62651e-06
1.62389e-06
1.62097e-06
1.62093e-06
1.62104e-06
1.62104e-06
1.62093e-06
1.62097e-06
1.62428e-06
1.62564e-06
1.62593e-06
1.62382e-06
1.62097e-06
1.62093e-06
1.62104e-06
1.62104e-06
1.62093e-06
1.62097e-06
1.62427e-06
1.62442e-06
1.62392e-06
1.62091e-06
1.62082e-06
1.62093e-06
1.62093e-06
1.62082e-06
1.62092e-06
1.62426e-06
1.62574e-06
1.62543e-06
1.62363e-06
1.62092e-06
1.62097e-06
1.62097e-06
1.62092e-06
1.62389e-06
1.62422e-06
1.62585e-06
1.62565e-06
1.62416e-06
1.62422e-06
1.62428e-06
1.62427e-06
1.62426e-06
1.62422e-06
1.62558e-06
1.62595e-06
1.62564e-06
1.62442e-06
1.62574e-06
1.62585e-06
1.60897e-06
1.60882e-06
1.6087e-06
1.60691e-06
1.6068e-06
1.60675e-06
1.60688e-06
1.60863e-06
1.60886e-06
1.60869e-06
1.60634e-06
1.6036e-06
1.6036e-06
1.6036e-06
1.6036e-06
1.60656e-06
1.6072e-06
1.6069e-06
1.6036e-06
1.60357e-06
1.60359e-06
1.60359e-06
1.60357e-06
1.6036e-06
1.60719e-06
1.60895e-06
1.60897e-06
1.6068e-06
1.6036e-06
1.60359e-06
1.60361e-06
1.60361e-06
1.60359e-06
1.6036e-06
1.60718e-06
1.6087e-06
1.60881e-06
1.60675e-06
1.6036e-06
1.60359e-06
1.60361e-06
1.60361e-06
1.60359e-06
1.6036e-06
1.60714e-06
1.60736e-06
1.60688e-06
1.6036e-06
1.60357e-06
1.60359e-06
1.60359e-06
1.60357e-06
1.6036e-06
1.6072e-06
1.60897e-06
1.60862e-06
1.60655e-06
1.6036e-06
1.6036e-06
1.6036e-06
1.6036e-06
1.60682e-06
1.60727e-06
1.60901e-06
1.60887e-06
1.6072e-06
1.60719e-06
1.60718e-06
1.60714e-06
1.6072e-06
1.60726e-06
1.60899e-06
1.60895e-06
1.6087e-06
1.60736e-06
1.60897e-06
1.609e-06
1.5918e-06
1.59165e-06
1.59151e-06
1.58971e-06
1.5896e-06
1.58955e-06
1.58968e-06
1.59144e-06
1.59167e-06
1.59151e-06
1.58913e-06
1.58637e-06
1.58637e-06
1.58637e-06
1.58637e-06
1.58932e-06
1.59002e-06
1.58971e-06
1.58637e-06
1.58636e-06
1.58637e-06
1.58637e-06
1.58636e-06
1.58637e-06
1.59e-06
1.59177e-06
1.5918e-06
1.5896e-06
1.58637e-06
1.58637e-06
1.58637e-06
1.58637e-06
1.58637e-06
1.58637e-06
1.59001e-06
1.59153e-06
1.59165e-06
1.58955e-06
1.58637e-06
1.58637e-06
1.58637e-06
1.58637e-06
1.58637e-06
1.58637e-06
1.58998e-06
1.59019e-06
1.58968e-06
1.58637e-06
1.58636e-06
1.58637e-06
1.58637e-06
1.58636e-06
1.58637e-06
1.59002e-06
1.5918e-06
1.59143e-06
1.58932e-06
1.58637e-06
1.58637e-06
1.58637e-06
1.58637e-06
1.58966e-06
1.59009e-06
1.59182e-06
1.59167e-06
1.59002e-06
1.59e-06
1.59001e-06
1.58998e-06
1.59002e-06
1.59009e-06
1.59177e-06
1.59177e-06
1.59153e-06
1.59019e-06
1.5918e-06
1.59182e-06
1.57458e-06
1.57443e-06
1.57429e-06
1.57249e-06
1.57238e-06
1.57233e-06
1.57246e-06
1.57422e-06
1.57445e-06
1.57429e-06
1.57191e-06
1.56915e-06
1.56915e-06
1.56915e-06
1.56915e-06
1.5721e-06
1.5728e-06
1.57249e-06
1.56915e-06
1.56915e-06
1.56915e-06
1.56915e-06
1.56915e-06
1.56915e-06
1.57278e-06
1.57455e-06
1.57458e-06
1.57238e-06
1.56915e-06
1.56915e-06
1.56915e-06
1.56915e-06
1.56915e-06
1.56915e-06
1.57279e-06
1.57432e-06
1.57443e-06
1.57233e-06
1.56915e-06
1.56915e-06
1.56915e-06
1.56915e-06
1.56915e-06
1.56915e-06
1.57276e-06
1.57297e-06
1.57246e-06
1.56915e-06
1.56915e-06
1.56915e-06
1.56915e-06
1.56915e-06
1.56915e-06
1.5728e-06
1.57458e-06
1.57422e-06
1.5721e-06
1.56915e-06
1.56915e-06
1.56915e-06
1.56915e-06
1.57244e-06
1.57287e-06
1.5746e-06
1.57445e-06
1.5728e-06
1.57278e-06
1.57279e-06
1.57276e-06
1.5728e-06
1.57287e-06
1.57454e-06
1.57455e-06
1.57432e-06
1.57297e-06
1.57458e-06
1.5746e-06
1.55737e-06
1.55721e-06
1.55707e-06
1.55527e-06
1.55516e-06
1.55511e-06
1.55524e-06
1.557e-06
1.55724e-06
1.55707e-06
1.55469e-06
1.55193e-06
1.55193e-06
1.55193e-06
1.55193e-06
1.55488e-06
1.55558e-06
1.55527e-06
1.55193e-06
1.55193e-06
1.55193e-06
1.55193e-06
1.55193e-06
1.55193e-06
1.55556e-06
1.55734e-06
1.55737e-06
1.55516e-06
1.55193e-06
1.55193e-06
1.55193e-06
1.55193e-06
1.55193e-06
1.55193e-06
1.55557e-06
1.5571e-06
1.55721e-06
1.55511e-06
1.55193e-06
1.55193e-06
1.55193e-06
1.55193e-06
1.55193e-06
1.55193e-06
1.55554e-06
1.55575e-06
1.55524e-06
1.55193e-06
1.55193e-06
1.55193e-06
1.55193e-06
1.55193e-06
1.55193e-06
1.55558e-06
1.55737e-06
1.557e-06
1.55488e-06
1.55193e-06
1.55193e-06
1.55193e-06
1.55193e-06
1.55522e-06
1.55565e-06
1.55738e-06
1.55724e-06
1.55558e-06
1.55556e-06
1.55557e-06
1.55554e-06
1.55558e-06
1.55565e-06
1.55732e-06
1.55734e-06
1.5571e-06
1.55575e-06
1.55737e-06
1.55738e-06
1.54015e-06
1.54e-06
1.53986e-06
1.53806e-06
1.53795e-06
1.5379e-06
1.53803e-06
1.53979e-06
1.54002e-06
1.53986e-06
1.53748e-06
1.53472e-06
1.53471e-06
1.53472e-06
1.53471e-06
1.53767e-06
1.53837e-06
1.53806e-06
1.53471e-06
1.53471e-06
1.53472e-06
1.53472e-06
1.53472e-06
1.53471e-06
1.53835e-06
1.54012e-06
1.54015e-06
1.53795e-06
1.53472e-06
1.53472e-06
1.53472e-06
1.53472e-06
1.53472e-06
1.53472e-06
1.53835e-06
1.53988e-06
1.54e-06
1.5379e-06
1.53471e-06
1.53472e-06
1.53472e-06
1.53472e-06
1.53472e-06
1.53471e-06
1.53832e-06
1.53854e-06
1.53803e-06
1.53472e-06
1.53472e-06
1.53472e-06
1.53472e-06
1.53471e-06
1.53472e-06
1.53837e-06
1.54015e-06
1.53979e-06
1.53767e-06
1.53472e-06
1.53472e-06
1.53471e-06
1.53472e-06
1.53801e-06
1.53844e-06
1.54017e-06
1.54002e-06
1.53837e-06
1.53835e-06
1.53835e-06
1.53832e-06
1.53837e-06
1.53844e-06
1.5401e-06
1.54012e-06
1.53988e-06
1.53854e-06
1.54015e-06
1.54017e-06
1.52293e-06
1.52278e-06
1.52264e-06
1.52084e-06
1.52073e-06
1.52068e-06
1.52081e-06
1.52257e-06
1.5228e-06
1.52264e-06
1.52026e-06
1.5175e-06
1.5175e-06
1.5175e-06
1.5175e-06
1.52045e-06
1.52115e-06
1.52084e-06
1.5175e-06
1.5175e-06
1.5175e-06
1.5175e-06
1.5175e-06
1.5175e-06
1.52113e-06
1.5229e-06
1.52293e-06
1.52073e-06
1.5175e-06
1.5175e-06
1.5175e-06
1.5175e-06
1.5175e-06
1.5175e-06
1.52114e-06
1.52267e-06
1.52278e-06
1.52068e-06
1.5175e-06
1.5175e-06
1.5175e-06
1.5175e-06
1.5175e-06
1.5175e-06
1.52111e-06
1.52132e-06
1.52081e-06
1.5175e-06
1.5175e-06
1.5175e-06
1.5175e-06
1.5175e-06
1.5175e-06
1.52115e-06
1.52293e-06
1.52257e-06
1.52045e-06
1.5175e-06
1.5175e-06
1.5175e-06
1.5175e-06
1.52079e-06
1.52122e-06
1.52295e-06
1.5228e-06
1.52115e-06
1.52113e-06
1.52114e-06
1.52111e-06
1.52115e-06
1.52122e-06
1.52289e-06
1.5229e-06
1.52267e-06
1.52132e-06
1.52293e-06
1.52295e-06
1.50572e-06
1.50557e-06
1.50543e-06
1.50362e-06
1.50352e-06
1.50347e-06
1.5036e-06
1.50535e-06
1.50559e-06
1.50543e-06
1.50304e-06
1.50028e-06
1.50028e-06
1.50028e-06
1.50028e-06
1.50324e-06
1.50394e-06
1.50362e-06
1.50028e-06
1.50028e-06
1.50028e-06
1.50028e-06
1.50028e-06
1.50028e-06
1.50392e-06
1.50569e-06
1.50572e-06
1.50352e-06
1.50028e-06
1.50028e-06
1.50028e-06
1.50028e-06
1.50028e-06
1.50028e-06
1.50392e-06
1.50545e-06
1.50557e-06
1.50347e-06
1.50028e-06
1.50028e-06
1.50028e-06
1.50028e-06
1.50028e-06
1.50028e-06
1.50389e-06
1.50411e-06
1.5036e-06
1.50028e-06
1.50028e-06
1.50028e-06
1.50028e-06
1.50028e-06
1.50028e-06
1.50394e-06
1.50572e-06
1.50535e-06
1.50324e-06
1.50028e-06
1.50028e-06
1.50028e-06
1.50028e-06
1.50358e-06
1.50401e-06
1.50574e-06
1.50559e-06
1.50394e-06
1.50392e-06
1.50392e-06
1.50389e-06
1.50394e-06
1.50401e-06
1.50567e-06
1.50569e-06
1.50545e-06
1.50411e-06
1.50572e-06
1.50574e-06
1.4885e-06
1.48835e-06
1.48821e-06
1.48641e-06
1.4863e-06
1.48625e-06
1.48638e-06
1.48814e-06
1.48837e-06
1.48821e-06
1.48583e-06
1.48307e-06
1.48307e-06
1.48307e-06
1.48307e-06
1.48602e-06
1.48672e-06
1.48641e-06
1.48307e-06
1.48307e-06
1.48307e-06
1.48307e-06
1.48307e-06
1.48307e-06
1.4867e-06
1.48847e-06
1.4885e-06
1.4863e-06
1.48307e-06
1.48307e-06
1.48307e-06
1.48307e-06
1.48307e-06
1.48307e-06
1.48671e-06
1.48824e-06
1.48835e-06
1.48625e-06
1.48307e-06
1.48307e-06
1.48307e-06
1.48307e-06
1.48307e-06
1.48307e-06
1.48668e-06
1.48689e-06
1.48638e-06
1.48307e-06
1.48307e-06
1.48307e-06
1.48307e-06
1.48307e-06
1.48307e-06
1.48672e-06
1.4885e-06
1.48814e-06
1.48602e-06
1.48307e-06
1.48307e-06
1.48307e-06
1.48307e-06
1.48636e-06
1.48679e-06
1.48852e-06
1.48837e-06
1.48672e-06
1.4867e-06
1.48671e-06
1.48668e-06
1.48672e-06
1.48679e-06
1.48846e-06
1.48847e-06
1.48824e-06
1.48689e-06
1.4885e-06
1.48852e-06
1.47129e-06
1.47114e-06
1.471e-06
1.46919e-06
1.46909e-06
1.46903e-06
1.46917e-06
1.47092e-06
1.47116e-06
1.471e-06
1.46861e-06
1.46585e-06
1.46585e-06
1.46585e-06
1.46585e-06
1.46881e-06
1.46951e-06
1.46919e-06
1.46585e-06
1.46585e-06
1.46585e-06
1.46585e-06
1.46585e-06
1.46585e-06
1.46948e-06
1.47126e-06
1.47129e-06
1.46909e-06
1.46585e-06
1.46585e-06
1.46585e-06
1.46585e-06
1.46585e-06
1.46585e-06
1.46949e-06
1.47102e-06
1.47114e-06
1.46903e-06
1.46585e-06
1.46585e-06
1.46585e-06
1.46585e-06
1.46585e-06
1.46585e-06
1.46946e-06
1.46968e-06
1.46917e-06
1.46585e-06
1.46585e-06
1.46585e-06
1.46585e-06
1.46585e-06
1.46585e-06
1.46951e-06
1.47129e-06
1.47092e-06
1.46881e-06
1.46585e-06
1.46585e-06
1.46585e-06
1.46585e-06
1.46915e-06
1.46958e-06
1.47131e-06
1.47116e-06
1.46951e-06
1.46948e-06
1.46949e-06
1.46946e-06
1.46951e-06
1.46958e-06
1.47124e-06
1.47126e-06
1.47102e-06
1.46968e-06
1.47129e-06
1.47131e-06
1.45407e-06
1.45392e-06
1.45378e-06
1.45198e-06
1.45187e-06
1.45182e-06
1.45195e-06
1.45371e-06
1.45394e-06
1.45378e-06
1.4514e-06
1.44864e-06
1.44864e-06
1.44864e-06
1.44864e-06
1.45159e-06
1.45229e-06
1.45198e-06
1.44864e-06
1.44864e-06
1.44864e-06
1.44864e-06
1.44864e-06
1.44864e-06
1.45227e-06
1.45404e-06
1.45407e-06
1.45187e-06
1.44864e-06
1.44864e-06
1.44864e-06
1.44864e-06
1.44864e-06
1.44864e-06
1.45228e-06
1.45381e-06
1.45392e-06
1.45182e-06
1.44864e-06
1.44864e-06
1.44864e-06
1.44864e-06
1.44864e-06
1.44864e-06
1.45225e-06
1.45246e-06
1.45195e-06
1.44864e-06
1.44864e-06
1.44864e-06
1.44864e-06
1.44864e-06
1.44864e-06
1.45229e-06
1.45407e-06
1.45371e-06
1.45159e-06
1.44864e-06
1.44864e-06
1.44864e-06
1.44864e-06
1.45193e-06
1.45236e-06
1.45409e-06
1.45394e-06
1.45229e-06
1.45227e-06
1.45228e-06
1.45225e-06
1.45229e-06
1.45236e-06
1.45403e-06
1.45404e-06
1.45381e-06
1.45246e-06
1.45407e-06
1.45409e-06
1.43686e-06
1.43671e-06
1.43657e-06
1.43477e-06
1.43466e-06
1.43461e-06
1.43474e-06
1.4365e-06
1.43673e-06
1.43657e-06
1.43419e-06
1.43142e-06
1.43142e-06
1.43142e-06
1.43142e-06
1.43438e-06
1.43508e-06
1.43477e-06
1.43142e-06
1.43142e-06
1.43142e-06
1.43142e-06
1.43142e-06
1.43142e-06
1.43506e-06
1.43683e-06
1.43686e-06
1.43466e-06
1.43142e-06
1.43142e-06
1.43142e-06
1.43142e-06
1.43142e-06
1.43142e-06
1.43506e-06
1.43659e-06
1.43671e-06
1.43461e-06
1.43142e-06
1.43142e-06
1.43142e-06
1.43142e-06
1.43142e-06
1.43142e-06
1.43503e-06
1.43525e-06
1.43474e-06
1.43142e-06
1.43142e-06
1.43142e-06
1.43142e-06
1.43142e-06
1.43142e-06
1.43508e-06
1.43686e-06
1.4365e-06
1.43438e-06
1.43142e-06
1.43142e-06
1.43142e-06
1.43142e-06
1.43472e-06
1.43515e-06
1.43688e-06
1.43673e-06
1.43508e-06
1.43506e-06
1.43506e-06
1.43503e-06
1.43508e-06
1.43515e-06
1.43681e-06
1.43683e-06
1.43659e-06
1.43525e-06
1.43686e-06
1.43688e-06
1.41964e-06
1.41949e-06
1.41935e-06
1.41755e-06
1.41744e-06
1.41739e-06
1.41752e-06
1.41928e-06
1.41951e-06
1.41935e-06
1.41697e-06
1.41421e-06
1.41421e-06
1.41421e-06
1.41421e-06
1.41716e-06
1.41786e-06
1.41755e-06
1.41421e-06
1.41421e-06
1.41421e-06
1.41421e-06
1.41421e-06
1.41421e-06
1.41784e-06
1.41962e-06
1.41964e-06
1.41744e-06
1.41421e-06
1.41421e-06
1.41421e-06
1.41421e-06
1.41421e-06
1.41421e-06
1.41785e-06
1.41938e-06
1.41949e-06
1.41739e-06
1.41421e-06
1.41421e-06
1.41421e-06
1.41421e-06
1.41421e-06
1.41421e-06
1.41782e-06
1.41803e-06
1.41752e-06
1.41421e-06
1.41421e-06
1.41421e-06
1.41421e-06
1.41421e-06
1.41421e-06
1.41786e-06
1.41965e-06
1.41928e-06
1.41716e-06
1.41421e-06
1.41421e-06
1.41421e-06
1.41421e-06
1.4175e-06
1.41793e-06
1.41966e-06
1.41951e-06
1.41786e-06
1.41784e-06
1.41785e-06
1.41782e-06
1.41786e-06
1.41793e-06
1.4196e-06
1.41962e-06
1.41938e-06
1.41803e-06
1.41965e-06
1.41966e-06
1.40243e-06
1.40228e-06
1.40214e-06
1.40034e-06
1.40023e-06
1.40018e-06
1.40031e-06
1.40207e-06
1.4023e-06
1.40214e-06
1.39976e-06
1.397e-06
1.397e-06
1.397e-06
1.397e-06
1.39995e-06
1.40065e-06
1.40034e-06
1.397e-06
1.397e-06
1.397e-06
1.397e-06
1.397e-06
1.397e-06
1.40063e-06
1.4024e-06
1.40243e-06
1.40023e-06
1.397e-06
1.397e-06
1.397e-06
1.397e-06
1.397e-06
1.397e-06
1.40064e-06
1.40217e-06
1.40228e-06
1.40018e-06
1.397e-06
1.397e-06
1.397e-06
1.397e-06
1.397e-06
1.397e-06
1.40061e-06
1.40082e-06
1.40031e-06
1.397e-06
1.397e-06
1.397e-06
1.397e-06
1.397e-06
1.397e-06
1.40065e-06
1.40243e-06
1.40207e-06
1.39995e-06
1.397e-06
1.397e-06
1.397e-06
1.397e-06
1.40029e-06
1.40072e-06
1.40245e-06
1.4023e-06
1.40065e-06
1.40063e-06
1.40064e-06
1.40061e-06
1.40065e-06
1.40072e-06
1.40238e-06
1.4024e-06
1.40217e-06
1.40082e-06
1.40243e-06
1.40245e-06
1.38522e-06
1.38507e-06
1.38493e-06
1.38312e-06
1.38302e-06
1.38296e-06
1.3831e-06
1.38485e-06
1.38509e-06
1.38493e-06
1.38254e-06
1.37978e-06
1.37978e-06
1.37978e-06
1.37978e-06
1.38274e-06
1.38344e-06
1.38312e-06
1.37978e-06
1.37978e-06
1.37978e-06
1.37978e-06
1.37978e-06
1.37978e-06
1.38341e-06
1.38519e-06
1.38522e-06
1.38302e-06
1.37978e-06
1.37978e-06
1.37978e-06
1.37978e-06
1.37978e-06
1.37978e-06
1.38342e-06
1.38495e-06
1.38507e-06
1.38296e-06
1.37978e-06
1.37978e-06
1.37978e-06
1.37978e-06
1.37978e-06
1.37978e-06
1.38339e-06
1.38361e-06
1.38309e-06
1.37978e-06
1.37978e-06
1.37978e-06
1.37978e-06
1.37978e-06
1.37978e-06
1.38343e-06
1.38522e-06
1.38485e-06
1.38274e-06
1.37978e-06
1.37978e-06
1.37978e-06
1.37978e-06
1.38308e-06
1.38351e-06
1.38524e-06
1.38509e-06
1.38344e-06
1.38341e-06
1.38342e-06
1.38339e-06
1.38343e-06
1.38351e-06
1.38517e-06
1.38519e-06
1.38495e-06
1.38361e-06
1.38522e-06
1.38524e-06
1.368e-06
1.36785e-06
1.36771e-06
1.36591e-06
1.3658e-06
1.36575e-06
1.36588e-06
1.36764e-06
1.36787e-06
1.36771e-06
1.36533e-06
1.36257e-06
1.36257e-06
1.36257e-06
1.36257e-06
1.36552e-06
1.36622e-06
1.36591e-06
1.36257e-06
1.36257e-06
1.36257e-06
1.36257e-06
1.36257e-06
1.36257e-06
1.3662e-06
1.36797e-06
1.368e-06
1.3658e-06
1.36257e-06
1.36257e-06
1.36257e-06
1.36257e-06
1.36257e-06
1.36257e-06
1.36621e-06
1.36774e-06
1.36785e-06
1.36575e-06
1.36257e-06
1.36257e-06
1.36257e-06
1.36257e-06
1.36257e-06
1.36257e-06
1.36618e-06
1.36639e-06
1.36588e-06
1.36257e-06
1.36257e-06
1.36257e-06
1.36257e-06
1.36257e-06
1.36257e-06
1.36622e-06
1.368e-06
1.36764e-06
1.36552e-06
1.36257e-06
1.36257e-06
1.36257e-06
1.36257e-06
1.36586e-06
1.36629e-06
1.36802e-06
1.36787e-06
1.36622e-06
1.3662e-06
1.36621e-06
1.36618e-06
1.36622e-06
1.36629e-06
1.36796e-06
1.36797e-06
1.36774e-06
1.36639e-06
1.368e-06
1.36802e-06
1.35079e-06
1.35064e-06
1.3505e-06
1.3487e-06
1.34859e-06
1.34854e-06
1.34867e-06
1.35043e-06
1.35066e-06
1.3505e-06
1.34812e-06
1.34535e-06
1.34535e-06
1.34535e-06
1.34535e-06
1.34831e-06
1.34901e-06
1.3487e-06
1.34535e-06
1.34535e-06
1.34535e-06
1.34535e-06
1.34535e-06
1.34535e-06
1.34899e-06
1.35076e-06
1.35079e-06
1.34859e-06
1.34535e-06
1.34535e-06
1.34535e-06
1.34535e-06
1.34535e-06
1.34535e-06
1.34899e-06
1.35052e-06
1.35064e-06
1.34854e-06
1.34535e-06
1.34535e-06
1.34535e-06
1.34535e-06
1.34535e-06
1.34535e-06
1.34896e-06
1.34918e-06
1.34867e-06
1.34535e-06
1.34535e-06
1.34535e-06
1.34535e-06
1.34535e-06
1.34535e-06
1.34901e-06
1.35079e-06
1.35042e-06
1.34831e-06
1.34535e-06
1.34535e-06
1.34535e-06
1.34535e-06
1.34865e-06
1.34908e-06
1.35081e-06
1.35066e-06
1.34901e-06
1.34899e-06
1.34899e-06
1.34896e-06
1.34901e-06
1.34908e-06
1.35074e-06
1.35076e-06
1.35052e-06
1.34918e-06
1.35079e-06
1.35081e-06
1.33357e-06
1.33342e-06
1.33328e-06
1.33148e-06
1.33137e-06
1.33132e-06
1.33145e-06
1.33321e-06
1.33344e-06
1.33328e-06
1.3309e-06
1.32814e-06
1.32814e-06
1.32814e-06
1.32814e-06
1.33109e-06
1.33179e-06
1.33148e-06
1.32814e-06
1.32814e-06
1.32814e-06
1.32814e-06
1.32814e-06
1.32814e-06
1.33177e-06
1.33354e-06
1.33357e-06
1.33137e-06
1.32814e-06
1.32814e-06
1.32814e-06
1.32814e-06
1.32814e-06
1.32814e-06
1.33178e-06
1.33331e-06
1.33342e-06
1.33132e-06
1.32814e-06
1.32814e-06
1.32814e-06
1.32814e-06
1.32814e-06
1.32814e-06
1.33175e-06
1.33196e-06
1.33145e-06
1.32814e-06
1.32814e-06
1.32814e-06
1.32814e-06
1.32814e-06
1.32814e-06
1.33179e-06
1.33357e-06
1.33321e-06
1.33109e-06
1.32814e-06
1.32814e-06
1.32814e-06
1.32814e-06
1.33143e-06
1.33186e-06
1.33359e-06
1.33344e-06
1.33179e-06
1.33177e-06
1.33178e-06
1.33175e-06
1.33179e-06
1.33186e-06
1.33353e-06
1.33354e-06
1.33331e-06
1.33196e-06
1.33357e-06
1.33359e-06
1.31636e-06
1.31621e-06
1.31607e-06
1.31427e-06
1.31416e-06
1.31411e-06
1.31424e-06
1.316e-06
1.31623e-06
1.31607e-06
1.31369e-06
1.31092e-06
1.31092e-06
1.31092e-06
1.31092e-06
1.31388e-06
1.31458e-06
1.31427e-06
1.31092e-06
1.31093e-06
1.31092e-06
1.31093e-06
1.31093e-06
1.31092e-06
1.31456e-06
1.31633e-06
1.31636e-06
1.31416e-06
1.31092e-06
1.31092e-06
1.31092e-06
1.31092e-06
1.31092e-06
1.31092e-06
1.31456e-06
1.31609e-06
1.31621e-06
1.31411e-06
1.31092e-06
1.31092e-06
1.31092e-06
1.31093e-06
1.31093e-06
1.31092e-06
1.31453e-06
1.31475e-06
1.31424e-06
1.31092e-06
1.31092e-06
1.31092e-06
1.31092e-06
1.31092e-06
1.31092e-06
1.31458e-06
1.31636e-06
1.316e-06
1.31388e-06
1.31092e-06
1.31092e-06
1.31092e-06
1.31092e-06
1.31422e-06
1.31465e-06
1.31638e-06
1.31623e-06
1.31458e-06
1.31456e-06
1.31456e-06
1.31453e-06
1.31458e-06
1.31465e-06
1.31631e-06
1.31633e-06
1.31609e-06
1.31475e-06
1.31636e-06
1.31638e-06
1.29914e-06
1.29899e-06
1.29885e-06
1.29705e-06
1.29694e-06
1.29689e-06
1.29702e-06
1.29878e-06
1.29901e-06
1.29885e-06
1.29647e-06
1.29371e-06
1.29371e-06
1.29371e-06
1.29371e-06
1.29666e-06
1.29736e-06
1.29705e-06
1.29371e-06
1.29371e-06
1.29371e-06
1.29371e-06
1.29371e-06
1.29371e-06
1.29734e-06
1.29911e-06
1.29914e-06
1.29694e-06
1.29371e-06
1.29371e-06
1.29371e-06
1.29371e-06
1.29371e-06
1.29371e-06
1.29735e-06
1.29888e-06
1.29899e-06
1.29689e-06
1.29371e-06
1.29371e-06
1.29371e-06
1.29371e-06
1.29371e-06
1.29371e-06
1.29732e-06
1.29753e-06
1.29702e-06
1.29371e-06
1.29371e-06
1.29371e-06
1.29371e-06
1.29371e-06
1.29371e-06
1.29736e-06
1.29915e-06
1.29878e-06
1.29666e-06
1.29371e-06
1.29371e-06
1.29371e-06
1.29371e-06
1.297e-06
1.29743e-06
1.29916e-06
1.29901e-06
1.29736e-06
1.29734e-06
1.29735e-06
1.29732e-06
1.29736e-06
1.29743e-06
1.2991e-06
1.29911e-06
1.29888e-06
1.29753e-06
1.29915e-06
1.29916e-06
1.28193e-06
1.28178e-06
1.28164e-06
1.27984e-06
1.27973e-06
1.27968e-06
1.27981e-06
1.28157e-06
1.2818e-06
1.28164e-06
1.27926e-06
1.2765e-06
1.2765e-06
1.2765e-06
1.2765e-06
1.27945e-06
1.28015e-06
1.27984e-06
1.2765e-06
1.2765e-06
1.2765e-06
1.2765e-06
1.2765e-06
1.2765e-06
1.28013e-06
1.2819e-06
1.28193e-06
1.27973e-06
1.2765e-06
1.2765e-06
1.2765e-06
1.2765e-06
1.2765e-06
1.2765e-06
1.28013e-06
1.28167e-06
1.28178e-06
1.27968e-06
1.2765e-06
1.2765e-06
1.2765e-06
1.2765e-06
1.2765e-06
1.2765e-06
1.2801e-06
1.28032e-06
1.27981e-06
1.2765e-06
1.2765e-06
1.2765e-06
1.2765e-06
1.2765e-06
1.2765e-06
1.28015e-06
1.28193e-06
1.28157e-06
1.27945e-06
1.2765e-06
1.2765e-06
1.2765e-06
1.2765e-06
1.27979e-06
1.28022e-06
1.28195e-06
1.2818e-06
1.28015e-06
1.28013e-06
1.28013e-06
1.2801e-06
1.28015e-06
1.28022e-06
1.28188e-06
1.2819e-06
1.28167e-06
1.28032e-06
1.28193e-06
1.28195e-06
1.26472e-06
1.26456e-06
1.26442e-06
1.26262e-06
1.26251e-06
1.26246e-06
1.26259e-06
1.26435e-06
1.26459e-06
1.26442e-06
1.26204e-06
1.25928e-06
1.25928e-06
1.25928e-06
1.25928e-06
1.26223e-06
1.26293e-06
1.26262e-06
1.25928e-06
1.25928e-06
1.25928e-06
1.25928e-06
1.25928e-06
1.25928e-06
1.26291e-06
1.26469e-06
1.26472e-06
1.26251e-06
1.25928e-06
1.25928e-06
1.25928e-06
1.25928e-06
1.25928e-06
1.25928e-06
1.26292e-06
1.26445e-06
1.26456e-06
1.26246e-06
1.25928e-06
1.25928e-06
1.25928e-06
1.25928e-06
1.25928e-06
1.25928e-06
1.26289e-06
1.2631e-06
1.26259e-06
1.25928e-06
1.25928e-06
1.25928e-06
1.25928e-06
1.25928e-06
1.25928e-06
1.26293e-06
1.26472e-06
1.26435e-06
1.26223e-06
1.25928e-06
1.25928e-06
1.25928e-06
1.25928e-06
1.26257e-06
1.263e-06
1.26473e-06
1.26459e-06
1.26293e-06
1.26291e-06
1.26292e-06
1.26289e-06
1.26293e-06
1.263e-06
1.26467e-06
1.26469e-06
1.26445e-06
1.2631e-06
1.26472e-06
1.26474e-06
1.2475e-06
1.24735e-06
1.24721e-06
1.24541e-06
1.2453e-06
1.24525e-06
1.24538e-06
1.24714e-06
1.24737e-06
1.24721e-06
1.24483e-06
1.24207e-06
1.24207e-06
1.24207e-06
1.24207e-06
1.24502e-06
1.24572e-06
1.24541e-06
1.24207e-06
1.24207e-06
1.24207e-06
1.24207e-06
1.24207e-06
1.24207e-06
1.2457e-06
1.24747e-06
1.2475e-06
1.2453e-06
1.24207e-06
1.24207e-06
1.24207e-06
1.24207e-06
1.24207e-06
1.24207e-06
1.2457e-06
1.24724e-06
1.24735e-06
1.24525e-06
1.24207e-06
1.24207e-06
1.24207e-06
1.24207e-06
1.24207e-06
1.24207e-06
1.24567e-06
1.24589e-06
1.24538e-06
1.24207e-06
1.24207e-06
1.24207e-06
1.24207e-06
1.24207e-06
1.24207e-06
1.24572e-06
1.2475e-06
1.24714e-06
1.24502e-06
1.24207e-06
1.24207e-06
1.24207e-06
1.24207e-06
1.24536e-06
1.24579e-06
1.24752e-06
1.24737e-06
1.24572e-06
1.2457e-06
1.2457e-06
1.24567e-06
1.24572e-06
1.24579e-06
1.24745e-06
1.24747e-06
1.24724e-06
1.24589e-06
1.2475e-06
1.24752e-06
1.23029e-06
1.23014e-06
1.22999e-06
1.22819e-06
1.22808e-06
1.22803e-06
1.22816e-06
1.22992e-06
1.23016e-06
1.22999e-06
1.22761e-06
1.22485e-06
1.22485e-06
1.22485e-06
1.22485e-06
1.2278e-06
1.2285e-06
1.22819e-06
1.22485e-06
1.22485e-06
1.22485e-06
1.22485e-06
1.22485e-06
1.22485e-06
1.22848e-06
1.23026e-06
1.23029e-06
1.22808e-06
1.22485e-06
1.22485e-06
1.22485e-06
1.22485e-06
1.22485e-06
1.22485e-06
1.22849e-06
1.23002e-06
1.23014e-06
1.22803e-06
1.22485e-06
1.22485e-06
1.22485e-06
1.22485e-06
1.22485e-06
1.22485e-06
1.22846e-06
1.22867e-06
1.22816e-06
1.22485e-06
1.22485e-06
1.22485e-06
1.22485e-06
1.22485e-06
1.22485e-06
1.2285e-06
1.23029e-06
1.22992e-06
1.2278e-06
1.22485e-06
1.22485e-06
1.22485e-06
1.22485e-06
1.22814e-06
1.22857e-06
1.23031e-06
1.23016e-06
1.2285e-06
1.22848e-06
1.22849e-06
1.22846e-06
1.2285e-06
1.22858e-06
1.23024e-06
1.23026e-06
1.23002e-06
1.22867e-06
1.23029e-06
1.23031e-06
1.21307e-06
1.21292e-06
1.21278e-06
1.21098e-06
1.21087e-06
1.21082e-06
1.21095e-06
1.21271e-06
1.21294e-06
1.21278e-06
1.2104e-06
1.20764e-06
1.20764e-06
1.20764e-06
1.20764e-06
1.21059e-06
1.21129e-06
1.21098e-06
1.20764e-06
1.20764e-06
1.20764e-06
1.20764e-06
1.20764e-06
1.20764e-06
1.21127e-06
1.21304e-06
1.21307e-06
1.21087e-06
1.20764e-06
1.20764e-06
1.20764e-06
1.20764e-06
1.20764e-06
1.20764e-06
1.21127e-06
1.21281e-06
1.21292e-06
1.21082e-06
1.20764e-06
1.20764e-06
1.20764e-06
1.20764e-06
1.20764e-06
1.20764e-06
1.21124e-06
1.21146e-06
1.21095e-06
1.20764e-06
1.20764e-06
1.20764e-06
1.20764e-06
1.20764e-06
1.20764e-06
1.21129e-06
1.21307e-06
1.21271e-06
1.21059e-06
1.20764e-06
1.20764e-06
1.20764e-06
1.20764e-06
1.21093e-06
1.21136e-06
1.21309e-06
1.21294e-06
1.21129e-06
1.21127e-06
1.21127e-06
1.21124e-06
1.21129e-06
1.21136e-06
1.21302e-06
1.21304e-06
1.21281e-06
1.21146e-06
1.21307e-06
1.21309e-06
1.19586e-06
1.1957e-06
1.19556e-06
1.19376e-06
1.19365e-06
1.1936e-06
1.19373e-06
1.19549e-06
1.19573e-06
1.19556e-06
1.19318e-06
1.19042e-06
1.19042e-06
1.19042e-06
1.19042e-06
1.19337e-06
1.19407e-06
1.19376e-06
1.19042e-06
1.19042e-06
1.19042e-06
1.19042e-06
1.19042e-06
1.19042e-06
1.19405e-06
1.19583e-06
1.19586e-06
1.19365e-06
1.19042e-06
1.19042e-06
1.19042e-06
1.19042e-06
1.19042e-06
1.19042e-06
1.19406e-06
1.19559e-06
1.1957e-06
1.1936e-06
1.19042e-06
1.19042e-06
1.19042e-06
1.19042e-06
1.19042e-06
1.19042e-06
1.19403e-06
1.19424e-06
1.19373e-06
1.19042e-06
1.19042e-06
1.19042e-06
1.19042e-06
1.19042e-06
1.19042e-06
1.19407e-06
1.19586e-06
1.19549e-06
1.19337e-06
1.19042e-06
1.19042e-06
1.19042e-06
1.19042e-06
1.19371e-06
1.19414e-06
1.19587e-06
1.19573e-06
1.19407e-06
1.19405e-06
1.19406e-06
1.19403e-06
1.19407e-06
1.19414e-06
1.19581e-06
1.19583e-06
1.19559e-06
1.19424e-06
1.19586e-06
1.19587e-06
1.17864e-06
1.17849e-06
1.17835e-06
1.17655e-06
1.17644e-06
1.17639e-06
1.17652e-06
1.17828e-06
1.17851e-06
1.17835e-06
1.17597e-06
1.1732e-06
1.1732e-06
1.1732e-06
1.1732e-06
1.17616e-06
1.17686e-06
1.17655e-06
1.1732e-06
1.1732e-06
1.1732e-06
1.1732e-06
1.1732e-06
1.1732e-06
1.17684e-06
1.17861e-06
1.17864e-06
1.17644e-06
1.1732e-06
1.1732e-06
1.1732e-06
1.1732e-06
1.1732e-06
1.1732e-06
1.17684e-06
1.17837e-06
1.17849e-06
1.17639e-06
1.1732e-06
1.1732e-06
1.1732e-06
1.1732e-06
1.1732e-06
1.1732e-06
1.17681e-06
1.17703e-06
1.17652e-06
1.1732e-06
1.1732e-06
1.1732e-06
1.1732e-06
1.1732e-06
1.1732e-06
1.17686e-06
1.17864e-06
1.17828e-06
1.17616e-06
1.1732e-06
1.1732e-06
1.1732e-06
1.1732e-06
1.1765e-06
1.17693e-06
1.17866e-06
1.17851e-06
1.17686e-06
1.17684e-06
1.17684e-06
1.17681e-06
1.17686e-06
1.17693e-06
1.17859e-06
1.17861e-06
1.17837e-06
1.17703e-06
1.17864e-06
1.17866e-06
1.16142e-06
1.16127e-06
1.16113e-06
1.15933e-06
1.15922e-06
1.15917e-06
1.1593e-06
1.16106e-06
1.16129e-06
1.16113e-06
1.15875e-06
1.15599e-06
1.15599e-06
1.15599e-06
1.15599e-06
1.15894e-06
1.15964e-06
1.15933e-06
1.15599e-06
1.15599e-06
1.15599e-06
1.15599e-06
1.15599e-06
1.15599e-06
1.15962e-06
1.16139e-06
1.16142e-06
1.15922e-06
1.15599e-06
1.15599e-06
1.15599e-06
1.15599e-06
1.15599e-06
1.15599e-06
1.15963e-06
1.16116e-06
1.16127e-06
1.15917e-06
1.15599e-06
1.15599e-06
1.15599e-06
1.15599e-06
1.15599e-06
1.15599e-06
1.1596e-06
1.15981e-06
1.1593e-06
1.15599e-06
1.15599e-06
1.15599e-06
1.15599e-06
1.15599e-06
1.15599e-06
1.15964e-06
1.16142e-06
1.16106e-06
1.15894e-06
1.15599e-06
1.15599e-06
1.15599e-06
1.15599e-06
1.15928e-06
1.15971e-06
1.16144e-06
1.16129e-06
1.15964e-06
1.15962e-06
1.15963e-06
1.1596e-06
1.15964e-06
1.15971e-06
1.16138e-06
1.16139e-06
1.16116e-06
1.15981e-06
1.16142e-06
1.16144e-06
1.14421e-06
1.14406e-06
1.14391e-06
1.14211e-06
1.142e-06
1.14195e-06
1.14208e-06
1.14384e-06
1.14408e-06
1.14391e-06
1.14153e-06
1.13877e-06
1.13877e-06
1.13877e-06
1.13877e-06
1.14172e-06
1.14242e-06
1.14211e-06
1.13877e-06
1.13877e-06
1.13877e-06
1.13877e-06
1.13877e-06
1.13877e-06
1.1424e-06
1.14418e-06
1.14421e-06
1.142e-06
1.13877e-06
1.13877e-06
1.13877e-06
1.13877e-06
1.13877e-06
1.13877e-06
1.14241e-06
1.14394e-06
1.14406e-06
1.14195e-06
1.13877e-06
1.13877e-06
1.13877e-06
1.13877e-06
1.13877e-06
1.13877e-06
1.14238e-06
1.1426e-06
1.14208e-06
1.13877e-06
1.13877e-06
1.13877e-06
1.13877e-06
1.13877e-06
1.13877e-06
1.14242e-06
1.14421e-06
1.14384e-06
1.14172e-06
1.13877e-06
1.13877e-06
1.13877e-06
1.13877e-06
1.14206e-06
1.1425e-06
1.14423e-06
1.14408e-06
1.14242e-06
1.1424e-06
1.14241e-06
1.14238e-06
1.14242e-06
1.1425e-06
1.14416e-06
1.14418e-06
1.14394e-06
1.1426e-06
1.14421e-06
1.14423e-06
1.12699e-06
1.12684e-06
1.1267e-06
1.1249e-06
1.12479e-06
1.12474e-06
1.12487e-06
1.12663e-06
1.12686e-06
1.1267e-06
1.12432e-06
1.12156e-06
1.12156e-06
1.12156e-06
1.12155e-06
1.12451e-06
1.12521e-06
1.1249e-06
1.12156e-06
1.12156e-06
1.12155e-06
1.12155e-06
1.12155e-06
1.12155e-06
1.12519e-06
1.12696e-06
1.12699e-06
1.12479e-06
1.12156e-06
1.12156e-06
1.12155e-06
1.12156e-06
1.12155e-06
1.12155e-06
1.12519e-06
1.12673e-06
1.12684e-06
1.12474e-06
1.12156e-06
1.12155e-06
1.12155e-06
1.12155e-06
1.12155e-06
1.12155e-06
1.12516e-06
1.12538e-06
1.12487e-06
1.12155e-06
1.12156e-06
1.12155e-06
1.12156e-06
1.12155e-06
1.12155e-06
1.12521e-06
1.12699e-06
1.12663e-06
1.12451e-06
1.12155e-06
1.12155e-06
1.12155e-06
1.12155e-06
1.12485e-06
1.12528e-06
1.12701e-06
1.12686e-06
1.12521e-06
1.12519e-06
1.12519e-06
1.12516e-06
1.12521e-06
1.12528e-06
1.12694e-06
1.12696e-06
1.12673e-06
1.12538e-06
1.12699e-06
1.12701e-06
1.10977e-06
1.10962e-06
1.10948e-06
1.10768e-06
1.10757e-06
1.10752e-06
1.10765e-06
1.10941e-06
1.10964e-06
1.10948e-06
1.1071e-06
1.10434e-06
1.10434e-06
1.10434e-06
1.10434e-06
1.10729e-06
1.10799e-06
1.10768e-06
1.10434e-06
1.10434e-06
1.10434e-06
1.10434e-06
1.10434e-06
1.10434e-06
1.10797e-06
1.10974e-06
1.10977e-06
1.10757e-06
1.10434e-06
1.10434e-06
1.10434e-06
1.10434e-06
1.10434e-06
1.10434e-06
1.10798e-06
1.10951e-06
1.10962e-06
1.10752e-06
1.10434e-06
1.10434e-06
1.10434e-06
1.10434e-06
1.10434e-06
1.10434e-06
1.10795e-06
1.10816e-06
1.10765e-06
1.10434e-06
1.10434e-06
1.10434e-06
1.10434e-06
1.10434e-06
1.10434e-06
1.10799e-06
1.10977e-06
1.10941e-06
1.10729e-06
1.10434e-06
1.10434e-06
1.10434e-06
1.10434e-06
1.10763e-06
1.10806e-06
1.10979e-06
1.10964e-06
1.10799e-06
1.10797e-06
1.10798e-06
1.10795e-06
1.10799e-06
1.10806e-06