/*--------------------------------*- C++ -*----------------------------------*\
| =========                 |                                                 |
| \\      /  F ield         | OpenFOAM: The Open Source CFD Toolbox           |
|  \\    /   O peration     | Version:  2312                                  |
|   \\  /    A nd           | Website:  www.openfoam.com                      |
|    \\/     M anipulation  |                                                 |
\*---------------------------------------------------------------------------*/
FoamFile
{
    version     2.0;
    format      ascii;
    arch        "LSB;label=32;scalar=64";
    class       volScalarField;
    location    "700";
    object      k;
}
// * * * * * * * * * * * * * * * * * * * * * * * * * * * * * * * * * * * * * //

dimensions      [0 2 -2 0 0 0 0];

internalField   nonuniform List<scalar> 
43008
(
1.57104e-05
1.61152e-05
1.52907e-05
1.60662e-05
1.60663e-05
1.76006e-05
1.72587e-05
1.75162e-05
1.61151e-05
1.61152e-05
1.60678e-05
1.60679e-05
1.75165e-05
1.61156e-05
1.6115e-05
1.60682e-05
1.60677e-05
1.60678e-05
1.60672e-05
1.72592e-05
1.75188e-05
1.61149e-05
1.60678e-05
1.60676e-05
1.75273e-05
1.76118e-05
1.60663e-05
1.60664e-05
1.76123e-05
1.60666e-05
1.60662e-05
1.60657e-05
1.76131e-05
1.60662e-05
5.00972e-05
6.99056e-05
4.93373e-05
6.99387e-05
6.97737e-05
5.00986e-05
6.99064e-05
4.93361e-05
6.99398e-05
1.57102e-05
1.571e-05
1.57098e-05
1.53911e-05
1.53909e-05
1.53907e-05
1.53905e-05
2.60164e-05
1.60925e-05
4.2934e-05
1.53539e-05
6.97974e-05
6.97738e-05
2.60169e-05
1.54378e-05
4.24466e-05
1.60926e-05
2.54893e-05
1.53537e-05
4.29365e-05
1.73494e-05
5.77577e-05
5.77673e-05
5.19462e-05
6.99766e-05
5.1282e-05
7.00077e-05
6.97129e-05
6.9691e-05
5.1948e-05
6.99775e-05
5.12814e-05
7.00089e-05
1.52905e-05
1.52904e-05
1.52902e-05
2.76579e-05
4.3881e-05
1.51277e-05
1.60686e-05
2.71022e-05
4.43347e-05
1.50602e-05
6.9713e-05
6.96911e-05
2.76643e-05
1.51275e-05
4.38791e-05
1.60686e-05
2.71049e-05
1.506e-05
4.43399e-05
5.83088e-05
5.83194e-05
1.77446e-05
5.85666e-05
5.85766e-05
6.97961e-05
6.9772e-05
6.97975e-05
6.9774e-05
5.74664e-05
5.74779e-05
1.73388e-05
5.77592e-05
5.77706e-05
6.97298e-05
6.97528e-05
6.97319e-05
6.97546e-05
1.74196e-05
5.81776e-05
5.81888e-05
5.7903e-05
5.79147e-05
5.00967e-05
6.99019e-05
4.93368e-05
6.99352e-05
2.60139e-05
4.24474e-05
1.54382e-05
1.60925e-05
2.54934e-05
4.2936e-05
1.53541e-05
2.60141e-05
4.24497e-05
1.54381e-05
1.60925e-05
2.54932e-05
4.29423e-05
1.53539e-05
5.03435e-05
6.99739e-05
6.99419e-05
5.10564e-05
5.03431e-05
6.99703e-05
6.99383e-05
5.10557e-05
2.62902e-05
1.60792e-05
4.36488e-05
1.51989e-05
4.31772e-05
1.52747e-05
2.68262e-05
2.62902e-05
1.60793e-05
4.3651e-05
1.51988e-05
4.31789e-05
1.52746e-05
2.68272e-05
1.7338e-05
5.77674e-05
5.77613e-05
6.97727e-05
6.97317e-05
6.97544e-05
1.74202e-05
5.81848e-05
5.81791e-05
5.79105e-05
5.79043e-05
6.97306e-05
6.97532e-05
2.60143e-05
4.24511e-05
1.54382e-05
1.60929e-05
2.54921e-05
4.2938e-05
1.53541e-05
5.00973e-05
6.9902e-05
4.93355e-05
6.99357e-05
2.60121e-05
1.54377e-05
4.24482e-05
1.60923e-05
2.54924e-05
1.53536e-05
4.29405e-05
5.03425e-05
6.9975e-05
6.99427e-05
5.10577e-05
2.62894e-05
1.60796e-05
4.36515e-05
1.51989e-05
4.31824e-05
1.52747e-05
2.68266e-05
5.03422e-05
6.99707e-05
6.99383e-05
5.10568e-05
2.62904e-05
1.6079e-05
1.51984e-05
4.36521e-05
1.52742e-05
4.3179e-05
2.68269e-05
5.00815e-05
6.99379e-05
2.60123e-05
1.60919e-05
1.53537e-05
4.29374e-05
5.00908e-05
6.9934e-05
2.62821e-05
1.60792e-05
4.36457e-05
1.51987e-05
4.31774e-05
1.52746e-05
2.68287e-05
5.03505e-05
6.99728e-05
6.99409e-05
5.10419e-05
2.62879e-05
1.60786e-05
1.51985e-05
4.36487e-05
1.52744e-05
4.31742e-05
2.68241e-05
5.03449e-05
6.9969e-05
6.99368e-05
5.10503e-05
5.74726e-05
5.74671e-05
1.73391e-05
5.77668e-05
5.77612e-05
6.97958e-05
6.97721e-05
6.97318e-05
6.97545e-05
1.74159e-05
5.81849e-05
5.8179e-05
5.79096e-05
5.79043e-05
6.97301e-05
6.97528e-05
2.60117e-05
1.54377e-05
4.24534e-05
1.60923e-05
2.54932e-05
1.53535e-05
4.29393e-05
5.0091e-05
6.99048e-05
4.93442e-05
6.99383e-05
5.00909e-05
6.99032e-05
4.93439e-05
6.99365e-05
2.62858e-05
1.60792e-05
1.51985e-05
4.36502e-05
1.52743e-05
4.31779e-05
2.68311e-05
2.62902e-05
1.6079e-05
1.51984e-05
4.36533e-05
1.52742e-05
4.31821e-05
2.68261e-05
5.0351e-05
6.99734e-05
6.9941e-05
5.10504e-05
5.03508e-05
6.99715e-05
6.99394e-05
5.10501e-05
6.97717e-05
6.97742e-05
1.74109e-05
5.81752e-05
5.81854e-05
5.79002e-05
5.79108e-05
6.97296e-05
6.97523e-05
6.97321e-05
6.97549e-05
6.97111e-05
6.96892e-05
6.97131e-05
6.96912e-05
5.83115e-05
5.83234e-05
1.77279e-05
5.8569e-05
5.85798e-05
5.1946e-05
6.99731e-05
5.12816e-05
7.00043e-05
2.7659e-05
4.388e-05
1.5128e-05
1.60685e-05
2.71102e-05
4.43371e-05
1.50604e-05
2.76613e-05
4.38848e-05
1.51278e-05
1.60689e-05
2.711e-05
4.43329e-05
1.50603e-05
5.83189e-05
5.8313e-05
1.77273e-05
5.85749e-05
5.8569e-05
6.97116e-05
6.96899e-05
2.76594e-05
4.38857e-05
1.5128e-05
1.60689e-05
2.71099e-05
4.43332e-05
1.50604e-05
5.19471e-05
6.99733e-05
5.1281e-05
7.00048e-05
2.76607e-05
1.51275e-05
4.38831e-05
1.60685e-05
2.71104e-05
1.50599e-05
4.43402e-05
5.19333e-05
6.99755e-05
5.12884e-05
7.00069e-05
2.76562e-05
1.51276e-05
4.38792e-05
1.60682e-05
2.71082e-05
1.506e-05
4.43309e-05
5.19404e-05
6.99716e-05
5.12834e-05
7.00031e-05
5.83183e-05
5.83135e-05
1.7728e-05
5.85755e-05
5.85699e-05
6.97113e-05
6.96896e-05
2.76594e-05
1.51274e-05
4.38837e-05
1.60686e-05
2.71095e-05
1.50599e-05
4.43363e-05
5.19406e-05
6.99759e-05
5.129e-05
7.00075e-05
5.19401e-05
6.99741e-05
5.12897e-05
7.00053e-05
6.97108e-05
6.96889e-05
6.97134e-05
6.96915e-05
6.97452e-05
4.98488e-05
6.90333e-05
5.70688e-05
6.90255e-05
5.68498e-05
6.97564e-05
7.11551e-05
7.30007e-05
6.9921e-05
7.11512e-05
7.31095e-05
6.97444e-05
4.95919e-05
6.9019e-05
5.64664e-05
6.97339e-05
6.90252e-05
5.66916e-05
7.11315e-05
7.32571e-05
6.99238e-05
7.31534e-05
7.11353e-05
6.97953e-05
6.97758e-05
6.97451e-05
4.98477e-05
5.70685e-05
6.90336e-05
5.68478e-05
6.90258e-05
6.97563e-05
7.11548e-05
7.29968e-05
6.99219e-05
7.11508e-05
7.31079e-05
6.97444e-05
4.95932e-05
5.64645e-05
6.90193e-05
6.97338e-05
5.66911e-05
6.90255e-05
7.11312e-05
7.32567e-05
6.99246e-05
7.31497e-05
7.1135e-05
6.97953e-05
6.97758e-05
8.65074e-05
7.26169e-05
7.26108e-05
7.26161e-05
7.26099e-05
8.66091e-05
5.44811e-05
5.75378e-05
3.58114e-05
6.84894e-05
5.45506e-05
5.75477e-05
3.58325e-05
6.85006e-05
8.64623e-05
7.26396e-05
7.26334e-05
5.47201e-05
6.85377e-05
5.76854e-05
3.62412e-05
3.60996e-05
6.8503e-05
5.48371e-05
5.47863e-05
6.85491e-05
5.76959e-05
3.6262e-05
3.61185e-05
6.85151e-05
5.4902e-05
6.97971e-05
5.17258e-05
6.90964e-05
5.84314e-05
6.90787e-05
5.82346e-05
6.98095e-05
7.10754e-05
7.35716e-05
6.99909e-05
7.1072e-05
7.36602e-05
6.97958e-05
5.151e-05
6.90621e-05
5.79101e-05
6.97835e-05
6.90766e-05
5.81119e-05
7.1052e-05
7.37797e-05
6.99934e-05
7.36958e-05
7.10553e-05
6.97112e-05
6.96927e-05
6.9797e-05
5.17251e-05
5.84312e-05
6.90966e-05
5.82332e-05
6.90791e-05
6.98094e-05
7.10751e-05
7.35666e-05
6.9992e-05
7.10716e-05
7.36585e-05
6.97957e-05
5.15115e-05
5.79084e-05
6.90625e-05
6.97834e-05
5.81116e-05
6.90766e-05
7.10517e-05
7.37798e-05
6.99944e-05
7.3692e-05
7.1055e-05
6.97112e-05
6.96928e-05
8.70504e-05
7.25263e-05
7.25202e-05
7.25257e-05
7.25197e-05
8.71374e-05
5.58385e-05
3.73641e-05
6.86413e-05
5.83736e-05
5.57308e-05
3.75038e-05
6.86732e-05
5.59058e-05
3.73857e-05
6.86538e-05
5.83844e-05
5.57995e-05
3.7523e-05
6.86848e-05
8.70127e-05
7.25483e-05
7.25422e-05
8.69237e-05
7.25489e-05
7.25428e-05
5.60494e-05
6.87154e-05
5.85032e-05
3.79142e-05
3.77757e-05
6.86844e-05
5.61513e-05
5.61184e-05
6.87269e-05
5.85138e-05
3.79353e-05
3.77968e-05
6.8697e-05
5.62155e-05
6.97938e-05
6.97742e-05
6.97954e-05
6.9776e-05
8.65118e-05
7.26185e-05
7.2612e-05
7.26176e-05
7.26111e-05
8.66143e-05
5.44823e-05
3.5671e-05
6.84544e-05
5.75397e-05
5.43607e-05
6.84908e-05
3.58085e-05
5.45475e-05
3.56881e-05
6.84663e-05
5.75512e-05
5.44273e-05
6.85026e-05
3.58256e-05
8.64677e-05
7.26402e-05
7.26337e-05
8.63613e-05
7.26413e-05
7.26347e-05
5.47197e-05
6.85389e-05
5.76881e-05
3.62376e-05
6.85039e-05
5.48361e-05
3.61023e-05
5.47868e-05
6.85509e-05
5.77e-05
3.62559e-05
6.85156e-05
5.49024e-05
3.61199e-05
6.97317e-05
6.97507e-05
6.97336e-05
6.97527e-05
8.67545e-05
7.25949e-05
7.25884e-05
8.66564e-05
7.25956e-05
7.25892e-05
5.54044e-05
3.70836e-05
5.81102e-05
6.86308e-05
6.85973e-05
3.69511e-05
5.55143e-05
5.54714e-05
3.71032e-05
5.81223e-05
6.8643e-05
6.86094e-05
3.69683e-05
5.55815e-05
5.51798e-05
6.85516e-05
3.65292e-05
5.79722e-05
5.5067e-05
6.85854e-05
3.66633e-05
5.52472e-05
6.85634e-05
3.65465e-05
5.79834e-05
5.51339e-05
6.85975e-05
3.66821e-05
8.67945e-05
7.25729e-05
7.25665e-05
7.25721e-05
7.25657e-05
8.68888e-05
6.9744e-05
4.98485e-05
6.90326e-05
5.70665e-05
6.90248e-05
5.68454e-05
6.97551e-05
7.11534e-05
7.29796e-05
6.99173e-05
7.11496e-05
7.30901e-05
6.97432e-05
4.95917e-05
6.90182e-05
5.64619e-05
6.90245e-05
6.97327e-05
5.66895e-05
7.11299e-05
7.3237e-05
6.99202e-05
7.31336e-05
7.11336e-05
6.9769e-05
6.90347e-05
5.72179e-05
5.05855e-05
6.97573e-05
6.90448e-05
5.74309e-05
7.10919e-05
6.99589e-05
7.35327e-05
7.10955e-05
7.3437e-05
7.11154e-05
7.33003e-05
6.99564e-05
7.11117e-05
7.33992e-05
6.97702e-05
5.08213e-05
6.90593e-05
5.77785e-05
6.97822e-05
6.90471e-05
5.75712e-05
6.97678e-05
6.90341e-05
5.72135e-05
5.05849e-05
6.97561e-05
6.90442e-05
5.74285e-05
7.10902e-05
6.99553e-05
7.3513e-05
7.34153e-05
7.10937e-05
7.11137e-05
7.32793e-05
6.99529e-05
7.11101e-05
7.33795e-05
6.9769e-05
5.08209e-05
6.90586e-05
5.77757e-05
6.90466e-05
5.75668e-05
6.9781e-05
8.65156e-05
7.26129e-05
7.26184e-05
7.2612e-05
7.26176e-05
8.6612e-05
5.45459e-05
5.75479e-05
6.85e-05
3.5828e-05
5.44752e-05
5.75417e-05
3.58068e-05
6.84899e-05
8.64656e-05
7.26355e-05
7.26411e-05
5.47908e-05
6.85483e-05
5.76958e-05
3.62582e-05
6.85164e-05
3.6122e-05
5.49011e-05
5.47209e-05
6.85383e-05
5.76893e-05
3.62372e-05
3.61009e-05
6.85067e-05
5.48331e-05
6.97943e-05
6.97744e-05
6.97334e-05
6.97525e-05
8.67518e-05
7.25894e-05
7.25949e-05
8.66594e-05
7.25902e-05
7.25956e-05
5.54754e-05
3.71041e-05
5.8118e-05
6.86403e-05
3.69706e-05
6.86106e-05
5.55786e-05
5.54055e-05
3.7082e-05
5.81118e-05
6.86302e-05
6.86006e-05
3.69507e-05
5.55106e-05
5.5245e-05
6.85641e-05
3.65488e-05
5.79795e-05
3.66837e-05
5.51378e-05
6.85951e-05
5.5175e-05
6.85539e-05
3.65278e-05
5.79736e-05
5.50681e-05
6.85852e-05
3.66613e-05
8.67976e-05
7.25676e-05
7.25729e-05
7.25668e-05
7.25722e-05
8.68869e-05
6.97322e-05
6.97514e-05
6.97441e-05
4.98475e-05
6.9033e-05
5.70636e-05
6.90251e-05
5.68448e-05
6.97552e-05
7.11528e-05
7.29744e-05
6.99177e-05
7.11489e-05
7.30866e-05
6.97433e-05
4.95919e-05
6.90186e-05
5.64609e-05
6.90249e-05
6.97328e-05
5.66864e-05
7.11292e-05
7.32347e-05
6.99204e-05
7.31276e-05
7.1133e-05
6.9769e-05
5.72161e-05
6.90351e-05
5.05869e-05
6.97573e-05
5.74307e-05
6.9045e-05
7.10915e-05
6.99599e-05
7.3532e-05
7.10951e-05
7.34343e-05
7.1115e-05
7.32947e-05
6.99574e-05
7.11113e-05
7.33971e-05
6.97701e-05
5.08206e-05
5.77784e-05
6.90594e-05
6.97822e-05
5.75695e-05
6.90475e-05
6.97679e-05
6.90344e-05
5.72131e-05
5.05857e-05
6.97562e-05
6.90445e-05
5.74255e-05
7.10895e-05
6.99556e-05
7.351e-05
7.34116e-05
7.10931e-05
7.11131e-05
7.32742e-05
6.99533e-05
7.11094e-05
7.33756e-05
6.97691e-05
5.08201e-05
6.9059e-05
5.77732e-05
6.90468e-05
5.75666e-05
6.9781e-05
6.97435e-05
4.98562e-05
5.70476e-05
6.90321e-05
5.68585e-05
6.90245e-05
6.97545e-05
7.1129e-05
7.32474e-05
6.99226e-05
7.31439e-05
7.11335e-05
6.97429e-05
4.98501e-05
6.90319e-05
5.70612e-05
6.90241e-05
5.68453e-05
6.97541e-05
7.11284e-05
7.32333e-05
6.99185e-05
7.31266e-05
7.11323e-05
6.97672e-05
5.72259e-05
6.90338e-05
5.05704e-05
6.97557e-05
5.74106e-05
6.90435e-05
7.10894e-05
6.9958e-05
7.35228e-05
7.34292e-05
7.10936e-05
7.11136e-05
7.32897e-05
6.99555e-05
7.11092e-05
7.33878e-05
6.97686e-05
5.08281e-05
5.77589e-05
6.90579e-05
5.75784e-05
6.90463e-05
6.97804e-05
6.97668e-05
6.90334e-05
5.72134e-05
5.05791e-05
6.97551e-05
6.90435e-05
5.74233e-05
7.10888e-05
6.99541e-05
7.35079e-05
7.34103e-05
7.10924e-05
7.11124e-05
7.32726e-05
6.99517e-05
7.11087e-05
7.33732e-05
6.9768e-05
5.08226e-05
6.90579e-05
5.77709e-05
6.9046e-05
5.75665e-05
6.978e-05
8.65085e-05
7.26119e-05
7.26175e-05
7.26111e-05
7.26166e-05
8.66096e-05
5.45459e-05
3.56901e-05
6.84646e-05
5.7547e-05
6.85003e-05
5.44324e-05
3.58269e-05
5.44814e-05
3.56665e-05
6.84553e-05
5.75414e-05
3.58122e-05
5.43613e-05
6.84902e-05
8.64624e-05
7.26337e-05
7.26393e-05
7.26346e-05
8.63601e-05
7.26402e-05
5.47906e-05
6.8549e-05
5.7695e-05
3.62584e-05
6.8514e-05
3.61216e-05
5.48999e-05
5.47197e-05
6.85382e-05
5.76894e-05
3.62419e-05
3.60994e-05
6.85045e-05
5.48355e-05
6.97937e-05
6.97741e-05
6.97335e-05
6.97526e-05
8.67505e-05
7.25885e-05
7.2594e-05
8.66522e-05
7.25892e-05
7.25948e-05
5.54724e-05
3.71042e-05
5.81173e-05
6.8641e-05
3.69698e-05
6.8608e-05
5.5582e-05
5.54038e-05
3.70848e-05
5.81122e-05
6.86303e-05
6.85984e-05
3.69493e-05
5.55131e-05
5.52475e-05
6.85618e-05
3.6548e-05
5.79791e-05
3.66843e-05
5.51375e-05
6.85956e-05
5.51808e-05
6.85524e-05
3.65263e-05
5.79734e-05
5.50671e-05
6.85849e-05
3.66653e-05
8.67911e-05
7.25665e-05
7.25721e-05
7.25658e-05
7.25714e-05
8.68846e-05
6.97319e-05
6.97509e-05
6.97439e-05
4.9856e-05
5.7065e-05
6.90324e-05
5.68509e-05
6.90246e-05
6.97551e-05
7.11536e-05
7.29917e-05
6.99204e-05
7.31039e-05
7.11497e-05
6.97432e-05
4.95856e-05
5.64674e-05
6.90181e-05
5.66877e-05
6.97327e-05
6.90243e-05
7.11301e-05
7.32525e-05
6.99231e-05
7.31458e-05
7.11338e-05
6.97442e-05
4.9856e-05
5.70651e-05
6.90324e-05
5.68467e-05
6.90247e-05
6.97553e-05
7.11541e-05
7.29835e-05
6.99185e-05
7.11504e-05
7.30838e-05
6.97435e-05
4.95857e-05
5.64632e-05
6.90182e-05
6.9733e-05
5.66878e-05
6.90244e-05
7.11306e-05
7.32318e-05
6.99214e-05
7.31359e-05
7.11342e-05
6.97678e-05
5.72191e-05
6.90338e-05
5.05793e-05
6.97561e-05
5.74274e-05
6.90439e-05
7.10905e-05
6.99583e-05
7.3528e-05
7.34308e-05
7.10941e-05
7.11139e-05
7.32917e-05
6.9956e-05
7.11103e-05
7.33925e-05
6.9769e-05
5.08291e-05
5.77751e-05
6.90582e-05
5.75723e-05
6.90463e-05
6.97809e-05
6.97679e-05
5.72149e-05
6.90339e-05
5.05791e-05
6.97563e-05
5.74273e-05
6.90439e-05
7.10909e-05
6.99566e-05
7.35085e-05
7.34205e-05
7.10942e-05
7.11143e-05
7.32829e-05
6.99541e-05
7.11108e-05
7.33734e-05
6.9769e-05
5.08289e-05
5.77748e-05
6.90582e-05
5.75682e-05
6.90464e-05
6.9781e-05
6.97932e-05
6.97736e-05
6.97957e-05
6.97762e-05
8.67496e-05
7.25935e-05
7.25874e-05
8.66513e-05
7.25942e-05
7.25881e-05
5.54033e-05
3.70883e-05
5.81079e-05
6.86296e-05
5.55144e-05
3.69468e-05
6.85965e-05
5.5473e-05
3.71068e-05
5.81183e-05
6.86411e-05
5.55814e-05
3.69677e-05
6.86091e-05
5.51818e-05
6.85507e-05
3.65266e-05
5.79696e-05
5.50662e-05
3.66669e-05
6.85842e-05
5.52478e-05
6.85627e-05
3.65463e-05
5.79798e-05
5.51357e-05
3.66864e-05
6.85956e-05
8.67901e-05
7.25715e-05
7.25654e-05
8.68833e-05
7.25708e-05
7.25647e-05
6.97314e-05
6.97504e-05
6.97339e-05
6.9753e-05
6.97093e-05
6.96909e-05
6.97114e-05
6.96929e-05
8.70561e-05
7.25276e-05
7.25213e-05
7.25269e-05
7.25206e-05
8.71415e-05
5.58375e-05
3.73675e-05
6.86422e-05
5.83763e-05
5.57304e-05
6.86744e-05
3.74981e-05
5.59054e-05
3.73856e-05
6.86545e-05
5.83875e-05
5.57979e-05
6.86867e-05
3.75182e-05
8.70171e-05
7.25495e-05
7.25431e-05
8.6928e-05
7.25502e-05
7.25438e-05
5.60484e-05
6.87168e-05
5.85061e-05
3.79091e-05
6.86852e-05
5.61555e-05
3.77788e-05
5.61148e-05
6.87291e-05
5.85179e-05
3.7927e-05
6.86975e-05
5.62218e-05
3.7798e-05
6.97959e-05
5.1725e-05
6.90939e-05
5.8428e-05
6.90802e-05
5.82304e-05
6.98081e-05
7.10737e-05
7.35491e-05
6.99875e-05
7.10703e-05
7.36406e-05
6.97945e-05
5.15096e-05
6.9062e-05
5.79055e-05
6.90754e-05
6.97823e-05
5.81088e-05
7.10503e-05
7.37604e-05
6.99899e-05
7.3674e-05
7.10535e-05
8.70581e-05
7.25222e-05
7.25276e-05
7.25215e-05
7.25269e-05
8.71399e-05
5.59028e-05
3.73874e-05
6.86551e-05
5.83829e-05
6.86836e-05
5.5803e-05
3.7521e-05
5.5833e-05
3.73672e-05
6.86448e-05
5.83773e-05
3.74981e-05
5.57333e-05
6.86737e-05
8.70158e-05
7.25442e-05
7.25495e-05
7.25448e-05
8.69302e-05
7.25502e-05
5.61195e-05
6.87254e-05
5.85134e-05
3.79326e-05
6.86984e-05
3.77968e-05
5.62244e-05
5.60501e-05
6.87155e-05
5.85081e-05
3.79096e-05
3.77781e-05
6.86882e-05
5.61564e-05
6.971e-05
6.96913e-05
6.97958e-05
5.17244e-05
6.90961e-05
5.8426e-05
6.90783e-05
5.82303e-05
6.98081e-05
7.10731e-05
7.35458e-05
6.99879e-05
7.10697e-05
7.3638e-05
6.97945e-05
5.15107e-05
6.90618e-05
5.79055e-05
6.90763e-05
6.97823e-05
5.81065e-05
7.10496e-05
7.37589e-05
6.999e-05
7.36693e-05
7.10529e-05
6.97954e-05
5.17318e-05
5.84136e-05
6.9093e-05
5.82403e-05
6.908e-05
6.98074e-05
7.10735e-05
7.35605e-05
6.999e-05
7.36501e-05
7.10694e-05
6.97938e-05
5.14961e-05
5.79164e-05
6.90618e-05
5.8093e-05
6.97819e-05
6.90747e-05
7.10494e-05
7.37719e-05
6.99922e-05
7.3685e-05
7.10534e-05
6.9795e-05
5.17273e-05
6.9093e-05
5.84238e-05
6.90797e-05
5.82298e-05
6.98072e-05
7.10723e-05
7.35427e-05
6.99862e-05
7.10689e-05
7.36345e-05
6.97936e-05
5.15038e-05
6.90615e-05
5.79051e-05
6.97814e-05
6.90747e-05
5.81041e-05
7.10489e-05
7.37554e-05
6.99884e-05
7.36677e-05
7.10522e-05
8.70518e-05
7.25213e-05
7.25268e-05
7.25207e-05
7.25262e-05
8.71366e-05
5.59061e-05
3.73866e-05
6.86529e-05
5.8383e-05
6.86846e-05
5.57992e-05
3.75208e-05
5.58387e-05
3.73676e-05
6.86431e-05
5.83779e-05
3.7502e-05
5.57324e-05
6.86739e-05
8.70142e-05
7.25432e-05
7.25488e-05
7.25438e-05
8.69242e-05
7.25494e-05
5.61174e-05
6.87269e-05
5.85134e-05
3.79303e-05
6.8696e-05
3.77975e-05
5.62161e-05
5.60502e-05
6.87161e-05
5.85081e-05
3.79113e-05
3.77783e-05
6.86862e-05
5.6148e-05
6.97097e-05
6.96911e-05
6.97958e-05
5.1734e-05
5.84283e-05
6.90932e-05
5.82359e-05
6.908e-05
6.98081e-05
7.1074e-05
7.3563e-05
6.99905e-05
7.36548e-05
7.10707e-05
6.97945e-05
5.15039e-05
5.7911e-05
6.90617e-05
5.81086e-05
6.97823e-05
6.9075e-05
7.10507e-05
7.37761e-05
6.99928e-05
7.36882e-05
7.1054e-05
6.97957e-05
5.17336e-05
5.84272e-05
6.90932e-05
5.82317e-05
6.908e-05
6.98079e-05
7.10741e-05
7.35522e-05
6.99886e-05
7.10708e-05
7.36351e-05
6.97944e-05
5.15035e-05
5.7907e-05
6.90617e-05
6.97823e-05
5.81079e-05
6.90749e-05
7.10508e-05
7.37539e-05
6.99908e-05
7.36786e-05
7.10539e-05
6.97091e-05
6.96906e-05
6.97117e-05
6.96931e-05
1.59859e-05
1.59862e-05
1.56008e-05
1.58595e-05
1.58597e-05
1.62838e-05
1.6416e-05
3.44321e-05
1.72673e-05
2.26386e-05
2.26445e-05
1.54947e-05
1.54949e-05
1.51933e-05
1.53777e-05
1.53779e-05
1.57734e-05
1.58983e-05
3.61894e-05
2.36613e-05
2.36693e-05
1.76317e-05
3.60461e-05
2.37647e-05
2.37656e-05
3.4432e-05
2.25582e-05
2.25635e-05
1.72601e-05
3.42821e-05
2.26261e-05
2.2629e-05
3.56099e-05
1.75133e-05
2.34609e-05
2.3458e-05
2.3387e-05
2.33953e-05
3.57549e-05
3.44261e-05
1.72592e-05
2.2629e-05
2.26418e-05
3.56182e-05
1.75117e-05
2.34774e-05
2.3457e-05
2.33799e-05
2.33897e-05
3.57472e-05
3.4433e-05
2.25615e-05
2.255e-05
1.72618e-05
2.26405e-05
3.42856e-05
2.26313e-05
3.56125e-05
1.75127e-05
2.34648e-05
2.34674e-05
2.33901e-05
2.33765e-05
3.57576e-05
3.56099e-05
1.75003e-05
2.34757e-05
2.34757e-05
3.57585e-05
2.33718e-05
2.33781e-05
3.61871e-05
2.36765e-05
2.36803e-05
1.7619e-05
3.60455e-05
2.37498e-05
2.37564e-05
3.61814e-05
2.36696e-05
2.36793e-05
1.76189e-05
2.37444e-05
3.60526e-05
2.37741e-05
3.61918e-05
2.36808e-05
2.36689e-05
1.76201e-05
2.37648e-05
3.60455e-05
2.37535e-05
1.59858e-05
1.5986e-05
1.56006e-05
1.58594e-05
1.58596e-05
1.62837e-05
1.6416e-05
1.59857e-05
1.59858e-05
1.56004e-05
1.58592e-05
1.58594e-05
1.62836e-05
1.64158e-05
1.59856e-05
1.59857e-05
1.56002e-05
1.58592e-05
1.58593e-05
1.62835e-05
1.64157e-05
1.54946e-05
1.56139e-05
1.56141e-05
1.57356e-05
1.57358e-05
1.61535e-05
1.60249e-05
1.54944e-05
1.56138e-05
1.5614e-05
1.57355e-05
1.57357e-05
1.61534e-05
1.60249e-05
1.54942e-05
1.56136e-05
1.56138e-05
1.57353e-05
1.57354e-05
1.61532e-05
1.60247e-05
1.5494e-05
1.56135e-05
1.56137e-05
1.57352e-05
1.57353e-05
1.61532e-05
1.60247e-05
1.82878e-05
2.58797e-05
3.01471e-05
1.70031e-05
3.00161e-05
1.69697e-05
1.83327e-05
2.07034e-05
3.69409e-05
4.28147e-05
2.53621e-05
2.52556e-05
3.68059e-05
2.0772e-05
1.82994e-05
2.58832e-05
1.69916e-05
3.01559e-05
1.69789e-05
3.00124e-05
1.8316e-05
2.05666e-05
2.49374e-05
3.63956e-05
4.25717e-05
2.05006e-05
2.5051e-05
3.6532e-05
1.81857e-05
2.56183e-05
1.68906e-05
2.95876e-05
1.81711e-05
1.69028e-05
2.97293e-05
2.07027e-05
3.69433e-05
4.28158e-05
2.53663e-05
2.52537e-05
3.68122e-05
2.07675e-05
3.47323e-05
1.73245e-05
2.29086e-05
2.29141e-05
2.28163e-05
2.28199e-05
3.488e-05
1.54946e-05
1.54948e-05
1.51931e-05
1.53776e-05
1.53778e-05
1.57733e-05
1.58982e-05
1.54944e-05
1.54946e-05
1.5193e-05
1.53774e-05
1.53775e-05
1.57731e-05
1.5898e-05
1.54943e-05
1.54945e-05
1.51928e-05
1.53773e-05
1.53774e-05
1.57731e-05
1.5898e-05
1.88807e-05
2.75201e-05
3.18649e-05
1.74463e-05
3.17224e-05
1.7396e-05
1.89437e-05
2.14289e-05
2.62282e-05
3.8021e-05
4.39944e-05
2.13531e-05
2.6337e-05
3.81638e-05
1.8773e-05
2.72402e-05
3.12973e-05
1.72759e-05
1.87221e-05
3.14298e-05
1.73193e-05
2.15819e-05
3.85648e-05
4.42207e-05
2.66762e-05
2.65596e-05
3.84148e-05
2.16703e-05
1.88966e-05
2.75213e-05
1.74258e-05
3.18632e-05
1.74085e-05
3.1724e-05
1.89158e-05
2.1423e-05
2.62236e-05
3.80299e-05
4.39981e-05
2.13551e-05
2.63431e-05
3.81567e-05
1.87584e-05
2.72441e-05
1.72867e-05
3.12947e-05
1.87364e-05
1.73057e-05
3.14354e-05
2.15904e-05
3.85525e-05
4.42203e-05
2.66763e-05
2.65584e-05
3.84242e-05
2.16304e-05
3.64766e-05
1.7711e-05
2.40579e-05
2.4059e-05
2.39615e-05
2.39687e-05
3.66147e-05
3.47298e-05
1.73342e-05
2.28999e-05
2.28957e-05
3.48781e-05
2.28289e-05
2.28352e-05
3.53207e-05
1.74254e-05
2.31058e-05
2.3111e-05
3.51713e-05
2.31744e-05
2.31788e-05
1.83017e-05
2.58893e-05
3.01517e-05
1.69944e-05
3.00189e-05
1.69781e-05
1.83191e-05
2.05692e-05
2.49383e-05
3.64023e-05
4.25711e-05
3.65371e-05
2.05034e-05
2.50515e-05
1.81887e-05
2.56158e-05
2.95938e-05
1.68907e-05
2.97259e-05
1.81733e-05
1.6905e-05
2.07052e-05
3.69489e-05
4.28152e-05
2.53669e-05
3.68117e-05
2.52552e-05
2.0771e-05
1.82903e-05
2.58893e-05
3.01498e-05
1.69945e-05
3.00185e-05
1.69776e-05
1.83352e-05
2.05723e-05
2.4956e-05
3.63952e-05
4.25772e-05
2.05023e-05
3.65319e-05
2.50439e-05
1.82028e-05
2.56151e-05
2.95936e-05
1.68903e-05
1.81611e-05
2.97233e-05
1.69052e-05
2.07038e-05
3.69408e-05
4.2818e-05
2.53615e-05
3.68075e-05
2.07729e-05
2.52702e-05
1.84601e-05
3.04453e-05
1.70714e-05
2.6417e-05
1.84403e-05
3.0578e-05
1.70905e-05
2.11305e-05
2.60127e-05
4.35301e-05
3.7756e-05
2.58979e-05
3.76245e-05
2.11997e-05
2.09834e-05
3.72218e-05
2.5573e-05
4.32957e-05
2.56808e-05
2.09131e-05
3.73545e-05
1.85849e-05
2.66985e-05
3.10069e-05
1.71962e-05
3.08725e-05
1.71746e-05
1.86068e-05
1.84762e-05
3.04451e-05
1.70711e-05
2.64177e-05
1.84304e-05
3.05746e-05
1.70905e-05
2.11282e-05
2.6008e-05
4.35339e-05
3.77551e-05
3.76181e-05
2.5914e-05
2.12044e-05
2.09872e-05
3.72193e-05
2.55906e-05
4.32987e-05
2.09125e-05
3.73533e-05
2.56795e-05
1.85734e-05
2.66975e-05
3.10041e-05
1.71957e-05
3.08721e-05
1.7174e-05
1.8621e-05
3.4736e-05
1.73372e-05
2.29138e-05
2.28982e-05
2.28298e-05
2.2823e-05
3.4871e-05
3.53118e-05
1.74227e-05
2.30992e-05
2.31062e-05
2.31889e-05
3.51779e-05
2.31744e-05
1.82895e-05
2.58877e-05
3.01564e-05
1.70013e-05
3.00118e-05
1.69714e-05
1.83342e-05
2.05694e-05
2.49541e-05
3.63963e-05
4.25744e-05
3.65366e-05
2.05036e-05
2.50416e-05
1.82025e-05
2.56155e-05
2.95877e-05
1.68846e-05
2.97296e-05
1.81608e-05
1.69117e-05
2.07058e-05
3.6944e-05
4.28197e-05
2.53606e-05
3.68121e-05
2.52689e-05
2.07707e-05
1.83001e-05
2.58886e-05
1.70003e-05
3.01483e-05
1.69712e-05
3.00168e-05
1.83171e-05
2.05681e-05
2.49494e-05
3.63898e-05
4.25749e-05
2.05017e-05
3.65316e-05
2.5052e-05
1.81867e-05
2.56144e-05
1.68843e-05
2.9592e-05
1.81716e-05
1.69108e-05
2.97226e-05
2.07036e-05
3.69453e-05
4.28181e-05
2.53664e-05
3.68048e-05
2.07698e-05
2.52622e-05
1.84755e-05
3.0439e-05
1.70656e-05
2.64175e-05
1.843e-05
3.05822e-05
1.70972e-05
2.11317e-05
2.60062e-05
4.35355e-05
3.77602e-05
2.59125e-05
3.7625e-05
2.12004e-05
2.09843e-05
3.72228e-05
2.55891e-05
4.32991e-05
2.56757e-05
2.09144e-05
3.73536e-05
1.85738e-05
2.66972e-05
3.10101e-05
1.72028e-05
3.08663e-05
1.71682e-05
1.86194e-05
1.84578e-05
1.70653e-05
3.04435e-05
2.64148e-05
1.84388e-05
1.70961e-05
3.05732e-05
2.11293e-05
2.60141e-05
4.35337e-05
3.77571e-05
3.7618e-05
2.59016e-05
2.11988e-05
2.0982e-05
3.72129e-05
2.55838e-05
4.32981e-05
2.09118e-05
3.73473e-05
2.56914e-05
1.85838e-05
2.66977e-05
1.72021e-05
3.10011e-05
1.71681e-05
3.08718e-05
1.86043e-05
1.82867e-05
2.5886e-05
1.70021e-05
3.01497e-05
1.69688e-05
3.00098e-05
1.83309e-05
2.07034e-05
3.69348e-05
4.28125e-05
2.53491e-05
2.52662e-05
3.68048e-05
2.07669e-05
1.84734e-05
3.04421e-05
1.70635e-05
2.6419e-05
1.84276e-05
3.05735e-05
1.70986e-05
2.11309e-05
2.60055e-05
4.3531e-05
3.77577e-05
2.12008e-05
2.58989e-05
3.76185e-05
2.09849e-05
3.72186e-05
2.55761e-05
4.32936e-05
2.09139e-05
2.56796e-05
3.7351e-05
1.8571e-05
2.66901e-05
3.10003e-05
1.72057e-05
1.8616e-05
3.0869e-05
1.71655e-05
1.84735e-05
1.7064e-05
3.04386e-05
2.64147e-05
1.8427e-05
1.7099e-05
3.0577e-05
2.11284e-05
2.59963e-05
4.35306e-05
3.77493e-05
3.76186e-05
2.59091e-05
2.12e-05
2.09857e-05
3.72162e-05
2.5583e-05
4.32931e-05
2.09139e-05
3.73447e-05
2.56726e-05
1.85698e-05
2.66956e-05
1.72056e-05
3.10046e-05
1.71657e-05
3.08652e-05
1.86182e-05
3.47318e-05
1.73361e-05
2.29037e-05
2.29099e-05
2.28195e-05
2.28331e-05
3.48777e-05
3.53201e-05
1.74225e-05
2.31091e-05
2.30963e-05
2.31804e-05
3.51737e-05
2.31846e-05
1.83009e-05
2.58894e-05
1.69919e-05
3.01484e-05
1.69787e-05
3.00171e-05
1.83178e-05
2.05556e-05
2.49441e-05
3.64037e-05
4.25732e-05
2.50545e-05
2.05155e-05
3.65202e-05
1.81874e-05
2.56142e-05
1.68907e-05
2.9593e-05
1.69032e-05
1.81725e-05
2.97233e-05
2.07159e-05
3.69288e-05
4.28203e-05
2.53755e-05
2.52626e-05
3.68158e-05
2.07571e-05
1.84568e-05
1.70721e-05
3.04393e-05
2.64217e-05
1.84385e-05
1.70873e-05
3.05802e-05
2.11275e-05
2.60132e-05
4.35297e-05
3.77516e-05
2.1198e-05
2.58947e-05
3.76254e-05
2.09817e-05
3.72214e-05
2.55727e-05
4.32966e-05
2.09113e-05
2.56822e-05
3.73506e-05
1.85831e-05
2.66924e-05
1.71904e-05
3.101e-05
1.86037e-05
1.71752e-05
3.08682e-05
1.84593e-05
1.70722e-05
3.04433e-05
2.64177e-05
1.84399e-05
1.70877e-05
3.05771e-05
2.11423e-05
2.60178e-05
4.35343e-05
3.77453e-05
3.76299e-05
2.59038e-05
2.11875e-05
2.09682e-05
3.72251e-05
2.55787e-05
4.32999e-05
2.0924e-05
3.73442e-05
2.56877e-05
1.85848e-05
2.66975e-05
1.71923e-05
3.10029e-05
1.71761e-05
3.08715e-05
1.86053e-05
3.5325e-05
1.7433e-05
2.30948e-05
2.30996e-05
3.51727e-05
2.31862e-05
2.31904e-05
3.64731e-05
1.77213e-05
2.40435e-05
2.40525e-05
3.66195e-05
2.39722e-05
2.39757e-05
1.88975e-05
2.75257e-05
3.18624e-05
1.74325e-05
3.17264e-05
1.74059e-05
1.89207e-05
2.14086e-05
2.62295e-05
3.80305e-05
4.39962e-05
3.81541e-05
2.13603e-05
2.63294e-05
1.87609e-05
2.72433e-05
3.12999e-05
1.72863e-05
3.14347e-05
1.87362e-05
1.7311e-05
2.15977e-05
3.85494e-05
4.42204e-05
2.66644e-05
3.84286e-05
2.65655e-05
2.16425e-05
1.88845e-05
2.75254e-05
3.18591e-05
1.74323e-05
3.17275e-05
1.7406e-05
1.89457e-05
2.14359e-05
2.62435e-05
3.80246e-05
4.39987e-05
2.13556e-05
3.81548e-05
2.63403e-05
1.87765e-05
2.72409e-05
3.12997e-05
1.72863e-05
1.87263e-05
3.14306e-05
1.73107e-05
2.15784e-05
3.85466e-05
4.42266e-05
2.66793e-05
3.84214e-05
2.16718e-05
2.6569e-05
3.64792e-05
1.77216e-05
2.40781e-05
2.40397e-05
2.39754e-05
2.39591e-05
3.66217e-05
1.88906e-05
2.75262e-05
3.18645e-05
1.74405e-05
3.17222e-05
1.73991e-05
1.89155e-05
2.14091e-05
2.62425e-05
3.80281e-05
4.39983e-05
3.81643e-05
2.13617e-05
2.63327e-05
1.87705e-05
2.72401e-05
3.12951e-05
1.72811e-05
3.14362e-05
1.87276e-05
1.73153e-05
2.15987e-05
3.85657e-05
4.42279e-05
2.66647e-05
3.84209e-05
2.65743e-05
2.16432e-05
1.88964e-05
2.75256e-05
1.74399e-05
3.18584e-05
1.73988e-05
3.17269e-05
1.89183e-05
2.14057e-05
2.62347e-05
3.80232e-05
4.3998e-05
2.13597e-05
3.81434e-05
2.63487e-05
1.87585e-05
2.72397e-05
1.72803e-05
3.12994e-05
1.8735e-05
1.73148e-05
3.14298e-05
2.15958e-05
3.85382e-05
4.42241e-05
2.66815e-05
3.84259e-05
2.16405e-05
2.6564e-05
1.88811e-05
2.75243e-05
1.74457e-05
3.18598e-05
1.73951e-05
3.17181e-05
1.89438e-05
2.1434e-05
2.62351e-05
3.80223e-05
4.39941e-05
2.63378e-05
2.13537e-05
3.8151e-05
1.87743e-05
2.7238e-05
1.7278e-05
3.12936e-05
1.73178e-05
1.87229e-05
3.14337e-05
2.15766e-05
3.85318e-05
4.42211e-05
2.6674e-05
2.65593e-05
3.84205e-05
2.16685e-05
3.64717e-05
1.77216e-05
2.40554e-05
2.40678e-05
2.39586e-05
2.3974e-05
3.66274e-05
1.8898e-05
2.75252e-05
1.74271e-05
3.18553e-05
1.74092e-05
3.17288e-05
1.89194e-05
2.14161e-05
2.62339e-05
3.80303e-05
4.39985e-05
2.63437e-05
2.13671e-05
3.81472e-05
1.87597e-05
2.7242e-05
1.72878e-05
3.12996e-05
1.73071e-05
1.87364e-05
3.14303e-05
2.15998e-05
3.8539e-05
4.42259e-05
2.66821e-05
2.65674e-05
3.84289e-05
2.16415e-05
3.60233e-05
3.60197e-05
3.60197e-05
3.60085e-05
3.39295e-05
3.38856e-05
3.38854e-05
3.39584e-05
3.21568e-05
3.20024e-05
3.20016e-05
3.19432e-05
3.05325e-05
3.02217e-05
3.02206e-05
2.99757e-05
2.90296e-05
2.85449e-05
2.85439e-05
2.81077e-05
2.7631e-05
2.69767e-05
2.6976e-05
2.6375e-05
2.63256e-05
2.55192e-05
2.55191e-05
2.47913e-05
2.51054e-05
2.41723e-05
2.41724e-05
2.33616e-05
2.39646e-05
2.29372e-05
2.29374e-05
2.20884e-05
2.28988e-05
2.18129e-05
2.18129e-05
2.097e-05
2.19046e-05
2.07968e-05
2.07967e-05
1.99962e-05
2.09785e-05
1.98859e-05
1.98856e-05
1.91635e-05
2.01157e-05
1.90781e-05
1.90777e-05
1.84694e-05
1.93149e-05
1.83701e-05
1.83698e-05
1.79095e-05
1.85752e-05
1.77589e-05
1.77586e-05
1.74786e-05
1.78939e-05
1.72427e-05
1.72425e-05
1.71667e-05
1.72686e-05
1.68208e-05
1.68207e-05
1.69827e-05
1.66974e-05
1.64923e-05
1.64923e-05
1.69397e-05
1.61788e-05
1.6257e-05
1.62571e-05
1.70324e-05
1.61152e-05
1.72531e-05
3.62977e-05
3.62919e-05
3.62919e-05
3.62977e-05
3.62919e-05
3.62919e-05
3.62908e-05
3.62908e-05
3.62908e-05
3.62908e-05
3.62919e-05
3.62919e-05
3.62977e-05
3.62919e-05
3.62919e-05
3.62977e-05
3.60086e-05
3.42654e-05
3.60197e-05