/*--------------------------------*- C++ -*----------------------------------*\
| =========                 |                                                 |
| \\      /  F ield         | OpenFOAM: The Open Source CFD Toolbox           |
|  \\    /   O peration     | Version:  2312                                  |
|   \\  /    A nd           | Website:  www.openfoam.com                      |
|    \\/     M anipulation  |                                                 |
\*---------------------------------------------------------------------------*/
FoamFile
{
    version     2.0;
    format      ascii;
    arch        "LSB;label=32;scalar=64";
    class       volScalarField;
    location    "200";
    object      k;
}
// * * * * * * * * * * * * * * * * * * * * * * * * * * * * * * * * * * * * * //

dimensions      [0 2 -2 0 0 0 0];

internalField   nonuniform List<scalar> 
43496
(
6.41175e-05
6.90833e-05
3.43521e-05
5.92912e-05
5.18966e-05
2.67272e-05
6.41271e-05
7.08759e-05
5.1914e-05
3.43577e-05
2.67425e-05
5.92864e-05
3.97655e-05
6.63091e-05
6.63074e-05
6.908e-05
7.08789e-05
6.97064e-05
6.41131e-05
6.76994e-05
6.93864e-05
6.77057e-05
6.93843e-05
6.97094e-05
6.98165e-05
7.70999e-05
7.70992e-05
6.98263e-05
6.90769e-05
6.97049e-05
6.41238e-05
6.93891e-05
6.7704e-05
6.93871e-05
6.7699e-05
6.97084e-05
6.98103e-05
7.70562e-05
7.08742e-05
7.70558e-05
6.98205e-05
9.18704e-05
7.16549e-05
7.16616e-05
7.16453e-05
7.16519e-05
9.18684e-05
6.9264e-05
7.0621e-05
6.63071e-05
5.81579e-05
7.06187e-05
5.81539e-05
6.92515e-05
6.9235e-05
7.06143e-05
6.6312e-05
5.81302e-05
5.81332e-05
7.06114e-05
6.92384e-05
6.90737e-05
7.08773e-05
1.38424e-05
1.92953e-05
1.38551e-05
5.92839e-05
5.11066e-05
5.11141e-05
4.39219e-05
5.18896e-05
5.43481e-05
4.18402e-05
5.43205e-05
4.18736e-05
4.38368e-05
4.64382e-05
5.74257e-05
5.74424e-05
4.64214e-05
4.38841e-05
5.19097e-05
4.18317e-05
5.43719e-05
4.18701e-05
5.43617e-05
4.3837e-05
4.63748e-05
5.73955e-05
5.9283e-05
5.10948e-05
5.73971e-05
4.63552e-05
5.11011e-05
5.82642e-05
3.98378e-05
4.89134e-05
4.89117e-05
4.89261e-05
4.89224e-05
5.82701e-05
1.92544e-05
3.43578e-05
3.43479e-05
3.98893e-05
1.92563e-05
3.43564e-05
3.43529e-05
3.99113e-05
3.98181e-05
3.97938e-05
3.43106e-05
3.43514e-05
3.43148e-05
3.43574e-05
3.98786e-05
3.98383e-05
3.43065e-05
3.43523e-05
3.43189e-05
3.43586e-05
3.43595e-05
3.43605e-05
3.43681e-05
3.98655e-05
3.9787e-05
3.43477e-05
3.43521e-05
3.43575e-05
3.98647e-05
3.98301e-05
3.43133e-05
3.43597e-05
3.98832e-05
3.43188e-05
3.43614e-05
3.43699e-05
3.98303e-05
3.43604e-05
6.4122e-05
7.08806e-05
7.08816e-05
6.41209e-05
6.90824e-05
6.90898e-05
6.41318e-05
7.0882e-05
7.0884e-05
6.41334e-05
1.92895e-05
1.9298e-05
1.92884e-05
1.92578e-05
1.92954e-05
1.92993e-05
1.92906e-05
5.18927e-05
5.92644e-05
2.67378e-05
3.43595e-05
5.92635e-05
2.67378e-05
5.18553e-05
6.90755e-05
6.90815e-05
5.18978e-05
2.6727e-05
5.92849e-05
3.43514e-05
2.67268e-05
5.92884e-05
5.18923e-05
6.6316e-05
6.63103e-05
3.98603e-05
6.63144e-05
6.6318e-05
7.08796e-05
6.41172e-05
6.90838e-05
7.08823e-05
6.41106e-05
1.92927e-05
1.92999e-05
1.92907e-05
5.18965e-05
5.92795e-05
2.67351e-05
5.19038e-05
2.67371e-05
6.90763e-05
5.19158e-05
2.67244e-05
5.92756e-05
5.19183e-05
2.67235e-05
6.63273e-05
6.63268e-05
3.98682e-05
6.63202e-05
6.63344e-05
6.9074e-05
6.90803e-05
6.90709e-05
6.90769e-05
6.62923e-05
6.63113e-05
3.97874e-05
6.62883e-05
6.63024e-05
6.90805e-05
6.90743e-05
6.90773e-05
6.90709e-05
3.98233e-05
6.62891e-05
6.63092e-05
6.62974e-05
6.63103e-05
6.41404e-05
7.08825e-05
7.08852e-05
6.41289e-05
5.19173e-05
5.9279e-05
2.67217e-05
3.43131e-05
5.92657e-05
2.67217e-05
5.19075e-05
5.18661e-05
5.92715e-05
2.67329e-05
3.43553e-05
5.92942e-05
2.67357e-05
5.19041e-05
6.41202e-05
7.0881e-05
7.08799e-05
6.41194e-05
6.41387e-05
7.08855e-05
7.08839e-05
6.41405e-05
5.19092e-05
3.4313e-05
5.92625e-05
2.67218e-05
5.92641e-05
2.67216e-05
5.1891e-05
5.18411e-05
3.43569e-05
5.92824e-05
2.67382e-05
5.92896e-05
2.67366e-05
5.18666e-05
6.63108e-05
6.63051e-05
3.9836e-05
6.63124e-05
6.63044e-05
6.90737e-05
6.90803e-05
6.90903e-05
6.90836e-05
3.98805e-05
6.63124e-05
6.62993e-05
6.63147e-05
6.63048e-05
6.90813e-05
6.90743e-05
5.18936e-05
5.92946e-05
2.67245e-05
3.43138e-05
5.93043e-05
2.67302e-05
5.18942e-05
6.41081e-05
7.08729e-05
7.08747e-05
6.41115e-05
5.18973e-05
2.67395e-05
5.9267e-05
3.43565e-05
2.67431e-05
5.92646e-05
5.18949e-05
6.41275e-05
7.08841e-05
7.08827e-05
6.41175e-05
5.18859e-05
3.43132e-05
5.93078e-05
2.6729e-05
5.93042e-05
2.67292e-05
5.18552e-05
6.41176e-05
7.08753e-05
7.08734e-05
6.4129e-05
5.18948e-05
3.43574e-05
2.67429e-05
5.92765e-05
2.67427e-05
5.92755e-05
5.19131e-05
6.41351e-05
7.08681e-05
7.08692e-05
6.41282e-05
5.18745e-05
2.67313e-05
5.9291e-05
3.4364e-05
2.67343e-05
5.92949e-05
5.1849e-05
6.4099e-05
7.08747e-05
7.08773e-05
6.41059e-05
5.18881e-05
3.43598e-05
5.9262e-05
2.67366e-05
5.92704e-05
2.67376e-05
5.18868e-05
6.41238e-05
7.08695e-05
7.08677e-05
6.4123e-05
5.18582e-05
3.43665e-05
2.67311e-05
5.93009e-05
2.67319e-05
5.92969e-05
5.19033e-05
6.40955e-05
7.08793e-05
7.08764e-05
6.41049e-05
6.629e-05
6.63112e-05
3.97771e-05
6.62862e-05
6.63104e-05
6.90725e-05
6.90787e-05
6.90821e-05
6.90756e-05
3.9815e-05
6.62914e-05
6.63022e-05
6.62939e-05
6.63109e-05
6.9079e-05
6.90727e-05
5.18503e-05
2.6719e-05
5.92771e-05
3.43543e-05
2.67199e-05
5.92746e-05
5.18452e-05
6.41217e-05
7.08756e-05
7.08776e-05
6.41243e-05
6.40996e-05
7.08685e-05
7.08722e-05
6.40895e-05
5.18967e-05
3.43515e-05
2.67244e-05
5.92863e-05
2.67268e-05
5.92881e-05
5.19157e-05
5.18807e-05
3.43543e-05
2.67202e-05
5.92988e-05
2.67197e-05
5.92903e-05
5.1906e-05
6.41205e-05
7.08785e-05
7.08765e-05
6.41245e-05
6.40997e-05
7.08757e-05
7.08716e-05
6.41014e-05
6.90786e-05
6.9086e-05
6.90756e-05
6.90829e-05
3.9897e-05
6.63185e-05
6.63266e-05
6.63237e-05
6.63225e-05
6.90868e-05
6.90802e-05
6.90843e-05
6.90771e-05
6.90743e-05
6.90712e-05
6.62939e-05
6.6311e-05
7.0884e-05
6.4134e-05
5.92623e-05
2.67192e-05
5.18682e-05
5.92734e-05
2.67375e-05
5.18632e-05
6.63122e-05
6.63076e-05
6.90756e-05
5.93081e-05
2.67293e-05
5.18727e-05
7.08739e-05
6.41276e-05
2.67424e-05
5.92737e-05
5.19055e-05
6.4127e-05
7.08684e-05
6.41194e-05
5.19277e-05
2.67298e-05
5.92985e-05
3.4367e-05
5.19105e-05
2.67267e-05
5.9305e-05
6.41437e-05
7.08782e-05
6.41114e-05
7.08805e-05
6.63008e-05
6.631e-05
6.90731e-05
5.19206e-05
2.67215e-05
5.92929e-05
3.43623e-05
5.19106e-05
2.67213e-05
5.93047e-05
6.41324e-05
7.0877e-05
6.41228e-05
6.41179e-05
7.0875e-05
6.40966e-05
7.08788e-05
6.90808e-05
6.90865e-05
6.90784e-05
6.90855e-05
6.97254e-05
6.94058e-05
6.77446e-05
6.41226e-05
6.94034e-05
6.77397e-05
6.9729e-05
6.98407e-05
7.0882e-05
7.71019e-05
7.71034e-05
6.98305e-05
6.98304e-05
7.71035e-05
7.08804e-05
7.71022e-05
6.98405e-05
6.97282e-05
6.41167e-05
6.9403e-05
6.77309e-05
6.94054e-05
6.7739e-05
6.97244e-05
6.90892e-05
6.90831e-05
6.97098e-05
6.7731e-05
6.93909e-05
6.41311e-05
6.77294e-05
6.93894e-05
6.97126e-05
6.98288e-05
7.08836e-05
7.70987e-05
7.70991e-05
6.98189e-05
6.98184e-05
7.7105e-05
7.08822e-05
7.70962e-05
6.98286e-05
6.97134e-05
6.41343e-05
6.77305e-05
6.93911e-05
6.7733e-05
6.93925e-05
6.97106e-05
6.90816e-05
6.90754e-05
9.1871e-05
7.16608e-05
7.1653e-05
7.16508e-05
7.16431e-05
9.18697e-05
6.9238e-05
5.81348e-05
6.63162e-05
7.0612e-05
5.81625e-05
7.06151e-05
6.9233e-05
6.92943e-05
5.81558e-05
6.63089e-05
7.06195e-05
5.81519e-05
7.06225e-05
6.92827e-05
6.92407e-05
7.06166e-05
6.63172e-05
5.81638e-05
5.81596e-05
7.06136e-05
6.92426e-05
6.92981e-05
7.0624e-05
6.63175e-05
5.81612e-05
5.81416e-05
7.06211e-05
6.92963e-05
9.18678e-05
7.16501e-05
7.16424e-05
7.166e-05
7.16522e-05
9.18691e-05
6.984e-05
7.71037e-05
7.08812e-05
6.98299e-05
7.71053e-05
6.97292e-05
6.41065e-05
6.94042e-05
6.77455e-05
6.97261e-05
6.94065e-05
6.77475e-05
6.90903e-05
6.9827e-05
7.71041e-05
7.08835e-05
6.98172e-05
7.71052e-05
6.97098e-05
6.4114e-05
6.77132e-05
6.93851e-05
6.9707e-05
6.7714e-05
6.93869e-05
6.90827e-05
9.18779e-05
7.16621e-05
7.16552e-05
7.16526e-05
7.16456e-05
9.18715e-05
6.92325e-05
5.81875e-05
7.0617e-05
6.63282e-05
6.92493e-05
5.81761e-05
7.06192e-05
6.92944e-05
5.81474e-05
7.06249e-05
6.63244e-05
6.92926e-05
5.81623e-05
7.06274e-05
9.18754e-05
7.16525e-05
7.16453e-05
9.18773e-05
7.16622e-05
7.1655e-05
6.92356e-05
7.06189e-05
6.63297e-05
5.81986e-05
5.81906e-05
7.06168e-05
6.92378e-05
6.92943e-05
7.06284e-05
6.63302e-05
5.81797e-05
5.81575e-05
7.06256e-05
6.92883e-05
6.90802e-05
6.90741e-05
6.90769e-05
6.90707e-05
9.18714e-05
7.1646e-05
7.16364e-05
7.16361e-05
7.16267e-05
9.18698e-05
6.9211e-05
5.81271e-05
6.62914e-05
7.05951e-05
7.05975e-05
5.81189e-05
6.92135e-05
6.92717e-05
5.81288e-05
6.63027e-05
7.06028e-05
7.06053e-05
5.81397e-05
6.9271e-05
6.92072e-05
7.05981e-05
6.62924e-05
5.80954e-05
7.05954e-05
6.92171e-05
5.81086e-05
6.9273e-05
7.06057e-05
6.63049e-05
5.81355e-05
7.06031e-05
6.92705e-05
5.81233e-05
9.18691e-05
7.1636e-05
7.16265e-05
7.16458e-05
7.16362e-05
9.18711e-05
6.90744e-05
6.90806e-05
6.9071e-05
6.90771e-05
9.18709e-05
7.16363e-05
7.16269e-05
9.18725e-05
7.16462e-05
7.16367e-05
6.92155e-05
5.81188e-05
6.62982e-05
7.05998e-05
7.0597e-05
5.81249e-05
6.9224e-05
6.92693e-05
5.81411e-05
6.63097e-05
7.06075e-05
7.06046e-05
5.81204e-05
6.92656e-05
6.92038e-05
7.05962e-05
5.81159e-05
6.62996e-05
6.92146e-05
7.05989e-05
5.81242e-05
6.9267e-05
7.06037e-05
5.81211e-05
6.631e-05
6.92604e-05
7.06065e-05
5.81299e-05
9.18741e-05
7.16465e-05
7.16371e-05
7.16366e-05
7.16273e-05
9.1873e-05
6.9725e-05
6.94071e-05
6.77502e-05
6.41373e-05
6.94048e-05
6.77468e-05
6.97283e-05
6.9836e-05
7.08845e-05
7.70888e-05
7.70904e-05
6.98257e-05
6.98262e-05
7.7091e-05
7.08834e-05
7.70893e-05
6.98365e-05
6.97281e-05
6.41401e-05
6.94041e-05
6.77449e-05
6.94068e-05
6.77488e-05
6.97247e-05
6.97294e-05
6.94037e-05
6.77433e-05
6.41213e-05
6.9726e-05
6.9406e-05
6.77472e-05
6.98301e-05
7.08795e-05
7.71047e-05
6.98402e-05
7.71031e-05
6.98404e-05
7.71025e-05
7.08812e-05
6.98302e-05
7.71041e-05
6.97262e-05
6.41187e-05
6.94063e-05
6.77485e-05
6.97294e-05
6.94039e-05
6.7745e-05
6.97284e-05
6.94049e-05
6.77478e-05
6.41413e-05
6.97252e-05
6.9407e-05
6.77508e-05
6.98272e-05
7.08841e-05
7.70925e-05
7.70907e-05
6.98376e-05
6.98371e-05
7.709e-05
7.08855e-05
6.98267e-05
7.70919e-05
6.97253e-05
6.41392e-05
6.94066e-05
6.77509e-05
6.94046e-05
6.77481e-05
6.97285e-05
9.18579e-05
7.16523e-05
7.16586e-05
7.16427e-05
7.16488e-05
9.1853e-05
6.92774e-05
5.8147e-05
6.63097e-05
7.06198e-05
7.06224e-05
5.81435e-05
6.92875e-05
6.92267e-05
5.81522e-05
6.63036e-05
7.06072e-05
5.81555e-05
7.06097e-05
6.9225e-05
6.92737e-05
7.06226e-05
6.63139e-05
5.814e-05
7.06203e-05
5.81458e-05
6.92622e-05
6.92146e-05
7.06096e-05
6.6305e-05
5.8142e-05
5.81506e-05
7.06073e-05
6.92119e-05
9.1857e-05
7.16423e-05
7.16483e-05
7.16522e-05
7.16584e-05
9.18609e-05
6.908e-05
6.9074e-05
6.90838e-05
6.90902e-05
9.18515e-05
7.16427e-05
7.16488e-05
9.18542e-05
7.16524e-05
7.16585e-05
6.92759e-05
5.81393e-05
6.63159e-05
7.06237e-05
5.8137e-05
7.06211e-05
6.92772e-05
6.92217e-05
5.81664e-05
6.63028e-05
7.06105e-05
7.06079e-05
5.81621e-05
6.92228e-05
6.92725e-05
7.06205e-05
5.8121e-05
6.63147e-05
5.81355e-05
6.92709e-05
7.06231e-05
6.92178e-05
7.06074e-05
5.81412e-05
6.63029e-05
6.92183e-05
7.06099e-05
5.81577e-05
9.18543e-05
7.16527e-05
7.16588e-05
7.16429e-05
7.16488e-05
9.18526e-05
6.90748e-05
6.90807e-05
6.97062e-05
6.93917e-05
6.76926e-05
6.41067e-05
6.93899e-05
6.76988e-05
6.97086e-05
6.98201e-05
7.08746e-05
7.70575e-05
7.70587e-05
6.98102e-05
6.981e-05
7.706e-05
7.08733e-05
7.7058e-05
6.98201e-05
6.97101e-05
6.41127e-05
6.93911e-05
6.77079e-05
6.93927e-05
6.77076e-05
6.97076e-05
6.97116e-05
6.77263e-05
6.93879e-05
6.41275e-05
6.97089e-05
6.77273e-05
6.93894e-05
6.98179e-05
7.08827e-05
7.71098e-05
6.98278e-05
7.71084e-05
6.98283e-05
7.71061e-05
7.08843e-05
6.98183e-05
7.71092e-05
6.97079e-05
6.41197e-05
6.77212e-05
6.9388e-05
6.97106e-05
6.77214e-05
6.93864e-05
6.9708e-05
6.93891e-05
6.76926e-05
6.41245e-05
6.9705e-05
6.93911e-05
6.7697e-05
6.98102e-05
7.08738e-05
7.70614e-05
7.70597e-05
6.98204e-05
6.98202e-05
7.70548e-05
7.08751e-05
6.981e-05
7.70614e-05
6.97046e-05
6.41256e-05
6.93905e-05
6.76965e-05
6.93885e-05
6.76939e-05
6.97077e-05
6.96942e-05
6.77168e-05
6.93771e-05
6.41324e-05
6.77113e-05
6.93745e-05
6.96977e-05
6.98137e-05
7.08695e-05
7.70751e-05
7.70756e-05
6.9803e-05
6.98027e-05
7.70752e-05
7.08678e-05
7.70749e-05
6.98135e-05
6.96977e-05
6.41322e-05
6.77181e-05
6.93738e-05
6.77213e-05
6.93765e-05
6.96939e-05
6.96937e-05
6.93734e-05
6.77031e-05
6.40944e-05
6.93707e-05
6.77052e-05
6.96975e-05
6.98192e-05
7.08764e-05
7.70762e-05
7.70747e-05
6.98089e-05
6.98092e-05
7.7075e-05
7.08753e-05
7.70726e-05
6.98197e-05
6.96962e-05
6.41065e-05
6.93702e-05
6.77041e-05
6.93727e-05
6.77025e-05
6.96925e-05
6.96977e-05
6.77132e-05
6.93749e-05
6.41292e-05
6.96942e-05
6.7715e-05
6.93773e-05
6.98024e-05
7.08679e-05
7.70705e-05
7.70685e-05
6.98134e-05
6.98133e-05
7.70707e-05
7.08693e-05
6.98025e-05
7.70726e-05
6.96943e-05
6.4123e-05
6.77148e-05
6.93775e-05
6.77126e-05
6.93751e-05
6.96979e-05
6.96988e-05
6.93718e-05
6.77063e-05
6.40941e-05
6.96949e-05
6.93746e-05
6.77088e-05
6.98111e-05
7.08774e-05
7.70882e-05
7.70831e-05
6.98217e-05
6.98207e-05
7.70791e-05
7.08784e-05
6.981e-05
7.70817e-05
6.96963e-05
6.41026e-05
6.93762e-05
6.77205e-05
6.93731e-05
6.77103e-05
6.97002e-05
9.18613e-05
7.16534e-05
7.16602e-05
7.16437e-05
7.16502e-05
9.18602e-05
6.92665e-05
5.81265e-05
6.62903e-05
7.0615e-05
7.06177e-05
5.81342e-05
6.92547e-05
6.92146e-05
5.81353e-05
6.63107e-05
7.06073e-05
5.81372e-05
7.06097e-05
6.92186e-05
6.92689e-05
7.06185e-05
6.62904e-05
5.81214e-05
7.06159e-05
5.81358e-05
6.92629e-05
6.92188e-05
7.06101e-05
6.63111e-05
5.81413e-05
5.81402e-05
7.06076e-05
6.92177e-05
9.18579e-05
7.16433e-05
7.16497e-05
7.16529e-05
7.16597e-05
9.18593e-05
6.90787e-05
6.90726e-05
6.90758e-05
6.90817e-05
9.18633e-05
7.16442e-05
7.16508e-05
9.18641e-05
7.16539e-05
7.16608e-05
6.92734e-05
5.8147e-05
6.62937e-05
7.06203e-05
5.81421e-05
7.06178e-05
6.92657e-05
6.92242e-05
5.81383e-05
6.63084e-05
7.06118e-05
7.06091e-05
5.81177e-05
6.9223e-05
6.92809e-05
7.06169e-05
5.81406e-05
6.62889e-05
5.81274e-05
6.92785e-05
7.06197e-05
6.92242e-05
7.06082e-05
5.81224e-05
6.63103e-05
6.92225e-05
7.06109e-05
5.81268e-05
9.18669e-05
7.16544e-05
7.16613e-05
7.16447e-05
7.16514e-05
9.18656e-05
6.90728e-05
6.90789e-05
6.96958e-05
6.77627e-05
6.93686e-05
6.41204e-05
6.77593e-05
6.93663e-05
6.96989e-05
6.98217e-05
7.08771e-05
7.71179e-05
7.71197e-05
6.98114e-05
6.98118e-05
7.71215e-05
7.08757e-05
7.71193e-05
6.98221e-05
6.96991e-05
6.41242e-05
6.7758e-05
6.93668e-05
6.77614e-05
6.93689e-05
6.96959e-05
6.96868e-05
6.76861e-05
6.9366e-05
6.40963e-05
6.76842e-05
6.93633e-05
6.96906e-05
6.98115e-05
7.08707e-05
7.70497e-05
7.70536e-05
6.98006e-05
6.98022e-05
7.70598e-05
7.087e-05
7.7057e-05
6.98133e-05
6.96897e-05
6.40959e-05
6.76829e-05
6.9363e-05
6.76859e-05
6.93656e-05
6.96861e-05
6.96988e-05
6.77607e-05
6.93663e-05
6.41145e-05
6.96956e-05
6.77638e-05
6.93688e-05
6.98122e-05
7.08768e-05
7.7123e-05
7.71217e-05
6.98224e-05
6.98223e-05
7.7121e-05
7.08781e-05
6.98121e-05
7.71229e-05
6.96954e-05
6.41199e-05
6.77626e-05
6.93695e-05
6.77606e-05
6.93667e-05
6.96984e-05
6.9692e-05
6.7682e-05
6.93638e-05
6.41011e-05
6.96878e-05
6.76844e-05
6.93666e-05
6.9806e-05
7.08734e-05
7.70764e-05
7.70688e-05
6.98173e-05
6.98152e-05
7.70619e-05
7.08739e-05
6.9804e-05
7.70672e-05
6.96895e-05
6.4099e-05
6.76969e-05
6.93675e-05
6.76892e-05
6.93646e-05
6.96939e-05
6.90852e-05
6.90795e-05
6.90821e-05
6.90764e-05
9.18719e-05
7.16515e-05
7.16439e-05
9.18731e-05
7.16614e-05
7.16539e-05
6.92504e-05
5.81837e-05
6.63235e-05
7.0619e-05
6.9255e-05
5.81744e-05
7.06163e-05
6.93059e-05
5.81627e-05
6.63263e-05
7.06268e-05
6.93015e-05
5.81727e-05
7.06239e-05
6.9238e-05
7.0615e-05
5.81533e-05
6.63244e-05
6.92426e-05
5.81732e-05
7.0618e-05
6.92908e-05
7.06225e-05
5.81544e-05
6.63247e-05
6.92955e-05
5.81807e-05
7.06254e-05
9.18756e-05
7.16619e-05
7.16545e-05
9.18745e-05
7.16521e-05
7.16447e-05
6.90806e-05
6.90866e-05
6.90778e-05
6.90836e-05
6.90807e-05
6.90774e-05
6.92236e-05
5.81426e-05
7.0598e-05
6.62978e-05
6.92288e-05
7.0601e-05
5.81351e-05
6.92838e-05
5.81419e-05
7.06058e-05
6.63101e-05
6.92814e-05
7.06088e-05
5.81314e-05
9.18754e-05
7.1637e-05
7.16278e-05
9.18765e-05
7.16469e-05
7.16377e-05
6.98379e-05
7.70913e-05
7.08856e-05
6.98276e-05
7.7093e-05
6.97285e-05
6.41347e-05
6.9404e-05
6.77481e-05
6.94059e-05
6.97253e-05
6.77509e-05
6.92783e-05
5.81392e-05
7.06216e-05
6.63091e-05
7.06241e-05
6.92793e-05
5.8123e-05
6.92266e-05
5.81685e-05
7.06087e-05
6.63071e-05
5.81572e-05
6.92266e-05
7.06116e-05
9.18549e-05
7.16434e-05
7.16493e-05
7.16534e-05
9.18561e-05
7.16594e-05
6.98202e-05
7.70578e-05
7.08755e-05
6.98102e-05
7.70554e-05
6.97078e-05
6.413e-05
6.93879e-05
6.76903e-05
6.93898e-05
6.97045e-05
6.76922e-05
6.9695e-05
6.4124e-05
6.93787e-05
6.77072e-05
6.9376e-05
6.98137e-05
7.70688e-05
7.08702e-05
7.70682e-05
6.98026e-05
6.96983e-05
6.41254e-05
6.77103e-05
6.93753e-05
6.77118e-05
6.96946e-05
6.9378e-05
6.9803e-05
6.96988e-05
6.41357e-05
6.93795e-05
6.77446e-05
6.93765e-05
6.77399e-05
6.97023e-05
6.98225e-05
7.70931e-05
7.08801e-05
6.9812e-05
7.70969e-05
6.97015e-05
6.41225e-05
6.93748e-05
6.77308e-05
6.96977e-05
6.93779e-05
6.77392e-05
6.98124e-05
7.7099e-05
7.08789e-05
7.7097e-05
6.98226e-05
6.9268e-05
5.81418e-05
7.06182e-05
6.6302e-05
7.06207e-05
6.92577e-05
5.81499e-05
6.92315e-05
5.81243e-05
7.06101e-05
6.63116e-05
5.81354e-05
6.92193e-05
7.06131e-05
9.18674e-05
7.16451e-05
7.16518e-05
7.16547e-05
9.18688e-05
7.16615e-05
6.90795e-05
6.96944e-05
6.4119e-05
6.7758e-05
6.93718e-05
6.77561e-05
6.93687e-05
6.96975e-05
6.98223e-05
7.71214e-05
7.08786e-05
7.71222e-05
6.98122e-05
6.96979e-05
6.41267e-05
6.77587e-05
6.93676e-05
6.77602e-05
6.96949e-05
6.93705e-05
6.98121e-05
7.71217e-05
7.71206e-05
6.98221e-05
6.96937e-05
6.41152e-05
6.77249e-05
6.93699e-05
6.77114e-05
6.9367e-05
6.96981e-05
6.98193e-05
7.70778e-05
7.08773e-05
6.98081e-05
7.70863e-05
6.9696e-05
6.41131e-05
6.76957e-05
6.93656e-05
6.96916e-05
6.77094e-05
6.93688e-05
6.98099e-05
7.7094e-05
7.08765e-05
7.70883e-05
6.98209e-05
6.90869e-05
6.90807e-05
6.90848e-05
6.9079e-05
1.38407e-05
1.38414e-05
1.92553e-05
1.38414e-05
1.38432e-05
1.01979e-05
1.01978e-05
5.82638e-05
4.89374e-05
4.89431e-05
3.98563e-05
4.89277e-05
4.89332e-05
5.82728e-05
1.38415e-05
1.3843e-05
1.01978e-05
1.01984e-05
5.83096e-05
4.89629e-05
4.89647e-05
3.98684e-05
5.83013e-05
4.89524e-05
4.8954e-05
5.82083e-05
4.88781e-05
4.88796e-05
3.97848e-05
4.88683e-05
4.88697e-05
5.82236e-05
5.82602e-05
3.98267e-05
4.88831e-05
4.88872e-05
4.88921e-05
4.88959e-05
5.82661e-05
5.82961e-05
4.89274e-05
4.89266e-05
3.98347e-05
4.89112e-05
4.89115e-05
5.82948e-05
5.82584e-05
3.98822e-05
4.89102e-05
4.89145e-05
4.89237e-05
4.89247e-05
5.82717e-05
5.82638e-05
4.89059e-05
4.891e-05
3.98291e-05
4.88996e-05
4.88959e-05
5.8266e-05
5.82759e-05
3.98215e-05
4.89057e-05
4.89085e-05
4.89154e-05
4.89187e-05
5.82627e-05
5.83162e-05
3.99019e-05
4.89477e-05
4.89511e-05
5.82944e-05
4.89574e-05
4.89612e-05
5.82657e-05
4.88999e-05
4.8903e-05
3.97996e-05
5.82721e-05
4.88932e-05
4.88962e-05
5.82541e-05
4.89237e-05
4.89286e-05
3.98452e-05
4.89203e-05
5.82714e-05
4.89099e-05
5.82782e-05
4.89184e-05
4.89226e-05
3.9796e-05
4.89124e-05
5.82876e-05
4.89086e-05
1.38499e-05
1.38529e-05
1.92935e-05
1.38513e-05
1.38528e-05
1.02009e-05
1.02008e-05
1.38567e-05
1.38504e-05
1.92985e-05
1.38581e-05
1.385e-05
1.02021e-05
1.02021e-05
1.3853e-05
1.38465e-05
1.929e-05
1.38531e-05
1.38462e-05
1.02014e-05
1.02015e-05
1.92559e-05
1.38417e-05
1.38432e-05
1.38415e-05
1.38432e-05
1.01983e-05
1.01984e-05
1.92935e-05
1.38517e-05
1.38527e-05
1.38515e-05
1.38528e-05
1.02013e-05
1.02014e-05
1.92986e-05
1.38581e-05
1.38496e-05
1.38582e-05
1.38497e-05
1.02021e-05
1.02021e-05
1.92904e-05
1.38528e-05
1.38458e-05
1.3853e-05
1.38459e-05
1.02013e-05
1.02012e-05
4.39046e-05
5.43444e-05
4.18357e-05
5.1879e-05
5.43343e-05
4.18787e-05
4.38771e-05
4.63573e-05
5.1102e-05
5.92718e-05
5.73905e-05
5.10944e-05
5.73953e-05
4.63766e-05
4.63837e-05
5.73831e-05
5.92611e-05
5.10949e-05
5.11026e-05
5.73914e-05
4.63641e-05
4.38733e-05
5.18522e-05
5.43286e-05
4.18726e-05
5.43187e-05
4.18465e-05
4.39064e-05
4.39059e-05
4.18494e-05
5.43385e-05
5.18939e-05
4.18816e-05
5.43379e-05
4.38782e-05
4.63699e-05
5.1106e-05
5.92794e-05
5.74277e-05
5.10981e-05
5.74164e-05
4.63889e-05
4.6398e-05
5.74417e-05
5.92694e-05
5.10998e-05
5.11067e-05
5.74323e-05
4.63795e-05
4.38672e-05
5.18959e-05
4.18754e-05
5.43443e-05
4.18472e-05
5.43477e-05
4.39078e-05
5.82918e-05
3.98929e-05
4.89354e-05
4.89392e-05
4.89437e-05
4.89485e-05
5.82816e-05
1.38532e-05
1.38522e-05
1.38519e-05
1.02011e-05
1.02015e-05
1.38565e-05
1.38489e-05
1.3848e-05
1.02009e-05
1.02022e-05
1.38518e-05
1.38452e-05
1.92891e-05
1.38509e-05
1.38446e-05
1.02005e-05
1.02011e-05
4.39188e-05
5.19054e-05
5.4347e-05
4.18184e-05
5.43458e-05
4.18838e-05
4.38799e-05
4.63859e-05
5.11091e-05
5.73925e-05
5.9278e-05
4.64073e-05
5.11019e-05
5.73785e-05
4.38479e-05
5.1911e-05
5.43473e-05
4.18797e-05
4.39219e-05
5.43538e-05
4.18585e-05
4.3912e-05
5.19147e-05
4.18587e-05
5.4347e-05
4.18803e-05
5.43362e-05
4.38781e-05
4.63586e-05
5.11134e-05
5.74311e-05
5.92844e-05
4.63849e-05
5.11061e-05
5.74164e-05
4.38831e-05
5.19238e-05
4.1878e-05
5.43596e-05
4.39167e-05
4.18578e-05
5.43617e-05
4.63435e-05
5.74243e-05
5.74262e-05
4.63197e-05
5.82932e-05
3.99148e-05
4.89578e-05
4.89553e-05
4.89669e-05
4.89686e-05
5.83006e-05
5.82342e-05
3.98209e-05
4.88704e-05
4.88744e-05
5.82361e-05
4.88801e-05
4.88833e-05
5.82282e-05
3.97901e-05
4.8885e-05
4.88889e-05
5.82386e-05
4.88759e-05
4.88801e-05
4.38167e-05
5.43318e-05
4.18361e-05
5.19096e-05
5.43296e-05
4.18653e-05
4.37889e-05
4.63192e-05
5.10971e-05
5.92723e-05
5.73993e-05
5.74019e-05
5.10876e-05
4.63422e-05
4.6347e-05
5.73854e-05
5.92693e-05
5.10854e-05
5.73968e-05
5.10945e-05
4.63264e-05
4.3778e-05
5.18927e-05
5.43377e-05
4.18665e-05
5.43412e-05
4.18356e-05
4.38049e-05
4.38853e-05
5.43542e-05
4.18383e-05
5.18857e-05
5.4349e-05
4.1865e-05
4.38603e-05
4.63336e-05
5.11107e-05
5.92901e-05
5.74145e-05
5.74149e-05
5.1102e-05
4.63538e-05
4.63627e-05
5.74052e-05
5.92907e-05
5.1101e-05
5.74188e-05
4.63444e-05
5.11096e-05
4.38199e-05
5.19027e-05
5.43372e-05
4.18651e-05
5.4348e-05
4.1843e-05
4.38703e-05
4.37989e-05
5.43273e-05
4.18532e-05
5.19137e-05
4.38244e-05
5.43327e-05
4.18223e-05
4.63648e-05
5.10872e-05
5.9252e-05
5.74088e-05
5.10941e-05
5.74078e-05
4.63465e-05
4.6336e-05
5.74005e-05
5.10933e-05
5.92633e-05
5.10857e-05
4.63547e-05
5.74022e-05
4.3841e-05
5.19052e-05
5.43446e-05
4.18299e-05
5.43127e-05
4.18531e-05
4.38149e-05
4.38704e-05
5.43513e-05
4.18696e-05
5.18705e-05
4.39002e-05
5.43552e-05
4.18364e-05
4.63867e-05
5.10999e-05
5.9287e-05
5.74227e-05
5.74207e-05
5.11082e-05
4.63671e-05
4.63568e-05
5.74181e-05
5.11085e-05
5.92895e-05
4.63755e-05
5.74172e-05
5.11003e-05
4.39228e-05
5.18504e-05
5.43534e-05
4.18353e-05
5.4351e-05
4.18684e-05
4.38563e-05
5.82734e-05
3.98802e-05
4.89115e-05
4.89133e-05
4.89284e-05
4.89262e-05
5.82671e-05
5.82728e-05
3.98362e-05
4.89236e-05
4.89255e-05
4.89078e-05
5.82769e-05
4.89116e-05
4.392e-05
5.43469e-05
4.18406e-05
5.18906e-05
5.43484e-05
4.18664e-05
4.38797e-05
4.63666e-05
5.11068e-05
5.9298e-05
5.7413e-05
5.7423e-05
5.11001e-05
4.63849e-05
4.63982e-05
5.74193e-05
5.92969e-05
5.1103e-05
5.74215e-05
5.11093e-05
4.63798e-05
4.38631e-05
5.18983e-05
5.43599e-05
4.1867e-05
5.43615e-05
4.18451e-05
4.3922e-05
4.38101e-05
4.18364e-05
5.43306e-05
5.18751e-05
4.18584e-05
5.43269e-05
4.37831e-05
4.632e-05
5.10884e-05
5.928e-05
5.73929e-05
5.73872e-05
5.10819e-05
4.63378e-05
4.6349e-05
5.74159e-05
5.92771e-05
5.10837e-05
5.74053e-05
4.63103e-05
5.1091e-05
4.37691e-05
5.18942e-05
4.18579e-05
5.43329e-05
4.1836e-05
5.43375e-05
4.38025e-05
4.38618e-05
5.43361e-05
4.18642e-05
5.18966e-05
4.39239e-05
5.43441e-05
4.18302e-05
4.64229e-05
5.111e-05
5.93059e-05
5.74503e-05
5.11161e-05
5.74501e-05
4.64034e-05
4.63929e-05
5.74417e-05
5.11125e-05
5.93091e-05
5.11064e-05
4.6412e-05
5.74515e-05
4.39192e-05
5.18811e-05
5.43223e-05
4.18329e-05
5.43381e-05
4.18647e-05
4.38775e-05
4.38048e-05
4.18581e-05
5.43268e-05
5.19077e-05
4.3832e-05
4.18363e-05
5.43306e-05
4.63628e-05
5.10893e-05
5.92764e-05
5.74139e-05
5.74125e-05
5.10959e-05
4.63456e-05
4.63386e-05
5.74136e-05
5.10933e-05
5.92788e-05
4.63565e-05
5.74182e-05
5.10868e-05
4.38525e-05
5.19048e-05
4.18369e-05
5.43237e-05
4.1859e-05
5.43212e-05
4.38268e-05
4.39081e-05
4.18318e-05
5.4333e-05
5.18417e-05
4.1862e-05
5.43177e-05
4.38615e-05
4.64122e-05
5.11212e-05
5.92809e-05
5.74235e-05
5.11154e-05
5.74262e-05
4.64275e-05
4.6397e-05
5.74333e-05
5.92852e-05
5.11194e-05
5.11256e-05
5.74254e-05
4.63727e-05
4.38742e-05
5.18586e-05
4.18592e-05
5.43284e-05
4.18321e-05
5.43369e-05
4.39088e-05
4.38731e-05
5.43369e-05
4.18777e-05
5.18939e-05
4.39102e-05
5.43392e-05
4.18476e-05
4.64011e-05
5.10997e-05
5.92671e-05
5.73966e-05
4.63812e-05
5.11065e-05
5.7396e-05
4.63736e-05
5.74006e-05
5.1104e-05
5.9271e-05
4.63931e-05
5.10972e-05
5.74099e-05
4.3918e-05
5.18706e-05
5.43433e-05
4.18559e-05
4.38531e-05
5.43322e-05
4.18785e-05
4.3828e-05
4.18604e-05
5.43269e-05
5.18777e-05
4.39061e-05
4.18329e-05
5.43273e-05
4.6404e-05
5.11259e-05
5.93001e-05
5.74287e-05
5.74308e-05
5.11323e-05
4.63855e-05
4.63807e-05
5.74316e-05
5.1129e-05
5.92994e-05
4.6398e-05
5.74339e-05
5.11228e-05
4.38155e-05
5.18676e-05
4.18326e-05
5.4365e-05
4.18628e-05
5.43514e-05
4.37788e-05
5.82579e-05
3.98293e-05
4.88991e-05
4.89019e-05
4.89125e-05
4.89097e-05
5.82807e-05
5.82754e-05
3.97791e-05
4.89135e-05
4.8916e-05
4.89042e-05
5.8265e-05
4.89049e-05
4.39044e-05
4.18245e-05
5.43183e-05
5.1855e-05
4.18561e-05
5.43065e-05
4.38289e-05
4.63882e-05
5.11135e-05
5.92752e-05
5.73773e-05
5.11074e-05
5.74035e-05
4.64113e-05
4.6414e-05
5.74158e-05
5.92774e-05
5.11125e-05
5.11181e-05
5.74097e-05
4.63985e-05
4.3858e-05
5.18598e-05
4.18485e-05
5.43127e-05
4.18235e-05
5.4325e-05
4.3889e-05
4.38779e-05
4.18729e-05
5.43624e-05
5.18813e-05
4.39099e-05
4.18509e-05
5.43746e-05
4.64167e-05
5.11051e-05
5.92801e-05
5.74339e-05
4.64011e-05
5.11113e-05
5.74259e-05
4.6389e-05
5.74434e-05
5.11088e-05
5.92795e-05
4.64085e-05
5.1102e-05
5.74457e-05
4.3924e-05
5.18997e-05
4.18546e-05
5.43695e-05
4.38644e-05
4.18754e-05
5.43529e-05
4.38606e-05
4.18592e-05
5.43107e-05
5.18713e-05
4.3899e-05
4.18284e-05
5.43038e-05
4.64367e-05
5.11227e-05
5.92983e-05
5.74347e-05
5.74249e-05
5.11291e-05
4.64084e-05
4.6403e-05
5.74179e-05
5.11237e-05
5.92847e-05
4.64229e-05
5.7407e-05
5.11182e-05
4.39083e-05
5.18948e-05
4.18369e-05
5.43408e-05
4.18647e-05
5.43247e-05
4.38786e-05
5.82915e-05
3.98654e-05
4.89488e-05
4.89545e-05
5.83046e-05
4.89399e-05
4.89451e-05
4.63559e-05
5.10966e-05
5.74142e-05
5.92568e-05
5.74133e-05
4.63753e-05
5.109e-05
4.38278e-05
5.18941e-05
5.43428e-05
4.18536e-05
5.43516e-05
4.38523e-05
4.18308e-05
4.63734e-05
5.11082e-05
5.74168e-05
5.92829e-05
4.63952e-05
5.74033e-05
5.11006e-05
4.38655e-05
5.18603e-05
5.43508e-05
4.18729e-05
4.39127e-05
5.4354e-05
4.18478e-05
4.64112e-05
5.11195e-05
5.74441e-05
5.93098e-05
5.74475e-05
4.64312e-05
5.11132e-05
4.38929e-05
5.18852e-05
5.43392e-05
4.18711e-05
5.43351e-05
4.39234e-05
4.18402e-05
4.63467e-05
5.10979e-05
5.73969e-05
5.92802e-05
4.63708e-05
5.73948e-05
5.10915e-05
4.38404e-05
5.19098e-05
4.18659e-05
5.43485e-05
4.38678e-05
4.18365e-05
5.43435e-05
4.38287e-05
5.1922e-05
4.18361e-05
5.43682e-05
4.18693e-05
5.43671e-05
4.38108e-05
4.6393e-05
5.11349e-05
5.7419e-05
5.93052e-05
5.11282e-05
4.64086e-05
5.74342e-05
4.37814e-05
5.192e-05
4.18671e-05
5.43676e-05
4.18401e-05
4.38146e-05
5.43725e-05
4.63767e-05
5.74377e-05
5.93082e-05
5.11286e-05
5.11365e-05
5.74313e-05
4.6352e-05
4.38844e-05
5.1917e-05
4.18448e-05
5.43519e-05
4.18736e-05
5.43474e-05
4.38594e-05
4.64184e-05
5.11317e-05
5.74369e-05
5.92944e-05
5.11252e-05
4.64388e-05
5.744e-05
4.38888e-05
5.19164e-05
4.18721e-05
5.43462e-05
4.18452e-05
4.39224e-05
5.43551e-05
4.6399e-05
5.74278e-05
5.9287e-05
5.11269e-05
5.11338e-05
5.74202e-05
4.63752e-05
3.30886e-05
3.87012e-05
3.30813e-05
7.06584e-05
5.86923e-05
6.89237e-05
6.59439e-05
6.59379e-05
6.8922e-05
5.86782e-05
7.06559e-05
6.96841e-05
7.0653e-05
7.68034e-05
7.6793e-05
6.96979e-05
6.89144e-05
6.87836e-05
5.74818e-05
6.59453e-05
7.03956e-05
5.74847e-05
7.03908e-05
6.87801e-05
6.86902e-05
5.74288e-05
6.59319e-05
7.03865e-05
7.03801e-05
5.74065e-05
6.86985e-05
9.15399e-05
7.15107e-05
7.15171e-05
7.14979e-05
7.15043e-05
9.1545e-05
6.89119e-05
6.96724e-05
7.06467e-05
7.68129e-05
7.6807e-05
6.96867e-05
5.74885e-05
3.87213e-05
4.78807e-05
4.78814e-05
4.78745e-05
4.7873e-05
5.75193e-05
4.5323e-05
5.01548e-05
5.86953e-05
5.66834e-05
5.66791e-05
5.01422e-05
4.53288e-05
4.53093e-05
5.0126e-05
5.866e-05
5.66876e-05
5.01041e-05
5.66658e-05
4.53147e-05
1.84111e-05
3.31634e-05
3.32076e-05
3.87902e-05
1.85901e-05
3.34455e-05
3.34724e-05
3.90524e-05
1.87402e-05
3.36868e-05
3.36917e-05
3.9254e-05
1.88576e-05
3.3862e-05
3.38627e-05
3.94106e-05
1.89503e-05
3.39852e-05
3.39864e-05
3.95216e-05
1.90187e-05
3.40696e-05
3.40738e-05
3.94858e-05
1.90658e-05
3.41254e-05
3.41418e-05
3.95252e-05
1.9096e-05
3.4168e-05
3.41843e-05
3.95688e-05
1.91157e-05
3.41892e-05
3.4201e-05
3.95969e-05
1.91286e-05
3.41932e-05
3.42026e-05
3.96647e-05
1.91431e-05
3.41919e-05
3.42048e-05
3.97032e-05
1.91618e-05
3.41996e-05
3.42166e-05
3.96489e-05
1.91838e-05
3.42176e-05
3.4232e-05
3.97011e-05
1.92038e-05
3.42353e-05
3.42468e-05
3.97387e-05
1.92185e-05
3.42409e-05
3.42664e-05
3.97666e-05
1.92249e-05
3.42462e-05
3.42764e-05
3.97882e-05
1.9229e-05
3.42593e-05
3.42841e-05
3.97986e-05
1.92306e-05
3.42715e-05
3.42936e-05
3.98062e-05
1.92327e-05
3.42836e-05
3.43038e-05
3.97585e-05
1.92348e-05
3.42979e-05
3.43111e-05
3.97804e-05
1.92387e-05
3.43113e-05
3.43201e-05
3.98087e-05
1.92432e-05
3.43191e-05
3.43286e-05
3.98301e-05
1.92469e-05
3.43277e-05
3.43375e-05
3.9851e-05
1.92494e-05
3.43386e-05
3.43411e-05
3.98645e-05
1.92519e-05