/*--------------------------------*- C++ -*----------------------------------*\
| =========                 |                                                 |
| \\      /  F ield         | OpenFOAM: The Open Source CFD Toolbox           |
|  \\    /   O peration     | Version:  2312                                  |
|   \\  /    A nd           | Website:  www.openfoam.com                      |
|    \\/     M anipulation  |                                                 |
\*---------------------------------------------------------------------------*/
FoamFile
{
    version     2.0;
    format      ascii;
    arch        "LSB;label=32;scalar=64";
    class       volScalarField;
    location    "200";
    object      p;
}
// * * * * * * * * * * * * * * * * * * * * * * * * * * * * * * * * * * * * * //

dimensions      [0 2 -2 0 0 0 0];

internalField   nonuniform List<scalar> 
43496
(
0.000723719
0.0007237
0.000725827
0.00072376
0.000723826
0.000725832
0.000723717
0.000723705
0.000723824
0.00072583
0.000725835
0.00072376
0.000724264
0.000723705
0.000723704
0.000723699
0.000723703
0.000727978
0.000727961
0.000723716
0.000723699
0.000727964
0.000727975
0.0007237
0.000727978
0.000723698
0.000727977
0.000723699
0.000727969
0.000727975
0.000727961
0.000723698
0.000723711
0.000727975
0.000727962
0.000723694
0.000727975
0.000723694
0.000727965
0.000727976
0.000723695
0.000727984
0.000723694
0.000723693
0.00072798
0.000727979
0.000723691
0.000727944
0.000723708
0.000727968
0.000723771
0.000727966
0.000727911
0.000723737
0.000727943
0.000723707
0.000727968
0.000723773
0.000727912
0.000727965
0.000723736
0.000727969
0.000727965
0.000725837
0.00072584
0.000725838
0.000727915
0.000723906
0.000727769
0.000727642
0.000727866
0.000723825
0.000724028
0.000727871
0.000727647
0.000724033
0.000727672
0.000723798
0.000727883
0.000723999
0.00072764
0.000727863
0.00072403
0.000723815
0.000727646
0.000727867
0.000724031
0.000727672
0.000723793
0.000727916
0.000723903
0.000727882
0.000723996
0.000727769
0.000727821
0.000727411
0.000724025
0.000724026
0.000727665
0.000727664
0.000723866
0.000769776
0.00076975
0.000769753
0.000771328
0.000734635
0.000734613
0.000734611
0.000736192
0.00077133
0.000741828
0.000769754
0.000769751
0.000743401
0.000743398
0.000771324
0.000741825
0.000769758
0.000769755
0.000743401
0.000743398
0.000769751
0.000743397
0.000743398
0.000771331
0.000741824
0.000769752
0.000743397
0.000743399
0.000741828
0.000736188
0.000734617
0.000734613
0.000736185
0.000734616
0.000734614
0.000734615
0.000736185
0.000734615
0.000758852
0.000771892
0.000758843
0.000771881
0.000771895
0.000758837
0.000758856
0.000771893
0.000758844
0.000771887
0.000769772
0.000769773
0.00076977
0.000743418
0.000743413
0.000743417
0.000743411
0.000758951
0.000771833
0.000769754
0.000760966
0.000758892
0.00076097
0.000771779
0.000771895
0.000758837
0.000758951
0.000769756
0.000771833
0.000760968
0.000760973
0.000758894
0.000771776
0.000771886
0.000771886
0.000759395
0.00075884
0.000758837
0.000736745
0.000736739
0.000736752
0.00073675
0.000736743
0.000734626
0.000734628
0.000734622
0.000723831
0.000736695
0.000734618
0.000736641
0.000725833
0.000736755
0.000723822
0.000734615
0.0007367
0.000736641
0.000725832
0.000736755
0.000736755
0.000724262
0.000723708
0.000723705
0.000771898
0.000758837
0.000771898
0.000758838
0.000771896
0.000771896
0.0007594
0.000758842
0.000758843
0.000741268
0.000754322
0.00074127
0.000754324
0.000753758
0.00074127
0.000741274
0.000754319
0.000754321
0.000758852
0.000771888
0.000758842
0.000771882
0.000758953
0.000771838
0.000769757
0.000760971
0.000758895
0.000760974
0.00077178
0.000758952
0.000771836
0.000769758
0.000760967
0.000758895
0.000760975
0.00077178
0.000754307
0.000741273
0.000754317
0.000741284
0.000754305
0.000741274
0.000754317
0.000741282
0.000754202
0.000752186
0.000741325
0.000743406
0.000754262
0.000752191
0.000741389
0.000754202
0.000752184
0.000741326
0.000743404
0.000754261
0.00075219
0.000741388
0.000771892
0.000771889
0.000759393
0.000758841
0.000758837
0.000771892
0.000758834
0.000741269
0.000754321
0.000753753
0.000741272
0.000741272
0.000754317
0.000754315
0.000741268
0.000754319
0.000758957
0.000771839
0.00076976
0.000760973
0.000758899
0.000760975
0.000771783
0.000758855
0.00077189
0.000758844
0.000771887
0.000758957
0.000769758
0.000771837
0.000760971
0.000760975
0.000758898
0.000771782
0.00075431
0.000741276
0.000754319
0.000741287
0.000754207
0.000752188
0.000741329
0.000743405
0.000754265
0.00075219
0.000741389
0.000754309
0.000741277
0.000754318
0.000741287
0.000754207
0.000752184
0.000743406
0.00074133
0.000752191
0.000754265
0.00074139
0.000758852
0.000771887
0.00075884
0.000771876
0.000758953
0.000769754
0.000771832
0.000760967
0.00076097
0.000758896
0.000771777
0.00075885
0.000771886
0.000758841
0.000771879
0.000754201
0.000752182
0.000741328
0.000743401
0.00075426
0.000752185
0.000741394
0.000754308
0.000741274
0.000754314
0.000741284
0.000754205
0.000752183
0.000743398
0.00074133
0.000752184
0.000754264
0.000741394
0.000754307
0.000741277
0.000754317
0.000741284
0.000771891
0.000771889
0.000759399
0.000758842
0.000758841
0.000771891
0.000758837
0.000741271
0.000754323
0.000753757
0.000741276
0.000741276
0.00075432
0.00075432
0.000741272
0.000754323
0.00075895
0.000769756
0.000771832
0.000760968
0.000760973
0.000758893
0.000771776
0.000758847
0.000771885
0.000758841
0.000771877
0.000758846
0.000771882
0.000758839
0.000771876
0.000754201
0.000752182
0.000743401
0.000741332
0.000752188
0.000754262
0.000741393
0.0007542
0.000752184
0.000743403
0.000741329
0.00075219
0.000754261
0.000741393
0.000754303
0.000741279
0.000754317
0.000741288
0.0007543
0.000741276
0.000754314
0.000741287
0.00077189
0.000758835
0.000771888
0.000758834
0.000753757
0.000741276
0.000741277
0.000754318
0.000754316
0.000741272
0.000754322
0.000741272
0.000754319
0.00073675
0.000736753
0.000736748
0.000736751
0.000736745
0.000736736
0.000736693
0.000734623
0.000736636
0.000736692
0.000734619
0.000736635
0.000736748
0.000736751
0.000736754
0.000736696
0.000734619
0.000736637
0.00073675
0.000736743
0.00073462
0.000736698
0.000736637
0.00072372
0.000736748
0.00073674
0.000723827
0.000734617
0.000736699
0.000725832
0.000736639
0.000725835
0.000723763
0.00072372
0.000736752
0.000736742
0.000723709
0.000736753
0.000736755
0.000736757
0.000723825
0.000734616
0.000736699
0.000725831
0.00073664
0.000725832
0.000723764
0.000723717
0.000736753
0.000736744
0.000723718
0.00073675
0.000736743
0.000723708
0.000736757
0.000723704
0.000736756
0.000723701
0.000763115
0.000758838
0.00075885
0.000763095
0.000763113
0.000763101
0.000758836
0.000767624
0.000767633
0.0007719
0.000767623
0.000771902
0.000763115
0.000758833
0.000763104
0.000763114
0.000758835
0.000767622
0.000767638
0.000771899
0.000771885
0.000767623
0.000767638
0.000771901
0.000767625
0.000763107
0.000763118
0.000758854
0.000758841
0.0007631
0.000763104
0.000763117
0.00075884
0.000767624
0.000767633
0.000771903
0.000767623
0.000771904
0.000763115
0.000758836
0.000763103
0.000763114
0.000758838
0.000767626
0.000767644
0.000771888
0.000771905
0.000767641
0.000767628
0.000771904
0.000767625
0.000763108
0.000763115
0.000758827
0.000758827
0.000763112
0.000763112
0.000758824
0.00076765
0.000771825
0.000767624
0.000771883
0.000767684
0.000767626
0.000771857
0.00076765
0.000771825
0.000767621
0.000771882
0.000767684
0.000767624
0.000771859
0.000763073
0.000758842
0.000763103
0.000758901
0.000763039
0.000763098
0.000758867
0.000763071
0.00075884
0.0007631
0.000758901
0.000763038
0.000763098
0.000758865
0.000767607
0.000771896
0.000771896
0.000767611
0.000767611
0.000771899
0.000732479
0.000736757
0.000732484
0.000736758
0.000732478
0.000732479
0.000732499
0.000736757
0.000736742
0.000736758
0.000732482
0.000732493
0.00073248
0.000732484
0.000736762
0.000732489
0.000736763
0.000732483
0.000732484
0.000732501
0.000736745
0.00073676
0.000736762
0.000732499
0.000732485
0.000732485
0.000727983
0.000723695
0.000723694
0.000727981
0.000727979
0.000723691
0.000732518
0.00073669
0.000736752
0.000732492
0.000736726
0.000732551
0.000732496
0.000732518
0.00073669
0.000736753
0.000732491
0.000736727
0.000732551
0.000732494
0.000732478
0.000736767
0.000736767
0.000736771
0.000732481
0.00073248
0.000727941
0.000723709
0.000727971
0.000723772
0.000727907
0.000727967
0.000723738
0.000727941
0.000723707
0.000727968
0.00072377
0.00072791
0.000727965
0.000723736
0.000767628
0.000763107
0.000767628
0.000763109
0.000763119
0.00075883
0.000758831
0.000763116
0.000763117
0.000758828
0.000767658
0.000771827
0.000767633
0.000771893
0.000767633
0.000767688
0.000771865
0.000767657
0.00077183
0.000767631
0.000771891
0.000767633
0.000767689
0.000771864
0.000763077
0.000758844
0.000763106
0.000758904
0.000763101
0.000758869
0.000763044
0.000763077
0.000758845
0.000763107
0.000758905
0.000763103
0.00075887
0.000763044
0.000767615
0.000771906
0.000771905
0.000767618
0.000767618
0.000771909
0.000745536
0.000750052
0.000745537
0.000750055
0.000750042
0.00075433
0.000754331
0.000754334
0.000750045
0.000750045
0.000745507
0.000741335
0.000745534
0.000741272
0.00074553
0.000745475
0.000741299
0.000745508
0.000741336
0.000745536
0.000741274
0.000745531
0.000745477
0.000741302
0.000750085
0.000754316
0.000754255
0.000750057
0.000754289
0.000750059
0.000750119
0.000750086
0.000754317
0.000754255
0.000750058
0.000754291
0.00075006
0.000750121
0.000745548
0.000741258
0.000741259
0.000745544
0.000745544
0.000741256
0.000763113
0.000758837
0.000758847
0.000763097
0.000763113
0.000763096
0.000758834
0.000767621
0.000767629
0.000771901
0.00076762
0.000771902
0.000763113
0.000758833
0.000763101
0.000763111
0.000758835
0.00076762
0.00076764
0.000771899
0.000771884
0.000767624
0.000767632
0.0007719
0.000750048
0.000754326
0.00075431
0.000750066
0.000754326
0.000750052
0.00075006
0.000745542
0.000745531
0.000741265
0.000741266
0.000745541
0.000750048
0.000754326
0.000750057
0.000754326
0.000750047
0.000745542
0.000745527
0.000741268
0.000741279
0.000741265
0.000745542
0.000745525
0.000750049
0.000754325
0.00075431
0.000750065
0.000754327
0.000750051
0.000750063
0.000745543
0.000745532
0.000741265
0.000745542
0.000741267
0.000750049
0.000754327
0.000750058
0.000754327
0.000750048
0.000745544
0.000745526
0.000741268
0.000741281
0.000745542
0.00074553
0.000741267
0.000763119
0.000758829
0.000758828
0.000763116
0.000763115
0.000758825
0.000767655
0.000771825
0.000767629
0.000771889
0.000767632
0.000767684
0.000771863
0.000767654
0.000771825
0.000767627
0.000771886
0.000767683
0.00076763
0.000771861
0.000763075
0.000758843
0.000763104
0.000758901
0.000763102
0.000763039
0.000758867
0.000763074
0.00075884
0.000763103
0.000758901
0.000763038
0.0007631
0.000758865
0.000767613
0.000771902
0.000771901
0.000767617
0.000767616
0.000771905
0.000767623
0.000763105
0.000745537
0.000750052
0.00075004
0.000754328
0.000754327
0.000754331
0.000750043
0.000750042
0.000745506
0.000741332
0.000745535
0.000741273
0.000745474
0.00074553
0.000741298
0.000745506
0.000741334
0.000745534
0.000741273
0.000745529
0.000745475
0.000741298
0.000750085
0.000754314
0.000754252
0.000750056
0.000750117
0.000754288
0.000750058
0.000750084
0.000754312
0.000754251
0.000750055
0.000754287
0.000750057
0.000750118
0.000745547
0.000741259
0.000741259
0.000745543
0.000745543
0.000741256
0.000745535
0.00075005
0.000763118
0.000758839
0.00075885
0.000763097
0.000763114
0.000763101
0.000758838
0.000767623
0.000767631
0.000771901
0.00076762
0.000771904
0.000763115
0.000758835
0.000763104
0.000763113
0.000758836
0.000767627
0.000767643
0.000771905
0.00077189
0.000767627
0.00076764
0.000771906
0.000750054
0.000754315
0.00075433
0.000750067
0.000754332
0.000750065
0.000750056
0.000745547
0.000745535
0.000741269
0.00074127
0.000745546
0.000750052
0.000754329
0.000750061
0.00075433
0.000750052
0.000745548
0.000745528
0.000741282
0.000741271
0.00074127
0.000745531
0.000745546
0.000750051
0.000754328
0.000754313
0.000750067
0.000754329
0.000750053
0.000750063
0.000745546
0.000745536
0.000741267
0.000745546
0.000741268
0.000750051
0.000754328
0.000750061
0.000754328
0.00075005
0.000745545
0.000745527
0.00074127
0.000741281
0.000745544
0.000745527
0.000741268
0.000763112
0.000758849
0.000758836
0.000763092
0.000763094
0.000763111
0.000758835
0.000767619
0.000767628
0.000771897
0.00076762
0.000771898
0.000763112
0.000758831
0.0007631
0.000763109
0.000758833
0.000767618
0.000767636
0.000771879
0.000771895
0.000767631
0.000767621
0.000771896
0.000763112
0.000758835
0.000758848
0.000763092
0.000763111
0.000763097
0.000758834
0.000767618
0.000767629
0.000771896
0.000767618
0.000771898
0.000763112
0.000758833
0.0007631
0.000763111
0.000758834
0.000767618
0.000767637
0.000771897
0.000771883
0.000767621
0.000767632
0.000771898
0.00075005
0.000754311
0.000754327
0.000750066
0.000754328
0.000750065
0.000750053
0.000745545
0.000745531
0.000741267
0.000745544
0.000741268
0.000750049
0.000754324
0.000750057
0.000754326
0.000750049
0.000745544
0.000745526
0.000741279
0.000741268
0.000745527
0.000745543
0.000741267
0.000750048
0.000754325
0.00075431
0.000750066
0.000754326
0.000750051
0.000750065
0.000745544
0.000745535
0.000741266
0.000745544
0.000741267
0.000750049
0.000754326
0.00075006
0.000754326
0.00075005
0.000745543
0.000745524
0.000741266
0.000741282
0.00074554
0.00074553
0.000741267
0.000763116
0.000758829
0.000758829
0.000763114
0.000763113
0.000758826
0.000767654
0.00077183
0.000767628
0.000771887
0.000767629
0.000767687
0.000771863
0.000767653
0.000771826
0.000767625
0.000771887
0.000767686
0.000767628
0.000771862
0.000763074
0.000758843
0.000763106
0.000758905
0.0007631
0.000763044
0.000758869
0.000763073
0.000758843
0.000763102
0.000758903
0.000763041
0.000763099
0.000758869
0.000767611
0.000771901
0.0007719
0.000767615
0.000767614
0.000771904
0.000767621
0.000763104
0.00074554
0.000750056
0.000750045
0.000754331
0.000754331
0.000754335
0.000750048
0.000750047
0.00074551
0.000741335
0.000745539
0.000741278
0.000745476
0.000745536
0.000741301
0.000745509
0.000741337
0.000745537
0.000741275
0.000745533
0.000745477
0.000741301
0.000750088
0.000754317
0.000754257
0.000750059
0.000750119
0.000754293
0.000750063
0.000750088
0.000754317
0.000754255
0.000750058
0.000754293
0.000750061
0.000750119
0.000745552
0.000741262
0.000741261
0.000745549
0.000745547
0.000741259
0.00074554
0.000750055
0.000763108
0.000758844
0.000758832
0.000763089
0.000763091
0.000763108
0.000758831
0.000767616
0.000767624
0.000771895
0.000767614
0.000771895
0.000763109
0.000758831
0.000763098
0.000763107
0.000758832
0.000767615
0.000767634
0.000771881
0.000771895
0.000767628
0.000767619
0.000771895
0.00076311
0.000758847
0.000758832
0.000763088
0.000763094
0.000763107
0.000758832
0.000767615
0.000767623
0.000771892
0.000767614
0.000771893
0.000763109
0.00075883
0.000763097
0.000763109
0.000758831
0.000767616
0.000767635
0.000771877
0.000771893
0.00076763
0.000767618
0.000771895
0.00075005
0.000754309
0.000754323
0.000750064
0.000754325
0.000750063
0.00075005
0.000745547
0.000745536
0.000741272
0.000745548
0.000741272
0.000750051
0.000754327
0.00075006
0.000754327
0.000750051
0.000745546
0.000745526
0.000741287
0.00074127
0.000745532
0.000745542
0.000741271
0.000750044
0.000754306
0.000754322
0.000750064
0.000754322
0.000750059
0.000750049
0.00074554
0.000745533
0.000741265
0.000745541
0.000741265
0.000750044
0.000754322
0.000750056
0.000754322
0.000750045
0.000745541
0.000745525
0.00074128
0.000741267
0.000745525
0.00074554
0.000741265
0.000767622
0.000763104
0.000767618
0.000763103
0.000750042
0.000754329
0.000754328
0.000754332
0.000750046
0.000750045
0.000745511
0.000741338
0.000745538
0.000741279
0.000741305
0.000745478
0.000745534
0.000745512
0.000741336
0.000745539
0.00074128
0.000741306
0.000745476
0.000745535
0.000750087
0.000754315
0.000754255
0.000750059
0.00075429
0.00075012
0.00075006
0.000750086
0.000754314
0.000754256
0.000750056
0.00075429
0.000750119
0.00075006
0.000745553
0.000741265
0.000741265
0.000741263
0.000745548
0.000745548
0.00074554
0.000750055
0.000745539
0.000750052
0.00073248
0.000732482
0.000732517
0.000736686
0.000736745
0.000732485
0.000736722
0.000732486
0.000732552
0.000732517
0.000736688
0.000736747
0.000732486
0.000736724
0.000732488
0.000732553
0.00073247
0.000736759
0.00073676
0.000736763
0.000732472
0.000732473
0.000732478
0.000736757
0.000732486
0.000736758
0.000732477
0.000732479
0.000732498
0.000736757
0.000736742
0.000732482
0.000736758
0.000732495
0.000732514
0.000736684
0.000736745
0.000732485
0.000732487
0.00073672
0.000732549
0.000732517
0.000736685
0.000736746
0.000732489
0.00073255
0.000736721
0.000732489
0.000732471
0.000736759
0.00073676
0.000732473
0.000736763
0.000732474
0.000732483
0.000736762
0.000732491
0.000736762
0.000732483
0.000732481
0.000732501
0.00073676
0.000736743
0.000732486
0.000736759
0.000732497
0.000727977
0.00072796
0.000723702
0.000727963
0.000727975
0.000732482
0.000736758
0.000732489
0.000732481
0.00073676
0.000732483
0.000732503
0.000736741
0.000736758
0.000732498
0.00073676
0.000732485
0.000727975
0.00072798
0.000727963
0.000723702
0.000723717
0.000727976
0.000727967
0.000723702
0.000732486
0.000736761
0.000732494
0.000736762
0.000732487
0.000732485
0.000732503
0.000736757
0.000736746
0.000736761
0.000732485
0.000732501
0.00072798
0.0007237
0.000727969
0.00072798
0.000723701
0.00073252
0.000736688
0.00073675
0.000732489
0.000732494
0.000736724
0.000732553
0.000732521
0.000736689
0.00073675
0.000732492
0.000732553
0.000736725
0.000732494
0.000732477
0.000736764
0.000736764
0.000732479
0.000736767
0.000732479
0.000732487
0.000727977
0.000727961
0.00072371
0.000723697
0.000727963
0.000727974
0.000723696
0.000732485
0.000736765
0.000732494
0.000732484
0.000736765
0.000732485
0.000732505
0.00073675
0.000736762
0.000732499
0.000736764
0.000732486
0.000727978
0.000723696
0.000727977
0.000723697
0.000727976
0.000727962
0.000723715
0.000723698
0.000727966
0.000727975
0.000723697
0.000732482
0.00073676
0.000732493
0.000736759
0.000732484
0.000732482
0.000732506
0.000736744
0.00073676
0.000736759
0.000732501
0.000732487
0.000727977
0.000723701
0.000727967
0.000727979
0.0007237
0.000732489
0.000727974
0.000732487
0.00072797
0.000769767
0.000769766
0.00076099
0.000760984
0.000760983
0.000760977
0.000769759
0.000767776
0.000771581
0.00077158
0.000768175
0.000767934
0.000767934
0.000771737
0.000734624
0.000734623
0.000725834
0.000734619
0.000732642
0.000736444
0.000736445
0.000733039
0.000736601
0.0007328
0.000732799
0.000767782
0.00077158
0.000771584
0.000768179
0.000767936
0.000767938
0.00077174
0.000745387
0.000744981
0.000741587
0.000741585
0.000745232
0.000745234
0.000741426
0.000767775
0.000771575
0.000771577
0.000768172
0.00076793
0.00076793
0.000771736
0.000745385
0.000744977
0.000741582
0.000741584
0.000745229
0.00074523
0.000741423
0.00076778
0.000771583
0.000771581
0.00076818
0.000767937
0.000767939
0.000771739
0.000745385
0.000744975
0.000741584
0.000741584
0.000745228
0.000745229
0.000741426
0.000745387
0.000744976
0.000741586
0.000741583
0.000741427
0.00074523
0.000745228
0.000732648
0.000736439
0.000736441
0.000733047
0.000736599
0.000732805
0.000732808
0.000732645
0.000736439
0.000736439
0.000733044
0.000732803
0.000736598
0.000732804
0.000732646
0.00073644
0.000736439
0.000733042
0.000732801
0.000736601
0.000732803
0.000769765
0.000769763
0.000760987
0.000760981
0.000760981
0.000760976
0.000769758
0.000769765
0.000769764
0.000760989
0.000760982
0.000760982
0.000760976
0.000769758
0.000769762
0.000769762
0.000760985
0.000760979
0.00076098
0.000760975
0.000769757
0.000752205
0.00074341
0.000743412
0.000752199
0.000752199
0.000752197
0.00074341
0.000752202
0.00074341
0.00074341
0.000752197
0.000752195
0.000752195
0.00074341
0.000752204
0.000743412
0.000743409
0.000752198
0.000752196
0.000752195
0.00074341
0.0007522
0.000743409
0.000743409
0.000752194
0.000752196
0.000752194
0.000743409
0.000762771
0.000758946
0.000759155
0.000762992
0.000762995
0.000762775
0.000759157
0.000767913
0.000771682
0.000767678
0.0007718
0.000767816
0.000767712
0.000771591
0.000762803
0.000758928
0.000763046
0.000759036
0.000762896
0.000763012
0.000759128
0.000767951
0.000767741
0.000771783
0.000771563
0.000767734
0.000767945
0.000771562
0.000762776
0.000759158
0.000758947
0.000762991
0.000762777
0.000762997
0.000759161
0.000767918
0.000771684
0.000767678
0.000771801
0.00076782
0.000767713
0.000771595
0.000762806
0.000758928
0.000763046
0.000759036
0.000762899
0.000763013
0.000759128
0.000767953
0.000767738
0.00077156
0.000771784
0.000767945
0.000767733
0.000771562
0.000762949
0.000762539
0.000759152
0.000759153
0.000762791
0.000762794
0.000758991
0.000734624
0.000734625
0.000725839
0.000725835
0.000734622
0.000734624
0.000734622
0.000725836
0.000725833
0.00073462
0.000734622
0.000734621
0.000725835
0.000725835
0.000725834
0.000725833
0.00073462
0.000727635
0.000727864
0.000723816
0.000724032
0.000727863
0.000727647
0.000724029
0.000732783
0.000736545
0.000736664
0.000732541
0.000736457
0.000732684
0.00073258
0.000732811
0.000732605
0.000736646
0.000736426
0.000736427
0.000732597
0.000732808
0.000727636
0.000727862
0.000724027
0.000723814
0.000727642
0.000727864
0.00072403
0.000732782
0.000736549
0.000736671
0.000732545
0.000736458
0.000732687
0.000732583
0.000732811
0.000732605
0.000736422
0.000736649
0.000736422
0.000732805
0.000732599
0.000727671
0.000723797
0.000727885
0.000723998
0.000727818
0.000727404
0.000724019
0.000724021
0.000727658
0.000727663
0.000723864
0.000762955
0.000762546
0.000759157
0.000759156
0.000758995
0.000762799
0.000762799
0.000750214
0.000750614
0.000754012
0.000754012
0.000754169
0.000750373
0.000750373
0.000762772
0.000758948
0.000759157
0.000762993
0.000762999
0.000762777
0.00075916
0.000767915
0.000771685
0.000767682
0.000771806
0.000767716
0.000767818
0.000771595
0.000762806
0.000758929
0.00076305
0.000759037
0.000763016
0.000762901
0.00075913
0.000767948
0.000767741
0.000771788
0.000771562
0.000767736
0.000767945
0.000771562
0.000762773
0.000758946
0.000759157
0.000762992
0.000762998
0.000762773
0.00075916
0.000767914
0.000771683
0.000767681
0.000771805
0.000767715
0.000767818
0.000771591
0.000762804
0.000758927
0.000763047
0.000759034
0.000763015
0.000759126
0.000762897
0.000767951
0.000767741
0.000771784
0.00077156
0.000767734
0.000767943
0.00077156
0.000750385
0.000754209
0.000753988
0.000750168
0.000753989
0.000750163
0.000750375
0.000745242
0.000741468
0.00074548
0.000741361
0.000745335
0.000745448
0.00074156
0.000750352
0.000754228
0.000754113
0.000750111
0.000750254
0.000754024
0.000750146
0.00074521
0.000745429
0.00074138
0.000741596
0.000745431
0.000745214
0.000741594
0.000750381
0.000754208
0.000753988
0.000750167
0.000753986
0.000750163
0.000750374
0.000745239
0.000741465
0.00074548
0.00074136
0.000745449
0.000745331
0.000741557
0.000750349
0.000754227
0.000754109
0.000750111
0.00075402
0.000750146
0.000750252
0.000745204
0.000745427
0.000741381
0.000741596
0.000745431
0.000745213
0.000741592
0.000762948
0.000762538
0.00075915
0.000759152
0.000762791
0.00076279
0.00075899
0.000750211
0.00075061
0.000754005
0.000754005
0.000750368
0.000754164
0.000750367
0.000762774
0.000758953
0.000759161
0.000762997
0.000763003
0.000762778
0.000759163
0.000767922
0.000771688
0.000767684
0.000771807
0.00076772
0.000767822
0.000771598
0.00076281
0.000758934
0.000763052
0.000759039
0.00076302
0.000762902
0.000759133
0.000767954
0.000767745
0.00077179
0.000771564
0.00076774
0.000767948
0.000771566
0.000762775
0.00075916
0.00075895
0.000762998
0.00076278
0.000763001
0.000759163
0.00076792
0.000771689
0.000767681
0.000771808
0.000767717
0.00076782
0.000771599
0.000762808
0.000758931
0.00076305
0.000759038
0.000763016
0.000759129
0.000762899
0.000767952
0.000767745
0.000771562
0.000771792
0.000767947
0.00076774
0.000771565
0.000750386
0.000754215
0.000753992
0.000750171
0.000753992
0.000750166
0.000750379
0.00074524
0.000741468
0.000745483
0.000741363
0.000745335
0.00074545
0.00074156
0.000750354
0.000754233
0.000754114
0.000750114
0.000750255
0.000754027
0.000750149
0.000745204
0.000745428
0.000741382
0.000741594
0.000745432
0.000745212
0.000741594
0.000750385
0.000753992
0.000754213
0.000750172
0.000753991
0.000750379
0.000750164
0.000745238
0.000741466
0.000745484
0.000741363
0.000745449
0.000745333
0.000741559
0.000750351
0.000754233
0.000754116
0.000750114
0.000754026
0.000750148
0.000750254
0.000745207
0.000745429
0.000741594
0.000741382
0.000745213
0.000745431
0.000741594
0.000762772
0.000759158
0.000758948
0.000762992
0.000762777
0.000762999
0.00075916
0.000767917
0.000771685
0.000767678
0.000771802
0.000767818
0.000767714
0.000771595
0.000762806
0.000758933
0.000763049
0.000759037
0.000762899
0.000763018
0.000759129
0.000767952
0.00076774
0.000771561
0.000771784
0.000767944
0.000767736
0.000771561
0.000750379
0.000754209
0.000753985
0.000750167
0.000753986
0.000750162
0.000750373
0.000745238
0.00074147
0.000745482
0.000741363
0.000741562
0.000745334
0.000745449
0.00075035
0.000754228
0.000754111
0.00075011
0.000754023
0.000750252
0.000750146
0.000745205
0.000745429
0.000741385
0.000741601
0.0007416
0.000745432
0.000745214
0.000750387
0.000753988
0.000754216
0.000750172
0.000753993
0.000750376
0.000750175
0.000745244
0.000741471
0.000745484
0.000741367
0.000745454
0.000745337
0.000741565
0.000750355
0.000754233
0.000754116
0.000750114
0.000754027
0.000750152
0.000750256
0.000745209
0.000745432
0.000741597
0.00074139
0.000745216
0.000745442
0.000741595
0.000762954
0.000762545
0.000759159
0.000759156
0.0007628
0.000762801
0.000758995
0.000750212
0.000750611
0.000754011
0.000754009
0.00075037
0.000754169
0.000750369
0.00076277
0.000759159
0.000758944
0.000762991
0.000762777
0.000762994
0.000759157
0.000767916
0.000771684
0.000767677
0.000771802
0.00076782
0.000767713
0.000771595
0.000762803
0.000758928
0.000763046
0.000759036
0.000762898
0.000763013
0.000759127
0.00076795
0.000767739
0.00077156
0.000771781
0.000767944
0.000767733
0.000771562
0.000750381
0.000753989
0.000754209
0.000750167
0.00075399
0.000750376
0.000750163
0.000745238
0.000741471
0.000745484
0.000741367
0.000741563
0.000745335
0.000745451
0.000750349
0.000754229
0.000754112
0.000750112
0.000754023
0.000750253
0.000750146
0.000745203
0.00074543
0.000741597
0.000741385
0.000741595
0.000745214
0.000745432
0.000750386
0.000753991
0.00075421
0.000750167
0.000753991
0.000750377
0.000750165
0.000745242
0.000741469
0.000745482
0.000741365
0.00074545
0.000745333
0.000741563
0.000750353
0.000754229
0.000754114
0.000750111
0.000754025
0.000750147
0.000750255
0.000745207
0.000745429
0.000741596
0.000741384
0.000745213
0.000745432
0.000741596
0.000750214
0.00075061
0.000754009
0.000754011
0.000754169
0.00075037
0.000750369
0.000732784
0.000736545
0.000736661
0.000732541
0.000732578
0.000736454
0.000732687
0.000732819
0.000732604
0.000736642
0.000736422
0.000732598
0.000736424
0.000732811
0.000732783
0.000736541
0.00073666
0.000732541
0.000736452
0.000732578
0.000732684
0.000732817
0.000732605
0.000736643
0.000736422
0.000736422
0.0007326
0.000732812
0.000732784
0.000736546
0.000736663
0.000732544
0.00073258
0.000736455
0.000732689
0.000732819
0.000732606
0.000736645
0.00073642
0.000732601
0.000736424
0.000732811
0.000732782
0.000736547
0.000736664
0.000732546
0.000736454
0.000732579
0.000732688
0.000732817
0.000732604
0.000736419
0.000736644
0.000736424
0.000732809
0.000732599
0.000727641
0.000727866
0.000724032
0.000723819
0.00072765
0.000727868
0.000724031
0.000732782
0.000736549
0.000736666
0.000732547
0.000732686
0.000736459
0.000732582
0.000732816
0.000732606
0.000736421
0.000736648
0.00073281
0.000736424
0.000732601
0.000727672
0.000723801
0.000727917
0.000723906
0.000727768
0.000727886
0.000723999
0.00072764
0.000727864
0.00072403
0.000723819
0.000727646
0.00072787
0.000724031
0.000732785
0.000736548
0.000736667
0.000732547
0.000732686
0.000736458
0.000732584
0.000732818
0.000732606
0.00073642
0.000736648
0.000732807
0.000736425
0.000732606
0.000727673
0.000723801
0.000727918
0.000723906
0.00072777
0.000727889
0.000723998
0.00165602
0.00165443
0.00165603
0.00165383
0.00165389
0.00165382
0.00165383
0.00165383
0.00165382
0.00165389
0.00165383
0.00165811
0.0016581
0.00165382
0.00165811
0.00165382
0.00165811
0.00165808
0.0016539
0.0016581
0.00165384
0.00165805
0.00165811
0.00165386
0.00165808
0.0016539
0.0016581
0.00165383
0.0016581
0.00165805
0.00165386
0.00165812
0.00165382
0.00165382
0.00165812
0.00165812
0.00165382
0.0016581
0.00165811
0.0016581
0.00165382
0.00165811
0.00165382
0.00165796
0.00165759
0.00165416
0.00165416
0.00165782
0.00165782
0.001654
0.00165783
0.00165403
0.00165805
0.00165392
0.00165802
0.00165791
0.00165414
0.00165784
0.00165404
0.00165805
0.00165393
0.00165791
0.00165802
0.00165415
0.00164725
0.00164721
0.00164722
0.00164879
0.00161207
0.00161206
0.00161205
0.00161362
0.00157697
0.00157695
0.00157695
0.00157851
0.00154189
0.00154188
0.00154188
0.00154344
0.00150683
0.00150681
0.00150681
0.00150838
0.00147176
0.00147175
0.00147174
0.00147332
0.00143669
0.00143667
0.00143668
0.00143824
0.00140162
0.0014016
0.0014016
0.00140317
0.00136654
0.00136653
0.00136653
0.00136809
0.00133147
0.00133145
0.00133145
0.00133302
0.00129641
0.00129639
0.00129639
0.00129796
0.00126135
0.00126133
0.00126133
0.00126289
0.00122628
0.00122626
0.00122626
0.00122783
0.0011912
0.00119118
0.00119118
0.00119275
0.0011561
0.00115608
0.00115609
0.00115766
0.001121
0.00112098
0.00112098
0.00112255
0.0010859
0.00108588
0.00108588
0.00108746
0.00105079
0.00105078
0.00105078
0.00105235
0.00101569
0.00101567
0.00101567
0.00101724
0.000980578
0.00098056
0.000980562
0.000982135
0.000945456
0.000945439
0.000945439
0.000947015
0.00091033
0.000910311
0.000910317
0.000911886
0.000875198
0.000875174
0.000875178
0.000876753
0.000840058
0.000840038
0.000840038
0.000841611
0.000804916
0.000804894
0.000804894
0.000806466
0.00164878
0.00161925
0.00164721
0.00164721
0.00162084
0.00162083
0.00164878
0.00161925