/*--------------------------------*- C++ -*----------------------------------*\
| =========                 |                                                 |
| \\      /  F ield         | OpenFOAM: The Open Source CFD Toolbox           |
|  \\    /   O peration     | Version:  2312                                  |
|   \\  /    A nd           | Website:  www.openfoam.com                      |
|    \\/     M anipulation  |                                                 |
\*---------------------------------------------------------------------------*/
FoamFile
{
    version     2.0;
    format      ascii;
    arch        "LSB;label=32;scalar=64";
    class       surfaceScalarField;
    location    "200";
    object      phi;
}
// * * * * * * * * * * * * * * * * * * * * * * * * * * * * * * * * * * * * * //

dimensions      [0 3 -1 0 0 0 0];

oriented        oriented;

internalField   nonuniform List<scalar> 
125567
(
-6.05345e-08
4.56448e-10
-0.000228041
1.7603e-09
2.68611e-08
-9.17523e-09
-1.80868e-08
-9.67716e-05
1.24912e-06
-1.03415e-09
2.58684e-07
-2.64226e-07
-1.24809e-06
2.73514e-07
-2.78286e-07
-0.0011421
7.19741e-09
-9.08382e-07
9.08436e-07
1.88585e-08
3.89675e-08
-0.000244208
-9.55986e-08
-1.43127e-08
-8.04969e-10
-0.000250257
1.83762e-09
-1.83038e-07
-1.18016e-09
3.26692e-09
-1.00618e-06
8.23118e-07
-8.25922e-07
1.0058e-06
-0.00116377
-6.01772e-08
-0.000228005
2.67556e-08
2.95756e-09
-3.69967e-08
5.16688e-12
-0.000191536
-0.00025023
-1.82834e-07
3.94478e-09
4.76151e-09
1.28349e-06
2.29688e-09
-9.16506e-07
2.5633e-07
9.11064e-07
-2.6664e-07
-1.27983e-06
2.79054e-07
-2.81002e-07
-0.00114158
-7.15229e-10
-1.00669e-06
8.22797e-07
-8.26126e-07
1.00423e-06
-0.00116368
2.39678e-08
-1.70171e-08
-0.000244113
-9.31404e-08
-0.000269886
2.40998e-07
2.48358e-07
1.30509e-08
-0.000275816
-3.86777e-08
2.01944e-08
9.82078e-09
-0.000275946
-4.30714e-08
-7.20046e-09
-9.67915e-05
-0.00019158
3.15373e-09
2.65496e-08
-8.41565e-10
0.000141737
-5.51903e-10
-0.000141762
-9.21949e-10
-2.66048e-08
5.67031e-10
6.04726e-08
-0.000228074
-0.00022184
2.63704e-08
4.64343e-09
-6.30979e-08
-0.000169186
5.29964e-10
2.60719e-10
-1.07666e-09
6.25038e-08
-0.000221876
2.8209e-10
-0.000169214
2.9483e-09
2.74464e-08
7.82776e-05
-7.83056e-05
-0.000260815
2.45389e-08
-5.48355e-08
5.65446e-08
-0.000260853
5.01544e-09
2.23876e-08
-9.6799e-05
-1.50079e-09
2.65596e-08
0.00014167
-1.42785e-10
-0.000141695
-2.65643e-08
4.59641e-10
6.06246e-08
-0.000228039
-0.000169156
1.31886e-09
-0.000221749
2.61319e-08
5.57328e-09
-5.97631e-08
-0.000169183
9.55068e-11
6.05019e-08
-0.000221783
3.42126e-09
2.7597e-08
7.82345e-05
-7.82622e-05
-0.000260695
2.41207e-08
-5.1753e-08
-8.19393e-09
4.23409e-08
-0.000191565
5.46245e-08
-0.00026073
-1.36152e-08
-1.14329e-08
0.000211961
2.30193e-08
2.36315e-08
-0.000211983
-7.96813e-05
-1.12451e-08
-1.4769e-08
-7.9704e-05
-1.32122e-08
-1.28668e-08
1.26426e-08
-7.97076e-05
1.47036e-08
-7.97301e-05
-2.51574e-08
-2.05603e-08
-3.05505e-08
2.96177e-08
0.000220622
5.57441e-08
-0.000220654
-0.000181236
-2.75293e-08
-8.89182e-09
4.36386e-08
2.004e-08
-0.000275848
-0.000249969
3.07322e-08
-4.70312e-08
-9.19997e-08
-0.000181263
4.79062e-08
9.60177e-08
-0.00025004
-5.34496e-08
3.25442e-08
-2.84063e-08
0.00022071
5.5321e-08
-0.000220746
-0.000181312
-2.94669e-08
4.35327e-08
-1.23138e-08
-2.01403e-08
2.05625e-08
-0.000275977
-0.00025014
2.79975e-08
-4.17051e-08
-9.41676e-08
4.81361e-08
9.36684e-08
-0.000250206
-0.000181338
-5.79065e-08
7.11738e-09
-9.68188e-05
4.04473e-08
-0.000191608
-4.89375e-09
3.80696e-09
-0.00121559
-6.38146e-09
-3.35035e-09
-0.00119148
-2.31071e-08
-0.00121469
-2.25862e-08
9.88817e-08
-0.000244261
1.45786e-08
-0.000260511
-1.88184e-08
-0.000260652
2.40402e-08
-2.02548e-07
7.5621e-09
0.000266876
-2.18319e-08
-0.000267665
-3.9065e-09
1.8411e-07
1.10822e-09
-0.000250378
-0.000249351
-2.02874e-07
8.71846e-09
-0.000267339
2.40606e-09
-5.69078e-09
-6.18635e-09
-0.000249489
4.8484e-09
-0.000267978
2.04519e-08
-1.81388e-07
0.000264812
-0.000265541
-0.000250048
-1.79259e-07
-0.000250164
2.14219e-09
-2.00264e-07
0.000266803
-7.84515e-09
-0.000267604
1.84178e-07
-1.45342e-09
-0.000250351
-0.000267319
2.66368e-09
-0.000249265
-2.01819e-07
9.67469e-09
-0.000267954
-5.02225e-09
-0.000249402
8.69578e-09
-1.79581e-07
0.000264708
-2.15466e-08
-0.000265432
-0.000249945
-1.80931e-07
1.1771e-08
9.88749e-08
-0.000244162
-2.1491e-08
-0.000260405
-0.000250063
-0.000260547
1.10036e-07
1.10031e-07
0.000242566
-0.000242675
-2.44222e-07
-2.41785e-07
-0.000271928
-0.000261846
1.12654e-07
-0.000261498
1.07542e-07
-0.000261817
-0.000262163
1.16007e-09
-2.97715e-09
1.53583e-09
-1.61514e-09
0.00119201
-0.00119201
-1.24922e-06
-4.2205e-10
5.99736e-09
0.00114221
-2.77005e-07
1.25033e-06
2.71865e-07
9.0817e-07
-2.63956e-07
2.58989e-07
-9.0884e-07
-0.00114221
-1.24732e-06
-1.22402e-10
1.01863e-08
0.00114207
-2.74702e-07
1.24697e-06
2.71438e-07
9.0797e-07
-2.64131e-07
2.58992e-07
-9.09174e-07
-0.00114207
1.27772e-06
1.23983e-06
-2.39037e-07
-2.42854e-07
0.000269863
-0.000271898
-1.9072e-10
5.53451e-10
-0.00119202
4.42589e-09
1.19644e-10
-0.00114221
-1.249e-06
-1.93047e-09
2.16092e-08
-2.76765e-07
1.25009e-06
2.71795e-07
9.08367e-07
-2.63458e-07
-9.08333e-07
2.59161e-07
-0.00114208
-1.24743e-06
-1.52968e-09
-4.30764e-09
-2.77756e-07
1.24654e-06
2.71081e-07
9.08534e-07
-2.64042e-07
-9.08661e-07
2.58834e-07
-0.000271897
1.2803e-06
1.23428e-06
-2.33765e-07
-2.45359e-07
0.000269862
1.28925e-06
1.24503e-06
-2.36039e-07
-2.45956e-07
0.000269942
-0.000271995
-1.28961e-06
-1.24927e-06
0.000271993
-0.000269941
2.40714e-07
2.46593e-07
8.91949e-09
0.00114176
-2.79924e-07
1.29002e-06
2.74429e-07
9.11492e-07
-2.6102e-07
2.56537e-07
-9.11318e-07
-0.00114175
-1.2851e-06
2.83356e-09
6.88906e-09
0.00114173
-2.80983e-07
1.28868e-06
2.78964e-07
9.1542e-07
-2.65061e-07
2.57765e-07
-9.17395e-07
-0.00114173
0.00114176
-5.86994e-10
-0.00114176
1.09362e-08
-1.28981e-06
2.74027e-07
-2.80477e-07
-9.11107e-07
2.56831e-07
-2.60691e-07
9.11792e-07
1.28629e-06
0.00114174
2.8752e-09
-0.00114173
5.02674e-09
-1.28483e-06
2.76573e-07
-2.80698e-07
-9.17546e-07
2.57928e-07
-2.64966e-07
9.1287e-07
-2.40467e-07
-2.41657e-07
0.000269904
-0.000271957
-1.25017e-06
0.000271952
-0.000269903
2.41765e-07
2.45861e-07
5.232e-09
0.00114276
-2.75109e-07
1.24989e-06
2.74198e-07
9.12184e-07
-2.65432e-07
2.57683e-07
-9.15623e-07
-0.00114276
-1.27947e-06
5.50408e-09
5.87287e-09
0.00114158
-2.80753e-07
1.28367e-06
2.79326e-07
9.11491e-07
-2.63456e-07
2.5414e-07
-9.16262e-07
-0.00114158
0.00114276
4.58045e-09
-0.00114276
6.97499e-09
-1.24563e-06
2.73691e-07
-2.75647e-07
-9.15697e-07
2.57492e-07
-2.65658e-07
9.12392e-07
1.28351e-06
0.00114158
2.07983e-09
-0.00114158
5.79002e-09
-1.27956e-06
2.79125e-07
-2.80915e-07
-9.16401e-07
2.53682e-07
-2.6387e-07
9.11578e-07
-1.05397e-09
8.26115e-09
0.00114121
-2.7923e-07
1.27912e-06
2.74887e-07
9.05386e-07
-2.58535e-07
2.53417e-07
-9.06149e-07
-0.00114121
-1.76524e-09
-0.00114221
1.62816e-08
-1.24934e-06
2.71775e-07
-2.77097e-07
-9.0833e-07
2.59233e-07
9.08597e-07
-2.63657e-07
1.27868e-06
0.00114122
2.22203e-10
-0.00114122
9.49635e-09
-1.27797e-06
2.74395e-07
-2.79632e-07
-9.05992e-07
2.55964e-07
-2.58671e-07
9.05659e-07
-2.41606e-07
-2.44058e-07
0.000269885
-0.000271926
-1.24653e-06
0.000271928
-0.000269887
2.40867e-07
2.48362e-07
2.25283e-09
5.91088e-09
0.00114224
-2.75408e-07
1.24336e-06
2.73461e-07
9.09772e-07
-2.64908e-07
2.58028e-07
-9.12127e-07
-0.00114224
-3.54103e-10
-0.00114207
7.5286e-09
-1.24498e-06
2.70819e-07
-2.78188e-07
-9.08962e-07
2.58841e-07
9.08241e-07
-2.64169e-07
1.24296e-06
0.00114222
2.95571e-09
-0.00114223
2.27128e-08
-1.23995e-06
2.73058e-07
-2.75608e-07
-9.12093e-07
2.57941e-07
-2.64963e-07
9.10129e-07
-0.000269862
2.42489e-07
2.44191e-07
1.28951e-06
1.24553e-06
-2.36267e-07
-2.46122e-07
0.00026994
5.89329e-09
-2.80159e-07
1.28964e-06
2.74078e-07
9.11068e-07
-2.63303e-07
-9.112e-07
2.59265e-07
-1.28166e-06
3.89055e-09
9.12545e-09
-2.77517e-07
1.2864e-06
2.76773e-07
9.12282e-07
-2.64946e-07
-9.15033e-07
2.57628e-07
-2.40411e-07
-2.41091e-07
0.000269903
7.6075e-09
-2.75511e-07
1.24913e-06
2.73375e-07
9.1197e-07
-2.65516e-07
-9.1573e-07
2.5728e-07
-1.27927e-06
1.74097e-09
4.46338e-09
-2.80504e-07
1.28361e-06
2.7937e-07
9.11157e-07
-2.63722e-07
-9.16379e-07
2.56347e-07
-2.49823e-08
1.372e-08
0.00114123
-2.82066e-07
1.27921e-06
2.77738e-07
9.08289e-07
-2.61178e-07
2.58814e-07
-9.05911e-07
-2.41755e-07
-2.44159e-07
0.000269887
2.82053e-09
3.80933e-08
0.00114217
-2.69836e-07
1.24894e-06
2.73495e-07
9.09973e-07
-2.64797e-07
2.5798e-07
-9.12116e-07
1.95954e-09
-6.1697e-08
0.000228117
2.73604e-08
-3.1058e-10
-0.000228084
-7.69672e-09
4.02105e-08
0.000191624
-3.88394e-09
-0.000191653
6.66478e-09
-3.92736e-08
0.000191652
4.35215e-09
-0.000191623
1.96529e-09
5.93308e-08
0.000228084
-2.59827e-08
-2.51096e-09
-0.000228117
4.84592e-09
2.46801e-08
9.67811e-05
-9.68107e-05
-9.46188e-09
-2.02495e-08
9.6811e-05
-9.67813e-05
-6.04779e-08
1.22135e-09
0.000228083
1.07095e-09
2.66753e-08
-0.000228051
-5.15936e-09
4.21906e-08
0.000191594
-7.76066e-09
-0.000191624
9.23471e-09
-3.71747e-08
0.000191621
1.67007e-10
-0.000191593
6.03576e-08
1.58446e-09
0.000228054
-9.37985e-10
-2.65613e-08
-0.000228089
-9.659e-10
2.75836e-09
0.0011917
-0.0011917
-7.80902e-10
3.76822e-09
0.00119144
-0.00119144
3.75295e-10
-1.87678e-09
0.00119144
-0.00119144
-0.00119202
-2.17763e-09
6.57405e-09
0.00119169
-0.0011917
-2.3979e-09
9.16469e-09
0.00119146
-0.00119145
-1.719e-09
-1.39658e-09
0.00119144
-0.00119145
-6.5821e-10
9.66823e-09
6.15313e-08
-1.52512e-09
0.000250375
2.05389e-09
-1.8473e-07
-0.000250252
-2.24725e-08
-4.08138e-08
1.01534e-07
0.000244227
1.64301e-08
-0.000244282
0.00116359
6.14433e-09
5.89016e-10
1.00126e-06
-8.17894e-07
8.22603e-07
-9.96267e-07
-0.0011636
1.66692e-08
1.25011e-06
0.00114221
-1.19251e-09
-9.08613e-07
2.59047e-07
-2.63773e-07
9.08395e-07
-1.2491e-06
2.7173e-07
-2.76946e-07
2.17328e-08
3.86007e-08
0.000244282
-1.72795e-08
-0.000244227
-9.78203e-08
-1.40421e-09
0.0011636
1.45002e-09
-9.9875e-07
8.19703e-07
-8.20752e-07
9.98819e-07
-5.92486e-08
2.03281e-09
0.000250252
-2.13388e-09
1.82199e-07
-0.000250375
4.3756e-09
2.32014e-08
9.67727e-05
-9.68002e-05
-9.92567e-09
-1.73124e-08
9.67996e-05
-9.67723e-05
1.92451e-10
6.13564e-08
0.000250363
-1.84379e-07
1.29726e-09
-0.000250241
0.00116345
4.46299e-09
2.00357e-09
1.00077e-06
-8.21139e-07
8.22197e-07
-9.9954e-07
-0.00116345
-2.32291e-08
-4.08175e-08
9.9318e-08
0.000244211
1.46521e-08
-0.000244261
1.18215e-08
1.2441e-06
0.00114207
3.99578e-10
-9.09029e-07
2.58978e-07
-2.6403e-07
9.08241e-07
-1.24455e-06
2.70914e-07
-2.77919e-07
-3.13595e-09
0.00116346
3.06566e-09
-9.99464e-07
8.22014e-07
-8.21241e-07
1.00101e-06
2.08723e-08
3.88345e-08
0.000244261
-1.41291e-08
-0.000244211
-9.54023e-08
1.70052e-09
-5.93264e-08
0.000250242
1.82451e-07
-2.56513e-09
-0.000250364
2.19137e-08
-2.06667e-08
4.62521e-08
0.000275893
-1.10713e-08
-0.00027593
2.03315e-08
-2.20719e-08
4.49809e-08
0.000275815
-9.08482e-09
-0.000275849
-1.27877e-06
-1.24301e-06
0.000271898
-0.000269863
2.42511e-07
2.44135e-07
-2.21299e-08
1.98736e-08
0.000275931
1.02008e-08
-0.000275894
-4.50787e-08
-2.39661e-08
1.8296e-08
0.000275849
1.29873e-08
-0.000275815
-4.15469e-08
-0.000191651
-7.36179e-09
4.01363e-08
-4.28057e-09
0.000191622
-0.000228116
2.14384e-09
5.91425e-08
0.000228083
-2.59669e-08
-2.31928e-09
-9.68111e-05
4.84064e-09
2.47375e-08
9.67815e-05
-0.000191617
-5.23845e-09
4.21437e-08
-7.45429e-09
0.000191587
-0.000228078
6.0773e-08
9.46217e-10
0.000228043
-7.92943e-10
-2.67435e-08
8.48585e-09
2.72341e-08
-2.54695e-09
-1.73795e-08
3.51059e-08
2.68012e-08
0.00119136
6.20249e-08
-9.76651e-10
-0.000250255
1.918e-09
-1.85282e-07
-0.00024428
-2.20715e-08
-4.06138e-08
1.01119e-07
1.35785e-08
0.000244228
0.00116361
-0.0011636
1.61798e-08
-6.66177e-09
1.0015e-06
-8.20581e-07
-9.98744e-07
8.22818e-07
-0.000250375
-5.90358e-08
1.50675e-09
0.000250253
-1.86554e-09
1.82032e-07
2.73568e-08
-2.46404e-08
-9.98311e-07
8.25908e-07
-8.20801e-07
1.00423e-06
-9.67992e-05
4.74925e-09
2.2708e-08
9.67718e-05
-6.34452e-10
6.15489e-08
-0.000250239
-1.84483e-07
1.48146e-09
0.00116348
-0.00116347
-1.92184e-08
1.29569e-09
1.00107e-06
-8.20972e-07
-9.99104e-07
8.22219e-07
-0.000244261
-2.30416e-08
-4.05906e-08
9.90614e-08
1.45273e-08
0.000244211
-0.000250362
1.43556e-09
-5.93306e-08
0.00025024
1.82424e-07
-2.50371e-09
-5.46948e-08
-4.8553e-09
-9.99024e-07
8.21748e-07
-8.18455e-07
1.00099e-06
-0.000275932
2.22061e-08
-2.06943e-08
4.40583e-08
-1.09416e-08
0.000275897
-0.000275849
2.07245e-08
-2.16798e-08
4.49664e-08
-9.71167e-09
0.000275815
-1.2739e-06
-1.31863e-06
-0.000269881
2.55654e-07
2.41727e-07
-2.20423e-08
1.95977e-08
1.10205e-08
-0.0002759
-4.27155e-08
-2.36125e-08
1.86174e-08
1.24392e-08
-0.000275815
-4.17506e-08
1.96908e-08
9.68003e-05
-9.68277e-05
-2.07221e-08
9.68277e-05
-9.68003e-05
2.24679e-08
9.67822e-05
-9.68098e-05
-1.80231e-08
9.6809e-05
-9.67818e-05
2.33897e-08
4.5762e-08
0.00027594
-1.48887e-08
-0.000275975
1.80608e-08
4.78538e-08
0.000275859
-8.1629e-09
-0.000275894
0.000271994
-1.28966e-06
-1.24954e-06
-0.000269942
2.40825e-07
2.46538e-07
0.000275974
-2.06988e-08
1.15e-08
-0.000275939
-4.56284e-08
0.000275891
-2.14422e-08
1.29469e-08
-0.000275857
-4.33694e-08
-2.05259e-08
-6.81115e-09
9.68272e-05
-9.67999e-05
1.9951e-08
7.61627e-09
9.68001e-05
-1.8149e-08
-9.16188e-09
9.68084e-05
-9.6781e-05
2.24667e-08
5.16589e-09
9.67814e-05
1.28937e-06
1.2451e-06
0.000269942
-2.36155e-07
-2.4619e-07
-2.09653e-08
0.000275973
-4.56996e-08
-0.000275939
1.17785e-08
-2.1346e-08
0.000275888
-4.35106e-08
-0.000275854
1.27703e-08
2.33532e-08
-1.46249e-08
4.57889e-08
0.000275939
1.81084e-08
-8.21363e-09
4.79435e-08
0.000275856
-6.14436e-08
0.000228074
2.72355e-08
4.03489e-09
-0.000228041
4.41471e-08
0.000191561
-8.9055e-09
-0.000191592
-3.95648e-08
0.000191592
-4.88884e-10
-0.000191561
5.95656e-08
0.000228042
-2.61242e-08
1.25678e-09
-0.000228075
8.57414e-10
0.000250404
-2.14901e-10
-1.84876e-07
-0.000250281
1.01278e-07
0.00024424
1.47178e-08
-0.000244293
0.00116395
2.90345e-09
2.09902e-09
1.00458e-06
-8.23837e-07
8.25222e-07
-1.00178e-06
-0.00116395
9.78331e-09
0.00114176
-1.62188e-09
-1.28936e-06
2.74091e-07
-2.80217e-07
-9.11137e-07
2.56703e-07
-2.60818e-07
9.11611e-07
0.000244292
-1.38692e-08
-0.00024424
-9.82781e-08
-3.63586e-09
0.00116395
2.04931e-09
-1.00163e-06
8.25476e-07
-8.23715e-07
1.00473e-06
2.22262e-09
0.000250281
-2.63328e-09
1.82523e-07
-0.000250404
0.000250374
4.65313e-09
-1.84569e-07
-0.000250255
-1.99167e-08
1.02797e-07
0.000244135
1.16057e-08
-0.000244186
0.00116385
4.15396e-09
1.00886e-06
-8.24012e-07
8.25011e-07
-1.00766e-06
-0.00116385
6.63263e-09
0.00114173
1.28859e-06
2.72464e-09
-9.17478e-07
2.57826e-07
9.15374e-07
-2.64956e-07
-1.28491e-06
2.78992e-07
-2.80862e-07
0.000244185
2.41772e-08
-1.71099e-08
-0.000244135
-9.64194e-08
0.00116385
4.2857e-09
-1.0075e-06
8.24994e-07
-8.23905e-07
1.00917e-06
0.000250255
-1.47392e-09
1.82677e-07
-0.000250374
2.19212e-09
5.92942e-08
-2.60676e-08
-2.34863e-09
0.000228084
-3.93209e-08
-0.000191622
4.00222e-09
4.02749e-08
-3.7387e-09
0.000191623
1.96775e-09
-6.18728e-08
-0.000228084
2.7409e-08
-1.35312e-10
5.96602e-08
-2.62649e-08
1.45126e-09
0.000228041
-3.96139e-08
9.49217e-09
0.000191592
-0.000191561
-5.0896e-10
4.4278e-08
-4.82034e-09
-8.72379e-09
0.000191561
-6.15975e-08
0.000228073
-0.000228041
2.71832e-08
3.92521e-09
2.65435e-09
-2.83535e-09
1.82119e-07
0.000250281
4.89891e-09
-4.06359e-10
1.28964e-06
-2.80186e-07
2.74026e-07
9.1128e-07
-2.60762e-07
2.56597e-07
-9.11356e-07
0.000244292
-9.84411e-08
-0.00024424
-1.38138e-08
-0.00116395
-2.46779e-09
0.00116395
3.13469e-09
-1.00173e-06
8.2536e-07
-8.23623e-07
1.00464e-06
1.49764e-08
1.00946e-07
0.00024424
4.67418e-09
2.49525e-09
1.00422e-06
-8.23458e-07
-1.00186e-06
8.25456e-07
1.00816e-09
0.000250403
-0.000250281
-1.50353e-11
-1.85062e-07
-1.18631e-09
1.82586e-07
0.000250255
5.35086e-09
-1.28479e-06
3.28495e-09
9.14987e-07
-2.65011e-07
-9.17802e-07
2.57664e-07
1.28873e-06
-2.80616e-07
2.79201e-07
2.44996e-08
0.000244184
-9.65383e-08
-0.000244134
-1.74541e-08
-0.00116385
0.00116385
4.55851e-09
-1.00732e-06
8.24909e-07
-8.24162e-07
1.00658e-06
-1.97293e-08
1.13889e-08
1.02721e-07
0.000244135
4.55409e-09
1.00892e-06
-8.23938e-07
-1.00753e-06
8.24877e-07
0.000250375
-0.000250255
4.75578e-09
-1.84684e-07
4.52284e-08
0.000275823
-8.51627e-09
-0.000275855
-2.05656e-08
4.62853e-08
0.000275958
-1.13463e-08
-0.000275995
0.000271956
-0.000269904
2.41721e-07
2.45437e-07
0.000275854
1.37514e-08
-0.000275822
-4.12245e-08
1.98176e-08
0.000275995
9.68118e-09
-0.000275958
-4.51263e-08
6.73854e-09
9.67946e-05
-9.6822e-05
9.68223e-05
-7.65242e-09
-9.67948e-05
-2.02034e-08
-9.67814e-05
2.48231e-08
9.67814e-05
1.24912e-06
0.000269904
-2.4061e-07
-2.41545e-07
0.000275854
-4.13509e-08
-0.000275822
1.38415e-08
1.98046e-08
-2.20318e-08
0.000275997
-4.53448e-08
-0.00027596
1.00744e-08
-8.51697e-09
4.55493e-08
0.000275822
-2.0591e-08
2.24557e-08
-1.14241e-08
4.61492e-08
0.000275959
-7.86302e-09
9.6823e-05
-9.67953e-05
6.73959e-09
9.67949e-05
-9.15549e-10
0.000250386
1.89529e-09
-1.85936e-07
-0.000250261
1.00712e-07
0.000244192
1.50289e-08
-0.000244248
0.00116376
3.56266e-09
6.59843e-09
1.00537e-06
-8.25056e-07
8.24016e-07
-1.00601e-06
-0.00116376
6.1301e-09
0.00114276
3.80183e-09
-1.24501e-06
2.73924e-07
-2.75241e-07
-9.15713e-07
2.57524e-07
-2.65538e-07
9.121e-07
0.000244245
-1.874e-08
-0.000244191
-9.36911e-08
-3.74932e-09
0.00116376
8.22809e-09
-1.00595e-06
8.23713e-07
-8.25348e-07
1.00536e-06
2.35717e-09
0.000250263
-2.13882e-09
1.86193e-07
-0.000250389
-6.0182e-08
0.000228047
2.65456e-08
3.73845e-09
-0.000228016
4.26395e-08
0.000191543
-9.35348e-09
-0.000191572
-3.66668e-08
0.00019157
-1.12355e-09
-0.000191542
6.04954e-08
0.000228018
-2.6713e-08
1.23285e-09
-0.000228051
0.000250355
-1.85566e-07
3.95749e-09
-0.000250235
0.00116366
7.80548e-09
1.00548e-06
-8.25378e-07
8.23576e-07
-1.0059e-06
-0.00116366
-1.93142e-08
9.86797e-08
0.00024412
1.12047e-08
-0.000244168
6.45519e-09
0.00114157
1.28362e-06
6.47009e-09
-9.16376e-07
2.53885e-07
9.11561e-07
-2.635e-07
-1.2793e-06
2.78983e-07
-2.80944e-07
0.00116366
9.61336e-09
-1.00622e-06
8.23309e-07
-8.25756e-07
1.00505e-06
0.000244166
2.49615e-08
-1.77055e-08
-0.000244119
-9.07852e-08
0.000250237
1.86458e-07
-1.43012e-09
-0.000250359
6.06547e-08
1.45114e-09
-9.4327e-10
-2.68485e-08
0.000228049
-3.72998e-08
-0.000191589
5.29442e-10
4.23727e-08
-7.67635e-09
0.000191591
-6.0519e-08
8.29804e-10
-0.000228046
1.66678e-09
2.67842e-08
2.39638e-09
-2.12576e-09
1.83954e-07
0.000250262
6.51012e-09
4.39508e-09
1.24938e-06
-2.75297e-07
2.73752e-07
9.1184e-07
-2.65634e-07
2.57356e-07
-9.1599e-07
0.000244242
-9.383e-08
-0.000244188
-1.8678e-08
-0.00116376
-2.63939e-09
0.00116377
3.72386e-09
-1.00622e-06
8.23452e-07
-8.25659e-07
1.00508e-06
1.50765e-08
1.00874e-07
0.000244189
4.15949e-09
7.51297e-09
1.00503e-06
-8.25365e-07
-1.00619e-06
8.23646e-07
-8.95089e-10
0.000250382
-0.000250261
2.18075e-09
-1.83318e-07
6.09682e-08
-2.69603e-08
9.92994e-10
0.000228013
-3.68073e-08
9.75502e-09
0.000191567
-0.000191539
-7.16718e-10
4.27831e-08
-4.4958e-09
-9.0617e-09
0.000191541
-6.01513e-08
0.000228042
-0.000228011
2.66617e-08
3.37911e-09
1.84324e-07
-1.14014e-09
0.000250236
4.8562e-09
-1.27914e-06
5.87126e-09
9.11287e-07
-2.63689e-07
-9.16443e-07
2.5376e-07
1.2837e-06
-2.80677e-07
2.79298e-07
-0.00116366
0.00116367
5.18369e-09
-1.0068e-06
8.23106e-07
-8.26033e-07
1.00457e-06
2.46014e-08
0.000244163
-9.06013e-08
-0.000244117
-1.74336e-08
8.67784e-09
1.00454e-06
-8.25706e-07
-1.00658e-06
8.23307e-07
-1.93709e-08
1.12352e-08
9.89826e-08
0.000244118
0.000250351
-0.000250233
-1.82877e-07
4.03067e-09
-1.61673e-10
0.000228065
1.62779e-09
2.92594e-08
-0.000228034
0.000191595
-5.55023e-09
-0.000191623
0.000191623
2.30319e-09
-0.000191595
1.32102e-10
0.000228033
-8.49473e-10
-2.81842e-08
-0.000228064
6.16869e-08
0.000250339
-1.82218e-07
3.01102e-09
-0.000250223
0.00116352
1.53708e-10
1.00156e-06
-8.20628e-07
8.22786e-07
-9.98923e-07
-0.00116351
-4.07805e-08
1.01496e-07
0.000244145
1.33503e-08
-0.000244197
9.17166e-09
0.00114121
4.51159e-09
-1.27772e-06
2.74455e-07
-2.79308e-07
-9.05664e-07
2.5328e-07
-2.58519e-07
9.05791e-07
0.00116352
6.25939e-09
-9.98847e-07
8.22575e-07
-8.20834e-07
1.00153e-06
3.87403e-08
0.000244198
-1.54312e-08
-0.000244145
-9.76076e-08
-5.91208e-08
0.000250223
1.79467e-07
-2.17339e-09
-0.000250339
0.000228023
2.72948e-08
1.60187e-09
-0.00022799
-6.51703e-09
0.000191535
-5.94394e-09
-0.000191563
0.000191564
7.60764e-09
2.39428e-09
-0.000191535
0.00022799
-2.59916e-08
-6.52423e-10
-0.000228022
-5.91054e-08
1.48499e-09
-1.91367e-09
1.8196e-07
0.000250252
5.59273e-09
-1.10498e-09
1.25005e-06
-2.76832e-07
2.718e-07
9.08102e-07
-2.63742e-07
-9.08828e-07
2.59045e-07
3.86856e-08
-9.7906e-08
-0.000244228
-1.50946e-08
-0.00116359
2.07028e-09
1.34999e-09
-9.98614e-07
8.22375e-07
1.00124e-06
-8.20827e-07
-4.08113e-08
1.63726e-08
1.01392e-07
0.000244227
6.71136e-09
3.01795e-10
1.00131e-06
-8.17807e-07
-9.95893e-07
8.22614e-07
6.195e-08
-1.69694e-09
-0.000250253
2.13033e-09
-1.84938e-07
-8.50133e-11
-7.01636e-10
-2.81741e-08
0.000228034
0.000191624
-0.000191595
1.94888e-09
-5.55796e-09
0.000191595
-3.88189e-10
0.000228067
-0.000228035
1.62375e-09
2.94498e-08
-5.9283e-08
1.79684e-07
-2.71838e-09
0.000250222
8.37417e-09
-1.27765e-06
-8.0702e-09
9.05413e-07
-2.58476e-07
-9.05959e-07
2.53297e-07
1.27886e-06
-2.79219e-07
2.74592e-07
-0.00116354
0.00116354
1.4795e-09
-9.98162e-07
8.22116e-07
-8.21294e-07
1.0023e-06
3.88422e-08
2.21393e-08
0.000244198
-9.53629e-08
-0.000244148
-1.53649e-08
-6.43722e-09
1.00195e-06
-8.20847e-07
-9.98895e-07
8.22447e-07
-4.06696e-08
-2.21106e-08
1.35764e-08
1.0138e-07
0.000244145
6.17797e-08
0.000250341
-0.000250222
-1.8462e-07
2.24029e-09
-2.61091e-08
-1.1612e-09
0.000227991
7.58641e-09
0.000191564
-0.000191536
2.68926e-09
-6.77555e-09
-5.42297e-09
0.000191536
0.000228025
-0.000227992
2.73761e-08
1.17573e-09
4.37496e-08
0.00027582
-7.77093e-09
-0.000275852
-1.99247e-08
4.37474e-08
0.000275945
-1.52213e-08
-0.000275977
0.000271926
-0.000269888
2.41013e-07
2.48532e-07
0.000275851
1.44783e-08
-0.000275819
-3.84095e-08
2.06399e-08
0.000275977
1.19414e-08
-0.000275945
-4.3338e-08
7.52823e-09
9.67914e-05
-9.68189e-05
9.68185e-05
-6.70574e-09
-9.67912e-05
-1.75954e-08
-9.67719e-05
2.30322e-08
9.6772e-05
1.24452e-06
0.000269888
-2.41633e-07
-2.43923e-07
0.000275849
-3.8344e-08
-0.000275817
1.38636e-08
2.03775e-08
-2.10395e-08
0.000275977
-4.32444e-08
-0.000275946
1.22738e-08
-7.82634e-09
4.39031e-08
0.000275818
-1.99002e-08
2.32277e-08
-1.52894e-08
4.35818e-08
0.000275945
-7.11625e-09
9.68186e-05
-9.67911e-05
7.56475e-09
9.67911e-05
6.09911e-08
0.000250334
-1.84042e-07
4.58028e-09
-0.000250216
0.00116339
4.05749e-09
1.00284e-06
-8.2158e-07
8.21743e-07
-1.00253e-06
-0.00116339
-4.17431e-08
1.00029e-07
0.000244113
1.21152e-08
-0.000244163
7.01068e-09
0.00114223
2.82124e-09
-1.23986e-06
2.73052e-07
-2.75545e-07
-9.12029e-07
2.57853e-07
-2.64945e-07
9.09903e-07
0.00116339
5.06315e-09
-1.00234e-06
8.21593e-07
-8.21686e-07
1.0029e-06
3.76866e-08
0.000244162
-1.68936e-08
-0.000244112
-9.43721e-08
-5.96171e-08
0.000250217
1.82854e-07
-1.9608e-09
-0.000250336
8.66535e-10
0.000228047
1.0521e-09
2.92605e-08
-0.000228017
0.00019158
-4.65909e-09
-0.000191608
0.000191608
3.54014e-09
-0.00019158
1.44406e-09
0.000228018
-1.74839e-09
-2.82042e-08
-0.000228049
0.000228007
2.90939e-09
3.11622e-08
-0.000227979
-5.27032e-09
0.000191524
-7.81045e-09
-0.000191553
0.000191552
9.13117e-09
1.76833e-10
-0.000191524
0.00022798
6.88618e-10
-3.04564e-08
-0.000228008
1.78576e-09
-5.95124e-08
1.82545e-07
-2.91775e-09
0.000250241
1.10867e-08
-6.76714e-10
1.24405e-06
-2.77785e-07
2.71046e-07
9.08078e-07
-2.63982e-07
-9.09188e-07
2.58945e-07
-0.00116346
-1.09607e-08
2.79349e-09
-9.99027e-07
8.21823e-07
1.00098e-06
-8.21424e-07
3.88921e-08
-9.54547e-08
-0.000244211
-1.41919e-08
2.14715e-09
1.62234e-09
1.00104e-06
-8.21185e-07
-9.99239e-07
8.22092e-07
-4.06649e-08
1.47184e-08
9.91134e-08
0.000244211
-1.96928e-10
6.14501e-08
-0.00025024
-1.84352e-07
1.72612e-09
-5.97796e-08
1.83038e-07
-2.26932e-09
0.000250215
5.57952e-09
-1.23975e-06
2.37338e-09
9.0967e-07
-2.64966e-07
-9.12314e-07
2.57873e-07
1.2432e-06
-2.75358e-07
2.73303e-07
-0.0011634
0.0011634
4.91571e-09
-1.00241e-06
8.21363e-07
-8.21936e-07
1.00288e-06
3.78861e-08
2.36085e-08
0.000244161
-9.43922e-08
-0.000244111
-1.67528e-08
3.64659e-09
1.00272e-06
-8.21724e-07
-1.0023e-06
8.21568e-07
-4.17324e-08
-2.03822e-08
1.21333e-08
1.0005e-07
0.000244112
6.10388e-08
0.000250333
-0.000250215
-1.83942e-07
4.25524e-09
1.2649e-09
-1.89934e-09
-2.82837e-08
0.000228017
0.000191608
-0.00019158
3.274e-09
-4.51756e-09
0.00019158
9.70846e-10
0.000228047
-0.000228016
6.33513e-10
2.93926e-08
1.6017e-11
-3.04547e-08
0.000227979
8.73843e-09
0.000191551
-0.000191523
7.61255e-10
-5.40098e-09
-7.49394e-09
0.000191523
0.000228006
-0.000227978
3.0913e-09
3.13552e-08
9.67752e-05
-9.68024e-05
9.6803e-05
-9.67755e-05
9.67681e-05
-9.67954e-05
9.67955e-05
-9.67681e-05
0.000269863
-2.39125e-07
-2.43003e-07
1.98126e-08
-4.27031e-08
-0.000275897
1.02563e-08
1.86846e-08
-4.17039e-08
-0.000275815
1.2632e-08
-2.05846e-08
-1.1018e-08
4.62724e-08
0.000275894
-2.20042e-08
-9.36805e-09
4.51931e-08
0.000275815
9.68031e-05
-9.67757e-05
9.67756e-05
9.67956e-05
-9.67682e-05
9.67681e-05
2.00104e-08
9.67998e-05
2.22429e-08
9.67809e-05
2.30461e-08
4.55373e-08
-1.41982e-08
0.000275939
1.81881e-08
4.76887e-08
-8.47161e-09
0.000275853
4.41435e-08
-8.78087e-09
0.000191561
5.93507e-08
0.000228041
-2.61823e-08
1.37402e-09
1.00777e-07
1.49256e-08
0.000244239
5.3935e-09
3.2406e-09
1.00436e-06
-8.234e-07
-1.00182e-06
8.25318e-07
2.71745e-09
0.000250281
-3.00522e-09
1.81892e-07
-1.94629e-08
1.02586e-07
1.10888e-08
0.000244134
5.17067e-09
1.00621e-06
-8.23844e-07
-1.00482e-06
8.2492e-07
0.000250255
-6.5681e-10
1.82331e-07
4.5168e-08
-8.47666e-09
0.000275822
-2.05995e-08
4.58012e-08
-1.0859e-08
0.000275961
6.46133e-09
1.00588e-07
1.51665e-08
0.000244186
5.41342e-09
2.29721e-09
1.00503e-06
-8.25279e-07
-1.00627e-06
8.23512e-07
2.44502e-09
0.000250259
-2.35735e-09
1.83951e-07
4.26579e-08
-8.59975e-09
0.000191538
6.09322e-08
0.000228008
-2.67463e-08
6.78545e-10
3.92519e-09
1.00447e-06
-8.25548e-07
-1.00683e-06
8.23221e-07
-1.98027e-08
9.91354e-08
1.1562e-08
0.000244115
0.000250232
1.84168e-07
-1.20279e-09
-3.00168e-10
-0.000228037
2.95049e-08
-5.8701e-09
0.000191596
-3.61881e-10
0.000228037
-5.25629e-10
-2.81137e-08
6.18944e-08
-0.000250222
-1.87613e-07
2.72645e-09
0.00116358
-1.84257e-08
1.00173e-06
-8.18094e-07
8.22536e-07
-9.95792e-07
-4.07462e-08
9.66677e-08
1.60301e-08
0.000244148
1.41908e-08
-2.41924e-07
-1.2858e-06
2.72079e-07
-2.84823e-07
-9.02908e-07
2.61271e-07
-2.58607e-07
9.11047e-07
-5.93191e-08
0.000250222
1.82297e-07
-2.79588e-09
-5.38114e-08
-9.95925e-07
8.25387e-07
-8.21095e-07
1.00426e-06
3.8649e-08
-1.76615e-08
-0.000244148
-9.76865e-08
-0.000227992
2.74444e-08
1.34438e-09
-6.83449e-09
-5.36795e-09
0.000191536
0.000227992
-2.60539e-08
-1.48926e-09
7.61529e-09
2.44623e-09
-0.000191536
4.38862e-08
-8.45863e-09
0.000275816
-2.01599e-08
4.36428e-08
-1.23616e-08
0.000275943
7.1242e-09
9.67913e-05
6.1236e-08
-0.000250214
-1.84316e-07
3.47689e-09
0.00116342
-2.83771e-09
1.00308e-06
-8.21377e-07
8.21804e-07
-1.00237e-06
-4.15871e-08
1.00083e-07
1.22456e-08
0.000244111
2.04469e-07
-2.05322e-08
-1.2071e-06
2.81545e-07
-2.67182e-07
-9.08789e-07
2.57844e-07
-2.64958e-07
9.10385e-07
-5.96472e-08
0.000250214
1.82851e-07
-2.47847e-09
-4.59842e-08
-9.99334e-07
8.21746e-07
-8.18876e-07
1.00307e-06
3.80036e-08
-1.68472e-08
-0.000244111
-9.45235e-08
6.60792e-10
-0.000228016
1.00401e-09
2.95368e-08
-4.90795e-09
0.00019158
1.2424e-09
0.000228016
-1.94354e-09
-2.8085e-08
-0.000227977
2.61354e-09
3.14054e-08
-5.68312e-09
-7.1877e-09
0.000191523
0.000227977
1.10745e-10
-3.02187e-08
8.92595e-09
4.71734e-10
-0.000191523
9.67756e-05
-9.67753e-05
9.67683e-05
-9.67684e-05
1.13097e-09
2.54499e-08
0.000141766
-2.2784e-09
-0.000141791
-0.000169224
-1.28165e-09
1.79134e-09
0.000169251
-0.000221879
2.71624e-08
2.16999e-09
0.000221914
-6.40945e-08
-2.60159e-08
-2.79047e-09
-0.000228117
1.86963e-09
5.93914e-08
-0.00016925
1.80472e-09
-3.56591e-09
-0.000221914
6.10764e-08
1.29826e-09
0.000141791
-2.65326e-08
-7.82902e-05
7.83178e-05
-1.14424e-09
4.3465e-09
0.000191652
6.59774e-09
-3.92284e-08
0.000260858
-2.54506e-08
3.52441e-09
5.48945e-08
-0.000260895
0.000260894
-2.13835e-09
-5.63048e-08
2.33878e-09
-7.83179e-05
2.55291e-08
7.829e-05
-0.000260857
2.63076e-08
0.000260894
-5.6259e-08
-3.75983e-09
-7.63724e-09
4.02719e-08
5.50177e-08
7.83176e-05
1.43065e-09
-2.72428e-08
-0.000141766
2.72733e-08
-2.57087e-10
1.96079e-09
-6.14321e-08
0.000169224
-1.15141e-09
1.90593e-09
-0.00016925
0.00022188
-2.5438e-08
6.11146e-08
-0.000221914
1.84788e-09
-6.40969e-08
-0.00014179
9.68109e-05
-9.45194e-09
-2.02736e-08
4.85507e-09
2.47043e-08
2.63968e-08
-5.70872e-10
0.000141745
-3.06675e-10
-0.00014177
-0.00022185
2.62816e-08
4.76758e-09
0.000221883
-6.27501e-08
-0.000169197
3.19723e-10
1.04674e-09
0.000169222
-1.24621e-09
-2.6627e-08
-0.000228085
1.46137e-09
6.04382e-08
-8.87512e-10
-0.000221887
6.25338e-08
-0.000169225
1.13179e-09
3.24103e-09
0.000141768
-2.42364e-08
-7.82813e-05
7.83087e-05
-3.15442e-09
2.53564e-10
0.000191622
9.19715e-09
-3.72113e-08
0.000260829
-2.76849e-08
1.00043e-09
5.68622e-08
-0.000260867
0.000260864
-4.72652e-09
-5.43307e-08
4.27512e-10
-7.83095e-05
2.77922e-08
7.82806e-05
-0.000260826
2.41032e-08
0.000260861
-5.43222e-08
-7.76683e-09
-5.18324e-09
4.23211e-08
5.70932e-08
7.8308e-05
-2.63542e-08
-3.17269e-10
-0.000141747
1.33461e-09
2.6789e-08
1.41857e-09
-6.06052e-08
0.000221854
-2.6413e-08
6.26663e-08
-0.00022189
0.0001692
5.68488e-10
1.21993e-09
-0.000169228
-6.26802e-08
1.20239e-09
-0.000141772
9.67998e-05
-9.9409e-09
-1.72313e-08
4.40921e-09
2.30907e-08
-1.18256e-08
-1.32568e-08
0.000211953
2.28218e-08
2.1328e-08