/*--------------------------------*- C++ -*----------------------------------*\
| =========                 |                                                 |
| \\      /  F ield         | OpenFOAM: The Open Source CFD Toolbox           |
|  \\    /   O peration     | Version:  2312                                  |
|   \\  /    A nd           | Website:  www.openfoam.com                      |
|    \\/     M anipulation  |                                                 |
\*---------------------------------------------------------------------------*/
FoamFile
{
    version     2.0;
    format      ascii;
    arch        "LSB;label=32;scalar=64";
    class       volScalarField;
    location    "300";
    object      epsilon;
}
// * * * * * * * * * * * * * * * * * * * * * * * * * * * * * * * * * * * * * //

dimensions      [0 2 -3 0 0 0 0];

internalField   nonuniform List<scalar> 
43168
(
6.54431e-07
1.20302e-06
1.20272e-06
1.43343e-06
1.43241e-06
1.20228e-06
1.20262e-06
1.4324e-06
1.20241e-06
1.2024e-06
1.20254e-06
1.20226e-06
1.43216e-06
1.20218e-06
1.20196e-06
1.4316e-06
1.43425e-06
1.20269e-06
1.20292e-06
1.43487e-06
1.20282e-06
1.2026e-06
1.20243e-06
1.4339e-06
1.20213e-06
9.5079e-06
9.51119e-06
6.5355e-07
6.54026e-07
6.54268e-07
6.53982e-07
4.25457e-06
9.51065e-06
4.25422e-06
9.51311e-06
1.89561e-05
1.89603e-05
4.25485e-06
9.51449e-06
4.25462e-06
9.51628e-06
6.54502e-07
6.54599e-07
6.54284e-07
2.31903e-06
3.66391e-06
9.43789e-07
1.20328e-06
2.31899e-06
3.66409e-06
9.44096e-07
1.89543e-05
1.89589e-05
2.31926e-06
9.43426e-07
3.6638e-06
1.20295e-06
2.31899e-06
9.43734e-07
3.66395e-06
5.64909e-06
5.65069e-06
1.43208e-06
5.64926e-06
5.65097e-06
1.89491e-05
1.89542e-05
1.43169e-06
5.64884e-06
5.65076e-06
1.89532e-05
1.89483e-05
1.89583e-05
1.89534e-05
1.43336e-06
5.65002e-06
5.6521e-06
5.64962e-06
5.65157e-06
1.20141e-06
3.66216e-06
4.25329e-06
9.51061e-06
9.50824e-06
4.2536e-06
4.2533e-06
9.51131e-06
9.50947e-06
4.25352e-06
2.31843e-06
1.20185e-06
3.66314e-06
9.42498e-07
3.66287e-06
9.41849e-07
2.31852e-06
2.31844e-06
1.2021e-06
3.66421e-06
9.42687e-07
3.66421e-06
9.42015e-07
2.31861e-06
1.89574e-05
1.89528e-05
1.43417e-06
5.65279e-06
5.6506e-06
5.65265e-06
1.89567e-05
1.20152e-06
3.66299e-06
4.2537e-06
9.51392e-06
9.51179e-06
4.25404e-06
2.31894e-06
1.20198e-06
3.66406e-06
9.43338e-07
3.6637e-06
9.42577e-07
2.31916e-06
4.25311e-06
9.51036e-06
9.5079e-06
4.2533e-06
2.31852e-06
1.20181e-06
9.43255e-07
3.66238e-06
9.42489e-07
3.66229e-06
2.31856e-06
3.66313e-06
9.43106e-07
2.31847e-06
9.51202e-06
4.25344e-06
9.43252e-07
3.66222e-06
2.31843e-06
9.5103e-06
4.25341e-06
1.89552e-05
1.89502e-05
1.43311e-06
5.6505e-06
5.64993e-06
5.65022e-06
5.64964e-06
1.89548e-05
1.895e-05
2.31831e-06
1.20177e-06
9.427e-07
3.66303e-06
9.42166e-07
3.66287e-06
2.31842e-06
2.31824e-06
1.2014e-06
9.42925e-07
3.66218e-06
9.4214e-07
3.66204e-06
2.31845e-06
4.25331e-06
9.51149e-06
9.50933e-06
4.2536e-06
4.25324e-06
9.51007e-06
9.50759e-06
4.25346e-06
1.43267e-06
5.64821e-06
5.64981e-06
5.64953e-06
1.89525e-05
1.89543e-05
1.89491e-05
1.89522e-05
1.89568e-05
1.89574e-05
1.89618e-05
5.65095e-06
5.65304e-06
1.43296e-06
5.65125e-06
5.65347e-06
1.89557e-05
1.89607e-05
1.43541e-06
5.65213e-06
5.65435e-06
4.25436e-06
9.5119e-06
4.25406e-06
9.5136e-06
2.31922e-06
3.6639e-06
9.42943e-07
1.2031e-06
2.31909e-06
3.66408e-06
9.43503e-07
2.31925e-06
3.66496e-06
9.43087e-07
1.20326e-06
2.31905e-06
3.66491e-06
9.43629e-07
4.25513e-06
9.5137e-06
4.25492e-06
9.51366e-06
2.3198e-06
1.2034e-06
3.66484e-06
9.43876e-07
2.31962e-06
1.20348e-06
3.66559e-06
9.43956e-07
5.65371e-06
5.65145e-06
1.4331e-06
5.65373e-06
5.6517e-06
1.89557e-05
1.89602e-05
1.89589e-05
1.43552e-06
5.6546e-06
5.65255e-06
1.89591e-05
2.31965e-06
3.66486e-06
9.43606e-07
1.20321e-06
2.31958e-06
3.66508e-06
9.4412e-07
4.25401e-06
9.51098e-06
4.25381e-06
9.51292e-06
2.31892e-06
9.43509e-07
3.66307e-06
1.20301e-06
2.31908e-06
9.44018e-07
3.66319e-06
4.25537e-06
9.51627e-06
2.32018e-06
1.20352e-06
3.66582e-06
9.44472e-07
4.25456e-06
9.513e-06
2.31946e-06
1.20327e-06
9.44357e-07
3.66392e-06
4.25409e-06
9.51225e-06
4.25398e-06
9.51463e-06
2.31891e-06
9.43479e-07
3.66279e-06
1.2028e-06
2.31893e-06
9.43973e-07
3.6626e-06
4.25394e-06
9.51027e-06
4.25382e-06
9.51236e-06
2.31944e-06
1.20377e-06
3.66484e-06
9.44714e-07
4.2547e-06
9.5148e-06
2.31936e-06
1.20304e-06
9.44303e-07
3.66328e-06
4.25449e-06
9.51293e-06
5.65131e-06
5.65078e-06
1.43262e-06
5.65156e-06
5.6511e-06
1.89538e-05
1.89583e-05
1.89579e-05
1.43504e-06
5.65242e-06
5.65194e-06
1.89571e-05
2.3192e-06
9.43184e-07
3.6629e-06
1.20252e-06
2.31892e-06
9.43717e-07
3.66315e-06
4.25443e-06
9.51151e-06
4.25421e-06
9.51363e-06
4.25434e-06
9.51064e-06
4.25412e-06
9.51261e-06
2.31965e-06
1.20344e-06
9.44413e-07
3.66467e-06
2.31956e-06
1.20279e-06
9.44076e-07
3.66393e-06
4.25503e-06
9.51408e-06
4.25502e-06
9.51314e-06
1.89516e-05
1.89564e-05
1.89534e-05
1.89583e-05
1.43431e-06
5.65006e-06
5.65182e-06
1.89554e-05
1.89574e-05
2.26005e-05
7.23771e-06
9.50657e-06
7.23817e-06
2.26058e-05
9.51e-06
1.25695e-05
4.25469e-06
1.11648e-05
4.89909e-06
1.11638e-05
4.89923e-06
1.25708e-05
2.2613e-05
7.24046e-06
9.51179e-06
2.26081e-05
7.2399e-06
1.25693e-05
4.25407e-06
1.11623e-05
4.8987e-06
1.25679e-05
1.11635e-05
4.89854e-06
2.26101e-05
7.24057e-06
9.51222e-06
7.24114e-06
2.26149e-05
1.89589e-05
1.89575e-05
1.25729e-05
4.25502e-06
4.89946e-06
1.11679e-05
4.89965e-06
1.11669e-05
1.25741e-05
2.26171e-05
7.24071e-06
9.51523e-06
2.26122e-05
7.24015e-06
1.25729e-05
4.25444e-06
4.89918e-06
1.11657e-05
1.25717e-05
4.89899e-06
1.11667e-05
2.26142e-05
7.24085e-06
9.51569e-06
7.24141e-06
2.2619e-05
1.89571e-05
1.89561e-05
9.95076e-06
2.22519e-05
2.22513e-05
2.22475e-05
2.22469e-05
9.94982e-06
4.72084e-06
2.99968e-06
9.87461e-06
5.64871e-06
4.72138e-06
2.99948e-06
9.87555e-06
4.72677e-06
3.00067e-06
9.87938e-06
5.65035e-06
4.72729e-06
3.00042e-06
9.88028e-06
9.94901e-06
2.22454e-05
2.22449e-05
9.94991e-06
2.22499e-05
2.22493e-05
4.72173e-06
9.8767e-06
5.6496e-06
2.99981e-06
3.00002e-06
9.87578e-06
4.72123e-06
4.72759e-06
9.88147e-06
5.65125e-06
3.00065e-06
3.00086e-06
9.88058e-06
4.7271e-06
1.89461e-05
1.89512e-05
9.9511e-06
2.22501e-05
2.22498e-05
2.22455e-05
2.22452e-05
9.95024e-06
4.72232e-06
9.8754e-06
5.64912e-06
2.99981e-06
9.87458e-06
4.72181e-06
3e-06
4.72808e-06
9.88114e-06
5.65097e-06
3.00091e-06
9.88011e-06
4.7276e-06
3.00109e-06
1.89503e-05
1.89512e-05
1.89555e-05
1.89564e-05
9.95122e-06
2.22477e-05
2.22474e-05
9.95208e-06
2.22522e-05
2.22519e-05
4.72333e-06
3.00047e-06
5.65032e-06
9.87774e-06
9.87686e-06
3.00068e-06
4.72277e-06
4.72914e-06
3.0017e-06
5.65234e-06
9.8839e-06
9.88275e-06
3.00187e-06
4.72864e-06
4.72232e-06
9.87574e-06
3.00031e-06
5.64937e-06
4.72283e-06
9.87662e-06
3.00012e-06
4.72813e-06
9.88146e-06
3.00144e-06
5.65137e-06
4.72861e-06
9.88252e-06
3.00126e-06
9.95298e-06
2.22541e-05
2.22539e-05
2.22497e-05
2.22495e-05
9.95213e-06
1.2566e-05
1.11594e-05
4.8976e-06
4.25311e-06
1.25645e-05
1.11605e-05
4.89741e-06
2.26058e-05
9.50959e-06
7.2392e-06
2.26108e-05
7.23972e-06
2.26084e-05
7.23888e-06
9.50934e-06
2.26033e-05
7.23842e-06
1.25662e-05
4.25372e-06
1.1162e-05
4.89798e-06
1.25677e-05
1.11609e-05
4.89811e-06
1.25663e-05
1.11593e-05
4.89779e-06
4.25309e-06
1.25648e-05
1.11604e-05
4.89754e-06
2.26061e-05
9.51075e-06
7.23787e-06
7.23842e-06
2.2611e-05
2.26088e-05
7.23788e-06
9.51022e-06
2.26039e-05
7.23724e-06
1.25664e-05
4.25367e-06
1.11618e-05
4.89802e-06
1.11608e-05
4.89819e-06
1.25678e-05
1.89545e-05
1.89557e-05
4.73025e-06
3.00245e-06
5.65319e-06
9.88501e-06
3.00266e-06
9.88426e-06
4.72966e-06
4.7242e-06
3.00115e-06
5.6509e-06
9.87946e-06
9.87862e-06
3.00135e-06
4.72362e-06
3.0024e-06
5.6522e-06
3.00217e-06
9.95445e-06
2.22553e-05
2.22561e-05
2.2251e-05
2.22516e-05
9.95327e-06
1.89536e-05
1.257e-05
4.89804e-06
1.1163e-05
4.25358e-06
1.25684e-05
4.89791e-06
1.1164e-05
2.26099e-05
9.51289e-06
7.23945e-06
2.26149e-05
7.23997e-06
2.26126e-05
7.23921e-06
9.51251e-06
2.26075e-05
7.2387e-06
1.25702e-05
4.25418e-06
4.89848e-06
1.11654e-05
1.25716e-05
4.89861e-06
1.11645e-05
1.2567e-05
1.11618e-05
4.89661e-06
4.25293e-06
1.25656e-05
1.11629e-05
4.8964e-06
2.2605e-05
9.50961e-06
7.23621e-06
7.23681e-06
2.26099e-05
2.26077e-05
7.23619e-06
9.50945e-06
2.26027e-05
7.23561e-06
1.25672e-05
4.25348e-06
1.11641e-05
4.8968e-06
1.11631e-05
4.89702e-06
1.25686e-05
2.26067e-05
9.5113e-06
7.23853e-06
7.23927e-06
2.26121e-05
1.25674e-05
4.25371e-06
4.89748e-06
1.1164e-05
4.89784e-06
1.11629e-05
1.25689e-05
2.26054e-05
9.50917e-06
7.23637e-06
7.237e-06
2.26104e-05
1.25669e-05
4.25369e-06
1.11637e-05
4.89693e-06
1.11627e-05
4.89715e-06
1.25684e-05
1.89523e-05
1.89532e-05
9.94964e-06
2.22454e-05
2.22463e-05
9.95049e-06
2.22499e-05
2.22508e-05
4.72821e-06
3.00093e-06
5.6508e-06
9.88123e-06
3.00107e-06
9.88025e-06
4.72767e-06
4.72235e-06
3.00004e-06
5.65023e-06
9.87744e-06
9.87642e-06
3.00022e-06
4.72183e-06
4.72726e-06
9.87907e-06
3.00071e-06
5.64992e-06
3.00055e-06
4.72772e-06
9.88005e-06
4.72141e-06
9.87527e-06
2.99985e-06
5.64934e-06
4.72187e-06
9.8762e-06
2.99967e-06
9.95131e-06
2.22518e-05
2.22527e-05
2.22474e-05
2.22483e-05
9.95045e-06
1.89519e-05
1.89529e-05
1.25655e-05
4.89736e-06
1.11594e-05
4.25313e-06
1.2564e-05
4.89722e-06
1.11605e-05
2.26042e-05
9.51071e-06
7.23853e-06
7.23912e-06
2.26092e-05
2.26069e-05
7.23858e-06
9.51024e-06
2.2602e-05
7.23797e-06
1.25658e-05
4.25378e-06
4.89774e-06
1.11619e-05
4.89788e-06
1.11608e-05
1.25674e-05
1.25659e-05
4.89706e-06
1.11592e-05
4.253e-06
1.25642e-05
4.89684e-06
1.11604e-05
2.26043e-05
9.50897e-06
7.23665e-06
7.23721e-06
2.26094e-05
2.2607e-05
7.23649e-06
9.50877e-06
2.26018e-05
7.23595e-06
1.2566e-05
4.2537e-06
4.89736e-06
1.11617e-05
4.89759e-06
1.11606e-05
1.25677e-05
9.94748e-06
2.22458e-05
2.22453e-05
4.72113e-06
2.99914e-06
5.64853e-06
9.87439e-06
4.72048e-06
2.99933e-06
9.8735e-06
4.72715e-06
3.00027e-06
5.6501e-06
9.87911e-06
4.72645e-06
3.00052e-06
9.87827e-06
4.72026e-06
5.64763e-06
2.9988e-06
9.87328e-06
4.72634e-06
3.0004e-06
5.64922e-06
3.00015e-06
9.87804e-06
9.949e-06
2.22479e-05
2.22473e-05
9.94813e-06
2.22434e-05
2.22428e-05
1.89496e-05
1.89504e-05
1.89513e-05
1.89521e-05
1.89551e-05
1.8954e-05
1.89602e-05
1.89591e-05
9.9548e-06
2.22575e-05
2.22573e-05
2.22532e-05
2.22531e-05
9.95379e-06
4.72326e-06
3.00101e-06
9.87791e-06
5.65065e-06
4.72378e-06
9.87894e-06
3.00081e-06
4.7292e-06
3.0023e-06
9.88422e-06
5.65281e-06
4.72967e-06
9.88534e-06
3.00213e-06
9.95304e-06
2.22515e-05
2.22514e-05
9.95395e-06
2.22559e-05
2.22558e-05
4.72424e-06
9.87993e-06
5.65157e-06
3.00117e-06
9.87906e-06
4.72372e-06
3.00137e-06
4.73017e-06
9.88659e-06
5.65374e-06
3.00255e-06
9.88556e-06
4.72969e-06
3.00273e-06
1.89584e-05
1.89633e-05
9.95444e-06
2.22547e-05
2.22546e-05
9.95549e-06
2.22589e-05
2.22587e-05
4.72417e-06
9.88011e-06
3.00172e-06
5.65179e-06
4.72472e-06
9.881e-06
3.00152e-06
4.73017e-06
9.88688e-06
3.00314e-06
5.65402e-06
4.73068e-06
9.88779e-06
3.00295e-06
1.25694e-05
4.2545e-06
1.11645e-05
4.89891e-06
1.11636e-05
4.8991e-06
1.25706e-05
2.26131e-05
7.23898e-06
9.51239e-06
2.26082e-05
7.23845e-06
1.25694e-05
4.25391e-06
1.11621e-05
4.89864e-06
1.11633e-05
1.2568e-05
4.89847e-06
2.26102e-05
7.23908e-06
9.51283e-06
7.23963e-06
2.2615e-05
1.25721e-05
1.11651e-05
4.89973e-06
4.25498e-06
1.25708e-05
1.1166e-05
4.89955e-06
2.26166e-05
7.24173e-06
9.51426e-06
2.26119e-05
7.24115e-06
1.25718e-05
1.11648e-05
4.89952e-06
4.25475e-06
1.25706e-05
1.11657e-05
4.89929e-06
2.26167e-05
7.2402e-06
9.51448e-06
2.2612e-05
7.23961e-06
9.95539e-06
2.22576e-05
2.22585e-05
2.22535e-05
2.22543e-05
9.95419e-06
4.73e-06
3.00292e-06
9.88529e-06
5.65328e-06
9.88613e-06
4.73054e-06
3.00272e-06
4.72394e-06
3.00163e-06
9.87962e-06
5.65114e-06
3.0014e-06
4.72452e-06
9.88055e-06
9.9538e-06
2.22522e-05
2.2253e-05
2.22564e-05
9.9549e-06
2.22572e-05
4.7308e-06
9.8869e-06
5.6542e-06
3.00297e-06
9.88613e-06
3.00318e-06
4.73024e-06
4.72482e-06
9.88162e-06
5.65201e-06
3.00163e-06
3.00187e-06
9.88063e-06
4.72423e-06
1.89585e-05
1.89574e-05
1.89615e-05
9.9546e-06
2.22546e-05
2.22556e-05
9.95576e-06
2.22587e-05
2.22596e-05
4.73046e-06
9.88684e-06
3.00335e-06
5.65411e-06
3.00312e-06
4.73107e-06
9.88755e-06
4.72454e-06
9.88189e-06
3.00211e-06
5.65224e-06
4.72513e-06
9.88283e-06
3.00187e-06
1.89619e-05
1.25701e-05
4.25419e-06
1.11666e-05
4.89764e-06
1.11656e-05
4.89783e-06
1.25714e-05
2.26121e-05
7.23734e-06
9.51176e-06
2.26072e-05
7.23676e-06
1.25701e-05
4.25363e-06
1.11644e-05
4.89737e-06
1.11654e-05
1.25687e-05
4.89718e-06
2.26092e-05
7.23735e-06
9.51183e-06
7.23794e-06
2.26141e-05
1.25751e-05
4.90007e-06
1.11681e-05
4.25519e-06
1.25739e-05
4.89983e-06
1.11691e-05
2.26207e-05
7.24204e-06
9.51732e-06
2.2616e-05
7.24145e-06
1.25728e-05
1.11668e-05
4.89828e-06
4.25439e-06
1.25715e-05
1.11678e-05
4.89811e-06
2.2616e-05
7.23852e-06
9.51399e-06
2.26112e-05
7.23796e-06
1.25705e-05
4.25434e-06
4.89831e-06
1.11666e-05
4.89865e-06
1.11656e-05
1.25719e-05
2.26143e-05
7.23991e-06
9.51351e-06
7.23915e-06
2.26091e-05
1.25705e-05
4.25372e-06
4.89823e-06
1.11642e-05
4.89787e-06
1.2569e-05
1.11653e-05
2.26112e-05
7.23975e-06
9.51353e-06
7.24052e-06
2.26164e-05
1.25701e-05
4.25413e-06
1.11663e-05
4.89778e-06
1.11653e-05
4.89797e-06
1.25716e-05
2.26126e-05
7.23749e-06
9.51167e-06
2.26077e-05
7.23688e-06
1.257e-05
4.2536e-06
1.11639e-05
4.89751e-06
1.25685e-05
1.1165e-05
4.89732e-06
2.26099e-05
7.23743e-06
9.51176e-06
7.23806e-06
2.26148e-05
1.25732e-05
4.89907e-06
1.11669e-05
4.25448e-06
1.25719e-05
4.89873e-06
1.1168e-05
2.26184e-05
7.24107e-06
9.51579e-06
2.26132e-05
7.24032e-06
1.25733e-05
1.11667e-05
4.89844e-06
4.25433e-06
1.25718e-05
1.11678e-05
4.89826e-06
2.26169e-05
7.23859e-06
9.51353e-06
2.2612e-05
7.23799e-06
9.95316e-06
2.22552e-05
2.2256e-05
2.22509e-05
2.22518e-05
9.95212e-06
4.72814e-06
3.00143e-06
9.88147e-06
5.651e-06
9.88239e-06
4.72863e-06
3.00128e-06
4.72231e-06
3.00056e-06
9.87765e-06
5.65049e-06
3.00037e-06
4.72279e-06
9.87877e-06
9.95139e-06
2.22492e-05
2.22501e-05
2.22536e-05
9.95232e-06
2.22544e-05
4.72903e-06
9.88351e-06
5.65187e-06
3.00166e-06
9.88268e-06
3.00181e-06
4.72853e-06
4.72322e-06
9.87997e-06
5.65141e-06
3.00075e-06
3.00093e-06
9.87883e-06
4.72272e-06
1.89566e-05
1.89556e-05
1.89607e-05
9.95274e-06
2.22524e-05
2.22533e-05
9.95382e-06
2.22566e-05
2.22574e-05
4.72892e-06
9.88376e-06
3.00216e-06
5.65213e-06
3.00202e-06
4.72944e-06
9.88478e-06
4.72315e-06
9.88019e-06
3.00125e-06
5.65158e-06
4.72365e-06
9.88131e-06
3.00106e-06
1.89598e-05
1.25688e-05
4.25465e-06
4.89863e-06
1.11643e-05
4.89884e-06
1.11634e-05
1.257e-05
2.26114e-05
7.23964e-06
9.51298e-06
7.23911e-06
2.26065e-05
1.25688e-05
4.25401e-06
4.89837e-06
1.11622e-05
4.8982e-06
1.25675e-05
1.11632e-05
2.26086e-05
7.23972e-06
9.51313e-06
7.24031e-06
2.26133e-05
1.25691e-05
4.2546e-06
4.89837e-06
1.11643e-05
4.89862e-06
1.11633e-05
1.25704e-05
2.26116e-05
7.23785e-06
9.51144e-06
2.26066e-05
7.23728e-06
1.25691e-05
4.25388e-06
4.89807e-06
1.1162e-05
1.25677e-05
4.89786e-06
1.11631e-05
2.26088e-05
7.23792e-06
9.51158e-06
7.23854e-06
2.26136e-05
1.2571e-05
4.89921e-06
1.11645e-05
4.25477e-06
1.25699e-05
4.89895e-06
1.11654e-05
2.2615e-05
7.24086e-06
9.51478e-06
2.26104e-05
7.24027e-06
1.25714e-05
4.89904e-06
1.11645e-05
4.25472e-06
1.25702e-05
4.89871e-06
1.11654e-05
2.26154e-05
7.23909e-06
9.51385e-06
2.26107e-05
7.23845e-06
1.89545e-05
1.89535e-05
1.89563e-05
1.89554e-05
9.95066e-06
2.22495e-05
2.22489e-05
9.95158e-06
2.22539e-05
2.22533e-05
4.72166e-06
9.87694e-06
3.0003e-06
5.64973e-06
4.72218e-06
3.00009e-06
9.87782e-06
4.72751e-06
9.88174e-06
3.00112e-06
5.65155e-06
4.728e-06
3.00093e-06
9.88263e-06
1.89582e-05
1.89602e-05
6.5221e-07
4.37071e-07
4.37476e-07
6.54877e-07
4.37556e-07
4.37945e-07
2.23797e-07
2.23297e-07
2.85577e-06
1.99414e-06
1.99439e-06
1.43173e-06
2.85609e-06
1.9934e-06
1.99361e-06
2.8576e-06
1.43381e-06
1.99431e-06
1.99452e-06
1.99499e-06
1.99525e-06
2.85728e-06
2.85822e-06
1.43436e-06
1.99492e-06
1.99473e-06
1.99567e-06
1.9955e-06
2.85788e-06
2.85672e-06
1.43356e-06
1.99389e-06
1.99379e-06
1.99462e-06
1.99451e-06
2.8564e-06
2.85594e-06
1.43304e-06
1.99314e-06
1.9934e-06
2.85554e-06
1.99387e-06
1.99416e-06
2.85762e-06
1.99535e-06
1.99561e-06
1.43261e-06
2.85793e-06
1.99465e-06
1.99487e-06
2.85812e-06
1.99595e-06
1.99581e-06
1.4328e-06
1.99503e-06
2.85847e-06
1.99517e-06
2.85676e-06
1.99492e-06
1.99483e-06
1.43231e-06
1.99412e-06
2.85706e-06
1.99418e-06
6.53006e-07
4.36037e-07
4.36422e-07
4.35344e-07
4.35631e-07
2.21856e-07
2.22538e-07
6.53147e-07
4.36286e-07
4.36913e-07
4.35256e-07
4.35737e-07
2.21492e-07
2.22697e-07
6.53261e-07
4.37057e-07
4.36888e-07
4.35907e-07
4.3571e-07
2.21754e-07
2.22944e-07
6.52964e-07
4.36902e-07
4.36707e-07
4.35718e-07
4.35524e-07
2.21554e-07
2.2276e-07
4.36847e-07
4.37269e-07
6.5521e-07
4.37706e-07
4.3804e-07
2.23921e-07
2.231e-07
4.37429e-07
4.37246e-07
6.55268e-07
4.38195e-07
4.38029e-07
2.24149e-07
2.23343e-07
4.3725e-07
4.3706e-07
6.54952e-07
4.38016e-07
4.37842e-07
2.23969e-07
2.23159e-07
6.55816e-07
4.38615e-07
4.38831e-07
2.24924e-07
6.55618e-07
4.382e-07
4.38526e-07
2.24463e-07
6.55693e-07
4.38679e-07
4.38518e-07
2.2469e-07
6.55375e-07
4.38499e-07
4.38333e-07
2.24519e-07
1.69003e-06
2.31918e-06
2.56578e-06
1.56484e-06
2.56625e-06
1.5659e-06
1.68866e-06
1.8669e-06
2.25152e-06
3.04527e-06
3.6636e-06
1.86798e-06
2.25098e-06
3.04489e-06
1.68804e-06
2.31881e-06
2.566e-06
1.56558e-06
1.69018e-06
2.56568e-06
1.56456e-06
1.86826e-06
3.04524e-06
3.66438e-06
2.25128e-06
2.25181e-06
3.04567e-06
1.86717e-06
1.69009e-06
2.31937e-06
1.56445e-06
2.56616e-06
1.56574e-06
2.56629e-06
1.68862e-06
1.8666e-06
2.25098e-06
3.04541e-06
3.66347e-06
1.86762e-06
2.25047e-06
3.04502e-06
1.68774e-06
2.31879e-06
1.56527e-06
2.56601e-06
1.68977e-06
1.56423e-06
2.56591e-06
1.8679e-06
3.04539e-06
3.66425e-06
2.25081e-06
2.2513e-06
3.0458e-06
1.86659e-06
2.85636e-06
1.43402e-06
1.99369e-06
1.99385e-06
1.99441e-06
1.99461e-06
2.85604e-06
2.8569e-06
1.43308e-06
1.99365e-06
1.99387e-06
2.85659e-06
1.99437e-06
1.99459e-06
2.85694e-06
1.432e-06
1.99463e-06
1.99487e-06
2.85724e-06
1.99395e-06
1.99416e-06
1.86673e-06
3.04415e-06
3.66241e-06
2.24976e-06
3.04443e-06
2.25024e-06
1.86561e-06
1.68786e-06
2.56563e-06
1.56482e-06
2.31819e-06
1.68916e-06
2.56546e-06
1.56362e-06
1.86791e-06
2.25045e-06
3.66342e-06
3.04487e-06
2.25094e-06
3.04517e-06
1.86627e-06
1.86577e-06
3.04476e-06
2.25055e-06
3.66261e-06
2.25007e-06
1.86731e-06
3.04449e-06
1.68973e-06
2.31875e-06
2.56559e-06
1.56393e-06
2.56587e-06
1.56501e-06
1.68769e-06
1.6882e-06
2.56574e-06
1.56486e-06
2.31819e-06
1.68949e-06
2.56549e-06
1.56365e-06
1.86786e-06
2.25128e-06
3.66459e-06
3.0451e-06
3.0454e-06
2.25181e-06
1.86629e-06
1.86656e-06
3.04504e-06
2.25157e-06
3.66379e-06
1.86757e-06
3.0447e-06
2.25098e-06
1.68966e-06
2.31874e-06
2.5659e-06
1.56383e-06
2.56602e-06
1.56508e-06
1.68818e-06
1.43214e-06
1.99542e-06
1.99462e-06
3.66323e-06
2.25015e-06
2.25064e-06
1.68785e-06
2.56612e-06
1.56543e-06
2.31883e-06
1.68929e-06
2.5659e-06
1.56429e-06
1.86817e-06
2.25094e-06
3.6643e-06
3.04527e-06
2.25142e-06
3.04581e-06
1.86651e-06
1.86597e-06
3.04538e-06
2.25099e-06
3.66347e-06
2.25053e-06
1.86766e-06
3.04488e-06
1.69019e-06
2.31926e-06
2.56626e-06
1.56475e-06
2.56651e-06
1.56571e-06
1.68802e-06
1.68707e-06
1.56513e-06
2.56495e-06
2.3183e-06
1.68852e-06
1.56378e-06
2.56479e-06
1.86716e-06
2.25002e-06
3.6627e-06
3.04373e-06
3.04404e-06
2.2505e-06
1.86566e-06
1.86518e-06
3.04373e-06
2.25017e-06
3.66196e-06
1.86709e-06
3.04345e-06
2.24966e-06
1.68938e-06
2.31883e-06
1.56412e-06
2.56493e-06
1.56549e-06
2.56521e-06
1.68734e-06
1.86803e-06
2.25069e-06
3.66342e-06
3.04457e-06
1.86625e-06
2.25121e-06
3.04493e-06
1.6897e-06
2.3189e-06
2.56535e-06
1.56437e-06
1.68747e-06
2.5657e-06
1.56529e-06
1.86712e-06
2.24975e-06
3.66265e-06
3.04356e-06
3.04435e-06
2.25031e-06
1.86529e-06
1.68925e-06
2.31888e-06
1.56407e-06
2.56492e-06
1.56551e-06
2.56524e-06
1.68704e-06
2.85605e-06
1.43176e-06
1.99428e-06
1.99417e-06
1.99356e-06
2.85635e-06
1.99347e-06
1.68744e-06
1.56443e-06
2.56539e-06
2.31819e-06
1.68861e-06
1.56358e-06
2.565e-06
1.86773e-06
2.25013e-06
3.66334e-06
3.04471e-06
1.86612e-06
2.25063e-06
3.04502e-06
1.8654e-06
3.04469e-06
2.25028e-06
3.66258e-06
1.86725e-06
2.24979e-06
3.04438e-06
1.68916e-06
2.31864e-06
1.5639e-06
2.56536e-06
1.68748e-06
1.56484e-06
2.56562e-06
1.68711e-06
1.56454e-06
2.56504e-06
2.31811e-06
1.68846e-06
1.56335e-06
2.56485e-06
1.86666e-06
2.2496e-06
3.66248e-06
3.04359e-06
3.04414e-06
2.25014e-06
1.86497e-06
1.86532e-06
3.04378e-06
2.24991e-06
3.66173e-06
1.86627e-06
3.04321e-06
2.24935e-06
1.68861e-06
2.31856e-06
1.56364e-06
2.56517e-06
1.56493e-06
2.56537e-06
1.68742e-06
2.85543e-06
1.4313e-06
1.99395e-06
1.99287e-06
1.99322e-06
2.85825e-06
1.43493e-06
1.99499e-06
1.99521e-06
2.85794e-06
1.9957e-06
1.99596e-06
2.85827e-06
1.43335e-06
1.99601e-06
1.99629e-06
2.85859e-06
1.99529e-06
1.99554e-06
1.69054e-06
2.31944e-06
2.5664e-06
1.56489e-06
2.56663e-06
1.56577e-06
1.68887e-06
1.86688e-06
2.25127e-06
3.04557e-06
3.66361e-06
3.04528e-06
1.86797e-06
2.25078e-06
1.68796e-06
2.31887e-06
2.56627e-06
1.56542e-06
2.56607e-06
1.69032e-06
1.56445e-06
1.86829e-06
3.04566e-06
3.66439e-06
2.25112e-06
3.04597e-06
2.25161e-06
1.86716e-06
1.69035e-06
2.31937e-06
2.56638e-06
1.56464e-06
2.56662e-06
1.56592e-06
1.689e-06
1.86681e-06
2.25206e-06
3.04573e-06
3.66457e-06
1.86849e-06
3.04547e-06
2.25152e-06
1.68836e-06
2.31894e-06
2.56632e-06
1.56559e-06
1.69038e-06
2.56622e-06
1.56415e-06
1.8685e-06
3.04574e-06
3.66534e-06
2.25175e-06
3.04608e-06
1.8673e-06
2.25232e-06
1.68931e-06
2.56703e-06
1.56605e-06
2.31956e-06
1.69059e-06
2.56663e-06
1.56519e-06
1.86754e-06
3.04634e-06
2.25193e-06
3.6645e-06
2.25144e-06
1.86856e-06
3.04605e-06
1.68907e-06
2.56682e-06
1.56619e-06
2.31935e-06
1.69046e-06
2.56653e-06
1.56475e-06
1.8673e-06
3.04629e-06
2.25249e-06
3.66512e-06
1.86855e-06
3.04595e-06
2.2519e-06
2.85867e-06
1.43515e-06
1.99541e-06
1.99528e-06
1.99606e-06
1.99619e-06
2.85831e-06
2.85847e-06
1.43344e-06
1.99638e-06
1.99626e-06
1.99556e-06
2.85884e-06
1.99547e-06
1.69046e-06
2.31988e-06
2.56688e-06
1.56546e-06
2.56726e-06
1.56634e-06
1.68937e-06
1.86714e-06
2.2518e-06
3.04623e-06
3.6646e-06
3.0457e-06
1.86839e-06
2.25133e-06
1.68867e-06
2.31946e-06
2.56688e-06
1.56606e-06
2.56667e-06
1.69043e-06
1.56517e-06
1.86853e-06
3.0461e-06
3.66538e-06
2.25173e-06
3.04664e-06
2.2522e-06
1.86738e-06
1.68959e-06
2.31924e-06
1.56476e-06
2.56549e-06
1.56613e-06
2.56575e-06
1.6884e-06
1.8661e-06
2.25081e-06
3.04428e-06
3.66276e-06
1.86732e-06
3.044e-06
2.25033e-06
1.68776e-06
2.31869e-06
1.56589e-06
2.56545e-06
1.68949e-06
1.56446e-06
2.5652e-06
1.86747e-06
3.0443e-06
3.6635e-06
2.25071e-06
3.04458e-06
1.86646e-06
2.25118e-06
1.68925e-06
2.5675e-06
1.5666e-06
2.31993e-06
1.69087e-06
2.56716e-06
1.56574e-06
1.86754e-06
3.04709e-06
2.25257e-06
3.66549e-06
2.25208e-06
1.86908e-06
3.04652e-06
1.6886e-06
1.56644e-06
2.56606e-06
2.31912e-06
1.68992e-06
1.56512e-06
2.56584e-06
1.86646e-06
3.04493e-06
2.25151e-06
3.66362e-06
1.86777e-06
3.04464e-06
2.25102e-06
1.68985e-06
2.31905e-06
1.56473e-06
2.56534e-06
1.56593e-06
2.56579e-06
1.68808e-06
1.86571e-06
2.25048e-06
3.04461e-06
3.66236e-06
2.24994e-06
1.86748e-06
3.04374e-06
1.68751e-06
2.31849e-06
1.56579e-06
2.56547e-06
1.56415e-06
1.68974e-06
2.56522e-06
1.86755e-06
3.04402e-06
3.66302e-06
2.2502e-06
2.25074e-06
3.04465e-06
1.86635e-06
1.68904e-06
2.56644e-06
1.56624e-06
2.31918e-06
1.69029e-06
2.56628e-06
1.56507e-06
1.86718e-06
3.04604e-06
2.25206e-06
3.66453e-06
1.86847e-06
2.25152e-06
3.04559e-06
1.68861e-06
1.56601e-06
2.56602e-06
2.31923e-06
1.68996e-06
1.56514e-06
2.5658e-06
1.86655e-06
3.04492e-06
2.25095e-06
3.66289e-06
1.86766e-06
3.04434e-06
2.25039e-06
2.85738e-06
1.43455e-06
1.99453e-06
1.99443e-06
1.99517e-06
1.99525e-06
2.85707e-06
2.85738e-06
1.43298e-06
1.99556e-06
1.99547e-06
1.99481e-06
2.85769e-06
1.99471e-06
1.68976e-06
2.31928e-06
1.5643e-06
2.56589e-06
1.56563e-06
2.5661e-06
1.6879e-06
1.86519e-06
2.25036e-06
3.04451e-06
3.66262e-06
2.24985e-06
1.86743e-06
3.04396e-06
1.6873e-06
2.31881e-06
1.56536e-06
2.56573e-06
1.56407e-06
1.68891e-06
2.56551e-06
1.86771e-06
3.0444e-06
3.66342e-06
2.25017e-06
2.25068e-06
3.04494e-06
1.86599e-06
1.68897e-06
1.5662e-06
2.56657e-06
2.31944e-06
1.69019e-06
1.56499e-06
2.56638e-06
1.86643e-06
3.04613e-06
2.25162e-06
3.66435e-06
1.86863e-06
2.25112e-06
3.04571e-06
1.68842e-06
1.56603e-06
2.56641e-06
2.31946e-06
1.6898e-06
1.56494e-06
2.56612e-06
1.86655e-06
3.04541e-06
2.25096e-06
3.66366e-06
1.86765e-06
3.04485e-06
2.25045e-06
2.85637e-06
1.43256e-06
1.99467e-06
1.99484e-06
2.85668e-06
1.99393e-06
1.99409e-06
6.56411e-07
1.20409e-06
1.20381e-06
1.43464e-06
6.58158e-07
1.20497e-06
1.20467e-06
1.43555e-06
6.59416e-07
1.20549e-06
1.20526e-06
1.43608e-06
6.60391e-07
1.20581e-06
1.20575e-06
1.43642e-06
6.61131e-07
1.20606e-06
1.20606e-06
1.43663e-06
6.61616e-07
1.20614e-06
1.20622e-06
1.43643e-06
6.61933e-07
1.20603e-06
1.20623e-06
1.43631e-06
6.6207e-07
1.20588e-06
1.20612e-06
1.43627e-06
6.62139e-07
1.20571e-06
1.20596e-06
1.43617e-06
6.62073e-07
1.20553e-06
1.20577e-06
1.43649e-06
6.61961e-07
1.20547e-06
1.20558e-06
1.43656e-06
6.6194e-07
1.20541e-06
1.20544e-06
1.43664e-06
6.61835e-07
1.20535e-06
1.20534e-06
1.43663e-06
6.61789e-07
1.20531e-06
1.20531e-06
1.43628e-06
6.61705e-07
1.20532e-06
1.20536e-06
1.43625e-06
6.61667e-07
1.20537e-06
1.20547e-06
1.43645e-06
6.61668e-07
1.20544e-06
1.2056e-06
1.43692e-06
6.61695e-07
1.20553e-06
1.20577e-06
1.43681e-06
6.60537e-07
1.20535e-06
1.20567e-06
1.43606e-06
7.19885e-07
1.11063e-06
1.11098e-06
1.39101e-06
1.43363e-06
1.20377e-06
1.20377e-06
1.43361e-06
1.20386e-06
1.20364e-06
1.20391e-06
1.2034e-06
1.43323e-06
1.20358e-06
1.20318e-06
1.43295e-06
1.43606e-06
1.4345e-06
1.20395e-06
1.20391e-06
1.20459e-06
1.20437e-06
1.43604e-06
1.43467e-06
1.20405e-06
1.20382e-06
1.2046e-06
1.20442e-06
1.20358e-06
1.20484e-06
1.20421e-06
1.43565e-06
1.43407e-06
1.20337e-06
1.20453e-06
1.20404e-06
1.43389e-06
1.43681e-06
1.43517e-06
1.2049e-06
1.20466e-06
1.20533e-06
1.20505e-06
1.43629e-06
1.43501e-06
1.20485e-06
1.20473e-06
1.20522e-06
1.20515e-06
1.20455e-06
1.20539e-06
1.20505e-06
1.43637e-06
1.43451e-06
1.20436e-06
1.20515e-06
1.20484e-06
1.43432e-06
1.43675e-06
1.43526e-06
1.20554e-06
1.20524e-06
1.20591e-06
1.20553e-06
1.4366e-06
1.43518e-06
1.20536e-06
1.20533e-06
1.20568e-06
1.20563e-06
1.20526e-06
1.20576e-06
1.20561e-06
1.4368e-06
1.43496e-06
1.20506e-06
1.20566e-06
1.20547e-06
1.43478e-06
1.43745e-06
1.43549e-06
1.20605e-06
1.20565e-06
1.20633e-06
1.20591e-06
1.43675e-06
1.43517e-06
1.20583e-06
1.20577e-06
1.20612e-06
1.20601e-06
1.20576e-06
1.20601e-06
1.206e-06
1.43673e-06
1.43526e-06
1.20563e-06
1.20601e-06
1.20592e-06
1.43509e-06
1.43776e-06
1.43543e-06
1.20648e-06
1.20605e-06
1.20662e-06
1.20614e-06
1.43663e-06
1.43465e-06
1.20628e-06
1.20616e-06
1.20642e-06
1.20627e-06
1.20614e-06
1.20617e-06
1.20621e-06
1.43683e-06
1.43491e-06
1.20608e-06
1.2062e-06
1.20617e-06
1.4349e-06
1.43759e-06
1.43561e-06
1.20673e-06
1.20626e-06
1.20665e-06
1.20616e-06
1.43687e-06
1.4344e-06
1.20654e-06
1.20633e-06
1.20648e-06
1.20628e-06
1.20625e-06
1.20605e-06
1.20615e-06
1.43713e-06
1.43488e-06
1.20622e-06
1.20625e-06
1.20616e-06
1.43476e-06
1.43715e-06
1.43554e-06
1.2067e-06
1.20619e-06
1.2066e-06
1.20604e-06
1.4366e-06
1.43412e-06
1.20653e-06
1.20631e-06
1.20642e-06
1.20621e-06
1.20619e-06
1.20596e-06
1.20603e-06
1.43711e-06
1.43479e-06
1.2062e-06
1.20616e-06
1.20605e-06
1.43473e-06
1.43709e-06
1.43553e-06
1.20663e-06
1.20606e-06
1.20649e-06
1.20591e-06
1.43635e-06
1.43401e-06
1.20645e-06
1.20625e-06
1.2063e-06
1.20609e-06
1.20606e-06
1.20575e-06
1.20592e-06
1.43701e-06
1.43493e-06
1.20608e-06
1.206e-06
1.20589e-06
1.43457e-06
1.437e-06
1.43498e-06
1.20652e-06
1.20594e-06
1.20629e-06
1.20575e-06
1.43625e-06
1.43406e-06
1.20632e-06
1.20611e-06
1.2061e-06
1.20591e-06
1.20595e-06
1.20554e-06
1.20581e-06
1.43644e-06
1.43453e-06
1.20591e-06
1.20584e-06
1.20576e-06
1.43428e-06
1.43724e-06
1.43511e-06
1.20631e-06
1.20578e-06
1.20608e-06
1.20558e-06
1.43631e-06
1.43416e-06
1.20612e-06
1.20594e-06
1.20591e-06
1.2057e-06
1.20586e-06
1.20547e-06
1.20573e-06
1.43653e-06
1.43418e-06
1.20581e-06
1.20558e-06
1.20567e-06
1.43439e-06
1.43664e-06
1.43474e-06
1.20611e-06
1.20564e-06
1.20591e-06
1.20548e-06
1.43641e-06
1.43455e-06
1.20594e-06
1.20573e-06
1.20574e-06
1.20549e-06
1.20579e-06
1.2054e-06
1.20569e-06
1.43639e-06
1.43411e-06
1.20572e-06
1.20542e-06
1.20558e-06
1.43448e-06
1.43695e-06
1.43491e-06
1.20596e-06
1.20554e-06
1.20574e-06
1.20537e-06
1.4361e-06
1.43452e-06
1.20578e-06
1.20553e-06
1.20553e-06
1.20532e-06
1.20576e-06
1.20533e-06
1.20569e-06
1.43587e-06
1.43414e-06
1.20564e-06
1.20533e-06
1.20548e-06
1.43447e-06
1.43643e-06
1.43447e-06
1.2058e-06
1.20544e-06
1.20557e-06
1.20528e-06
1.43609e-06
1.43458e-06
1.20557e-06
1.20537e-06
1.20536e-06
1.20525e-06
1.20568e-06
1.20528e-06
1.20562e-06
1.43568e-06
1.43416e-06
1.20555e-06
1.20528e-06
1.20547e-06
1.43469e-06
1.43671e-06
1.43457e-06
1.20564e-06
1.20535e-06
1.2055e-06
1.20523e-06
1.43615e-06
1.43465e-06
1.20543e-06
1.20527e-06
1.2053e-06
1.2052e-06
1.20562e-06
1.20527e-06
1.20559e-06
1.43572e-06
1.43432e-06
1.20548e-06
1.20529e-06
1.2054e-06
1.4347e-06
1.43609e-06
1.43462e-06
1.20552e-06
1.20523e-06
1.20543e-06
1.20515e-06
1.43622e-06
1.43469e-06
1.2053e-06
1.20524e-06
1.20524e-06
1.20526e-06
1.20561e-06
1.2053e-06
1.2056e-06
1.43591e-06
1.43464e-06
1.20541e-06
1.20538e-06
1.20536e-06
1.43486e-06
1.43618e-06
1.4349e-06
1.20546e-06
1.20518e-06
1.20544e-06
1.20517e-06
1.43624e-06
1.43479e-06
1.20527e-06
1.20532e-06
1.20528e-06
1.2054e-06
1.20564e-06
1.20536e-06
1.20564e-06
1.43622e-06
1.43488e-06
1.20539e-06
1.2055e-06
1.20538e-06
1.43472e-06
1.43642e-06
1.43463e-06
1.20549e-06
1.20522e-06
1.20551e-06
1.20524e-06
1.43632e-06
1.43491e-06
1.20534e-06
1.20548e-06
1.20542e-06
1.20556e-06
1.20569e-06
1.20543e-06
1.20569e-06
1.43642e-06
1.43513e-06
1.20544e-06
1.20566e-06
1.20547e-06
1.43529e-06
1.43709e-06