/*--------------------------------*- C++ -*----------------------------------*\
| =========                 |                                                 |
| \\      /  F ield         | OpenFOAM: The Open Source CFD Toolbox           |
|  \\    /   O peration     | Version:  2312                                  |
|   \\  /    A nd           | Website:  www.openfoam.com                      |
|    \\/     M anipulation  |                                                 |
\*---------------------------------------------------------------------------*/
FoamFile
{
    version     2.0;
    format      ascii;
    arch        "LSB;label=32;scalar=64";
    class       surfaceScalarField;
    location    "300";
    object      phi;
}
// * * * * * * * * * * * * * * * * * * * * * * * * * * * * * * * * * * * * * //

dimensions      [0 3 -1 0 0 0 0];

oriented        oriented;

internalField   nonuniform List<scalar> 
125280
(
3.07097e-08
2.81602e-08
-0.00118673
-1.89742e-08
-1.5444e-08
0.0011867
-0.00113289
-1.21613e-06
-2.04046e-08
-5.11786e-08
0.00113292
-2.54967e-07
1.22624e-06
2.63425e-07
8.92747e-07
-2.37201e-07
-8.78255e-07
2.51389e-07
-0.00113279
-1.21074e-06
-3.18964e-08
-7.90235e-09
0.00113278
-2.52233e-07
1.22355e-06
2.6354e-07
8.92972e-07
-2.37189e-07
-8.75434e-07
2.51445e-07
-0.000270047
1.24204e-06
1.20588e-06
-2.14079e-07
-2.16167e-07
0.00026803
-1.26889e-06
-1.22634e-06
0.000270115
-0.000268082
2.26962e-07
2.35251e-07
0.00113242
-3.29721e-08
-0.00113244
-8.90915e-09
-1.25234e-06
2.66659e-07
-2.57051e-07
-8.77861e-07
2.49128e-07
-2.33945e-07
8.96117e-07
1.26572e-06
0.00113247
1.44268e-07
-0.00113264
-2.82046e-08
-1.24809e-06
2.68657e-07
-2.55377e-07
-8.82438e-07
2.46956e-07
-2.36118e-07
8.9641e-07
-1.205e-06
0.000270093
-0.000268079
2.22337e-07
2.34534e-07
0.00113338
-3.59491e-08
-0.00113339
-1.17079e-08
-1.21102e-06
2.63513e-07
-2.52348e-07
-8.80154e-07
2.52185e-07
-2.36518e-07
8.98829e-07
1.26021e-06
0.0011323
-3.05122e-08
-0.00113231
-1.72962e-08
-1.24509e-06
2.68746e-07
-2.57994e-07
-8.80086e-07
2.49373e-07
-2.3656e-07
8.98937e-07
2.18532e-08
-1.84639e-07
-1.27455e-06
2.61029e-07
-2.60155e-07
-8.80494e-07
2.49253e-07
8.90771e-07
-2.39296e-07
-0.00113268
1.26064e-06
0.00113197
-1.07766e-08
-1.33405e-08
-1.23893e-06
2.69336e-07
-2.54557e-07
-8.77735e-07
2.49122e-07
-2.36705e-07
8.90622e-07
-0.00113201
-1.22659e-06
0.000270071
-0.000268049
2.30059e-07
2.3456e-07
-3.45487e-08
-0.00113282
2.59597e-09
-1.21034e-06
2.63872e-07
-2.51822e-07
-8.74789e-07
2.52067e-07
8.93625e-07
-2.36521e-07
1.21831e-06
0.00113295
-3.54939e-08
-0.00113292
-4.56298e-08
-1.21092e-06
2.63677e-07
-2.5505e-07
-8.77166e-07
2.52457e-07
-2.36288e-07
8.96376e-07
-0.000268031
2.26823e-07
2.354e-07
1.25275e-06
1.21148e-06
-2.11505e-07
-2.18793e-07
0.000268081
-1.38394e-08
0.00113241
-2.54748e-07
1.26855e-06
2.66289e-07
8.95425e-07
-2.34615e-07
-8.78507e-07
2.48496e-07
-1.25079e-06
-2.13438e-08
-1.08225e-08
0.00113245
-2.58398e-07
1.2653e-06
2.68414e-07
8.98441e-07
-2.36844e-07
-8.80509e-07
2.51689e-07
-2.18916e-07
-2.16677e-07
0.000268062
-1.06703e-08
0.00113336
-2.52828e-07
1.22593e-06
2.63083e-07
8.98317e-07
-2.37116e-07
-8.80781e-07
2.516e-07
-1.24556e-06
-2.80547e-08
-1.03812e-08
0.00113228
-2.58413e-07
1.25975e-06
2.68334e-07
8.98334e-07
-2.34392e-07
-8.80723e-07
2.48796e-07
-3.25289e-08
-1.25327e-08
0.00113196
-2.54868e-07
1.25758e-06
2.66215e-07
8.90146e-07
-2.34557e-07
2.45882e-07
-8.72876e-07
-2.13914e-07
-2.19318e-07
0.000268048
-3.29993e-08
-2.80205e-08
0.00113295
-2.52617e-07
1.22067e-06
2.63324e-07
8.95751e-07
-2.3686e-07
2.51846e-07
-8.77758e-07
6.1531e-09
-3.77901e-08
0.000193092
3.35083e-09
-0.000193064
6.0466e-09
-3.77646e-08
0.00019308
-0.000193052
-0.00118676
-1.43189e-08
-1.68133e-08
0.00118641
-0.00118595
-1.00735e-07
-1.9906e-07
0.00118625
-0.00118629
-3.00323e-08
1.89006e-09
0.00118625
-0.00118621
-4.22977e-08
-4.08984e-08
-8.26146e-10
-5.70699e-08
0.000228842
-0.00022881
2.43829e-08
1.46285e-09
-0.000193108
-5.85003e-09
3.0681e-08
-4.22706e-09
0.000193087
-0.000228829
-6.12539e-10
4.33864e-08
0.000228803
-1.78417e-08
5.8259e-10
6.34273e-09
-3.67021e-08
0.000193121
3.07651e-09
-0.000193094
-9.77407e-05
6.55402e-09
1.64483e-08
9.77177e-05
-5.75804e-09
-2.02412e-08
9.77467e-05
-9.77207e-05
-5.70422e-08
-2.63464e-10
0.000228829
-0.000228797
1.1467e-09
2.42815e-08
-0.000193095
-6.18905e-09
3.06554e-08
-3.78764e-09
0.000193074
-0.000228816
4.35886e-08
-6.52479e-11
0.000228791
-5.97646e-11
-1.79679e-08
6.05005e-09
-3.6818e-08
0.000193108
3.5335e-09
-0.000193081
-2.93393e-08
-6.37959e-08
0.00118646
-1.72171e-08
-8.38017e-09
0.00118622
-2.33374e-08
-3.37486e-08
0.00118624
5.7077e-08
-1.30868e-09
0.000249877
-0.000249761
1.64335e-09
-1.73421e-07
-0.000244993
-1.67063e-08
-3.05975e-08
8.15655e-08
8.85158e-09
0.00024495
0.00115373
-0.00115379
-1.21979e-08
-1.68042e-08
9.82999e-07
-7.83135e-07
-9.6438e-07
8.0468e-07
-1.67093e-08
1.22858e-06
0.00113291
-3.0237e-08
-8.76181e-07
2.50808e-07
-2.37829e-07
8.92207e-07
-1.21386e-06
2.63076e-07
-2.52618e-07
-0.000249874
-4.34001e-08
1.39457e-09
0.000249761
1.44928e-10
1.54772e-07
1.92493e-08
3.69394e-08
0.000245003
-1.24846e-08
-0.000244955
-9.20343e-08
-9.22446e-09
0.00115372
-3.24109e-08
-9.62274e-07
8.01244e-07
-7.83813e-07
9.7962e-07
-9.77297e-05
6.23007e-09
1.42286e-08
9.77093e-05
-5.96184e-09
-1.79751e-08
9.77367e-05
-9.77127e-05
-9.13443e-10
5.71362e-08
0.000249863
-0.000249748
-1.73477e-07
2.01144e-09
0.00115356
-0.00115358
1.20156e-08
-3.35739e-08
9.83089e-07
-7.85904e-07
-9.61582e-07
8.04648e-07
-0.00024498
-1.64447e-08
-3.05062e-08
7.89707e-08
8.54633e-09
0.000244939
-1.29254e-08
1.22319e-06
0.00113276
-2.93771e-08
-8.76154e-07
2.50781e-07
-2.3785e-07
8.92321e-07
-1.20844e-06
2.63231e-07
-2.52543e-07
-0.000249857
1.0037e-09
-4.30994e-08
0.000249745
1.54595e-07
-1.06347e-10
-1.86874e-09
0.00115354
-3.10392e-08
-9.62342e-07
8.03914e-07
-7.83919e-07
9.82357e-07
1.95134e-08
3.68443e-08
0.000244991
-1.28176e-08
-0.000244944
-8.96438e-08
-0.000277505
1.58826e-08
-1.51226e-08
3.24989e-08
-7.86372e-09
0.000277479
-0.000277424
1.6735e-08
-1.42726e-08
3.17642e-08
-9.22431e-09
0.000277399
-1.25716e-06
-1.22028e-06
0.000270046
-0.000268029
2.28742e-07
2.31932e-07
-2.01291e-08
1.73146e-08
0.000277521
9.42422e-09
-0.000277485
-4.25535e-08
-1.95401e-08
1.77763e-08
0.00027744
9.24702e-09
-0.000277407
-4.0773e-08
-1.82158e-08
9.77516e-05
-9.77272e-05
-1.82863e-08
9.77428e-05
-9.77185e-05
0.000270116
-1.26952e-06
-1.22982e-06
-0.000268081
2.27794e-07
2.35945e-07
0.000277537
-1.99628e-08
1.13753e-08
-0.000277503
-4.38891e-08
0.00027747
-1.73269e-08
8.53963e-09
-0.000277436
-4.38688e-08
-1.78895e-08
-6.29323e-09
9.77594e-05
-9.77353e-05
1.43238e-08
5.97078e-09
9.77313e-05
-1.81049e-08
-6.03924e-09
9.77506e-05
-9.77264e-05
1.41132e-08
6.19301e-09
9.77225e-05
1.25202e-06
1.21335e-06
0.00026808
-2.10676e-07
-2.18081e-07
-1.9917e-08
0.000277555
-4.32484e-08
-0.000277521
1.15966e-08
-1.71121e-08
0.000277488
-4.34253e-08
-0.000277454
8.40756e-09
1.61325e-08
-1.10082e-08
3.37965e-08
0.000277512
1.42128e-08
-8.82208e-09
3.36993e-08
0.000277445
0.00113245
-3.75688e-08
-1.25169e-06
2.67279e-07
-2.53695e-07
-8.76699e-07
2.52885e-07
-2.3555e-07
8.9721e-07
-1.03289e-08
0.000244977
-1.3431e-08
-0.000244928
-9.36778e-08
-7.40468e-10
4.25059e-08
-1.74279e-08
4.43723e-10
0.000228788
-0.000228813
-3.72994e-08
-0.00019308
3.20986e-09
3.01531e-08
-4.11368e-09
0.000193072
-8.08909e-10
-5.80336e-08
-0.000228796
2.48442e-08
1.50595e-09
4.23946e-08
-1.73794e-08
-1.15885e-09
0.000228748
-0.000228773
-3.9858e-08
5.64332e-09
0.000193047
-0.000193018
4.69686e-09
3.18837e-08
-6.72203e-09
-2.63988e-09
0.000193011
-0.000193033
-5.81222e-08
0.000228788
-0.000228756
2.48822e-08
2.42908e-10
9.18954e-11
1.14006e-09
1.53655e-07
0.000249764
-0.000249877
-2.11521e-08
-3.53875e-08
1.26922e-06
-2.54023e-07
2.69742e-07
8.9667e-07
-2.33414e-07
2.49699e-07
-8.77311e-07
0.00024499
-9.28485e-08
-0.000244941
-1.33041e-08
-0.00115411
2.80834e-11
0.0011541
-3.51041e-08
-9.63906e-07
8.0805e-07
-7.85414e-07
9.86537e-07
8.10731e-09
8.06536e-08
0.000244935
-8.10132e-10
-4.3971e-08
9.87232e-07
-7.84736e-07
-9.63231e-07
8.08762e-07
-0.00115414
-1.48082e-09
0.000249884
-0.000249768
1.7437e-09
-1.74638e-07
-1.55222e-09
1.53534e-07
0.000249738
-0.000249848
4.5612e-09
-1.2555e-06
-2.25177e-07
9.02368e-07
-2.30134e-07
-8.76438e-07
2.52897e-07
1.26905e-06
-2.60342e-07
2.69074e-07
-0.00113249
1.88274e-08
0.000244884
-9.31962e-08
-0.000244835
-1.44075e-08
-0.00115407
0.00115402
-1.21627e-08
-9.71562e-07
8.08076e-07
-7.88032e-07
9.89269e-07
-1.72096e-08
1.181e-08
8.00958e-08
0.000244829
-0.000244872
-7.40866e-08
9.95553e-07
-7.84526e-07
-9.65341e-07
8.11612e-07
-0.00115405
0.000249855
-0.000249742
1.98481e-09
-1.74709e-07
-2.0576e-08
-9.77145e-05
1.60109e-08
9.7711e-05
-9.77337e-05
0.00026808
-2.02627e-07
-0.0002701
1.18828e-06
-2.2115e-07
0.000277428
-4.11922e-08
-0.000277397
8.80326e-09
1.7971e-08
-1.96235e-08
0.000277576
-4.08601e-08
-0.000277542
9.17197e-09
3.10454e-08
0.000277389
-0.000277412
-9.84379e-09
-6.16506e-09
9.77584e-05
-9.77343e-05
0.00113341
-4.02327e-08
-1.21292e-06
2.64223e-07
-2.51566e-07
2.53098e-07
-2.35458e-07
0.000244941
-0.000244889
-9.13032e-08
4.28157e-08
-1.26569e-10
-2.77917e-11
-1.75709e-08
0.000228777
-3.73271e-08
-0.000193067
3.58658e-09
3.01654e-08
-3.67826e-09
0.00019306
-5.78213e-08
-4.3417e-10
-0.000228784
1.32557e-09
2.47245e-08
1.47839e-09
-1.02644e-10
1.53905e-07
0.000249746
-1.2507e-08
-3.8213e-08
1.22944e-06
-2.5198e-07
2.63899e-07
8.99328e-07
-2.36066e-07
2.52628e-07
-8.79606e-07
0.000244954
-9.06166e-08
-0.000244903
-1.52491e-08
-0.00115386
-3.77324e-09
0.00115385
-3.75601e-08
-9.66383e-07
8.0795e-07
-7.85362e-07
9.89001e-07
1.10362e-08
7.8282e-08
0.000244896
3.83606e-09
-3.44723e-08
9.89582e-07
-7.84758e-07
-9.65758e-07
8.08504e-07
-1.86268e-09
0.000249866
-0.00024975
2.1588e-09
-1.74481e-07
4.27423e-08
-1.75534e-08
-5.27825e-10
0.000228736
-3.73075e-08
6.0778e-09
0.000193028
-0.000193
3.61659e-09
3.00635e-08
-6.22687e-09
-3.51154e-09
0.000192993
-5.7884e-08
0.000228774
-0.000228743
2.47516e-08
9.50515e-10
1.53835e-07
-8.30904e-10
0.000249719
-1.26211e-08
-1.24468e-06
-3.29448e-08
8.9938e-07
-2.35934e-07
-8.79566e-07
2.5259e-07
1.26059e-06
-2.57606e-07
2.69113e-07
-0.0011538
0.00115376
-3.2235e-08
-9.66311e-07
8.08093e-07
-7.85283e-07
9.89177e-07
1.93255e-08
0.000244863
-8.80999e-08
-0.000244819
-1.25761e-08
-2.90423e-08
9.89821e-07
-7.84682e-07
-9.65635e-07
8.0866e-07
-1.67736e-08
8.89774e-09
7.8208e-08
0.000244813
0.000249836
-0.000249723
-1.74592e-07
2.03999e-09
3.73126e-08
-9.03568e-08
-0.000244947
-1.28337e-08
-3.85947e-08
3.20453e-08
-9.69193e-07
8.05393e-07
9.83695e-07
-7.87893e-07
-0.001154
5.76626e-08
-1.57159e-09
-0.000249758
2.13094e-09
-1.74504e-07
0.0001931
-0.000193072
3.47908e-09
1.75348e-10
0.000228818
-0.000228788
1.03178e-09
2.68357e-08
0.00115369
-1.40764e-08
-9.63634e-07
8.02781e-07
-7.85088e-07
9.81016e-07
-0.00115377
3.69008e-08
2.04327e-08
0.000244911
-8.77622e-08
-0.000244867
-1.35771e-08
5.77255e-08
0.000249844
-0.000249728
-1.77165e-07
2.52143e-09
6.96393e-09
0.000193038
-0.000193011
2.57624e-09
0.00022878
-0.000228748
2.47315e-08
1.68958e-09
-1.80509e-08
-9.77056e-05
1.40267e-08
9.77018e-05
1.21265e-06
0.00026805
-2.13137e-07
-2.1848e-07
0.00027742
-3.87807e-08
-0.000277388
8.82312e-09
1.7935e-08
-1.96726e-08
0.000277563
-4.09918e-08
-0.00027753
9.27326e-09
-9.38575e-09
2.9161e-08
0.00027738
-1.42325e-08
1.40172e-08
-9.11066e-09
3.14282e-08
0.000277523
-6.18505e-09
9.77561e-05
-9.7732e-05
6.0723e-09
9.77282e-05
1.30404e-09
-4.23631e-08
1.53494e-07
2.31252e-11
0.000249739
-9.54753e-09
-3.71941e-08
1.22697e-06
-2.54231e-07
2.64187e-07
8.94201e-07
-2.36003e-07
-8.74249e-07
2.52646e-07
-0.00115362
2.12159e-08
-3.61557e-08
-9.6081e-07
8.05438e-07
9.83774e-07
-7.7967e-07
3.74918e-08
-9.06662e-08
-0.000244933
-1.30399e-08
5.63667e-08
-3.40002e-08
9.84464e-07
-7.81757e-07
-9.60128e-07
8.03355e-07
-3.00162e-08
8.38528e-09
7.81451e-08
0.000244924
-5.46477e-10
5.80704e-08
-0.000249742
-1.74764e-07
1.68883e-09
-4.22829e-08
1.5347e-07
-2.96243e-10
0.000249713
-2.1237e-07
-1.2854e-06
-1.50311e-08
8.94055e-07
-2.35678e-07
-8.76725e-07
2.52969e-07
1.1915e-06
-2.68554e-07
2.61108e-07
-0.00115356
0.00115351
-3.07133e-08
-9.63267e-07
8.05454e-07
-7.79635e-07
9.86413e-07
3.7538e-08
1.95124e-08
0.000244871
-9.08483e-08
-0.000244825
-1.27925e-08
6.90624e-09
9.84279e-07
-7.81773e-07
-9.62742e-07
8.03331e-07
-2.98989e-08
-1.68117e-08
8.95604e-09
7.80182e-08
0.000244818
5.80626e-08
0.000249829
-0.000249717
-1.7478e-07
3.5646e-09
1.03973e-10
-1.62662e-10
-1.94965e-08
0.000228766
0.000193092
-0.000193064
3.59285e-09
-3.69153e-09
0.000193057
-8.14809e-11
0.000228803
-0.000228773
9.07869e-10
2.69327e-08
-2.78453e-10
-2.15519e-08
0.000228727
6.17111e-09
0.000193025
-0.000192997
3.46483e-09
-6.30543e-09
-3.41302e-09
0.000192989
0.000228762
-0.000228735
1.31043e-09
2.9057e-08
0.000268046
-2.18087e-07
1.24177e-06
-2.26418e-07
1.72725e-08
-4.05087e-08
-0.000277471
9.55041e-09
1.81175e-08
-4.12865e-08
-0.00027739
9.14505e-09
-1.39307e-08
3.13151e-08
0.000277381
-9.49817e-09
9.77322e-05
-9.7708e-05
9.77272e-05
-9.77029e-05
9.76989e-05
1.46655e-08
9.77389e-05
-1.75812e-08
9.77663e-05
-9.77423e-05
1.43212e-08
9.77301e-05
-1.78365e-08
9.77574e-05
-9.77335e-05
1.62178e-08
3.44484e-08
-1.08241e-08
0.00027753
1.44533e-08
3.41731e-08
-8.94117e-09
0.000277463
0.000270113
-1.26819e-06
-1.22547e-06
-0.00026808
2.26011e-07
2.34497e-07
0.000277571
-1.97381e-08
1.15872e-08
-0.000277538
-4.25525e-08
0.000277505
-1.67524e-08
8.26436e-09
-0.000277471
-4.28393e-08
1.49278e-08
5.83234e-09
9.77455e-05
1.45743e-08
6.20859e-09
9.77366e-05
1.25352e-06
1.21244e-06
0.000268079
-2.12485e-07
-2.19593e-07
1.64042e-08
-1.08835e-08
3.51423e-08
0.000277545
1.47928e-08
-9.08459e-09
3.47793e-08
0.000277479
-5.71234e-08
0.000228801
-0.00022877
2.44281e-08
2.33434e-10
3.25388e-08
-2.96992e-09
0.000193024
4.33148e-08
0.000228763
-1.7808e-08
-1.06844e-09
-3.91966e-08
0.000193059
4.44142e-09
-0.00019303
-1.46378e-09
0.00024989
-0.000249774
1.63519e-09
-1.73281e-07
8.15055e-08
8.2533e-09
0.000244947
0.00115407
6.30991e-09
-3.24292e-08
9.85778e-07
-7.86249e-07
-9.64755e-07
8.07254e-07
-7.01659e-09
0.00113239
-2.82378e-08
-1.25313e-06
2.65977e-07
-2.55099e-07
-8.79177e-07
2.47849e-07
-2.35285e-07
8.94823e-07
2.91516e-10
0.000249771
1.06004e-09
1.54918e-07
0.000245001
-1.31435e-08
-0.000244953
-9.1862e-08
-2.93594e-09
0.00115405
-2.97036e-08
-9.65501e-07
8.0654e-07
-7.86992e-07
9.85129e-07
0.000249862
-0.000249749
2.00385e-09
-1.7339e-07
-1.72214e-08
8.11286e-08
9.4069e-09
0.000244844
0.001154
-2.75846e-08
9.88576e-07
-7.86103e-07
-9.6695e-07
8.07341e-07
-1.57397e-08
0.00113243
1.26492e-06
-3.13527e-08
-8.83796e-07
2.51104e-07
9.00469e-07
-2.37492e-07
-1.24854e-06
2.68033e-07
-2.56054e-07
0.000249746
-1.51308e-09
1.54838e-07
0.000244895
1.87166e-08
-1.18479e-08
-0.000244849
-9.22177e-08
0.00115397
-3.09619e-08
-9.70375e-07
8.06633e-07
-7.86828e-07
9.90569e-07
-6.76944e-10
4.43365e-08
-1.82964e-08
5.74965e-10
0.000228816
3.13058e-08
-4.35529e-09
0.0001931
4.43037e-08
-1.82479e-08
-1.13648e-09
0.000228776
3.31867e-08
-6.40232e-09
-3.29107e-09
0.000193036
2.63368e-10
1.18374e-09
1.56242e-07
0.000249777
-1.22105e-08
-2.61794e-08
1.26787e-06
-2.55477e-07
2.65713e-07
8.94227e-07
-2.35967e-07
2.47215e-07
-8.79812e-07
0.00113237
8.41345e-09
8.24975e-08
0.000244958
3.10002e-09
-2.79064e-08
9.8444e-07
-7.87743e-07
-9.66144e-07
8.05847e-07
0.00115403
-1.73058e-09
1.56132e-07
0.000249752
-8.88929e-09
-1.25168e-06
-2.96388e-08
8.99983e-07
-2.38144e-07
-8.84429e-07
2.50576e-07
1.26452e-06
-2.59174e-07
2.67678e-07
0.00113242
-1.73678e-08
9.52876e-09
8.2208e-08
0.000244854
-2.92475e-08
9.89956e-07
-7.87521e-07
-9.7099e-07
8.06032e-07
0.00115396
3.1829e-08
-9.71068e-09
0.000277405
-1.43991e-08
3.21914e-08
-9.27318e-09
0.00027755
0.000270097
-0.000268064
2.29272e-07
2.31167e-07
0.000277442
8.90754e-09
-0.000277412
-4.04991e-08
1.79441e-08
0.000277593
8.41948e-09
-0.000277558
-4.27152e-08
6.21908e-09
9.77378e-05
9.7765e-05
-5.9964e-09
-9.77411e-05
1.68073e-08
9.77235e-05
1.21426e-06
0.000268063
-2.14606e-07
-2.17508e-07
-9.61992e-09
3.25617e-08
0.000277419
-1.44704e-08
1.70468e-08
-8.97932e-09
3.4982e-08
0.000277565
6.32299e-09
9.77442e-05
-1.88083e-09
0.000249873
-0.000249757
2.0115e-09
-1.7335e-07
7.90152e-08
1.13256e-08
0.000244909
0.00115382
3.4197e-09
-2.93085e-08
9.88368e-07
-7.8606e-07
-9.67159e-07
8.07272e-07
-9.47191e-09
0.00113335
-3.20529e-08
-1.21195e-06
2.62633e-07
-2.53306e-07
-8.81285e-07
2.51059e-07
-2.37679e-07
8.97811e-07
1.47535e-09
0.000249754
-2.05052e-10
1.54985e-07
0.000244966
-1.49918e-08
-0.000244915
-8.97756e-08
-3.96935e-09
0.0011538
-2.72272e-08
-9.67682e-07
8.06635e-07
-7.86689e-07
9.87741e-07
-5.70416e-08
0.000228787
-0.000228755
2.43134e-08
1.05479e-09
3.05918e-08
-3.68174e-09
0.000193007
4.35256e-08
0.000228749
-1.79257e-08
-4.15428e-10
-3.684e-08
0.000193041
3.61556e-09
-0.000193014
0.000249843
-0.000249731
-1.73387e-07
1.909e-09
0.00115375
-3.53701e-08
9.88505e-07
-7.85988e-07
-9.67069e-07
8.07375e-07
-1.7024e-08
7.66048e-08
9.15298e-09
0.000244825
-9.22019e-09
0.00113227
1.25929e-06
-3.18305e-08
-8.81311e-07
2.48246e-07
8.97733e-07
-2.35084e-07
-1.24603e-06
2.67884e-07
-2.58918e-07
0.000249727
1.54896e-07
-8.8589e-10
0.00115372
-2.7013e-08
-9.67703e-07
8.06674e-07
-7.86694e-07
9.87781e-07
0.000244874
1.89889e-08
-1.22685e-08
-0.000244831
-8.72711e-08
4.43673e-08
1.12457e-10
-2.58297e-10
-1.84094e-08
0.000228803
3.11646e-08
-3.79827e-09
0.000193087
1.49417e-09
-3.73044e-10
1.58681e-07
0.000249758
-8.50273e-09
-3.04202e-08
1.22505e-06
-2.53835e-07
2.62222e-07
8.97342e-07
-2.38214e-07
2.50607e-07
-8.81846e-07
0.00113334
1.15845e-08
7.98446e-08
0.000244921
3.28908e-09
-3.16813e-08
9.87235e-07
-7.87334e-07
-9.68307e-07
8.06038e-07
0.00115378
4.43873e-08
-1.83773e-08
-3.23475e-10
0.000228761
3.09906e-08
-6.34698e-09
-3.62196e-09
0.00019302
1.58718e-07
-1.01947e-09
0.000249731
-8.32748e-09
-1.24652e-06
-3.01529e-08
8.97142e-07
-2.35592e-07
-8.81967e-07
2.47737e-07
1.25886e-06
-2.59378e-07
2.67482e-07
0.00113226
-3.12768e-08
9.87133e-07
-7.87422e-07
-9.68432e-07
8.06017e-07
0.00115371
-1.74041e-08
9.47908e-09
7.74489e-08
0.000244836
3.4468e-10
0.000228829
-0.000228799
8.02491e-10
2.65465e-08
-3.59734e-09
0.000193079
2.85742e-10
0.000228794
-2.71467e-12
-1.98898e-08
0.000193113
3.65208e-09
-0.000193086
5.70818e-08
0.000249847
-0.000249734
-1.73439e-07
2.50264e-09
0.00115365
-2.88592e-08
9.80324e-07
-7.80339e-07
8.02052e-07
-9.58867e-07
-3.0994e-08
7.92707e-08
8.00873e-09
0.00024487
-5.63033e-09
0.00113194
-2.42656e-08
-1.24246e-06
2.65823e-07
-2.55258e-07
-8.73427e-07
2.45372e-07
-2.32464e-07
8.89609e-07
-4.34771e-08
0.000249732
1.57362e-07
-5.38128e-10
0.00115362
-2.59533e-08
-9.62226e-07
8.04055e-07
-7.83835e-07
9.82443e-07
3.6644e-08
0.000244922
-1.33894e-08
-0.000244874
-9.19085e-08
0.000228791
-0.00022876
2.44164e-08
1.56241e-09
-5.29937e-09
-4.73925e-09
0.000193017
0.000228754
-1.78413e-08
4.64252e-10
0.00019305
6.71187e-09
2.77092e-09
-0.000193023
-4.4004e-08
1.79562e-09
-3.6613e-10
1.5585e-07
0.000249764
-1.61775e-08
-2.82191e-08
1.22822e-06
-2.53025e-07
2.62747e-07
8.91716e-07
-2.38393e-07
-8.76808e-07
2.50345e-07
0.0011329
-3.09453e-08
9.13513e-09
8.23131e-08
0.00024496
2.11661e-09
-3.02318e-08
9.81687e-07
-7.81822e-07
-9.60263e-07
8.03289e-07
0.00115368
4.58155e-10
-1.94445e-10
-2.01866e-08
0.000228805
-3.45858e-09
0.000193092
-4.41046e-08
1.5591e-07
-1.22911e-10
0.000249737
-1.07745e-08
-1.24293e-06
-3.42206e-08
8.89041e-07
-2.32898e-07
-8.73989e-07
2.44978e-07
1.25677e-06
-2.55666e-07
2.65505e-07
0.00113193
-3.58368e-08
9.81777e-07
-7.84594e-07
-9.62915e-07
8.03336e-07
0.00115361
-3.11951e-08
-1.61224e-08
8.25733e-09
8.23262e-08
0.000244879
-1.81457e-08
2.85481e-10
0.000228765
-5.56588e-09
-4.51026e-09
0.000193029
2.96719e-08
-9.56493e-09
0.000277397
-1.45056e-08
3.20633e-08
-1.15644e-08
0.000277541
0.000270067
-0.000268047
2.29269e-07
2.3363e-07
0.000277435
8.5256e-09
-0.000277405
-3.82691e-08
1.7591e-08
0.000277579
1.19676e-08
-0.000277549
-4.03116e-08
6.00186e-09
9.77356e-05
9.77628e-05
-6.28475e-09
-9.7739e-05
1.42956e-08
9.7716e-05
1.20884e-06
0.000268046
-2.14738e-07
-2.20296e-07
-9.85565e-09
3.01991e-08
0.000277412
-1.48675e-08
1.6638e-08
-1.14814e-08
3.28088e-08
0.000277556
5.93744e-09
9.7742e-05
5.71335e-08
0.000249835
-0.000249723
-1.73527e-07
3.0216e-09
0.00115349
-3.38332e-08
9.85668e-07
-7.85846e-07
8.04643e-07
-9.63931e-07
-3.04171e-08
7.87853e-08
8.85356e-09
0.000244831
-9.77922e-09
0.00113293
-3.07733e-08
-1.20629e-06
2.62921e-07
-2.53041e-07
-8.78352e-07
2.51294e-07
-2.37507e-07
8.95169e-07
-4.29857e-08
0.00024972
1.54571e-07
-1.18958e-09
0.00115347
-3.13816e-08
-9.64665e-07
8.03938e-07
-7.83853e-07
9.85003e-07
3.70081e-08
0.000244883
-1.27341e-08
-0.000244836
-9.00417e-08
-1.34518e-10
0.000228816
-0.000228787
1.20985e-09
2.64271e-08
-3.86841e-09
0.000193071
2.24464e-10
0.00022878
-2.75527e-10
-1.98553e-08
0.000193105
3.30588e-09
-0.000193078
0.000228775
-0.000228748
1.39971e-09
2.85539e-08
-6.0864e-09
-3.86869e-09
0.000193004
0.000228742
-3.18446e-10
-2.18848e-08
0.000193039
6.34265e-09
3.10612e-09
-0.000193012
6.49335e-10
-4.40735e-08
1.55897e-07
-2.9234e-11
0.000249751
-1.22386e-08
-2.73157e-08
1.22286e-06
-2.52939e-07
2.6292e-07
8.91741e-07
-2.38591e-07
-8.76834e-07
2.5014e-07
0.00113275
2.93505e-09
-2.93053e-08
9.81709e-07
-7.84699e-07
-9.62973e-07
8.03249e-07
0.00115351
-3.1226e-08
8.77547e-09
8.00419e-08
0.00024495
-4.39683e-08
1.55829e-07
-1.76015e-09
0.000249726
-8.66507e-09
-1.20676e-06
-2.90788e-08
8.94545e-07
-2.38027e-07
-8.7895e-07
2.50771e-07
1.21985e-06
-2.53525e-07
2.62512e-07
0.00113292
-2.97039e-08
9.84382e-07
-7.84606e-07
-9.65329e-07
8.03299e-07
0.00115346
-3.09379e-08
-1.67291e-08
8.97485e-09
7.96021e-08
0.000244842
1.65487e-10
-3.88639e-10
-2.03978e-08
0.000228793
-4.1122e-09
0.000193084
-4.80632e-10
-2.24346e-08
0.000228754
-5.89897e-09
-4.21406e-09
0.000193018
9.77118e-05
9.77394e-05
-9.77154e-05
9.77069e-05
9.77347e-05
-9.77106e-05
0.000268028
-2.148e-07
-2.17115e-07
-1.50488e-08
-7.97939e-09
3.50816e-08
0.000277493
-1.46221e-08
-9.17026e-09
3.23322e-08
0.000277415
9.77188e-05
9.77142e-05
1.97208e-08
7.9034e-05
5.97832e-10
-0.000262519
2.29421e-08
0.000262557
-5.41381e-08
-3.21947e-09
-4.0013e-09
-6.02351e-09
2.98749e-08
4.23777e-08
3.85762e-10
7.90581e-05
-1.21059e-09
-6.13168e-09
2.98956e-08
-8.30049e-10
1.86238e-08
0.000142963
-0.00014298
-6.12606e-10
-1.80627e-08
3.39939e-10
-0.000228835
-7.84755e-10
4.38551e-08
-0.000170582
-1.88001e-10
-5.18304e-10
0.000170607
-0.000222844
2.40107e-08
3.11915e-09
0.000222878
-5.96242e-08
-0.000170601
-5.23043e-10
-0.000222872
-4.88932e-10
4.70893e-08
1.18787e-09
0.000142985
-7.90443e-05
-2.25464e-08
-1.18837e-09
7.9068e-05
-2.01001e-08
0.000262549
4.71971e-10
-0.000262577
4.33532e-08
3.14183e-09
0.000193115
6.3287e-09
-3.70165e-08
6.2437e-10
-7.9065e-05
-3.15418e-09
0.000262586
-5.31428e-08
-0.000142957
1.8878e-10
-2.41913e-08
2.46005e-08
1.68708e-09
-6.53395e-10
-5.75447e-08
8.34539e-10
0.000170575
-0.000170594
-5.27088e-10
-1.84375e-08
0.000222837
-0.000222864
4.66792e-08
-0.000142974
-5.3165e-10
-6.00374e-08
2.02367e-08
7.90472e-05
-0.000262557
2.24457e-08
0.000262594
-5.28268e-08
-4.29601e-09
-5.81649e-09
3.09469e-08
4.36965e-08
7.90708e-05
9.77438e-05
-5.68635e-09
-2.04002e-08
6.49145e-09
1.6597e-08
1.86532e-08
-4.78988e-10
0.000142969
-0.000142986
-7.34784e-10
-3.53486e-10
-1.81981e-08
-0.000228822
-1.25177e-10
4.39748e-08
-0.000222837
2.39762e-08
2.65973e-09
0.000222871
-5.95467e-08
-0.000170587
-5.90038e-10
1.61684e-10
0.000170612
-0.000222865
-9.80174e-10
4.71721e-08
-0.000170606
7.50264e-11
1.05824e-09
0.000142991
-7.90503e-05
-2.26318e-08
-1.08761e-09
7.9074e-05
-2.00178e-08
0.000262551
9.16717e-10
-0.000262579
4.33695e-08
3.52945e-09
0.000193102
6.04937e-09
-3.70649e-08
7.30661e-10
-7.9071e-05
-2.75814e-09
0.000262588
-5.31786e-08
-0.000142964
-2.41312e-08
4.74719e-10
1.48858e-09
2.44986e-08
-2.22292e-10
-5.74229e-08
-1.85144e-08
0.00022283
-0.000222858
4.68543e-08
5.88052e-10
0.000170581
-0.0001706
-5.48019e-11
-0.000142981
-5.99186e-08
9.14477e-12
2.01457e-08
7.90531e-05
-0.000262559
2.25371e-08
0.000262596
-5.28593e-08
-3.81734e-09
-6.18148e-09
3.09101e-08
4.36636e-08
7.90767e-05
9.77333e-05
-6.03518e-09
-1.79832e-08
6.27814e-09
1.42765e-08
-9.26297e-09
-8.95495e-09
0.000213182
-0.000213195
1.53757e-08
1.58026e-08
-8.03138e-05
-1.07554e-08
-1.16929e-08
8.03362e-05
-8.03022e-05
-1.11036e-08
-1.13741e-08
8.03246e-05
-8.03336e-05
1.05973e-08
-8.0322e-05
1.09102e-08
-2.0658e-08
-2.02878e-08
0.000213201
-0.000221423
-2.98644e-08
2.82018e-08
2.07685e-08
0.000221453
-4.91009e-08
-2.30336e-08
0.000250255
-0.000250316
7.55571e-08
4.07228e-08
2.26576e-08
0.000182543
-1.058e-08
-0.000182563
-4.03836e-08
9.48211e-09
0.000277513
1.72814e-08
-2.0322e-08
-1.52706e-08
-0.000221447
3.92419e-08
0.000250317
-8.55878e-08
-4.72029e-08
1.16974e-08
0.000182569
-0.000221354
-2.94007e-08
2.6767e-08
2.03785e-08
0.000221388
-5.20719e-08
-2.36068e-08
0.00025014
-0.000250203
7.72502e-08
4.11636e-08
2.01316e-08
0.000182489
-1.08833e-08
-0.000182508
-4.10421e-08
9.23135e-09
0.000277432
1.79071e-08
-1.95313e-08
-1.57032e-08
-0.000221382
4.10361e-08
0.000250208
-9.11248e-08
-4.68788e-08
1.13854e-08
0.000182514
-0.000213176
1.08107e-08
1.11481e-08
9.20417e-09
8.03111e-05
-8.03309e-05
8.90207e-09
8.02995e-05
-8.03193e-05
-0.000213189
2.32184e-08
-2.2749e-08
0.000221426
4.17442e-08
-0.000182549
-2.81166e-08
0.000182574
3.49315e-08
-7.91635e-09
-1.51064e-08
1.6006e-08
-0.000250259
2.96629e-08
0.000250321
-8.77578e-08
-4.70269e-08
7.58235e-08
4.09058e-08
0.000221458
-5.11858e-08
2.37495e-08
-2.03056e-08
0.000221359
4.13029e-08
-0.000182496
-2.66157e-08
0.00018252
3.2032e-08
-9.1844e-09
-1.44595e-08
1.67244e-08
-0.000250145
2.92572e-08
0.000250212
-9.07041e-08
-4.66306e-08
7.76565e-08
4.14068e-08
0.000221393
-5.18251e-08
1.41357e-08
1.40071e-08
-8.92552e-09
-8.84399e-09
0.000213186
1.72115e-08
1.52188e-08
-8.03143e-05
-1.11138e-08
-1.14792e-08
8.03369e-05
-8.03009e-05
-1.12676e-08
-1.13523e-08
8.03236e-05
1.07146e-08
1.08408e-08
-2.31293e-08
-2.10064e-08
0.000213208
-2.19035e-08
0.000221438
2.51529e-08
3.81768e-08
-0.000182543
-2.92865e-08
0.000182572
-1.11014e-08
3.3446e-08
1.61403e-08
3.25786e-08
-0.000250289
0.000250347
-8.93014e-08
-4.52414e-08
0.000221469
-5.02408e-08
7.40066e-08
3.76418e-08
-2.17556e-08
0.000221372
2.28999e-08
4.26702e-08
-0.00018249
-2.90765e-08
0.000182516
-8.71162e-09
3.34445e-08
1.4054e-08
2.9911e-08
-0.000250179
0.000250242
-9.189e-08
-4.4881e-08
0.000221407
-5.48849e-08
7.6403e-08
3.79767e-08
-9.77556e-05
1.44554e-08
5.90433e-09
-1.80508e-08
-6.24642e-09
-9.77468e-05
1.42098e-08
6.15064e-09
-1.81936e-08
-6.0761e-09
-0.000213193
1.10074e-08
1.12973e-08
-2.30683e-08
-2.07965e-08
0.000213215
9.04599e-09
8.03172e-05
1.06977e-08
8.83111e-09
8.03038e-05
1.09498e-08
1.72806e-08
1.54449e-08
-1.15346e-08
8.03397e-05
-1.12824e-08
8.03264e-05
-2.23585e-08
2.53632e-08
0.00022145
-0.000221475
-1.73345e-08
3.8825e-08
-0.000250301
3.2331e-08
0.000250357
-8.60287e-08
-4.49367e-08
-1.08822e-08
3.40719e-08
-0.000277546
1.61385e-08
-0.000182556
-2.8821e-08
1.15994e-08
0.000182585
-0.000182579
-1.06021e-08
-0.000250355
7.24013e-08
4.04221e-08
2.29857e-08
0.00022148
-4.95769e-08
-2.20194e-08
2.33688e-08
0.000221384
-0.000221413
-1.56443e-08
4.31406e-08
-0.000250189
2.94359e-08
0.000250251
-9.12385e-08
-4.43729e-08
-8.85645e-09
3.38998e-08
-0.000277479
1.42859e-08
-0.000182503
-2.88005e-08
1.12125e-08
0.000182529
-0.000182523
-1.09902e-08
-0.000250247
7.70503e-08
3.84607e-08
2.05824e-08
0.000221418
-5.44071e-08
-0.000221444
2.90605e-08
-3.2474e-08
-4.99156e-08
2.21327e-08
0.00018255
-2.52634e-08
0.000250297
7.19765e-08
3.77357e-08
1.14879e-08
-4.35631e-08
-1.99537e-08
3.8522e-08
-8.65121e-08
-4.76606e-08
-0.000221378
2.89571e-08
-2.96936e-08
-5.46547e-08
2.18882e-08
0.000182497
-2.31583e-08
0.000250184
7.67423e-08
3.82432e-08
8.4665e-09
-4.36585e-08
-1.72144e-08
4.29216e-08
-9.15747e-08
-4.46589e-08
-9.1722e-09
-8.81085e-09
0.0002132
-8.03199e-05
-1.08723e-08
8.03424e-05
-8.03065e-05
-1.12969e-08
8.03291e-05
0.000213221
-0.000142945
1.46286e-10
-2.45739e-08
1.20373e-09
0.000142968
8.8353e-10
0.00017056
-6.41137e-10
-0.000170578
-1.80573e-08
0.000222822
-3.9281e-10
4.58263e-08
-0.000222849
2.50257e-08
1.75261e-09
0.000228821
-7.35818e-10
-5.84577e-08
-5.91984e-10
-0.000142961
0.000170586
-6.22451e-10
3.19731e-09
0.000222857
-6.08784e-08
7.90411e-05
1.99391e-08
-7.90617e-05
6.15844e-10
-4.17368e-09
-0.0001931
3.03994e-08
2.2716e-08
-0.00026254
-3.17553e-09
-5.34954e-08
-1.17621e-09
-0.000262567
4.23333e-10
4.2999e-08
-7.90377e-05
-2.28226e-08
-1.98633e-08
0.00026253
4.26844e-08
3.24743e-09
-3.75674e-08
-5.38306e-08
0.000142951
-8.64345e-10
1.82173e-08
-1.76197e-08
3.90588e-10
-8.06132e-10
4.29169e-08
-1.65669e-10
-0.000170568
-5.74579e-10
2.43968e-08
-0.00022283
-6.04574e-08
-5.93147e-10
4.62102e-08
-0.000142874
1.29571e-09
-2.47564e-08
3.92659e-10
0.000142897
-3.10963e-10
0.000170525
-0.000170543
-1.78107e-08
0.000222724
-4.10739e-09
4.31372e-08
-0.000222746
2.50665e-08
1.9273e-10
0.000228781
-5.85533e-08
-1.41824e-09
-0.000142891
0.000170551
3.77519e-09
0.000222754
-5.86599e-08
1.93369e-08
7.89994e-05
-7.90201e-05
1.36484e-09
-2.83288e-09
-0.00019304
-6.59595e-09
3.21893e-08
-0.000262408
2.33438e-08
-3.81871e-09
0.000262445
-5.13881e-08
-0.000262436
4.04615e-09
4.00868e-08
-4.30201e-10
7.90231e-05
-7.89962e-05
-2.34933e-08
-1.91985e-08
0.000262399
3.97332e-08
-0.000262426
4.86542e-09
5.55822e-09
-4.01474e-08
-7.90168e-05
-5.17258e-08
2.25787e-10
1.79773e-08
0.000142881
-1.75763e-08
-1.12032e-09
4.28267e-08
-0.000170533
-1.19036e-09
0.000170558
-0.000222732
2.45597e-08
0.000222762
-5.82003e-08
4.35167e-08
0.000142904
-9.77374e-05
1.62326e-08
-2.07907e-08
2.37837e-08
-2.02758e-08
0.000221361
-2.01293e-08
4.32889e-08
-0.000221388
-0.000250136
3.16693e-08
0.000250196
-8.65504e-08