/*--------------------------------*- C++ -*----------------------------------*\
| =========                 |                                                 |
| \\      /  F ield         | OpenFOAM: The Open Source CFD Toolbox           |
|  \\    /   O peration     | Version:  2312                                  |
|   \\  /    A nd           | Website:  www.openfoam.com                      |
|    \\/     M anipulation  |                                                 |
\*---------------------------------------------------------------------------*/
FoamFile
{
    version     2.0;
    format      ascii;
    arch        "LSB;label=32;scalar=64";
    class       volVectorField;
    location    "300";
    object      U;
}
// * * * * * * * * * * * * * * * * * * * * * * * * * * * * * * * * * * * * * //

dimensions      [0 1 -1 0 0 0 0];

internalField   nonuniform List<vector> 
43168
(
(-2.9119e-06 -2.53711e-06 0.112726)
(2.67477e-06 -1.30532e-06 0.107566)
(-1.40321e-06 2.68117e-06 0.107564)
(-3.04633e-05 -3.02611e-05 0.104191)
(-3.71898e-05 -3.69916e-05 0.104311)
(-1.54934e-06 -2.80973e-06 0.107568)
(1.2663e-06 -3.0262e-06 0.107565)
(3.6986e-05 -3.7166e-05 0.104311)
(-2.98849e-06 -1.276e-06 0.107565)
(-3.01512e-06 1.23211e-06 0.10756)
(2.89219e-06 -1.40083e-06 0.107567)
(2.93022e-06 1.42077e-06 0.107566)
(-3.7135e-05 3.69604e-05 0.104308)
(-1.50996e-06 2.92599e-06 0.107565)
(1.35415e-06 3.0413e-06 0.107567)
(3.70122e-05 3.72293e-05 0.104312)
(3.02397e-05 3.04622e-05 0.10419)
(-1.43613e-06 -2.5814e-06 0.107567)
(1.15323e-06 -2.78373e-06 0.107564)
(-3.0467e-05 3.0254e-05 0.104189)
(-2.78879e-06 -1.1399e-06 0.107564)
(-2.7771e-06 1.09118e-06 0.107559)
(2.71637e-06 1.30148e-06 0.107564)
(3.03165e-05 -3.05328e-05 0.104187)
(1.23522e-06 2.79686e-06 0.107566)
(-1.05067e-06 -1.08312e-05 0.0820278)
(-1.08119e-05 -9.8158e-07 0.0820306)
(-3.0655e-06 -2.72792e-06 0.112728)
(2.93962e-06 -2.97028e-06 0.11273)
(-3.144e-06 2.9107e-06 0.112724)
(2.95323e-06 3.00161e-06 0.11273)
(-3.73887e-07 -1.30829e-05 0.0911993)
(7.5175e-07 9.14051e-06 0.0819864)
(-3.10403e-07 9.04209e-06 0.0911532)
(-1.128e-06 -1.05445e-05 0.0820403)
(-3.21558e-06 4.91455e-06 0.0713277)
(2.78383e-06 -5.61999e-06 0.071388)
(-1.30497e-05 -1.50492e-07 0.0911994)
(9.15532e-06 8.96135e-07 0.081989)
(9.11273e-06 -1.58904e-07 0.0911533)
(-1.05781e-05 -1.01258e-06 0.0820427)
(2.75259e-06 -2.79232e-06 0.112727)
(-2.92804e-06 2.66697e-06 0.112722)
(2.73233e-06 2.75691e-06 0.112727)
(2.10269e-05 -1.50435e-07 0.0984398)
(-1.32591e-05 4.93298e-06 0.0928024)
(3.39868e-06 -6.27192e-07 0.110061)
(2.44023e-06 -1.18984e-06 0.107564)
(-1.50076e-05 1.18534e-07 0.0983811)
(1.64772e-05 -6.21027e-06 0.0928616)
(3.10694e-06 -6.06969e-07 0.110058)
(4.98083e-06 -3.20257e-06 0.0713269)
(-5.64935e-06 2.83945e-06 0.0713833)
(-4.25647e-07 2.10471e-05 0.0984378)
(-8.86315e-07 3.30526e-06 0.11006)
(4.84065e-06 -1.31564e-05 0.0928014)
(-1.29371e-06 2.42929e-06 0.107562)
(-9.3254e-08 -1.49274e-05 0.0983791)
(-8.4471e-07 3.00372e-06 0.110057)
(-6.30878e-06 1.64841e-05 0.0928599)
(-6.04781e-06 -4.69944e-06 0.0873187)
(-4.98612e-06 -5.79858e-06 0.0873166)
(3.67522e-05 3.68995e-05 0.104311)
(7.83002e-06 5.8994e-06 0.087371)
(5.69783e-06 8.00189e-06 0.0873682)
(-2.94465e-06 -5.70485e-06 0.0713744)
(-5.71933e-06 -2.91287e-06 0.0713757)
(-3.7462e-05 -3.72978e-05 0.104312)
(-5.80164e-06 -8.22733e-06 0.0873613)
(-8.24546e-06 -5.72269e-06 0.0873595)
(-3.00047e-06 -5.64998e-06 0.0713803)
(3.08308e-06 5.0162e-06 0.0713223)
(-5.67721e-06 -2.89755e-06 0.0713815)
(4.94744e-06 3.16069e-06 0.0713241)
(2.9961e-05 3.01469e-05 0.10419)
(-5.8028e-06 -8.03409e-06 0.0873672)
(-8.13639e-06 -5.6523e-06 0.0873653)
(4.81717e-06 5.71029e-06 0.0873138)
(5.71933e-06 4.96982e-06 0.087313)
(-1.72204e-06 -3.29059e-06 0.107571)
(-6.51763e-06 -1.69985e-05 0.0928496)
(-3.44652e-07 8.78737e-06 0.0911473)
(-1.10573e-06 -1.07043e-05 0.0820345)
(7.99092e-07 9.01747e-06 0.08198)
(-3.77372e-07 -1.33524e-05 0.0911939)
(-2.86617e-07 8.74514e-06 0.0911474)
(7.17598e-07 -1.08278e-05 0.082036)
(-1.16579e-06 8.82295e-06 0.0819804)
(-1.98291e-07 -1.33957e-05 0.091194)
(-2.94941e-07 1.46223e-05 0.0983771)
(-1.64164e-06 -3.05348e-06 0.107569)
(-6.48449e-06 -1.67395e-05 0.0928546)
(-9.14464e-07 -3.48382e-06 0.110068)
(4.70424e-06 1.29312e-05 0.0927949)
(-9.6622e-07 -3.81332e-06 0.11007)
(-5.76439e-07 -2.14507e-05 0.0984363)
(-2.76999e-07 1.45944e-05 0.0983769)
(1.37346e-06 -3.25775e-06 0.107567)
(6.02194e-06 -1.68554e-05 0.0928547)
(6.60095e-07 -3.56271e-06 0.110066)
(-5.13868e-06 1.2765e-05 0.0927943)
(7.09429e-07 -3.90317e-06 0.110069)
(4.04594e-08 -2.14737e-05 0.0984361)
(2.74268e-06 -5.68953e-06 0.0713836)
(-3.30356e-06 4.82352e-06 0.0713227)
(-3.02439e-05 2.994e-05 0.10419)
(5.51927e-06 -8.12215e-06 0.0873666)
(8.03629e-06 -5.70797e-06 0.0873693)
(-5.1532e-06 5.59104e-06 0.087313)
(5.67827e-06 -2.95005e-06 0.0713832)
(-3.42878e-06 -1.52093e-06 0.107568)
(-1.70023e-05 -6.40403e-06 0.0928489)
(8.87563e-06 -1.68706e-07 0.0911477)
(-1.06837e-05 -9.92844e-07 0.082037)
(9.02178e-06 9.16182e-07 0.0819828)
(-1.32906e-05 -2.23805e-07 0.0911942)
(1.47496e-05 -8.3443e-08 0.0983727)
(-3.21649e-06 -1.39633e-06 0.107567)
(-1.67782e-05 -6.30408e-06 0.0928539)
(-3.6246e-06 -6.80533e-07 0.110059)
(1.29472e-05 4.87012e-06 0.0927949)
(-3.91343e-06 -7.22033e-07 0.110061)
(-2.13806e-05 -3.63547e-07 0.0984321)
(8.85216e-06 -7.08873e-08 0.0911469)
(-1.07186e-05 1.02788e-06 0.0820325)
(8.96362e-06 -9.22432e-07 0.0819787)
(-1.32998e-05 3.59884e-08 0.0911933)
(1.47186e-05 -9.09521e-08 0.0983725)
(-3.22896e-06 1.35733e-06 0.107561)
(-3.67382e-06 7.05036e-07 0.110057)
(-1.67445e-05 6.24272e-06 0.092851)
(-3.96126e-06 7.63355e-07 0.110059)
(1.2934e-05 -4.944e-06 0.0927927)
(-2.14301e-05 2.41698e-07 0.0984319)
(1.66777e-05 -6.35424e-06 0.0928576)
(3.68257e-06 -6.64562e-07 0.110062)
(2.13786e-05 -1.28772e-07 0.0984373)
(1.07593e-05 -1.05708e-06 0.082038)
(1.32067e-05 -1.32036e-08 0.0911975)
(3.73004e-06 7.92853e-07 0.110062)
(1.66021e-05 6.63498e-06 0.0928553)
(2.14016e-05 4.98042e-07 0.0984367)
(1.0577e-05 1.35888e-06 0.0820353)
(1.32315e-05 3.89152e-07 0.0911966)
(-5.65954e-06 2.88852e-06 0.0713782)
(4.93128e-06 -3.19719e-06 0.0713213)
(2.99999e-05 -3.01991e-05 0.104188)
(-8.09995e-06 5.58631e-06 0.087362)
(-5.72256e-06 8.06117e-06 0.0873675)
(5.68377e-06 -5.01166e-06 0.0873111)
(4.89148e-06 -5.69862e-06 0.0873151)
(-2.98119e-06 5.65502e-06 0.0713813)
(3.10888e-06 -4.99288e-06 0.0713239)
(-1.32027e-07 -1.45878e-05 0.0983762)
(-1.6194e-06 3.17828e-06 0.107566)
(-9.20964e-07 3.60545e-06 0.110061)
(-6.38241e-06 1.68063e-05 0.0928556)
(-9.67251e-07 3.96659e-06 0.110064)
(4.79436e-06 -1.28973e-05 0.0927966)
(-4.54107e-07 2.14902e-05 0.0984354)
(-1.02348e-07 -1.45778e-05 0.098376)
(1.45138e-06 3.2842e-06 0.107569)
(6.325e-07 3.66524e-06 0.110063)
(6.31078e-06 1.68579e-05 0.0928534)
(6.63093e-07 4.00198e-06 0.110065)
(-4.98167e-06 -1.28952e-05 0.0927943)
(2.30012e-07 2.14942e-05 0.0984354)
(-8.72728e-08 -8.74012e-06 0.0911466)
(-1.02453e-06 1.07947e-05 0.0820359)
(8.75005e-07 -8.94077e-06 0.0819819)
(-2.08266e-07 1.33565e-05 0.0911944)
(-1.3026e-08 -8.70332e-06 0.0911459)
(1.05026e-06 1.07643e-05 0.0820334)
(-9.68384e-07 -8.90739e-06 0.0819789)
(7.74544e-08 1.33598e-05 0.0911947)
(-3.01713e-05 -2.99218e-05 0.104191)
(7.8758e-06 5.99069e-06 0.0873657)
(5.69286e-06 8.13751e-06 0.087363)
(-5.02779e-06 -5.67707e-06 0.0873111)
(5.51616e-06 3.30173e-06 0.0713789)
(2.96265e-06 5.68661e-06 0.0713778)
(-3.21006e-06 -4.91166e-06 0.0713203)
(3.02787e-06 5.07261e-06 0.071328)
(-3.03595e-06 -5.58952e-06 0.0713853)
(5.00365e-06 3.17842e-06 0.0713297)
(-5.6151e-06 -2.89678e-06 0.0713866)
(4.83328e-06 5.90618e-06 0.0873194)
(5.83519e-06 5.0362e-06 0.0873187)
(-3.69091e-05 -3.66375e-05 0.10431)
(-5.73651e-06 -7.84687e-06 0.0873722)
(-7.97953e-06 -5.53423e-06 0.0873705)
(3.01118e-06 5.11768e-06 0.0713329)
(5.05632e-06 3.18679e-06 0.0713345)
(3.05435e-05 3.08493e-05 0.104189)
(4.90887e-06 6.08096e-06 0.0873243)
(6.0035e-06 5.16444e-06 0.0873237)
(-2.08074e-07 -1.30974e-05 0.0911993)
(-1.08271e-06 9.01391e-06 0.0819862)
(-2.4968e-07 9.01441e-06 0.0911533)
(7.78252e-07 -1.065e-05 0.0820412)
(-5.48677e-07 -2.0988e-05 0.0984388)
(4.75001e-06 1.32156e-05 0.0927997)
(-8.68876e-07 -3.19906e-06 0.110066)
(-1.31191e-06 -2.32795e-06 0.107565)
(-2.66255e-07 1.50411e-05 0.09838)
(-6.41251e-06 -1.64267e-05 0.092859)
(-8.2449e-07 -2.90419e-06 0.110063)
(5.26938e-08 -2.10302e-05 0.0984387)
(-5.15951e-06 1.31028e-05 0.0927989)
(6.35349e-07 -3.27928e-06 0.110065)
(1.01658e-06 -2.55757e-06 0.107563)
(-2.57232e-07 1.50225e-05 0.0983799)
(5.9798e-06 -1.6535e-05 0.0928588)
(5.96154e-07 -2.99864e-06 0.110062)
(-3.19521e-07 9.30659e-06 0.0911584)
(7.42393e-07 9.32843e-06 0.081992)
(-2.8385e-07 9.29807e-06 0.0911584)
(-9.90258e-07 9.16616e-06 0.0819912)
(-2.31702e-07 1.54923e-05 0.0983824)
(-1.21163e-06 -2.10906e-06 0.107564)
(4.81997e-06 1.35178e-05 0.0928039)
(-8.03577e-07 -2.6644e-06 0.110062)
(-2.45657e-07 1.54703e-05 0.0983823)
(9.01735e-07 -2.37836e-06 0.107562)
(-5.20796e-06 1.3439e-05 0.0928028)
(5.40027e-07 -2.79033e-06 0.110061)
(-5.14472e-06 5.79615e-06 0.0873181)
(-5.91777e-06 5.0059e-06 0.087322)
(3.66669e-05 -3.6853e-05 0.10431)
(5.47818e-06 -7.92778e-06 0.0873712)
(7.94886e-06 -5.57947e-06 0.0873742)
(-4.99446e-06 3.16849e-06 0.0713308)
(5.66658e-06 -2.89143e-06 0.0713881)
(-3.18017e-06 4.99067e-06 0.071332)
(-3.0815e-05 3.0582e-05 0.104189)
(-5.20435e-06 6.00683e-06 0.0873225)
(-6.01767e-06 5.12715e-06 0.0873266)
(-5.00822e-06 3.20546e-06 0.0713356)
(-2.09975e-05 -3.48772e-07 0.098435)
(1.31924e-05 4.97685e-06 0.0927997)
(-3.34247e-06 -6.32146e-07 0.110057)
(-2.56921e-06 -9.83773e-07 0.107563)
(1.50955e-05 -6.96377e-08 0.0983757)
(-1.65166e-05 -6.19383e-06 0.0928585)
(-3.08228e-06 -5.85795e-07 0.110055)
(-1.30427e-05 9.53548e-08 0.0911982)
(9.13913e-06 -9.02648e-07 0.0819848)
(9.10676e-06 -2.52833e-08 0.0911524)
(-1.05826e-05 9.89918e-07 0.0820382)
(-2.10214e-05 2.11713e-07 0.0984349)
(-3.36906e-06 6.32036e-07 0.110055)
(1.31668e-05 -5.04026e-06 0.0927974)
(-2.54368e-06 9.44893e-07 0.107558)
(1.50556e-05 -9.4219e-08 0.0983756)
(-3.08559e-06 5.66417e-07 0.110053)
(-1.64898e-05 6.11589e-06 0.0928553)
(9.34114e-06 -6.97781e-08 0.0911583)
(9.27659e-06 8.94006e-07 0.0819945)
(1.54865e-05 -4.20375e-08 0.0983784)
(-2.39632e-06 -8.56703e-07 0.107562)
(1.34592e-05 5.0813e-06 0.0928042)
(-2.87899e-06 -5.44969e-07 0.110054)
(9.35726e-06 3.73153e-08 0.0911572)
(9.21253e-06 -9.39246e-07 0.0819903)
(1.54756e-05 -1.1884e-07 0.0983783)
(-2.33986e-06 8.19828e-07 0.107557)
(-2.85744e-06 5.15162e-07 0.110052)
(1.34262e-05 -5.17705e-06 0.0928016)
(1.30794e-05 5.46564e-08 0.091202)
(-9.0695e-06 9.37107e-07 0.0819893)
(-9.06501e-06 -4.23266e-08 0.0911553)
(1.06611e-05 -9.76966e-07 0.0820436)
(2.10251e-05 4.91898e-07 0.0984392)
(3.41159e-06 7.508e-07 0.11006)
(-1.32837e-05 -4.61466e-06 0.0928006)
(2.47625e-06 1.18295e-06 0.107563)
(-1.50162e-05 1.67146e-07 0.0983807)
(3.09782e-06 7.05203e-07 0.110058)
(1.64223e-05 6.54062e-06 0.0928598)
(1.30757e-05 3.77069e-07 0.0912011)
(-9.28082e-06 -5.49518e-07 0.0819871)
(-9.10032e-06 2.64614e-07 0.0911554)
(1.0526e-05 1.27348e-06 0.0820406)
(-1.53458e-05 9.90781e-08 0.0983834)
(2.24964e-06 -1.09886e-06 0.107563)
(-1.34585e-05 5.06058e-06 0.0928063)
(2.8661e-06 -5.80814e-07 0.110057)
(-9.20218e-06 2.11761e-08 0.0911597)
(-9.15464e-06 9.9096e-07 0.0819947)
(-1.53784e-05 1.46861e-07 0.0983831)
(2.26791e-06 1.07892e-06 0.107562)
(2.84381e-06 6.73063e-07 0.110057)
(-1.34855e-05 -4.72719e-06 0.0928048)
(-9.24493e-06 2.35082e-07 0.0911599)
(-9.29638e-06 -6.43119e-07 0.0819923)
(5.80992e-06 -5.10032e-06 0.0873166)
(4.90475e-06 -5.86108e-06 0.0873206)
(-3.68371e-05 3.66066e-05 0.104308)
(-7.98172e-06 5.45799e-06 0.0873671)
(-5.69302e-06 7.86485e-06 0.0873725)
(3.06522e-06 -5.03817e-06 0.0713294)
(-3.01497e-06 5.58501e-06 0.0713863)
(4.98594e-06 -3.26433e-06 0.0713319)
(3.06327e-05 -3.09193e-05 0.104187)
(5.94464e-06 -5.23679e-06 0.0873214)
(4.93921e-06 -6.0599e-06 0.0873254)
(3.04628e-06 -5.11306e-06 0.0713342)
(2.29423e-07 2.10702e-05 0.0984377)
(5.78594e-07 3.33192e-06 0.110061)
(-4.94423e-06 -1.31045e-05 0.0927991)
(1.08485e-06 2.53591e-06 0.107565)
(-5.26587e-08 -1.49027e-05 0.0983788)
(5.20971e-07 3.02404e-06 0.110059)
(6.3032e-06 1.65927e-05 0.0928578)
(-1.62158e-07 1.30901e-05 0.0911997)
(8.42662e-07 -9.08618e-06 0.0819882)
(-3.74694e-08 -8.95762e-06 0.0911524)
(-1.10151e-06 1.0618e-05 0.0820416)
(1.01743e-07 1.30784e-05 0.0912)
(-8.45676e-07 -9.07871e-06 0.0819854)
(5.01869e-08 -8.91259e-06 0.0911517)
(1.1402e-06 1.06049e-05 0.0820395)
(-6.42829e-08 -1.5367e-05 0.0983815)
(-1.20097e-06 2.20958e-06 0.107561)
(-8.25406e-07 2.7834e-06 0.110056)
(4.92542e-06 -1.34953e-05 0.0928055)
(-6.78841e-08 -1.53335e-05 0.0983812)
(9.38617e-07 2.33947e-06 0.107564)
(4.59333e-07 2.80988e-06 0.110057)
(-4.9614e-06 -1.33802e-05 0.0928034)
(-3.66394e-09 -9.24196e-06 0.0911576)
(7.84219e-07 -9.28962e-06 0.0819937)
(5.25971e-08 -9.21088e-06 0.0911568)
(-7.52751e-07 -9.2234e-06 0.0819914)
(-5.16699e-06 -2.77482e-06 0.0713268)
(5.52262e-06 3.19932e-06 0.0713842)
(-3.12212e-06 -4.98712e-06 0.0713262)
(3.02092e-06 5.59902e-06 0.0713833)
(-3.07743e-05 -3.06344e-05 0.10419)
(-6.11367e-06 -4.79521e-06 0.0873238)
(-4.99603e-06 -5.95479e-06 0.0873218)
(-5.14816e-06 -2.89222e-06 0.071332)
(-3.05977e-06 -5.0719e-06 0.0713316)
(-6.28574e-07 5.49597e-06 0.0681862)
(-8.97595e-07 -1.074e-05 0.0856239)
(8.22896e-07 8.93143e-06 0.0819764)
(-1.92088e-07 7.91669e-06 0.0855676)
(3.36571e-07 -5.99468e-06 0.0682483)
(8.92632e-06 8.935e-07 0.0819794)
(-6.54985e-07 5.6134e-06 0.0766397)
(-3.13042e-07 9.17086e-06 0.0911559)
(-4.58747e-08 -6.44457e-06 0.0784522)
(-7.38754e-07 -1.28373e-05 0.0897132)
(-3.55089e-07 5.31326e-06 0.0784119)
(-8.65795e-08 9.29665e-06 0.0896638)
(5.3318e-07 -6.56665e-06 0.0766868)
(3.18364e-07 -5.93331e-06 0.0682571)
(-1.88908e-07 8.15801e-06 0.0855773)
(-1.12285e-06 -1.064e-05 0.0820375)
(-6.47861e-07 5.54527e-06 0.0681953)
(-8.81904e-07 -1.0497e-05 0.0856333)
(5.3716e-07 -6.59747e-06 0.0766838)
(-3.72044e-07 -1.32158e-05 0.0911967)
(-3.56764e-07 5.26428e-06 0.0784086)
(-9.24249e-08 9.18108e-06 0.089661)
(-6.50919e-07 5.57581e-06 0.0766366)
(-5.41648e-08 -6.48558e-06 0.078449)
(-7.45799e-07 -1.29555e-05 0.0897106)
(-6.6462e-07 5.57437e-06 0.0681979)
(-8.72651e-07 -1.04194e-05 0.0856361)
(7.36223e-07 9.21235e-06 0.0819893)
(-1.80335e-07 8.24256e-06 0.0855802)
(3.06203e-07 -5.91192e-06 0.0682596)
(2.76513e-06 -5.64886e-06 0.0713859)
(-3.19758e-06 4.95002e-06 0.0713299)
(5.59684e-06 -5.49463e-07 0.0766444)
(9.23601e-06 -1.17818e-07 0.0911559)
(-1.27993e-05 -5.44865e-07 0.0897146)
(-6.42511e-06 2.03161e-07 0.0784561)
(9.34058e-06 9.02317e-08 0.0896651)
(5.33648e-06 -1.4088e-07 0.0784159)
(-6.57983e-06 6.56543e-07 0.0766913)
(-5.94974e-06 3.75306e-07 0.0682615)
(8.18926e-06 -4.33496e-08 0.0855799)
(-1.06207e-05 -1.00652e-06 0.0820399)
(5.53438e-06 -5.81872e-07 0.0681998)
(-1.04613e-05 -7.42539e-07 0.0856359)
(-6.59881e-06 6.20218e-07 0.0766886)
(-1.31557e-05 -2.01608e-07 0.0911969)
(9.24732e-06 5.74639e-08 0.0896624)
(5.29571e-06 -2.06081e-07 0.0784129)
(5.58549e-06 -5.76395e-07 0.0766416)
(-1.29028e-05 -5.89031e-07 0.089712)
(-6.46706e-06 1.29633e-07 0.0784533)
(5.5576e-06 -5.98595e-07 0.0682023)
(-1.03938e-05 -7.11514e-07 0.0856386)
(9.23606e-06 8.89708e-07 0.0819919)
(8.26633e-06 -3.11747e-08 0.0855828)
(-5.92972e-06 3.67975e-07 0.068264)
(-5.64991e-06 2.87309e-06 0.0713808)
(4.9857e-06 -3.23427e-06 0.0713295)
(-4.7249e-06 -4.58835e-06 0.083386)
(3.38161e-06 5.01828e-06 0.0681774)
(4.89401e-06 3.49366e-06 0.068171)
(-3.14464e-06 -4.5795e-06 0.0681204)
(-4.68315e-06 -3.04654e-06 0.0681143)
(5.96128e-06 6.12478e-06 0.0834316)
(1.41851e-05 8.4519e-06 0.0915163)
(-1.59474e-05 -8.79322e-06 0.0961094)
(-5.56662e-06 -3.39817e-06 0.0813258)
(7.86244e-06 5.95161e-06 0.0873685)
(-1.11281e-05 -6.04749e-06 0.0914684)
(2.00056e-05 1.1403e-05 0.0961591)
(6.7921e-06 3.87042e-06 0.0813783)
(8.26106e-06 1.44336e-05 0.0915089)
(-8.95826e-06 -1.56205e-05 0.0961061)
(-3.57328e-06 -5.34409e-06 0.0813208)
(5.70455e-06 8.06746e-06 0.0873656)
(-6.27555e-06 -1.08787e-05 0.0914616)
(1.1278e-05 2.02866e-05 0.0961558)
(3.72683e-06 7.03581e-06 0.0813721)
(5.99162e-06 6.14313e-06 0.0834292)
(-3.1288e-06 -4.5747e-06 0.0681181)
(-4.67232e-06 -3.03152e-06 0.068112)
(-4.69926e-06 -4.56444e-06 0.0833835)
(3.39597e-06 5.02491e-06 0.0681751)
(4.90185e-06 3.50814e-06 0.0681687)
(-1.11836e-05 -6.1127e-06 0.0914706)
(6.78355e-06 3.86475e-06 0.081381)
(-6.08106e-06 -4.75004e-06 0.0873213)
(1.9939e-05 1.13375e-05 0.0961606)
(-1.60214e-05 -8.86095e-06 0.0961109)
(-5.58309e-06 -3.40446e-06 0.0813285)
(1.41217e-05 8.37968e-06 0.0915185)
(-6.31647e-06 -1.09639e-05 0.0914638)
(3.72166e-06 6.98407e-06 0.0813748)
(-4.98913e-06 -5.87448e-06 0.0873192)
(1.11907e-05 2.01492e-05 0.0961574)
(-9.03885e-06 -1.57591e-05 0.0961078)
(-3.57498e-06 -5.39676e-06 0.0813236)
(8.22882e-06 1.43652e-05 0.0915111)
(3.10541e-06 4.98116e-06 0.0713193)
(4.92943e-06 3.15044e-06 0.0713211)
(4.51091e-06 4.52079e-06 0.0833771)
(-4.9842e-06 -3.48511e-06 0.0681713)
(-3.55387e-06 -4.92639e-06 0.0681649)
(4.60149e-06 3.05504e-06 0.0681136)
(3.01873e-06 4.63931e-06 0.0681074)
(-6.20233e-06 -6.16671e-06 0.0834239)
(5.97289e-06 1.06791e-05 0.0914612)
(-3.71914e-06 -7.09712e-06 0.0813732)
(4.82169e-06 5.60645e-06 0.0873107)
(-1.15844e-05 -2.05141e-05 0.0961533)
(3.50691e-06 5.17988e-06 0.0813194)
(-8.50612e-06 -1.45614e-05 0.0915099)
(8.60865e-06 1.53493e-05 0.0961034)
(1.06831e-05 6.01338e-06 0.0914546)
(-7.12422e-06 -3.66008e-06 0.0813672)
(5.64842e-06 4.91044e-06 0.08731)
(-2.05293e-05 -1.14743e-05 0.09615)
(5.25304e-06 3.57474e-06 0.0813146)
(-1.45747e-05 -8.46472e-06 0.0915032)
(1.53429e-05 8.7082e-06 0.0960999)
(3.05556e-06 5.04062e-06 0.0713252)
(-2.97499e-06 -5.67199e-06 0.0713775)
(4.97396e-06 3.16778e-06 0.071327)
(-5.70148e-06 -2.91286e-06 0.0713787)
(-6.19297e-06 -6.09483e-06 0.0834266)
(4.58781e-06 3.09123e-06 0.068116)
(3.01114e-06 4.6792e-06 0.0681099)
(4.52095e-06 4.59054e-06 0.0833799)
(-5.00194e-06 -3.45133e-06 0.0681737)
(-3.56318e-06 -4.89063e-06 0.0681673)
(6.0364e-06 1.09002e-05 0.0914662)
(-1.1469e-05 -2.02329e-05 0.096157)
(4.81065e-06 5.79112e-06 0.0873167)
(-3.77505e-06 -6.94759e-06 0.0813789)
(3.45841e-06 5.3347e-06 0.0813253)
(8.70051e-06 1.56253e-05 0.0961073)
(-8.42811e-06 -1.43309e-05 0.0915147)
(1.08277e-05 6.18791e-06 0.0914595)
(-2.02986e-05 -1.12788e-05 0.0961536)
(5.76975e-06 4.99458e-06 0.0873159)
(-7.06448e-06 -3.60767e-06 0.0813729)
(5.30767e-06 3.62554e-06 0.0813203)
(1.55723e-05 8.89306e-06 0.0961036)
(-1.44307e-05 -8.29188e-06 0.091508)
(-8.47488e-06 -1.44478e-05 0.0915124)
(3.49639e-06 5.26312e-06 0.0813224)
(8.64981e-06 1.55001e-05 0.0961054)
(-5.80607e-06 -8.12613e-06 0.0873644)
(6.00619e-06 1.07913e-05 0.0914638)
(-3.74053e-06 -7.01377e-06 0.0813762)
(-1.15416e-05 -2.03825e-05 0.0961552)
(-1.4505e-05 -8.38398e-06 0.0915057)
(5.28662e-06 3.6116e-06 0.0813175)
(1.54692e-05 8.8107e-06 0.0961018)
(-8.1882e-06 -5.67908e-06 0.0873625)
(1.07532e-05 6.10506e-06 0.0914572)
(-7.09431e-06 -3.63291e-06 0.0813701)
(-2.04164e-05 -1.13892e-05 0.0961519)
(4.53e-06 4.66132e-06 0.0833825)
(-5.02586e-06 -3.42305e-06 0.068176)
(-3.57552e-06 -4.86459e-06 0.0681696)
(4.55824e-06 3.12341e-06 0.0681184)
(2.99598e-06 4.70814e-06 0.0681123)
(-6.1831e-06 -6.02559e-06 0.0834291)
(5.22418e-07 -6.66645e-06 0.0766772)
(-3.86398e-07 5.18919e-06 0.0784014)
(-1.20005e-07 8.93611e-06 0.0896549)
(-3.9415e-07 -1.34755e-05 0.091191)
(-6.70393e-07 5.50587e-06 0.0766298)
(-7.7043e-08 -6.56451e-06 0.0784421)
(-7.66475e-07 -1.31928e-05 0.0897047)
(-6.42776e-07 5.51958e-06 0.0681925)
(7.75963e-07 9.10057e-06 0.0819833)
(-8.92228e-07 -1.05844e-05 0.0856304)
(3.30145e-07 -5.96432e-06 0.0682544)
(-2.05016e-07 8.07448e-06 0.0855743)
(3.31432e-07 -5.97764e-06 0.0682515)
(-2.06797e-07 8.00009e-06 0.085571)
(-1.09216e-06 -1.0772e-05 0.0820313)
(-6.43398e-07 5.51379e-06 0.0681895)
(-8.99279e-07 -1.06564e-05 0.0856272)
(-6.61728e-07 5.53733e-06 0.0766333)
(-3.2354e-07 8.90332e-06 0.0911503)
(-6.07656e-08 -6.53497e-06 0.0784457)
(-7.56111e-07 -1.30716e-05 0.0897077)
(5.35328e-07 -6.63456e-06 0.0766806)
(-3.67354e-07 5.23099e-06 0.0784051)
(-1.03689e-07 9.04987e-06 0.0896581)
(-1.04988e-06 -6.71787e-06 0.0766766)
(-1.68166e-07 5.17423e-06 0.0784013)
(-5.0518e-07 8.85705e-06 0.0896555)
(-2.14032e-07 -1.35143e-05 0.091191)
(1.28121e-07 5.43259e-06 0.0766296)
(-4.60919e-07 -6.57608e-06 0.0784419)
(1.48357e-07 -1.32795e-05 0.0897048)
(2.74686e-07 5.45243e-06 0.0681954)
(-1.10706e-06 8.92133e-06 0.0819834)
(3.58842e-07 -1.06998e-05 0.0856315)
(-2.8378e-07 7.9665e-06 0.0855761)
(-7.26942e-07 -6.02959e-06 0.0682568)
(-7.5476e-07 -6.04929e-06 0.0682541)
(-3.10774e-07 7.86946e-06 0.085573)
(6.71154e-07 -1.09005e-05 0.0820331)
(2.41132e-07 5.43799e-06 0.0681926)
(3.30589e-07 -1.07833e-05 0.0856286)
(1.66554e-07 5.4636e-06 0.0766329)
(-2.7192e-07 8.86758e-06 0.0911505)
(-4.29219e-07 -6.54646e-06 0.0784454)
(1.62812e-07 -1.31441e-05 0.0897078)
(-1.39784e-07 5.21591e-06 0.078405)
(-4.87528e-07 8.97099e-06 0.0896587)
(-1.01018e-06 -6.6961e-06 0.0766799)
(-3.24674e-06 4.86414e-06 0.0713253)
(2.7023e-06 -5.74341e-06 0.0713811)
(-6.31375e-06 1.08117e-05 0.0914604)
(1.11582e-05 -2.03831e-05 0.096154)
(-5.13913e-06 5.69399e-06 0.0873156)
(3.63546e-06 -7.06968e-06 0.0813734)
(-9.07745e-06 1.54966e-05 0.0961041)
(-3.71677e-06 5.29553e-06 0.0813214)
(8.23707e-06 -1.44684e-05 0.0915085)
(-1.101e-05 6.09494e-06 0.0914676)
(2.01807e-05 -1.13984e-05 0.0961584)
(-5.86046e-06 4.93626e-06 0.0873195)
(6.99281e-06 -3.68449e-06 0.0813802)
(-5.40184e-06 3.57192e-06 0.0813276)
(-1.57074e-05 8.7808e-06 0.0961082)
(1.42699e-05 -8.36902e-06 0.0915162)
(-9.00473e-06 1.53287e-05 0.0961024)
(5.50707e-06 -8.20875e-06 0.087364)
(1.12346e-05 -2.05385e-05 0.0961523)
(-4.65933e-06 4.55161e-06 0.0833835)
(4.89655e-06 -3.4973e-06 0.068171)
(3.46458e-06 -4.93756e-06 0.0681767)
(-4.69196e-06 3.04175e-06 0.0681136)
(-3.08292e-06 4.6335e-06 0.0681191)
(6.02376e-06 -6.12398e-06 0.0834304)
(-4.97969e-06 3.12305e-06 0.0713282)
(-6.64328e-06 6.13584e-07 0.0766824)
(9.01094e-06 3.70499e-08 0.0896565)
(5.21521e-06 -2.40855e-07 0.0784064)
(-1.33943e-05 -2.27895e-07 0.0911914)
(5.52135e-06 -5.67094e-07 0.0766351)
(-1.313e-05 -6.24449e-07 0.0897062)
(-6.54199e-06 6.38906e-08 0.0784469)
(5.53174e-06 -5.63268e-07 0.0681971)
(9.06343e-06 8.77387e-07 0.081986)
(-1.05531e-05 -7.46001e-07 0.085633)
(-5.96973e-06 3.96009e-07 0.068259)
(8.09893e-06 -5.4066e-08 0.085577)
(-5.97258e-06 4.16732e-07 0.0682561)
(8.01527e-06 -3.16788e-08 0.0855738)
(-1.07776e-05 -1.00888e-06 0.0820339)
(5.5102e-06 -5.34938e-07 0.0681942)
(-1.06339e-05 -7.48551e-07 0.0856299)
(5.57065e-06 -5.80953e-07 0.0766385)
(8.9929e-06 -1.78061e-07 0.0911506)
(-1.30138e-05 -6.07644e-07 0.0897092)
(-6.50509e-06 7.95555e-08 0.0784502)
(-6.61222e-06 6.11456e-07 0.0766857)
(9.12018e-06 3.22354e-08 0.0896596)
(5.26273e-06 -2.43024e-07 0.0784098)
(-6.63956e-06 -6.80205e-07 0.076678)
(5.22054e-06 7.14256e-08 0.0784047)
(8.97109e-06 -2.20633e-07 0.089654)
(-1.34248e-05 1.70113e-08 0.0911905)
(5.51796e-06 4.61826e-07 0.0766308)
(-6.54441e-06 -2.00733e-07 0.0784452)
(-1.31462e-05 4.71197e-07 0.0897032)
(5.51957e-06 5.32119e-07 0.0681949)
(9.02194e-06 -8.84912e-07 0.0819818)
(-1.05603e-05 7.02085e-07 0.0856294)
(8.07189e-06 -1.46098e-08 0.085574)
(-5.94903e-06 -4.06853e-07 0.0682565)
(-5.96821e-06 -4.23491e-07 0.0682537)
(7.97288e-06 -3.63936e-08 0.085571)
(-1.07425e-05 9.815e-07 0.0820294)
(5.4945e-06 5.1644e-07 0.0681921)
(-1.06412e-05 6.94128e-07 0.0856264)
(5.55873e-06 5.05283e-07 0.076634)
(8.96818e-06 -5.02799e-08 0.0911498)
(-6.51566e-06 -1.68883e-07 0.0784484)
(-1.30235e-05 4.94538e-07 0.0897061)
(5.24804e-06 1.01639e-07 0.078408)
(9.09356e-06 -1.98259e-07 0.089657)
(-6.60026e-06 -6.3854e-07 0.0766811)
(-5.45748e-06 -6.02378e-07 0.0681933)
(-9.0516e-06 8.9609e-07 0.0819863)
(1.05213e-05 -7.55912e-07 0.0856349)
(-8.06983e-06 -6.23084e-08 0.0855765)
(5.93215e-06 4.5076e-07 0.0682603)
(-5.45293e-06 -6.19818e-07 0.0766338)
(-8.99069e-06 -6.98604e-08 0.091153)
(1.29175e-05 -5.68195e-07 0.0897118)
(6.52588e-06 2.2215e-07 0.0784503)
(-9.09698e-06 2.06104e-08 0.0896598)
(-5.16146e-06 -2.07878e-07 0.0784075)
(6.5735e-06 6.67411e-07 0.0766863)
(-5.58091e-06 8.05131e-07 0.0681964)
(-9.23673e-06 -5.15837e-07 0.0819844)
(1.04114e-05 1.00474e-06 0.0856323)
(-8.26509e-06 3.06979e-07 0.0855764)
(5.90807e-06 -1.6891e-07 0.0682582)
(-5.57749e-06 8.68501e-07 0.0766357)
(-9.01411e-06 2.49312e-07 0.0911531)
(6.54122e-06 1.13451e-07 0.0784494)
(1.29066e-05 8.91941e-07 0.0897094)
(-5.2158e-06 3.42558e-07 0.0784088)
(-9.2269e-06 2.03245e-07 0.08966)
(6.60137e-06 -2.97684e-07 0.0766828)
(4.96504e-06 -3.1974e-06 0.0713242)
(-5.69438e-06 2.88564e-06 0.0713754)
(-6.14728e-06 6.08382e-06 0.0834262)
(3.0186e-06 -4.65173e-06 0.0681103)
(4.60806e-06 -3.05816e-06 0.0681164)
(4.55095e-06 -4.57172e-06 0.0833799)
(-3.54413e-06 4.89412e-06 0.0681671)
(-4.97563e-06 3.47526e-06 0.0681736)
(1.08641e-05 -6.20626e-06 0.0914588)
(-2.03018e-05 1.11935e-05 0.0961511)
(5.74759e-06 -5.0471e-06 0.0873139)
(-7.0761e-06 3.61084e-06 0.0813702)
(1.56464e-05 -8.97981e-06 0.0961027)
(5.29893e-06 -3.63482e-06 0.0813193)
(-1.44411e-05 8.25467e-06 0.0915061)
(6.09826e-06 -1.09113e-05 0.0914666)
(-1.14076e-05 2.02489e-05 0.096157)
(4.8913e-06 -5.77154e-06 0.0873179)
(-3.72643e-06 6.98104e-06 0.0813785)
(3.53217e-06 -5.33875e-06 0.0813263)
(8.79909e-06 -1.56333e-05 0.0961075)
(-8.40545e-06 1.43696e-05 0.0915143)
(-1.45105e-05 8.33448e-06 0.0915038)
(5.24759e-06 -3.60358e-06 0.0813165)
(1.55206e-05 -8.90046e-06 0.0961009)
(-8.17177e-06 5.63634e-06 0.0873593)
(-2.04167e-05 1.12868e-05 0.0961495)
(1.07882e-05 -6.13941e-06 0.0914565)
(-7.12457e-06 3.64814e-06 0.0813676)
(-8.45152e-06 1.44712e-05 0.091512)
(3.55208e-06 -5.27388e-06 0.0813236)
(8.75265e-06 -1.55129e-05 0.0961058)
(-5.73948e-06 8.15208e-06 0.0873647)
(6.05963e-06 -1.08104e-05 0.0914643)
(-3.71642e-06 7.05733e-06 0.0813757)
(-1.1474e-05 2.03812e-05 0.0961553)
(4.57795e-06 -4.64158e-06 0.0833824)
(-3.55731e-06 4.8634e-06 0.0681694)
(-4.98547e-06 3.44879e-06 0.0681758)
(3.01634e-06 -4.68039e-06 0.0681126)
(4.59716e-06 -3.09028e-06 0.0681187)
(-6.13041e-06 6.01606e-06 0.0834286)
(3.09041e-06 -5.01415e-06 0.0713267)
(-2.95736e-06 5.67663e-06 0.0713785)
(6.46759e-07 6.65385e-06 0.0766774)
(8.50181e-08 -8.90485e-06 0.0896556)
(-1.35212e-07 -5.1503e-06 0.0783999)
(-2.31184e-07 1.34603e-05 0.0911914)
(-4.68348e-07 -5.49127e-06 0.07663)
(-6.43467e-07 1.32094e-05 0.0897048)
(9.87233e-08 6.52885e-06 0.0784429)
(-5.1949e-07 -5.51669e-06 0.0681941)
(8.75158e-07 -9.00847e-06 0.0819852)
(-7.40841e-07 1.06305e-05 0.0856312)
(-4.07655e-08 -7.99911e-06 0.0855761)
(4.17313e-07 5.94953e-06 0.0682555)
(4.35795e-07 5.9614e-06 0.0682527)
(-4.9949e-08 -7.93538e-06 0.0855728)
(-9.95015e-07 1.08339e-05 0.0820328)
(-5.11577e-07 -5.5023e-06 0.0681913)
(-7.45403e-07 1.07095e-05 0.085628)
(-4.75538e-07 -5.52622e-06 0.0766334)
(-6.18859e-08 -8.8367e-06 0.0911496)
(-6.25479e-07 1.31012e-05 0.0897079)
(1.03715e-07 6.49105e-06 0.0784464)
(1.01544e-07 -8.99527e-06 0.0896588)
(-1.31751e-07 -5.18687e-06 0.0784034)
(6.34399e-07 6.60985e-06 0.0766808)
(-6.91243e-07 6.64693e-06 0.0766777)
(-2.36359e-07 -8.86058e-06 0.0896537)
(1.46944e-07 -5.11649e-06 0.0783985)
(4.72194e-08 1.3468e-05 0.0911918)
(4.43616e-07 -5.44991e-06 0.0766274)
(5.03562e-07 1.32169e-05 0.0897049)
(-1.70197e-07 6.50005e-06 0.0784436)
(5.63389e-07 -5.5169e-06 0.0681938)
(-8.96594e-07 -8.98202e-06 0.0819822)
(7.88533e-07 1.06397e-05 0.0856306)
(3.78155e-09 -7.99717e-06 0.0855743)
(-3.40416e-07 5.96686e-06 0.0682562)
(-3.84736e-07 5.99059e-06 0.0682533)
(-5.00856e-08 -7.92461e-06 0.0855711)
(9.85909e-07 1.08627e-05 0.0820301)
(5.15202e-07 -5.49164e-06 0.0681909)
(7.33304e-07 1.07179e-05 0.0856274)
(4.90657e-07 -5.49595e-06 0.0766308)
(2.53373e-08 -8.79044e-06 0.0911489)
(5.44495e-07 1.31174e-05 0.0897079)
(-1.43201e-07 6.47107e-06 0.0784471)
(-1.96021e-07 -8.96169e-06 0.0896569)
(1.7607e-07 -5.1494e-06 0.0784021)
(-6.48029e-07 6.60429e-06 0.0766811)
(5.99609e-06 6.22364e-06 0.0834242)
(3.39517e-06 5.05699e-06 0.0681704)
(4.88925e-06 3.5436e-06 0.068164)
(-1.11018e-05 -5.99622e-06 0.091466)
(2.00833e-05 1.14722e-05 0.0961574)
(-6.03256e-06 -4.67385e-06 0.087316)
(6.80598e-06 3.88426e-06 0.0813756)
(1.4213e-05 8.49706e-06 0.0915139)
(-1.58788e-05 -8.73162e-06 0.0961077)
(-5.55787e-06 -3.38974e-06 0.0813231)
(-6.26207e-06 -1.08037e-05 0.0914592)
(1.13506e-05 2.04178e-05 0.096154)
(-5.0099e-06 -5.74186e-06 0.0873139)
(3.71018e-06 7.07915e-06 0.0813694)
(8.29715e-06 1.45207e-05 0.0915066)
(-8.91997e-06 -1.55357e-05 0.0961043)
(-3.60877e-06 -5.30176e-06 0.0813181)
(1.42467e-05 8.55407e-06 0.0915114)
(7.89951e-06 6.01017e-06 0.0873628)
(2.01332e-05 1.15247e-05 0.0961556)
(6.80362e-06 3.88829e-06 0.0813728)
(8.30806e-06 1.45917e-05 0.0915042)
(-8.89634e-06 -1.54128e-05 0.0961023)
(5.67407e-06 8.19389e-06 0.0873602)
(1.13721e-05 2.04869e-05 0.0961521)
(3.67795e-06 7.11925e-06 0.0813666)
(-4.7061e-06 -4.52703e-06 0.083381)
(3.40328e-06 5.03213e-06 0.0681728)
(4.90265e-06 3.5245e-06 0.0681664)
(5.99921e-06 6.17446e-06 0.0834267)
(-3.13297e-06 -4.55871e-06 0.0681158)
(-4.68579e-06 -3.01484e-06 0.0681096)
(-5.16928e-06 -2.74887e-06 0.071324)
(5.5107e-06 3.32011e-06 0.071376)
(-3.16121e-06 -4.9496e-06 0.0713233)
(2.91585e-06 5.72373e-06 0.0713749)
(-3.02365e-06 -5.61363e-06 0.0713829)
(3.00825e-06 5.10317e-06 0.0713305)
(-5.64589e-06 -2.89465e-06 0.0713841)
(5.02575e-06 3.17207e-06 0.0713322)
(4.57195e-06 4.78676e-06 0.0833872)
(-5.00533e-06 -3.37459e-06 0.0681801)
(-3.54271e-06 -4.82471e-06 0.0681738)
(4.56512e-06 3.17826e-06 0.0681227)
(3.01397e-06 4.75438e-06 0.0681166)
(-6.13508e-06 -5.91141e-06 0.0834338)
(-8.37229e-06 -1.41999e-05 0.0915169)
(8.80183e-06 1.58033e-05 0.096109)
(3.44427e-06 5.40783e-06 0.081328)
(-5.77098e-06 -7.92932e-06 0.0873698)