/*--------------------------------*- C++ -*----------------------------------*\
| =========                 |                                                 |
| \\      /  F ield         | OpenFOAM: The Open Source CFD Toolbox           |
|  \\    /   O peration     | Version:                                        |
|   \\  /    A nd           | Website:  www.openfoam.com                      |
|    \\/     M anipulation  |                                                 |
\*---------------------------------------------------------------------------*/
FoamFile
{
    version     2.0;
    format      ascii;
    class       volScalarField;
    location    "32100.5";
    object      p;
}
// * * * * * * * * * * * * * * * * * * * * * * * * * * * * * * * * * * * * * //

dimensions      [0 2 -2 0 0 0 0];


internalField   nonuniform List<scalar> 
247096
(
1.09354e-07
1.09356e-07
1.095e-07
1.09586e-07
1.09619e-07
1.09577e-07
1.09486e-07
1.09332e-07
1.09356e-07
1.09555e-07
1.09732e-07
1.09824e-07
1.09847e-07
1.09817e-07
1.09713e-07
1.09531e-07
1.095e-07
1.09732e-07
1.09872e-07
1.09914e-07
1.0992e-07
1.09911e-07
1.09861e-07
1.09704e-07
1.09472e-07
1.09586e-07
1.09824e-07
1.09914e-07
1.09926e-07
1.09924e-07
1.09926e-07
1.09909e-07
1.09802e-07
1.09553e-07
1.09354e-07
1.09619e-07
1.09847e-07
1.0992e-07
1.09924e-07
1.09921e-07
1.09925e-07
1.09917e-07
1.09828e-07
1.09584e-07
1.09577e-07
1.09817e-07
1.09911e-07
1.09926e-07
1.09925e-07
1.09926e-07
1.09906e-07
1.09795e-07
1.09544e-07
1.09486e-07
1.09713e-07
1.09861e-07
1.09909e-07
1.09917e-07
1.09906e-07
1.0985e-07
1.09686e-07
1.0946e-07
1.09332e-07
1.09531e-07
1.09704e-07
1.09802e-07
1.09828e-07
1.09795e-07
1.09686e-07
1.09508e-07
1.09473e-07
1.09553e-07
1.09584e-07
1.09544e-07
1.0946e-07
1.0654e-07
1.06516e-07
1.06525e-07
1.06375e-07
1.06388e-07
1.06407e-07
1.06387e-07
1.06574e-07
1.06511e-07
1.06525e-07
1.06396e-07
1.06192e-07
1.0621e-07
1.0621e-07
1.06192e-07
1.06453e-07
1.06399e-07
1.06375e-07
1.06192e-07
1.0623e-07
1.06251e-07
1.06251e-07
1.0623e-07
1.06192e-07
1.06516e-07
1.06562e-07
1.0654e-07
1.06388e-07
1.0621e-07
1.06251e-07
1.06274e-07
1.06274e-07
1.06251e-07
1.0621e-07
1.06544e-07
1.0658e-07
1.06515e-07
1.06407e-07
1.0621e-07
1.06251e-07
1.06274e-07
1.06274e-07
1.06251e-07
1.0621e-07
1.06547e-07
1.06404e-07
1.06387e-07
1.06192e-07
1.0623e-07
1.06251e-07
1.06251e-07
1.0623e-07
1.06192e-07
1.0654e-07
1.06589e-07
1.06573e-07
1.06453e-07
1.06192e-07
1.0621e-07
1.0621e-07
1.06192e-07
1.06534e-07
1.06458e-07
1.06572e-07
1.06511e-07
1.06399e-07
1.06516e-07
1.06544e-07
1.06547e-07
1.0654e-07
1.06458e-07
1.06583e-07
1.06562e-07
1.0658e-07
1.06404e-07
1.06589e-07
1.06572e-07
1.04763e-07
1.04754e-07
1.04763e-07
1.04633e-07
1.04632e-07
1.04642e-07
1.04634e-07
1.04797e-07
1.04754e-07
1.04763e-07
1.04627e-07
1.04394e-07
1.04402e-07
1.04402e-07
1.04394e-07
1.04651e-07
1.04645e-07
1.04633e-07
1.04394e-07
1.04414e-07
1.04425e-07
1.04425e-07
1.04414e-07
1.04394e-07
1.04695e-07
1.04787e-07
1.04763e-07
1.04632e-07
1.04402e-07
1.04425e-07
1.04438e-07
1.04438e-07
1.04425e-07
1.04402e-07
1.047e-07
1.04785e-07
1.04754e-07
1.04642e-07
1.04402e-07
1.04425e-07
1.04438e-07
1.04438e-07
1.04425e-07
1.04402e-07
1.04698e-07
1.04652e-07
1.04634e-07
1.04394e-07
1.04414e-07
1.04425e-07
1.04425e-07
1.04414e-07
1.04394e-07
1.04702e-07
1.04793e-07
1.04797e-07
1.04651e-07
1.04394e-07
1.04402e-07
1.04402e-07
1.04394e-07
1.04683e-07
1.04674e-07
1.04797e-07
1.04754e-07
1.04645e-07
1.04695e-07
1.047e-07
1.04698e-07
1.04702e-07
1.04674e-07
1.048e-07
1.04787e-07
1.04785e-07
1.04652e-07
1.04793e-07
1.04798e-07
1.03164e-07
1.03155e-07
1.03164e-07
1.0304e-07
1.03039e-07
1.03047e-07
1.03041e-07
1.03195e-07
1.03157e-07
1.03164e-07
1.03036e-07
1.02828e-07
1.02834e-07
1.02834e-07
1.02828e-07
1.0306e-07
1.03054e-07
1.0304e-07
1.02828e-07
1.0284e-07
1.02846e-07
1.02846e-07
1.0284e-07
1.02828e-07
1.03101e-07
1.03187e-07
1.03164e-07
1.03039e-07
1.02834e-07
1.02846e-07
1.02853e-07
1.02853e-07
1.02846e-07
1.02834e-07
1.03105e-07
1.03186e-07
1.03155e-07
1.03047e-07
1.02834e-07
1.02846e-07
1.02853e-07
1.02853e-07
1.02846e-07
1.02834e-07
1.03104e-07
1.03059e-07
1.03041e-07
1.02828e-07
1.0284e-07
1.02846e-07
1.02846e-07
1.0284e-07
1.02828e-07
1.03107e-07
1.03192e-07
1.03195e-07
1.0306e-07
1.02828e-07
1.02834e-07
1.02834e-07
1.02828e-07
1.03089e-07
1.0308e-07
1.03196e-07
1.03157e-07
1.03054e-07
1.03101e-07
1.03105e-07
1.03104e-07
1.03107e-07
1.0308e-07
1.032e-07
1.03187e-07
1.03186e-07
1.03059e-07
1.03192e-07
1.03196e-07
1.01701e-07
1.01693e-07
1.01701e-07
1.01583e-07
1.01581e-07
1.01588e-07
1.01583e-07
1.01728e-07
1.01695e-07
1.01701e-07
1.01578e-07
1.01387e-07
1.0139e-07
1.0139e-07
1.01387e-07
1.01602e-07
1.01597e-07
1.01583e-07
1.01387e-07
1.01395e-07
1.01398e-07
1.01398e-07
1.01395e-07
1.01387e-07
1.01641e-07
1.01724e-07
1.01701e-07
1.01581e-07
1.0139e-07
1.01398e-07
1.01402e-07
1.01402e-07
1.01398e-07
1.0139e-07
1.01643e-07
1.01722e-07
1.01693e-07
1.01588e-07
1.0139e-07
1.01398e-07
1.01402e-07
1.01402e-07
1.01398e-07
1.0139e-07
1.01641e-07
1.01602e-07
1.01583e-07
1.01387e-07
1.01395e-07
1.01398e-07
1.01398e-07
1.01395e-07
1.01387e-07
1.01645e-07
1.01728e-07
1.01728e-07
1.01602e-07
1.01387e-07
1.0139e-07
1.0139e-07
1.01387e-07
1.01628e-07
1.01621e-07
1.0173e-07
1.01695e-07
1.01597e-07
1.01641e-07
1.01643e-07
1.01641e-07
1.01645e-07
1.01621e-07
1.01735e-07
1.01724e-07
1.01722e-07
1.01602e-07
1.01728e-07
1.0173e-07
1.00332e-07
1.00323e-07
1.00331e-07
1.00218e-07
1.00216e-07
1.00222e-07
1.00218e-07
1.00357e-07
1.00327e-07
1.00331e-07
1.00214e-07
1.00033e-07
1.00035e-07
1.00035e-07
1.00033e-07
1.00236e-07
1.00233e-07
1.00218e-07
1.00033e-07
1.00038e-07
1.0004e-07
1.0004e-07
1.00038e-07
1.00033e-07
1.00274e-07
1.00354e-07
1.00332e-07
1.00216e-07
1.00035e-07
1.0004e-07
1.00042e-07
1.00042e-07
1.0004e-07
1.00035e-07
1.00275e-07
1.00352e-07
1.00323e-07
1.00222e-07
1.00035e-07
1.0004e-07
1.00042e-07
1.00042e-07
1.0004e-07
1.00035e-07
1.00273e-07
1.00237e-07
1.00218e-07
1.00033e-07
1.00038e-07
1.0004e-07
1.0004e-07
1.00038e-07
1.00033e-07
1.00276e-07
1.00358e-07
1.00357e-07
1.00236e-07
1.00033e-07
1.00035e-07
1.00035e-07
1.00033e-07
1.00261e-07
1.00255e-07
1.00359e-07
1.00327e-07
1.00233e-07
1.00274e-07
1.00275e-07
1.00273e-07
1.00276e-07
1.00255e-07
1.00364e-07
1.00354e-07
1.00352e-07
1.00237e-07
1.00358e-07
1.00359e-07
9.90332e-08
9.90248e-08
9.90323e-08
9.89231e-08
9.89201e-08
9.89254e-08
9.8922e-08
9.90564e-08
9.90281e-08
9.90323e-08
9.89178e-08
9.87457e-08
9.87473e-08
9.87473e-08
9.87457e-08
9.89398e-08
9.89373e-08
9.89231e-08
9.87457e-08
9.87496e-08
9.87507e-08
9.87507e-08
9.87496e-08
9.87457e-08
9.89765e-08
9.9055e-08
9.90332e-08
9.89201e-08
9.87473e-08
9.87507e-08
9.87525e-08
9.87525e-08
9.87507e-08
9.87473e-08
9.89772e-08
9.9053e-08
9.90247e-08
9.89254e-08
9.87473e-08
9.87507e-08
9.87525e-08
9.87525e-08
9.87507e-08
9.87473e-08
9.89755e-08
9.89413e-08
9.8922e-08
9.87457e-08
9.87496e-08
9.87507e-08
9.87507e-08
9.87496e-08
9.87457e-08
9.89786e-08
9.90579e-08
9.90564e-08
9.89398e-08
9.87457e-08
9.87473e-08
9.87473e-08
9.87457e-08
9.89635e-08
9.89585e-08
9.9059e-08
9.90281e-08
9.89373e-08
9.89765e-08
9.89772e-08
9.89755e-08
9.89786e-08
9.89585e-08
9.90645e-08
9.9055e-08
9.9053e-08
9.89413e-08
9.90579e-08
9.9059e-08
9.77928e-08
9.77845e-08
9.77917e-08
9.76855e-08
9.76821e-08
9.76868e-08
9.76839e-08
9.78147e-08
9.77881e-08
9.77917e-08
9.76797e-08
9.75154e-08
9.75165e-08
9.75165e-08
9.75154e-08
9.77015e-08
9.76996e-08
9.76855e-08
9.75154e-08
9.75185e-08
9.75191e-08
9.75191e-08
9.75185e-08
9.75154e-08
9.77378e-08
9.78142e-08
9.77928e-08
9.76821e-08
9.75165e-08
9.75191e-08
9.75203e-08
9.75203e-08
9.75191e-08
9.75165e-08
9.77381e-08
9.78123e-08
9.77844e-08
9.76868e-08
9.75165e-08
9.75191e-08
9.75203e-08
9.75203e-08
9.75191e-08
9.75165e-08
9.77363e-08
9.77035e-08
9.76839e-08
9.75154e-08
9.75185e-08
9.75191e-08
9.75191e-08
9.75185e-08
9.75154e-08
9.7739e-08
9.78168e-08
9.78147e-08
9.77015e-08
9.75154e-08
9.75165e-08
9.75165e-08
9.75154e-08
9.77245e-08
9.77197e-08
9.78175e-08
9.77881e-08
9.76996e-08
9.77378e-08
9.77381e-08
9.77363e-08
9.7739e-08
9.77197e-08
9.78234e-08
9.78142e-08
9.78123e-08
9.77035e-08
9.78168e-08
9.78175e-08
9.66004e-08
9.65921e-08
9.65993e-08
9.64953e-08
9.64915e-08
9.64958e-08
9.64932e-08
9.66214e-08
9.65961e-08
9.65993e-08
9.64892e-08
9.63312e-08
9.6332e-08
9.6332e-08
9.63312e-08
9.65109e-08
9.65094e-08
9.64953e-08
9.63312e-08
9.6334e-08
9.6334e-08
9.6334e-08
9.6334e-08
9.63312e-08
9.65471e-08
9.66216e-08
9.66004e-08
9.64915e-08
9.6332e-08
9.6334e-08
9.63346e-08
9.63347e-08
9.6334e-08
9.6332e-08
9.6547e-08
9.66197e-08
9.65921e-08
9.64958e-08
9.6332e-08
9.6334e-08
9.63346e-08
9.63346e-08
9.6334e-08
9.6332e-08
9.65452e-08
9.65131e-08
9.64932e-08
9.63312e-08
9.6334e-08
9.6334e-08
9.6334e-08
9.6334e-08
9.63312e-08
9.65475e-08
9.66239e-08
9.66214e-08
9.65109e-08
9.63312e-08
9.6332e-08
9.6332e-08
9.63312e-08
9.65336e-08
9.65287e-08
9.66244e-08
9.65961e-08
9.65094e-08
9.65471e-08
9.65469e-08
9.65452e-08
9.65475e-08
9.65287e-08
9.66306e-08
9.66216e-08
9.66197e-08
9.65131e-08
9.66239e-08
9.66244e-08
9.54428e-08
9.54344e-08
9.54416e-08
9.53391e-08
9.53352e-08
9.53391e-08
9.53367e-08
9.54632e-08
9.54387e-08
9.54416e-08
9.53328e-08
9.51792e-08
9.51799e-08
9.51799e-08
9.51792e-08
9.53546e-08
9.53533e-08
9.53391e-08
9.51792e-08
9.51819e-08
9.51815e-08
9.51815e-08
9.51819e-08
9.51793e-08
9.5391e-08
9.54639e-08
9.54428e-08
9.53351e-08
9.51799e-08
9.51815e-08
9.51816e-08
9.51816e-08
9.51815e-08
9.51799e-08
9.53906e-08
9.5462e-08
9.54344e-08
9.53391e-08
9.51799e-08
9.51815e-08
9.51816e-08
9.51816e-08
9.51815e-08
9.51799e-08
9.53887e-08
9.53568e-08
9.53367e-08
9.51792e-08
9.51819e-08
9.51815e-08
9.51815e-08
9.51819e-08
9.51792e-08
9.53908e-08
9.5466e-08
9.54632e-08
9.53546e-08
9.51792e-08
9.51799e-08
9.51799e-08
9.51792e-08
9.53773e-08
9.53721e-08
9.54662e-08
9.54387e-08
9.53533e-08
9.53909e-08
9.53906e-08
9.53887e-08
9.53908e-08
9.53721e-08
9.54728e-08
9.54639e-08
9.54619e-08
9.53568e-08
9.5466e-08
9.54662e-08
9.43063e-08
9.42979e-08
9.43052e-08
9.42035e-08
9.41994e-08
9.42031e-08
9.42008e-08
9.43262e-08
9.43022e-08
9.43049e-08
9.4197e-08
9.4046e-08
9.40465e-08
9.40465e-08
9.4046e-08
9.42188e-08
9.42183e-08
9.42033e-08
9.40459e-08
9.40486e-08
9.40479e-08
9.40479e-08
9.40486e-08
9.4046e-08
9.42556e-08
9.43274e-08
9.43062e-08
9.41993e-08
9.40465e-08
9.40478e-08
9.40477e-08
9.40477e-08
9.40479e-08
9.40465e-08
9.42551e-08
9.43255e-08
9.42978e-08
9.42031e-08
9.40465e-08
9.40478e-08
9.40477e-08
9.40477e-08
9.40479e-08
9.40465e-08
9.42531e-08
9.42211e-08
9.42009e-08
9.40459e-08
9.40486e-08
9.40478e-08
9.40478e-08
9.40486e-08
9.4046e-08
9.42549e-08
9.43293e-08
9.43264e-08
9.42189e-08
9.40459e-08
9.40464e-08
9.40464e-08
9.40459e-08
9.42416e-08
9.42365e-08
9.43295e-08
9.43024e-08
9.42169e-08
9.42552e-08
9.42549e-08
9.42529e-08
9.42547e-08
9.42359e-08
9.43362e-08
9.43272e-08
9.43253e-08
9.42209e-08
9.43292e-08
9.43293e-08
9.31804e-08
9.3172e-08
9.31792e-08
9.3078e-08
9.30738e-08
9.30775e-08
9.30753e-08
9.32004e-08
9.31766e-08
9.31789e-08
9.30715e-08
9.29216e-08
9.29221e-08
9.29221e-08
9.29216e-08
9.30935e-08
9.30916e-08
9.30778e-08
9.29216e-08
9.29243e-08
9.29233e-08
9.29233e-08
9.29243e-08
9.29216e-08
9.313e-08
9.32014e-08
9.31803e-08
9.30737e-08
9.2922e-08
9.29233e-08
9.29229e-08
9.29229e-08
9.29233e-08
9.29221e-08
9.31296e-08
9.31995e-08
9.31719e-08
9.30774e-08
9.2922e-08
9.29233e-08
9.29229e-08
9.29229e-08
9.29233e-08
9.29221e-08
9.31276e-08
9.30955e-08
9.30752e-08
9.29216e-08
9.29243e-08
9.29233e-08
9.29233e-08
9.29243e-08
9.29216e-08
9.31294e-08
9.32033e-08
9.32003e-08
9.30934e-08
9.29215e-08
9.2922e-08
9.2922e-08
9.29215e-08
9.31161e-08
9.31108e-08
9.32035e-08
9.31765e-08
9.30915e-08
9.31299e-08
9.31295e-08
9.31275e-08
9.31292e-08
9.31103e-08
9.32102e-08
9.32013e-08
9.31993e-08
9.30954e-08
9.32032e-08
9.32032e-08
9.2059e-08
9.20506e-08
9.20579e-08
9.19568e-08
9.19526e-08
9.19563e-08
9.19541e-08
9.2079e-08
9.20552e-08
9.20576e-08
9.19502e-08
9.18008e-08
9.18013e-08
9.18013e-08
9.18008e-08
9.19723e-08
9.19704e-08
9.19566e-08
9.18008e-08
9.18036e-08
9.18025e-08
9.18025e-08
9.18037e-08
9.18008e-08
9.20089e-08
9.208e-08
9.20589e-08
9.19525e-08
9.18012e-08
9.18025e-08
9.1802e-08
9.1802e-08
9.18025e-08
9.18013e-08
9.20085e-08
9.20781e-08
9.20505e-08
9.19562e-08
9.18012e-08
9.18025e-08
9.1802e-08
9.1802e-08
9.18025e-08
9.18013e-08
9.20064e-08
9.19743e-08
9.1954e-08
9.18008e-08
9.18036e-08
9.18025e-08
9.18025e-08
9.18036e-08
9.18008e-08
9.20082e-08
9.20819e-08
9.20789e-08
9.19722e-08
9.18007e-08
9.18012e-08
9.18012e-08
9.18007e-08
9.19949e-08
9.19896e-08
9.20821e-08
9.20551e-08
9.19703e-08
9.20088e-08
9.20084e-08
9.20063e-08
9.2008e-08
9.19891e-08
9.20888e-08
9.20799e-08
9.2078e-08
9.19742e-08
9.20818e-08
9.20818e-08
9.09393e-08
9.09309e-08
9.09381e-08
9.08371e-08
9.08329e-08
9.08365e-08
9.08343e-08
9.09591e-08
9.09353e-08
9.09379e-08
9.08306e-08
9.06813e-08
9.06818e-08
9.06818e-08
9.06813e-08
9.08525e-08
9.08518e-08
9.08369e-08
9.06813e-08
9.06843e-08
9.0683e-08
9.0683e-08
9.06843e-08
9.06813e-08
9.08895e-08
9.09604e-08
9.09392e-08
9.08328e-08
9.06817e-08
9.0683e-08
9.06824e-08
9.06824e-08
9.0683e-08
9.06818e-08
9.08889e-08
9.09585e-08
9.09308e-08
9.08365e-08
9.06817e-08
9.0683e-08
9.06824e-08
9.06824e-08
9.0683e-08
9.06818e-08
9.08869e-08
9.08547e-08
9.08343e-08
9.06813e-08
9.06842e-08
9.0683e-08
9.0683e-08
9.06842e-08
9.06813e-08
9.08885e-08
9.09623e-08
9.09592e-08
9.08526e-08
9.06812e-08
9.06817e-08
9.06817e-08
9.06812e-08
9.08752e-08
9.08699e-08
9.09624e-08
9.09354e-08
9.08507e-08
9.08892e-08
9.08888e-08
9.08867e-08
9.08883e-08
9.08695e-08
9.09691e-08
9.09602e-08
9.09583e-08
9.08545e-08
9.09621e-08
9.09621e-08
8.98202e-08
8.98118e-08
8.9819e-08
8.9718e-08
8.97138e-08
8.97175e-08
8.97153e-08
8.98401e-08
8.98164e-08
8.98187e-08
8.97115e-08
8.95623e-08
8.95627e-08
8.95627e-08
8.95623e-08
8.97335e-08
8.97316e-08
8.97178e-08
8.95622e-08
8.95651e-08
8.9564e-08
8.9564e-08
8.95651e-08
8.95622e-08
8.97702e-08
8.98412e-08
8.98201e-08
8.97137e-08
8.95626e-08
8.95639e-08
8.95633e-08
8.95633e-08
8.95639e-08
8.95627e-08
8.97697e-08
8.98393e-08
8.98117e-08
8.97174e-08
8.95626e-08
8.95639e-08
8.95633e-08
8.95633e-08
8.95639e-08
8.95627e-08
8.97677e-08
8.97355e-08
8.97152e-08
8.95622e-08
8.95651e-08
8.95639e-08
8.95639e-08
8.95651e-08
8.95622e-08
8.97694e-08
8.98431e-08
8.984e-08
8.97335e-08
8.95622e-08
8.95626e-08
8.95626e-08
8.95622e-08
8.97561e-08
8.97508e-08
8.98432e-08
8.98163e-08
8.97315e-08
8.97701e-08
8.97697e-08
8.97676e-08
8.97692e-08
8.97504e-08
8.985e-08
8.98411e-08
8.98391e-08
8.97354e-08
8.98429e-08
8.9843e-08
8.87012e-08
8.86928e-08
8.87e-08
8.8599e-08
8.85948e-08
8.85985e-08
8.85963e-08
8.87211e-08
8.86974e-08
8.86998e-08
8.85925e-08
8.84433e-08
8.84437e-08
8.84437e-08
8.84433e-08
8.86146e-08
8.86127e-08
8.85988e-08
8.84433e-08
8.84461e-08
8.8445e-08
8.8445e-08
8.84461e-08
8.84433e-08
8.86512e-08
8.87222e-08
8.87011e-08
8.85947e-08
8.84437e-08
8.8445e-08
8.84444e-08
8.84444e-08
8.8445e-08
8.84437e-08
8.86508e-08
8.87203e-08
8.86927e-08
8.85984e-08
8.84437e-08
8.8445e-08
8.84443e-08
8.84443e-08
8.8445e-08
8.84437e-08
8.86487e-08
8.86166e-08
8.85962e-08
8.84433e-08
8.84461e-08
8.8445e-08
8.8445e-08
8.84461e-08
8.84433e-08
8.86504e-08
8.87241e-08
8.87211e-08
8.86145e-08
8.84432e-08
8.84437e-08
8.84437e-08
8.84433e-08
8.86371e-08
8.86319e-08
8.87242e-08
8.86973e-08
8.86126e-08
8.86512e-08
8.86507e-08
8.86487e-08
8.86503e-08
8.86314e-08
8.87311e-08
8.87221e-08
8.87202e-08
8.86165e-08
8.8724e-08
8.8724e-08
8.75822e-08
8.75738e-08
8.75811e-08
8.74801e-08
8.74759e-08
8.74795e-08
8.74772e-08
8.7602e-08
8.75783e-08
8.75808e-08
8.74735e-08
8.73244e-08
8.73248e-08
8.73248e-08
8.73244e-08
8.74955e-08
8.74948e-08
8.74799e-08
8.73243e-08
8.73272e-08
8.73261e-08
8.73261e-08
8.73272e-08
8.73244e-08
8.75325e-08
8.76034e-08
8.75821e-08
8.74757e-08
8.73247e-08
8.7326e-08
8.73254e-08
8.73254e-08
8.73261e-08
8.73248e-08
8.75319e-08
8.76014e-08
8.75737e-08
8.74794e-08
8.73247e-08
8.7326e-08
8.73254e-08
8.73254e-08
8.73261e-08
8.73248e-08
8.75298e-08
8.74976e-08
8.74772e-08
8.73243e-08
8.73272e-08
8.73261e-08
8.73261e-08
8.73272e-08
8.73244e-08
8.75314e-08
8.76051e-08
8.76019e-08
8.74954e-08
8.73244e-08
8.73248e-08
8.73248e-08
8.73244e-08
8.75182e-08
8.75125e-08
8.76052e-08
8.75782e-08
8.74948e-08
8.75325e-08
8.75319e-08
8.75298e-08
8.75315e-08
8.7513e-08
8.76122e-08
8.76034e-08
8.76014e-08
8.74977e-08
8.76052e-08
8.76053e-08
8.64633e-08
8.64549e-08
8.64621e-08
8.63611e-08
8.63569e-08
8.63605e-08
8.63583e-08
8.6483e-08
8.64593e-08
8.64618e-08
8.63546e-08
8.62054e-08
8.62058e-08
8.62058e-08
8.62054e-08
8.63765e-08
8.63759e-08
8.63609e-08
8.62054e-08
8.62082e-08
8.62071e-08
8.62071e-08
8.62083e-08
8.62055e-08
8.64136e-08
8.64845e-08
8.64632e-08
8.63568e-08
8.62058e-08
8.62071e-08
8.62065e-08
8.62065e-08
8.62072e-08
8.62059e-08
8.6413e-08
8.64825e-08
8.64547e-08
8.63604e-08
8.62058e-08
8.62071e-08
8.62065e-08
8.62065e-08
8.62071e-08
8.62059e-08
8.64109e-08
8.63788e-08
8.63582e-08
8.62054e-08
8.62082e-08
8.62071e-08
8.62071e-08
8.62083e-08
8.62055e-08
8.64126e-08
8.64863e-08
8.6483e-08
8.63765e-08
8.62054e-08
8.62058e-08
8.62058e-08
8.62054e-08
8.63993e-08
8.6394e-08
8.64864e-08
8.64593e-08
8.63758e-08
8.64135e-08
8.64129e-08
8.64108e-08
8.64125e-08
8.63936e-08
8.64932e-08
8.64844e-08
8.64824e-08
8.63787e-08
8.64862e-08
8.64862e-08
8.53443e-08
8.53359e-08
8.53432e-08
8.52422e-08
8.5238e-08
8.52416e-08
8.52394e-08
8.53641e-08
8.53404e-08
8.53429e-08
8.52357e-08
8.50865e-08
8.50869e-08
8.50869e-08
8.50865e-08
8.52576e-08
8.52569e-08
8.5242e-08
8.50864e-08
8.50893e-08
8.50882e-08
8.50882e-08
8.50893e-08
8.50865e-08
8.52946e-08
8.53655e-08
8.53442e-08
8.52379e-08
8.50869e-08
8.50882e-08
8.50875e-08
8.50875e-08
8.50882e-08
8.50869e-08
8.52941e-08
8.53636e-08
8.53359e-08
8.52416e-08
8.50869e-08
8.50882e-08
8.50875e-08
8.50875e-08
8.50882e-08
8.50869e-08
8.5292e-08
8.52598e-08
8.52394e-08
8.50865e-08
8.50893e-08
8.50882e-08
8.50882e-08
8.50893e-08
8.50865e-08
8.52937e-08
8.53674e-08
8.53642e-08
8.52577e-08
8.50864e-08
8.50868e-08
8.50868e-08
8.50864e-08
8.52803e-08
8.52751e-08
8.53675e-08
8.53405e-08
8.52558e-08
8.52943e-08
8.52939e-08
8.52918e-08
8.52935e-08
8.52746e-08
8.53743e-08
8.53653e-08
8.53634e-08
8.52597e-08
8.53672e-08
8.53672e-08
8.42254e-08
8.4217e-08
8.42243e-08
8.41233e-08
8.41191e-08
8.41227e-08
8.41205e-08
8.42454e-08
8.42216e-08
8.4224e-08
8.41167e-08
8.39676e-08
8.3968e-08
8.3968e-08
8.39676e-08
8.41388e-08
8.41369e-08
8.41231e-08
8.39675e-08
8.39704e-08
8.39692e-08
8.39693e-08
8.39704e-08
8.39675e-08
8.41755e-08
8.42464e-08
8.42253e-08
8.41189e-08
8.39679e-08
8.39692e-08
8.39686e-08
8.39686e-08
8.39692e-08
8.39679e-08
8.4175e-08
8.42445e-08
8.42169e-08
8.41226e-08
8.39679e-08
8.39692e-08
8.39686e-08
8.39686e-08
8.39692e-08
8.39679e-08
8.4173e-08
8.41408e-08
8.41205e-08
8.39675e-08
8.39703e-08
8.39692e-08
8.39692e-08
8.39703e-08
8.39675e-08
8.41747e-08
8.42484e-08
8.42453e-08
8.41387e-08
8.39675e-08
8.39679e-08
8.39679e-08
8.39675e-08
8.41614e-08
8.41561e-08
8.42485e-08
8.42215e-08
8.41368e-08
8.41754e-08
8.41749e-08
8.41729e-08
8.41745e-08
8.41556e-08
8.42553e-08
8.42463e-08
8.42444e-08
8.41407e-08
8.42482e-08
8.42482e-08
8.31065e-08
8.3098e-08
8.31053e-08
8.30043e-08
8.30001e-08
8.30037e-08
8.30015e-08
8.31262e-08
8.31025e-08
8.3105e-08
8.29978e-08
8.28486e-08
8.2849e-08
8.2849e-08
8.28486e-08
8.30197e-08
8.3019e-08
8.30041e-08
8.28486e-08
8.28514e-08
8.28503e-08
8.28503e-08
8.28514e-08
8.28486e-08
8.30567e-08
8.31276e-08
8.31064e-08
8.3e-08
8.2849e-08
8.28503e-08
8.28496e-08
8.28496e-08
8.28503e-08
8.2849e-08
8.30561e-08
8.31257e-08
8.3098e-08
8.30037e-08
8.2849e-08
8.28503e-08
8.28496e-08
8.28496e-08
8.28503e-08
8.2849e-08
8.30541e-08
8.30219e-08
8.30015e-08
8.28486e-08
8.28514e-08
8.28502e-08
8.28503e-08
8.28514e-08
8.28486e-08
8.30557e-08
8.31294e-08
8.31264e-08
8.30198e-08
8.28485e-08
8.28489e-08
8.28489e-08
8.28485e-08
8.30424e-08
8.30371e-08
8.31295e-08
8.31026e-08
8.30179e-08
8.30564e-08
8.3056e-08
8.30539e-08
8.30555e-08
8.30367e-08
8.31363e-08
8.31274e-08
8.31255e-08
8.30217e-08
8.31293e-08
8.31293e-08
8.19875e-08
8.19791e-08
8.19864e-08
8.18853e-08
8.18811e-08
8.18847e-08
8.18825e-08
8.20072e-08
8.19835e-08
8.19861e-08
8.18788e-08
8.17297e-08
8.173e-08
8.173e-08
8.17296e-08
8.19008e-08
8.19001e-08
8.18852e-08
8.17296e-08
8.17325e-08
8.17313e-08
8.17313e-08
8.17325e-08
8.17297e-08
8.19378e-08
8.20087e-08
8.19874e-08
8.1881e-08
8.173e-08
8.17313e-08
8.17307e-08
8.17307e-08
8.17314e-08
8.17301e-08
8.19372e-08
8.20067e-08
8.1979e-08
8.18847e-08
8.173e-08
8.17313e-08
8.17307e-08
8.17307e-08
8.17313e-08
8.17301e-08
8.19351e-08
8.1903e-08
8.18826e-08
8.17296e-08
8.17324e-08
8.17313e-08
8.17313e-08
8.17324e-08
8.17297e-08
8.19368e-08
8.20105e-08
8.20074e-08
8.19008e-08
8.17296e-08
8.173e-08
8.173e-08
8.17296e-08
8.19235e-08
8.19182e-08
8.20106e-08
8.19836e-08
8.18989e-08
8.19375e-08
8.1937e-08
8.1935e-08
8.19366e-08
8.19177e-08
8.20174e-08
8.20084e-08
8.20065e-08
8.19028e-08
8.20103e-08
8.20103e-08
8.08685e-08
8.08601e-08
8.08674e-08
8.07664e-08
8.07622e-08
8.07658e-08
8.07636e-08
8.08883e-08
8.08646e-08
8.08671e-08
8.07599e-08
8.06107e-08
8.06111e-08
8.06111e-08
8.06107e-08
8.07818e-08
8.07811e-08
8.07662e-08
8.06107e-08
8.06135e-08
8.06124e-08
8.06124e-08
8.06135e-08
8.06107e-08
8.08188e-08
8.08898e-08
8.08685e-08
8.07621e-08
8.06111e-08
8.06124e-08
8.06117e-08
8.06118e-08
8.06124e-08
8.06111e-08
8.08183e-08
8.08878e-08
8.08601e-08
8.07658e-08
8.06111e-08
8.06124e-08
8.06117e-08
8.06117e-08
8.06124e-08
8.06111e-08
8.08162e-08
8.0784e-08
8.07636e-08
8.06107e-08
8.06135e-08
8.06124e-08
8.06124e-08
8.06135e-08
8.06107e-08
8.08179e-08
8.08916e-08
8.08885e-08
8.07819e-08
8.06106e-08
8.0611e-08
8.06111e-08
8.06107e-08
8.08046e-08
8.07993e-08
8.08917e-08
8.08647e-08
8.078e-08
8.08185e-08
8.08181e-08
8.08161e-08
8.08177e-08
8.07988e-08
8.08985e-08
8.08895e-08
8.08876e-08
8.07839e-08
8.08914e-08
8.08914e-08
7.97495e-08
7.97411e-08
7.97482e-08
7.96473e-08
7.96431e-08
7.96468e-08
7.96446e-08
7.97693e-08
7.97456e-08
7.97484e-08
7.96409e-08
7.94917e-08
7.94921e-08
7.94921e-08
7.94917e-08
7.96629e-08
7.96622e-08
7.96474e-08
7.94918e-08
7.94946e-08
7.94934e-08
7.94935e-08
7.94946e-08
7.94918e-08
7.96999e-08
7.97708e-08
7.97496e-08
7.96432e-08
7.94922e-08
7.94935e-08
7.94928e-08
7.94928e-08
7.94935e-08
7.94922e-08
7.96993e-08
7.97689e-08
7.97412e-08
7.96469e-08
7.94922e-08
7.94935e-08
7.94928e-08
7.94928e-08
7.94935e-08
7.94922e-08
7.96973e-08
7.96651e-08
7.96447e-08
7.94918e-08
7.94946e-08
7.94934e-08
7.94935e-08
7.94946e-08
7.94918e-08
7.96989e-08
7.97727e-08
7.97695e-08
7.9663e-08
7.94917e-08
7.94921e-08
7.94921e-08
7.94917e-08
7.96856e-08
7.96804e-08
7.97728e-08
7.97458e-08
7.96611e-08
7.96996e-08
7.96992e-08
7.96971e-08
7.96988e-08
7.96799e-08
7.97795e-08
7.97706e-08
7.97687e-08
7.9665e-08
7.97725e-08
7.97725e-08
7.86306e-08
7.86222e-08
7.86295e-08
7.85285e-08
7.85243e-08
7.85279e-08
7.85257e-08
7.86504e-08
7.86267e-08
7.86292e-08
7.8522e-08
7.83728e-08
7.83732e-08
7.83732e-08
7.83728e-08
7.85439e-08
7.85433e-08
7.85283e-08
7.83728e-08
7.83756e-08
7.83745e-08
7.83745e-08
7.83757e-08
7.83729e-08
7.8581e-08
7.86519e-08
7.86306e-08
7.85242e-08
7.83732e-08
7.83745e-08
7.83739e-08
7.83739e-08
7.83745e-08
7.83733e-08
7.85804e-08
7.86499e-08
7.86222e-08
7.85278e-08
7.83732e-08
7.83745e-08
7.83739e-08
7.83739e-08
7.83745e-08
7.83733e-08
7.85783e-08
7.85462e-08
7.85256e-08
7.83728e-08
7.83756e-08
7.83745e-08
7.83745e-08
7.83757e-08
7.83729e-08
7.858e-08
7.86537e-08
7.86504e-08
7.85439e-08
7.83728e-08
7.83732e-08
7.83732e-08
7.83728e-08
7.85667e-08
7.85614e-08
7.86538e-08
7.86267e-08
7.85432e-08
7.85809e-08
7.85804e-08
7.85783e-08
7.85799e-08
7.8561e-08
7.86606e-08
7.86518e-08
7.86498e-08
7.85461e-08
7.86536e-08
7.86536e-08
7.75118e-08
7.75033e-08
7.75106e-08
7.74096e-08
7.74054e-08
7.7409e-08
7.74068e-08
7.75315e-08
7.75078e-08
7.75103e-08
7.74031e-08
7.72539e-08
7.72543e-08
7.72543e-08
7.72539e-08
7.7425e-08
7.74243e-08
7.74094e-08
7.72538e-08
7.72567e-08
7.72556e-08
7.72556e-08
7.72567e-08
7.72539e-08
7.7462e-08
7.75329e-08
7.75116e-08
7.74053e-08
7.72543e-08
7.72556e-08
7.72549e-08
7.72549e-08
7.72556e-08
7.72543e-08
7.74614e-08
7.75309e-08
7.75032e-08
7.74089e-08
7.72543e-08
7.72556e-08
7.72549e-08
7.72549e-08
7.72556e-08
7.72543e-08
7.74593e-08
7.74271e-08
7.74067e-08
7.72539e-08
7.72567e-08
7.72556e-08
7.72556e-08
7.72567e-08
7.72539e-08
7.74609e-08
7.75347e-08
7.75314e-08
7.7425e-08
7.72539e-08
7.72543e-08
7.72543e-08
7.72539e-08
7.74478e-08
7.7442e-08
7.75347e-08
7.75077e-08
7.74243e-08
7.7462e-08
7.74614e-08
7.74594e-08
7.7461e-08
7.74425e-08
7.75417e-08
7.75329e-08
7.75309e-08
7.74272e-08
7.75348e-08
7.75349e-08
7.63929e-08
7.63845e-08
7.63917e-08
7.62907e-08
7.62865e-08
7.62901e-08
7.6288e-08
7.64128e-08
7.6389e-08
7.63914e-08
7.62842e-08
7.6135e-08
7.61354e-08
7.61354e-08
7.6135e-08
7.63062e-08
7.63043e-08
7.62905e-08
7.61349e-08
7.61378e-08
7.61367e-08
7.61367e-08
7.61378e-08
7.61349e-08
7.63428e-08
7.64138e-08
7.63927e-08
7.62864e-08
7.61353e-08
7.61367e-08
7.6136e-08
7.6136e-08
7.61367e-08
7.61353e-08
7.63424e-08
7.64119e-08
7.63843e-08
7.629e-08
7.61353e-08
7.61367e-08
7.6136e-08
7.6136e-08
7.61366e-08
7.61353e-08
7.63403e-08
7.63082e-08
7.62879e-08
7.6135e-08
7.61378e-08
7.61366e-08
7.61366e-08
7.61378e-08
7.61349e-08
7.6342e-08
7.64157e-08
7.64127e-08
7.63062e-08
7.61349e-08
7.61353e-08
7.61353e-08
7.61349e-08
7.63288e-08
7.63231e-08
7.64157e-08
7.6389e-08
7.63043e-08
7.63428e-08
7.63424e-08
7.63404e-08
7.63421e-08
7.63235e-08
7.64227e-08
7.64138e-08
7.64119e-08
7.63082e-08
7.64158e-08
7.64159e-08
7.52739e-08
7.52655e-08
7.52728e-08
7.51718e-08
7.51675e-08
7.51712e-08
7.5169e-08
7.52939e-08
7.52701e-08
7.52725e-08
7.51652e-08
7.50161e-08
7.50165e-08
7.50164e-08
7.50161e-08
7.51873e-08
7.51854e-08
7.51716e-08
7.5016e-08
7.50189e-08
7.50177e-08
7.50177e-08
7.50189e-08
7.5016e-08
7.52239e-08
7.52949e-08
7.52738e-08
7.51674e-08
7.50164e-08
7.50177e-08
7.50171e-08
7.50171e-08
7.50177e-08
7.50164e-08
7.52235e-08
7.5293e-08
7.52654e-08
7.51711e-08
7.50164e-08
7.50177e-08
7.50171e-08
7.50171e-08
7.50177e-08
7.50164e-08
7.52215e-08
7.51893e-08
7.5169e-08
7.5016e-08
7.50188e-08
7.50177e-08
7.50177e-08
7.50188e-08
7.5016e-08
7.52231e-08
7.52968e-08
7.52938e-08
7.51872e-08
7.5016e-08
7.50164e-08
7.50164e-08
7.5016e-08
7.52099e-08
7.52046e-08
7.52969e-08
7.52701e-08
7.51853e-08
7.52239e-08
7.52234e-08
7.52214e-08
7.5223e-08
7.52041e-08
7.53038e-08
7.52948e-08
7.52929e-08
7.51892e-08
7.52967e-08
7.52967e-08
7.41549e-08
7.41465e-08
7.41538e-08
7.40528e-08
7.40486e-08
7.40522e-08
7.40499e-08
7.41747e-08
7.4151e-08
7.41535e-08
7.40463e-08
7.38971e-08
7.38975e-08
7.38975e-08
7.38971e-08
7.40682e-08
7.40675e-08
7.40526e-08
7.38971e-08
7.38999e-08
7.38988e-08
7.38988e-08
7.38999e-08
7.38971e-08
7.41052e-08
7.41761e-08
7.41549e-08
7.40485e-08
7.38975e-08
7.38988e-08
7.38981e-08
7.38981e-08
7.38988e-08
7.38975e-08
7.41046e-08
7.41741e-08
7.41465e-08
7.40522e-08
7.38975e-08
7.38988e-08
7.38981e-08
7.38981e-08
7.38988e-08
7.38975e-08
7.41026e-08
7.40704e-08
7.405e-08
7.38971e-08
7.38999e-08
7.38988e-08
7.38988e-08
7.38999e-08
7.38971e-08
7.41042e-08
7.41779e-08
7.41749e-08
7.40683e-08
7.3897e-08
7.38975e-08
7.38975e-08
7.38971e-08
7.40909e-08
7.40857e-08
7.4178e-08
7.41511e-08
7.40664e-08
7.4105e-08
7.41045e-08
7.41025e-08
7.41041e-08
7.40852e-08
7.41848e-08
7.41759e-08
7.4174e-08
7.40703e-08
7.41778e-08
7.41778e-08
7.30359e-08
7.30275e-08
7.30346e-08
7.29336e-08
7.29295e-08
7.29332e-08
7.2931e-08
7.30557e-08
7.3032e-08
7.30348e-08
7.29273e-08
7.27781e-08
7.27785e-08
7.27785e-08
7.27781e-08
7.29492e-08
7.29485e-08
7.29338e-08
7.27781e-08
7.27809e-08
7.27798e-08
7.27798e-08
7.2781e-08
7.27781e-08
7.29862e-08
7.30571e-08
7.3036e-08
7.29296e-08
7.27785e-08
7.27798e-08
7.27792e-08
7.27792e-08
7.27798e-08
7.27785e-08
7.29857e-08
7.30552e-08
7.30275e-08
7.29332e-08
7.27785e-08
7.27798e-08
7.27792e-08
7.27792e-08
7.27798e-08
7.27785e-08
7.29836e-08
7.29514e-08
7.2931e-08
7.27781e-08
7.2781e-08
7.27799e-08
7.27799e-08
7.2781e-08
7.27781e-08
7.29852e-08
7.30589e-08
7.30557e-08
7.29492e-08
7.27782e-08
7.27786e-08
7.27786e-08
7.27782e-08
7.2972e-08
7.29663e-08
7.30589e-08
7.3032e-08
7.29486e-08
7.29863e-08
7.29857e-08
7.29836e-08
7.29853e-08
7.29668e-08
7.30659e-08
7.30572e-08
7.30552e-08
7.29515e-08
7.3059e-08
7.30591e-08
7.1917e-08
7.19086e-08
7.19156e-08
7.18147e-08
7.18106e-08
7.18142e-08
7.1812e-08
7.19368e-08
7.1913e-08
7.19159e-08
7.18084e-08
7.16592e-08
7.16596e-08
7.16596e-08
7.16592e-08
7.18303e-08
7.18296e-08
7.18149e-08
7.16592e-08
7.1662e-08
7.16609e-08
7.16609e-08
7.1662e-08
7.16592e-08
7.18673e-08
7.19382e-08
7.1917e-08
7.18107e-08
7.16596e-08
7.16609e-08
7.16603e-08
7.16603e-08
7.16609e-08
7.16596e-08
7.18667e-08
7.19362e-08
7.19086e-08
7.18143e-08
7.16596e-08
7.16609e-08
7.16603e-08
7.16603e-08
7.16609e-08
7.16596e-08
7.18646e-08
7.18325e-08
7.18121e-08
7.16592e-08
7.1662e-08
7.16609e-08
7.16609e-08
7.1662e-08
7.16592e-08
7.18662e-08
7.194e-08
7.19368e-08
7.18303e-08
7.16592e-08
7.16596e-08
7.16596e-08
7.16592e-08
7.18531e-08
7.18473e-08
7.194e-08
7.19131e-08
7.18296e-08
7.18673e-08
7.18668e-08
7.18647e-08
7.18664e-08
7.18478e-08
7.1947e-08
7.19382e-08
7.19363e-08
7.18325e-08
7.19401e-08
7.19402e-08
7.07981e-08
7.07897e-08
7.0797e-08
7.0696e-08
7.06918e-08
7.06954e-08
7.06932e-08
7.08181e-08
7.07943e-08
7.07967e-08
7.06895e-08
7.05403e-08
7.05407e-08
7.05407e-08
7.05403e-08
7.07115e-08
7.07096e-08
7.06958e-08
7.05402e-08
7.05431e-08
7.0542e-08
7.0542e-08
7.05431e-08
7.05403e-08
7.07482e-08
7.08191e-08
7.07981e-08
7.06917e-08
7.05407e-08
7.0542e-08
7.05413e-08
7.05413e-08
7.0542e-08
7.05407e-08
7.07478e-08
7.08173e-08
7.07897e-08
7.06954e-08
7.05407e-08
7.0542e-08
7.05413e-08
7.05413e-08
7.0542e-08
7.05407e-08
7.07457e-08
7.07136e-08
7.06932e-08
7.05403e-08
7.05431e-08
7.0542e-08
7.0542e-08
7.05431e-08
7.05403e-08
7.07474e-08
7.08211e-08
7.08181e-08
7.07115e-08
7.05402e-08
7.05406e-08
7.05406e-08
7.05402e-08
7.07341e-08
7.07288e-08
7.08212e-08
7.07943e-08
7.07096e-08