/*--------------------------------*- C++ -*----------------------------------*\
| =========                 |                                                 |
| \\      /  F ield         | OpenFOAM: The Open Source CFD Toolbox           |
|  \\    /   O peration     | Version:                                        |
|   \\  /    A nd           | Website:  www.openfoam.com                      |
|    \\/     M anipulation  |                                                 |
\*---------------------------------------------------------------------------*/
FoamFile
{
    version     2.0;
    format      ascii;
    class       volScalarField;
    location    "16100.5";
    object      p;
}
// * * * * * * * * * * * * * * * * * * * * * * * * * * * * * * * * * * * * * //

dimensions      [0 2 -2 0 0 0 0];


internalField   nonuniform List<scalar> 
247096
(
1.20464e-07
1.20466e-07
1.2061e-07
1.20697e-07
1.20729e-07
1.20687e-07
1.20597e-07
1.20443e-07
1.20466e-07
1.20665e-07
1.20842e-07
1.20935e-07
1.20958e-07
1.20928e-07
1.20824e-07
1.20641e-07
1.2061e-07
1.20842e-07
1.20982e-07
1.21024e-07
1.21031e-07
1.21022e-07
1.20972e-07
1.20815e-07
1.20583e-07
1.20697e-07
1.20935e-07
1.21024e-07
1.21036e-07
1.21035e-07
1.21036e-07
1.21019e-07
1.20913e-07
1.20663e-07
1.20464e-07
1.20729e-07
1.20958e-07
1.21031e-07
1.21035e-07
1.21032e-07
1.21036e-07
1.21028e-07
1.20938e-07
1.20695e-07
1.20687e-07
1.20928e-07
1.21022e-07
1.21036e-07
1.21036e-07
1.21036e-07
1.21017e-07
1.20905e-07
1.20655e-07
1.20597e-07
1.20824e-07
1.20972e-07
1.21019e-07
1.21028e-07
1.21017e-07
1.2096e-07
1.20796e-07
1.20571e-07
1.20443e-07
1.20641e-07
1.20815e-07
1.20913e-07
1.20938e-07
1.20905e-07
1.20796e-07
1.20618e-07
1.20583e-07
1.20663e-07
1.20695e-07
1.20655e-07
1.20571e-07
1.17646e-07
1.17622e-07
1.17631e-07
1.17483e-07
1.17496e-07
1.17515e-07
1.17495e-07
1.17679e-07
1.17617e-07
1.17631e-07
1.17503e-07
1.17297e-07
1.17316e-07
1.17316e-07
1.17297e-07
1.17559e-07
1.17506e-07
1.17483e-07
1.17297e-07
1.17336e-07
1.17358e-07
1.17358e-07
1.17336e-07
1.17297e-07
1.17621e-07
1.17668e-07
1.17646e-07
1.17496e-07
1.17316e-07
1.17358e-07
1.17383e-07
1.17383e-07
1.17358e-07
1.17316e-07
1.17649e-07
1.17685e-07
1.17622e-07
1.17515e-07
1.17316e-07
1.17358e-07
1.17383e-07
1.17383e-07
1.17358e-07
1.17316e-07
1.17651e-07
1.17511e-07
1.17495e-07
1.17297e-07
1.17336e-07
1.17358e-07
1.17358e-07
1.17336e-07
1.17297e-07
1.17645e-07
1.17695e-07
1.17679e-07
1.17559e-07
1.17297e-07
1.17316e-07
1.17316e-07
1.17297e-07
1.17639e-07
1.17565e-07
1.17678e-07
1.17617e-07
1.17506e-07
1.17621e-07
1.17649e-07
1.17651e-07
1.17645e-07
1.17565e-07
1.17687e-07
1.17668e-07
1.17685e-07
1.17511e-07
1.17695e-07
1.17678e-07
1.15876e-07
1.15868e-07
1.15875e-07
1.15745e-07
1.15744e-07
1.15754e-07
1.15746e-07
1.15909e-07
1.15867e-07
1.15875e-07
1.15739e-07
1.15505e-07
1.15514e-07
1.15514e-07
1.15505e-07
1.15761e-07
1.15757e-07
1.15745e-07
1.15505e-07
1.15526e-07
1.15538e-07
1.15538e-07
1.15526e-07
1.15505e-07
1.15806e-07
1.159e-07
1.15876e-07
1.15744e-07
1.15514e-07
1.15538e-07
1.15552e-07
1.15552e-07
1.15538e-07
1.15514e-07
1.1581e-07
1.15897e-07
1.15867e-07
1.15754e-07
1.15514e-07
1.15538e-07
1.15552e-07
1.15552e-07
1.15538e-07
1.15514e-07
1.15808e-07
1.15765e-07
1.15746e-07
1.15505e-07
1.15526e-07
1.15538e-07
1.15538e-07
1.15526e-07
1.15505e-07
1.15813e-07
1.15905e-07
1.15909e-07
1.15761e-07
1.15505e-07
1.15514e-07
1.15514e-07
1.15505e-07
1.15793e-07
1.15786e-07
1.1591e-07
1.15867e-07
1.15757e-07
1.15806e-07
1.1581e-07
1.15808e-07
1.15813e-07
1.15786e-07
1.15912e-07
1.159e-07
1.15897e-07
1.15765e-07
1.15905e-07
1.1591e-07
1.14317e-07
1.14308e-07
1.14316e-07
1.14194e-07
1.14191e-07
1.14198e-07
1.14193e-07
1.14345e-07
1.14311e-07
1.14316e-07
1.14188e-07
1.13988e-07
1.13993e-07
1.13993e-07
1.13988e-07
1.14211e-07
1.14207e-07
1.14194e-07
1.13988e-07
1.14e-07
1.14006e-07
1.14006e-07
1.14e-07
1.13988e-07
1.14251e-07
1.1434e-07
1.14317e-07
1.14191e-07
1.13993e-07
1.14006e-07
1.14013e-07
1.14013e-07
1.14006e-07
1.13993e-07
1.14255e-07
1.14338e-07
1.14308e-07
1.14198e-07
1.13993e-07
1.14006e-07
1.14013e-07
1.14013e-07
1.14006e-07
1.13993e-07
1.14254e-07
1.14212e-07
1.14193e-07
1.13988e-07
1.14e-07
1.14006e-07
1.14006e-07
1.14e-07
1.13988e-07
1.14256e-07
1.14344e-07
1.14345e-07
1.14211e-07
1.13988e-07
1.13993e-07
1.13993e-07
1.13988e-07
1.14238e-07
1.14231e-07
1.14347e-07
1.14311e-07
1.14207e-07
1.14251e-07
1.14255e-07
1.14254e-07
1.14256e-07
1.14231e-07
1.14352e-07
1.1434e-07
1.14338e-07
1.14212e-07
1.14344e-07
1.14347e-07
1.12939e-07
1.12929e-07
1.12938e-07
1.1282e-07
1.12816e-07
1.12822e-07
1.12818e-07
1.12963e-07
1.12934e-07
1.12938e-07
1.12814e-07
1.12636e-07
1.12639e-07
1.12639e-07
1.12636e-07
1.12838e-07
1.12835e-07
1.1282e-07
1.12636e-07
1.12643e-07
1.12645e-07
1.12645e-07
1.12643e-07
1.12636e-07
1.12878e-07
1.12962e-07
1.12939e-07
1.12816e-07
1.12639e-07
1.12645e-07
1.12648e-07
1.12648e-07
1.12645e-07
1.12639e-07
1.12879e-07
1.12959e-07
1.12929e-07
1.12822e-07
1.12639e-07
1.12645e-07
1.12648e-07
1.12648e-07
1.12645e-07
1.12639e-07
1.12877e-07
1.1284e-07
1.12818e-07
1.12636e-07
1.12643e-07
1.12645e-07
1.12645e-07
1.12643e-07
1.12636e-07
1.12879e-07
1.12964e-07
1.12963e-07
1.12838e-07
1.12636e-07
1.12639e-07
1.12639e-07
1.12636e-07
1.12864e-07
1.12857e-07
1.12966e-07
1.12934e-07
1.12835e-07
1.12878e-07
1.12879e-07
1.12877e-07
1.12879e-07
1.12857e-07
1.12973e-07
1.12962e-07
1.12959e-07
1.1284e-07
1.12964e-07
1.12966e-07
1.11652e-07
1.11643e-07
1.11651e-07
1.11536e-07
1.11532e-07
1.11537e-07
1.11534e-07
1.11675e-07
1.11648e-07
1.11651e-07
1.1153e-07
1.11362e-07
1.11363e-07
1.11363e-07
1.11362e-07
1.11555e-07
1.11552e-07
1.11536e-07
1.11362e-07
1.11366e-07
1.11366e-07
1.11366e-07
1.11366e-07
1.11362e-07
1.11595e-07
1.11675e-07
1.11652e-07
1.11532e-07
1.11363e-07
1.11366e-07
1.11367e-07
1.11367e-07
1.11366e-07
1.11363e-07
1.11595e-07
1.11673e-07
1.11643e-07
1.11537e-07
1.11363e-07
1.11366e-07
1.11367e-07
1.11367e-07
1.11366e-07
1.11363e-07
1.11593e-07
1.11556e-07
1.11534e-07
1.11362e-07
1.11366e-07
1.11366e-07
1.11366e-07
1.11366e-07
1.11362e-07
1.11595e-07
1.11677e-07
1.11675e-07
1.11555e-07
1.11362e-07
1.11363e-07
1.11363e-07
1.11362e-07
1.11581e-07
1.11573e-07
1.11678e-07
1.11648e-07
1.11552e-07
1.11595e-07
1.11595e-07
1.11593e-07
1.11595e-07
1.11574e-07
1.11686e-07
1.11675e-07
1.11673e-07
1.11556e-07
1.11677e-07
1.11678e-07
1.10397e-07
1.10388e-07
1.10396e-07
1.10282e-07
1.10278e-07
1.10282e-07
1.1028e-07
1.1042e-07
1.10393e-07
1.10396e-07
1.10276e-07
1.1011e-07
1.10111e-07
1.10111e-07
1.1011e-07
1.10301e-07
1.10298e-07
1.10282e-07
1.1011e-07
1.10114e-07
1.10113e-07
1.10113e-07
1.10114e-07
1.1011e-07
1.10342e-07
1.10421e-07
1.10397e-07
1.10278e-07
1.10111e-07
1.10113e-07
1.10112e-07
1.10112e-07
1.10113e-07
1.10111e-07
1.10342e-07
1.10418e-07
1.10388e-07
1.10282e-07
1.10111e-07
1.10113e-07
1.10112e-07
1.10112e-07
1.10113e-07
1.10111e-07
1.1034e-07
1.10302e-07
1.1028e-07
1.1011e-07
1.10114e-07
1.10113e-07
1.10113e-07
1.10114e-07
1.1011e-07
1.10341e-07
1.10422e-07
1.1042e-07
1.10301e-07
1.1011e-07
1.10111e-07
1.10111e-07
1.1011e-07
1.10327e-07
1.10319e-07
1.10423e-07
1.10393e-07
1.10298e-07
1.10342e-07
1.10342e-07
1.1034e-07
1.10341e-07
1.10319e-07
1.10431e-07
1.10421e-07
1.10418e-07
1.10302e-07
1.10422e-07
1.10423e-07
1.09148e-07
1.09139e-07
1.09147e-07
1.09033e-07
1.09029e-07
1.09033e-07
1.09031e-07
1.09171e-07
1.09144e-07
1.09147e-07
1.09027e-07
1.08861e-07
1.08862e-07
1.08862e-07
1.08861e-07
1.09052e-07
1.0905e-07
1.09033e-07
1.08861e-07
1.08865e-07
1.08864e-07
1.08864e-07
1.08865e-07
1.08861e-07
1.09094e-07
1.09172e-07
1.09148e-07
1.09029e-07
1.08862e-07
1.08864e-07
1.08863e-07
1.08863e-07
1.08864e-07
1.08862e-07
1.09093e-07
1.09169e-07
1.09139e-07
1.09033e-07
1.08862e-07
1.08864e-07
1.08863e-07
1.08863e-07
1.08864e-07
1.08862e-07
1.09091e-07
1.09054e-07
1.09031e-07
1.08861e-07
1.08865e-07
1.08864e-07
1.08864e-07
1.08865e-07
1.08861e-07
1.09093e-07
1.09173e-07
1.09171e-07
1.09052e-07
1.08861e-07
1.08862e-07
1.08862e-07
1.08861e-07
1.09078e-07
1.09071e-07
1.09174e-07
1.09144e-07
1.0905e-07
1.09094e-07
1.09093e-07
1.09091e-07
1.09093e-07
1.09071e-07
1.09183e-07
1.09172e-07
1.09169e-07
1.09054e-07
1.09173e-07
1.09174e-07
1.079e-07
1.0789e-07
1.07898e-07
1.07785e-07
1.0778e-07
1.07785e-07
1.07782e-07
1.07922e-07
1.07895e-07
1.07898e-07
1.07778e-07
1.07612e-07
1.07613e-07
1.07613e-07
1.07612e-07
1.07803e-07
1.07801e-07
1.07785e-07
1.07612e-07
1.07616e-07
1.07614e-07
1.07614e-07
1.07616e-07
1.07612e-07
1.07845e-07
1.07923e-07
1.079e-07
1.0778e-07
1.07613e-07
1.07615e-07
1.07614e-07
1.07614e-07
1.07615e-07
1.07613e-07
1.07844e-07
1.0792e-07
1.0789e-07
1.07785e-07
1.07613e-07
1.07614e-07
1.07614e-07
1.07614e-07
1.07615e-07
1.07613e-07
1.07842e-07
1.07805e-07
1.07782e-07
1.07612e-07
1.07616e-07
1.07615e-07
1.07615e-07
1.07616e-07
1.07612e-07
1.07844e-07
1.07925e-07
1.07922e-07
1.07803e-07
1.07612e-07
1.07613e-07
1.07613e-07
1.07612e-07
1.07829e-07
1.07822e-07
1.07925e-07
1.07895e-07
1.07801e-07
1.07845e-07
1.07844e-07
1.07842e-07
1.07844e-07
1.07822e-07
1.07934e-07
1.07923e-07
1.0792e-07
1.07805e-07
1.07925e-07
1.07925e-07
1.0665e-07
1.0664e-07
1.06649e-07
1.06535e-07
1.06531e-07
1.06535e-07
1.06532e-07
1.06672e-07
1.06646e-07
1.06649e-07
1.06529e-07
1.06363e-07
1.06364e-07
1.06364e-07
1.06363e-07
1.06554e-07
1.06551e-07
1.06535e-07
1.06363e-07
1.06367e-07
1.06365e-07
1.06365e-07
1.06367e-07
1.06363e-07
1.06595e-07
1.06674e-07
1.0665e-07
1.06531e-07
1.06364e-07
1.06365e-07
1.06364e-07
1.06364e-07
1.06365e-07
1.06364e-07
1.06595e-07
1.06671e-07
1.0664e-07
1.06535e-07
1.06364e-07
1.06365e-07
1.06364e-07
1.06364e-07
1.06365e-07
1.06364e-07
1.06593e-07
1.06555e-07
1.06532e-07
1.06363e-07
1.06367e-07
1.06365e-07
1.06365e-07
1.06367e-07
1.06363e-07
1.06594e-07
1.06675e-07
1.06672e-07
1.06554e-07
1.06363e-07
1.06364e-07
1.06364e-07
1.06363e-07
1.0658e-07
1.06573e-07
1.06676e-07
1.06646e-07
1.06551e-07
1.06595e-07
1.06595e-07
1.06593e-07
1.06594e-07
1.06573e-07
1.06684e-07
1.06674e-07
1.06671e-07
1.06555e-07
1.06675e-07
1.06676e-07
1.05401e-07
1.05391e-07
1.05399e-07
1.05286e-07
1.05281e-07
1.05286e-07
1.05283e-07
1.05423e-07
1.05397e-07
1.05399e-07
1.0528e-07
1.05114e-07
1.05114e-07
1.05114e-07
1.05114e-07
1.05304e-07
1.05302e-07
1.05286e-07
1.05114e-07
1.05117e-07
1.05116e-07
1.05116e-07
1.05117e-07
1.05114e-07
1.05346e-07
1.05424e-07
1.05401e-07
1.05281e-07
1.05114e-07
1.05116e-07
1.05115e-07
1.05115e-07
1.05116e-07
1.05114e-07
1.05346e-07
1.05421e-07
1.05391e-07
1.05286e-07
1.05114e-07
1.05116e-07
1.05115e-07
1.05115e-07
1.05116e-07
1.05114e-07
1.05343e-07
1.05306e-07
1.05283e-07
1.05114e-07
1.05117e-07
1.05116e-07
1.05116e-07
1.05117e-07
1.05114e-07
1.05345e-07
1.05426e-07
1.05423e-07
1.05304e-07
1.05114e-07
1.05114e-07
1.05114e-07
1.05114e-07
1.0533e-07
1.05323e-07
1.05427e-07
1.05397e-07
1.05302e-07
1.05346e-07
1.05346e-07
1.05343e-07
1.05345e-07
1.05323e-07
1.05435e-07
1.05424e-07
1.05421e-07
1.05306e-07
1.05426e-07
1.05427e-07
1.04151e-07
1.04142e-07
1.0415e-07
1.04036e-07
1.04032e-07
1.04036e-07
1.04034e-07
1.04174e-07
1.04147e-07
1.0415e-07
1.0403e-07
1.03864e-07
1.03865e-07
1.03865e-07
1.03864e-07
1.04055e-07
1.04053e-07
1.04036e-07
1.03864e-07
1.03868e-07
1.03866e-07
1.03866e-07
1.03868e-07
1.03864e-07
1.04096e-07
1.04175e-07
1.04151e-07
1.04032e-07
1.03865e-07
1.03866e-07
1.03865e-07
1.03865e-07
1.03866e-07
1.03865e-07
1.04096e-07
1.04172e-07
1.04142e-07
1.04036e-07
1.03865e-07
1.03866e-07
1.03865e-07
1.03865e-07
1.03866e-07
1.03865e-07
1.04094e-07
1.04056e-07
1.04034e-07
1.03864e-07
1.03868e-07
1.03866e-07
1.03866e-07
1.03868e-07
1.03864e-07
1.04096e-07
1.04176e-07
1.04174e-07
1.04055e-07
1.03864e-07
1.03865e-07
1.03865e-07
1.03864e-07
1.04081e-07
1.04074e-07
1.04177e-07
1.04147e-07
1.04053e-07
1.04096e-07
1.04096e-07
1.04094e-07
1.04096e-07
1.04074e-07
1.04186e-07
1.04175e-07
1.04172e-07
1.04056e-07
1.04176e-07
1.04177e-07
1.02902e-07
1.02892e-07
1.029e-07
1.02787e-07
1.02782e-07
1.02787e-07
1.02784e-07
1.02924e-07
1.02898e-07
1.029e-07
1.02781e-07
1.02615e-07
1.02615e-07
1.02615e-07
1.02615e-07
1.02805e-07
1.02803e-07
1.02787e-07
1.02615e-07
1.02618e-07
1.02617e-07
1.02617e-07
1.02618e-07
1.02615e-07
1.02847e-07
1.02925e-07
1.02902e-07
1.02782e-07
1.02615e-07
1.02617e-07
1.02616e-07
1.02616e-07
1.02617e-07
1.02615e-07
1.02847e-07
1.02922e-07
1.02892e-07
1.02787e-07
1.02615e-07
1.02617e-07
1.02616e-07
1.02616e-07
1.02617e-07
1.02615e-07
1.02844e-07
1.02807e-07
1.02784e-07
1.02615e-07
1.02618e-07
1.02617e-07
1.02617e-07
1.02618e-07
1.02615e-07
1.02846e-07
1.02927e-07
1.02924e-07
1.02805e-07
1.02615e-07
1.02615e-07
1.02615e-07
1.02615e-07
1.02831e-07
1.02824e-07
1.02928e-07
1.02898e-07
1.02803e-07
1.02847e-07
1.02847e-07
1.02844e-07
1.02846e-07
1.02824e-07
1.02936e-07
1.02925e-07
1.02922e-07
1.02807e-07
1.02927e-07
1.02928e-07
1.01652e-07
1.01643e-07
1.01651e-07
1.01537e-07
1.01533e-07
1.01537e-07
1.01535e-07
1.01675e-07
1.01648e-07
1.01651e-07
1.01531e-07
1.01365e-07
1.01366e-07
1.01366e-07
1.01365e-07
1.01556e-07
1.01554e-07
1.01537e-07
1.01365e-07
1.01369e-07
1.01367e-07
1.01367e-07
1.01369e-07
1.01365e-07
1.01597e-07
1.01676e-07
1.01652e-07
1.01533e-07
1.01366e-07
1.01367e-07
1.01366e-07
1.01366e-07
1.01367e-07
1.01366e-07
1.01597e-07
1.01673e-07
1.01643e-07
1.01537e-07
1.01366e-07
1.01367e-07
1.01366e-07
1.01366e-07
1.01367e-07
1.01366e-07
1.01595e-07
1.01557e-07
1.01535e-07
1.01365e-07
1.01369e-07
1.01367e-07
1.01367e-07
1.01369e-07
1.01365e-07
1.01597e-07
1.01677e-07
1.01675e-07
1.01556e-07
1.01365e-07
1.01366e-07
1.01366e-07
1.01365e-07
1.01582e-07
1.01575e-07
1.01678e-07
1.01648e-07
1.01554e-07
1.01597e-07
1.01597e-07
1.01595e-07
1.01597e-07
1.01575e-07
1.01687e-07
1.01676e-07
1.01673e-07
1.01557e-07
1.01677e-07
1.01678e-07
1.00403e-07
1.00393e-07
1.00402e-07
1.00288e-07
1.00283e-07
1.00288e-07
1.00285e-07
1.00425e-07
1.00399e-07
1.00402e-07
1.00282e-07
1.00116e-07
1.00116e-07
1.00116e-07
1.00116e-07
1.00307e-07
1.00304e-07
1.00288e-07
1.00116e-07
1.00119e-07
1.00118e-07
1.00118e-07
1.00119e-07
1.00116e-07
1.00348e-07
1.00426e-07
1.00403e-07
1.00283e-07
1.00116e-07
1.00118e-07
1.00117e-07
1.00117e-07
1.00118e-07
1.00116e-07
1.00348e-07
1.00423e-07
1.00393e-07
1.00288e-07
1.00116e-07
1.00118e-07
1.00117e-07
1.00117e-07
1.00118e-07
1.00116e-07
1.00345e-07
1.00308e-07
1.00285e-07
1.00116e-07
1.00119e-07
1.00118e-07
1.00118e-07
1.00119e-07
1.00116e-07
1.00347e-07
1.00428e-07
1.00425e-07
1.00307e-07
1.00116e-07
1.00116e-07
1.00116e-07
1.00116e-07
1.00332e-07
1.00325e-07
1.00429e-07
1.00399e-07
1.00304e-07
1.00348e-07
1.00348e-07
1.00345e-07
1.00347e-07
1.00325e-07
1.00437e-07
1.00426e-07
1.00423e-07
1.00308e-07
1.00428e-07
1.00429e-07
9.91534e-08
9.91437e-08
9.91521e-08
9.90384e-08
9.90339e-08
9.90384e-08
9.90356e-08
9.91757e-08
9.91492e-08
9.91521e-08
9.90322e-08
9.88662e-08
9.88667e-08
9.88667e-08
9.88662e-08
9.90571e-08
9.90546e-08
9.90384e-08
9.88662e-08
9.88697e-08
9.88683e-08
9.88683e-08
9.88697e-08
9.88662e-08
9.90985e-08
9.91768e-08
9.91534e-08
9.90339e-08
9.88667e-08
9.88683e-08
9.88675e-08
9.88675e-08
9.88683e-08
9.88667e-08
9.90983e-08
9.9174e-08
9.91436e-08
9.90384e-08
9.88667e-08
9.88683e-08
9.88675e-08
9.88675e-08
9.88683e-08
9.88667e-08
9.90959e-08
9.90585e-08
9.90356e-08
9.88662e-08
9.88697e-08
9.88683e-08
9.88683e-08
9.88697e-08
9.88662e-08
9.90977e-08
9.91784e-08
9.91757e-08
9.90571e-08
9.88662e-08
9.88667e-08
9.88667e-08
9.88662e-08
9.9083e-08
9.90757e-08
9.91793e-08
9.91492e-08
9.90546e-08
9.90985e-08
9.90983e-08
9.90959e-08
9.90977e-08
9.90757e-08
9.91876e-08
9.91768e-08
9.9174e-08
9.90585e-08
9.91784e-08
9.91793e-08
9.7904e-08
9.78942e-08
9.79026e-08
9.77889e-08
9.77845e-08
9.7789e-08
9.77862e-08
9.79263e-08
9.78998e-08
9.79026e-08
9.77828e-08
9.76168e-08
9.76173e-08
9.76173e-08
9.76168e-08
9.78076e-08
9.78052e-08
9.77889e-08
9.76168e-08
9.76203e-08
9.76189e-08
9.76189e-08
9.76203e-08
9.76168e-08
9.78491e-08
9.79273e-08
9.7904e-08
9.77845e-08
9.76173e-08
9.76189e-08
9.76181e-08
9.76181e-08
9.76189e-08
9.76173e-08
9.78488e-08
9.79246e-08
9.78942e-08
9.7789e-08
9.76173e-08
9.76189e-08
9.76181e-08
9.76181e-08
9.76189e-08
9.76173e-08
9.78465e-08
9.78091e-08
9.77862e-08
9.76168e-08
9.76203e-08
9.76189e-08
9.76189e-08
9.76203e-08
9.76168e-08
9.78482e-08
9.7929e-08
9.79262e-08
9.78076e-08
9.76168e-08
9.76173e-08
9.76173e-08
9.76168e-08
9.78336e-08
9.78263e-08
9.79299e-08
9.78998e-08
9.78052e-08
9.78491e-08
9.78488e-08
9.78465e-08
9.78482e-08
9.78263e-08
9.79382e-08
9.79273e-08
9.79246e-08
9.78091e-08
9.7929e-08
9.79299e-08
9.66546e-08
9.66448e-08
9.66532e-08
9.65395e-08
9.65351e-08
9.65395e-08
9.65368e-08
9.66768e-08
9.66503e-08
9.66532e-08
9.65334e-08
9.63673e-08
9.63678e-08
9.63678e-08
9.63673e-08
9.65582e-08
9.65558e-08
9.65395e-08
9.63673e-08
9.63708e-08
9.63694e-08
9.63694e-08
9.63708e-08
9.63673e-08
9.65996e-08
9.66779e-08
9.66546e-08
9.65351e-08
9.63678e-08
9.63694e-08
9.63686e-08
9.63686e-08
9.63694e-08
9.63678e-08
9.65994e-08
9.66751e-08
9.66448e-08
9.65395e-08
9.63678e-08
9.63694e-08
9.63686e-08
9.63686e-08
9.63694e-08
9.63678e-08
9.6597e-08
9.65597e-08
9.65368e-08
9.63673e-08
9.63708e-08
9.63694e-08
9.63694e-08
9.63708e-08
9.63673e-08
9.65988e-08
9.66796e-08
9.66768e-08
9.65582e-08
9.63673e-08
9.63678e-08
9.63678e-08
9.63673e-08
9.65841e-08
9.65768e-08
9.66804e-08
9.66503e-08
9.65558e-08
9.65996e-08
9.65994e-08
9.6597e-08
9.65988e-08
9.65769e-08
9.66888e-08
9.66779e-08
9.66751e-08
9.65597e-08
9.66796e-08
9.66805e-08
9.54051e-08
9.53953e-08
9.54037e-08
9.529e-08
9.52856e-08
9.52901e-08
9.52873e-08
9.54274e-08
9.54009e-08
9.54038e-08
9.52839e-08
9.51178e-08
9.51184e-08
9.51184e-08
9.51178e-08
9.53087e-08
9.53063e-08
9.529e-08
9.51178e-08
9.51214e-08
9.51199e-08
9.51199e-08
9.51214e-08
9.51178e-08
9.53502e-08
9.54284e-08
9.54051e-08
9.52856e-08
9.51184e-08
9.51199e-08
9.51192e-08
9.51192e-08
9.51199e-08
9.51184e-08
9.53499e-08
9.54257e-08
9.53953e-08
9.52901e-08
9.51184e-08
9.51199e-08
9.51192e-08
9.51192e-08
9.51199e-08
9.51184e-08
9.53476e-08
9.53102e-08
9.52873e-08
9.51178e-08
9.51214e-08
9.51199e-08
9.51199e-08
9.51214e-08
9.51178e-08
9.53493e-08
9.54301e-08
9.54274e-08
9.53087e-08
9.51178e-08
9.51184e-08
9.51184e-08
9.51178e-08
9.53347e-08
9.53274e-08
9.5431e-08
9.54009e-08
9.53063e-08
9.53502e-08
9.53499e-08
9.53476e-08
9.53493e-08
9.53274e-08
9.54393e-08
9.54284e-08
9.54257e-08
9.53102e-08
9.54301e-08
9.5431e-08
9.41556e-08
9.41458e-08
9.41543e-08
9.40406e-08
9.40361e-08
9.40406e-08
9.40378e-08
9.41779e-08
9.41514e-08
9.41543e-08
9.40344e-08
9.38684e-08
9.38689e-08
9.38689e-08
9.38684e-08
9.40593e-08
9.40568e-08
9.40406e-08
9.38684e-08
9.38719e-08
9.38705e-08
9.38705e-08
9.38719e-08
9.38684e-08
9.41007e-08
9.41789e-08
9.41556e-08
9.40361e-08
9.38689e-08
9.38705e-08
9.38697e-08
9.38697e-08
9.38705e-08
9.38689e-08
9.41004e-08
9.41762e-08
9.41458e-08
9.40406e-08
9.38689e-08
9.38705e-08
9.38697e-08
9.38697e-08
9.38705e-08
9.38689e-08
9.40981e-08
9.40607e-08
9.40378e-08
9.38684e-08
9.38719e-08
9.38705e-08
9.38705e-08
9.38719e-08
9.38684e-08
9.40999e-08
9.41806e-08
9.41779e-08
9.40593e-08
9.38684e-08
9.38689e-08
9.38689e-08
9.38684e-08
9.40852e-08
9.40779e-08
9.41815e-08
9.41514e-08
9.40568e-08
9.41007e-08
9.41004e-08
9.40981e-08
9.40999e-08
9.40779e-08
9.41898e-08
9.4179e-08
9.41762e-08
9.40607e-08
9.41806e-08
9.41815e-08
9.29061e-08
9.28964e-08
9.29048e-08
9.27911e-08
9.27866e-08
9.27911e-08
9.27883e-08
9.29284e-08
9.29019e-08
9.29048e-08
9.27849e-08
9.26189e-08
9.26194e-08
9.26194e-08
9.26189e-08
9.28098e-08
9.28073e-08
9.27911e-08
9.26189e-08
9.26224e-08
9.2621e-08
9.2621e-08
9.26224e-08
9.26189e-08
9.28512e-08
9.29295e-08
9.29061e-08
9.27866e-08
9.26194e-08
9.2621e-08
9.26202e-08
9.26202e-08
9.2621e-08
9.26194e-08
9.28509e-08
9.29267e-08
9.28963e-08
9.27911e-08
9.26194e-08
9.2621e-08
9.26202e-08
9.26202e-08
9.2621e-08
9.26194e-08
9.28486e-08
9.28112e-08
9.27883e-08
9.26189e-08
9.26224e-08
9.2621e-08
9.2621e-08
9.26224e-08
9.26189e-08
9.28504e-08
9.29311e-08
9.29284e-08
9.28098e-08
9.26189e-08
9.26194e-08
9.26194e-08
9.26189e-08
9.28357e-08
9.28284e-08
9.2932e-08
9.29019e-08
9.28073e-08
9.28512e-08
9.2851e-08
9.28486e-08
9.28504e-08
9.28284e-08
9.29403e-08
9.29295e-08
9.29267e-08
9.28112e-08
9.29311e-08
9.2932e-08
9.16566e-08
9.16469e-08
9.16553e-08
9.15416e-08
9.15371e-08
9.15416e-08
9.15388e-08
9.16789e-08
9.16524e-08
9.16553e-08
9.15355e-08
9.13694e-08
9.13699e-08
9.13699e-08
9.13694e-08
9.15603e-08
9.15579e-08
9.15416e-08
9.13694e-08
9.13729e-08
9.13715e-08
9.13715e-08
9.13729e-08
9.13694e-08
9.16017e-08
9.168e-08
9.16566e-08
9.15371e-08
9.13699e-08
9.13715e-08
9.13707e-08
9.13707e-08
9.13715e-08
9.13699e-08
9.16015e-08
9.16772e-08
9.16469e-08
9.15416e-08
9.13699e-08
9.13715e-08
9.13707e-08
9.13707e-08
9.13715e-08
9.13699e-08
9.15991e-08
9.15617e-08
9.15388e-08
9.13694e-08
9.13729e-08
9.13715e-08
9.13715e-08
9.13729e-08
9.13694e-08
9.16009e-08
9.16816e-08
9.16789e-08
9.15603e-08
9.13694e-08
9.13699e-08
9.13699e-08
9.13694e-08
9.15862e-08
9.15789e-08
9.16825e-08
9.16524e-08
9.15579e-08
9.16017e-08
9.16015e-08
9.15991e-08
9.16009e-08
9.15789e-08
9.16909e-08
9.168e-08
9.16772e-08
9.15617e-08
9.16817e-08
9.16825e-08
9.04072e-08
9.03974e-08
9.04058e-08
9.02921e-08
9.02877e-08
9.02921e-08
9.02894e-08
9.04294e-08
9.04029e-08
9.04058e-08
9.0286e-08
9.01199e-08
9.01204e-08
9.01204e-08
9.01199e-08
9.03108e-08
9.03084e-08
9.02921e-08
9.01199e-08
9.01234e-08
9.0122e-08
9.0122e-08
9.01234e-08
9.01199e-08
9.03522e-08
9.04305e-08
9.04072e-08
9.02877e-08
9.01204e-08
9.0122e-08
9.01212e-08
9.01212e-08
9.0122e-08
9.01204e-08
9.0352e-08
9.04277e-08
9.03974e-08
9.02921e-08
9.01204e-08
9.0122e-08
9.01212e-08
9.01212e-08
9.0122e-08
9.01204e-08
9.03496e-08
9.03123e-08
9.02894e-08
9.01199e-08
9.01234e-08
9.0122e-08
9.0122e-08
9.01234e-08
9.01199e-08
9.03514e-08
9.04322e-08
9.04294e-08
9.03108e-08
9.01199e-08
9.01204e-08
9.01204e-08
9.01199e-08
9.03367e-08
9.03294e-08
9.0433e-08
9.04029e-08
9.03084e-08
9.03522e-08
9.0352e-08
9.03496e-08
9.03514e-08
9.03295e-08
9.04414e-08
9.04305e-08
9.04277e-08
9.03123e-08
9.04322e-08
9.0433e-08
8.91577e-08
8.91479e-08
8.91563e-08
8.90426e-08
8.90382e-08
8.90426e-08
8.90399e-08
8.91799e-08
8.91535e-08
8.91563e-08
8.90365e-08
8.88704e-08
8.88709e-08
8.88709e-08
8.88704e-08
8.90613e-08
8.90589e-08
8.90426e-08
8.88704e-08
8.88739e-08
8.88725e-08
8.88725e-08
8.88739e-08
8.88704e-08
8.91027e-08
8.9181e-08
8.91577e-08
8.90382e-08
8.88709e-08
8.88725e-08
8.88717e-08
8.88717e-08
8.88725e-08
8.88709e-08
8.91025e-08
8.91782e-08
8.91479e-08
8.90426e-08
8.88709e-08
8.88725e-08
8.88717e-08
8.88717e-08
8.88725e-08
8.88709e-08
8.91001e-08
8.90628e-08
8.90399e-08
8.88704e-08
8.88739e-08
8.88725e-08
8.88725e-08
8.88739e-08
8.88704e-08
8.91019e-08
8.91827e-08
8.91799e-08
8.90613e-08
8.88704e-08
8.88709e-08
8.88709e-08
8.88704e-08
8.90872e-08
8.90799e-08
8.91836e-08
8.91535e-08
8.90589e-08
8.91027e-08
8.91025e-08
8.91001e-08
8.91019e-08
8.908e-08
8.91919e-08
8.9181e-08
8.91782e-08
8.90628e-08
8.91827e-08
8.91836e-08
8.79082e-08
8.78984e-08
8.79068e-08
8.77931e-08
8.77887e-08
8.77931e-08
8.77904e-08
8.79304e-08
8.7904e-08
8.79068e-08
8.7787e-08
8.76209e-08
8.76214e-08
8.76214e-08
8.76209e-08
8.78118e-08
8.78094e-08
8.77931e-08
8.76209e-08
8.76244e-08
8.7623e-08
8.7623e-08
8.76244e-08
8.76209e-08
8.78532e-08
8.79315e-08
8.79082e-08
8.77887e-08
8.76214e-08
8.7623e-08
8.76222e-08
8.76222e-08
8.7623e-08
8.76214e-08
8.7853e-08
8.79287e-08
8.78984e-08
8.77931e-08
8.76214e-08
8.7623e-08
8.76222e-08
8.76222e-08
8.7623e-08
8.76214e-08
8.78506e-08
8.78133e-08
8.77904e-08
8.76209e-08
8.76244e-08
8.7623e-08
8.7623e-08
8.76244e-08
8.76209e-08
8.78524e-08
8.79332e-08
8.79304e-08
8.78118e-08
8.76209e-08
8.76214e-08
8.76214e-08
8.76209e-08
8.78377e-08
8.78304e-08
8.7934e-08
8.79039e-08
8.78094e-08
8.78532e-08
8.7853e-08
8.78506e-08
8.78524e-08
8.78305e-08
8.79424e-08
8.79315e-08
8.79287e-08
8.78133e-08
8.79332e-08
8.79341e-08
8.66586e-08
8.66489e-08
8.66573e-08
8.65436e-08
8.65391e-08
8.65436e-08
8.65408e-08
8.66809e-08
8.66544e-08
8.66573e-08
8.65374e-08
8.63714e-08
8.63719e-08
8.63719e-08
8.63714e-08
8.65623e-08
8.65598e-08
8.65436e-08
8.63714e-08
8.63749e-08
8.63735e-08
8.63735e-08
8.63749e-08
8.63714e-08
8.66037e-08
8.6682e-08
8.66586e-08
8.65391e-08
8.63719e-08
8.63735e-08
8.63727e-08
8.63727e-08
8.63735e-08
8.63719e-08
8.66035e-08
8.66792e-08
8.66489e-08
8.65436e-08
8.63719e-08
8.63735e-08
8.63727e-08
8.63727e-08
8.63735e-08
8.63719e-08
8.66011e-08
8.65637e-08
8.65408e-08
8.63714e-08
8.63749e-08
8.63735e-08
8.63735e-08
8.63749e-08
8.63714e-08
8.66029e-08
8.66836e-08
8.66809e-08
8.65623e-08
8.63714e-08
8.63719e-08
8.63719e-08
8.63714e-08
8.65882e-08
8.65809e-08
8.66845e-08
8.66544e-08
8.65598e-08
8.66037e-08
8.66035e-08
8.66011e-08
8.66029e-08
8.65809e-08
8.66929e-08
8.6682e-08
8.66792e-08
8.65637e-08
8.66837e-08
8.66845e-08
8.54091e-08
8.53994e-08
8.54078e-08
8.52941e-08
8.52896e-08
8.52941e-08
8.52913e-08
8.54314e-08
8.54049e-08
8.54078e-08
8.52879e-08
8.51219e-08
8.51224e-08
8.51224e-08
8.51219e-08
8.53128e-08
8.53103e-08
8.52941e-08
8.51219e-08
8.51254e-08
8.5124e-08
8.5124e-08
8.51254e-08
8.51219e-08
8.53542e-08
8.54325e-08
8.54091e-08
8.52896e-08
8.51224e-08
8.5124e-08
8.51232e-08
8.51232e-08
8.5124e-08
8.51224e-08
8.53539e-08
8.54297e-08
8.53993e-08
8.52941e-08
8.51224e-08
8.5124e-08
8.51232e-08
8.51232e-08
8.5124e-08
8.51224e-08
8.53516e-08
8.53142e-08
8.52913e-08
8.51219e-08
8.51254e-08
8.5124e-08
8.5124e-08
8.51254e-08
8.51219e-08
8.53534e-08
8.54341e-08
8.54314e-08
8.53128e-08
8.51219e-08
8.51224e-08
8.51224e-08
8.51219e-08
8.53387e-08
8.53314e-08
8.5435e-08
8.54049e-08
8.53103e-08
8.53542e-08
8.5354e-08
8.53516e-08
8.53534e-08
8.53314e-08
8.54433e-08
8.54325e-08
8.54297e-08
8.53142e-08
8.54341e-08
8.5435e-08
8.41596e-08
8.41499e-08
8.41583e-08
8.40446e-08
8.40401e-08
8.40446e-08
8.40418e-08
8.41819e-08
8.41554e-08
8.41583e-08
8.40385e-08
8.38724e-08
8.38729e-08
8.38729e-08
8.38724e-08
8.40633e-08
8.40609e-08
8.40446e-08
8.38724e-08
8.38759e-08
8.38745e-08
8.38745e-08
8.38759e-08
8.38724e-08
8.41047e-08
8.4183e-08
8.41596e-08
8.40401e-08
8.38729e-08
8.38745e-08
8.38737e-08
8.38737e-08
8.38745e-08
8.38729e-08
8.41045e-08
8.41802e-08
8.41499e-08
8.40446e-08
8.38729e-08
8.38745e-08
8.38737e-08
8.38737e-08
8.38745e-08
8.38729e-08
8.41021e-08
8.40647e-08
8.40418e-08
8.38724e-08
8.38759e-08
8.38745e-08
8.38745e-08
8.38759e-08
8.38724e-08
8.41039e-08
8.41846e-08
8.41819e-08
8.40633e-08
8.38724e-08
8.38729e-08
8.38729e-08
8.38724e-08
8.40892e-08
8.40819e-08
8.41855e-08
8.41554e-08
8.40609e-08
8.41047e-08
8.41045e-08
8.41021e-08
8.41039e-08
8.40819e-08
8.41939e-08
8.4183e-08
8.41802e-08
8.40647e-08
8.41846e-08
8.41855e-08
8.29102e-08
8.29004e-08
8.29088e-08
8.27951e-08
8.27907e-08
8.27951e-08
8.27924e-08
8.29324e-08
8.29059e-08
8.29088e-08
8.2789e-08
8.26229e-08
8.26234e-08
8.26234e-08
8.26229e-08
8.28138e-08
8.28114e-08
8.27951e-08
8.26229e-08
8.26264e-08
8.2625e-08
8.2625e-08
8.26264e-08
8.26229e-08
8.28552e-08
8.29335e-08
8.29102e-08
8.27907e-08
8.26234e-08
8.2625e-08
8.26242e-08
8.26242e-08
8.2625e-08
8.26234e-08
8.2855e-08
8.29307e-08
8.29004e-08
8.27951e-08
8.26234e-08
8.2625e-08
8.26242e-08
8.26242e-08
8.2625e-08
8.26234e-08
8.28526e-08
8.28153e-08
8.27924e-08
8.26229e-08
8.26264e-08
8.2625e-08
8.2625e-08
8.26264e-08
8.26229e-08
8.28544e-08
8.29352e-08
8.29324e-08
8.28138e-08
8.26229e-08
8.26234e-08
8.26234e-08
8.26229e-08
8.28397e-08
8.28324e-08
8.2936e-08
8.29059e-08
8.28114e-08
8.28552e-08
8.2855e-08
8.28526e-08
8.28544e-08
8.28325e-08
8.29444e-08
8.29335e-08
8.29307e-08
8.28152e-08
8.29352e-08
8.2936e-08
8.16606e-08
8.16509e-08
8.16593e-08
8.15456e-08
8.15411e-08
8.15456e-08
8.15429e-08
8.16829e-08
8.16564e-08
8.16593e-08
8.15395e-08
8.13734e-08
8.13739e-08
8.13739e-08
8.13734e-08
8.15643e-08
8.15619e-08
8.15456e-08
8.13734e-08
8.13769e-08
8.13755e-08
8.13755e-08
8.13769e-08
8.13734e-08
8.16057e-08
8.1684e-08
8.16606e-08
8.15411e-08
8.13739e-08
8.13755e-08
8.13747e-08
8.13747e-08
8.13755e-08
8.13739e-08
8.16055e-08
8.16812e-08
8.16509e-08
8.15456e-08
8.13739e-08
8.13755e-08
8.13747e-08
8.13747e-08
8.13755e-08
8.13739e-08
8.16031e-08
8.15657e-08
8.15429e-08
8.13734e-08
8.13769e-08
8.13755e-08
8.13755e-08
8.13769e-08
8.13734e-08
8.16049e-08
8.16856e-08
8.16829e-08
8.15643e-08
8.13734e-08
8.13739e-08
8.13739e-08
8.13734e-08
8.15902e-08
8.15829e-08
8.16865e-08
8.16564e-08
8.15619e-08
8.16057e-08
8.16055e-08
8.16031e-08
8.16049e-08
8.15829e-08
8.16949e-08
8.1684e-08
8.16812e-08
8.15657e-08
8.16857e-08
8.16865e-08
8.04112e-08
8.04014e-08
8.04098e-08
8.02961e-08
8.02917e-08
8.02961e-08
8.02934e-08
8.04334e-08
8.04069e-08
8.04098e-08
8.029e-08
8.01239e-08
8.01244e-08
8.01244e-08
8.01239e-08
8.03148e-08
8.03124e-08
8.02961e-08
8.01239e-08
8.01274e-08
8.0126e-08
8.0126e-08
8.01274e-08
8.01239e-08
8.03562e-08
8.04345e-08
8.04112e-08
8.02917e-08
8.01244e-08
8.0126e-08
8.01252e-08
8.01252e-08
8.0126e-08
8.01244e-08
8.0356e-08
8.04317e-08
8.04014e-08
8.02961e-08
8.01244e-08
8.0126e-08
8.01252e-08
8.01252e-08
8.0126e-08
8.01244e-08
8.03536e-08
8.03163e-08
8.02934e-08
8.01239e-08
8.01274e-08
8.0126e-08
8.0126e-08
8.01274e-08
8.01239e-08
8.03554e-08
8.04362e-08
8.04334e-08
8.03148e-08
8.01239e-08
8.01244e-08
8.01244e-08
8.01239e-08
8.03408e-08
8.03334e-08
8.0437e-08
8.04069e-08
8.03124e-08
8.03562e-08
8.0356e-08
8.03537e-08
8.03554e-08
8.03335e-08
8.04454e-08
8.04345e-08
8.04317e-08
8.03163e-08
8.04362e-08
8.04371e-08
7.91617e-08
7.91519e-08
7.91604e-08
7.90467e-08
7.90422e-08
7.90467e-08
7.90439e-08
7.9184e-08
7.91575e-08
7.91604e-08
7.90405e-08
7.88745e-08
7.8875e-08
7.8875e-08
7.88745e-08
7.90654e-08
7.90629e-08
7.90467e-08
7.88745e-08
7.8878e-08
7.88766e-08
7.88766e-08
7.8878e-08
7.88745e-08
7.91068e-08
7.91851e-08
7.91617e-08
7.90422e-08
7.8875e-08
7.88766e-08
7.88758e-08
7.88758e-08
7.88766e-08
7.8875e-08
7.91065e-08
7.91823e-08
7.91519e-08
7.90467e-08
7.8875e-08
7.88766e-08
7.88758e-08
7.88758e-08
7.88766e-08
7.8875e-08
7.91042e-08
7.90668e-08
7.90439e-08
7.88745e-08
7.8878e-08
7.88766e-08
7.88766e-08
7.8878e-08
7.88745e-08
7.9106e-08
7.91867e-08
7.9184e-08
7.90654e-08
7.88745e-08
7.8875e-08