/*--------------------------------*- C++ -*----------------------------------*\
| =========                 |                                                 |
| \\      /  F ield         | OpenFOAM: The Open Source CFD Toolbox           |
|  \\    /   O peration     | Version:  2312                                  |
|   \\  /    A nd           | Website:  www.openfoam.com                      |
|    \\/     M anipulation  |                                                 |
\*---------------------------------------------------------------------------*/
FoamFile
{
    version     2.0;
    format      ascii;
    arch        "LSB;label=32;scalar=64";
    class       volScalarField;
    location    "250";
    object      k;
}
// * * * * * * * * * * * * * * * * * * * * * * * * * * * * * * * * * * * * * //

dimensions      [0 2 -2 0 0 0 0];

internalField   nonuniform List<scalar> 
43496
(
6.70139e-05
6.99371e-05
4.50817e-05
6.28611e-05
5.76989e-05
3.88532e-05
6.70103e-05
7.20727e-05
5.7685e-05
4.50838e-05
3.88497e-05
6.28559e-05
4.84125e-05
6.85335e-05
6.85319e-05
6.99389e-05
7.20904e-05
7.05894e-05
6.70137e-05
7.02175e-05
7.03193e-05
7.02168e-05
7.03174e-05
7.0592e-05
7.05198e-05
7.86598e-05
7.86594e-05
7.05286e-05
6.99314e-05
7.05849e-05
6.70103e-05
7.03196e-05
7.01951e-05
7.03177e-05
7.01951e-05
7.05877e-05
7.05104e-05
7.86065e-05
7.20723e-05
7.86065e-05
7.05197e-05
9.36558e-05
7.23546e-05
7.23603e-05
7.23458e-05
7.23517e-05
9.36537e-05
7.24613e-05
7.19167e-05
6.85389e-05
6.27988e-05
7.19142e-05
6.27962e-05
7.24601e-05
7.2406e-05
7.1909e-05
6.85374e-05
6.27771e-05
6.27894e-05
7.19069e-05
7.23985e-05
6.99336e-05
7.20882e-05
2.18163e-05
2.96785e-05
2.18079e-05
6.28634e-05
5.71787e-05
5.72023e-05
5.19752e-05
5.76978e-05
5.9654e-05
5.03816e-05
5.96533e-05
5.04046e-05
5.19491e-05
5.35702e-05
6.19093e-05
6.19088e-05
5.35588e-05
5.19473e-05
5.76857e-05
5.03485e-05
5.96121e-05
5.04044e-05
5.96142e-05
5.19254e-05
5.35178e-05
6.18699e-05
6.28478e-05
5.715e-05
6.18665e-05
5.34995e-05
5.71746e-05
6.32877e-05
4.84319e-05
5.5694e-05
5.56878e-05
5.56884e-05
5.56966e-05
6.32883e-05
2.96774e-05
4.51028e-05
4.50808e-05
4.85085e-05
2.96862e-05
4.51071e-05
4.50814e-05
4.85125e-05
4.84993e-05
4.84657e-05
4.50935e-05
4.5094e-05
4.50955e-05
4.50988e-05
4.84891e-05
4.84765e-05
4.51012e-05
4.50813e-05
4.51011e-05
4.50817e-05
4.51114e-05
4.51093e-05
4.51175e-05
4.84511e-05
4.84012e-05
4.51067e-05
4.50809e-05
4.51088e-05
4.84818e-05
4.84964e-05
4.50951e-05
4.51018e-05
4.84995e-05
4.50995e-05
4.50834e-05
4.51203e-05
4.84271e-05
4.51099e-05
6.70291e-05
7.20747e-05
7.20759e-05
6.70329e-05
6.99326e-05
6.99397e-05
6.70238e-05
7.20894e-05
7.20917e-05
6.70267e-05
2.96653e-05
2.96619e-05
2.96738e-05
2.96895e-05
2.96745e-05
2.96713e-05
2.96816e-05
5.77162e-05
6.28675e-05
3.88548e-05
4.51058e-05
6.28667e-05
3.8857e-05
5.7698e-05
6.99273e-05
6.99336e-05
5.76741e-05
3.88411e-05
6.28602e-05
4.50807e-05
3.88416e-05
6.28604e-05
5.76723e-05
6.85566e-05
6.85525e-05
4.84818e-05
6.85575e-05
6.85492e-05
7.20755e-05
6.70111e-05
6.9937e-05
7.20905e-05
6.70164e-05
2.96805e-05
2.96759e-05
2.96857e-05
5.77051e-05
6.28846e-05
3.88606e-05
5.77131e-05
3.88602e-05
6.99304e-05
5.76735e-05
3.88447e-05
6.28602e-05
5.7669e-05
3.88494e-05
6.85567e-05
6.85536e-05
4.84827e-05
6.85564e-05
6.85571e-05
6.99222e-05
6.99278e-05
6.99294e-05
6.99351e-05
6.85347e-05
6.85517e-05
4.84705e-05
6.85249e-05
6.85475e-05
6.99301e-05
6.9923e-05
6.99361e-05
6.99301e-05
4.84999e-05
6.85298e-05
6.85413e-05
6.85281e-05
6.85481e-05
6.70294e-05
7.20852e-05
7.20875e-05
6.70311e-05
5.77152e-05
6.28445e-05
3.88434e-05
4.50947e-05
6.28412e-05
3.88444e-05
5.77101e-05
5.77027e-05
6.28545e-05
3.88433e-05
4.50947e-05
6.28505e-05
3.88447e-05
5.77043e-05
6.70256e-05
7.20768e-05
7.20748e-05
6.702e-05
6.70264e-05
7.20896e-05
7.20866e-05
6.70246e-05
5.77064e-05
4.50939e-05
6.28548e-05
3.88455e-05
6.28482e-05
3.88446e-05
5.77064e-05
5.76926e-05
4.50953e-05
6.28622e-05
3.88465e-05
6.28494e-05
3.8846e-05
5.76753e-05
6.85478e-05
6.85551e-05
4.84706e-05
6.85482e-05
6.85621e-05
6.99352e-05
6.99417e-05
6.9942e-05
6.99347e-05
4.84943e-05
6.85521e-05
6.85607e-05
6.85466e-05
6.85623e-05
6.99429e-05
6.99367e-05
5.77177e-05
6.28846e-05
3.88452e-05
4.51011e-05
6.28818e-05
3.88466e-05
5.77184e-05
6.70228e-05
7.20732e-05
7.20719e-05
6.70243e-05
5.77202e-05
3.88401e-05
6.28581e-05
4.50822e-05
3.88431e-05
6.28494e-05
5.77261e-05
6.70209e-05
7.20918e-05
7.20904e-05
6.70196e-05
5.77139e-05
4.51008e-05
6.28687e-05
3.88493e-05
6.28712e-05
3.8848e-05
5.77136e-05
6.70204e-05
7.20729e-05
7.20704e-05
6.70192e-05
5.77155e-05
4.50818e-05
3.88447e-05
6.2852e-05
3.88442e-05
6.28455e-05
5.77099e-05
6.70338e-05
7.20891e-05
7.20915e-05
6.70315e-05
5.7714e-05
3.8857e-05
6.28782e-05
4.51153e-05
3.88601e-05
6.28654e-05
5.77147e-05
6.70324e-05
7.2087e-05
7.20876e-05
6.70371e-05
5.77153e-05
4.51063e-05
6.28825e-05
3.88595e-05
6.28741e-05
3.88589e-05
5.77181e-05
6.70311e-05
7.2093e-05
7.20906e-05
6.70304e-05
5.77122e-05
4.51163e-05
3.8861e-05
6.28741e-05
3.88606e-05
6.2871e-05
5.77151e-05
6.70296e-05
7.20874e-05
7.20861e-05
6.70279e-05
6.8539e-05
6.85437e-05
4.83967e-05
6.85396e-05
6.85428e-05
6.99321e-05
6.99377e-05
6.99352e-05
6.99288e-05
4.84213e-05
6.85394e-05
6.85417e-05
6.8542e-05
6.8544e-05
6.99384e-05
6.99326e-05
5.77119e-05
3.88493e-05
6.28773e-05
4.51075e-05
3.88502e-05
6.28663e-05
5.77154e-05
6.70011e-05
7.20833e-05
7.20851e-05
6.7004e-05
6.70164e-05
7.20905e-05
7.2093e-05
6.7017e-05
5.76692e-05
4.50807e-05
3.88423e-05
6.28587e-05
3.88424e-05
6.28514e-05
5.76734e-05
5.76935e-05
4.51076e-05
3.8851e-05
6.28751e-05
3.88499e-05
6.28738e-05
5.76934e-05
6.69934e-05
7.20869e-05
7.2084e-05
6.69942e-05
6.70137e-05
7.2095e-05
7.20922e-05
6.7008e-05
6.99368e-05
6.99425e-05
6.99371e-05
6.99439e-05
4.85123e-05
6.85574e-05
6.85534e-05
6.85581e-05
6.85558e-05
6.99433e-05
6.99374e-05
6.99458e-05
6.99393e-05
6.99254e-05
6.99311e-05
6.85278e-05
6.85423e-05
7.20888e-05
6.70223e-05
6.28557e-05
3.88452e-05
5.77033e-05
6.28624e-05
3.88499e-05
5.7684e-05
6.85553e-05
6.85658e-05
6.99379e-05
6.28661e-05
3.88521e-05
5.76935e-05
7.20721e-05
6.7016e-05
3.88488e-05
6.2854e-05
5.76887e-05
6.70197e-05
7.20919e-05
6.70271e-05
5.76965e-05
3.88623e-05
6.28748e-05
4.51179e-05
5.77101e-05
3.88619e-05
6.28862e-05
6.70178e-05
7.20861e-05
6.70175e-05
7.20878e-05
6.85399e-05
6.85427e-05
6.99333e-05
5.76958e-05
3.88541e-05
6.28684e-05
4.51146e-05
5.7686e-05
3.88556e-05
6.28828e-05
6.70055e-05
7.20864e-05
6.69992e-05
6.70198e-05
7.2094e-05
6.7012e-05
7.20967e-05
6.99382e-05
6.99443e-05
6.99409e-05
6.99472e-05
7.05891e-05
7.0322e-05
7.02179e-05
6.70292e-05
7.03204e-05
7.02163e-05
7.05917e-05
7.05181e-05
7.20759e-05
7.86295e-05
7.86293e-05
7.05092e-05
7.05095e-05
7.86272e-05
7.20746e-05
7.86273e-05
7.05185e-05
7.05919e-05
6.70334e-05
7.03211e-05
7.02184e-05
7.03227e-05
7.02196e-05
7.05893e-05
6.99387e-05
6.99336e-05
7.05909e-05
7.02292e-05
7.03208e-05
6.70233e-05
7.02278e-05
7.03193e-05
7.05934e-05
7.05278e-05
7.20912e-05
7.8649e-05
7.86532e-05
7.05184e-05
7.05193e-05
7.86596e-05
7.20902e-05
7.86572e-05
7.05285e-05
7.05938e-05
6.70266e-05
7.02292e-05
7.03202e-05
7.0231e-05
7.03216e-05
7.05913e-05
6.99328e-05
6.9928e-05
9.36911e-05
7.23693e-05
7.23628e-05
7.23608e-05
7.23541e-05
9.3689e-05
7.24523e-05
6.28401e-05
6.85566e-05
7.19194e-05
6.28387e-05
7.19217e-05
7.24567e-05
7.249e-05
6.28304e-05
6.85499e-05
7.19244e-05
6.2827e-05
7.19269e-05
7.24929e-05
7.24459e-05
7.1922e-05
6.85577e-05
6.28415e-05
6.28413e-05
7.19197e-05
7.2446e-05
7.24858e-05
7.1928e-05
6.85505e-05
6.28271e-05
6.28166e-05
7.19253e-05
7.2491e-05
9.36882e-05
7.23602e-05
7.23534e-05
7.23688e-05
7.23621e-05
9.36904e-05
7.05206e-05
7.86188e-05
7.2076e-05
7.05113e-05
7.86217e-05
7.05904e-05
6.70153e-05
7.03183e-05
7.02093e-05
7.05879e-05
7.032e-05
7.02101e-05
6.99431e-05
7.05287e-05
7.86602e-05
7.20919e-05
7.05199e-05
7.86607e-05
7.05922e-05
6.70169e-05
7.02203e-05
7.03176e-05
7.05896e-05
7.0221e-05
7.03194e-05
6.99361e-05
9.36946e-05
7.23711e-05
7.23652e-05
7.23627e-05
7.23567e-05
9.3692e-05
7.24497e-05
6.28514e-05
7.1921e-05
6.85541e-05
7.24485e-05
6.28524e-05
7.19233e-05
7.24918e-05
6.28229e-05
7.19291e-05
6.85589e-05
7.24942e-05
6.28258e-05
7.19317e-05
9.36918e-05
7.23623e-05
7.23562e-05
9.36942e-05
7.23708e-05
7.23648e-05
7.24531e-05
7.19238e-05
6.85525e-05
6.28447e-05
6.28414e-05
7.19214e-05
7.24536e-05
7.2502e-05
7.19327e-05
6.85599e-05
6.28387e-05
6.28225e-05
7.19302e-05
7.25035e-05
6.99274e-05
6.99223e-05
6.99348e-05
6.99297e-05
9.36779e-05
7.23571e-05
7.23509e-05
7.23483e-05
7.23422e-05
9.36756e-05
7.24327e-05
6.2822e-05
6.85267e-05
7.19036e-05
7.19057e-05
6.28054e-05
7.24403e-05
7.24793e-05
6.28259e-05
6.85507e-05
7.19154e-05
7.19176e-05
6.28291e-05
7.24827e-05
7.24376e-05
7.19061e-05
6.85277e-05
6.28078e-05
7.19037e-05
7.2436e-05
6.28034e-05
7.2476e-05
7.19179e-05
6.85507e-05
6.2826e-05
7.19155e-05
7.24832e-05
6.28186e-05
9.36752e-05
7.23476e-05
7.23415e-05
7.23563e-05
7.23502e-05
9.36779e-05
6.99242e-05
6.99288e-05
6.99306e-05
6.99356e-05
9.36762e-05
7.23491e-05
7.23429e-05
9.36785e-05
7.2358e-05
7.23517e-05
7.24424e-05
6.28016e-05
6.85322e-05
7.19081e-05
7.19054e-05
6.27957e-05
7.24412e-05
7.2487e-05
6.28099e-05
6.85462e-05
7.19191e-05
7.19168e-05
6.28174e-05
7.24819e-05
7.24317e-05
7.19043e-05
6.28057e-05
6.85258e-05
7.24365e-05
7.19069e-05
6.28068e-05
7.2486e-05
7.19161e-05
6.28225e-05
6.85459e-05
7.24853e-05
7.19186e-05
6.2822e-05
9.36794e-05
7.23589e-05
7.23525e-05
7.235e-05
7.23438e-05
9.36772e-05
7.05916e-05
7.03226e-05
7.022e-05
6.70288e-05
7.0321e-05
7.02183e-05
7.05943e-05
7.05294e-05
7.20868e-05
7.86408e-05
7.86417e-05
7.05204e-05
7.05208e-05
7.8642e-05
7.20858e-05
7.86409e-05
7.05298e-05
7.05944e-05
6.70317e-05
7.03216e-05
7.02203e-05
7.03232e-05
7.02217e-05
7.05918e-05
7.05914e-05
7.03197e-05
7.02148e-05
6.7026e-05
7.05888e-05
7.03213e-05
7.02167e-05
7.05105e-05
7.20752e-05
7.86219e-05
7.05197e-05
7.86217e-05
7.0519e-05
7.86245e-05
7.20763e-05
7.05099e-05
7.86245e-05
7.05884e-05
6.70165e-05
7.03206e-05
7.0214e-05
7.05909e-05
7.0319e-05
7.02128e-05
7.05943e-05
7.03204e-05
7.0217e-05
6.70269e-05
7.05916e-05
7.03221e-05
7.02194e-05
7.05216e-05
7.20877e-05
7.86437e-05
7.86424e-05
7.05306e-05
7.05302e-05
7.86414e-05
7.20885e-05
7.05212e-05
7.86428e-05
7.05916e-05
6.70239e-05
7.03217e-05
7.02197e-05
7.032e-05
7.02171e-05
7.05943e-05
9.36823e-05
7.23589e-05
7.23646e-05
7.23501e-05
7.23561e-05
9.36793e-05
7.24823e-05
6.28241e-05
6.85472e-05
7.19201e-05
7.19225e-05
6.28177e-05
7.24777e-05
7.24482e-05
6.28453e-05
6.85602e-05
7.19173e-05
6.28455e-05
7.19197e-05
7.24493e-05
7.24843e-05
7.19232e-05
6.85487e-05
6.28323e-05
7.19208e-05
6.28291e-05
7.24823e-05
7.2449e-05
7.19203e-05
6.85609e-05
6.28455e-05
6.28419e-05
7.19179e-05
7.24423e-05
9.36798e-05
7.23496e-05
7.23558e-05
7.23583e-05
7.23643e-05
9.36827e-05
6.9941e-05
6.99361e-05
6.99358e-05
6.99408e-05
9.36793e-05
7.23507e-05
7.23565e-05
9.36821e-05
7.23595e-05
7.2365e-05
7.24883e-05
6.28289e-05
6.85488e-05
7.19254e-05
6.28296e-05
7.19227e-05
7.24859e-05
7.24477e-05
6.28375e-05
6.85604e-05
7.19213e-05
7.19189e-05
6.2839e-05
7.24469e-05
7.24869e-05
7.19216e-05
6.28291e-05
6.85498e-05
6.28217e-05
7.24859e-05
7.19243e-05
7.24417e-05
7.19184e-05
6.28469e-05
6.85599e-05
7.24474e-05
7.19208e-05
6.28496e-05
9.36822e-05
7.23601e-05
7.23655e-05
7.23513e-05
7.23569e-05
9.36795e-05
6.99373e-05
6.99423e-05
7.05863e-05
7.0321e-05
7.02119e-05
6.7019e-05
7.03195e-05
7.02118e-05
7.05887e-05
7.05184e-05
7.20742e-05
7.86196e-05
7.86194e-05
7.05097e-05
7.05095e-05
7.86157e-05
7.20712e-05
7.86162e-05
7.05183e-05
7.05894e-05
6.70281e-05
7.03203e-05
7.0216e-05
7.03218e-05
7.02164e-05
7.05869e-05
7.05929e-05
7.02257e-05
7.03185e-05
6.70217e-05
7.05904e-05
7.0227e-05
7.03201e-05
7.052e-05
7.20904e-05
7.86613e-05
7.05288e-05
7.86605e-05
7.05287e-05
7.86597e-05
7.20917e-05
7.05198e-05
7.86611e-05
7.059e-05
6.70189e-05
7.02244e-05
7.03197e-05
7.05925e-05
7.02233e-05
7.0318e-05
7.05882e-05
7.03188e-05
7.02073e-05
6.70213e-05
7.05857e-05
7.03204e-05
7.02077e-05
7.05094e-05
7.2071e-05
7.86094e-05
7.86093e-05
7.05183e-05
7.05182e-05
7.86125e-05
7.20719e-05
7.05094e-05
7.86122e-05
7.05852e-05
6.70185e-05
7.032e-05
7.02037e-05
7.03183e-05
7.02033e-05
7.05878e-05
7.05974e-05
7.02183e-05
7.03311e-05
6.70323e-05
7.02148e-05
7.03292e-05
7.06007e-05
7.05262e-05
7.20909e-05
7.86281e-05
7.86337e-05
7.05163e-05
7.05168e-05
7.86347e-05
7.20899e-05
7.86339e-05
7.05264e-05
7.05998e-05
6.70335e-05
7.02051e-05
7.03294e-05
7.02137e-05
7.03313e-05
7.05961e-05
7.05905e-05
7.03277e-05
7.02186e-05
6.70322e-05
7.03261e-05
7.02182e-05
7.05929e-05
7.05245e-05
7.2088e-05
7.86257e-05
7.86261e-05
7.05162e-05
7.05152e-05
7.86252e-05
7.20865e-05
7.86248e-05
7.05237e-05
7.05935e-05
6.7038e-05
7.03266e-05
7.02223e-05
7.03283e-05
7.02226e-05
7.05911e-05
7.06011e-05
7.02176e-05
7.03289e-05
6.70317e-05
7.05979e-05
7.02198e-05
7.03307e-05
7.05167e-05
7.20913e-05
7.86359e-05
7.86351e-05
7.05261e-05
7.05262e-05
7.86349e-05
7.20923e-05
7.05168e-05
7.86328e-05
7.05981e-05
6.70296e-05
7.02199e-05
7.03303e-05
7.02182e-05
7.03285e-05
7.06011e-05
7.05922e-05
7.03255e-05
7.02147e-05
6.70303e-05
7.05898e-05
7.03271e-05
7.02157e-05
7.0514e-05
7.2086e-05
7.86231e-05
7.86208e-05
7.05226e-05
7.05231e-05
7.86242e-05
7.20874e-05
7.05146e-05
7.86249e-05
7.05892e-05
6.70274e-05
7.03265e-05
7.02137e-05
7.03249e-05
7.02122e-05
7.05916e-05
9.36517e-05
7.23513e-05
7.23578e-05
7.23427e-05
7.23493e-05
9.36491e-05
7.24605e-05
6.28085e-05
6.85376e-05
7.19106e-05
7.19129e-05
6.28113e-05
7.24599e-05
7.23985e-05
6.27943e-05
6.85398e-05
7.19056e-05
6.27869e-05
7.19076e-05
7.24003e-05
7.24613e-05
7.19136e-05
6.85364e-05
6.28078e-05
7.19112e-05
6.28055e-05
7.24547e-05
7.23989e-05
7.19077e-05
6.85444e-05
6.27992e-05
6.27956e-05
7.19056e-05
7.23937e-05
9.36488e-05
7.2342e-05
7.23488e-05
7.23506e-05
7.23573e-05
9.36513e-05
6.99374e-05
6.99323e-05
6.99296e-05
6.99344e-05
9.36497e-05
7.23434e-05
7.23498e-05
9.3652e-05
7.23521e-05
7.23584e-05
7.24607e-05
6.27991e-05
6.85404e-05
7.19151e-05
6.27967e-05
7.19127e-05
7.24612e-05
7.23942e-05
6.27834e-05
6.85421e-05
7.19082e-05
7.19059e-05
6.27912e-05
7.23937e-05
7.24585e-05
7.1912e-05
6.28045e-05
6.854e-05
6.28071e-05
7.24603e-05
7.19144e-05
7.23922e-05
7.19056e-05
6.27964e-05
6.85416e-05
7.23869e-05
7.19078e-05
6.27958e-05
9.3653e-05
7.23529e-05
7.2359e-05
7.23441e-05
7.23504e-05
9.36509e-05
6.99329e-05
6.9938e-05
7.05904e-05
7.01989e-05
7.03212e-05
6.70004e-05
7.01984e-05
7.03189e-05
7.05933e-05
7.05221e-05
7.20847e-05
7.86245e-05
7.86246e-05
7.05131e-05
7.05136e-05
7.86216e-05
7.20835e-05
7.86218e-05
7.05227e-05
7.05932e-05
6.70036e-05
7.02027e-05
7.03184e-05
7.02029e-05
7.03206e-05
7.05904e-05
7.05926e-05
7.02247e-05
7.03214e-05
6.70158e-05
7.02229e-05
7.03191e-05
7.05956e-05
7.05302e-05
7.20922e-05
7.86371e-05
7.86365e-05
7.05209e-05
7.05217e-05
7.86396e-05
7.20912e-05
7.86374e-05
7.05309e-05
7.05954e-05
6.70178e-05
7.02237e-05
7.03188e-05
7.02253e-05
7.0321e-05
7.05924e-05
7.05936e-05
7.01949e-05
7.03195e-05
6.69976e-05
7.05907e-05
7.01959e-05
7.03219e-05
7.05155e-05
7.20849e-05
7.86183e-05
7.86185e-05
7.05249e-05
7.05236e-05
7.86176e-05
7.20857e-05
7.05144e-05
7.86193e-05
7.05912e-05
6.6995e-05
7.01941e-05
7.03228e-05
7.01925e-05
7.03203e-05
7.05943e-05
7.05958e-05
7.02224e-05
7.03194e-05
6.70142e-05
7.05928e-05
7.02244e-05
7.03217e-05
7.05228e-05
7.20932e-05
7.86482e-05
7.86468e-05
7.05318e-05
7.05315e-05
7.86435e-05
7.20941e-05
7.05224e-05
7.86462e-05
7.0593e-05
6.70101e-05
7.02245e-05
7.0322e-05
7.02222e-05
7.03197e-05
7.0596e-05
6.99422e-05
6.99371e-05
6.99428e-05
6.99381e-05
9.36899e-05
7.23613e-05
7.23548e-05
9.36921e-05
7.23698e-05
7.23635e-05
7.24485e-05
6.28528e-05
6.85571e-05
7.19229e-05
7.24528e-05
6.28397e-05
7.19205e-05
7.24904e-05
6.2827e-05
6.85549e-05
7.19305e-05
7.24887e-05
6.28335e-05
7.19279e-05
7.24443e-05
7.19201e-05
6.28458e-05
6.85554e-05
7.24498e-05
6.28464e-05
7.19223e-05
7.24829e-05
7.19266e-05
6.28296e-05
6.85523e-05
7.24891e-05
6.28337e-05
7.19293e-05
9.36931e-05
7.23703e-05
7.23642e-05
9.36912e-05
7.23618e-05
7.23555e-05
6.99378e-05
6.99428e-05
6.99402e-05
6.9945e-05
6.99314e-05
6.99367e-05
7.24345e-05
6.27968e-05
7.19065e-05
6.85306e-05
7.2443e-05
7.19091e-05
6.28108e-05
7.24713e-05
6.2818e-05
7.19173e-05
6.85383e-05
7.24794e-05
7.19197e-05
6.2823e-05
9.36777e-05
7.2351e-05
7.23446e-05
9.36801e-05
7.23599e-05
7.23534e-05
7.0531e-05
7.86434e-05
7.20906e-05
7.0522e-05
7.86448e-05
7.05944e-05
6.70228e-05
7.03197e-05
7.02179e-05
7.03214e-05
7.05916e-05
7.02208e-05
7.24903e-05
6.28317e-05
7.19238e-05
6.85545e-05
7.19266e-05
7.24838e-05
6.2833e-05
7.2444e-05
6.28367e-05
7.19194e-05
6.85642e-05
6.28346e-05
7.24479e-05
7.19217e-05
9.36796e-05
7.23519e-05
7.23573e-05
7.23607e-05
9.36823e-05
7.23659e-05
7.05189e-05
7.8608e-05
7.20734e-05
7.05098e-05
7.86083e-05
7.05876e-05
6.70163e-05
7.03179e-05
7.01993e-05
7.03197e-05
7.0585e-05
7.01997e-05
7.0598e-05
6.70172e-05
7.03291e-05
7.02173e-05
7.03274e-05
7.05258e-05
7.86337e-05
7.20934e-05
7.86333e-05
7.05165e-05
7.0601e-05
6.7027e-05
7.0218e-05
7.0328e-05
7.02195e-05
7.05981e-05
7.03298e-05
7.05163e-05
7.05879e-05
6.70175e-05
7.0325e-05
7.02079e-05
7.03234e-05
7.02072e-05
7.05904e-05
7.05221e-05
7.86191e-05
7.20876e-05
7.05135e-05
7.86211e-05
7.0591e-05
6.70204e-05
7.03241e-05
7.02101e-05
7.05886e-05
7.03256e-05
7.02111e-05
7.0513e-05
7.86184e-05
7.20864e-05
7.86169e-05
7.05217e-05
7.24549e-05
6.27917e-05
7.19134e-05
6.85388e-05
7.19158e-05
7.24602e-05
6.28042e-05
7.23997e-05
6.2792e-05
7.19064e-05
6.85376e-05
6.27962e-05
7.23945e-05
7.19087e-05
9.36523e-05
7.2345e-05
7.23511e-05
7.23537e-05
9.36544e-05
7.23596e-05
6.99387e-05
7.05929e-05
6.70029e-05
7.02005e-05
7.03244e-05
7.01929e-05
7.03221e-05
7.05963e-05
7.05265e-05
7.86176e-05
7.20886e-05
7.86219e-05
7.05169e-05
7.05952e-05
6.70032e-05
7.01918e-05
7.03212e-05
7.01937e-05
7.05919e-05
7.03237e-05
7.05185e-05
7.86259e-05
7.86242e-05
7.05281e-05
7.05933e-05
6.70174e-05
7.02271e-05
7.03226e-05
7.0224e-05
7.03204e-05
7.05962e-05
7.05319e-05
7.86482e-05
7.20958e-05
7.0523e-05
7.86495e-05
7.05962e-05
6.70168e-05
7.02228e-05
7.03201e-05
7.05932e-05
7.02255e-05
7.03224e-05
7.0523e-05
7.86504e-05
7.20949e-05
7.86493e-05
7.05319e-05
6.99437e-05
6.99387e-05
6.99466e-05
6.99417e-05
2.1804e-05
2.18026e-05
2.96849e-05
2.18103e-05
2.18065e-05
1.37637e-05
1.37626e-05
6.33415e-05
5.57764e-05
5.57581e-05
4.84864e-05
5.575e-05
5.57526e-05
6.3329e-05
2.18169e-05
2.18142e-05
1.37703e-05
1.37724e-05
6.33423e-05
5.57707e-05
5.57737e-05
4.84837e-05
6.33447e-05
5.57681e-05
5.57671e-05
6.33253e-05
5.57606e-05
5.57773e-05
4.84697e-05
5.57532e-05
5.5773e-05
6.33363e-05
6.33286e-05
4.84974e-05
5.57463e-05
5.57135e-05
5.57498e-05
5.57204e-05
6.33261e-05
6.33187e-05
5.57654e-05
5.57749e-05
4.84677e-05
5.57685e-05
5.57588e-05
6.33287e-05
6.33301e-05
4.84973e-05
5.57716e-05
5.57846e-05
5.57761e-05
5.57899e-05
6.33217e-05
6.32791e-05
5.57276e-05
5.57087e-05
4.84305e-05
5.57036e-05
5.57177e-05
6.32766e-05
6.32889e-05
4.84238e-05
5.56943e-05
5.56865e-05
5.57032e-05
5.5711e-05
6.32888e-05
6.33421e-05
4.85114e-05
5.57532e-05
5.576e-05
6.33399e-05
5.57576e-05
5.57671e-05
6.33238e-05
5.57314e-05
5.57306e-05
4.84419e-05
6.33252e-05
5.57271e-05
5.5729e-05
6.33291e-05
5.57569e-05
5.57694e-05
4.84785e-05
5.57617e-05
6.3338e-05
5.57513e-05
6.32735e-05
5.57125e-05
5.57021e-05
4.84052e-05
5.5701e-05
6.32845e-05
5.57105e-05
2.17884e-05
2.17903e-05
2.96708e-05
2.17931e-05
2.17965e-05
1.37504e-05
1.37481e-05
2.17914e-05
2.1784e-05
2.96665e-05
2.17989e-05
2.17918e-05
1.37513e-05
1.37491e-05
2.17945e-05
2.17839e-05
2.96787e-05
2.17992e-05
2.17892e-05
1.37468e-05
1.3744e-05
2.96853e-05
2.18149e-05
2.18117e-05
2.18116e-05
2.18099e-05
1.37673e-05
1.37698e-05
2.96711e-05
2.17972e-05
2.18006e-05
2.17964e-05
2.17986e-05
1.37524e-05
1.37568e-05
2.96688e-05
2.18027e-05
2.17961e-05
2.1801e-05
2.17924e-05
1.37528e-05
1.37594e-05
2.96801e-05
2.18055e-05
2.17939e-05
2.18032e-05
2.17913e-05
1.37504e-05
1.37535e-05
5.19668e-05
5.96486e-05
5.03609e-05
5.7711e-05
5.96449e-05
5.03949e-05
5.19421e-05
5.35303e-05
5.72373e-05
6.28724e-05
6.18658e-05
5.72318e-05
6.18813e-05
5.3543e-05
5.35516e-05
6.18876e-05
6.28702e-05
5.72328e-05
5.72379e-05
6.18838e-05
5.35384e-05
5.19429e-05
5.77084e-05
5.96392e-05
5.03867e-05
5.96461e-05
5.03672e-05
5.19629e-05
5.19616e-05
5.03712e-05
5.95976e-05
5.76724e-05
5.03954e-05
5.9596e-05
5.19234e-05
5.35259e-05
5.72021e-05
6.28643e-05
6.1887e-05
5.71965e-05
6.18859e-05
5.35405e-05
5.35444e-05
6.18757e-05
6.28605e-05
5.71972e-05
5.72024e-05
6.18715e-05
5.35304e-05
5.19088e-05
5.76759e-05
5.03938e-05
5.96014e-05
5.03694e-05
5.96026e-05
5.19628e-05
6.33349e-05
4.85104e-05
5.5762e-05
5.57528e-05
5.57638e-05
5.57636e-05
6.33425e-05
2.18026e-05
2.18038e-05
2.18086e-05
1.376e-05
1.3758e-05
2.18086e-05
2.17992e-05
2.1802e-05
1.376e-05
1.3757e-05
2.18073e-05
2.17946e-05
2.96891e-05
2.18119e-05
2.17994e-05
1.37563e-05
1.37558e-05
5.19663e-05
5.77066e-05
5.96364e-05
5.03442e-05
5.96357e-05
5.03939e-05
5.19419e-05
5.35557e-05
5.72435e-05
6.18747e-05
6.28873e-05
5.357e-05
5.72385e-05
6.18845e-05
5.19426e-05
5.77131e-05
5.96428e-05
5.03938e-05
5.19633e-05
5.96454e-05
5.03778e-05
5.19685e-05
5.76708e-05
5.03807e-05
5.95823e-05
5.03947e-05
5.95798e-05
5.19495e-05
5.35217e-05
5.72038e-05
6.18734e-05
6.28628e-05
5.35379e-05
5.71979e-05
6.18769e-05
5.19422e-05
5.76729e-05
5.03929e-05
5.9584e-05
5.19632e-05
5.03781e-05
5.95782e-05
5.35169e-05
6.18715e-05
6.18672e-05
5.35003e-05
6.33471e-05
4.8515e-05
5.57503e-05
5.5777e-05
5.5754e-05
5.57807e-05
6.33395e-05
6.33372e-05
4.85008e-05
5.57612e-05
5.5752e-05
6.33378e-05
5.57658e-05
5.57583e-05
6.33319e-05
4.84683e-05
5.57464e-05
5.57365e-05
6.33332e-05
5.57375e-05
5.57329e-05
5.19078e-05
5.96039e-05
5.03594e-05
5.77122e-05
5.96051e-05
5.03733e-05
5.18823e-05
5.34786e-05
5.71824e-05
6.28393e-05
6.18666e-05
6.1866e-05
5.71757e-05
5.34915e-05
5.3499e-05
6.18653e-05
6.28454e-05
5.71754e-05
6.18638e-05
5.71809e-05
5.34863e-05
5.18802e-05
5.77136e-05
5.9613e-05
5.03708e-05
5.96003e-05
5.0356e-05
5.19115e-05
5.1928e-05
5.96092e-05
5.03608e-05
5.77018e-05
5.96062e-05
5.03769e-05
5.19035e-05
5.35061e-05
5.71745e-05
6.28546e-05
6.18837e-05
6.1886e-05
5.71688e-05
5.35206e-05
5.35249e-05
6.1877e-05
6.28464e-05
5.71675e-05
6.18751e-05
5.35125e-05
5.71743e-05
5.18964e-05
5.77056e-05
5.9624e-05
5.03754e-05
5.96231e-05
5.03594e-05
5.19297e-05
5.18917e-05
5.96053e-05
5.03503e-05
5.77072e-05
5.19155e-05
5.96151e-05
5.03292e-05
5.35164e-05
5.71693e-05
6.28517e-05
6.18649e-05
5.71822e-05
6.1871e-05
5.35034e-05
5.34948e-05
6.18557e-05
5.71815e-05
6.28446e-05
5.71764e-05
5.35072e-05
6.18708e-05
5.19194e-05
5.77041e-05
5.96412e-05
5.03325e-05
5.96307e-05
5.03487e-05
5.19012e-05
5.19155e-05
5.95944e-05
5.0378e-05
5.76911e-05
5.19354e-05
5.96076e-05
5.03614e-05
5.35385e-05
5.71509e-05
6.28597e-05
6.18801e-05
6.18843e-05
5.71679e-05
5.3526e-05
5.35178e-05
6.18695e-05
5.71722e-05
6.28493e-05
5.35299e-05
6.18825e-05
5.71634e-05
5.19427e-05
5.76822e-05
5.96085e-05
5.03599e-05
5.96056e-05
5.03771e-05
5.19213e-05
6.33312e-05
4.84916e-05
5.57657e-05
5.57743e-05
5.57809e-05
5.57722e-05
6.33306e-05
6.33302e-05
4.84731e-05
5.57774e-05
5.57857e-05
5.57662e-05
6.33334e-05
5.57791e-05
5.19506e-05
5.96722e-05
5.03717e-05
5.77172e-05
5.96688e-05
5.03989e-05
5.19184e-05
5.35261e-05
5.71962e-05
6.28843e-05
6.19215e-05
6.19225e-05
5.7191e-05
5.35393e-05
5.35455e-05
6.19197e-05
6.28822e-05
5.71927e-05
6.19195e-05
5.71974e-05
5.35321e-05
5.19241e-05
5.77216e-05
5.9667e-05
5.03955e-05
5.96714e-05
5.03716e-05
5.19436e-05
5.19461e-05
5.03782e-05
5.96513e-05
5.77209e-05
5.03959e-05
5.96515e-05
5.19156e-05
5.35169e-05
5.72194e-05
6.28606e-05
6.18949e-05
6.18961e-05
5.72123e-05
5.35294e-05
5.35366e-05
6.18873e-05
6.28523e-05
5.71974e-05
6.18827e-05
5.35227e-05
5.72164e-05
5.19426e-05
5.77272e-05
5.03942e-05
5.96545e-05
5.03785e-05
5.96619e-05
5.19703e-05
5.19385e-05
5.96691e-05
5.03998e-05
5.77153e-05
5.19626e-05
5.96721e-05
5.03756e-05
5.35596e-05
5.71975e-05
6.28676e-05
6.19197e-05
5.72021e-05
6.19184e-05
5.35463e-05
5.35396e-05
6.19181e-05
5.71997e-05
6.28671e-05
5.71952e-05
5.35529e-05
6.19194e-05
5.19702e-05
5.77122e-05
5.96708e-05
5.03786e-05
5.96684e-05
5.04007e-05
5.19506e-05
5.19214e-05
5.04004e-05
5.9645e-05
5.77162e-05
5.19422e-05
5.0375e-05
5.96454e-05
5.35342e-05
5.7163e-05
6.28467e-05
6.18857e-05
6.18847e-05
5.71671e-05
5.35199e-05
5.35151e-05
6.18857e-05
5.71682e-05
6.28477e-05
5.35365e-05
6.18864e-05
5.71602e-05
5.19471e-05
5.77104e-05
5.03739e-05
5.96401e-05
5.03987e-05
5.96393e-05
5.1924e-05
5.19524e-05
5.03834e-05
5.96018e-05
5.7704e-05
5.04024e-05
5.96101e-05
5.19307e-05
5.3548e-05
5.72463e-05
6.28708e-05
6.18853e-05
5.72409e-05
6.18852e-05
5.3567e-05
5.35407e-05
6.18744e-05
6.28712e-05
5.72407e-05
5.72465e-05
6.18726e-05
5.35235e-05
5.19298e-05
5.77192e-05
5.04025e-05
5.96136e-05
5.03805e-05
5.96193e-05
5.19536e-05
5.19256e-05
5.96452e-05
5.03932e-05
5.77182e-05
5.19635e-05
5.96472e-05
5.03721e-05
5.35649e-05
5.72369e-05
6.28769e-05
6.18825e-05
5.35517e-05
5.72417e-05
6.18803e-05
5.35452e-05
6.18881e-05
5.72396e-05
6.28772e-05
5.35588e-05
5.7235e-05
6.18899e-05
5.19646e-05
5.7716e-05
5.96462e-05
5.03774e-05
5.19403e-05
5.96437e-05
5.03945e-05
5.1913e-05
5.03875e-05
5.96089e-05
5.77147e-05
5.19531e-05
5.03661e-05
5.96087e-05
5.35492e-05
5.72426e-05
6.2865e-05
6.18879e-05
6.18817e-05
5.72474e-05
5.35295e-05
5.35282e-05
6.18707e-05
5.72465e-05
6.28709e-05
5.35408e-05
6.18695e-05
5.72412e-05
5.19281e-05
5.77126e-05
5.03732e-05
5.96217e-05
5.0392e-05
5.96109e-05
5.19037e-05
6.32827e-05
4.84306e-05
5.57045e-05
5.57004e-05
5.5712e-05
5.57328e-05
6.32819e-05
6.32843e-05
4.83977e-05
5.57163e-05
5.571e-05
5.5714e-05
6.32851e-05
5.56867e-05
5.19855e-05
5.03853e-05
5.96467e-05
5.77119e-05
5.04103e-05
5.96467e-05
5.19604e-05
5.35735e-05
5.7231e-05
6.2869e-05
6.18915e-05
5.72229e-05
6.18938e-05
5.35863e-05
5.35874e-05
6.18989e-05
6.28688e-05
5.72183e-05
5.72268e-05
6.18855e-05
5.35763e-05
5.19601e-05
5.77161e-05
5.04086e-05
5.96531e-05
5.03864e-05
5.96534e-05
5.19869e-05
5.19295e-05
5.0394e-05
5.95888e-05
5.76597e-05
5.19631e-05
5.03643e-05
5.95912e-05
5.35541e-05
5.71983e-05
6.28482e-05
6.1872e-05
5.35443e-05
5.72036e-05
6.1866e-05
5.35355e-05
6.18696e-05
5.7203e-05
6.28532e-05
5.35492e-05
5.71978e-05
6.18706e-05
5.19652e-05
5.76665e-05
5.03741e-05
5.95856e-05
5.19403e-05
5.03931e-05
5.95758e-05
5.19618e-05
5.04063e-05
5.9639e-05
5.77007e-05
5.19837e-05
5.03827e-05
5.96394e-05
5.35427e-05
5.72028e-05
6.28708e-05
6.18877e-05
6.18976e-05
5.72159e-05
5.3527e-05
5.35504e-05
6.19005e-05
5.72222e-05
6.28779e-05
5.35692e-05
6.19032e-05
5.72124e-05
5.19878e-05
5.76933e-05
5.03817e-05
5.9629e-05
5.04059e-05
5.96224e-05
5.19539e-05
6.33375e-05
4.84819e-05
5.57541e-05
5.57634e-05
6.33412e-05
5.57335e-05
5.57581e-05
5.35101e-05
5.71709e-05
6.18741e-05
6.28572e-05
6.18785e-05
5.35247e-05
5.71565e-05
5.18855e-05
5.77051e-05
5.9643e-05
5.03546e-05
5.96487e-05
5.19307e-05
5.03423e-05
5.35371e-05
5.71948e-05
6.18898e-05
6.28672e-05
5.35488e-05
6.18957e-05
5.71973e-05
5.19261e-05
5.76914e-05
5.96234e-05
5.0377e-05
5.19508e-05
5.96367e-05
5.03631e-05
5.35514e-05
5.7204e-05
6.19076e-05
6.28687e-05
6.19139e-05
5.35654e-05
5.71991e-05
5.19502e-05
5.77006e-05
5.96592e-05
5.04017e-05
5.9659e-05
5.19734e-05
5.03784e-05
5.35248e-05
5.7171e-05
6.18796e-05
6.28541e-05
5.35358e-05
6.18801e-05
5.71673e-05
5.19261e-05
5.76946e-05
5.0399e-05
5.96332e-05
5.19471e-05
5.03751e-05
5.96335e-05
5.19437e-05
5.769e-05
5.0376e-05
5.96487e-05
5.0393e-05
5.96456e-05
5.19283e-05
5.35454e-05
5.72489e-05
6.18898e-05
6.28812e-05
5.72442e-05
5.35557e-05
6.18927e-05
5.1916e-05
5.77102e-05
5.0392e-05
5.96374e-05
5.03767e-05
5.19327e-05
5.96474e-05
5.35393e-05
6.18878e-05
6.28834e-05
5.72443e-05
5.725e-05
6.18875e-05
5.35228e-05
5.19522e-05
5.76888e-05
5.0354e-05
5.9641e-05
5.03988e-05
5.96133e-05
5.19264e-05
5.35092e-05
5.72113e-05
6.18924e-05
6.28747e-05
5.72079e-05
5.35207e-05
6.1896e-05
5.19237e-05
5.76793e-05
5.04052e-05
5.9624e-05
5.03823e-05
5.19557e-05
5.962e-05
5.3504e-05
6.18999e-05
6.28804e-05
5.7219e-05
5.72212e-05
6.18938e-05
5.34967e-05
3.64636e-05
4.18027e-05
3.64582e-05
7.13263e-05
6.02597e-05
6.94795e-05
6.69572e-05
6.69554e-05
6.94793e-05
6.02631e-05
7.13293e-05
7.01324e-05
7.13132e-05
7.74637e-05
7.74414e-05
7.01442e-05
6.94694e-05
7.01796e-05
5.9427e-05
6.69409e-05
7.1124e-05
5.93704e-05
7.11075e-05
7.02064e-05
7.01301e-05
5.94198e-05
6.694e-05
7.11151e-05
7.11016e-05
5.9366e-05
7.01538e-05
9.24046e-05
7.1988e-05
7.1994e-05
7.19759e-05
7.19818e-05
9.24146e-05
6.94692e-05
7.01352e-05
7.13189e-05
7.74743e-05
7.74533e-05
7.01479e-05
5.96212e-05
4.1765e-05
5.05827e-05
5.05793e-05
5.05349e-05
5.05391e-05
5.96574e-05
4.80833e-05
5.25933e-05
6.02123e-05
5.85986e-05
5.85363e-05
5.25459e-05
4.81213e-05
4.80975e-05
5.25864e-05
6.02188e-05
5.86048e-05
5.25528e-05
5.85465e-05
4.81116e-05
2.10082e-05
3.67044e-05
3.6707e-05
4.19784e-05
2.17493e-05
3.76174e-05
3.76188e-05
4.2674e-05
2.24985e-05
3.84983e-05
3.8499e-05
4.33617e-05
2.32461e-05
3.93396e-05
3.934e-05
4.39907e-05
2.39819e-05
4.01323e-05
4.01331e-05
4.45886e-05
2.46953e-05
4.08677e-05
4.08692e-05
4.51145e-05
2.5376e-05
4.15373e-05
4.15421e-05
4.55997e-05
2.60152e-05
4.21402e-05
4.21484e-05
4.60411e-05
2.66073e-05
4.26801e-05
4.26896e-05
4.64843e-05
2.71462e-05
4.31566e-05
4.31627e-05
4.68711e-05
2.76275e-05
4.35692e-05
4.35659e-05
4.71954e-05
2.80505e-05
4.39159e-05
4.39091e-05
4.74839e-05
2.84161e-05
4.41995e-05
4.41974e-05
4.77134e-05
2.87249e-05
4.44314e-05
4.44353e-05
4.78958e-05
2.89786e-05
4.46238e-05
4.46286e-05
4.80488e-05
2.91811e-05
4.47767e-05
4.47798e-05
4.81784e-05
2.93369e-05
4.48914e-05
4.48983e-05
4.82898e-05
2.94543e-05
4.49778e-05
4.49885e-05
4.83761e-05
2.95391e-05
4.50472e-05
4.50506e-05
4.84111e-05
2.95939e-05
4.50885e-05
4.50855e-05
4.84542e-05
2.96276e-05
4.51068e-05
4.50998e-05
4.84838e-05
2.96428e-05
4.51108e-05
4.50968e-05
4.84963e-05
2.96501e-05
4.5105e-05
4.50933e-05
4.85053e-05
2.96566e-05