/*--------------------------------*- C++ -*----------------------------------*\
| =========                 |                                                 |
| \\      /  F ield         | OpenFOAM: The Open Source CFD Toolbox           |
|  \\    /   O peration     | Version:  2312                                  |
|   \\  /    A nd           | Website:  www.openfoam.com                      |
|    \\/     M anipulation  |                                                 |
\*---------------------------------------------------------------------------*/
FoamFile
{
    version     2.0;
    format      ascii;
    arch        "LSB;label=32;scalar=64";
    class       surfaceScalarField;
    location    "250";
    object      phi;
}
// * * * * * * * * * * * * * * * * * * * * * * * * * * * * * * * * * * * * * //

dimensions      [0 3 -1 0 0 0 0];

oriented        oriented;

internalField   nonuniform List<scalar> 
125567
(
-5.54055e-08
-4.30993e-10
-0.000227964
1.65078e-09
2.38614e-08
-6.8379e-09
-1.77712e-08
-9.71199e-05
1.23266e-06
-5.68451e-09
2.49774e-07
-2.51021e-07
-1.22552e-06
2.66668e-07
-2.63575e-07
-0.00113579
-3.7682e-09
-8.9081e-07
8.93156e-07
1.82444e-08
3.53444e-08
-0.000244109
-8.84633e-08
-1.35074e-08
-1.84054e-09
-0.0002494
1.95971e-09
-1.73162e-07
-2.60118e-09
-7.8354e-09
-9.84857e-07
8.08317e-07
-8.04057e-07
9.89449e-07
-0.00115801
-5.53768e-08
-0.000227925
2.38805e-08
1.17372e-09
-3.54778e-08
2.3651e-09
-0.000191981
-0.000249374
-1.731e-07
1.83951e-09
1.85335e-09
1.26419e-06
-9.59253e-09
-8.96408e-07
2.49446e-07
8.98422e-07
-2.51294e-07
-1.25976e-06
2.69176e-07
-2.6925e-07
-0.00113528
-1.38799e-08
-9.84846e-07
8.08252e-07
-8.04012e-07
9.89445e-07
-0.00115795
1.95699e-08
-1.2669e-08
-0.000244001
-8.83358e-08
-0.00026842
2.30738e-07
2.3562e-07
9.22315e-09
-0.000276147
-3.70715e-08
1.68799e-08
1.10281e-08
-0.000276285
-3.88242e-08
-7.54863e-09
-9.7144e-05
-0.000192043
1.51533e-09
2.28166e-08
-1.00139e-09
0.000142145
-3.96147e-10
-0.000142167
-3.61659e-10
-2.26173e-08
-2.30092e-10
5.27821e-08
-0.000227994
-0.000221922
2.35638e-08
3.67366e-09
-5.79556e-08
-0.000169634
3.01779e-10
-2.47812e-10
-7.81726e-10
5.54866e-08
-0.000221954
-2.68269e-10
-0.000169657
2.14068e-09
2.38519e-08
7.85619e-05
-7.85862e-05
-0.000261254
2.22841e-08
-5.1272e-08
5.06257e-08
-0.000261287
6.1996e-09
1.74739e-08
-9.71436e-05
-6.02978e-10
2.24617e-08
0.000142073
-6.0643e-10
-0.000142094
-2.25056e-08
-5.98182e-10
5.26664e-08
-0.000227955
-0.0001696
2.41893e-11
-0.000221824
2.37617e-08
3.17258e-09
-5.57003e-08
-0.000169623
-1.17052e-09
5.2789e-08
-0.000221854
1.85649e-09
2.33396e-08
7.85165e-05
-7.85404e-05
-0.000261129
2.27217e-08
-4.91677e-08
-5.14196e-09
3.63452e-08
-0.000192006
4.7927e-08
-0.00026116
-1.02835e-08
-1.14841e-08
0.000212221
2.17362e-08
1.86497e-08
-0.00021224
-7.98719e-05
-1.17032e-08
-1.1585e-08
-7.98961e-05
-1.03575e-08
-1.29138e-08
1.24961e-08
-7.98947e-05
1.13012e-08
-7.99189e-05
-2.14123e-08
-2.05351e-08
-2.47288e-08
2.81878e-08
0.00022059
4.65105e-08
-0.000220618
-0.000181577
-2.6153e-08
-1.03346e-08
3.61499e-08
1.94324e-08
-0.000276175
-0.000249558
2.74582e-08
-4.44249e-08
-8.72007e-08
-0.0001816
4.62387e-08
8.48916e-08
-0.000249625
-4.93857e-08
2.73096e-08
-2.52954e-08
0.00022068
4.90875e-08
-0.000220712
-0.000181662
-2.55209e-08
3.87958e-08
-8.62475e-09
-1.8425e-08
1.59573e-08
-0.000276313
-0.000249734
2.86183e-08
-4.2892e-08
-8.69259e-08
4.27626e-08
8.51036e-08
-0.000249796
-0.000181685
-5.09409e-08
5.50315e-09
-9.71679e-05
3.65477e-08
-0.000192068
-6.00815e-09
3.29667e-09
-0.00122342
-1.16354e-08
-3.8021e-09
-0.00119121
-2.92061e-08
-0.00122255
-2.95676e-08
8.96417e-08
-0.000244157
1.04558e-08
-0.000259759
-1.98427e-08
-0.000259897
1.91458e-08
-1.88353e-07
6.37323e-09
0.000265624
-2.0212e-08
-0.000266407
-2.5716e-09
1.69085e-07
1.7176e-10
-0.000249514
-0.000248677
-1.9272e-07
6.71101e-09
-0.000265943
2.90227e-09
-6.58905e-09
-5.03947e-09
-0.000248807
3.92715e-09
-0.000266576
1.96448e-08
-1.68677e-07
0.000263703
-0.000264426
-0.000249624
-1.7074e-07
-0.000249734
2.54118e-09
-1.85646e-07
0.000265557
-7.47105e-09
-0.000266351
1.68973e-07
-1.97966e-09
-0.000249488
-0.000265926
1.43665e-09
-0.000248592
-1.92712e-07
6.23878e-09
-0.000266554
-5.44743e-09
-0.000248722
6.78915e-09
-1.66211e-07
0.000263606
-2.01648e-08
-0.000264324
-0.000249522
-1.7341e-07
1.1373e-08
8.73849e-08
-0.000244044
-1.88579e-08
-0.000259647
-0.000249634
-0.000259784
9.77162e-08
1.00589e-07
0.000242063
-0.000242166
-2.31191e-07
-2.26202e-07
-0.000270448
-0.000260871
1.02727e-07
-0.000260527
1.00504e-07
-0.000260839
-0.000261181
4.49226e-09
4.18234e-09
-4.25023e-10
-1.47025e-09
0.00119166
-0.00119167
-1.22816e-06
-8.03319e-09
-2.33563e-09
0.00113589
-2.63688e-07
1.23247e-06
2.63599e-07
8.93279e-07
-2.50424e-07
2.4997e-07
-8.90677e-07
-0.00113588
-1.22599e-06
-9.50576e-09
3.73144e-09
0.00113578
-2.6133e-07
1.22952e-06
2.63396e-07
8.9359e-07
-2.50368e-07
2.50244e-07
-8.90361e-07
-0.00113578
1.25619e-06
1.21994e-06
-2.25832e-07
-2.28045e-07
0.000268387
-0.000270409
3.45573e-09
1.12593e-08
-0.00119165
-1.43123e-09
-1.42563e-09
-0.00113588
-1.22786e-06
-5.76449e-09
1.29869e-08
-2.63196e-07
1.23278e-06
2.64028e-07
8.92861e-07
-2.50971e-07
-8.90974e-07
2.49402e-07
-0.00113578
-1.22562e-06
-6.28785e-09
-1.51739e-08
-2.63746e-07
1.22987e-06
2.63827e-07
8.93291e-07
-2.50824e-07
-8.90733e-07
2.49737e-07
-0.000270409
1.25916e-06
1.21484e-06
-2.2089e-07
-2.30882e-07
0.000268387
1.26825e-06
1.2261e-06
-2.23819e-07
-2.31786e-07
0.00026844
-0.000270478
-1.27178e-06
-1.2298e-06
0.000270478
-0.000268439
2.27525e-07
2.35589e-07
4.61997e-09
0.00113534
-2.66915e-07
1.27145e-06
2.65829e-07
8.95532e-07
-2.48403e-07
2.46676e-07
-8.94032e-07
-0.00113535
-1.26461e-06
-4.79456e-09
-3.42931e-11
0.00113539
-2.68805e-07
1.26988e-06
2.6953e-07
9.00915e-07
-2.51081e-07
2.49399e-07
-8.98898e-07
-0.0011354
0.00113534
-2.90791e-09
-0.00113534
3.93529e-09
-1.26789e-06
2.65983e-07
-2.66743e-07
-8.94158e-07
2.46658e-07
-2.48478e-07
8.95352e-07
1.267e-06
0.00113539
-3.30357e-09
-0.00113539
1.77121e-09
-1.26483e-06
2.66614e-07
-2.69081e-07
-8.98754e-07
2.49226e-07
-2.51118e-07
8.98331e-07
-2.26144e-07
-2.28097e-07
0.000268426
-0.000270464
-1.23269e-06
0.000270461
-0.000268425
2.30859e-07
2.33156e-07
3.4833e-09
0.00113634
-2.64337e-07
1.22961e-06
2.63355e-07
8.98158e-07
-2.51071e-07
2.496e-07
-8.96527e-07
-0.00113634
-1.25913e-06
-3.09849e-09
-6.23308e-10
0.00113528
-2.68734e-07
1.26471e-06
2.69657e-07
8.98095e-07
-2.48667e-07
2.4654e-07
-8.96565e-07
-0.00113528
0.00113633
-4.34916e-09
-0.00113633
3.26632e-09
-1.22587e-06
2.63782e-07
-2.63809e-07
-8.96414e-07
2.4959e-07
-2.51102e-07
8.98275e-07
1.26442e-06
0.00113528
-9.38263e-09
-0.00113528
1.04054e-09
-1.25944e-06
2.69405e-07
-2.69044e-07
-8.96684e-07
2.46752e-07
-2.48409e-07
8.98088e-07
-6.45762e-09
1.17511e-09
0.00113488
-2.65941e-07
1.26155e-06
2.66677e-07
8.90586e-07
-2.45303e-07
2.44058e-07
-8.87782e-07
-0.00113489
-6.38084e-09
-0.00113588
8.12949e-09
-1.22802e-06
2.63931e-07
-2.63435e-07
-8.90853e-07
2.49558e-07
8.93022e-07
-2.50795e-07
1.26128e-06
0.00113487
-4.6836e-09
-0.00113488
1.81989e-09
-1.25644e-06
2.66572e-07
-2.6606e-07
-8.88281e-07
2.46612e-07
-2.45543e-07
8.90223e-07
-2.26695e-07
-2.30576e-07
0.000268418
-0.000270445
-1.22989e-06
0.000270448
-0.00026842
2.3068e-07
2.35916e-07
-8.18125e-09
1.24055e-09
0.00113589
-2.63661e-07
1.22461e-06
2.63782e-07
8.96004e-07
-2.50295e-07
2.50229e-07
-8.92787e-07
-0.00113589
-7.08199e-09
-0.00113578
-2.87408e-09
-1.22289e-06
2.63816e-07
-2.6383e-07
-8.90895e-07
2.49918e-07
8.93267e-07
-2.50673e-07
1.22431e-06
0.00113587
-6.24079e-09
-0.00113589
1.80048e-08
-1.22013e-06
2.635e-07
-2.63847e-07
-8.92589e-07
2.49844e-07
-2.50469e-07
8.96355e-07
-0.000268387
2.30191e-07
2.33355e-07
1.26791e-06
1.22589e-06
-2.23695e-07
-2.31442e-07
0.000268439
-1.51422e-09
-2.66624e-07
1.272e-06
2.66172e-07
8.95374e-07
-2.51108e-07
-8.94133e-07
2.49377e-07
-1.26217e-06
-3.10204e-09
7.15347e-09
-2.66346e-07
1.26691e-06
2.66478e-07
8.98354e-07
-2.51225e-07
-8.96096e-07
2.4924e-07
-2.2581e-07
-2.28417e-07
0.000268425
3.41701e-09
-2.63943e-07
1.23001e-06
2.63659e-07
8.98375e-07
-2.51087e-07
-8.9632e-07
2.49679e-07
-1.2597e-06
-9.1902e-09
1.63147e-09
-2.69313e-07
1.26423e-06
2.69247e-07
8.98183e-07
-2.48515e-07
-8.96626e-07
2.49379e-07
-2.81333e-08
7.48266e-09
0.00113489
-2.68896e-07
1.26119e-06
2.69269e-07
8.92901e-07
-2.48318e-07
2.49163e-07
-8.88193e-07
-2.26329e-07
-2.31083e-07
0.00026842
-4.62516e-09
3.50957e-08
0.00113582
-2.5852e-07
1.22973e-06
2.63505e-07
8.96288e-07
-2.50837e-07
2.49575e-07
-8.928e-07
-2.52988e-10
-5.56921e-08
0.000228008
2.38668e-08
1.3668e-09
-0.000227977
-5.90744e-09
3.64946e-08
0.000192049
-5.29316e-09
-0.000192074
7.11686e-09
-3.545e-08
0.000192076
2.16673e-09
-0.00019205
2.50115e-11
5.25587e-08
0.000227976
-2.26157e-08
-2.71872e-10
-0.000228006
6.08059e-09
1.99179e-08
9.71231e-05
-9.71491e-05
-6.75496e-09
-2.01044e-08
9.71508e-05
-9.71239e-05
-5.5181e-08
-4.56812e-11
0.000227993
1.06555e-09
2.36617e-08
-0.000227963
-5.89552e-09
3.65363e-08
0.000192035
-5.23932e-09
-0.00019206
7.29099e-09
-3.51876e-08
0.000192061
1.99511e-09
-0.000192035
5.27918e-08
4.74637e-10
0.000227962
-5.44918e-10
-2.27574e-08
-0.000227992
-5.97788e-09
-2.06409e-09
0.00119143
-0.00119143
-6.21953e-09
-6.87262e-10
0.0011912
-0.00119121
-5.51262e-09
-4.61482e-09
0.00119116
-0.00119116
-0.00119165
-6.07552e-09
5.37493e-09
0.00119141
-0.00119142
-4.70903e-09
4.78728e-09
0.00119119
-0.0011912
-4.8902e-09
-6.3564e-09
0.00119114
-0.00119115
-4.25155e-09
8.11459e-09
5.53925e-08
-1.8052e-09
0.000249518
1.73801e-09
-1.73171e-07
-0.0002494
-1.87112e-08
-3.64698e-08
9.17329e-08
0.000244116
1.33149e-08
-0.000244165
0.00115788
5.19307e-09
-5.83883e-09
9.84259e-07
-7.98228e-07
8.05695e-07
-9.76407e-07
-0.00115789
8.51215e-09
1.23253e-06
0.00113588
-7.55313e-09
-8.9067e-07
2.4982e-07
-2.50553e-07
8.93217e-07
-1.22811e-06
2.63686e-07
-2.63577e-07
2.06041e-08
3.50068e-08
0.000244168
-1.58863e-08
-0.000244117
-9.06434e-08
-2.13889e-09
0.00115789
-5.65902e-09
-9.78994e-07
8.0289e-07
-8.00962e-07
9.81515e-07
-5.23136e-08
1.52497e-09
0.000249399
-9.93158e-10
1.68728e-07
-0.000249516
5.74972e-09
1.80212e-08
9.71161e-05
-9.71399e-05
-7.28541e-09
-1.72472e-08
9.71415e-05
-9.71169e-05
-1.22379e-09
5.54869e-08
0.000249505
-1.73452e-07
1.9599e-09
-0.000249387
0.00115774
4.73914e-09
-7.8221e-09
9.84601e-07
-8.0059e-07
8.06123e-07
-9.78765e-07
-0.00115774
-1.89236e-08
-3.66571e-08
8.9531e-08
0.000244106
1.11803e-08
-0.000244151
3.31527e-09
1.22715e-06
0.00113578
-8.93676e-09
-8.905e-07
2.5019e-07
-2.50415e-07
8.93545e-07
-1.22299e-06
2.63538e-07
-2.64039e-07
-3.49787e-09
0.00115774
-7.04392e-09
-9.78784e-07
8.06062e-07
-8.00576e-07
9.84507e-07
1.9999e-08
3.52505e-08
0.000244154
-1.30411e-08
-0.000244107
-8.85046e-08
5.83747e-10
-5.24465e-08
0.000249386
1.68573e-07
-7.17541e-10
-0.000249502
1.90288e-08
-1.81957e-08
4.11428e-08
0.000276231
-8.84676e-09
-0.000276264
1.97999e-08
-1.73466e-08
3.83085e-08
0.000276148
-1.05551e-08
-0.000276178
-1.26139e-06
-1.22458e-06
0.000270409
-0.000268387
2.303e-07
2.33473e-07
-1.99533e-08
1.70589e-08
0.000276267
9.81611e-09
-0.000276232
-4.10727e-08
-1.91727e-08
1.79265e-08
0.000276181
9.06216e-09
-0.000276149
-3.94587e-08
-0.000192078
-5.62679e-09
3.64113e-08
-5.79249e-09
0.000192053
-0.00022801
-4.34151e-11
5.23064e-08
0.00022798
-2.24663e-08
1.36524e-10
-9.71524e-05
6.45224e-09
1.95659e-08
9.71264e-05
-0.000192062
-5.6612e-09
3.67143e-08
-5.77624e-09
0.000192037
-0.000227994
5.28609e-08
-3.64454e-11
0.000227964
-2.59304e-10
-2.26457e-08
7.87433e-09
2.28799e-08
-4.28748e-09
-2.33768e-08
3.22122e-08
2.64281e-08
0.00119104
5.52436e-08
-1.47092e-09
-0.000249407
1.64679e-09
-1.73062e-07
-0.000244167
-1.81326e-08
-3.70373e-08
9.23055e-08
1.0388e-08
0.000244119
0.00115788
-0.00115788
1.42683e-08
-1.11686e-08
9.84014e-07
-8.01309e-07
-9.79452e-07
8.05608e-07
-0.00024952
-5.25951e-08
1.09055e-09
0.000249404
-6.86656e-10
1.69002e-07
2.51992e-08
-2.84633e-08
-9.79647e-07
8.08523e-07
-8.01418e-07
9.86526e-07
-9.71428e-05
6.11238e-09
1.76442e-08
9.71191e-05
-2.4048e-09
5.56354e-08
-0.000249391
-1.72981e-07
2.39403e-09
0.00115775
-0.00115774
-2.17783e-08
-4.97305e-09
9.8388e-07
-8.01207e-07
-9.79373e-07
8.05577e-07
-0.000244156
-1.84595e-08
-3.65083e-08
8.95219e-08
1.05771e-08
0.000244111
-0.000249506
-2.05565e-10
-5.21142e-08
0.00024939
1.68696e-07
-3.77945e-10
-5.76983e-08
-9.89153e-09
-9.79604e-07
8.05307e-07
-7.98656e-07
9.83793e-07
-0.000276269
1.89738e-08
-1.81604e-08
3.89948e-08
-8.8137e-09
0.000276238
-0.000276184
1.98515e-08
-1.73139e-08
3.83024e-08
-1.0761e-08
0.000276154
-1.25635e-06
-1.29949e-06
-0.000268406
2.43016e-07
2.30776e-07
-1.99574e-08
1.69862e-08
1.0478e-08
-0.000276241
-3.86008e-08
-1.91128e-08
1.78948e-08
8.98135e-09
-0.000276156
-3.93841e-08
1.81199e-08
9.71406e-05
-9.71646e-05
-1.7385e-08
9.71655e-05
-9.7141e-05
1.81051e-08
9.71312e-05
-9.71552e-05
-1.70846e-08
9.71559e-05
-9.71316e-05
1.88388e-08
4.12742e-08
0.000276258
-1.14357e-08
-0.000276288
1.65835e-08
4.13617e-08
0.000276193
-8.78741e-09
-0.000276224
0.000270478
-1.27163e-06
-1.22973e-06
-0.000268439
2.27435e-07
2.35398e-07
0.00027629
-1.99528e-08
1.22155e-08
-0.000276259
-4.11192e-08
0.000276225
-1.75333e-08
9.92064e-09
-0.000276193
-4.10429e-08
-1.73021e-08
-7.28382e-09
9.7167e-05
-9.71425e-05
1.79837e-08
5.85564e-09
9.71416e-05
-1.7038e-08
-7.38691e-09
9.7157e-05
-9.71325e-05
1.81825e-08
5.72014e-09
9.7132e-05
1.26791e-06
1.22585e-06
0.000268439
-2.23731e-07
-2.31446e-07
-2.00085e-08
0.000276293
-4.10903e-08
-0.000276261
1.20132e-08
-1.75854e-08
0.000276227
-4.10531e-08
-0.000276195
9.71233e-09
1.88688e-08
-1.15427e-08
4.11444e-08
0.00027626
1.66945e-08
-8.75944e-09
4.12079e-08
0.000276194
-5.57515e-08
0.000227965
2.39164e-08
1.34138e-09
-0.000227935
3.85838e-08
0.000191989
-5.42246e-09
-0.000192016
-3.7708e-08
0.000192019
2.42468e-09
-0.000191991
5.24639e-08
0.000227934
-2.25507e-08
-3.98777e-10
-0.000227964
-6.12941e-10
0.000249522
4.70782e-10
-1.73192e-07
-0.000249404
9.21601e-08
0.00024411
1.11326e-08
-0.000244157
0.00115818
6.1995e-09
-3.51637e-09
9.87071e-07
-8.04302e-07
8.08166e-07
-9.8221e-07
-0.00115819
4.45951e-09
0.00113534
-3.89363e-09
-1.26812e-06
2.65871e-07
-2.66882e-07
-8.94124e-07
2.46642e-07
-2.48458e-07
8.95502e-07
0.000244158
-1.29572e-08
-0.00024411
-9.06325e-08
-1.76681e-09
0.00115819
-3.01167e-09
-9.82393e-07
8.0821e-07
-8.04294e-07
9.86799e-07
1.19075e-09
0.000249404
-8.90955e-10
1.69192e-07
-0.000249521
0.000249494
2.56795e-09
-1.73328e-07
-0.00024938
-1.90987e-08
9.21092e-08
0.000244007
1.09294e-08
-0.000244053
0.00115812
-4.22382e-09
9.92454e-07
-8.03977e-07
8.08304e-07
-9.87224e-07
-0.00115811
4.93994e-10
0.00113539
1.26983e-06
-4.39479e-09
-8.98864e-07
2.49463e-07
9.00946e-07
-2.50984e-07
-1.26462e-06
2.69495e-07
-2.6883e-07
0.000244055
1.93915e-08
-1.28885e-08
-0.000244009
-9.06856e-08
0.00115811
-3.88769e-09
-9.87224e-07
8.08282e-07
-8.03998e-07
9.92268e-07
0.000249379
-1.86305e-09
1.6898e-07
-0.000249492
-7.96498e-11
5.22646e-08
-2.24685e-08
5.08479e-11
0.000227978
-3.54272e-08
-0.000192052
1.83887e-09
3.64399e-08
-5.42927e-09
0.000192051
-1.87476e-10
-5.58152e-08
-0.000227979
2.38956e-08
1.44581e-09
5.22463e-08
-2.24424e-08
-3.80791e-10
0.000227936
-3.76973e-08
6.59503e-09
0.000192022
-0.000191994
2.65866e-09
3.8517e-08
-6.33724e-09
-5.26445e-09
0.000191992
-5.57708e-08
0.000227967
-0.000227937
2.38142e-08
1.29585e-09
1.08989e-09
-6.06656e-10
1.68831e-07
0.000249405
-8.47978e-10
-3.48066e-09
1.27175e-06
-2.66707e-07
2.66016e-07
8.95402e-07
-2.48518e-07
2.46576e-07
-8.94187e-07
0.000244158
-9.06629e-08
-0.00024411
-1.29544e-08
-0.00115817
-3.50671e-09
0.00115818
-1.99939e-09
-9.82587e-07
8.08337e-07
-8.04178e-07
9.86681e-07
1.10867e-08
9.20915e-08
0.00024411
4.95732e-09
-2.73142e-09
9.86768e-07
-8.04071e-07
-9.82424e-07
8.08291e-07
-9.83536e-10
0.000249523
-0.000249405
1.12215e-09
-1.73437e-07
-1.99038e-09
1.68819e-07
0.000249381
9.52455e-10
-1.26473e-06
-4.00149e-09
9.00955e-07
-2.51059e-07
-8.98812e-07
2.49353e-07
1.26979e-06
-2.68948e-07
2.69483e-07
1.90669e-08
0.000244059
-9.0744e-08
-0.000244012
-1.28461e-08
-0.00115811
0.0011581
-2.60629e-09
-9.87488e-07
8.08281e-07
-8.04116e-07
9.89401e-07
-1.94175e-08
1.09942e-08
9.19653e-08
0.00024401
-3.6342e-09
9.9222e-07
-8.04058e-07
-9.87358e-07
8.083e-07
0.000249496
-0.000249381
2.17136e-09
-1.73356e-07
3.87603e-08
0.00027614
-1.02897e-08
-0.000276168
-1.83671e-08
4.11757e-08
0.000276285
-8.42041e-09
-0.000276318
0.000270464
-0.000268425
2.30697e-07
2.33255e-07
0.000276171
9.17704e-09
-0.000276142
-3.91702e-08
1.65477e-08
0.000276321
1.06876e-08
-0.000276287
-4.09685e-08
5.5397e-09
9.71429e-05
-9.71668e-05
9.71679e-05
-7.89786e-09
-9.71435e-05
-2.01973e-08
-9.71256e-05
1.96697e-08
9.71248e-05
1.22806e-06
0.000268425
-2.25941e-07
-2.28265e-07
0.000276175
-3.9331e-08
-0.000276146
8.80773e-09
1.62728e-08
-2.07555e-08
0.000276323
-4.07707e-08
-0.000276289
1.10875e-08
-1.07308e-08
3.84172e-08
0.000276144
-1.88109e-08
1.82693e-08
-7.89433e-09
4.14305e-08
0.000276288
-8.10328e-09
9.71689e-05
-9.71445e-05
5.13935e-09
9.7144e-05
-1.44857e-09
0.000249514
1.18365e-09
-1.75518e-07
-0.000249393
8.97824e-08
0.000244072
1.38134e-08
-0.000244123
0.00115801
5.91627e-09
-2.53877e-09
9.89292e-07
-8.04217e-07
8.08063e-07
-9.8487e-07
-0.00115802
3.21451e-09
0.00113634
-4.48752e-09
-1.226e-06
2.63647e-07
-2.64067e-07
-8.96511e-07
2.4962e-07
-2.51084e-07
8.98134e-07
0.000244123
-1.51798e-08
-0.000244072
-8.82159e-08
-1.48802e-09
0.00115801
-2.32043e-09
-9.84987e-07
8.0807e-07
-8.04107e-07
9.89202e-07
2.21402e-09
0.000249392
-1.71222e-09
1.71829e-07
-0.000249511
-5.52175e-08
0.000227954
2.36807e-08
1.52282e-09
-0.000227924
3.66879e-08
0.000191976
-5.85769e-09
-0.000192001
-3.52721e-08
0.000192003
1.82481e-09
-0.000191977
5.27438e-08
0.000227924
-2.27188e-08
-6.88513e-11
-0.000227953
0.000249484
-1.75549e-07
2.12108e-09
-0.000249367
0.00115795
-2.66676e-09
9.89711e-07
-8.04156e-07
8.08152e-07
-9.84752e-07
-0.00115795
-1.88386e-08
8.76235e-08
0.000243999
1.0747e-08
-0.000244042
-1.70884e-10
0.00113528
1.26477e-06
-2.97993e-09
-8.96605e-07
2.46707e-07
8.98176e-07
-2.48692e-07
-1.25914e-06
2.69531e-07
-2.68986e-07
0.00115794
-2.64116e-09
-9.84534e-07
8.08142e-07
-8.04054e-07
9.89708e-07
0.000244043
2.00851e-08
-1.31103e-08
-0.000243999
-8.57291e-08
0.000249365
1.7174e-07
-1.23591e-09
-0.000249481
5.28897e-08
1.8009e-10
-2.16047e-10
-2.2739e-08
0.000227963
-3.51832e-08
-0.000192036
1.77873e-09
3.66824e-08
-5.52012e-09
0.000192036
-5.51756e-08
-2.9689e-10
-0.000227964
1.44197e-09
2.371e-08
1.80225e-09
-1.28633e-09
1.69195e-07
0.000249397
3.32487e-09
-4.58455e-09
1.22974e-06
-2.63886e-07
2.63659e-07
8.98181e-07
-2.51108e-07
2.49584e-07
-8.96431e-07
0.000244124
-8.8283e-08
-0.000244074
-1.53803e-08
-0.001158
-1.97064e-09
0.00115801
-8.16027e-09
-9.8489e-07
8.08155e-07
-8.04124e-07
9.89447e-07
1.37588e-08
8.97855e-08
0.000244073
5.67624e-09
-2.64396e-09
9.89287e-07
-8.0413e-07
-9.84909e-07
8.08133e-07
-1.69966e-09
0.000249516
-0.000249398
1.72178e-09
-1.72956e-07
5.28244e-08
-2.2708e-08
-4.05832e-10
0.000227925
-3.53403e-08
6.94748e-09
0.000192005
-0.000191979
2.16603e-09
3.64516e-08
-5.85346e-09
-5.54632e-09
0.000191978
-5.52606e-08
0.000227955
-0.000227925
2.3765e-08
1.33228e-09
1.69169e-07
-1.55876e-09
0.000249371
4.8663e-10
-1.25935e-06
-3.32173e-09
8.98068e-07
-2.48269e-07
-8.96579e-07
2.46861e-07
1.26454e-06
-2.69114e-07
2.69318e-07
-0.00115794
0.00115794
-8.07798e-09
-9.84778e-07
8.08181e-07
-8.04084e-07
9.8956e-07
1.97631e-08
0.000244043
-8.5758e-08
-0.000244
-1.27673e-08
-2.85943e-09
9.89607e-07
-8.04106e-07
-9.84604e-07
8.08187e-07
-1.8907e-08
1.11733e-08
8.73451e-08
0.000244
0.000249486
-0.000249372
-1.73009e-07
1.9279e-09
-5.15382e-10
0.000228002
1.79544e-09
2.58588e-08
-0.000227974
0.000192045
-5.79387e-09
-0.00019207
0.000192072
7.94904e-10
-0.000192046
-5.05589e-10
0.000227973
-2.39964e-11
-2.45591e-08
-0.000228
5.56592e-08
0.000249488
-1.70805e-07
2.04691e-09
-0.000249377
0.00115779
-6.47408e-09
9.84569e-07
-8.0076e-07
8.05842e-07
-9.78584e-07
-0.00115779
-3.65843e-08
9.19478e-08
0.000244045
1.10962e-08
-0.000244092
1.27732e-09
0.00113487
7.45184e-10
-1.25626e-06
2.66523e-07
-2.65951e-07
-8.87825e-07
2.4393e-07
-2.45453e-07
8.90417e-07
0.00115778
4.86757e-10
-9.78887e-07
8.05805e-07
-8.0085e-07
9.84252e-07
3.52466e-08
0.000244094
-1.30808e-08
-0.000244046
-9.0585e-08
-5.22242e-08
0.000249376
1.65923e-07
-1.81157e-09
-0.000249486
0.000227966
2.38843e-08
1.18773e-09
-0.000227936
-5.80177e-09
0.000191993
-5.44428e-09
-0.000192018
0.000192019
7.20804e-09
2.15041e-09
-0.000191993
0.000227935
-2.24254e-08
-1.02085e-09
-0.000227964
-5.24258e-08
1.17813e-09
-6.75937e-10
1.68768e-07
0.000249401
-2.48338e-09
-7.21012e-09
1.2326e-06
-2.63524e-07
2.63792e-07
8.93052e-07
-2.50727e-07
-8.90873e-07
2.49688e-07
3.47569e-08
-9.0313e-08
-0.000244118
-1.36656e-08
-0.00115787
6.63673e-11
-4.95886e-09
-9.79175e-07
8.05537e-07
9.84006e-07
-8.01118e-07
-3.68805e-08
1.29813e-08
9.21309e-08
0.000244118
5.43131e-09
-5.61596e-09
9.84131e-07
-7.98275e-07
-9.76381e-07
8.05615e-07
5.53047e-08
-1.98817e-09
-0.000249402
1.82616e-09
-1.73133e-07
-3.81449e-10
2.22744e-10
-2.46356e-08
0.000227974
0.000192075
-0.000192048
4.23794e-10
-6.62601e-09
0.000192047
-4.9844e-10
0.000228003
-0.000227975
1.80123e-09
2.57849e-08
-5.23411e-08
1.66087e-07
-2.11169e-09
0.000249378
1.5847e-09
-1.25631e-06
-1.21456e-08
8.90306e-07
-2.45484e-07
-8.88045e-07
2.4395e-07
1.26138e-06
-2.65907e-07
2.66599e-07
-0.00115779
0.00115779
-4.72434e-09
-9.79073e-07
8.0563e-07
-8.01046e-07
9.84213e-07
3.53213e-08
1.99981e-08
0.000244096
-8.81497e-08
-0.00024405
-1.29482e-08
-1.1987e-08
9.84177e-07
-8.00917e-07
-9.79146e-07
8.05775e-07
-3.65066e-08
-1.89319e-08
1.10647e-08
9.18879e-08
0.000244047
5.55272e-08
0.000249493
-0.000249378
-1.73203e-07
1.51447e-09
-2.25015e-08
-6.50362e-10
0.000227936
7.20059e-09
0.00019202
-0.000191994
2.16165e-09
-5.86251e-09
-5.25912e-09
0.000191994
0.000227967
-0.000227937
2.38215e-08
1.20379e-09
3.67494e-08
0.000276139
-9.57567e-09
-0.000276167
-1.82475e-08
3.87902e-08
0.000276278
-1.17237e-08
-0.000276306
0.000270445
-0.00026842
2.30537e-07
2.36248e-07
0.00027617
9.91449e-09
-0.00027614
-3.65212e-08
1.70275e-08
0.000276308
1.31035e-08
-0.00027628
-3.90514e-08
5.74833e-09
9.71421e-05
-9.71661e-05
9.71668e-05
-7.31845e-09
-9.71425e-05
-1.75035e-08
-9.71184e-05
1.79034e-08
9.71177e-05
1.22297e-06
0.00026842
-2.26427e-07
-2.30705e-07
0.000276173
-3.68757e-08
-0.000276144
9.56267e-09
1.69688e-08
-2.02917e-08
0.000276311
-3.90441e-08
-0.000276282
1.33701e-08
-9.81238e-09
3.66171e-08
0.000276142
-1.82783e-08
1.87905e-08
-1.16166e-08
3.8794e-08
0.000276281
-7.36089e-09
9.71675e-05
-9.71432e-05
5.69252e-09
9.71428e-05
5.55981e-08
0.000249475
-1.73614e-07
2.39671e-09
-0.00024936
0.00115766
-7.92508e-09
9.87255e-07
-8.0043e-07
8.06159e-07
-9.81056e-07
-0.00115766
-3.61492e-08
8.92308e-08
0.000244002
1.18047e-08
-0.000244047
1.39667e-09
0.00113589
-7.93477e-09
-1.2199e-06
2.63759e-07
-2.63659e-07
-8.92912e-07
2.50181e-07
-2.50333e-07
8.96053e-07
0.00115765
-7.35372e-09
-9.81061e-07
8.0619e-07
-8.00402e-07
9.8719e-07
3.57602e-08
0.000244049
-1.23677e-08
-0.000244003
-8.87942e-08
-5.22781e-08
0.000249359
1.68466e-07
-2.42892e-09
-0.000249472
-7.37221e-10
0.000227981
1.86765e-09
2.59574e-08
-0.000227952
0.000192037
-5.71238e-09
-0.000192063
0.000192065
1.72002e-09
-0.000192038
-1.8186e-10
0.000227951
-3.89498e-10
-2.46082e-08
-0.000227978
0.000227941
8.13588e-10
2.81556e-08
-0.000227915
-6.41696e-09
0.000191977
-4.63671e-09
-0.000192002
0.000192005
6.63332e-09
2.81224e-09
-0.000191978
0.000227914
-9.40853e-10
-2.6573e-08
-0.000227939
3.33968e-10
-5.23371e-08
1.6861e-07
-7.31302e-10
0.000249389
3.11686e-09
-8.06766e-09
1.22716e-06
-2.64e-07
2.63632e-07
8.93446e-07
-2.50541e-07
-8.90688e-07
2.50074e-07
-0.00115774
-1.22796e-08
-5.50511e-09
-9.79154e-07
8.05762e-07
9.84279e-07
-8.00937e-07
3.53285e-08
-8.8515e-08
-0.000244109
-1.33619e-08
1.15483e-09
-6.62344e-09
9.84387e-07
-8.00823e-07
-9.78936e-07
8.05842e-07
-3.65859e-08
1.09693e-08
8.95171e-08
0.000244108
-1.61934e-09
5.56552e-08
-0.000249389
-1.73345e-07
2.31748e-09
-5.21346e-08
1.68422e-07
-2.87411e-09
0.000249362
1.67237e-09
-1.22e-06
-7.44464e-09
8.96301e-07
-2.50421e-07
-8.92728e-07
2.5007e-07
1.22447e-06
-2.63806e-07
2.63612e-07
-0.00115765
0.00115765
-6.04341e-09
-9.81237e-07
8.05855e-07
-8.00725e-07
9.87012e-07
3.57392e-08
1.91493e-08
0.000244052
-8.87379e-08
-0.000244005
-1.25792e-08
-7.14024e-09
9.8715e-07
-8.00572e-07
-9.81157e-07
8.06023e-07
-3.60493e-08
-1.97748e-08
1.17868e-08
8.91428e-08
0.000244004
5.57415e-08
0.000249477
-0.000249363
-1.73499e-07
2.03303e-09
-5.30927e-10
-1.22473e-10
-2.45118e-08
0.000227954
0.000192067
-0.000192041
1.70939e-09
-5.8016e-09
0.00019204
-1.10048e-09
0.000227983
-0.000227955
2.16969e-09
2.60476e-08
-1.35054e-09
-2.6485e-08
0.000227916
6.59788e-09
0.000192007
-0.000191981
2.815e-09
-6.48205e-09
-4.58722e-09
0.00019198
0.000227943
-0.000227917
6.65134e-10
2.81629e-08
9.71252e-05
-9.71492e-05
9.71498e-05
-9.71255e-05
9.71189e-05
-9.71426e-05
9.71442e-05
-9.71196e-05
0.000268387
-2.25836e-07
-2.28248e-07
1.71076e-08
-3.8771e-08
-0.000276237
9.84987e-09
1.78676e-08
-3.94075e-08
-0.000276153
9.04363e-09
-1.81848e-08
-8.87108e-09
4.11727e-08
0.000276233
-1.73076e-08
-1.07017e-08
3.82794e-08
0.000276151
9.71504e-05
-9.71261e-05
9.71257e-05
9.71456e-05
-9.71211e-05
9.71204e-05
1.80801e-08
9.71433e-05
1.82374e-08
9.71331e-05
1.87797e-08
4.11996e-08
-1.1753e-08
0.000276263
1.66141e-08
4.11998e-08
-8.94536e-09
0.000276196
3.84913e-08
-5.08683e-09
0.000191995
5.23841e-08
0.000227938
-2.25495e-08
-4.96836e-10
9.20267e-08
1.10521e-08
0.000244111
2.9475e-09
-2.20297e-09
9.86757e-07
-8.04205e-07
-9.82543e-07
8.08264e-07
6.58313e-10
0.000249406
-4.57897e-10
1.68817e-07
-1.97129e-08
9.18873e-08
1.10984e-08
0.000244014
-2.45992e-09
9.8935e-07
-8.04173e-07
-9.84778e-07
8.08201e-07
0.000249382
-1.87182e-09
1.68878e-07
3.81779e-08
-1.10484e-08
0.000276148
-1.89628e-08
4.14706e-08
-7.57755e-09
0.00027629
5.02001e-09
8.97989e-08
1.35942e-08
0.000244074
5.12887e-09
-7.79503e-09
9.89429e-07
-8.04069e-07
-9.84815e-07
8.08223e-07
1.56213e-09
0.000249399
-1.22296e-09
1.69138e-07
3.64191e-08
-5.23877e-09
0.00019198
5.27696e-08
0.000227925
-2.25848e-08
-5.25848e-10
-7.83505e-09
9.89499e-07
-8.04043e-07
-9.84834e-07
8.08276e-07
-1.92829e-08
8.74027e-08
1.13508e-08
0.000244
0.000249373
1.69074e-07
-1.72116e-09
-7.55523e-10
-0.000227975
2.58026e-08
-6.78297e-09
0.000192049
-5.20801e-10
0.000227975
5.65335e-10
-2.4737e-08
5.5362e-08
-0.00024938
-1.75695e-07
1.74979e-09
0.00115782
-2.27251e-08
9.84169e-07
-7.9842e-07
8.05593e-07
-9.76506e-07
-3.65424e-08
8.72965e-08
1.36262e-08
0.00024405
8.02482e-09
-2.43342e-07
-1.26468e-06
2.63935e-07
-2.71544e-07
-8.85547e-07
2.51728e-07
-2.45831e-07
8.95518e-07
-5.24959e-08
0.000249379
1.68881e-07
-2.15046e-09
-5.71645e-08
-9.76682e-07
8.08378e-07
-8.01251e-07
9.86653e-07
3.51596e-08
-1.53138e-08
-0.00024405
-9.03216e-08
-0.000227937
2.38691e-08
8.96129e-10
-5.81432e-09
-5.35838e-09
0.000191995
0.000227937
-2.2539e-08
-7.73941e-10
7.37335e-09
2.00503e-09
-0.000191995
3.63676e-08
-1.01981e-08
0.000276145
-1.83354e-08
3.8836e-08
-8.79503e-09
0.000276281
5.58233e-09
9.71436e-05
5.58844e-08
-0.000249364
-1.73496e-07
9.12647e-10
0.00115767
-1.15439e-08
9.87006e-07
-8.00878e-07
8.05682e-07
-9.81393e-07
-3.61053e-08
8.92397e-08
1.15329e-08
0.000244007
2.01914e-07
-2.67999e-08
-1.18773e-06
2.71794e-07
-2.55875e-07
-8.90132e-07
2.49563e-07
-2.50971e-07
8.96223e-07
-5.19179e-08
0.000249364
1.68543e-07
-3.2952e-09
-5.29061e-08
-9.78879e-07
8.05985e-07
-7.98453e-07
9.87013e-07
3.57174e-08
-1.26852e-08
-0.000244008
-8.86427e-08
-1.15318e-09
-0.000227957
2.25835e-09
2.59654e-08
-5.89463e-09
0.000192042
-7.42486e-10
0.000227956
3.75646e-10
-2.44029e-08
-0.000227919
5.21217e-10
2.8121e-08
-6.56766e-09
-4.49848e-09
0.000191982
0.000227918
-1.39143e-09
-2.64656e-08
6.56204e-09
2.85056e-09
-0.000191984
9.71264e-05
-9.71268e-05
9.71217e-05
-9.71221e-05
-1.13668e-09
2.28107e-08
0.000142147
-3.49931e-10
-0.000142168
-0.000169639
5.01614e-10
-2.44559e-10
0.000169662
-0.000221931
2.35007e-08
3.34077e-09
0.000221964
-5.81777e-08
-2.25499e-08
-3.35328e-10
-0.000228007
-1.8256e-10
5.24264e-08
-0.000169662
-1.87776e-10
-1.12114e-09
-0.000221963
5.5167e-08
2.25224e-09
0.000142169
-2.23605e-08
-7.85568e-05
7.85813e-05
-2.14286e-09
2.22606e-09
0.000192075
7.05104e-09
-3.53987e-08
0.000261253
-2.36946e-08
1.22972e-09
5.0427e-08
-0.000261287
0.000261288
-3.26084e-09
-5.13351e-08
4.28895e-10
-7.85809e-05
2.37877e-08
7.85572e-05
-0.000261255
2.22672e-08
0.000261289
-5.12973e-08
-5.3166e-09
-5.92324e-09
3.64678e-08
5.0488e-08
7.85817e-05
-3.80881e-10
-2.35099e-08
-0.000142147
2.38036e-08
1.38252e-09
-2.73008e-11
-5.55707e-08
0.000169639
1.03264e-09
-1.50844e-10
-0.000169662
0.00022193
-2.28122e-08
5.52371e-08
-0.000221962
-1.73111e-10
-5.8154e-08
-0.000142168
9.71499e-05
-6.86942e-09
-1.99587e-08
6.22605e-09
1.97739e-08
2.28551e-08
-8.76637e-10
0.000142145
-4.60186e-10
-0.000142166
-0.000221921
2.34284e-08
3.20433e-09
0.000221953
-5.77411e-08
-0.000169633
2.02716e-10
-7.2311e-11
0.000169657
-5.7875e-10
-2.27247e-08
-0.000227992
1.85871e-10
5.2846e-08
-1.31319e-09
-0.000221953
5.55885e-08
-0.000169657
-3.46146e-11
2.06848e-09
0.000142166
-2.24133e-08
-7.85613e-05
7.85857e-05
-2.03759e-09
2.14169e-09
0.000192061
7.21224e-09
-3.52727e-08
0.000261252
-2.36223e-08
1.42555e-09
5.07427e-08
-0.000261286
0.000261286
-3.05244e-09
-5.10424e-08
4.76832e-10
-7.85854e-05
2.3742e-08
7.85615e-05
-0.000261252
2.23077e-08
0.000261286
-5.0973e-08
-5.427e-09
-5.79997e-09
3.66512e-08
5.08084e-08
7.85859e-05
-2.35013e-08
-9.81149e-11
-0.000142145
1.07448e-09
2.36384e-08
2.44713e-10
-5.5209e-08
0.00022192
-2.27877e-08
5.54571e-08
-0.000221952
0.000169634
7.96659e-10
9.89637e-11
-0.000169657
-5.78409e-08
5.82932e-11
-0.000142166
9.71406e-05
-7.2981e-09
-1.72105e-08