/*--------------------------------*- C++ -*----------------------------------*\
| =========                 |                                                 |
| \\      /  F ield         | OpenFOAM: The Open Source CFD Toolbox           |
|  \\    /   O peration     | Version:  2312                                  |
|   \\  /    A nd           | Website:  www.openfoam.com                      |
|    \\/     M anipulation  |                                                 |
\*---------------------------------------------------------------------------*/
FoamFile
{
    version     2.0;
    format      ascii;
    arch        "LSB;label=32;scalar=64";
    class       volScalarField;
    location    "500";
    object      epsilon;
}
// * * * * * * * * * * * * * * * * * * * * * * * * * * * * * * * * * * * * * //

dimensions      [0 2 -3 0 0 0 0];

internalField   nonuniform List<scalar> 
43496
(
4.23891e-06
1.90948e-05
1.18667e-06
3.64743e-06
2.29546e-06
9.34973e-07
4.23884e-06
9.56707e-06
2.2954e-06
1.18666e-06
9.3501e-07
3.64769e-06
1.41727e-06
5.65216e-06
5.65073e-06
1.90923e-05
9.56728e-06
1.26559e-05
4.23898e-06
4.88461e-06
1.12474e-05
4.88472e-06
1.12453e-05
1.26587e-05
2.2763e-05
7.24531e-06
7.24554e-06
2.27698e-05
1.909e-05
1.26561e-05
4.23891e-06
1.12473e-05
4.88444e-06
1.12452e-05
4.88453e-06
1.26588e-05
2.27629e-05
7.24368e-06
9.56531e-06
7.24389e-06
2.27697e-05
9.96432e-06
2.23956e-05
2.2396e-05
2.23894e-05
2.23898e-05
9.96394e-06
4.71003e-06
9.93539e-06
5.65218e-06
2.97597e-06
9.93288e-06
2.97613e-06
4.70968e-06
4.70409e-06
9.93068e-06
5.65076e-06
2.97485e-06
2.97503e-06
9.92815e-06
4.70375e-06
1.90875e-05
9.5651e-06
4.50811e-07
6.59542e-07
4.50944e-07
3.64762e-06
2.22352e-06
2.22404e-06
1.66676e-06
2.29564e-06
2.5409e-06
1.54343e-06
2.54115e-06
1.54447e-06
1.66418e-06
1.84564e-06
3.02284e-06
3.02328e-06
1.84339e-06
1.66662e-06
2.29558e-06
1.5434e-06
2.54075e-06
1.54443e-06
2.54098e-06
1.66416e-06
1.8455e-06
3.02243e-06
3.64788e-06
2.22369e-06
3.02285e-06
1.84327e-06
2.22423e-06
2.82874e-06
1.41875e-06
1.96841e-06
1.96831e-06
1.96903e-06
1.96913e-06
2.82842e-06
6.51843e-07
1.18286e-06
1.18296e-06
1.41517e-06
6.5799e-07
1.18589e-06
1.18601e-06
1.41807e-06
1.41511e-06
1.41587e-06
1.18295e-06
1.18283e-06
1.18529e-06
1.18522e-06
1.41509e-06
1.41585e-06
1.18277e-06
1.18295e-06
1.18511e-06
1.18528e-06
1.18301e-06
1.18518e-06
1.18523e-06
1.41518e-06
1.41593e-06
1.18281e-06
1.18529e-06
1.18516e-06
1.41593e-06
1.41802e-06
1.186e-06
1.18585e-06
1.418e-06
1.18582e-06
1.186e-06
1.1861e-06
1.41809e-06
1.18585e-06
4.23631e-06
9.54967e-06
9.55484e-06
4.23568e-06
1.9061e-05
1.90715e-05
4.23637e-06
9.55129e-06
9.55608e-06
4.23579e-06
6.51836e-07
6.51982e-07
6.51963e-07
6.56503e-07
6.56523e-07
6.56632e-07
6.56592e-07
2.29402e-06
3.64447e-06
9.29844e-07
1.18366e-06
3.64494e-06
9.30977e-07
2.29369e-06
1.90624e-05
1.90729e-05
2.29406e-06
9.29971e-07
3.6445e-06
1.18377e-06
9.31074e-07
3.64499e-06
2.29373e-06
5.64523e-06
5.64698e-06
1.41449e-06
5.64633e-06
5.64808e-06
9.56128e-06
4.23828e-06
1.90831e-05
9.56291e-06
4.23837e-06
6.57981e-07
6.58125e-07
6.58113e-07
2.29548e-06
3.647e-06
9.3406e-07
2.29528e-06
9.35035e-07
1.90846e-05
2.29553e-06
9.34193e-07
3.64704e-06
2.29532e-06
9.35127e-07
5.64958e-06
5.65134e-06
1.41718e-06
5.65059e-06
5.65235e-06
1.90587e-05
1.90692e-05
1.9062e-05
1.90725e-05
5.64519e-06
5.64694e-06
1.41443e-06
5.64627e-06
5.64806e-06
1.90802e-05
1.90698e-05
1.90835e-05
1.90732e-05
1.41662e-06
5.64845e-06
5.65024e-06
5.64742e-06
5.64916e-06
4.23626e-06
9.54986e-06
9.55503e-06
4.23561e-06
2.29396e-06
3.6443e-06
9.29823e-07
1.18377e-06
3.64478e-06
9.30936e-07
2.29364e-06
2.29391e-06
3.64471e-06
9.29755e-07
1.18368e-06
3.64515e-06
9.30891e-07
2.29358e-06
4.23701e-06
9.5606e-06
9.55554e-06
4.23761e-06
4.23695e-06
9.56081e-06
9.55572e-06
4.23755e-06
2.29448e-06
1.18454e-06
3.64604e-06
9.33047e-07
3.64561e-06
9.32016e-07
2.29475e-06
2.29443e-06
1.18441e-06
3.64641e-06
9.33004e-07
3.64602e-06
9.31947e-07
2.29469e-06
5.64676e-06
5.64537e-06
1.41441e-06
5.64772e-06
5.64646e-06
1.906e-05
1.90705e-05
1.90826e-05
1.90721e-05
1.4166e-06
5.64989e-06
5.64864e-06
5.64898e-06
5.64758e-06
1.90815e-05
1.90711e-05
2.29398e-06
3.64485e-06
9.29807e-07
1.18358e-06
3.64535e-06
9.30916e-07
2.29371e-06
4.2363e-06
9.55067e-06
9.55584e-06
4.23572e-06
2.29392e-06
9.29846e-07
3.64476e-06
1.18376e-06
9.30954e-07
3.64526e-06
2.29365e-06
4.23713e-06
9.56188e-06
9.55715e-06
4.23768e-06
2.29455e-06
1.18437e-06
3.64661e-06
9.33027e-07
3.64616e-06
9.32003e-07
2.29477e-06
4.23706e-06
9.56162e-06
9.55654e-06
4.23761e-06
2.29449e-06
1.18455e-06
9.33064e-07
3.64652e-06
9.32042e-07
3.64606e-06
2.29471e-06
4.23648e-06
9.55045e-06
9.55561e-06
4.2359e-06
2.29398e-06
9.29891e-07
3.64439e-06
1.18374e-06
9.30983e-07
3.64486e-06
2.29365e-06
4.23637e-06
9.55041e-06
9.55539e-06
4.23571e-06
2.29453e-06
1.18444e-06
3.6462e-06
9.33085e-07
3.64577e-06
9.32036e-07
2.29479e-06
4.23722e-06
9.56138e-06
9.55631e-06
4.23777e-06
2.29449e-06
1.18462e-06
9.33087e-07
3.64613e-06
9.32085e-07
3.64569e-06
2.29472e-06
4.23704e-06
9.56115e-06
9.55645e-06
4.23765e-06
5.64676e-06
5.64537e-06
1.4145e-06
5.64788e-06
5.64646e-06
1.906e-05
1.90704e-05
1.90839e-05
1.90736e-05
1.41668e-06
5.65005e-06
5.64863e-06
5.64897e-06
5.6476e-06
1.90815e-05
1.90711e-05
2.29397e-06
9.2989e-07
3.64489e-06
1.18364e-06
9.30985e-07
3.64538e-06
2.29365e-06
4.23652e-06
9.55087e-06
9.55577e-06
4.23592e-06
4.23646e-06
9.55113e-06
9.55629e-06
4.23593e-06
2.29457e-06
1.18455e-06
9.3318e-07
3.64625e-06
9.32163e-07
3.64581e-06
2.29484e-06
2.29449e-06
1.18439e-06
9.33094e-07
3.64663e-06
9.32083e-07
3.64619e-06
2.29475e-06
4.23726e-06
9.56161e-06
9.55651e-06
4.23781e-06
4.23727e-06
9.56206e-06
9.55699e-06
4.23775e-06
1.90609e-05
1.90714e-05
1.90633e-05
1.90737e-05
1.41667e-06
5.64851e-06
5.65025e-06
5.64745e-06
5.64919e-06
1.90824e-05
1.90721e-05
1.90848e-05
1.90744e-05
1.90809e-05
1.90842e-05
5.64957e-06
5.65132e-06
9.56147e-06
4.23822e-06
3.64684e-06
9.34047e-07
2.29524e-06
3.64725e-06
9.33977e-07
2.29518e-06
5.65113e-06
5.64974e-06
1.90821e-05
3.64739e-06
9.34033e-07
2.2953e-06
9.56234e-06
4.2383e-06
9.34071e-07
3.6473e-06
2.29524e-06
4.23898e-06
9.56205e-06
4.23848e-06
2.29542e-06
9.34114e-07
3.64691e-06
1.18656e-06
2.29525e-06
9.35019e-07
3.64729e-06
4.23886e-06
9.56218e-06
4.23831e-06
9.56676e-06
5.65113e-06
5.64973e-06
1.90821e-05
2.29545e-06
9.34112e-07
3.64742e-06
1.18656e-06
2.29524e-06
9.35039e-07
3.64781e-06
4.23902e-06
9.5623e-06
4.23852e-06
4.23898e-06
9.56273e-06
4.23853e-06
9.56772e-06
1.90831e-05
1.90933e-05
1.90854e-05
1.90956e-05
1.26406e-05
1.12333e-05
4.88177e-06
4.23635e-06
1.12311e-05
4.88186e-06
1.26431e-05
2.27383e-05
9.55193e-06
7.2392e-06
7.23901e-06
2.27313e-05
2.27378e-05
7.24029e-06
9.55262e-06
7.24048e-06
2.27447e-05
1.26393e-05
4.23563e-06
1.12276e-05
4.88111e-06
1.12298e-05
4.88102e-06
1.26368e-05
1.90659e-05
1.90666e-05
1.26408e-05
4.88179e-06
1.12335e-05
4.23647e-06
4.88189e-06
1.12313e-05
1.26433e-05
2.27381e-05
9.55318e-06
7.23925e-06
7.23906e-06
2.27311e-05
2.27376e-05
7.24034e-06
9.55422e-06
7.24053e-06
2.27445e-05
1.26394e-05
4.2357e-06
4.88114e-06
1.12278e-05
4.88105e-06
1.12301e-05
1.26369e-05
1.90673e-05
1.9068e-05
9.95764e-06
2.2374e-05
2.23733e-05
2.23678e-05
2.23671e-05
9.95734e-06
4.70061e-06
2.97315e-06
5.64522e-06
9.91402e-06
2.97297e-06
9.91657e-06
4.70093e-06
4.7064e-06
2.97432e-06
5.64696e-06
9.91914e-06
2.97416e-06
9.92107e-06
4.7067e-06
4.70165e-06
9.9195e-06
5.64635e-06
2.97339e-06
2.97357e-06
9.91698e-06
4.70132e-06
4.70741e-06
9.92411e-06
5.64809e-06
2.97457e-06
2.97474e-06
9.92192e-06
4.70711e-06
9.95553e-06
2.23619e-05
2.23612e-05
2.23682e-05
2.23675e-05
9.95583e-06
2.27638e-05
7.24427e-06
9.56349e-06
2.27569e-05
7.24406e-06
1.26545e-05
4.23824e-06
1.12416e-05
4.88401e-06
1.26521e-05
1.12439e-05
4.8839e-06
1.9088e-05
2.27635e-05
7.24431e-06
9.56465e-06
2.27567e-05
7.24409e-06
1.26546e-05
4.23831e-06
4.88404e-06
1.12419e-05
1.26522e-05
4.88393e-06
1.1244e-05
1.90894e-05
9.96473e-06
2.23969e-05
2.23962e-05
2.23908e-05
2.23901e-05
9.96436e-06
4.70332e-06
2.9747e-06
9.92569e-06
5.64957e-06
4.70369e-06
2.9745e-06
9.92819e-06
4.70909e-06
2.97587e-06
9.93047e-06
5.65131e-06
4.70944e-06
2.97569e-06
9.93294e-06
9.96263e-06
2.23851e-05
2.23844e-05
9.96299e-06
2.23913e-05
2.23905e-05
4.70431e-06
9.93101e-06
5.65062e-06
2.97483e-06
2.97503e-06
9.92847e-06
4.70395e-06
4.71009e-06
9.93582e-06
5.65239e-06
2.97602e-06
2.97621e-06
9.93329e-06
4.70974e-06
1.90636e-05
1.90643e-05
1.90669e-05
1.90676e-05
9.95767e-06
2.23735e-05
2.23728e-05
2.23672e-05
2.23665e-05
9.95735e-06
4.70047e-06
2.97309e-06
5.64515e-06
9.91368e-06
9.91625e-06
2.97292e-06
4.70084e-06
4.70627e-06
2.97424e-06
5.64695e-06
9.91878e-06
9.92135e-06
2.97406e-06
4.70662e-06
4.70156e-06
9.91918e-06
5.64631e-06
2.97333e-06
9.91665e-06
4.70118e-06
2.97352e-06
4.70734e-06
9.92428e-06
5.64806e-06
2.97448e-06
9.92175e-06
4.70698e-06
2.97466e-06
9.95554e-06
2.23613e-05
2.23606e-05
2.23676e-05
2.23669e-05
9.95585e-06
1.90754e-05
1.90747e-05
1.90787e-05
1.9078e-05
9.95914e-06
2.2373e-05
2.23723e-05
9.95948e-06
2.23793e-05
2.23785e-05
4.70294e-06
2.9741e-06
5.6485e-06
9.92501e-06
9.92246e-06
2.9743e-06
4.70255e-06
4.70872e-06
2.97525e-06
5.65025e-06
9.93011e-06
9.92757e-06
2.97544e-06
4.70835e-06
4.70188e-06
9.9196e-06
2.97392e-06
5.64736e-06
4.70226e-06
9.92208e-06
2.97373e-06
4.70767e-06
9.9247e-06
2.97506e-06
5.64915e-06
4.70804e-06
9.92718e-06
2.97488e-06
9.96126e-06
2.2385e-05
2.23843e-05
2.23788e-05
2.23781e-05
9.96092e-06
1.26408e-05
1.12332e-05
4.88167e-06
4.23629e-06
1.1231e-05
4.88171e-06
1.26435e-05
2.27386e-05
9.55211e-06
7.23787e-06
7.23772e-06
2.27317e-05
2.27382e-05
7.23899e-06
9.55281e-06
7.23915e-06
2.2745e-05
1.26398e-05
4.23559e-06
1.12275e-05
4.88096e-06
1.12297e-05
4.88093e-06
1.26366e-05
1.26469e-05
1.12346e-05
4.88259e-06
4.23697e-06
1.26445e-05
1.12368e-05
4.8825e-06
2.27506e-05
9.55842e-06
7.24281e-06
2.27574e-05
7.24302e-06
2.27511e-05
7.24176e-06
9.55773e-06
2.27442e-05
7.24156e-06
1.26483e-05
4.23765e-06
1.12403e-05
4.88321e-06
1.26508e-05
1.12381e-05
4.88331e-06
1.26472e-05
1.12345e-05
4.88243e-06
4.23692e-06
1.26446e-05
1.12368e-05
4.88239e-06
2.27509e-05
9.55861e-06
7.24151e-06
7.24168e-06
2.27578e-05
2.27514e-05
7.24043e-06
9.55792e-06
2.27446e-05
7.24026e-06
1.26484e-05
4.23759e-06
1.12402e-05
4.88309e-06
1.1238e-05
4.88314e-06
1.26509e-05
9.95769e-06
2.23732e-05
2.23737e-05
2.23669e-05
2.23674e-05
9.95735e-06
4.70636e-06
2.97419e-06
5.6466e-06
9.91874e-06
9.92063e-06
2.97402e-06
4.70667e-06
4.70054e-06
2.97316e-06
5.64535e-06
9.91416e-06
2.97298e-06
9.91666e-06
4.70089e-06
4.70739e-06
9.92356e-06
5.64787e-06
2.97443e-06
9.92168e-06
2.97461e-06
4.70706e-06
4.70161e-06
9.91963e-06
5.64648e-06
2.97339e-06
2.97358e-06
9.91709e-06
4.70125e-06
9.95554e-06
2.2361e-05
2.23616e-05
2.23673e-05
2.23679e-05
9.95588e-06
1.90649e-05
1.90656e-05
1.90776e-05
1.90771e-05
9.95914e-06
2.23727e-05
2.23732e-05
9.9595e-06
2.2379e-05
2.23795e-05
4.70877e-06
2.97521e-06
5.65006e-06
9.92943e-06
2.9754e-06
9.92751e-06
4.70842e-06
4.70299e-06
2.97417e-06
5.64867e-06
9.92538e-06
9.92292e-06
2.97437e-06
4.70261e-06
4.70775e-06
9.92464e-06
2.97501e-06
5.64882e-06
2.97483e-06
4.70809e-06
9.92654e-06
4.70194e-06
9.92007e-06
2.97398e-06
5.64756e-06
4.70231e-06
9.92251e-06
2.97379e-06
9.96129e-06
2.23847e-05
2.23853e-05
2.23785e-05
2.2379e-05
9.96092e-06
1.90766e-05
1.9076e-05
1.26409e-05
1.12334e-05
4.88162e-06
4.2364e-06
1.12312e-05
4.8817e-06
1.26434e-05
2.27379e-05
9.55292e-06
7.23759e-06
7.2374e-06
2.2731e-05
2.27374e-05
7.23868e-06
9.55362e-06
7.23886e-06
2.27443e-05
1.26396e-05
4.23563e-06
1.12277e-05
4.88096e-06
1.123e-05
4.88089e-06
1.2637e-05
1.26471e-05
4.88262e-06
1.12348e-05
4.23703e-06
1.26446e-05
4.88252e-06
1.12371e-05
2.27504e-05
9.56004e-06
7.24285e-06
2.27572e-05
7.24306e-06
2.27509e-05
7.2418e-06
9.55903e-06
2.2744e-05
7.2416e-06
1.26484e-05
4.23774e-06
4.88324e-06
1.12406e-05
1.26509e-05
4.88334e-06
1.12383e-05
1.26471e-05
1.12347e-05
4.88243e-06
4.23695e-06
1.26447e-05
1.1237e-05
4.88235e-06
2.27502e-05
9.55942e-06
7.2412e-06
7.2414e-06
2.27571e-05
2.27507e-05
7.24014e-06
9.55873e-06
2.27439e-05
7.23995e-06
1.26485e-05
4.23767e-06
1.12404e-05
4.88306e-06
1.12382e-05
4.88314e-06
1.2651e-05
1.26395e-05
4.88177e-06
1.12338e-05
4.23657e-06
4.88198e-06
1.12308e-05
1.26433e-05
2.2737e-05
9.5527e-06
7.23902e-06
7.23863e-06
2.27298e-05
2.27363e-05
7.23991e-06
9.5534e-06
7.2403e-06
2.27434e-05
1.26395e-05
4.23582e-06
4.88124e-06
1.12274e-05
4.88104e-06
1.12303e-05
1.26357e-05
1.26406e-05
1.12336e-05
4.88161e-06
4.23638e-06
1.12307e-05
4.88167e-06
1.26434e-05
2.2738e-05
9.5526e-06
7.23742e-06
7.23724e-06
2.2731e-05
2.27375e-05
7.23851e-06
9.55351e-06
7.23871e-06
2.27444e-05
1.26394e-05
4.2357e-06
1.12272e-05
4.88093e-06
1.12301e-05
4.88087e-06
1.26369e-05
1.26471e-05
4.8827e-06
1.12344e-05
4.23713e-06
1.26434e-05
4.88249e-06
1.12373e-05
2.2749e-05
9.55919e-06
7.24242e-06
7.24283e-06
2.27562e-05
2.27498e-05
7.24157e-06
9.5585e-06
2.27427e-05
7.24117e-06
1.26472e-05
4.23786e-06
4.8832e-06
1.12408e-05
4.88341e-06
1.12378e-05
1.26509e-05
1.26473e-05
1.12342e-05
4.88239e-06
4.23702e-06
1.26443e-05
1.12371e-05
4.88234e-06
2.27503e-05
9.55935e-06
7.24103e-06
7.24123e-06
2.27571e-05
2.27508e-05
7.23998e-06
9.55831e-06
2.27439e-05
7.23978e-06
1.26479e-05
4.23768e-06
1.12404e-05
4.88305e-06
1.12379e-05
4.8831e-06
1.26512e-05
9.95721e-06
2.23726e-05
2.2373e-05
2.23664e-05
2.23668e-05
9.95687e-06
4.70631e-06
2.97422e-06
5.64677e-06
9.91846e-06
9.92085e-06
2.97409e-06
4.70662e-06
4.70038e-06
2.97313e-06
5.64534e-06
9.91372e-06
2.97296e-06
9.91627e-06
4.70069e-06
4.70734e-06
9.92386e-06
5.64788e-06
2.97451e-06
9.92132e-06
2.97464e-06
4.70702e-06
4.70141e-06
9.9192e-06
5.64649e-06
2.97338e-06
2.97355e-06
9.91669e-06
4.70108e-06
9.95506e-06
2.23605e-05
2.23609e-05
2.23668e-05
2.23672e-05
9.95539e-06
1.90649e-05
1.90656e-05
1.90791e-05
1.90784e-05
9.95866e-06
2.23722e-05
2.23726e-05
9.95901e-06
2.23784e-05
2.23788e-05
4.70872e-06
2.97528e-06
5.65006e-06
9.92966e-06
2.97543e-06
9.92717e-06
4.70838e-06
4.70279e-06
2.97415e-06
5.64868e-06
9.92499e-06
9.92249e-06
2.97433e-06
4.70245e-06
4.70771e-06
9.92432e-06
2.97504e-06
5.64898e-06
2.9749e-06
4.70804e-06
9.92678e-06
4.70178e-06
9.91964e-06
2.97395e-06
5.64755e-06
4.70211e-06
9.92211e-06
2.97377e-06
9.9608e-06
2.23842e-05
2.23846e-05
2.2378e-05
2.23784e-05
9.96044e-06
1.90766e-05
1.9076e-05
1.26399e-05
4.88185e-06
1.12337e-05
4.2366e-06
4.88188e-06
1.12308e-05
1.26436e-05
2.27373e-05
9.55277e-06
7.23885e-06
7.23868e-06
2.27304e-05
2.27369e-05
7.23996e-06
9.55364e-06
7.24013e-06
2.27438e-05
1.26397e-05
4.23585e-06
4.88113e-06
1.12273e-05
4.88111e-06
1.12302e-05
1.2636e-05
1.26402e-05
4.8817e-06
1.12336e-05
4.23661e-06
4.88182e-06
1.12306e-05
1.2644e-05
2.27389e-05
9.55338e-06
7.23789e-06
7.23769e-06
2.2732e-05
2.27384e-05
7.23897e-06
9.55407e-06
7.23918e-06
2.27454e-05
1.26401e-05
4.23579e-06
4.88108e-06
1.12271e-05
4.88096e-06
1.12301e-05
1.26363e-05
1.26474e-05
4.88261e-06
1.12343e-05
4.23717e-06
1.26438e-05
4.88258e-06
1.12373e-05
2.27497e-05
9.55942e-06
7.24247e-06
7.24266e-06
2.27565e-05
2.27502e-05
7.24141e-06
9.55873e-06
2.27433e-05
7.24122e-06
1.26476e-05
4.2379e-06
4.88329e-06
1.12407e-05
4.88332e-06
1.12378e-05
1.26511e-05
1.26478e-05
4.88255e-06
1.12341e-05
4.23711e-06
1.26441e-05
4.88242e-06
1.12371e-05
2.27512e-05
9.55986e-06
7.24149e-06
7.24171e-06
2.27581e-05
2.27517e-05
7.24045e-06
9.55918e-06
2.27448e-05
7.24023e-06
1.26479e-05
4.23791e-06
4.88313e-06
1.12406e-05
4.88327e-06
1.12376e-05
1.26515e-05
1.90659e-05
1.90665e-05
1.90682e-05
1.90689e-05
9.95913e-06
2.23736e-05
2.23729e-05
9.95944e-06
2.23798e-05
2.23791e-05
4.70303e-06
2.97416e-06
5.64852e-06
9.92532e-06
4.70268e-06
2.97433e-06
9.92279e-06
4.70879e-06
2.97534e-06
5.65027e-06
9.93008e-06
4.70847e-06
2.97552e-06
9.92756e-06
4.70201e-06
9.91994e-06
2.97397e-06
5.64745e-06
4.70235e-06
2.97379e-06
9.9224e-06
4.70779e-06
9.92471e-06
2.97514e-06
5.64917e-06
4.70811e-06
2.97496e-06
9.92713e-06
9.96122e-06
2.23855e-05
2.23848e-05
9.9609e-06
2.23793e-05
2.23786e-05
1.90776e-05
1.90769e-05
1.90799e-05
1.90793e-05
1.90857e-05
1.9089e-05
4.70321e-06
2.97467e-06
9.92534e-06
5.64951e-06
4.70361e-06
9.92793e-06
2.97446e-06
4.709e-06
2.97581e-06
9.93045e-06
5.6513e-06
4.70938e-06
9.93303e-06
2.97561e-06
9.96269e-06
2.23845e-05
2.23838e-05
9.96303e-06
2.23908e-05
2.239e-05
2.27641e-05
7.24293e-06
9.5637e-06
2.27573e-05
7.24275e-06
1.26546e-05
4.23818e-06
1.12414e-05
4.88384e-06
1.12438e-05
1.26522e-05
4.88379e-06
4.70908e-06
2.97576e-06
9.9302e-06
5.65097e-06
9.93246e-06
4.70944e-06
2.97557e-06
4.70328e-06
2.97473e-06
9.92606e-06
5.6497e-06
2.97454e-06
4.70366e-06
9.92808e-06
9.96268e-06
2.23842e-05
2.23847e-05
2.23904e-05
9.96306e-06
2.2391e-05
2.27634e-05
7.24265e-06
9.56437e-06
2.27566e-05
7.24245e-06
1.26548e-05
4.23824e-06
1.12417e-05
4.88384e-06
1.12439e-05
1.26523e-05
4.88376e-06
1.26549e-05
4.23909e-06
1.12477e-05
4.88481e-06
1.12447e-05
2.27625e-05
7.24407e-06
9.56425e-06
7.24366e-06
2.27554e-05
1.26547e-05
4.23838e-06
4.88411e-06
1.12413e-05
4.88389e-06
1.2651e-05
1.12442e-05
2.27616e-05
1.26552e-05
4.23892e-06
1.12471e-05
4.88442e-06
1.1245e-05
4.88448e-06
1.26591e-05
2.27634e-05
7.24248e-06
9.56399e-06
2.27566e-05
7.24226e-06
1.26551e-05
4.23827e-06
1.12415e-05
4.8838e-06
1.26516e-05
1.12438e-05
4.88374e-06
2.27629e-05
7.24348e-06
9.56503e-06
7.24371e-06
2.27697e-05
4.70904e-06
2.97579e-06
9.9301e-06
5.65111e-06
9.93253e-06
4.70938e-06
2.97563e-06
4.70311e-06
2.97469e-06
9.92537e-06
5.64971e-06
2.97451e-06
4.70344e-06
9.92781e-06
9.9622e-06
2.23837e-05
2.23841e-05
2.23899e-05
9.96257e-06
2.23903e-05
1.90869e-05
1.2655e-05
4.23913e-06
4.88466e-06
1.12476e-05
4.8847e-06
1.12447e-05
1.26589e-05
2.27628e-05
7.24391e-06
9.56444e-06
7.24371e-06
2.2756e-05
1.2655e-05
4.23842e-06
4.88402e-06
1.12413e-05
4.88398e-06
1.26514e-05
1.12442e-05
2.27623e-05
7.24494e-06
7.24514e-06
2.27691e-05
1.2656e-05
4.23914e-06
4.88452e-06
1.12474e-05
4.88466e-06
1.12444e-05
1.26588e-05
2.27644e-05
7.24296e-06
9.5649e-06
2.27575e-05
7.24273e-06
1.26553e-05
4.23837e-06
4.88397e-06
1.12411e-05
1.26518e-05
4.88383e-06
1.1244e-05
2.27638e-05
7.24395e-06
9.56555e-06
7.24419e-06
2.27706e-05
1.90879e-05
1.90885e-05
1.90902e-05
1.90908e-05
4.41764e-07
4.41703e-07
6.53433e-07
4.43657e-07
4.43585e-07
2.35636e-07
2.33706e-07
2.8269e-06
1.96714e-06
1.96737e-06
1.41372e-06
1.96646e-06
1.96668e-06
2.8272e-06
4.49138e-07
4.49071e-07
2.43236e-07
2.41363e-07
2.82817e-06
1.96865e-06
1.96887e-06
1.41661e-06
2.82851e-06
1.96793e-06
1.96816e-06
2.82685e-06
1.96714e-06
1.96735e-06
1.41367e-06
1.96647e-06
1.96666e-06
2.82715e-06
2.82818e-06
1.41734e-06
1.96761e-06
1.96781e-06
1.96831e-06
1.96852e-06
2.82786e-06
2.82687e-06
1.96726e-06
1.96719e-06
1.41365e-06
1.9665e-06
1.96657e-06
2.82719e-06
2.82822e-06
1.41732e-06
1.96771e-06
1.96765e-06
1.96843e-06
1.96836e-06
2.82788e-06
2.82684e-06
1.9673e-06
1.9672e-06
1.41373e-06
1.96652e-06
1.96661e-06
2.82714e-06
2.82816e-06
1.4174e-06
1.96776e-06
1.96767e-06
1.96847e-06
1.96837e-06
2.82785e-06
2.82822e-06
1.41739e-06
1.9676e-06
1.96783e-06
2.82792e-06
1.96831e-06
1.96854e-06
2.82816e-06
1.96865e-06
1.96886e-06
1.41655e-06
2.82848e-06
1.96795e-06
1.96815e-06
2.82817e-06
1.96877e-06
1.9687e-06
1.41651e-06
1.96797e-06
2.82852e-06
1.96805e-06
2.82814e-06
1.96881e-06
1.96871e-06
1.41661e-06
1.968e-06
2.82846e-06
1.96809e-06
4.41751e-07
4.4174e-07
6.5345e-07
4.43654e-07
4.43617e-07
2.35647e-07
2.33718e-07
4.41845e-07
4.41837e-07
6.53564e-07
4.43726e-07
4.43727e-07
2.35711e-07
2.33782e-07
4.41881e-07
4.41801e-07
6.53524e-07
4.43738e-07
4.4372e-07
2.35725e-07
2.33785e-07
6.54992e-07
4.47342e-07
4.47269e-07
4.4552e-07
4.4546e-07
2.37562e-07
2.39464e-07
6.54983e-07
4.47339e-07
4.47301e-07
4.45506e-07
4.45498e-07
2.37573e-07
2.39475e-07
6.55131e-07
4.47408e-07
4.47412e-07
4.45602e-07
4.45592e-07
2.37638e-07
2.3954e-07
6.55113e-07
4.47418e-07
4.4741e-07
4.45641e-07
4.4555e-07
2.3764e-07
2.39555e-07
1.66433e-06
2.53949e-06
1.54153e-06
2.29413e-06
2.5397e-06
1.54239e-06
1.66304e-06
1.84152e-06
2.2224e-06
3.64429e-06
3.02092e-06
2.22191e-06
3.02055e-06
1.84264e-06
1.84315e-06
3.02102e-06
3.64513e-06
2.22227e-06
2.22276e-06
3.0214e-06
1.84205e-06
1.66249e-06
2.29359e-06
2.5393e-06
1.54181e-06
2.5391e-06
1.54096e-06
1.66383e-06
1.6644e-06
1.5416e-06
2.53959e-06
2.29417e-06
1.54244e-06
2.53979e-06
1.66323e-06
1.84165e-06
2.22243e-06
3.64433e-06
3.02096e-06
2.22196e-06
3.02064e-06
1.84272e-06
1.84323e-06
3.02111e-06
3.64517e-06
2.22231e-06
2.2228e-06
3.02143e-06
1.8422e-06
1.66274e-06
2.29363e-06
1.54186e-06
2.53939e-06
1.54103e-06
2.5392e-06
1.66389e-06
2.82756e-06
1.41594e-06
1.96687e-06
1.96709e-06
1.96756e-06
1.96779e-06
2.82725e-06
4.49124e-07
4.49117e-07
4.50843e-07
2.43248e-07
2.41375e-07
4.49216e-07
4.49207e-07
4.50961e-07
2.43312e-07
2.4144e-07
4.4926e-07
4.49159e-07
6.59528e-07
4.50952e-07
4.50977e-07
2.43329e-07
2.4144e-07
1.6661e-06
2.29562e-06
2.54088e-06
1.5435e-06
2.54109e-06
1.54443e-06
1.66474e-06
1.84349e-06
2.22374e-06
3.02271e-06
3.6468e-06
1.84455e-06
2.22321e-06
3.02233e-06
1.66444e-06
2.29514e-06
2.54078e-06
1.54395e-06
1.66566e-06
2.54054e-06
1.54305e-06
1.66624e-06
2.29567e-06
1.54362e-06
2.54096e-06
1.54446e-06
2.54118e-06
1.6649e-06
1.84364e-06
2.22376e-06
3.02275e-06
3.64685e-06
1.84463e-06
2.22325e-06
3.02242e-06
1.66456e-06
2.29519e-06
1.544e-06
2.54086e-06
1.66578e-06
1.54316e-06
2.54065e-06
1.84503e-06
3.02282e-06
3.02315e-06
1.84403e-06
2.8288e-06
1.41871e-06
1.96823e-06
1.96844e-06
1.96896e-06
1.96918e-06
2.82846e-06
2.82751e-06
1.41588e-06
1.96687e-06
1.96707e-06
2.82721e-06
1.96755e-06
1.96776e-06
2.82754e-06
1.41516e-06
1.96794e-06
1.96815e-06
2.82786e-06
1.96725e-06
1.96745e-06
1.66433e-06
2.5395e-06
1.5415e-06
2.29407e-06
2.53972e-06
1.54236e-06
1.66293e-06
1.84147e-06
2.22235e-06
3.64412e-06
3.02096e-06
3.02057e-06
2.22186e-06
1.84271e-06
1.84324e-06
3.02105e-06
3.64496e-06
2.22223e-06
3.02144e-06
2.22272e-06
1.84196e-06
1.66244e-06
2.29354e-06
2.53932e-06
1.54178e-06
2.53911e-06
1.54092e-06
1.66383e-06
1.6642e-06
2.53938e-06
1.54146e-06
2.29402e-06
2.53956e-06
1.5423e-06
1.66302e-06
1.84145e-06
2.22256e-06
3.64449e-06
3.02064e-06
3.02031e-06
2.22208e-06
1.84252e-06
1.84304e-06
3.02078e-06
3.64538e-06
2.22243e-06
3.02111e-06
1.84201e-06
2.22293e-06
1.66253e-06
2.29348e-06
2.53916e-06
1.54172e-06
2.53898e-06
1.54089e-06
1.66369e-06
1.66341e-06
2.5401e-06
1.54291e-06
2.29437e-06
1.66482e-06
2.53988e-06
1.54204e-06
1.84432e-06
2.22287e-06
3.64623e-06
3.02194e-06
2.22339e-06
3.02234e-06
1.84278e-06
1.84239e-06
3.0219e-06
2.22306e-06
3.64542e-06
2.22256e-06
1.84376e-06
3.0215e-06
1.66525e-06
2.29487e-06
2.54024e-06
1.54256e-06
2.54046e-06
1.54343e-06
1.66393e-06
1.66346e-06
2.53994e-06
1.54285e-06
2.29431e-06
1.66467e-06
2.53975e-06
1.542e-06
1.844e-06
2.22308e-06
3.64665e-06
3.02168e-06
3.02202e-06
2.2236e-06
1.84299e-06
1.84253e-06
3.02157e-06
2.22328e-06
3.64579e-06
1.84353e-06
3.02123e-06
2.22277e-06
1.66512e-06
2.29482e-06
2.5401e-06
1.54252e-06
2.5403e-06
1.54337e-06
1.66391e-06
2.82756e-06
1.41586e-06
1.96697e-06
1.96691e-06
1.96761e-06
1.96767e-06
2.82723e-06
2.82757e-06
1.41514e-06
1.96806e-06
1.968e-06
1.96735e-06
2.8279e-06
1.96729e-06
1.66474e-06
2.53953e-06
1.54144e-06
2.29414e-06
2.53975e-06
1.54243e-06
1.66269e-06
1.84142e-06
2.22268e-06
3.64469e-06
3.02107e-06
3.02069e-06
2.22219e-06
1.84277e-06
1.84336e-06
3.02116e-06
3.64552e-06
2.22255e-06
3.02155e-06
2.22305e-06
1.84187e-06
1.66223e-06
2.29355e-06
2.53935e-06
1.54183e-06
2.53913e-06
1.54086e-06
1.66408e-06
1.66462e-06
1.54141e-06
2.53939e-06
2.29408e-06
1.54239e-06
2.53959e-06
1.66262e-06
1.84134e-06
2.22262e-06
3.6446e-06
3.02066e-06
3.0203e-06
2.22215e-06
1.84263e-06
1.8432e-06
3.02077e-06
3.64542e-06
2.2225e-06
3.02113e-06
1.8418e-06
2.22298e-06
1.66217e-06
2.29349e-06
1.5418e-06
2.5392e-06
1.54082e-06
2.53899e-06
1.66397e-06
1.6631e-06
2.54013e-06
1.54298e-06
2.29438e-06
1.66524e-06
2.5399e-06
1.542e-06
1.8446e-06
2.2232e-06
3.64679e-06
3.02205e-06
2.22372e-06
3.02246e-06
1.84274e-06
1.84228e-06
3.02201e-06
2.22339e-06
3.64599e-06
2.22289e-06
1.84396e-06
3.02161e-06
1.66579e-06
2.29493e-06
2.54026e-06
1.54251e-06
2.54049e-06
1.54351e-06
1.66361e-06
1.66304e-06
1.54295e-06
2.53996e-06
2.29433e-06
1.66514e-06
1.54196e-06
2.53977e-06
1.8444e-06
2.22315e-06
3.64669e-06
3.02166e-06
3.02202e-06
2.22365e-06
1.84264e-06
1.84221e-06
3.02158e-06
2.22333e-06
3.6459e-06
1.84378e-06
3.02123e-06
2.22284e-06
1.66569e-06
2.29487e-06
1.54248e-06
2.54012e-06
1.54347e-06
2.54033e-06
1.66354e-06
1.66426e-06
1.5415e-06
2.53938e-06
2.29408e-06
1.54236e-06
2.53959e-06
1.66291e-06
1.84141e-06
2.22234e-06
3.64421e-06
3.02054e-06
2.22185e-06
3.02017e-06
1.84254e-06
1.84305e-06
3.02064e-06
3.64505e-06
2.22221e-06
2.22271e-06
3.02102e-06
1.84191e-06
1.6624e-06
2.29356e-06
1.54178e-06
2.53919e-06
1.54093e-06
2.53899e-06
1.66376e-06
1.66356e-06
2.54008e-06
1.54293e-06
2.29442e-06
1.66479e-06
2.53986e-06
1.54207e-06
1.84409e-06
2.22291e-06
3.6464e-06
3.02191e-06
1.84309e-06
2.22343e-06
3.02229e-06
1.84258e-06
3.02185e-06
2.22311e-06
3.64558e-06
1.84363e-06
2.2226e-06
3.02147e-06
1.66521e-06
2.29492e-06
2.54021e-06
1.54257e-06
1.66403e-06
2.54044e-06
1.54345e-06
1.66338e-06
1.54291e-06
2.53997e-06
2.29437e-06
1.66473e-06
1.54202e-06
2.53975e-06
1.84402e-06
2.22285e-06
3.64631e-06
3.02152e-06
3.02191e-06
2.22336e-06
1.84276e-06
1.84235e-06
3.02148e-06
2.22305e-06
3.64551e-06
1.84354e-06
3.02109e-06
2.22254e-06
1.66515e-06
2.29488e-06
1.54252e-06
2.54009e-06
1.54344e-06
2.54032e-06
1.66371e-06
2.8275e-06
1.41595e-06
1.96702e-06
1.96693e-06
1.96762e-06
1.96771e-06
2.82719e-06
2.82753e-06
1.41523e-06
1.9681e-06
1.96801e-06
1.9674e-06
2.82784e-06
1.96731e-06
1.66428e-06
1.5415e-06
2.53938e-06
2.29408e-06
1.54237e-06
2.5396e-06
1.66287e-06
1.84141e-06
2.22268e-06
3.64472e-06
3.02072e-06
2.2222e-06
3.02036e-06
1.84263e-06
1.84313e-06
3.02083e-06
3.64555e-06
2.22255e-06
2.22304e-06
3.02119e-06
1.84194e-06
1.66238e-06
2.29355e-06
1.54179e-06
2.5392e-06
1.54093e-06
2.53899e-06
1.66379e-06
1.66367e-06
1.54298e-06
2.54016e-06
2.29446e-06
1.66486e-06
1.54214e-06
2.53997e-06
1.84418e-06
2.22296e-06
3.64643e-06
3.022e-06
1.8432e-06
2.22346e-06
3.02233e-06
1.84273e-06
3.02189e-06
2.22314e-06
3.64563e-06
1.84371e-06
2.22265e-06
3.02156e-06
1.6653e-06
2.29496e-06
1.54266e-06
2.54032e-06
1.66413e-06
1.54351e-06
2.54052e-06
1.6634e-06
1.54291e-06
2.53997e-06
2.29437e-06
1.66474e-06
1.54205e-06
2.53975e-06
1.84405e-06
2.2232e-06
3.64682e-06
3.02172e-06
3.02208e-06
2.2237e-06
1.84295e-06
1.84244e-06
3.02164e-06
2.22338e-06
3.64601e-06
1.8436e-06
3.02128e-06
2.22288e-06
1.66517e-06
2.29488e-06
1.54257e-06
2.54011e-06
1.54343e-06
2.54033e-06
1.66392e-06
2.82759e-06
1.41522e-06
1.96794e-06
1.96817e-06
2.82791e-06
1.96725e-06
1.96747e-06
1.84318e-06
2.22369e-06
3.02277e-06
3.64665e-06
3.02237e-06
1.8449e-06
2.22316e-06
1.66442e-06
2.29511e-06
2.5408e-06
1.54392e-06
2.54057e-06
1.66566e-06
1.54307e-06
1.84339e-06
2.2239e-06
3.02244e-06
3.647e-06
1.84448e-06
3.0221e-06
2.22337e-06
1.66431e-06
2.29506e-06
2.54064e-06
1.54387e-06
1.66558e-06
2.54044e-06
1.54303e-06
1.84309e-06
2.22402e-06
3.02288e-06
3.64721e-06
3.02248e-06
1.84506e-06
2.22349e-06
1.66395e-06
2.29512e-06
2.54083e-06
1.544e-06
2.5406e-06
1.6662e-06
1.54301e-06
1.84299e-06
2.22395e-06
3.02244e-06
3.64712e-06
1.84492e-06
3.02208e-06
2.22344e-06
1.6639e-06
2.29507e-06
1.54396e-06
2.54066e-06
1.6661e-06
1.54298e-06
2.54046e-06
1.6665e-06
2.2956e-06
1.5434e-06
2.54072e-06
1.54442e-06
2.54098e-06
1.66393e-06
1.84309e-06
2.22365e-06
3.02233e-06
3.64672e-06
2.22312e-06
1.84455e-06
3.02194e-06
1.66393e-06
2.29508e-06
1.54394e-06
2.54066e-06
1.54299e-06
1.66574e-06
2.54042e-06
1.84517e-06
3.0223e-06
3.6475e-06
2.22338e-06
2.22393e-06
3.02273e-06
1.8434e-06
1.66601e-06
2.29558e-06
1.54354e-06
2.54076e-06
1.54439e-06
2.54099e-06
1.66466e-06
1.84345e-06
2.224e-06
3.0225e-06
3.64723e-06
2.22348e-06
1.84448e-06
3.02213e-06
1.66433e-06
2.29511e-06
1.54392e-06
2.54067e-06
1.54306e-06
1.66557e-06
2.54043e-06
1.8449e-06
3.02255e-06
3.64801e-06
2.22375e-06
2.22428e-06
3.02291e-06
1.84381e-06
8.63145e-07
1.14839e-06
8.63019e-07
9.16206e-06
3.47525e-06
1.84289e-05
5.46341e-06
5.46216e-06
1.84268e-05
3.47474e-06
9.16216e-06
2.20553e-05
9.159e-06
7.08871e-06
7.08905e-06
2.20618e-05
1.84239e-05
4.54491e-06
2.81253e-06
5.46335e-06
9.50425e-06
2.81156e-06
9.5013e-06
4.54499e-06
4.53882e-06
2.81143e-06
5.46186e-06
9.50001e-06
9.49637e-06
2.81045e-06
4.5389e-06
9.73635e-06
2.17296e-05
2.17299e-05
2.17233e-05
2.17236e-05
9.73596e-06
1.84218e-05
2.20525e-05
9.15916e-06
7.08947e-06
7.08999e-06
2.20595e-05
2.66779e-06
1.14962e-06
1.76772e-06
1.76761e-06
1.76816e-06
1.76808e-06
2.6687e-06
1.61715e-06
2.03265e-06
3.47473e-06
2.8602e-06
2.85997e-06
2.03176e-06
1.61756e-06
1.61713e-06
2.03226e-06
3.47454e-06
2.86066e-06
2.03163e-06
2.86001e-06
1.61755e-06
3.23777e-07
8.69025e-07
8.69174e-07
1.1543e-06
3.3981e-07
8.92451e-07
8.92595e-07
1.17374e-06
3.56087e-07
9.14881e-07
9.1502e-07
1.19216e-06
3.72527e-07
9.36304e-07
9.36438e-07
1.20966e-06
3.8905e-07
9.56713e-07
9.56843e-07
1.22624e-06
4.05576e-07
9.76128e-07
9.76255e-07
1.24192e-06
4.22025e-07
9.94556e-07
9.9468e-07
1.25689e-06
4.38321e-07
1.012e-06
1.01212e-06
1.27107e-06
4.54392e-07
1.02847e-06
1.02859e-06
1.28449e-06
4.70172e-07
1.044e-06
1.04412e-06
1.29718e-06
4.85602e-07
1.05859e-06
1.05871e-06
1.30918e-06
5.00628e-07
1.07228e-06
1.0724e-06
1.32045e-06
5.15205e-07
1.08509e-06
1.08521e-06
1.33102e-06
5.2929e-07
1.09704e-06
1.09717e-06
1.34093e-06
5.42847e-07
1.10817e-06
1.10829e-06
1.35017e-06
5.55847e-07
1.1185e-06
1.11861e-06
1.35883e-06
5.68262e-07
1.12805e-06
1.12816e-06
1.3669e-06
5.80073e-07
1.13684e-06
1.13695e-06
1.37438e-06
5.91265e-07
1.14491e-06
1.14502e-06
1.3813e-06
6.01828e-07
1.15227e-06
1.15238e-06
1.38768e-06
6.11755e-07
1.15894e-06
1.15905e-06
1.39352e-06
6.21043e-07
1.16495e-06
1.16506e-06
1.39883e-06
6.29691e-07
1.17033e-06
1.17044e-06
1.40365e-06
6.37703e-07
1.17509e-06
1.1752e-06