/*--------------------------------*- C++ -*----------------------------------*\
| =========                 |                                                 |
| \\      /  F ield         | OpenFOAM: The Open Source CFD Toolbox           |
|  \\    /   O peration     | Version:  2312                                  |
|   \\  /    A nd           | Website:  www.openfoam.com                      |
|    \\/     M anipulation  |                                                 |
\*---------------------------------------------------------------------------*/
FoamFile
{
    version     2.0;
    format      ascii;
    arch        "LSB;label=32;scalar=64";
    class       surfaceScalarField;
    location    "500";
    object      phi;
}
// * * * * * * * * * * * * * * * * * * * * * * * * * * * * * * * * * * * * * //

dimensions      [0 3 -1 0 0 0 0];

oriented        oriented;

internalField   nonuniform List<scalar> 
125567
(
-7.02092e-08
-1.47848e-10
-0.000229369
2.14397e-09
2.99817e-08
-6.90146e-09
-1.97412e-08
-9.80154e-05
1.241e-06
-1.22884e-07
2.69092e-07
-2.15123e-07
-1.19371e-06
2.77494e-07
-2.36801e-07
-0.00113202
-5.54081e-08
-8.52613e-07
9.11305e-07
2.08189e-08
4.35941e-08
-0.000245491
-1.02547e-07
-1.67343e-08
-1.66014e-09
-0.00025013
4.04289e-09
-1.93203e-07
-3.21276e-09
-1.52967e-07
-9.38575e-07
8.31118e-07
-7.56624e-07
1.01143e-06
-0.00115229
-7.01884e-08
-0.00022933
2.99656e-08
2.19953e-09
-4.35425e-08
3.26352e-09
-0.000193597
-0.000250104
-1.93189e-07
4.3436e-09
-4.98661e-08
1.27246e-06
-1.28124e-07
-8.57961e-07
2.69011e-07
9.16508e-07
-2.15182e-07
-1.2279e-06
2.80216e-07
-2.42387e-07
-0.00113153
-1.5872e-07
-9.38606e-07
8.31118e-07
-7.56663e-07
1.01143e-06
-0.00115224
2.32174e-08
-1.67319e-08
-0.000245388
-1.02489e-07
-0.000268079
2.41854e-07
2.46798e-07
1.04918e-08
-0.00027816
-4.61803e-08
1.97769e-08
1.05698e-08
-0.000278297
-4.84392e-08
-6.88979e-09
-9.80381e-05
-0.000193655
3.30183e-09
1.24207e-08
-7.89821e-10
0.000143419
-5.90724e-11
-0.00014343
7.32166e-10
-1.11214e-08
2.17556e-11
2.86566e-08
-0.000229387
-0.000223422
2.88782e-08
4.37029e-09
-7.1718e-08
-0.000171124
-3.39514e-10
1.31679e-11
8.9128e-10
3.30252e-08
-0.000223442
5.57864e-13
-0.000171136
1.46272e-09
1.70155e-08
7.92982e-05
-7.93153e-05
-0.000263317
2.42649e-08
-6.16015e-08
3.32168e-08
-0.000263336
5.01634e-09
1.12717e-08
-9.80317e-05
-7.85126e-10
1.23754e-08
0.000143346
-5.09637e-11
-0.000143358
-1.11198e-08
9.32016e-10
2.86562e-08
-0.000229348
-0.000171089
-1.35357e-10
-0.000223323
2.88263e-08
4.38208e-09
-6.92341e-08
-0.000171101
9.25388e-10
3.05628e-08
-0.000223341
1.50676e-09
1.69722e-08
7.92537e-05
-7.92707e-05
-0.00026319
2.41607e-08
-5.91277e-08
-3.86811e-09
2.25574e-08
-0.000193611
3.0825e-08
-0.000263207
-7.01102e-09
-7.03584e-09
0.000213784
1.22495e-08
1.01427e-08
-0.000213792
-8.05424e-05
-1.22913e-08
-1.1991e-08
-8.05661e-05
-1.22153e-08
-1.20623e-08
9.40964e-09
-8.05589e-05
9.37772e-09
-8.05825e-05
-2.70174e-08
-2.49933e-08
-1.4306e-08
1.5803e-08
0.000221868
2.90719e-08
-0.000221886
-0.000183016
-3.11714e-08
-7.36844e-09
2.03682e-08
1.22048e-08
-0.000278174
-0.000250575
3.60037e-08
-5.49495e-08
-9.97406e-08
-0.000183028
3.19914e-08
6.12504e-08
-0.000250632
-5.75184e-08
1.5783e-08
-1.43003e-08
0.000221957
3.12103e-08
-0.000221979
-0.000183098
-3.11286e-08
2.26e-08
-7.28961e-09
-1.13354e-08
9.70865e-09
-0.00027831
-0.000250749
3.61202e-08
-5.24156e-08
-9.97574e-08
2.93892e-08
6.11783e-08
-0.000250801
-0.00018311
-5.95611e-08
4.96721e-09
-9.80544e-05
2.25703e-08
-0.000193668
-3.90948e-09
2.25816e-09
-0.00121558
-1.00005e-07
-7.51678e-08
-0.00118363
-1.03913e-07
-0.0012147
-1.17896e-07
6.4049e-08
-0.000245527
4.0112e-09
-0.000260376
-2.74011e-08
-0.000260506
8.01128e-09
-1.53064e-07
1.53984e-09
0.000265679
-1.05626e-08
-0.000266455
4.90218e-10
1.3212e-07
3.14475e-10
-0.000250235
-0.000249562
-2.11795e-07
1.03521e-08
-0.000265854
7.05869e-09
-6.60365e-09
7.86474e-10
-0.000249682
3.87822e-09
-0.000266481
2.70718e-08
-1.39145e-07
0.000264003
-0.000264719
-0.000250757
-1.86136e-07
-0.000250855
-2.2503e-09
-1.50437e-07
0.00026561
2.22018e-09
-0.000266398
1.32129e-07
1.40274e-09
-0.000250208
-0.000265837
5.57318e-09
-0.000249476
-2.11734e-07
1.03902e-08
-0.000266459
7.82726e-10
-0.000249595
1.42619e-08
-1.36685e-07
0.000263902
-8.09025e-09
-0.000264613
-0.000250652
-1.88624e-07
4.05259e-09
6.16694e-08
-0.000245419
-2.74209e-08
-0.000260269
-0.000250753
-0.000260399
7.49137e-08
7.75361e-08
0.00024288
-0.000242972
-2.032e-07
-1.98253e-07
-0.000270099
-0.000261131
1.12507e-07
-0.000260784
1.09929e-07
-0.000261087
-0.000261433
1.19243e-07
1.19588e-07
-7.09923e-08
-7.10652e-08
0.00118445
-0.00118455
-1.19689e-06
-1.19556e-07
-5.42629e-08
0.00113224
-2.37055e-07
1.24123e-06
2.7492e-07
9.11259e-07
-2.15457e-07
2.69157e-07
-8.53106e-07
-0.00113226
-1.19423e-06
-1.1963e-07
-4.85419e-08
0.0011321
-2.34338e-07
1.23847e-06
2.74899e-07
9.11263e-07
-2.15454e-07
2.69221e-07
-8.53061e-07
-0.00113213
1.22549e-06
1.18893e-06
-1.9825e-07
-2.00943e-07
0.000268045
-0.000270061
1.21985e-07
1.28025e-07
-0.00118417
-7.42764e-08
-7.43979e-08
-0.00113216
-1.19647e-06
-1.22342e-07
-3.874e-08
-2.36807e-07
1.24106e-06
2.74772e-07
9.11179e-07
-2.15227e-07
-8.52652e-07
2.69069e-07
-0.00113203
-1.19378e-06
-1.22307e-07
-6.63951e-08
-2.36841e-07
1.23833e-06
2.74785e-07
9.11265e-07
-2.15172e-07
-8.52683e-07
2.69132e-07
-0.000270066
1.22772e-06
1.18316e-06
-1.92877e-07
-2.03332e-07
0.000268052
1.23635e-06
1.19443e-06
-1.95728e-07
-2.03521e-07
0.000268099
-0.000270131
-1.28051e-06
-1.2386e-06
0.000270136
-0.000268103
2.39204e-07
2.47073e-07
-4.84983e-08
0.00113168
-2.39805e-07
1.28059e-06
2.77513e-07
9.1396e-07
-2.12754e-07
2.66375e-07
-8.55895e-07
-0.00113171
-1.23381e-06
-1.19231e-07
-4.83971e-08
0.00113175
-2.42707e-07
1.278e-06
2.80334e-07
9.19128e-07
-2.15475e-07
2.69075e-07
-8.61011e-07
-0.00113178
0.00113161
-1.21311e-07
-0.00113164
-4.93605e-08
-1.23603e-06
2.77429e-07
-2.39603e-07
-8.55568e-07
2.66334e-07
-2.12519e-07
9.13975e-07
1.2752e-06
0.00113168
-1.21441e-07
-0.0011317
-4.93454e-08
-1.23348e-06
2.775e-07
-2.42499e-07
-8.60654e-07
2.69042e-07
-2.15219e-07
9.16498e-07
-1.98399e-07
-2.00865e-07
0.000268084
-0.000270115
-1.24113e-06
0.000270118
-0.000268088
2.4197e-07
2.44303e-07
-4.85657e-08
0.00113269
-2.37211e-07
1.23869e-06
2.75027e-07
9.16634e-07
-2.15501e-07
2.69268e-07
-8.58403e-07
-0.00113271
-1.22837e-06
-1.19198e-07
-4.85024e-08
0.00113162
-2.42667e-07
1.27259e-06
2.8036e-07
9.16529e-07
-2.12805e-07
2.66405e-07
-8.58461e-07
-0.00113165
0.00113261
-1.21663e-07
-0.00113264
-4.94143e-08
-1.19411e-06
2.74942e-07
-2.37013e-07
-8.58073e-07
2.69218e-07
-2.15275e-07
9.16634e-07
1.27252e-06
0.00113155
-1.26947e-07
-0.00113157
-4.93614e-08
-1.22806e-06
2.80266e-07
-2.42465e-07
-8.58123e-07
2.66354e-07
-2.12576e-07
9.16523e-07
-1.19428e-07
-4.85108e-08
0.00113126
-2.39784e-07
1.2697e-06
2.775e-07
9.08451e-07
-2.09976e-07
2.63676e-07
-8.50339e-07
-0.00113128
-1.21734e-07
-0.00113219
-4.39491e-08
-1.19658e-06
2.74828e-07
-2.36843e-07
-8.52749e-07
2.69102e-07
9.11306e-07
-2.15218e-07
1.2696e-06
0.00113118
-1.21296e-07
-0.00113121
-4.93423e-08
-1.2252e-06
2.77417e-07
-2.39619e-07
-8.50057e-07
2.66301e-07
-2.09795e-07
9.08415e-07
-1.98481e-07
-2.03436e-07
0.000268068
-0.000270089
-1.23835e-06
0.000270097
-0.000268075
2.41971e-07
2.46904e-07
-1.19565e-07
-4.86064e-08
0.00113224
-2.37175e-07
1.23318e-06
2.74973e-07
9.13717e-07
-2.15458e-07
2.69207e-07
-8.55458e-07
-0.00113227
-1.2165e-07
-0.00113205
-5.49225e-08
-1.1912e-06
2.74813e-07
-2.36904e-07
-8.52759e-07
2.69146e-07
9.113e-07
-2.15237e-07
1.23306e-06
0.00113215
-1.21735e-07
-0.0011322
-3.26429e-08
-1.1886e-06
2.74851e-07
-2.3697e-07
-8.55224e-07
2.69116e-07
-2.15236e-07
9.13798e-07
-0.00026805
2.41725e-07
2.44447e-07
1.23595e-06
1.19402e-06
-1.95538e-07
-2.03335e-07
0.000268105
-5.52261e-08
-2.39587e-07
1.28048e-06
2.77418e-07
9.13936e-07
-2.15184e-07
-8.55472e-07
2.69014e-07
-1.23068e-06
-1.21844e-07
-4.39628e-08
-2.3971e-07
1.27516e-06
2.77453e-07
9.16448e-07
-2.15194e-07
-8.57959e-07
2.69001e-07
-1.98201e-07
-2.00679e-07
0.00026809
-4.97025e-08
-2.36962e-07
1.23858e-06
2.74912e-07
9.16629e-07
-2.15221e-07
-8.57976e-07
2.69207e-07
-1.22798e-06
-1.27604e-07
-4.96438e-08
-2.4241e-07
1.27249e-06
2.80259e-07
9.16518e-07
-2.1251e-07
-8.58028e-07
2.69043e-07
-1.44939e-07
-4.39214e-08
0.00113117
-2.42278e-07
1.26955e-06
2.80212e-07
9.11182e-07
-2.12396e-07
2.69009e-07
-8.49917e-07
-1.98281e-07
-2.03232e-07
0.000268077
-1.22202e-07
-1.56589e-08
0.00113208
-2.31441e-07
1.23842e-06
2.74872e-07
9.13841e-07
-2.1515e-07
2.69087e-07
-8.5517e-07
-1.41498e-10
-7.02601e-08
0.000229341
3.00578e-08
1.97645e-09
-0.000229303
-5.08883e-09
2.25628e-08
0.000193573
-3.79133e-09
-0.000193587
6.78755e-09
-4.3746e-08
0.000193627
3.41372e-09
-0.000193593
3.86223e-11
2.88368e-08
0.000229283
-1.11543e-08
1.19644e-09
-0.000229302
5.16424e-09
1.34413e-08
9.79676e-05
-9.79862e-05
-6.75646e-09
-2.23303e-08
9.80072e-05
-9.79781e-05
-7.02752e-08
-1.42446e-10
0.000229329
1.90641e-09
3.00687e-08
-0.000229291
-5.1363e-09
2.25304e-08
0.000193556
-3.71637e-09
-0.00019357
6.80386e-09
-4.37808e-08
0.00019361
3.4375e-09
-0.000193576
2.88403e-08
1.62089e-10
0.000229271
1.15439e-09
-1.11505e-08
-0.00022929
-7.10312e-08
-7.10123e-08
0.00118423
-0.00118432
-7.10861e-08
-7.10118e-08
0.00118399
-0.00118409
-7.10853e-08
-7.12161e-08
0.00118396
-0.00118406
-0.00118427
-7.93036e-08
-6.77211e-08
0.00118393
-0.00118404
-7.36e-08
-6.7817e-08
0.00118371
-0.0011838
-7.36187e-08
-7.92885e-08
0.00118366
-0.00118377
-7.3613e-08
-6.21298e-08
7.01394e-08
-1.56496e-09
0.00025019
3.80413e-09
-1.93074e-07
-0.000250069
-1.22147e-08
-2.25186e-08
6.65254e-08
0.000245406
6.54495e-09
-0.000245445
0.00115237
3.69009e-09
-1.40118e-07
1.00563e-06
-7.52217e-07
8.2796e-07
-9.31455e-07
-0.00115243
-4.3311e-08
1.24121e-06
0.00113221
-1.20323e-07
-8.52937e-07
2.69148e-07
-2.15359e-07
9.1131e-07
-1.19677e-06
2.74888e-07
-2.36979e-07
2.32637e-08
4.37054e-08
0.000245483
-1.92017e-08
-0.000245425
-1.05084e-07
-3.31475e-09
0.00115233
-1.41695e-07
-9.33895e-07
8.25326e-07
-7.54704e-07
1.00305e-06
-2.87175e-08
1.52784e-09
0.000250056
2.19263e-09
1.32615e-07
-0.000250164
5.14338e-09
1.1137e-08
9.79631e-05
-9.79794e-05
-6.81028e-09
-1.99557e-08
9.80004e-05
-9.79736e-05
-8.60083e-10
7.01341e-08
0.00025018
-1.93069e-07
3.86114e-09
-0.00025006
0.00115219
3.15785e-09
-1.40129e-07
1.00569e-06
-7.54986e-07
8.27957e-07
-9.34191e-07
-0.00115225
-1.2222e-08
-2.25143e-08
6.41324e-08
0.000245398
4.14953e-09
-0.000245432
-4.87735e-08
1.23574e-06
0.00113207
-1.2034e-07
-8.52971e-07
2.69187e-07
-2.15374e-07
9.11314e-07
-1.1914e-06
2.7487e-07
-2.37032e-07
-4.80907e-09
0.00115215
-1.41609e-07
-9.33941e-07
8.28041e-07
-7.54747e-07
1.00576e-06
2.31621e-08
4.37573e-08
0.00024547
-1.67281e-08
-0.000245417
-1.02723e-07
7.7409e-10
-2.87479e-08
0.000250047
1.32656e-07
2.3037e-09
-0.000250154
1.22821e-08
-1.11731e-08
2.48636e-08
0.000278112
-7.02773e-09
-0.000278131
1.22947e-08
-1.11468e-08
2.25478e-08
0.000278037
-7.53037e-09
-0.000278053
-1.26967e-06
-1.23316e-06
0.000270063
-0.000268047
2.41846e-07
2.4458e-07
-2.31528e-08
2.00077e-08
0.000278181
9.93347e-09
-0.000278137
-5.10219e-08
-2.32148e-08
1.99625e-08
0.000278104
1.05178e-08
-0.000278062
-4.87159e-08
-0.000193666
-4.98146e-09
2.25972e-08
-3.91495e-09
0.000193653
-0.00022938
2.04931e-11
2.86808e-08
0.000229361
-1.11377e-08
1.22739e-09
-9.8028e-05
5.04811e-09
1.35577e-08
9.80094e-05
-0.000193649
-5.01754e-09
2.25657e-08
-3.85215e-09
0.000193636
-0.000229368
2.86821e-08
1.69814e-10
0.000229349
9.53564e-10
-1.11257e-08
-6.27518e-08
-5.11466e-08
-7.44483e-08
-9.75044e-08
-3.92279e-08
-4.53128e-08
0.00118348
7.00548e-08
-8.81516e-10
-0.000250126
3.07364e-09
-1.93117e-07
-0.000245518
-1.20992e-08
-2.25532e-08
6.64639e-08
3.98523e-09
0.000245483
0.00115217
-0.00115222
1.36917e-08
-1.5171e-07
1.00593e-06
-7.54009e-07
-9.33295e-07
8.28232e-07
-0.000250217
-2.85454e-08
1.71137e-09
0.000250109
1.99338e-09
1.32114e-07
2.56467e-08
-1.70366e-07
-9.33096e-07
8.31098e-07
-7.53799e-07
1.00876e-06
-9.80213e-05
5.0394e-09
1.12434e-08
9.8005e-05
-1.69114e-09
7.00602e-08
-0.000250114
-1.93088e-07
4.11791e-09
0.00115201
-0.00115205
-2.25572e-08
-1.45932e-07
1.00592e-06
-7.54081e-07
-9.33375e-07
8.28242e-07
-0.000245508
-1.21202e-08
-2.25457e-08
6.40401e-08
4.04018e-09
0.000245475
-0.000250207
2.89321e-10
-2.85873e-08
0.0002501
1.32175e-07
2.34909e-09
-5.79342e-08
-1.53039e-07
-9.33188e-07
8.28292e-07
-7.51173e-07
1.00595e-06
-0.000278232
1.22327e-08
-1.12849e-08
2.26273e-08
-6.93017e-09
0.000278215
-0.000278154
1.21826e-08
-1.12765e-08
2.26019e-08
-7.37106e-09
0.000278138
-1.26471e-06
-1.30802e-06
-0.000268073
2.54525e-07
2.41854e-07
-2.31606e-08
1.98113e-08
1.05039e-08
-0.000278243
-4.84795e-08
-2.32451e-08
1.97455e-08
1.06384e-08
-0.000278163
-4.85062e-08
1.12505e-08
9.79903e-05
-9.80066e-05
-2.00385e-08
9.80276e-05
-9.80008e-05
1.11846e-08
9.79793e-05
-9.79957e-05
-2.00048e-08
9.80167e-05
-9.79899e-05
1.22069e-08
2.48779e-08
0.000278161
-9.55694e-09
-0.000278177
9.8696e-09
2.48144e-08
0.000278093
-6.94557e-09
-0.00027811
0.000270133
-1.28057e-06
-1.23867e-06
-0.0002681
2.39328e-07
2.47198e-07
0.000278228
-2.31301e-08
1.24932e-08
-0.000278186
-5.10039e-08
0.00027816
-2.08346e-08
9.97163e-09
-0.000278118
-5.10106e-08
-1.99349e-08
-6.82998e-09
9.80485e-05
-9.80217e-05
1.13043e-08
5.03237e-09
9.80113e-05
-1.98983e-08
-6.84736e-09
9.80376e-05
-9.80108e-05
1.12426e-08
5.07583e-09
9.80004e-05
1.23612e-06
1.19419e-06
0.000268102
-1.95609e-07
-2.03406e-07
-2.31363e-08
0.000278278
-5.08967e-08
-0.000278237
1.25345e-08
-2.08465e-08
0.000278211
-5.09007e-08
-0.000278169
1.0022e-08
1.21563e-08
-9.49438e-09
2.48991e-08
0.000278212
9.81345e-09
-6.87438e-09
2.48375e-08
0.000278144
-7.02646e-08
0.000229301
3.00567e-08
2.09024e-09
-0.000229263
2.47146e-08
0.00019351
-3.80574e-09
-0.000193525
-4.59617e-08
0.000193565
3.6088e-09
-0.000193529
2.88348e-08
0.000229243
-1.11496e-08
8.92513e-10
-0.000229262
-9.20045e-10
0.000250204
3.12071e-09
-1.93153e-07
-0.000250083
6.65454e-08
0.000245408
4.11659e-09
-0.000245444
0.00115266
3.50515e-09
-1.39961e-07
1.00857e-06
-7.57783e-07
8.30771e-07
-9.37091e-07
-0.00115271
-4.88067e-08
0.00113166
-1.19961e-07
-1.23623e-06
2.77486e-07
-2.3973e-07
-8.55768e-07
2.66363e-07
-2.1267e-07
9.1397e-07
0.000245482
-1.67053e-08
-0.000245427
-1.0506e-07
-4.01186e-09
0.00115261
-1.41483e-07
-9.36851e-07
8.30862e-07
-7.57537e-07
1.00866e-06
8.08164e-10
0.00025007
2.89991e-09
1.327e-07
-0.000250178
0.000250176
4.70405e-09
-1.93163e-07
-0.000250059
-1.22375e-08
6.65292e-08
0.000245306
4.0892e-09
-0.000245339
0.0011526
-1.39953e-07
1.01381e-06
-7.57755e-07
8.30746e-07
-9.42259e-07
-0.00115264
-4.87633e-08
0.00113172
1.27797e-06
-1.20075e-07
-8.60861e-07
2.69077e-07
9.19156e-07
-2.15366e-07
-1.23369e-06
2.80301e-07
-2.42623e-07
0.000245377
2.30337e-08
-1.65645e-08
-0.000245325
-1.05066e-07
0.00115254
-1.41508e-07
-9.42029e-07
8.30836e-07
-7.57505e-07
1.01387e-06
0.000250046
1.13776e-09
1.32705e-07
-0.00025015
3.04731e-11
2.87442e-08
-1.11341e-08
1.21085e-09
0.000229322
-4.36746e-08
-0.000193633
3.35265e-09
2.25707e-08
-3.85478e-09
0.000193613
-1.50788e-10
-7.02381e-08
-0.000229342
3.00196e-08
1.98398e-09
2.87452e-08
-1.11323e-08
9.02268e-10
0.000229282
-4.58837e-08
6.80126e-09
0.000193605
-0.000193569
3.5425e-09
2.47237e-08
-5.10295e-09
-3.87356e-09
0.000193549
-7.02467e-08
0.00022934
-0.000229302
3.00257e-08
2.09912e-09
7.95933e-10
2.92101e-09
1.32439e-07
0.000250097
-5.46919e-08
-1.20704e-07
1.28054e-06
-2.39662e-07
2.77455e-07
9.13979e-07
-2.12589e-07
2.66351e-07
-8.55663e-07
0.00024552
-1.04974e-07
-0.000245465
-1.67168e-08
-0.00115255
-4.95685e-09
0.0011525
-1.44394e-07
-9.36445e-07
8.3103e-07
-7.57068e-07
1.00881e-06
4.06422e-09
6.64848e-08
0.000245446
3.0174e-09
-1.43009e-07
1.00873e-06
-7.57297e-07
-9.36656e-07
8.30936e-07
-9.57769e-10
0.000250231
-0.00025011
3.37094e-09
-1.93187e-07
1.16359e-09
1.32442e-07
0.000250072
-4.90023e-08
-1.23359e-06
-1.20669e-07
9.19143e-07
-2.15315e-07
-8.60783e-07
2.69046e-07
1.27794e-06
-2.42572e-07
2.80267e-07
2.30483e-08
0.000245415
-1.04978e-07
-0.000245363
-1.65793e-08
-0.00115249
0.00115244
-1.44416e-07
-9.41617e-07
8.31004e-07
-7.57035e-07
1.01128e-06
-1.21865e-08
4.03793e-09
6.64721e-08
0.000245344
-1.43011e-07
1.01393e-06
-7.57267e-07
-9.41832e-07
8.30913e-07
0.000250203
-0.000250086
4.46913e-09
-1.93202e-07
2.24995e-08
0.000278035
-7.6547e-09
-0.000278049
-1.12245e-08
2.48892e-08
0.000278175
-6.91032e-09
-0.000278194
0.000270118
-0.000268085
2.42118e-07
2.44432e-07
0.0002781
1.04473e-08
-0.000278061
-4.8688e-08
1.9936e-08
0.000278245
1.00649e-08
-0.000278201
-5.10154e-08
5.1296e-09
9.79858e-05
-9.80022e-05
9.80232e-05
-6.89268e-09
-9.79964e-05
-2.22212e-08
-9.7999e-05
1.34981e-08
9.79886e-05
1.19666e-06
0.000268087
-1.98292e-07
-2.00762e-07
0.00027815
-4.85772e-08
-0.000278111
1.05e-08
1.98235e-08
-2.32731e-08
0.000278296
-5.0895e-08
-0.000278251
1.01153e-08
-7.58447e-09
2.25185e-08
0.000278086
-1.1279e-08
1.21513e-08
-6.83578e-09
2.49105e-08
0.000278226
-6.93509e-09
9.80441e-05
-9.80173e-05
5.06187e-09
9.80068e-05
-1.66682e-09
0.000250197
3.78105e-09
-1.95761e-07
-0.000250074
6.41563e-08
0.000245372
6.61097e-09
-0.00024541
0.00115249
3.67801e-09
-1.40043e-07
1.01112e-06
-7.57746e-07
8.30741e-07
-9.39614e-07
-0.00115255
-4.88487e-08
0.00113266
-1.20314e-07
-1.19431e-06
2.74999e-07
-2.3714e-07
-8.58275e-07
2.69254e-07
-2.15419e-07
9.16644e-07
0.000245448
-1.91957e-08
-0.000245391
-1.02768e-07
-3.60424e-09
0.00115244
-1.41543e-07
-9.39363e-07
8.30833e-07
-7.57498e-07
1.01121e-06
1.67508e-09
0.000250061
2.14711e-09
1.35292e-07
-0.000250171
-7.02544e-08
0.000229289
3.00529e-08
2.19366e-09
-0.000229251
2.25202e-08
0.000193498
-3.73512e-09
-0.000193512
-4.37072e-08
0.000193552
3.40484e-09
-0.000193518
2.88389e-08
0.000229232
-1.1148e-08
9.05229e-10
-0.00022925
0.000250167
-1.95749e-07
4.32632e-09
-0.000250048
0.00115243
-1.39992e-07
1.01115e-06
-7.57784e-07
8.30746e-07
-9.3964e-07
-0.00115248
-1.23061e-08
6.17695e-08
0.000245293
4.15811e-09
-0.000245324
-4.88075e-08
0.0011316
1.27258e-06
-1.19895e-07
-8.58329e-07
2.6639e-07
9.16535e-07
-2.12724e-07
-1.22826e-06
2.8033e-07
-2.42587e-07
0.00115237
-1.41464e-07
-9.39397e-07
8.30835e-07
-7.57537e-07
1.01121e-06
0.000245362
2.32041e-08
-1.67388e-08
-0.000245312
-1.00239e-07
0.000250035
1.35309e-07
1.61515e-09
-0.000250141
2.87487e-08
1.67023e-10
1.16331e-09
-1.11352e-08
0.00022931
-4.36997e-08
-0.000193616
3.37194e-09
2.25417e-08
-3.78454e-09
0.000193596
-7.02506e-08
-1.42567e-10
-0.00022933
2.13834e-09
3.00277e-08
1.67971e-09
2.16631e-09
1.32439e-07
0.00025009
-4.91777e-08
-1.21044e-07
1.23864e-06
-2.3707e-07
2.74975e-07
9.16646e-07
-2.15338e-07
2.69239e-07
-8.58168e-07
0.000245486
-1.0268e-07
-0.000245429
-1.92074e-08
-0.00115238
-3.42304e-09
0.00115234
-1.50292e-07
-9.38949e-07
8.30994e-07
-7.57029e-07
1.01133e-06
6.55786e-09
6.40953e-08
0.00024541
3.78292e-09
-1.43093e-07
1.01125e-06
-7.5726e-07
-9.39167e-07
8.30915e-07
-1.66404e-09
0.000250224
-0.000250103
4.03679e-09
-1.93193e-07
2.87471e-08
-1.11312e-08
9.17525e-10
0.000229271
-4.36311e-08
6.85141e-09
0.000193591
-0.000193558
3.34e-09
2.25284e-08
-5.0919e-09
-3.79266e-09
0.000193538
-7.02322e-08
0.000229328
-0.00022929
3.00163e-08
2.19997e-09
1.32458e-07
1.63246e-09
0.000250064
-4.91096e-08
-1.22815e-06
-1.2064e-07
9.16537e-07
-2.12638e-07
-8.58221e-07
2.66378e-07
1.27254e-06
-2.42516e-07
2.803e-07
-0.00115233
0.00115228
-1.50189e-07
-9.38979e-07
8.30994e-07
-7.57068e-07
1.01133e-06
2.32183e-08
0.0002454
-1.00158e-07
-0.00024535
-1.6748e-08
-1.43036e-07
1.01127e-06
-7.57299e-07
-9.39188e-07
8.30917e-07
-1.22627e-08
4.10622e-09
6.17077e-08
0.000245331
0.000250194
-0.000250077
-1.93181e-07
4.33339e-09
-8.0454e-11
0.000229324
2.1068e-09
3.21109e-08
-0.000229288
0.00019356
-3.66767e-09
-0.000193574
0.000193613
3.24528e-09
-0.00019358
1.71036e-11
0.000229269
1.05045e-09
-1.32088e-08
-0.000229285
7.0204e-08
0.000250157
-1.90499e-07
4.52664e-09
-0.000250043
0.00115229
-1.40161e-07
1.00563e-06
-7.54978e-07
8.27985e-07
-9.34115e-07
-0.00115234
-2.24859e-08
6.64639e-08
0.000245328
4.17907e-09
-0.000245364
-4.87807e-08
0.00113122
-1.14297e-07
-1.22539e-06
2.77464e-07
-2.3973e-07
-8.50239e-07
2.63641e-07
-2.09926e-07
9.08437e-07
0.00115222
-1.35772e-07
-9.33879e-07
8.2807e-07
-7.54727e-07
1.0057e-06
4.3728e-08
0.000245402
-1.67008e-08
-0.000245347
-1.05022e-07
-2.87868e-08
0.00025003
1.30057e-07
1.38021e-09
-0.000250131
0.000229287
3.00316e-08
2.17732e-09
-0.000229249
-5.14039e-09
0.000193504
-3.68457e-09
-0.000193517
0.000193557
6.77989e-09
3.44959e-09
-0.000193523
0.00022923
-1.11347e-08
8.44865e-10
-0.000229248
-2.86294e-08
1.54618e-09
2.21719e-09
1.32361e-07
0.000250082
-5.48751e-08
-1.21015e-07
1.24118e-06
-2.3691e-07
2.74866e-07
9.1127e-07
-2.15296e-07
-8.52891e-07
2.69122e-07
4.36211e-08
-1.05e-07
-0.000245463
-1.67838e-08
-0.00115226
-5.22702e-10
-1.44622e-07
-9.33468e-07
8.28197e-07
1.00589e-06
-7.54206e-07
-2.25238e-08
6.48403e-09
6.64631e-08
0.000245444
4.49e-09
-1.43182e-07
1.00577e-06
-7.51733e-07
-9.31018e-07
8.28122e-07
7.01031e-08
-1.44146e-09
-0.000250096
3.56381e-09
-1.93093e-07
1.85953e-11
1.06917e-09
-1.31903e-08
0.000229308
0.000193653
-0.000193619
3.18009e-09
-3.74396e-09
0.0001936
-4.89214e-11
0.000229363
-0.000229327
1.89577e-09
3.20665e-08
-2.86927e-08
1.2978e-07
1.39775e-09
0.000250057
-4.91072e-08
-1.22526e-06
-1.26593e-07
9.08451e-07
-2.09796e-07
-8.50083e-07
2.63654e-07
1.26964e-06
-2.39642e-07
2.7744e-07
-0.00115218
0.00115213
-1.44483e-07
-9.33462e-07
8.28202e-07
-7.54257e-07
1.00583e-06
4.3662e-08
2.31878e-08
0.00024544
-1.02552e-07
-0.000245388
-1.66871e-08
-1.49041e-07
1.00577e-06
-7.5446e-07
-9.33666e-07
8.28128e-07
-2.24988e-08
-1.22238e-08
4.12072e-09
6.6394e-08
0.000245366
7.01708e-08
0.000250187
-0.00025007
-1.93115e-07
4.29449e-09
-1.11045e-08
8.52139e-10
0.000229269
6.81709e-09
0.000193596
-0.000193563
3.39492e-09
-5.08595e-09
-3.75068e-09
0.000193543
0.000229326
-0.000229288
2.99787e-08
2.17579e-09
2.02907e-08
0.000278034
-7.52516e-09
-0.000278048
-1.11858e-08
2.25699e-08
0.00027817
-1.00716e-08
-0.000278184
0.000270092
-0.000268072
2.42103e-07
2.47036e-07
0.000278099
1.04106e-08
-0.000278059
-4.64047e-08
1.99879e-08
0.000278234
1.306e-08
-0.000278196
-4.87429e-08
5.12633e-09
9.79859e-05
-9.80022e-05
9.80232e-05
-6.80019e-09
-9.79964e-05
-1.98539e-08
-9.79946e-05
1.11898e-08
9.79841e-05
1.19128e-06
0.000268074
-1.9836e-07
-2.03312e-07
0.000278149
-4.62978e-08
-0.00027811
1.04533e-08
1.98784e-08
-2.31841e-08
0.000278285
-4.86314e-08
-0.000278246
1.31336e-08
-7.46001e-09
2.03093e-08
0.000278085
-1.12433e-08
1.2164e-08
-9.99898e-09
2.25999e-08
0.000278221
-6.84341e-09
9.80441e-05
-9.80173e-05
5.05749e-09
9.80069e-05
7.00743e-08
0.000250153
-1.93051e-07
4.99839e-09
-0.000250036
0.00115212
-1.40099e-07
1.00811e-06
-7.5494e-07
8.27912e-07
-9.36623e-07
-0.00115217
-2.24967e-08
6.41177e-08
0.000245296
4.21534e-09
-0.000245329
-4.88974e-08
0.00113222
-1.20353e-07
-1.1888e-06
2.74943e-07
-2.37093e-07
-8.5536e-07
2.69173e-07
-2.15381e-07
9.13771e-07
0.00115207
-1.41599e-07
-9.36392e-07
8.28007e-07
-7.54689e-07
1.00819e-06
4.37454e-08
0.000245367
-1.67553e-08
-0.000245315
-1.02716e-07
-2.86878e-08
0.000250023
1.32633e-07
9.16272e-10
-0.000250127
-1.87994e-10
0.000229317
2.27491e-09
3.21054e-08
-0.000229281
0.000193556
-3.72341e-09
-0.000193569
0.000193609
3.43274e-09
-0.000193575
1.41143e-10
0.000229261
8.04262e-10
-1.32258e-08
-0.000229278
0.000229276
2.1833e-09
3.41892e-08
-0.000229243
-5.17495e-09
0.000193496
-3.63706e-09
-0.00019351
0.000193549
6.83402e-09
3.38246e-09
-0.000193516
0.000229224
8.55951e-10
-1.53081e-08
-0.000229238
6.95662e-10
-2.86606e-08
1.32395e-07
2.08833e-09
0.000250073
-4.91256e-08
-1.21069e-07
1.23571e-06
-2.36959e-07
2.7485e-07
9.11317e-07
-2.1529e-07
-8.52864e-07
2.69176e-07
-0.00115209
-1.32301e-08
-1.44491e-07
-9.33534e-07
8.28193e-07
1.00589e-06
-7.54281e-07
4.36744e-08
-1.02632e-07
-0.000245456
-1.67401e-08
2.4805e-10
-1.43173e-07
1.00582e-06
-7.54499e-07
-9.33749e-07
8.28121e-07
-2.25203e-08
4.09448e-09
6.40694e-08
0.000245437
-1.21244e-09
7.01099e-08
-0.000250087
-1.93091e-07
4.10752e-09
-2.85977e-08
1.32374e-07
6.98248e-10
0.000250049
-4.92653e-08
-1.18869e-06
-1.2103e-07
9.13774e-07
-2.15272e-07
-8.55295e-07
2.69158e-07
1.23311e-06
-2.37021e-07
2.74912e-07
-0.00115201
0.00115197
-1.44461e-07
-9.35975e-07
8.28174e-07
-7.54215e-07
1.00837e-06
4.36658e-08
2.32289e-08
0.000245405
-1.02624e-07
-0.000245353
-1.67767e-08
-1.43114e-07
1.00826e-06
-7.54455e-07
-9.36188e-07
8.28082e-07
-2.25099e-08
-1.22377e-08
4.16395e-09
6.40524e-08
0.000245334
7.0044e-08
0.000250179
-0.000250062
-1.93077e-07
4.76259e-09
1.12952e-10
8.18682e-10
-1.32081e-08
0.0002293
0.000193649
-0.000193615
3.36852e-09
-3.79841e-09
0.000193595
-2.92485e-10
0.000229356
-0.00022932
2.28518e-09
3.20659e-08
6.48653e-10
-1.52886e-08
0.000229263
6.88436e-09
0.000193589
-0.000193555
3.30612e-09
-5.1108e-09
-3.70708e-09
0.000193536
0.000229315
-0.000229282
2.18961e-09
3.41461e-08
9.79658e-05
-9.79822e-05
9.80031e-05
-9.79763e-05
9.7962e-05
-9.79783e-05
9.79993e-05
-9.79725e-05
0.000268048
-1.98138e-07
-2.00828e-07
1.99146e-08
-4.86252e-08
-0.00027819
9.97816e-09
1.98484e-08
-4.86e-08
-0.000278113
1.05771e-08
-1.12209e-08
-6.96869e-09
2.48864e-08
0.000278162
-1.12102e-08
-7.45291e-09
2.25709e-08
0.000278087
9.8024e-05
-9.79973e-05
9.79868e-05
9.80202e-05
-9.79934e-05
9.7983e-05
1.136e-08
9.80322e-05
1.13075e-08
9.80212e-05
1.21104e-08
2.49447e-08
-9.43621e-09
0.000278262
9.76746e-09
2.48825e-08
-6.80877e-09
0.000278194
2.47481e-08
-3.93421e-09
0.000193589
2.86795e-08
0.000229321
-1.11311e-08
9.19413e-10
6.64721e-08
4.0135e-09
0.000245484
1.34915e-09
-1.45815e-07
1.00881e-06
-7.56883e-07
-9.36266e-07
8.31073e-07
7.67797e-10
0.000250124
2.69024e-09
1.32224e-07
-1.21406e-08
6.64416e-08
3.99601e-09
0.000245382
-1.45779e-07
1.01132e-06
-7.56854e-07
-9.38726e-07
8.31054e-07
0.000250099
1.41761e-09
1.32231e-07
2.25665e-08
-7.52969e-09
0.000278137
-1.13396e-08
2.49509e-08
-6.77543e-09
0.000278277
5.00787e-09
6.40677e-08
6.5038e-09
0.000245448
4.04014e-09
-1.51704e-07
1.01137e-06
-7.56827e-07
-9.38766e-07
8.31036e-07
1.68091e-09
0.000250117
1.93665e-09
1.32215e-07
2.25439e-08
-3.84684e-09
0.000193578
2.86807e-08
0.00022931
-1.11207e-08
9.29995e-10
-1.51647e-07
1.01139e-06
-7.56867e-07
-9.38787e-07
8.31037e-07
-1.22181e-08
6.16694e-08
4.06535e-09
0.000245369
0.00025009
1.32235e-07
1.64267e-09
8.96442e-11
-0.000229366
3.20116e-08
-3.81637e-09
0.000193639
7.17795e-11
0.000229347
1.0904e-09
-1.31719e-08
7.0118e-08
-0.000250097
-1.95721e-07
4.52561e-09
0.00115211
-1.63348e-07
1.00589e-06
-7.51308e-07
8.28253e-07
-9.30545e-07
-2.25467e-08
6.15731e-08
6.52408e-09
0.000245407
-4.38064e-08
-3.60878e-07
-1.23309e-06
2.74798e-07
-2.4493e-07
-8.4725e-07
2.71651e-07
-2.0967e-07
9.1378e-07
-2.86297e-08
0.000250084
1.32152e-07
1.63431e-09
-1.99106e-07
-9.30346e-07
8.31063e-07
-7.53846e-07
1.00865e-06
4.35885e-08
-1.91215e-08
-0.000245426
-1.04887e-07
-0.000229327
2.99306e-08
2.17303e-09
-5.03661e-09
-3.81332e-09
0.000193583
0.000229308
-1.10938e-08
8.59612e-10
6.85622e-09
3.34569e-09
-0.000193602
2.03464e-08
-7.39855e-09
0.000278135
-1.12987e-08
2.26126e-08
-7.32054e-09
0.000278269
4.99581e-09
9.80278e-05
7.00005e-08
-0.00025009
-1.93092e-07
3.80808e-09
0.00115193
-1.51713e-07
1.00847e-06
-7.54016e-07
8.28239e-07
-9.35818e-07
-2.25432e-08
6.40269e-08
4.09946e-09
0.000245372
1.48714e-07
-1.44745e-07
-1.15597e-06
2.83187e-07
-2.28583e-07
-8.5232e-07
2.69104e-07
-2.15111e-07
9.13941e-07
-2.85291e-08
0.000250076
1.32148e-07
4.69295e-10
-1.94603e-07
-9.32884e-07
8.28316e-07
-7.51084e-07
1.00861e-06
4.35886e-08
-1.67818e-08
-0.000245391
-1.02541e-07
-3.29744e-10
-0.000229359
2.28909e-09
3.2016e-08
-3.87154e-09
0.000193635
-2.30758e-11
0.000229339
1.05734e-09
-1.31927e-08
-0.000229321
1.98092e-09
3.40981e-08
-5.04627e-09
-3.78935e-09
0.000193575
0.000229302
6.60885e-10
-1.52802e-08
6.93076e-09
3.24166e-09
-0.000193595
9.80077e-05
-9.8018e-05
9.80038e-05
-9.80142e-05
-7.98024e-10
1.24353e-08
0.000143358
-8.84403e-11
-0.000143369
-0.000171053
-3.09185e-10
-4.88776e-11
0.000171084
-0.000223351
2.89485e-08
4.37501e-09
0.000223391
-7.17756e-08
-1.11414e-08
9.80201e-10
-0.000229321
-1.13642e-10
2.87893e-08
-0.000171065
-3.93098e-11
8.81876e-10
-0.000223371
3.31309e-08
1.44508e-09
0.000143385
-2.44425e-08
-7.92527e-05
7.92786e-05
-1.42978e-09
3.44542e-09
0.000193607
6.76472e-09
-4.37785e-08
0.000263191
-1.69767e-08
-8.63499e-10
3.32065e-08
-0.000263211
0.000263237
-4.36306e-09
-6.17755e-08
1.11312e-10
-7.92698e-05
1.69939e-08
7.92615e-05
-0.000263217
2.44023e-08
0.000263262
-6.17357e-08
-3.825e-09
-5.05976e-09
2.25658e-08
3.32044e-08
7.92873e-05
3.17702e-10
-2.8966e-08
-0.000143342
3.00769e-08
2.19444e-09
1.05998e-11
-7.02753e-08
0.000171035
7.86771e-10
-2.87319e-11
-0.000171047
0.000223331
-1.24441e-08
3.31805e-08
-0.000223351
-3.69847e-11
-7.17795e-08
-0.000143354
9.79967e-05
-6.73034e-09
-2.23807e-08
5.1315e-09
1.34679e-08
1.24369e-08
-7.55252e-10
0.000143356
-1.37632e-10
-0.000143368
-0.000223342
2.89702e-08
4.32337e-09
0.000223382
-7.18096e-08
-0.00017105
-3.67728e-10
1.85663e-11
0.000171081
9.34e-10
-1.11395e-08
-0.000229309
1.86047e-11
2.87934e-08
8.29546e-10
-0.000223362
3.31448e-08
-0.000171062
-3.02554e-12
1.40428e-09
0.000143384
-2.44827e-08
-7.92545e-05
7.92804e-05
-1.38944e-09
3.47214e-09
0.00019359
6.77786e-09
-4.38148e-08
0.000263188
-1.69252e-08
-8.12974e-10
3.31762e-08
-0.000263207
0.000263233
-4.31287e-09
-6.18343e-08
1.59198e-10
-7.92716e-05
1.69424e-08
7.92633e-05
-0.000263214
2.4441e-08
0.000263259
-6.17939e-08
-3.75218e-09
-5.10438e-09
2.25338e-08
3.31737e-08
7.92891e-05
-2.89882e-08
3.7696e-10
-0.000143341
2.1252e-09
3.00854e-08
6.72225e-12
-7.02904e-08
0.000223322
-1.24465e-08
3.31966e-08
-0.000223342
0.000171032
7.48378e-10
5.38633e-12
-0.000171044
-7.18166e-08
2.88288e-11
-0.000143352
9.79899e-05
-6.78577e-09
-2.00041e-08
5.11756e-09
1.11632e-08