/*--------------------------------*- C++ -*----------------------------------*\
| =========                 |                                                 |
| \\      /  F ield         | OpenFOAM: The Open Source CFD Toolbox           |
|  \\    /   O peration     | Version:  2312                                  |
|   \\  /    A nd           | Website:  www.openfoam.com                      |
|    \\/     M anipulation  |                                                 |
\*---------------------------------------------------------------------------*/
FoamFile
{
    version     2.0;
    format      ascii;
    arch        "LSB;label=32;scalar=64";
    class       volVectorField;
    location    "500";
    object      U;
}
// * * * * * * * * * * * * * * * * * * * * * * * * * * * * * * * * * * * * * //

dimensions      [0 1 -1 0 0 0 0];

internalField   nonuniform List<vector> 
43496
(
(-1.66069e-05 -2.83591e-07 0.0914273)
(-5.85375e-06 3.35461e-06 0.0716036)
(-6.11311e-06 1.13134e-05 0.107488)
(-7.78036e-06 2.04127e-05 0.0930678)
(-2.7298e-05 -6.86106e-07 0.098581)
(-1.44023e-05 -2.60411e-06 0.109908)
(-1.66019e-05 3.08449e-07 0.0914272)
(-1.20283e-05 1.22294e-06 0.0822862)
(-2.72924e-05 7.13863e-07 0.0985809)
(-1.12724e-05 6.10963e-06 0.107486)
(-1.43906e-05 2.59906e-06 0.109907)
(-2.03966e-05 7.78538e-06 0.0930665)
(-4.1609e-05 4.16183e-05 0.104317)
(-9.8715e-06 6.92335e-06 0.0876051)
(-6.93346e-06 9.86959e-06 0.0876079)
(-3.3546e-06 5.87238e-06 0.071604)
(-1.21224e-06 1.20442e-05 0.0822866)
(4.27375e-06 -7.10813e-07 0.0768855)
(5.01665e-06 -2.54544e-07 0.0913836)
(-1.60009e-05 -1.13757e-06 0.08995)
(-7.44113e-06 1.44061e-07 0.0787028)
(5.53464e-06 -5.53371e-07 0.0899003)
(3.86829e-06 -1.86966e-07 0.0786624)
(-7.44447e-06 5.35076e-07 0.0769323)
(4.92262e-06 -8.97388e-07 0.0684139)
(-1.23002e-05 -1.3894e-06 0.0858857)
(5.87066e-06 -7.66211e-07 0.0858296)
(-6.07993e-06 1.65508e-07 0.0684747)
(4.33185e-06 -2.57728e-06 0.0715506)
(4.26356e-06 7.07582e-07 0.0768849)
(5.01695e-06 2.46045e-07 0.0913836)
(-7.43927e-06 -1.19177e-07 0.0787027)
(-1.5986e-05 1.16322e-06 0.0899494)
(3.86755e-06 1.85398e-07 0.0786623)
(5.51695e-06 5.45813e-07 0.0899004)
(-7.43404e-06 -5.05451e-07 0.0769316)
(4.91128e-06 9.01587e-07 0.0684157)
(-1.2274e-05 1.40659e-06 0.0858857)
(7.16842e-06 -6.29579e-07 0.0822355)
(5.86155e-06 7.69333e-07 0.0858304)
(-6.06121e-06 -1.37471e-07 0.0684763)
(3.1291e-06 -3.13323e-06 0.0836177)
(-3.5998e-06 5.11318e-06 0.068375)
(-5.14746e-06 3.57316e-06 0.0683808)
(2.6404e-06 -4.07002e-06 0.0683195)
(4.06129e-06 -2.65081e-06 0.068325)
(-7.24765e-06 7.21372e-06 0.0836639)
(7.82832e-06 -3.81184e-06 0.091673)
(-8.0731e-06 4.01211e-06 0.0816084)
(3.58174e-06 -3.47653e-06 0.0875569)
(-2.39883e-05 1.42068e-05 0.0963246)
(3.87194e-06 -3.01977e-06 0.0815579)
(1.10521e-05 -5.54045e-06 0.0962766)
(-1.67728e-05 1.0258e-05 0.0917201)
(3.80064e-06 -7.82665e-06 0.0916798)
(-4.03737e-06 8.04283e-06 0.0816146)
(3.44907e-06 -3.59348e-06 0.0875586)
(-1.4232e-05 2.39757e-05 0.0963282)
(5.52992e-06 -1.10214e-05 0.0962795)
(2.99874e-06 -3.87333e-06 0.0815632)
(-1.02947e-05 1.6763e-05 0.0917272)
(2.55252e-06 -4.3514e-06 0.0715504)
(6.11698e-07 -7.18025e-06 0.0822358)
(-1.16341e-05 -3.48003e-06 0.115012)
(-1.0024e-05 1.00511e-05 0.112469)
(-1.16269e-05 3.49441e-06 0.11501)
(3.09775e-06 -8.78473e-06 0.0930118)
(-1.1664e-05 4.96025e-05 0.0995932)
(3.80225e-06 -3.18481e-05 0.0995327)
(2.74157e-05 -1.20114e-06 0.102872)
(8.05916e-06 -4.31267e-07 0.0985249)
(-2.72079e-05 -2.5329e-06 0.0976285)
(-5.22843e-05 -1.01297e-06 0.10362)
(8.99164e-06 -8.68889e-07 0.0975631)
(2.5901e-05 -8.80205e-07 0.103526)
(-5.29875e-05 -3.57916e-06 0.102988)
(3.12608e-05 3.7622e-07 0.101328)
(-2.46878e-05 -5.07289e-06 0.0956755)
(1.03791e-05 4.63718e-08 0.0956081)
(-5.24057e-05 -7.708e-06 0.101433)
(2.74121e-05 1.17771e-06 0.102872)
(8.06058e-06 4.09769e-07 0.0985248)
(-5.22796e-05 1.04019e-06 0.10362)
(-2.71966e-05 2.56034e-06 0.0976279)
(2.59066e-05 8.50708e-07 0.103526)
(8.97798e-06 8.50841e-07 0.0975633)
(-5.29975e-05 3.60555e-06 0.102987)
(3.12876e-05 -3.93785e-07 0.101328)
(-2.46594e-05 5.08161e-06 0.0956749)
(8.78047e-06 -3.12108e-06 0.0930108)
(-4.96044e-05 1.16652e-05 0.0995911)
(1.03764e-05 -4.17736e-08 0.0956084)
(-5.23977e-05 7.71422e-06 0.101431)
(3.18718e-05 -3.82554e-06 0.0995309)
(1.01439e-05 -1.01715e-05 0.0975424)
(2.38253e-05 -2.3842e-05 0.104202)
(-2.63348e-05 4.13644e-05 0.101507)
(-4.13837e-05 2.63392e-05 0.10151)
(2.74462e-05 -1.10397e-05 0.101443)
(1.10505e-05 -2.74682e-05 0.10144)
(-2.21824e-05 2.21757e-05 0.0975979)
(-9.59201e-06 -9.58552e-06 0.112516)
(1.11305e-05 -5.98077e-06 0.107501)
(-5.9664e-06 1.11311e-05 0.1075)
(-2.39865e-05 -2.39772e-05 0.104199)
(-9.95888e-06 -9.95562e-06 0.112479)
(1.12759e-05 -6.10921e-06 0.107492)
(-6.09715e-06 1.12866e-05 0.107491)
(-2.38524e-05 -2.38493e-05 0.104201)
(2.3976e-05 2.39849e-05 0.104199)
(-4.16785e-05 -4.16742e-05 0.104316)
(-5.9488e-06 -1.10997e-05 0.107499)
(5.94937e-06 -1.11044e-05 0.107499)
(-6.04797e-06 -1.12178e-05 0.107492)
(6.04073e-06 -1.12323e-05 0.107491)
(-2.40011e-05 2.39609e-05 0.104199)
(4.16696e-05 -4.16793e-05 0.104317)
(-1.11283e-05 -5.96897e-06 0.107501)
(-1.10909e-05 5.95509e-06 0.107498)
(-1.1246e-05 -6.06424e-06 0.107493)
(-1.12074e-05 6.05217e-06 0.10749)
(1.11113e-05 5.94939e-06 0.107498)
(1.12496e-05 -6.07774e-06 0.107494)
(1.12131e-05 6.05253e-06 0.107492)
(2.39785e-05 -2.39948e-05 0.104198)
(-4.16589e-05 4.16744e-05 0.104316)
(5.9739e-06 1.11271e-05 0.1075)
(-6.06019e-06 1.12473e-05 0.107493)
(6.07444e-06 1.12467e-05 0.107493)
(4.16645e-05 4.16663e-05 0.104316)
(2.38516e-05 2.38601e-05 0.104202)
(-6.07636e-06 -1.12593e-05 0.10749)
(6.07624e-06 -1.12479e-05 0.10749)
(-2.3873e-05 2.38325e-05 0.104202)
(-1.12853e-05 -6.09823e-06 0.107491)
(-1.1245e-05 6.08452e-06 0.107488)
(1.12776e-05 6.07963e-06 0.107488)
(2.38475e-05 -2.3865e-05 0.104201)
(6.10167e-06 1.12803e-05 0.10749)
(-3.13968e-07 -1.66432e-05 0.0913959)
(6.52015e-07 7.16544e-06 0.0821925)
(-1.18249e-06 -1.21083e-05 0.0822523)
(-2.71307e-07 5.03816e-06 0.0913444)
(-2.60642e-06 4.26695e-06 0.0715101)
(3.23462e-06 -5.89454e-06 0.0715754)
(-1.66479e-05 -2.83315e-07 0.0913962)
(7.14746e-06 6.72356e-07 0.0821935)
(-1.21124e-05 -1.18277e-06 0.0822531)
(5.03632e-06 -2.5732e-07 0.0913446)
(9.59484e-06 -9.58298e-06 0.112516)
(-9.58503e-06 9.60121e-06 0.112515)
(9.5997e-06 9.59768e-06 0.112514)
(-9.87119e-06 -9.86371e-06 0.112488)
(9.87862e-06 -9.87004e-06 0.112488)
(-9.85725e-06 9.88064e-06 0.112487)
(9.88646e-06 9.88305e-06 0.112487)
(2.72549e-05 -6.90082e-07 0.0985605)
(-8.78486e-06 3.14054e-06 0.0929754)
(1.3942e-05 -2.5071e-06 0.109933)
(1.11699e-05 -6.01016e-06 0.107498)
(2.04509e-05 -7.81328e-06 0.0930397)
(1.40491e-05 -2.52684e-06 0.109927)
(-8.13299e-06 -4.51883e-07 0.0984988)
(4.30655e-06 -2.64643e-06 0.0715124)
(-5.91021e-06 3.30738e-06 0.0715732)
(-7.15215e-07 2.72548e-05 0.09856)
(-2.49684e-06 1.39435e-05 0.109931)
(3.14513e-06 -8.77505e-06 0.0929755)
(-5.99517e-06 1.11718e-05 0.107497)
(-2.51413e-06 1.40412e-05 0.109926)
(-7.78124e-06 2.04621e-05 0.0930389)
(-3.98723e-07 -8.14835e-06 0.0984984)
(-3.55019e-06 -3.52323e-06 0.0875183)
(-3.52399e-06 -3.54274e-06 0.0875173)
(4.17262e-05 4.17252e-05 0.104315)
(9.95759e-06 6.91246e-06 0.087576)
(6.93337e-06 9.95159e-06 0.0875745)
(6.16763e-07 7.19193e-06 0.0822263)
(-2.72075e-07 5.01623e-06 0.0913756)
(-2.54636e-06 4.28881e-06 0.0715407)
(7.16921e-06 6.30597e-07 0.0822273)
(5.01725e-06 -2.54861e-07 0.0913758)
(9.97014e-06 -9.96016e-06 0.11248)
(-9.95163e-06 9.97036e-06 0.112478)
(9.9492e-06 9.97157e-06 0.112478)
(2.72519e-05 -6.84431e-07 0.0985814)
(-8.78708e-06 3.10022e-06 0.0930044)
(1.4324e-05 -2.6063e-06 0.109913)
(-8.03147e-06 -4.5406e-07 0.0985198)
(1.44138e-05 -2.61939e-06 0.109908)
(4.32633e-06 -2.59091e-06 0.071543)
(-7.18426e-07 2.72516e-05 0.098581)
(-2.5829e-06 1.43274e-05 0.109912)
(3.10571e-06 -8.77847e-06 0.0930045)
(-4.05724e-07 -8.05083e-06 0.0985195)
(-2.60215e-06 1.44027e-05 0.109907)
(-3.58391e-06 -3.49122e-06 0.0875503)
(-3.47946e-06 -3.57981e-06 0.0875492)
(4.16494e-05 4.1601e-05 0.104318)
(9.88578e-06 6.92195e-06 0.0876079)
(6.95872e-06 9.87913e-06 0.0876063)
(2.61733e-06 4.34258e-06 0.0715115)
(-3.29317e-06 -5.94083e-06 0.0715734)
(4.31725e-06 2.63766e-06 0.0715117)
(-5.92408e-06 -3.3074e-06 0.0715732)
(3.49412e-06 3.54316e-06 0.0875178)
(3.5592e-06 3.5095e-06 0.0875168)
(-4.17354e-05 -4.17312e-05 0.104315)
(-6.89692e-06 -9.9391e-06 0.0875764)
(-9.96804e-06 -6.92801e-06 0.0875744)
(-3.31663e-06 -5.91408e-06 0.0715887)
(2.5882e-06 4.35298e-06 0.0715269)
(-5.89651e-06 -3.33288e-06 0.0715884)
(4.32842e-06 2.60613e-06 0.0715271)
(2.39023e-05 2.39101e-05 0.1042)
(-6.90462e-06 -9.90435e-06 0.0875923)
(-9.93292e-06 -6.93813e-06 0.0875903)
(3.47449e-06 3.55984e-06 0.0875338)
(3.5776e-06 3.4881e-06 0.0875328)
(2.75763e-07 -1.66469e-05 0.0913961)
(-6.43483e-07 7.12876e-06 0.0821922)
(1.1265e-06 -1.21044e-05 0.0822536)
(2.38253e-07 5.03652e-06 0.0913446)
(-7.11421e-07 -2.72897e-05 0.0985598)
(3.14531e-06 8.7891e-06 0.0929743)
(-2.50059e-06 -1.39288e-05 0.109932)
(-5.98308e-06 -1.11403e-05 0.107496)
(-7.77726e-06 -2.04477e-05 0.0930384)
(-2.51985e-06 -1.40293e-05 0.109927)
(-4.38913e-07 8.17077e-06 0.0984983)
(6.74812e-07 -2.72958e-05 0.09856)
(-3.14194e-06 8.77857e-06 0.092974)
(2.49619e-06 -1.39293e-05 0.109932)
(5.9727e-06 -1.11492e-05 0.107496)
(7.7339e-06 -2.04517e-05 0.093039)
(2.51709e-06 -1.40298e-05 0.109927)
(4.08319e-07 8.17458e-06 0.0984985)
(-2.71111e-07 5.02543e-06 0.09136)
(-1.19833e-06 -1.20801e-05 0.0822691)
(6.32649e-07 7.17341e-06 0.0822095)
(-3.13341e-07 -1.66254e-05 0.0914114)
(2.34991e-07 5.02521e-06 0.0913601)
(1.14399e-06 -1.20731e-05 0.0822704)
(-6.22495e-07 7.13782e-06 0.0822091)
(2.76271e-07 -1.663e-05 0.0914116)
(-4.40129e-07 8.11679e-06 0.0985087)
(-6.01537e-06 -1.11852e-05 0.107494)
(-7.77846e-06 -2.04265e-05 0.0930528)
(-2.56043e-06 -1.42199e-05 0.109917)
(3.12791e-06 8.78828e-06 0.0929887)
(-2.54077e-06 -1.41305e-05 0.109922)
(-7.14199e-07 -2.72955e-05 0.0985702)
(4.08908e-07 8.12068e-06 0.098509)
(6.01389e-06 -1.11855e-05 0.107494)
(7.73831e-06 -2.04294e-05 0.0930534)
(2.55798e-06 -1.42215e-05 0.109917)
(-3.12532e-06 8.77693e-06 0.0929885)
(2.54346e-06 -1.41317e-05 0.109922)
(6.77422e-07 -2.73031e-05 0.0985704)
(-3.53333e-06 3.51846e-06 0.0875162)
(-3.56837e-06 3.49474e-06 0.0875185)
(4.17288e-05 -4.1737e-05 0.104316)
(6.88755e-06 -9.94177e-06 0.0875755)
(9.94631e-06 -6.95416e-06 0.0875766)
(-4.32578e-06 2.62501e-06 0.0715119)
(5.90812e-06 -3.33889e-06 0.0715739)
(3.26002e-06 -5.86618e-06 0.0715907)
(-2.57513e-06 4.27781e-06 0.0715255)
(-2.39327e-05 2.389e-05 0.1042)
(6.89549e-06 -9.9059e-06 0.0875914)
(9.90761e-06 -6.9634e-06 0.0875924)
(-3.51164e-06 3.53529e-06 0.0875322)
(-3.58478e-06 3.47079e-06 0.0875345)
(5.8787e-06 -3.36274e-06 0.0715892)
(-4.3351e-06 2.59114e-06 0.0715272)
(-2.72984e-05 -6.82111e-07 0.0985601)
(8.78771e-06 3.15484e-06 0.0929751)
(-1.39375e-05 -2.50275e-06 0.109932)
(-1.11695e-05 -5.99929e-06 0.107498)
(-2.0479e-05 -7.7968e-06 0.0930386)
(-1.40376e-05 -2.52156e-06 0.109927)
(8.17539e-06 -4.30471e-07 0.0984984)
(-1.66435e-05 3.14027e-07 0.0913961)
(7.14802e-06 -6.69799e-07 0.0821933)
(-1.20941e-05 1.18743e-06 0.0822526)
(5.03589e-06 2.45054e-07 0.0913446)
(-2.72933e-05 7.12292e-07 0.0985599)
(-1.39292e-05 2.49773e-06 0.109932)
(8.7713e-06 -3.15567e-06 0.0929747)
(-1.11315e-05 5.98734e-06 0.107495)
(-1.40278e-05 2.51889e-06 0.109926)
(-2.0443e-05 7.78505e-06 0.0930376)
(8.17668e-06 4.08704e-07 0.0984984)
(5.02593e-06 -2.55056e-07 0.0913602)
(-1.20797e-05 -1.19891e-06 0.08227)
(7.15939e-06 6.52004e-07 0.0822104)
(-1.66294e-05 -2.84071e-07 0.0914117)
(8.12053e-06 -4.30804e-07 0.0985089)
(-1.12129e-05 -6.03686e-06 0.107496)
(-2.04557e-05 -7.79927e-06 0.093053)
(-1.42278e-05 -2.56493e-06 0.109917)
(8.78627e-06 3.13618e-06 0.0929895)
(-1.414e-05 -2.54662e-06 0.109922)
(-2.7302e-05 -6.86555e-07 0.0985705)
(5.02545e-06 2.45583e-07 0.0913601)
(-1.20586e-05 1.202e-06 0.0822695)
(7.1557e-06 -6.53696e-07 0.0822102)
(-1.66262e-05 3.1271e-07 0.0914116)
(8.12216e-06 4.10237e-07 0.0985089)
(-1.1176e-05 6.02388e-06 0.107493)
(-1.4217e-05 2.56165e-06 0.109917)
(-2.04241e-05 7.78783e-06 0.093052)
(-1.41316e-05 2.54147e-06 0.109922)
(8.77099e-06 -3.14103e-06 0.0929891)
(-2.72967e-05 7.14073e-07 0.0985703)
(1.66007e-05 -2.61069e-07 0.091397)
(-7.14148e-06 6.88173e-07 0.0821931)
(1.20828e-05 -1.24017e-06 0.0822536)
(-4.99765e-06 -3.1923e-07 0.0913441)
(2.72675e-05 7.03771e-07 0.0985602)
(1.39415e-05 2.49368e-06 0.109932)
(-8.76336e-06 -3.1676e-06 0.0929751)
(1.11457e-05 5.99098e-06 0.107496)
(1.40403e-05 2.52305e-06 0.109927)
(2.04409e-05 7.77584e-06 0.0930389)
(-8.15051e-06 4.00318e-07 0.0984988)
(1.66315e-05 3.20987e-07 0.0913964)
(-7.13584e-06 -6.77147e-07 0.0821935)
(1.21087e-05 1.17371e-06 0.0822532)
(-5.02528e-06 2.08411e-07 0.0913446)
(-8.08187e-06 -4.5432e-07 0.0985092)
(1.12117e-05 -6.04941e-06 0.107496)
(2.04245e-05 -7.81607e-06 0.093054)
(1.42397e-05 -2.56917e-06 0.109918)
(-8.78166e-06 3.11909e-06 0.0929899)
(1.41433e-05 -2.55159e-06 0.109923)
(2.72551e-05 -6.89196e-07 0.0985708)
(-4.98573e-06 -3.20842e-07 0.0913597)
(1.20521e-05 -1.25685e-06 0.0822704)
(-7.15078e-06 6.64351e-07 0.08221)
(1.65797e-05 -2.61488e-07 0.0914125)
(-8.09573e-06 4.00368e-07 0.0985092)
(1.12032e-05 6.01577e-06 0.107493)
(1.42313e-05 2.56957e-06 0.109917)
(2.04277e-05 7.7717e-06 0.0930533)
(1.41448e-05 2.53299e-06 0.109922)
(-8.76133e-06 -3.14678e-06 0.0929896)
(2.72724e-05 7.05803e-07 0.0985707)
(-5.0124e-06 2.05495e-07 0.0913602)
(1.20816e-05 1.18734e-06 0.08227)
(-7.15145e-06 -6.58923e-07 0.0822104)
(1.66082e-05 3.17316e-07 0.0914119)
(3.53658e-06 -3.52176e-06 0.087517)
(3.49786e-06 -3.53104e-06 0.0875185)
(-4.17204e-05 4.17359e-05 0.104315)
(-9.94615e-06 6.91065e-06 0.0875733)
(-6.9123e-06 9.93933e-06 0.0875761)
(2.6321e-06 -4.32118e-06 0.0715122)
(-3.30453e-06 5.92303e-06 0.0715736)
(-5.88346e-06 3.33129e-06 0.0715884)
(4.31623e-06 -2.61811e-06 0.0715277)
(2.39035e-05 -2.39201e-05 0.1042)
(-9.91139e-06 6.9194e-06 0.0875892)
(-6.92721e-06 9.90606e-06 0.0875919)
(3.5528e-06 -3.50267e-06 0.087533)
(3.47584e-06 -3.55345e-06 0.0875346)
(-3.33089e-06 5.89353e-06 0.0715889)
(2.59805e-06 -4.33071e-06 0.0715276)
(6.88943e-07 2.72457e-05 0.0985604)
(2.50326e-06 1.39423e-05 0.109932)
(-3.16847e-06 -8.77464e-06 0.0929754)
(6.00949e-06 1.1175e-05 0.107497)
(2.53033e-06 1.40418e-05 0.109926)
(7.796e-06 2.04662e-05 0.093039)
(4.29288e-07 -8.13635e-06 0.0984986)
(-3.45407e-07 1.65997e-05 0.0913967)
(6.67869e-07 -7.14686e-06 0.0821936)
(-1.1794e-06 1.21097e-05 0.082253)
(-2.08534e-07 -5.00678e-06 0.0913439)
(2.83278e-07 1.65784e-05 0.0913973)
(-6.90498e-07 -7.13918e-06 0.082194)
(1.19535e-06 1.21061e-05 0.0822537)
(2.60406e-07 -4.98525e-06 0.0913436)
(-4.01713e-07 -8.0954e-06 0.0985089)
(-6.03627e-06 1.12162e-05 0.107495)
(-2.55802e-06 1.42303e-05 0.109916)
(-7.78606e-06 2.04392e-05 0.0930533)
(-2.53989e-06 1.41468e-05 0.109921)
(3.12584e-06 -8.77289e-06 0.09299)
(-7.16811e-07 2.7257e-05 0.0985704)
(4.30331e-07 -8.08292e-06 0.0985091)
(6.04338e-06 1.12143e-05 0.107495)
(2.57731e-06 1.42325e-05 0.109916)
(7.79823e-06 2.0443e-05 0.0930534)
(2.54535e-06 1.41423e-05 0.109922)
(-3.15028e-06 -8.77321e-06 0.0929899)
(6.88835e-07 2.72473e-05 0.0985708)
(-2.07651e-07 -4.99561e-06 0.0913595)
(-1.19431e-06 1.20743e-05 0.0822699)
(6.43854e-07 -7.15473e-06 0.0822106)
(-3.45508e-07 1.65806e-05 0.0914122)
(2.59547e-07 -4.97285e-06 0.0913591)
(1.21394e-06 1.20722e-05 0.0822705)
(-6.68581e-07 -7.14964e-06 0.0822109)
(2.82429e-07 1.65574e-05 0.0914128)
(-4.3174e-06 -2.64101e-06 0.0715125)
(5.92762e-06 3.29649e-06 0.071574)
(-2.65283e-06 -4.31028e-06 0.0715126)
(3.32035e-06 5.91626e-06 0.0715739)
(-2.39103e-05 -2.39025e-05 0.1042)
(9.9263e-06 6.92039e-06 0.0875919)
(6.94692e-06 9.91377e-06 0.0875904)
(-3.56531e-06 -3.50356e-06 0.0875344)
(-3.50134e-06 -3.56166e-06 0.0875333)
(5.90428e-06 3.31706e-06 0.0715892)
(-4.32671e-06 -2.61163e-06 0.0715278)
(3.34949e-06 5.88714e-06 0.0715891)
(-2.6207e-06 -4.32254e-06 0.071528)
(2.56045e-06 4.36448e-06 0.0715422)
(4.34108e-06 2.57728e-06 0.0715424)
(3.45795e-06 3.58172e-06 0.0875497)
(3.60015e-06 3.47008e-06 0.0875488)
(-6.04625e-07 7.15358e-06 0.082226)
(2.37375e-07 5.01544e-06 0.0913758)
(3.11079e-06 8.79779e-06 0.0930033)
(-2.5788e-06 -1.43119e-05 0.109913)
(-4.40033e-07 8.07435e-06 0.0985193)
(-3.10866e-06 8.78064e-06 0.093003)
(2.59103e-06 -1.43132e-05 0.109913)
(4.11713e-07 8.07749e-06 0.0985196)
(-3.49502e-06 3.55718e-06 0.0875482)
(-3.60379e-06 3.44977e-06 0.0875505)
(-4.34779e-06 2.56025e-06 0.0715424)
(8.792e-06 3.11843e-06 0.093004)
(-1.43221e-05 -2.58633e-06 0.109913)
(8.07776e-06 -4.31965e-07 0.0985195)
(7.16128e-06 -6.36133e-07 0.0822271)
(5.01659e-06 2.46366e-07 0.0913757)
(-1.43132e-05 2.58222e-06 0.109912)
(8.7764e-06 -3.126e-06 0.0930036)
(8.07929e-06 4.11183e-07 0.0985195)
(1.65525e-05 -2.56762e-07 0.091428)
(-7.16813e-06 6.45825e-07 0.0822268)
(-4.97209e-06 -3.22207e-07 0.0913753)
(2.72667e-05 6.97738e-07 0.0985812)
(1.43284e-05 2.55854e-06 0.109912)
(-8.76504e-06 -3.13418e-06 0.0930041)
(1.12555e-05 6.10376e-06 0.107488)
(-8.05426e-06 3.98756e-07 0.0985197)
(1.44049e-05 2.61368e-06 0.109907)
(2.04128e-05 7.77019e-06 0.0930678)
(1.65803e-05 3.15397e-07 0.0914274)
(-7.16845e-06 -6.41786e-07 0.0822273)
(-5.00302e-06 2.03696e-07 0.0913758)
(1.20456e-05 1.19931e-06 0.0822867)
(3.5723e-06 -3.48532e-06 0.0875489)
(3.45736e-06 -3.58179e-06 0.0875506)
(2.56746e-06 -4.34296e-06 0.0715429)
(6.88425e-07 2.72426e-05 0.0985814)
(2.58668e-06 1.43156e-05 0.109912)
(-3.12933e-06 -8.78044e-06 0.0930044)
(6.11839e-06 1.12967e-05 0.107488)
(4.29855e-07 -8.03918e-06 0.0985197)
(2.61744e-06 1.44041e-05 0.109907)
(7.79822e-06 2.04184e-05 0.0930678)
(-3.44048e-07 1.65543e-05 0.0914277)
(6.21725e-07 -7.16831e-06 0.0822274)
(-2.08908e-07 -4.9857e-06 0.0913751)
(2.82188e-07 1.65322e-05 0.0914284)
(-6.44847e-07 -7.16612e-06 0.0822278)
(2.59888e-07 -4.96491e-06 0.0913747)
(1.23016e-06 1.20399e-05 0.0822872)
(-4.34002e-06 -2.58595e-06 0.0715431)
(5.87694e-06 3.33778e-06 0.0716044)
(-2.58837e-06 -4.33465e-06 0.0715432)
(3.37466e-06 5.85653e-06 0.0716043)
(-7.03367e-07 4.27295e-06 0.0768514)
(1.1661e-07 -7.46522e-06 0.0786686)
(-1.14734e-06 -1.60357e-05 0.0899173)
(-2.71695e-07 5.02977e-06 0.0913522)
(-2.03259e-07 3.87265e-06 0.0786281)
(-5.54425e-07 5.54584e-06 0.0898675)
(5.33899e-07 -7.46833e-06 0.0768983)
(2.06813e-07 -6.12018e-06 0.0684363)
(-1.17405e-06 -1.21223e-05 0.0822439)
(-7.45708e-07 5.85031e-06 0.0857866)
(-1.36838e-06 -1.23719e-05 0.0858429)
(-8.52959e-07 4.92618e-06 0.0683752)
(-8.68998e-07 4.92647e-06 0.0683828)
(-1.37514e-06 -1.23561e-05 0.0858514)
(6.42332e-07 7.17e-06 0.082201)
(-7.54889e-07 5.85689e-06 0.0857951)
(1.94341e-07 -6.11173e-06 0.0684438)
(5.41478e-07 -7.47487e-06 0.0768899)
(-3.15487e-07 -1.6657e-05 0.0913882)
(-2.02144e-07 3.87611e-06 0.0786195)
(-5.47913e-07 5.55227e-06 0.0898594)
(1.17008e-07 -7.46796e-06 0.0786601)
(-1.14396e-06 -1.60445e-05 0.0899092)
(-6.93838e-07 4.27342e-06 0.076843)
(3.22005e-06 -5.90756e-06 0.0715678)
(-2.59024e-06 4.27231e-06 0.0715178)
(4.27428e-06 -6.79111e-07 0.076852)
(-1.60452e-05 -1.12272e-06 0.0899178)
(-7.46924e-06 1.46095e-07 0.078669)
(5.02923e-06 -2.56269e-07 0.0913524)
(5.54633e-06 -5.3304e-07 0.0898679)
(3.87239e-06 -1.87542e-07 0.0786284)
(-7.47427e-06 5.61079e-07 0.0768989)
(-6.12569e-06 2.27247e-07 0.0684371)
(-1.21268e-05 -1.17311e-06 0.0822447)
(5.83587e-06 -7.20462e-07 0.0857872)
(-1.23846e-05 -1.35371e-06 0.0858436)
(4.9204e-06 -8.21317e-07 0.0683761)
(4.9209e-06 -8.36716e-07 0.0683837)
(-1.23684e-05 -1.36083e-06 0.085852)
(7.15227e-06 6.61499e-07 0.082202)
(5.84213e-06 -7.29776e-07 0.0857957)
(-6.11692e-06 2.14459e-07 0.0684447)
(-7.48093e-06 5.68135e-07 0.0768906)
(-1.66597e-05 -2.84968e-07 0.0913885)
(5.55346e-06 -5.27847e-07 0.0898598)
(3.87597e-06 -1.87796e-07 0.0786198)
(-1.60542e-05 -1.12014e-06 0.0899097)
(-7.47221e-06 1.46408e-07 0.0786605)
(4.27501e-06 -6.71483e-07 0.0768435)
(-5.9229e-06 3.29424e-06 0.0715656)
(4.31106e-06 -2.63168e-06 0.07152)
(-3.113e-06 -3.13253e-06 0.0835877)
(3.61482e-06 5.14706e-06 0.0683541)
(5.15512e-06 3.61014e-06 0.0683478)
(-2.62732e-06 -4.09631e-06 0.0682983)
(-4.07639e-06 -2.64373e-06 0.0682922)
(7.27801e-06 7.26711e-06 0.0836337)
(1.68827e-05 1.03138e-05 0.0916923)
(-1.10224e-05 -5.56723e-06 0.0962498)
(9.97677e-06 6.91121e-06 0.0875681)
(-3.82051e-06 -3.05232e-06 0.0815235)
(2.41067e-05 1.42168e-05 0.096299)
(8.13134e-06 4.00281e-06 0.0815755)
(-7.77984e-06 -3.80653e-06 0.0916444)
(1.03445e-05 1.68872e-05 0.0916856)
(-5.57671e-06 -1.09992e-05 0.0962473)
(6.92746e-06 9.9711e-06 0.0875666)
(-3.05894e-06 -3.84117e-06 0.0815191)
(1.4242e-05 2.41019e-05 0.0962964)
(4.04026e-06 8.15897e-06 0.0815701)
(-3.81202e-06 -7.79298e-06 0.0916381)
(-7.78742e-06 -3.80701e-06 0.0916515)
(8.1165e-06 4.00641e-06 0.0815833)
(-3.55743e-06 -3.51297e-06 0.0875263)
(2.4081e-05 1.42107e-05 0.0963048)
(-1.10252e-05 -5.56023e-06 0.0962557)
(-3.82844e-06 -3.04489e-06 0.0815314)
(1.68581e-05 1.03033e-05 0.0916993)
(-3.81097e-06 -7.80151e-06 0.0916451)
(4.04159e-06 8.13601e-06 0.0815779)
(-3.51284e-06 -3.55199e-06 0.0875253)
(1.42405e-05 2.40746e-05 0.0963022)
(-5.5674e-06 -1.10006e-05 0.0962532)
(-3.05187e-06 -3.85522e-06 0.0815269)
(1.03358e-05 1.68612e-05 0.0916925)
(7.28704e-06 7.27725e-06 0.0836261)
(-2.62536e-06 -4.09879e-06 0.0682915)
(-4.0821e-06 -2.63943e-06 0.0682855)
(3.62274e-06 5.14947e-06 0.0683474)
(5.15548e-06 3.61792e-06 0.0683411)
(-3.11015e-06 -3.12845e-06 0.0835802)
(1.58518e-07 -6.08396e-06 0.0684664)
(-7.82112e-07 5.87572e-06 0.0858205)
(-1.20515e-06 -1.20637e-05 0.0822775)
(-9.15356e-07 4.92628e-06 0.0684055)
(-1.39493e-06 -1.23054e-05 0.0858767)
(5.12758e-07 -7.45069e-06 0.0769233)
(-3.12153e-07 -1.66101e-05 0.0914192)
(-2.0183e-07 3.88342e-06 0.0786536)
(-5.72943e-07 5.5335e-06 0.0898918)
(-7.31728e-07 4.26292e-06 0.0768766)
(1.16035e-07 -7.46149e-06 0.078694)
(-1.15683e-06 -1.60001e-05 0.0899414)
(3.27252e-06 -5.85125e-06 0.0715982)
(-6.08927e-06 1.78125e-07 0.0684672)
(5.86088e-06 -7.58527e-07 0.0858212)
(-1.20656e-05 -1.20612e-06 0.0822783)
(4.92149e-06 -8.82832e-07 0.0684063)
(-1.23185e-05 -1.38033e-06 0.0858773)
(-7.46089e-06 5.40841e-07 0.076924)
(-1.66198e-05 -2.84598e-07 0.0914195)
(5.53574e-06 -5.49132e-07 0.0898922)
(3.87133e-06 -1.86887e-07 0.0786539)
(4.26822e-06 -7.03692e-07 0.0768771)
(-1.60128e-05 -1.13442e-06 0.0899419)
(-7.44597e-06 1.45264e-07 0.0786944)
(-5.87025e-06 3.34276e-06 0.071596)
(-3.11589e-06 -3.15118e-06 0.0836177)
(3.5836e-06 5.13481e-06 0.0683809)
(5.152e-06 3.56845e-06 0.0683746)
(-2.6238e-06 -4.09616e-06 0.0683252)
(-4.05584e-06 -2.65105e-06 0.0683191)
(7.2398e-06 7.22233e-06 0.0836637)
(1.6798e-05 1.02802e-05 0.0917204)
(-1.10337e-05 -5.54125e-06 0.0962734)
(-3.85606e-06 -3.03481e-06 0.0815549)
(9.91185e-06 6.92451e-06 0.0875999)
(-7.8111e-06 -3.81672e-06 0.0916725)
(2.40194e-05 1.42256e-05 0.0963225)
(8.0748e-06 4.01978e-06 0.0816066)
(1.03214e-05 1.67939e-05 0.0917137)
(-5.54369e-06 -1.10035e-05 0.0962709)
(-3.02051e-06 -3.87901e-06 0.0815504)
(6.95338e-06 9.9014e-06 0.0875984)
(-3.80443e-06 -7.83019e-06 0.0916662)
(1.42457e-05 2.40233e-05 0.0963198)
(4.05593e-06 8.07787e-06 0.0816012)
(7.25234e-06 7.23317e-06 0.0836563)
(-2.62805e-06 -4.09583e-06 0.0683185)
(-4.06154e-06 -2.65394e-06 0.0683124)
(-3.1172e-06 -3.15011e-06 0.0836102)
(3.59383e-06 5.13885e-06 0.0683742)
(5.15453e-06 3.58137e-06 0.0683679)
(-7.81684e-06 -3.82517e-06 0.0916797)
(8.05679e-06 4.01756e-06 0.0816144)
(-3.593e-06 -3.48157e-06 0.0875583)
(2.39611e-05 1.42138e-05 0.0963284)
(-1.10417e-05 -5.53416e-06 0.0962794)
(-3.86411e-06 -3.03432e-06 0.0815627)
(1.67629e-05 1.02585e-05 0.0917274)
(-3.80815e-06 -7.83565e-06 0.0916733)
(4.05893e-06 8.05623e-06 0.081609)
(-3.47152e-06 -3.59132e-06 0.0875572)
(1.42452e-05 2.40034e-05 0.0963258)
(-5.54129e-06 -1.10062e-05 0.0962769)
(-3.01245e-06 -3.88728e-06 0.0815582)
(1.03106e-05 1.67592e-05 0.0917207)
(-3.28034e-06 -5.95375e-06 0.0715658)
(2.60221e-06 4.34761e-06 0.0715192)
(-5.9376e-06 -3.29324e-06 0.0715655)
(4.32272e-06 2.62142e-06 0.0715194)
(3.14037e-06 3.12288e-06 0.083587)
(-5.13991e-06 -3.62636e-06 0.0683539)
(-3.61491e-06 -5.16411e-06 0.0683475)
(4.09278e-06 2.6381e-06 0.0682974)
(2.65615e-06 4.07716e-06 0.0682913)
(-7.2724e-06 -7.2934e-06 0.0836338)
(-1.03077e-05 -1.68698e-05 0.0916924)
(5.56963e-06 1.10123e-05 0.0962495)
(-6.89232e-06 -9.95458e-06 0.0875685)
(3.02656e-06 3.7969e-06 0.0815231)
(-3.98272e-06 -8.10127e-06 0.0815764)
(-1.42087e-05 -2.40776e-05 0.0962988)
(3.80496e-06 7.77258e-06 0.0916438)
(-1.68681e-05 -1.03411e-05 0.0916859)
(1.09914e-05 5.56294e-06 0.0962469)
(-9.98482e-06 -6.92235e-06 0.0875664)
(3.83913e-06 3.02711e-06 0.0815182)
(-8.13832e-06 -4.01518e-06 0.0815704)
(-2.40953e-05 -1.4235e-05 0.0962965)
(7.77549e-06 3.79718e-06 0.0916374)
(3.80402e-06 7.77722e-06 0.0916509)
(-3.98633e-06 -8.08727e-06 0.0815842)
(3.48369e-06 3.55152e-06 0.0875258)
(-1.42091e-05 -2.40569e-05 0.0963047)
(3.01852e-06 3.80403e-06 0.0815309)
(-1.02998e-05 -1.68482e-05 0.0916994)
(5.56106e-06 1.10115e-05 0.0962553)
(7.78116e-06 3.79629e-06 0.0916445)
(-8.1234e-06 -4.02043e-06 0.0815782)
(3.56824e-06 3.49806e-06 0.0875248)
(-2.40734e-05 -1.42346e-05 0.0963023)
(3.84716e-06 3.01796e-06 0.081526)
(-1.68458e-05 -1.03336e-05 0.0916929)
(1.09907e-05 5.55357e-06 0.0962528)
(-7.28277e-06 -7.30274e-06 0.0836263)
(4.09574e-06 2.63665e-06 0.0682907)
(2.65381e-06 4.081e-06 0.0682845)
(-5.14249e-06 -3.63431e-06 0.0683472)
(-3.62394e-06 -5.1654e-06 0.0683408)
(3.13748e-06 3.12073e-06 0.0835795)
(2.57406e-06 4.35791e-06 0.0715345)
(-3.30428e-06 -5.9273e-06 0.0715811)
(4.33386e-06 2.59135e-06 0.0715348)
(-5.9108e-06 -3.31992e-06 0.0715808)
(-7.2617e-06 -7.28393e-06 0.0836413)
(4.08954e-06 2.6399e-06 0.0683042)
(2.65911e-06 4.07274e-06 0.068298)
(3.14406e-06 3.12554e-06 0.0835946)
(-5.13628e-06 -3.619e-06 0.0683606)
(-3.60636e-06 -5.16191e-06 0.0683542)
(3.80676e-06 7.79174e-06 0.0916649)
(-1.42065e-05 -2.40102e-05 0.0963164)
(3.46466e-06 3.56976e-06 0.0875418)
(-3.9905e-06 -8.05576e-06 0.0815998)
(3.0052e-06 3.82128e-06 0.0815466)
(5.54839e-06 1.1017e-05 0.0962671)
(-1.02784e-05 -1.68018e-05 0.0917134)
(7.79664e-06 3.79679e-06 0.0916586)
(-2.40257e-05 -1.42321e-05 0.096314)
(3.58766e-06 3.4773e-06 0.0875408)
(-8.09007e-06 -4.02783e-06 0.0815938)
(3.8662e-06 3.00227e-06 0.0815417)
(1.09964e-05 5.53879e-06 0.0962646)
(-1.67981e-05 -1.03154e-05 0.0917069)
(-1.02901e-05 -1.6825e-05 0.0917064)
(3.01081e-06 3.81014e-06 0.0815387)
(5.55497e-06 1.10129e-05 0.0962612)
(-6.90042e-06 -9.92271e-06 0.0875844)
(3.8052e-06 7.78315e-06 0.0916579)
(-3.98941e-06 -8.07323e-06 0.081592)
(-1.42084e-05 -2.40345e-05 0.0963105)
(-1.6822e-05 -1.03248e-05 0.0916999)
(3.85417e-06 3.00903e-06 0.0815338)
(1.09926e-05 5.54673e-06 0.0962587)
(-9.95139e-06 -6.93327e-06 0.0875824)
(7.78745e-06 3.79648e-06 0.0916515)
(-8.10844e-06 -4.02508e-06 0.081586)
(-2.40506e-05 -1.42337e-05 0.0963081)
(3.14807e-06 3.12832e-06 0.0836021)
(-5.13339e-06 -3.61178e-06 0.0683673)
(-3.59796e-06 -5.16047e-06 0.0683609)
(4.08624e-06 2.64078e-06 0.0683109)
(2.66144e-06 4.06825e-06 0.0683047)
(-7.25082e-06 -7.27434e-06 0.0836488)
(6.71253e-07 4.26239e-06 0.0768514)
(-1.53623e-07 -7.46581e-06 0.0786687)
(1.1086e-06 -1.60479e-05 0.0899173)
(2.35897e-07 5.03041e-06 0.0913524)
(1.71477e-07 3.87205e-06 0.0786282)
(5.22082e-07 5.53764e-06 0.0898681)
(-5.72505e-07 -7.46212e-06 0.0768981)
(-2.50663e-07 -6.1248e-06 0.0684387)
(1.11679e-06 -1.21154e-05 0.0822451)
(7.41142e-07 5.84214e-06 0.085788)
(1.31358e-06 -1.23907e-05 0.0858437)
(8.33377e-07 4.91741e-06 0.068378)
(8.49803e-07 4.91688e-06 0.0683856)
(1.32022e-06 -1.2377e-05 0.0858522)
(-6.3323e-07 7.13312e-06 0.0822007)
(7.5095e-07 5.84701e-06 0.0857965)
(-2.37445e-07 -6.11726e-06 0.0684463)
(-5.79153e-07 -7.46025e-06 0.0768897)
(2.78639e-07 -1.66587e-05 0.0913883)
(1.71992e-07 3.87514e-06 0.0786196)
(5.17148e-07 5.54716e-06 0.0898601)
(-1.51977e-07 -7.46985e-06 0.0786602)
(1.10755e-06 -1.60567e-05 0.0899093)
(6.63914e-07 4.25919e-06 0.076843)
(5.26761e-07 -7.46189e-06 0.0769067)
(-2.0323e-07 3.872e-06 0.0786366)
(-5.6016e-07 5.5422e-06 0.0898756)
(-3.13876e-07 -1.66341e-05 0.0914037)
(-7.1279e-07 4.2714e-06 0.0768598)
(1.16679e-07 -7.4553e-06 0.0786771)
(-1.1519e-06 -1.60249e-05 0.0899253)
(-8.99301e-07 4.92551e-06 0.068398)
(6.24419e-07 7.18085e-06 0.0822179)
(-1.38937e-06 -1.23231e-05 0.0858683)
(1.70734e-07 -6.09365e-06 0.0684589)
(-7.73207e-07 5.86786e-06 0.0858121)
(1.81973e-07 -6.10197e-06 0.0684514)
(-7.6446e-07 5.8624e-06 0.0858036)
(-1.18955e-06 -1.20941e-05 0.0822608)
(-8.848e-07 4.9259e-06 0.0683904)
(-1.38185e-06 -1.23393e-05 0.0858598)
(-7.218e-07 4.27061e-06 0.0768682)
(-2.7188e-07 5.01923e-06 0.0913678)
(1.15712e-07 -7.45241e-06 0.0786856)
(-1.15562e-06 -1.60135e-05 0.0899334)
(5.19481e-07 -7.45202e-06 0.076915)
(-2.03341e-07 3.86958e-06 0.0786451)
(-5.66781e-07 5.5372e-06 0.0898837)
(-5.65e-07 -7.46393e-06 0.0769065)
(1.69916e-07 3.87165e-06 0.0786367)
(5.26605e-07 5.53589e-06 0.0898762)
(2.76451e-07 -1.66378e-05 0.0914038)
(6.78882e-07 4.25789e-06 0.0768598)
(-1.55126e-07 -7.457e-06 0.0786772)
(1.1123e-06 -1.60337e-05 0.0899254)
(8.82251e-07 4.91736e-06 0.0684007)
(-6.14042e-07 7.14477e-06 0.0822176)
(1.33451e-06 -1.23448e-05 0.085869)
(7.69056e-07 5.85929e-06 0.0858134)
(-2.11326e-07 -6.09915e-06 0.0684613)
(-2.23581e-07 -6.10681e-06 0.0684538)
(7.6048e-07 5.85451e-06 0.085805)
(1.13473e-06 -1.20875e-05 0.082262)
(8.66419e-07 4.91795e-06 0.0683932)
(1.32705e-06 -1.23564e-05 0.0858606)
(6.87684e-07 4.25601e-06 0.0768682)
(2.36461e-07 5.01899e-06 0.0913679)
(-1.53032e-07 -7.45826e-06 0.0786856)
(1.11559e-06 -1.60245e-05 0.0899334)
(1.70952e-07 3.87076e-06 0.0786452)
(5.32997e-07 5.53253e-06 0.0898843)
(-5.57717e-07 -7.45751e-06 0.0769148)
(-3.14184e-06 3.10153e-06 0.0835872)
(5.13018e-06 -3.64229e-06 0.0683486)
(3.60283e-06 -5.17119e-06 0.068354)
(-4.10818e-06 2.62822e-06 0.0682919)