/*--------------------------------*- C++ -*----------------------------------*\
| =========                 |                                                 |
| \\      /  F ield         | OpenFOAM: The Open Source CFD Toolbox           |
|  \\    /   O peration     | Version:  2312                                  |
|   \\  /    A nd           | Website:  www.openfoam.com                      |
|    \\/     M anipulation  |                                                 |
\*---------------------------------------------------------------------------*/
FoamFile
{
    version     2.0;
    format      ascii;
    arch        "LSB;label=32;scalar=64";
    class       volScalarField;
    location    "800";
    object      nut;
}
// * * * * * * * * * * * * * * * * * * * * * * * * * * * * * * * * * * * * * //

dimensions      [0 2 -1 0 0 0 0];

internalField   nonuniform List<scalar> 
42840
(
0.000145953
9.86096e-05
9.86048e-05
8.16987e-05
0.000141924
9.62759e-05
9.62719e-05
8.17994e-05
0.000137982
9.44599e-05
9.44553e-05
8.23555e-05
0.000134144
9.31617e-05
9.31584e-05
8.32559e-05
0.000130465
9.23691e-05
9.23678e-05
8.46883e-05
0.00012697
9.20618e-05
9.20615e-05
8.64254e-05
0.000123697
9.22135e-05
9.22149e-05
8.83745e-05
0.000120691
9.27919e-05
9.2794e-05
9.05534e-05
0.000117953
9.37616e-05
9.37661e-05
9.2955e-05
0.000115537
9.50903e-05
9.50949e-05
9.52231e-05
0.000113456
9.67358e-05
9.67421e-05
9.77363e-05
0.000111727
9.86623e-05
9.86682e-05
0.000100272
0.000110359
0.000100834
0.000100839
0.000102878
0.000109358
0.000103218
0.000103223
0.000105555
0.000108724
0.000105786
0.00010579
0.000108219
0.000108454
0.000108506
0.000108511
0.000110911
0.000108542
0.000111351
0.000111357
0.00011359
0.000108976
0.000114296
0.000114304
0.000116283
0.000109745
0.000117324
0.000117333
0.000118969
0.000110834
0.000120421
0.00012043
0.000121618
0.000112226
0.000123565
0.000123574
0.000124276
0.000113905
0.000126739
0.000126748
0.00012686
0.00011585
0.000129927
0.000129935
0.000129509
0.000118041
0.000133115
0.000133123
0.000132011
0.000120456
0.00013629
0.0001363
0.000134586
8.2013e-05
8.19182e-05
9.85814e-05
9.85713e-05
9.6783e-05
9.67722e-05
8.19985e-05
8.1898e-05
9.86039e-05
9.85704e-05
9.68048e-05
9.67713e-05
9.85835e-05
9.68069e-05
9.6785e-05
8.19933e-05
8.18973e-05
9.85926e-05
9.68054e-05
9.67935e-05
8.22731e-05
8.20628e-05
8.2353e-05
9.62481e-05
9.62395e-05
9.48387e-05
9.48292e-05
8.20438e-05
8.22656e-05
9.62692e-05
9.62377e-05
9.48598e-05
9.48284e-05
9.62526e-05
9.48622e-05
9.48434e-05
8.20495e-05
8.22622e-05
9.62606e-05
9.48613e-05
9.48508e-05
8.26418e-05
8.25996e-05
8.32202e-05
9.44342e-05
9.44263e-05
9.34146e-05
9.34056e-05
8.26212e-05
8.32098e-05
9.44546e-05
9.44236e-05
9.34342e-05
9.34042e-05
9.44401e-05
9.34362e-05
9.34204e-05
8.26173e-05
8.31956e-05
9.44468e-05
9.34356e-05
9.34266e-05
8.36704e-05
8.36716e-05
8.45105e-05
9.3138e-05
9.31309e-05
9.24989e-05
9.24915e-05
8.35966e-05
8.45231e-05
9.31572e-05
9.31292e-05
9.2517e-05
9.24906e-05
9.3146e-05
9.25194e-05
9.25069e-05
8.35873e-05
8.44925e-05
9.31516e-05
9.25198e-05
9.25129e-05
8.49219e-05
8.50236e-05
8.61532e-05
9.23484e-05
9.23413e-05
9.20759e-05
9.20695e-05
8.49661e-05
8.61684e-05
9.2366e-05
9.23407e-05
9.20934e-05
9.20683e-05
9.23575e-05
9.20945e-05
9.20842e-05
8.49681e-05
8.6131e-05
9.23628e-05
9.2095e-05
9.20899e-05
8.64741e-05
8.67218e-05
8.80473e-05
9.20449e-05
9.20378e-05
9.2118e-05
9.21125e-05
8.66695e-05
8.80356e-05
9.20616e-05
9.20373e-05
9.21344e-05
9.21123e-05
9.20546e-05
9.21354e-05
9.21286e-05
8.67147e-05
8.80657e-05
9.20594e-05
9.21376e-05
9.21345e-05
8.84667e-05
8.86472e-05
9.0214e-05
9.2199e-05
9.21923e-05
9.25957e-05
9.25895e-05
8.86741e-05
9.01872e-05
9.22147e-05
9.21934e-05
9.26112e-05
9.2591e-05
9.22104e-05
9.26103e-05
9.26069e-05
8.86585e-05
9.02031e-05
9.22152e-05
9.26134e-05
9.26126e-05
9.06014e-05
9.08708e-05
9.25342e-05
9.278e-05
9.27738e-05
9.34745e-05
9.34678e-05
9.08427e-05
9.25036e-05
9.27951e-05
9.27753e-05
9.34896e-05
9.34694e-05
9.2792e-05
9.34856e-05
9.34854e-05
9.08714e-05
9.25041e-05
9.2797e-05
9.34922e-05
9.34906e-05
9.29324e-05
9.319e-05
9.49356e-05
9.37533e-05
9.37456e-05
9.47176e-05
9.47118e-05
9.31669e-05
9.49606e-05
9.3767e-05
9.37485e-05
9.47309e-05
9.4714e-05
9.37656e-05
9.47287e-05
9.47292e-05
9.3184e-05
9.50387e-05
9.37692e-05
9.47343e-05
9.47321e-05
9.53605e-05
9.56824e-05
9.7487e-05
9.5082e-05
9.50771e-05
9.62883e-05
9.6284e-05
9.56876e-05
9.74479e-05
9.50939e-05
9.50807e-05
9.62991e-05
9.6286e-05
9.50955e-05
9.62985e-05
9.63008e-05
9.56172e-05
9.73233e-05
9.50964e-05
9.63043e-05
9.63016e-05
9.77361e-05
9.80639e-05
9.99268e-05
9.67291e-05
9.6727e-05
9.8151e-05
9.81457e-05
9.80992e-05
9.98687e-05
9.67392e-05
9.67291e-05
9.81591e-05
9.81472e-05
9.6742e-05
9.81589e-05
9.81586e-05
9.81806e-05
9.98065e-05
9.67413e-05
9.81644e-05
9.81599e-05
0.000100304
0.000100644
0.000102427
9.86574e-05
9.86533e-05
0.000100266
0.000100259
0.000100634
0.000102491
9.86651e-05
9.86562e-05
0.000100272
0.00010026
9.86681e-05
0.000100272
0.000100274
0.000100683
0.000102424
9.86685e-05
0.000100278
0.000100273
0.000102889
0.000103322
0.000105102
0.00010083
0.000100825
0.000102601
0.000102593
0.000103252
0.00010506
0.000100836
0.000100826
0.000102606
0.000102594
0.000100842
0.000102606
0.00010261
0.00010319
0.000105007
0.000100839
0.000102611
0.000102608
0.000105509
0.000105887
0.000107739
0.000103216
0.00010321
0.000105127
0.000105119
0.000105874
0.0001077
0.000103221
0.000103211
0.000105132
0.000105118
0.000103228
0.00010513
0.000105138
0.000105897
0.00010771
0.000103225
0.000105136
0.000105134
0.000108148
0.000108541
0.000110506
0.000105785
0.000105779
0.000107814
0.000107804
0.000108612
0.000110503
0.000105789
0.000105777
0.000107817
0.000107803
0.000105799
0.000107816
0.000107825
0.000108504
0.000110376
0.000105794
0.00010782
0.000107821
0.000110834
0.000111194
0.000113112
0.000108506
0.000108499
0.000110631
0.000110621
0.000111181
0.000113113
0.000108509
0.000108497
0.000110633
0.00011062
0.000108521
0.000110632
0.000110643
0.000111245
0.00011309
0.000108515
0.000110637
0.000110638
0.000113518
0.000113971
0.000115789
0.000111352
0.000111344
0.000113555
0.000113542
0.000113906
0.00011592
0.000111355
0.000111343
0.000113558
0.000113544
0.000111367
0.000113553
0.000113567
0.000113866
0.000115878
0.000111362
0.000113562
0.000113562
0.000116208
0.000116649
0.000118484
0.000114299
0.000114288
0.000116564
0.000116549
0.000116501
0.000118628
0.000114303
0.00011429
0.000116567
0.000116553
0.000114314
0.000116562
0.000116575
0.000116529
0.000118456
0.000114308
0.000116571
0.000116569
0.000118836
0.000119235
0.000121251
0.000117326
0.000117316
0.000119645
0.000119631
0.000119164
0.00012123
0.00011733
0.000117319
0.000119647
0.000119635
0.000117341
0.000119643
0.000119656
0.000119247
0.000121169
0.000117334
0.000119653
0.00011965
0.000121516
0.000121874
0.000123832
0.000120423
0.000120412
0.000122779
0.000122765
0.000121892
0.000123814
0.000120426
0.000120416
0.00012278
0.00012277
0.000120436
0.000122778
0.00012279
0.000121921
0.000123886
0.00012043
0.000122788
0.000122784
0.000124193
0.000124566
0.000126437
0.000123569
0.000123555
0.000125947
0.000125932
0.000124554
0.000126395
0.00012357
0.00012356
0.000125948
0.000125938
0.000123581
0.000125945
0.000125957
0.000124514
0.000126459
0.000123574
0.000125955
0.000125951
0.000126788
0.000127183
0.000129117
0.000126743
0.000126728
0.000129133
0.000129116
0.000127195
0.00012904
0.000126743
0.000126733
0.000129133
0.000129121
0.000126753
0.00012913
0.000129142
0.000127113
0.000129184
0.000126746
0.000129139
0.000129135
0.000129375
0.000129736
0.000131572
0.000129931
0.000129914
0.00013232
0.000132304
0.000129775
0.000131567
0.000129931
0.000129919
0.000132321
0.000132309
0.000129939
0.000132317
0.00013233
0.00012967
0.000131646
0.000129932
0.000132328
0.000132323
0.000131944
0.000132363
0.000134274
0.000133118
0.000133101
0.000135501
0.000135483
0.000132316
0.000134169
0.000133118
0.000133105
0.000135501
0.000135489
0.000133127
0.000135498
0.00013551
0.000132255
0.00013417
0.000133119
0.000135508
0.000135504
0.000134446
0.00013477
0.000136294
0.000136276
0.000134816
0.000136293
0.000136281
0.000136302
0.00013483
0.000136295
7.20365e-05
4.95763e-05
4.95891e-05
7.12079e-05
2.3616e-05
2.36129e-05
7.2035e-05
4.95709e-05
4.95836e-05
7.12066e-05
0.00014595
0.000145943
0.000145941
0.000142913
0.00014291
0.000142903
0.000142901
6.99375e-05
6.76027e-05
0.000122026
9.79723e-05
6.82687e-05
0.000121041
6.89178e-05
2.36152e-05
2.36121e-05
6.99193e-05
0.000122003
6.76421e-05
9.79722e-05
0.000121037
6.82329e-05
6.89294e-05
6.20582e-05
6.20416e-05
8.21918e-05
6.23519e-05
6.23664e-05
7.37848e-05
4.95946e-05
7.30532e-05
4.96064e-05
2.36046e-05
2.36019e-05
7.37837e-05
4.95892e-05
7.3048e-05
4.9601e-05
0.000141921
0.000141914
0.000141913
0.000138942
0.000138939
0.000138932
0.000138931
7.29275e-05
6.94036e-05
0.000118297
9.57684e-05
7.18909e-05
7.00365e-05
0.000117376
2.36038e-05
2.3601e-05
7.29258e-05
0.000118273
6.94398e-05
9.57697e-05
7.19001e-05
0.000117372
7.00029e-05
6.293e-05
6.29166e-05
8.24652e-05
6.32045e-05
6.32169e-05
7.53063e-05
4.96106e-05
7.46757e-05
4.96214e-05
2.35942e-05
2.35918e-05
7.53182e-05
4.96053e-05
7.46607e-05
4.9616e-05
0.000137978
0.000137972
0.000137971
0.00013509
0.000135087
0.00013508
0.000135079
7.58838e-05
7.1102e-05
0.000114863
9.40835e-05
7.48896e-05
7.16954e-05
0.000114044
2.35933e-05
2.35909e-05
7.58945e-05
0.000114839
7.11319e-05
9.40844e-05
7.48889e-05
0.000114039
7.1669e-05
6.37248e-05
6.37171e-05
8.31228e-05
6.39874e-05
6.39829e-05
7.66671e-05
4.96248e-05
7.60995e-05
4.9634e-05
2.35848e-05
2.35827e-05
7.66783e-05
4.96195e-05
7.60835e-05
4.96286e-05
0.000134141
0.000134134
0.000134135
0.000131371
0.000131368
0.000131362
0.000131362
7.87916e-05
7.27058e-05
0.000111744
9.29138e-05
7.7829e-05
7.32588e-05
0.000111008
2.35839e-05
2.35818e-05
7.88161e-05
0.000111723
7.27323e-05
9.29142e-05
7.78247e-05
0.000111006
7.32368e-05
6.44698e-05
6.44584e-05
8.42279e-05
6.47102e-05
6.4712e-05
7.78859e-05
4.96372e-05
7.73694e-05
4.96452e-05
2.35763e-05
2.35745e-05
7.78962e-05
4.96322e-05
7.73538e-05
4.96396e-05
0.000130461
0.000130455
0.000130456
0.000127828
0.000127825
0.000127818
0.000127819
8.16135e-05
7.42112e-05
0.000109006
9.2246e-05
8.06877e-05
7.47332e-05
0.000108368
2.35754e-05
2.35736e-05
8.16081e-05
0.000108989
7.42398e-05
9.22467e-05
8.07023e-05
0.00010837
7.47123e-05
6.51557e-05
6.51479e-05
8.57088e-05
6.53793e-05
6.53801e-05
7.8989e-05
4.96484e-05
7.85167e-05
4.96552e-05
2.35687e-05
2.35672e-05
7.89981e-05
4.96436e-05
7.85021e-05
4.96496e-05
0.000126967
0.000126961
0.000126962
0.000124497
0.000124494
0.000124488
0.00012449
8.43489e-05
7.56262e-05
0.000106671
9.20581e-05
8.34279e-05
7.61237e-05
0.000106138
2.35679e-05
2.35664e-05
8.43429e-05
0.000106657
7.56575e-05
9.20586e-05
8.34392e-05
0.000106142
7.61069e-05
6.5792e-05
6.57864e-05
8.74795e-05
6.60031e-05
6.60016e-05
7.99973e-05
4.96586e-05
7.95667e-05
4.9665e-05
2.35621e-05
2.35609e-05
8.00071e-05
4.96542e-05
7.95527e-05
4.96591e-05
0.000123694
0.000123688
0.000123691
0.000121423
0.00012142
0.000121415
0.000121418
8.69465e-05
7.6968e-05
0.000104765
9.23197e-05
8.60664e-05
7.74397e-05
0.00010434
2.35612e-05
2.35601e-05
8.69373e-05
0.000104753
7.69993e-05
9.23229e-05
8.6077e-05
0.000104345
7.74226e-05
6.63869e-05
6.63827e-05
8.9529e-05
6.65863e-05
6.65837e-05
8.0936e-05
4.96686e-05
8.05325e-05
4.96749e-05
2.35564e-05
2.35556e-05
8.09395e-05
4.96644e-05
8.05243e-05
4.96687e-05
0.000120687
0.000120682
0.000120685
0.000118607
0.000118603
0.000118599
0.000118602
8.94288e-05
7.82325e-05
0.000103302
9.29998e-05
8.8594e-05
7.86855e-05
0.000102991
2.35555e-05
2.35547e-05
8.94418e-05
0.000103294
7.82655e-05
9.30032e-05
8.85915e-05
0.000102998
7.86696e-05
6.69463e-05
6.69421e-05
9.17798e-05
6.71344e-05
6.71318e-05
8.18108e-05
4.96784e-05
8.14333e-05
4.96853e-05
2.35517e-05
2.35512e-05
8.18136e-05
4.96749e-05
8.14269e-05
4.96784e-05
0.000117949
0.000117944
0.000117948
0.00011611
0.000116107
0.000116103
0.000116107
9.18189e-05
7.94366e-05
0.000102289
9.40623e-05
9.10008e-05
7.98659e-05
0.00010209
2.35508e-05
2.35504e-05
9.18398e-05
0.000102283
7.94692e-05
9.40684e-05
9.09864e-05
0.000102097
7.9853e-05
6.7474e-05
6.74706e-05
9.41795e-05
6.76523e-05
6.76499e-05
8.26295e-05
4.96885e-05
8.22768e-05
4.96965e-05
2.3548e-05
2.35479e-05
8.26306e-05
4.96859e-05
8.22675e-05
4.96888e-05
0.000115533
0.00011553
0.000115533
0.000113944
0.000113941
0.000113938
0.000113942
9.41075e-05
8.0589e-05
0.00010172
9.54746e-05
9.32972e-05
8.099e-05
0.000101629
2.35471e-05
2.35471e-05
9.41356e-05
0.000101715
8.06136e-05
9.54807e-05
9.3283e-05
0.000101638
8.09799e-05
6.79739e-05
6.7971e-05
9.65324e-05
6.81441e-05
6.81415e-05
8.34034e-05
4.96996e-05
8.30673e-05
4.97085e-05
2.35453e-05
2.35456e-05
8.3402e-05
4.96958e-05
8.30615e-05
4.97023e-05
0.000113453
0.00011345
0.000113454
0.000112126
0.000112123
0.000112121
0.000112124
9.63107e-05
8.16864e-05
0.000101581
9.71939e-05
9.5498e-05
8.20711e-05
0.000101596
2.35444e-05
2.35447e-05
9.63371e-05
0.000101575
8.17041e-05
9.72005e-05
9.54851e-05
0.000101603
8.2055e-05
6.84501e-05
6.84474e-05
9.89501e-05
6.86122e-05
6.86099e-05
8.41348e-05
4.97121e-05
8.38171e-05
4.97213e-05
2.35436e-05
2.35443e-05
8.41352e-05
4.97066e-05
8.38101e-05
4.97158e-05
0.000111724
0.000111722
0.000111726
0.000110667
0.000110664
0.000110662
0.000110666
9.8433e-05
8.2727e-05
0.000101853
9.9186e-05
9.76109e-05
8.31089e-05
0.000101969
2.35428e-05
2.35435e-05
9.84578e-05
0.00010185
8.27438e-05
9.91912e-05
9.76011e-05
0.000101978
8.30904e-05
6.89049e-05
6.8902e-05
0.000101613
6.90602e-05
6.90578e-05
8.48341e-05
4.97257e-05
8.45307e-05
4.97354e-05
2.35429e-05
2.3544e-05
8.48339e-05
4.97202e-05
8.45229e-05
4.97299e-05
0.000110356
0.000110355
0.000110359
0.000109574
0.000109571
0.00010957
0.000109574
0.000100472
8.37392e-05
0.000102516
0.000101413
9.96523e-05
8.40932e-05
0.000102726
2.35422e-05
2.35432e-05
0.000100498
0.000102515
8.37412e-05
0.000101418
9.96412e-05
0.000102735
8.40953e-05
6.93406e-05
6.93377e-05
0.000104219
6.94899e-05
6.94874e-05
8.55056e-05
4.97405e-05
8.52119e-05
4.97508e-05
2.35433e-05
2.35447e-05
8.55053e-05
4.97351e-05
8.52046e-05
4.97453e-05
0.000109355
0.000109355
0.000109359
0.000108848
0.000108845
0.000108845
0.00010885
0.000102444
8.46993e-05
0.000103543
0.000103846
0.000101622
8.50536e-05
0.000103841
2.35425e-05
2.35439e-05
0.000102467
0.000103543
8.46973e-05
0.000103851
0.000101614
0.00010385
8.50487e-05
6.97593e-05
6.97546e-05
0.000106815
6.99032e-05
6.99019e-05
8.61518e-05
4.97568e-05
8.58691e-05
4.97676e-05
2.35446e-05
2.35464e-05
8.61522e-05
4.97514e-05
8.58621e-05
4.97622e-05
0.000108721
0.000108721
0.000108727
0.000108488
0.000108485
0.000108485
0.000108492
0.000104354
8.56116e-05
0.000104907
0.000106455
0.000103532
8.59662e-05
0.000105286
2.35439e-05
2.35456e-05
0.000104373
0.000104908
8.56198e-05
0.00010646
0.000103526
0.000105296
8.59686e-05
7.01619e-05
7.01559e-05
0.000109553
7.03017e-05
7.03007e-05
8.6779e-05
4.97746e-05
8.65054e-05
4.97859e-05
2.35469e-05
2.3549e-05
8.67798e-05
4.97691e-05
8.64968e-05
4.97805e-05
0.000108451
0.000108451
0.000108459
0.000108487
0.000108483
0.000108484
0.000108492
0.00010621
8.65048e-05
0.000106582
0.000109208
0.00010538
8.68455e-05
0.000107037
2.35462e-05
2.35482e-05
0.000106222
0.000106586
8.65057e-05
0.000109214
0.000105381
0.000107046
8.68472e-05
7.0549e-05
7.05428e-05
0.000112142
7.06862e-05
7.06848e-05
8.73878e-05
4.97938e-05
8.71241e-05
4.98057e-05
2.35501e-05
2.35526e-05
8.73912e-05
4.97883e-05
8.71141e-05
4.98003e-05
0.000108538
0.000108539
0.000108548
0.000108836
0.000108832
0.000108834
0.000108842
0.000108004
8.73533e-05
0.000108544
0.000112081
0.00010719
8.76961e-05
0.000109065
2.35494e-05
2.35517e-05
0.000108017
0.000108546
8.7357e-05
0.000112088
0.000107187
0.000109075
8.76953e-05
7.09224e-05
7.09161e-05
0.000114848
7.1057e-05
7.10553e-05
8.79846e-05
4.98144e-05
8.7725e-05
4.98249e-05
2.35542e-05
2.35569e-05
8.79878e-05
4.9809e-05
8.7716e-05
4.98216e-05
0.000108972
0.000108974
0.000108983
0.000109522
0.000109518
0.000109521
0.00010953
0.000109753
8.81755e-05
0.000110758
0.000115047
0.000108942
8.85185e-05
0.00011134
2.35534e-05
2.35561e-05
0.000109759
0.000110763
8.81832e-05
0.000115057
0.000108945
0.000111352
8.85223e-05
7.12833e-05
7.12765e-05
0.000117564
7.14148e-05
7.1413e-05
8.85676e-05
4.98395e-05
8.83156e-05
4.98458e-05
2.35592e-05
2.35624e-05
8.85754e-05
4.98312e-05
8.83032e-05
4.98436e-05
0.00010974
0.000109743
0.000109753
0.000110532
0.000110527
0.000110531
0.000110541
0.000111451
8.89776e-05
0.000113201
0.000118094
0.000110658
8.9313e-05
0.000113838
2.35583e-05
2.35612e-05
0.000111453
0.000113206
8.898e-05
0.000118104
0.000110662
0.000113848
8.93088e-05
7.16319e-05
7.16247e-05
0.000120179
7.176e-05
7.17586e-05
8.9143e-05
4.98627e-05
8.88907e-05
4.98698e-05
2.3565e-05
2.35682e-05
8.91475e-05
4.98578e-05
8.88806e-05
4.98649e-05
0.000110829
0.000110833
0.000110843
0.000111851
0.000111845
0.00011185
0.00011186
0.0001131
8.97427e-05
0.000115846
0.000121205
0.000112328
9.00718e-05
0.00011653
2.35639e-05
2.35671e-05
0.000113101
0.000115853
8.97505e-05
0.000121215
0.000112335
0.000116541
9.00737e-05
7.1969e-05
7.19611e-05
0.000122903
7.20923e-05
7.20923e-05
8.97032e-05
4.98873e-05
8.94588e-05
4.98949e-05
2.35713e-05
2.35748e-05
8.97078e-05
4.98824e-05
8.9449e-05
4.989e-05
0.000112221
0.000112226
0.000112236
0.00011346
0.000113454
0.00011346
0.00011347
0.000114696
9.04885e-05
0.000118666
0.000124357
0.000113954
9.08104e-05
0.000119392
2.35703e-05
2.35737e-05
0.000114705
0.000118675
9.04937e-05
0.000124368
0.000113959
0.000119407
9.08165e-05
7.22952e-05
7.22868e-05
0.00012553
7.24141e-05
7.24135e-05
9.02508e-05
4.9913e-05
9.00115e-05
4.9921e-05
2.35782e-05
2.35819e-05
9.02583e-05
4.99081e-05
9.00023e-05
4.99162e-05
0.000113899
0.000113905
0.000113915
0.00011534
0.000115334
0.000115341
0.00011535
0.000116254
9.1211e-05
0.000121655
0.000127535
0.00011553
9.15207e-05
0.000122419
2.35772e-05
2.35809e-05
0.000116264
0.000121666
9.12144e-05
0.000127546
0.00011554
0.000122437
9.15257e-05
7.261e-05
7.26024e-05
0.000128132
7.27252e-05
7.27225e-05
9.07937e-05
4.99397e-05
9.05462e-05
4.99481e-05
2.35858e-05
2.35897e-05
9.07949e-05
4.99347e-05
9.05443e-05
4.99433e-05
0.000115844
0.000115851
0.00011586
0.000117471
0.000117464
0.000117472
0.000117482
0.000117773
9.19046e-05
0.000124797
0.000130723
0.000117063
9.22151e-05
0.000125597
2.35848e-05
2.35887e-05
0.000117775
0.000124809
9.1909e-05
0.000130735
0.000117076
0.000125615
9.22125e-05
7.29152e-05
7.29064e-05
0.000130675
7.30254e-05
7.30231e-05
9.13216e-05
4.99673e-05
9.10702e-05
4.9976e-05
2.35939e-05
2.35981e-05
9.13171e-05
4.99623e-05
9.10695e-05
4.99712e-05
0.000118034
0.000118042
0.000118051
0.000119832
0.000119825
0.000119834
0.000119843
0.000119238
9.25724e-05
0.000128069
0.000133909
0.000118549
9.28725e-05
0.000128898
2.3593e-05
2.35971e-05
0.000119238
0.000128082
9.258e-05
0.00013392
0.000118561
0.000128916
9.28769e-05
7.32095e-05
7.31996e-05
0.000133253
7.33161e-05
7.33173e-05
9.18277e-05
4.99955e-05
9.1586e-05
5.00061e-05
2.36025e-05
2.36069e-05
9.1823e-05
4.99906e-05
9.15851e-05
4.99996e-05
0.000120449
0.000120457
0.000120467
0.000120649
9.32217e-05
0.000131443
0.000137081
0.000119985
9.35224e-05
0.000132292
2.36017e-05
2.36059e-05
0.00012065
0.000131454
9.32308e-05
0.000137092
0.000119998
0.000132309
9.35204e-05
7.34941e-05
7.34844e-05
0.000135638
7.35962e-05
7.35966e-05
2.36182e-05
2.36152e-05
2.36161e-05
2.3613e-05
6.2066e-05
6.20643e-05
8.18999e-05
6.23616e-05
6.23584e-05
2.36095e-05
2.36124e-05
2.36074e-05
2.36103e-05
8.20926e-05
6.27946e-05
6.27908e-05
6.25095e-05
6.25067e-05
7.20257e-05
4.95701e-05
4.95829e-05
7.12168e-05
6.99227e-05
6.76442e-05
0.000122007
9.79483e-05
6.8239e-05
0.000121036
6.89345e-05
6.99399e-05
6.76342e-05
0.000122004
9.79371e-05
6.82312e-05
0.000121034
6.89259e-05
7.21627e-05
4.95981e-05
4.95859e-05
7.29421e-05
7.21686e-05
4.95917e-05
4.95797e-05
7.29262e-05
7.04202e-05
9.73511e-05
6.91361e-05
0.000119168
6.85537e-05
0.000120107
7.14199e-05
7.04101e-05
9.73411e-05
6.9132e-05
0.000119165
6.85473e-05
0.000120105
7.14245e-05
6.205e-05
6.20499e-05
8.17996e-05
6.23515e-05
6.23815e-05
2.36175e-05
2.36146e-05
2.36073e-05
2.36102e-05
8.20204e-05
6.27909e-05
6.2807e-05
6.25044e-05
6.24948e-05
2.36089e-05
2.36117e-05
6.99486e-05
6.76465e-05
0.000122015
9.79698e-05
6.82255e-05
0.000121046
6.89048e-05
7.2034e-05
4.9567e-05
4.958e-05
7.1203e-05
6.99324e-05
0.000121999
6.76145e-05
9.79348e-05
0.000121029
6.8252e-05
6.89128e-05
7.21582e-05
4.95925e-05
4.95805e-05
7.29409e-05
7.03981e-05
9.73731e-05
6.91263e-05
0.000119178
6.85567e-05
0.000120117
7.14379e-05
7.21564e-05
4.95888e-05
4.95765e-05
7.2938e-05
7.04027e-05
9.73402e-05
0.000119161
6.9148e-05
0.000120099
6.85258e-05
7.14321e-05
7.2011e-05
4.95716e-05
4.9585e-05
7.1216e-05
6.99426e-05
0.000122016
6.76333e-05
9.795e-05
0.000121045
6.82284e-05
6.89208e-05
7.20122e-05
4.95676e-05
4.95806e-05
7.12192e-05
7.03924e-05
9.73787e-05
6.9167e-05
0.000119174
6.85172e-05
0.000120127
7.14305e-05
7.21648e-05
4.95938e-05
4.95811e-05
7.29162e-05
7.03945e-05
9.73527e-05
0.000119177
6.913e-05
0.000120117
6.85466e-05
7.14344e-05
7.21732e-05
4.95894e-05
4.95772e-05
7.29151e-05
6.20416e-05
6.20483e-05
8.18252e-05
6.23571e-05
6.2375e-05
2.36174e-05
2.36144e-05
2.36065e-05
2.36093e-05
8.20162e-05
6.27988e-05
6.28035e-05
6.24944e-05
6.24975e-05
2.36087e-05
2.36116e-05
6.99149e-05
0.000122002
6.76169e-05
9.79589e-05
0.000121036
6.82506e-05
6.89293e-05
7.20166e-05
4.95721e-05
4.95849e-05
7.12201e-05
7.20141e-05
4.95662e-05
4.9579e-05
7.12183e-05
7.04095e-05
9.73731e-05
0.000119169
6.91329e-05
0.000120104
6.85533e-05
7.14274e-05
7.04185e-05
9.73613e-05
0.000119168
6.9148e-05
0.000120103
6.85267e-05
7.14092e-05
7.21689e-05
4.95937e-05
4.95816e-05
7.29203e-05
7.21672e-05
4.95878e-05
4.95759e-05
7.29176e-05
2.36159e-05
2.36129e-05
2.36147e-05
2.36117e-05
8.17876e-05
6.27879e-05
6.27861e-05
6.25034e-05
6.24882e-05
2.36072e-05
2.36101e-05
2.3606e-05
2.36089e-05
2.36068e-05
2.36041e-05
2.36047e-05
2.36019e-05
6.29286e-05
6.29313e-05
8.20934e-05
6.32173e-05
6.32091e-05
2.35989e-05
2.36015e-05
2.35968e-05
2.35994e-05
8.23537e-05
6.36113e-05
6.36116e-05
6.33498e-05
6.33427e-05
7.37714e-05
4.95888e-05
7.30597e-05
4.96003e-05
7.29199e-05
6.94409e-05
0.000118275
9.5745e-05
7.19096e-05
7.00059e-05
0.000117371
7.29215e-05
6.94318e-05
0.000118274
9.57351e-05
7.19067e-05
7.00009e-05
0.000117368
7.38843e-05
4.96142e-05
4.96031e-05
7.45651e-05
7.38926e-05
4.9608e-05
4.95969e-05
7.45616e-05
7.3404e-05
9.52772e-05
7.08507e-05
0.000115649
7.0303e-05
0.000116518
7.44166e-05
7.34044e-05
9.52677e-05
7.08432e-05
0.000115646
7.02948e-05
0.000116516
7.44156e-05
6.29309e-05
6.29216e-05
8.20788e-05
6.32047e-05
6.3217e-05
2.36061e-05
2.36034e-05
2.35967e-05
2.35993e-05
8.23084e-05
6.36018e-05
6.36106e-05
6.33361e-05
6.33338e-05
2.35982e-05
2.36008e-05
7.29182e-05
6.9442e-05
0.000118285
9.57661e-05
7.1895e-05
6.99965e-05
0.00011738
7.37825e-05
4.95856e-05
7.30457e-05
4.95972e-05
7.29251e-05
0.000118267
6.94139e-05
9.57345e-05
7.18953e-05
0.000117363
7.00192e-05
7.388e-05
4.96086e-05
4.95977e-05
7.45778e-05
7.33993e-05
9.52984e-05
7.08408e-05
0.000115658
7.03043e-05
0.000116528
7.44273e-05
7.38788e-05
4.96049e-05
4.95938e-05
7.45741e-05
7.33906e-05
9.52666e-05
0.000115642
7.08638e-05
0.00011651
7.02748e-05
7.442e-05
7.37613e-05
4.95903e-05
7.3053e-05
4.96023e-05
7.29251e-05
0.000118286
6.94296e-05
9.5749e-05
7.18917e-05
0.000117379
6.9997e-05
7.37603e-05
4.95863e-05
7.30628e-05
4.95979e-05
7.33836e-05
9.53029e-05
7.08779e-05
0.000115656
7.02645e-05
0.00011654
7.4403e-05
7.38842e-05
4.96095e-05
4.95984e-05
7.45373e-05
7.3391e-05
9.52803e-05
0.000115657
7.08395e-05
0.000116528
7.02925e-05
7.44281e-05
7.38949e-05
4.96056e-05
4.95944e-05
7.45512e-05
6.29152e-05
6.2926e-05
8.20874e-05
6.32163e-05
6.32189e-05
2.3606e-05
2.36033e-05
2.35959e-05
2.35984e-05
8.23138e-05
6.36039e-05
6.36125e-05
6.33271e-05
6.33385e-05
2.35981e-05
2.36007e-05
7.29055e-05
0.000118272
6.9414e-05
9.57564e-05
7.19101e-05
0.000117371
7.00212e-05
7.37649e-05
4.95907e-05
7.30563e-05
4.96022e-05
7.3762e-05
4.95847e-05
7.30544e-05
4.95963e-05
7.33959e-05
9.52984e-05
0.000115651
7.08533e-05
0.000116516
7.02985e-05
7.44138e-05
7.34068e-05
9.52874e-05
0.000115651
7.08687e-05
0.000116515
7.02716e-05
7.4399e-05
7.38875e-05
4.96099e-05
4.95989e-05
7.45564e-05
7.38854e-05
4.96041e-05
4.95931e-05
7.45536e-05
2.36045e-05
2.36018e-05
2.36033e-05
2.36006e-05
8.20206e-05
6.36046e-05
6.36093e-05
6.33386e-05
6.3326e-05
2.35966e-05
2.35992e-05
2.35954e-05
2.3598e-05
2.35964e-05
2.3594e-05
2.35943e-05
2.35919e-05
6.37366e-05
6.37381e-05
8.27511e-05
6.39967e-05
6.39907e-05
2.35893e-05
2.35916e-05
2.35872e-05
2.35895e-05
8.30977e-05
6.43648e-05
6.43584e-05
6.41155e-05
6.41139e-05
7.53053e-05
4.96048e-05
7.46727e-05
4.96153e-05
7.58938e-05
7.11378e-05
0.00011484
9.40616e-05
7.48962e-05
7.16704e-05
0.000114038
7.59006e-05
7.11315e-05
0.000114838
9.40521e-05
7.48947e-05
7.16677e-05
0.000114035
7.54076e-05
4.96277e-05
4.9618e-05
7.6007e-05
7.54053e-05
4.96216e-05
4.9612e-05
7.60048e-05
7.63802e-05
9.37224e-05
7.24662e-05
0.000112465
7.1951e-05
0.000113234
7.73628e-05
7.63728e-05
9.37143e-05
7.24584e-05
0.000112463
7.19415e-05
0.000113231
7.7367e-05
6.37294e-05
6.3729e-05
8.27184e-05
6.39864e-05
6.39943e-05
2.35957e-05
2.35933e-05
2.35871e-05
2.35894e-05
8.31049e-05
6.43543e-05
6.4362e-05
6.41075e-05
6.41048e-05
2.35886e-05
2.35909e-05
7.59059e-05
7.11379e-05
0.00011485
9.40819e-05
7.4885e-05
7.16595e-05
0.000114046
7.53173e-05
4.96015e-05
7.46576e-05
4.96122e-05
7.58985e-05
0.000114832
7.11087e-05
9.40512e-05
7.48809e-05
0.000114031
7.16864e-05
7.53926e-05
4.96223e-05
4.96127e-05
7.60213e-05
7.63655e-05
9.37425e-05
7.24552e-05
0.000112474
7.19501e-05
0.000113242
7.7369e-05
7.53907e-05
4.96179e-05
4.96087e-05
7.60172e-05
7.63642e-05
9.37128e-05
0.000112459
7.24808e-05
0.000113226
7.19199e-05
7.73762e-05
7.52797e-05
4.96062e-05
7.46742e-05
4.96173e-05
7.59011e-05
0.00011485
7.11297e-05
9.40675e-05
7.48755e-05
0.000114046
7.16653e-05
7.52953e-05
4.96023e-05
7.46741e-05
4.9613e-05
7.63677e-05
9.3747e-05
7.24878e-05
0.000112473
7.19157e-05
0.000113254
7.73542e-05
7.54073e-05
4.9623e-05
4.96137e-05
7.5981e-05
7.63617e-05
9.37281e-05
0.000112473
7.24573e-05
0.000113242
7.19386e-05
7.73663e-05
7.54064e-05
4.96192e-05
4.96095e-05
7.59957e-05
6.3724e-05
6.37328e-05
8.27054e-05
6.39962e-05
6.39978e-05
2.35956e-05
2.35931e-05
2.35862e-05
2.35885e-05
8.31084e-05
6.43581e-05
6.43654e-05
6.40987e-05
6.4112e-05
2.35884e-05
2.35907e-05
7.58909e-05
0.000114839
7.11036e-05
9.40744e-05
7.48909e-05
0.00011404
7.16824e-05
7.52997e-05
4.96066e-05
7.46652e-05
4.96172e-05
7.52972e-05
4.96007e-05
7.4663e-05
4.96113e-05
7.63665e-05
9.37429e-05
0.000112469
7.24677e-05
0.000113233
7.19452e-05
7.73721e-05
7.63675e-05
9.37338e-05
0.00011247
7.24803e-05
0.000113233
7.19177e-05
7.73594e-05
7.53968e-05
4.96234e-05
4.96137e-05
7.60005e-05
7.53944e-05
4.96176e-05
4.9608e-05
7.59981e-05
2.35941e-05
2.35917e-05
2.35929e-05
2.35905e-05
8.28463e-05
6.4355e-05
6.43607e-05
6.41079e-05
6.4102e-05
2.3587e-05
2.35893e-05
2.35858e-05
2.35881e-05
2.3587e-05
2.35849e-05
2.35849e-05
2.35828e-05
6.44784e-05
6.44741e-05
8.38112e-05
6.47191e-05
6.47131e-05
2.35807e-05
2.35827e-05
2.35786e-05
2.35805e-05
8.4303e-05
6.50596e-05
6.50535e-05
6.4829e-05
6.48253e-05
7.66655e-05
4.96195e-05
7.60953e-05
4.96276e-05
7.88156e-05
7.27372e-05
0.000111725
9.28929e-05
7.78396e-05
7.32393e-05
0.000111002
7.88187e-05
7.27307e-05
0.000111723
9.28852e-05
7.78327e-05
7.32337e-05
0.000111
7.67497e-05
4.96395e-05
4.96312e-05
7.72937e-05
7.67466e-05
4.96335e-05
4.96251e-05
7.72908e-05
7.92777e-05
9.2682e-05
7.39881e-05
0.000109632
7.35029e-05
0.000110308
8.02402e-05
7.92726e-05
9.26741e-05
7.39841e-05
0.00010963
7.34951e-05
0.000110305
8.02419e-05
6.44677e-05
6.44671e-05
8.38449e-05
6.47101e-05
6.47142e-05
2.35862e-05
2.35842e-05
2.35785e-05
2.35804e-05
8.43155e-05
6.50484e-05
6.50527e-05
6.48192e-05
6.48161e-05
2.35799e-05
2.35819e-05
7.88258e-05
7.27352e-05
0.000111733
9.29118e-05
7.78256e-05
7.323e-05
0.00011101
7.66769e-05
4.9615e-05
7.60802e-05
4.96251e-05
7.88206e-05
0.000111718
7.27067e-05
9.2884e-05
7.782e-05
0.000110997
7.3254e-05
7.67345e-05
4.9634e-05
4.96259e-05
7.73072e-05
7.92632e-05
9.27003e-05
7.39785e-05
0.00010964
7.35005e-05
0.000110316
8.02531e-05
7.67323e-05
4.96304e-05
4.96221e-05
7.73024e-05
7.92656e-05
9.26737e-05
0.000109627
7.39993e-05
0.000110301
7.34731e-05
8.02474e-05
7.66426e-05
4.96205e-05
7.60964e-05
4.96294e-05
7.88223e-05
0.000111733
7.27273e-05
9.29003e-05
7.78232e-05
0.00011101
7.32337e-05
7.66571e-05
4.96171e-05
7.60957e-05
4.9625e-05
7.92754e-05
9.27035e-05
7.40059e-05
0.000109638
7.34701e-05
0.000110326
8.02237e-05
7.67465e-05
4.96348e-05
4.96268e-05
7.72697e-05
7.92608e-05
9.2689e-05
0.00010964
7.39842e-05
0.000110316
7.34919e-05
8.02467e-05
7.67466e-05
4.9631e-05
4.9623e-05
7.72836e-05
6.44628e-05
6.44717e-05
8.38414e-05
6.47124e-05
6.47203e-05
2.35861e-05
2.3584e-05
2.35776e-05
2.35796e-05
8.43194e-05
6.50518e-05
6.5057e-05
6.48127e-05
6.48213e-05
2.35798e-05
2.35817e-05
7.88027e-05
0.000111723
7.27061e-05
9.29068e-05
7.78294e-05
0.000111006
7.32527e-05
7.66609e-05
4.96209e-05
7.60852e-05
4.96298e-05
7.66587e-05
4.96152e-05
7.60827e-05
4.96239e-05
7.9267e-05
9.27012e-05
0.000109638
7.39868e-05
0.000110307
7.34967e-05
8.02167e-05
7.92743e-05
9.26941e-05
0.000109638
7.40017e-05
0.000110307
7.34712e-05
8.0226e-05
7.67358e-05
4.96351e-05
4.96269e-05
7.72878e-05
7.67332e-05
4.96293e-05
4.96215e-05
7.72857e-05
2.35847e-05
2.35826e-05
2.35835e-05
2.35814e-05
8.40193e-05
6.50506e-05
6.5052e-05
6.48178e-05
6.48108e-05
2.35784e-05
2.35804e-05
2.35772e-05
2.35792e-05
2.35785e-05
2.35767e-05
2.35764e-05
2.35746e-05
6.51634e-05
6.51599e-05
8.52999e-05
6.53884e-05
6.53822e-05
2.3573e-05
2.35746e-05
2.35709e-05
2.35725e-05
8.58002e-05
6.57054e-05
6.56992e-05
6.54879e-05
6.54841e-05
7.78837e-05
4.96316e-05
7.73647e-05
4.96391e-05