/*--------------------------------*- C++ -*----------------------------------*\
| =========                 |                                                 |
| \\      /  F ield         | OpenFOAM: The Open Source CFD Toolbox           |
|  \\    /   O peration     | Version:  2312                                  |
|   \\  /    A nd           | Website:  www.openfoam.com                      |
|    \\/     M anipulation  |                                                 |
\*---------------------------------------------------------------------------*/
FoamFile
{
    version     2.0;
    format      ascii;
    arch        "LSB;label=32;scalar=64";
    class       volScalarField;
    location    "500";
    object      k;
}
// * * * * * * * * * * * * * * * * * * * * * * * * * * * * * * * * * * * * * //

dimensions      [0 2 -2 0 0 0 0];

internalField   nonuniform List<scalar> 
42840
(
1.45937e-05
1.62417e-05
1.62419e-05
1.86733e-05
1.43151e-05
1.64643e-05
1.64647e-05
1.93686e-05
1.40823e-05
1.6774e-05
1.67745e-05
2.01587e-05
1.38949e-05
1.71676e-05
1.71685e-05
2.10313e-05
1.37527e-05
1.76416e-05
1.76427e-05
2.19729e-05
1.36555e-05
1.81921e-05
1.81933e-05
2.2967e-05
1.36034e-05
1.88143e-05
1.88159e-05
2.40011e-05
1.35969e-05
1.95033e-05
1.95054e-05
2.50613e-05
1.36348e-05
2.02537e-05
2.02564e-05
2.61535e-05
1.37188e-05
2.10603e-05
2.10629e-05
2.72173e-05
1.38486e-05
2.19164e-05
2.19191e-05
2.82828e-05
1.40246e-05
2.28155e-05
2.28185e-05
2.93446e-05
1.42468e-05
2.37515e-05
2.37547e-05
3.03885e-05
1.45153e-05
2.4718e-05
2.47212e-05
3.14175e-05
1.483e-05
2.57087e-05
2.57127e-05
3.24514e-05
1.51906e-05
2.67175e-05
2.67217e-05
3.3419e-05
1.55965e-05
2.77381e-05
2.77427e-05
3.43839e-05
1.60468e-05
2.8765e-05
2.87698e-05
3.53292e-05
1.65404e-05
2.97931e-05
2.97982e-05
3.62336e-05
1.70758e-05
3.08186e-05
3.08241e-05
3.7126e-05
1.76513e-05
3.18375e-05
3.18431e-05
3.79911e-05
1.82648e-05
3.2845e-05
3.285e-05
3.88353e-05
1.89137e-05
3.38372e-05
3.38421e-05
3.96536e-05
1.95951e-05
3.48114e-05
3.48161e-05
4.04499e-05
2.03056e-05
3.57647e-05
3.57693e-05
4.12161e-05
1.86875e-05
1.92197e-05
1.62419e-05
1.62423e-05
1.64007e-05
1.64012e-05
1.86887e-05
1.92212e-05
1.6242e-05
1.62424e-05
1.64008e-05
1.64014e-05
1.62416e-05
1.64003e-05
1.64005e-05
1.86883e-05
1.92202e-05
1.62425e-05
1.64007e-05
1.64014e-05
1.92385e-05
1.93871e-05
1.99944e-05
1.64649e-05
1.64653e-05
1.66891e-05
1.66897e-05
1.93875e-05
1.99931e-05
1.64649e-05
1.64656e-05
1.66892e-05
1.669e-05
1.64645e-05
1.66885e-05
1.66889e-05
1.93876e-05
1.99923e-05
1.64654e-05
1.66891e-05
1.66899e-05
2.00132e-05
2.01803e-05
2.08493e-05
1.67747e-05
1.67753e-05
1.70624e-05
1.70629e-05
2.01804e-05
2.08482e-05
1.67747e-05
1.67756e-05
1.70623e-05
1.70634e-05
1.67744e-05
1.70615e-05
1.70622e-05
2.01806e-05
2.08495e-05
1.67752e-05
1.70623e-05
1.7063e-05
2.08705e-05
2.10551e-05
2.17749e-05
1.71687e-05
1.71692e-05
1.7517e-05
1.75175e-05
2.10547e-05
2.1774e-05
1.71684e-05
1.71697e-05
1.75166e-05
1.75182e-05
1.71684e-05
1.75157e-05
1.7517e-05
2.10554e-05
2.17744e-05
1.71691e-05
1.75169e-05
1.75176e-05
2.17991e-05
2.19972e-05
2.27571e-05
1.7643e-05
1.76435e-05
1.80491e-05
1.80495e-05
2.19966e-05
2.27569e-05
1.76426e-05
1.76442e-05
1.80485e-05
1.80504e-05
1.76431e-05
1.80475e-05
1.80494e-05
2.19974e-05
2.27576e-05
1.76434e-05
1.80489e-05
1.80497e-05
2.27837e-05
2.29939e-05
2.37819e-05
1.81938e-05
1.81943e-05
1.86544e-05
1.86547e-05
2.29931e-05
2.38098e-05
1.81932e-05
1.81951e-05
1.86535e-05
1.86556e-05
1.81942e-05
1.86523e-05
1.86549e-05
2.29933e-05
2.37823e-05
1.81942e-05
1.8654e-05
1.86547e-05
2.38105e-05
2.40297e-05
2.48357e-05
1.88166e-05
1.8817e-05
1.93279e-05
1.93281e-05
2.40028e-05
2.4822e-05
1.88157e-05
1.88178e-05
1.93266e-05
1.93291e-05
1.88171e-05
1.93252e-05
1.93285e-05
2.40292e-05
2.48362e-05
1.88168e-05
1.93273e-05
1.93279e-05
2.48663e-05
2.50918e-05
2.59082e-05
1.95063e-05
1.95064e-05
2.00644e-05
2.00639e-05
2.50805e-05
2.58978e-05
1.9505e-05
1.95075e-05
2.00628e-05
2.00653e-05
1.9507e-05
2.00608e-05
2.00649e-05
2.5092e-05
2.59069e-05
1.95063e-05
2.00634e-05
2.0064e-05
2.59383e-05
2.61696e-05
2.69992e-05
2.02575e-05
2.02571e-05
2.08582e-05
2.08572e-05
2.61607e-05
2.69934e-05
2.0256e-05
2.02586e-05
2.08563e-05
2.08585e-05
2.02582e-05
2.08539e-05
2.08586e-05
2.61652e-05
2.7017e-05
2.02572e-05
2.08566e-05
2.08573e-05
2.70161e-05
2.72449e-05
2.80471e-05
2.10648e-05
2.10639e-05
2.17031e-05
2.17017e-05
2.72388e-05
2.8042e-05
2.1063e-05
2.10652e-05
2.17009e-05
2.17031e-05
2.10654e-05
2.16981e-05
2.17034e-05
2.72183e-05
2.80592e-05
2.10639e-05
2.1701e-05
2.17016e-05
2.80813e-05
2.83205e-05
2.91036e-05
2.19214e-05
2.19203e-05
2.25926e-05
2.2591e-05
2.83152e-05
2.90969e-05
2.19194e-05
2.19216e-05
2.25901e-05
2.25926e-05
2.1922e-05
2.25871e-05
2.25926e-05
2.83068e-05
2.91052e-05
2.192e-05
2.25902e-05
2.25905e-05
2.91296e-05
2.93748e-05
3.01801e-05
2.28212e-05
2.28197e-05
2.35204e-05
2.35186e-05
2.93714e-05
3.0149e-05
2.28189e-05
2.28212e-05
2.35175e-05
2.35202e-05
2.28215e-05
2.35144e-05
2.35204e-05
2.93586e-05
3.01384e-05
2.28192e-05
2.35178e-05
2.35181e-05
3.01715e-05
3.03875e-05
3.12013e-05
2.37575e-05
2.3756e-05
2.44802e-05
2.44783e-05
3.04047e-05
3.11727e-05
2.37547e-05
2.37574e-05
2.4477e-05
2.44797e-05
2.3758e-05
2.44739e-05
2.44803e-05
3.04092e-05
3.11979e-05
2.37554e-05
2.44773e-05
2.44775e-05
3.11897e-05
3.14185e-05
3.22077e-05
2.47244e-05
2.47226e-05
2.54656e-05
2.54637e-05
3.14263e-05
3.22059e-05
2.47213e-05
2.47238e-05
2.54621e-05
2.54654e-05
2.47249e-05
2.54592e-05
2.54664e-05
3.14144e-05
3.22145e-05
2.47217e-05
2.54632e-05
2.54631e-05
3.21919e-05
3.24094e-05
3.31963e-05
2.57151e-05
2.57134e-05
2.64699e-05
2.64683e-05
3.24166e-05
3.31923e-05
2.57117e-05
2.5715e-05
2.64664e-05
2.64707e-05
2.57164e-05
2.64639e-05
2.64719e-05
3.24191e-05
3.31947e-05
2.57129e-05
2.64684e-05
2.64684e-05
3.31892e-05
3.33945e-05
3.41559e-05
2.67231e-05
2.67219e-05
2.74874e-05
2.74862e-05
3.33935e-05
3.4159e-05
2.67198e-05
2.67239e-05
2.7484e-05
2.74889e-05
2.67258e-05
2.74822e-05
2.74907e-05
3.34039e-05
3.41659e-05
2.67221e-05
2.74869e-05
2.7487e-05
3.41497e-05
3.43605e-05
3.51002e-05
2.77431e-05
2.77421e-05
2.85128e-05
2.85117e-05
3.43645e-05
3.51071e-05
2.77398e-05
2.77447e-05
2.85093e-05
2.85148e-05
2.77469e-05
2.85081e-05
2.85169e-05
3.43648e-05
3.51027e-05
2.7743e-05
2.85131e-05
2.85131e-05
3.50749e-05
3.53012e-05
3.60208e-05
2.87697e-05
2.87688e-05
2.95407e-05
2.95393e-05
3.53019e-05
3.60192e-05
2.87662e-05
2.87717e-05
2.9537e-05
2.9543e-05
2.87742e-05
2.95361e-05
2.95454e-05
3.53054e-05
3.60312e-05
2.87701e-05
2.95416e-05
2.95413e-05
3.60151e-05
3.62147e-05
3.69156e-05
2.97977e-05
2.97965e-05
3.05669e-05
3.05657e-05
3.62078e-05
3.68892e-05
2.9794e-05
2.98e-05
3.05632e-05
3.05696e-05
2.98025e-05
3.05626e-05
3.05724e-05
3.62164e-05
3.69236e-05
2.97982e-05
3.05684e-05
3.05681e-05
3.68996e-05
3.71036e-05
3.77897e-05
3.08229e-05
3.08217e-05
3.15873e-05
3.15864e-05
3.71195e-05
3.77638e-05
3.08192e-05
3.08256e-05
3.15836e-05
3.15906e-05
3.08284e-05
3.15836e-05
3.15931e-05
3.71085e-05
3.77975e-05
3.08239e-05
3.15895e-05
3.15888e-05
3.77773e-05
3.79714e-05
3.86331e-05
3.18411e-05
3.18404e-05
3.25975e-05
3.25969e-05
3.79941e-05
3.86215e-05
3.18373e-05
3.18444e-05
3.25937e-05
3.26006e-05
3.18468e-05
3.25943e-05
3.26033e-05
3.79796e-05
3.86293e-05
3.18423e-05
3.25997e-05
3.25989e-05
3.86295e-05
3.88158e-05
3.94588e-05
3.2848e-05
3.28475e-05
3.35935e-05
3.35929e-05
3.88256e-05
3.9467e-05
3.28442e-05
3.28511e-05
3.35897e-05
3.35964e-05
3.28538e-05
3.35906e-05
3.35996e-05
3.8829e-05
3.94524e-05
3.28492e-05
3.35959e-05
3.3595e-05
3.94589e-05
3.96351e-05
4.02617e-05
3.384e-05
3.38393e-05
3.45722e-05
3.45715e-05
3.96409e-05
4.02633e-05
3.38363e-05
3.38427e-05
3.45684e-05
3.45749e-05
3.38461e-05
3.45696e-05
3.45783e-05
3.96481e-05
4.02569e-05
3.38413e-05
3.45747e-05
3.45737e-05
4.02484e-05
4.04264e-05
4.10363e-05
3.48139e-05
3.48131e-05
3.55306e-05
3.55298e-05
4.04252e-05
4.10392e-05
3.48101e-05
3.48163e-05
3.55267e-05
3.55329e-05
3.48199e-05
3.55284e-05
3.55365e-05
4.04419e-05
4.10327e-05
3.48152e-05
3.55333e-05
3.5532e-05
4.10248e-05
4.11985e-05
3.57669e-05
3.5766e-05
4.11926e-05
3.57631e-05
3.57691e-05
3.57727e-05
4.12119e-05
3.5768e-05
5.48455e-05
7.00998e-05
7.01253e-05
5.43663e-05
6.95612e-05
6.9543e-05
5.48463e-05
7.01015e-05
7.0127e-05
5.43657e-05
1.45938e-05
1.45937e-05
1.45936e-05
1.43804e-05
1.43804e-05
1.43805e-05
1.43804e-05
3.10587e-05
4.64294e-05
1.47091e-05
1.6289e-05
4.68105e-05
1.4675e-05
3.04977e-05
6.95612e-05
6.9543e-05
3.10587e-05
1.47096e-05
4.64262e-05
1.62893e-05
1.46756e-05
4.68126e-05
3.05021e-05
5.97069e-05
5.97157e-05
1.88888e-05
5.99065e-05
5.99165e-05
5.59474e-05
7.01517e-05
5.55434e-05
7.01744e-05
6.9494e-05
6.94777e-05
5.59483e-05
7.01552e-05
5.55427e-05
7.01741e-05
1.43151e-05
1.43152e-05
1.43151e-05
1.41363e-05
1.41363e-05
1.41364e-05
1.41363e-05
3.27317e-05
4.75451e-05
1.46024e-05
1.65336e-05
3.21826e-05
4.78937e-05
1.45853e-05
6.9494e-05
6.94776e-05
3.27303e-05
1.4603e-05
4.75439e-05
1.65341e-05
3.21873e-05
1.4586e-05
4.78967e-05
6.02896e-05
6.02982e-05
1.96169e-05
6.04689e-05
6.04775e-05
5.68649e-05
7.01971e-05
5.65228e-05
7.02162e-05
6.94327e-05
6.94183e-05
5.68656e-05
7.02001e-05
5.65218e-05
7.02165e-05
1.40823e-05
1.40824e-05
1.40823e-05
1.39376e-05
1.39376e-05
1.39378e-05
1.39377e-05
3.43373e-05
4.85683e-05
1.4565e-05
1.68646e-05
3.38139e-05
4.8886e-05
1.45668e-05
6.94326e-05
6.94182e-05
3.43399e-05
1.45659e-05
4.85684e-05
1.68653e-05
3.38194e-05
1.45676e-05
4.88881e-05
6.08108e-05
6.0819e-05
2.04351e-05
6.09723e-05
6.09799e-05
5.76341e-05
7.02377e-05
5.73407e-05
7.02529e-05
6.93773e-05
6.93648e-05
5.76348e-05
7.02387e-05
5.73399e-05
7.02542e-05
1.38949e-05
1.38951e-05
1.38951e-05
1.37842e-05
1.37842e-05
1.37845e-05
1.37844e-05
3.58638e-05
4.95045e-05
1.45957e-05
1.72787e-05
3.53676e-05
4.97938e-05
1.46143e-05
6.93772e-05
6.93647e-05
3.58638e-05
1.45969e-05
4.95034e-05
1.72797e-05
3.5373e-05
1.46154e-05
4.97984e-05
6.1281e-05
6.12887e-05
2.1331e-05
6.14271e-05
6.14347e-05
5.82868e-05
7.02719e-05
5.80319e-05
7.02853e-05
6.93273e-05
6.93167e-05
5.82873e-05
7.02736e-05
5.80315e-05
7.02874e-05
1.37527e-05
1.3753e-05
1.3753e-05
1.36758e-05
1.36758e-05
1.36762e-05
1.36761e-05
3.72913e-05
5.0362e-05
1.46956e-05
1.77721e-05
3.68298e-05
5.06257e-05
1.47314e-05
6.93272e-05
6.93166e-05
3.72928e-05
1.46972e-05
5.03608e-05
1.77735e-05
3.68345e-05
1.47328e-05
5.06316e-05
6.1706e-05
6.17142e-05
2.229e-05
6.18389e-05
6.18464e-05
5.88487e-05
7.03027e-05
5.86252e-05
7.03151e-05
6.92827e-05
6.92741e-05
5.8849e-05
7.03044e-05
5.86252e-05
7.03168e-05
1.36555e-05
1.36559e-05
1.36559e-05
1.36124e-05
1.36124e-05
1.36129e-05
1.36129e-05
3.86201e-05
5.11483e-05
1.48638e-05
1.8341e-05
3.81922e-05
5.13926e-05
1.49165e-05
6.92827e-05
6.92741e-05
3.86202e-05
1.48657e-05
5.11509e-05
1.83426e-05
3.81952e-05
1.49181e-05
5.13957e-05
6.20935e-05
6.21015e-05
2.32966e-05
6.22144e-05
6.22225e-05
5.93403e-05
7.03315e-05
5.91434e-05
7.03435e-05
6.92435e-05
6.92368e-05
5.93411e-05
7.03329e-05
5.91436e-05
7.03451e-05
1.36033e-05
1.36038e-05
1.36039e-05
1.35947e-05
1.35947e-05
1.35952e-05
1.35953e-05
3.98478e-05
5.18733e-05
1.50994e-05
1.89805e-05
3.94544e-05
5.21001e-05
1.51688e-05
6.92438e-05
6.92371e-05
3.98505e-05
1.51016e-05
5.18774e-05
1.89824e-05
3.94563e-05
1.51708e-05
5.21035e-05
6.24492e-05
6.24572e-05
2.43399e-05
6.25609e-05
6.25693e-05
5.97793e-05
7.03596e-05
5.96023e-05
7.03715e-05
6.92099e-05
6.92053e-05
5.97796e-05
7.03609e-05
5.9602e-05
7.03732e-05
1.35969e-05
1.35975e-05
1.35976e-05
1.36211e-05
1.36209e-05
1.36216e-05
1.36218e-05
4.09854e-05
5.25456e-05
1.54013e-05
1.96855e-05
4.06208e-05
5.27564e-05
1.54872e-05
6.92105e-05
6.92058e-05
4.09899e-05
1.54039e-05
5.25495e-05
1.96878e-05
4.0621e-05
1.54895e-05
5.27601e-05
6.27788e-05
6.27869e-05
2.5405e-05
6.28829e-05
6.28916e-05
6.01773e-05
7.03881e-05
6.00167e-05
7.04004e-05
6.91821e-05
6.91796e-05
6.01773e-05
7.03896e-05
6.00155e-05
7.04018e-05
1.36347e-05
1.36354e-05
1.36356e-05
1.36936e-05
1.36934e-05
1.36941e-05
1.36944e-05
4.20421e-05
5.31719e-05
1.57685e-05
2.04504e-05
4.16956e-05
5.33684e-05
1.58701e-05
6.91829e-05
6.91804e-05
4.2047e-05
1.57713e-05
5.31756e-05
2.04533e-05
4.16957e-05
1.58728e-05
5.33733e-05
6.30872e-05
6.30953e-05
2.64853e-05
6.31853e-05
6.31939e-05
6.05421e-05
7.0418e-05
6.03933e-05
7.0431e-05
6.91603e-05
6.916e-05
6.05415e-05
7.04195e-05
6.03929e-05
7.04325e-05
1.37185e-05
1.37193e-05
1.37197e-05
1.3812e-05
1.38116e-05
1.38125e-05
1.38128e-05
4.30226e-05
5.37571e-05
1.61985e-05
2.127e-05
4.26921e-05
5.39437e-05
1.63158e-05
6.91613e-05
6.91609e-05
4.30283e-05
1.62019e-05
5.37606e-05
2.12728e-05
4.2693e-05
1.63188e-05
5.39469e-05
6.33782e-05
6.33862e-05
2.75496e-05
6.34713e-05
6.34798e-05
6.08796e-05
7.04503e-05
6.07414e-05
7.04642e-05
6.91446e-05
6.91465e-05
6.08791e-05
7.0452e-05
6.07405e-05
7.04659e-05
1.38482e-05
1.38491e-05
1.38496e-05
1.39764e-05
1.39758e-05
1.39769e-05
1.39772e-05
4.39368e-05
5.43079e-05
1.66894e-05
2.21374e-05
4.36201e-05
5.44858e-05
1.68216e-05
6.91457e-05
6.91474e-05
4.39428e-05
1.66933e-05
5.43117e-05
2.21405e-05
4.36214e-05
1.6825e-05
5.44875e-05
6.36549e-05
6.36629e-05
2.86095e-05
6.37438e-05
6.37521e-05
6.11956e-05
7.0484e-05
6.10656e-05
7.05016e-05
6.91351e-05
6.91392e-05
6.1195e-05
7.04871e-05
6.10646e-05
7.05021e-05
1.4024e-05
1.40251e-05
1.40256e-05
1.4187e-05
1.41862e-05
1.41875e-05
1.41879e-05
4.4794e-05
5.48316e-05
1.72389e-05
2.30463e-05
4.44888e-05
5.49978e-05
1.73854e-05
6.9136e-05
6.91399e-05
4.48e-05
1.72432e-05
5.4833e-05
2.30495e-05
4.44902e-05
1.73891e-05
5.50003e-05
6.39192e-05
6.39274e-05
2.96521e-05
6.40048e-05
6.40134e-05
6.14945e-05
7.05223e-05
6.13711e-05
7.05417e-05
6.91317e-05
6.91379e-05
6.14937e-05
7.05253e-05
6.13699e-05
7.05418e-05
1.42461e-05
1.42473e-05
1.42479e-05
1.4444e-05
1.44431e-05
1.44445e-05
1.44449e-05
4.56019e-05
5.53268e-05
1.7844e-05
2.39906e-05
4.53063e-05
5.54858e-05
1.80039e-05
6.91323e-05
6.91384e-05
4.56075e-05
1.78486e-05
5.53264e-05
2.3994e-05
4.53077e-05
1.80079e-05
5.54907e-05
6.41737e-05
6.41824e-05
3.06962e-05
6.42565e-05
6.42654e-05
6.17805e-05
7.05646e-05
6.1662e-05
7.05855e-05
6.91341e-05
6.91424e-05
6.17787e-05
7.05673e-05
6.16605e-05
7.05854e-05
1.45145e-05
1.45159e-05
1.45165e-05
1.47472e-05
1.47462e-05
1.47478e-05
1.47483e-05
4.63677e-05
5.57993e-05
1.85015e-05
2.49638e-05
4.608e-05
5.59515e-05
1.86739e-05
6.91345e-05
6.91426e-05
4.63728e-05
1.85064e-05
5.57971e-05
2.49673e-05
4.60814e-05
1.86783e-05
5.59582e-05
6.44201e-05
6.4428e-05
3.16967e-05
6.45001e-05
6.451e-05
6.20563e-05
7.06108e-05
6.19415e-05
7.06333e-05
6.91422e-05
6.91524e-05
6.20544e-05
7.06134e-05
6.19408e-05
7.06332e-05
1.48291e-05
1.48307e-05
1.48314e-05
1.50963e-05
1.50953e-05
1.50972e-05
1.50978e-05
4.7097e-05
5.62492e-05
1.92077e-05
2.59595e-05
4.68162e-05
5.63986e-05
1.93919e-05
6.91423e-05
6.91524e-05
4.71019e-05
1.92132e-05
5.62483e-05
2.59638e-05
4.68181e-05
1.93968e-05
5.64055e-05
6.46588e-05
6.46664e-05
3.26764e-05
6.47374e-05
6.47474e-05
6.23239e-05
7.0661e-05
6.22129e-05
7.06851e-05
6.91556e-05
6.91678e-05
6.23229e-05
7.06621e-05
6.22119e-05
7.06864e-05
1.51897e-05
1.51915e-05
1.51924e-05
1.54909e-05
1.549e-05
1.54921e-05
1.54929e-05
4.77948e-05
5.6681e-05
1.99594e-05
2.69718e-05
4.75205e-05
5.68272e-05
2.01544e-05
6.91557e-05
6.91678e-05
4.77992e-05
1.99653e-05
5.66791e-05
2.69764e-05
4.75226e-05
2.01596e-05
5.68338e-05
6.48907e-05
6.48984e-05
3.36649e-05
6.49684e-05
6.49782e-05
6.25875e-05
7.07154e-05
6.24786e-05
7.07409e-05
6.91743e-05
6.91884e-05
6.25862e-05
7.07179e-05
6.24776e-05
7.07412e-05
1.55957e-05
1.55977e-05
1.55988e-05
1.59301e-05
1.59294e-05
1.59318e-05
1.59328e-05
4.84651e-05
5.7095e-05
2.0753e-05
2.79947e-05
4.8197e-05
5.72386e-05
2.09578e-05
6.91745e-05
6.91885e-05
4.84691e-05
2.07589e-05
5.70933e-05
2.79995e-05
4.81993e-05
2.09631e-05
5.72454e-05
6.51169e-05
6.51244e-05
3.46176e-05
6.51934e-05
6.52028e-05
6.28476e-05
7.07751e-05
6.27381e-05
7.08e-05
6.91981e-05
6.9214e-05
6.28461e-05
7.07766e-05
6.27397e-05
7.08014e-05
1.60461e-05
1.60485e-05
1.60496e-05
1.6413e-05
1.64123e-05
1.64151e-05
1.64162e-05
4.911e-05
5.74933e-05
2.15842e-05
2.90221e-05
4.88495e-05
5.76345e-05
2.17976e-05
6.91984e-05
6.92141e-05
4.91143e-05
2.15902e-05
5.74926e-05
2.90274e-05
4.88517e-05
2.1803e-05
5.76412e-05
6.53374e-05
6.53448e-05
3.55592e-05
6.54127e-05
6.54219e-05
6.31037e-05
7.08376e-05
6.29974e-05
7.08639e-05
6.92265e-05
6.92442e-05
6.31035e-05
7.08393e-05
6.29984e-05
7.08657e-05
1.65397e-05
1.65425e-05
1.65438e-05
1.69381e-05
1.69376e-05
1.69407e-05
1.69419e-05
4.97333e-05
5.78775e-05
2.24483e-05
3.00498e-05
4.94794e-05
5.80157e-05
2.26695e-05
6.9227e-05
6.92444e-05
4.97371e-05
2.24545e-05
5.78764e-05
3.00554e-05
4.94825e-05
2.26749e-05
5.80222e-05
6.55526e-05
6.55601e-05
3.64634e-05
6.56265e-05
6.56358e-05
6.33593e-05
7.09033e-05
6.32538e-05
7.09329e-05
6.92595e-05
6.92787e-05
6.3359e-05
7.09057e-05
6.32545e-05
7.09336e-05
1.70753e-05
1.70785e-05
1.70798e-05
1.75037e-05
1.75034e-05
1.75068e-05
1.75082e-05
5.03353e-05
5.82479e-05
2.33413e-05
3.10741e-05
5.00891e-05
5.83829e-05
2.3569e-05
6.926e-05
6.9279e-05
5.03385e-05
2.33475e-05
5.82474e-05
3.108e-05
5.00927e-05
2.35745e-05
5.839e-05
6.57627e-05
6.57704e-05
3.73465e-05
6.58353e-05
6.58445e-05
6.36139e-05
7.09737e-05
6.35067e-05
7.1003e-05
6.92966e-05
6.93172e-05
6.36124e-05
7.09755e-05
6.35087e-05
7.10048e-05
1.7651e-05
1.76545e-05
1.76558e-05
1.8108e-05
1.81079e-05
1.81115e-05
1.81129e-05
5.09181e-05
5.86059e-05
2.42587e-05
3.20905e-05
5.06791e-05
5.87377e-05
2.44922e-05
6.92973e-05
6.93176e-05
5.09209e-05
2.42649e-05
5.86059e-05
3.20962e-05
5.06819e-05
2.44974e-05
5.87452e-05
6.59681e-05
6.59758e-05
3.81934e-05
6.60393e-05
6.60483e-05
6.38651e-05
7.10468e-05
6.37595e-05
7.10773e-05
6.93375e-05
6.93594e-05
6.38642e-05
7.10486e-05
6.37606e-05
7.10791e-05
1.82647e-05
1.82684e-05
1.82698e-05
1.87483e-05
1.87484e-05
1.87522e-05
1.87536e-05
5.14816e-05
5.89515e-05
2.51976e-05
3.30944e-05
5.12511e-05
5.90804e-05
2.54356e-05
6.93384e-05
6.936e-05
5.14841e-05
2.52034e-05
5.89517e-05
3.30998e-05
5.12529e-05
2.54406e-05
5.90874e-05
6.61689e-05
6.61766e-05
3.90354e-05
6.62383e-05
6.62473e-05
6.41133e-05
7.11213e-05
6.40088e-05
7.11555e-05
6.93819e-05
6.9405e-05
6.41127e-05
7.11246e-05
6.40097e-05
7.11562e-05
1.89138e-05
1.89177e-05
1.89191e-05
1.94218e-05
1.94222e-05
1.94261e-05
1.94276e-05
5.20254e-05
5.92857e-05
2.61543e-05
3.40825e-05
5.18036e-05
5.94112e-05
2.63961e-05
6.93828e-05
6.94058e-05
5.20279e-05
2.61597e-05
5.92855e-05
3.40876e-05
5.18046e-05
2.64008e-05
5.94175e-05
6.63647e-05
6.63722e-05
3.98528e-05
6.64324e-05
6.64415e-05
6.43574e-05
7.12001e-05
6.42539e-05
7.12351e-05
6.94296e-05
6.9454e-05
6.4356e-05
7.12028e-05
6.4256e-05
7.12368e-05
1.95954e-05
1.95993e-05
1.96009e-05
2.01254e-05
2.01259e-05
2.013e-05
2.01316e-05
5.25489e-05
5.9608e-05
2.71241e-05
3.50517e-05
5.23363e-05
5.97301e-05
2.73685e-05
6.94306e-05
6.94548e-05
5.25521e-05
2.71294e-05
5.96079e-05
3.50566e-05
5.23372e-05
2.7373e-05
5.9736e-05
6.65556e-05
6.65631e-05
4.06383e-05
6.66211e-05
6.66305e-05
6.45968e-05
7.12809e-05
6.44962e-05
7.1317e-05
6.94804e-05
6.9506e-05
6.45952e-05
7.12827e-05
6.44974e-05
7.13183e-05
2.03062e-05
2.03102e-05
2.03118e-05
5.30523e-05
5.99186e-05
2.81015e-05
3.59994e-05
5.28471e-05
6.00373e-05
2.83468e-05
6.94814e-05
6.95068e-05
5.30547e-05
2.81068e-05
5.99186e-05
3.60042e-05
5.28498e-05
2.83515e-05
6.00429e-05
6.67416e-05
6.67492e-05
4.13945e-05
6.68051e-05
6.68144e-05
6.9559e-05
6.95408e-05
6.95615e-05
6.95434e-05
5.97098e-05
5.97208e-05
1.8871e-05
5.99106e-05
5.99213e-05
6.95074e-05
6.95247e-05
6.95099e-05
6.95272e-05
1.90265e-05
6.0199e-05
6.0209e-05
6.00094e-05
6.00203e-05
5.48448e-05
7.0097e-05
7.01225e-05
5.43656e-05
3.10564e-05
4.64261e-05
1.47093e-05
1.62892e-05
4.68114e-05
1.46753e-05
3.04998e-05
3.10573e-05
4.64338e-05
1.47094e-05
1.62897e-05
4.68101e-05
1.46754e-05
3.04991e-05
5.49818e-05
7.01508e-05
7.01268e-05
5.54218e-05
5.49812e-05
7.01479e-05
7.0124e-05
5.54212e-05
3.13482e-05
1.63424e-05
4.73669e-05
1.46219e-05
4.69983e-05
1.46473e-05
3.18992e-05
3.13466e-05
1.63428e-05
4.73653e-05
1.46219e-05
4.70045e-05
1.46475e-05
3.18996e-05
5.9716e-05
5.97109e-05
1.88718e-05
5.99164e-05
5.9911e-05
6.95596e-05
6.95415e-05
6.95096e-05
6.95269e-05
1.90267e-05
6.02047e-05
6.01984e-05
6.00158e-05
6.00106e-05
6.95079e-05
6.95251e-05
3.10563e-05
4.64328e-05
1.47094e-05
1.62894e-05
4.68134e-05
1.46755e-05
3.04994e-05
5.48455e-05
7.00971e-05
7.01227e-05
5.43647e-05
3.10561e-05
1.4709e-05
4.64295e-05
1.62898e-05
1.4675e-05
4.6814e-05
3.04999e-05
5.49811e-05
7.01514e-05
7.01284e-05
5.54228e-05
3.13474e-05
1.63425e-05
4.73668e-05
1.46222e-05
4.70043e-05
1.46476e-05
3.19009e-05
5.498e-05
7.01481e-05
7.0124e-05
5.54221e-05
3.13473e-05
1.6343e-05
1.46217e-05
4.73679e-05
1.46472e-05
4.70007e-05
3.19008e-05
5.48372e-05
7.00991e-05
7.01246e-05
5.43713e-05
3.10584e-05
1.47093e-05
4.64304e-05
1.6289e-05
1.46752e-05
4.68055e-05
3.04964e-05
5.48417e-05
7.00961e-05
7.01217e-05
5.43681e-05
3.13449e-05
1.6342e-05
4.73643e-05
1.46215e-05
4.69985e-05
1.46471e-05
3.19007e-05
5.49859e-05
7.01498e-05
7.01259e-05
5.54135e-05
3.13454e-05
1.6342e-05
1.46218e-05
4.73648e-05
1.46474e-05
4.7001e-05
3.19002e-05
5.49832e-05
7.01472e-05
7.01231e-05
5.54179e-05
5.97156e-05
5.97112e-05
1.88715e-05
5.99156e-05
5.99111e-05
6.95601e-05
6.95418e-05
6.95096e-05
6.95268e-05
1.90268e-05
6.02043e-05
6.01999e-05
6.00155e-05
6.00107e-05
6.95083e-05
6.95256e-05
3.10591e-05
1.471e-05
4.64302e-05
1.629e-05
1.4676e-05
4.68152e-05
3.05022e-05
5.48396e-05
7.01003e-05
7.01258e-05
5.43726e-05
5.48386e-05
7.00973e-05
7.0123e-05
5.43717e-05
3.13492e-05
1.63423e-05
1.46221e-05
4.73676e-05
1.46477e-05
4.6998e-05
3.19005e-05
3.13497e-05
1.63429e-05
1.46226e-05
4.73698e-05
1.46481e-05
4.70014e-05
3.19013e-05
5.49872e-05
7.01509e-05
7.0127e-05
5.54155e-05
5.49864e-05
7.01483e-05
7.01243e-05
5.54145e-05
6.95595e-05
6.95413e-05
6.9561e-05
6.95429e-05
1.90116e-05
6.01956e-05
6.02043e-05
6.00061e-05
6.00152e-05
6.9508e-05
6.95252e-05
6.95096e-05
6.95267e-05
6.94918e-05
6.94755e-05
6.94943e-05
6.9478e-05
6.02928e-05
6.0303e-05
1.95964e-05
6.04723e-05
6.0482e-05
6.94452e-05
6.94605e-05
6.94476e-05
6.9463e-05
1.97736e-05
6.0731e-05
6.07407e-05
6.05609e-05
6.05712e-05
5.59468e-05
7.0149e-05
5.55427e-05
7.01717e-05
3.2729e-05
4.75443e-05
1.46026e-05
1.65342e-05
3.21862e-05
4.78971e-05
1.45857e-05
3.27287e-05
4.75508e-05
1.46028e-05
1.65347e-05
3.21849e-05
4.7899e-05
1.45857e-05
5.60553e-05
7.01962e-05
7.01753e-05
5.6427e-05
5.60547e-05
7.01936e-05
7.01725e-05
5.64263e-05
3.30106e-05
1.66091e-05
4.84041e-05
1.45667e-05
4.80677e-05
1.45753e-05
3.3542e-05
3.30097e-05
1.66097e-05
4.84067e-05
1.45669e-05
4.80706e-05
1.45754e-05
3.3542e-05
6.02982e-05
6.02933e-05
1.95956e-05
6.04778e-05
6.04708e-05
6.94921e-05
6.94759e-05
6.94473e-05
6.94626e-05
1.97736e-05
6.0736e-05
6.07291e-05
6.05667e-05
6.05607e-05
6.94453e-05
6.94606e-05
3.27321e-05
4.75519e-05
1.4603e-05
1.65343e-05
3.21836e-05
4.78974e-05
1.4586e-05
5.59477e-05
7.01492e-05
5.55413e-05
7.01719e-05
3.27316e-05
1.46026e-05
4.75477e-05
1.6535e-05
3.2183e-05
1.45856e-05
4.78943e-05
5.60545e-05
7.01963e-05
7.01784e-05
5.64278e-05
3.30073e-05
1.66091e-05
4.84054e-05
1.45672e-05
4.80743e-05
1.45757e-05
3.3545e-05
5.60535e-05
7.01939e-05
7.01727e-05
5.64271e-05
3.30063e-05
1.66099e-05
1.45669e-05
4.8403e-05
1.45754e-05
4.8072e-05
3.35451e-05
5.5939e-05
7.01508e-05
5.55465e-05
7.01735e-05
3.27299e-05
1.46028e-05
4.75437e-05
1.6534e-05
3.21837e-05
1.45857e-05
4.78957e-05
5.59435e-05
7.01483e-05
5.55443e-05
7.01712e-05
3.30058e-05
1.66085e-05
4.84008e-05
1.45665e-05
4.80684e-05
1.4575e-05
3.35442e-05
5.60577e-05
7.01953e-05
7.01743e-05
5.64183e-05
3.30081e-05
1.66087e-05
1.4567e-05
4.84028e-05
1.45755e-05
4.80661e-05
3.35442e-05
5.6056e-05
7.01932e-05
7.01719e-05
5.64231e-05
6.02982e-05
6.02936e-05
1.95952e-05
6.04773e-05
6.04726e-05
6.94927e-05
6.94763e-05
6.94472e-05
6.94625e-05
1.97739e-05
6.07356e-05
6.07311e-05
6.05655e-05
6.0562e-05
6.94459e-05
6.94612e-05
3.27298e-05
1.46036e-05
4.7548e-05
1.6535e-05
3.21876e-05
1.45865e-05
4.79e-05
5.59407e-05
7.0152e-05
5.55478e-05
7.01746e-05
5.59398e-05
7.01494e-05
5.55469e-05
7.01722e-05
3.30124e-05
1.66089e-05
1.45673e-05
4.84035e-05
1.45758e-05
4.80683e-05
3.35442e-05
3.30119e-05
1.66096e-05
1.45678e-05
4.8404e-05
1.45763e-05
4.80707e-05
3.35434e-05
5.60589e-05
7.01965e-05
7.01754e-05
5.642e-05
5.6058e-05
7.01942e-05
7.01729e-05
5.6419e-05
6.94924e-05
6.94762e-05
6.94939e-05
6.94777e-05
1.97567e-05
6.07276e-05
6.0736e-05
6.05573e-05
6.05653e-05
6.94458e-05
6.9461e-05
6.94472e-05
6.94625e-05
6.94306e-05
6.94162e-05
6.94331e-05
6.94186e-05
6.08149e-05
6.08248e-05
2.04114e-05
6.0976e-05
6.09855e-05
6.93889e-05
6.94022e-05
6.93913e-05
6.94047e-05
2.06088e-05
6.12093e-05
6.12179e-05
6.10552e-05
6.10658e-05
5.68643e-05
7.01944e-05
5.65218e-05
7.02134e-05
3.43376e-05
4.85682e-05
1.45652e-05
1.68653e-05
3.38186e-05
4.88898e-05
1.45669e-05
3.43369e-05
4.85699e-05
1.45654e-05
1.6866e-05
3.38175e-05
4.8892e-05
1.45671e-05
5.69495e-05
7.02348e-05
7.02184e-05
5.7266e-05
5.69486e-05
7.02334e-05
7.02142e-05
5.72653e-05
3.46061e-05
1.69614e-05
4.93517e-05
1.45815e-05
4.90466e-05
1.45717e-05
3.5112e-05
3.46055e-05
1.6962e-05
4.93564e-05
1.45817e-05
4.90485e-05
1.45719e-05
3.5112e-05
6.08203e-05
6.08138e-05
2.0412e-05
6.09814e-05
6.09733e-05
6.94305e-05
6.94164e-05
6.93909e-05
6.94043e-05
2.06091e-05
6.12142e-05
6.12058e-05
6.1061e-05
6.10542e-05
6.93888e-05
6.9402e-05
3.43388e-05
4.85733e-05
1.45656e-05
1.68654e-05
3.38156e-05
4.88904e-05
1.45674e-05
5.6865e-05
7.01943e-05
5.65209e-05
7.02145e-05
3.43389e-05
1.45655e-05
4.8572e-05
1.68663e-05
3.38144e-05
1.45672e-05
4.88879e-05
5.69486e-05
7.02367e-05
7.02204e-05
5.72667e-05
3.46049e-05
1.69613e-05
4.93549e-05
1.45819e-05
4.90517e-05
1.45721e-05
3.5114e-05
5.69478e-05
7.02334e-05
7.02148e-05
5.72659e-05
3.46035e-05
1.69624e-05
1.45819e-05
4.93522e-05
1.45721e-05
4.90503e-05
3.51126e-05
5.68563e-05
7.01958e-05
5.65246e-05
7.02159e-05
3.43407e-05
1.45655e-05
4.85663e-05
1.68652e-05
3.38154e-05
1.45673e-05
4.88874e-05
5.68613e-05
7.01938e-05
5.65229e-05
7.02141e-05
3.46033e-05
1.69606e-05
4.93486e-05
1.45814e-05
4.90467e-05
1.45715e-05
3.51135e-05
5.69509e-05
7.02345e-05
7.02163e-05
5.72575e-05
3.4602e-05
1.69611e-05
1.45818e-05
4.93535e-05
1.45721e-05
4.90456e-05
3.51144e-05
5.69496e-05
7.02331e-05
7.02145e-05
5.72626e-05
6.08203e-05
6.08159e-05
2.04112e-05
6.09804e-05
6.09757e-05
6.94313e-05
6.94168e-05
6.93907e-05
6.94042e-05
2.06096e-05
6.12131e-05
6.12084e-05
6.10611e-05
6.1056e-05
6.93893e-05
6.94028e-05
3.43381e-05
1.45665e-05
4.85718e-05
1.68662e-05
3.38193e-05
1.45682e-05
4.88889e-05
5.68579e-05
7.0197e-05
5.65252e-05
7.02172e-05
5.68568e-05
7.01947e-05
5.65242e-05
7.0215e-05
3.46067e-05
1.69613e-05
1.45824e-05
4.9354e-05
1.45725e-05
4.90473e-05
3.51128e-05
3.4607e-05
1.69619e-05
1.4583e-05
4.93532e-05
1.45731e-05
4.90505e-05
3.51112e-05
5.69513e-05
7.0236e-05
7.02175e-05
5.72588e-05
5.69503e-05
7.0234e-05
7.02153e-05
5.72578e-05
6.94312e-05
6.94168e-05
6.94327e-05
6.94182e-05
2.05893e-05
6.12054e-05
6.12128e-05
6.1052e-05
6.10606e-05
6.93895e-05
6.94028e-05
6.93909e-05
6.94043e-05
6.93753e-05
6.93629e-05
6.93777e-05
6.93653e-05
6.12845e-05
6.1294e-05
2.13034e-05
6.14301e-05
6.14387e-05
6.93382e-05
6.93498e-05
6.93406e-05
6.93521e-05
2.15192e-05
6.16407e-05
6.16502e-05
6.15025e-05
6.15114e-05
5.76333e-05
7.02337e-05
5.73396e-05
7.0251e-05
3.58628e-05
4.95051e-05
1.4596e-05
1.72798e-05
3.53721e-05
4.97953e-05
1.46143e-05
3.58628e-05
4.95064e-05
1.45961e-05
1.72803e-05
3.53707e-05
4.98012e-05
1.46144e-05
5.77001e-05
7.02697e-05
7.02554e-05
5.79733e-05
5.7699e-05
7.02673e-05
7.02522e-05
5.79723e-05
3.61149e-05
1.73961e-05
5.02216e-05
1.46643e-05
4.99439e-05
1.46374e-05
3.65897e-05
3.61138e-05
1.73966e-05
5.02253e-05
1.46644e-05
4.99442e-05
1.46375e-05
3.65897e-05
6.12894e-05
6.12823e-05
2.1303e-05
6.14352e-05
6.14261e-05
6.93748e-05
6.93626e-05
6.93401e-05
6.93516e-05
2.1519e-05
6.16458e-05
6.16359e-05
6.15067e-05
6.14991e-05
6.93377e-05
6.9349e-05
3.58646e-05
4.9509e-05
1.45964e-05
1.72795e-05
3.53705e-05
4.97995e-05
1.46147e-05
5.76339e-05
7.02339e-05
5.7339e-05
7.0251e-05
3.58629e-05
1.45964e-05
4.95074e-05
1.72809e-05
3.537e-05
1.46148e-05
4.97974e-05
5.76995e-05
7.02713e-05
7.02573e-05
5.7974e-05
3.61138e-05
1.73957e-05
5.02248e-05
1.46648e-05
4.99473e-05
1.46379e-05
3.65912e-05
5.76986e-05
7.02674e-05
7.02516e-05
5.79729e-05
3.61133e-05
1.73971e-05
1.46649e-05
5.02221e-05
1.46379e-05
4.99454e-05
3.65904e-05
5.76259e-05
7.02352e-05
5.73414e-05
7.02521e-05
3.58648e-05
1.45964e-05
4.9502e-05
1.72797e-05
3.53685e-05
1.46147e-05
4.97977e-05
5.76309e-05
7.02342e-05
5.73405e-05
7.02511e-05
3.61111e-05
1.73948e-05
5.02183e-05
1.46643e-05
4.99426e-05
1.46371e-05
3.65904e-05
5.77004e-05
7.02684e-05
7.02529e-05
5.79653e-05
3.6112e-05
1.73959e-05
1.46648e-05
5.0224e-05
1.46379e-05
4.99409e-05
3.65911e-05
5.76998e-05
7.02676e-05
7.02513e-05
5.79703e-05
6.12893e-05
6.12847e-05
2.1304e-05
6.14345e-05
6.14296e-05
6.93758e-05
6.93633e-05
6.934e-05
6.93515e-05
2.15194e-05
6.16451e-05
6.16401e-05
6.15068e-05
6.15022e-05
6.93386e-05
6.93501e-05
3.58623e-05
1.45975e-05
4.95077e-05
1.72805e-05
3.53731e-05
1.46159e-05
4.97976e-05
5.76272e-05
7.02365e-05
5.73418e-05
7.02541e-05
5.76261e-05
7.02344e-05
5.73408e-05
7.0252e-05
3.61161e-05
1.73958e-05
1.46656e-05
5.02243e-05
1.46385e-05
4.99417e-05
3.65895e-05
3.61155e-05
1.73964e-05
1.46661e-05
5.02234e-05
1.46391e-05
4.99457e-05
3.65884e-05
5.77007e-05
7.02705e-05
7.02542e-05
5.79666e-05
5.76996e-05
7.02684e-05
7.02523e-05
5.79656e-05
6.93759e-05
6.93635e-05
6.93774e-05
6.9365e-05
2.1498e-05
6.16376e-05
6.1645e-05
6.14986e-05
6.15069e-05
6.93388e-05
6.93503e-05
6.93404e-05
6.93519e-05
6.93255e-05
6.9315e-05
6.93278e-05
6.93173e-05
6.17095e-05
6.17185e-05
2.22584e-05
6.18419e-05
6.18508e-05
6.9293e-05
6.93026e-05
6.92954e-05
6.93049e-05
2.24899e-05
6.20343e-05
6.20429e-05
6.19075e-05
6.19163e-05
5.82856e-05
7.02684e-05