/*--------------------------------*- C++ -*----------------------------------*\
| =========                 |                                                 |
| \\      /  F ield         | OpenFOAM: The Open Source CFD Toolbox           |
|  \\    /   O peration     | Version:  2312                                  |
|   \\  /    A nd           | Website:  www.openfoam.com                      |
|    \\/     M anipulation  |                                                 |
\*---------------------------------------------------------------------------*/
FoamFile
{
    version     2.0;
    format      ascii;
    arch        "LSB;label=32;scalar=64";
    class       volScalarField;
    location    "500";
    object      nut;
}
// * * * * * * * * * * * * * * * * * * * * * * * * * * * * * * * * * * * * * //

dimensions      [0 2 -1 0 0 0 0];

internalField   nonuniform List<scalar> 
42840
(
0.00014595
9.86088e-05
9.86046e-05
8.18569e-05
0.000141921
9.62739e-05
9.62722e-05
8.18719e-05
0.000137979
9.44582e-05
9.44578e-05
8.24265e-05
0.000134141
9.31602e-05
9.31628e-05
8.34018e-05
0.000130461
9.23682e-05
9.23721e-05
8.47486e-05
0.000126967
9.20629e-05
9.20673e-05
8.6476e-05
0.000123694
9.22144e-05
9.22197e-05
8.8453e-05
0.000120687
9.27906e-05
9.27992e-05
9.05042e-05
0.00011795
9.37597e-05
9.37715e-05
9.29263e-05
0.000115535
9.50883e-05
9.50975e-05
9.52241e-05
0.000113455
9.6735e-05
9.67431e-05
9.77051e-05
0.000111726
9.86603e-05
9.86681e-05
0.000100297
0.000110359
0.000100831
0.000100839
0.000102918
0.000109358
0.000103215
0.000103223
0.000105644
0.000108725
0.000105782
0.000105794
0.00010866
0.000108455
0.000108503
0.000108515
0.000111248
0.000108542
0.000111348
0.000111363
0.000113957
0.000108976
0.000114296
0.000114311
0.000116684
0.000109745
0.000117323
0.00011734
0.000119286
0.000110833
0.000120419
0.000120438
0.000121955
0.000112226
0.000123566
0.000123585
0.000124587
0.000113904
0.000126742
0.000126757
0.000127211
0.00011585
0.000129931
0.000129944
0.00012979
0.000118041
0.00013312
0.000133132
0.000132351
0.000120456
0.000136297
0.000136308
0.000134839
8.20087e-05
8.19264e-05
9.85809e-05
9.85718e-05
9.67832e-05
9.67741e-05
8.202e-05
8.19275e-05
9.8603e-05
9.85707e-05
9.68044e-05
9.67733e-05
9.85817e-05
9.68059e-05
9.67823e-05
8.19944e-05
8.19025e-05
9.85934e-05
9.68051e-05
9.67935e-05
8.20207e-05
8.2131e-05
8.23665e-05
9.62482e-05
9.62401e-05
9.48389e-05
9.48312e-05
8.20858e-05
8.23593e-05
9.62687e-05
9.6239e-05
9.48599e-05
9.48303e-05
9.62482e-05
9.48611e-05
9.48399e-05
8.20436e-05
8.22767e-05
9.62589e-05
9.48616e-05
9.48504e-05
8.25046e-05
8.26411e-05
8.32182e-05
9.44344e-05
9.44268e-05
9.34151e-05
9.34077e-05
8.26072e-05
8.31821e-05
9.44542e-05
9.44261e-05
9.34348e-05
9.34076e-05
9.4436e-05
9.34355e-05
9.3416e-05
8.26227e-05
8.32211e-05
9.44456e-05
9.34385e-05
9.34261e-05
8.34098e-05
8.36794e-05
8.45076e-05
9.31388e-05
9.31314e-05
9.25008e-05
9.2493e-05
8.36249e-05
8.44913e-05
9.31569e-05
9.31327e-05
9.25176e-05
9.2494e-05
9.3142e-05
9.25187e-05
9.25046e-05
8.36057e-05
8.45086e-05
9.31514e-05
9.25236e-05
9.25132e-05
8.46903e-05
8.50388e-05
8.61419e-05
9.23488e-05
9.23429e-05
9.20769e-05
9.20695e-05
8.50014e-05
8.61657e-05
9.23662e-05
9.23435e-05
9.20932e-05
9.20721e-05
9.23552e-05
9.20933e-05
9.20823e-05
8.49746e-05
8.61721e-05
9.23628e-05
9.21e-05
9.20905e-05
8.63766e-05
8.67539e-05
8.80862e-05
9.20448e-05
9.20392e-05
9.21196e-05
9.21123e-05
8.67258e-05
8.82802e-05
9.20607e-05
9.20414e-05
9.21348e-05
9.21156e-05
9.20522e-05
9.21344e-05
9.21247e-05
8.67044e-05
8.80737e-05
9.2059e-05
9.21414e-05
9.21319e-05
8.82436e-05
8.86724e-05
9.01727e-05
9.22005e-05
9.21935e-05
9.25975e-05
9.25896e-05
8.84904e-05
9.00925e-05
9.22148e-05
9.21961e-05
9.2611e-05
9.25941e-05
9.22063e-05
9.26098e-05
9.26023e-05
8.86559e-05
9.02047e-05
9.22122e-05
9.26188e-05
9.26083e-05
9.05074e-05
9.08427e-05
9.25353e-05
9.27811e-05
9.27725e-05
9.34776e-05
9.34657e-05
9.07575e-05
9.24323e-05
9.27938e-05
9.27778e-05
9.34888e-05
9.3472e-05
9.27871e-05
9.34833e-05
9.3481e-05
9.08389e-05
9.25232e-05
9.27919e-05
9.34945e-05
9.3485e-05
9.28791e-05
9.31867e-05
9.50787e-05
9.37555e-05
9.37438e-05
9.4722e-05
9.47093e-05
9.31336e-05
9.50235e-05
9.37672e-05
9.37511e-05
9.47333e-05
9.47143e-05
9.37601e-05
9.47266e-05
9.47253e-05
9.31641e-05
9.51754e-05
9.37635e-05
9.47367e-05
9.47281e-05
9.53376e-05
9.56084e-05
9.74216e-05
9.50867e-05
9.50748e-05
9.62943e-05
9.62808e-05
9.55744e-05
9.73276e-05
9.50977e-05
9.50793e-05
9.63057e-05
9.62856e-05
9.50909e-05
9.62966e-05
9.6296e-05
9.54182e-05
9.74168e-05
9.50925e-05
9.63067e-05
9.6297e-05
9.77895e-05
9.81574e-05
9.99907e-05
9.67349e-05
9.67235e-05
9.81563e-05
9.8143e-05
9.81517e-05
9.98142e-05
9.6745e-05
9.67265e-05
9.81654e-05
9.81467e-05
9.67374e-05
9.8156e-05
9.81549e-05
9.80943e-05
9.98484e-05
9.67376e-05
9.81651e-05
9.81547e-05
0.000100266
0.000100668
0.000102909
9.86628e-05
9.86513e-05
0.000100271
0.000100258
0.000100719
0.000102445
9.86717e-05
9.86542e-05
0.000100277
0.00010026
9.86641e-05
0.000100268
0.00010027
0.000100612
0.00010236
9.86634e-05
0.000100276
0.000100269
0.000102839
0.000102942
0.000105462
0.000100835
0.000100825
0.000102606
0.000102593
0.000103247
0.000105045
0.000100841
0.000100826
0.000102611
0.000102593
0.000100838
0.000102602
0.000102606
0.000103268
0.000105397
0.000100836
0.00010261
0.000102604
0.000105391
0.000105607
0.000108104
0.000103221
0.00010321
0.00010513
0.000105119
0.000105861
0.000107881
0.000103226
0.00010321
0.000105135
0.00010512
0.000103224
0.000105126
0.000105137
0.000105701
0.000108168
0.000103221
0.000105138
0.000105132
0.000107795
0.000108177
0.000110794
0.000105787
0.000105778
0.000107812
0.000107804
0.000108429
0.00011056
0.000105792
0.00010578
0.000107818
0.000107808
0.000105797
0.00010781
0.000107826
0.000108256
0.000110779
0.000105792
0.000107824
0.000107822
0.000110547
0.000110876
0.000113441
0.000108504
0.000108499
0.000110626
0.00011062
0.000111067
0.000113262
0.00010851
0.000108502
0.000110633
0.000110625
0.000108521
0.000110628
0.000110645
0.000110935
0.000113494
0.000108516
0.000110642
0.000110641
0.000113207
0.000113596
0.000116134
0.000111347
0.000111344
0.000113548
0.000113543
0.000113821
0.000115984
0.000111354
0.000111349
0.000113555
0.00011355
0.000111369
0.000113552
0.000113572
0.000113613
0.000116133
0.000111365
0.000113568
0.000113567
0.000115778
0.000116296
0.000118819
0.000114293
0.00011429
0.000116556
0.00011655
0.000116497
0.000118621
0.000114299
0.000114297
0.000116562
0.000116561
0.000114318
0.00011656
0.000116582
0.000116324
0.000118672
0.000114313
0.000116579
0.000116578
0.000118595
0.000118971
0.000121482
0.000117321
0.000117317
0.000119637
0.000119631
0.000119118
0.000121124
0.000117327
0.000117327
0.000119643
0.000119643
0.000117347
0.00011964
0.000119666
0.000119141
0.000121334
0.000117342
0.000119661
0.00011966
0.000121188
0.000121625
0.000124138
0.000120416
0.000120412
0.000122772
0.000122767
0.000121916
0.000123785
0.000120422
0.000120425
0.000122777
0.000122781
0.000120446
0.000122776
0.000122801
0.000121827
0.00012399
0.000120439
0.000122797
0.000122795
0.000123882
0.000124276
0.000126732
0.000123561
0.000123558
0.00012594
0.000125936
0.000124603
0.000126661
0.000123566
0.000123572
0.000125945
0.000125949
0.000123591
0.000125947
0.000125968
0.00012449
0.000126513
0.000123584
0.000125964
0.000125963
0.000126537
0.00012691
0.000129338
0.000126736
0.000126733
0.000129127
0.000129122
0.000126987
0.000129393
0.00012674
0.000126745
0.00012913
0.000129133
0.000126764
0.000129133
0.000129155
0.00012715
0.000129104
0.000126758
0.000129149
0.000129149
0.000129165
0.000129505
0.000131918
0.000129925
0.000129921
0.000132316
0.000132311
0.000129544
0.000131922
0.000129928
0.00012993
0.000132319
0.000132322
0.000129952
0.000132323
0.000132343
0.000129738
0.000131699
0.000129946
0.000132338
0.000132338
0.000131661
0.000132043
0.000134359
0.000133113
0.000133108
0.000135496
0.000135492
0.00013203
0.000134374
0.000133116
0.000133117
0.000135499
0.0001355
0.000133139
0.000135504
0.000135522
0.000132285
0.000134272
0.000133134
0.000135517
0.000135517
0.00013419
0.000134667
0.000136289
0.000136284
0.000134617
0.000136293
0.000136292
0.000136313
0.0001348
0.000136308
7.20386e-05
4.95762e-05
4.95889e-05
7.12092e-05
2.36161e-05
2.36129e-05
7.20324e-05
4.95709e-05
4.95837e-05
7.12078e-05
0.000145946
0.000145941
0.000145939
0.00014291
0.000142906
0.000142901
0.000142899
6.99267e-05
6.76146e-05
0.000122021
9.79722e-05
6.82684e-05
0.000121035
6.89207e-05
2.36151e-05
2.36121e-05
6.99278e-05
0.000122004
6.76353e-05
9.79713e-05
0.000121038
6.82417e-05
6.89321e-05
6.20596e-05
6.20417e-05
8.19918e-05
6.2357e-05
6.23679e-05
7.37854e-05
4.95945e-05
7.30526e-05
4.96062e-05
2.36046e-05
2.36019e-05
7.37843e-05
4.9594e-05
7.30501e-05
4.95968e-05
0.000141917
0.000141912
0.00014191
0.000138939
0.000138935
0.00013893
0.000138929
7.29292e-05
6.94095e-05
0.000118289
9.5767e-05
7.18954e-05
7.00279e-05
0.000117369
2.36037e-05
2.3601e-05
7.29213e-05
0.000118274
6.94348e-05
9.57678e-05
7.19035e-05
0.000117372
7.00051e-05
6.29298e-05
6.29181e-05
8.22287e-05
6.32073e-05
6.32155e-05
7.53064e-05
4.96112e-05
7.46761e-05
4.96195e-05
2.35942e-05
2.35918e-05
7.53197e-05
4.96098e-05
7.46615e-05
4.96114e-05
0.000137975
0.000137971
0.000137969
0.000135087
0.000135083
0.000135079
0.000135077
7.58727e-05
7.11083e-05
0.000114855
9.40833e-05
7.48977e-05
7.16912e-05
0.000114037
2.35933e-05
2.35909e-05
7.58966e-05
0.000114841
7.11375e-05
9.40843e-05
7.48963e-05
0.000114041
7.16665e-05
6.37297e-05
6.37172e-05
8.28686e-05
6.39887e-05
6.39839e-05
7.66673e-05
4.9628e-05
7.60996e-05
4.96316e-05
2.35848e-05
2.35827e-05
7.66798e-05
4.96225e-05
7.60846e-05
4.96253e-05
0.000134137
0.000134133
0.000134133
0.000131368
0.000131364
0.000131361
0.00013136
7.88042e-05
7.27091e-05
0.000111738
9.2914e-05
7.78298e-05
7.32565e-05
0.000111003
2.35839e-05
2.35818e-05
7.87875e-05
0.000111728
7.27343e-05
9.29176e-05
7.78509e-05
0.000111011
7.32395e-05
6.447e-05
6.44623e-05
8.40459e-05
6.47121e-05
6.47162e-05
7.78863e-05
4.96393e-05
7.73696e-05
4.96424e-05
2.35763e-05
2.35745e-05
7.78979e-05
4.96341e-05
7.73554e-05
4.96378e-05
0.000130458
0.000130455
0.000130454
0.000127824
0.000127821
0.000127818
0.000127818
8.16233e-05
7.4216e-05
0.000109001
9.22448e-05
8.06901e-05
7.47291e-05
0.000108363
2.35754e-05
2.35736e-05
8.16192e-05
0.000108994
7.42393e-05
9.22513e-05
8.07172e-05
0.000108373
7.47165e-05
6.51565e-05
6.51498e-05
8.55378e-05
6.53805e-05
6.53794e-05
7.89894e-05
4.96512e-05
7.85173e-05
4.96532e-05
2.35687e-05
2.35673e-05
7.9e-05
4.96456e-05
7.85043e-05
4.9648e-05
0.000126963
0.000126961
0.000126961
0.000124493
0.00012449
0.000124488
0.000124488
8.43495e-05
7.56319e-05
0.000106666
9.20569e-05
8.34353e-05
7.61229e-05
0.000106135
2.35679e-05
2.35664e-05
8.43539e-05
0.000106662
7.56649e-05
9.20632e-05
8.34462e-05
0.000106146
7.61021e-05
6.57924e-05
6.57876e-05
8.72426e-05
6.60026e-05
6.60018e-05
7.99978e-05
4.9661e-05
7.95673e-05
4.96632e-05
2.35621e-05
2.35609e-05
8.00096e-05
4.96553e-05
7.95549e-05
4.96584e-05
0.00012369
0.000123688
0.000123688
0.00012142
0.000121417
0.000121416
0.000121416
8.6944e-05
7.69695e-05
0.00010476
9.23192e-05
8.60705e-05
7.74384e-05
0.000104338
2.35612e-05
2.35601e-05
8.69526e-05
0.000104757
7.70053e-05
9.23268e-05
8.60774e-05
0.000104351
7.74192e-05
6.63891e-05
6.63839e-05
8.94458e-05
6.65855e-05
6.65841e-05
8.09371e-05
4.9671e-05
8.05336e-05
4.96731e-05
2.35563e-05
2.35556e-05
8.09402e-05
4.96648e-05
8.05218e-05
4.96685e-05
0.000120683
0.000120682
0.000120682
0.000118603
0.0001186
0.0001186
0.000118599
8.94322e-05
7.82375e-05
0.000103299
9.29984e-05
8.85932e-05
7.86839e-05
0.000102988
2.35556e-05
2.35548e-05
8.94415e-05
0.000103299
7.82716e-05
9.30074e-05
8.85968e-05
0.000103004
7.86663e-05
6.6948e-05
6.69432e-05
9.16978e-05
6.71337e-05
6.71318e-05
8.18146e-05
4.96812e-05
8.1435e-05
4.96831e-05
2.35516e-05
2.35512e-05
8.18154e-05
4.96758e-05
8.14254e-05
4.96778e-05
0.000117945
0.000117945
0.000117945
0.000116108
0.000116104
0.000116104
0.000116104
9.18151e-05
7.94412e-05
0.000102289
9.40606e-05
9.10039e-05
7.98664e-05
0.000102087
2.35509e-05
2.35505e-05
9.18402e-05
0.000102287
7.9474e-05
9.40729e-05
9.09912e-05
0.000102103
7.98533e-05
6.74753e-05
6.74709e-05
9.41523e-05
6.76522e-05
6.76497e-05
8.26339e-05
4.9692e-05
8.22761e-05
4.96938e-05
2.35479e-05
2.35478e-05
8.2633e-05
4.96867e-05
8.22706e-05
4.96884e-05
0.00011553
0.00011553
0.00011553
0.000113943
0.000113938
0.000113939
0.000113939
9.41058e-05
8.05814e-05
0.00010172
9.54726e-05
9.33e-05
8.10007e-05
0.000101631
2.35472e-05
2.35471e-05
9.4138e-05
0.000101721
8.06155e-05
9.54829e-05
9.32855e-05
0.000101645
8.09793e-05
6.79755e-05
6.7971e-05
9.65389e-05
6.81441e-05
6.81412e-05
8.34064e-05
4.97035e-05
8.30689e-05
4.97054e-05
2.35452e-05
2.35455e-05
8.34056e-05
4.96982e-05
8.30628e-05
4.97001e-05
0.00011345
0.00011345
0.000113451
0.000112125
0.00011212
0.000112121
0.000112121
9.63075e-05
8.16759e-05
0.00010158
9.71927e-05
9.5497e-05
8.20811e-05
0.000101596
2.35446e-05
2.35449e-05
9.63397e-05
0.000101582
8.17061e-05
9.72024e-05
9.54872e-05
0.00010161
8.20549e-05
6.84516e-05
6.84475e-05
9.90273e-05
6.86127e-05
6.86094e-05
8.41399e-05
4.97124e-05
8.38174e-05
4.97213e-05
2.35436e-05
2.35443e-05
8.41375e-05
4.97106e-05
8.38124e-05
4.97129e-05
0.000111721
0.000111722
0.000111723
0.000110666
0.000110661
0.000110662
0.000110663
9.84315e-05
8.27367e-05
0.000101852
9.91822e-05
9.76099e-05
8.31038e-05
0.000101969
2.35429e-05
2.35436e-05
9.84598e-05
0.000101856
8.27491e-05
9.91907e-05
9.76021e-05
0.000101984
8.30871e-05
6.89056e-05
6.89018e-05
0.000101535
6.90609e-05
6.90578e-05
8.48393e-05
4.97258e-05
8.45302e-05
4.97355e-05
2.3543e-05
2.35441e-05
8.4836e-05
4.97241e-05
8.4526e-05
4.97269e-05
0.000110354
0.000110354
0.000110356
0.000109574
0.000109569
0.000109569
0.000109571
0.00010047
8.37281e-05
0.000102514
0.000101409
9.96515e-05
8.41011e-05
0.000102725
2.35423e-05
2.35433e-05
0.000100495
0.000102518
8.37506e-05
0.000101418
9.9644e-05
0.000102739
8.4092e-05
6.93407e-05
6.93379e-05
0.000104209
6.94901e-05
6.94877e-05
8.55104e-05
4.97407e-05
8.52125e-05
4.9751e-05
2.35434e-05
2.35448e-05
8.55045e-05
4.97389e-05
8.52074e-05
4.97423e-05
0.000109353
0.000109354
0.000109356
0.000108849
0.000108844
0.000108844
0.000108847
0.000102442
8.46948e-05
0.000103539
0.000103842
0.000101622
8.50347e-05
0.000103837
2.35427e-05
2.3544e-05
0.000102466
0.000103546
8.47065e-05
0.000103852
0.000101617
0.000103855
8.50435e-05
6.976e-05
6.97549e-05
0.000106545
6.99025e-05
6.9902e-05
8.61573e-05
4.9757e-05
8.58687e-05
4.97678e-05
2.35448e-05
2.35465e-05
8.61499e-05
4.97551e-05
8.58668e-05
4.9759e-05
0.00010872
0.000108721
0.000108724
0.000108489
0.000108484
0.000108485
0.000108489
0.000104353
8.56191e-05
0.000104901
0.000106449
0.000103527
8.59665e-05
0.000105281
2.3544e-05
2.35457e-05
0.000104374
0.000104912
8.56213e-05
0.000106464
0.000103527
0.000105301
8.5962e-05
7.01623e-05
7.01567e-05
0.000109063
7.03012e-05
7.03007e-05
8.67811e-05
4.97747e-05
8.65045e-05
4.97861e-05
2.35471e-05
2.35492e-05
8.67775e-05
4.97691e-05
8.65012e-05
4.97806e-05
0.00010845
0.000108452
0.000108457
0.000108488
0.000108483
0.000108486
0.000108491
0.000106207
8.65074e-05
0.000106575
0.000109204
0.00010538
8.6843e-05
0.000107029
2.35463e-05
2.35483e-05
0.000106223
0.000106588
8.65069e-05
0.000109219
0.000105382
0.000107051
8.68458e-05
7.05494e-05
7.05439e-05
0.00011183
7.06858e-05
7.06849e-05
8.73936e-05
4.97939e-05
8.71235e-05
4.9805e-05
2.35503e-05
2.35527e-05
8.73868e-05
4.97919e-05
8.71194e-05
4.97972e-05
0.000108538
0.000108541
0.000108547
0.000108836
0.000108832
0.000108837
0.000108843
0.000108004
8.73689e-05
0.000108535
0.000112079
0.000107187
8.76789e-05
0.000109056
2.35495e-05
2.35518e-05
0.000108018
0.000108548
8.73588e-05
0.000112094
0.000107188
0.000109078
8.77026e-05
7.09231e-05
7.09169e-05
0.000114511
7.10568e-05
7.10556e-05
8.7991e-05
4.98177e-05
8.77191e-05
4.98238e-05
2.35543e-05
2.3557e-05
8.7983e-05
4.98125e-05
8.77224e-05
4.98183e-05
0.000108972
0.000108977
0.000108984
0.000109522
0.000109518
0.000109525
0.000109532
0.000109746
8.81927e-05
0.000110751
0.000115047
0.000108943
8.85034e-05
0.000111331
2.35535e-05
2.35562e-05
0.000109762
0.000110765
8.81802e-05
0.000115065
0.000108946
0.000111355
8.8524e-05
7.12838e-05
7.12772e-05
0.000117264
7.14146e-05
7.14131e-05
8.85693e-05
4.98395e-05
8.83118e-05
4.98459e-05
2.35593e-05
2.35624e-05
8.85656e-05
4.98345e-05
8.83132e-05
4.98409e-05
0.000109741
0.000109748
0.000109756
0.000110532
0.000110528
0.000110537
0.000110545
0.000111445
8.89868e-05
0.000113194
0.000118092
0.000110654
8.92936e-05
0.000113829
2.35584e-05
2.35614e-05
0.000111458
0.00011321
8.89631e-05
0.000118112
0.000110662
0.000113853
8.93245e-05
7.16321e-05
7.16255e-05
0.000119914
7.17602e-05
7.17588e-05
8.91404e-05
4.98612e-05
8.88902e-05
4.98725e-05
2.3565e-05
2.35683e-05
8.91385e-05
4.98579e-05
8.88882e-05
4.98648e-05
0.00011083
0.000110839
0.000110847
0.00011185
0.000111847
0.000111858
0.000111865
0.000113094
8.97467e-05
0.00011584
0.000121203
0.000112322
9.00555e-05
0.000116522
2.3564e-05
2.35672e-05
0.000113103
0.000115855
8.97348e-05
0.000121224
0.000112331
0.000116544
9.00851e-05
7.19683e-05
7.19622e-05
0.000122572
7.20945e-05
7.20929e-05
8.97099e-05
4.98873e-05
8.94488e-05
4.98949e-05
2.35713e-05
2.35748e-05
8.96991e-05
4.98824e-05
8.94543e-05
4.98899e-05
0.000112223
0.000112234
0.000112242
0.000113459
0.000113456
0.000113469
0.000113476
0.000114701
9.04902e-05
0.000118663
0.000124358
0.000113946
9.07934e-05
0.000119391
2.35704e-05
2.35738e-05
0.000114709
0.000118678
9.04797e-05
0.000124378
0.000113953
0.00011941
9.08245e-05
7.22936e-05
7.22879e-05
0.000125131
7.24176e-05
7.24147e-05
9.02592e-05
4.99129e-05
9.00019e-05
4.99209e-05
2.35783e-05
2.3582e-05
9.025e-05
4.9908e-05
9.00073e-05
4.99161e-05
0.000113902
0.000113914
0.000113922
0.000115339
0.000115338
0.000115351
0.000115359
0.000116261
9.12165e-05
0.000121657
0.000127538
0.000115531
9.15056e-05
0.000122422
2.35773e-05
2.3581e-05
0.000116268
0.000121669
9.11997e-05
0.000127555
0.000115533
0.00012244
9.15374e-05
7.26093e-05
7.26032e-05
0.00012778
7.2727e-05
7.27259e-05
9.07985e-05
4.99363e-05
9.05446e-05
4.99509e-05
2.35859e-05
2.35898e-05
9.07848e-05
4.99347e-05
9.05489e-05
4.99431e-05
0.000115849
0.000115861
0.00011587
0.000117471
0.000117471
0.000117483
0.000117493
0.000117772
9.19083e-05
0.000124802
0.000130729
0.000117067
9.21969e-05
0.000125602
2.35849e-05
2.35888e-05
0.00011778
0.000124812
9.18951e-05
0.000130744
0.000117067
0.000125619
9.22253e-05
7.29158e-05
7.29067e-05
0.000130396
7.30265e-05
7.30277e-05
9.13146e-05
4.99639e-05
9.10713e-05
4.99788e-05
2.3594e-05
2.35981e-05
9.13058e-05
4.99614e-05
9.10764e-05
4.99737e-05
0.000118041
0.000118053
0.000118063
0.000119833
0.000119833
0.000119846
0.000119856
0.000119232
9.25822e-05
0.000128077
0.000133915
0.000118555
9.28614e-05
0.000128905
2.3593e-05
2.35971e-05
0.000119244
0.000128086
9.25737e-05
0.000133929
0.000118555
0.000128921
9.28862e-05
7.321e-05
7.3201e-05
0.000132927
7.33167e-05
7.33169e-05
9.18282e-05
4.99923e-05
9.15865e-05
5.00076e-05
2.36026e-05
2.36069e-05
9.1812e-05
4.99875e-05
9.15926e-05
5.00015e-05
0.000120457
0.000120469
0.000120479
0.000120643
9.32324e-05
0.000131452
0.000137087
0.000119987
9.35046e-05
0.0001323
2.36017e-05
2.3606e-05
0.000120652
0.00013146
9.32228e-05
0.0001371
0.000119992
0.000132315
9.35271e-05
7.3494e-05
7.34854e-05
0.000135419
7.35965e-05
7.3596e-05
2.36182e-05
2.36151e-05
2.36161e-05
2.3613e-05
6.20665e-05
6.20655e-05
8.18882e-05
6.23659e-05
6.23646e-05
2.36094e-05
2.36124e-05
2.36073e-05
2.36103e-05
8.20403e-05
6.27985e-05
6.27932e-05
6.25142e-05
6.25134e-05
7.2028e-05
4.95702e-05
4.9583e-05
7.1216e-05
6.99294e-05
6.76388e-05
0.000122004
9.79476e-05
6.82403e-05
0.000121035
6.89327e-05
6.99398e-05
6.76478e-05
0.000122004
9.79385e-05
6.82223e-05
0.000121035
6.89267e-05
7.21621e-05
4.95979e-05
4.95858e-05
7.29427e-05
7.21687e-05
4.95918e-05
4.95798e-05
7.2928e-05
7.04142e-05
9.73508e-05
6.91416e-05
0.000119167
6.85522e-05
0.000120105
7.14283e-05
7.04073e-05
9.73415e-05
6.91226e-05
0.000119166
6.85577e-05
0.000120105
7.14296e-05
6.20581e-05
6.20474e-05
8.19041e-05
6.23563e-05
6.23696e-05
2.36176e-05
2.36146e-05
2.36073e-05
2.36102e-05
8.20285e-05
6.27887e-05
6.27972e-05
6.25062e-05
6.25014e-05
2.36089e-05
2.36117e-05
6.99162e-05
6.7643e-05
0.000122014
9.79688e-05
6.82323e-05
0.000121045
6.89258e-05
7.20325e-05
4.95668e-05
4.958e-05
7.12059e-05
6.99131e-05
0.000121996
6.76027e-05
9.79368e-05
0.000121025
6.82648e-05
6.89284e-05
7.21602e-05
4.959e-05
4.95805e-05
7.29405e-05
7.04117e-05
9.7372e-05
6.91275e-05
0.000119177
6.85557e-05
0.000120115
7.14292e-05
7.21573e-05
4.95888e-05
4.95764e-05
7.29397e-05
7.04144e-05
9.73417e-05
0.000119158
6.91595e-05
0.000120096
6.85161e-05
7.14234e-05
7.2013e-05
4.95718e-05
4.95849e-05
7.12189e-05
6.99317e-05
0.000122015
6.76464e-05
9.79469e-05
0.000121043
6.82187e-05
6.89134e-05
7.20151e-05
4.95678e-05
4.95807e-05
7.12195e-05
7.04033e-05
9.73769e-05
6.91646e-05
0.000119167
6.8522e-05
0.00012012
7.14194e-05
7.21675e-05
4.95937e-05
4.95813e-05
7.29172e-05
7.04061e-05
9.73503e-05
0.000119175
6.91322e-05
0.000120116
6.85557e-05
7.14214e-05
7.21737e-05
4.95896e-05
4.95774e-05
7.29168e-05
6.20417e-05
6.20494e-05
8.1828e-05
6.23582e-05
6.2376e-05
2.36174e-05
2.36144e-05
2.36065e-05
2.36093e-05
8.20178e-05
6.27994e-05
6.28051e-05
6.24949e-05
6.2498e-05
2.36087e-05
2.36115e-05
6.99416e-05
0.000122006
6.76034e-05
9.79592e-05
0.000121041
6.82677e-05
6.89363e-05
7.20181e-05
4.9572e-05
4.9585e-05
7.12209e-05
7.20173e-05
4.95661e-05
4.95792e-05
7.12197e-05
7.04078e-05
9.73739e-05
0.000119169
6.91423e-05
0.000120105
6.85473e-05
7.1431e-05
7.04097e-05
9.73613e-05
0.000119173
6.91638e-05
0.000120107
6.85168e-05
7.14329e-05
7.21695e-05
4.95937e-05
4.95815e-05
7.29219e-05
7.21677e-05
4.9588e-05
4.95757e-05
7.29202e-05
2.3616e-05
2.36129e-05
2.36147e-05
2.36117e-05
8.18945e-05
6.27874e-05
6.27899e-05
6.2507e-05
6.24881e-05
2.36073e-05
2.36102e-05
2.36061e-05
2.36089e-05
2.36068e-05
2.3604e-05
2.36047e-05
2.36019e-05
6.29392e-05
6.29339e-05
8.20755e-05
6.32155e-05
6.32108e-05
2.35988e-05
2.36014e-05
2.35967e-05
2.35994e-05
8.22983e-05
6.36137e-05
6.36112e-05
6.3349e-05
6.33437e-05
7.37725e-05
4.95889e-05
7.30603e-05
4.96004e-05
7.29277e-05
6.94362e-05
0.000118274
9.57456e-05
7.19076e-05
7.00105e-05
0.000117371
7.2921e-05
6.94425e-05
0.000118274
9.57363e-05
7.19047e-05
7.00023e-05
0.000117369
7.38841e-05
4.96134e-05
4.96031e-05
7.45647e-05
7.38935e-05
4.9608e-05
4.95971e-05
7.45625e-05
7.34028e-05
9.52761e-05
7.08538e-05
0.000115648
7.02996e-05
0.000116516
7.44188e-05
7.34047e-05
9.52688e-05
7.08488e-05
0.000115646
7.02958e-05
0.000116515
7.44174e-05
6.29218e-05
6.29287e-05
8.20875e-05
6.32083e-05
6.32163e-05
2.36061e-05
2.36034e-05
2.35967e-05
2.35993e-05
8.23006e-05
6.3603e-05
6.36172e-05
6.33418e-05
6.33362e-05
2.35982e-05
2.36008e-05
7.29317e-05
6.94448e-05
0.000118283
9.57662e-05
7.18964e-05
6.99972e-05
0.00011738
7.37854e-05
4.95856e-05
7.30459e-05
4.95972e-05
7.29296e-05
0.000118266
6.94064e-05
9.57359e-05
7.18968e-05
0.000117361
7.00179e-05
7.38813e-05
4.96045e-05
4.9602e-05
7.4579e-05
7.33912e-05
9.52969e-05
7.08431e-05
0.000115656
7.03058e-05
0.000116526
7.4423e-05
7.38803e-05
4.96049e-05
4.95938e-05
7.45633e-05
7.33882e-05
9.52686e-05
0.000115641
7.08646e-05
0.000116509
7.02729e-05
7.44207e-05
7.37623e-05
4.95903e-05
7.3055e-05
4.96021e-05
7.29207e-05
0.000118284
6.94305e-05
9.57453e-05
7.19007e-05
0.000117378
7.00029e-05
7.37616e-05
4.95865e-05
7.3064e-05
4.95982e-05
7.33811e-05
9.53009e-05
7.08744e-05
0.000115648
7.02729e-05
0.000116532
7.43964e-05
7.38859e-05
4.96095e-05
4.95985e-05
7.45392e-05
7.33982e-05
9.52771e-05
0.000115656
7.08469e-05
0.000116527
7.02912e-05
7.44191e-05
7.38965e-05
4.96059e-05
4.95947e-05
7.45525e-05
6.29158e-05
6.29264e-05
8.20526e-05
6.3214e-05
6.32193e-05
2.3606e-05
2.36032e-05
2.35959e-05
2.35984e-05
8.23721e-05
6.36041e-05
6.36144e-05
6.33277e-05
6.334e-05
2.35981e-05
2.36006e-05
7.29254e-05
0.000118275
6.94064e-05
9.57557e-05
7.19057e-05
0.000117375
7.0034e-05
7.37656e-05
4.95906e-05
7.30571e-05
4.96021e-05
7.3764e-05
4.95848e-05
7.3055e-05
4.95964e-05
7.34059e-05
9.52999e-05
0.000115652
7.08504e-05
0.000116517
7.02985e-05
7.44141e-05
7.34018e-05
9.52874e-05
0.000115654
7.08672e-05
0.000116518
7.02675e-05
7.44149e-05
7.38887e-05
4.96097e-05
4.95987e-05
7.45571e-05
7.38862e-05
4.96041e-05
4.9593e-05
7.45553e-05
2.36046e-05
2.36019e-05
2.36033e-05
2.36006e-05
8.22195e-05
6.36043e-05
6.36112e-05
6.33374e-05
6.33239e-05
2.35967e-05
2.35993e-05
2.35955e-05
2.3598e-05
2.35964e-05
2.35939e-05
2.35943e-05
2.35918e-05
6.37412e-05
6.37344e-05
8.27548e-05
6.39966e-05
6.39954e-05
2.35893e-05
2.35915e-05
2.35872e-05
2.35895e-05
8.30807e-05
6.43642e-05
6.43612e-05
6.41144e-05
6.4118e-05
7.53061e-05
4.96051e-05
7.46737e-05
4.96144e-05
7.59022e-05
7.11363e-05
0.000114839
9.40612e-05
7.48934e-05
7.1675e-05
0.000114037
7.58983e-05
7.11268e-05
0.000114838
9.40547e-05
7.48922e-05
7.17056e-05
0.000114035
7.54077e-05
4.96248e-05
4.96206e-05
7.60072e-05
7.54061e-05
4.96219e-05
4.96116e-05
7.60057e-05
7.63712e-05
9.37227e-05
7.2463e-05
0.000112465
7.19493e-05
0.000113232
7.73711e-05
7.63714e-05
9.37156e-05
7.24938e-05
0.000112462
7.19223e-05
0.00011323
7.73713e-05
6.37294e-05
6.37278e-05
8.27529e-05
6.3988e-05
6.39933e-05
2.35957e-05
2.35933e-05
2.35871e-05
2.35894e-05
8.30939e-05
6.4357e-05
6.43601e-05
6.41074e-05
6.41068e-05
2.35886e-05
2.35908e-05
7.59059e-05
7.11387e-05
0.000114847
9.40816e-05
7.48798e-05
7.16628e-05
0.000114043
7.53064e-05
4.96016e-05
7.46692e-05
4.96122e-05
7.58999e-05
0.000114831
7.11099e-05
9.40532e-05
7.48812e-05
0.000114031
7.16846e-05
7.53932e-05
4.96195e-05
4.96166e-05
7.60226e-05
7.63651e-05
9.37416e-05
7.2459e-05
0.000112469
7.19516e-05
0.000113238
7.73798e-05
7.54023e-05
4.96186e-05
4.96088e-05
7.60062e-05
7.63642e-05
9.37163e-05
0.000112459
7.2479e-05
0.000113226
7.19219e-05
7.73728e-05
7.5281e-05
4.96062e-05
7.46753e-05
4.96167e-05
7.591e-05
0.000114849
7.11276e-05
9.40629e-05
7.48848e-05
0.000114045
7.16647e-05
7.5297e-05
4.96026e-05
7.4676e-05
4.96132e-05
7.63799e-05
9.37453e-05
7.24843e-05
0.000112467
7.19217e-05
0.000113247
7.73556e-05
7.54086e-05
4.96229e-05
4.96136e-05
7.59822e-05
7.63591e-05
9.37244e-05
0.000112473
7.24646e-05
0.000113242
7.19426e-05
7.73746e-05
7.5408e-05
4.96192e-05
4.96099e-05
7.59973e-05
6.37257e-05
6.3734e-05
8.27235e-05
6.39868e-05
6.39984e-05
2.35955e-05
2.35931e-05
2.35862e-05
2.35885e-05
8.31178e-05
6.43586e-05
6.43666e-05
6.41042e-05
6.41101e-05
2.35884e-05
2.35907e-05
7.58984e-05
0.000114841
7.11082e-05
9.40735e-05
7.48946e-05
0.000114043
7.1687e-05
7.53005e-05
4.96065e-05
7.46664e-05
4.96171e-05
7.52985e-05
4.96008e-05
7.46639e-05
4.96114e-05
7.63723e-05
9.37462e-05
0.000112474
7.24693e-05
0.000113235
7.19491e-05
7.73501e-05
7.63736e-05
9.3734e-05
0.000112473
7.24813e-05
0.000113235
7.19216e-05
7.73621e-05
7.53978e-05
4.96234e-05
4.96136e-05
7.60011e-05
7.53952e-05
4.96178e-05
4.96081e-05
7.5999e-05
2.35942e-05
2.35918e-05
2.35929e-05
2.35905e-05
8.29384e-05
6.43576e-05
6.43553e-05
6.4107e-05
6.41029e-05
2.35871e-05
2.35894e-05
2.35859e-05
2.35881e-05
2.3587e-05
2.35849e-05
2.35849e-05
2.35827e-05
6.44793e-05
6.44781e-05
8.38241e-05
6.47192e-05
6.47144e-05
2.35807e-05
2.35826e-05
2.35786e-05
2.35805e-05
8.43102e-05
6.50576e-05
6.50557e-05
6.48308e-05
6.48244e-05
7.66662e-05
4.96189e-05
7.60961e-05
4.96273e-05
7.88179e-05
7.27393e-05
0.000111724
9.28938e-05
7.78329e-05
7.32338e-05
0.000111001
7.88187e-05
7.27081e-05
0.000111721
9.28866e-05
7.78287e-05
7.32685e-05
0.000110998
7.67499e-05
4.96376e-05
4.9634e-05
7.7294e-05
7.67474e-05
4.9633e-05
4.96268e-05
7.72916e-05
7.92783e-05
9.26823e-05
7.39847e-05
0.000109632
7.35069e-05
0.000110307
8.02199e-05
7.92714e-05
9.2675e-05
7.40109e-05
0.000109628
7.34719e-05
0.000110303
8.02447e-05
6.44719e-05
6.44696e-05
8.38154e-05
6.47093e-05
6.47153e-05
2.35862e-05
2.35841e-05
2.35785e-05
2.35804e-05
8.42678e-05
6.50499e-05
6.50532e-05
6.4819e-05
6.48167e-05
2.35799e-05
2.35818e-05
7.88229e-05
7.27375e-05
0.000111727
9.2912e-05
7.78236e-05
7.32332e-05
0.000111005
7.66662e-05
4.9616e-05
7.60923e-05
4.96243e-05
7.88198e-05
0.000111716
7.27086e-05
9.28878e-05
7.78225e-05
0.000110996
7.32548e-05
7.67358e-05
4.96322e-05
4.96294e-05
7.73086e-05
7.92685e-05
9.27e-05
7.39813e-05
0.000109634
7.35035e-05
0.000110309
8.02477e-05
7.67441e-05
4.96302e-05
4.96222e-05
7.72914e-05
7.92662e-05
9.26761e-05
0.000109626
7.39996e-05
0.000110299
7.34738e-05
8.02424e-05
7.66436e-05
4.96208e-05
7.60975e-05
4.9629e-05
7.88169e-05
0.000111733
7.27261e-05
9.28964e-05
7.78214e-05
0.000111009
7.3237e-05
7.66585e-05
4.96183e-05
7.60973e-05
4.96259e-05
7.92722e-05
9.27032e-05
7.40047e-05
0.000109634
7.34756e-05
0.00011032
8.02278e-05
7.67474e-05
4.96344e-05
4.96272e-05
7.72704e-05
7.92665e-05
9.26863e-05
0.000109639
7.39873e-05
0.000110316
7.34935e-05
8.02403e-05
7.67482e-05
4.96315e-05
4.9623e-05
7.72847e-05
6.44645e-05
6.4473e-05
8.38461e-05
6.47121e-05
6.47209e-05
2.35861e-05
2.3584e-05
2.35776e-05
2.35796e-05
8.42824e-05
6.50515e-05
6.50595e-05
6.48147e-05
6.48224e-05
2.35798e-05
2.35817e-05
7.88106e-05
0.000111726
7.27091e-05
9.29069e-05
7.78356e-05
0.000111011
7.32552e-05
7.66617e-05
4.96208e-05
7.60861e-05
4.96298e-05
7.66595e-05
4.96152e-05
7.60835e-05
4.96241e-05
7.92968e-05
9.2705e-05
0.000109643
7.3992e-05
0.000110311
7.34981e-05
8.02051e-05
7.92763e-05
9.26944e-05
0.000109642
7.40031e-05
0.00011031
7.34741e-05
8.02345e-05
7.67367e-05
4.96352e-05
4.96268e-05
7.72887e-05
7.67338e-05
4.96295e-05
4.96216e-05
7.72864e-05
2.35848e-05
2.35827e-05
2.35836e-05
2.35815e-05
8.4124e-05
6.50508e-05
6.50514e-05
6.48211e-05
6.48138e-05
2.35785e-05
2.35805e-05
2.35773e-05
2.35792e-05
2.35785e-05
2.35767e-05
2.35764e-05
2.35746e-05
6.5165e-05
6.51613e-05
8.52806e-05
6.53875e-05
6.53843e-05
2.3573e-05
2.35746e-05
2.35709e-05
2.35725e-05
8.58458e-05
6.57055e-05
6.57014e-05
6.54888e-05
6.54846e-05
7.78843e-05