/*--------------------------------*- C++ -*----------------------------------*\
| =========                 |                                                 |
| \\      /  F ield         | OpenFOAM: The Open Source CFD Toolbox           |
|  \\    /   O peration     | Version:  2312                                  |
|   \\  /    A nd           | Website:  www.openfoam.com                      |
|    \\/     M anipulation  |                                                 |
\*---------------------------------------------------------------------------*/
FoamFile
{
    version     2.0;
    format      ascii;
    arch        "LSB;label=32;scalar=64";
    class       volScalarField;
    location    "500";
    object      p;
}
// * * * * * * * * * * * * * * * * * * * * * * * * * * * * * * * * * * * * * //

dimensions      [0 2 -2 0 0 0 0];

internalField   nonuniform List<scalar> 
42840
(
0.0026006
0.00260059
0.00260059
0.00260245
0.00256115
0.00256115
0.00256115
0.00256299
0.00252193
0.00252193
0.00252192
0.00252376
0.00248293
0.00248292
0.00248292
0.00248473
0.00244413
0.00244412
0.00244412
0.00244592
0.00240553
0.00240551
0.00240551
0.0024073
0.00236712
0.0023671
0.0023671
0.00236887
0.00232889
0.00232887
0.00232888
0.00233063
0.00229085
0.00229083
0.00229083
0.00229257
0.00225298
0.00225296
0.00225296
0.00225468
0.00221528
0.00221525
0.00221525
0.00221695
0.00217774
0.00217771
0.00217771
0.00217939
0.00214035
0.00214032
0.00214032
0.00214199
0.00210312
0.00210308
0.00210308
0.00210474
0.00206602
0.00206599
0.00206599
0.00206763
0.00202907
0.00202903
0.00202903
0.00203067
0.00199225
0.00199221
0.00199221
0.00199383
0.00195556
0.00195551
0.00195551
0.00195713
0.00191899
0.00191894
0.00191894
0.00192055
0.00188253
0.00188248
0.00188248
0.00188408
0.00184619
0.00184613
0.00184613
0.00184772
0.00180995
0.00180988
0.00180988
0.00181147
0.0017738
0.00177373
0.00177373
0.00177532
0.00173775
0.00173768
0.00173768
0.00173926
0.00170178
0.00170171
0.00170171
0.00170328
0.00260245
0.00256922
0.00260059
0.00260059
0.00257099
0.00257099
0.00260245
0.00256922
0.00260059
0.00260059
0.00257099
0.00257099
0.00260059
0.00257099
0.00257099
0.00260245
0.00256922
0.00260059
0.00257099
0.00257099
0.00256922
0.00256299
0.00252997
0.00256115
0.00256115
0.00253171
0.00253171
0.00256299
0.00252997
0.00256115
0.00256115
0.00253171
0.00253171
0.00256115
0.00253171
0.00253171
0.00256299
0.00252997
0.00256115
0.00253171
0.00253171
0.00252997
0.00252376
0.00249092
0.00252193
0.00252193
0.00249265
0.00249265
0.00252376
0.00249092
0.00252193
0.00252192
0.00249265
0.00249265
0.00252192
0.00249265
0.00249265
0.00252376
0.00249092
0.00252192
0.00249265
0.00249265
0.00249092
0.00248473
0.00245208
0.00248292
0.00248292
0.0024538
0.0024538
0.00248473
0.00245208
0.00248292
0.00248292
0.0024538
0.0024538
0.00248292
0.0024538
0.0024538
0.00248473
0.00245208
0.00248292
0.0024538
0.0024538
0.00245208
0.00244592
0.00241344
0.00244411
0.00244412
0.00241514
0.00241514
0.00244592
0.00241343
0.00244411
0.00244412
0.00241514
0.00241514
0.00244412
0.00241514
0.00241514
0.00244592
0.00241344
0.00244412
0.00241514
0.00241514
0.00241343
0.0024073
0.00237498
0.00240551
0.00240551
0.00237669
0.00237669
0.0024073
0.00237498
0.00240551
0.00240551
0.00237669
0.00237669
0.00240551
0.00237669
0.00237669
0.0024073
0.00237498
0.00240551
0.00237669
0.00237669
0.00237498
0.00236887
0.00233672
0.0023671
0.0023671
0.00233841
0.00233841
0.00236887
0.00233672
0.0023671
0.0023671
0.00233841
0.00233841
0.0023671
0.00233841
0.00233841
0.00236887
0.00233672
0.0023671
0.00233841
0.00233841
0.00233672
0.00233063
0.00229863
0.00232888
0.00232887
0.00230032
0.00230032
0.00233063
0.00229863
0.00232888
0.00232888
0.00230032
0.00230032
0.00232888
0.00230032
0.00230032
0.00233063
0.00229863
0.00232888
0.00230032
0.00230032
0.00229863
0.00229256
0.00226072
0.00229083
0.00229083
0.00226241
0.00226241
0.00229256
0.00226072
0.00229083
0.00229083
0.00226241
0.00226241
0.00229083
0.00226241
0.00226241
0.00229257
0.00226072
0.00229083
0.00226241
0.00226241
0.00226072
0.00225468
0.00222297
0.00225296
0.00225296
0.00222466
0.00222466
0.00225468
0.00222297
0.00225296
0.00225296
0.00222466
0.00222466
0.00225296
0.00222466
0.00222466
0.00225468
0.00222297
0.00225296
0.00222466
0.00222466
0.00222297
0.00221695
0.00218539
0.00221525
0.00221525
0.00218708
0.00218708
0.00221695
0.00218539
0.00221525
0.00221525
0.00218708
0.00218708
0.00221525
0.00218708
0.00218708
0.00221695
0.00218539
0.00221525
0.00218708
0.00218708
0.00218539
0.00217939
0.00214796
0.00217771
0.00217771
0.00214965
0.00214965
0.00217939
0.00214796
0.00217771
0.00217771
0.00214965
0.00214965
0.00217771
0.00214965
0.00214965
0.00217939
0.00214796
0.00217771
0.00214965
0.00214965
0.00214796
0.00214199
0.00211069
0.00214032
0.00214032
0.00211238
0.00211238
0.00214199
0.00211069
0.00214032
0.00214032
0.00211238
0.00211238
0.00214032
0.00211238
0.00211238
0.00214199
0.00211069
0.00214032
0.00211238
0.00211238
0.00211069
0.00210474
0.00207356
0.00210308
0.00210308
0.00207525
0.00207525
0.00210474
0.00207356
0.00210308
0.00210308
0.00207525
0.00207525
0.00210308
0.00207525
0.00207525
0.00210474
0.00207356
0.00210308
0.00207525
0.00207525
0.00207356
0.00206763
0.00203658
0.00206599
0.00206599
0.00203826
0.00203826
0.00206763
0.00203658
0.00206599
0.00206599
0.00203826
0.00203826
0.00206599
0.00203826
0.00203826
0.00206763
0.00203658
0.00206599
0.00203826
0.00203826
0.00203658
0.00203067
0.00199972
0.00202903
0.00202903
0.0020014
0.0020014
0.00203067
0.00199972
0.00202903
0.00202903
0.0020014
0.0020014
0.00202903
0.0020014
0.0020014
0.00203067
0.00199972
0.00202903
0.0020014
0.0020014
0.00199972
0.00199383
0.001963
0.00199221
0.00199221
0.00196468
0.00196468
0.00199383
0.001963
0.00199221
0.00199221
0.00196468
0.00196468
0.00199221
0.00196468
0.00196468
0.00199383
0.001963
0.00199221
0.00196468
0.00196468
0.001963
0.00195713
0.0019264
0.00195551
0.00195551
0.00192807
0.00192807
0.00195713
0.0019264
0.00195551
0.00195551
0.00192807
0.00192807
0.00195551
0.00192807
0.00192807
0.00195713
0.0019264
0.00195551
0.00192807
0.00192807
0.0019264
0.00192055
0.00188991
0.00191894
0.00191894
0.00189158
0.00189158
0.00192055
0.00188991
0.00191894
0.00191894
0.00189158
0.00189158
0.00191894
0.00189158
0.00189158
0.00192055
0.00188991
0.00191894
0.00189158
0.00189158
0.00188991
0.00188408
0.00185354
0.00188248
0.00188248
0.00185521
0.00185521
0.00188408
0.00185354
0.00188248
0.00188248
0.00185521
0.00185521
0.00188248
0.00185521
0.00185521
0.00188408
0.00185354
0.00188248
0.00185521
0.00185521
0.00185354
0.00184772
0.00181727
0.00184613
0.00184613
0.00181893
0.00181893
0.00184772
0.00181727
0.00184613
0.00184613
0.00181893
0.00181893
0.00184613
0.00181893
0.00181893
0.00184772
0.00181727
0.00184613
0.00181893
0.00181893
0.00181727
0.00181147
0.0017811
0.00180988
0.00180988
0.00178276
0.00178276
0.00181147
0.0017811
0.00180988
0.00180988
0.00178276
0.00178276
0.00180988
0.00178276
0.00178276
0.00181147
0.0017811
0.00180988
0.00178276
0.00178276
0.0017811
0.00177532
0.00174503
0.00177373
0.00177373
0.00174668
0.00174668
0.00177532
0.00174503
0.00177373
0.00177373
0.00174668
0.00174668
0.00177373
0.00174668
0.00174668
0.00177532
0.00174503
0.00177373
0.00174668
0.00174668
0.00174503
0.00173926
0.00170904
0.00173768
0.00173768
0.00171069
0.00171069
0.00173926
0.00170904
0.00173768
0.00173768
0.00171069
0.00171069
0.00173768
0.00171069
0.00171069
0.00173926
0.00170904
0.00173768
0.00171069
0.00171069
0.00170904
0.00170328
0.00170171
0.00170171
0.00170328
0.00170171
0.00170171
0.00170171
0.00170328
0.00170171
0.00258823
0.00260276
0.00258813
0.00260283
0.00260274
0.0025881
0.00258823
0.00260276
0.00258813
0.00260283
0.0026006
0.0026006
0.0026006
0.00257099
0.00257099
0.00257099
0.00257099
0.00258853
0.00260275
0.00260059
0.00259071
0.00258832
0.00259071
0.00260281
0.00260274
0.0025881
0.00258853
0.00260059
0.00260275
0.00259071
0.00259071
0.00258832
0.0026028
0.00260278
0.00260278
0.00258894
0.00258817
0.00258817
0.00254885
0.0025633
0.00256337
0.00254876
0.00256328
0.00254873
0.00254885
0.0025633
0.00256337
0.00254876
0.00256115
0.00256115
0.00256115
0.00253172
0.00253171
0.00253171
0.00253171
0.00254913
0.00256328
0.00256115
0.00255132
0.00256333
0.00254894
0.00255132
0.00256328
0.00254873
0.00254913
0.00256115
0.00256328
0.00255132
0.00256333
0.00255132
0.00254894
0.00256332
0.00256332
0.00254957
0.00254879
0.00254879
0.00250969
0.00252407
0.00252413
0.0025096
0.00252405
0.00250957
0.00250969
0.00252407
0.00252413
0.0025096
0.00252193
0.00252193
0.00252193
0.00249266
0.00249266
0.00249266
0.00249266
0.00250995
0.00252405
0.00252192
0.00251215
0.00252409
0.00250977
0.00251215
0.00252405
0.00250957
0.00250995
0.00252192
0.00252405
0.00251215
0.00252409
0.00251215
0.00250977
0.00252409
0.00252409
0.00251042
0.00250963
0.00250963
0.00247074
0.00248505
0.0024851
0.00247066
0.00248504
0.00247063
0.00247074
0.00248505
0.0024851
0.00247065
0.00248293
0.00248292
0.00248292
0.00245381
0.00245381
0.00245381
0.00245381
0.00247099
0.00248502
0.00248292
0.0024732
0.00248506
0.00247081
0.0024732
0.00248504
0.00247063
0.00247099
0.00248292
0.00248502
0.0024732
0.00248506
0.0024732
0.00247081
0.00248507
0.00248507
0.00247147
0.00247068
0.00247068
0.00243199
0.00244624
0.00244629
0.00243191
0.00244623
0.00243189
0.00243199
0.00244624
0.00244629
0.00243191
0.00244413
0.00244413
0.00244413
0.00241516
0.00241516
0.00241516
0.00241516
0.00243223
0.00244621
0.00244412
0.00243445
0.00244623
0.00243206
0.00243445
0.00244622
0.00243189
0.00243223
0.00244412
0.00244621
0.00243445
0.00244623
0.00243445
0.00243206
0.00244625
0.00244625
0.00243273
0.00243193
0.00243193
0.00239344
0.00240762
0.00240767
0.00239337
0.00240761
0.00239335
0.00239344
0.00240762
0.00240767
0.00239337
0.00240553
0.00240553
0.00240553
0.0023767
0.0023767
0.0023767
0.0023767
0.00239367
0.00240759
0.00240551
0.00239589
0.00240761
0.00239351
0.00239589
0.00240761
0.00239335
0.00239367
0.00240551
0.00240759
0.00239589
0.00240761
0.00239589
0.0023935
0.00240764
0.00240764
0.00239418
0.00239339
0.00239339
0.00235508
0.0023692
0.00236924
0.00235501
0.00236919
0.00235499
0.00235508
0.0023692
0.00236924
0.00235501
0.00236712
0.00236712
0.00236712
0.00233843
0.00233843
0.00233843
0.00233843
0.0023553
0.00236917
0.0023671
0.00235753
0.00236919
0.00235514
0.00235753
0.00236919
0.00235499
0.0023553
0.0023671
0.00236917
0.00235753
0.00236918
0.00235753
0.00235514
0.00236922
0.00236922
0.00235583
0.00235503
0.00235503
0.00231691
0.00233096
0.00233101
0.00231684
0.00233096
0.00231682
0.00231691
0.00233096
0.00233101
0.00231684
0.00232889
0.00232889
0.00232889
0.00230035
0.00230035
0.00230035
0.00230035
0.00231712
0.00233093
0.00232888
0.00231935
0.00233094
0.00231696
0.00231935
0.00233096
0.00231682
0.00231712
0.00232888
0.00233093
0.00231935
0.00233094
0.00231935
0.00231696
0.00233098
0.00233098
0.00231765
0.00231686
0.00231686
0.00227891
0.00229291
0.00229295
0.00227885
0.0022929
0.00227883
0.00227891
0.00229291
0.00229295
0.00227885
0.00229085
0.00229085
0.00229085
0.00226243
0.00226243
0.00226243
0.00226243
0.00227911
0.00229288
0.00229084
0.00228135
0.00229288
0.00227897
0.00228135
0.0022929
0.00227883
0.00227911
0.00229084
0.00229288
0.00228134
0.00229288
0.00228135
0.00227897
0.00229292
0.00229292
0.00227965
0.00227886
0.00227886
0.00224108
0.00225502
0.00225506
0.00224102
0.00225502
0.00224101
0.00224108
0.00225502
0.00225506
0.00224103
0.00225298
0.00225298
0.00225298
0.00222469
0.00222469
0.00222469
0.00222469
0.00224128
0.00225499
0.00225297
0.00224351
0.002255
0.00224114
0.00224352
0.00225502
0.00224101
0.00224128
0.00225297
0.00225499
0.00224352
0.002255
0.00224353
0.00224114
0.00225504
0.00225504
0.00224182
0.00224104
0.00224104
0.00220342
0.00221731
0.00221734
0.00220337
0.00221731
0.00220335
0.00220343
0.00221731
0.00221734
0.00220337
0.00221528
0.00221528
0.00221528
0.00218711
0.00218711
0.00218711
0.00218711
0.00220362
0.00221728
0.00221526
0.00220585
0.00221728
0.00220348
0.00220586
0.00221731
0.00220335
0.00220362
0.00221526
0.00221728
0.00220585
0.00221728
0.00220586
0.00220348
0.00221732
0.00221732
0.00220416
0.00220338
0.00220338
0.00216592
0.00217976
0.00217979
0.00216587
0.00217975
0.00216586
0.00216593
0.00217976
0.00217979
0.00216587
0.00217774
0.00217774
0.00217774
0.00214968
0.00214968
0.00214968
0.00214968
0.00216611
0.00217973
0.00217772
0.00216835
0.00217973
0.00216598
0.00216836
0.00217975
0.00216586
0.00216611
0.00217772
0.00217973
0.00216835
0.00217973
0.00216836
0.00216598
0.00217977
0.00217977
0.00216666
0.00216588
0.00216588
0.00212858
0.00214236
0.00214239
0.00212853
0.00214236
0.00212852
0.00212858
0.00214236
0.00214239
0.00212853
0.00214035
0.00214035
0.00214035
0.00211241
0.00211241
0.00211241
0.00211241
0.00212876
0.00214233
0.00214034
0.002131
0.00214233
0.00212863
0.00213102
0.00214236
0.00212852
0.00212876
0.00214034
0.00214233
0.002131
0.00214233
0.00213102
0.00212863
0.00214237
0.00214237
0.00212931
0.00212854
0.00212854
0.00209139
0.00210512
0.00210514
0.00209134
0.00210511
0.00209132
0.00209139
0.00210512
0.00210514
0.00209134
0.00210312
0.00210312
0.00210312
0.00207528
0.00207528
0.00207528
0.00207528
0.00209157
0.00210508
0.0021031
0.0020938
0.00210508
0.00209144
0.00209382
0.00210511
0.00209132
0.00209156
0.0021031
0.00210508
0.0020938
0.00210508
0.00209382
0.00209144
0.00210513
0.00210513
0.00209211
0.00209135
0.00209135
0.00205433
0.00206802
0.00206804
0.00205429
0.00206801
0.00205428
0.00205433
0.00206802
0.00206804
0.00205429
0.00206603
0.00206602
0.00206602
0.0020383
0.0020383
0.0020383
0.0020383
0.00205451
0.00206798
0.00206601
0.00205674
0.00206798
0.00205438
0.00205676
0.00206801
0.00205428
0.00205451
0.00206601
0.00206799
0.00205674
0.00206798
0.00205676
0.00205438
0.00206803
0.00206803
0.00205505
0.0020543
0.0020543
0.00201742
0.00203106
0.00203108
0.00201738
0.00203105
0.00201736
0.00201742
0.00203105
0.00203108
0.00201738
0.00202907
0.00202907
0.00202907
0.00200145
0.00200145
0.00200145
0.00200145
0.00201759
0.00203102
0.00202906
0.00201981
0.00203102
0.00201747
0.00201984
0.00203105
0.00201736
0.00201759
0.00202906
0.00203102
0.00201982
0.00203102
0.00201984
0.00201747
0.00203107
0.00203107
0.00201813
0.00201739
0.00201739
0.00198063
0.00199423
0.00199425
0.00198059
0.00199423
0.00198058
0.00198063
0.00199423
0.00199425
0.00198059
0.00199225
0.00199225
0.00199225
0.00196472
0.00196472
0.00196472
0.00196472
0.0019808
0.0019942
0.00199224
0.00198302
0.00199419
0.00198069
0.00198306
0.00199423
0.00198058
0.0019808
0.00199224
0.0019942
0.00198302
0.00199419
0.00198306
0.00198068
0.00199424
0.00199424
0.00198135
0.0019806
0.0019806
0.00194398
0.00195753
0.00195755
0.00194394
0.00195753
0.00194393
0.00194398
0.00195753
0.00195755
0.00194394
0.00195556
0.00195556
0.00195556
0.00192812
0.00192812
0.00192812
0.00192812
0.00194414
0.0019575
0.00195555
0.00194636
0.00195749
0.00194403
0.00194639
0.00195753
0.00194393
0.00194414
0.00195555
0.0019575
0.00194636
0.00195749
0.00194639
0.00194403
0.00195754
0.00195754
0.00194468
0.00194395
0.00194395
0.00190744
0.00192094
0.00192097
0.0019074
0.00192096
0.00190739
0.00190744
0.00192095
0.00192097
0.0019074
0.00191899
0.00191899
0.00191899
0.00189164
0.00189164
0.00189164
0.00189164
0.0019076
0.00192092
0.00191898
0.00190981
0.00192091
0.00190749
0.00190985
0.00192095
0.00190739
0.0019076
0.00191898
0.00192092
0.00190981
0.00192091
0.00190985
0.00190749
0.00192096
0.00192096
0.00190814
0.00190741
0.00190741
0.00187101
0.00188449
0.0018845
0.00187098
0.00188449
0.00187097
0.00187101
0.00188449
0.0018845
0.00187098
0.00188253
0.00188253
0.00188253
0.00185527
0.00185527
0.00185527
0.00185527
0.00187117
0.00188446
0.00188252
0.00187338
0.00188445
0.00187106
0.00187342
0.00188449
0.00187097
0.00187117
0.00188252
0.00188446
0.00187338
0.00188445
0.00187342
0.00187106
0.0018845
0.0018845
0.00187171
0.00187099
0.00187099
0.0018347
0.00184814
0.00184815
0.00183467
0.00184814
0.00183466
0.0018347
0.00184814
0.00184815
0.00183467
0.00184619
0.00184619
0.00184619
0.001819
0.001819
0.001819
0.001819
0.00183485
0.0018481
0.00184617
0.00183706
0.00184809
0.00183475
0.0018371
0.00184814
0.00183466
0.00183485
0.00184617
0.00184811
0.00183706
0.00184809
0.0018371
0.00183475
0.00184815
0.00184815
0.00183539
0.00183468
0.00183468
0.00179849
0.00181189
0.0018119
0.00179846
0.00181189
0.00179845
0.00179849
0.00181189
0.0018119
0.00179846
0.00180995
0.00180995
0.00180995
0.00178283
0.00178283
0.00178283
0.00178283
0.00179864
0.00181186
0.00180992
0.00180084
0.00181184
0.00179854
0.00180088
0.00181189
0.00179845
0.00179864
0.00180992
0.00181186
0.00180084
0.00181184
0.00180088
0.00179854
0.0018119
0.0018119
0.00179917
0.00179847
0.00179846
0.00176237
0.00177574
0.00177575
0.00176234
0.00177575
0.00176234
0.00176237
0.00177574
0.00177575
0.00176234
0.0017738
0.0017738
0.0017738
0.00174675
0.00174675
0.00174675
0.00174675
0.00176252
0.00177571
0.00177378
0.00176471
0.0017757
0.00176242
0.00176475
0.00177575
0.00176234
0.00176252
0.00177378
0.00177571
0.00176471
0.0017757
0.00176475
0.00176242
0.00177575
0.00177575
0.00176305
0.00176235
0.00176235
0.00172634
0.00173969
0.00173969
0.00172632
0.00173969
0.00172631
0.00172634
0.00173969
0.00173969
0.00172632
0.00173775
0.00173775
0.00173775
0.00171077
0.00171077
0.00171077
0.00171077
0.00172649
0.00173965
0.00173772
0.00172868
0.00173964
0.00172639
0.00172872
0.00173969
0.00172631
0.00172649
0.00173772
0.00173965
0.00172868
0.00173964
0.00172872
0.00172639
0.0017397
0.0017397
0.00172702
0.00172633
0.00172633
0.0016904
0.00170372
0.00170373
0.00169038
0.00170372
0.00169038
0.0016904
0.00170372
0.00170372
0.00169038
0.00170178
0.00170178
0.00170178
0.00169055
0.00170369
0.00170175
0.00169273
0.00170367
0.00169045
0.00169277
0.00170372
0.00169037
0.00169055
0.00170175
0.00170369
0.00169273
0.00170367
0.00169277
0.00169045
0.00170373
0.00170373
0.00169108
0.00169039
0.00169039
0.00260274
0.0025881
0.00260274
0.0025881
0.00260278
0.00260278
0.00258894
0.00258817
0.00258817
0.00256839
0.00258298
0.00256838
0.00258298
0.00258269
0.00256845
0.00256845
0.00258302
0.00258302
0.00258823
0.00260276
0.00258813
0.00260283
0.00258853
0.00260274
0.00260059
0.00259071
0.00258832
0.00259071
0.0026028
0.00258853
0.00260274
0.00260059
0.00259071
0.00258832
0.00259071
0.0026028
0.00258307
0.00256842
0.002583
0.00256851
0.00258307
0.00256842
0.002583
0.00256851
0.00258304
0.00258084
0.0025686
0.00257099
0.00258299
0.00258084
0.0025688
0.00258304
0.00258084
0.0025686
0.00257099
0.00258299
0.00258084
0.0025688
0.00260278
0.00260278
0.00258894
0.00258817
0.00258817
0.00260274
0.0025881
0.00256839
0.00258298
0.00258269
0.00256845
0.00256845
0.00258302
0.00258302
0.00256839
0.00258298
0.00258853
0.00260274
0.00260059
0.00259071
0.00258832
0.00259071
0.0026028
0.00258823
0.00260276
0.00258813
0.00260283
0.00258853
0.00260059
0.00260274
0.00259071
0.00259071
0.00258832
0.0026028
0.00258307
0.00256842
0.002583
0.00256851
0.00258304
0.00258084
0.0025686
0.00257099
0.00258299
0.00258084
0.0025688
0.00258307
0.00256842
0.002583
0.00256851
0.00258304
0.00258084
0.00257099
0.0025686
0.00258084
0.00258299
0.0025688
0.00258823
0.00260276
0.00258813
0.00260283
0.00258853
0.00260059
0.00260275
0.00259071
0.00259071
0.00258832
0.00260281
0.00258823
0.00260276
0.00258813
0.00260283
0.00258304
0.00258084
0.0025686
0.00257099
0.00258299
0.00258084
0.0025688
0.00258307
0.00256842
0.002583
0.00256852
0.00258304
0.00258084
0.00257099
0.0025686
0.00258084
0.00258299
0.0025688
0.00258307
0.00256842
0.002583
0.00256852
0.00260278
0.00260278
0.00258894
0.00258817
0.00258817
0.00260274
0.0025881
0.00256839
0.00258298
0.00258269
0.00256845
0.00256845
0.00258302
0.00258302
0.00256839
0.00258298
0.00258853
0.00260059
0.00260274
0.00259071
0.00259071
0.00258832
0.0026028
0.00258823
0.00260276
0.00258813
0.00260283
0.00258823
0.00260276
0.00258813
0.00260283
0.00258304
0.00258084
0.00257099
0.0025686
0.00258084
0.00258299
0.0025688
0.00258304
0.00258084
0.00257099
0.0025686
0.00258084
0.00258299
0.0025688
0.00258307
0.00256842
0.002583
0.00256852
0.00258307
0.00256842
0.002583
0.00256852
0.00260274
0.0025881
0.00260274
0.0025881
0.00258269
0.00256845
0.00256845
0.00258302
0.00258302
0.00256839
0.00258298
0.00256839
0.00258298
0.00256328
0.00254873
0.00256328
0.00254873
0.00256332
0.00256332
0.00254957
0.00254879
0.00254879
0.00252912
0.00254364
0.00252912
0.00254364
0.00254335
0.00252918
0.00252918
0.00254368
0.00254368
0.00254885
0.0025633
0.00256337
0.00254876
0.00254913
0.00256328
0.00256115
0.00255132
0.00256333
0.00254894
0.00255132
0.00254913
0.00256328
0.00256115
0.00255132
0.00256333
0.00254894
0.00255132
0.00254372
0.00252915
0.00254366
0.00252924
0.00254372
0.00252915
0.00254366
0.00252924
0.00254368
0.00254151
0.00252933
0.00253171
0.00254364
0.00254151
0.00252951
0.00254368
0.00254151
0.00252933
0.00253171
0.00254364
0.00254151
0.00252951
0.00256332
0.00256332
0.00254957
0.00254879
0.00254879
0.00256329
0.00254873
0.00252912
0.00254364
0.00254335
0.00252918
0.00252918
0.00254368
0.00254368
0.00252912
0.00254364
0.00254913
0.00256328
0.00256115
0.00255132
0.00256333
0.00254894
0.00255132
0.00254885
0.0025633
0.00256337
0.00254876
0.00254913
0.00256115
0.00256328
0.00255132
0.00256333
0.00255132
0.00254894
0.00254372
0.00252915
0.00254366
0.00252924
0.00254368
0.00254151
0.00252933
0.00253171
0.00254364
0.00254151
0.00252951
0.00254372
0.00252915
0.00254366
0.00252924
0.00254368
0.00254151
0.00253171
0.00252933
0.00254151
0.00254364
0.00252951
0.00254885
0.0025633
0.00256337
0.00254876
0.00254913
0.00256115
0.00256328
0.00255132
0.00256333
0.00255132
0.00254894
0.00254885
0.0025633
0.00256337
0.00254876
0.00254368
0.00254151
0.00252933
0.00253171
0.00254364
0.00254151
0.00252951
0.00254372
0.00252915
0.00254366
0.00252924
0.00254368
0.00254151
0.00253171
0.00252933
0.00254151
0.00254364
0.00252951
0.00254372
0.00252915
0.00254366
0.00252924
0.00256332
0.00256332
0.00254957
0.00254879
0.00254879
0.00256328
0.00254873
0.00252912
0.00254364
0.00254335
0.00252918
0.00252918
0.00254368
0.00254368
0.00252912
0.00254364
0.00254913
0.00256115
0.00256328
0.00255132
0.00256333
0.00255132
0.00254894
0.00254885
0.0025633
0.00256337
0.00254876
0.00254885
0.0025633
0.00256337
0.00254876
0.00254368
0.00254151
0.00253171
0.00252933
0.00254151
0.00254364
0.00252951
0.00254368
0.00254151
0.00253171
0.00252933
0.00254151
0.00254364
0.00252951
0.00254372
0.00252915
0.00254366
0.00252924
0.00254372
0.00252915
0.00254366
0.00252924
0.00256328
0.00254873
0.00256329
0.00254873
0.00254335
0.00252918
0.00252918
0.00254368
0.00254368
0.00252912
0.00254364
0.00252912
0.00254364
0.00252405
0.00250957
0.00252405
0.00250957
0.00252409
0.00252409
0.00251042
0.00250963
0.00250963
0.00249008
0.00250452
0.00249008
0.00250452
0.00250422
0.00249013
0.00249013
0.00250455
0.00250455
0.00250969
0.00252407
0.00252413
0.0025096
0.00250995
0.00252405
0.00252192
0.00251215
0.00252409
0.00250977
0.00251215
0.00250995
0.00252405
0.00252192
0.00251215
0.00252409
0.00250977
0.00251215
0.00250459
0.0024901
0.00250453
0.00249019
0.00250459
0.0024901
0.00250453
0.00249019
0.00250454
0.00250239
0.00249027
0.00249265
0.00250451
0.00250239
0.00249044
0.00250454
0.00250239
0.00249027
0.00249265
0.00250451
0.00250239
0.00249044
0.00252409
0.00252409
0.00251042
0.00250963
0.00250963
0.00252405
0.00250957
0.00249008
0.00250452
0.00250422
0.00249013
0.00249013
0.00250455
0.00250455
0.00249008
0.00250452
0.00250995
0.00252405
0.00252192
0.00251215
0.00252409
0.00250977
0.00251215
0.00250969
0.00252407
0.00252413
0.0025096
0.00250995
0.00252193
0.00252405
0.00251215
0.00252408
0.00251215
0.00250977
0.00250459
0.0024901
0.00250453
0.00249019
0.00250454
0.00250239
0.00249027
0.00249265
0.00250451
0.00250239
0.00249044
0.00250459
0.0024901
0.00250453
0.00249019
0.00250454
0.00250239
0.00249265
0.00249027
0.00250239
0.00250451
0.00249044
0.00250969
0.00252407
0.00252413
0.0025096
0.00250995
0.00252192
0.00252405
0.00251215
0.00252409
0.00251215
0.00250977
0.00250969
0.00252407
0.00252413
0.0025096
0.00250454
0.00250239
0.00249027
0.00249265
0.00250451
0.00250239
0.00249044
0.00250459
0.0024901
0.00250453
0.00249019
0.00250454
0.00250239
0.00249265
0.00249026
0.00250239
0.00250451
0.00249044
0.00250459
0.0024901
0.00250453
0.00249019
0.00252409
0.00252409
0.00251042
0.00250963
0.00250963
0.00252405
0.00250957
0.00249008
0.00250452
0.00250422
0.00249013
0.00249013
0.00250455
0.00250455
0.00249008
0.00250452
0.00250995
0.00252192
0.00252405
0.00251215
0.00252409
0.00251215
0.00250977
0.00250969
0.00252407
0.00252413
0.0025096
0.00250969
0.00252407
0.00252413
0.0025096
0.00250454
0.00250239
0.00249265
0.00249027
0.00250239
0.00250451
0.00249044
0.00250454
0.00250239
0.00249265
0.00249027
0.00250239
0.00250451
0.00249044
0.00250459
0.0024901
0.00250453
0.00249019
0.00250459
0.0024901
0.00250453
0.00249019
0.00252405
0.00250957
0.00252405
0.00250957
0.00250422
0.00249013
0.00249013
0.00250455
0.00250455
0.00249008
0.00250452
0.00249008
0.00250452
0.00248504
0.00247063
0.00248504
0.00247063
0.00248507
0.00248507
0.00247147
0.00247068
0.00247068
0.00245123
0.00246561
0.00245123
0.00246561
0.0024653
0.00245128
0.00245128
0.00246564
0.00246563
0.00247074
0.00248505
0.0024851
0.00247065
0.00247099
0.00248502
0.00248292
0.0024732
0.00248506
0.00247081
0.0024732
0.00247099
0.00248502
0.00248292
0.0024732
0.00248506
0.00247081
0.0024732
0.00246567
0.00245126
0.00246562
0.00245134
0.00246567
0.00245126
0.00246562
0.00245134
0.00246562
0.00246349
0.00245141
0.0024538
0.00246559
0.00246349
0.00245158
0.00246562
0.00246349
0.00245141
0.0024538
0.00246559
0.00246349
0.00245158
0.00248507
0.00248507
0.00247147
0.00247068
0.00247068
0.00248504
0.00247063
0.00245123
0.00246561
0.0024653
0.00245128
0.00245128
0.00246563
0.00246563
0.00245124
0.00246561
0.00247099
0.00248502
0.00248292
0.0024732
0.00248506
0.00247081
0.0024732
0.00247074
0.00248505
0.0024851
0.00247065
0.00247099
0.00248292
0.00248503
0.0024732
0.00248505
0.0024732
0.00247081
0.00246567
0.00245126
0.00246562
0.00245134
0.00246562
0.00246349
0.00245141
0.0024538
0.00246559
0.00246349
0.00245158
0.00246567
0.00245126
0.00246562
0.00245134
0.00246562
0.00246349
0.0024538
0.00245141
0.00246349
0.00246559
0.00245158
0.00247074
0.00248505
0.0024851
0.00247066
0.00247099
0.00248292
0.00248502
0.0024732
0.00248506
0.0024732
0.00247081
0.00247074
0.00248505
0.0024851
0.00247065
0.00246562
0.00246349
0.00245141
0.0024538
0.00246559
0.00246349
0.00245158
0.00246567
0.00245126
0.00246562
0.00245134
0.00246562
0.00246349
0.0024538
0.00245141
0.00246349
0.00246559
0.00245158
0.00246567
0.00245126
0.00246562
0.00245134
0.00248507
0.00248507
0.00247147
0.00247068
0.00247068
0.00248504
0.00247063
0.00245123
0.00246561
0.0024653
0.00245128
0.00245128
0.00246563
0.00246563
0.00245123
0.00246561
0.00247099
0.00248292
0.00248503
0.0024732
0.00248506
0.0024732
0.00247081
0.00247074
0.00248505
0.0024851
0.00247065
0.00247074
0.00248505
0.0024851
0.00247066
0.00246562
0.00246349
0.0024538
0.00245141
0.00246349
0.00246559
0.00245158
0.00246562
0.00246349
0.0024538
0.00245141
0.00246349
0.00246559
0.00245158
0.00246567
0.00245126
0.00246562
0.00245134
0.00246567
0.00245126
0.00246562
0.00245134
0.00248504
0.00247063
0.00248504
0.00247063
0.0024653
0.00245128
0.00245128
0.00246563
0.00246563
0.00245123
0.0024656
0.00245123
0.00246561
0.00244623
0.00243189
0.00244622
0.00243189
0.00244625
0.00244625
0.00243273
0.00243193
0.00243193
0.00241259
0.00242689
0.00241259
0.00242689
0.00242658
0.00241264
0.00241264
0.00242692
0.00242692
0.00243199
0.00244624
0.00244629
0.00243191
0.00243223
0.00244621
0.00244412
0.00243445
0.00244623
0.00243206
0.00243445
0.00243223
0.00244621
0.00244412
0.00243445
0.00244623
0.00243206
0.00243445
0.00242695
0.00241262
0.00242691
0.00241269
0.00242695
0.00241262
0.0024269
0.00241269
0.0024269
0.00242479
0.00241276
0.00241515
0.00242688
0.00242479
0.00241293
0.0024269
0.00242479
0.00241276
0.00241515
0.00242688
0.00242479
0.00241293
0.00244625
0.00244625
0.00243273
0.00243193
0.00243194
0.00244622
0.00243189
0.00241259
0.00242689
0.00242658
0.00241264
0.00241264
0.00242692
0.00242692
0.00241259
0.00242689
0.00243223
0.00244621
0.00244412
0.00243445
0.00244623
0.00243206
0.00243445
0.00243199
0.00244624
0.00244629
0.00243191
0.00243223
0.00244412
0.00244621
0.00243445
0.00244623
0.00243445
0.00243206
0.00242695
0.00241262
0.00242691
0.00241269
0.0024269
0.00242479
0.00241276
0.00241515
0.00242688
0.00242479
0.00241293
0.00242695
0.00241262
0.0024269
0.00241269
0.0024269
0.00242479
0.00241515
0.00241276
0.00242479
0.00242688
0.00241293
0.00243199
0.00244624
0.00244629
0.00243191
0.00243223
0.00244412
0.00244621
0.00243445
0.00244623
0.00243445
0.00243206
0.00243199
0.00244624
0.00244629
0.00243191
0.0024269
0.00242479
0.00241276
0.00241515
0.00242687
0.00242479
0.00241293
0.00242695
0.00241262
0.0024269
0.00241269
0.0024269
0.00242479
0.00241515
0.00241276
0.00242479
0.00242687
0.00241293
0.00242695
0.00241262
0.0024269
0.00241269
0.00244625
0.00244625
0.00243273
0.00243193
0.00243193
0.00244622
0.00243189
0.00241259
0.00242689
0.00242658
0.00241264
0.00241264
0.00242692
0.00242692
0.00241259
0.00242689
0.00243223
0.00244412
0.00244621
0.00243445
0.00244623
0.00243445
0.00243206
0.00243199
0.00244624
0.00244629
0.00243191
0.00243199
0.00244624
0.00244629
0.00243191
0.0024269
0.00242479
0.00241515
0.00241276
0.00242479
0.00242687
0.00241293
0.0024269
0.00242479
0.00241515
0.00241276
0.00242479
0.00242688
0.00241293
0.00242695
0.00241262
0.0024269
0.00241269
0.00242695
0.00241262
0.00242691
0.00241269
0.00244622
0.00243189
0.00244622
0.00243189
0.00242658
0.00241264
0.00241264
0.00242692
0.00242692
0.00241259
0.00242689
0.00241259
0.00242689
0.00240761
0.00239335
0.00240761
0.00239335
0.00240764
0.00240764
0.00239419
0.00239339
0.00239339
0.00237415
0.00238838
0.00237415
0.00238838
0.00238806
0.00237419
0.00237419
0.0023884
0.0023884
0.00239344
0.00240762
0.00240767
0.00239337
0.00239367