/*--------------------------------*- C++ -*----------------------------------*\
| =========                 |                                                 |
| \\      /  F ield         | OpenFOAM: The Open Source CFD Toolbox           |
|  \\    /   O peration     | Version:  2312                                  |
|   \\  /    A nd           | Website:  www.openfoam.com                      |
|    \\/     M anipulation  |                                                 |
\*---------------------------------------------------------------------------*/
FoamFile
{
    version     2.0;
    format      ascii;
    arch        "LSB;label=32;scalar=64";
    class       surfaceScalarField;
    location    "500";
    object      phi;
}
// * * * * * * * * * * * * * * * * * * * * * * * * * * * * * * * * * * * * * //

dimensions      [0 3 -1 0 0 0 0];

oriented        oriented;

internalField   nonuniform List<scalar> 
123680
(
-8.1856e-07
-8.19463e-07
4.33516e-07
4.34095e-07
0.00115006
-0.00114929
-1.50275e-06
8.191e-07
3.99344e-07
0.00113925
-4.98864e-07
1.12942e-06
1.4718e-07
7.47245e-07
-5.44802e-07
8.46039e-08
-1.22939e-06
-0.0011388
-1.50001e-06
8.19163e-07
4.05175e-07
0.00113912
-4.96133e-07
1.12665e-06
1.44161e-07
7.47245e-07
-5.44868e-07
8.47747e-08
-1.2295e-06
-0.00113868
1.53187e-06
1.49474e-06
-4.76247e-07
-4.79425e-07
0.000274438
-0.000276509
-7.98869e-07
-7.99767e-07
-0.00115234
4.25817e-07
4.26407e-07
0.00115308
-0.0011405
-1.4942e-06
7.99349e-07
3.90045e-07
0.0011409
-4.87265e-07
1.13512e-06
1.53628e-07
7.54535e-07
-5.3007e-07
-1.21366e-06
9.27913e-08
-0.00114038
-1.49148e-06
7.99382e-07
3.95924e-07
0.00114077
-4.84564e-07
1.13235e-06
1.50702e-07
7.54589e-07
-5.30135e-07
-1.21373e-06
9.29509e-08
-0.000276524
1.52328e-06
1.48616e-06
-4.63572e-07
-4.66642e-07
0.000274445
-7.79183e-07
-7.79846e-07
-0.00115528
4.18348e-07
4.18923e-07
0.00115601
-0.00114201
-1.48475e-06
7.79604e-07
3.8037e-07
0.00114236
-4.75756e-07
1.1405e-06
1.60005e-07
7.61793e-07
-5.15433e-07
-1.19763e-06
1.00942e-07
-0.00114188
-1.48207e-06
7.79537e-07
3.86175e-07
0.00114222
-4.73017e-07
1.13768e-06
1.57084e-07
7.61896e-07
-5.15423e-07
-1.19761e-06
1.01104e-07
-0.000276478
1.51372e-06
1.47659e-06
-4.50472e-07
-4.53513e-07
0.000274392
-7.58437e-07
-7.59007e-07
-0.00115813
4.10203e-07
4.10815e-07
0.00115883
-0.00114331
-1.47457e-06
7.58739e-07
3.71275e-07
0.00114361
-4.64139e-07
1.1457e-06
1.66165e-07
7.69054e-07
-5.01121e-07
-1.18144e-06
1.09017e-07
-0.00114318
-1.47183e-06
7.58532e-07
3.77067e-07
0.00114348
-4.61425e-07
1.14293e-06
1.63291e-07
7.69163e-07
-5.01096e-07
-1.18144e-06
1.09189e-07
-0.000276379
1.50352e-06
1.46644e-06
-4.37384e-07
-4.4035e-07
0.000274286
-7.37122e-07
-7.37608e-07
-0.00116088
4.01844e-07
4.02527e-07
0.00116155
-0.00114442
-1.46364e-06
7.37518e-07
3.61758e-07
0.00114467
-4.52778e-07
1.15089e-06
1.72093e-07
7.76266e-07
-4.86928e-07
-1.1652e-06
1.16984e-07
-0.00114429
-1.46094e-06
7.37089e-07
3.67588e-07
0.00114454
-4.4998e-07
1.14812e-06
1.69273e-07
7.76414e-07
-4.86901e-07
-1.16515e-06
1.17211e-07
-0.000276232
1.49263e-06
1.45553e-06
-4.24252e-07
-4.27214e-07
0.000274135
-7.15095e-07
-7.15352e-07
-0.00116352
3.93089e-07
3.93864e-07
0.00116417
-0.00114534
-1.45214e-06
7.15478e-07
3.52082e-07
0.00114555
-4.41553e-07
1.15615e-06
1.7796e-07
7.83355e-07
-4.73076e-07
-1.14912e-06
1.24799e-07
-0.00114521
-1.4494e-06
7.14935e-07
3.57774e-07
0.00114541
-4.38746e-07
1.1534e-06
1.75092e-07
7.83507e-07
-4.72982e-07
-1.14904e-06
1.25077e-07
-0.000276047
1.48113e-06
1.44406e-06
-4.1127e-07
-4.14171e-07
0.000273947
-6.92422e-07
-6.92586e-07
-0.00116606
3.84165e-07
3.85054e-07
0.00116667
-0.00114607
-1.44006e-06
6.92842e-07
3.41351e-07
0.00114624
-4.30571e-07
1.16161e-06
1.83854e-07
7.90347e-07
-4.59549e-07
-1.1333e-06
1.325e-07
-0.00114595
-1.43736e-06
6.92282e-07
3.47063e-07
0.0011461
-4.27738e-07
1.15881e-06
1.81002e-07
7.90527e-07
-4.59445e-07
-1.13318e-06
1.32782e-07
-0.000275831
1.46909e-06
1.43202e-06
-3.98342e-07
-4.01274e-07
0.000273729
-6.69058e-07
-6.69169e-07
-0.00116848
3.75022e-07
3.75951e-07
0.00116906
-0.00114663
-1.42779e-06
6.69491e-07
3.29899e-07
0.00114675
-4.19769e-07
1.16694e-06
1.89586e-07
7.97214e-07
-4.46343e-07
-1.11778e-06
1.40085e-07
-0.0011465
-1.42503e-06
6.689e-07
3.35508e-07
0.00114661
-4.16903e-07
1.16421e-06
1.86796e-07
7.9741e-07
-4.46216e-07
-1.11767e-06
1.40391e-07
-0.000275592
1.4568e-06
1.41971e-06
-3.85749e-07
-3.88696e-07
0.00027349
-6.45029e-07
-6.45207e-07
-0.00117078
3.65713e-07
3.66596e-07
0.00117134
-0.00114702
-1.41548e-06
6.45522e-07
3.18018e-07
0.0011471
-4.09169e-07
1.17217e-06
1.9524e-07
8.03904e-07
-4.33441e-07
-1.10266e-06
1.47603e-07
-0.00114689
-1.41261e-06
6.44991e-07
3.23399e-07
0.00114696
-4.06368e-07
1.16956e-06
1.92448e-07
8.04088e-07
-4.33345e-07
-1.10263e-06
1.47865e-07
-0.000275336
1.44446e-06
1.40731e-06
-3.73571e-07
-3.76539e-07
0.000273235
-6.20577e-07
-6.20722e-07
-0.00117297
3.50558e-07
3.57121e-07
0.0011735
-0.00114726
-1.40323e-06
6.20918e-07
3.05048e-07
0.0011473
-3.98925e-07
1.17744e-06
2.00739e-07
8.10368e-07
-4.20919e-07
-1.08793e-06
1.54958e-07
-0.00114713
-1.40035e-06
6.20503e-07
3.10691e-07
0.00114716
-3.96143e-07
1.17483e-06
1.97979e-07
8.10466e-07
-4.20922e-07
-1.08796e-06
1.55155e-07
-0.000275071
1.43216e-06
1.39499e-06
-3.61844e-07
-3.64871e-07
0.000272971
-5.95607e-07
-5.95895e-07
-0.00117503
3.41125e-07
3.47496e-07
0.00117554
-0.00114735
-1.39107e-06
5.95884e-07
2.91414e-07
0.00114736
-3.88963e-07
1.18257e-06
2.06116e-07
8.16625e-07
-4.08926e-07
-1.07385e-06
1.62027e-07
-0.00114722
-1.38831e-06
5.95649e-07
2.97165e-07
0.00114722
-3.86173e-07
1.17986e-06
2.033e-07
8.16725e-07
-4.08932e-07
-1.0738e-06
1.6221e-07
-0.000274801
1.42004e-06
1.38283e-06
-3.50631e-07
-3.53671e-07
0.000272703
-5.70355e-07
-5.70849e-07
-0.00117698
3.31763e-07
3.38007e-07
0.00117745
-0.00114731
-1.37916e-06
5.70589e-07
2.76928e-07
0.00114729
-3.79313e-07
1.18757e-06
2.11371e-07
8.22644e-07
-3.97338e-07
-1.06034e-06
1.68875e-07
-0.00114718
-1.37646e-06
5.70502e-07
2.82852e-07
0.00114715
-3.76573e-07
1.18481e-06
2.08504e-07
8.22701e-07
-3.97337e-07
-1.06032e-06
1.69007e-07
-0.00027453
1.40821e-06
1.37101e-06
-3.3998e-07
-3.42994e-07
0.000272434
-5.44913e-07
-5.45581e-07
-0.00117879
3.22425e-07
3.28548e-07
0.00117923
-0.00114716
-1.36763e-06
5.45146e-07
2.61767e-07
0.00114711
-3.69938e-07
1.19224e-06
2.16481e-07
8.28308e-07
-3.86182e-07
-1.04744e-06
1.75459e-07
-0.00114703
-1.36493e-06
5.45066e-07
2.67773e-07
0.00114697
-3.67218e-07
1.18946e-06
2.13597e-07
8.28445e-07
-3.86218e-07
-1.04739e-06
1.75591e-07
-0.000274262
1.39669e-06
1.35955e-06
-3.2985e-07
-3.32819e-07
0.000272168
-5.19377e-07
-5.20032e-07
-0.00118048
3.13086e-07
3.19094e-07
0.00118088
-0.00114691
-1.35652e-06
5.19517e-07
2.46126e-07
0.00114684
-3.60972e-07
1.19666e-06
2.21346e-07
8.33796e-07
-3.75561e-07
-1.03512e-06
1.81741e-07
-0.00114678
-1.35383e-06
5.19537e-07
2.52157e-07
0.0011467
-3.58231e-07
1.19385e-06
2.18506e-07
8.33938e-07
-3.75575e-07
-1.03505e-06
1.81892e-07
-0.000273998
1.38546e-06
1.34839e-06
-3.20213e-07
-3.23124e-07
0.000271908
-4.93652e-07
-4.94448e-07
-0.00118203
3.0364e-07
3.09644e-07
0.00118241
-0.00114657
-1.34587e-06
4.93748e-07
2.30056e-07
0.00114648
-3.52391e-07
1.20083e-06
2.25967e-07
8.39106e-07
-3.65426e-07
-1.02331e-06
1.87714e-07
-0.00114644
-1.34312e-06
4.93727e-07
2.35865e-07
0.00114634
-3.49706e-07
1.19809e-06
2.23105e-07
8.39239e-07
-3.65425e-07
-1.02325e-06
1.87895e-07
-0.000273741
1.37472e-06
1.33767e-06
-3.11075e-07
-3.1396e-07
0.000271654
-4.67957e-07
-4.68576e-07
-0.00118346
2.94071e-07
3.00069e-07
0.0011838
-0.00114616
-1.33561e-06
4.68007e-07
2.13603e-07
0.00114606
-3.44196e-07
1.20473e-06
2.30344e-07
8.44225e-07
-3.55725e-07
-1.01205e-06
1.93409e-07
-0.00114603
-1.33283e-06
4.67919e-07
2.19481e-07
0.00114591
-3.41459e-07
1.20201e-06
2.27572e-07
8.44207e-07
-3.55741e-07
-1.01207e-06
1.93568e-07
-0.000273492
1.36443e-06
1.32745e-06
-3.02474e-07
-3.05309e-07
0.000271408
-4.42069e-07
-4.42562e-07
-0.00118476
2.84217e-07
2.90292e-07
0.00118507
-0.00114569
-1.32581e-06
4.42165e-07
1.97249e-07
0.00114557
-3.3639e-07
1.20839e-06
2.34538e-07
8.48911e-07
-3.46514e-07
-1.00145e-06
1.98825e-07
-0.00114556
-1.32309e-06
4.41966e-07
2.02925e-07
0.00114543
-3.33606e-07
1.2057e-06
2.31768e-07
8.48905e-07
-3.4652e-07
-1.00146e-06
1.98984e-07
-0.000273251
1.35463e-06
1.3177e-06
-2.94361e-07
-2.97177e-07
0.00027117
-4.16143e-07
-4.16487e-07
-0.00118593
2.79942e-07
2.80262e-07
0.0011862
-0.00114517
-1.31649e-06
4.16214e-07
1.80887e-07
0.00114504
-3.28926e-07
1.21182e-06
2.38408e-07
8.53311e-07
-3.37729e-07
-9.91412e-07
2.03932e-07
-0.00114504
-1.31374e-06
4.16043e-07
1.86547e-07
0.0011449
-3.26112e-07
1.20911e-06
2.3577e-07
8.53289e-07
-3.37747e-07
-9.91425e-07
2.04099e-07
-0.00027302
1.34529e-06
1.30841e-06
-2.86724e-07
-2.89531e-07
0.000270942
-3.90342e-07
-3.90359e-07
-0.00118697
2.69542e-07
2.69956e-07
0.00118721
-0.00114462
-1.30769e-06
3.90271e-07
1.64739e-07
0.00114448
-3.21898e-07
1.21498e-06
2.42152e-07
8.57504e-07
-3.2937e-07
-9.81837e-07
2.08818e-07
-0.00114448
-1.30491e-06
3.90167e-07
1.70398e-07
0.00114434
-3.19079e-07
1.2123e-06
2.39406e-07
8.57487e-07
-3.29439e-07
-9.81885e-07
2.08942e-07
-0.000272798
1.33652e-06
1.29964e-06
-2.79595e-07
-2.8239e-07
0.000270724
-3.6423e-07
-3.64375e-07
-0.00118789
2.58786e-07
2.59161e-07
0.0011881
-0.00114404
-1.29934e-06
3.6427e-07
1.49023e-07
0.00114389
-3.15182e-07
1.21783e-06
2.45613e-07
8.61514e-07
-3.21379e-07
-9.72734e-07
2.13502e-07
-0.0011439
-1.29658e-06
3.64255e-07
1.54602e-07
0.00114375
-3.12385e-07
1.21518e-06
2.42857e-07
8.61527e-07
-3.21432e-07
-9.72765e-07
2.13559e-07
-0.000272586
1.32813e-06
1.29126e-06
-2.72838e-07
-2.75641e-07
0.000270515
-3.38364e-07
-3.38538e-07
-0.00118869
2.4769e-07
2.48022e-07
0.00118887
-0.00114344
-1.2914e-06
3.38438e-07
1.33808e-07
0.00114329
-3.08911e-07
1.22051e-06
2.48788e-07
8.65288e-07
-3.13822e-07
-9.64133e-07
2.17819e-07
-0.0011433
-1.2887e-06
3.3839e-07
1.39504e-07
0.00114315
-3.06178e-07
1.21784e-06
2.45971e-07
8.65289e-07
-3.13866e-07
-9.64187e-07
2.1785e-07
-0.000272383
1.32026e-06
1.2834e-06
-2.66577e-07
-2.69365e-07
0.000270315
-3.1267e-07
-3.12882e-07
-0.00118937
2.36184e-07
2.36478e-07
0.00118952
-0.00114283
-1.28399e-06
3.12755e-07
1.19241e-07
0.00114268
-3.03007e-07
1.22293e-06
2.51693e-07
8.68846e-07
-3.0661e-07
-9.55992e-07
2.21922e-07
-0.00114269
-1.28134e-06
3.12783e-07
1.25012e-07
0.00114254
-3.00304e-07
1.22018e-06
2.4887e-07
8.68889e-07
-3.06671e-07
-9.56026e-07
2.22029e-07
-0.00027219
1.31283e-06
1.27601e-06
-2.60744e-07
-2.63508e-07
0.000270126
-2.87267e-07
-2.87478e-07
-0.00118994
2.24225e-07
2.24513e-07
0.00119007
-0.00114221
-1.27699e-06
2.87326e-07
1.05445e-07
0.00114206
-2.97502e-07
1.22508e-06
2.54348e-07
8.7224e-07
-2.99804e-07
-9.48298e-07
2.25865e-07
-0.00114207
-1.27437e-06
2.87295e-07
1.1122e-07
0.00114192
-2.94776e-07
1.22231e-06
2.51537e-07
8.72282e-07
-2.99822e-07
-9.48296e-07
2.25944e-07
-0.000272007
1.30578e-06
1.26897e-06
-2.55242e-07
-2.58017e-07
0.000269946
-2.62113e-07
-2.62331e-07
-0.00119041
2.11786e-07
2.12044e-07
0.00119051
-0.0011416
-1.2705e-06
2.62201e-07
9.24347e-08
0.00114145
-2.92357e-07
1.22703e-06
2.56749e-07
8.75427e-07
-2.93318e-07
-9.41e-07
2.29509e-07
-0.00114146
-1.26781e-06
2.6215e-07
9.82081e-08
0.00114131
-2.8965e-07
1.22431e-06
2.53941e-07
8.7546e-07
-2.93359e-07
-9.41005e-07
2.29609e-07
-0.000271834
1.29927e-06
1.26248e-06
-2.50248e-07
-2.52987e-07
0.000269776
-2.37345e-07
-2.37486e-07
-0.00119077
1.98866e-07
1.99103e-07
0.00119085
-0.001141
-1.2644e-06
2.37437e-07
8.042e-08
0.00114085
-2.87586e-07
1.2288e-06
2.58938e-07
8.78434e-07
-2.87215e-07
-9.34147e-07
2.3294e-07
-0.00114086
-1.26172e-06
2.37366e-07
8.62477e-08
0.00114071
-2.84904e-07
1.22605e-06
2.56119e-07
8.78436e-07
-2.8727e-07
-9.34155e-07
2.33034e-07
-0.000271671
1.29315e-06
1.25637e-06
-2.45565e-07
-2.48318e-07
0.000269615
1.54299e-06
1.50315e-06
-4.76445e-07
-4.82051e-07
0.000274496
-0.000276584
-1.17389e-06
-1.1338e-06
0.000276599
-0.000274507
1.05227e-07
1.10647e-07
4.06458e-07
0.0011387
-5.04556e-07
1.16956e-06
1.52822e-07
7.5271e-07
-5.45054e-07
8.45255e-08
-1.23512e-06
-0.00113826
-1.54037e-06
8.1855e-07
4.06474e-07
0.00113878
-5.04691e-07
1.1669e-06
1.52665e-07
7.52796e-07
-5.42117e-07
8.15352e-08
-1.2348e-06
-0.00113833
0.00113996
8.03806e-07
-0.00113955
3.99408e-07
-1.53661e-06
1.57664e-07
-4.95867e-07
-1.22336e-06
9.07084e-08
-5.33983e-07
7.58173e-07
1.1712e-06
0.00114003
8.03834e-07
-0.00113962
3.99425e-07
-1.5341e-06
1.57508e-07
-4.95985e-07
-1.22305e-06
8.77012e-08
-5.3101e-07
7.58293e-07
-4.76646e-07
-4.78985e-07
0.000274477
-0.000276564
-1.13373e-06
0.000276579
-0.000274488
1.05448e-07
1.07781e-07
4.05192e-07
0.0011397
-4.99163e-07
1.12946e-06
1.47018e-07
7.52683e-07
-5.44983e-07
8.479e-08
-1.23494e-06
-0.00113926
-1.53476e-06
8.18221e-07
4.06378e-07
0.00113866
-5.04612e-07
1.16156e-06
1.52881e-07
7.52767e-07
-5.42166e-07
8.15904e-08
-1.23481e-06
-0.00113822
0.00114096
8.04718e-07
-0.00114055
3.98194e-07
-1.49674e-06
1.51869e-07
-4.9047e-07
-1.22318e-06
9.09382e-08
-5.33903e-07
7.58174e-07
1.16582e-06
0.00113991
8.03745e-07
-0.00113951
3.99287e-07
-1.52856e-06
1.57716e-07
-4.95939e-07
-1.22306e-06
8.77828e-08
-5.3098e-07
7.58261e-07
8.18018e-07
4.06578e-07
0.00113828
-5.01625e-07
1.15861e-06
1.4994e-07
7.44627e-07
-5.39125e-07
7.84181e-08
-1.22628e-06
-0.00113784
8.04255e-07
-0.0011401
4.03387e-07
-1.49645e-06
1.51981e-07
-4.90145e-07
-1.21762e-06
9.0697e-08
7.52751e-07
-5.3372e-07
1.1629e-06
0.00113953
8.03037e-07
-0.00113913
3.99448e-07
-1.52557e-06
1.54796e-07
-4.92899e-07
-1.21455e-06
8.46431e-08
-5.2807e-07
7.50115e-07
-4.76754e-07
-4.8159e-07
0.000274463
-0.000276539
-1.13093e-06
0.000276554
-0.000274474
1.05443e-07
1.10688e-07
8.19378e-07
4.04996e-07
0.00113926
-4.98988e-07
1.12127e-06
1.47065e-07
7.4973e-07
-5.44958e-07
8.48051e-08
-1.23191e-06
-0.00113882
8.04397e-07
-0.00113997
3.9815e-07
-1.49373e-06
1.49045e-07
-4.87447e-07
-1.21774e-06
9.09203e-08
7.52758e-07
-5.33801e-07
1.12551e-06
0.00114052
8.04883e-07
-0.00114011
3.97751e-07
-1.48845e-06
1.51906e-07
-4.90306e-07
-1.22016e-06
9.09784e-08
-5.33827e-07
7.55216e-07
-0.000274449
1.05291e-07
1.08029e-07
1.53444e-06
1.49456e-06
-4.63745e-07
-4.69287e-07
0.000274503
-1.17937e-06
-1.13927e-06
0.000276553
-0.000274468
1.14234e-07
1.19673e-07
3.97095e-07
0.00114035
-4.92965e-07
1.17528e-06
1.5929e-07
7.60024e-07
-5.30251e-07
-1.21934e-06
9.27089e-08
-1.53185e-06
7.98865e-07
3.97187e-07
0.00114042
-4.93138e-07
1.17259e-06
1.59129e-07
7.60113e-07
-5.2736e-07
-1.21905e-06
8.97488e-08
0.00114146
7.84241e-07
-0.0011411
3.89706e-07
-1.52742e-06
1.64e-07
-4.84397e-07
-1.2074e-06
9.88065e-08
-5.19286e-07
7.65468e-07
1.17665e-06
0.00114153
7.84054e-07
-0.00114118
3.89726e-07
-1.52479e-06
1.63894e-07
-4.8451e-07
-1.20701e-06
9.58772e-08
-5.16308e-07
7.65538e-07
-4.63954e-07
-4.66291e-07
0.000274483
-1.13916e-06
0.000276534
-0.000274449
1.14433e-07
1.16805e-07
3.95805e-07
0.00114135
-4.87485e-07
1.13519e-06
1.5354e-07
7.59994e-07
-5.3018e-07
-1.21917e-06
9.29735e-08
-1.52631e-06
7.98843e-07
3.96873e-07
0.00114031
-4.93091e-07
1.16725e-06
1.59327e-07
7.60079e-07
-5.27387e-07
-1.21907e-06
8.97879e-08
0.00114246
7.84946e-07
-0.0011421
3.88516e-07
-1.48752e-06
1.58272e-07
-4.78955e-07
-1.20716e-06
9.90227e-08
-5.19206e-07
7.65458e-07
1.17129e-06
0.00114141
7.83948e-07
-0.00114106
3.89519e-07
-1.51925e-06
1.64149e-07
-4.84399e-07
-1.20706e-06
9.58653e-08
-5.16339e-07
7.65519e-07
7.9805e-07
3.97147e-07
0.00113993
-4.90041e-07
1.16432e-06
1.56458e-07
7.51939e-07
-5.24379e-07
8.67036e-08
-1.21054e-06
7.84599e-07
-0.00114165
3.93754e-07
-1.48714e-06
1.58387e-07
-4.78718e-07
-1.20163e-06
9.88595e-08
7.60006e-07
-5.19008e-07
1.1684e-06
0.00114103
7.83262e-07
-0.00114068
3.8958e-07
-1.51625e-06
1.61218e-07
-4.81395e-07
-1.19856e-06
9.28926e-08
-5.13353e-07
7.57375e-07
-4.64062e-07
-4.68928e-07
0.000274469
-1.13634e-06
0.000276509
-0.000274435
1.14342e-07
1.19725e-07
7.99869e-07
3.95541e-07
0.00114091
-4.87403e-07
1.12693e-06
1.53586e-07
7.57023e-07
-5.30153e-07
9.29672e-08
-1.21616e-06
7.84562e-07
-0.00114152
3.88476e-07
-1.48449e-06
1.55492e-07
-4.75934e-07
-1.20169e-06
9.90949e-08
7.60068e-07
-5.19042e-07
1.13101e-06
0.00114202
7.84919e-07
-0.00114166
3.88065e-07
-1.47912e-06
1.58317e-07
-4.78756e-07
-1.2041e-06
9.90838e-08
-5.19117e-07
7.62525e-07
-0.00027441
1.14318e-07
1.17079e-07
1.52495e-06
1.48506e-06
-4.50681e-07
-4.56241e-07
0.00027445
-1.18459e-06
-1.14448e-06
0.000276453
-0.000274375
1.22805e-07
1.28243e-07
3.87313e-07
0.0011418
-4.81484e-07
1.18069e-06
1.656e-07
7.67284e-07
-5.15637e-07
-1.20332e-06
1.00771e-07
-1.52239e-06
7.79002e-07
3.87432e-07
0.00114188
-4.81588e-07
1.178e-06
1.65498e-07
7.67347e-07
-5.12687e-07
-1.20296e-06
9.788e-08
0.00114276
7.63727e-07
-0.00114246
3.80405e-07
-1.51739e-06
1.70259e-07
-4.72765e-07
-1.19121e-06
1.06845e-07
-5.04879e-07
7.72738e-07
1.1819e-06
0.00114284
7.63567e-07
-0.00114253
3.80512e-07
-1.51478e-06
1.70152e-07
-4.72849e-07
-1.19087e-06
1.03943e-07
-5.01959e-07
7.72813e-07
-4.50911e-07
-4.53227e-07
0.000274431
-1.14439e-06
0.000276434
-0.000274356
1.23003e-07
1.25396e-07
3.86151e-07
0.00114281
-4.76036e-07
1.14059e-06
1.5988e-07
7.67273e-07
-5.15544e-07
-1.20312e-06
1.01068e-07
-1.51683e-06
7.78877e-07
3.87207e-07
0.00114176
-4.81429e-07
1.17262e-06
1.65772e-07
7.67323e-07
-5.12689e-07
-1.20302e-06
9.78814e-08
0.00114377
7.6428e-07
-0.00114346
3.79308e-07
-1.47751e-06
1.64531e-07
-4.67347e-07
-1.19093e-06
1.07039e-07
-5.04783e-07
7.72767e-07
1.17655e-06
0.00114272
7.63461e-07
-0.00114241
3.80216e-07
-1.50925e-06
1.70412e-07
-4.72727e-07
-1.1909e-06
1.03932e-07
-5.01917e-07
7.72778e-07
7.78243e-07
3.87227e-07
0.00114138
-4.78511e-07
1.16975e-06
1.62879e-07
7.59203e-07
-5.0973e-07
9.49565e-08
-1.19452e-06
7.63939e-07
-0.00114301
3.8467e-07
-1.47715e-06
1.64648e-07
-4.67081e-07
-1.18549e-06
1.07026e-07
7.67283e-07
-5.04695e-07
1.17368e-06
0.00114234
7.62572e-07
-0.00114203
3.80276e-07
-1.50614e-06
1.67518e-07
-4.69697e-07
-1.18242e-06
1.01052e-07
-4.98997e-07
7.6467e-07
-4.51049e-07
-4.55856e-07
0.000274417
-1.14161e-06
0.000276409
-0.000274342
1.22953e-07
1.28328e-07
7.79791e-07
3.8574e-07
0.00114237
-4.75906e-07
1.13234e-06
1.59968e-07
7.64332e-07
-5.15399e-07
1.01091e-07
-1.20002e-06
7.63842e-07
-0.00114288
3.79314e-07
-1.47449e-06
1.61754e-07
-4.64321e-07
-1.18552e-06
1.07203e-07
7.67355e-07
-5.04623e-07
1.13622e-06
0.00114333
7.64375e-07
-0.00114302
3.78774e-07
-1.46906e-06
1.6465e-07
-4.67149e-07
-1.18793e-06
1.0717e-07
-5.04616e-07
7.69789e-07
-0.000274317
1.2285e-07
1.25746e-07
1.51471e-06
1.47483e-06
-4.37558e-07
-4.43084e-07
0.000274345
-1.1898e-06
-1.14968e-06
0.000276307
-0.000274235
1.3108e-07
1.36546e-07
3.78151e-07
0.00114306
-4.69857e-07
1.18592e-06
1.71804e-07
7.74526e-07
-5.01356e-07
-1.18713e-06
1.08854e-07
-1.5122e-06
7.58297e-07
3.7829e-07
0.00114313
-4.69943e-07
1.18321e-06
1.71695e-07
7.74606e-07
-4.9842e-07
-1.18683e-06
1.05952e-07
0.00114387
7.42527e-07
-0.00114361
3.71063e-07
-1.50663e-06
1.76255e-07
-4.61264e-07
-1.17495e-06
1.14825e-07
-4.90713e-07
7.79942e-07
1.18712e-06
0.00114394
7.42297e-07
-0.00114369
3.71212e-07
-1.50401e-06
1.76105e-07
-4.61374e-07
-1.17462e-06
1.12018e-07
-4.87747e-07
7.80028e-07
-4.37811e-07
-4.4012e-07
0.000274325
-1.14958e-06
0.000276288
-0.000274216
1.31273e-07
1.33706e-07
3.77016e-07
0.00114406
-4.64417e-07
1.14581e-06
1.66077e-07
7.74617e-07
-5.01258e-07
-1.18683e-06
1.09078e-07
-1.50659e-06
7.58155e-07
3.77905e-07
0.00114301
-4.6978e-07
1.17786e-06
1.71957e-07
7.74585e-07
-4.98398e-07
-1.18682e-06
1.05926e-07
0.00114488
7.43001e-07
-0.00114462
3.70047e-07
-1.46676e-06
1.70554e-07
-4.55843e-07
-1.17471e-06
1.15127e-07
-4.90574e-07
7.80007e-07
1.18176e-06
0.00114383
7.42056e-07
-0.00114357
3.70884e-07
-1.49844e-06
1.76459e-07
-4.6123e-07
-1.1746e-06
1.11979e-07
-4.87784e-07
7.80034e-07
7.57327e-07
3.78014e-07
0.00114263
-4.66822e-07
1.17498e-06
1.69052e-07
7.66469e-07
-4.95421e-07
1.03067e-07
-1.17833e-06
7.42802e-07
-0.00114417
3.75316e-07
-1.4664e-06
1.70653e-07
-4.55614e-07
-1.16924e-06
1.14996e-07
7.74494e-07
-4.90437e-07
1.17887e-06
0.00114345
7.41482e-07
-0.00114319
3.70819e-07
-1.49538e-06
1.73503e-07
-4.58187e-07
-1.16617e-06
1.09126e-07
-4.8478e-07
7.71864e-07
-4.37915e-07
-4.42719e-07
0.000274311
-1.14681e-06
0.000276263
-0.000274202
1.31268e-07
1.36602e-07
7.58974e-07
3.76581e-07
0.00114362
-4.64294e-07
1.13753e-06
1.66178e-07
7.71624e-07
-5.01037e-07
1.09169e-07
-1.18382e-06
7.42461e-07
-0.00114403
3.69943e-07
-1.46369e-06
1.67779e-07
-4.5286e-07
-1.16921e-06
1.15255e-07
7.74623e-07
-4.90383e-07
1.14144e-06
0.00114444
7.42819e-07
-0.00114418
3.69529e-07
-1.45829e-06
1.70646e-07
-4.55717e-07
-1.17163e-06
1.15233e-07
-4.90407e-07
7.77179e-07
-0.000274177
1.31148e-07
1.34044e-07
1.50376e-06
1.46389e-06
-4.24429e-07
-4.29932e-07
0.000274194
-1.19502e-06
-1.15489e-06
0.000276122
-0.000274056
1.39041e-07
1.44606e-07
3.68638e-07
0.00114412
-4.58414e-07
1.19111e-06
1.77733e-07
7.81702e-07
-4.8714e-07
-1.17087e-06
1.16799e-07
-1.50126e-06
7.36848e-07
3.68829e-07
0.00114419
-4.5855e-07
1.18842e-06
1.77598e-07
7.81818e-07
-4.84218e-07
-1.17054e-06
1.14019e-07
0.00114479
7.20721e-07
-0.00114458
3.61321e-07
-1.49528e-06
1.82081e-07
-4.49993e-07
-1.15878e-06
1.22796e-07
-4.76694e-07
7.87087e-07
1.19232e-06
0.00114486
7.20375e-07
-0.00114465
3.61571e-07
-1.49267e-06
1.81949e-07
-4.50119e-07
-1.15844e-06
1.19996e-07
-4.73739e-07
7.87176e-07
-4.24676e-07
-4.27008e-07
0.000274175
-1.15483e-06
0.000276103
-0.000274037
1.39301e-07
1.41702e-07
3.67517e-07
0.00114513
-4.53011e-07
1.15098e-06
1.71999e-07
7.81802e-07
-4.87009e-07
-1.1706e-06
1.17133e-07
-1.49568e-06
7.36614e-07
3.68495e-07
0.00114407
-4.58354e-07
1.18306e-06
1.77928e-07
7.81836e-07
-4.84282e-07
-1.17052e-06
1.14e-07
0.0011458
7.20965e-07
-0.00114559
3.60506e-07
-1.45542e-06
1.76416e-07
-4.44593e-07
-1.15851e-06
1.23105e-07
-4.76542e-07
7.87154e-07
1.18696e-06
0.00114474
7.20188e-07
-0.00114453
3.61035e-07
-1.4871e-06
1.82184e-07
-4.49985e-07
-1.15838e-06
1.19981e-07
-4.73768e-07
7.8722e-07
7.36108e-07
3.68468e-07
0.00114369
-4.5537e-07
1.18015e-06
1.7501e-07
7.73651e-07
-4.8126e-07
1.11124e-07
-1.16209e-06
7.20986e-07
-0.00114513
3.65762e-07
-1.45502e-06
1.76511e-07
-4.44324e-07
-1.15312e-06
1.22856e-07
7.81608e-07
-4.76478e-07
1.18411e-06
0.00114436
7.19735e-07
-0.00114415
3.61151e-07
-1.484e-06
1.79331e-07
-4.46971e-07
-1.15006e-06
1.17077e-07
-4.70831e-07
7.78981e-07
-4.24799e-07
-4.29575e-07
0.00027416
-1.15205e-06
0.000276077
-0.000274022
1.39242e-07
1.4459e-07
7.37391e-07
3.67159e-07
0.00114468
-4.52861e-07
1.14272e-06
1.72074e-07
7.78979e-07
-4.86865e-07
1.1723e-07
-1.16755e-06
7.20521e-07
-0.001145
3.60167e-07
-1.4523e-06
1.73606e-07
-4.41566e-07
-1.15304e-06
1.23179e-07
7.81765e-07
-4.76416e-07
1.14667e-06
0.00114535
7.20683e-07
-0.00114514
3.60054e-07
-1.44691e-06
1.76472e-07
-4.44444e-07
-1.15546e-06
1.23158e-07
-4.76404e-07
7.84312e-07
-0.000273997
1.39122e-07
1.42056e-07
1.49224e-06
1.45239e-06
-4.11383e-07
-4.16846e-07
0.000274005
-1.2004e-06
-1.16028e-06
0.000275906
-0.000273844
1.46896e-07
1.52412e-07
3.58813e-07
0.00114499
-4.47201e-07
1.1964e-06
1.83547e-07
7.88836e-07
-4.73263e-07
-1.15475e-06
1.24715e-07
-1.48977e-06
7.14735e-07
3.59116e-07
0.00114506
-4.47325e-07
1.19364e-06
1.8341e-07
7.88923e-07
-4.70296e-07
-1.15441e-06
1.21956e-07
0.00114552
6.98128e-07
-0.00114536
3.50816e-07
-1.48326e-06
1.8797e-07
-4.38926e-07
-1.14283e-06
1.30565e-07
-4.63039e-07
7.94125e-07
1.19768e-06
0.00114559
6.9773e-07
-0.00114543
3.51245e-07
-1.48078e-06
1.87801e-07
-4.39134e-07
-1.1425e-06
1.27807e-07
-4.60091e-07
7.94204e-07
-4.11608e-07
-4.13988e-07
0.000273986
-1.16023e-06
0.000275887
-0.000273825
1.47178e-07
1.49495e-07
3.57926e-07
0.001146
-4.41833e-07
1.15626e-06
1.77892e-07
7.88904e-07
-4.7311e-07
-1.15447e-06
1.25033e-07
-1.48419e-06
7.1449e-07
3.58596e-07
0.00114494
-4.47189e-07
1.1883e-06
1.83622e-07
7.88992e-07
-4.70271e-07
-1.15435e-06
1.21971e-07
0.00114653
6.98316e-07
-0.00114636
3.50019e-07
-1.44343e-06
1.82305e-07
-4.33548e-07
-1.14255e-06
1.30856e-07
-4.62873e-07
7.9419e-07
1.19228e-06
0.00114547
6.9736e-07
-0.00114531
3.50814e-07
-1.47516e-06
1.88026e-07
-4.3899e-07
-1.14239e-06
1.27852e-07
-4.60041e-07
7.94273e-07
7.14128e-07
3.5873e-07
0.00114456
-4.442e-07
1.18544e-06
1.808e-07
7.80724e-07
-4.67399e-07
1.19024e-07
-1.14603e-06
6.98525e-07
-0.00114591
3.55279e-07
-1.44312e-06
1.82383e-07
-4.33337e-07
-1.13722e-06
1.30578e-07
7.88621e-07
-4.62862e-07
1.18944e-06
0.00114509
6.97205e-07
-0.00114493
3.50783e-07
-1.47208e-06
1.85191e-07
-4.35986e-07
-1.13415e-06
1.24878e-07
-4.57218e-07
7.86012e-07
-4.11737e-07
-4.16544e-07
0.000273972
-1.15744e-06
0.000275861
-0.000273811
1.47137e-07
1.52343e-07
7.15095e-07
3.57611e-07
0.00114555
-4.41679e-07
1.148e-06
1.77916e-07
7.86089e-07
-4.72974e-07
1.25114e-07
-1.15146e-06
6.97994e-07
-0.00114578
3.49783e-07
-1.44035e-06
1.79524e-07
-4.30532e-07
-1.13712e-06
1.30867e-07
7.88791e-07
-4.62776e-07
1.15204e-06
0.00114609
6.9814e-07
-0.00114592
3.49715e-07
-1.435e-06
1.82355e-07
-4.33468e-07
-1.13953e-06
1.30893e-07
-4.62797e-07
7.91355e-07
-0.000273786
1.46974e-07
1.4983e-07
1.48024e-06
1.44041e-06
-3.98527e-07
-4.03942e-07
0.000273788
-1.20571e-06
-1.16561e-06
0.000275667
-0.00027361
1.54352e-07
1.59831e-07
3.48089e-07
0.00114568
-4.36201e-07
1.20174e-06
1.89412e-07
7.95856e-07
-4.59671e-07
-1.13887e-06
1.32465e-07
-1.47774e-06
6.92012e-07
3.48553e-07
0.00114575
-4.36382e-07
1.19902e-06
1.89249e-07
7.95936e-07
-4.56734e-07
-1.13857e-06
1.29706e-07
0.00114608
6.74931e-07
-0.00114595
3.39561e-07
-1.47101e-06
1.93755e-07
-4.28028e-07
-1.12723e-06
1.38226e-07
-4.49718e-07
8.01115e-07
1.20304e-06
0.00114615
6.74517e-07
-0.00114603
3.40038e-07
-1.46859e-06
1.93551e-07
-4.28249e-07
-1.12687e-06
1.35476e-07
-4.46786e-07
8.01106e-07
-3.98681e-07
-4.01107e-07
0.000273769
-1.16564e-06
0.000275648
-0.000273591
1.54639e-07
1.56951e-07
3.47367e-07
0.00114669
-4.30803e-07
1.16162e-06
1.83764e-07
7.95911e-07
-4.59521e-07
-1.1386e-06
1.32772e-07
-1.4722e-06
6.9161e-07
3.48103e-07
0.00114563
-4.36237e-07
1.19362e-06
1.89457e-07
7.96034e-07
-4.56682e-07
-1.13847e-06
1.29791e-07
0.00114709
6.75116e-07
-0.00114696
3.38905e-07
-1.4312e-06
1.88101e-07
-4.22674e-07
-1.12694e-06
1.3855e-07
-4.49572e-07
8.01109e-07
1.19761e-06
0.00114603
6.74056e-07
-0.00114591
3.39637e-07
-1.46293e-06
1.9376e-07
-4.28143e-07
-1.12675e-06
1.35562e-07
-4.46694e-07
8.0121e-07
6.91497e-07
3.48068e-07
0.00114525
-4.33217e-07
1.19077e-06
1.86665e-07
7.87738e-07
-4.53864e-07
1.26795e-07
-1.13021e-06
6.75416e-07
-0.00114651
3.44006e-07
-1.43093e-06
1.88163e-07
-4.22434e-07
-1.12161e-06
1.38214e-07
7.95529e-07
-4.49582e-07
1.19478e-06
0.00114565
6.74085e-07
-0.00114553
3.39544e-07
-1.45988e-06
1.9092e-07
-4.25136e-07
-1.11853e-06
1.32556e-07
-4.43918e-07
7.92934e-07
-3.9878e-07
-4.03689e-07
0.000273754
-1.16285e-06
0.000275622
-0.000273576
1.54637e-07
1.59805e-07
6.92359e-07
3.46958e-07
0.00114624
-4.30707e-07
1.15337e-06
1.83823e-07
7.93125e-07
-4.5939e-07
1.32844e-07
-1.13558e-06
6.74806e-07
-0.00114638
3.38429e-07
-1.42808e-06
1.85353e-07
-4.19637e-07
-1.12149e-06
1.38499e-07
7.95729e-07
-4.49435e-07
1.15741e-06
0.00114664
6.74881e-07
-0.00114652
3.38524e-07
-1.42279e-06
1.88134e-07
-4.22563e-07
-1.12391e-06
1.38558e-07
-4.49429e-07
7.98269e-07
-0.000273551
1.54416e-07
1.57282e-07
1.46795e-06
1.42814e-06
-3.85949e-07
-3.91367e-07
0.000273548
-1.21101e-06
-1.17094e-06
0.000275411
-0.000273358
1.6147e-07
1.66941e-07
3.36719e-07
0.00114619
-4.25344e-07
1.20705e-06
1.9518e-07
8.02663e-07
-4.46449e-07
-1.12334e-06
1.4009e-07
-1.46546e-06
6.68606e-07
3.37203e-07
0.00114626
-4.25557e-07
1.20433e-06
1.94973e-07
8.02799e-07
-4.43528e-07
-1.123e-06
1.37339e-07
0.00114647
6.5112e-07
-0.00114638
3.27711e-07
-1.45865e-06
1.99386e-07
-4.17412e-07
-1.11204e-06
1.45742e-07
-4.36727e-07
8.0778e-07
1.20822e-06
0.00114654
6.50739e-07
-0.00114646
3.2821e-07
-1.45623e-06
1.99272e-07
-4.17573e-07
-1.11163e-06
1.42978e-07
-4.33872e-07
8.0786e-07
-3.86101e-07
-3.88544e-07
0.000273529
-1.17084e-06
0.000275393
-0.000273339
1.61652e-07
1.63996e-07
3.35984e-07
0.0011472
-4.19967e-07
1.16696e-06
1.89541e-07
8.0284e-07
-4.46314e-07
-1.12309e-06
1.40388e-07
-1.45988e-06
6.68081e-07
3.36735e-07
0.00114614
-4.25427e-07
1.19895e-06
1.95198e-07
8.02939e-07
-4.43447e-07
-1.12295e-06
1.37448e-07
0.00114748
6.51306e-07
-0.00114739
3.27066e-07
-1.41886e-06
1.93772e-07
-4.1204e-07
-1.11175e-06
1.46042e-07
-4.36579e-07
8.07768e-07
1.20288e-06
0.00114642
6.5018e-07
-0.00114634
3.27805e-07
-1.4506e-06
1.99404e-07
-4.17536e-07
-1.11154e-06
1.43105e-07
-4.3374e-07
8.07901e-07
6.68148e-07
3.3676e-07
0.00114576
-4.2243e-07
1.19608e-06
1.92386e-07
7.9466e-07
-4.40653e-07
1.34441e-07
-1.11472e-06
6.51619e-07
-0.00114694
3.32349e-07
-1.41858e-06
1.93834e-07
-4.11836e-07
-1.10645e-06
1.45767e-07
8.02236e-07
-4.36598e-07
1.19998e-06
0.00114604
6.50255e-07
-0.00114595
3.27832e-07
-1.44756e-06
1.96551e-07
-4.14516e-07
-1.10339e-06
1.40145e-07
-4.30952e-07
7.99699e-07
-3.86185e-07
-3.91098e-07
0.000273515
-1.1682e-06
0.000275367
-0.000273325
1.61805e-07
1.66846e-07
6.68866e-07
3.35695e-07
0.00114675
-4.19864e-07
1.15872e-06
1.89595e-07
7.99909e-07
-4.46153e-07
1.40452e-07
-1.11994e-06
6.51077e-07
-0.00114681
3.2646e-07
-1.41571e-06
1.91079e-07
-4.0898e-07
-1.10629e-06
1.4601e-07
8.023e-07
-4.36549e-07
1.16271e-06
0.00114703
6.51121e-07
-0.00114695
3.26748e-07
-1.41043e-06
1.93806e-07
-4.11922e-07
-1.10863e-06
1.46046e-07
-4.3655e-07
8.04962e-07
-0.0002733
1.61519e-07
1.64311e-07
1.45554e-06
1.41573e-06
-3.73757e-07
-3.79169e-07
0.000273293
-1.21623e-06
-1.17623e-06
0.000275146
-0.000273095
1.68251e-07
1.73676e-07
3.24668e-07
0.00114654
-4.14815e-07
1.21233e-06
2.00763e-07
8.09385e-07
-4.3357e-07
-1.10817e-06
1.47575e-07
-1.45311e-06
6.44708e-07
3.25167e-07
0.00114661
-4.14949e-07
1.20957e-06
2.00659e-07
8.09389e-07
-4.30681e-07
-1.10796e-06
1.44809e-07
0.0011467
6.26709e-07
-0.00114666
3.20818e-07