/*--------------------------------*- C++ -*----------------------------------*\
| =========                 |                                                 |
| \\      /  F ield         | OpenFOAM: The Open Source CFD Toolbox           |
|  \\    /   O peration     | Version:                                        |
|   \\  /    A nd           | Website:  www.openfoam.com                      |
|    \\/     M anipulation  |                                                 |
\*---------------------------------------------------------------------------*/
FoamFile
{
    version     2.0;
    format      ascii;
    class       volScalarField;
    location    "850.5";
    object      p;
}
// * * * * * * * * * * * * * * * * * * * * * * * * * * * * * * * * * * * * * //

dimensions      [0 2 -2 0 0 0 0];


internalField   nonuniform List<scalar> 
247096
(
3.55722e-07
3.55732e-07
3.55772e-07
3.55807e-07
3.55817e-07
3.55803e-07
3.55766e-07
3.55723e-07
3.55732e-07
3.55795e-07
3.55844e-07
3.55845e-07
3.55841e-07
3.55846e-07
3.55841e-07
3.55784e-07
3.55772e-07
3.55844e-07
3.55832e-07
3.55796e-07
3.55782e-07
3.558e-07
3.55835e-07
3.5584e-07
3.55761e-07
3.55807e-07
3.55845e-07
3.55796e-07
3.55741e-07
3.55721e-07
3.55746e-07
3.55803e-07
3.55846e-07
3.55792e-07
3.55722e-07
3.55817e-07
3.55841e-07
3.55782e-07
3.55721e-07
3.55699e-07
3.55727e-07
3.55789e-07
3.55843e-07
3.55802e-07
3.55803e-07
3.55846e-07
3.558e-07
3.55746e-07
3.55727e-07
3.55751e-07
3.55806e-07
3.55846e-07
3.55788e-07
3.55766e-07
3.55841e-07
3.55835e-07
3.55803e-07
3.55789e-07
3.55807e-07
3.55838e-07
3.55835e-07
3.55757e-07
3.55723e-07
3.55784e-07
3.5584e-07
3.55846e-07
3.55843e-07
3.55846e-07
3.55835e-07
3.55773e-07
3.55761e-07
3.55792e-07
3.55802e-07
3.55788e-07
3.55757e-07
3.51326e-07
3.51297e-07
3.51272e-07
3.51041e-07
3.51028e-07
3.51036e-07
3.51035e-07
3.51306e-07
3.51258e-07
3.51272e-07
3.51002e-07
3.50578e-07
3.50565e-07
3.50565e-07
3.50578e-07
3.51069e-07
3.51083e-07
3.51041e-07
3.50579e-07
3.50549e-07
3.50548e-07
3.50548e-07
3.50549e-07
3.50578e-07
3.5118e-07
3.51326e-07
3.51326e-07
3.51028e-07
3.50565e-07
3.50548e-07
3.50547e-07
3.50547e-07
3.50548e-07
3.50565e-07
3.51176e-07
3.51322e-07
3.51297e-07
3.51035e-07
3.50565e-07
3.50548e-07
3.50547e-07
3.50547e-07
3.50548e-07
3.50565e-07
3.51169e-07
3.51112e-07
3.51035e-07
3.50578e-07
3.50549e-07
3.50548e-07
3.50548e-07
3.50549e-07
3.50578e-07
3.51181e-07
3.51334e-07
3.51306e-07
3.51069e-07
3.50578e-07
3.50565e-07
3.50565e-07
3.50578e-07
3.51126e-07
3.51135e-07
3.51326e-07
3.51258e-07
3.51083e-07
3.5118e-07
3.51176e-07
3.51169e-07
3.51181e-07
3.51135e-07
3.51323e-07
3.51326e-07
3.51322e-07
3.51112e-07
3.51334e-07
3.51326e-07
3.47573e-07
3.47576e-07
3.47562e-07
3.47309e-07
3.47294e-07
3.47303e-07
3.47302e-07
3.47584e-07
3.47548e-07
3.47562e-07
3.47264e-07
3.46764e-07
3.46768e-07
3.46768e-07
3.46764e-07
3.47313e-07
3.47353e-07
3.47309e-07
3.46764e-07
3.46778e-07
3.46777e-07
3.46777e-07
3.46778e-07
3.46764e-07
3.47425e-07
3.47602e-07
3.47573e-07
3.47294e-07
3.46768e-07
3.46777e-07
3.46778e-07
3.46778e-07
3.46777e-07
3.46768e-07
3.4742e-07
3.47575e-07
3.47576e-07
3.47303e-07
3.46768e-07
3.46777e-07
3.46778e-07
3.46778e-07
3.46777e-07
3.46768e-07
3.47412e-07
3.47384e-07
3.47302e-07
3.46764e-07
3.46778e-07
3.46777e-07
3.46777e-07
3.46778e-07
3.46764e-07
3.47424e-07
3.47586e-07
3.47584e-07
3.47313e-07
3.46764e-07
3.46768e-07
3.46768e-07
3.46764e-07
3.47349e-07
3.4739e-07
3.4761e-07
3.47548e-07
3.47353e-07
3.47425e-07
3.4742e-07
3.47412e-07
3.47424e-07
3.4739e-07
3.47597e-07
3.47602e-07
3.47575e-07
3.47384e-07
3.47586e-07
3.4761e-07
3.43812e-07
3.43816e-07
3.43801e-07
3.43547e-07
3.43533e-07
3.43542e-07
3.43541e-07
3.43823e-07
3.43787e-07
3.43801e-07
3.43502e-07
3.43e-07
3.43003e-07
3.43003e-07
3.43e-07
3.43552e-07
3.43592e-07
3.43547e-07
3.43e-07
3.43017e-07
3.43012e-07
3.43012e-07
3.43017e-07
3.43e-07
3.43666e-07
3.43841e-07
3.43812e-07
3.43533e-07
3.43003e-07
3.43012e-07
3.43011e-07
3.43011e-07
3.43012e-07
3.43003e-07
3.43661e-07
3.43815e-07
3.43816e-07
3.43542e-07
3.43003e-07
3.43012e-07
3.43011e-07
3.43011e-07
3.43012e-07
3.43003e-07
3.43653e-07
3.43623e-07
3.43541e-07
3.43e-07
3.43017e-07
3.43012e-07
3.43012e-07
3.43017e-07
3.43e-07
3.43665e-07
3.43826e-07
3.43823e-07
3.43552e-07
3.43e-07
3.43003e-07
3.43003e-07
3.43e-07
3.43589e-07
3.4363e-07
3.43849e-07
3.43787e-07
3.43592e-07
3.43666e-07
3.43661e-07
3.43653e-07
3.43665e-07
3.4363e-07
3.43837e-07
3.43841e-07
3.43815e-07
3.43623e-07
3.43826e-07
3.43849e-07
3.40049e-07
3.40052e-07
3.40038e-07
3.39784e-07
3.39769e-07
3.39778e-07
3.39777e-07
3.4006e-07
3.40023e-07
3.40037e-07
3.39738e-07
3.39235e-07
3.39238e-07
3.39238e-07
3.39235e-07
3.39788e-07
3.39828e-07
3.39784e-07
3.39235e-07
3.39255e-07
3.39247e-07
3.39247e-07
3.39255e-07
3.39235e-07
3.39903e-07
3.40077e-07
3.40049e-07
3.39769e-07
3.39238e-07
3.39247e-07
3.39245e-07
3.39245e-07
3.39247e-07
3.39238e-07
3.39897e-07
3.40051e-07
3.40052e-07
3.39778e-07
3.39238e-07
3.39247e-07
3.39245e-07
3.39245e-07
3.39247e-07
3.39238e-07
3.39889e-07
3.3986e-07
3.39777e-07
3.39235e-07
3.39255e-07
3.39247e-07
3.39247e-07
3.39255e-07
3.39235e-07
3.39902e-07
3.40063e-07
3.4006e-07
3.39788e-07
3.39235e-07
3.39238e-07
3.39238e-07
3.39235e-07
3.39825e-07
3.39867e-07
3.40085e-07
3.40023e-07
3.39828e-07
3.39903e-07
3.39897e-07
3.39889e-07
3.39902e-07
3.39867e-07
3.40074e-07
3.40077e-07
3.40051e-07
3.3986e-07
3.40063e-07
3.40085e-07
3.36285e-07
3.36289e-07
3.36274e-07
3.3602e-07
3.36006e-07
3.36014e-07
3.36013e-07
3.36297e-07
3.3626e-07
3.36274e-07
3.35975e-07
3.35471e-07
3.35474e-07
3.35474e-07
3.35471e-07
3.36024e-07
3.36065e-07
3.3602e-07
3.35471e-07
3.35491e-07
3.35483e-07
3.35483e-07
3.35491e-07
3.35471e-07
3.36139e-07
3.36314e-07
3.36285e-07
3.36006e-07
3.35474e-07
3.35483e-07
3.35479e-07
3.35479e-07
3.35483e-07
3.35474e-07
3.36134e-07
3.36288e-07
3.36289e-07
3.36014e-07
3.35474e-07
3.35483e-07
3.35479e-07
3.35479e-07
3.35483e-07
3.35474e-07
3.36126e-07
3.36096e-07
3.36013e-07
3.35471e-07
3.35491e-07
3.35483e-07
3.35483e-07
3.35491e-07
3.35471e-07
3.36139e-07
3.363e-07
3.36296e-07
3.36024e-07
3.35471e-07
3.35474e-07
3.35474e-07
3.35471e-07
3.36062e-07
3.36103e-07
3.36322e-07
3.3626e-07
3.36065e-07
3.36139e-07
3.36134e-07
3.36126e-07
3.36139e-07
3.36103e-07
3.3631e-07
3.36314e-07
3.36288e-07
3.36096e-07
3.36299e-07
3.36322e-07
3.32522e-07
3.32525e-07
3.3251e-07
3.32256e-07
3.32242e-07
3.32251e-07
3.3225e-07
3.32533e-07
3.32496e-07
3.3251e-07
3.32211e-07
3.31708e-07
3.3171e-07
3.3171e-07
3.31708e-07
3.32261e-07
3.32301e-07
3.32256e-07
3.31708e-07
3.31727e-07
3.3172e-07
3.3172e-07
3.31727e-07
3.31708e-07
3.32376e-07
3.3255e-07
3.32522e-07
3.32242e-07
3.3171e-07
3.3172e-07
3.31715e-07
3.31715e-07
3.3172e-07
3.3171e-07
3.3237e-07
3.32524e-07
3.32525e-07
3.32251e-07
3.3171e-07
3.3172e-07
3.31715e-07
3.31715e-07
3.3172e-07
3.3171e-07
3.32362e-07
3.32332e-07
3.3225e-07
3.31708e-07
3.31727e-07
3.3172e-07
3.3172e-07
3.31727e-07
3.31708e-07
3.32375e-07
3.32536e-07
3.32533e-07
3.3226e-07
3.31708e-07
3.3171e-07
3.3171e-07
3.31708e-07
3.32298e-07
3.32339e-07
3.32558e-07
3.32496e-07
3.32301e-07
3.32376e-07
3.3237e-07
3.32362e-07
3.32375e-07
3.32339e-07
3.32546e-07
3.3255e-07
3.32524e-07
3.32332e-07
3.32536e-07
3.32558e-07
3.28758e-07
3.28762e-07
3.28747e-07
3.28493e-07
3.28478e-07
3.28487e-07
3.28486e-07
3.28769e-07
3.28733e-07
3.28746e-07
3.28447e-07
3.27944e-07
3.27946e-07
3.27946e-07
3.27944e-07
3.28497e-07
3.28537e-07
3.28493e-07
3.27944e-07
3.27963e-07
3.27956e-07
3.27956e-07
3.27963e-07
3.27944e-07
3.28612e-07
3.28786e-07
3.28758e-07
3.28478e-07
3.27946e-07
3.27956e-07
3.27951e-07
3.27951e-07
3.27956e-07
3.27946e-07
3.28606e-07
3.2876e-07
3.28761e-07
3.28487e-07
3.27946e-07
3.27956e-07
3.27951e-07
3.27951e-07
3.27956e-07
3.27946e-07
3.28598e-07
3.28569e-07
3.28486e-07
3.27944e-07
3.27963e-07
3.27956e-07
3.27956e-07
3.27963e-07
3.27944e-07
3.28611e-07
3.28772e-07
3.28769e-07
3.28497e-07
3.27944e-07
3.27946e-07
3.27946e-07
3.27944e-07
3.28534e-07
3.28576e-07
3.28794e-07
3.28732e-07
3.28537e-07
3.28612e-07
3.28606e-07
3.28598e-07
3.28611e-07
3.28576e-07
3.28783e-07
3.28786e-07
3.2876e-07
3.28569e-07
3.28772e-07
3.28794e-07
3.24994e-07
3.24998e-07
3.24983e-07
3.24729e-07
3.24715e-07
3.24723e-07
3.24722e-07
3.25005e-07
3.24969e-07
3.24983e-07
3.24684e-07
3.2418e-07
3.24183e-07
3.24183e-07
3.2418e-07
3.24733e-07
3.24774e-07
3.24729e-07
3.2418e-07
3.242e-07
3.24192e-07
3.24192e-07
3.242e-07
3.2418e-07
3.24848e-07
3.25023e-07
3.24994e-07
3.24714e-07
3.24183e-07
3.24192e-07
3.24188e-07
3.24188e-07
3.24192e-07
3.24183e-07
3.24843e-07
3.24997e-07
3.24998e-07
3.24723e-07
3.24183e-07
3.24192e-07
3.24188e-07
3.24188e-07
3.24192e-07
3.24183e-07
3.24835e-07
3.24805e-07
3.24722e-07
3.2418e-07
3.242e-07
3.24192e-07
3.24192e-07
3.242e-07
3.2418e-07
3.24847e-07
3.25008e-07
3.25005e-07
3.24733e-07
3.2418e-07
3.24183e-07
3.24183e-07
3.2418e-07
3.24771e-07
3.24812e-07
3.25031e-07
3.24969e-07
3.24773e-07
3.24848e-07
3.24843e-07
3.24835e-07
3.24847e-07
3.24812e-07
3.25019e-07
3.25023e-07
3.24997e-07
3.24805e-07
3.25008e-07
3.25031e-07
3.21231e-07
3.21234e-07
3.21219e-07
3.20965e-07
3.20951e-07
3.2096e-07
3.20958e-07
3.21242e-07
3.21205e-07
3.21219e-07
3.2092e-07
3.20416e-07
3.20419e-07
3.20419e-07
3.20416e-07
3.20969e-07
3.2101e-07
3.20965e-07
3.20416e-07
3.20436e-07
3.20428e-07
3.20428e-07
3.20436e-07
3.20416e-07
3.21084e-07
3.21259e-07
3.2123e-07
3.20951e-07
3.20419e-07
3.20428e-07
3.20424e-07
3.20424e-07
3.20428e-07
3.20419e-07
3.21079e-07
3.21233e-07
3.21234e-07
3.20959e-07
3.20419e-07
3.20428e-07
3.20424e-07
3.20424e-07
3.20428e-07
3.20419e-07
3.21071e-07
3.21041e-07
3.20958e-07
3.20416e-07
3.20436e-07
3.20428e-07
3.20428e-07
3.20436e-07
3.20416e-07
3.21084e-07
3.21245e-07
3.21242e-07
3.20969e-07
3.20416e-07
3.20419e-07
3.20419e-07
3.20416e-07
3.21007e-07
3.21048e-07
3.21267e-07
3.21205e-07
3.2101e-07
3.21084e-07
3.21079e-07
3.21071e-07
3.21084e-07
3.21048e-07
3.21255e-07
3.21259e-07
3.21233e-07
3.21041e-07
3.21245e-07
3.21267e-07
3.17467e-07
3.1747e-07
3.17455e-07
3.17201e-07
3.17187e-07
3.17196e-07
3.17195e-07
3.17478e-07
3.17441e-07
3.17455e-07
3.17156e-07
3.16653e-07
3.16655e-07
3.16655e-07
3.16653e-07
3.17206e-07
3.17246e-07
3.17201e-07
3.16653e-07
3.16672e-07
3.16665e-07
3.16664e-07
3.16672e-07
3.16653e-07
3.17321e-07
3.17495e-07
3.17467e-07
3.17187e-07
3.16655e-07
3.16664e-07
3.1666e-07
3.1666e-07
3.16665e-07
3.16655e-07
3.17315e-07
3.17469e-07
3.1747e-07
3.17196e-07
3.16655e-07
3.16664e-07
3.1666e-07
3.1666e-07
3.16665e-07
3.16655e-07
3.17307e-07
3.17278e-07
3.17195e-07
3.16653e-07
3.16672e-07
3.16664e-07
3.16664e-07
3.16672e-07
3.16653e-07
3.1732e-07
3.17481e-07
3.17478e-07
3.17206e-07
3.16653e-07
3.16655e-07
3.16655e-07
3.16653e-07
3.17243e-07
3.17285e-07
3.17503e-07
3.17441e-07
3.17246e-07
3.17321e-07
3.17315e-07
3.17307e-07
3.1732e-07
3.17285e-07
3.17491e-07
3.17495e-07
3.17469e-07
3.17277e-07
3.17481e-07
3.17503e-07
3.13703e-07
3.13707e-07
3.13692e-07
3.13438e-07
3.13423e-07
3.13432e-07
3.13431e-07
3.13714e-07
3.13678e-07
3.13692e-07
3.13392e-07
3.12889e-07
3.12891e-07
3.12891e-07
3.12889e-07
3.13442e-07
3.13482e-07
3.13438e-07
3.12889e-07
3.12908e-07
3.12901e-07
3.12901e-07
3.12908e-07
3.12889e-07
3.13557e-07
3.13731e-07
3.13703e-07
3.13423e-07
3.12891e-07
3.12901e-07
3.12896e-07
3.12896e-07
3.12901e-07
3.12891e-07
3.13551e-07
3.13705e-07
3.13706e-07
3.13432e-07
3.12891e-07
3.12901e-07
3.12896e-07
3.12896e-07
3.12901e-07
3.12891e-07
3.13543e-07
3.13514e-07
3.13431e-07
3.12889e-07
3.12908e-07
3.12901e-07
3.12901e-07
3.12908e-07
3.12889e-07
3.13556e-07
3.13717e-07
3.13714e-07
3.13442e-07
3.12889e-07
3.12891e-07
3.12891e-07
3.12889e-07
3.13479e-07
3.13521e-07
3.13739e-07
3.13677e-07
3.13482e-07
3.13557e-07
3.13551e-07
3.13543e-07
3.13556e-07
3.13521e-07
3.13728e-07
3.13731e-07
3.13705e-07
3.13514e-07
3.13717e-07
3.13739e-07
3.09939e-07
3.09943e-07
3.09928e-07
3.09674e-07
3.0966e-07
3.09668e-07
3.09667e-07
3.0995e-07
3.09914e-07
3.09928e-07
3.09629e-07
3.09125e-07
3.09128e-07
3.09128e-07
3.09125e-07
3.09678e-07
3.09719e-07
3.09674e-07
3.09125e-07
3.09145e-07
3.09137e-07
3.09137e-07
3.09145e-07
3.09125e-07
3.09793e-07
3.09968e-07
3.09939e-07
3.0966e-07
3.09128e-07
3.09137e-07
3.09133e-07
3.09133e-07
3.09137e-07
3.09128e-07
3.09788e-07
3.09942e-07
3.09943e-07
3.09668e-07
3.09128e-07
3.09137e-07
3.09133e-07
3.09133e-07
3.09137e-07
3.09128e-07
3.0978e-07
3.0975e-07
3.09667e-07
3.09125e-07
3.09145e-07
3.09137e-07
3.09137e-07
3.09145e-07
3.09125e-07
3.09793e-07
3.09954e-07
3.0995e-07
3.09678e-07
3.09125e-07
3.09128e-07
3.09128e-07
3.09125e-07
3.09716e-07
3.09757e-07
3.09976e-07
3.09914e-07
3.09719e-07
3.09793e-07
3.09788e-07
3.0978e-07
3.09792e-07
3.09757e-07
3.09964e-07
3.09968e-07
3.09942e-07
3.0975e-07
3.09953e-07
3.09976e-07
3.06176e-07
3.06179e-07
3.06164e-07
3.0591e-07
3.05896e-07
3.05905e-07
3.05903e-07
3.06187e-07
3.0615e-07
3.06164e-07
3.05865e-07
3.05361e-07
3.05364e-07
3.05364e-07
3.05361e-07
3.05914e-07
3.05955e-07
3.0591e-07
3.05361e-07
3.05381e-07
3.05373e-07
3.05373e-07
3.05381e-07
3.05361e-07
3.0603e-07
3.06204e-07
3.06176e-07
3.05896e-07
3.05364e-07
3.05373e-07
3.05369e-07
3.05369e-07
3.05373e-07
3.05364e-07
3.06024e-07
3.06178e-07
3.06179e-07
3.05905e-07
3.05364e-07
3.05373e-07
3.05369e-07
3.05369e-07
3.05373e-07
3.05364e-07
3.06016e-07
3.05986e-07
3.05903e-07
3.05361e-07
3.05381e-07
3.05373e-07
3.05373e-07
3.05381e-07
3.05361e-07
3.06029e-07
3.0619e-07
3.06187e-07
3.05914e-07
3.05361e-07
3.05364e-07
3.05364e-07
3.05361e-07
3.05952e-07
3.05993e-07
3.06212e-07
3.0615e-07
3.05955e-07
3.0603e-07
3.06024e-07
3.06016e-07
3.06029e-07
3.05993e-07
3.062e-07
3.06204e-07
3.06178e-07
3.05986e-07
3.0619e-07
3.06212e-07
3.02412e-07
3.02415e-07
3.024e-07
3.02147e-07
3.02132e-07
3.02141e-07
3.0214e-07
3.02423e-07
3.02386e-07
3.024e-07
3.02101e-07
3.01598e-07
3.016e-07
3.016e-07
3.01598e-07
3.02151e-07
3.02191e-07
3.02146e-07
3.01598e-07
3.01617e-07
3.0161e-07
3.0161e-07
3.01617e-07
3.01598e-07
3.02266e-07
3.0244e-07
3.02412e-07
3.02132e-07
3.016e-07
3.0161e-07
3.01605e-07
3.01605e-07
3.0161e-07
3.016e-07
3.0226e-07
3.02414e-07
3.02415e-07
3.02141e-07
3.016e-07
3.0161e-07
3.01605e-07
3.01605e-07
3.0161e-07
3.016e-07
3.02252e-07
3.02223e-07
3.0214e-07
3.01598e-07
3.01617e-07
3.0161e-07
3.0161e-07
3.01617e-07
3.01598e-07
3.02265e-07
3.02426e-07
3.02423e-07
3.02151e-07
3.01598e-07
3.016e-07
3.016e-07
3.01598e-07
3.02188e-07
3.0223e-07
3.02448e-07
3.02386e-07
3.02191e-07
3.02266e-07
3.0226e-07
3.02252e-07
3.02265e-07
3.0223e-07
3.02437e-07
3.0244e-07
3.02414e-07
3.02223e-07
3.02426e-07
3.02448e-07
2.98648e-07
2.98652e-07
2.98637e-07
2.98383e-07
2.98368e-07
2.98377e-07
2.98376e-07
2.98659e-07
2.98623e-07
2.98637e-07
2.98338e-07
2.97834e-07
2.97837e-07
2.97837e-07
2.97834e-07
2.98387e-07
2.98427e-07
2.98383e-07
2.97834e-07
2.97853e-07
2.97846e-07
2.97846e-07
2.97853e-07
2.97834e-07
2.98502e-07
2.98677e-07
2.98648e-07
2.98368e-07
2.97837e-07
2.97846e-07
2.97842e-07
2.97842e-07
2.97846e-07
2.97837e-07
2.98497e-07
2.98651e-07
2.98652e-07
2.98377e-07
2.97836e-07
2.97846e-07
2.97842e-07
2.97842e-07
2.97846e-07
2.97837e-07
2.98489e-07
2.98459e-07
2.98376e-07
2.97834e-07
2.97853e-07
2.97846e-07
2.97846e-07
2.97853e-07
2.97834e-07
2.98501e-07
2.98662e-07
2.98659e-07
2.98387e-07
2.97834e-07
2.97836e-07
2.97836e-07
2.97834e-07
2.98424e-07
2.98466e-07
2.98685e-07
2.98623e-07
2.98427e-07
2.98502e-07
2.98496e-07
2.98489e-07
2.98501e-07
2.98466e-07
2.98673e-07
2.98677e-07
2.98651e-07
2.98459e-07
2.98662e-07
2.98685e-07
2.94884e-07
2.94888e-07
2.94873e-07
2.94619e-07
2.94605e-07
2.94613e-07
2.94612e-07
2.94896e-07
2.94859e-07
2.94873e-07
2.94574e-07
2.9407e-07
2.94073e-07
2.94073e-07
2.9407e-07
2.94623e-07
2.94664e-07
2.94619e-07
2.9407e-07
2.9409e-07
2.94082e-07
2.94082e-07
2.9409e-07
2.9407e-07
2.94738e-07
2.94913e-07
2.94884e-07
2.94605e-07
2.94073e-07
2.94082e-07
2.94078e-07
2.94078e-07
2.94082e-07
2.94073e-07
2.94733e-07
2.94887e-07
2.94888e-07
2.94613e-07
2.94073e-07
2.94082e-07
2.94078e-07
2.94078e-07
2.94082e-07
2.94073e-07
2.94725e-07
2.94695e-07
2.94612e-07
2.9407e-07
2.9409e-07
2.94082e-07
2.94082e-07
2.9409e-07
2.9407e-07
2.94738e-07
2.94899e-07
2.94896e-07
2.94623e-07
2.9407e-07
2.94073e-07
2.94073e-07
2.9407e-07
2.94661e-07
2.94702e-07
2.94921e-07
2.94859e-07
2.94664e-07
2.94738e-07
2.94733e-07
2.94725e-07
2.94738e-07
2.94702e-07
2.94909e-07
2.94913e-07
2.94887e-07
2.94695e-07
2.94899e-07
2.94921e-07
2.91121e-07
2.91124e-07
2.91109e-07
2.90855e-07
2.90841e-07
2.9085e-07
2.90849e-07
2.91132e-07
2.91095e-07
2.91109e-07
2.9081e-07
2.90307e-07
2.90309e-07
2.90309e-07
2.90306e-07
2.90859e-07
2.909e-07
2.90855e-07
2.90306e-07
2.90326e-07
2.90318e-07
2.90318e-07
2.90326e-07
2.90306e-07
2.90975e-07
2.91149e-07
2.91121e-07
2.90841e-07
2.90309e-07
2.90318e-07
2.90314e-07
2.90314e-07
2.90318e-07
2.90309e-07
2.90969e-07
2.91123e-07
2.91124e-07
2.9085e-07
2.90309e-07
2.90318e-07
2.90314e-07
2.90314e-07
2.90318e-07
2.90309e-07
2.90961e-07
2.90931e-07
2.90848e-07
2.90306e-07
2.90326e-07
2.90318e-07
2.90318e-07
2.90326e-07
2.90306e-07
2.90974e-07
2.91135e-07
2.91132e-07
2.90859e-07
2.90306e-07
2.90309e-07
2.90309e-07
2.90306e-07
2.90897e-07
2.90938e-07
2.91157e-07
2.91095e-07
2.909e-07
2.90975e-07
2.90969e-07
2.90961e-07
2.90974e-07
2.90938e-07
2.91145e-07
2.91149e-07
2.91123e-07
2.90931e-07
2.91135e-07
2.91157e-07
2.87357e-07
2.8736e-07
2.87345e-07
2.87092e-07
2.87077e-07
2.87086e-07
2.87085e-07
2.87368e-07
2.87331e-07
2.87345e-07
2.87046e-07
2.86543e-07
2.86545e-07
2.86545e-07
2.86543e-07
2.87096e-07
2.87136e-07
2.87092e-07
2.86543e-07
2.86562e-07
2.86555e-07
2.86555e-07
2.86562e-07
2.86543e-07
2.87211e-07
2.87385e-07
2.87357e-07
2.87077e-07
2.86545e-07
2.86555e-07
2.8655e-07
2.8655e-07
2.86555e-07
2.86545e-07
2.87205e-07
2.87359e-07
2.8736e-07
2.87086e-07
2.86545e-07
2.86555e-07
2.8655e-07
2.8655e-07
2.86555e-07
2.86545e-07
2.87197e-07
2.87168e-07
2.87085e-07
2.86543e-07
2.86562e-07
2.86555e-07
2.86555e-07
2.86562e-07
2.86543e-07
2.8721e-07
2.87371e-07
2.87368e-07
2.87096e-07
2.86543e-07
2.86545e-07
2.86545e-07
2.86543e-07
2.87133e-07
2.87175e-07
2.87393e-07
2.87331e-07
2.87136e-07
2.87211e-07
2.87205e-07
2.87197e-07
2.8721e-07
2.87175e-07
2.87382e-07
2.87385e-07
2.87359e-07
2.87168e-07
2.87371e-07
2.87393e-07
2.83593e-07
2.83597e-07
2.83582e-07
2.83328e-07
2.83314e-07
2.83322e-07
2.83321e-07
2.83604e-07
2.83568e-07
2.83582e-07
2.83283e-07
2.82779e-07
2.82782e-07
2.82782e-07
2.82779e-07
2.83332e-07
2.83373e-07
2.83328e-07
2.82779e-07
2.82799e-07
2.82791e-07
2.82791e-07
2.82799e-07
2.82779e-07
2.83447e-07
2.83622e-07
2.83593e-07
2.83313e-07
2.82782e-07
2.82791e-07
2.82787e-07
2.82787e-07
2.82791e-07
2.82782e-07
2.83442e-07
2.83596e-07
2.83597e-07
2.83322e-07
2.82782e-07
2.82791e-07
2.82787e-07
2.82787e-07
2.82791e-07
2.82782e-07
2.83434e-07
2.83404e-07
2.83321e-07
2.82779e-07
2.82798e-07
2.82791e-07
2.82791e-07
2.82798e-07
2.82779e-07
2.83446e-07
2.83607e-07
2.83604e-07
2.83332e-07
2.82779e-07
2.82782e-07
2.82782e-07
2.82779e-07
2.8337e-07
2.83411e-07
2.8363e-07
2.83568e-07
2.83372e-07
2.83447e-07
2.83442e-07
2.83434e-07
2.83446e-07
2.83411e-07
2.83618e-07
2.83622e-07
2.83596e-07
2.83404e-07
2.83607e-07
2.8363e-07
2.7983e-07
2.79833e-07
2.79818e-07
2.79564e-07
2.7955e-07
2.79559e-07
2.79557e-07
2.79841e-07
2.79804e-07
2.79818e-07
2.79519e-07
2.79015e-07
2.79018e-07
2.79018e-07
2.79015e-07
2.79568e-07
2.79609e-07
2.79564e-07
2.79015e-07
2.79035e-07
2.79027e-07
2.79027e-07
2.79035e-07
2.79015e-07
2.79684e-07
2.79858e-07
2.7983e-07
2.7955e-07
2.79018e-07
2.79027e-07
2.79023e-07
2.79023e-07
2.79027e-07
2.79018e-07
2.79678e-07
2.79832e-07
2.79833e-07
2.79559e-07
2.79018e-07
2.79027e-07
2.79023e-07
2.79023e-07
2.79027e-07
2.79018e-07
2.7967e-07
2.7964e-07
2.79557e-07
2.79015e-07
2.79035e-07
2.79027e-07
2.79027e-07
2.79035e-07
2.79015e-07
2.79683e-07
2.79844e-07
2.79841e-07
2.79568e-07
2.79015e-07
2.79018e-07
2.79018e-07
2.79015e-07
2.79606e-07
2.79647e-07
2.79866e-07
2.79804e-07
2.79609e-07
2.79684e-07
2.79678e-07
2.7967e-07
2.79683e-07
2.79647e-07
2.79854e-07
2.79858e-07
2.79832e-07
2.7964e-07
2.79844e-07
2.79866e-07
2.76066e-07
2.76069e-07
2.76054e-07
2.758e-07
2.75786e-07
2.75795e-07
2.75794e-07
2.76077e-07
2.7604e-07
2.76054e-07
2.75755e-07
2.75252e-07
2.75254e-07
2.75254e-07
2.75252e-07
2.75805e-07
2.75845e-07
2.758e-07
2.75252e-07
2.75271e-07
2.75264e-07
2.75264e-07
2.75271e-07
2.75252e-07
2.7592e-07
2.76094e-07
2.76066e-07
2.75786e-07
2.75254e-07
2.75264e-07
2.75259e-07
2.75259e-07
2.75264e-07
2.75254e-07
2.75914e-07
2.76068e-07
2.76069e-07
2.75795e-07
2.75254e-07
2.75264e-07
2.75259e-07
2.75259e-07
2.75264e-07
2.75254e-07
2.75906e-07
2.75877e-07
2.75794e-07
2.75252e-07
2.75271e-07
2.75264e-07
2.75264e-07
2.75271e-07
2.75252e-07
2.75919e-07
2.7608e-07
2.76077e-07
2.75805e-07
2.75252e-07
2.75254e-07
2.75254e-07
2.75252e-07
2.75842e-07
2.75884e-07
2.76102e-07
2.7604e-07
2.75845e-07
2.7592e-07
2.75914e-07
2.75906e-07
2.75919e-07
2.75884e-07
2.76091e-07
2.76094e-07
2.76068e-07
2.75877e-07
2.7608e-07
2.76102e-07
2.72302e-07
2.72306e-07
2.72291e-07
2.72037e-07
2.72022e-07
2.72031e-07
2.7203e-07
2.72313e-07
2.72277e-07
2.72291e-07
2.71991e-07
2.71488e-07
2.7149e-07
2.7149e-07
2.71488e-07
2.72041e-07
2.72081e-07
2.72037e-07
2.71488e-07
2.71507e-07
2.715e-07
2.715e-07
2.71507e-07
2.71488e-07
2.72156e-07
2.72331e-07
2.72302e-07
2.72022e-07
2.7149e-07
2.715e-07
2.71495e-07
2.71495e-07
2.715e-07
2.7149e-07
2.7215e-07
2.72305e-07
2.72306e-07
2.72031e-07
2.7149e-07
2.715e-07
2.71495e-07
2.71495e-07
2.715e-07
2.7149e-07
2.72143e-07
2.72113e-07
2.7203e-07
2.71488e-07
2.71507e-07
2.715e-07
2.715e-07
2.71507e-07
2.71488e-07
2.72155e-07
2.72316e-07
2.72313e-07
2.72041e-07
2.71488e-07
2.7149e-07
2.7149e-07
2.71488e-07
2.72078e-07
2.7212e-07
2.72339e-07
2.72277e-07
2.72081e-07
2.72156e-07
2.7215e-07
2.72143e-07
2.72155e-07
2.7212e-07
2.72327e-07
2.72331e-07
2.72305e-07
2.72113e-07
2.72316e-07
2.72338e-07
2.68538e-07
2.68542e-07
2.68527e-07
2.68273e-07
2.68259e-07
2.68267e-07
2.68266e-07
2.6855e-07
2.68513e-07
2.68527e-07
2.68228e-07
2.67724e-07
2.67727e-07
2.67727e-07
2.67724e-07
2.68277e-07
2.68318e-07
2.68273e-07
2.67724e-07
2.67744e-07
2.67736e-07
2.67736e-07
2.67744e-07
2.67724e-07
2.68392e-07
2.68567e-07
2.68538e-07
2.68259e-07
2.67727e-07
2.67736e-07
2.67732e-07
2.67732e-07
2.67736e-07
2.67727e-07
2.68387e-07
2.68541e-07
2.68542e-07
2.68267e-07
2.67727e-07
2.67736e-07
2.67732e-07
2.67732e-07
2.67736e-07
2.67727e-07
2.68379e-07
2.68349e-07
2.68266e-07
2.67724e-07
2.67744e-07
2.67736e-07
2.67736e-07
2.67744e-07
2.67724e-07
2.68392e-07
2.68553e-07
2.68549e-07
2.68277e-07
2.67724e-07
2.67727e-07
2.67727e-07
2.67724e-07
2.68315e-07
2.68356e-07
2.68575e-07
2.68513e-07
2.68318e-07
2.68392e-07
2.68387e-07
2.68379e-07
2.68392e-07
2.68356e-07
2.68563e-07
2.68567e-07
2.68541e-07
2.68349e-07
2.68553e-07
2.68575e-07
2.64775e-07
2.64778e-07
2.64763e-07
2.64509e-07
2.64495e-07
2.64504e-07
2.64503e-07
2.64786e-07
2.64749e-07
2.64763e-07
2.64464e-07
2.6396e-07
2.63963e-07
2.63963e-07
2.6396e-07
2.64513e-07
2.64554e-07
2.64509e-07
2.6396e-07
2.6398e-07
2.63972e-07
2.63972e-07
2.6398e-07
2.6396e-07
2.64629e-07
2.64803e-07
2.64775e-07
2.64495e-07
2.63963e-07
2.63972e-07
2.63968e-07
2.63968e-07
2.63972e-07
2.63963e-07
2.64623e-07
2.64777e-07
2.64778e-07
2.64504e-07
2.63963e-07
2.63972e-07
2.63968e-07
2.63968e-07
2.63972e-07
2.63963e-07
2.64615e-07
2.64585e-07
2.64502e-07
2.6396e-07
2.6398e-07
2.63972e-07
2.63972e-07
2.6398e-07
2.6396e-07
2.64628e-07
2.64789e-07
2.64786e-07
2.64513e-07
2.6396e-07
2.63963e-07
2.63963e-07
2.6396e-07
2.64551e-07
2.64592e-07
2.64811e-07
2.64749e-07
2.64554e-07
2.64629e-07
2.64623e-07
2.64615e-07
2.64628e-07
2.64592e-07
2.64799e-07
2.64803e-07
2.64777e-07
2.64585e-07
2.64789e-07
2.64811e-07
2.61011e-07
2.61014e-07
2.60999e-07
2.60746e-07
2.60731e-07
2.6074e-07
2.60739e-07
2.61022e-07
2.60985e-07
2.60999e-07
2.607e-07
2.60197e-07
2.60199e-07
2.60199e-07
2.60197e-07
2.6075e-07
2.6079e-07
2.60746e-07
2.60197e-07
2.60216e-07
2.60209e-07
2.60209e-07
2.60216e-07
2.60197e-07
2.60865e-07
2.61039e-07
2.61011e-07
2.60731e-07
2.60199e-07
2.60209e-07
2.60204e-07
2.60204e-07
2.60209e-07
2.60199e-07
2.60859e-07
2.61013e-07
2.61014e-07
2.6074e-07
2.60199e-07
2.60209e-07
2.60204e-07
2.60204e-07
2.60209e-07
2.60199e-07
2.60851e-07
2.60822e-07
2.60739e-07
2.60197e-07
2.60216e-07
2.60209e-07
2.60209e-07
2.60216e-07
2.60197e-07
2.60864e-07
2.61025e-07
2.61022e-07
2.6075e-07
2.60197e-07
2.60199e-07
2.60199e-07
2.60197e-07
2.60787e-07
2.60829e-07
2.61047e-07
2.60985e-07
2.6079e-07
2.60865e-07
2.60859e-07
2.60851e-07
2.60864e-07
2.60829e-07
2.61036e-07
2.61039e-07
2.61013e-07
2.60822e-07
2.61025e-07
2.61047e-07
2.57247e-07
2.57251e-07
2.57236e-07
2.56982e-07
2.56968e-07
2.56976e-07
2.56975e-07
2.57258e-07
2.57222e-07
2.57236e-07
2.56937e-07
2.56433e-07
2.56436e-07
2.56436e-07
2.56433e-07
2.56986e-07
2.57026e-07
2.56982e-07
2.56433e-07
2.56452e-07
2.56445e-07
2.56445e-07
2.56452e-07
2.56433e-07
2.57101e-07
2.57276e-07
2.57247e-07
2.56967e-07
2.56436e-07
2.56445e-07
2.56441e-07
2.56441e-07
2.56445e-07
2.56436e-07
2.57096e-07
2.5725e-07
2.57251e-07
2.56976e-07
2.56436e-07
2.56445e-07
2.56441e-07
2.56441e-07
2.56445e-07
2.56436e-07
2.57088e-07
2.57058e-07
2.56975e-07
2.56433e-07
2.56452e-07
2.56445e-07
2.56445e-07
2.56452e-07
2.56433e-07
2.571e-07
2.57261e-07
2.57258e-07
2.56986e-07
2.56433e-07
2.56436e-07
2.56436e-07
2.56433e-07
2.57023e-07
2.57065e-07
2.57284e-07
2.57222e-07
2.57026e-07
2.57101e-07
2.57096e-07
2.57088e-07
2.571e-07
2.57065e-07
2.57272e-07
2.57276e-07
2.5725e-07
2.57058e-07
2.57261e-07
2.57284e-07
2.53484e-07
2.53487e-07
2.53472e-07
2.53218e-07
2.53204e-07
2.53213e-07
2.53211e-07
2.53495e-07
2.53458e-07
2.53472e-07
2.53173e-07
2.52669e-07
2.52672e-07
2.52672e-07
2.52669e-07
2.53222e-07
2.53263e-07
2.53218e-07
2.52669e-07
2.52689e-07
2.52681e-07
2.52681e-07
2.52689e-07
2.52669e-07
2.53337e-07
2.53512e-07
2.53483e-07
2.53204e-07
2.52672e-07
2.52681e-07
2.52677e-07
2.52677e-07
2.52681e-07
2.52672e-07
2.53332e-07
2.53486e-07
2.53487e-07
2.53212e-07
2.52672e-07
2.52681e-07
2.52677e-07
2.52677e-07
2.52681e-07
2.52672e-07
2.53324e-07
2.53294e-07
2.53211e-07
2.52669e-07
2.52689e-07
2.52681e-07
2.52681e-07
2.52689e-07
2.52669e-07
2.53337e-07
2.53498e-07
2.53495e-07
2.53222e-07
2.52669e-07
2.52672e-07
2.52672e-07
2.52669e-07
2.5326e-07
2.53301e-07
2.5352e-07
2.53458e-07
2.53263e-07
2.53337e-07
2.53332e-07
2.53324e-07
2.53337e-07
2.53301e-07
2.53508e-07
2.53512e-07
2.53486e-07
2.53294e-07
2.53498e-07
2.5352e-07
2.4972e-07
2.49723e-07
2.49708e-07
2.49454e-07
2.4944e-07
2.49449e-07
2.49448e-07
2.49731e-07
2.49694e-07
2.49708e-07
2.49409e-07
2.48906e-07
2.48908e-07
2.48908e-07
2.48906e-07
2.49459e-07
2.49499e-07
2.49454e-07
2.48906e-07
2.48925e-07
2.48917e-07
2.48917e-07
2.48925e-07
2.48906e-07
2.49574e-07
2.49748e-07
2.4972e-07
2.4944e-07
2.48908e-07
2.48917e-07
2.48913e-07
2.48913e-07
2.48917e-07
2.48908e-07
2.49568e-07
2.49722e-07
2.49723e-07
2.49449e-07
2.48908e-07
2.48917e-07
2.48913e-07
2.48913e-07
2.48917e-07
2.48908e-07
2.4956e-07
2.4953e-07
2.49448e-07
2.48906e-07
2.48925e-07
2.48917e-07
2.48917e-07
2.48925e-07
2.48906e-07
2.49573e-07
2.49734e-07
2.49731e-07
2.49459e-07
2.48906e-07
2.48908e-07
2.48908e-07
2.48906e-07
2.49496e-07
2.49538e-07
2.49756e-07
2.49694e-07
2.49499e-07
2.49574e-07
2.49568e-07
2.4956e-07
2.49573e-07
2.49538e-07
2.49744e-07
2.49748e-07
2.49722e-07
2.4953e-07
2.49734e-07
2.49756e-07
2.45956e-07
2.4596e-07
2.45945e-07
2.45691e-07
2.45676e-07
2.45685e-07
2.45684e-07
2.45967e-07
2.45931e-07
2.45945e-07
2.45645e-07
2.45142e-07
2.45144e-07
2.45144e-07
2.45142e-07
2.45695e-07
2.45735e-07
2.45691e-07
2.45142e-07
2.45161e-07
2.45154e-07
2.45154e-07
2.45161e-07
2.45142e-07
2.4581e-07
2.45984e-07
2.45956e-07
2.45676e-07
2.45144e-07
2.45154e-07
2.45149e-07
2.45149e-07
2.45154e-07
2.45144e-07
2.45804e-07
2.45958e-07
2.4596e-07
2.45685e-07
2.45144e-07
2.45154e-07
2.45149e-07
2.45149e-07
2.45154e-07
2.45144e-07
2.45796e-07
2.45767e-07
2.45684e-07
2.45142e-07
2.45161e-07
2.45154e-07
2.45154e-07
2.45161e-07
2.45142e-07
2.45809e-07
2.4597e-07
2.45967e-07
2.45695e-07
2.45142e-07
2.45144e-07
2.45144e-07
2.45142e-07
2.45732e-07
2.45774e-07
2.45992e-07
2.4593e-07
2.45735e-07
2.4581e-07
2.45804e-07
2.45796e-07
2.45809e-07
2.45774e-07
2.45981e-07
2.45984e-07
2.45958e-07
2.45767e-07
2.4597e-07
2.45992e-07
2.42192e-07
2.42196e-07
2.42181e-07
2.41927e-07
2.41913e-07
2.41921e-07
2.4192e-07
2.42203e-07
2.42167e-07
2.42181e-07
2.41882e-07
2.41378e-07
2.41381e-07
2.41381e-07
2.41378e-07
2.41931e-07
2.41972e-07
2.41927e-07
2.41378e-07
2.41398e-07
2.4139e-07
2.4139e-07
2.41398e-07
2.41378e-07
2.42046e-07
2.42221e-07
2.42192e-07
2.41913e-07
2.41381e-07
2.4139e-07
2.41386e-07
2.41386e-07
2.4139e-07
2.41381e-07
2.42041e-07
2.42195e-07
2.42196e-07
2.41921e-07
2.41381e-07
2.4139e-07
2.41386e-07
2.41386e-07
2.4139e-07
2.41381e-07
2.42033e-07
2.42003e-07
2.4192e-07
2.41378e-07
2.41398e-07
2.4139e-07
2.4139e-07
2.41398e-07
2.41378e-07
2.42046e-07
2.42207e-07
2.42203e-07
2.41931e-07
2.41378e-07
2.41381e-07
2.41381e-07
2.41378e-07
2.41969e-07
2.4201e-07
2.42229e-07
2.42167e-07
2.41972e-07
2.42046e-07
2.42041e-07
2.42033e-07
2.42045e-07
2.4201e-07
2.42217e-07
2.42221e-07
2.42195e-07
2.42003e-07
2.42206e-07
2.42229e-07
2.38429e-07
2.38432e-07
2.38417e-07
2.38163e-07
2.38149e-07
2.38158e-07
2.38156e-07
2.3844e-07
2.38403e-07
2.38417e-07
2.38118e-07
2.37614e-07
2.37617e-07
2.37617e-07
2.37614e-07
2.38167e-07
2.38208e-07
2.38163e-07
2.37614e-07
2.37634e-07
2.37626e-07
2.37626e-07
2.37634e-07
2.37614e-07
2.38283e-07
2.38457e-07
2.38429e-07
2.38149e-07
2.37617e-07
2.37626e-07
2.37622e-07
2.37622e-07
2.37626e-07
2.37617e-07
2.38277e-07
2.38431e-07
2.38432e-07
2.38158e-07
2.37617e-07
2.37626e-07
2.37622e-07
2.37622e-07
2.37626e-07
2.37617e-07
2.38269e-07
2.38239e-07
2.38156e-07
2.37614e-07
2.37634e-07
2.37626e-07
2.37626e-07
2.37634e-07
2.37614e-07
2.38282e-07
2.38443e-07
2.3844e-07
2.38167e-07
2.37614e-07
2.37617e-07
2.37617e-07
2.37614e-07
2.38205e-07
2.38246e-07
2.38465e-07
2.38403e-07
2.38208e-07
2.38282e-07
2.38277e-07