/*--------------------------------*- C++ -*----------------------------------*\
| =========                 |                                                 |
| \\      /  F ield         | OpenFOAM: The Open Source CFD Toolbox           |
|  \\    /   O peration     | Version:  2312                                  |
|   \\  /    A nd           | Website:  www.openfoam.com                      |
|    \\/     M anipulation  |                                                 |
\*---------------------------------------------------------------------------*/
FoamFile
{
    version     2.0;
    format      ascii;
    arch        "LSB;label=32;scalar=64";
    class       volScalarField;
    location    "850";
    object      nut;
}
// * * * * * * * * * * * * * * * * * * * * * * * * * * * * * * * * * * * * * //

dimensions      [0 2 -1 0 0 0 0];

internalField   nonuniform List<scalar> 
43168
(
0.000208364
0.000201474
0.000201484
0.000182487
0.000182449
0.000201137
0.000201116
0.0001824
0.000201148
0.000201125
0.000201149
0.000201127
0.000182396
0.000201159
0.000201137
0.000182384
0.000182449
0.000201462
0.00020144
0.000182469
0.000201473
0.00020145
0.000201451
0.000182518
0.000201462
5.07471e-05
5.07404e-05
0.000207771
0.000207762
0.000207776
0.000207767
9.99488e-05
5.07562e-05
9.98932e-05
5.07666e-05
2.38966e-05
2.39009e-05
9.99454e-05
5.07536e-05
9.98894e-05
5.07593e-05
0.000208355
0.000208369
0.00020836
0.000144494
0.000103664
0.000211327
0.000201789
0.000144314
0.000103735
0.000211741
2.38958e-05
2.38999e-05
0.000144483
0.000211331
0.000103666
0.0002018
0.000144322
0.000211751
0.000103736
7.79291e-05
7.79234e-05
0.000182824
7.79493e-05
7.79439e-05
2.38941e-05
2.3892e-05
0.000182017
7.7907e-05
7.79003e-05
2.38985e-05
2.38943e-05
2.38965e-05
2.38923e-05
0.000181996
7.79345e-05
7.79279e-05
7.79103e-05
7.79045e-05
0.000200477
0.000103599
9.98407e-05
5.07571e-05
5.07467e-05
9.99002e-05
9.98368e-05
5.07515e-05
5.0741e-05
9.98962e-05
0.000144131
0.000200811
0.000103669
0.000210894
0.000103595
0.000210464
0.000144317
0.000144126
0.000200791
0.000103646
0.000210886
0.000103571
0.000210456
0.000144313
2.38965e-05
2.38922e-05
0.00018205
7.79142e-05
7.79321e-05
7.78886e-05
2.38978e-05
0.000200488
0.000103591
9.98361e-05
5.07499e-05
5.07437e-05
9.98968e-05
0.000144125
0.000200822
0.000103661
0.000210894
0.000103586
0.000210463
0.000144315
9.9838e-05
5.0746e-05
5.07404e-05
9.98896e-05
0.000144134
0.000200799
0.000210892
0.000103651
0.000210461
0.000103578
0.000144302
0.000103668
0.000210893
0.000144314
5.07532e-05
9.98882e-05
0.000210892
0.000103657
0.000144315
5.0747e-05
9.98936e-05
2.38955e-05
2.38914e-05
0.000182098
7.79183e-05
7.79317e-05
7.78969e-05
7.79106e-05
2.38977e-05
2.38935e-05
0.000144134
0.000200833
0.000210902
0.000103669
0.000210471
0.000103595
0.0001443
0.000144126
0.000200811
0.000210893
0.00010365
0.000210462
0.000103578
0.000144292
9.98302e-05
5.07534e-05
5.07427e-05
9.98831e-05
9.9819e-05
5.07454e-05
5.074e-05
9.98738e-05
0.000182084
7.79233e-05
7.79182e-05
7.78964e-05
2.38963e-05
2.38952e-05
2.38912e-05
2.38987e-05
2.39029e-05
2.38967e-05
2.39008e-05
7.79374e-05
7.79316e-05
0.00018286
7.79604e-05
7.79539e-05
2.39031e-05
2.39011e-05
0.000182886
7.79625e-05
7.79567e-05
9.99458e-05
5.07506e-05
9.98892e-05
5.07611e-05
0.000144499
0.000103665
0.000211325
0.000201777
0.000144318
0.000103735
0.000211743
0.000144494
0.000103641
0.000211317
0.000201756
0.000144313
0.000103712
0.000211735
9.99421e-05
5.07657e-05
9.99386e-05
5.076e-05
0.000144499
0.000202092
0.000103732
0.000212162
0.000144495
0.000202071
0.000103707
0.000212154
7.79155e-05
7.79375e-05
0.000182834
7.794e-05
7.79582e-05
2.3898e-05
2.39022e-05
2.3901e-05
0.000182889
7.79406e-05
7.7963e-05
2.39024e-05
0.000144497
0.000103656
0.000211325
0.000201788
0.000144315
0.000103728
0.000211743
9.99391e-05
5.07497e-05
9.98896e-05
5.07555e-05
0.000144485
0.000211323
0.000103648
0.000201765
0.000144323
0.000211742
0.000103717
9.99383e-05
5.07631e-05
0.000144497
0.000202104
0.000103722
0.000212163
9.99386e-05
5.07593e-05
0.000144504
0.00020208
0.000212161
0.000103714
9.99379e-05
5.07526e-05
9.98814e-05
5.07628e-05
0.000144497
0.000211323
0.000103653
0.000201766
0.000144315
0.000211741
0.000103723
9.99433e-05
5.07507e-05
9.9887e-05
5.07565e-05
0.000144495
0.000202105
0.000103729
0.000212165
9.99308e-05
5.07619e-05
0.000144497
0.000202082
0.000212161
0.000103718
9.99364e-05
5.07603e-05
7.79239e-05
7.79375e-05
0.000182842
7.7944e-05
7.79578e-05
2.3898e-05
2.39021e-05
2.39002e-05
0.000182903
7.79492e-05
7.79626e-05
2.39024e-05
0.000144476
0.000211323
0.000103647
0.000201777
0.000144315
0.000211742
0.000103716
9.9933e-05
5.07527e-05
9.98821e-05
5.0763e-05
9.99238e-05
5.07491e-05
9.98711e-05
5.07549e-05
0.000144503
0.000202115
0.00021217
0.000103731
0.000144495
0.000202092
0.000212161
0.000103713
9.99312e-05
5.0762e-05
9.99204e-05
5.07587e-05
2.38966e-05
2.39007e-05
2.38956e-05
2.38996e-05
0.000182899
7.79543e-05
7.79488e-05
2.3901e-05
2.38999e-05
2.03161e-05
7.90826e-05
5.07408e-05
7.9065e-05
2.03181e-05
5.07395e-05
3.67242e-05
9.99175e-05
4.1071e-05
9.45416e-05
4.10709e-05
9.45207e-05
3.67308e-05
2.03236e-05
7.90962e-05
5.07619e-05
2.03216e-05
7.91126e-05
3.67272e-05
9.99247e-05
4.10667e-05
9.45014e-05
3.67206e-05
4.10671e-05
9.45232e-05
2.03234e-05
7.9122e-05
5.07611e-05
7.91056e-05
2.03254e-05
2.38987e-05
2.38988e-05
3.6724e-05
9.99136e-05
9.45412e-05
4.10731e-05
9.45111e-05
4.10671e-05
3.67308e-05
2.0324e-05
7.90914e-05
5.07547e-05
2.0322e-05
7.91088e-05
3.6727e-05
9.99213e-05
9.44926e-05
4.10634e-05
3.67207e-05
9.45224e-05
4.1069e-05
2.03238e-05
7.91181e-05
5.07582e-05
7.91011e-05
2.03258e-05
2.38977e-05
2.3898e-05
8.15154e-05
2.17175e-05
2.17143e-05
2.17156e-05
2.17123e-05
8.15222e-05
0.000105294
0.000128908
4.86664e-05
7.79367e-05
0.000105273
0.000128961
4.8666e-05
0.000105299
0.00012889
4.86558e-05
7.79311e-05
0.000105279
0.000128943
4.86556e-05
8.1514e-05
2.17138e-05
2.17105e-05
8.15071e-05
2.17157e-05
2.17125e-05
0.000105299
4.86703e-05
7.79418e-05
0.000129021
0.000128969
4.86706e-05
0.00010532
0.000105305
4.86598e-05
7.79363e-05
0.000129003
0.000128951
4.86601e-05
0.000105326
2.3892e-05
2.389e-05
8.1487e-05
2.17107e-05
2.17074e-05
2.17087e-05
2.17054e-05
8.14943e-05
0.000105196
4.86592e-05
7.78962e-05
0.00012878
4.86515e-05
0.000105219
0.000128729
0.000105198
4.86461e-05
7.78903e-05
0.000128763
4.86378e-05
0.00010522
0.000128705
2.38965e-05
2.38963e-05
2.38945e-05
2.38942e-05
8.15033e-05
2.17106e-05
2.17073e-05
8.14961e-05
2.17126e-05
2.17093e-05
0.000105253
0.000128908
7.79238e-05
4.86681e-05
4.86606e-05
0.000128859
0.000105276
0.000105254
0.00012889
7.79179e-05
4.86555e-05
4.86481e-05
0.000128835
0.000105277
0.000105248
4.86564e-05
0.000128794
7.79208e-05
0.000105225
4.86633e-05
0.000128845
0.000105249
4.86441e-05
0.00012877
7.79143e-05
0.000105227
4.86508e-05
0.000128827
8.15048e-05
2.17144e-05
2.17111e-05
2.17124e-05
2.17091e-05
8.15121e-05
3.67201e-05
4.10585e-05
9.446e-05
9.98739e-05
3.67134e-05
4.1059e-05
9.4483e-05
2.03198e-05
5.07513e-05
7.91029e-05
2.03218e-05
7.90861e-05
2.03199e-05
7.90756e-05
5.07519e-05
2.03179e-05
7.90929e-05
3.67175e-05
9.98672e-05
4.10628e-05
9.45034e-05
3.67234e-05
4.10625e-05
9.44804e-05
3.67186e-05
4.10555e-05
9.44484e-05
9.98707e-05
3.67119e-05
4.10615e-05
9.44715e-05
2.03191e-05
5.07456e-05
7.90809e-05
7.90638e-05
2.03211e-05
2.03193e-05
7.90533e-05
5.07465e-05
2.03172e-05
7.90708e-05
3.67159e-05
9.98634e-05
4.10655e-05
9.44915e-05
4.10597e-05
9.44692e-05
3.67221e-05
2.38944e-05
2.38943e-05
0.000105255
0.000128876
7.79021e-05
4.86549e-05
0.000128824
4.86477e-05
0.000105273
0.000105252
0.000128909
7.79241e-05
4.86628e-05
4.86634e-05
0.000128857
0.00010527
0.00012876
7.79004e-05
0.000128813
8.14999e-05
2.17108e-05
2.17139e-05
2.17089e-05
2.17119e-05
8.15064e-05
2.38961e-05
3.67195e-05
9.44502e-05
4.10547e-05
9.987e-05
3.67148e-05
9.4482e-05
4.10609e-05
2.03201e-05
5.07489e-05
7.90991e-05
2.03222e-05
7.90814e-05
2.03203e-05
7.90713e-05
5.07454e-05
2.03183e-05
7.9089e-05
3.6717e-05
9.98632e-05
9.45034e-05
4.10653e-05
3.67233e-05
9.44717e-05
4.10594e-05
3.67184e-05
4.10546e-05
9.44462e-05
9.98645e-05
3.67112e-05
4.10607e-05
9.44686e-05
2.03192e-05
5.0745e-05
7.90786e-05
7.90616e-05
2.03212e-05
2.03194e-05
7.90514e-05
5.07413e-05
2.03173e-05
7.90686e-05
3.67153e-05
9.9864e-05
4.10649e-05
9.44881e-05
4.1059e-05
9.44663e-05
3.67217e-05
2.03203e-05
5.07476e-05
7.90891e-05
7.90775e-05
2.03224e-05
3.67166e-05
9.98552e-05
9.44908e-05
4.10645e-05
9.44604e-05
4.10583e-05
3.67236e-05
2.03194e-05
5.07461e-05
7.90787e-05
7.90612e-05
2.03214e-05
3.67168e-05
9.98607e-05
4.10652e-05
9.44942e-05
4.10592e-05
9.44633e-05
3.67219e-05
2.38936e-05
2.38933e-05
8.14996e-05
2.17075e-05
2.17107e-05
8.14923e-05
2.17095e-05
2.17127e-05
0.000105256
0.000128884
7.79106e-05
4.86555e-05
0.000128828
4.86484e-05
0.000105278
0.000105254
0.000128913
7.79245e-05
4.86646e-05
4.8665e-05
0.000128858
0.000105275
0.00010525
4.86437e-05
0.000128763
7.79046e-05
0.00012882
0.000105227
4.86509e-05
0.000105248
4.86608e-05
0.000128793
7.79183e-05
0.000105226
4.86603e-05
0.000128848
8.1501e-05
2.17113e-05
2.17145e-05
2.17093e-05
2.17126e-05
8.15083e-05
2.38958e-05
2.38955e-05
3.67206e-05
9.44562e-05
4.1054e-05
9.98577e-05
3.67138e-05
9.4478e-05
4.10604e-05
2.03208e-05
5.07476e-05
7.90993e-05
7.90825e-05
2.03228e-05
2.0321e-05
7.90724e-05
5.07485e-05
2.0319e-05
7.90893e-05
3.67184e-05
9.98559e-05
9.44979e-05
4.10645e-05
9.44759e-05
4.10584e-05
3.67235e-05
3.67174e-05
9.44353e-05
4.10533e-05
9.98483e-05
3.67106e-05
9.44589e-05
4.10599e-05
2.03189e-05
5.07445e-05
7.90762e-05
7.90593e-05
2.03209e-05
2.03191e-05
7.90489e-05
5.07408e-05
2.0317e-05
7.90663e-05
3.67155e-05
9.9845e-05
9.4479e-05
4.1064e-05
9.44556e-05
4.10578e-05
3.67204e-05
8.14968e-05
2.17121e-05
2.17089e-05
0.000105246
0.000128899
7.79157e-05
4.86615e-05
0.000105267
0.000128846
4.86619e-05
0.000105252
0.000128882
7.791e-05
4.8651e-05
0.000105273
0.000128826
4.86513e-05
0.00010524
7.79101e-05
0.000128836
4.86573e-05
0.000105245
0.000128762
7.79046e-05
0.000128818
4.86467e-05
8.14985e-05
2.17139e-05
2.17107e-05
8.15055e-05
2.1712e-05
2.17087e-05
2.38944e-05
2.38941e-05
2.38933e-05
2.3893e-05
2.39007e-05
2.39009e-05
2.38987e-05
2.38989e-05
8.15216e-05
2.1718e-05
2.17146e-05
2.1716e-05
2.17127e-05
8.15286e-05
0.000105303
0.000128921
4.86656e-05
7.79476e-05
0.00010528
4.86726e-05
0.00012897
0.000105304
0.000128898
4.8653e-05
7.79412e-05
0.000105282
4.866e-05
0.000128952
8.15205e-05
2.17142e-05
2.17109e-05
8.15134e-05
2.17162e-05
2.17129e-05
0.000105306
4.86771e-05
7.79501e-05
0.00012903
4.86698e-05
0.000105329
0.000128982
0.000105308
4.86645e-05
7.79442e-05
0.000129012
4.86573e-05
0.00010533
0.000128959
2.39051e-05
2.3903e-05
8.15365e-05
2.17178e-05
2.17144e-05
8.15296e-05
2.17197e-05
2.17164e-05
0.000105354
4.86742e-05
0.000129042
7.79725e-05
0.000105332
4.86813e-05
0.000129088
0.000105355
4.86616e-05
0.000129018
7.79661e-05
0.000105333
4.86687e-05
0.00012907
3.67229e-05
9.99139e-05
4.10735e-05
9.45302e-05
4.10675e-05
9.45094e-05
3.67292e-05
2.03229e-05
7.90738e-05
5.07562e-05
2.03209e-05
7.90905e-05
3.6726e-05
9.99214e-05
4.10638e-05
9.449e-05
4.10693e-05
3.67195e-05
9.45118e-05
2.03227e-05
7.90999e-05
5.07554e-05
7.90835e-05
2.03247e-05
3.67342e-05
4.10746e-05
9.45393e-05
9.99725e-05
3.67278e-05
4.10751e-05
9.45603e-05
2.03272e-05
7.9115e-05
5.07712e-05
2.03252e-05
7.9131e-05
3.67328e-05
4.10719e-05
9.45279e-05
9.99695e-05
3.67263e-05
4.10775e-05
9.45488e-05
2.03265e-05
7.90929e-05
5.07657e-05
2.03245e-05
7.91089e-05
8.1517e-05
2.17146e-05
2.17177e-05
2.17126e-05
2.17157e-05
8.15235e-05
0.0001053
0.000128887
4.86526e-05
7.79272e-05
4.86595e-05
0.000105282
0.000128938
0.000105298
0.000128919
4.86676e-05
7.79453e-05
0.000128971
0.00010528
4.86677e-05
8.1515e-05
2.17109e-05
2.1714e-05
2.17128e-05
8.15085e-05
2.17159e-05
0.000105308
4.86639e-05
7.79282e-05
0.000128998
4.86569e-05
0.000128948
0.000105326
0.000105306
4.8672e-05
7.79505e-05
0.000129032
0.000128981
4.86725e-05
0.000105324
2.39e-05
2.39002e-05
2.3903e-05
8.15316e-05
2.17144e-05
2.17175e-05
8.15252e-05
2.17164e-05
2.17194e-05
0.000105351
4.86612e-05
0.000129008
7.7952e-05
0.000129056
0.000105333
4.86681e-05
0.000105349
4.86769e-05
0.00012904
7.79705e-05
0.000105332
4.86764e-05
0.00012909
2.39043e-05
3.67225e-05
9.99149e-05
4.10728e-05
9.45269e-05
4.10669e-05
9.45061e-05
3.67289e-05
2.0323e-05
7.90715e-05
5.07509e-05
2.0321e-05
7.90882e-05
3.67256e-05
9.99152e-05
4.10631e-05
9.44867e-05
4.10687e-05
3.67191e-05
9.45084e-05
2.03228e-05
7.90976e-05
5.07545e-05
7.90811e-05
2.03248e-05
3.67341e-05
9.45306e-05
4.10714e-05
9.99691e-05
3.67276e-05
9.45598e-05
4.1077e-05
2.03276e-05
7.91103e-05
5.07642e-05
2.03256e-05
7.91271e-05
3.67324e-05
4.10712e-05
9.45248e-05
9.99629e-05
3.67259e-05
4.10768e-05
9.45459e-05
2.03266e-05
7.90904e-05
5.07603e-05
2.03246e-05
7.91066e-05
3.67245e-05
9.99062e-05
9.45296e-05
4.10726e-05
9.45004e-05
4.10664e-05
3.67301e-05
2.03242e-05
7.90877e-05
5.07581e-05
7.90992e-05
2.03221e-05
3.6727e-05
9.99135e-05
9.44812e-05
4.10628e-05
9.45108e-05
3.67212e-05
4.10684e-05
2.03239e-05
7.91086e-05
5.07572e-05
7.9097e-05
2.0326e-05
3.67229e-05
9.99117e-05
4.10733e-05
9.45331e-05
4.10672e-05
9.45032e-05
3.67294e-05
2.03232e-05
7.90713e-05
5.07519e-05
2.03212e-05
7.90885e-05
3.67261e-05
9.99189e-05
4.10636e-05
9.44843e-05
3.67195e-05
4.10691e-05
9.45142e-05
2.0323e-05
7.90978e-05
5.07555e-05
7.90808e-05
2.0325e-05
3.67331e-05
9.45197e-05
4.10707e-05
9.99615e-05
3.67285e-05
9.45481e-05
4.10766e-05
2.03278e-05
7.91062e-05
5.07674e-05
2.03257e-05
7.91177e-05
3.67329e-05
4.10716e-05
9.45228e-05
9.9967e-05
3.67263e-05
4.10773e-05
9.45516e-05
2.03268e-05
7.90901e-05
5.07613e-05
2.03248e-05
7.91067e-05
8.15178e-05
2.17149e-05
2.17181e-05
2.17129e-05
2.17162e-05
8.15248e-05
0.000105305
0.000128892
4.86532e-05
7.79312e-05
4.866e-05
0.000105283
0.000128944
0.000105302
0.000128921
4.8669e-05
7.79453e-05
0.000128974
0.000105281
4.86689e-05
8.15167e-05
2.17111e-05
2.17144e-05
2.17131e-05
8.15095e-05
2.17163e-05
0.000105309
4.86644e-05
7.79368e-05
0.000129004
4.86575e-05
0.000128952
0.000105331
0.000105307
4.86732e-05
7.79503e-05
0.000129034
0.000128982
4.86735e-05
0.000105328
2.38999e-05
2.39002e-05
2.3902e-05
8.15327e-05
2.17147e-05
2.17179e-05
8.15258e-05
2.17166e-05
2.17199e-05
0.000105356
4.86618e-05
0.000129012
7.79563e-05
0.000129063
0.000105335
4.86687e-05
0.000105354
4.8678e-05
0.000129042
7.797e-05
0.000105333
4.86776e-05
0.000129093
2.39043e-05
3.67247e-05
9.99073e-05
9.45368e-05
4.10715e-05
9.4516e-05
4.10672e-05
3.67311e-05
2.03246e-05
7.90922e-05
5.07582e-05
7.9109e-05
2.03226e-05
3.67277e-05
9.9909e-05
9.44966e-05
4.10627e-05
9.45183e-05
3.67213e-05
4.1068e-05
2.03245e-05
7.91183e-05
5.07574e-05
7.91018e-05
2.03264e-05
3.67217e-05
9.98964e-05
9.45181e-05
4.1072e-05
9.44958e-05
4.10656e-05
3.67279e-05
2.03227e-05
7.90691e-05
5.07503e-05
2.03207e-05
7.9086e-05
3.67245e-05
9.98997e-05
9.44762e-05
4.10619e-05
3.67182e-05
9.44995e-05
4.10678e-05
2.03225e-05
7.90953e-05
5.0754e-05
7.90788e-05
2.03245e-05
3.67346e-05
9.45347e-05
4.1073e-05
9.99566e-05
3.67282e-05
9.45556e-05
4.10743e-05
2.03282e-05
7.91111e-05
5.07676e-05
2.03263e-05
7.91273e-05
3.67314e-05
9.45145e-05
4.107e-05
9.99475e-05
3.67253e-05
9.45369e-05
4.1076e-05
2.03263e-05
7.90881e-05
5.07597e-05
2.03243e-05
7.91044e-05
2.38985e-05
2.38988e-05
2.38974e-05
2.38977e-05
8.15302e-05
2.17173e-05
2.17141e-05
8.15234e-05
2.17193e-05
2.1716e-05
0.000105345
4.86752e-05
0.000129029
7.79615e-05
0.000105324
0.00012908
4.86749e-05
0.000105351
4.86647e-05
0.000129011
7.7956e-05
0.000105331
0.000129062
4.86644e-05
2.39028e-05
2.39018e-05
0.000206569
0.000205526
0.000205526
0.000208946
0.000206284
0.000206284
0.000197395
0.0001964
0.000138545
0.000162126
0.000162118
0.000182615
0.000138511
0.000162173
0.000162161
0.000138441
0.000182231
0.000162059
0.000162046
0.000161977
0.000161962
0.000138484
0.00013844
0.000182253
0.000162017
0.000162039
0.000161957
0.000161991
0.000138474
0.000138445
0.000182318
0.000162025
0.000162047
0.000161981
0.000162004
0.000138478
0.000138437
0.000182298
0.000162029
0.000162019
0.000138471
0.000161986
0.000161978
0.000138558
0.000162121
0.000162105
0.000182647
0.000138517
0.000162197
0.000162185
0.000138548
0.000162099
0.000162129
0.000182619
0.000162183
0.000138515
0.00016216
0.000138554
0.000162119
0.000162142
0.000182607
0.00016219
0.000138519
0.000162168
0.000207175
0.000204758
0.000204757
0.000203987
0.000203985
0.000194396
0.000195399
0.000207171
0.000204755
0.000204756
0.000203985
0.000203987
0.000194396
0.000195399
0.00020718
0.000204764
0.000204768
0.000203992
0.000203997
0.000194403
0.000195407
0.000207172
0.000204763
0.000204764
0.000203991
0.000203994
0.000194403
0.000195406
0.000205523
0.000205524
0.000208936
0.000206281
0.000206282
0.000197394
0.0001964
0.000205532
0.000205535
0.000208951
0.000206291
0.000206294
0.000197402
0.000196407
0.00020553
0.000205532
0.000208942
0.000206288
0.00020629
0.000197402
0.000196407
0.000209525
0.000207039
0.000207039
0.000198386
0.000209516
0.000207035
0.000207037
0.000198386
0.000209531
0.000207046
0.000207048
0.000198394
0.000209522
0.000207043
0.000207045
0.000198393
0.000171885
0.000144405
0.000137893
0.000177315
0.000137806
0.00017717
0.000172068
0.000161224
0.00014782
0.000122852
0.000103702
0.000161053
0.000147876
0.000122912
0.000171891
0.000144405
0.00013773
0.00017698
0.000171722
0.00013782
0.000177114
0.000161179
0.000122966
0.000103697
0.00014798
0.000147922
0.000122907
0.00016135
0.000171912
0.000144414
0.000177242
0.000137885
0.000177235
0.000137828
0.000172003
0.000161178
0.000147833
0.000122863
0.000103703
0.000161111
0.000147868
0.000122914
0.000171867
0.000144394
0.000177036
0.000137752
0.000171724
0.000177054
0.000137814
0.000161256
0.000122967
0.000103699
0.000147976
0.000147941
0.000122918
0.00016132
0.000138584
0.000182687
0.000162309
0.000162296
0.000162262
0.000162252
0.000138617
0.000138285
0.000181798
0.000161772
0.000161757
0.000138328
0.000161686
0.000161671
0.000138407
0.000182221
0.000161826
0.000161812
0.000138364
0.000161911
0.000161898
0.000160704
0.000122741
0.000103559
0.00014754
0.000122685
0.000147501
0.000160725
0.000171473
0.000137593
0.000176623
0.000144225
0.000171409
0.00013766
0.000176697
0.000160967
0.000147757
0.000103632
0.000122856
0.000147723
0.000122803
0.000161023
0.000160864
0.000122745
0.000147605
0.000103635
0.000147645
0.000160834
0.0001228
0.000171588
0.000144225
0.000137739
0.000176877
0.000137674
0.000176806
0.000171653
0.000171452
0.00013758
0.000176617
0.000144221
0.000171392
0.000137647
0.000176689
0.000160957
0.000147724
0.000103607
0.000122838
0.000122785
0.000147692
0.000160986
0.000160839
0.000122727
0.000147575
0.000103611
0.000160816
0.000122781
0.000147612
0.000171577
0.000144221
0.000137726
0.000176871
0.000137661
0.000176801
0.000171639
0.000182203
0.00016182
0.000161877
0.00010355
0.000147534
0.000147474
0.000171526
0.000137572
0.000176584
0.000144221
0.000171328
0.000137662
0.000176719
0.000160884
0.000147756
0.000103621
0.000122854
0.00014769
0.00012279
0.000161048
0.00016092
0.000122732
0.000147574
0.000103626
0.000147646
0.00016073
0.000122796
0.000171512
0.000144222
0.000137743
0.000176917
0.000137654
0.000176784
0.000171705
0.000171463
0.00017658
0.00013758
0.00014421
0.000171388
0.000176688
0.000137645
0.000160961
0.000147736
0.000103613
0.000122838
0.000122787
0.000147695
0.000160993
0.000160847
0.00012273
0.000147586
0.000103616
0.000160826
0.000122782
0.00014763
0.000171585
0.000144228
0.000176873
0.000137724
0.000176799
0.00013766
0.000171645
0.000160911
0.000147774
0.000103629
0.000122857
0.000161074
0.000147709
0.000122794
0.000171534
0.000144219
0.000137741
0.000176922
0.000171702
0.000137653
0.000176784
0.00016089
0.000147747
0.000103619
0.000122848
0.000122785
0.000147709
0.00016104
0.000171526
0.000144221
0.000176925
0.000137738
0.000176789
0.000137649
0.000171701
0.000138401
0.000182176
0.000161836
0.000161858
0.000161882
0.000138366
0.000161904
0.000171518
0.000176644
0.000137591
0.000144208
0.000171364
0.000176666
0.000137656
0.000160972
0.000147771
0.000103631
0.000122858
0.000161037
0.000147731
0.000122806
0.000160873
0.000122748
0.000147614
0.000103634
0.000160827
0.000147654
0.000122801
0.000171534
0.000144227
0.000176851
0.000137737
0.000171702
0.000176841
0.00013767
0.000171458
0.000176647
0.000137572
0.0001442
0.000171396
0.000176656
0.000137638
0.000160953
0.00014774
0.000103613
0.000122836
0.000122783
0.0001477
0.000161017
0.00016085
0.000122725
0.000147583
0.000103615
0.000160824
0.00012278
0.000147622
0.000171593
0.00014422
0.000176849
0.000137716
0.000176841
0.000137651
0.000171643
0.000138394
0.000182166
0.000161835
0.000161886
0.000161878
0.000138591
0.00018267
0.000162335
0.000162323
0.000138631
0.000162261
0.000162246
0.000138702
0.00018307
0.000162399
0.000162383
0.000138662
0.000162472
0.00016246
0.000171943
0.000144409
0.000137888
0.000177273
0.00013783
0.000177196
0.000172009
0.000161166
0.000147828
0.000122859
0.000103703
0.000122912
0.000161107
0.000147868
0.000171835
0.000144409
0.000137754
0.000177004
0.000137817
0.000171767
0.000177078
0.000161249
0.000122966
0.0001037
0.000147969
0.000122915
0.00014793
0.000161308
0.000171927
0.000144405
0.000137877
0.000177266
0.000137818
0.000177191
0.000171993
0.000161127
0.000147798
0.000122842
0.00010368
0.000161095
0.000122894
0.000147841
0.00017182
0.000144404
0.000137741
0.000176999
0.000171752
0.000137804
0.000177072
0.000161235
0.000122947
0.000103675
0.000147937
0.000122898
0.000161268
0.000147896
0.000172187
0.000137906
0.000177384
0.000144586
0.000172116
0.000137963
0.000177462
0.000161446
0.000122969
0.000148031
0.000103767
0.000148073
0.000161381
0.000123019
0.000172172
0.000137893
0.000177379
0.000144582
0.0001721
0.00013795
0.000177456
0.000161415
0.000122951
0.000147996
0.000103744
0.000161357
0.000123
0.000148036
0.000138589
0.000182681
0.000162299
0.000162321
0.000162267
0.000162238
0.000138621
0.000138692
0.000183045
0.000162376
0.000162404
0.000162436
0.000138661
0.000162459
0.000171878
0.000144407
0.000137899
0.000177291
0.000137805
0.000177168
0.000172064
0.000161206
0.000147805
0.000122847
0.000103695
0.000122909
0.000161036
0.000147859
0.000171886
0.000144407
0.000137734
0.000176975
0.000137822
0.0001717
0.000177107
0.000161171
0.000122964
0.000103689
0.000147963
0.000122903
0.000147905
0.000161338
0.000171938
0.000144416
0.000177246
0.000137876
0.000177233
0.000137818
0.000171999
0.000161131
0.000147798
0.000122843
0.000103684
0.000161099
0.000122894
0.00014784
0.000171826
0.000144396
0.000177025
0.00013774
0.000171762
0.000177058
0.000137803
0.000161239
0.000122948
0.000103681
0.000147943
0.000122899
0.000161272
0.000147902
0.000172238
0.000137884
0.000177364
0.000144584
0.000172056
0.000137975
0.000177484
0.000161476
0.000122957
0.000148007
0.000103759
0.000148065
0.000161318
0.000123017
0.000172176
0.000177421
0.000137893
0.000144573
0.000172112
0.000177436
0.000137949
0.000161419
0.000122952
0.000148001
0.000103749
0.000161362
0.000123001
0.00014804
0.000171888
0.000144406
0.000177315
0.000137894
0.000177174
0.000137801
0.000172065
0.000161204
0.000147813
0.000122842
0.00010369
0.000147854
0.000161042
0.000122903
0.000171895
0.000144406
0.000176977
0.00013773
0.000177113
0.000171714
0.000137817
0.000161179
0.000122958
0.000103686
0.000147957
0.000147915
0.000122898
0.000161336
0.00017225
0.000137882
0.000177348
0.000144582
0.000172062
0.000137972
0.000177503
0.000161491
0.00012296
0.000148019
0.000103766
0.000161325
0.000148084
0.000123018
0.000172243
0.000177354
0.000137879
0.000144584
0.000172064
0.000177493
0.00013797
0.000161474
0.000122951
0.000148017
0.000103755
0.000161323
0.00012301
0.000148061
0.00013859
0.000182703
0.000162308
0.00016233
0.000162273
0.00016225
0.000138628
0.0001387
0.000183058
0.000162384
0.000162407
0.000162451
0.000138661
0.000162471
0.000171937
0.000144407
0.000177243
0.000137866
0.000177234
0.000137809
0.000171995
0.00016115
0.000147799
0.00012284
0.000103684
0.000147835
0.000161089
0.000122892
0.000171823
0.000144387
0.000177034
0.000137733
0.000177049
0.000171764
0.000137795
0.00016123
0.000122946
0.00010368
0.000147942
0.000147908
0.000122895
0.000161292
0.000172189
0.000177417
0.000137905
0.000144571
0.000172122
0.000177428
0.000137962
0.000161458
0.000122972
0.000148042
0.000103768
0.000161391
0.000148081
0.00012302
0.000172175
0.000177399
0.000137886
0.000144563
0.000172109
0.000177443
0.000137943
0.000161429
0.000122949
0.000148009
0.000103748
0.000161363
0.000122999
0.000148048
0.000138689
0.000183037
0.0001624
0.000162389
0.000138657
0.000162446
0.000162433
0.00021066
0.000202716
0.000202726
0.000183299
0.000212847
0.00020388
0.00020389
0.000184066
0.000214926
0.000204967
0.000204978
0.000184778
0.000216894
0.000205978
0.000205989
0.000185432
0.000218753
0.000206915
0.000206925
0.000186028
0.000220504
0.000207772
0.000207782
0.000186568
0.000222148
0.000208558
0.000208567
0.00018702
0.000223686
0.000209272
0.000209281
0.000187452
0.000225123
0.000209917
0.000209925
0.000187836
0.000226459
0.000210492
0.0002105
0.000188171
0.000227696
0.000210999
0.000211007
0.000188466
0.000228831
0.00021144
0.000211447
0.000188712
0.000229856
0.000211828
0.000211836
0.0001889
0.000230788
0.000212158
0.000212166
0.000189054
0.000231633
0.000212434
0.000212437
0.000189168
0.000232388
0.000212655
0.000212654
0.000189244
0.000233059
0.000212824
0.000212819
0.000189281
0.000233649
0.000212941
0.000212942
0.00018928
0.000234284
0.00021318
0.000213186
0.000189239
0.000233966
0.000213702
0.000213711
0.000193749
0.000183274
0.000202398
0.000202376
0.000183251
0.000202409
0.000202385
0.000202409
0.000202387
0.000183268
0.000202421
0.000202397
0.000183245
0.000183298
0.000184057
0.000202703
0.000202682
0.00020358
0.000203558
0.000183295
0.000184038
0.000202715
0.000202691
0.000203592
0.000203568
0.000202693
0.000203592
0.000203568
0.000183298
0.000184056
0.000202703
0.000203603
0.00020358
0.000184033
0.000184072
0.000184794
0.000203868
0.000203845
0.000204684
0.000204661
0.000184066
0.000184754
0.00020388
0.000203856
0.000204697
0.000204673
0.000203857
0.000204696
0.000204672
0.00018407
0.000184794
0.000203868
0.000204707
0.000204684
0.000184747
0.000184763
0.00018547
0.000204954
0.000204932
0.00020571
0.000205688
0.000184781
0.000185419
0.000204968
0.000204943
0.000205724
0.000205699
0.000204943
0.000205723
0.000205699
0.000184761
0.000185469
0.000204955
0.000205734
0.000205711
0.000185412
0.000185406
0.000186082
0.000205965
0.000205943
0.000206661
0.000206638
0.000185437
0.000186032
0.000205979
0.000205954
0.000206675
0.00020665
0.000205954
0.000206674
0.00020665
0.000185404
0.00018608
0.000205965
0.000206684
0.000206661
0.000186026
0.000186004
0.000186639
0.000206902
0.000206879
0.00020754
0.000207518
0.000186033
0.00018659
0.000206916
0.000206891
0.000207554
0.000207529
0.000206891
0.000207554
0.000207529
0.000186002
0.000186637
0.000206902
0.000207564
0.000207541
0.000186585
0.000186547
0.000187141
0.000207759
0.000207736
0.000208347
0.000208324
0.000186575
0.000187093
0.000207774
0.000207747
0.000208361
0.000208335
0.000207748
0.000208361
0.000208335
0.000186544
0.000187139
0.000207759
0.00020837
0.000208347
0.00018713
0.000187035
0.000187591
0.000208544
0.000208521
0.000209081
0.000209058
0.000187063
0.000187542
0.000208559
0.000208532
0.000209096
0.000209069
0.000208532
0.000209095
0.000209069
0.000187032
0.000187588
0.000208544
0.000209104
0.000209082
0.000187575
0.000187471
0.000187988
0.000209257
0.000209235
0.000209745
0.000209722
0.000187499
0.00018794
0.000209273
0.000209245
0.00020976
0.000209732
0.000209246
0.000209759
0.000209733
0.000187468
0.000187984
0.000209259
0.000209768
0.000209746
0.000187972
0.000187855
0.000188336
0.000209901
0.000209879
0.000210342
0.000210319
0.000187882
0.000188286
0.000209917
0.000209889
0.000210357
0.000210329
0.00020989
0.000210356
0.00021033
0.000187851
0.000188333
0.000209903
0.000210365
0.000210343
0.000188321
0.000188189
0.000188651
0.000210477
0.000210454
0.000210876
0.000210853
0.000188219
0.000188583
0.000210492
0.000210464
0.000210891
0.000210863
0.000210465
0.00021089
0.000210864
0.000188185
0.000188649
0.000210479
0.000210899
0.000210877
0.000188637
0.000188487
0.000188905
0.000210983
0.000210961
0.000211348
0.000211326
0.000188538
0.000188842
0.000210999
0.000210971
0.000211364
0.000211335
0.000210972
0.000211363
0.000211336
0.000188479
0.0001889
0.000210986
0.000211372
0.00021135
0.000188885
0.000188735
0.000189083
0.000211424
0.000211401
0.000211751
0.000211728
0.000188771
0.000189033
0.00021144
0.00021141
0.000211766
0.000211737
0.000211412
0.000211767
0.000211739
0.000188724
0.00018908
0.000211426
0.000211774
0.000211752
0.000189076
0.000188933
0.000189188
0.000211812
0.000211789
0.000212091
0.000212069
0.000188952
0.000189181
0.000211829
0.000211798
0.000212106
0.000212077
0.000211801
0.000212107
0.000212078
0.000188927
0.000189219
0.000211814
0.000212116
0.000212093
0.000189205
0.000189102
0.000189311
0.000212143
0.000212119
0.000212373
0.000212351
0.000189092
0.000189304
0.00021216
0.000212127
0.000212387
0.00021236
0.000212132
0.000212389
0.00021236
0.000189071
0.000189329
0.000212144
0.000212399
0.000212376
0.000189313
0.000189196
0.000189399
0.000212415
0.000212392
0.0002126
0.000212577
0.000189188
0.000189389
0.000212434
0.000212399
0.000212611
0.000212588
0.000212404
0.000212612
0.000212586
0.000189186
0.000189396
0.000212415
0.000212627
0.000212604
0.000189381
0.000189264
0.000189436
0.000212634
0.000212611
0.000212773
0.000212751
0.000189257
0.000189427
0.000212655
0.000212615
0.000212783
0.000212764
0.00021262
0.000212784
0.000212765
0.000189259
0.000189431
0.000212631
0.000212804
0.000212782
0.000189416
0.000189298
0.000189437
0.000212802
0.000212778
0.000212901
0.000212877
0.00018929
0.000189429
0.000212825
0.000212779
0.000212908
0.000212892
0.00021278
0.000212911
0.000212895
0.000189293
0.000189432
0.000212795
0.000212931
0.00021291
0.000189417
0.000189296
0.000189436