/*--------------------------------*- C++ -*----------------------------------*\
| =========                 |                                                 |
| \\      /  F ield         | OpenFOAM: The Open Source CFD Toolbox           |
|  \\    /   O peration     | Version:  2312                                  |
|   \\  /    A nd           | Website:  www.openfoam.com                      |
|    \\/     M anipulation  |                                                 |
\*---------------------------------------------------------------------------*/
FoamFile
{
    version     2.0;
    format      ascii;
    arch        "LSB;label=32;scalar=64";
    class       volScalarField;
    location    "200";
    object      epsilon;
}
// * * * * * * * * * * * * * * * * * * * * * * * * * * * * * * * * * * * * * //

dimensions      [0 2 -3 0 0 0 0];

internalField   nonuniform List<scalar> 
43008
(
1.40289e-07
2.15345e-07
1.36476e-07
2.21668e-07
2.21713e-07
3.34609e-07
3.14482e-07
3.29773e-07
2.15377e-07
2.1541e-07
2.1997e-07
2.2001e-07
3.29835e-07
2.15338e-07
2.15422e-07
2.19931e-07
2.20025e-07
2.19887e-07
2.19963e-07
3.14565e-07
3.29792e-07
2.15375e-07
2.19934e-07
2.19972e-07
3.29541e-07
3.34133e-07
2.21747e-07
2.21786e-07
3.34136e-07
2.21707e-07
2.21798e-07
2.2173e-07
3.34309e-07
2.21741e-07
3.4677e-06
8.88354e-06
3.42481e-06
8.88949e-06
1.85246e-05
3.46838e-06
8.88494e-06
3.42433e-06
8.89056e-06
1.40284e-07
1.40299e-07
1.40296e-07
1.37363e-07
1.37357e-07
1.37372e-07
1.3737e-07
9.87849e-07
2.16703e-07
2.66147e-06
1.59049e-07
1.85348e-05
1.85253e-05
9.88193e-07
1.59533e-07
2.63317e-06
2.16749e-07
9.616e-07
1.59076e-07
2.66135e-06
3.19322e-07
5.06123e-06
5.06293e-06
3.58584e-06
8.89734e-06
3.54879e-06
8.90257e-06
1.85005e-05
1.84919e-05
3.58524e-06
8.89851e-06
3.54928e-06
8.90375e-06
1.36473e-07
1.36488e-07
1.36482e-07
1.07234e-06
2.72091e-06
1.58237e-07
2.23608e-07
1.04494e-06
2.74562e-06
1.58094e-07
1.85012e-05
1.84926e-05
1.07305e-06
1.58268e-07
2.7208e-06
2.2365e-07
1.04516e-06
1.58122e-07
2.74808e-06
5.09376e-06
5.09537e-06
3.39719e-07
5.10922e-06
5.10847e-06
1.85318e-05
1.85219e-05
1.85345e-05
1.85249e-05
5.04352e-06
5.04421e-06
3.19893e-07
5.05939e-06
5.06305e-06
1.85052e-05
1.85143e-05
1.85081e-05
1.85172e-05
3.23822e-07
5.0846e-06
5.08806e-06
5.07035e-06
5.07106e-06
3.46769e-06
8.88393e-06
3.42487e-06
8.88956e-06
9.88586e-07
2.63316e-06
1.59526e-07
2.16785e-07
9.60992e-07
2.66116e-06
1.5907e-07
9.88571e-07
2.63265e-06
1.59533e-07
2.16821e-07
9.61486e-07
2.66352e-06
1.59078e-07
3.48978e-06
8.89609e-06
8.89073e-06
3.52971e-06
3.48973e-06
8.89631e-06
8.89086e-06
3.52938e-06
1.00229e-06
2.18298e-07
2.70438e-06
1.58432e-07
2.67806e-06
1.58733e-07
1.03048e-06
1.00239e-06
2.18337e-07
2.70625e-06
1.5844e-07
2.67732e-06
1.58742e-07
1.03043e-06
3.198e-07
5.06265e-06
5.06133e-06
1.85234e-05
1.8508e-05
1.8517e-05
3.238e-07
5.08777e-06
5.08632e-06
5.07084e-06
5.06949e-06
1.85064e-05
1.85156e-05
9.88075e-07
2.63372e-06
1.59528e-07
2.16746e-07
9.61353e-07
2.66184e-06
1.59072e-07
3.46768e-06
8.8841e-06
3.42474e-06
8.89049e-06
9.88055e-07
1.59542e-07
2.63385e-06
2.16835e-07
9.61423e-07
1.59084e-07
2.6619e-06
3.48917e-06
8.89728e-06
8.89186e-06
3.52886e-06
1.00272e-06
2.18258e-07
2.70651e-06
1.58433e-07
2.67869e-06
1.58736e-07
1.02995e-06
3.48971e-06
8.89718e-06
8.89102e-06
3.52891e-06
1.00281e-06
2.18348e-07
1.58446e-07
2.70514e-06
1.58748e-07
2.67873e-06
1.02991e-06
3.46864e-06
8.89037e-06
9.87945e-07
2.16771e-07
1.59057e-07
2.66239e-06
3.46842e-06
8.88967e-06
1.00286e-06
2.18221e-07
2.70449e-06
1.58409e-07
2.67822e-06
1.58707e-07
1.02979e-06
3.48906e-06
8.89701e-06
8.89085e-06
3.52968e-06
1.0028e-06
2.18285e-07
1.58421e-07
2.7061e-06
1.58725e-07
2.67736e-06
1.03041e-06
3.48915e-06
8.8964e-06
8.89095e-06
3.5296e-06
5.04528e-06
5.04336e-06
3.19822e-07
5.06258e-06
5.05962e-06
1.85325e-05
1.8523e-05
1.85087e-05
1.85177e-05
3.23716e-07
5.08775e-06
5.08492e-06
5.07097e-06
5.07061e-06
1.85064e-05
1.85154e-05
9.88185e-07
1.59539e-07
2.63267e-06
2.16783e-07
9.61565e-07
1.59082e-07
2.66349e-06
3.46819e-06
8.88402e-06
3.42468e-06
8.89044e-06
3.46794e-06
8.8848e-06
3.42511e-06
8.89043e-06
1.00297e-06
2.18268e-07
1.58439e-07
2.70451e-06
1.58741e-07
2.67814e-06
1.02995e-06
1.003e-06
2.18294e-07
1.58443e-07
2.70485e-06
1.58748e-07
2.6776e-06
1.03014e-06
3.48968e-06
8.89712e-06
8.89095e-06
3.52986e-06
3.49002e-06
8.89711e-06
8.8917e-06
3.52911e-06
1.85237e-05
1.8526e-05
3.2417e-07
5.0863e-06
5.0879e-06
5.06939e-06
5.07103e-06
1.8507e-05
1.85161e-05
1.85093e-05
1.85184e-05
1.84979e-05
1.84893e-05
1.85007e-05
1.8492e-05
5.09465e-06
5.09554e-06
3.40586e-07
5.10886e-06
5.11088e-06
3.58579e-06
8.89753e-06
3.54896e-06
8.90268e-06
1.07211e-06
2.72066e-06
1.58262e-07
2.23693e-07
1.04449e-06
2.74782e-06
1.58118e-07
1.07207e-06
2.72026e-06
1.5827e-07
2.23736e-07
1.04456e-06
2.74809e-06
1.58125e-07
5.09522e-06
5.09395e-06
3.40629e-07
5.1106e-06
5.10671e-06
1.84989e-05
1.84903e-05
1.07239e-06
2.72018e-06
1.58263e-07
2.23655e-07
1.04488e-06
2.74811e-06
1.58119e-07
3.58511e-06
8.89767e-06
3.54938e-06
8.90364e-06
1.07239e-06
1.58277e-07
2.72131e-06
2.2375e-07
1.04491e-06
1.58132e-07
2.7463e-06
3.58509e-06
8.89747e-06
3.54882e-06
8.90344e-06
1.07277e-06
1.58249e-07
2.71992e-06
2.23678e-07
1.04446e-06
1.58101e-07
2.74785e-06
3.58552e-06
8.89762e-06
3.54881e-06
8.90291e-06
5.09525e-06
5.09499e-06
3.40612e-07
5.10839e-06
5.10727e-06
1.84989e-05
1.84903e-05
1.07266e-06
1.58277e-07
2.72136e-06
2.23692e-07
1.04512e-06
1.58128e-07
2.74626e-06
3.5857e-06
8.89761e-06
3.54908e-06
8.90358e-06
3.58583e-06
8.89835e-06
3.54967e-06
8.90355e-06
1.84996e-05
1.84909e-05
1.85018e-05
1.8493e-05
1.21037e-05
3.45787e-06
1.06415e-05
4.33893e-06
1.06397e-05
4.33175e-06
1.21066e-05
2.25122e-05
7.18481e-06
8.88626e-06
2.25104e-05
7.18686e-06
1.21035e-05
3.43495e-06
1.06381e-05
4.30672e-06
1.21008e-05
1.06396e-05
4.31436e-06
2.25011e-05
7.19242e-06
8.88735e-06
7.19127e-06
2.25029e-05
1.85332e-05
1.85255e-05
1.21039e-05
3.45723e-06
4.33897e-06
1.06418e-05
4.33159e-06
1.064e-05
1.21068e-05
2.25118e-05
7.18492e-06
8.88714e-06
2.25099e-05
7.18635e-06
1.21037e-05
3.43573e-06
4.30663e-06
1.06385e-05
1.2101e-05
4.31441e-06
1.06399e-05
2.25005e-05
7.19221e-06
8.88845e-06
7.19102e-06
2.25024e-05
1.85339e-05
1.85262e-05
9.71748e-06
2.19931e-05
2.19927e-05
2.19927e-05
2.19923e-05
9.71717e-06
3.80601e-06
5.04767e-06
1.74768e-06
8.97469e-06
3.81298e-06
5.04945e-06
1.74977e-06
8.97967e-06
9.71402e-06
2.20034e-05
2.2003e-05
3.82308e-06
8.98426e-06
5.05622e-06
1.77244e-06
1.76516e-06
8.97743e-06
3.82853e-06
3.83005e-06
8.98918e-06
5.05792e-06
1.77397e-06
1.76646e-06
8.98233e-06
3.8355e-06
1.21173e-05
3.57635e-06
1.06557e-05
4.4245e-06
1.06523e-05
4.41891e-06
1.21205e-05
2.24743e-05
7.20645e-06
8.89934e-06
2.24727e-05
7.20647e-06
1.21169e-05
3.55845e-06
1.06482e-05
4.39899e-06
1.21137e-05
1.06513e-05
4.40485e-06
2.24632e-05
7.20991e-06
8.90055e-06
7.20999e-06
2.24648e-05
1.84999e-05
1.84926e-05
1.21173e-05
3.57704e-06
4.42436e-06
1.06559e-05
4.4189e-06
1.06527e-05
1.21205e-05
2.2474e-05
7.20617e-06
8.90055e-06
2.24724e-05
7.20627e-06
1.2117e-05
3.55772e-06
4.39892e-06
1.06485e-05
1.21138e-05
4.40478e-06
1.06516e-05
2.24629e-05
7.20986e-06
8.90173e-06
7.20977e-06
2.24645e-05
1.85006e-05
1.84932e-05
9.72682e-06
2.19521e-05
2.19516e-05
2.19517e-05
2.19514e-05
9.72568e-06
3.89051e-06
1.83745e-06
9.00473e-06
5.09806e-06
3.88546e-06
1.84456e-06
9.01102e-06
3.89901e-06
1.83905e-06
9.00996e-06
5.0995e-06
3.89206e-06
1.84599e-06
9.01558e-06
9.72409e-06
2.1962e-05
2.19616e-05
9.72505e-06
2.19623e-05
2.19619e-05
3.90549e-06
9.0192e-06
5.10507e-06
1.86761e-06
1.86054e-06
9.01324e-06
3.9096e-06
3.91137e-06
9.02386e-06
5.10726e-06
1.86927e-06
1.86211e-06
9.01848e-06
3.91846e-06
1.85307e-05
1.85228e-05
1.85336e-05
1.85258e-05
9.71769e-06
2.19931e-05
2.19925e-05
2.19927e-05
2.19921e-05
9.71732e-06
3.80596e-06
1.74012e-06
8.96782e-06
5.04578e-06
3.8002e-06
8.97402e-06
1.74736e-06
3.81289e-06
1.74178e-06
8.97291e-06
5.04949e-06
3.80721e-06
8.9794e-06
1.74918e-06
9.71426e-06
2.20031e-05
2.20025e-05
9.71448e-06
2.20035e-05
2.20028e-05
3.82288e-06
8.98349e-06
5.0573e-06
1.77231e-06
8.97757e-06
3.82834e-06
1.76506e-06
3.82983e-06
8.98887e-06
5.05816e-06
1.77381e-06
8.98269e-06
3.83536e-06
1.7667e-06
1.8506e-05
1.85135e-05
1.85089e-05
1.85164e-05
9.71994e-06
2.19824e-05
2.19818e-05
9.72056e-06
2.19825e-05
2.19821e-05
3.86571e-06
1.82045e-06
5.08305e-06
9.00159e-06
8.99594e-06
1.81364e-06
3.87057e-06
3.87278e-06
1.82272e-06
5.08353e-06
9.00694e-06
9.00128e-06
1.81488e-06
3.87766e-06
3.84975e-06
8.98693e-06
1.78945e-06
5.07227e-06
3.84469e-06
8.99271e-06
1.79664e-06
3.85683e-06
8.99212e-06
1.79111e-06
5.07566e-06
3.85166e-06
8.99806e-06
1.79859e-06
9.72302e-06
2.1972e-05
2.19718e-05
2.19717e-05
2.19715e-05
9.72223e-06
1.21039e-05
3.45795e-06
1.06414e-05
4.33925e-06
1.06396e-05
4.3312e-06
1.21068e-05
2.2512e-05
7.18287e-06
8.88609e-06
2.25102e-05
7.18512e-06
1.21037e-05
3.43505e-06
1.06381e-05
4.30633e-06
1.06395e-05
1.21009e-05
4.31454e-06
2.25008e-05
7.19096e-06
8.88745e-06
7.18933e-06
2.25026e-05
1.211e-05
1.06418e-05
4.35547e-06
3.49896e-06
1.21069e-05
1.06441e-05
4.36205e-06
2.24823e-05
8.89406e-06
7.20251e-06
2.24839e-05
7.20218e-06
2.24935e-05
7.19689e-06
8.89281e-06
2.24917e-05
7.1976e-06
1.21103e-05
3.52009e-06
1.06474e-05
4.38401e-06
1.21134e-05
1.06447e-05
4.37784e-06
1.211e-05
1.06418e-05
4.35494e-06
3.49906e-06
1.2107e-05
1.06441e-05
4.36226e-06
2.24819e-05
8.89423e-06
7.20091e-06
7.19977e-06
2.24835e-05
2.24932e-05
7.19527e-06
8.893e-06
2.24915e-05
7.19608e-06
1.21104e-05
3.52005e-06
1.06474e-05
4.38392e-06
1.06446e-05
4.37747e-06
1.21135e-05
9.71777e-06
2.1993e-05
2.19935e-05
2.19926e-05
2.19931e-05
9.71746e-06
3.81263e-06
5.04913e-06
8.97909e-06
1.74922e-06
3.80545e-06
5.04772e-06
1.74752e-06
8.97511e-06
9.71434e-06
2.20036e-05
2.2004e-05
3.82987e-06
8.98861e-06
5.0578e-06
1.77455e-06
8.98248e-06
1.76658e-06
3.83527e-06
3.82278e-06
8.98457e-06
5.05631e-06
1.77217e-06
1.76513e-06
8.97779e-06
3.82816e-06
1.85319e-05
1.85241e-05
1.85087e-05
1.85162e-05
9.72016e-06
2.19823e-05
2.19828e-05
9.72071e-06
2.19827e-05
2.19831e-05
3.87196e-06
1.82312e-06
5.08322e-06
9.00678e-06
1.8147e-06
9.00096e-06
3.87917e-06
3.86588e-06
1.82046e-06
5.08192e-06
9.00266e-06
8.99624e-06
1.81373e-06
3.87074e-06
3.85835e-06
8.99188e-06
1.79087e-06
5.07538e-06
1.79898e-06
3.85164e-06
8.99788e-06
3.8499e-06
8.98718e-06
1.7896e-06
5.0739e-06
3.84471e-06
8.99377e-06
1.79656e-06
9.7232e-06
2.19723e-05
2.19728e-05
2.1972e-05
2.19725e-05
9.72242e-06
1.85071e-05
1.85147e-05
1.21039e-05
3.45795e-06
1.06417e-05
4.33904e-06
1.06399e-05
4.33102e-06
1.21068e-05
2.25111e-05
7.18273e-06
8.88707e-06
2.25092e-05
7.18428e-06
1.21037e-05
3.43493e-06
1.06384e-05
4.3063e-06
1.06399e-05
1.2101e-05
4.31454e-06
2.24999e-05
7.19053e-06
8.88758e-06
7.18861e-06
2.25018e-05
1.21101e-05
4.3553e-06
1.06421e-05
3.49963e-06
1.2107e-05
4.36208e-06
1.06444e-05
2.24818e-05
8.89524e-06
7.20212e-06
2.24835e-05
7.20166e-06
2.24929e-05
7.19629e-06
8.89397e-06
2.24912e-05
7.19757e-06
1.21104e-05
3.51975e-06
4.38394e-06
1.06477e-05
1.21135e-05
4.37773e-06
1.0645e-05
1.21101e-05
1.0642e-05
4.35485e-06
3.49898e-06
1.21071e-05
1.06443e-05
4.36238e-06
2.24811e-05
8.89432e-06
7.20054e-06
7.19937e-06
2.24829e-05
2.24923e-05
7.19475e-06
8.8939e-06
2.24906e-05
7.19567e-06
1.21104e-05
3.52023e-06
1.06476e-05
4.38411e-06
1.06449e-05
4.3772e-06
1.21135e-05
1.21032e-05
3.45711e-06
4.33888e-06
1.06415e-05
4.33138e-06
1.06398e-05
1.21061e-05
2.24988e-05
7.19108e-06
8.88741e-06
7.19144e-06
2.2501e-05
1.21035e-05
3.45719e-06
1.06413e-05
4.3387e-06
1.06395e-05
4.33138e-06
1.21064e-05
2.24997e-05
7.18956e-06
8.88756e-06
7.18976e-06
2.25014e-05
1.21094e-05
4.35507e-06
1.06419e-05
3.49954e-06
1.21064e-05
4.36207e-06
1.06442e-05
2.24801e-05
8.89416e-06
7.20173e-06
7.20151e-06
2.24822e-05
2.24916e-05
7.19672e-06
8.89372e-06
2.24895e-05
7.19692e-06
1.21097e-05
3.51961e-06
4.38417e-06
1.06475e-05
4.3774e-06
1.06447e-05
1.21128e-05
1.21097e-05
1.06416e-05
4.35528e-06
3.49961e-06
1.21067e-05
1.06439e-05
4.3618e-06
2.24809e-05
8.89434e-06
7.19994e-06
7.19996e-06
2.24826e-05
2.2492e-05
7.19523e-06
8.89306e-06
2.24903e-05
7.19556e-06
1.211e-05
3.51964e-06
1.06473e-05
4.38381e-06
1.06445e-05
4.37771e-06
1.21131e-05
9.71728e-06
2.19924e-05
2.19926e-05
2.1992e-05
2.19922e-05
9.71695e-06
3.8129e-06
1.74186e-06
8.97253e-06
5.04793e-06
8.97896e-06
3.80725e-06
1.74931e-06
3.80713e-06
1.7401e-06
8.96786e-06
5.04586e-06
1.74764e-06
3.79971e-06
8.97414e-06
9.71384e-06
2.20022e-05
2.20025e-05
2.20027e-05
9.71394e-06
2.20029e-05
3.82994e-06
8.98859e-06
5.05825e-06
1.77417e-06
8.98202e-06
1.76673e-06
3.83541e-06
3.82193e-06
8.98364e-06
5.0575e-06
1.77234e-06
1.76501e-06
8.97753e-06
3.82961e-06
1.85316e-05
1.85239e-05
1.85094e-05
1.85169e-05
9.71964e-06
2.19817e-05
2.1982e-05
9.72019e-06
2.19821e-05
2.19823e-05
3.87282e-06
1.82235e-06
5.08324e-06
9.00689e-06
1.81536e-06
9.00034e-06
3.8779e-06
3.86573e-06
1.82044e-06
5.08335e-06
9.00179e-06
8.99606e-06
1.81375e-06
3.87061e-06
3.85701e-06
8.99122e-06
1.79126e-06
5.07541e-06
1.79858e-06
3.85174e-06
8.99795e-06
3.84956e-06
8.98697e-06
1.78961e-06
5.07255e-06
3.84402e-06
8.99288e-06
1.79667e-06
9.72268e-06
2.19718e-05
2.1972e-05
2.19715e-05
2.19717e-05
9.7219e-06
1.85071e-05
1.85146e-05
1.21035e-05
3.45762e-06
4.33901e-06
1.06416e-05
4.3319e-06
1.06398e-05
1.21064e-05
2.25108e-05
7.18507e-06
8.887e-06
7.185e-06
2.25089e-05
1.21033e-05
3.43585e-06
4.30674e-06
1.06383e-05
4.3143e-06
1.21005e-05
1.06398e-05
2.24996e-05
7.19104e-06
8.88753e-06
7.19127e-06
2.25014e-05
1.21041e-05
3.45824e-06
4.33937e-06
1.06417e-05
4.33134e-06
1.06399e-05
1.2107e-05
2.2512e-05
7.18321e-06
8.887e-06
2.25102e-05
7.18465e-06
1.21039e-05
3.43505e-06
4.30636e-06
1.06384e-05
1.21011e-05
4.31478e-06
1.06398e-05
2.25008e-05
7.19081e-06
8.88828e-06
7.18896e-06
2.25027e-05
1.21097e-05
4.35547e-06
1.0642e-05
3.49998e-06
1.21066e-05
4.36222e-06
1.06443e-05
2.24808e-05
8.89429e-06
7.20182e-06
7.20156e-06
2.24825e-05
2.24919e-05
7.19684e-06
8.89382e-06
2.24902e-05
7.19698e-06
1.211e-05
3.51991e-06
4.38419e-06
1.06476e-05
4.37782e-06
1.06448e-05
1.21131e-05
1.21103e-05
4.35503e-06
1.0642e-05
3.49917e-06
1.21072e-05
4.3625e-06
1.06443e-05
2.24821e-05
8.89506e-06
7.20067e-06
7.19985e-06
2.24838e-05
2.24933e-05
7.19506e-06
8.89382e-06
2.24915e-05
7.19594e-06
1.21106e-05
3.52051e-06
4.38438e-06
1.06477e-05
4.37742e-06
1.06449e-05
1.21137e-05
1.85322e-05
1.85245e-05
1.85346e-05
1.85269e-05
9.71987e-06
2.19825e-05
2.19821e-05
9.72042e-06
2.19828e-05
2.19824e-05
3.86497e-06
1.82081e-06
5.08183e-06
9.00239e-06
3.87203e-06
1.81382e-06
8.99594e-06
3.87188e-06
1.82236e-06
5.08344e-06
9.00721e-06
3.87921e-06
1.81541e-06
9.0008e-06
3.85148e-06
8.98684e-06
1.78967e-06
5.07385e-06
3.84472e-06
1.79677e-06
8.99347e-06
3.85852e-06
8.99172e-06
1.7912e-06
5.07552e-06
3.85167e-06
1.79835e-06
8.99843e-06
9.72291e-06
2.19725e-05
2.19722e-05
9.72217e-06
2.19722e-05
2.19718e-05
1.85078e-05
1.85153e-05
1.851e-05
1.85176e-05
1.84973e-05
1.849e-05
1.85e-05
1.84926e-05
9.72687e-06
2.19517e-05
2.19516e-05
2.19513e-05
2.19511e-05
9.72578e-06
3.89032e-06
1.83727e-06
9.00468e-06
5.09616e-06
3.88583e-06
9.01027e-06
1.84413e-06
3.8975e-06
1.83849e-06
9.01005e-06
5.09965e-06
3.89297e-06
9.01554e-06
1.84622e-06
9.72417e-06
2.19614e-05
2.19612e-05
9.72514e-06
2.19618e-05
2.19616e-05
3.90542e-06
9.01872e-06
5.10557e-06
1.8678e-06
9.01298e-06
3.90912e-06
1.86021e-06
3.91246e-06
9.02388e-06
5.10665e-06
1.86963e-06
9.01856e-06
3.91647e-06
1.86157e-06
1.21173e-05
3.57627e-06
1.06558e-05
4.42427e-06
1.06521e-05
4.41867e-06
1.21205e-05
2.2474e-05
7.20443e-06
8.89954e-06
2.24724e-05
7.20484e-06
1.2117e-05
3.5584e-06
1.06481e-05
4.39872e-06
1.06513e-05
1.21138e-05
4.4047e-06
2.24628e-05
7.20823e-06
8.90069e-06
7.20781e-06
2.24644e-05
9.72705e-06
2.19515e-05
2.19522e-05
2.19512e-05
2.19519e-05
9.72591e-06
3.89892e-06
1.83844e-06
9.00916e-06
5.09936e-06
9.01544e-06
3.89214e-06
1.84662e-06
3.89048e-06
1.83737e-06
9.005e-06
5.09776e-06
1.84394e-06
3.88594e-06
9.01126e-06
9.72433e-06
2.19615e-05
2.19621e-05
2.19618e-05
9.72526e-06
2.19625e-05
3.91116e-06
9.0238e-06
5.10639e-06
1.86998e-06
9.01769e-06
1.86147e-06
3.91864e-06
3.90541e-06
9.01958e-06
5.10573e-06
1.86708e-06
1.86055e-06
9.01347e-06
3.90943e-06
1.84983e-05
1.84908e-05
1.21174e-05
3.57711e-06
1.06558e-05
4.42453e-06
1.06526e-05
4.41826e-06
1.21206e-05
2.24734e-05
7.20412e-06
8.90046e-06
2.24717e-05
7.20454e-06
1.21171e-05
3.55759e-06
1.06485e-05
4.39846e-06
1.06515e-05
1.21139e-05
4.40495e-06
2.24622e-05
7.2079e-06
8.90088e-06
7.20761e-06
2.24638e-05
1.21167e-05
3.5766e-06
4.42498e-06
1.06557e-05
4.41807e-06
1.06524e-05
1.21198e-05
2.24727e-05
7.2057e-06
8.90026e-06
7.20572e-06
2.24707e-05
1.21163e-05
3.55807e-06
4.39849e-06
1.06483e-05
4.40503e-06
1.21132e-05
1.06514e-05
2.24612e-05
7.20924e-06
8.9007e-06
7.20932e-06
2.24632e-05
1.2117e-05
3.57669e-06
1.06555e-05
4.42429e-06
1.06521e-05
4.41872e-06
1.21202e-05
2.24731e-05
7.20419e-06
8.89967e-06
2.24715e-05
7.20397e-06
1.21167e-05
3.55797e-06
1.0648e-05
4.39883e-06
1.21135e-05
1.06511e-05
4.40465e-06
2.2462e-05
7.20779e-06
8.90086e-06
7.20788e-06
2.24636e-05
9.72655e-06
2.19513e-05
2.19515e-05
2.1951e-05
2.19512e-05
9.72538e-06
3.8979e-06
1.839e-06
9.00917e-06
5.0992e-06
9.01551e-06
3.89292e-06
1.84622e-06
3.89169e-06
1.83735e-06
9.00484e-06
5.09635e-06
1.84408e-06
3.8855e-06
9.01037e-06
9.72382e-06
2.19612e-05
2.19614e-05
2.19615e-05
9.7248e-06
2.19617e-05
3.91248e-06
9.02383e-06
5.10703e-06
1.86961e-06
9.01771e-06
1.86182e-06
3.91637e-06
3.90426e-06
9.01868e-06
5.10641e-06
1.86755e-06
1.86042e-06
9.01334e-06
3.91157e-06
1.84982e-05
1.84909e-05
1.2117e-05
3.57682e-06
4.42515e-06
1.06561e-05
4.41864e-06
1.06522e-05
1.21202e-05
2.2473e-05
7.20563e-06
8.90039e-06
7.20595e-06
2.24714e-05
1.21166e-05
3.55833e-06
4.39897e-06
1.06483e-05
4.40498e-06
1.21135e-05
1.06516e-05
2.24619e-05
7.20944e-06
8.90082e-06
7.20923e-06
2.24635e-05
1.21176e-05
3.57712e-06
4.42501e-06
1.06561e-05
4.41836e-06
1.06524e-05
1.21208e-05
2.24743e-05
7.20416e-06
8.90037e-06
2.24727e-05
7.20471e-06
1.21172e-05
3.55802e-06
4.39859e-06
1.06484e-05
1.2114e-05
4.40516e-06
1.06516e-05
2.24632e-05
7.20813e-06
8.90157e-06
7.20778e-06
2.24648e-05
1.84989e-05
1.84916e-05
1.85011e-05
1.84938e-05
1.27759e-07
1.27757e-07
1.39267e-07
1.26356e-07
1.26353e-07
1.21063e-07
1.226e-07
1.55029e-06
3.1508e-07
6.55705e-07
6.54757e-07
1.22372e-07
1.2237e-07
1.35667e-07
1.21126e-07
1.21123e-07
1.15233e-07
1.16642e-07
1.64942e-06
7.07215e-07
7.0842e-07
3.34567e-07
1.64042e-06
7.12398e-07
7.11388e-07
1.54879e-06
6.51554e-07
6.51127e-07
3.1513e-07
1.54226e-06
6.54571e-07
6.55686e-07
1.61722e-06
3.28811e-07
6.96537e-07
6.9741e-07
6.93523e-07
6.92772e-07
1.62376e-06
1.54942e-06
3.15121e-07
6.5583e-07
6.56036e-07
1.61629e-06
3.28748e-07
6.97993e-07
6.97233e-07
6.92778e-07
6.92523e-07
1.62479e-06
1.54882e-06
6.51926e-07
6.51069e-07
3.15184e-07
6.55347e-07
1.54238e-06
6.54731e-07
1.6172e-06
3.2915e-07
6.96716e-07
6.96249e-07
6.94051e-07
6.93148e-07
1.62396e-06
1.61638e-06
3.29395e-07
6.97468e-07
6.96825e-07
1.62513e-06
6.92683e-07
6.94017e-07
1.64789e-06
7.07935e-07
7.07611e-07
3.35054e-07
1.64143e-06
7.10939e-07
7.1246e-07
1.64869e-06
7.07428e-07
7.0731e-07
3.35069e-07
7.12139e-07
1.64066e-06
7.12708e-07
1.64816e-06
7.0841e-07
7.0806e-07
3.3505e-07
7.10927e-07
1.64145e-06
7.11137e-07
1.27758e-07
1.27751e-07
1.3926e-07
1.26355e-07
1.26347e-07
1.21061e-07
1.22598e-07
1.27763e-07
1.2776e-07
1.39276e-07
1.2636e-07
1.26356e-07
1.21064e-07
1.22601e-07
1.27759e-07
1.27761e-07
1.39274e-07
1.26355e-07
1.26357e-07
1.21063e-07
1.226e-07
1.38278e-07
1.23664e-07
1.23661e-07
1.24988e-07
1.24986e-07
1.19556e-07
1.18085e-07
1.38273e-07
1.23663e-07
1.23655e-07
1.24988e-07
1.2498e-07
1.19555e-07
1.18083e-07
1.38289e-07
1.23668e-07
1.23664e-07
1.24993e-07
1.2499e-07
1.19558e-07
1.18086e-07
1.38284e-07
1.23663e-07
1.23665e-07
1.24988e-07
1.2499e-07
1.19557e-07
1.18085e-07
4.12918e-07
9.8214e-07
1.295e-06
3.38296e-07
1.28681e-06
3.37744e-07
4.13019e-07
5.76486e-07
1.92555e-06
2.6562e-06
8.8778e-07
8.83768e-07
1.91802e-06
5.79637e-07
4.13014e-07
9.82178e-07
3.38332e-07
1.29412e-06
3.37763e-07
1.28743e-06
4.12886e-07
5.68184e-07
8.67464e-07
1.89402e-06
2.63856e-06
5.67256e-07
8.71479e-07
1.9017e-06
4.05986e-07
9.6749e-07
3.32513e-07
1.26407e-06
4.06227e-07
3.33047e-07
1.27149e-06
5.77345e-07
1.92532e-06
2.65606e-06
8.87995e-07
8.83809e-07
1.91799e-06
5.7893e-07
1.56669e-06
3.19215e-07
6.69615e-07
6.68712e-07
6.6452e-07
6.65771e-07
1.57526e-06
1.22372e-07
1.22364e-07
1.35662e-07
1.21125e-07
1.21117e-07
1.15231e-07
1.16641e-07
1.22378e-07
1.22374e-07
1.35677e-07
1.2113e-07
1.21126e-07
1.15234e-07
1.16644e-07
1.22372e-07
1.22374e-07
1.35674e-07
1.21125e-07
1.21126e-07
1.15233e-07
1.16643e-07
4.43781e-07
1.06601e-06
1.3871e-06
3.61251e-07
1.37861e-06
3.60562e-07
4.43265e-07
6.10216e-07
9.33103e-07
1.98777e-06
2.72534e-06
6.09237e-07
9.3765e-07
1.99443e-06
4.3553e-07
1.05119e-06
1.35628e-06
3.54362e-07
4.354e-07
1.36413e-06
3.55098e-07
6.20319e-07
2.0161e-06
2.74149e-06
9.54349e-07
9.49887e-07
2.0102e-06
6.20854e-07
4.43589e-07
1.06618e-06
3.6212e-07
1.38647e-06
3.59993e-07
1.37961e-06
4.43211e-07
6.10853e-07
9.33316e-07
1.98748e-06
2.72546e-06
6.08415e-07
9.37301e-07
1.99519e-06
4.35383e-07
1.0512e-06
3.53961e-07
1.35697e-06
4.35148e-07
3.55775e-07
1.3635e-06
6.19668e-07
2.01661e-06
2.7407e-06
9.55505e-07
9.49651e-07
2.01e-06
6.20537e-07
1.66424e-06
3.40143e-07
7.27274e-07
7.27324e-07
7.21707e-07
7.22478e-07
1.67393e-06
1.56753e-06
3.18981e-07
6.68644e-07
6.6966e-07
1.57402e-06
6.65443e-07
6.64782e-07
1.59904e-06
3.24583e-07
6.79384e-07
6.78746e-07
1.59244e-06
6.82399e-07
6.83413e-07
4.13016e-07
9.81373e-07
1.29463e-06
3.3819e-07
1.28715e-06
3.37534e-07
4.13004e-07
5.68385e-07
8.67786e-07
1.89469e-06
2.63843e-06
1.90098e-06
5.67624e-07
8.71254e-07
4.06025e-07
9.67852e-07
1.26396e-06
3.3229e-07
1.27159e-06
4.06094e-07
3.33029e-07
5.77504e-07
1.92481e-06
2.65596e-06
8.87894e-07
1.91877e-06
8.83939e-07
5.78308e-07
4.12864e-07
9.81611e-07
1.29428e-06
3.38904e-07
1.28773e-06
3.37217e-07
4.13059e-07
5.68512e-07
8.68022e-07
1.89475e-06
2.64105e-06
5.67657e-07
1.90152e-06
8.72133e-07
4.05875e-07
9.67496e-07
1.26455e-06
3.32105e-07
4.05743e-07
1.2709e-06
3.33709e-07
5.77557e-07
1.9256e-06
2.65524e-06
8.88519e-07
1.91769e-06
5.78433e-07
8.84367e-07
4.2009e-07
1.31055e-06
3.42925e-07
1.00946e-06
4.20126e-07
1.31735e-06
3.43548e-07
5.98436e-07
9.20369e-07
2.69975e-06
1.97127e-06
9.1688e-07
1.96548e-06
5.99295e-07
5.88512e-07
1.94238e-06
9.00332e-07
2.68314e-06
9.04172e-07
5.87781e-07
1.94802e-06
4.27534e-07
1.02327e-06
1.34006e-06
3.4922e-07
1.33386e-06
3.48564e-07
4.27748e-07
4.20204e-07
1.3109e-06
3.4256e-07
1.00949e-06
4.20246e-07
1.3172e-06
3.44314e-07
5.98451e-07
9.2127e-07
2.69865e-06
1.97226e-06
1.96412e-06
9.17084e-07
5.99482e-07
5.88659e-07
1.94136e-06
9.00694e-07
2.68503e-06
5.87818e-07
1.94906e-06
9.04686e-07
4.27548e-07
1.0233e-06
1.3402e-06
3.49901e-07
1.33403e-06
3.48044e-07
4.27864e-07
1.56679e-06
3.19026e-07
6.69867e-07
6.69593e-07
6.64441e-07
6.64743e-07
1.57491e-06
1.6004e-06
3.24506e-07
6.78888e-07
6.78581e-07
6.83484e-07
1.59172e-06
6.8317e-07
4.12025e-07
9.81983e-07
1.29407e-06
3.38341e-07
1.28783e-06
3.37749e-07
4.13729e-07
5.67844e-07
8.67958e-07
1.8949e-06
2.63904e-06
1.90107e-06
5.66772e-07
8.71764e-07
4.06866e-07
9.6741e-07
1.2645e-06
3.32527e-07
1.27101e-06
4.0491e-07
3.33073e-07
5.77229e-07
1.92511e-06
2.65651e-06
8.88378e-07
1.91874e-06
8.8418e-07
5.78147e-07
4.12058e-07
9.81989e-07
3.38488e-07
1.29482e-06
3.37268e-07
1.2869e-06
4.13884e-07
5.69676e-07
8.67162e-07
1.89376e-06
2.6392e-06
5.66401e-07
1.90206e-06
8.73351e-07
4.06629e-07
9.67357e-07
3.32082e-07
1.26381e-06
4.05386e-07
3.33577e-07
1.27174e-06
5.76522e-07
1.9263e-06
2.65661e-06
8.89618e-07
1.91771e-06
5.79784e-07
8.8357e-07
4.20011e-07
1.31093e-06
3.42987e-07
1.00894e-06
4.19741e-07
1.31711e-06
3.436e-07
5.98427e-07
9.20811e-07
2.6999e-06
1.97131e-06
9.17045e-07
1.9656e-06
5.99316e-07
5.88533e-07
1.94235e-06
9.0057e-07
2.68377e-06
9.0453e-07
5.8771e-07
1.9485e-06
4.27364e-07
1.02373e-06
1.3403e-06
3.49208e-07
1.33398e-06
3.48572e-07
4.27652e-07
4.21324e-07
3.42652e-07
1.31035e-06
1.00891e-06
4.19129e-07
3.43395e-07
1.31733e-06
5.97337e-07
9.21858e-07
2.70035e-06
1.97216e-06
1.96416e-06
9.16287e-07
6.00944e-07
5.90116e-07
1.94104e-06
8.99831e-07
2.6839e-06
5.86686e-07
1.94885e-06
9.05459e-07
4.26638e-07
1.02378e-06
3.49107e-07
1.3402e-06
3.4847e-07
1.3338e-06
4.28888e-07
4.12474e-07
9.81964e-07
3.38238e-07
1.29456e-06
3.37713e-07
1.28694e-06
4.12749e-07
5.77402e-07
1.9244e-06
2.65574e-06
8.87633e-07
8.8388e-07
1.91831e-06
5.78186e-07
4.2038e-07
1.31021e-06
3.42973e-07
1.00868e-06
4.2029e-07
1.31806e-06
3.43536e-07
5.9808e-07
9.20518e-07
2.69987e-06
1.97168e-06
5.99169e-07
9.16571e-07
1.9647e-06
5.88366e-07
1.9415e-06
9.00166e-07
2.68312e-06
5.87118e-07
9.03966e-07
1.94858e-06
4.27666e-07
1.02374e-06
1.34119e-06
3.49105e-07
4.28003e-07
1.3332e-06
3.48511e-07
4.2034e-07
3.43001e-07
1.31034e-06
1.00911e-06
4.20231e-07
3.4362e-07
1.31781e-06
5.98374e-07
9.20605e-07
2.69855e-06
1.97112e-06
1.96503e-06
9.168e-07
6.00179e-07
5.88582e-07
1.94182e-06
9.00158e-07
2.68467e-06
5.8768e-07
1.94794e-06
9.04036e-07
4.27456e-07
1.0234e-06
3.49817e-07
1.34009e-06
3.48345e-07
1.33343e-06
4.27556e-07
1.56759e-06
3.19128e-07
6.68706e-07
6.69284e-07
6.6462e-07
6.65855e-07
1.57418e-06
1.59913e-06
3.24715e-07
6.79805e-07
6.78704e-07
6.82824e-07
1.5925e-06
6.8263e-07
4.11818e-07
9.82218e-07
3.38962e-07
1.29484e-06
3.37281e-07
1.28704e-06
4.14075e-07
5.68453e-07
8.68119e-07
1.89378e-06
2.6411e-06
8.71926e-07
5.66939e-07
1.9022e-06
4.06788e-07
9.67554e-07
3.32138e-07
1.26392e-06
3.33773e-07
4.0547e-07
1.27184e-06
5.77238e-07
1.92581e-06
2.65535e-06
8.88443e-07
8.84264e-07
1.91771e-06
5.78269e-07
4.20166e-07
3.43036e-07
1.31091e-06
1.009e-06
4.2019e-07
3.43631e-07
1.31738e-06
5.97236e-07
9.20395e-07
2.69978e-06
1.9722e-06
6.0049e-07
9.16689e-07
1.96455e-06
5.8987e-07
1.94151e-06
9.00234e-07
2.68331e-06
5.86983e-07
9.04122e-07
1.94862e-06
4.27483e-07
1.02394e-06
3.49819e-07
1.34023e-06
4.27903e-07
3.48486e-07
1.33399e-06
4.21217e-07
3.42621e-07
1.31057e-06
1.00906e-06
4.19827e-07
3.44349e-07
1.31754e-06
5.98452e-07
9.20915e-07
2.69972e-06
1.97093e-06
1.96482e-06
9.17208e-07
5.99395e-07
5.88602e-07
1.94128e-06
9.00671e-07
2.68413e-06
5.87764e-07
1.94835e-06
9.04769e-07
4.26482e-07
1.02396e-06
3.49932e-07
1.34023e-06
3.48098e-07
1.3339e-06
4.28838e-07
1.60052e-06
3.24322e-07
6.78588e-07
6.79776e-07
1.59164e-06
6.8299e-07
6.82695e-07
1.66542e-06
3.39776e-07
7.25551e-07
7.27148e-07
1.6715e-06
7.22549e-07
7.21891e-07
4.43837e-07
1.06606e-06
1.38631e-06
3.62026e-07
1.37973e-06
3.60195e-07
4.43398e-07
6.10245e-07
9.33515e-07
1.9882e-06
2.72539e-06
1.99369e-06
6.09353e-07
9.37026e-07
4.35327e-07
1.05105e-06
1.35696e-06
3.54387e-07
1.36314e-06
4.3525e-07
3.55317e-07
6.20581e-07
2.01642e-06
2.74059e-06
9.54086e-07
2.01077e-06
9.50239e-07
6.21059e-07
4.43802e-07
1.0659e-06
1.38677e-06
3.6202e-07
1.37924e-06
3.5987e-07
4.43426e-07
6.10362e-07
9.33714e-07
1.98724e-06
2.72758e-06
6.09363e-07
1.99506e-06
9.38156e-07
4.35348e-07
1.05131e-06
1.35698e-06
3.53936e-07
4.35243e-07
1.36372e-06
3.5576e-07
6.2065e-07
2.01785e-06
2.74041e-06
9.54899e-07
2.00943e-06
6.21102e-07
9.505e-07
1.66441e-06
3.39788e-07
7.27499e-07
7.26932e-07
7.21622e-07
7.21715e-07
1.67287e-06
4.43655e-07
1.06604e-06
1.38628e-06
3.62034e-07
1.37961e-06
3.60197e-07
4.43327e-07
6.10224e-07
9.33614e-07
1.9883e-06
2.72738e-06
1.99493e-06
6.09309e-07
9.38444e-07
4.35241e-07
1.05115e-06
1.35693e-06
3.54404e-07
1.36332e-06
4.3496e-07
3.55335e-07
6.20583e-07
2.01766e-06
2.74051e-06
9.55493e-07
2.00999e-06
9.49667e-07
6.21086e-07
4.42987e-07
1.06604e-06
3.61998e-07
1.38609e-06
3.60161e-07
1.3797e-06
4.44736e-07
6.11794e-07
9.33359e-07
1.98735e-06
2.72599e-06
6.08305e-07
1.99457e-06
9.38704e-07
4.3674e-07
1.05114e-06
3.5436e-07
1.35685e-06
4.34379e-07
3.5529e-07
1.36308e-06
6.19151e-07
2.01743e-06
2.74189e-06
9.55871e-07
2.00967e-06
6.23224e-07
9.49915e-07
4.43111e-07
1.06551e-06
3.61975e-07
1.38689e-06
3.59839e-07
1.3791e-06
4.43547e-07
6.11316e-07
9.33515e-07
1.98793e-06
2.72717e-06
9.37231e-07
6.08153e-07
1.99426e-06
4.35213e-07
1.05151e-06
3.5393e-07
1.35661e-06
3.55707e-07
4.34895e-07
1.36345e-06
6.191e-07
2.01723e-06
2.74017e-06
9.54019e-07
9.50202e-07
2.00955e-06
6.23035e-07
1.66546e-06
3.39684e-07
7.259e-07
7.25597e-07
7.22663e-07
7.22984e-07
1.6716e-06
4.43339e-07
1.06623e-06
3.61131e-07
1.38632e-06
3.60256e-07
1.37972e-06
4.43382e-07
6.10233e-07
9.33858e-07
1.98811e-06
2.72593e-06
9.37687e-07
6.09345e-07
1.99382e-06
4.35916e-07
1.05119e-06
3.5409e-07
1.357e-06
3.55435e-07
4.345e-07
1.36333e-06
6.20594e-07
2.01644e-06
2.74198e-06
9.54792e-07
9.50582e-07
2.01036e-06
6.21084e-07
4.99174e-07
4.99994e-07
4.99992e-07
4.99934e-07
4.45594e-07
4.54287e-07
4.54284e-07
4.64044e-07
4.03819e-07
4.18932e-07
4.18943e-07
4.39753e-07
3.68441e-07
3.88851e-07
3.88857e-07
4.17833e-07
3.38085e-07
3.62289e-07
3.62281e-07
3.96016e-07
3.117e-07
3.38366e-07
3.38348e-07
3.74319e-07
2.88506e-07
3.16652e-07
3.16644e-07
3.53374e-07
2.67934e-07
2.9697e-07
2.96972e-07
3.33609e-07
2.49569e-07
2.79261e-07
2.79263e-07
3.15811e-07
2.33106e-07
2.63523e-07
2.63523e-07
3.00366e-07
2.18316e-07
2.4976e-07
2.49756e-07
2.87706e-07
2.05024e-07
2.37962e-07
2.3796e-07
2.78067e-07
1.93089e-07
2.2813e-07
2.28141e-07
2.71402e-07
1.824e-07
2.20276e-07
2.20305e-07
2.6755e-07
1.72867e-07
2.14407e-07
2.14451e-07
2.66974e-07
1.64414e-07
2.10536e-07
2.10591e-07
2.698e-07
1.56978e-07
2.08672e-07
2.08729e-07
2.75981e-07
1.50508e-07
2.08814e-07
2.08871e-07
2.85369e-07
1.44957e-07
2.11024e-07
2.11071e-07
2.98147e-07
2.15299e-07
3.14497e-07
5.06185e-07
5.05562e-07
5.05565e-07
5.06192e-07
5.05562e-07
5.05573e-07
5.05985e-07
5.05984e-07
5.05985e-07
5.05984e-07
5.05566e-07
5.05564e-07
5.06199e-07
5.05567e-07
5.0556e-07
5.06185e-07
4.99901e-07
4.67525e-07
4.99997e-07
5.00001e-07
4.64302e-07
4.64312e-07