/*--------------------------------*- C++ -*----------------------------------*\
| =========                 |                                                 |
| \\      /  F ield         | OpenFOAM: The Open Source CFD Toolbox           |
|  \\    /   O peration     | Version:  2312                                  |
|   \\  /    A nd           | Website:  www.openfoam.com                      |
|    \\/     M anipulation  |                                                 |
\*---------------------------------------------------------------------------*/
FoamFile
{
    version     2.0;
    format      ascii;
    arch        "LSB;label=32;scalar=64";
    class       volScalarField;
    location    "200";
    object      k;
}
// * * * * * * * * * * * * * * * * * * * * * * * * * * * * * * * * * * * * * //

dimensions      [0 2 -2 0 0 0 0];

internalField   nonuniform List<scalar> 
43008
(
1.57093e-05
1.61154e-05
1.52894e-05
1.60642e-05
1.60667e-05
1.76026e-05
1.72616e-05
1.75185e-05
1.61147e-05
1.61144e-05
1.60674e-05
1.60672e-05
1.75177e-05
1.61151e-05
1.61156e-05
1.60676e-05
1.60684e-05
1.60655e-05
1.60669e-05
1.7259e-05
1.75193e-05
1.61158e-05
1.60682e-05
1.60684e-05
1.753e-05
1.7613e-05
1.60658e-05
1.60657e-05
1.76127e-05
1.60661e-05
1.60669e-05
1.60653e-05
1.76148e-05
1.60669e-05
5.00967e-05
6.99072e-05
4.93382e-05
6.99389e-05
6.97734e-05
5.00973e-05
6.99057e-05
4.93362e-05
6.99397e-05
1.57083e-05
1.57094e-05
1.57091e-05
1.53909e-05
1.53898e-05
1.53909e-05
1.53908e-05
2.60168e-05
1.609e-05
4.29341e-05
1.5352e-05
6.97969e-05
6.9773e-05
2.6019e-05
1.54375e-05
4.2455e-05
1.60928e-05
2.54956e-05
1.53536e-05
4.29325e-05
1.73483e-05
5.77597e-05
5.77683e-05
5.19467e-05
6.99766e-05
5.12841e-05
7.00079e-05
6.97127e-05
6.96907e-05
5.19469e-05
6.99773e-05
5.12819e-05
7.00087e-05
1.52886e-05
1.52897e-05
1.52893e-05
2.76618e-05
4.38872e-05
1.51257e-05
1.60666e-05
2.71027e-05
4.43325e-05
1.50583e-05
6.97126e-05
6.96908e-05
2.76648e-05
1.51275e-05
4.38869e-05
1.6069e-05
2.71088e-05
1.50602e-05
4.43334e-05
5.8312e-05
5.83202e-05
1.77429e-05
5.857e-05
5.85783e-05
6.97957e-05
6.97719e-05
6.97974e-05
6.97737e-05
5.74667e-05
5.74788e-05
1.73369e-05
5.77601e-05
5.77733e-05
6.97297e-05
6.97525e-05
6.97316e-05
6.97544e-05
1.74205e-05
5.81785e-05
5.8191e-05
5.79039e-05
5.79157e-05
5.00966e-05
6.99018e-05
4.9338e-05
6.99353e-05
2.60141e-05
4.24531e-05
1.54371e-05
1.6092e-05
2.54937e-05
4.29401e-05
1.53532e-05
2.60149e-05
4.24534e-05
1.54371e-05
1.60916e-05
2.54929e-05
4.29452e-05
1.53531e-05
5.03451e-05
6.99742e-05
6.99417e-05
5.10561e-05
5.03444e-05
6.99703e-05
6.99381e-05
5.10557e-05
2.62889e-05
1.60787e-05
4.36517e-05
1.5198e-05
4.31763e-05
1.52736e-05
2.68308e-05
2.62902e-05
1.60785e-05
4.36535e-05
1.51979e-05
4.31812e-05
1.52735e-05
2.68246e-05
1.7336e-05
5.7768e-05
5.77634e-05
6.97728e-05
6.97314e-05
6.97542e-05
1.74196e-05
5.81862e-05
5.8182e-05
5.79118e-05
5.79071e-05
6.97308e-05
6.97535e-05
2.60157e-05
4.24526e-05
1.54375e-05
1.60923e-05
2.54899e-05
4.29413e-05
1.53536e-05
5.00968e-05
6.99039e-05
4.93367e-05
6.99333e-05
2.60121e-05
1.54375e-05
4.24585e-05
1.60929e-05
2.54928e-05
1.53536e-05
4.29386e-05
5.03424e-05
6.99749e-05
6.99424e-05
5.10566e-05
2.62871e-05
1.6079e-05
4.36549e-05
1.51984e-05
4.31836e-05
1.5274e-05
2.68324e-05
5.03428e-05
6.99683e-05
6.994e-05
5.10559e-05
2.62901e-05
1.60797e-05
1.51985e-05
4.36523e-05
1.5274e-05
4.31857e-05
2.68294e-05
5.00824e-05
6.99362e-05
2.60159e-05
1.60916e-05
1.53526e-05
4.29399e-05
5.00913e-05
6.9934e-05
2.62819e-05
1.60769e-05
4.36473e-05
1.51968e-05
4.31829e-05
1.52724e-05
2.68284e-05
5.03525e-05
6.99712e-05
6.99429e-05
5.1043e-05
2.6285e-05
1.60783e-05
1.51973e-05
4.36524e-05
1.52729e-05
4.31766e-05
2.68291e-05
5.03467e-05
6.99692e-05
6.99366e-05
5.10512e-05
5.74735e-05
5.74683e-05
1.73393e-05
5.77679e-05
5.7762e-05
6.97958e-05
6.9772e-05
6.97311e-05
6.9754e-05
1.74221e-05
5.81868e-05
5.81809e-05
5.79112e-05
5.79068e-05
6.97302e-05
6.97529e-05
2.60207e-05
1.54376e-05
4.24528e-05
1.6093e-05
2.54912e-05
1.53537e-05
4.29429e-05
5.00927e-05
6.99072e-05
4.93477e-05
6.99367e-05
5.00923e-05
6.99024e-05
4.93465e-05
6.99359e-05
2.62889e-05
1.60795e-05
1.51986e-05
4.36458e-05
1.52741e-05
4.31844e-05
2.68324e-05
2.629e-05
1.60798e-05
1.51986e-05
4.36568e-05
1.52741e-05
4.31828e-05
2.68273e-05
5.03538e-05
6.99717e-05
6.99434e-05
5.10515e-05
5.0353e-05
6.99711e-05
6.99386e-05
5.10514e-05
6.97711e-05
6.97739e-05
1.74112e-05
5.81791e-05
5.81873e-05
5.7904e-05
5.79131e-05
6.97293e-05
6.97519e-05
6.97319e-05
6.97548e-05
6.97109e-05
6.96892e-05
6.97128e-05
6.9691e-05
5.83125e-05
5.83242e-05
1.77291e-05
5.85703e-05
5.85815e-05
5.19459e-05
6.99728e-05
5.12831e-05
7.0004e-05
2.76631e-05
4.38809e-05
1.51268e-05
1.60683e-05
2.7107e-05
4.43368e-05
1.50595e-05
2.76581e-05
4.38855e-05
1.51267e-05
1.60682e-05
2.7111e-05
4.43428e-05
1.50593e-05
5.83195e-05
5.83157e-05
1.77282e-05
5.85765e-05
5.85722e-05
6.9712e-05
6.96902e-05
2.76629e-05
4.38872e-05
1.51273e-05
1.60683e-05
2.71047e-05
4.43408e-05
1.506e-05
5.1946e-05
6.99747e-05
5.12812e-05
7.00022e-05
2.76628e-05
1.51274e-05
4.38891e-05
1.60691e-05
2.71068e-05
1.50601e-05
4.43369e-05
5.19337e-05
6.99779e-05
5.12904e-05
7.00051e-05
2.76617e-05
1.51262e-05
4.38812e-05
1.60679e-05
2.7105e-05
1.50589e-05
4.43401e-05
5.19415e-05
6.99717e-05
5.12854e-05
7.0003e-05
5.83199e-05
5.83162e-05
1.77314e-05
5.8578e-05
5.85724e-05
6.97115e-05
6.96897e-05
2.76587e-05
1.51275e-05
4.38843e-05
1.60691e-05
2.71137e-05
1.50602e-05
4.43416e-05
5.19409e-05
6.99781e-05
5.12925e-05
7.00054e-05
5.19407e-05
6.99734e-05
5.12916e-05
7.00048e-05
6.97106e-05
6.96888e-05
6.97132e-05
6.96913e-05
6.97453e-05
4.98503e-05
6.90335e-05
5.70686e-05
6.90256e-05
5.68514e-05
6.97565e-05
7.11549e-05
7.30007e-05
6.99199e-05
7.1151e-05
7.31072e-05
6.97446e-05
4.95914e-05
6.90191e-05
5.64679e-05
6.9734e-05
6.90254e-05
5.66912e-05
7.11313e-05
7.32586e-05
6.99232e-05
7.31511e-05
7.11352e-05
6.9795e-05
6.97756e-05
6.97458e-05
4.98478e-05
5.70669e-05
6.90342e-05
5.68486e-05
6.90265e-05
6.9757e-05
7.11548e-05
7.29993e-05
6.99217e-05
7.11509e-05
7.3103e-05
6.97451e-05
4.95921e-05
5.6465e-05
6.902e-05
6.97346e-05
5.66896e-05
6.90263e-05
7.11312e-05
7.32521e-05
6.99243e-05
7.31523e-05
7.1135e-05
6.97946e-05
6.97752e-05
8.65088e-05
7.2617e-05
7.26111e-05
7.26161e-05
7.26102e-05
8.66108e-05
5.44807e-05
5.75387e-05
3.58074e-05
6.84878e-05
5.45466e-05
5.75484e-05
3.58297e-05
6.84996e-05
8.64646e-05
7.26396e-05
7.26337e-05
5.47233e-05
6.85359e-05
5.76889e-05
3.62383e-05
3.61025e-05
6.85049e-05
5.48351e-05
5.47929e-05
6.8548e-05
5.76982e-05
3.62603e-05
3.61239e-05
6.85171e-05
5.49018e-05
6.97973e-05
5.17281e-05
6.90951e-05
5.84316e-05
6.90802e-05
5.82364e-05
6.98097e-05
7.10754e-05
7.35704e-05
6.99912e-05
7.10719e-05
7.3662e-05
6.9796e-05
5.15103e-05
6.90627e-05
5.79116e-05
6.97837e-05
6.90761e-05
5.81121e-05
7.10519e-05
7.37825e-05
6.99935e-05
7.36935e-05
7.10553e-05
6.97109e-05
6.96924e-05
6.97974e-05
5.17256e-05
5.84305e-05
6.90963e-05
5.8234e-05
6.90801e-05
6.98098e-05
7.10752e-05
7.35662e-05
6.9992e-05
7.10717e-05
7.36576e-05
6.97962e-05
5.15104e-05
5.79091e-05
6.9063e-05
6.97839e-05
5.81106e-05
6.9077e-05
7.10518e-05
7.37755e-05
6.99944e-05
7.36956e-05
7.10551e-05
6.97107e-05
6.96925e-05
8.70535e-05
7.25266e-05
7.25207e-05
7.25259e-05
7.252e-05
8.71386e-05
5.58369e-05
3.737e-05
6.86438e-05
5.83766e-05
5.57368e-05
3.75006e-05
6.86719e-05
5.59047e-05
3.73899e-05
6.86535e-05
5.83852e-05
5.5805e-05
3.75215e-05
6.86852e-05
8.70148e-05
7.25484e-05
7.25425e-05
8.69256e-05
7.25491e-05
7.25432e-05
5.60548e-05
6.87146e-05
5.8507e-05
3.79115e-05
3.77821e-05
6.86866e-05
5.61529e-05
5.61221e-05
6.87277e-05
5.85145e-05
3.79324e-05
3.78003e-05
6.86967e-05
5.62209e-05
6.97935e-05
6.97739e-05
6.97951e-05
6.97758e-05
8.65132e-05
7.2618e-05
7.26115e-05
7.26171e-05
7.26106e-05
8.6614e-05
5.44821e-05
3.56703e-05
6.84547e-05
5.75404e-05
5.43625e-05
6.84899e-05
3.58122e-05
5.45505e-05
3.56882e-05
6.84661e-05
5.75522e-05
5.44297e-05
6.85024e-05
3.58273e-05
8.64679e-05
7.26397e-05
7.26332e-05
8.63631e-05
7.26408e-05
7.26343e-05
5.47218e-05
6.85381e-05
5.76891e-05
3.62429e-05
6.85041e-05
5.48355e-05
3.61016e-05
5.47888e-05
6.85507e-05
5.77017e-05
3.62573e-05
6.85159e-05
5.49031e-05
3.61221e-05
6.97315e-05
6.97506e-05
6.97334e-05
6.97524e-05
8.67542e-05
7.25944e-05
7.25879e-05
8.66581e-05
7.25952e-05
7.25887e-05
5.54061e-05
3.70871e-05
5.81113e-05
6.86303e-05
6.85977e-05
3.69491e-05
5.55149e-05
5.54746e-05
3.71041e-05
5.81241e-05
6.86426e-05
6.861e-05
3.6972e-05
5.55829e-05
5.51804e-05
6.85518e-05
3.65274e-05
5.79732e-05
5.50701e-05
6.85851e-05
3.66675e-05
5.5248e-05
6.85637e-05
3.65493e-05
5.79847e-05
5.51375e-05
6.85973e-05
3.66827e-05
8.67961e-05
7.25725e-05
7.2566e-05
7.25717e-05
7.25652e-05
8.68892e-05
6.97443e-05
4.98496e-05
6.90332e-05
5.70659e-05
6.90254e-05
5.6846e-05
6.97554e-05
7.11531e-05
7.29779e-05
6.99172e-05
7.11493e-05
7.30889e-05
6.97436e-05
4.95913e-05
6.90189e-05
5.64625e-05
6.90252e-05
6.97331e-05
5.66889e-05
7.11296e-05
7.32336e-05
6.99202e-05
7.31364e-05
7.11332e-05
6.97692e-05
6.90349e-05
5.72197e-05
5.05852e-05
6.97575e-05
6.90449e-05
5.74312e-05
7.10918e-05
6.99592e-05
7.35338e-05
7.10955e-05
7.34375e-05
7.11154e-05
7.32994e-05
6.99569e-05
7.11116e-05
7.34006e-05
6.97704e-05
5.08232e-05
6.90593e-05
5.77788e-05
6.97824e-05
6.90474e-05
5.75729e-05
6.9768e-05
6.90346e-05
5.7214e-05
5.05848e-05
6.97564e-05
6.90447e-05
5.7428e-05
7.10898e-05
6.99556e-05
7.35069e-05
7.34238e-05
7.10932e-05
7.11133e-05
7.32809e-05
6.9953e-05
7.11097e-05
7.33751e-05
6.97692e-05
5.08224e-05
6.9059e-05
5.77752e-05
6.90471e-05
5.75675e-05
6.97812e-05
8.6517e-05
7.26124e-05
7.26182e-05
7.26115e-05
7.26173e-05
8.66133e-05
5.45489e-05
5.7548e-05
6.8501e-05
3.58328e-05
5.44803e-05
5.75436e-05
3.58095e-05
6.84903e-05
8.64665e-05
7.26351e-05
7.26408e-05
5.47906e-05
6.85493e-05
5.76972e-05
3.62616e-05
6.85146e-05
3.61215e-05
5.49022e-05
5.47247e-05
6.85387e-05
5.76921e-05
3.62391e-05
3.61028e-05
6.85075e-05
5.48336e-05
6.97943e-05
6.97747e-05
6.97332e-05
6.97522e-05
8.67547e-05
7.25888e-05
7.25946e-05
8.66583e-05
7.25897e-05
7.25954e-05
5.54771e-05
3.71055e-05
5.81195e-05
6.8641e-05
3.69723e-05
6.86087e-05
5.558e-05
5.54092e-05
3.70863e-05
5.81153e-05
6.86306e-05
6.86016e-05
3.69521e-05
5.5513e-05
5.52454e-05
6.85625e-05
3.65489e-05
5.79802e-05
3.66846e-05
5.51396e-05
6.85961e-05
5.51791e-05
6.85552e-05
3.65298e-05
5.79757e-05
5.50727e-05
6.85854e-05
3.66658e-05
8.67955e-05
7.25671e-05
7.25726e-05
7.25662e-05
7.25719e-05
8.68897e-05
6.97326e-05
6.97516e-05
6.97441e-05
4.98483e-05
6.90338e-05
5.70623e-05
6.9026e-05
5.68456e-05
6.97553e-05
7.11518e-05
7.29795e-05
6.99152e-05
7.11479e-05
7.308e-05
6.97434e-05
4.95917e-05
6.90195e-05
5.6462e-05
6.90258e-05
6.97329e-05
5.66855e-05
7.11283e-05
7.32294e-05
6.99221e-05
7.31329e-05
7.1132e-05
6.97696e-05
5.72168e-05
6.90357e-05
5.05856e-05
6.97579e-05
5.74295e-05
6.90456e-05
7.10916e-05
6.99601e-05
7.35309e-05
7.10952e-05
7.34348e-05
7.11152e-05
7.32946e-05
6.99575e-05
7.11114e-05
7.33961e-05
6.97707e-05
5.08207e-05
5.77773e-05
6.906e-05
6.97827e-05
5.75702e-05
6.90481e-05
6.97679e-05
6.90352e-05
5.72133e-05
5.0585e-05
6.97563e-05
6.90452e-05
5.74242e-05
7.10887e-05
6.99577e-05
7.35033e-05
7.34212e-05
7.10922e-05
7.11122e-05
7.32785e-05
6.99511e-05
7.11085e-05
7.33716e-05
6.9769e-05
5.08205e-05
6.90596e-05
5.77717e-05
6.90475e-05
5.75668e-05
6.9781e-05
6.97437e-05
4.9858e-05
5.70471e-05
6.90327e-05
5.68604e-05
6.90251e-05
6.97547e-05
7.11284e-05
7.32442e-05
6.99251e-05
7.31472e-05
7.11329e-05
6.97431e-05
4.98522e-05
6.90325e-05
5.70614e-05
6.90248e-05
5.68476e-05
6.97542e-05
7.1128e-05
7.32337e-05
6.99186e-05
7.31295e-05
7.11319e-05
6.97673e-05
5.72276e-05
6.90343e-05
5.05712e-05
6.97559e-05
5.741e-05
6.90441e-05
7.1089e-05
6.99607e-05
7.35189e-05
7.34346e-05
7.10932e-05
7.11131e-05
7.32948e-05
6.99539e-05
7.11087e-05
7.33847e-05
6.97686e-05
5.08301e-05
5.77587e-05
6.90584e-05
5.75804e-05
6.90467e-05
6.97804e-05
6.97669e-05
6.9034e-05
5.72158e-05
5.05797e-05
6.97552e-05
6.90439e-05
5.7424e-05
7.10885e-05
6.99542e-05
7.35092e-05
7.34136e-05
7.10921e-05
7.1112e-05
7.32748e-05
6.99518e-05
7.11083e-05
7.33751e-05
6.97681e-05
5.08246e-05
6.90582e-05
5.77718e-05
6.90465e-05
5.7569e-05
6.97801e-05
8.65129e-05
7.26117e-05
7.26174e-05
7.26109e-05
7.26166e-05
8.66093e-05
5.45478e-05
3.56929e-05
6.84648e-05
5.75475e-05
6.85003e-05
5.44352e-05
3.58309e-05
5.44797e-05
3.56713e-05
6.8455e-05
5.75415e-05
3.58099e-05
5.43674e-05
6.84904e-05
8.64632e-05
7.26334e-05
7.26391e-05
7.26344e-05
8.63617e-05
7.26401e-05
5.47929e-05
6.8548e-05
5.76964e-05
3.62622e-05
6.85148e-05
3.61241e-05
5.49054e-05
5.4725e-05
6.85387e-05
5.76914e-05
3.62396e-05
3.61044e-05
6.85042e-05
5.48351e-05
6.97935e-05
6.97741e-05
6.97331e-05
6.97519e-05
8.67496e-05
7.25883e-05
7.25939e-05
8.66572e-05
7.2589e-05
7.25948e-05
5.54752e-05
3.71101e-05
5.81196e-05
6.86389e-05
3.69713e-05
6.86103e-05
5.5584e-05
5.54093e-05
3.70881e-05
5.81149e-05
6.86308e-05
6.85982e-05
3.69534e-05
5.55135e-05
5.52487e-05
6.85637e-05
3.65492e-05
5.79799e-05
3.66881e-05
5.51378e-05
6.85938e-05
5.51788e-05
6.85521e-05
3.65316e-05
5.79746e-05
5.50724e-05
6.85855e-05
3.66654e-05
8.67953e-05
7.25664e-05
7.25721e-05
7.25657e-05
7.25713e-05
8.68843e-05
6.9732e-05
6.97509e-05
6.97449e-05
4.98597e-05
5.70661e-05
6.90334e-05
5.6854e-05
6.90257e-05
6.9756e-05
7.11542e-05
7.29988e-05
6.99187e-05
7.30999e-05
7.11503e-05
6.97441e-05
4.95878e-05
5.64708e-05
6.90192e-05
5.66889e-05
6.97336e-05
6.90253e-05
7.11307e-05
7.32472e-05
6.99255e-05
7.31539e-05
7.11344e-05
6.97439e-05
4.98584e-05
5.70643e-05
6.90331e-05
5.68483e-05
6.90253e-05
6.9755e-05
7.11527e-05
7.29789e-05
6.99179e-05
7.11488e-05
7.30831e-05
6.97431e-05
4.95875e-05
5.6465e-05
6.90188e-05
6.97326e-05
5.66871e-05
6.9025e-05
7.11292e-05
7.32303e-05
6.99207e-05
7.31345e-05
7.1133e-05
6.97687e-05
5.72218e-05
6.9035e-05
5.05805e-05
6.97571e-05
5.74282e-05
6.90449e-05
7.10911e-05
6.9961e-05
7.35224e-05
7.34376e-05
7.10945e-05
7.11145e-05
7.32997e-05
6.99544e-05
7.1111e-05
7.33878e-05
6.97699e-05
5.08318e-05
5.77759e-05
6.90592e-05
5.75748e-05
6.90475e-05
6.97819e-05
6.97677e-05
5.72163e-05
6.90345e-05
5.05805e-05
6.9756e-05
5.74266e-05
6.90446e-05
7.10898e-05
6.99562e-05
7.35057e-05
7.34215e-05
7.10932e-05
7.11132e-05
7.32783e-05
6.99536e-05
7.11095e-05
7.33737e-05
6.97689e-05
5.0831e-05
5.77742e-05
6.90589e-05
5.75696e-05
6.9047e-05
6.97809e-05
6.97925e-05
6.97731e-05
6.97954e-05
6.97761e-05
8.67516e-05
7.25935e-05
7.25877e-05
8.6654e-05
7.25944e-05
7.25885e-05
5.5409e-05
3.70855e-05
5.8112e-05
6.8628e-05
5.55137e-05
3.69526e-05
6.85991e-05
5.54778e-05
3.71072e-05
5.81203e-05
6.86405e-05
5.55819e-05
3.69729e-05
6.86112e-05
5.5179e-05
6.85527e-05
3.65298e-05
5.79726e-05
5.5071e-05
3.6665e-05
6.85827e-05
5.52466e-05
6.85649e-05
3.6551e-05
5.79813e-05
5.51406e-05
3.6686e-05
6.85949e-05
8.67924e-05
7.25717e-05
7.25658e-05
8.68857e-05
7.25709e-05
7.25651e-05
6.97311e-05
6.975e-05
6.97339e-05
6.97528e-05
6.97092e-05
6.96908e-05
6.97111e-05
6.96926e-05
8.70561e-05
7.25273e-05
7.25209e-05
7.25265e-05
7.25201e-05
8.71431e-05
5.5839e-05
3.73668e-05
6.86423e-05
5.83769e-05
5.57319e-05
6.86742e-05
3.75023e-05
5.59067e-05
3.73888e-05
6.86547e-05
5.83892e-05
5.58007e-05
6.86864e-05
3.75193e-05
8.70184e-05
7.25491e-05
7.25426e-05
8.69288e-05
7.25499e-05
7.25434e-05
5.60491e-05
6.87156e-05
5.85079e-05
3.79098e-05
6.86858e-05
5.61538e-05
3.77787e-05
5.61184e-05
6.87287e-05
5.85188e-05
3.79298e-05
6.86978e-05
5.62212e-05
3.78008e-05
6.9796e-05
5.17272e-05
6.90943e-05
5.84275e-05
6.90803e-05
5.82311e-05
6.98083e-05
7.10732e-05
7.35506e-05
6.99874e-05
7.10698e-05
7.36367e-05
6.97947e-05
5.15094e-05
6.90625e-05
5.79066e-05
6.90757e-05
6.97825e-05
5.81085e-05
7.10498e-05
7.37566e-05
6.99897e-05
7.36796e-05
7.1053e-05
8.70571e-05
7.25217e-05
7.25273e-05
7.2521e-05
7.25266e-05
8.7142e-05
5.59037e-05
3.7389e-05
6.86553e-05
5.83839e-05
6.86832e-05
5.58045e-05
3.75202e-05
5.58373e-05
3.73689e-05
6.86462e-05
5.83795e-05
3.75001e-05
5.57357e-05
6.86741e-05
8.70185e-05
7.25436e-05
7.25492e-05
7.25443e-05
8.69287e-05
7.25499e-05
5.61223e-05
6.87252e-05
5.85145e-05
3.79306e-05
6.86985e-05
3.78005e-05
5.62192e-05
5.60543e-05
6.87163e-05
5.8511e-05
3.79095e-05
3.77809e-05
6.86893e-05
5.61503e-05
6.97103e-05
6.96918e-05
6.97958e-05
5.17249e-05
6.9096e-05
5.84247e-05
6.90795e-05
5.82304e-05
6.98081e-05
7.10722e-05
7.35482e-05
6.99855e-05
7.10687e-05
7.3633e-05
6.97945e-05
5.15097e-05
6.90625e-05
5.79056e-05
6.90767e-05
6.97823e-05
5.81052e-05
7.10488e-05
7.37519e-05
6.99918e-05
7.36776e-05
7.10521e-05
6.97954e-05
5.17336e-05
5.84127e-05
6.90944e-05
5.82425e-05
6.90791e-05
6.98074e-05
7.10732e-05
7.35661e-05
6.99883e-05
7.36467e-05
7.10691e-05
6.97939e-05
5.14974e-05
5.79184e-05
6.90619e-05
5.80929e-05
6.97819e-05
6.90752e-05
7.10491e-05
7.37678e-05
6.99948e-05
7.36906e-05
7.10531e-05
6.9795e-05
5.17288e-05
6.90942e-05
5.84246e-05
6.9079e-05
5.82323e-05
6.98073e-05
7.10721e-05
7.35458e-05
6.99863e-05
7.10686e-05
7.36371e-05
6.97936e-05
5.1505e-05
6.90617e-05
5.79077e-05
6.97814e-05
6.90751e-05
5.81052e-05
7.10487e-05
7.37576e-05
6.99887e-05
7.36705e-05
7.10521e-05
8.70524e-05
7.25212e-05
7.25269e-05
7.25205e-05
7.25261e-05
8.71386e-05
5.59088e-05
3.73872e-05
6.8655e-05
5.83847e-05
6.86828e-05
5.58012e-05
3.75253e-05
5.58351e-05
3.73708e-05
6.8643e-05
5.83798e-05
3.75004e-05
5.57369e-05
6.86745e-05
8.70144e-05
7.2543e-05
7.25487e-05
7.25437e-05
8.69256e-05
7.25494e-05
5.61177e-05
6.87252e-05
5.85153e-05
3.79337e-05
6.86981e-05
3.77989e-05
5.62217e-05
5.60547e-05
6.87167e-05
5.85106e-05
3.79113e-05
3.77821e-05
6.86861e-05
5.61512e-05
6.97098e-05
6.96914e-05
6.97968e-05
5.17362e-05
5.84286e-05
6.90945e-05
5.8238e-05
6.90809e-05
6.9809e-05
7.10746e-05
7.35696e-05
6.99887e-05
7.36499e-05
7.10712e-05
6.97954e-05
5.15047e-05
5.79134e-05
6.9063e-05
5.81093e-05
6.97832e-05
6.90759e-05
7.10513e-05
7.37708e-05
6.99952e-05
7.36954e-05
7.10545e-05
6.97958e-05
5.17356e-05
5.84266e-05
6.90943e-05
5.82327e-05
6.90802e-05
6.9808e-05
7.10733e-05
7.35493e-05
6.99882e-05
7.10698e-05
7.36344e-05
6.97944e-05
5.15045e-05
5.79081e-05
6.90623e-05
6.97822e-05
5.81073e-05
6.90757e-05
7.10499e-05
7.37544e-05
6.99904e-05
7.36768e-05
7.10532e-05
6.97088e-05
6.96904e-05
6.97114e-05
6.96929e-05
1.59849e-05
1.59853e-05
1.56005e-05
1.5859e-05
1.58594e-05
1.62834e-05
1.64153e-05
3.44237e-05
1.72658e-05
2.26251e-05
2.26258e-05
1.54936e-05
1.54941e-05
1.51932e-05
1.53772e-05
1.53776e-05
1.5773e-05
1.58975e-05
3.61859e-05
2.36637e-05
2.36834e-05
1.76327e-05
3.60566e-05
2.37625e-05
2.37555e-05
3.44358e-05
2.25542e-05
2.25665e-05
1.72607e-05
3.42817e-05
2.26327e-05
2.26285e-05
3.56163e-05
1.75135e-05
2.34615e-05
2.34638e-05
2.33868e-05
2.33951e-05
3.57478e-05
3.44254e-05
1.72595e-05
2.2624e-05
2.26278e-05
3.562e-05
1.7513e-05
2.34655e-05
2.3457e-05
2.33937e-05
2.33921e-05
3.57536e-05
3.44295e-05
2.25522e-05
2.25554e-05
1.72602e-05
2.26249e-05
3.42943e-05
2.26482e-05
3.56208e-05
1.75148e-05
2.34809e-05
2.34611e-05
2.33808e-05
2.33902e-05
3.57528e-05
3.56226e-05
1.75027e-05
2.34723e-05
2.34651e-05
3.5753e-05
2.33801e-05
2.3394e-05
3.61814e-05
2.36759e-05
2.36828e-05
1.76197e-05
3.60541e-05
2.37516e-05
2.37552e-05
3.61846e-05
2.3683e-05
2.36814e-05
1.76188e-05
2.37463e-05
3.60546e-05
2.37549e-05
3.6185e-05
2.36713e-05
2.36769e-05
1.76216e-05
2.37551e-05
3.6055e-05
2.3772e-05
1.59846e-05
1.59845e-05
1.55994e-05
1.58586e-05
1.58585e-05
1.62831e-05
1.64151e-05
1.5985e-05
1.59853e-05
1.56006e-05
1.58591e-05
1.58593e-05
1.62833e-05
1.64153e-05
1.59846e-05
1.59851e-05
1.56004e-05
1.58586e-05
1.58592e-05
1.62832e-05
1.64151e-05
1.54933e-05
1.56134e-05
1.56138e-05
1.57346e-05
1.5735e-05
1.61528e-05
1.60246e-05
1.54924e-05
1.56131e-05
1.5613e-05
1.57343e-05
1.57342e-05
1.61525e-05
1.60243e-05
1.54935e-05
1.56135e-05
1.56137e-05
1.57347e-05
1.57349e-05
1.61527e-05
1.60245e-05
1.54932e-05
1.5613e-05
1.56137e-05
1.57342e-05
1.57348e-05
1.61525e-05
1.60243e-05
1.8286e-05
2.58809e-05
3.015e-05
1.69995e-05
3.00122e-05
1.69681e-05
1.83301e-05
2.07147e-05
3.69331e-05
4.28224e-05
2.53547e-05
2.52635e-05
3.68153e-05
2.07535e-05
1.83016e-05
2.58907e-05
1.69934e-05
3.01513e-05
1.69789e-05
3.00216e-05
1.83191e-05
2.05554e-05
2.4953e-05
3.64065e-05
4.25667e-05
2.05169e-05
2.50358e-05
3.6529e-05
1.81882e-05
2.56178e-05
1.68922e-05
2.95965e-05
1.8172e-05
1.69052e-05
2.97267e-05
2.07178e-05
3.69387e-05
4.28235e-05
2.53554e-05
2.52667e-05
3.68192e-05
2.07588e-05
3.47402e-05
1.733e-05
2.28969e-05
2.29004e-05
2.28289e-05
2.28343e-05
3.48708e-05
1.54934e-05
1.54933e-05
1.51922e-05
1.53769e-05
1.53768e-05
1.57727e-05
1.58973e-05
1.54938e-05
1.5494e-05
1.51933e-05
1.53773e-05
1.53776e-05
1.57729e-05
1.58975e-05
1.54933e-05
1.54939e-05
1.51931e-05
1.53769e-05
1.53775e-05
1.57728e-05
1.58973e-05
1.88824e-05
2.75192e-05
3.18589e-05
1.74394e-05
3.17242e-05
1.7397e-05
1.8936e-05
2.14136e-05
2.62373e-05
3.80334e-05
4.39926e-05
2.13674e-05
2.63296e-05
3.81484e-05
1.87725e-05
2.72427e-05
3.12961e-05
1.72766e-05
1.87211e-05
3.14317e-05
1.73168e-05
2.15987e-05
3.85436e-05
4.42291e-05
2.66661e-05
2.65704e-05
3.84314e-05
2.16481e-05
1.89017e-05
2.75259e-05
1.74314e-05
3.18626e-05
1.7411e-05
3.17313e-05
1.89262e-05
2.14155e-05
2.62387e-05
3.80338e-05
4.39933e-05
2.1371e-05
2.63295e-05
3.81532e-05
1.87632e-05
2.72459e-05
1.72898e-05
3.13031e-05
1.87402e-05
1.73087e-05
3.14337e-05
2.16025e-05
3.85478e-05
4.42281e-05
2.66635e-05
2.65718e-05
3.8432e-05
2.16493e-05
3.64853e-05
1.7711e-05
2.40575e-05
2.4057e-05
2.39591e-05
2.39789e-05
3.6615e-05
3.47303e-05
1.73377e-05
2.28967e-05
2.28988e-05
3.48793e-05
2.28229e-05
2.28369e-05
3.53172e-05
1.74235e-05
2.31024e-05
2.31127e-05
3.51755e-05
2.31775e-05
2.31773e-05
1.82873e-05
2.58867e-05
3.01552e-05
1.69919e-05
3.00152e-05
1.69772e-05
1.83311e-05
2.05691e-05
2.49397e-05
3.64031e-05
4.25714e-05
3.65393e-05
2.05014e-05
2.50507e-05
1.81997e-05
2.56178e-05
2.9591e-05
1.68905e-05
2.97301e-05
1.81587e-05
1.69035e-05
2.07038e-05
3.69509e-05
4.28162e-05
2.5366e-05
3.68097e-05
2.52541e-05
2.07723e-05
1.83021e-05
2.5888e-05
3.01532e-05
1.69922e-05
3.00161e-05
1.69773e-05
1.83187e-05
2.05512e-05
2.49529e-05
3.64018e-05
4.25789e-05
2.05163e-05
3.65248e-05
2.50514e-05
1.81879e-05
2.56161e-05
2.95932e-05
1.6891e-05
1.81728e-05
2.97295e-05
1.69041e-05
2.07175e-05
3.69335e-05
4.2821e-05
2.53672e-05
3.68192e-05
2.07561e-05
2.52669e-05
1.84716e-05
3.04415e-05
1.70695e-05
2.64194e-05
1.84251e-05
3.05835e-05
1.70978e-05
2.11317e-05
2.60127e-05
4.35314e-05
3.77631e-05
2.58982e-05
3.76243e-05
2.12034e-05
2.09843e-05
3.7219e-05
2.55735e-05
4.32991e-05
2.56864e-05
2.09139e-05
3.73602e-05
1.85704e-05
2.66959e-05
3.10117e-05
1.72037e-05
3.08681e-05
1.71676e-05
1.8619e-05
1.8458e-05
3.0443e-05
1.70715e-05
2.64168e-05
1.84388e-05
3.05813e-05
1.70892e-05
2.11434e-05
2.60123e-05
4.35372e-05
3.7747e-05
3.76354e-05
2.59109e-05
2.12021e-05
2.09691e-05
3.72281e-05
2.55857e-05
4.33014e-05
2.09279e-05
3.73445e-05
2.56866e-05
1.85845e-05
2.66986e-05
3.10093e-05
1.7203e-05
3.08695e-05
1.71723e-05
1.86048e-05
3.47402e-05
1.73367e-05
2.29009e-05
2.28952e-05
2.28314e-05
2.28341e-05
3.48717e-05
3.53174e-05
1.74227e-05
2.31091e-05
2.31073e-05
2.3181e-05
3.51815e-05
2.31731e-05
1.83018e-05
2.58851e-05
3.01531e-05
1.70002e-05
3.00198e-05
1.69711e-05
1.83291e-05
2.05526e-05
2.49498e-05
3.64114e-05
4.25781e-05
3.65259e-05
2.05169e-05
2.50456e-05
1.81885e-05
2.56185e-05
2.9595e-05
1.68854e-05
2.97244e-05
1.81736e-05
1.6912e-05
2.07192e-05
3.69414e-05
4.28211e-05
2.53549e-05
3.68239e-05
2.52668e-05
2.07559e-05
1.83028e-05
2.58895e-05
1.70014e-05
3.01491e-05
1.69718e-05
3.00192e-05
1.83208e-05
2.05575e-05
2.49585e-05
3.64016e-05
4.25724e-05
2.05177e-05
3.65248e-05
2.50497e-05
1.81898e-05
2.5615e-05
1.68858e-05
2.95943e-05
1.81736e-05
1.69125e-05
2.97242e-05
2.07182e-05
3.69369e-05
4.28255e-05
2.53629e-05
3.68145e-05
2.07613e-05
2.52736e-05
1.84725e-05
3.04426e-05
1.70658e-05
2.64224e-05
1.84298e-05
3.05814e-05
1.70972e-05
2.11473e-05
2.60054e-05
4.35395e-05
3.77659e-05
2.59139e-05
3.76305e-05
2.11867e-05
2.0967e-05
3.72281e-05
2.55897e-05
4.32996e-05
2.56751e-05
2.09298e-05
3.73553e-05
1.8574e-05
2.66929e-05
3.10109e-05
1.72026e-05
3.08693e-05
1.71693e-05
1.86215e-05
1.84606e-05
1.70663e-05
3.04456e-05
2.6419e-05
1.8441e-05
1.70982e-05
3.05743e-05
2.11456e-05
2.60069e-05
4.35407e-05
3.77449e-05
3.76328e-05
2.59192e-05
2.11906e-05
2.09726e-05
3.72254e-05
2.55942e-05
4.32998e-05
2.09284e-05
3.73444e-05
2.56813e-05
1.85862e-05
2.6695e-05
1.72044e-05
3.10031e-05
1.71697e-05
3.08728e-05
1.86076e-05
1.82874e-05
2.58824e-05
1.69994e-05
3.01555e-05
1.69682e-05
3.00103e-05
1.83321e-05
2.07041e-05
3.69417e-05
4.28148e-05
2.53572e-05
2.52576e-05
3.68065e-05
2.07705e-05
1.84698e-05
3.04405e-05
1.70623e-05
2.64199e-05
1.84238e-05
3.05746e-05
1.70969e-05
2.11428e-05
2.60008e-05
4.35386e-05
3.77484e-05
2.11876e-05
2.59084e-05
3.76334e-05
2.09664e-05
3.72265e-05
2.55818e-05
4.3295e-05
2.09247e-05
2.56779e-05
3.73405e-05
1.85683e-05
2.66896e-05
3.10047e-05
1.72028e-05
1.86164e-05
3.08697e-05
1.71651e-05
1.8472e-05
1.70626e-05
3.04367e-05
2.64214e-05
1.84251e-05
1.70973e-05
3.0582e-05
2.11314e-05
2.60092e-05
4.35319e-05
3.77517e-05
3.76218e-05
2.59015e-05
2.11996e-05
2.09835e-05
3.72158e-05
2.55773e-05
4.33001e-05
2.09128e-05
3.73503e-05
2.56804e-05
1.85705e-05
2.66917e-05
1.7203e-05
3.1008e-05
1.71656e-05
3.08646e-05
1.86196e-05
3.47392e-05
1.73377e-05
2.2919e-05
2.28946e-05
2.28308e-05
2.28224e-05
3.48764e-05
3.53165e-05
1.7425e-05
2.30983e-05
2.3108e-05
2.31951e-05
3.51821e-05
2.31731e-05
1.83036e-05
2.58873e-05
1.69934e-05
3.01523e-05
1.69786e-05
3.00218e-05
1.83203e-05
2.05542e-05
2.49584e-05
3.64093e-05
4.25759e-05
2.50469e-05
2.05195e-05
3.65207e-05
1.81891e-05
2.56226e-05
1.68922e-05
2.95969e-05
1.69053e-05
1.8174e-05
2.9725e-05
2.07214e-05
3.69341e-05
4.28224e-05
2.53624e-05
2.5273e-05
3.68209e-05
2.07576e-05
1.84599e-05
1.70734e-05
3.04474e-05
2.64229e-05
1.84404e-05
1.70898e-05
3.05788e-05
2.11451e-05
2.6003e-05
4.35393e-05
3.77518e-05
2.11912e-05
2.59094e-05
3.76335e-05
2.09709e-05
3.72282e-05
2.55844e-05
4.32925e-05
2.09281e-05
2.56796e-05
3.73468e-05
1.85857e-05
2.66966e-05
1.71947e-05
3.10076e-05
1.86076e-05
1.71775e-05
3.08748e-05
1.84599e-05
1.70729e-05
3.04467e-05
2.64228e-05
1.84416e-05
1.709e-05
3.05782e-05
2.11396e-05
2.60212e-05
4.35387e-05
3.77486e-05
3.76344e-05
2.59092e-05
2.12015e-05
2.09752e-05
3.72287e-05
2.55926e-05
4.33e-05
2.0932e-05
3.73451e-05
2.56885e-05
1.85874e-05
2.66992e-05
1.71959e-05
3.10049e-05
1.71768e-05
3.0875e-05
1.86075e-05
3.53122e-05
1.74352e-05
2.31063e-05
2.31106e-05
3.51843e-05
2.31791e-05
2.31805e-05
3.64845e-05
1.7721e-05
2.40479e-05
2.40518e-05
3.66089e-05
2.39709e-05
2.39791e-05
1.8884e-05
2.75232e-05
3.18619e-05
1.74402e-05
3.17258e-05
1.7399e-05
1.89363e-05
2.14227e-05
2.62293e-05
3.80269e-05
4.39951e-05
3.81637e-05
2.13583e-05
2.63425e-05
1.87746e-05
2.72452e-05
3.12961e-05
1.72792e-05
3.14366e-05
1.87234e-05
1.73182e-05
2.1591e-05
3.85576e-05
4.42246e-05
2.66647e-05
3.84249e-05
2.65633e-05
2.16384e-05
1.88863e-05
2.75274e-05
3.18655e-05
1.74402e-05
3.17224e-05
1.73981e-05
1.89364e-05
2.14298e-05
2.62394e-05
3.80347e-05
4.39994e-05
2.1355e-05
3.81527e-05
2.63436e-05
1.87684e-05
2.724e-05
3.12961e-05
1.72788e-05
1.87358e-05
3.14385e-05
1.73181e-05
2.15844e-05
3.85531e-05
4.42269e-05
2.66789e-05
3.84261e-05
2.16626e-05
2.65716e-05
3.64847e-05
1.77208e-05
2.40527e-05
2.40453e-05
2.39761e-05
2.39774e-05
3.66119e-05
1.88879e-05
2.75227e-05
3.1866e-05
1.74397e-05
3.17224e-05
1.74013e-05
1.89405e-05
2.14126e-05
2.62423e-05
3.80312e-05
4.40007e-05
3.81591e-05
2.13719e-05
2.63334e-05
1.87784e-05
2.72445e-05
3.12961e-05
1.72814e-05
3.14406e-05
1.87274e-05
1.7317e-05
2.16063e-05
3.8547e-05
4.42286e-05
2.66681e-05
3.84325e-05
2.65777e-05
2.16455e-05
1.89005e-05
2.7523e-05
1.74428e-05
3.1858e-05
1.74014e-05
3.17292e-05
1.89242e-05
2.14161e-05
2.62459e-05
3.80352e-05
4.39974e-05
2.13696e-05
3.81437e-05
2.63381e-05
1.87612e-05
2.72452e-05
1.72816e-05
3.13003e-05
1.87394e-05
1.73191e-05
3.14323e-05
2.16013e-05
3.85408e-05
4.42312e-05
2.66703e-05
3.84327e-05
2.1649e-05
2.65791e-05
1.88888e-05
2.75213e-05
1.744e-05
3.1862e-05
1.73981e-05
3.17223e-05
1.89214e-05
2.14055e-05
2.62296e-05
3.8026e-05
4.39977e-05
2.63392e-05
2.13585e-05
3.81546e-05
1.87747e-05
2.72441e-05
1.72777e-05
3.12943e-05
1.73177e-05
1.87247e-05
3.14367e-05
2.15966e-05
3.85474e-05
4.42245e-05
2.66675e-05
2.65643e-05
3.84244e-05
2.1644e-05
3.64866e-05
1.77232e-05
2.40628e-05
2.40499e-05
2.39733e-05
2.39678e-05
3.66108e-05
1.89011e-05
2.75316e-05
1.74328e-05
3.18618e-05
1.74096e-05
3.17303e-05
1.89251e-05
2.14314e-05
2.62338e-05
3.8033e-05
4.40028e-05
2.63525e-05
2.13585e-05
3.81533e-05
1.87619e-05
2.72415e-05
1.72886e-05
3.13027e-05
1.731e-05
1.87404e-05
3.14348e-05
2.15885e-05
3.85497e-05
4.42246e-05
2.66828e-05
2.65655e-05
3.84233e-05
2.16625e-05
3.60233e-05
3.60197e-05
3.60197e-05
3.60085e-05
3.39294e-05
3.38852e-05
3.38851e-05
3.3958e-05
3.21566e-05
3.20014e-05
3.20012e-05
3.19431e-05
3.05322e-05
3.02202e-05
3.02199e-05
2.99756e-05
2.90291e-05
2.85428e-05
2.85421e-05
2.81075e-05
2.76303e-05
2.69744e-05
2.69732e-05
2.63749e-05
2.63247e-05
2.55173e-05
2.55163e-05
2.47916e-05
2.51044e-05
2.41705e-05
2.41701e-05
2.33618e-05
2.39635e-05
2.29355e-05
2.29353e-05
2.20883e-05
2.28977e-05
2.18112e-05
2.18109e-05
2.09679e-05
2.19034e-05
2.07949e-05
2.07946e-05
1.99945e-05
2.09774e-05
1.98836e-05
1.98835e-05
1.91612e-05
2.01146e-05
1.90753e-05
1.90758e-05
1.84677e-05
1.93139e-05
1.8367e-05
1.83681e-05
1.79084e-05
1.85741e-05
1.77555e-05
1.77573e-05
1.74781e-05
1.78928e-05
1.72394e-05
1.72415e-05
1.71677e-05
1.72676e-05
1.68176e-05
1.68201e-05
1.69836e-05
1.66963e-05
1.64893e-05
1.64919e-05
1.69413e-05
1.61777e-05
1.62543e-05
1.6257e-05
1.70353e-05
1.61127e-05
1.72588e-05
3.62977e-05
3.62919e-05
3.62919e-05
3.62978e-05
3.62919e-05
3.62919e-05
3.62908e-05
3.62908e-05
3.62908e-05
3.62908e-05
3.62919e-05
3.62919e-05
3.62978e-05
3.62919e-05
3.6292e-05
3.62978e-05
3.60085e-05
3.42645e-05