/*--------------------------------*- C++ -*----------------------------------*\
| =========                 |                                                 |
| \\      /  F ield         | OpenFOAM: The Open Source CFD Toolbox           |
|  \\    /   O peration     | Version:  2312                                  |
|   \\  /    A nd           | Website:  www.openfoam.com                      |
|    \\/     M anipulation  |                                                 |
\*---------------------------------------------------------------------------*/
FoamFile
{
    version     2.0;
    format      ascii;
    arch        "LSB;label=32;scalar=64";
    class       volScalarField;
    location    "200";
    object      nut;
}
// * * * * * * * * * * * * * * * * * * * * * * * * * * * * * * * * * * * * * //

dimensions      [0 2 -1 0 0 0 0];

internalField   nonuniform List<scalar> 
43008
(
0.000158318
0.00010854
0.000154158
0.000104775
0.000104786
8.33409e-05
8.52724e-05
8.37568e-05
0.000108515
0.000108493
0.000105626
0.000105603
8.37339e-05
0.000108539
0.000108504
0.000105647
0.000105612
0.000105641
0.000105622
8.52239e-05
8.37596e-05
0.00010853
0.000105654
0.000105639
8.39261e-05
8.35584e-05
0.000104759
0.000104738
8.35551e-05
0.000104781
0.000104749
0.00010476
8.35318e-05
0.000104776
6.51358e-05
4.95108e-05
6.39694e-05
4.95225e-05
2.36523e-05
6.51245e-05
4.9501e-05
6.39733e-05
4.95177e-05
0.000158304
0.00015831
0.000158307
0.000155203
0.000155188
0.000155194
0.000155193
6.16681e-05
0.00010752
6.23342e-05
0.000133365
2.36552e-05
2.36511e-05
6.16569e-05
0.000134446
6.16056e-05
0.000107535
6.08383e-05
0.00013337
6.23322e-05
8.48253e-05
5.93249e-05
5.93226e-05
6.77279e-05
4.95322e-05
6.67004e-05
4.95475e-05
2.36418e-05
2.3638e-05
6.77398e-05
4.95268e-05
6.66854e-05
4.9542e-05
0.000154145
0.000154151
0.000154148
6.42203e-05
6.37093e-05
0.000130126
0.000103897
6.32669e-05
6.44239e-05
0.000129087
2.36409e-05
2.36372e-05
6.41913e-05
0.000130131
6.37112e-05
0.000103908
6.32821e-05
0.000129096
6.43686e-05
6.00787e-05
6.00765e-05
8.34011e-05
6.04281e-05
6.0454e-05
2.36582e-05
2.36547e-05
2.3656e-05
2.36521e-05
5.89306e-05
5.89474e-05
8.45628e-05
5.93471e-05
5.93313e-05
2.36474e-05
2.36512e-05
2.3645e-05
2.36488e-05
8.43448e-05
5.99116e-05
5.98966e-05
5.95142e-05
5.953e-05
6.51357e-05
4.9501e-05
6.39677e-05
4.9517e-05
6.16094e-05
6.16002e-05
0.000134444
0.000107506
6.08681e-05
6.23589e-05
0.000133368
6.16138e-05
6.16132e-05
0.000134438
0.000107484
6.08329e-05
6.23184e-05
0.00013336
6.5367e-05
4.95358e-05
4.95196e-05
6.64659e-05
6.53662e-05
4.9529e-05
4.95138e-05
6.6471e-05
6.20573e-05
0.000106585
6.34127e-05
0.000131211
6.26489e-05
0.000132269
6.2874e-05
6.20574e-05
0.000106563
6.33744e-05
0.000131203
6.26803e-05
0.00013226
6.28479e-05
8.45793e-05
5.93253e-05
5.93312e-05
2.36534e-05
2.3645e-05
2.36491e-05
8.43413e-05
5.98901e-05
5.98984e-05
5.95247e-05
5.95307e-05
2.36466e-05
2.36503e-05
6.16486e-05
6.15857e-05
0.00013445
0.000107529
6.08267e-05
6.23464e-05
0.000133373
6.51363e-05
4.9503e-05
6.39668e-05
4.9509e-05
6.16326e-05
0.000134438
6.15998e-05
0.000107493
6.08366e-05
0.000133363
6.23371e-05
6.53716e-05
4.95301e-05
4.95144e-05
6.64833e-05
6.2022e-05
0.000106608
6.33722e-05
0.000131218
6.26554e-05
0.000132273
6.29136e-05
6.53624e-05
4.95214e-05
4.95156e-05
6.64803e-05
6.20312e-05
0.000106574
0.000131209
6.33967e-05
0.000132265
6.26604e-05
6.29019e-05
6.50809e-05
4.95138e-05
6.16577e-05
0.000107508
0.000133367
6.23296e-05
6.5108e-05
4.95146e-05
6.19889e-05
0.000106598
6.33973e-05
0.00013121
6.26642e-05
0.00013227
6.29048e-05
6.53998e-05
4.95264e-05
4.95207e-05
6.64323e-05
6.20076e-05
0.000106586
0.000131209
6.33746e-05
0.000132265
6.2666e-05
6.28701e-05
6.53831e-05
4.9527e-05
4.95112e-05
6.64551e-05
5.89241e-05
5.89358e-05
8.46051e-05
5.93258e-05
5.93483e-05
2.36574e-05
2.36533e-05
2.3644e-05
2.36479e-05
8.43882e-05
5.98915e-05
5.99126e-05
5.95218e-05
5.9517e-05
2.36463e-05
2.36501e-05
6.16656e-05
0.000134442
6.1611e-05
0.000107521
6.08199e-05
0.000133366
6.23123e-05
6.5116e-05
4.95082e-05
6.39965e-05
4.95141e-05
6.51198e-05
4.9497e-05
6.39854e-05
4.95131e-05
6.2015e-05
0.00010661
0.000131216
6.33927e-05
0.000132272
6.26705e-05
6.29138e-05
6.20186e-05
0.000106602
0.000131213
6.34164e-05
0.000132265
6.26786e-05
6.28783e-05
6.53914e-05
4.95265e-05
4.95208e-05
6.6451e-05
6.5383e-05
4.95257e-05
4.95098e-05
6.64649e-05
2.36519e-05
2.36509e-05
8.41636e-05
5.98929e-05
5.98909e-05
5.95256e-05
5.95252e-05
2.36448e-05
2.36486e-05
2.36438e-05
2.36477e-05
2.3644e-05
2.36403e-05
2.36418e-05
2.36381e-05
6.00693e-05
6.00828e-05
8.30591e-05
6.04328e-05
6.0432e-05
6.77267e-05
4.95258e-05
6.66944e-05
4.95413e-05
6.42396e-05
6.3697e-05
0.000130125
0.00010388
6.33143e-05
6.43847e-05
0.000129086
6.42188e-05
6.37197e-05
0.000130117
0.000103859
6.33287e-05
6.4396e-05
0.000129078
6.00769e-05
6.0084e-05
8.30405e-05
6.0425e-05
6.04623e-05
2.36435e-05
2.36398e-05
6.42225e-05
6.37267e-05
0.000130133
0.000103897
6.32796e-05
6.43896e-05
0.000129095
6.77398e-05
4.95277e-05
6.66818e-05
4.95334e-05
6.42218e-05
0.000130122
6.37056e-05
0.000103863
6.32873e-05
0.000129085
6.44205e-05
6.77082e-05
4.95333e-05
6.6716e-05
4.95386e-05
6.41937e-05
0.000130125
6.37154e-05
0.000103881
6.33064e-05
0.00012909
6.43938e-05
6.77205e-05
4.95237e-05
6.67032e-05
4.95386e-05
6.00774e-05
6.00728e-05
8.30744e-05
6.04543e-05
6.04562e-05
2.36431e-05
2.36394e-05
6.41864e-05
0.000130123
6.36904e-05
0.000103891
6.33078e-05
0.000129091
6.44353e-05
6.77153e-05
4.95329e-05
6.67165e-05
4.95383e-05
6.77124e-05
4.95222e-05
6.67033e-05
4.95376e-05
2.36416e-05
2.3638e-05
2.36406e-05
2.36369e-05
3.61704e-05
6.46801e-05
4.03052e-05
6.75545e-05
4.03028e-05
6.71524e-05
3.61733e-05
2.02411e-05
6.67546e-05
4.95137e-05
2.02405e-05
6.69304e-05
3.61702e-05
6.44368e-05
4.03009e-05
6.66344e-05
3.61675e-05
4.03028e-05
6.70435e-05
2.02377e-05
6.7156e-05
4.95122e-05
6.69697e-05
2.02383e-05
2.3656e-05
2.36527e-05
3.61704e-05
6.46855e-05
6.755e-05
4.03048e-05
6.71483e-05
4.03026e-05
3.61734e-05
2.02414e-05
6.6751e-05
4.95113e-05
2.02409e-05
6.69275e-05
3.61703e-05
6.44241e-05
6.66291e-05
4.03006e-05
3.61675e-05
6.7039e-05
4.03025e-05
2.02381e-05
6.7146e-05
4.95077e-05
6.69742e-05
2.02386e-05
2.36548e-05
2.36515e-05
6.93122e-05
2.15791e-05
2.15759e-05
2.15789e-05
2.15758e-05
6.94779e-05
7.01872e-05
5.90298e-05
6.60276e-05
4.7038e-05
7.02285e-05
5.9029e-05
6.60308e-05
4.70281e-05
6.92661e-05
2.15824e-05
2.15793e-05
7.04975e-05
4.7054e-05
5.9238e-05
6.66818e-05
6.64557e-05
4.70472e-05
7.0685e-05
7.05483e-05
4.70448e-05
5.92373e-05
6.67051e-05
6.64859e-05
4.70383e-05
7.07284e-05
3.61839e-05
6.73373e-05
4.03232e-05
6.94502e-05
4.03188e-05
6.90742e-05
3.61871e-05
2.02299e-05
6.75971e-05
4.95418e-05
2.02294e-05
6.77653e-05
3.61836e-05
6.71072e-05
4.03137e-05
6.86153e-05
3.61803e-05
4.03176e-05
6.89992e-05
2.02265e-05
6.79546e-05
4.95383e-05
6.779e-05
2.0227e-05
2.36415e-05
2.36383e-05
3.61838e-05
6.73177e-05
6.94497e-05
4.03239e-05
6.90687e-05
4.03172e-05
3.61871e-05
2.02301e-05
6.7592e-05
4.95361e-05
2.02296e-05
6.7759e-05
3.61835e-05
6.71215e-05
6.86104e-05
4.03129e-05
3.61803e-05
6.89969e-05
4.03177e-05
2.02268e-05
6.79422e-05
4.95329e-05
6.77961e-05
2.02273e-05
2.36405e-05
2.36375e-05
7.01204e-05
2.15656e-05
2.15625e-05
2.15655e-05
2.15624e-05
7.02658e-05
7.21236e-05
6.84027e-05
4.7095e-05
6.01611e-05
7.19588e-05
6.86159e-05
4.71006e-05
7.21416e-05
6.8416e-05
4.70809e-05
6.01619e-05
7.20129e-05
6.86392e-05
4.70951e-05
7.00777e-05
2.15689e-05
2.15657e-05
6.99272e-05
2.1569e-05
2.15659e-05
7.2409e-05
4.71165e-05
6.0347e-05
6.92625e-05
6.9052e-05
4.71092e-05
7.25863e-05
7.24738e-05
4.71101e-05
6.03367e-05
6.92773e-05
6.90602e-05
4.70957e-05
7.25976e-05
2.36582e-05
2.36549e-05
2.36555e-05
2.36524e-05
6.93177e-05
2.15796e-05
2.15764e-05
2.15795e-05
2.15762e-05
6.94819e-05
7.01918e-05
6.58077e-05
4.70287e-05
5.90554e-05
6.99899e-05
4.70444e-05
6.60574e-05
7.02401e-05
6.5811e-05
4.70177e-05
5.90363e-05
7.00339e-05
4.70335e-05
6.60446e-05
6.92696e-05
2.15827e-05
2.15795e-05
6.91003e-05
2.1583e-05
2.15798e-05
7.04974e-05
4.7061e-05
5.92258e-05
6.67036e-05
4.70454e-05
7.06897e-05
6.64561e-05
7.05417e-05
4.70501e-05
5.92417e-05
6.67e-05
4.70347e-05
7.07344e-05
6.64702e-05
2.36476e-05
2.36511e-05
2.36453e-05
2.36485e-05
6.96883e-05
2.15761e-05
2.15729e-05
6.95295e-05
2.15764e-05
2.1573e-05
7.14709e-05
6.79999e-05
5.97915e-05
4.70929e-05
4.70776e-05
6.77487e-05
7.16616e-05
7.15167e-05
6.79776e-05
5.98122e-05
4.70818e-05
4.70666e-05
6.77861e-05
7.1706e-05
7.11835e-05
4.70619e-05
6.71057e-05
5.9634e-05
7.09927e-05
4.70772e-05
6.73509e-05
7.1227e-05
4.7051e-05
6.71238e-05
5.96178e-05
7.10375e-05
4.70661e-05
6.73338e-05
6.97336e-05
2.15733e-05
2.15696e-05
2.15731e-05
2.15695e-05
6.98889e-05
3.61689e-05
6.46766e-05
4.03051e-05
6.7543e-05
4.03027e-05
6.71481e-05
3.61718e-05
2.02403e-05
6.6731e-05
4.95108e-05
2.02397e-05
6.69132e-05
3.61687e-05
6.44348e-05
4.03009e-05
6.66277e-05
4.03027e-05
3.6166e-05
6.70354e-05
2.02369e-05
6.71238e-05
4.95075e-05
6.69609e-05
2.02374e-05
3.61766e-05
4.03055e-05
6.76548e-05
6.58188e-05
3.61735e-05
4.03085e-05
6.80532e-05
2.02321e-05
4.95259e-05
6.75667e-05
2.02328e-05
6.73929e-05
2.02355e-05
6.7189e-05
4.95296e-05
2.02349e-05
6.7368e-05
3.61769e-05
6.60408e-05
4.03127e-05
6.85343e-05
3.61801e-05
4.03091e-05
6.81427e-05
3.61751e-05
4.03054e-05
6.76495e-05
6.58159e-05
3.61721e-05
4.03084e-05
6.80423e-05
2.02314e-05
4.95198e-05
6.75322e-05
6.73904e-05
2.02318e-05
2.02346e-05
6.71701e-05
4.9523e-05
2.02341e-05
6.73355e-05
3.61754e-05
6.60396e-05
4.03125e-05
6.85273e-05
4.03091e-05
6.81354e-05
3.61784e-05
6.93232e-05
2.15764e-05
2.15794e-05
2.15763e-05
2.15793e-05
6.94798e-05
7.02409e-05
5.9032e-05
4.70331e-05
6.60632e-05
7.01965e-05
5.90394e-05
6.60414e-05
4.70393e-05
6.92668e-05
2.15796e-05
2.15825e-05
7.05458e-05
4.70496e-05
5.92367e-05
6.66883e-05
4.7034e-05
6.64725e-05
7.07336e-05
7.05065e-05
4.70563e-05
5.92436e-05
6.66948e-05
6.64579e-05
4.7049e-05
7.06882e-05
2.36571e-05
2.36539e-05
2.36454e-05
2.36486e-05
6.96876e-05
2.15729e-05
2.15759e-05
6.95288e-05
2.1573e-05
2.1576e-05
7.15386e-05
6.79677e-05
5.98064e-05
4.70804e-05
6.77941e-05
4.70665e-05
7.16706e-05
7.14756e-05
6.79969e-05
5.98131e-05
4.70876e-05
4.70814e-05
6.77562e-05
7.16536e-05
7.11922e-05
4.70506e-05
6.71318e-05
5.96119e-05
6.73261e-05
7.10434e-05
4.70654e-05
7.11773e-05
4.70652e-05
6.71092e-05
5.96201e-05
7.09988e-05
4.70722e-05
6.73479e-05
6.97313e-05
2.15698e-05
2.15726e-05
2.15695e-05
2.15725e-05
6.98883e-05
2.3647e-05
2.36501e-05
3.61686e-05
6.46733e-05
4.03046e-05
6.75379e-05
4.03023e-05
6.71501e-05
3.61714e-05
2.02403e-05
6.67352e-05
4.95025e-05
2.02398e-05
6.69047e-05
3.61684e-05
6.44381e-05
4.03004e-05
6.66271e-05
4.03023e-05
3.61657e-05
6.70274e-05
2.0237e-05
6.71201e-05
4.95093e-05
6.69613e-05
2.02375e-05
3.61766e-05
6.76506e-05
4.03053e-05
6.58073e-05
3.61736e-05
6.80486e-05
4.03081e-05
2.02324e-05
4.95205e-05
6.7565e-05
2.0233e-05
6.73929e-05
2.02358e-05
6.71859e-05
4.95239e-05
2.02352e-05
6.73602e-05
3.61769e-05
6.60406e-05
6.85317e-05
4.03124e-05
3.61801e-05
6.8138e-05
4.03088e-05
3.61747e-05
4.0305e-05
6.76492e-05
6.5818e-05
3.61717e-05
4.0308e-05
6.80313e-05
2.02314e-05
4.95224e-05
6.75291e-05
6.73892e-05
2.02318e-05
2.02347e-05
6.71707e-05
4.95153e-05
2.02342e-05
6.7333e-05
3.6175e-05
6.60312e-05
4.03123e-05
6.8516e-05
4.03084e-05
6.8138e-05
3.61781e-05
3.61702e-05
6.47141e-05
6.75043e-05
4.0304e-05
6.71792e-05
4.03019e-05
3.6173e-05
2.02381e-05
6.71421e-05
4.95146e-05
6.69609e-05
2.02386e-05
3.61688e-05
6.46974e-05
4.03046e-05
6.7541e-05
4.03025e-05
6.71492e-05
3.61717e-05
2.02371e-05
6.71371e-05
4.95046e-05
6.69442e-05
2.02377e-05
3.61763e-05
6.76798e-05
4.03045e-05
6.57715e-05
3.61734e-05
6.80026e-05
4.03073e-05
2.02324e-05
4.95274e-05
6.75466e-05
6.73939e-05
2.0233e-05
2.02358e-05
6.71822e-05
4.95203e-05
2.02353e-05
6.73452e-05
3.61767e-05
6.60678e-05
6.84842e-05
4.03115e-05
6.81671e-05
4.03082e-05
3.61797e-05
3.61749e-05
4.03052e-05
6.76484e-05
6.57923e-05
3.61719e-05
4.03079e-05
6.804e-05
2.02314e-05
4.95173e-05
6.75457e-05
6.73698e-05
2.0232e-05
2.02348e-05
6.71594e-05
4.9521e-05
2.02343e-05
6.73403e-05
3.61752e-05
6.6053e-05
4.03121e-05
6.85207e-05
4.03089e-05
6.81353e-05
3.61784e-05
6.93201e-05
2.15766e-05
2.15798e-05
2.15765e-05
2.15797e-05
6.94771e-05
7.02329e-05
6.58255e-05
4.70177e-05
5.90449e-05
4.70329e-05
7.00471e-05
6.6053e-05
7.01639e-05
6.58121e-05
4.70288e-05
5.90568e-05
6.60383e-05
7.00114e-05
4.70445e-05
6.92651e-05
2.15798e-05
2.1583e-05
2.158e-05
6.91018e-05
2.15831e-05
7.05504e-05
4.70479e-05
5.92297e-05
6.67047e-05
4.70367e-05
6.64761e-05
7.07393e-05
7.0523e-05
4.70611e-05
5.92283e-05
6.66902e-05
6.64686e-05
4.70458e-05
7.06652e-05
2.3657e-05
2.36537e-05
2.36444e-05
2.36475e-05
6.96832e-05
2.15731e-05
2.15763e-05
6.95307e-05
2.15732e-05
2.15764e-05
7.15175e-05
6.80135e-05
5.98064e-05
4.7077e-05
6.77653e-05
4.70719e-05
7.17043e-05
7.14785e-05
6.80041e-05
5.97954e-05
4.70925e-05
4.70778e-05
6.77601e-05
7.16572e-05
7.12254e-05
4.70557e-05
6.71181e-05
5.96109e-05
6.73542e-05
7.10371e-05
4.70618e-05
7.11829e-05
4.70621e-05
6.71154e-05
5.96336e-05
7.10108e-05
4.7077e-05
6.73423e-05
6.97347e-05
2.15699e-05
2.1573e-05
2.15698e-05
2.15729e-05
6.98834e-05
2.36466e-05
2.36498e-05
3.61707e-05
6.4709e-05
6.75472e-05
4.03045e-05
6.71562e-05
4.03023e-05
3.61737e-05
2.0242e-05
6.67486e-05
4.95079e-05
6.69344e-05
2.02415e-05
3.61706e-05
6.44108e-05
6.66411e-05
4.03004e-05
6.70392e-05
3.61678e-05
4.03021e-05
2.02387e-05
6.71479e-05
4.95145e-05
6.69748e-05
2.02392e-05
3.61679e-05
6.46938e-05
6.75375e-05
4.03039e-05
6.71515e-05
4.03016e-05
3.61708e-05
2.024e-05
6.67296e-05
4.95067e-05
2.02395e-05
6.69068e-05
3.61677e-05
6.4425e-05
6.66332e-05
4.02997e-05
3.6165e-05
6.70273e-05
4.03015e-05
2.02367e-05
6.71192e-05
4.95036e-05
6.69608e-05
2.02372e-05
3.61769e-05
6.76597e-05
4.0305e-05
6.57873e-05
3.61739e-05
6.80434e-05
4.03078e-05
2.02331e-05
4.95271e-05
6.75522e-05
6.73989e-05
2.02335e-05
2.02363e-05
6.71901e-05
4.95204e-05
2.02359e-05
6.73504e-05
3.61772e-05
6.60665e-05
6.85245e-05
4.03118e-05
6.81473e-05
4.03088e-05
3.61803e-05
3.61741e-05
6.76537e-05
4.03042e-05
6.58027e-05
3.61711e-05
6.80352e-05
4.03073e-05
2.02311e-05
4.9516e-05
6.75323e-05
6.73854e-05
2.02315e-05
2.02344e-05
6.71675e-05
4.95193e-05
2.02339e-05
6.73342e-05
3.61744e-05
6.60532e-05
6.85177e-05
4.03115e-05
6.81413e-05
4.03079e-05
3.61775e-05
2.36555e-05
2.36522e-05
2.36545e-05
2.36513e-05
6.96846e-05
2.15756e-05
2.15724e-05
6.95239e-05
2.15757e-05
2.15726e-05
7.14919e-05
6.79808e-05
5.98072e-05
4.70856e-05
7.16315e-05
6.77546e-05
4.70796e-05
7.15416e-05
6.80022e-05
5.98055e-05
4.70775e-05
7.16748e-05
6.77698e-05
4.70707e-05
7.1148e-05
4.70636e-05
6.71061e-05
5.96144e-05
7.09945e-05
6.73369e-05
4.707e-05
7.11923e-05
4.70548e-05
6.71272e-05
5.96125e-05
7.10456e-05
6.73549e-05
4.70608e-05
6.97284e-05
2.15723e-05
2.15692e-05
6.98837e-05
2.15722e-05
2.15691e-05
2.36451e-05
2.36483e-05
2.36441e-05
2.36473e-05
2.36437e-05
2.36405e-05
2.36415e-05
2.36383e-05
7.01241e-05
2.15664e-05
2.15627e-05
2.15663e-05
2.15627e-05
7.02722e-05
7.21328e-05
6.83975e-05
4.70931e-05
6.01841e-05
7.19395e-05
4.71077e-05
6.86387e-05
7.21746e-05
6.84328e-05
4.70821e-05
6.01683e-05
7.19848e-05
4.70969e-05
6.86228e-05
7.00829e-05
2.15698e-05
2.15661e-05
6.99317e-05
2.15699e-05
2.15663e-05
7.23955e-05
4.71203e-05
6.0343e-05
6.92492e-05
4.71095e-05
7.25975e-05
6.90517e-05
7.24443e-05
4.71113e-05
6.03528e-05
6.92545e-05
4.70967e-05
7.26352e-05
6.90821e-05
3.61823e-05
6.73365e-05
4.03219e-05
6.94442e-05
4.03198e-05
6.90655e-05
3.61855e-05
2.0229e-05
6.75795e-05
4.95353e-05
2.02285e-05
6.7734e-05
3.61819e-05
6.71059e-05
4.03139e-05
6.86075e-05
4.03171e-05
3.61788e-05
6.89931e-05
2.02257e-05
6.79227e-05
4.95322e-05
6.7785e-05
2.02261e-05
7.01246e-05
2.15632e-05
2.15659e-05
2.15631e-05
2.15658e-05
7.02696e-05
7.21406e-05
6.84354e-05
4.70876e-05
6.01606e-05
4.7093e-05
7.20098e-05
6.86115e-05
7.21254e-05
6.84014e-05
4.70968e-05
6.01706e-05
6.86375e-05
7.19472e-05
4.71024e-05
7.00819e-05
2.15665e-05
2.15692e-05
2.15666e-05
6.99306e-05
2.15693e-05
7.24782e-05
4.7107e-05
6.03471e-05
6.92445e-05
4.71023e-05
6.90847e-05
7.25898e-05
7.24093e-05
4.71169e-05
6.03476e-05
6.92746e-05
6.9047e-05
4.71116e-05
7.25827e-05
2.36431e-05
2.36401e-05
3.6182e-05
6.73145e-05
4.03239e-05
6.94334e-05
4.03167e-05
6.90703e-05
3.61851e-05
2.0229e-05
6.7578e-05
4.95274e-05
2.02285e-05
6.773e-05
3.61816e-05
6.71219e-05
4.03125e-05
6.86093e-05
4.03176e-05
3.61785e-05
6.89814e-05
2.02257e-05
6.79173e-05
4.95341e-05
6.77832e-05
2.02261e-05
3.61836e-05
6.73467e-05
6.93979e-05
4.03225e-05
6.91019e-05
4.03172e-05
3.61867e-05
2.02302e-05
6.75961e-05
4.95325e-05
6.77441e-05
2.02296e-05
3.61832e-05
6.70809e-05
6.86393e-05
4.03126e-05
6.89508e-05
3.61801e-05
4.03165e-05
2.02268e-05
6.79339e-05
4.95393e-05
6.77912e-05
2.02273e-05
3.61822e-05
6.73326e-05
4.0323e-05
6.94369e-05
4.0318e-05
6.90675e-05
3.61854e-05
2.02292e-05
6.75729e-05
4.9533e-05
2.02286e-05
6.7743e-05
3.61819e-05
6.71025e-05
4.03133e-05
6.86084e-05
3.61786e-05
4.03171e-05
6.89859e-05
2.02258e-05
6.79288e-05
4.95298e-05
6.77676e-05
2.02263e-05
7.01205e-05
2.15632e-05
2.15663e-05
2.15631e-05
2.15662e-05
7.0268e-05
7.21725e-05
6.84079e-05
4.70871e-05
6.01643e-05
4.70921e-05
7.1987e-05
6.86447e-05
7.20972e-05
6.84093e-05
4.70933e-05
6.01878e-05
6.86333e-05
7.19583e-05
4.71075e-05
7.00791e-05
2.15664e-05
2.15696e-05
2.15665e-05
6.99289e-05
2.15697e-05
7.24419e-05
4.71067e-05
6.03411e-05
6.92694e-05
4.71017e-05
6.90657e-05
7.26385e-05
7.24315e-05
4.71221e-05
6.03386e-05
6.92639e-05
6.90563e-05
4.7108e-05
7.25454e-05
2.36428e-05
2.36397e-05
3.61842e-05
6.73495e-05
6.94329e-05
4.0321e-05
6.90822e-05
4.03197e-05
3.61873e-05
2.02306e-05
6.76031e-05
4.95325e-05
6.77479e-05
2.02302e-05
3.61838e-05
6.70949e-05
6.86198e-05
4.03137e-05
6.89906e-05
3.61807e-05
4.03163e-05
2.02274e-05
6.79375e-05
4.95391e-05
6.78007e-05
2.02278e-05
3.61814e-05
6.73422e-05
6.94304e-05
4.03209e-05
6.9074e-05
4.03184e-05
3.61845e-05
2.02287e-05
6.75797e-05
4.95317e-05
2.02282e-05
6.77311e-05
3.6181e-05
6.71002e-05
6.86133e-05
4.03125e-05
3.61779e-05
6.89831e-05
4.03161e-05
2.02254e-05
6.79197e-05
4.95282e-05
6.77802e-05
2.02259e-05
2.36414e-05
2.36382e-05
2.36403e-05
2.36371e-05
0.00018
0.000180012
0.00015728
0.000179142
0.000179155
0.000197117
0.000197812
6.8793e-05
8.51523e-05
7.02614e-05
7.03672e-05
0.000176549
0.000176562
0.000153132
0.000175696
0.000175709
0.00019431
0.000195006
7.14479e-05
7.1262e-05
7.12589e-05
8.36373e-05
7.13276e-05
7.13352e-05
7.13945e-05
6.8908e-05
7.02662e-05
7.03891e-05
8.50884e-05
6.85821e-05
7.04299e-05
7.02843e-05
7.05948e-05
8.39541e-05
7.11232e-05
7.10477e-05
7.09776e-05
7.11052e-05
7.08305e-05
6.88385e-05
8.50784e-05
7.02408e-05
7.02422e-05
7.06498e-05
8.39659e-05
7.09988e-05
7.10248e-05
7.10964e-05
7.11125e-05
7.08083e-05
6.88817e-05
7.02137e-05
7.03264e-05
8.50684e-05
7.0298e-05
6.86272e-05
7.05092e-05
7.06133e-05
8.38801e-05
7.12226e-05
7.11501e-05
7.08874e-05
7.10367e-05
7.08412e-05
7.0656e-05
8.3702e-05
7.10935e-05
7.11156e-05
7.07912e-05
7.10234e-05
7.0971e-05
7.14968e-05
7.12629e-05
7.13369e-05
8.33919e-05
7.12736e-05
7.14162e-05
7.12849e-05
7.14745e-05
7.13563e-05
7.13588e-05
8.33795e-05
7.12642e-05
7.13091e-05
7.12587e-05
7.14989e-05
7.11871e-05
7.1256e-05
8.34111e-05
7.14385e-05
7.12761e-05
7.1519e-05
0.000179994
0.000180003
0.000157265
0.000179136
0.000179144
0.000197112
0.000197808
0.000179996
0.000180006
0.00015727
0.000179138
0.000179149
0.000197113
0.000197808
0.000179993
0.000180003
0.00015727
0.000179135
0.000179146
0.00019711
0.000197805
0.000156236
0.000177417
0.000177429
0.000178272
0.000178284
0.00019641
0.000195714
0.000156222
0.00017741
0.000177419
0.000178266
0.000178275
0.000196406
0.00019571
0.000156227
0.000177413
0.000177424
0.000178268
0.000178278
0.000196406
0.00019571
0.000156225
0.00017741
0.000177422
0.000178265
0.000178275
0.000196403
0.000195708
7.28813e-05
6.138e-05
6.31752e-05
7.68812e-05
6.29977e-05
7.67221e-05
7.32151e-05
6.69901e-05
6.37557e-05
6.21333e-05
6.51709e-05
6.49968e-05
6.35983e-05
6.68756e-05
7.2989e-05
6.14243e-05
7.68173e-05
6.32238e-05
7.68158e-05
6.30064e-05
7.31513e-05
6.69279e-05
6.46003e-05
6.2982e-05
6.18038e-05
6.67866e-05
6.47305e-05
6.31502e-05
7.3335e-05
6.10493e-05
7.7234e-05
6.23665e-05
7.31607e-05
7.72289e-05
6.25494e-05
6.69106e-05
6.37829e-05
6.21397e-05
6.51586e-05
6.50101e-05
6.36129e-05
6.69919e-05
6.93304e-05
8.4675e-05
7.04645e-05
7.05812e-05
7.05835e-05
7.04842e-05
6.94727e-05
0.000176543
0.000176553
0.000153117
0.000175689
0.000175699
0.000194306
0.000195002
0.000176545
0.000176556
0.000153123
0.000175692
0.000175704
0.000194306
0.000195002
0.000176542
0.000176553
0.000153123
0.000175689
0.000175701
0.000194304
0.000194999
7.23085e-05
6.39371e-05
6.58561e-05
7.57695e-05
6.57026e-05
7.55457e-05
7.2804e-05
6.76298e-05
6.63975e-05
6.54946e-05
6.39119e-05
6.74468e-05
6.65413e-05
6.56715e-05
7.28227e-05
6.35422e-05
6.49943e-05
7.58076e-05
7.24466e-05
6.51812e-05
7.60025e-05
6.76836e-05
6.63185e-05
6.42202e-05
6.70588e-05
6.68907e-05
6.61266e-05
6.79346e-05
7.24877e-05
6.39578e-05
7.55187e-05
6.59015e-05
7.57869e-05
6.56847e-05
7.27376e-05
6.75712e-05
6.63891e-05
6.55056e-05
6.39111e-05
6.75606e-05
6.65652e-05
6.56628e-05
7.27752e-05
6.35562e-05
7.60089e-05
6.49899e-05
7.26365e-05
7.57871e-05
6.52199e-05
6.77784e-05
6.63163e-05
6.42357e-05
6.69644e-05
6.69144e-05
6.6135e-05
6.79769e-05
7.19884e-05
8.29977e-05
7.16216e-05
7.1614e-05
7.15851e-05
7.1627e-05
7.20814e-05
6.92538e-05
8.48126e-05
7.05657e-05
7.04712e-05
6.95613e-05
7.04489e-05
7.06055e-05
7.0203e-05
8.41762e-05
7.07034e-05
7.08329e-05
6.99294e-05
7.08497e-05
7.07429e-05
7.28746e-05
6.14555e-05
6.32153e-05
7.68362e-05
6.29938e-05
7.68524e-05
7.3226e-05
6.69935e-05
6.4508e-05
6.29478e-05
6.18205e-05
6.32099e-05
6.66424e-05
6.48244e-05
7.34206e-05
6.10264e-05
6.23489e-05
7.727e-05
6.25589e-05
7.30779e-05
7.72173e-05
6.68015e-05
6.38418e-05
6.21211e-05
6.52205e-05
6.35543e-05
6.49359e-05
6.71512e-05
7.30191e-05
6.1447e-05
6.32241e-05
7.6677e-05
6.29691e-05
7.69254e-05
7.31174e-05
6.68617e-05
6.45584e-05
6.29415e-05
6.17809e-05
6.67354e-05
6.3142e-05
6.47624e-05
7.33525e-05
6.10406e-05
6.23294e-05
7.73174e-05
7.32543e-05
6.25905e-05
7.7065e-05
6.68842e-05
6.37556e-05
6.21517e-05
6.51812e-05
6.36227e-05
6.70317e-05
6.497e-05
7.30983e-05
6.36385e-05
7.64691e-05
6.22301e-05
7.27248e-05
6.39018e-05
7.65835e-05
6.71572e-05
6.61686e-05
6.3172e-05
6.51078e-05
6.58367e-05
6.48201e-05
6.75172e-05
6.73406e-05
6.41856e-05
6.53765e-05
6.28865e-05
6.56745e-05
6.69727e-05
6.44863e-05
7.25966e-05
6.26816e-05
6.45904e-05
7.62759e-05
6.42912e-05
7.60993e-05
7.29404e-05
7.29713e-05
6.36277e-05
7.65679e-05
6.22161e-05
7.28122e-05
6.39002e-05
7.63361e-05
6.72298e-05
6.61017e-05
6.32145e-05
6.50192e-05
6.49033e-05
6.58867e-05
6.74875e-05
6.72259e-05
6.42507e-05
6.54123e-05
6.28487e-05
6.70579e-05
6.43976e-05
6.56383e-05
7.2704e-05
6.26927e-05
6.45737e-05
7.61215e-05
6.42889e-05
7.62546e-05
7.28095e-05
6.93263e-05
8.47905e-05
7.04624e-05
7.04564e-05
7.06074e-05
7.05922e-05
6.9492e-05
7.01442e-05
8.41876e-05
7.07961e-05
7.08173e-05
7.07583e-05
6.99852e-05
7.07429e-05
7.31652e-05
6.14098e-05
6.32339e-05
7.68768e-05
6.29796e-05
7.67486e-05
7.30817e-05
6.69497e-05
6.45474e-05
6.29698e-05
6.18256e-05
6.31606e-05
6.68434e-05
6.476e-05
7.31789e-05
6.10574e-05
6.23393e-05
7.71679e-05
6.25634e-05
7.34119e-05
7.72847e-05
6.69329e-05
6.37987e-05
6.21222e-05
6.51284e-05
6.36042e-05
6.49832e-05
6.70639e-05
7.31674e-05
6.14305e-05
7.68548e-05
6.31801e-05
7.68637e-05
6.30223e-05
7.29885e-05
6.67658e-05
6.46517e-05
6.29736e-05
6.18054e-05
6.68925e-05
6.31238e-05
6.46636e-05
7.32318e-05
6.10442e-05
7.72755e-05
6.23699e-05
7.33257e-05
7.71722e-05
6.25268e-05
6.70089e-05
6.3744e-05
6.21326e-05
6.50783e-05
6.36057e-05
6.69094e-05
6.50635e-05
7.31198e-05
6.3625e-05
7.64219e-05
6.2276e-05
7.28291e-05
6.39049e-05
7.6567e-05
6.72576e-05
6.60999e-05
6.31919e-05
6.51159e-05
6.59047e-05
6.48377e-05
6.74083e-05
6.7227e-05
6.4218e-05
6.54417e-05
6.28732e-05
6.55909e-05
6.70824e-05
6.44538e-05
7.26533e-05
6.26397e-05
6.45755e-05
7.62686e-05
6.42906e-05
7.61125e-05
7.29765e-05
7.27978e-05
7.65006e-05
6.36652e-05
6.2262e-05
7.30236e-05
7.66214e-05
6.38645e-05
6.73697e-05
6.60323e-05
6.31849e-05
6.50155e-05
6.48931e-05
6.59865e-05
6.72506e-05
6.70828e-05
6.4252e-05
6.55188e-05
6.28709e-05
6.71907e-05
6.44043e-05
6.55551e-05
7.28725e-05
6.26463e-05
7.63063e-05
6.45481e-05
7.6138e-05
6.43139e-05
7.26574e-05
7.29712e-05
6.13982e-05
7.68934e-05
6.322e-05
7.67302e-05
6.29832e-05
7.32791e-05
6.68155e-05
6.38236e-05
6.2122e-05
6.51945e-05
6.49581e-05
6.35583e-05
6.71537e-05
7.30341e-05
6.36512e-05
7.63942e-05
6.22807e-05
7.2686e-05
6.38306e-05
7.65783e-05
6.72677e-05
6.60973e-05
6.319e-05
6.50434e-05
6.74307e-05
6.59111e-05
6.48774e-05
6.72425e-05
6.42406e-05
6.54308e-05
6.28752e-05
6.71175e-05
6.56462e-05
6.43998e-05
7.25577e-05
6.2623e-05
6.45071e-05
7.62929e-05
7.28763e-05
6.43301e-05
7.60884e-05
7.30584e-05
7.63903e-05
6.36285e-05
6.22607e-05
7.27065e-05
7.65629e-05
6.38736e-05
6.71623e-05
6.6134e-05
6.32016e-05
6.50734e-05
6.48264e-05
6.58592e-05
6.73932e-05
6.7327e-05
6.41932e-05
6.54085e-05
6.28534e-05
6.69773e-05
6.44549e-05
6.56537e-05
7.26101e-05
6.26541e-05
7.61395e-05
6.45739e-05
7.61289e-05
6.42975e-05
7.29777e-05
6.92865e-05
8.47732e-05
7.06965e-05
7.04856e-05
7.05846e-05
7.04024e-05
6.95427e-05
7.01965e-05
8.41562e-05
7.06346e-05
7.08085e-05
7.0913e-05
6.99531e-05
7.07986e-05
7.32171e-05
6.14057e-05
7.66745e-05
6.31927e-05
7.69229e-05
6.30262e-05
7.29502e-05
6.68885e-05
6.45796e-05
6.29995e-05
6.17712e-05
6.47549e-05
6.68403e-05
6.31051e-05
7.31978e-05
6.1068e-05
7.73204e-05
6.23755e-05
7.70612e-05
7.33133e-05
6.25248e-05
6.69464e-05
6.37503e-05
6.2153e-05
6.51619e-05
6.50092e-05
6.36281e-05
6.70608e-05
7.29931e-05
7.64791e-05
6.36458e-05
6.22747e-05
7.28343e-05
7.64933e-05
6.38811e-05
6.73777e-05
6.61176e-05
6.31944e-05
6.50378e-05
6.73048e-05
6.59077e-05
6.48824e-05
6.71e-05
6.42463e-05
6.54392e-05
6.28635e-05
6.71545e-05
6.56434e-05
6.44201e-05
7.27247e-05
6.26441e-05
7.60655e-05
6.45655e-05
7.28242e-05
7.62036e-05
6.43128e-05
7.28105e-05
7.65674e-05
6.36594e-05
6.2271e-05
7.29067e-05
7.63359e-05
6.38705e-05
6.72056e-05
6.61727e-05
6.31938e-05
6.50688e-05
6.48768e-05
6.58693e-05
6.74937e-05
6.72717e-05
6.42555e-05
6.54494e-05
6.28659e-05
6.70902e-05
6.44234e-05
6.56422e-05
7.29087e-05
6.26548e-05
7.60515e-05
6.45542e-05
7.6283e-05
6.43184e-05
7.26651e-05
7.01182e-05
8.43573e-05
7.08104e-05
7.07131e-05
6.99996e-05
7.0798e-05
7.08371e-05
7.19345e-05
8.31816e-05
7.17347e-05
7.16003e-05
7.21623e-05
7.15724e-05
7.16864e-05
7.23113e-05
6.39525e-05
6.5906e-05
7.56146e-05
6.56562e-05
7.564e-05
7.27846e-05
6.76843e-05
6.63277e-05
6.54583e-05
6.39178e-05
6.57482e-05
6.73764e-05
6.66505e-05
7.28731e-05
6.35623e-05
6.49614e-05
7.58246e-05
6.52488e-05
7.24896e-05
7.59683e-05
6.76064e-05
6.63559e-05
6.42284e-05
6.707e-05
6.60853e-05
6.68301e-05
6.78518e-05
7.23347e-05
6.39815e-05
6.58991e-05
7.56157e-05
6.56649e-05
7.57007e-05
7.27806e-05
6.7716e-05
6.63644e-05
6.55168e-05
6.38792e-05
6.73541e-05
6.56654e-05
6.65758e-05
7.2822e-05
6.35226e-05
6.49605e-05
7.59182e-05
7.2586e-05
6.52287e-05
7.58723e-05
6.75577e-05
6.62939e-05
6.42392e-05
6.70842e-05
6.61335e-05
6.79985e-05
6.68538e-05
7.19788e-05
8.31763e-05
7.15709e-05
7.15829e-05
7.16954e-05
7.1694e-05
7.21148e-05
7.23713e-05
6.39517e-05
6.59245e-05
7.56086e-05
6.56472e-05
7.56595e-05
7.28284e-05
6.76228e-05
6.63866e-05
6.54697e-05
6.38876e-05
6.56917e-05
6.74672e-05
6.6504e-05
7.29174e-05
6.3553e-05
6.4963e-05
7.58406e-05
6.52567e-05
7.25687e-05
7.59535e-05
6.77024e-05
6.62791e-05
6.42416e-05
6.69881e-05
6.61373e-05
6.69433e-05
6.78933e-05
7.25769e-05
6.39531e-05
7.56428e-05
6.59005e-05
7.56682e-05
6.56713e-05
7.24726e-05
6.74713e-05
6.64227e-05
6.55149e-05
6.39103e-05
6.75637e-05
6.56506e-05
6.65093e-05
7.25339e-05
6.35569e-05
7.58519e-05
6.49844e-05
7.27585e-05
7.59817e-05
6.52338e-05
6.78273e-05
6.62651e-05
6.4217e-05
6.69729e-05
6.61485e-05
6.76819e-05
6.69328e-05
7.24671e-05
6.39765e-05
7.56232e-05
6.58792e-05
7.57074e-05
6.56715e-05
7.26457e-05
6.74571e-05
6.63294e-05
6.54639e-05
6.38838e-05
6.66194e-05
6.75102e-05
6.56983e-05
7.28932e-05
6.35292e-05
7.59094e-05
6.49706e-05
7.58803e-05
7.25582e-05
6.52346e-05
6.78033e-05
6.62942e-05
6.42379e-05
6.70889e-05
6.68381e-05
6.61238e-05
6.76713e-05
7.1941e-05
8.32243e-05
7.17889e-05
7.17418e-05
7.15754e-05
7.15107e-05
7.21653e-05
7.25236e-05
6.39818e-05
7.57374e-05
6.59051e-05
7.57195e-05
6.56748e-05
7.27008e-05
6.77406e-05
6.63262e-05
6.5482e-05
6.39276e-05
6.66543e-05
6.73785e-05
6.57086e-05
7.26762e-05
6.35367e-05
7.59712e-05
6.49869e-05
7.58714e-05
7.27463e-05
6.52323e-05
6.75899e-05
6.63283e-05
6.4196e-05
6.71115e-05
6.68172e-05
6.60935e-05
6.80004e-05
0.000233968
0.000233538
0.000233539
0.000233421
0.000232518
0.000227474
0.000227475
0.000223649
0.000230461
0.000220007
0.000219999
0.000208828
0.000227715
0.000211375
0.000211367
0.000193542
0.000224328
0.000202385
0.000202381
0.000179545
0.000220433
0.000193535
0.000193528
0.000167256
0.00021618
0.000185067
0.000185058
0.000156537
0.000211697
0.000177053
0.000177045
0.000147237
0.000207087
0.000169531
0.000169527
0.00013904
0.000202429
0.000162473
0.00016247
0.000131735
0.000197779
0.000155824
0.000155821
0.000125059
0.000193171
0.000149529
0.000149528
0.000118833
0.000188586
0.00014355
0.00014355
0.000113097
0.000184058
0.000137832
0.000137832
0.000107883
0.000179617
0.000132334
0.000132332
0.000102982
0.000175251
0.000127045
0.000127044
9.83159e-05
0.000170948
0.000121985
0.000121987
9.40642e-05
0.000166696
0.000117189
0.000117194
9.05167e-05
0.000162494
0.00011268
0.000112693
8.76019e-05
0.000108528
8.52403e-05
0.000234257
0.000234471
0.000234469
0.000234254
0.000234471
0.000234465
0.000234261
0.000234261
0.00023426
0.000234261
0.000234469
0.00023447
0.000234251
0.000234468
0.000234472
0.000234258
0.000233436
0.000226009