/*--------------------------------*- C++ -*----------------------------------*\
| =========                 |                                                 |
| \\      /  F ield         | OpenFOAM: The Open Source CFD Toolbox           |
|  \\    /   O peration     | Version:  2312                                  |
|   \\  /    A nd           | Website:  www.openfoam.com                      |
|    \\/     M anipulation  |                                                 |
\*---------------------------------------------------------------------------*/
FoamFile
{
    version     2.0;
    format      ascii;
    arch        "LSB;label=32;scalar=64";
    class       volVectorField;
    location    "200";
    object      U;
}
// * * * * * * * * * * * * * * * * * * * * * * * * * * * * * * * * * * * * * //

dimensions      [0 1 -1 0 0 0 0];

internalField   nonuniform List<vector> 
43008
(
(6.34973e-05 6.3512e-05 0.108289)
(5.91629e-05 -9.55427e-05 0.107557)
(6.22743e-05 6.22746e-05 0.108604)
(-9.3678e-05 5.81699e-05 0.107771)
(5.81275e-05 -9.36845e-05 0.107771)
(-0.000149567 -0.000149575 0.106585)
(0.000152376 0.000152401 0.106508)
(1.26104e-05 1.26979e-05 0.106725)
(5.93305e-05 9.55013e-05 0.107557)
(-5.94082e-05 9.56448e-05 0.107557)
(5.8588e-05 9.41801e-05 0.107719)
(-5.8631e-05 9.42661e-05 0.107719)
(-1.26168e-05 1.26832e-05 0.106725)
(9.55484e-05 5.92366e-05 0.107557)
(9.55567e-05 -5.93608e-05 0.107556)
(9.42025e-05 5.84918e-05 0.107719)
(9.41555e-05 -5.85659e-05 0.107718)
(-9.4139e-05 5.84454e-05 0.10772)
(-9.40345e-05 -5.85149e-05 0.107719)
(0.000152416 -0.000152432 0.106508)
(1.26406e-05 -1.25732e-05 0.106725)
(-5.91958e-05 -9.55525e-05 0.107557)
(5.83903e-05 -9.41412e-05 0.107719)
(-5.84154e-05 -9.41669e-05 0.107719)
(-1.26608e-05 -1.25861e-05 0.106725)
(0.000149561 0.00014955 0.106585)
(5.83336e-05 9.3737e-05 0.107771)
(-5.83626e-05 9.37959e-05 0.10777)
(-0.000149542 0.000149534 0.106585)
(9.37517e-05 5.82286e-05 0.107771)
(9.37033e-05 -5.8297e-05 0.10777)
(-9.35754e-05 -5.82308e-05 0.10777)
(0.000149566 -0.000149579 0.106584)
(-5.81529e-05 -9.37132e-05 0.107771)
(2.08644e-06 2.08471e-05 0.0947512)
(-2.85568e-06 3.82884e-05 0.0840941)
(2.80867e-06 7.04716e-05 0.0947941)
(-5.22361e-06 -1.23023e-06 0.0840816)
(5.96914e-06 -4.83685e-06 0.0725369)
(2.08235e-05 2.14546e-06 0.0947515)
(3.83084e-05 -2.81946e-06 0.0840944)
(7.04651e-05 2.85955e-06 0.0947943)
(-1.29945e-06 -5.37287e-06 0.084082)
(-6.35311e-05 6.35059e-05 0.108289)
(6.34781e-05 -6.3534e-05 0.108289)
(-6.34972e-05 -6.35386e-05 0.108289)
(6.25811e-05 6.25828e-05 0.108526)
(-6.26018e-05 6.2574e-05 0.108526)
(6.25426e-05 -6.25901e-05 0.108526)
(-6.2556e-05 -6.25907e-05 0.108526)
(-6.21471e-05 6.3652e-06 0.103006)
(-9.50646e-05 5.89678e-05 0.107613)
(-3.03011e-05 2.14334e-06 0.0963716)
(-0.0001043 2.11283e-05 0.108127)
(1.63923e-05 -3.41622e-06 0.0725061)
(-4.73827e-06 5.98632e-06 0.0725358)
(6.28451e-06 -6.2105e-05 0.103005)
(2.12688e-05 -0.000104784 0.108055)
(3.09226e-05 -7.53061e-05 0.0963598)
(5.89044e-05 -9.5063e-05 0.107612)
(7.61816e-06 -0.000126265 0.102968)
(2.11306e-05 -0.000104369 0.108127)
(2.20011e-06 -3.01999e-05 0.0963696)
(-1.41192e-05 -1.40126e-05 0.106681)
(-1.565e-05 2.04856e-06 0.0899645)
(2.03355e-06 -1.56223e-05 0.0899619)
(1.60975e-06 1.5287e-05 0.0943852)
(-1.90919e-06 3.52126e-05 0.0838206)
(2.33123e-06 6.36344e-05 0.0944189)
(-4.56697e-06 -3.30355e-06 0.083817)
(-3.39943e-06 1.56304e-05 0.072324)
(5.69543e-06 -5.16684e-06 0.0723587)
(1.52564e-05 1.70038e-06 0.0943855)
(3.52247e-05 -1.97189e-06 0.0838208)
(6.36461e-05 2.39696e-06 0.0944192)
(-3.31235e-06 -4.5379e-06 0.0838172)
(-6.22948e-05 6.22669e-05 0.108604)
(6.2238e-05 -6.22731e-05 0.108604)
(-6.22555e-05 -6.22742e-05 0.108604)
(-5.53627e-05 5.18326e-06 0.102756)
(-6.98196e-05 2.84062e-05 0.0960254)
(-0.000103138 2.06977e-05 0.108337)
(-9.31951e-05 5.79008e-05 0.107822)
(-0.000118549 6.55013e-06 0.102725)
(-2.55764e-05 7.52801e-07 0.0960421)
(-0.000102767 2.05688e-05 0.108406)
(1.55817e-05 -3.46301e-06 0.072324)
(-5.15905e-06 5.80236e-06 0.072358)
(5.12539e-06 -5.53672e-05 0.102754)
(2.07017e-05 -0.000103208 0.108337)
(2.84649e-05 -6.98645e-05 0.0960263)
(5.78414e-05 -9.31976e-05 0.107821)
(6.6508e-06 -0.000118638 0.102724)
(2.05637e-05 -0.000102813 0.108405)
(7.78029e-07 -2.54814e-05 0.0960399)
(-3.43325e-05 -1.82742e-05 0.0896673)
(-1.8274e-05 -3.42947e-05 0.0896671)
(-1.12254e-05 -1.11438e-05 0.106761)
(-1.30943e-05 2.6962e-06 0.0896665)
(2.62155e-06 -1.30349e-05 0.0896639)
(3.39908e-06 1.63116e-05 0.0725065)
(-6.07978e-06 -4.80397e-06 0.0725366)
(1.63044e-05 3.33878e-06 0.0725051)
(-4.97331e-06 -6.26162e-06 0.0725357)
(1.95199e-05 3.69225e-05 0.0899749)
(3.69302e-05 1.93769e-05 0.089972)
(1.40292e-05 1.41262e-05 0.106682)
(-2.0996e-06 1.5629e-05 0.0899657)
(1.54111e-05 -2.15623e-06 0.0899631)
(-5.61547e-06 -4.98477e-06 0.0724454)
(3.50625e-06 1.60236e-05 0.0724132)
(-5.00357e-06 -5.89357e-06 0.0724448)
(1.58952e-05 3.32294e-06 0.0724116)
(0.000151019 0.000151026 0.10655)
(-2.28427e-06 1.43371e-05 0.089813)
(1.42549e-05 -2.39792e-06 0.0898107)
(1.88627e-05 3.56877e-05 0.0898183)
(3.55545e-05 1.878e-05 0.0898151)
(-2.1801e-06 2.08318e-05 0.0947509)
(2.78947e-06 3.82321e-05 0.0840935)
(-2.92912e-06 7.04609e-05 0.094794)
(5.13076e-06 -1.23609e-06 0.0840813)
(6.33029e-06 6.20732e-05 0.103006)
(3.085e-05 7.53697e-05 0.0963591)
(2.12774e-05 0.00010471 0.108055)
(5.90788e-05 9.50591e-05 0.107612)
(7.51343e-06 0.000126274 0.102968)
(2.09651e-06 3.03176e-05 0.0963695)
(2.11373e-05 0.00010431 0.108127)
(-6.39193e-06 6.20718e-05 0.103005)
(-3.08551e-05 7.53179e-05 0.0963578)
(-2.12879e-05 0.00010474 0.108055)
(-5.91647e-05 9.5185e-05 0.107612)
(-7.6044e-06 0.000126295 0.102968)
(-2.19957e-06 3.02757e-05 0.096368)
(-2.11558e-05 0.000104336 0.108127)
(2.54598e-06 6.69243e-05 0.0946024)
(-4.68571e-06 -2.42939e-06 0.0839457)
(-2.25998e-06 3.66968e-05 0.0839538)
(1.83077e-06 1.7928e-05 0.094564)
(-2.67222e-06 6.69184e-05 0.0946022)
(4.65093e-06 -2.30274e-06 0.0839451)
(2.2815e-06 3.66938e-05 0.0839534)
(-1.93535e-06 1.79356e-05 0.0945637)
(7.04101e-06 0.000122444 0.102849)
(5.88411e-05 9.46342e-05 0.107666)
(1.43306e-06 2.77491e-05 0.0962021)
(2.08588e-05 0.000103558 0.108268)
(2.96617e-05 7.25964e-05 0.0961898)
(2.09986e-05 0.000103932 0.108198)
(5.73528e-06 5.86576e-05 0.102883)
(-7.1405e-06 0.000122449 0.102849)
(-5.88938e-05 9.47272e-05 0.107666)
(-1.44717e-06 2.79186e-05 0.0962001)
(-2.08746e-05 0.00010357 0.108268)
(-2.96448e-05 7.25899e-05 0.0961887)
(-2.10169e-05 0.00010395 0.108198)
(-5.78133e-06 5.86673e-05 0.102882)
(-1.40775e-05 1.41391e-05 0.106682)
(2.00419e-06 1.56284e-05 0.0899633)
(-1.56527e-05 -2.08207e-06 0.0899676)
(4.75881e-06 -5.93128e-06 0.0725394)
(5.76673e-06 -4.80184e-06 0.0724456)
(-3.43867e-06 1.59498e-05 0.0724128)
(-0.000151036 0.000151028 0.10655)
(2.44529e-06 1.45166e-05 0.0898106)
(-1.43137e-05 -2.39928e-06 0.0898152)
(-1.88268e-05 3.56434e-05 0.0898151)
(-3.55645e-05 1.88436e-05 0.0898171)
(5.02972e-06 -5.81779e-06 0.0724486)
(-1.59525e-05 3.45378e-06 0.0724108)
(6.20599e-05 6.36322e-06 0.103006)
(7.53321e-05 3.08588e-05 0.096359)
(0.000104713 2.12588e-05 0.108055)
(9.50877e-05 5.89823e-05 0.107612)
(0.000126243 7.54874e-06 0.102968)
(3.01586e-05 2.02344e-06 0.096369)
(0.000104305 2.11195e-05 0.108127)
(2.08287e-05 -2.1142e-06 0.094751)
(3.83339e-05 2.74746e-06 0.0840938)
(7.04643e-05 -2.85422e-06 0.0947939)
(-1.14307e-06 5.22131e-06 0.0840811)
(6.20598e-05 -6.31774e-06 0.103006)
(0.000104729 -2.12945e-05 0.108055)
(7.53531e-05 -3.09028e-05 0.0963583)
(9.50757e-05 -5.91009e-05 0.107611)
(0.000126232 -7.56014e-06 0.102968)
(0.000104312 -2.11619e-05 0.108126)
(3.03214e-05 -2.04857e-06 0.0963673)
(6.69214e-05 2.60348e-06 0.0946026)
(-2.35642e-06 -4.823e-06 0.0839461)
(3.66668e-05 -2.36755e-06 0.0839538)
(1.79344e-05 1.92141e-06 0.0945643)
(0.000122414 7.09062e-06 0.102849)
(9.46559e-05 5.8743e-05 0.107666)
(2.77733e-05 1.38718e-06 0.0962015)
(0.000103552 2.08463e-05 0.108267)
(7.25648e-05 2.96231e-05 0.0961893)
(0.000103928 2.09892e-05 0.108198)
(5.8663e-05 5.77428e-06 0.102883)
(6.69211e-05 -2.60612e-06 0.0946022)
(-2.25209e-06 4.91483e-06 0.0839452)
(3.67353e-05 2.34872e-06 0.0839534)
(1.79264e-05 -1.82502e-06 0.0945639)
(0.000122412 -7.09033e-06 0.102849)
(9.46222e-05 -5.8846e-05 0.107665)
(0.000103542 -2.08667e-05 0.108267)
(2.78821e-05 -1.29655e-06 0.0961997)
(0.000103915 -2.10153e-05 0.108197)
(7.25805e-05 -2.96102e-05 0.0961889)
(5.86775e-05 -5.70634e-06 0.102883)
(-2.09201e-05 2.1782e-06 0.0947522)
(1.19398e-06 -5.18132e-06 0.0840832)
(-6.20749e-05 -6.34524e-06 0.103005)
(-9.49868e-05 -5.90525e-05 0.107612)
(-0.000104261 -2.11663e-05 0.108127)
(-3.03164e-05 -2.1294e-06 0.0963691)
(-2.08649e-05 -2.10683e-06 0.0947508)
(1.221e-06 5.19162e-06 0.0840808)
(-0.000122382 7.0047e-06 0.102849)
(-9.4609e-05 5.87068e-05 0.107667)
(-2.78688e-05 1.42473e-06 0.0962042)
(-0.000103518 2.08407e-05 0.108268)
(-7.24696e-05 2.95738e-05 0.0961894)
(-0.000103905 2.09891e-05 0.108198)
(-5.87263e-05 5.79655e-06 0.102883)
(-6.68825e-05 2.50242e-06 0.094601)
(2.32175e-06 -4.85357e-06 0.0839476)
(-3.66733e-05 -2.30327e-06 0.0839523)
(-1.80201e-05 1.94771e-06 0.0945649)
(-0.000122391 -7.13376e-06 0.102849)
(-9.45189e-05 -5.8806e-05 0.107666)
(-0.000103492 -2.08721e-05 0.108268)
(-2.79358e-05 -1.38792e-06 0.0962015)
(-0.000103861 -2.10193e-05 0.108198)
(-7.2493e-05 -2.96334e-05 0.0961889)
(-5.86543e-05 -5.71483e-06 0.102882)
(-6.69041e-05 -2.68179e-06 0.0946017)
(2.32579e-06 4.85786e-06 0.0839448)
(-3.67168e-05 2.34113e-06 0.0839527)
(-1.79823e-05 -1.81598e-06 0.0945636)
(3.69934e-05 -1.94353e-05 0.0899725)
(1.94768e-05 -3.69324e-05 0.0899746)
(1.40855e-05 -1.403e-05 0.106681)
(1.56758e-05 2.0429e-06 0.0899613)
(-1.96396e-06 -1.56149e-05 0.0899654)
(3.45048e-06 -1.6387e-05 0.0725062)
(-5.92295e-06 4.80769e-06 0.0725365)
(-4.9627e-06 5.89269e-06 0.0724448)
(1.59753e-05 -3.45349e-06 0.0724128)
(0.000151027 -0.000151046 0.10655)
(1.4354e-05 2.37587e-06 0.0898088)
(-2.27311e-06 -1.42831e-05 0.0898129)
(3.56258e-05 -1.88306e-05 0.0898159)
(1.88849e-05 -3.55444e-05 0.0898178)
(-5.80695e-06 5.03327e-06 0.0724456)
(3.48744e-06 -1.59655e-05 0.072413)
(-6.3784e-06 -6.21143e-05 0.103006)
(-2.12632e-05 -0.000104733 0.108055)
(-3.09188e-05 -7.53671e-05 0.0963584)
(-5.89262e-05 -9.50907e-05 0.107612)
(-7.51272e-06 -0.000126242 0.102967)
(-2.11261e-05 -0.000104309 0.108127)
(-2.13346e-06 -3.02035e-05 0.0963678)
(2.1341e-06 -2.0904e-05 0.0947506)
(-2.69445e-06 -3.82851e-05 0.0840943)
(2.92574e-06 -7.04745e-05 0.0947932)
(-5.11546e-06 1.26554e-06 0.0840815)
(-2.12119e-06 -2.08731e-05 0.094751)
(2.70257e-06 -3.8309e-05 0.084094)
(-2.83196e-06 -7.04572e-05 0.0947925)
(5.15565e-06 1.21905e-06 0.0840812)
(7.12035e-06 -0.000122442 0.102849)
(5.86531e-05 -9.46084e-05 0.107666)
(2.08445e-05 -0.000103575 0.108268)
(1.45885e-06 -2.77612e-05 0.0962021)
(2.09853e-05 -0.000103984 0.108197)
(2.96593e-05 -7.25013e-05 0.0961904)
(5.72521e-06 -5.87259e-05 0.102882)
(-7.05739e-06 -0.000122406 0.102848)
(-5.86855e-05 -9.4635e-05 0.107666)
(-2.08479e-05 -0.000103541 0.108267)
(-1.39276e-06 -2.7744e-05 0.0962003)
(-2.09849e-05 -0.00010394 0.108197)
(-2.96563e-05 -7.2539e-05 0.0961893)
(-5.75067e-06 -5.87189e-05 0.102882)
(2.6761e-06 -6.69307e-05 0.0946014)
(-4.78925e-06 2.36505e-06 0.0839457)
(-2.29097e-06 -3.6674e-05 0.083954)
(1.87297e-06 -1.80216e-05 0.0945634)
(-2.58808e-06 -6.69185e-05 0.0946007)
(4.82336e-06 2.30863e-06 0.0839453)
(2.30014e-06 -3.6673e-05 0.0839536)
(-1.85783e-06 -1.79806e-05 0.0945638)
(4.77796e-06 5.97825e-06 0.0725362)
(5.96036e-06 4.77144e-06 0.072536)
(-0.000151054 -0.000151062 0.10655)
(-1.43228e-05 2.38345e-06 0.0898119)
(2.34701e-06 -1.42753e-05 0.0898092)
(-3.56199e-05 -1.88441e-05 0.0898166)
(-1.8847e-05 -3.55959e-05 0.0898161)
(4.9988e-06 5.8627e-06 0.0724452)
(-1.59952e-05 -3.43744e-06 0.0724123)
(5.84515e-06 4.98753e-06 0.0724449)
(-3.48849e-06 -1.5952e-05 0.072413)
(3.60176e-06 1.56592e-05 0.0723242)
(-5.7298e-06 -5.21263e-06 0.0723589)
(1.55821e-05 3.46242e-06 0.0723229)
(-5.23931e-06 -5.74448e-06 0.072358)
(1.83106e-05 3.44573e-05 0.0896693)
(3.42967e-05 1.82783e-05 0.089666)
(1.11787e-05 1.1268e-05 0.106762)
(-2.57426e-06 1.30448e-05 0.0896675)
(1.30201e-05 -2.58885e-06 0.0896653)
(-1.66103e-06 1.52918e-05 0.0943849)
(2.00465e-06 3.52603e-05 0.0838204)
(-2.43431e-06 6.36445e-05 0.0944188)
(4.52363e-06 -3.29609e-06 0.0838162)
(5.12879e-06 5.53005e-05 0.102755)
(2.84997e-05 6.99688e-05 0.0960258)
(2.07137e-05 0.000103181 0.108337)
(5.80543e-05 9.32587e-05 0.107821)
(6.58006e-06 0.000118623 0.102725)
(7.15645e-07 2.55277e-05 0.0960398)
(2.05699e-05 0.000102807 0.108405)
(-5.15182e-06 5.53131e-05 0.102755)
(-2.84022e-05 6.99497e-05 0.0960248)
(-2.0726e-05 0.000103186 0.108337)
(-5.80833e-05 9.3302e-05 0.107821)
(-6.65029e-06 0.00011864 0.102725)
(-7.39457e-07 2.55839e-05 0.0960378)
(-2.05832e-05 0.000102814 0.108405)
(-1.80632e-05 3.43477e-05 0.0896659)
(-3.4267e-05 1.82542e-05 0.089668)
(-1.11917e-05 1.12504e-05 0.106762)
(2.55161e-06 1.31105e-05 0.0896652)
(-1.30724e-05 -2.65367e-06 0.0896698)
(-1.5514e-05 3.47072e-06 0.0723219)
(5.26481e-06 -5.71087e-06 0.0723618)
(5.53095e-05 5.17018e-06 0.102756)
(6.98934e-05 2.84567e-05 0.0960252)
(0.000103168 2.07092e-05 0.108337)
(9.32682e-05 5.79519e-05 0.107822)
(0.000118615 6.61774e-06 0.102725)
(2.54757e-05 7.43497e-07 0.0960394)
(0.000102791 2.0574e-05 0.108405)
(1.5262e-05 -1.56012e-06 0.0943851)
(3.52598e-05 2.04427e-06 0.0838204)
(6.36439e-05 -2.32477e-06 0.0944188)
(-3.21201e-06 4.66271e-06 0.0838163)
(5.53196e-05 -5.08364e-06 0.102755)
(0.000103154 -2.07166e-05 0.108337)
(6.99264e-05 -2.84068e-05 0.0960249)
(9.32185e-05 -5.80038e-05 0.107821)
(0.000118614 -6.60248e-06 0.102724)
(0.000102777 -2.05727e-05 0.108405)
(2.55799e-05 -5.9942e-07 0.0960376)
(-1.53494e-05 1.71143e-06 0.0943861)
(-3.51852e-05 -1.96908e-06 0.0838194)
(-6.36146e-05 2.28295e-06 0.0944176)
(3.31612e-06 -4.58212e-06 0.0838187)
(-5.52891e-05 -5.11924e-06 0.102755)
(-0.000103105 -2.07271e-05 0.108337)
(-6.98882e-05 -2.84574e-05 0.0960247)
(-9.30884e-05 -5.79567e-05 0.107821)
(-0.000118557 -6.62724e-06 0.102725)
(-0.000102736 -2.05769e-05 0.108405)
(-2.56593e-05 -6.58923e-07 0.0960393)
(-1.53146e-05 -1.55987e-06 0.0943848)
(-3.52752e-05 2.01604e-06 0.0838196)
(-6.36275e-05 -2.4013e-06 0.0944182)
(3.30941e-06 4.63718e-06 0.083816)
(3.43396e-05 -1.82373e-05 0.0896668)
(1.82961e-05 -3.42527e-05 0.0896687)
(1.11776e-05 -1.11094e-05 0.106761)
(1.31163e-05 2.66106e-06 0.0896634)
(-2.5521e-06 -1.30462e-05 0.0896675)
(3.51675e-06 -1.55738e-05 0.0723241)
(-5.70267e-06 5.22635e-06 0.0723588)
(-5.1481e-06 -5.53724e-05 0.102755)
(-2.06997e-05 -0.000103176 0.108337)
(-2.84696e-05 -6.98792e-05 0.0960254)
(-5.7876e-05 -9.32237e-05 0.107821)
(-6.57254e-06 -0.000118598 0.102723)
(-2.05562e-05 -0.000102772 0.108405)
(-7.0134e-07 -2.54299e-05 0.0960381)
(1.61828e-06 -1.5343e-05 0.0943848)
(-1.96626e-06 -3.52099e-05 0.0838209)
(2.42944e-06 -6.36344e-05 0.0944179)
(-4.52096e-06 3.32117e-06 0.0838168)
(-1.62054e-06 -1.53233e-05 0.0943851)
(1.96748e-06 -3.52143e-05 0.0838207)
(-2.34402e-06 -6.36249e-05 0.0944173)
(4.56827e-06 3.28226e-06 0.0838164)
(-1.56022e-05 -3.46466e-06 0.0723234)
(5.19645e-06 5.78359e-06 0.0723584)
(-3.51831e-06 -1.55622e-05 0.072324)
(5.74467e-06 5.1912e-06 0.072358)
(-1.168e-06 1.33298e-05 0.078038)
(2.66413e-06 6.86605e-05 0.0946972)
(2.06918e-07 -1.02733e-05 0.0799124)
(4.17561e-06 1.39347e-05 0.0928161)
(6.3638e-08 8.40043e-06 0.0798524)
(6.40206e-06 5.9148e-05 0.0927532)
(1.37889e-07 -6.15697e-06 0.078109)
(2.30214e-06 -6.67417e-06 0.0694216)
(5.32034e-06 3.91734e-05 0.0880752)
(-5.59969e-06 -6.18758e-07 0.0841523)
(8.62756e-07 1.24855e-05 0.0693264)
(3.68477e-06 3.66236e-06 0.0881442)
(-1.09827e-07 -6.2489e-06 0.0781577)
(2.21669e-06 2.24087e-05 0.0948479)
(-1.8956e-08 8.17904e-06 0.0799011)
(6.63545e-06 6.06633e-05 0.0928432)
(-1.39383e-06 1.32567e-05 0.0780869)
(1.27767e-07 -1.05112e-05 0.0799608)
(4.37445e-06 1.52156e-05 0.0929058)
(8.82449e-07 1.23531e-05 0.0692832)
(3.63205e-06 2.94419e-06 0.0880648)
(-2.55647e-06 3.7502e-05 0.0840229)
(5.26538e-06 3.82777e-05 0.0879953)
(2.35775e-06 -6.73053e-06 0.0693782)
(6.0322e-06 -4.72846e-06 0.0725841)
(-3.36526e-06 1.61598e-05 0.0724585)
(1.33345e-05 -1.03971e-06 0.0780387)
(6.8651e-05 2.7312e-06 0.0946975)
(1.3934e-05 4.20678e-06 0.0928166)
(-1.02894e-05 2.8853e-07 0.0799131)
(5.91689e-05 6.47396e-06 0.0927536)
(8.38386e-06 1.71847e-07 0.0798528)
(-6.18396e-06 1.55436e-07 0.0781098)
(-6.73935e-06 2.35163e-06 0.0694224)
(3.91956e-05 5.40508e-06 0.0880757)
(-6.39296e-07 -5.35986e-06 0.0841527)
(1.25075e-05 9.17854e-07 0.0693272)
(3.59357e-06 3.77925e-06 0.0881446)
(-6.27198e-06 -4.29836e-08 0.0781585)
(2.23741e-05 2.29118e-06 0.0948482)
(6.06856e-05 6.68388e-06 0.0928437)
(8.16525e-06 7.29113e-08 0.0799015)
(1.32664e-05 -1.30543e-06 0.0780875)
(1.5231e-05 4.44269e-06 0.0929063)
(-1.05264e-05 2.19894e-07 0.0799615)
(1.2394e-05 9.75262e-07 0.0692839)
(2.88882e-06 3.61051e-06 0.0880653)
(3.74603e-05 -2.67551e-06 0.0840232)
(3.82979e-05 5.24949e-06 0.0879958)
(-6.81326e-06 2.34923e-06 0.0693789)
(-4.61604e-06 6.04519e-06 0.0725829)
(1.61791e-05 -3.43635e-06 0.0724589)
(-2.75535e-05 -2.75004e-05 0.0856505)
(-4.20507e-07 6.31196e-06 0.0695839)
(6.26188e-06 -3.8356e-07 0.0695773)
(-1.00671e-05 -1.19909e-05 0.0695009)
(-1.20099e-05 -1.00662e-05 0.0694947)
(-8.51866e-06 -8.45368e-06 0.0857041)
(-1.61734e-05 -2.0864e-05 0.0946918)
(-1.63474e-05 1.87088e-06 0.0900436)
(-3.28386e-05 -3.54415e-05 0.10001)
(-1.24506e-05 7.0357e-06 0.0834761)
(-2.08773e-05 -1.60799e-05 0.094683)
(1.86115e-06 -1.63383e-05 0.090041)
(-3.5371e-05 -3.28483e-05 0.100006)
(7.00251e-06 -1.24128e-05 0.0834702)
(-8.99125e-06 -8.89938e-06 0.0857766)
(-5.89688e-07 6.30904e-06 0.0696323)
(6.24981e-06 -5.44973e-07 0.0696257)
(-6.92261e-05 -4.42371e-05 0.0945367)
(-1.19896e-05 6.91985e-06 0.0834102)
(-3.62963e-05 -1.91464e-05 0.089894)
(-3.16618e-05 -3.41791e-05 0.0999315)
(-9.9618e-05 -6.26793e-05 0.0998519)
(-3.07975e-05 -5.73376e-06 0.0833392)
(-1.53462e-05 -1.99376e-05 0.0946081)
(-4.42934e-05 -6.91743e-05 0.094529)
(6.8892e-06 -1.19274e-05 0.0834043)
(-1.91557e-05 -3.62799e-05 0.0898933)
(-3.40908e-05 -3.16419e-05 0.0999271)
(-6.26756e-05 -9.95946e-05 0.0998486)
(-5.77333e-06 -3.08425e-05 0.0833352)
(-1.99242e-05 -1.52562e-05 0.0945995)
(-2.61565e-07 1.3591e-05 0.0778565)
(2.22427e-06 6.20914e-05 0.0943304)
(4.02906e-07 -9.15996e-06 0.0797351)
(3.40403e-06 9.49906e-06 0.0924798)
(3.57859e-07 9.44141e-06 0.0796742)
(5.70589e-06 5.37403e-05 0.0924156)
(7.8599e-07 -5.82654e-06 0.0779277)
(2.43179e-06 -6.9973e-06 0.0692538)
(4.92673e-06 3.57787e-05 0.0877689)
(-4.61876e-06 -2.81716e-06 0.0838805)
(1.04727e-06 1.19925e-05 0.0691598)
(3.21082e-06 9.67169e-07 0.0878396)
(7.14939e-07 -5.89601e-06 0.0779711)
(1.75368e-06 1.65919e-05 0.0944736)
(3.15037e-07 9.15238e-06 0.0797164)
(5.87294e-06 5.50194e-05 0.0924967)
(-4.75126e-07 1.35341e-05 0.0778999)
(4.14622e-07 -9.4632e-06 0.0797772)
(3.63742e-06 1.05122e-05 0.0925607)
(1.17746e-06 1.19955e-05 0.0691211)
(3.02637e-06 4.0805e-07 0.0877687)
(-1.84315e-06 3.45597e-05 0.0837569)
(4.78903e-06 3.51176e-05 0.0876978)
(2.4269e-06 -7.03689e-06 0.0692147)
(5.78172e-06 -5.06905e-06 0.0724014)
(-3.59138e-06 1.55397e-05 0.0722808)
(1.3574e-05 -2.23274e-07 0.0778569)
(6.20878e-05 2.29705e-06 0.0943306)
(9.4886e-06 3.47062e-06 0.0924802)
(-9.16284e-06 4.9956e-07 0.0797355)
(5.37383e-05 5.74344e-06 0.0924159)
(9.43622e-06 4.27047e-07 0.0796745)
(-5.83637e-06 8.60958e-07 0.0779282)
(-6.96926e-06 2.49203e-06 0.0692546)
(3.58326e-05 4.98291e-06 0.0877695)
(-2.84891e-06 -4.67269e-06 0.0838808)
(1.21087e-05 1.19139e-06 0.0691607)
(9.34984e-07 3.24377e-06 0.0878401)
(-5.92402e-06 7.33485e-07 0.0779717)
(1.65615e-05 1.8135e-06 0.0944739)
(5.50219e-05 5.91592e-06 0.092497)
(9.15363e-06 3.83434e-07 0.0797168)
(1.35223e-05 -3.83984e-07 0.0779004)
(1.04835e-05 3.65422e-06 0.0925611)
(-9.4605e-06 4.70855e-07 0.0797777)
(1.20178e-05 1.23449e-06 0.0691216)
(3.82338e-07 3.10461e-06 0.0877692)
(3.45619e-05 -1.82556e-06 0.0837569)
(3.50851e-05 4.85533e-06 0.0876981)
(-7.02128e-06 2.50709e-06 0.0692153)
(-5.06951e-06 5.84706e-06 0.0724009)
(1.54055e-05 -3.46521e-06 0.0722811)
(-2.55651e-05 -2.55549e-05 0.0853782)
(2.43324e-07 6.25212e-06 0.0694011)
(6.23094e-06 2.6046e-07 0.0693946)
(-9.45854e-06 -1.17003e-05 0.0693183)
(-1.16722e-05 -9.48118e-06 0.0693123)
(-6.7641e-06 -6.7262e-06 0.0854336)
(-1.29925e-05 -1.73839e-05 0.0943686)
(-9.5343e-05 -5.89581e-05 0.0996208)
(-2.93988e-05 -5.96132e-06 0.0831499)
(-1.36982e-05 2.53566e-06 0.0897383)
(-6.60856e-05 -4.14761e-05 0.0942966)
(-2.83662e-05 -3.06727e-05 0.0997001)
(-1.05633e-05 6.56724e-06 0.0832213)
(-1.73261e-05 -1.28874e-05 0.09436)
(-5.89406e-05 -9.5287e-05 0.0996179)
(-5.97504e-06 -2.94223e-05 0.083146)
(2.47968e-06 -1.3657e-05 0.0897357)
(-4.15046e-05 -6.60521e-05 0.094289)
(-3.05089e-05 -2.82822e-05 0.0996958)
(6.55859e-06 -1.0489e-05 0.0832155)
(-7.17363e-06 -7.13538e-06 0.0854986)
(-9.60201e-06 -1.17688e-05 0.0693624)
(-1.17484e-05 -9.62146e-06 0.0693563)
(-2.60392e-05 -2.60229e-05 0.0854435)
(8.77991e-08 6.26459e-06 0.0694453)
(6.24534e-06 1.05247e-07 0.0694387)
(-6.51257e-05 -4.06285e-05 0.0942202)
(-1.01137e-05 6.47001e-06 0.0831611)
(-3.37056e-05 -1.79744e-05 0.0895954)
(-2.72991e-05 -2.95316e-05 0.0996246)
(-9.39686e-05 -5.77646e-05 0.0995455)
(-2.89166e-05 -6.01247e-06 0.0830897)
(-1.22334e-05 -1.65668e-05 0.0942924)
(-4.06505e-05 -6.50804e-05 0.0942126)
(6.46341e-06 -1.0018e-05 0.0831554)
(-1.79873e-05 -3.36559e-05 0.0895952)
(-2.93721e-05 -2.7211e-05 0.0996203)
(-5.77508e-05 -9.38996e-05 0.0995426)
(-6.03467e-06 -2.89547e-05 0.0830858)
(-1.65288e-05 -1.21463e-05 0.0942837)
(-6.29369e-06 -4.8775e-06 0.0725838)
(3.39096e-06 1.61418e-05 0.072459)
(-4.52987e-06 -6.03078e-06 0.0725831)
(1.61363e-05 3.29917e-06 0.0724581)
(2.74543e-05 2.75016e-05 0.0856501)
(-6.26488e-06 4.10195e-07 0.0695845)
(3.1244e-07 -6.19441e-06 0.0695775)
(1.19272e-05 1.00331e-05 0.0695007)
(1.00498e-05 1.19698e-05 0.0694939)
(8.40111e-06 8.49493e-06 0.0857052)
(2.08014e-05 1.60292e-05 0.0946927)
(6.40312e-05 0.000101108 0.0999308)
(5.77203e-06 3.13058e-05 0.0834068)
(-1.98966e-06 1.61775e-05 0.0900448)
(4.5195e-05 7.03234e-05 0.0946209)
(-7.1218e-06 1.2352e-05 0.0834776)
(3.53426e-05 3.27764e-05 0.100011)
(1.61217e-05 2.0729e-05 0.0946845)
(0.000100986 6.39232e-05 0.0999265)
(3.12479e-05 5.5748e-06 0.0834005)
(1.63948e-05 -1.95917e-06 0.0900424)
(7.01761e-05 4.52112e-05 0.0946121)
(1.24315e-05 -7.17904e-06 0.0834715)
(3.27789e-05 3.53125e-05 0.100007)
(8.80849e-06 8.7322e-06 0.0857776)
(1.21727e-05 1.03876e-05 0.0695496)
(1.01321e-05 1.20918e-05 0.0695427)
(2.79399e-05 2.8138e-05 0.0857232)
(-6.37724e-06 3.8103e-07 0.0696332)
(4.37575e-07 -6.57256e-06 0.0696261)
(4.42041e-05 6.92042e-05 0.0945369)
(-6.85771e-06 1.1943e-05 0.0834115)
(1.91057e-05 3.63087e-05 0.0898955)
(3.41198e-05 3.16553e-05 0.099932)
(5.67135e-06 3.08026e-05 0.0833403)
(1.99641e-05 1.53186e-05 0.0946091)
(6.26744e-05 9.9674e-05 0.0998523)
(6.91016e-05 4.42259e-05 0.0945283)
(1.18615e-05 -6.83206e-06 0.0834056)
(3.6172e-05 1.9077e-05 0.0898927)
(3.15561e-05 3.40754e-05 0.0999287)
(3.07994e-05 5.76865e-06 0.0833344)
(1.52172e-05 1.99149e-05 0.0946009)
(9.9473e-05 6.26033e-05 0.0998481)
(3.54386e-06 1.58111e-05 0.072368)
(-6.02538e-06 -4.95819e-06 0.0724906)
(1.57743e-05 3.42765e-06 0.0723669)
(-4.89293e-06 -5.97705e-06 0.0724898)
(7.99453e-06 7.99801e-06 0.0856348)
(1.1915e-05 9.96528e-06 0.0694536)
(9.90325e-06 1.20006e-05 0.0694468)
(2.69851e-05 2.70821e-05 0.0855793)
(-6.24996e-06 2.04612e-07 0.0695373)
(1.92482e-07 -6.2945e-06 0.0695303)
(4.24055e-05 6.71797e-05 0.0943753)
(3.17667e-05 2.94505e-05 0.099777)
(1.85718e-05 3.50442e-05 0.0897428)
(-6.65765e-06 1.10454e-05 0.0832842)
(5.92288e-06 2.99093e-05 0.083213)
(6.02045e-05 9.68421e-05 0.0996979)
(1.82232e-05 1.3767e-05 0.0944476)
(6.70707e-05 4.24324e-05 0.0943665)
(2.93973e-05 3.17139e-05 0.0997737)
(3.49303e-05 1.85202e-05 0.0897397)
(1.09738e-05 -6.67195e-06 0.0832782)
(2.98856e-05 5.95183e-06 0.0832067)
(9.66771e-05 6.01523e-05 0.0996934)
(1.36813e-05 1.81638e-05 0.0944394)
(1.9088e-05 1.45043e-05 0.0945274)
(5.86626e-06 3.03697e-05 0.0832759)
(6.14282e-05 9.82384e-05 0.0997747)
(-2.24095e-06 1.49048e-05 0.0898884)
(4.33129e-05 6.82012e-05 0.0944551)
(-6.72751e-06 1.1448e-05 0.0833471)
(3.29093e-05 3.05115e-05 0.0998541)
(1.45014e-05 1.90236e-05 0.0945192)
(3.03265e-05 5.87124e-06 0.0832697)
(9.80981e-05 6.13814e-05 0.0997704)
(1.49404e-05 -2.27108e-06 0.089886)
(6.80635e-05 4.33442e-05 0.0944464)
(1.14591e-05 -6.78208e-06 0.0833412)
(3.05105e-05 3.28831e-05 0.0998508)
(2.65129e-05 2.65727e-05 0.0855105)
(-6.38506e-06 5.39644e-08 0.0694911)
(-2.87283e-09 -6.30086e-06 0.069484)
(1.18482e-05 9.79698e-06 0.0694077)
(9.79124e-06 1.18989e-05 0.0694007)
(7.50724e-06 7.56894e-06 0.0855663)
(8.94096e-07 1.33369e-05 0.0780376)
(-2.81483e-06 6.86538e-05 0.0946971)
(-3.41597e-07 -1.02837e-05 0.0799124)
(-4.24164e-06 1.39042e-05 0.0928151)
(-2.6332e-07 8.3927e-06 0.0798524)
(-6.55181e-06 5.91576e-05 0.0927535)
(-2.49672e-07 -6.17445e-06 0.0781083)
(-2.40958e-06 -6.73121e-06 0.0694231)
(-5.43352e-06 3.91493e-05 0.0880761)
(5.34761e-06 -6.47468e-07 0.084152)
(-9.41148e-07 1.24551e-05 0.0693289)
(-3.84259e-06 3.60611e-06 0.0881437)
(-3.15149e-08 -6.2551e-06 0.0781569)
(-2.31102e-06 2.2387e-05 0.0948476)
(-1.49249e-07 8.16843e-06 0.0799011)
(-6.73051e-06 6.06629e-05 0.0928435)
(-2.73471e-07 -1.05223e-05 0.0799608)
(1.2504e-06 1.32459e-05 0.0780864)
(-4.46786e-06 1.52177e-05 0.0929048)
(-1.09122e-06 1.24647e-05 0.0692855)
(-3.69941e-06 2.90852e-06 0.0880644)
(2.48773e-06 3.75006e-05 0.0840226)
(-5.39091e-06 3.83141e-05 0.0879962)
(-2.45026e-06 -6.7654e-06 0.0693797)
(3.54918e-07 -6.06691e-06 0.0780618)
(1.45656e-07 8.63681e-06 0.0798054)
(6.20547e-06 5.77042e-05 0.0926655)
(1.95183e-06 1.93634e-05 0.0946566)
(-9.41937e-07 1.33888e-05 0.0779907)
(2.60017e-07 -1.00212e-05 0.0798657)
(3.95681e-06 1.2718e-05 0.0927288)
(9.81606e-07 1.21494e-05 0.0692003)
(-1.9995e-06 3.5935e-05 0.0838865)
(3.31056e-06 1.33513e-06 0.0879125)
(2.16755e-06 -7.22042e-06 0.0692942)
(5.08976e-06 3.64886e-05 0.0878424)
(2.41027e-06 -6.74029e-06 0.0693358)
(5.18257e-06 3.73575e-05 0.0879178)
(-5.04082e-06 -1.80844e-06 0.0840128)
(9.38039e-07 1.22121e-05 0.0692411)
(3.49144e-06 2.27464e-06 0.0879878)
(-7.59971e-07 1.3447e-05 0.0779447)
(2.41454e-06 6.52575e-05 0.0945096)
(2.91998e-07 -9.76081e-06 0.0798207)
(3.71442e-06 1.15297e-05 0.0926436)
(2.97645e-07 -6.05531e-06 0.0780158)
(1.96078e-07 8.89771e-06 0.0797602)
(5.97968e-06 5.63035e-05 0.09258)
(-4.36106e-07 -6.09176e-06 0.0780609)
(-3.17421e-07 8.63532e-06 0.0798054)
(-6.3203e-06 5.76863e-05 0.0926657)
(-2.04957e-06 1.9364e-05 0.0946563)
(7.42258e-07 1.33879e-05 0.0779902)
(-3.98464e-07 -1.00233e-05 0.0798657)
(-4.03959e-06 1.27112e-05 0.0927277)
(-1.18271e-06 1.22012e-05 0.0692022)
(2.10023e-06 3.59709e-05 0.083886)
(-3.48807e-06 1.56114e-06 0.0879122)
(-5.14847e-06 3.65866e-05 0.0878432)
(-2.52816e-06 -6.92841e-06 0.0692958)
(-2.47786e-06 -6.84487e-06 0.0693372)
(-5.25642e-06 3.74349e-05 0.0879187)
(4.95126e-06 -1.81922e-06 0.0840122)
(-1.08488e-06 1.22792e-05 0.0692434)
(-3.54465e-06 2.19846e-06 0.0879872)
(5.02795e-07 1.34604e-05 0.0779442)
(-2.54757e-06 6.52577e-05 0.0945094)
(-4.60403e-07 -9.74945e-06 0.0798207)
(-3.86866e-06 1.15619e-05 0.0926426)
(-3.70944e-07 8.89752e-06 0.0797602)
(-6.14641e-06 5.63223e-05 0.0925802)
(-6.26013e-07 -6.00519e-06 0.0780151)
(-2.75339e-05 2.75431e-05 0.0856509)
(6.2777e-06 3.42315e-07 0.0695786)
(-4.19488e-07 -6.33216e-06 0.0695842)
(-1.20309e-05 1.01104e-05 0.069495)
(-1.0029e-05 1.20133e-05 0.0695007)
(-8.5039e-06 8.40622e-06 0.0857052)
(-2.08594e-05 1.60945e-05 0.0946841)
(1.84461e-06 1.63247e-05 0.0900425)
(6.98023e-06 1.24431e-05 0.0834717)
(-3.54209e-05 3.28361e-05 0.100007)
(-1.61668e-05 2.08541e-05 0.0946933)
(-1.63532e-05 -1.90843e-06 0.0900466)
(-3.28873e-05 3.53453e-05 0.100012)
(-1.24298e-05 -7.06984e-06 0.0834781)
(-8.98627e-06 8.87836e-06 0.0857776)
(6.25735e-06 5.03926e-07 0.0696269)
(-5.88225e-07 -6.33872e-06 0.0696326)
(-4.42838e-05 6.9187e-05 0.0945284)
(6.86279e-06 1.19786e-05 0.083406)
(-1.91098e-05 3.63e-05 0.0898923)
(-3.41819e-05 3.16684e-05 0.099928)
(-5.78921e-06 3.08403e-05 0.0833343)
(-6.26493e-05 9.96218e-05 0.0998479)
(-1.99287e-05 1.52775e-05 0.0946007)
(-6.91967e-05 4.4282e-05 0.0945376)
(-1.19542e-05 -6.94902e-06 0.0834122)
(-3.62143e-05 1.91437e-05 0.0898946)
(-3.17244e-05 3.41025e-05 0.0999334)
(-9.95515e-05 6.26828e-05 0.0998525)
(-3.07283e-05 5.78956e-06 0.0833404)
(-1.53311e-05 1.993e-05 0.0946098)
(4.64203e-06 -5.99003e-06 0.0725862)
(-1.61518e-05 3.44078e-06 0.0724571)
(-3.44628e-06 1.58098e-05 0.0723677)
(5.88115e-06 -4.93199e-06 0.0724905)
(-8.05133e-06 7.89172e-06 0.0856347)
(-1.19489e-05 9.96821e-06 0.0694478)
(-9.88983e-06 1.19266e-05 0.0694535)
(-2.70335e-05 2.70439e-05 0.0855801)
(6.31432e-06 1.2039e-07 0.0695313)
(-2.67522e-07 -6.34837e-06 0.0695369)
(-4.24064e-05 6.7082e-05 0.0943665)
(-3.17382e-05 2.94241e-05 0.099773)
(-1.8488e-05 3.50237e-05 0.0897396)
(6.79084e-06 1.10245e-05 0.0832788)
(-6.01088e-05 9.6754e-05 0.0996933)
(-5.9001e-06 2.99105e-05 0.0832064)
(-1.81442e-05 1.36629e-05 0.0944392)
(-6.71048e-05 4.24025e-05 0.0943759)
(-2.94596e-05 3.16889e-05 0.0997785)
(-3.48829e-05 1.8538e-05 0.0897417)
(-1.10041e-05 -6.75556e-06 0.0832849)
(-2.9816e-05 5.92132e-06 0.0832128)
(-9.66786e-05 6.0161e-05 0.099698)
(-1.37349e-05 1.81437e-05 0.0944482)
(-1.90426e-05 1.44784e-05 0.094519)
(-5.86237e-06 3.03759e-05 0.0832696)
(-6.13759e-05 9.81726e-05 0.0997702)
(2.19786e-06 1.49996e-05 0.0898859)
(-3.29434e-05 3.05274e-05 0.0998501)
(-4.33373e-05 6.8126e-05 0.0944466)
(6.803e-06 1.15028e-05 0.0833416)
(-1.45337e-05 1.90222e-05 0.094528)
(-3.028e-05 5.8794e-06 0.0832759)
(-9.81152e-05 6.14126e-05 0.0997749)
(-1.49839e-05 -2.23284e-06 0.0898906)
(-6.81319e-05 4.33323e-05 0.0944558)