/*--------------------------------*- C++ -*----------------------------------*\
| =========                 |                                                 |
| \\      /  F ield         | OpenFOAM: The Open Source CFD Toolbox           |
|  \\    /   O peration     | Version:  2312                                  |
|   \\  /    A nd           | Website:  www.openfoam.com                      |
|    \\/     M anipulation  |                                                 |
\*---------------------------------------------------------------------------*/
FoamFile
{
    version     2.0;
    format      ascii;
    arch        "LSB;label=32;scalar=64";
    class       volScalarField;
    location    "400";
    object      epsilon;
}
// * * * * * * * * * * * * * * * * * * * * * * * * * * * * * * * * * * * * * //

dimensions      [0 2 -3 0 0 0 0];

internalField   nonuniform List<scalar> 
42840
(
1.31329e-07
2.40767e-07
2.40791e-07
3.83386e-07
1.2995e-07
2.53417e-07
2.5344e-07
4.12282e-07
1.29352e-07
2.681e-07
2.68124e-07
4.43609e-07
1.29536e-07
2.84744e-07
2.84773e-07
4.77297e-07
1.30479e-07
3.03266e-07
3.03299e-07
5.12715e-07
1.32183e-07
3.23561e-07
3.23598e-07
5.49759e-07
1.34647e-07
3.45506e-07
3.45553e-07
5.8686e-07
1.37872e-07
3.68967e-07
3.69023e-07
6.24434e-07
1.4186e-07
3.93796e-07
3.93858e-07
6.62071e-07
1.46616e-07
4.19836e-07
4.19901e-07
6.98902e-07
1.52144e-07
4.46926e-07
4.46998e-07
7.35348e-07
1.58449e-07
4.74903e-07
4.74978e-07
7.70961e-07
1.65535e-07
5.03586e-07
5.03661e-07
8.05777e-07
1.73405e-07
5.32797e-07
5.32879e-07
8.39468e-07
1.82059e-07
5.62372e-07
5.62457e-07
8.7205e-07
1.91494e-07
5.92133e-07
5.92236e-07
9.03456e-07
2.01701e-07
6.21922e-07
6.22033e-07
9.33675e-07
2.12666e-07
6.51574e-07
6.51693e-07
9.62642e-07
2.24368e-07
6.8094e-07
6.81062e-07
9.90475e-07
2.36781e-07
7.0989e-07
7.10011e-07
1.0171e-06
2.4987e-07
7.38308e-07
7.38423e-07
1.04258e-06
2.63595e-07
7.66072e-07
7.66193e-07
1.06695e-06
2.77907e-07
7.93096e-07
7.93221e-07
1.09026e-06
2.92751e-07
8.19304e-07
8.19431e-07
1.11254e-06
3.08063e-07
8.44625e-07
8.44757e-07
1.13376e-06
3.83479e-07
4.05855e-07
2.40848e-07
2.4087e-07
2.50147e-07
2.50174e-07
3.83469e-07
4.0581e-07
2.40795e-07
2.40891e-07
2.50093e-07
2.502e-07
2.40842e-07
2.50067e-07
2.50142e-07
3.83348e-07
4.05956e-07
2.40839e-07
2.50089e-07
2.50142e-07
4.06074e-07
4.12119e-07
4.36889e-07
2.53507e-07
2.53533e-07
2.64335e-07
2.64364e-07
4.11862e-07
4.36901e-07
2.53453e-07
2.53559e-07
2.64279e-07
2.64396e-07
2.53501e-07
2.64246e-07
2.64327e-07
4.12259e-07
4.37136e-07
2.53498e-07
2.64268e-07
2.64323e-07
4.36905e-07
4.43757e-07
4.69913e-07
2.68196e-07
2.68223e-07
2.80504e-07
2.80535e-07
4.43549e-07
4.70186e-07
2.6814e-07
2.68258e-07
2.80443e-07
2.80573e-07
2.68189e-07
2.80408e-07
2.805e-07
4.43624e-07
4.7019e-07
2.68182e-07
2.80432e-07
2.80491e-07
4.70135e-07
4.77277e-07
5.05118e-07
2.84848e-07
2.84879e-07
2.98578e-07
2.9861e-07
4.77089e-07
5.05063e-07
2.84786e-07
2.8492e-07
2.98511e-07
2.98651e-07
2.84848e-07
2.9847e-07
2.98572e-07
4.76967e-07
5.04931e-07
2.84834e-07
2.98498e-07
2.98558e-07
5.0417e-07
5.12352e-07
5.40986e-07
3.03381e-07
3.03412e-07
3.18451e-07
3.18481e-07
5.12646e-07
5.41142e-07
3.03311e-07
3.03457e-07
3.18372e-07
3.18528e-07
3.03381e-07
3.1833e-07
3.18455e-07
5.12591e-07
5.41141e-07
3.03361e-07
3.18367e-07
3.18431e-07
5.40426e-07
5.48873e-07
5.77885e-07
3.23688e-07
3.23719e-07
3.4001e-07
3.40038e-07
5.4879e-07
5.78001e-07
3.23606e-07
3.23764e-07
3.39923e-07
3.40089e-07
3.23695e-07
3.39872e-07
3.40021e-07
5.48741e-07
5.77868e-07
3.23668e-07
3.3992e-07
3.39987e-07
5.77485e-07
5.86129e-07
6.15512e-07
3.45647e-07
3.45678e-07
3.63121e-07
3.63149e-07
5.86247e-07
6.1532e-07
3.45555e-07
3.45729e-07
3.63017e-07
3.63201e-07
3.45657e-07
3.6297e-07
3.63127e-07
5.8628e-07
6.1539e-07
3.45623e-07
3.63024e-07
3.63088e-07
6.14504e-07
6.23704e-07
6.52174e-07
3.69122e-07
3.69155e-07
3.87641e-07
3.87671e-07
6.23693e-07
6.52809e-07
3.69018e-07
3.69206e-07
3.87524e-07
3.8772e-07
3.69137e-07
3.87472e-07
3.87655e-07
6.23674e-07
6.5299e-07
3.69091e-07
3.87535e-07
3.876e-07
6.52016e-07
6.61774e-07
6.89383e-07
3.93968e-07
3.94002e-07
4.13413e-07
4.1344e-07
6.61155e-07
6.90052e-07
3.93859e-07
3.94054e-07
4.1329e-07
4.13485e-07
3.93993e-07
4.13226e-07
4.13431e-07
6.61245e-07
6.90222e-07
3.93931e-07
4.13287e-07
4.13366e-07
6.89612e-07
6.99271e-07
7.25664e-07
4.20027e-07
4.20059e-07
4.40271e-07
4.40292e-07
6.98541e-07
7.26657e-07
4.19912e-07
4.20105e-07
4.40139e-07
4.40343e-07
4.20054e-07
4.40067e-07
4.40291e-07
6.98669e-07
7.26616e-07
4.19978e-07
4.40138e-07
4.40215e-07
7.27199e-07
7.36417e-07
7.61722e-07
4.4713e-07
4.47159e-07
4.68056e-07
4.68075e-07
7.35278e-07
7.62597e-07
4.47006e-07
4.47205e-07
4.67907e-07
4.68118e-07
4.47158e-07
4.67836e-07
4.68076e-07
7.35266e-07
7.62304e-07
4.47077e-07
4.6791e-07
4.6799e-07
7.63541e-07
7.72471e-07
7.96752e-07
4.75115e-07
4.75145e-07
4.96577e-07
4.96608e-07
7.71087e-07
7.98073e-07
4.74975e-07
4.75187e-07
4.96422e-07
4.96647e-07
4.7515e-07
4.96358e-07
4.96613e-07
7.71455e-07
7.96587e-07
4.75058e-07
4.96434e-07
4.96519e-07
7.985e-07
8.0736e-07
8.3069e-07
5.03799e-07
5.03834e-07
5.25675e-07
5.25704e-07
8.05629e-07
8.32159e-07
5.03651e-07
5.03871e-07
5.25513e-07
5.2575e-07
5.03847e-07
5.25451e-07
5.25727e-07
8.06892e-07
8.3161e-07
5.03744e-07
5.25535e-07
5.25617e-07
8.32398e-07
8.41143e-07
8.635e-07
5.33013e-07
5.33047e-07
5.55179e-07
5.55204e-07
8.39359e-07
8.65009e-07
5.32859e-07
5.33085e-07
5.55009e-07
5.55247e-07
5.33076e-07
5.54953e-07
5.55237e-07
8.39775e-07
8.64948e-07
5.32959e-07
5.55035e-07
5.55119e-07
8.65154e-07
8.73759e-07
8.95089e-07
5.62592e-07
5.62618e-07
5.8491e-07
5.84928e-07
8.71968e-07
8.96701e-07
5.62428e-07
5.62656e-07
5.84735e-07
5.84989e-07
5.62659e-07
5.84682e-07
5.84978e-07
8.7196e-07
8.96765e-07
5.62532e-07
5.84782e-07
5.84849e-07
8.96723e-07
9.05134e-07
9.25486e-07
5.92353e-07
5.92374e-07
6.14701e-07
6.14717e-07
9.03444e-07
9.25489e-07
5.92184e-07
5.92427e-07
6.1452e-07
6.14788e-07
5.92431e-07
6.14481e-07
6.14777e-07
9.03536e-07
9.2725e-07
5.92292e-07
6.1459e-07
6.1464e-07
9.27106e-07
9.35319e-07
9.54697e-07
6.22134e-07
6.2215e-07
6.4439e-07
6.44409e-07
9.34597e-07
9.54562e-07
6.21959e-07
6.22217e-07
6.44207e-07
6.44487e-07
6.22219e-07
6.4418e-07
6.44476e-07
9.33822e-07
9.56496e-07
6.22073e-07
6.44301e-07
6.44327e-07
9.56246e-07
9.64311e-07
9.82702e-07
6.51779e-07
6.51791e-07
6.73834e-07
6.73849e-07
9.64198e-07
9.82708e-07
6.51598e-07
6.51866e-07
6.73646e-07
6.73927e-07
6.51868e-07
6.73628e-07
6.73926e-07
9.62875e-07
9.84468e-07
6.51712e-07
6.73753e-07
6.73765e-07
9.84284e-07
9.92063e-07
1.00951e-06
6.81141e-07
6.8115e-07
7.02888e-07
7.02908e-07
9.92066e-07
1.00958e-06
6.80955e-07
6.81224e-07
7.02698e-07
7.02976e-07
6.81235e-07
7.02693e-07
7.02989e-07
9.90662e-07
1.01124e-06
6.81069e-07
7.02817e-07
7.02825e-07
1.01108e-06
1.01859e-06
1.03523e-06
7.10079e-07
7.10094e-07
7.31433e-07
7.3146e-07
1.01867e-06
1.03528e-06
7.09887e-07
7.1016e-07
7.31236e-07
7.31514e-07
7.10183e-07
7.31255e-07
7.31544e-07
1.01724e-06
1.03689e-06
7.10011e-07
7.31373e-07
7.31374e-07
1.03675e-06
1.04401e-06
1.05979e-06
7.38477e-07
7.38499e-07
7.59362e-07
7.59385e-07
1.04412e-06
1.05984e-06
7.38282e-07
7.3855e-07
7.59157e-07
7.59437e-07
7.3859e-07
7.59193e-07
7.59474e-07
1.0427e-06
1.06145e-06
7.38414e-07
7.59315e-07
7.59302e-07
1.06132e-06
1.06834e-06
1.08332e-06
7.66238e-07
7.66252e-07
7.86574e-07
7.86589e-07
1.06843e-06
1.08341e-06
7.66034e-07
7.66304e-07
7.86367e-07
7.86642e-07
7.6635e-07
7.86413e-07
7.86685e-07
1.06707e-06
1.08496e-06
7.66173e-07
7.86538e-07
7.86511e-07
1.0848e-06
1.0916e-06
1.10647e-06
7.93255e-07
7.93262e-07
8.1299e-07
8.1299e-07
1.09166e-06
1.10605e-06
7.93048e-07
7.93319e-07
8.12779e-07
8.13047e-07
7.9337e-07
8.12833e-07
8.131e-07
1.09039e-06
1.10738e-06
7.93188e-07
8.12962e-07
8.12924e-07
1.10726e-06
1.11311e-06
1.12803e-06
8.19459e-07
8.19457e-07
8.38538e-07
8.38526e-07
1.11334e-06
1.12811e-06
8.19246e-07
8.19514e-07
8.38319e-07
8.38583e-07
8.19577e-07
8.38378e-07
8.38653e-07
1.11263e-06
1.12832e-06
8.19395e-07
8.38511e-07
8.38472e-07
1.12829e-06
1.13398e-06
8.44783e-07
8.44766e-07
1.1341e-06
8.44564e-07
8.4483e-07
8.44903e-07
1.13395e-06
8.44715e-07
3.7583e-06
8.92067e-06
8.92561e-06
3.73565e-06
1.84404e-05
1.84332e-05
3.75841e-06
8.92211e-06
8.92702e-06
3.7357e-06
1.31331e-07
1.31341e-07
1.31342e-07
1.30231e-07
1.30233e-07
1.30244e-07
1.30245e-07
1.24147e-06
2.86944e-06
1.59578e-07
2.43747e-07
2.88883e-06
1.60135e-07
1.21464e-06
1.84411e-05
1.84339e-05
1.24164e-06
1.59617e-07
2.86825e-06
2.43769e-07
1.6015e-07
2.89029e-06
1.21479e-06
5.17e-06
5.173e-06
3.91589e-07
5.17984e-06
5.18061e-06
3.81807e-06
8.93059e-06
3.80085e-06
8.93499e-06
1.84137e-05
1.84073e-05
3.81815e-06
8.932e-06
3.80092e-06
8.9364e-06
1.29953e-07
1.29963e-07
1.29965e-07
1.29444e-07
1.29447e-07
1.29458e-07
1.29459e-07
1.32201e-06
2.93115e-06
1.62236e-07
2.56905e-07
1.29665e-06
2.94801e-06
1.6313e-07
1.84144e-05
1.84079e-05
1.32237e-06
1.62275e-07
2.93001e-06
2.5693e-07
1.29669e-06
1.63144e-07
2.94948e-06
5.19873e-06
5.20093e-06
4.21182e-07
5.20658e-06
5.20776e-06
3.86459e-06
8.93928e-06
3.85049e-06
8.94296e-06
1.83894e-05
1.83837e-05
3.86399e-06
8.94095e-06
3.85109e-06
8.94432e-06
1.29355e-07
1.29366e-07
1.29367e-07
1.29421e-07
1.29424e-07
1.29436e-07
1.29438e-07
1.39871e-06
2.98557e-06
1.66239e-07
2.72086e-07
1.37393e-06
3.00017e-06
1.67476e-07
1.839e-05
1.83843e-05
1.39884e-06
1.66274e-07
2.98442e-06
2.7211e-07
1.37407e-06
1.67483e-07
3.0016e-06
5.2225e-06
5.22448e-06
4.53392e-07
5.22901e-06
5.23029e-06
3.89939e-06
8.94672e-06
3.88858e-06
8.95006e-06
1.83675e-05
1.83625e-05
3.89879e-06
8.94817e-06
3.8892e-06
8.95146e-06
1.29539e-07
1.29552e-07
1.29553e-07
1.30172e-07
1.30175e-07
1.30188e-07
1.30189e-07
1.46924e-06
3.03348e-06
1.71603e-07
2.89208e-07
1.44627e-06
3.04613e-06
1.73182e-07
1.83679e-05
1.8363e-05
1.46906e-06
1.71639e-07
3.03236e-06
2.89238e-07
1.44639e-06
1.73189e-07
3.04747e-06
5.24237e-06
5.24452e-06
4.87271e-07
5.24792e-06
5.24932e-06
3.9258e-06
8.95332e-06
3.91752e-06
8.95622e-06
1.83477e-05
1.83435e-05
3.92521e-06
8.95472e-06
3.91812e-06
8.95765e-06
1.30482e-07
1.30496e-07
1.30498e-07
1.31686e-07
1.31689e-07
1.31704e-07
1.31705e-07
1.53349e-06
3.07577e-06
1.78334e-07
3.08183e-07
1.51274e-06
3.08675e-06
1.80258e-07
1.83481e-05
1.83439e-05
1.53353e-06
1.78373e-07
3.07468e-06
3.08218e-07
1.51302e-06
1.80266e-07
3.08803e-06
5.25949e-06
5.26142e-06
5.21667e-07
5.26401e-06
5.2654e-06
3.94599e-06
8.95927e-06
3.93962e-06
8.96189e-06
1.833e-05
1.83266e-05
3.94539e-06
8.96075e-06
3.94017e-06
8.96325e-06
1.32186e-07
1.32202e-07
1.32204e-07
1.33961e-07
1.33963e-07
1.33979e-07
1.33982e-07
1.59142e-06
3.11319e-06
1.86432e-07
3.289e-07
1.57337e-06
3.12275e-06
1.887e-07
1.83305e-05
1.8327e-05
1.59151e-06
1.86479e-07
3.11216e-06
3.28944e-07
1.5735e-06
1.88713e-07
3.12398e-06
5.27413e-06
5.27603e-06
5.58796e-07
5.2779e-06
5.27939e-06
3.96165e-06
8.96488e-06
3.95668e-06
8.96731e-06
1.83145e-05
1.83119e-05
3.96105e-06
8.9662e-06
3.9572e-06
8.96867e-06
1.3465e-07
1.34668e-07
1.34671e-07
1.36996e-07
1.36997e-07
1.37016e-07
1.37019e-07
1.64371e-06
3.14645e-06
1.95893e-07
3.51235e-07
1.6276e-06
3.15481e-06
1.98498e-07
1.8315e-05
1.83124e-05
1.64389e-06
1.95947e-07
3.14549e-06
3.51288e-07
1.62774e-06
1.9852e-07
3.15602e-06
5.28693e-06
5.28873e-06
5.95861e-07
5.29011e-06
5.29173e-06
3.97384e-06
8.97036e-06
3.97003e-06
8.97267e-06
1.83013e-05
1.82994e-05
3.9735e-06
8.97161e-06
3.97055e-06
8.974e-06
1.37875e-07
1.37895e-07
1.37899e-07
1.40794e-07
1.40795e-07
1.40815e-07
1.40819e-07
1.69043e-06
3.17624e-06
2.06691e-07
3.75056e-07
1.67617e-06
3.18359e-06
2.09636e-07
1.83018e-05
1.83e-05
1.6906e-06
2.06753e-07
3.17532e-06
3.75113e-07
1.67627e-06
2.0966e-07
3.18473e-06
5.29833e-06
5.30002e-06
6.33197e-07
5.3011e-06
5.30277e-06
3.98378e-06
8.97585e-06
3.98077e-06
8.97821e-06
1.82903e-05
1.82893e-05
3.9837e-06
8.97709e-06
3.98113e-06
8.9795e-06
1.41863e-07
1.41884e-07
1.4189e-07
1.45358e-07
1.45358e-07
1.45379e-07
1.45386e-07
1.73256e-06
3.20312e-06
2.1881e-07
4.00206e-07
1.71936e-06
3.20966e-06
2.22081e-07
1.82909e-05
1.829e-05
1.73241e-06
2.18877e-07
3.20223e-06
4.00264e-07
1.71974e-06
2.22107e-07
3.21075e-06
5.30867e-06
5.31037e-06
6.7087e-07
5.31127e-06
5.31291e-06
3.99214e-06
8.9816e-06
3.98982e-06
8.9841e-06
1.82816e-05
1.82815e-05
3.99207e-06
8.98287e-06
3.99001e-06
8.98535e-06
1.46619e-07
1.4664e-07
1.46649e-07
1.50693e-07
1.50692e-07
1.50715e-07
1.50723e-07
1.7701e-06
3.2276e-06
2.32208e-07
4.26524e-07
1.75837e-06
3.23345e-06
2.35796e-07
1.82824e-05
1.82823e-05
1.77008e-06
2.32282e-07
3.22674e-06
4.26588e-07
1.75858e-06
2.35828e-07
3.23452e-06
5.31832e-06
5.32002e-06
7.08631e-07
5.32079e-06
5.32245e-06
3.99939e-06
8.98778e-06
3.99744e-06
8.99043e-06
1.82754e-05
1.82761e-05
3.99938e-06
8.98878e-06
3.99757e-06
8.99193e-06
1.52146e-07
1.52169e-07
1.5218e-07
1.56804e-07
1.56803e-07
1.56827e-07
1.56837e-07
1.80411e-06
3.24943e-06
2.46843e-07
4.53848e-07
1.79328e-06
3.25619e-06
2.50734e-07
1.82762e-05
1.82769e-05
1.80393e-06
2.46926e-07
3.24929e-06
4.53922e-07
1.79353e-06
2.50771e-07
3.25645e-06
5.32753e-06
5.32922e-06
7.45584e-07
5.32992e-06
5.33161e-06
4.00583e-06
8.99416e-06
4.00411e-06
8.99761e-06
1.82715e-05
1.82731e-05
4.00585e-06
8.99544e-06
4.0042e-06
8.9989e-06
1.58452e-07
1.58475e-07
1.58489e-07
1.63694e-07
1.63694e-07
1.6372e-07
1.63733e-07
1.83481e-06
3.27021e-06
2.62665e-07
4.82019e-07
1.82495e-06
3.27653e-06
2.66842e-07
1.82724e-05
1.82739e-05
1.83473e-06
2.62754e-07
3.27017e-06
4.8209e-07
1.82523e-06
2.66888e-07
3.27654e-06
5.3365e-06
5.3382e-06
7.81073e-07
5.33885e-06
5.34053e-06
4.01173e-06
9.00152e-06
4.01019e-06
9.00525e-06
1.82701e-05
1.82725e-05
4.01179e-06
9.0028e-06
4.01022e-06
9.00655e-06
1.65539e-07
1.65563e-07
1.6558e-07
1.71368e-07
1.71369e-07
1.71397e-07
1.71412e-07
1.8629e-06
3.28974e-06
2.79609e-07
5.10846e-07
1.85391e-06
3.29551e-06
2.8406e-07
1.82709e-05
1.82733e-05
1.86282e-06
2.79706e-07
3.29033e-06
5.10926e-07
1.85416e-06
2.84113e-07
3.29514e-06
5.34535e-06
5.34706e-06
8.15528e-07
5.34768e-06
5.34938e-06
4.01729e-06
9.0096e-06
4.01588e-06
9.01363e-06
1.82709e-05
1.82742e-05
4.01741e-06
9.01091e-06
4.01591e-06
9.01497e-06
1.7341e-07
1.73436e-07
1.73456e-07
1.79826e-07
1.79829e-07
1.79859e-07
1.79877e-07
1.88892e-06
3.30814e-06
2.97609e-07
5.40162e-07
1.88058e-06
3.31379e-06
3.02317e-07
1.82717e-05
1.82749e-05
1.88885e-06
2.97722e-07
3.30889e-06
5.40244e-07
1.88082e-06
3.02381e-07
3.31315e-06
5.35417e-06
5.35587e-06
8.48845e-07
5.35651e-06
5.35819e-06
4.02286e-06
9.01844e-06
4.02139e-06
9.02268e-06
1.8274e-05
1.82781e-05
4.02293e-06
9.0198e-06
4.02143e-06
9.02417e-06
1.82066e-07
1.82094e-07
1.82117e-07
1.89066e-07
1.8907e-07
1.89105e-07
1.89124e-07
1.91311e-06
3.32563e-06
3.16601e-07
5.69797e-07
1.90542e-06
3.33097e-06
3.21541e-07
1.82748e-05
1.82788e-05
1.91309e-06
3.16726e-07
3.32601e-06
5.69888e-07
1.90561e-06
3.21614e-07
3.3303e-06
5.36301e-06
5.36471e-06
8.81045e-07
5.36536e-06
5.36706e-06
4.02845e-06
9.02834e-06
4.0269e-06
9.03247e-06
1.82793e-05
1.82841e-05
4.02851e-06
9.02945e-06
4.02694e-06
9.03412e-06
1.91501e-07
1.91534e-07
1.91558e-07
1.9908e-07
1.99085e-07
1.99126e-07
1.99146e-07
1.93585e-06
3.34229e-06
3.36498e-07
5.99586e-07
1.92869e-06
3.34736e-06
3.4165e-07
1.82801e-05
1.82849e-05
1.93589e-06
3.36628e-07
3.34263e-06
5.99689e-07
1.92883e-06
3.41731e-07
3.34697e-06
5.37193e-06
5.3736e-06
9.12055e-07
5.3743e-06
5.37598e-06
4.03413e-06
9.03843e-06
4.03262e-06
9.04346e-06
1.82867e-05
1.82923e-05
4.03422e-06
9.03987e-06
4.03261e-06
9.04485e-06
2.01708e-07
2.01747e-07
2.01771e-07
2.09855e-07
2.09862e-07
2.09909e-07
2.09928e-07
1.9574e-06
3.3582e-06
3.57215e-07
6.29352e-07
1.95061e-06
3.36305e-06
3.62558e-07
1.82876e-05
1.82931e-05
1.95756e-06
3.57347e-07
3.35856e-06
6.29468e-07
1.95065e-06
3.62641e-07
3.36268e-06
5.38091e-06
5.38255e-06
9.41803e-07
5.38332e-06
5.38502e-06
4.04014e-06
9.0497e-06
4.0386e-06
9.055e-06
1.82962e-05
1.83025e-05
4.04023e-06
9.05108e-06
4.0385e-06
9.05638e-06
2.12673e-07
2.12719e-07
2.12741e-07
2.21375e-07
2.21382e-07
2.21434e-07
2.21455e-07
1.97786e-06
3.37346e-06
3.78658e-07
6.5894e-07
1.97146e-06
3.37805e-06
3.84168e-07
1.8297e-05
1.83032e-05
1.97802e-06
3.78793e-07
3.37392e-06
6.59066e-07
1.97149e-06
3.84254e-07
3.37761e-06
5.38995e-06
5.39161e-06
9.70394e-07
5.39245e-06
5.39409e-06
4.04642e-06
9.06195e-06
4.04482e-06
9.06708e-06
1.83074e-05
1.83143e-05
4.0466e-06
9.06306e-06
4.04476e-06
9.06866e-06
2.24375e-07
2.24427e-07
2.2445e-07
2.33613e-07
2.33621e-07
2.33676e-07
2.337e-07
1.99754e-06
3.38839e-06
4.00732e-07
6.88212e-07
1.99135e-06
3.39216e-06
4.06388e-07
1.83082e-05
1.83151e-05
1.99764e-06
4.00871e-07
3.3884e-06
6.8834e-07
1.9914e-06
4.06476e-07
3.39228e-06
5.39905e-06
5.40079e-06
9.97798e-07
5.40169e-06
5.40325e-06
4.05316e-06
9.07471e-06
4.05133e-06
9.0801e-06
1.83205e-05
1.83281e-05
4.05321e-06
9.07578e-06
4.05127e-06
9.08166e-06
2.36788e-07
2.36845e-07
2.3687e-07
2.46536e-07
2.46548e-07
2.46605e-07
2.46632e-07
2.01635e-06
3.40272e-06
4.23345e-07
7.17041e-07
2.01037e-06
3.40611e-06
4.29119e-07
1.83213e-05
1.83288e-05
2.0164e-06
4.2349e-07
3.40252e-06
7.17166e-07
2.01051e-06
4.29211e-07
3.40618e-06
5.40824e-06
5.41001e-06
1.02402e-06
5.41095e-06
5.41254e-06
4.06002e-06
9.08812e-06
4.05817e-06
9.09381e-06
1.83352e-05
1.83433e-05
4.06027e-06
9.08915e-06
4.05802e-06
9.09522e-06
2.49881e-07
2.49939e-07
2.49967e-07
2.60107e-07
2.60122e-07
2.60181e-07
2.60211e-07
2.03438e-06
3.4164e-06
4.46391e-07
7.45306e-07
2.02872e-06
3.4197e-06
4.52253e-07
1.83361e-05
1.83442e-05
2.03449e-06
4.46541e-07
3.41598e-06
7.45428e-07
2.02881e-06
4.52351e-07
3.42023e-06
5.4175e-06
5.41933e-06
1.04912e-06
5.4203e-06
5.42176e-06
4.0673e-06
9.10188e-06
4.06536e-06
9.10828e-06
1.83513e-05
1.836e-05
4.06733e-06
9.10345e-06
4.0652e-06
9.10933e-06
2.63609e-07
2.6367e-07
2.63701e-07
2.74278e-07
2.74295e-07
2.74358e-07
2.7439e-07
2.05173e-06
3.42956e-06
4.69757e-07
7.72896e-07
2.0463e-06
3.43273e-06
4.75682e-07
1.83524e-05
1.8361e-05
2.05185e-06
4.69914e-07
3.42923e-06
7.73022e-07
2.04641e-06
4.75789e-07
3.43324e-06
5.42683e-06
5.42874e-06
1.07311e-06
5.42963e-06
5.43098e-06
4.0749e-06
9.1165e-06
4.0725e-06
9.12303e-06
1.83689e-05
1.83781e-05
4.07475e-06
9.11804e-06
4.07278e-06
9.12415e-06
2.77924e-07
2.77989e-07
2.78022e-07
2.88994e-07
2.89012e-07
2.8908e-07
2.89115e-07
2.06841e-06
3.44183e-06
4.93335e-07
7.99722e-07
2.0632e-06
3.4457e-06
4.99298e-07
1.83701e-05
1.83793e-05
2.06855e-06
4.93506e-07
3.44184e-06
7.99853e-07
2.06333e-06
4.99417e-07
3.44547e-06
5.43615e-06
5.43807e-06
1.09609e-06
5.43899e-06
5.4405e-06
4.08248e-06
9.13183e-06
4.07997e-06
9.13814e-06
1.83879e-05
1.83976e-05
4.08226e-06
9.13314e-06
4.08033e-06
9.13949e-06
2.92768e-07
2.92837e-07
2.92875e-07
3.04195e-07
3.04212e-07
3.04285e-07
3.04324e-07
2.08442e-06
3.45413e-06
5.17021e-07
8.25716e-07
2.07941e-06
3.45768e-06
5.22991e-07
1.83892e-05
1.83988e-05
2.08453e-06
5.17199e-07
3.45439e-06
8.2585e-07
2.07953e-06
5.23119e-07
3.45754e-06
5.44551e-06
5.44734e-06
1.11804e-06
5.44833e-06
5.45003e-06
4.09019e-06
9.14738e-06
4.08754e-06
9.15382e-06
1.8408e-05
1.84182e-05
4.08997e-06
9.14843e-06
4.088e-06
9.15531e-06
3.08078e-07
3.08153e-07
3.08194e-07
2.09974e-06
3.46592e-06
5.40696e-07
8.50814e-07
2.0949e-06
3.46938e-06
5.46646e-07
1.84094e-05
1.84195e-05
2.09978e-06
5.40883e-07
3.46619e-06
8.50945e-07
2.09503e-06
5.46783e-07
3.46895e-06
5.45491e-06
5.45676e-06
1.13877e-06
5.45764e-06
5.45916e-06
1.84377e-05
1.84305e-05
1.84407e-05
1.84336e-05
5.16997e-06
5.17193e-06
3.91408e-07
5.17982e-06
5.18176e-06
1.84173e-05
1.84241e-05
1.84203e-05
1.84271e-05
3.97225e-07
5.19399e-06
5.19567e-06
5.18458e-06
5.18652e-06
3.75908e-06
8.92098e-06
8.92589e-06
3.73496e-06
1.2414e-06
2.86811e-06
1.59603e-07
2.43822e-07
2.89018e-06
1.60143e-07
1.21466e-06
1.24139e-06
2.86862e-06
1.59601e-07
2.4385e-07
2.89043e-06
1.60139e-07
1.21463e-06
3.77034e-06
8.93047e-06
8.92576e-06
3.79003e-06
3.76964e-06
8.93077e-06
8.92607e-06
3.79077e-06
1.25614e-06
2.4692e-07
2.92065e-06
1.61472e-07
2.90009e-06
1.60768e-07
1.28222e-06
1.25602e-06
2.46944e-07
2.91974e-06
1.6147e-07
2.90078e-06
1.60765e-07
1.28226e-06
5.17222e-06
5.17156e-06
3.91396e-07
5.18162e-06
5.17957e-06
1.84384e-05
1.84312e-05
1.842e-05
1.84268e-05
3.97181e-07
5.19565e-06
5.1936e-06
5.1864e-06
5.18559e-06
1.84179e-05
1.84247e-05
1.24152e-06
2.8687e-06
1.59606e-07
2.43771e-07
2.89078e-06
1.60145e-07
1.21466e-06
3.75826e-06
8.92191e-06
8.92611e-06
3.73572e-06
1.24157e-06
1.59621e-07
2.86995e-06
2.43872e-07
1.6016e-07
2.88945e-06
1.21472e-06
3.7704e-06
8.93188e-06
8.92721e-06
3.79013e-06
1.25611e-06
2.46866e-07
2.92127e-06
1.61475e-07
2.90067e-06
1.60771e-07
1.28226e-06
3.77036e-06
8.93097e-06
8.92701e-06
3.79015e-06
1.2561e-06
2.46967e-07
1.61491e-07
2.91995e-06
1.60787e-07
2.90183e-06
1.28237e-06
3.75819e-06
8.92156e-06
8.92574e-06
3.73579e-06
1.24133e-06
1.59605e-07
2.86829e-06
2.43819e-07
1.60145e-07
2.89033e-06
1.2146e-06
3.75885e-06
8.9215e-06
8.9257e-06
3.73515e-06
1.25611e-06
2.46836e-07
2.91925e-06
1.61464e-07
2.90127e-06
1.60741e-07
1.28214e-06
3.77051e-06
8.93056e-06
8.92664e-06
3.78997e-06
1.25616e-06
2.46913e-07
1.61475e-07
2.92073e-06
1.60769e-07
2.90027e-06
1.28226e-06
3.76975e-06
8.93057e-06
8.92661e-06
3.79072e-06
5.17299e-06
5.17162e-06
3.91446e-07
5.18044e-06
5.17924e-06
1.84387e-05
1.84314e-05
1.84206e-05
1.84275e-05
3.97025e-07
5.1945e-06
5.19295e-06
5.18774e-06
5.18604e-06
1.84181e-05
1.8425e-05
1.2416e-06
1.59624e-07
2.86998e-06
2.43819e-07
1.60157e-07
2.88951e-06
1.21472e-06
3.75838e-06
8.92175e-06
8.92595e-06
3.73595e-06
3.7584e-06
8.92175e-06
8.92671e-06
3.73594e-06
1.25618e-06
2.46858e-07
1.6148e-07
2.92071e-06
1.6078e-07
2.90022e-06
1.28238e-06
1.25611e-06
2.46911e-07
1.61488e-07
2.92e-06
1.60789e-07
2.90185e-06
1.28237e-06
3.77063e-06
8.93079e-06
8.92684e-06
3.79016e-06
3.77063e-06
8.93159e-06
8.9269e-06
3.79014e-06
1.84395e-05
1.84322e-05
1.84416e-05
1.84343e-05
3.97271e-07
5.19395e-06
5.19531e-06
5.18456e-06
5.18768e-06
1.8419e-05
1.84258e-05
1.84211e-05
1.84279e-05
1.84111e-05
1.84046e-05
1.84141e-05
1.84076e-05
5.19859e-06
5.20023e-06
4.21471e-07
5.20661e-06
5.20834e-06
1.83925e-05
1.83986e-05
1.83955e-05
1.84016e-05
4.27519e-07
5.21824e-06
5.22005e-06
5.21101e-06
5.21259e-06
3.81868e-06
8.93088e-06
3.80028e-06
8.93516e-06
1.322e-06
2.93004e-06
1.62262e-07
2.56992e-07
1.29667e-06
2.94933e-06
1.63136e-07
1.32196e-06
2.93152e-06
1.62262e-07
2.5702e-07
1.29662e-06
2.94849e-06
1.63135e-07
3.82766e-06
8.93923e-06
8.93504e-06
3.84316e-06
3.82707e-06
8.93919e-06
8.93548e-06
3.84319e-06
1.33616e-06
2.60598e-07
2.97624e-06
1.6514e-07
2.9581e-06
1.64096e-07
1.36071e-06
1.33608e-06
2.60629e-07
2.97554e-06
1.65139e-07
2.95965e-06
1.64096e-07
1.36073e-06
5.20019e-06
5.19917e-06
4.21107e-07
5.20821e-06
5.20633e-06
1.84116e-05
1.84051e-05
1.83952e-05
1.84013e-05
4.27589e-07
5.21995e-06
5.21783e-06
5.21259e-06
5.21147e-06
1.8393e-05
1.83991e-05
1.32208e-06
2.93061e-06
1.62267e-07
2.56938e-07
1.29672e-06
2.94991e-06
1.63141e-07
3.81805e-06
8.93184e-06
3.8009e-06
8.93548e-06
1.32226e-06
1.62286e-07
2.93168e-06
2.57049e-07
1.29663e-06
1.63157e-07
2.94859e-06
3.82772e-06
8.94063e-06
8.93643e-06
3.8425e-06
1.33617e-06
2.60544e-07
2.97676e-06
1.65147e-07
2.95864e-06
1.64102e-07
1.36082e-06
3.82757e-06
8.93973e-06
8.93624e-06
3.84326e-06
1.33604e-06
2.60658e-07
1.65163e-07
2.97559e-06
1.6412e-07
2.95975e-06
1.36095e-06
3.81795e-06
8.93122e-06
3.80104e-06
8.93527e-06
1.3221e-06
1.62266e-07
2.93025e-06
2.56989e-07
1.29668e-06
1.63141e-07
2.94945e-06
3.81772e-06
8.93144e-06
3.80033e-06
8.93509e-06
1.33611e-06
2.60509e-07
2.97481e-06
1.65133e-07
2.95922e-06
1.64069e-07
1.36121e-06
3.8278e-06
8.93956e-06
8.93542e-06
3.84324e-06
1.33616e-06
2.60593e-07
1.65146e-07
2.97637e-06
1.641e-07
2.95829e-06
1.36071e-06
3.82761e-06
8.93951e-06
8.93587e-06
3.84318e-06
5.2012e-06
5.19971e-06
4.21482e-07
5.20712e-06
5.20582e-06
1.84119e-05
1.84054e-05
1.83958e-05
1.84019e-05
4.27514e-07
5.21989e-06
5.2182e-06
5.21347e-06
5.21185e-06
1.83933e-05
1.83994e-05
1.32225e-06
1.62287e-07
2.93169e-06
2.56988e-07
1.29668e-06
1.63153e-07
2.94863e-06
3.81809e-06
8.93165e-06
3.80112e-06
8.93528e-06
3.81809e-06
8.93171e-06
3.80112e-06
8.93613e-06
1.33617e-06
2.60531e-07
1.65142e-07
2.97629e-06
1.64107e-07
2.95819e-06
1.36131e-06
1.33606e-06
2.6059e-07
1.65158e-07
2.97559e-06
1.64121e-07
2.95977e-06
1.36096e-06
3.82783e-06
8.93959e-06
8.93604e-06
3.84252e-06
3.82783e-06
8.94039e-06
8.9362e-06
3.84254e-06
1.84128e-05
1.84063e-05
1.84149e-05
1.84084e-05
4.27568e-07
5.21829e-06
5.21965e-06
5.21089e-06
5.21323e-06
1.83942e-05
1.84003e-05
1.83963e-05
1.84024e-05
1.83867e-05
1.8381e-05
1.83897e-05
1.8384e-05
5.22218e-06
5.22401e-06
4.53027e-07
5.2289e-06
5.23089e-06
1.83701e-05
1.83754e-05
1.83731e-05
1.83784e-05
4.5977e-07
5.23879e-06
5.2407e-06
5.23283e-06
5.23455e-06
3.86452e-06
8.93984e-06
3.85046e-06
8.94322e-06
1.39811e-06
2.98447e-06
1.66267e-07
2.7218e-07
1.37443e-06
3.00142e-06
1.67481e-07
1.39816e-06
2.98596e-06
1.66266e-07
2.72208e-07
1.3743e-06
3.00069e-06
1.67481e-07
3.8709e-06
8.9467e-06
8.94299e-06
3.88316e-06
3.87085e-06
8.9468e-06
8.94362e-06
3.88313e-06
1.4113e-06
2.76279e-07
3.0251e-06
1.70166e-07
3.00916e-06
1.6878e-07
1.4341e-06
1.41118e-06
2.76311e-07
3.02444e-06
1.70165e-07
3.01069e-06
1.6878e-07
1.4341e-06
5.22401e-06
5.22298e-06
4.53081e-07
5.23045e-06
5.22858e-06
1.83871e-05
1.83815e-05
1.83728e-05
1.83782e-05
4.59755e-07
5.24042e-06
5.23832e-06
5.23415e-06
5.23316e-06
1.83705e-05
1.83758e-05
1.39822e-06
2.98503e-06
1.66275e-07
2.72122e-07
1.37442e-06
3.00184e-06
1.6749e-07
3.86457e-06
8.94042e-06
3.85053e-06
8.94363e-06
1.39825e-06
1.66291e-07
2.98608e-06
2.72243e-07
1.37435e-06
1.67505e-07
3.00077e-06
3.87149e-06
8.94813e-06
8.94436e-06
3.88244e-06
1.41128e-06
2.76222e-07
3.02403e-06
1.70175e-07
3.00984e-06
1.6879e-07
1.4342e-06
3.87091e-06
8.9473e-06
8.94428e-06
3.88315e-06
1.41126e-06
2.76347e-07
1.7019e-07
3.02453e-06
1.68806e-07
3.01079e-06
1.43413e-06
3.86467e-06
8.93991e-06
3.85066e-06
8.94346e-06
1.39814e-06
1.66271e-07
2.98466e-06
2.72176e-07
1.37443e-06
1.67486e-07
3.00156e-06
3.86457e-06
8.93995e-06
3.85056e-06
8.94324e-06
1.41082e-06
2.76182e-07
3.02377e-06
1.70158e-07
3.01023e-06
1.68752e-07
1.43468e-06
3.87096e-06
8.94709e-06
8.94346e-06
3.88323e-06
1.41129e-06
2.76277e-07
1.70171e-07
3.02527e-06
1.68785e-07
3.00933e-06
1.43413e-06
3.87085e-06
8.94707e-06
8.94388e-06
3.88313e-06
5.22437e-06
5.22295e-06
4.53572e-07
5.23047e-06
5.22829e-06
1.83875e-05
1.83817e-05
1.83733e-05
1.83787e-05
4.60045e-07
5.24033e-06
5.23836e-06
5.2347e-06
5.23351e-06
1.83708e-05
1.83762e-05
1.39827e-06
1.66293e-07
2.98607e-06
2.72169e-07
1.37439e-06
1.675e-07
3.00078e-06
3.86389e-06
8.93992e-06
3.85123e-06
8.94368e-06
3.86389e-06
8.94067e-06
3.85125e-06
8.94429e-06
1.41091e-06
2.76208e-07
1.70164e-07
3.02515e-06
1.68788e-07
3.00921e-06
1.43479e-06
1.4113e-06
2.7627e-07
1.70183e-07
3.02454e-06
1.68807e-07
3.01077e-06
1.43415e-06
3.8716e-06
8.94733e-06
8.94363e-06
3.88246e-06
3.87161e-06
8.948e-06
8.94432e-06
3.88246e-06
1.83884e-05
1.83827e-05
1.83905e-05
1.83848e-05
4.5993e-07
5.23891e-06
5.23991e-06
5.23265e-06
5.2349e-06
1.83718e-05
1.83771e-05
1.83738e-05
1.83792e-05
1.83647e-05
1.83598e-05
1.83677e-05
1.83627e-05
5.24247e-06
5.24422e-06
4.87173e-07
5.24787e-06
5.24972e-06
1.835e-05
1.83545e-05
1.83529e-05
1.83575e-05
4.94441e-07
5.25627e-06
5.25811e-06
5.2512e-06
5.25305e-06
3.89932e-06
8.9474e-06
3.8886e-06
8.9502e-06
1.46908e-06
3.0324e-06
1.71633e-07
2.89311e-07
1.44679e-06
3.04728e-06
1.7319e-07
1.46856e-06
3.03388e-06
1.71633e-07
2.89342e-07
1.44672e-06
3.04665e-06
1.73188e-07
3.90411e-06
8.95324e-06
8.95015e-06
3.91344e-06
3.90408e-06
8.95351e-06
8.95071e-06
3.91341e-06
1.48038e-06
2.93886e-07
3.06823e-06
1.7656e-07
3.05415e-06
1.74831e-07
1.50221e-06
1.48072e-06
2.9392e-07
3.06765e-06
1.76557e-07
3.05565e-06
1.74829e-07
1.50159e-06
5.24393e-06
5.24288e-06
4.87228e-07
5.24933e-06
5.24741e-06
1.8365e-05
1.83601e-05
1.83527e-05
1.83573e-05
4.94644e-07
5.25779e-06
5.25587e-06
5.25288e-06
5.25166e-06
1.83502e-05
1.83547e-05
1.46861e-06
3.03377e-06
1.71644e-07
2.89248e-07
1.44682e-06
3.04662e-06
1.732e-07
3.89933e-06
8.94787e-06
3.88866e-06
8.9507e-06
1.46866e-06
1.7166e-07
3.03397e-06
2.89381e-07
1.44684e-06
1.73215e-07
3.04669e-06
3.9047e-06
8.95469e-06
8.9515e-06
3.91272e-06
1.48084e-06
2.93821e-07
3.06764e-06
1.7657e-07
3.05566e-06
1.74841e-07
1.50158e-06
3.90413e-06
8.95392e-06
8.95121e-06
3.91341e-06
1.48082e-06
2.93959e-07
1.76584e-07
3.06772e-06
1.74857e-07
3.05573e-06
1.50156e-06
3.89941e-06
8.94712e-06
3.88869e-06
8.95036e-06
1.4686e-06
1.71638e-07
3.03258e-06
2.8931e-07
1.44678e-06
1.73191e-07
3.04749e-06
3.89932e-06
8.94741e-06
3.88861e-06
8.95038e-06
1.48029e-06
2.93779e-07
3.067e-06
1.7655e-07
3.05523e-06
1.74798e-07
1.50219e-06
3.9042e-06
8.95354e-06
8.95053e-06
3.91347e-06
1.48081e-06
2.93886e-07
1.76558e-07
3.06845e-06
1.74831e-07
3.05435e-06
1.50159e-06
3.90408e-06
8.9537e-06
8.95084e-06
3.9134e-06
5.24427e-06
5.24301e-06
4.87393e-07
5.24889e-06
5.24754e-06
1.83654e-05
1.83605e-05
1.83532e-05
1.83577e-05
4.94403e-07
5.25746e-06
5.25605e-06
5.25323e-06
5.25173e-06
1.83506e-05
1.83552e-05
1.46862e-06
1.71661e-07
3.03393e-06
2.89295e-07
1.44686e-06
1.73208e-07
3.04671e-06
3.8987e-06
8.94746e-06
3.88936e-06
8.95065e-06
3.8987e-06
8.94793e-06
3.8894e-06
8.95134e-06
1.48056e-06
2.93807e-07
1.76555e-07
3.06829e-06
1.74836e-07
3.05422e-06
1.50204e-06
1.48085e-06
2.93868e-07
1.76577e-07
3.06772e-06
1.74858e-07
3.05572e-06
1.50165e-06
3.90483e-06
8.95383e-06
8.95101e-06
3.91278e-06
3.90487e-06
8.95453e-06
8.95134e-06
3.91278e-06
1.83664e-05
1.83614e-05
1.83685e-05
1.83635e-05
4.94153e-07
5.25633e-06
5.2575e-06
5.25122e-06
5.25318e-06
1.83516e-05
1.83562e-05
1.83537e-05
1.83583e-05
1.83449e-05
1.83407e-05
1.83478e-05
1.83437e-05
5.25944e-06
5.26126e-06
5.23035e-07
5.26403e-06
5.26579e-06
1.8332e-05
1.83358e-05
1.83349e-05
1.83387e-05
5.30363e-07
5.27124e-06
5.27299e-06
5.26702e-06
5.26886e-06
3.92572e-06
8.95393e-06
3.91755e-06
8.9564e-06
1.53356e-06