/*--------------------------------*- C++ -*----------------------------------*\
| =========                 |                                                 |
| \\      /  F ield         | OpenFOAM: The Open Source CFD Toolbox           |
|  \\    /   O peration     | Version:  2312                                  |
|   \\  /    A nd           | Website:  www.openfoam.com                      |
|    \\/     M anipulation  |                                                 |
\*---------------------------------------------------------------------------*/
FoamFile
{
    version     2.0;
    format      ascii;
    arch        "LSB;label=32;scalar=64";
    class       volScalarField;
    location    "400";
    object      k;
}
// * * * * * * * * * * * * * * * * * * * * * * * * * * * * * * * * * * * * * //

dimensions      [0 2 -2 0 0 0 0];

internalField   nonuniform List<scalar> 
42840
(
1.45934e-05
1.62416e-05
1.62424e-05
1.86755e-05
1.43149e-05
1.64645e-05
1.64653e-05
1.93729e-05
1.40821e-05
1.67745e-05
1.67753e-05
2.01651e-05
1.38948e-05
1.71684e-05
1.71693e-05
2.10388e-05
1.37526e-05
1.76427e-05
1.76437e-05
2.19793e-05
1.36555e-05
1.81933e-05
1.81945e-05
2.29713e-05
1.36035e-05
1.88156e-05
1.88171e-05
2.40056e-05
1.35971e-05
1.95049e-05
1.95067e-05
2.50668e-05
1.36349e-05
2.02558e-05
2.02576e-05
2.61404e-05
1.3719e-05
2.10624e-05
2.10641e-05
2.72346e-05
1.38489e-05
2.19185e-05
2.19202e-05
2.83013e-05
1.40249e-05
2.28178e-05
2.28198e-05
2.93747e-05
1.42471e-05
2.3754e-05
2.37557e-05
3.04048e-05
1.45155e-05
2.47204e-05
2.47227e-05
3.14281e-05
1.48302e-05
2.5711e-05
2.57139e-05
3.2445e-05
1.51908e-05
2.67195e-05
2.67231e-05
3.34124e-05
1.55967e-05
2.77401e-05
2.77438e-05
3.43868e-05
1.6047e-05
2.87667e-05
2.87708e-05
3.53109e-05
1.65407e-05
2.97945e-05
2.97985e-05
3.62295e-05
1.70762e-05
3.08199e-05
3.08238e-05
3.71161e-05
1.76517e-05
3.18384e-05
3.1842e-05
3.7993e-05
1.82651e-05
3.28452e-05
3.2849e-05
3.88344e-05
1.89138e-05
3.3837e-05
3.38411e-05
3.96443e-05
1.95949e-05
3.48107e-05
3.48149e-05
4.04284e-05
2.03054e-05
3.57634e-05
3.57679e-05
4.1204e-05
1.86881e-05
1.92203e-05
1.62422e-05
1.62422e-05
1.64012e-05
1.64012e-05
1.86876e-05
1.92176e-05
1.62422e-05
1.62432e-05
1.64013e-05
1.64023e-05
1.62422e-05
1.64003e-05
1.6401e-05
1.86886e-05
1.92195e-05
1.62433e-05
1.64012e-05
1.64022e-05
1.92417e-05
1.93889e-05
1.99913e-05
1.64653e-05
1.64654e-05
1.66898e-05
1.66899e-05
1.93888e-05
1.99909e-05
1.64653e-05
1.64666e-05
1.66899e-05
1.66913e-05
1.64653e-05
1.66889e-05
1.66898e-05
1.93898e-05
1.99921e-05
1.64664e-05
1.66897e-05
1.66908e-05
2.00172e-05
2.01829e-05
2.08476e-05
1.67752e-05
1.67755e-05
1.70633e-05
1.70634e-05
2.01819e-05
2.08705e-05
1.67753e-05
1.6777e-05
1.70633e-05
1.70649e-05
1.67757e-05
1.70623e-05
1.70635e-05
2.01836e-05
2.0847e-05
1.67765e-05
1.70631e-05
1.70643e-05
2.08756e-05
2.1057e-05
2.17713e-05
1.71693e-05
1.71697e-05
1.75182e-05
1.75183e-05
2.10383e-05
2.18001e-05
1.71693e-05
1.71713e-05
1.7518e-05
1.75198e-05
1.71702e-05
1.75168e-05
1.75187e-05
2.10583e-05
2.17719e-05
1.71707e-05
1.75178e-05
1.75192e-05
2.18045e-05
2.19992e-05
2.27848e-05
1.76439e-05
1.76443e-05
1.80504e-05
1.80505e-05
2.19732e-05
2.27509e-05
1.76437e-05
1.76459e-05
1.80499e-05
1.80522e-05
1.76451e-05
1.80488e-05
1.80514e-05
2.20002e-05
2.27542e-05
1.76454e-05
1.80501e-05
1.80515e-05
2.27885e-05
2.29726e-05
2.37731e-05
1.8195e-05
1.81953e-05
1.86557e-05
1.86556e-05
2.29918e-05
2.37751e-05
1.81943e-05
1.8197e-05
1.86549e-05
1.86577e-05
1.81964e-05
1.86535e-05
1.86569e-05
2.29969e-05
2.38101e-05
1.81963e-05
1.86552e-05
1.86566e-05
2.38146e-05
2.40258e-05
2.4828e-05
1.88178e-05
1.8818e-05
1.93292e-05
1.93291e-05
2.40284e-05
2.48299e-05
1.88168e-05
1.88201e-05
1.93279e-05
1.93314e-05
1.88195e-05
1.93266e-05
1.93307e-05
2.39995e-05
2.48287e-05
1.8819e-05
1.93286e-05
1.933e-05
2.48707e-05
2.50904e-05
2.59338e-05
1.95076e-05
1.95078e-05
2.0066e-05
2.00657e-05
2.50908e-05
2.59083e-05
1.95062e-05
1.95101e-05
2.00641e-05
2.00676e-05
1.95096e-05
2.00626e-05
2.00676e-05
2.5089e-05
2.59016e-05
1.95087e-05
2.00645e-05
2.00663e-05
2.59389e-05
2.61439e-05
2.70015e-05
2.0259e-05
2.02593e-05
2.08595e-05
2.08594e-05
2.61584e-05
2.6974e-05
2.02573e-05
2.02612e-05
2.08576e-05
2.08612e-05
2.02614e-05
2.08559e-05
2.08616e-05
2.61612e-05
2.69944e-05
2.02599e-05
2.08577e-05
2.08598e-05
2.69745e-05
2.72046e-05
2.80576e-05
2.10658e-05
2.10663e-05
2.17041e-05
2.1704e-05
2.72238e-05
2.80623e-05
2.10641e-05
2.10681e-05
2.17019e-05
2.17057e-05
2.10687e-05
2.17002e-05
2.17066e-05
2.7213e-05
2.80691e-05
2.10667e-05
2.17021e-05
2.17044e-05
2.804e-05
2.82639e-05
2.91239e-05
2.19221e-05
2.19229e-05
2.25935e-05
2.25937e-05
2.82823e-05
2.91225e-05
2.192e-05
2.19243e-05
2.25908e-05
2.25949e-05
2.19254e-05
2.25894e-05
2.25964e-05
2.82837e-05
2.91167e-05
2.1923e-05
2.25914e-05
2.2594e-05
2.90988e-05
2.9334e-05
3.01695e-05
2.28217e-05
2.28228e-05
2.35209e-05
2.35219e-05
2.93381e-05
3.01632e-05
2.28192e-05
2.28239e-05
2.35182e-05
2.35226e-05
2.28255e-05
2.3517e-05
2.35246e-05
2.93251e-05
3.01596e-05
2.28228e-05
2.3519e-05
2.35218e-05
3.01467e-05
3.03827e-05
3.11979e-05
2.37575e-05
2.37593e-05
2.44801e-05
2.44812e-05
3.03792e-05
3.11923e-05
2.37549e-05
2.376e-05
2.44771e-05
2.4482e-05
2.37623e-05
2.44764e-05
2.44846e-05
3.03767e-05
3.119e-05
2.37593e-05
2.44785e-05
2.44816e-05
3.11688e-05
3.13965e-05
3.21949e-05
2.47239e-05
2.47257e-05
2.54654e-05
2.54665e-05
3.14066e-05
3.22016e-05
2.47211e-05
2.47265e-05
2.54622e-05
2.54673e-05
2.47293e-05
2.54616e-05
2.54702e-05
3.13943e-05
3.2201e-05
2.4726e-05
2.54642e-05
2.54671e-05
3.21779e-05
3.24075e-05
3.31881e-05
2.57148e-05
2.57163e-05
2.64701e-05
2.64709e-05
3.24062e-05
3.31664e-05
2.57118e-05
2.57172e-05
2.64668e-05
2.64725e-05
2.57202e-05
2.64661e-05
2.64753e-05
3.24117e-05
3.31924e-05
2.57168e-05
2.64698e-05
2.6472e-05
3.31779e-05
3.33871e-05
3.41527e-05
2.67232e-05
2.67246e-05
2.74879e-05
2.74887e-05
3.34116e-05
3.41318e-05
2.67201e-05
2.67262e-05
2.74846e-05
2.74906e-05
2.67292e-05
2.74843e-05
2.74937e-05
3.33938e-05
3.41353e-05
2.67256e-05
2.7488e-05
2.749e-05
3.41426e-05
3.43497e-05
3.509e-05
2.77434e-05
2.77448e-05
2.85132e-05
2.8514e-05
3.43712e-05
3.50826e-05
2.77403e-05
2.77466e-05
2.85099e-05
2.85163e-05
2.77499e-05
2.85098e-05
2.8519e-05
3.43753e-05
3.50838e-05
2.77459e-05
2.85142e-05
2.85153e-05
3.50802e-05
3.52882e-05
3.60105e-05
2.877e-05
2.87711e-05
2.95411e-05
2.95416e-05
3.52944e-05
3.60163e-05
2.87667e-05
2.87733e-05
2.95377e-05
2.95437e-05
2.87761e-05
2.95376e-05
2.9547e-05
3.53097e-05
3.59967e-05
2.87722e-05
2.9542e-05
2.95432e-05
3.60065e-05
3.61964e-05
3.69061e-05
2.9798e-05
2.97988e-05
3.05676e-05
3.05677e-05
3.62009e-05
3.69071e-05
2.97945e-05
2.98007e-05
3.05639e-05
3.05696e-05
2.9804e-05
3.0564e-05
3.05734e-05
3.62294e-05
3.68853e-05
2.98e-05
3.05682e-05
3.05693e-05
3.69006e-05
3.70843e-05
3.77509e-05
3.08233e-05
3.08238e-05
3.15878e-05
3.1588e-05
3.70915e-05
3.7779e-05
3.08195e-05
3.08255e-05
3.15839e-05
3.15894e-05
3.08295e-05
3.15846e-05
3.15939e-05
3.71172e-05
3.77617e-05
3.08251e-05
3.15885e-05
3.15896e-05
3.77706e-05
3.79909e-05
3.86155e-05
3.18416e-05
3.18419e-05
3.25979e-05
3.25978e-05
3.79594e-05
3.86282e-05
3.18375e-05
3.18432e-05
3.25937e-05
3.25993e-05
3.18476e-05
3.25948e-05
3.26038e-05
3.79817e-05
3.86168e-05
3.18431e-05
3.25989e-05
3.25995e-05
3.86203e-05
3.88112e-05
3.94516e-05
3.28484e-05
3.28483e-05
3.35938e-05
3.35933e-05
3.88063e-05
3.94596e-05
3.28441e-05
3.28498e-05
3.35893e-05
3.3595e-05
3.28542e-05
3.35907e-05
3.35993e-05
3.88228e-05
3.94406e-05
3.28497e-05
3.35949e-05
3.35949e-05
3.94648e-05
3.96183e-05
4.02284e-05
3.38401e-05
3.38396e-05
3.45724e-05
3.45712e-05
3.96321e-05
4.02492e-05
3.38354e-05
3.38413e-05
3.45675e-05
3.4573e-05
3.38458e-05
3.4569e-05
3.45779e-05
3.96507e-05
4.02544e-05
3.38412e-05
3.45735e-05
3.45734e-05
4.02638e-05
4.04457e-05
4.10096e-05
3.48141e-05
3.48128e-05
3.5531e-05
3.55291e-05
4.04218e-05
4.1022e-05
3.48091e-05
3.48145e-05
3.55258e-05
3.5531e-05
3.48195e-05
3.55273e-05
3.55361e-05
4.04336e-05
4.10383e-05
3.48149e-05
3.55319e-05
3.55317e-05
4.10331e-05
4.12088e-05
3.57673e-05
3.57652e-05
4.12044e-05
3.57621e-05
3.57672e-05
3.57722e-05
4.12009e-05
3.57676e-05
5.48471e-05
7.0103e-05
7.0125e-05
5.43679e-05
6.95615e-05
6.95432e-05
5.4848e-05
7.0105e-05
7.0127e-05
5.43667e-05
1.45933e-05
1.45937e-05
1.45937e-05
1.43802e-05
1.438e-05
1.43805e-05
1.43804e-05
3.10604e-05
4.64323e-05
1.47093e-05
1.62888e-05
4.68103e-05
1.46753e-05
3.04982e-05
6.95614e-05
6.95433e-05
3.10618e-05
1.47096e-05
4.64293e-05
1.62897e-05
1.46756e-05
4.68136e-05
3.04991e-05
5.97071e-05
5.97173e-05
1.88883e-05
5.99077e-05
5.99179e-05
5.59488e-05
7.0155e-05
5.55447e-05
7.01742e-05
6.94943e-05
6.94779e-05
5.59494e-05
7.01569e-05
5.55435e-05
7.01761e-05
1.43147e-05
1.43152e-05
1.43152e-05
1.41361e-05
1.4136e-05
1.41364e-05
1.41364e-05
3.27322e-05
4.75491e-05
1.46029e-05
1.65338e-05
3.21837e-05
4.78918e-05
1.45859e-05
6.94942e-05
6.94779e-05
3.27297e-05
1.46033e-05
4.75484e-05
1.65347e-05
3.21864e-05
1.45863e-05
4.78993e-05
6.029e-05
6.02993e-05
1.96159e-05
6.04697e-05
6.04782e-05
5.68658e-05
7.02003e-05
5.65236e-05
7.02173e-05
6.9433e-05
6.94186e-05
5.68663e-05
7.0202e-05
5.65224e-05
7.02189e-05
1.4082e-05
1.40825e-05
1.40825e-05
1.39375e-05
1.39375e-05
1.39379e-05
1.39379e-05
3.43388e-05
4.85711e-05
1.45658e-05
1.68652e-05
3.38148e-05
4.88868e-05
1.45676e-05
6.94329e-05
6.94184e-05
3.43377e-05
1.45663e-05
4.85724e-05
1.6866e-05
3.3819e-05
1.4568e-05
4.88883e-05
6.08122e-05
6.08205e-05
2.04346e-05
6.09734e-05
6.09812e-05
5.76349e-05
7.0239e-05
5.73414e-05
7.02538e-05
6.93777e-05
6.93653e-05
5.76351e-05
7.02408e-05
5.73402e-05
7.02557e-05
1.38948e-05
1.38953e-05
1.38954e-05
1.37841e-05
1.37841e-05
1.37846e-05
1.37847e-05
3.58636e-05
4.9506e-05
1.45967e-05
1.72796e-05
3.537e-05
4.97932e-05
1.46154e-05
6.93773e-05
6.93648e-05
3.58636e-05
1.45973e-05
4.95078e-05
1.72805e-05
3.53732e-05
1.46159e-05
4.9797e-05
6.12816e-05
6.129e-05
2.13308e-05
6.14274e-05
6.14348e-05
5.82878e-05
7.02731e-05
5.80328e-05
7.02864e-05
6.93278e-05
6.93173e-05
5.82874e-05
7.0275e-05
5.80315e-05
7.02882e-05
1.37527e-05
1.37532e-05
1.37534e-05
1.36758e-05
1.36759e-05
1.36764e-05
1.36766e-05
3.72907e-05
5.0363e-05
1.46969e-05
1.77734e-05
3.68313e-05
5.06274e-05
1.47328e-05
6.93273e-05
6.93167e-05
3.7292e-05
1.46976e-05
5.03652e-05
1.77745e-05
3.68343e-05
1.47333e-05
5.06302e-05
6.17067e-05
6.17149e-05
2.22892e-05
6.18387e-05
6.18466e-05
5.88501e-05
7.03037e-05
5.86264e-05
7.03164e-05
6.92833e-05
6.92747e-05
5.88489e-05
7.03055e-05
5.86251e-05
7.03182e-05
1.36556e-05
1.36562e-05
1.36564e-05
1.36125e-05
1.36125e-05
1.36132e-05
1.36134e-05
3.86181e-05
5.11502e-05
1.48653e-05
1.83423e-05
3.81941e-05
5.13943e-05
1.49181e-05
6.92829e-05
6.92742e-05
3.86206e-05
1.48661e-05
5.11526e-05
1.83438e-05
3.81966e-05
1.49188e-05
5.13972e-05
6.20935e-05
6.2102e-05
2.32951e-05
6.22149e-05
6.22236e-05
5.93426e-05
7.03325e-05
5.91449e-05
7.03453e-05
6.92443e-05
6.92377e-05
5.93411e-05
7.03345e-05
5.91435e-05
7.03467e-05
1.36035e-05
1.36041e-05
1.36044e-05
1.35949e-05
1.35949e-05
1.35956e-05
1.35959e-05
3.9848e-05
5.18757e-05
1.51011e-05
1.89819e-05
3.94555e-05
5.21025e-05
1.51707e-05
6.9244e-05
6.92373e-05
3.98513e-05
1.51022e-05
5.18787e-05
1.89836e-05
3.94586e-05
1.51715e-05
5.21054e-05
6.24493e-05
6.24578e-05
2.43379e-05
6.25613e-05
6.25701e-05
5.97812e-05
7.03603e-05
5.96041e-05
7.0374e-05
6.92109e-05
6.92063e-05
5.97802e-05
7.03622e-05
5.96029e-05
7.03748e-05
1.35971e-05
1.35978e-05
1.35982e-05
1.36213e-05
1.36212e-05
1.3622e-05
1.36224e-05
4.09866e-05
5.25464e-05
1.54033e-05
1.9687e-05
4.06221e-05
5.27602e-05
1.54893e-05
6.92107e-05
6.92061e-05
4.09915e-05
1.54047e-05
5.255e-05
1.96891e-05
4.06231e-05
1.54903e-05
5.27634e-05
6.27788e-05
6.27875e-05
2.54029e-05
6.28837e-05
6.28926e-05
6.01791e-05
7.03888e-05
6.00175e-05
7.04031e-05
6.91832e-05
6.91807e-05
6.01781e-05
7.03901e-05
6.00163e-05
7.0404e-05
1.3635e-05
1.36359e-05
1.36363e-05
1.36939e-05
1.36938e-05
1.36946e-05
1.36951e-05
4.20442e-05
5.31727e-05
1.57707e-05
2.04525e-05
4.16983e-05
5.33715e-05
1.58727e-05
6.91832e-05
6.91808e-05
4.2049e-05
1.57722e-05
5.31774e-05
2.04543e-05
4.16981e-05
1.58738e-05
5.33742e-05
6.30878e-05
6.30962e-05
2.64451e-05
6.3186e-05
6.31951e-05
6.05436e-05
7.04186e-05
6.03946e-05
7.04342e-05
6.91614e-05
6.91611e-05
6.05426e-05
7.04197e-05
6.03941e-05
7.0435e-05
1.37191e-05
1.37199e-05
1.37205e-05
1.38123e-05
1.38122e-05
1.38131e-05
1.38137e-05
4.30254e-05
5.37594e-05
1.62012e-05
2.12721e-05
4.26958e-05
5.39442e-05
1.63188e-05
6.91617e-05
6.91613e-05
4.30303e-05
1.62029e-05
5.37633e-05
2.12739e-05
4.26956e-05
1.63199e-05
5.39484e-05
6.3379e-05
6.33874e-05
2.75071e-05
6.3472e-05
6.3481e-05
6.0881e-05
7.04507e-05
6.07431e-05
7.04673e-05
6.91457e-05
6.91475e-05
6.08793e-05
7.0453e-05
6.07427e-05
7.04671e-05
1.3849e-05
1.38498e-05
1.38506e-05
1.39767e-05
1.39767e-05
1.39776e-05
1.39784e-05
4.3941e-05
5.43114e-05
1.66926e-05
2.21395e-05
4.36239e-05
5.44863e-05
1.68249e-05
6.91461e-05
6.91478e-05
4.39451e-05
1.66947e-05
5.43145e-05
2.21415e-05
4.36245e-05
1.68265e-05
5.44893e-05
6.36556e-05
6.36643e-05
2.8584e-05
6.37446e-05
6.37537e-05
6.11957e-05
7.04869e-05
6.1068e-05
7.05022e-05
6.9136e-05
6.914e-05
6.11952e-05
7.04882e-05
6.10666e-05
7.05034e-05
1.4025e-05
1.40259e-05
1.40269e-05
1.41874e-05
1.41874e-05
1.41883e-05
1.41893e-05
4.47981e-05
5.48332e-05
1.72422e-05
2.30489e-05
4.44928e-05
5.49992e-05
1.73887e-05
6.91364e-05
6.91403e-05
4.48019e-05
1.72447e-05
5.48351e-05
2.30509e-05
4.44934e-05
1.73906e-05
5.50022e-05
6.39205e-05
6.39294e-05
2.96341e-05
6.40059e-05
6.40151e-05
6.14953e-05
7.05254e-05
6.1373e-05
7.05421e-05
6.91323e-05
6.91384e-05
6.14944e-05
7.05266e-05
6.13727e-05
7.05433e-05
1.42473e-05
1.42482e-05
1.42494e-05
1.44442e-05
1.44443e-05
1.44454e-05
1.44466e-05
4.56059e-05
5.53294e-05
1.78476e-05
2.39931e-05
4.53102e-05
5.54884e-05
1.80076e-05
6.91327e-05
6.91387e-05
4.56108e-05
1.78502e-05
5.53283e-05
2.39952e-05
4.53106e-05
1.80096e-05
5.54925e-05
6.41755e-05
6.41844e-05
3.06642e-05
6.42581e-05
6.42676e-05
6.17821e-05
7.05676e-05
6.16631e-05
7.05859e-05
6.91344e-05
6.91426e-05
6.17799e-05
7.05689e-05
6.16634e-05
7.05872e-05
1.45158e-05
1.45168e-05
1.45183e-05
1.47474e-05
1.47476e-05
1.47487e-05
1.47501e-05
4.63715e-05
5.58014e-05
1.85053e-05
2.4966e-05
4.60842e-05
5.59543e-05
1.86779e-05
6.91348e-05
6.91429e-05
4.63762e-05
1.85084e-05
5.57988e-05
2.49686e-05
4.60851e-05
1.86803e-05
5.59608e-05
6.4422e-05
6.44301e-05
3.16742e-05
6.4502e-05
6.45122e-05
6.20564e-05
7.06138e-05
6.19439e-05
7.0634e-05
6.91422e-05
6.91525e-05
6.20563e-05
7.06153e-05
6.1943e-05
7.06353e-05
1.48306e-05
1.48317e-05
1.48333e-05
1.50965e-05
1.50968e-05
1.50981e-05
1.50996e-05
4.71007e-05
5.62512e-05
1.92118e-05
2.59617e-05
4.68207e-05
5.64011e-05
1.93961e-05
6.91426e-05
6.91527e-05
4.71051e-05
1.92157e-05
5.62489e-05
2.59651e-05
4.68227e-05
1.93992e-05
5.64071e-05
6.46606e-05
6.46683e-05
3.26826e-05
6.47394e-05
6.47492e-05
6.23257e-05
7.06625e-05
6.22155e-05
7.06869e-05
6.91556e-05
6.91678e-05
6.23246e-05
7.06657e-05
6.22148e-05
7.06873e-05
1.51912e-05
1.51925e-05
1.51942e-05
1.54911e-05
1.54914e-05
1.54931e-05
1.54946e-05
4.77985e-05
5.66827e-05
1.99636e-05
2.69739e-05
4.75252e-05
5.68296e-05
2.01587e-05
6.9156e-05
6.91681e-05
4.78029e-05
1.9968e-05
5.66808e-05
2.69776e-05
4.75266e-05
2.01623e-05
5.68356e-05
6.48924e-05
6.49e-05
3.36433e-05
6.49702e-05
6.49796e-05
6.25907e-05
7.07181e-05
6.24795e-05
7.07415e-05
6.91743e-05
6.91884e-05
6.25882e-05
7.072e-05
6.24791e-05
7.07432e-05
1.55971e-05
1.55987e-05
1.56004e-05
1.59304e-05
1.59308e-05
1.59328e-05
1.59342e-05
4.84681e-05
5.70971e-05
2.07572e-05
2.79966e-05
4.82018e-05
5.72407e-05
2.0962e-05
6.91747e-05
6.91887e-05
4.8472e-05
2.07617e-05
5.70949e-05
2.80006e-05
4.82029e-05
2.09658e-05
5.72466e-05
6.51183e-05
6.51256e-05
3.46166e-05
6.51949e-05
6.52039e-05
6.2851e-05
7.07768e-05
6.27409e-05
7.08017e-05
6.91981e-05
6.92141e-05
6.28479e-05
7.07784e-05
6.27403e-05
7.08033e-05
1.60475e-05
1.60494e-05
1.6051e-05
1.64133e-05
1.64137e-05
1.64159e-05
1.64174e-05
4.91139e-05
5.74956e-05
2.1588e-05
2.90238e-05
4.88529e-05
5.76364e-05
2.18016e-05
6.91984e-05
6.92141e-05
4.91166e-05
2.15927e-05
5.74936e-05
2.90281e-05
4.88546e-05
2.18053e-05
5.76424e-05
6.53385e-05
6.53458e-05
3.55329e-05
6.54138e-05
6.54227e-05
6.31083e-05
7.08375e-05
6.29994e-05
7.08669e-05
6.92267e-05
6.92444e-05
6.31056e-05
7.08409e-05
6.2999e-05
7.08674e-05
1.65411e-05
1.65433e-05
1.65449e-05
1.69385e-05
1.69388e-05
1.69412e-05
1.69428e-05
4.97363e-05
5.78799e-05
2.24518e-05
3.00513e-05
4.94829e-05
5.80177e-05
2.2673e-05
6.92269e-05
6.92443e-05
4.97389e-05
2.24565e-05
5.78783e-05
3.00555e-05
4.94848e-05
2.26768e-05
5.80239e-05
6.55534e-05
6.55608e-05
3.64502e-05
6.56275e-05
6.56364e-05
6.33634e-05
7.0904e-05
6.32553e-05
7.09347e-05
6.92598e-05
6.92791e-05
6.33603e-05
7.09071e-05
6.32543e-05
7.09351e-05
1.70765e-05
1.70789e-05
1.70806e-05
1.75042e-05
1.75046e-05
1.7507e-05
1.75089e-05
5.0338e-05
5.82506e-05
2.33445e-05
3.10754e-05
5.00931e-05
5.83854e-05
2.35722e-05
6.92599e-05
6.92788e-05
5.034e-05
2.33492e-05
5.82494e-05
3.10795e-05
5.00955e-05
2.35761e-05
5.83917e-05
6.57633e-05
6.5771e-05
3.7321e-05
6.5836e-05
6.58451e-05
6.3617e-05
7.09738e-05
6.35095e-05
7.10055e-05
6.92969e-05
6.93175e-05
6.36138e-05
7.09768e-05
6.35098e-05
7.10065e-05
1.76522e-05
1.76546e-05
1.76565e-05
1.81083e-05
1.81089e-05
1.81114e-05
1.81133e-05
5.09194e-05
5.86085e-05
2.42618e-05
3.20913e-05
5.06833e-05
5.87402e-05
2.4495e-05
6.92971e-05
6.93174e-05
5.09224e-05
2.42664e-05
5.86068e-05
3.20953e-05
5.06848e-05
2.4499e-05
5.87458e-05
6.59683e-05
6.59763e-05
3.81833e-05
6.60396e-05
6.60487e-05
6.38673e-05
7.10481e-05
6.3762e-05
7.10789e-05
6.93377e-05
6.93595e-05
6.38664e-05
7.10484e-05
6.37594e-05
7.10816e-05
1.82657e-05
1.82682e-05
1.82702e-05
1.87485e-05
1.87491e-05
1.87518e-05
1.87538e-05
5.14829e-05
5.89538e-05
2.52003e-05
3.30947e-05
5.12543e-05
5.90824e-05
2.54382e-05
6.93382e-05
6.93598e-05
5.14874e-05
2.52052e-05
5.89524e-05
3.30988e-05
5.12563e-05
2.54425e-05
5.90879e-05
6.61685e-05
6.61765e-05
3.90459e-05
6.6238e-05
6.62474e-05
6.41137e-05
7.11242e-05
6.40129e-05
7.11562e-05
6.9382e-05
6.94051e-05
6.41138e-05
7.11244e-05
6.40092e-05
7.11587e-05
1.89144e-05
1.89171e-05
1.89192e-05
1.94218e-05
1.94225e-05
1.94253e-05
1.94275e-05
5.2026e-05
5.92874e-05
2.61564e-05
3.40821e-05
5.18062e-05
5.94126e-05
2.63981e-05
6.93827e-05
6.94058e-05
5.20317e-05
2.61618e-05
5.92861e-05
3.40865e-05
5.18094e-05
2.64029e-05
5.9418e-05
6.63642e-05
6.63721e-05
3.98657e-05
6.64319e-05
6.64411e-05
6.43584e-05
7.12014e-05
6.42588e-05
7.12365e-05
6.94296e-05
6.9454e-05
6.43586e-05
7.12028e-05
6.42553e-05
7.12376e-05
1.95956e-05
1.95985e-05
1.96008e-05
2.01253e-05
2.01258e-05
2.01289e-05
2.01314e-05
5.25506e-05
5.96091e-05
2.71257e-05
3.50508e-05
5.23385e-05
5.97316e-05
2.73697e-05
6.94307e-05
6.9455e-05
5.25549e-05
2.71314e-05
5.96083e-05
3.50553e-05
5.23409e-05
2.73749e-05
5.97363e-05
6.65553e-05
6.65627e-05
4.06557e-05
6.6621e-05
6.66303e-05
6.45976e-05
7.12822e-05
6.44997e-05
7.1318e-05
6.94804e-05
6.95059e-05
6.45968e-05
7.12848e-05
6.4498e-05
7.13184e-05
2.03059e-05
2.03091e-05
2.03116e-05
5.30545e-05
5.99199e-05
2.81024e-05
3.59983e-05
5.28507e-05
6.00388e-05
2.83476e-05
6.94816e-05
6.95071e-05
5.30579e-05
2.81086e-05
5.99189e-05
3.60028e-05
5.28531e-05
2.83533e-05
6.00431e-05
6.67415e-05
6.6749e-05
4.14023e-05
6.68055e-05
6.68142e-05
6.95596e-05
6.95413e-05
6.95622e-05
6.9544e-05
5.97118e-05
5.97222e-05
1.88682e-05
5.99123e-05
5.99229e-05
6.9508e-05
6.95253e-05
6.95106e-05
6.95279e-05
1.90252e-05
6.02004e-05
6.02106e-05
6.00118e-05
6.00219e-05
5.48464e-05
7.01e-05
7.01219e-05
5.43669e-05
3.10593e-05
4.64341e-05
1.4709e-05
1.62896e-05
4.68107e-05
1.4675e-05
3.05012e-05
3.10579e-05
4.64358e-05
1.47089e-05
1.62895e-05
4.68138e-05
1.46749e-05
3.04999e-05
5.49834e-05
7.01504e-05
7.01299e-05
5.54234e-05
5.49825e-05
7.01474e-05
7.01267e-05
5.54225e-05
3.13492e-05
1.63426e-05
4.73664e-05
1.46217e-05
4.70042e-05
1.46472e-05
3.19018e-05
3.13482e-05
1.63427e-05
4.73674e-05
1.46216e-05
4.70068e-05
1.46471e-05
3.18997e-05
5.97169e-05
5.97112e-05
1.88663e-05
5.9917e-05
5.99102e-05
6.95599e-05
6.95417e-05
6.95098e-05
6.95271e-05
1.90253e-05
6.02055e-05
6.01987e-05
6.00159e-05
6.00115e-05
6.95083e-05
6.95254e-05
3.10633e-05
4.64367e-05
1.47094e-05
1.62897e-05
4.68157e-05
1.46754e-05
3.05006e-05
5.48473e-05
7.00978e-05
7.01236e-05
5.43659e-05
3.10626e-05
1.47094e-05
4.64361e-05
1.62905e-05
1.46754e-05
4.68142e-05
3.05022e-05
5.49822e-05
7.01524e-05
7.01318e-05
5.5424e-05
3.13452e-05
1.63426e-05
4.73701e-05
1.46221e-05
4.70074e-05
1.46476e-05
3.19041e-05
5.49812e-05
7.01491e-05
7.01246e-05
5.54233e-05
3.13456e-05
1.63438e-05
1.4622e-05
4.73669e-05
1.46475e-05
4.70058e-05
3.19048e-05
5.48368e-05
7.01e-05
7.01257e-05
5.43706e-05
3.10621e-05
1.47096e-05
4.64299e-05
1.62893e-05
1.46756e-05
4.68112e-05
3.05002e-05
5.48424e-05
7.00969e-05
7.01226e-05
5.43679e-05
3.13446e-05
1.6342e-05
4.73637e-05
1.46219e-05
4.70018e-05
1.46474e-05
3.19006e-05
5.49852e-05
7.01505e-05
7.01266e-05
5.54132e-05
3.13456e-05
1.63427e-05
1.46223e-05
4.73682e-05
1.46479e-05
4.70016e-05
3.19017e-05
5.49829e-05
7.01482e-05
7.01236e-05
5.54187e-05
5.97168e-05
5.97125e-05
1.88674e-05
5.99175e-05
5.99123e-05
6.95601e-05
6.95419e-05
6.95099e-05
6.95271e-05
1.90259e-05
6.02062e-05
6.02015e-05
6.00167e-05
6.00122e-05
6.95085e-05
6.95257e-05
3.10602e-05
1.47102e-05
4.64374e-05
1.62905e-05
1.46762e-05
4.68148e-05
3.05022e-05
5.48399e-05
7.01008e-05
7.01264e-05
5.43729e-05
5.4839e-05
7.01001e-05
7.01223e-05
5.43721e-05
3.13481e-05
1.63428e-05
1.46223e-05
4.73682e-05
1.46478e-05
4.70015e-05
3.19047e-05
3.13504e-05
1.63438e-05
1.4623e-05
4.73671e-05
1.46485e-05
4.70074e-05
3.19007e-05
5.49874e-05
7.01518e-05
7.01275e-05
5.54157e-05
5.49867e-05
7.01479e-05
7.01271e-05
5.54148e-05
6.95594e-05
6.95412e-05
6.95618e-05
6.95436e-05
1.90107e-05
6.01967e-05
6.0206e-05
6.00073e-05
6.00172e-05
6.95079e-05
6.95251e-05
6.95102e-05
6.95275e-05
6.94925e-05
6.94761e-05
6.94951e-05
6.94787e-05
6.02945e-05
6.03044e-05
1.95932e-05
6.04736e-05
6.04835e-05
6.94457e-05
6.94611e-05
6.94483e-05
6.94637e-05
1.97743e-05
6.07324e-05
6.07415e-05
6.05623e-05
6.05719e-05
5.59478e-05
7.0152e-05
5.55437e-05
7.0171e-05
3.27301e-05
4.75503e-05
1.46027e-05
1.65347e-05
3.21869e-05
4.78942e-05
1.45857e-05
3.27295e-05
4.75534e-05
1.46026e-05
1.65348e-05
3.21864e-05
4.78982e-05
1.45856e-05
5.60564e-05
7.01964e-05
7.01783e-05
5.64281e-05
5.60555e-05
7.0194e-05
7.01746e-05
5.64271e-05
3.30121e-05
1.66095e-05
4.84027e-05
1.45669e-05
4.80731e-05
1.45754e-05
3.35448e-05
3.30101e-05
1.66098e-05
4.84066e-05
1.45669e-05
4.80734e-05
1.45754e-05
3.35468e-05
6.02995e-05
6.02941e-05
1.95925e-05
6.04787e-05
6.04711e-05
6.94924e-05
6.94762e-05
6.94476e-05
6.94629e-05
1.9774e-05
6.07371e-05
6.07293e-05
6.05671e-05
6.05615e-05
6.94457e-05
6.94609e-05
3.2734e-05
4.75541e-05
1.46031e-05
1.65348e-05
3.21842e-05
4.78993e-05
1.45861e-05
5.59486e-05
7.01497e-05
5.55424e-05
7.01727e-05
3.27317e-05
1.4603e-05
4.75532e-05
1.65359e-05
3.21837e-05
1.4586e-05
4.78981e-05
5.60553e-05
7.01982e-05
7.01802e-05
5.64286e-05
3.30089e-05
1.66095e-05
4.8406e-05
1.45674e-05
4.80767e-05
1.45759e-05
3.35474e-05
5.60543e-05
7.01948e-05
7.01731e-05
5.64277e-05
3.30103e-05
1.6611e-05
1.45674e-05
4.84048e-05
1.45759e-05
4.80745e-05
3.35465e-05
5.59389e-05
7.01526e-05
5.5546e-05
7.01727e-05
3.27301e-05
1.46033e-05
4.75457e-05
1.65345e-05
3.21857e-05
1.45863e-05
4.78976e-05
5.59442e-05
7.01487e-05
5.5544e-05
7.01718e-05
3.30069e-05
1.66088e-05
4.84001e-05
1.45672e-05
4.80713e-05
1.45757e-05
3.3547e-05
5.60575e-05
7.01947e-05
7.01764e-05
5.64184e-05
3.30115e-05
1.66098e-05
1.45677e-05
4.84031e-05
1.45762e-05
4.80685e-05
3.35461e-05
5.6056e-05
7.01939e-05
7.01721e-05
5.64235e-05
6.02995e-05
6.0295e-05
1.95936e-05
6.04794e-05
6.04738e-05
6.94928e-05
6.94764e-05
6.94474e-05
6.94628e-05
1.97751e-05
6.07367e-05
6.07319e-05
6.05676e-05
6.05627e-05
6.94459e-05
6.94613e-05
3.27313e-05
1.4604e-05
4.7554e-05
1.65357e-05
3.21885e-05
1.4587e-05
4.78978e-05
5.59407e-05
7.01525e-05
5.55477e-05
7.01753e-05
5.594e-05
7.01524e-05
5.5547e-05
7.01717e-05
3.30123e-05
1.66096e-05
1.45676e-05
4.84025e-05
1.45761e-05
4.80699e-05
3.35464e-05
3.30103e-05
1.66108e-05
1.45684e-05
4.84051e-05
1.45769e-05
4.80758e-05
3.35453e-05
5.60587e-05
7.01965e-05
7.01757e-05
5.64199e-05
5.6058e-05
7.0194e-05
7.01758e-05
5.64191e-05
6.94922e-05
6.9476e-05
6.94947e-05
6.94783e-05
1.97564e-05
6.07281e-05
6.07365e-05
6.05583e-05
6.05667e-05
6.94456e-05
6.94608e-05
6.94478e-05
6.94633e-05
6.94312e-05
6.94167e-05
6.94338e-05
6.94193e-05
6.08159e-05
6.08256e-05
2.04095e-05
6.09764e-05
6.0986e-05
6.93893e-05
6.94027e-05
6.93919e-05
6.94053e-05
2.06103e-05
6.12101e-05
6.12192e-05
6.10564e-05
6.10664e-05
5.68649e-05
7.01948e-05
5.65222e-05
7.02151e-05
3.43396e-05
4.85728e-05
1.45656e-05
1.68662e-05
3.38194e-05
4.88886e-05
1.45674e-05
3.43422e-05
4.85731e-05
1.45655e-05
1.68662e-05
3.38147e-05
4.88951e-05
1.45673e-05
5.69502e-05
7.02361e-05
7.022e-05
5.72668e-05
5.6949e-05
7.02348e-05
7.02167e-05
5.72657e-05
3.46075e-05
1.6962e-05
4.93565e-05
1.45822e-05
4.90505e-05
1.45721e-05
3.51133e-05
3.46023e-05
1.69623e-05
4.93585e-05
1.45821e-05
4.90491e-05
1.4572e-05
3.51138e-05
6.08207e-05
6.08143e-05
2.04098e-05
6.0982e-05
6.09744e-05
6.94309e-05
6.94168e-05
6.93913e-05
6.94047e-05
2.06109e-05
6.12147e-05
6.12062e-05
6.1062e-05
6.10551e-05
6.93891e-05
6.94024e-05
3.43436e-05
4.85768e-05
1.45661e-05
1.68663e-05
3.3817e-05
4.88917e-05
1.4568e-05
5.68653e-05
7.0195e-05
5.65213e-05
7.02152e-05
3.43405e-05
1.45661e-05
4.85749e-05
1.68677e-05
3.38171e-05
1.45679e-05
4.88898e-05
5.69489e-05
7.02375e-05
7.02217e-05
5.72671e-05
3.46039e-05
1.6962e-05
4.93578e-05
1.45828e-05
4.90544e-05
1.45727e-05
3.51152e-05
5.6948e-05
7.02343e-05
7.02151e-05
5.7266e-05
3.46054e-05
1.69638e-05
1.45827e-05
4.93557e-05
1.45728e-05
4.90523e-05
3.51168e-05
5.68562e-05
7.01983e-05
5.65245e-05
7.02158e-05
3.43419e-05
1.45664e-05
4.85703e-05
1.68662e-05
3.38171e-05
1.45682e-05
4.889e-05
5.68612e-05
7.01954e-05
5.6523e-05
7.02143e-05
3.46032e-05
1.69612e-05
4.93502e-05
1.45824e-05
4.90481e-05
1.45723e-05
3.51127e-05
5.69507e-05
7.02343e-05
7.02178e-05
5.72573e-05
3.46037e-05
1.69626e-05
1.4583e-05
4.93551e-05
1.4573e-05
4.90467e-05
3.51151e-05
5.69495e-05
7.02333e-05
7.02142e-05
5.72624e-05
6.08214e-05
6.08165e-05
2.04095e-05
6.09817e-05
6.0977e-05
6.94313e-05
6.94168e-05
6.93909e-05
6.94044e-05
2.06111e-05
6.12141e-05
6.12087e-05
6.10619e-05
6.10566e-05
6.93893e-05
6.94028e-05
3.43378e-05
1.45671e-05
4.85755e-05
1.68671e-05
3.38177e-05
1.45688e-05
4.88898e-05
5.68576e-05
7.0199e-05
5.65248e-05
7.02167e-05
5.68571e-05
7.01978e-05
5.65241e-05
7.02145e-05
3.46075e-05
1.6962e-05
1.45829e-05
4.93521e-05
1.4573e-05
4.90501e-05
3.51141e-05
3.46064e-05
1.69633e-05
1.45838e-05
4.93555e-05
1.45739e-05
4.90524e-05
3.51116e-05
5.69511e-05
7.02351e-05
7.02187e-05
5.72589e-05
5.69504e-05
7.02346e-05
7.02179e-05
5.72582e-05
6.9431e-05
6.94166e-05
6.94333e-05
6.94188e-05
2.059e-05
6.1206e-05
6.12146e-05
6.10535e-05
6.10612e-05
6.93891e-05
6.94026e-05
6.93914e-05
6.94049e-05
6.93758e-05
6.93633e-05
6.93783e-05
6.93658e-05
6.12854e-05
6.12943e-05
2.13034e-05
6.1431e-05
6.14399e-05
6.93386e-05
6.93501e-05
6.93411e-05
6.93526e-05
2.152e-05
6.16415e-05
6.16509e-05
6.1503e-05
6.15118e-05
5.76338e-05
7.02345e-05
5.734e-05
7.02521e-05
3.5864e-05
4.95047e-05
1.45965e-05
1.72808e-05
3.53735e-05
4.97995e-05
1.46153e-05
3.58669e-05
4.95068e-05
1.45964e-05
1.72809e-05
3.53703e-05
4.98016e-05
1.46151e-05
5.77008e-05
7.02706e-05
7.02565e-05
5.79742e-05
5.76994e-05
7.02688e-05
7.02527e-05
5.79728e-05
3.61168e-05
1.73968e-05
5.02244e-05
1.46655e-05
4.99434e-05
1.46382e-05
3.65925e-05
3.61119e-05
1.73972e-05
5.02264e-05
1.46652e-05
4.99457e-05
1.4638e-05
3.65924e-05
6.12898e-05
6.12827e-05
2.13287e-05
6.14356e-05
6.14264e-05
6.93751e-05
6.93629e-05
6.93406e-05
6.93521e-05
2.14965e-05
6.16463e-05
6.16369e-05
6.15071e-05
6.14996e-05
6.9338e-05
6.93493e-05
3.58654e-05
4.95107e-05
1.45972e-05
1.72807e-05
3.53724e-05
4.9803e-05
1.4616e-05
5.76338e-05
7.02343e-05
5.73389e-05
7.02517e-05
3.58667e-05
1.45972e-05
4.95094e-05
1.72823e-05
3.53696e-05
1.46159e-05
4.97991e-05
5.76996e-05
7.02725e-05
7.02583e-05
5.79741e-05
3.61156e-05
1.73966e-05
5.02289e-05
1.46662e-05
4.99475e-05
1.46389e-05
3.65927e-05
5.76984e-05
7.02684e-05
7.0252e-05
5.79727e-05
3.61131e-05
1.73987e-05
1.4666e-05
5.02254e-05
1.46389e-05
4.99472e-05
3.65925e-05
5.76257e-05
7.02373e-05
5.73413e-05
7.02517e-05
3.58647e-05
1.45976e-05
4.95042e-05
1.72812e-05
3.53711e-05
1.46161e-05
4.97977e-05
5.76306e-05
7.02346e-05
5.73404e-05
7.02509e-05
3.61128e-05
1.73957e-05
5.022e-05
1.46656e-05
4.99436e-05
1.46382e-05
3.65892e-05
5.77002e-05
7.02686e-05
7.02544e-05
5.79651e-05
3.61148e-05
1.73978e-05
1.46664e-05
5.02242e-05
1.46392e-05
4.99435e-05
3.65912e-05
5.76995e-05
7.02677e-05
7.02519e-05
5.79699e-05
6.12902e-05
6.1285e-05
2.13008e-05
6.1435e-05
6.14303e-05
6.93757e-05
6.93632e-05
6.93401e-05
6.93516e-05
2.15212e-05
6.16458e-05
6.164e-05
6.15076e-05
6.15022e-05
6.93384e-05
6.935e-05
3.58634e-05
1.45982e-05
4.95098e-05
1.72818e-05
3.53731e-05
1.46169e-05
4.97981e-05
5.76274e-05
7.02384e-05
5.73417e-05
7.02535e-05
5.76268e-05
7.02365e-05
5.7341e-05
7.02524e-05
3.61163e-05
1.73967e-05
1.4666e-05
5.02212e-05
1.46389e-05
4.99455e-05
3.65903e-05
3.61154e-05
1.73982e-05
1.46671e-05
5.02254e-05
1.46398e-05
4.9948e-05
3.65894e-05
5.77009e-05
7.02707e-05
7.02556e-05
5.7967e-05
5.77002e-05
7.02686e-05
7.02541e-05
5.79665e-05
6.93755e-05
6.93631e-05
6.93779e-05
6.93653e-05
2.14998e-05
6.16378e-05
6.16463e-05
6.1499e-05
6.15074e-05
6.93384e-05
6.93499e-05
6.93406e-05
6.93521e-05
6.93258e-05
6.93153e-05
6.93283e-05
6.93178e-05
6.17098e-05
6.17191e-05
2.22609e-05
6.18426e-05
6.18514e-05
6.92933e-05
6.93029e-05
6.92958e-05
6.93054e-05
2.24845e-05
6.20349e-05
6.20433e-05
6.19082e-05
6.19167e-05
5.82863e-05