/*--------------------------------*- C++ -*----------------------------------*\
| =========                 |                                                 |
| \\      /  F ield         | OpenFOAM: The Open Source CFD Toolbox           |
|  \\    /   O peration     | Version:  2312                                  |
|   \\  /    A nd           | Website:  www.openfoam.com                      |
|    \\/     M anipulation  |                                                 |
\*---------------------------------------------------------------------------*/
FoamFile
{
    version     2.0;
    format      ascii;
    arch        "LSB;label=32;scalar=64";
    class       volVectorField;
    location    "400";
    object      U;
}
// * * * * * * * * * * * * * * * * * * * * * * * * * * * * * * * * * * * * * //

dimensions      [0 1 -1 0 0 0 0];

internalField   nonuniform List<vector> 
42840
(
(5.98074e-05 5.97823e-05 0.109207)
(-8.96344e-05 5.57764e-05 0.108145)
(5.57585e-05 -8.97021e-05 0.108144)
(-0.00014232 -0.000142314 0.106657)
(5.85547e-05 5.85254e-05 0.109496)
(-8.73848e-05 5.45468e-05 0.108304)
(5.45369e-05 -8.74081e-05 0.108304)
(-0.000138008 -0.000137975 0.106656)
(5.73135e-05 5.72869e-05 0.109775)
(-8.50018e-05 5.32865e-05 0.108444)
(5.32789e-05 -8.50052e-05 0.108444)
(-0.000133382 -0.000133346 0.106632)
(5.60014e-05 5.59801e-05 0.110044)
(-8.24683e-05 5.19721e-05 0.108566)
(5.19574e-05 -8.2455e-05 0.108565)
(-0.000128515 -0.000128483 0.106589)
(5.46346e-05 5.4617e-05 0.110304)
(-7.98002e-05 5.05544e-05 0.108669)
(5.05223e-05 -7.9784e-05 0.108668)
(-0.000123407 -0.000123421 0.106528)
(5.32216e-05 5.32102e-05 0.110553)
(-7.69689e-05 4.90055e-05 0.108754)
(4.89792e-05 -7.69578e-05 0.108753)
(-0.000118197 -0.000118226 0.106453)
(5.17799e-05 5.1776e-05 0.110792)
(-7.39957e-05 4.72913e-05 0.108821)
(4.72641e-05 -7.39979e-05 0.108821)
(-0.000112884 -0.000112929 0.106368)
(5.03289e-05 5.03358e-05 0.111021)
(-7.09036e-05 4.54869e-05 0.108872)
(4.54583e-05 -7.09053e-05 0.108872)
(-0.0001076 -0.000107631 0.106274)
(4.88598e-05 4.8863e-05 0.111239)
(-6.77189e-05 4.35809e-05 0.108907)
(4.35387e-05 -6.77129e-05 0.108907)
(-0.000102375 -0.000102405 0.106175)
(4.73801e-05 4.73804e-05 0.111445)
(-6.44629e-05 4.15761e-05 0.108928)
(4.15504e-05 -6.44522e-05 0.108927)
(-9.73067e-05 -9.73216e-05 0.106072)
(4.58851e-05 4.59e-05 0.11164)
(-6.11788e-05 3.94976e-05 0.108935)
(3.94756e-05 -6.11535e-05 0.108934)
(-9.23844e-05 -9.24014e-05 0.105968)
(4.44165e-05 4.44237e-05 0.111823)
(-5.78706e-05 3.7342e-05 0.10893)
(3.73187e-05 -5.78465e-05 0.108929)
(-8.76267e-05 -8.76353e-05 0.105865)
(4.29483e-05 4.29561e-05 0.111993)
(-5.45823e-05 3.51184e-05 0.108914)
(3.51044e-05 -5.45508e-05 0.108914)
(-8.3127e-05 -8.31515e-05 0.105762)
(4.14931e-05 4.14974e-05 0.112152)
(-5.13289e-05 3.28855e-05 0.108889)
(3.28501e-05 -5.1288e-05 0.108889)
(-7.88626e-05 -7.88915e-05 0.105662)
(4.0036e-05 4.0037e-05 0.112299)
(-4.81069e-05 3.06384e-05 0.108856)
(3.05947e-05 -4.80613e-05 0.108855)
(-7.48255e-05 -7.4849e-05 0.105565)
(3.85624e-05 3.85621e-05 0.112433)
(-4.49262e-05 2.83846e-05 0.108817)
(2.83836e-05 -4.48984e-05 0.108816)
(-7.10147e-05 -7.10384e-05 0.105471)
(3.70737e-05 3.70704e-05 0.112554)
(-4.18109e-05 2.61711e-05 0.108771)
(2.61597e-05 -4.17754e-05 0.10877)
(-6.74252e-05 -6.74486e-05 0.10538)
(3.5563e-05 3.55584e-05 0.112664)
(-3.87522e-05 2.40191e-05 0.108722)
(2.40155e-05 -3.87265e-05 0.108721)
(-6.40803e-05 -6.41007e-05 0.105293)
(3.40251e-05 3.40201e-05 0.112761)
(-3.57503e-05 2.19167e-05 0.108669)
(2.19193e-05 -3.57381e-05 0.108668)
(-6.09096e-05 -6.09269e-05 0.105209)
(3.24426e-05 3.24486e-05 0.112847)
(-3.28209e-05 1.99013e-05 0.108613)
(1.98908e-05 -3.28141e-05 0.108612)
(-5.79808e-05 -5.79926e-05 0.10513)
(3.08273e-05 3.08401e-05 0.112922)
(-2.99818e-05 1.79698e-05 0.108556)
(1.79541e-05 -2.9972e-05 0.108555)
(-5.52115e-05 -5.52279e-05 0.105054)
(2.91844e-05 2.91962e-05 0.112985)
(-2.72224e-05 1.61397e-05 0.108498)
(1.61183e-05 -2.72229e-05 0.108497)
(-5.26301e-05 -5.26447e-05 0.104981)
(2.75013e-05 2.75179e-05 0.113038)
(-2.4556e-05 1.44216e-05 0.10844)
(1.43887e-05 -2.45599e-05 0.108439)
(-5.02384e-05 -5.0257e-05 0.104913)
(2.57943e-05 2.58138e-05 0.113081)
(-2.19824e-05 1.27932e-05 0.108382)
(1.27655e-05 -2.19926e-05 0.108381)
(-4.8017e-05 -4.80302e-05 0.104848)
(2.40567e-05 2.40699e-05 0.113115)
(-1.95054e-05 1.12625e-05 0.108325)
(1.12383e-05 -1.95155e-05 0.108323)
(-4.59772e-05 -4.59881e-05 0.104787)
(0.000142302 0.00014225 0.106657)
(4.34404e-06 4.35544e-06 0.106843)
(5.59672e-05 8.97447e-05 0.108144)
(-5.59902e-05 8.97283e-05 0.108144)
(5.50516e-05 8.80346e-05 0.108265)
(-5.50704e-05 8.80118e-05 0.108265)
(-0.000142299 0.000142245 0.106657)
(-4.35558e-06 4.36925e-06 0.106842)
(8.97328e-05 5.5832e-05 0.108145)
(8.97035e-05 -5.59586e-05 0.108144)
(8.80224e-05 5.49047e-05 0.108266)
(8.8004e-05 -5.5029e-05 0.108264)
(-8.95252e-05 -5.5874e-05 0.108144)
(-8.79512e-05 5.487e-05 0.108266)
(-8.78356e-05 -5.49474e-05 0.108265)
(0.000142249 -0.000142297 0.106657)
(4.40031e-06 -4.28985e-06 0.106842)
(-5.57966e-05 -8.9736e-05 0.108144)
(5.48467e-05 -8.79806e-05 0.108266)
(-5.48789e-05 -8.80198e-05 0.108265)
(-4.39175e-06 -4.27969e-06 0.106842)
(0.000138 0.000137937 0.106656)
(1.81548e-06 1.82758e-06 0.106831)
(5.47282e-05 8.74596e-05 0.108303)
(-5.47486e-05 8.74387e-05 0.108303)
(5.37866e-05 8.56922e-05 0.10841)
(-5.37984e-05 8.5657e-05 0.10841)
(-0.00013801 0.000137954 0.106656)
(-1.80966e-06 1.82163e-06 0.106831)
(8.74441e-05 5.458e-05 0.108304)
(8.74244e-05 -5.47135e-05 0.108302)
(8.56727e-05 5.36372e-05 0.108411)
(8.5645e-05 -5.37783e-05 0.108409)
(-8.7262e-05 -5.4635e-05 0.108303)
(-8.56099e-05 5.36101e-05 0.108411)
(-8.54837e-05 -5.36745e-05 0.10841)
(0.000137993 -0.000138036 0.106656)
(1.88166e-06 -1.73132e-06 0.10683)
(-5.45724e-05 -8.74387e-05 0.108303)
(5.36004e-05 -8.56108e-05 0.108411)
(-5.36145e-05 -8.56378e-05 0.10841)
(-1.8468e-06 -1.7349e-06 0.10683)
(0.00013337 0.000133311 0.106632)
(-6.80151e-07 -6.58081e-07 0.106798)
(5.34676e-05 8.50803e-05 0.108443)
(-5.34783e-05 8.50443e-05 0.108443)
(5.24881e-05 8.31781e-05 0.108536)
(-5.2497e-05 8.31358e-05 0.108536)
(-0.000133358 0.000133305 0.106633)
(6.89548e-07 -6.80729e-07 0.106797)
(8.5059e-05 5.3319e-05 0.108444)
(8.50352e-05 -5.34569e-05 0.108443)
(8.31458e-05 5.23437e-05 0.108537)
(8.31234e-05 -5.24862e-05 0.108535)
(-8.48737e-05 -5.33584e-05 0.108443)
(-8.31045e-05 5.23145e-05 0.108537)
(-8.29816e-05 -5.23627e-05 0.108536)
(0.000133375 -0.00013338 0.106632)
(-6.26183e-07 7.38571e-07 0.106797)
(-5.33044e-05 -8.50261e-05 0.108443)
(5.23019e-05 -8.30959e-05 0.108537)
(-5.23231e-05 -8.31078e-05 0.108536)
(6.25036e-07 7.29712e-07 0.106796)
(0.000128507 0.000128465 0.106589)
(-3.17162e-06 -3.14786e-06 0.106745)
(5.2146e-05 8.25338e-05 0.108565)
(-5.21583e-05 8.24898e-05 0.108564)
(5.1086e-05 8.05454e-05 0.108644)
(-5.10939e-05 8.04934e-05 0.108643)
(-0.000128501 0.000128451 0.106589)
(3.16961e-06 -3.15341e-06 0.106745)
(8.24997e-05 5.20039e-05 0.108565)
(8.24661e-05 -5.21456e-05 0.108564)
(8.04982e-05 5.09543e-05 0.108644)
(8.04551e-05 -5.10932e-05 0.108643)
(-8.23438e-05 -5.20281e-05 0.108564)
(-8.04793e-05 5.0918e-05 0.108645)
(-8.03603e-05 -5.09787e-05 0.108643)
(0.000128486 -0.000128513 0.106589)
(-3.14072e-06 3.22248e-06 0.106744)
(-5.19883e-05 -8.24544e-05 0.108565)
(5.08948e-05 -8.04615e-05 0.108644)
(-5.09318e-05 -8.0454e-05 0.108644)
(3.15084e-06 3.20052e-06 0.106744)
(0.000123442 0.000123401 0.106528)
(-5.73319e-06 -5.68006e-06 0.106677)
(5.07174e-05 7.98626e-05 0.108668)
(-5.07324e-05 7.98094e-05 0.108667)
(4.95774e-05 7.77525e-05 0.108733)
(-4.95934e-05 7.76894e-05 0.108733)
(-0.000123455 0.000123415 0.106528)
(5.71805e-06 -5.6732e-06 0.106677)
(7.98174e-05 5.05889e-05 0.108668)
(7.97673e-05 -5.07248e-05 0.108667)
(7.76954e-05 4.94535e-05 0.108734)
(7.76433e-05 -4.95975e-05 0.108732)
(-7.96776e-05 -5.06236e-05 0.108667)
(-7.76837e-05 4.94221e-05 0.108734)
(-7.75711e-05 -4.95021e-05 0.108733)
(0.000123426 -0.000123479 0.106528)
(-5.65438e-06 5.72206e-06 0.106676)
(-5.0577e-05 -7.97723e-05 0.108668)
(4.9388e-05 -7.76704e-05 0.108734)
(-4.94312e-05 -7.76673e-05 0.108733)
(5.65807e-06 5.69896e-06 0.106675)
(0.000118255 0.000118231 0.106454)
(-8.26982e-06 -8.21402e-06 0.106596)
(4.91688e-05 7.70331e-05 0.108753)
(-4.91803e-05 7.69705e-05 0.108752)
(4.79011e-05 7.48256e-05 0.108805)
(-4.78986e-05 7.47511e-05 0.108804)
(-0.000118203 0.000118184 0.106454)
(8.26573e-06 -8.23451e-06 0.106595)
(7.69775e-05 4.90443e-05 0.108753)
(7.6917e-05 -4.91992e-05 0.108752)
(7.47647e-05 4.77856e-05 0.108806)
(7.46966e-05 -4.79324e-05 0.108804)
(-7.68481e-05 -4.91059e-05 0.108752)
(-7.47476e-05 4.7736e-05 0.108806)
(-7.46364e-05 -4.78341e-05 0.108804)
(0.000118195 -0.000118266 0.106454)
(-8.23551e-06 8.28713e-06 0.106595)
(-4.90257e-05 -7.69533e-05 0.108753)
(4.77076e-05 -7.47444e-05 0.108806)
(-4.77501e-05 -7.47464e-05 0.108805)
(8.23242e-06 8.24574e-06 0.106594)
(0.000112914 0.000112909 0.106368)
(-1.07934e-05 -1.07384e-05 0.106505)
(4.74621e-05 7.40687e-05 0.10882)
(-4.74532e-05 7.40004e-05 0.10882)
(4.61119e-05 7.1761e-05 0.10886)
(-4.61124e-05 7.16933e-05 0.108859)
(-0.0001129 0.000112873 0.106368)
(1.07926e-05 -1.07644e-05 0.106505)
(7.40073e-05 4.7343e-05 0.108821)
(7.39455e-05 -4.74838e-05 0.108819)
(7.16942e-05 4.59942e-05 0.10886)
(7.16394e-05 -4.61309e-05 0.108859)
(-7.38856e-05 -4.73993e-05 0.108819)
(-7.16782e-05 4.59638e-05 0.108861)
(-7.15808e-05 -4.60426e-05 0.108859)
(0.000112908 -0.000112978 0.106368)
(-1.07864e-05 1.08501e-05 0.106504)
(-4.73209e-05 -7.39958e-05 0.10882)
(4.59356e-05 -7.1681e-05 0.10886)
(-4.5979e-05 -7.16777e-05 0.10886)
(1.07578e-05 1.07831e-05 0.106503)
(0.000107608 0.00010761 0.106274)
(-1.33122e-05 -1.32608e-05 0.106407)
(4.56405e-05 7.09884e-05 0.108871)
(-4.56472e-05 7.09126e-05 0.10887)
(4.42168e-05 6.86074e-05 0.108898)
(-4.42159e-05 6.85282e-05 0.108898)
(-0.000107611 0.000107579 0.106274)
(1.33452e-05 -1.33121e-05 0.106407)
(7.09223e-05 4.55471e-05 0.108872)
(7.08694e-05 -4.56724e-05 0.10887)
(6.85336e-05 4.41262e-05 0.108899)
(6.84832e-05 -4.42213e-05 0.108897)
(-7.08061e-05 -4.55872e-05 0.10887)
(-6.8515e-05 4.40768e-05 0.1089)
(-6.84294e-05 -4.41551e-05 0.108898)
(0.000107604 -0.000107656 0.106274)
(-1.32373e-05 1.32846e-05 0.106406)
(-4.55124e-05 -7.08952e-05 0.108871)
(4.40261e-05 -6.85147e-05 0.108899)
(-4.40792e-05 -6.85191e-05 0.108898)
(1.32519e-05 1.32742e-05 0.106406)
(0.000102424 0.000102423 0.106175)
(-1.57499e-05 -1.57028e-05 0.106305)
(4.37242e-05 6.78085e-05 0.108906)
(-4.37274e-05 6.7734e-05 0.108905)
(4.22351e-05 6.53699e-05 0.108922)
(-4.22363e-05 6.53033e-05 0.108922)
(-0.000102393 0.000102375 0.106175)
(1.57192e-05 -1.56955e-05 0.106305)
(6.77327e-05 4.36333e-05 0.108907)
(6.76766e-05 -4.3729e-05 0.108905)
(6.52897e-05 4.21501e-05 0.108923)
(6.52527e-05 -4.22201e-05 0.108921)
(-6.76242e-05 -4.36635e-05 0.108905)
(-6.52717e-05 4.20896e-05 0.108924)
(-6.51989e-05 -4.21653e-05 0.108922)
(0.000102362 -0.000102418 0.106175)
(-1.57053e-05 1.5773e-05 0.106304)
(-4.3589e-05 -6.77146e-05 0.108906)
(4.20585e-05 -6.52696e-05 0.108923)
(-4.20895e-05 -6.52767e-05 0.108922)
(1.57261e-05 1.57578e-05 0.106303)
(9.73235e-05 9.732e-05 0.106072)
(-1.80821e-05 -1.8029e-05 0.106201)
(4.17253e-05 6.45539e-05 0.108926)
(-4.17295e-05 6.44841e-05 0.108925)
(4.01596e-05 6.20922e-05 0.108932)
(-4.01543e-05 6.20226e-05 0.108932)
(-9.72785e-05 9.72512e-05 0.106073)
(1.8036e-05 -1.79901e-05 0.1062)
(6.4475e-05 4.16341e-05 0.108927)
(6.44372e-05 -4.17072e-05 0.108925)
(6.20199e-05 4.00726e-05 0.108934)
(6.1985e-05 -4.01355e-05 0.108931)
(-6.43767e-05 -4.16443e-05 0.108925)
(-6.19954e-05 4.00279e-05 0.108934)
(-6.19188e-05 -4.00844e-05 0.108932)
(9.73012e-05 -9.73341e-05 0.106072)
(-1.80422e-05 1.81296e-05 0.1062)
(-4.15776e-05 -6.44549e-05 0.108926)
(4.00045e-05 -6.1978e-05 0.108934)
(-4.00189e-05 -6.19914e-05 0.108933)
(1.80775e-05 1.81078e-05 0.106199)
(9.24323e-05 9.24363e-05 0.105969)
(-2.0292e-05 -2.02585e-05 0.106095)
(3.96246e-05 6.12632e-05 0.108933)
(-3.96217e-05 6.12036e-05 0.108932)
(3.80022e-05 5.87902e-05 0.10893)
(-3.80118e-05 5.87239e-05 0.10893)
(-9.23926e-05 9.23894e-05 0.105969)
(2.03036e-05 -2.02613e-05 0.106095)
(6.11936e-05 3.95436e-05 0.108934)
(6.11581e-05 -3.95991e-05 0.108932)
(5.87194e-05 3.79249e-05 0.108932)
(5.86924e-05 -3.79764e-05 0.108929)
(-6.10939e-05 -3.95571e-05 0.108932)
(-5.8686e-05 3.78988e-05 0.108932)
(-5.8613e-05 -3.79238e-05 0.10893)
(9.23762e-05 -9.2383e-05 0.105969)
(-2.02328e-05 2.03313e-05 0.106094)
(-3.94866e-05 -6.11652e-05 0.108933)
(3.78666e-05 -5.86695e-05 0.108932)
(-3.78691e-05 -5.869e-05 0.108931)
(2.02497e-05 2.02846e-05 0.106093)
(8.7676e-05 8.76611e-05 0.105865)
(-2.2433e-05 -2.24035e-05 0.105991)
(3.74665e-05 5.79675e-05 0.108928)
(-3.74591e-05 5.78992e-05 0.108927)
(3.58001e-05 5.54924e-05 0.108917)
(-3.57975e-05 5.54314e-05 0.108916)
(-8.7641e-05 8.76368e-05 0.105865)
(2.2383e-05 -2.23458e-05 0.10599)
(5.78983e-05 3.73879e-05 0.108929)
(5.78686e-05 -3.74227e-05 0.108927)
(5.54305e-05 3.57276e-05 0.108918)
(5.54025e-05 -3.57632e-05 0.108916)
(-5.77921e-05 -3.738e-05 0.108927)
(-5.53902e-05 3.56864e-05 0.108919)
(-5.5316e-05 -3.57061e-05 0.108916)
(8.77393e-05 -8.7738e-05 0.105865)
(-2.23231e-05 2.24168e-05 0.10599)
(-3.73235e-05 -5.78649e-05 0.108928)
(3.56703e-05 -5.53714e-05 0.108918)
(-3.56531e-05 -5.5398e-05 0.108917)
(2.23814e-05 2.24002e-05 0.105989)
(8.31528e-05 8.31399e-05 0.105763)
(-2.43761e-05 -2.43514e-05 0.105887)
(3.52406e-05 5.46724e-05 0.108912)
(-3.52315e-05 5.46105e-05 0.108912)
(3.35524e-05 5.22101e-05 0.108894)
(-3.35521e-05 5.21585e-05 0.108894)
(-8.31914e-05 8.31793e-05 0.105763)
(2.43486e-05 -2.43219e-05 0.105887)
(5.46114e-05 3.51554e-05 0.108914)
(5.4582e-05 -3.51969e-05 0.108911)
(5.21599e-05 3.3471e-05 0.108896)
(5.2125e-05 -3.35231e-05 0.108893)
(-5.44983e-05 -3.5155e-05 0.108911)
(-5.21306e-05 3.34485e-05 0.108896)
(-5.2058e-05 -3.34824e-05 0.108894)
(8.32021e-05 -8.32074e-05 0.105763)
(-2.4323e-05 2.43939e-05 0.105887)
(-3.50987e-05 -5.45785e-05 0.108912)
(3.34188e-05 -5.20965e-05 0.108896)
(-3.3413e-05 -5.2133e-05 0.108895)
(2.43753e-05 2.43862e-05 0.105886)
(7.89258e-05 7.89089e-05 0.105663)
(-2.61751e-05 -2.61596e-05 0.105787)
(3.29839e-05 5.13963e-05 0.108887)
(-3.29906e-05 5.1345e-05 0.108886)
(3.12835e-05 4.89604e-05 0.108863)
(-3.13053e-05 4.89177e-05 0.108862)
(-7.89044e-05 7.88825e-05 0.105663)
(2.62157e-05 -2.61983e-05 0.105786)
(5.13505e-05 3.2901e-05 0.108889)
(5.13064e-05 -3.29562e-05 0.108886)
(4.89288e-05 3.1209e-05 0.108864)
(4.88817e-05 -3.12703e-05 0.108862)
(-5.1247e-05 -3.29125e-05 0.108886)
(-4.89136e-05 3.12043e-05 0.108865)
(-4.8819e-05 -3.12169e-05 0.108862)
(7.89552e-05 -7.89786e-05 0.105662)
(-2.614e-05 2.61943e-05 0.105786)
(-3.28513e-05 -5.13226e-05 0.108887)
(3.11636e-05 -4.88623e-05 0.108864)
(-3.11552e-05 -4.88913e-05 0.108863)
(2.61659e-05 2.61782e-05 0.105785)
(7.48914e-05 7.48651e-05 0.105565)
(-2.78694e-05 -2.78599e-05 0.105689)
(3.07259e-05 4.81603e-05 0.108854)
(-3.07349e-05 4.81189e-05 0.108853)
(2.90504e-05 4.57653e-05 0.108825)
(-2.90457e-05 4.57192e-05 0.108824)
(-7.48662e-05 7.48344e-05 0.105565)
(2.78603e-05 -2.78571e-05 0.105688)
(4.81304e-05 3.06465e-05 0.108856)
(4.80749e-05 -3.0702e-05 0.108853)
(4.57411e-05 2.89668e-05 0.108826)
(4.56889e-05 -2.90392e-05 0.108824)
(-4.80175e-05 -3.06623e-05 0.108853)
(-4.573e-05 2.8945e-05 0.108827)
(-4.56345e-05 -2.89845e-05 0.108824)
(7.48658e-05 -7.48995e-05 0.105565)
(-2.78658e-05 2.79168e-05 0.105688)
(-3.06009e-05 -4.80913e-05 0.108854)
(2.89342e-05 -4.56805e-05 0.108826)
(-2.89287e-05 -4.57011e-05 0.108825)
(2.78715e-05 2.78787e-05 0.105687)
(7.10534e-05 7.10247e-05 0.105471)
(-2.943e-05 -2.94281e-05 0.105594)
(2.84891e-05 4.49733e-05 0.108814)
(-2.84868e-05 4.49262e-05 0.108814)
(2.68244e-05 4.26139e-05 0.108781)
(-2.68311e-05 4.2572e-05 0.10878)
(-7.10684e-05 7.1023e-05 0.105471)
(2.94505e-05 -2.94561e-05 0.105593)
(4.49496e-05 2.84092e-05 0.108816)
(4.49009e-05 -2.84864e-05 0.108813)
(4.25956e-05 2.67399e-05 0.108782)
(4.25451e-05 -2.68075e-05 0.10878)
(-4.48471e-05 -2.84267e-05 0.108814)
(-4.25919e-05 2.67299e-05 0.108783)
(-4.24997e-05 -2.67654e-05 0.10878)
(7.10218e-05 -7.10583e-05 0.105471)
(-2.94305e-05 2.94778e-05 0.105593)
(-2.83804e-05 -4.49124e-05 0.108815)
(2.6712e-05 -4.25472e-05 0.108782)
(-2.67125e-05 -4.25547e-05 0.108781)
(2.93993e-05 2.94045e-05 0.105592)
(6.74723e-05 6.74388e-05 0.10538)
(-3.08542e-05 -3.08563e-05 0.105502)
(2.6274e-05 4.18378e-05 0.108769)
(-2.62825e-05 4.17983e-05 0.108768)
(2.46465e-05 3.95251e-05 0.108732)
(-2.46664e-05 3.94953e-05 0.108731)
(-6.74642e-05 6.74063e-05 0.10538)
(3.08165e-05 -3.08236e-05 0.105502)
(4.18159e-05 2.61943e-05 0.108771)
(4.17709e-05 -2.6256e-05 0.108768)
(3.95085e-05 2.45714e-05 0.108734)
(3.94733e-05 -2.46466e-05 0.108731)
(-4.17258e-05 -2.62243e-05 0.108768)
(-3.95172e-05 2.45564e-05 0.108734)
(-3.94298e-05 -2.46061e-05 0.108731)
(6.74712e-05 -6.75115e-05 0.10538)
(-3.08576e-05 3.08872e-05 0.105501)
(-2.61751e-05 -4.17796e-05 0.108769)
(2.45534e-05 -3.94797e-05 0.108733)
(-2.45494e-05 -3.94765e-05 0.108733)
(3.08331e-05 3.08402e-05 0.105501)
(6.41006e-05 6.4066e-05 0.105293)
(-3.21853e-05 -3.21827e-05 0.105414)
(2.40978e-05 3.87664e-05 0.108719)
(-2.41296e-05 3.87346e-05 0.108719)
(2.25294e-05 3.65135e-05 0.10868)
(-2.25362e-05 3.64712e-05 0.108679)
(-6.41394e-05 6.40714e-05 0.105293)
(3.21509e-05 -3.21833e-05 0.105414)
(3.87454e-05 2.40309e-05 0.108721)
(3.87141e-05 -2.41155e-05 0.108718)
(3.64835e-05 2.2456e-05 0.108681)
(3.64532e-05 -2.25337e-05 0.108678)
(-3.86695e-05 -2.40722e-05 0.108719)
(-3.64925e-05 2.24343e-05 0.108682)
(-3.64134e-05 -2.24968e-05 0.108679)
(6.40935e-05 -6.41455e-05 0.105293)
(-3.21393e-05 3.21629e-05 0.105414)
(-2.40175e-05 -3.87162e-05 0.10872)
(2.24363e-05 -3.6477e-05 0.108681)
(-2.24394e-05 -3.64584e-05 0.10868)
(3.21704e-05 3.21791e-05 0.105413)
(6.09537e-05 6.09451e-05 0.10521)
(-3.3377e-05 -3.337e-05 0.10533)
(2.20049e-05 3.57732e-05 0.108666)
(-2.20237e-05 3.57389e-05 0.108665)
(2.0499e-05 3.35724e-05 0.108625)
(-2.05048e-05 3.35458e-05 0.108624)
(-6.0987e-05 6.08957e-05 0.10521)
(3.33323e-05 -3.33429e-05 0.10533)
(3.57284e-05 2.19275e-05 0.108668)
(3.57122e-05 -2.20172e-05 0.108665)
(3.35343e-05 2.04242e-05 0.108626)
(3.35107e-05 -2.04899e-05 0.108623)
(-3.56727e-05 -2.19797e-05 0.108665)
(-3.35471e-05 2.03947e-05 0.108627)
(-3.34791e-05 -2.04597e-05 0.108624)
(6.093e-05 -6.09864e-05 0.105209)
(-3.33545e-05 3.33612e-05 0.10533)
(-2.19277e-05 -3.57176e-05 0.108667)
(2.03928e-05 -3.35327e-05 0.108626)
(-2.04083e-05 -3.35222e-05 0.108625)
(3.33415e-05 3.33537e-05 0.105329)
(5.80028e-05 5.80053e-05 0.10513)
(-3.44155e-05 -3.44035e-05 0.10525)
(1.99975e-05 3.28495e-05 0.108611)
(-2.00144e-05 3.28244e-05 0.10861)
(1.85234e-05 3.07067e-05 0.108568)
(-1.85549e-05 3.06958e-05 0.108567)
(-5.80237e-05 5.79566e-05 0.10513)
(3.44053e-05 -3.44185e-05 0.10525)
(3.2811e-05 1.99279e-05 0.108612)
(3.27905e-05 -1.99971e-05 0.108609)
(3.06689e-05 1.84618e-05 0.10857)
(3.06459e-05 -1.85393e-05 0.108567)
(-3.27558e-05 -1.99606e-05 0.10861)
(-3.06842e-05 1.84441e-05 0.10857)
(-3.06257e-05 -1.85033e-05 0.108567)
(5.79775e-05 -5.80507e-05 0.105129)
(-3.44632e-05 3.44607e-05 0.105249)
(-1.99164e-05 -3.27987e-05 0.108611)
(1.84355e-05 -3.0672e-05 0.108569)
(-1.8458e-05 -3.06593e-05 0.108568)
(3.44065e-05 3.44139e-05 0.105249)
(5.5241e-05 5.52487e-05 0.105054)
(-3.54033e-05 -3.53921e-05 0.105174)
(1.80468e-05 3.00062e-05 0.108554)
(-1.80834e-05 2.99949e-05 0.108553)
(1.66691e-05 2.79343e-05 0.10851)
(-1.6695e-05 2.79275e-05 0.108509)
(-5.52711e-05 5.52025e-05 0.105054)
(3.5385e-05 -3.54013e-05 0.105174)
(2.99664e-05 1.79967e-05 0.108555)
(2.9942e-05 -1.80619e-05 0.108552)
(2.78919e-05 1.66154e-05 0.108512)
(2.78755e-05 -1.66842e-05 0.108509)
(-2.99252e-05 -1.80355e-05 0.108553)
(-2.79087e-05 1.65978e-05 0.108512)
(-2.78538e-05 -1.66484e-05 0.108509)
(5.52208e-05 -5.52945e-05 0.105054)
(-3.54366e-05 3.54204e-05 0.105173)
(-1.79938e-05 -2.99581e-05 0.108554)
(1.65752e-05 -2.79014e-05 0.108511)
(-1.66011e-05 -2.78807e-05 0.108511)
(3.53852e-05 3.53904e-05 0.105172)
(5.26712e-05 5.26803e-05 0.104982)
(-3.63073e-05 -3.62879e-05 0.105101)
(1.62149e-05 2.72533e-05 0.108495)
(-1.62378e-05 2.72452e-05 0.108495)
(1.49053e-05 2.52452e-05 0.108452)
(-1.49327e-05 2.52413e-05 0.108451)
(-5.26801e-05 5.26102e-05 0.104982)
(3.62804e-05 -3.62911e-05 0.105101)
(2.72115e-05 1.61672e-05 0.108497)
(2.71943e-05 -1.62306e-05 0.108494)
(2.52062e-05 1.48643e-05 0.108454)
(2.51856e-05 -1.49211e-05 0.108451)
(-2.7173e-05 -1.62042e-05 0.108495)
(-2.52182e-05 1.48436e-05 0.108454)
(-2.51682e-05 -1.48771e-05 0.108451)
(5.26198e-05 -5.27059e-05 0.104981)
(-3.63021e-05 3.62856e-05 0.1051)
(-1.61541e-05 -2.7201e-05 0.108496)
(1.48057e-05 -2.52123e-05 0.108453)
(-1.4833e-05 -2.51961e-05 0.108452)
(3.6254e-05 3.62542e-05 0.1051)
(5.0271e-05 5.02877e-05 0.104914)
(-3.70575e-05 -3.70425e-05 0.105032)
(1.44818e-05 2.45911e-05 0.108437)
(-1.45064e-05 2.45859e-05 0.108436)
(1.32488e-05 2.26497e-05 0.108394)
(-1.32761e-05 2.26523e-05 0.108393)
(-5.02713e-05 5.02119e-05 0.104913)
(3.70678e-05 -3.70695e-05 0.105032)
(2.4551e-05 1.44427e-05 0.108439)
(2.45295e-05 -1.4499e-05 0.108436)
(2.26084e-05 1.32035e-05 0.108396)
(2.26014e-05 -1.32648e-05 0.108392)
(-2.45125e-05 -1.44656e-05 0.108436)
(-2.26151e-05 1.31943e-05 0.108396)
(-2.2579e-05 -1.32335e-05 0.108393)
(5.02223e-05 -5.03072e-05 0.104913)
(-3.7065e-05 3.70505e-05 0.105031)
(-1.44175e-05 -2.45372e-05 0.108438)
(1.31613e-05 -2.26227e-05 0.108395)
(-1.318e-05 -2.26039e-05 0.108394)
(3.70748e-05 3.7075e-05 0.105031)
(4.80275e-05 4.80448e-05 0.104849)
(-3.77886e-05 -3.77748e-05 0.104967)
(1.28411e-05 2.20182e-05 0.108379)
(-1.28802e-05 2.2021e-05 0.108379)
(1.16928e-05 2.01584e-05 0.108336)
(-1.17074e-05 2.01614e-05 0.108336)
(-4.80548e-05 4.8006e-05 0.104849)
(3.77594e-05 -3.77518e-05 0.104967)
(2.19746e-05 1.28105e-05 0.108381)
(2.19692e-05 -1.28661e-05 0.108378)
(2.01104e-05 1.16512e-05 0.108338)
(2.01098e-05 -1.1699e-05 0.108335)
(-2.19475e-05 -1.28293e-05 0.108378)
(-2.01189e-05 1.16398e-05 0.108339)
(-2.00929e-05 -1.16744e-05 0.108335)
(4.7996e-05 -4.80761e-05 0.104848)
(-3.77887e-05 3.77896e-05 0.104966)
(-1.27879e-05 -2.19706e-05 0.10838)
(1.16141e-05 -2.0125e-05 0.108338)
(-1.16359e-05 -2.01159e-05 0.108337)
(3.77671e-05 3.77659e-05 0.104966)
(4.59708e-05 4.59846e-05 0.104788)
(1.13189e-05 1.95502e-05 0.108322)
(-1.1334e-05 1.95491e-05 0.108321)
(-4.59888e-05 4.59488e-05 0.104788)
(1.94987e-05 1.12749e-05 0.108324)
(1.95042e-05 -1.13249e-05 0.108321)
(-1.94835e-05 -1.12928e-05 0.108321)
(4.59427e-05 -4.60059e-05 0.104787)
(-1.1256e-05 -1.95014e-05 0.108323)
(8.63269e-07 6.97426e-06 0.0937509)
(-1.23851e-06 3.0683e-05 0.0833537)
(-3.9681e-06 -6.03162e-06 0.0833631)
(1.56403e-06 5.28514e-05 0.0937674)
(-3.50494e-06 1.42118e-05 0.0720083)
(5.37535e-06 -5.75327e-06 0.0720491)
(6.95834e-06 8.78001e-07 0.093751)
(3.06868e-05 -1.26666e-06 0.0833543)
(-6.03511e-06 -3.98621e-06 0.0833637)
(5.28289e-05 1.56479e-06 0.0937674)
(-5.98126e-05 5.97809e-05 0.109207)
(5.9772e-05 -5.98324e-05 0.109207)
(-5.97873e-05 -5.98246e-05 0.109207)
(5.88663e-05 5.88362e-05 0.109424)
(-5.88713e-05 5.88399e-05 0.109424)
(5.88316e-05 -5.8884e-05 0.109424)
(-5.88389e-05 -5.88646e-05 0.109424)
(-4.27568e-05 2.93693e-06 0.102218)
(-6.06488e-05 2.41966e-05 0.0954233)
(-0.000100189 1.95185e-05 0.108864)
(-8.90728e-05 5.54823e-05 0.108186)
(-1.79463e-05 -1.51451e-06 0.0954469)
(-9.97928e-05 1.93868e-05 0.108926)
(-0.000103765 4.76436e-06 0.102196)
(1.42099e-05 -3.51235e-06 0.0720085)
(-5.70806e-06 5.42263e-06 0.0720483)
(2.92844e-06 -4.27493e-05 0.102216)
(1.95591e-05 -0.000100243 0.108864)
(2.42837e-05 -6.06599e-05 0.0954242)
(5.54568e-05 -8.91291e-05 0.108186)
(1.94233e-05 -9.98526e-05 0.108926)
(-1.40585e-06 -1.78658e-05 0.0954448)
(4.8752e-06 -0.00010383 0.102195)
(-2.98444e-05 -1.62797e-05 0.0891388)
(-1.63448e-05 -2.97745e-05 0.0891381)
(-5.71863e-06 -5.618e-06 0.106839)
(-8.8927e-06 3.66176e-06 0.08915)
(3.55347e-06 -8.80662e-06 0.089147)
(5.93346e-07 4.21065e-06 0.0934791)
(-1.11439e-06 2.89094e-05 0.0831543)
(1.28772e-06 4.86692e-05 0.0934879)
(-3.81316e-06 -6.78069e-06 0.0831691)
(-3.49765e-06 1.36398e-05 0.0718717)
(5.15988e-06 -5.74951e-06 0.0719153)
(4.24596e-06 6.19424e-07 0.0934791)
(2.89091e-05 -1.11514e-06 0.0831548)
(4.86525e-05 1.29487e-06 0.0934879)
(-6.78254e-06 -3.82292e-06 0.0831697)
(-5.85624e-05 5.8534e-05 0.109496)
(5.85263e-05 -5.8572e-05 0.109495)
(-5.85289e-05 -5.85524e-05 0.109495)
(5.76273e-05 5.75971e-05 0.109706)
(-5.76228e-05 5.75969e-05 0.109706)
(5.75975e-05 -5.76312e-05 0.109706)
(-5.75849e-05 -5.76047e-05 0.109705)
(-3.66084e-05 2.26341e-06 0.101945)
(-5.68219e-05 2.2425e-05 0.0951541)
(-9.86222e-05 1.89966e-05 0.109108)
(-8.67988e-05 5.42347e-05 0.108341)
(-9.67944e-05 4.0209e-06 0.101925)
(-1.46624e-05 -2.35637e-06 0.0951812)
(-9.82154e-05 1.88657e-05 0.109166)
(1.36249e-05 -3.49853e-06 0.0718718)
(-5.71109e-06 5.21289e-06 0.0719144)
(2.27321e-06 -3.66329e-05 0.101944)
(1.90368e-05 -9.86606e-05 0.109108)
(2.25236e-05 -5.68542e-05 0.0951549)
(5.4226e-05 -8.68155e-05 0.10834)
(4.15369e-06 -9.6843e-05 0.101924)
(1.89018e-05 -9.8247e-05 0.109167)
(-2.2417e-06 -1.46215e-05 0.0951791)
(-2.79146e-05 -1.53772e-05 0.0889098)
(-1.5435e-05 -2.78481e-05 0.0889092)
(-3.11345e-06 -2.99478e-06 0.106839)
(-7.14135e-06 4.00918e-06 0.088926)
(3.94625e-06 -7.07115e-06 0.0889232)
(3.73876e-07 2.22181e-06 0.0932334)
(-1.02806e-06 2.74733e-05 0.0829742)
(1.04094e-06 4.52346e-05 0.0932357)
(-3.75931e-06 -7.24874e-06 0.0829937)
(-3.5185e-06 1.31769e-05 0.0717479)
(4.9509e-06 -5.73949e-06 0.0717938)
(2.24218e-06 3.84176e-07 0.0932334)
(2.74675e-05 -1.01665e-06 0.0829747)
(4.52566e-05 1.04953e-06 0.0932355)
(-7.26815e-06 -3.75049e-06 0.0829943)
(-5.73092e-05 5.72827e-05 0.109774)
(5.72817e-05 -5.73148e-05 0.109774)
(-5.72734e-05 -5.72889e-05 0.109774)
(5.63293e-05 5.63081e-05 0.109978)
(-5.63316e-05 5.63095e-05 0.109977)
(5.63017e-05 -5.63295e-05 0.109977)
(-5.63001e-05 -5.63054e-05 0.109977)
(-3.07141e-05 1.85711e-06 0.101678)
(-5.33619e-05 2.08184e-05 0.0949051)
(-9.70278e-05 1.84854e-05 0.109338)
(-8.43682e-05 5.2973e-05 0.108476)
(-9.00215e-05 3.46223e-06 0.101657)
(-1.17786e-05 -3.02243e-06 0.0949354)
(-9.6601e-05 1.83583e-05 0.109393)
(1.31422e-05 -3.53343e-06 0.0717478)
(-5.6977e-06 5.00364e-06 0.0717928)
(1.84291e-06 -3.07302e-05 0.101677)
(1.85211e-05 -9.70356e-05 0.109338)
(2.09358e-05 -5.3393e-05 0.0949058)
(5.29571e-05 -8.43774e-05 0.108476)
(3.57927e-06 -9.00742e-05 0.101657)
(1.83926e-05 -9.66198e-05 0.109393)
(-2.95472e-06 -1.17249e-05 0.0949334)
(-2.61115e-05 -1.4582e-05 0.0887015)
(-1.46347e-05 -2.60485e-05 0.088701)
(-5.95428e-07 -4.87373e-07 0.106816)
(-5.53055e-06 4.27254e-06 0.0887221)
(4.25031e-06 -5.48061e-06 0.0887194)
(1.4582e-07 6.61757e-07 0.0930111)
(-1.08154e-06 2.62553e-05 0.0828114)
(7.95633e-07 4.24125e-05 0.0930076)
(-3.81568e-06 -7.30069e-06 0.0828351)
(-3.54345e-06 1.27276e-05 0.0716355)
(4.82662e-06 -5.66501e-06 0.0716833)
(6.65673e-07 1.68526e-07 0.093011)
(2.62361e-05 -1.05591e-06 0.0828119)
(4.24344e-05 8.02869e-07 0.0930074)
(-7.33365e-06 -3.78549e-06 0.0828355)
(-5.60026e-05 5.59814e-05 0.110044)
(5.5965e-05 -5.59998e-05 0.110044)
(-5.59739e-05 -5.59791e-05 0.110044)
(5.49778e-05 5.49608e-05 0.11024)
(-5.49806e-05 5.49619e-05 0.11024)
(5.49487e-05 -5.49823e-05 0.110239)
(-5.49481e-05 -5.4965e-05 0.110239)
(-2.54046e-05 1.48838e-06 0.10142)
(-5.03121e-05 1.94092e-05 0.0946751)
(-9.52656e-05 1.79705e-05 0.109554)
(-8.18133e-05 5.16379e-05 0.108593)
(-8.36604e-05 3.02335e-06 0.101398)
(-9.23333e-06 -3.5186e-06 0.0947085)
(-9.47867e-05 1.78456e-05 0.109606)
(1.27113e-05 -3.55969e-06 0.0716353)
(-5.63206e-06 4.87763e-06 0.0716823)
(1.45243e-06 -2.5409e-05 0.101419)
(1.80063e-05 -9.52651e-05 0.109554)
(1.94612e-05 -5.03478e-05 0.0946759)
(5.16052e-05 -8.17943e-05 0.108593)
(3.12686e-06 -8.37046e-05 0.101398)
(1.78752e-05 -9.47948e-05 0.109606)
(-3.48435e-06 -9.19121e-06 0.0947066)
(-2.44432e-05 -1.38664e-05 0.088512)
(-1.38548e-05 -2.44185e-05 0.0885114)
(1.89564e-06 1.97101e-06 0.106772)
(-4.092e-06 4.37541e-06 0.0885364)
(4.44198e-06 -4.09699e-06 0.0885338)
(-8.53592e-08 -6.21605e-07 0.0928091)
(-1.16402e-06 2.53337e-05 0.0826641)
(5.65578e-07 3.9974e-05 0.0928008)
(-3.8844e-06 -7.19241e-06 0.0826913)
(-3.5205e-06 1.23704e-05 0.0715335)
(4.77886e-06 -5.56312e-06 0.071583)
(-6.34387e-07 -3.09255e-08 0.0928091)
(2.53123e-05 -1.11396e-06 0.0826645)
(3.99819e-05 5.92122e-07 0.0928006)
(-7.22967e-06 -3.81859e-06 0.0826918)
(-5.46363e-05 5.46182e-05 0.110304)
(5.46028e-05 -5.4644e-05 0.110303)
(-5.46142e-05 -5.46303e-05 0.110303)
(5.35735e-05 5.35648e-05 0.110492)
(-5.35752e-05 5.35614e-05 0.110492)
(5.35462e-05 -5.35918e-05 0.110492)
(-5.35503e-05 -5.35762e-05 0.110491)
(-2.06027e-05 1.18246e-06 0.101174)
(-4.75523e-05 1.81499e-05 0.0944631)
(-9.32745e-05 1.74518e-05 0.109756)
(-7.91011e-05 5.01959e-05 0.108692)
(-7.7801e-05 2.62133e-06 0.101149)
(-7.01335e-06 -3.98347e-06 0.0944994)
(-9.2735e-05 1.73199e-05 0.109803)
(1.23374e-05 -3.55644e-06 0.0715333)
(-5.5295e-06 4.82594e-06 0.071582)
(1.11944e-06 -2.06203e-05 0.101173)
(1.7489e-05 -9.3279e-05 0.109755)
(1.81713e-05 -4.76088e-05 0.0944639)
(5.01486e-05 -7.90868e-05 0.108691)
(2.71734e-06 -7.78659e-05 0.101149)
(1.73585e-05 -9.27487e-05 0.109803)
(-3.96794e-06 -7.00204e-06 0.0944975)
(-2.29265e-05 -1.32249e-05 0.0883393)
(-1.31833e-05 -2.29322e-05 0.0883387)
(4.44014e-06 4.47535e-06 0.106711)
(-2.87264e-06 4.45803e-06 0.0883671)
(4.5361e-06 -2.88967e-06 0.0883645)
(-2.27702e-07 -1.70952e-06 0.0926253)
(-1.24738e-06 2.45224e-05 0.0825307)
(3.3864e-07 3.77878e-05 0.0926128)
(-3.95442e-06 -7.14144e-06 0.082561)
(-3.49201e-06 1.20145e-05 0.0714409)
(4.67821e-06 -5.52281e-06 0.071492)
(-1.71905e-06 -1.55738e-07 0.0926252)
(2.44766e-05 -1.18682e-06 0.0825311)
(3.7791e-05 3.9487e-07 0.0926126)
(-7.20141e-06 -3.8833e-06 0.0825616)