0 	6.8354e-12 	1.6562e-11 	8.88966e-09
0.010101 	7.74024e-12 	1.67261e-08 	7.8522e-06
0.020202 	3.71709e-12 	3.34373e-08 	1.56955e-05
0.030303 	1.24938e-12 	4.00911e-08 	2.42445e-05
0.040404 	-8.65811e-13 	4.44654e-08 	3.29535e-05
0.0505051 	-8.53104e-12 	4.35994e-08 	4.15669e-05
0.0606061 	-8.78853e-12 	3.28016e-08 	5.00086e-05
0.0707071 	-9.04601e-12 	2.20037e-08 	5.84503e-05
0.0808081 	-9.3035e-12 	1.12059e-08 	6.6892e-05
0.0909091 	-9.56099e-12 	4.0803e-10 	7.53337e-05
0.10101 	-1.04777e-11 	-5.01256e-09 	8.22268e-05
0.111111 	-9.60468e-12 	-4.14305e-09 	8.73056e-05
0.121212 	-8.73169e-12 	-3.27355e-09 	9.23845e-05
0.131313 	-7.85871e-12 	-2.40405e-09 	9.74633e-05
0.141414 	-6.98572e-12 	-1.53454e-09 	0.000102542
0.151515 	-5.78637e-12 	-6.995e-10 	0.000107103
0.161616 	-4.2838e-12 	1.03522e-10 	0.000111183
0.171717 	-2.78124e-12 	9.06544e-10 	0.000115262
0.181818 	-1.27867e-12 	1.70957e-09 	0.000119342
0.191919 	2.23901e-13 	2.51259e-09 	0.000123422
0.20202 	1.28063e-12 	2.9525e-09 	0.000126619
0.212121 	1.80249e-12 	3.08635e-09 	0.000129073
0.222222 	2.32434e-12 	3.2202e-09 	0.000131526
0.232323 	2.87572e-12 	3.35404e-09 	0.00013398
0.242424 	3.45171e-12 	3.48788e-09 	0.000136434
0.252525 	4.02771e-12 	3.62172e-09 	0.000138888
0.262626 	4.6037e-12 	3.75555e-09 	0.000141341
0.272727 	5.1797e-12 	3.88939e-09 	0.000143795
0.282828 	5.75569e-12 	4.02323e-09 	0.000146249
0.292929 	6.33168e-12 	4.15706e-09 	0.000148702
0.30303 	6.07005e-12 	3.97876e-09 	0.000150123
0.313131 	5.02736e-12 	3.5358e-09 	0.000150667
0.323232 	3.98467e-12 	3.09284e-09 	0.000151212
0.333333 	2.94198e-12 	2.64988e-09 	0.000151756
0.343434 	1.89928e-12 	2.20692e-09 	0.000152301
0.353535 	8.5659e-13 	1.76396e-09 	0.000152845
0.363636 	-1.86103e-13 	1.321e-09 	0.00015339
0.373737 	-1.2288e-12 	8.78047e-10 	0.000153934
0.383838 	-2.27149e-12 	4.35088e-10 	0.000154479
0.393939 	-3.31418e-12 	-7.87021e-12 	0.000155023
0.40404 	-4.08767e-12 	-2.05276e-10 	0.000155342
0.414141 	-4.40173e-12 	-1.8296e-10 	0.000155458
0.424242 	-4.71579e-12 	-1.60644e-10 	0.000155574
0.434343 	-5.02985e-12 	-1.38328e-10 	0.00015569
0.444444 	-5.3439e-12 	-1.16012e-10 	0.000155807
0.454545 	-5.65796e-12 	-9.36967e-11 	0.000155923
0.464646 	-5.97202e-12 	-7.13809e-11 	0.000156039
0.474747 	-6.28608e-12 	-4.9065e-11 	0.000156155
0.484848 	-6.60013e-12 	-2.67492e-11 	0.000156272
0.494949 	-6.91419e-12 	-4.43343e-12 	0.000156388
0.505051 	-6.58014e-12 	1.7889e-11 	0.000156388
0.515152 	-5.91865e-12 	3.98967e-11 	0.000156271
0.525253 	-5.25716e-12 	6.19044e-11 	0.000156155
0.535354 	-4.59568e-12 	8.39122e-11 	0.000156039
0.545455 	-3.93419e-12 	1.0592e-10 	0.000155923
0.555556 	-3.27271e-12 	1.27928e-10 	0.000155806
0.565657 	-2.61122e-12 	1.49935e-10 	0.00015569
0.575758 	-1.94973e-12 	1.71943e-10 	0.000155574
0.585859 	-1.28825e-12 	1.93951e-10 	0.000155457
0.59596 	-6.26762e-13 	2.15959e-10 	0.000155341
0.606061 	4.81295e-14 	1.81228e-11 	0.000155022
0.616162 	9.44891e-13 	-4.24848e-10 	0.000154477
0.626263 	1.84165e-12 	-8.67819e-10 	0.000153933
0.636364 	2.73841e-12 	-1.31079e-09 	0.000153388
0.646465 	3.63517e-12 	-1.75376e-09 	0.000152844
0.656566 	4.53194e-12 	-2.19673e-09 	0.000152299
0.666667 	5.4287e-12 	-2.6397e-09 	0.000151754
0.676768 	6.32546e-12 	-3.08267e-09 	0.00015121
0.686869 	7.22222e-12 	-3.52564e-09 	0.000150665
0.69697 	8.11898e-12 	-3.96862e-09 	0.000150121
0.707071 	7.71684e-12 	-4.14661e-09 	0.000148698
0.717172 	6.89101e-12 	-4.01388e-09 	0.000146244
0.727273 	6.06519e-12 	-3.88116e-09 	0.00014379
0.737374 	5.23937e-12 	-3.74843e-09 	0.000141336
0.747475 	4.41354e-12 	-3.61571e-09 	0.000138882
0.757576 	3.58772e-12 	-3.48298e-09 	0.000136428
0.767677 	2.7619e-12 	-3.35026e-09 	0.000133974
0.777778 	1.93607e-12 	-3.21753e-09 	0.00013152
0.787879 	1.10995e-12 	-3.08481e-09 	0.000129066
0.79798 	2.24242e-13 	-2.95198e-09 	0.000126612
0.808081 	-1.0261e-12 	-2.51239e-09 	0.000123412
0.818182 	-2.80884e-12 	-1.71093e-09 	0.000119332
0.828283 	-4.59157e-12 	-9.09473e-10 	0.000115252
0.838384 	-6.37431e-12 	-1.08016e-10 	0.000111172
0.848485 	-8.15705e-12 	6.93441e-10 	0.000107092
0.858586 	-9.55649e-12 	1.52778e-09 	0.000102529
0.868687 	-1.05465e-11 	2.39723e-09 	9.74497e-05
0.878788 	-1.15364e-11 	3.26669e-09 	9.23707e-05
0.888889 	-1.25264e-11 	4.13614e-09 	8.72918e-05
0.89899 	-1.35164e-11 	5.0056e-09 	8.22128e-05
0.909091 	-1.24846e-11 	-4.39531e-10 	7.53124e-05
0.919192 	-1.18622e-11 	-1.12358e-08 	6.68706e-05
0.929293 	-1.12399e-11 	-2.20321e-08 	5.84289e-05
0.939394 	-1.06175e-11 	-3.28284e-08 	4.99872e-05
0.949495 	-9.99517e-12 	-4.36247e-08 	4.15454e-05
0.959596 	-1.82419e-12 	-4.44532e-08 	3.29315e-05
0.969697 	9.76481e-13 	-4.00772e-08 	2.42229e-05
0.979798 	3.97121e-12 	-3.33932e-08 	1.56762e-05
0.989899 	7.80885e-12 	-1.66834e-08 	7.83283e-06
