/*--------------------------------*- C++ -*----------------------------------*\
| =========                 |                                                 |
| \\      /  F ield         | OpenFOAM: The Open Source CFD Toolbox           |
|  \\    /   O peration     | Version:                                        |
|   \\  /    A nd           | Website:  www.openfoam.com                      |
|    \\/     M anipulation  |                                                 |
\*---------------------------------------------------------------------------*/
FoamFile
{
    version     2.0;
    format      ascii;
    class       volScalarField;
    location    "75000";
    object      p;
}
// * * * * * * * * * * * * * * * * * * * * * * * * * * * * * * * * * * * * * //

dimensions      [0 2 -2 0 0 0 0];


internalField   nonuniform List<scalar> 
172512
(
1.27156e-07
1.27125e-07
1.27125e-07
1.27079e-07
1.24057e-07
1.23974e-07
1.23974e-07
1.24103e-07
1.21889e-07
1.21863e-07
1.21863e-07
1.21972e-07
1.20061e-07
1.20053e-07
1.20053e-07
1.20148e-07
1.18405e-07
1.18405e-07
1.18405e-07
1.18494e-07
1.16853e-07
1.16855e-07
1.16855e-07
1.1694e-07
1.15369e-07
1.15371e-07
1.15371e-07
1.15453e-07
1.13931e-07
1.13933e-07
1.13933e-07
1.14013e-07
1.12528e-07
1.12529e-07
1.12529e-07
1.12607e-07
1.11149e-07
1.1115e-07
1.1115e-07
1.11227e-07
1.09789e-07
1.0979e-07
1.0979e-07
1.09866e-07
1.08443e-07
1.08444e-07
1.08444e-07
1.08519e-07
1.07109e-07
1.07109e-07
1.07109e-07
1.07184e-07
1.05782e-07
1.05783e-07
1.05783e-07
1.05857e-07
1.04463e-07
1.04463e-07
1.04463e-07
1.04537e-07
1.03148e-07
1.03148e-07
1.03148e-07
1.03223e-07
1.01838e-07
1.01838e-07
1.01838e-07
1.01912e-07
1.0053e-07
1.0053e-07
1.0053e-07
1.00604e-07
9.92253e-08
9.92253e-08
9.92253e-08
9.92989e-08
9.79221e-08
9.7922e-08
9.7922e-08
9.79956e-08
9.66203e-08
9.66203e-08
9.66203e-08
9.66938e-08
9.53197e-08
9.53196e-08
9.53196e-08
9.5393e-08
9.40199e-08
9.40198e-08
9.40198e-08
9.40932e-08
9.27208e-08
9.27207e-08
9.27207e-08
9.27941e-08
9.14222e-08
9.14221e-08
9.14221e-08
9.14955e-08
9.01241e-08
9.0124e-08
9.0124e-08
9.01973e-08
8.88264e-08
8.88262e-08
8.88262e-08
8.88995e-08
8.75289e-08
8.75287e-08
8.75287e-08
8.7602e-08
8.62316e-08
8.62314e-08
8.62314e-08
8.63047e-08
8.49345e-08
8.49342e-08
8.49342e-08
8.50075e-08
8.36374e-08
8.36371e-08
8.36371e-08
8.37104e-08
8.23403e-08
8.234e-08
8.234e-08
8.24133e-08
8.10432e-08
8.10429e-08
8.10429e-08
8.11162e-08
7.97461e-08
7.97459e-08
7.97459e-08
7.98192e-08
7.8449e-08
7.84488e-08
7.84488e-08
7.85221e-08
7.71519e-08
7.71517e-08
7.71517e-08
7.7225e-08
7.58548e-08
7.58546e-08
7.58546e-08
7.59279e-08
7.45577e-08
7.45575e-08
7.45575e-08
7.46308e-08
7.32607e-08
7.32604e-08
7.32604e-08
7.33337e-08
7.19636e-08
7.19634e-08
7.19634e-08
7.20367e-08
7.06665e-08
7.06663e-08
7.06663e-08
7.07396e-08
6.93694e-08
6.93692e-08
6.93692e-08
6.94425e-08
6.80724e-08
6.80721e-08
6.80721e-08
6.81454e-08
6.67753e-08
6.67751e-08
6.67751e-08
6.68483e-08
6.54782e-08
6.5478e-08
6.5478e-08
6.55513e-08
6.41811e-08
6.41809e-08
6.41809e-08
6.42542e-08
6.2884e-08
6.28838e-08
6.28838e-08
6.29571e-08
6.15869e-08
6.15867e-08
6.15867e-08
6.166e-08
6.02899e-08
6.02896e-08
6.02896e-08
6.03629e-08
5.89928e-08
5.89925e-08
5.89925e-08
5.90658e-08
5.76957e-08
5.76955e-08
5.76955e-08
5.77688e-08
5.63986e-08
5.63984e-08
5.63984e-08
5.64717e-08
5.51015e-08
5.51013e-08
5.51013e-08
5.51746e-08
5.38044e-08
5.38042e-08
5.38042e-08
5.38775e-08
5.25073e-08
5.25071e-08
5.25071e-08
5.25804e-08
5.12103e-08
5.121e-08
5.121e-08
5.12833e-08
4.99132e-08
4.9913e-08
4.9913e-08
4.99863e-08
4.86161e-08
4.86159e-08
4.86159e-08
4.86892e-08
4.7319e-08
4.73188e-08
4.73188e-08
4.73921e-08
4.6022e-08
4.60217e-08
4.60217e-08
4.6095e-08
4.47249e-08
4.47247e-08
4.47247e-08
4.4798e-08
4.34278e-08
4.34276e-08
4.34276e-08
4.35009e-08
4.21308e-08
4.21305e-08
4.21305e-08
4.22038e-08
4.08337e-08
4.08335e-08
4.08335e-08
4.09068e-08
3.95366e-08
3.95364e-08
3.95364e-08
3.96097e-08
3.82395e-08
3.82393e-08
3.82393e-08
3.83126e-08
3.69424e-08
3.69422e-08
3.69422e-08
3.70155e-08
3.56454e-08
3.56451e-08
3.56451e-08
3.57184e-08
3.43483e-08
3.43481e-08
3.43481e-08
3.44214e-08
3.30512e-08
3.3051e-08
3.3051e-08
3.31243e-08
3.17541e-08
3.17539e-08
3.17539e-08
3.18272e-08
3.0457e-08
3.04568e-08
3.04568e-08
3.05301e-08
2.91599e-08
2.91597e-08
2.91597e-08
2.9233e-08
2.78628e-08
2.78626e-08
2.78626e-08
2.79359e-08
2.65657e-08
2.65655e-08
2.65655e-08
2.66388e-08
2.52686e-08
2.52684e-08
2.52684e-08
2.53417e-08
2.39716e-08
2.39713e-08
2.39713e-08
2.40446e-08
2.26745e-08
2.26742e-08
2.26742e-08
2.27475e-08
2.13774e-08
2.13772e-08
2.13772e-08
2.14505e-08
2.00803e-08
2.00801e-08
2.00801e-08
2.01534e-08
1.87832e-08
1.8783e-08
1.8783e-08
1.88563e-08
1.74861e-08
1.74859e-08
1.74859e-08
1.75592e-08
1.61891e-08
1.61888e-08
1.61888e-08
1.62621e-08
1.4892e-08
1.48918e-08
1.48918e-08
1.49651e-08
1.35949e-08
1.35947e-08
1.35947e-08
1.3668e-08
1.22978e-08
1.22976e-08
1.22976e-08
1.23709e-08
1.10008e-08
1.10005e-08
1.10005e-08
1.10738e-08
9.70368e-09
9.70345e-09
9.70345e-09
9.77675e-09
8.4066e-09
8.40638e-09
8.40638e-09
8.47967e-09
7.10952e-09
7.10931e-09
7.10931e-09
7.18258e-09
5.81246e-09
5.81226e-09
5.81226e-09
5.88548e-09
4.51543e-09
4.51527e-09
4.51527e-09
4.58834e-09
3.21874e-09
3.21843e-09
3.21843e-09
3.29115e-09
1.92835e-09
1.92614e-09
1.92613e-09
1.99822e-09
8.47205e-10
7.46974e-10
7.46959e-10
7.07918e-10
1.27559e-07
1.27582e-07
1.27582e-07
1.27559e-07
1.27582e-07
1.27582e-07
1.27588e-07
1.27588e-07
1.27588e-07
1.27588e-07
1.27582e-07
1.27582e-07
1.27559e-07
1.27582e-07
1.27582e-07
1.27559e-07
1.27079e-07
1.24444e-07
1.27125e-07
1.27125e-07
1.24589e-07
1.24589e-07
1.27079e-07
1.24444e-07
1.27125e-07
1.27125e-07
1.24589e-07
1.24589e-07
1.27125e-07
1.24589e-07
1.24589e-07
1.27079e-07
1.24444e-07
1.27125e-07
1.24589e-07
1.24589e-07
1.24444e-07
1.24103e-07
1.22242e-07
1.23974e-07
1.23974e-07
1.22353e-07
1.22353e-07
1.24103e-07
1.22242e-07
1.23974e-07
1.23974e-07
1.22353e-07
1.22353e-07
1.23974e-07
1.22353e-07
1.22353e-07
1.24103e-07
1.22242e-07
1.23974e-07
1.22353e-07
1.22353e-07
1.22242e-07
1.21972e-07
1.20384e-07
1.21863e-07
1.21863e-07
1.20487e-07
1.20487e-07
1.21972e-07
1.20384e-07
1.21863e-07
1.21863e-07
1.20487e-07
1.20487e-07
1.21863e-07
1.20487e-07
1.20487e-07
1.21972e-07
1.20384e-07
1.21863e-07
1.20487e-07
1.20487e-07
1.20384e-07
1.20148e-07
1.18713e-07
1.20053e-07
1.20053e-07
1.18806e-07
1.18806e-07
1.20148e-07
1.18712e-07
1.20053e-07
1.20053e-07
1.18806e-07
1.18806e-07
1.20053e-07
1.18806e-07
1.18806e-07
1.20148e-07
1.18712e-07
1.20053e-07
1.18806e-07
1.18806e-07
1.18712e-07
1.18494e-07
1.17146e-07
1.18405e-07
1.18405e-07
1.17235e-07
1.17235e-07
1.18494e-07
1.17146e-07
1.18405e-07
1.18405e-07
1.17235e-07
1.17235e-07
1.18405e-07
1.17235e-07
1.17235e-07
1.18494e-07
1.17146e-07
1.18405e-07
1.17235e-07
1.17235e-07
1.17147e-07
1.1694e-07
1.15652e-07
1.16855e-07
1.16855e-07
1.15737e-07
1.15737e-07
1.1694e-07
1.15652e-07
1.16855e-07
1.16855e-07
1.15737e-07
1.15737e-07
1.16855e-07
1.15737e-07
1.15737e-07
1.1694e-07
1.15652e-07
1.16855e-07
1.15737e-07
1.15737e-07
1.15652e-07
1.15453e-07
1.14207e-07
1.15371e-07
1.15371e-07
1.14289e-07
1.14289e-07
1.15453e-07
1.14207e-07
1.15371e-07
1.15371e-07
1.14289e-07
1.14289e-07
1.15371e-07
1.14289e-07
1.14289e-07
1.15453e-07
1.14207e-07
1.15371e-07
1.14289e-07
1.14289e-07
1.14207e-07
1.14013e-07
1.12798e-07
1.13933e-07
1.13933e-07
1.12877e-07
1.12877e-07
1.14013e-07
1.12798e-07
1.13933e-07
1.13933e-07
1.12877e-07
1.12877e-07
1.13933e-07
1.12877e-07
1.12877e-07
1.14013e-07
1.12798e-07
1.13933e-07
1.12877e-07
1.12877e-07
1.12798e-07
1.12607e-07
1.11414e-07
1.12529e-07
1.12529e-07
1.11493e-07
1.11493e-07
1.12607e-07
1.11414e-07
1.12529e-07
1.12529e-07
1.11493e-07
1.11493e-07
1.12529e-07
1.11493e-07
1.11493e-07
1.12607e-07
1.11414e-07
1.12529e-07
1.11493e-07
1.11493e-07
1.11414e-07
1.11227e-07
1.10051e-07
1.1115e-07
1.1115e-07
1.10128e-07
1.10128e-07
1.11227e-07
1.10051e-07
1.1115e-07
1.1115e-07
1.10128e-07
1.10128e-07
1.1115e-07
1.10128e-07
1.10128e-07
1.11227e-07
1.10051e-07
1.1115e-07
1.10128e-07
1.10128e-07
1.10051e-07
1.09866e-07
1.08703e-07
1.0979e-07
1.0979e-07
1.08779e-07
1.08779e-07
1.09866e-07
1.08703e-07
1.0979e-07
1.0979e-07
1.08779e-07
1.08779e-07
1.0979e-07
1.08779e-07
1.08779e-07
1.09866e-07
1.08703e-07
1.0979e-07
1.08779e-07
1.08779e-07
1.08703e-07
1.08519e-07
1.07366e-07
1.08444e-07
1.08444e-07
1.07442e-07
1.07442e-07
1.08519e-07
1.07366e-07
1.08444e-07
1.08444e-07
1.07442e-07
1.07442e-07
1.08444e-07
1.07442e-07
1.07442e-07
1.08519e-07
1.07366e-07
1.08444e-07
1.07442e-07
1.07442e-07
1.07366e-07
1.07184e-07
1.06039e-07
1.07109e-07
1.07109e-07
1.06113e-07
1.06113e-07
1.07184e-07
1.06039e-07
1.07109e-07
1.07109e-07
1.06113e-07
1.06113e-07
1.07109e-07
1.06113e-07
1.06113e-07
1.07184e-07
1.06039e-07
1.07109e-07
1.06113e-07
1.06113e-07
1.06039e-07
1.05857e-07
1.04718e-07
1.05783e-07
1.05783e-07
1.04792e-07
1.04792e-07
1.05857e-07
1.04718e-07
1.05783e-07
1.05783e-07
1.04792e-07
1.04792e-07
1.05783e-07
1.04792e-07
1.04792e-07
1.05857e-07
1.04718e-07
1.05783e-07
1.04792e-07
1.04792e-07
1.04718e-07
1.04537e-07
1.03402e-07
1.04463e-07
1.04463e-07
1.03477e-07
1.03477e-07
1.04537e-07
1.03402e-07
1.04463e-07
1.04463e-07
1.03477e-07
1.03477e-07
1.04463e-07
1.03477e-07
1.03477e-07
1.04537e-07
1.03402e-07
1.04463e-07
1.03477e-07
1.03477e-07
1.03402e-07
1.03223e-07
1.02091e-07
1.03148e-07
1.03148e-07
1.02165e-07
1.02165e-07
1.03223e-07
1.02091e-07
1.03148e-07
1.03148e-07
1.02165e-07
1.02165e-07
1.03148e-07
1.02165e-07
1.02165e-07
1.03223e-07
1.02091e-07
1.03148e-07
1.02165e-07
1.02165e-07
1.02091e-07
1.01912e-07
1.00783e-07
1.01838e-07
1.01838e-07
1.00857e-07
1.00857e-07
1.01912e-07
1.00783e-07
1.01838e-07
1.01838e-07
1.00857e-07
1.00857e-07
1.01838e-07
1.00857e-07
1.00857e-07
1.01912e-07
1.00783e-07
1.01838e-07
1.00857e-07
1.00857e-07
1.00783e-07
1.00604e-07
9.94777e-08
1.0053e-07
1.0053e-07
9.95514e-08
9.95514e-08
1.00604e-07
9.94777e-08
1.0053e-07
1.0053e-07
9.95514e-08
9.95514e-08
1.0053e-07
9.95514e-08
9.95514e-08
1.00604e-07
9.94777e-08
1.0053e-07
9.95514e-08
9.95514e-08
9.94777e-08
9.92989e-08
9.81741e-08
9.92253e-08
9.92253e-08
9.82477e-08
9.82477e-08
9.92989e-08
9.81741e-08
9.92253e-08
9.92253e-08
9.82477e-08
9.82477e-08
9.92253e-08
9.82477e-08
9.82477e-08
9.92989e-08
9.81741e-08
9.92253e-08
9.82477e-08
9.82477e-08
9.81741e-08
9.79956e-08
9.68721e-08
9.7922e-08
9.7922e-08
9.69456e-08
9.69456e-08
9.79956e-08
9.68721e-08
9.7922e-08
9.7922e-08
9.69456e-08
9.69456e-08
9.7922e-08
9.69456e-08
9.69456e-08
9.79956e-08
9.68721e-08
9.7922e-08
9.69456e-08
9.69456e-08
9.68721e-08
9.66937e-08
9.55712e-08
9.66203e-08
9.66203e-08
9.56447e-08
9.56447e-08
9.66937e-08
9.55712e-08
9.66203e-08
9.66203e-08
9.56447e-08
9.56447e-08
9.66203e-08
9.56447e-08
9.56447e-08
9.66938e-08
9.55712e-08
9.66203e-08
9.56447e-08
9.56447e-08
9.55712e-08
9.5393e-08
9.42713e-08
9.53196e-08
9.53196e-08
9.43447e-08
9.43447e-08
9.5393e-08
9.42713e-08
9.53196e-08
9.53196e-08
9.43447e-08
9.43447e-08
9.53196e-08
9.43447e-08
9.43447e-08
9.5393e-08
9.42713e-08
9.53196e-08
9.43447e-08
9.43447e-08
9.42713e-08
9.40932e-08
9.29721e-08
9.40198e-08
9.40198e-08
9.30454e-08
9.30454e-08
9.40932e-08
9.29721e-08
9.40198e-08
9.40198e-08
9.30454e-08
9.30454e-08
9.40198e-08
9.30454e-08
9.30454e-08
9.40932e-08
9.29721e-08
9.40198e-08
9.30454e-08
9.30454e-08
9.29721e-08
9.2794e-08
9.16734e-08
9.27207e-08
9.27207e-08
9.17467e-08
9.17467e-08
9.2794e-08
9.16734e-08
9.27207e-08
9.27207e-08
9.17467e-08
9.17467e-08
9.27207e-08
9.17467e-08
9.17467e-08
9.2794e-08
9.16734e-08
9.27207e-08
9.17467e-08
9.17467e-08
9.16734e-08
9.14954e-08
9.03752e-08
9.14221e-08
9.14221e-08
9.04485e-08
9.04485e-08
9.14954e-08
9.03752e-08
9.14221e-08
9.14221e-08
9.04485e-08
9.04485e-08
9.14221e-08
9.04485e-08
9.04485e-08
9.14954e-08
9.03752e-08
9.14221e-08
9.04485e-08
9.04485e-08
9.03752e-08
9.01973e-08
8.90774e-08
9.0124e-08
9.0124e-08
8.91506e-08
8.91506e-08
9.01973e-08
8.90774e-08
9.0124e-08
9.0124e-08
8.91506e-08
8.91506e-08
9.0124e-08
8.91506e-08
8.91506e-08
9.01973e-08
8.90774e-08
9.0124e-08
8.91506e-08
8.91506e-08
8.90773e-08
8.88995e-08
8.77798e-08
8.88262e-08
8.88262e-08
8.78531e-08
8.78531e-08
8.88995e-08
8.77798e-08
8.88262e-08
8.88262e-08
8.78531e-08
8.78531e-08
8.88262e-08
8.78531e-08
8.78531e-08
8.88995e-08
8.77798e-08
8.88262e-08
8.78531e-08
8.78531e-08
8.77798e-08
8.7602e-08
8.64825e-08
8.75287e-08
8.75287e-08
8.65557e-08
8.65557e-08
8.7602e-08
8.64825e-08
8.75287e-08
8.75287e-08
8.65557e-08
8.65557e-08
8.75287e-08
8.65557e-08
8.65557e-08
8.7602e-08
8.64825e-08
8.75287e-08
8.65557e-08
8.65557e-08
8.64825e-08
8.63047e-08
8.51853e-08
8.62314e-08
8.62314e-08
8.52585e-08
8.52585e-08
8.63047e-08
8.51853e-08
8.62314e-08
8.62314e-08
8.52585e-08
8.52585e-08
8.62314e-08
8.52585e-08
8.52585e-08
8.63047e-08
8.51853e-08
8.62314e-08
8.52585e-08
8.52585e-08
8.51853e-08
8.50075e-08
8.38882e-08
8.49342e-08
8.49342e-08
8.39614e-08
8.39614e-08
8.50075e-08
8.38882e-08
8.49342e-08
8.49342e-08
8.39614e-08
8.39614e-08
8.49342e-08
8.39614e-08
8.39614e-08
8.50075e-08
8.38882e-08
8.49342e-08
8.39614e-08
8.39614e-08
8.38882e-08
8.37104e-08
8.25911e-08
8.36371e-08
8.36371e-08
8.26643e-08
8.26643e-08
8.37104e-08
8.25911e-08
8.36371e-08
8.36371e-08
8.26643e-08
8.26643e-08
8.36371e-08
8.26643e-08
8.26643e-08
8.37104e-08
8.25911e-08
8.36371e-08
8.26643e-08
8.26643e-08
8.25911e-08
8.24133e-08
8.1294e-08
8.234e-08
8.234e-08
8.13672e-08
8.13672e-08
8.24133e-08
8.1294e-08
8.234e-08
8.234e-08
8.13672e-08
8.13672e-08
8.234e-08
8.13672e-08
8.13672e-08
8.24133e-08
8.1294e-08
8.234e-08
8.13672e-08
8.13672e-08
8.1294e-08
8.11162e-08
7.99969e-08
8.10429e-08
8.10429e-08
8.00701e-08
8.00701e-08
8.11162e-08
7.99969e-08
8.10429e-08
8.10429e-08
8.00701e-08
8.00701e-08
8.10429e-08
8.00701e-08
8.00701e-08
8.11162e-08
7.99969e-08
8.10429e-08
8.00701e-08
8.00701e-08
7.99969e-08
7.98191e-08
7.86998e-08
7.97459e-08
7.97459e-08
7.8773e-08
7.8773e-08
7.98191e-08
7.86998e-08
7.97459e-08
7.97459e-08
7.8773e-08
7.8773e-08
7.97459e-08
7.8773e-08
7.8773e-08
7.98191e-08
7.86998e-08
7.97459e-08
7.8773e-08
7.8773e-08
7.86998e-08
7.8522e-08
7.74028e-08
7.84488e-08
7.84488e-08
7.7476e-08
7.7476e-08
7.85221e-08
7.74028e-08
7.84488e-08
7.84488e-08
7.7476e-08
7.7476e-08
7.84488e-08
7.7476e-08
7.7476e-08
7.85221e-08
7.74028e-08
7.84488e-08
7.7476e-08
7.7476e-08
7.74027e-08
7.7225e-08
7.61057e-08
7.71517e-08
7.71517e-08
7.61789e-08
7.61789e-08
7.7225e-08
7.61057e-08
7.71517e-08
7.71517e-08
7.61789e-08
7.61789e-08
7.71517e-08
7.61789e-08
7.61789e-08
7.7225e-08
7.61057e-08
7.71517e-08
7.61789e-08
7.61789e-08
7.61057e-08
7.59279e-08
7.48086e-08
7.58546e-08
7.58546e-08
7.48818e-08
7.48818e-08
7.59279e-08
7.48086e-08
7.58546e-08
7.58546e-08
7.48818e-08
7.48818e-08
7.58546e-08
7.48818e-08
7.48818e-08
7.59279e-08
7.48086e-08
7.58546e-08
7.48818e-08
7.48818e-08
7.48086e-08
7.46308e-08
7.35115e-08
7.45575e-08
7.45575e-08
7.35847e-08
7.35847e-08
7.46308e-08
7.35115e-08
7.45575e-08
7.45575e-08
7.35847e-08
7.35847e-08
7.45575e-08
7.35847e-08
7.35847e-08
7.46308e-08
7.35115e-08
7.45575e-08
7.35847e-08
7.35847e-08
7.35115e-08
7.33337e-08
7.22144e-08
7.32604e-08
7.32604e-08
7.22876e-08
7.22876e-08
7.33337e-08
7.22144e-08
7.32604e-08
7.32604e-08
7.22876e-08
7.22876e-08
7.32604e-08
7.22876e-08
7.22876e-08
7.33337e-08
7.22144e-08
7.32604e-08
7.22876e-08
7.22876e-08
7.22144e-08
7.20366e-08
7.09174e-08
7.19634e-08
7.19634e-08
7.09906e-08
7.09906e-08
7.20367e-08
7.09174e-08
7.19634e-08
7.19634e-08
7.09906e-08
7.09906e-08
7.19634e-08
7.09906e-08
7.09906e-08
7.20367e-08
7.09174e-08
7.19634e-08
7.09906e-08
7.09906e-08
7.09173e-08
7.07396e-08
6.96203e-08
7.06663e-08
7.06663e-08
6.96935e-08
6.96935e-08
7.07396e-08
6.96203e-08
7.06663e-08
7.06663e-08
6.96935e-08
6.96935e-08
7.06663e-08
6.96935e-08
6.96935e-08
7.07396e-08
6.96203e-08
7.06663e-08
6.96935e-08
6.96935e-08
6.96203e-08
6.94425e-08
6.83232e-08
6.93692e-08
6.93692e-08
6.83964e-08
6.83964e-08
6.94425e-08
6.83232e-08
6.93692e-08
6.93692e-08
6.83964e-08
6.83964e-08
6.93692e-08
6.83964e-08
6.83964e-08
6.94425e-08
6.83232e-08
6.93692e-08
6.83964e-08
6.83964e-08
6.83232e-08
6.81454e-08
6.70261e-08
6.80721e-08
6.80721e-08
6.70993e-08
6.70993e-08
6.81454e-08
6.70261e-08
6.80721e-08
6.80721e-08
6.70993e-08
6.70993e-08
6.80721e-08
6.70993e-08
6.70993e-08
6.81454e-08
6.70261e-08
6.80721e-08
6.70993e-08
6.70993e-08
6.70261e-08
6.68483e-08
6.5729e-08
6.67751e-08
6.67751e-08
6.58022e-08
6.58022e-08
6.68483e-08
6.5729e-08
6.67751e-08
6.67751e-08
6.58022e-08
6.58022e-08
6.67751e-08
6.58022e-08
6.58022e-08
6.68483e-08
6.5729e-08
6.67751e-08
6.58022e-08
6.58022e-08
6.5729e-08
6.55513e-08
6.4432e-08
6.5478e-08
6.5478e-08
6.45052e-08
6.45052e-08
6.55513e-08
6.4432e-08
6.5478e-08
6.5478e-08
6.45052e-08
6.45052e-08
6.5478e-08
6.45052e-08
6.45052e-08
6.55513e-08
6.4432e-08
6.5478e-08
6.45052e-08
6.45052e-08
6.44319e-08
6.42542e-08
6.31349e-08
6.41809e-08
6.41809e-08
6.32081e-08
6.32081e-08
6.42542e-08
6.31349e-08
6.41809e-08
6.41809e-08
6.32081e-08
6.32081e-08
6.41809e-08
6.32081e-08
6.32081e-08
6.42542e-08
6.31349e-08
6.41809e-08
6.32081e-08
6.32081e-08
6.31349e-08
6.29571e-08
6.18378e-08
6.28838e-08
6.28838e-08
6.1911e-08
6.1911e-08
6.29571e-08
6.18378e-08
6.28838e-08
6.28838e-08
6.1911e-08
6.1911e-08
6.28838e-08
6.1911e-08
6.1911e-08
6.29571e-08
6.18378e-08
6.28838e-08
6.1911e-08
6.1911e-08
6.18378e-08
6.166e-08
6.05407e-08
6.15867e-08
6.15867e-08
6.06139e-08
6.06139e-08
6.166e-08
6.05407e-08
6.15867e-08
6.15867e-08
6.06139e-08
6.06139e-08
6.15867e-08
6.06139e-08
6.06139e-08
6.166e-08
6.05407e-08
6.15867e-08
6.06139e-08
6.06139e-08
6.05407e-08
6.03629e-08
5.92436e-08
6.02896e-08
6.02896e-08
5.93168e-08
5.93168e-08
6.03629e-08
5.92436e-08
6.02896e-08
6.02896e-08
5.93168e-08
5.93168e-08
6.02896e-08
5.93168e-08
5.93168e-08
6.03629e-08
5.92436e-08
6.02896e-08
5.93168e-08
5.93168e-08
5.92436e-08
5.90658e-08
5.79465e-08
5.89925e-08
5.89925e-08
5.80197e-08
5.80197e-08
5.90658e-08
5.79465e-08
5.89925e-08
5.89925e-08
5.80197e-08
5.80197e-08
5.89925e-08
5.80197e-08
5.80197e-08
5.90658e-08
5.79465e-08
5.89925e-08
5.80197e-08
5.80197e-08
5.79465e-08
5.77687e-08
5.66494e-08
5.76955e-08
5.76955e-08
5.67226e-08
5.67226e-08
5.77687e-08
5.66494e-08
5.76955e-08
5.76955e-08
5.67226e-08
5.67226e-08
5.76955e-08
5.67226e-08
5.67226e-08
5.77687e-08
5.66494e-08
5.76955e-08
5.67226e-08
5.67226e-08
5.66494e-08
5.64717e-08
5.53524e-08
5.63984e-08
5.63984e-08
5.54256e-08
5.54256e-08
5.64717e-08
5.53524e-08
5.63984e-08
5.63984e-08
5.54256e-08
5.54256e-08
5.63984e-08
5.54256e-08
5.54256e-08
5.64717e-08
5.53523e-08
5.63984e-08
5.54256e-08
5.54256e-08
5.53523e-08
5.51746e-08
5.40553e-08
5.51013e-08
5.51013e-08
5.41285e-08
5.41285e-08
5.51746e-08
5.40553e-08
5.51013e-08
5.51013e-08
5.41285e-08
5.41285e-08
5.51013e-08
5.41285e-08
5.41285e-08
5.51746e-08
5.40553e-08
5.51013e-08
5.41285e-08
5.41285e-08
5.40553e-08
5.38775e-08
5.27582e-08
5.38042e-08
5.38042e-08
5.28314e-08
5.28314e-08
5.38775e-08
5.27582e-08
5.38042e-08
5.38042e-08
5.28314e-08
5.28314e-08
5.38042e-08
5.28314e-08
5.28314e-08
5.38775e-08
5.27582e-08
5.38042e-08
5.28314e-08
5.28314e-08
5.27582e-08
5.25804e-08
5.14611e-08
5.25071e-08
5.25071e-08
5.15343e-08
5.15343e-08
5.25804e-08
5.14611e-08
5.25071e-08
5.25071e-08
5.15343e-08
5.15343e-08
5.25071e-08
5.15343e-08
5.15343e-08
5.25804e-08
5.14611e-08
5.25071e-08
5.15343e-08
5.15343e-08
5.14611e-08
5.12833e-08
5.0164e-08
5.121e-08
5.121e-08
5.02372e-08
5.02372e-08
5.12833e-08
5.0164e-08
5.121e-08
5.121e-08
5.02372e-08
5.02372e-08
5.121e-08
5.02372e-08
5.02372e-08
5.12833e-08
5.0164e-08
5.121e-08
5.02372e-08
5.02372e-08
5.0164e-08
4.99862e-08
4.8867e-08
4.9913e-08
4.9913e-08
4.89402e-08
4.89402e-08
4.99862e-08
4.8867e-08
4.9913e-08
4.9913e-08
4.89402e-08
4.89402e-08
4.9913e-08
4.89402e-08
4.89402e-08
4.99863e-08
4.8867e-08
4.9913e-08
4.89402e-08
4.89402e-08
4.88669e-08
4.86892e-08
4.75699e-08
4.86159e-08
4.86159e-08
4.76431e-08
4.76431e-08
4.86892e-08
4.75699e-08
4.86159e-08
4.86159e-08
4.76431e-08
4.76431e-08
4.86159e-08
4.76431e-08
4.76431e-08
4.86892e-08
4.75699e-08
4.86159e-08
4.76431e-08
4.76431e-08
4.75699e-08
4.73921e-08
4.62728e-08
4.73188e-08
4.73188e-08
4.6346e-08
4.6346e-08
4.73921e-08
4.62728e-08
4.73188e-08
4.73188e-08
4.6346e-08
4.6346e-08
4.73188e-08
4.6346e-08
4.6346e-08
4.73921e-08
4.62728e-08
4.73188e-08
4.6346e-08
4.6346e-08
4.62728e-08
4.6095e-08
4.49757e-08
4.60217e-08
4.60217e-08
4.50489e-08
4.50489e-08
4.6095e-08
4.49757e-08
4.60217e-08
4.60217e-08
4.50489e-08
4.50489e-08
4.60217e-08
4.50489e-08
4.50489e-08
4.6095e-08
4.49757e-08
4.60217e-08
4.50489e-08
4.50489e-08
4.49757e-08
4.4798e-08
4.36787e-08
4.47247e-08
4.47247e-08
4.37519e-08
4.37519e-08
4.4798e-08
4.36787e-08
4.47247e-08
4.47247e-08
4.37519e-08
4.37519e-08
4.47247e-08
4.37519e-08
4.37519e-08
4.4798e-08
4.36787e-08
4.47247e-08
4.37519e-08
4.37519e-08
4.36787e-08
4.35009e-08
4.23816e-08
4.34276e-08
4.34276e-08
4.24548e-08
4.24548e-08
4.35009e-08
4.23816e-08
4.34276e-08
4.34276e-08
4.24548e-08
4.24548e-08
4.34276e-08
4.24548e-08
4.24548e-08
4.35009e-08
4.23816e-08
4.34276e-08
4.24548e-08
4.24548e-08
4.23816e-08
4.22038e-08
4.10845e-08
4.21305e-08
4.21305e-08
4.11577e-08
4.11577e-08
4.22038e-08
4.10845e-08
4.21305e-08
4.21305e-08
4.11577e-08
4.11577e-08
4.21305e-08
4.11577e-08
4.11577e-08
4.22038e-08
4.10845e-08
4.21305e-08
4.11577e-08
4.11577e-08
4.10845e-08
4.09067e-08
3.97874e-08
4.08335e-08
4.08335e-08
3.98606e-08
3.98606e-08
4.09067e-08
3.97874e-08
4.08335e-08
4.08335e-08
3.98606e-08
3.98606e-08
4.08335e-08
3.98606e-08
3.98606e-08
4.09067e-08
3.97874e-08
4.08335e-08
3.98606e-08
3.98606e-08
3.97874e-08
3.96097e-08
3.84904e-08
3.95364e-08
3.95364e-08
3.85636e-08
3.85636e-08
3.96097e-08
3.84904e-08
3.95364e-08
3.95364e-08
3.85636e-08
3.85636e-08
3.95364e-08
3.85636e-08
3.85636e-08
3.96097e-08
3.84904e-08
3.95364e-08
3.85636e-08
3.85636e-08
3.84904e-08
3.83126e-08
3.71933e-08
3.82393e-08
3.82393e-08
3.72665e-08
3.72665e-08
3.83126e-08
3.71933e-08
3.82393e-08
3.82393e-08
3.72665e-08
3.72665e-08
3.82393e-08
3.72665e-08
3.72665e-08
3.83126e-08
3.71933e-08
3.82393e-08
3.72665e-08
3.72665e-08
3.71933e-08
3.70155e-08
3.58962e-08
3.69422e-08
3.69422e-08
3.59694e-08
3.59694e-08
3.70155e-08
3.58962e-08
3.69422e-08
3.69422e-08
3.59694e-08
3.59694e-08
3.69422e-08
3.59694e-08
3.59694e-08
3.70155e-08
3.58962e-08
3.69422e-08
3.59694e-08
3.59694e-08
3.58962e-08
3.57184e-08
3.45991e-08
3.56451e-08
3.56451e-08
3.46723e-08
3.46723e-08
3.57184e-08
3.45991e-08
3.56451e-08
3.56451e-08
3.46723e-08
3.46723e-08
3.56451e-08
3.46723e-08
3.46723e-08
3.57184e-08
3.45991e-08
3.56451e-08
3.46723e-08
3.46723e-08
3.45991e-08
3.44213e-08
3.3302e-08
3.43481e-08
3.43481e-08
3.33752e-08
3.33752e-08
3.44213e-08
3.3302e-08
3.43481e-08
3.43481e-08
3.33752e-08
3.33752e-08
3.43481e-08
3.33752e-08
3.33752e-08
3.44213e-08
3.3302e-08
3.43481e-08
3.33752e-08
3.33752e-08
3.3302e-08
3.31243e-08
3.2005e-08
3.3051e-08
3.3051e-08
3.20782e-08
3.20782e-08
3.31243e-08
3.2005e-08
3.3051e-08
3.3051e-08
3.20782e-08
3.20782e-08
3.3051e-08
3.20782e-08
3.20782e-08
3.31243e-08
3.2005e-08
3.3051e-08
3.20782e-08
3.20782e-08
3.20049e-08
3.18272e-08
3.07079e-08
3.17539e-08
3.17539e-08
3.07811e-08
3.07811e-08
3.18272e-08
3.07079e-08
3.17539e-08
3.17539e-08
3.07811e-08
3.07811e-08
3.17539e-08
3.07811e-08
3.07811e-08
3.18272e-08
3.07079e-08
3.17539e-08
3.07811e-08
3.07811e-08
3.07079e-08
3.05301e-08
2.94108e-08
3.04568e-08
3.04568e-08
2.9484e-08
2.9484e-08
3.05301e-08
2.94108e-08
3.04568e-08
3.04568e-08
2.9484e-08
2.9484e-08
3.04568e-08
2.9484e-08
2.9484e-08
3.05301e-08
2.94108e-08
3.04568e-08
2.9484e-08
2.9484e-08
2.94108e-08
2.9233e-08
2.81137e-08
2.91597e-08
2.91597e-08
2.81869e-08
2.81869e-08
2.9233e-08
2.81137e-08
2.91597e-08
2.91597e-08
2.81869e-08
2.81869e-08
2.91597e-08
2.81869e-08
2.81869e-08
2.9233e-08
2.81137e-08
2.91597e-08
2.81869e-08
2.81869e-08
2.81137e-08
2.79359e-08
2.68166e-08
2.78626e-08
2.78626e-08
2.68898e-08
2.68898e-08
2.79359e-08
2.68166e-08
2.78626e-08
2.78626e-08
2.68898e-08
2.68898e-08
2.78626e-08
2.68898e-08
2.68898e-08
2.79359e-08
2.68166e-08
2.78626e-08
2.68898e-08
2.68898e-08
2.68166e-08
2.66388e-08
2.55195e-08
2.65655e-08
2.65655e-08
2.55927e-08
2.55927e-08
2.66388e-08
2.55195e-08
2.65655e-08
2.65655e-08
2.55927e-08
2.55927e-08
2.65655e-08
2.55927e-08
2.55927e-08
2.66388e-08
2.55195e-08
2.65655e-08
2.55927e-08
2.55927e-08
2.55195e-08
2.53417e-08
2.42224e-08
2.52684e-08
2.52684e-08
2.42956e-08
2.42956e-08
2.53417e-08
2.42224e-08
2.52684e-08
2.52684e-08
2.42956e-08
2.42956e-08
2.52684e-08
2.42956e-08
2.42956e-08
2.53417e-08
2.42224e-08
2.52684e-08
2.42956e-08
2.42956e-08
2.42224e-08
2.40446e-08
2.29253e-08
2.39713e-08
2.39713e-08
2.29985e-08
2.29985e-08
2.40446e-08
2.29253e-08
2.39713e-08
2.39713e-08
2.29985e-08
2.29985e-08
2.39713e-08
2.29985e-08
2.29985e-08
2.40446e-08
2.29253e-08
2.39713e-08
2.29985e-08
2.29985e-08
2.29253e-08
2.27475e-08
2.16282e-08
2.26742e-08
2.26742e-08
2.17014e-08
2.17014e-08
2.27475e-08
2.16282e-08
2.26742e-08
2.26742e-08
2.17014e-08
2.17014e-08
2.26742e-08
2.17014e-08
2.17014e-08
2.27475e-08
2.16282e-08
2.26742e-08
2.17014e-08
2.17014e-08
2.16282e-08
2.14504e-08
2.03311e-08
2.13772e-08
2.13772e-08
2.04043e-08
2.04043e-08
2.14504e-08
2.03311e-08
2.13772e-08
2.13772e-08
2.04043e-08
2.04043e-08
2.13772e-08
2.04043e-08
2.04043e-08
2.14504e-08
2.03311e-08
2.13772e-08
2.04043e-08
2.04043e-08
2.03311e-08
2.01534e-08
1.90341e-08
2.00801e-08
2.00801e-08
1.91073e-08
1.91073e-08
2.01534e-08
1.90341e-08
2.00801e-08
2.00801e-08
1.91073e-08
1.91073e-08
2.00801e-08
1.91073e-08
1.91073e-08
2.01534e-08
1.90341e-08
2.00801e-08
1.91073e-08
1.91073e-08
1.9034e-08
1.88563e-08
1.7737e-08
1.8783e-08
1.8783e-08
1.78102e-08
1.78102e-08
1.88563e-08
1.7737e-08
1.8783e-08
1.8783e-08
1.78102e-08
1.78102e-08
1.8783e-08
1.78102e-08
1.78102e-08
1.88563e-08
1.7737e-08
1.8783e-08
1.78102e-08
1.78102e-08
1.7737e-08
1.75592e-08
1.64399e-08
1.74859e-08
1.74859e-08
1.65131e-08
1.65131e-08
1.75592e-08
1.64399e-08
1.74859e-08
1.74859e-08
1.65131e-08
1.65131e-08
1.74859e-08
1.65131e-08
1.65131e-08
1.75592e-08
1.64399e-08
1.74859e-08
1.65131e-08
1.65131e-08
1.64399e-08
1.62621e-08
1.51428e-08
1.61888e-08
1.61888e-08
1.5216e-08
1.5216e-08
1.62621e-08
1.51428e-08
1.61888e-08
1.61888e-08
1.5216e-08
1.5216e-08
1.61888e-08
1.5216e-08
1.5216e-08
1.62621e-08
1.51428e-08
1.61888e-08
1.5216e-08
1.5216e-08
1.51428e-08
1.4965e-08
1.38457e-08
1.48918e-08
1.48918e-08
1.3919e-08
1.3919e-08
1.4965e-08
1.38458e-08
1.48918e-08
1.48918e-08
1.3919e-08
1.3919e-08
1.48918e-08
1.3919e-08
1.3919e-08
1.4965e-08
1.38457e-08
1.48918e-08
1.3919e-08
1.3919e-08
1.38457e-08
1.3668e-08
1.25487e-08
1.35947e-08
1.35947e-08
1.26219e-08
1.26219e-08
1.3668e-08
1.25487e-08
1.35947e-08
1.35947e-08
1.26219e-08
1.26219e-08
1.35947e-08
1.26219e-08
1.26219e-08
1.3668e-08
1.25487e-08
1.35947e-08
1.26219e-08
1.26219e-08
1.25487e-08
1.23709e-08
1.12516e-08
1.22976e-08
1.22976e-08
1.13248e-08
1.13248e-08
1.23709e-08
1.12516e-08
1.22976e-08
1.22976e-08
1.13248e-08
1.13248e-08
1.22976e-08
1.13248e-08
1.13248e-08
1.23709e-08
1.12516e-08
1.22976e-08
1.13248e-08
1.13248e-08
1.12516e-08
1.10738e-08
9.95452e-09
1.10005e-08
1.10005e-08
1.00277e-08
1.00277e-08
1.10738e-08
9.95452e-09
1.10005e-08
1.10005e-08
1.00277e-08
1.00277e-08
1.10005e-08
1.00277e-08
1.00277e-08
1.10738e-08
9.95451e-09
1.10005e-08
1.00277e-08
1.00277e-08
9.9545e-09
9.77673e-09
8.65743e-09
9.70345e-09
9.70345e-09
8.73064e-09
8.73064e-09
9.77673e-09
8.65744e-09
9.70345e-09
9.70345e-09
8.73064e-09
8.73064e-09
9.70345e-09
8.73064e-09
8.73064e-09
9.77674e-09
8.65743e-09
9.70345e-09
8.73064e-09
8.73064e-09
8.65742e-09
8.47965e-09
7.36035e-09
8.40638e-09
8.40638e-09
7.43355e-09
7.43355e-09
8.47965e-09
7.36035e-09
8.40638e-09
8.40638e-09
7.43355e-09
7.43355e-09
8.40638e-09
7.43355e-09
7.43355e-09
8.47965e-09
7.36034e-09
8.40638e-09
7.43355e-09
7.43355e-09
7.36033e-09
7.18257e-09
6.06324e-09
7.10931e-09
7.10931e-09
6.13645e-09
6.13645e-09
7.18256e-09
6.06324e-09
7.10931e-09
7.10931e-09
6.13645e-09
6.13645e-09
7.10931e-09
6.13645e-09
6.13645e-09
7.18257e-09
6.06324e-09
7.10931e-09
6.13645e-09
6.13645e-09
6.06323e-09
5.88547e-09
4.76609e-09
5.81226e-09
5.81226e-09
4.83932e-09
4.83932e-09
5.88546e-09
4.76609e-09
5.81226e-09
5.81226e-09
4.83932e-09
4.83932e-09
5.81226e-09
4.83932e-09
4.83932e-09
5.88547e-09
4.76608e-09
5.81226e-09
4.83932e-09
4.83932e-09
4.76607e-09
4.58833e-09
3.46877e-09
4.51527e-09
4.51527e-09
3.54204e-09
3.54204e-09
4.58832e-09
3.46876e-09
4.51527e-09
4.51527e-09
3.54204e-09
3.54203e-09
4.51527e-09
3.54204e-09
3.54204e-09
4.58833e-09
3.46876e-09
4.51527e-09
3.54204e-09
3.54203e-09
3.46875e-09
3.29114e-09
2.1724e-09
3.21843e-09
3.21843e-09
2.2451e-09
2.2451e-09
3.29113e-09
2.17239e-09
3.21843e-09
3.21843e-09
2.24511e-09
2.24509e-09
3.21842e-09
2.2451e-09
2.24508e-09
3.29114e-09
2.17237e-09
3.21842e-09
2.2451e-09
2.2451e-09
2.17237e-09
1.99822e-09
7.99267e-10
1.92612e-09
1.92611e-09
8.74971e-10
8.74918e-10
1.99821e-09
7.99272e-10
1.92615e-09
1.9261e-09
8.75027e-10
8.74903e-10
1.92609e-09
8.75021e-10
8.74938e-10
1.99821e-09
7.99282e-10
1.92613e-09
8.74989e-10
8.74943e-10
7.99282e-10
7.07932e-10
7.46922e-10
7.46878e-10
7.07921e-10
7.46986e-10
7.46867e-10
8.47177e-10
8.4717e-10
8.4715e-10
7.46898e-10
7.07906e-10
7.46896e-10
1.28289e-07
1.28906e-07
1.28574e-07
1.28574e-07
1.30311e-07
1.29168e-07
1.31694e-07
1.28797e-07
1.30311e-07
1.29168e-07
1.28797e-07
1.31694e-07
1.29465e-07
1.32128e-07
1.32128e-07
1.25645e-07
1.26902e-07
1.26917e-07
1.25608e-07
1.26841e-07
1.25592e-07
1.25645e-07
1.26902e-07
1.26917e-07
1.25608e-07
1.27156e-07
1.27156e-07
1.27156e-07
1.24692e-07
1.24692e-07
1.24692e-07
1.24692e-07
1.25708e-07
1.26955e-07
1.27167e-07
1.25989e-07
1.26991e-07
1.25658e-07
1.26042e-07
1.26841e-07
1.25592e-07
1.25708e-07
1.27167e-07
1.26955e-07
1.25989e-07
1.26991e-07
1.26042e-07
1.25658e-07
1.26974e-07
1.26974e-07
1.25824e-07
1.25642e-07
1.25642e-07
1.23221e-07
1.24026e-07
1.24046e-07
1.23206e-07
1.2402e-07
1.23202e-07
1.23221e-07
1.24026e-07
1.24046e-07
1.23206e-07
1.24057e-07
1.24057e-07
1.24057e-07
1.22387e-07