/*--------------------------------*- C++ -*----------------------------------*\
| =========                 |                                                 |
| \\      /  F ield         | OpenFOAM: The Open Source CFD Toolbox           |
|  \\    /   O peration     | Version:  2312                                  |
|   \\  /    A nd           | Website:  www.openfoam.com                      |
|    \\/     M anipulation  |                                                 |
\*---------------------------------------------------------------------------*/
FoamFile
{
    version     2.0;
    format      ascii;
    arch        "LSB;label=32;scalar=64";
    class       volScalarField;
    location    "650";
    object      k;
}
// * * * * * * * * * * * * * * * * * * * * * * * * * * * * * * * * * * * * * //

dimensions      [0 2 -2 0 0 0 0];

internalField   nonuniform List<scalar> 
43008
(
1.57103e-05
1.61147e-05
1.52906e-05
1.60661e-05
1.60658e-05
1.76116e-05
1.72545e-05
1.75303e-05
1.6115e-05
1.61152e-05
1.60677e-05
1.60678e-05
1.75303e-05
1.61154e-05
1.61145e-05
1.60681e-05
1.60671e-05
1.60677e-05
1.60669e-05
1.72534e-05
1.75304e-05
1.6115e-05
1.60674e-05
1.60677e-05
1.75161e-05
1.76042e-05
1.60662e-05
1.60663e-05
1.76039e-05
1.60665e-05
1.60656e-05
1.60654e-05
1.76027e-05
1.60663e-05
5.00975e-05
6.99078e-05
4.93371e-05
6.99367e-05
6.97734e-05
5.00988e-05
6.99086e-05
4.93365e-05
6.99376e-05
1.57102e-05
1.57098e-05
1.57097e-05
1.53909e-05
1.53908e-05
1.53904e-05
1.53904e-05
2.60073e-05
1.60925e-05
4.29298e-05
1.53536e-05
6.97977e-05
6.97737e-05
2.60119e-05
1.54373e-05
4.24508e-05
1.60921e-05
2.54906e-05
1.53532e-05
4.29292e-05
1.73371e-05
5.77564e-05
5.77667e-05
5.19465e-05
6.99784e-05
5.1282e-05
7.00053e-05
6.9713e-05
6.96909e-05
5.19483e-05
6.99796e-05
5.1282e-05
7.00065e-05
1.52905e-05
1.52901e-05
1.529e-05
2.76527e-05
4.38848e-05
1.51273e-05
1.60685e-05
2.71064e-05
4.43255e-05
1.50597e-05
6.97135e-05
6.96914e-05
2.76578e-05
1.51271e-05
4.38843e-05
1.60683e-05
2.71098e-05
1.50596e-05
4.43338e-05
5.83097e-05
5.83194e-05
1.77278e-05
5.85661e-05
5.85765e-05
6.9796e-05
6.97719e-05
6.97974e-05
6.97735e-05
5.74664e-05
5.74778e-05
1.73465e-05
5.77592e-05
5.77703e-05
6.97296e-05
6.97527e-05
6.97314e-05
6.97545e-05
1.74082e-05
5.81768e-05
5.81879e-05
5.79032e-05
5.79144e-05
5.00966e-05
6.99042e-05
4.93365e-05
6.99332e-05
2.60188e-05
4.24518e-05
1.5438e-05
1.60924e-05
2.54879e-05
4.29319e-05
1.53539e-05
2.60196e-05
4.24559e-05
1.5438e-05
1.60925e-05
2.54885e-05
4.29346e-05
1.53538e-05
5.03435e-05
6.99719e-05
6.99437e-05
5.10566e-05
5.03428e-05
6.99685e-05
6.99403e-05
5.10555e-05
2.62856e-05
1.60791e-05
4.36446e-05
1.51987e-05
4.31812e-05
1.52746e-05
2.68323e-05
2.62844e-05
1.60792e-05
4.36466e-05
1.51987e-05
4.31842e-05
1.52745e-05
2.6833e-05
1.73459e-05
5.77656e-05
5.77599e-05
6.97721e-05
6.97315e-05
6.97545e-05
1.74096e-05
5.81835e-05
5.8178e-05
5.79102e-05
5.79051e-05
6.97301e-05
6.9753e-05
2.60184e-05
4.24561e-05
1.54379e-05
1.60928e-05
2.54883e-05
4.29352e-05
1.53537e-05
5.00979e-05
6.99044e-05
4.93358e-05
6.99336e-05
2.60176e-05
1.54373e-05
4.24548e-05
1.60918e-05
2.54861e-05
1.53532e-05
4.29325e-05
5.03432e-05
6.9973e-05
6.99448e-05
5.10583e-05
2.62848e-05
1.60794e-05
4.36473e-05
1.51986e-05
4.31853e-05
1.52744e-05
2.68312e-05
5.03427e-05
6.9969e-05
6.99408e-05
5.10574e-05
2.62838e-05
1.60785e-05
1.51979e-05
4.36452e-05
1.52738e-05
4.3184e-05
2.68296e-05
5.00816e-05
6.99356e-05
2.60133e-05
1.60916e-05
1.53532e-05
4.29317e-05
5.00913e-05
6.99322e-05
2.62867e-05
1.60791e-05
4.36407e-05
1.51983e-05
4.31803e-05
1.52742e-05
2.68203e-05
5.0351e-05
6.99706e-05
6.99423e-05
5.10423e-05
2.62837e-05
1.60783e-05
1.51981e-05
4.36441e-05
1.52739e-05
4.3179e-05
2.68277e-05
5.03455e-05
6.99674e-05
6.9939e-05
5.10513e-05
5.74729e-05
5.74674e-05
1.73478e-05
5.77655e-05
5.77604e-05
6.97962e-05
6.97722e-05
6.97319e-05
6.97549e-05
1.7412e-05
5.81836e-05
5.81785e-05
5.79098e-05
5.79047e-05
6.97303e-05
6.97533e-05
2.60166e-05
1.54375e-05
4.24552e-05
1.60924e-05
2.5489e-05
1.53534e-05
4.29365e-05
5.00914e-05
6.99076e-05
4.93444e-05
6.99366e-05
5.00912e-05
6.99045e-05
4.93442e-05
6.99337e-05
2.62889e-05
1.60787e-05
1.5198e-05
4.36445e-05
1.52739e-05
4.31816e-05
2.68242e-05
2.62863e-05
1.60791e-05
1.51983e-05
4.3647e-05
1.52741e-05
4.31852e-05
2.68302e-05
5.0351e-05
6.99718e-05
6.99438e-05
5.10501e-05
5.03508e-05
6.99689e-05
6.99408e-05
5.10501e-05
6.97713e-05
6.97734e-05
1.74192e-05
5.81743e-05
5.81851e-05
5.7901e-05
5.79115e-05
6.97293e-05
6.97523e-05
6.97314e-05
6.97545e-05
6.97109e-05
6.9689e-05
6.97129e-05
6.96909e-05
5.83122e-05
5.83231e-05
1.77449e-05
5.85685e-05
5.85797e-05
5.19454e-05
6.99748e-05
5.12812e-05
7.00021e-05
2.76683e-05
4.38844e-05
1.51278e-05
1.60688e-05
2.71058e-05
4.43307e-05
1.50603e-05
2.76596e-05
4.38857e-05
1.51277e-05
1.60687e-05
2.71046e-05
4.43351e-05
1.50602e-05
5.83182e-05
5.83135e-05
1.77444e-05
5.85747e-05
5.85688e-05
6.97115e-05
6.96896e-05
2.76567e-05
4.38887e-05
1.51277e-05
1.60691e-05
2.7106e-05
4.43362e-05
1.50602e-05
5.19476e-05
6.99754e-05
5.12817e-05
7.00027e-05
2.76617e-05
1.5127e-05
4.38867e-05
1.60681e-05
2.71049e-05
1.50595e-05
4.43404e-05
5.19344e-05
6.99772e-05
5.12892e-05
7.00041e-05
2.76545e-05
1.51272e-05
4.38835e-05
1.60677e-05
2.71037e-05
1.50596e-05
4.43369e-05
5.19415e-05
6.99737e-05
5.12842e-05
7.0001e-05
5.83186e-05
5.83136e-05
1.77441e-05
5.85756e-05
5.85703e-05
6.97118e-05
6.96898e-05
2.7664e-05
1.51274e-05
4.38884e-05
1.60687e-05
2.71061e-05
1.506e-05
4.43336e-05
5.194e-05
6.99783e-05
5.12898e-05
7.00056e-05
5.194e-05
6.99753e-05
5.12896e-05
7.00024e-05
6.97107e-05
6.96887e-05
6.97129e-05
6.96908e-05
6.97451e-05
4.98488e-05
6.90332e-05
5.70693e-05
6.90255e-05
5.68502e-05
6.97563e-05
7.11551e-05
7.30044e-05
6.9919e-05
7.11512e-05
7.31068e-05
6.97444e-05
4.9592e-05
6.90189e-05
5.64669e-05
6.97338e-05
6.90251e-05
5.6692e-05
7.11315e-05
7.32536e-05
6.99257e-05
7.31577e-05
7.11352e-05
6.97951e-05
6.97759e-05
6.97455e-05
4.98483e-05
5.70683e-05
6.90341e-05
5.68483e-05
6.90262e-05
6.97566e-05
7.11547e-05
7.30036e-05
6.99198e-05
7.11509e-05
7.31016e-05
6.97447e-05
4.95934e-05
5.64647e-05
6.90197e-05
6.97342e-05
5.66909e-05
6.9026e-05
7.11312e-05
7.32498e-05
6.99266e-05
7.31553e-05
7.11349e-05
6.97952e-05
6.97761e-05
8.65104e-05
7.26166e-05
7.26104e-05
7.26158e-05
7.26097e-05
8.66061e-05
5.44792e-05
5.7537e-05
3.58091e-05
6.84871e-05
5.45463e-05
5.75471e-05
3.58277e-05
6.84997e-05
8.64593e-05
7.26393e-05
7.26331e-05
5.47228e-05
6.85354e-05
5.76863e-05
3.62388e-05
3.61028e-05
6.85052e-05
5.4833e-05
5.47903e-05
6.85479e-05
5.76968e-05
3.6258e-05
3.61231e-05
6.85158e-05
5.49021e-05
6.9797e-05
5.17257e-05
6.9094e-05
5.84313e-05
6.90807e-05
5.8235e-05
6.98093e-05
7.10752e-05
7.35743e-05
6.99889e-05
7.10719e-05
7.36566e-05
6.97956e-05
5.15101e-05
6.90627e-05
5.79104e-05
6.97834e-05
6.90756e-05
5.8112e-05
7.10519e-05
7.37744e-05
6.99951e-05
7.37008e-05
7.10551e-05
6.9711e-05
6.96927e-05
6.97974e-05
5.17255e-05
5.84308e-05
6.90949e-05
5.82335e-05
6.90814e-05
6.98096e-05
7.1075e-05
7.35738e-05
6.99901e-05
7.10717e-05
7.36525e-05
6.9796e-05
5.15119e-05
5.79087e-05
6.90633e-05
6.97838e-05
5.81114e-05
6.90765e-05
7.10517e-05
7.37717e-05
6.99963e-05
7.3698e-05
7.1055e-05
6.97114e-05
6.96932e-05
8.7051e-05
7.25259e-05
7.25199e-05
7.25253e-05
7.25193e-05
8.71359e-05
5.58363e-05
3.73685e-05
6.86432e-05
5.83733e-05
5.57344e-05
3.74998e-05
6.8671e-05
5.59033e-05
3.73873e-05
6.86546e-05
5.83839e-05
5.58026e-05
3.75216e-05
6.86834e-05
8.70107e-05
7.25479e-05
7.25419e-05
8.69258e-05
7.25485e-05
7.25424e-05
5.60519e-05
6.87126e-05
5.85036e-05
3.79127e-05
3.77796e-05
6.86862e-05
5.61506e-05
5.61191e-05
6.87252e-05
5.85136e-05
3.79323e-05
3.7798e-05
6.86977e-05
5.62223e-05
6.97936e-05
6.97741e-05
6.9795e-05
6.97759e-05
8.65163e-05
7.26182e-05
7.26117e-05
7.26174e-05
7.26109e-05
8.66107e-05
5.44785e-05
3.56675e-05
6.84569e-05
5.75397e-05
5.4366e-05
6.84884e-05
3.58123e-05
5.4544e-05
3.56862e-05
6.84677e-05
5.75508e-05
5.44332e-05
6.85009e-05
3.58303e-05
8.6465e-05
7.264e-05
7.26336e-05
8.63642e-05
7.2641e-05
7.26345e-05
5.47235e-05
6.85363e-05
5.76883e-05
3.62422e-05
6.85061e-05
5.48331e-05
3.60993e-05
5.47902e-05
6.85489e-05
5.76996e-05
3.62599e-05
6.85172e-05
5.48991e-05
3.61169e-05
6.97316e-05
6.97505e-05
6.97335e-05
6.97523e-05
8.67511e-05
7.25947e-05
7.25882e-05
8.66593e-05
7.25954e-05
7.2589e-05
5.54075e-05
3.70865e-05
5.81111e-05
6.86284e-05
6.86001e-05
3.6948e-05
5.551e-05
5.54739e-05
3.71055e-05
5.81221e-05
6.86409e-05
6.86117e-05
3.69652e-05
5.55788e-05
5.51779e-05
6.85539e-05
3.65258e-05
5.79715e-05
5.50703e-05
6.85836e-05
3.66659e-05
5.52435e-05
6.85649e-05
3.65442e-05
5.79825e-05
5.51374e-05
6.85959e-05
3.6685e-05
8.67979e-05
7.25726e-05
7.25662e-05
7.2572e-05
7.25655e-05
8.68862e-05
6.9744e-05
4.98479e-05
6.90326e-05
5.7066e-05
6.90248e-05
5.68447e-05
6.97552e-05
7.11534e-05
7.29836e-05
6.99153e-05
7.11497e-05
7.30871e-05
6.97433e-05
4.95914e-05
6.90183e-05
5.64613e-05
6.90245e-05
6.97327e-05
5.66889e-05
7.113e-05
7.32338e-05
6.99223e-05
7.31371e-05
7.11336e-05
6.97689e-05
6.90347e-05
5.72183e-05
5.05857e-05
6.97573e-05
6.90446e-05
5.74314e-05
7.10919e-05
6.99614e-05
7.35279e-05
7.10953e-05
7.34458e-05
7.11154e-05
7.33026e-05
6.9955e-05
7.11117e-05
7.33974e-05
6.97701e-05
5.08215e-05
6.90589e-05
5.77788e-05
6.97821e-05
6.90472e-05
5.75716e-05
6.97678e-05
6.90341e-05
5.72129e-05
5.05847e-05
6.97562e-05
6.90441e-05
5.74282e-05
7.10903e-05
6.9958e-05
7.35091e-05
7.34222e-05
7.10937e-05
7.11137e-05
7.32818e-05
6.99515e-05
7.11102e-05
7.33759e-05
6.9769e-05
5.08205e-05
6.90585e-05
5.77753e-05
6.90466e-05
5.75661e-05
6.9781e-05
8.65124e-05
7.26127e-05
7.2618e-05
7.26118e-05
7.26171e-05
8.66136e-05
5.45507e-05
5.75464e-05
6.85007e-05
3.5829e-05
5.44815e-05
5.75402e-05
3.58099e-05
6.84914e-05
8.64672e-05
7.26354e-05
7.26407e-05
5.47854e-05
6.85491e-05
5.76953e-05
3.62593e-05
6.85148e-05
3.61198e-05
5.49026e-05
5.47177e-05
6.85396e-05
5.76905e-05
3.62398e-05
3.60992e-05
6.85045e-05
5.48316e-05
6.97937e-05
6.97742e-05
6.97335e-05
6.97523e-05
8.67538e-05
7.25892e-05
7.25945e-05
8.66565e-05
7.259e-05
7.25953e-05
5.54715e-05
3.71051e-05
5.81177e-05
6.86413e-05
3.69676e-05
6.86086e-05
5.5581e-05
5.54041e-05
3.7085e-05
5.81128e-05
6.86314e-05
6.85983e-05
3.69482e-05
5.55127e-05
5.52482e-05
6.85626e-05
3.65469e-05
5.79782e-05
3.66851e-05
5.51342e-05
6.85959e-05
5.51788e-05
6.85522e-05
3.65261e-05
5.79727e-05
5.50677e-05
6.85861e-05
3.66642e-05
8.67948e-05
7.25674e-05
7.25726e-05
7.25666e-05
7.25718e-05
8.68886e-05
6.97321e-05
6.97509e-05
6.97444e-05
4.98475e-05
6.90334e-05
5.70639e-05
6.90256e-05
5.68449e-05
6.97556e-05
7.1153e-05
7.29798e-05
6.99157e-05
7.11492e-05
7.3082e-05
6.97437e-05
4.95923e-05
6.9019e-05
5.64613e-05
6.90252e-05
6.97331e-05
5.66865e-05
7.11296e-05
7.32276e-05
6.99225e-05
7.3135e-05
7.11333e-05
6.97693e-05
5.72164e-05
6.90355e-05
5.05871e-05
6.97577e-05
5.74305e-05
6.90455e-05
7.10916e-05
6.99623e-05
7.35258e-05
7.1095e-05
7.34406e-05
7.1115e-05
7.33021e-05
6.99558e-05
7.11115e-05
7.33921e-05
6.97705e-05
5.08212e-05
5.77781e-05
6.90598e-05
6.97825e-05
5.75698e-05
6.90479e-05
6.97683e-05
6.90349e-05
5.72135e-05
5.05862e-05
6.97566e-05
6.90448e-05
5.74262e-05
7.109e-05
6.99585e-05
7.35043e-05
7.34214e-05
7.10934e-05
7.11135e-05
7.32807e-05
6.9952e-05
7.11099e-05
7.33724e-05
6.97694e-05
5.08207e-05
6.90592e-05
5.77736e-05
6.90475e-05
5.7567e-05
6.97815e-05
6.97429e-05
4.98566e-05
5.70479e-05
6.90317e-05
5.68585e-05
6.90239e-05
6.9754e-05
7.11287e-05
7.32425e-05
6.99248e-05
7.31503e-05
7.1133e-05
6.97431e-05
4.98505e-05
6.90318e-05
5.70622e-05
6.9024e-05
5.68463e-05
6.97543e-05
7.11288e-05
7.32299e-05
6.99213e-05
7.31329e-05
7.11324e-05
6.97668e-05
5.72261e-05
6.90333e-05
5.05706e-05
6.97552e-05
5.74108e-05
6.90433e-05
7.10892e-05
6.99603e-05
7.35181e-05
7.34346e-05
7.10933e-05
7.11132e-05
7.32933e-05
6.99535e-05
7.11089e-05
7.33851e-05
6.97681e-05
5.08286e-05
5.77592e-05
6.90579e-05
5.75787e-05
6.90457e-05
6.978e-05
6.9767e-05
6.90334e-05
5.72144e-05
5.05799e-05
6.97553e-05
6.90434e-05
5.74245e-05
7.10891e-05
6.99567e-05
7.35035e-05
7.34178e-05
7.10925e-05
7.11125e-05
7.32797e-05
6.99501e-05
7.1109e-05
7.33688e-05
6.97682e-05
5.08235e-05
6.90579e-05
5.77723e-05
6.90459e-05
5.75677e-05
6.97802e-05
8.65118e-05
7.2612e-05
7.26174e-05
7.26112e-05
7.26166e-05
8.66075e-05
5.45454e-05
3.5687e-05
6.8467e-05
5.75461e-05
6.84986e-05
5.44316e-05
3.58287e-05
5.44778e-05
3.56712e-05
6.84558e-05
5.75408e-05
3.58085e-05
5.43646e-05
6.84893e-05
8.64615e-05
7.26337e-05
7.26391e-05
7.26346e-05
8.63594e-05
7.264e-05
5.47895e-05
6.85468e-05
5.7695e-05
3.62598e-05
6.85163e-05
3.61185e-05
5.48996e-05
5.47222e-05
6.85373e-05
5.76897e-05
3.62382e-05
3.6103e-05
6.85052e-05
5.48321e-05
6.97937e-05
6.97745e-05
6.9734e-05
6.97526e-05
8.67474e-05
7.25887e-05
7.2594e-05
8.66558e-05
7.25894e-05
7.25947e-05
5.54741e-05
3.71061e-05
5.81176e-05
6.86393e-05
3.69672e-05
6.86105e-05
5.55778e-05
5.54077e-05
3.70838e-05
5.81126e-05
6.86293e-05
6.85995e-05
3.69528e-05
5.55103e-05
5.52446e-05
6.85642e-05
3.65446e-05
5.79782e-05
3.66839e-05
5.51362e-05
6.85941e-05
5.51757e-05
6.85529e-05
3.653e-05
5.79732e-05
5.50701e-05
6.85842e-05
3.66636e-05
8.67945e-05
7.25667e-05
7.2572e-05
7.25661e-05
7.25714e-05
8.68823e-05
6.97324e-05
6.97511e-05
6.97451e-05
4.9856e-05
5.7065e-05
6.90332e-05
5.68511e-05
6.90255e-05
6.97562e-05
7.11544e-05
7.29988e-05
6.99187e-05
7.30978e-05
7.11506e-05
6.97443e-05
4.95861e-05
5.64677e-05
6.9019e-05
5.66877e-05
6.97339e-05
6.90251e-05
7.1131e-05
7.32458e-05
6.99256e-05
7.31515e-05
7.11347e-05
6.9744e-05
4.98559e-05
5.70651e-05
6.90328e-05
5.68466e-05
6.90251e-05
6.97551e-05
7.11533e-05
7.29763e-05
6.99158e-05
7.11495e-05
7.30885e-05
6.97433e-05
4.95861e-05
5.64633e-05
6.90186e-05
6.97328e-05
5.66879e-05
6.90247e-05
7.11298e-05
7.32357e-05
6.99225e-05
7.31302e-05
7.11335e-05
6.97689e-05
5.7219e-05
6.90348e-05
5.05794e-05
6.97573e-05
5.74272e-05
6.90447e-05
7.10915e-05
6.99613e-05
7.35226e-05
7.34368e-05
7.10948e-05
7.11148e-05
7.32988e-05
6.99548e-05
7.11113e-05
7.33879e-05
6.97701e-05
5.0829e-05
5.77747e-05
6.90591e-05
5.75721e-05
6.90473e-05
6.9782e-05
6.97677e-05
5.72148e-05
6.90343e-05
5.05793e-05
6.97561e-05
5.74273e-05
6.90442e-05
7.10901e-05
6.99581e-05
7.35124e-05
7.34134e-05
7.10936e-05
7.11136e-05
7.32764e-05
6.99518e-05
7.11099e-05
7.33775e-05
6.97689e-05
5.08288e-05
5.77748e-05
6.90587e-05
5.7568e-05
6.90468e-05
6.97809e-05
6.97929e-05
6.97737e-05
6.97949e-05
6.97758e-05
8.67464e-05
7.25932e-05
7.25871e-05
8.66545e-05
7.25939e-05
7.25878e-05
5.54077e-05
3.70857e-05
5.81088e-05
6.86274e-05
5.55115e-05
3.69511e-05
6.85988e-05
5.54751e-05
3.71051e-05
5.81189e-05
6.86399e-05
5.55795e-05
3.69711e-05
6.86098e-05
5.51766e-05
6.85523e-05
3.65293e-05
5.79692e-05
5.507e-05
3.6665e-05
6.85826e-05
5.52448e-05
6.85635e-05
3.65496e-05
5.79794e-05
5.51374e-05
3.66847e-05
6.85948e-05
8.67929e-05
7.25712e-05
7.25651e-05
8.68818e-05
7.25705e-05
7.25645e-05
6.97313e-05
6.97501e-05
6.97335e-05
6.97523e-05
6.97091e-05
6.96907e-05
6.9711e-05
6.96927e-05
8.70591e-05
7.25273e-05
7.2521e-05
7.25267e-05
7.25204e-05
8.71378e-05
5.58351e-05
3.73654e-05
6.86444e-05
5.83758e-05
5.57341e-05
6.86719e-05
3.75008e-05
5.59025e-05
3.73841e-05
6.86561e-05
5.83868e-05
5.58009e-05
6.86844e-05
3.75208e-05
8.70145e-05
7.25493e-05
7.25429e-05
8.69306e-05
7.255e-05
7.25435e-05
5.60515e-05
6.87136e-05
5.85065e-05
3.79106e-05
6.86878e-05
5.61502e-05
3.77774e-05
5.61194e-05
6.87263e-05
5.85173e-05
3.79294e-05
6.86995e-05
5.62142e-05
3.77958e-05
6.97958e-05
5.17248e-05
6.90956e-05
5.84279e-05
6.90785e-05
5.82296e-05
6.98082e-05
7.10736e-05
7.35521e-05
6.99858e-05
7.10704e-05
7.36369e-05
6.97945e-05
5.15089e-05
6.90618e-05
5.7905e-05
6.90757e-05
6.97823e-05
5.81084e-05
7.10503e-05
7.3757e-05
6.9992e-05
7.36776e-05
7.10535e-05
8.70544e-05
7.25221e-05
7.25273e-05
7.25213e-05
7.25266e-05
8.71418e-05
5.59055e-05
3.73853e-05
6.86535e-05
5.83824e-05
6.86847e-05
5.57995e-05
3.75182e-05
5.58369e-05
3.73654e-05
6.8643e-05
5.83764e-05
3.74991e-05
5.57311e-05
6.86749e-05
8.70179e-05
7.2544e-05
7.25492e-05
7.25446e-05
8.69272e-05
7.25499e-05
5.6118e-05
6.87271e-05
5.85124e-05
3.79298e-05
6.86964e-05
3.77974e-05
5.62138e-05
5.60501e-05
6.87171e-05
5.85082e-05
3.79108e-05
3.77777e-05
6.86861e-05
5.61463e-05
6.97097e-05
6.96913e-05
6.97963e-05
5.17252e-05
6.90942e-05
5.84262e-05
6.9081e-05
5.82311e-05
6.98085e-05
7.10734e-05
7.35507e-05
6.99863e-05
7.10701e-05
7.36331e-05
6.97949e-05
5.15109e-05
6.90629e-05
5.79061e-05
6.90759e-05
6.97827e-05
5.81069e-05
7.10501e-05
7.37519e-05
6.99926e-05
7.36783e-05
7.10533e-05
6.9795e-05
5.17323e-05
5.84136e-05
6.90951e-05
5.82409e-05
6.90774e-05
6.98073e-05
7.10733e-05
7.35644e-05
6.99878e-05
7.36456e-05
7.10693e-05
6.97936e-05
5.14969e-05
5.79169e-05
6.90608e-05
5.80932e-05
6.97814e-05
6.90752e-05
7.10493e-05
7.37651e-05
6.99944e-05
7.36911e-05
7.10532e-05
6.97951e-05
5.1728e-05
6.90952e-05
5.8425e-05
6.90776e-05
5.82312e-05
6.98075e-05
7.10724e-05
7.355e-05
6.99845e-05
7.10691e-05
7.36301e-05
6.97938e-05
5.15051e-05
6.9061e-05
5.79064e-05
6.97815e-05
6.90752e-05
5.81055e-05
7.1049e-05
7.375e-05
6.99906e-05
7.36749e-05
7.10522e-05
8.70542e-05
7.25215e-05
7.25269e-05
7.2521e-05
7.25263e-05
8.71359e-05
5.59022e-05
3.73839e-05
6.86548e-05
5.83823e-05
6.8683e-05
5.58016e-05
3.75186e-05
5.58351e-05
3.73689e-05
6.8644e-05
5.83774e-05
3.74999e-05
5.57349e-05
6.86728e-05
8.70116e-05
7.25435e-05
7.25488e-05
7.25441e-05
8.69265e-05
7.25494e-05
5.61191e-05
6.8725e-05
5.85131e-05
3.79277e-05
6.86982e-05
3.77974e-05
5.62198e-05
5.60519e-05
6.87149e-05
5.85082e-05
3.79095e-05
3.77804e-05
6.86872e-05
5.61555e-05
6.97099e-05
6.96916e-05
6.97969e-05
5.17334e-05
5.84274e-05
6.90963e-05
5.82354e-05
6.90789e-05
6.98092e-05
7.10749e-05
7.35685e-05
6.9989e-05
7.36491e-05
7.10716e-05
6.97955e-05
5.15035e-05
5.79108e-05
6.90623e-05
5.8108e-05
6.97834e-05
6.90764e-05
7.10517e-05
7.37694e-05
6.99953e-05
7.36936e-05
7.10549e-05
6.97956e-05
5.17332e-05
5.84273e-05
6.90958e-05
5.82313e-05
6.90783e-05
6.98079e-05
7.10735e-05
7.35473e-05
6.99861e-05
7.10701e-05
7.36398e-05
6.97943e-05
5.15032e-05
5.79067e-05
6.90618e-05
6.97821e-05
5.81079e-05
6.90759e-05
7.10501e-05
7.37603e-05
6.99923e-05
7.36714e-05
7.10533e-05
6.97088e-05
6.96905e-05
6.9711e-05
6.96927e-05
1.59858e-05
1.5986e-05
1.56006e-05
1.58594e-05
1.58595e-05
1.62837e-05
1.64159e-05
3.44275e-05
1.72593e-05
2.26222e-05
2.26313e-05
1.54946e-05
1.54947e-05
1.51931e-05
1.53775e-05
1.53777e-05
1.57732e-05
1.58981e-05
3.61835e-05
2.3674e-05
2.36826e-05
1.76175e-05
3.60556e-05
2.37538e-05
2.37549e-05
3.44222e-05
2.25487e-05
2.25497e-05
1.7268e-05
3.42925e-05
2.26348e-05
2.26453e-05
3.56188e-05
1.75022e-05
2.34702e-05
2.3478e-05
2.33785e-05
2.33803e-05
3.57502e-05
3.44363e-05
1.72683e-05
2.26412e-05
2.2629e-05
3.56091e-05
1.7503e-05
2.34609e-05
2.3468e-05
2.33944e-05
2.33787e-05
3.57539e-05
3.44245e-05
2.25487e-05
2.25629e-05
1.72713e-05
2.26204e-05
3.42927e-05
2.26447e-05
3.5619e-05
1.75028e-05
2.34717e-05
2.34562e-05
2.33814e-05
2.33921e-05
3.57497e-05
3.56208e-05
1.75128e-05
2.3464e-05
2.34599e-05
3.57505e-05
2.33852e-05
2.33956e-05
3.61818e-05
2.36673e-05
2.36702e-05
1.76322e-05
3.60511e-05
2.37607e-05
2.37711e-05
3.61899e-05
2.36811e-05
2.36695e-05
1.76317e-05
2.37567e-05
3.60468e-05
2.37516e-05
3.61805e-05
2.3672e-05
2.36786e-05
1.7631e-05
2.37474e-05
3.60526e-05
2.37603e-05
1.59857e-05
1.59859e-05
1.56006e-05
1.58593e-05
1.58595e-05
1.62837e-05
1.64159e-05
1.59855e-05
1.59856e-05
1.56002e-05
1.5859e-05
1.58592e-05
1.62834e-05
1.64157e-05
1.59854e-05
1.59856e-05
1.56001e-05
1.5859e-05
1.58591e-05
1.62834e-05
1.64156e-05
1.54944e-05
1.56138e-05
1.56139e-05
1.57354e-05
1.57356e-05
1.61533e-05
1.60248e-05
1.54943e-05
1.56137e-05
1.56138e-05
1.57354e-05
1.57355e-05
1.61533e-05
1.60248e-05
1.54939e-05
1.56134e-05
1.56136e-05
1.57351e-05
1.57352e-05
1.61531e-05
1.60246e-05
1.54938e-05
1.56134e-05
1.56135e-05
1.57351e-05
1.57352e-05
1.61531e-05
1.60245e-05
1.82987e-05
2.58859e-05
3.01503e-05
1.69916e-05
3.00091e-05
1.69769e-05
1.83155e-05
2.0716e-05
3.69295e-05
4.28198e-05
2.53547e-05
2.52637e-05
3.6817e-05
2.07539e-05
1.82861e-05
2.58869e-05
1.70024e-05
3.01478e-05
1.69693e-05
3.00179e-05
1.83314e-05
2.05495e-05
2.49518e-05
3.64026e-05
4.25688e-05
2.05146e-05
2.50346e-05
3.65256e-05
1.81986e-05
2.56145e-05
1.68826e-05
2.95925e-05
1.81575e-05
1.69117e-05
2.97222e-05
2.07148e-05
3.69302e-05
4.28202e-05
2.53564e-05
2.52636e-05
3.68191e-05
2.07524e-05
3.47388e-05
1.73329e-05
2.28934e-05
2.2898e-05
2.28301e-05
2.28348e-05
3.48703e-05
1.54945e-05
1.54946e-05
1.5193e-05
1.53775e-05
1.53776e-05
1.57732e-05
1.58981e-05
1.54942e-05
1.54944e-05
1.51927e-05
1.53772e-05
1.53773e-05
1.5773e-05
1.58979e-05
1.54942e-05
1.54943e-05
1.51926e-05
1.53772e-05
1.53773e-05
1.5773e-05
1.58979e-05
1.88952e-05
2.7524e-05
3.18541e-05
1.74313e-05
3.17203e-05
1.74044e-05
1.8916e-05
2.14099e-05
2.62363e-05
3.80302e-05
4.3987e-05
2.13668e-05
2.63253e-05
3.81457e-05
1.87583e-05
2.72349e-05
3.12925e-05
1.72834e-05
1.87349e-05
3.1429e-05
1.73085e-05
2.15979e-05
3.85426e-05
4.42261e-05
2.66592e-05
2.65688e-05
3.8426e-05
2.16375e-05
1.88796e-05
2.75272e-05
1.74468e-05
3.1859e-05
1.73961e-05
3.17269e-05
1.89438e-05
2.14279e-05
2.62371e-05
3.80336e-05
4.39912e-05
2.13484e-05
2.63275e-05
3.81499e-05
1.87733e-05
2.7238e-05
1.72761e-05
3.12995e-05
1.87212e-05
1.73194e-05
3.14307e-05
2.15768e-05
3.8558e-05
4.42256e-05
2.66591e-05
2.65709e-05
3.84264e-05
2.16671e-05
3.64854e-05
1.77217e-05
2.40505e-05
2.40582e-05
2.39702e-05
2.39754e-05
3.66076e-05
3.47376e-05
1.73313e-05
2.29134e-05
2.29179e-05
3.48706e-05
2.28221e-05
2.28234e-05
3.53087e-05
1.74333e-05
2.30937e-05
2.30967e-05
3.51803e-05
2.31812e-05
2.3187e-05
1.82896e-05
2.58834e-05
3.01569e-05
1.70029e-05
3.00139e-05
1.69707e-05
1.83341e-05
2.0552e-05
2.49499e-05
3.64073e-05
4.25665e-05
3.65266e-05
2.05176e-05
2.50384e-05
1.82019e-05
2.56204e-05
2.95895e-05
1.68841e-05
2.97289e-05
1.81606e-05
1.69127e-05
2.07173e-05
3.69394e-05
4.28196e-05
2.53565e-05
3.68208e-05
2.52647e-05
2.0764e-05
1.83016e-05
2.58822e-05
3.01533e-05
1.70022e-05
3.00122e-05
1.69708e-05
1.83198e-05
2.05567e-05
2.49478e-05
3.64048e-05
4.25693e-05
2.0516e-05
3.65182e-05
2.50497e-05
1.81888e-05
2.56202e-05
2.95879e-05
1.68842e-05
1.81732e-05
2.97275e-05
1.69122e-05
2.07161e-05
3.69297e-05
4.28232e-05
2.53712e-05
3.68181e-05
2.07573e-05
2.52636e-05
1.84744e-05
3.04402e-05
1.70648e-05
2.64208e-05
1.84294e-05
3.05808e-05
1.70985e-05
2.11318e-05
2.60014e-05
4.35359e-05
3.77501e-05
2.59077e-05
3.76347e-05
2.11965e-05
2.09771e-05
3.72306e-05
2.55848e-05
4.32917e-05
2.56736e-05
2.09162e-05
3.73441e-05
1.85726e-05
2.66938e-05
3.101e-05
1.7205e-05
3.08687e-05
1.71671e-05
1.86193e-05
1.84608e-05
3.04388e-05
1.70647e-05
2.64211e-05
1.84406e-05
3.05802e-05
1.70975e-05
2.11421e-05
2.60159e-05
4.3539e-05
3.77423e-05
3.76332e-05
2.59048e-05
2.1187e-05
2.09682e-05
3.72264e-05
2.55803e-05
4.32948e-05
2.09239e-05
3.73412e-05
2.56867e-05
1.85857e-05
2.66929e-05
3.10073e-05
1.72038e-05
3.08658e-05
1.71675e-05
1.86073e-05
3.47267e-05
1.73307e-05
2.28954e-05
2.29109e-05
2.28178e-05
2.28354e-05
3.48767e-05
3.53215e-05
1.74337e-05
2.3111e-05
2.30958e-05
2.31787e-05
3.51712e-05
2.31826e-05
1.83019e-05
2.58829e-05
3.015e-05
1.69922e-05
3.0018e-05
1.69786e-05
1.83181e-05
2.05525e-05
2.4948e-05
3.64087e-05
4.25709e-05
3.65233e-05
2.05194e-05
2.50517e-05
1.8188e-05
2.56186e-05
2.95929e-05
1.68906e-05
2.97243e-05
1.81731e-05
1.69033e-05
2.07193e-05
3.69347e-05
4.28236e-05
2.53646e-05
3.68234e-05
2.52612e-05
2.07552e-05
1.8287e-05
2.58809e-05
1.69913e-05
3.01544e-05
1.69779e-05
3.00093e-05
1.8332e-05
2.05505e-05
2.49527e-05
3.6399e-05
4.25674e-05
2.05137e-05
3.65207e-05
2.50436e-05
1.81995e-05
2.56188e-05
1.689e-05
2.95879e-05
1.81582e-05
1.69025e-05
2.9726e-05
2.07138e-05
3.69341e-05
4.28227e-05
2.53603e-05
3.68121e-05
2.07537e-05
2.52679e-05
1.84595e-05
3.04455e-05
1.70721e-05
2.64199e-05
1.84415e-05
3.05735e-05
1.70877e-05
2.11459e-05
2.60129e-05
4.35408e-05
3.77469e-05
2.5901e-05
3.76386e-05
2.1186e-05
2.09646e-05
3.72317e-05
2.55829e-05
4.32956e-05
2.56895e-05
2.09278e-05
3.7348e-05
1.85863e-05
2.66937e-05
3.10031e-05
1.71927e-05
3.08733e-05
1.71762e-05
1.86063e-05
1.84727e-05
1.70716e-05
3.04364e-05
2.64208e-05
1.84267e-05
1.70869e-05
3.058e-05
2.113e-05
2.60025e-05
4.35397e-05
3.77455e-05
3.76271e-05
2.5913e-05
2.11955e-05
2.09702e-05
3.72225e-05
2.5588e-05
4.32936e-05
2.09216e-05
3.73395e-05
2.56775e-05
1.85697e-05
2.66915e-05
1.71916e-05
3.10059e-05
1.71751e-05
3.08642e-05
1.86173e-05
1.82983e-05
2.58809e-05
1.69919e-05
3.01457e-05
1.69767e-05
3.00163e-05
1.83154e-05
2.0716e-05
3.69264e-05
4.28176e-05
2.53647e-05
2.52515e-05
3.6815e-05
2.07501e-05
1.84568e-05
3.0436e-05
1.70699e-05
2.64126e-05
1.84376e-05
3.05763e-05
1.70884e-05
2.11422e-05
2.59967e-05
4.35363e-05
3.77431e-05
2.11858e-05
2.59076e-05
3.76304e-05
2.09645e-05
3.7224e-05
2.5583e-05
4.32889e-05
2.09242e-05
2.56722e-05
3.73419e-05
1.85819e-05
2.66941e-05
3.10031e-05
1.71931e-05
1.86036e-05
3.08634e-05
1.71721e-05
1.84565e-05
1.707e-05
3.04408e-05
2.64185e-05
1.84375e-05
1.7089e-05
3.05742e-05
2.11435e-05
2.60105e-05
4.35345e-05
3.77412e-05
3.76279e-05
2.58969e-05
2.11801e-05
2.09593e-05
3.72213e-05
2.55725e-05
4.32902e-05
2.09236e-05
3.73389e-05
2.56799e-05
1.85827e-05
2.66905e-05
1.7195e-05
3.10013e-05
1.71735e-05
3.08685e-05
1.86036e-05
3.47384e-05
1.73282e-05
2.2913e-05
2.28956e-05
2.2833e-05
2.2823e-05
3.48692e-05
3.53118e-05
1.74336e-05
2.30977e-05
2.31084e-05
2.31848e-05
3.51799e-05
2.31734e-05
1.82899e-05
2.58839e-05
1.7003e-05
3.0155e-05
1.69702e-05
3.0011e-05
1.83355e-05
2.05717e-05
2.49562e-05
3.63908e-05
4.2572e-05
2.50455e-05
2.05019e-05
3.65332e-05
1.82029e-05
2.56183e-05
1.68835e-05
2.95874e-05
1.69123e-05
1.81606e-05
2.97286e-05
2.07039e-05
3.69456e-05
4.28231e-05
2.53632e-05
2.52698e-05
3.68051e-05
2.07726e-05
1.84726e-05
1.70634e-05
3.04441e-05
2.64156e-05
1.84264e-05
1.70983e-05
3.05752e-05
2.11299e-05
2.60022e-05
4.35362e-05
3.77447e-05
2.11939e-05
2.59063e-05
3.76334e-05
2.09734e-05
3.72276e-05
2.55844e-05
4.3295e-05
2.0922e-05
2.56735e-05
3.73471e-05
1.85701e-05
2.66967e-05
1.72054e-05
3.10016e-05
1.86155e-05
1.71654e-05
3.0871e-05
1.84765e-05
1.70642e-05
3.04386e-05
2.64219e-05
1.84302e-05
1.70994e-05
3.05807e-05
2.11305e-05
2.60077e-05
4.35407e-05
3.77568e-05
3.76181e-05
2.59131e-05
2.12026e-05
2.09842e-05
3.72139e-05
2.55902e-05
4.3295e-05
2.09128e-05
3.73494e-05
2.56814e-05
1.85738e-05
2.66924e-05
1.72061e-05
3.10086e-05
1.71664e-05
3.08659e-05
1.86216e-05
3.53131e-05
1.74251e-05
2.31046e-05
2.31109e-05
3.5181e-05
2.31782e-05
2.31799e-05
3.64822e-05
1.77098e-05
2.40591e-05
2.40757e-05
3.66037e-05
2.396e-05
2.39612e-05
1.88832e-05
2.75197e-05
3.1864e-05
1.74431e-05
3.17229e-05
1.73972e-05
1.89436e-05
2.14249e-05
2.62374e-05
3.80358e-05
4.39893e-05
3.81493e-05
2.13576e-05
2.63272e-05
1.87743e-05
2.72457e-05
3.12968e-05
1.72798e-05
3.14365e-05
1.87251e-05
1.73169e-05
2.15838e-05
3.85412e-05
4.42254e-05
2.66656e-05
3.84336e-05
2.65681e-05
2.1667e-05
1.88986e-05
2.75231e-05
3.18623e-05
1.74409e-05
3.17209e-05
1.73984e-05
1.89211e-05
2.14166e-05
2.62354e-05
3.8031e-05
4.39962e-05
2.13664e-05
3.81475e-05
2.63374e-05
1.87612e-05
2.72421e-05
3.12941e-05
1.72799e-05
1.87369e-05
3.14342e-05
1.73156e-05
2.15985e-05
3.85389e-05
4.4227e-05
2.66614e-05
3.84297e-05
2.16415e-05
2.65733e-05
3.6476e-05
1.77098e-05
2.40433e-05
2.40521e-05
2.39646e-05
2.39778e-05
3.66026e-05
1.88922e-05
2.75257e-05
3.18605e-05
1.74278e-05
3.17279e-05
1.7409e-05
1.89405e-05
2.14286e-05
2.62336e-05
3.8037e-05
4.39951e-05
3.81521e-05
2.13645e-05
2.63486e-05
1.8762e-05
2.72405e-05
3.13006e-05
1.72877e-05
3.14327e-05
1.87364e-05
1.73075e-05
2.15868e-05
3.85487e-05
4.42294e-05
2.66825e-05
3.8433e-05
2.65626e-05
2.16685e-05
1.88808e-05
2.75217e-05
1.7427e-05
3.18568e-05
1.74083e-05
3.17253e-05
1.89419e-05
2.14275e-05
2.62413e-05
3.80302e-05
4.3995e-05
2.13494e-05
3.81459e-05
2.63312e-05
1.87727e-05
2.7242e-05
1.7287e-05
3.12937e-05
1.87224e-05
1.73065e-05
3.14292e-05
2.15757e-05
3.85563e-05
4.42255e-05
2.6667e-05
3.84208e-05
2.16675e-05
2.65738e-05
1.8896e-05
2.75216e-05
1.74318e-05
3.18531e-05
1.74047e-05
3.17262e-05
1.8918e-05
2.14056e-05
2.62259e-05
3.80292e-05
4.39913e-05
2.63371e-05
2.13656e-05
3.81423e-05
1.87582e-05
2.72396e-05
1.72851e-05
3.12967e-05
1.73099e-05
1.87344e-05
3.14272e-05
2.15979e-05
3.85501e-05
4.4222e-05
2.66799e-05
2.65584e-05
3.84222e-05
2.16381e-05
3.64833e-05
1.77094e-05
2.40561e-05
2.40405e-05
2.39748e-05
2.39679e-05
3.66072e-05
1.88852e-05
2.75199e-05
1.74468e-05
3.18616e-05
1.73963e-05
3.1723e-05
1.89463e-05
2.1428e-05
2.62422e-05
3.80238e-05
4.39956e-05
2.63376e-05
2.13578e-05
3.8151e-05
1.87765e-05
2.72449e-05
1.72791e-05
3.12945e-05
1.73189e-05
1.87267e-05
3.14336e-05
2.15846e-05
3.85376e-05
4.42295e-05
2.6673e-05
2.6574e-05
3.84245e-05
2.16687e-05
3.60233e-05
3.60197e-05
3.60197e-05
3.60085e-05
3.39295e-05
3.38853e-05
3.38855e-05
3.39586e-05
3.21568e-05
3.2002e-05
3.20019e-05
3.19435e-05
3.05324e-05
3.0221e-05
3.02207e-05
2.99762e-05
2.90296e-05
2.85442e-05
2.85438e-05
2.8108e-05
2.76311e-05
2.69763e-05
2.69757e-05
2.63745e-05
2.63257e-05
2.55193e-05
2.55187e-05
2.479e-05
2.51055e-05
2.41723e-05
2.41721e-05
2.33608e-05
2.39646e-05
2.29372e-05
2.29372e-05
2.2087e-05
2.28989e-05
2.1813e-05
2.18129e-05
2.09687e-05
2.19047e-05
2.07969e-05
2.07967e-05
1.99959e-05
2.09787e-05
1.98859e-05
1.98857e-05
1.91631e-05
2.01159e-05
1.90781e-05
1.90778e-05
1.84693e-05
1.9315e-05
1.83702e-05
1.83698e-05
1.79093e-05
1.85752e-05
1.7759e-05
1.77584e-05
1.74784e-05
1.78938e-05
1.72429e-05
1.72422e-05
1.71696e-05
1.72685e-05
1.68209e-05
1.68203e-05
1.69869e-05
1.66972e-05
1.64924e-05
1.64918e-05
1.69393e-05
1.61786e-05
1.62571e-05
1.62566e-05
1.70338e-05
1.61152e-05
1.72584e-05
3.62977e-05
3.62919e-05
3.62919e-05
3.62978e-05
3.62919e-05
3.62919e-05
3.62908e-05
3.62908e-05
3.62908e-05
3.62908e-05
3.62919e-05
3.62919e-05
3.62977e-05
3.62919e-05
3.62919e-05
3.62977e-05
3.60086e-05
3.42657e-05