/*--------------------------------*- C++ -*----------------------------------*\
| =========                 |                                                 |
| \\      /  F ield         | OpenFOAM: The Open Source CFD Toolbox           |
|  \\    /   O peration     | Version:  2312                                  |
|   \\  /    A nd           | Website:  www.openfoam.com                      |
|    \\/     M anipulation  |                                                 |
\*---------------------------------------------------------------------------*/
FoamFile
{
    version     2.0;
    format      ascii;
    arch        "LSB;label=32;scalar=64";
    class       surfaceScalarField;
    location    "650";
    object      phi;
}
// * * * * * * * * * * * * * * * * * * * * * * * * * * * * * * * * * * * * * //

dimensions      [0 3 -1 0 0 0 0];

oriented        oriented;

internalField   nonuniform List<scalar> 
124832
(
-8.75826e-07
-8.82778e-07
4.56213e-07
4.56891e-07
0.00114043
-0.00113959
-1.5189e-06
8.7725e-07
4.45262e-07
0.00113301
-5.32473e-07
1.10762e-06
1.27684e-07
7.24684e-07
-5.90874e-07
-1.27345e-06
5.83497e-08
-0.00113244
-8.56642e-07
-8.57961e-07
-0.00114291
4.43006e-07
4.43332e-07
0.00114374
-0.00113482
-1.5167e-06
8.57047e-07
4.18927e-07
0.00113536
-5.21548e-07
1.11691e-06
1.34231e-07
7.32445e-07
-5.75095e-07
-1.25928e-06
6.77354e-08
-0.00113469
-1.51389e-06
8.57743e-07
4.24483e-07
0.00113523
-5.2149e-07
1.11434e-06
1.34285e-07
7.3234e-07
-5.75395e-07
-1.25958e-06
6.77406e-08
-0.000276279
1.54562e-06
1.50855e-06
-4.99777e-07
-5.02987e-07
0.000274227
1.56161e-06
1.52209e-06
-5.07852e-07
-5.16011e-07
0.00027407
-0.00027613
-1.15819e-06
-1.11536e-06
0.000276353
-0.000274237
7.5775e-08
8.11458e-08
4.36196e-07
0.0011326
-5.3527e-07
1.15045e-06
1.30605e-07
7.30151e-07
-5.90782e-07
-1.2788e-06
5.83394e-08
-0.00113201
8.70954e-07
4.35882e-07
0.00113266
1.14775e-06
1.33362e-07
7.29989e-07
-5.90814e-07
-1.27872e-06
5.8204e-08
-0.00113208
-1.5564e-06
-5.35579e-07
0.00113427
8.61427e-07
-0.00113374
4.39315e-07
-1.5581e-06
1.4141e-07
-5.30031e-07
-1.26863e-06
6.53811e-08
-5.79368e-07
7.36137e-07
1.15292e-06
0.00113435
8.618e-07
-0.0011338
4.28068e-07
-1.5554e-06
1.38325e-07
-5.27318e-07
-1.26847e-06
6.52635e-08
-5.79248e-07
7.35819e-07
-1.11528e-06
0.000276334
-0.00027422
7.58052e-08
7.85479e-08
4.34982e-07
0.00113358
-5.32821e-07
1.11031e-06
1.27547e-07
7.30168e-07
-5.90737e-07
-1.27871e-06
5.86008e-08
-0.001133
-1.55374e-06
8.76003e-07
4.36152e-07
0.00113255
-5.38358e-07
1.14226e-06
1.33349e-07
7.30323e-07
-5.90685e-07
-1.27854e-06
5.50998e-08
-0.00113197
0.00113527
8.62757e-07
-0.00113472
4.2744e-07
-1.51841e-06
1.3241e-07
-5.2463e-07
-1.26849e-06
6.54587e-08
-5.79361e-07
7.35903e-07
1.1474e-06
0.00113424
8.61197e-07
-0.00113368
4.28585e-07
-1.55004e-06
1.38357e-07
-5.30097e-07
-1.26829e-06
6.22962e-08
-5.7635e-07
7.36066e-07
8.6187e-07
-0.00113427
4.32493e-07
-1.51804e-06
1.3259e-07
-5.24369e-07
-1.26281e-06
6.54617e-08
7.30571e-07
-5.78953e-07
1.14449e-06
0.00113386
8.613e-07
-0.0011333
4.28694e-07
-1.54698e-06
1.35466e-07
-5.27075e-07
-1.25986e-06
5.88543e-08
-5.73305e-07
7.27797e-07
-5.10836e-07
-5.15765e-07
0.000274045
-0.000276091
-1.10998e-06
0.000276309
-0.000274209
7.61939e-08
8.11066e-08
7.76293e-07
2.55075e-07
0.00113308
1.06645e-06
1.15446e-07
7.27198e-07
-5.87931e-07
5.85816e-08
-1.27581e-06
-1.58653e-06
-0.00113209
-5.43488e-07
8.62488e-07
-0.00113414
4.26946e-07
-1.51247e-06
1.32669e-07
-5.24278e-07
-1.26317e-06
6.54116e-08
7.30418e-07
-5.79308e-07
1.10719e-06
0.00113483
8.62265e-07
-0.00113428
4.26953e-07
-1.50994e-06
1.32578e-07
-5.24425e-07
-1.26545e-06
6.56526e-08
-5.7919e-07
7.33125e-07
-0.000274182
7.58737e-08
7.85741e-08
1.55951e-06
1.51702e-06
-5.00122e-07
-5.0563e-07
0.000274283
4.14913e-07
0.00113482
-5.30133e-07
1.15983e-06
1.42935e-07
7.37864e-07
-5.75505e-07
-1.26514e-06
6.75618e-08
-1.55404e-06
8.57274e-07
4.25606e-07
0.00113489
-5.2717e-07
1.15455e-06
1.39979e-07
7.37876e-07
-5.7539e-07
-1.2649e-06
6.4318e-08
-5.00341e-07
-5.02439e-07
0.000274266
4.24933e-07
0.00113581
-5.21848e-07
1.11701e-06
1.34003e-07
7.37829e-07
-5.75414e-07
-1.26493e-06
6.77481e-08
-1.54868e-06
8.56473e-07
4.26148e-07
0.00113477
-5.27319e-07
1.14905e-06
1.39986e-07
7.37943e-07
-5.7252e-07
-1.26474e-06
6.44943e-08
8.56522e-07
4.26259e-07
0.00113439
-5.24259e-07
1.14612e-06
1.37122e-07
7.29662e-07
-5.6951e-07
6.10781e-08
-1.25632e-06
-5.00352e-07
-5.05267e-07
0.000274252
8.57556e-07
4.24511e-07
0.00113537
-5.21669e-07
1.10881e-06
1.34227e-07
7.34952e-07
-5.75292e-07
6.79582e-08
-1.26188e-06
-7.23677e-11
9.36077e-08
0.000237627
-0.000237702
-1.0589e-08
-8.46398e-09
-3.81031e-09
1.51359e-07
-2.06534e-08
0.00019805
-0.000198177
6.38944e-11
2.76878e-07
0.000237945
-9.49576e-08
-1.31474e-08
-0.000238113
1.49744e-08
3.1067e-08
0.000197841
-5.42536e-09
-0.000197881
-1.49725e-08
5.49379e-09
9.9282e-05
-9.92726e-05
9.35466e-08
-1.83518e-10
0.000237615
-0.00023769
-8.40111e-09
-1.05271e-08
-3.89025e-09
1.51349e-07
-2.0861e-08
0.000198031
-0.000198158
2.76778e-07
2.19258e-10
0.000237933
-1.34173e-08
-9.4902e-08
-0.000238101
1.54673e-08
3.09576e-08
0.000197824
-5.97688e-09
-0.000197864
4.61734e-07
4.35093e-07
0.00114019
-8.76667e-07
-0.00113934
4.56683e-07
4.84239e-07
0.00114001
-0.0011392
4.06661e-07
4.28999e-07
0.00113994
-1.04299e-06
-0.00113896
-0.00114209
4.55959e-07
4.50848e-07
0.00114269
-0.00114187
4.5016e-07
4.50802e-07
0.00114249
-0.00114167
4.50476e-07
4.5068e-07
0.00114245
-0.00114163
4.50485e-07
4.5064e-07
-9.37517e-08
-1.89062e-09
0.000261358
-0.000261287
-2.74381e-08
5.21099e-08
4.26781e-07
1.11189e-06
0.0011337
8.71691e-07
-1.26966e-06
6.08076e-08
-5.86686e-07
7.26612e-07
-1.52061e-06
1.29237e-07
-5.29904e-07
-0.00113312
4.72197e-09
-3.11308e-08
0.000254115
2.01967e-08
-0.000254149
4.04369e-08
-1.79939e-08
0.00113384
9.23932e-07
-1.38031e-06
5.74521e-07
-1.20849e-06
7.71486e-07
-0.00113308
4.25644e-09
6.75474e-08
9.93324e-05
-9.94042e-05
-1.4931e-08
7.83174e-09
9.9275e-05
-9.92679e-05
-4.63712e-10
-9.38359e-08
0.000261346
-0.000261279
5.49949e-08
-2.7947e-08
0.00113295
5.30381e-08
9.2851e-07
7.71471e-07
-1.21098e-06
-1.38334e-06
5.72004e-07
-0.00113223
-7.04047e-08
-1.51412e-07
3.37868e-07
7.61153e-08
0.000254364
-0.000254556
4.42836e-07
1.10659e-06
0.00113358
8.7229e-07
-1.27003e-06
6.07424e-08
-5.87038e-07
7.26576e-07
-1.51771e-06
1.29412e-07
-5.29768e-07
1.71608e-09
-2.76901e-07
0.00026143
5.31118e-07
-3.52835e-08
-0.00026165
1.88783e-08
0.00113368
9.2432e-07
-1.38078e-06
5.77143e-07
-1.20607e-06
7.74021e-07
4.67146e-09
-3.11511e-08
0.000254104
2.00608e-08
-0.000254141
4.31247e-08
-1.14656e-06
-1.0983e-06
0.000276177
-0.000274074
6.5507e-08
7.60302e-08
-4.58035e-09
-7.72366e-09
0.000285614
2.25563e-08
-0.000285684
6.06598e-08
-4.75797e-09
-7.86684e-09
0.000285531
2.32173e-08
-0.000285603
6.06713e-08
-2.93846e-11
7.70726e-08
-0.000236782
-5.76339e-09
-6.72698e-09
-0.000197528
-3.43323e-09
1.40493e-07
-1.75783e-08
0.000197409
-0.000237162
1.09051e-10
2.57419e-07
0.000237004
-8.82705e-08
-1.14474e-08
1.3937e-08
2.2629e-08
-3.64051e-09
-0.000197258
-9.91577e-05
4.87127e-09
6.37081e-08
9.90891e-05
-1.39968e-08
4.62841e-09
-9.9029e-05
7.70386e-08
-1.66591e-10
-0.000236771
-6.62343e-09
-5.73758e-09
-0.000197507
-4.81718e-09
1.40364e-07
-1.81465e-08
0.00019739
-0.00023715
2.57394e-07
1.76411e-10
0.000236992
-1.15441e-08
-8.82992e-08
1.40966e-08
2.2702e-08
-3.83851e-09
-0.00019724
4.48259e-07
4.48962e-07
0.00114351
4.48528e-07
4.48786e-07
0.00114331
4.48567e-07
4.48694e-07
0.00114327
-7.72374e-08
-1.56681e-09
-0.000260654
-2.2768e-08
3.60072e-08
-0.000253675
-6.78144e-08
-1.42423e-07
3.22938e-07
6.89226e-08
0.000253493
0.00113603
-0.00113532
2.45056e-09
9.10534e-07
7.81209e-07
-1.19886e-06
-1.36949e-06
5.84254e-07
4.27595e-07
1.11855e-06
8.52262e-07
-1.25567e-06
6.99553e-08
-5.71278e-07
7.34304e-07
-1.51526e-06
1.35805e-07
-5.18751e-07
-0.000261044
-2.57227e-07
1.47933e-09
0.000260816
-3.02371e-08
5.13977e-07
7.70089e-09
-2.04843e-08
1.471e-08
-0.000253281
2.84415e-08
-4.44026e-09
9.06207e-07
-1.36918e-06
5.83704e-07
-1.19912e-06
7.80648e-07
-9.91517e-05
4.89193e-09
6.34969e-08
9.90833e-05
-1.41276e-08
4.69459e-09
-9.90247e-05
-8.8895e-10
-7.73381e-08
-0.000260644
3.62244e-08
-2.26114e-08
0.00113587
-0.00113515
4.6152e-09
9.11322e-07
7.81042e-07
-1.20203e-06
-1.37264e-06
5.81128e-07
-0.000253666
-6.78733e-08
-1.4036e-07
3.20676e-07
6.89966e-08
0.000253485
4.22216e-07
1.11595e-06
8.52922e-07
-1.25605e-06
6.99625e-08
-5.71579e-07
7.34157e-07
-1.5124e-06
1.32928e-07
-5.18637e-07
-0.000261034
8.91593e-10
-2.57465e-07
0.000260807
5.14344e-07
-3.04797e-08
-3.14855e-09
9.06943e-07
-1.36959e-06
5.86303e-07
-1.19668e-06
7.83303e-07
7.5809e-09
-2.27023e-08
1.45845e-08
-0.000253273
3.11679e-08
-0.000285134
6.8073e-08
-6.35068e-08
1.79689e-07
-1.35373e-08
0.000284963
-0.000285052
6.80171e-08
-6.34773e-08
1.7493e-07
-1.39364e-08
0.000284887
-1.14771e-06
-1.11039e-06
-0.000274269
8.08979e-08
8.36149e-08
-7.69222e-09
-4.60868e-09
2.1305e-08
-0.000284735
4.89945e-08
-7.69533e-09
-4.61723e-09
2.17565e-08
-0.000284658
5.35719e-08
6.93154e-08
9.93598e-05
-9.94329e-05
7.78392e-09
9.93045e-05
-9.92973e-05
6.75366e-08
9.93484e-05
-9.94198e-05
7.49617e-09
9.92907e-05
-9.92827e-05
7.30618e-08
1.88786e-07
-1.33332e-08
0.000285991
-0.000286171
7.03092e-08
1.90878e-07
-1.29235e-08
0.000285913
-0.000286094
0.000276249
-1.15217e-06
-1.11205e-06
-0.000274129
6.80827e-08
7.61253e-08
0.000285669
-1.81105e-09
2.50983e-08
-0.000285742
5.8238e-08
0.000285592
-2.16371e-09
2.26242e-08
-0.000285663
5.79788e-08
6.05218e-09
-1.39419e-08
9.91789e-05
-9.9171e-05
6.56284e-08
4.81369e-09
9.9234e-05
6.1932e-09
-1.45618e-08
9.91672e-05
-9.91589e-05
6.56705e-08
4.50684e-09
9.92205e-05
1.55934e-06
1.51971e-06
0.000274184
-5.0276e-07
-5.10903e-07
-5.94988e-09
0.000285189
5.34775e-08
-0.000285252
2.17131e-08
-3.66491e-09
0.000285113
5.34773e-08
-0.000285179
2.203e-08
6.80887e-08
-1.60474e-08
1.85551e-07
0.000285497
6.79114e-08
-1.3217e-08
1.85206e-07
0.000285418
9.36011e-08
0.000237585
-0.00023766
-1.05817e-08
-8.21076e-09
1.53638e-07
-2.06569e-08
0.000197983
-4.05088e-09
-0.000198112
2.76825e-07
0.000237902
-9.49192e-08
-1.34158e-08
-0.000238071
2.88512e-08
0.00019778
-5.39774e-09
-0.000197818
-8.38412e-10
0.000261372
-0.000261302
-2.78725e-08
5.19419e-08
3.40361e-07
7.61242e-08
0.000254377
-0.000254569
0.00113336
4.06814e-09
9.28954e-07
7.77594e-07
-1.21634e-06
-1.3887e-06
5.80667e-07
-0.00113261
4.33042e-07
0.00113317
8.70851e-07
-1.56048e-06
1.35231e-07
-5.3265e-07
-1.27546e-06
6.0677e-08
-5.8696e-07
7.32122e-07
8.7553e-10
0.000261452
-3.41134e-08
5.31037e-07
-0.000261673
0.000254115
2.0261e-08
-0.000254146
4.05222e-08
-3.15631e-09
0.00113412
9.18741e-07
-1.38619e-06
5.83003e-07
-1.21421e-06
7.79972e-07
0.000261343
-0.000261275
-2.64926e-08
5.19284e-08
3.40252e-07
7.60863e-08
0.000254268
-0.000254458
-7.28886e-08
0.00113331
9.23421e-07
7.7739e-07
-1.21632e-06
-1.38846e-06
5.80636e-07
-0.00113255
4.3334e-07
0.00113324
1.14948e-06
8.71617e-07
-1.27538e-06
6.06633e-08
7.31915e-07
-5.87002e-07
-1.55795e-06
1.35005e-07
-5.35573e-07
0.000261426
-3.5684e-08
5.30991e-07
-0.000261643
0.000254006
4.54898e-09
2.02326e-08
-0.000254042
4.04333e-08
0.00113406
9.18935e-07
-1.38592e-06
5.8297e-07
-1.21419e-06
7.7971e-07
8.37265e-11
2.66959e-07
-9.14139e-08
-1.2222e-08
0.000237464
2.65322e-08
-0.000197565
-3.93675e-09
1.45676e-07
-2.15053e-08
0.000197721
-1.11292e-10
8.50795e-08
-0.000237231
-7.92118e-09
-7.48995e-09
2.66926e-07
-9.14031e-08
-1.24916e-08
0.000237422
2.68337e-08
1.41471e-08
0.000197457
-0.000197494
-4.04399e-09
1.48018e-07
-4.71799e-09
-1.91098e-08
0.000197656
8.50952e-08
0.00023712
-0.000237189
-7.9854e-09
-7.53084e-09
9.10903e-10
-3.19826e-08
5.22738e-07
0.000261147
4.25258e-07
8.66348e-07
1.15381e-06
-5.32789e-07
1.36775e-07
7.3406e-07
-5.83141e-07
6.3025e-08
-1.27214e-06
0.000253677
3.41714e-08
-0.000253708
1.75232e-08
-0.00113485
-3.18329e-09
0.00113559
9.1545e-07
-1.38086e-06
5.84844e-07
-1.20695e-06
7.84686e-07
7.01285e-08
3.31765e-07
0.000253927
4.01279e-09
9.19977e-07
7.82267e-07
-1.20927e-06
-1.38362e-06
5.82493e-07
-8.19514e-10
0.000261058
-0.00026099
-2.57404e-08
4.38932e-08
-3.37319e-08
5.2271e-07
0.000261122
4.30961e-07
-1.55674e-06
8.66673e-07
7.33885e-07
-5.83079e-07
-1.27201e-06
6.30149e-08
1.15122e-06
-5.30078e-07
1.33712e-07
3.5673e-09
0.000253568
3.44228e-08
-0.000253597
1.74015e-08
-0.0011348
0.00113553
9.15586e-07
-1.38054e-06
5.84805e-07
-1.20691e-06
7.84476e-07
-7.03842e-08
7.24724e-08
3.31688e-07
0.00025382
9.20103e-07
7.82114e-07
-1.20923e-06
-1.38329e-06
5.8247e-07
0.000261029
-0.000260964
-2.41091e-08
4.38883e-08
0.000276233
-0.000274115
7.07214e-08
7.34006e-08
0.00028553
2.3102e-08
-0.000285604
6.0764e-08
-7.86341e-09
0.000285682
2.28434e-08
-0.000285751
5.84341e-08
9.9298e-05
-1.48909e-08
-9.9291e-05
6.65309e-09
-9.91502e-05
6.80105e-08
9.92093e-05
1.51943e-06
0.00027417
-5.05766e-07
-5.07834e-07
0.000285056
5.37194e-08
-0.000285122
2.23756e-08
-3.94536e-09
-6.29442e-09
0.0002852
5.36129e-08
-0.000285266
2.22256e-08
-1.32735e-08
1.85373e-07
0.000285356
-6.54159e-08
7.03374e-08
-1.33705e-08
1.85269e-07
0.000285505
-1.45633e-08
9.91771e-05
-9.91665e-05
4.5661e-09
9.9228e-05
-1.68688e-09
0.000261366
-0.000261295
-2.73979e-08
5.19683e-08
3.37682e-07
7.61577e-08
0.000254337
-0.000254529
0.00113321
3.02145e-09
9.33941e-07
7.77304e-07
-1.21348e-06
-1.3885e-06
5.7782e-07
-0.00113247
4.32088e-07
0.00113416
8.7227e-07
-1.52086e-06
1.29177e-07
-5.30086e-07
-1.27537e-06
6.09761e-08
-5.8689e-07
7.32107e-07
1.83518e-09
0.000261446
-3.52696e-08
5.30948e-07
-0.000261667
0.000254077
1.99462e-08
-0.000254111
4.29429e-08
-4.24429e-09
0.00113396
9.23838e-07
-1.38596e-06
5.80136e-07
-1.21135e-06
7.79678e-07
9.35105e-08
0.000237574
-0.000237649
-1.05179e-08
-8.63873e-09
1.51334e-07
-2.0599e-08
0.000197972
-0.000198099
2.76719e-07
0.000237892
-9.48592e-08
-1.31425e-08
-0.00023806
3.12231e-08
0.000197765
-5.61075e-09
-0.000197806
0.000261335
-0.000261268
5.19414e-08
-2.70266e-08
0.00113317
9.28194e-07
7.775e-07
-1.21346e-06
-1.38833e-06
5.77883e-07
-0.00113241
-7.31556e-08
3.35142e-07
7.61729e-08
0.000254256
-0.000254443
4.3376e-07
0.00113312
1.14394e-06
8.8197e-07
-1.27517e-06
5.7606e-08
7.32228e-07
-5.84046e-07
-1.55259e-06
1.35026e-07
-5.35613e-07
0.000261419
5.30869e-07
-3.54207e-08
-0.000261636
0.00113391
9.29561e-07
-1.38569e-06
5.80217e-07
-1.21131e-06
7.80073e-07
0.000253991
4.77032e-09
1.98209e-08
-0.000254031
4.58432e-08
2.66911e-07
1.54028e-10
-1.24097e-08
-9.13946e-08
0.000237452
2.67007e-08
-0.000197544
-4.63924e-09
1.45726e-07
-1.93789e-08
0.000197702
8.50681e-08
-1.61224e-10
-0.00023722
-7.48717e-09
-7.96143e-09
1.80079e-09
-3.30455e-08
5.22684e-07
0.000261142
4.29626e-07
8.67499e-07
1.11372e-06
-5.27452e-07
1.30757e-07
7.3397e-07
-5.83087e-07
6.32522e-08
-1.27198e-06
0.000253639
3.6996e-08
-0.00025367
1.71856e-08
-0.00113469
-3.99091e-09
0.00113543
9.15351e-07
-1.38069e-06
5.84729e-07
-1.20685e-06
7.84316e-07
7.25353e-08
3.29124e-07
0.000253889
3.06691e-09
9.2509e-07
7.81919e-07
-1.20919e-06
-1.38343e-06
5.82407e-07
-1.70551e-09
0.000261052
-0.000260982
-2.47027e-08
4.116e-08
2.66846e-07
-9.13578e-08
-1.22319e-08
0.000237411
2.68674e-08
1.44846e-08
0.000197449
-0.000197485
-4.72597e-09
1.45665e-07
-4.60679e-09
-1.92826e-08
0.000197643
8.50471e-08
0.000237109
-0.000237179
-7.96214e-09
-7.66755e-09
5.2266e-07
-3.32971e-08
0.000261115
4.25767e-07
-1.55137e-06
8.66075e-07
7.34099e-07
-5.80198e-07
-1.27171e-06
5.99315e-08
1.14566e-06
-5.32921e-07
1.36656e-07
-0.00113464
0.00113537
9.15355e-07
-1.38045e-06
5.84804e-07
-1.20684e-06
7.84656e-07
6.38298e-09
0.000253554
3.97902e-08
-0.00025359
1.68978e-08
9.25157e-07
7.82328e-07
-1.20916e-06
-1.38313e-06
5.82473e-07
-7.04622e-08
7.24594e-08
3.26476e-07
0.000253809
0.000261021
-0.000260955
4.11152e-08
-2.43185e-08
-1.35518e-10
0.000237609
-0.000237686
-8.58481e-09
-8.49734e-09
0.000197828
-5.43121e-09
-0.000197868
-9.36321e-08
0.000261327
-0.00026126
5.19775e-08
-2.74358e-08
4.49782e-07
0.00113274
8.76474e-07
-1.54945e-06
1.35162e-07
-5.32692e-07
-1.26953e-06
5.75104e-08
-5.8657e-07
7.2395e-07
-0.0011322
0.00113376
9.23676e-07
-1.38025e-06
5.77411e-07
-1.20849e-06
7.74324e-07
-0.00113301
-3.1152e-08
0.000254031
2.01129e-08
-0.000254071
4.58912e-08
0.00023757
-0.000237644
-1.05948e-08
-8.92631e-09
0.000197768
1.481e-08
-5.35931e-09
-0.000197809
-2.66757e-07
1.27388e-09
-3.26007e-08
5.22592e-07
0.000261134
4.24153e-07
8.66788e-07
1.11359e-06
-5.27195e-07
1.30886e-07
7.28556e-07
-5.82751e-07
-1.26637e-06
6.31822e-08
-2.4495e-08
3.43243e-08
-0.000253708
1.73158e-08
-0.00113457
-5.70776e-09
9.14976e-07
-1.37501e-06
5.7914e-07
7.76136e-07
-1.204e-06
-1.45452e-07
7.24057e-08
3.31326e-07
0.000253927
-1.46029e-09
9.19438e-07
7.76525e-07
-1.20357e-06
-1.37501e-06
5.79615e-07
-8.529e-08
-1.63024e-09
-0.000260977
-2.50334e-08
4.40622e-08
-1.08192e-10
-1.2332e-08
-9.34722e-08
0.000237448
0.000197513
-0.000197548
-4.55568e-09
-1.90686e-08
0.000197706
-5.08235e-11
0.000237144
-0.000237216
-7.85037e-09
-5.9405e-09
-2.6682e-07
5.22562e-07
-3.36611e-08
0.000261106
4.36505e-07
-1.55102e-06
8.66279e-07
7.25829e-07
-5.79883e-07
-1.26342e-06
5.64323e-08
1.14554e-06
-5.32629e-07
1.36823e-07
-0.0011345
0.00113523
9.15075e-07
-1.37486e-06
5.82018e-07
-1.20397e-06
7.78986e-07
-2.67815e-08
6.19436e-09
0.000253594
3.44722e-08
-0.000253625
1.737e-08
9.19392e-07
7.766e-07
-1.20631e-06
-1.37759e-06
5.79704e-07
-1.45547e-07
-7.06147e-08
7.2597e-08
3.28834e-07
0.000253846
-8.51841e-08
0.00026101
-0.000260949
4.67832e-08
-2.45182e-08
-9.13562e-08
-1.26456e-08
0.000237407
1.43772e-08
0.000197451
-0.000197488
-4.49431e-09
-4.66007e-09
-1.90326e-08
0.000197646
0.000237105
-0.000237175
-8.03209e-09
-7.48953e-09
1.86283e-07
-1.36868e-08
0.000285855
-0.000286033
-6.77377e-08
1.88781e-07
-1.35252e-08
0.000285996
-0.000286174
0.000276208
-0.000274104
7.10699e-08
7.59759e-08
0.00028553
2.31035e-08
-0.000285604
6.30316e-08
-7.82637e-09
0.000285671
2.31077e-08
-0.000285742
6.08216e-08
4.09255e-09
9.93555e-05
-9.94273e-05
9.92981e-05
-1.49321e-08
-9.9291e-05
6.18333e-09
-9.91434e-05
6.54737e-08
9.92049e-05
1.51379e-06
0.000274159
-5.05684e-07
-5.10631e-07
0.000285051
5.82061e-08
-0.000285119
2.2442e-08
-6.09792e-09
-6.2111e-09
0.000285191
5.59115e-08
-0.00028526
2.49983e-08
-1.38104e-08
1.80521e-07
0.000285358
-6.55848e-08
7.02929e-08
-1.63462e-08
1.83006e-07
0.000285499
-1.44143e-08
9.91747e-05
-9.91664e-05
4.54321e-09
9.9228e-05
-9.12031e-08
0.000261313
-0.000261249
5.21526e-08
-2.56003e-08
0.00113287
9.57524e-07
7.74237e-07
-1.21085e-06
5.71986e-07
-1.38571e-06
-0.00113227
-1.51367e-07
3.40213e-07
7.62449e-08
0.000254253
-7.30094e-08
-0.000254446
3.93737e-07
0.00113371
8.66682e-07
-1.51523e-06
1.23158e-07
-5.3268e-07
-1.2724e-06
6.09973e-08
-5.84144e-07
7.29292e-07
-2.79307e-07
0.000261399
5.33696e-07
-3.54556e-08
-0.000261617
0.00113359
9.2441e-07
-1.38307e-06
5.77132e-07
-1.20594e-06
7.76609e-07
-3.10715e-08
0.000253994
2.00386e-08
-0.00025403
4.29135e-08
-4.04563e-11
0.000237604
-0.000237679
-8.33021e-09
-1.06876e-08
-2.0682e-08
0.000198031
-0.000198158
2.10576e-10
0.000237922
-1.34143e-08
-9.49202e-08
-0.000238091
0.000197824
-5.46839e-09
-0.000197864
0.000237564
-0.000237636
-8.2539e-09
-1.06187e-08
-2.0529e-08
0.000197967
-0.000198094
-4.2148e-09
0.000237879
-1.35021e-08
-9.48712e-08
-0.00023805
0.00019776
1.49528e-08
-5.42697e-09
-0.0001978
1.20442e-09
-2.66999e-07
5.20217e-07
-3.28744e-08
0.000261124
4.34997e-07
8.67425e-07
1.10826e-06
-5.27043e-07
1.31014e-07
7.28502e-07
-5.8307e-07
-1.26657e-06
6.31602e-08
-0.00113442
-8.48422e-10
9.1562e-07
-1.37543e-06
5.81721e-07
7.78772e-07
-1.20162e-06
-2.6742e-08
3.70282e-08
-0.0002537
1.71672e-08
1.14483e-08
9.20223e-07
7.76473e-07
-1.20667e-06
-1.37805e-06
5.76597e-07
-1.45718e-07
7.24748e-08
3.29088e-07
0.000253919
-8.23e-10
-8.53698e-08
-0.000260967
4.42781e-08
-2.51529e-08
-2.69417e-07
5.22689e-07
-3.38007e-08
0.000261095
4.2391e-07
-1.51128e-06
8.67275e-07
7.31158e-07
-5.82943e-07
-1.26891e-06
6.33581e-08
1.10551e-06
-5.2719e-07
1.30916e-07
-0.00113434
0.00113507
9.1531e-07
-1.37765e-06
5.81767e-07
-1.20141e-06
7.81298e-07
-2.67176e-08
6.31427e-09
0.000253556
3.95386e-08
-0.000253592
1.71134e-08
9.19806e-07
7.78895e-07
-1.2065e-06
-1.3804e-06
5.76608e-07
-1.4562e-07
-7.04061e-08
7.25872e-08
3.28979e-07
0.000253808
-8.27284e-08
0.000261002
-0.000260938
4.13347e-08
-2.34203e-08
1.64773e-10
-1.25091e-08
-9.13899e-08
0.000237441
0.000197507
-0.000197544
-4.49679e-09
-1.92811e-08
0.000197702
-1.69739e-10
0.000237139
-0.000237209
-7.38633e-09
-8.1528e-09
-1.25707e-08
-9.13543e-08
0.000237399
1.44433e-08
0.000197443
-0.00019748
-4.49233e-09
-4.59484e-09
-1.91408e-08
0.000197638
0.000237099
-0.000237166
-7.31565e-09
-8.08082e-09
9.92768e-05
-9.92697e-05
9.92724e-05
-9.92654e-05
0.000274129
-5.05216e-07
-5.08327e-07
-6.07886e-09
5.34901e-08
-0.000285197
2.18863e-08
-6.15306e-09
5.81376e-08
-0.00028512
2.24773e-08
-6.54821e-08
-1.34362e-08
1.82926e-07
0.000285439
-6.55102e-08
-1.37252e-08
1.82946e-07
0.000285357
9.91534e-05
-9.91451e-05
9.92067e-05
9.91491e-05
-9.91408e-05
9.92023e-05
6.38208e-08
9.91117e-05
4.40191e-09
-9.90525e-05
6.35692e-08
9.90988e-05
4.56134e-09
-9.90402e-05
6.81922e-08
1.79945e-07
-1.36966e-08
0.000285018
6.79052e-08
1.79724e-07
-1.3534e-08
0.000284942
-1.15871e-06
-1.11861e-06
-0.000274327
8.0751e-08
8.61702e-08
-7.39638e-09
2.06386e-08
-0.00028479
5.12573e-08
-7.60262e-09
2.10186e-08
-0.000284714
4.89681e-08
7.70662e-08
-0.00023674
-5.80334e-09
-6.59909e-09
1.40407e-07
-1.81164e-08
0.000197339
2.57415e-07
0.000236962
-8.82857e-08
-1.1614e-08
2.27137e-08
-3.66146e-09
-0.000197192
-7.7489e-10
-0.000260668
-2.2742e-08
3.58482e-08
3.23296e-07
6.92721e-08
0.000253493
0.0011363
4.05423e-09
9.11094e-07
7.86911e-07
-1.20736e-06
-1.37812e-06
5.89886e-07
4.29277e-07
8.51955e-07
-1.55533e-06
1.41533e-07
-5.24502e-07
-1.26144e-06
6.98159e-08
-5.71749e-07
7.39837e-07
9.4876e-10
0.00026083
-2.9941e-08
5.14143e-07
1.47247e-08
-0.000253281
3.11742e-08
-3.17319e-09
9.06983e-07
-1.37503e-06
5.92207e-07
-1.20483e-06
7.89203e-07
-0.000260642
-2.15393e-08
3.58446e-08
-6.5172e-08
3.23251e-07
6.88408e-08
0.000253382
0.00113625
9.11197e-07
7.86834e-07
-1.20732e-06
-1.37776e-06
5.89858e-07
4.23223e-07
1.1562e-06
8.52477e-07
-1.26128e-06
6.65361e-08
7.39664e-07
-5.68835e-07
-1.55262e-06
1.41576e-07
-5.24396e-07
0.000260804
-3.13061e-08
5.14119e-07
4.87843e-09
1.45978e-08
-0.000253173
3.13053e-08
9.0702e-07
-1.37475e-06
5.92171e-07
-1.2048e-06
7.89078e-07
1.79681e-07
-1.29712e-08
0.000284888
-6.57731e-08
1.79636e-07
-1.34566e-08
0.000285032
-0.000274308
8.09173e-08
8.35725e-08
2.36735e-08
-0.000284658
4.8983e-08
-2.45051e-09
2.15361e-08
-0.000284804
4.90725e-08
4.94933e-09
9.91064e-05
-1.41863e-08
-9.90477e-05
-1.72764e-09
-0.000260659
-2.21674e-08
3.31188e-08
3.20654e-07
6.90635e-08
0.000253458
0.00113615
3.27939e-09
9.11026e-07
7.86624e-07
-1.20449e-06
-1.3779e-06
5.8697e-07
4.22585e-07
8.53201e-07
-1.51558e-06
1.35667e-07
-5.19045e-07
-1.26139e-06
6.99569e-08
-5.71634e-07
7.39629e-07
1.79957e-09
0.000260822
-3.09104e-08
5.16856e-07
1.45513e-08
-0.000253246
3.11167e-08
-3.88384e-09
9.0675e-07
-1.37483e-06
5.89225e-07
-1.202e-06
7.88928e-07
7.70232e-08
-0.00023673
-5.7372e-09
-6.80988e-09
1.40371e-07
-1.81866e-08
0.000197331
2.57343e-07
0.000236952
-8.82695e-08
-1.13215e-08
2.28717e-08
-4.00564e-09
-0.000197181
-0.000260632
3.30811e-08
-2.17961e-08
0.00113609
9.10999e-07
7.86942e-07
-1.20447e-06
-1.37767e-06
5.87034e-07
-6.79703e-08
3.18091e-07
6.90068e-08
0.000253375
4.23592e-07
1.15067e-06
8.51594e-07
-1.26117e-06
6.67824e-08
7.39848e-07
-5.68695e-07
-1.54721e-06
1.41638e-07
-5.24424e-07
0.000260795
5.16835e-07
-3.11275e-08
9.06732e-07
-1.37463e-06
5.89292e-07
-1.20198e-06
7.89155e-07
7.81594e-09
1.42279e-08
-0.000253164
3.39964e-08
-2.01229e-11
-0.000236767
-6.99327e-09
-3.70812e-09
-1.79822e-08
0.000197394
-3.26162e-11
0.000236989
-1.12121e-08
-9.03541e-08
-3.81357e-09
-0.000197244
-7.71632e-08
-0.000260627
3.88025e-08
-2.17481e-08
0.00113595
9.10643e-07
7.81319e-07
-1.20156e-06
5.84294e-07
-1.37205e-06
-1.40291e-07
3.23053e-07
6.91505e-08
0.00025341
4.23709e-07
8.51641e-07
-1.54419e-06
1.38762e-07
-5.21395e-07
-1.25262e-06
6.33906e-08
-5.6569e-07
7.31557e-07
-2.57272e-07
0.000260789
5.11244e-07
-3.1471e-08
9.06328e-07
-1.369e-06
5.86545e-07
-1.19909e-06
7.83539e-07
-2.27917e-08
1.46736e-08
-0.000253198
2.85986e-08
-0.000236726
-5.82275e-09
-6.59428e-09
-4.94185e-09
-1.80315e-08
0.000197334
0.000236948
-8.82382e-08
-1.17294e-08
1.40557e-08
-3.85046e-09
-0.000197184
1.74953e-07
-1.39468e-08
0.000284885
-6.35156e-08
1.77382e-07
-1.65982e-08
0.000285026
-0.000274294
8.11998e-08
8.62458e-08
2.1811e-08
-0.000284657
5.37091e-08
-4.53609e-09
2.42645e-08
-0.000284798
5.13314e-08
4.89633e-09
9.91063e-05
-1.39909e-08
-9.90477e-05
-7.46865e-08
-0.000260615
3.32494e-08
-2.11632e-08
0.0011358
9.11036e-07
7.83582e-07
-1.20184e-06
5.81168e-07
-1.37489e-06
-1.40313e-07
3.18024e-07
6.91277e-08
0.000253377
4.21993e-07
8.52757e-07
-1.50713e-06
1.35846e-07
-5.18826e-07
-1.25821e-06
7.02089e-08
-5.71514e-07
7.3684e-07
-2.59863e-07
0.000260777
5.16839e-07
-3.19405e-08
9.06695e-07
-1.37183e-06
5.86329e-07
-1.19654e-06
7.85877e-07
-2.26814e-08
1.45159e-08
-0.000253166
3.36893e-08
-1.99732e-10
-0.000236759
-6.51497e-09
-5.95242e-09
-1.80932e-08
0.00019739
6.74535e-11
0.000236981
-1.16245e-08
-8.8252e-08
-3.7181e-09
-0.00019724
-0.000236717
-6.67333e-09
-5.87367e-09
-4.94025e-09
-1.79905e-08
0.000197326
0.000236939
-1.17046e-08
-8.82212e-08
1.40511e-08
-3.74417e-09
-0.000197176
9.90849e-05
-9.90262e-05
9.90807e-05
-9.90219e-05
-3.63851e-10
8.64178e-08
0.000145584
-0.000145666
-3.79562e-09
-9.31288e-08
-1.28653e-08
-0.000237868
-1.27675e-10
2.71864e-07
-0.000173727
-2.90272e-10
-3.51844e-11
0.000173717
-0.000230529
-7.26632e-09
-8.71547e-09
0.000230467
6.9881e-08
-0.00017382
-1.15697e-10
-0.000230687
-1.72947e-08
2.48861e-07
-2.31199e-10
0.000145577
-8.03659e-05
-1.39276e-08
-5.33046e-11
8.03799e-05
-6.1551e-08
0.000270221
1.77276e-08
1.98981e-07
-0.000270397
-6.4674e-09
0.000198005
1.735e-08
3.35498e-08
3.53416e-09
-8.0431e-05
9.00206e-09
0.000270149
4.25362e-08
-0.000145675
-1.27619e-10
8.60294e-09
-1.20458e-08
-8.90541e-09
7.34533e-11
9.80235e-08
6.74401e-10
0.000173833
-5.30487e-11
-0.000173928
-8.80291e-08
0.000230752
2.53405e-07
-0.000230913
-0.000145758
-3.95381e-11
7.38695e-08
6.04101e-08
8.03157e-05
-0.000269977
1.47768e-08
0.000269909
3.95598e-08
-1.98184e-08
-4.51551e-09
1.48579e-07
1.95386e-07
8.03302e-05
9.93461e-05
-1.53943e-08
6.40326e-09
-9.93371e-05
4.45509e-09
6.90313e-08
8.64622e-08
-3.51902e-10
0.000145583
-0.000145665
-3.79495e-09
-1.31275e-08
-9.30902e-08
-0.000237855
3.81375e-11
2.71791e-07
-0.000230519
-7.30645e-09
-8.51723e-09
0.000230457
6.98683e-08
-0.000173725
-1.14204e-10
-8.51788e-11
0.000173714
-0.000230678
-1.72571e-08
2.48858e-07
-0.000173818
-6.37004e-11
-7.86544e-11
0.000145576
-8.03673e-05
-1.4081e-08
-1.25753e-10
8.03815e-05
-6.16711e-08
0.000270216
1.77692e-08
1.98983e-07
-0.000270392
-6.07338e-09
0.000197989
1.54697e-08
3.32971e-08
3.53787e-09
-8.04325e-05
9.13767e-09
0.000270144
4.23971e-08
-0.000145674
8.53848e-09
-1.60608e-10
-8.73385e-09
-1.19831e-08
3.09252e-11
9.79548e-08
-8.80114e-08
0.000230742
2.53379e-07
-0.000230903
6.76669e-10
0.00017383
-2.76672e-11
-0.000173926
-0.000145758
7.38411e-08
-3.56306e-11
6.06071e-08
8.03171e-05
-0.000269972
1.47232e-08
0.000269903
3.94502e-08
-2.01544e-08
-3.72133e-09
1.4839e-07
1.95479e-07
8.03317e-05
9.93389e-05
-1.51783e-08
8.72303e-09
4.43792e-09
6.64872e-08
-4.08922e-08
-4.10112e-08
0.000218973
-0.000219099
1.02469e-07
1.04667e-07
-8.19485e-05
8.37446e-09
-1.71492e-08
8.19573e-05
-8.19366e-05
8.42126e-09
-1.72202e-08
8.19454e-05
-8.20137e-05
2.43045e-08
-8.20018e-05
2.41968e-08
3.86135e-08
3.85187e-08
0.000218913
7.04357e-08
-3.84786e-08
-4.0377e-08
0.00022902
5.73781e-08
-0.000229069
6.32129e-08
2.33923e-08
0.000285865
-8.61448e-09
-0.000285939
-3.66056e-09
0.000260211
7.7786e-08
-0.000260235
7.93308e-08
1.72934e-08
0.000187189
-0.000187221
7.27424e-08
-3.84975e-08
-3.82189e-08
0.000228944
5.75495e-08
-0.000228997
6.31918e-08
2.35636e-08
0.00028578
-8.76622e-09
-3.88364e-09
-0.000285854
0.000260089
7.32572e-08
8.40205e-08
-0.00026011
1.73653e-08
0.000187134
-0.000187167
-9.06709e-09
-9.11378e-09
-0.000219159
-8.20055e-05
-8.19935e-05
1.46426e-07
-1.28108e-07
0.000228869
2.35158e-07
-0.000187072
3.47441e-08
0.000187042
1.88163e-07
-1.33526e-08
-6.65007e-08
7.18781e-08
-0.000260028
-7.00532e-08
0.000260008
7.2336e-08
7.87014e-08
3.28108e-07
1.89728e-07
0.000228815
5.72385e-08
1.46277e-07
-1.26223e-07
0.000228797
2.31008e-07
-0.000187019
3.67944e-08
0.000186988
1.85834e-07
-1.36386e-08
-6.65631e-08
7.17014e-08
-0.000259908
-7.2219e-08
0.000259891
6.99993e-08
8.08823e-08
3.23008e-07
1.89549e-07
0.000228745
5.51429e-08
9.80622e-10
8.06786e-08
0.000145246
-0.000145323
-4.85695e-09
-8.68704e-08
-1.1281e-08
-0.000236937
-4.88975e-12
2.52805e-07
-0.000173341
-1.25904e-09
8.45209e-12
-0.000229693
-2.7904e-09
-7.01332e-09
5.52202e-08
-0.000173426
1.92917e-11
-0.000229839
-1.5826e-08
2.3168e-07
-7.95175e-10
-8.01729e-05
-1.68027e-08
7.90279e-10
8.01889e-05
-5.74387e-08
0.000269284
1.63518e-08
-0.000269446
1.85242e-07
-3.76868e-09
0.000197374
1.40078e-08
2.47173e-08
4.68169e-09
-8.0235e-05
7.59869e-09
0.000269225
3.11746e-08
-0.000145327
1.13428e-09
3.86725e-09
-6.84289e-09
-7.24392e-09
1.71937e-10
8.10663e-08
-6.59038e-10
0.000173432
-0.00017352
-4.18067e-11
-8.19894e-08
0.000229894
-0.000230043
2.35898e-07
-0.000145405
5.64371e-11
5.87819e-08
5.66537e-08
8.01274e-05
-0.000269066
1.74281e-08
2.85131e-08
-1.7455e-08
-5.1383e-09
1.37806e-07
1.81991e-07
9.90971e-05
-1.39455e-08
5.91798e-09
5.24966e-09
6.28216e-08
8.06976e-08
8.48457e-10
0.000145245
-0.000145322
-4.72353e-09
-1.13688e-08
-8.68734e-08
-0.000236925
1.2153e-11
2.528e-07
-0.000229682
-2.83368e-09
-6.87526e-09
5.52586e-08
-0.000173338
-1.15445e-09
-4.88733e-11
-0.000229829
-1.56322e-08