/*--------------------------------*- C++ -*----------------------------------*\
| =========                 |                                                 |
| \\      /  F ield         | OpenFOAM: The Open Source CFD Toolbox           |
|  \\    /   O peration     | Version:  2312                                  |
|   \\  /    A nd           | Website:  www.openfoam.com                      |
|    \\/     M anipulation  |                                                 |
\*---------------------------------------------------------------------------*/
FoamFile
{
    version     2.0;
    format      ascii;
    arch        "LSB;label=32;scalar=64";
    class       volScalarField;
    location    "350";
    object      epsilon;
}
// * * * * * * * * * * * * * * * * * * * * * * * * * * * * * * * * * * * * * //

dimensions      [0 2 -3 0 0 0 0];

internalField   nonuniform List<scalar> 
43008
(
1.40293e-07
2.15361e-07
1.36482e-07
2.21713e-07
2.21737e-07
3.34262e-07
3.14652e-07
3.29241e-07
2.1539e-07
2.15414e-07
2.19977e-07
2.20007e-07
3.28949e-07
2.15361e-07
2.1542e-07
2.19946e-07
2.20017e-07
2.19926e-07
2.19992e-07
3.14744e-07
3.29035e-07
2.15395e-07
2.19945e-07
2.19979e-07
3.30002e-07
3.34477e-07
2.21768e-07
2.21795e-07
3.34753e-07
2.21735e-07
2.21808e-07
2.21777e-07
3.34803e-07
2.21767e-07
3.46818e-06
8.88393e-06
3.42427e-06
8.88958e-06
1.85248e-05
3.46791e-06
8.88516e-06
3.42504e-06
8.89081e-06
1.40297e-07
1.40302e-07
1.40306e-07
1.37359e-07
1.37363e-07
1.37368e-07
1.37372e-07
9.88677e-07
2.16739e-07
2.6626e-06
1.59072e-07
1.8535e-05
1.85256e-05
9.88794e-07
1.59536e-07
2.63217e-06
2.16757e-07
9.60879e-07
1.5908e-07
2.66293e-06
3.19869e-07
5.06097e-06
5.06282e-06
3.58503e-06
8.89737e-06
3.54867e-06
8.90255e-06
1.85008e-05
1.84921e-05
3.58592e-06
8.89869e-06
3.54946e-06
8.90385e-06
1.36486e-07
1.36492e-07
1.36495e-07
1.07299e-06
2.71957e-06
1.58261e-07
2.23644e-07
1.04453e-06
2.74788e-06
1.5812e-07
1.85014e-05
1.84927e-05
1.07245e-06
1.58276e-07
2.71985e-06
2.23665e-07
1.04461e-06
1.58131e-07
2.74501e-06
5.09362e-06
5.09532e-06
3.39971e-07
5.10679e-06
5.1108e-06
1.85319e-05
1.8522e-05
1.85348e-05
1.85252e-05
5.04346e-06
5.04428e-06
3.19622e-07
5.05953e-06
5.06302e-06
1.85052e-05
1.85144e-05
1.85084e-05
1.85175e-05
3.24173e-07
5.08447e-06
5.08821e-06
5.07029e-06
5.07108e-06
3.46837e-06
8.88414e-06
3.42449e-06
8.88974e-06
9.87887e-07
2.63212e-06
1.59523e-07
2.16781e-07
9.61486e-07
2.66266e-06
1.59069e-07
9.88664e-07
2.63399e-06
1.59526e-07
2.16811e-07
9.61084e-07
2.66191e-06
1.5907e-07
3.48955e-06
8.89616e-06
8.89082e-06
3.52979e-06
3.48934e-06
8.89651e-06
8.89106e-06
3.52967e-06
1.00287e-06
2.18314e-07
2.70613e-06
1.58435e-07
2.67688e-06
1.58731e-07
1.03e-06
1.00239e-06
2.18342e-07
2.70515e-06
1.58436e-07
2.67878e-06
1.58734e-07
1.03076e-06
3.19262e-07
5.06265e-06
5.05959e-06
1.85232e-05
1.85082e-05
1.85172e-05
3.24303e-07
5.0879e-06
5.08461e-06
5.07094e-06
5.07056e-06
1.85062e-05
1.85154e-05
9.88605e-07
2.63266e-06
1.5953e-07
2.16754e-07
9.61064e-07
2.66328e-06
1.59074e-07
3.46828e-06
8.88424e-06
3.42432e-06
8.89069e-06
9.88758e-07
1.59542e-07
2.63278e-06
2.16823e-07
9.6109e-07
1.59084e-07
2.66348e-06
3.48981e-06
8.89747e-06
8.89206e-06
3.52913e-06
1.00249e-06
2.18283e-07
2.7068e-06
1.58439e-07
2.67747e-06
1.58738e-07
1.03037e-06
3.48941e-06
8.89741e-06
8.89113e-06
3.52936e-06
1.00239e-06
2.18353e-07
1.5845e-07
2.70694e-06
1.58753e-07
2.67751e-06
1.03058e-06
3.46777e-06
8.89044e-06
9.88047e-07
2.16796e-07
1.5908e-07
2.66274e-06
3.46771e-06
8.89024e-06
1.0024e-06
2.18266e-07
2.70635e-06
1.58433e-07
2.67703e-06
1.58732e-07
1.03038e-06
3.4897e-06
8.89705e-06
8.89089e-06
3.5291e-06
1.00275e-06
2.18327e-07
1.58443e-07
2.70448e-06
1.58744e-07
2.67748e-06
1.0301e-06
3.48958e-06
8.89691e-06
8.89072e-06
3.5292e-06
5.04398e-06
5.04369e-06
3.19384e-07
5.06272e-06
5.0598e-06
1.85328e-05
1.85233e-05
1.85089e-05
1.85179e-05
3.24407e-07
5.08801e-06
5.08483e-06
5.07079e-06
5.07059e-06
1.85066e-05
1.85156e-05
9.88549e-07
1.59542e-07
2.63407e-06
2.16787e-07
9.60941e-07
1.59083e-07
2.66216e-06
3.4685e-06
8.88423e-06
3.42481e-06
8.89061e-06
3.46839e-06
8.88451e-06
3.42481e-06
8.89059e-06
1.00259e-06
2.18282e-07
1.58443e-07
2.70661e-06
1.58745e-07
2.67697e-06
1.0307e-06
1.00258e-06
2.18314e-07
1.58448e-07
2.70506e-06
1.58748e-07
2.67869e-06
1.03056e-06
3.48969e-06
8.89731e-06
8.89112e-06
3.52985e-06
3.48966e-06
8.89716e-06
8.89179e-06
3.52995e-06
1.85239e-05
1.85259e-05
3.23862e-07
5.08624e-06
5.08804e-06
5.06927e-06
5.07106e-06
1.85072e-05
1.85162e-05
1.85092e-05
1.85183e-05
1.84979e-05
1.84893e-05
1.85009e-05
1.84922e-05
5.09462e-06
5.09564e-06
3.39843e-07
5.10688e-06
5.10863e-06
3.58481e-06
8.89781e-06
3.54888e-06
8.90286e-06
1.0726e-06
2.72008e-06
1.58266e-07
2.23698e-07
1.04507e-06
2.74526e-06
1.5812e-07
1.07331e-06
2.72128e-06
1.58265e-07
2.23729e-07
1.04437e-06
2.74609e-06
1.58122e-07
5.09536e-06
5.09494e-06
3.39993e-07
5.10842e-06
5.10905e-06
1.84987e-05
1.84901e-05
1.07298e-06
2.72069e-06
1.58271e-07
2.23661e-07
1.04471e-06
2.74579e-06
1.58124e-07
3.58586e-06
8.89782e-06
3.54914e-06
8.90381e-06
1.07329e-06
1.58285e-07
2.7204e-06
2.23738e-07
1.04459e-06
1.58133e-07
2.74839e-06
3.58478e-06
8.8975e-06
3.54936e-06
8.90332e-06
1.07232e-06
1.58274e-07
2.72101e-06
2.23705e-07
1.04493e-06
1.58129e-07
2.74559e-06
3.58484e-06
8.89735e-06
3.5493e-06
8.90334e-06
5.0953e-06
5.0949e-06
3.39618e-07
5.11072e-06
5.1092e-06
1.84991e-05
1.84904e-05
1.07231e-06
1.5828e-07
2.72112e-06
2.23696e-07
1.04475e-06
1.58133e-07
2.74854e-06
3.58498e-06
8.89773e-06
3.5492e-06
8.90369e-06
3.58514e-06
8.89843e-06
3.54908e-06
8.90357e-06
1.84997e-05
1.8491e-05
1.85017e-05
1.8493e-05
1.21038e-05
3.45795e-06
1.06416e-05
4.3392e-06
1.06398e-05
4.33162e-06
1.21067e-05
2.25123e-05
7.18479e-06
8.88615e-06
2.25105e-05
7.18687e-06
1.21036e-05
3.43526e-06
1.06383e-05
4.30636e-06
1.21009e-05
1.06397e-05
4.31461e-06
2.25011e-05
7.1925e-06
8.88741e-06
7.19156e-06
2.25029e-05
1.85334e-05
1.85257e-05
1.2104e-05
3.45814e-06
4.3393e-06
1.06419e-05
4.33149e-06
1.06401e-05
1.21069e-05
2.25121e-05
7.1857e-06
8.88736e-06
2.25103e-05
7.18548e-06
1.21038e-05
3.4352e-06
4.30656e-06
1.06386e-05
1.21011e-05
4.31474e-06
1.064e-05
2.25009e-05
7.19159e-06
8.88863e-06
7.19181e-06
2.25026e-05
1.85341e-05
1.85264e-05
9.71723e-06
2.1993e-05
2.19925e-05
2.19926e-05
2.19921e-05
9.71695e-06
3.80731e-06
5.04755e-06
1.74821e-06
8.97478e-06
3.81444e-06
5.04945e-06
1.74988e-06
8.97965e-06
9.71378e-06
2.20033e-05
2.20028e-05
3.82192e-06
8.9843e-06
5.0561e-06
1.77291e-06
1.7648e-06
8.9774e-06
3.82948e-06
3.82884e-06
8.98916e-06
5.05793e-06
1.77443e-06
1.76651e-06
8.98223e-06
3.83663e-06
1.21173e-05
3.57694e-06
1.06561e-05
4.42493e-06
1.06522e-05
4.41862e-06
1.21206e-05
2.24743e-05
7.20612e-06
8.8994e-06
2.24727e-05
7.20663e-06
1.2117e-05
3.55798e-06
1.06483e-05
4.39866e-06
1.21138e-05
1.06516e-05
4.40506e-06
2.24632e-05
7.20993e-06
8.90061e-06
7.20983e-06
2.24648e-05
1.85001e-05
1.84928e-05
1.21175e-05
3.57701e-06
4.42517e-06
1.06563e-05
4.41845e-06
1.06525e-05
1.21207e-05
2.24742e-05
7.20615e-06
8.90071e-06
2.24726e-05
7.20618e-06
1.21171e-05
3.55803e-06
4.3986e-06
1.06486e-05
1.21139e-05
4.40523e-06
1.06518e-05
2.24631e-05
7.20969e-06
8.90193e-06
7.20979e-06
2.24646e-05
1.85007e-05
1.84934e-05
9.72654e-06
2.19519e-05
2.19514e-05
2.19516e-05
2.19511e-05
9.72546e-06
3.8921e-06
1.83716e-06
9.00471e-06
5.09767e-06
3.88573e-06
1.84447e-06
9.01094e-06
3.89752e-06
1.83858e-06
9.00961e-06
5.09966e-06
3.8932e-06
1.84673e-06
9.01579e-06
9.72387e-06
2.19618e-05
2.19613e-05
9.72478e-06
2.19621e-05
2.19616e-05
3.90416e-06
9.01925e-06
5.1055e-06
1.86725e-06
1.86057e-06
9.01318e-06
3.91191e-06
3.91241e-06
9.02413e-06
5.10662e-06
1.87026e-06
1.8616e-06
9.01809e-06
3.91667e-06
1.85308e-05
1.85229e-05
1.85339e-05
1.85261e-05
9.71768e-06
2.19933e-05
2.19928e-05
2.19929e-05
2.19924e-05
9.71737e-06
3.80718e-06
1.73978e-06
8.96763e-06
5.04582e-06
3.79878e-06
8.97443e-06
1.74808e-06
3.8142e-06
1.74141e-06
8.97319e-06
5.04949e-06
3.8059e-06
8.97946e-06
1.74964e-06
9.71429e-06
2.20033e-05
2.20028e-05
9.71445e-06
2.20037e-05
2.20031e-05
3.82177e-06
8.98391e-06
5.05731e-06
1.77288e-06
8.97735e-06
3.8295e-06
1.7646e-06
3.82878e-06
8.9891e-06
5.05822e-06
1.77446e-06
8.98293e-06
3.83647e-06
1.76633e-06
1.8506e-05
1.85135e-05
1.85091e-05
1.85167e-05
9.72002e-06
2.19826e-05
2.19821e-05
9.72057e-06
2.19827e-05
2.19824e-05
3.8645e-06
1.82143e-06
5.08301e-06
9.00195e-06
8.99567e-06
1.81313e-06
3.87171e-06
3.87157e-06
1.82319e-06
5.08372e-06
9.00742e-06
9.00101e-06
1.81487e-06
3.87874e-06
3.85132e-06
8.98666e-06
1.78906e-06
5.07253e-06
3.84367e-06
8.99311e-06
1.79712e-06
3.85834e-06
8.99184e-06
1.79079e-06
5.07555e-06
3.85067e-06
8.99849e-06
1.79872e-06
9.72304e-06
2.19722e-05
2.19721e-05
2.19719e-05
2.19718e-05
9.72231e-06
1.21041e-05
3.45766e-06
1.06416e-05
4.33893e-06
1.06398e-05
4.33182e-06
1.2107e-05
2.25127e-05
7.18431e-06
8.88625e-06
2.25109e-05
7.18454e-06
1.21039e-05
3.43546e-06
1.06383e-05
4.30672e-06
1.06397e-05
1.21012e-05
4.31439e-06
2.25015e-05
7.18978e-06
8.88765e-06
7.19007e-06
2.25032e-05
1.211e-05
1.06419e-05
4.35524e-06
3.49942e-06
1.2107e-05
1.06443e-05
4.36222e-06
2.24823e-05
8.8941e-06
7.2027e-06
2.24838e-05
7.20178e-06
2.24935e-05
7.19647e-06
8.89287e-06
2.24917e-05
7.19796e-06
1.21103e-05
3.51985e-06
1.06476e-05
4.38429e-06
1.21135e-05
1.06448e-05
4.37766e-06
1.21103e-05
1.06419e-05
4.35542e-06
3.49972e-06
1.21073e-05
1.06443e-05
4.36218e-06
2.24825e-05
8.89447e-06
7.20025e-06
7.20057e-06
2.2484e-05
2.24937e-05
7.19612e-06
8.89316e-06
2.24921e-05
7.19628e-06
1.21106e-05
3.51967e-06
1.06476e-05
4.384e-06
1.06448e-05
4.37782e-06
1.21137e-05
9.71772e-06
2.19931e-05
2.19934e-05
2.19927e-05
2.1993e-05
9.71739e-06
3.81391e-06
5.04915e-06
8.97919e-06
1.74992e-06
3.8058e-06
5.04597e-06
1.74719e-06
8.97462e-06
9.71423e-06
2.20036e-05
2.20039e-05
3.82939e-06
8.98863e-06
5.05789e-06
1.77456e-06
8.98247e-06
1.76629e-06
3.83662e-06
3.82281e-06
8.98405e-06
5.05758e-06
1.77217e-06
1.76507e-06
8.97799e-06
3.82835e-06
1.85318e-05
1.85239e-05
1.85089e-05
1.85165e-05
9.72012e-06
2.19825e-05
2.19827e-05
9.72064e-06
2.19828e-05
2.19831e-05
3.87294e-06
1.82297e-06
5.08344e-06
9.00672e-06
1.81511e-06
9.00114e-06
3.87774e-06
3.86565e-06
1.82035e-06
5.08345e-06
9.00215e-06
8.99645e-06
1.81378e-06
3.87079e-06
3.8567e-06
8.99204e-06
1.79094e-06
5.07531e-06
1.79872e-06
3.85134e-06
8.99794e-06
3.84958e-06
8.98743e-06
1.78962e-06
5.07261e-06
3.84465e-06
8.99326e-06
1.79663e-06
9.72317e-06
2.19724e-05
2.19727e-05
2.19722e-05
2.19724e-05
9.72237e-06
1.85069e-05
1.85145e-05
1.21041e-05
3.45752e-06
1.06418e-05
4.33879e-06
1.064e-05
4.3316e-06
1.2107e-05
2.25113e-05
7.1828e-06
8.88723e-06
2.25095e-05
7.18468e-06
1.21039e-05
3.43572e-06
1.06385e-05
4.30655e-06
1.064e-05
1.21011e-05
4.31428e-06
2.25001e-05
7.1904e-06
8.88772e-06
7.18935e-06
2.2502e-05
1.21102e-05
4.3552e-06
1.06422e-05
3.49933e-06
1.21072e-05
4.36249e-06
1.06445e-05
2.2482e-05
8.8954e-06
7.20203e-06
2.24837e-05
7.20194e-06
2.24932e-05
7.19746e-06
8.89414e-06
2.24915e-05
7.1978e-06
1.21105e-05
3.52027e-06
4.38452e-06
1.06479e-05
1.21136e-05
4.37754e-06
1.06451e-05
1.21103e-05
1.06422e-05
4.3553e-06
3.49939e-06
1.21073e-05
1.06445e-05
4.36189e-06
2.24814e-05
8.89456e-06
7.20071e-06
7.19977e-06
2.24831e-05
2.24926e-05
7.1944e-06
8.89406e-06
2.24908e-05
7.1959e-06
1.21106e-05
3.51999e-06
1.06478e-05
4.38389e-06
1.0645e-05
4.37772e-06
1.21137e-05
1.21033e-05
3.45806e-06
4.33846e-06
1.06416e-05
4.33167e-06
1.06399e-05
1.21062e-05
2.24991e-05
7.19113e-06
8.8875e-06
7.19102e-06
2.25011e-05
1.21037e-05
3.45784e-06
1.06414e-05
4.33872e-06
1.06397e-05
4.33155e-06
1.21066e-05
2.24998e-05
7.19075e-06
8.88732e-06
7.18887e-06
2.25015e-05
1.21094e-05
4.35533e-06
1.0642e-05
3.49917e-06
1.21065e-05
4.36173e-06
1.06442e-05
2.24802e-05
8.89424e-06
7.2013e-06
7.20136e-06
2.24822e-05
2.24917e-05
7.19639e-06
8.89373e-06
2.24897e-05
7.19654e-06
1.21098e-05
3.52022e-06
4.38369e-06
1.06475e-05
4.37783e-06
1.06449e-05
1.21128e-05
1.21099e-05
1.06418e-05
4.35514e-06
3.4992e-06
1.21069e-05
1.06441e-05
4.36207e-06
2.24809e-05
8.89411e-06
7.20056e-06
7.19938e-06
2.24826e-05
2.24921e-05
7.19486e-06
8.89359e-06
2.24904e-05
7.19566e-06
1.21102e-05
3.52014e-06
1.06473e-05
4.38398e-06
1.06447e-05
4.37756e-06
1.21133e-05
9.71725e-06
2.19926e-05
2.19928e-05
2.19922e-05
2.19924e-05
9.71689e-06
3.81411e-06
1.7412e-06
8.97242e-06
5.04923e-06
8.97925e-06
3.80607e-06
1.74991e-06
3.80714e-06
1.73981e-06
8.96764e-06
5.04607e-06
1.74809e-06
3.79886e-06
8.97466e-06
9.71381e-06
2.20025e-05
2.20027e-05
2.20029e-05
9.71398e-06
2.20031e-05
3.82893e-06
8.98881e-06
5.05788e-06
1.77473e-06
8.9821e-06
1.76629e-06
3.83636e-06
3.82176e-06
8.98405e-06
5.05759e-06
1.7727e-06
1.76482e-06
8.9773e-06
3.82931e-06
1.85319e-05
1.85241e-05
1.85096e-05
1.85171e-05
9.71958e-06
2.19819e-05
2.19822e-05
9.72015e-06
2.19823e-05
2.19825e-05
3.87172e-06
1.82327e-06
5.08344e-06
9.00695e-06
1.81487e-06
9.00052e-06
3.87875e-06
3.86465e-06
1.82128e-06
5.08333e-06
9.00201e-06
8.99612e-06
1.81358e-06
3.87157e-06
3.8583e-06
8.99142e-06
1.79076e-06
5.07528e-06
1.79886e-06
3.85082e-06
8.99804e-06
3.85127e-06
8.98712e-06
1.78935e-06
5.07284e-06
3.8437e-06
8.99312e-06
1.79698e-06
9.72265e-06
2.1972e-05
2.19722e-05
2.19717e-05
2.19719e-05
9.72189e-06
1.85073e-05
1.85149e-05
1.21034e-05
3.45806e-06
4.33933e-06
1.06416e-05
4.3316e-06
1.06398e-05
1.21063e-05
2.25107e-05
7.1843e-06
8.88718e-06
7.18582e-06
2.25089e-05
1.21032e-05
3.43551e-06
4.30652e-06
1.06383e-05
4.31464e-06
1.21005e-05
1.06397e-05
2.24996e-05
7.19173e-06
8.88769e-06
7.19053e-06
2.25013e-05
1.2104e-05
3.45798e-06
4.33893e-06
1.06416e-05
4.33169e-06
1.06398e-05
1.21069e-05
2.25119e-05
7.18298e-06
8.88734e-06
2.25101e-05
7.18494e-06
1.21038e-05
3.43548e-06
4.30665e-06
1.06383e-05
1.21011e-05
4.31448e-06
1.06398e-05
2.25008e-05
7.1907e-06
8.88818e-06
7.18945e-06
2.25025e-05
1.21096e-05
4.3552e-06
1.06419e-05
3.49994e-06
1.21066e-05
4.36248e-06
1.06442e-05
2.24808e-05
8.89451e-06
7.20182e-06
7.20109e-06
2.24824e-05
2.24919e-05
7.19604e-06
8.894e-06
2.24902e-05
7.1971e-06
1.21099e-05
3.51996e-06
4.38448e-06
1.06475e-05
4.37752e-06
1.06448e-05
1.21131e-05
1.21102e-05
4.35537e-06
1.0642e-05
3.49997e-06
1.21072e-05
4.36216e-06
1.06443e-05
2.2482e-05
8.89512e-06
7.20083e-06
7.19988e-06
2.24836e-05
2.24931e-05
7.19492e-06
8.89383e-06
2.24914e-05
7.19603e-06
1.21105e-05
3.51985e-06
4.38408e-06
1.06476e-05
4.3778e-06
1.06448e-05
1.21136e-05
1.85325e-05
1.85247e-05
1.85345e-05
1.85267e-05
9.71963e-06
2.19824e-05
2.19819e-05
9.72014e-06
2.19827e-05
2.19822e-05
3.86581e-06
1.82127e-06
5.08178e-06
9.00237e-06
3.87095e-06
1.81345e-06
8.99594e-06
3.8728e-06
1.82327e-06
5.08353e-06
9.00723e-06
3.87783e-06
1.81503e-06
9.00083e-06
3.84958e-06
8.98682e-06
1.78942e-06
5.07352e-06
3.84418e-06
1.7972e-06
8.99349e-06
3.85665e-06
8.99166e-06
1.79113e-06
5.07539e-06
3.85109e-06
1.79887e-06
8.99835e-06
9.72267e-06
2.19724e-05
2.19719e-05
9.72195e-06
2.19721e-05
2.19716e-05
1.85079e-05
1.85155e-05
1.85099e-05
1.85175e-05
1.84973e-05
1.849e-05
1.85002e-05
1.84929e-05
9.72689e-06
2.19518e-05
2.19518e-05
2.19514e-05
2.19514e-05
9.72586e-06
3.89198e-06
1.83677e-06
9.00439e-06
5.09612e-06
3.88471e-06
9.01056e-06
1.84492e-06
3.8991e-06
1.83848e-06
9.0098e-06
5.09942e-06
3.89183e-06
9.016e-06
1.84652e-06
9.72423e-06
2.19616e-05
2.19615e-05
9.72516e-06
2.19619e-05
2.19618e-05
3.90362e-06
9.01891e-06
5.10612e-06
1.86802e-06
9.01285e-06
3.91156e-06
1.85972e-06
3.91074e-06
9.02433e-06
5.10735e-06
1.8695e-06
9.0183e-06
3.91869e-06
1.8615e-06
1.21176e-05
3.57689e-06
1.06557e-05
4.42416e-06
1.06525e-05
4.41892e-06
1.21208e-05
2.24744e-05
7.20489e-06
8.89974e-06
2.24729e-05
7.20495e-06
1.21172e-05
3.55791e-06
1.06484e-05
4.39893e-06
1.06514e-05
1.21141e-05
4.4048e-06
2.24634e-05
7.20826e-06
8.90096e-06
7.20843e-06
2.24648e-05
9.72698e-06
2.19517e-05
2.19522e-05
2.19514e-05
2.19519e-05
9.72586e-06
3.89742e-06
1.83886e-06
9.00982e-06
5.09915e-06
9.01518e-06
3.89333e-06
1.84576e-06
3.8918e-06
1.8373e-06
9.00529e-06
5.09638e-06
1.84397e-06
3.8855e-06
9.01076e-06
9.72428e-06
2.19617e-05
2.19621e-05
2.19619e-05
9.72521e-06
2.19624e-05
3.91297e-06
9.02364e-06
5.10712e-06
1.86882e-06
9.01821e-06
1.86225e-06
3.91574e-06
3.90414e-06
9.01904e-06
5.10603e-06
1.86692e-06
1.8606e-06
9.01374e-06
3.91173e-06
1.84981e-05
1.84907e-05
1.21176e-05
3.57686e-06
1.06563e-05
4.42408e-06
1.06524e-05
4.41881e-06
1.21208e-05
2.24736e-05
7.20405e-06
8.90061e-06
2.2472e-05
7.20466e-06
1.21172e-05
3.5581e-06
1.06485e-05
4.39886e-06
1.06518e-05
1.21141e-05
4.40469e-06
2.24625e-05
7.20805e-06
8.90104e-06
7.20781e-06
2.24641e-05
1.21167e-05
3.57718e-06
4.42354e-06
1.06556e-05
4.41898e-06
1.06525e-05
1.21199e-05
2.24726e-05
7.20556e-06
8.90026e-06
7.20541e-06
2.24707e-05
1.21163e-05
3.5579e-06
4.39899e-06
1.06484e-05
4.4044e-06
1.21132e-05
1.06513e-05
2.24612e-05
7.20886e-06
8.90071e-06
7.20923e-06
2.24631e-05
1.21171e-05
3.5771e-06
1.06554e-05
4.42478e-06
1.06524e-05
4.4184e-06
1.21203e-05
2.24731e-05
7.20398e-06
8.90015e-06
2.24715e-05
7.20436e-06
1.21168e-05
3.55785e-06
1.06482e-05
4.39874e-06
1.21136e-05
1.06512e-05
4.40474e-06
2.2462e-05
7.20778e-06
8.90056e-06
7.20745e-06
2.24635e-05
9.72655e-06
2.19515e-05
2.19517e-05
2.19512e-05
2.19514e-05
9.7254e-06
3.89916e-06
1.83852e-06
9.0093e-06
5.09942e-06
9.01556e-06
3.89195e-06
1.84665e-06
3.89027e-06
1.83725e-06
9.00489e-06
5.09661e-06
1.84421e-06
3.8853e-06
9.01056e-06
9.72381e-06
2.19614e-05
2.19617e-05
2.19617e-05
9.72479e-06
2.19619e-05
3.91084e-06
9.02391e-06
5.10645e-06
1.86966e-06
9.01781e-06
1.86159e-06
3.91867e-06
3.90518e-06
9.01883e-06
5.106e-06
1.86701e-06
1.8605e-06
9.01342e-06
3.90866e-06
1.84984e-05
1.84911e-05
1.21169e-05
3.57715e-06
4.42494e-06
1.06557e-05
4.41844e-06
1.06525e-05
1.21201e-05
2.24729e-05
7.20535e-06
8.9005e-06
7.2059e-06
2.24714e-05
1.21166e-05
3.5582e-06
4.39864e-06
1.06483e-05
4.40523e-06
1.21134e-05
1.06514e-05
2.24619e-05
7.20935e-06
8.90095e-06
7.20903e-06
2.24634e-05
1.21175e-05
3.57691e-06
4.4242e-06
1.06557e-05
4.41891e-06
1.06526e-05
1.21207e-05
2.24741e-05
7.20429e-06
8.90041e-06
2.24726e-05
7.20469e-06
1.21171e-05
3.55835e-06
4.39891e-06
1.06484e-05
1.2114e-05
4.40491e-06
1.06514e-05
2.24631e-05
7.20807e-06
8.90163e-06
7.20805e-06
2.24646e-05
1.8499e-05
1.84917e-05
1.8501e-05
1.84937e-05
1.27759e-07
1.27757e-07
1.39263e-07
1.26353e-07
1.26351e-07
1.21062e-07
1.226e-07
1.55071e-06
3.15183e-07
6.55839e-07
6.56243e-07
1.22374e-07
1.22372e-07
1.35664e-07
1.21124e-07
1.21121e-07
1.15232e-07
1.16643e-07
1.64851e-06
7.0731e-07
7.07663e-07
3.35114e-07
1.64166e-06
7.12237e-07
7.12499e-07
1.55022e-06
6.50939e-07
6.51203e-07
3.14596e-07
1.54112e-06
6.5565e-07
6.55919e-07
1.61611e-06
3.29264e-07
6.97891e-07
6.98217e-07
6.92884e-07
6.93235e-07
1.62502e-06
1.54909e-06
3.14669e-07
6.54677e-07
6.5469e-07
1.61738e-06
3.29492e-07
6.96867e-07
6.96741e-07
6.93863e-07
6.93607e-07
1.6237e-06
1.54952e-06
6.51211e-07
6.51261e-07
3.14501e-07
6.55366e-07
1.54161e-06
6.55201e-07
1.61644e-06
3.29521e-07
6.97787e-07
6.97684e-07
6.93507e-07
6.93243e-07
1.62483e-06
1.61729e-06
3.28826e-07
6.98053e-07
6.9829e-07
1.62376e-06
6.92925e-07
6.93226e-07
1.64972e-06
7.07314e-07
7.07811e-07
3.34415e-07
1.64048e-06
7.12277e-07
7.11924e-07
1.64783e-06
7.08184e-07
7.07883e-07
3.34468e-07
7.11216e-07
1.64169e-06
7.11352e-07
1.64948e-06
7.07841e-07
7.07517e-07
3.343e-07
7.12224e-07
1.64055e-06
7.12316e-07
1.2776e-07
1.2776e-07
1.39267e-07
1.26354e-07
1.26355e-07
1.21063e-07
1.22601e-07
1.27764e-07
1.27762e-07
1.39272e-07
1.26357e-07
1.26356e-07
1.21064e-07
1.22602e-07
1.27765e-07
1.27764e-07
1.39275e-07
1.2636e-07
1.26357e-07
1.21064e-07
1.22603e-07
1.38282e-07
1.23662e-07
1.23659e-07
1.24989e-07
1.24987e-07
1.19557e-07
1.18084e-07
1.38286e-07
1.23662e-07
1.23662e-07
1.2499e-07
1.24989e-07
1.19558e-07
1.18085e-07
1.38292e-07
1.23666e-07
1.23664e-07
1.24993e-07
1.24992e-07
1.19559e-07
1.18086e-07
1.38295e-07
1.23668e-07
1.23665e-07
1.24995e-07
1.24993e-07
1.1956e-07
1.18086e-07
4.12034e-07
9.81555e-07
1.29412e-06
3.38931e-07
1.28779e-06
3.37233e-07
4.13803e-07
5.76398e-07
1.92451e-06
2.65469e-06
8.89086e-07
8.82892e-07
1.91876e-06
5.79517e-07
4.12144e-07
9.81758e-07
3.3895e-07
1.29526e-06
3.37272e-07
1.28725e-06
4.14374e-07
5.69584e-07
8.67093e-07
1.89471e-06
2.64067e-06
5.66448e-07
8.72751e-07
1.90197e-06
4.07299e-07
9.67958e-07
3.32119e-07
1.26385e-06
4.05152e-07
3.33712e-07
1.27186e-06
5.76616e-07
1.92559e-06
2.65493e-06
8.88444e-07
8.83221e-07
1.91813e-06
5.79119e-07
1.56663e-06
3.19147e-07
6.69469e-07
6.69846e-07
6.64794e-07
6.64973e-07
1.57535e-06
1.22375e-07
1.22374e-07
1.35667e-07
1.21124e-07
1.21124e-07
1.15233e-07
1.16643e-07
1.22379e-07
1.22377e-07
1.35673e-07
1.21128e-07
1.21125e-07
1.15234e-07
1.16645e-07
1.2238e-07
1.22378e-07
1.35676e-07
1.2113e-07
1.21127e-07
1.15234e-07
1.16645e-07
4.43203e-07
1.06589e-06
1.38602e-06
3.62213e-07
1.37956e-06
3.59992e-07
4.44995e-07
6.11816e-07
9.32279e-07
1.98796e-06
2.72726e-06
6.08281e-07
9.38941e-07
1.99421e-06
4.36945e-07
1.0514e-06
1.35688e-06
3.53887e-07
4.34514e-07
1.36358e-06
3.55809e-07
6.1915e-07
2.01745e-06
2.73998e-06
9.56108e-07
9.49088e-07
2.01021e-06
6.23213e-07
4.43359e-07
1.066e-06
3.61145e-07
1.38717e-06
3.60624e-07
1.37918e-06
4.45187e-07
6.10175e-07
9.32887e-07
1.9874e-06
2.72686e-06
6.09309e-07
9.38516e-07
1.99574e-06
4.37091e-07
1.05162e-06
3.54323e-07
1.35642e-06
4.34683e-07
3.55188e-07
1.36409e-06
6.20015e-07
2.01794e-06
2.74098e-06
9.54828e-07
9.49445e-07
2.00972e-06
6.23309e-07
1.66496e-06
3.39812e-07
7.26076e-07
7.25994e-07
7.22102e-07
7.22496e-07
1.67255e-06
1.56655e-06
3.19438e-07
6.69447e-07
6.69744e-07
1.57522e-06
6.6473e-07
6.65053e-07
1.60083e-06
3.24319e-07
6.78622e-07
6.78933e-07
1.59157e-06
6.83035e-07
6.83284e-07
4.12774e-07
9.82159e-07
1.29407e-06
3.38233e-07
1.28796e-06
3.37773e-07
4.12756e-07
5.68205e-07
8.67288e-07
1.89487e-06
2.64025e-06
1.90093e-06
5.67575e-07
8.7225e-07
4.05664e-07
9.67498e-07
1.26468e-06
3.32559e-07
1.27097e-06
4.05632e-07
3.33199e-07
5.77437e-07
1.92474e-06
2.65492e-06
8.88597e-07
1.91899e-06
8.83456e-07
5.78534e-07
4.11956e-07
9.81633e-07
1.29465e-06
3.38249e-07
1.2872e-06
3.3775e-07
4.13722e-07
5.69507e-07
8.6772e-07
1.89455e-06
2.63944e-06
5.66424e-07
1.90065e-06
8.72691e-07
4.06685e-07
9.67806e-07
1.26398e-06
3.32549e-07
4.05569e-07
1.2715e-06
3.33199e-07
5.76512e-07
1.92455e-06
2.65675e-06
8.88819e-07
1.91858e-06
5.79447e-07
8.83791e-07
4.20105e-07
1.31091e-06
3.42995e-07
1.00891e-06
4.20045e-07
1.31737e-06
3.43668e-07
5.98472e-07
9.21687e-07
2.6987e-06
1.97101e-06
9.16578e-07
1.96584e-06
5.99691e-07
5.88663e-07
1.94249e-06
8.99628e-07
2.684e-06
9.04524e-07
5.87906e-07
1.9483e-06
4.27849e-07
1.02393e-06
1.34051e-06
3.49309e-07
1.33413e-06
3.48659e-07
4.28261e-07
4.21402e-07
1.31042e-06
3.42981e-07
1.00959e-06
4.19199e-07
1.31784e-06
3.4367e-07
5.9743e-07
9.22034e-07
2.70043e-06
1.97075e-06
1.96549e-06
9.16906e-07
6.00612e-07
5.90128e-07
1.94215e-06
9.00119e-07
2.68423e-06
5.86922e-07
1.94829e-06
9.05064e-07
4.2659e-07
1.02324e-06
1.34088e-06
3.49285e-07
1.33339e-06
3.48615e-07
4.28771e-07
1.56768e-06
3.19498e-07
6.68675e-07
6.68401e-07
6.65336e-07
6.65578e-07
1.57408e-06
1.59862e-06
3.24154e-07
6.79544e-07
6.79293e-07
6.8296e-07
1.59267e-06
6.8284e-07
4.12814e-07
9.815e-07
1.29493e-06
3.38913e-07
1.2872e-06
3.37258e-07
4.12817e-07
5.68223e-07
8.67564e-07
1.89509e-06
2.6408e-06
1.90074e-06
5.67612e-07
8.72757e-07
4.05691e-07
9.68058e-07
1.26406e-06
3.32179e-07
1.27177e-06
4.05672e-07
3.33673e-07
5.77473e-07
1.92499e-06
2.65548e-06
8.89305e-07
1.91903e-06
8.83607e-07
5.78569e-07
4.12275e-07
9.81427e-07
3.3898e-07
1.2952e-06
3.37288e-07
1.28708e-06
4.14503e-07
5.68221e-07
8.68024e-07
1.89382e-06
2.64097e-06
5.67416e-07
1.90223e-06
8.71594e-07
4.07382e-07
9.68022e-07
3.32165e-07
1.26373e-06
4.05267e-07
3.33763e-07
1.27171e-06
5.77349e-07
1.92596e-06
2.65552e-06
8.88064e-07
1.91763e-06
5.78595e-07
8.84456e-07
4.20124e-07
1.31044e-06
3.42557e-07
1.00945e-06
4.2006e-07
1.31795e-06
3.44233e-07
5.98476e-07
9.22529e-07
2.69934e-06
1.97115e-06
9.16596e-07
1.9659e-06
5.99749e-07
5.88705e-07
1.94256e-06
8.99801e-07
2.68456e-06
9.04996e-07
5.87948e-07
1.94867e-06
4.27877e-07
1.02355e-06
1.34086e-06
3.49978e-07
1.33365e-06
3.48157e-07
4.28306e-07
4.21689e-07
3.42589e-07
1.31025e-06
1.00955e-06
4.19574e-07
3.44291e-07
1.31819e-06
5.98456e-07
9.21132e-07
2.69932e-06
1.97236e-06
1.96448e-06
9.174e-07
5.99614e-07
5.88741e-07
1.94112e-06
9.0077e-07
2.6848e-06
5.87843e-07
1.94885e-06
9.04888e-07
4.26948e-07
1.02343e-06
3.50026e-07
1.3413e-06
3.4819e-07
1.3333e-06
4.29036e-07
4.11728e-07
9.82006e-07
3.38916e-07
1.29458e-06
3.37237e-07
1.2875e-06
4.14048e-07
5.76362e-07
1.92546e-06
2.65479e-06
8.88418e-07
8.83431e-07
1.91722e-06
5.7935e-07
4.21397e-07
1.31077e-06
3.42536e-07
1.00921e-06
4.19193e-07
1.31753e-06
3.44189e-07
5.97297e-07
9.22267e-07
2.69859e-06
1.97112e-06
6.00426e-07
9.1571e-07
1.96539e-06
5.90091e-07
1.94205e-06
8.99315e-07
2.68403e-06
5.86905e-07
9.04745e-07
1.94846e-06
4.26683e-07
1.02351e-06
1.34042e-06
3.49961e-07
4.28666e-07
1.33383e-06
3.48106e-07
4.21522e-07
3.42618e-07
1.31066e-06
1.00908e-06
4.19281e-07
3.44269e-07
1.31783e-06
5.97404e-07
9.21553e-07
2.69918e-06
1.9719e-06
1.96418e-06
9.16319e-07
6.00518e-07
5.90189e-07
1.94132e-06
8.99945e-07
2.68435e-06
5.86966e-07
1.94879e-06
9.04806e-07
4.26676e-07
1.02379e-06
3.49943e-07
1.34081e-06
3.48124e-07
1.33349e-06
4.28907e-07
1.56707e-06
3.19632e-07
6.69417e-07
6.69183e-07
6.64989e-07
6.65327e-07
1.57486e-06
1.60029e-06
3.24211e-07
6.79105e-07
6.78858e-07
6.83126e-07
1.59195e-06
6.82939e-07
4.12612e-07
9.8168e-07
3.38217e-07
1.29439e-06
3.37751e-07
1.28764e-06
4.12981e-07
5.6821e-07
8.6784e-07
1.89407e-06
2.63964e-06
8.72657e-07
5.67532e-07
1.90143e-06
4.05945e-07
9.67943e-07
3.32412e-07
1.26449e-06
3.33132e-07
4.05247e-07
1.27123e-06
5.77404e-07
1.92471e-06
2.65667e-06
8.88806e-07
8.83848e-07
1.91806e-06
5.78552e-07
4.21626e-07
3.42585e-07
1.31044e-06
1.00964e-06
4.19494e-07
3.44211e-07
1.31824e-06
5.98251e-07
9.22097e-07
2.69874e-06
1.97318e-06
5.99653e-07
9.16345e-07
1.96474e-06
5.88335e-07
1.94169e-06
8.99615e-07
2.68422e-06
5.87257e-07
9.04604e-07
1.94906e-06
4.26849e-07
1.02345e-06
3.49267e-07
1.34131e-06
4.28816e-07
3.48303e-07
1.33343e-06
4.20133e-07
3.42983e-07
1.31076e-06
1.00943e-06
4.20116e-07
3.43673e-07
1.31764e-06
5.9843e-07
9.22138e-07
2.70042e-06
1.97141e-06
1.96517e-06
9.16911e-07
5.99769e-07
5.88719e-07
1.94148e-06
9.00157e-07
2.68441e-06
5.87862e-07
1.94837e-06
9.05122e-07
4.27884e-07
1.02352e-06
3.49306e-07
1.34054e-06
3.48676e-07
1.33394e-06
4.28268e-07
1.59903e-06
3.24609e-07
6.78891e-07
6.79133e-07
1.59205e-06
6.83203e-07
6.83437e-07
1.66382e-06
3.40047e-07
7.27178e-07
7.25172e-07
1.67385e-06
7.21523e-07
7.22451e-07
4.42993e-07
1.06611e-06
1.38677e-06
3.61036e-07
1.37954e-06
3.60641e-07
4.43142e-07
6.11613e-07
9.32987e-07
1.98847e-06
2.72513e-06
1.99388e-06
6.09051e-07
9.38199e-07
4.35534e-07
1.05108e-06
1.35708e-06
3.54443e-07
1.36339e-06
4.35194e-07
3.55279e-07
6.19544e-07
2.01607e-06
2.74119e-06
9.55331e-07
2.01106e-06
9.49404e-07
6.23348e-07
4.43002e-07
1.06544e-06
1.38561e-06
3.61072e-07
1.37957e-06
3.606e-07
4.44798e-07
6.11876e-07
9.33443e-07
1.98819e-06
2.72612e-06
6.08343e-07
1.9937e-06
9.38825e-07
4.36715e-07
1.05166e-06
1.3565e-06
3.54423e-07
4.34368e-07
1.3634e-06
3.5524e-07
6.19276e-07
2.01614e-06
2.74202e-06
9.55808e-07
2.01066e-06
6.23613e-07
9.49837e-07
1.66561e-06
3.40353e-07
7.25715e-07
7.25508e-07
7.22598e-07
7.22913e-07
1.67095e-06
4.43023e-07
1.06606e-06
1.38672e-06
3.60966e-07
1.37961e-06
3.60245e-07
4.43158e-07
6.10376e-07
9.33319e-07
1.98853e-06
2.7258e-06
1.99408e-06
6.09328e-07
9.37706e-07
4.35521e-07
1.05133e-06
1.35665e-06
3.54048e-07
1.36357e-06
4.35194e-07
3.55556e-07
6.20232e-07
2.01612e-06
2.7418e-06
9.54535e-07
2.01118e-06
9.50244e-07
6.23224e-07
4.42789e-07
1.06576e-06
3.60985e-07
1.38624e-06
3.6027e-07
1.37931e-06
4.43097e-07
6.10199e-07
9.33699e-07
1.98755e-06
2.72764e-06
6.09443e-07
1.99458e-06
9.38144e-07
4.36511e-07
1.05152e-06
3.54117e-07
1.3564e-06
4.3466e-07
3.55536e-07
1.3637e-06
6.20759e-07
2.016e-06
2.74053e-06
9.55116e-07
2.01011e-06
6.20655e-07
9.50346e-07
4.43111e-07
1.06613e-06
3.61029e-07
1.38595e-06
3.60237e-07
1.37939e-06
4.44882e-07
6.11647e-07
9.32991e-07
1.98747e-06
2.72557e-06
9.38726e-07
6.08411e-07
1.99397e-06
4.36861e-07
1.05138e-06
3.54049e-07
1.35661e-06
3.55571e-07
4.34492e-07
1.36358e-06
6.19572e-07
2.01589e-06
2.7416e-06
9.56223e-07
9.4927e-07
2.01007e-06
6.2087e-07
1.66402e-06
3.40432e-07
7.27361e-07
7.27199e-07
7.21684e-07
7.22044e-07
1.67364e-06
4.43053e-07
1.06604e-06
3.62129e-07
1.3859e-06
3.60352e-07
1.37973e-06
4.43181e-07
6.11613e-07
9.33343e-07
1.98782e-06
2.72758e-06
9.3917e-07
6.09032e-07
1.99434e-06
4.3555e-07
1.05151e-06
3.54478e-07
1.35694e-06
3.55313e-07
4.3524e-07
1.36347e-06
6.19557e-07
2.01647e-06
2.74069e-06
9.56547e-07
9.49566e-07
2.01036e-06
6.23388e-07
4.99176e-07
4.99988e-07
4.99996e-07
4.99896e-07
4.45592e-07
4.54266e-07
4.54286e-07
4.63977e-07
4.03816e-07
4.18907e-07
4.18921e-07
4.39732e-07
3.68439e-07
3.88834e-07
3.88845e-07
4.1785e-07
3.38085e-07
3.62282e-07
3.62291e-07
3.96086e-07
3.11701e-07
3.38351e-07
3.3837e-07
3.74443e-07
2.88507e-07
3.16634e-07
3.16659e-07
3.53459e-07
2.67936e-07
2.96958e-07
2.96978e-07
3.33776e-07
2.49572e-07
2.79256e-07
2.79269e-07
3.16017e-07
2.33109e-07
2.6352e-07
2.63531e-07
3.0061e-07
2.18319e-07
2.49759e-07
2.4977e-07
2.8791e-07
2.05026e-07
2.37968e-07
2.3798e-07
2.77992e-07
1.93091e-07
2.28152e-07
2.28164e-07
2.71361e-07
1.82402e-07
2.20315e-07
2.20327e-07
2.67544e-07
1.72868e-07
2.14458e-07
2.14469e-07
2.67019e-07
1.64414e-07
2.10594e-07
2.10603e-07
2.69821e-07
1.56978e-07
2.08726e-07
2.08735e-07
2.75982e-07
1.50507e-07
2.08865e-07
2.08876e-07
2.85381e-07
1.44958e-07
2.11068e-07
2.11083e-07
2.98263e-07
2.15342e-07
3.14565e-07
5.06266e-07
5.05585e-07
5.05586e-07
5.06239e-07
5.05587e-07
5.05568e-07
5.05987e-07
5.05987e-07
5.05985e-07
5.05984e-07
5.05575e-07
5.05565e-07
5.06191e-07
5.05574e-07
5.05568e-07
5.06178e-07