/*--------------------------------*- C++ -*----------------------------------*\
| =========                 |                                                 |
| \\      /  F ield         | OpenFOAM: The Open Source CFD Toolbox           |
|  \\    /   O peration     | Version:  2312                                  |
|   \\  /    A nd           | Website:  www.openfoam.com                      |
|    \\/     M anipulation  |                                                 |
\*---------------------------------------------------------------------------*/
FoamFile
{
    version     2.0;
    format      ascii;
    arch        "LSB;label=32;scalar=64";
    class       surfaceScalarField;
    location    "350";
    object      phi;
}
// * * * * * * * * * * * * * * * * * * * * * * * * * * * * * * * * * * * * * //

dimensions      [0 3 -1 0 0 0 0];

oriented        oriented;

internalField   nonuniform List<scalar> 
124832
(
-8.76005e-07
-8.82711e-07
4.56131e-07
4.56965e-07
0.00114044
-0.00113959
-1.51887e-06
8.77276e-07
4.45127e-07
0.00113302
-5.32444e-07
1.10759e-06
1.27578e-07
7.24599e-07
-5.90751e-07
-1.2733e-06
5.8215e-08
-0.00113244
-8.56928e-07
-8.57848e-07
-0.00114291
4.42856e-07
4.43517e-07
0.00114374
-0.00113482
-1.51657e-06
8.57101e-07
4.18726e-07
0.00113536
-5.21319e-07
1.11695e-06
1.34257e-07
7.32303e-07
-5.75055e-07
-1.25919e-06
6.75576e-08
-0.00113469
-1.51389e-06
8.57585e-07
4.24505e-07
0.00113523
-5.21533e-07
1.11425e-06
1.34153e-07
7.32356e-07
-5.75209e-07
-1.25941e-06
6.77352e-08
-0.000276279
1.54558e-06
1.50861e-06
-4.99832e-07
-5.02932e-07
0.000274228
1.56152e-06
1.52207e-06
-5.07828e-07
-5.15908e-07
0.00027407
-0.00027613
-1.15821e-06
-1.11526e-06
0.000276354
-0.000274237
7.56697e-08
8.11884e-08
4.35985e-07
0.0011326
-5.35152e-07
1.15051e-06
1.30606e-07
7.30059e-07
-5.90765e-07
-1.27883e-06
5.8165e-08
-0.00113202
8.70826e-07
4.35888e-07
0.00113267
1.14772e-06
1.33205e-07
7.29908e-07
-5.9065e-07
-1.27852e-06
5.81896e-08
-0.00113208
-1.55633e-06
-5.35485e-07
0.00113427
8.61642e-07
-0.00113374
4.39017e-07
-1.558e-06
1.41433e-07
-5.2987e-07
-1.26859e-06
6.52233e-08
-5.79275e-07
7.35934e-07
1.15282e-06
0.00113435
8.61696e-07
-0.0011338
4.28182e-07
-1.55542e-06
1.38235e-07
-5.2728e-07
-1.26836e-06
6.52825e-08
-5.7903e-07
7.35716e-07
-1.11532e-06
0.000276334
-0.000274221
7.58794e-08
7.84043e-08
4.3493e-07
0.00113359
-5.32786e-07
1.11031e-06
1.27416e-07
7.30144e-07
-5.90655e-07
-1.27859e-06
5.85278e-08
-0.00113301
-1.55367e-06
8.76025e-07
4.36228e-07
0.00113256
-5.38196e-07
1.14226e-06
1.33326e-07
7.30171e-07
-5.90607e-07
-1.27848e-06
5.49033e-08
-0.00113197
0.00113528
8.62579e-07
-0.00113472
4.27538e-07
-1.51844e-06
1.32264e-07
-5.2462e-07
-1.26835e-06
6.54946e-08
-5.79147e-07
7.3588e-07
1.14738e-06
0.00113424
8.6132e-07
-0.00113369
4.28528e-07
-1.54996e-06
1.38336e-07
-5.29931e-07
-1.26819e-06
6.20816e-08
-5.76362e-07
7.35914e-07
8.61972e-07
-0.00113427
4.32253e-07
-1.51794e-06
1.32591e-07
-5.24216e-07
-1.26275e-06
6.53233e-08
7.30434e-07
-5.78892e-07
1.14445e-06
0.00113386
8.61686e-07
-0.00113331
4.28829e-07
-1.54693e-06
1.35437e-07
-5.2696e-07
-1.25988e-06
5.85804e-08
-5.73345e-07
7.27577e-07
-5.10779e-07
-5.1569e-07
0.000274045
-0.000276092
-1.10984e-06
0.00027631
-0.00027421
7.60418e-08
8.11336e-08
7.76651e-07
2.55378e-07
0.00113308
1.06635e-06
1.15328e-07
7.27032e-07
-5.8795e-07
5.83225e-08
-1.27582e-06
-1.58655e-06
-0.00113209
-5.43456e-07
8.62296e-07
-0.00113414
4.26884e-07
-1.51249e-06
1.32543e-07
-5.24234e-07
-1.26298e-06
6.54822e-08
7.30401e-07
-5.79054e-07
1.10705e-06
0.00113484
8.62446e-07
-0.00113428
4.27237e-07
-1.50998e-06
1.32409e-07
-5.24469e-07
-1.26538e-06
6.55714e-08
-5.7908e-07
7.32981e-07
-0.000274182
7.57358e-08
7.85261e-08
1.55939e-06
1.51704e-06
-5.00119e-07
-5.05503e-07
0.000274283
4.14652e-07
0.00113482
-5.29985e-07
1.15987e-06
1.42989e-07
7.37725e-07
-5.75534e-07
-1.26514e-06
6.73661e-08
-1.55401e-06
8.57206e-07
4.25758e-07
0.00113489
-5.2716e-07
1.1545e-06
1.39899e-07
7.37727e-07
-5.75218e-07
-1.26477e-06
6.42286e-08
-5.00203e-07
-5.02375e-07
0.000274266
4.25144e-07
0.00113581
-5.21884e-07
1.11692e-06
1.33856e-07
7.37848e-07
-5.75289e-07
-1.26478e-06
6.77099e-08
-1.54858e-06
8.56548e-07
4.25979e-07
0.00113478
-5.27175e-07
1.14906e-06
1.40018e-07
7.37825e-07
-5.72469e-07
-1.26464e-06
6.43993e-08
8.56922e-07
4.26325e-07
0.0011344
-5.2413e-07
1.14609e-06
1.37089e-07
7.29433e-07
-5.69623e-07
6.08546e-08
-1.25633e-06
-5.00341e-07
-5.05153e-07
0.000274253
8.57712e-07
4.24779e-07
0.00113538
-5.21656e-07
1.10869e-06
1.34059e-07
7.34858e-07
-5.75297e-07
6.78606e-08
-1.26185e-06
-3.67007e-10
9.37034e-08
0.000237628
-0.000237702
-1.06335e-08
-8.21691e-09
-3.7053e-09
1.51412e-07
-2.08602e-08
0.000198049
-0.000198176
-2.18632e-10
2.76848e-07
0.000237945
-9.49513e-08
-1.28742e-08
-0.000238114
1.50724e-08
3.11941e-08
0.00019784
-5.65736e-09
-0.000197881
-1.48269e-08
5.38016e-09
9.92819e-05
-9.92725e-05
9.35487e-08
-8.87505e-12
0.000237615
-0.000237689
-8.58228e-09
-1.05414e-08
-4.02573e-09
1.51246e-07
-2.06487e-08
0.000198031
-0.000198158
2.76702e-07
3.48053e-10
0.000237932
-1.35463e-08
-9.48627e-08
-0.000238101
1.53043e-08
3.08755e-08
0.000197824
-5.70687e-09
-0.000197864
4.61736e-07
4.34915e-07
0.0011402
-8.76665e-07
-0.00113935
4.56757e-07
4.84156e-07
0.00114001
-0.0011392
4.06956e-07
4.2928e-07
0.00113994
-1.0433e-06
-0.00113896
-0.00114209
4.55796e-07
4.50978e-07
0.0011427
-0.00114188
4.50217e-07
4.50675e-07
0.00114249
-0.00114167
4.50383e-07
4.506e-07
0.00114245
-0.00114163
4.50665e-07
4.50953e-07
-9.38512e-08
-1.83676e-09
0.000261357
-0.000261286
-2.74157e-08
5.22442e-08
4.26463e-07
1.11194e-06
0.0011337
8.71728e-07
-1.26956e-06
6.06793e-08
-5.86658e-07
7.26497e-07
-1.52048e-06
1.29301e-07
-5.2972e-07
-0.00113312
4.81344e-09
-3.11956e-08
0.000254114
2.01223e-08
-0.000254148
4.05588e-08
-1.82561e-08
0.00113384
9.24037e-07
-1.38025e-06
5.74405e-07
-1.20841e-06
7.7133e-07
-0.00113308
4.15916e-09
6.76355e-08
9.93318e-05
-9.94036e-05
-1.50093e-08
7.93221e-09
9.92744e-05
-9.92673e-05
-4.37512e-10
-9.38618e-08
0.000261343
-0.000261276
5.50611e-08
-2.79889e-08
0.00113295
5.27547e-08
9.28546e-07
7.71448e-07
-1.2109e-06
-1.38327e-06
5.71906e-07
-0.00113223
-7.04924e-08
-1.51293e-07
3.37706e-07
7.6138e-08
0.000254362
-0.000254554
4.42752e-07
1.10655e-06
0.00113358
8.72228e-07
-1.26982e-06
6.0745e-08
-5.86878e-07
7.26523e-07
-1.51768e-06
1.29266e-07
-5.29732e-07
1.68646e-09
-2.76874e-07
0.000261427
5.31019e-07
-3.52206e-08
-0.000261648
1.85765e-08
0.00113368
9.24282e-07
-1.38056e-06
5.77055e-07
-1.20596e-06
7.73983e-07
4.5249e-09
-3.10533e-08
0.000254102
2.01455e-08
-0.000254139
4.30946e-08
-1.14654e-06
-1.09822e-06
0.000276178
-0.000274074
6.54064e-08
7.59989e-08
-4.7829e-09
-7.89928e-09
0.000285613
2.27766e-08
-0.000285684
6.08189e-08
-4.70083e-09
-7.85093e-09
0.000285531
2.31171e-08
-0.000285602
6.06964e-08
-3.05839e-10
7.71397e-08
-0.000236783
-5.79391e-09
-6.4881e-09
-0.000197528
-3.33933e-09
1.40561e-07
-1.78031e-08
0.000197408
-0.000237162
-2.00154e-10
2.57395e-07
0.000237005
-8.82591e-08
-1.11768e-08
1.40137e-08
2.27164e-08
-3.80464e-09
-0.000197258
-9.91575e-05
4.94272e-09
6.36059e-08
9.9089e-05
-1.39428e-08
4.59233e-09
-9.9029e-05
7.70488e-08
5.84113e-11
-0.00023677
-6.86613e-09
-5.74202e-09
-0.000197507
-4.96527e-09
1.40244e-07
-1.79162e-08
0.00019739
-0.00023715
2.57307e-07
3.90787e-10
0.000236992
-1.176e-08
-8.82597e-08
1.39233e-08
2.25914e-08
-3.54081e-09
-0.00019724
4.48321e-07
4.48865e-07
0.00114352
4.48414e-07
4.48719e-07
0.00114331
4.48712e-07
4.49e-07
0.00114327
-7.73373e-08
-1.48519e-09
-0.000260652
-2.28135e-08
3.61804e-08
-0.000253674
-6.77426e-08
-1.42423e-07
3.22913e-07
6.88665e-08
0.000253492
0.00113603
-0.00113532
2.30641e-09
9.10676e-07
7.81022e-07
-1.19881e-06
-1.36941e-06
5.84105e-07
4.27456e-07
1.11854e-06
8.523e-07
-1.25556e-06
6.97487e-08
-5.71232e-07
7.34185e-07
-1.51515e-06
1.35893e-07
-5.18582e-07
-0.000261043
-2.57216e-07
1.53662e-09
0.000260815
-3.02451e-08
5.13915e-07
7.688e-09
-2.05541e-08
1.46958e-08
-0.00025328
2.86123e-08
-4.57665e-09
9.06355e-07
-1.3691e-06
5.83559e-07
-1.19906e-06
7.80543e-07
-9.9151e-05
4.7921e-09
6.35767e-08
9.90827e-05
-1.42094e-08
4.7847e-09
-9.9024e-05
-7.75409e-10
-7.73458e-08
-0.000260642
3.62438e-08
-2.27415e-08
0.00113587
-0.00113515
4.38515e-09
9.11169e-07
7.81052e-07
-1.20188e-06
-1.37244e-06
5.81085e-07
-0.000253664
-6.80092e-08
-1.40228e-07
3.2048e-07
6.91194e-08
0.000253483
4.22233e-07
1.1159e-06
8.52684e-07
-1.25583e-06
6.99898e-08
-5.71426e-07
7.34194e-07
-1.51242e-06
1.32769e-07
-5.18642e-07
-0.000261032
9.523e-10
-2.57429e-07
0.000260805
5.14193e-07
-3.0531e-08
-3.33435e-09
9.06776e-07
-1.36943e-06
5.86288e-07
-1.19658e-06
7.83311e-07
7.412e-09
-2.26098e-08
1.4728e-08
-0.000253272
3.10959e-08
-0.000285133
6.78773e-08
-6.36315e-08
1.79777e-07
-1.33796e-08
0.000284963
-0.000285051
6.80435e-08
-6.34783e-08
1.74892e-07
-1.39519e-08
0.000284886
-1.14777e-06
-1.11035e-06
-0.000274269
8.07918e-08
8.36521e-08
-7.8394e-09
-4.70656e-09
2.13935e-08
-0.000284735
4.91113e-08
-7.65494e-09
-4.65724e-09
2.17377e-08
-0.000284658
5.3596e-08
6.94072e-08
9.93596e-05
-9.94327e-05
7.89742e-09
9.93042e-05
-9.92971e-05
6.73933e-08
9.93487e-05
-9.94201e-05
7.37053e-09
9.92909e-05
-9.9283e-05
7.29156e-08
1.88819e-07
-1.31759e-08
0.00028599
-0.000286169
7.04235e-08
1.90788e-07
-1.30998e-08
0.000285913
-0.000286094
0.00027625
-1.15221e-06
-1.11199e-06
-0.00027413
6.79858e-08
7.61538e-08
0.000285668
-2.00285e-09
2.52617e-08
-0.000285741
5.83481e-08
0.000285592
-1.95203e-09
2.24027e-08
-0.000285663
5.79035e-08
6.14639e-09
-1.40396e-08
9.91788e-05
-9.91709e-05
6.57228e-08
4.69688e-09
9.92338e-05
6.04079e-09
-1.43717e-08
9.91675e-05
-9.91591e-05
6.55193e-08
4.6468e-09
9.92208e-05
1.55922e-06
1.51971e-06
0.000274184
-5.02755e-07
-5.10779e-07
-6.11783e-09
0.000285188
5.35918e-08
-0.000285251
2.18706e-08
-3.44191e-09
0.000285113
5.3392e-08
-0.000285179
2.17886e-08
6.79143e-08
-1.58691e-08
1.85573e-07
0.000285496
6.80445e-08
-1.34114e-08
1.85071e-07
0.000285418
9.36589e-08
0.000237586
-0.00023766
-1.06138e-08
-8.51729e-09
1.5347e-07
-2.03808e-08
0.000197984
-4.19288e-09
-0.000198113
2.76799e-07
0.000237903
-9.48847e-08
-1.37166e-08
-0.000238072
2.8766e-08
0.000197781
-5.10818e-09
-0.000197819
-1.05017e-09
0.000261373
-0.000261302
-2.76756e-08
5.21158e-08
3.40354e-07
7.59835e-08
0.000254376
-0.000254568
0.00113337
3.95443e-09
9.29169e-07
7.77393e-07
-1.21631e-06
-1.38868e-06
5.80492e-07
-0.00113262
4.32851e-07
0.00113317
8.71054e-07
-1.56037e-06
1.35217e-07
-5.32527e-07
-1.2754e-06
6.04654e-08
-5.86956e-07
7.31974e-07
6.76455e-10
0.000261453
-3.38985e-08
5.30968e-07
-0.000261674
0.000254114
2.00735e-08
-0.000254145
4.06844e-08
-3.29109e-09
0.00113412
9.18996e-07
-1.38618e-06
5.82839e-07
-1.21421e-06
7.79765e-07
0.000261344
-0.000261276
-2.6701e-08
5.20818e-08
3.40068e-07
7.62262e-08
0.000254268
-0.000254458
-7.30389e-08
0.00113331
9.23559e-07
7.7719e-07
-1.21628e-06
-1.38842e-06
5.80477e-07
-0.00113255
4.33454e-07
0.00113324
1.14942e-06
8.71505e-07
-1.27522e-06
6.0635e-08
7.31837e-07
-5.8688e-07
-1.55792e-06
1.34875e-07
-5.35563e-07
0.000261427
-3.58189e-08
5.3093e-07
-0.000261644
0.000254006
4.34413e-09
2.0398e-08
-0.000254042
4.04092e-08
0.00113406
9.1909e-07
-1.38584e-06
5.82817e-07
-1.21418e-06
7.79605e-07
-2.08537e-10
2.66943e-07
-9.14041e-08
-1.19618e-08
0.000237464
2.6624e-08
-0.000197564
-4.13289e-09
1.4572e-07
-2.16998e-08
0.000197721
-4.14518e-10
8.5188e-08
-0.000237232
-7.96876e-09
-7.23708e-09
2.66884e-07
-9.13913e-08
-1.27768e-08
0.000237423
2.67508e-08
1.40354e-08
0.000197457
-0.000197494
-3.77959e-09
1.47863e-07
-4.83557e-09
-1.88797e-08
0.000197656
8.51558e-08
0.00023712
-0.00023719
-8.01117e-09
-7.84254e-09
6.81561e-10
-3.17633e-08
5.22699e-07
0.000261148
4.25e-07
8.66538e-07
1.15383e-06
-5.32605e-07
1.36817e-07
7.33884e-07
-5.83132e-07
6.28652e-08
-1.27213e-06
0.000253676
3.43171e-08
-0.000253707
1.73583e-08
-0.00113485
-3.36534e-09
0.0011356
9.15749e-07
-1.38079e-06
5.84646e-07
-1.20694e-06
7.84393e-07
6.99375e-08
3.31746e-07
0.000253926
3.81636e-09
9.20207e-07
7.82118e-07
-1.20923e-06
-1.38357e-06
5.82336e-07
-1.05795e-09
0.000261059
-0.000260991
-2.54921e-08
4.4076e-08
-3.39431e-08
5.22656e-07
0.000261122
4.31103e-07
-1.55667e-06
8.66551e-07
7.33767e-07
-5.82929e-07
-1.27184e-06
6.30061e-08
1.15112e-06
-5.30001e-07
1.33573e-07
3.40358e-09
0.000253568
3.4391e-08
-0.000253597
1.7596e-08
-0.0011348
0.00113553
9.15757e-07
-1.38047e-06
5.84632e-07
-1.20689e-06
7.84331e-07
-7.05008e-08
7.26074e-08
3.315e-07
0.00025382
9.20247e-07
7.81968e-07
-1.20918e-06
-1.38319e-06
5.8232e-07
0.000261029
-0.000260965
-2.43362e-08
4.40402e-08
0.000276233
-0.000274116
7.07548e-08
7.33249e-08
0.000285528
2.28874e-08
-0.000285602
6.06486e-08
-7.93996e-09
0.000285681
2.29618e-08
-0.00028575
5.85259e-08
9.92978e-05
-1.49404e-08
-9.92908e-05
6.55714e-09
-9.91501e-05
6.78627e-08
9.92092e-05
1.51924e-06
0.00027417
-5.05564e-07
-5.07781e-07
0.000285054
5.36214e-08
-0.00028512
2.22276e-08
-3.98237e-09
-6.35738e-09
0.000285199
5.37043e-08
-0.000285265
2.22834e-08
-1.34498e-08
1.85183e-07
0.000285354
-6.54619e-08
7.02321e-08
-1.32399e-08
1.85256e-07
0.000285504
-1.45852e-08
9.91769e-05
-9.91663e-05
4.51389e-09
9.92279e-05
-1.64992e-09
0.000261366
-0.000261295
-2.74491e-08
5.20411e-08
3.37561e-07
7.62268e-08
0.000254336
-0.000254529
0.00113322
2.95848e-09
9.33913e-07
7.77234e-07
-1.21341e-06
-1.38842e-06
5.77721e-07
-0.00113247
4.32134e-07
0.00113416
8.72131e-07
-1.52083e-06
1.29074e-07
-5.30029e-07
-1.27519e-06
6.09204e-08
-5.86816e-07
7.32082e-07
1.83854e-09
0.000261445
-3.52691e-08
5.30826e-07
-0.000261666
0.000254077
2.0076e-08
-0.000254111
4.29557e-08
-4.26065e-09
0.00113397
9.23792e-07
-1.3859e-06
5.80062e-07
-1.21125e-06
7.79623e-07
9.35457e-08
0.000237574
-0.000237648
-1.05608e-08
-8.49552e-09
1.51365e-07
-2.07454e-08
0.000197971
-0.000198097
2.76664e-07
0.000237891
-9.48572e-08
-1.3008e-08
-0.000238059
3.13266e-08
0.000197764
-5.77022e-09
-0.000197804
0.000261334
-0.000261267
5.20329e-08
-2.69634e-08
0.00113317
9.28149e-07
7.77428e-07
-1.21339e-06
-1.38826e-06
5.77794e-07
-0.00113242
-7.30446e-08
3.35108e-07
7.6099e-08
0.000254254
-0.000254441
4.33813e-07
0.00113312
1.14397e-06
8.82021e-07
-1.27508e-06
5.73843e-08
7.32103e-07
-5.84019e-07
-1.5525e-06
1.34998e-07
-5.35486e-07
0.000261418
5.30778e-07
-3.53762e-08
-0.000261635
0.00113391
9.29561e-07
-1.38561e-06
5.80139e-07
-1.21123e-06
7.7995e-07
0.00025399
4.87231e-09
1.97163e-08
-0.000254029
4.60248e-08
2.66802e-07
3.36865e-10
-1.25952e-08
-9.13495e-08
0.000237452
2.65939e-08
-0.000197544
-4.29261e-09
1.45582e-07
-1.9122e-08
0.000197702
8.50724e-08
5.17584e-11
-0.000237219
-7.70442e-09
-7.97514e-09
1.85437e-09
-3.31324e-08
5.22562e-07
0.000261141
4.29713e-07
8.67301e-07
1.11362e-06
-5.2739e-07
1.30689e-07
7.33928e-07
-5.82973e-07
6.32654e-08
-1.27183e-06
0.000253639
3.69617e-08
-0.00025367
1.73719e-08
-0.0011347
-3.95274e-09
0.00113543
9.15283e-07
-1.38054e-06
5.84675e-07
-1.20673e-06
7.84194e-07
7.26343e-08
3.28972e-07
0.000253889
3.05248e-09
9.24981e-07
7.81963e-07
-1.20907e-06
-1.38326e-06
5.82342e-07
-1.60698e-09
0.000261052
-0.000260981
-2.47921e-08
4.11989e-08
2.66776e-07
-9.13476e-08
-1.20636e-08
0.000237411
2.69739e-08
1.45686e-08
0.000197447
-0.000197484
-4.9004e-09
1.45698e-07
-4.51125e-09
-1.94144e-08
0.000197642
8.50721e-08
0.000237109
-0.000237178
-7.98294e-09
-7.4923e-09
5.22554e-07
-3.32231e-08
0.000261113
4.25777e-07
-1.55127e-06
8.66141e-07
7.33977e-07
-5.80109e-07
-1.2717e-06
5.96903e-08
1.14567e-06
-5.32755e-07
1.36676e-07
-0.00113464
0.00113537
9.1536e-07
-1.38033e-06
5.84726e-07
-1.20673e-06
7.84492e-07
6.47624e-09
0.000253552
3.9966e-08
-0.000253588
1.67742e-08
9.25105e-07
7.82221e-07
-1.20906e-06
-1.38302e-06
5.82408e-07
-7.03495e-08
7.23721e-08
3.26434e-07
0.000253807
0.00026102
-0.000260954
4.11849e-08
-2.42081e-08
5.2712e-12
0.000237609
-0.000237686
-8.64541e-09
-8.55081e-09
0.000197828
-5.48024e-09
-0.000197868
-9.37435e-08
0.000261326
-0.000261259
5.21221e-08
-2.73043e-08
4.50012e-07
0.00113275
8.76786e-07
-1.54947e-06
1.35099e-07
-5.32661e-07
-1.26952e-06
5.72536e-08
-5.86558e-07
7.23747e-07
-0.0011322
0.00113376
9.23904e-07
-1.38018e-06
5.77275e-07
-1.20844e-06
7.741e-07
-0.00113302
-3.13528e-08
0.00025403
1.99135e-08
-0.00025407
4.61407e-08
0.00023757
-0.000237645
-1.06583e-08
-8.70879e-09
0.000197768
1.49987e-08
-5.72446e-09
-0.000197808
-2.66739e-07
1.34832e-09
-3.25942e-08
5.22496e-07
0.000261132
4.23884e-07
8.66839e-07
1.1136e-06
-5.2698e-07
1.30932e-07
7.28402e-07
-5.82731e-07
-1.26627e-06
6.30567e-08
-2.45442e-08
3.44508e-08
-0.000253707
1.72594e-08
-0.00113457
-5.8586e-09
9.15133e-07
-1.37494e-06
5.78988e-07
7.76e-07
-1.20395e-06
-1.45473e-07
7.23066e-08
3.31316e-07
0.000253926
-1.67312e-09
9.19548e-07
7.76363e-07
-1.20349e-06
-1.37488e-06
5.79488e-07
-8.53768e-08
-1.57665e-09
-0.000260975
-2.50473e-08
4.42131e-08
4.37285e-11
-1.23958e-08
-9.34756e-08
0.000237448
0.000197513
-0.000197547
-4.55773e-09
-1.91463e-08
0.000197706
1.046e-10
0.000237144
-0.000237215
-7.93887e-09
-6.00416e-09
-2.66816e-07
5.22508e-07
-3.35491e-08
0.000261105
4.36694e-07
-1.551e-06
8.66618e-07
7.25586e-07
-5.79979e-07
-1.26343e-06
5.61966e-08
1.14549e-06
-5.32539e-07
1.36801e-07
-0.0011345
0.00113523
9.1533e-07
-1.3748e-06
5.81851e-07
-1.20395e-06
7.78828e-07
-2.69536e-08
6.39268e-09
0.000253593
3.47154e-08
-0.000253624
1.71285e-08
9.1964e-07
7.76455e-07
-1.20628e-06
-1.37758e-06
5.79535e-07
-1.45715e-07
-7.04038e-08
7.2388e-08
3.28962e-07
0.000253845
-8.52929e-08
0.000261009
-0.000260948
4.69542e-08
-2.44093e-08
-9.13703e-08
-1.24053e-08
0.000237407
1.45352e-08
0.000197451
-0.000197488
-4.81085e-09
-4.46998e-09
-1.94315e-08
0.000197646
0.000237105
-0.000237175
-8.09879e-09
-7.26825e-09
1.86325e-07
-1.35433e-08
0.000285853
-0.000286031
-6.76158e-08
1.88675e-07
-1.36963e-08
0.000285995
-0.000286173
0.000276208
-0.000274105
7.09676e-08
7.59821e-08
0.000285528
2.32165e-08
-0.000285602
6.31649e-08
-7.70054e-09
0.00028567
2.28901e-08
-0.000285741
6.07363e-08
4.19785e-09
9.93554e-05
-9.94272e-05
9.92979e-05
-1.47795e-08
-9.92908e-05
6.28514e-09
-9.91428e-05
6.55529e-08
9.92043e-05
1.51377e-06
0.000274159
-5.05702e-07
-5.10512e-07
0.000285049
5.83508e-08
-0.000285117
2.25333e-08
-5.99473e-09
-6.05415e-09
0.00028519
5.58295e-08
-0.000285259
2.48302e-08
-1.36655e-08
1.80562e-07
0.000285356
-6.54449e-08
7.04139e-08
-1.65095e-08
1.82865e-07
0.000285499
-1.42924e-08
9.91746e-05
-9.91663e-05
4.6622e-09
9.92278e-05
-9.12696e-08
0.000261311
-0.000261247
5.22637e-08
-2.55932e-08
0.00113287
9.57701e-07
7.74043e-07
-1.21079e-06
5.71825e-07
-1.38563e-06
-0.00113227
-1.51394e-07
3.40216e-07
7.623e-08
0.000254252
-7.30409e-08
-0.000254444
3.94062e-07
0.00113372
8.66967e-07
-1.51529e-06
1.2301e-07
-5.32695e-07
-1.27232e-06
6.07951e-08
-5.84148e-07
7.29152e-07
-2.79312e-07
0.000261398
5.33627e-07
-3.54417e-08
-0.000261615
0.00113359
9.24548e-07
-1.38299e-06
5.77012e-07
-1.20589e-06
7.76461e-07
-3.11548e-08
0.000253992
2.00178e-08
-0.000254029
4.30572e-08
9.31441e-11
0.000237602
-0.000237676
-8.45299e-09
-1.07295e-08
-2.04874e-08
0.00019803
-0.000198156
3.11917e-10
0.00023792
-1.3517e-08
-9.49117e-08
-0.000238088
0.000197822
-5.22054e-09
-0.000197863
0.000237562
-0.000237635
-8.11837e-09
-1.06714e-08
-2.06007e-08
0.000197966
-0.000198093
-4.22013e-09
0.000237878
-1.33827e-08
-9.48958e-08
-0.000238049
0.000197759
1.49258e-08
-5.49611e-09
-0.0001978
1.22796e-09
-2.66939e-07
5.20101e-07
-3.28827e-08
0.000261122
4.34903e-07
8.67292e-07
1.10819e-06
-5.26987e-07
1.30946e-07
7.2846e-07
-5.82966e-07
-1.26646e-06
6.3184e-08
-0.00113442
-1.1268e-09
9.1551e-07
-1.37524e-06
5.81646e-07
7.78785e-07
-1.20144e-06
-2.664e-08
3.69756e-08
-0.000253698
1.7319e-08
1.11846e-08
9.20138e-07
7.76445e-07
-1.20655e-06
-1.3779e-06
5.76512e-07
-1.45586e-07
7.25323e-08
3.2892e-07
0.000253917
-7.61782e-10
-8.53914e-08
-0.000260965
4.4331e-08
-2.52254e-08
-2.69394e-07
5.22617e-07
-3.37607e-08
0.000261093
4.24227e-07
-1.51133e-06
8.67486e-07
7.31017e-07
-5.82933e-07
-1.26887e-06
6.323e-08
1.10538e-06
-5.27198e-07
1.30785e-07
-0.00113434
0.00113507
9.15365e-07
-1.37754e-06
5.81672e-07
-1.20131e-06
7.81092e-07
-2.675e-08
6.29918e-09
0.000253555
3.96093e-08
-0.000253591
1.71235e-08
9.19881e-07
7.78834e-07
-1.2064e-06
-1.38033e-06
5.76501e-07
-1.45622e-07
-7.04113e-08
7.25483e-08
3.28937e-07
0.000253807
-8.2789e-08
0.000261
-0.000260936
4.14169e-08
-2.3352e-08
3.04514e-10
-1.26507e-08
-9.13918e-08
0.000237438
0.000197506
-0.000197542
-4.24878e-09
-1.90493e-08
0.000197701
3.17348e-12
0.000237137
-0.000237206
-7.57526e-09
-8.18325e-09
-1.24414e-08
-9.137e-08
0.000237397
1.44398e-08
0.000197442
-0.000197479
-4.54182e-09
-4.58133e-09
-1.92198e-08
0.000197637
0.000237097
-0.000237165
-7.15725e-09
-8.12518e-09
9.92766e-05
-9.92695e-05
9.92723e-05
-9.92652e-05
0.000274129
-5.05269e-07
-5.08301e-07
-6.22753e-09
5.3649e-08
-0.000285197
2.20497e-08
-6.15208e-09
5.8155e-08
-0.00028512
2.24398e-08
-6.56443e-08
-1.32357e-08
1.83032e-07
0.000285438
-6.5488e-08
-1.37974e-08
1.8293e-07
0.000285357
9.91533e-05
-9.9145e-05
9.92065e-05
9.9149e-05
-9.91407e-05
9.92022e-05
6.39144e-08
9.91115e-05
4.49053e-09
-9.90524e-05
6.34119e-08
9.90991e-05
4.4184e-09
-9.90404e-05
6.80422e-08
1.79982e-07
-1.35361e-08
0.000285017
6.80861e-08
1.79601e-07
-1.37557e-08
0.000284942
-1.15877e-06
-1.11853e-06
-0.000274327
8.0665e-08
8.62199e-08
-7.51862e-09
2.0778e-08
-0.000284789
5.13286e-08
-7.3666e-09
2.07617e-08
-0.000284714
4.88603e-08
7.71454e-08
-0.000236741
-5.83853e-09
-6.89706e-09
1.40296e-07
-1.7932e-08
0.00019734
2.57373e-07
0.000236963
-8.82675e-08
-1.19174e-08
2.26768e-08
-3.51139e-09
-0.000197193
-1.03689e-09
-0.000260668
-2.255e-08
3.60156e-08
3.23326e-07
6.90936e-08
0.000253492
0.0011363
3.85642e-09
9.11406e-07
7.86549e-07
-1.20731e-06
-1.37804e-06
5.89709e-07
4.29007e-07
8.52204e-07
-1.5552e-06
1.41617e-07
-5.24276e-07
-1.26149e-06
6.96732e-08
-5.71714e-07
7.39592e-07
7.00889e-10
0.000260831
-2.96931e-08
5.14084e-07
1.45878e-08
-0.000253281
3.12879e-08
-3.40496e-09
9.07285e-07
-1.37507e-06
5.92033e-07
-1.20485e-06
7.89128e-07
-0.000260642
-2.18007e-08
3.60024e-08
-6.52626e-08
3.23089e-07
6.89974e-08
0.000253381
0.00113626
9.11386e-07
7.86668e-07
-1.20727e-06
-1.37769e-06
5.89697e-07
4.23355e-07
1.15608e-06
8.52363e-07
-1.26096e-06
6.65041e-08
7.39595e-07
-5.68708e-07
-1.55259e-06
1.4152e-07
-5.24386e-07
0.000260805
-3.15394e-08
5.14043e-07
4.80322e-09
1.47371e-08
-0.000253173
3.13042e-08
9.07199e-07
-1.37465e-06
5.92015e-07
-1.20479e-06
7.88938e-07
1.79534e-07
-1.30684e-08
0.000284886
-6.57903e-08
1.79621e-07
-1.33828e-08
0.000285031
-0.000274308
8.09242e-08
8.34728e-08
2.36267e-08
-0.000284656
4.89123e-08
-2.45367e-09
2.1533e-08
-0.000284803
4.91194e-08
4.93071e-09
9.91062e-05
-1.41574e-08
-9.90475e-05
-1.56062e-09
-0.000260659
-2.23076e-08
3.3145e-08
3.20514e-07
6.9229e-08
0.000253457
0.00113615
3.3727e-09
9.10949e-07
7.86444e-07
-1.20435e-06
-1.37771e-06
5.86936e-07
4.22827e-07
8.52971e-07
-1.5156e-06
1.35517e-07
-5.19032e-07
-1.26128e-06
7.00072e-08
-5.71454e-07
7.39615e-07
1.91913e-09
0.000260821
-3.10161e-08
5.16677e-07
1.47618e-08
-0.000253246
3.10574e-08
-3.76291e-09
9.06611e-07
-1.37478e-06
5.89208e-07
-1.20184e-06
7.88973e-07
7.70291e-08
-0.000236729
-5.7451e-09
-6.61081e-09
1.40411e-07
-1.83644e-08
0.00019733
2.57292e-07
0.000236951
-8.82443e-08
-1.11434e-08
2.29623e-08
-4.20744e-09
-0.00019718
-0.000260631
3.31116e-08
-2.16544e-08
0.0011361
9.10972e-07
7.86729e-07
-1.20437e-06
-1.37756e-06
5.86967e-07
-6.78748e-08
3.18074e-07
6.89104e-08
0.000253373
4.23434e-07
1.15073e-06
8.51609e-07
-1.26112e-06
6.66323e-08
7.39729e-07
-5.68692e-07
-1.54711e-06
1.41662e-07
-5.24282e-07
0.000260794
5.16683e-07
-3.09848e-08
9.06646e-07
-1.37467e-06
5.89261e-07
-1.20188e-06
7.89108e-07
7.89745e-09
1.41384e-08
-0.000253162
3.4128e-08
1.4379e-10
-0.000236766
-7.11548e-09
-3.76733e-09
-1.80015e-08
0.000197393
1.32302e-10
0.000236988
-1.13051e-08
-9.03709e-08
-3.79571e-09
-0.000197243
-7.7254e-08
-0.000260625
3.89608e-08
-2.16211e-08
0.00113596
9.10884e-07
7.81094e-07
-1.20157e-06
5.84106e-07
-1.37204e-06
-1.40427e-07
3.23158e-07
6.88944e-08
0.000253409
4.23754e-07
8.51993e-07
-1.54415e-06
1.38705e-07
-5.21318e-07
-1.25266e-06
6.31105e-08
-5.658e-07
7.31434e-07
-2.57305e-07
0.000260788
5.11227e-07
-3.13564e-08
9.06562e-07
-1.369e-06
5.86388e-07
-1.19906e-06
7.83364e-07
-2.29489e-08
1.44396e-08
-0.000253198
2.88523e-08
-0.000236725
-5.87251e-09
-6.38837e-09
-4.79495e-09
-1.83364e-08
0.000197334
0.000236947
-8.82654e-08
-1.14941e-08
1.4165e-08
-4.12591e-09
-0.000197184
1.75005e-07
-1.38352e-08
0.000284883
-6.34172e-08
1.77252e-07
-1.67352e-08
0.000285025
-0.000274294
8.11058e-08
8.62893e-08
2.18919e-08
-0.000284655
5.38039e-08
-4.44614e-09
2.40972e-08
-0.000284797
5.12387e-08
4.9989e-09
9.91062e-05
-1.38705e-08
-9.90475e-05
-7.47518e-08
-0.000260613
3.33768e-08
-2.11146e-08
0.0011358
9.11041e-07
7.8333e-07
-1.20172e-06
5.81079e-07
-1.37471e-06
-1.40363e-07
3.18035e-07
6.91056e-08
0.000253376
4.2223e-07
8.52831e-07
-1.50718e-06
1.35714e-07
-5.18836e-07
-1.25812e-06
7.00528e-08
-5.71459e-07
7.36723e-07
-2.59849e-07
0.000260776
5.16716e-07
-3.18608e-08
9.06678e-07
-1.37177e-06
5.86209e-07
-1.19648e-06
7.85898e-07
-2.27613e-08
1.44715e-08
-0.000253165
3.38108e-08
8.36216e-12
-0.000236757
-6.72264e-09
-5.97859e-09
-1.78817e-08
0.000197388
2.4477e-10
0.000236979
-1.18243e-08
-8.82632e-08
-3.47611e-09
-0.000197238
-0.000236715
-6.533e-09
-5.91351e-09
-4.924e-09
-1.81191e-08
0.000197325
0.000236937
-1.15585e-08
-8.82362e-08
1.40709e-08
-3.8444e-09
-0.000197175
9.90849e-05
-9.90262e-05
9.90806e-05
-9.90219e-05
-5.53332e-10
8.64368e-08
0.000145584
-0.000145667
-3.65706e-09
-9.31499e-08
-1.26042e-08
-0.000237868
-4.17566e-10
2.71856e-07
-0.000173728
-3.68242e-11
-3.09502e-10
0.000173718
-0.000230529
-7.37337e-09
-8.53052e-09
0.000230467
7.00278e-08
-0.000173821
-3.70478e-10
-0.000230687
-1.70993e-08
2.48884e-07
-1.25602e-10
0.000145577
-8.03659e-05
-1.37833e-08
-2.10717e-10
8.03799e-05
-6.16381e-08
0.000270221
1.75281e-08
1.99005e-07
-0.000270396
-6.69665e-09
0.000198005
1.7444e-08
3.36617e-08
3.41236e-09
-8.04309e-05
8.82031e-09
0.000270149
4.26249e-08
-0.000145675
-3.07019e-10
8.64998e-09
-1.21151e-08
-8.65386e-09
-2.17574e-10
9.81229e-08
8.86811e-10
0.000173833
-3.06604e-10
-0.000173929
-8.80377e-08
0.000230752
2.53422e-07
-0.000230913
-0.000145759
-2.95579e-10
7.39884e-08
6.04858e-08
8.03157e-05
-0.000269977
1.46668e-08
0.000269908
3.96484e-08
-2.00634e-08
-4.39418e-09
1.48629e-07
1.95416e-07
8.03303e-05
9.93459e-05
-1.52317e-08
6.26883e-09
-9.9337e-05
4.59083e-09
6.88789e-08
8.64087e-08
-1.76887e-10
0.000145583
-0.000145665
-3.96109e-09
-1.32889e-08
-9.3056e-08
-0.000237855
1.92535e-10
2.71713e-07
-0.000230519
-7.25439e-09
-8.70814e-09
0.000230457
6.98385e-08
-0.000173725
-3.99247e-10
1.58349e-10
0.000173715
-0.000230677
-1.74357e-08
2.48777e-07
-0.000173819
1.37464e-10
-2.41809e-10
0.000145576
-8.03677e-05
-1.4242e-08
5.3339e-11
8.03819e-05
-6.15146e-08
0.000270216
1.79261e-08
1.98868e-07
-0.000270392
-5.84786e-09
0.000197989
1.53184e-08
3.32312e-08
3.67925e-09
-8.04329e-05
9.32197e-09
0.000270145
4.23227e-08
-0.000145674
8.52399e-09
3.18385e-11
-8.89127e-09
-1.19899e-08
1.63452e-10
9.79755e-08
-8.79769e-08
0.000230742
2.53327e-07
-0.000230903
5.00436e-10
0.000173831
1.56766e-10
-0.000173926
-0.000145758
7.3851e-08
1.55555e-10
6.0446e-08
8.03175e-05
-0.000269972
1.48739e-08
0.000269904
3.938e-08
-1.99356e-08
-3.85318e-09
1.48266e-07
1.95326e-07
8.03321e-05
9.93382e-05
-1.52545e-08
8.82016e-09
4.34426e-09
6.65662e-08
-4.09761e-08
-4.09152e-08
0.000218973
-0.000219099
1.02359e-07
1.04744e-07
-8.19486e-05
8.48121e-09
-1.72427e-08
8.19574e-05
-8.19366e-05
8.34902e-09
-1.71334e-08
8.19453e-05
-8.20138e-05
2.42042e-08
-8.20017e-05
2.42723e-08
3.85379e-08
3.86465e-08
0.000218913
7.03715e-08
-3.86068e-08
-4.03086e-08
0.00022902
5.75053e-08
-0.000229068
6.33847e-08
2.36004e-08
0.000285864
-8.79718e-09
-0.000285938
-3.86239e-09
0.000260211
7.7946e-08
-0.000260234
7.92698e-08
1.73923e-08
0.000187189
-0.000187221
7.28562e-08
-3.84844e-08
-3.83413e-08
0.000228943
5.7555e-08
-0.000228997
6.32287e-08
2.34304e-08
0.000285779
-8.74604e-09
-3.79905e-09
-0.000285853
0.000260088
7.33239e-08
8.40853e-08
-0.000260109
1.727e-08
0.000187134
-0.000187166
-9.18246e-09
-9.03278e-09
-0.000219159
-8.20056e-05
-8.19935e-05
1.46287e-07
-1.28222e-07
0.000228869
2.35259e-07
-0.000187072
3.48827e-08
0.000187042
1.88296e-07
-1.31158e-08
-6.66886e-08
7.16405e-08
-0.000260027
-6.99787e-08
0.000260007
7.2466e-08
7.86229e-08
3.28205e-07
1.8957e-07
0.000228815
5.73834e-08
1.4631e-07
-1.26184e-07
0.000228797
2.30973e-07
-0.000187018
3.67845e-08
0.000186987
1.8582e-07
-1.37228e-08
-6.6543e-08
7.17253e-08
-0.000259908
-7.23294e-08
0.00025989
7.00211e-08
8.09592e-08
3.22985e-07
1.89518e-07
0.000228745
5.51509e-08
7.99292e-10
8.07301e-08
0.000145247
-0.000145323
-4.73569e-09
-8.68731e-08
-1.1011e-08
-0.000236937
-3.09647e-10
2.52798e-07
-0.000173342
-1.09684e-09
-1.71708e-10
-0.000229693
-2.86003e-09
-6.81554e-09
5.52933e-08
-0.000173427
-1.86709e-10
-0.000229839
-1.56061e-08
2.31718e-07
-6.89679e-10
-8.01729e-05
-1.6671e-08
6.6047e-10
8.0189e-05
-5.75569e-08
0.000269284
1.61303e-08
-0.000269446
1.85254e-07
-3.96589e-09
0.000197373
1.40844e-08
2.48264e-08
4.56692e-09
-8.02351e-05
7.39508e-09
0.000269225
3.12916e-08
-0.000145328
9.49826e-10
3.93638e-09
-6.87535e-09
-6.97265e-09
-1.32387e-10
8.11392e-08
-4.6156e-10
0.000173433
-0.000173521
-2.79674e-10
-8.20328e-08
0.000229894
-0.000230043
2.35911e-07
-0.000145405
-1.50476e-10
5.89255e-08
5.67504e-08
8.01275e-05
-0.000269066
1.73006e-08
2.86276e-08
-1.76541e-08
-5.04277e-09
1.37852e-07
1.8203e-07
9.9097e-05
-1.38703e-08
5.86725e-09
5.28795e-09
6.27509e-08
8.06414e-08
1.0915e-09
0.000145245
-0.000145322
-4.9023e-09
-1.15766e-08
-8.68398e-08
-0.000236925
2.51679e-10
2.52701e-07
-0.000229682
-2.78503e-09
-7.10238e-09
5.51872e-08
-0.000173339
-1.37762e-09
1.72388e-10
-0.000229829
-1.58449e-08