/*--------------------------------*- C++ -*----------------------------------*\
| =========                 |                                                 |
| \\      /  F ield         | OpenFOAM: The Open Source CFD Toolbox           |
|  \\    /   O peration     | Version:  2312                                  |
|   \\  /    A nd           | Website:  www.openfoam.com                      |
|    \\/     M anipulation  |                                                 |
\*---------------------------------------------------------------------------*/
FoamFile
{
    version     2.0;
    format      ascii;
    arch        "LSB;label=32;scalar=64";
    class       volVectorField;
    location    "350";
    object      U;
}
// * * * * * * * * * * * * * * * * * * * * * * * * * * * * * * * * * * * * * //

dimensions      [0 1 -1 0 0 0 0];

internalField   nonuniform List<vector> 
43008
(
(6.34944e-05 6.35269e-05 0.108289)
(5.91314e-05 -9.55662e-05 0.107557)
(6.22784e-05 6.22903e-05 0.108604)
(-9.36519e-05 5.81352e-05 0.107771)
(5.81153e-05 -9.3697e-05 0.107771)
(-0.000149553 -0.000149569 0.106584)
(0.000152329 0.000152388 0.106508)
(1.26096e-05 1.27349e-05 0.106725)
(5.93067e-05 9.55195e-05 0.107557)
(-5.9387e-05 9.56327e-05 0.107557)
(5.85768e-05 9.41953e-05 0.107719)
(-5.86061e-05 9.42547e-05 0.107719)
(-1.26133e-05 1.26633e-05 0.106725)
(9.55412e-05 5.92463e-05 0.107557)
(9.55504e-05 -5.93729e-05 0.107557)
(9.41844e-05 5.85114e-05 0.107719)
(9.41454e-05 -5.85739e-05 0.107718)
(-9.41163e-05 5.84082e-05 0.107719)
(-9.40629e-05 -5.85438e-05 0.107718)
(0.000152364 -0.000152419 0.106508)
(1.26333e-05 -1.2586e-05 0.106725)
(-5.92022e-05 -9.55783e-05 0.107557)
(5.83691e-05 -9.41472e-05 0.107719)
(-5.84315e-05 -9.41887e-05 0.107719)
(-1.26805e-05 -1.26057e-05 0.106724)
(0.000149515 0.000149536 0.106585)
(5.83236e-05 9.37495e-05 0.107771)
(-5.83366e-05 9.3784e-05 0.10777)
(-0.000149499 0.000149477 0.106585)
(9.37324e-05 5.82488e-05 0.107771)
(9.36933e-05 -5.83031e-05 0.10777)
(-9.3598e-05 -5.82668e-05 0.10777)
(0.000149514 -0.000149541 0.106585)
(-5.81632e-05 -9.37296e-05 0.10777)
(2.02807e-06 2.08683e-05 0.0947508)
(-2.86189e-06 3.83136e-05 0.0840942)
(2.73943e-06 7.04682e-05 0.0947942)
(-5.22836e-06 -1.21204e-06 0.0840813)
(5.90495e-06 -4.86086e-06 0.0725367)
(2.08114e-05 2.19231e-06 0.094751)
(3.82867e-05 -2.77118e-06 0.0840946)
(7.04336e-05 2.90937e-06 0.0947943)
(-1.31612e-06 -5.3343e-06 0.0840818)
(-6.35098e-05 6.349e-05 0.108289)
(6.34671e-05 -6.35533e-05 0.108289)
(-6.35232e-05 -6.35728e-05 0.108289)
(6.2577e-05 6.25914e-05 0.108526)
(-6.25675e-05 6.25503e-05 0.108526)
(6.25313e-05 -6.25957e-05 0.108526)
(-6.25794e-05 -6.26207e-05 0.108526)
(-6.21771e-05 6.37488e-06 0.103006)
(-9.50422e-05 5.8939e-05 0.107612)
(-3.03141e-05 2.13029e-06 0.0963714)
(-0.000104292 2.10798e-05 0.108127)
(1.63864e-05 -3.42286e-06 0.0725065)
(-4.73732e-06 5.97355e-06 0.0725356)
(6.28646e-06 -6.21529e-05 0.103005)
(2.1243e-05 -0.000104803 0.108055)
(3.08816e-05 -7.53125e-05 0.0963598)
(5.88801e-05 -9.50915e-05 0.107612)
(7.56314e-06 -0.000126245 0.102968)
(2.11043e-05 -0.000104392 0.108127)
(2.1679e-06 -3.02367e-05 0.0963692)
(-1.41593e-05 -1.40579e-05 0.106681)
(-1.56794e-05 2.05459e-06 0.0899645)
(2.02197e-06 -1.56413e-05 0.0899614)
(1.55792e-06 1.5312e-05 0.094385)
(-1.89236e-06 3.52012e-05 0.0838208)
(2.27716e-06 6.36167e-05 0.0944192)
(-4.55428e-06 -3.30747e-06 0.0838166)
(-3.43737e-06 1.56104e-05 0.0723246)
(5.66335e-06 -5.16545e-06 0.0723585)
(1.52653e-05 1.72243e-06 0.0943851)
(3.51848e-05 -1.94996e-06 0.0838212)
(6.36171e-05 2.42796e-06 0.0944193)
(-3.33273e-06 -4.50899e-06 0.0838169)
(-6.2259e-05 6.22483e-05 0.108604)
(6.22313e-05 -6.22891e-05 0.108604)
(-6.22757e-05 -6.23133e-05 0.108604)
(-5.54078e-05 5.22056e-06 0.102755)
(-6.98063e-05 2.83669e-05 0.0960254)
(-0.000103131 2.06443e-05 0.108337)
(-9.31774e-05 5.78626e-05 0.107822)
(-0.00011852 6.54068e-06 0.102724)
(-2.56047e-05 7.28345e-07 0.0960416)
(-0.000102754 2.05065e-05 0.108405)
(1.55885e-05 -3.45434e-06 0.0723245)
(-5.14471e-06 5.79354e-06 0.0723577)
(5.15382e-06 -5.54139e-05 0.102754)
(2.06814e-05 -0.000103228 0.108337)
(2.84576e-05 -6.98296e-05 0.0960264)
(5.78356e-05 -9.32144e-05 0.107822)
(6.64788e-06 -0.000118617 0.102724)
(2.0541e-05 -0.000102826 0.108406)
(7.81089e-07 -2.54946e-05 0.0960395)
(-3.43369e-05 -1.82374e-05 0.0896679)
(-1.82587e-05 -3.42983e-05 0.0896671)
(-1.12314e-05 -1.11571e-05 0.106761)
(-1.31276e-05 2.67566e-06 0.0896666)
(2.60699e-06 -1.30595e-05 0.0896634)
(3.3876e-06 1.63115e-05 0.0725068)
(-6.07328e-06 -4.79636e-06 0.0725362)
(1.62811e-05 3.37144e-06 0.0725058)
(-4.98519e-06 -6.20862e-06 0.0725357)
(1.94944e-05 3.69252e-05 0.0899751)
(3.68905e-05 1.9412e-05 0.0899725)
(1.40304e-05 1.41708e-05 0.106682)
(-2.09424e-06 1.565e-05 0.0899655)
(1.54009e-05 -2.09915e-06 0.0899631)
(-5.59717e-06 -4.99307e-06 0.0724451)
(3.49401e-06 1.6026e-05 0.0724135)
(-5.02553e-06 -5.84973e-06 0.0724447)
(1.58793e-05 3.35745e-06 0.0724123)
(0.000150987 0.000151037 0.10655)
(-2.27267e-06 1.4341e-05 0.0898128)
(1.42522e-05 -2.34702e-06 0.0898107)
(1.88427e-05 3.56907e-05 0.0898185)
(3.55245e-05 1.88059e-05 0.0898156)
(-2.25277e-06 2.08531e-05 0.0947509)
(2.73604e-06 3.81876e-05 0.0840943)
(-3.00708e-06 7.0454e-05 0.0947944)
(5.07881e-06 -1.2745e-06 0.0840815)
(6.28388e-06 6.21155e-05 0.103005)
(3.08343e-05 7.53794e-05 0.0963592)
(2.12735e-05 0.000104742 0.108055)
(5.90693e-05 9.50874e-05 0.107612)
(7.43669e-06 0.000126254 0.102968)
(2.07396e-06 3.0352e-05 0.0963693)
(2.11342e-05 0.000104344 0.108127)
(-6.42598e-06 6.21121e-05 0.103006)
(-3.09131e-05 7.52738e-05 0.0963585)
(-2.12787e-05 0.000104761 0.108055)
(-5.91487e-05 9.51803e-05 0.107612)
(-7.64018e-06 0.000126253 0.102969)
(-2.25336e-06 3.02604e-05 0.0963684)
(-2.11488e-05 0.000104359 0.108127)
(2.48672e-06 6.6929e-05 0.0946025)
(-4.66795e-06 -2.44056e-06 0.0839454)
(-2.26918e-06 3.67027e-05 0.0839539)
(1.77158e-06 1.79474e-05 0.0945637)
(-2.74008e-06 6.69147e-05 0.0946027)
(4.60321e-06 -2.34614e-06 0.0839454)
(2.23504e-06 3.66524e-05 0.0839543)
(-2.00336e-06 1.79435e-05 0.0945637)
(6.9838e-06 0.000122429 0.102849)
(5.88349e-05 9.46637e-05 0.107666)
(1.45397e-06 2.78026e-05 0.0962017)
(2.08513e-05 0.000103579 0.108268)
(2.96278e-05 7.25787e-05 0.0961899)
(2.09919e-05 0.000103964 0.108198)
(5.67475e-06 5.8693e-05 0.102882)
(-7.17829e-06 0.000122434 0.102849)
(-5.88723e-05 9.4723e-05 0.107666)
(-1.51096e-06 2.79073e-05 0.0962004)
(-2.08596e-05 0.000103586 0.108268)
(-2.96877e-05 7.25377e-05 0.0961895)
(-2.1005e-05 0.000103973 0.108198)
(-5.82224e-06 5.86833e-05 0.102882)
(-1.40853e-05 1.41341e-05 0.106682)
(1.94582e-06 1.5593e-05 0.0899631)
(-1.57018e-05 -2.09565e-06 0.089967)
(4.74929e-06 -5.95548e-06 0.0725388)
(5.70654e-06 -4.82452e-06 0.0724454)
(-3.48146e-06 1.59194e-05 0.0724133)
(-0.00015099 0.000150966 0.10655)
(2.39588e-06 1.44724e-05 0.0898104)
(-1.43415e-05 -2.41571e-06 0.0898146)
(-1.88605e-05 3.5583e-05 0.0898154)
(-3.55801e-05 1.88012e-05 0.0898169)
(5.02137e-06 -5.8488e-06 0.072448)
(-1.59589e-05 3.4148e-06 0.0724109)
(6.20683e-05 6.38755e-06 0.103006)
(7.52869e-05 3.09021e-05 0.0963592)
(0.000104714 2.1265e-05 0.108055)
(9.50876e-05 5.90057e-05 0.107612)
(0.000126183 7.56597e-06 0.102968)
(3.01588e-05 2.06233e-06 0.0963688)
(0.000104304 2.11288e-05 0.108127)
(2.08133e-05 -2.07232e-06 0.0947509)
(3.83369e-05 2.75075e-06 0.084094)
(7.04344e-05 -2.8056e-06 0.0947941)
(-1.14603e-06 5.23083e-06 0.0840809)
(6.20826e-05 -6.30647e-06 0.103006)
(0.000104725 -2.13082e-05 0.108055)
(7.53331e-05 -3.09081e-05 0.0963588)
(9.5073e-05 -5.91217e-05 0.107612)
(0.000126178 -7.54359e-06 0.102968)
(0.000104309 -2.117e-05 0.108127)
(3.03366e-05 -2.04337e-06 0.0963673)
(6.68865e-05 2.65148e-06 0.0946026)
(-2.38828e-06 -4.78167e-06 0.0839459)
(3.664e-05 -2.32974e-06 0.0839542)
(1.79107e-05 1.95598e-06 0.0945639)
(0.000122375 7.10907e-06 0.102849)
(9.4652e-05 5.87653e-05 0.107666)
(2.77842e-05 1.44215e-06 0.0962013)
(0.000103537 2.08553e-05 0.108268)
(7.25044e-05 2.96496e-05 0.0961896)
(0.000103924 2.09914e-05 0.108198)
(5.86816e-05 5.79519e-06 0.102883)
(6.68903e-05 -2.55256e-06 0.0946024)
(-2.23108e-06 4.91923e-06 0.083945)
(3.67217e-05 2.36657e-06 0.0839537)
(1.79133e-05 -1.78641e-06 0.0945637)
(0.000122376 -7.0723e-06 0.102849)
(9.46119e-05 -5.88593e-05 0.107666)
(0.000103527 -2.08745e-05 0.108268)
(2.78959e-05 -1.28684e-06 0.0961998)
(0.000103909 -2.10214e-05 0.108198)
(7.25454e-05 -2.95955e-05 0.0961894)
(5.86876e-05 -5.68264e-06 0.102882)
(-2.09201e-05 2.23437e-06 0.0947519)
(1.20612e-06 -5.18377e-06 0.0840833)
(-6.21301e-05 -6.33822e-06 0.103005)
(-9.50109e-05 -5.90766e-05 0.107612)
(-0.000104278 -2.12147e-05 0.108127)
(-3.03812e-05 -2.11402e-06 0.096369)
(-2.08922e-05 -2.04855e-06 0.0947507)
(1.17752e-06 5.21896e-06 0.084081)
(-0.000122346 6.99658e-06 0.102849)
(-9.45873e-05 5.86727e-05 0.107666)
(-2.7879e-05 1.38581e-06 0.0962039)
(-0.000103509 2.07885e-05 0.108267)
(-7.24527e-05 2.9557e-05 0.0961895)
(-0.000103896 2.09301e-05 0.108198)
(-5.87588e-05 5.79661e-06 0.102883)
(-6.68783e-05 2.55576e-06 0.0946011)
(2.34104e-06 -4.86659e-06 0.0839475)
(-3.66547e-05 -2.31083e-06 0.0839529)
(-1.8025e-05 1.98548e-06 0.0945647)
(-0.000122368 -7.12044e-06 0.102849)
(-9.45446e-05 -5.88204e-05 0.107666)
(-0.000103505 -2.09235e-05 0.108267)
(-2.80099e-05 -1.3687e-06 0.0962015)
(-0.000103886 -2.10704e-05 0.108197)
(-7.25256e-05 -2.96105e-05 0.0961892)
(-5.87076e-05 -5.72763e-06 0.102882)
(-6.6911e-05 -2.62051e-06 0.094602)
(2.28804e-06 4.89627e-06 0.083945)
(-3.67626e-05 2.3794e-06 0.0839533)
(-1.80045e-05 -1.77503e-06 0.0945634)
(3.69662e-05 -1.94398e-05 0.0899728)
(1.94464e-05 -3.69299e-05 0.0899748)
(1.4078e-05 -1.4061e-05 0.106681)
(1.56729e-05 2.03899e-06 0.0899612)
(-1.96679e-06 -1.56214e-05 0.0899653)
(3.42838e-06 -1.63881e-05 0.0725067)
(-5.89599e-06 4.80559e-06 0.0725364)
(-4.95363e-06 5.87984e-06 0.0724446)
(1.59781e-05 -3.44283e-06 0.0724134)
(0.000151002 -0.000151055 0.10655)
(1.43544e-05 2.35994e-06 0.0898087)
(-2.26153e-06 -1.42745e-05 0.0898127)
(3.56066e-05 -1.88037e-05 0.0898162)
(1.88602e-05 -3.55375e-05 0.0898181)
(-5.78012e-06 5.04131e-06 0.0724454)
(3.4962e-06 -1.59667e-05 0.0724135)
(-6.39533e-06 -6.21549e-05 0.103005)
(-2.12993e-05 -0.000104759 0.108055)
(-3.09312e-05 -7.53784e-05 0.0963586)
(-5.89351e-05 -9.51194e-05 0.107612)
(-7.54671e-06 -0.000126222 0.102967)
(-2.11567e-05 -0.000104339 0.108127)
(-2.12331e-06 -3.02407e-05 0.0963676)
(2.12449e-06 -2.09313e-05 0.0947501)
(-2.70839e-06 -3.82977e-05 0.0840946)
(2.89604e-06 -7.04827e-05 0.0947931)
(-5.10327e-06 1.26572e-06 0.0840814)
(-2.11903e-06 -2.09022e-05 0.0947505)
(2.72048e-06 -3.83151e-05 0.0840941)
(-2.85158e-06 -7.04721e-05 0.0947925)
(5.16447e-06 1.1846e-06 0.0840808)
(7.09272e-06 -0.000122444 0.102849)
(5.86293e-05 -9.46311e-05 0.107666)
(2.08211e-05 -0.00010359 0.108268)
(1.45304e-06 -2.77931e-05 0.0962017)
(2.09601e-05 -0.000104005 0.108197)
(2.9619e-05 -7.24881e-05 0.0961904)
(5.72275e-06 -5.87747e-05 0.102881)
(-7.0677e-06 -0.000122399 0.102848)
(-5.86945e-05 -9.46615e-05 0.107666)
(-2.08721e-05 -0.000103555 0.108267)
(-1.3778e-06 -2.77679e-05 0.0961999)
(-2.10104e-05 -0.000103969 0.108197)
(-2.96356e-05 -7.25342e-05 0.0961894)
(-5.75515e-06 -5.87657e-05 0.102882)
(2.66279e-06 -6.69359e-05 0.0946013)
(-4.77159e-06 2.37573e-06 0.0839455)
(-2.28032e-06 -3.66743e-05 0.0839542)
(1.88555e-06 -1.80324e-05 0.0945629)
(-2.58748e-06 -6.69334e-05 0.0946007)
(4.83517e-06 2.30655e-06 0.0839449)
(2.32749e-06 -3.6688e-05 0.0839538)
(-1.85213e-06 -1.8006e-05 0.0945633)
(4.75644e-06 5.97813e-06 0.0725362)
(5.95109e-06 4.75651e-06 0.0725354)
(-0.000151057 -0.000151066 0.10655)
(-1.43531e-05 2.38385e-06 0.089812)
(2.34614e-06 -1.42842e-05 0.0898088)
(-3.56452e-05 -1.88343e-05 0.0898171)
(-1.88444e-05 -3.56063e-05 0.0898161)
(4.98256e-06 5.8765e-06 0.0724452)
(-1.60078e-05 -3.41878e-06 0.0724129)
(5.84353e-06 4.98157e-06 0.0724443)
(-3.47078e-06 -1.59549e-05 0.0724131)
(3.60915e-06 1.56575e-05 0.0723245)
(-5.69926e-06 -5.21541e-06 0.0723583)
(1.55568e-05 3.48299e-06 0.0723236)
(-5.24589e-06 -5.6966e-06 0.0723578)
(1.82969e-05 3.44299e-05 0.0896695)
(3.42738e-05 1.82953e-05 0.0896665)
(1.11802e-05 1.13053e-05 0.106762)
(-2.54551e-06 1.30445e-05 0.0896672)
(1.30145e-05 -2.54133e-06 0.0896653)
(-1.73852e-06 1.53176e-05 0.094385)
(1.96566e-06 3.52249e-05 0.0838213)
(-2.50237e-06 6.36246e-05 0.0944193)
(4.49542e-06 -3.3085e-06 0.0838165)
(5.09976e-06 5.53316e-05 0.102755)
(2.84901e-05 6.99362e-05 0.0960258)
(2.07118e-05 0.000103215 0.108337)
(5.8051e-05 9.32852e-05 0.107821)
(6.53353e-06 0.000118606 0.102725)
(7.38429e-07 2.55405e-05 0.0960394)
(2.0571e-05 0.000102843 0.108406)
(-5.21939e-06 5.53411e-05 0.102755)
(-2.84394e-05 6.98814e-05 0.0960256)
(-2.0713e-05 0.000103212 0.108337)
(-5.80551e-05 9.32938e-05 0.107821)
(-6.70073e-06 0.000118609 0.102725)
(-7.66981e-07 2.55675e-05 0.0960382)
(-2.05704e-05 0.000102833 0.108406)
(-1.80869e-05 3.42956e-05 0.0896663)
(-3.4273e-05 1.82161e-05 0.0896678)
(-1.12008e-05 1.1253e-05 0.106762)
(2.52326e-06 1.30899e-05 0.0896651)
(-1.30901e-05 -2.67691e-06 0.0896691)
(-1.55217e-05 3.43097e-06 0.0723221)
(5.24541e-06 -5.7239e-06 0.0723612)
(5.53407e-05 5.20394e-06 0.102755)
(6.98579e-05 2.84991e-05 0.0960255)
(0.000103164 2.07209e-05 0.108337)
(9.32582e-05 5.79772e-05 0.107822)
(0.000118562 6.65595e-06 0.102724)
(2.547e-05 7.89144e-07 0.0960391)
(0.000102785 2.05797e-05 0.108406)
(1.52642e-05 -1.54001e-06 0.094385)
(3.52707e-05 2.06001e-06 0.0838208)
(6.36227e-05 -2.29167e-06 0.0944191)
(-3.19355e-06 4.66788e-06 0.0838162)
(5.53327e-05 -5.05299e-06 0.102755)
(0.000103148 -2.07206e-05 0.108337)
(6.99237e-05 -2.84028e-05 0.0960255)
(9.32212e-05 -5.80125e-05 0.107821)
(0.000118568 -6.56809e-06 0.102724)
(0.000102779 -2.05737e-05 0.108406)
(2.56038e-05 -5.91657e-07 0.0960377)
(-1.53722e-05 1.75872e-06 0.0943858)
(-3.51681e-05 -1.98358e-06 0.0838198)
(-6.36004e-05 2.32472e-06 0.0944177)
(3.30836e-06 -4.59251e-06 0.0838186)
(-5.53444e-05 -5.11889e-06 0.102754)
(-0.000103126 -2.07719e-05 0.108337)
(-6.99088e-05 -2.84093e-05 0.096025)
(-9.31166e-05 -5.79823e-05 0.107821)
(-0.000118551 -6.64152e-06 0.102725)
(-0.000102754 -2.06247e-05 0.108405)
(-2.57196e-05 -6.56715e-07 0.0960394)
(-1.53529e-05 -1.52751e-06 0.0943846)
(-3.5299e-05 2.05592e-06 0.0838203)
(-6.36389e-05 -2.36415e-06 0.0944185)
(3.25207e-06 4.64532e-06 0.0838161)
(3.43319e-05 -1.82233e-05 0.0896672)
(1.82937e-05 -3.42338e-05 0.089669)
(1.11843e-05 -1.11165e-05 0.106761)
(1.31261e-05 2.6586e-06 0.0896634)
(-2.522e-06 -1.30413e-05 0.0896674)
(3.52532e-06 -1.55689e-05 0.0723246)
(-5.66106e-06 5.24429e-06 0.0723586)
(-5.16459e-06 -5.54214e-05 0.102754)
(-2.07261e-05 -0.000103202 0.108337)
(-2.84692e-05 -6.99051e-05 0.0960254)
(-5.78864e-05 -9.32548e-05 0.107821)
(-6.58512e-06 -0.000118572 0.102723)
(-2.05802e-05 -0.000102799 0.108405)
(-7.01456e-07 -2.54709e-05 0.0960378)
(1.65274e-06 -1.5392e-05 0.0943842)
(-1.94522e-06 -3.52023e-05 0.0838212)
(2.43955e-06 -6.36437e-05 0.0944178)
(-4.49508e-06 3.33722e-06 0.0838165)
(-1.60089e-06 -1.53542e-05 0.0943846)
(1.99818e-06 -3.52272e-05 0.0838208)
(-2.33865e-06 -6.36306e-05 0.0944172)
(4.58872e-06 3.24015e-06 0.083816)
(-1.56151e-05 -3.44908e-06 0.072324)
(5.17899e-06 5.77531e-06 0.0723582)
(-3.49939e-06 -1.55674e-05 0.0723242)
(5.74971e-06 5.16879e-06 0.0723575)
(-1.19132e-06 1.33321e-05 0.0780383)
(2.59972e-06 6.86646e-05 0.0946973)
(1.66636e-07 -1.02498e-05 0.0799123)
(4.14378e-06 1.39637e-05 0.0928157)
(2.01492e-08 8.40241e-06 0.0798528)
(6.35904e-06 5.91634e-05 0.0927532)
(1.24876e-07 -6.13243e-06 0.0781088)
(2.29869e-06 -6.66312e-06 0.0694213)
(5.29364e-06 3.91924e-05 0.0880753)
(-5.61229e-06 -6.24764e-07 0.0841521)
(8.41889e-07 1.24734e-05 0.0693268)
(3.66339e-06 3.66759e-06 0.0881439)
(-1.4016e-07 -6.23474e-06 0.0781575)
(2.15919e-06 2.24127e-05 0.0948475)
(-6.69394e-08 8.16777e-06 0.0799015)
(6.57459e-06 6.0685e-05 0.0928432)
(-1.43313e-06 1.3249e-05 0.0780871)
(8.3554e-08 -1.0484e-05 0.0799607)
(4.32976e-06 1.52421e-05 0.0929054)
(8.83558e-07 1.23527e-05 0.0692835)
(3.62338e-06 2.9452e-06 0.0880645)
(-2.56719e-06 3.7518e-05 0.0840231)
(5.24954e-06 3.8279e-05 0.0879954)
(2.37708e-06 -6.71834e-06 0.0693779)
(5.97102e-06 -4.75239e-06 0.072584)
(-3.41244e-06 1.61285e-05 0.0724591)
(1.33171e-05 -9.70217e-07 0.0780389)
(6.86348e-05 2.77924e-06 0.0946974)
(1.39093e-05 4.27177e-06 0.0928161)
(-1.02853e-05 3.29409e-07 0.0799129)
(5.91456e-05 6.53411e-06 0.0927536)
(8.36413e-06 2.18766e-07 0.0798531)
(-6.17686e-06 2.38534e-07 0.0781095)
(-6.75327e-06 2.41672e-06 0.0694222)
(3.91675e-05 5.45892e-06 0.0880759)
(-6.63012e-07 -5.31845e-06 0.0841526)
(1.24856e-05 9.72312e-07 0.0693277)
(3.56851e-06 3.83343e-06 0.0881444)
(-6.27309e-06 2.10751e-08 0.0781581)
(2.23628e-05 2.33766e-06 0.0948477)
(6.06622e-05 6.73689e-06 0.0928436)
(8.14198e-06 1.26422e-07 0.0799018)
(1.32399e-05 -1.24011e-06 0.0780876)
(1.51944e-05 4.50843e-06 0.0929058)
(-1.05162e-05 2.67696e-07 0.0799612)
(1.23727e-05 1.03237e-06 0.0692845)
(2.83249e-06 3.6597e-06 0.0880651)
(3.74324e-05 -2.64176e-06 0.0840235)
(3.82679e-05 5.29982e-06 0.087996)
(-6.79991e-06 2.43383e-06 0.0693786)
(-4.61698e-06 6.02929e-06 0.0725827)
(1.61751e-05 -3.43663e-06 0.0724594)
(-2.75508e-05 -2.75054e-05 0.0856507)
(-4.26775e-07 6.30699e-06 0.0695837)
(6.25634e-06 -3.84795e-07 0.0695769)
(-1.00564e-05 -1.19861e-05 0.0695013)
(-1.2001e-05 -1.00531e-05 0.0694949)
(-8.52221e-06 -8.45983e-06 0.085704)
(-1.61884e-05 -2.08889e-05 0.0946915)
(-1.63741e-05 1.87489e-06 0.0900437)
(-3.2868e-05 -3.5457e-05 0.10001)
(-1.2478e-05 7.02791e-06 0.0834761)
(-2.08768e-05 -1.61012e-05 0.0946827)
(1.8504e-06 -1.63535e-05 0.0900406)
(-3.53694e-05 -3.2876e-05 0.100005)
(6.99103e-06 -1.24314e-05 0.0834698)
(-9.00818e-06 -8.92557e-06 0.0857765)
(-5.9098e-07 6.306e-06 0.0696321)
(6.24952e-06 -5.42182e-07 0.0696253)
(-6.92377e-05 -4.42403e-05 0.0945368)
(-1.20084e-05 6.91145e-06 0.0834102)
(-3.63124e-05 -1.91243e-05 0.0898945)
(-3.16916e-05 -3.4192e-05 0.099931)
(-9.96339e-05 -6.26655e-05 0.0998516)
(-3.08014e-05 -5.73346e-06 0.0833396)
(-1.53875e-05 -1.99719e-05 0.0946079)
(-4.42778e-05 -6.91937e-05 0.0945289)
(6.87529e-06 -1.1943e-05 0.0834039)
(-1.91479e-05 -3.62846e-05 0.0898933)
(-3.40898e-05 -3.16804e-05 0.0999266)
(-6.26504e-05 -9.96243e-05 0.0998483)
(-5.77821e-06 -3.08406e-05 0.0833353)
(-1.99463e-05 -1.53037e-05 0.0945991)
(-2.81178e-07 1.35846e-05 0.077857)
(2.15995e-06 6.20899e-05 0.0943307)
(3.67704e-07 -9.14903e-06 0.079735)
(3.38347e-06 9.49182e-06 0.0924797)
(3.04519e-07 9.44443e-06 0.0796748)
(5.67236e-06 5.37654e-05 0.0924158)
(7.80928e-07 -5.80481e-06 0.0779275)
(2.43399e-06 -6.98891e-06 0.0692535)
(4.92132e-06 3.57802e-05 0.0877691)
(-4.59714e-06 -2.80533e-06 0.0838801)
(1.03765e-06 1.19861e-05 0.0691601)
(3.2134e-06 9.91554e-07 0.0878394)
(6.89201e-07 -5.87782e-06 0.077971)
(1.6933e-06 1.66057e-05 0.0944733)
(2.67794e-07 9.15845e-06 0.079717)
(5.84153e-06 5.50176e-05 0.0924968)
(-4.99719e-07 1.35225e-05 0.0779003)
(3.67269e-07 -9.44617e-06 0.0797771)
(3.60272e-06 1.05463e-05 0.0925604)
(1.17597e-06 1.19952e-05 0.0691215)
(3.02109e-06 4.14644e-07 0.0877686)
(-1.83421e-06 3.45506e-05 0.0837571)
(4.77839e-06 3.51157e-05 0.087698)
(2.43035e-06 -7.01842e-06 0.0692143)
(5.7431e-06 -5.0779e-06 0.0724012)
(-3.60622e-06 1.55291e-05 0.0722815)
(1.35601e-05 -1.8642e-07 0.0778573)
(6.20866e-05 2.31639e-06 0.0943307)
(9.46221e-06 3.50625e-06 0.0924798)
(-9.16362e-06 5.02569e-07 0.0797354)
(5.37347e-05 5.77797e-06 0.092416)
(9.43074e-06 4.36673e-07 0.079675)
(-5.82789e-06 8.88467e-07 0.0779279)
(-6.96706e-06 2.54055e-06 0.0692544)
(3.58077e-05 5.02222e-06 0.0877697)
(-2.86889e-06 -4.64772e-06 0.0838805)
(1.20939e-05 1.23454e-06 0.0691612)
(9.3614e-07 3.28326e-06 0.0878399)
(-5.90983e-06 7.6405e-07 0.0779715)
(1.65675e-05 1.83814e-06 0.0944735)
(5.49856e-05 5.9677e-06 0.0924971)
(9.15373e-06 4.0361e-07 0.0797173)
(1.35088e-05 -3.45574e-07 0.0779008)
(1.0493e-05 3.69982e-06 0.0925607)
(-9.45543e-06 4.80288e-07 0.0797776)
(1.20054e-05 1.27796e-06 0.0691222)
(3.74211e-07 3.13083e-06 0.0877689)
(3.45249e-05 -1.80522e-06 0.0837574)
(3.50651e-05 4.88328e-06 0.0876984)
(-7.01115e-06 2.54007e-06 0.069215)
(-5.05294e-06 5.83824e-06 0.0724006)
(1.54051e-05 -3.45697e-06 0.0722816)
(-2.5577e-05 -2.55537e-05 0.0853784)
(2.38637e-07 6.24205e-06 0.0694008)
(6.21947e-06 2.60576e-07 0.0693941)
(-9.45437e-06 -1.16974e-05 0.0693187)
(-1.16803e-05 -9.47166e-06 0.0693124)
(-6.78435e-06 -6.73541e-06 0.0854334)
(-1.30042e-05 -1.73883e-05 0.0943684)
(-9.5345e-05 -5.89222e-05 0.0996207)
(-2.93909e-05 -5.95304e-06 0.0831504)
(-1.37331e-05 2.52747e-06 0.0897384)
(-6.61362e-05 -4.15024e-05 0.0942967)
(-2.83935e-05 -3.06759e-05 0.0996998)
(-1.05705e-05 6.56996e-06 0.0832212)
(-1.73346e-05 -1.29065e-05 0.0943595)
(-5.89163e-05 -9.52839e-05 0.0996177)
(-5.97858e-06 -2.94246e-05 0.0831461)
(2.47748e-06 -1.36622e-05 0.0897352)
(-4.14986e-05 -6.60646e-05 0.0942889)
(-3.05112e-05 -2.82993e-05 0.0996953)
(6.55046e-06 -1.05038e-05 0.083215)
(-7.18499e-06 -7.13906e-06 0.0854984)
(-9.60681e-06 -1.17701e-05 0.0693628)
(-1.17515e-05 -9.6233e-06 0.0693565)
(-2.60409e-05 -2.60176e-05 0.0854438)
(8.04413e-08 6.25876e-06 0.069445)
(6.23579e-06 1.03686e-07 0.0694383)
(-6.51376e-05 -4.06245e-05 0.0942204)
(-1.01081e-05 6.47337e-06 0.083161)
(-3.3722e-05 -1.7967e-05 0.089596)
(-2.73339e-05 -2.9542e-05 0.0996243)
(-9.39825e-05 -5.77409e-05 0.0995454)
(-2.89287e-05 -6.0197e-06 0.0830901)
(-1.22798e-05 -1.66017e-05 0.0942921)
(-4.06467e-05 -6.50912e-05 0.0942126)
(6.45099e-06 -1.00425e-05 0.0831548)
(-1.79936e-05 -3.36873e-05 0.0895952)
(-2.93778e-05 -2.72412e-05 0.0996198)
(-5.77397e-05 -9.3925e-05 0.0995424)
(-6.04257e-06 -2.89596e-05 0.0830858)
(-1.65291e-05 -1.21605e-05 0.0942833)
(-6.29166e-06 -4.86578e-06 0.0725835)
(3.37796e-06 1.61457e-05 0.0724593)
(-4.54672e-06 -5.98286e-06 0.0725831)
(1.61094e-05 3.33541e-06 0.0724588)
(2.74226e-05 2.75253e-05 0.0856507)
(-6.27613e-06 4.16293e-07 0.0695844)
(2.91799e-07 -6.16286e-06 0.0695776)
(1.19039e-05 1.00371e-05 0.0695013)
(1.00162e-05 1.19923e-05 0.0694946)
(8.38436e-06 8.52515e-06 0.0857054)
(2.07852e-05 1.6062e-05 0.0946927)
(6.39776e-05 0.000101108 0.0999309)
(5.75368e-06 3.13114e-05 0.0834072)
(-1.99507e-06 1.6196e-05 0.0900446)
(4.51521e-05 7.03341e-05 0.0946212)
(-7.12642e-06 1.23733e-05 0.0834776)
(3.53295e-05 3.28067e-05 0.10001)
(1.61071e-05 2.07716e-05 0.0946846)
(0.000100944 6.39253e-05 0.0999266)
(3.12013e-05 5.60552e-06 0.083401)
(1.63703e-05 -1.9104e-06 0.0900425)
(7.01302e-05 4.52158e-05 0.0946124)
(1.23975e-05 -7.1404e-06 0.0834717)
(3.276e-05 3.53446e-05 0.100007)
(8.78895e-06 8.77202e-06 0.0857779)
(1.21485e-05 1.03958e-05 0.0695501)
(1.01026e-05 1.21185e-05 0.0695433)
(2.79014e-05 2.81599e-05 0.0857238)
(-6.39154e-06 3.97588e-07 0.0696332)
(4.16728e-07 -6.53719e-06 0.0696262)
(4.41669e-05 6.92242e-05 0.0945372)
(-6.85747e-06 1.19583e-05 0.0834114)
(1.90896e-05 3.63181e-05 0.0898957)
(3.41054e-05 3.17002e-05 0.0999318)
(5.65917e-06 3.08062e-05 0.0833407)
(1.99486e-05 1.53575e-05 0.0946091)
(6.263e-05 9.96865e-05 0.0998524)
(6.90732e-05 4.42473e-05 0.0945287)
(1.18068e-05 -6.81085e-06 0.0834057)
(3.61495e-05 1.91145e-05 0.0898932)
(3.15479e-05 3.4107e-05 0.0999285)
(3.07671e-05 5.80835e-06 0.083335)
(1.52099e-05 1.99597e-05 0.0946009)
(9.94257e-05 6.26031e-05 0.0998483)
(3.53225e-06 1.57931e-05 0.0723684)
(-6.01876e-06 -4.95854e-06 0.0724902)
(1.57516e-05 3.45583e-06 0.0723675)
(-4.90471e-06 -5.92795e-06 0.0724896)
(7.9841e-06 8.02499e-06 0.085635)
(1.18974e-05 9.96621e-06 0.0694541)
(9.881e-06 1.20144e-05 0.0694474)
(2.69564e-05 2.70953e-05 0.0855798)
(-6.25377e-06 2.1391e-07 0.0695372)
(1.81166e-07 -6.27277e-06 0.0695303)
(4.23639e-05 6.71888e-05 0.0943756)
(3.17636e-05 2.94814e-05 0.0997767)
(1.85592e-05 3.505e-05 0.089743)
(-6.64551e-06 1.10524e-05 0.083284)
(5.91419e-06 2.9905e-05 0.0832134)
(6.01689e-05 9.6846e-05 0.099698)
(1.82079e-05 1.38012e-05 0.0944476)
(6.70322e-05 4.24365e-05 0.0943669)
(2.93789e-05 3.17557e-05 0.0997735)
(3.49038e-05 1.85368e-05 0.0897402)
(1.09562e-05 -6.63114e-06 0.0832783)
(2.98518e-05 5.97197e-06 0.0832073)
(9.66374e-05 6.01639e-05 0.0996935)
(1.36704e-05 1.82059e-05 0.0944395)
(1.90726e-05 1.45321e-05 0.0945274)
(5.85206e-06 3.03644e-05 0.0832763)
(6.13904e-05 9.82568e-05 0.0997748)
(-2.23581e-06 1.49227e-05 0.0898882)
(4.32762e-05 6.82282e-05 0.0944554)
(-6.72832e-06 1.14616e-05 0.083347)
(3.28985e-05 3.05408e-05 0.0998539)
(1.4482e-05 1.90564e-05 0.0945193)
(3.02862e-05 5.89566e-06 0.0832702)
(9.8051e-05 6.13833e-05 0.0997705)
(1.49098e-05 -2.23964e-06 0.089886)
(6.80386e-05 4.33653e-05 0.0944468)
(1.14353e-05 -6.75464e-06 0.0833412)
(3.04908e-05 3.29216e-05 0.0998506)
(2.64942e-05 2.65879e-05 0.085511)
(-6.37753e-06 5.68724e-08 0.069491)
(-1.45277e-08 -6.27573e-06 0.069484)
(1.18409e-05 9.79774e-06 0.0694082)
(9.77635e-06 1.19091e-05 0.0694013)
(7.49898e-06 7.59542e-06 0.0855665)
(7.93583e-07 1.33126e-05 0.0780384)
(-2.8885e-06 6.86522e-05 0.0946975)
(-3.95688e-07 -1.02678e-05 0.0799125)
(-4.34402e-06 1.39155e-05 0.0928155)
(-3.23254e-07 8.38114e-06 0.0798529)
(-6.6505e-06 5.91512e-05 0.0927543)
(-3.59077e-07 -6.17839e-06 0.0781085)
(-2.50826e-06 -6.7372e-06 0.0694235)
(-5.51451e-06 3.91166e-05 0.0880773)
(5.28688e-06 -6.81288e-07 0.0841522)
(-1.01881e-06 1.24288e-05 0.0693301)
(-3.93228e-06 3.60875e-06 0.0881444)
(-1.37204e-07 -6.25405e-06 0.0781572)
(-2.38704e-06 2.2392e-05 0.0948476)
(-2.35487e-07 8.14652e-06 0.0799016)
(-6.82035e-06 6.06603e-05 0.0928443)
(-3.4138e-07 -1.05069e-05 0.0799608)
(1.13809e-06 1.32261e-05 0.0780871)
(-4.56519e-06 1.52196e-05 0.0929052)
(-1.1857e-06 1.2434e-05 0.0692866)
(-3.77707e-06 2.86783e-06 0.0880651)
(2.44129e-06 3.74594e-05 0.0840234)
(-5.47291e-06 3.82957e-05 0.0879974)
(-2.56143e-06 -6.76027e-06 0.06938)
(3.4168e-07 -6.04848e-06 0.0780615)
(1.05909e-07 8.63105e-06 0.0798059)
(6.16972e-06 5.7707e-05 0.0926655)
(1.89602e-06 1.93786e-05 0.0946562)
(-9.5254e-07 1.33896e-05 0.077991)
(2.20523e-07 -1.00046e-05 0.0798657)
(3.92497e-06 1.27299e-05 0.0927284)
(9.74464e-07 1.21445e-05 0.0692006)
(-1.99325e-06 3.59195e-05 0.0838866)
(3.31363e-06 1.33843e-06 0.0879123)
(2.17473e-06 -7.2021e-06 0.0692939)
(5.09124e-06 3.6475e-05 0.0878426)
(2.4254e-06 -6.73925e-06 0.0693355)
(5.176e-06 3.73483e-05 0.0879179)
(-5.03627e-06 -1.80719e-06 0.0840125)
(9.50158e-07 1.22075e-05 0.0692414)
(3.49653e-06 2.28064e-06 0.0879875)
(-7.78431e-07 1.34425e-05 0.0779451)
(2.36059e-06 6.52532e-05 0.0945098)
(2.50053e-07 -9.73968e-06 0.0798207)
(3.6828e-06 1.15601e-05 0.0926433)
(2.85786e-07 -6.03326e-06 0.0780156)
(1.53814e-07 8.89602e-06 0.0797607)
(5.94384e-06 5.62902e-05 0.0925801)
(-5.13314e-07 -6.09964e-06 0.0780612)
(-3.6486e-07 8.62205e-06 0.079806)
(-6.41604e-06 5.76699e-05 0.0926665)
(-2.11308e-06 1.93677e-05 0.0946562)
(6.44023e-07 1.33573e-05 0.077991)
(-4.44858e-07 -1.00094e-05 0.0798658)
(-4.13118e-06 1.26897e-05 0.0927281)
(-1.23807e-06 1.21715e-05 0.0692033)
(2.0478e-06 3.59217e-05 0.0838869)
(-3.54721e-06 1.52934e-06 0.0879128)
(-5.21331e-06 3.65742e-05 0.0878444)
(-2.60227e-06 -6.91253e-06 0.0692961)
(-2.56071e-06 -6.86937e-06 0.0693375)
(-5.33079e-06 3.73938e-05 0.0879198)
(4.89207e-06 -1.84931e-06 0.0840124)
(-1.18169e-06 1.22612e-05 0.0692444)
(-3.63184e-06 2.20451e-06 0.0879879)
(4.39505e-07 1.34323e-05 0.077945)
(-2.61594e-06 6.52335e-05 0.09451)
(-5.16457e-07 -9.72797e-06 0.0798208)
(-3.95124e-06 1.15531e-05 0.092643)
(-4.20049e-07 8.88848e-06 0.0797608)
(-6.23035e-06 5.62936e-05 0.092581)
(-7.10211e-07 -5.99363e-06 0.0780152)
(-2.75884e-05 2.74862e-05 0.085651)
(6.22614e-06 2.99713e-07 0.0695783)
(-4.50011e-07 -6.37202e-06 0.0695838)
(-1.20722e-05 1.00565e-05 0.0694953)
(-1.00504e-05 1.19644e-05 0.0695009)
(-8.55644e-06 8.34527e-06 0.085705)
(-2.09179e-05 1.60312e-05 0.0946838)
(1.78149e-06 1.62798e-05 0.0900422)
(6.92051e-06 1.23784e-05 0.0834713)
(-3.54495e-05 3.27847e-05 0.100006)
(-1.62023e-05 2.07969e-05 0.0946929)
(-1.63906e-05 -1.93611e-06 0.090046)
(-3.2926e-05 3.53287e-05 0.100011)
(-1.24876e-05 -7.10783e-06 0.0834775)
(-9.04649e-06 8.82097e-06 0.0857774)
(6.1976e-06 4.63819e-07 0.0696266)
(-6.31216e-07 -6.37702e-06 0.0696322)
(-4.4316e-05 6.91107e-05 0.0945285)
(6.80172e-06 1.19246e-05 0.0834056)
(-1.91562e-05 3.62513e-05 0.0898926)
(-3.42107e-05 3.16305e-05 0.0999278)
(-5.83561e-06 3.0767e-05 0.0833344)
(-6.26395e-05 9.95413e-05 0.0998481)
(-1.99991e-05 1.5236e-05 0.0946003)
(-6.92258e-05 4.42149e-05 0.0945375)
(-1.20081e-05 -6.984e-06 0.0834116)
(-3.626e-05 1.91195e-05 0.0898944)
(-3.1765e-05 3.40729e-05 0.0999328)
(-9.95425e-05 6.26172e-05 0.0998522)
(-3.07725e-05 5.75074e-06 0.0833403)
(-1.53853e-05 1.98838e-05 0.0946093)
(4.61834e-06 -6.01777e-06 0.0725857)
(-1.61626e-05 3.40719e-06 0.0724573)
(-3.4977e-06 1.57772e-05 0.0723683)
(5.8221e-06 -4.95341e-06 0.0724903)
(-8.10217e-06 7.83953e-06 0.0856345)
(-1.19805e-05 9.92566e-06 0.0694481)
(-9.90975e-06 1.18823e-05 0.0694537)
(-2.70732e-05 2.69781e-05 0.0855802)
(6.27381e-06 8.82005e-08 0.069531)
(-2.92999e-07 -6.38197e-06 0.0695365)
(-4.24224e-05 6.6999e-05 0.0943666)
(-3.17708e-05 2.93864e-05 0.0997728)
(-1.85196e-05 3.49636e-05 0.08974)
(6.71365e-06 1.10014e-05 0.0832786)
(-6.00977e-05 9.66751e-05 0.0996935)
(-5.93321e-06 2.98375e-05 0.0832067)
(-1.81809e-05 1.36029e-05 0.0944389)
(-6.71357e-05 4.23312e-05 0.0943758)
(-2.95008e-05 3.16635e-05 0.0997778)
(-3.49146e-05 1.85047e-05 0.0897414)
(-1.10438e-05 -6.76579e-06 0.0832842)
(-2.98383e-05 5.89248e-06 0.0832127)
(-9.67112e-05 6.01182e-05 0.0996976)
(-1.378e-05 1.80956e-05 0.0944477)
(-1.9088e-05 1.44093e-05 0.0945187)
(-5.90392e-06 3.03054e-05 0.0832698)
(-6.13746e-05 9.81034e-05 0.0997704)
(2.15207e-06 1.49382e-05 0.0898857)
(-3.29749e-05 3.04869e-05 0.0998499)
(-4.33481e-05 6.80332e-05 0.0944466)
(6.75041e-06 1.14532e-05 0.0833413)
(-1.45646e-05 1.89614e-05 0.0945275)
(-3.03058e-05 5.82981e-06 0.0832758)
(-9.81135e-05 6.13567e-05 0.0997745)
(-1.50128e-05 -2.26107e-06 0.0898899)