0 	1.19079e-15 	-4.6728e-16 	5.21614e-08
0.010101 	1.5509e-12 	5.56025e-13 	4.56354e-05
0.020202 	3.10101e-12 	1.11331e-12 	9.12181e-05
0.030303 	3.33581e-12 	-2.07132e-14 	9.98094e-05
0.040404 	3.27252e-12 	-1.53804e-12 	0.000100017
0.0505051 	3.01539e-12 	-2.32321e-12 	0.000100152
0.0606061 	2.38771e-12 	-1.72342e-12 	0.000100151
0.0707071 	1.76003e-12 	-1.12362e-12 	0.000100149
0.0808081 	1.13234e-12 	-5.23826e-13 	0.000100148
0.0909091 	5.04661e-13 	7.59693e-14 	0.000100146
0.10101 	2.06598e-13 	4.08101e-13 	0.000100145
0.111111 	2.94524e-13 	4.25824e-13 	0.000100145
0.121212 	3.8245e-13 	4.43547e-13 	0.000100145
0.131313 	4.70376e-13 	4.6127e-13 	0.000100145
0.141414 	5.58302e-13 	4.78993e-13 	0.000100145
0.151515 	6.5958e-13 	5.08725e-13 	0.000100145
0.161616 	7.73263e-13 	5.49615e-13 	0.000100145
0.171717 	8.86946e-13 	5.90505e-13 	0.000100145
0.181818 	1.00063e-12 	6.31395e-13 	0.000100145
0.191919 	1.11431e-12 	6.72285e-13 	0.000100145
0.20202 	1.19073e-12 	6.89744e-13 	0.000100145
0.212121 	1.23575e-12 	6.87469e-13 	0.000100145
0.222222 	1.28076e-12 	6.85195e-13 	0.000100145
0.232323 	1.32578e-12 	6.82917e-13 	0.000100145
0.242424 	1.3708e-12 	6.80637e-13 	0.000100145
0.252525 	1.41582e-12 	6.78357e-13 	0.000100145
0.262626 	1.46084e-12 	6.76077e-13 	0.000100145
0.272727 	1.50586e-12 	6.73797e-13 	0.000100145
0.282828 	1.55088e-12 	6.71518e-13 	0.000100145
0.292929 	1.5959e-12 	6.69238e-13 	0.000100145
0.30303 	1.62484e-12 	7.01813e-13 	0.000100145
0.313131 	1.64016e-12 	7.6395e-13 	0.000100145
0.323232 	1.65549e-12 	8.26087e-13 	0.000100145
0.333333 	1.67081e-12 	8.88224e-13 	0.000100145
0.343434 	1.68613e-12 	9.50361e-13 	0.000100145
0.353535 	1.70145e-12 	1.0125e-12 	0.000100145
0.363636 	1.71678e-12 	1.07463e-12 	0.000100145
0.373737 	1.7321e-12 	1.13677e-12 	0.000100145
0.383838 	1.74742e-12 	1.19891e-12 	0.000100145
0.393939 	1.76274e-12 	1.26105e-12 	0.000100145
0.40404 	1.76768e-12 	1.33109e-12 	0.000100145
0.414141 	1.76333e-12 	1.40824e-12 	0.000100145
0.424242 	1.75898e-12 	1.48539e-12 	0.000100145
0.434343 	1.75464e-12 	1.56254e-12 	0.000100145
0.444444 	1.75029e-12 	1.63969e-12 	0.000100145
0.454545 	1.74594e-12 	1.71684e-12 	0.000100145
0.464646 	1.74159e-12 	1.79399e-12 	0.000100145
0.474747 	1.73724e-12 	1.87114e-12 	0.000100145
0.484848 	1.73289e-12 	1.94829e-12 	0.000100145
0.494949 	1.72854e-12 	2.02544e-12 	0.000100145
0.505051 	1.71473e-12 	2.07787e-12 	0.000100145
0.515152 	1.69145e-12 	2.10558e-12 	0.000100145
0.525253 	1.66818e-12 	2.1333e-12 	0.000100145
0.535354 	1.64491e-12 	2.16101e-12 	0.000100145
0.545455 	1.62163e-12 	2.18873e-12 	0.000100145
0.555556 	1.59836e-12 	2.21644e-12 	0.000100145
0.565657 	1.57508e-12 	2.24416e-12 	0.000100145
0.575758 	1.55181e-12 	2.27187e-12 	0.000100145
0.585859 	1.52854e-12 	2.29959e-12 	0.000100145
0.59596 	1.50526e-12 	2.3273e-12 	0.000100145
0.606061 	1.4891e-12 	2.34179e-12 	0.000100145
0.616162 	1.48095e-12 	2.34155e-12 	0.000100145
0.626263 	1.47279e-12 	2.34132e-12 	0.000100145
0.636364 	1.46464e-12 	2.34109e-12 	0.000100145
0.646465 	1.45649e-12 	2.34086e-12 	0.000100145
0.656566 	1.44833e-12 	2.34063e-12 	0.000100145
0.666667 	1.44018e-12 	2.34039e-12 	0.000100145
0.676768 	1.43203e-12 	2.34016e-12 	0.000100145
0.686869 	1.42388e-12 	2.33993e-12 	0.000100145
0.69697 	1.41572e-12 	2.3397e-12 	0.000100145
0.707071 	1.61417e-12 	2.23055e-12 	0.000100145
0.717172 	2.05989e-12 	1.99347e-12 	0.000100145
0.727273 	2.50561e-12 	1.75638e-12 	0.000100145
0.737374 	2.95133e-12 	1.5193e-12 	0.000100145
0.747475 	3.39705e-12 	1.28222e-12 	0.000100145
0.757576 	3.84277e-12 	1.04513e-12 	0.000100145
0.767677 	4.28849e-12 	8.0805e-13 	0.000100145
0.777778 	4.73421e-12 	5.70967e-13 	0.000100145
0.787879 	5.17993e-12 	3.33883e-13 	0.000100145
0.79798 	5.62541e-12 	9.67935e-14 	0.000100145
0.808081 	5.77367e-12 	-5.29783e-13 	0.000100145
0.818182 	5.57125e-12 	-1.61601e-12 	0.000100145
0.828283 	5.36883e-12 	-2.70225e-12 	0.000100145
0.838384 	5.16641e-12 	-3.78848e-12 	0.000100145
0.848485 	4.96399e-12 	-4.87471e-12 	0.000100145
0.858586 	4.5382e-12 	-5.35634e-12 	0.000100145
0.868687 	3.87377e-12 	-5.19212e-12 	0.000100145
0.878788 	3.20935e-12 	-5.0279e-12 	0.000100145
0.888889 	2.54492e-12 	-4.86367e-12 	0.000100145
0.89899 	1.8805e-12 	-4.69945e-12 	0.000100145
0.909091 	2.08274e-12 	-3.86795e-12 	0.000100146
0.919192 	3.02213e-12 	-2.47057e-12 	0.000100148
0.929293 	3.96153e-12 	-1.07318e-12 	0.000100149
0.939394 	4.90092e-12 	3.24208e-13 	0.000100151
0.949495 	5.84031e-12 	1.7216e-12 	0.000100152
0.959596 	6.04064e-12 	8.39554e-13 	0.000100017
0.969697 	5.85623e-12 	-1.23456e-12 	9.98089e-05
0.979798 	5.21751e-12 	-2.67033e-12 	9.11095e-05
0.989899 	2.60534e-12 	-1.33333e-12 	4.55247e-05
