/*--------------------------------*- C++ -*----------------------------------*\
| =========                 |                                                 |
| \\      /  F ield         | OpenFOAM: The Open Source CFD Toolbox           |
|  \\    /   O peration     | Version:                                        |
|   \\  /    A nd           | Website:  www.openfoam.com                      |
|    \\/     M anipulation  |                                                 |
\*---------------------------------------------------------------------------*/
FoamFile
{
    version     2.0;
    format      ascii;
    class       volScalarField;
    location    "10100.5";
    object      p;
}
// * * * * * * * * * * * * * * * * * * * * * * * * * * * * * * * * * * * * * //

dimensions      [0 2 -2 0 0 0 0];


internalField   nonuniform List<scalar> 
247096
(
1.34369e-07
1.34372e-07
1.34516e-07
1.34602e-07
1.34635e-07
1.34593e-07
1.34502e-07
1.34348e-07
1.34372e-07
1.34571e-07
1.34747e-07
1.3484e-07
1.34863e-07
1.34833e-07
1.34729e-07
1.34546e-07
1.34516e-07
1.34747e-07
1.34887e-07
1.34929e-07
1.34935e-07
1.34926e-07
1.34877e-07
1.3472e-07
1.34488e-07
1.34602e-07
1.3484e-07
1.34929e-07
1.3494e-07
1.34938e-07
1.3494e-07
1.34924e-07
1.34818e-07
1.34569e-07
1.34369e-07
1.34635e-07
1.34863e-07
1.34935e-07
1.34938e-07
1.34934e-07
1.34939e-07
1.34932e-07
1.34843e-07
1.346e-07
1.34593e-07
1.34833e-07
1.34926e-07
1.3494e-07
1.34939e-07
1.3494e-07
1.34921e-07
1.3481e-07
1.3456e-07
1.34502e-07
1.34729e-07
1.34877e-07
1.34924e-07
1.34932e-07
1.34921e-07
1.34865e-07
1.34701e-07
1.34476e-07
1.34348e-07
1.34546e-07
1.3472e-07
1.34818e-07
1.34843e-07
1.3481e-07
1.34701e-07
1.34524e-07
1.34488e-07
1.34569e-07
1.346e-07
1.3456e-07
1.34476e-07
1.31569e-07
1.31545e-07
1.31553e-07
1.31401e-07
1.31411e-07
1.31429e-07
1.3141e-07
1.31601e-07
1.31541e-07
1.31553e-07
1.31417e-07
1.31217e-07
1.31236e-07
1.31236e-07
1.31217e-07
1.31475e-07
1.31425e-07
1.31401e-07
1.31217e-07
1.31253e-07
1.31275e-07
1.31275e-07
1.31253e-07
1.31217e-07
1.31542e-07
1.31592e-07
1.31569e-07
1.31411e-07
1.31236e-07
1.31275e-07
1.31298e-07
1.31298e-07
1.31275e-07
1.31236e-07
1.3157e-07
1.31609e-07
1.31545e-07
1.31429e-07
1.31236e-07
1.31275e-07
1.31298e-07
1.31298e-07
1.31275e-07
1.31236e-07
1.31572e-07
1.31431e-07
1.3141e-07
1.31217e-07
1.31253e-07
1.31275e-07
1.31275e-07
1.31253e-07
1.31217e-07
1.31565e-07
1.31617e-07
1.31601e-07
1.31475e-07
1.31217e-07
1.31236e-07
1.31236e-07
1.31217e-07
1.31559e-07
1.31482e-07
1.316e-07
1.31541e-07
1.31425e-07
1.31542e-07
1.3157e-07
1.31572e-07
1.31565e-07
1.31482e-07
1.31612e-07
1.31592e-07
1.31609e-07
1.31431e-07
1.31617e-07
1.316e-07
1.29892e-07
1.29882e-07
1.29891e-07
1.29759e-07
1.29757e-07
1.29764e-07
1.29759e-07
1.2992e-07
1.29885e-07
1.29891e-07
1.29752e-07
1.29538e-07
1.29547e-07
1.29547e-07
1.29538e-07
1.29778e-07
1.29774e-07
1.29759e-07
1.29538e-07
1.29561e-07
1.29569e-07
1.29569e-07
1.29561e-07
1.29538e-07
1.29824e-07
1.29916e-07
1.29892e-07
1.29757e-07
1.29547e-07
1.29569e-07
1.29579e-07
1.29579e-07
1.29569e-07
1.29547e-07
1.2983e-07
1.29911e-07
1.29882e-07
1.29764e-07
1.29547e-07
1.29569e-07
1.29579e-07
1.29579e-07
1.29569e-07
1.29547e-07
1.2983e-07
1.29779e-07
1.29759e-07
1.29538e-07
1.29561e-07
1.29569e-07
1.29569e-07
1.29561e-07
1.29538e-07
1.2983e-07
1.29918e-07
1.2992e-07
1.29778e-07
1.29538e-07
1.29547e-07
1.29547e-07
1.29538e-07
1.29808e-07
1.298e-07
1.29922e-07
1.29885e-07
1.29774e-07
1.29824e-07
1.2983e-07
1.2983e-07
1.2983e-07
1.298e-07
1.29928e-07
1.29916e-07
1.29911e-07
1.29779e-07
1.29918e-07
1.29922e-07
1.28419e-07
1.28408e-07
1.28417e-07
1.28291e-07
1.28288e-07
1.28294e-07
1.28289e-07
1.28443e-07
1.28413e-07
1.28417e-07
1.28286e-07
1.28097e-07
1.28101e-07
1.28101e-07
1.28097e-07
1.28314e-07
1.28309e-07
1.28291e-07
1.28097e-07
1.28108e-07
1.28109e-07
1.28109e-07
1.28108e-07
1.28097e-07
1.28359e-07
1.28443e-07
1.28419e-07
1.28288e-07
1.28101e-07
1.28109e-07
1.28111e-07
1.28111e-07
1.28109e-07
1.28101e-07
1.28361e-07
1.28439e-07
1.28408e-07
1.28294e-07
1.28101e-07
1.28109e-07
1.28111e-07
1.28111e-07
1.28109e-07
1.28101e-07
1.28359e-07
1.28314e-07
1.28289e-07
1.28097e-07
1.28108e-07
1.28109e-07
1.28109e-07
1.28108e-07
1.28097e-07
1.28361e-07
1.28444e-07
1.28443e-07
1.28314e-07
1.28097e-07
1.28101e-07
1.28101e-07
1.28097e-07
1.28345e-07
1.28333e-07
1.28447e-07
1.28413e-07
1.28309e-07
1.28359e-07
1.28361e-07
1.28359e-07
1.28361e-07
1.28333e-07
1.28456e-07
1.28443e-07
1.28439e-07
1.28314e-07
1.28444e-07
1.28447e-07
1.27012e-07
1.27001e-07
1.27011e-07
1.26885e-07
1.26881e-07
1.26887e-07
1.26883e-07
1.27036e-07
1.27007e-07
1.27011e-07
1.26881e-07
1.26697e-07
1.26698e-07
1.26698e-07
1.26697e-07
1.26909e-07
1.26904e-07
1.26885e-07
1.26697e-07
1.26702e-07
1.26701e-07
1.26701e-07
1.26702e-07
1.26697e-07
1.26955e-07
1.27037e-07
1.27012e-07
1.26881e-07
1.26698e-07
1.26701e-07
1.26701e-07
1.26701e-07
1.26701e-07
1.26698e-07
1.26956e-07
1.27032e-07
1.27001e-07
1.26887e-07
1.26698e-07
1.26701e-07
1.26701e-07
1.26701e-07
1.26701e-07
1.26698e-07
1.26953e-07
1.26908e-07
1.26883e-07
1.26697e-07
1.26702e-07
1.26701e-07
1.26701e-07
1.26702e-07
1.26697e-07
1.26955e-07
1.27037e-07
1.27036e-07
1.26909e-07
1.26697e-07
1.26698e-07
1.26698e-07
1.26697e-07
1.26939e-07
1.26928e-07
1.2704e-07
1.27007e-07
1.26904e-07
1.26955e-07
1.26956e-07
1.26953e-07
1.26955e-07
1.26928e-07
1.27049e-07
1.27037e-07
1.27032e-07
1.26908e-07
1.27037e-07
1.2704e-07
1.25611e-07
1.256e-07
1.2561e-07
1.25484e-07
1.2548e-07
1.25486e-07
1.25482e-07
1.25635e-07
1.25606e-07
1.2561e-07
1.2548e-07
1.25295e-07
1.25295e-07
1.25295e-07
1.25295e-07
1.25508e-07
1.25503e-07
1.25484e-07
1.25295e-07
1.25299e-07
1.25298e-07
1.25298e-07
1.25299e-07
1.25295e-07
1.25555e-07
1.25636e-07
1.25611e-07
1.2548e-07
1.25295e-07
1.25298e-07
1.25297e-07
1.25297e-07
1.25298e-07
1.25295e-07
1.25555e-07
1.25632e-07
1.256e-07
1.25486e-07
1.25295e-07
1.25298e-07
1.25297e-07
1.25297e-07
1.25298e-07
1.25295e-07
1.25552e-07
1.25508e-07
1.25482e-07
1.25295e-07
1.25299e-07
1.25298e-07
1.25298e-07
1.25299e-07
1.25295e-07
1.25554e-07
1.25637e-07
1.25635e-07
1.25508e-07
1.25295e-07
1.25295e-07
1.25295e-07
1.25295e-07
1.25538e-07
1.25528e-07
1.2564e-07
1.25606e-07
1.25503e-07
1.25555e-07
1.25555e-07
1.25552e-07
1.25554e-07
1.25528e-07
1.25649e-07
1.25636e-07
1.25632e-07
1.25508e-07
1.25637e-07
1.2564e-07
1.24208e-07
1.24197e-07
1.24207e-07
1.24081e-07
1.24077e-07
1.24082e-07
1.24079e-07
1.24232e-07
1.24203e-07
1.24207e-07
1.24076e-07
1.23891e-07
1.23892e-07
1.23892e-07
1.23891e-07
1.24105e-07
1.241e-07
1.24081e-07
1.23891e-07
1.23895e-07
1.23894e-07
1.23894e-07
1.23895e-07
1.23891e-07
1.24152e-07
1.24233e-07
1.24208e-07
1.24077e-07
1.23892e-07
1.23894e-07
1.23893e-07
1.23893e-07
1.23894e-07
1.23892e-07
1.24152e-07
1.24228e-07
1.24197e-07
1.24082e-07
1.23892e-07
1.23894e-07
1.23893e-07
1.23893e-07
1.23894e-07
1.23892e-07
1.24149e-07
1.24104e-07
1.24079e-07
1.23891e-07
1.23895e-07
1.23894e-07
1.23894e-07
1.23895e-07
1.23891e-07
1.24151e-07
1.24234e-07
1.24232e-07
1.24105e-07
1.23891e-07
1.23892e-07
1.23892e-07
1.23891e-07
1.24135e-07
1.24124e-07
1.24237e-07
1.24203e-07
1.241e-07
1.24152e-07
1.24152e-07
1.24149e-07
1.24151e-07
1.24124e-07
1.24246e-07
1.24233e-07
1.24228e-07
1.24104e-07
1.24234e-07
1.24237e-07
1.22804e-07
1.22793e-07
1.22803e-07
1.22677e-07
1.22672e-07
1.22678e-07
1.22675e-07
1.22828e-07
1.22799e-07
1.22803e-07
1.22672e-07
1.22486e-07
1.22487e-07
1.22487e-07
1.22486e-07
1.227e-07
1.22695e-07
1.22677e-07
1.22486e-07
1.22491e-07
1.22489e-07
1.22489e-07
1.22491e-07
1.22486e-07
1.22747e-07
1.22829e-07
1.22804e-07
1.22672e-07
1.22487e-07
1.22489e-07
1.22488e-07
1.22488e-07
1.22489e-07
1.22487e-07
1.22747e-07
1.22824e-07
1.22793e-07
1.22678e-07
1.22487e-07
1.22489e-07
1.22488e-07
1.22488e-07
1.22489e-07
1.22487e-07
1.22745e-07
1.227e-07
1.22675e-07
1.22486e-07
1.22491e-07
1.22489e-07
1.22489e-07
1.22491e-07
1.22486e-07
1.22746e-07
1.2283e-07
1.22828e-07
1.227e-07
1.22486e-07
1.22487e-07
1.22487e-07
1.22486e-07
1.2273e-07
1.2272e-07
1.22832e-07
1.22799e-07
1.22695e-07
1.22747e-07
1.22747e-07
1.22745e-07
1.22746e-07
1.2272e-07
1.22841e-07
1.22829e-07
1.22824e-07
1.227e-07
1.2283e-07
1.22832e-07
1.21399e-07
1.21388e-07
1.21398e-07
1.21272e-07
1.21268e-07
1.21274e-07
1.2127e-07
1.21423e-07
1.21394e-07
1.21398e-07
1.21267e-07
1.21082e-07
1.21082e-07
1.21082e-07
1.21082e-07
1.21296e-07
1.21291e-07
1.21272e-07
1.21082e-07
1.21086e-07
1.21084e-07
1.21084e-07
1.21086e-07
1.21082e-07
1.21343e-07
1.21424e-07
1.21399e-07
1.21268e-07
1.21082e-07
1.21084e-07
1.21083e-07
1.21083e-07
1.21084e-07
1.21082e-07
1.21343e-07
1.2142e-07
1.21388e-07
1.21274e-07
1.21082e-07
1.21084e-07
1.21083e-07
1.21083e-07
1.21084e-07
1.21082e-07
1.2134e-07
1.21295e-07
1.2127e-07
1.21082e-07
1.21086e-07
1.21084e-07
1.21084e-07
1.21086e-07
1.21082e-07
1.21342e-07
1.21425e-07
1.21423e-07
1.21296e-07
1.21082e-07
1.21082e-07
1.21082e-07
1.21082e-07
1.21326e-07
1.21315e-07
1.21428e-07
1.21394e-07
1.21291e-07
1.21343e-07
1.21343e-07
1.2134e-07
1.21342e-07
1.21315e-07
1.21437e-07
1.21424e-07
1.2142e-07
1.21295e-07
1.21425e-07
1.21428e-07
1.19995e-07
1.19984e-07
1.19993e-07
1.19868e-07
1.19863e-07
1.19869e-07
1.19865e-07
1.20019e-07
1.1999e-07
1.19993e-07
1.19863e-07
1.19677e-07
1.19678e-07
1.19678e-07
1.19677e-07
1.19891e-07
1.19886e-07
1.19868e-07
1.19677e-07
1.19682e-07
1.1968e-07
1.1968e-07
1.19682e-07
1.19677e-07
1.19938e-07
1.2002e-07
1.19995e-07
1.19863e-07
1.19678e-07
1.1968e-07
1.19679e-07
1.19679e-07
1.1968e-07
1.19678e-07
1.19938e-07
1.20015e-07
1.19984e-07
1.19869e-07
1.19678e-07
1.1968e-07
1.19679e-07
1.19679e-07
1.1968e-07
1.19678e-07
1.19935e-07
1.19891e-07
1.19865e-07
1.19677e-07
1.19682e-07
1.1968e-07
1.1968e-07
1.19682e-07
1.19677e-07
1.19937e-07
1.2002e-07
1.20019e-07
1.19891e-07
1.19677e-07
1.19678e-07
1.19678e-07
1.19677e-07
1.19921e-07
1.19911e-07
1.20023e-07
1.1999e-07
1.19886e-07
1.19938e-07
1.19938e-07
1.19935e-07
1.19937e-07
1.19911e-07
1.20032e-07
1.2002e-07
1.20015e-07
1.19891e-07
1.2002e-07
1.20023e-07
1.1859e-07
1.18579e-07
1.18589e-07
1.18463e-07
1.18459e-07
1.18464e-07
1.18461e-07
1.18614e-07
1.18585e-07
1.18589e-07
1.18458e-07
1.18273e-07
1.18273e-07
1.18273e-07
1.18273e-07
1.18486e-07
1.18482e-07
1.18463e-07
1.18273e-07
1.18277e-07
1.18275e-07
1.18275e-07
1.18277e-07
1.18273e-07
1.18533e-07
1.18615e-07
1.1859e-07
1.18459e-07
1.18273e-07
1.18275e-07
1.18274e-07
1.18274e-07
1.18275e-07
1.18273e-07
1.18533e-07
1.1861e-07
1.18579e-07
1.18464e-07
1.18273e-07
1.18275e-07
1.18274e-07
1.18274e-07
1.18275e-07
1.18273e-07
1.18531e-07
1.18486e-07
1.18461e-07
1.18273e-07
1.18277e-07
1.18275e-07
1.18275e-07
1.18277e-07
1.18273e-07
1.18533e-07
1.18616e-07
1.18614e-07
1.18486e-07
1.18273e-07
1.18273e-07
1.18273e-07
1.18273e-07
1.18516e-07
1.18506e-07
1.18619e-07
1.18585e-07
1.18482e-07
1.18533e-07
1.18533e-07
1.18531e-07
1.18533e-07
1.18506e-07
1.18628e-07
1.18615e-07
1.1861e-07
1.18486e-07
1.18616e-07
1.18619e-07
1.17185e-07
1.17175e-07
1.17184e-07
1.17058e-07
1.17054e-07
1.1706e-07
1.17056e-07
1.17209e-07
1.1718e-07
1.17184e-07
1.17054e-07
1.16868e-07
1.16869e-07
1.16869e-07
1.16868e-07
1.17082e-07
1.17077e-07
1.17058e-07
1.16868e-07
1.16872e-07
1.1687e-07
1.1687e-07
1.16872e-07
1.16868e-07
1.17129e-07
1.1721e-07
1.17185e-07
1.17054e-07
1.16869e-07
1.1687e-07
1.1687e-07
1.1687e-07
1.1687e-07
1.16869e-07
1.17129e-07
1.17206e-07
1.17175e-07
1.1706e-07
1.16869e-07
1.1687e-07
1.1687e-07
1.1687e-07
1.1687e-07
1.16869e-07
1.17126e-07
1.17082e-07
1.17056e-07
1.16868e-07
1.16872e-07
1.1687e-07
1.1687e-07
1.16872e-07
1.16868e-07
1.17128e-07
1.17211e-07
1.17209e-07
1.17082e-07
1.16868e-07
1.16869e-07
1.16869e-07
1.16868e-07
1.17112e-07
1.17102e-07
1.17214e-07
1.1718e-07
1.17077e-07
1.17129e-07
1.17129e-07
1.17126e-07
1.17128e-07
1.17102e-07
1.17223e-07
1.1721e-07
1.17206e-07
1.17082e-07
1.17211e-07
1.17214e-07
1.15781e-07
1.1577e-07
1.1578e-07
1.15654e-07
1.15649e-07
1.15655e-07
1.15651e-07
1.15805e-07
1.15776e-07
1.1578e-07
1.15649e-07
1.15463e-07
1.15464e-07
1.15464e-07
1.15463e-07
1.15677e-07
1.15672e-07
1.15654e-07
1.15463e-07
1.15468e-07
1.15466e-07
1.15466e-07
1.15468e-07
1.15463e-07
1.15724e-07
1.15806e-07
1.15781e-07
1.15649e-07
1.15464e-07
1.15466e-07
1.15465e-07
1.15465e-07
1.15466e-07
1.15464e-07
1.15724e-07
1.15801e-07
1.1577e-07
1.15655e-07
1.15464e-07
1.15466e-07
1.15465e-07
1.15465e-07
1.15466e-07
1.15464e-07
1.15721e-07
1.15677e-07
1.15651e-07
1.15463e-07
1.15468e-07
1.15466e-07
1.15466e-07
1.15468e-07
1.15463e-07
1.15723e-07
1.15806e-07
1.15805e-07
1.15677e-07
1.15463e-07
1.15464e-07
1.15464e-07
1.15463e-07
1.15707e-07
1.15697e-07
1.15809e-07
1.15776e-07
1.15672e-07
1.15724e-07
1.15724e-07
1.15721e-07
1.15723e-07
1.15697e-07
1.15818e-07
1.15806e-07
1.15801e-07
1.15677e-07
1.15806e-07
1.15809e-07
1.14376e-07
1.14365e-07
1.14375e-07
1.14249e-07
1.14245e-07
1.1425e-07
1.14247e-07
1.144e-07
1.14371e-07
1.14375e-07
1.14244e-07
1.14059e-07
1.14059e-07
1.14059e-07
1.14059e-07
1.14273e-07
1.14268e-07
1.14249e-07
1.14059e-07
1.14063e-07
1.14061e-07
1.14061e-07
1.14063e-07
1.14059e-07
1.14319e-07
1.14401e-07
1.14376e-07
1.14245e-07
1.14059e-07
1.14061e-07
1.1406e-07
1.1406e-07
1.14061e-07
1.14059e-07
1.14319e-07
1.14396e-07
1.14365e-07
1.1425e-07
1.14059e-07
1.14061e-07
1.1406e-07
1.1406e-07
1.14061e-07
1.14059e-07
1.14317e-07
1.14272e-07
1.14247e-07
1.14059e-07
1.14063e-07
1.14061e-07
1.14061e-07
1.14063e-07
1.14059e-07
1.14319e-07
1.14402e-07
1.144e-07
1.14273e-07
1.14059e-07
1.14059e-07
1.14059e-07
1.14059e-07
1.14303e-07
1.14292e-07
1.14405e-07
1.14371e-07
1.14268e-07
1.14319e-07
1.14319e-07
1.14317e-07
1.14319e-07
1.14292e-07
1.14414e-07
1.14401e-07
1.14396e-07
1.14272e-07
1.14402e-07
1.14405e-07
1.12971e-07
1.12961e-07
1.1297e-07
1.12844e-07
1.1284e-07
1.12846e-07
1.12842e-07
1.12995e-07
1.12967e-07
1.1297e-07
1.1284e-07
1.12654e-07
1.12655e-07
1.12655e-07
1.12654e-07
1.12868e-07
1.12863e-07
1.12844e-07
1.12654e-07
1.12658e-07
1.12657e-07
1.12657e-07
1.12658e-07
1.12654e-07
1.12915e-07
1.12996e-07
1.12971e-07
1.1284e-07
1.12655e-07
1.12657e-07
1.12656e-07
1.12656e-07
1.12657e-07
1.12655e-07
1.12915e-07
1.12992e-07
1.12961e-07
1.12846e-07
1.12655e-07
1.12657e-07
1.12656e-07
1.12656e-07
1.12657e-07
1.12655e-07
1.12912e-07
1.12868e-07
1.12842e-07
1.12654e-07
1.12658e-07
1.12657e-07
1.12657e-07
1.12658e-07
1.12654e-07
1.12914e-07
1.12997e-07
1.12995e-07
1.12868e-07
1.12654e-07
1.12655e-07
1.12655e-07
1.12654e-07
1.12898e-07
1.12888e-07
1.13e-07
1.12967e-07
1.12863e-07
1.12915e-07
1.12915e-07
1.12912e-07
1.12914e-07
1.12888e-07
1.13009e-07
1.12996e-07
1.12992e-07
1.12868e-07
1.12997e-07
1.13e-07
1.11567e-07
1.11556e-07
1.11566e-07
1.1144e-07
1.11435e-07
1.11441e-07
1.11437e-07
1.11591e-07
1.11562e-07
1.11566e-07
1.11435e-07
1.11249e-07
1.1125e-07
1.1125e-07
1.11249e-07
1.11463e-07
1.11458e-07
1.1144e-07
1.11249e-07
1.11254e-07
1.11252e-07
1.11252e-07
1.11254e-07
1.11249e-07
1.1151e-07
1.11592e-07
1.11567e-07
1.11435e-07
1.1125e-07
1.11252e-07
1.11251e-07
1.11251e-07
1.11252e-07
1.1125e-07
1.1151e-07
1.11587e-07
1.11556e-07
1.11441e-07
1.1125e-07
1.11252e-07
1.11251e-07
1.11251e-07
1.11252e-07
1.1125e-07
1.11508e-07
1.11463e-07
1.11437e-07
1.11249e-07
1.11254e-07
1.11252e-07
1.11252e-07
1.11254e-07
1.11249e-07
1.11509e-07
1.11592e-07
1.11591e-07
1.11463e-07
1.11249e-07
1.1125e-07
1.1125e-07
1.11249e-07
1.11493e-07
1.11483e-07
1.11595e-07
1.11562e-07
1.11458e-07
1.1151e-07
1.1151e-07
1.11508e-07
1.11509e-07
1.11483e-07
1.11604e-07
1.11592e-07
1.11587e-07
1.11463e-07
1.11592e-07
1.11595e-07
1.10162e-07
1.10151e-07
1.10161e-07
1.10035e-07
1.10031e-07
1.10036e-07
1.10033e-07
1.10186e-07
1.10157e-07
1.10161e-07
1.1003e-07
1.09845e-07
1.09845e-07
1.09845e-07
1.09845e-07
1.10059e-07
1.10054e-07
1.10035e-07
1.09845e-07
1.09849e-07
1.09847e-07
1.09847e-07
1.09849e-07
1.09845e-07
1.10105e-07
1.10187e-07
1.10162e-07
1.10031e-07
1.09845e-07
1.09847e-07
1.09846e-07
1.09846e-07
1.09847e-07
1.09845e-07
1.10106e-07
1.10182e-07
1.10151e-07
1.10036e-07
1.09845e-07
1.09847e-07
1.09846e-07
1.09846e-07
1.09847e-07
1.09845e-07
1.10103e-07
1.10058e-07
1.10033e-07
1.09845e-07
1.09849e-07
1.09847e-07
1.09847e-07
1.09849e-07
1.09845e-07
1.10105e-07
1.10188e-07
1.10186e-07
1.10059e-07
1.09845e-07
1.09845e-07
1.09845e-07
1.09845e-07
1.10089e-07
1.10078e-07
1.10191e-07
1.10157e-07
1.10054e-07
1.10105e-07
1.10106e-07
1.10103e-07
1.10105e-07
1.10078e-07
1.102e-07
1.10187e-07
1.10182e-07
1.10058e-07
1.10188e-07
1.10191e-07
1.08758e-07
1.08747e-07
1.08756e-07
1.0863e-07
1.08626e-07
1.08632e-07
1.08628e-07
1.08781e-07
1.08753e-07
1.08756e-07
1.08626e-07
1.0844e-07
1.08441e-07
1.08441e-07
1.0844e-07
1.08654e-07
1.08649e-07
1.0863e-07
1.0844e-07
1.08444e-07
1.08443e-07
1.08443e-07
1.08444e-07
1.0844e-07
1.08701e-07
1.08782e-07
1.08758e-07
1.08626e-07
1.08441e-07
1.08443e-07
1.08442e-07
1.08442e-07
1.08443e-07
1.08441e-07
1.08701e-07
1.08778e-07
1.08747e-07
1.08632e-07
1.08441e-07
1.08443e-07
1.08442e-07
1.08442e-07
1.08443e-07
1.08441e-07
1.08698e-07
1.08654e-07
1.08628e-07
1.0844e-07
1.08444e-07
1.08443e-07
1.08443e-07
1.08444e-07
1.0844e-07
1.087e-07
1.08783e-07
1.08781e-07
1.08654e-07
1.0844e-07
1.08441e-07
1.08441e-07
1.0844e-07
1.08684e-07
1.08674e-07
1.08786e-07
1.08753e-07
1.08649e-07
1.08701e-07
1.08701e-07
1.08698e-07
1.087e-07
1.08674e-07
1.08795e-07
1.08783e-07
1.08778e-07
1.08654e-07
1.08783e-07
1.08786e-07
1.07353e-07
1.07342e-07
1.07352e-07
1.07226e-07
1.07221e-07
1.07227e-07
1.07224e-07
1.07377e-07
1.07348e-07
1.07352e-07
1.07221e-07
1.07035e-07
1.07036e-07
1.07036e-07
1.07035e-07
1.07249e-07
1.07245e-07
1.07226e-07
1.07035e-07
1.0704e-07
1.07038e-07
1.07038e-07
1.0704e-07
1.07035e-07
1.07296e-07
1.07378e-07
1.07353e-07
1.07221e-07
1.07036e-07
1.07038e-07
1.07037e-07
1.07037e-07
1.07038e-07
1.07036e-07
1.07296e-07
1.07373e-07
1.07342e-07
1.07227e-07
1.07036e-07
1.07038e-07
1.07037e-07
1.07037e-07
1.07038e-07
1.07036e-07
1.07294e-07
1.07249e-07
1.07224e-07
1.07035e-07
1.0704e-07
1.07038e-07
1.07038e-07
1.0704e-07
1.07035e-07
1.07295e-07
1.07379e-07
1.07377e-07
1.07249e-07
1.07035e-07
1.07036e-07
1.07036e-07
1.07035e-07
1.07279e-07
1.07269e-07
1.07381e-07
1.07348e-07
1.07245e-07
1.07296e-07
1.07296e-07
1.07294e-07
1.07295e-07
1.07269e-07
1.07391e-07
1.07378e-07
1.07373e-07
1.07249e-07
1.07379e-07
1.07381e-07
1.05948e-07
1.05937e-07
1.05947e-07
1.05821e-07
1.05817e-07
1.05823e-07
1.05819e-07
1.05972e-07
1.05943e-07
1.05947e-07
1.05816e-07
1.05631e-07
1.05632e-07
1.05632e-07
1.05631e-07
1.05845e-07
1.0584e-07
1.05821e-07
1.05631e-07
1.05635e-07
1.05633e-07
1.05633e-07
1.05635e-07
1.05631e-07
1.05892e-07
1.05973e-07
1.05948e-07
1.05817e-07
1.05632e-07
1.05633e-07
1.05632e-07
1.05632e-07
1.05633e-07
1.05632e-07
1.05892e-07
1.05969e-07
1.05937e-07
1.05823e-07
1.05631e-07
1.05633e-07
1.05632e-07
1.05632e-07
1.05633e-07
1.05632e-07
1.05889e-07
1.05844e-07
1.05819e-07
1.05631e-07
1.05635e-07
1.05633e-07
1.05633e-07
1.05635e-07
1.05631e-07
1.05891e-07
1.05974e-07
1.05972e-07
1.05845e-07
1.05631e-07
1.05632e-07
1.05631e-07
1.05631e-07
1.05875e-07
1.05864e-07
1.05977e-07
1.05943e-07
1.0584e-07
1.05892e-07
1.05892e-07
1.05889e-07
1.05891e-07
1.05864e-07
1.05986e-07
1.05973e-07
1.05969e-07
1.05844e-07
1.05974e-07
1.05977e-07
1.04544e-07
1.04533e-07
1.04542e-07
1.04417e-07
1.04412e-07
1.04418e-07
1.04414e-07
1.04568e-07
1.04539e-07
1.04542e-07
1.04412e-07
1.04226e-07
1.04227e-07
1.04227e-07
1.04226e-07
1.0444e-07
1.04435e-07
1.04417e-07
1.04226e-07
1.04231e-07
1.04229e-07
1.04229e-07
1.04231e-07
1.04226e-07
1.04487e-07
1.04569e-07
1.04544e-07
1.04412e-07
1.04227e-07
1.04229e-07
1.04228e-07
1.04228e-07
1.04229e-07
1.04227e-07
1.04487e-07
1.04564e-07
1.04533e-07
1.04418e-07
1.04227e-07
1.04229e-07
1.04228e-07
1.04228e-07
1.04229e-07
1.04227e-07
1.04484e-07
1.0444e-07
1.04414e-07
1.04226e-07
1.04231e-07
1.04229e-07
1.04229e-07
1.04231e-07
1.04226e-07
1.04486e-07
1.04569e-07
1.04568e-07
1.0444e-07
1.04226e-07
1.04227e-07
1.04227e-07
1.04226e-07
1.0447e-07
1.0446e-07
1.04572e-07
1.04539e-07
1.04435e-07
1.04487e-07
1.04487e-07
1.04484e-07
1.04486e-07
1.0446e-07
1.04581e-07
1.04569e-07
1.04564e-07
1.0444e-07
1.04569e-07
1.04572e-07
1.03139e-07
1.03128e-07
1.03138e-07
1.03012e-07
1.03008e-07
1.03013e-07
1.0301e-07
1.03163e-07
1.03134e-07
1.03138e-07
1.03007e-07
1.02822e-07
1.02822e-07
1.02822e-07
1.02822e-07
1.03035e-07
1.03031e-07
1.03012e-07
1.02822e-07
1.02826e-07
1.02824e-07
1.02824e-07
1.02826e-07
1.02822e-07
1.03082e-07
1.03164e-07
1.03139e-07
1.03008e-07
1.02822e-07
1.02824e-07
1.02823e-07
1.02823e-07
1.02824e-07
1.02822e-07
1.03082e-07
1.03159e-07
1.03128e-07
1.03013e-07
1.02822e-07
1.02824e-07
1.02823e-07
1.02823e-07
1.02824e-07
1.02822e-07
1.0308e-07
1.03035e-07
1.0301e-07
1.02822e-07
1.02826e-07
1.02824e-07
1.02824e-07
1.02826e-07
1.02822e-07
1.03082e-07
1.03165e-07
1.03163e-07
1.03035e-07
1.02822e-07
1.02822e-07
1.02822e-07
1.02822e-07
1.03065e-07
1.03055e-07
1.03168e-07
1.03134e-07
1.03031e-07
1.03082e-07
1.03082e-07
1.0308e-07
1.03082e-07
1.03055e-07
1.03177e-07
1.03164e-07
1.03159e-07
1.03035e-07
1.03165e-07
1.03168e-07
1.01734e-07
1.01724e-07
1.01733e-07
1.01607e-07
1.01603e-07
1.01609e-07
1.01605e-07
1.01758e-07
1.01729e-07
1.01733e-07
1.01603e-07
1.01417e-07
1.01418e-07
1.01418e-07
1.01417e-07
1.01631e-07
1.01626e-07
1.01607e-07
1.01417e-07
1.01421e-07
1.01419e-07
1.01419e-07
1.01421e-07
1.01417e-07
1.01678e-07
1.01759e-07
1.01734e-07
1.01603e-07
1.01418e-07
1.01419e-07
1.01419e-07
1.01419e-07
1.01419e-07
1.01418e-07
1.01678e-07
1.01755e-07
1.01724e-07
1.01609e-07
1.01418e-07
1.01419e-07
1.01419e-07
1.01419e-07
1.01419e-07
1.01418e-07
1.01675e-07
1.01631e-07
1.01605e-07
1.01417e-07
1.01421e-07
1.01419e-07
1.01419e-07
1.01421e-07
1.01417e-07
1.01677e-07
1.0176e-07
1.01758e-07
1.01631e-07
1.01417e-07
1.01418e-07
1.01418e-07
1.01417e-07
1.01661e-07
1.01651e-07
1.01763e-07
1.01729e-07
1.01626e-07
1.01678e-07
1.01678e-07
1.01675e-07
1.01677e-07
1.01651e-07
1.01772e-07
1.01759e-07
1.01755e-07
1.01631e-07
1.0176e-07
1.01763e-07
1.0033e-07
1.00319e-07
1.00329e-07
1.00203e-07
1.00198e-07
1.00204e-07
1.002e-07
1.00354e-07
1.00325e-07
1.00329e-07
1.00198e-07
1.00012e-07
1.00013e-07
1.00013e-07
1.00012e-07
1.00226e-07
1.00221e-07
1.00203e-07
1.00012e-07
1.00017e-07
1.00015e-07
1.00015e-07
1.00017e-07
1.00012e-07
1.00273e-07
1.00355e-07
1.0033e-07
1.00198e-07
1.00013e-07
1.00015e-07
1.00014e-07
1.00014e-07
1.00015e-07
1.00013e-07
1.00273e-07
1.0035e-07
1.00319e-07
1.00204e-07
1.00013e-07
1.00015e-07
1.00014e-07
1.00014e-07
1.00015e-07
1.00013e-07
1.0027e-07
1.00226e-07
1.002e-07
1.00012e-07
1.00017e-07
1.00015e-07
1.00015e-07
1.00017e-07
1.00012e-07
1.00272e-07
1.00355e-07
1.00354e-07
1.00226e-07
1.00012e-07
1.00013e-07
1.00013e-07
1.00012e-07
1.00256e-07
1.00246e-07
1.00358e-07
1.00325e-07
1.00221e-07
1.00273e-07
1.00273e-07
1.0027e-07
1.00272e-07
1.00246e-07
1.00367e-07
1.00355e-07
1.0035e-07
1.00226e-07
1.00355e-07
1.00358e-07
9.89251e-08
9.89143e-08
9.89239e-08
9.8798e-08
9.87936e-08
9.87994e-08
9.87957e-08
9.89491e-08
9.89202e-08
9.89239e-08
9.87933e-08
9.86077e-08
9.86083e-08
9.86083e-08
9.86077e-08
9.88216e-08
9.88167e-08
9.8798e-08
9.86077e-08
9.8612e-08
9.86102e-08
9.86102e-08
9.8612e-08
9.86077e-08
9.88684e-08
9.895e-08
9.89251e-08
9.87936e-08
9.86083e-08
9.86102e-08
9.86093e-08
9.86093e-08
9.86102e-08
9.86083e-08
9.88685e-08
9.89454e-08
9.89143e-08
9.87994e-08
9.86083e-08
9.86102e-08
9.86093e-08
9.86093e-08
9.86102e-08
9.86083e-08
9.88658e-08
9.88213e-08
9.87957e-08
9.86077e-08
9.8612e-08
9.86102e-08
9.86102e-08
9.8612e-08
9.86077e-08
9.88677e-08
9.89507e-08
9.89491e-08
9.88215e-08
9.86077e-08
9.86083e-08
9.86083e-08
9.86077e-08
9.88516e-08
9.88413e-08
9.89537e-08
9.89202e-08
9.88167e-08
9.88684e-08
9.88685e-08
9.88658e-08
9.88677e-08
9.88413e-08
9.89627e-08
9.89501e-08
9.89454e-08
9.88213e-08
9.89507e-08
9.89537e-08
9.75204e-08
9.75096e-08
9.75193e-08
9.73934e-08
9.7389e-08
9.73947e-08
9.73911e-08
9.75444e-08
9.75156e-08
9.75193e-08
9.73886e-08
9.7203e-08
9.72037e-08
9.72037e-08
9.7203e-08
9.74169e-08
9.74121e-08
9.73934e-08
9.7203e-08
9.72074e-08
9.72056e-08
9.72056e-08
9.72074e-08
9.7203e-08
9.74637e-08
9.75454e-08
9.75204e-08
9.7389e-08
9.72037e-08
9.72056e-08
9.72046e-08
9.72046e-08
9.72056e-08
9.72037e-08
9.74639e-08
9.75407e-08
9.75096e-08
9.73947e-08
9.72037e-08
9.72056e-08
9.72046e-08
9.72046e-08
9.72056e-08
9.72037e-08
9.74612e-08
9.74167e-08
9.73911e-08
9.7203e-08
9.72074e-08
9.72056e-08
9.72056e-08
9.72074e-08
9.7203e-08
9.7463e-08
9.75461e-08
9.75444e-08
9.74169e-08
9.7203e-08
9.72037e-08
9.72037e-08
9.7203e-08
9.74469e-08
9.74366e-08
9.7549e-08
9.75156e-08
9.74121e-08
9.74638e-08
9.74639e-08
9.74612e-08
9.7463e-08
9.74367e-08
9.75581e-08
9.75454e-08
9.75407e-08
9.74166e-08
9.75461e-08
9.7549e-08
9.61158e-08
9.6105e-08
9.61146e-08
9.59888e-08
9.59844e-08
9.59901e-08
9.59865e-08
9.61398e-08
9.6111e-08
9.61146e-08
9.5984e-08
9.57984e-08
9.57991e-08
9.57991e-08
9.57984e-08
9.60123e-08
9.60074e-08
9.59888e-08
9.57984e-08
9.58028e-08
9.5801e-08
9.5801e-08
9.58028e-08
9.57984e-08
9.60591e-08
9.61408e-08
9.61158e-08
9.59844e-08
9.57991e-08
9.5801e-08
9.58e-08
9.58e-08
9.5801e-08
9.57991e-08
9.60593e-08
9.61361e-08
9.6105e-08
9.59901e-08
9.57991e-08
9.5801e-08
9.58e-08
9.58e-08
9.5801e-08
9.57991e-08
9.60566e-08
9.6012e-08
9.59865e-08
9.57984e-08
9.58028e-08
9.5801e-08
9.5801e-08
9.58028e-08
9.57984e-08
9.60584e-08
9.61415e-08
9.61398e-08
9.60123e-08
9.57984e-08
9.57991e-08
9.57991e-08
9.57984e-08
9.60423e-08
9.6032e-08
9.61444e-08
9.6111e-08
9.60074e-08
9.60591e-08
9.60593e-08
9.60566e-08
9.60584e-08
9.6032e-08
9.61534e-08
9.61408e-08
9.61361e-08
9.6012e-08
9.61415e-08
9.61444e-08
9.47112e-08
9.47004e-08
9.471e-08
9.45841e-08
9.45797e-08
9.45855e-08
9.45818e-08
9.47352e-08
9.47064e-08
9.471e-08
9.45794e-08
9.43938e-08
9.43944e-08
9.43944e-08
9.43938e-08
9.46077e-08
9.46028e-08
9.45841e-08
9.43938e-08
9.43981e-08
9.43963e-08
9.43963e-08
9.43981e-08
9.43938e-08
9.46545e-08
9.47362e-08
9.47112e-08
9.45797e-08
9.43944e-08
9.43963e-08
9.43954e-08
9.43954e-08
9.43963e-08
9.43944e-08
9.46546e-08
9.47315e-08
9.47004e-08
9.45855e-08
9.43944e-08
9.43963e-08
9.43954e-08
9.43954e-08
9.43963e-08
9.43944e-08
9.46519e-08
9.46074e-08
9.45818e-08
9.43938e-08
9.43981e-08
9.43963e-08
9.43963e-08
9.43981e-08
9.43938e-08
9.46538e-08
9.47369e-08
9.47352e-08
9.46077e-08
9.43938e-08
9.43944e-08
9.43944e-08
9.43938e-08
9.46377e-08
9.46274e-08
9.47398e-08
9.47064e-08
9.46028e-08
9.46545e-08
9.46546e-08
9.46519e-08
9.46538e-08
9.46274e-08
9.47488e-08
9.47362e-08
9.47315e-08
9.46074e-08
9.47369e-08
9.47398e-08
9.33066e-08
9.32958e-08
9.33054e-08
9.31795e-08
9.31751e-08
9.31809e-08
9.31772e-08
9.33306e-08
9.33017e-08
9.33054e-08
9.31747e-08
9.29891e-08
9.29898e-08
9.29898e-08
9.29891e-08
9.3203e-08
9.31982e-08
9.31795e-08
9.29891e-08
9.29935e-08
9.29917e-08
9.29917e-08
9.29935e-08
9.29891e-08
9.32499e-08
9.33315e-08
9.33065e-08
9.31751e-08
9.29898e-08
9.29917e-08
9.29908e-08
9.29907e-08
9.29917e-08
9.29898e-08
9.325e-08
9.33269e-08
9.32957e-08
9.31808e-08
9.29898e-08
9.29917e-08
9.29908e-08
9.29907e-08
9.29917e-08
9.29898e-08
9.32473e-08
9.32028e-08
9.31772e-08
9.29891e-08
9.29935e-08
9.29917e-08
9.29917e-08
9.29935e-08
9.29891e-08
9.32492e-08
9.33322e-08
9.33305e-08
9.3203e-08
9.29891e-08
9.29898e-08
9.29898e-08
9.29891e-08
9.32331e-08
9.32228e-08
9.33352e-08
9.33017e-08
9.31982e-08
9.32499e-08
9.325e-08
9.32473e-08
9.32492e-08
9.32228e-08
9.33442e-08
9.33315e-08
9.33269e-08
9.32028e-08
9.33322e-08
9.33352e-08
9.19019e-08
9.18911e-08
9.19007e-08
9.17749e-08
9.17705e-08
9.17762e-08
9.17726e-08
9.19259e-08
9.18971e-08
9.19007e-08
9.17701e-08
9.15845e-08
9.15852e-08
9.15852e-08
9.15845e-08
9.17984e-08
9.17935e-08
9.17749e-08
9.15845e-08
9.15889e-08
9.15871e-08
9.15871e-08
9.15889e-08
9.15845e-08
9.18452e-08
9.19269e-08
9.19019e-08
9.17705e-08
9.15852e-08
9.15871e-08
9.15861e-08
9.15861e-08
9.15871e-08
9.15852e-08
9.18453e-08
9.19222e-08
9.18911e-08
9.17762e-08
9.15852e-08
9.15871e-08
9.15861e-08
9.15861e-08
9.15871e-08
9.15852e-08
9.18426e-08
9.17981e-08
9.17726e-08
9.15845e-08
9.15889e-08
9.15871e-08
9.15871e-08
9.15889e-08
9.15845e-08
9.18445e-08
9.19276e-08
9.19259e-08
9.17984e-08
9.15845e-08
9.15852e-08
9.15852e-08
9.15845e-08
9.18284e-08
9.18181e-08
9.19305e-08
9.18971e-08
9.17935e-08
9.18452e-08
9.18454e-08
9.18427e-08
9.18445e-08
9.18181e-08
9.19395e-08
9.19269e-08
9.19222e-08
9.17981e-08
9.19276e-08
9.19305e-08
9.04973e-08
9.04865e-08
9.04961e-08
9.03702e-08
9.03658e-08
9.03716e-08
9.03679e-08
9.05213e-08
9.04924e-08
9.04961e-08
9.03655e-08
9.01799e-08
9.01805e-08
9.01805e-08
9.01799e-08
9.03938e-08
9.03889e-08
9.03702e-08
9.01799e-08
9.01842e-08
9.01824e-08
9.01824e-08
9.01842e-08
9.01799e-08
9.04406e-08
9.05223e-08
9.04973e-08
9.03658e-08
9.01805e-08
9.01824e-08
9.01815e-08
9.01815e-08
9.01824e-08
9.01805e-08
9.04407e-08
9.05176e-08
9.04865e-08
9.03716e-08
9.01805e-08
9.01824e-08
9.01815e-08
9.01815e-08
9.01824e-08
9.01805e-08
9.0438e-08
9.03935e-08
9.03679e-08
9.01799e-08
9.01842e-08
9.01824e-08
9.01824e-08
9.01842e-08
9.01799e-08
9.04399e-08
9.05229e-08
9.05213e-08
9.03938e-08
9.01799e-08
9.01805e-08
9.01805e-08
9.01799e-08
9.04238e-08
9.04135e-08
9.05259e-08
9.04924e-08
9.03889e-08
9.04406e-08
9.04407e-08
9.0438e-08
9.04399e-08
9.04135e-08
9.05349e-08
9.05223e-08
9.05176e-08
9.03935e-08
9.0523e-08
9.05259e-08
8.90926e-08
8.90818e-08
8.90915e-08
8.89656e-08
8.89612e-08
8.89669e-08
8.89633e-08
8.91166e-08
8.90878e-08
8.90915e-08
8.89608e-08
8.87752e-08
8.87759e-08
8.87759e-08
8.87752e-08
8.89891e-08
8.89842e-08
8.89656e-08
8.87752e-08
8.87796e-08
8.87778e-08
8.87778e-08
8.87796e-08
8.87752e-08
8.90359e-08
8.91176e-08
8.90926e-08
8.89612e-08
8.87759e-08
8.87778e-08
8.87768e-08
8.87768e-08
8.87778e-08
8.87759e-08
8.90361e-08
8.91129e-08
8.90818e-08
8.89669e-08
8.87759e-08
8.87778e-08
8.87768e-08
8.87768e-08
8.87778e-08
8.87759e-08
8.90334e-08
8.89888e-08
8.89633e-08
8.87752e-08
8.87796e-08
8.87778e-08
8.87778e-08
8.87796e-08
8.87752e-08
8.90352e-08
8.91183e-08
8.91166e-08
8.89891e-08
8.87752e-08
8.87759e-08
8.87759e-08
8.87752e-08
8.90191e-08
8.90088e-08
8.91212e-08