/*--------------------------------*- C++ -*----------------------------------*\
| =========                 |                                                 |
| \\      /  F ield         | OpenFOAM: The Open Source CFD Toolbox           |
|  \\    /   O peration     | Version:                                        |
|   \\  /    A nd           | Website:  www.openfoam.com                      |
|    \\/     M anipulation  |                                                 |
\*---------------------------------------------------------------------------*/
FoamFile
{
    version     2.0;
    format      ascii;
    class       volScalarField;
    location    "1850.5";
    object      p;
}
// * * * * * * * * * * * * * * * * * * * * * * * * * * * * * * * * * * * * * //

dimensions      [0 2 -2 0 0 0 0];


internalField   nonuniform List<scalar> 
247096
(
2.50793e-07
2.50796e-07
2.50872e-07
2.50943e-07
2.50973e-07
2.50935e-07
2.50864e-07
2.50782e-07
2.50796e-07
2.50915e-07
2.51079e-07
2.51154e-07
2.51171e-07
2.51149e-07
2.51063e-07
2.50894e-07
2.50872e-07
2.51079e-07
2.51188e-07
2.51211e-07
2.51212e-07
2.5121e-07
2.51181e-07
2.51055e-07
2.50856e-07
2.50943e-07
2.51154e-07
2.51211e-07
2.51206e-07
2.51201e-07
2.51208e-07
2.51209e-07
2.51138e-07
2.50913e-07
2.50793e-07
2.50973e-07
2.51171e-07
2.51212e-07
2.51201e-07
2.51193e-07
2.51203e-07
2.51212e-07
2.51157e-07
2.5094e-07
2.50935e-07
2.51149e-07
2.5121e-07
2.51208e-07
2.51203e-07
2.51209e-07
2.51208e-07
2.51132e-07
2.50905e-07
2.50864e-07
2.51063e-07
2.51181e-07
2.51209e-07
2.51212e-07
2.51208e-07
2.51173e-07
2.51038e-07
2.5085e-07
2.50782e-07
2.50894e-07
2.51055e-07
2.51138e-07
2.51157e-07
2.51132e-07
2.51038e-07
2.50877e-07
2.50856e-07
2.50913e-07
2.5094e-07
2.50905e-07
2.5085e-07
2.47771e-07
2.4774e-07
2.47736e-07
2.47556e-07
2.47559e-07
2.47574e-07
2.47565e-07
2.47769e-07
2.4772e-07
2.47736e-07
2.47569e-07
2.47323e-07
2.47315e-07
2.47315e-07
2.47323e-07
2.47652e-07
2.47593e-07
2.47556e-07
2.47323e-07
2.47293e-07
2.47296e-07
2.47296e-07
2.47293e-07
2.47323e-07
2.47745e-07
2.47778e-07
2.47771e-07
2.47559e-07
2.47315e-07
2.47296e-07
2.473e-07
2.473e-07
2.47296e-07
2.47315e-07
2.47753e-07
2.4778e-07
2.4774e-07
2.47574e-07
2.47315e-07
2.47296e-07
2.473e-07
2.473e-07
2.47296e-07
2.47315e-07
2.47749e-07
2.47608e-07
2.47565e-07
2.47323e-07
2.47293e-07
2.47296e-07
2.47296e-07
2.47293e-07
2.47323e-07
2.4775e-07
2.4779e-07
2.47769e-07
2.47652e-07
2.47323e-07
2.47315e-07
2.47314e-07
2.47323e-07
2.47742e-07
2.47666e-07
2.47784e-07
2.4772e-07
2.47593e-07
2.47745e-07
2.47753e-07
2.47749e-07
2.4775e-07
2.47666e-07
2.47785e-07
2.47778e-07
2.4778e-07
2.47608e-07
2.4779e-07
2.47784e-07
2.45127e-07
2.4512e-07
2.4512e-07
2.44929e-07
2.44925e-07
2.44938e-07
2.44932e-07
2.45139e-07
2.45105e-07
2.4512e-07
2.44927e-07
2.44598e-07
2.44601e-07
2.44601e-07
2.44598e-07
2.44979e-07
2.44964e-07
2.44929e-07
2.44598e-07
2.44612e-07
2.4461e-07
2.4461e-07
2.44612e-07
2.44598e-07
2.45066e-07
2.45147e-07
2.45127e-07
2.44925e-07
2.44601e-07
2.4461e-07
2.4461e-07
2.4461e-07
2.4461e-07
2.44601e-07
2.45066e-07
2.45126e-07
2.45119e-07
2.44938e-07
2.44601e-07
2.4461e-07
2.4461e-07
2.4461e-07
2.4461e-07
2.44601e-07
2.45061e-07
2.44982e-07
2.44932e-07
2.44598e-07
2.44612e-07
2.4461e-07
2.4461e-07
2.44612e-07
2.44598e-07
2.45067e-07
2.45137e-07
2.45139e-07
2.44979e-07
2.44598e-07
2.44601e-07
2.44601e-07
2.44598e-07
2.45031e-07
2.45011e-07
2.45159e-07
2.45105e-07
2.44964e-07
2.45066e-07
2.45066e-07
2.45061e-07
2.45066e-07
2.45011e-07
2.4515e-07
2.45147e-07
2.45126e-07
2.44982e-07
2.45137e-07
2.4516e-07
2.42473e-07
2.42466e-07
2.42465e-07
2.42275e-07
2.42271e-07
2.42285e-07
2.42278e-07
2.42486e-07
2.42451e-07
2.42465e-07
2.42273e-07
2.41944e-07
2.41947e-07
2.41947e-07
2.41944e-07
2.42327e-07
2.4231e-07
2.42275e-07
2.41944e-07
2.4196e-07
2.41954e-07
2.41954e-07
2.4196e-07
2.41944e-07
2.42417e-07
2.42494e-07
2.42473e-07
2.42271e-07
2.41947e-07
2.41954e-07
2.41951e-07
2.41951e-07
2.41954e-07
2.41947e-07
2.42417e-07
2.42474e-07
2.42466e-07
2.42285e-07
2.41947e-07
2.41954e-07
2.41951e-07
2.41951e-07
2.41954e-07
2.41947e-07
2.42411e-07
2.42329e-07
2.42278e-07
2.41944e-07
2.4196e-07
2.41954e-07
2.41954e-07
2.4196e-07
2.41944e-07
2.42417e-07
2.42485e-07
2.42486e-07
2.42327e-07
2.41944e-07
2.41947e-07
2.41947e-07
2.41944e-07
2.42381e-07
2.42359e-07
2.42506e-07
2.42451e-07
2.4231e-07
2.42417e-07
2.42417e-07
2.42411e-07
2.42417e-07
2.42359e-07
2.42498e-07
2.42494e-07
2.42474e-07
2.42329e-07
2.42485e-07
2.42506e-07
2.39819e-07
2.39812e-07
2.39811e-07
2.39621e-07
2.39617e-07
2.39631e-07
2.39624e-07
2.39831e-07
2.39797e-07
2.39811e-07
2.39619e-07
2.3929e-07
2.39292e-07
2.39292e-07
2.3929e-07
2.39672e-07
2.39656e-07
2.39621e-07
2.3929e-07
2.39306e-07
2.39299e-07
2.39299e-07
2.39306e-07
2.3929e-07
2.39763e-07
2.3984e-07
2.39819e-07
2.39617e-07
2.39292e-07
2.39299e-07
2.39296e-07
2.39296e-07
2.39299e-07
2.39292e-07
2.39763e-07
2.3982e-07
2.39812e-07
2.39631e-07
2.39292e-07
2.39299e-07
2.39296e-07
2.39296e-07
2.39299e-07
2.39292e-07
2.39757e-07
2.39675e-07
2.39624e-07
2.3929e-07
2.39306e-07
2.39299e-07
2.39299e-07
2.39306e-07
2.3929e-07
2.39763e-07
2.3983e-07
2.39831e-07
2.39672e-07
2.3929e-07
2.39292e-07
2.39292e-07
2.3929e-07
2.39727e-07
2.39705e-07
2.39852e-07
2.39797e-07
2.39656e-07
2.39763e-07
2.39763e-07
2.39757e-07
2.39763e-07
2.39705e-07
2.39843e-07
2.3984e-07
2.3982e-07
2.39675e-07
2.3983e-07
2.39852e-07
2.37165e-07
2.37157e-07
2.37156e-07
2.36966e-07
2.36963e-07
2.36976e-07
2.36969e-07
2.37177e-07
2.37142e-07
2.37156e-07
2.36964e-07
2.36635e-07
2.36637e-07
2.36637e-07
2.36635e-07
2.37018e-07
2.37001e-07
2.36966e-07
2.36635e-07
2.3665e-07
2.36644e-07
2.36644e-07
2.3665e-07
2.36635e-07
2.37108e-07
2.37185e-07
2.37165e-07
2.36963e-07
2.36637e-07
2.36644e-07
2.36641e-07
2.36641e-07
2.36644e-07
2.36637e-07
2.37108e-07
2.37166e-07
2.37157e-07
2.36976e-07
2.36637e-07
2.36644e-07
2.36641e-07
2.36641e-07
2.36644e-07
2.36637e-07
2.37103e-07
2.3702e-07
2.36969e-07
2.36635e-07
2.3665e-07
2.36644e-07
2.36644e-07
2.3665e-07
2.36635e-07
2.37108e-07
2.37176e-07
2.37177e-07
2.37018e-07
2.36635e-07
2.36637e-07
2.36637e-07
2.36635e-07
2.37072e-07
2.3705e-07
2.37197e-07
2.37142e-07
2.37001e-07
2.37108e-07
2.37108e-07
2.37103e-07
2.37108e-07
2.3705e-07
2.37189e-07
2.37185e-07
2.37166e-07
2.3702e-07
2.37176e-07
2.37197e-07
2.3451e-07
2.34503e-07
2.34502e-07
2.34312e-07
2.34308e-07
2.34322e-07
2.34315e-07
2.34522e-07
2.34488e-07
2.34502e-07
2.3431e-07
2.3398e-07
2.33983e-07
2.33983e-07
2.3398e-07
2.34363e-07
2.34346e-07
2.34312e-07
2.3398e-07
2.33996e-07
2.33989e-07
2.33989e-07
2.33996e-07
2.3398e-07
2.34454e-07
2.3453e-07
2.3451e-07
2.34308e-07
2.33983e-07
2.33989e-07
2.33986e-07
2.33986e-07
2.33989e-07
2.33983e-07
2.34453e-07
2.34511e-07
2.34503e-07
2.34322e-07
2.33983e-07
2.33989e-07
2.33986e-07
2.33986e-07
2.33989e-07
2.33983e-07
2.34448e-07
2.34366e-07
2.34315e-07
2.3398e-07
2.33996e-07
2.33989e-07
2.33989e-07
2.33996e-07
2.3398e-07
2.34454e-07
2.34521e-07
2.34522e-07
2.34363e-07
2.3398e-07
2.33983e-07
2.33983e-07
2.3398e-07
2.34418e-07
2.34396e-07
2.34542e-07
2.34488e-07
2.34346e-07
2.34454e-07
2.34453e-07
2.34448e-07
2.34454e-07
2.34396e-07
2.34534e-07
2.3453e-07
2.34511e-07
2.34366e-07
2.34521e-07
2.34542e-07
2.31855e-07
2.31848e-07
2.31847e-07
2.31657e-07
2.31653e-07
2.31667e-07
2.3166e-07
2.31868e-07
2.31833e-07
2.31847e-07
2.31655e-07
2.31326e-07
2.31328e-07
2.31328e-07
2.31326e-07
2.31708e-07
2.31692e-07
2.31657e-07
2.31326e-07
2.31341e-07
2.31334e-07
2.31334e-07
2.31341e-07
2.31326e-07
2.31799e-07
2.31876e-07
2.31855e-07
2.31653e-07
2.31328e-07
2.31334e-07
2.31331e-07
2.31331e-07
2.31334e-07
2.31328e-07
2.31799e-07
2.31856e-07
2.31848e-07
2.31667e-07
2.31328e-07
2.31334e-07
2.31331e-07
2.31331e-07
2.31334e-07
2.31328e-07
2.31793e-07
2.31711e-07
2.3166e-07
2.31326e-07
2.31341e-07
2.31334e-07
2.31334e-07
2.31341e-07
2.31326e-07
2.31799e-07
2.31867e-07
2.31868e-07
2.31708e-07
2.31326e-07
2.31328e-07
2.31328e-07
2.31326e-07
2.31763e-07
2.31741e-07
2.31888e-07
2.31833e-07
2.31692e-07
2.31799e-07
2.31799e-07
2.31793e-07
2.31799e-07
2.31741e-07
2.3188e-07
2.31876e-07
2.31856e-07
2.31711e-07
2.31867e-07
2.31888e-07
2.29201e-07
2.29194e-07
2.29193e-07
2.29002e-07
2.28999e-07
2.29013e-07
2.29006e-07
2.29213e-07
2.29178e-07
2.29193e-07
2.29e-07
2.28671e-07
2.28673e-07
2.28673e-07
2.28671e-07
2.29054e-07
2.29037e-07
2.29002e-07
2.28671e-07
2.28686e-07
2.2868e-07
2.2868e-07
2.28686e-07
2.28671e-07
2.29144e-07
2.29221e-07
2.29201e-07
2.28999e-07
2.28673e-07
2.2868e-07
2.28676e-07
2.28676e-07
2.2868e-07
2.28673e-07
2.29144e-07
2.29202e-07
2.29194e-07
2.29013e-07
2.28673e-07
2.2868e-07
2.28676e-07
2.28676e-07
2.2868e-07
2.28673e-07
2.29139e-07
2.29056e-07
2.29006e-07
2.28671e-07
2.28686e-07
2.2868e-07
2.2868e-07
2.28686e-07
2.28671e-07
2.29144e-07
2.29212e-07
2.29213e-07
2.29054e-07
2.28671e-07
2.28673e-07
2.28673e-07
2.28671e-07
2.29108e-07
2.29087e-07
2.29233e-07
2.29178e-07
2.29037e-07
2.29144e-07
2.29144e-07
2.29139e-07
2.29144e-07
2.29087e-07
2.29225e-07
2.29221e-07
2.29202e-07
2.29056e-07
2.29212e-07
2.29233e-07
2.26546e-07
2.26539e-07
2.26538e-07
2.26348e-07
2.26344e-07
2.26358e-07
2.26351e-07
2.26558e-07
2.26524e-07
2.26538e-07
2.26346e-07
2.26016e-07
2.26019e-07
2.26019e-07
2.26016e-07
2.26399e-07
2.26383e-07
2.26348e-07
2.26016e-07
2.26032e-07
2.26025e-07
2.26025e-07
2.26032e-07
2.26016e-07
2.2649e-07
2.26567e-07
2.26546e-07
2.26344e-07
2.26019e-07
2.26025e-07
2.26022e-07
2.26022e-07
2.26025e-07
2.26019e-07
2.2649e-07
2.26547e-07
2.26539e-07
2.26358e-07
2.26019e-07
2.26025e-07
2.26022e-07
2.26022e-07
2.26025e-07
2.26019e-07
2.26484e-07
2.26402e-07
2.26351e-07
2.26016e-07
2.26032e-07
2.26025e-07
2.26025e-07
2.26032e-07
2.26016e-07
2.2649e-07
2.26557e-07
2.26558e-07
2.26399e-07
2.26016e-07
2.26019e-07
2.26019e-07
2.26016e-07
2.26454e-07
2.26432e-07
2.26579e-07
2.26524e-07
2.26383e-07
2.2649e-07
2.2649e-07
2.26484e-07
2.2649e-07
2.26432e-07
2.2657e-07
2.26567e-07
2.26547e-07
2.26402e-07
2.26557e-07
2.26579e-07
2.23891e-07
2.23884e-07
2.23883e-07
2.23693e-07
2.23689e-07
2.23703e-07
2.23696e-07
2.23904e-07
2.23869e-07
2.23883e-07
2.23691e-07
2.23362e-07
2.23364e-07
2.23364e-07
2.23362e-07
2.23744e-07
2.23728e-07
2.23693e-07
2.23362e-07
2.23377e-07
2.2337e-07
2.2337e-07
2.23377e-07
2.23362e-07
2.23835e-07
2.23912e-07
2.23891e-07
2.23689e-07
2.23364e-07
2.2337e-07
2.23367e-07
2.23367e-07
2.2337e-07
2.23364e-07
2.23835e-07
2.23893e-07
2.23884e-07
2.23703e-07
2.23364e-07
2.2337e-07
2.23367e-07
2.23367e-07
2.2337e-07
2.23364e-07
2.23829e-07
2.23747e-07
2.23696e-07
2.23362e-07
2.23377e-07
2.2337e-07
2.2337e-07
2.23377e-07
2.23362e-07
2.23835e-07
2.23903e-07
2.23904e-07
2.23744e-07
2.23362e-07
2.23364e-07
2.23364e-07
2.23362e-07
2.23799e-07
2.23777e-07
2.23924e-07
2.23869e-07
2.23728e-07
2.23835e-07
2.23835e-07
2.23829e-07
2.23835e-07
2.23777e-07
2.23916e-07
2.23912e-07
2.23892e-07
2.23747e-07
2.23903e-07
2.23924e-07
2.21237e-07
2.2123e-07
2.21229e-07
2.21039e-07
2.21035e-07
2.21049e-07
2.21042e-07
2.21249e-07
2.21214e-07
2.21229e-07
2.21036e-07
2.20707e-07
2.20709e-07
2.20709e-07
2.20707e-07
2.2109e-07
2.21073e-07
2.21039e-07
2.20707e-07
2.20722e-07
2.20716e-07
2.20716e-07
2.20722e-07
2.20707e-07
2.2118e-07
2.21257e-07
2.21237e-07
2.21035e-07
2.20709e-07
2.20716e-07
2.20712e-07
2.20712e-07
2.20716e-07
2.20709e-07
2.2118e-07
2.21238e-07
2.2123e-07
2.21049e-07
2.20709e-07
2.20716e-07
2.20712e-07
2.20712e-07
2.20716e-07
2.20709e-07
2.21175e-07
2.21093e-07
2.21042e-07
2.20707e-07
2.20722e-07
2.20716e-07
2.20716e-07
2.20722e-07
2.20707e-07
2.2118e-07
2.21248e-07
2.21249e-07
2.2109e-07
2.20707e-07
2.20709e-07
2.20709e-07
2.20707e-07
2.21145e-07
2.21123e-07
2.21269e-07
2.21214e-07
2.21073e-07
2.2118e-07
2.2118e-07
2.21175e-07
2.2118e-07
2.21123e-07
2.21261e-07
2.21257e-07
2.21238e-07
2.21093e-07
2.21248e-07
2.21269e-07
2.18582e-07
2.18575e-07
2.18574e-07
2.18384e-07
2.1838e-07
2.18394e-07
2.18387e-07
2.18595e-07
2.1856e-07
2.18574e-07
2.18382e-07
2.18052e-07
2.18055e-07
2.18055e-07
2.18052e-07
2.18435e-07
2.18419e-07
2.18384e-07
2.18052e-07
2.18068e-07
2.18061e-07
2.18061e-07
2.18068e-07
2.18052e-07
2.18526e-07
2.18603e-07
2.18582e-07
2.1838e-07
2.18055e-07
2.18061e-07
2.18058e-07
2.18058e-07
2.18061e-07
2.18055e-07
2.18526e-07
2.18583e-07
2.18575e-07
2.18394e-07
2.18055e-07
2.18061e-07
2.18058e-07
2.18058e-07
2.18061e-07
2.18055e-07
2.1852e-07
2.18438e-07
2.18387e-07
2.18052e-07
2.18068e-07
2.18061e-07
2.18061e-07
2.18068e-07
2.18052e-07
2.18526e-07
2.18593e-07
2.18595e-07
2.18435e-07
2.18052e-07
2.18055e-07
2.18055e-07
2.18052e-07
2.1849e-07
2.18468e-07
2.18615e-07
2.1856e-07
2.18419e-07
2.18526e-07
2.18526e-07
2.1852e-07
2.18526e-07
2.18468e-07
2.18607e-07
2.18603e-07
2.18583e-07
2.18438e-07
2.18593e-07
2.18615e-07
2.15927e-07
2.1592e-07
2.15919e-07
2.15729e-07
2.15725e-07
2.15739e-07
2.15732e-07
2.1594e-07
2.15905e-07
2.15919e-07
2.15727e-07
2.15398e-07
2.154e-07
2.154e-07
2.15398e-07
2.15781e-07
2.15764e-07
2.15729e-07
2.15398e-07
2.15413e-07
2.15406e-07
2.15406e-07
2.15413e-07
2.15398e-07
2.15871e-07
2.15948e-07
2.15927e-07
2.15725e-07
2.154e-07
2.15406e-07
2.15403e-07
2.15403e-07
2.15406e-07
2.154e-07
2.15871e-07
2.15929e-07
2.1592e-07
2.15739e-07
2.154e-07
2.15406e-07
2.15403e-07
2.15403e-07
2.15406e-07
2.154e-07
2.15865e-07
2.15783e-07
2.15732e-07
2.15398e-07
2.15413e-07
2.15406e-07
2.15406e-07
2.15413e-07
2.15398e-07
2.15871e-07
2.15939e-07
2.1594e-07
2.1578e-07
2.15398e-07
2.154e-07
2.154e-07
2.15398e-07
2.15835e-07
2.15813e-07
2.1596e-07
2.15905e-07
2.15764e-07
2.15871e-07
2.15871e-07
2.15865e-07
2.15871e-07
2.15813e-07
2.15952e-07
2.15948e-07
2.15929e-07
2.15783e-07
2.15939e-07
2.1596e-07
2.13273e-07
2.13266e-07
2.13265e-07
2.13075e-07
2.13071e-07
2.13085e-07
2.13078e-07
2.13285e-07
2.1325e-07
2.13265e-07
2.13073e-07
2.12743e-07
2.12745e-07
2.12745e-07
2.12743e-07
2.13126e-07
2.13109e-07
2.13075e-07
2.12743e-07
2.12758e-07
2.12752e-07
2.12752e-07
2.12758e-07
2.12743e-07
2.13216e-07
2.13293e-07
2.13273e-07
2.13071e-07
2.12745e-07
2.12752e-07
2.12748e-07
2.12748e-07
2.12752e-07
2.12745e-07
2.13216e-07
2.13274e-07
2.13266e-07
2.13085e-07
2.12745e-07
2.12752e-07
2.12748e-07
2.12748e-07
2.12752e-07
2.12745e-07
2.13211e-07
2.13129e-07
2.13078e-07
2.12743e-07
2.12758e-07
2.12752e-07
2.12752e-07
2.12758e-07
2.12743e-07
2.13216e-07
2.13284e-07
2.13285e-07
2.13126e-07
2.12743e-07
2.12745e-07
2.12745e-07
2.12743e-07
2.13181e-07
2.13159e-07
2.13305e-07
2.1325e-07
2.13109e-07
2.13216e-07
2.13216e-07
2.13211e-07
2.13216e-07
2.13159e-07
2.13297e-07
2.13293e-07
2.13274e-07
2.13129e-07
2.13284e-07
2.13305e-07
2.10618e-07
2.10611e-07
2.1061e-07
2.1042e-07
2.10416e-07
2.1043e-07
2.10423e-07
2.10631e-07
2.10596e-07
2.1061e-07
2.10418e-07
2.10089e-07
2.10091e-07
2.10091e-07
2.10089e-07
2.10471e-07
2.10455e-07
2.1042e-07
2.10089e-07
2.10104e-07
2.10097e-07
2.10097e-07
2.10104e-07
2.10089e-07
2.10562e-07
2.10639e-07
2.10618e-07
2.10416e-07
2.10091e-07
2.10097e-07
2.10094e-07
2.10094e-07
2.10097e-07
2.10091e-07
2.10562e-07
2.10619e-07
2.10611e-07
2.1043e-07
2.10091e-07
2.10097e-07
2.10094e-07
2.10094e-07
2.10097e-07
2.10091e-07
2.10556e-07
2.10474e-07
2.10423e-07
2.10089e-07
2.10104e-07
2.10097e-07
2.10097e-07
2.10104e-07
2.10089e-07
2.10562e-07
2.1063e-07
2.10631e-07
2.10471e-07
2.10089e-07
2.10091e-07
2.10091e-07
2.10089e-07
2.10526e-07
2.10504e-07
2.10651e-07
2.10596e-07
2.10455e-07
2.10562e-07
2.10562e-07
2.10556e-07
2.10562e-07
2.10504e-07
2.10643e-07
2.10639e-07
2.10619e-07
2.10474e-07
2.1063e-07
2.10651e-07
2.07964e-07
2.07956e-07
2.07955e-07
2.07765e-07
2.07762e-07
2.07775e-07
2.07768e-07
2.07976e-07
2.07941e-07
2.07955e-07
2.07763e-07
2.07434e-07
2.07436e-07
2.07436e-07
2.07434e-07
2.07817e-07
2.078e-07
2.07765e-07
2.07434e-07
2.07449e-07
2.07442e-07
2.07442e-07
2.07449e-07
2.07434e-07
2.07907e-07
2.07984e-07
2.07964e-07
2.07762e-07
2.07436e-07
2.07442e-07
2.07439e-07
2.07439e-07
2.07442e-07
2.07436e-07
2.07907e-07
2.07965e-07
2.07956e-07
2.07775e-07
2.07436e-07
2.07442e-07
2.07439e-07
2.07439e-07
2.07442e-07
2.07436e-07
2.07901e-07
2.07819e-07
2.07768e-07
2.07434e-07
2.07449e-07
2.07442e-07
2.07442e-07
2.07449e-07
2.07434e-07
2.07907e-07
2.07975e-07
2.07976e-07
2.07817e-07
2.07434e-07
2.07436e-07
2.07436e-07
2.07434e-07
2.07871e-07
2.07849e-07
2.07996e-07
2.07941e-07
2.078e-07
2.07907e-07
2.07907e-07
2.07901e-07
2.07907e-07
2.07849e-07
2.07988e-07
2.07984e-07
2.07965e-07
2.07819e-07
2.07975e-07
2.07996e-07
2.05309e-07
2.05302e-07
2.05301e-07
2.05111e-07
2.05107e-07
2.05121e-07
2.05114e-07
2.05321e-07
2.05287e-07
2.05301e-07
2.05109e-07
2.04779e-07
2.04781e-07
2.04781e-07
2.04779e-07
2.05162e-07
2.05145e-07
2.05111e-07
2.04779e-07
2.04794e-07
2.04788e-07
2.04788e-07
2.04794e-07
2.04779e-07
2.05253e-07
2.05329e-07
2.05309e-07
2.05107e-07
2.04781e-07
2.04788e-07
2.04785e-07
2.04785e-07
2.04788e-07
2.04781e-07
2.05252e-07
2.0531e-07
2.05302e-07
2.05121e-07
2.04781e-07
2.04788e-07
2.04785e-07
2.04785e-07
2.04788e-07
2.04781e-07
2.05247e-07
2.05165e-07
2.05114e-07
2.04779e-07
2.04794e-07
2.04788e-07
2.04788e-07
2.04794e-07
2.04779e-07
2.05253e-07
2.0532e-07
2.05321e-07
2.05162e-07
2.04779e-07
2.04781e-07
2.04781e-07
2.04779e-07
2.05217e-07
2.05195e-07
2.05341e-07
2.05287e-07
2.05145e-07
2.05253e-07
2.05252e-07
2.05247e-07
2.05253e-07
2.05195e-07
2.05333e-07
2.05329e-07
2.0531e-07
2.05165e-07
2.0532e-07
2.05341e-07
2.02654e-07
2.02647e-07
2.02646e-07
2.02456e-07
2.02452e-07
2.02466e-07
2.02459e-07
2.02667e-07
2.02632e-07
2.02646e-07
2.02454e-07
2.02125e-07
2.02127e-07
2.02127e-07
2.02125e-07
2.02507e-07
2.02491e-07
2.02456e-07
2.02125e-07
2.0214e-07
2.02133e-07
2.02133e-07
2.0214e-07
2.02125e-07
2.02598e-07
2.02675e-07
2.02654e-07
2.02452e-07
2.02127e-07
2.02133e-07
2.0213e-07
2.0213e-07
2.02133e-07
2.02127e-07
2.02598e-07
2.02655e-07
2.02647e-07
2.02466e-07
2.02127e-07
2.02133e-07
2.0213e-07
2.0213e-07
2.02133e-07
2.02127e-07
2.02592e-07
2.0251e-07
2.02459e-07
2.02125e-07
2.0214e-07
2.02133e-07
2.02133e-07
2.0214e-07
2.02125e-07
2.02598e-07
2.02666e-07
2.02667e-07
2.02507e-07
2.02125e-07
2.02127e-07
2.02127e-07
2.02125e-07
2.02562e-07
2.0254e-07
2.02687e-07
2.02632e-07
2.02491e-07
2.02598e-07
2.02598e-07
2.02592e-07
2.02598e-07
2.0254e-07
2.02679e-07
2.02675e-07
2.02655e-07
2.0251e-07
2.02666e-07
2.02687e-07
2e-07
1.99993e-07
1.99992e-07
1.99801e-07
1.99798e-07
1.99811e-07
1.99804e-07
2.00012e-07
1.99977e-07
1.99992e-07
1.99799e-07
1.9947e-07
1.99472e-07
1.99472e-07
1.9947e-07
1.99853e-07
1.99836e-07
1.99801e-07
1.9947e-07
1.99485e-07
1.99478e-07
1.99478e-07
1.99485e-07
1.9947e-07
1.99943e-07
2.0002e-07
2e-07
1.99798e-07
1.99472e-07
1.99478e-07
1.99475e-07
1.99475e-07
1.99478e-07
1.99472e-07
1.99943e-07
2.00001e-07
1.99992e-07
1.99811e-07
1.99472e-07
1.99478e-07
1.99475e-07
1.99475e-07
1.99478e-07
1.99472e-07
1.99938e-07
1.99855e-07
1.99804e-07
1.9947e-07
1.99485e-07
1.99478e-07
1.99478e-07
1.99485e-07
1.9947e-07
1.99943e-07
2.00011e-07
2.00012e-07
1.99853e-07
1.9947e-07
1.99472e-07
1.99472e-07
1.9947e-07
1.99907e-07
1.99885e-07
2.00032e-07
1.99977e-07
1.99836e-07
1.99943e-07
1.99943e-07
1.99938e-07
1.99943e-07
1.99886e-07
2.00024e-07
2.0002e-07
2.00001e-07
1.99855e-07
2.00011e-07
2.00032e-07
1.97345e-07
1.97338e-07
1.97337e-07
1.97147e-07
1.97143e-07
1.97157e-07
1.9715e-07
1.97357e-07
1.97323e-07
1.97337e-07
1.97145e-07
1.96815e-07
1.96817e-07
1.96817e-07
1.96815e-07
1.97198e-07
1.97182e-07
1.97147e-07
1.96815e-07
1.96831e-07
1.96824e-07
1.96824e-07
1.96831e-07
1.96815e-07
1.97289e-07
1.97366e-07
1.97345e-07
1.97143e-07
1.96817e-07
1.96824e-07
1.96821e-07
1.96821e-07
1.96824e-07
1.96817e-07
1.97289e-07
1.97346e-07
1.97338e-07
1.97157e-07
1.96817e-07
1.96824e-07
1.96821e-07
1.96821e-07
1.96824e-07
1.96817e-07
1.97283e-07
1.97201e-07
1.9715e-07
1.96815e-07
1.96831e-07
1.96824e-07
1.96824e-07
1.96831e-07
1.96815e-07
1.97289e-07
1.97356e-07
1.97357e-07
1.97198e-07
1.96815e-07
1.96817e-07
1.96817e-07
1.96815e-07
1.97253e-07
1.97231e-07
1.97378e-07
1.97323e-07
1.97182e-07
1.97289e-07
1.97289e-07
1.97283e-07
1.97289e-07
1.97231e-07
1.97369e-07
1.97366e-07
1.97346e-07
1.97201e-07
1.97356e-07
1.97378e-07
1.9469e-07
1.94683e-07
1.94682e-07
1.94492e-07
1.94488e-07
1.94502e-07
1.94495e-07
1.94703e-07
1.94668e-07
1.94682e-07
1.9449e-07
1.94161e-07
1.94163e-07
1.94163e-07
1.94161e-07
1.94543e-07
1.94527e-07
1.94492e-07
1.94161e-07
1.94176e-07
1.94169e-07
1.94169e-07
1.94176e-07
1.94161e-07
1.94634e-07
1.94711e-07
1.9469e-07
1.94488e-07
1.94163e-07
1.94169e-07
1.94166e-07
1.94166e-07
1.94169e-07
1.94163e-07
1.94634e-07
1.94691e-07
1.94683e-07
1.94502e-07
1.94163e-07
1.94169e-07
1.94166e-07
1.94166e-07
1.94169e-07
1.94163e-07
1.94628e-07
1.94546e-07
1.94495e-07
1.94161e-07
1.94176e-07
1.94169e-07
1.94169e-07
1.94176e-07
1.94161e-07
1.94634e-07
1.94702e-07
1.94703e-07
1.94543e-07
1.94161e-07
1.94163e-07
1.94163e-07
1.94161e-07
1.94598e-07
1.94576e-07
1.94723e-07
1.94668e-07
1.94527e-07
1.94634e-07
1.94634e-07
1.94628e-07
1.94634e-07
1.94576e-07
1.94715e-07
1.94711e-07
1.94691e-07
1.94546e-07
1.94702e-07
1.94723e-07
1.92036e-07
1.92029e-07
1.92028e-07
1.91837e-07
1.91834e-07
1.91848e-07
1.91841e-07
1.92048e-07
1.92013e-07
1.92028e-07
1.91835e-07
1.91506e-07
1.91508e-07
1.91508e-07
1.91506e-07
1.91889e-07
1.91872e-07
1.91837e-07
1.91506e-07
1.91521e-07
1.91515e-07
1.91515e-07
1.91521e-07
1.91506e-07
1.91979e-07
1.92056e-07
1.92036e-07
1.91834e-07
1.91508e-07
1.91515e-07
1.91511e-07
1.91511e-07
1.91515e-07
1.91508e-07
1.91979e-07
1.92037e-07
1.92029e-07
1.91848e-07
1.91508e-07
1.91515e-07
1.91511e-07
1.91511e-07
1.91515e-07
1.91508e-07
1.91974e-07
1.91892e-07
1.91841e-07
1.91506e-07
1.91521e-07
1.91515e-07
1.91515e-07
1.91521e-07
1.91506e-07
1.91979e-07
1.92047e-07
1.92048e-07
1.91889e-07
1.91506e-07
1.91508e-07
1.91508e-07
1.91506e-07
1.91944e-07
1.91922e-07
1.92068e-07
1.92013e-07
1.91872e-07
1.91979e-07
1.91979e-07
1.91974e-07
1.91979e-07
1.91922e-07
1.9206e-07
1.92056e-07
1.92037e-07
1.91891e-07
1.92047e-07
1.92068e-07
1.89381e-07
1.89374e-07
1.89373e-07
1.89183e-07
1.89179e-07
1.89193e-07
1.89186e-07
1.89393e-07
1.89359e-07
1.89373e-07
1.89181e-07
1.88851e-07
1.88854e-07
1.88854e-07
1.88851e-07
1.89234e-07
1.89218e-07
1.89183e-07
1.88851e-07
1.88867e-07
1.8886e-07
1.8886e-07
1.88867e-07
1.88851e-07
1.89325e-07
1.89402e-07
1.89381e-07
1.89179e-07
1.88854e-07
1.8886e-07
1.88857e-07
1.88857e-07
1.8886e-07
1.88854e-07
1.89325e-07
1.89382e-07
1.89374e-07
1.89193e-07
1.88854e-07
1.8886e-07
1.88857e-07
1.88857e-07
1.8886e-07
1.88854e-07
1.89319e-07
1.89237e-07
1.89186e-07
1.88851e-07
1.88867e-07
1.8886e-07
1.8886e-07
1.88867e-07
1.88851e-07
1.89325e-07
1.89392e-07
1.89393e-07
1.89234e-07
1.88851e-07
1.88854e-07
1.88854e-07
1.88851e-07
1.89289e-07
1.89267e-07
1.89414e-07
1.89359e-07
1.89218e-07
1.89325e-07
1.89325e-07
1.89319e-07
1.89325e-07
1.89267e-07
1.89405e-07
1.89402e-07
1.89382e-07
1.89237e-07
1.89392e-07
1.89414e-07
1.86726e-07
1.86719e-07
1.86718e-07
1.86528e-07
1.86524e-07
1.86538e-07
1.86531e-07
1.86739e-07
1.86704e-07
1.86718e-07
1.86526e-07
1.86197e-07
1.86199e-07
1.86199e-07
1.86197e-07
1.86579e-07
1.86563e-07
1.86528e-07
1.86197e-07
1.86212e-07
1.86205e-07
1.86205e-07
1.86212e-07
1.86197e-07
1.8667e-07
1.86747e-07
1.86726e-07
1.86524e-07
1.86199e-07
1.86205e-07
1.86202e-07
1.86202e-07
1.86205e-07
1.86199e-07
1.8667e-07
1.86728e-07
1.86719e-07
1.86538e-07
1.86199e-07
1.86205e-07
1.86202e-07
1.86202e-07
1.86205e-07
1.86199e-07
1.86664e-07
1.86582e-07
1.86531e-07
1.86197e-07
1.86212e-07
1.86205e-07
1.86205e-07
1.86212e-07
1.86197e-07
1.8667e-07
1.86738e-07
1.86739e-07
1.86579e-07
1.86197e-07
1.86199e-07
1.86199e-07
1.86197e-07
1.86634e-07
1.86612e-07
1.86759e-07
1.86704e-07
1.86563e-07
1.8667e-07
1.8667e-07
1.86664e-07
1.8667e-07
1.86612e-07
1.86751e-07
1.86747e-07
1.86728e-07
1.86582e-07
1.86738e-07
1.86759e-07
1.84072e-07
1.84065e-07
1.84064e-07
1.83874e-07
1.8387e-07
1.83884e-07
1.83877e-07
1.84084e-07
1.84049e-07
1.84064e-07
1.83871e-07
1.83542e-07
1.83544e-07
1.83544e-07
1.83542e-07
1.83925e-07
1.83908e-07
1.83874e-07
1.83542e-07
1.83557e-07
1.83551e-07
1.83551e-07
1.83557e-07
1.83542e-07
1.84015e-07
1.84092e-07
1.84072e-07
1.8387e-07
1.83544e-07
1.83551e-07
1.83547e-07
1.83547e-07
1.83551e-07
1.83544e-07
1.84015e-07
1.84073e-07
1.84065e-07
1.83884e-07
1.83544e-07
1.83551e-07
1.83547e-07
1.83547e-07
1.83551e-07
1.83544e-07
1.8401e-07
1.83928e-07
1.83877e-07
1.83542e-07
1.83557e-07
1.83551e-07
1.83551e-07
1.83557e-07
1.83542e-07
1.84015e-07
1.84083e-07
1.84084e-07
1.83925e-07
1.83542e-07
1.83544e-07
1.83544e-07
1.83542e-07
1.8398e-07
1.83958e-07
1.84104e-07
1.84049e-07
1.83908e-07
1.84015e-07
1.84015e-07
1.8401e-07
1.84015e-07
1.83958e-07
1.84096e-07
1.84092e-07
1.84073e-07
1.83928e-07
1.84083e-07
1.84104e-07
1.81417e-07
1.8141e-07
1.81409e-07
1.81219e-07
1.81215e-07
1.81229e-07
1.81222e-07
1.8143e-07
1.81395e-07
1.81409e-07
1.81217e-07
1.80888e-07
1.8089e-07
1.8089e-07
1.80888e-07
1.8127e-07
1.81254e-07
1.81219e-07
1.80888e-07
1.80903e-07
1.80896e-07
1.80896e-07
1.80903e-07
1.80888e-07
1.81361e-07
1.81438e-07
1.81417e-07
1.81215e-07
1.8089e-07
1.80896e-07
1.80893e-07
1.80893e-07
1.80896e-07
1.8089e-07
1.81361e-07
1.81418e-07
1.8141e-07
1.81229e-07
1.8089e-07
1.80896e-07
1.80893e-07
1.80893e-07
1.80896e-07
1.8089e-07
1.81355e-07
1.81273e-07
1.81222e-07
1.80888e-07
1.80903e-07
1.80896e-07
1.80896e-07
1.80903e-07
1.80888e-07
1.81361e-07
1.81429e-07
1.8143e-07
1.8127e-07
1.80888e-07
1.8089e-07
1.8089e-07
1.80888e-07
1.81325e-07
1.81303e-07
1.8145e-07
1.81395e-07
1.81254e-07
1.81361e-07
1.81361e-07
1.81355e-07
1.81361e-07
1.81303e-07
1.81442e-07
1.81438e-07
1.81418e-07
1.81273e-07
1.81429e-07
1.8145e-07
1.78762e-07
1.78755e-07
1.78754e-07
1.78564e-07
1.7856e-07
1.78574e-07
1.78567e-07
1.78775e-07
1.7874e-07
1.78754e-07
1.78562e-07
1.78233e-07
1.78235e-07
1.78235e-07
1.78233e-07
1.78616e-07
1.78599e-07
1.78564e-07
1.78233e-07
1.78248e-07
1.78241e-07
1.78241e-07
1.78248e-07
1.78233e-07
1.78706e-07
1.78783e-07
1.78762e-07
1.7856e-07
1.78235e-07
1.78241e-07
1.78238e-07
1.78238e-07
1.78241e-07
1.78235e-07
1.78706e-07
1.78764e-07
1.78755e-07
1.78574e-07
1.78235e-07
1.78241e-07
1.78238e-07
1.78238e-07
1.78241e-07
1.78235e-07
1.787e-07
1.78618e-07
1.78567e-07
1.78233e-07
1.78248e-07
1.78241e-07
1.78241e-07
1.78248e-07
1.78233e-07
1.78706e-07
1.78774e-07
1.78775e-07
1.78616e-07
1.78233e-07
1.78235e-07
1.78235e-07
1.78233e-07
1.7867e-07
1.78648e-07
1.78795e-07
1.7874e-07
1.78599e-07
1.78706e-07
1.78706e-07
1.787e-07
1.78706e-07
1.78648e-07
1.78787e-07
1.78783e-07
1.78764e-07
1.78618e-07
1.78774e-07
1.78795e-07
1.76108e-07
1.76101e-07
1.761e-07
1.7591e-07
1.75906e-07
1.7592e-07
1.75913e-07
1.7612e-07
1.76085e-07
1.761e-07
1.75908e-07
1.75578e-07
1.7558e-07
1.7558e-07
1.75578e-07
1.75961e-07
1.75944e-07
1.7591e-07
1.75578e-07
1.75593e-07
1.75587e-07
1.75587e-07
1.75593e-07
1.75578e-07
1.76052e-07
1.76128e-07
1.76108e-07
1.75906e-07
1.7558e-07
1.75587e-07
1.75583e-07
1.75583e-07
1.75587e-07
1.7558e-07
1.76051e-07
1.76109e-07
1.76101e-07
1.7592e-07
1.7558e-07
1.75587e-07
1.75583e-07
1.75583e-07
1.75587e-07
1.7558e-07
1.76046e-07
1.75964e-07
1.75913e-07
1.75578e-07
1.75593e-07
1.75587e-07
1.75587e-07
1.75593e-07
1.75578e-07
1.76052e-07
1.76119e-07
1.7612e-07
1.75961e-07
1.75578e-07
1.7558e-07
1.7558e-07
1.75578e-07
1.76016e-07
1.75994e-07
1.7614e-07
1.76085e-07
1.75944e-07
1.76052e-07
1.76051e-07
1.76046e-07
1.76052e-07
1.75994e-07
1.76132e-07
1.76128e-07
1.76109e-07
1.75964e-07
1.76119e-07
1.7614e-07
1.73453e-07
1.73446e-07
1.73445e-07
1.73255e-07
1.73251e-07
1.73265e-07
1.73258e-07
1.73466e-07
1.73431e-07
1.73445e-07
1.73253e-07
1.72924e-07
1.72926e-07
1.72926e-07
1.72924e-07
1.73306e-07
1.7329e-07
1.73255e-07
1.72924e-07
1.72939e-07
1.72932e-07
1.72932e-07
1.72939e-07
1.72924e-07
1.73397e-07
1.73474e-07
1.73453e-07
1.73251e-07
1.72926e-07
1.72932e-07
1.72929e-07
1.72929e-07
1.72932e-07
1.72926e-07
1.73397e-07
1.73454e-07
1.73446e-07
1.73265e-07
1.72926e-07
1.72932e-07
1.72929e-07
1.72929e-07
1.72932e-07
1.72926e-07
1.73391e-07
1.73309e-07
1.73258e-07
1.72924e-07
1.72939e-07
1.72932e-07
1.72932e-07
1.72939e-07
1.72924e-07
1.73397e-07
1.73465e-07
1.73466e-07
1.73306e-07
1.72924e-07
1.72926e-07
1.72926e-07
1.72924e-07
1.73361e-07
1.73339e-07
1.73486e-07
1.73431e-07
1.7329e-07
1.73397e-07
1.73397e-07
1.73391e-07
1.73397e-07
1.73339e-07
1.73478e-07
1.73474e-07
1.73454e-07
1.73309e-07
1.73465e-07
1.73486e-07
1.70799e-07
1.70791e-07
1.7079e-07
1.706e-07
1.70597e-07
1.7061e-07
1.70603e-07
1.70811e-07
1.70776e-07
1.7079e-07
1.70598e-07
1.70269e-07
1.70271e-07
1.70271e-07
1.70269e-07
1.70652e-07
1.70635e-07
1.706e-07
1.70269e-07
1.70284e-07
1.70277e-07
1.70277e-07
1.70284e-07
1.70269e-07
1.70742e-07
1.70819e-07
1.70799e-07
1.70597e-07
1.70271e-07
1.70277e-07
1.70274e-07
1.70274e-07
1.70277e-07
1.70271e-07
1.70742e-07
1.708e-07
1.70791e-07
1.7061e-07
1.70271e-07
1.70277e-07
1.70274e-07
1.70274e-07
1.70277e-07
1.70271e-07
1.70737e-07
1.70654e-07
1.70603e-07
1.70269e-07
1.70284e-07
1.70277e-07
1.70277e-07
1.70284e-07
1.70269e-07
1.70742e-07
1.7081e-07
1.70811e-07
1.70652e-07
1.70269e-07
1.70271e-07
1.70271e-07
1.70269e-07
1.70706e-07
1.70684e-07
1.70831e-07
1.70776e-07
1.70635e-07
1.70742e-07
1.70742e-07
1.70737e-07
1.70742e-07
1.70684e-07
1.70823e-07
1.70819e-07
1.708e-07
1.70654e-07
1.7081e-07
1.70831e-07
1.68144e-07
1.68137e-07
1.68136e-07
1.67946e-07
1.67942e-07
1.67956e-07
1.67949e-07
1.68156e-07
1.68122e-07
1.68136e-07
1.67944e-07
1.67614e-07
1.67616e-07
1.67616e-07
1.67614e-07
1.67997e-07
1.6798e-07
1.67946e-07
1.67614e-07
1.67629e-07
1.67623e-07
1.67623e-07
1.67629e-07
1.67614e-07
1.68088e-07
1.68164e-07
1.68144e-07
1.67942e-07
1.67616e-07
1.67623e-07
1.6762e-07
1.6762e-07
1.67623e-07
1.67616e-07
1.68087e-07
1.68145e-07
1.68137e-07
1.67956e-07
1.67616e-07
1.67623e-07
1.6762e-07
1.6762e-07
1.67623e-07
1.67616e-07
1.68082e-07
1.68e-07
1.67949e-07
1.67614e-07
1.67629e-07
1.67623e-07
1.67623e-07
1.67629e-07
1.67614e-07
1.68088e-07
1.68155e-07
1.68156e-07
1.67997e-07
1.67614e-07
1.67616e-07
1.67616e-07
1.67614e-07
1.68052e-07
1.6803e-07
1.68176e-07
1.68122e-07
1.6798e-07
1.68088e-07
1.68087e-07