/*--------------------------------*- C++ -*----------------------------------*\
| =========                 |                                                 |
| \\      /  F ield         | OpenFOAM: The Open Source CFD Toolbox           |
|  \\    /   O peration     | Version:  2312                                  |
|   \\  /    A nd           | Website:  www.openfoam.com                      |
|    \\/     M anipulation  |                                                 |
\*---------------------------------------------------------------------------*/
FoamFile
{
    version     2.0;
    format      ascii;
    arch        "LSB;label=32;scalar=64";
    class       surfaceScalarField;
    location    "650";
    object      phi;
}
// * * * * * * * * * * * * * * * * * * * * * * * * * * * * * * * * * * * * * //

dimensions      [0 3 -1 0 0 0 0];

oriented        oriented;

internalField   nonuniform List<scalar> 
125280
(
1.24206e-07
1.1875e-07
-0.00118379
-7.70467e-08
-7.71514e-08
0.0011837
-0.00113203
-1.19882e-06
-1.13295e-07
-8.98283e-08
0.00113205
-2.39363e-07
1.23827e-06
2.74663e-07
9.11179e-07
-2.14944e-07
-8.55054e-07
2.69025e-07
-0.00113194
-1.19346e-06
-1.2453e-07
-4.50646e-08
0.00113191
-2.36656e-07
1.23553e-06
2.74652e-07
9.11249e-07
-2.14993e-07
-8.52417e-07
2.69001e-07
-0.000270075
1.22477e-06
1.18819e-06
-1.979e-07
-2.00622e-07
0.00026806
-1.28035e-06
-1.23849e-06
0.000270144
-0.000268111
2.38959e-07
2.4679e-07
0.00113153
-1.23681e-07
-0.00113155
-4.46559e-08
-1.23572e-06
2.7726e-07
-2.42205e-07
-8.5526e-07
2.66232e-07
-2.12321e-07
9.13982e-07
1.27781e-06
0.0011316
5.84179e-08
-0.00113178
-6.73248e-08
-1.23081e-06
2.8005e-07
-2.39688e-07
-8.60422e-07
2.6358e-07
-2.15006e-07
9.13726e-07
-1.21671e-06
0.000270125
-0.000268111
2.33934e-07
2.46606e-07
0.00113253
-1.23938e-07
-0.00113255
-5.04477e-08
-1.19378e-06
2.74804e-07
-2.36825e-07
-8.57784e-07
2.69102e-07
-2.15078e-07
9.16587e-07
1.27237e-06
0.00113147
-1.17909e-07
-0.00113149
-5.58502e-08
-1.22778e-06
2.80095e-07
-2.42331e-07
-8.57788e-07
2.66275e-07
-2.15053e-07
9.16508e-07
-6.7106e-08
-2.22319e-07
-1.25772e-06
2.71981e-07
-2.44993e-07
-8.57939e-07
2.6635e-07
9.08575e-07
-2.17684e-07
-0.00113183
1.27214e-06
0.0011311
-1.00934e-07
-5.02851e-08
-1.22215e-06
2.8e-07
-2.3949e-07
-8.55042e-07
2.66241e-07
-2.14964e-07
9.08433e-07
-0.00113114
-1.23824e-06
0.000270105
-0.000268083
2.41747e-07
2.46618e-07
-1.24057e-07
-0.00113198
-3.35387e-08
-1.19354e-06
2.74693e-07
-2.36692e-07
-8.52428e-07
2.69037e-07
9.11263e-07
-2.15026e-07
1.23029e-06
0.00113207
-1.2392e-07
-0.00113204
-8.4011e-08
-1.19362e-06
2.7478e-07
-2.3953e-07
-8.54918e-07
2.69062e-07
-2.14983e-07
9.13792e-07
-0.000268058
2.38896e-07
2.46798e-07
1.23565e-06
1.1937e-06
-1.9541e-07
-2.0322e-07
0.000268113
-5.05291e-08
0.00113151
-2.39415e-07
1.28031e-06
2.7722e-07
9.139e-07
-2.12274e-07
-8.5522e-07
2.66198e-07
-1.23305e-06
-1.12939e-07
-5.06633e-08
0.00113157
-2.4232e-07
1.2777e-06
2.80072e-07
9.16405e-07
-2.14966e-07
-8.57669e-07
2.68913e-07
-2.03236e-07
-2.00557e-07
0.000268096
-5.06914e-08
0.0011325
-2.3679e-07
1.23844e-06
2.74768e-07
9.16554e-07
-2.15046e-07
-8.57738e-07
2.69067e-07
-1.22771e-06
-1.18478e-07
-5.04719e-08
0.00113144
-2.42279e-07
1.27232e-06
2.80051e-07
9.16477e-07
-2.12297e-07
-8.57758e-07
2.66244e-07
-1.24435e-07
-5.05209e-08
0.00113108
-2.39406e-07
1.26943e-06
2.77216e-07
9.08398e-07
-2.12218e-07
2.63505e-07
-8.49657e-07
-1.98143e-07
-2.03133e-07
0.000268085
-1.24458e-07
-6.7526e-08
0.00113206
-2.3674e-07
1.23293e-06
2.74712e-07
9.13714e-07
-2.14947e-07
2.69014e-07
-8.54874e-07
6.86069e-09
-4.35962e-08
0.000193705
3.30391e-09
-0.000193672
6.90007e-09
-4.36168e-08
0.000193688
-0.000193655
-0.00118389
-7.05367e-08
-7.64802e-08
0.00118346
-0.00118305
-1.58034e-07
-2.56328e-07
0.00118335
-0.00118345
-8.80602e-08
-5.32141e-08
0.00118328
-0.00118331
-9.96201e-08
-1.00011e-07
-1.08694e-10
-7.006e-08
0.000229498
-0.000229459
2.9852e-08
1.97983e-09
-0.000193745
-4.88202e-09
2.26424e-08
-4.01721e-09
0.000193731
-0.000229458
7.85278e-11
2.85792e-08
0.00022944
-1.11129e-08
1.23086e-09
6.93719e-09
-4.34205e-08
0.000193784
3.19559e-09
-0.000193751
-9.80694e-05
4.94587e-09
1.36769e-08
9.80507e-05
-6.91381e-09
-2.19206e-08
9.80898e-05
-9.8061e-05
-7.00854e-08
-1.89267e-10
0.000229485
-0.000229447
2.17784e-09
2.9866e-08
-0.000193728
-4.90297e-09
2.26417e-08
-3.98998e-09
0.000193714
-0.000229446
2.86131e-08
1.38319e-10
0.000229427
1.00074e-09
-1.11454e-08
6.97715e-09
-4.34381e-08
0.000193767
3.17536e-09
-0.000193733
-8.87999e-08
-1.2368e-07
0.00118344
-7.70828e-08
-6.5489e-08
0.00118324
-8.30261e-08
-9.48073e-08
0.00118321
6.99406e-08
-1.71358e-09
0.000250298
-0.000250178
4.03179e-09
-1.93053e-07
-0.000245595
-1.2038e-08
-2.26156e-08
6.64036e-08
3.95082e-09
0.000245559
0.00115197
-0.00115206
-1.2769e-08
-1.33694e-07
1.00605e-06
-7.53327e-07
-9.35402e-07
8.28462e-07
-5.65469e-08
1.24092e-06
0.00113203
-1.2501e-07
-8.52303e-07
2.68961e-07
-2.1493e-07
9.11194e-07
-1.19609e-06
2.74623e-07
-2.36587e-07
-0.000250274
-2.84622e-08
9.43077e-10
0.000250167
2.74183e-09
1.31787e-07
2.32869e-08
4.34093e-08
0.000245633
-1.67569e-08
-0.000245578
-1.04728e-07
-9.70556e-09
0.00115193
-1.52067e-07
-9.32484e-07
8.2579e-07
-7.53143e-07
1.00338e-06
-9.80625e-05
4.96304e-09
1.13415e-08
9.80462e-05
-6.96261e-09
-1.95555e-08
9.8083e-05
-9.80565e-05
-7.16276e-10
6.99377e-08
0.000250288
-0.000250168
-1.93048e-07
3.89621e-09
0.0011518
-0.00115185
1.34471e-08
-1.50967e-07
1.00612e-06
-7.56048e-07
-9.32677e-07
8.28477e-07
-0.000245584
-1.1978e-08
-2.26335e-08
6.40217e-08
3.92822e-09
0.000245551
-5.07884e-08
1.23548e-06
0.00113189
-1.2486e-07
-8.5238e-07
2.68951e-07
-2.14973e-07
9.11214e-07
-1.19072e-06
2.74606e-07
-2.36633e-07
-0.000250261
1.19498e-09
-2.84945e-08
0.000250154
1.31809e-07
1.90754e-09
-6.50278e-11
0.00115175
-1.51892e-07
-9.3254e-07
8.28497e-07
-7.53179e-07
1.00612e-06
2.3205e-08
4.34149e-08
0.000245622
-1.675e-08
-0.00024557
-1.02305e-07
-0.000278333
1.21422e-08
-1.14197e-08
2.27104e-08
-6.78609e-09
0.000278316
-0.000278255
1.21014e-08
-1.13785e-08
2.27025e-08
-7.27561e-09
0.000278239
-1.26938e-06
-1.23287e-06
0.000270079
-0.000268063
2.41312e-07
2.44049e-07
-2.31845e-08
1.96075e-08
0.000278383
1.01284e-08
-0.000278339
-5.05597e-08
-2.32294e-08
1.95578e-08
0.000278305
1.068e-08
-0.000278264
-4.82626e-08
-1.98412e-08
9.80691e-05
-9.80424e-05
-1.97838e-08
9.80581e-05
-9.80314e-05
0.00027014
-1.2804e-06
-1.24124e-06
-0.000268104
2.39073e-07
2.46918e-07
0.000278329
-2.31402e-08
1.25677e-08
-0.000278287
-5.07879e-08
0.000278261
-2.08739e-08
1.00859e-08
-0.000278219
-5.07759e-08
-1.97329e-08
-6.90218e-09
9.80897e-05
-9.80631e-05
1.14081e-08
4.93367e-09
9.80528e-05
-1.96776e-08
-6.94088e-09
9.80787e-05
-9.80521e-05
1.13736e-08
4.95419e-09
9.80417e-05
1.23579e-06
1.19655e-06
0.000268106
-1.95466e-07
-2.03272e-07
-2.31456e-08
0.000278379
-5.06601e-08
-0.000278338
1.26179e-08
-2.08766e-08
0.000278311
-5.06546e-08
-0.00027827
1.013e-08
1.20657e-08
-9.38094e-09
2.49767e-08
0.000278312
9.70366e-09
-6.72531e-09
2.4933e-08
0.000278244
0.00113157
-1.22607e-07
-1.23585e-06
2.77372e-07
-2.39549e-07
-8.55421e-07
2.68981e-07
-2.15146e-07
9.14029e-07
-4.41979e-08
0.000245558
-1.67114e-08
-0.000245503
-1.04894e-07
3.22305e-11
2.85997e-08
-1.11081e-08
1.00509e-09
0.000229401
-0.000229419
-4.35151e-08
-0.000193711
3.25351e-09
2.26022e-08
-3.96132e-09
0.000193692
-1.00896e-10
-7.0134e-08
-0.00022942
2.99122e-08
1.98047e-09
2.85974e-08
-1.11035e-08
9.3686e-10
0.00022936
-0.000229379
-4.57258e-08
6.88134e-09
0.000193683
-0.000193648
3.42707e-09
2.47647e-08
-4.99722e-09
-3.98921e-09
0.000193628
-0.000193644
-7.01417e-08
0.000229418
-0.00022938
2.99177e-08
2.11942e-09
8.03348e-10
2.69901e-09
1.32006e-07
0.00025015
-0.000250257
-5.56723e-08
-1.23193e-07
1.28038e-06
-2.39485e-07
2.8005e-07
9.1397e-07
-2.12346e-07
2.66289e-07
-8.55375e-07
0.000245596
-1.0478e-07
-0.000245541
-1.67032e-08
-0.00115235
1.3329e-09
0.00115231
-1.49662e-07
-9.35696e-07
8.31246e-07
-7.56283e-07
1.00898e-06
3.98239e-09
6.64104e-08
0.000245522
4.5157e-10
-1.54317e-07
1.00891e-06
-7.56452e-07
-9.35914e-07
8.31193e-07
-0.0011524
-8.32946e-10
0.000250285
-0.000250164
3.11804e-09
-1.93166e-07
1.44372e-09
1.3201e-07
0.000250126
-0.00025023
-3.31292e-08
-1.23857e-06
-3.10639e-07
9.19142e-07
-2.09657e-07
-8.55123e-07
2.68945e-07
1.28088e-06
-2.45015e-07
2.80235e-07
-0.00113164
2.30415e-08
0.000245492
-1.04747e-07
-0.000245437
-1.89991e-08
-0.00115232
0.00115224
-1.26488e-07
-9.43655e-07
8.31212e-07
-7.58981e-07
1.01145e-06
-1.2097e-08
6.40475e-09
6.63554e-08
0.000245418
-0.000245453
-1.83408e-07
1.0169e-06
-7.56417e-07
-9.38346e-07
8.33913e-07
-0.00115233
0.000250257
-0.000250139
4.7309e-09
-1.93177e-07
-2.20162e-08
-9.80405e-05
1.36106e-08
9.80301e-05
-9.80487e-05
0.000268108
-1.8787e-07
-0.000270125
1.17193e-06
-2.05744e-07
0.000278251
-4.83489e-08
-0.000278212
1.05901e-08
1.96448e-08
-2.32828e-08
0.000278394
-4.83761e-08
-0.000278353
1.06852e-08
2.25993e-08
0.000278187
-0.000278201
-7.4648e-09
-7.00803e-09
9.80855e-05
-9.80589e-05
0.00113257
-1.22854e-07
-1.19662e-06
2.74886e-07
-2.36899e-07
2.69173e-07
-2.15165e-07
0.000245524
-0.000245466
-1.02581e-07
2.86423e-08
1.3362e-10
9.93781e-10
-1.11329e-08
0.000229388
-4.3528e-08
-0.000193694
3.23027e-09
2.25935e-08
-3.92334e-09
0.000193675
-7.01559e-08
-1.88371e-10
-0.000229408
2.17957e-09
2.993e-08
1.64562e-09
1.96718e-09
1.32032e-07
0.000250143
-5.02517e-08
-1.23454e-07
1.24122e-06
-2.36863e-07
2.74844e-07
9.1662e-07
-2.15093e-07
2.69145e-07
-8.57853e-07
0.000245562
-1.02473e-07
-0.000245505
-1.92255e-08
-0.00115219
-4.01646e-09
0.00115215
-1.49634e-07
-9.38236e-07
8.31205e-07
-7.56255e-07
1.01149e-06
6.46977e-09
6.4038e-08
0.000245485
3.56091e-09
-1.42635e-07
1.01145e-06
-7.5645e-07
-9.38428e-07
8.31147e-07
-1.70787e-09
0.000250278
-0.000250157
4.07545e-09
-1.93176e-07
2.86401e-08
-1.11282e-08
9.04067e-10
0.000229349
-4.34647e-08
6.92269e-09
0.00019367
-0.000193637
3.23501e-09
2.25396e-08
-5.00838e-09
-3.86067e-09
0.000193617
-7.01422e-08
0.000229406
-0.000229368
2.99205e-08
2.1612e-09
1.3205e-07
1.61276e-09
0.000250117
-5.0041e-08
-1.22786e-06
-1.17379e-07
9.16507e-07
-2.15107e-07
-8.57838e-07
2.69006e-07
1.2724e-06
-2.42376e-07
2.80158e-07
-0.00115214
0.00115207
-1.43763e-07
-9.38258e-07
8.3122e-07
-7.56289e-07
1.0115e-06
2.32021e-08
0.000245476
-9.99509e-08
-0.000245426
-1.67232e-08
-1.36738e-07
1.01149e-06
-7.56487e-07
-9.38439e-07
8.31156e-07
-1.2201e-08
4.04066e-09
6.40251e-08
0.000245407
0.000250248
-0.000250131
-1.93172e-07
4.30809e-09
4.34962e-08
-1.02402e-07
-0.000245542
-1.67908e-08
-3.94712e-08
-7.96044e-08
-9.41136e-07
8.28398e-07
1.00601e-06
-7.58975e-07
-0.00115229
7.00038e-08
-2.02407e-09
-0.000250153
4.50012e-09
-1.93073e-07
0.000193732
-0.000193698
3.09318e-09
-2.16856e-10
0.000229442
-0.000229405
2.09601e-09
3.19694e-08
0.00115195
-1.26684e-07
-9.35481e-07
8.25696e-07
-7.56231e-07
1.00328e-06
-0.00115205
4.34965e-08
2.32196e-08
0.000245516
-9.99364e-08
-0.000245466
-1.67196e-08
7.00569e-08
0.000250244
-0.000250125
-1.95684e-07
4.05372e-09
6.89944e-09
0.000193675
-0.000193642
3.26998e-09
0.000229404
-0.000229366
2.98661e-08
1.97521e-09
-1.96551e-08
-9.80359e-05
1.12794e-08
9.80256e-05
1.19631e-06
0.000268081
-1.98204e-07
-2.03205e-07
0.00027825
-4.60729e-08
-0.000278211
1.05167e-08
1.96539e-08
-2.32142e-08
0.000278386
-4.83266e-08
-0.000278344
1.06225e-08
-7.36843e-09
2.03745e-08
0.000278185
-1.13882e-08
9.65337e-09
-7.22466e-09
2.26319e-08
0.000278321
-6.95743e-09
9.80853e-05
-9.80587e-05
4.91999e-09
9.80483e-05
1.61895e-09
-2.85467e-08
1.31986e-07
1.89941e-09
0.000250128
-4.45973e-08
-1.23563e-07
1.23828e-06
-2.39491e-07
2.74739e-07
9.11302e-07
-2.15076e-07
-8.52553e-07
2.69072e-07
-0.00115191
2.24998e-08
-1.49914e-07
-9.32783e-07
8.28462e-07
1.00609e-06
-7.50731e-07
4.35083e-08
-1.02429e-07
-0.000245532
-1.67581e-08
5.7804e-08
-1.43081e-07
1.00603e-06
-7.53682e-07
-9.3301e-07
8.25657e-07
-2.25994e-08
3.96548e-09
6.40482e-08
0.00024551
-3.1592e-10
7.00187e-08
-0.000250141
-1.93103e-07
3.41649e-09
-2.84768e-08
1.31967e-07
2.13987e-09
0.000250103
-2.49563e-07
-1.26846e-06
-1.01094e-07
9.11055e-07
-2.15005e-07
-8.55094e-07
2.69128e-07
1.20327e-06
-2.53319e-07
2.72071e-07
-0.00115183
0.00115177
-1.44024e-07
-9.35324e-07
8.28375e-07
-7.50734e-07
1.00852e-06
4.35236e-08
2.32454e-08
0.000245481
-1.02464e-07
-0.000245429
-1.67594e-08
-1.01585e-07
1.00575e-06
-7.53699e-07
-9.35633e-07
8.2557e-07
-2.25438e-08
-1.21287e-08
4.06456e-09
6.39833e-08
0.00024541
6.99493e-08
0.000250233
-0.000250116
-1.9306e-07
5.71995e-09
2.78754e-10
8.67262e-10
-1.31945e-08
0.000229378
0.000193727
-0.000193694
3.20761e-09
-3.96918e-09
0.000193674
-1.48675e-11
0.000229434
-0.000229397
1.8719e-09
3.19638e-08
1.09299e-09
-1.52679e-08
0.00022934
6.95909e-09
0.000193667
-0.000193634
3.20825e-09
-5.00063e-09
-3.8247e-09
0.000193614
0.000229393
-0.00022936
2.41147e-09
3.40398e-08
0.000268069
-2.03326e-07
1.22542e-06
-2.10924e-07
1.97121e-08
-4.83782e-08
-0.000278291
1.00805e-08
1.96586e-08
-4.83762e-08
-0.000278213
1.0643e-08
-1.13159e-08
2.26406e-08
0.000278188
-7.32188e-09
9.80652e-05
-9.80386e-05
9.80614e-05
-9.80348e-05
9.80245e-05
1.14701e-08
9.80734e-05
-1.96335e-08
9.81102e-05
-9.80836e-05
1.14362e-08
9.80623e-05
-1.95776e-08
9.80991e-05
-9.80726e-05
1.2033e-08
2.50257e-08
-9.31805e-09
0.000278363
9.66898e-09
2.49887e-08
-6.66817e-09
0.000278295
0.000270149
-1.28026e-06
-1.23839e-06
-0.000268116
2.38805e-07
2.46638e-07
0.000278429
-2.31355e-08
1.26537e-08
-0.000278388
-5.05424e-08
0.000278361
-2.08674e-08
1.01635e-08
-0.00027832
-5.05351e-08
1.15345e-08
4.83299e-09
9.80938e-05
1.15005e-08
4.85469e-09
9.80828e-05
1.23555e-06
1.19359e-06
0.000268119
-1.95382e-07
-2.03195e-07
1.20087e-08
-9.2665e-09
2.50906e-08
0.000278413
9.64619e-09
-6.61825e-09
2.50542e-08
0.000278345
-7.00617e-08
0.000229457
-0.000229419
2.98549e-08
2.11638e-09
2.48081e-08
-4.05659e-09
0.000193667
2.85757e-08
0.0002294
-1.11116e-08
9.47346e-10
-4.56319e-08
0.000193722
3.37448e-09
-0.000193687
-8.52508e-10
0.000250312
-0.000250192
3.11154e-09
-1.93125e-07
6.64123e-08
3.95499e-09
0.00024556
0.00115225
7.4215e-09
-1.50806e-07
1.00899e-06
-7.5613e-07
-9.35592e-07
8.31267e-07
-4.50371e-08
0.00113148
-1.24584e-07
-1.2356e-06
2.77174e-07
-2.39386e-07
-8.55174e-07
2.66145e-07
-2.12256e-07
9.13875e-07
9.37235e-10
0.000250178
2.7052e-09
1.31853e-07
0.000245634
-1.66921e-08
-0.00024558
-1.04658e-07
-1.73937e-09
0.00115221
-1.51752e-07
-9.35452e-07
8.31304e-07
-7.55975e-07
1.00902e-06
0.000250285
-0.000250167
4.71961e-09
-1.93129e-07
-1.20697e-08
6.63886e-08
3.93215e-09
0.000245458
0.0011522
-1.45136e-07
1.01148e-06
-7.56084e-07
-9.38055e-07
8.31226e-07
-5.63515e-08
0.00113155
1.27769e-06
-1.24633e-07
-8.60275e-07
2.68874e-07
9.19058e-07
-2.14965e-07
-1.23033e-06
2.8002e-07
-2.39539e-07
0.000250153
1.46127e-09
1.31841e-07
0.00024553
2.30409e-08
-1.65536e-08
-0.000245477
-1.04675e-07
0.00115214
-1.51801e-07
-9.40639e-07
8.31269e-07
-7.55948e-07
1.01422e-06
6.15067e-11
2.85701e-08
-1.1126e-08
1.23599e-09
0.000229479
2.26945e-08
-4.08165e-09
0.00019377
2.85741e-08
-1.11264e-08
9.51405e-10
0.000229439
2.48575e-08
-4.89742e-09
-4.11838e-09
0.000193707
8.63762e-10
2.95279e-09
1.31727e-07
0.000250205
-5.08625e-08
-1.25031e-07
1.28022e-06
-2.39362e-07
2.77134e-07
9.13845e-07
-2.12233e-07
2.66103e-07
-8.55135e-07
0.00113146
3.93027e-09
6.64336e-08
0.000245599
4.50279e-09
-1.52792e-07
1.00902e-06
-7.5585e-07
-9.35344e-07
8.31315e-07
0.00115216
1.21781e-09
1.31732e-07
0.000250181
-5.08823e-08
-1.23298e-06
-1.25064e-07
9.19048e-07
-2.14937e-07
-8.60234e-07
2.68841e-07
1.27765e-06
-2.42237e-07
2.79984e-07
0.00113153
-1.20428e-08
3.905e-09
6.641e-08
0.000245497
-1.52829e-07
1.01423e-06
-7.55821e-07
-9.40529e-07
8.31299e-07
0.0011521
2.26504e-08
-7.42315e-09
0.000278237
-1.14767e-08
2.27551e-08
-7.18218e-09
0.000278378
0.000270135
-0.000268101
2.41578e-07
2.43891e-07
0.000278301
1.06275e-08
-0.000278263
-4.82411e-08
1.9548e-08
0.000278447
1.02328e-08
-0.000278403
-5.05619e-08
4.92436e-09
9.80691e-05
9.81059e-05
-7.04382e-09
-9.80793e-05
1.37381e-08
9.80712e-05
1.19605e-06
0.000268104
-1.9802e-07
-2.00498e-07
-7.36792e-09
2.2712e-08
0.000278288
-1.15266e-08
1.20111e-08
-6.61979e-09
2.51043e-08
0.000278428
4.87621e-09
9.80895e-05
-1.71828e-09
0.000250305
-0.000250185
4.07899e-09
-1.93133e-07
6.40493e-08
6.42773e-09
0.000245524
0.00115209
3.20453e-09
-1.44978e-07
1.01151e-06
-7.56094e-07
-9.38122e-07
8.31231e-07
-5.08212e-08
0.00113248
-1.24847e-07
-1.19365e-06
2.74722e-07
-2.36763e-07
-8.57702e-07
2.69027e-07
-2.15027e-07
9.16526e-07
1.64354e-09
0.000250171
1.97464e-09
1.31869e-07
0.0002456
-1.92097e-08
-0.000245543
-1.02358e-07
-4.06511e-09
0.00115204
-1.45937e-07
-9.37982e-07
8.31263e-07
-7.55955e-07
1.01154e-06
-7.00734e-08
0.000229445
-0.000229407
2.9858e-08
2.15902e-09
2.25879e-08
-3.91496e-09
0.000193656
2.8611e-08
0.000229388
-1.11445e-08
9.25708e-10
-4.33798e-08
0.000193709
3.17404e-09
-0.000193676
0.000250275
-0.000250158
-1.93132e-07
4.30252e-09
0.00115203
-1.50761e-07
1.01153e-06
-7.56128e-07
-9.3813e-07
8.31246e-07
-1.21749e-08
6.16104e-08
4.05609e-09
0.000245445
-5.06385e-08
0.00113142
1.27227e-06
-1.24566e-07
-8.577e-07
2.66194e-07
9.16434e-07
-2.12276e-07
-1.22764e-06
2.80005e-07
-2.42257e-07
0.000250144
1.31886e-07
1.6306e-09
0.00115197
-1.45891e-07
-9.37993e-07
8.31276e-07
-7.55991e-07
1.01155e-06
0.000245514
2.3199e-08
-1.67172e-08
-0.000245464
-9.98449e-08
2.8606e-08
1.41986e-10
1.00546e-09
-1.11477e-08
0.000229467
2.26917e-08
-4.05023e-09
0.000193753
1.65066e-09
1.982e-09
1.34346e-07
0.000250196
-5.10248e-08
-1.25296e-07
1.23835e-06
-2.36738e-07
2.74683e-07
9.16499e-07
-2.15005e-07
2.68977e-07
-8.57661e-07
0.00113246
6.40588e-09
6.40717e-08
0.000245562
3.34036e-09
-1.52808e-07
1.01154e-06
-7.55818e-07
-9.37878e-07
8.31278e-07
0.00115199
2.86043e-08
-1.11435e-08
9.37888e-10
0.000229427
2.2635e-08
-4.91191e-09
-3.9687e-09
0.000193695
1.34365e-07
1.64898e-09
0.00025017
-5.08142e-08
-1.22759e-06
-1.25006e-07
9.16407e-07
-2.12258e-07
-8.57666e-07
2.66154e-07
1.27222e-06
-2.42235e-07
2.79961e-07
0.0011314
-1.5277e-07
1.01155e-06
-7.55854e-07
-9.37887e-07
8.31289e-07
0.00115193
-1.21508e-08
4.03676e-09
6.16317e-08
0.000245483
-1.25625e-10
0.000229481
-0.000229445
2.09888e-09
3.19116e-08
-3.89832e-09
0.000193718
-1.40523e-10
0.000229425
1.30779e-09
-1.31758e-08
0.000193771
3.04169e-09
-0.000193737
6.99927e-08
0.000250269
-0.000250152
-1.93074e-07
4.05002e-09
0.00115189
-1.45332e-07
1.00334e-06
-7.50586e-07
8.25754e-07
-9.29909e-07
-2.26031e-08
6.39766e-08
3.99648e-09
0.000245483
-4.50994e-08
0.00113105
-1.19071e-07
-1.22471e-06
2.77174e-07
-2.39345e-07
-8.49613e-07
2.63462e-07
-2.09459e-07
9.08367e-07
-2.85254e-08
0.000250138
1.34392e-07
1.19433e-09
0.00115183
-1.4618e-07
-9.3251e-07
8.28537e-07
-7.53175e-07
1.00611e-06
4.34051e-08
0.000245554
-1.66868e-08
-0.0002455
-1.04648e-07
0.000229443
-0.000229405
2.98153e-08
1.97353e-09
-4.92261e-09
-3.94001e-09
0.000193661
0.000229386
-1.10958e-08
8.96443e-10
0.000193714
6.94194e-09
3.20698e-09
-0.000193681
-2.84384e-08
1.40344e-09
2.27242e-09
1.31636e-07
0.000250191
-5.67919e-08
-1.25425e-07
1.24088e-06
-2.36566e-07
2.74577e-07
9.11169e-07
-2.14908e-07
-8.52316e-07
2.68911e-07
0.00113202
-2.26577e-08
3.91886e-09
6.6413e-08
0.000245597
1.51255e-09
-1.53023e-07
1.00607e-06
-7.50271e-07
-9.29695e-07
8.28542e-07
0.00115187
-1.81568e-11
1.32037e-09
-1.31795e-08
0.000229464
-3.95581e-09
0.000193757
-2.84936e-08
1.31667e-07
1.68508e-09
0.000250165
-5.08854e-08
-1.22466e-06
-1.30871e-07
9.08336e-07
-2.09449e-07
-8.49583e-07
2.63405e-07
1.26935e-06
-2.39319e-07
2.7714e-07
0.00113103
-1.58807e-07
1.00608e-06
-7.53029e-07
-9.32342e-07
8.28545e-07
0.00115179
-2.26389e-08
-1.20687e-08
3.96845e-09
6.63657e-08
0.000245519
-1.10968e-08
9.06757e-10
0.000229425
-4.86797e-09
-4.00589e-09
0.0001937
2.04134e-08
-7.30951e-09
0.000278236
-1.14652e-08
2.27415e-08
-9.76296e-09
0.000278372
0.000270108
-0.000268088
2.41597e-07
2.46477e-07
0.0002783
1.05558e-08
-0.000278261
-4.59526e-08
1.95526e-08
0.000278436
1.32705e-08
-0.000278397
-4.82338e-08
4.8632e-09
9.80689e-05
9.81057e-05
-6.99152e-09
-9.80792e-05
1.14084e-08
9.80667e-05
1.19068e-06
0.000268091
-1.98119e-07
-2.03115e-07
-7.25436e-09
2.04809e-08
0.000278286
-1.15277e-08
1.19537e-08
-9.70283e-09
2.28011e-08
0.000278422
4.81417e-09
9.80894e-05
6.9871e-08
0.000250261
-0.000250144
-1.93019e-07
5.2359e-09
0.00115172
-1.50987e-07
1.00853e-06
-7.56024e-07
8.2841e-07
-9.35147e-07
-2.25864e-08
6.39825e-08
4.03964e-09
0.000245448
-5.08686e-08
0.00113204
-1.24904e-07
-1.18814e-06
2.74661e-07
-2.36722e-07
-8.54797e-07
2.6896e-07
-2.14939e-07
9.13683e-07
-2.84336e-08
0.00025013
1.31795e-07
1.19414e-09
0.00115167
-1.51915e-07
-9.34981e-07
8.28446e-07
-7.53139e-07
1.00855e-06
4.3431e-08
0.00024552
-1.67452e-08
-0.000245467
-1.02336e-07
-1.47838e-10
0.000229473
-0.000229437
2.31131e-09
3.19056e-08
-4.03046e-09
0.000193713
2.61552e-10
0.000229417
8.74073e-10
-1.31961e-08
0.000193766
3.15261e-09
-0.000193733
0.000229433
-0.000229399
2.4054e-09
3.39885e-08
-4.95466e-09
-3.88373e-09
0.000193653
0.000229379
8.87979e-10
-1.52681e-08
0.000193706
6.99228e-09
3.156e-09
-0.000193673
8.37228e-10
-2.84843e-08
1.31687e-07
2.16414e-09
0.000250182
-5.09697e-08
-1.253e-07
1.23543e-06
-2.36609e-07
2.74564e-07
9.11176e-07
-2.14961e-07
-8.52343e-07
2.68911e-07
0.00113188
4.9854e-09
-1.52942e-07
1.00611e-06
-7.53044e-07
-9.3245e-07
8.28511e-07
0.0011517
-2.26777e-08
3.90362e-09
6.40474e-08
0.000245589
-2.84278e-08
1.31669e-07
7.25426e-10
0.000250158
-5.10291e-08
-1.1881e-06
-1.25365e-07
9.13591e-07
-2.14917e-07
-8.54765e-07
2.68944e-07
1.23282e-06
-2.36704e-07
2.74614e-07
0.00113202
-1.52962e-07
1.00855e-06
-7.53004e-07
-9.34873e-07
8.28466e-07
0.00115163
-2.2636e-08
-1.2082e-08
4.01845e-09
6.40123e-08
0.000245486
1.52395e-10
8.81943e-10
-1.32049e-08
0.000229456
-4.08955e-09
0.000193752
6.76436e-10
-1.52923e-08
0.000229419
-4.90748e-09
-3.94096e-09
0.000193693
9.80489e-05
9.80857e-05
-9.80591e-05
9.80451e-05
9.80819e-05
-9.80553e-05
0.000268065
-1.97893e-07
-2.00596e-07
-1.14832e-08
-6.72079e-09
2.50729e-08
0.000278364
-1.1443e-08
-7.22385e-09
2.27615e-08
0.000278289
9.80693e-05
9.80655e-05
1.70545e-08
7.92963e-05
1.52007e-11
-0.000263321
2.42356e-08
0.000263366
-6.15646e-08
-4.40787e-09
-3.93054e-09
-4.96595e-09
2.25987e-08
3.32263e-08
-9.36717e-10
7.93221e-05
-1.49437e-09
-4.98035e-09
2.25801e-08
-8.59081e-10
1.23981e-08
0.000143482
-0.000143493
6.85306e-11
-1.11162e-08
1.01157e-09
-0.000229478
-7.58521e-11
2.85681e-08
-0.0001712
-2.74257e-10
-3.1745e-11
0.00017123
-0.000223511
2.87613e-08
4.43302e-09
0.000223551
-7.15569e-08
-0.000171212
-2.12899e-11
-0.000223532
9.88888e-10
3.29494e-08
1.54317e-09
0.000143509
-7.93222e-05
-2.40966e-08
-1.53253e-09
7.93478e-05
-1.71181e-08
0.000263398
-9.76734e-10
-0.000263417
3.32903e-08
3.22642e-09
0.000193764
6.91713e-09
-4.34692e-08
-4.60648e-11
-7.93393e-05
-4.4297e-09
0.000263443
-6.13827e-08
-0.000143466
2.80397e-10
-2.87897e-08
2.98839e-08
2.19823e-09
4.65413e-11
-7.00976e-08
8.51288e-10
0.000171182
-0.000171194
-1.2797e-11
-1.23963e-08
0.000223491
-0.000223511
3.29639e-08
-0.000143478
-2.15468e-11
-7.1595e-08
1.7143e-08
7.93308e-05
-0.000263424
2.40553e-08
0.000263469
-6.1326e-08
-4.04969e-09
-4.858e-09
2.26641e-08
3.33142e-08
7.93564e-05
9.80796e-05
-6.89292e-09
-2.19713e-08
4.92268e-09
1.37044e-08
1.24233e-08
-8.44045e-10
0.00014348
-0.000143492
4.10183e-11
7.7744e-10
-1.11488e-08
-0.000229465
-6.23608e-12
2.86132e-08
-0.000223501
2.87742e-08
4.42473e-09
0.000223542
-7.15784e-08
-0.000171197
-2.97523e-10
-6.68309e-12
0.000171227
-0.000223522
9.65509e-10
3.29871e-08
-0.000171209
-1.91626e-11
1.53336e-09
0.000143507
-7.93238e-05
-2.41102e-08
-1.52357e-09
7.93495e-05
-1.7099e-08
0.000263394
-9.52393e-10
-0.000263413
3.3285e-08
3.20368e-09
0.000193747
6.95716e-09
-4.34826e-08
-1.89475e-11
-7.93409e-05
-4.42058e-09
0.000263439
-6.14248e-08
-0.000143465
-2.87962e-08
2.95834e-10
2.39668e-09
2.99114e-08
-4.05597e-11
-7.01287e-08
-1.24153e-08
0.000223481
-0.000223502
3.29991e-08
8.3571e-10
0.000171179
-0.000171191
-1.09903e-11
-0.000143476
-7.16091e-08
3.19413e-13
1.7125e-08
7.93324e-05
-0.00026342
2.40678e-08
0.000263464
-6.13649e-08
-4.02006e-09
-4.88034e-09
2.26652e-08
3.33142e-08
7.9358e-05
9.80728e-05
-6.94178e-09
-1.9607e-08
4.93833e-09
1.13732e-08
-7.02081e-09
-7.06217e-09
0.000213851
-0.000213858
1.01458e-08
1.01274e-08
-8.05861e-05
-1.21456e-08
-1.20405e-08
8.06103e-05
-8.05746e-05
-1.21376e-08
-1.20629e-08
8.05988e-05
-8.06025e-05
9.38037e-09
-8.0591e-05
9.35557e-09
-2.47264e-08
-2.47969e-08
0.000213877
-0.000221985
-3.59581e-08
3.29806e-08
2.47591e-08
0.000222021
-5.70401e-08
-1.57984e-08
0.000250743
-0.000250798
6.11845e-08
3.19094e-08
1.63387e-08
0.000183126
-9.39528e-09
-0.000183139
-4.83199e-08
1.01012e-08
0.000278358
1.96643e-08
-2.32128e-08
-1.01334e-08
-0.000222004
2.89125e-08
0.000250811
-9.7063e-08
-5.48594e-08
1.20377e-08
0.000183157
-0.000221917
-3.60413e-08
3.10144e-08
2.48334e-08
0.000221957
-5.9469e-08
-1.58154e-08
0.00025063
-0.000250687
6.36127e-08
3.19264e-08
1.4387e-08
0.000183074
-9.36286e-09
-0.000183086
-4.83197e-08
1.06618e-08
0.00027828
1.96065e-08
-2.32363e-08
-1.01079e-08
-0.00022194
3.13113e-08
0.000250703
-1.01957e-07
-5.49635e-08
1.20646e-08
0.000183103
-0.000213832
1.2174e-08
1.21619e-08
7.00835e-09
8.05783e-05
-8.05947e-05
7.05514e-09
8.05668e-05
-8.05832e-05
-0.000213839
1.58003e-08
-1.63721e-08
0.000222
3.12573e-08
-0.000183143
-3.29257e-08
0.000183174
2.50384e-08
-6.75084e-09
-1.14482e-08
1.20828e-08
-0.000250758
3.59277e-08
0.000250826
-9.94563e-08
-5.48538e-08
6.12086e-08
3.18752e-08
0.000222038
-5.92818e-08
1.58268e-08
-1.44159e-08
0.000221934
3.13467e-08
-0.000183091
-3.09617e-08
0.000183121
2.27311e-08
-7.25113e-09
-1.14116e-08
1.2093e-08
-0.000250646
3.60147e-08
0.000250718
-1.01887e-07
-5.49484e-08
6.36316e-08
3.19245e-08
0.000221974
-5.93963e-08
1.1372e-08
1.1339e-08
-7.0089e-09
-7.0818e-09
0.000213799
1.22833e-08
1.01712e-08
-8.05622e-05
-1.22971e-08
-1.19829e-08
8.05865e-05
-8.05488e-05
-1.22217e-08
-1.2088e-08
8.05731e-05
9.39393e-09
9.35504e-09
-2.69958e-08
-2.50589e-08
0.000213827
-1.64898e-08
0.000221965
1.82297e-08
2.89608e-08
-0.000183087
-3.33545e-08
0.000183121
-9.42105e-09
2.49531e-08
1.21024e-08
3.8426e-08
-0.000250745
0.000250808
-9.96473e-08
-5.23451e-08
0.000222
-5.7361e-08
6.1108e-08
2.94213e-08
-1.63073e-08
0.000221899
1.57349e-08
3.35212e-08
-0.000183034
-3.314e-08
0.000183065
-6.75816e-09
2.49091e-08
9.72708e-09
3.60818e-08
-0.000250637
0.000250705
-1.02142e-07
-5.2447e-08
0.000221939
-6.19141e-08
6.35751e-08
2.93823e-08
-9.80794e-05
1.1437e-08
4.90486e-09
-1.97885e-08
-6.8791e-09
-9.80684e-05
1.14058e-08
4.92642e-09
-1.973e-08
-6.92321e-09
-0.000213818
1.22763e-08
1.22079e-08
-2.69677e-08
-2.50295e-08
0.000213846
7.02059e-09
8.05701e-05
9.38257e-09
7.09063e-09
8.05566e-05
9.34606e-09
1.22952e-08
1.01852e-08
-1.19806e-08
8.05944e-05
-1.20804e-08
8.05809e-05
-1.65417e-08
1.82228e-08
0.000221999
-0.000222017
-1.2307e-08
2.90146e-08
-0.000250779
3.83862e-08
0.000250839
-9.70424e-08
-5.23291e-08
-9.34479e-09
2.4999e-08
-0.000278354
1.2045e-08
-0.000183122
-3.32497e-08
1.19836e-08
0.000183156
-0.000183138
-9.36463e-09
-0.000250826
5.87325e-08
3.1906e-08
2.69331e-08
0.000222035
-5.72176e-08
-1.63639e-08
1.57389e-08
0.000221933
-0.000221956
-1.01947e-08
3.3571e-08
-0.000250668
3.60376e-08
0.000250736
-1.02014e-07
-5.24317e-08
-6.69361e-09
2.49624e-08
-0.000278286
9.68382e-09
-0.000183069
-3.30299e-08
1.20826e-08
0.0001831
-0.000183082
-9.332e-09
-0.000250721
6.35956e-08
2.93477e-08
2.49944e-08
0.000221973
-6.17694e-08
-0.000221982
3.33014e-08
-3.84079e-08
-5.72902e-08
1.65151e-08
0.000183104
-1.8219e-08
0.000250763
5.86499e-08
2.93793e-08
1.25916e-08
-5.07248e-08
-2.31432e-08
2.89906e-08
-9.71866e-08
-5.48816e-08
-0.000221916
3.30807e-08
-3.60577e-08
-6.18413e-08
1.63343e-08
0.000183051
-1.57363e-08
0.000250653
6.3588e-08
2.93596e-08
1.01069e-08
-5.07153e-08
-2.08734e-08
3.35526e-08
-1.0208e-07
-5.24425e-08
-7.031e-09
-7.09785e-09
0.000213838
-8.0578e-05
-1.22484e-08
8.06022e-05
-8.05645e-05
-1.21806e-08
8.05888e-05
0.000213865
-0.000143435
2.8913e-10
-2.88413e-08
1.50733e-09
0.000143462
8.34396e-10
0.000171145
-2.35352e-11
-0.000171157
-1.23932e-08
0.000223451
9.51826e-10
3.29736e-08
-0.000223471
2.99419e-08
2.19975e-09
0.000229439
1.4944e-11
-7.01701e-08
9.05633e-13
-0.000143447
0.000171176
-3.08181e-11
4.41546e-09
0.000223491
-7.16664e-08
7.93136e-05
1.70911e-08
-7.93307e-05
-2.19025e-11
-3.98973e-09
-0.000193725
2.26141e-08
2.41458e-08
-0.000263372
-4.42059e-09
-6.14447e-08
-1.52113e-09
-0.000263392
-9.63853e-10
3.32539e-08
-7.9305e-05
-2.4188e-08
-1.70737e-08
0.000263347
3.32366e-08
3.2806e-09
-4.35555e-08
-6.15029e-08
0.000143451
-8.42995e-10
1.23921e-08
-1.11082e-08
1.00607e-09
-7.87523e-11
2.85887e-08
-2.83755e-10
-0.000171164
-3.43516e-11
2.88239e-08
-0.000223471
-7.16354e-08
-2.77594e-11
3.29588e-08
-0.000143366
3.5051e-10
-2.88228e-08
1.44662e-09
0.000143393
7.83649e-10
0.000171111
-0.000171123
-1.2363e-08
0.000223352
-1.16253e-09
3.04841e-08
-0.000223368
2.99442e-08
2.11803e-09
0.000229398
-7.01745e-08
-1.91678e-11
-0.000143377
0.000171141
6.39392e-09
0.000223388
-6.91989e-08
1.70606e-08
7.92717e-05
-7.92888e-05
-1.35983e-12
-4.0292e-09
-0.000193664
-4.96255e-09
2.47796e-08
-0.00026324
2.4184e-08
-6.40143e-09
0.000263284
-5.89553e-08
-0.000263258
1.14205e-09
3.07342e-08
-1.46281e-09
7.92974e-05
-7.92631e-05
-2.42286e-08
-1.704e-08
0.000263214
3.07098e-08
-0.000263233
3.4537e-09
6.86399e-09
-4.57644e-08
-7.92802e-05
-5.90079e-08
-7.98167e-10
1.23645e-08
0.000143381
-1.11017e-08
9.42128e-10
2.85823e-08
-0.000171129
-3.39084e-10
0.000171159
-0.000223372
2.87976e-08
0.000223408
-6.91671e-08
3.04709e-08
0.000143408
-9.80591e-05
1.36472e-08
-2.20585e-08
1.58926e-08
-1.45946e-08
0.000221909
-1.46053e-08
3.37088e-08
-0.00022193
-0.000250615
3.84531e-08
0.00025068
-9.72123e-08
-5.48484e-08
2.26318e-08
-7.44809e-09
-0.000278226
1.20898e-08