/*--------------------------------*- C++ -*----------------------------------*\
| =========                 |                                                 |
| \\      /  F ield         | OpenFOAM: The Open Source CFD Toolbox           |
|  \\    /   O peration     | Version:  2312                                  |
|   \\  /    A nd           | Website:  www.openfoam.com                      |
|    \\/     M anipulation  |                                                 |
\*---------------------------------------------------------------------------*/
FoamFile
{
    version     2.0;
    format      ascii;
    arch        "LSB;label=32;scalar=64";
    class       volScalarField;
    location    "400";
    object      nut;
}
// * * * * * * * * * * * * * * * * * * * * * * * * * * * * * * * * * * * * * //

dimensions      [0 2 -1 0 0 0 0];

internalField   nonuniform List<scalar> 
42840
(
0.000145947
9.86058e-05
9.86059e-05
8.18748e-05
0.000141918
9.62727e-05
9.6274e-05
8.19289e-05
0.000137976
9.44598e-05
9.44593e-05
8.24978e-05
0.000134139
9.31643e-05
9.31644e-05
8.34633e-05
0.000130459
9.23736e-05
9.23741e-05
8.47998e-05
0.000126965
9.20681e-05
9.20698e-05
8.63858e-05
0.000123693
9.22195e-05
9.22218e-05
8.83759e-05
0.000120686
9.27988e-05
9.28019e-05
9.05634e-05
0.000117948
9.3771e-05
9.37731e-05
9.28889e-05
0.000115533
9.50996e-05
9.51004e-05
9.55144e-05
0.000113453
9.67448e-05
9.67445e-05
9.8031e-05
0.000111725
9.86701e-05
9.86716e-05
0.00010073
0.000110358
0.000100842
0.000100842
0.000103255
0.000109357
0.000103227
0.00010323
0.000105895
0.000108724
0.000105793
0.000105801
0.000108642
0.000108454
0.000108512
0.000108523
0.000111212
0.000108542
0.000111358
0.000111368
0.00011398
0.000108977
0.000114303
0.000114315
0.000116572
0.000109746
0.000117329
0.00011734
0.000119268
0.000110835
0.000120424
0.000120434
0.0001219
0.000112228
0.000123568
0.000123577
0.000124607
0.000113906
0.000126741
0.00012675
0.000127213
0.000115851
0.000129927
0.000129938
0.00012974
0.000118041
0.000133114
0.000133125
0.00013222
0.000120456
0.000136288
0.000136301
0.000134772
8.19653e-05
8.19205e-05
9.85802e-05
9.85705e-05
9.67833e-05
9.6772e-05
8.1963e-05
8.19068e-05
9.86016e-05
9.85749e-05
9.68048e-05
9.67748e-05
9.85821e-05
9.68031e-05
9.67828e-05
8.19977e-05
8.1893e-05
9.85966e-05
9.68054e-05
9.67967e-05
8.20582e-05
8.20971e-05
8.23291e-05
9.62476e-05
9.62398e-05
9.48399e-05
9.48307e-05
8.21474e-05
8.23239e-05
9.62683e-05
9.62436e-05
9.48614e-05
9.48344e-05
9.62508e-05
9.4861e-05
9.48427e-05
8.20762e-05
8.22893e-05
9.62648e-05
9.48627e-05
9.48557e-05
8.25394e-05
8.26161e-05
8.32407e-05
9.44336e-05
9.44277e-05
9.3418e-05
9.34088e-05
8.26469e-05
8.33754e-05
9.44542e-05
9.44318e-05
9.34376e-05
9.3412e-05
9.44415e-05
9.34385e-05
9.34217e-05
8.26464e-05
8.31874e-05
9.44533e-05
9.34392e-05
9.34331e-05
8.34253e-05
8.36112e-05
8.44534e-05
9.31398e-05
9.31338e-05
9.25044e-05
9.24955e-05
8.34959e-05
8.46862e-05
9.31592e-05
9.31377e-05
9.25231e-05
9.24988e-05
9.31494e-05
9.25236e-05
9.2512e-05
8.3676e-05
8.44895e-05
9.31599e-05
9.25249e-05
9.25215e-05
8.48711e-05
8.50136e-05
8.63668e-05
9.23512e-05
9.23457e-05
9.20822e-05
9.20737e-05
8.47639e-05
8.60854e-05
9.237e-05
9.23497e-05
9.20998e-05
9.20781e-05
9.23639e-05
9.21004e-05
9.2091e-05
8.49816e-05
8.61102e-05
9.23729e-05
9.21026e-05
9.20984e-05
8.64845e-05
8.65346e-05
8.80185e-05
9.2049e-05
9.20431e-05
9.2124e-05
9.21155e-05
8.66927e-05
8.80152e-05
9.20657e-05
9.20482e-05
9.21397e-05
9.21224e-05
9.20609e-05
9.21402e-05
9.21336e-05
8.67388e-05
8.8295e-05
9.20682e-05
9.21437e-05
9.21396e-05
8.83871e-05
8.86346e-05
9.01343e-05
9.22035e-05
9.21975e-05
9.26019e-05
9.25936e-05
8.86363e-05
9.0176e-05
9.22179e-05
9.2204e-05
9.26157e-05
9.26024e-05
9.22171e-05
9.26148e-05
9.26146e-05
8.84186e-05
9.01573e-05
9.22219e-05
9.26208e-05
9.26176e-05
9.05931e-05
9.08405e-05
9.28134e-05
9.27856e-05
9.27792e-05
9.34831e-05
9.34734e-05
9.0845e-05
9.25412e-05
9.2798e-05
9.27886e-05
9.34941e-05
9.34796e-05
9.28011e-05
9.34929e-05
9.34949e-05
9.08347e-05
9.24674e-05
9.28035e-05
9.34952e-05
9.34961e-05
9.28728e-05
9.29555e-05
9.51829e-05
9.37601e-05
9.37542e-05
9.47253e-05
9.47182e-05
9.31453e-05
9.48967e-05
9.37699e-05
9.37603e-05
9.47361e-05
9.4724e-05
9.37762e-05
9.47354e-05
9.47402e-05
9.31523e-05
9.50167e-05
9.37768e-05
9.4738e-05
9.47394e-05
9.49608e-05
9.5254e-05
9.76356e-05
9.50869e-05
9.5084e-05
9.62952e-05
9.62906e-05
9.54879e-05
9.7535e-05
9.50976e-05
9.50898e-05
9.63052e-05
9.62937e-05
9.51067e-05
9.63057e-05
9.63132e-05
9.53949e-05
9.75879e-05
9.51058e-05
9.6307e-05
9.63105e-05
9.73075e-05
9.76302e-05
0.000100218
9.67329e-05
9.67332e-05
9.81546e-05
9.81526e-05
9.79086e-05
0.000100093
9.6741e-05
9.67357e-05
9.81626e-05
9.81543e-05
9.67559e-05
9.81653e-05
9.81758e-05
9.79199e-05
0.000100092
9.67522e-05
9.8167e-05
9.81732e-05
9.98067e-05
0.000100254
0.000102815
9.86601e-05
9.86626e-05
0.000100268
0.00010027
0.000100462
0.000102601
9.86671e-05
9.86639e-05
0.000100276
0.000100268
9.86856e-05
0.000100279
0.000100292
0.000100325
0.000102769
9.86814e-05
0.000100281
0.000100287
0.000102435
0.000102903
0.000105452
0.00010083
0.000100837
0.000102601
0.000102605
0.0001031
0.000105228
0.000100837
0.000100836
0.000102607
0.000102602
0.000100861
0.000102613
0.000102629
0.000102922
0.000105282
0.000100855
0.000102615
0.000102625
0.000105039
0.000105472
0.000108033
0.000103214
0.000103222
0.000105126
0.000105131
0.000105764
0.000107889
0.00010322
0.000103222
0.000105132
0.000105129
0.000103247
0.000105137
0.000105155
0.000105629
0.000107893
0.000103242
0.000105143
0.000105151
0.000107712
0.000108179
0.000110749
0.000105783
0.00010579
0.000107812
0.000107815
0.000108392
0.000110405
0.000105789
0.000105791
0.000107817
0.000107817
0.000105815
0.000107821
0.000107841
0.00010843
0.000110571
0.000105811
0.000107832
0.000107838
0.000110479
0.000110838
0.000113429
0.000108502
0.00010851
0.000110627
0.000110631
0.000111208
0.000113289
0.000108508
0.000108513
0.000110633
0.000110633
0.000108537
0.000110638
0.00011066
0.000111078
0.000113097
0.000108533
0.000110648
0.000110655
0.000113164
0.000113535
0.000116077
0.000111347
0.000111355
0.00011355
0.000113552
0.000113764
0.000116044
0.000111353
0.000111358
0.000113555
0.000113558
0.000111384
0.00011356
0.000113581
0.000113886
0.000115817
0.000111378
0.000113573
0.000113577
0.000115824
0.000116221
0.000118762
0.000114293
0.0001143
0.000116559
0.00011656
0.000116275
0.0001188
0.000114299
0.000114304
0.000116564
0.000116563
0.000114327
0.000116567
0.000116589
0.000116536
0.000118458
0.000114323
0.000116579
0.000116587
0.000118545
0.000118859
0.000121431
0.000117322
0.000117327
0.000119641
0.000119638
0.000118889
0.000121429
0.000117326
0.000117329
0.000119644
0.000119641
0.000117353
0.000119646
0.000119669
0.000119245
0.000121086
0.00011735
0.000119657
0.000119665
0.000121206
0.000121513
0.000123897
0.000120419
0.00012042
0.000122774
0.000122771
0.00012155
0.000124075
0.000120422
0.000120422
0.000122777
0.000122773
0.000120449
0.000122779
0.000122803
0.00012189
0.00012377
0.000120445
0.00012279
0.000122798
0.000123844
0.000124422
0.000126632
0.000123565
0.000123564
0.000125943
0.000125938
0.000124202
0.00012671
0.000123566
0.000123565
0.000125944
0.000125941
0.000123593
0.000125947
0.00012597
0.000124518
0.000126443
0.000123587
0.000125958
0.000125965
0.000126481
0.000126896
0.000129305
0.000126738
0.000126735
0.000129129
0.000129122
0.000126853
0.000129347
0.000126739
0.000126738
0.000129127
0.000129126
0.000126764
0.000129131
0.000129152
0.000127123
0.000129038
0.000126759
0.000129143
0.000129147
0.000129215
0.000129411
0.000131634
0.000129925
0.00012992
0.000132317
0.000132308
0.000129493
0.000131821
0.000129923
0.000129924
0.000132314
0.000132313
0.00012995
0.000132317
0.000132341
0.000129766
0.000131696
0.000129944
0.00013233
0.000132336
0.000131771
0.000132266
0.000134182
0.000133115
0.000133105
0.000135499
0.000135486
0.000132083
0.000134253
0.000133111
0.000133109
0.000135495
0.000135491
0.000133136
0.000135496
0.000135519
0.000132244
0.000134335
0.000133131
0.00013551
0.000135515
0.000134305
0.000134777
0.000136292
0.000136278
0.000134734
0.000136287
0.000136283
0.00013631
0.000134729
0.000136305
7.20375e-05
4.95814e-05
4.9585e-05
7.12133e-05
2.36161e-05
2.3613e-05
7.20376e-05
4.95762e-05
4.958e-05
7.12093e-05
0.000145942
0.00014594
0.000145938
0.000142908
0.000142902
0.000142899
0.000142897
6.99392e-05
6.76216e-05
0.000122026
9.79671e-05
6.8266e-05
0.00012104
6.892e-05
2.36152e-05
2.36122e-05
6.9936e-05
0.000122001
6.7641e-05
9.79692e-05
0.000121034
6.82409e-05
6.89152e-05
6.20588e-05
6.20441e-05
8.19967e-05
6.2358e-05
6.23698e-05
7.37871e-05
4.95998e-05
7.30546e-05
4.96025e-05
2.36047e-05
2.36019e-05
7.37872e-05
4.95946e-05
7.30502e-05
4.95973e-05
0.000141913
0.000141911
0.00014191
0.000138937
0.000138932
0.000138929
0.000138927
7.29388e-05
6.94207e-05
0.000118297
9.57663e-05
7.18939e-05
7.00222e-05
0.000117375
2.36038e-05
2.36011e-05
7.29079e-05
0.000118275
6.94457e-05
9.57677e-05
7.19034e-05
0.000117371
7.00093e-05
6.29268e-05
6.29197e-05
8.22226e-05
6.3207e-05
6.32104e-05
7.53081e-05
4.96155e-05
7.46769e-05
4.96191e-05
2.35943e-05
2.35918e-05
7.53212e-05
4.96087e-05
7.4662e-05
4.96139e-05
0.000137972
0.00013797
0.000137969
0.000135085
0.000135081
0.000135078
0.000135076
7.58724e-05
7.11166e-05
0.000114863
9.40845e-05
7.49013e-05
7.16936e-05
0.000114043
2.35934e-05
2.3591e-05
7.58607e-05
0.000114846
7.11476e-05
9.40853e-05
7.49127e-05
0.000114044
7.16638e-05
6.37301e-05
6.37234e-05
8.28897e-05
6.39888e-05
6.39895e-05
7.66684e-05
4.96289e-05
7.61006e-05
4.96314e-05
2.35849e-05
2.35828e-05
7.66807e-05
4.96235e-05
7.60852e-05
4.96262e-05
0.000134135
0.000134132
0.000134133
0.000131366
0.000131363
0.000131359
0.00013136
7.87875e-05
7.27141e-05
0.000111745
9.29183e-05
7.7851e-05
7.32546e-05
0.00011101
2.3584e-05
2.35818e-05
7.87973e-05
0.00011173
7.27459e-05
9.29179e-05
7.78584e-05
0.000111013
7.32337e-05
6.44725e-05
6.44638e-05
8.40399e-05
6.47113e-05
6.47096e-05
7.78877e-05
4.96405e-05
7.7371e-05
4.96432e-05
2.35764e-05
2.35746e-05
7.78984e-05
4.96355e-05
7.73558e-05
4.96378e-05
0.000130457
0.000130453
0.000130454
0.000127823
0.000127821
0.000127817
0.000127818
8.16133e-05
7.42185e-05
0.000109009
9.22519e-05
8.07073e-05
7.4733e-05
0.000108372
2.35755e-05
2.35737e-05
8.16171e-05
0.000108994
7.42511e-05
9.22531e-05
8.07059e-05
0.000108375
7.47103e-05
6.51573e-05
6.51508e-05
8.57117e-05
6.53801e-05
6.53797e-05
7.89918e-05
4.96509e-05
7.85189e-05
4.96542e-05
2.35688e-05
2.35674e-05
7.90005e-05
4.96452e-05
7.85047e-05
4.96492e-05
0.000126963
0.000126959
0.000126961
0.000124492
0.000124491
0.000124487
0.000124489
8.43413e-05
7.56366e-05
0.000106677
9.20633e-05
8.34459e-05
7.61264e-05
0.000106145
2.35679e-05
2.35664e-05
8.43475e-05
0.000106662
7.56686e-05
9.20665e-05
8.34497e-05
0.000106147
7.6105e-05
6.57937e-05
6.57879e-05
8.74013e-05
6.6004e-05
6.60039e-05
8.00019e-05
4.96604e-05
7.95694e-05
4.9665e-05
2.35622e-05
2.35611e-05
8.00099e-05
4.96559e-05
7.95551e-05
4.96594e-05
0.00012369
0.000123687
0.000123689
0.000121419
0.000121418
0.000121414
0.000121417
8.6942e-05
7.6975e-05
0.000104771
9.23264e-05
8.60814e-05
7.74437e-05
0.000104351
2.35613e-05
2.35601e-05
8.6947e-05
0.000104758
7.70074e-05
9.23291e-05
8.60874e-05
0.000104351
7.74226e-05
6.63887e-05
6.63843e-05
8.94675e-05
6.6587e-05
6.65854e-05
8.09398e-05
4.96693e-05
8.05379e-05
4.96758e-05
2.35565e-05
2.35557e-05
8.09438e-05
4.96651e-05
8.05242e-05
4.96696e-05
0.000120683
0.00012068
0.000120682
0.000118602
0.000118601
0.000118598
0.0001186
8.94392e-05
7.82376e-05
0.000103312
9.30053e-05
8.86032e-05
7.86932e-05
0.000103001
2.35556e-05
2.35548e-05
8.9452e-05
0.000103299
7.8271e-05
9.30102e-05
8.86021e-05
0.000103002
7.86747e-05
6.69468e-05
6.69439e-05
9.17213e-05
6.71357e-05
6.71333e-05
8.18159e-05
4.96791e-05
8.14389e-05
4.96863e-05
2.35518e-05
2.35514e-05
8.18149e-05
4.96742e-05
8.14282e-05
4.96805e-05
0.000117947
0.000117944
0.000117947
0.000116106
0.000116105
0.000116103
0.000116106
9.18261e-05
7.94413e-05
0.000102301
9.40698e-05
9.10151e-05
7.98733e-05
0.000102102
2.3551e-05
2.35505e-05
9.18553e-05
0.000102288
7.94776e-05
9.40732e-05
9.09939e-05
0.000102103
7.98544e-05
6.74757e-05
6.7472e-05
9.38195e-05
6.76527e-05
6.76513e-05
8.26368e-05
4.96894e-05
8.22783e-05
4.96975e-05
2.35481e-05
2.3548e-05
8.26357e-05
4.96839e-05
8.22731e-05
4.96918e-05
0.000115532
0.000115529
0.000115533
0.000113941
0.000113941
0.000113938
0.000113942
9.4123e-05
8.05882e-05
0.000101733
9.54818e-05
9.33042e-05
8.09966e-05
0.000101644
2.35473e-05
2.35472e-05
9.41453e-05
0.000101721
8.06214e-05
9.54838e-05
9.32923e-05
0.000101644
8.09823e-05
6.79765e-05
6.79728e-05
9.60976e-05
6.81446e-05
6.81425e-05
8.3409e-05
4.97005e-05
8.3072e-05
4.97093e-05
2.35454e-05
2.35457e-05
8.34045e-05
4.96982e-05
8.30681e-05
4.97007e-05
0.000113453
0.00011345
0.000113455
0.000112124
0.000112123
0.000112121
0.000112126
9.63208e-05
8.16991e-05
0.000101594
9.72002e-05
9.55088e-05
8.20554e-05
0.000101609
2.35446e-05
2.35449e-05
9.6348e-05
0.000101586
8.17122e-05
9.72019e-05
9.54981e-05
0.000101614
8.20578e-05
6.84526e-05
6.84495e-05
9.86259e-05
6.86133e-05
6.86111e-05
8.4138e-05
4.97163e-05
8.3823e-05
4.97188e-05
2.35437e-05
2.35444e-05
8.4136e-05
4.9711e-05
8.38175e-05
4.97133e-05
0.000111725
0.000111722
0.000111729
0.000110665
0.000110666
0.000110663
0.00011067
9.844e-05
8.27475e-05
0.000101865
9.91922e-05
9.76274e-05
8.30884e-05
0.000101981
2.3543e-05
2.35436e-05
9.84607e-05
0.00010186
8.27542e-05
9.91953e-05
9.76149e-05
0.000101987
8.30975e-05
6.89074e-05
6.89047e-05
0.000101189
6.90614e-05
6.90594e-05
8.48389e-05
4.973e-05
8.45341e-05
4.97328e-05
2.35431e-05
2.35442e-05
8.48349e-05
4.97245e-05
8.45326e-05
4.97274e-05
0.000110359
0.000110356
0.000110364
0.000109573
0.000109574
0.000109571
0.00010958
0.000100483
8.37516e-05
0.00010253
0.000101421
9.9666e-05
8.40863e-05
0.000102741
2.35424e-05
2.35434e-05
0.000100509
0.000102525
8.37333e-05
0.000101422
9.96542e-05
0.000102745
8.41079e-05
6.93433e-05
6.93404e-05
0.000103769
6.94917e-05
6.94903e-05
8.55133e-05
4.97448e-05
8.52143e-05
4.97483e-05
2.35435e-05
2.35449e-05
8.55048e-05
4.97394e-05
8.52146e-05
4.97429e-05
0.000109358
0.000109357
0.000109366
0.000108848
0.000108849
0.000108848
0.000108857
0.000102454
8.47126e-05
0.000103559
0.000103853
0.000101637
8.50325e-05
0.000103857
2.35427e-05
2.35441e-05
0.000102479
0.000103555
8.46857e-05
0.000103858
0.000101629
0.000103862
8.50685e-05
6.97619e-05
6.97575e-05
0.000106372
6.99049e-05
6.9905e-05
8.61551e-05
4.97611e-05
8.58742e-05
4.97663e-05
2.35448e-05
2.35466e-05
8.61533e-05
4.97557e-05
8.5871e-05
4.97598e-05
0.000108726
0.000108725
0.000108735
0.000108488
0.00010849
0.000108489
0.000108499
0.000104366
8.56312e-05
0.000104922
0.00010646
0.000103545
8.59503e-05
0.000105302
2.3544e-05
2.35458e-05
0.000104386
0.000104923
8.56144e-05
0.000106471
0.000103543
0.000105312
8.59859e-05
7.01638e-05
7.01584e-05
0.000109113
7.03041e-05
7.03033e-05
8.67838e-05
4.97752e-05
8.65105e-05
4.97867e-05
2.35471e-05
2.35492e-05
8.67794e-05
4.97735e-05
8.65077e-05
4.97782e-05
0.000108457
0.000108457
0.000108467
0.000108488
0.000108489
0.00010849
0.0001085
0.000106218
8.65166e-05
0.000106595
0.000109214
0.000105397
8.68337e-05
0.00010705
2.35463e-05
2.35484e-05
0.000106236
0.000106601
8.65021e-05
0.000109225
0.000105396
0.000107063
8.68622e-05
7.05506e-05
7.0545e-05
0.000111691
7.06886e-05
7.06868e-05
8.74003e-05
4.97979e-05
8.71226e-05
4.98031e-05
2.35503e-05
2.35527e-05
8.73912e-05
4.97926e-05
8.71216e-05
4.97979e-05
0.000108545
0.000108546
0.000108557
0.000108836
0.000108838
0.000108841
0.000108851
0.000108013
8.73702e-05
0.000108555
0.000112088
0.000107201
8.76836e-05
0.000109077
2.35495e-05
2.35519e-05
0.000108021
0.000108563
8.73543e-05
0.000112099
0.000107204
0.00010909
8.77113e-05
7.09239e-05
7.09182e-05
0.000114512
7.10591e-05
7.10562e-05
8.79976e-05
4.98184e-05
8.7723e-05
4.98244e-05
2.35543e-05
2.3557e-05
8.7987e-05
4.98131e-05
8.77235e-05
4.9819e-05
0.000108979
0.000108982
0.000108992
0.000109523
0.000109525
0.000109529
0.000109538
0.000109763
8.81934e-05
0.000110769
0.000115055
0.000108952
8.85056e-05
0.000111352
2.35536e-05
2.35562e-05
0.000109766
0.000110778
8.81754e-05
0.000115067
0.000108958
0.000111365
8.85354e-05
7.12847e-05
7.12787e-05
0.0001171
7.14159e-05
7.14138e-05
8.85817e-05
4.98364e-05
8.83111e-05
4.98496e-05
2.35593e-05
2.35625e-05
8.85702e-05
4.98351e-05
8.83116e-05
4.98416e-05
0.000109748
0.000109752
0.000109762
0.000110534
0.000110535
0.000110539
0.000110549
0.000111454
8.89824e-05
0.000113212
0.000118099
0.000110663
8.93072e-05
0.000113847
2.35584e-05
2.35613e-05
0.00011146
0.00011322
8.89773e-05
0.00011811
0.000110669
0.00011386
8.93233e-05
7.16335e-05
7.16266e-05
0.000119839
7.17603e-05
7.1759e-05
8.91509e-05
4.98599e-05
8.8887e-05
4.98734e-05
2.35651e-05
2.35684e-05
8.91412e-05
4.98583e-05
8.88855e-05
4.98654e-05
0.000110836
0.000110841
0.000110851
0.000111852
0.000111853
0.000111858
0.000111869
0.000113102
8.97463e-05
0.000115856
0.000121208
0.000112337
9.00725e-05
0.000116538
2.3564e-05
2.35672e-05
0.000113108
0.000115862
8.97478e-05
0.000121219
0.000112339
0.000116551
9.00901e-05
7.19704e-05
7.19636e-05
0.000122417
7.20934e-05
7.20922e-05
8.97141e-05
4.98844e-05
8.94519e-05
4.98978e-05
2.35714e-05
2.35749e-05
8.96996e-05
4.98829e-05
8.94563e-05
4.98914e-05
0.000112229
0.000112233
0.000112245
0.000113461
0.000113462
0.000113467
0.000113479
0.000114703
9.0489e-05
0.000118679
0.000124361
0.00011396
9.08082e-05
0.000119403
2.35703e-05
2.35738e-05
0.000114711
0.000118684
9.04945e-05
0.000124371
0.000113961
0.000119416
9.08114e-05
7.2296e-05
7.2289e-05
0.000125073
7.24148e-05
7.24155e-05
9.02597e-05
4.99133e-05
9.00051e-05
4.99214e-05
2.35783e-05
2.35821e-05
9.02566e-05
4.99052e-05
9.00014e-05
4.99195e-05
0.000113908
0.000113912
0.000113924
0.000115341
0.000115342
0.000115348
0.00011536
0.000116265
9.12067e-05
0.000121669
0.000127538
0.00011554
9.15208e-05
0.000122433
2.35773e-05
2.3581e-05
0.000116279
0.000121676
9.12113e-05
0.000127548
0.000115543
0.000122447
9.1524e-05
7.26104e-05
7.26025e-05
0.000127864
7.27255e-05
7.27281e-05
9.07879e-05
4.99401e-05
9.05558e-05
4.99493e-05
2.35859e-05
2.35898e-05
9.07914e-05
4.99319e-05
9.05391e-05
4.99466e-05
0.000115852
0.000115858
0.00011587
0.000117471
0.000117472
0.000117479
0.000117492
0.000117773
9.19132e-05
0.000124812
0.000130724
0.000117075
9.21981e-05
0.000125611
2.35849e-05
2.35888e-05
0.000117791
0.00012482
9.19087e-05
0.000130737
0.000117083
0.000125627
9.2221e-05
7.29154e-05
7.2907e-05
0.000130495
7.3026e-05
7.30261e-05
9.13122e-05
4.99644e-05
9.10859e-05
4.99793e-05
2.3594e-05
2.35981e-05
9.13178e-05
4.99593e-05
9.10679e-05
4.99735e-05
0.000118042
0.000118048
0.000118062
0.000119832
0.000119832
0.00011984
0.000119854
0.000119237
9.25825e-05
0.000128085
0.000133908
0.000118562
9.28681e-05
0.000128911
2.3593e-05
2.35972e-05
0.000119251
0.000128094
9.25729e-05
0.000133921
0.000118566
0.000128928
9.28863e-05
7.32099e-05
7.32014e-05
0.000133053
7.33165e-05
7.3314e-05
9.1819e-05
4.99928e-05
9.16e-05
5.00078e-05
2.36026e-05
2.36069e-05
9.18215e-05
4.99907e-05
9.1585e-05
5.00003e-05
0.000120455
0.000120463
0.000120478
0.000120649
9.32322e-05
0.000131455
0.000137079
0.00012
9.35093e-05
0.000132303
2.36017e-05
2.3606e-05
0.000120662
0.000131467
9.3222e-05
0.000137093
0.000120003
0.000132323
9.35344e-05
7.3493e-05
7.34846e-05
0.000135474
7.35973e-05
7.3596e-05
2.36183e-05
2.36151e-05
2.36163e-05
2.36131e-05
6.2069e-05
6.20672e-05
8.18606e-05
6.23677e-05
6.23664e-05
2.36095e-05
2.36125e-05
2.36074e-05
2.36105e-05
8.20097e-05
6.27971e-05
6.27982e-05
6.25177e-05
6.25151e-05
7.20206e-05
4.95754e-05
4.9579e-05
7.12239e-05
6.99383e-05
6.76581e-05
0.000122002
9.79472e-05
6.82349e-05
0.000121029
6.8932e-05
6.99325e-05
6.76513e-05
0.000122003
9.79347e-05
6.82384e-05
0.000121031
6.89277e-05
7.21646e-05
4.9594e-05
4.9591e-05
7.29434e-05
7.21759e-05
4.9588e-05
4.95849e-05
7.29267e-05
7.0414e-05
9.73483e-05
6.9136e-05
0.000119163
6.85653e-05
0.000120103
7.14348e-05
7.0416e-05
9.73404e-05
6.91603e-05
0.000119163
6.85568e-05
0.000120104
7.14235e-05
6.20527e-05
6.20486e-05
8.18466e-05
6.23559e-05
6.23664e-05
2.36176e-05
2.36146e-05
2.36073e-05
2.36103e-05
8.20192e-05
6.27876e-05
6.27985e-05
6.25042e-05
6.25047e-05
2.36089e-05
2.36118e-05
6.99493e-05
6.7652e-05
0.000122007
9.79692e-05
6.82355e-05
0.000121035
6.89294e-05
7.20387e-05
4.95672e-05
4.95802e-05
7.12067e-05
6.99435e-05
0.000121994
6.76205e-05
9.79382e-05
0.000121023
6.82625e-05
6.89328e-05
7.21603e-05
4.95889e-05
4.95857e-05
7.29432e-05
7.03976e-05
9.73698e-05
6.91321e-05
0.000119167
6.85611e-05
0.000120107
7.14427e-05
7.21586e-05
4.95893e-05
4.95767e-05
7.2941e-05
7.04002e-05
9.73439e-05
0.000119154
6.9154e-05
0.000120094
6.8529e-05
7.14401e-05
7.20126e-05
4.95722e-05
4.95852e-05
7.12178e-05
6.99548e-05
0.000122011
6.76417e-05
9.79447e-05
0.000121038
6.8233e-05
6.89309e-05
7.20145e-05
4.95681e-05
4.95811e-05
7.12227e-05
7.03947e-05
9.73741e-05
6.91612e-05
0.000119172
6.85305e-05
0.000120127
7.14341e-05
7.21663e-05
4.95935e-05
4.95815e-05
7.29177e-05
7.0396e-05
9.73524e-05
0.00011917
6.91393e-05
0.000120113
6.85534e-05
7.14323e-05
7.21746e-05
4.95902e-05
4.95775e-05
7.29177e-05
6.20431e-05
6.20507e-05
8.18455e-05
6.2371e-05
6.23746e-05
2.36174e-05
2.36144e-05
2.36065e-05
2.36094e-05
8.20569e-05
6.2803e-05
6.28121e-05
6.24897e-05
6.25009e-05
2.36087e-05
2.36116e-05
6.99311e-05
0.000122006
6.76238e-05
9.79593e-05
0.000121039
6.82627e-05
6.89329e-05
7.20171e-05
4.95721e-05
4.95851e-05
7.12206e-05
7.20143e-05
4.95713e-05
4.95751e-05
7.12189e-05
7.04068e-05
9.73749e-05
0.000119167
6.91397e-05
0.000120104
6.85543e-05
7.14392e-05
7.04206e-05
9.73663e-05
0.000119172
6.91534e-05
0.000120107
6.85329e-05
7.14219e-05
7.21696e-05
4.95942e-05
4.95817e-05
7.29208e-05
7.2168e-05
4.95841e-05
4.95808e-05
7.29188e-05
2.3616e-05
2.36129e-05
2.36149e-05
2.36118e-05
8.18751e-05
6.279e-05
6.27928e-05
6.25086e-05
6.24914e-05
2.36073e-05
2.36102e-05
2.36061e-05
2.36091e-05
2.36069e-05
2.36041e-05
2.36049e-05
2.3602e-05
6.29379e-05
6.29387e-05
8.19761e-05
6.32149e-05
6.32145e-05
2.35989e-05
2.36016e-05
2.35968e-05
2.35995e-05
8.23168e-05
6.36149e-05
6.3612e-05
6.33469e-05
6.33477e-05
7.37727e-05
4.95939e-05
7.30628e-05
4.9597e-05
7.29299e-05
6.94506e-05
0.000118274
9.57452e-05
7.19068e-05
6.9998e-05
0.000117367
7.29293e-05
6.94245e-05
0.000118273
9.57356e-05
7.19071e-05
7.00295e-05
0.000117367
7.38856e-05
4.96103e-05
4.9608e-05
7.45665e-05
7.38945e-05
4.96072e-05
4.96003e-05
7.45633e-05
7.34058e-05
9.52757e-05
7.08458e-05
0.000115645
7.03129e-05
0.000116517
7.44265e-05
7.34012e-05
9.5268e-05
7.08739e-05
0.000115644
7.02769e-05
0.000116516
7.44343e-05
6.29289e-05
6.29301e-05
8.20408e-05
6.32059e-05
6.32131e-05
2.36062e-05
2.36034e-05
2.35968e-05
2.35994e-05
8.23008e-05
6.3604e-05
6.36135e-05
6.33378e-05
6.33397e-05
2.35983e-05
2.36009e-05
7.2943e-05
6.94481e-05
0.000118278
9.57661e-05
7.18921e-05
6.9999e-05
0.00011737
7.3787e-05
4.95853e-05
7.30475e-05
4.95976e-05
7.29227e-05
0.000118263
6.94203e-05
9.5738e-05
7.18947e-05
0.000117358
7.00266e-05
7.38815e-05
4.96051e-05
4.96029e-05
7.45808e-05
7.33912e-05
9.52963e-05
7.08429e-05
0.000115647
7.03104e-05
0.00011652
7.4432e-05
7.38819e-05
4.96053e-05
4.95939e-05
7.45639e-05
7.3404e-05
9.52719e-05
0.000115636
7.08675e-05
0.000116507
7.02777e-05
7.44209e-05
7.37631e-05
4.95929e-05
7.30543e-05
4.95987e-05
7.29246e-05
0.000118283
6.9432e-05
9.57441e-05
7.1901e-05
0.000117374
7.0005e-05
7.37815e-05
4.95862e-05
7.30625e-05
4.95985e-05
7.3385e-05
9.53001e-05
7.0872e-05
0.000115654
7.02808e-05
0.000116539
7.44089e-05
7.38856e-05
4.9606e-05
4.96032e-05
7.45393e-05
7.34033e-05
9.52813e-05
0.000115653
7.08439e-05
0.000116526
7.02949e-05
7.4432e-05
7.38855e-05
4.96053e-05
4.95946e-05
7.4554e-05
6.29168e-05
6.29255e-05
8.19769e-05
6.32206e-05
6.32249e-05
2.3606e-05
2.36032e-05
2.35959e-05
2.35985e-05
8.23244e-05
6.36039e-05
6.36144e-05
6.33281e-05
6.33375e-05
2.3598e-05
2.36006e-05
7.29217e-05
0.000118277
6.94222e-05
9.57573e-05
7.19137e-05
0.000117376
7.00253e-05
7.37653e-05
4.95903e-05
7.30572e-05
4.96025e-05
7.37634e-05
4.95899e-05
7.30552e-05
4.95926e-05
7.34059e-05
9.53014e-05
0.000115654
7.08438e-05
0.000116519
7.03012e-05
7.44009e-05
7.34035e-05
9.52938e-05
0.000115655
7.08682e-05
0.000116522
7.02809e-05
7.44152e-05
7.38883e-05
4.96084e-05
4.95988e-05
7.45573e-05
7.38863e-05
4.96005e-05
4.9598e-05
7.45549e-05
2.36046e-05
2.36018e-05
2.36035e-05
2.36007e-05
8.21584e-05
6.36054e-05
6.36064e-05
6.334e-05
6.33291e-05
2.35967e-05
2.35992e-05
2.35955e-05
2.35982e-05
2.35965e-05
2.3594e-05
2.35944e-05
2.35919e-05
6.3742e-05
6.37399e-05
8.2753e-05
6.39963e-05
6.39922e-05
2.35894e-05
2.35916e-05
2.35873e-05
2.35896e-05
8.31517e-05
6.43662e-05
6.43619e-05
6.41162e-05
6.41161e-05
7.53071e-05
4.96047e-05
7.46738e-05
4.96146e-05
7.59087e-05
7.11478e-05
0.000114841
9.40631e-05
7.48948e-05
7.16688e-05
0.000114036
7.59177e-05
7.11133e-05
0.000114839
9.40538e-05
7.48814e-05
7.17054e-05
0.000114035
7.54087e-05
4.9625e-05
4.96228e-05
7.60085e-05
7.54063e-05
4.96226e-05
4.96146e-05
7.60063e-05
7.63771e-05
9.37233e-05
7.24757e-05
0.000112465
7.19588e-05
0.000113232
7.73758e-05
7.6361e-05
9.3716e-05
7.24972e-05
0.000112463
7.19182e-05
0.00011323
7.73784e-05
6.37296e-05
6.37288e-05
8.27457e-05
6.39892e-05
6.39962e-05
2.35958e-05
2.35934e-05
2.35872e-05
2.35895e-05
8.31591e-05
6.43557e-05
6.43639e-05
6.41118e-05
6.41096e-05
2.35887e-05
2.35909e-05
7.59202e-05
7.11463e-05
0.000114843
9.40843e-05
7.48844e-05
7.16681e-05
0.000114039
7.5307e-05
4.96017e-05
7.46701e-05
4.96125e-05
7.59051e-05
0.000114832
7.11157e-05
9.40577e-05
7.48889e-05
0.000114027
7.16879e-05
7.53938e-05
4.96191e-05
4.96176e-05
7.60235e-05
7.6362e-05
9.37428e-05
7.25051e-05
0.000112468
7.1954e-05
0.000113234
7.7379e-05
7.54027e-05
4.96191e-05
4.96087e-05
7.60068e-05
7.63697e-05
9.37204e-05
0.000112457
7.24868e-05
0.000113225
7.19252e-05
7.73902e-05
7.5281e-05
4.96092e-05
7.46758e-05
4.96143e-05
7.59177e-05
0.00011485
7.11359e-05
9.4065e-05
7.48842e-05
0.000114045
7.16696e-05
7.52963e-05
4.9605e-05
7.46739e-05
4.96133e-05
7.63842e-05
9.37472e-05
7.24889e-05
0.000112474
7.19262e-05
0.000113254
7.73424e-05
7.54089e-05
4.96202e-05
4.96172e-05
7.59821e-05
7.63607e-05
9.37307e-05
0.000112474
7.24674e-05
0.000113242
7.19437e-05
7.7382e-05
7.54077e-05
4.9619e-05
4.96097e-05
7.59974e-05
6.37266e-05
6.37338e-05
8.26531e-05
6.39884e-05
6.40051e-05
2.35956e-05
2.35931e-05
2.35863e-05
2.35886e-05
8.31087e-05
6.43557e-05
6.43686e-05
6.41048e-05
6.41082e-05
2.35884e-05
2.35907e-05
7.58922e-05
0.000114846
7.11176e-05
9.40768e-05
7.48893e-05
0.000114045
7.16876e-05
7.53001e-05
4.96102e-05
7.46658e-05
4.96143e-05
7.52987e-05
4.96043e-05
7.46636e-05
4.96079e-05
7.63982e-05
9.37476e-05
0.000112477
7.24615e-05
0.00011324
7.19565e-05
7.73419e-05
7.63722e-05
9.37408e-05
0.000112477
7.24861e-05
0.000113241
7.19259e-05
7.73658e-05
7.53975e-05
4.96201e-05
4.96174e-05
7.60012e-05
7.53952e-05
4.96157e-05
4.96125e-05
7.59996e-05
2.35942e-05
2.35917e-05
2.35931e-05
2.35906e-05
8.29588e-05
6.43562e-05
6.43619e-05
6.41124e-05
6.41009e-05
2.35871e-05
2.35894e-05
2.3586e-05
2.35883e-05
2.35871e-05
2.35849e-05
2.3585e-05
2.35828e-05
6.44794e-05
6.44766e-05
8.38413e-05
6.47195e-05
6.47155e-05
2.35807e-05
2.35827e-05
2.35787e-05
2.35806e-05
8.42972e-05
6.50595e-05
6.50568e-05
6.483e-05
6.48257e-05
7.6667e-05
4.96188e-05
7.60964e-05
4.96281e-05
7.87979e-05
7.27359e-05
0.000111723
9.28978e-05
7.78383e-05
7.32454e-05
0.000111003
7.88385e-05
7.27065e-05
0.000111721
9.28892e-05
7.78278e-05
7.32667e-05
0.000111001
7.6751e-05
4.96375e-05
4.96346e-05
7.72952e-05
7.67477e-05
4.96334e-05
4.96262e-05
7.72924e-05
7.93031e-05
9.2683e-05
7.39918e-05
0.000109634
7.35037e-05
0.000110306
8.02221e-05
7.9263e-05
9.26765e-05
7.40117e-05
0.000109631
7.34743e-05
0.000110305
8.02554e-05
6.44707e-05
6.44686e-05
8.40309e-05
6.47111e-05
6.47155e-05
2.35863e-05
2.35842e-05
2.35786e-05
2.35805e-05
8.40784e-05
6.50509e-05
6.50547e-05
6.48181e-05
6.48171e-05
2.358e-05
2.35819e-05
7.88288e-05
7.27207e-05
0.000111726
9.29175e-05
7.78315e-05
7.32713e-05
0.000111007
7.66667e-05
4.96159e-05
7.60925e-05
4.96249e-05
7.88323e-05
0.000111715
7.27123e-05
9.28917e-05
7.78188e-05
0.000110996
7.32581e-05
7.67363e-05
4.96321e-05
4.96297e-05
7.73092e-05
7.92731e-05
9.27022e-05
7.40194e-05
0.000109637
7.34791e-05
0.00011031
8.02567e-05
7.67443e-05
4.96305e-05
4.96225e-05
7.72918e-05
7.92627e-05
9.26809e-05
0.000109626
7.40073e-05
0.000110299
7.34767e-05
8.0257e-05
7.66435e-05
4.96243e-05
7.60981e-05
4.96268e-05
7.88268e-05
0.000111736
7.27302e-05
9.29023e-05
7.78282e-05
0.000111015
7.32351e-05
7.66586e-05
4.9619e-05
7.60973e-05
4.96255e-05
7.92901e-05
9.27053e-05
7.40087e-05
0.000109641
7.34783e-05
0.000110327
8.02094e-05
7.67477e-05
4.96329e-05
4.96296e-05
7.72705e-05
7.92712e-05
9.26947e-05
0.000109648
7.3986e-05
0.000110322
7.3499e-05
8.02498e-05
7.67482e-05
4.96308e-05
4.96243e-05
7.72848e-05
6.44674e-05
6.44719e-05
8.3783e-05
6.47152e-05
6.47219e-05
2.35861e-05
2.3584e-05
2.35776e-05
2.35796e-05
8.4313e-05
6.5054e-05
6.50593e-05
6.48148e-05
6.48218e-05
2.35798e-05
2.35817e-05
7.88195e-05
0.000111729
7.27142e-05
9.29133e-05
7.78327e-05
0.000111016
7.32549e-05
7.6662e-05
4.9624e-05
7.60863e-05
4.96277e-05
7.66605e-05
4.96187e-05
7.60837e-05
4.96223e-05
7.92908e-05
9.27071e-05
0.000109645
7.3981e-05
0.000110313
7.3508e-05
8.02218e-05
7.92714e-05
9.27044e-05
0.000109647
7.40071e-05
0.000110314
7.34792e-05
8.02387e-05
7.67371e-05
4.96344e-05
4.96286e-05
7.72893e-05
7.67346e-05
4.96275e-05
4.96247e-05
7.72878e-05
2.35848e-05
2.35826e-05
2.35837e-05
2.35815e-05
8.41883e-05
6.5051e-05
6.50544e-05
6.48214e-05
6.48148e-05
2.35785e-05
2.35804e-05
2.35773e-05
2.35793e-05
2.35786e-05
2.35768e-05
2.35765e-05
2.35747e-05
6.51646e-05
6.51616e-05
8.52704e-05
6.53882e-05
6.53849e-05
2.3573e-05
2.35747e-05
2.35709e-05
2.35726e-05
8.57895e-05
6.57055e-05
6.57016e-05
6.549e-05
6.54851e-05
7.78854e-05
4.96325e-05
7.7366e-05