/*--------------------------------*- C++ -*----------------------------------*\
| =========                 |                                                 |
| \\      /  F ield         | OpenFOAM: The Open Source CFD Toolbox           |
|  \\    /   O peration     | Version:  2312                                  |
|   \\  /    A nd           | Website:  www.openfoam.com                      |
|    \\/     M anipulation  |                                                 |
\*---------------------------------------------------------------------------*/
FoamFile
{
    version     2.0;
    format      ascii;
    arch        "LSB;label=32;scalar=64";
    class       surfaceScalarField;
    location    "400";
    object      phi;
}
// * * * * * * * * * * * * * * * * * * * * * * * * * * * * * * * * * * * * * //

dimensions      [0 3 -1 0 0 0 0];

oriented        oriented;

internalField   nonuniform List<scalar> 
123680
(
-8.18407e-07
-8.19448e-07
4.33443e-07
4.3396e-07
0.00115006
-0.00114929
-1.50281e-06
8.19175e-07
3.99301e-07
0.00113925
-4.98841e-07
1.12941e-06
1.47151e-07
7.47228e-07
-5.44761e-07
8.46159e-08
-1.22935e-06
-0.0011388
-1.50003e-06
8.19384e-07
4.05078e-07
0.00113912
-4.96121e-07
1.1267e-06
1.44149e-07
7.47224e-07
-5.44936e-07
8.47122e-08
-1.2295e-06
-0.00113868
1.53182e-06
1.49482e-06
-4.76336e-07
-4.79317e-07
0.000274438
-0.000276509
-7.98727e-07
-7.99746e-07
-0.00115234
4.25794e-07
4.26305e-07
0.00115308
-0.0011405
-1.49423e-06
7.99339e-07
3.90032e-07
0.0011409
-4.87251e-07
1.13509e-06
1.53618e-07
7.54556e-07
-5.30008e-07
-1.21357e-06
9.28035e-08
-0.00114038
-1.49152e-06
7.99458e-07
3.95945e-07
0.00114077
-4.84556e-07
1.13228e-06
1.50651e-07
7.54596e-07
-5.30065e-07
-1.21368e-06
9.29417e-08
-0.000276524
1.52316e-06
1.4862e-06
-4.63608e-07
-4.66518e-07
0.000274445
-7.7901e-07
-7.79832e-07
-0.00115529
4.18347e-07
4.18805e-07
0.00115601
-0.00114201
-1.48472e-06
7.79536e-07
3.80328e-07
0.00114236
-4.75748e-07
1.1405e-06
1.60023e-07
7.61809e-07
-5.15398e-07
-1.19757e-06
1.00949e-07
-0.00114188
-1.48206e-06
7.79477e-07
3.86227e-07
0.00114222
-4.73027e-07
1.13766e-06
1.57054e-07
7.61892e-07
-5.15401e-07
-1.19756e-06
1.01103e-07
-0.000276478
1.51369e-06
1.47672e-06
-4.50556e-07
-4.53408e-07
0.000274391
-7.58232e-07
-7.58955e-07
-0.00115814
4.10168e-07
4.10662e-07
0.00115883
-0.00114331
-1.47451e-06
7.58559e-07
3.71091e-07
0.00114361
-4.64121e-07
1.14573e-06
1.66217e-07
7.69131e-07
-5.01062e-07
-1.18131e-06
1.09061e-07
-0.00114318
-1.47179e-06
7.58603e-07
3.77047e-07
0.00114348
-4.61427e-07
1.14295e-06
1.63306e-07
7.69148e-07
-5.01091e-07
-1.18139e-06
1.09155e-07
-0.000276378
1.50348e-06
1.4665e-06
-4.37405e-07
-4.40277e-07
0.000274286
-7.36862e-07
-7.37539e-07
-0.00116088
4.0182e-07
4.02306e-07
0.00116155
-0.00114442
-1.46365e-06
7.37276e-07
3.61575e-07
0.00114467
-4.52726e-07
1.15091e-06
1.72123e-07
7.76354e-07
-4.86838e-07
-1.16504e-06
1.17077e-07
-0.00114429
-1.46088e-06
7.3733e-07
3.6751e-07
0.00114454
-4.49936e-07
1.14817e-06
1.6931e-07
7.76329e-07
-4.86931e-07
-1.16516e-06
1.1713e-07
-0.000276231
1.49258e-06
1.4555e-06
-4.24249e-07
-4.27173e-07
0.000274135
-7.14797e-07
-7.15291e-07
-0.00116352
3.9308e-07
3.93588e-07
0.00116417
-0.00114534
-1.45208e-06
7.15085e-07
3.51859e-07
0.00114555
-4.41546e-07
1.15621e-06
1.77966e-07
7.83441e-07
-4.72951e-07
-1.14897e-06
1.24908e-07
-0.00114521
-1.4493e-06
7.15252e-07
3.57565e-07
0.00114541
-4.38699e-07
1.15345e-06
1.75145e-07
7.8345e-07
-4.73051e-07
-1.14906e-06
1.24958e-07
-0.000276046
1.48111e-06
1.44397e-06
-4.11179e-07
-4.14185e-07
0.000273947
-6.92171e-07
-6.92622e-07
-0.00116606
3.84249e-07
3.84796e-07
0.00116667
-0.00114607
-1.44007e-06
6.92363e-07
3.41163e-07
0.00114623
-4.30539e-07
1.16158e-06
1.83865e-07
7.905e-07
-4.5938e-07
-1.13311e-06
1.32625e-07
-0.00114594
-1.43734e-06
6.92576e-07
3.46991e-07
0.0011461
-4.27724e-07
1.15883e-06
1.81036e-07
7.90485e-07
-4.59508e-07
-1.13319e-06
1.32708e-07
-0.00027583
1.46911e-06
1.43195e-06
-3.98258e-07
-4.01326e-07
0.000273729
-6.68908e-07
-6.69245e-07
-0.00116848
3.75171e-07
3.75793e-07
0.00116906
-0.00114663
-1.4278e-06
6.69014e-07
3.29799e-07
0.00114675
-4.19727e-07
1.16693e-06
1.89632e-07
7.97396e-07
-4.46167e-07
-1.1176e-06
1.40268e-07
-0.0011465
-1.42505e-06
6.69155e-07
3.35457e-07
0.00114661
-4.16939e-07
1.16422e-06
1.86776e-07
7.97305e-07
-4.46267e-07
-1.11757e-06
1.40319e-07
-0.000275591
1.45685e-06
1.41971e-06
-3.85749e-07
-3.88727e-07
0.000273489
-6.44999e-07
-6.45288e-07
-0.00117078
3.65866e-07
3.66485e-07
0.00117134
-0.00114702
-1.41548e-06
6.45122e-07
3.17707e-07
0.0011471
-4.0918e-07
1.17218e-06
1.95223e-07
8.04041e-07
-4.33339e-07
-1.10238e-06
1.47707e-07
-0.00114689
-1.41265e-06
6.45174e-07
3.23422e-07
0.00114696
-4.064e-07
1.16952e-06
1.92417e-07
8.04074e-07
-4.3336e-07
-1.10259e-06
1.47849e-07
-0.000275335
1.44447e-06
1.40734e-06
-3.73609e-07
-3.76518e-07
0.000273234
-6.20578e-07
-6.20736e-07
-0.00117297
3.50679e-07
3.57009e-07
0.0011735
-0.00114725
-1.4031e-06
6.20479e-07
3.05094e-07
0.0011473
-3.98912e-07
1.17745e-06
2.00796e-07
8.10495e-07
-4.20853e-07
-1.08789e-06
1.5501e-07
-0.00114712
-1.40043e-06
6.20511e-07
3.10717e-07
0.00114716
-3.96198e-07
1.17476e-06
1.97862e-07
8.10523e-07
-4.20879e-07
-1.08784e-06
1.55183e-07
-0.00027507
1.43215e-06
1.39507e-06
-3.61958e-07
-3.64793e-07
0.00027297
-5.95692e-07
-5.95865e-07
-0.00117503
3.4112e-07
3.47556e-07
0.00117554
-0.00114735
-1.39111e-06
5.95653e-07
2.91606e-07
0.00114735
-3.88977e-07
1.18252e-06
2.06112e-07
8.16678e-07
-4.08811e-07
-1.0738e-06
1.62088e-07
-0.00114722
-1.38831e-06
5.95498e-07
2.97269e-07
0.00114722
-3.86258e-07
1.17978e-06
2.03265e-07
8.16843e-07
-4.08816e-07
-1.07376e-06
1.62258e-07
-0.0002748
1.42002e-06
1.38294e-06
-3.50711e-07
-3.53624e-07
0.000272702
-5.70505e-07
-5.70696e-07
-0.00117698
3.3167e-07
3.38111e-07
0.00117745
-0.00114731
-1.3792e-06
5.70391e-07
2.77151e-07
0.00114729
-3.79335e-07
1.18746e-06
2.1135e-07
8.22726e-07
-3.9724e-07
-1.06025e-06
1.68932e-07
-0.00114718
-1.37661e-06
5.70282e-07
2.82884e-07
0.00114715
-3.76571e-07
1.18468e-06
2.08452e-07
8.22852e-07
-3.97234e-07
-1.06022e-06
1.69101e-07
-0.000274529
1.40805e-06
1.37102e-06
-3.40019e-07
-3.42858e-07
0.000272433
-5.45158e-07
-5.4528e-07
-0.00117879
3.22221e-07
3.28678e-07
0.00117923
-0.00114716
-1.36775e-06
5.4504e-07
2.61964e-07
0.00114711
-3.70002e-07
1.19216e-06
2.1641e-07
8.28417e-07
-3.86131e-07
-1.04727e-06
1.75523e-07
-0.00114703
-1.36503e-06
5.44898e-07
2.67751e-07
0.00114697
-3.67258e-07
1.18939e-06
2.13577e-07
8.2855e-07
-3.86114e-07
-1.0473e-06
1.75684e-07
-0.000274261
1.39655e-06
1.3595e-06
-3.29827e-07
-3.32717e-07
0.000272168
-5.19543e-07
-5.19762e-07
-0.00118048
3.1281e-07
3.19219e-07
0.00118088
-0.00114691
-1.35658e-06
5.19476e-07
2.46324e-07
0.00114684
-3.6104e-07
1.19662e-06
2.21254e-07
8.33851e-07
-3.75533e-07
-1.03501e-06
1.81752e-07
-0.00114677
-1.35394e-06
5.19345e-07
2.51947e-07
0.0011467
-3.5822e-07
1.19387e-06
2.18474e-07
8.34041e-07
-3.75506e-07
-1.03494e-06
1.81944e-07
-0.000273998
1.38544e-06
1.34839e-06
-3.20212e-07
-3.23105e-07
0.000271907
-4.93808e-07
-4.94139e-07
-0.00118203
3.03375e-07
3.09754e-07
0.00118241
-0.00114657
-1.34587e-06
4.93816e-07
2.30183e-07
0.00114648
-3.52425e-07
1.20081e-06
2.25947e-07
8.39071e-07
-3.65481e-07
-1.02326e-06
1.87676e-07
-0.00114644
-1.34316e-06
4.93698e-07
2.35784e-07
0.00114634
-3.49643e-07
1.19811e-06
2.23157e-07
8.39237e-07
-3.65386e-07
-1.02321e-06
1.87934e-07
-0.000273741
1.37473e-06
1.33772e-06
-3.11102e-07
-3.13994e-07
0.000271654
-4.67958e-07
-4.68319e-07
-0.00118346
2.93744e-07
3.00161e-07
0.0011838
-0.00114616
-1.33563e-06
4.68143e-07
2.13662e-07
0.00114605
-3.44186e-07
1.20473e-06
2.30374e-07
8.4418e-07
-3.55803e-07
-1.01204e-06
1.93336e-07
-0.00114603
-1.33287e-06
4.67823e-07
2.19482e-07
0.00114591
-3.41497e-07
1.20211e-06
2.27567e-07
8.44209e-07
-3.55764e-07
-1.01204e-06
1.93544e-07
-0.000273492
1.36447e-06
1.32749e-06
-3.02515e-07
-3.05356e-07
0.000271408
-4.42002e-07
-4.42363e-07
-0.00118476
2.83958e-07
2.90299e-07
0.00118507
-0.00114569
-1.32578e-06
4.42301e-07
1.97126e-07
0.00114557
-3.36333e-07
1.20839e-06
2.34581e-07
8.48851e-07
-3.4658e-07
-1.00147e-06
1.98735e-07
-0.00114555
-1.32315e-06
4.42078e-07
2.03009e-07
0.00114543
-3.33603e-07
1.20563e-06
2.31769e-07
8.48896e-07
-3.46535e-07
-1.00146e-06
1.98959e-07
-0.000273251
1.35468e-06
1.31772e-06
-2.94409e-07
-2.97221e-07
0.00027117
-4.16007e-07
-4.16372e-07
-0.00118593
2.79811e-07
2.80213e-07
0.0011862
-0.00114517
-1.31653e-06
4.16302e-07
1.80834e-07
0.00114504
-3.28869e-07
1.21179e-06
2.3849e-07
8.53258e-07
-3.37801e-07
-9.91405e-07
2.03859e-07
-0.00114504
-1.31383e-06
4.161e-07
1.86667e-07
0.0011449
-3.26143e-07
1.20911e-06
2.35666e-07
8.53279e-07
-3.37788e-07
-9.91443e-07
2.04044e-07
-0.00027302
1.34541e-06
1.30846e-06
-2.86799e-07
-2.89608e-07
0.000270942
-3.90226e-07
-3.90301e-07
-0.00118697
2.69471e-07
2.69916e-07
0.00118721
-0.00114462
-1.30769e-06
3.90352e-07
1.64612e-07
0.00114448
-3.21872e-07
1.215e-06
2.4215e-07
8.57481e-07
-3.29424e-07
-9.81823e-07
2.08764e-07
-0.00114448
-1.305e-06
3.90177e-07
1.70478e-07
0.00114434
-3.1913e-07
1.21227e-06
2.39359e-07
8.57485e-07
-3.29432e-07
-9.81863e-07
2.08915e-07
-0.000272798
1.33654e-06
1.29962e-06
-2.79586e-07
-2.82404e-07
0.000270724
-3.6416e-07
-3.64278e-07
-0.00118789
2.58691e-07
2.59173e-07
0.0011881
-0.00114403
-1.29937e-06
3.64378e-07
1.48944e-07
0.00114389
-3.15189e-07
1.21789e-06
2.45617e-07
8.61465e-07
-3.21412e-07
-9.72763e-07
2.13425e-07
-0.0011439
-1.29664e-06
3.64226e-07
1.54702e-07
0.00114375
-3.12425e-07
1.21512e-06
2.42851e-07
8.61507e-07
-3.21453e-07
-9.72758e-07
2.13544e-07
-0.000272585
1.32821e-06
1.29132e-06
-2.72888e-07
-2.75713e-07
0.000270515
-3.38382e-07
-3.38428e-07
-0.00118869
2.47559e-07
2.4809e-07
0.00118887
-0.00114343
-1.29149e-06
3.38505e-07
1.33779e-07
0.00114329
-3.08923e-07
1.22052e-06
2.48776e-07
8.65254e-07
-3.13826e-07
-9.64147e-07
2.17775e-07
-0.0011433
-1.28877e-06
3.38429e-07
1.39441e-07
0.00114315
-3.06125e-07
1.21774e-06
2.46038e-07
8.65306e-07
-3.13881e-07
-9.64174e-07
2.17909e-07
-0.000272383
1.3203e-06
1.28343e-06
-2.66608e-07
-2.69407e-07
0.000270315
-3.12758e-07
-3.12704e-07
-0.00118937
2.36041e-07
2.36536e-07
0.00118952
-0.00114282
-1.28403e-06
3.12823e-07
1.19257e-07
0.00114268
-3.03025e-07
1.22289e-06
2.51689e-07
8.68856e-07
-3.0666e-07
-9.56017e-07
2.21899e-07
-0.00114269
-1.28129e-06
3.12738e-07
1.24851e-07
0.00114254
-3.00266e-07
1.22025e-06
2.48952e-07
8.68868e-07
-3.06693e-07
-9.56032e-07
2.22012e-07
-0.00027219
1.31284e-06
1.27598e-06
-2.60734e-07
-2.63527e-07
0.000270126
-2.87333e-07
-2.87321e-07
-0.00118994
2.24076e-07
2.24556e-07
0.00119007
-0.00114221
-1.27707e-06
2.87376e-07
1.05499e-07
0.00114206
-2.97575e-07
1.22506e-06
2.54288e-07
8.72234e-07
-2.99814e-07
-9.48297e-07
2.25818e-07
-0.00114208
-1.27431e-06
2.87358e-07
1.11006e-07
0.00114192
-2.94748e-07
1.22243e-06
2.51593e-07
8.72248e-07
-2.99895e-07
-9.48324e-07
2.25895e-07
-0.000272007
1.30587e-06
1.26902e-06
-2.5529e-07
-2.58102e-07
0.000269946
-2.6224e-07
-2.62209e-07
-0.00119041
2.11699e-07
2.12142e-07
0.00119051
-0.0011416
-1.27057e-06
2.62152e-07
9.26172e-08
0.00114145
-2.92432e-07
1.22703e-06
2.56702e-07
8.75418e-07
-2.93345e-07
-9.40999e-07
2.29491e-07
-0.00114146
-1.26779e-06
2.62196e-07
9.81473e-08
0.00114131
-2.89642e-07
1.2243e-06
2.53972e-07
8.7544e-07
-2.93406e-07
-9.41004e-07
2.29574e-07
-0.000271834
1.29931e-06
1.26249e-06
-2.50243e-07
-2.53022e-07
0.000269776
-2.37455e-07
-2.37423e-07
-0.00119077
1.98801e-07
1.99195e-07
0.00119085
-0.001141
-1.26448e-06
2.37342e-07
8.05871e-08
0.00114085
-2.87645e-07
1.22874e-06
2.58861e-07
8.78451e-07
-2.8717e-07
-9.34108e-07
2.32958e-07
-0.00114086
-1.26172e-06
2.3742e-07
8.6109e-08
0.00114071
-2.84888e-07
1.22609e-06
2.56167e-07
8.7845e-07
-2.87275e-07
-9.34138e-07
2.33036e-07
-0.000271671
1.29324e-06
1.25644e-06
-2.45615e-07
-2.48383e-07
0.000269615
1.543e-06
1.50311e-06
-4.76399e-07
-4.82052e-07
0.000274496
-0.000276584
-1.1739e-06
-1.13389e-06
0.000276599
-0.000274507
1.05317e-07
1.10651e-07
4.06316e-07
0.0011387
-5.04583e-07
1.1696e-06
1.52828e-07
7.52756e-07
-5.45013e-07
8.46053e-08
-1.23503e-06
-0.00113826
-1.5404e-06
8.18636e-07
4.06559e-07
0.00113878
-5.04657e-07
1.16691e-06
1.52674e-07
7.52769e-07
-5.42157e-07
8.1477e-08
-1.23479e-06
-0.00113833
0.00113996
8.03688e-07
-0.00113955
3.99332e-07
-1.5367e-06
1.57633e-07
-4.95874e-07
-1.22327e-06
9.07631e-08
-5.33871e-07
7.58215e-07
1.17123e-06
0.00114003
8.03933e-07
-0.00113963
3.99423e-07
-1.53404e-06
1.57518e-07
-4.95997e-07
-1.22305e-06
8.76632e-08
-5.31032e-07
7.58207e-07
-4.76692e-07
-4.78964e-07
0.000274477
-0.000276565
-1.13372e-06
0.00027658
-0.000274488
1.054e-07
1.07842e-07
4.04977e-07
0.0011397
-4.99084e-07
1.12955e-06
1.47064e-07
7.52675e-07
-5.44982e-07
8.47603e-08
-1.2349e-06
-0.00113926
-1.53482e-06
8.18151e-07
4.06525e-07
0.00113866
-5.04632e-07
1.16156e-06
1.52871e-07
7.5275e-07
-5.4215e-07
8.15469e-08
-1.23475e-06
-0.00113822
0.00114096
8.04742e-07
-0.00114055
3.98034e-07
-1.49676e-06
1.51943e-07
-4.90372e-07
-1.22318e-06
9.08953e-08
-5.33918e-07
7.58122e-07
1.16582e-06
0.00113991
8.03813e-07
-0.00113951
3.99363e-07
-1.52856e-06
1.57737e-07
-4.95934e-07
-1.22304e-06
8.775e-08
-5.31009e-07
7.58203e-07
8.1824e-07
4.064e-07
0.00113828
-5.01535e-07
1.15865e-06
1.50056e-07
7.44557e-07
-5.39181e-07
7.83136e-08
-1.22633e-06
-0.00113784
8.04242e-07
-0.0011401
4.03396e-07
-1.49642e-06
1.51989e-07
-4.90169e-07
-1.21759e-06
9.07613e-08
7.5271e-07
-5.3367e-07
1.16299e-06
0.00113953
8.03208e-07
-0.00113913
3.99232e-07
-1.52543e-06
1.54905e-07
-4.9281e-07
-1.21457e-06
8.45508e-08
-5.28142e-07
7.50021e-07
-4.76773e-07
-4.81604e-07
0.000274463
-0.000276539
-1.1309e-06
0.000276554
-0.000274474
1.05409e-07
1.10708e-07
8.19232e-07
4.05048e-07
0.00113926
-4.99041e-07
1.12116e-06
1.47002e-07
7.49808e-07
-5.44847e-07
8.49043e-08
-1.23179e-06
-0.00113882
8.0448e-07
-0.00113997
3.98199e-07
-1.49377e-06
1.4901e-07
-4.87452e-07
-1.21774e-06
9.08786e-08
7.52728e-07
-5.33803e-07
1.12544e-06
0.00114052
8.04665e-07
-0.00114011
3.97801e-07
-1.48848e-06
1.51816e-07
-4.90417e-07
-1.22006e-06
9.10814e-08
-5.33643e-07
7.55278e-07
-0.000274449
1.05204e-07
1.08157e-07
1.53441e-06
1.49446e-06
-4.63646e-07
-4.69283e-07
0.000274503
-1.17936e-06
-1.13934e-06
0.000276553
-0.000274468
1.14319e-07
1.19671e-07
3.96989e-07
0.00114035
-4.92963e-07
1.17528e-06
1.59276e-07
7.60068e-07
-5.30211e-07
-1.21922e-06
9.27947e-08
-1.53183e-06
7.98929e-07
3.971e-07
0.00114043
-4.93023e-07
1.17261e-06
1.59173e-07
7.60092e-07
-5.27358e-07
-1.219e-06
8.96781e-08
0.00114146
7.84073e-07
-0.0011411
3.89677e-07
-1.52741e-06
1.64023e-07
-4.84378e-07
-1.20729e-06
9.88336e-08
-5.19203e-07
7.65469e-07
1.17671e-06
0.00114153
7.84074e-07
-0.00114118
3.89589e-07
-1.52478e-06
1.63926e-07
-4.8448e-07
-1.20697e-06
9.58774e-08
-5.1628e-07
7.65518e-07
-4.6395e-07
-4.66264e-07
0.000274484
-1.13918e-06
0.000276534
-0.000274449
1.14438e-07
1.16884e-07
3.95585e-07
0.00114135
-4.87397e-07
1.13526e-06
1.53592e-07
7.59936e-07
-5.30164e-07
-1.21909e-06
9.29643e-08
-1.52632e-06
7.98893e-07
3.96867e-07
0.00114031
-4.93047e-07
1.16722e-06
1.5934e-07
7.60049e-07
-5.27332e-07
-1.21899e-06
8.97674e-08
0.00114246
7.84928e-07
-0.00114211
3.88274e-07
-1.48744e-06
1.58387e-07
-4.7884e-07
-1.20712e-06
9.90431e-08
-5.19139e-07
7.65431e-07
1.17132e-06
0.00114141
7.83993e-07
-0.00114106
3.89569e-07
-1.51924e-06
1.64173e-07
-4.84358e-07
-1.20702e-06
9.58239e-08
-5.16307e-07
7.6545e-07
7.98207e-07
3.96924e-07
0.00113993
-4.89917e-07
1.16438e-06
1.56518e-07
7.51872e-07
-5.24438e-07
8.66599e-08
-1.21054e-06
7.84527e-07
-0.00114165
3.93752e-07
-1.48716e-06
1.58423e-07
-4.78691e-07
-1.20149e-06
9.89037e-08
7.59998e-07
-5.18984e-07
1.16846e-06
0.00114103
7.83402e-07
-0.00114068
3.89381e-07
-1.51607e-06
1.61303e-07
-4.81308e-07
-1.19856e-06
9.28191e-08
-5.13371e-07
7.5729e-07
-4.641e-07
-4.68888e-07
0.000274469
-1.13635e-06
0.000276508
-0.000274435
1.14349e-07
1.19752e-07
7.99617e-07
3.95566e-07
0.00114091
-4.87516e-07
1.12683e-06
1.53462e-07
7.57141e-07
-5.29995e-07
9.30827e-08
-1.21598e-06
7.84565e-07
-0.00114152
3.88556e-07
-1.48451e-06
1.55464e-07
-4.75949e-07
-1.20167e-06
9.90976e-08
7.60044e-07
-5.19071e-07
1.1309e-06
0.00114202
7.84628e-07
-0.00114166
3.88105e-07
-1.47911e-06
1.58236e-07
-4.78845e-07
-1.20395e-06
9.92397e-08
-5.18917e-07
7.6259e-07
-0.00027441
1.14205e-07
1.17201e-07
1.52495e-06
1.48499e-06
-4.50591e-07
-4.56232e-07
0.00027445
-1.18462e-06
-1.14458e-06
0.000276453
-0.000274375
1.22911e-07
1.2827e-07
3.87257e-07
0.0011418
-4.81451e-07
1.18069e-06
1.65606e-07
7.67304e-07
-5.15545e-07
-1.20319e-06
1.00864e-07
-1.52233e-06
7.78989e-07
3.8725e-07
0.00114188
-4.8152e-07
1.17803e-06
1.65528e-07
7.67349e-07
-5.12651e-07
-1.20289e-06
9.78905e-08
0.00114276
7.6353e-07
-0.00114246
3.80364e-07
-1.51738e-06
1.70267e-07
-4.72768e-07
-1.19111e-06
1.06902e-07
-5.04777e-07
7.72741e-07
1.18199e-06
0.00114284
7.63568e-07
-0.00114253
3.80329e-07
-1.5147e-06
1.70172e-07
-4.72775e-07
-1.19085e-06
1.03977e-07
-5.01918e-07
7.72759e-07
-4.50878e-07
-4.53183e-07
0.000274431
-1.14446e-06
0.000276434
-0.000274356
1.23068e-07
1.25472e-07
3.85872e-07
0.00114281
-4.75912e-07
1.14066e-06
1.59963e-07
7.67277e-07
-5.15511e-07
-1.20303e-06
1.0102e-07
-1.5168e-06
7.78932e-07
3.87178e-07
0.00114176
-4.81399e-07
1.17262e-06
1.65774e-07
7.67306e-07
-5.127e-07
-1.20295e-06
9.78605e-08
0.00114377
7.64284e-07
-0.00114346
3.79062e-07
-1.47744e-06
1.64616e-07
-4.67197e-07
-1.19093e-06
1.07134e-07
-5.04756e-07
7.72726e-07
1.17653e-06
0.00114272
7.63468e-07
-0.00114241
3.80301e-07
-1.50929e-06
1.70382e-07
-4.72734e-07
-1.19083e-06
1.03963e-07
-5.01905e-07
7.72741e-07
7.78375e-07
3.86991e-07
0.00114138
-4.78354e-07
1.16986e-06
1.62935e-07
7.59141e-07
-5.09761e-07
9.48456e-08
-1.19448e-06
7.63822e-07
-0.00114301
3.84531e-07
-1.47708e-06
1.64656e-07
-4.67025e-07
-1.18539e-06
1.07029e-07
7.67319e-07
-5.04632e-07
1.1737e-06
0.00114234
7.62711e-07
-0.00114203
3.80209e-07
-1.50613e-06
1.67596e-07
-4.69623e-07
-1.18238e-06
1.01017e-07
-4.98982e-07
7.64597e-07
-4.51045e-07
-4.55839e-07
0.000274417
-1.14163e-06
0.000276409
-0.000274342
1.22998e-07
1.28295e-07
7.79498e-07
3.8578e-07
0.00114236
-4.75945e-07
1.1323e-06
1.59875e-07
7.64427e-07
-5.15266e-07
1.0121e-07
-1.19984e-06
7.63932e-07
-0.00114288
3.79366e-07
-1.47451e-06
1.61739e-07
-4.64325e-07
-1.18552e-06
1.07158e-07
7.67295e-07
-5.04647e-07
1.13613e-06
0.00114332
7.64176e-07
-0.00114302
3.7894e-07
-1.46917e-06
1.64596e-07
-4.67196e-07
-1.1878e-06
1.073e-07
-5.04464e-07
7.69838e-07
-0.000274317
1.22798e-07
1.25826e-07
1.51475e-06
1.4748e-06
-4.37493e-07
-4.43097e-07
0.000274344
-1.18984e-06
-1.14979e-06
0.000276307
-0.000274235
1.31186e-07
1.36588e-07
3.78042e-07
0.00114306
-4.69821e-07
1.18591e-06
1.71815e-07
7.74596e-07
-5.01205e-07
-1.18697e-06
1.08902e-07
-1.51212e-06
7.5822e-07
3.78069e-07
0.00114313
-4.69882e-07
1.18327e-06
1.71733e-07
7.74609e-07
-4.98368e-07
-1.18673e-06
1.05995e-07
0.00114387
7.4224e-07
-0.00114361
3.71009e-07
-1.50658e-06
1.76282e-07
-4.61257e-07
-1.17483e-06
1.14943e-07
-4.90573e-07
7.79973e-07
1.18719e-06
0.00114394
7.42168e-07
-0.00114369
3.70992e-07
-1.50397e-06
1.76253e-07
-4.61295e-07
-1.17456e-06
1.1203e-07
-4.87718e-07
7.80012e-07
-4.37733e-07
-4.40052e-07
0.000274325
-1.14964e-06
0.000276288
-0.000274216
1.31363e-07
1.33755e-07
3.76773e-07
0.00114406
-4.64322e-07
1.14587e-06
1.66175e-07
7.74579e-07
-5.01211e-07
-1.18679e-06
1.09126e-07
-1.50659e-06
7.58138e-07
3.77988e-07
0.00114301
-4.6988e-07
1.17783e-06
1.71911e-07
7.74598e-07
-4.98309e-07
-1.18669e-06
1.05963e-07
0.00114488
7.42937e-07
-0.00114462
3.69775e-07
-1.46665e-06
1.70671e-07
-4.55747e-07
-1.17461e-06
1.15129e-07
-4.90544e-07
7.79994e-07
1.18172e-06
0.00114382
7.42006e-07
-0.00114357
3.71096e-07
-1.49852e-06
1.76366e-07
-4.61303e-07
-1.1745e-06
1.12053e-07
-4.87727e-07
7.80026e-07
7.57417e-07
3.7785e-07
0.00114263
-4.66738e-07
1.17502e-06
1.6913e-07
7.66432e-07
-4.9543e-07
1.03045e-07
-1.17825e-06
7.42618e-07
-0.00114417
3.75171e-07
-1.46637e-06
1.70698e-07
-4.55554e-07
-1.16913e-06
1.15073e-07
7.74552e-07
-4.90378e-07
1.17884e-06
0.00114344
7.41546e-07
-0.00114318
3.70817e-07
-1.49539e-06
1.73511e-07
-4.58151e-07
-1.16612e-06
1.09128e-07
-4.84774e-07
7.71829e-07
-4.37907e-07
-4.42735e-07
0.000274311
-1.14688e-06
0.000276262
-0.000274202
1.31357e-07
1.36551e-07
7.5878e-07
3.76612e-07
0.00114362
-4.64343e-07
1.13748e-06
1.66131e-07
7.71695e-07
-5.00908e-07
1.09264e-07
-1.18365e-06
7.42638e-07
-0.00114403
3.69881e-07
-1.46368e-06
1.67815e-07
-4.52801e-07
-1.16916e-06
1.15146e-07
7.74568e-07
-4.90434e-07
1.14139e-06
0.00114443
7.4277e-07
-0.00114417
3.69595e-07
-1.45832e-06
1.70597e-07
-4.55728e-07
-1.17156e-06
1.15277e-07
-4.90337e-07
7.77165e-07
-0.000274176
1.31136e-07
1.34025e-07
1.50382e-06
1.46388e-06
-4.24388e-07
-4.29946e-07
0.000274194
-1.19514e-06
-1.15506e-06
0.000276122
-0.000274056
1.39182e-07
1.44687e-07
3.68565e-07
0.00114412
-4.58385e-07
1.1911e-06
1.77758e-07
7.81804e-07
-4.87053e-07
-1.17069e-06
1.1695e-07
-1.50125e-06
7.36722e-07
3.68558e-07
0.00114419
-4.58414e-07
1.18846e-06
1.77672e-07
7.81846e-07
-4.84163e-07
-1.17043e-06
1.14075e-07
0.00114479
7.20447e-07
-0.00114458
3.61298e-07
-1.49521e-06
1.82073e-07
-4.50003e-07
-1.15866e-06
1.22844e-07
-4.76578e-07
7.87105e-07
1.19247e-06
0.00114486
7.20198e-07
-0.00114465
3.61244e-07
-1.49259e-06
1.82033e-07
-4.50034e-07
-1.15837e-06
1.20016e-07
-4.73679e-07
7.87148e-07
-4.24635e-07
-4.26976e-07
0.000274174
-1.15491e-06
0.000276103
-0.000274036
1.39342e-07
1.41835e-07
3.67251e-07
0.00114513
-4.52889e-07
1.15104e-06
1.72085e-07
7.81825e-07
-4.87004e-07
-1.17048e-06
1.17215e-07
-1.49575e-06
7.36516e-07
3.68699e-07
0.00114407
-4.58437e-07
1.18298e-06
1.77835e-07
7.81858e-07
-4.84157e-07
-1.17036e-06
1.14049e-07
0.0011458
7.20879e-07
-0.00114558
3.6019e-07
-1.45529e-06
1.76502e-07
-4.44542e-07
-1.15844e-06
1.23073e-07
-4.76472e-07
7.87126e-07
1.18693e-06
0.00114474
7.20125e-07
-0.00114453
3.61372e-07
-1.4872e-06
1.82096e-07
-4.50061e-07
-1.15824e-06
1.20041e-07
-4.73696e-07
7.87123e-07
7.36138e-07
3.68445e-07
0.00114369
-4.5541e-07
1.18015e-06
1.74996e-07
7.73662e-07
-4.81234e-07
1.11148e-07
-1.16199e-06
7.20651e-07
-0.00114513
3.65572e-07
-1.45501e-06
1.76515e-07
-4.44315e-07
-1.15299e-06
1.22963e-07
7.81681e-07
-4.76385e-07
1.18402e-06
0.00114436
7.19743e-07
-0.00114415
3.61298e-07
-1.48406e-06
1.79259e-07
-4.46986e-07
-1.14997e-06
1.17088e-07
-4.70783e-07
7.7896e-07
-4.24731e-07
-4.29661e-07
0.00027416
-1.15215e-06
0.000276077
-0.000274022
1.39344e-07
1.44537e-07
7.37354e-07
3.67117e-07
0.00114468
-4.52879e-07
1.1427e-06
1.72056e-07
7.7899e-07
-4.86801e-07
1.1724e-07
-1.16744e-06
7.2084e-07
-0.001145
3.60046e-07
-1.45227e-06
1.7368e-07
-4.4149e-07
-1.15316e-06
1.23024e-07
7.8168e-07
-4.76412e-07
1.14665e-06
0.00114535
7.20794e-07
-0.00114514
3.60085e-07
-1.44692e-06
1.76471e-07
-4.44414e-07
-1.15544e-06
1.23143e-07
-4.76406e-07
7.84219e-07
-0.000273997
1.39128e-07
1.41986e-07
1.49235e-06
1.45244e-06
-4.11376e-07
-4.16894e-07
0.000274005
-1.20044e-06
-1.16036e-06
0.000275906
-0.000273845
1.46952e-07
1.52449e-07
3.58789e-07
0.00114499
-4.47192e-07
1.19644e-06
1.83563e-07
7.88899e-07
-4.73143e-07
-1.15459e-06
1.24805e-07
-1.48964e-06
7.14529e-07
3.58727e-07
0.00114506
-4.47249e-07
1.19378e-06
1.835e-07
7.88933e-07
-4.70269e-07
-1.15432e-06
1.21956e-07
0.00114552
6.97906e-07
-0.00114535
3.50988e-07
-1.48329e-06
1.87947e-07
-4.38962e-07
-1.14277e-06
1.30588e-07
-4.62974e-07
7.94112e-07
1.19779e-06
0.00114559
6.97597e-07
-0.00114543
3.50836e-07
-1.48067e-06
1.87942e-07
-4.38999e-07
-1.14244e-06
1.27809e-07
-4.60043e-07
7.94181e-07
-4.11588e-07
-4.13868e-07
0.000273986
-1.16025e-06
0.000275887
-0.000273825
1.47178e-07
1.49613e-07
3.57649e-07
0.001146
-4.41732e-07
1.15639e-06
1.77973e-07
7.88929e-07
-4.73076e-07
-1.15437e-06
1.25032e-07
-1.48421e-06
7.14427e-07
3.5892e-07
0.00114494
-4.47272e-07
1.18821e-06
1.83542e-07
7.88995e-07
-4.70172e-07
-1.15424e-06
1.21996e-07
0.00114653
6.98354e-07
-0.00114636
3.49791e-07
-1.44342e-06
1.82378e-07
-4.33494e-07
-1.14251e-06
1.30832e-07
-4.62899e-07
7.94132e-07
1.19225e-06
0.00114547
6.9734e-07
-0.00114531
3.51174e-07
-1.47523e-06
1.87947e-07
-4.39058e-07
-1.14236e-06
1.27869e-07
-4.6e-07
7.94217e-07
7.14065e-07
3.58863e-07
0.00114456
-4.4427e-07
1.18539e-06
1.80724e-07
7.80758e-07
-4.67353e-07
1.19052e-07
-1.1459e-06
6.98131e-07
-0.00114591
3.55162e-07
-1.44311e-06
1.82402e-07
-4.33303e-07
-1.13707e-06
1.30708e-07
7.88736e-07
-4.62727e-07
1.18934e-06
0.00114509
6.97163e-07
-0.00114492
3.5112e-07
-1.47216e-06
1.85138e-07
-4.36029e-07
-1.13408e-06
1.24854e-07
-4.57196e-07
7.85981e-07
-4.1165e-07
-4.16607e-07
0.000273972
-1.15752e-06
0.000275861
-0.000273811
1.47209e-07
1.52325e-07
7.15204e-07
3.5759e-07
0.00114555
-4.41692e-07
1.14803e-06
1.77919e-07
7.86054e-07
-4.72963e-07
1.25035e-07
-1.15134e-06
6.98308e-07
-0.00114578
3.49661e-07
-1.44032e-06
1.79566e-07
-4.30484e-07
-1.13719e-06
1.3078e-07
7.8868e-07
-4.62837e-07
1.15202e-06
0.00114608
6.98385e-07
-0.00114592
3.49766e-07
-1.435e-06
1.82346e-07
-4.33454e-07
-1.13954e-06
1.30859e-07
-4.62826e-07
7.91286e-07
-0.000273785
1.46987e-07
1.49722e-07
1.48027e-06
1.4404e-06
-3.98528e-07
-4.0397e-07
0.000273788
-1.20577e-06
-1.16571e-06
0.000275667
-0.00027361
1.54428e-07
1.59895e-07
3.48126e-07
0.00114568
-4.36224e-07
1.20175e-06
1.89396e-07
7.95902e-07
-4.59601e-07
-1.13875e-06
1.32515e-07
-1.47762e-06
6.91851e-07
3.48096e-07
0.00114575
-4.36207e-07
1.19912e-06
1.89411e-07
7.95938e-07
-4.56717e-07
-1.13846e-06
1.29721e-07
0.00114608
6.74832e-07
-0.00114595
3.3973e-07
-1.47105e-06
1.93762e-07
-4.28042e-07
-1.12725e-06
1.38234e-07
-4.49658e-07
8.01076e-07
1.20312e-06
0.00114615
6.74409e-07
-0.00114603
3.3963e-07
-1.46839e-06
1.93712e-07
-4.28114e-07
-1.12685e-06
1.35478e-07
-4.46742e-07
8.01083e-07
-3.98669e-07
-4.0098e-07
0.000273769
-1.16559e-06
0.000275648
-0.000273591
1.54627e-07
1.57059e-07
3.47036e-07
0.00114669
-4.30757e-07
1.16167e-06
1.83804e-07
7.95908e-07
-4.59486e-07
-1.13852e-06
1.32769e-07
-1.47225e-06
6.91591e-07
3.48427e-07
0.00114563
-4.36307e-07
1.19357e-06
1.89431e-07
7.96006e-07
-4.5665e-07
-1.13835e-06
1.29788e-07
0.00114709
6.75143e-07
-0.00114696
3.38583e-07
-1.4312e-06
1.88162e-07
-4.22641e-07
-1.12685e-06
1.38499e-07
-4.4954e-07
8.01118e-07
1.19767e-06
0.00114603
6.74073e-07
-0.0011459
3.39891e-07
-1.46295e-06
1.93758e-07
-4.28177e-07
-1.12675e-06
1.35478e-07
-4.46691e-07
8.01098e-07
6.91399e-07
3.48299e-07
0.00114525
-4.33251e-07
1.19069e-06
1.86637e-07
7.87758e-07
-4.53785e-07
1.26802e-07
-1.13009e-06
6.7496e-07
-0.00114651
3.43821e-07
-1.43085e-06
1.88195e-07
-4.2242e-07
-1.12149e-06
1.38351e-07
7.9563e-07
-4.4942e-07
1.19468e-06
0.00114564
6.73971e-07
-0.00114552
3.39877e-07
-1.4599e-06
1.90907e-07
-4.25118e-07
-1.11845e-06
1.32556e-07
-4.43889e-07
7.92886e-07
-3.98764e-07
-4.03747e-07
0.000273754
-1.16291e-06
0.000275622
-0.000273576
1.5467e-07
1.59851e-07
6.92603e-07
3.46985e-07
0.00114624
-4.30706e-07
1.15338e-06
1.83808e-07
7.93027e-07
-4.59423e-07
1.32763e-07
-1.13556e-06
6.75109e-07
-0.00114638
3.38383e-07
-1.4281e-06
1.85347e-07
-4.19651e-07
-1.12156e-06
1.3842e-07
7.95615e-07
-4.4951e-07
1.15735e-06
0.00114664
6.75216e-07
-0.00114652
3.38566e-07
-1.42278e-06
1.88134e-07
-4.22553e-07
-1.1239e-06
1.38519e-07
-4.49452e-07
7.98201e-07
-0.00027355
1.54394e-07
1.57213e-07
1.46795e-06
1.42813e-06
-3.85944e-07
-3.91367e-07
0.000273548
-1.21114e-06
-1.17109e-06
0.000275411
-0.000273358
1.61564e-07
1.67048e-07
3.36828e-07
0.00114619
-4.25351e-07
1.20706e-06
1.95172e-07
8.02746e-07
-4.46429e-07
-1.12328e-06
1.40079e-07
-1.46535e-06
6.68533e-07
3.36789e-07
0.00114626
-4.25409e-07
1.20443e-06
1.95144e-07
8.02807e-07
-4.43485e-07
-1.12295e-06
1.37345e-07
0.00114646
6.51086e-07
-0.00114638
3.27809e-07
-1.4586e-06
1.9938e-07
-4.17472e-07
-1.11197e-06
1.45757e-07
-4.36738e-07
8.07661e-07
1.20854e-06
0.00114654
6.50713e-07
-0.00114645
3.2774e-07
-1.45609e-06
1.99362e-07
-4.17472e-07
-1.11164e-06
1.43021e-07
-4.33799e-07
8.07683e-07
-3.86102e-07
-3.88426e-07
0.000273529
-1.17102e-06
0.000275392
-0.000273339
1.61797e-07
1.64234e-07
3.35858e-07
0.0011472
-4.19956e-07
1.16698e-06
1.89547e-07
8.02805e-07
-4.46289e-07
-1.123e-06
1.40365e-07
-1.45991e-06
6.68121e-07
3.37062e-07
0.00114614
-4.25454e-07
1.19894e-06
1.95177e-07
8.02818e-07
-4.43485e-07
-1.12286e-06
1.37351e-07
0.00114748
6.51335e-07
-0.00114739
3.26863e-07
-1.41877e-06
1.93809e-07
-4.12038e-07
-1.11163e-06
1.46036e-07
-4.36557e-07
8.0776e-07
1.20288e-06
0.00114641
6.5032e-07
-0.00114633
3.27943e-07
-1.45065e-06
1.99448e-07
-4.17494e-07
-1.11146e-06
1.43024e-07
-4.33821e-07
8.07849e-07
6.68066e-07
3.36923e-07
0.00114576
-4.22439e-07
1.19602e-06
1.92375e-07
7.94631e-07
-4.40642e-07
1.34443e-07
-1.11458e-06
6.51184e-07
-0.00114694
3.32049e-07
-1.41857e-06
1.93816e-07
-4.11834e-07
-1.10634e-06
1.45882e-07
8.02396e-07
-4.36452e-07
1.19999e-06
0.00114603
6.50213e-07
-0.00114595
3.27928e-07
-1.44754e-06
1.96593e-07
-4.14498e-07
-1.10337e-06
1.40099e-07
-4.30941e-07
7.99614e-07
-3.86225e-07
-3.91131e-07
0.000273514
-1.16816e-06
0.000275367
-0.000273324
1.61762e-07
1.66858e-07
6.69172e-07
3.35614e-07
0.00114675
-4.19856e-07
1.15871e-06
1.89588e-07
7.99946e-07
-4.46199e-07
1.40408e-07
-1.12001e-06
6.51341e-07
-0.00114681
3.26526e-07
-1.41581e-06
1.91003e-07
-4.09019e-07
-1.10634e-06
1.46031e-07
8.02254e-07
-4.3657e-07
1.16271e-06
0.00114703
6.5139e-07
-0.00114695
3.26681e-07
-1.41042e-06
1.93811e-07
-4.11925e-07
-1.10879e-06
1.46026e-07
-4.36518e-07
8.04921e-07
-0.000273298
1.61512e-07
1.6435e-07
1.45564e-06
1.41582e-06
-3.73801e-07
-3.79261e-07
0.000273293
-1.21637e-06
-1.17636e-06
0.000275146
-0.000273095
1.68329e-07
1.73799e-07
3.24701e-07
0.00114654
-4.14767e-07
1.2124e-06
2.00787e-07
8.09379e-07
-4.33605e-07
-1.10817e-06
1.47575e-07
-1.45298e-06
6.44594e-07
3.24728e-07
0.00114661
-4.14832e-07
1.2097e-06
2.00738e-07
8.09538e-07
-4.30668e-07
-1.10783e-06
1.44823e-07
0.0011467
6.26752e-07
-0.00114666
3.20783e-07