/*--------------------------------*- C++ -*----------------------------------*\
| =========                 |                                                 |
| \\      /  F ield         | OpenFOAM: The Open Source CFD Toolbox           |
|  \\    /   O peration     | Version:                                        |
|   \\  /    A nd           | Website:  www.openfoam.com                      |
|    \\/     M anipulation  |                                                 |
\*---------------------------------------------------------------------------*/
FoamFile
{
    version     2.0;
    format      ascii;
    class       volScalarField;
    location    "23850.5";
    object      p;
}
// * * * * * * * * * * * * * * * * * * * * * * * * * * * * * * * * * * * * * //

dimensions      [0 2 -2 0 0 0 0];


internalField   nonuniform List<scalar> 
247096
(
1.12775e-07
1.12777e-07
1.12921e-07
1.13007e-07
1.1304e-07
1.12998e-07
1.12908e-07
1.12753e-07
1.12777e-07
1.12976e-07
1.13153e-07
1.13246e-07
1.13269e-07
1.13238e-07
1.13135e-07
1.12952e-07
1.12921e-07
1.13153e-07
1.13293e-07
1.13335e-07
1.13341e-07
1.13333e-07
1.13283e-07
1.13126e-07
1.12894e-07
1.13008e-07
1.13246e-07
1.13335e-07
1.13347e-07
1.13345e-07
1.13347e-07
1.1333e-07
1.13224e-07
1.12974e-07
1.12775e-07
1.1304e-07
1.13269e-07
1.13342e-07
1.13345e-07
1.13342e-07
1.13346e-07
1.13338e-07
1.13249e-07
1.13006e-07
1.12999e-07
1.13239e-07
1.13333e-07
1.13347e-07
1.13346e-07
1.13347e-07
1.13328e-07
1.13216e-07
1.12966e-07
1.12908e-07
1.13135e-07
1.13283e-07
1.1333e-07
1.13339e-07
1.13328e-07
1.13271e-07
1.13107e-07
1.12882e-07
1.12754e-07
1.12952e-07
1.13126e-07
1.13224e-07
1.1325e-07
1.13216e-07
1.13107e-07
1.1293e-07
1.12894e-07
1.12975e-07
1.13006e-07
1.12966e-07
1.12882e-07
1.09962e-07
1.09937e-07
1.09946e-07
1.09797e-07
1.09809e-07
1.09828e-07
1.09808e-07
1.09995e-07
1.09933e-07
1.09947e-07
1.09818e-07
1.09612e-07
1.09631e-07
1.09631e-07
1.09612e-07
1.09875e-07
1.09821e-07
1.09798e-07
1.09617e-07
1.09652e-07
1.09672e-07
1.09672e-07
1.09652e-07
1.09617e-07
1.09939e-07
1.09984e-07
1.09962e-07
1.0981e-07
1.09633e-07
1.09673e-07
1.09696e-07
1.09696e-07
1.09673e-07
1.09632e-07
1.09967e-07
1.10002e-07
1.09938e-07
1.09829e-07
1.09632e-07
1.09673e-07
1.09696e-07
1.09696e-07
1.09673e-07
1.09632e-07
1.0997e-07
1.09826e-07
1.09809e-07
1.09613e-07
1.09653e-07
1.09673e-07
1.09673e-07
1.09653e-07
1.09613e-07
1.09962e-07
1.10011e-07
1.09996e-07
1.09876e-07
1.09617e-07
1.09633e-07
1.09633e-07
1.09617e-07
1.09958e-07
1.0988e-07
1.09994e-07
1.09934e-07
1.09822e-07
1.0994e-07
1.09968e-07
1.09971e-07
1.09964e-07
1.09881e-07
1.10005e-07
1.09985e-07
1.10003e-07
1.09827e-07
1.10012e-07
1.09995e-07
1.08183e-07
1.08175e-07
1.08183e-07
1.08053e-07
1.08053e-07
1.08063e-07
1.08055e-07
1.08217e-07
1.08174e-07
1.08183e-07
1.08048e-07
1.07814e-07
1.07822e-07
1.07822e-07
1.07814e-07
1.08072e-07
1.08065e-07
1.08053e-07
1.07814e-07
1.07834e-07
1.07845e-07
1.07845e-07
1.07834e-07
1.07814e-07
1.08116e-07
1.08207e-07
1.08184e-07
1.08053e-07
1.07822e-07
1.07845e-07
1.07859e-07
1.07859e-07
1.07845e-07
1.07822e-07
1.0812e-07
1.08205e-07
1.08175e-07
1.08063e-07
1.07822e-07
1.07845e-07
1.07859e-07
1.07859e-07
1.07845e-07
1.07822e-07
1.08119e-07
1.08073e-07
1.08055e-07
1.07814e-07
1.07834e-07
1.07845e-07
1.07845e-07
1.07834e-07
1.07814e-07
1.08123e-07
1.08213e-07
1.08218e-07
1.08072e-07
1.07814e-07
1.07823e-07
1.07823e-07
1.07814e-07
1.08104e-07
1.08095e-07
1.08218e-07
1.08175e-07
1.08066e-07
1.08116e-07
1.08121e-07
1.08119e-07
1.08123e-07
1.08095e-07
1.0822e-07
1.08208e-07
1.08205e-07
1.08073e-07
1.08213e-07
1.08218e-07
1.06576e-07
1.06567e-07
1.06576e-07
1.06453e-07
1.06451e-07
1.0646e-07
1.06454e-07
1.06607e-07
1.06569e-07
1.06576e-07
1.06448e-07
1.06238e-07
1.06243e-07
1.06243e-07
1.06238e-07
1.06472e-07
1.06466e-07
1.06453e-07
1.06238e-07
1.06249e-07
1.06255e-07
1.06255e-07
1.06249e-07
1.06238e-07
1.06513e-07
1.06599e-07
1.06576e-07
1.06451e-07
1.06243e-07
1.06255e-07
1.06263e-07
1.06263e-07
1.06255e-07
1.06243e-07
1.06516e-07
1.06597e-07
1.06568e-07
1.0646e-07
1.06243e-07
1.06255e-07
1.06263e-07
1.06263e-07
1.06255e-07
1.06243e-07
1.06515e-07
1.06472e-07
1.06454e-07
1.06238e-07
1.06249e-07
1.06255e-07
1.06255e-07
1.06249e-07
1.06238e-07
1.06519e-07
1.06604e-07
1.06607e-07
1.06472e-07
1.06238e-07
1.06243e-07
1.06243e-07
1.06238e-07
1.065e-07
1.06492e-07
1.06608e-07
1.06569e-07
1.06466e-07
1.06513e-07
1.06516e-07
1.06515e-07
1.06519e-07
1.06492e-07
1.06612e-07
1.06599e-07
1.06597e-07
1.06472e-07
1.06604e-07
1.06608e-07
1.0511e-07
1.05101e-07
1.05109e-07
1.04992e-07
1.04989e-07
1.04996e-07
1.04991e-07
1.05136e-07
1.05103e-07
1.05109e-07
1.04986e-07
1.04794e-07
1.04797e-07
1.04797e-07
1.04794e-07
1.05009e-07
1.05006e-07
1.04992e-07
1.04794e-07
1.04802e-07
1.04805e-07
1.04805e-07
1.04802e-07
1.04794e-07
1.05047e-07
1.05132e-07
1.0511e-07
1.04989e-07
1.04797e-07
1.04805e-07
1.0481e-07
1.0481e-07
1.04805e-07
1.04797e-07
1.05049e-07
1.0513e-07
1.05101e-07
1.04996e-07
1.04797e-07
1.04805e-07
1.0481e-07
1.0481e-07
1.04805e-07
1.04797e-07
1.05048e-07
1.0501e-07
1.04991e-07
1.04794e-07
1.04802e-07
1.04805e-07
1.04805e-07
1.04802e-07
1.04794e-07
1.05051e-07
1.05136e-07
1.05136e-07
1.05009e-07
1.04794e-07
1.04797e-07
1.04797e-07
1.04794e-07
1.05034e-07
1.05029e-07
1.05138e-07
1.05103e-07
1.05006e-07
1.05047e-07
1.05049e-07
1.05048e-07
1.05051e-07
1.05029e-07
1.05143e-07
1.05132e-07
1.0513e-07
1.0501e-07
1.05136e-07
1.05138e-07
1.03762e-07
1.03753e-07
1.03761e-07
1.03649e-07
1.03645e-07
1.03651e-07
1.03647e-07
1.03786e-07
1.03757e-07
1.03761e-07
1.03643e-07
1.03466e-07
1.03468e-07
1.03468e-07
1.03466e-07
1.03665e-07
1.03663e-07
1.03649e-07
1.03466e-07
1.03471e-07
1.03473e-07
1.03473e-07
1.03471e-07
1.03466e-07
1.03702e-07
1.03784e-07
1.03762e-07
1.03645e-07
1.03468e-07
1.03473e-07
1.03476e-07
1.03476e-07
1.03473e-07
1.03468e-07
1.03703e-07
1.03782e-07
1.03753e-07
1.03651e-07
1.03468e-07
1.03473e-07
1.03476e-07
1.03476e-07
1.03473e-07
1.03468e-07
1.03701e-07
1.03667e-07
1.03647e-07
1.03466e-07
1.03471e-07
1.03473e-07
1.03473e-07
1.03471e-07
1.03466e-07
1.03704e-07
1.03787e-07
1.03786e-07
1.03665e-07
1.03466e-07
1.03468e-07
1.03468e-07
1.03466e-07
1.03689e-07
1.03684e-07
1.03788e-07
1.03757e-07
1.03663e-07
1.03702e-07
1.03703e-07
1.03701e-07
1.03704e-07
1.03684e-07
1.03794e-07
1.03784e-07
1.03782e-07
1.03667e-07
1.03787e-07
1.03788e-07
1.02506e-07
1.02497e-07
1.02505e-07
1.02396e-07
1.02392e-07
1.02397e-07
1.02394e-07
1.02528e-07
1.02501e-07
1.02505e-07
1.0239e-07
1.02225e-07
1.02226e-07
1.02226e-07
1.02225e-07
1.02412e-07
1.02411e-07
1.02396e-07
1.02225e-07
1.02229e-07
1.02229e-07
1.02229e-07
1.02229e-07
1.02225e-07
1.0245e-07
1.02528e-07
1.02506e-07
1.02392e-07
1.02226e-07
1.02229e-07
1.02231e-07
1.02231e-07
1.02229e-07
1.02226e-07
1.0245e-07
1.02526e-07
1.02497e-07
1.02397e-07
1.02226e-07
1.02229e-07
1.02231e-07
1.02231e-07
1.02229e-07
1.02226e-07
1.02448e-07
1.02415e-07
1.02394e-07
1.02225e-07
1.02229e-07
1.02229e-07
1.02229e-07
1.02229e-07
1.02225e-07
1.0245e-07
1.0253e-07
1.02528e-07
1.02412e-07
1.02225e-07
1.02226e-07
1.02226e-07
1.02225e-07
1.02436e-07
1.02431e-07
1.02531e-07
1.02501e-07
1.02411e-07
1.0245e-07
1.0245e-07
1.02448e-07
1.0245e-07
1.02431e-07
1.02537e-07
1.02528e-07
1.02526e-07
1.02415e-07
1.0253e-07
1.02531e-07
1.01306e-07
1.01298e-07
1.01305e-07
1.01199e-07
1.01195e-07
1.01199e-07
1.01196e-07
1.01328e-07
1.01302e-07
1.01305e-07
1.01192e-07
1.01034e-07
1.01035e-07
1.01035e-07
1.01034e-07
1.01215e-07
1.01213e-07
1.01199e-07
1.01034e-07
1.01037e-07
1.01037e-07
1.01037e-07
1.01037e-07
1.01034e-07
1.01253e-07
1.01328e-07
1.01306e-07
1.01195e-07
1.01035e-07
1.01037e-07
1.01037e-07
1.01037e-07
1.01037e-07
1.01035e-07
1.01252e-07
1.01326e-07
1.01298e-07
1.01199e-07
1.01035e-07
1.01037e-07
1.01037e-07
1.01037e-07
1.01037e-07
1.01035e-07
1.0125e-07
1.01217e-07
1.01196e-07
1.01034e-07
1.01037e-07
1.01037e-07
1.01037e-07
1.01037e-07
1.01034e-07
1.01252e-07
1.0133e-07
1.01328e-07
1.01215e-07
1.01034e-07
1.01035e-07
1.01035e-07
1.01034e-07
1.01239e-07
1.01233e-07
1.01331e-07
1.01302e-07
1.01213e-07
1.01253e-07
1.01252e-07
1.0125e-07
1.01252e-07
1.01233e-07
1.01338e-07
1.01328e-07
1.01326e-07
1.01217e-07
1.0133e-07
1.01331e-07
1.00134e-07
1.00125e-07
1.00132e-07
1.00027e-07
1.00023e-07
1.00026e-07
1.00024e-07
1.00155e-07
1.0013e-07
1.00132e-07
1.0002e-07
9.98647e-08
9.98653e-08
9.98653e-08
9.98647e-08
1.00043e-07
1.00041e-07
1.00027e-07
9.98646e-08
9.98677e-08
9.98668e-08
9.98668e-08
9.98677e-08
9.98646e-08
1.00081e-07
1.00155e-07
1.00133e-07
1.00022e-07
9.98653e-08
9.98668e-08
9.98666e-08
9.98666e-08
9.98668e-08
9.98653e-08
1.00081e-07
1.00153e-07
1.00125e-07
1.00026e-07
9.98653e-08
9.98668e-08
9.98666e-08
9.98666e-08
9.98668e-08
9.98653e-08
1.00079e-07
1.00045e-07
1.00024e-07
9.98646e-08
9.98677e-08
9.98668e-08
9.98668e-08
9.98677e-08
9.98646e-08
1.0008e-07
1.00157e-07
1.00154e-07
1.00043e-07
9.98646e-08
9.98652e-08
9.98652e-08
9.98646e-08
1.00067e-07
1.00061e-07
1.00158e-07
1.0013e-07
1.00041e-07
1.00081e-07
1.00081e-07
1.00079e-07
1.0008e-07
1.0006e-07
1.00165e-07
1.00155e-07
1.00153e-07
1.00045e-07
1.00157e-07
1.00157e-07
9.89703e-08
9.89614e-08
9.89691e-08
9.88637e-08
9.88594e-08
9.88633e-08
9.8861e-08
9.89911e-08
9.89664e-08
9.89688e-08
9.88572e-08
9.87025e-08
9.8703e-08
9.8703e-08
9.87025e-08
9.88802e-08
9.88779e-08
9.88635e-08
9.87024e-08
9.87055e-08
9.87043e-08
9.87043e-08
9.87055e-08
9.87024e-08
9.89182e-08
9.8992e-08
9.89701e-08
9.88593e-08
9.87029e-08
9.87043e-08
9.87038e-08
9.87038e-08
9.87043e-08
9.87029e-08
9.89178e-08
9.89899e-08
9.89613e-08
9.88632e-08
9.87029e-08
9.87043e-08
9.87038e-08
9.87038e-08
9.87043e-08
9.87029e-08
9.89157e-08
9.8882e-08
9.88609e-08
9.87024e-08
9.87054e-08
9.87043e-08
9.87043e-08
9.87054e-08
9.87024e-08
9.89175e-08
9.8994e-08
9.8991e-08
9.88801e-08
9.87023e-08
9.87029e-08
9.87029e-08
9.87023e-08
9.89037e-08
9.8898e-08
9.89943e-08
9.89663e-08
9.88778e-08
9.89181e-08
9.89177e-08
9.89156e-08
9.89173e-08
9.88974e-08
9.90016e-08
9.89919e-08
9.89898e-08
9.88819e-08
9.89938e-08
9.8994e-08
9.78095e-08
9.78006e-08
9.78082e-08
9.7703e-08
9.76986e-08
9.77025e-08
9.77001e-08
9.783e-08
9.78054e-08
9.78079e-08
9.76964e-08
9.75419e-08
9.75424e-08
9.75423e-08
9.75419e-08
9.77193e-08
9.77184e-08
9.77027e-08
9.75418e-08
9.7545e-08
9.75437e-08
9.75437e-08
9.7545e-08
9.75419e-08
9.77577e-08
9.78314e-08
9.78093e-08
9.76985e-08
9.75423e-08
9.75437e-08
9.75431e-08
9.75431e-08
9.75437e-08
9.75423e-08
9.77572e-08
9.78292e-08
9.78005e-08
9.77024e-08
9.75423e-08
9.75437e-08
9.7543e-08
9.7543e-08
9.75437e-08
9.75423e-08
9.77551e-08
9.77213e-08
9.77001e-08
9.75418e-08
9.7545e-08
9.75436e-08
9.75436e-08
9.7545e-08
9.75418e-08
9.77568e-08
9.78332e-08
9.78302e-08
9.77193e-08
9.75418e-08
9.75422e-08
9.75422e-08
9.75418e-08
9.7743e-08
9.77372e-08
9.78335e-08
9.78055e-08
9.77171e-08
9.77574e-08
9.77571e-08
9.77549e-08
9.77566e-08
9.77367e-08
9.78408e-08
9.78311e-08
9.7829e-08
9.77211e-08
9.7833e-08
9.78332e-08
9.66492e-08
9.66403e-08
9.66479e-08
9.65427e-08
9.65383e-08
9.65422e-08
9.65399e-08
9.66699e-08
9.66452e-08
9.66476e-08
9.65361e-08
9.63816e-08
9.63821e-08
9.63821e-08
9.63816e-08
9.65591e-08
9.65569e-08
9.65424e-08
9.63816e-08
9.63846e-08
9.63834e-08
9.63834e-08
9.63846e-08
9.63816e-08
9.65972e-08
9.66709e-08
9.6649e-08
9.65382e-08
9.6382e-08
9.63834e-08
9.63827e-08
9.63827e-08
9.63834e-08
9.6382e-08
9.65969e-08
9.66688e-08
9.66402e-08
9.65421e-08
9.6382e-08
9.63834e-08
9.63827e-08
9.63827e-08
9.63834e-08
9.6382e-08
9.65947e-08
9.6561e-08
9.65398e-08
9.63816e-08
9.63846e-08
9.63833e-08
9.63834e-08
9.63846e-08
9.63816e-08
9.65965e-08
9.66729e-08
9.66699e-08
9.6559e-08
9.63815e-08
9.63819e-08
9.63819e-08
9.63815e-08
9.65827e-08
9.65769e-08
9.66731e-08
9.66451e-08
9.65568e-08
9.65971e-08
9.65968e-08
9.65946e-08
9.65963e-08
9.65764e-08
9.66804e-08
9.66708e-08
9.66687e-08
9.65608e-08
9.66727e-08
9.66729e-08
9.54889e-08
9.548e-08
9.54877e-08
9.53824e-08
9.53781e-08
9.5382e-08
9.53796e-08
9.55097e-08
9.5485e-08
9.54874e-08
9.53759e-08
9.52213e-08
9.52218e-08
9.52218e-08
9.52214e-08
9.53989e-08
9.53966e-08
9.53822e-08
9.52213e-08
9.52244e-08
9.52232e-08
9.52232e-08
9.52244e-08
9.52213e-08
9.54369e-08
9.55106e-08
9.54887e-08
9.53779e-08
9.52217e-08
9.52231e-08
9.52224e-08
9.52224e-08
9.52231e-08
9.52217e-08
9.54366e-08
9.55086e-08
9.54799e-08
9.53818e-08
9.52217e-08
9.52231e-08
9.52224e-08
9.52224e-08
9.52231e-08
9.52217e-08
9.54345e-08
9.54007e-08
9.53795e-08
9.52213e-08
9.52243e-08
9.52231e-08
9.52231e-08
9.52243e-08
9.52213e-08
9.54362e-08
9.55126e-08
9.55096e-08
9.53988e-08
9.52212e-08
9.52217e-08
9.52217e-08
9.52212e-08
9.54224e-08
9.54166e-08
9.55129e-08
9.54849e-08
9.53965e-08
9.54368e-08
9.54365e-08
9.54344e-08
9.5436e-08
9.54161e-08
9.55202e-08
9.55105e-08
9.55084e-08
9.54005e-08
9.55124e-08
9.55126e-08
9.43286e-08
9.43197e-08
9.43274e-08
9.42221e-08
9.42178e-08
9.42216e-08
9.42192e-08
9.43492e-08
9.43245e-08
9.43271e-08
9.42156e-08
9.40611e-08
9.40615e-08
9.40615e-08
9.40611e-08
9.42384e-08
9.42375e-08
9.42219e-08
9.4061e-08
9.40641e-08
9.40629e-08
9.40629e-08
9.40641e-08
9.40611e-08
9.42769e-08
9.43505e-08
9.43285e-08
9.42177e-08
9.40615e-08
9.40629e-08
9.40622e-08
9.40622e-08
9.40629e-08
9.40615e-08
9.42764e-08
9.43484e-08
9.43196e-08
9.42216e-08
9.40615e-08
9.40628e-08
9.40622e-08
9.40622e-08
9.40629e-08
9.40615e-08
9.42742e-08
9.42405e-08
9.42193e-08
9.4061e-08
9.4064e-08
9.40628e-08
9.40628e-08
9.40641e-08
9.4061e-08
9.4276e-08
9.43523e-08
9.43493e-08
9.42385e-08
9.4061e-08
9.40614e-08
9.40614e-08
9.4061e-08
9.42622e-08
9.42564e-08
9.43526e-08
9.43246e-08
9.42362e-08
9.42766e-08
9.42762e-08
9.42741e-08
9.42757e-08
9.42559e-08
9.43599e-08
9.43503e-08
9.43482e-08
9.42403e-08
9.43522e-08
9.43523e-08
9.31684e-08
9.31595e-08
9.31671e-08
9.30619e-08
9.30575e-08
9.30614e-08
9.30591e-08
9.31891e-08
9.31644e-08
9.31668e-08
9.30553e-08
9.29008e-08
9.29013e-08
9.29013e-08
9.29008e-08
9.30783e-08
9.30761e-08
9.30616e-08
9.29008e-08
9.29038e-08
9.29026e-08
9.29026e-08
9.29038e-08
9.29008e-08
9.31164e-08
9.31901e-08
9.31682e-08
9.30574e-08
9.29012e-08
9.29026e-08
9.29019e-08
9.29019e-08
9.29026e-08
9.29012e-08
9.31161e-08
9.3188e-08
9.31594e-08
9.30613e-08
9.29012e-08
9.29026e-08
9.29019e-08
9.29019e-08
9.29026e-08
9.29012e-08
9.3114e-08
9.30802e-08
9.3059e-08
9.29008e-08
9.29038e-08
9.29026e-08
9.29026e-08
9.29038e-08
9.29008e-08
9.31157e-08
9.31921e-08
9.31891e-08
9.30782e-08
9.29007e-08
9.29011e-08
9.29011e-08
9.29007e-08
9.31019e-08
9.30961e-08
9.31923e-08
9.31644e-08
9.3076e-08
9.31163e-08
9.3116e-08
9.31138e-08
9.31155e-08
9.30956e-08
9.31997e-08
9.319e-08
9.31879e-08
9.308e-08
9.31919e-08
9.31921e-08
9.20081e-08
9.19992e-08
9.20069e-08
9.19016e-08
9.18973e-08
9.19012e-08
9.18988e-08
9.20289e-08
9.20042e-08
9.20066e-08
9.18951e-08
9.17406e-08
9.1741e-08
9.1741e-08
9.17406e-08
9.19181e-08
9.19158e-08
9.19014e-08
9.17405e-08
9.17436e-08
9.17424e-08
9.17424e-08
9.17436e-08
9.17405e-08
9.19562e-08
9.20298e-08
9.20079e-08
9.18971e-08
9.17409e-08
9.17423e-08
9.17417e-08
9.17417e-08
9.17424e-08
9.1741e-08
9.19558e-08
9.20278e-08
9.19991e-08
9.1901e-08
9.17409e-08
9.17423e-08
9.17416e-08
9.17417e-08
9.17424e-08
9.1741e-08
9.19537e-08
9.19199e-08
9.18987e-08
9.17405e-08
9.17435e-08
9.17423e-08
9.17423e-08
9.17436e-08
9.17405e-08
9.19554e-08
9.20318e-08
9.20288e-08
9.1918e-08
9.17405e-08
9.17409e-08
9.17409e-08
9.17405e-08
9.19417e-08
9.19359e-08
9.20321e-08
9.20041e-08
9.19157e-08
9.19561e-08
9.19558e-08
9.19536e-08
9.19553e-08
9.19354e-08
9.20394e-08
9.20298e-08
9.20277e-08
9.19198e-08
9.20317e-08
9.20319e-08
9.08478e-08
9.08389e-08
9.08466e-08
9.07413e-08
9.0737e-08
9.07408e-08
9.07384e-08
9.08684e-08
9.08437e-08
9.08463e-08
9.07348e-08
9.05803e-08
9.05807e-08
9.05807e-08
9.05803e-08
9.07577e-08
9.07568e-08
9.07411e-08
9.05802e-08
9.05833e-08
9.05821e-08
9.05821e-08
9.05833e-08
9.05803e-08
9.07962e-08
9.08698e-08
9.08477e-08
9.07368e-08
9.05807e-08
9.05821e-08
9.05814e-08
9.05814e-08
9.05821e-08
9.05808e-08
9.07957e-08
9.08676e-08
9.08388e-08
9.07407e-08
9.05807e-08
9.05821e-08
9.05814e-08
9.05814e-08
9.05821e-08
9.05807e-08
9.07935e-08
9.07597e-08
9.07384e-08
9.05802e-08
9.05833e-08
9.05821e-08
9.05821e-08
9.05833e-08
9.05803e-08
9.07951e-08
9.08716e-08
9.08683e-08
9.07576e-08
9.05803e-08
9.05807e-08
9.05807e-08
9.05803e-08
9.07814e-08
9.07754e-08
9.08718e-08
9.08436e-08
9.07567e-08
9.07961e-08
9.07956e-08
9.07934e-08
9.07951e-08
9.07755e-08
9.08792e-08
9.08697e-08
9.08675e-08
9.07596e-08
9.08715e-08
9.08718e-08
8.96876e-08
8.96786e-08
8.96863e-08
8.95811e-08
8.95767e-08
8.95806e-08
8.95782e-08
8.97081e-08
8.96835e-08
8.9686e-08
8.95746e-08
8.94201e-08
8.94205e-08
8.94205e-08
8.942e-08
8.95974e-08
8.95965e-08
8.95809e-08
8.942e-08
8.94231e-08
8.94219e-08
8.94219e-08
8.94231e-08
8.94201e-08
8.96359e-08
8.97096e-08
8.96874e-08
8.95766e-08
8.94204e-08
8.94219e-08
8.94212e-08
8.94212e-08
8.94219e-08
8.94205e-08
8.96355e-08
8.97074e-08
8.96785e-08
8.95805e-08
8.94204e-08
8.94219e-08
8.94212e-08
8.94212e-08
8.94219e-08
8.94205e-08
8.96333e-08
8.95995e-08
8.95781e-08
8.942e-08
8.94231e-08
8.94219e-08
8.94219e-08
8.94231e-08
8.94201e-08
8.9635e-08
8.97114e-08
8.97081e-08
8.95974e-08
8.942e-08
8.94205e-08
8.94205e-08
8.942e-08
8.96212e-08
8.96154e-08
8.97117e-08
8.96834e-08
8.95964e-08
8.96358e-08
8.96354e-08
8.96332e-08
8.96348e-08
8.96149e-08
8.9719e-08
8.97095e-08
8.97073e-08
8.95994e-08
8.97112e-08
8.97114e-08
8.85273e-08
8.85184e-08
8.85261e-08
8.84209e-08
8.84165e-08
8.84204e-08
8.8418e-08
8.85479e-08
8.85233e-08
8.85258e-08
8.84144e-08
8.82598e-08
8.82603e-08
8.82603e-08
8.82598e-08
8.84372e-08
8.84363e-08
8.84207e-08
8.82598e-08
8.82629e-08
8.82617e-08
8.82617e-08
8.82629e-08
8.82599e-08
8.84757e-08
8.85493e-08
8.85272e-08
8.84164e-08
8.82602e-08
8.82616e-08
8.8261e-08
8.8261e-08
8.82617e-08
8.82603e-08
8.84752e-08
8.85472e-08
8.85184e-08
8.84203e-08
8.82602e-08
8.82616e-08
8.82609e-08
8.8261e-08
8.82617e-08
8.82603e-08
8.84731e-08
8.84393e-08
8.8418e-08
8.82598e-08
8.82628e-08
8.82616e-08
8.82616e-08
8.82629e-08
8.82599e-08
8.84748e-08
8.85512e-08
8.85481e-08
8.84373e-08
8.82598e-08
8.82602e-08
8.82602e-08
8.82598e-08
8.8461e-08
8.84552e-08
8.85514e-08
8.85234e-08
8.8435e-08
8.84754e-08
8.8475e-08
8.84729e-08
8.84746e-08
8.84547e-08
8.85587e-08
8.85491e-08
8.8547e-08
8.84391e-08
8.8551e-08
8.85512e-08
8.73671e-08
8.73583e-08
8.73659e-08
8.72607e-08
8.72563e-08
8.72602e-08
8.72579e-08
8.73879e-08
8.73632e-08
8.73656e-08
8.72541e-08
8.70996e-08
8.71001e-08
8.71001e-08
8.70996e-08
8.72771e-08
8.72749e-08
8.72604e-08
8.70996e-08
8.71026e-08
8.71014e-08
8.71014e-08
8.71027e-08
8.70996e-08
8.73152e-08
8.73889e-08
8.7367e-08
8.72562e-08
8.71e-08
8.71014e-08
8.71007e-08
8.71007e-08
8.71014e-08
8.71001e-08
8.73149e-08
8.73869e-08
8.73582e-08
8.72601e-08
8.71e-08
8.71014e-08
8.71007e-08
8.71007e-08
8.71014e-08
8.71001e-08
8.73128e-08
8.7279e-08
8.72578e-08
8.70996e-08
8.71026e-08
8.71014e-08
8.71014e-08
8.71026e-08
8.70996e-08
8.73145e-08
8.73909e-08
8.73879e-08
8.72771e-08
8.70995e-08
8.71e-08
8.71e-08
8.70995e-08
8.73007e-08
8.7295e-08
8.73912e-08
8.73632e-08
8.72748e-08
8.73151e-08
8.73148e-08
8.73127e-08
8.73143e-08
8.72944e-08
8.73985e-08
8.73888e-08
8.73867e-08
8.72788e-08
8.73907e-08
8.73909e-08
8.62069e-08
8.6198e-08
8.62057e-08
8.61004e-08
8.60961e-08
8.60999e-08
8.60975e-08
8.62275e-08
8.62028e-08
8.62054e-08
8.60939e-08
8.59394e-08
8.59398e-08
8.59398e-08
8.59394e-08
8.61168e-08
8.61158e-08
8.61002e-08
8.59393e-08
8.59424e-08
8.59412e-08
8.59412e-08
8.59424e-08
8.59394e-08
8.61552e-08
8.62289e-08
8.62068e-08
8.6096e-08
8.59398e-08
8.59412e-08
8.59405e-08
8.59405e-08
8.59412e-08
8.59398e-08
8.61548e-08
8.62267e-08
8.61979e-08
8.60999e-08
8.59398e-08
8.59412e-08
8.59405e-08
8.59405e-08
8.59412e-08
8.59398e-08
8.61526e-08
8.61188e-08
8.60976e-08
8.59394e-08
8.59424e-08
8.59412e-08
8.59412e-08
8.59424e-08
8.59394e-08
8.61543e-08
8.62307e-08
8.62276e-08
8.61168e-08
8.59393e-08
8.59397e-08
8.59397e-08
8.59393e-08
8.61405e-08
8.61347e-08
8.6231e-08
8.62029e-08
8.61146e-08
8.61549e-08
8.61546e-08
8.61524e-08
8.61541e-08
8.61342e-08
8.62383e-08
8.62286e-08
8.62265e-08
8.61186e-08
8.62305e-08
8.62307e-08
8.50467e-08
8.50377e-08
8.50455e-08
8.49402e-08
8.49358e-08
8.49397e-08
8.49373e-08
8.50672e-08
8.50426e-08
8.50452e-08
8.49337e-08
8.47792e-08
8.47796e-08
8.47796e-08
8.47791e-08
8.49565e-08
8.49556e-08
8.494e-08
8.47791e-08
8.47822e-08
8.4781e-08
8.4781e-08
8.47822e-08
8.47792e-08
8.4995e-08
8.50686e-08
8.50466e-08
8.49357e-08
8.47795e-08
8.47809e-08
8.47803e-08
8.47803e-08
8.4781e-08
8.47796e-08
8.49945e-08
8.50665e-08
8.50377e-08
8.49397e-08
8.47796e-08
8.47809e-08
8.47803e-08
8.47803e-08
8.4781e-08
8.47796e-08
8.49924e-08
8.49586e-08
8.49374e-08
8.47791e-08
8.47821e-08
8.47809e-08
8.47809e-08
8.47822e-08
8.47792e-08
8.49941e-08
8.50705e-08
8.50674e-08
8.49566e-08
8.47791e-08
8.47795e-08
8.47795e-08
8.47791e-08
8.49803e-08
8.49745e-08
8.50707e-08
8.50427e-08
8.49543e-08
8.49947e-08
8.49943e-08
8.49922e-08
8.49939e-08
8.4974e-08
8.5078e-08
8.50684e-08
8.50663e-08
8.49584e-08
8.50703e-08
8.50705e-08
8.38864e-08
8.38775e-08
8.38852e-08
8.37799e-08
8.37756e-08
8.37794e-08
8.3777e-08
8.3907e-08
8.38823e-08
8.38849e-08
8.37734e-08
8.36189e-08
8.36193e-08
8.36193e-08
8.36189e-08
8.37963e-08
8.37954e-08
8.37797e-08
8.36189e-08
8.36219e-08
8.36207e-08
8.36207e-08
8.3622e-08
8.36189e-08
8.38348e-08
8.39084e-08
8.38863e-08
8.37755e-08
8.36193e-08
8.36207e-08
8.362e-08
8.362e-08
8.36207e-08
8.36194e-08
8.38343e-08
8.39063e-08
8.38775e-08
8.37794e-08
8.36193e-08
8.36207e-08
8.362e-08
8.362e-08
8.36207e-08
8.36194e-08
8.38321e-08
8.37984e-08
8.37771e-08
8.36189e-08
8.36219e-08
8.36207e-08
8.36207e-08
8.36219e-08
8.36189e-08
8.38338e-08
8.39102e-08
8.39072e-08
8.37964e-08
8.36188e-08
8.36193e-08
8.36193e-08
8.36188e-08
8.38201e-08
8.38143e-08
8.39105e-08
8.38825e-08
8.37941e-08
8.38345e-08
8.38341e-08
8.3832e-08
8.38336e-08
8.38138e-08
8.39178e-08
8.39081e-08
8.3906e-08
8.37982e-08
8.391e-08
8.39102e-08
8.27261e-08
8.27172e-08
8.27247e-08
8.26195e-08
8.26152e-08
8.26191e-08
8.26168e-08
8.27467e-08
8.27221e-08
8.27249e-08
8.26132e-08
8.24586e-08
8.24591e-08
8.24591e-08
8.24586e-08
8.2636e-08
8.26351e-08
8.26197e-08
8.24586e-08
8.24617e-08
8.24605e-08
8.24605e-08
8.24617e-08
8.24587e-08
8.26745e-08
8.27482e-08
8.27261e-08
8.26153e-08
8.24591e-08
8.24605e-08
8.24598e-08
8.24598e-08
8.24605e-08
8.24591e-08
8.2674e-08
8.2746e-08
8.27172e-08
8.26192e-08
8.24591e-08
8.24605e-08
8.24598e-08
8.24598e-08
8.24605e-08
8.24591e-08
8.26719e-08
8.26381e-08
8.26169e-08
8.24586e-08
8.24617e-08
8.24605e-08
8.24605e-08
8.24617e-08
8.24587e-08
8.26736e-08
8.275e-08
8.27469e-08
8.26361e-08
8.24586e-08
8.2459e-08
8.2459e-08
8.24586e-08
8.26598e-08
8.2654e-08
8.27503e-08
8.27222e-08
8.26339e-08
8.26742e-08
8.26739e-08
8.26717e-08
8.26734e-08
8.26535e-08
8.27576e-08
8.27479e-08
8.27458e-08
8.26379e-08
8.27498e-08
8.275e-08
8.15659e-08
8.1557e-08
8.15647e-08
8.14594e-08
8.14551e-08
8.14589e-08
8.14565e-08
8.15865e-08
8.15618e-08
8.15644e-08
8.14529e-08
8.12984e-08
8.12988e-08
8.12988e-08
8.12984e-08
8.14758e-08
8.14749e-08
8.14592e-08
8.12983e-08
8.13014e-08
8.13002e-08
8.13002e-08
8.13014e-08
8.12984e-08
8.15143e-08
8.15879e-08
8.15658e-08
8.1455e-08
8.12988e-08
8.13002e-08
8.12995e-08
8.12995e-08
8.13002e-08
8.12989e-08
8.15138e-08
8.15857e-08
8.15569e-08
8.14589e-08
8.12988e-08
8.13002e-08
8.12995e-08
8.12995e-08
8.13002e-08
8.12989e-08
8.15116e-08
8.14778e-08
8.14565e-08
8.12983e-08
8.13014e-08
8.13002e-08
8.13002e-08
8.13014e-08
8.12984e-08
8.15133e-08
8.15897e-08
8.15864e-08
8.14757e-08
8.12984e-08
8.12988e-08
8.12988e-08
8.12984e-08
8.14996e-08
8.14938e-08
8.159e-08
8.15618e-08
8.14748e-08
8.15142e-08
8.15137e-08
8.15115e-08
8.15132e-08
8.14933e-08
8.15973e-08
8.15878e-08
8.15857e-08
8.14777e-08
8.15896e-08
8.15898e-08
8.04057e-08
8.03967e-08
8.04045e-08
8.02992e-08
8.02948e-08
8.02987e-08
8.02963e-08
8.04262e-08
8.04016e-08
8.04041e-08
8.02927e-08
8.01382e-08
8.01386e-08
8.01386e-08
8.01381e-08
8.03155e-08
8.03146e-08
8.0299e-08
8.01381e-08
8.01412e-08
8.014e-08
8.014e-08
8.01412e-08
8.01382e-08
8.0354e-08
8.04276e-08
8.04055e-08
8.02947e-08
8.01385e-08
8.01399e-08
8.01393e-08
8.01393e-08
8.014e-08
8.01386e-08
8.03535e-08
8.04254e-08
8.03966e-08
8.02986e-08
8.01385e-08
8.01399e-08
8.01393e-08
8.01393e-08
8.014e-08
8.01386e-08
8.03513e-08
8.03175e-08
8.02962e-08
8.01381e-08
8.01412e-08
8.014e-08
8.014e-08
8.01412e-08
8.01381e-08
8.03529e-08
8.04294e-08
8.04262e-08
8.03155e-08
8.01381e-08
8.01386e-08
8.01386e-08
8.01382e-08
8.03393e-08
8.0333e-08
8.04295e-08
8.04015e-08
8.03146e-08
8.0354e-08
8.03535e-08
8.03513e-08
8.03531e-08
8.03335e-08
8.04371e-08
8.04276e-08
8.04254e-08
8.03175e-08
8.04294e-08
8.04297e-08
7.92454e-08
7.92366e-08
7.92442e-08
7.9139e-08
7.91346e-08
7.91385e-08
7.91362e-08
7.92662e-08
7.92415e-08
7.92439e-08
7.91324e-08
7.89779e-08
7.89784e-08
7.89784e-08
7.89779e-08
7.91554e-08
7.91531e-08
7.91387e-08
7.89779e-08
7.89809e-08
7.89797e-08
7.89797e-08
7.89809e-08
7.89779e-08
7.91935e-08
7.92672e-08
7.92453e-08
7.91345e-08
7.89783e-08
7.89797e-08
7.8979e-08
7.8979e-08
7.89797e-08
7.89783e-08
7.91931e-08
7.92651e-08
7.92364e-08
7.91384e-08
7.89783e-08
7.89797e-08
7.8979e-08
7.8979e-08
7.89797e-08
7.89783e-08
7.9191e-08
7.91572e-08
7.91361e-08
7.89779e-08
7.89809e-08
7.89797e-08
7.89797e-08
7.89809e-08
7.89778e-08
7.91926e-08
7.92691e-08
7.92662e-08
7.91554e-08
7.89778e-08
7.89783e-08
7.89783e-08
7.89779e-08
7.9179e-08
7.91727e-08
7.92692e-08
7.92415e-08
7.91531e-08
7.91935e-08
7.91931e-08
7.9191e-08
7.91928e-08
7.91732e-08
7.92768e-08
7.92672e-08
7.92651e-08
7.91572e-08
7.92692e-08
7.92694e-08
7.80852e-08
7.80763e-08
7.8084e-08
7.79787e-08
7.79744e-08
7.79783e-08
7.79759e-08
7.8106e-08
7.80813e-08
7.80837e-08
7.79722e-08
7.78177e-08
7.78181e-08
7.78181e-08
7.78177e-08
7.79952e-08
7.79929e-08
7.79785e-08
7.78176e-08
7.78207e-08
7.78195e-08
7.78195e-08
7.78207e-08
7.78176e-08
7.80332e-08
7.81069e-08
7.80851e-08
7.79742e-08
7.7818e-08
7.78194e-08
7.78188e-08
7.78188e-08
7.78195e-08
7.78181e-08
7.80329e-08
7.81049e-08
7.80762e-08
7.79782e-08
7.7818e-08
7.78194e-08
7.78187e-08
7.78187e-08
7.78194e-08
7.78181e-08
7.80308e-08
7.7997e-08
7.79759e-08
7.78176e-08
7.78206e-08
7.78194e-08
7.78194e-08
7.78206e-08
7.78176e-08
7.80325e-08
7.81089e-08
7.81059e-08
7.79951e-08
7.78176e-08
7.7818e-08
7.7818e-08
7.78176e-08
7.80188e-08
7.8013e-08
7.81092e-08
7.80812e-08
7.79928e-08
7.80332e-08
7.80328e-08
7.80307e-08
7.80324e-08
7.80125e-08
7.81165e-08
7.81069e-08
7.81048e-08
7.79969e-08
7.81088e-08
7.8109e-08
7.69249e-08
7.6916e-08
7.69237e-08
7.68184e-08
7.68141e-08
7.68179e-08
7.68155e-08
7.69455e-08
7.69208e-08
7.69234e-08
7.68119e-08
7.66574e-08
7.66578e-08
7.66578e-08
7.66573e-08
7.68347e-08
7.68338e-08
7.68182e-08
7.66573e-08
7.66604e-08
7.66592e-08
7.66592e-08
7.66604e-08
7.66574e-08
7.68732e-08
7.69468e-08
7.69248e-08
7.6814e-08
7.66578e-08
7.66592e-08
7.66585e-08
7.66585e-08
7.66592e-08
7.66578e-08
7.68727e-08
7.69447e-08
7.69159e-08
7.68179e-08
7.66578e-08
7.66592e-08
7.66585e-08
7.66585e-08
7.66592e-08
7.66578e-08
7.68706e-08
7.68368e-08
7.68156e-08
7.66574e-08
7.66604e-08
7.66592e-08
7.66592e-08
7.66604e-08
7.66574e-08
7.68723e-08
7.69487e-08
7.69457e-08
7.68348e-08
7.66573e-08
7.66578e-08
7.66578e-08
7.66573e-08
7.68585e-08
7.68527e-08
7.69489e-08
7.6921e-08
7.68326e-08
7.6873e-08
7.68726e-08
7.68705e-08
7.68721e-08
7.68522e-08
7.69563e-08
7.69466e-08
7.69445e-08
7.68367e-08
7.69485e-08
7.69487e-08
7.57645e-08
7.57556e-08
7.57631e-08
7.56579e-08
7.56537e-08
7.56576e-08
7.56552e-08
7.57851e-08
7.57605e-08
7.57634e-08
7.56516e-08
7.5497e-08
7.54975e-08
7.54975e-08
7.5497e-08
7.56744e-08
7.56735e-08
7.56581e-08
7.54971e-08
7.55001e-08
7.54989e-08
7.54989e-08
7.55001e-08
7.54971e-08
7.57129e-08
7.57866e-08
7.57646e-08
7.56538e-08
7.54975e-08
7.54989e-08
7.54982e-08
7.54982e-08
7.54989e-08
7.54975e-08
7.57124e-08
7.57844e-08
7.57557e-08
7.56576e-08
7.54975e-08
7.54989e-08
7.54982e-08
7.54982e-08
7.54989e-08
7.54975e-08
7.57103e-08
7.56765e-08
7.56552e-08
7.54971e-08
7.55001e-08
7.54989e-08
7.54989e-08
7.55001e-08
7.54971e-08
7.57119e-08
7.57883e-08
7.57852e-08
7.56745e-08
7.54971e-08
7.54976e-08
7.54976e-08
7.54971e-08
7.56983e-08
7.5692e-08
7.57885e-08
7.57605e-08
7.56735e-08
7.5713e-08
7.57125e-08
7.57103e-08
7.5712e-08
7.56925e-08
7.5796e-08
7.57866e-08
7.57844e-08
7.56765e-08
7.57884e-08
7.57887e-08
7.46042e-08
7.45954e-08
7.46028e-08
7.44977e-08
7.44934e-08
7.44973e-08
7.44949e-08
7.46249e-08
7.46002e-08
7.46031e-08
7.44914e-08
7.43368e-08
7.43372e-08
7.43372e-08
7.43368e-08
7.45142e-08
7.45133e-08
7.44978e-08
7.43368e-08
7.43399e-08
7.43386e-08
7.43386e-08
7.43399e-08
7.43368e-08
7.45527e-08
7.46263e-08
7.46043e-08
7.44935e-08
7.43373e-08
7.43386e-08
7.4338e-08
7.4338e-08
7.43387e-08
7.43373e-08
7.45522e-08
7.46241e-08
7.45954e-08
7.44974e-08
7.43372e-08
7.43386e-08
7.4338e-08
7.4338e-08
7.43387e-08
7.43373e-08
7.455e-08
7.45162e-08
7.4495e-08
7.43368e-08
7.43399e-08
7.43387e-08
7.43387e-08
7.43399e-08
7.43368e-08
7.45516e-08
7.4628e-08
7.46249e-08
7.45142e-08
7.43368e-08
7.43373e-08
7.43373e-08
7.43368e-08
7.4538e-08
7.45317e-08
7.46282e-08
7.46002e-08
7.45133e-08
7.45527e-08
7.45522e-08
7.455e-08
7.45518e-08
7.45322e-08
7.46358e-08
7.46263e-08
7.46241e-08
7.45162e-08
7.46282e-08
7.46284e-08
7.34441e-08
7.34352e-08
7.34429e-08
7.33376e-08
7.33333e-08
7.33372e-08
7.33348e-08
7.34649e-08
7.34402e-08
7.34426e-08
7.33311e-08
7.31766e-08
7.3177e-08
7.3177e-08
7.31766e-08
7.33541e-08
7.33518e-08
7.33374e-08
7.31765e-08
7.31796e-08
7.31784e-08
7.31784e-08
7.31796e-08
7.31766e-08
7.33922e-08
7.34659e-08
7.3444e-08
7.33332e-08
7.3177e-08
7.31784e-08
7.31777e-08
7.31777e-08
7.31784e-08
7.3177e-08
7.33919e-08
7.34638e-08
7.34351e-08
7.33371e-08
7.3177e-08
7.31784e-08
7.31777e-08
7.31777e-08
7.31784e-08
7.3177e-08
7.33897e-08
7.3356e-08
7.33348e-08
7.31766e-08
7.31796e-08
7.31784e-08
7.31784e-08
7.31796e-08
7.31766e-08
7.33915e-08
7.34679e-08
7.34649e-08
7.3354e-08
7.31765e-08
7.3177e-08
7.3177e-08
7.31765e-08
7.33777e-08
7.33719e-08