/*--------------------------------*- C++ -*----------------------------------*\
| =========                 |                                                 |
| \\      /  F ield         | OpenFOAM: The Open Source CFD Toolbox           |
|  \\    /   O peration     | Version:  2312                                  |
|   \\  /    A nd           | Website:  www.openfoam.com                      |
|    \\/     M anipulation  |                                                 |
\*---------------------------------------------------------------------------*/
FoamFile
{
    version     2.0;
    format      ascii;
    arch        "LSB;label=32;scalar=64";
    class       volScalarField;
    location    "250";
    object      epsilon;
}
// * * * * * * * * * * * * * * * * * * * * * * * * * * * * * * * * * * * * * //

dimensions      [0 2 -3 0 0 0 0];

internalField   nonuniform List<scalar> 
43008
(
1.40289e-07
2.15335e-07
1.36478e-07
2.21698e-07
2.21712e-07
3.3456e-07
3.14811e-07
3.29454e-07
2.15373e-07
2.15414e-07
2.1996e-07
2.20008e-07
3.29399e-07
2.15341e-07
2.15398e-07
2.19929e-07
2.19997e-07
2.19905e-07
2.19962e-07
3.14904e-07
3.29537e-07
2.15359e-07
2.19916e-07
2.19947e-07
3.29283e-07
3.34492e-07
2.21753e-07
2.21798e-07
3.3459e-07
2.2172e-07
2.2179e-07
2.21752e-07
3.34538e-07
2.21737e-07
3.46851e-06
8.884e-06
3.42442e-06
8.88961e-06
1.85248e-05
3.46783e-06
8.88514e-06
3.42495e-06
8.89078e-06
1.40294e-07
1.40291e-07
1.40296e-07
1.37354e-07
1.37358e-07
1.37357e-07
1.37361e-07
9.8842e-07
2.16721e-07
2.6628e-06
1.59059e-07
1.85351e-05
1.85257e-05
9.88643e-07
1.5952e-07
2.63192e-06
2.16732e-07
9.60959e-07
1.59064e-07
2.66286e-06
3.19316e-07
5.05934e-06
5.06144e-06
3.58485e-06
8.89746e-06
3.54932e-06
8.90267e-06
1.85009e-05
1.84922e-05
3.5864e-06
8.89873e-06
3.54944e-06
8.90394e-06
1.36483e-07
1.36484e-07
1.36486e-07
1.07285e-06
2.71948e-06
1.58245e-07
2.23615e-07
1.04465e-06
2.74771e-06
1.58103e-07
1.85015e-05
1.84928e-05
1.07242e-06
1.58258e-07
2.71964e-06
2.23634e-07
1.04466e-06
1.58115e-07
2.74538e-06
5.09493e-06
5.09675e-06
3.4053e-07
5.10716e-06
5.11097e-06
1.8532e-05
1.85221e-05
1.85349e-05
1.85253e-05
5.04362e-06
5.04504e-06
3.19317e-07
5.06091e-06
5.06159e-06
1.85055e-05
1.85145e-05
1.85086e-05
1.85177e-05
3.24282e-07
5.08613e-06
5.08679e-06
5.06945e-06
5.07245e-06
3.4686e-06
8.88394e-06
3.42437e-06
8.88999e-06
9.88004e-07
2.63191e-06
1.59523e-07
2.16773e-07
9.61449e-07
2.66285e-06
1.59071e-07
9.88716e-07
2.634e-06
1.59533e-07
2.16815e-07
9.61074e-07
2.66201e-06
1.59078e-07
3.48925e-06
8.89623e-06
8.89088e-06
3.52894e-06
3.48913e-06
8.89678e-06
8.89055e-06
3.52976e-06
1.00302e-06
2.183e-07
2.70605e-06
1.58436e-07
2.67694e-06
1.58733e-07
1.02992e-06
1.00242e-06
2.18344e-07
2.70528e-06
1.58441e-07
2.67891e-06
1.5874e-07
1.03049e-06
3.19294e-07
5.06106e-06
5.05973e-06
1.85229e-05
1.85083e-05
1.85172e-05
3.24111e-07
5.08645e-06
5.08481e-06
5.07212e-06
5.07077e-06
1.85059e-05
1.85152e-05
9.88421e-07
2.63243e-06
1.59522e-07
2.16742e-07
9.61171e-07
2.66339e-06
1.59065e-07
3.46837e-06
8.88426e-06
3.42457e-06
8.89065e-06
9.88693e-07
1.59526e-07
2.6326e-06
2.16802e-07
9.61037e-07
1.59072e-07
2.66361e-06
3.48987e-06
8.89747e-06
8.89205e-06
3.52909e-06
1.00262e-06
2.18269e-07
2.7048e-06
1.58433e-07
2.67764e-06
1.58732e-07
1.0303e-06
3.48943e-06
8.89728e-06
8.89118e-06
3.52968e-06
1.00245e-06
2.18332e-07
1.58439e-07
2.70677e-06
1.58736e-07
2.67768e-06
1.03047e-06
3.46736e-06
8.88987e-06
9.88605e-07
2.16767e-07
1.59062e-07
2.66286e-06
3.46751e-06
8.89039e-06
1.00243e-06
2.18252e-07
2.70606e-06
1.58419e-07
2.67708e-06
1.58718e-07
1.03015e-06
3.49003e-06
8.8965e-06
8.89112e-06
3.52873e-06
1.00232e-06
2.183e-07
1.58428e-07
2.70439e-06
1.58728e-07
2.67733e-06
1.03043e-06
3.4899e-06
8.89706e-06
8.89087e-06
3.52888e-06
5.04406e-06
5.04381e-06
3.19311e-07
5.06291e-06
5.05979e-06
1.85327e-05
1.85233e-05
1.8509e-05
1.85181e-05
3.24382e-07
5.08797e-06
5.08489e-06
5.07094e-06
5.07067e-06
1.85066e-05
1.85157e-05
9.88831e-07
1.59525e-07
2.63402e-06
2.16759e-07
9.61114e-07
1.59068e-07
2.66201e-06
3.46874e-06
8.88413e-06
3.42466e-06
8.89052e-06
3.46893e-06
8.88491e-06
3.42456e-06
8.89053e-06
1.0025e-06
2.18262e-07
1.58428e-07
2.70607e-06
1.58729e-07
2.67708e-06
1.03059e-06
1.00238e-06
2.18285e-07
1.58433e-07
2.7053e-06
1.58733e-07
2.67888e-06
1.03074e-06
3.48947e-06
8.89719e-06
8.89105e-06
3.52925e-06
3.48927e-06
8.89726e-06
8.89186e-06
3.53012e-06
1.85243e-05
1.85261e-05
3.24166e-07
5.08469e-06
5.08664e-06
5.07027e-06
5.07228e-06
1.85076e-05
1.85166e-05
1.85094e-05
1.85186e-05
1.84981e-05
1.84895e-05
1.85012e-05
1.84925e-05
5.09357e-06
5.09683e-06
3.39638e-07
5.10664e-06
5.10908e-06
3.58505e-06
8.89727e-06
3.54887e-06
8.90318e-06
1.07218e-06
2.71976e-06
1.58265e-07
2.23683e-07
1.04516e-06
2.74528e-06
1.5812e-07
1.07296e-06
2.72136e-06
1.58269e-07
2.2373e-07
1.04459e-06
2.7463e-06
1.58126e-07
5.09647e-06
5.09517e-06
3.39577e-07
5.10876e-06
5.1092e-06
1.84985e-05
1.84898e-05
1.07246e-06
2.72127e-06
1.58263e-07
2.23651e-07
1.04474e-06
2.74631e-06
1.58118e-07
3.58641e-06
8.89796e-06
3.54899e-06
8.90342e-06
1.07332e-06
1.58267e-07
2.72033e-06
2.23723e-07
1.04466e-06
1.58126e-07
2.74831e-06
3.58456e-06
8.89772e-06
3.54968e-06
8.90292e-06
1.07212e-06
1.58256e-07
2.72086e-06
2.23679e-07
1.04453e-06
1.58111e-07
2.74583e-06
3.58492e-06
8.89752e-06
3.54945e-06
8.90347e-06
5.09534e-06
5.09485e-06
3.39957e-07
5.11075e-06
5.10913e-06
1.84992e-05
1.84905e-05
1.07378e-06
1.58263e-07
2.72125e-06
2.2367e-07
1.04447e-06
1.58119e-07
2.74828e-06
3.58485e-06
8.89769e-06
3.54947e-06
8.90351e-06
3.5847e-06
8.89849e-06
3.54901e-06
8.90374e-06
1.85001e-05
1.84915e-05
1.85021e-05
1.84933e-05
1.21038e-05
3.45738e-06
1.06415e-05
4.33948e-06
1.06397e-05
4.33134e-06
1.21067e-05
2.25126e-05
7.18606e-06
8.88618e-06
2.25108e-05
7.18623e-06
1.21036e-05
3.43572e-06
1.06382e-05
4.3064e-06
1.21009e-05
1.06396e-05
4.31488e-06
2.25014e-05
7.19141e-06
8.8875e-06
7.19177e-06
2.25032e-05
1.85334e-05
1.85257e-05
1.21039e-05
3.45818e-06
4.33919e-06
1.06418e-05
4.33155e-06
1.064e-05
1.21068e-05
2.25119e-05
7.18546e-06
8.88734e-06
2.25101e-05
7.18584e-06
1.21037e-05
3.43522e-06
4.30654e-06
1.06385e-05
1.2101e-05
4.31467e-06
1.064e-05
2.25007e-05
7.19187e-06
8.88863e-06
7.19164e-06
2.25025e-05
1.85343e-05
1.85265e-05
9.71743e-06
2.19933e-05
2.19927e-05
2.19929e-05
2.19924e-05
9.71717e-06
3.80731e-06
5.04728e-06
1.74822e-06
8.97486e-06
3.81423e-06
5.04761e-06
1.74962e-06
8.97968e-06
9.71403e-06
2.20036e-05
2.2003e-05
3.82197e-06
8.98439e-06
5.05669e-06
1.77301e-06
1.76466e-06
8.97764e-06
3.82964e-06
3.82905e-06
8.98922e-06
5.05927e-06
1.77457e-06
1.76646e-06
8.98242e-06
3.83658e-06
1.21173e-05
3.57738e-06
1.06558e-05
4.425e-06
1.06523e-05
4.41842e-06
1.21205e-05
2.24746e-05
7.20673e-06
8.89949e-06
2.2473e-05
7.20662e-06
1.2117e-05
3.55752e-06
1.06482e-05
4.39848e-06
1.21138e-05
1.06514e-05
4.40532e-06
2.24635e-05
7.20993e-06
8.90068e-06
7.21003e-06
2.2465e-05
1.85002e-05
1.84929e-05
1.21174e-05
3.57685e-06
4.42501e-06
1.06561e-05
4.4184e-06
1.06525e-05
1.21206e-05
2.24741e-05
7.20638e-06
8.90072e-06
2.24726e-05
7.20624e-06
1.2117e-05
3.55794e-06
4.3987e-06
1.06485e-05
1.21139e-05
4.40524e-06
1.06517e-05
2.24631e-05
7.20978e-06
8.90194e-06
7.20989e-06
2.24646e-05
1.85008e-05
1.84935e-05
9.72675e-06
2.19521e-05
2.19516e-05
2.19519e-05
2.19513e-05
9.72567e-06
3.89216e-06
1.83701e-06
9.00517e-06
5.09631e-06
3.88589e-06
1.84461e-06
9.0108e-06
3.89785e-06
1.83882e-06
9.01003e-06
5.09828e-06
3.89321e-06
1.84625e-06
9.01564e-06
9.72409e-06
2.19621e-05
2.19616e-05
9.72498e-06
2.19624e-05
2.19618e-05
3.90432e-06
9.01908e-06
5.10632e-06
1.86747e-06
1.86042e-06
9.0137e-06
3.91185e-06
3.91251e-06
9.02391e-06
5.10759e-06
1.86928e-06
1.86199e-06
9.01854e-06
3.91668e-06
1.85309e-05
1.8523e-05
1.8534e-05
1.85263e-05
9.71776e-06
2.19934e-05
2.19929e-05
2.1993e-05
2.19925e-05
9.71745e-06
3.8073e-06
1.73937e-06
8.96753e-06
5.04598e-06
3.79885e-06
8.97452e-06
1.74827e-06
3.81416e-06
1.74133e-06
8.9729e-06
5.04767e-06
3.80587e-06
8.97979e-06
1.74973e-06
9.71438e-06
2.20034e-05
2.20029e-05
9.71453e-06
2.20038e-05
2.20032e-05
3.8218e-06
8.98399e-06
5.05699e-06
1.77315e-06
8.97733e-06
3.82957e-06
1.76445e-06
3.82879e-06
8.98933e-06
5.05945e-06
1.77453e-06
8.98262e-06
3.83657e-06
1.76616e-06
1.85062e-05
1.85137e-05
1.85094e-05
1.85169e-05
9.72007e-06
2.19827e-05
2.19822e-05
9.72063e-06
2.19829e-05
2.19826e-05
3.86459e-06
1.82136e-06
5.08167e-06
9.00207e-06
8.99567e-06
1.81288e-06
3.87183e-06
3.87158e-06
1.82274e-06
5.08518e-06
9.00751e-06
9.00108e-06
1.81465e-06
3.87888e-06
3.85119e-06
8.98666e-06
1.78894e-06
5.07369e-06
3.84366e-06
8.9932e-06
1.7972e-06
3.85834e-06
8.99202e-06
1.79078e-06
5.07451e-06
3.85062e-06
8.99858e-06
1.79887e-06
9.72309e-06
2.19723e-05
2.19723e-05
2.1972e-05
2.19719e-05
9.72235e-06
1.21039e-05
3.45722e-06
1.06414e-05
4.33893e-06
1.06396e-05
4.33166e-06
1.21068e-05
2.25121e-05
7.18398e-06
8.88635e-06
2.25103e-05
7.18402e-06
1.21037e-05
3.43591e-06
1.06381e-05
4.3066e-06
1.06396e-05
1.2101e-05
4.31436e-06
2.2501e-05
7.19019e-06
8.88707e-06
7.19019e-06
2.25027e-05
1.211e-05
1.06418e-05
4.35508e-06
3.49964e-06
1.2107e-05
1.06442e-05
4.36265e-06
2.24826e-05
8.8942e-06
7.20197e-06
2.24841e-05
7.20241e-06
2.24937e-05
7.19776e-06
8.89297e-06
2.2492e-05
7.19789e-06
1.21103e-05
3.51991e-06
1.06475e-05
4.38481e-06
1.21135e-05
1.06447e-05
4.37745e-06
1.21101e-05
1.06418e-05
4.35532e-06
3.49965e-06
1.2107e-05
1.06441e-05
4.3621e-06
2.24821e-05
8.89396e-06
7.20064e-06
7.20042e-06
2.24836e-05
2.24933e-05
7.19568e-06
8.89347e-06
2.24916e-05
7.19597e-06
1.21104e-05
3.51967e-06
1.06474e-05
4.38409e-06
1.06446e-05
4.37764e-06
1.21135e-05
9.71775e-06
2.19931e-05
2.19932e-05
2.19927e-05
2.19928e-05
9.71742e-06
3.81436e-06
5.04755e-06
8.97959e-06
1.74974e-06
3.80581e-06
5.04599e-06
1.74749e-06
8.97459e-06
9.71429e-06
2.20036e-05
2.20038e-05
3.82912e-06
8.98909e-06
5.059e-06
1.77448e-06
8.98215e-06
1.7664e-06
3.83677e-06
3.82294e-06
8.98405e-06
5.05777e-06
1.77209e-06
1.76514e-06
8.97798e-06
3.82824e-06
1.85315e-05
1.85237e-05
1.85089e-05
1.85165e-05
9.72013e-06
2.19824e-05
2.19826e-05
9.72066e-06
2.19828e-05
2.19829e-05
3.87299e-06
1.82281e-06
5.08483e-06
9.00714e-06
1.81504e-06
9.00075e-06
3.8778e-06
3.86468e-06
1.82134e-06
5.08358e-06
9.00212e-06
8.99643e-06
1.81302e-06
3.87193e-06
3.85685e-06
8.99166e-06
1.79106e-06
5.07415e-06
1.79885e-06
3.85129e-06
8.99835e-06
3.85111e-06
8.98732e-06
1.78959e-06
5.07249e-06
3.84448e-06
8.99324e-06
1.79717e-06
9.72315e-06
2.19724e-05
2.19726e-05
2.19722e-05
2.19723e-05
9.72239e-06
1.85067e-05
1.85142e-05
1.21039e-05
3.45764e-06
1.06417e-05
4.33891e-06
1.06399e-05
4.33168e-06
1.21069e-05
2.25113e-05
7.18317e-06
8.88722e-06
2.25095e-05
7.18464e-06
1.21037e-05
3.43576e-06
1.06384e-05
4.30669e-06
1.06398e-05
1.2101e-05
4.31439e-06
2.25001e-05
7.19065e-06
8.88774e-06
7.18898e-06
2.25019e-05
1.21101e-05
4.35522e-06
1.06422e-05
3.4992e-06
1.21071e-05
4.36245e-06
1.06445e-05
2.2482e-05
8.89543e-06
7.20249e-06
2.24836e-05
7.2024e-06
2.24931e-05
7.19706e-06
8.89417e-06
2.24914e-05
7.197e-06
1.21104e-05
3.52028e-06
4.3844e-06
1.06478e-05
1.21135e-05
4.37754e-06
1.0645e-05
1.21101e-05
1.0642e-05
4.35534e-06
3.49961e-06
1.21071e-05
1.06444e-05
4.36205e-06
2.24813e-05
8.89452e-06
7.20052e-06
7.1997e-06
2.2483e-05
2.24925e-05
7.19475e-06
8.89401e-06
2.24908e-05
7.19589e-06
1.21105e-05
3.51982e-06
1.06477e-05
4.38399e-06
1.06449e-05
4.37776e-06
1.21136e-05
1.21032e-05
3.45832e-06
4.33826e-06
1.06415e-05
4.33206e-06
1.06398e-05
1.2106e-05
2.24986e-05
7.191e-06
8.88773e-06
7.19131e-06
2.25007e-05
1.21038e-05
3.45825e-06
1.06415e-05
4.33872e-06
1.06397e-05
4.3316e-06
1.21067e-05
2.25004e-05
7.19074e-06
8.88743e-06
7.18895e-06
2.25022e-05
1.21093e-05
4.35555e-06
1.06419e-05
3.49876e-06
1.21063e-05
4.36162e-06
1.06442e-05
2.24798e-05
8.89445e-06
7.20156e-06
7.20143e-06
2.24818e-05
2.24912e-05
7.19665e-06
8.89319e-06
2.24892e-05
7.19678e-06
1.21097e-05
3.52054e-06
4.38362e-06
1.06475e-05
4.37798e-06
1.06448e-05
1.21127e-05
1.211e-05
1.06418e-05
4.35526e-06
3.49889e-06
1.2107e-05
1.06441e-05
4.36193e-06
2.24816e-05
8.89422e-06
7.20047e-06
7.19959e-06
2.24832e-05
2.24927e-05
7.19474e-06
8.89379e-06
2.2491e-05
7.19581e-06
1.21103e-05
3.52036e-06
1.06474e-05
4.38431e-06
1.06447e-05
4.37748e-06
1.21134e-05
9.71745e-06
2.19927e-05
2.19929e-05
2.19924e-05
2.19925e-05
9.71709e-06
3.8144e-06
1.74165e-06
8.9725e-06
5.04935e-06
8.97942e-06
3.80597e-06
1.74965e-06
3.806e-06
1.73946e-06
8.96794e-06
5.04616e-06
1.74831e-06
3.79922e-06
8.97436e-06
9.71402e-06
2.20026e-05
2.20028e-05
2.2003e-05
9.71415e-06
2.20032e-05
3.82892e-06
8.98893e-06
5.05804e-06
1.77452e-06
8.98221e-06
1.76657e-06
3.8367e-06
3.8225e-06
8.98379e-06
5.05767e-06
1.77321e-06
1.76457e-06
8.97767e-06
3.82818e-06
1.85319e-05
1.85241e-05
1.85097e-05
1.85173e-05
9.71975e-06
2.19821e-05
2.19822e-05
9.72032e-06
2.19824e-05
2.19825e-05
3.87179e-06
1.82277e-06
5.08341e-06
9.00706e-06
1.81509e-06
9.00065e-06
3.87902e-06
3.86478e-06
1.82144e-06
5.0833e-06
9.00193e-06
8.99614e-06
1.81312e-06
3.87173e-06
3.85849e-06
8.99158e-06
1.79114e-06
5.07547e-06
1.7989e-06
3.85082e-06
8.99815e-06
3.85134e-06
8.98708e-06
1.78902e-06
5.07273e-06
3.84442e-06
8.99303e-06
1.79717e-06
9.72278e-06
2.19721e-05
2.19722e-05
2.19718e-05
2.19719e-05
9.72202e-06
1.85073e-05
1.85149e-05
1.21034e-05
3.45753e-06
4.33955e-06
1.06416e-05
4.33134e-06
1.06398e-05
1.21063e-05
2.25107e-05
7.18455e-06
8.88708e-06
7.18595e-06
2.25089e-05
1.21032e-05
3.43594e-06
4.30642e-06
1.06383e-05
4.31492e-06
1.21005e-05
1.06397e-05
2.24996e-05
7.19194e-06
8.88763e-06
7.19035e-06
2.25013e-05
1.21042e-05
3.4574e-06
4.33906e-06
1.06417e-05
4.33171e-06
1.06399e-05
1.21071e-05
2.25125e-05
7.18355e-06
8.88708e-06
2.25107e-05
7.18377e-06
1.2104e-05
3.43606e-06
4.3067e-06
1.06384e-05
1.21012e-05
4.31439e-06
1.06398e-05
2.25014e-05
7.19057e-06
8.88841e-06
7.19015e-06
2.25031e-05
1.21097e-05
4.35502e-06
1.0642e-05
3.49988e-06
1.21066e-05
4.36277e-06
1.06443e-05
2.24808e-05
8.89439e-06
7.20186e-06
7.20121e-06
2.24824e-05
2.24919e-05
7.1961e-06
8.8939e-06
2.24902e-05
7.19722e-06
1.211e-05
3.5201e-06
4.38472e-06
1.06476e-05
4.37733e-06
1.06449e-05
1.21131e-05
1.21104e-05
4.35535e-06
1.06421e-05
3.49996e-06
1.21074e-05
4.36224e-06
1.06444e-05
2.24826e-05
8.89521e-06
7.20052e-06
7.20077e-06
2.24842e-05
2.24937e-05
7.19537e-06
8.89394e-06
2.2492e-05
7.19518e-06
1.21107e-05
3.5198e-06
4.38416e-06
1.06478e-05
4.37773e-06
1.0645e-05
1.21139e-05
1.85329e-05
1.85251e-05
1.85347e-05
1.8527e-05
9.71986e-06
2.19827e-05
2.19821e-05
9.72037e-06
2.1983e-05
2.19824e-05
3.86586e-06
1.82123e-06
5.0831e-06
9.00243e-06
3.87086e-06
1.81323e-06
8.99608e-06
3.87282e-06
1.82276e-06
5.085e-06
9.00728e-06
3.8779e-06
1.81515e-06
9.00092e-06
3.84966e-06
8.98701e-06
1.7893e-06
5.07244e-06
3.84422e-06
1.79733e-06
8.99361e-06
3.85677e-06
8.99181e-06
1.79102e-06
5.07449e-06
3.85129e-06
1.79875e-06
8.99844e-06
9.72287e-06
2.19727e-05
2.19721e-05
9.72215e-06
2.19724e-05
2.19718e-05
1.85083e-05
1.85158e-05
1.85103e-05
1.85177e-05
1.84975e-05
1.84902e-05
1.85005e-05
1.84932e-05
9.72695e-06
2.1952e-05
2.1952e-05
2.19516e-05
2.19515e-05
9.72591e-06
3.89191e-06
1.83669e-06
9.00447e-06
5.0975e-06
3.8848e-06
9.01068e-06
1.84456e-06
3.899e-06
1.83864e-06
9.0099e-06
5.09824e-06
3.8919e-06
9.01612e-06
1.84599e-06
9.72428e-06
2.19617e-05
2.19617e-05
9.72522e-06
2.1962e-05
2.1962e-05
3.90375e-06
9.01901e-06
5.10539e-06
1.86796e-06
9.01294e-06
3.91153e-06
1.85988e-06
3.91086e-06
9.02444e-06
5.10825e-06
1.8686e-06
9.0184e-06
3.91857e-06
1.86196e-06
1.21174e-05
3.57683e-06
1.06556e-05
4.42451e-06
1.06523e-05
4.41852e-06
1.21206e-05
2.24741e-05
7.2045e-06
8.90002e-06
2.24725e-05
7.20486e-06
1.2117e-05
3.55779e-06
1.06482e-05
4.39882e-06
1.06513e-05
1.21139e-05
4.40486e-06
2.24631e-05
7.20836e-06
8.90046e-06
7.20805e-06
2.24646e-05
9.72702e-06
2.19517e-05
2.19521e-05
2.19514e-05
2.19518e-05
9.72589e-06
3.89771e-06
1.83885e-06
9.00943e-06
5.0979e-06
9.01559e-06
3.89306e-06
1.8459e-06
3.89194e-06
1.83671e-06
9.0052e-06
5.09637e-06
1.84503e-06
3.88491e-06
9.01071e-06
9.72431e-06
2.19617e-05
2.1962e-05
2.19619e-05
9.72522e-06
2.19623e-05
3.91263e-06
9.02386e-06
5.10795e-06
1.86882e-06
9.0179e-06
1.86221e-06
3.91638e-06
3.90384e-06
9.01902e-06
5.10614e-06
1.86851e-06
1.85959e-06
9.01369e-06
3.91141e-06
1.84978e-05
1.84904e-05
1.21175e-05
3.57617e-06
1.06561e-05
4.42424e-06
1.06523e-05
4.41883e-06
1.21207e-05
2.24735e-05
7.20418e-06
8.90038e-06
2.24719e-05
7.20453e-06
1.21171e-05
3.55867e-06
1.06484e-05
4.39891e-06
1.06517e-05
1.21139e-05
4.40469e-06
2.24625e-05
7.20795e-06
8.90137e-06
7.20783e-06
2.2464e-05
1.21167e-05
3.57755e-06
4.42384e-06
1.06557e-05
4.41902e-06
1.06525e-05
1.21198e-05
2.24722e-05
7.20555e-06
8.89974e-06
7.20555e-06
2.24703e-05
1.21162e-05
3.55755e-06
4.39906e-06
1.06484e-05
4.40447e-06
1.21131e-05
1.06514e-05
2.24608e-05
7.20912e-06
8.90094e-06
7.20919e-06
2.24627e-05
1.21173e-05
3.57729e-06
1.06556e-05
4.42469e-06
1.06523e-05
4.41828e-06
1.21205e-05
2.24737e-05
7.20401e-06
8.9003e-06
2.24721e-05
7.20439e-06
1.21169e-05
3.55774e-06
1.06483e-05
4.39842e-06
1.21138e-05
1.06513e-05
4.40497e-06
2.24626e-05
7.2078e-06
8.90076e-06
7.20753e-06
2.24641e-05
9.72661e-06
2.19515e-05
2.19516e-05
2.19512e-05
2.19514e-05
9.72549e-06
3.89914e-06
1.83883e-06
9.00943e-06
5.09949e-06
9.01567e-06
3.8921e-06
1.84624e-06
3.89021e-06
1.83682e-06
9.00489e-06
5.09757e-06
1.84475e-06
3.88545e-06
9.01057e-06
9.72392e-06
2.19615e-05
2.19616e-05
2.19618e-05
9.72487e-06
2.19619e-05
3.91102e-06
9.02396e-06
5.1065e-06
1.86943e-06
9.01792e-06
1.86199e-06
3.91857e-06
3.90521e-06
9.01895e-06
5.10533e-06
1.86832e-06
1.85989e-06
9.01315e-06
3.90923e-06
1.84984e-05
1.84911e-05
1.2117e-05
3.57748e-06
4.42497e-06
1.06558e-05
4.4183e-06
1.06526e-05
1.21202e-05
2.24729e-05
7.20531e-06
8.90044e-06
7.20579e-06
2.24714e-05
1.21167e-05
3.55774e-06
4.39847e-06
1.06485e-05
4.40524e-06
1.21135e-05
1.06515e-05
2.24619e-05
7.2092e-06
8.90096e-06
7.20911e-06
2.24634e-05
1.21178e-05
3.57729e-06
4.42446e-06
1.0656e-05
4.41875e-06
1.06527e-05
1.2121e-05
2.24747e-05
7.20467e-06
8.90053e-06
2.24732e-05
7.20476e-06
1.21174e-05
3.55791e-06
4.39887e-06
1.06485e-05
1.21142e-05
4.40495e-06
1.06516e-05
2.24637e-05
7.20809e-06
8.90171e-06
7.20814e-06
2.24652e-05
1.84994e-05
1.84921e-05
1.85013e-05
1.8494e-05
1.27759e-07
1.27755e-07
1.39259e-07
1.26353e-07
1.26348e-07
1.21061e-07
1.22599e-07
1.55011e-06
3.14771e-07
6.55238e-07
6.55728e-07
1.22373e-07
1.22369e-07
1.35659e-07
1.21122e-07
1.21118e-07
1.15231e-07
1.16642e-07
1.6481e-06
7.0792e-07
7.07632e-07
3.34629e-07
1.64178e-06
7.11365e-07
7.12162e-07
1.54978e-06
6.50613e-07
6.5112e-07
3.14646e-07
1.54116e-06
6.55698e-07
6.55626e-07
1.61641e-06
3.29372e-07
6.97764e-07
6.96758e-07
6.92566e-07
6.93319e-07
1.6246e-06
1.54879e-06
3.14661e-07
6.54642e-07
6.54439e-07
1.61725e-06
3.29503e-07
6.96691e-07
6.96532e-07
6.94204e-07
6.93737e-07
1.6238e-06
1.55028e-06
6.51151e-07
6.50651e-07
3.14675e-07
6.5576e-07
1.54098e-06
6.55924e-07
1.61619e-06
3.29439e-07
6.98171e-07
6.97699e-07
6.9281e-07
6.92694e-07
1.62495e-06
1.6173e-06
3.2928e-07
6.96901e-07
6.9797e-07
1.62383e-06
6.93543e-07
6.93114e-07
1.64888e-06
7.07172e-07
7.08063e-07
3.34509e-07
1.64073e-06
7.12126e-07
7.11423e-07
1.64824e-06
7.08432e-07
7.08152e-07
3.34459e-07
7.10758e-07
1.64143e-06
7.1104e-07
1.64952e-06
7.0745e-07
7.07301e-07
3.34666e-07
7.12017e-07
1.6407e-06
7.12494e-07
1.2776e-07
1.27756e-07
1.39262e-07
1.26354e-07
1.2635e-07
1.21061e-07
1.226e-07
1.27758e-07
1.27757e-07
1.39261e-07
1.26353e-07
1.26349e-07
1.21061e-07
1.22599e-07
1.2776e-07
1.27759e-07
1.39266e-07
1.26354e-07
1.26352e-07
1.21062e-07
1.226e-07
1.38279e-07
1.23661e-07
1.23657e-07
1.24988e-07
1.24984e-07
1.19556e-07
1.18083e-07
1.38284e-07
1.23662e-07
1.23657e-07
1.2499e-07
1.24985e-07
1.19556e-07
1.18083e-07
1.38283e-07
1.23661e-07
1.23657e-07
1.24989e-07
1.24986e-07
1.19556e-07
1.18083e-07
1.38286e-07
1.23662e-07
1.23659e-07
1.2499e-07
1.24988e-07
1.19557e-07
1.18084e-07
4.12111e-07
9.81576e-07
1.29403e-06
3.38877e-07
1.2878e-06
3.37176e-07
4.13946e-07
5.76492e-07
1.92551e-06
2.65474e-06
8.8892e-07
8.82872e-07
1.91766e-06
5.79594e-07
4.12031e-07
9.81535e-07
3.38912e-07
1.2944e-06
3.37237e-07
1.28773e-06
4.14228e-07
5.683e-07
8.6647e-07
1.89452e-06
2.64017e-06
5.67438e-07
8.72721e-07
1.9011e-06
4.07027e-07
9.67951e-07
3.32033e-07
1.26447e-06
4.04997e-07
3.33624e-07
1.27118e-06
5.77397e-07
1.92503e-06
2.65504e-06
8.89174e-07
8.83107e-07
1.91842e-06
5.7835e-07
1.56681e-06
3.19329e-07
6.68268e-07
6.69653e-07
6.64986e-07
6.64976e-07
1.57521e-06
1.22375e-07
1.2237e-07
1.35662e-07
1.21124e-07
1.21118e-07
1.15231e-07
1.16642e-07
1.22374e-07
1.22372e-07
1.35663e-07
1.21123e-07
1.21118e-07
1.15231e-07
1.16642e-07
1.22375e-07
1.22373e-07
1.35666e-07
1.21123e-07
1.2112e-07
1.15232e-07
1.16643e-07
4.43149e-07
1.0658e-06
1.38595e-06
3.62148e-07
1.37972e-06
3.59931e-07
4.45006e-07
6.11639e-07
9.32316e-07
1.98763e-06
2.72703e-06
6.08228e-07
9.38187e-07
1.99451e-06
4.36824e-07
1.05136e-06
1.35684e-06
3.53807e-07
4.34413e-07
1.36322e-06
3.55749e-07
6.19107e-07
2.01662e-06
2.74016e-06
9.54912e-07
9.49476e-07
2.01007e-06
6.23029e-07
4.43216e-07
1.06595e-06
3.61218e-07
1.38684e-06
3.60574e-07
1.37915e-06
4.45058e-07
6.10344e-07
9.32414e-07
1.98794e-06
2.72662e-06
6.09317e-07
9.37999e-07
1.99413e-06
4.36878e-07
1.05148e-06
3.54258e-07
1.35649e-06
4.34511e-07
3.55076e-07
1.36389e-06
6.1998e-07
2.0165e-06
2.74082e-06
9.53542e-07
9.49911e-07
2.0104e-06
6.23134e-07
1.66531e-06
3.39851e-07
7.25997e-07
7.25688e-07
7.22551e-07
7.22676e-07
1.67307e-06
1.56673e-06
3.19462e-07
6.6964e-07
6.69886e-07
1.57539e-06
6.64689e-07
6.65077e-07
1.59998e-06
3.24295e-07
6.7856e-07
6.78991e-07
1.59157e-06
6.83196e-07
6.82818e-07
4.13039e-07
9.82172e-07
1.29431e-06
3.38357e-07
1.28791e-06
3.37814e-07
4.13193e-07
5.68379e-07
8.66571e-07
1.89493e-06
2.64019e-06
1.90133e-06
5.67473e-07
8.72786e-07
4.06123e-07
9.67348e-07
1.26455e-06
3.32563e-07
1.27116e-06
4.06073e-07
3.33109e-07
5.77499e-07
1.9249e-06
2.65489e-06
8.89136e-07
1.91896e-06
8.83111e-07
5.79135e-07
4.12174e-07
9.81573e-07
1.29524e-06
3.38344e-07
1.28696e-06
3.3779e-07
4.14012e-07
5.69664e-07
8.67135e-07
1.89404e-06
2.63928e-06
5.6655e-07
1.90167e-06
8.73052e-07
4.06917e-07
9.67868e-07
1.264e-06
3.32562e-07
4.05761e-07
1.27178e-06
3.33117e-07
5.76633e-07
1.9256e-06
2.65685e-06
8.89304e-07
1.91805e-06
5.79637e-07
8.83822e-07
4.20357e-07
1.31106e-06
3.43068e-07
1.00876e-06
4.20292e-07
1.31731e-06
3.43652e-07
5.97331e-07
9.2172e-07
2.69832e-06
1.97119e-06
9.15774e-07
1.96582e-06
6.00602e-07
5.89943e-07
1.94253e-06
8.99326e-07
2.68438e-06
9.04806e-07
5.87041e-07
1.94852e-06
4.27656e-07
1.024e-06
1.34042e-06
3.493e-07
1.33412e-06
3.48665e-07
4.2875e-07
4.2142e-07
1.31022e-06
3.43045e-07
1.00943e-06
4.19233e-07
1.31816e-06
3.4365e-07
5.97442e-07
9.2209e-07
2.70048e-06
1.97188e-06
1.96462e-06
9.16625e-07
6.00689e-07
5.90127e-07
1.94163e-06
9.0003e-07
2.68402e-06
5.86922e-07
1.94892e-06
9.05177e-07
4.26668e-07
1.02345e-06
1.34105e-06
3.4927e-07
1.33331e-06
3.4863e-07
4.28833e-07
1.56753e-06
3.19426e-07
6.68411e-07
6.68407e-07
6.65429e-07
6.65968e-07
1.57423e-06
1.59938e-06
3.24062e-07
6.79878e-07
6.79447e-07
6.82614e-07
1.59237e-06
6.82432e-07
4.12469e-07
9.81718e-07
1.29511e-06
3.38877e-07
1.28708e-06
3.37204e-07
4.1293e-07
5.68411e-07
8.67142e-07
1.89494e-06
2.64077e-06
1.90146e-06
5.67579e-07
8.72942e-07
4.06103e-07
9.67747e-07
1.26406e-06
3.32037e-07
1.27171e-06
4.05805e-07
3.33587e-07
5.7753e-07
1.92535e-06
2.6555e-06
8.89323e-07
1.91889e-06
8.83523e-07
5.78471e-07
4.12452e-07
9.81549e-07
3.3886e-07
1.29419e-06
3.37239e-07
1.28785e-06
4.12715e-07
5.68318e-07
8.68001e-07
1.89395e-06
2.64096e-06
5.67449e-07
1.90088e-06
8.7203e-07
4.05952e-07
9.68032e-07
3.32047e-07
1.26455e-06
4.05084e-07
3.33594e-07
1.27104e-06
5.77447e-07
1.92431e-06
2.65564e-06
8.88495e-07
1.91852e-06
5.78395e-07
8.84359e-07
4.20275e-07
1.31033e-06
3.42516e-07
1.00938e-06
4.20237e-07
1.31816e-06
3.44205e-07
5.98419e-07
9.21948e-07
2.69953e-06
1.97152e-06
9.16103e-07
1.96567e-06
5.99517e-07
5.88645e-07
1.94256e-06
8.99873e-07
2.68447e-06
9.05453e-07
5.87824e-07
1.9485e-06
4.27547e-07
1.02355e-06
1.34088e-06
3.49875e-07
1.33344e-06
3.48075e-07
4.27989e-07
4.20275e-07
3.42631e-07
1.31093e-06
1.00935e-06
4.2005e-07
3.43794e-07
1.31731e-06
5.98382e-07
9.2141e-07
2.69904e-06
1.9714e-06
1.96528e-06
9.17186e-07
5.99429e-07
5.88629e-07
1.942e-06
9.0074e-07
2.68511e-06
5.87776e-07
1.94824e-06
9.04803e-07
4.2753e-07
1.02351e-06
3.49116e-07
1.34031e-06
3.48385e-07
1.33405e-06
4.2784e-07
4.12418e-07
9.8174e-07
3.38864e-07
1.29494e-06
3.37119e-07
1.28686e-06
4.13813e-07
5.76368e-07
1.92579e-06
2.65463e-06
8.89104e-07
8.82784e-07
1.91701e-06
5.79601e-07
4.2146e-07
1.31076e-06
3.42491e-07
1.00907e-06
4.19251e-07
1.31749e-06
3.44172e-07
5.97356e-07
9.21722e-07
2.69839e-06
1.97156e-06
6.00506e-07
9.1561e-07
1.96455e-06
5.90099e-07
1.9415e-06
8.99413e-07
2.68433e-06
5.86911e-07
9.04845e-07
1.94873e-06
4.26682e-07
1.02351e-06
1.34032e-06
3.49885e-07
4.28757e-07
1.33383e-06
3.48019e-07
4.21392e-07
3.42521e-07
1.31017e-06
1.00944e-06
4.19073e-07
3.44229e-07
1.31811e-06
5.97372e-07
9.21992e-07
2.69917e-06
1.9722e-06
1.96389e-06
9.15758e-07
6.00687e-07
5.90157e-07
1.94107e-06
8.99524e-07
2.68414e-06
5.8683e-07
1.94893e-06
9.0513e-07
4.26569e-07
1.02337e-06
3.49911e-07
1.34115e-06
3.48054e-07
1.33316e-06
4.28836e-07
1.56658e-06
3.19534e-07
6.69969e-07
6.69569e-07
6.64763e-07
6.6485e-07
1.57527e-06
1.60069e-06
3.24353e-07
6.78859e-07
6.78676e-07
6.83624e-07
1.59159e-06
6.83158e-07
4.12522e-07
9.81498e-07
3.38347e-07
1.29401e-06
3.37779e-07
1.28791e-06
4.12997e-07
5.68313e-07
8.67448e-07
1.89464e-06
2.63932e-06
8.7257e-07
5.67554e-07
1.90049e-06
4.06111e-07
9.67946e-07
3.32547e-07
1.26462e-06
3.33093e-07
4.05892e-07
1.27086e-06
5.77485e-07
1.92454e-06
2.6568e-06
8.88937e-07
8.83709e-07
1.91865e-06
5.78353e-07
4.21604e-07
3.42551e-07
1.31099e-06
1.00951e-06
4.19457e-07
3.44186e-07
1.31734e-06
5.98164e-07
9.21914e-07
2.69844e-06
1.97147e-06
5.99377e-07
9.15671e-07
1.9651e-06
5.88509e-07
1.94208e-06
8.99265e-07
2.68436e-06
5.87681e-07
9.04784e-07
1.94836e-06
4.26823e-07
1.02346e-06
3.49171e-07
1.34093e-06
4.28857e-07
3.48237e-07
1.33391e-06
4.20318e-07
3.43027e-07
1.31102e-06
1.00981e-06
4.20276e-07
3.43657e-07
1.31716e-06
5.98416e-07
9.21761e-07
2.70043e-06
1.97108e-06
1.96531e-06
9.1633e-07
5.99366e-07
5.88534e-07
1.94218e-06
9.00138e-07
2.68408e-06
5.87794e-07
1.94799e-06
9.05401e-07
4.27584e-07
1.02325e-06
3.49241e-07
1.34018e-06
3.4861e-07
1.33412e-06
4.27846e-07
1.59894e-06
3.24296e-07
6.7915e-07
6.79133e-07
1.59217e-06
6.82482e-07
6.83467e-07
1.66436e-06
3.40107e-07
7.27156e-07
7.25935e-07
1.67291e-06
7.21578e-07
7.22735e-07
4.43084e-07
1.06646e-06
1.38645e-06
3.61248e-07
1.37955e-06
3.60607e-07
4.44842e-07
6.11696e-07
9.32658e-07
1.98843e-06
2.72653e-06
1.99466e-06
6.0833e-07
9.37922e-07
4.36653e-07
1.05098e-06
1.35713e-06
3.54487e-07
1.36357e-06
4.34661e-07
3.55217e-07
6.19067e-07
2.01749e-06
2.7406e-06
9.55156e-07
2.01017e-06
9.49435e-07
6.23117e-07
4.42996e-07
1.06589e-06
1.38584e-06
3.61242e-07
1.37942e-06
3.60602e-07
4.44795e-07
6.11798e-07
9.33307e-07
1.98781e-06
2.72613e-06
6.08478e-07
1.99391e-06
9.38476e-07
4.36667e-07
1.05138e-06
1.3565e-06
3.54462e-07
4.34362e-07
1.36363e-06
3.55208e-07
6.19196e-07
2.01611e-06
2.74192e-06
9.55549e-07
2.01051e-06
6.23164e-07
9.50074e-07
1.6655e-06
3.40221e-07
7.2547e-07
7.25174e-07
7.22828e-07
7.23173e-07
1.67117e-06
4.42652e-07
1.06607e-06
1.38626e-06
3.60959e-07
1.37954e-06
3.60173e-07
4.44702e-07
6.11634e-07
9.33304e-07
1.98842e-06
2.72604e-06
1.99434e-06
6.09014e-07
9.37633e-07
4.35658e-07
1.05129e-06
1.35657e-06
3.53992e-07
1.36356e-06
4.35005e-07
3.55487e-07
6.19467e-07
2.01686e-06
2.7419e-06
9.54918e-07
2.01075e-06
9.50376e-07
6.23256e-07
4.43877e-07
1.06552e-06
3.61193e-07
1.38677e-06
3.60552e-07
1.37954e-06
4.43448e-07
6.10251e-07
9.33822e-07
1.98809e-06
2.72765e-06
6.09312e-07
1.99404e-06
9.38112e-07
4.35354e-07
1.05174e-06
3.54363e-07
1.35703e-06
4.35185e-07
3.55112e-07
1.36347e-06
6.20606e-07
2.01588e-06
2.7406e-06
9.54689e-07
2.01072e-06
6.20979e-07
9.50672e-07
4.42919e-07
1.06601e-06
3.60985e-07
1.38579e-06
3.60163e-07
1.37933e-06
4.44727e-07
6.11492e-07
9.32614e-07
1.98706e-06
2.72558e-06
9.38661e-07
6.08308e-07
1.99473e-06
4.36624e-07
1.05109e-06
3.54002e-07
1.35627e-06
3.55426e-07
4.34267e-07
1.36346e-06
6.19629e-07
2.01739e-06
2.74149e-06
9.55851e-07
9.49143e-07
2.00927e-06
6.20584e-07
1.66405e-06
3.40041e-07
7.27433e-07
7.2706e-07
7.21714e-07
7.2186e-07
1.67306e-06
4.4388e-07
1.06552e-06
3.62047e-07
1.38653e-06
3.60153e-07
1.37943e-06
4.4344e-07
6.11642e-07
9.33223e-07
1.98801e-06
2.72761e-06
9.38538e-07
6.08945e-07
1.99464e-06
4.35375e-07
1.05173e-06
3.54441e-07
1.35704e-06
3.55418e-07
4.35215e-07
1.36361e-06
6.19419e-07
2.01707e-06
2.74068e-06
9.55451e-07
9.49936e-07
2.00969e-06
6.23235e-07
4.99174e-07
4.99993e-07
4.99991e-07
4.99913e-07
4.45593e-07
4.54285e-07
4.54278e-07
4.63959e-07
4.03817e-07
4.18925e-07
4.18922e-07
4.39697e-07
3.6844e-07
3.88845e-07
3.88847e-07
4.17801e-07
3.38085e-07
3.62289e-07
3.62291e-07
3.96019e-07
3.11701e-07
3.38366e-07
3.38373e-07
3.74402e-07
2.88508e-07
3.16653e-07
3.16661e-07
3.53463e-07
2.67936e-07
2.96974e-07
2.96977e-07
3.33847e-07
2.49571e-07
2.79267e-07
2.79267e-07
3.1611e-07
2.33106e-07
2.6353e-07
2.63528e-07
3.00663e-07
2.18316e-07
2.49767e-07
2.49765e-07
2.87903e-07
2.05024e-07
2.37974e-07
2.37973e-07
2.78079e-07
1.93089e-07
2.28154e-07
2.28151e-07
2.71125e-07
1.824e-07
2.20311e-07
2.20307e-07
2.67515e-07
1.72866e-07
2.14449e-07
2.14445e-07
2.66983e-07
1.64412e-07
2.1058e-07
2.10577e-07
2.69794e-07
1.56976e-07
2.08711e-07
2.08707e-07
2.75926e-07
1.50505e-07
2.0885e-07
2.08847e-07
2.85321e-07
1.44955e-07
2.11053e-07
2.11053e-07
2.98154e-07
2.1533e-07
3.14539e-07
5.06191e-07
5.05569e-07
5.05567e-07
5.06197e-07
5.05568e-07
5.0557e-07
5.05986e-07
5.05985e-07
5.05985e-07
5.05983e-07
5.0557e-07
5.05564e-07
5.06202e-07
5.05569e-07
5.05562e-07
5.06194e-07
4.99934e-07
4.67487e-07