/*--------------------------------*- C++ -*----------------------------------*\
| =========                 |                                                 |
| \\      /  F ield         | OpenFOAM: The Open Source CFD Toolbox           |
|  \\    /   O peration     | Version:  2312                                  |
|   \\  /    A nd           | Website:  www.openfoam.com                      |
|    \\/     M anipulation  |                                                 |
\*---------------------------------------------------------------------------*/
FoamFile
{
    version     2.0;
    format      ascii;
    arch        "LSB;label=32;scalar=64";
    class       volScalarField;
    location    "250";
    object      k;
}
// * * * * * * * * * * * * * * * * * * * * * * * * * * * * * * * * * * * * * //

dimensions      [0 2 -2 0 0 0 0];

internalField   nonuniform List<scalar> 
43008
(
1.57094e-05
1.61146e-05
1.52898e-05
1.60655e-05
1.6066e-05
1.76033e-05
1.72524e-05
1.75298e-05
1.61143e-05
1.61145e-05
1.60671e-05
1.60674e-05
1.75289e-05
1.61147e-05
1.6114e-05
1.60675e-05
1.6067e-05
1.60671e-05
1.60672e-05
1.72531e-05
1.75318e-05
1.6115e-05
1.60674e-05
1.60677e-05
1.75296e-05
1.76025e-05
1.60657e-05
1.6066e-05
1.76019e-05
1.60662e-05
1.60659e-05
1.60658e-05
1.76052e-05
1.60664e-05
5.00991e-05
6.99063e-05
4.93396e-05
6.99398e-05
6.97739e-05
5.01004e-05
6.99071e-05
4.93387e-05
6.99408e-05
1.57094e-05
1.5709e-05
1.57095e-05
1.539e-05
1.53899e-05
1.53896e-05
1.539e-05
2.60108e-05
1.60919e-05
4.29416e-05
1.53531e-05
6.97979e-05
6.97739e-05
2.60152e-05
1.5437e-05
4.24557e-05
1.60919e-05
2.54941e-05
1.53528e-05
4.29359e-05
1.73497e-05
5.77585e-05
5.77706e-05
5.19482e-05
6.99773e-05
5.12847e-05
7.00086e-05
6.97135e-05
6.96915e-05
5.1949e-05
6.99784e-05
5.12833e-05
7.00097e-05
1.52899e-05
1.52896e-05
1.52899e-05
2.76586e-05
4.38822e-05
1.5127e-05
1.60679e-05
2.71092e-05
4.43359e-05
1.50594e-05
6.97134e-05
6.96913e-05
2.76631e-05
1.51269e-05
4.38875e-05
1.60685e-05
2.71116e-05
1.50594e-05
4.43362e-05
5.83123e-05
5.83228e-05
1.77344e-05
5.85684e-05
5.85788e-05
6.97962e-05
6.97723e-05
6.97983e-05
6.97747e-05
5.74675e-05
5.74811e-05
1.73464e-05
5.7761e-05
5.77743e-05
6.97301e-05
6.9753e-05
6.97327e-05
6.97554e-05
1.74106e-05
5.81797e-05
5.81918e-05
5.79046e-05
5.79183e-05
5.0099e-05
6.99023e-05
4.93391e-05
6.99341e-05
2.60216e-05
4.24494e-05
1.54372e-05
1.60916e-05
2.549e-05
4.29397e-05
1.5353e-05
2.60178e-05
4.24596e-05
1.54372e-05
1.60919e-05
2.54921e-05
4.29425e-05
1.5353e-05
5.03459e-05
6.9975e-05
6.99426e-05
5.10582e-05
5.03453e-05
6.9969e-05
6.99406e-05
5.10579e-05
2.62869e-05
1.60784e-05
4.36531e-05
1.51978e-05
4.3181e-05
1.52737e-05
2.68341e-05
2.62909e-05
1.60787e-05
4.36505e-05
1.51979e-05
4.31891e-05
1.52738e-05
2.68339e-05
1.73489e-05
5.77688e-05
5.77634e-05
6.97718e-05
6.9732e-05
6.97549e-05
1.74096e-05
5.8187e-05
5.81811e-05
5.79138e-05
5.79066e-05
6.97298e-05
6.97523e-05
2.60179e-05
4.24546e-05
1.5437e-05
1.6092e-05
2.54917e-05
4.29464e-05
1.53529e-05
5.00998e-05
6.99046e-05
4.93388e-05
6.9934e-05
2.60197e-05
1.54366e-05
4.24547e-05
1.60913e-05
2.54906e-05
1.53525e-05
4.29425e-05
5.03449e-05
6.99759e-05
6.99435e-05
5.10593e-05
2.62903e-05
1.60789e-05
4.36579e-05
1.51979e-05
4.31844e-05
1.52737e-05
2.68337e-05
5.03449e-05
6.99693e-05
6.99407e-05
5.10588e-05
2.62885e-05
1.60784e-05
1.51974e-05
4.36592e-05
1.52733e-05
4.31858e-05
2.68354e-05
5.00832e-05
6.99376e-05
2.60161e-05
1.60918e-05
1.5353e-05
4.29334e-05
5.00925e-05
6.99336e-05
2.62889e-05
1.60785e-05
4.36524e-05
1.51979e-05
4.31779e-05
1.52737e-05
2.6825e-05
5.03529e-05
6.99725e-05
6.99402e-05
5.10439e-05
2.62878e-05
1.60786e-05
1.51979e-05
4.36464e-05
1.52738e-05
4.31826e-05
2.68286e-05
5.03474e-05
6.99687e-05
6.99405e-05
5.10525e-05
5.74769e-05
5.74708e-05
1.73503e-05
5.77689e-05
5.77629e-05
6.97964e-05
6.97726e-05
6.97319e-05
6.9755e-05
1.74123e-05
5.81866e-05
5.81808e-05
5.79134e-05
5.79073e-05
6.97307e-05
6.97535e-05
2.60142e-05
1.54371e-05
4.24519e-05
1.60923e-05
2.54931e-05
1.53529e-05
4.29448e-05
5.00931e-05
6.99076e-05
4.9347e-05
6.9937e-05
5.00922e-05
6.99028e-05
4.93458e-05
6.99366e-05
2.62918e-05
1.60787e-05
1.51977e-05
4.3647e-05
1.52736e-05
4.31842e-05
2.68276e-05
2.62904e-05
1.60791e-05
1.51978e-05
4.36569e-05
1.52736e-05
4.31817e-05
2.6828e-05
5.03534e-05
6.99721e-05
6.99438e-05
5.10516e-05
5.03523e-05
6.99717e-05
6.99392e-05
5.10509e-05
6.97725e-05
6.97744e-05
1.74108e-05
5.81772e-05
5.81882e-05
5.7903e-05
5.79143e-05
6.97306e-05
6.97534e-05
6.97325e-05
6.97552e-05
6.97115e-05
6.96897e-05
6.9714e-05
6.96923e-05
5.83141e-05
5.83272e-05
1.77417e-05
5.85712e-05
5.85833e-05
5.19471e-05
6.99754e-05
5.12836e-05
7.00029e-05
2.76649e-05
4.38841e-05
1.5127e-05
1.60681e-05
2.71075e-05
4.43345e-05
1.50594e-05
2.7663e-05
4.38932e-05
1.51272e-05
1.60685e-05
2.71088e-05
4.43387e-05
1.50596e-05
5.83219e-05
5.8315e-05
1.7743e-05
5.85781e-05
5.85722e-05
6.97108e-05
6.96891e-05
2.76663e-05
4.38901e-05
1.51271e-05
1.60687e-05
2.71086e-05
4.43389e-05
1.50596e-05
5.19486e-05
6.99749e-05
5.12829e-05
7.00042e-05
2.76647e-05
1.51268e-05
4.38864e-05
1.60684e-05
2.71073e-05
1.50592e-05
4.43421e-05
5.19355e-05
6.9975e-05
5.12908e-05
7.00061e-05
2.76598e-05
1.5127e-05
4.38873e-05
1.60682e-05
2.71093e-05
1.50595e-05
4.43322e-05
5.1943e-05
6.99752e-05
5.12856e-05
7.00025e-05
5.83218e-05
5.83157e-05
1.77444e-05
5.85778e-05
5.85726e-05
6.97121e-05
6.96901e-05
2.76589e-05
1.51269e-05
4.3885e-05
1.60688e-05
2.71108e-05
1.50594e-05
4.43422e-05
5.19417e-05
6.99785e-05
5.12923e-05
7.00063e-05
5.19407e-05
6.99742e-05
5.1291e-05
7.00056e-05
6.9712e-05
6.96901e-05
6.97138e-05
6.96918e-05
6.97457e-05
4.98511e-05
6.90336e-05
5.70709e-05
6.90258e-05
5.6852e-05
6.97568e-05
7.11557e-05
7.30009e-05
6.99218e-05
7.11518e-05
7.31112e-05
6.97449e-05
4.95938e-05
6.90192e-05
5.64687e-05
6.97344e-05
6.90255e-05
5.66936e-05
7.11321e-05
7.32599e-05
6.99247e-05
7.31552e-05
7.11359e-05
6.97956e-05
6.97762e-05
6.9746e-05
4.98502e-05
5.70695e-05
6.90344e-05
5.68501e-05
6.90266e-05
6.97571e-05
7.11552e-05
7.29965e-05
6.99229e-05
7.11513e-05
7.31085e-05
6.97452e-05
4.95951e-05
5.64667e-05
6.902e-05
6.97347e-05
5.66923e-05
6.90263e-05
7.11315e-05
7.32567e-05
6.99254e-05
7.31495e-05
7.11354e-05
6.97954e-05
6.97763e-05
8.65134e-05
7.26175e-05
7.26111e-05
7.26167e-05
7.26104e-05
8.66073e-05
5.44798e-05
5.75385e-05
3.58138e-05
6.84889e-05
5.45482e-05
5.75507e-05
3.58303e-05
6.85003e-05
8.64613e-05
7.26401e-05
7.26338e-05
5.47244e-05
6.85369e-05
5.76881e-05
3.62442e-05
3.61012e-05
6.85057e-05
5.48348e-05
5.4793e-05
6.85486e-05
5.76994e-05
3.62596e-05
3.61239e-05
6.85172e-05
5.49025e-05
6.97975e-05
5.17279e-05
6.9095e-05
5.84328e-05
6.90804e-05
5.82367e-05
6.98098e-05
7.10758e-05
7.35687e-05
6.99918e-05
7.10724e-05
7.36617e-05
6.97962e-05
5.15118e-05
6.90628e-05
5.79121e-05
6.9784e-05
6.90763e-05
5.81137e-05
7.10524e-05
7.37821e-05
6.99944e-05
7.36967e-05
7.10557e-05
6.97116e-05
6.96932e-05
6.97977e-05
5.17268e-05
5.84318e-05
6.90955e-05
5.82347e-05
6.90813e-05
6.98099e-05
7.10756e-05
7.35689e-05
6.99931e-05
7.10721e-05
7.36598e-05
6.97963e-05
5.15127e-05
5.791e-05
6.90635e-05
6.97841e-05
5.81125e-05
6.90769e-05
7.10521e-05
7.37802e-05
6.99953e-05
7.36921e-05
7.10555e-05
6.97114e-05
6.96932e-05
8.70554e-05
7.25268e-05
7.25205e-05
7.25262e-05
7.252e-05
8.71362e-05
5.5837e-05
3.73702e-05
6.86423e-05
5.83761e-05
5.57372e-05
3.75034e-05
6.86737e-05
5.59058e-05
3.73908e-05
6.86539e-05
5.83866e-05
5.58047e-05
3.75222e-05
6.86856e-05
8.70124e-05
7.25488e-05
7.25425e-05
8.69278e-05
7.25494e-05
7.25431e-05
5.6055e-05
6.87163e-05
5.8507e-05
3.79145e-05
3.7782e-05
6.86853e-05
5.61529e-05
5.61222e-05
6.8728e-05
5.85165e-05
3.79349e-05
3.7802e-05
6.86971e-05
5.62207e-05
6.97941e-05
6.97744e-05
6.97961e-05
6.97768e-05
8.6517e-05
7.26186e-05
7.26123e-05
7.26178e-05
7.26115e-05
8.6613e-05
5.44799e-05
3.56707e-05
6.84567e-05
5.75414e-05
5.43668e-05
6.84891e-05
3.58107e-05
5.45519e-05
3.56926e-05
6.84687e-05
5.75544e-05
5.44304e-05
6.8502e-05
3.58291e-05
8.64658e-05
7.26404e-05
7.26341e-05
8.63676e-05
7.26413e-05
7.2635e-05
5.47252e-05
6.85374e-05
5.76893e-05
3.62401e-05
6.85061e-05
5.48335e-05
3.61029e-05
5.47894e-05
6.85502e-05
5.77035e-05
3.62588e-05
6.85183e-05
5.49041e-05
3.6124e-05
6.9732e-05
6.9751e-05
6.97345e-05
6.97535e-05
8.67529e-05
7.25951e-05
7.25888e-05
8.66616e-05
7.25958e-05
7.25896e-05
5.54091e-05
3.70855e-05
5.81125e-05
6.86294e-05
6.86001e-05
3.69525e-05
5.55131e-05
5.54774e-05
3.71053e-05
5.81262e-05
6.8642e-05
6.86129e-05
3.69735e-05
5.55796e-05
5.5177e-05
6.85539e-05
3.65298e-05
5.79743e-05
5.5073e-05
6.85842e-05
3.66669e-05
5.52454e-05
6.85663e-05
3.65509e-05
5.79868e-05
5.51385e-05
6.85969e-05
3.66849e-05
8.67989e-05
7.25731e-05
7.25669e-05
7.25724e-05
7.25662e-05
8.68885e-05
6.97443e-05
4.98506e-05
6.90332e-05
5.70678e-05
6.90255e-05
5.68466e-05
6.97555e-05
7.11532e-05
7.29829e-05
6.99173e-05
7.11494e-05
7.30861e-05
6.97436e-05
4.95937e-05
6.90189e-05
5.64632e-05
6.90252e-05
6.97331e-05
5.66906e-05
7.11297e-05
7.32342e-05
6.99228e-05
7.31362e-05
7.11334e-05
6.97695e-05
6.90351e-05
5.72201e-05
5.05873e-05
6.97578e-05
6.9045e-05
5.74331e-05
7.10925e-05
6.99601e-05
7.35356e-05
7.1096e-05
7.34401e-05
7.1116e-05
7.32991e-05
6.99576e-05
7.11123e-05
7.34005e-05
6.97707e-05
5.08238e-05
6.90594e-05
5.77806e-05
6.97827e-05
6.90476e-05
5.75734e-05
6.97681e-05
6.90348e-05
5.72147e-05
5.05871e-05
6.97565e-05
6.90447e-05
5.74299e-05
7.10901e-05
6.99583e-05
7.35088e-05
7.34218e-05
7.10935e-05
7.11135e-05
7.32826e-05
6.99517e-05
7.111e-05
7.33748e-05
6.97693e-05
5.0823e-05
6.90591e-05
5.77769e-05
6.90473e-05
5.75679e-05
6.97813e-05
8.65144e-05
7.26126e-05
7.26176e-05
7.26117e-05
7.26168e-05
8.66149e-05
5.45495e-05
5.7549e-05
6.84995e-05
3.58308e-05
5.44842e-05
5.75433e-05
3.58115e-05
6.84911e-05
8.64681e-05
7.26352e-05
7.26403e-05
5.47929e-05
6.8548e-05
5.76989e-05
3.6261e-05
6.85176e-05
3.61248e-05
5.49023e-05
5.47189e-05
6.85394e-05
5.7692e-05
3.62431e-05
3.61008e-05
6.85046e-05
5.48387e-05
6.97933e-05
6.97735e-05
6.97339e-05
6.97528e-05
8.67551e-05
7.25891e-05
7.25941e-05
8.66583e-05
7.25899e-05
7.25949e-05
5.54776e-05
3.71066e-05
5.81213e-05
6.86403e-05
3.69737e-05
6.86115e-05
5.55806e-05
5.54056e-05
3.7087e-05
5.81141e-05
6.86312e-05
6.85986e-05
3.69488e-05
5.55136e-05
5.52459e-05
6.85651e-05
3.65514e-05
5.79816e-05
3.6687e-05
5.51405e-05
6.85949e-05
5.51803e-05
6.85524e-05
3.65269e-05
5.79761e-05
5.50664e-05
6.85861e-05
3.66687e-05
8.67964e-05
7.25673e-05
7.25722e-05
7.25665e-05
7.25715e-05
8.68896e-05
6.97314e-05
6.97506e-05
6.97441e-05
4.98502e-05
6.90337e-05
5.70653e-05
6.9026e-05
5.68469e-05
6.97553e-05
7.11522e-05
7.29804e-05
6.99161e-05
7.11483e-05
7.30839e-05
6.97434e-05
4.95946e-05
6.90194e-05
5.64635e-05
6.90256e-05
6.97329e-05
5.66884e-05
7.11286e-05
7.32327e-05
6.99228e-05
7.31306e-05
7.11324e-05
6.97697e-05
5.72181e-05
6.90358e-05
5.05884e-05
6.97581e-05
5.74316e-05
6.90458e-05
7.10919e-05
6.9961e-05
7.35318e-05
7.10956e-05
7.34346e-05
7.11155e-05
7.32966e-05
6.99585e-05
7.11118e-05
7.33986e-05
6.97709e-05
5.08227e-05
5.77792e-05
6.90602e-05
6.97828e-05
5.75713e-05
6.90482e-05
6.9768e-05
6.90353e-05
5.72149e-05
5.05879e-05
6.97563e-05
6.90452e-05
5.74273e-05
7.1089e-05
6.99582e-05
7.35103e-05
7.34127e-05
7.10925e-05
7.11125e-05
7.32731e-05
6.99519e-05
7.11088e-05
7.33766e-05
6.97692e-05
5.08226e-05
6.90596e-05
5.77745e-05
6.90478e-05
5.75682e-05
6.97812e-05
6.97434e-05
4.98585e-05
5.70485e-05
6.90328e-05
5.686e-05
6.90251e-05
6.97544e-05
7.1128e-05
7.3243e-05
6.99222e-05
7.31452e-05
7.11323e-05
6.97443e-05
4.98526e-05
6.90332e-05
5.70626e-05
6.90254e-05
5.68472e-05
6.97554e-05
7.11297e-05
7.32275e-05
6.99227e-05
7.31366e-05
7.11333e-05
6.97671e-05
5.72274e-05
6.90343e-05
5.05722e-05
6.97556e-05
5.74113e-05
6.90443e-05
7.10882e-05
6.99577e-05
7.35176e-05
7.34315e-05
7.10924e-05
7.11124e-05
7.32925e-05
6.99552e-05
7.11081e-05
7.33831e-05
6.97684e-05
5.08303e-05
5.77596e-05
6.90587e-05
5.75799e-05
6.90467e-05
6.97802e-05
6.97681e-05
6.90346e-05
5.72151e-05
5.05811e-05
6.97564e-05
6.90447e-05
5.74247e-05
7.109e-05
6.99582e-05
7.3503e-05
7.3419e-05
7.10934e-05
7.11134e-05
7.328e-05
6.99514e-05
7.11099e-05
7.3369e-05
6.97693e-05
5.08251e-05
6.90592e-05
5.77722e-05
6.90471e-05
5.75683e-05
6.97812e-05
8.65129e-05
7.26124e-05
7.2618e-05
7.26117e-05
7.26172e-05
8.66112e-05
5.45529e-05
3.56906e-05
6.84674e-05
5.75496e-05
6.85003e-05
5.44322e-05
3.58345e-05
5.44803e-05
3.56738e-05
6.84556e-05
5.75432e-05
3.58117e-05
5.43684e-05
6.84914e-05
8.64652e-05
7.26343e-05
7.26398e-05
7.26351e-05
8.63626e-05
7.26407e-05
5.47907e-05
6.85486e-05
5.76989e-05
3.62638e-05
6.85168e-05
3.61227e-05
5.49077e-05
5.47261e-05
6.85396e-05
5.76928e-05
3.62415e-05
3.61054e-05
6.85051e-05
5.48351e-05
6.97941e-05
6.97748e-05
6.9734e-05
6.97527e-05
8.6751e-05
7.2589e-05
7.25945e-05
8.66575e-05
7.25897e-05
7.25952e-05
5.54757e-05
3.71106e-05
5.81211e-05
6.86404e-05
3.69725e-05
6.86112e-05
5.55845e-05
5.54106e-05
3.70901e-05
5.81151e-05
6.86315e-05
6.85987e-05
3.69531e-05
5.55148e-05
5.52514e-05
6.85648e-05
3.65504e-05
5.79816e-05
3.66894e-05
5.51381e-05
6.85953e-05
5.51797e-05
6.85527e-05
3.65326e-05
5.79757e-05
5.50734e-05
6.85863e-05
3.66678e-05
8.67963e-05
7.2567e-05
7.25725e-05
7.25663e-05
7.25718e-05
8.68849e-05
6.97326e-05
6.97515e-05
6.97447e-05
4.98586e-05
5.70669e-05
6.90333e-05
5.68533e-05
6.90255e-05
6.97559e-05
7.11541e-05
7.29953e-05
6.99189e-05
7.31013e-05
7.11503e-05
6.97438e-05
4.95879e-05
5.64701e-05
6.90189e-05
5.66898e-05
6.97333e-05
6.9025e-05
7.11306e-05
7.325e-05
6.99258e-05
7.31469e-05
7.11343e-05
6.97443e-05
4.98574e-05
5.70649e-05
6.90332e-05
5.68471e-05
6.90254e-05
6.97556e-05
7.11537e-05
7.29812e-05
6.99185e-05
7.11498e-05
7.30851e-05
6.97435e-05
4.95871e-05
5.64638e-05
6.90188e-05
6.97329e-05
5.66877e-05
6.9025e-05
7.11302e-05
7.32353e-05
6.99212e-05
7.31293e-05
7.1134e-05
6.97686e-05
5.7221e-05
6.90349e-05
5.05811e-05
6.9757e-05
5.7429e-05
6.90449e-05
7.10911e-05
6.99614e-05
7.35261e-05
7.34325e-05
7.10945e-05
7.11144e-05
7.32936e-05
6.99548e-05
7.11109e-05
7.33922e-05
6.97699e-05
5.08314e-05
5.77765e-05
6.90595e-05
5.7574e-05
6.90475e-05
6.97819e-05
6.97683e-05
5.72153e-05
6.90348e-05
5.05802e-05
6.97565e-05
5.74272e-05
6.90448e-05
7.10907e-05
6.99567e-05
7.35115e-05
7.34131e-05
7.10942e-05
7.11142e-05
7.32772e-05
6.99544e-05
7.11105e-05
7.33778e-05
6.97695e-05
5.08301e-05
5.77747e-05
6.90592e-05
5.75684e-05
6.90474e-05
6.97815e-05
6.9794e-05
6.97747e-05
6.97958e-05
6.97764e-05
8.67484e-05
7.25941e-05
7.25878e-05
8.66564e-05
7.25948e-05
7.25884e-05
5.54096e-05
3.70869e-05
5.81112e-05
6.86293e-05
5.55129e-05
3.69513e-05
6.85995e-05
5.54777e-05
3.71075e-05
5.81221e-05
6.86411e-05
5.55821e-05
3.69733e-05
6.86111e-05
5.51795e-05
6.85533e-05
3.65277e-05
5.79715e-05
5.50715e-05
3.66681e-05
6.85838e-05
5.52483e-05
6.85651e-05
3.65513e-05
5.7983e-05
5.51403e-05
3.66863e-05
6.85954e-05
8.67945e-05
7.25721e-05
7.25658e-05
8.68835e-05
7.25714e-05
7.25651e-05
6.97325e-05
6.97513e-05
6.97343e-05
6.97533e-05
6.97097e-05
6.96914e-05
6.97123e-05
6.96938e-05
8.70594e-05
7.25279e-05
7.25218e-05
7.25272e-05
7.25211e-05
8.71421e-05
5.58366e-05
3.73696e-05
6.86448e-05
5.83786e-05
5.5736e-05
6.86729e-05
3.75005e-05
5.59032e-05
3.73896e-05
6.86575e-05
5.83907e-05
5.58052e-05
6.86857e-05
3.75234e-05
8.70179e-05
7.25498e-05
7.25435e-05
8.69313e-05
7.25504e-05
7.25442e-05
5.60536e-05
6.87151e-05
5.85089e-05
3.79118e-05
6.86881e-05
5.61519e-05
3.77812e-05
5.61233e-05
6.8728e-05
5.85216e-05
3.79325e-05
6.87008e-05
5.62196e-05
3.77999e-05
6.97961e-05
5.17272e-05
6.90952e-05
5.84289e-05
6.90797e-05
5.82313e-05
6.98084e-05
7.10734e-05
7.3554e-05
6.99862e-05
7.10702e-05
7.36353e-05
6.97948e-05
5.15111e-05
6.90625e-05
5.79066e-05
6.9076e-05
6.97826e-05
5.81098e-05
7.10502e-05
7.37565e-05
6.99924e-05
7.36784e-05
7.10534e-05
8.70573e-05
7.2522e-05
7.2527e-05
7.25213e-05
7.25263e-05
8.71424e-05
5.59046e-05
3.73906e-05
6.86558e-05
5.83855e-05
6.8684e-05
5.58046e-05
3.75217e-05
5.58382e-05
3.73679e-05
6.86433e-05
5.83798e-05
3.75039e-05
5.57338e-05
6.86749e-05
8.70188e-05
7.25439e-05
7.25488e-05
7.25445e-05
8.69286e-05
7.25495e-05
5.61226e-05
6.87267e-05
5.85163e-05
3.79314e-05
6.86987e-05
3.78027e-05
5.62197e-05
5.60517e-05
6.87171e-05
5.85095e-05
3.79107e-05
3.7779e-05
6.86864e-05
5.61531e-05
6.97093e-05
6.96906e-05
6.9796e-05
5.17264e-05
6.90949e-05
5.8427e-05
6.90811e-05
5.82316e-05
6.98083e-05
7.10725e-05
7.35448e-05
6.99868e-05
7.10691e-05
7.36383e-05
6.97947e-05
5.15125e-05
6.90632e-05
5.79071e-05
6.90762e-05
6.97825e-05
5.81077e-05
7.10491e-05
7.37589e-05
6.99903e-05
7.36701e-05
7.10525e-05
6.97952e-05
5.17339e-05
5.84141e-05
6.90947e-05
5.82418e-05
6.90792e-05
6.98073e-05
7.10723e-05
7.35645e-05
6.99894e-05
7.36445e-05
7.10683e-05
6.97937e-05
5.14982e-05
5.79178e-05
6.90619e-05
5.80936e-05
6.97816e-05
6.90757e-05
7.10482e-05
7.37662e-05
6.99919e-05
7.36883e-05
7.10522e-05
6.97961e-05
5.17291e-05
6.90949e-05
5.84251e-05
6.90797e-05
5.82316e-05
6.98083e-05
7.10733e-05
7.35498e-05
6.99858e-05
7.107e-05
7.36304e-05
6.97947e-05
5.15062e-05
6.90622e-05
5.79071e-05
6.97825e-05
6.90761e-05
5.81056e-05
7.10499e-05
7.37514e-05
6.99921e-05
7.36753e-05
7.10531e-05
8.7056e-05
7.25217e-05
7.25272e-05
7.25211e-05
7.25266e-05
8.7138e-05
5.59096e-05
3.73892e-05
6.86558e-05
5.83853e-05
6.8684e-05
5.58035e-05
3.75256e-05
5.58401e-05
3.73685e-05
6.86433e-05
5.83798e-05
3.75052e-05
5.57354e-05
6.8675e-05
8.70137e-05
7.25437e-05
7.25491e-05
7.25443e-05
8.69289e-05
7.25498e-05
5.61206e-05
6.87265e-05
5.85162e-05
3.79357e-05
6.86989e-05
3.7801e-05
5.62242e-05
5.6052e-05
6.87161e-05
5.85097e-05
3.79127e-05
3.77804e-05
6.86874e-05
5.6155e-05
6.97102e-05
6.96919e-05
6.97969e-05
5.17356e-05
5.8429e-05
6.90962e-05
5.82366e-05
6.90797e-05
6.98092e-05
7.10745e-05
7.35632e-05
6.99892e-05
7.36532e-05
7.10712e-05
6.97955e-05
5.15053e-05
5.79123e-05
6.90626e-05
5.81096e-05
6.97833e-05
6.90767e-05
7.10512e-05
7.37741e-05
6.99952e-05
7.36878e-05
7.10544e-05
6.97964e-05
5.17346e-05
5.84271e-05
6.90957e-05
5.82317e-05
6.90799e-05
6.98088e-05
7.10742e-05
7.35463e-05
6.99889e-05
7.10708e-05
7.36392e-05
6.97951e-05
5.15041e-05
5.79071e-05
6.90627e-05
6.97828e-05
5.81079e-05
6.90763e-05
7.10508e-05
7.37596e-05
6.99912e-05
7.36712e-05
7.10541e-05
6.97101e-05
6.96918e-05
6.9712e-05
6.96935e-05
1.59851e-05
1.59852e-05
1.55997e-05
1.58586e-05
1.58587e-05
1.62831e-05
1.64154e-05
3.44295e-05
1.72708e-05
2.26332e-05
2.26277e-05
1.54939e-05
1.5494e-05
1.51923e-05
1.53768e-05
1.53769e-05
1.57727e-05
1.58977e-05
3.61848e-05
2.36688e-05
2.36871e-05
1.76322e-05
3.60577e-05
2.37641e-05
2.37556e-05
3.44345e-05
2.25532e-05
2.25654e-05
1.72702e-05
3.42854e-05
2.2639e-05
2.26294e-05
3.56229e-05
1.7503e-05
2.34611e-05
2.34629e-05
2.339e-05
2.3397e-05
3.575e-05
3.44386e-05
1.72697e-05
2.26404e-05
2.26498e-05
3.5613e-05
1.75007e-05
2.34846e-05
2.34776e-05
2.33789e-05
2.33767e-05
3.57599e-05
3.44316e-05
2.25625e-05
2.2552e-05
1.72712e-05
2.26422e-05
3.42891e-05
2.26342e-05
3.56149e-05
1.75045e-05
2.34664e-05
2.34732e-05
2.33919e-05
2.338e-05
3.57636e-05
3.56233e-05
1.75024e-05
2.34737e-05
2.34657e-05
3.57532e-05
2.33805e-05
2.33962e-05
3.61839e-05
2.36791e-05
2.3685e-05
1.76316e-05
3.60568e-05
2.37521e-05
2.37632e-05
3.6194e-05
2.36691e-05
2.36648e-05
1.76327e-05
2.37702e-05
3.60476e-05
2.37747e-05
3.61954e-05
2.36817e-05
2.36708e-05
1.76345e-05
2.37637e-05
3.60473e-05
2.37574e-05
1.59851e-05
1.59854e-05
1.55996e-05
1.58586e-05
1.58588e-05
1.62831e-05
1.64154e-05
1.59847e-05
1.59852e-05
1.55992e-05
1.58582e-05
1.58586e-05
1.62829e-05
1.64152e-05
1.59851e-05
1.59852e-05
1.55998e-05
1.58586e-05
1.58587e-05
1.6283e-05
1.64153e-05
1.54936e-05
1.5613e-05
1.56131e-05
1.57348e-05
1.57349e-05
1.61529e-05
1.60243e-05
1.54936e-05
1.5613e-05
1.56132e-05
1.57348e-05
1.57351e-05
1.61529e-05
1.60243e-05
1.54933e-05
1.56126e-05
1.5613e-05
1.57344e-05
1.57348e-05
1.61527e-05
1.60241e-05
1.54936e-05
1.5613e-05
1.56131e-05
1.57348e-05
1.57349e-05
1.61528e-05
1.60241e-05
1.83e-05
2.58874e-05
3.0149e-05
1.69928e-05
3.00175e-05
1.69765e-05
1.83172e-05
2.07063e-05
3.69335e-05
4.28172e-05
2.53627e-05
2.52577e-05
3.68203e-05
2.07709e-05
1.8289e-05
2.589e-05
1.70005e-05
3.01514e-05
1.69707e-05
3.00194e-05
1.83329e-05
2.0568e-05
2.49438e-05
3.64035e-05
4.25702e-05
2.05025e-05
2.50511e-05
3.65334e-05
1.82009e-05
2.56168e-05
1.68845e-05
2.95948e-05
1.81601e-05
1.69117e-05
2.97264e-05
2.07049e-05
3.69415e-05
4.28228e-05
2.53655e-05
2.52553e-05
3.68105e-05
2.07716e-05
3.474e-05
1.73293e-05
2.29069e-05
2.28993e-05
2.28227e-05
2.28377e-05
3.48731e-05
1.54939e-05
1.54942e-05
1.51921e-05
1.53768e-05
1.5377e-05
1.57727e-05
1.58977e-05
1.54936e-05
1.5494e-05
1.51919e-05
1.53765e-05
1.53768e-05
1.57725e-05
1.58975e-05
1.54939e-05
1.54941e-05
1.51923e-05
1.53767e-05
1.53769e-05
1.57725e-05
1.58976e-05
1.88968e-05
2.7525e-05
3.18589e-05
1.74322e-05
3.17268e-05
1.74064e-05
1.8921e-05
2.14291e-05
2.62255e-05
3.80351e-05
4.39971e-05
2.13523e-05
2.63428e-05
3.81484e-05
1.8759e-05
2.724e-05
3.1299e-05
1.72855e-05
1.87367e-05
3.14303e-05
1.73104e-05
2.15832e-05
3.85428e-05
4.42252e-05
2.66768e-05
2.65597e-05
3.84327e-05
2.16626e-05
1.88849e-05
2.75258e-05
1.74453e-05
3.18685e-05
1.73997e-05
3.1725e-05
1.89394e-05
2.14297e-05
2.62291e-05
3.80278e-05
4.39963e-05
2.13574e-05
2.63409e-05
3.81576e-05
1.87758e-05
2.72455e-05
1.72796e-05
3.12989e-05
1.87246e-05
1.73207e-05
3.14395e-05
2.15888e-05
3.85542e-05
4.42261e-05
2.66758e-05
2.65636e-05
3.84261e-05
2.16631e-05
3.64876e-05
1.77138e-05
2.40619e-05
2.40656e-05
2.39649e-05
2.39776e-05
3.6614e-05
3.4735e-05
1.73266e-05
2.2898e-05
2.28997e-05
3.48724e-05
2.28254e-05
2.28358e-05
3.53107e-05
1.74341e-05
2.31044e-05
2.31127e-05
3.51825e-05
2.31755e-05
2.31763e-05
1.8291e-05
2.58843e-05
3.01586e-05
1.70017e-05
3.00183e-05
1.69704e-05
1.83331e-05
2.05704e-05
2.49421e-05
3.64022e-05
4.25734e-05
3.65382e-05
2.05057e-05
2.50466e-05
1.82027e-05
2.56236e-05
2.95924e-05
1.68846e-05
2.97317e-05
1.81618e-05
1.69127e-05
2.07084e-05
3.69506e-05
4.28194e-05
2.53642e-05
3.6818e-05
2.52591e-05
2.07759e-05
1.83054e-05
2.58884e-05
3.01571e-05
1.70016e-05
3.00182e-05
1.6971e-05
1.83215e-05
2.05536e-05
2.49621e-05
3.64109e-05
4.25742e-05
2.05209e-05
3.65228e-05
2.50441e-05
1.81896e-05
2.56202e-05
2.95919e-05
1.68852e-05
1.8175e-05
2.97298e-05
1.69125e-05
2.07225e-05
3.69371e-05
4.28283e-05
2.53587e-05
3.68228e-05
2.07577e-05
2.52763e-05
1.84589e-05
3.04456e-05
1.70653e-05
2.64252e-05
1.84321e-05
3.05814e-05
1.70977e-05
2.11471e-05
2.59969e-05
4.3535e-05
3.77657e-05
2.59071e-05
3.7631e-05
2.11861e-05
2.09641e-05
3.7227e-05
2.55798e-05
4.33007e-05
2.56786e-05
2.09209e-05
3.73589e-05
1.85815e-05
2.66948e-05
3.10088e-05
1.71936e-05
3.08746e-05
1.71704e-05
1.86038e-05
1.8476e-05
3.04439e-05
1.70654e-05
2.64232e-05
1.84386e-05
3.05835e-05
1.70993e-05
2.11381e-05
2.60123e-05
4.35449e-05
3.77504e-05
3.76349e-05
2.59179e-05
2.12026e-05
2.09792e-05
3.72306e-05
2.55948e-05
4.33002e-05
2.09311e-05
3.73467e-05
2.56823e-05
1.85766e-05
2.66975e-05
3.10078e-05
1.7205e-05
3.08721e-05
1.71686e-05
1.86235e-05
3.47308e-05
1.73274e-05
2.29187e-05
2.2908e-05
2.28185e-05
2.28197e-05
3.48856e-05
3.5322e-05
1.74333e-05
2.30979e-05
2.30954e-05
2.32009e-05
3.51724e-05
2.31888e-05
1.82922e-05
2.58879e-05
3.01571e-05
1.69942e-05
3.00194e-05
1.69784e-05
1.83359e-05
2.05709e-05
2.49595e-05
3.64056e-05
4.2581e-05
3.65397e-05
2.05066e-05
2.50445e-05
1.82034e-05
2.56203e-05
2.95925e-05
1.68919e-05
2.973e-05
1.81628e-05
1.69057e-05
2.07088e-05
3.69513e-05
4.28229e-05
2.53625e-05
3.68176e-05
2.52724e-05
2.07746e-05
1.82919e-05
2.58861e-05
1.69931e-05
3.01563e-05
1.69787e-05
3.00194e-05
1.83359e-05
2.05703e-05
2.49506e-05
3.64048e-05
4.25805e-05
2.05079e-05
3.65367e-05
2.50589e-05
1.82033e-05
2.56221e-05
1.68922e-05
2.95957e-05
1.81626e-05
1.69049e-05
2.97264e-05
2.071e-05
3.69518e-05
4.2822e-05
2.53759e-05
3.6807e-05
2.07765e-05
2.52636e-05
1.84755e-05
3.0445e-05
1.7073e-05
2.64231e-05
1.84299e-05
3.05835e-05
1.70905e-05
2.11366e-05
2.60074e-05
4.35404e-05
3.77639e-05
2.5917e-05
3.76288e-05
2.12044e-05
2.09869e-05
3.72261e-05
2.55904e-05
4.33043e-05
2.5686e-05
2.09187e-05
3.73635e-05
1.8575e-05
2.6697e-05
3.10117e-05
1.71955e-05
3.08724e-05
1.7177e-05
1.86231e-05
1.84765e-05
1.70733e-05
3.04418e-05
2.64225e-05
1.84302e-05
1.70894e-05
3.05841e-05
2.11349e-05
2.6023e-05
4.35386e-05
3.77576e-05
3.76223e-05
2.59073e-05
2.12112e-05
2.09909e-05
3.7216e-05
2.5583e-05
4.33056e-05
2.09188e-05
3.73576e-05
2.56968e-05
1.8575e-05
2.66969e-05
1.71947e-05
3.10136e-05
1.71773e-05
3.08685e-05
1.86243e-05
1.83011e-05
2.58853e-05
1.69927e-05
3.01488e-05
1.69767e-05
3.00178e-05
1.8319e-05
2.07167e-05
3.69362e-05
4.28222e-05
2.53513e-05
2.52601e-05
3.68143e-05
2.07587e-05
1.84575e-05
3.04436e-05
1.70705e-05
2.64154e-05
1.84383e-05
3.05755e-05
1.70898e-05
2.11298e-05
2.60129e-05
4.35329e-05
3.77486e-05
2.12015e-05
2.5897e-05
3.76343e-05
2.09841e-05
3.7229e-05
2.55761e-05
4.33007e-05
2.09133e-05
2.56897e-05
3.73433e-05
1.85831e-05
2.66962e-05
3.10024e-05
1.7196e-05
1.86042e-05
3.08709e-05
1.71737e-05
1.84589e-05
1.7071e-05
3.04443e-05
2.6416e-05
1.84395e-05
1.70898e-05
3.0575e-05
2.11443e-05
2.60043e-05
4.35383e-05
3.77429e-05
3.76309e-05
2.59078e-05
2.11867e-05
2.09686e-05
3.72232e-05
2.55836e-05
4.3294e-05
2.09268e-05
3.73423e-05
2.56746e-05
1.85844e-05
2.66965e-05
1.71961e-05
3.10057e-05
1.71746e-05
3.08714e-05
1.86056e-05
3.47376e-05
1.73278e-05
2.29048e-05
2.29108e-05
2.28218e-05
2.28325e-05
3.48804e-05
3.53247e-05
1.74371e-05
2.31087e-05
2.30989e-05
2.31825e-05
3.51784e-05
2.31912e-05
1.82899e-05
2.58888e-05
1.69994e-05
3.01552e-05
1.69703e-05
3.00122e-05
1.8334e-05
2.05702e-05
2.49473e-05
3.63951e-05
4.25787e-05
2.50586e-05
2.05044e-05
3.6538e-05
1.82017e-05
2.56162e-05
1.6884e-05
2.95872e-05
1.69109e-05
1.81607e-05
2.97305e-05
2.07057e-05
3.69486e-05
4.28207e-05
2.5376e-05
2.52619e-05
3.68051e-05
2.07756e-05
1.84728e-05
1.70652e-05
3.04463e-05
2.64189e-05
1.8427e-05
1.70981e-05
3.05784e-05
2.11329e-05
2.60109e-05
4.35402e-05
3.77584e-05
2.12019e-05
2.58995e-05
3.76278e-05
2.09836e-05
3.7222e-05
2.55761e-05
4.32938e-05
2.09149e-05
2.56872e-05
3.73511e-05
1.85718e-05
2.67004e-05
1.7205e-05
3.10088e-05
1.86196e-05
1.71681e-05
3.08739e-05
1.84737e-05
1.7065e-05
3.04398e-05
2.64189e-05
1.84275e-05
1.70963e-05
3.05842e-05
2.11313e-05
2.60239e-05
4.35356e-05
3.77575e-05
3.76214e-05
2.59043e-05
2.12083e-05
2.0989e-05
3.72144e-05
2.55813e-05
4.33048e-05
2.09146e-05
3.73516e-05
2.56983e-05
1.85728e-05
2.66983e-05
1.72017e-05
3.10109e-05
1.71684e-05
3.08662e-05
1.86216e-05
3.53159e-05
1.74334e-05
2.30992e-05
2.31129e-05
3.51833e-05
2.31874e-05
2.318e-05
3.64869e-05
1.77102e-05
2.40568e-05
2.40615e-05
3.66119e-05
2.39725e-05
2.39718e-05
1.88994e-05
2.75242e-05
3.18637e-05
1.74336e-05
3.17312e-05
1.74065e-05
1.89236e-05
2.14123e-05
2.624e-05
3.80323e-05
4.39986e-05
3.81623e-05
2.13716e-05
2.6328e-05
1.87604e-05
2.72484e-05
3.13031e-05
1.72851e-05
3.14363e-05
1.87376e-05
1.73103e-05
2.1604e-05
3.85483e-05
4.42274e-05
2.66645e-05
3.84328e-05
2.6573e-05
2.16463e-05
1.88929e-05
2.75257e-05
3.18646e-05
1.74416e-05
3.17288e-05
1.74011e-05
1.89215e-05
2.14304e-05
2.62477e-05
3.80363e-05
4.39971e-05
2.13589e-05
3.81488e-05
2.63392e-05
1.87779e-05
2.72464e-05
3.13007e-05
1.72808e-05
1.87288e-05
3.14342e-05
1.73195e-05
2.15903e-05
3.85442e-05
4.42344e-05
2.66719e-05
3.84351e-05
2.16643e-05
2.65813e-05
3.64764e-05
1.771e-05
2.40705e-05
2.40633e-05
2.39596e-05
2.39648e-05
3.66211e-05
1.88935e-05
2.75257e-05
3.18668e-05
1.74304e-05
3.17269e-05
1.74112e-05
1.89294e-05
2.14321e-05
2.62459e-05
3.80321e-05
4.40031e-05
3.81631e-05
2.13616e-05
2.63375e-05
1.87787e-05
2.72472e-05
3.13004e-05
1.72896e-05
3.14417e-05
1.87286e-05
1.73086e-05
2.15927e-05
3.85607e-05
4.42328e-05
2.6675e-05
3.84311e-05
2.65802e-05
2.16644e-05
1.88887e-05
2.75241e-05
1.74305e-05
3.18685e-05
1.74111e-05
3.17235e-05
1.89433e-05
2.14398e-05
2.62371e-05
3.80274e-05
4.40048e-05
2.13587e-05
3.8162e-05
2.63561e-05
1.87802e-05
2.72474e-05
1.72899e-05
3.12954e-05
1.87281e-05
1.73084e-05
3.14403e-05
2.15885e-05
3.85613e-05
4.42284e-05
2.66867e-05
3.84238e-05
2.16706e-05
2.65695e-05
1.88987e-05
2.75264e-05
1.74324e-05
3.18594e-05
1.74073e-05
3.17266e-05
1.89237e-05
2.14111e-05
2.62368e-05
3.80316e-05
4.39914e-05
2.63341e-05
2.13688e-05
3.81459e-05
1.87605e-05
2.7242e-05
1.72863e-05
3.12989e-05
1.731e-05
1.87377e-05
3.14323e-05
2.16011e-05
3.85434e-05
4.42293e-05
2.66649e-05
2.65713e-05
3.8429e-05
2.16454e-05
3.64768e-05
1.77131e-05
2.40536e-05
2.40583e-05
2.39667e-05
2.39785e-05
3.66224e-05
1.8887e-05
2.75276e-05
1.74398e-05
3.1865e-05
1.74011e-05
3.17224e-05
1.89403e-05
2.14348e-05
2.62347e-05
3.80231e-05
4.40031e-05
2.63525e-05
2.1356e-05
3.81599e-05
1.87772e-05
2.72414e-05
1.72808e-05
3.12944e-05
1.73165e-05
1.87261e-05
3.14389e-05
2.15871e-05
3.85547e-05
4.42274e-05
2.66849e-05
2.65691e-05
3.84206e-05
2.16661e-05
3.60233e-05
3.60197e-05
3.60197e-05
3.60086e-05
3.39295e-05
3.38852e-05
3.38853e-05
3.39592e-05
3.21567e-05
3.20015e-05
3.20014e-05
3.19445e-05
3.05323e-05
3.02202e-05
3.022e-05
2.99769e-05
2.90293e-05
2.85431e-05
2.85428e-05
2.8106e-05
2.76307e-05
2.69749e-05
2.69749e-05
2.63716e-05
2.63252e-05
2.55178e-05
2.5518e-05
2.47885e-05
2.51049e-05
2.41712e-05
2.41713e-05
2.33595e-05
2.3964e-05
2.29363e-05
2.29362e-05
2.20862e-05
2.28981e-05
2.18119e-05
2.18117e-05
2.09673e-05
2.19038e-05
2.07958e-05
2.07953e-05
1.99949e-05
2.09777e-05
1.98848e-05
1.98842e-05
1.91624e-05
2.01148e-05
1.90769e-05
1.90762e-05
1.84689e-05
1.9314e-05
1.83689e-05
1.83683e-05
1.79092e-05
1.85742e-05
1.77577e-05
1.77571e-05
1.74786e-05
1.78928e-05
1.72416e-05
1.72412e-05
1.71696e-05
1.72675e-05
1.68199e-05
1.68195e-05
1.69861e-05
1.66963e-05
1.64914e-05
1.64912e-05
1.69399e-05
1.61777e-05
1.62564e-05
1.62562e-05
1.70334e-05
1.61146e-05
1.72544e-05
3.62977e-05
3.62919e-05
3.62919e-05
3.62977e-05
3.62919e-05
3.62919e-05
3.62908e-05
3.62908e-05
3.62908e-05
3.62908e-05
3.62919e-05
3.62919e-05
3.62977e-05
3.62919e-05
3.62919e-05
3.62977e-05
3.60085e-05