/*--------------------------------*- C++ -*----------------------------------*\
| =========                 |                                                 |
| \\      /  F ield         | OpenFOAM: The Open Source CFD Toolbox           |
|  \\    /   O peration     | Version:  2312                                  |
|   \\  /    A nd           | Website:  www.openfoam.com                      |
|    \\/     M anipulation  |                                                 |
\*---------------------------------------------------------------------------*/
FoamFile
{
    version     2.0;
    format      ascii;
    arch        "LSB;label=32;scalar=64";
    class       volScalarField;
    location    "250";
    object      nut;
}
// * * * * * * * * * * * * * * * * * * * * * * * * * * * * * * * * * * * * * //

dimensions      [0 2 -1 0 0 0 0];

internalField   nonuniform List<scalar> 
43008
(
0.00015832
0.000108533
0.000154164
0.000104778
0.000104778
8.33602e-05
8.50927e-05
8.39466e-05
0.000108511
0.000108494
0.000105627
0.000105607
8.39521e-05
0.000108533
0.000108495
0.000105647
0.000105608
0.000105654
0.000105627
8.50744e-05
8.3944e-05
0.000108527
0.000105652
0.000105641
8.39884e-05
8.33692e-05
0.000104754
0.000104738
8.33386e-05
0.000104776
0.000104739
0.000104756
8.33833e-05
0.00010477
6.51268e-05
4.9507e-05
6.39804e-05
4.95232e-05
2.36524e-05
6.5143e-05
4.95018e-05
6.39682e-05
4.95181e-05
0.000158316
0.00015831
0.000158314
0.000155194
0.000155189
0.000155183
0.000155187
6.16041e-05
0.000107537
6.23246e-05
0.000133375
2.36555e-05
2.36512e-05
6.16109e-05
0.000134449
6.16369e-05
0.000107531
6.08719e-05
0.000133367
6.23067e-05
8.48413e-05
5.93445e-05
5.93447e-05
6.77505e-05
4.95326e-05
6.66919e-05
4.95479e-05
2.3642e-05
2.36381e-05
6.77233e-05
4.9527e-05
6.66859e-05
4.95424e-05
0.000154159
0.000154153
0.000154157
6.41745e-05
6.37284e-05
0.000130142
0.000103911
6.33147e-05
6.43845e-05
0.000129097
2.36411e-05
2.36372e-05
6.42217e-05
0.000130131
6.37401e-05
0.000103909
6.33251e-05
0.000129088
6.44401e-05
6.00655e-05
6.00655e-05
8.31228e-05
6.04491e-05
6.04254e-05
2.36582e-05
2.36547e-05
2.3656e-05
2.36523e-05
5.89311e-05
5.89424e-05
8.48088e-05
5.93313e-05
5.93505e-05
2.36474e-05
2.36513e-05
2.36452e-05
2.36489e-05
8.41298e-05
5.9896e-05
5.99132e-05
5.95261e-05
5.95191e-05
6.51247e-05
4.95017e-05
6.398e-05
4.9513e-05
6.16811e-05
6.16192e-05
0.000134449
0.000107506
6.08215e-05
6.2318e-05
0.000133364
6.16187e-05
6.15997e-05
0.00013444
0.00010749
6.0855e-05
6.23458e-05
0.000133359
6.53791e-05
4.95361e-05
4.952e-05
6.64858e-05
6.53798e-05
4.95246e-05
4.95191e-05
6.64695e-05
6.20031e-05
0.000106579
6.33779e-05
0.000131205
6.26887e-05
0.000132271
6.29238e-05
6.20584e-05
0.000106563
6.33881e-05
0.000131203
6.2666e-05
0.000132267
6.28879e-05
8.48387e-05
5.93456e-05
5.935e-05
2.36534e-05
2.36451e-05
2.36492e-05
8.41639e-05
5.99073e-05
5.99145e-05
5.95137e-05
5.95148e-05
2.36466e-05
2.365e-05
6.16375e-05
6.16219e-05
0.000134446
0.000107528
6.08468e-05
6.23247e-05
0.000133367
6.51314e-05
4.95031e-05
6.39757e-05
4.95092e-05
6.16291e-05
0.000134436
6.16181e-05
0.000107489
6.08502e-05
0.000133354
6.23082e-05
6.53648e-05
4.95305e-05
4.95148e-05
6.6486e-05
6.20438e-05
0.000106601
6.34211e-05
0.000131209
6.26821e-05
0.000132271
6.28988e-05
6.53732e-05
4.95222e-05
4.95157e-05
6.64735e-05
6.2046e-05
0.000106564
0.000131196
6.33784e-05
0.000132261
6.26853e-05
6.28958e-05
6.5107e-05
4.95187e-05
6.16177e-05
0.000107513
0.000133372
6.22994e-05
6.51285e-05
4.951e-05
6.20485e-05
0.000106604
6.33757e-05
0.00013122
6.26763e-05
0.000132284
6.28667e-05
6.53825e-05
4.95311e-05
4.95153e-05
6.64525e-05
6.20504e-05
0.000106582
0.000131213
6.33971e-05
0.000132276
6.26843e-05
6.28667e-05
6.53707e-05
4.95227e-05
4.95171e-05
6.64721e-05
5.89453e-05
5.89356e-05
8.48486e-05
5.9324e-05
5.93482e-05
2.36575e-05
2.36535e-05
2.36441e-05
2.36482e-05
8.41203e-05
5.98886e-05
5.99129e-05
5.95268e-05
5.95174e-05
2.36463e-05
2.36502e-05
6.15943e-05
0.000134444
6.1577e-05
0.000107523
6.08576e-05
0.000133364
6.23525e-05
6.51068e-05
4.9508e-05
6.3995e-05
4.95142e-05
6.51009e-05
4.9497e-05
6.39937e-05
4.95135e-05
6.20582e-05
0.000106602
0.000131211
6.33596e-05
0.000132272
6.26946e-05
6.2852e-05
6.20594e-05
0.000106596
0.000131207
6.34061e-05
0.000132269
6.26453e-05
6.2845e-05
6.53944e-05
4.95267e-05
4.95208e-05
6.6463e-05
6.53952e-05
4.95258e-05
4.95099e-05
6.64448e-05
2.36521e-05
2.3651e-05
8.41614e-05
5.99078e-05
5.99076e-05
5.95133e-05
5.95129e-05
2.3645e-05
2.36489e-05
2.36439e-05
2.36476e-05
2.36441e-05
2.36404e-05
2.36419e-05
2.36383e-05
6.0085e-05
6.00737e-05
8.34095e-05
6.04611e-05
6.04571e-05
6.77439e-05
4.95309e-05
6.66975e-05
4.9537e-05
6.42438e-05
6.37274e-05
0.000130126
0.000103882
6.32758e-05
6.44377e-05
0.000129084
6.41889e-05
6.37164e-05
0.000130125
0.000103865
6.33167e-05
6.44258e-05
0.000129081
6.0067e-05
6.00682e-05
8.34366e-05
6.04503e-05
6.04329e-05
2.36432e-05
2.36396e-05
6.42336e-05
6.37093e-05
0.000130128
0.000103904
6.33063e-05
6.44261e-05
0.000129088
6.77221e-05
4.95263e-05
6.66933e-05
4.95375e-05
6.41746e-05
0.00013012
6.37206e-05
0.000103867
6.33057e-05
0.000129076
6.43885e-05
6.7723e-05
4.95279e-05
6.6701e-05
4.95429e-05
6.42243e-05
0.000130134
6.37111e-05
0.000103884
6.33225e-05
0.000129092
6.44181e-05
6.77355e-05
4.95292e-05
6.66919e-05
4.95349e-05
6.00801e-05
6.00734e-05
8.33566e-05
6.04259e-05
6.04345e-05
2.36432e-05
2.36394e-05
6.41208e-05
0.000130126
6.3695e-05
0.000103897
6.3333e-05
0.000129085
6.43896e-05
6.77335e-05
4.95329e-05
6.67089e-05
4.954e-05
6.77338e-05
4.95225e-05
6.6714e-05
4.95376e-05
2.36419e-05
2.36382e-05
2.36407e-05
2.3637e-05
3.61705e-05
6.46912e-05
4.03051e-05
6.75514e-05
4.03029e-05
6.71603e-05
3.61734e-05
2.02412e-05
6.67433e-05
4.95168e-05
2.02406e-05
6.69436e-05
3.61703e-05
6.44287e-05
4.0301e-05
6.66412e-05
3.61676e-05
4.03028e-05
6.70413e-05
2.02378e-05
6.71677e-05
4.95135e-05
6.69725e-05
2.02384e-05
2.36561e-05
2.36528e-05
3.61705e-05
6.46738e-05
6.75526e-05
4.03049e-05
6.71524e-05
4.03025e-05
3.61734e-05
2.02415e-05
6.67409e-05
4.95119e-05
2.02409e-05
6.69424e-05
3.61703e-05
6.44415e-05
6.66343e-05
4.03006e-05
3.61676e-05
6.70415e-05
4.03025e-05
2.02381e-05
6.71577e-05
4.95083e-05
6.69633e-05
2.02387e-05
2.36548e-05
2.36518e-05
6.93199e-05
2.15791e-05
2.15759e-05
2.1579e-05
2.15759e-05
6.94723e-05
7.01609e-05
5.9034e-05
6.6031e-05
4.70386e-05
7.02095e-05
5.90553e-05
6.60389e-05
4.70292e-05
6.92606e-05
2.15825e-05
2.15793e-05
7.05207e-05
4.70547e-05
5.9231e-05
6.66821e-05
6.64699e-05
4.70472e-05
7.06637e-05
7.0567e-05
4.70454e-05
5.9224e-05
6.66799e-05
6.64857e-05
4.7038e-05
7.07103e-05
3.6184e-05
6.73174e-05
4.03229e-05
6.94454e-05
4.03189e-05
6.90826e-05
3.61871e-05
2.023e-05
6.75912e-05
4.95418e-05
2.02294e-05
6.77632e-05
3.61836e-05
6.71287e-05
4.03137e-05
6.86244e-05
3.61805e-05
4.03176e-05
6.89956e-05
2.02266e-05
6.79537e-05
4.95388e-05
6.77955e-05
2.02271e-05
2.36416e-05
2.36384e-05
3.61839e-05
6.73245e-05
6.94427e-05
4.0322e-05
6.90781e-05
4.03191e-05
3.6187e-05
2.02302e-05
6.75949e-05
4.95367e-05
2.02297e-05
6.77634e-05
3.61835e-05
6.71232e-05
6.8616e-05
4.03134e-05
3.61804e-05
6.8994e-05
4.03171e-05
2.02268e-05
6.79517e-05
4.95332e-05
6.77885e-05
2.02273e-05
2.36406e-05
2.36376e-05
7.0124e-05
2.15657e-05
2.15625e-05
2.15656e-05
2.15624e-05
7.02619e-05
7.20933e-05
6.84197e-05
4.70906e-05
6.01806e-05
7.19518e-05
6.86245e-05
4.71043e-05
7.21658e-05
6.84278e-05
4.70811e-05
6.01789e-05
7.19906e-05
6.86323e-05
4.70953e-05
7.00738e-05
2.15689e-05
2.15658e-05
6.99312e-05
2.1569e-05
2.15658e-05
7.24314e-05
4.71194e-05
6.03323e-05
6.92786e-05
6.9056e-05
4.71049e-05
7.25446e-05
7.2453e-05
4.71102e-05
6.03368e-05
6.92859e-05
6.90705e-05
4.70959e-05
7.26303e-05
2.36583e-05
2.36549e-05
2.36557e-05
2.36525e-05
6.93233e-05
2.15797e-05
2.15765e-05
2.15796e-05
2.15764e-05
6.94795e-05
7.01614e-05
6.58376e-05
4.70329e-05
5.90552e-05
7.00259e-05
4.70408e-05
6.60179e-05
7.02204e-05
6.58441e-05
4.70212e-05
5.9062e-05
7.00601e-05
4.70308e-05
6.60302e-05
6.92654e-05
2.15828e-05
2.15796e-05
6.91071e-05
2.15831e-05
2.15798e-05
7.0526e-05
4.70574e-05
5.923e-05
6.66614e-05
4.70493e-05
7.06618e-05
6.64841e-05
7.05624e-05
4.70471e-05
5.92303e-05
6.66787e-05
4.70384e-05
7.07146e-05
6.64976e-05
2.36478e-05
2.36511e-05
2.36454e-05
2.36487e-05
6.96853e-05
2.15762e-05
2.1573e-05
6.95347e-05
2.15765e-05
2.15731e-05
7.14992e-05
6.79605e-05
5.98102e-05
4.70891e-05
4.70824e-05
6.77894e-05
7.16337e-05
7.15462e-05
6.79811e-05
5.9797e-05
4.7078e-05
4.70717e-05
6.78003e-05
7.16749e-05
7.11481e-05
4.70662e-05
6.71338e-05
5.96197e-05
7.10192e-05
4.70735e-05
6.73275e-05
7.11924e-05
4.7055e-05
6.71421e-05
5.96358e-05
7.10595e-05
4.70628e-05
6.73314e-05
6.97375e-05
2.15734e-05
2.15697e-05
2.15733e-05
2.15696e-05
6.98869e-05
3.61689e-05
6.46927e-05
4.0305e-05
6.75526e-05
4.03028e-05
6.71426e-05
3.61718e-05
2.02402e-05
6.67298e-05
4.95095e-05
2.02397e-05
6.69182e-05
3.61688e-05
6.44248e-05
4.03009e-05
6.66253e-05
4.03027e-05
3.6166e-05
6.70422e-05
2.02369e-05
6.7132e-05
4.95132e-05
6.69526e-05
2.02374e-05
3.61767e-05
4.03057e-05
6.76619e-05
6.58116e-05
3.61737e-05
4.03085e-05
6.80481e-05
2.02323e-05
4.95264e-05
6.7575e-05
2.02329e-05
6.73955e-05
2.02356e-05
6.71802e-05
4.95296e-05
2.0235e-05
6.73652e-05
3.6177e-05
6.60459e-05
4.03127e-05
6.85262e-05
3.61801e-05
4.03093e-05
6.81497e-05
3.61751e-05
4.03055e-05
6.76453e-05
6.58109e-05
3.61721e-05
4.03083e-05
6.80493e-05
2.02313e-05
4.95252e-05
6.75383e-05
6.73807e-05
2.02319e-05
2.02346e-05
6.71695e-05
4.95186e-05
2.02341e-05
6.7336e-05
3.61754e-05
6.60481e-05
4.03125e-05
6.85285e-05
4.03092e-05
6.81339e-05
3.61785e-05
6.93192e-05
2.15764e-05
2.15793e-05
2.15763e-05
2.15792e-05
6.94827e-05
7.02105e-05
5.90523e-05
4.70284e-05
6.60361e-05
7.01999e-05
5.90589e-05
6.60501e-05
4.70432e-05
6.92697e-05
2.15796e-05
2.15824e-05
7.05655e-05
4.70453e-05
5.92261e-05
6.66883e-05
4.70399e-05
6.64913e-05
7.07062e-05
7.04887e-05
4.70599e-05
5.92263e-05
6.67129e-05
6.64502e-05
4.70439e-05
7.06996e-05
2.36571e-05
2.36535e-05
2.36455e-05
2.36487e-05
6.96884e-05
2.15729e-05
2.15758e-05
6.95292e-05
2.15731e-05
2.15759e-05
7.15206e-05
6.79835e-05
5.97912e-05
4.70775e-05
6.77865e-05
4.70714e-05
7.16973e-05
7.14886e-05
6.79664e-05
5.9791e-05
4.70914e-05
4.70763e-05
6.77704e-05
7.1633e-05
7.12213e-05
4.70554e-05
6.71339e-05
5.96292e-05
6.73398e-05
7.10523e-05
4.70613e-05
7.11581e-05
4.70607e-05
6.70987e-05
5.96374e-05
7.09868e-05
4.70759e-05
6.73356e-05
6.9733e-05
2.15698e-05
2.15726e-05
2.15696e-05
2.15724e-05
6.98883e-05
2.36467e-05
2.36501e-05
3.61685e-05
6.46841e-05
4.03045e-05
6.7547e-05
4.03023e-05
6.71429e-05
3.61715e-05
2.02404e-05
6.67328e-05
4.95029e-05
2.02398e-05
6.69084e-05
3.61684e-05
6.44301e-05
4.03004e-05
6.66244e-05
4.03022e-05
3.61656e-05
6.70364e-05
2.0237e-05
6.71249e-05
4.95095e-05
6.69536e-05
2.02375e-05
3.61766e-05
6.76549e-05
4.03052e-05
6.58227e-05
3.61737e-05
6.80478e-05
4.03082e-05
2.02325e-05
4.95208e-05
6.75632e-05
2.0233e-05
6.73855e-05
2.02359e-05
6.71824e-05
4.95243e-05
2.02353e-05
6.737e-05
3.6177e-05
6.6036e-05
6.85291e-05
4.03124e-05
3.618e-05
6.81436e-05
4.03088e-05
3.61748e-05
4.03051e-05
6.76456e-05
6.58136e-05
3.61717e-05
4.03078e-05
6.80438e-05
2.02313e-05
4.95219e-05
6.75422e-05
6.73706e-05
2.02319e-05
2.02347e-05
6.71607e-05
4.95158e-05
2.02341e-05
6.734e-05
3.6175e-05
6.60443e-05
4.03119e-05
6.85244e-05
4.03088e-05
6.81328e-05
3.61782e-05
3.61701e-05
6.46927e-05
6.75173e-05
4.03041e-05
6.71678e-05
4.03018e-05
3.6173e-05
2.0238e-05
6.71406e-05
4.95088e-05
6.69586e-05
2.02386e-05
3.61691e-05
6.46789e-05
4.03049e-05
6.75435e-05
4.03025e-05
6.71448e-05
3.6172e-05
2.02374e-05
6.71148e-05
4.95111e-05
6.69648e-05
2.02378e-05
3.61763e-05
6.76717e-05
4.03044e-05
6.57887e-05
3.61733e-05
6.80126e-05
4.03075e-05
2.02323e-05
4.95216e-05
6.75458e-05
6.73889e-05
2.02329e-05
2.02357e-05
6.71786e-05
4.95251e-05
2.02352e-05
6.73437e-05
3.61766e-05
6.60509e-05
6.84948e-05
4.03118e-05
6.81569e-05
4.03079e-05
3.61797e-05
3.61752e-05
4.03052e-05
6.7647e-05
6.58094e-05
3.61722e-05
4.03083e-05
6.80395e-05
2.02317e-05
4.95235e-05
6.75292e-05
6.73832e-05
2.02321e-05
2.0235e-05
6.71735e-05
4.95163e-05
2.02345e-05
6.73268e-05
3.61755e-05
6.60406e-05
4.03126e-05
6.85141e-05
4.03087e-05
6.81373e-05
3.61786e-05
6.93189e-05
2.15767e-05
2.15799e-05
2.15766e-05
2.15797e-05
6.94791e-05
7.02185e-05
6.58248e-05
4.70216e-05
5.90325e-05
4.70304e-05
7.0063e-05
6.60534e-05
7.01863e-05
6.58458e-05
4.70293e-05
5.90569e-05
6.60197e-05
7.00232e-05
4.70448e-05
6.9267e-05
2.158e-05
2.15831e-05
2.15801e-05
6.91018e-05
2.15833e-05
7.05634e-05
4.70469e-05
5.92373e-05
6.66971e-05
4.70385e-05
6.64768e-05
7.07213e-05
7.05155e-05
4.70615e-05
5.92292e-05
6.66643e-05
6.64887e-05
4.70462e-05
7.06916e-05
2.36571e-05
2.36538e-05
2.36446e-05
2.36476e-05
6.96846e-05
2.15733e-05
2.15764e-05
6.95303e-05
2.15733e-05
2.15765e-05
7.15379e-05
6.79993e-05
5.98074e-05
4.7078e-05
6.77799e-05
4.70716e-05
7.16848e-05
7.14995e-05
6.79743e-05
5.97965e-05
4.70928e-05
4.7078e-05
6.77825e-05
7.16397e-05
7.12052e-05
4.70553e-05
6.71269e-05
5.96138e-05
6.73468e-05
7.10548e-05
4.70628e-05
7.11525e-05
4.70623e-05
6.71413e-05
5.96337e-05
7.10059e-05
4.70772e-05
6.73322e-05
6.97356e-05
2.157e-05
2.15731e-05
2.15699e-05
2.1573e-05
6.98835e-05
2.36467e-05
2.36498e-05
3.61707e-05
6.47079e-05
6.75409e-05
4.03044e-05
6.71632e-05
4.03022e-05
3.61735e-05
2.0242e-05
6.67473e-05
4.95077e-05
6.69281e-05
2.02414e-05
3.61704e-05
6.44094e-05
6.66444e-05
4.03002e-05
6.70316e-05
3.61677e-05
4.0302e-05
2.02386e-05
6.71448e-05
4.95143e-05
6.69707e-05
2.02392e-05
3.6168e-05
6.4707e-05
6.75437e-05
4.03038e-05
6.71428e-05
4.03016e-05
3.61709e-05
2.02402e-05
6.67307e-05
4.95071e-05
2.02396e-05
6.69188e-05
3.61678e-05
6.44049e-05
6.6625e-05
4.02996e-05
3.6165e-05
6.7035e-05
4.03014e-05
2.02368e-05
6.71306e-05
4.95035e-05
6.69403e-05
2.02374e-05
3.61768e-05
6.76649e-05
4.03049e-05
6.57908e-05
3.61739e-05
6.80367e-05
4.03077e-05
2.0233e-05
4.95271e-05
6.75587e-05
6.73929e-05
2.02335e-05
2.02364e-05
6.71858e-05
4.95206e-05
2.02358e-05
6.73561e-05
3.61772e-05
6.60618e-05
6.85177e-05
4.03121e-05
6.81531e-05
4.03085e-05
3.61803e-05
3.61742e-05
6.76461e-05
4.03044e-05
6.5787e-05
3.61711e-05
6.80407e-05
4.03072e-05
2.02312e-05
4.95159e-05
6.75444e-05
6.73613e-05
2.02317e-05
2.02346e-05
6.71625e-05
4.95198e-05
2.0234e-05
6.73489e-05
3.61745e-05
6.60643e-05
6.85222e-05
4.03114e-05
6.81336e-05
4.03081e-05
3.61777e-05
2.36557e-05
2.36526e-05
2.36547e-05
2.36512e-05
6.96797e-05
2.15757e-05
2.15725e-05
6.95283e-05
2.15758e-05
2.15726e-05
7.1477e-05
6.79703e-05
5.97906e-05
4.70871e-05
7.1651e-05
6.77721e-05
4.70794e-05
7.15241e-05
6.79886e-05
5.97907e-05
4.7078e-05
7.16993e-05
6.77808e-05
4.70701e-05
7.11828e-05
4.70635e-05
6.71124e-05
5.96287e-05
7.10047e-05
6.73272e-05
4.70707e-05
7.12291e-05
4.70545e-05
6.71349e-05
5.96281e-05
7.10517e-05
6.73412e-05
4.70614e-05
6.97321e-05
2.15724e-05
2.15692e-05
6.98803e-05
2.15723e-05
2.15691e-05
2.36454e-05
2.36485e-05
2.36441e-05
2.36474e-05
2.36438e-05
2.36406e-05
2.36417e-05
2.36385e-05
7.01288e-05
2.15665e-05
2.15628e-05
2.15665e-05
2.15628e-05
7.02697e-05
7.20972e-05
6.84298e-05
4.70978e-05
6.01718e-05
7.1969e-05
4.71038e-05
6.86158e-05
7.21378e-05
6.84304e-05
4.70868e-05
6.01879e-05
7.20162e-05
4.70929e-05
6.86461e-05
7.00813e-05
2.15699e-05
2.15663e-05
6.99351e-05
2.157e-05
2.15664e-05
7.24382e-05
4.71182e-05
6.03473e-05
6.92508e-05
4.71129e-05
7.25478e-05
6.90734e-05
7.24865e-05
4.71075e-05
6.03395e-05
6.93024e-05
4.71017e-05
7.25922e-05
6.90644e-05
3.61823e-05
6.73259e-05
4.03236e-05
6.94439e-05
4.03182e-05
6.90682e-05
3.61855e-05
2.0229e-05
6.75852e-05
4.95308e-05
2.02286e-05
6.77313e-05
3.6182e-05
6.71218e-05
4.03136e-05
6.86059e-05
4.03176e-05
3.61788e-05
6.89937e-05
2.02257e-05
6.79215e-05
4.95372e-05
6.77805e-05
2.02262e-05
7.0125e-05
2.15632e-05
2.15658e-05
2.15631e-05
2.15657e-05
7.02704e-05
7.21653e-05
6.84258e-05
4.70869e-05
6.01813e-05
4.70933e-05
7.19932e-05
6.86435e-05
7.21006e-05
6.84226e-05
4.70918e-05
6.01875e-05
6.86107e-05
7.19613e-05
4.71064e-05
7.00825e-05
2.15665e-05
2.15691e-05
2.15666e-05
6.99307e-05
2.15692e-05
7.24517e-05
4.71087e-05
6.03322e-05
6.92906e-05
4.71014e-05
6.90652e-05
7.26332e-05
7.24316e-05
4.71208e-05
6.03395e-05
6.92262e-05
6.90757e-05
4.71066e-05
7.25531e-05
2.36431e-05
2.36398e-05
3.6182e-05
6.73361e-05
4.03213e-05
6.94433e-05
4.03195e-05
6.90641e-05
3.61852e-05
2.0229e-05
6.75711e-05
4.95298e-05
2.02285e-05
6.77398e-05
3.61817e-05
6.71089e-05
4.03136e-05
6.86059e-05
4.03165e-05
3.61785e-05
6.89912e-05
2.02257e-05
6.79296e-05
4.95292e-05
6.77673e-05
2.02262e-05
3.61835e-05
6.73298e-05
6.94192e-05
4.03227e-05
6.90852e-05
4.03169e-05
3.61868e-05
2.023e-05
6.75946e-05
4.95371e-05
6.77416e-05
2.02295e-05
3.61832e-05
6.70929e-05
6.8629e-05
4.03121e-05
6.89613e-05
3.618e-05
4.03169e-05
2.02266e-05
6.7932e-05
4.95339e-05
6.77881e-05
2.02272e-05
3.61825e-05
6.73223e-05
4.03232e-05
6.94318e-05
4.03179e-05
6.90727e-05
3.61856e-05
2.02293e-05
6.7582e-05
4.95288e-05
2.02289e-05
6.77267e-05
3.61821e-05
6.71099e-05
4.0313e-05
6.86134e-05
3.6179e-05
4.03177e-05
6.8982e-05
2.0226e-05
6.79173e-05
4.95351e-05
6.77796e-05
2.02264e-05
7.01259e-05
2.15632e-05
2.15664e-05
2.15632e-05
2.15663e-05
7.02661e-05
7.21516e-05
6.84215e-05
4.70869e-05
6.01622e-05
4.70929e-05
7.20082e-05
6.86449e-05
7.21376e-05
6.8421e-05
4.70935e-05
6.01735e-05
6.86259e-05
7.19553e-05
4.71072e-05
7.00772e-05
2.15665e-05
2.15696e-05
2.15666e-05
6.99338e-05
2.15697e-05
7.24765e-05
4.71079e-05
6.03492e-05
6.92837e-05
4.71015e-05
6.90672e-05
7.26041e-05
7.24069e-05
4.71198e-05
6.03497e-05
6.92405e-05
6.90696e-05
4.71108e-05
7.25986e-05
2.36429e-05
2.36398e-05
3.61842e-05
6.73355e-05
6.94368e-05
4.03239e-05
6.90842e-05
4.03167e-05
3.61874e-05
2.02307e-05
6.75945e-05
4.95329e-05
6.77554e-05
2.02302e-05
3.61838e-05
6.71077e-05
6.86251e-05
4.03126e-05
6.89873e-05
3.61807e-05
4.03175e-05
2.02273e-05
6.79458e-05
4.95384e-05
6.77879e-05
2.02278e-05
3.61815e-05
6.73363e-05
6.94402e-05
4.03229e-05
6.90657e-05
4.03168e-05
3.61848e-05
2.02289e-05
6.75694e-05
4.95318e-05
2.02284e-05
6.77393e-05
3.61812e-05
6.71014e-05
6.86065e-05
4.03124e-05
3.61779e-05
6.89876e-05
4.03166e-05
2.02255e-05
6.79297e-05
4.95285e-05
6.77664e-05
2.0226e-05
2.36415e-05
2.36385e-05
2.36404e-05
2.36372e-05
0.000180004
0.000180013
0.000157272
0.000179138
0.000179146
0.000197112
0.000197815
6.8824e-05
8.5285e-05
7.03615e-05
7.02751e-05
0.000176554
0.000176563
0.000153122
0.000175691
0.0001757
0.000194305
0.00019501
7.15008e-05
7.12213e-05
7.13608e-05
8.36163e-05
7.12727e-05
7.14486e-05
7.13174e-05
6.88589e-05
7.03616e-05
7.03828e-05
8.53131e-05
6.86456e-05
7.0348e-05
7.0296e-05
7.06563e-05
8.37108e-05
7.09953e-05
7.11089e-05
7.10955e-05
7.10605e-05
7.08025e-05
6.89193e-05
8.53042e-05
7.04702e-05
7.05507e-05
7.058e-05
8.36558e-05
7.12472e-05
7.1221e-05
7.08605e-05
7.08949e-05
7.08766e-05
6.8825e-05
7.03617e-05
7.03503e-05
8.53149e-05
7.03617e-05
6.86686e-05
7.0294e-05
7.06341e-05
8.37078e-05
7.0986e-05
7.10757e-05
7.10818e-05
7.10214e-05
7.0841e-05
7.06187e-05
8.37287e-05
7.11595e-05
7.10026e-05
7.08486e-05
7.09378e-05
7.10768e-05
7.14637e-05
7.13591e-05
7.13046e-05
8.36412e-05
7.1315e-05
7.13002e-05
7.14372e-05
7.15311e-05
7.11717e-05
7.11741e-05
8.36633e-05
7.15461e-05
7.12482e-05
7.15448e-05
7.14812e-05
7.13466e-05
7.12958e-05
8.36295e-05
7.13807e-05
7.12786e-05
7.12952e-05
0.000180001
0.000180015
0.000157267
0.000179135
0.000179148
0.000197112
0.000197815
0.000179996
0.000180008
0.000157261
0.000179129
0.000179142
0.000197107
0.000197809
0.000180002
0.000180008
0.000157266
0.000179136
0.000179142
0.000197108
0.00019781
0.000156239
0.000177412
0.000177421
0.000178277
0.000178285
0.000196413
0.000195709
0.000156235
0.000177409
0.000177422
0.000178274
0.000178288
0.000196413
0.000195709
0.000156228
0.000177403
0.000177417
0.000178268
0.000178281
0.000196408
0.000195704
0.000156233
0.00017741
0.000177417
0.000178275
0.000178281
0.000196409
0.000195705
7.31359e-05
6.14462e-05
6.32188e-05
7.66887e-05
6.29711e-05
7.69278e-05
7.29489e-05
6.6935e-05
6.37583e-05
6.21524e-05
6.51286e-05
6.5033e-05
6.36278e-05
6.6993e-05
7.30622e-05
6.14613e-05
7.67497e-05
6.32103e-05
7.68614e-05
6.29825e-05
7.30237e-05
6.69962e-05
6.4627e-05
6.29549e-05
6.17763e-05
6.6671e-05
6.47176e-05
6.31855e-05
7.32499e-05
6.10152e-05
7.72747e-05
6.23395e-05
7.32867e-05
7.71546e-05
6.25636e-05
6.68211e-05
6.38018e-05
6.21616e-05
6.51241e-05
6.5003e-05
6.35682e-05
6.71419e-05
6.93242e-05
8.46378e-05
7.06685e-05
7.04754e-05
7.04958e-05
7.05897e-05
6.94842e-05
0.000176552
0.000176565
0.000153116
0.000175688
0.000175701
0.000194305
0.00019501
0.000176546
0.000176559
0.000153111
0.000175682
0.000175697
0.0001943
0.000195004
0.000176552
0.000176559
0.000153115
0.000175689
0.000175696
0.000194301
0.000195005
7.25216e-05
6.39768e-05
6.5911e-05
7.55203e-05
6.56602e-05
7.57606e-05
7.24045e-05
6.75703e-05
6.63938e-05
6.55053e-05
6.38852e-05
6.74633e-05
6.657e-05
6.56687e-05
7.25027e-05
6.35193e-05
6.49794e-05
7.60044e-05
7.27321e-05
6.5219e-05
7.58072e-05
6.77184e-05
6.62985e-05
6.42404e-05
6.7073e-05
6.68659e-05
6.61351e-05
6.77886e-05
7.24193e-05
6.39713e-05
7.58284e-05
6.59081e-05
7.55665e-05
6.56798e-05
7.25368e-05
6.77173e-05
6.64051e-05
6.54699e-05
6.38926e-05
6.73747e-05
6.65733e-05
6.57129e-05
7.2624e-05
6.35375e-05
7.58557e-05
6.49957e-05
7.26219e-05
7.60416e-05
6.52252e-05
6.76584e-05
6.63417e-05
6.42272e-05
6.71639e-05
6.68547e-05
6.61017e-05
6.77801e-05
7.1951e-05
8.30951e-05
7.17741e-05
7.18267e-05
7.15359e-05
7.15995e-05
7.21147e-05
6.93077e-05
8.4577e-05
7.04685e-05
7.04532e-05
6.94733e-05
7.05444e-05
7.05675e-05
7.01357e-05
8.4353e-05
7.0802e-05
7.08076e-05
6.99953e-05
7.07546e-05
7.0799e-05
7.29001e-05
6.13943e-05
6.32451e-05
7.68871e-05
6.29693e-05
7.67273e-05
7.32084e-05
6.70023e-05
6.46107e-05
6.29367e-05
6.17853e-05
6.31944e-05
6.66876e-05
6.46891e-05
7.34274e-05
6.10857e-05
6.2326e-05
7.71523e-05
6.2587e-05
7.31065e-05
7.72831e-05
6.68319e-05
6.38376e-05
6.21552e-05
6.51202e-05
6.35765e-05
6.50222e-05
6.70786e-05
7.31678e-05
6.14514e-05
6.3193e-05
7.68893e-05
6.30152e-05
7.67384e-05
7.29715e-05
6.67423e-05
6.46722e-05
6.29964e-05
6.18088e-05
6.68956e-05
6.31299e-05
6.46565e-05
7.31781e-05
6.10367e-05
6.23505e-05
7.71582e-05
7.32688e-05
6.25482e-05
7.72794e-05
6.70237e-05
6.37681e-05
6.21351e-05
6.50797e-05
6.36234e-05
6.69029e-05
6.50584e-05
7.29521e-05
6.36309e-05
7.63998e-05
6.23004e-05
7.27516e-05
6.38955e-05
7.65593e-05
6.73799e-05
6.59912e-05
6.32159e-05
6.51192e-05
6.59619e-05
6.48319e-05
6.726e-05
6.70479e-05
6.42083e-05
6.54818e-05
6.2862e-05
6.55889e-05
6.7102e-05
6.44652e-05
7.26626e-05
6.26321e-05
6.45613e-05
7.6169e-05
6.43057e-05
7.6102e-05
7.2651e-05
7.29024e-05
6.36649e-05
7.64055e-05
6.22499e-05
7.29868e-05
6.38632e-05
7.65744e-05
6.73096e-05
6.60429e-05
6.3194e-05
6.50438e-05
6.48854e-05
6.59552e-05
6.73551e-05
6.71235e-05
6.42503e-05
6.55071e-05
6.2869e-05
6.7181e-05
6.441e-05
6.5581e-05
7.27921e-05
6.26786e-05
6.45267e-05
7.62764e-05
6.43344e-05
7.60939e-05
7.27906e-05
6.92558e-05
8.45942e-05
7.07261e-05
7.06604e-05
7.04229e-05
7.03733e-05
6.9577e-05
7.02071e-05
8.44056e-05
7.06249e-05
7.06542e-05
7.09706e-05
6.99199e-05
7.0915e-05
7.30102e-05
6.144e-05
6.31997e-05
7.67009e-05
6.30146e-05
7.69389e-05
7.32773e-05
6.70021e-05
6.46582e-05
6.2948e-05
6.17935e-05
6.31954e-05
6.66812e-05
6.46669e-05
7.34362e-05
6.10451e-05
6.23503e-05
7.73419e-05
6.25522e-05
7.31629e-05
7.71082e-05
6.68312e-05
6.3825e-05
6.21511e-05
6.50978e-05
6.35772e-05
6.50604e-05
6.71469e-05
7.3011e-05
6.14418e-05
7.66948e-05
6.32411e-05
7.69335e-05
6.29768e-05
7.33157e-05
6.70086e-05
6.45484e-05
6.29785e-05
6.17876e-05
6.67047e-05
6.32043e-05
6.48089e-05
7.34627e-05
6.10357e-05
7.73419e-05
6.23396e-05
7.32916e-05
7.7099e-05
6.25698e-05
6.68485e-05
6.38614e-05
6.21451e-05
6.52276e-05
6.35531e-05
6.71677e-05
6.49538e-05
7.30977e-05
6.36639e-05
7.65914e-05
6.22527e-05
7.27437e-05
6.38627e-05
7.63726e-05
6.71904e-05
6.60283e-05
6.32033e-05
6.51021e-05
6.59882e-05
6.48297e-05
6.74983e-05
6.73418e-05
6.42042e-05
6.5496e-05
6.28701e-05
6.55798e-05
6.69982e-05
6.44819e-05
7.26302e-05
6.26698e-05
6.45508e-05
7.60605e-05
6.43295e-05
7.62895e-05
7.29316e-05
7.31049e-05
7.65685e-05
6.36216e-05
6.22515e-05
7.27781e-05
7.64537e-05
6.39069e-05
6.7184e-05
6.61462e-05
6.32096e-05
6.50841e-05
6.48199e-05
6.58612e-05
6.75516e-05
6.73691e-05
6.41879e-05
6.53952e-05
6.28591e-05
6.70047e-05
6.447e-05
6.56819e-05
7.26327e-05
6.2672e-05
7.62189e-05
6.45864e-05
7.62245e-05
6.42839e-05
7.29661e-05
7.309e-05
6.14261e-05
7.66904e-05
6.31735e-05
7.69427e-05
6.30184e-05
7.2986e-05
6.70168e-05
6.37584e-05
6.21692e-05
6.50565e-05
6.50515e-05
6.36284e-05
6.69137e-05
7.275e-05
6.36371e-05
7.65752e-05
6.22348e-05
7.29814e-05
6.3862e-05
7.63735e-05
6.72665e-05
6.60722e-05
6.32082e-05
6.50479e-05
6.73688e-05
6.59219e-05
6.48856e-05
6.71583e-05
6.42493e-05
6.54564e-05
6.2863e-05
6.70682e-05
6.56429e-05
6.44047e-05
7.28404e-05
6.26684e-05
6.45392e-05
7.60624e-05
7.26528e-05
6.43045e-05
7.62725e-05
7.27725e-05
7.65729e-05
6.36687e-05
6.22151e-05
7.30215e-05
7.63604e-05
6.38302e-05
6.7357e-05
6.60094e-05
6.32053e-05
6.50072e-05
6.48955e-05
6.59665e-05
6.72543e-05
6.70524e-05
6.42436e-05
6.54869e-05
6.28481e-05
6.71638e-05
6.43944e-05
6.55449e-05
7.28707e-05
6.2678e-05
7.60576e-05
6.45134e-05
7.62723e-05
6.43388e-05
7.26501e-05
6.93249e-05
8.45693e-05
7.04761e-05
7.0555e-05
7.05142e-05
7.05708e-05
6.95102e-05
7.01606e-05
8.43675e-05
7.07966e-05
7.07559e-05
7.07534e-05
6.99783e-05
7.08544e-05
7.2982e-05
6.14576e-05
7.6868e-05
6.32452e-05
7.67341e-05
6.2944e-05
7.32501e-05
6.70092e-05
6.45721e-05
6.29218e-05
6.18209e-05
6.47673e-05
6.66698e-05
6.32215e-05
7.3421e-05
6.10127e-05
7.7151e-05
6.23005e-05
7.72702e-05
7.31303e-05
6.25966e-05
6.68162e-05
6.3843e-05
6.21141e-05
6.51955e-05
6.49928e-05
6.35423e-05
6.71669e-05
7.28456e-05
7.65139e-05
6.36374e-05
6.22245e-05
7.28556e-05
7.64446e-05
6.38816e-05
6.71958e-05
6.60484e-05
6.32282e-05
6.50847e-05
6.74979e-05
6.59304e-05
6.4845e-05
6.73362e-05
6.4206e-05
6.54671e-05
6.28425e-05
6.69903e-05
6.56345e-05
6.44439e-05
7.27278e-05
6.26912e-05
7.6298e-05
6.45367e-05
7.27563e-05
7.61745e-05
6.4313e-05
7.30758e-05
7.64056e-05
6.36088e-05
6.22061e-05
7.27181e-05
7.65463e-05
6.39141e-05
6.71573e-05
6.61253e-05
6.31683e-05
6.50945e-05
6.48159e-05
6.59076e-05
6.75399e-05
6.73681e-05
6.41764e-05
6.54305e-05
6.28811e-05
6.69754e-05
6.44577e-05
6.56463e-05
7.26063e-05
6.26943e-05
7.62534e-05
6.45819e-05
7.60965e-05
6.42708e-05
7.29435e-05
7.02025e-05
8.43465e-05
7.07084e-05
7.07941e-05
6.99726e-05
7.09017e-05
7.07542e-05
7.19895e-05
8.29995e-05
7.16295e-05
7.17781e-05
7.21133e-05
7.16779e-05
7.15589e-05
7.25523e-05
6.39334e-05
6.59071e-05
7.57203e-05
6.56868e-05
7.56186e-05
7.24511e-05
6.74578e-05
6.64427e-05
6.54692e-05
6.39014e-05
6.57118e-05
6.75739e-05
6.65139e-05
7.25419e-05
6.35813e-05
6.49826e-05
7.58552e-05
6.5227e-05
7.26975e-05
7.59206e-05
6.78536e-05
6.6289e-05
6.42362e-05
6.69938e-05
6.61324e-05
6.69358e-05
6.76771e-05
7.25169e-05
6.39742e-05
6.59396e-05
7.57907e-05
6.5683e-05
7.55736e-05
7.24425e-05
6.75608e-05
6.64356e-05
6.55035e-05
6.39063e-05
6.74771e-05
6.56899e-05
6.65311e-05
7.26749e-05
6.35477e-05
6.50025e-05
7.58226e-05
7.26795e-05
6.52154e-05
7.60032e-05
6.77534e-05
6.63203e-05
6.42256e-05
6.70034e-05
6.61291e-05
6.77844e-05
6.69326e-05
7.1899e-05
8.29699e-05
7.18775e-05
7.18637e-05
7.14769e-05
7.1474e-05
7.22245e-05
7.25779e-05
6.39637e-05
6.59287e-05
7.57531e-05
6.56695e-05
7.57515e-05
7.25181e-05
6.75898e-05
6.64264e-05
6.54692e-05
6.3926e-05
6.57251e-05
6.74343e-05
6.65822e-05
7.28499e-05
6.35572e-05
6.49981e-05
7.60014e-05
6.52499e-05
7.25702e-05
7.58474e-05
6.77391e-05
6.63521e-05
6.42214e-05
6.70633e-05
6.61074e-05
6.69059e-05
6.77749e-05
7.23408e-05
6.39895e-05
7.5705e-05
6.59118e-05
7.56707e-05
6.56551e-05
7.28298e-05
6.77914e-05
6.6345e-05
6.54635e-05
6.38931e-05
6.73835e-05
6.57309e-05
6.66421e-05
7.29124e-05
6.3531e-05
7.59237e-05
6.49552e-05
7.25363e-05
7.59259e-05
6.52482e-05
6.75886e-05
6.63865e-05
6.42389e-05
6.71382e-05
6.60833e-05
6.80625e-05
6.68313e-05
7.25743e-05
6.39702e-05
7.57646e-05
6.59207e-05
7.57194e-05
6.56782e-05
7.24703e-05
6.74733e-05
6.64298e-05
6.55121e-05
6.39025e-05
6.64922e-05
6.75585e-05
6.56529e-05
7.25474e-05
6.35449e-05
7.597e-05
6.5006e-05
7.58731e-05
7.27642e-05
6.52157e-05
6.77736e-05
6.62757e-05
6.42208e-05
6.6947e-05
6.69478e-05
6.61486e-05
6.79474e-05
7.1963e-05
8.30428e-05
7.15828e-05
7.16479e-05
7.16297e-05
7.16857e-05
7.21479e-05
7.23276e-05
6.40055e-05
7.56065e-05
6.59085e-05
7.56679e-05
6.56563e-05
7.28083e-05
6.76059e-05
6.63756e-05
6.54515e-05
6.38892e-05
6.65937e-05
6.74072e-05
6.57042e-05
7.28854e-05
6.35033e-05
7.58272e-05
6.49507e-05
7.59313e-05
7.25159e-05
6.52361e-05
6.7709e-05
6.63245e-05
6.42343e-05
6.70755e-05
6.68811e-05
6.6106e-05
6.77879e-05
0.000233968
0.000233538
0.00023354
0.000233432
0.000232519
0.000227475
0.00022748
0.000223706
0.000230463
0.000220012
0.000220013
0.000208872
0.000227717
0.000211379
0.000211374
0.000193574
0.000224331
0.000202391
0.000202386
0.000179525
0.000220438
0.000193542
0.000193538
0.000167177
0.000216187
0.000185075
0.000185073
0.000156458
0.000211704
0.00017706
0.000177059
0.000147103
0.000207094
0.000169538
0.000169537
0.000138882
0.000202436
0.000162481
0.000162478
0.000131597
0.000197785
0.000155832
0.000155827
0.000124978
0.000193176
0.000149539
0.000149531
0.000118843
0.000188589
0.000143559
0.000143551
0.000113228
0.000184061
0.000137839
0.000137832
0.000107907
0.00017962
0.00013234
0.000132334
0.000102984
0.000175254
0.000127052
0.000127047
9.83404e-05
0.000170951
0.000121995
0.000121991
9.41098e-05
0.000166698
0.000117199
0.000117197
9.05167e-05
0.000162496
0.000112693
0.00011269
8.758e-05
0.000108536
8.51854e-05
0.000234254
0.000234467
0.000234468
0.000234251
0.000234467
0.000234466
0.00023426
0.00023426
0.00023426
0.000234261
0.000234467
0.00023447
0.000234249
0.000234467
0.00023447
0.000234252
0.000233421
0.000226038
0.000233537