/*--------------------------------*- C++ -*----------------------------------*\
| =========                 |                                                 |
| \\      /  F ield         | OpenFOAM: The Open Source CFD Toolbox           |
|  \\    /   O peration     | Version:  2312                                  |
|   \\  /    A nd           | Website:  www.openfoam.com                      |
|    \\/     M anipulation  |                                                 |
\*---------------------------------------------------------------------------*/
FoamFile
{
    version     2.0;
    format      ascii;
    arch        "LSB;label=32;scalar=64";
    class       surfaceScalarField;
    location    "250";
    object      phi;
}
// * * * * * * * * * * * * * * * * * * * * * * * * * * * * * * * * * * * * * //

dimensions      [0 3 -1 0 0 0 0];

oriented        oriented;

internalField   nonuniform List<scalar> 
124832
(
-8.7563e-07
-8.82787e-07
4.56112e-07
4.5672e-07
0.00114043
-0.00113959
-1.51918e-06
8.76689e-07
4.45902e-07
0.00113302
-5.32754e-07
1.10733e-06
1.27381e-07
7.24901e-07
-5.90587e-07
-1.27317e-06
5.86306e-08
-0.00113244
-8.5647e-07
-8.5785e-07
-0.00114291
4.42734e-07
4.43213e-07
0.00114374
-0.00113482
-1.51672e-06
8.57359e-07
4.19032e-07
0.00113536
-5.2151e-07
1.11689e-06
1.3425e-07
7.32346e-07
-5.75183e-07
-1.25935e-06
6.75727e-08
-0.00113469
-1.51405e-06
8.57184e-07
4.24809e-07
0.00113523
-5.21619e-07
1.11418e-06
1.34134e-07
7.32539e-07
-5.75152e-07
-1.25931e-06
6.79383e-08
-0.000276279
1.54559e-06
1.50864e-06
-4.99875e-07
-5.0292e-07
0.000274228
1.56157e-06
1.52199e-06
-5.07746e-07
-5.15995e-07
0.00027407
-0.00027613
-1.15826e-06
-1.11545e-06
0.000276354
-0.000274237
7.58526e-08
8.12197e-08
4.35915e-07
0.0011326
-5.3524e-07
1.15054e-06
1.30663e-07
7.30231e-07
-5.90739e-07
-1.27879e-06
5.83892e-08
-0.00113201
8.7118e-07
4.36124e-07
0.00113267
1.14769e-06
1.33265e-07
7.29924e-07
-5.90806e-07
-1.27873e-06
5.81823e-08
-0.00113208
-1.55646e-06
-5.35635e-07
0.00113427
8.61265e-07
-0.00113374
4.38887e-07
-1.55803e-06
1.41486e-07
-5.29962e-07
-1.26854e-06
6.5405e-08
-5.793e-07
7.36129e-07
1.15282e-06
0.00113435
8.62027e-07
-0.0011338
4.28387e-07
-1.55551e-06
1.38285e-07
-5.27374e-07
-1.26849e-06
6.52186e-08
-5.79292e-07
7.35791e-07
-1.11524e-06
0.000276335
-0.000274221
7.58164e-08
7.84338e-08
4.34575e-07
0.00113358
-5.32716e-07
1.11047e-06
1.27678e-07
7.30148e-07
-5.90773e-07
-1.27869e-06
5.85562e-08
-0.001133
-1.55361e-06
8.7695e-07
4.36136e-07
0.00113256
-5.38239e-07
1.14238e-06
1.3346e-07
7.30049e-07
-5.90895e-07
-1.2787e-06
5.47122e-08
-0.00113197
0.00113527
8.62636e-07
-0.00113472
4.27168e-07
-1.51832e-06
1.32498e-07
-5.24536e-07
-1.26848e-06
6.55282e-08
-5.7925e-07
7.35958e-07
1.14748e-06
0.00113424
8.61882e-07
-0.00113369
4.28547e-07
-1.54996e-06
1.38416e-07
-5.30003e-07
-1.2684e-06
6.20622e-08
-5.76479e-07
7.35883e-07
8.62213e-07
-0.00113427
4.32648e-07
-1.51809e-06
1.32594e-07
-5.2435e-07
-1.2629e-06
6.53191e-08
7.30462e-07
-5.79038e-07
1.14457e-06
0.00113386
8.61456e-07
-0.00113331
4.2845e-07
-1.54695e-06
1.35547e-07
-5.26972e-07
-1.25988e-06
5.87443e-08
-5.73368e-07
7.2773e-07
-5.11149e-07
-5.1556e-07
0.000274046
-0.000276092
-1.10975e-06
0.00027631
-0.00027421
7.59594e-08
8.12672e-08
7.76089e-07
2.54959e-07
0.00113309
1.06646e-06
1.15435e-07
7.27285e-07
-5.87893e-07
5.86274e-08
-1.27572e-06
-1.58652e-06
-0.00113209
-5.43524e-07
8.61945e-07
-0.00113414
4.27381e-07
-1.51271e-06
1.32456e-07
-5.2447e-07
-1.26294e-06
6.57024e-08
7.30657e-07
-5.79014e-07
1.10715e-06
0.00113484
8.62008e-07
-0.00113429
4.2705e-07
-1.51002e-06
1.32523e-07
-5.24521e-07
-1.26537e-06
6.57544e-08
-5.79073e-07
7.33223e-07
-0.000274182
7.58517e-08
7.86618e-08
1.55945e-06
1.51696e-06
-5.00024e-07
-5.05577e-07
0.000274283
4.14508e-07
0.00113482
-5.30028e-07
1.1599e-06
1.43023e-07
7.37896e-07
-5.75462e-07
-1.26506e-06
6.75871e-08
-1.55413e-06
8.57495e-07
4.25944e-07
0.00113489
-5.27272e-07
1.15447e-06
1.39895e-07
7.37798e-07
-5.75325e-07
-1.26489e-06
6.42353e-08
-5.00359e-07
-5.02493e-07
0.000274267
4.24705e-07
0.00113581
-5.21788e-07
1.11709e-06
1.34137e-07
7.37805e-07
-5.75381e-07
-1.26494e-06
6.77779e-08
-1.54858e-06
8.56991e-07
4.26073e-07
0.00113478
-5.2719e-07
1.14913e-06
1.40063e-07
7.37804e-07
-5.72617e-07
-1.2648e-06
6.43578e-08
8.56686e-07
4.25976e-07
0.0011344
-5.24185e-07
1.14624e-06
1.37162e-07
7.29594e-07
-5.69544e-07
6.10445e-08
-1.25632e-06
-5.00494e-07
-5.05111e-07
0.000274253
8.57288e-07
4.24631e-07
0.00113538
-5.2169e-07
1.10882e-06
1.34125e-07
7.35019e-07
-5.75221e-07
6.8022e-08
-1.26184e-06
-1.35435e-10
9.36291e-08
0.000237627
-0.000237702
-1.06039e-08
-8.384e-09
-3.8041e-09
1.5133e-07
-2.07053e-08
0.00019805
-0.000198177
-1.57618e-11
2.76864e-07
0.000237945
-9.49476e-08
-1.30466e-08
-0.000238113
1.5008e-08
3.10415e-08
0.000197841
-5.49455e-09
-0.000197881
-1.49186e-08
5.42086e-09
9.92819e-05
-9.92724e-05
9.35809e-08
-4.32287e-11
0.000237615
-0.000237689
-8.54168e-09
-1.05577e-08
-3.92729e-09
1.51297e-07
-2.07763e-08
0.000198032
-0.000198158
2.76823e-07
3.27907e-10
0.000237932
-1.35283e-08
-9.49178e-08
-0.000238101
1.53935e-08
3.08753e-08
0.000197824
-5.82401e-09
-0.000197864
4.61937e-07
4.35299e-07
0.00114019
-8.76895e-07
-0.00113934
4.56501e-07
4.848e-07
0.00114001
-0.0011392
4.06473e-07
4.28923e-07
0.00113994
-1.043e-06
-0.00113896
-0.00114209
4.55731e-07
4.50724e-07
0.0011427
-0.00114187
4.50459e-07
4.51033e-07
0.00114249
-0.00114167
4.50248e-07
4.51035e-07
0.00114245
-0.00114163
4.50244e-07
4.50703e-07
-9.37912e-08
-1.83126e-09
0.000261358
-0.000261287
-2.74326e-08
5.21492e-08
4.26882e-07
1.11188e-06
0.0011337
8.71961e-07
-1.26975e-06
6.06871e-08
-5.86748e-07
7.26516e-07
-1.52065e-06
1.29234e-07
-5.29895e-07
-0.00113312
4.83227e-09
-3.12242e-08
0.000254112
2.01385e-08
-0.000254147
4.0548e-08
-1.77597e-08
0.00113384
9.24116e-07
-1.38041e-06
5.74484e-07
-1.20854e-06
7.71391e-07
-0.00113308
4.22679e-09
6.75987e-08
9.9332e-05
-9.94039e-05
-1.4914e-08
7.84681e-09
9.92746e-05
-9.92675e-05
-3.93635e-10
-9.36946e-08
0.000261344
-0.000261277
5.48413e-08
-2.8085e-08
0.00113295
5.3391e-08
9.28073e-07
7.71702e-07
-1.21084e-06
-1.3832e-06
5.72141e-07
-0.00113223
-7.0702e-08
-1.51172e-07
3.37557e-07
7.64108e-08
0.000254362
-0.000254554
4.43489e-07
1.10635e-06
0.00113358
8.71718e-07
-1.26979e-06
6.10802e-08
-5.86734e-07
7.26804e-07
-1.51799e-06
1.29104e-07
-5.30009e-07
1.81964e-09
-2.76769e-07
0.000261428
5.3096e-07
-3.54149e-08
-0.000261649
1.916e-08
0.00113368
9.23822e-07
-1.38047e-06
5.77278e-07
-1.20589e-06
7.74245e-07
4.42242e-09
-3.09206e-08
0.000254103
2.03078e-08
-0.000254139
4.2814e-08
-1.1467e-06
-1.09833e-06
0.000276178
-0.000274075
6.54965e-08
7.61508e-08
-4.69566e-09
-7.76011e-09
0.000285615
2.26437e-08
-0.000285686
6.06907e-08
-4.62848e-09
-7.73444e-09
0.000285532
2.30488e-08
-0.000285603
6.05678e-08
-4.33993e-11
7.70999e-08
-0.000236782
-5.78273e-09
-6.71278e-09
-0.000197529
-3.39175e-09
1.40485e-07
-1.76606e-08
0.000197409
-0.000237162
5.02944e-11
2.57454e-07
0.000237004
-8.82822e-08
-1.13885e-08
1.39842e-08
2.26219e-08
-3.69173e-09
-0.000197259
-9.91576e-05
4.90472e-09
6.36503e-08
9.90891e-05
-1.39506e-08
4.56188e-09
-9.90291e-05
7.69875e-08
-2.54923e-11
-0.00023677
-6.76826e-09
-5.70812e-09
-0.000197507
-4.93522e-09
1.40299e-07
-1.79891e-08
0.00019739
-0.00023715
2.57361e-07
3.01005e-10
0.000236992
-1.16684e-08
-8.82831e-08
1.39626e-08
2.25878e-08
-3.61511e-09
-0.00019724
4.48575e-07
4.49175e-07
0.00114351
4.48299e-07
4.49036e-07
0.00114331
4.48316e-07
4.48797e-07
0.00114327
-7.72923e-08
-1.53382e-09
-0.000260653
-2.27648e-08
3.61012e-08
-0.000253672
-6.76997e-08
-1.42516e-07
3.23039e-07
6.88454e-08
0.000253491
0.00113603
-0.00113532
2.65069e-09
9.10805e-07
7.81119e-07
-1.19893e-06
-1.36957e-06
5.8418e-07
4.27722e-07
1.1185e-06
8.52585e-07
-1.25577e-06
6.98428e-08
-5.71369e-07
7.34233e-07
-1.51529e-06
1.35871e-07
-5.1877e-07
-0.000261044
-2.57275e-07
1.50502e-09
0.000260816
-3.02305e-08
5.14042e-07
7.84626e-09
-2.05713e-08
1.46114e-08
-0.000253279
2.85542e-08
-4.27524e-09
9.06502e-07
-1.36927e-06
5.83633e-07
-1.1992e-06
7.80614e-07
-9.91512e-05
4.93076e-09
6.345e-08
9.90829e-05
-1.40623e-08
4.62685e-09
-9.90242e-05
-8.75696e-10
-7.71966e-08
-0.000260643
3.60541e-08
-2.26586e-08
0.00113587
-0.00113515
4.63531e-09
9.10812e-07
7.81232e-07
-1.20185e-06
-1.3724e-06
5.81285e-07
-0.000253665
-6.79988e-08
-1.40199e-07
3.20428e-07
6.91225e-08
0.000253484
4.22451e-07
1.11585e-06
8.52408e-07
-1.25582e-06
7.0178e-08
-5.71321e-07
7.34335e-07
-1.51256e-06
1.32768e-07
-5.18779e-07
-0.000261033
9.3622e-10
-2.57346e-07
0.000260806
5.14148e-07
-3.05445e-08
-3.2145e-09
9.06462e-07
-1.36938e-06
5.86456e-07
-1.19654e-06
7.83477e-07
7.51674e-09
-2.25959e-08
1.46782e-08
-0.000253272
3.09502e-08
-0.000285135
6.79851e-08
-6.34972e-08
1.79717e-07
-1.35058e-08
0.000284965
-0.000285052
6.81496e-08
-6.33866e-08
1.74834e-07
-1.40539e-08
0.000284887
-1.14787e-06
-1.11042e-06
-0.000274269
8.08796e-08
8.37561e-08
-7.70237e-09
-4.55667e-09
2.1263e-08
-0.000284736
4.89803e-08
-7.56144e-09
-4.5418e-09
2.16672e-08
-0.000284659
5.34529e-08
6.93053e-08
9.93597e-05
-9.94329e-05
7.7735e-09
9.93045e-05
-9.92973e-05
6.74637e-08
9.93488e-05
-9.94202e-05
7.39501e-09
9.92912e-05
-9.92832e-05
7.30171e-08
1.88712e-07
-1.33125e-08
0.00028599
-0.000286169
7.02627e-08
1.90837e-07
-1.29426e-08
0.000285914
-0.000286094
0.00027625
-1.15224e-06
-1.11216e-06
-0.00027413
6.81985e-08
7.61565e-08
0.000285668
-1.91097e-09
2.51618e-08
-0.000285741
5.81659e-08
0.000285593
-2.15453e-09
2.25542e-08
-0.000285663
5.79068e-08
6.07717e-09
-1.40124e-08
9.91791e-05
-9.91711e-05
6.56248e-08
4.78653e-09
9.92341e-05
6.06961e-09
-1.44464e-08
9.91679e-05
-9.91595e-05
6.55618e-08
4.57799e-09
9.92211e-05
1.55927e-06
1.51963e-06
0.000274184
-5.02657e-07
-5.10835e-07
-6.06964e-09
0.000285188
5.34635e-08
-0.000285252
2.18076e-08
-3.60193e-09
0.000285113
5.33759e-08
-0.000285179
2.19101e-08
6.80209e-08
-1.59959e-08
1.85482e-07
0.000285496
6.79151e-08
-1.32998e-08
1.8514e-07
0.000285418
9.36318e-08
0.000237584
-0.000237659
-1.06058e-08
-8.25482e-09
1.53603e-07
-2.05917e-08
0.000197982
-4.12373e-09
-0.000198111
2.76854e-07
0.000237902
-9.49373e-08
-1.3477e-08
-0.00023807
2.88267e-08
0.000197779
-5.33409e-09
-0.000197818
-9.17484e-10
0.000261372
-0.000261302
-2.77733e-08
5.19905e-08
3.40314e-07
7.60322e-08
0.000254376
-0.000254568
0.00113336
3.72432e-09
9.28992e-07
7.77599e-07
-1.21639e-06
-1.38872e-06
5.80619e-07
-0.00113261
4.32734e-07
0.00113317
8.70677e-07
-1.56042e-06
1.3531e-07
-5.32627e-07
-1.27551e-06
6.07246e-08
-5.86869e-07
7.32159e-07
7.70973e-10
0.000261452
-3.40046e-08
5.31054e-07
-0.000261673
0.000254114
2.01511e-08
-0.000254146
4.04638e-08
-3.53698e-09
0.00113412
9.18802e-07
-1.38622e-06
5.82956e-07
-1.21424e-06
7.79972e-07
0.000261342
-0.000261275
-2.65463e-08
5.19955e-08
3.40233e-07
7.61443e-08
0.000254266
-0.000254456
-7.29445e-08
0.00113331
9.2364e-07
7.77281e-07
-1.21639e-06
-1.38854e-06
5.80561e-07
-0.00113255
4.33655e-07
0.00113324
1.14944e-06
8.7183e-07
-1.27543e-06
6.06182e-08
7.31827e-07
-5.87017e-07
-1.55803e-06
1.34924e-07
-5.35678e-07
0.000261425
-3.57569e-08
5.31047e-07
-0.000261643
0.000254004
4.45841e-09
2.0307e-08
-0.00025404
4.04353e-08
0.00113406
9.19181e-07
-1.38601e-06
5.82898e-07
-1.21424e-06
7.79607e-07
-3.54353e-12
2.66967e-07
-9.14163e-08
-1.21318e-08
0.000237464
2.65061e-08
-0.000197565
-4.01377e-09
1.45653e-07
-2.15546e-08
0.000197722
-1.57319e-10
8.51342e-08
-0.000237231
-7.95652e-09
-7.4314e-09
2.66935e-07
-9.14115e-08
-1.25377e-08
0.000237421
2.68077e-08
1.41048e-08
0.000197456
-0.000197493
-3.97973e-09
1.47974e-07
-4.75502e-09
-1.90726e-08
0.000197655
8.51546e-08
0.000237119
-0.000237189
-8.01326e-09
-7.57299e-09
8.33427e-10
-3.18691e-08
5.22762e-07
0.000261147
4.24878e-07
8.66199e-07
1.15387e-06
-5.32672e-07
1.36873e-07
7.34075e-07
-5.83106e-07
6.3095e-08
-1.27219e-06
0.000253676
3.41276e-08
-0.000253708
1.74036e-08
-0.00113485
-3.53616e-09
0.00113559
9.15553e-07
-1.38093e-06
5.84796e-07
-1.20701e-06
7.8463e-07
7.00191e-08
3.31713e-07
0.000253926
3.66377e-09
9.20056e-07
7.82271e-07
-1.20932e-06
-1.38369e-06
5.82462e-07
-8.89045e-10
0.000261058
-0.00026099
-2.56254e-08
4.3947e-08
-3.38028e-08
5.22736e-07
0.000261121
4.31319e-07
-1.5568e-06
8.66882e-07
7.33816e-07
-5.8308e-07
-1.27202e-06
6.29452e-08
1.15115e-06
-5.30131e-07
1.33603e-07
3.47358e-09
0.000253566
3.44187e-08
-0.000253595
1.74448e-08
-0.0011348
0.00113553
9.15837e-07
-1.3806e-06
5.84713e-07
-1.20698e-06
7.84406e-07
-7.04366e-08
7.25232e-08
3.31649e-07
0.000253818
9.20355e-07
7.8206e-07
-1.20928e-06
-1.38329e-06
5.82387e-07
0.000261028
-0.000260963
-2.41549e-08
4.39706e-08
0.000276233
-0.000274116
7.07176e-08
7.33312e-08
0.000285528
2.29729e-08
-0.000285602
6.07115e-08
-7.97289e-09
0.000285679
2.29898e-08
-0.000285748
5.85281e-08
9.92972e-05
-1.49889e-08
-9.92901e-05
6.59391e-09
-9.91501e-05
6.79316e-08
9.92092e-05
1.51943e-06
0.000274171
-5.05762e-07
-5.07902e-07
0.000285054
5.36689e-08
-0.00028512
2.22529e-08
-4.06768e-09
-6.42416e-09
0.000285197
5.37248e-08
-0.000285263
2.24025e-08
-1.34034e-08
1.85322e-07
0.000285354
-6.55337e-08
7.02254e-08
-1.32077e-08
1.85346e-07
0.000285503
-1.46689e-08
9.91762e-05
-9.91656e-05
4.46135e-09
9.92272e-05
-1.623e-09
0.000261365
-0.000261295
-2.74649e-08
5.20632e-08
3.37677e-07
7.60993e-08
0.000254337
-0.000254529
0.00113322
2.78773e-09
9.34298e-07
7.77122e-07
-1.21361e-06
-1.38856e-06
5.77659e-07
-0.00113247
4.31746e-07
0.00113416
8.72219e-07
-1.52076e-06
1.29271e-07
-5.29954e-07
-1.27537e-06
6.10086e-08
-5.86858e-07
7.32055e-07
1.8637e-09
0.000261445
-3.53051e-08
5.31037e-07
-0.000261666
0.000254077
1.99721e-08
-0.000254111
4.29023e-08
-4.50358e-09
0.00113397
9.24138e-07
-1.38599e-06
5.80006e-07
-1.21144e-06
7.79621e-07
9.35927e-08
0.000237573
-0.000237647
-1.05764e-08
-8.54471e-09
1.51375e-07
-2.06417e-08
0.000197971
-0.000198097
2.76805e-07
0.00023789
-9.49142e-08
-1.30564e-08
-0.000238059
3.12752e-08
0.000197763
-5.62641e-09
-0.000197804
0.000261334
-0.000261267
5.20884e-08
-2.69642e-08
0.00113317
9.28917e-07
7.77187e-07
-1.21365e-06
-1.38847e-06
5.77661e-07
-0.00113242
-7.31443e-08
3.35293e-07
7.61755e-08
0.000254254
-0.000254441
4.33713e-07
0.00113312
1.14409e-06
8.82836e-07
-1.27533e-06
5.72519e-08
7.31999e-07
-5.8427e-07
-1.55247e-06
1.35141e-07
-5.35477e-07
0.000261417
5.3101e-07
-3.53959e-08
-0.000261634
0.00113391
9.30224e-07
-1.38585e-06
5.80013e-07
-1.21146e-06
7.7978e-07
0.000253989
4.71115e-09
1.98423e-08
-0.000254029
4.60361e-08
2.66905e-07
2.8004e-10
-1.25346e-08
-9.13966e-08
0.000237451
2.65895e-08
-0.000197544
-4.42671e-09
1.45651e-07
-1.92377e-08
0.000197702
8.5079e-08
-2.89366e-11
-0.000237219
-7.62495e-09
-7.97575e-09
1.84031e-09
-3.31044e-08
5.22707e-07
0.000261141
4.29367e-07
8.67425e-07
1.11381e-06
-5.27288e-07
1.30808e-07
7.33968e-07
-5.83121e-07
6.32148e-08
-1.27195e-06
0.000253639
3.69182e-08
-0.00025367
1.72337e-08
-0.0011347
-4.11025e-09
0.00113543
9.15519e-07
-1.3807e-06
5.84658e-07
-1.20689e-06
7.84247e-07
7.25172e-08
3.29076e-07
0.000253889
2.87386e-09
9.25308e-07
7.81878e-07
-1.20925e-06
-1.38347e-06
5.82298e-07
-1.61076e-09
0.000261051
-0.000260981
-2.4774e-08
4.11886e-08
2.66874e-07
-9.13858e-08
-1.21408e-08
0.00023741
2.68783e-08
1.44365e-08
0.000197447
-0.000197483
-4.68146e-09
1.45679e-07
-4.62295e-09
-1.92585e-08
0.000197642
8.50577e-08
0.000237108
-0.000237177
-7.97414e-09
-7.57478e-09
5.22712e-07
-3.32394e-08
0.000261113
4.25719e-07
-1.55125e-06
8.66848e-07
7.33904e-07
-5.80383e-07
-1.2719e-06
5.96577e-08
1.14578e-06
-5.32757e-07
1.36772e-07
-0.00113464
0.00113537
9.15847e-07
-1.38052e-06
5.8467e-07
-1.20692e-06
7.84476e-07
6.31308e-09
0.000253552
3.98935e-08
-0.000253588
1.69331e-08
9.25722e-07
7.82117e-07
-1.20925e-06
-1.38324e-06
5.82282e-07
-7.05106e-08
7.24706e-08
3.2656e-07
0.000253807
0.00026102
-0.000260953
4.11836e-08
-2.4274e-08
-7.71386e-11
0.000237609
-0.000237686
-8.57838e-09
-8.53752e-09
0.000197826
-5.57646e-09
-0.000197867
-9.36298e-08
0.000261327
-0.00026126
5.19913e-08
-2.73135e-08
4.49513e-07
0.00113275
8.76533e-07
-1.5494e-06
1.35191e-07
-5.32623e-07
-1.26954e-06
5.74303e-08
-5.86616e-07
7.23899e-07
-0.0011322
0.00113376
9.23757e-07
-1.38022e-06
5.7738e-07
-1.20854e-06
7.74219e-07
-0.00113302
-3.11895e-08
0.000254032
1.99614e-08
-0.000254072
4.59502e-08
0.000237571
-0.000237645
-1.06058e-08
-8.8115e-09
0.000197769
1.48716e-08
-5.48734e-09
-0.00019781
-2.66784e-07
1.31593e-09
-3.25947e-08
5.22612e-07
0.000261133
4.24295e-07
8.67069e-07
1.11357e-06
-5.27164e-07
1.3088e-07
7.28451e-07
-5.82854e-07
-1.26643e-06
6.30397e-08
-2.45966e-08
3.44471e-08
-0.000253706
1.7229e-08
-0.00113457
-5.50361e-09
9.1524e-07
-1.37508e-06
5.79066e-07
7.76068e-07
-1.20408e-06
-1.45536e-07
7.23288e-08
3.31417e-07
0.000253924
-1.22815e-09
9.19651e-07
7.76443e-07
-1.20361e-06
-1.37506e-06
5.79555e-07
-8.53321e-08
-1.59063e-09
-0.000260976
-2.50419e-08
4.41271e-08
-5.90784e-11
-1.232e-08
-9.34951e-08
0.000237448
0.000197512
-0.000197546
-4.70632e-09
-1.92327e-08
0.000197704
-2.20562e-11
0.000237144
-0.000237216
-7.84123e-09
-5.97208e-09
-2.66823e-07
5.22587e-07
-3.35747e-08
0.000261106
4.36271e-07
-1.55093e-06
8.66368e-07
7.25774e-07
-5.79909e-07
-1.26342e-06
5.63865e-08
1.14562e-06
-5.32541e-07
1.36864e-07
-0.0011345
0.00113523
9.15236e-07
-1.37488e-06
5.81963e-07
-1.20403e-06
7.78917e-07
-2.6793e-08
6.26519e-09
0.000253594
3.45283e-08
-0.000253626
1.72436e-08
9.19493e-07
7.76602e-07
-1.20634e-06
-1.37758e-06
5.79655e-07
-1.45563e-07
-7.04728e-08
7.24453e-08
3.28863e-07
0.000253847
-8.52063e-08
0.00026101
-0.000260949
4.68337e-08
-2.44291e-08
-9.13564e-08
-1.25524e-08
0.000237408
1.44041e-08
0.000197453
-0.000197489
-4.54522e-09
-4.59022e-09
-1.91713e-08
0.000197647
0.000237106
-0.000237175
-8.04557e-09
-7.43285e-09
1.86466e-07
-1.36446e-08
0.000285854
-0.000286032
-6.7527e-08
1.88545e-07
-1.38291e-08
0.000285995
-0.000286173
0.000276209
-0.000274105
7.08022e-08
7.61567e-08
0.000285529
2.30542e-08
-0.000285602
6.31647e-08
-7.67729e-09
0.00028567
2.2895e-08
-0.000285741
6.06072e-08
4.2874e-09
9.93553e-05
-9.94272e-05
9.92979e-05
-1.47852e-08
-9.92908e-05
6.15371e-09
-9.9143e-05
6.54594e-08
9.92045e-05
1.51403e-06
0.00027416
-5.05923e-07
-5.10445e-07
0.000285049
5.83024e-08
-0.000285117
2.23346e-08
-6.025e-09
-6.05365e-09
0.00028519
5.57606e-08
-0.000285259
2.48935e-08
-1.38606e-08
1.80619e-07
0.000285357
-6.54375e-08
7.05024e-08
-1.65004e-08
1.82797e-07
0.000285498
-1.43367e-08
9.91746e-05
-9.91663e-05
4.66639e-09
9.92278e-05
-9.10935e-08
0.000261313
-0.000261248
5.20346e-08
-2.55721e-08
0.00113287
9.57201e-07
7.74275e-07
-1.21076e-06
5.72092e-07
-1.38557e-06
-0.00113227
-1.51267e-07
3.4014e-07
7.62354e-08
0.000254253
-7.31025e-08
-0.000254445
3.93725e-07
0.00113372
8.66437e-07
-1.51526e-06
1.23109e-07
-5.32762e-07
-1.27231e-06
6.10491e-08
-5.84065e-07
7.29336e-07
-2.79216e-07
0.000261399
5.33609e-07
-3.53843e-08
-0.000261616
0.00113359
9.2401e-07
-1.38289e-06
5.77244e-07
-1.20581e-06
7.76752e-07
-3.09612e-08
0.000253994
2.00779e-08
-0.00025403
4.28242e-08
7.49469e-11
0.000237603
-0.000237677
-8.49789e-09
-1.06436e-08
-2.03247e-08
0.00019803
-0.000198156
3.86187e-10
0.00023792
-1.36621e-08
-9.48687e-08
-0.000238089
0.000197822
-5.16926e-09
-0.000197863
0.000237563
-0.000237636
-8.19462e-09
-1.05716e-08
-2.04046e-08
0.000197967
-0.000198094
-4.32179e-09
0.000237879
-1.34e-08
-9.4824e-08
-0.000238049
0.00019776
1.48425e-08
-5.29821e-09
-0.000197801
1.27562e-09
-2.66838e-07
5.20025e-07
-3.29833e-08
0.000261123
4.35502e-07
8.66854e-07
1.10804e-06
-5.27222e-07
1.30789e-07
7.287e-07
-5.82817e-07
-1.26639e-06
6.34614e-08
-0.00113442
-7.64113e-10
9.1513e-07
-1.37518e-06
5.81851e-07
7.78962e-07
-1.20138e-06
-2.65753e-08
3.67707e-08
-0.000253698
1.73441e-08
1.16065e-08
9.1971e-07
7.76671e-07
-1.20649e-06
-1.37782e-06
5.76714e-07
-1.45508e-07
7.26681e-08
3.28816e-07
0.000253917
-7.85678e-10
-8.52453e-08
-0.000260966
4.41077e-08
-2.52263e-08
-2.69309e-07
5.22576e-07
-3.37556e-08
0.000261094
4.23965e-07
-1.51129e-06
8.67036e-07
7.31243e-07
-5.82901e-07
-1.26883e-06
6.34014e-08
1.10548e-06
-5.27253e-07
1.30877e-07
-0.00113434
0.00113507
9.14964e-07
-1.37756e-06
5.81893e-07
-1.20127e-06
7.81373e-07
-2.65995e-08
6.18034e-09
0.000253556
3.94166e-08
-0.000253592
1.72103e-08
9.19441e-07
7.78982e-07
-1.20639e-06
-1.38031e-06
5.76713e-07
-1.45528e-07
-7.0527e-08
7.26317e-08
3.28895e-07
0.000253808
-8.26218e-08
0.000261001
-0.000260937
4.11833e-08
-2.3405e-08
2.76557e-10
-1.26699e-08
-9.13315e-08
0.00023744
0.000197506
-0.000197543
-4.31976e-09
-1.90255e-08
0.000197701
-1.11273e-10
0.000237138
-0.000237208
-7.49242e-09
-8.10827e-09
-1.25353e-08
-9.13124e-08
0.000237398
1.43441e-08
0.000197444
-0.00019748
-4.34714e-09
-4.69992e-09
-1.90172e-08
0.000197638
0.000237099
-0.000237166
-7.29147e-09
-8.02551e-09
9.92775e-05
-9.92704e-05
9.92729e-05
-9.92658e-05
0.000274129
-5.05244e-07
-5.08262e-07
-6.07995e-09
5.35099e-08
-0.000285198
2.1911e-08
-6.04975e-09
5.80378e-08
-0.000285121
2.23252e-08
-6.55071e-08
-1.33556e-08
1.82947e-07
0.00028544
-6.53788e-08
-1.38761e-08
1.82851e-07
0.000285358
9.91542e-05
-9.91459e-05
9.92074e-05
9.91496e-05
-9.91413e-05
9.92028e-05
6.38464e-08
9.91118e-05
4.43211e-09
-9.90527e-05
6.34436e-08
9.90995e-05
4.42112e-09
-9.90408e-05
6.80933e-08
1.79902e-07
-1.35991e-08
0.000285018
6.79923e-08
1.7962e-07
-1.36729e-08
0.000284943
-1.15881e-06
-1.11868e-06
-0.000274327
8.08227e-08
8.62732e-08
-7.49325e-09
2.07396e-08
-0.00028479
5.12376e-08
-7.48674e-09
2.08389e-08
-0.000284715
4.88458e-08
7.71124e-08
-0.00023674
-5.82295e-09
-6.63246e-09
1.40365e-07
-1.80865e-08
0.000197339
2.57427e-07
0.000236961
-8.8298e-08
-1.16346e-08
2.26767e-08
-3.60815e-09
-0.000197192
-8.49771e-10
-0.000260667
-2.26584e-08
3.59106e-08
3.23287e-07
6.91609e-08
0.000253493
0.0011363
3.66388e-09
9.11211e-07
7.86862e-07
-1.2074e-06
-1.37818e-06
5.89841e-07
4.28886e-07
8.51828e-07
-1.55525e-06
1.41661e-07
-5.24366e-07
-1.26149e-06
6.98746e-08
-5.71676e-07
7.39797e-07
8.84838e-10
0.00026083
-2.98181e-08
5.14181e-07
1.4652e-08
-0.000253281
3.11393e-08
-3.58382e-09
9.0708e-07
-1.37507e-06
5.92151e-07
-1.20489e-06
7.89195e-07
-0.000260641
-2.15904e-08
3.59165e-08
-6.5219e-08
3.23214e-07
6.89124e-08
0.00025338
0.00113626
9.11429e-07
7.86768e-07
-1.20737e-06
-1.37782e-06
5.89774e-07
4.23583e-07
1.15609e-06
8.52643e-07
-1.26134e-06
6.6526e-08
7.39665e-07
-5.68846e-07
-1.5527e-06
1.41519e-07
-5.24499e-07
0.000260803
-3.13521e-08
5.14138e-07
4.81732e-09
1.46415e-08
-0.000253171
3.128e-08
9.07238e-07
-1.37484e-06
5.92116e-07
-1.20489e-06
7.89052e-07
1.7964e-07
-1.30828e-08
0.000284886
-6.58992e-08
1.79753e-07
-1.33063e-08
0.000285029
-0.000274308
8.08939e-08
8.34854e-08
2.3543e-08
-0.000284656
4.89249e-08
-2.56702e-09
2.17172e-08
-0.000284801
4.91806e-08
4.84671e-09
9.91055e-05
-1.43059e-08
-9.90468e-05
-1.69574e-09
-0.000260658
-2.22045e-08
3.30566e-08
3.2062e-07
6.9161e-08
0.000253458
0.00113615
3.2509e-09
9.11115e-07
7.86591e-07
-1.20448e-06
-1.37797e-06
5.86922e-07
4.22303e-07
8.52908e-07
-1.51553e-06
1.35753e-07
-5.1896e-07
-1.26128e-06
7.00385e-08
-5.7156e-07
7.39685e-07
1.85075e-09
0.000260821
-3.09353e-08
5.16778e-07
1.46766e-08
-0.000253246
3.10036e-08
-3.88743e-09
9.06755e-07
-1.37513e-06
5.89239e-07
-1.20198e-06
7.88927e-07
7.70256e-08
-0.000236728
-5.74855e-09
-6.73298e-09
1.40332e-07
-1.8133e-08
0.00019733
2.57368e-07
0.00023695
-8.82816e-08
-1.1244e-08
2.28326e-08
-3.95192e-09
-0.00019718
-0.000260631
3.30848e-08
-2.17458e-08
0.00113609
9.11366e-07
7.86809e-07
-1.20455e-06
-1.3777e-06
5.86941e-07
-6.80416e-08
3.18114e-07
6.90315e-08
0.000253373
4.2354e-07
1.15077e-06
8.52025e-07
-1.26122e-06
6.66566e-08
7.39754e-07
-5.68796e-07
-1.54713e-06
1.41718e-07
-5.24367e-07
0.000260793
5.16845e-07
-3.10928e-08
9.06977e-07
-1.37466e-06
5.89269e-07
-1.20204e-06
7.89058e-07
7.71219e-09
1.42859e-08
-0.000253162
3.40207e-08
-2.0475e-11
-0.000236766
-6.98999e-09
-3.72842e-09
-1.81276e-08
0.000197392
-2.73532e-11
0.000236988
-1.11955e-08
-9.03864e-08
-3.97904e-09
-0.000197242
-7.71796e-08
-0.000260626
3.88694e-08
-2.16981e-08
0.00113596
9.10843e-07
7.81222e-07
-1.20161e-06
5.84217e-07
-1.37209e-06
-1.40277e-07
3.23064e-07
6.90354e-08
0.00025341
4.23495e-07
8.51824e-07
-1.54415e-06
1.38779e-07
-5.21355e-07
-1.25265e-06
6.32735e-08
-5.65737e-07
7.31525e-07
-2.5729e-07
0.000260789
5.11265e-07
-3.1396e-08
9.0655e-07
-1.36904e-06
5.86477e-07
-1.19915e-06
7.83486e-07
-2.2779e-08
1.46124e-08
-0.000253199
2.86623e-08
-0.000236726
-5.81413e-09
-6.58963e-09
-4.92254e-09
-1.80501e-08
0.000197335
0.000236948
-8.82516e-08
-1.16808e-08
1.40319e-08
-3.83226e-09
-0.000197185
1.74987e-07
-1.40443e-08
0.000284884
-6.34514e-08
1.77248e-07
-1.6669e-08
0.000285025
-0.000274294
8.11049e-08
8.63586e-08
2.16538e-08
-0.000284655
5.37087e-08
-4.50199e-09
2.4251e-08
-0.000284797
5.1237e-08
4.94519e-09
9.91062e-05
-1.39598e-08
-9.90476e-05
-7.46116e-08
-0.000260615
3.31749e-08
-2.1176e-08
0.0011358
9.10658e-07
7.83658e-07
-1.2017e-06
5.81286e-07
-1.37476e-06
-1.40236e-07
3.17945e-07
6.92299e-08
0.000253377
4.22098e-07
8.52471e-07
-1.5072e-06
1.35784e-07
-5.18817e-07
-1.25814e-06
7.02815e-08
-5.7144e-07
7.36925e-07
-2.59755e-07
0.000260777
5.1668e-07
-3.19321e-08
9.06357e-07
-1.37173e-06
5.86394e-07
-1.19645e-06
7.85934e-07
-2.26058e-08
1.46202e-08
-0.000253166
3.35966e-08
-1.58803e-10
-0.000236759
-6.58136e-09
-5.90593e-09
-1.79434e-08
0.000197389
1.19047e-10
0.000236981
-1.172e-08
-8.8211e-08
-3.60868e-09
-0.000197239
-0.000236717
-6.7134e-09
-5.84823e-09
-5.04385e-09
-1.78937e-08
0.000197326
0.000236939
-1.16972e-08
-8.81682e-08
1.3961e-08
-3.64038e-09
-0.000197177
9.90858e-05
-9.90271e-05
9.90811e-05
-9.90224e-05
-3.87351e-10
8.64089e-08
0.000145584
-0.000145666
-3.77059e-09
-9.31299e-08
-1.27749e-08
-0.000237867
-1.95209e-10
2.71854e-07
-0.000173727
-2.81102e-10
-4.88763e-11
0.000173717
-0.000230529
-7.27531e-09
-8.63741e-09
0.000230467
6.9878e-08
-0.000173821
-1.29503e-10
-0.000230687
-1.72072e-08
2.48845e-07
-2.34228e-10
0.000145577
-8.03663e-05
-1.39098e-08
-8.6421e-11
8.03803e-05
-6.15626e-08
0.000270222
1.7652e-08
1.9895e-07
-0.000270397
-6.5263e-09
0.000198006
1.73544e-08
3.35173e-08
3.50273e-09
-8.04313e-05
8.92588e-09
0.00027015
4.24983e-08
-0.000145675
-1.52054e-10
8.59191e-09
-1.20538e-08
-8.81957e-09
-4.3152e-12
9.80306e-08
7.09555e-10
0.000173833
-7.73871e-11
-0.000173928
-8.80212e-08
0.000230752
2.53384e-07
-0.000230913
-0.000145759
-5.57976e-11
7.38494e-08
6.04342e-08
8.03161e-05
-0.000269978
1.47577e-08
0.000269909
3.95035e-08
-1.98754e-08
-4.48145e-09
1.48541e-07
1.95391e-07
8.03306e-05
9.93459e-05
-1.53596e-08
6.34439e-09
-9.93369e-05
4.5092e-09
6.89546e-08
8.64429e-08
-2.28185e-10
0.000145583
-0.000145665
-3.90023e-09
-1.32565e-08
-9.31011e-08
-0.000237855
1.52132e-10
2.71815e-07
-0.000230519
-7.2537e-09
-8.6298e-09
0.000230457
6.98396e-08
-0.000173725
-3.26753e-10
9.1369e-11
0.000173714
-0.000230678
-1.73613e-08
2.48841e-07
-0.000173818
8.08569e-11
-1.68861e-10
0.000145576
-8.03675e-05
-1.4181e-08
-9.14205e-12
8.03817e-05
-6.15751e-08
0.000270216
1.78795e-08
1.98923e-07
-0.000270393
-5.95003e-09
0.000197989
1.54198e-08
3.32359e-08
3.62987e-09
-8.04327e-05
9.24518e-09
0.000270145
4.23643e-08
-0.000145674
8.54926e-09
-2.7029e-11
-8.85552e-09
-1.20099e-08
1.43428e-10
9.80093e-08
-8.80109e-08
0.000230742
2.53404e-07
-0.000230904
5.44572e-10
0.00017383
1.07356e-10
-0.000173926
-0.000145758
7.38864e-08
1.08141e-10
6.04992e-08
8.03173e-05
-0.000269972
1.48216e-08
0.000269904
3.94259e-08
-2.00248e-08
-3.77947e-09
1.48311e-07
1.95409e-07
8.03319e-05
9.93385e-05
-1.5184e-08
8.76311e-09
4.44146e-09
6.65094e-08
-4.09518e-08
-4.09376e-08
0.000218974
-0.000219099
1.02381e-07
1.0474e-07
-8.19489e-05
8.42891e-09
-1.72014e-08
8.19577e-05
-8.19368e-05
8.34538e-09
-1.71413e-08
8.19456e-05
-8.20141e-05
2.42552e-08
-8.2002e-05
2.4281e-08
3.85274e-08
3.85867e-08
0.000218914
7.03026e-08
-3.84961e-08
-4.02761e-08
0.000229021
5.73988e-08
-0.00022907
6.3254e-08
2.35003e-08
0.000285866
-8.65928e-09
-0.00028594
-3.82322e-09
0.000260212
7.78244e-08
-0.000260236
7.91941e-08
1.73509e-08
0.00018719
-0.000187222
7.27998e-08
-3.84105e-08
-3.82862e-08
0.000228944
5.74641e-08
-0.000228998
6.30941e-08
2.33858e-08
0.00028578
-8.62295e-09
-3.74318e-09
-0.000285854
0.000260089
7.31496e-08
8.40744e-08
-0.000260111
1.72754e-08
0.000187135
-0.000187167
-9.12816e-09
-9.02953e-09
-0.00021916
-8.20059e-05
-8.19937e-05
1.46304e-07
-1.28157e-07
0.00022887
2.3522e-07
-0.000187073
3.47597e-08
0.000187043
1.88185e-07
-1.32433e-08
-6.65508e-08
7.17288e-08
-0.000260029
-6.99443e-08
0.000260009
7.23478e-08
7.85828e-08
3.28122e-07
1.89597e-07
0.000228816
5.72701e-08
1.46333e-07
-1.26158e-07
0.000228798
2.30948e-07
-0.000187019
3.67049e-08
0.000186988
1.85762e-07
-1.37925e-08
-6.64294e-08
7.17942e-08
-0.000259909
-7.22851e-08
0.000259891
6.98834e-08
8.09703e-08
3.22937e-07
1.89599e-07
0.000228746
5.50526e-08
1.00786e-09
8.06707e-08
0.000145246
-0.000145323
-4.85931e-09
-8.6891e-08
-1.12443e-08
-0.000236937
-2.57622e-11
2.52844e-07
-0.000173341
-1.28343e-09
1.77888e-11
-0.000229693
-2.79614e-09
-6.97809e-09
5.5228e-08
-0.000173427
1.75927e-11
-0.000229839
-1.57661e-08
2.31677e-07
-8.20084e-10
-8.01732e-05
-1.68012e-08
7.78531e-10
8.01892e-05
-5.74612e-08
0.000269285
1.6288e-08
-0.000269447
1.85209e-07
-3.82473e-09
0.000197374
1.40565e-08
2.46988e-08
4.68886e-09
-8.02354e-05
7.5438e-09
0.000269226
3.11795e-08
-0.000145327
1.14166e-09
3.87215e-09
-6.85862e-09
-7.18442e-09
1.29237e-10
8.10759e-08
-6.81002e-10
0.000173432
-0.00017352
-5.14814e-11
-8.19936e-08
0.000229894
-0.000230043
2.35899e-07
-0.000145405
6.73074e-11
5.88042e-08
5.66661e-08
8.01277e-05
-0.000269067
1.74248e-08
2.84993e-08
-1.7478e-08
-5.10518e-09
1.37791e-07
1.82037e-07
9.90971e-05
-1.39013e-08
5.86918e-09
5.28061e-09
6.27593e-08
8.06764e-08
1.01353e-09
0.000145245
-0.000145321
-4.85059e-09
-1.14774e-08
-8.6862e-08
-0.000236925
1.34638e-10
2.52768e-07
-0.000229682
-2.78914e-09
-7.02307e-09
5.52007e-08
-0.000173338
-1.3127e-09
1.11747e-10
-0.000229829