/*--------------------------------*- C++ -*----------------------------------*\
| =========                 |                                                 |
| \\      /  F ield         | OpenFOAM: The Open Source CFD Toolbox           |
|  \\    /   O peration     | Version:  2312                                  |
|   \\  /    A nd           | Website:  www.openfoam.com                      |
|    \\/     M anipulation  |                                                 |
\*---------------------------------------------------------------------------*/
FoamFile
{
    version     2.0;
    format      ascii;
    arch        "LSB;label=32;scalar=64";
    class       volScalarField;
    location    "850";
    object      p;
}
// * * * * * * * * * * * * * * * * * * * * * * * * * * * * * * * * * * * * * //

dimensions      [0 2 -2 0 0 0 0];

internalField   nonuniform List<scalar> 
43168
(
0.000710852
0.0007108
0.0007108
0.000712376
0.000718024
0.000719635
0.000719635
0.000718023
0.000719635
0.000719635
0.000719635
0.000719635
0.000718024
0.000719635
0.000719635
0.000718023
0.000712376
0.0007108
0.0007108
0.000712375
0.0007108
0.0007108
0.0007108
0.000712376
0.0007108
0.00073514
0.00073514
0.000719688
0.000719688
0.000719688
0.000719688
0.000699802
0.000712943
0.000712931
0.000699804
0.00071295
0.000699803
0.000699802
0.000712944
0.000712931
0.000699804
0.000710852
0.000710852
0.000710852
0.000699883
0.000712896
0.000710819
0.000701963
0.000712847
0.000699839
0.000701983
0.000712951
0.000699803
0.000699883
0.000710819
0.000712896
0.000701963
0.000712847
0.000701982
0.000699839
0.000712943
0.000712943
0.000700351
0.000699798
0.000699797
0.000735139
0.000735139
0.00073569
0.000735134
0.000735133
0.000717474
0.000730617
0.000717474
0.000730617
0.000730044
0.000717469
0.000717469
0.000730609
0.000730609
0.000737301
0.000735176
0.000730598
0.000717475
0.00073061
0.000717473
0.000730598
0.000717475
0.000730609
0.000717473
0.000730514
0.000728469
0.00071751
0.000719655
0.000730563
0.000728489
0.000717555
0.000730514
0.000728469
0.00071751
0.000719655
0.000730562
0.000728489
0.000717555
0.000717474
0.000730617
0.000730042
0.000717469
0.000717469
0.000730609
0.000717474
0.000737301
0.000735175
0.000730598
0.000717475
0.00073061
0.000717473
0.000730514
0.000728469
0.000717511
0.000719655
0.000730562
0.000728489
0.000717555
0.000730598
0.000717475
0.00073061
0.000717473
0.000730513
0.000728469
0.000719655
0.00071751
0.000728489
0.000730563
0.000717555
0.00071751
0.000719654
0.000717555
0.000717475
0.000717473
0.000719655
0.00071751
0.000717555
0.000717475
0.000717473
0.000717474
0.000730617
0.000730043
0.000717468
0.000717469
0.00073061
0.00073061
0.000717474
0.000730617
0.000730514
0.000728469
0.000719655
0.00071751
0.000728489
0.000730563
0.000717555
0.000730514
0.000728469
0.000719655
0.00071751
0.000728488
0.000730563
0.000717555
0.000730598
0.000717475
0.00073061
0.000717473
0.000730597
0.000717475
0.00073061
0.000717474
0.000730042
0.000717468
0.000717469
0.000730609
0.000717474
0.000717474
0.000730617
0.000712951
0.000699803
0.000712951
0.000699803
0.000712943
0.000712943
0.000700352
0.000699798
0.000699798
0.000695278
0.000695278
0.000694702
0.00069527
0.00069527
0.000699802
0.000712943
0.000712931
0.000699804
0.000699883
0.000712896
0.00071082
0.000701963
0.000712847
0.000699839
0.000701982
0.000699883
0.000712895
0.000710819
0.000701963
0.000712847
0.000699839
0.000701982
0.000695258
0.000695271
0.000695258
0.000695271
0.000695174
0.000693125
0.000695223
0.000693144
0.000695174
0.000693125
0.000695223
0.000693144
0.000712942
0.000712943
0.000700352
0.000699798
0.000699798
0.000712951
0.000699803
0.000695278
0.000694702
0.00069527
0.00069527
0.000695278
0.000699883
0.000712896
0.000710819
0.000701963
0.000712847
0.000699839
0.000701982
0.000699802
0.000712943
0.000712931
0.000699804
0.000699883
0.000710819
0.000712896
0.000701963
0.000712847
0.000701982
0.000699839
0.000695259
0.000695271
0.000695174
0.000693125
0.000695223
0.000693144
0.000695259
0.000695271
0.000695174
0.000693125
0.000693144
0.000695223
0.000699802
0.000712943
0.000712931
0.000699804
0.000699883
0.00071082
0.000712896
0.000701963
0.000712847
0.000701983
0.000699839
0.000699802
0.000712943
0.000712931
0.000699804
0.000695174
0.000693125
0.000695223
0.000693144
0.000695258
0.000695271
0.000695174
0.000693125
0.000693144
0.000695223
0.000695259
0.000695271
0.000712943
0.000712943
0.000700351
0.000699797
0.000699798
0.000712951
0.000699803
0.000695278
0.000694702
0.00069527
0.00069527
0.000695278
0.000699883
0.000710819
0.000712896
0.000701963
0.000712847
0.000701982
0.000699839
0.000699802
0.000712944
0.000712931
0.000699804
0.000699802
0.000712943
0.00071293
0.000699804
0.000695174
0.000693125
0.000693144
0.000695223
0.000695174
0.000693125
0.000693144
0.000695223
0.000695258
0.000695271
0.000695258
0.000695271
0.000712951
0.000699803
0.000712951
0.000699803
0.000694702
0.00069527
0.00069527
0.000695278
0.000695278
0.000739452
0.000735127
0.000739441
0.000739445
0.000735136
0.000739441
0.000704118
0.000704096
0.000699796
0.0006998
0.000704116
0.000704099
0.000699796
0.000708637
0.000712948
0.00070864
0.000712955
0.000708628
0.000708633
0.000708638
0.000712951
0.000712934
0.000712954
0.000708632
0.000708637
0.00070412
0.000699791
0.000704108
0.000704112
0.0006998
0.000708639
0.000704115
0.000704118
0.000704096
0.000699801
0.000699796
0.000704099
0.000704116
0.000699796
0.000708637
0.000712948
0.000708641
0.000712955
0.000708628
0.000708633
0.000708638
0.000712934
0.000712952
0.000712954
0.000708637
0.000708633
0.00070412
0.000699792
0.000704108
0.000704112
0.0006998
0.000708639
0.000704115
0.000704122
0.000699798
0.000699798
0.000704125
0.000704125
0.000699789
0.000708657
0.000712886
0.000712946
0.000708634
0.000712919
0.000708686
0.000708642
0.000708657
0.000712886
0.000712946
0.000708634
0.00071292
0.000708686
0.000708642
0.000708625
0.00071296
0.00071296
0.000712957
0.000708635
0.000708635
0.000704084
0.000699806
0.000704107
0.00069985
0.00070405
0.000704111
0.00069982
0.000704084
0.000699806
0.000704107
0.00069985
0.00070405
0.000704111
0.00069982
0.000739448
0.000739448
0.000739454
0.000735134
0.000735135
0.000739458
0.000739458
0.000735125
0.000739417
0.000735142
0.00073944
0.000735187
0.000739444
0.000735157
0.000739383
0.000739416
0.000735142
0.00073944
0.000735187
0.000739444
0.000735157
0.000739383
0.000721785
0.000726307
0.000721785
0.000726308
0.000726294
0.000730627
0.000730627
0.000730624
0.000726303
0.000726303
0.000721753
0.000717522
0.000721777
0.000717477
0.00072178
0.000721719
0.000717492
0.000721753
0.000717522
0.000721777
0.000717477
0.00072178
0.00072172
0.000717492
0.000726325
0.000730613
0.000730552
0.000726302
0.000730586
0.00072631
0.000726355
0.000726325
0.000730613
0.000730552
0.000726302
0.000730586
0.00072631
0.000726355
0.000721791
0.00071747
0.00071747
0.000721795
0.000721795
0.00071746
0.000726301
0.000730618
0.000730601
0.000726306
0.00073062
0.0007263
0.000726305
0.000721789
0.000721777
0.000717462
0.000717471
0.000721782
0.000726305
0.000730614
0.000726308
0.000730622
0.000726296
0.000721787
0.000721765
0.000717467
0.000717472
0.000717467
0.000721785
0.000721768
0.0007263
0.000730618
0.000730601
0.000726306
0.00073062
0.0007263
0.000726305
0.000721789
0.000721777
0.000717462
0.000721781
0.000717471
0.000726304
0.000730614
0.000726308
0.000730621
0.000726296
0.000721787
0.000721765
0.000717467
0.000717471
0.000721785
0.000721768
0.000717467
0.000721784
0.000726307
0.000721753
0.000717521
0.000721776
0.000717477
0.00072172
0.00072178
0.000717491
0.000721752
0.000717521
0.000721776
0.000717476
0.00072178
0.000721719
0.000717492
0.000730552
0.000726302
0.000726355
0.00072179
0.000717469
0.000717469
0.000721794
0.000721794
0.00071746
0.000721785
0.000726301
0.000730601
0.000730618
0.000726306
0.00073062
0.000726305
0.0007263
0.000721789
0.000721777
0.000717463
0.000717471
0.000721782
0.000726305
0.000730614
0.000726309
0.000730621
0.000726296
0.000721787
0.000721765
0.000717472
0.000717467
0.000717467
0.000721769
0.000721786
0.000726301
0.000730618
0.000730601
0.000726306
0.00073062
0.0007263
0.000726305
0.000721789
0.000721777
0.000717462
0.000721782
0.000717471
0.000726305
0.000730614
0.000726308
0.000730622
0.000726296
0.000721788
0.000721765
0.000717467
0.000717471
0.000721786
0.000721769
0.000717467
0.000721789
0.000721777
0.000717463
0.000721781
0.000717471
0.000721787
0.000721764
0.000717472
0.000717467
0.000721767
0.000721785
0.000717467
0.000721789
0.000721777
0.000717462
0.000721781
0.000717471
0.000721787
0.000721765
0.000717467
0.000717471
0.000721785
0.000721768
0.000717467
0.000721785
0.000726307
0.000726293
0.000730627
0.000730627
0.000730624
0.000726303
0.000726303
0.000721754
0.000717521
0.000721777
0.000717477
0.00072172
0.00072178
0.000717491
0.000721753
0.000717522
0.000721777
0.000717477
0.00072178
0.00072172
0.000717492
0.000726325
0.000730613
0.000730553
0.000726302
0.000726354
0.000730586
0.00072631
0.000726325
0.000730613
0.000730552
0.000726302
0.000730586
0.00072631
0.000726355
0.000721791
0.00071747
0.00071747
0.000721795
0.000721794
0.00071746
0.000721785
0.000726307
0.0007263
0.000730601
0.000730618
0.000726307
0.00073062
0.000726305
0.0007263
0.000721789
0.000721777
0.000717462
0.000721782
0.000717471
0.000726304
0.000730614
0.000726308
0.000730622
0.000726296
0.000721788
0.000721765
0.000717472
0.000717467
0.000721768
0.000721785
0.000717467
0.0007263
0.000730601
0.000730618
0.000726307
0.00073062
0.000726305
0.000726301
0.000721789
0.000721777
0.000717462
0.000721782
0.000717471
0.000726304
0.000730614
0.000726308
0.000730622
0.000726296
0.000721787
0.000721764
0.000717472
0.000717467
0.000721768
0.000721785
0.000717467
0.000726293
0.000726303
0.000726303
0.000721753
0.000717521
0.000721777
0.000717477
0.000717491
0.000721719
0.00072178
0.000721754
0.000717521
0.000721777
0.000717477
0.000717491
0.00072172
0.00072178
0.000726325
0.000726302
0.000726355
0.00072631
0.000726325
0.000730552
0.000726302
0.000726354
0.00072631
0.000721791
0.000717469
0.000717469
0.00071746
0.000721794
0.000721794
0.000721784
0.000726307
0.000721784
0.000726307
0.000708639
0.000704115
0.00070864
0.000704115
0.000704122
0.000699798
0.000699798
0.000704125
0.000704125
0.000699789
0.000708657
0.000712885
0.000712946
0.000708634
0.000712919
0.000708642
0.000708687
0.000708657
0.000712886
0.000712946
0.000708634
0.000712919
0.000708642
0.000708687
0.000708626
0.000712961
0.000712961
0.000712957
0.000708635
0.000708635
0.000704083
0.000699806
0.000704107
0.00069985
0.000704111
0.000699821
0.00070405
0.000704084
0.000699806
0.000704108
0.00069985
0.000704111
0.000699821
0.00070405
0.000690965
0.000690965
0.000690951
0.000695288
0.000695288
0.000695284
0.00069096
0.000690961
0.000690983
0.000695274
0.000695212
0.00069096
0.000695246
0.000690968
0.000691012
0.000690983
0.000695274
0.000695213
0.00069096
0.000695246
0.000690968
0.000691012
0.000704118
0.000704096
0.000699796
0.0006998
0.000704116
0.000704099
0.000699796
0.000708636
0.000712947
0.00070864
0.000712955
0.000708628
0.000708632
0.000708638
0.000712951
0.000712934
0.000708632
0.000712953
0.000708637
0.000704119
0.000699791
0.000704108
0.000704112
0.0006998
0.000690958
0.000695279
0.000695262
0.000690964
0.000695281
0.000690958
0.000690962
0.000690962
0.000695275
0.000690966
0.000695282
0.000690953
0.000690958
0.000695279
0.000695262
0.000690964
0.000695281
0.000690958
0.000690962
0.000690962
0.000695275
0.000690966
0.000695282
0.000690953
0.000704121
0.000699798
0.000699798
0.000704125
0.000704125
0.000699789
0.000708657
0.000712885
0.000712946
0.000708634
0.000708642
0.000712919
0.000708687
0.000708657
0.000712885
0.000712946
0.000708634
0.000708687
0.000712919
0.000708642
0.000708625
0.00071296
0.00071296
0.000708635
0.000712957
0.000708635
0.000704084
0.000699806
0.000704107
0.00069985
0.00070411
0.00070405
0.00069982
0.000704083
0.000699806
0.000704107
0.00069985
0.000704049
0.00070411
0.000699821
0.000708639
0.000704115
0.000690965
0.000690951
0.000695288
0.000695288
0.000695284
0.00069096
0.00069096
0.000690982
0.000695273
0.000695212
0.00069096
0.000691012
0.000695246
0.000690968
0.000690983
0.000695273
0.000695212
0.00069096
0.000695246
0.000690968
0.000691012
0.000690965
0.000704118
0.000704096
0.000699796
0.0006998
0.000704116
0.000704099
0.000699796
0.000708637
0.000712948
0.00070864
0.000712955
0.000708628
0.000708633
0.000708638
0.000712951
0.000712934
0.000708632
0.000712954
0.000708637
0.00070412
0.000699791
0.000704108
0.000704112
0.0006998
0.000690958
0.000695262
0.000695279
0.000690964
0.000695281
0.000690962
0.000690958
0.000690962
0.000695275
0.000690966
0.000695283
0.000690954
0.000690958
0.000695279
0.000695262
0.000690964
0.000695281
0.000690958
0.000690963
0.000690962
0.000695275
0.000690966
0.000695283
0.000690953
0.000704118
0.000704095
0.000699801
0.000699796
0.000704098
0.000704116
0.000699797
0.000708636
0.000712947
0.00070864
0.000708628
0.000712955
0.000708633
0.000708639
0.000712933
0.000712951
0.000708638
0.000712953
0.000708632
0.00070412
0.000699792
0.000704108
0.000704111
0.0006998
0.000704118
0.000704096
0.000699796
0.000699801
0.000704116
0.000704099
0.000699796
0.000708636
0.000712947
0.00070864
0.000712955
0.000708628
0.000708632
0.000708638
0.000712951
0.000712934
0.000712953
0.000708632
0.000708637
0.00070412
0.000699791
0.000704108
0.000704112
0.0006998
0.000690959
0.000695261
0.000695279
0.000690964
0.000695281
0.000690963
0.000690958
0.000690962
0.000695274
0.000690966
0.000695282
0.000690954
0.000690958
0.000695279
0.000695262
0.000690964
0.000695281
0.000690958
0.000690962
0.000690962
0.000695275
0.000690966
0.000695283
0.000690954
0.000704122
0.000699798
0.000699798
0.000704125
0.000704125
0.000699789
0.000708657
0.000712886
0.000712946
0.000708634
0.000708642
0.00071292
0.000708686
0.000708657
0.000712886
0.000712946
0.000708634
0.000708687
0.00071292
0.000708642
0.000708626
0.000712961
0.000712961
0.000708635
0.000712957
0.000708635
0.000704084
0.000699806
0.000704108
0.00069985
0.000704111
0.000704051
0.00069982
0.000704084
0.000699806
0.000704107
0.00069985
0.00070405
0.000704111
0.00069982
0.000708639
0.000704115
0.000690965
0.000690951
0.000695288
0.000695288
0.000695284
0.00069096
0.00069096
0.000690982
0.000695274
0.000695213
0.000690959
0.000691011
0.000695247
0.000690967
0.000690982
0.000695274
0.000695213
0.00069096
0.000695247
0.000690967
0.000691012
0.000690965
0.000704118
0.000704095
0.0006998
0.000699796
0.000704099
0.000704116
0.000699796
0.000708637
0.000712948
0.00070864
0.000708628
0.000712955
0.000708633
0.000708638
0.000712935
0.000712951
0.000708637
0.000712954
0.000708633
0.00070412
0.000699791
0.000704108
0.000704112
0.0006998
0.000704118
0.000704095
0.000699801
0.000699796
0.000704098
0.000704116
0.000699796
0.000708636
0.000712947
0.00070864
0.000712955
0.000708628
0.000708633
0.000708639
0.000712934
0.000712951
0.000712953
0.000708637
0.000708633
0.000704119
0.000699791
0.000704108
0.000704112
0.0006998
0.000690958
0.000695262
0.000695279
0.000690964
0.000695281
0.000690962
0.000690958
0.000690962
0.000695275
0.000690966
0.000695283
0.000690953
0.000690958
0.000695261
0.000695279
0.000690965
0.000695281
0.000690963
0.000690958
0.000690962
0.000695275
0.000690966
0.000695283
0.000690953
0.000708639
0.000704115
0.000708639
0.000704115
0.000690951
0.000695288
0.000695288
0.000695285
0.00069096
0.00069096
0.000690982
0.000695274
0.000695213
0.00069096
0.000695247
0.000691012
0.000690968
0.000690982
0.000695274
0.000695213
0.000690959
0.000695247
0.000691012
0.000690968
0.000690965
0.000690965
0.000737355
0.000710884
0.000710883
0.000702014
0.000702046
0.000702046
0.000702091
0.000710929
0.000708757
0.000712655
0.000712656
0.000709188
0.000712817
0.00070893
0.00070893
0.000721651
0.00072121
0.000717766
0.000717765
0.000721489
0.00072149
0.000717593
0.00072165
0.000721209
0.000717766
0.000717764
0.00072149
0.000721487
0.000717593
0.000721652
0.00072121
0.000717766
0.000717766
0.000721489
0.00072149
0.000717593
0.000721651
0.000721211
0.000717766
0.000717765
0.000717593
0.00072149
0.00072149
0.000708758
0.000712655
0.000712656
0.000709188
0.000712817
0.00070893
0.00070893
0.000708758
0.000712655
0.000712654
0.000709189
0.000708931
0.000712817
0.000708931
0.000708758
0.000712655
0.000712655
0.000709188
0.00070893
0.000712818
0.000708931
0.000728522
0.00071972
0.00071972
0.000728555
0.000728555
0.000728601
0.000719766
0.000728522
0.00071972
0.00071972
0.000728555
0.000728553
0.000728602
0.000719766
0.000728522
0.00071972
0.00071972
0.000728555
0.000728556
0.000728602
0.000719766
0.000728522
0.00071972
0.00071972
0.000728553
0.000728555
0.000728602
0.000719766
0.000710884
0.000710884
0.000702014
0.000702046
0.000702046
0.000702091
0.000710929
0.000710883
0.000710883
0.000702014
0.000702046
0.000702045
0.000702091
0.000710929
0.000710884
0.000710883
0.000702014
0.000702046
0.000702045
0.000702091
0.000710929
0.000693175
0.000693206
0.000693206
0.000693251
0.000693175
0.000693206
0.000693206
0.000693251
0.000693175
0.000693206
0.000693206
0.000693251
0.000693175
0.000693206
0.000693206
0.000693251
0.000703779
0.000704011
0.00069988
0.000700118
0.000704015
0.000703781
0.000700124
0.000708921
0.000712746
0.000712866
0.000708676
0.000712643
0.000708837
0.000708702
0.00070896
0.00070872
0.000712851
0.000712617
0.000712615
0.000708717
0.000708955
0.000703807
0.000699865
0.00070406
0.0007
0.000703911
0.00070403
0.000700085
0.000703779
0.000704011
0.000700118
0.00069988
0.000703781
0.000704015
0.000700124
0.000708921
0.000712747
0.000712866
0.000708676
0.000712643
0.000708836
0.000708702
0.00070896
0.00070872
0.000712617
0.000712852
0.000712615
0.000708955
0.000708717
0.000703807
0.000699865
0.00070406
0.0007
0.000703911
0.00070403
0.000700084
0.000703981
0.00070354
0.000700094
0.000700093
0.000703819
0.00070382
0.000699921
0.000739315
0.000738875
0.000735432
0.000735431
0.000735258
0.000739154
0.000739154
0.000726426
0.000726858
0.000730322
0.000730323
0.000730484
0.0007266
0.000726599
0.000739141
0.000735202
0.000739393
0.000735337
0.000739364
0.000739245
0.000735422
0.000726629
0.000730518
0.000730284
0.000726388
0.000730282
0.000726385
0.000726624
0.000721477
0.000717671
0.00072173
0.000717537
0.000721581
0.0007217
0.000717756
0.00072659
0.000730533
0.000730414
0.000726344
0.000726505
0.00073031
0.00072637
0.000721449
0.000721681
0.000717552
0.00071779
0.000721685
0.000721451
0.000717796
0.00072663
0.000730518
0.000730284
0.000726388
0.000730282
0.000726385
0.000726624
0.000721476
0.00071767
0.000721729
0.000717536
0.0007217
0.00072158
0.000717756
0.00072659
0.000730532
0.000730414
0.000726344
0.000730309
0.00072637
0.000726505
0.000721449
0.000721681
0.000717552
0.00071779
0.000721685
0.000721451
0.000717796
0.000726859
0.00073032
0.0007266
0.000739393
0.000735337
0.000739245
0.00072663
0.000730518
0.000730284
0.000726388
0.000730282
0.000726385
0.000726625
0.000721477
0.000717671
0.00072173
0.000717537
0.000721581
0.0007217
0.000717757
0.00072659
0.000730532
0.000730414
0.000726344
0.000726505
0.00073031
0.00072637
0.000721449
0.000721681
0.000717552
0.000717791
0.000721685
0.000721451
0.000717796
0.000726629
0.000730284
0.000730518
0.000726388
0.000730282
0.000726624
0.000726385
0.000721477
0.000717671
0.00072173
0.000717536
0.0007217
0.000721581
0.000717756
0.00072659
0.000730533
0.000730414
0.000726344
0.00073031
0.00072637
0.000726504
0.00072145
0.000721681
0.000717791
0.000717552
0.000721451
0.000721686
0.000717796
0.000721476
0.00071767
0.000721729
0.000717537
0.000717756
0.00072158
0.000721699
0.000721449
0.000721681
0.000717552
0.00071779
0.000717795
0.000721685
0.000721451
0.000721477
0.00071767
0.00072173
0.000717537
0.000721699
0.000721581
0.000717756
0.000721449
0.00072168
0.00071779
0.000717552
0.000721451
0.000721685
0.000717795
0.000726426
0.000726857
0.000730322
0.000730322
0.000726599
0.000730484
0.000726599
0.00072663
0.000730285
0.000730518
0.000726389
0.000730283
0.000726624
0.000726385
0.000721478
0.000717671
0.00072173
0.000717537
0.000717756
0.000721581
0.000721701
0.00072659
0.000730533
0.000730414
0.000726344
0.00073031
0.000726505
0.00072637
0.000721449
0.000721681
0.000717791
0.000717552
0.000717796
0.000721452
0.000721686
0.00072663
0.000730285
0.000730518
0.000726389
0.000730282
0.000726624
0.000726385
0.000721477
0.000717671
0.00072173
0.000717536
0.0007217
0.000721581
0.000717756
0.00072659
0.000730533
0.000730414
0.000726344
0.00073031
0.00072637
0.000726505
0.000721449
0.000721681
0.000717791
0.000717552
0.000721451
0.000721685
0.000717796
0.000726426
0.000726857
0.000730319
0.000726602
0.000726597
0.000703981
0.00070354
0.000700094
0.000700093
0.000699921
0.000703819
0.00070382
0.000691083
0.000691513
0.000694982
0.000694982
0.000695144
0.000691255
0.000691255
0.000703779
0.000704011
0.00069988
0.000700118
0.000704015
0.000703781
0.000700124
0.000708921
0.000712747
0.000712866
0.000708676
0.000708702
0.000712643
0.000708836
0.00070896
0.00070872
0.000712851
0.000712617
0.000708717
0.000712615
0.000708955
0.000703807
0.000699865
0.00070406
0.000699999
0.00070403
0.000703911
0.000700084
0.000703778
0.000704011
0.00069988
0.000700118
0.000704016
0.000703781
0.000700124
0.000708921
0.000712746
0.000712866
0.000708676
0.000712642
0.000708702
0.000708837
0.000708961
0.000708719
0.000712851
0.000712617
0.000712614
0.000708716
0.000708955
0.000703806
0.000699865
0.00070406
0.0007
0.00070403
0.000700085
0.000703911
0.000691285
0.000695178
0.000694943
0.000691045
0.000694941
0.000691042
0.00069128
0.000691246
0.000695193
0.000695074
0.000691001
0.000691161
0.000694969
0.000691027
0.000691286
0.000695178
0.000694943
0.000691045
0.000694941
0.000691042
0.00069128
0.000691247
0.000695193
0.000695073
0.000691001
0.000694969
0.000691027
0.000691162
0.000703981
0.000703539
0.000700094
0.000700094
0.000703819
0.000703819
0.000699921
0.000691083
0.000691513
0.000694981
0.000694982
0.000691256
0.000695144
0.000691255
0.000703778
0.000704011
0.00069988
0.000700119
0.000704016
0.000703781
0.000700124
0.000708922
0.000712747
0.000712866
0.000708676
0.000708702
0.000712643
0.000708836
0.000708961
0.00070872
0.000712851
0.000712617
0.000708717
0.000712615
0.000708955
0.000703807
0.000699865
0.00070406
0.0007
0.00070403
0.000703911
0.000700085
0.000703779
0.000704011
0.000700119
0.00069988
0.000703781
0.000704016
0.000700124
0.000708921
0.000712748
0.000712866
0.000708675
0.000712643
0.000708701
0.000708836
0.00070896
0.00070872
0.000712617
0.000712851
0.000712615
0.000708955
0.000708717
0.000703807
0.000699865
0.00070406
0.000699999
0.000704031
0.000700084
0.000703912
0.000691286
0.000695178
0.000694943
0.000691045
0.000694941
0.000691042
0.00069128
0.000691247
0.000695193
0.000695074
0.000691001
0.000691162
0.000694969
0.000691027
0.000691285
0.000694943
0.000695178
0.000691045
0.000694941
0.00069128
0.000691042
0.000691246
0.000695193
0.000695075
0.000691001
0.00069497
0.000691027
0.000691161
0.000703779
0.000704011
0.000700118
0.00069988
0.000703781
0.000704016
0.000700124
0.000708921
0.000712747
0.000712866
0.000708676
0.000708835
0.000712643
0.000708702
0.00070896
0.00070872
0.000712617
0.000712851
0.000708955
0.000712615
0.000708717
0.000703807
0.000699865
0.00070406
0.000699999
0.000703912
0.00070403
0.000700084
0.000691285
0.000695178
0.000694943
0.000691045
0.000694942
0.000691042
0.00069128
0.000691246
0.000695193
0.000695073
0.000691001
0.000694969
0.000691162
0.000691027
0.000691285
0.000694943
0.000695178
0.000691045
0.000694942
0.00069128
0.000691042
0.000691246
0.000695193
0.000695075
0.000691001
0.00069497
0.000691027
0.000691161
0.000703982
0.00070354
0.000700094
0.000700093
0.00070382
0.000703819
0.000699921
0.000691082
0.000691513
0.000694981
0.000694982
0.000691255
0.000695144
0.000691255
0.000703779
0.000704011
0.000700118
0.00069988
0.000703781
0.000704015
0.000700124
0.000708921
0.000712747
0.000712866
0.000708675
0.000708836
0.000712643
0.000708702
0.000708961
0.00070872
0.000712617
0.000712851
0.000708955
0.000712615
0.000708717
0.000703807
0.000699865
0.00070406
0.0007
0.000703911
0.00070403
0.000700084
0.000691285
0.000694943
0.000695178
0.000691045
0.000694942
0.00069128
0.000691042
0.000691246
0.000695193
0.000695074
0.000691001
0.000694969
0.000691161
0.000691027
0.000691286
0.000694943
0.000695178
0.000691045
0.000694941
0.00069128
0.000691042
0.000691246
0.000695193
0.000695074
0.000691001
0.000694969
0.000691027
0.000691162
0.000691083
0.000691513
0.000694982
0.000694982
0.000695144
0.000691255
0.000691255
0.000675492
0.000675443
0.000675443
0.000677022
0.000640105
0.000640059
0.000640059
0.00064164
0.00060469
0.000604646
0.000604646
0.00060623
0.000569244
0.000569203
0.000569203
0.000570789
0.000533766
0.000533728
0.000533728
0.000535317
0.000498256
0.00049822
0.00049822
0.000499812
0.000462712
0.000462678
0.000462678
0.000464273
0.000427133
0.000427102
0.000427102
0.0004287
0.00039152
0.000391491
0.000391492
0.000393092
0.000355871
0.000355844
0.000355844
0.000357448
0.000320186
0.000320161
0.000320161
0.000321767
0.000284465
0.000284442
0.000284442
0.000286051
0.000248707
0.000248686
0.000248686
0.000250298
0.000212914
0.000212895
0.000212895
0.000214508
0.000177084
0.000177066
0.000177066
0.000178682
0.000141215
0.000141199
0.000141199
0.000142819
0.000105306
0.000105291
0.00010529
0.000106914
6.9367e-05
6.93376e-05
6.9337e-05
7.09606e-05
3.40316e-05
3.34915e-05
3.34882e-05
3.49322e-05
1.09762e-05
7.25216e-06
7.24892e-06
5.7169e-06
0.000682673
0.000684285
0.000684285
0.000682673
0.000684285
0.000684285
0.000684285
0.000684285
0.000682673
0.000684285
0.000684285
0.000682672
0.000677021
0.000647295
0.000675443
0.000675443
0.000648908
0.000648908
0.000677021
0.000647295
0.000675443
0.000675443
0.000648908
0.000648908
0.000675443
0.000648908
0.000648908
0.000677021
0.000647295
0.000675443
0.000648908
0.000648908
0.000647295
0.00064164
0.000611889
0.000640059
0.000640059
0.000613502
0.000613502
0.00064164
0.000611889
0.000640059
0.000640059
0.000613502
0.000613502
0.000640059
0.000613502
0.000613502
0.00064164
0.000611889
0.000640059
0.000613502
0.000613502
0.000611889
0.00060623
0.000576453
0.000604646
0.000604646
0.000578066
0.000578066
0.000606229
0.000576453
0.000604646
0.000604646
0.000578066
0.000578066
0.000604646
0.000578066
0.000578066
0.00060623
0.000576453
0.000604646
0.000578066
0.000578066
0.000576452
0.000570789
0.000540985
0.000569203
0.000569203
0.000542599
0.000542599
0.000570789
0.000540985
0.000569203
0.000569203
0.000542599
0.000542599
0.000569203
0.000542599
0.000542599
0.000570789
0.000540985
0.000569203
0.000542599
0.000542599
0.000540985
0.000535317
0.000505485
0.000533728
0.000533728
0.0005071
0.0005071
0.000535316
0.000505485
0.000533728
0.000533728
0.0005071
0.0005071
0.000533728
0.0005071
0.0005071
0.000535317
0.000505485
0.000533728
0.0005071
0.0005071
0.000505484
0.000499812
0.000469951
0.00049822
0.00049822
0.000471567
0.000471567
0.000499812
0.000469951
0.00049822
0.00049822
0.000471567
0.000471567
0.00049822
0.000471567
0.000471567
0.000499812
0.00046995
0.00049822
0.000471567
0.000471567
0.00046995
0.000464273
0.000434382
0.000462678
0.000462678
0.000435999
0.000435999
0.000464273
0.000434382
0.000462678
0.000462678
0.000435999
0.000435999
0.000462678
0.000435999
0.000435999
0.000464273
0.000434382
0.000462678
0.000435999
0.000435999
0.000434382
0.0004287
0.000398779
0.000427102
0.000427102
0.000400397
0.000400397
0.000428699
0.000398779
0.000427102
0.000427102
0.000400397
0.000400397
0.000427102
0.000400397
0.000400397
0.000428699
0.000398779
0.000427102
0.000400397
0.000400397
0.000398779
0.000393091
0.00036314
0.000391491
0.000391491
0.000364759
0.000364759
0.000393091
0.00036314
0.000391491
0.000391491
0.000364759
0.000364759
0.000391491
0.000364759
0.000364759
0.000393092
0.00036314
0.000391491
0.000364759
0.000364759
0.00036314
0.000357447
0.000327465
0.000355844
0.000355844
0.000329085
0.000329085
0.000357447
0.000327465
0.000355844
0.000355844
0.000329085
0.000329085
0.000355844
0.000329085
0.000329085
0.000357447
0.000327465
0.000355844
0.000329085
0.000329085
0.000327465
0.000321767
0.000291754
0.000320161
0.000320161
0.000293374
0.000293374
0.000321767
0.000291754
0.000320161
0.000320161
0.000293374
0.000293374
0.000320161
0.000293374
0.000293374
0.000321767
0.000291754
0.000320161
0.000293374
0.000293374
0.000291754
0.000286051
0.000256007
0.000284442
0.000284442
0.000257627
0.000257627
0.00028605
0.000256007
0.000284442
0.000284442
0.000257627
0.000257627
0.000284442
0.000257627
0.000257627
0.000286051
0.000256007
0.000284442
0.000257627
0.000257627
0.000256006
0.000250298
0.000220223
0.000248686
0.000248686
0.000221844
0.000221844
0.000250297
0.000220224
0.000248686
0.000248686
0.000221844
0.000221844
0.000248686
0.000221844
0.000221844
0.000250298
0.000220223
0.000248686
0.000221845
0.000221844
0.000220223
0.000214508
0.000184404
0.000212895
0.000212895
0.000186025
0.000186025
0.000214508
0.000184404
0.000212895
0.000212894
0.000186025
0.000186025
0.000212895
0.000186025
0.000186025
0.000214508
0.000184404
0.000212895
0.000186025
0.000186025
0.000184404
0.000178682
0.000148548
0.000177066
0.000177066
0.000150168
0.000150168
0.000178682
0.000148548
0.000177066
0.000177066
0.000150168
0.000150168
0.000177066
0.000150168
0.000150168
0.000178682
0.000148547
0.000177066
0.000150168
0.000150168
0.000148547
0.000142818
0.000112652
0.000141199
0.000141199
0.000114272
0.000114272
0.000142818
0.000112652
0.000141199
0.000141199
0.000114272
0.000114272
0.000141199
0.000114272
0.000114272
0.000142818
0.000112651
0.000141199
0.000114272
0.000114272
0.000112651
0.000106914
7.67101e-05
0.00010529
0.000105291
7.83344e-05
7.83349e-05
0.000106914
7.67104e-05
0.00010529
0.000105291
7.83346e-05
7.83343e-05
0.00010529
7.83348e-05
7.83341e-05
0.000106914
7.67099e-05
0.00010529
7.83346e-05
7.83342e-05
7.67094e-05
7.09604e-05
4.07065e-05
6.93374e-05
6.93377e-05
4.24006e-05
4.24007e-05
7.09608e-05
4.0706e-05
6.93375e-05
6.93369e-05