/*--------------------------------*- C++ -*----------------------------------*\
| =========                 |                                                 |
| \\      /  F ield         | OpenFOAM: The Open Source CFD Toolbox           |
|  \\    /   O peration     | Version:  2312                                  |
|   \\  /    A nd           | Website:  www.openfoam.com                      |
|    \\/     M anipulation  |                                                 |
\*---------------------------------------------------------------------------*/
FoamFile
{
    version     2.0;
    format      ascii;
    arch        "LSB;label=32;scalar=64";
    class       volVectorField;
    location    "850";
    object      U;
}
// * * * * * * * * * * * * * * * * * * * * * * * * * * * * * * * * * * * * * //

dimensions      [0 1 -1 0 0 0 0];

internalField   nonuniform List<vector> 
43168
(
(-1.02722e-05 -1.02717e-05 0.112443)
(1.1407e-05 -6.20784e-06 0.107483)
(-6.19391e-06 1.14045e-05 0.107482)
(-2.37498e-05 -2.37619e-05 0.104205)
(-4.15599e-05 -4.15695e-05 0.104319)
(-6.14901e-06 -1.13409e-05 0.107483)
(6.15614e-06 -1.13492e-05 0.107483)
(4.15684e-05 -4.15663e-05 0.10432)
(-1.13648e-05 -6.17484e-06 0.107485)
(-1.13397e-05 6.15814e-06 0.107482)
(1.1371e-05 -6.17639e-06 0.107485)
(1.13573e-05 6.14073e-06 0.107483)
(-4.15499e-05 4.15662e-05 0.104318)
(-6.16892e-06 1.13772e-05 0.107484)
(6.18709e-06 1.13664e-05 0.107484)
(4.15669e-05 4.15572e-05 0.104318)
(2.37612e-05 2.37624e-05 0.104205)
(-6.17314e-06 -1.13702e-05 0.107481)
(6.18252e-06 -1.13826e-05 0.107481)
(-2.37602e-05 2.37222e-05 0.104206)
(-1.13937e-05 -6.2015e-06 0.107483)
(-1.1367e-05 6.18222e-06 0.10748)
(1.13862e-05 6.17015e-06 0.107481)
(2.37553e-05 -2.37681e-05 0.104205)
(6.21143e-06 1.13957e-05 0.107482)
(-1.2097e-06 -1.20554e-05 0.0822859)
(-1.20448e-05 -1.21533e-06 0.0822866)
(-1.01983e-05 -1.01959e-05 0.112452)
(1.02205e-05 -1.01807e-05 0.112452)
(-1.01934e-05 1.02055e-05 0.112451)
(1.02127e-05 1.01729e-05 0.112451)
(-2.9952e-07 -1.65427e-05 0.0914582)
(5.82908e-07 7.21078e-06 0.0822599)
(-2.61418e-07 5.00813e-06 0.0914069)
(-1.23859e-06 -1.19871e-05 0.0823192)
(-2.48549e-06 4.31644e-06 0.071571)
(3.33377e-06 -5.78476e-06 0.0716358)
(-1.65514e-05 -2.81654e-07 0.0914583)
(7.19888e-06 5.97182e-07 0.0822606)
(5.02094e-06 -2.53299e-07 0.0914069)
(-1.19864e-05 -1.24256e-06 0.0823198)
(1.02887e-05 -1.02741e-05 0.112443)
(-1.02677e-05 1.02791e-05 0.112442)
(1.02904e-05 1.02565e-05 0.112442)
(2.72194e-05 -6.70236e-07 0.0986028)
(-8.81361e-06 3.08969e-06 0.0930334)
(1.46398e-05 -2.65689e-06 0.109894)
(1.14171e-05 -6.22424e-06 0.107481)
(-7.97356e-06 -4.49546e-07 0.0985414)
(2.03491e-05 -7.80053e-06 0.0930975)
(1.47021e-05 -2.67688e-06 0.109889)
(4.35274e-06 -2.5289e-06 0.0715732)
(-5.7999e-06 3.4087e-06 0.0716335)
(-7.02362e-07 2.72263e-05 0.0986024)
(-2.64279e-06 1.46458e-05 0.109893)
(3.09021e-06 -8.79586e-06 0.0930334)
(-6.21109e-06 1.14166e-05 0.10748)
(-3.89034e-07 -7.98757e-06 0.0985409)
(-2.65791e-06 1.47011e-05 0.109888)
(-7.75543e-06 2.03538e-05 0.0930966)
(-3.63078e-06 -3.46051e-06 0.0875819)
(-3.43384e-06 -3.63839e-06 0.0875809)
(4.1498e-05 4.14888e-05 0.10432)
(9.81501e-06 6.93797e-06 0.0876394)
(6.98035e-06 9.79534e-06 0.0876378)
(-3.33564e-06 -5.89003e-06 0.0716038)
(-5.87013e-06 -3.35559e-06 0.0716035)
(-4.16169e-05 -4.16238e-05 0.104318)
(-6.90909e-06 -9.86752e-06 0.0876082)
(-9.89476e-06 -6.94436e-06 0.0876061)
(-3.35941e-06 -5.86257e-06 0.0716189)
(2.53634e-06 4.37243e-06 0.0715574)
(-5.8442e-06 -3.37826e-06 0.0716185)
(4.3511e-06 2.5502e-06 0.0715575)
(2.37982e-05 2.37982e-05 0.104203)
(-6.91666e-06 -9.8288e-06 0.0876241)
(-9.85777e-06 -6.95245e-06 0.0876219)
(3.44051e-06 3.59732e-06 0.0875657)
(3.62041e-06 3.4532e-06 0.0875646)
(-6.1008e-06 -1.12863e-05 0.107487)
(-7.77464e-06 -2.03981e-05 0.0930673)
(-2.6206e-07 5.00487e-06 0.0913912)
(-1.22264e-06 -1.20209e-05 0.0823026)
(6.00482e-07 7.19321e-06 0.0822431)
(-3.00955e-07 -1.65747e-05 0.0914426)
(2.44099e-07 5.0051e-06 0.0913914)
(1.17869e-06 -1.20055e-05 0.0823038)
(-5.80736e-07 7.16258e-06 0.0822428)
(2.84471e-07 -1.65792e-05 0.0914427)
(-4.33111e-07 8.03483e-06 0.09853)
(-6.12385e-06 -1.13196e-05 0.107485)
(-7.77186e-06 -2.0367e-05 0.0930817)
(-2.63314e-06 -1.45527e-05 0.109898)
(3.09953e-06 8.79265e-06 0.0930178)
(-2.61342e-06 -1.44802e-05 0.109903)
(-7.02114e-07 -2.72758e-05 0.0985914)
(4.19753e-07 8.03668e-06 0.0985302)
(6.1293e-06 -1.1278e-05 0.107486)
(7.7361e-06 -2.03661e-05 0.0930823)
(2.6374e-06 -1.45575e-05 0.109898)
(-3.08882e-06 8.77811e-06 0.0930175)
(2.63622e-06 -1.44789e-05 0.109903)
(6.80924e-07 -2.72833e-05 0.0985916)
(3.31623e-06 -5.80899e-06 0.0716209)
(-2.51518e-06 4.30208e-06 0.071556)
(-2.3826e-05 2.37759e-05 0.104203)
(6.92128e-06 -9.83072e-06 0.0876231)
(9.84683e-06 -6.9738e-06 0.0876242)
(-3.47408e-06 3.58171e-06 0.0875642)
(5.84154e-06 -3.40687e-06 0.0716194)
(-1.13109e-05 -6.12616e-06 0.107489)
(-2.04286e-05 -7.79941e-06 0.0930673)
(5.01819e-06 -2.57709e-07 0.0913913)
(-1.20179e-05 -1.22796e-06 0.0823033)
(7.18567e-06 6.15112e-07 0.0822439)
(-1.65805e-05 -2.8489e-07 0.0914427)
(8.04607e-06 -4.32283e-07 0.09853)
(-1.1345e-05 -6.1534e-06 0.107487)
(-2.03974e-05 -7.79606e-06 0.0930817)
(-1.45563e-05 -2.64342e-06 0.109898)
(8.80034e-06 3.10678e-06 0.0930184)
(-1.44879e-05 -2.62732e-06 0.109903)
(-2.72884e-05 -6.88994e-07 0.0985916)
(5.01703e-06 2.43371e-07 0.0913912)
(-1.19952e-05 1.24781e-06 0.0823029)
(7.17954e-06 -6.15906e-07 0.0822438)
(-1.65769e-05 3.03268e-07 0.0914426)
(8.04429e-06 4.05837e-07 0.09853)
(-1.13124e-05 6.13911e-06 0.107484)
(-1.4551e-05 2.63051e-06 0.109897)
(-2.03499e-05 7.79326e-06 0.0930807)
(-1.44815e-05 2.61562e-06 0.109902)
(8.78453e-06 -3.10709e-06 0.0930181)
(-2.72823e-05 7.06376e-07 0.0985915)
(2.03741e-05 -7.80315e-06 0.093083)
(1.45534e-05 -2.64286e-06 0.109899)
(2.72331e-05 -6.68087e-07 0.098592)
(1.20021e-05 -1.27622e-06 0.0823038)
(1.6526e-05 -2.42781e-07 0.0914435)
(1.45449e-05 2.61239e-06 0.109898)
(2.03598e-05 7.77014e-06 0.0930821)
(2.72444e-05 7.09964e-07 0.0985917)
(1.20179e-05 1.21542e-06 0.0823033)
(1.6547e-05 3.24144e-07 0.0914428)
(-5.82486e-06 3.38799e-06 0.0716186)
(4.34227e-06 -2.55442e-06 0.0715581)
(2.38013e-05 -2.38158e-05 0.104203)
(-9.82549e-06 6.9416e-06 0.0876208)
(-6.91888e-06 9.83112e-06 0.0876238)
(3.59751e-06 -3.45865e-06 0.0875648)
(3.44981e-06 -3.59542e-06 0.0875664)
(-3.36553e-06 5.85652e-06 0.0716191)
(2.55034e-06 -4.35291e-06 0.071558)
(-3.92123e-07 -8.0201e-06 0.0985301)
(-6.14666e-06 1.13546e-05 0.107486)
(-2.62404e-06 1.45697e-05 0.109897)
(-7.76076e-06 2.03881e-05 0.0930822)
(-2.61321e-06 1.44985e-05 0.109902)
(3.10631e-06 -8.78487e-06 0.0930189)
(-7.01631e-07 2.7246e-05 0.0985916)
(4.34824e-07 -8.00907e-06 0.0985302)
(6.17047e-06 1.13445e-05 0.107486)
(2.63727e-06 1.45702e-05 0.109897)
(7.81435e-06 2.03836e-05 0.0930821)
(2.61804e-06 1.44924e-05 0.109902)
(-3.09625e-06 -8.79511e-06 0.0930187)
(7.0104e-07 2.72325e-05 0.0985919)
(-1.88958e-07 -4.98469e-06 0.0913906)
(-1.21436e-06 1.2022e-05 0.0823032)
(6.17597e-07 -7.18004e-06 0.0822441)
(-3.22638e-07 1.65297e-05 0.0914431)
(2.73289e-07 -4.96193e-06 0.0913902)
(1.26068e-06 1.20034e-05 0.0823037)
(-6.12473e-07 -7.18313e-06 0.0822444)
(2.99589e-07 1.6504e-05 0.0914438)
(-2.37588e-05 -2.37725e-05 0.104203)
(9.85581e-06 6.93733e-06 0.0876236)
(6.97626e-06 9.83276e-06 0.087622)
(-3.44613e-06 -3.62057e-06 0.087565)
(5.85322e-06 3.36247e-06 0.0716193)
(3.41068e-06 5.82873e-06 0.0716192)
(-2.54865e-06 -4.35453e-06 0.0715582)
(2.50889e-06 4.38518e-06 0.0715724)
(-3.38305e-06 -5.8358e-06 0.0716338)
(4.36305e-06 2.52431e-06 0.0715725)
(-5.81868e-06 -3.39897e-06 0.0716335)
(3.42555e-06 3.62281e-06 0.0875816)
(3.64516e-06 3.43649e-06 0.0875805)
(-4.14897e-05 -4.14989e-05 0.104321)
(-6.92318e-06 -9.78914e-06 0.0876399)
(-9.81823e-06 -6.95584e-06 0.0876377)
(2.48138e-06 4.39891e-06 0.0715874)
(4.37547e-06 2.50007e-06 0.0715875)
(2.37285e-05 2.37299e-05 0.104208)
(3.41045e-06 3.65077e-06 0.0875974)
(3.67294e-06 3.42636e-06 0.0875964)
(2.80562e-07 -1.65454e-05 0.0914583)
(-5.60977e-07 7.18069e-06 0.0822595)
(2.45277e-07 5.00834e-06 0.0914071)
(1.18977e-06 -1.19746e-05 0.0823204)
(-7.00831e-07 -2.72557e-05 0.0986022)
(3.08851e-06 8.80882e-06 0.0930323)
(-2.64942e-06 -1.46261e-05 0.109894)
(-6.18908e-06 -1.13841e-05 0.107479)
(-4.33458e-07 8.01196e-06 0.0985409)
(-7.76691e-06 -2.03323e-05 0.0930962)
(-2.66251e-06 -1.46845e-05 0.109889)
(6.80764e-07 -2.72631e-05 0.0986024)
(-3.07857e-06 8.80999e-06 0.0930321)
(2.65884e-06 -1.46333e-05 0.109894)
(6.19118e-06 -1.13946e-05 0.107479)
(4.18649e-07 8.01463e-06 0.0985411)
(7.72834e-06 -2.03372e-05 0.0930968)
(2.67516e-06 -1.46885e-05 0.109889)
(-2.60256e-07 5.01575e-06 0.0914226)
(5.63779e-07 7.23061e-06 0.0822765)
(2.42141e-07 5.01612e-06 0.0914227)
(-5.44658e-07 7.19833e-06 0.0822762)
(-4.33548e-07 7.99445e-06 0.0985518)
(-6.21317e-06 -1.14085e-05 0.107478)
(3.07953e-06 8.82931e-06 0.0930469)
(-2.68013e-06 -1.47507e-05 0.109885)
(4.19142e-07 7.99734e-06 0.098552)
(6.21705e-06 -1.14177e-05 0.107477)
(-3.06993e-06 8.82493e-06 0.0930466)
(2.68858e-06 -1.47545e-05 0.109885)
(-3.4566e-06 3.60586e-06 0.0875801)
(-3.65301e-06 3.42998e-06 0.0875823)
(4.14887e-05 -4.14974e-05 0.104321)
(6.92539e-06 -9.79206e-06 0.0876389)
(9.81012e-06 -6.97973e-06 0.0876401)
(-4.37248e-06 2.52099e-06 0.071573)
(5.81268e-06 -3.42451e-06 0.0716343)
(-2.46225e-06 4.32785e-06 0.071586)
(-2.37372e-05 2.36951e-05 0.104208)
(-3.44438e-06 3.63242e-06 0.0875959)
(-3.6775e-06 3.42027e-06 0.0875982)
(-4.38443e-06 2.49865e-06 0.0715879)
(-2.72693e-05 -6.88673e-07 0.0986025)
(8.81527e-06 3.09412e-06 0.0930329)
(-1.46303e-05 -2.66189e-06 0.109894)
(-1.14072e-05 -6.21664e-06 0.107481)
(8.02247e-06 -4.28601e-07 0.0985408)
(-2.03634e-05 -7.78944e-06 0.0930962)
(-1.46879e-05 -2.67468e-06 0.109889)
(-1.65465e-05 3.0224e-07 0.0914582)
(7.19712e-06 -5.99726e-07 0.0822605)
(5.0219e-06 2.48235e-07 0.0914068)
(-1.19647e-05 1.2634e-06 0.0823195)
(-2.7264e-05 7.05755e-07 0.0986024)
(-1.46246e-05 2.64731e-06 0.109893)
(8.79322e-06 -3.10081e-06 0.0930326)
(-1.13764e-05 6.19945e-06 0.107478)
(8.02399e-06 4.09005e-07 0.0985408)
(-1.46803e-05 2.66524e-06 0.109888)
(-2.03197e-05 7.78895e-06 0.0930952)
(5.02498e-06 -2.50391e-07 0.0914226)
(7.21716e-06 5.79073e-07 0.0822773)
(8.00624e-06 -4.29039e-07 0.0985517)
(-1.14315e-05 -6.24018e-06 0.107479)
(8.8361e-06 3.08762e-06 0.0930475)
(-1.47536e-05 -2.69078e-06 0.109885)
(5.028e-06 2.50571e-07 0.0914225)
(7.2153e-06 -5.8308e-07 0.0822771)
(8.0122e-06 4.14375e-07 0.0985516)
(-1.13988e-05 6.22397e-06 0.107476)
(-1.4746e-05 2.68046e-06 0.109884)
(8.81237e-06 -3.0949e-06 0.0930471)
(1.64955e-05 -2.40726e-07 0.0914591)
(-7.19013e-06 6.22758e-07 0.0822605)
(-4.97389e-06 -3.08967e-07 0.0914065)
(1.19713e-05 -1.28798e-06 0.0823204)
(2.72301e-05 7.10713e-07 0.0986025)
(1.46286e-05 2.63556e-06 0.109893)
(-8.79131e-06 -3.10942e-06 0.0930329)
(1.1399e-05 6.19327e-06 0.107479)
(-7.99063e-06 4.04561e-07 0.0985413)
(1.46891e-05 2.65463e-06 0.109888)
(2.03282e-05 7.76529e-06 0.0930966)
(1.65182e-05 3.22806e-07 0.0914584)
(-7.19709e-06 -6.04998e-07 0.0822606)
(-4.99902e-06 2.10369e-07 0.091407)
(1.19845e-05 1.2314e-06 0.0823199)
(-7.95225e-06 -4.5465e-07 0.0985523)
(1.14417e-05 -6.25007e-06 0.10748)
(-8.82843e-06 3.08004e-06 0.0930479)
(1.47666e-05 -2.69499e-06 0.109885)
(-4.9759e-06 -3.08806e-07 0.0914222)
(-7.20869e-06 6.05794e-07 0.0822771)
(-7.96624e-06 4.06514e-07 0.0985523)
(1.14204e-05 6.21971e-06 0.107477)
(1.47588e-05 2.67383e-06 0.109884)
(-8.80704e-06 -3.10209e-06 0.0930474)
(-4.99902e-06 2.10572e-07 0.0914227)
(-7.21124e-06 -5.8642e-07 0.0822772)
(3.62095e-06 -3.44482e-06 0.0875807)
(3.42951e-06 -3.60934e-06 0.0875821)
(-4.14837e-05 4.15045e-05 0.10432)
(-9.78962e-06 6.94719e-06 0.0876366)
(-6.92155e-06 9.79157e-06 0.0876395)
(2.52141e-06 -4.36708e-06 0.071573)
(-3.38458e-06 5.82915e-06 0.071634)
(4.36659e-06 -2.50397e-06 0.0715881)
(2.37291e-05 -2.37432e-05 0.104207)
(3.64765e-06 -3.43179e-06 0.0875965)
(3.4182e-06 -3.63287e-06 0.0875979)
(2.49955e-06 -4.37974e-06 0.071588)
(7.02185e-07 2.72102e-05 0.0986027)
(2.65796e-06 1.46467e-05 0.109893)
(-3.08414e-06 -8.80902e-06 0.0930332)
(6.22766e-06 1.14104e-05 0.10748)
(4.44847e-07 -7.98007e-06 0.0985411)
(2.67872e-06 1.47005e-05 0.109888)
(7.80624e-06 2.03498e-05 0.0930965)
(-3.21625e-07 1.64952e-05 0.0914587)
(5.97101e-07 -7.19319e-06 0.0822608)
(-1.87748e-07 -4.982e-06 0.0914063)
(-1.22491e-06 1.199e-05 0.0823198)
(2.98138e-07 1.64693e-05 0.0914594)
(-5.94136e-07 -7.19918e-06 0.0822611)
(2.78083e-07 -4.96384e-06 0.0914059)
(1.27239e-06 1.19741e-05 0.0823203)
(-3.94844e-07 -7.97085e-06 0.0985519)
(-6.23452e-06 1.144e-05 0.107479)
(-2.67462e-06 1.4765e-05 0.109884)
(3.08378e-06 -8.81505e-06 0.093048)
(4.46067e-07 -7.96267e-06 0.0985521)
(6.24966e-06 1.14321e-05 0.107478)
(2.69758e-06 1.47644e-05 0.109884)
(-3.07773e-06 -8.82947e-06 0.0930478)
(-1.8774e-07 -4.98738e-06 0.0914219)
(5.82614e-07 -7.21123e-06 0.0822774)
(2.78446e-07 -4.9681e-06 0.0914215)
(-5.77434e-07 -7.21589e-06 0.0822777)
(-4.36643e-06 -2.53087e-06 0.0715731)
(5.82913e-06 3.38222e-06 0.0716343)
(-2.52209e-06 -4.3641e-06 0.0715733)
(3.43063e-06 5.80294e-06 0.0716341)
(-2.37274e-05 -2.37339e-05 0.104207)
(-3.65794e-06 -3.4467e-06 0.0875976)
(-3.42241e-06 -3.66451e-06 0.0875967)
(-4.37603e-06 -2.50676e-06 0.0715881)
(-2.49775e-06 -4.3767e-06 0.0715883)
(-9.205e-07 4.92419e-06 0.068413)
(-1.39478e-06 -1.22943e-05 0.0858851)
(6.10257e-07 7.18665e-06 0.0822347)
(-7.83949e-07 5.87782e-06 0.085829)
(1.54329e-07 -6.07802e-06 0.0684739)
(7.17764e-06 6.22351e-07 0.0822355)
(-7.60967e-07 4.2591e-06 0.0769181)
(-2.61281e-07 5.01009e-06 0.0914147)
(1.2646e-07 -7.40373e-06 0.0787361)
(-1.16136e-06 -1.59373e-05 0.0899817)
(-1.97671e-07 3.86898e-06 0.0786959)
(-5.86816e-07 5.52939e-06 0.0899323)
(4.9353e-07 -7.41724e-06 0.0769647)
(1.18607e-07 -6.04802e-06 0.0684961)
(-8.08925e-07 5.90518e-06 0.0858543)
(-1.22985e-06 -1.20042e-05 0.0823109)
(-9.63298e-07 4.92963e-06 0.0684354)
(-1.41167e-06 -1.22357e-05 0.0859103)
(5.00489e-07 -7.42363e-06 0.0769565)
(-3.00802e-07 -1.6559e-05 0.0914504)
(-1.96613e-07 3.86791e-06 0.0786875)
(-5.82076e-07 5.52701e-06 0.0899242)
(-7.52581e-07 4.25795e-06 0.0769099)
(1.26912e-07 -7.41482e-06 0.0787277)
(-1.15893e-06 -1.59536e-05 0.0899737)
(-9.77456e-07 4.93266e-06 0.0684428)
(-1.41788e-06 -1.22168e-05 0.0859187)
(5.73084e-07 7.21896e-06 0.0822682)
(-8.17088e-07 5.91745e-06 0.0858627)
(1.06933e-07 -6.0391e-06 0.0685034)
(3.32398e-06 -5.79793e-06 0.0716284)
(-2.47453e-06 4.32156e-06 0.0715785)
(4.26535e-06 -7.46039e-07 0.0769186)
(5.02167e-06 -2.52033e-07 0.0914147)
(-1.59425e-05 -1.15018e-06 0.089982)
(-7.4129e-06 1.46974e-07 0.0787363)
(5.54065e-06 -5.74009e-07 0.0899325)
(3.87338e-06 -1.87124e-07 0.078696)
(-7.42221e-06 5.0817e-07 0.0769652)
(-6.05267e-06 1.28855e-07 0.0684968)
(5.89723e-06 -7.90885e-07 0.0858548)
(-1.20024e-05 -1.2343e-06 0.0823116)
(4.92533e-06 -9.42676e-07 0.0684361)
(-1.22443e-05 -1.40517e-06 0.0859107)
(-7.42762e-06 5.14543e-07 0.076957)
(-1.65678e-05 -2.84801e-07 0.0914505)
(5.53972e-06 -5.68997e-07 0.0899244)
(3.87502e-06 -1.86823e-07 0.0786876)
(4.25988e-06 -7.39112e-07 0.0769103)
(-1.5958e-05 -1.14879e-06 0.089974)
(-7.41672e-06 1.45887e-07 0.0787279)
(4.92813e-06 -9.55698e-07 0.0684435)
(-1.22246e-05 -1.41085e-06 0.0859191)
(7.20887e-06 5.88105e-07 0.082269)
(5.9095e-06 -7.9951e-07 0.0858632)
(-6.04414e-06 1.17709e-07 0.0685041)
(-5.81302e-06 3.39768e-06 0.0716261)
(4.35933e-06 -2.51682e-06 0.0715806)
(-3.13381e-06 -3.18006e-06 0.0836478)
(3.55332e-06 5.1223e-06 0.0684073)
(5.14522e-06 3.53402e-06 0.068401)
(-2.6331e-06 -4.08413e-06 0.0683517)
(-4.04107e-06 -2.66692e-06 0.0683457)
(7.20214e-06 7.17511e-06 0.0836933)
(1.66928e-05 1.02266e-05 0.0917482)
(-1.10397e-05 -5.53458e-06 0.0962971)
(-3.88324e-06 -3.00538e-06 0.0815856)
(9.83558e-06 6.93607e-06 0.0876315)
(-7.83548e-06 -3.83204e-06 0.0917006)
(2.39074e-05 1.4176e-05 0.0963459)
(8.00353e-06 4.02389e-06 0.0816376)
(1.02775e-05 1.66826e-05 0.0917414)
(-5.52409e-06 -1.10489e-05 0.0962946)
(-2.98297e-06 -3.92335e-06 0.0815813)
(6.9776e-06 9.81338e-06 0.0876299)
(-3.81716e-06 -7.87303e-06 0.0916944)
(1.42328e-05 2.38884e-05 0.0963434)
(4.07029e-06 7.99933e-06 0.081632)
(7.21437e-06 7.18756e-06 0.0836858)
(-2.63065e-06 -4.08707e-06 0.0683451)
(-4.04409e-06 -2.66572e-06 0.0683391)
(-3.12746e-06 -3.17366e-06 0.0836403)
(3.56212e-06 5.12472e-06 0.0684007)
(5.14737e-06 3.54139e-06 0.0683944)
(-7.84932e-06 -3.83799e-06 0.0917076)
(7.98612e-06 4.02714e-06 0.0816453)
(-3.64497e-06 -3.45261e-06 0.0875897)
(2.38781e-05 1.41723e-05 0.0963519)
(-1.10558e-05 -5.53351e-06 0.0963029)
(-3.89656e-06 -2.99681e-06 0.0815934)
(1.6666e-05 1.02125e-05 0.0917552)
(-3.82184e-06 -7.88663e-06 0.0917014)
(4.07331e-06 7.98367e-06 0.0816397)
(-3.42833e-06 -3.65214e-06 0.0875888)
(1.42265e-05 2.38629e-05 0.0963493)
(-5.52524e-06 -1.10583e-05 0.0963006)
(-2.97711e-06 -3.93445e-06 0.081589)
(1.02664e-05 1.66559e-05 0.0917484)
(2.55022e-06 4.3668e-06 0.0715498)
(4.34551e-06 2.56392e-06 0.0715499)
(3.15699e-06 3.13373e-06 0.0836171)
(-5.12836e-06 -3.59678e-06 0.0683807)
(-3.58116e-06 -5.15516e-06 0.0683742)
(4.08011e-06 2.64389e-06 0.0683244)
(2.66549e-06 4.06077e-06 0.0683182)
(-7.22647e-06 -7.25419e-06 0.0836638)
(3.81206e-06 7.8063e-06 0.0916791)
(-3.99635e-06 -8.02505e-06 0.0816153)
(3.45008e-06 3.58797e-06 0.0875577)
(-1.41917e-05 -2.39595e-05 0.0963281)
(2.99337e-06 3.83937e-06 0.0815622)
(-1.02525e-05 -1.67525e-05 0.0917274)
(5.54504e-06 1.1024e-05 0.096279)
(7.81648e-06 3.7993e-06 0.0916726)
(-8.06249e-06 -4.03833e-06 0.0816093)
(3.61152e-06 3.4601e-06 0.0875567)
(-2.39723e-05 -1.4228e-05 0.0963257)
(3.88332e-06 2.98402e-06 0.0815572)
(-1.6743e-05 -1.02949e-05 0.0917209)
(1.10087e-05 5.52781e-06 0.0962764)
(2.52243e-06 4.37853e-06 0.0715649)
(-3.347e-06 -5.87658e-06 0.0716114)
(4.35688e-06 2.53629e-06 0.071565)
(-5.85794e-06 -3.36783e-06 0.071611)
(-7.21815e-06 -7.24432e-06 0.0836713)
(4.07795e-06 2.64589e-06 0.0683311)
(2.6675e-06 4.05969e-06 0.0683249)
(3.16162e-06 3.13927e-06 0.0836247)
(-5.12563e-06 -3.58898e-06 0.0683873)
(-3.57511e-06 -5.1523e-06 0.0683809)
(3.81717e-06 7.82778e-06 0.0916932)
(-1.41826e-05 -2.3905e-05 0.0963399)
(3.43164e-06 3.6098e-06 0.0875737)
(-4.00309e-06 -7.99309e-06 0.0816308)
(2.97451e-06 3.85468e-06 0.0815777)
(5.52985e-06 1.10375e-05 0.096291)
(-1.02288e-05 -1.67016e-05 0.0917414)
(7.83825e-06 3.80561e-06 0.0916867)
(-2.39193e-05 -1.42176e-05 0.0963375)
(3.6324e-06 3.4432e-06 0.0875726)
(-8.02568e-06 -4.04026e-06 0.0816248)
(3.90321e-06 2.97146e-06 0.0815728)
(1.10238e-05 5.5218e-06 0.0962883)
(-1.66926e-05 -1.02724e-05 0.0917349)
(-1.02434e-05 -1.67297e-05 0.0917344)
(2.98418e-06 3.8464e-06 0.08157)
(5.53272e-06 1.10316e-05 0.096285)
(-6.91363e-06 -9.85049e-06 0.0876162)
(3.8131e-06 7.81664e-06 0.0916861)
(-3.99748e-06 -8.00716e-06 0.0816231)
(-1.41863e-05 -2.39384e-05 0.096334)
(-1.67205e-05 -1.02859e-05 0.0917279)
(3.89066e-06 2.97772e-06 0.081565)
(1.10145e-05 5.52408e-06 0.0962824)
(-9.87793e-06 -6.95048e-06 0.087614)
(7.82679e-06 3.80305e-06 0.0916797)
(-8.03822e-06 -4.03522e-06 0.081617)
(-2.3948e-05 -1.42233e-05 0.0963316)
(3.16679e-06 3.14422e-06 0.0836322)
(-5.12352e-06 -3.57945e-06 0.068394)
(-3.56673e-06 -5.14927e-06 0.0683876)
(4.07433e-06 2.64885e-06 0.0683377)
(2.6694e-06 4.05614e-06 0.0683315)
(-7.20578e-06 -7.23171e-06 0.0836788)
(5.11979e-07 -7.44359e-06 0.07694)
(-1.95828e-07 3.86564e-06 0.0786706)
(-5.73352e-07 5.52354e-06 0.089908)
(-3.01966e-07 -1.65902e-05 0.0914348)
(-7.36327e-07 4.2595e-06 0.0768933)
(1.27032e-07 -7.42986e-06 0.0787109)
(-1.15424e-06 -1.59826e-05 0.0899576)
(-9.49503e-07 4.92676e-06 0.068428)
(5.91988e-07 7.20071e-06 0.0822515)
(-1.40602e-06 -1.22572e-05 0.0859019)
(1.30381e-07 -6.05925e-06 0.0684887)
(-8.00004e-07 5.89395e-06 0.0858459)
(1.41945e-07 -6.0675e-06 0.0684813)
(-7.92784e-07 5.88481e-06 0.0858375)
(-1.21358e-06 -1.20347e-05 0.0822943)
(-9.35345e-07 4.92533e-06 0.0684205)
(-1.3999e-06 -1.22742e-05 0.0858935)
(-7.44179e-07 4.26099e-06 0.0769016)
(-2.61642e-07 5.00549e-06 0.0913991)
(1.26845e-07 -7.42e-06 0.0787193)
(-1.15668e-06 -1.59681e-05 0.0899656)
(5.06586e-07 -7.42952e-06 0.0769482)
(-1.95573e-07 3.86938e-06 0.078679)
(-5.77475e-07 5.5242e-06 0.0899161)
(-5.28501e-07 -7.44061e-06 0.0769398)
(1.82946e-07 3.86233e-06 0.0786707)
(5.56951e-07 5.52399e-06 0.0899086)
(2.8569e-07 -1.65934e-05 0.0914349)
(7.23035e-07 4.24943e-06 0.0768933)
(-1.4339e-07 -7.43283e-06 0.078711)
(1.13315e-06 -1.59865e-05 0.0899576)
(9.47562e-07 4.9216e-06 0.0684308)
(-5.68129e-07 7.17145e-06 0.0822512)
(1.36246e-06 -1.22679e-05 0.0859027)
(8.1207e-07 5.89427e-06 0.0858472)
(-1.56646e-07 -6.06048e-06 0.0684911)
(-1.69742e-07 -6.06754e-06 0.0684837)
(8.04615e-07 5.88374e-06 0.0858388)
(1.1707e-06 -1.20195e-05 0.0822955)
(9.33161e-07 4.92168e-06 0.0684233)
(1.35811e-06 -1.22832e-05 0.0858943)
(7.31872e-07 4.25251e-06 0.0769016)
(2.45183e-07 5.00608e-06 0.0913992)
(-1.43297e-07 -7.42451e-06 0.0787194)
(1.13555e-06 -1.59757e-05 0.0899656)
(1.84338e-07 3.86617e-06 0.0786792)
(5.62174e-07 5.52374e-06 0.0899167)
(-5.21994e-07 -7.42918e-06 0.076948)
(-2.49706e-06 4.30948e-06 0.0715635)
(3.30362e-06 -5.82234e-06 0.0716134)
(-3.85576e-06 7.84977e-06 0.0916871)
(1.4197e-05 -2.39321e-05 0.0963378)
(-3.46631e-06 3.59038e-06 0.0875721)
(4.05784e-06 -8.04699e-06 0.0816248)
(-5.57323e-06 1.10361e-05 0.0962886)
(-3.04851e-06 3.883e-06 0.0815732)
(1.02644e-05 -1.67265e-05 0.091735)
(-7.85942e-06 3.80095e-06 0.0916937)
(2.39145e-05 -1.42311e-05 0.0963409)
(-3.62948e-06 3.43913e-06 0.0875744)
(8.01193e-06 -4.05366e-06 0.0816306)
(-3.91971e-06 2.9822e-06 0.0815784)
(-1.10372e-05 5.50869e-06 0.0962915)
(1.6697e-05 -1.02712e-05 0.0917421)
(-5.56494e-06 1.10397e-05 0.0962827)
(6.91772e-06 -9.84433e-06 0.0876152)
(1.42109e-05 -2.39384e-05 0.0963318)
(-3.15022e-06 3.13922e-06 0.0836323)
(5.12045e-06 -3.57433e-06 0.0683884)
(3.54836e-06 -5.14955e-06 0.0683939)
(-4.08012e-06 2.64321e-06 0.0683323)
(-2.65923e-06 4.05706e-06 0.0683375)
(7.19793e-06 -7.22742e-06 0.0836792)
(-4.35573e-06 2.53061e-06 0.0715655)
(-7.44405e-06 5.24981e-07 0.0769405)
(5.53657e-06 -5.60577e-07 0.0899082)
(3.87626e-06 -1.88162e-07 0.0786707)
(-1.65934e-05 -2.87174e-07 0.0914349)
(4.25342e-06 -7.25381e-07 0.0768937)
(-1.59859e-05 -1.14332e-06 0.0899579)
(-7.43557e-06 1.44627e-07 0.0787111)
(4.92379e-06 -9.2802e-07 0.0684287)
(7.19155e-06 6.05477e-07 0.0822523)
(-1.22646e-05 -1.40094e-06 0.0859024)
(-6.06295e-06 1.40606e-07 0.0684894)
(5.88782e-06 -7.84305e-07 0.0858463)
(-6.071e-06 1.50866e-07 0.068482)
(5.87948e-06 -7.74608e-07 0.0858379)
(-1.2037e-05 -1.22124e-06 0.0822949)
(4.92356e-06 -9.15273e-07 0.0684212)
(-1.22818e-05 -1.3934e-06 0.085894)
(4.27638e-06 -7.29581e-07 0.076902)
(5.019e-06 -2.54508e-07 0.0913991)
(-1.59729e-05 -1.14593e-06 0.0899659)
(-7.42567e-06 1.42458e-07 0.0787195)
(-7.43518e-06 5.18963e-07 0.0769487)
(5.53554e-06 -5.65085e-07 0.0899163)
(3.86964e-06 -1.89654e-07 0.0786792)
(-7.43797e-06 -4.95309e-07 0.0769398)
(3.8753e-06 1.84375e-07 0.0786706)
(5.51869e-06 5.52156e-07 0.0899083)
(-1.65919e-05 3.05127e-07 0.0914348)
(4.26381e-06 7.22601e-07 0.0768932)
(-7.43357e-06 -1.18225e-07 0.078711)
(-1.59749e-05 1.16537e-06 0.0899574)
(4.91627e-06 9.38562e-07 0.0684306)
(7.19005e-06 -6.07105e-07 0.0822522)
(-1.2241e-05 1.42493e-06 0.0859025)
(5.88052e-06 7.88712e-07 0.0858471)
(-6.04664e-06 -1.03547e-07 0.0684911)
(-6.05415e-06 -1.21527e-07 0.0684837)
(5.86704e-06 7.80539e-07 0.0858387)
(-1.20094e-05 1.23854e-06 0.0822945)
(4.91149e-06 9.25774e-07 0.0684232)
(-1.22572e-05 1.41656e-06 0.085894)
(4.25864e-06 7.31846e-07 0.0769014)
(5.01897e-06 2.45195e-07 0.091399)
(-7.4246e-06 -1.23047e-07 0.0787194)
(-1.59624e-05 1.16765e-06 0.0899655)
(3.8716e-06 1.87146e-07 0.0786791)
(5.52034e-06 5.57845e-07 0.0899164)
(-7.42825e-06 -4.88678e-07 0.0769481)
(-4.8678e-06 -9.64879e-07 0.0684261)
(-7.18233e-06 6.27424e-07 0.0822521)
(1.22141e-05 -1.41532e-06 0.0859039)
(-5.85552e-06 -7.79765e-07 0.0858455)
(6.00928e-06 1.61753e-07 0.0684917)
(-4.19288e-06 -7.67008e-07 0.0768988)
(-4.9722e-06 -3.08794e-07 0.0913987)
(1.58908e-05 -1.12606e-06 0.0899674)
(7.38583e-06 1.78468e-07 0.0787204)
(-5.46235e-06 -5.91664e-07 0.0899153)
(-3.82939e-06 -2.43276e-07 0.0786775)
(7.35827e-06 5.40252e-07 0.0769507)
(-4.91869e-06 9.21161e-07 0.068431)
(-7.19319e-06 -6.133e-07 0.0822522)
(1.22536e-05 1.39704e-06 0.0859031)
(-5.88817e-06 7.71339e-07 0.0858471)
(6.0574e-06 -1.3909e-07 0.0684917)
(-4.24716e-06 7.11954e-07 0.0769014)
(-5.00081e-06 2.12055e-07 0.0913992)
(7.41644e-06 -1.10629e-07 0.0787195)
(1.59523e-05 1.15488e-06 0.0899659)
(-3.8644e-06 1.50514e-07 0.0786789)
(-5.51956e-06 5.44176e-07 0.0899164)
(7.42946e-06 -5.07367e-07 0.0769481)
(4.34823e-06 -2.54052e-06 0.0715656)
(-5.83769e-06 3.37504e-06 0.0716111)
(-7.22694e-06 7.21293e-06 0.0836713)
(2.64882e-06 -4.0583e-06 0.0683262)
(4.06767e-06 -2.64547e-06 0.0683316)
(3.14167e-06 -3.12796e-06 0.0836252)
(-3.58434e-06 5.12212e-06 0.0683816)
(-5.13513e-06 3.57435e-06 0.0683874)
(7.85292e-06 -3.80998e-06 0.0916871)
(-2.39308e-05 1.41904e-05 0.0963363)
(3.61053e-06 -3.45132e-06 0.0875727)
(-8.03382e-06 4.03077e-06 0.0816238)
(1.10673e-05 -5.52588e-06 0.0962885)
(3.8944e-06 -2.99501e-06 0.0815734)
(-1.67136e-05 1.02428e-05 0.0917341)
(3.8173e-06 -7.83868e-06 0.0916937)
(-1.42116e-05 2.39245e-05 0.09634)
(3.43886e-06 -3.60343e-06 0.0875742)
(-4.02078e-06 8.00794e-06 0.0816302)
(2.98944e-06 -3.87142e-06 0.0815785)
(5.52946e-06 -1.10248e-05 0.0962912)
(-1.02609e-05 1.67198e-05 0.0917412)
(-1.67395e-05 1.0254e-05 0.0917271)
(3.88707e-06 -3.00491e-06 0.0815656)
(1.10601e-05 -5.53237e-06 0.0962825)
(-9.84614e-06 6.93495e-06 0.0876129)
(-2.3957e-05 1.42016e-05 0.0963304)
(7.8406e-06 -3.80666e-06 0.09168)
(-8.04989e-06 4.02611e-06 0.0816161)
(-1.02737e-05 1.67431e-05 0.0917341)
(2.99722e-06 -3.86515e-06 0.0815708)
(5.53471e-06 -1.10186e-05 0.0962853)
(-6.92045e-06 9.85549e-06 0.0876158)
(3.81208e-06 -7.82676e-06 0.0916867)
(-4.02548e-06 8.03072e-06 0.0816223)
(-1.42175e-05 2.395e-05 0.0963341)
(3.14842e-06 -3.134e-06 0.0836326)
(-3.57506e-06 5.11929e-06 0.0683883)
(-5.12827e-06 3.56672e-06 0.068394)
(2.65256e-06 -4.05662e-06 0.0683328)
(4.06485e-06 -2.6481e-06 0.0683383)
(-7.21487e-06 7.20284e-06 0.0836788)
(2.53495e-06 -4.36154e-06 0.0715655)
(-3.3528e-06 5.86879e-06 0.0716116)
(4.9864e-07 7.42559e-06 0.0769402)
(-5.03637e-07 -5.51381e-06 0.0899084)
(-1.40404e-07 -3.83766e-06 0.0786689)
(-3.23738e-07 1.65395e-05 0.0914354)
(-6.69779e-07 -4.26656e-06 0.0768933)
(-1.1698e-06 1.59639e-05 0.0899575)
(1.11054e-07 7.3888e-06 0.0787117)
(-9.05551e-07 -4.90752e-06 0.0684296)
(6.05513e-07 -7.18511e-06 0.0822525)
(-1.39241e-06 1.22465e-05 0.0859021)
(-7.68149e-07 -5.87647e-06 0.085847)
(1.38567e-07 6.04774e-06 0.0684899)
(1.49969e-07 6.05742e-06 0.0684825)
(-7.60951e-07 -5.86842e-06 0.0858386)
(-1.2041e-06 1.20389e-05 0.0822949)
(-8.90201e-07 -4.90654e-06 0.0684222)
(-1.38634e-06 1.22632e-05 0.0858937)
(-6.81594e-07 -4.23843e-06 0.0769016)
(-1.88447e-07 -4.98383e-06 0.0913984)
(-1.17181e-06 1.59497e-05 0.0899655)
(1.13386e-07 7.38363e-06 0.0787201)
(-5.07275e-07 -5.51843e-06 0.0899165)
(-1.39083e-07 -3.83248e-06 0.0786773)
(4.93659e-07 7.4204e-06 0.0769485)
(-4.92696e-07 7.39663e-06 0.0769409)
(5.35942e-07 -5.50098e-06 0.0899076)
(2.14782e-07 -3.80692e-06 0.0786677)
(2.96576e-07 1.6517e-05 0.091436)
(7.15255e-07 -4.25107e-06 0.0768912)
(1.18956e-06 1.59375e-05 0.0899586)
(-1.32061e-07 7.35763e-06 0.0787125)
(9.20596e-07 -4.92376e-06 0.0684306)
(-6.00769e-07 -7.19297e-06 0.0822527)
(1.44357e-06 1.22479e-05 0.0859035)
(7.68805e-07 -5.88177e-06 0.0858473)
(-1.03005e-07 6.05396e-06 0.0684918)
(-1.17159e-07 6.0631e-06 0.0684844)
(7.60479e-07 -5.87356e-06 0.0858389)
(1.25208e-06 1.20193e-05 0.0822954)
(9.03319e-07 -4.92144e-06 0.0684232)
(1.43796e-06 1.22651e-05 0.0858951)
(7.2958e-07 -4.22139e-06 0.0768995)
(2.76268e-07 -4.96339e-06 0.091398)
(1.19317e-06 1.59247e-05 0.0899667)
(-1.3359e-07 7.34982e-06 0.0787209)
(5.41278e-07 -5.50474e-06 0.0899157)
(2.13979e-07 -3.80272e-06 0.0786761)
(-4.85074e-07 7.39494e-06 0.0769492)
(7.22907e-06 7.21617e-06 0.083671)
(3.57727e-06 5.13205e-06 0.0683874)
(5.14916e-06 3.55532e-06 0.0683811)
(-7.82628e-06 -3.8227e-06 0.0916936)
(2.39375e-05 1.41817e-05 0.0963399)
(-3.615e-06 -3.46711e-06 0.087574)
(8.02141e-06 4.02115e-06 0.0816298)
(1.67192e-05 1.02405e-05 0.0917411)
(-1.10306e-05 -5.54072e-06 0.0962911)
(-3.86824e-06 -3.01041e-06 0.0815779)
(-3.81995e-06 -7.86264e-06 0.0916873)
(1.42416e-05 2.3912e-05 0.0963374)
(-3.44011e-06 -3.63114e-06 0.0875729)
(4.06608e-06 8.01409e-06 0.0816243)
(1.02887e-05 1.67091e-05 0.0917344)
(-5.52197e-06 -1.10505e-05 0.0962886)
(-2.9917e-06 -3.91665e-06 0.0815736)
(1.67361e-05 1.02535e-05 0.0917341)
(9.87389e-06 6.93306e-06 0.0876157)
(2.39564e-05 1.41855e-05 0.096334)
(8.0412e-06 4.01875e-06 0.0816221)
(1.02937e-05 1.673e-05 0.0917274)
(-5.52248e-06 -1.10371e-05 0.0962827)
(6.97577e-06 9.84405e-06 0.087614)
(1.42528e-05 2.3927e-05 0.0963314)
(4.06438e-06 8.02446e-06 0.0816166)
(-3.12309e-06 -3.16144e-06 0.0836328)
(3.56921e-06 5.12667e-06 0.0683941)
(5.14737e-06 3.54735e-06 0.0683878)
(7.22459e-06 7.20044e-06 0.0836784)
(-2.62654e-06 -4.08861e-06 0.0683384)
(-4.04955e-06 -2.66313e-06 0.0683324)
(-4.36167e-06 -2.54116e-06 0.0715656)
(5.86329e-06 3.35562e-06 0.0716118)
(-2.53287e-06 -4.3592e-06 0.0715658)
(3.39927e-06 5.83866e-06 0.0716117)
(-3.37071e-06 -5.84929e-06 0.0716264)
(2.49509e-06 4.39182e-06 0.0715799)
(-5.83149e-06 -3.38833e-06 0.071626)
(4.36908e-06 2.51238e-06 0.07158)
(3.17605e-06 3.1569e-06 0.0836471)
(-5.12061e-06 -3.56275e-06 0.0684072)
(-3.55253e-06 -5.14315e-06 0.0684008)
(4.06708e-06 2.65547e-06 0.068351)
(2.67333e-06 4.05202e-06 0.0683448)
(-7.1854e-06 -7.20814e-06 0.0836937)
(-1.0218e-05 -1.66752e-05 0.0917485)
(5.53045e-06 1.10476e-05 0.0962969)
(2.96808e-06 3.86538e-06 0.0815855)
(-6.91989e-06 -9.80969e-06 0.087632)
(3.82231e-06 7.84034e-06 0.0917002)