/*--------------------------------*- C++ -*----------------------------------*\
| =========                 |                                                 |
| \\      /  F ield         | OpenFOAM: The Open Source CFD Toolbox           |
|  \\    /   O peration     | Version:  2312                                  |
|   \\  /    A nd           | Website:  www.openfoam.com                      |
|    \\/     M anipulation  |                                                 |
\*---------------------------------------------------------------------------*/
FoamFile
{
    version     2.0;
    format      ascii;
    arch        "LSB;label=32;scalar=64";
    class       volScalarField;
    location    "350";
    object      nut;
}
// * * * * * * * * * * * * * * * * * * * * * * * * * * * * * * * * * * * * * //

dimensions      [0 2 -1 0 0 0 0];

internalField   nonuniform List<scalar> 
43168
(
0.000209146
0.000202463
0.000202474
0.00018349
0.000183434
0.000202111
0.000202118
0.00018343
0.000202113
0.000202105
0.000202104
0.000202135
0.000183431
0.000202105
0.000202137
0.000183424
0.000183506
0.000202458
0.000202456
0.000183585
0.000202459
0.000202428
0.000202452
0.000183577
0.000202455
5.07811e-05
5.07745e-05
0.000208487
0.00020853
0.000208524
0.000208549
0.000100455
5.07905e-05
0.000100374
5.07993e-05
2.39061e-05
2.39101e-05
0.000100448
5.07882e-05
0.000100362
5.07959e-05
0.000209152
0.000209129
0.000209146
0.000145425
0.000104192
0.000212265
0.000202799
0.000145209
0.000104289
0.000212681
2.39053e-05
2.39092e-05
0.000145431
0.000212253
0.000104206
0.000202801
0.000145187
0.000212673
0.000104303
7.82277e-05
7.82131e-05
0.000183888
7.82575e-05
7.82445e-05
2.3904e-05
2.3902e-05
0.000182973
7.81944e-05
7.81783e-05
2.39083e-05
2.39042e-05
2.39063e-05
2.39023e-05
0.000183045
7.82298e-05
7.82137e-05
7.82011e-05
7.81853e-05
0.000201397
0.000104131
0.000100299
5.07914e-05
5.07799e-05
0.000100376
0.000100298
5.07831e-05
5.07767e-05
0.00010038
0.000144988
0.000201759
0.000104214
0.00021182
0.00010412
0.00021136
0.00014521
0.000144986
0.000201761
0.00010419
0.00021182
0.000104101
0.00021136
0.000145209
2.39058e-05
2.39017e-05
0.000183109
7.82002e-05
7.82183e-05
7.81721e-05
2.39073e-05
0.000201397
0.000104109
0.000100283
5.07843e-05
5.07782e-05
0.000100372
0.000144944
0.000201759
0.000104194
0.000211808
0.0001041
0.000211332
0.000145179
0.000100283
5.07824e-05
5.07713e-05
0.000100372
0.000144947
0.000201733
0.000211803
0.000104189
0.000211326
0.00010409
0.000145183
0.000104199
0.000211782
0.000145198
5.07866e-05
0.000100368
0.000211835
0.000104204
0.000145194
5.07826e-05
0.000100365
2.39051e-05
2.39011e-05
0.000183103
7.82047e-05
7.82254e-05
7.81729e-05
7.81927e-05
2.39074e-05
2.39033e-05
0.000144962
0.000201764
0.000211772
0.000104213
0.000211335
0.000104112
0.000145201
0.000144958
0.000201765
0.000211825
0.00010419
0.00021135
0.000104089
0.000145193
0.000100288
5.07853e-05
5.0779e-05
0.000100379
0.000100288
5.07815e-05
5.07704e-05
0.000100373
0.000183009
7.82194e-05
7.82046e-05
7.81718e-05
2.39056e-05
2.39044e-05
2.39002e-05
2.39085e-05
2.39125e-05
2.39066e-05
2.39105e-05
7.82386e-05
7.82229e-05
0.000183899
7.82692e-05
7.8254e-05
2.39126e-05
2.39107e-05
0.000183962
7.82767e-05
7.82622e-05
0.000100453
5.07869e-05
0.000100374
5.07952e-05
0.000145415
0.000104208
0.000212264
0.000202801
0.000145206
0.000104302
0.00021271
0.000145417
0.000104184
0.000212262
0.000202801
0.000145206
0.000104276
0.000212708
0.000100453
5.0803e-05
0.000100445
5.07948e-05
0.000145414
0.00020313
0.000104297
0.00021314
0.00014541
0.000203127
0.00010427
0.000213136
7.82083e-05
7.82272e-05
0.000183914
7.82382e-05
7.82587e-05
2.39074e-05
2.39114e-05
2.39102e-05
0.000183976
7.8245e-05
7.82671e-05
2.39116e-05
0.000145395
0.000104191
0.000212234
0.000202804
0.000145175
0.000104285
0.000212685
0.000100445
5.07813e-05
0.000100364
5.07922e-05
0.000145397
0.000212227
0.000104181
0.000202777
0.000145178
0.000212679
0.000104275
0.000100439
5.0798e-05
0.000145393
0.000203134
0.000104281
0.000213116
0.000100436
5.07914e-05
0.000145394
0.000203105
0.000213109
0.000104269
0.000100442
5.0786e-05
0.000100363
5.07947e-05
0.000145411
0.000212255
0.000104197
0.000202799
0.000145202
0.000212702
0.00010429
0.00010044
5.07815e-05
0.000100362
5.07925e-05
0.000145436
0.000203142
0.000104283
0.000213139
0.000100438
5.07978e-05
0.000145425
0.000203126
0.000213134
0.000104285
0.00010044
5.07918e-05
7.82134e-05
7.82345e-05
0.00018391
7.82434e-05
7.82649e-05
2.39076e-05
2.39115e-05
2.39094e-05
0.000183973
7.82527e-05
7.82734e-05
2.39117e-05
0.000145422
0.000212244
0.000104182
0.000202801
0.000145193
0.000212691
0.000104276
0.000100453
5.07893e-05
0.000100371
5.07952e-05
0.000100444
5.07805e-05
0.000100366
5.07914e-05
0.000145427
0.000203146
0.000213129
0.000104296
0.000145418
0.000203129
0.000213123
0.000104271
0.000100446
5.07993e-05
0.000100436
5.07906e-05
2.39058e-05
2.39098e-05
2.39046e-05
2.39085e-05
0.000183948
7.8266e-05
7.82531e-05
2.391e-05
2.39087e-05
2.03232e-05
7.93109e-05
5.07751e-05
7.92889e-05
2.03252e-05
5.07723e-05
3.6742e-05
0.000100415
4.10868e-05
9.49782e-05
4.10869e-05
9.4945e-05
3.67423e-05
2.03305e-05
7.93342e-05
5.07957e-05
2.03285e-05
7.93576e-05
3.67383e-05
0.000100417
4.10831e-05
9.49124e-05
3.6739e-05
4.10828e-05
9.49471e-05
2.03303e-05
7.9373e-05
5.07983e-05
7.9351e-05
2.03322e-05
2.3908e-05
2.39081e-05
3.67417e-05
0.000100401
9.49686e-05
4.10871e-05
9.4928e-05
4.10872e-05
3.67437e-05
2.0331e-05
7.93233e-05
5.07902e-05
2.0329e-05
7.93464e-05
3.67415e-05
0.000100412
9.48944e-05
4.10834e-05
3.67371e-05
9.49407e-05
4.10831e-05
2.03308e-05
7.93615e-05
5.07908e-05
7.93394e-05
2.03327e-05
2.39072e-05
2.39073e-05
8.17316e-05
2.17248e-05
2.17214e-05
2.17229e-05
2.17195e-05
8.17395e-05
0.000105781
0.000129687
4.87019e-05
7.8239e-05
0.00010576
0.000129757
4.87016e-05
0.000105782
0.000129647
4.86908e-05
7.82246e-05
0.000105761
0.000129724
4.86906e-05
8.17258e-05
2.17212e-05
2.17178e-05
8.17181e-05
2.17231e-05
2.17197e-05
0.000105795
4.87062e-05
7.82475e-05
0.000129828
0.000129763
4.87064e-05
0.000105818
0.000105796
4.86954e-05
7.82341e-05
0.000129797
0.000129727
4.86956e-05
0.000105818
2.39019e-05
2.39e-05
8.1684e-05
2.17189e-05
2.17155e-05
2.17169e-05
2.17136e-05
8.169e-05
0.000105652
4.86947e-05
7.81822e-05
0.000129534
4.86872e-05
0.000105674
0.000129465
0.000105652
4.86799e-05
7.81662e-05
0.000129508
4.86763e-05
0.000105674
0.000129434
2.39064e-05
2.39062e-05
2.39045e-05
2.39042e-05
8.17049e-05
2.17187e-05
2.17153e-05
8.16989e-05
2.17207e-05
2.17173e-05
0.000105726
0.000129678
7.82185e-05
4.87046e-05
4.86971e-05
0.000129615
0.000105749
0.000105726
0.000129652
7.82021e-05
4.86917e-05
4.86842e-05
0.000129583
0.00010575
0.000105712
4.86918e-05
0.000129543
7.82114e-05
0.000105692
4.86996e-05
0.000129601
0.000105712
4.8679e-05
0.000129511
7.81955e-05
0.000105692
4.86863e-05
0.000129574
8.17132e-05
2.17225e-05
2.17191e-05
2.17205e-05
2.17171e-05
8.17199e-05
3.67322e-05
4.10751e-05
9.485e-05
0.000100339
3.67311e-05
4.10752e-05
9.48845e-05
2.03268e-05
5.07853e-05
7.93408e-05
2.03288e-05
7.93189e-05
2.0327e-05
7.93038e-05
5.07863e-05
2.0325e-05
7.93253e-05
3.67359e-05
0.000100336
4.1079e-05
9.49143e-05
3.67348e-05
4.1079e-05
9.48816e-05
3.67333e-05
4.10749e-05
9.48339e-05
0.000100344
3.67266e-05
4.10751e-05
9.48794e-05
2.03258e-05
5.07819e-05
7.93143e-05
7.92922e-05
2.03278e-05
2.0326e-05
7.92784e-05
5.07779e-05
2.0324e-05
7.92994e-05
3.67299e-05
0.000100333
4.10789e-05
9.49085e-05
4.10788e-05
9.48626e-05
3.67367e-05
2.39039e-05
2.39037e-05
0.00010572
0.000129647
7.81887e-05
4.86902e-05
0.000129579
4.86827e-05
0.000105743
0.000105718
0.000129669
7.8207e-05
4.87016e-05
4.8694e-05
0.000129603
0.000105741
0.000129515
7.81819e-05
0.000129571
8.17011e-05
2.17185e-05
2.17216e-05
2.17165e-05
2.17196e-05
8.171e-05
2.39056e-05
3.67357e-05
9.48296e-05
4.10752e-05
0.000100333
3.67291e-05
9.48766e-05
4.10754e-05
2.03273e-05
5.07832e-05
7.93299e-05
2.03293e-05
7.9307e-05
2.03275e-05
7.92906e-05
5.07792e-05
2.03255e-05
7.9313e-05
3.6732e-05
0.000100321
9.49083e-05
4.10794e-05
3.67391e-05
9.48618e-05
4.10791e-05
3.67339e-05
4.10719e-05
9.48279e-05
0.000100334
3.67273e-05
4.10781e-05
9.48731e-05
2.03264e-05
5.07765e-05
7.93129e-05
7.92907e-05
2.03283e-05
2.03266e-05
7.92749e-05
5.07774e-05
2.03246e-05
7.92969e-05
3.67304e-05
0.000100321
4.10812e-05
9.49028e-05
4.10758e-05
9.48583e-05
3.67373e-05
2.03271e-05
5.0781e-05
7.93152e-05
7.93027e-05
2.03291e-05
3.67333e-05
0.000100325
9.48988e-05
4.10804e-05
9.4859e-05
4.10754e-05
3.67369e-05
2.03262e-05
5.07766e-05
7.93127e-05
7.92906e-05
2.03281e-05
3.67341e-05
0.000100323
4.10812e-05
9.48958e-05
4.10758e-05
9.48623e-05
3.67331e-05
2.39032e-05
2.3903e-05
8.17013e-05
2.17155e-05
2.17188e-05
8.16928e-05
2.17175e-05
2.17207e-05
0.000105726
0.000129643
7.81936e-05
4.86906e-05
0.000129566
4.86843e-05
0.000105746
0.000105729
0.000129683
7.82144e-05
4.87005e-05
4.87005e-05
0.000129611
0.000105748
0.000105709
4.86792e-05
0.000129485
7.81846e-05
0.00012956
0.000105688
4.86869e-05
0.000105711
4.86957e-05
0.000129526
7.82042e-05
0.00010569
4.86955e-05
0.0001296
8.17062e-05
2.17192e-05
2.17224e-05
2.17172e-05
2.17205e-05
8.17146e-05
2.39055e-05
2.39052e-05
3.67348e-05
9.48449e-05
4.10711e-05
0.000100341
3.67297e-05
9.48902e-05
4.10773e-05
2.03279e-05
5.07841e-05
7.93374e-05
7.9315e-05
2.03298e-05
2.03281e-05
7.92988e-05
5.07801e-05
2.03261e-05
7.9321e-05
3.67345e-05
0.000100327
9.49203e-05
4.10809e-05
9.48752e-05
4.10751e-05
3.67386e-05
3.6732e-05
9.48326e-05
4.10729e-05
0.000100336
3.67269e-05
9.48759e-05
4.10749e-05
2.03256e-05
5.07756e-05
7.93122e-05
7.92896e-05
2.03276e-05
2.03259e-05
7.92738e-05
5.07765e-05
2.03239e-05
7.92963e-05
3.67305e-05
0.000100326
9.49055e-05
4.10779e-05
9.48631e-05
4.10781e-05
3.67353e-05
8.16993e-05
2.17197e-05
2.17163e-05
0.000105732
0.000129679
7.82086e-05
4.86984e-05
0.000105748
0.000129611
4.86947e-05
0.000105731
0.000129643
7.81938e-05
4.86859e-05
0.000105748
0.000129569
4.86858e-05
0.000105714
7.81994e-05
0.000129597
4.86954e-05
0.000105713
0.000129483
7.81835e-05
0.000129559
4.86808e-05
8.17043e-05
2.17214e-05
2.1718e-05
8.17122e-05
2.17195e-05
2.17161e-05
2.39036e-05
2.39034e-05
2.39024e-05
2.39022e-05
2.39104e-05
2.39106e-05
2.39084e-05
2.39086e-05
8.17397e-05
2.17259e-05
2.17225e-05
2.17239e-05
2.17206e-05
8.17475e-05
0.000105786
0.000129692
4.87017e-05
7.8251e-05
0.000105766
4.87093e-05
0.00012976
0.000105787
0.000129661
4.86891e-05
7.82353e-05
0.000105766
4.86966e-05
0.000129735
8.17338e-05
2.17222e-05
2.17189e-05
8.17267e-05
2.17242e-05
2.17208e-05
0.0001058
4.8714e-05
7.82579e-05
0.000129828
4.87066e-05
0.000105822
0.000129768
0.000105801
4.87013e-05
7.82425e-05
0.000129804
4.86939e-05
0.000105823
0.000129737
2.39145e-05
2.39125e-05
8.17605e-05
2.17256e-05
2.17222e-05
8.17527e-05
2.17275e-05
2.17241e-05
0.000105856
4.87112e-05
0.000129841
7.82885e-05
0.000105836
4.87186e-05
0.000129907
0.000105857
4.86986e-05
0.000129812
7.82742e-05
0.000105837
4.87059e-05
0.000129884
3.67384e-05
0.000100408
4.10868e-05
9.49689e-05
4.10868e-05
9.49258e-05
3.67427e-05
2.03295e-05
7.93078e-05
5.0789e-05
2.03276e-05
7.93309e-05
3.67396e-05
0.000100419
4.10831e-05
9.48981e-05
4.10828e-05
3.67343e-05
9.49398e-05
2.03293e-05
7.93445e-05
5.07889e-05
7.93233e-05
2.03312e-05
3.67459e-05
4.10909e-05
9.49759e-05
0.000100493
3.67449e-05
4.10908e-05
9.50081e-05
2.03339e-05
7.93665e-05
5.08039e-05
2.0332e-05
7.93888e-05
3.67467e-05
4.10909e-05
9.49565e-05
0.000100493
3.67418e-05
4.10908e-05
9.50014e-05
2.03329e-05
7.93378e-05
5.07997e-05
2.0331e-05
7.93605e-05
8.17292e-05
2.17221e-05
2.17252e-05
2.17202e-05
2.17233e-05
8.17373e-05
0.000105781
0.000129656
4.86877e-05
7.82204e-05
4.86951e-05
0.00010576
0.000129726
0.00010578
0.00012968
4.86991e-05
7.82397e-05
0.000129752
0.000105759
4.87069e-05
8.17238e-05
2.17185e-05
2.17216e-05
2.17204e-05
8.17154e-05
2.17235e-05
0.000105795
4.86998e-05
7.82266e-05
0.000129794
4.86925e-05
0.000129731
0.000105817
0.000105794
4.87116e-05
7.82476e-05
0.000129822
0.000129757
4.87042e-05
0.000105816
2.39094e-05
2.39096e-05
2.39121e-05
8.17505e-05
2.17218e-05
2.1725e-05
8.17426e-05
2.17237e-05
2.17269e-05
0.000105851
4.86972e-05
0.000129805
7.82574e-05
0.000129873
0.000105831
4.87045e-05
0.00010585
4.87089e-05
0.000129831
7.82789e-05
0.00010583
4.87162e-05
0.000129901
2.39135e-05
3.67374e-05
0.000100399
4.1087e-05
9.49616e-05
4.10871e-05
9.49188e-05
3.67437e-05
2.033e-05
7.93064e-05
5.07874e-05
2.03281e-05
7.93286e-05
3.67407e-05
0.000100409
4.10833e-05
9.48912e-05
4.10835e-05
3.6734e-05
9.49324e-05
2.03298e-05
7.93425e-05
5.07863e-05
7.93216e-05
2.03317e-05
3.67464e-05
9.49597e-05
4.10911e-05
0.000100485
3.67456e-05
9.49931e-05
4.1091e-05
2.03344e-05
7.93547e-05
5.08005e-05
2.03325e-05
7.93767e-05
3.67466e-05
4.10908e-05
9.4949e-05
0.000100485
3.67415e-05
4.10908e-05
9.49933e-05
2.03333e-05
7.93361e-05
5.07963e-05
2.03314e-05
7.93583e-05
3.67405e-05
0.0001004
9.49575e-05
4.1086e-05
9.49189e-05
4.10862e-05
3.67434e-05
2.03308e-05
7.93184e-05
5.0791e-05
7.93314e-05
2.03288e-05
3.67402e-05
0.000100406
9.489e-05
4.10822e-05
9.49296e-05
3.6737e-05
4.10825e-05
2.03305e-05
7.93462e-05
5.07938e-05
7.93338e-05
2.03325e-05
3.67405e-05
0.000100399
4.10867e-05
9.49567e-05
4.10869e-05
9.49245e-05
3.67407e-05
2.03299e-05
7.93062e-05
5.07877e-05
2.03279e-05
7.93285e-05
3.67376e-05
0.000100403
4.10817e-05
9.48938e-05
3.67376e-05
4.10837e-05
9.49274e-05
2.03296e-05
7.93425e-05
5.07865e-05
7.93215e-05
2.03316e-05
3.67467e-05
9.49472e-05
4.109e-05
0.000100481
3.67438e-05
9.49887e-05
4.10898e-05
2.03342e-05
7.93486e-05
5.08001e-05
2.03322e-05
7.93617e-05
3.6743e-05
4.10906e-05
9.49563e-05
0.000100481
3.67437e-05
4.10905e-05
9.49891e-05
2.03333e-05
7.93364e-05
5.07967e-05
2.03313e-05
7.93585e-05
8.1733e-05
2.17225e-05
2.17257e-05
2.17206e-05
2.17239e-05
8.17413e-05
0.00010578
0.000129645
4.86922e-05
7.82247e-05
4.86933e-05
0.00010576
0.000129721
0.000105783
0.000129689
4.87054e-05
7.8246e-05
0.000129762
0.000105762
4.87051e-05
8.17279e-05
2.17189e-05
2.17222e-05
2.17208e-05
8.17197e-05
2.17241e-05
0.000105795
4.86972e-05
7.82332e-05
0.000129792
4.86975e-05
0.000129722
0.000105817
0.000105798
4.87097e-05
7.82545e-05
0.000129833
0.000129767
4.871e-05
0.000105819
2.39094e-05
2.39097e-05
2.39112e-05
8.17544e-05
2.17222e-05
2.17255e-05
8.17463e-05
2.17241e-05
2.17274e-05
0.000105851
4.87018e-05
0.000129797
7.82634e-05
0.000129871
0.000105832
4.87016e-05
0.000105853
4.87146e-05
0.000129841
7.82845e-05
0.000105834
4.87143e-05
0.000129911
2.39134e-05
3.67392e-05
0.000100409
9.498e-05
4.10861e-05
9.49368e-05
4.10865e-05
3.67456e-05
2.03315e-05
7.93309e-05
5.07904e-05
7.93532e-05
2.03296e-05
3.67424e-05
0.000100417
9.49084e-05
4.10807e-05
9.49504e-05
3.67356e-05
4.10836e-05
2.03313e-05
7.93674e-05
5.07942e-05
7.93465e-05
2.03332e-05
3.67377e-05
0.000100401
9.49626e-05
4.10854e-05
9.49225e-05
4.10858e-05
3.67416e-05
2.03293e-05
7.93052e-05
5.07866e-05
2.03273e-05
7.93279e-05
3.67385e-05
0.00010041
9.48945e-05
4.10823e-05
3.67343e-05
9.49341e-05
4.10815e-05
2.0329e-05
7.93418e-05
5.07855e-05
7.93206e-05
2.0331e-05
3.67485e-05
9.49677e-05
4.109e-05
0.000100494
3.67433e-05
9.50119e-05
4.10898e-05
2.03348e-05
7.93614e-05
5.08e-05
2.03329e-05
7.93835e-05
3.67448e-05
9.49511e-05
4.10898e-05
0.000100483
3.67411e-05
9.49936e-05
4.10893e-05
2.03326e-05
7.93353e-05
5.07956e-05
2.03307e-05
7.93579e-05
2.39077e-05
2.39079e-05
2.39065e-05
2.39067e-05
8.17526e-05
2.17246e-05
2.17212e-05
8.1745e-05
2.17265e-05
2.17231e-05
0.00010585
4.87111e-05
0.000129835
7.82764e-05
0.000105831
0.000129902
4.87107e-05
0.000105851
4.87002e-05
0.000129801
7.8264e-05
0.000105832
0.000129873
4.86999e-05
2.39118e-05
2.39106e-05
0.000207241
0.000206099
0.000206086
0.000209708
0.000206805
0.000206788
0.000197562
0.000196545
0.000139387
0.000163165
0.000163118
0.000183658
0.000139346
0.000163218
0.000163192
0.000139265
0.000183272
0.000163058
0.000163023
0.000163006
0.000162959
0.00013931
0.000139258
0.000183345
0.000163029
0.00016304
0.000162966
0.000162986
0.000139303
0.000139264
0.000183346
0.00016304
0.000163065
0.000162985
0.000163011
0.000139304
0.000139269
0.000183251
0.000163055
0.000163048
0.000139305
0.000162999
0.00016296
0.0001394
0.000163172
0.000163127
0.00018367
0.00013936
0.000163226
0.000163191
0.000139394
0.000163144
0.000163158
0.000183677
0.000163213
0.000139353
0.000163199
0.000139388
0.000163146
0.000163173
0.000183673
0.000163227
0.000139348
0.0001632
0.000207913
0.000205255
0.000205237
0.000204529
0.000204509
0.000194543
0.000195562
0.000207934
0.000205267
0.000205281
0.000204538
0.000204544
0.000194624
0.000195489
0.000207909
0.000205264
0.000205271
0.000204518
0.00020453
0.000194618
0.000195487
0.000207934
0.000205291
0.00020528
0.000204552
0.000204543
0.000194643
0.000195471
0.000206096
0.00020609
0.000209735
0.000206805
0.0002068
0.000197471
0.000196629
0.000206074
0.000206078
0.000209717
0.000206792
0.000206791
0.00019747
0.000196624
0.000206098
0.000206088
0.000209729
0.000206805
0.000206795
0.00019745
0.000196648
0.000210348
0.00020763
0.000207614
0.000198526
0.000210342
0.000207621
0.000207619
0.00019861
0.000210326
0.000207605
0.000207608
0.000198606
0.000210338
0.000207625
0.000207616
0.000198629
0.000172955
0.000145325
0.000138752
0.000178348
0.000138651
0.000178328
0.000173054
0.000162199
0.000148714
0.000123571
0.000104245
0.000162082
0.000148781
0.000123652
0.000172852
0.000145315
0.000138554
0.000178109
0.000172754
0.000138659
0.00017813
0.000162236
0.000123723
0.000104239
0.000148911
0.000148842
0.000123647
0.000162357
0.000172945
0.000145313
0.000178389
0.000138765
0.000178251
0.000138658
0.000173055
0.0001622
0.000148743
0.000123583
0.00010426
0.000162074
0.000148814
0.000123665
0.000172852
0.000145318
0.000178033
0.000138554
0.000172743
0.000178173
0.000138669
0.000162239
0.000123735
0.000104253
0.000148941
0.000148869
0.000123656
0.000162366
0.000139432
0.000183721
0.000163374
0.00016334
0.000163322
0.000163274
0.000139474
0.000139085
0.000182844
0.000162743
0.000162725
0.000139129
0.000162682
0.000162652
0.000139219
0.0001832
0.000162844
0.0001628
0.000139179
0.000162893
0.000162862
0.000161592
0.000123459
0.000104078
0.000148437
0.000123381
0.00014837
0.000161716
0.000172468
0.000138376
0.000177603
0.0001451
0.000172358
0.000138481
0.000177734
0.000161923
0.00014866
0.000104163
0.000123592
0.000148605
0.000123513
0.000162051
0.000161885
0.000123446
0.000148484
0.000104169
0.00014855
0.000161758
0.00012352
0.000172561
0.000145093
0.000138575
0.00017795
0.000138467
0.000177816
0.000172671
0.000172465
0.00013836
0.000177606
0.000145101
0.000172359
0.000138468
0.000177737
0.00016194
0.000148627
0.000104139
0.000123575
0.000123498
0.00014858
0.000162003
0.000161837
0.000123433
0.000148464
0.000104147
0.000161767
0.000123508
0.000148505
0.00017256
0.000145091
0.000138563
0.000177952
0.000138454
0.000177817
0.000172664
0.000183194
0.000162822
0.000162877
0.000104056
0.000148402
0.000148357
0.000172414
0.00013833
0.000177573
0.000145061
0.000172317
0.00013844
0.000177703
0.000161947
0.000148646
0.000104143
0.00012358
0.000148606
0.000123501
0.000161995
0.000161825
0.000123428
0.000148479
0.000104148
0.000148515
0.000161772
0.000123505
0.000172525
0.000145057
0.000138542
0.000177929
0.00013843
0.000177796
0.000172623
0.000172415
0.00017757
0.00013834
0.000145066
0.000172306
0.000177702
0.000138451
0.000161882
0.000148649
0.000104136
0.000123571
0.000123489
0.000148577
0.000162007
0.000161835
0.000123416
0.000148446
0.000104142
0.00016171
0.000123498
0.00014852
0.000172512
0.000145061
0.00017793
0.000138548
0.000177794
0.000138432
0.000172624
0.000161923
0.000148655
0.000104148
0.000123577
0.000162033
0.000148592
0.0001235
0.000172554
0.000145093
0.000138562
0.000177908
0.00017265
0.000138457
0.000177881
0.000161963
0.000148667
0.000104151
0.000123585
0.000123507
0.000148627
0.00016201
0.000172556
0.000145087
0.000177907
0.000138547
0.000177883
0.000138452
0.000172645
0.000139211
0.000183188
0.000162812
0.000162838
0.00016287
0.000139168
0.000162894
0.000172438
0.000177588
0.000138357
0.000145092
0.000172333
0.000177719
0.000138468
0.000161921
0.000148685
0.000104159
0.000123592
0.000162043
0.000148611
0.000123511
0.000161865
0.000123439
0.000148473
0.000104163
0.000161754
0.000148546
0.000123518
0.000172537
0.000145068
0.000177946
0.000138562
0.000172645
0.00017781
0.000138448
0.000172441
0.000177587
0.000138358
0.000145086
0.000172332
0.000177721
0.000138467
0.000161903
0.000148636
0.000104136
0.000123581
0.0001235
0.000148571
0.000162027
0.000161859
0.000123429
0.000148438
0.000104142
0.000161736
0.00012351
0.000148502
0.000172535
0.000145065
0.000177947
0.000138563
0.00017781
0.000138452
0.000172646
0.000139217
0.000183186
0.000162792
0.000162889
0.000162888
0.000139446
0.000183734
0.00016338
0.000163348
0.000139487
0.000163328
0.00016329
0.000139572
0.000184127
0.000163486
0.000163455
0.000139534
0.000163539
0.000163512
0.000172965
0.000145304
0.000138756
0.000178387
0.00013866
0.000178254
0.000173074
0.000162217
0.000148733
0.000123587
0.000104263
0.000123671
0.000162089
0.000148786
0.000172876
0.00014532
0.000138568
0.000178041
0.000138672
0.000172766
0.000178177
0.000162248
0.000123736
0.000104254
0.000148904
0.00012366
0.000148854
0.000162376
0.000172959
0.000145303
0.00013875
0.000178386
0.000138649
0.000178253
0.000173059
0.000162163
0.000148713
0.000123569
0.000104237
0.000162109
0.000123648
0.00014876
0.000172865
0.000145314
0.000138558
0.000178042
0.000172762
0.00013866
0.000178178
0.000162275
0.00012371
0.000104228
0.000148883
0.000123638
0.000162324
0.000148842
0.000173268
0.000138755
0.000178461
0.000145523
0.000173162
0.000138844
0.000178589
0.000162534
0.000123729
0.00014898
0.00010435
0.000149031
0.000162407
0.00012381
0.000173252
0.000138741
0.00017846
0.000145527
0.000173156
0.000138845
0.000178587
0.000162479
0.000123705
0.000148971
0.000104323
0.000162436
0.000123783
0.000149012
0.00013944
0.000183792
0.000163354
0.00016337
0.000163318
0.000163302
0.000139481
0.000139566
0.000184135
0.000163461
0.000163476
0.000163514
0.000139528
0.000163529
0.000172933
0.000145279
0.000138738
0.000178372
0.000138632
0.000178235
0.000173033
0.000162159
0.000148737
0.000123573
0.000104245
0.000123652
0.000162113
0.000148779
0.000172831
0.000145287
0.000138535
0.000178018
0.000138642
0.000172732
0.000178156
0.000162279
0.000123717
0.000104237
0.000148899
0.000123644
0.00014886
0.000162324
0.000172922
0.00014528
0.000178371
0.000138738
0.000178233
0.000138634
0.000173035
0.000162171
0.000148701
0.000123561
0.000104235
0.000162042
0.000123642
0.000148773
0.000172832
0.000145288
0.000178016
0.000138539
0.00017272
0.000178156
0.000138644
0.000162208
0.000123708
0.000104226
0.000148897
0.000123632
0.000162337
0.000148827
0.000173236
0.00013873
0.000178451
0.000145516
0.000173137
0.000138838
0.000178588
0.000162481
0.000123713
0.000148984
0.000104333
0.000149024
0.000162439
0.000123792
0.000173237
0.000178449
0.000138729
0.000145516
0.000173126
0.000178587
0.000138836
0.000162497
0.000123702
0.00014895
0.000104323
0.000162369
0.000123782
0.000149019
0.00017296
0.000145311
0.000178345
0.000138738
0.000178326
0.000138647
0.000173049
0.000162171
0.000148753
0.000123578
0.00010425
0.000148793
0.000162124
0.000123655
0.000172845
0.000145303
0.000178111
0.00013855
0.000178127
0.000172757
0.000138643
0.000162291
0.000123721
0.000104242
0.000148914
0.000148877
0.000123647
0.000162336
0.000173252
0.000138743
0.000178544
0.000145535
0.000173151
0.000138845
0.000178563
0.000162519
0.000123716
0.000148966
0.000104335
0.000162394
0.000149036
0.000123794
0.000173248
0.000178544
0.000138745
0.000145526
0.000173161
0.000178565
0.000138836
0.000162492
0.000123717
0.000149
0.000104337
0.000162451
0.000123795
0.000149039
0.000139437
0.000183784
0.000163353
0.000163381
0.00016333
0.000163302
0.000139478
0.000139562
0.000184132
0.000163458
0.000163487
0.000163512
0.000139524
0.000163539
0.000172938
0.000145306
0.000178385
0.000138748
0.000178247
0.000138645
0.000173051
0.000162186
0.000148695
0.000123571
0.000104236
0.000148761
0.000162057
0.00012365
0.000172851
0.000145311
0.00017803
0.000138554
0.00017817
0.000172739
0.000138657
0.000162221
0.000123715
0.000104227
0.000148889
0.000148821
0.00012364
0.00016235
0.000173256
0.000178464
0.000138753
0.000145547
0.000173147
0.000178602
0.00013886
0.000162527
0.000123726
0.000148992
0.000104348
0.000162401
0.000149062
0.000123806
0.00017325
0.000178462
0.000138738
0.000145538
0.000173139
0.000178599
0.000138845
0.000162509
0.000123708
0.000148948
0.000104324
0.00016238
0.000123788
0.000149017
0.000139556
0.000184115
0.000163473
0.000163434
0.000139518
0.00016353
0.000163496
0.000211475
0.00020377
0.000203774
0.000184386
0.000213702
0.000205004
0.000205009
0.000185202
0.000215778
0.000206134
0.000206138
0.000185942
0.000217702
0.00020716
0.000207165
0.000186614
0.000219468
0.000208085
0.000208091
0.000187209
0.000221071
0.000208908
0.000208914
0.000187692
0.000222509
0.000209631
0.000209635
0.000188143
0.000223782
0.000210256
0.000210255
0.000188528
0.00022489
0.000210787
0.000210783
0.000188864
0.00022584
0.00021123
0.000211223
0.000189148
0.000226641
0.000211592
0.000211584
0.0001894
0.000227306
0.000211883
0.000211879
0.000189584
0.000227842
0.000212115
0.000212112
0.000189723
0.000228259
0.000212295
0.000212287
0.000189816
0.000228558
0.000212422
0.000212415
0.00018988
0.000228742
0.000212502
0.000212502
0.000189991
0.00022884
0.000212552
0.000212556
0.000190033
0.000228899
0.000212593
0.000212596
0.000189999
0.000228985
0.000212697
0.000212701
0.000189983
0.000229149
0.0002126
0.000212599
0.000194332
0.000184352
0.000203463
0.000203459
0.000184353
0.000203469
0.00020344
0.000203466
0.000203459
0.000184352
0.000203471
0.000203462
0.000184339
0.000184407
0.000185202
0.000203777
0.00020377
0.000204692
0.000204679
0.000184407
0.000185191
0.000203783
0.000203753
0.000204701
0.00020467
0.00020377
0.000204718
0.000204679
0.000184407
0.00018519
0.000203773
0.000204723
0.000204684
0.000185178
0.00018523
0.000185966
0.000205006
0.000204989
0.000205846
0.000205824
0.000185226
0.000185955
0.000205015
0.000204984
0.000205859
0.000205826
0.000204989
0.000205868
0.000205822
0.000185224
0.000185951
0.000204995
0.000205871
0.000205829
0.000185934
0.00018598
0.000186663
0.000206135
0.000206109
0.000206897
0.000206867
0.000185974
0.000186651
0.000206149
0.000206114
0.000206914
0.000206876
0.000206106
0.000206913
0.000206858
0.000185971
0.000186644
0.000206113
0.000206916
0.000206867
0.000186624
0.000186659
0.000187285
0.000207164
0.00020713
0.000207843
0.000207807
0.000186649
0.000187267
0.000207181
0.000207142
0.000207865
0.000207823
0.000207121
0.000207853
0.000207795
0.000186653
0.000187267
0.00020713
0.000207857
0.000207803
0.000187239
0.000187266
0.000187809
0.000208089
0.00020805
0.000208685
0.000208645
0.000187256
0.000187787
0.000208111
0.000208068
0.000208712
0.000208666
0.000208037
0.000208691
0.000208628
0.000187261
0.000187792
0.000208046
0.000208696
0.000208636
0.000187788
0.000187794
0.000188288
0.000208911
0.000208869
0.000209426
0.000209382
0.000187784
0.000188262
0.000208938
0.000208891
0.000209457
0.000209405
0.000208851
0.00020943
0.000209361
0.000187774
0.000188264
0.000208859
0.000209434
0.000209368
0.000188257
0.000188253
0.000188699
0.000209632
0.000209587
0.000210069
0.000210022
0.000188245
0.000188719
0.000209664
0.00020961
0.000210103
0.000210046
0.000209566
0.000210073
0.000209999
0.000188226
0.000188671
0.000209573
0.000210074
0.000210006
0.000188668
0.000188647
0.000189073
0.000210255
0.000210208
0.000210619
0.00021057
0.000188593
0.000189061
0.00021029
0.000210232
0.000210655
0.000210594
0.000210184
0.000210623
0.000210546
0.000188614
0.000189012
0.000210191
0.00021062
0.000210552
0.000189009
0.000188954
0.000189317
0.000210785
0.000210737
0.000211089
0.000211037
0.000188923
0.000189346
0.000210821
0.000210759
0.000211125
0.00021106
0.000210712
0.000211092
0.000211014
0.000188941
0.000189338
0.000210718
0.000211085
0.00021102
0.000189293
0.000189264
0.000189554
0.000211223
0.000211175
0.000211476
0.000211425
0.000189194
0.000189539
0.00021126
0.000211195
0.000211511
0.000211443
0.00021115
0.000211478
0.000211401
0.000189176
0.000189516
0.000211156
0.000211472
0.000211408
0.000189502
0.000189481
0.00018977
0.000211586
0.000211535
0.000211791
0.00021174
0.000189461
0.000189712
0.000211621
0.000211552
0.000211824
0.000211754
0.000211512
0.000211791
0.000211715
0.000189449
0.000189698
0.00021152
0.000211788
0.000211725
0.000189698
0.000189629
0.000189933
0.000211882
0.00021183
0.000212047
0.000211994
0.000189655
0.000189852
0.000211914
0.000211838
0.000212076
0.000211997
0.000211801
0.00021204
0.000211961
0.00018964
0.000189839
0.000211811
0.000212042
0.000211977
0.000189844
0.00018978
0.000190066
0.000212121
0.000212061
0.000212253
0.000212192
0.0001898
0.000189977
0.000212148
0.000212068
0.000212276
0.000212189
0.000212031
0.000212234
0.000212156
0.000189787
0.000189985
0.000212046
0.000212237
0.000212174
0.00018998
0.000189891
0.000190094
0.000212306
0.00021224
0.000212406
0.000212335
0.000189908
0.000190063
0.000212327
0.000212245
0.000212423
0.000212334
0.000212214
0.00021238
0.000212309
0.000189873
0.000190101
0.000212228
0.000212379
0.000212322
0.00019007
0.000190044
0.000190171
0.00021244
0.000212367
0.000212505
0.000212429
0.000189992
0.000190103
0.000212457
0.000212372
0.00021252
0.000212431
0.00021235
0.000212478
0.000212417
0.000189928
0.00019013
0.000212359
0.000212478
0.000212426
0.000190076
0.000190041
0.000190204
0.000212528
0.000212451
0.000212567
0.000212494
0.000190037
0.000190157
0.000212543
0.000212454
0.000212582
0.000212497
0.000212442
0.000212536
0.000212489
0.000190002
0.000190155
0.000212452
0.00021254
0.000212501
0.000190097
0.000190083
0.000190237
0.000212582
0.000212511
0.000212605
0.00021254
0.000190036
0.000190222
0.000212595
0.000212513
0.000212617
0.000212541
0.000212505
0.000212576
0.000212536
0.00019003
0.000190227
0.000212519
0.00021258
0.00021255
0.000190184
0.000190022
0.000190209