/*--------------------------------*- C++ -*----------------------------------*\
| =========                 |                                                 |
| \\      /  F ield         | OpenFOAM: The Open Source CFD Toolbox           |
|  \\    /   O peration     | Version:  2312                                  |
|   \\  /    A nd           | Website:  www.openfoam.com                      |
|    \\/     M anipulation  |                                                 |
\*---------------------------------------------------------------------------*/
FoamFile
{
    version     2.0;
    format      ascii;
    arch        "LSB;label=32;scalar=64";
    class       volVectorField;
    location    "350";
    object      U;
}
// * * * * * * * * * * * * * * * * * * * * * * * * * * * * * * * * * * * * * //

dimensions      [0 1 -1 0 0 0 0];

internalField   nonuniform List<vector> 
43168
(
(-8.05682e-06 -8.31077e-06 0.112467)
(8.73548e-06 -4.7922e-06 0.107479)
(-4.60151e-06 8.75206e-06 0.10748)
(-2.54064e-05 -2.58072e-05 0.104192)
(-3.95208e-05 -4.00272e-05 0.104308)
(-4.50151e-06 -9.01117e-06 0.107479)
(4.62782e-06 -8.91496e-06 0.107478)
(3.97105e-05 -3.98393e-05 0.104306)
(-8.74197e-06 -4.95824e-06 0.107482)
(-8.8812e-06 4.55374e-06 0.10748)
(8.78544e-06 -4.82594e-06 0.10748)
(8.92024e-06 4.52301e-06 0.107478)
(-3.97505e-05 3.96973e-05 0.104307)
(-4.6536e-06 8.82108e-06 0.107481)
(4.85401e-06 8.73796e-06 0.10748)
(3.99489e-05 3.95808e-05 0.104305)
(2.5859e-05 2.53396e-05 0.104194)
(-4.45016e-06 -8.96843e-06 0.107478)
(4.62911e-06 -8.86365e-06 0.107477)
(-2.56486e-05 2.54991e-05 0.104193)
(-8.66287e-06 -4.95127e-06 0.107481)
(-8.82704e-06 4.53931e-06 0.107479)
(8.90164e-06 4.4999e-06 0.107477)
(2.56132e-05 -2.56803e-05 0.104194)
(4.87291e-06 8.68645e-06 0.107479)
(-9.15955e-07 -1.16935e-05 0.0822804)
(-1.13607e-05 -1.63734e-06 0.0822842)
(-8.07403e-06 -8.28323e-06 0.112474)
(8.05204e-06 -8.21216e-06 0.112472)
(-8.15613e-06 8.05018e-06 0.112474)
(8.17684e-06 8.05305e-06 0.112472)
(1.21019e-07 -1.53392e-05 0.0914289)
(8.9112e-07 7.66796e-06 0.0822499)
(1.32637e-07 6.14506e-06 0.0913802)
(-9.30239e-07 -1.15312e-05 0.0823069)
(-2.26482e-06 4.65142e-06 0.0715714)
(3.58687e-06 -5.44956e-06 0.0716344)
(-1.52941e-05 -5.33937e-07 0.0914329)
(7.94355e-06 2.53781e-07 0.0822536)
(6.20007e-06 -5.33794e-07 0.0913843)
(-1.12673e-05 -1.54782e-06 0.0823103)
(8.07462e-06 -8.24297e-06 0.112465)
(-8.16054e-06 8.06472e-06 0.112467)
(8.231e-06 8.07112e-06 0.112465)
(2.50427e-05 -7.73733e-07 0.0985737)
(-1.02436e-05 3.42115e-06 0.0930147)
(1.13566e-05 -2.18215e-06 0.1099)
(8.68043e-06 -4.76121e-06 0.107477)
(-1.00896e-05 -5.64408e-07 0.0985144)
(1.89229e-05 -7.39112e-06 0.0930764)
(1.13339e-05 -2.19361e-06 0.109895)
(4.54108e-06 -2.58364e-06 0.0715739)
(-5.61543e-06 3.37347e-06 0.0716322)
(-2.34124e-07 2.50248e-05 0.0985728)
(-1.93444e-06 1.13575e-05 0.1099)
(3.70036e-06 -1.01283e-05 0.093015)
(-4.55602e-06 8.69854e-06 0.107478)
(3.61782e-08 -1.01022e-05 0.0985138)
(-1.90454e-06 1.13167e-05 0.109896)
(-7.07791e-06 1.90066e-05 0.0930754)
(-4.1773e-06 -4.10365e-06 0.0875686)
(-3.30176e-06 -4.66988e-06 0.0875678)
(3.9808e-05 3.93555e-05 0.104307)
(9.27096e-06 6.26641e-06 0.0876238)
(7.07583e-06 8.76025e-06 0.0876222)
(-2.95386e-06 -5.91358e-06 0.0716083)
(-5.54688e-06 -3.6901e-06 0.0716091)
(-3.97624e-05 -4.01841e-05 0.104306)
(-6.24092e-06 -9.4728e-06 0.0876014)
(-9.0092e-06 -7.06952e-06 0.0876008)
(-2.97163e-06 -5.86362e-06 0.0716208)
(2.92378e-06 4.37713e-06 0.0715609)
(-5.52986e-06 -3.65372e-06 0.0716215)
(4.69242e-06 2.23688e-06 0.0715621)
(2.57074e-05 2.52624e-05 0.104192)
(-6.2159e-06 -9.3758e-06 0.0876141)
(-8.93065e-06 -7.00948e-06 0.0876134)
(4.11347e-06 4.03683e-06 0.087558)
(4.54536e-06 3.33849e-06 0.0875585)
(-4.61423e-06 -9.09524e-06 0.107482)
(-7.04441e-06 -1.94015e-05 0.0930521)
(9.30266e-08 6.03705e-06 0.0913679)
(-9.09428e-07 -1.1618e-05 0.0822938)
(8.89146e-07 7.59674e-06 0.0822365)
(9.55186e-08 -1.54633e-05 0.0914169)
(5.27314e-07 6.07656e-06 0.0913682)
(1.51009e-06 -1.12845e-05 0.0822954)
(-2.77567e-07 7.85782e-06 0.0822364)
(6.02568e-07 -1.54332e-05 0.0914171)
(-9.94961e-08 9.89295e-06 0.0985044)
(-4.55325e-06 -9.05595e-06 0.107481)
(-6.95537e-06 -1.92665e-05 0.0930636)
(-1.99323e-06 -1.15309e-05 0.109903)
(3.8351e-06 9.86095e-06 0.093002)
(-2.01386e-06 -1.15536e-05 0.109907)
(-3.19782e-07 -2.53358e-05 0.0985639)
(5.20169e-07 9.92126e-06 0.0985046)
(4.63748e-06 -8.93335e-06 0.10748)
(7.53612e-06 -1.90195e-05 0.093064)
(2.02989e-06 -1.15094e-05 0.109902)
(-3.28892e-06 1.0081e-05 0.0930014)
(2.03506e-06 -1.15302e-05 0.109906)
(8.26214e-07 -2.53092e-05 0.0985641)
(3.53937e-06 -5.50485e-06 0.0716222)
(-2.3323e-06 4.59639e-06 0.0715589)
(-2.56398e-05 2.54068e-05 0.10419)
(6.84324e-06 -9.01606e-06 0.0876126)
(9.13298e-06 -6.66891e-06 0.0876138)
(-3.56997e-06 4.35797e-06 0.0875558)
(5.67577e-06 -3.3716e-06 0.0716212)
(-8.9086e-06 -4.97041e-06 0.107485)
(-1.90949e-05 -7.85392e-06 0.093055)
(6.08445e-06 -5.79631e-07 0.0913723)
(-1.12989e-05 -1.57859e-06 0.0822974)
(7.90829e-06 2.1004e-07 0.0822404)
(-1.54236e-05 -5.79001e-07 0.0914211)
(9.94269e-06 -6.86572e-07 0.0985089)
(-8.82871e-06 -4.96761e-06 0.107484)
(-1.89446e-05 -7.77892e-06 0.0930663)
(-1.1409e-05 -2.29014e-06 0.109905)
(1.02091e-05 3.05612e-06 0.0930055)
(-1.14787e-05 -2.27587e-06 0.109909)
(-2.52714e-05 -9.27428e-07 0.0985683)
(6.05453e-06 -6.78641e-08 0.0913721)
(-1.14652e-05 1.21879e-06 0.0822959)
(7.69336e-06 -6.55196e-07 0.0822392)
(-1.54491e-05 -2.97409e-09 0.0914209)
(9.91151e-06 8.44472e-09 0.0985088)
(-8.96518e-06 4.59971e-06 0.107482)
(-1.14675e-05 1.86747e-06 0.109904)
(-1.91095e-05 7.26997e-06 0.0930648)
(-1.15294e-05 1.88105e-06 0.109908)
(9.97298e-06 -3.59721e-06 0.0930047)
(-2.53049e-05 3.08958e-07 0.098568)
(1.90162e-05 -7.48002e-06 0.0930649)
(1.13843e-05 -2.18002e-06 0.109903)
(2.51818e-05 -7.82751e-07 0.0985654)
(1.13939e-05 -1.39103e-06 0.0822958)
(1.53434e-05 -4.24306e-07 0.0914194)
(1.14163e-05 1.91342e-06 0.109902)
(1.9193e-05 7.06332e-06 0.0930628)
(2.52239e-05 3.70341e-07 0.0985651)
(1.15688e-05 1.00857e-06 0.0822937)
(1.53904e-05 5.09372e-08 0.0914185)
(-5.66418e-06 3.33458e-06 0.0716205)
(4.50244e-06 -2.62983e-06 0.0715619)
(2.54886e-05 -2.55979e-05 0.104193)
(-9.12397e-06 6.58973e-06 0.0876115)
(-6.42699e-06 9.18736e-06 0.0876136)
(4.27021e-06 -3.79372e-06 0.087558)
(3.88837e-06 -4.23025e-06 0.0875587)
(-3.1716e-06 5.763e-06 0.0716205)
(2.72714e-06 -4.46133e-06 0.0715612)
(-2.94173e-08 -9.96081e-06 0.0985056)
(-4.70507e-06 8.8866e-06 0.107483)
(-1.96296e-06 1.13991e-05 0.109903)
(-7.15564e-06 1.91369e-05 0.0930644)
(-1.99428e-06 1.14326e-05 0.109907)
(3.63396e-06 -9.99385e-06 0.0930038)
(-2.87594e-07 2.52009e-05 0.0985649)
(6.45093e-07 -9.979e-06 0.0985056)
(4.87152e-06 8.82691e-06 0.107481)
(2.17706e-06 1.13684e-05 0.109902)
(7.84685e-06 1.88814e-05 0.0930633)
(2.15008e-06 1.14118e-05 0.109906)
(-3.04733e-06 -1.02354e-05 0.0930023)
(9.43809e-07 2.51491e-05 0.0985651)
(1.63721e-07 -6.06295e-06 0.0913684)
(-1.07753e-06 1.15275e-05 0.0822947)
(7.28775e-07 -7.66409e-06 0.082238)
(6.60815e-08 1.53539e-05 0.0914182)
(6.19046e-07 -6.07705e-06 0.091368)
(1.75429e-06 1.12058e-05 0.0822947)
(-1.267e-07 -7.96805e-06 0.0822376)
(6.65738e-07 1.52969e-05 0.0914188)
(-2.53184e-05 -2.56273e-05 0.104191)
(9.35552e-06 6.29933e-06 0.0876113)
(7.11183e-06 8.85116e-06 0.0876099)
(-3.29347e-06 -4.57615e-06 0.0875552)
(5.82626e-06 3.04621e-06 0.0716195)
(3.81217e-06 5.44905e-06 0.0716191)
(-2.16319e-06 -4.74255e-06 0.0715597)
(2.898e-06 4.41319e-06 0.0715732)
(-3.01046e-06 -5.81294e-06 0.0716327)
(4.69475e-06 2.27114e-06 0.0715744)
(-5.52207e-06 -3.61661e-06 0.0716334)
(4.12652e-06 4.12932e-06 0.0875706)
(4.62024e-06 3.39604e-06 0.0875709)
(-3.9294e-05 -3.98668e-05 0.104309)
(-6.20424e-06 -9.26986e-06 0.0876264)
(-8.84866e-06 -6.934e-06 0.0876255)
(2.85157e-06 4.45584e-06 0.0715851)
(4.69141e-06 2.30543e-06 0.0715862)
(2.59838e-05 2.54033e-05 0.104196)
(4.12709e-06 4.22755e-06 0.0875829)
(4.68894e-06 3.46482e-06 0.0875831)
(6.34783e-07 -1.53087e-05 0.0914292)
(-2.12715e-07 7.93818e-06 0.08225)
(5.69522e-07 6.1803e-06 0.0913806)
(1.55775e-06 -1.1203e-05 0.0823086)
(-2.59876e-07 -2.51837e-05 0.0985723)
(3.9079e-06 9.99188e-06 0.0930136)
(-1.968e-06 -1.15222e-05 0.1099)
(-4.38995e-06 -8.91425e-06 0.107477)
(-3.44228e-08 1.00206e-05 0.098513)
(-6.90254e-06 -1.91373e-05 0.093075)
(-1.92893e-06 -1.14867e-05 0.109896)
(8.78188e-07 -2.51505e-05 0.0985726)
(-3.25991e-06 1.02442e-05 0.0930132)
(2.05447e-06 -1.1498e-05 0.109899)
(4.60293e-06 -8.78877e-06 0.107475)
(5.76611e-07 1.0056e-05 0.0985132)
(7.54901e-06 -1.88678e-05 0.0930755)
(2.08032e-06 -1.14503e-05 0.109895)
(1.5333e-07 6.23925e-06 0.0913923)
(8.55637e-07 7.73718e-06 0.0822629)
(6.04576e-07 6.27466e-06 0.0913926)
(-1.7172e-07 8.02541e-06 0.0822631)
(1.93252e-08 1.01423e-05 0.0985215)
(-4.34235e-06 -8.87083e-06 0.107476)
(3.93979e-06 1.01108e-05 0.0930249)
(-1.89503e-06 -1.1468e-05 0.109893)
(6.27481e-07 1.01813e-05 0.0985217)
(4.60293e-06 -8.7287e-06 0.107474)
(-3.23668e-06 1.03834e-05 0.0930247)
(2.1001e-06 -1.14245e-05 0.109892)
(-3.52508e-06 4.48064e-06 0.0875686)
(-4.40588e-06 3.7535e-06 0.0875709)
(3.95494e-05 -3.96383e-05 0.104308)
(6.8659e-06 -8.88596e-06 0.0876251)
(9.08652e-06 -6.58045e-06 0.0876264)
(-4.55468e-06 2.57928e-06 0.0715738)
(5.66901e-06 -3.31888e-06 0.0716334)
(-2.21521e-06 4.69126e-06 0.0715834)
(-2.57147e-05 2.5609e-05 0.104195)
(-3.4977e-06 4.59709e-06 0.0875811)
(-4.44177e-06 3.8396e-06 0.0875834)
(-4.54892e-06 2.62725e-06 0.0715859)
(-2.51025e-05 -9.01108e-07 0.0985764)
(1.03537e-05 3.11927e-06 0.0930168)
(-1.13793e-05 -2.31317e-06 0.109902)
(-8.57476e-06 -4.93096e-06 0.10748)
(1.0106e-05 -6.61999e-07 0.098517)
(-1.88128e-05 -7.70222e-06 0.0930774)
(-1.13136e-05 -2.3212e-06 0.109898)
(-1.53214e-05 2.76854e-08 0.0914326)
(7.77417e-06 -6.13869e-07 0.0822523)
(6.16981e-06 -4.57633e-08 0.0913841)
(-1.13801e-05 1.26577e-06 0.0823087)
(-2.51381e-05 3.18142e-07 0.0985761)
(-1.14459e-05 1.85673e-06 0.109901)
(1.01187e-05 -3.6121e-06 0.0930159)
(-8.74186e-06 4.50401e-06 0.107477)
(1.00685e-05 1.40605e-08 0.0985169)
(-1.13802e-05 1.84574e-06 0.109897)
(-1.89705e-05 7.25388e-06 0.0930757)
(6.30634e-06 -4.88251e-07 0.0913961)
(7.97631e-06 2.86443e-07 0.0822664)
(1.02499e-05 -6.32751e-07 0.098525)
(-8.501e-06 -4.92317e-06 0.107478)
(1.04688e-05 3.18484e-06 0.0930279)
(-1.12647e-05 -2.32922e-06 0.109895)
(6.27988e-06 -9.40746e-09 0.0913958)
(7.85969e-06 -5.7153e-07 0.082265)
(1.02138e-05 3.20767e-08 0.0985249)
(-8.66906e-06 4.48593e-06 0.107476)
(-1.13325e-05 1.83653e-06 0.109894)
(1.02541e-05 -3.62389e-06 0.0930269)
(1.52351e-05 -3.97766e-07 0.0914314)
(-7.84157e-06 5.21828e-07 0.0822513)
(-6.17361e-06 -4.84987e-07 0.0913815)
(1.1345e-05 -1.3422e-06 0.0823089)
(2.50889e-05 3.61294e-07 0.0985733)
(1.14278e-05 1.90636e-06 0.109899)
(-1.0032e-05 -3.81523e-06 0.093013)
(8.84783e-06 4.45789e-06 0.107475)
(-1.00705e-05 6.38362e-08 0.0985142)
(1.13877e-05 1.89558e-06 0.109895)
(1.90902e-05 7.01122e-06 0.0930742)
(1.52831e-05 6.35704e-08 0.0914305)
(-7.69073e-06 -8.04902e-07 0.0822498)
(-6.17108e-06 -4.68501e-08 0.0913817)
(1.15026e-05 1.02012e-06 0.0823068)
(-1.01881e-05 -5.49954e-07 0.0985227)
(8.61569e-06 -4.72833e-06 0.107477)
(-1.03247e-05 3.49787e-06 0.0930261)
(1.12841e-05 -2.1894e-06 0.109893)
(-6.25939e-06 -4.57572e-07 0.0913935)
(-7.86161e-06 5.56474e-07 0.0822644)
(-1.01731e-05 5.82298e-08 0.0985227)
(8.80441e-06 4.42822e-06 0.107474)
(1.1366e-05 1.88836e-06 0.109892)
(-1.01261e-05 -3.85509e-06 0.0930243)
(-6.25618e-06 -3.29803e-08 0.0913937)
(-7.75217e-06 -7.92281e-07 0.0822629)
(4.37725e-06 -3.79374e-06 0.0875703)
(3.93125e-06 -4.30157e-06 0.0875709)
(-3.95322e-05 3.9531e-05 0.104309)
(-9.01614e-06 6.58707e-06 0.0876235)
(-6.3732e-06 9.1031e-06 0.0876256)
(2.72488e-06 -4.48592e-06 0.0715733)
(-3.16369e-06 5.73181e-06 0.0716322)
(4.58079e-06 -2.54236e-06 0.0715856)
(2.5744e-05 -2.57646e-05 0.104196)
(4.47802e-06 -3.78985e-06 0.0875822)
(3.9742e-06 -4.37234e-06 0.0875828)
(2.72903e-06 -4.50527e-06 0.071585)
(9.80856e-07 2.49823e-05 0.0985731)
(2.21484e-06 1.13583e-05 0.109899)
(-3.04126e-06 -1.03943e-05 0.0930137)
(4.86648e-06 8.60261e-06 0.107477)
(6.97312e-07 -1.01335e-05 0.0985138)
(2.24448e-06 1.12942e-05 0.109895)
(7.82354e-06 1.87473e-05 0.0930745)
(8.88965e-08 1.5227e-05 0.0914299)
(7.28747e-07 -7.73221e-06 0.0822511)
(2.00628e-07 -6.18016e-06 0.0913803)
(-1.06806e-06 1.14559e-05 0.0823074)
(6.74201e-07 1.51683e-05 0.0914305)
(-9.77668e-08 -8.03775e-06 0.0822508)
(6.48086e-07 -6.19376e-06 0.0913799)
(1.75289e-06 1.11476e-05 0.0823076)
(8.41186e-08 -1.02379e-05 0.0985218)
(-4.50048e-06 8.62262e-06 0.107477)
(-1.87e-06 1.12515e-05 0.109893)
(3.76687e-06 -1.02434e-05 0.0930259)
(7.29702e-07 -1.02611e-05 0.098522)
(4.87181e-06 8.53038e-06 0.107476)
(2.2714e-06 1.12482e-05 0.109892)
(-3.06114e-06 -1.05171e-05 0.093025)
(2.17628e-07 -6.28269e-06 0.091392)
(7.34559e-07 -7.79137e-06 0.0822637)
(6.50349e-07 -6.29828e-06 0.0913916)
(-1.07346e-07 -8.09208e-06 0.0822636)
(-4.41986e-06 -2.85514e-06 0.0715723)
(5.78963e-06 3.05558e-06 0.0716317)
(-2.13769e-06 -4.76628e-06 0.0715721)
(3.803e-06 5.4242e-06 0.0716311)
(-2.54557e-05 -2.59282e-05 0.104194)
(-4.25201e-06 -4.11876e-06 0.087581)
(-3.33638e-06 -4.74729e-06 0.0875801)
(-4.44599e-06 -2.83765e-06 0.0715844)
(-2.14836e-06 -4.77713e-06 0.0715841)
(-5.37633e-07 4.94832e-06 0.0684153)
(-9.32635e-07 -1.18431e-05 0.0858741)
(8.83854e-07 7.56007e-06 0.0822297)
(-3.26666e-07 6.31609e-06 0.0858187)
(5.19703e-07 -6.06759e-06 0.068476)
(7.88754e-06 1.85829e-07 0.0822336)
(-4.29277e-07 4.57609e-06 0.0769044)
(1.45255e-07 6.1916e-06 0.0913863)
(4.56787e-07 -7.08369e-06 0.0787189)
(-6.50731e-07 -1.48964e-05 0.0899556)
(1.34463e-07 4.22758e-06 0.0786791)
(-8.01272e-08 6.55528e-06 0.089907)
(8.17126e-07 -7.14823e-06 0.0769507)
(4.97955e-07 -6.02464e-06 0.0684942)
(-2.85399e-07 6.44543e-06 0.0858389)
(-9.20506e-07 -1.15884e-05 0.0823004)
(-5.57019e-07 4.97472e-06 0.0684338)
(-8.99798e-07 -1.16923e-05 0.0858941)
(8.3883e-07 -7.1589e-06 0.0769442)
(1.10096e-07 -1.53929e-05 0.0914229)
(1.46885e-07 4.22219e-06 0.0786725)
(-7.94173e-08 6.5148e-06 0.0899007)
(-4.09961e-07 4.56484e-06 0.0768979)
(4.69368e-07 -7.09416e-06 0.0787124)
(-6.50301e-07 -1.49472e-05 0.0899494)
(-5.80763e-07 4.98403e-06 0.0684397)
(-9.09081e-07 -1.16466e-05 0.0859006)
(8.76393e-07 7.69645e-06 0.0822565)
(-2.94105e-07 6.48582e-06 0.0858454)
(4.73632e-07 -6.0113e-06 0.0685001)
(3.56297e-06 -5.47703e-06 0.0716284)
(-2.23993e-06 4.67254e-06 0.0715774)
(4.66523e-06 -1.03108e-06 0.0769083)
(6.25299e-06 -5.13263e-07 0.0913902)
(-1.47811e-05 -1.37489e-06 0.0899596)
(-7.03909e-06 -4.83405e-08 0.0787225)
(6.69108e-06 -8.1575e-07 0.089911)
(4.27627e-06 -3.97173e-07 0.0786827)
(-7.06666e-06 2.34816e-07 0.0769545)
(-5.8932e-06 -1.03045e-07 0.0684965)
(6.65558e-06 -1.01024e-06 0.085842)
(-1.12662e-05 -1.55626e-06 0.0823039)
(5.1183e-06 -1.176e-06 0.0684361)
(-1.14859e-05 -1.60906e-06 0.0858972)
(-7.08572e-06 2.11104e-07 0.0769481)
(-1.53571e-05 -5.56966e-07 0.091427)
(6.64524e-06 -8.37549e-07 0.0899048)
(4.2591e-06 -4.21872e-07 0.0786762)
(4.65323e-06 -1.05102e-06 0.0769019)
(-1.48321e-05 -1.39989e-06 0.0899535)
(-7.0602e-06 -7.52416e-08 0.0787161)
(5.12042e-06 -1.1573e-06 0.068442)
(-1.14498e-05 -1.5784e-06 0.0859036)
(7.96647e-06 2.71227e-07 0.08226)
(6.68809e-06 -9.87607e-07 0.0858485)
(-5.8876e-06 -8.15123e-08 0.0685024)
(-5.64156e-06 3.35335e-06 0.0716264)
(4.56156e-06 -2.56304e-06 0.0715798)
(-3.25086e-06 -3.98888e-06 0.0836351)
(3.69233e-06 4.7173e-06 0.0684018)
(5.33644e-06 3.17608e-06 0.0683959)
(-2.51368e-06 -4.51217e-06 0.0683465)
(-3.86143e-06 -3.05547e-06 0.0683409)
(7.08278e-06 6.36774e-06 0.0836799)
(1.59797e-05 9.1626e-06 0.0917318)
(-1.22895e-05 -6.86603e-06 0.0962775)
(-4.20036e-06 -3.40529e-06 0.0815773)
(9.31268e-06 6.27789e-06 0.0876176)
(-8.52552e-06 -4.89557e-06 0.0916849)
(2.26463e-05 1.2861e-05 0.0963257)
(7.718e-06 3.62958e-06 0.0816287)
(9.92142e-06 1.5359e-05 0.0917254)
(-6.19544e-06 -1.27942e-05 0.0962755)
(-2.69587e-06 -4.82432e-06 0.0815742)
(7.09596e-06 8.80133e-06 0.0876161)
(-4.18236e-06 -9.16195e-06 0.091679)
(1.35918e-05 2.2118e-05 0.0963236)
(4.3584e-06 7.13034e-06 0.0816244)
(7.11352e-06 6.39136e-06 0.0836742)
(-2.50358e-06 -4.52005e-06 0.0683412)
(-3.85244e-06 -3.06193e-06 0.0683356)
(-3.22792e-06 -3.96715e-06 0.0836293)
(3.71062e-06 4.71135e-06 0.0683965)
(5.35211e-06 3.17328e-06 0.0683907)
(-8.56614e-06 -4.93794e-06 0.0916904)
(7.6853e-06 3.63466e-06 0.0816348)
(-4.21389e-06 -4.11328e-06 0.0875748)
(2.25862e-05 1.2821e-05 0.0963304)
(-1.23432e-05 -6.90653e-06 0.0962821)
(-4.22953e-06 -3.3996e-06 0.0815834)
(1.59252e-05 9.11652e-06 0.0917373)
(-4.20915e-06 -9.22189e-06 0.0916846)
(4.34605e-06 7.10452e-06 0.0816304)
(-3.31644e-06 -4.71111e-06 0.087574)
(1.35688e-05 2.20429e-05 0.0963282)
(-6.21409e-06 -1.28646e-05 0.0962802)
(-2.70427e-06 -4.84977e-06 0.0815803)
(9.88486e-06 1.52899e-05 0.0917308)
(2.92997e-06 4.35994e-06 0.0715546)
(4.68736e-06 2.22538e-06 0.0715558)
(3.89864e-06 3.16154e-06 0.083614)
(-4.70941e-06 -3.77552e-06 0.068383)
(-3.24066e-06 -5.36415e-06 0.0683772)
(4.51488e-06 2.47961e-06 0.0683269)
(3.03041e-06 3.86076e-06 0.0683214)
(-6.47902e-06 -7.22132e-06 0.0836601)
(4.80073e-06 8.34791e-06 0.0916705)
(-3.5738e-06 -7.83723e-06 0.0816136)
(4.09802e-06 3.99952e-06 0.0875515)
(-1.29664e-05 -2.29013e-05 0.0963136)
(3.41389e-06 4.04207e-06 0.081561)
(-9.2525e-06 -1.61795e-05 0.0917182)
(6.76525e-06 1.20592e-05 0.0962652)
(8.97721e-06 4.06482e-06 0.091665)
(-7.27066e-06 -4.29837e-06 0.0816096)
(4.50981e-06 3.31567e-06 0.0875521)
(-2.24001e-05 -1.37086e-05 0.0963127)
(4.67789e-06 2.70765e-06 0.0815581)
(-1.55396e-05 -1.00273e-05 0.0917126)
(1.25428e-05 6.05779e-06 0.0962641)
(2.91394e-06 4.39495e-06 0.0715671)
(-2.95967e-06 -5.88706e-06 0.0716146)
(4.69504e-06 2.25143e-06 0.0715683)
(-5.53732e-06 -3.67608e-06 0.0716154)
(-6.44899e-06 -7.18352e-06 0.083666)
(4.50948e-06 2.49489e-06 0.0683324)
(3.02755e-06 3.87608e-06 0.0683268)
(3.92517e-06 3.19058e-06 0.0836201)
(-4.71269e-06 -3.75174e-06 0.0683884)
(-3.23806e-06 -5.34231e-06 0.0683826)
(4.89329e-06 8.43699e-06 0.0916819)
(-1.28405e-05 -2.27597e-05 0.0963231)
(4.12129e-06 4.07877e-06 0.0875643)
(-3.58891e-06 -7.75216e-06 0.0816262)
(3.39662e-06 4.11506e-06 0.0815737)
(6.88248e-06 1.2168e-05 0.0962749)
(-9.14959e-06 -1.60594e-05 0.0917294)
(9.09838e-06 4.14058e-06 0.0916762)
(-2.22238e-05 -1.36176e-05 0.096322)
(4.57949e-06 3.36228e-06 0.0875648)
(-7.22408e-06 -4.27426e-06 0.0816219)
(4.73316e-06 2.72991e-06 0.0815705)
(1.26962e-05 6.13748e-06 0.0962735)
(-1.53963e-05 -9.93222e-06 0.0917236)
(-9.20179e-06 -1.6124e-05 0.0917239)
(3.41077e-06 4.07733e-06 0.0815674)
(6.82198e-06 1.21112e-05 0.09627)
(-6.22486e-06 -9.42696e-06 0.0876078)
(4.8513e-06 8.39381e-06 0.0916762)
(-3.58176e-06 -7.80058e-06 0.08162)
(-1.29009e-05 -2.28412e-05 0.0963184)
(-1.54684e-05 -9.98456e-06 0.0917181)
(4.70657e-06 2.71988e-06 0.0815644)
(1.26177e-05 6.09532e-06 0.0962688)
(-8.97223e-06 -7.04224e-06 0.0876072)
(9.04292e-06 4.10419e-06 0.0916706)
(-7.25379e-06 -4.29373e-06 0.0816158)
(-2.23169e-05 -1.36677e-05 0.0963174)
(3.94616e-06 3.22314e-06 0.083626)
(-4.72561e-06 -3.72699e-06 0.0683937)
(-3.24254e-06 -5.32312e-06 0.0683878)
(4.4953e-06 2.51452e-06 0.0683378)
(3.0216e-06 3.88862e-06 0.0683321)
(-6.42659e-06 -7.1438e-06 0.0836719)
(8.55157e-07 -7.20386e-06 0.0769309)
(1.5638e-07 4.20265e-06 0.0786589)
(-1.13772e-07 6.42177e-06 0.0898879)
(7.49437e-08 -1.55268e-05 0.0914107)
(-3.96782e-07 4.5626e-06 0.0768845)
(4.86553e-07 -7.12199e-06 0.078699)
(-6.74344e-07 -1.50616e-05 0.0899367)
(-5.40607e-07 4.96944e-06 0.0684277)
(8.92872e-07 7.63079e-06 0.0822433)
(-8.99463e-07 -1.1746e-05 0.0858875)
(5.1586e-07 -6.04033e-06 0.0684882)
(-2.88894e-07 6.40478e-06 0.0858322)
(5.22936e-07 -6.04946e-06 0.0684822)
(-3.06163e-07 6.36155e-06 0.0858255)
(-9.10267e-07 -1.16545e-05 0.0822872)
(-5.40433e-07 4.96247e-06 0.0684216)
(-9.09662e-07 -1.17923e-05 0.0858809)
(-3.97477e-07 4.55972e-06 0.0768912)
(1.1636e-07 6.0908e-06 0.0913741)
(4.79804e-07 -7.11097e-06 0.0787057)
(-6.58235e-07 -1.50066e-05 0.0899431)
(8.51188e-07 -7.18186e-06 0.0769376)
(1.57951e-07 4.21327e-06 0.0786658)
(-9.04883e-08 6.468e-06 0.0898944)
(-1.49084e-07 -7.07677e-06 0.0769314)
(5.68402e-07 4.23513e-06 0.0786593)
(7.53174e-07 6.52878e-06 0.0898888)
(5.77833e-07 -1.54924e-05 0.091411)
(1.09714e-06 4.63287e-06 0.0768852)
(2.43346e-07 -7.09114e-06 0.0786993)
(1.3368e-06 -1.49527e-05 0.089937)
(1.23964e-06 5.13525e-06 0.0684297)
(-2.41229e-07 7.90229e-06 0.0822433)
(1.58329e-06 -1.15358e-05 0.0858878)
(1.02572e-06 6.61894e-06 0.0858331)
(1.5318e-07 -5.87864e-06 0.0684899)
(1.32463e-07 -5.88927e-06 0.0684838)
(1.00178e-06 6.57548e-06 0.0858262)
(1.48138e-06 -1.13367e-05 0.0822886)
(1.21724e-06 5.12592e-06 0.0684235)
(1.56342e-06 -1.1586e-05 0.0858811)
(1.1167e-06 4.65169e-06 0.076892)
(5.53102e-07 6.12407e-06 0.0913744)
(2.45867e-07 -7.07498e-06 0.0787061)
(1.36364e-06 -1.48968e-05 0.0899434)
(5.77175e-07 4.24974e-06 0.0786662)
(7.80696e-07 6.57951e-06 0.0898953)
(-1.29405e-07 -7.05409e-06 0.0769381)
(-2.29312e-06 4.62445e-06 0.0715652)
(3.50641e-06 -5.53704e-06 0.071616)
(-4.48466e-06 8.82586e-06 0.091675)
(1.33144e-05 -2.2469e-05 0.0963201)
(-3.5469e-06 4.41114e-06 0.0875623)
(4.16791e-06 -7.3681e-06 0.0816205)
(-6.48557e-06 1.24704e-05 0.0962717)
(-2.95361e-06 4.57236e-06 0.0815694)
(9.64797e-06 -1.57045e-05 0.0917221)
(-8.82596e-06 4.52167e-06 0.0916813)
(2.24329e-05 -1.33016e-05 0.0963231)
(-4.37002e-06 3.71398e-06 0.0875646)
(7.50643e-06 -3.92056e-06 0.0816257)
(-4.46218e-06 3.10387e-06 0.0815741)
(-1.25084e-05 6.44413e-06 0.0962744)
(1.57089e-05 -9.53597e-06 0.091729)
(-6.46987e-06 1.24081e-05 0.0962668)
(6.82362e-06 -9.07952e-06 0.0876063)
(1.33414e-05 -2.255e-05 0.0963154)
(-3.49648e-06 3.64628e-06 0.0836252)
(5.16695e-06 -3.34051e-06 0.0683879)
(3.54811e-06 -4.92302e-06 0.0683931)
(-4.06153e-06 2.88549e-06 0.0683321)
(-2.68967e-06 4.28422e-06 0.0683371)
(6.86276e-06 -6.70099e-06 0.0836714)
(-4.54574e-06 2.55256e-06 0.0715676)
(-7.11246e-06 1.68696e-07 0.0769351)
(6.55169e-06 -8.83141e-07 0.0898922)
(4.21477e-06 -4.72745e-07 0.0786629)
(-1.54901e-05 -6.00289e-07 0.0914152)
(4.61599e-06 -1.09443e-06 0.0768887)
(-1.49446e-05 -1.44765e-06 0.0899411)
(-7.11145e-06 -1.25326e-07 0.0787029)
(5.12319e-06 -1.19421e-06 0.06843)
(7.93204e-06 2.31184e-07 0.0822471)
(-1.15269e-05 -1.63476e-06 0.0858907)
(-5.9001e-06 -1.23547e-07 0.0684905)
(6.62868e-06 -1.04269e-06 0.0858354)
(-5.90561e-06 -1.4353e-07 0.0684844)
(6.58883e-06 -1.07134e-06 0.0858287)
(-1.13273e-05 -1.60729e-06 0.0822909)
(5.1176e-06 -1.21417e-06 0.0684239)
(-1.15675e-05 -1.66836e-06 0.0858841)
(4.63426e-06 -1.07293e-06 0.0768953)
(6.14627e-06 -5.59172e-07 0.0913783)
(-1.4888e-05 -1.42443e-06 0.0899473)
(-7.08847e-06 -1.02789e-07 0.0787095)
(-7.10423e-06 1.88657e-07 0.0769417)
(6.60137e-06 -8.62583e-07 0.0898986)
(4.23881e-06 -4.46589e-07 0.0786696)
(-7.15546e-06 -6.47616e-07 0.0769338)
(4.19173e-06 -1.31922e-08 0.0786625)
(6.44195e-06 2.23853e-07 0.0898919)
(-1.55163e-05 -1.15214e-08 0.0914149)
(4.56631e-06 5.65633e-07 0.0768875)
(-7.13451e-06 -3.10567e-07 0.0787025)
(-1.50262e-05 8.3399e-07 0.0899402)
(5.01823e-06 7.60056e-07 0.0684316)
(7.73673e-06 -6.34494e-07 0.0822458)
(-1.16335e-05 1.16289e-06 0.0858903)
(6.48097e-06 5.16008e-07 0.0858358)
(-5.96604e-06 -2.55378e-07 0.0684918)
(-5.98584e-06 -2.91013e-07 0.0684858)
(6.42603e-06 5.02202e-07 0.0858292)
(-1.15119e-05 1.19581e-06 0.0822894)
(4.99861e-06 7.34012e-07 0.0684256)
(-1.16896e-05 1.14622e-06 0.0858838)
(4.59009e-06 5.88636e-07 0.0768941)
(6.11623e-06 -5.88575e-08 0.0913781)
(-7.1291e-06 -2.95915e-07 0.0787092)
(-1.49609e-05 8.44115e-07 0.0899464)
(4.22458e-06 7.16388e-09 0.0786693)
(6.49919e-06 2.35094e-07 0.0898982)
(-7.1325e-06 -6.17858e-07 0.0769404)
(-5.01671e-06 -1.05192e-06 0.0684262)
(-7.81797e-06 4.92988e-07 0.0822447)
(1.15402e-05 -1.42601e-06 0.0858902)
(-6.52492e-06 -8.06517e-07 0.0858325)
(5.88448e-06 8.05612e-08 0.0684915)
(-4.55707e-06 -9.70487e-07 0.0768905)
(-6.12316e-06 -5.013e-07 0.0913754)
(1.4812e-05 -1.22387e-06 0.0899465)
(7.04353e-06 1.65788e-08 0.0787087)
(-6.52544e-06 -7.07952e-07 0.0898952)
(-4.22217e-06 -4.14297e-07 0.0786662)
(7.01744e-06 3.52986e-07 0.0769422)
(-4.9887e-06 6.32067e-07 0.0684305)
(-7.6647e-06 -8.05427e-07 0.0822432)
(1.17007e-05 1.01593e-06 0.0858886)
(-6.44087e-06 3.85684e-07 0.0858333)
(6.00987e-06 -4.03546e-07 0.068491)
(-4.5797e-06 5.22168e-07 0.076892)
(-6.12563e-06 -5.411e-08 0.0913756)
(7.10238e-06 -2.76867e-07 0.0787073)
(1.49486e-05 7.96579e-07 0.0899442)
(-4.22657e-06 -2.19929e-08 0.078667)
(-6.50154e-06 1.95187e-07 0.0898956)
(7.14561e-06 -6.88453e-07 0.0769384)
(4.52419e-06 -2.60436e-06 0.0715679)
(-5.69028e-06 3.30988e-06 0.0716145)
(-6.73785e-06 6.8446e-06 0.0836655)
(2.80417e-06 -4.12424e-06 0.0683273)
(4.27079e-06 -2.68445e-06 0.0683325)
(3.61823e-06 -3.49453e-06 0.0836201)
(-3.44323e-06 5.07374e-06 0.0683824)
(-4.94025e-06 3.55674e-06 0.0683879)
(8.81218e-06 -4.52434e-06 0.0916761)
(-2.25097e-05 1.31531e-05 0.0963207)
(4.3283e-06 -3.79363e-06 0.0875642)
(-7.50202e-06 3.97629e-06 0.0816198)
(1.24642e-05 -6.584e-06 0.0962737)
(4.4689e-06 -3.07274e-06 0.0815699)
(-1.57226e-05 9.53856e-06 0.0917223)
(4.62529e-06 -8.75383e-06 0.0916823)
(-1.31126e-05 2.25095e-05 0.0963234)
(3.91023e-06 -4.27189e-06 0.0875648)
(-3.80669e-06 7.56665e-06 0.0816254)
(3.20461e-06 -4.34592e-06 0.0815744)
(6.64079e-06 -1.24264e-05 0.0962754)
(-9.45219e-06 1.57828e-05 0.091729)
(-1.57944e-05 9.56913e-06 0.0917169)
(4.41434e-06 -3.07494e-06 0.0815638)
(1.2379e-05 -6.5494e-06 0.0962691)
(-9.1839e-06 6.58986e-06 0.0876054)
(-2.26075e-05 1.32011e-05 0.0963162)
(8.74486e-06 -4.49587e-06 0.0916706)
(-7.54094e-06 3.9632e-06 0.0816137)
(-9.50509e-06 1.58329e-05 0.0917236)
(3.1987e-06 -4.32292e-06 0.0815684)
(6.57613e-06 -1.23546e-05 0.0962709)
(-6.45734e-06 9.23516e-06 0.0876074)
(4.57206e-06 -8.70622e-06 0.0916769)
(-3.82464e-06 7.6022e-06 0.0816193)
(-1.31752e-05 2.2585e-05 0.0963188)
(3.65625e-06 -3.51415e-06 0.0836258)
(-3.42135e-06 5.07166e-06 0.0683876)
(-4.92048e-06 3.54752e-06 0.0683931)
(2.82157e-06 -4.12116e-06 0.0683325)
(4.28253e-06 -2.69039e-06 0.0683377)
(-6.69585e-06 6.8222e-06 0.0836712)
(2.72344e-06 -4.47617e-06 0.0715673)
(-3.17261e-06 5.77923e-06 0.0716145)
(7.55661e-07 7.16331e-06 0.0769319)
(-1.27486e-07 -6.4664e-06 0.0898894)
(1.69708e-07 -4.16599e-06 0.0786583)
(4.87083e-08 1.54197e-05 0.0914123)
(-4.1591e-07 -4.55081e-06 0.0768854)
(-7.77382e-07 1.49846e-05 0.0899376)
(4.24662e-07 7.07812e-06 0.0787007)
(-6.19349e-07 -4.98326e-06 0.0684294)
(7.26553e-07 -7.70109e-06 0.0822446)
(-1.02754e-06 1.16579e-05 0.085888)
(-4.05375e-07 -6.46218e-06 0.0858338)
(4.00569e-07 5.99482e-06 0.0684893)
(4.12444e-07 6.01173e-06 0.0684834)
(-4.17695e-07 -6.41304e-06 0.0858272)
(-1.07785e-06 1.15663e-05 0.0822882)
(-6.11029e-07 -4.96931e-06 0.0684234)
(-1.04175e-06 1.1709e-05 0.0858815)
(-4.24464e-07 -4.54646e-06 0.076892)
(1.84971e-07 -6.12408e-06 0.0913744)
(-7.60843e-07 1.4926e-05 0.0899437)
(4.2245e-07 7.0679e-06 0.0787073)
(-1.09594e-07 -6.51894e-06 0.0898956)
(1.68537e-07 -4.19633e-06 0.078665)
(7.46706e-07 7.14908e-06 0.0769384)
(-2.02297e-08 7.02676e-06 0.0769332)
(8.86993e-07 -6.55933e-06 0.0898885)
(6.02058e-07 -4.18179e-06 0.0786575)
(6.52419e-07 1.53636e-05 0.0914129)
(1.19055e-06 -4.61941e-06 0.076884)
(1.54101e-06 1.48486e-05 0.0899387)
(2.51394e-07 7.01746e-06 0.0787018)
(1.34016e-06 -5.17482e-06 0.0684293)
(-1.05363e-07 -8.00863e-06 0.0822442)
(1.81584e-06 1.14403e-05 0.0858884)
(1.14828e-06 -6.68982e-06 0.085833)
(3.27394e-07 5.84047e-06 0.0684902)
(3.15537e-07 5.85432e-06 0.0684842)
(1.13412e-06 -6.63944e-06 0.0858264)
(1.74039e-06 1.1247e-05 0.0822881)
(1.32445e-06 -5.1614e-06 0.0684233)
(1.80608e-06 1.14901e-05 0.0858818)
(1.20417e-06 -4.64094e-06 0.0768905)
(6.36935e-07 -6.13856e-06 0.091374)
(1.55496e-06 1.47895e-05 0.0899449)
(2.44408e-07 6.98201e-06 0.0787084)
(9.05562e-07 -6.6164e-06 0.0898948)
(6.00035e-07 -4.20013e-06 0.0786641)
(-1.0127e-08 7.00658e-06 0.0769398)
(7.15468e-06 6.46581e-06 0.0836625)
(3.73754e-06 4.72245e-06 0.0683858)
(5.37148e-06 3.1858e-06 0.0683801)
(-8.49991e-06 -4.85025e-06 0.0916793)
(2.27198e-05 1.29123e-05 0.0963209)
(-4.14145e-06 -4.08841e-06 0.0875623)
(7.76371e-06 3.64132e-06 0.0816225)
(1.60312e-05 9.21561e-06 0.0917262)
(-1.2238e-05 -6.82105e-06 0.0962728)
(-4.17426e-06 -3.40707e-06 0.0815711)
(-4.17281e-06 -9.10571e-06 0.0916734)
(1.36177e-05 2.22123e-05 0.0963189)
(-3.29514e-06 -4.63074e-06 0.0875615)
(4.36606e-06 7.16559e-06 0.0816183)
(9.95167e-06 1.54357e-05 0.0917199)
(-6.17596e-06 -1.27251e-05 0.0962708)
(-2.69541e-06 -4.79156e-06 0.0815681)
(1.60616e-05 9.26699e-06 0.0917206)
(9.39536e-06 6.3166e-06 0.0876049)
(2.27804e-05 1.29735e-05 0.0963162)
(7.79975e-06 3.65071e-06 0.0816162)
(9.96607e-06 1.5504e-05 0.0917143)
(-6.15093e-06 -1.26259e-05 0.0962661)
(7.11908e-06 8.8979e-06 0.0876036)
(1.3649e-05 2.23014e-05 0.0963142)
(4.37148e-06 7.20309e-06 0.0816121)
(-3.2085e-06 -3.93142e-06 0.0836234)
(3.72069e-06 4.70879e-06 0.0683912)
(5.35934e-06 3.17129e-06 0.0683854)
(7.13732e-06 6.42289e-06 0.0836683)
(-2.49215e-06 -4.51979e-06 0.0683359)
(-3.85019e-06 -3.061e-06 0.0683303)
(-4.40985e-06 -2.85579e-06 0.0715661)
(5.84199e-06 3.04704e-06 0.0716133)
(-2.14217e-06 -4.758e-06 0.071566)
(3.8004e-06 5.46577e-06 0.0716129)
(-2.98823e-06 -5.83854e-06 0.0716268)
(2.877e-06 4.43317e-06 0.0715792)
(-5.52689e-06 -3.63574e-06 0.0716275)
(4.69156e-06 2.28742e-06 0.0715804)
(3.97022e-06 3.30341e-06 0.0836375)
(-4.75372e-06 -3.66478e-06 0.0684041)
(-3.25414e-06 -5.26671e-06 0.0683981)
(4.46101e-06 2.5669e-06 0.0683483)
(3.0038e-06 3.9339e-06 0.0683425)
(-6.39667e-06 -7.0501e-06 0.0836833)
(-9.11114e-06 -1.5994e-05 0.0917349)
(6.93725e-06 1.22308e-05 0.0962796)
(3.38441e-06 4.1565e-06 0.0815799)
(-6.20659e-06 -9.31959e-06 0.0876203)
(4.93544e-06 8.49151e-06 0.0916874)