/*--------------------------------*- C++ -*----------------------------------*\
| =========                 |                                                 |
| \\      /  F ield         | OpenFOAM: The Open Source CFD Toolbox           |
|  \\    /   O peration     | Version:  2312                                  |
|   \\  /    A nd           | Website:  www.openfoam.com                      |
|    \\/     M anipulation  |                                                 |
\*---------------------------------------------------------------------------*/
FoamFile
{
    version     2.0;
    format      ascii;
    arch        "LSB;label=32;scalar=64";
    class       volScalarField;
    location    "450";
    object      k;
}
// * * * * * * * * * * * * * * * * * * * * * * * * * * * * * * * * * * * * * //

dimensions      [0 2 -2 0 0 0 0];

internalField   nonuniform List<scalar> 
42840
(
1.45937e-05
1.62415e-05
1.62423e-05
1.86839e-05
1.4315e-05
1.6464e-05
1.64649e-05
1.93846e-05
1.40823e-05
1.67736e-05
1.67746e-05
2.01787e-05
1.3895e-05
1.71672e-05
1.71685e-05
2.10542e-05
1.37529e-05
1.76417e-05
1.76429e-05
2.1998e-05
1.36558e-05
1.81923e-05
1.81938e-05
2.29952e-05
1.36037e-05
1.88147e-05
1.88165e-05
2.40318e-05
1.35974e-05
1.95041e-05
1.95062e-05
2.50941e-05
1.36352e-05
2.02551e-05
2.02572e-05
2.61746e-05
1.37192e-05
2.10616e-05
2.1064e-05
2.72408e-05
1.3849e-05
2.19179e-05
2.19205e-05
2.82955e-05
1.40249e-05
2.28173e-05
2.28204e-05
2.93576e-05
1.42471e-05
2.37536e-05
2.37567e-05
3.03901e-05
1.45156e-05
2.47204e-05
2.47239e-05
3.14236e-05
1.48302e-05
2.57115e-05
2.57149e-05
3.24188e-05
1.51907e-05
2.67204e-05
2.67237e-05
3.33999e-05
1.55965e-05
2.77407e-05
2.77443e-05
3.43643e-05
1.60469e-05
2.87669e-05
2.8771e-05
3.52994e-05
1.65405e-05
2.97949e-05
2.97989e-05
3.62155e-05
1.70759e-05
3.08204e-05
3.08241e-05
3.71088e-05
1.76514e-05
3.18386e-05
3.18423e-05
3.79721e-05
1.82648e-05
3.28456e-05
3.28492e-05
3.88164e-05
1.89136e-05
3.38376e-05
3.38413e-05
3.96343e-05
1.9595e-05
3.48114e-05
3.48152e-05
4.04318e-05
2.03055e-05
3.57644e-05
3.57682e-05
4.11966e-05
1.86722e-05
1.92387e-05
1.62422e-05
1.62421e-05
1.64009e-05
1.64008e-05
1.86716e-05
1.92376e-05
1.62424e-05
1.62419e-05
1.64012e-05
1.64006e-05
1.6242e-05
1.63999e-05
1.64006e-05
1.86725e-05
1.92378e-05
1.6243e-05
1.6401e-05
1.64017e-05
1.92169e-05
1.93704e-05
2.00137e-05
1.6465e-05
1.64649e-05
1.66895e-05
1.66893e-05
1.93713e-05
2.00131e-05
1.64652e-05
1.64649e-05
1.66897e-05
1.66893e-05
1.64649e-05
1.66881e-05
1.66893e-05
1.93715e-05
2.00121e-05
1.64659e-05
1.66892e-05
1.66903e-05
1.99908e-05
2.01632e-05
2.08717e-05
1.67751e-05
1.67749e-05
1.70631e-05
1.70626e-05
2.01624e-05
2.0872e-05
1.67751e-05
1.67751e-05
1.7063e-05
1.7063e-05
1.67751e-05
1.7061e-05
1.70631e-05
2.01634e-05
2.08714e-05
1.6776e-05
1.70624e-05
1.70637e-05
2.0847e-05
2.10368e-05
2.17996e-05
1.71692e-05
1.7169e-05
1.75179e-05
1.75175e-05
2.10348e-05
2.17989e-05
1.71692e-05
1.71695e-05
1.75177e-05
1.75181e-05
1.71695e-05
1.75156e-05
1.75182e-05
2.10364e-05
2.18009e-05
1.71702e-05
1.75171e-05
1.75187e-05
2.17738e-05
2.19765e-05
2.27852e-05
1.76439e-05
1.76437e-05
1.80503e-05
1.80499e-05
2.19797e-05
2.27526e-05
1.76437e-05
1.76444e-05
1.80499e-05
1.80507e-05
1.76445e-05
1.80477e-05
1.80509e-05
2.19764e-05
2.27855e-05
1.76449e-05
1.80491e-05
1.8051e-05
2.27566e-05
2.29714e-05
2.38173e-05
1.8195e-05
1.81948e-05
1.86561e-05
1.86553e-05
2.29892e-05
2.38027e-05
1.81945e-05
1.81959e-05
1.86552e-05
1.86565e-05
1.81959e-05
1.86527e-05
1.86567e-05
2.2972e-05
2.38132e-05
1.81959e-05
1.86543e-05
1.86565e-05
2.37822e-05
2.40047e-05
2.48617e-05
1.88182e-05
1.88177e-05
1.93295e-05
1.93289e-05
2.39966e-05
2.48634e-05
1.88172e-05
1.88192e-05
1.93282e-05
1.93304e-05
1.88193e-05
1.93257e-05
1.93306e-05
2.40061e-05
2.48302e-05
1.8819e-05
1.9328e-05
1.93301e-05
2.48365e-05
2.50594e-05
2.59268e-05
1.95078e-05
1.95074e-05
2.00659e-05
2.00655e-05
2.50619e-05
2.59402e-05
1.95064e-05
1.95092e-05
2.00643e-05
2.00671e-05
1.95094e-05
2.00619e-05
2.00673e-05
2.50817e-05
2.59175e-05
1.95087e-05
2.00644e-05
2.00665e-05
2.59068e-05
2.61471e-05
2.70066e-05
2.0259e-05
2.02589e-05
2.08594e-05
2.08592e-05
2.61406e-05
2.70073e-05
2.02574e-05
2.02605e-05
2.08572e-05
2.08607e-05
2.02609e-05
2.08553e-05
2.08613e-05
2.6142e-05
2.69947e-05
2.02599e-05
2.08576e-05
2.08602e-05
2.69918e-05
2.72085e-05
2.80368e-05
2.10658e-05
2.10658e-05
2.1704e-05
2.17036e-05
2.7215e-05
2.80686e-05
2.10636e-05
2.10676e-05
2.17014e-05
2.17057e-05
2.10682e-05
2.16996e-05
2.17062e-05
2.72186e-05
2.80773e-05
2.10669e-05
2.17023e-05
2.17047e-05
2.8059e-05
2.82974e-05
2.91008e-05
2.19222e-05
2.19222e-05
2.25932e-05
2.25927e-05
2.82876e-05
2.91331e-05
2.19198e-05
2.19244e-05
2.25906e-05
2.25954e-05
2.19249e-05
2.25887e-05
2.25957e-05
2.82831e-05
2.91034e-05
2.1923e-05
2.2592e-05
2.25936e-05
2.91431e-05
2.93545e-05
3.01463e-05
2.28215e-05
2.28216e-05
2.35213e-05
2.35203e-05
2.93388e-05
3.01465e-05
2.28191e-05
2.28242e-05
2.35183e-05
2.35233e-05
2.28247e-05
2.35164e-05
2.3524e-05
2.93746e-05
3.01489e-05
2.28222e-05
2.35197e-05
2.35212e-05
3.01744e-05
3.03995e-05
3.11689e-05
2.37582e-05
2.37578e-05
2.44807e-05
2.44803e-05
3.04037e-05
3.11785e-05
2.37554e-05
2.37607e-05
2.44776e-05
2.44834e-05
2.37616e-05
2.44762e-05
2.4484e-05
3.04177e-05
3.11891e-05
2.37585e-05
2.44797e-05
2.44808e-05
3.1207e-05
3.1423e-05
3.21761e-05
2.47245e-05
2.47248e-05
2.54656e-05
2.54661e-05
3.1434e-05
3.21902e-05
2.47216e-05
2.47279e-05
2.54624e-05
2.54693e-05
2.47284e-05
2.54619e-05
2.54699e-05
3.14298e-05
3.21973e-05
2.4725e-05
2.54654e-05
2.54662e-05
3.22139e-05
3.24249e-05
3.31645e-05
2.57148e-05
2.5716e-05
2.64699e-05
2.64711e-05
3.24443e-05
3.31781e-05
2.57119e-05
2.57189e-05
2.64667e-05
2.6474e-05
2.57198e-05
2.6467e-05
2.6475e-05
3.24312e-05
3.31729e-05
2.5716e-05
2.64704e-05
2.64712e-05
3.31929e-05
3.34204e-05
3.4128e-05
2.67231e-05
2.67247e-05
2.74876e-05
2.74887e-05
3.34259e-05
3.41383e-05
2.67201e-05
2.67275e-05
2.74843e-05
2.74915e-05
2.67289e-05
2.74848e-05
2.74936e-05
3.34283e-05
3.41422e-05
2.67249e-05
2.74886e-05
2.74896e-05
3.4169e-05
3.43804e-05
3.50786e-05
2.77433e-05
2.77449e-05
2.85131e-05
2.8514e-05
3.4385e-05
3.51013e-05
2.77402e-05
2.77473e-05
2.85097e-05
2.85167e-05
2.77498e-05
2.85102e-05
2.85196e-05
3.43797e-05
3.50828e-05
2.77456e-05
2.85143e-05
2.85154e-05
3.51087e-05
3.53084e-05
3.59948e-05
2.87699e-05
2.87709e-05
2.95408e-05
2.95417e-05
3.53043e-05
3.60264e-05
2.87666e-05
2.87734e-05
2.95373e-05
2.9544e-05
2.87767e-05
2.95381e-05
2.95474e-05
3.53108e-05
3.60109e-05
2.87723e-05
2.95424e-05
2.95433e-05
3.60265e-05
3.62276e-05
3.69012e-05
2.97978e-05
2.97987e-05
3.05671e-05
3.05679e-05
3.62232e-05
3.69187e-05
2.97943e-05
2.98006e-05
3.05635e-05
3.05696e-05
2.98045e-05
3.05646e-05
3.05738e-05
3.62185e-05
3.69204e-05
2.98e-05
3.05685e-05
3.05696e-05
3.69188e-05
3.71121e-05
3.77597e-05
3.0823e-05
3.08238e-05
3.15873e-05
3.1588e-05
3.70962e-05
3.77694e-05
3.08193e-05
3.08254e-05
3.15836e-05
3.15897e-05
3.08298e-05
3.15849e-05
3.15941e-05
3.71061e-05
3.779e-05
3.08254e-05
3.15889e-05
3.159e-05
3.77934e-05
3.79885e-05
3.86256e-05
3.18412e-05
3.18417e-05
3.25975e-05
3.25978e-05
3.79843e-05
3.86265e-05
3.18374e-05
3.18432e-05
3.25936e-05
3.25995e-05
3.18478e-05
3.25951e-05
3.26038e-05
3.79645e-05
3.86375e-05
3.18435e-05
3.2599e-05
3.25997e-05
3.86354e-05
3.88211e-05
3.94497e-05
3.28481e-05
3.28483e-05
3.35934e-05
3.35938e-05
3.88232e-05
3.94465e-05
3.28441e-05
3.28499e-05
3.35895e-05
3.35953e-05
3.28542e-05
3.35912e-05
3.35996e-05
3.88098e-05
3.94614e-05
3.28499e-05
3.35951e-05
3.35953e-05
3.94644e-05
3.96297e-05
4.02556e-05
3.38398e-05
3.38401e-05
3.4572e-05
3.45719e-05
3.96419e-05
4.02477e-05
3.38358e-05
3.38416e-05
3.45679e-05
3.45738e-05
3.3846e-05
3.45698e-05
3.45778e-05
3.96354e-05
4.02657e-05
3.38415e-05
3.45737e-05
3.45736e-05
4.02621e-05
4.04256e-05
4.10138e-05
3.48137e-05
3.48135e-05
3.55305e-05
3.553e-05
4.04377e-05
4.10178e-05
3.48095e-05
3.48153e-05
3.55262e-05
3.55318e-05
3.48195e-05
3.55281e-05
3.55361e-05
4.04355e-05
4.10361e-05
3.48151e-05
3.5532e-05
3.55318e-05
4.10401e-05
4.12119e-05
3.57668e-05
3.57662e-05
4.12075e-05
3.57624e-05
3.57681e-05
3.57723e-05
4.11972e-05
3.57679e-05
5.48469e-05
7.01014e-05
7.01261e-05
5.43678e-05
6.95609e-05
6.95428e-05
5.48475e-05
7.01022e-05
7.01277e-05
5.43664e-05
1.45935e-05
1.45936e-05
1.45937e-05
1.43804e-05
1.43802e-05
1.43803e-05
1.43804e-05
3.10558e-05
4.64318e-05
1.47093e-05
1.62887e-05
4.68059e-05
1.46752e-05
3.04996e-05
6.9562e-05
6.95436e-05
3.10638e-05
1.47096e-05
4.64336e-05
1.62897e-05
1.46755e-05
4.68098e-05
3.04989e-05
5.97072e-05
5.9718e-05
1.88685e-05
5.99076e-05
5.99177e-05
5.59485e-05
7.01526e-05
5.55444e-05
7.01753e-05
6.9494e-05
6.94778e-05
5.59491e-05
7.0154e-05
5.55434e-05
7.01768e-05
1.43149e-05
1.4315e-05
1.43151e-05
1.41363e-05
1.4136e-05
1.41362e-05
1.41363e-05
3.27269e-05
4.75485e-05
1.46027e-05
1.65333e-05
3.21848e-05
4.78958e-05
1.45857e-05
6.94947e-05
6.94783e-05
3.2735e-05
1.4603e-05
4.755e-05
1.65343e-05
3.21852e-05
1.4586e-05
4.7894e-05
6.02897e-05
6.03001e-05
1.95952e-05
6.04689e-05
6.04787e-05
5.68654e-05
7.01977e-05
5.65234e-05
7.02181e-05
6.94331e-05
6.94188e-05
5.68665e-05
7.01991e-05
5.65225e-05
7.02195e-05
1.40821e-05
1.40822e-05
1.40824e-05
1.39377e-05
1.39374e-05
1.39376e-05
1.39378e-05
3.43362e-05
4.85685e-05
1.45654e-05
1.68643e-05
3.38172e-05
4.88876e-05
1.45671e-05
6.94333e-05
6.94188e-05
3.43422e-05
1.45659e-05
4.85719e-05
1.68654e-05
3.38182e-05
1.45677e-05
4.8888e-05
6.08122e-05
6.08211e-05
2.04119e-05
6.09732e-05
6.09816e-05
5.76347e-05
7.0238e-05
5.73412e-05
7.02543e-05
6.93781e-05
6.93658e-05
5.76356e-05
7.02386e-05
5.73406e-05
7.02563e-05
1.38947e-05
1.38949e-05
1.38952e-05
1.37843e-05
1.3784e-05
1.37843e-05
1.37846e-05
3.58616e-05
4.95037e-05
1.45962e-05
1.72785e-05
3.53715e-05
4.97965e-05
1.46149e-05
6.93778e-05
6.93652e-05
3.58661e-05
1.4597e-05
4.95071e-05
1.72798e-05
3.53718e-05
1.46155e-05
4.97984e-05
6.12819e-05
6.12899e-05
2.13064e-05
6.14275e-05
6.14361e-05
5.82878e-05
7.02716e-05
5.80327e-05
7.0287e-05
6.93283e-05
6.93178e-05
5.8288e-05
7.02739e-05
5.80321e-05
7.02887e-05
1.37525e-05
1.37529e-05
1.37532e-05
1.3676e-05
1.36757e-05
1.3676e-05
1.36764e-05
3.72895e-05
5.03617e-05
1.46962e-05
1.77724e-05
3.68324e-05
5.06296e-05
1.47321e-05
6.93278e-05
6.93172e-05
3.72949e-05
1.46973e-05
5.03621e-05
1.77738e-05
3.68322e-05
1.47329e-05
5.06322e-05
6.17066e-05
6.17148e-05
2.22619e-05
6.18385e-05
6.18476e-05
5.88502e-05
7.03025e-05
5.86265e-05
7.03171e-05
6.92838e-05
6.92752e-05
5.88495e-05
7.03042e-05
5.86256e-05
7.03181e-05
1.36554e-05
1.36559e-05
1.36563e-05
1.36128e-05
1.36124e-05
1.36129e-05
1.36133e-05
3.86194e-05
5.11489e-05
1.48646e-05
1.83414e-05
3.81923e-05
5.13961e-05
1.49172e-05
6.92832e-05
6.92745e-05
3.86225e-05
1.48659e-05
5.11502e-05
1.8343e-05
3.81942e-05
1.49184e-05
5.13981e-05
6.20934e-05
6.21018e-05
2.32688e-05
6.22151e-05
6.22236e-05
5.93423e-05
7.03315e-05
5.91451e-05
7.03452e-05
6.92446e-05
6.92379e-05
5.93419e-05
7.03331e-05
5.91443e-05
7.03469e-05
1.36033e-05
1.36039e-05
1.36043e-05
1.35952e-05
1.35947e-05
1.35954e-05
1.35959e-05
3.98497e-05
5.18755e-05
1.51002e-05
1.89811e-05
3.94542e-05
5.21022e-05
1.51697e-05
6.92442e-05
6.92375e-05
3.98524e-05
1.5102e-05
5.18767e-05
1.89829e-05
3.94552e-05
1.51711e-05
5.21055e-05
6.24493e-05
6.24581e-05
2.43095e-05
6.25612e-05
6.257e-05
5.97812e-05
7.03602e-05
5.96045e-05
7.03727e-05
6.9211e-05
6.92063e-05
5.97806e-05
7.03612e-05
5.96037e-05
7.03754e-05
1.35969e-05
1.35976e-05
1.35981e-05
1.36215e-05
1.3621e-05
1.36219e-05
1.36223e-05
4.09866e-05
5.25476e-05
1.54024e-05
1.96864e-05
4.06219e-05
5.27591e-05
1.54884e-05
6.92107e-05
6.92061e-05
4.09919e-05
1.54044e-05
5.25501e-05
1.96887e-05
4.0622e-05
1.549e-05
5.27617e-05
6.27796e-05
6.27881e-05
2.53742e-05
6.28837e-05
6.28925e-05
6.01786e-05
7.03891e-05
6.00183e-05
7.04016e-05
6.91832e-05
6.91806e-05
6.0178e-05
7.03899e-05
6.00174e-05
7.04045e-05
1.36348e-05
1.36357e-05
1.36363e-05
1.36941e-05
1.36936e-05
1.36946e-05
1.36951e-05
4.2044e-05
5.31744e-05
1.57697e-05
2.04518e-05
4.16971e-05
5.33704e-05
1.58717e-05
6.91832e-05
6.91807e-05
4.20492e-05
1.5772e-05
5.31772e-05
2.04542e-05
4.1697e-05
1.58735e-05
5.33742e-05
6.30882e-05
6.30966e-05
2.64607e-05
6.31862e-05
6.31949e-05
6.05426e-05
7.04193e-05
6.03956e-05
7.04323e-05
6.91613e-05
6.91609e-05
6.0542e-05
7.04197e-05
6.03947e-05
7.04353e-05
1.37188e-05
1.37198e-05
1.37205e-05
1.38124e-05
1.3812e-05
1.38131e-05
1.38137e-05
4.30259e-05
5.37596e-05
1.62001e-05
2.12714e-05
4.26947e-05
5.39438e-05
1.63174e-05
6.91616e-05
6.91612e-05
4.30305e-05
1.62027e-05
5.3763e-05
2.1274e-05
4.26946e-05
1.63197e-05
5.39488e-05
6.33794e-05
6.33878e-05
2.75208e-05
6.34722e-05
6.34809e-05
6.08803e-05
7.04517e-05
6.07434e-05
7.04656e-05
6.91455e-05
6.91473e-05
6.08793e-05
7.04518e-05
6.07429e-05
7.04685e-05
1.38487e-05
1.38498e-05
1.38505e-05
1.39768e-05
1.39763e-05
1.39776e-05
1.39782e-05
4.3941e-05
5.43105e-05
1.66917e-05
2.21392e-05
4.36237e-05
5.44859e-05
1.68241e-05
6.91459e-05
6.91477e-05
4.39451e-05
1.66944e-05
5.43135e-05
2.21419e-05
4.36231e-05
1.68261e-05
5.44896e-05
6.36559e-05
6.36643e-05
2.86103e-05
6.37451e-05
6.37535e-05
6.11962e-05
7.04868e-05
6.10679e-05
7.0502e-05
6.91358e-05
6.91398e-05
6.11959e-05
7.04869e-05
6.10668e-05
7.05038e-05
1.40246e-05
1.40259e-05
1.40267e-05
1.41874e-05
1.41869e-05
1.41884e-05
1.41891e-05
4.47981e-05
5.48324e-05
1.72416e-05
2.30483e-05
4.44926e-05
5.49992e-05
1.73883e-05
6.91363e-05
6.91402e-05
4.48022e-05
1.72445e-05
5.4835e-05
2.30516e-05
4.44919e-05
1.73903e-05
5.50024e-05
6.39206e-05
6.39292e-05
2.96599e-05
6.40064e-05
6.40147e-05
6.14951e-05
7.05253e-05
6.1373e-05
7.05419e-05
6.91322e-05
6.91383e-05
6.14952e-05
7.05263e-05
6.13717e-05
7.05429e-05
1.42468e-05
1.42483e-05
1.42492e-05
1.44444e-05
1.44439e-05
1.44456e-05
1.44463e-05
4.5606e-05
5.53288e-05
1.78471e-05
2.39927e-05
4.53104e-05
5.54881e-05
1.80072e-05
6.91325e-05
6.91386e-05
4.56099e-05
1.78499e-05
5.53274e-05
2.3996e-05
4.53096e-05
1.80091e-05
5.54914e-05
6.41751e-05
6.41839e-05
3.06934e-05
6.42579e-05
6.42669e-05
6.17821e-05
7.05675e-05
6.16643e-05
7.05857e-05
6.91345e-05
6.91427e-05
6.17812e-05
7.05676e-05
6.16619e-05
7.05879e-05
1.45154e-05
1.45171e-05
1.45179e-05
1.47474e-05
1.47472e-05
1.47491e-05
1.47498e-05
4.63712e-05
5.58009e-05
1.85048e-05
2.49663e-05
4.60841e-05
5.59539e-05
1.86774e-05
6.91347e-05
6.91429e-05
4.6375e-05
1.85078e-05
5.57983e-05
2.49698e-05
4.60839e-05
1.86797e-05
5.59586e-05
6.44214e-05
6.44295e-05
3.1709e-05
6.45017e-05
6.45116e-05
6.20583e-05
7.06121e-05
6.19428e-05
7.06346e-05
6.91425e-05
6.91528e-05
6.20572e-05
7.06133e-05
6.19414e-05
7.06359e-05
1.48302e-05
1.48321e-05
1.4833e-05
1.50964e-05
1.50965e-05
1.50986e-05
1.50994e-05
4.71005e-05
5.62501e-05
1.92114e-05
2.59624e-05
4.68206e-05
5.64002e-05
1.93959e-05
6.91426e-05
6.91527e-05
4.71042e-05
1.92147e-05
5.62483e-05
2.59659e-05
4.68202e-05
1.93983e-05
5.64068e-05
6.46604e-05
6.46681e-05
3.27141e-05
6.47391e-05
6.4749e-05
6.23254e-05
7.06623e-05
6.22145e-05
7.06864e-05
6.9156e-05
6.91682e-05
6.23256e-05
7.06637e-05
6.22132e-05
7.0688e-05
1.51909e-05
1.51929e-05
1.5194e-05
1.54909e-05
1.54912e-05
1.54935e-05
1.54946e-05
4.77981e-05
5.66813e-05
1.99635e-05
2.69747e-05
4.75247e-05
5.68285e-05
2.01587e-05
6.91559e-05
6.9168e-05
4.78023e-05
1.9967e-05
5.66803e-05
2.69782e-05
4.75255e-05
2.01614e-05
5.68346e-05
6.48923e-05
6.49e-05
3.36847e-05
6.49699e-05
6.49796e-05
6.25897e-05
7.07167e-05
6.24788e-05
7.07426e-05
6.91748e-05
6.91889e-05
6.25896e-05
7.07183e-05
6.24789e-05
7.07441e-05
1.55969e-05
1.55991e-05
1.56004e-05
1.59302e-05
1.59306e-05
1.5933e-05
1.59344e-05
4.8468e-05
5.70957e-05
2.07569e-05
2.79969e-05
4.82004e-05
5.72397e-05
2.09618e-05
6.91746e-05
6.91886e-05
4.84722e-05
2.07609e-05
5.70948e-05
2.80009e-05
4.82023e-05
2.09651e-05
5.72464e-05
6.51179e-05
6.51259e-05
3.46449e-05
6.51944e-05
6.52041e-05
6.28501e-05
7.07766e-05
6.27406e-05
7.08014e-05
6.91986e-05
6.92146e-05
6.28498e-05
7.07768e-05
6.27397e-05
7.08043e-05
1.60473e-05
1.60497e-05
1.60512e-05
1.64131e-05
1.64136e-05
1.64161e-05
1.64177e-05
4.91135e-05
5.74944e-05
2.15878e-05
2.90242e-05
4.88525e-05
5.76354e-05
2.18015e-05
6.91984e-05
6.92141e-05
4.91167e-05
2.1592e-05
5.74935e-05
2.90284e-05
4.88546e-05
2.18048e-05
5.76423e-05
6.5338e-05
6.53461e-05
3.55685e-05
6.54132e-05
6.54229e-05
6.31066e-05
7.08375e-05
6.30003e-05
7.08665e-05
6.9227e-05
6.92447e-05
6.31071e-05
7.08393e-05
6.29981e-05
7.08683e-05
1.65409e-05
1.65434e-05
1.65452e-05
1.69382e-05
1.69388e-05
1.69413e-05
1.69432e-05
4.97362e-05
5.78787e-05
2.24519e-05
3.00519e-05
4.94826e-05
5.8017e-05
2.2673e-05
6.9227e-05
6.92444e-05
4.97383e-05
2.24559e-05
5.78782e-05
3.00559e-05
4.94846e-05
2.26763e-05
5.80238e-05
6.55529e-05
6.5561e-05
3.6482e-05
6.56269e-05
6.56364e-05
6.33619e-05
7.09038e-05
6.32564e-05
7.09343e-05
6.926e-05
6.92791e-05
6.33622e-05
7.09055e-05
6.32545e-05
7.0936e-05
1.70765e-05
1.7079e-05
1.70811e-05
1.75038e-05
1.75046e-05
1.75071e-05
1.75093e-05
5.03378e-05
5.82497e-05
2.33444e-05
3.10759e-05
5.00932e-05
5.83849e-05
2.3572e-05
6.92601e-05
6.9279e-05
5.03391e-05
2.33487e-05
5.82491e-05
3.10797e-05
5.00942e-05
2.35755e-05
5.83914e-05
6.57629e-05
6.57708e-05
3.73585e-05
6.58356e-05
6.58448e-05
6.36152e-05
7.09749e-05
6.35111e-05
7.10043e-05
6.92969e-05
6.93175e-05
6.36156e-05
7.09753e-05
6.35086e-05
7.10071e-05
1.76521e-05
1.76547e-05
1.76569e-05
1.8108e-05
1.81089e-05
1.81115e-05
1.81138e-05
5.09204e-05
5.86078e-05
2.42615e-05
3.20915e-05
5.0683e-05
5.87394e-05
2.44948e-05
6.92973e-05
6.93176e-05
5.09216e-05
2.42659e-05
5.86074e-05
3.20956e-05
5.06843e-05
2.44984e-05
5.87461e-05
6.5968e-05
6.5976e-05
3.82196e-05
6.60392e-05
6.60484e-05
6.38659e-05
7.1048e-05
6.37634e-05
7.10785e-05
6.93377e-05
6.93595e-05
6.38666e-05
7.10481e-05
6.37604e-05
7.10804e-05
1.82657e-05
1.82683e-05
1.82707e-05
1.87482e-05
1.87493e-05
1.87519e-05
1.87543e-05
5.14838e-05
5.89533e-05
2.52001e-05
3.3095e-05
5.1254e-05
5.90821e-05
2.54381e-05
6.93384e-05
6.93601e-05
5.14848e-05
2.52047e-05
5.89529e-05
3.3099e-05
5.12549e-05
2.54419e-05
5.90881e-05
6.61683e-05
6.61764e-05
3.90562e-05
6.62379e-05
6.6247e-05
6.41141e-05
7.11225e-05
6.40123e-05
7.11566e-05
6.9382e-05
6.94051e-05
6.41146e-05
7.11255e-05
6.40104e-05
7.11571e-05
1.89147e-05
1.89173e-05
1.89198e-05
1.94218e-05
1.94229e-05
1.94256e-05
1.9428e-05
5.2028e-05
5.92873e-05
2.61565e-05
3.40828e-05
5.18053e-05
5.94128e-05
2.63982e-05
6.9383e-05
6.9406e-05
5.20297e-05
2.61612e-05
5.92866e-05
3.40867e-05
5.1807e-05
2.64022e-05
5.94179e-05
6.63642e-05
6.63722e-05
3.98726e-05
6.64319e-05
6.6441e-05
6.43597e-05
7.12012e-05
6.42581e-05
7.12362e-05
6.94297e-05
6.94542e-05
6.43576e-05
7.12039e-05
6.4256e-05
7.12364e-05
1.9596e-05
1.95988e-05
1.96013e-05
2.01253e-05
2.01264e-05
2.01293e-05
2.01319e-05
5.25514e-05
5.96094e-05
2.7126e-05
3.50516e-05
5.23375e-05
5.97313e-05
2.737e-05
6.94309e-05
6.94552e-05
5.25528e-05
2.71308e-05
5.96084e-05
3.50555e-05
5.23403e-05
2.73743e-05
5.97361e-05
6.65554e-05
6.65631e-05
4.06532e-05
6.66215e-05
6.66305e-05
6.45987e-05
7.1283e-05
6.44984e-05
7.13167e-05
6.94806e-05
6.95062e-05
6.45962e-05
7.12832e-05
6.44985e-05
7.13192e-05
2.03066e-05
2.03095e-05
2.03121e-05
5.3055e-05
5.99198e-05
2.81032e-05
3.59991e-05
5.28486e-05
6.00385e-05
2.83484e-05
6.94818e-05
6.95071e-05
5.30554e-05
2.8108e-05
5.99189e-05
3.60029e-05
5.28528e-05
2.83526e-05
6.00428e-05
6.67415e-05
6.67491e-05
4.13999e-05
6.68055e-05
6.68145e-05
6.95597e-05
6.95415e-05
6.95618e-05
6.95436e-05
5.97108e-05
5.97208e-05
1.88887e-05
5.9912e-05
5.99211e-05
6.95081e-05
6.95253e-05
6.95103e-05
6.95274e-05
1.90104e-05
6.02005e-05
6.02101e-05
6.00111e-05
6.00208e-05
5.48458e-05
7.00992e-05
7.01211e-05
5.43671e-05
3.10638e-05
4.64328e-05
1.47091e-05
1.62897e-05
4.68107e-05
1.4675e-05
3.04992e-05
3.10626e-05
4.64344e-05
1.47092e-05
1.62895e-05
4.68108e-05
1.46752e-05
3.04965e-05
5.49833e-05
7.01518e-05
7.01277e-05
5.54231e-05
5.49822e-05
7.01475e-05
7.0126e-05
5.54218e-05
3.13461e-05
1.63426e-05
4.73645e-05
1.46216e-05
4.70038e-05
1.46473e-05
3.1906e-05
3.13451e-05
1.63425e-05
4.73664e-05
1.46218e-05
4.7006e-05
1.46473e-05
3.1903e-05
5.97161e-05
5.97111e-05
1.88888e-05
5.99154e-05
5.99107e-05
6.95597e-05
6.95416e-05
6.95096e-05
6.95267e-05
1.90097e-05
6.02046e-05
6.02e-05
6.00156e-05
6.00107e-05
6.95083e-05
6.95254e-05
3.10615e-05
4.6432e-05
1.47097e-05
1.629e-05
4.68165e-05
1.46756e-05
3.04972e-05
5.48466e-05
7.01001e-05
7.01219e-05
5.43653e-05
3.10602e-05
1.4709e-05
4.64346e-05
1.62893e-05
1.46749e-05
4.681e-05
3.0497e-05
5.49821e-05
7.01532e-05
7.01291e-05
5.54236e-05
3.13463e-05
1.63428e-05
4.73714e-05
1.46224e-05
4.70039e-05
1.46479e-05
3.18999e-05
5.49809e-05
7.01475e-05
7.01271e-05
5.54226e-05
3.13454e-05
1.63425e-05
1.46216e-05
4.73682e-05
1.46472e-05
4.70053e-05
3.18995e-05
5.48369e-05
7.01015e-05
7.01233e-05
5.43707e-05
3.1056e-05
1.47096e-05
4.64318e-05
1.62892e-05
1.46756e-05
4.68075e-05
3.04997e-05
5.48421e-05
7.00985e-05
7.01204e-05
5.43679e-05
3.13472e-05
1.63417e-05
4.73617e-05
1.46218e-05
4.70028e-05
1.46474e-05
3.18976e-05
5.49858e-05
7.01486e-05
7.01284e-05
5.54135e-05
3.13483e-05
1.63424e-05
1.46222e-05
4.73624e-05
1.46478e-05
4.70029e-05
3.18984e-05
5.49831e-05
7.0146e-05
7.01255e-05
5.54189e-05
5.97171e-05
5.97126e-05
1.88877e-05
5.99161e-05
5.99124e-05
6.956e-05
6.95416e-05
6.95102e-05
6.95276e-05
1.90106e-05
6.02047e-05
6.02008e-05
6.00156e-05
6.00115e-05
6.95082e-05
6.95256e-05
3.10632e-05
1.47101e-05
4.64362e-05
1.62903e-05
1.4676e-05
4.68136e-05
3.04983e-05
5.484e-05
7.01026e-05
7.01243e-05
5.43729e-05
5.4839e-05
7.01e-05
7.0122e-05
5.4372e-05
3.13468e-05
1.63427e-05
1.46221e-05
4.73636e-05
1.46477e-05
4.70044e-05
3.19056e-05
3.13466e-05
1.63434e-05
1.46228e-05
4.73702e-05
1.46483e-05
4.70054e-05
3.1905e-05
5.49877e-05
7.01496e-05
7.01293e-05
5.54156e-05
5.49869e-05
7.01475e-05
7.01269e-05
5.54148e-05
6.95595e-05
6.95413e-05
6.95619e-05
6.95436e-05
1.90244e-05
6.01968e-05
6.02064e-05
6.00078e-05
6.00164e-05
6.9508e-05
6.95252e-05
6.95102e-05
6.95276e-05
6.94925e-05
6.94762e-05
6.94946e-05
6.94784e-05
6.02939e-05
6.03024e-05
1.96154e-05
6.04736e-05
6.04835e-05
6.94457e-05
6.94611e-05
6.94479e-05
6.94632e-05
1.97564e-05
6.0732e-05
6.07414e-05
6.05622e-05
6.05705e-05
5.59469e-05
7.01494e-05
5.55433e-05
7.0172e-05
3.27347e-05
4.75498e-05
1.46027e-05
1.65345e-05
3.21838e-05
4.78943e-05
1.45856e-05
3.27331e-05
4.75509e-05
1.46027e-05
1.65343e-05
3.21841e-05
4.78972e-05
1.45856e-05
5.60562e-05
7.01975e-05
7.01761e-05
5.64277e-05
5.60548e-05
7.01941e-05
7.01728e-05
5.64265e-05
3.30091e-05
1.66093e-05
4.84055e-05
1.4567e-05
4.80731e-05
1.45755e-05
3.35479e-05
3.30081e-05
1.66093e-05
4.84046e-05
1.4567e-05
4.80749e-05
1.45755e-05
3.35464e-05
6.02983e-05
6.02929e-05
1.96146e-05
6.04774e-05
6.04728e-05
6.94926e-05
6.94764e-05
6.94476e-05
6.94628e-05
1.97562e-05
6.07357e-05
6.07304e-05
6.05667e-05
6.05606e-05
6.9446e-05
6.94612e-05
3.273e-05
4.75494e-05
1.46034e-05
1.65347e-05
3.21866e-05
4.79014e-05
1.45864e-05
5.59481e-05
7.01519e-05
5.55421e-05
7.01713e-05
3.27295e-05
1.46027e-05
4.75486e-05
1.65342e-05
3.21856e-05
1.45855e-05
4.78983e-05
5.60554e-05
7.0199e-05
7.01775e-05
5.64285e-05
3.30105e-05
1.66096e-05
4.8409e-05
1.45678e-05
4.80728e-05
1.45763e-05
3.35441e-05
5.60541e-05
7.01934e-05
7.01756e-05
5.64272e-05
3.301e-05
1.66093e-05
1.45669e-05
4.84061e-05
1.45754e-05
4.80715e-05
3.35428e-05
5.59394e-05
7.01531e-05
5.55467e-05
7.01725e-05
3.27286e-05
1.46032e-05
4.75481e-05
1.65343e-05
3.21864e-05
1.45862e-05
4.78946e-05
5.59444e-05
7.01504e-05
5.55445e-05
7.01698e-05
3.301e-05
1.66081e-05
4.84021e-05
1.45669e-05
4.8068e-05
1.45754e-05
3.35408e-05
5.60583e-05
7.01944e-05
7.01766e-05
5.64186e-05
3.30113e-05
1.66093e-05
1.45675e-05
4.84012e-05
1.4576e-05
4.80714e-05
3.35425e-05
5.60565e-05
7.01919e-05
7.01741e-05
5.64238e-05
6.02988e-05
6.02946e-05
1.96145e-05
6.04777e-05
6.0474e-05
6.94926e-05
6.94763e-05
6.94478e-05
6.94633e-05
1.97569e-05
6.07363e-05
6.0732e-05
6.05663e-05
6.05621e-05
6.94457e-05
6.94612e-05
3.27345e-05
1.46038e-05
4.75502e-05
1.65352e-05
3.2185e-05
1.45868e-05
4.79007e-05
5.5941e-05
7.0154e-05
5.5548e-05
7.01732e-05
5.59402e-05
7.01518e-05
5.55473e-05
7.01713e-05
3.30093e-05
1.66091e-05
1.45673e-05
4.84012e-05
1.45758e-05
4.80729e-05
3.35467e-05
3.30088e-05
1.66103e-05
1.45682e-05
4.84085e-05
1.45767e-05
4.80724e-05
3.35464e-05
5.60591e-05
7.01952e-05
7.01774e-05
5.64198e-05
5.60584e-05
7.01937e-05
7.01754e-05
5.64191e-05
6.94924e-05
6.9476e-05
6.94948e-05
6.94783e-05
1.97727e-05
6.07273e-05
6.0737e-05
6.0559e-05
6.05672e-05
6.94456e-05
6.94609e-05
6.94479e-05
6.94633e-05
6.94311e-05
6.94167e-05
6.94333e-05
6.94189e-05
6.08157e-05
6.08244e-05
2.04338e-05
6.09782e-05
6.09853e-05
6.93892e-05
6.94027e-05
6.93916e-05
6.94049e-05
2.05908e-05
6.12091e-05
6.12185e-05
6.10566e-05
6.10657e-05
5.68641e-05
7.01947e-05
5.65219e-05
7.02152e-05
3.43422e-05
4.85696e-05
1.45657e-05
1.6866e-05
3.38168e-05
4.88915e-05
1.45675e-05
3.43409e-05
4.85746e-05
1.45656e-05
1.68656e-05
3.38159e-05
4.88935e-05
1.45673e-05
5.695e-05
7.02365e-05
7.02185e-05
5.72664e-05
5.69485e-05
7.02342e-05
7.02154e-05
5.72654e-05
3.46048e-05
1.69619e-05
4.93555e-05
1.45824e-05
4.90476e-05
1.45724e-05
3.51152e-05
3.46045e-05
1.69616e-05
4.93571e-05
1.45821e-05
4.90499e-05
1.45722e-05
3.51115e-05
6.08207e-05
6.08142e-05
2.04335e-05
6.09812e-05
6.09755e-05
6.94313e-05
6.94171e-05
6.93916e-05
6.94049e-05
2.05892e-05
6.12141e-05
6.12073e-05
6.10612e-05
6.10545e-05
6.93896e-05
6.94028e-05
3.43391e-05
4.85719e-05
1.45665e-05
1.6866e-05
3.38187e-05
4.8894e-05
1.45682e-05
5.6865e-05
7.01972e-05
5.65212e-05
7.02141e-05
3.43377e-05
1.45656e-05
4.85711e-05
1.68658e-05
3.38182e-05
1.45674e-05
4.88924e-05
5.69495e-05
7.02387e-05
7.02198e-05
5.72674e-05
3.46075e-05
1.69618e-05
4.93571e-05
1.45832e-05
4.90507e-05
1.45732e-05
3.51118e-05
5.6948e-05
7.02336e-05
7.02177e-05
5.72662e-05
3.46067e-05
1.6962e-05
1.45822e-05
4.93562e-05
1.45723e-05
4.90487e-05
3.51125e-05
5.68567e-05
7.01982e-05
5.6525e-05
7.02151e-05
3.43387e-05
1.45661e-05
4.85711e-05
1.68658e-05
3.3819e-05
1.45678e-05
4.88874e-05
5.68619e-05
7.01957e-05
5.65237e-05
7.02126e-05
3.46051e-05
1.69601e-05
4.93519e-05
1.45819e-05
4.90465e-05
1.45721e-05
3.5109e-05
5.69513e-05
7.02341e-05
7.02186e-05
5.72578e-05
3.46063e-05
1.69621e-05
1.45827e-05
4.93524e-05
1.45727e-05
4.90495e-05
3.51126e-05
5.69503e-05
7.02318e-05
7.02162e-05
5.72629e-05
6.08202e-05
6.08156e-05
2.04336e-05
6.09811e-05
6.09767e-05
6.94312e-05
6.94168e-05
6.93913e-05
6.94048e-05
2.05902e-05
6.12142e-05
6.12091e-05
6.10605e-05
6.10562e-05
6.93893e-05
6.94028e-05
3.43413e-05
1.45669e-05
4.85721e-05
1.68667e-05
3.38171e-05
1.45687e-05
4.88937e-05
5.68579e-05
7.01989e-05
5.65251e-05
7.02158e-05
5.68572e-05
7.01964e-05
5.65244e-05
7.02152e-05
3.46053e-05
1.69613e-05
1.45825e-05
4.93521e-05
1.45725e-05
4.90502e-05
3.5115e-05
3.46049e-05
1.69628e-05
1.45835e-05
4.93572e-05
1.45735e-05
4.90496e-05
3.51154e-05
5.69513e-05
7.0235e-05
7.02194e-05
5.72588e-05
5.69507e-05
7.02345e-05
7.02156e-05
5.72581e-05
6.94311e-05
6.94166e-05
6.94334e-05
6.94189e-05
2.06094e-05
6.12056e-05
6.12146e-05
6.10533e-05
6.1061e-05
6.93892e-05
6.94026e-05
6.93914e-05
6.94048e-05
6.93757e-05
6.93632e-05
6.9378e-05
6.93656e-05
6.12857e-05
6.12948e-05
2.13281e-05
6.14305e-05
6.14396e-05
6.93385e-05
6.935e-05
6.93409e-05
6.93524e-05
2.14991e-05
6.16412e-05
6.16502e-05
6.15031e-05
6.15121e-05
5.76333e-05
7.02348e-05
5.73398e-05
7.02523e-05
3.58652e-05
4.95047e-05
1.45969e-05
1.72806e-05
3.53713e-05
4.97997e-05
1.46154e-05
3.58627e-05
4.95083e-05
1.45965e-05
1.72802e-05
3.53722e-05
4.97989e-05
1.4615e-05
5.77007e-05
7.02711e-05
7.02554e-05
5.79741e-05
5.76992e-05
7.02683e-05
7.02533e-05
5.79728e-05
3.61152e-05
1.73968e-05
5.02247e-05
1.46656e-05
4.99433e-05
1.46385e-05
3.65925e-05
3.61152e-05
1.73965e-05
5.02246e-05
1.46652e-05
4.99474e-05
1.46381e-05
3.65889e-05
6.129e-05
6.12827e-05
2.13282e-05
6.14359e-05
6.14276e-05
6.93756e-05
6.93633e-05
6.93411e-05
6.93526e-05
2.14982e-05
6.16459e-05
6.16379e-05
6.15084e-05
6.15001e-05
6.93385e-05
6.93497e-05
3.58644e-05
4.95091e-05
1.45976e-05
1.72805e-05
3.53743e-05
4.98018e-05
1.46162e-05
5.76341e-05
7.02361e-05
5.73394e-05
7.02518e-05
3.58632e-05
1.45968e-05
4.9507e-05
1.72807e-05
3.53724e-05
1.46153e-05
4.98006e-05
5.77004e-05
7.02726e-05
7.02568e-05
5.79745e-05
3.61169e-05
1.73966e-05
5.02274e-05
1.46664e-05
4.99475e-05
1.46393e-05
3.65907e-05
5.76989e-05
7.02677e-05
7.02536e-05
5.79733e-05
3.61157e-05
1.73971e-05
1.46656e-05
5.02253e-05
1.46386e-05
4.9945e-05
3.65894e-05
5.7626e-05
7.02371e-05
5.73419e-05
7.0252e-05
3.58629e-05
1.45971e-05
4.95065e-05
1.72808e-05
3.5373e-05
1.46157e-05
4.97971e-05
5.76309e-05
7.02348e-05
5.7341e-05
7.02498e-05
3.61142e-05
1.73946e-05
5.02214e-05
1.46649e-05
4.9942e-05
1.46377e-05
3.65878e-05
5.77006e-05
7.02686e-05
7.02547e-05
5.79656e-05
3.61161e-05
1.73973e-05
1.46658e-05
5.02223e-05
1.46388e-05
4.9945e-05
3.65894e-05
5.77e-05
7.02666e-05
7.02527e-05
5.79704e-05
6.12897e-05
6.12847e-05
2.13289e-05
6.14351e-05
6.143e-05
6.93758e-05
6.93632e-05
6.93405e-05
6.93521e-05
2.14983e-05
6.16456e-05
6.16403e-05
6.15069e-05
6.15016e-05
6.93385e-05
6.935e-05
3.58661e-05
1.4598e-05
4.95077e-05
1.72814e-05
3.53704e-05
1.46166e-05
4.98021e-05
5.76274e-05
7.0238e-05
5.73417e-05
7.02531e-05
5.76267e-05
7.0235e-05
5.7341e-05
7.02527e-05
3.61143e-05
1.73959e-05
1.46657e-05
5.0224e-05
1.46386e-05
4.99433e-05
3.65931e-05
3.61134e-05
1.73977e-05
1.46669e-05
5.02268e-05
1.46397e-05
4.99453e-05
3.65923e-05
5.77008e-05
7.02701e-05
7.02556e-05
5.79668e-05
5.77002e-05
7.0269e-05
7.02528e-05
5.79662e-05
6.93756e-05
6.93632e-05
6.93779e-05
6.93654e-05
2.15209e-05
6.16372e-05
6.16467e-05
6.14992e-05
6.15075e-05
6.93385e-05
6.935e-05
6.93407e-05
6.93522e-05
6.93258e-05
6.93153e-05
6.93281e-05
6.93175e-05
6.17105e-05
6.17193e-05
2.22868e-05
6.18425e-05
6.18509e-05
6.92933e-05
6.93029e-05
6.92955e-05
6.93051e-05
2.24679e-05
6.20346e-05
6.20431e-05
6.19087e-05
6.1917e-05
5.82862e-05