/*--------------------------------*- C++ -*----------------------------------*\
| =========                 |                                                 |
| \\      /  F ield         | OpenFOAM: The Open Source CFD Toolbox           |
|  \\    /   O peration     | Version:  2312                                  |
|   \\  /    A nd           | Website:  www.openfoam.com                      |
|    \\/     M anipulation  |                                                 |
\*---------------------------------------------------------------------------*/
FoamFile
{
    version     2.0;
    format      ascii;
    arch        "LSB;label=32;scalar=64";
    class       volScalarField;
    location    "450";
    object      p;
}
// * * * * * * * * * * * * * * * * * * * * * * * * * * * * * * * * * * * * * //

dimensions      [0 2 -2 0 0 0 0];

internalField   nonuniform List<scalar> 
42840
(
0.00260043
0.00260043
0.00260043
0.00260228
0.00256099
0.00256098
0.00256098
0.00256283
0.00252177
0.00252176
0.00252176
0.00252359
0.00248276
0.00248275
0.00248275
0.00248457
0.00244396
0.00244395
0.00244395
0.00244575
0.00240536
0.00240535
0.00240535
0.00240714
0.00236695
0.00236694
0.00236694
0.00236871
0.00232873
0.00232871
0.00232871
0.00233047
0.00229069
0.00229067
0.00229067
0.0022924
0.00225282
0.00225279
0.00225279
0.00225451
0.00221511
0.00221509
0.00221509
0.00221679
0.00217757
0.00217754
0.00217754
0.00217923
0.00214019
0.00214016
0.00214016
0.00214183
0.00210295
0.00210292
0.00210292
0.00210458
0.00206586
0.00206582
0.00206582
0.00206747
0.00202891
0.00202887
0.00202887
0.0020305
0.00199209
0.00199205
0.00199205
0.00199367
0.0019554
0.00195535
0.00195535
0.00195697
0.00191883
0.00191877
0.00191877
0.00192038
0.00188237
0.00188231
0.00188231
0.00188391
0.00184602
0.00184596
0.00184596
0.00184756
0.00180978
0.00180972
0.00180972
0.0018113
0.00177363
0.00177357
0.00177357
0.00177515
0.00173758
0.00173751
0.00173751
0.00173909
0.00170161
0.00170154
0.00170154
0.00170311
0.00260228
0.00256906
0.00260043
0.00260043
0.00257082
0.00257082
0.00260228
0.00256906
0.00260043
0.00260043
0.00257082
0.00257082
0.00260043
0.00257082
0.00257082
0.00260229
0.00256906
0.00260043
0.00257082
0.00257082
0.00256906
0.00256282
0.0025298
0.00256098
0.00256098
0.00253155
0.00253155
0.00256283
0.0025298
0.00256098
0.00256098
0.00253155
0.00253155
0.00256098
0.00253155
0.00253155
0.00256283
0.0025298
0.00256098
0.00253154
0.00253155
0.0025298
0.00252359
0.00249076
0.00252176
0.00252176
0.00249248
0.00249248
0.00252359
0.00249076
0.00252176
0.00252176
0.00249248
0.00249248
0.00252176
0.00249248
0.00249248
0.00252359
0.00249075
0.00252176
0.00249248
0.00249248
0.00249076
0.00248457
0.00245191
0.00248275
0.00248275
0.00245363
0.00245363
0.00248457
0.00245192
0.00248275
0.00248275
0.00245363
0.00245363
0.00248275
0.00245363
0.00245363
0.00248457
0.00245191
0.00248275
0.00245363
0.00245363
0.00245191
0.00244575
0.00241327
0.00244395
0.00244395
0.00241498
0.00241498
0.00244575
0.00241327
0.00244395
0.00244395
0.00241498
0.00241498
0.00244395
0.00241498
0.00241498
0.00244575
0.00241327
0.00244395
0.00241498
0.00241498
0.00241327
0.00240713
0.00237482
0.00240535
0.00240535
0.00237652
0.00237652
0.00240713
0.00237482
0.00240535
0.00240535
0.00237652
0.00237652
0.00240535
0.00237652
0.00237652
0.00240713
0.00237482
0.00240535
0.00237652
0.00237652
0.00237482
0.00236871
0.00233655
0.00236694
0.00236694
0.00233825
0.00233825
0.00236871
0.00233655
0.00236694
0.00236694
0.00233825
0.00233825
0.00236694
0.00233825
0.00233825
0.00236871
0.00233655
0.00236694
0.00233825
0.00233825
0.00233655
0.00233046
0.00229847
0.00232871
0.00232871
0.00230016
0.00230016
0.00233046
0.00229847
0.00232871
0.00232871
0.00230016
0.00230016
0.00232871
0.00230016
0.00230016
0.00233046
0.00229846
0.00232871
0.00230016
0.00230016
0.00229847
0.0022924
0.00226055
0.00229067
0.00229067
0.00226224
0.00226224
0.0022924
0.00226055
0.00229067
0.00229066
0.00226224
0.00226224
0.00229067
0.00226224
0.00226225
0.0022924
0.00226055
0.00229067
0.00226224
0.00226225
0.00226055
0.00225451
0.00222281
0.00225279
0.00225279
0.0022245
0.0022245
0.00225451
0.00222281
0.00225279
0.00225279
0.0022245
0.0022245
0.00225279
0.0022245
0.0022245
0.00225451
0.00222281
0.00225279
0.0022245
0.0022245
0.00222281
0.00221679
0.00218523
0.00221509
0.00221509
0.00218692
0.00218691
0.00221679
0.00218522
0.00221509
0.00221509
0.00218691
0.00218691
0.00221509
0.00218691
0.00218692
0.00221679
0.00218522
0.00221509
0.00218691
0.00218691
0.00218522
0.00217923
0.0021478
0.00217754
0.00217754
0.00214949
0.00214949
0.00217923
0.0021478
0.00217754
0.00217754
0.00214949
0.00214949
0.00217754
0.00214949
0.00214949
0.00217923
0.0021478
0.00217754
0.00214949
0.00214949
0.0021478
0.00214183
0.00211053
0.00214016
0.00214016
0.00211221
0.00211221
0.00214183
0.00211053
0.00214016
0.00214016
0.00211221
0.00211221
0.00214016
0.00211221
0.00211221
0.00214183
0.00211053
0.00214016
0.00211221
0.00211221
0.00211053
0.00210458
0.0020734
0.00210292
0.00210292
0.00207508
0.00207508
0.00210458
0.0020734
0.00210292
0.00210292
0.00207508
0.00207508
0.00210292
0.00207508
0.00207508
0.00210458
0.0020734
0.00210292
0.00207508
0.00207508
0.0020734
0.00206747
0.00203641
0.00206582
0.00206582
0.00203809
0.00203809
0.00206747
0.00203641
0.00206582
0.00206582
0.00203809
0.0020381
0.00206582
0.00203809
0.00203809
0.00206747
0.00203641
0.00206582
0.0020381
0.00203809
0.00203641
0.0020305
0.00199956
0.00202887
0.00202887
0.00200124
0.00200124
0.0020305
0.00199956
0.00202887
0.00202887
0.00200124
0.00200124
0.00202887
0.00200124
0.00200124
0.0020305
0.00199956
0.00202887
0.00200124
0.00200124
0.00199956
0.00199367
0.00196284
0.00199205
0.00199205
0.00196451
0.00196451
0.00199367
0.00196284
0.00199205
0.00199205
0.00196451
0.00196451
0.00199205
0.00196451
0.00196451
0.00199367
0.00196284
0.00199204
0.00196451
0.00196451
0.00196283
0.00195696
0.00192623
0.00195535
0.00195535
0.00192791
0.00192791
0.00195696
0.00192623
0.00195535
0.00195535
0.00192791
0.00192791
0.00195535
0.00192791
0.00192791
0.00195696
0.00192623
0.00195535
0.00192791
0.00192791
0.00192623
0.00192038
0.00188975
0.00191877
0.00191877
0.00189142
0.00189142
0.00192038
0.00188975
0.00191877
0.00191877
0.00189142
0.00189142
0.00191877
0.00189142
0.00189142
0.00192038
0.00188975
0.00191877
0.00189142
0.00189142
0.00188975
0.00188391
0.00185337
0.00188231
0.00188231
0.00185504
0.00185504
0.00188391
0.00185337
0.00188231
0.00188231
0.00185504
0.00185504
0.00188231
0.00185504
0.00185504
0.00188391
0.00185337
0.00188231
0.00185504
0.00185504
0.00185337
0.00184756
0.00181711
0.00184596
0.00184596
0.00181877
0.00181877
0.00184756
0.00181711
0.00184596
0.00184596
0.00181877
0.00181877
0.00184596
0.00181877
0.00181877
0.00184756
0.0018171
0.00184596
0.00181877
0.00181877
0.0018171
0.0018113
0.00178094
0.00180971
0.00180971
0.00178259
0.00178259
0.0018113
0.00178094
0.00180972
0.00180972
0.00178259
0.00178259
0.00180972
0.00178259
0.00178259
0.0018113
0.00178094
0.00180971
0.00178259
0.00178259
0.00178094
0.00177515
0.00174486
0.00177357
0.00177357
0.00174651
0.00174651
0.00177515
0.00174486
0.00177357
0.00177357
0.00174652
0.00174651
0.00177357
0.00174651
0.00174651
0.00177515
0.00174486
0.00177357
0.00174651
0.00174651
0.00174486
0.00173909
0.00170887
0.00173751
0.00173751
0.00171052
0.00171052
0.00173909
0.00170887
0.00173751
0.00173751
0.00171052
0.00171052
0.00173751
0.00171052
0.00171052
0.00173909
0.00170887
0.00173751
0.00171052
0.00171052
0.00170887
0.00170311
0.00170154
0.00170154
0.00170311
0.00170154
0.00170154
0.00170154
0.00170311
0.00170154
0.00258807
0.00260259
0.00258797
0.00260266
0.00260257
0.00258793
0.00258807
0.00260259
0.00258797
0.00260267
0.00260043
0.00260043
0.00260043
0.00257082
0.00257082
0.00257083
0.00257082
0.00258836
0.00260258
0.00260043
0.00259055
0.00258816
0.00259055
0.00260264
0.00260257
0.00258794
0.00258836
0.00260043
0.00260258
0.00259055
0.00259055
0.00258816
0.00260264
0.00260262
0.00260262
0.00258877
0.002588
0.002588
0.00254869
0.00256314
0.0025632
0.00254859
0.00256312
0.00254856
0.00254869
0.00256314
0.0025632
0.00254859
0.00256099
0.00256099
0.00256099
0.00253155
0.00253155
0.00253155
0.00253155
0.00254897
0.00256312
0.00256098
0.00255116
0.00256317
0.00254877
0.00255116
0.00256312
0.00254856
0.00254897
0.00256098
0.00256312
0.00255116
0.00256317
0.00255116
0.00254877
0.00256316
0.00256316
0.0025494
0.00254862
0.00254862
0.00250952
0.0025239
0.00252396
0.00250944
0.00252389
0.00250941
0.00250952
0.0025239
0.00252396
0.00250944
0.00252177
0.00252177
0.00252177
0.00249249
0.00249249
0.00249249
0.00249249
0.00250979
0.00252388
0.00252176
0.00251199
0.00252392
0.00250961
0.00251199
0.00252389
0.00250941
0.00250979
0.00252176
0.00252388
0.00251199
0.00252392
0.00251199
0.00250961
0.00252392
0.00252392
0.00251025
0.00250946
0.00250946
0.00247057
0.00248489
0.00248494
0.00247049
0.00248487
0.00247047
0.00247057
0.00248489
0.00248494
0.00247049
0.00248276
0.00248276
0.00248276
0.00245364
0.00245364
0.00245364
0.00245364
0.00247082
0.00248486
0.00248275
0.00247303
0.00248489
0.00247065
0.00247303
0.00248487
0.00247047
0.00247082
0.00248275
0.00248486
0.00247303
0.00248489
0.00247303
0.00247065
0.0024849
0.0024849
0.00247131
0.00247051
0.00247051
0.00243183
0.00244607
0.00244612
0.00243175
0.00244606
0.00243173
0.00243183
0.00244607
0.00244612
0.00243175
0.00244396
0.00244396
0.00244396
0.00241499
0.00241499
0.00241499
0.00241499
0.00243207
0.00244604
0.00244395
0.00243428
0.00244607
0.00243189
0.00243428
0.00244606
0.00243173
0.00243207
0.00244395
0.00244604
0.00243428
0.00244607
0.00243428
0.00243189
0.00244609
0.00244609
0.00243257
0.00243177
0.00243177
0.00239328
0.00240746
0.0024075
0.00239321
0.00240745
0.00239318
0.00239328
0.00240746
0.0024075
0.00239321
0.00240536
0.00240536
0.00240536
0.00237654
0.00237654
0.00237654
0.00237654
0.00239351
0.00240743
0.00240535
0.00239573
0.00240745
0.00239334
0.00239573
0.00240745
0.00239318
0.00239351
0.00240535
0.00240743
0.00239573
0.00240745
0.00239573
0.00239334
0.00240747
0.00240747
0.00239402
0.00239322
0.00239322
0.00235492
0.00236904
0.00236908
0.00235485
0.00236903
0.00235483
0.00235492
0.00236904
0.00236908
0.00235485
0.00236695
0.00236695
0.00236695
0.00233827
0.00233827
0.00233827
0.00233827
0.00235514
0.002369
0.00236694
0.00235736
0.00236902
0.00235498
0.00235737
0.00236903
0.00235483
0.00235514
0.00236694
0.00236901
0.00235736
0.00236902
0.00235737
0.00235498
0.00236905
0.00236905
0.00235566
0.00235487
0.00235487
0.00231674
0.0023308
0.00233084
0.00231668
0.00233079
0.00231666
0.00231674
0.0023308
0.00233084
0.00231668
0.00232873
0.00232873
0.00232873
0.00230018
0.00230018
0.00230018
0.00230018
0.00231696
0.00233077
0.00232872
0.00231918
0.00233078
0.0023168
0.00231919
0.00233079
0.00231666
0.00231696
0.00232872
0.00233077
0.00231918
0.00233078
0.00231919
0.0023168
0.00233081
0.00233082
0.00231749
0.00231669
0.0023167
0.00227875
0.00229274
0.00229278
0.00227868
0.00229274
0.00227866
0.00227875
0.00229274
0.00229278
0.00227868
0.00229069
0.00229069
0.00229069
0.00226227
0.00226227
0.00226227
0.00226227
0.00227895
0.00229271
0.00229067
0.00228118
0.00229272
0.0022788
0.00228119
0.00229274
0.00227866
0.00227895
0.00229067
0.00229271
0.00228118
0.00229272
0.00228119
0.0022788
0.00229276
0.00229276
0.00227949
0.0022787
0.0022787
0.00224092
0.00225486
0.0022549
0.00224086
0.00225486
0.00224084
0.00224092
0.00225486
0.0022549
0.00224086
0.00225282
0.00225282
0.00225282
0.00222452
0.00222452
0.00222452
0.00222452
0.00224112
0.00225483
0.0022528
0.00224335
0.00225483
0.00224097
0.00224336
0.00225486
0.00224084
0.00224112
0.0022528
0.00225483
0.00224335
0.00225483
0.00224336
0.00224097
0.00225487
0.00225487
0.00224166
0.00224087
0.00224088
0.00220326
0.00221715
0.00221718
0.0022032
0.00221714
0.00220319
0.00220326
0.00221715
0.00221718
0.0022032
0.00221511
0.00221511
0.00221511
0.00218694
0.00218694
0.00218694
0.00218694
0.00220345
0.00221711
0.0022151
0.00220569
0.00221712
0.00220331
0.0022057
0.00221714
0.00220319
0.00220345
0.0022151
0.00221711
0.00220569
0.00221712
0.0022057
0.00220331
0.00221716
0.00221716
0.002204
0.00220322
0.00220322
0.00216576
0.00217959
0.00217962
0.00216571
0.00217959
0.00216569
0.00216576
0.00217959
0.00217962
0.00216571
0.00217757
0.00217757
0.00217757
0.00214952
0.00214952
0.00214952
0.00214952
0.00216595
0.00217956
0.00217756
0.00216818
0.00217956
0.00216581
0.0021682
0.00217959
0.00216569
0.00216595
0.00217756
0.00217956
0.00216818
0.00217956
0.0021682
0.00216581
0.00217961
0.00217961
0.00216649
0.00216572
0.00216572
0.00212842
0.0021422
0.00214223
0.00212837
0.00214219
0.00212835
0.00212842
0.0021422
0.00214223
0.00212837
0.00214019
0.00214019
0.00214019
0.00211225
0.00211225
0.00211225
0.00211225
0.0021286
0.00214216
0.00214017
0.00213083
0.00214216
0.00212847
0.00213085
0.00214219
0.00212835
0.0021286
0.00214017
0.00214217
0.00213083
0.00214217
0.00213085
0.00212847
0.00214221
0.00214221
0.00212915
0.00212838
0.00212838
0.00209122
0.00210495
0.00210498
0.00209117
0.00210495
0.00209116
0.00209122
0.00210495
0.00210498
0.00209117
0.00210295
0.00210295
0.00210295
0.00207512
0.00207512
0.00207512
0.00207512
0.0020914
0.00210492
0.00210294
0.00209363
0.00210492
0.00209127
0.00209365
0.00210495
0.00209116
0.0020914
0.00210294
0.00210492
0.00209363
0.00210492
0.00209365
0.00209127
0.00210496
0.00210497
0.00209195
0.00209118
0.00209118
0.00205417
0.00206785
0.00206788
0.00205412
0.00206785
0.00205411
0.00205417
0.00206785
0.00206788
0.00205412
0.00206586
0.00206586
0.00206586
0.00203813
0.00203813
0.00203813
0.00203813
0.00205434
0.00206782
0.00206585
0.00205657
0.00206782
0.00205422
0.0020566
0.00206785
0.00205411
0.00205434
0.00206585
0.00206782
0.00205657
0.00206782
0.0020566
0.00205422
0.00206786
0.00206786
0.00205489
0.00205413
0.00205413
0.00201725
0.00203089
0.00203091
0.00201721
0.00203089
0.0020172
0.00201725
0.00203089
0.00203091
0.00201721
0.00202891
0.00202891
0.00202891
0.00200128
0.00200128
0.00200128
0.00200128
0.00201743
0.00203086
0.0020289
0.00201965
0.00203085
0.0020173
0.00201968
0.00203089
0.0020172
0.00201743
0.0020289
0.00203086
0.00201965
0.00203085
0.00201968
0.0020173
0.0020309
0.0020309
0.00201797
0.00201722
0.00201722
0.00198047
0.00199406
0.00199408
0.00198043
0.00199406
0.00198042
0.00198047
0.00199406
0.00199408
0.00198043
0.00199209
0.00199209
0.00199209
0.00196456
0.00196456
0.00196456
0.00196456
0.00198064
0.00199403
0.00199208
0.00198286
0.00199403
0.00198052
0.00198289
0.00199406
0.00198042
0.00198064
0.00199208
0.00199403
0.00198286
0.00199403
0.00198289
0.00198052
0.00199408
0.00199408
0.00198118
0.00198044
0.00198044
0.00194381
0.00195736
0.00195738
0.00194377
0.00195736
0.00194376
0.00194381
0.00195736
0.00195738
0.00194377
0.0019554
0.0019554
0.0019554
0.00192796
0.00192796
0.00192796
0.00192796
0.00194398
0.00195733
0.00195538
0.00194619
0.00195732
0.00194386
0.00194623
0.00195736
0.00194376
0.00194398
0.00195538
0.00195733
0.00194619
0.00195733
0.00194623
0.00194386
0.00195738
0.00195738
0.00194452
0.00194378
0.00194378
0.00190727
0.00192078
0.0019208
0.00190724
0.0019208
0.00190723
0.00190727
0.00192079
0.0019208
0.00190724
0.00191883
0.00191883
0.00191883
0.00189147
0.00189147
0.00189147
0.00189147
0.00190743
0.00192075
0.00191881
0.00190965
0.00192075
0.00190732
0.00190969
0.00192079
0.00190723
0.00190744
0.00191881
0.00192075
0.00190965
0.00192075
0.00190969
0.00190732
0.0019208
0.0019208
0.00190798
0.00190725
0.00190725
0.00187085
0.00188432
0.00188434
0.00187082
0.00188433
0.00187081
0.00187085
0.00188432
0.00188434
0.00187082
0.00188237
0.00188237
0.00188237
0.0018551
0.0018551
0.0018551
0.0018551
0.00187101
0.00188429
0.00188235
0.00187322
0.00188428
0.0018709
0.00187326
0.00188433
0.00187081
0.00187101
0.00188235
0.00188429
0.00187322
0.00188428
0.00187326
0.0018709
0.00188433
0.00188434
0.00187155
0.00187082
0.00187082
0.00183453
0.00184797
0.00184798
0.0018345
0.00184797
0.00183449
0.00183453
0.00184797
0.00184798
0.0018345
0.00184602
0.00184602
0.00184602
0.00181883
0.00181883
0.00181883
0.00181883
0.00183469
0.00184794
0.001846
0.00183689
0.00184793
0.00183458
0.00183693
0.00184797
0.00183449
0.00183469
0.001846
0.00184794
0.00183689
0.00184793
0.00183693
0.00183458
0.00184798
0.00184798
0.00183523
0.00183451
0.00183451
0.00179832
0.00181172
0.00181173
0.00179829
0.00181173
0.00179828
0.00179832
0.00181172
0.00181173
0.00179829
0.00180978
0.00180978
0.00180978
0.00178266
0.00178266
0.00178266
0.00178266
0.00179847
0.00181169
0.00180976
0.00180067
0.00181168
0.00179837
0.00180071
0.00181173
0.00179828
0.00179847
0.00180976
0.00181169
0.00180067
0.00181168
0.00180071
0.00179837
0.00181173
0.00181174
0.00179901
0.0017983
0.0017983
0.0017622
0.00177558
0.00177558
0.00176218
0.00177558
0.00176217
0.0017622
0.00177558
0.00177558
0.00176218
0.00177363
0.00177363
0.00177363
0.00174659
0.00174659
0.00174659
0.00174659
0.00176235
0.00177554
0.00177361
0.00176454
0.00177553
0.00176225
0.00176459
0.00177558
0.00176217
0.00176235
0.00177361
0.00177554
0.00176454
0.00177553
0.00176459
0.00176225
0.00177559
0.00177559
0.00176289
0.00176218
0.00176218
0.00172618
0.00173952
0.00173953
0.00172615
0.00173952
0.00172615
0.00172618
0.00173952
0.00173953
0.00172615
0.00173758
0.00173758
0.00173758
0.0017106
0.0017106
0.0017106
0.0017106
0.00172632
0.00173949
0.00173755
0.00172851
0.00173947
0.00172623
0.00172855
0.00173952
0.00172615
0.00172632
0.00173755
0.00173949
0.00172851
0.00173947
0.00172855
0.00172623
0.00173953
0.00173953
0.00172685
0.00172616
0.00172616
0.00169024
0.00170355
0.00170356
0.00169021
0.00170355
0.00169021
0.00169024
0.00170355
0.00170356
0.00169021
0.00170161
0.00170161
0.00170161
0.00169038
0.00170352
0.00170158
0.00169256
0.0017035
0.00169028
0.0016926
0.00170355
0.00169021
0.00169038
0.00170158
0.00170352
0.00169256
0.0017035
0.0016926
0.00169028
0.00170356
0.00170356
0.00169091
0.00169022
0.00169022
0.00260257
0.00258794
0.00260257
0.00258793
0.00260262
0.00260262
0.00258877
0.002588
0.002588
0.00256822
0.00258282
0.00256822
0.00258282
0.00258253
0.00256828
0.00256828
0.00258286
0.00258286
0.00258807
0.00260259
0.00258797
0.00260266
0.00258836
0.00260258
0.00260043
0.00259055
0.00258816
0.00259055
0.00260264
0.00258836
0.00260258
0.00260043
0.00259055
0.00258816
0.00259055
0.00260264
0.0025829
0.00256825
0.00258284
0.00256835
0.0025829
0.00256825
0.00258284
0.00256835
0.00258288
0.00258068
0.00256843
0.00257082
0.00258282
0.00258068
0.00256864
0.00258288
0.00258068
0.00256844
0.00257082
0.00258282
0.00258068
0.00256864
0.00260262
0.00260262
0.00258877
0.002588
0.002588
0.00260257
0.00258794
0.00256822
0.00258282
0.00258253
0.00256828
0.00256828
0.00258286
0.00258286
0.00256822
0.00258282
0.00258836
0.00260258
0.00260043
0.00259055
0.00258816
0.00259055
0.00260264
0.00258807
0.00260259
0.00258797
0.00260267
0.00258836
0.00260043
0.00260258
0.00259055
0.00259055
0.00258816
0.00260264
0.0025829
0.00256825
0.00258284
0.00256835
0.00258288
0.00258068
0.00256844
0.00257082
0.00258282
0.00258068
0.00256864
0.00258291
0.00256825
0.00258284
0.00256835
0.00258288
0.00258068
0.00257082
0.00256844
0.00258068
0.00258282
0.00256864
0.00258807
0.00260259
0.00258797
0.00260266
0.00258836
0.00260043
0.00260258
0.00259055
0.00259055
0.00258816
0.00260264
0.00258807
0.00260259
0.00258797
0.00260266
0.00258288
0.00258068
0.00256844
0.00257082
0.00258282
0.00258068
0.00256864
0.0025829
0.00256825
0.00258284
0.00256835
0.00258288
0.00258068
0.00257082
0.00256844
0.00258068
0.00258282
0.00256864
0.0025829
0.00256825
0.00258284
0.00256835
0.00260262
0.00260262
0.00258877
0.002588
0.002588
0.00260258
0.00258794
0.00256822
0.00258282
0.00258253
0.00256828
0.00256828
0.00258286
0.00258286
0.00256822
0.00258282
0.00258836
0.00260043
0.00260258
0.00259055
0.00259055
0.00258816
0.00260264
0.00258807
0.00260259
0.00258797
0.00260267
0.00258807
0.00260259
0.00258797
0.00260267
0.00258288
0.00258068
0.00257082
0.00256844
0.00258068
0.00258282
0.00256864
0.00258288
0.00258068
0.00257082
0.00256844
0.00258068
0.00258282
0.00256864
0.00258291
0.00256825
0.00258284
0.00256835
0.00258291
0.00256825
0.00258284
0.00256835
0.00260257
0.00258793
0.00260257
0.00258794
0.00258253
0.00256828
0.00256828
0.00258286
0.00258286
0.00256822
0.00258282
0.00256822
0.00258282
0.00256312
0.00254856
0.00256312
0.00254856
0.00256316
0.00256316
0.0025494
0.00254862
0.00254862
0.00252896
0.00254348
0.00252896
0.00254348
0.00254318
0.00252902
0.00252902
0.00254352
0.00254352
0.00254869
0.00256314
0.0025632
0.00254859
0.00254897
0.00256312
0.00256098
0.00255116
0.00256317
0.00254877
0.00255116
0.00254897
0.00256312
0.00256098
0.00255116
0.00256317
0.00254877
0.00255116
0.00254355
0.00252899
0.00254349
0.00252908
0.00254355
0.00252899
0.00254349
0.00252908
0.00254352
0.00254134
0.00252916
0.00253155
0.00254348
0.00254134
0.00252935
0.00254352
0.00254134
0.00252916
0.00253154
0.00254347
0.00254134
0.00252935
0.00256316
0.00256316
0.0025494
0.00254862
0.00254862
0.00256312
0.00254856
0.00252896
0.00254348
0.00254318
0.00252902
0.00252902
0.00254351
0.00254351
0.00252896
0.00254348
0.00254896
0.00256312
0.00256098
0.00255116
0.00256317
0.00254877
0.00255116
0.00254869
0.00256314
0.0025632
0.00254859
0.00254896
0.00256098
0.00256312
0.00255116
0.00256317
0.00255116
0.00254877
0.00254355
0.00252899
0.00254349
0.00252908
0.00254352
0.00254135
0.00252916
0.00253155
0.00254347
0.00254134
0.00252935
0.00254355
0.00252899
0.00254349
0.00252908
0.00254352
0.00254134
0.00253155
0.00252916
0.00254134
0.00254347
0.00252935
0.00254869
0.00256314
0.0025632
0.00254859
0.00254897
0.00256098
0.00256312
0.00255116
0.00256317
0.00255116
0.00254877
0.00254869
0.00256314
0.0025632
0.00254859
0.00254352
0.00254134
0.00252916
0.00253154
0.00254347
0.00254134
0.00252935
0.00254355
0.00252899
0.00254349
0.00252908
0.00254352
0.00254134
0.00253154
0.00252916
0.00254134
0.00254347
0.00252935
0.00254355
0.00252899
0.00254349
0.00252908
0.00256316
0.00256316
0.0025494
0.00254862
0.00254862
0.00256312
0.00254856
0.00252896
0.00254348
0.00254318
0.00252902
0.00252902
0.00254351
0.00254351
0.00252896
0.00254348
0.00254897
0.00256098
0.00256312
0.00255116
0.00256317
0.00255116
0.00254877
0.00254869
0.00256314
0.0025632
0.00254859
0.00254869
0.00256314
0.0025632
0.00254859
0.00254352
0.00254134
0.00253154
0.00252916
0.00254134
0.00254347
0.00252935
0.00254352
0.00254134
0.00253154
0.00252916
0.00254134
0.00254347
0.00252935
0.00254356
0.00252899
0.00254349
0.00252908
0.00254356
0.00252899
0.00254349
0.00252908
0.00256312
0.00254856
0.00256312
0.00254856
0.00254318
0.00252901
0.00252902
0.00254351
0.00254351
0.00252896
0.00254348
0.00252896
0.00254348
0.00252389
0.00250941
0.00252389
0.00250941
0.00252392
0.00252392
0.00251025
0.00250946
0.00250946
0.00248991
0.00250435
0.00248991
0.00250435
0.00250406
0.00248996
0.00248996
0.00250439
0.00250439
0.00250952
0.0025239
0.00252396
0.00250943
0.00250979
0.00252388
0.00252176
0.00251199
0.00252392
0.00250961
0.00251199
0.00250979
0.00252388
0.00252176
0.00251199
0.00252392
0.00250961
0.00251199
0.00250442
0.00248994
0.00250437
0.00249002
0.00250442
0.00248994
0.00250437
0.00249002
0.00250438
0.00250223
0.0024901
0.00249248
0.00250435
0.00250223
0.00249028
0.00250438
0.00250223
0.0024901
0.00249248
0.00250435
0.00250223
0.00249028
0.00252392
0.00252392
0.00251025
0.00250946
0.00250946
0.00252389
0.00250941
0.00248991
0.00250435
0.00250406
0.00248996
0.00248996
0.00250439
0.00250439
0.00248991
0.00250435
0.00250979
0.00252388
0.00252176
0.00251199
0.00252392
0.00250961
0.00251199
0.00250952
0.0025239
0.00252396
0.00250944
0.00250979
0.00252176
0.00252388
0.00251199
0.00252392
0.00251199
0.00250961
0.00250442
0.00248994
0.00250437
0.00249002
0.00250438
0.00250223
0.0024901
0.00249248
0.00250435
0.00250223
0.00249028
0.00250442
0.00248994
0.00250437
0.00249002
0.00250438
0.00250223
0.00249248
0.0024901
0.00250223
0.00250435
0.00249028
0.00250952
0.0025239
0.00252396
0.00250944
0.00250979
0.00252176
0.00252388
0.00251199
0.00252392
0.00251199
0.0025096
0.00250952
0.0025239
0.00252396
0.00250943
0.00250438
0.00250223
0.0024901
0.00249248
0.00250434
0.00250223
0.00249028
0.00250442
0.00248994
0.00250437
0.00249002
0.00250438
0.00250223
0.00249248
0.0024901
0.00250223
0.00250434
0.00249028
0.00250442
0.00248994
0.00250437
0.00249002
0.00252392
0.00252392
0.00251025
0.00250946
0.00250946
0.00252389
0.00250941
0.00248991
0.00250435
0.00250406
0.00248996
0.00248996
0.00250439
0.00250439
0.00248991
0.00250435
0.00250979
0.00252176
0.00252388
0.00251199
0.00252392
0.00251199
0.00250961
0.00250952
0.0025239
0.00252396
0.00250943
0.00250952
0.0025239
0.00252396
0.00250943
0.00250438
0.00250223
0.00249248
0.0024901
0.00250223
0.00250435
0.00249028
0.00250438
0.00250223
0.00249248
0.0024901
0.00250223
0.00250435
0.00249028
0.00250442
0.00248994
0.00250437
0.00249002
0.00250442
0.00248994
0.00250437
0.00249002
0.00252389
0.00250941
0.00252389
0.00250941
0.00250406
0.00248996
0.00248996
0.00250439
0.00250439
0.00248991
0.00250435
0.00248991
0.00250435
0.00248487
0.00247047
0.00248487
0.00247047
0.0024849
0.0024849
0.00247131
0.00247051
0.00247051
0.00245107
0.00246544
0.00245107
0.00246544
0.00246514
0.00245112
0.00245112
0.00246547
0.00246547
0.00247057
0.00248489
0.00248494
0.00247049
0.00247082
0.00248486
0.00248275
0.00247303
0.00248489
0.00247065
0.00247303
0.00247082
0.00248486
0.00248275
0.00247303
0.00248489
0.00247065
0.00247303
0.00246551
0.0024511
0.00246545
0.00245117
0.00246551
0.0024511
0.00246545
0.00245117
0.00246545
0.00246333
0.00245125
0.00245363
0.00246543
0.00246333
0.00245142
0.00246545
0.00246333
0.00245125
0.00245363
0.00246543
0.00246333
0.00245142
0.0024849
0.0024849
0.00247131
0.00247051
0.00247052
0.00248487
0.00247047
0.00245107
0.00246544
0.00246514
0.00245112
0.00245112
0.00246547
0.00246547
0.00245107
0.00246544
0.00247082
0.00248486
0.00248275
0.00247303
0.00248489
0.00247065
0.00247303
0.00247057
0.00248489
0.00248494
0.00247049
0.00247082
0.00248275
0.00248486
0.00247303
0.00248489
0.00247303
0.00247065
0.00246551
0.0024511
0.00246545
0.00245117
0.00246545
0.00246333
0.00245125
0.00245363
0.00246543
0.00246333
0.00245142
0.00246551
0.0024511
0.00246545
0.00245117
0.00246545
0.00246333
0.00245363
0.00245125
0.00246333
0.00246543
0.00245142
0.00247057
0.00248489
0.00248494
0.00247049
0.00247082
0.00248275
0.00248486
0.00247303
0.00248489
0.00247303
0.00247065
0.00247057
0.00248488
0.00248494
0.00247049
0.00246545
0.00246333
0.00245124
0.00245363
0.00246543
0.00246333
0.00245142
0.0024655
0.0024511
0.00246545
0.00245118
0.00246545
0.00246333
0.00245363
0.00245124
0.00246333
0.00246543
0.00245142
0.00246551
0.00245109
0.00246545
0.00245117
0.0024849
0.0024849
0.00247131
0.00247051
0.00247051
0.00248487
0.00247046
0.00245107
0.00246544
0.00246514
0.00245112
0.00245112
0.00246547
0.00246547
0.00245107
0.00246544
0.00247082
0.00248275
0.00248486
0.00247303
0.00248489
0.00247303
0.00247065
0.00247057
0.00248489
0.00248494
0.00247049
0.00247057
0.00248489
0.00248494
0.00247049
0.00246545
0.00246333
0.00245363
0.00245125
0.00246333
0.00246543
0.00245142
0.00246545
0.00246333
0.00245363
0.00245125
0.00246333
0.00246543
0.00245142
0.00246551
0.0024511
0.00246545
0.00245118
0.00246551
0.0024511
0.00246545
0.00245118
0.00248487
0.00247046
0.00248487
0.00247047
0.00246514
0.00245112
0.00245112
0.00246547
0.00246547
0.00245107
0.00246544
0.00245107
0.00246544
0.00244606
0.00243173
0.00244606
0.00243173
0.00244609
0.00244609
0.00243257
0.00243177
0.00243177
0.00241243
0.00242673
0.00241243
0.00242673
0.00242642
0.00241247
0.00241247
0.00242676
0.00242676
0.00243183
0.00244607
0.00244612
0.00243175
0.00243207
0.00244604
0.00244395
0.00243428
0.00244607
0.00243189
0.00243428
0.00243207
0.00244604
0.00244395
0.00243428
0.00244607
0.00243189
0.00243428
0.00242679
0.00241245
0.00242674
0.00241253
0.00242679
0.00241245
0.00242674
0.00241253
0.00242673
0.00242463
0.00241259
0.00241498
0.00242671
0.00242463
0.00241276
0.00242673
0.00242463
0.00241259
0.00241498
0.00242671
0.00242463
0.00241276
0.00244609
0.00244609
0.00243257
0.00243177
0.00243177
0.00244606
0.00243173
0.00241243
0.00242673
0.00242642
0.00241247
0.00241247
0.00242676
0.00242676
0.00241243
0.00242673
0.00243207
0.00244604
0.00244395
0.00243428
0.00244607
0.00243189
0.00243428
0.00243183
0.00244607
0.00244612
0.00243175
0.00243207
0.00244395
0.00244604
0.00243428
0.00244607
0.00243428
0.0024319
0.00242679
0.00241245
0.00242674
0.00241253
0.00242673
0.00242463
0.00241259
0.00241498
0.00242671
0.00242463
0.00241276
0.00242679
0.00241245
0.00242674
0.00241253
0.00242673
0.00242462
0.00241498
0.00241259
0.00242463
0.00242671
0.00241276
0.00243183
0.00244607
0.00244612
0.00243175
0.00243207
0.00244395
0.00244604
0.00243428
0.00244607
0.00243428
0.00243189
0.00243183
0.00244607
0.00244612
0.00243175
0.00242673
0.00242462
0.00241259
0.00241498
0.00242671
0.00242463
0.00241276
0.00242679
0.00241245
0.00242674
0.00241253
0.00242673
0.00242463
0.00241498
0.00241259
0.00242463
0.00242671
0.00241276
0.00242679
0.00241245
0.00242674
0.00241253
0.00244609
0.00244609
0.00243257
0.00243177
0.00243177
0.00244606
0.00243172
0.00241243
0.00242673
0.00242642
0.00241247
0.00241247
0.00242676
0.00242676
0.00241243
0.00242673
0.00243207
0.00244395
0.00244604
0.00243428
0.00244607
0.00243428
0.0024319
0.00243183
0.00244607
0.00244612
0.00243175
0.00243183
0.00244607
0.00244612
0.00243175
0.00242673
0.00242463
0.00241498
0.00241259
0.00242463
0.00242671
0.00241276
0.00242673
0.00242462
0.00241498
0.00241259
0.00242463
0.00242671
0.00241276
0.00242679
0.00241245
0.00242674
0.00241253
0.00242679
0.00241245
0.00242674
0.00241253
0.00244606
0.00243172
0.00244606
0.00243173
0.00242642
0.00241247
0.00241247
0.00242676
0.00242676
0.00241243
0.00242673
0.00241243
0.00242673
0.00240745
0.00239318
0.00240745
0.00239318
0.00240747
0.00240747
0.00239402
0.00239322
0.00239322
0.00237398
0.00238821
0.00237398
0.00238821
0.0023879
0.00237402
0.00237402
0.00238824
0.00238824