/*--------------------------------*- C++ -*----------------------------------*\
| =========                 |                                                 |
| \\      /  F ield         | OpenFOAM: The Open Source CFD Toolbox           |
|  \\    /   O peration     | Version:  2312                                  |
|   \\  /    A nd           | Website:  www.openfoam.com                      |
|    \\/     M anipulation  |                                                 |
\*---------------------------------------------------------------------------*/
FoamFile
{
    version     2.0;
    format      ascii;
    arch        "LSB;label=32;scalar=64";
    class       volScalarField;
    location    "900";
    object      nut;
}
// * * * * * * * * * * * * * * * * * * * * * * * * * * * * * * * * * * * * * //

dimensions      [0 2 -1 0 0 0 0];

internalField   nonuniform List<scalar> 
42840
(
0.000145953
9.86061e-05
9.86075e-05
8.18112e-05
0.000141924
9.6273e-05
9.62736e-05
8.18298e-05
0.000137982
9.44576e-05
9.44589e-05
8.23723e-05
0.000134144
9.31593e-05
9.31629e-05
8.33177e-05
0.000130464
9.23673e-05
9.2371e-05
8.46479e-05
0.000126969
9.20609e-05
9.20639e-05
8.64454e-05
0.000123695
9.22127e-05
9.22157e-05
8.83884e-05
0.000120688
9.27903e-05
9.27943e-05
9.05546e-05
0.00011795
9.37598e-05
9.37658e-05
9.28507e-05
0.000115534
9.50885e-05
9.50936e-05
9.52615e-05
0.000113454
9.67336e-05
9.67397e-05
9.77364e-05
0.000111725
9.86584e-05
9.86665e-05
0.000100315
0.000110358
0.00010083
0.000100836
0.000102986
0.000109356
0.000103214
0.000103219
0.000105547
0.000108722
0.000105782
0.000105786
0.00010823
0.000108453
0.000108503
0.000108507
0.000110923
0.00010854
0.000111351
0.000111353
0.000113613
0.000108975
0.000114298
0.000114301
0.000116332
0.000109743
0.000117327
0.00011733
0.000118975
0.000110832
0.000120422
0.000120427
0.000121588
0.000112224
0.000123564
0.000123572
0.000124294
0.000113903
0.000126737
0.000126746
0.000126963
0.000115847
0.000129925
0.000129933
0.000129495
0.000118038
0.000133112
0.000133121
0.000132102
0.000120453
0.000136289
0.000136298
0.000134564
8.19612e-05
8.18499e-05
9.85811e-05
9.85708e-05
9.67815e-05
9.67727e-05
8.19795e-05
8.18969e-05
9.86026e-05
9.85701e-05
9.68025e-05
9.67713e-05
9.85839e-05
9.68041e-05
9.67852e-05
8.19364e-05
8.18975e-05
9.85946e-05
9.68077e-05
9.67953e-05
8.21769e-05
8.20931e-05
8.23337e-05
9.62481e-05
9.62404e-05
9.48378e-05
9.48312e-05
8.21245e-05
8.22979e-05
9.62684e-05
9.62378e-05
9.48578e-05
9.48278e-05
9.62535e-05
9.48609e-05
9.48436e-05
8.2065e-05
8.2325e-05
9.62628e-05
9.48628e-05
9.4853e-05
8.26722e-05
8.26117e-05
8.3172e-05
9.44339e-05
9.44269e-05
9.34135e-05
9.34056e-05
8.26296e-05
8.31907e-05
9.44534e-05
9.44246e-05
9.34324e-05
9.34041e-05
9.44419e-05
9.34338e-05
9.34225e-05
8.26575e-05
8.32258e-05
9.44504e-05
9.34388e-05
9.34311e-05
8.36539e-05
8.36225e-05
8.45339e-05
9.31381e-05
9.31306e-05
9.24988e-05
9.24905e-05
8.35848e-05
8.45116e-05
9.31565e-05
9.31302e-05
9.25165e-05
9.24904e-05
9.31486e-05
9.25177e-05
9.25093e-05
8.35885e-05
8.45234e-05
9.31567e-05
9.2524e-05
9.25174e-05
8.49496e-05
8.49869e-05
8.61431e-05
9.23487e-05
9.23402e-05
9.2075e-05
9.20671e-05
8.49929e-05
8.61224e-05
9.23656e-05
9.23403e-05
9.20914e-05
9.20669e-05
9.23598e-05
9.2093e-05
9.20872e-05
8.49623e-05
8.61502e-05
9.23675e-05
9.20986e-05
9.20948e-05
8.65366e-05
8.66753e-05
8.80813e-05
9.20437e-05
9.20351e-05
9.2117e-05
9.21097e-05
8.66782e-05
8.80408e-05
9.20592e-05
9.20357e-05
9.2132e-05
9.21094e-05
9.2057e-05
9.21339e-05
9.21302e-05
8.66712e-05
8.80543e-05
9.20647e-05
9.21396e-05
9.21379e-05
8.8462e-05
8.86961e-05
9.02054e-05
9.21983e-05
9.21895e-05
9.25945e-05
9.25865e-05
8.86693e-05
9.01832e-05
9.22119e-05
9.21898e-05
9.26078e-05
9.2587e-05
9.22114e-05
9.26083e-05
9.26077e-05
8.86474e-05
9.01906e-05
9.22186e-05
9.26143e-05
9.26143e-05
9.06089e-05
9.08559e-05
9.2508e-05
9.27791e-05
9.2771e-05
9.34731e-05
9.34639e-05
9.08324e-05
9.25055e-05
9.27916e-05
9.27706e-05
9.34846e-05
9.34645e-05
9.27922e-05
9.3483e-05
9.34849e-05
9.08368e-05
9.25007e-05
9.27984e-05
9.34908e-05
9.34922e-05
9.29312e-05
9.31862e-05
9.50534e-05
9.37516e-05
9.37427e-05
9.47172e-05
9.4709e-05
9.31643e-05
9.50563e-05
9.37622e-05
9.37449e-05
9.47273e-05
9.47104e-05
9.37657e-05
9.47267e-05
9.47295e-05
9.31719e-05
9.49293e-05
9.37712e-05
9.47333e-05
9.47336e-05
9.53709e-05
9.55981e-05
9.73802e-05
9.50811e-05
9.50754e-05
9.62898e-05
9.62818e-05
9.55924e-05
9.73502e-05
9.50908e-05
9.50767e-05
9.62975e-05
9.62818e-05
9.50947e-05
9.62961e-05
9.62994e-05
9.56881e-05
9.74093e-05
9.50972e-05
9.63025e-05
9.63013e-05
9.78107e-05
9.8175e-05
9.98579e-05
9.67296e-05
9.67243e-05
9.81508e-05
9.81443e-05
9.81756e-05
9.9824e-05
9.67372e-05
9.67242e-05
9.81582e-05
9.81424e-05
9.67413e-05
9.81553e-05
9.81599e-05
9.81048e-05
9.98459e-05
9.67422e-05
9.81631e-05
9.81605e-05
0.000100302
0.00010072
0.000102472
9.86568e-05
9.86524e-05
0.000100265
0.000100257
0.000100708
0.000102419
9.86642e-05
9.86509e-05
0.000100272
0.000100257
9.86688e-05
0.000100266
0.000100275
0.000100613
0.000102351
9.86689e-05
0.000100275
0.000100275
0.000102922
0.000103238
0.000105052
0.000100829
0.000100824
0.000102599
0.000102591
0.000103303
0.000105071
0.000100836
0.000100823
0.000102604
0.000102591
0.000100843
0.000102601
0.00010261
0.000103258
0.000105044
0.000100842
0.000102607
0.000102609
0.000105496
0.000105938
0.000107744
0.000103214
0.000103207
0.000105124
0.000105116
0.000105843
0.00010775
0.00010322
0.000103207
0.00010513
0.000105114
0.000103228
0.000105127
0.000105137
0.000105824
0.000107705
0.000103226
0.000105131
0.000105134
0.000108183
0.000108579
0.000110491
0.000105781
0.000105776
0.00010781
0.000107802
0.000108544
0.000110383
0.000105787
0.000105774
0.000107815
0.0001078
0.000105798
0.000107811
0.000107824
0.000108528
0.000110378
0.000105793
0.000107816
0.00010782
0.000110802
0.000111183
0.000113137
0.000108503
0.000108496
0.000110628
0.00011062
0.000111186
0.000113131
0.000108508
0.000108494
0.000110631
0.000110617
0.00010852
0.00011063
0.000110643
0.000111159
0.000113067
0.000108515
0.000110633
0.000110638
0.000113532
0.000113878
0.000115752
0.000111349
0.000111344
0.000113553
0.000113543
0.000113936
0.000115864
0.000111353
0.00011134
0.000113556
0.000113542
0.000111367
0.000113555
0.000113567
0.000113906
0.00011581
0.000111361
0.000113559
0.000113562
0.000116217
0.000116612
0.000118494
0.000114297
0.00011429
0.000116562
0.000116553
0.000116551
0.000118567
0.0001143
0.000114288
0.000116564
0.000116551
0.000114314
0.000116565
0.000116577
0.000116554
0.000118542
0.000114308
0.000116569
0.000116571
0.000118854
0.000119243
0.000121185
0.000117326
0.000117318
0.000119644
0.000119632
0.000119226
0.000121221
0.000117327
0.000117316
0.000119643
0.000119632
0.000117342
0.000119645
0.000119658
0.000119203
0.000121149
0.000117336
0.00011965
0.000119653
0.000121528
0.000121897
0.000123863
0.000120423
0.000120413
0.000122778
0.000122764
0.000121896
0.000123805
0.000120423
0.000120412
0.000122777
0.000122766
0.000120439
0.000122776
0.000122791
0.000121872
0.000123753
0.000120433
0.000122784
0.000122786
0.000124163
0.000124519
0.000126448
0.000123568
0.000123554
0.000125946
0.000125929
0.000124517
0.000126434
0.000123566
0.000123557
0.000125944
0.000125935
0.000123582
0.000125943
0.00012596
0.00012459
0.000126475
0.000123576
0.000125953
0.000125955
0.000126818
0.000127165
0.000129127
0.000126742
0.000126725
0.000129132
0.000129114
0.000127131
0.000129143
0.00012674
0.00012673
0.00012913
0.00012912
0.000126756
0.000129129
0.000129146
0.000127123
0.000129044
0.00012675
0.000129138
0.00012914
0.000129406
0.000129736
0.00013161
0.000129929
0.000129912
0.000132319
0.000132301
0.000129721
0.000131666
0.000129927
0.000129917
0.000132318
0.000132308
0.000129942
0.000132317
0.000132332
0.000129717
0.000131631
0.000129937
0.000132327
0.000132328
0.000131969
0.000132332
0.000134196
0.000133117
0.000133097
0.0001355
0.000135481
0.000132253
0.000134184
0.000133115
0.000133104
0.000135498
0.000135488
0.000133128
0.000135496
0.000135511
0.000132308
0.000134238
0.000133124
0.000135508
0.000135507
0.000134485
0.000134836
0.000136292
0.000136273
0.00013479
0.000136291
0.00013628
0.000136302
0.000134783
0.000136299
7.20343e-05
4.95764e-05
4.95893e-05
7.12091e-05
2.3616e-05
2.36129e-05
7.20383e-05
4.9571e-05
4.95837e-05
7.12049e-05
0.000145949
0.000145943
0.000145941
0.000142913
0.000142908
0.000142904
0.000142901
6.99302e-05
6.76052e-05
0.000122025
9.79689e-05
6.82701e-05
0.00012104
6.89044e-05
2.36151e-05
2.36121e-05
6.99294e-05
0.000122005
6.76366e-05
9.7975e-05
0.000121039
6.82385e-05
6.89276e-05
6.2058e-05
6.20429e-05
8.2199e-05
6.23563e-05
6.23683e-05
7.37844e-05
4.95947e-05
7.3052e-05
4.96065e-05
2.36046e-05
2.36018e-05
7.37838e-05
4.95893e-05
7.30489e-05
4.96009e-05
0.000141919
0.000141914
0.000141913
0.000138942
0.000138938
0.000138933
0.000138931
7.29136e-05
6.94075e-05
0.000118295
9.57659e-05
7.18866e-05
7.00281e-05
0.000117375
2.36038e-05
2.36011e-05
7.29131e-05
0.000118276
6.94425e-05
9.57702e-05
7.19025e-05
0.000117374
7.00012e-05
6.29243e-05
6.2919e-05
8.2425e-05
6.32073e-05
6.32129e-05
7.53062e-05
4.96107e-05
7.46752e-05
4.96215e-05
2.35942e-05
2.35917e-05
7.53183e-05
4.96052e-05
7.46611e-05
4.96159e-05
0.000137977
0.000137972
0.000137972
0.00013509
0.000135086
0.000135081
0.00013508
7.588e-05
7.11071e-05
0.00011486
9.40823e-05
7.48907e-05
7.16955e-05
0.000114042
2.35934e-05
2.3591e-05
7.58858e-05
0.000114843
7.11337e-05
9.40862e-05
7.48966e-05
0.000114042
7.16686e-05
6.37299e-05
6.3725e-05
8.31115e-05
6.39871e-05
6.39983e-05
7.66669e-05
4.96249e-05
7.60992e-05
4.96342e-05
2.35847e-05
2.35826e-05
7.66783e-05
4.96194e-05
7.60837e-05
4.96285e-05
0.00013414
0.000134135
0.000134136
0.000131371
0.000131367
0.000131363
0.000131363
7.87826e-05
7.26992e-05
0.000111742
9.29125e-05
7.78463e-05
7.32636e-05
0.000111006
2.3584e-05
2.35819e-05
7.8801e-05
0.000111728
7.27338e-05
9.29175e-05
7.78363e-05
0.000111011
7.32365e-05
6.44696e-05
6.44651e-05
8.42802e-05
6.47109e-05
6.47189e-05
7.7886e-05
4.96373e-05
7.73694e-05
4.96453e-05
2.35763e-05
2.35745e-05
7.78962e-05
4.96321e-05
7.73539e-05
4.96395e-05
0.00013046
0.000130456
0.000130457
0.000127827
0.000127823
0.000127819
0.000127821
8.16033e-05
7.42058e-05
0.000109003
9.22439e-05
8.07003e-05
7.4739e-05
0.000108366
2.35755e-05
2.35737e-05
8.16406e-05
0.000108992
7.42429e-05
9.22507e-05
8.06871e-05
0.000108374
7.47113e-05
6.5154e-05
6.51489e-05
8.56979e-05
6.5379e-05
6.53807e-05
7.89891e-05
4.96485e-05
7.85171e-05
4.96554e-05
2.35687e-05
2.35672e-05
7.89984e-05
4.96435e-05
7.85024e-05
4.96494e-05
0.000126965
0.000126961
0.000126963
0.000124495
0.000124493
0.000124489
0.000124491
8.43216e-05
7.56278e-05
0.000106669
9.20559e-05
8.34523e-05
7.6129e-05
0.000106137
2.35679e-05
2.35664e-05
8.43478e-05
0.000106659
7.56595e-05
9.20617e-05
8.34331e-05
0.000106146
7.61062e-05
6.57917e-05
6.57864e-05
8.7487e-05
6.60022e-05
6.60034e-05
8.00015e-05
4.96589e-05
7.9567e-05
4.96652e-05
2.3562e-05
2.35609e-05
8.00076e-05
4.96541e-05
7.9553e-05
4.9659e-05
0.000123692
0.000123688
0.000123691
0.000121421
0.000121419
0.000121415
0.000121418
8.69475e-05
7.69651e-05
0.000104764
9.23177e-05
8.60646e-05
7.74449e-05
0.000104341
2.35612e-05
2.35601e-05
8.69491e-05
0.000104757
7.70005e-05
9.23239e-05
8.60717e-05
0.000104352
7.74202e-05
6.6387e-05
6.63826e-05
8.95359e-05
6.65853e-05
6.65841e-05
8.09371e-05
4.96689e-05
8.05371e-05
4.9675e-05
2.35563e-05
2.35555e-05
8.0937e-05
4.96643e-05
8.05202e-05
4.96686e-05
0.000120685
0.000120681
0.000120684
0.000118604
0.000118602
0.000118598
0.000118601
8.9428e-05
7.82325e-05
0.000103301
9.29977e-05
8.85846e-05
7.86882e-05
0.000102989
2.35555e-05
2.35547e-05
8.94439e-05
0.000103298
7.82676e-05
9.30044e-05
8.85886e-05
0.000103001
7.86672e-05
6.69461e-05
6.6943e-05
9.17809e-05
6.71336e-05
6.71318e-05
8.181e-05
4.96787e-05
8.14371e-05
4.96854e-05
2.35516e-05
2.35512e-05
8.18116e-05
4.96749e-05
8.14279e-05
4.96782e-05
0.000117947
0.000117943
0.000117947
0.000116107
0.000116105
0.000116102
0.000116106
9.18202e-05
7.94357e-05
0.000102288
9.40605e-05
9.09992e-05
7.98686e-05
0.000102089
2.35508e-05
2.35504e-05
9.18383e-05
0.000102287
7.94709e-05
9.40692e-05
9.09874e-05
0.000102101
7.98498e-05
6.74737e-05
6.7471e-05
9.41051e-05
6.76517e-05
6.76502e-05
8.26305e-05
4.96886e-05
8.22768e-05
4.96966e-05
2.35479e-05
2.35479e-05
8.26324e-05
4.96862e-05
8.22693e-05
4.96883e-05
0.000115531
0.000115528
0.000115533
0.000113942
0.00011394
0.000113936
0.000113941
9.41089e-05
8.05791e-05
0.00010172
9.5473e-05
9.32916e-05
8.09951e-05
0.000101629
2.35471e-05
2.3547e-05
9.4137e-05
0.000101715
8.06135e-05
9.54795e-05
9.3281e-05
0.000101639
8.09775e-05
6.79737e-05
6.79718e-05
9.65599e-05
6.81438e-05
6.81416e-05
8.34015e-05
4.96997e-05
8.30693e-05
4.97085e-05
2.35452e-05
2.35455e-05
8.34043e-05
4.96978e-05
8.30613e-05
4.96998e-05
0.000113451
0.000113448
0.000113453
0.000112124
0.000112122
0.000112118
0.000112123
9.63095e-05
8.16833e-05
0.00010158
9.71915e-05
9.54963e-05
8.20673e-05
0.000101595
2.35444e-05
2.35447e-05
9.63376e-05
0.000101576
8.17052e-05
9.71986e-05
9.5483e-05
0.000101604
8.20523e-05
6.84502e-05
6.84482e-05
9.89906e-05
6.86118e-05
6.86104e-05
8.41345e-05
4.97121e-05
8.38177e-05
4.97213e-05
2.35436e-05
2.35443e-05
8.41351e-05
4.97101e-05
8.381e-05
4.97126e-05
0.000111722
0.000111719
0.000111725
0.000110665
0.000110662
0.00011066
0.000110665
9.84318e-05
8.27232e-05
0.00010185
9.91808e-05
9.76114e-05
8.31083e-05
0.000101965
2.35428e-05
2.35434e-05
9.84566e-05
0.00010185
8.27412e-05
9.91893e-05
9.75994e-05
0.000101976
8.30879e-05
6.89047e-05
6.89031e-05
0.000101562
6.906e-05
6.90584e-05
8.4832e-05
4.97256e-05
8.45313e-05
4.97353e-05
2.3543e-05
2.3544e-05
8.48333e-05
4.97237e-05
8.45235e-05
4.97267e-05
0.000110355
0.000110352
0.000110358
0.000109572
0.000109569
0.000109567
0.000109573
0.000100477
8.37269e-05
0.000102513
0.000101408
9.9645e-05
8.40838e-05
0.000102722
2.35421e-05
2.35431e-05
0.000100496
0.000102514
8.37474e-05
0.000101415
9.96395e-05
0.000102733
8.40821e-05
6.93405e-05
6.93386e-05
0.000104166
6.94897e-05
6.94882e-05
8.55034e-05
4.97405e-05
8.52121e-05
4.97507e-05
2.35433e-05
2.35447e-05
8.55041e-05
4.97386e-05
8.52057e-05
4.97421e-05
0.000109353
0.000109352
0.000109358
0.000108847
0.000108843
0.000108841
0.000108849
0.000102449
8.46914e-05
0.00010354
0.000103841
0.000101618
8.50474e-05
0.000103836
2.35425e-05
2.35439e-05
0.000102466
0.00010354
8.46969e-05
0.000103847
0.000101613
0.000103847
8.50485e-05
6.9759e-05
6.97552e-05
0.000106813
6.99029e-05
6.99026e-05
8.61499e-05
4.97567e-05
8.58697e-05
4.97676e-05
2.35447e-05
2.35464e-05
8.61506e-05
4.97548e-05
8.5862e-05
4.9759e-05
0.000108719
0.000108718
0.000108725
0.000108487
0.000108483
0.000108482
0.00010849
0.000104353
8.56202e-05
0.000104905
0.000106451
0.000103531
8.59629e-05
0.000105283
2.35438e-05
2.35456e-05
0.000104373
0.000104906
8.56165e-05
0.000106455
0.000103525
0.000105293
8.59667e-05
7.01615e-05
7.01564e-05
0.000109528
7.03014e-05
7.03012e-05
8.67771e-05
4.97745e-05
8.65052e-05
4.97858e-05
2.3547e-05
2.35491e-05
8.67789e-05
4.97724e-05
8.64967e-05
4.97786e-05
0.000108449
0.000108448
0.000108457
0.000108486
0.000108482
0.000108481
0.00010849
0.000106205
8.65036e-05
0.000106581
0.000109206
0.000105384
8.68456e-05
0.000107035
2.35461e-05
2.35482e-05
0.000106221
0.000106582
8.65085e-05
0.00010921
0.000105381
0.000107044
8.68431e-05
7.05487e-05
7.05432e-05
0.000112151
7.06861e-05
7.06852e-05
8.73906e-05
4.97937e-05
8.71211e-05
4.98056e-05
2.35502e-05
2.35526e-05
8.73907e-05
4.97883e-05
8.71126e-05
4.98002e-05
0.000108537
0.000108536
0.000108546
0.000108835
0.000108831
0.00010883
0.00010884
0.000108005
8.73574e-05
0.000108541
0.00011208
0.000107187
8.76954e-05
0.000109063
2.35493e-05
2.35517e-05
0.000108016
0.000108543
8.73682e-05
0.000112084
0.000107187
0.000109071
8.77003e-05
7.09225e-05
7.09164e-05
0.000114851
7.1057e-05
7.10556e-05
8.79866e-05
4.98143e-05
8.7722e-05
4.98268e-05
2.35542e-05
2.35569e-05
8.79887e-05
4.98089e-05
8.7714e-05
4.98214e-05
0.000108971
0.000108971
0.000108981
0.000109521
0.000109518
0.000109518
0.000109528
0.000109752
8.81812e-05
0.000110758
0.00011505
0.000108946
8.85145e-05
0.000111341
2.35534e-05
2.35561e-05
0.000109761
0.000110761
8.81857e-05
0.000115054
0.000108945
0.000111349
8.85166e-05
7.12834e-05
7.12768e-05
0.000117525
7.14149e-05
7.14131e-05
8.85674e-05
4.98361e-05
8.83163e-05
4.98489e-05
2.35592e-05
2.35624e-05
8.85738e-05
4.98309e-05
8.83043e-05
4.98439e-05
0.00010974
0.00010974
0.000109751
0.000110531
0.000110528
0.000110528
0.000110539
0.00011145
8.89721e-05
0.000113203
0.000118097
0.000110657
8.93064e-05
0.000113839
2.35583e-05
2.35613e-05
0.000111456
0.000113204
8.89777e-05
0.0001181
0.000110661
0.000113846
8.93133e-05
7.16318e-05
7.16249e-05
0.00012024
7.17602e-05
7.17586e-05
8.9141e-05
4.98594e-05
8.88897e-05
4.98728e-05
2.3565e-05
2.35682e-05
8.9147e-05
4.98542e-05
8.88809e-05
4.98677e-05
0.000110829
0.00011083
0.000110841
0.000111849
0.000111845
0.000111848
0.000111859
0.000113099
8.97456e-05
0.000115847
0.000121205
0.000112329
9.00693e-05
0.00011653
2.35639e-05
2.35672e-05
0.000113108
0.00011585
8.97483e-05
0.000121211
0.000112333
0.000116538
9.00772e-05
7.19683e-05
7.19613e-05
0.000122886
7.20938e-05
7.20927e-05
8.97021e-05
4.9884e-05
8.94573e-05
4.98979e-05
2.35713e-05
2.35748e-05
8.97098e-05
4.98788e-05
8.94469e-05
4.98928e-05
0.000112221
0.000112223
0.000112235
0.000113457
0.000113453
0.000113457
0.000113469
0.000114705
9.04909e-05
0.000118669
0.000124357
0.000113956
9.08085e-05
0.000119395
2.35703e-05
2.35737e-05
0.000114712
0.000118673
9.04915e-05
0.000124365
0.000113958
0.000119405
9.08154e-05
7.22936e-05
7.22873e-05
0.000125484
7.24164e-05
7.24137e-05
9.02523e-05
4.9913e-05
9.00099e-05
4.99212e-05
2.35782e-05
2.35819e-05
9.02584e-05
4.99046e-05
8.99977e-05
4.99189e-05
0.000113898
0.000113903
0.000113915
0.000115337
0.000115332
0.000115338
0.00011535
0.000116265
9.12097e-05
0.000121659
0.000127534
0.000115533
9.15209e-05
0.000122425
2.35773e-05
2.3581e-05
0.000116271
0.000121665
9.1212e-05
0.000127544
0.00011554
0.000122436
9.15284e-05
7.26084e-05
7.26027e-05
0.000128105
7.27285e-05
7.27227e-05
9.07901e-05
4.99395e-05
9.05509e-05
4.99482e-05
2.35858e-05
2.35897e-05
9.07955e-05
4.99314e-05
9.05392e-05
4.99461e-05
0.000115842
0.000115848
0.000115861
0.000117468
0.000117463
0.00011747
0.000117482
0.000117779
9.19057e-05
0.000124802
0.000130723
0.000117067
9.221e-05
0.000125603
2.35848e-05
2.35888e-05
0.000117781
0.00012481
9.19072e-05
0.000130733
0.000117075
0.000125615
9.22158e-05
7.29124e-05
7.29061e-05
0.000130731
7.3031e-05
7.30267e-05
9.13109e-05
4.9967e-05
9.10809e-05
4.99761e-05
2.35938e-05
2.3598e-05
9.13174e-05
4.99622e-05
9.10699e-05
4.99711e-05
0.000118033
0.00011804
0.000118052
0.000119829
0.000119823
0.000119832
0.000119844
0.000119236
9.25726e-05
0.000128074
0.000133908
0.000118556
9.28706e-05
0.000128902
2.3593e-05
2.35971e-05
0.000119245
0.000128083
9.2581e-05
0.000133918
0.000118561
0.000128916
9.28766e-05
7.32078e-05
7.32006e-05
0.000133224
7.33165e-05
7.33162e-05
9.18195e-05
4.99953e-05
9.15964e-05
5.00058e-05
2.36025e-05
2.36069e-05
9.18205e-05
4.99905e-05
9.15878e-05
4.99996e-05
0.000120447
0.000120456
0.000120467
0.000120647
9.32253e-05
0.000131447
0.000137079
0.000119993
9.35157e-05
0.000132297
2.36016e-05
2.3606e-05
0.000120653
0.000131457
9.32281e-05
0.000137091
0.00012
0.000132312
9.35189e-05
7.34946e-05
7.34858e-05
0.000135742
7.35966e-05
7.35997e-05
2.36183e-05
2.36152e-05
2.36162e-05
2.36131e-05
6.20656e-05
6.20667e-05
8.18613e-05
6.23661e-05
6.23655e-05
2.36096e-05
2.36125e-05
2.36074e-05
2.36103e-05
8.20286e-05
6.27963e-05
6.27948e-05
6.25137e-05
6.25138e-05
7.20226e-05
4.95702e-05
4.95831e-05
7.12178e-05
6.99395e-05
6.76384e-05
0.000122009
9.79467e-05
6.82427e-05
0.000121038
6.89296e-05
6.99217e-05
6.7633e-05
0.000122006
9.79368e-05
6.82345e-05
0.000121036
6.89302e-05
7.21616e-05
4.95982e-05
4.9586e-05
7.29419e-05
7.21708e-05
4.95918e-05
4.95797e-05
7.29256e-05
7.04057e-05
9.73501e-05
6.91354e-05
0.000119171
6.85497e-05
0.000120109
7.14301e-05
7.04188e-05
9.7341e-05
6.9129e-05
0.000119167
6.85463e-05
0.000120106
7.14152e-05
6.20486e-05
6.20541e-05
8.18629e-05
6.23537e-05
6.23758e-05
2.36176e-05
2.36146e-05
2.36073e-05
2.36101e-05
8.20051e-05
6.27861e-05
6.28059e-05
6.2501e-05
6.2495e-05
2.36089e-05
2.36118e-05
6.99455e-05
6.76481e-05
0.000122009
9.79678e-05
6.82265e-05
0.000121038
6.89118e-05
7.20322e-05
4.95669e-05
4.95799e-05
7.12044e-05
6.99329e-05
0.000121993
6.76162e-05
9.79355e-05
0.000121023
6.82548e-05
6.89167e-05
7.21587e-05
4.95926e-05
4.95806e-05
7.29425e-05
7.03979e-05
9.73712e-05
6.9125e-05
0.00011917
6.85601e-05
0.000120109
7.1442e-05
7.21587e-05
4.95887e-05
4.95765e-05
7.2939e-05
7.04021e-05
9.73402e-05
0.000119155
6.9149e-05
0.000120093
6.8526e-05
7.1428e-05
7.20093e-05
4.95718e-05
4.95851e-05
7.12163e-05
6.99466e-05
0.000122012
6.76317e-05
9.79501e-05
0.000121041
6.82353e-05
6.89125e-05
7.20131e-05
4.95677e-05
4.95807e-05
7.12182e-05
7.03936e-05
9.7375e-05
6.91624e-05
0.000119172
6.85167e-05
0.000120125
7.1423e-05
7.21654e-05
4.95938e-05
4.95813e-05
7.29148e-05
7.03908e-05
9.73534e-05
0.000119173
6.91329e-05
0.000120113
6.85424e-05
7.14315e-05
7.21723e-05
4.95895e-05
4.95772e-05
7.29147e-05
6.20423e-05
6.2046e-05
8.18672e-05
6.23691e-05
6.23719e-05
2.36173e-05
2.36143e-05
2.36065e-05
2.36093e-05
8.19972e-05
6.2791e-05
6.27988e-05
6.2488e-05
6.2503e-05
2.36087e-05
2.36115e-05
6.99233e-05
0.000122006
6.76151e-05
9.79603e-05
0.000121041
6.82564e-05
6.89291e-05
7.2015e-05
4.95719e-05
4.95849e-05
7.122e-05
7.20125e-05
4.95663e-05
4.95791e-05
7.12177e-05
7.04115e-05
9.73757e-05
0.000119171
6.91338e-05
0.000120106
6.85503e-05
7.1427e-05
7.04087e-05
9.73637e-05
0.000119173
6.91523e-05
0.000120107
6.85278e-05
7.14226e-05
7.21689e-05
4.95936e-05
4.95814e-05
7.292e-05
7.21668e-05
4.95879e-05
4.95759e-05
7.29176e-05
2.36159e-05
2.36128e-05
2.36148e-05
2.36118e-05
8.18195e-05
6.27885e-05
6.27908e-05
6.25067e-05
6.24895e-05
2.36072e-05
2.36101e-05
2.36061e-05
2.3609e-05
2.36069e-05
2.36041e-05
2.36047e-05
2.3602e-05
6.29346e-05
6.29343e-05
8.20612e-05
6.32134e-05
6.32097e-05
2.3599e-05
2.36015e-05
2.35968e-05
2.35994e-05
8.23566e-05
6.36132e-05
6.361e-05
6.33447e-05
6.33449e-05
7.37706e-05
4.95888e-05
7.30607e-05
4.96003e-05
7.29299e-05
6.94401e-05
0.000118278
9.57437e-05
7.19003e-05
7.00057e-05
0.000117373
7.29126e-05
6.94359e-05
0.000118274
9.5736e-05
7.19101e-05
7.00011e-05
0.000117369
7.38837e-05
4.96143e-05
4.96032e-05
7.45647e-05
7.38933e-05
4.9608e-05
4.9597e-05
7.45614e-05
7.33978e-05
9.52763e-05
7.08536e-05
0.000115651
7.03023e-05
0.00011652
7.44127e-05
7.34059e-05
9.52689e-05
7.08453e-05
0.000115647
7.02957e-05
0.000116516
7.44059e-05
6.29251e-05
6.29229e-05
8.20079e-05
6.32033e-05
6.32204e-05
2.36062e-05
2.36035e-05
2.35967e-05
2.35992e-05
8.23187e-05
6.36001e-05
6.36148e-05
6.33354e-05
6.33343e-05
2.35983e-05
2.36009e-05
7.29426e-05
6.94439e-05
0.000118278
9.5764e-05
7.18903e-05
6.9995e-05
0.000117373
7.3783e-05
4.95855e-05
7.30474e-05
4.95972e-05
7.29308e-05
0.000118262
6.94143e-05
9.57336e-05
7.18973e-05
0.000117358
7.00218e-05
7.3881e-05
4.96087e-05
4.95977e-05
7.45783e-05
7.33877e-05
9.52965e-05
7.08453e-05
0.000115651
7.0306e-05
0.000116521
7.44275e-05
7.38801e-05
4.96048e-05
4.95937e-05
7.45747e-05
7.33901e-05
9.52669e-05
0.000115637
7.08647e-05
0.000116505
7.02751e-05
7.44232e-05
7.37605e-05
4.95904e-05
7.30533e-05
4.96023e-05
7.29285e-05
0.000118283
6.94291e-05
9.57497e-05
7.18856e-05
0.000117376
7.00001e-05
7.37599e-05
4.95864e-05
7.30627e-05
4.9598e-05
7.33832e-05
9.5301e-05
7.08753e-05
0.000115653
7.02723e-05
0.000116537
7.43969e-05
7.38842e-05
4.96097e-05
4.95986e-05
7.45375e-05
7.33873e-05
9.52814e-05
0.000115655
7.08427e-05
0.000116525
7.0292e-05
7.44201e-05
7.38949e-05
4.96057e-05
4.95945e-05
7.4551e-05
6.29212e-05
6.29277e-05
8.20623e-05
6.32174e-05
6.32133e-05
2.36059e-05
2.36032e-05
2.35959e-05
2.35984e-05
8.23601e-05
6.36094e-05
6.36116e-05
6.33272e-05
6.33401e-05
2.3598e-05
2.36006e-05
7.29198e-05
0.000118276
6.94153e-05
9.57585e-05
7.18989e-05
0.000117376
7.00215e-05
7.37647e-05
4.95906e-05
7.30566e-05
4.96021e-05
7.37628e-05
4.95848e-05
7.30543e-05
4.95963e-05
7.34068e-05
9.53013e-05
0.000115654
7.08532e-05
0.000116519
7.03015e-05
7.43995e-05
7.33959e-05
9.52907e-05
0.000115655
7.08641e-05
0.000116519
7.02761e-05
7.44149e-05
7.38882e-05
4.96098e-05
4.95987e-05
7.45562e-05
7.38855e-05
4.96041e-05
4.95931e-05
7.45546e-05
2.36045e-05
2.36017e-05
2.36034e-05
2.36007e-05
8.20922e-05
6.36032e-05
6.36033e-05
6.33425e-05
6.33279e-05
2.35966e-05
2.35992e-05
2.35955e-05
2.35981e-05
2.35965e-05
2.3594e-05
2.35943e-05
2.35918e-05
6.37396e-05
6.37298e-05
8.27303e-05
6.39948e-05
6.39959e-05
2.35894e-05
2.35916e-05
2.35872e-05
2.35894e-05
8.30803e-05
6.4363e-05
6.43599e-05
6.41165e-05
6.41165e-05
7.53053e-05
4.96048e-05
7.46732e-05
4.96153e-05
7.59034e-05
7.11345e-05
0.000114842
9.40602e-05
7.48908e-05
7.16723e-05
0.000114039
7.58919e-05
7.113e-05
0.000114839
9.40535e-05
7.48954e-05
7.16668e-05
0.000114035
7.54071e-05
4.96279e-05
4.96181e-05
7.6007e-05
7.54055e-05
4.96211e-05
4.96121e-05
7.60052e-05
7.63696e-05
9.37219e-05
7.24667e-05
0.000112466
7.19476e-05
0.000113236
7.73727e-05
7.63723e-05
9.37144e-05
7.24635e-05
0.000112463
7.19415e-05
0.000113232
7.73656e-05
6.37276e-05
6.3727e-05
8.27093e-05
6.39859e-05
6.39952e-05
2.35958e-05
2.35934e-05
2.35871e-05
2.35893e-05
8.31118e-05
6.43553e-05
6.43584e-05
6.41056e-05
6.41087e-05
2.35887e-05
2.35909e-05
7.59065e-05
7.11357e-05
0.000114843
9.40796e-05
7.48826e-05
7.1659e-05
0.00011404
7.53175e-05
4.96015e-05
7.46584e-05
4.96122e-05
7.58965e-05
0.000114827
7.11091e-05
9.4051e-05
7.48789e-05
0.000114026
7.16877e-05
7.5393e-05
4.96221e-05
4.96126e-05
7.60213e-05
7.63646e-05
9.3741e-05
7.24571e-05
0.000112468
7.195e-05
0.000113237
7.73695e-05
7.53911e-05
4.96185e-05
4.96087e-05
7.60171e-05
7.63641e-05
9.37141e-05
0.000112455
7.24786e-05
0.000113222
7.1921e-05
7.73704e-05
7.52794e-05
4.96064e-05
7.46739e-05
4.96171e-05
7.59029e-05
0.000114848
7.11289e-05
9.40684e-05
7.4878e-05
0.000114044
7.16657e-05
7.52955e-05
4.96025e-05
7.46742e-05
4.96131e-05
7.63713e-05
9.37444e-05
7.24962e-05
0.000112471
7.19181e-05
0.000113252
7.73282e-05
7.54072e-05
4.96232e-05
4.96136e-05
7.59804e-05
7.63572e-05
9.37299e-05
0.000112473
7.24577e-05
0.000113241
7.19407e-05
7.73725e-05
7.54063e-05
4.96187e-05
4.96096e-05
7.59959e-05
6.37227e-05
6.37333e-05
8.2727e-05
6.39945e-05
6.40025e-05
2.35955e-05
2.35931e-05
2.35863e-05
2.35886e-05
8.31132e-05
6.43572e-05
6.43675e-05
6.41017e-05
6.41092e-05
2.35885e-05
2.35907e-05
7.58939e-05
0.000114842
7.11127e-05
9.40771e-05
7.4886e-05
0.000114043
7.16886e-05
7.52998e-05
4.96066e-05
7.4666e-05
4.96172e-05
7.52978e-05
4.96009e-05
7.46632e-05
4.96114e-05
7.63734e-05
9.37471e-05
0.000112474
7.24683e-05
0.000113237
7.19466e-05
7.73488e-05
7.63668e-05
9.37387e-05
0.000112473
7.24795e-05
0.000113236
7.19233e-05
7.73589e-05
7.53973e-05
4.96234e-05
4.96137e-05
7.60003e-05
7.53946e-05
4.96178e-05
4.96082e-05
7.59984e-05
2.35941e-05
2.35917e-05
2.3593e-05
2.35906e-05
8.28632e-05
6.43558e-05
6.43539e-05
6.41088e-05
6.41013e-05
2.3587e-05
2.35893e-05
2.35859e-05
2.35882e-05
2.3587e-05
2.35849e-05
2.35848e-05
2.35827e-05
6.44781e-05
6.44746e-05
8.38203e-05
6.4718e-05
6.4714e-05
2.35807e-05
2.35827e-05
2.35785e-05
2.35805e-05
8.43091e-05
6.50585e-05
6.50534e-05
6.48286e-05
6.48249e-05
7.66656e-05
4.96205e-05
7.60954e-05
4.96279e-05
7.88195e-05
7.27352e-05
0.000111726
9.28923e-05
7.78322e-05
7.32395e-05
0.000111003
7.88154e-05
7.27268e-05
0.000111722
9.2885e-05
7.78302e-05
7.32363e-05
0.000110999
7.67496e-05
4.96397e-05
4.96313e-05
7.72937e-05
7.67468e-05
4.96335e-05
4.96251e-05
7.7291e-05
7.92725e-05
9.2682e-05
7.39869e-05
0.000109632
7.35016e-05
0.000110308
8.02456e-05
7.92704e-05
9.2673e-05
7.39844e-05
0.000109629
7.34928e-05
0.000110305
8.02399e-05
6.44704e-05
6.44692e-05
8.38152e-05
6.47097e-05
6.47153e-05
2.35863e-05
2.35842e-05
2.35784e-05
2.35804e-05
8.42758e-05
6.50495e-05
6.50529e-05
6.48192e-05
6.48164e-05
2.358e-05
2.35819e-05
7.88216e-05
7.27357e-05
0.000111727
9.29105e-05
7.78241e-05
7.32316e-05
0.000111005
7.66768e-05
4.96159e-05
7.60805e-05
4.96242e-05
7.88144e-05
0.000111713
7.27096e-05
9.28836e-05
7.78243e-05
0.000110992
7.32526e-05
7.67347e-05
4.96339e-05
4.96258e-05
7.73072e-05
7.92649e-05
9.26996e-05
7.39798e-05
0.000109636
7.35013e-05
0.000110311
8.02516e-05
7.67323e-05
4.96296e-05
4.96224e-05
7.73022e-05
7.92628e-05
9.26738e-05
0.000109623
7.40002e-05
0.000110297
7.34749e-05
8.02424e-05
7.6642e-05
4.96205e-05
7.60964e-05
4.96297e-05
7.88191e-05
0.000111733
7.27305e-05
9.2903e-05
7.78162e-05
0.00011101
7.3232e-05
7.66571e-05
4.96162e-05
7.60958e-05
4.96258e-05
7.92825e-05
9.27012e-05
7.40136e-05
0.000109637
7.34673e-05
0.000110324
8.02028e-05
7.67462e-05
4.9635e-05
4.96269e-05
7.72689e-05
7.9261e-05
9.26908e-05
0.000109641
7.39811e-05
0.000110316
7.3495e-05
8.02444e-05
7.67467e-05
4.96311e-05
4.96228e-05
7.72834e-05
6.44655e-05
6.44732e-05
8.38394e-05
6.47144e-05
6.47168e-05
2.35862e-05
2.3584e-05
2.35777e-05
2.35796e-05
8.43057e-05
6.50529e-05
6.50603e-05
6.48148e-05
6.48245e-05
2.35798e-05
2.35818e-05
7.88041e-05
0.000111727
7.2711e-05
9.29112e-05
7.78317e-05
0.000111011
7.3254e-05
7.66612e-05
4.96209e-05
7.60857e-05
4.96297e-05
7.6659e-05
4.96152e-05
7.6083e-05
4.9624e-05
7.92742e-05
9.27051e-05
0.000109643
7.39854e-05
0.000110311
7.34995e-05
8.02346e-05
7.92731e-05
9.26989e-05
0.000109641
7.40033e-05
0.000110311
7.34747e-05
8.02356e-05
7.67362e-05
4.96352e-05
4.96269e-05
7.72884e-05
7.67335e-05
4.96294e-05
4.96216e-05
7.72862e-05
2.35847e-05
2.35826e-05
2.35836e-05
2.35815e-05
8.39785e-05
6.50516e-05
6.50541e-05
6.48179e-05
6.48138e-05
2.35784e-05
2.35803e-05
2.35773e-05
2.35792e-05
2.35785e-05
2.35768e-05
2.35763e-05
2.35745e-05
6.51634e-05
6.51597e-05
8.53139e-05
6.53876e-05
6.53822e-05
2.3573e-05
2.35746e-05
2.35708e-05
2.35724e-05
8.58626e-05
6.5705e-05
6.56986e-05
6.5488e-05
6.54845e-05