/*--------------------------------*- C++ -*----------------------------------*\
| =========                 |                                                 |
| \\      /  F ield         | OpenFOAM: The Open Source CFD Toolbox           |
|  \\    /   O peration     | Version:  2312                                  |
|   \\  /    A nd           | Website:  www.openfoam.com                      |
|    \\/     M anipulation  |                                                 |
\*---------------------------------------------------------------------------*/
FoamFile
{
    version     2.0;
    format      ascii;
    arch        "LSB;label=32;scalar=64";
    class       volVectorField;
    location    "900";
    object      U;
}
// * * * * * * * * * * * * * * * * * * * * * * * * * * * * * * * * * * * * * //

dimensions      [0 1 -1 0 0 0 0];

internalField   nonuniform List<vector> 
42840
(
(5.9821e-05 5.97638e-05 0.109207)
(-8.96204e-05 5.58125e-05 0.108145)
(5.57876e-05 -8.96788e-05 0.108144)
(-0.000142273 -0.000142285 0.106657)
(5.8553e-05 5.85184e-05 0.109495)
(-8.73823e-05 5.45739e-05 0.108304)
(5.45462e-05 -8.7404e-05 0.108303)
(-0.000138006 -0.000137982 0.106656)
(5.72986e-05 5.72882e-05 0.109774)
(-8.50102e-05 5.33085e-05 0.108444)
(5.3272e-05 -8.50122e-05 0.108444)
(-0.000133366 -0.000133333 0.106632)
(5.59853e-05 5.59885e-05 0.110044)
(-8.24777e-05 5.19877e-05 0.108566)
(5.19427e-05 -8.24644e-05 0.108565)
(-0.000128493 -0.00012846 0.106589)
(5.46251e-05 5.46315e-05 0.110303)
(-7.98092e-05 5.05774e-05 0.108669)
(5.05141e-05 -7.97969e-05 0.108669)
(-0.000123422 -0.000123419 0.106528)
(5.32157e-05 5.32208e-05 0.110553)
(-7.69701e-05 4.90269e-05 0.108754)
(4.89763e-05 -7.69648e-05 0.108754)
(-0.000118221 -0.000118217 0.106453)
(5.17828e-05 5.17842e-05 0.110792)
(-7.39986e-05 4.73239e-05 0.108822)
(4.72666e-05 -7.39993e-05 0.108821)
(-0.000112891 -0.000112899 0.106368)
(5.03384e-05 5.03284e-05 0.111021)
(-7.09072e-05 4.55249e-05 0.108872)
(4.54573e-05 -7.09064e-05 0.108872)
(-0.000107602 -0.000107608 0.106274)
(4.88667e-05 4.88502e-05 0.111239)
(-6.77127e-05 4.35976e-05 0.108908)
(4.35526e-05 -6.77278e-05 0.108907)
(-0.000102394 -0.000102418 0.106175)
(4.73863e-05 4.73596e-05 0.111445)
(-6.44589e-05 4.15764e-05 0.108928)
(4.15501e-05 -6.44688e-05 0.108927)
(-9.72814e-05 -9.73061e-05 0.106072)
(4.59085e-05 4.58768e-05 0.11164)
(-6.11768e-05 3.9496e-05 0.108935)
(3.94754e-05 -6.11692e-05 0.108934)
(-9.23834e-05 -9.23977e-05 0.105969)
(4.44334e-05 4.43982e-05 0.111823)
(-5.78773e-05 3.73413e-05 0.10893)
(3.73306e-05 -5.78688e-05 0.10893)
(-8.76734e-05 -8.76753e-05 0.105865)
(4.29609e-05 4.29358e-05 0.111993)
(-5.45915e-05 3.51144e-05 0.108915)
(3.51079e-05 -5.45782e-05 0.108914)
(-8.31626e-05 -8.31488e-05 0.105763)
(4.15104e-05 4.14805e-05 0.112152)
(-5.13372e-05 3.28719e-05 0.10889)
(3.28555e-05 -5.13098e-05 0.108889)
(-7.89111e-05 -7.88735e-05 0.105662)
(4.00396e-05 4.00256e-05 0.112299)
(-4.81138e-05 3.06247e-05 0.108857)
(3.05969e-05 -4.80833e-05 0.108856)
(-7.48508e-05 -7.48082e-05 0.105565)
(3.85623e-05 3.85647e-05 0.112433)
(-4.49306e-05 2.83879e-05 0.108817)
(2.835e-05 -4.49051e-05 0.108816)
(-7.10671e-05 -7.10169e-05 0.105471)
(3.70689e-05 3.70784e-05 0.112554)
(-4.18088e-05 2.61886e-05 0.108772)
(2.61484e-05 -4.178e-05 0.108771)
(-6.74409e-05 -6.74017e-05 0.10538)
(3.55595e-05 3.55689e-05 0.112664)
(-3.87389e-05 2.40285e-05 0.108722)
(2.39885e-05 -3.87262e-05 0.108721)
(-6.40836e-05 -6.40585e-05 0.105293)
(3.40145e-05 3.40319e-05 0.112761)
(-3.57409e-05 2.19448e-05 0.108669)
(2.18991e-05 -3.57365e-05 0.108668)
(-6.09427e-05 -6.09402e-05 0.105209)
(3.24456e-05 3.24574e-05 0.112847)
(-3.28142e-05 1.99265e-05 0.108613)
(1.9888e-05 -3.28159e-05 0.108612)
(-5.79988e-05 -5.80127e-05 0.10513)
(3.08354e-05 3.08427e-05 0.112922)
(-2.99729e-05 1.79956e-05 0.108556)
(1.79594e-05 -2.99748e-05 0.108555)
(-5.52079e-05 -5.52328e-05 0.105054)
(2.91963e-05 2.91996e-05 0.112985)
(-2.72151e-05 1.61522e-05 0.108498)
(1.6132e-05 -2.72226e-05 0.108497)
(-5.26144e-05 -5.26416e-05 0.104982)
(2.75184e-05 2.75207e-05 0.113038)
(-2.45496e-05 1.44241e-05 0.10844)
(1.44038e-05 -2.45548e-05 0.108439)
(-5.02389e-05 -5.02668e-05 0.104913)
(2.58087e-05 2.58075e-05 0.113081)
(-2.19766e-05 1.27893e-05 0.108382)
(1.27807e-05 -2.19766e-05 0.108381)
(-4.79936e-05 -4.80276e-05 0.104849)
(2.40655e-05 2.40673e-05 0.113115)
(-1.95035e-05 1.12553e-05 0.108325)
(1.12515e-05 -1.95073e-05 0.108324)
(-4.59423e-05 -4.59693e-05 0.104788)
(0.000142301 0.000142248 0.106657)
(4.3443e-06 4.3964e-06 0.106843)
(5.59671e-05 8.97293e-05 0.108144)
(-5.59689e-05 8.97543e-05 0.108144)
(5.50399e-05 8.80385e-05 0.108265)
(-5.50611e-05 8.804e-05 0.108265)
(-0.000142257 0.00014226 0.106657)
(-4.35483e-06 4.40341e-06 0.106843)
(8.97511e-05 5.5822e-05 0.108144)
(8.97512e-05 -5.59224e-05 0.108143)
(8.80318e-05 5.49065e-05 0.108265)
(8.80409e-05 -5.50122e-05 0.108264)
(-8.95186e-05 -5.58788e-05 0.108144)
(-8.79465e-05 5.48937e-05 0.108266)
(-8.78353e-05 -5.4958e-05 0.108265)
(0.000142326 -0.000142303 0.106657)
(4.41491e-06 -4.28068e-06 0.106842)
(-5.57903e-05 -8.97465e-05 0.108144)
(5.48634e-05 -8.79775e-05 0.108265)
(-5.48857e-05 -8.80395e-05 0.108265)
(-4.42258e-06 -4.32284e-06 0.106842)
(0.000138 0.000137978 0.106656)
(1.77436e-06 1.85218e-06 0.106831)
(5.47164e-05 8.74637e-05 0.108303)
(-5.47501e-05 8.74645e-05 0.108303)
(5.37738e-05 8.57103e-05 0.10841)
(-5.38005e-05 8.5683e-05 0.10841)
(-0.000138014 0.000137991 0.106656)
(-1.80134e-06 1.8412e-06 0.106831)
(8.74464e-05 5.45879e-05 0.108303)
(8.74568e-05 -5.46997e-05 0.108302)
(8.56675e-05 5.36617e-05 0.108411)
(8.56624e-05 -5.37716e-05 0.108409)
(-8.72679e-05 -5.46428e-05 0.108303)
(-8.56187e-05 5.3632e-05 0.108411)
(-8.54993e-05 -5.36869e-05 0.10841)
(0.000138006 -0.000138034 0.106656)
(1.88211e-06 -1.74294e-06 0.106831)
(-5.45788e-05 -8.7462e-05 0.108303)
(5.35904e-05 -8.56204e-05 0.10841)
(-5.36331e-05 -8.56667e-05 0.10841)
(-1.87134e-06 -1.76314e-06 0.10683)
(0.000133347 0.000133353 0.106633)
(-6.85242e-07 -6.06685e-07 0.106798)
(5.34592e-05 8.50984e-05 0.108443)
(-5.34839e-05 8.50696e-05 0.108443)
(5.24773e-05 8.32009e-05 0.108536)
(-5.24987e-05 8.31617e-05 0.108536)
(-0.000133367 0.00013334 0.106633)
(6.61098e-07 -6.28062e-07 0.106798)
(8.50493e-05 5.33488e-05 0.108444)
(8.5047e-05 -5.34591e-05 0.108443)
(8.31351e-05 5.23783e-05 0.108537)
(8.31251e-05 -5.24873e-05 0.108536)
(-8.4891e-05 -5.33703e-05 0.108443)
(-8.3118e-05 5.2331e-05 0.108537)
(-8.30048e-05 -5.23836e-05 0.108536)
(0.000133381 -0.000133399 0.106633)
(-6.24834e-07 7.15021e-07 0.106797)
(-5.33199e-05 -8.50553e-05 0.108443)
(5.22816e-05 -8.31083e-05 0.108537)
(-5.23481e-05 -8.31406e-05 0.108536)
(6.0319e-07 7.11707e-07 0.106796)
(0.000128509 0.000128519 0.106589)
(-3.15816e-06 -3.09965e-06 0.106745)
(5.21374e-05 8.25575e-05 0.108565)
(-5.21612e-05 8.25137e-05 0.108564)
(5.10794e-05 8.05725e-05 0.108644)
(-5.10964e-05 8.05217e-05 0.108643)
(-0.000128525 0.000128499 0.106589)
(3.16105e-06 -3.11415e-06 0.106745)
(8.249e-05 5.20379e-05 0.108565)
(8.24668e-05 -5.21513e-05 0.108564)
(8.04949e-05 5.09848e-05 0.108645)
(8.04568e-05 -5.10956e-05 0.108643)
(-8.23658e-05 -5.20459e-05 0.108564)
(-8.049e-05 5.09429e-05 0.108645)
(-8.03838e-05 -5.09908e-05 0.108643)
(0.000128528 -0.000128576 0.106589)
(-3.12935e-06 3.19635e-06 0.106745)
(-5.20131e-05 -8.24866e-05 0.108565)
(5.08766e-05 -8.04757e-05 0.108645)
(-5.09608e-05 -8.04798e-05 0.108644)
(3.11949e-06 3.19047e-06 0.106744)
(0.000123454 0.000123447 0.106529)
(-5.67136e-06 -5.60254e-06 0.106677)
(5.07185e-05 7.98893e-05 0.108668)
(-5.07343e-05 7.98383e-05 0.108667)
(4.95786e-05 7.77782e-05 0.108733)
(-4.95899e-05 7.7721e-05 0.108733)
(-0.000123425 0.000123419 0.106529)
(5.68656e-06 -5.60662e-06 0.106677)
(7.98104e-05 5.06215e-05 0.108669)
(7.97732e-05 -5.07324e-05 0.108667)
(7.76988e-05 4.94732e-05 0.108734)
(7.76495e-05 -4.96031e-05 0.108733)
(-7.97028e-05 -5.06319e-05 0.108667)
(-7.76889e-05 4.94361e-05 0.108734)
(-7.75908e-05 -4.94975e-05 0.108733)
(0.000123424 -0.000123488 0.106529)
(-5.63597e-06 5.69079e-06 0.106676)
(-5.05987e-05 -7.97943e-05 0.108668)
(4.93809e-05 -7.76825e-05 0.108734)
(-4.94506e-05 -7.76763e-05 0.108733)
(5.62962e-06 5.7013e-06 0.106675)
(0.000118233 0.000118222 0.106454)
(-8.23173e-06 -8.18784e-06 0.106596)
(4.91704e-05 7.70545e-05 0.108753)
(-4.91816e-05 7.70004e-05 0.108752)
(4.79089e-05 7.48336e-05 0.108805)
(-4.79057e-05 7.47772e-05 0.108805)
(-0.000118202 0.000118218 0.106454)
(8.26046e-06 -8.19314e-06 0.106596)
(7.69786e-05 4.90612e-05 0.108754)
(7.69218e-05 -4.91973e-05 0.108752)
(7.47673e-05 4.77948e-05 0.108806)
(7.47034e-05 -4.7935e-05 0.108804)
(-7.68719e-05 -4.90957e-05 0.108752)
(-7.47475e-05 4.77585e-05 0.108806)
(-7.46623e-05 -4.78296e-05 0.108804)
(0.000118222 -0.000118307 0.106454)
(-8.21367e-06 8.25762e-06 0.106595)
(-4.90454e-05 -7.69584e-05 0.108753)
(4.77024e-05 -7.47505e-05 0.108806)
(-4.77677e-05 -7.47475e-05 0.108805)
(8.217e-06 8.26769e-06 0.106594)
(0.000112924 0.000112902 0.106368)
(-1.07418e-05 -1.07205e-05 0.106505)
(4.74712e-05 7.40812e-05 0.10882)
(-4.74673e-05 7.4025e-05 0.10882)
(4.61292e-05 7.17697e-05 0.10886)
(-4.61057e-05 7.17161e-05 0.108859)
(-0.000112879 0.000112888 0.106369)
(1.07611e-05 -1.06975e-05 0.106505)
(7.40148e-05 4.73519e-05 0.108821)
(7.39487e-05 -4.74975e-05 0.10882)
(7.17099e-05 4.60071e-05 0.108861)
(7.1645e-05 -4.614e-05 0.108859)
(-7.39093e-05 -4.73955e-05 0.10882)
(-7.16832e-05 4.59797e-05 0.108861)
(-7.15979e-05 -4.60517e-05 0.108859)
(0.000112903 -0.000112981 0.106368)
(-1.07327e-05 1.07852e-05 0.106504)
(-4.73338e-05 -7.39957e-05 0.10882)
(4.59176e-05 -7.16846e-05 0.108861)
(-4.59922e-05 -7.16801e-05 0.10886)
(1.07337e-05 1.07826e-05 0.106503)
(0.000107624 0.000107587 0.106275)
(-1.32077e-05 -1.31982e-05 0.106407)
(4.56704e-05 7.09874e-05 0.108871)
(-4.56493e-05 7.09345e-05 0.10887)
(4.42413e-05 6.86056e-05 0.108899)
(-4.42173e-05 6.85536e-05 0.108898)
(-0.000107618 0.000107623 0.106275)
(1.32408e-05 -1.31859e-05 0.106407)
(7.09315e-05 4.55426e-05 0.108872)
(7.08651e-05 -4.56783e-05 0.10887)
(6.85553e-05 4.41079e-05 0.1089)
(6.84837e-05 -4.42437e-05 0.108898)
(-7.08189e-05 -4.55849e-05 0.10887)
(-6.85179e-05 4.40907e-05 0.1089)
(-6.84413e-05 -4.41613e-05 0.108898)
(0.000107601 -0.000107664 0.106275)
(-1.32186e-05 1.32495e-05 0.106407)
(-4.55358e-05 -7.09004e-05 0.108871)
(4.40334e-05 -6.85276e-05 0.1089)
(-4.40875e-05 -6.8529e-05 0.108899)
(1.32435e-05 1.32684e-05 0.106406)
(0.000102417 0.000102374 0.106175)
(-1.56358e-05 -1.56483e-05 0.106305)
(4.37506e-05 6.77967e-05 0.108906)
(-4.37255e-05 6.77436e-05 0.108905)
(4.22503e-05 6.53529e-05 0.108923)
(-4.22212e-05 6.53008e-05 0.108922)
(-0.000102387 0.000102385 0.106176)
(1.56942e-05 -1.56512e-05 0.106305)
(6.7751e-05 4.36111e-05 0.108907)
(6.76786e-05 -4.3748e-05 0.108905)
(6.53192e-05 4.21117e-05 0.108924)
(6.52554e-05 -4.22361e-05 0.108922)
(-6.76364e-05 -4.3669e-05 0.108905)
(-6.5269e-05 4.20926e-05 0.108924)
(-6.52023e-05 -4.21727e-05 0.108922)
(0.000102382 -0.000102451 0.106175)
(-1.56348e-05 1.56854e-05 0.106304)
(-4.36011e-05 -6.77321e-05 0.108906)
(4.20571e-05 -6.52871e-05 0.108924)
(-4.20996e-05 -6.52932e-05 0.108923)
(1.56843e-05 1.57042e-05 0.106304)
(9.73466e-05 9.7284e-05 0.106073)
(-1.79906e-05 -1.80023e-05 0.106201)
(4.17427e-05 6.45334e-05 0.108926)
(-4.17097e-05 6.44804e-05 0.108926)
(4.01871e-05 6.20644e-05 0.108933)
(-4.01503e-05 6.20203e-05 0.108932)
(-9.73039e-05 9.72939e-05 0.106073)
(1.8034e-05 -1.80015e-05 0.106201)
(6.45e-05 4.16002e-05 0.108927)
(6.44432e-05 -4.17281e-05 0.108926)
(6.20359e-05 4.00403e-05 0.108934)
(6.1983e-05 -4.01735e-05 0.108932)
(-6.43842e-05 -4.1663e-05 0.108926)
(-6.19965e-05 4.00302e-05 0.108935)
(-6.19219e-05 -4.00955e-05 0.108932)
(9.73176e-05 -9.7368e-05 0.106073)
(-1.80144e-05 1.8077e-05 0.1062)
(-4.15911e-05 -6.44736e-05 0.108926)
(4.0009e-05 -6.19944e-05 0.108934)
(-4.00308e-05 -6.20102e-05 0.108933)
(1.80247e-05 1.80545e-05 0.106199)
(9.24193e-05 9.23597e-05 0.105969)
(-2.02326e-05 -2.02499e-05 0.106095)
(3.96516e-05 6.12438e-05 0.108933)
(-3.96227e-05 6.1193e-05 0.108933)
(3.8043e-05 5.87655e-05 0.108931)
(-3.8012e-05 5.87162e-05 0.10893)
(-9.23848e-05 9.23671e-05 0.105969)
(2.02797e-05 -2.0254e-05 0.106095)
(6.12152e-05 3.95131e-05 0.108934)
(6.11596e-05 -3.96335e-05 0.108933)
(5.8733e-05 3.7891e-05 0.108932)
(5.8695e-05 -3.80172e-05 0.10893)
(-6.10977e-05 -3.95662e-05 0.108933)
(-5.86946e-05 3.78928e-05 0.108933)
(-5.86263e-05 -3.79475e-05 0.10893)
(9.23984e-05 -9.2438e-05 0.105969)
(-2.02662e-05 2.03325e-05 0.106095)
(-3.94972e-05 -6.11817e-05 0.108934)
(3.78727e-05 -5.86926e-05 0.108932)
(-3.78827e-05 -5.87017e-05 0.108931)
(2.02555e-05 2.02898e-05 0.106094)
(8.76857e-05 8.76267e-05 0.105865)
(-2.23622e-05 -2.23581e-05 0.105991)
(3.74922e-05 5.794e-05 0.108928)
(-3.74684e-05 5.78917e-05 0.108928)
(3.5818e-05 5.54721e-05 0.108917)
(-3.58028e-05 5.54193e-05 0.108917)
(-8.76538e-05 8.76308e-05 0.105866)
(2.23587e-05 -2.2344e-05 0.105991)
(5.79098e-05 3.73462e-05 0.10893)
(5.78683e-05 -3.74637e-05 0.108928)
(5.5445e-05 3.56996e-05 0.108919)
(5.54048e-05 -3.58019e-05 0.108917)
(-5.78028e-05 -3.73873e-05 0.108928)
(-5.54002e-05 3.56781e-05 0.108919)
(-5.53397e-05 -3.57289e-05 0.108917)
(8.76873e-05 -8.77152e-05 0.105865)
(-2.23539e-05 2.24197e-05 0.10599)
(-3.73332e-05 -5.78803e-05 0.108929)
(3.56672e-05 -5.53977e-05 0.108919)
(-3.56777e-05 -5.54108e-05 0.108918)
(2.23581e-05 2.24054e-05 0.105989)
(8.31879e-05 8.31532e-05 0.105763)
(-2.43059e-05 -2.42967e-05 0.105887)
(3.52592e-05 5.46517e-05 0.108913)
(-3.52459e-05 5.46002e-05 0.108912)
(3.35766e-05 5.21975e-05 0.108895)
(-3.35626e-05 5.21457e-05 0.108894)
(-8.31656e-05 8.31335e-05 0.105763)
(2.43616e-05 -2.43513e-05 0.105888)
(5.46265e-05 3.5146e-05 0.108914)
(5.45846e-05 -3.52421e-05 0.108912)
(5.21642e-05 3.34578e-05 0.108896)
(5.21263e-05 -3.35491e-05 0.108894)
(-5.45226e-05 -3.51697e-05 0.108912)
(-5.21396e-05 3.344e-05 0.108897)
(-5.208e-05 -3.34745e-05 0.108894)
(8.31757e-05 -8.32057e-05 0.105763)
(-2.4337e-05 2.43878e-05 0.105887)
(-3.51293e-05 -5.4591e-05 0.108913)
(3.34253e-05 -5.21224e-05 0.108896)
(-3.34519e-05 -5.21373e-05 0.108895)
(2.43103e-05 2.43836e-05 0.105886)
(7.89054e-05 7.88771e-05 0.105663)
(-2.615e-05 -2.61237e-05 0.105787)
(3.30124e-05 5.13895e-05 0.108888)
(-3.2997e-05 5.13353e-05 0.108887)
(3.13021e-05 4.89647e-05 0.108863)
(-3.13092e-05 4.89118e-05 0.108863)
(-7.89004e-05 7.88635e-05 0.105663)
(2.61478e-05 -2.61445e-05 0.105787)
(5.13533e-05 3.28941e-05 0.108889)
(5.13164e-05 -3.29844e-05 0.108887)
(4.89338e-05 3.12068e-05 0.108865)
(4.88882e-05 -3.12939e-05 0.108862)
(-5.12702e-05 -3.29067e-05 0.108887)
(-4.89252e-05 3.11858e-05 0.108866)
(-4.88511e-05 -3.12076e-05 0.108863)
(7.89038e-05 -7.89463e-05 0.105663)
(-2.61451e-05 2.61859e-05 0.105786)
(-3.28844e-05 -5.13206e-05 0.108888)
(3.11588e-05 -4.8887e-05 0.108865)
(-3.1203e-05 -4.88883e-05 0.108864)
(2.61277e-05 2.62063e-05 0.105785)
(7.48538e-05 7.48422e-05 0.105565)
(-2.78672e-05 -2.7834e-05 0.105689)
(3.07417e-05 4.81621e-05 0.108855)
(-3.07489e-05 4.81089e-05 0.108854)
(2.90453e-05 4.57655e-05 0.108825)
(-2.90558e-05 4.57171e-05 0.108825)
(-7.48584e-05 7.48176e-05 0.105566)
(2.78479e-05 -2.78432e-05 0.105689)
(4.81311e-05 3.06537e-05 0.108856)
(4.80826e-05 -3.07263e-05 0.108854)
(4.57313e-05 2.89783e-05 0.108827)
(4.56891e-05 -2.90371e-05 0.108824)
(-4.80513e-05 -3.06421e-05 0.108854)
(-4.57371e-05 2.89429e-05 0.108827)
(-4.56622e-05 -2.89495e-05 0.108824)
(7.48482e-05 -7.48974e-05 0.105565)
(-2.78634e-05 2.78922e-05 0.105688)
(-3.06464e-05 -4.8084e-05 0.108855)
(2.89127e-05 -4.56944e-05 0.108827)
(-2.89597e-05 -4.56843e-05 0.108826)
(2.78072e-05 2.78919e-05 0.105687)
(7.10364e-05 7.10325e-05 0.105471)
(-2.94207e-05 -2.93878e-05 0.105594)
(2.84813e-05 4.49746e-05 0.108815)
(-2.84975e-05 4.49277e-05 0.108814)
(2.68159e-05 4.26209e-05 0.108781)
(-2.68265e-05 4.25796e-05 0.108781)
(-7.10609e-05 7.10202e-05 0.105472)
(2.93953e-05 -2.93807e-05 0.105594)
(4.49387e-05 2.84211e-05 0.108816)
(4.48968e-05 -2.84763e-05 0.108814)
(4.25823e-05 2.67607e-05 0.108783)
(4.25475e-05 -2.68132e-05 0.10878)
(-4.48732e-05 -2.8391e-05 0.108814)
(-4.25949e-05 2.673e-05 0.108783)
(-4.2528e-05 -2.67374e-05 0.10878)
(7.10383e-05 -7.10953e-05 0.105471)
(-2.93976e-05 2.94257e-05 0.105593)
(-2.84082e-05 -4.48921e-05 0.108815)
(2.66923e-05 -4.25557e-05 0.108783)
(-2.6749e-05 -4.25374e-05 0.108782)
(2.93863e-05 2.94588e-05 0.105592)
(6.7447e-05 6.7444e-05 0.10538)
(-3.08183e-05 -3.07926e-05 0.105502)
(2.62664e-05 4.18469e-05 0.108769)
(-2.62838e-05 4.18054e-05 0.108769)
(2.46377e-05 3.95355e-05 0.108732)
(-2.46466e-05 3.95007e-05 0.108732)
(-6.74615e-05 6.7426e-05 0.105381)
(3.08491e-05 -3.08243e-05 0.105502)
(4.18029e-05 2.62078e-05 0.108771)
(4.17689e-05 -2.62642e-05 0.108768)
(3.94979e-05 2.45838e-05 0.108734)
(3.94655e-05 -2.46354e-05 0.108731)
(-4.17535e-05 -2.619e-05 0.108769)
(-3.95052e-05 2.45606e-05 0.108735)
(-3.94444e-05 -2.45676e-05 0.108732)
(6.74387e-05 -6.74935e-05 0.10538)
(-3.08468e-05 3.08684e-05 0.105502)
(-2.62011e-05 -4.17612e-05 0.10877)
(2.45179e-05 -3.94811e-05 0.108734)
(-2.45683e-05 -3.94562e-05 0.108733)
(3.08164e-05 3.08734e-05 0.105501)
(6.40847e-05 6.4076e-05 0.105293)
(-3.21421e-05 -3.21257e-05 0.105414)
(2.41043e-05 3.87749e-05 0.10872)
(-2.41153e-05 3.87434e-05 0.108719)
(2.25222e-05 3.65249e-05 0.10868)
(-2.25324e-05 3.64921e-05 0.108679)
(-6.41026e-05 6.40682e-05 0.105293)
(3.21511e-05 -3.21451e-05 0.105415)
(3.87348e-05 2.40463e-05 0.108721)
(3.87082e-05 -2.41067e-05 0.108719)
(3.64806e-05 2.24683e-05 0.108682)
(3.64533e-05 -2.25314e-05 0.108679)
(-3.86837e-05 -2.40383e-05 0.108719)
(-3.64829e-05 2.24541e-05 0.108682)
(-3.64256e-05 -2.24645e-05 0.108679)
(6.40812e-05 -6.41411e-05 0.105293)
(-3.21784e-05 3.21912e-05 0.105414)
(-2.4041e-05 -3.86985e-05 0.10872)
(2.24227e-05 -3.64775e-05 0.108682)
(-2.24576e-05 -3.64465e-05 0.108681)
(3.214e-05 3.21722e-05 0.105413)
(6.0934e-05 6.09358e-05 0.10521)
(-3.33444e-05 -3.33389e-05 0.10533)
(2.19961e-05 3.57845e-05 0.108666)
(-2.20175e-05 3.57611e-05 0.108666)
(2.04897e-05 3.35793e-05 0.108625)
(-2.04933e-05 3.35686e-05 0.108624)
(-6.09504e-05 6.08987e-05 0.10521)
(3.33473e-05 -3.33198e-05 0.105331)
(3.57281e-05 2.19441e-05 0.108668)
(3.57095e-05 -2.20094e-05 0.108665)
(3.35378e-05 2.04349e-05 0.108627)
(3.35142e-05 -2.04867e-05 0.108624)
(-3.56834e-05 -2.19453e-05 0.108666)
(-3.35403e-05 2.0424e-05 0.108627)
(-3.34856e-05 -2.04374e-05 0.108624)
(6.09062e-05 -6.09699e-05 0.10521)
(-3.33453e-05 3.33544e-05 0.10533)
(-2.19311e-05 -3.57057e-05 0.108667)
(2.03827e-05 -3.35398e-05 0.108627)
(-2.04115e-05 -3.35147e-05 0.108626)
(3.33327e-05 3.33449e-05 0.105329)
(5.79825e-05 5.79804e-05 0.10513)
(-3.44127e-05 -3.44143e-05 0.10525)
(1.99925e-05 3.28551e-05 0.108611)
(-1.99963e-05 3.28492e-05 0.10861)
(1.85398e-05 3.07172e-05 0.108568)
(-1.85467e-05 3.07174e-05 0.108568)
(-5.79901e-05 5.79612e-05 0.10513)
(3.44156e-05 -3.43985e-05 0.10525)
(3.28124e-05 1.9935e-05 0.108613)
(3.27905e-05 -1.99874e-05 0.10861)
(3.06763e-05 1.84768e-05 0.10857)
(3.06549e-05 -1.85295e-05 0.108567)
(-3.27638e-05 -1.99402e-05 0.10861)
(-3.06784e-05 1.84735e-05 0.10857)
(-3.06267e-05 -1.84898e-05 0.108567)
(5.79644e-05 -5.80287e-05 0.10513)
(-3.44021e-05 3.44103e-05 0.10525)
(-1.99131e-05 -3.27947e-05 0.108611)
(1.84287e-05 -3.06756e-05 0.10857)
(-1.8452e-05 -3.06557e-05 0.108569)
(3.44184e-05 3.44181e-05 0.105249)
(5.52307e-05 5.5224e-05 0.105054)
(-3.53834e-05 -3.53893e-05 0.105174)
(1.80637e-05 3.0014e-05 0.108554)
(-1.80683e-05 3.00171e-05 0.108553)
(1.66793e-05 2.79386e-05 0.10851)
(-1.66834e-05 2.79456e-05 0.10851)
(-5.52396e-05 5.51999e-05 0.105054)
(3.53868e-05 -3.53794e-05 0.105174)
(2.99736e-05 1.79998e-05 0.108555)
(2.99529e-05 -1.8056e-05 0.108553)
(2.78999e-05 1.66102e-05 0.108512)
(2.78854e-05 -1.66781e-05 0.108509)
(-2.99256e-05 -1.8025e-05 0.108553)
(-2.7901e-05 1.66092e-05 0.108512)
(-2.78493e-05 -1.66441e-05 0.108509)
(5.52038e-05 -5.52691e-05 0.105054)
(-3.53997e-05 3.5404e-05 0.105173)
(-1.79782e-05 -2.99543e-05 0.108554)
(1.6583e-05 -2.79035e-05 0.108512)
(-1.65962e-05 -2.78857e-05 0.108511)
(3.54035e-05 3.53987e-05 0.105172)
(5.26679e-05 5.26619e-05 0.104982)
(-3.62816e-05 -3.62835e-05 0.105101)
(1.62286e-05 2.7256e-05 0.108496)
(-1.62295e-05 2.72609e-05 0.108495)
(1.49213e-05 2.52487e-05 0.108452)
(-1.49208e-05 2.52503e-05 0.108451)
(-5.26729e-05 5.26268e-05 0.104982)
(3.62751e-05 -3.6274e-05 0.105101)
(2.7218e-05 1.61589e-05 0.108497)
(2.72034e-05 -1.62284e-05 0.108495)
(2.52124e-05 1.48557e-05 0.108454)
(2.52011e-05 -1.49156e-05 0.108451)
(-2.71715e-05 -1.61961e-05 0.108495)
(-2.5209e-05 1.48447e-05 0.108454)
(-2.51662e-05 -1.48857e-05 0.108451)
(5.26255e-05 -5.26931e-05 0.104982)
(-3.62861e-05 3.62933e-05 0.1051)
(-1.61425e-05 -2.72075e-05 0.108496)
(1.48288e-05 -2.52133e-05 0.108454)
(-1.48361e-05 -2.5203e-05 0.108453)
(3.62761e-05 3.62676e-05 0.1051)
(5.02631e-05 5.02594e-05 0.104914)
(-3.70413e-05 -3.70441e-05 0.105032)
(1.44936e-05 2.45896e-05 0.108437)
(-1.44968e-05 2.45929e-05 0.108437)
(1.326e-05 2.26577e-05 0.108394)
(-1.32687e-05 2.26559e-05 0.108393)
(-5.02687e-05 5.02186e-05 0.104914)
(3.70722e-05 -3.70686e-05 0.105032)
(2.45543e-05 1.44331e-05 0.108439)
(2.45445e-05 -1.44878e-05 0.108436)
(2.26184e-05 1.32002e-05 0.108396)
(2.26094e-05 -1.32579e-05 0.108393)
(-2.45135e-05 -1.44676e-05 0.108437)
(-2.2613e-05 1.31942e-05 0.108396)
(-2.25757e-05 -1.32409e-05 0.108393)
(5.02407e-05 -5.03028e-05 0.104913)
(-3.70566e-05 3.70667e-05 0.105032)
(-1.44084e-05 -2.45471e-05 0.108438)
(1.31792e-05 -2.26141e-05 0.108395)
(-1.31808e-05 -2.26085e-05 0.108395)
(3.70688e-05 3.70508e-05 0.105031)
(4.80211e-05 4.80192e-05 0.104849)
(-3.77418e-05 -3.77382e-05 0.104967)
(1.28573e-05 2.20237e-05 0.108379)
(-1.28599e-05 2.2018e-05 0.108379)
(1.16955e-05 2.01657e-05 0.108336)
(-1.1701e-05 2.01594e-05 0.108336)
(-4.80311e-05 4.79848e-05 0.104849)
(3.77535e-05 -3.77441e-05 0.104967)
(2.19866e-05 1.28015e-05 0.108381)
(2.1977e-05 -1.28632e-05 0.108378)
(2.0126e-05 1.16471e-05 0.108338)
(2.01222e-05 -1.16967e-05 0.108335)
(-2.194e-05 -1.28364e-05 0.108379)
(-2.01152e-05 1.16335e-05 0.108339)
(-2.00841e-05 -1.16831e-05 0.108336)
(4.80078e-05 -4.80648e-05 0.104849)
(-3.77758e-05 3.77962e-05 0.104966)
(-1.27837e-05 -2.19738e-05 0.10838)
(1.16296e-05 -2.01175e-05 0.108338)
(-1.1622e-05 -2.01159e-05 0.108337)
(3.77706e-05 3.7755e-05 0.104966)
(4.59668e-05 4.59714e-05 0.104788)
(1.13211e-05 1.9555e-05 0.108322)
(-1.13179e-05 1.95499e-05 0.108322)
(-4.59684e-05 4.59295e-05 0.104788)
(1.95166e-05 1.12707e-05 0.108324)
(1.95155e-05 -1.13193e-05 0.108321)
(-1.9474e-05 -1.13005e-05 0.108321)
(4.59486e-05 -4.59943e-05 0.104788)
(-1.1246e-05 -1.95046e-05 0.108323)
(8.77674e-07 6.97564e-06 0.0937515)
(-1.25172e-06 3.06907e-05 0.0833544)
(-3.98611e-06 -6.02784e-06 0.0833637)
(1.56876e-06 5.28577e-05 0.0937679)
(-3.4656e-06 1.42392e-05 0.0720082)
(5.41377e-06 -5.73956e-06 0.072049)
(6.98456e-06 9.69043e-07 0.0937507)
(3.06426e-05 -1.18636e-06 0.0833542)
(-6.08492e-06 -3.90924e-06 0.0833636)
(5.28648e-05 1.6576e-06 0.0937671)
(-5.97973e-05 5.97966e-05 0.109207)
(5.98065e-05 -5.98166e-05 0.109207)
(-5.97758e-05 -5.98296e-05 0.109207)
(5.88669e-05 5.88242e-05 0.109424)
(-5.8874e-05 5.88581e-05 0.109424)
(5.8853e-05 -5.88763e-05 0.109424)
(-5.88463e-05 -5.88803e-05 0.109424)
(-4.27523e-05 2.98258e-06 0.102218)
(-6.06406e-05 2.42293e-05 0.0954238)
(-0.000100168 1.95294e-05 0.108864)
(-8.90626e-05 5.55124e-05 0.108186)
(-1.79497e-05 -1.48688e-06 0.0954474)
(-9.97722e-05 1.93999e-05 0.108926)
(-0.000103762 4.81936e-06 0.102196)
(1.42197e-05 -3.5035e-06 0.0720085)
(-5.7047e-06 5.43031e-06 0.0720484)
(2.91534e-06 -4.27674e-05 0.102216)
(1.95744e-05 -0.000100234 0.108863)
(2.42835e-05 -6.06613e-05 0.0954246)
(5.54842e-05 -8.91134e-05 0.108186)
(1.94336e-05 -9.98422e-05 0.108926)
(-1.42567e-06 -1.78788e-05 0.0954452)
(4.87239e-06 -0.00010385 0.102195)
(-2.98455e-05 -1.62668e-05 0.0891388)
(-1.63337e-05 -2.97893e-05 0.0891381)
(-5.73573e-06 -5.65211e-06 0.106838)
(-8.90722e-06 3.68612e-06 0.0891499)
(3.56615e-06 -8.82946e-06 0.089147)
(6.05301e-07 4.2133e-06 0.0934795)
(-1.13075e-06 2.89223e-05 0.0831549)
(1.29437e-06 4.86784e-05 0.0934883)
(-3.84309e-06 -6.76785e-06 0.0831696)
(-3.46176e-06 1.36569e-05 0.0718716)
(5.19529e-06 -5.73578e-06 0.0719151)
(4.25132e-06 6.8644e-07 0.0934788)
(2.88619e-05 -1.05105e-06 0.0831546)
(4.8681e-05 1.37344e-06 0.0934875)
(-6.81982e-06 -3.75372e-06 0.0831694)
(-5.8566e-05 5.85476e-05 0.109495)
(5.85404e-05 -5.85662e-05 0.109495)
(-5.85371e-05 -5.85672e-05 0.109495)
(5.76141e-05 5.75988e-05 0.109705)
(-5.76304e-05 5.76133e-05 0.109705)
(5.76011e-05 -5.76312e-05 0.109705)
(-5.76013e-05 -5.76257e-05 0.109705)
(-3.66096e-05 2.29996e-06 0.101946)
(-5.68338e-05 2.24539e-05 0.0951546)
(-9.86178e-05 1.90103e-05 0.109108)
(-8.68043e-05 5.42586e-05 0.108341)
(-9.68012e-05 4.05804e-06 0.101925)
(-1.46654e-05 -2.33845e-06 0.0951816)
(-9.82138e-05 1.88791e-05 0.109166)
(1.36255e-05 -3.50966e-06 0.0718719)
(-5.72254e-06 5.20735e-06 0.0719146)
(2.22908e-06 -3.6664e-05 0.101944)
(1.90316e-05 -9.86649e-05 0.109107)
(2.24851e-05 -5.68734e-05 0.0951554)
(5.42248e-05 -8.68172e-05 0.10834)
(4.12025e-06 -9.68595e-05 0.101924)
(1.88955e-05 -9.82549e-05 0.109166)
(-2.28509e-06 -1.4647e-05 0.0951795)
(-2.79279e-05 -1.53589e-05 0.0889098)
(-1.54367e-05 -2.7859e-05 0.0889091)
(-3.13279e-06 -3.02668e-06 0.106839)
(-7.16348e-06 4.03823e-06 0.088926)
(3.94066e-06 -7.09241e-06 0.0889231)
(3.80992e-07 2.22249e-06 0.0932337)
(-1.04234e-06 2.74927e-05 0.0829747)
(1.04777e-06 4.52483e-05 0.0932359)
(-3.77283e-06 -7.22793e-06 0.0829941)
(-3.48107e-06 1.32023e-05 0.0717476)
(4.99419e-06 -5.71525e-06 0.0717935)
(2.23963e-06 4.3368e-07 0.0932331)
(2.74379e-05 -9.64597e-07 0.0829744)
(4.52694e-05 1.10428e-06 0.0932352)
(-7.26917e-06 -3.69773e-06 0.0829939)
(-5.73154e-05 5.7295e-05 0.109774)
(5.72837e-05 -5.73167e-05 0.109774)
(-5.72905e-05 -5.73119e-05 0.109774)
(5.63166e-05 5.63163e-05 0.109977)
(-5.63399e-05 5.6318e-05 0.109977)
(5.62916e-05 -5.63346e-05 0.109977)
(-5.63177e-05 -5.63275e-05 0.109977)
(-3.07137e-05 1.89168e-06 0.101679)
(-5.33641e-05 2.08416e-05 0.0949054)
(-9.70356e-05 1.84943e-05 0.109338)
(-8.43809e-05 5.29912e-05 0.108476)
(-9.00258e-05 3.49303e-06 0.101658)
(-1.17763e-05 -3.00199e-06 0.0949357)
(-9.66082e-05 1.83658e-05 0.109393)
(1.31413e-05 -3.54569e-06 0.071748)
(-5.69868e-06 4.99845e-06 0.071793)
(1.80885e-06 -3.07533e-05 0.101677)
(1.85024e-05 -9.70515e-05 0.109338)
(2.08885e-05 -5.34156e-05 0.0949062)
(5.29434e-05 -8.43906e-05 0.108476)
(3.54966e-06 -9.01103e-05 0.101657)
(1.83674e-05 -9.66323e-05 0.109393)
(-2.9975e-06 -1.17495e-05 0.0949337)
(-2.61331e-05 -1.45555e-05 0.0887015)
(-1.46505e-05 -2.60495e-05 0.0887008)
(-6.40563e-07 -5.32017e-07 0.106816)
(-5.56635e-06 4.31564e-06 0.0887221)
(4.23936e-06 -5.48907e-06 0.0887193)
(1.62345e-07 6.63539e-07 0.0930111)
(-1.09071e-06 2.62739e-05 0.0828118)
(8.05158e-07 4.24277e-05 0.0930077)
(-3.83032e-06 -7.30574e-06 0.0828353)
(-3.50242e-06 1.27514e-05 0.0716352)
(4.87779e-06 -5.64603e-06 0.071683)
(6.67523e-07 1.90269e-07 0.0930107)
(2.62356e-05 -1.03028e-06 0.0828115)
(4.24449e-05 8.35532e-07 0.0930071)
(-7.33419e-06 -3.77621e-06 0.0828352)
(-5.60116e-05 5.5988e-05 0.110044)
(5.59581e-05 -5.60061e-05 0.110044)
(-5.59871e-05 -5.59949e-05 0.110044)
(5.49692e-05 5.4974e-05 0.110239)
(-5.49879e-05 5.49749e-05 0.110239)
(5.49393e-05 -5.49917e-05 0.110239)
(-5.49684e-05 -5.4983e-05 0.110239)
(-2.54112e-05 1.51916e-06 0.101421)
(-5.03091e-05 1.94382e-05 0.0946754)
(-9.52749e-05 1.79826e-05 0.109554)
(-8.18257e-05 5.16496e-05 0.108593)
(-8.36709e-05 3.04934e-06 0.101398)
(-9.22375e-06 -3.49586e-06 0.0947087)
(-9.47946e-05 1.78504e-05 0.109606)
(1.27036e-05 -3.5653e-06 0.0716355)
(-5.63264e-06 4.87287e-06 0.0716825)
(1.43524e-06 -2.54354e-05 0.101419)
(1.79834e-05 -9.52877e-05 0.109554)
(1.94393e-05 -5.03691e-05 0.0946762)
(5.15911e-05 -8.18127e-05 0.108593)
(3.10325e-06 -8.37471e-05 0.101397)
(1.78507e-05 -9.48147e-05 0.109606)
(-3.50341e-06 -9.20319e-06 0.0947068)
(-2.447e-05 -1.38156e-05 0.0885119)
(-1.38892e-05 -2.44154e-05 0.0885113)
(1.85209e-06 1.93918e-06 0.106772)
(-4.13502e-06 4.44391e-06 0.0885363)
(4.42155e-06 -4.09659e-06 0.0885336)
(-5.59059e-08 -6.27921e-07 0.0928091)
(-1.15841e-06 2.53358e-05 0.0826643)
(5.84439e-07 3.99883e-05 0.0928008)
(-3.87744e-06 -7.20088e-06 0.0826915)
(-3.48101e-06 1.2398e-05 0.0715331)
(4.8242e-06 -5.54403e-06 0.0715826)
(-6.31512e-07 -3.72438e-08 0.0928088)
(2.53143e-05 -1.12054e-06 0.0826641)
(3.99969e-05 5.95753e-07 0.0928003)
(-7.223e-06 -3.84202e-06 0.0826914)
(-5.46418e-05 5.46286e-05 0.110303)
(5.45928e-05 -5.4645e-05 0.110303)
(-5.46245e-05 -5.46385e-05 0.110303)
(5.35702e-05 5.35774e-05 0.110492)
(-5.35819e-05 5.35739e-05 0.110492)
(5.35346e-05 -5.35918e-05 0.110491)
(-5.35661e-05 -5.35865e-05 0.110491)
(-2.06098e-05 1.21334e-06 0.101174)
(-4.75483e-05 1.81828e-05 0.0944633)
(-9.32841e-05 1.74617e-05 0.109756)
(-7.91106e-05 5.02162e-05 0.108692)
(-7.78159e-05 2.65156e-06 0.10115)
(-7.00374e-06 -3.95561e-06 0.0944995)
(-9.27413e-05 1.73288e-05 0.109803)
(1.23369e-05 -3.56504e-06 0.0715335)
(-5.53382e-06 4.81506e-06 0.0715822)
(1.13254e-06 -2.06483e-05 0.101173)
(1.74618e-05 -9.32972e-05 0.109755)
(1.81744e-05 -4.76192e-05 0.0944641)
(5.01359e-05 -7.91008e-05 0.108691)
(2.71969e-06 -7.78948e-05 0.101149)
(1.73339e-05 -9.27625e-05 0.109803)
(-3.95886e-06 -7.00808e-06 0.0944976)
(-2.29715e-05 -1.31693e-05 0.0883392)
(-1.32148e-05 -2.2926e-05 0.0883386)
(4.34347e-06 4.40331e-06 0.106711)
(-2.91825e-06 4.5256e-06 0.088367)
(4.51505e-06 -2.88344e-06 0.0883644)
(-1.82452e-07 -1.71429e-06 0.092625)
(-1.23762e-06 2.45215e-05 0.0825307)
(3.8077e-07 3.78017e-05 0.0926126)
(-3.93987e-06 -7.14608e-06 0.082561)
(-3.45295e-06 1.20412e-05 0.0714405)
(4.72005e-06 -5.50281e-06 0.0714915)
(-1.71166e-06 -1.80347e-07 0.092625)
(2.45031e-05 -1.21212e-06 0.0825306)
(3.78118e-05 3.74208e-07 0.0926123)