/*--------------------------------*- C++ -*----------------------------------*\
| =========                 |                                                 |
| \\      /  F ield         | OpenFOAM: The Open Source CFD Toolbox           |
|  \\    /   O peration     | Version:  2312                                  |
|   \\  /    A nd           | Website:  www.openfoam.com                      |
|    \\/     M anipulation  |                                                 |
\*---------------------------------------------------------------------------*/
FoamFile
{
    version     2.0;
    format      ascii;
    arch        "LSB;label=32;scalar=64";
    class       volScalarField;
    location    "150";
    object      epsilon;
}
// * * * * * * * * * * * * * * * * * * * * * * * * * * * * * * * * * * * * * //

dimensions      [0 2 -3 0 0 0 0];

internalField   nonuniform List<scalar> 
43168
(
1.48072e-07
4.47989e-07
4.46808e-07
7.20345e-07
7.15433e-07
4.47483e-07
4.47496e-07
7.1783e-07
4.46756e-07
4.47114e-07
4.47967e-07
4.47156e-07
7.16745e-07
4.4677e-07
4.4663e-07
7.17911e-07
7.17344e-07
4.47499e-07
4.47435e-07
7.19598e-07
4.46758e-07
4.47187e-07
4.47282e-07
7.19304e-07
4.46743e-07
8.91081e-06
8.90656e-06
1.48062e-07
1.484e-07
1.48064e-07
1.48039e-07
3.94933e-06
8.90948e-06
3.95222e-06
8.90888e-06
1.81151e-05
1.81184e-05
3.95794e-06
8.90623e-06
3.95887e-06
8.90639e-06
1.48391e-07
1.48078e-07
1.48062e-07
1.74318e-06
3.21828e-06
2.46188e-07
4.48018e-07
1.74309e-06
3.21711e-06
2.46176e-07
1.81195e-05
1.81227e-05
1.73915e-06
2.45081e-07
3.21942e-06
4.46974e-07
1.74024e-06
2.45049e-07
3.21873e-06
5.29143e-06
5.29205e-06
7.1784e-07
5.29082e-06
5.29139e-06
1.81182e-05
1.8119e-05
7.17876e-07
5.29115e-06
5.2924e-06
1.81171e-05
1.81152e-05
1.81197e-05
1.81162e-05
7.1803e-07
5.29006e-06
5.29259e-06
5.29183e-06
5.29308e-06
4.47382e-07
3.22052e-06
3.95621e-06
8.91008e-06
8.91038e-06
3.95205e-06
3.95631e-06
8.90599e-06
8.90609e-06
3.95211e-06
1.74699e-06
4.47396e-07
3.21975e-06
2.47852e-07
3.22095e-06
2.47853e-07
1.74342e-06
1.74758e-06
4.47473e-07
3.21938e-06
2.47272e-07
3.22103e-06
2.47273e-07
1.74008e-06
1.81182e-05
1.81151e-05
7.20292e-07
5.29217e-06
5.28981e-06
5.2933e-06
1.81235e-05
4.46829e-07
3.21958e-06
3.95951e-06
8.90655e-06
8.9063e-06
3.95865e-06
1.74444e-06
4.46743e-07
3.21936e-06
2.44826e-07
3.22011e-06
2.4481e-07
1.74435e-06
3.95841e-06
8.9073e-06
8.90678e-06
3.95796e-06
1.74707e-06
4.47102e-07
2.45597e-07
3.22033e-06
2.45556e-07
3.221e-06
1.74702e-06
3.21755e-06
2.46198e-07
1.74238e-06
8.90718e-06
3.9518e-06
2.46098e-07
3.22053e-06
1.74524e-06
8.90685e-06
3.95359e-06
1.81222e-05
1.81188e-05
7.19785e-07
5.29194e-06
5.28935e-06
5.29306e-06
5.29005e-06
1.81167e-05
1.81131e-05
1.74165e-06
4.46791e-07
2.45075e-07
3.21862e-06
2.45074e-07
3.21895e-06
1.73956e-06
1.7427e-06
4.46602e-07
2.45045e-07
3.21889e-06
2.4504e-07
3.2192e-06
1.74203e-06
3.95228e-06
8.90511e-06
8.90452e-06
3.95172e-06
3.95194e-06
8.90376e-06
8.90329e-06
3.9515e-06
7.19831e-07
5.29071e-06
5.2913e-06
5.29223e-06
1.81188e-05
1.81149e-05
1.81117e-05
1.81136e-05
1.81156e-05
1.81169e-05
1.81199e-05
5.29038e-06
5.29333e-06
7.15897e-07
5.28894e-06
5.29239e-06
1.81123e-05
1.81168e-05
7.17985e-07
5.28956e-06
5.29294e-06
3.94951e-06
8.90555e-06
3.95234e-06
8.90556e-06
1.74106e-06
3.21998e-06
2.4784e-07
4.47512e-07
1.74086e-06
3.21832e-06
2.47828e-07
1.73832e-06
3.2198e-06
2.4727e-07
4.47429e-07
1.73916e-06
3.21894e-06
2.47267e-07
3.94936e-06
8.90829e-06
3.94966e-06
8.90517e-06
1.74146e-06
4.47542e-07
3.21873e-06
2.47818e-07
1.73801e-06
4.47444e-07
3.21961e-06
2.47256e-07
5.29296e-06
5.29054e-06
7.17708e-07
5.29242e-06
5.29005e-06
1.81208e-05
1.81244e-05
1.81153e-05
7.19572e-07
5.29333e-06
5.29091e-06
1.81216e-05
1.74417e-06
3.21989e-06
2.44884e-07
4.46768e-07
1.74485e-06
3.21899e-06
2.44931e-07
3.95768e-06
8.90707e-06
3.95832e-06
8.90752e-06
1.74756e-06
2.45694e-07
3.22105e-06
4.47267e-07
1.74784e-06
2.45725e-07
3.22064e-06
3.95834e-06
8.90595e-06
1.74301e-06
4.46805e-07
3.21928e-06
2.44956e-07
3.95786e-06
8.90718e-06
1.74594e-06
4.47313e-07
2.45806e-07
3.22113e-06
3.95193e-06
8.90683e-06
3.95219e-06
8.90688e-06
1.74453e-06
2.46176e-07
3.22121e-06
4.47257e-07
1.74559e-06
2.46208e-07
3.22047e-06
3.95377e-06
8.90652e-06
3.95401e-06
8.90667e-06
1.74243e-06
4.48025e-07
3.2177e-06
2.46155e-07
3.95254e-06
8.90649e-06
1.74512e-06
4.47307e-07
2.46259e-07
3.22108e-06
3.95431e-06
8.90633e-06
5.29266e-06
5.29012e-06
7.16662e-07
5.29173e-06
5.28979e-06
1.8114e-05
1.81179e-05
1.81196e-05
7.19104e-07
5.29226e-06
5.29056e-06
1.81151e-05
1.73914e-06
2.45038e-07
3.21972e-06
4.46793e-07
1.74181e-06
2.45051e-07
3.21956e-06
3.95142e-06
8.9049e-06
3.95213e-06
8.90529e-06
3.95125e-06
8.90355e-06
3.95204e-06
8.90408e-06
1.74064e-06
4.46951e-07
2.45065e-07
3.21925e-06
1.74051e-06
4.46855e-07
2.45061e-07
3.22029e-06
3.95187e-06
8.90494e-06
3.95177e-06
8.90384e-06
1.81158e-05
1.81188e-05
1.81121e-05
1.81158e-05
7.20353e-07
5.29173e-06
5.29223e-06
1.8116e-05
1.81132e-05
2.18934e-05
7.08762e-06
8.91057e-06
7.08888e-06
2.18984e-05
8.90619e-06
1.20131e-05
3.95057e-06
1.063e-05
4.64434e-06
1.06302e-05
4.64513e-06
1.20134e-05
2.18939e-05
7.0873e-06
8.9095e-06
2.18889e-05
7.08604e-06
1.20148e-05
3.95069e-06
1.06321e-05
4.64601e-06
1.20145e-05
1.06319e-05
4.64505e-06
2.18874e-05
7.08567e-06
8.9089e-06
7.08687e-06
2.18924e-05
1.81183e-05
1.81152e-05
1.19986e-05
3.95853e-06
4.65018e-06
1.06187e-05
4.65072e-06
1.06179e-05
1.19998e-05
2.18759e-05
7.08851e-06
8.9065e-06
2.18701e-05
7.08744e-06
1.19995e-05
3.95824e-06
4.65081e-06
1.06177e-05
1.19983e-05
4.65035e-06
1.06184e-05
2.18703e-05
7.08723e-06
8.90617e-06
7.08829e-06
2.18762e-05
1.81227e-05
1.81198e-05
9.64208e-06
2.14817e-05
2.14799e-05
2.14763e-05
2.14745e-05
9.64052e-06
4.2972e-06
2.47405e-06
9.14685e-06
5.29067e-06
4.29797e-06
2.4739e-06
9.14743e-06
4.3039e-06
2.47665e-06
9.14941e-06
5.29131e-06
4.30452e-06
2.47622e-06
9.15008e-06
9.64054e-06
2.1476e-05
2.1474e-05
9.64205e-06
2.14813e-05
2.14794e-05
4.29801e-06
9.14766e-06
5.29152e-06
2.4745e-06
2.47469e-06
9.14702e-06
4.29732e-06
4.3046e-06
9.15043e-06
5.2921e-06
2.47613e-06
2.47654e-06
9.14971e-06
4.30399e-06
1.81152e-05
1.81158e-05
9.64345e-06
2.14835e-05
2.14842e-05
2.14783e-05
2.14789e-05
9.64199e-06
4.29902e-06
9.14799e-06
5.29193e-06
2.47239e-06
9.14743e-06
4.29824e-06
2.47341e-06
4.30595e-06
9.15368e-06
5.29303e-06
2.4766e-06
9.15312e-06
4.30501e-06
2.47806e-06
1.81145e-05
1.8118e-05
1.81166e-05
1.81194e-05
9.64175e-06
2.14781e-05
2.14788e-05
9.64356e-06
2.14829e-05
2.14838e-05
4.2989e-06
2.47354e-06
5.29127e-06
9.14723e-06
9.14706e-06
2.47353e-06
4.29767e-06
4.3056e-06
2.4763e-06
5.29323e-06
9.15385e-06
9.15324e-06
2.47646e-06
4.30476e-06
4.29831e-06
9.14746e-06
2.47262e-06
5.29089e-06
4.29919e-06
9.14788e-06
2.47161e-06
4.30488e-06
9.15317e-06
2.47567e-06
5.29241e-06
4.30577e-06
9.15373e-06
2.47584e-06
9.643e-06
2.14819e-05
2.14831e-05
2.14772e-05
2.14782e-05
9.64107e-06
1.20177e-05
1.06357e-05
4.64806e-06
3.95368e-06
1.20174e-05
1.06357e-05
4.64699e-06
2.18904e-05
8.91002e-06
7.08656e-06
2.18954e-05
7.08784e-06
2.18969e-05
7.08844e-06
8.91056e-06
2.18919e-05
7.08713e-06
1.2016e-05
3.954e-06
1.06337e-05
4.64596e-06
1.20163e-05
1.06339e-05
4.64698e-06
1.20133e-05
1.06348e-05
4.6472e-06
3.95422e-06
1.20125e-05
1.06349e-05
4.64653e-06
2.18789e-05
8.90584e-06
7.08215e-06
7.08331e-06
2.18842e-05
2.18849e-05
7.08351e-06
8.90624e-06
2.18794e-05
7.08244e-06
1.20121e-05
3.95443e-06
1.06333e-05
4.64594e-06
1.06334e-05
4.64672e-06
1.20128e-05
1.8115e-05
1.81181e-05
4.30422e-06
2.47515e-06
5.29307e-06
9.15169e-06
2.47591e-06
9.15113e-06
4.30331e-06
4.29931e-06
2.47422e-06
5.29045e-06
9.15183e-06
9.15112e-06
2.47489e-06
4.29844e-06
2.47549e-06
5.29228e-06
2.4754e-06
9.64302e-06
2.14831e-05
2.14883e-05
2.14778e-05
2.14827e-05
9.64127e-06
1.812e-05
1.19986e-05
4.6503e-06
1.06171e-05
3.95899e-06
1.19973e-05
4.65008e-06
1.06179e-05
2.187e-05
8.90631e-06
7.08765e-06
2.18758e-05
7.08867e-06
2.18758e-05
7.08879e-06
8.90663e-06
2.187e-05
7.08778e-06
1.19979e-05
3.95925e-06
4.65033e-06
1.06182e-05
1.19991e-05
4.65068e-06
1.06174e-05
1.20051e-05
1.06213e-05
4.64878e-06
3.95803e-06
1.20039e-05
1.06222e-05
4.64836e-06
2.18757e-05
8.90694e-06
7.08435e-06
7.08535e-06
2.18815e-05
2.18813e-05
7.08525e-06
8.90717e-06
2.18753e-05
7.08434e-06
1.20043e-05
3.95846e-06
1.06226e-05
4.64833e-06
1.06218e-05
4.64882e-06
1.20054e-05
2.18735e-05
8.90685e-06
7.08274e-06
7.08391e-06
2.18797e-05
1.20009e-05
3.9524e-06
4.64279e-06
1.06204e-05
4.64344e-06
1.06196e-05
1.20021e-05
2.18753e-05
8.90659e-06
7.08269e-06
7.08381e-06
2.18809e-05
1.20039e-05
3.95411e-06
1.06238e-05
4.64482e-06
1.0623e-05
4.64528e-06
1.20051e-05
1.81191e-05
1.81219e-05
9.64164e-06
2.14801e-05
2.148e-05
9.64331e-06
2.14853e-05
2.14852e-05
4.30521e-06
2.47484e-06
5.29272e-06
9.15379e-06
2.47503e-06
9.1532e-06
4.30416e-06
4.29774e-06
2.47426e-06
5.29007e-06
9.1473e-06
9.14674e-06
2.47455e-06
4.29674e-06
4.30435e-06
9.15303e-06
2.47429e-06
5.29213e-06
2.47428e-06
4.30505e-06
9.15363e-06
4.29702e-06
9.14671e-06
2.47446e-06
5.28934e-06
4.29776e-06
9.14727e-06
2.47419e-06
9.64307e-06
2.14852e-05
2.14851e-05
2.14801e-05
2.14799e-05
9.64139e-06
1.81135e-05
1.81163e-05
1.19989e-05
4.64444e-06
1.06148e-05
3.95181e-06
1.19978e-05
4.64399e-06
1.06156e-05
2.18698e-05
8.90472e-06
7.08273e-06
7.08371e-06
2.18756e-05
2.18754e-05
7.0837e-06
8.90492e-06
2.18695e-05
7.08277e-06
1.1998e-05
3.95227e-06
4.64387e-06
1.06157e-05
4.64438e-06
1.0615e-05
1.19991e-05
1.19977e-05
4.64229e-06
1.06145e-05
3.95146e-06
1.19965e-05
4.64174e-06
1.06153e-05
2.18676e-05
8.90341e-06
7.08056e-06
7.08164e-06
2.18734e-05
2.18733e-05
7.08173e-06
8.90366e-06
2.18675e-05
7.08071e-06
1.19967e-05
3.95207e-06
4.64164e-06
1.06155e-05
4.6422e-06
1.06147e-05
1.19979e-05
9.64051e-06
2.14808e-05
2.14787e-05
4.29795e-06
2.47337e-06
5.29159e-06
9.14729e-06
4.297e-06
2.4736e-06
9.14679e-06
4.30451e-06
2.4763e-06
5.29212e-06
9.14979e-06
4.30356e-06
2.47672e-06
9.14926e-06
4.29712e-06
5.29094e-06
2.47305e-06
9.14728e-06
4.3037e-06
2.47678e-06
5.29145e-06
2.47638e-06
9.14977e-06
9.64203e-06
2.1481e-05
2.1479e-05
9.64051e-06
2.14757e-05
2.14736e-05
1.81159e-05
1.81189e-05
1.81118e-05
1.81147e-05
1.81162e-05
1.81129e-05
1.81199e-05
1.81169e-05
9.64204e-06
2.14805e-05
2.14822e-05
2.14756e-05
2.14771e-05
9.64035e-06
4.29697e-06
2.47216e-06
9.14632e-06
5.28935e-06
4.2982e-06
9.14651e-06
2.472e-06
4.30481e-06
2.47654e-06
9.15337e-06
5.29257e-06
4.30564e-06
9.15392e-06
2.47633e-06
9.64066e-06
2.14763e-05
2.14775e-05
9.6424e-06
2.14811e-05
2.14825e-05
4.29738e-06
9.14585e-06
5.28995e-06
2.47234e-06
9.14563e-06
4.29622e-06
2.47257e-06
4.30576e-06
9.154e-06
5.29326e-06
2.47657e-06
9.15348e-06
4.30496e-06
2.47684e-06
1.81151e-05
1.81198e-05
9.64012e-06
2.14751e-05
2.14768e-05
9.6418e-06
2.14801e-05
2.1482e-05
4.29592e-06
9.14507e-06
2.47293e-06
5.28862e-06
4.2969e-06
9.14541e-06
2.4726e-06
4.30509e-06
9.15348e-06
2.47703e-06
5.29202e-06
4.30589e-06
9.15401e-06
2.47676e-06
1.20108e-05
3.95078e-06
1.063e-05
4.6447e-06
1.06302e-05
4.6454e-06
1.20114e-05
2.18834e-05
7.08301e-06
8.90572e-06
2.18781e-05
7.08182e-06
1.20121e-05
3.95037e-06
1.06318e-05
4.646e-06
1.06317e-05
1.20114e-05
4.64523e-06
2.18773e-05
7.08147e-06
8.90535e-06
7.08265e-06
2.18825e-05
1.2012e-05
1.06281e-05
4.64452e-06
3.94831e-06
1.20117e-05
1.06279e-05
4.64389e-06
2.18909e-05
7.08655e-06
8.90834e-06
2.18859e-05
7.0854e-06
1.20108e-05
1.06284e-05
4.64493e-06
3.94896e-06
1.20101e-05
1.06283e-05
4.64434e-06
2.18817e-05
7.08232e-06
8.90541e-06
2.18764e-05
7.08116e-06
9.64254e-06
2.14834e-05
2.14887e-05
2.14781e-05
2.14832e-05
9.64094e-06
4.30344e-06
2.47509e-06
9.15124e-06
5.29221e-06
9.15182e-06
4.30426e-06
2.47405e-06
4.29852e-06
2.47455e-06
9.15142e-06
5.28982e-06
2.47432e-06
4.29932e-06
9.15205e-06
9.64103e-06
2.14777e-05
2.14828e-05
2.1483e-05
9.64268e-06
2.14882e-05
4.30413e-06
9.15189e-06
5.29319e-06
2.4728e-06
9.15134e-06
2.47435e-06
4.30324e-06
4.29931e-06
9.15229e-06
5.2907e-06
2.47465e-06
2.47495e-06
9.15168e-06
4.29832e-06
1.81239e-05
1.81212e-05
1.81184e-05
9.6409e-06
2.14785e-05
2.14836e-05
9.64249e-06
2.14839e-05
2.14891e-05
4.30319e-06
9.1514e-06
2.47394e-06
5.29252e-06
2.47322e-06
4.30402e-06
9.15196e-06
4.29815e-06
9.15188e-06
2.47529e-06
5.2903e-06
4.29907e-06
9.15253e-06
2.475e-06
1.81248e-05
1.20044e-05
3.95836e-06
1.06232e-05
4.64789e-06
1.06225e-05
4.64842e-06
1.20055e-05
2.18816e-05
7.08533e-06
8.90743e-06
2.18758e-05
7.08428e-06
1.20054e-05
3.95795e-06
1.06221e-05
4.64869e-06
1.0623e-05
1.20044e-05
4.64814e-06
2.18759e-05
7.08413e-06
8.90718e-06
7.08519e-06
2.18816e-05
1.2e-05
4.65044e-06
1.06183e-05
3.95777e-06
1.19989e-05
4.64983e-06
1.06192e-05
2.18765e-05
7.08809e-06
8.90618e-06
2.18705e-05
7.08704e-06
1.20055e-05
1.06227e-05
4.64818e-06
3.95722e-06
1.20045e-05
1.06234e-05
4.64762e-06
2.18816e-05
7.08503e-06
8.90742e-06
2.18758e-05
7.08394e-06
1.20014e-05
3.95235e-06
4.64253e-06
1.06213e-05
4.64318e-06
1.06204e-05
1.20027e-05
2.18798e-05
7.08389e-06
8.90709e-06
7.08273e-06
2.18737e-05
1.20024e-05
3.95175e-06
4.6433e-06
1.06199e-05
4.64269e-06
1.20011e-05
1.06208e-05
2.18738e-05
7.08269e-06
8.90666e-06
7.08386e-06
2.188e-05
1.2005e-05
3.95412e-06
1.06249e-05
4.64515e-06
1.0624e-05
4.64555e-06
1.20063e-05
2.18806e-05
7.08355e-06
8.90675e-06
2.1875e-05
7.08246e-06
1.20057e-05
3.95357e-06
1.06234e-05
4.64536e-06
1.20044e-05
1.06243e-05
4.64502e-06
2.18748e-05
7.08229e-06
8.90642e-06
7.08334e-06
2.18806e-05
1.20031e-05
4.6432e-06
1.0621e-05
3.9521e-06
1.20018e-05
4.64271e-06
1.0622e-05
2.18802e-05
7.08381e-06
8.9067e-06
2.1874e-05
7.08267e-06
1.20067e-05
1.06246e-05
4.6456e-06
3.95393e-06
1.20055e-05
1.06255e-05
4.64513e-06
2.18808e-05
7.08319e-06
8.9066e-06
2.18749e-05
7.08217e-06
9.64262e-06
2.1485e-05
2.14848e-05
2.14799e-05
2.14797e-05
9.64088e-06
4.30422e-06
2.4752e-06
9.15337e-06
5.29203e-06
9.15396e-06
4.30508e-06
2.47493e-06
4.29684e-06
2.47462e-06
9.14689e-06
5.28956e-06
2.47428e-06
4.29762e-06
9.14748e-06
9.64118e-06
2.148e-05
2.14798e-05
2.14851e-05
9.64287e-06
2.14849e-05
4.30477e-06
9.15381e-06
5.29265e-06
2.47481e-06
9.1534e-06
2.47516e-06
4.30379e-06
4.29754e-06
9.14761e-06
5.29041e-06
2.47446e-06
2.47474e-06
9.14704e-06
4.29664e-06
1.81173e-05
1.81146e-05
1.81224e-05
9.64051e-06
2.14797e-05
2.14795e-05
9.6423e-06
2.14848e-05
2.14847e-05
4.30347e-06
9.15319e-06
2.47507e-06
5.29124e-06
2.47472e-06
4.3045e-06
9.15353e-06
4.29609e-06
9.14705e-06
2.47396e-06
5.28979e-06
4.29711e-06
9.14754e-06
2.4738e-06
1.81183e-05
1.19984e-05
3.95197e-06
4.64355e-06
1.0616e-05
4.64406e-06
1.06152e-05
1.19995e-05
2.18757e-05
7.08366e-06
8.90529e-06
7.08266e-06
2.187e-05
1.19993e-05
3.95149e-06
4.64421e-06
1.06151e-05
4.64371e-06
1.19982e-05
1.06158e-05
2.18699e-05
7.08244e-06
8.90501e-06
7.0835e-06
2.18755e-05
1.19976e-05
3.95185e-06
4.64198e-06
1.06159e-05
4.64237e-06
1.06151e-05
1.19989e-05
2.18735e-05
7.0815e-06
8.90391e-06
2.18677e-05
7.0804e-06
1.19983e-05
3.95142e-06
4.64215e-06
1.06149e-05
1.19971e-05
4.64173e-06
1.06157e-05
2.18678e-05
7.08021e-06
8.90369e-06
7.08131e-06
2.18737e-05
1.19997e-05
4.64393e-06
1.06154e-05
3.9513e-06
1.19986e-05
4.64346e-06
1.06161e-05
2.18751e-05
7.08328e-06
8.90519e-06
2.18696e-05
7.08218e-06
1.19994e-05
4.64259e-06
1.06154e-05
3.95119e-06
1.19981e-05
4.64215e-06
1.06162e-05
2.18739e-05
7.08113e-06
8.90419e-06
2.1868e-05
7.08002e-06
1.81188e-05
1.81158e-05
1.81153e-05
1.81126e-05
9.64045e-06
2.14768e-05
2.1475e-05
9.64204e-06
2.14822e-05
2.14805e-05
4.29779e-06
9.14732e-06
2.47501e-06
5.29104e-06
4.29839e-06
2.47476e-06
9.14799e-06
4.30418e-06
9.15011e-06
2.47644e-06
5.29161e-06
4.30481e-06
2.47612e-06
9.15088e-06
1.8119e-05
1.81165e-05
1.48025e-07
9.25863e-08
9.21563e-08
1.48097e-07
9.25905e-08
9.21706e-08
6.66088e-08
6.66093e-08
2.32121e-06
1.3415e-06
1.34177e-06
7.17862e-07
2.32176e-06
1.34025e-06
1.34049e-06
2.32236e-06
7.17246e-07
1.33975e-06
1.34068e-06
1.34082e-06
1.34176e-06
2.32172e-06
2.32167e-06
7.19942e-07
1.33995e-06
1.34072e-06
1.34103e-06
1.34177e-06
2.32095e-06
2.32142e-06
7.19312e-07
1.34074e-06
1.34015e-06
1.34185e-06
1.34126e-06
2.3204e-06
2.322e-06
7.20237e-07
1.34035e-06
1.34061e-06
2.32116e-06
1.34149e-06
1.34176e-06
2.32174e-06
1.34068e-06
1.34163e-06
7.15585e-07
2.32233e-06
1.33956e-06
1.34051e-06
2.32098e-06
1.34088e-06
1.34168e-06
7.17676e-07
1.34063e-06
2.32156e-06
1.33974e-06
2.32047e-06
1.34176e-06
1.34117e-06
7.16702e-07
1.34005e-06
2.32102e-06
1.34064e-06
1.4804e-07
9.25849e-08
9.21544e-08
9.25817e-08
9.21568e-08
6.66097e-08
6.66095e-08
1.48381e-07
9.25673e-08
9.24292e-08
9.25635e-08
9.24281e-08
6.66441e-08
6.66435e-08
1.48061e-07
9.228e-08
9.22104e-08
9.22766e-08
9.2209e-08
6.65883e-08
6.65882e-08
1.48022e-07
9.23853e-08
9.22046e-08
9.238e-08
9.22013e-08
6.65951e-08
6.65974e-08
9.25681e-08
9.24279e-08
1.48395e-07
9.25694e-08
9.24286e-08
6.66376e-08
6.66407e-08
9.22818e-08
9.22271e-08
1.48115e-07
9.22935e-08
9.22277e-08
6.65871e-08
6.65874e-08
9.2393e-08
9.22075e-08
1.48097e-07
9.24016e-08
9.22107e-08
6.66003e-08
6.65997e-08
1.48098e-07
9.25899e-08
9.21739e-08
6.66086e-08
1.48398e-07
9.25699e-08
9.24311e-08
6.66365e-08
1.48155e-07
9.23072e-08
9.2232e-08
6.65872e-08
1.48109e-07
9.24067e-08
9.22147e-08
6.65978e-08
9.31226e-07
1.74341e-06
2.03028e-06
7.91047e-07
2.03016e-06
7.92231e-07
9.29237e-07
1.17332e-06
1.61209e-06
2.58005e-06
3.21751e-06
1.17508e-06
1.61128e-06
2.57951e-06
9.29143e-07
1.74283e-06
2.03103e-06
7.92208e-07
9.30989e-07
2.03103e-06
7.9093e-07
1.17505e-06
2.57999e-06
3.21794e-06
1.61204e-06
1.61276e-06
2.58041e-06
1.17338e-06
9.26978e-07
1.74079e-06
7.87708e-07
2.02718e-06
7.88931e-07
2.02872e-06
9.25162e-07
1.17162e-06
1.61399e-06
2.57951e-06
3.21883e-06
1.17349e-06
1.61283e-06
2.57913e-06
9.2451e-07
1.73996e-06
7.89059e-07
2.02905e-06
9.26192e-07
7.87694e-07
2.02864e-06
1.17337e-06
2.57944e-06
3.21946e-06
1.61293e-06
1.61396e-06
2.57998e-06
1.17143e-06
2.3216e-06
7.20301e-07
1.34032e-06
1.34053e-06
1.34143e-06
1.34165e-06
2.32107e-06
2.32182e-06
7.20011e-07
1.33997e-06
1.3409e-06
2.32132e-06
1.34102e-06
1.34191e-06
2.32167e-06
7.15181e-07
1.34076e-06
1.34171e-06
2.32211e-06
1.3396e-06
1.34054e-06
1.17735e-06
2.58251e-06
3.22117e-06
1.61358e-06
2.58283e-06
1.61463e-06
1.17565e-06
9.35141e-07
2.03392e-06
7.99985e-07
1.74384e-06
9.37123e-07
2.03435e-06
7.98235e-07
1.17734e-06
1.6133e-06
3.2207e-06
2.58108e-06
1.61431e-06
2.58154e-06
1.17549e-06
1.17565e-06
2.58216e-06
1.61414e-06
3.22025e-06
1.61315e-06
1.17738e-06
2.58201e-06
9.36922e-07
1.74326e-06
2.03286e-06
7.97867e-07
2.0331e-06
7.99382e-07
9.34809e-07
9.32212e-07
2.03387e-06
7.98605e-07
1.7421e-06
9.34135e-07
2.03382e-06
7.9684e-07
1.17537e-06
1.61312e-06
3.22038e-06
2.58069e-06
2.58131e-06
1.61416e-06
1.17346e-06
1.17355e-06
2.5817e-06
1.61445e-06
3.21981e-06
1.17526e-06
2.57984e-06
1.61302e-06
9.34042e-07
1.7437e-06
2.03262e-06
7.96485e-07
2.03333e-06
7.98017e-07
9.32019e-07
7.17954e-07
1.34132e-06
1.33983e-06
3.22015e-06
1.61379e-06
1.6148e-06
9.2478e-07
2.033e-06
7.90583e-07
1.7438e-06
9.29446e-07
2.03286e-06
7.89364e-07
1.17407e-06
1.61353e-06
3.22013e-06
2.58158e-06
1.61453e-06
2.58209e-06
1.17176e-06
1.17216e-06
2.58187e-06
1.61437e-06
3.21951e-06
1.61337e-06
1.17429e-06
2.58136e-06
9.24562e-07
1.74432e-06
2.03253e-06
7.89394e-07
2.0328e-06
7.90624e-07
9.22503e-07
9.26572e-07
7.92981e-07
2.03391e-06
1.7454e-06
9.31224e-07
7.91732e-07
2.03216e-06
1.17435e-06
1.61399e-06
3.22098e-06
2.58045e-06
2.58118e-06
1.61501e-06
1.1721e-06
1.17263e-06
2.58184e-06
1.61497e-06
3.2203e-06
1.1744e-06
2.58095e-06
1.6139e-06
9.26375e-07
1.74714e-06
7.91796e-07
2.03364e-06
7.93017e-07
2.0338e-06
9.24364e-07
1.17513e-06
1.61051e-06
3.21815e-06
2.57928e-06
1.17332e-06
1.61105e-06
2.57973e-06
9.31418e-07
1.74296e-06
2.03036e-06
7.90885e-07
9.28956e-07
2.03241e-06
7.92097e-07
1.17505e-06
1.61363e-06
3.22115e-06
2.58139e-06
2.5821e-06
1.61469e-06
1.17302e-06
9.31608e-07
1.74565e-06
7.92135e-07
2.03194e-06
7.93325e-07
2.03255e-06
9.29195e-07
2.32085e-06
7.17029e-07
1.34177e-06
1.34121e-06
1.34066e-06
2.32143e-06
1.34009e-06
9.27142e-07
7.89205e-07
2.02936e-06
1.74136e-06
9.29075e-07
7.87912e-07
2.02941e-06
1.17359e-06
1.61287e-06
3.21921e-06
2.57981e-06
1.17164e-06
1.6139e-06
2.58042e-06
1.17187e-06
2.58049e-06
1.61383e-06
3.21842e-06
1.17355e-06
1.61278e-06
2.58002e-06
9.26529e-07
1.73988e-06
7.87851e-07
2.02831e-06
9.23862e-07
7.89115e-07
2.02833e-06
9.27515e-07
7.89546e-07
2.02978e-06
1.74217e-06
9.29464e-07
7.88261e-07
2.02929e-06
1.17361e-06
1.61344e-06
3.21946e-06
2.57864e-06
2.57926e-06
1.61449e-06
1.17163e-06
1.17191e-06
2.57913e-06
1.61443e-06
3.21866e-06
1.17363e-06
2.57859e-06
1.61338e-06
9.2686e-07
1.74253e-06
7.88205e-07
2.02849e-06
7.89474e-07
2.02996e-06
9.24183e-07
2.32145e-06
7.18076e-07
1.34174e-06
1.34036e-06
1.34061e-06
2.32222e-06
7.17635e-07
1.33963e-06
1.34062e-06
2.3216e-06
1.34073e-06
1.34172e-06
2.32155e-06
7.16233e-07
1.34075e-06
1.34177e-06
2.32216e-06
1.33966e-06
1.34068e-06
9.36424e-07
1.74131e-06
2.03133e-06
7.96756e-07
2.03133e-06
7.9827e-07
9.34227e-07
1.17538e-06
1.61411e-06
2.58048e-06
3.21904e-06
2.57987e-06
1.17724e-06
1.61307e-06
9.34566e-07
1.74072e-06
2.03171e-06
7.98814e-07
2.02941e-06
9.36665e-07
7.97125e-07
1.17705e-06
2.58033e-06
3.21942e-06
1.61308e-06
2.58083e-06
1.61416e-06
1.17519e-06
9.3384e-07
1.73877e-06
2.03087e-06
7.95438e-07
2.03143e-06
7.96917e-07
9.3176e-07
1.17349e-06
1.61394e-06
2.58025e-06
3.21897e-06
1.17527e-06
2.57953e-06
1.61289e-06
9.31939e-07
1.7371e-06
2.03198e-06
7.97449e-07
9.33914e-07
2.03e-06
7.95758e-07
1.17517e-06
2.57877e-06
3.21973e-06
1.61297e-06
2.5801e-06
1.17337e-06
1.61403e-06
9.33938e-07
2.0305e-06
7.97844e-07
1.74006e-06
9.36069e-07
2.03037e-06
7.96228e-07
1.17511e-06
2.5812e-06
1.61409e-06
3.21779e-06
1.613e-06
1.17692e-06
2.58078e-06
9.31675e-07
2.03136e-06
7.9654e-07
1.73917e-06
9.33659e-07
2.03103e-06
7.95079e-07
1.17327e-06
2.57919e-06
1.61398e-06
3.21897e-06
1.17511e-06
2.57847e-06
1.61292e-06
2.32146e-06
7.1959e-07
1.3398e-06
1.34083e-06
1.34188e-06
1.34092e-06
2.32084e-06
2.32083e-06
7.17684e-07
1.34086e-06
1.34201e-06
1.33973e-06
2.32142e-06
1.34096e-06
9.26108e-07
1.74452e-06
2.03166e-06
7.89316e-07
2.03201e-06
7.90529e-07
9.24336e-07
1.17177e-06
1.61438e-06
2.58111e-06
3.21924e-06
2.58042e-06
1.17352e-06
1.61339e-06
9.23417e-07
1.7445e-06
2.03278e-06
7.90565e-07
2.03153e-06
9.25029e-07
7.89271e-07
1.17344e-06
2.58108e-06
3.21987e-06
1.61351e-06
2.58138e-06
1.61453e-06
1.17172e-06
9.2801e-07
1.74783e-06
7.91734e-07
2.03253e-06
7.92954e-07
2.03207e-06
9.26264e-07
1.17212e-06
1.61496e-06
2.58104e-06
3.22046e-06
1.17386e-06
2.58059e-06
1.61393e-06
9.25311e-07
1.74676e-06
7.92977e-07
2.03403e-06
9.26885e-07
7.91702e-07
2.03316e-06
1.17381e-06
2.58066e-06
3.22123e-06
1.614e-06
2.5812e-06
1.17209e-06
1.61502e-06
9.25085e-07
2.03217e-06
7.90527e-07
1.74038e-06
9.26811e-07
2.03008e-06
7.89254e-07
1.17181e-06
2.58055e-06
1.61456e-06
3.21841e-06
1.61351e-06
1.17349e-06
2.57986e-06
9.27076e-07
7.92918e-07
2.03174e-06
1.74532e-06
9.28749e-07
7.91632e-07
2.03197e-06
1.17218e-06
2.58122e-06
1.61494e-06
3.22026e-06
1.17386e-06
2.57967e-06
1.61389e-06
9.31613e-07
1.74529e-06
7.92351e-07
2.03253e-06
7.9353e-07
2.0331e-06
9.29652e-07
1.17298e-06
1.61458e-06
2.58077e-06
3.22049e-06
1.61354e-06
1.17483e-06
2.57994e-06
9.29464e-07
1.74493e-06
7.93365e-07
2.03272e-06
7.92174e-07
9.31277e-07
2.03253e-06
1.17466e-06
2.58018e-06
3.22119e-06
1.61359e-06
1.61464e-06
2.58067e-06
1.17276e-06
9.29418e-07
2.03094e-06
7.92283e-07
1.73994e-06
9.31261e-07
2.03047e-06
7.91101e-07
1.17351e-06
2.58089e-06
1.61347e-06
3.21687e-06
1.17518e-06
1.61266e-06
2.58042e-06
9.29923e-07
7.93584e-07
2.03312e-06
1.74359e-06
9.31736e-07
7.92413e-07
2.03289e-06
1.17272e-06
2.57972e-06
1.61455e-06
3.22035e-06
1.17458e-06
2.57908e-06
1.6135e-06
2.32079e-06
7.19149e-07
1.34062e-06
1.34008e-06
1.34122e-06
1.34178e-06
2.31999e-06
2.31969e-06
7.16494e-07
1.3416e-06
1.34105e-06
1.34043e-06
2.3204e-06
1.33991e-06
9.27191e-07
1.74128e-06
7.87965e-07
2.02868e-06
7.89246e-07
2.02872e-06
9.25343e-07
1.17161e-06
1.61443e-06
2.57962e-06
3.21918e-06
1.61338e-06
1.17347e-06
2.57911e-06
9.24794e-07
1.74147e-06
7.89353e-07
2.03034e-06
7.8803e-07
9.26505e-07
2.0297e-06
1.17337e-06
2.57936e-06
3.22005e-06
1.61346e-06
1.61449e-06
2.57989e-06
1.17143e-06
9.2577e-07
7.88886e-07
2.02972e-06
1.7405e-06
9.27512e-07
7.87661e-07
2.02975e-06
1.17152e-06
2.57993e-06
1.61389e-06
3.21851e-06
1.17335e-06
1.61284e-06
2.57814e-06
9.25831e-07
7.89107e-07
2.02941e-06
1.74033e-06
9.27612e-07
7.87836e-07
2.02792e-06
1.17144e-06
2.57896e-06
1.61443e-06
3.21971e-06
1.17328e-06
2.57838e-06
1.6134e-06
2.32123e-06
7.17758e-07
1.34133e-06
1.34153e-06
2.32172e-06
1.34023e-06
1.34043e-06
1.48177e-07
4.48151e-07
4.47144e-07
7.20292e-07
1.48191e-07
4.48238e-07
4.47292e-07
7.2016e-07
1.4825e-07
4.48343e-07
4.47571e-07
7.19924e-07
1.48271e-07
4.48379e-07
4.47681e-07
7.20318e-07
1.48313e-07
4.48429e-07
4.4786e-07
7.19308e-07
1.48361e-07
4.48391e-07
4.48029e-07
7.18718e-07
1.48438e-07
4.48336e-07
4.48384e-07
7.18742e-07
1.48483e-07
4.48292e-07
4.48715e-07
7.18724e-07
1.48561e-07
4.4822e-07
4.48982e-07
7.19186e-07
1.48602e-07
4.48207e-07
4.49122e-07
7.19277e-07
1.48615e-07
4.48157e-07
4.49149e-07
7.19099e-07
1.48621e-07
4.48196e-07
4.49125e-07
7.18959e-07
1.486e-07
4.48112e-07
4.48997e-07
7.18367e-07
1.48549e-07
4.48094e-07
4.4889e-07
7.18378e-07
1.4848e-07
4.48083e-07
4.48951e-07
7.17882e-07
1.48421e-07
4.47938e-07
4.48985e-07
7.1832e-07
1.4838e-07
4.47759e-07
4.48968e-07
7.18904e-07
1.48344e-07
4.47637e-07
4.48852e-07
7.15694e-07
1.47975e-07
4.46119e-07
4.47358e-07
7.12466e-07
1.63348e-07
3.90109e-07
3.91065e-07
6.53775e-07
7.16542e-07
4.47553e-07
4.4746e-07
7.17761e-07
4.46849e-07
4.4733e-07
4.48088e-07
4.47347e-07
7.16563e-07
4.47051e-07
4.46881e-07
7.17823e-07
7.18587e-07
7.1717e-07
4.47637e-07
4.47499e-07
4.47816e-07
4.47634e-07
7.19656e-07
7.18164e-07
4.46942e-07
4.47487e-07
4.47148e-07
4.47766e-07
4.47376e-07
4.48194e-07
4.47516e-07
7.19125e-07
7.16941e-07
4.46973e-07
4.47192e-07
4.4712e-07
7.17773e-07
7.19259e-07
7.16361e-07
4.4769e-07
4.47569e-07
4.47714e-07
4.4767e-07
7.20004e-07
7.17759e-07
4.47064e-07
4.47629e-07
4.47195e-07
4.47816e-07
4.47474e-07
4.4832e-07
4.47534e-07
7.19562e-07
7.17132e-07
4.46979e-07
4.47501e-07
4.47142e-07
7.1801e-07
7.18901e-07
7.16536e-07
4.47656e-07
4.47664e-07
4.47663e-07
4.47772e-07
7.20192e-07
7.17492e-07
4.47197e-07
4.47837e-07
4.47387e-07
4.47959e-07
4.47525e-07
4.48343e-07
4.47696e-07
7.19597e-07
7.16561e-07
4.47156e-07
4.47612e-07
4.47311e-07
7.1785e-07
7.19069e-07
7.16239e-07
4.47638e-07
4.47784e-07
4.47624e-07
4.47875e-07
7.19353e-07
7.16844e-07
4.47339e-07
4.47899e-07
4.47517e-07
4.48068e-07
4.47655e-07
4.48428e-07
4.4783e-07
7.19111e-07
7.16496e-07
4.47307e-07
4.47797e-07
4.47438e-07
7.17015e-07
7.1881e-07
7.15911e-07
4.47584e-07
4.47886e-07
4.4762e-07
4.48011e-07
7.18623e-07
7.16461e-07
4.47543e-07
4.48056e-07
4.47684e-07
4.48189e-07
4.4781e-07
4.48401e-07
4.47955e-07
7.19082e-07
7.16878e-07
4.47413e-07
4.47911e-07
4.4758e-07
7.16285e-07
7.18442e-07
7.15826e-07
4.47631e-07
4.48011e-07
4.47652e-07
4.48131e-07
7.18222e-07
7.15632e-07
4.47695e-07
4.48204e-07
4.47856e-07
4.4834e-07
4.47976e-07
4.48376e-07
4.48195e-07
7.195e-07
7.1721e-07
4.47508e-07
4.48232e-07
4.47743e-07
7.16256e-07
7.18368e-07
7.15998e-07
4.4765e-07
4.48119e-07
4.47676e-07
4.48198e-07
7.17947e-07
7.15098e-07
4.47834e-07
4.48339e-07
4.48011e-07
4.48539e-07
4.48201e-07
4.48279e-07
4.48459e-07
7.19782e-07
7.1762e-07
4.47746e-07
4.48523e-07
4.47919e-07
7.16295e-07
7.18594e-07
7.1611e-07
4.47674e-07
4.48187e-07
4.47741e-07
4.48187e-07
7.17622e-07
7.14868e-07
4.48012e-07
4.48483e-07
4.48132e-07
4.48602e-07
4.48437e-07
4.48223e-07
4.48658e-07
7.20247e-07
7.17557e-07
4.47979e-07
4.48852e-07
4.48196e-07
7.16679e-07
7.18583e-07
7.15929e-07
4.47737e-07
4.48178e-07
4.47808e-07
4.48122e-07
7.17422e-07
7.15117e-07
4.48122e-07
4.48568e-07
4.48205e-07
4.48606e-07
4.48674e-07
4.48205e-07
4.48857e-07
7.20073e-07
7.17556e-07
4.48167e-07
4.49062e-07
4.4836e-07
7.16927e-07
7.18596e-07
7.16719e-07
4.47777e-07
4.48118e-07
4.47873e-07
4.48035e-07
7.17723e-07
7.15598e-07
4.48173e-07
4.48519e-07
4.48212e-07
4.48442e-07
4.48783e-07
4.48156e-07
4.4882e-07
7.20142e-07
7.17185e-07
4.48343e-07
4.49146e-07
4.48347e-07
7.16658e-07
7.18632e-07
7.16909e-07
4.4782e-07
4.48018e-07
4.47862e-07
4.47882e-07
7.18078e-07
7.15784e-07
4.48203e-07
4.48419e-07
4.48237e-07
4.48194e-07
4.48826e-07
4.48196e-07
4.48764e-07
7.19492e-07
7.16957e-07
4.48338e-07
4.49133e-07
4.48264e-07
7.1657e-07
7.18734e-07
7.16809e-07
4.47854e-07
4.47707e-07
4.47815e-07
4.47694e-07
7.17586e-07
7.15825e-07
4.48155e-07
4.48071e-07
4.48102e-07
4.47834e-07
4.48739e-07
4.4811e-07
4.48555e-07
7.18723e-07
7.16039e-07
4.48224e-07
4.49003e-07
4.48034e-07
7.16505e-07
7.18673e-07
7.16404e-07
4.47783e-07
4.47669e-07
4.47763e-07
4.47692e-07
7.17701e-07
7.16225e-07
4.48077e-07
4.4774e-07
4.47946e-07
4.47598e-07
4.48523e-07
4.48096e-07
4.48387e-07
7.18453e-07
7.16528e-07
4.47961e-07
4.48896e-07
4.47725e-07
7.16012e-07
7.18172e-07
7.15959e-07
4.47631e-07
4.4768e-07
4.47552e-07
4.47708e-07
7.18738e-07
7.16607e-07
4.47907e-07
4.47422e-07
4.47842e-07
4.47463e-07
4.48236e-07
4.48088e-07
4.48175e-07
7.18499e-07
7.17206e-07
4.47549e-07
4.48943e-07
4.47466e-07
7.16015e-07
7.17767e-07
7.16137e-07
4.47491e-07
4.4771e-07
4.47471e-07
4.47741e-07
7.18421e-07
7.16285e-07
4.47673e-07
4.47444e-07
4.47653e-07
4.47436e-07
4.48076e-07
4.48021e-07
4.4795e-07
7.19072e-07
7.17267e-07
4.47246e-07
4.48991e-07
4.47276e-07
7.1641e-07
7.17962e-07
7.16135e-07
4.47433e-07
4.4758e-07
4.47414e-07
4.47546e-07
7.18774e-07
7.15924e-07
4.47618e-07
4.47411e-07
4.47594e-07
4.47346e-07
4.4776e-07
4.47781e-07
4.47794e-07
7.19034e-07
7.1705e-07
4.47247e-07
4.48985e-07
4.47262e-07
7.16309e-07
7.18677e-07
7.13725e-07
4.47379e-07
4.47509e-07
4.47348e-07
4.47492e-07
7.18698e-07
7.14282e-07
4.47553e-07
4.47178e-07
4.47547e-07
4.4721e-07
4.47753e-07
4.47681e-07
4.4766e-07
7.18762e-07
7.14415e-07
4.47248e-07
4.4892e-07
4.47227e-07
7.13595e-07