/*--------------------------------*- C++ -*----------------------------------*\
| =========                 |                                                 |
| \\      /  F ield         | OpenFOAM: The Open Source CFD Toolbox           |
|  \\    /   O peration     | Version:                                        |
|   \\  /    A nd           | Website:  www.openfoam.com                      |
|    \\/     M anipulation  |                                                 |
\*---------------------------------------------------------------------------*/
FoamFile
{
    version     2.0;
    format      ascii;
    class       volScalarField;
    location    "4600.5";
    object      p;
}
// * * * * * * * * * * * * * * * * * * * * * * * * * * * * * * * * * * * * * //

dimensions      [0 2 -2 0 0 0 0];


internalField   nonuniform List<scalar> 
247096
(
1.71445e-07
1.71448e-07
1.7159e-07
1.71676e-07
1.71709e-07
1.71667e-07
1.71576e-07
1.71424e-07
1.71448e-07
1.71644e-07
1.71826e-07
1.71922e-07
1.71946e-07
1.71915e-07
1.71807e-07
1.7162e-07
1.7159e-07
1.71826e-07
1.71972e-07
1.72017e-07
1.72025e-07
1.72015e-07
1.71961e-07
1.71797e-07
1.71563e-07
1.71676e-07
1.71922e-07
1.72017e-07
1.72033e-07
1.72033e-07
1.72033e-07
1.72012e-07
1.71899e-07
1.71643e-07
1.71445e-07
1.71709e-07
1.71946e-07
1.72025e-07
1.72033e-07
1.72031e-07
1.72033e-07
1.72021e-07
1.71926e-07
1.71674e-07
1.71667e-07
1.71915e-07
1.72015e-07
1.72033e-07
1.72033e-07
1.72032e-07
1.72009e-07
1.71891e-07
1.71634e-07
1.71576e-07
1.71807e-07
1.71961e-07
1.72012e-07
1.72021e-07
1.72009e-07
1.71949e-07
1.71778e-07
1.71551e-07
1.71424e-07
1.7162e-07
1.71797e-07
1.71899e-07
1.71926e-07
1.71891e-07
1.71778e-07
1.71598e-07
1.71563e-07
1.71643e-07
1.71674e-07
1.71634e-07
1.71551e-07
1.68852e-07
1.68822e-07
1.68833e-07
1.68679e-07
1.68686e-07
1.68701e-07
1.68686e-07
1.68868e-07
1.68824e-07
1.68833e-07
1.68699e-07
1.68526e-07
1.68537e-07
1.68537e-07
1.68526e-07
1.68773e-07
1.68712e-07
1.68679e-07
1.68526e-07
1.68542e-07
1.68551e-07
1.68551e-07
1.68542e-07
1.68526e-07
1.68852e-07
1.6887e-07
1.68852e-07
1.68686e-07
1.68537e-07
1.68551e-07
1.68561e-07
1.68561e-07
1.68551e-07
1.68537e-07
1.68874e-07
1.68879e-07
1.68822e-07
1.68701e-07
1.68537e-07
1.68551e-07
1.68561e-07
1.68561e-07
1.68551e-07
1.68537e-07
1.68875e-07
1.68716e-07
1.68686e-07
1.68526e-07
1.68542e-07
1.68551e-07
1.68551e-07
1.68542e-07
1.68526e-07
1.68864e-07
1.68885e-07
1.68868e-07
1.68773e-07
1.68526e-07
1.68537e-07
1.68537e-07
1.68526e-07
1.68871e-07
1.68774e-07
1.68874e-07
1.68824e-07
1.68712e-07
1.68852e-07
1.68874e-07
1.68875e-07
1.68864e-07
1.68774e-07
1.68889e-07
1.6887e-07
1.68879e-07
1.68716e-07
1.68885e-07
1.68874e-07
1.67043e-07
1.67031e-07
1.67042e-07
1.66895e-07
1.66893e-07
1.66903e-07
1.66896e-07
1.67065e-07
1.67034e-07
1.67042e-07
1.66898e-07
1.66664e-07
1.66667e-07
1.66667e-07
1.66664e-07
1.66934e-07
1.6692e-07
1.66895e-07
1.66664e-07
1.66676e-07
1.66676e-07
1.66676e-07
1.66676e-07
1.66664e-07
1.66994e-07
1.67067e-07
1.67043e-07
1.66893e-07
1.66667e-07
1.66676e-07
1.66679e-07
1.66679e-07
1.66676e-07
1.66667e-07
1.66996e-07
1.67055e-07
1.67031e-07
1.66903e-07
1.66667e-07
1.66676e-07
1.66679e-07
1.66679e-07
1.66676e-07
1.66667e-07
1.66993e-07
1.66926e-07
1.66896e-07
1.66664e-07
1.66676e-07
1.66676e-07
1.66676e-07
1.66676e-07
1.66664e-07
1.66994e-07
1.67062e-07
1.67065e-07
1.66934e-07
1.66664e-07
1.66667e-07
1.66667e-07
1.66664e-07
1.66974e-07
1.66955e-07
1.67075e-07
1.67034e-07
1.6692e-07
1.66994e-07
1.66996e-07
1.66993e-07
1.66994e-07
1.66955e-07
1.67079e-07
1.67067e-07
1.67055e-07
1.66926e-07
1.67063e-07
1.67075e-07
1.65241e-07
1.65229e-07
1.6524e-07
1.65092e-07
1.6509e-07
1.651e-07
1.65093e-07
1.65264e-07
1.65232e-07
1.6524e-07
1.65096e-07
1.64865e-07
1.64867e-07
1.64867e-07
1.64865e-07
1.65134e-07
1.65117e-07
1.65092e-07
1.64865e-07
1.64873e-07
1.6487e-07
1.6487e-07
1.64873e-07
1.64865e-07
1.65195e-07
1.65266e-07
1.65241e-07
1.6509e-07
1.64867e-07
1.6487e-07
1.64869e-07
1.64869e-07
1.6487e-07
1.64867e-07
1.65196e-07
1.65254e-07
1.65229e-07
1.651e-07
1.64867e-07
1.6487e-07
1.64869e-07
1.64869e-07
1.6487e-07
1.64867e-07
1.65193e-07
1.65124e-07
1.65093e-07
1.64865e-07
1.64873e-07
1.6487e-07
1.6487e-07
1.64873e-07
1.64865e-07
1.65195e-07
1.65262e-07
1.65264e-07
1.65134e-07
1.64865e-07
1.64867e-07
1.64867e-07
1.64865e-07
1.65177e-07
1.65153e-07
1.65273e-07
1.65232e-07
1.65117e-07
1.65195e-07
1.65196e-07
1.65193e-07
1.65195e-07
1.65153e-07
1.65279e-07
1.65266e-07
1.65254e-07
1.65124e-07
1.65262e-07
1.65273e-07
1.63437e-07
1.63425e-07
1.63436e-07
1.63288e-07
1.63286e-07
1.63296e-07
1.63289e-07
1.6346e-07
1.63428e-07
1.63436e-07
1.63291e-07
1.63061e-07
1.63062e-07
1.63062e-07
1.63061e-07
1.6333e-07
1.63313e-07
1.63288e-07
1.63061e-07
1.63068e-07
1.63065e-07
1.63065e-07
1.63068e-07
1.63061e-07
1.63391e-07
1.63462e-07
1.63437e-07
1.63286e-07
1.63062e-07
1.63065e-07
1.63064e-07
1.63064e-07
1.63065e-07
1.63062e-07
1.63393e-07
1.6345e-07
1.63425e-07
1.63296e-07
1.63062e-07
1.63065e-07
1.63064e-07
1.63064e-07
1.63065e-07
1.63062e-07
1.63389e-07
1.6332e-07
1.63289e-07
1.63061e-07
1.63068e-07
1.63065e-07
1.63065e-07
1.63068e-07
1.63061e-07
1.63391e-07
1.63458e-07
1.6346e-07
1.6333e-07
1.63061e-07
1.63062e-07
1.63062e-07
1.63061e-07
1.63373e-07
1.63349e-07
1.6347e-07
1.63428e-07
1.63313e-07
1.63391e-07
1.63393e-07
1.63389e-07
1.63391e-07
1.63349e-07
1.63475e-07
1.63462e-07
1.6345e-07
1.6332e-07
1.63458e-07
1.6347e-07
1.6163e-07
1.61619e-07
1.61629e-07
1.61481e-07
1.61479e-07
1.61489e-07
1.61482e-07
1.61654e-07
1.61621e-07
1.61629e-07
1.61484e-07
1.61253e-07
1.61255e-07
1.61255e-07
1.61253e-07
1.61523e-07
1.61506e-07
1.61481e-07
1.61253e-07
1.61261e-07
1.61257e-07
1.61257e-07
1.61261e-07
1.61253e-07
1.61584e-07
1.61655e-07
1.6163e-07
1.61479e-07
1.61255e-07
1.61257e-07
1.61256e-07
1.61256e-07
1.61257e-07
1.61255e-07
1.61586e-07
1.61644e-07
1.61619e-07
1.61489e-07
1.61255e-07
1.61257e-07
1.61256e-07
1.61256e-07
1.61257e-07
1.61255e-07
1.61582e-07
1.61513e-07
1.61482e-07
1.61253e-07
1.61261e-07
1.61257e-07
1.61257e-07
1.61261e-07
1.61253e-07
1.61584e-07
1.61652e-07
1.61654e-07
1.61523e-07
1.61253e-07
1.61255e-07
1.61255e-07
1.61253e-07
1.61566e-07
1.61542e-07
1.61663e-07
1.61621e-07
1.61506e-07
1.61584e-07
1.61586e-07
1.61582e-07
1.61584e-07
1.61542e-07
1.61668e-07
1.61655e-07
1.61644e-07
1.61513e-07
1.61652e-07
1.61663e-07
1.59823e-07
1.59811e-07
1.59821e-07
1.59674e-07
1.59671e-07
1.59681e-07
1.59675e-07
1.59846e-07
1.59814e-07
1.59821e-07
1.59677e-07
1.59446e-07
1.59447e-07
1.59447e-07
1.59446e-07
1.59715e-07
1.59699e-07
1.59674e-07
1.59446e-07
1.59453e-07
1.5945e-07
1.5945e-07
1.59453e-07
1.59446e-07
1.59777e-07
1.59848e-07
1.59823e-07
1.59671e-07
1.59447e-07
1.5945e-07
1.59448e-07
1.59448e-07
1.5945e-07
1.59447e-07
1.59778e-07
1.59836e-07
1.59811e-07
1.59681e-07
1.59447e-07
1.5945e-07
1.59448e-07
1.59448e-07
1.5945e-07
1.59447e-07
1.59774e-07
1.59705e-07
1.59675e-07
1.59446e-07
1.59453e-07
1.5945e-07
1.5945e-07
1.59453e-07
1.59446e-07
1.59776e-07
1.59844e-07
1.59846e-07
1.59715e-07
1.59446e-07
1.59447e-07
1.59447e-07
1.59446e-07
1.59758e-07
1.59735e-07
1.59855e-07
1.59814e-07
1.59699e-07
1.59777e-07
1.59778e-07
1.59774e-07
1.59776e-07
1.59735e-07
1.59861e-07
1.59848e-07
1.59836e-07
1.59705e-07
1.59844e-07
1.59855e-07
1.58015e-07
1.58003e-07
1.58014e-07
1.57866e-07
1.57864e-07
1.57874e-07
1.57867e-07
1.58039e-07
1.58006e-07
1.58014e-07
1.57869e-07
1.57638e-07
1.57639e-07
1.57639e-07
1.57638e-07
1.57908e-07
1.57891e-07
1.57866e-07
1.57638e-07
1.57645e-07
1.57642e-07
1.57642e-07
1.57645e-07
1.57638e-07
1.57969e-07
1.5804e-07
1.58015e-07
1.57864e-07
1.57639e-07
1.57642e-07
1.57641e-07
1.57641e-07
1.57642e-07
1.57639e-07
1.5797e-07
1.58029e-07
1.58003e-07
1.57874e-07
1.57639e-07
1.57642e-07
1.57641e-07
1.57641e-07
1.57642e-07
1.57639e-07
1.57967e-07
1.57898e-07
1.57867e-07
1.57638e-07
1.57645e-07
1.57642e-07
1.57642e-07
1.57645e-07
1.57638e-07
1.57969e-07
1.58037e-07
1.58039e-07
1.57908e-07
1.57638e-07
1.57639e-07
1.57639e-07
1.57638e-07
1.57951e-07
1.57927e-07
1.58048e-07
1.58006e-07
1.57891e-07
1.57969e-07
1.5797e-07
1.57967e-07
1.57969e-07
1.57927e-07
1.58053e-07
1.5804e-07
1.58029e-07
1.57898e-07
1.58037e-07
1.58048e-07
1.56208e-07
1.56196e-07
1.56206e-07
1.56059e-07
1.56056e-07
1.56066e-07
1.5606e-07
1.56231e-07
1.56198e-07
1.56206e-07
1.56062e-07
1.55831e-07
1.55832e-07
1.55832e-07
1.55831e-07
1.561e-07
1.56084e-07
1.56059e-07
1.55831e-07
1.55838e-07
1.55834e-07
1.55834e-07
1.55838e-07
1.55831e-07
1.56162e-07
1.56233e-07
1.56208e-07
1.56056e-07
1.55832e-07
1.55834e-07
1.55833e-07
1.55833e-07
1.55834e-07
1.55832e-07
1.56163e-07
1.56221e-07
1.56196e-07
1.56066e-07
1.55832e-07
1.55834e-07
1.55833e-07
1.55833e-07
1.55834e-07
1.55832e-07
1.56159e-07
1.5609e-07
1.5606e-07
1.55831e-07
1.55838e-07
1.55834e-07
1.55834e-07
1.55838e-07
1.55831e-07
1.56161e-07
1.56229e-07
1.56231e-07
1.561e-07
1.55831e-07
1.55832e-07
1.55832e-07
1.55831e-07
1.56143e-07
1.5612e-07
1.5624e-07
1.56198e-07
1.56084e-07
1.56162e-07
1.56163e-07
1.56159e-07
1.56161e-07
1.5612e-07
1.56245e-07
1.56233e-07
1.56221e-07
1.5609e-07
1.56229e-07
1.5624e-07
1.544e-07
1.54388e-07
1.54399e-07
1.54251e-07
1.54249e-07
1.54259e-07
1.54252e-07
1.54423e-07
1.54391e-07
1.54399e-07
1.54254e-07
1.54023e-07
1.54024e-07
1.54024e-07
1.54023e-07
1.54293e-07
1.54276e-07
1.54251e-07
1.54023e-07
1.5403e-07
1.54027e-07
1.54027e-07
1.5403e-07
1.54023e-07
1.54354e-07
1.54425e-07
1.544e-07
1.54249e-07
1.54024e-07
1.54027e-07
1.54025e-07
1.54025e-07
1.54027e-07
1.54024e-07
1.54355e-07
1.54413e-07
1.54388e-07
1.54259e-07
1.54024e-07
1.54027e-07
1.54025e-07
1.54025e-07
1.54027e-07
1.54024e-07
1.54352e-07
1.54283e-07
1.54252e-07
1.54023e-07
1.5403e-07
1.54027e-07
1.54027e-07
1.5403e-07
1.54023e-07
1.54354e-07
1.54421e-07
1.54423e-07
1.54293e-07
1.54023e-07
1.54024e-07
1.54024e-07
1.54023e-07
1.54336e-07
1.54312e-07
1.54433e-07
1.54391e-07
1.54276e-07
1.54354e-07
1.54355e-07
1.54352e-07
1.54354e-07
1.54312e-07
1.54438e-07
1.54425e-07
1.54413e-07
1.54283e-07
1.54421e-07
1.54433e-07
1.52593e-07
1.52581e-07
1.52591e-07
1.52444e-07
1.52441e-07
1.52451e-07
1.52444e-07
1.52616e-07
1.52583e-07
1.52591e-07
1.52447e-07
1.52216e-07
1.52217e-07
1.52217e-07
1.52216e-07
1.52485e-07
1.52468e-07
1.52444e-07
1.52216e-07
1.52222e-07
1.52219e-07
1.52219e-07
1.52222e-07
1.52216e-07
1.52546e-07
1.52618e-07
1.52593e-07
1.52441e-07
1.52217e-07
1.52219e-07
1.52218e-07
1.52218e-07
1.52219e-07
1.52217e-07
1.52548e-07
1.52606e-07
1.52581e-07
1.52451e-07
1.52217e-07
1.52219e-07
1.52218e-07
1.52218e-07
1.52219e-07
1.52217e-07
1.52544e-07
1.52475e-07
1.52444e-07
1.52216e-07
1.52222e-07
1.52219e-07
1.52219e-07
1.52222e-07
1.52216e-07
1.52546e-07
1.52614e-07
1.52616e-07
1.52485e-07
1.52216e-07
1.52217e-07
1.52217e-07
1.52216e-07
1.52528e-07
1.52505e-07
1.52625e-07
1.52583e-07
1.52468e-07
1.52546e-07
1.52548e-07
1.52544e-07
1.52546e-07
1.52505e-07
1.5263e-07
1.52618e-07
1.52606e-07
1.52475e-07
1.52614e-07
1.52625e-07
1.50785e-07
1.50773e-07
1.50784e-07
1.50636e-07
1.50633e-07
1.50644e-07
1.50637e-07
1.50808e-07
1.50776e-07
1.50784e-07
1.50639e-07
1.50408e-07
1.50409e-07
1.50409e-07
1.50408e-07
1.50678e-07
1.50661e-07
1.50636e-07
1.50408e-07
1.50415e-07
1.50412e-07
1.50412e-07
1.50415e-07
1.50408e-07
1.50739e-07
1.5081e-07
1.50785e-07
1.50633e-07
1.50409e-07
1.50412e-07
1.5041e-07
1.5041e-07
1.50412e-07
1.50409e-07
1.5074e-07
1.50798e-07
1.50773e-07
1.50644e-07
1.50409e-07
1.50412e-07
1.5041e-07
1.5041e-07
1.50412e-07
1.50409e-07
1.50737e-07
1.50668e-07
1.50637e-07
1.50408e-07
1.50415e-07
1.50412e-07
1.50412e-07
1.50415e-07
1.50408e-07
1.50739e-07
1.50806e-07
1.50808e-07
1.50678e-07
1.50408e-07
1.50409e-07
1.50409e-07
1.50408e-07
1.50721e-07
1.50697e-07
1.50818e-07
1.50776e-07
1.50661e-07
1.50739e-07
1.5074e-07
1.50737e-07
1.50739e-07
1.50697e-07
1.50823e-07
1.5081e-07
1.50798e-07
1.50668e-07
1.50806e-07
1.50818e-07
1.48977e-07
1.48966e-07
1.48976e-07
1.48828e-07
1.48826e-07
1.48836e-07
1.48829e-07
1.49001e-07
1.48968e-07
1.48976e-07
1.48831e-07
1.486e-07
1.48601e-07
1.48601e-07
1.486e-07
1.4887e-07
1.48853e-07
1.48829e-07
1.486e-07
1.48607e-07
1.48604e-07
1.48604e-07
1.48607e-07
1.486e-07
1.48931e-07
1.49002e-07
1.48977e-07
1.48826e-07
1.48601e-07
1.48604e-07
1.48603e-07
1.48603e-07
1.48604e-07
1.48601e-07
1.48933e-07
1.48991e-07
1.48966e-07
1.48836e-07
1.48601e-07
1.48604e-07
1.48603e-07
1.48603e-07
1.48604e-07
1.48601e-07
1.48929e-07
1.4886e-07
1.48829e-07
1.486e-07
1.48607e-07
1.48604e-07
1.48604e-07
1.48607e-07
1.486e-07
1.48931e-07
1.48999e-07
1.49001e-07
1.4887e-07
1.486e-07
1.48601e-07
1.48601e-07
1.486e-07
1.48913e-07
1.48889e-07
1.4901e-07
1.48968e-07
1.48853e-07
1.48931e-07
1.48933e-07
1.48929e-07
1.48931e-07
1.48889e-07
1.49015e-07
1.49002e-07
1.48991e-07
1.4886e-07
1.48999e-07
1.4901e-07
1.4717e-07
1.47158e-07
1.47168e-07
1.47021e-07
1.47018e-07
1.47029e-07
1.47022e-07
1.47193e-07
1.47161e-07
1.47168e-07
1.47024e-07
1.46793e-07
1.46794e-07
1.46794e-07
1.46793e-07
1.47063e-07
1.47046e-07
1.47021e-07
1.46793e-07
1.468e-07
1.46797e-07
1.46797e-07
1.468e-07
1.46793e-07
1.47124e-07
1.47195e-07
1.4717e-07
1.47018e-07
1.46794e-07
1.46797e-07
1.46795e-07
1.46795e-07
1.46797e-07
1.46794e-07
1.47125e-07
1.47183e-07
1.47158e-07
1.47029e-07
1.46794e-07
1.46797e-07
1.46795e-07
1.46795e-07
1.46797e-07
1.46794e-07
1.47121e-07
1.47052e-07
1.47022e-07
1.46793e-07
1.468e-07
1.46797e-07
1.46797e-07
1.468e-07
1.46793e-07
1.47123e-07
1.47191e-07
1.47193e-07
1.47063e-07
1.46793e-07
1.46794e-07
1.46794e-07
1.46793e-07
1.47106e-07
1.47082e-07
1.47203e-07
1.47161e-07
1.47046e-07
1.47124e-07
1.47125e-07
1.47121e-07
1.47123e-07
1.47082e-07
1.47208e-07
1.47195e-07
1.47183e-07
1.47052e-07
1.47191e-07
1.47203e-07
1.45362e-07
1.4535e-07
1.45361e-07
1.45213e-07
1.45211e-07
1.45221e-07
1.45214e-07
1.45386e-07
1.45353e-07
1.45361e-07
1.45216e-07
1.44985e-07
1.44986e-07
1.44986e-07
1.44985e-07
1.45255e-07
1.45238e-07
1.45213e-07
1.44985e-07
1.44992e-07
1.44989e-07
1.44989e-07
1.44992e-07
1.44985e-07
1.45316e-07
1.45387e-07
1.45362e-07
1.45211e-07
1.44986e-07
1.44989e-07
1.44988e-07
1.44988e-07
1.44989e-07
1.44986e-07
1.45317e-07
1.45376e-07
1.4535e-07
1.45221e-07
1.44986e-07
1.44989e-07
1.44988e-07
1.44988e-07
1.44989e-07
1.44986e-07
1.45314e-07
1.45245e-07
1.45214e-07
1.44985e-07
1.44992e-07
1.44989e-07
1.44989e-07
1.44992e-07
1.44985e-07
1.45316e-07
1.45384e-07
1.45386e-07
1.45255e-07
1.44985e-07
1.44986e-07
1.44986e-07
1.44985e-07
1.45298e-07
1.45274e-07
1.45395e-07
1.45353e-07
1.45238e-07
1.45316e-07
1.45318e-07
1.45314e-07
1.45316e-07
1.45274e-07
1.454e-07
1.45387e-07
1.45376e-07
1.45245e-07
1.45384e-07
1.45395e-07
1.43555e-07
1.43543e-07
1.43553e-07
1.43406e-07
1.43403e-07
1.43413e-07
1.43407e-07
1.43578e-07
1.43546e-07
1.43553e-07
1.43409e-07
1.43178e-07
1.43179e-07
1.43179e-07
1.43178e-07
1.43447e-07
1.43431e-07
1.43406e-07
1.43178e-07
1.43185e-07
1.43181e-07
1.43181e-07
1.43185e-07
1.43178e-07
1.43509e-07
1.4358e-07
1.43555e-07
1.43403e-07
1.43179e-07
1.43181e-07
1.4318e-07
1.4318e-07
1.43181e-07
1.43179e-07
1.4351e-07
1.43568e-07
1.43543e-07
1.43413e-07
1.43179e-07
1.43181e-07
1.4318e-07
1.4318e-07
1.43181e-07
1.43179e-07
1.43506e-07
1.43437e-07
1.43407e-07
1.43178e-07
1.43185e-07
1.43181e-07
1.43181e-07
1.43185e-07
1.43178e-07
1.43508e-07
1.43576e-07
1.43578e-07
1.43447e-07
1.43178e-07
1.43179e-07
1.43179e-07
1.43178e-07
1.4349e-07
1.43467e-07
1.43587e-07
1.43546e-07
1.43431e-07
1.43509e-07
1.4351e-07
1.43506e-07
1.43508e-07
1.43467e-07
1.43593e-07
1.4358e-07
1.43568e-07
1.43437e-07
1.43576e-07
1.43587e-07
1.41747e-07
1.41735e-07
1.41746e-07
1.41598e-07
1.41596e-07
1.41606e-07
1.41599e-07
1.41771e-07
1.41738e-07
1.41746e-07
1.41601e-07
1.4137e-07
1.41371e-07
1.41371e-07
1.4137e-07
1.4164e-07
1.41623e-07
1.41598e-07
1.4137e-07
1.41377e-07
1.41374e-07
1.41374e-07
1.41377e-07
1.4137e-07
1.41701e-07
1.41772e-07
1.41747e-07
1.41596e-07
1.41371e-07
1.41374e-07
1.41373e-07
1.41373e-07
1.41374e-07
1.41371e-07
1.41702e-07
1.41761e-07
1.41735e-07
1.41606e-07
1.41371e-07
1.41374e-07
1.41373e-07
1.41373e-07
1.41374e-07
1.41371e-07
1.41699e-07
1.4163e-07
1.41599e-07
1.4137e-07
1.41377e-07
1.41374e-07
1.41374e-07
1.41377e-07
1.4137e-07
1.41701e-07
1.41769e-07
1.41771e-07
1.4164e-07
1.4137e-07
1.41371e-07
1.41371e-07
1.4137e-07
1.41683e-07
1.41659e-07
1.4178e-07
1.41738e-07
1.41623e-07
1.41701e-07
1.41702e-07
1.41699e-07
1.41701e-07
1.41659e-07
1.41785e-07
1.41772e-07
1.41761e-07
1.4163e-07
1.41769e-07
1.4178e-07
1.3994e-07
1.39928e-07
1.39938e-07
1.39791e-07
1.39788e-07
1.39798e-07
1.39792e-07
1.39963e-07
1.3993e-07
1.39938e-07
1.39794e-07
1.39563e-07
1.39564e-07
1.39564e-07
1.39563e-07
1.39832e-07
1.39816e-07
1.39791e-07
1.39563e-07
1.3957e-07
1.39566e-07
1.39566e-07
1.3957e-07
1.39563e-07
1.39894e-07
1.39965e-07
1.3994e-07
1.39788e-07
1.39564e-07
1.39566e-07
1.39565e-07
1.39565e-07
1.39566e-07
1.39564e-07
1.39895e-07
1.39953e-07
1.39928e-07
1.39798e-07
1.39564e-07
1.39566e-07
1.39565e-07
1.39565e-07
1.39566e-07
1.39564e-07
1.39891e-07
1.39822e-07
1.39792e-07
1.39563e-07
1.3957e-07
1.39566e-07
1.39566e-07
1.3957e-07
1.39563e-07
1.39893e-07
1.39961e-07
1.39963e-07
1.39832e-07
1.39563e-07
1.39564e-07
1.39564e-07
1.39563e-07
1.39875e-07
1.39852e-07
1.39972e-07
1.3993e-07
1.39816e-07
1.39894e-07
1.39895e-07
1.39891e-07
1.39893e-07
1.39852e-07
1.39978e-07
1.39965e-07
1.39953e-07
1.39822e-07
1.39961e-07
1.39972e-07
1.38132e-07
1.3812e-07
1.38131e-07
1.37983e-07
1.37981e-07
1.37991e-07
1.37984e-07
1.38156e-07
1.38123e-07
1.38131e-07
1.37986e-07
1.37755e-07
1.37756e-07
1.37756e-07
1.37755e-07
1.38025e-07
1.38008e-07
1.37983e-07
1.37755e-07
1.37762e-07
1.37759e-07
1.37759e-07
1.37762e-07
1.37755e-07
1.38086e-07
1.38157e-07
1.38132e-07
1.37981e-07
1.37756e-07
1.37759e-07
1.37757e-07
1.37757e-07
1.37759e-07
1.37756e-07
1.38087e-07
1.38145e-07
1.3812e-07
1.37991e-07
1.37756e-07
1.37759e-07
1.37757e-07
1.37757e-07
1.37759e-07
1.37756e-07
1.38084e-07
1.38015e-07
1.37984e-07
1.37755e-07
1.37762e-07
1.37759e-07
1.37759e-07
1.37762e-07
1.37755e-07
1.38086e-07
1.38153e-07
1.38156e-07
1.38025e-07
1.37755e-07
1.37756e-07
1.37756e-07
1.37755e-07
1.38068e-07
1.38044e-07
1.38165e-07
1.38123e-07
1.38008e-07
1.38086e-07
1.38087e-07
1.38084e-07
1.38086e-07
1.38044e-07
1.3817e-07
1.38157e-07
1.38145e-07
1.38015e-07
1.38153e-07
1.38165e-07
1.36325e-07
1.36313e-07
1.36323e-07
1.36176e-07
1.36173e-07
1.36183e-07
1.36176e-07
1.36348e-07
1.36315e-07
1.36323e-07
1.36179e-07
1.35948e-07
1.35949e-07
1.35949e-07
1.35948e-07
1.36217e-07
1.36201e-07
1.36176e-07
1.35948e-07
1.35955e-07
1.35951e-07
1.35951e-07
1.35955e-07
1.35948e-07
1.36279e-07
1.3635e-07
1.36325e-07
1.36173e-07
1.35949e-07
1.35951e-07
1.3595e-07
1.3595e-07
1.35951e-07
1.35949e-07
1.3628e-07
1.36338e-07
1.36313e-07
1.36183e-07
1.35949e-07
1.35951e-07
1.3595e-07
1.3595e-07
1.35951e-07
1.35949e-07
1.36276e-07
1.36207e-07
1.36176e-07
1.35948e-07
1.35955e-07
1.35951e-07
1.35951e-07
1.35955e-07
1.35948e-07
1.36278e-07
1.36346e-07
1.36348e-07
1.36217e-07
1.35948e-07
1.35949e-07
1.35949e-07
1.35948e-07
1.3626e-07
1.36237e-07
1.36357e-07
1.36315e-07
1.36201e-07
1.36279e-07
1.3628e-07
1.36276e-07
1.36278e-07
1.36237e-07
1.36362e-07
1.3635e-07
1.36338e-07
1.36207e-07
1.36346e-07
1.36357e-07
1.34517e-07
1.34505e-07
1.34516e-07
1.34368e-07
1.34365e-07
1.34376e-07
1.34369e-07
1.3454e-07
1.34508e-07
1.34516e-07
1.34371e-07
1.3414e-07
1.34141e-07
1.34141e-07
1.3414e-07
1.3441e-07
1.34393e-07
1.34368e-07
1.3414e-07
1.34147e-07
1.34144e-07
1.34144e-07
1.34147e-07
1.3414e-07
1.34471e-07
1.34542e-07
1.34517e-07
1.34365e-07
1.34141e-07
1.34144e-07
1.34142e-07
1.34142e-07
1.34144e-07
1.34141e-07
1.34472e-07
1.3453e-07
1.34505e-07
1.34376e-07
1.34141e-07
1.34144e-07
1.34142e-07
1.34142e-07
1.34144e-07
1.34141e-07
1.34469e-07
1.344e-07
1.34369e-07
1.3414e-07
1.34147e-07
1.34144e-07
1.34144e-07
1.34147e-07
1.3414e-07
1.34471e-07
1.34538e-07
1.3454e-07
1.3441e-07
1.3414e-07
1.34141e-07
1.34141e-07
1.3414e-07
1.34453e-07
1.34429e-07
1.3455e-07
1.34508e-07
1.34393e-07
1.34471e-07
1.34472e-07
1.34469e-07
1.34471e-07
1.34429e-07
1.34555e-07
1.34542e-07
1.3453e-07
1.344e-07
1.34538e-07
1.3455e-07
1.32709e-07
1.32698e-07
1.32708e-07
1.32561e-07
1.32558e-07
1.32568e-07
1.32561e-07
1.32733e-07
1.327e-07
1.32708e-07
1.32563e-07
1.32332e-07
1.32333e-07
1.32333e-07
1.32332e-07
1.32602e-07
1.32585e-07
1.32561e-07
1.32332e-07
1.32339e-07
1.32336e-07
1.32336e-07
1.32339e-07
1.32332e-07
1.32663e-07
1.32734e-07
1.32709e-07
1.32558e-07
1.32333e-07
1.32336e-07
1.32335e-07
1.32335e-07
1.32336e-07
1.32333e-07
1.32665e-07
1.32723e-07
1.32698e-07
1.32568e-07
1.32333e-07
1.32336e-07
1.32335e-07
1.32335e-07
1.32336e-07
1.32333e-07
1.32661e-07
1.32592e-07
1.32561e-07
1.32332e-07
1.32339e-07
1.32336e-07
1.32336e-07
1.32339e-07
1.32332e-07
1.32663e-07
1.32731e-07
1.32733e-07
1.32602e-07
1.32332e-07
1.32333e-07
1.32333e-07
1.32332e-07
1.32645e-07
1.32621e-07
1.32742e-07
1.327e-07
1.32585e-07
1.32663e-07
1.32665e-07
1.32661e-07
1.32663e-07
1.32621e-07
1.32747e-07
1.32734e-07
1.32723e-07
1.32592e-07
1.32731e-07
1.32742e-07
1.30902e-07
1.3089e-07
1.309e-07
1.30753e-07
1.3075e-07
1.30761e-07
1.30754e-07
1.30925e-07
1.30893e-07
1.30901e-07
1.30756e-07
1.30525e-07
1.30526e-07
1.30526e-07
1.30525e-07
1.30795e-07
1.30778e-07
1.30753e-07
1.30525e-07
1.30532e-07
1.30529e-07
1.30529e-07
1.30532e-07
1.30525e-07
1.30856e-07
1.30927e-07
1.30902e-07
1.3075e-07
1.30526e-07
1.30529e-07
1.30527e-07
1.30527e-07
1.30529e-07
1.30526e-07
1.30857e-07
1.30915e-07
1.3089e-07
1.30761e-07
1.30526e-07
1.30529e-07
1.30527e-07
1.30527e-07
1.30529e-07
1.30526e-07
1.30853e-07
1.30784e-07
1.30754e-07
1.30525e-07
1.30532e-07
1.30529e-07
1.30529e-07
1.30532e-07
1.30525e-07
1.30855e-07
1.30923e-07
1.30925e-07
1.30795e-07
1.30525e-07
1.30526e-07
1.30526e-07
1.30525e-07
1.30838e-07
1.30814e-07
1.30935e-07
1.30893e-07
1.30778e-07
1.30856e-07
1.30857e-07
1.30853e-07
1.30855e-07
1.30814e-07
1.3094e-07
1.30927e-07
1.30915e-07
1.30784e-07
1.30923e-07
1.30935e-07
1.29094e-07
1.29083e-07
1.29093e-07
1.28945e-07
1.28943e-07
1.28953e-07
1.28946e-07
1.29118e-07
1.29085e-07
1.29093e-07
1.28948e-07
1.28717e-07
1.28718e-07
1.28718e-07
1.28717e-07
1.28987e-07
1.2897e-07
1.28945e-07
1.28717e-07
1.28724e-07
1.28721e-07
1.28721e-07
1.28724e-07
1.28717e-07
1.29048e-07
1.29119e-07
1.29094e-07
1.28943e-07
1.28718e-07
1.28721e-07
1.2872e-07
1.2872e-07
1.28721e-07
1.28718e-07
1.2905e-07
1.29108e-07
1.29082e-07
1.28953e-07
1.28718e-07
1.28721e-07
1.2872e-07
1.2872e-07
1.28721e-07
1.28718e-07
1.29046e-07
1.28977e-07
1.28946e-07
1.28717e-07
1.28724e-07
1.28721e-07
1.28721e-07
1.28724e-07
1.28717e-07
1.29048e-07
1.29116e-07
1.29118e-07
1.28987e-07
1.28717e-07
1.28718e-07
1.28718e-07
1.28717e-07
1.2903e-07
1.29006e-07
1.29127e-07
1.29085e-07
1.2897e-07
1.29048e-07
1.2905e-07
1.29046e-07
1.29048e-07
1.29006e-07
1.29132e-07
1.29119e-07
1.29108e-07
1.28977e-07
1.29116e-07
1.29127e-07
1.27287e-07
1.27275e-07
1.27285e-07
1.27138e-07
1.27135e-07
1.27145e-07
1.27139e-07
1.2731e-07
1.27278e-07
1.27285e-07
1.27141e-07
1.2691e-07
1.26911e-07
1.26911e-07
1.2691e-07
1.27179e-07
1.27163e-07
1.27138e-07
1.2691e-07
1.26917e-07
1.26913e-07
1.26913e-07
1.26917e-07
1.2691e-07
1.27241e-07
1.27312e-07
1.27287e-07
1.27135e-07
1.26911e-07
1.26913e-07
1.26912e-07
1.26912e-07
1.26913e-07
1.26911e-07
1.27242e-07
1.273e-07
1.27275e-07
1.27145e-07
1.26911e-07
1.26913e-07
1.26912e-07
1.26912e-07
1.26913e-07
1.26911e-07
1.27238e-07
1.27169e-07
1.27139e-07
1.2691e-07
1.26917e-07
1.26913e-07
1.26913e-07
1.26917e-07
1.2691e-07
1.2724e-07
1.27308e-07
1.2731e-07
1.27179e-07
1.2691e-07
1.26911e-07
1.26911e-07
1.2691e-07
1.27222e-07
1.27199e-07
1.27319e-07
1.27278e-07
1.27163e-07
1.27241e-07
1.27242e-07
1.27238e-07
1.2724e-07
1.27199e-07
1.27325e-07
1.27312e-07
1.273e-07
1.27169e-07
1.27308e-07
1.27319e-07
1.25479e-07
1.25467e-07
1.25478e-07
1.2533e-07
1.25328e-07
1.25338e-07
1.25331e-07
1.25503e-07
1.2547e-07
1.25478e-07
1.25333e-07
1.25102e-07
1.25103e-07
1.25103e-07
1.25102e-07
1.25372e-07
1.25355e-07
1.2533e-07
1.25102e-07
1.25109e-07
1.25106e-07
1.25106e-07
1.25109e-07
1.25102e-07
1.25433e-07
1.25504e-07
1.25479e-07
1.25328e-07
1.25103e-07
1.25106e-07
1.25105e-07
1.25105e-07
1.25106e-07
1.25103e-07
1.25434e-07
1.25493e-07
1.25467e-07
1.25338e-07
1.25103e-07
1.25106e-07
1.25105e-07
1.25105e-07
1.25106e-07
1.25103e-07
1.25431e-07
1.25362e-07
1.25331e-07
1.25102e-07
1.25109e-07
1.25106e-07
1.25106e-07
1.25109e-07
1.25102e-07
1.25433e-07
1.25501e-07
1.25503e-07
1.25372e-07
1.25102e-07
1.25103e-07
1.25103e-07
1.25102e-07
1.25415e-07
1.25391e-07
1.25512e-07
1.2547e-07
1.25355e-07
1.25433e-07
1.25434e-07
1.25431e-07
1.25433e-07
1.25391e-07
1.25517e-07
1.25504e-07
1.25493e-07
1.25362e-07
1.25501e-07
1.25512e-07
1.23672e-07
1.2366e-07
1.2367e-07
1.23523e-07
1.2352e-07
1.2353e-07
1.23524e-07
1.23695e-07
1.23662e-07
1.2367e-07
1.23526e-07
1.23295e-07
1.23296e-07
1.23296e-07
1.23295e-07
1.23564e-07
1.23548e-07
1.23523e-07
1.23295e-07
1.23302e-07
1.23298e-07
1.23298e-07
1.23302e-07
1.23295e-07
1.23626e-07
1.23697e-07
1.23672e-07
1.2352e-07
1.23296e-07
1.23298e-07
1.23297e-07
1.23297e-07
1.23298e-07
1.23296e-07
1.23627e-07
1.23685e-07
1.2366e-07
1.2353e-07
1.23296e-07
1.23298e-07
1.23297e-07
1.23297e-07
1.23298e-07
1.23296e-07
1.23623e-07
1.23554e-07
1.23524e-07
1.23295e-07
1.23302e-07
1.23298e-07
1.23298e-07
1.23302e-07
1.23295e-07
1.23625e-07
1.23693e-07
1.23695e-07
1.23564e-07
1.23295e-07
1.23296e-07
1.23296e-07
1.23295e-07
1.23607e-07
1.23584e-07
1.23704e-07
1.23662e-07
1.23548e-07
1.23626e-07
1.23627e-07
1.23623e-07
1.23625e-07
1.23584e-07
1.23709e-07
1.23697e-07
1.23685e-07
1.23554e-07
1.23693e-07
1.23704e-07
1.21864e-07
1.21852e-07
1.21863e-07
1.21715e-07
1.21712e-07
1.21723e-07
1.21716e-07
1.21887e-07
1.21855e-07
1.21863e-07
1.21718e-07
1.21487e-07
1.21488e-07
1.21488e-07
1.21487e-07
1.21757e-07
1.2174e-07
1.21715e-07
1.21487e-07
1.21494e-07
1.21491e-07
1.21491e-07
1.21494e-07
1.21487e-07
1.21818e-07
1.21889e-07
1.21864e-07
1.21712e-07
1.21488e-07
1.21491e-07
1.21489e-07
1.21489e-07
1.21491e-07
1.21488e-07
1.21819e-07
1.21877e-07
1.21852e-07
1.21723e-07
1.21488e-07
1.21491e-07
1.21489e-07
1.21489e-07
1.21491e-07
1.21488e-07
1.21816e-07
1.21747e-07
1.21716e-07
1.21487e-07
1.21494e-07
1.21491e-07
1.21491e-07
1.21494e-07
1.21487e-07
1.21818e-07
1.21885e-07
1.21887e-07
1.21757e-07
1.21487e-07
1.21488e-07
1.21488e-07
1.21487e-07
1.218e-07
1.21776e-07
1.21897e-07
1.21855e-07
1.2174e-07
1.21818e-07
1.21819e-07
1.21816e-07
1.21818e-07
1.21776e-07
1.21902e-07
1.21889e-07
1.21877e-07
1.21747e-07
1.21885e-07
1.21897e-07
1.20057e-07
1.20045e-07
1.20055e-07
1.19908e-07
1.19905e-07
1.19915e-07
1.19908e-07
1.2008e-07
1.20047e-07
1.20055e-07
1.1991e-07
1.19679e-07
1.19681e-07
1.19681e-07
1.19679e-07
1.19949e-07
1.19932e-07
1.19908e-07
1.19679e-07
1.19686e-07
1.19683e-07
1.19683e-07
1.19686e-07
1.19679e-07
1.2001e-07
1.20082e-07
1.20057e-07
1.19905e-07
1.19681e-07
1.19683e-07
1.19682e-07
1.19682e-07
1.19683e-07
1.19681e-07
1.20012e-07
1.2007e-07
1.20045e-07
1.19915e-07
1.19681e-07
1.19683e-07
1.19682e-07
1.19682e-07
1.19683e-07
1.19681e-07
1.20008e-07
1.19939e-07
1.19908e-07
1.19679e-07
1.19686e-07
1.19683e-07
1.19683e-07
1.19686e-07
1.19679e-07
1.2001e-07
1.20078e-07
1.2008e-07
1.19949e-07
1.19679e-07
1.19681e-07
1.19681e-07
1.19679e-07
1.19992e-07
1.19969e-07
1.20089e-07
1.20047e-07
1.19932e-07
1.2001e-07
1.20012e-07
1.20008e-07
1.2001e-07
1.19969e-07
1.20094e-07
1.20082e-07
1.2007e-07
1.19939e-07
1.20078e-07
1.20089e-07
1.18249e-07
1.18237e-07
1.18248e-07
1.181e-07
1.18097e-07
1.18108e-07
1.18101e-07
1.18272e-07
1.1824e-07
1.18248e-07
1.18103e-07
1.17872e-07
1.17873e-07
1.17873e-07
1.17872e-07
1.18142e-07
1.18125e-07
1.181e-07
1.17872e-07
1.17879e-07
1.17876e-07
1.17876e-07
1.17879e-07
1.17872e-07
1.18203e-07
1.18274e-07
1.18249e-07
1.18097e-07
1.17873e-07
1.17876e-07
1.17874e-07
1.17874e-07
1.17876e-07
1.17873e-07
1.18204e-07
1.18262e-07
1.18237e-07
1.18108e-07
1.17873e-07
1.17876e-07
1.17874e-07
1.17874e-07
1.17876e-07
1.17873e-07
1.18201e-07
1.18132e-07
1.18101e-07
1.17872e-07
1.17879e-07
1.17876e-07
1.17876e-07
1.17879e-07
1.17872e-07
1.18203e-07
1.1827e-07
1.18272e-07
1.18142e-07
1.17872e-07
1.17873e-07
1.17873e-07
1.17872e-07
1.18185e-07
1.18161e-07
1.18282e-07
1.1824e-07
1.18125e-07
1.18203e-07
1.18204e-07
1.18201e-07
1.18203e-07
1.18161e-07
1.18287e-07
1.18274e-07
1.18262e-07
1.18131e-07
1.1827e-07
1.18282e-07
1.16441e-07
1.1643e-07
1.1644e-07
1.16293e-07
1.1629e-07
1.163e-07
1.16293e-07
1.16465e-07
1.16432e-07
1.1644e-07
1.16295e-07
1.16064e-07
1.16065e-07
1.16065e-07
1.16064e-07
1.16334e-07
1.16317e-07
1.16293e-07
1.16064e-07
1.16071e-07
1.16068e-07
1.16068e-07
1.16071e-07
1.16064e-07
1.16395e-07
1.16466e-07
1.16441e-07
1.1629e-07
1.16065e-07
1.16068e-07
1.16067e-07
1.16067e-07
1.16068e-07
1.16065e-07
1.16397e-07
1.16455e-07
1.1643e-07
1.163e-07
1.16065e-07
1.16068e-07
1.16067e-07
1.16067e-07
1.16068e-07
1.16065e-07
1.16393e-07
1.16324e-07
1.16293e-07
1.16064e-07
1.16071e-07
1.16068e-07
1.16068e-07
1.16071e-07
1.16064e-07
1.16395e-07
1.16463e-07
1.16465e-07
1.16334e-07
1.16064e-07
1.16065e-07
1.16065e-07
1.16064e-07
1.16377e-07
1.16353e-07
1.16474e-07
1.16432e-07
1.16317e-07
1.16395e-07
1.16397e-07
1.16393e-07
1.16395e-07
1.16353e-07
1.16479e-07
1.16466e-07
1.16455e-07
1.16324e-07
1.16463e-07
1.16474e-07
1.14634e-07
1.14622e-07
1.14633e-07
1.14485e-07
1.14482e-07
1.14493e-07
1.14486e-07
1.14657e-07
1.14625e-07
1.14633e-07
1.14488e-07
1.14257e-07
1.14258e-07
1.14258e-07
1.14257e-07
1.14527e-07
1.1451e-07
1.14485e-07
1.14257e-07
1.14264e-07
1.14261e-07
1.14261e-07
1.14264e-07
1.14257e-07
1.14588e-07
1.14659e-07
1.14634e-07
1.14482e-07
1.14258e-07
1.14261e-07
1.14259e-07
1.14259e-07
1.14261e-07
1.14258e-07
1.14589e-07
1.14647e-07
1.14622e-07
1.14493e-07
1.14258e-07
1.14261e-07
1.14259e-07
1.14259e-07
1.14261e-07
1.14258e-07
1.14585e-07
1.14516e-07
1.14486e-07
1.14257e-07
1.14264e-07
1.14261e-07
1.14261e-07
1.14264e-07
1.14257e-07
1.14588e-07
1.14655e-07
1.14657e-07
1.14527e-07
1.14257e-07
1.14258e-07
1.14258e-07
1.14257e-07
1.1457e-07
1.14546e-07
1.14667e-07