/*--------------------------------*- C++ -*----------------------------------*\
| =========                 |                                                 |
| \\      /  F ield         | OpenFOAM: The Open Source CFD Toolbox           |
|  \\    /   O peration     | Version:  2312                                  |
|   \\  /    A nd           | Website:  www.openfoam.com                      |
|    \\/     M anipulation  |                                                 |
\*---------------------------------------------------------------------------*/
FoamFile
{
    version     2.0;
    format      ascii;
    arch        "LSB;label=32;scalar=64";
    class       volScalarField;
    location    "800";
    object      epsilon;
}
// * * * * * * * * * * * * * * * * * * * * * * * * * * * * * * * * * * * * * //

dimensions      [0 2 -3 0 0 0 0];

internalField   nonuniform List<scalar> 
43168
(
6.63555e-07
1.18844e-06
1.18853e-06
1.42059e-06
1.41842e-06
1.18795e-06
1.18785e-06
1.41835e-06
1.18777e-06
1.18795e-06
1.18786e-06
1.18798e-06
1.41848e-06
1.18794e-06
1.18783e-06
1.41846e-06
1.42049e-06
1.18854e-06
1.18845e-06
1.42048e-06
1.18836e-06
1.18854e-06
1.18857e-06
1.42055e-06
1.18841e-06
9.56629e-06
9.56749e-06
6.62211e-07
6.62224e-07
6.62337e-07
6.62318e-07
4.24111e-06
9.57244e-06
4.24064e-06
9.5772e-06
1.91047e-05
1.91147e-05
4.24116e-06
9.57401e-06
4.24068e-06
9.57839e-06
6.63561e-07
6.63681e-07
6.6365e-07
2.29663e-06
3.64931e-06
9.37698e-07
1.18898e-06
2.29655e-06
3.64957e-06
9.38504e-07
1.91061e-05
1.9116e-05
2.29664e-06
9.37785e-07
3.64927e-06
1.18907e-06
2.29659e-06
9.38572e-07
3.64955e-06
5.65371e-06
5.65548e-06
1.41958e-06
5.65464e-06
5.6564e-06
1.90911e-05
1.90944e-05
1.41722e-06
5.65056e-06
5.65235e-06
1.91018e-05
1.90917e-05
1.91051e-05
1.9095e-05
1.41931e-06
5.6526e-06
5.6544e-06
5.65166e-06
5.65342e-06
1.1867e-06
3.64724e-06
4.23951e-06
9.57182e-06
9.56694e-06
4.24002e-06
4.23944e-06
9.57199e-06
9.56715e-06
4.23997e-06
2.29595e-06
1.18734e-06
3.64834e-06
9.36816e-07
3.64801e-06
9.35951e-07
2.29608e-06
2.29589e-06
1.18716e-06
3.64874e-06
9.36758e-07
3.64845e-06
9.35877e-07
2.29602e-06
1.91042e-05
1.9094e-05
1.41933e-06
5.65409e-06
5.65292e-06
5.65323e-06
1.91031e-05
1.18651e-06
3.6478e-06
4.23954e-06
9.57302e-06
9.56851e-06
4.24008e-06
2.29594e-06
1.18717e-06
3.6489e-06
9.36796e-07
3.64856e-06
9.3593e-07
2.29609e-06
4.23948e-06
9.57263e-06
9.56818e-06
4.23999e-06
2.29591e-06
1.18734e-06
9.36841e-07
3.64881e-06
9.35972e-07
3.64848e-06
2.29602e-06
3.64856e-06
9.36856e-07
2.29612e-06
9.57262e-06
4.24017e-06
9.36874e-07
3.64844e-06
2.29607e-06
9.57232e-06
4.24004e-06
1.91055e-05
1.90954e-05
1.41937e-06
5.65419e-06
5.65274e-06
5.65322e-06
5.65177e-06
1.9103e-05
1.90929e-05
2.29602e-06
1.18733e-06
9.36935e-07
3.64853e-06
9.36074e-07
3.64818e-06
2.29611e-06
2.29595e-06
1.18723e-06
9.3688e-07
3.64895e-06
9.36017e-07
3.64861e-06
2.29604e-06
4.23972e-06
9.57275e-06
9.56787e-06
4.24015e-06
4.23975e-06
9.57305e-06
9.56861e-06
4.24012e-06
1.41939e-06
5.65267e-06
5.65442e-06
5.65346e-06
1.9104e-05
1.91063e-05
1.90963e-05
1.91024e-05
1.91123e-05
1.91057e-05
1.91156e-05
5.65368e-06
5.65543e-06
1.41952e-06
5.65457e-06
5.65636e-06
1.91129e-05
1.91162e-05
1.42156e-06
5.65562e-06
5.65737e-06
4.24106e-06
9.57263e-06
4.24057e-06
9.5774e-06
2.29659e-06
3.6491e-06
9.37664e-07
1.18907e-06
2.29651e-06
3.64937e-06
9.38453e-07
2.29654e-06
3.64953e-06
9.37609e-07
1.18898e-06
2.29645e-06
3.64976e-06
9.38397e-07
4.24169e-06
9.57781e-06
4.24163e-06
9.578e-06
2.29699e-06
1.1896e-06
3.6501e-06
9.39227e-07
2.29694e-06
1.1895e-06
3.65053e-06
9.39172e-07
5.65524e-06
5.65394e-06
1.41948e-06
5.65605e-06
5.65481e-06
1.91037e-05
1.91136e-05
1.91151e-05
1.42155e-06
5.65719e-06
5.65583e-06
1.91142e-05
2.29661e-06
3.64964e-06
9.37646e-07
1.18889e-06
2.29652e-06
3.64993e-06
9.38437e-07
4.24108e-06
9.57362e-06
4.24061e-06
9.57802e-06
2.29653e-06
9.37688e-07
3.64956e-06
1.18907e-06
2.29648e-06
9.38478e-07
3.64984e-06
4.24173e-06
9.57938e-06
2.29701e-06
1.18942e-06
3.65065e-06
9.39212e-07
4.24167e-06
9.579e-06
2.29697e-06
1.1896e-06
9.39253e-07
3.65056e-06
4.24124e-06
9.57325e-06
4.24083e-06
9.578e-06
2.29658e-06
9.37721e-07
3.64919e-06
1.18911e-06
2.29651e-06
9.38513e-07
3.64946e-06
4.24112e-06
9.5733e-06
4.24066e-06
9.57771e-06
2.29704e-06
1.1895e-06
3.6503e-06
9.39259e-07
4.24188e-06
9.57861e-06
2.29701e-06
1.18963e-06
9.39287e-07
3.6502e-06
4.24172e-06
9.57869e-06
5.65524e-06
5.65381e-06
1.41958e-06
5.65616e-06
5.65471e-06
1.91036e-05
1.91135e-05
1.91166e-05
1.42162e-06
5.65718e-06
5.65578e-06
1.91141e-05
2.29656e-06
9.37729e-07
3.6497e-06
1.18894e-06
2.29652e-06
9.38516e-07
3.64998e-06
4.24124e-06
9.57338e-06
4.24085e-06
9.57815e-06
4.24121e-06
9.57404e-06
4.24088e-06
9.57845e-06
2.29708e-06
1.18959e-06
9.39347e-07
3.65028e-06
2.29701e-06
1.18947e-06
9.39289e-07
3.65071e-06
4.24191e-06
9.57875e-06
4.24195e-06
9.57944e-06
1.91046e-05
1.91145e-05
1.91069e-05
1.91168e-05
1.42165e-06
5.65568e-06
5.65743e-06
1.91151e-05
1.91174e-05
2.27632e-05
7.24529e-06
9.56412e-06
7.24551e-06
2.277e-05
9.56576e-06
1.26705e-05
4.24117e-06
1.12606e-05
4.88716e-06
1.12585e-05
4.88729e-06
1.26728e-05
2.27885e-05
7.24913e-06
9.57454e-06
2.27818e-05
7.24889e-06
1.26692e-05
4.24057e-06
1.12552e-05
4.88667e-06
1.26668e-05
1.12573e-05
4.88655e-06
2.27879e-05
7.25006e-06
9.57514e-06
7.25031e-06
2.27946e-05
1.91095e-05
1.91099e-05
1.26699e-05
4.24121e-06
4.88718e-06
1.1261e-05
4.88726e-06
1.12583e-05
1.26734e-05
2.27883e-05
7.24913e-06
9.57573e-06
2.27815e-05
7.24888e-06
1.26698e-05
4.24063e-06
4.88665e-06
1.1255e-05
1.26663e-05
4.88657e-06
1.12578e-05
2.27876e-05
7.25005e-06
9.57669e-06
7.25031e-06
2.27943e-05
1.91107e-05
1.91114e-05
9.97155e-06
2.24192e-05
2.24185e-05
2.24131e-05
2.24125e-05
9.97117e-06
4.7058e-06
2.97599e-06
9.93694e-06
5.65365e-06
4.70619e-06
2.97579e-06
9.93932e-06
4.7116e-06
2.97717e-06
9.94205e-06
5.65542e-06
4.71197e-06
2.97697e-06
9.94378e-06
9.9695e-06
2.24076e-05
2.24069e-05
9.96986e-06
2.24137e-05
2.2413e-05
4.70678e-06
9.94199e-06
5.65471e-06
2.97605e-06
2.97627e-06
9.93962e-06
4.70637e-06
4.71255e-06
9.94645e-06
5.65646e-06
2.97723e-06
2.97744e-06
9.94472e-06
4.71217e-06
1.90863e-05
1.90896e-05
9.96478e-06
2.23964e-05
2.23957e-05
2.23902e-05
2.23895e-05
9.96442e-06
4.70425e-06
9.93069e-06
5.65063e-06
2.97481e-06
9.92822e-06
4.70384e-06
2.97502e-06
4.71003e-06
9.93574e-06
5.65238e-06
2.97596e-06
9.93315e-06
4.70964e-06
2.97616e-06
1.90971e-05
1.90965e-05
1.91003e-05
1.90997e-05
9.96615e-06
2.23959e-05
2.23952e-05
9.96652e-06
2.24021e-05
2.24013e-05
4.70549e-06
2.97543e-06
5.65268e-06
9.93621e-06
9.93376e-06
2.97564e-06
4.70507e-06
4.71128e-06
2.97658e-06
5.65443e-06
9.94129e-06
9.93884e-06
2.97679e-06
4.71087e-06
4.70446e-06
9.93104e-06
2.97534e-06
5.65159e-06
4.70488e-06
9.93346e-06
2.97512e-06
4.71027e-06
9.93614e-06
2.97649e-06
5.65339e-06
4.71066e-06
9.93854e-06
2.97628e-06
9.96824e-06
2.24077e-05
2.2407e-05
2.24015e-05
2.24008e-05
9.96786e-06
1.26619e-05
1.12485e-05
4.88538e-06
4.23945e-06
1.26595e-05
1.12507e-05
4.88527e-06
2.27756e-05
9.56969e-06
7.2477e-06
2.27824e-05
7.24794e-06
2.27762e-05
7.24673e-06
9.56905e-06
2.27694e-05
7.24651e-06
1.26632e-05
4.24008e-06
1.1254e-05
4.88591e-06
1.26657e-05
1.12518e-05
4.88603e-06
1.26626e-05
1.1248e-05
4.88527e-06
4.2394e-06
1.26591e-05
1.12509e-05
4.88518e-06
2.2776e-05
9.56988e-06
7.24641e-06
7.24662e-06
2.27828e-05
2.27766e-05
7.24542e-06
9.56925e-06
2.27698e-05
7.24521e-06
1.26629e-05
4.24002e-06
1.12542e-05
4.88583e-06
1.12514e-05
4.88593e-06
1.26663e-05
1.90993e-05
1.90988e-05
4.71142e-06
2.97654e-06
5.65425e-06
9.94096e-06
2.97675e-06
9.93853e-06
4.71099e-06
4.70561e-06
2.97552e-06
5.65298e-06
9.93651e-06
9.93477e-06
2.97573e-06
4.70517e-06
2.97645e-06
5.65308e-06
2.97625e-06
9.96847e-06
2.24076e-05
2.24084e-05
2.24015e-05
2.24021e-05
9.96799e-06
1.90982e-05
1.26623e-05
4.88536e-06
1.12482e-05
4.23951e-06
1.26593e-05
4.88529e-06
1.12511e-05
2.27754e-05
9.57128e-06
7.2477e-06
2.27821e-05
7.24794e-06
2.2776e-05
7.24673e-06
9.5703e-06
2.27692e-05
7.2465e-06
1.26627e-05
4.24012e-06
4.88594e-06
1.12545e-05
1.26661e-05
4.88601e-06
1.12516e-05
1.26627e-05
1.12481e-05
4.88519e-06
4.23943e-06
1.26592e-05
1.1251e-05
4.88511e-06
2.27753e-05
9.5709e-06
7.24609e-06
7.24633e-06
2.2782e-05
2.27759e-05
7.24512e-06
9.5699e-06
2.27691e-05
7.24489e-06
1.26629e-05
4.24006e-06
1.12543e-05
4.88576e-06
1.12515e-05
4.88584e-06
1.26664e-05
2.27742e-05
9.57046e-06
7.24737e-06
7.2478e-06
2.27812e-05
1.26622e-05
4.24028e-06
4.88592e-06
1.12543e-05
4.88615e-06
1.12515e-05
1.26658e-05
2.27753e-05
9.57059e-06
7.2459e-06
7.24614e-06
2.2782e-05
1.2663e-05
4.24011e-06
1.12542e-05
4.88573e-06
1.12513e-05
4.88584e-06
1.26661e-05
1.91008e-05
1.91001e-05
9.96563e-06
2.2395e-05
2.23954e-05
9.96601e-06
2.24011e-05
2.24015e-05
4.71126e-06
2.97659e-06
5.65424e-06
9.94054e-06
2.97676e-06
9.93879e-06
4.71088e-06
4.70532e-06
2.97545e-06
5.65279e-06
9.93581e-06
9.93406e-06
2.97565e-06
4.70496e-06
4.71028e-06
9.9361e-06
2.97646e-06
5.65318e-06
2.97629e-06
4.71065e-06
9.93784e-06
4.70435e-06
9.93136e-06
2.97534e-06
5.65171e-06
4.70471e-06
9.93309e-06
2.97516e-06
9.96773e-06
2.24067e-05
2.24071e-05
2.24006e-05
2.2401e-05
9.96734e-06
1.90983e-05
1.90976e-05
1.2662e-05
4.88536e-06
1.12485e-05
4.23958e-06
1.26593e-05
4.88528e-06
1.12506e-05
2.27746e-05
9.57063e-06
7.24732e-06
7.24754e-06
2.27814e-05
2.27752e-05
7.24633e-06
9.57e-06
2.27684e-05
7.24612e-06
1.26629e-05
4.24029e-06
4.88592e-06
1.12539e-05
4.88602e-06
1.12518e-05
1.26655e-05
1.26627e-05
4.88535e-06
1.12483e-05
4.23955e-06
1.26591e-05
4.88518e-06
1.12504e-05
2.27762e-05
9.57132e-06
7.24637e-06
7.24663e-06
2.2783e-05
2.27768e-05
7.24542e-06
9.57033e-06
2.277e-05
7.24517e-06
1.2663e-05
4.24032e-06
4.88583e-06
1.12537e-05
4.88601e-06
1.12516e-05
1.26662e-05
9.96607e-06
2.24026e-05
2.24019e-05
4.70558e-06
2.97551e-06
5.65271e-06
9.93663e-06
4.70521e-06
2.9757e-06
9.93416e-06
4.71138e-06
2.97669e-06
5.65447e-06
9.94106e-06
4.71102e-06
2.97688e-06
9.93928e-06
4.70458e-06
5.65162e-06
2.97519e-06
9.93379e-06
4.7104e-06
2.97658e-06
5.65341e-06
2.9764e-06
9.9383e-06
9.96816e-06
2.24081e-05
2.24074e-05
9.9678e-06
2.2402e-05
2.24013e-05
1.90993e-05
1.90986e-05
1.91016e-05
1.9101e-05
1.91071e-05
1.91076e-05
1.91103e-05
1.91109e-05
9.97162e-06
2.24188e-05
2.2418e-05
2.24126e-05
2.24119e-05
9.97122e-06
4.70565e-06
2.97593e-06
9.93655e-06
5.6536e-06
4.70609e-06
9.93896e-06
2.97571e-06
4.71145e-06
2.97708e-06
9.94164e-06
5.65539e-06
4.71187e-06
9.94404e-06
2.97686e-06
9.96955e-06
2.24071e-05
2.24064e-05
9.96994e-06
2.24132e-05
2.24125e-05
4.70667e-06
9.94165e-06
5.65466e-06
2.97597e-06
9.93925e-06
4.70622e-06
2.97619e-06
4.71245e-06
9.94674e-06
5.65641e-06
2.97712e-06
9.94434e-06
4.71202e-06
2.97734e-06
1.91175e-05
1.91208e-05
9.97288e-06
2.24182e-05
2.24174e-05
9.97329e-06
2.24242e-05
2.24235e-05
4.70677e-06
9.94193e-06
2.97644e-06
5.65553e-06
4.70722e-06
9.9443e-06
2.97621e-06
4.71257e-06
9.94703e-06
2.97759e-06
5.65732e-06
4.713e-06
9.94939e-06
2.97736e-06
1.26702e-05
4.24111e-06
1.12608e-05
4.88708e-06
1.1258e-05
4.88717e-06
1.26736e-05
2.27889e-05
7.24781e-06
9.57472e-06
2.27822e-05
7.24759e-06
1.26701e-05
4.24052e-06
1.12548e-05
4.88655e-06
1.12575e-05
1.26665e-05
4.88647e-06
2.27883e-05
7.24876e-06
9.57533e-06
7.24899e-06
2.2795e-05
1.26764e-05
1.12617e-05
4.88789e-06
4.24162e-06
1.26741e-05
1.12639e-05
4.88776e-06
2.28006e-05
7.25147e-06
9.57985e-06
2.2794e-05
7.25121e-06
1.26772e-05
1.12613e-05
4.88777e-06
4.24157e-06
1.26738e-05
1.12641e-05
4.88768e-06
2.2801e-05
7.25015e-06
9.58004e-06
2.27944e-05
7.24992e-06
9.97166e-06
2.24184e-05
2.24191e-05
2.24123e-05
2.2413e-05
9.97125e-06
4.71157e-06
2.97704e-06
9.94131e-06
5.65508e-06
9.9437e-06
4.71195e-06
2.97683e-06
4.70573e-06
2.97601e-06
9.93744e-06
5.65386e-06
2.97579e-06
4.70615e-06
9.93917e-06
9.96961e-06
2.24068e-05
2.24076e-05
2.24129e-05
9.97003e-06
2.24136e-05
4.71253e-06
9.94638e-06
5.65622e-06
2.97709e-06
9.94401e-06
2.97731e-06
4.71213e-06
4.70673e-06
9.94183e-06
5.65489e-06
2.97605e-06
2.97628e-06
9.94011e-06
4.7063e-06
1.91084e-05
1.9109e-05
1.91199e-05
9.97288e-06
2.24178e-05
2.24184e-05
9.9733e-06
2.24238e-05
2.24245e-05
4.71267e-06
9.94669e-06
2.97755e-06
5.65701e-06
2.97733e-06
4.71308e-06
9.94903e-06
4.70685e-06
9.9428e-06
2.97652e-06
5.65575e-06
4.70729e-06
9.9445e-06
2.97628e-06
1.91188e-05
1.26702e-05
4.24115e-06
1.12609e-05
4.88701e-06
1.12581e-05
4.8871e-06
1.26737e-05
2.27882e-05
7.24752e-06
9.57536e-06
2.27815e-05
7.24728e-06
1.26701e-05
4.24055e-06
1.12549e-05
4.88648e-06
1.12576e-05
1.26666e-05
4.88639e-06
2.27876e-05
7.24845e-06
9.57633e-06
7.24869e-06
2.27943e-05
1.2677e-05
4.88787e-06
1.12616e-05
4.24167e-06
1.26735e-05
4.88778e-06
1.12643e-05
2.28004e-05
7.25147e-06
9.58107e-06
2.27937e-05
7.25121e-06
1.26772e-05
1.12615e-05
4.8877e-06
4.24159e-06
1.26738e-05
1.12642e-05
4.8876e-06
2.28003e-05
7.24986e-06
9.58069e-06
2.27936e-05
7.2496e-06
1.26696e-05
4.24137e-06
4.88715e-06
1.12609e-05
4.88739e-06
1.12581e-05
1.26729e-05
2.27873e-05
7.24899e-06
9.57533e-06
7.24854e-06
2.27803e-05
1.26694e-05
4.24071e-06
4.88678e-06
1.12549e-05
4.88653e-06
1.2666e-05
1.12577e-05
2.27864e-05
7.2497e-06
9.57594e-06
7.25015e-06
2.27934e-05
1.26701e-05
4.2412e-06
1.12608e-05
4.88697e-06
1.1258e-05
4.88709e-06
1.26734e-05
2.27882e-05
7.24733e-06
9.57504e-06
2.27814e-05
7.24708e-06
1.26699e-05
4.24059e-06
1.12547e-05
4.88646e-06
1.26664e-05
1.12575e-05
4.88636e-06
2.27875e-05
7.24825e-06
9.57601e-06
7.24851e-06
2.27942e-05
1.26765e-05
4.88799e-06
1.12614e-05
4.24175e-06
1.26733e-05
4.88774e-06
1.12642e-05
2.27994e-05
7.2513e-06
9.58064e-06
2.27925e-05
7.25085e-06
1.2677e-05
1.12613e-05
4.88769e-06
4.24164e-06
1.26736e-05
1.1264e-05
4.88757e-06
2.28002e-05
7.24967e-06
9.58037e-06
2.27936e-05
7.24941e-06
9.97111e-06
2.24178e-05
2.24182e-05
2.24117e-05
2.24121e-05
9.9707e-06
4.71146e-06
2.97705e-06
9.94152e-06
5.65519e-06
9.94329e-06
4.71185e-06
2.97687e-06
4.70554e-06
2.97594e-06
9.93684e-06
5.65372e-06
2.97573e-06
4.70593e-06
9.93862e-06
9.96903e-06
2.24062e-05
2.24066e-05
2.24123e-05
9.96943e-06
2.24127e-05
4.71243e-06
9.94597e-06
5.65622e-06
2.97714e-06
9.94424e-06
2.97732e-06
4.71203e-06
4.70651e-06
9.94129e-06
5.65481e-06
2.97599e-06
2.97621e-06
9.93957e-06
4.70611e-06
1.91083e-05
1.91089e-05
1.91212e-05
9.97236e-06
2.24172e-05
2.24177e-05
9.97278e-06
2.24233e-05
2.24237e-05
4.71258e-06
9.94694e-06
2.97756e-06
5.65712e-06
2.97738e-06
4.71299e-06
9.94865e-06
4.70666e-06
9.94227e-06
2.97646e-06
5.65568e-06
4.70707e-06
9.94397e-06
2.97624e-06
1.91187e-05
1.26703e-05
4.24139e-06
4.88717e-06
1.12605e-05
4.88728e-06
1.12585e-05
1.26727e-05
2.27875e-05
7.24873e-06
9.57547e-06
7.2485e-06
2.27808e-05
1.26691e-05
4.24071e-06
4.88665e-06
1.12551e-05
4.88655e-06
1.26666e-05
1.12573e-05
2.27869e-05
7.24967e-06
9.57609e-06
7.24991e-06
2.27936e-05
1.26702e-05
4.24142e-06
4.88709e-06
1.12604e-05
4.88727e-06
1.12583e-05
1.26735e-05
2.27891e-05
7.24782e-06
9.57578e-06
2.27824e-05
7.24756e-06
1.267e-05
4.24068e-06
4.88665e-06
1.1255e-05
1.26665e-05
4.88647e-06
1.12571e-05
2.27885e-05
7.24873e-06
9.57675e-06
7.249e-06
2.27952e-05
1.26762e-05
4.88788e-06
1.12617e-05
4.24176e-06
1.26739e-05
4.88777e-06
1.12638e-05
2.27996e-05
7.25107e-06
9.5808e-06
2.2793e-05
7.25083e-06
1.26771e-05
4.88788e-06
1.12615e-05
4.24173e-06
1.26737e-05
4.88769e-06
1.12636e-05
2.28013e-05
7.25017e-06
9.58112e-06
2.27945e-05
7.24989e-06
1.91093e-05
1.91099e-05
1.91116e-05
1.91122e-05
9.97283e-06
2.24186e-05
2.2418e-05
9.97322e-06
2.24247e-05
2.2424e-05
4.70693e-06
9.9423e-06
2.97652e-06
5.6556e-06
4.70734e-06
2.97629e-06
9.94464e-06
4.71272e-06
9.94743e-06
2.97769e-06
5.65736e-06
4.7131e-06
2.97747e-06
9.94913e-06
1.91197e-05
1.9122e-05
6.59439e-07
4.55966e-07
4.55899e-07
6.64839e-07
4.57571e-07
4.57509e-07
2.50591e-07
2.48784e-07
2.82924e-06
1.96983e-06
1.97006e-06
1.41904e-06
2.82958e-06
1.96909e-06
1.96931e-06
2.82927e-06
1.41992e-06
1.96882e-06
1.96902e-06
1.96954e-06
1.96975e-06
2.82893e-06
2.82934e-06
1.41988e-06
1.96892e-06
1.96885e-06
1.96966e-06
1.9696e-06
2.82897e-06
2.82924e-06
1.41998e-06
1.96897e-06
1.96887e-06
1.9697e-06
1.96959e-06
2.82891e-06
2.82935e-06
1.42001e-06
1.96884e-06
1.96906e-06
2.82902e-06
1.96958e-06
1.96981e-06
2.82915e-06
1.96979e-06
1.97e-06
1.41898e-06
2.8295e-06
1.96907e-06
1.96927e-06
2.8292e-06
1.96992e-06
1.96986e-06
1.41894e-06
1.96911e-06
2.82955e-06
1.96917e-06
2.82913e-06
1.96995e-06
1.96984e-06
1.41905e-06
1.96911e-06
2.82947e-06
1.96922e-06
6.60853e-07
4.54304e-07
4.54235e-07
4.52629e-07
4.52556e-07
2.45103e-07
2.46944e-07
6.60862e-07
4.54295e-07
4.54279e-07
4.52621e-07
4.52599e-07
2.4511e-07
2.46953e-07
6.60976e-07
4.54377e-07
4.54365e-07
4.52694e-07
4.52692e-07
2.45178e-07
2.47019e-07
6.60959e-07
4.54407e-07
4.54344e-07
4.52717e-07
4.52674e-07
2.45189e-07
2.47031e-07
4.55956e-07
4.55937e-07
6.64837e-07
4.5756e-07
4.57548e-07
2.506e-07
2.48792e-07
4.56041e-07
4.56025e-07
6.64967e-07
4.5765e-07
4.57633e-07
2.50666e-07
2.48858e-07
4.56061e-07
4.56006e-07
6.64936e-07
4.57673e-07
4.5761e-07
2.50676e-07
2.48869e-07
6.6611e-07
4.59166e-07
4.59105e-07
2.52397e-07
6.66107e-07
4.59155e-07
4.59135e-07
2.52406e-07
6.66234e-07
4.59246e-07
4.59226e-07
2.52472e-07
6.66207e-07
4.59263e-07
4.59207e-07
2.52482e-07
1.66731e-06
2.29681e-06
2.54189e-06
1.5451e-06
2.5422e-06
1.54606e-06
1.66604e-06
1.84504e-06
2.22474e-06
3.02424e-06
3.64907e-06
1.84611e-06
2.22416e-06
3.02384e-06
1.66577e-06
2.29639e-06
2.54196e-06
1.54571e-06
1.66701e-06
2.54169e-06
1.54476e-06
1.84642e-06
3.02415e-06
3.64981e-06
2.22433e-06
2.22492e-06
3.02456e-06
1.84535e-06
1.66793e-06
2.29684e-06
1.54501e-06
2.542e-06
1.54616e-06
2.54232e-06
1.66572e-06
1.84475e-06
2.22474e-06
3.02427e-06
3.64905e-06
1.84642e-06
2.22418e-06
3.02385e-06
1.66556e-06
2.29638e-06
1.54578e-06
2.54203e-06
1.66755e-06
1.54471e-06
2.54174e-06
1.84685e-06
3.02417e-06
3.64979e-06
2.22434e-06
2.22493e-06
3.0246e-06
1.84503e-06
2.82979e-06
1.42113e-06
1.96931e-06
1.96953e-06
1.97006e-06
1.97028e-06
2.82943e-06
2.82877e-06
1.41869e-06
1.96827e-06
1.96847e-06
2.82844e-06
1.96898e-06
1.96919e-06
2.82869e-06
1.41783e-06
1.96927e-06
1.96948e-06
2.82903e-06
1.96855e-06
1.96876e-06
1.84574e-06
3.02277e-06
3.64744e-06
2.22345e-06
3.02321e-06
2.22399e-06
1.84369e-06
1.66489e-06
2.54146e-06
1.54493e-06
2.29578e-06
1.66692e-06
2.54121e-06
1.54396e-06
1.84629e-06
2.22391e-06
3.64857e-06
3.02352e-06
2.22447e-06
3.02396e-06
1.84433e-06
1.84399e-06
3.02359e-06
2.22424e-06
3.6478e-06
2.22368e-06
1.84587e-06
3.02316e-06
1.66725e-06
2.29624e-06
2.54147e-06
1.54433e-06
2.54174e-06
1.54531e-06
1.66517e-06
1.66463e-06
2.54132e-06
1.54488e-06
2.29574e-06
1.667e-06
2.54108e-06
1.5439e-06
1.84613e-06
2.22413e-06
3.649e-06
3.02323e-06
3.02365e-06
2.22469e-06
1.84433e-06
1.84394e-06
3.02329e-06
2.22446e-06
3.64819e-06
1.84583e-06
3.02289e-06
2.2239e-06
1.66736e-06
2.29618e-06
2.54134e-06
1.54427e-06
2.5416e-06
1.54526e-06
1.66501e-06
1.41775e-06
1.96942e-06
1.96866e-06
3.64799e-06
2.22377e-06
2.22431e-06
1.66512e-06
2.54145e-06
1.54485e-06
2.2958e-06
1.66636e-06
2.54121e-06
1.54398e-06
1.84578e-06
2.22423e-06
3.64911e-06
3.02364e-06
2.22478e-06
3.02401e-06
1.84467e-06
1.84433e-06
3.02365e-06
2.22455e-06
3.64836e-06
2.22401e-06
1.84539e-06
3.02328e-06
1.66674e-06
2.29624e-06
2.54149e-06
1.54438e-06
2.54172e-06
1.54526e-06
1.66546e-06
1.66469e-06
1.5449e-06
2.5413e-06
2.29573e-06
1.66677e-06
1.54389e-06
2.54107e-06
1.846e-06
2.22419e-06
3.64903e-06
3.02322e-06
3.02362e-06
2.22474e-06
1.84436e-06
1.84395e-06
3.02327e-06
2.22451e-06
3.64827e-06
1.8457e-06
3.02286e-06
2.22397e-06
1.66728e-06
2.29621e-06
1.54428e-06
2.54133e-06
1.5453e-06
2.54158e-06
1.66495e-06
1.84575e-06
2.22397e-06
3.64879e-06
3.02351e-06
1.84472e-06
2.22452e-06
3.0239e-06
1.66674e-06
2.29628e-06
2.54145e-06
1.54438e-06
1.66551e-06
2.5417e-06
1.54532e-06
1.84609e-06
2.22391e-06
3.64865e-06
3.02309e-06
3.02354e-06
2.22447e-06
1.84426e-06
1.66721e-06
2.29624e-06
1.54433e-06
2.54133e-06
1.54534e-06
2.54161e-06
1.66505e-06
2.82867e-06
1.41789e-06
1.96942e-06
1.96932e-06
1.9687e-06
2.829e-06
1.9686e-06
1.66489e-06
1.545e-06
2.54148e-06
2.29583e-06
1.66718e-06
1.54398e-06
2.54124e-06
1.84624e-06
2.22397e-06
3.64874e-06
3.02351e-06
1.84449e-06
2.22453e-06
3.02392e-06
1.84409e-06
3.02356e-06
2.2243e-06
3.64799e-06
1.84571e-06
2.22375e-06
3.02316e-06
1.6673e-06
2.29631e-06
1.54437e-06
2.54151e-06
1.66534e-06
1.5454e-06
2.54175e-06
1.66476e-06
1.54493e-06
2.54134e-06
2.29575e-06
1.66691e-06
1.54392e-06
2.54107e-06
1.84621e-06
2.22427e-06
3.64916e-06
3.02329e-06
3.02372e-06
2.22483e-06
1.8443e-06
1.84391e-06
3.02336e-06
2.2246e-06
3.64841e-06
1.84583e-06
3.02294e-06
2.22405e-06
1.66715e-06
2.29625e-06
1.5443e-06
2.54134e-06
1.54533e-06
2.54161e-06
1.66508e-06
2.82879e-06
1.41786e-06
1.96953e-06
1.96856e-06
1.9688e-06
2.8297e-06
1.42104e-06
1.96929e-06
1.96949e-06
2.82935e-06
1.97001e-06
1.97023e-06
2.82953e-06
1.42003e-06
1.97022e-06
1.97043e-06
2.82989e-06
1.96948e-06
1.96969e-06
1.66788e-06
2.29676e-06
2.54196e-06
1.54504e-06
2.54234e-06
1.54603e-06
1.66564e-06
1.84456e-06
2.22468e-06
3.0243e-06
3.64886e-06
3.02386e-06
1.84666e-06
2.22411e-06
1.66537e-06
2.29634e-06
2.54202e-06
1.54569e-06
2.54171e-06
1.66758e-06
1.5447e-06
1.84707e-06
3.02418e-06
3.64961e-06
2.22428e-06
3.02464e-06
2.22487e-06
1.84498e-06
1.66773e-06
2.29671e-06
2.54181e-06
1.54498e-06
2.54217e-06
1.54598e-06
1.66555e-06
1.8446e-06
2.22491e-06
3.02399e-06
3.64926e-06
1.84636e-06
3.02358e-06
2.22433e-06
1.6653e-06
2.29629e-06
2.54185e-06
1.54563e-06
1.66748e-06
2.54159e-06
1.54465e-06
1.84672e-06
3.0239e-06
3.65004e-06
2.2245e-06
3.02432e-06
1.84492e-06
2.22509e-06
1.66582e-06
2.54256e-06
1.54636e-06
2.29681e-06
1.66807e-06
2.54212e-06
1.54533e-06
1.84525e-06
3.02494e-06
2.22502e-06
3.64985e-06
2.22443e-06
1.84721e-06
3.02447e-06
1.66572e-06
2.54239e-06
1.54631e-06
2.29676e-06
1.66796e-06
2.542e-06
1.54528e-06
1.84516e-06
3.02463e-06
2.22525e-06
3.65024e-06
1.84706e-06
3.0242e-06
2.22465e-06
2.82976e-06
1.42103e-06
1.96939e-06
1.96932e-06
1.97008e-06
1.97015e-06
2.82939e-06
2.82957e-06
1.42e-06
1.97035e-06
1.97028e-06
1.96959e-06
2.82995e-06
1.96952e-06
1.66735e-06
2.29677e-06
2.54206e-06
1.54511e-06
2.54223e-06
1.546e-06
1.66607e-06
1.845e-06
2.22499e-06
3.02436e-06
3.64942e-06
3.02398e-06
1.84612e-06
2.22442e-06
1.66577e-06
2.29636e-06
2.54198e-06
1.54564e-06
2.54179e-06
1.66706e-06
1.54475e-06
1.84645e-06
3.0243e-06
3.65015e-06
2.2246e-06
3.02468e-06
2.22517e-06
1.84536e-06
1.66776e-06
2.29673e-06
1.54498e-06
2.54179e-06
1.54606e-06
2.54213e-06
1.66555e-06
1.84462e-06
2.22494e-06
3.02396e-06
3.64933e-06
1.84629e-06
3.02356e-06
2.22439e-06
1.66531e-06
2.29629e-06
1.54569e-06
2.54183e-06
1.66748e-06
1.54466e-06
2.54158e-06
1.84666e-06
3.02388e-06
3.65007e-06
2.22456e-06
3.02429e-06
1.84493e-06
2.22513e-06
1.66627e-06
2.54242e-06
1.54632e-06
2.29683e-06
1.6676e-06
2.54224e-06
1.54544e-06
1.84563e-06
3.02499e-06
2.22534e-06
3.65041e-06
2.22475e-06
1.84673e-06
3.0246e-06
1.66572e-06
1.54641e-06
2.54237e-06
2.29676e-06
1.66802e-06
1.54524e-06
2.54197e-06
1.84519e-06
3.02459e-06
2.22529e-06
3.65032e-06
1.84701e-06
3.02417e-06
2.22471e-06
1.66767e-06
2.29677e-06
1.54502e-06
2.54179e-06
1.54608e-06
2.54221e-06
1.66559e-06
1.84442e-06
2.22468e-06
3.02389e-06
3.64896e-06
2.22411e-06
1.84647e-06
3.02344e-06
1.66522e-06
2.29634e-06
1.54572e-06
2.54187e-06
1.5447e-06
1.66749e-06
2.54157e-06
1.84684e-06
3.02375e-06
3.64971e-06
2.22428e-06
2.22487e-06
3.02422e-06
1.84486e-06
1.66624e-06
2.54249e-06
1.54638e-06
2.29684e-06
1.66755e-06
2.5421e-06
1.54539e-06
1.84562e-06
3.02487e-06
2.22509e-06
3.65004e-06
1.8467e-06
2.22449e-06
3.02444e-06
1.66576e-06
1.54644e-06
2.5424e-06
2.29681e-06
1.66791e-06
1.54529e-06
2.54198e-06
1.84513e-06
3.02452e-06
2.22503e-06
3.64995e-06
1.84703e-06
3.02405e-06
2.22444e-06
2.82968e-06
1.4211e-06
1.96944e-06
1.96933e-06
1.97007e-06
1.97017e-06
2.82933e-06
2.82951e-06
1.4201e-06
1.97038e-06
1.97028e-06
1.96964e-06
2.82986e-06
1.96953e-06
1.66777e-06
2.29678e-06
1.54498e-06
2.54181e-06
1.5461e-06
2.54219e-06
1.66556e-06
1.84447e-06
2.22503e-06
3.02407e-06
3.64947e-06
2.22446e-06
1.84654e-06
3.02363e-06
1.6653e-06
2.29631e-06
1.54572e-06
2.54187e-06
1.54467e-06
1.66746e-06
2.54158e-06
1.84691e-06
3.02395e-06
3.65021e-06
2.22463e-06
2.22522e-06
3.0244e-06
1.84491e-06
1.66589e-06
1.54657e-06
2.54256e-06
2.29686e-06
1.66812e-06
1.5453e-06
2.54216e-06
1.8453e-06
3.0249e-06
2.22509e-06
3.65004e-06
1.84715e-06
2.2245e-06
3.02447e-06
1.66576e-06
1.54648e-06
2.54244e-06
2.29679e-06
1.66798e-06
1.54525e-06
2.542e-06
1.84517e-06
3.0247e-06
2.22537e-06
3.65046e-06
1.84709e-06
3.02425e-06
2.22478e-06
2.82962e-06
1.4201e-06
1.97026e-06
1.97049e-06
2.82997e-06
1.96951e-06
1.96973e-06
6.68518e-07
1.19043e-06
1.19053e-06
1.42261e-06
6.72912e-07
1.19193e-06
1.19203e-06
1.42422e-06
6.76756e-07
1.19296e-06
1.19307e-06
1.42543e-06
6.80071e-07
1.19354e-06
1.19364e-06
1.42625e-06
6.8288e-07
1.19368e-06
1.19378e-06
1.42672e-06
6.85206e-07
1.19344e-06
1.19355e-06
1.42682e-06
6.8707e-07
1.19281e-06
1.19292e-06
1.42658e-06
6.88496e-07
1.19183e-06
1.19194e-06
1.42601e-06
6.89505e-07
1.1905e-06
1.19061e-06
1.42513e-06
6.90118e-07
1.18886e-06
1.18897e-06
1.42397e-06
6.90363e-07
1.18693e-06
1.18704e-06
1.42253e-06
6.90282e-07
1.18474e-06
1.18485e-06
1.42105e-06
6.89905e-07
1.18229e-06
1.1824e-06
1.41915e-06
6.89237e-07
1.17962e-06
1.17973e-06
1.41686e-06
6.88306e-07
1.17676e-06
1.17687e-06
1.41448e-06
6.87131e-07
1.17372e-06
1.17383e-06
1.41193e-06
6.85741e-07
1.17053e-06
1.17063e-06
1.40923e-06
6.84162e-07
1.16719e-06
1.16729e-06
1.40637e-06
6.81249e-07
1.16249e-06
1.16259e-06
1.40282e-06
7.37744e-07
1.07607e-06
1.07614e-06
1.35243e-06
1.42052e-06
1.19007e-06
1.18997e-06
1.42048e-06
1.18989e-06
1.19007e-06
1.18997e-06
1.1901e-06
1.42058e-06
1.19006e-06
1.18994e-06
1.42059e-06
1.42253e-06
1.42221e-06
1.19054e-06
1.19044e-06
1.19169e-06
1.19159e-06
1.42251e-06
1.42217e-06
1.19036e-06
1.19053e-06
1.19151e-06
1.19169e-06
1.19057e-06
1.19159e-06
1.19172e-06
1.42259e-06
1.42227e-06
1.19041e-06
1.19168e-06
1.19156e-06
1.42228e-06
1.42414e-06
1.42358e-06
1.19204e-06
1.19194e-06
1.19284e-06
1.19274e-06
1.42412e-06
1.42339e-06
1.19186e-06
1.19204e-06
1.19266e-06
1.19284e-06
1.19207e-06
1.19273e-06
1.19287e-06
1.42421e-06
1.42366e-06
1.19191e-06
1.19283e-06
1.19271e-06
1.42366e-06
1.42535e-06
1.42452e-06
1.19307e-06
1.19297e-06
1.19353e-06
1.19343e-06
1.4255e-06
1.42421e-06
1.19289e-06
1.19307e-06
1.19335e-06
1.19353e-06
1.1931e-06
1.19342e-06
1.19356e-06
1.42542e-06
1.42459e-06
1.19294e-06
1.19352e-06
1.1934e-06
1.4246e-06
1.42618e-06
1.42503e-06
1.19365e-06
1.19355e-06
1.19379e-06
1.19369e-06
1.42643e-06
1.42472e-06
1.19348e-06
1.19365e-06
1.19362e-06
1.1938e-06
1.19368e-06
1.19368e-06
1.19382e-06
1.42625e-06
1.4251e-06
1.19352e-06
1.19379e-06
1.19367e-06
1.4251e-06
1.42665e-06
1.42518e-06
1.19379e-06
1.19369e-06
1.19363e-06
1.19353e-06
1.42689e-06
1.42486e-06
1.19362e-06
1.19379e-06
1.19345e-06
1.19363e-06
1.19382e-06
1.19351e-06
1.19366e-06
1.42672e-06
1.42525e-06
1.19366e-06
1.19362e-06
1.1935e-06
1.42525e-06
1.42675e-06
1.42498e-06
1.19355e-06
1.19345e-06
1.19307e-06
1.19296e-06
1.42699e-06
1.42466e-06
1.19338e-06
1.19356e-06
1.1929e-06
1.19308e-06
1.19358e-06
1.19295e-06
1.1931e-06
1.42682e-06
1.42505e-06
1.19343e-06
1.19306e-06
1.19295e-06
1.42505e-06
1.42651e-06
1.42445e-06
1.19293e-06
1.19283e-06
1.19215e-06
1.19204e-06
1.42675e-06
1.42413e-06
1.19276e-06
1.19294e-06
1.19197e-06
1.19215e-06
1.19296e-06
1.19203e-06
1.19217e-06
1.42658e-06
1.42452e-06
1.19281e-06
1.19213e-06
1.19202e-06
1.42452e-06
1.42594e-06
1.42361e-06
1.19195e-06
1.19184e-06
1.19088e-06
1.19077e-06
1.42618e-06
1.42329e-06
1.19178e-06
1.19196e-06
1.19071e-06
1.19089e-06
1.19198e-06
1.19076e-06
1.1909e-06
1.42601e-06
1.42368e-06
1.19182e-06
1.19087e-06
1.19075e-06
1.42368e-06
1.42507e-06
1.42218e-06
1.19062e-06
1.19052e-06
1.18929e-06
1.18918e-06
1.4253e-06
1.42216e-06
1.19045e-06
1.19063e-06
1.18912e-06
1.1893e-06
1.19065e-06
1.18917e-06
1.18932e-06
1.42513e-06
1.42254e-06
1.1905e-06
1.18928e-06
1.18917e-06
1.42255e-06
1.42418e-06
1.4208e-06
1.18898e-06
1.18887e-06
1.18741e-06
1.1873e-06
1.42414e-06
1.42076e-06
1.18881e-06
1.18899e-06
1.18724e-06
1.18742e-06
1.18901e-06
1.18729e-06
1.18743e-06
1.42397e-06
1.42114e-06
1.18886e-06
1.18739e-06
1.18728e-06
1.42115e-06
1.42273e-06
1.41933e-06
1.18705e-06
1.18695e-06
1.18525e-06
1.18514e-06
1.42271e-06
1.41911e-06
1.18688e-06
1.18706e-06
1.18508e-06
1.18526e-06
1.18708e-06
1.18513e-06
1.18527e-06
1.42254e-06
1.41949e-06
1.18693e-06
1.18524e-06
1.18512e-06
1.41948e-06
1.42077e-06
1.41747e-06
1.18486e-06
1.18475e-06
1.18284e-06
1.18273e-06
1.421e-06
1.41735e-06
1.18469e-06
1.18487e-06
1.18267e-06
1.18285e-06
1.18488e-06
1.18272e-06
1.18286e-06
1.42087e-06
1.41755e-06
1.18473e-06
1.18283e-06
1.18271e-06
1.4173e-06
1.41894e-06
1.41525e-06
1.18241e-06
1.1823e-06
1.1802e-06
1.1801e-06
1.41891e-06
1.4152e-06
1.18225e-06
1.18242e-06
1.18003e-06
1.18021e-06
1.18243e-06
1.18008e-06
1.18022e-06
1.41901e-06
1.41531e-06
1.18229e-06
1.18019e-06
1.18008e-06
1.41529e-06
1.41677e-06
1.41288e-06
1.17974e-06
1.17963e-06
1.17736e-06
1.17725e-06
1.41673e-06
1.41285e-06
1.17958e-06
1.17975e-06
1.17718e-06
1.17737e-06
1.17976e-06
1.17723e-06
1.17739e-06
1.41683e-06
1.41294e-06
1.17961e-06
1.17733e-06
1.17724e-06
1.41294e-06
1.4144e-06
1.41035e-06
1.17686e-06
1.17678e-06
1.17434e-06
1.17422e-06
1.41437e-06
1.41032e-06
1.17671e-06
1.17687e-06
1.17415e-06
1.17435e-06
1.17689e-06
1.1742e-06
1.17437e-06
1.41446e-06
1.41041e-06
1.17674e-06
1.17431e-06
1.17422e-06
1.41042e-06
1.41186e-06
1.40767e-06
1.17382e-06
1.17374e-06
1.17116e-06
1.17103e-06
1.41183e-06
1.40764e-06
1.17368e-06
1.17383e-06
1.17097e-06
1.17118e-06
1.17384e-06
1.17101e-06
1.17119e-06
1.41192e-06
1.40773e-06
1.17369e-06
1.17112e-06
1.17105e-06
1.40775e-06
1.40916e-06
1.40486e-06
1.17061e-06
1.17055e-06
1.16784e-06
1.16771e-06
1.40914e-06
1.40484e-06
1.17049e-06
1.17062e-06
1.16764e-06
1.16786e-06
1.17064e-06
1.16769e-06
1.16787e-06
1.40922e-06
1.40492e-06
1.17049e-06
1.16779e-06