/*--------------------------------*- C++ -*----------------------------------*\
| =========                 |                                                 |
| \\      /  F ield         | OpenFOAM: The Open Source CFD Toolbox           |
|  \\    /   O peration     | Version:  2312                                  |
|   \\  /    A nd           | Website:  www.openfoam.com                      |
|    \\/     M anipulation  |                                                 |
\*---------------------------------------------------------------------------*/
FoamFile
{
    version     2.0;
    format      ascii;
    arch        "LSB;label=32;scalar=64";
    class       surfaceScalarField;
    location    "800";
    object      phi;
}
// * * * * * * * * * * * * * * * * * * * * * * * * * * * * * * * * * * * * * //

dimensions      [0 3 -1 0 0 0 0];

oriented        oriented;

internalField   nonuniform List<scalar> 
125280
(
1.24043e-07
1.18903e-07
-0.00118379
-7.71864e-08
-7.69951e-08
0.0011837
-0.00113203
-1.1988e-06
-1.13187e-07
-8.98583e-08
0.00113205
-2.39344e-07
1.23828e-06
2.74683e-07
9.11152e-07
-2.14964e-07
-8.55083e-07
2.69004e-07
-0.00113194
-1.19348e-06
-1.24625e-07
-4.50005e-08
0.00113191
-2.36681e-07
1.2355e-06
2.74628e-07
9.1126e-07
-2.1498e-07
-8.52378e-07
2.69028e-07
-0.000270074
1.22478e-06
1.18819e-06
-1.97905e-07
-2.00625e-07
0.00026806
-1.2804e-06
-1.23842e-06
0.000270144
-0.000268111
2.389e-07
2.46835e-07
0.00113153
-1.23526e-07
-0.00113155
-4.48525e-08
-1.23566e-06
2.77321e-07
-2.42142e-07
-8.55313e-07
2.66186e-07
-2.12371e-07
9.13949e-07
1.27777e-06
0.0011316
5.83743e-08
-0.00113178
-6.71715e-08
-1.23083e-06
2.80009e-07
-2.39725e-07
-8.6042e-07
2.6358e-07
-2.1499e-07
9.13748e-07
-1.21673e-06
0.000270124
-0.00026811
2.33947e-07
2.46579e-07
0.00113253
-1.24093e-07
-0.00113255
-5.0212e-08
-1.19384e-06
2.74744e-07
-2.36884e-07
-8.57742e-07
2.69132e-07
-2.15036e-07
9.16622e-07
1.27241e-06
0.00113147
-1.1785e-07
-0.00113149
-5.60526e-08
-1.22774e-06
2.80145e-07
-2.42284e-07
-8.57806e-07
2.66252e-07
-2.15076e-07
9.16487e-07
-6.69958e-08
-2.22356e-07
-1.2577e-06
2.71998e-07
-2.4498e-07
-8.5795e-07
2.66324e-07
9.08536e-07
-2.17702e-07
-0.00113183
1.27215e-06
0.0011311
-1.00916e-07
-5.02718e-08
-1.22215e-06
2.80001e-07
-2.3949e-07
-8.55065e-07
2.66247e-07
-2.14959e-07
9.08429e-07
-0.00113114
-1.23822e-06
0.000270105
-0.000268083
2.41719e-07
2.46655e-07
-1.24142e-07
-0.00113198
-3.3466e-08
-1.19356e-06
2.74669e-07
-2.36721e-07
-8.52424e-07
2.69054e-07
9.11288e-07
-2.15004e-07
1.2303e-06
0.00113207
-1.23916e-07
-0.00113204
-8.40422e-08
-1.19362e-06
2.74786e-07
-2.39522e-07
-8.54936e-07
2.69065e-07
-2.14973e-07
9.13795e-07
-0.000268058
2.38904e-07
2.46807e-07
1.2356e-06
1.19376e-06
-1.9546e-07
-2.03167e-07
0.000268113
-5.07336e-08
0.00113151
-2.39355e-07
1.28036e-06
2.77281e-07
9.13868e-07
-2.1232e-07
-8.5525e-07
2.66154e-07
-1.23308e-06
-1.12968e-07
-5.04927e-08
0.00113157
-2.4236e-07
1.27766e-06
2.80031e-07
9.16416e-07
-2.14987e-07
-8.57661e-07
2.68917e-07
-2.03223e-07
-2.00586e-07
0.000268096
-5.04436e-08
0.0011325
-2.36855e-07
1.23838e-06
2.74706e-07
9.16586e-07
-2.14995e-07
-8.57713e-07
2.69117e-07
-1.22766e-06
-1.18423e-07
-5.06886e-08
0.00113144
-2.42229e-07
1.27236e-06
2.80101e-07
9.16459e-07
-2.12321e-07
-8.57764e-07
2.66221e-07
-1.24423e-07
-5.05185e-08
0.00113108
-2.39406e-07
1.26943e-06
2.77217e-07
9.08396e-07
-2.1222e-07
2.63513e-07
-8.4965e-07
-1.98166e-07
-2.03091e-07
0.000268085
-1.24459e-07
-6.7559e-08
0.00113206
-2.36734e-07
1.23293e-06
2.74718e-07
9.13717e-07
-2.14937e-07
2.69016e-07
-8.5486e-07
6.90755e-09
-4.3566e-08
0.000193706
3.23387e-09
-0.000193672
6.84658e-09
-4.36571e-08
0.000193688
-0.000193655
-0.00118389
-7.06737e-08
-7.63396e-08
0.00118346
-0.00118305
-1.57913e-07
-2.56347e-07
0.00118335
-0.00118345
-8.8168e-08
-5.31797e-08
0.00118328
-0.00118331
-9.96053e-08
-9.9997e-08
-1.67573e-10
-7.00513e-08
0.000229498
-0.000229459
2.98529e-08
2.035e-09
-0.000193745
-4.83364e-09
2.26743e-08
-4.09323e-09
0.000193731
-0.000229459
2.44315e-11
2.85888e-08
0.00022944
-1.11168e-08
1.29006e-09
6.98738e-09
-4.33919e-08
0.000193784
3.11904e-09
-0.000193751
-9.80694e-05
4.97021e-09
1.36544e-08
9.80508e-05
-6.89053e-09
-2.19427e-08
9.80899e-05
-9.8061e-05
-7.01001e-08
-1.15437e-10
0.000229485
-0.000229447
2.10736e-09
2.98732e-08
-0.000193728
-4.95519e-09
2.26037e-08
-3.90667e-09
0.000193714
-0.000229446
2.86001e-08
2.16686e-10
0.000229427
9.23072e-10
-1.11283e-08
6.92787e-09
-4.34723e-08
0.000193767
3.25672e-09
-0.000193734
-8.86759e-08
-1.23697e-07
0.00118344
-7.71962e-08
-6.54576e-08
0.00118325
-8.30185e-08
-9.47968e-08
0.00118321
6.99299e-08
-1.72146e-09
0.000250298
-0.000250177
4.04424e-09
-1.93045e-07
-0.000245595
-1.20223e-08
-2.26353e-08
6.64235e-08
3.93947e-09
0.000245559
0.00115197
-0.00115206
-1.27979e-08
-1.33616e-07
1.00604e-06
-7.53336e-07
-9.35423e-07
8.28451e-07
-5.65793e-08
1.24093e-06
0.00113203
-1.24904e-07
-8.5232e-07
2.68935e-07
-2.14948e-07
9.11167e-07
-1.19608e-06
2.74638e-07
-2.36568e-07
-0.000250274
-2.84725e-08
9.29829e-10
0.000250167
2.75747e-09
1.31794e-07
2.32997e-08
4.33902e-08
0.000245633
-1.67709e-08
-0.000245578
-1.04706e-07
-9.73573e-09
0.00115193
-1.51994e-07
-9.32493e-07
8.25777e-07
-7.53151e-07
1.00337e-06
-9.80625e-05
4.91675e-09
1.1383e-08
9.80462e-05
-7.00826e-09
-1.95155e-08
9.8083e-05
-9.80564e-05
-6.9979e-10
6.99532e-08
0.000250288
-0.000250168
-1.93066e-07
3.87747e-09
0.0011518
-0.00115185
1.34913e-08
-1.50991e-07
1.00613e-06
-7.56042e-07
-9.32663e-07
8.28489e-07
-0.000245584
-1.20185e-08
-2.26057e-08
6.4001e-08
3.95062e-09
0.000245551
-5.07273e-08
1.23545e-06
0.00113189
-1.24961e-07
-8.52353e-07
2.68979e-07
-2.14932e-07
9.11221e-07
-1.19074e-06
2.74582e-07
-2.36661e-07
-0.000250261
1.21671e-09
-2.84832e-08
0.000250154
1.318e-07
1.88176e-09
-2.1242e-11
0.00115175
-1.51925e-07
-9.32528e-07
8.28516e-07
-7.53175e-07
1.00613e-06
2.31649e-08
4.3436e-08
0.000245622
-1.67133e-08
-0.00024557
-1.02332e-07
-0.000278332
1.21427e-08
-1.14176e-08
2.27096e-08
-6.78921e-09
0.000278316
-0.000278255
1.20914e-08
-1.13806e-08
2.26986e-08
-7.2666e-09
0.000278239
-1.26939e-06
-1.23288e-06
0.000270079
-0.000268062
2.41316e-07
2.44053e-07
-2.31755e-08
1.96108e-08
0.000278383
1.01187e-08
-0.000278339
-5.05614e-08
-2.3238e-08
1.95531e-08
0.000278305
1.06907e-08
-0.000278264
-4.82644e-08
-1.97929e-08
9.80692e-05
-9.80425e-05
-1.98409e-08
9.80582e-05
-9.80315e-05
0.00027014
-1.28047e-06
-1.24121e-06
-0.000268104
2.39037e-07
2.46982e-07
0.000278329
-2.32094e-08
1.26504e-08
-0.000278288
-5.0751e-08
0.000278261
-2.0793e-08
9.98919e-09
-0.000278219
-5.08241e-08
-1.96857e-08
-6.94915e-09
9.80899e-05
-9.80632e-05
1.14553e-08
4.88426e-09
9.80529e-05
-1.97333e-08
-6.88724e-09
9.80788e-05
-9.80522e-05
1.13151e-08
5.00973e-09
9.80419e-05
1.23572e-06
1.19659e-06
0.000268106
-1.95508e-07
-2.0321e-07
-2.32117e-08
0.000278379
-5.06186e-08
-0.000278338
1.26954e-08
-2.07963e-08
0.000278312
-5.06994e-08
-0.00027827
1.00378e-08
1.19956e-08
-9.29556e-09
2.50087e-08
0.000278313
9.78319e-09
-6.81996e-09
2.4882e-08
0.000278245
0.00113157
-1.2247e-07
-1.23581e-06
2.77426e-07
-2.39494e-07
-8.55462e-07
2.68951e-07
-2.15165e-07
9.13989e-07
-4.44202e-08
0.000245558
-1.67684e-08
-0.000245503
-1.04864e-07
-2.31044e-11
2.86197e-08
-1.11114e-08
1.05705e-09
0.000229401
-0.000229419
-4.34818e-08
-0.000193712
3.17718e-09
2.26245e-08
-4.03132e-09
0.000193692
-1.56168e-10
-7.01309e-08
-0.00022942
2.99138e-08
2.03634e-09
2.86119e-08
-1.11063e-08
8.82258e-10
0.00022936
-0.000229379
-4.5741e-08
6.85562e-09
0.000193683
-0.000193648
3.47233e-09
2.47434e-08
-5.02247e-09
-3.93907e-09
0.000193628
-0.000193644
-7.01479e-08
0.000229418
-0.00022938
2.99213e-08
2.07143e-09
7.47215e-10
2.74512e-09
1.3204e-07
0.000250151
-0.000250257
-5.59046e-08
-1.23058e-07
1.28043e-06
-2.39427e-07
2.80106e-07
9.13944e-07
-2.12376e-07
2.66236e-07
-8.55403e-07
0.000245596
-1.0474e-07
-0.000245542
-1.67763e-08
-0.00115235
1.14517e-09
0.00115231
-1.49592e-07
-9.35719e-07
8.31235e-07
-7.56285e-07
1.00897e-06
3.91756e-09
6.64341e-08
0.000245522
2.67153e-10
-1.54235e-07
1.0089e-06
-7.56505e-07
-9.35924e-07
8.31176e-07
-0.0011524
-8.9213e-10
0.000250285
-0.000250164
3.18141e-09
-1.93156e-07
1.38007e-09
1.32036e-07
0.000250126
-0.00025023
-3.2988e-08
-1.23862e-06
-3.1068e-07
9.19164e-07
-2.0964e-07
-8.55116e-07
2.68954e-07
1.28085e-06
-2.4505e-07
2.802e-07
-0.00113164
2.30116e-08
0.000245492
-1.04759e-07
-0.000245437
-1.897e-08
-0.00115232
0.00115224
-1.26474e-07
-9.4367e-07
8.31221e-07
-7.58981e-07
1.01146e-06
-1.21304e-08
6.44817e-09
6.6339e-08
0.000245418
-0.000245454
-1.83379e-07
1.01691e-06
-7.56461e-07
-9.38348e-07
8.33912e-07
-0.00115233
0.000250257
-0.000250139
4.6776e-09
-1.93179e-07
-2.20411e-08
-9.80405e-05
1.35872e-08
9.80302e-05
-9.80488e-05
0.000268108
-1.87871e-07
-0.000270125
1.17193e-06
-2.05785e-07
0.000278251
-4.83633e-08
-0.000278212
1.05558e-08
1.96247e-08
-2.33033e-08
0.000278394
-4.83576e-08
-0.000278353
1.0718e-08
2.25842e-08
0.000278187
-0.000278201
-7.49905e-09
-7.02278e-09
9.80856e-05
-9.80589e-05
0.00113257
-1.22998e-07
-1.19668e-06
2.74825e-07
-2.36965e-07
2.6921e-07
-2.15128e-07
0.000245524
-0.000245466
-1.02622e-07
2.86313e-08
2.17663e-10
9.08978e-10
-1.11209e-08
0.000229388
-4.35635e-08
-0.000193694
3.3168e-09
2.25617e-08
-3.84208e-09
0.000193675
-7.01675e-08
-1.10649e-10
-0.000229408
2.10409e-09
2.99327e-08
1.71854e-09
1.88975e-09
1.32022e-07
0.000250143
-5.00291e-08
-1.23614e-07
1.24118e-06
-2.3692e-07
2.74787e-07
9.1663e-07
-2.15072e-07
2.69178e-07
-8.57796e-07
0.000245562
-1.02506e-07
-0.000245505
-1.91506e-08
-0.00115219
-3.78336e-09
0.00115215
-1.49701e-07
-9.38221e-07
8.31227e-07
-7.56246e-07
1.01151e-06
6.53808e-09
6.4006e-08
0.000245486
3.78789e-09
-1.4271e-07
1.01148e-06
-7.56439e-07
-9.3841e-07
8.31163e-07
-1.63313e-09
0.000250278
-0.000250157
4.00207e-09
-1.93193e-07
2.86421e-08
-1.11226e-08
9.79845e-10
0.000229349
-4.34418e-08
6.97029e-09
0.00019367
-0.000193637
3.15521e-09
2.25672e-08
-4.96428e-09
-3.93447e-09
0.000193617
-7.01429e-08
0.000229406
-0.000229368
2.99178e-08
2.23534e-09
1.32056e-07
1.67683e-09
0.000250117
-5.02408e-08
-1.22781e-06
-1.17315e-07
9.16502e-07
-2.15129e-07
-8.57874e-07
2.6898e-07
1.27244e-06
-2.42322e-07
2.80208e-07
-0.00115214
0.00115207
-1.43759e-07
-9.3827e-07
8.31217e-07
-7.56289e-07
1.01152e-06
2.32677e-08
0.000245476
-9.99268e-08
-0.000245426
-1.67953e-08
-1.3673e-07
1.01147e-06
-7.56495e-07
-9.38419e-07
8.31154e-07
-1.21341e-08
3.97272e-09
6.40479e-08
0.000245407
0.000250248
-0.000250131
-1.93169e-07
4.37432e-09
4.34746e-08
-1.02378e-07
-0.000245542
-1.68042e-08
-3.9508e-08
-7.95241e-08
-9.41136e-07
8.28383e-07
1.00599e-06
-7.58986e-07
-0.00115229
6.99893e-08
-2.03529e-09
-0.000250153
4.51067e-09
-1.93061e-07
0.000193732
-0.000193698
3.07034e-09
-2.23787e-10
0.000229441
-0.000229405
2.10554e-09
3.19585e-08
0.00115195
-1.26637e-07
-9.35498e-07
8.2569e-07
-7.56242e-07
1.00329e-06
-0.00115205
4.35009e-08
2.32186e-08
0.000245516
-9.99388e-08
-0.000245466
-1.67134e-08
7.00508e-08
0.000250244
-0.000250124
-1.9568e-07
4.04502e-09
6.90073e-09
0.000193675
-0.000193642
3.27217e-09
0.000229404
-0.000229366
2.98633e-08
1.97049e-09
-1.96129e-08
-9.80359e-05
1.13186e-08
9.80256e-05
1.19633e-06
0.000268081
-1.98227e-07
-2.03167e-07
0.00027825
-4.60436e-08
-0.00027821
1.05849e-08
1.96927e-08
-2.31719e-08
0.000278386
-4.83585e-08
-0.000278344
1.05658e-08
-7.29938e-09
2.03997e-08
0.000278185
-1.13492e-08
9.68466e-09
-7.27662e-09
2.26009e-08
0.000278322
-6.92066e-09
9.80853e-05
-9.80587e-05
4.94726e-09
9.80484e-05
1.64246e-09
-2.85377e-08
1.31977e-07
1.87418e-09
0.000250128
-4.45434e-08
-1.23663e-07
1.23825e-06
-2.39519e-07
2.7471e-07
9.11326e-07
-2.15029e-07
-8.52534e-07
2.69097e-07
-0.00115191
2.25375e-08
-1.4993e-07
-9.32778e-07
8.28475e-07
1.00611e-06
-7.50724e-07
4.35249e-08
-1.0245e-07
-0.000245532
-1.67265e-08
5.78326e-08
-1.43098e-07
1.00604e-06
-7.53673e-07
-9.33006e-07
8.25669e-07
-2.2564e-08
4.00649e-09
6.40114e-08
0.00024551
-2.96096e-10
7.00334e-08
-0.000250141
-1.93117e-07
3.39625e-09
-2.84754e-08
1.31964e-07
2.15777e-09
0.000250103
-2.4959e-07
-1.26846e-06
-1.01075e-07
9.11064e-07
-2.15019e-07
-8.55093e-07
2.69138e-07
1.20328e-06
-2.53312e-07
2.7208e-07
-0.00115183
0.00115177
-1.4401e-07
-9.3532e-07
8.28388e-07
-7.50734e-07
1.00853e-06
4.35282e-08
2.32504e-08
0.000245481
-1.02469e-07
-0.000245429
-1.67687e-08
-1.01563e-07
1.00574e-06
-7.537e-07
-9.35634e-07
8.25577e-07
-2.25542e-08
-1.21258e-08
4.05138e-09
6.39931e-08
0.00024541
6.99625e-08
0.000250234
-0.000250116
-1.93074e-07
5.7405e-09
3.01999e-10
8.41484e-10
-1.31935e-08
0.000229378
0.000193727
-0.000193694
3.25484e-09
-3.91824e-09
0.000193674
9.68847e-12
0.000229434
-0.000229398
1.84782e-09
3.19721e-08
1.11347e-09
-1.52738e-08
0.000229341
6.96387e-09
0.000193667
-0.000193634
3.20152e-09
-5.00373e-09
-3.83083e-09
0.000193614
0.000229393
-0.00022936
2.42668e-09
3.40573e-08
0.000268069
-2.03331e-07
1.22543e-06
-2.10928e-07
1.97134e-08
-4.83808e-08
-0.000278291
1.0078e-08
1.96559e-08
-4.83814e-08
-0.000278213
1.06505e-08
-1.13155e-08
2.26453e-08
0.000278188
-7.32528e-09
9.80652e-05
-9.80386e-05
9.80614e-05
-9.80348e-05
9.80245e-05
1.15185e-08
9.80735e-05
-1.95833e-08
9.81103e-05
-9.80838e-05
1.13807e-08
9.80625e-05
-1.96287e-08
9.80993e-05
-9.80727e-05
1.1966e-08
2.50673e-08
-9.23902e-09
0.000278363
9.74394e-09
2.49426e-08
-6.75565e-09
0.000278295
0.000270149
-1.28031e-06
-1.23834e-06
-0.000268116
2.38749e-07
2.46688e-07
0.00027843
-2.32054e-08
1.27347e-08
-0.000278388
-5.04991e-08
0.000278362
-2.07952e-08
1.00813e-08
-0.00027832
-5.05774e-08
1.15845e-08
4.7831e-09
9.8094e-05
1.14493e-08
4.90393e-09
9.80829e-05
1.23549e-06
1.19365e-06
0.000268119
-1.95435e-07
-2.03142e-07
1.19384e-08
-9.18466e-09
2.51331e-08
0.000278413
9.71533e-09
-6.69789e-09
2.50108e-08
0.000278345
-7.00634e-08
0.000229457
-0.000229419
2.98541e-08
2.0674e-09
2.47989e-08
-4.01573e-09
0.000193668
2.85802e-08
0.0002294
-1.11074e-08
8.94848e-10
-4.5649e-08
0.000193722
3.41949e-09
-0.000193687
-9.16455e-10
0.000250312
-0.000250192
3.17965e-09
-1.9311e-07
6.64505e-08
3.88197e-09
0.000245561
0.00115225
7.24711e-09
-1.50723e-07
1.00897e-06
-7.56154e-07
-9.35617e-07
8.31252e-07
-4.52447e-08
0.00113148
-1.2442e-07
-1.23554e-06
2.77235e-07
-2.39324e-07
-8.55211e-07
2.6611e-07
-2.1229e-07
9.13841e-07
8.79838e-10
0.000250178
2.76565e-09
1.31871e-07
0.000245635
-1.67605e-08
-0.00024558
-1.04625e-07
-1.90576e-09
0.00115221
-1.51673e-07
-9.35475e-07
8.31289e-07
-7.55998e-07
1.009e-06
0.000250284
-0.000250167
4.67203e-09
-1.93129e-07
-1.21028e-08
6.63921e-08
3.95555e-09
0.000245458
0.0011522
-1.45117e-07
1.01148e-06
-7.56112e-07
-9.38059e-07
8.31241e-07
-5.61842e-08
0.00113155
1.27765e-06
-1.24663e-07
-8.60272e-07
2.68882e-07
9.19065e-07
-2.14949e-07
-1.23036e-06
2.79979e-07
-2.39579e-07
0.000250153
1.40058e-09
1.31862e-07
0.00024553
2.30126e-08
-1.65164e-08
-0.000245477
-1.04686e-07
0.00115214
-1.51789e-07
-9.4064e-07
8.31274e-07
-7.55956e-07
1.01422e-06
4.19042e-12
2.85774e-08
-1.11277e-08
1.296e-09
0.000229479
2.27208e-08
-4.15465e-09
0.00019377
2.85702e-08
-1.11219e-08
9.03962e-10
0.000229439
2.48405e-08
-4.91971e-09
-4.07584e-09
0.000193707
8.0002e-10
3.01809e-09
1.31745e-07
0.000250205
-5.10766e-08
-1.24865e-07
1.28027e-06
-2.393e-07
2.77194e-07
9.13814e-07
-2.12269e-07
2.6607e-07
-8.5517e-07
0.00113146
3.86107e-09
6.64662e-08
0.000245599
4.33143e-09
-1.52707e-07
1.00899e-06
-7.55872e-07
-9.35372e-07
8.31298e-07
0.00115216
1.16779e-09
1.31736e-07
0.000250181
-5.07155e-08
-1.23301e-06
-1.25077e-07
9.19037e-07
-2.14928e-07
-8.60229e-07
2.68846e-07
1.27762e-06
-2.42276e-07
2.79943e-07
0.00113153
-1.20707e-08
3.94039e-09
6.63991e-08
0.000245497
-1.52805e-07
1.01422e-06
-7.55824e-07
-9.40529e-07
8.31294e-07
0.0011521
2.26397e-08
-7.45792e-09
0.000278237
-1.14971e-08
2.27726e-08
-7.15238e-09
0.000278378
0.000270134
-0.000268101
2.4159e-07
2.43861e-07
0.000278301
1.05974e-08
-0.000278263
-4.8254e-08
1.95264e-08
0.000278447
1.02581e-08
-0.000278403
-5.05426e-08
4.90872e-09
9.80691e-05
9.8106e-05
-7.05975e-09
-9.80794e-05
1.3717e-08
9.80712e-05
1.19604e-06
0.000268104
-1.98008e-07
-2.00527e-07
-7.39754e-09
2.26998e-08
0.000278288
-1.15489e-08
1.19972e-08
-6.59483e-09
2.51241e-08
0.000278428
4.85916e-09
9.80895e-05
-1.64236e-09
0.000250305
-0.000250185
4.00877e-09
-1.93151e-07
6.4007e-08
6.50834e-09
0.000245524
0.00115209
3.44015e-09
-1.45049e-07
1.01153e-06
-7.56086e-07
-9.38101e-07
8.31252e-07
-5.05639e-08
0.00113248
-1.24998e-07
-1.1937e-06
2.74662e-07
-2.36827e-07
-8.57652e-07
2.69066e-07
-2.1498e-07
9.16553e-07
1.71752e-09
0.000250171
1.89888e-09
1.31859e-07
0.0002456
-1.91348e-08
-0.000245543
-1.02395e-07
-3.82307e-09
0.00115204
-1.46021e-07
-9.37957e-07
8.31285e-07
-7.55918e-07
1.01156e-06
-7.00769e-08
0.000229445
-0.000229407
2.98575e-08
2.23113e-09
2.26115e-08
-3.99211e-09
0.000193656
2.86095e-08
0.000229388
-1.11315e-08
9.95355e-10
-4.33569e-08
0.000193709
3.09658e-09
-0.000193676
0.000250275
-0.000250158
-1.93135e-07
4.37671e-09
0.00115203
-1.50762e-07
1.01152e-06
-7.56132e-07
-9.38135e-07
8.31239e-07
-1.21074e-08
6.16336e-08
3.9801e-09
0.000245445
-5.08562e-08
0.00113142
1.27231e-06
-1.24513e-07
-8.57723e-07
2.66173e-07
9.16429e-07
-2.12301e-07
-1.22759e-06
2.80055e-07
-2.42209e-07
0.000250144
1.31887e-07
1.70095e-09
0.00115197
-1.459e-07
-9.37997e-07
8.31281e-07
-7.55986e-07
1.01154e-06
0.000245514
2.32651e-08
-1.67896e-08
-0.000245464
-9.98231e-08
2.85895e-08
2.1574e-10
9.35496e-10
-1.11373e-08
0.000229467
2.26579e-08
-3.97202e-09
0.000193753
1.72524e-09
1.91319e-09
1.34325e-07
0.000250196
-5.07703e-08
-1.25448e-07
1.23829e-06
-2.368e-07
2.74621e-07
9.16532e-07
-2.14956e-07
2.69029e-07
-8.57627e-07
0.00113246
6.481e-09
6.40306e-08
0.000245562
3.58925e-09
-1.52891e-07
1.01156e-06
-7.55795e-07
-9.3786e-07
8.31295e-07
0.00115199
2.86022e-08
-1.11417e-08
1.00828e-09
0.000229427
2.26581e-08
-4.86835e-09
-4.04164e-09
0.000193695
1.34362e-07
1.72222e-09
0.000250169
-5.10304e-08
-1.22755e-06
-1.24953e-07
9.16393e-07
-2.12273e-07
-8.57688e-07
2.66129e-07
1.27226e-06
-2.42184e-07
2.80013e-07
0.0011314
-1.52777e-07
1.01155e-06
-7.55849e-07
-9.37889e-07
8.31297e-07
0.00115193
-1.20849e-08
3.97111e-09
6.16513e-08
0.000245483
-1.30003e-10
0.000229481
-0.000229445
2.10902e-09
3.19019e-08
-3.92216e-09
0.000193718
-1.48776e-10
0.000229425
1.31865e-09
-1.31825e-08
0.000193771
3.01584e-09
-0.000193737
6.99855e-08
0.000250269
-0.000250151
-1.93072e-07
4.05227e-09
0.00115189
-1.45285e-07
1.00333e-06
-7.50597e-07
8.25746e-07
-9.29918e-07
-2.26014e-08
6.39784e-08
3.99753e-09
0.000245483
-4.50862e-08
0.00113105
-1.1905e-07
-1.22471e-06
2.77177e-07
-2.39344e-07
-8.49619e-07
2.63449e-07
-2.09462e-07
9.08365e-07
-2.85335e-08
0.000250138
1.34399e-07
1.18495e-09
0.00115183
-1.46134e-07
-9.32479e-07
8.28531e-07
-7.53183e-07
1.00607e-06
4.34003e-08
0.000245554
-1.66842e-08
-0.0002455
-1.0464e-07
0.000229443
-0.000229405
2.98096e-08
1.9726e-09
-4.92282e-09
-3.93835e-09
0.000193661
0.000229386
-1.10999e-08
8.9097e-10
0.000193714
6.93868e-09
3.20832e-09
-0.000193681
-2.845e-08
1.39592e-09
2.28516e-09
1.31645e-07
0.000250191
-5.68318e-08
-1.25321e-07
1.24089e-06
-2.36551e-07
2.74588e-07
9.11153e-07
-2.14934e-07
-8.52328e-07
2.68884e-07
0.00113202
-2.26756e-08
3.9016e-09
6.64342e-08
0.000245597
1.48249e-09
-1.52949e-07
1.00606e-06
-7.50283e-07
-9.29709e-07
8.2853e-07
0.00115187
-2.33847e-11
1.32921e-09
-1.31869e-08
0.000229464
-3.98305e-09
0.000193757
-2.84993e-08
1.31671e-07
1.68532e-09
0.000250165
-5.08783e-08
-1.22466e-06
-1.30855e-07
9.08335e-07
-2.09458e-07
-8.49584e-07
2.63411e-07
1.26935e-06
-2.39319e-07
2.77143e-07
0.00113103
-1.58759e-07
1.00608e-06
-7.53036e-07
-9.32361e-07
8.2854e-07
0.00115179
-2.26439e-08
-1.20769e-08
3.97397e-09
6.63714e-08
0.000245519
-1.10943e-08
9.02421e-10
0.000229425
-4.87257e-09
-4.00308e-09
0.0001937
2.0441e-08
-7.24029e-09
0.000278236
-1.14287e-08
2.27106e-08
-9.81997e-09
0.000278372
0.000270108
-0.000268088
2.41573e-07
2.46517e-07
0.0002783
1.06233e-08
-0.000278261
-4.59254e-08
1.95904e-08
0.000278436
1.3216e-08
-0.000278397
-4.8267e-08
4.89275e-09
9.8069e-05
9.81058e-05
-6.95694e-09
-9.80793e-05
1.14473e-08
9.80666e-05
1.19069e-06
0.000268091
-1.98142e-07
-2.03073e-07
-7.18608e-09
2.05062e-08
0.000278286
-1.14912e-08
1.19951e-08
-9.75752e-09
2.27685e-08
0.000278422
4.84642e-09
9.80895e-05
6.98864e-08
0.000250261
-0.000250144
-1.93039e-07
5.25908e-09
0.00115172
-1.50977e-07
1.00853e-06
-7.56026e-07
8.28427e-07
-9.35146e-07
-2.25809e-08
6.39727e-08
4.03021e-09
0.000245448
-5.08905e-08
0.00113204
-1.24903e-07
-1.18814e-06
2.74669e-07
-2.36715e-07
-8.54797e-07
2.68963e-07
-2.1494e-07
9.13685e-07
-2.84292e-08
0.00025013
1.31792e-07
1.21261e-09
0.00115167
-1.51919e-07
-9.34977e-07
8.28472e-07
-7.53141e-07
1.00855e-06
4.34308e-08
0.00024552
-1.67571e-08
-0.000245467
-1.0234e-07
-1.26854e-10
0.000229473
-0.000229437
2.28868e-09
3.19142e-08
-3.98716e-09
0.000193713
2.79671e-10
0.000229417
8.50948e-10
-1.31866e-08
0.000193766
3.20242e-09
-0.000193733
0.000229433
-0.000229399
2.42587e-09
3.39952e-08
-4.94981e-09
-3.89021e-09
0.000193654
0.00022938
9.07234e-10
-1.52739e-08
0.000193706
6.99923e-09
3.14361e-09
-0.000193673
8.50669e-10
-2.84715e-08
1.31681e-07
2.14792e-09
0.000250182
-5.08984e-08
-1.254e-07
1.23541e-06
-2.36632e-07
2.74544e-07
9.11193e-07
-2.14934e-07
-8.52324e-07
2.68937e-07
0.00113188
5.03645e-09
-1.52976e-07
1.00612e-06
-7.53044e-07
-9.32441e-07
8.28539e-07
0.0011517
-2.2656e-08
3.93543e-09
6.40218e-08
0.000245589
-2.84119e-08
1.31656e-07
7.48586e-10
0.000250158
-5.10555e-08
-1.1881e-06
-1.25365e-07
9.13595e-07
-2.14924e-07
-8.54761e-07
2.68947e-07
1.23283e-06
-2.36698e-07
2.74623e-07
0.00113202
-1.52965e-07
1.00855e-06
-7.52995e-07
-9.34868e-07
8.2848e-07
0.00115163
-2.26398e-08
-1.20724e-08
4.00045e-09
6.40156e-08
0.000245486
1.71567e-10
8.61083e-10
-1.3195e-08
0.000229457
-4.04404e-09
0.000193752
6.95047e-10
-1.52802e-08
0.000229419
-4.90035e-09
-3.95651e-09
0.000193693
9.80489e-05
9.80857e-05
-9.80591e-05
9.80451e-05
9.80819e-05
-9.80553e-05
0.000268065
-1.9789e-07
-2.00594e-07
-1.14782e-08
-6.73202e-09
2.5071e-08
0.000278364
-1.14481e-08
-7.21373e-09
2.2762e-08
0.000278289
9.80693e-05
9.80655e-05
1.70891e-08
7.92964e-05
-1.47524e-11
-0.000263321
2.41998e-08
0.000263366
-6.15348e-08
-4.46548e-09
-3.99798e-09
-4.91286e-09
2.26195e-08
3.3258e-08
-9.90967e-10
7.93221e-05
-1.52876e-09
-5.04069e-09
2.2552e-08
-9.02772e-10
1.2401e-08
0.000143482
-0.000143493
1.10045e-10
-1.11182e-08
1.0689e-09
-0.000229478
-1.34116e-10
2.85777e-08
-0.0001712
-2.33946e-10
-7.07862e-11
0.00017123
-0.000223511
2.8758e-08
4.49634e-09
0.000223551
-7.15476e-08
-0.000171212
-6.39342e-11
-0.000223532
1.04474e-09
3.29648e-08
1.57993e-09
0.000143509
-7.93222e-05
-2.40595e-08
-1.56778e-09
7.93479e-05
-1.7159e-08
0.000263398
-1.0298e-09
-0.000263418
3.33164e-08
3.14967e-09
0.000193765
6.96532e-09
-4.34362e-08
-8.79796e-11
-7.93393e-05
-4.4889e-09
0.000263443
-6.1357e-08
-0.000143466
2.4042e-10
-2.87837e-08
2.98789e-08
2.2576e-09
-8.49896e-12
-7.00914e-08
8.95557e-10
0.000171182
-0.000171194
-5.59989e-11
-1.2399e-08
0.000223491
-0.000223511
3.29804e-08
-0.000143478
-6.354e-11
-7.15785e-08
1.71837e-08
7.93308e-05
-0.000263424
2.40178e-08
0.000263469
-6.13e-08
-4.12304e-09
-4.80966e-09
2.2694e-08
3.33428e-08
7.93564e-05
9.80796e-05
-6.86964e-09
-2.19928e-08
4.94552e-09
1.36815e-08
1.24117e-08
-7.92352e-10
0.00014348
-0.000143492
-8.07766e-12
7.02741e-10
-1.11307e-08
-0.000229465
7.00355e-11
2.85914e-08
-0.000223501
2.87854e-08
4.35863e-09
0.000223542
-7.15967e-08
-0.000171197
-3.45017e-10
4.65183e-11
0.000171227
-0.000223522
9.05018e-10
3.29625e-08
-0.000171209
3.74914e-11
1.49383e-09
0.000143507
-7.93239e-05
-2.41533e-08
-1.48187e-09
7.93495e-05
-1.70494e-08
0.000263394
-8.90291e-10
-0.000263413
3.32526e-08
3.28977e-09
0.000193747
6.90675e-09
-4.35224e-08
2.76919e-11
-7.9341e-05
-4.34932e-09
0.000263439
-6.14554e-08
-0.000143465
-2.8816e-08
3.52873e-10
2.32564e-09
2.99055e-08
3.52835e-11
-7.01376e-08
-1.24117e-08
0.000223481
-0.000223502
3.29795e-08
7.84755e-10
0.000171179
-0.000171191
4.65278e-11
-0.000143476
-7.16325e-08
5.71881e-11
1.70744e-08
7.93325e-05
-0.00026342
2.4111e-08
0.000263465
-6.13955e-08
-3.93872e-09
-4.92955e-09
2.26263e-08
3.32753e-08
7.93581e-05
9.80727e-05
-6.98655e-09
-1.95667e-08
4.89299e-09
1.14136e-08
-7.01525e-09
-7.0669e-09
0.000213851
-0.000213858
1.01465e-08
1.01216e-08
-8.05861e-05
-1.21523e-08
-1.2035e-08
8.06103e-05
-8.05746e-05
-1.2133e-08
-1.20695e-08
8.05988e-05
-8.06025e-05
9.38451e-09
-8.0591e-05
9.34853e-09
-2.4724e-08
-2.48048e-08
0.000213877
-0.000221985
-3.596e-08
3.29834e-08
2.47599e-08
0.000222021
-5.70436e-08
-1.57982e-08
0.000250743
-0.000250797
6.11878e-08
3.19081e-08
1.63362e-08
0.000183126
-9.3971e-09
-0.000183139
-4.83234e-08
1.00991e-08
0.000278358
1.96682e-08
-2.32134e-08
-1.01335e-08
-0.000222004
2.89102e-08
0.000250811
-9.70644e-08
-5.48601e-08
1.20355e-08
0.000183157
-0.000221917
-3.60482e-08
3.10158e-08
2.48384e-08
0.000221957
-5.94721e-08
-1.58094e-08
0.00025063
-0.000250687
6.36135e-08
3.19153e-08
1.4387e-08
0.000183074
-9.35895e-09
-0.000183086
-4.83231e-08
1.06713e-08
0.00027828
1.9604e-08
-2.32455e-08
-1.0103e-08
-0.00022194
3.13099e-08
0.000250703
-1.01962e-07
-5.49709e-08
1.20699e-08
0.000183103
-0.000213832
1.21784e-08
1.2159e-08
7.00469e-09
8.05783e-05
-8.05947e-05
7.05727e-09
8.05668e-05
-8.05832e-05
-0.000213839
1.58014e-08
-1.63692e-08
0.000222
3.1253e-08
-0.000183143
-3.29297e-08
0.000183174
2.50352e-08
-6.75534e-09
-1.14448e-08
1.20868e-08
-0.000250758
3.59236e-08
0.000250826
-9.94616e-08
-5.4848e-08
6.12041e-08
3.18777e-08
0.000222038
-5.92877e-08
1.58197e-08
-1.44137e-08
0.000221934
3.1343e-08
-0.000183091
-3.09621e-08
0.000183121
2.27286e-08
-7.24019e-09
-1.14154e-08
1.20846e-08
-0.000250646
3.60223e-08
0.000250718
-1.01892e-07
-5.49565e-08
6.3626e-08
3.19178e-08
0.000221974
-5.93994e-08
1.14236e-08
1.12837e-08
-7.06332e-09
-7.03038e-09
0.0002138
1.22277e-08
1.0227e-08
-8.05624e-05
-1.22478e-08
-1.20295e-08
8.05866e-05
-8.05489e-05
-1.22817e-08
-1.2027e-08
8.05732e-05
9.34054e-09
9.4053e-09
-2.70556e-08
-2.50074e-08
0.000213827
-1.65211e-08
0.000221965
1.81612e-08
2.9008e-08
-0.000183087
-3.33152e-08
0.000183121
-9.32784e-09
2.49913e-08
1.20266e-08
3.84918e-08
-0.000250746
0.000250808
-9.96086e-08
-5.24038e-08
0.000222001
-5.73173e-08
6.11591e-08
2.93539e-08
-1.62663e-08
0.000221899
1.58013e-08
3.34694e-08
-0.000183034
-3.31712e-08
0.000183065
-6.84914e-09
2.48604e-08
9.80668e-09
3.6012e-08
-0.000250638
0.000250705
-1.022e-07
-5.23684e-08
0.000221939
-6.19696e-08
6.3527e-08
2.94573e-08
-9.80796e-05
1.14835e-08
4.85986e-09
-1.97394e-08
-6.92723e-09
-9.80685e-05
1.13482e-08
4.98048e-09
-1.97892e-08
-6.86525e-09
-0.000213819
1.22282e-08
1.22575e-08
-2.70281e-08
-2.49752e-08
0.000213846
7.06954e-09
8.05702e-05
9.33153e-09
7.03453e-09
8.05567e-05
9.39961e-09
1.2232e-08
1.02362e-08
-1.20304e-08
8.05945e-05
-1.2035e-08
8.0581e-05
-1.65755e-08
1.81602e-08
0.000221999
-0.000222018
-1.22474e-08
2.90556e-08
-0.000250779
3.84489e-08
0.000250839
-9.69926e-08
-5.23938e-08
-9.26748e-09
2.50373e-08
-0.000278354
1.19812e-08
-0.000183122
-3.32114e-08
1.20268e-08
0.000183156
-0.000183139
-9.31887e-09
-0.000250826
5.87741e-08
3.18474e-08
2.69928e-08
0.000222035
-5.71708e-08
-1.63161e-08
1.58045e-08
0.000221933
-0.000221956
-1.02466e-08
3.35108e-08
-0.000250669
3.59686e-08
0.000250736
-1.0206e-07
-5.23564e-08
-6.78421e-09
2.49116e-08
-0.000278286
9.76286e-09
-0.000183069
-3.30725e-08
1.20318e-08
0.0001831
-0.000183083
-9.37979e-09
-0.000250721
6.35442e-08
2.94219e-08
2.49422e-08
0.000221973
-6.18244e-08
-0.000221982
3.32697e-08
-3.84738e-08
-5.72498e-08
1.65476e-08
0.000183105
-1.81494e-08
0.000250763
5.86843e-08
2.93196e-08
1.26741e-08
-5.0688e-08
-2.32097e-08
2.90289e-08
-9.71452e-08
-5.49405e-08
-0.000221916
3.31323e-08
-3.59919e-08
-6.19034e-08
1.62926e-08
0.000183052
-1.58034e-08
0.000250653
6.35253e-08
2.94411e-08
1.00167e-08
-5.07674e-08
-2.07953e-08
3.34893e-08
-1.02136e-07
-5.23623e-08
-7.07606e-09
-7.04784e-09
0.000213838
-8.05781e-05
-1.22048e-08
8.06023e-05
-8.05646e-05
-1.22318e-08
8.05889e-05
0.000213865
-0.000143436
2.52403e-10
-2.88429e-08
1.54289e-09
0.000143463
8.74186e-10
0.000171145
-6.20746e-11
-0.000171157
-1.23999e-08
0.000223451
1.00169e-09
3.2987e-08
-0.000223472
2.99389e-08
2.25598e-09
0.000229439
-4.08413e-11
-7.01637e-08
4.09052e-11
-0.000143447
0.000171176
-6.80939e-11
4.46992e-09
0.000223492
-7.16558e-08
7.93136e-05
1.7133e-08
-7.93307e-05
-6.45836e-11
-4.06342e-09
-0.000193725
2.26512e-08
2.41118e-08
-0.000263373
-4.48226e-09
-6.14194e-08
-1.55123e-09
-0.000263392
-1.01759e-09
3.32861e-08
-7.9305e-05
-2.41506e-08
-1.71132e-08
0.000263347
3.3261e-08
3.20705e-09
-4.35265e-08
-6.14777e-08
0.000143451
-8.86512e-10
1.23961e-08
-1.11045e-08
1.06317e-09
-1.35448e-10
2.85896e-08
-2.43016e-10
-0.000171164
-7.35738e-11
2.88099e-08
-0.000223471
-7.16237e-08
-6.5604e-11
3.29721e-08
-0.000143366
3.85571e-10
-2.8837e-08
1.41868e-09
0.000143393
7.46692e-10
0.000171111
-0.000171123
-1.23626e-08
0.000223352
-1.21208e-09
3.04849e-08
-0.000223368
2.9944e-08
2.06813e-09
0.000229399
-7.01756e-08
-4.973e-11
-0.000143377
0.000171141
6.34518e-09
0.000223388
-6.92071e-08
1.70324e-08
7.92718e-05
-7.92888e-05
2.75963e-11
-3.98132e-09
-0.000193664
-4.98765e-09
2.47604e-08
-0.00026324
2.42099e-08
-6.35389e-09
0.000263284
-5.89777e-08
-0.000263258
1.19123e-09
3.07163e-08
-1.43753e-09
7.92974e-05
-7.92631e-05
-2.4255e-08
-1.70123e-08
0.000263214
3.06934e-08
-0.000263233
3.5022e-09
6.83996e-09
-4.57863e-08
-7.92802e-05
-5.90294e-08
-7.6311e-10
1.23624e-08
0.000143381
-1.1101e-08
8.91815e-10
2.85797e-08
-0.000171129
-3.73475e-10
0.000171159
-0.000223372
2.88163e-08
0.000223409
-6.91782e-08
3.04695e-08
0.000143408
-9.80591e-05
1.3623e-08
-2.20801e-08
1.59217e-08
-1.45805e-08
0.00022191
-1.46278e-08
3.36922e-08
-0.00022193
-0.000250615
3.84223e-08
0.00025068
-9.72258e-08
-5.48121e-08
2.26143e-08
-7.48117e-09
-0.000278226
1.21209e-08
-0.000183052