/*--------------------------------*- C++ -*----------------------------------*\
| =========                 |                                                 |
| \\      /  F ield         | OpenFOAM: The Open Source CFD Toolbox           |
|  \\    /   O peration     | Version:  2312                                  |
|   \\  /    A nd           | Website:  www.openfoam.com                      |
|    \\/     M anipulation  |                                                 |
\*---------------------------------------------------------------------------*/
FoamFile
{
    version     2.0;
    format      ascii;
    arch        "LSB;label=32;scalar=64";
    class       volScalarField;
    location    "650";
    object      epsilon;
}
// * * * * * * * * * * * * * * * * * * * * * * * * * * * * * * * * * * * * * //

dimensions      [0 2 -3 0 0 0 0];

internalField   nonuniform List<scalar> 
42840
(
1.31331e-07
2.4074e-07
2.40748e-07
3.83362e-07
1.29951e-07
2.53379e-07
2.53393e-07
4.12387e-07
1.29351e-07
2.68051e-07
2.6807e-07
4.43539e-07
1.29534e-07
2.84683e-07
2.84713e-07
4.76999e-07
1.30475e-07
3.03193e-07
3.03235e-07
5.1299e-07
1.32177e-07
3.23478e-07
3.23531e-07
5.49425e-07
1.34639e-07
3.45416e-07
3.45479e-07
5.86807e-07
1.37861e-07
3.68877e-07
3.68946e-07
6.24194e-07
1.41845e-07
3.93711e-07
3.93783e-07
6.61506e-07
1.46597e-07
4.19754e-07
4.19834e-07
6.98647e-07
1.52121e-07
4.46852e-07
4.46938e-07
7.35102e-07
1.58424e-07
4.74827e-07
4.74925e-07
7.70868e-07
1.65509e-07
5.03507e-07
5.03623e-07
8.05724e-07
1.73378e-07
5.32729e-07
5.32848e-07
8.39464e-07
1.82033e-07
5.62312e-07
5.6243e-07
8.72027e-07
1.91469e-07
5.92078e-07
5.92202e-07
9.03411e-07
2.01678e-07
6.21867e-07
6.21993e-07
9.33623e-07
2.12644e-07
6.51523e-07
6.51654e-07
9.62644e-07
2.24347e-07
6.80897e-07
6.81032e-07
9.90444e-07
2.3676e-07
7.09854e-07
7.09989e-07
1.01709e-06
2.49852e-07
7.38271e-07
7.38405e-07
1.0426e-06
2.6358e-07
7.66044e-07
7.66182e-07
1.06696e-06
2.77897e-07
7.93076e-07
7.93218e-07
1.09114e-06
2.92745e-07
8.19293e-07
8.19437e-07
1.11411e-06
3.0806e-07
8.44624e-07
8.44769e-07
1.13533e-06
3.84008e-07
4.0548e-07
2.4082e-07
2.40855e-07
2.50117e-07
2.50154e-07
3.83846e-07
4.0508e-07
2.40781e-07
2.40842e-07
2.50074e-07
2.50147e-07
2.40802e-07
2.50033e-07
2.50103e-07
3.83663e-07
4.04999e-07
2.40797e-07
2.50043e-07
2.50098e-07
4.06156e-07
4.12607e-07
4.35866e-07
2.53476e-07
2.5351e-07
2.64297e-07
2.64338e-07
4.12628e-07
4.36417e-07
2.53431e-07
2.53505e-07
2.64248e-07
2.64338e-07
2.53458e-07
2.64202e-07
2.64287e-07
4.12997e-07
4.35911e-07
2.53453e-07
2.64217e-07
2.64282e-07
4.36836e-07
4.44517e-07
4.69465e-07
2.68161e-07
2.68197e-07
2.80462e-07
2.80505e-07
4.44132e-07
4.68996e-07
2.68111e-07
2.68196e-07
2.80407e-07
2.80511e-07
2.68145e-07
2.80351e-07
2.80452e-07
4.44498e-07
4.69455e-07
2.68137e-07
2.80378e-07
2.80443e-07
4.69875e-07
4.77618e-07
5.04189e-07
2.84807e-07
2.84846e-07
2.98529e-07
2.98571e-07
4.77682e-07
5.04224e-07
2.8475e-07
2.84852e-07
2.98465e-07
2.98584e-07
2.84795e-07
2.98401e-07
2.98523e-07
4.77628e-07
5.03787e-07
2.84782e-07
2.98438e-07
2.98509e-07
5.04169e-07
5.12895e-07
5.39727e-07
3.03335e-07
3.03373e-07
3.18398e-07
3.18437e-07
5.12986e-07
5.39776e-07
3.03268e-07
3.03386e-07
3.18322e-07
3.18455e-07
3.03328e-07
3.18252e-07
3.18401e-07
5.13061e-07
5.40249e-07
3.0331e-07
3.18301e-07
3.18381e-07
5.40523e-07
5.49656e-07
5.77225e-07
3.23636e-07
3.23673e-07
3.39948e-07
3.39985e-07
5.49622e-07
5.77516e-07
3.23559e-07
3.2369e-07
3.39863e-07
3.40012e-07
3.23636e-07
3.39788e-07
3.39959e-07
5.49292e-07
5.77414e-07
3.23612e-07
3.39848e-07
3.39933e-07
5.77174e-07
5.86477e-07
6.14574e-07
3.45587e-07
3.45622e-07
3.63053e-07
3.63087e-07
5.86426e-07
6.14524e-07
3.45501e-07
3.45646e-07
3.62953e-07
3.63122e-07
3.45596e-07
3.62881e-07
3.6307e-07
5.86512e-07
6.14855e-07
3.45562e-07
3.62948e-07
3.63033e-07
6.14917e-07
6.24091e-07
6.52148e-07
3.6906e-07
3.69089e-07
3.87568e-07
3.87601e-07
6.24185e-07
6.52273e-07
3.68957e-07
3.69122e-07
3.87452e-07
3.8764e-07
3.69071e-07
3.87387e-07
3.8759e-07
6.24183e-07
6.52277e-07
3.69027e-07
3.87455e-07
3.87538e-07
6.5304e-07
6.61707e-07
6.89617e-07
3.93895e-07
3.93927e-07
4.13332e-07
4.13358e-07
6.61739e-07
6.89804e-07
3.93783e-07
3.93967e-07
4.13203e-07
4.13409e-07
3.93914e-07
4.13143e-07
4.13352e-07
6.61734e-07
6.89518e-07
3.9386e-07
4.13214e-07
4.13293e-07
6.90556e-07
6.98954e-07
7.26355e-07
4.19947e-07
4.19974e-07
4.40186e-07
4.40208e-07
6.98963e-07
7.26231e-07
4.19822e-07
4.20024e-07
4.40045e-07
4.40271e-07
4.19968e-07
4.39991e-07
4.40208e-07
6.99115e-07
7.25836e-07
4.19901e-07
4.4007e-07
4.40135e-07
7.2754e-07
7.35532e-07
7.61988e-07
4.47047e-07
4.47069e-07
4.67964e-07
4.67981e-07
7.35549e-07
7.61878e-07
4.46913e-07
4.47132e-07
4.67815e-07
4.68057e-07
4.47071e-07
4.6776e-07
4.67982e-07
7.36385e-07
7.61822e-07
4.46991e-07
4.67854e-07
4.67899e-07
7.63446e-07
7.71723e-07
7.96557e-07
4.75032e-07
4.75041e-07
4.96494e-07
4.965e-07
7.7171e-07
7.96496e-07
4.7489e-07
4.75119e-07
4.96336e-07
4.96594e-07
4.7505e-07
4.96279e-07
4.96508e-07
7.72582e-07
7.96897e-07
4.74959e-07
4.9639e-07
4.96415e-07
7.98458e-07
8.07096e-07
8.30611e-07
5.03723e-07
5.03721e-07
5.25604e-07
5.25601e-07
8.072e-07
8.3073e-07
5.03569e-07
5.03816e-07
5.25441e-07
5.25701e-07
5.03736e-07
5.25382e-07
5.25611e-07
8.07521e-07
8.3087e-07
5.03635e-07
5.25501e-07
5.2551e-07
8.324e-07
8.41087e-07
8.63474e-07
5.32947e-07
5.32938e-07
5.55112e-07
5.55106e-07
8.41176e-07
8.63603e-07
5.3279e-07
5.33034e-07
5.54944e-07
5.55209e-07
5.32954e-07
5.54892e-07
5.55117e-07
8.41295e-07
8.63643e-07
5.32848e-07
5.55011e-07
5.55009e-07
8.65139e-07
8.73764e-07
8.95109e-07
5.62528e-07
5.62516e-07
5.84852e-07
5.84837e-07
8.73837e-07
8.95189e-07
5.62367e-07
5.62612e-07
5.84681e-07
5.84942e-07
5.62534e-07
5.84629e-07
5.84857e-07
8.73873e-07
8.95233e-07
5.62423e-07
5.84752e-07
5.8474e-07
8.96675e-07
9.05177e-07
9.25593e-07
5.92299e-07
5.92276e-07
6.14654e-07
6.14629e-07
9.0521e-07
9.25555e-07
5.92134e-07
5.92374e-07
6.14479e-07
6.14733e-07
5.92306e-07
6.14426e-07
6.14657e-07
9.05238e-07
9.25597e-07
5.92184e-07
6.14554e-07
6.14532e-07
9.2706e-07
9.3512e-07
9.56432e-07
6.22089e-07
6.22059e-07
6.44349e-07
6.44325e-07
9.35382e-07
9.54793e-07
6.21918e-07
6.22155e-07
6.44167e-07
6.44426e-07
6.22097e-07
6.44127e-07
6.44359e-07
9.35416e-07
9.54852e-07
6.21964e-07
6.44258e-07
6.44221e-07
9.56257e-07
9.62714e-07
9.84373e-07
6.5174e-07
6.51705e-07
6.738e-07
6.73768e-07
9.64386e-07
9.82782e-07
6.5156e-07
6.51805e-07
6.73607e-07
6.73874e-07
6.51752e-07
6.73584e-07
6.73812e-07
9.64454e-07
9.82878e-07
6.51604e-07
6.73719e-07
6.73661e-07
9.84246e-07
9.90567e-07
1.01119e-06
6.8111e-07
6.8107e-07
7.02859e-07
7.02831e-07
9.92142e-07
1.00965e-06
6.80914e-07
6.81173e-07
7.02656e-07
7.02931e-07
6.81122e-07
7.02655e-07
7.02878e-07
9.92237e-07
1.00975e-06
6.80962e-07
7.02794e-07
7.02716e-07
1.01106e-06
1.0172e-06
1.0369e-06
7.10053e-07
7.10015e-07
7.31412e-07
7.31387e-07
1.01871e-06
1.03535e-06
7.09849e-07
7.10117e-07
7.31206e-07
7.31481e-07
7.10078e-07
7.31219e-07
7.31452e-07
1.01874e-06
1.03705e-06
7.09904e-07
7.31354e-07
7.31272e-07
1.03676e-06
1.04271e-06
1.06146e-06
7.38463e-07
7.38426e-07
7.59349e-07
7.59323e-07
1.04415e-06
1.05994e-06
7.38255e-07
7.38521e-07
7.59138e-07
7.59412e-07
7.38502e-07
7.59164e-07
7.59401e-07
1.04285e-06
1.06149e-06
7.38315e-07
7.59299e-07
7.59211e-07
1.06134e-06
1.06707e-06
1.08494e-06
7.66229e-07
7.66193e-07
7.8657e-07
7.86539e-07
1.06844e-06
1.08347e-06
7.66016e-07
7.66284e-07
7.86356e-07
7.86631e-07
7.66282e-07
7.8639e-07
7.86627e-07
1.06713e-06
1.08502e-06
7.66086e-07
7.86531e-07
7.86431e-07
1.0837e-06
1.09039e-06
1.10741e-06
7.93256e-07
7.93219e-07
8.12993e-07
8.12959e-07
1.09166e-06
1.10606e-06
7.93042e-07
7.93308e-07
8.12779e-07
8.13048e-07
7.93315e-07
8.12819e-07
8.13056e-07
1.09046e-06
1.10752e-06
7.93113e-07
8.12963e-07
8.1286e-07
1.10583e-06
1.11266e-06
1.12844e-06
8.1947e-07
8.19428e-07
8.38548e-07
8.38506e-07
1.11335e-06
1.12816e-06
8.19254e-07
8.19518e-07
8.38336e-07
8.38595e-07
8.19534e-07
8.38375e-07
8.38619e-07
1.11258e-06
1.12845e-06
8.19333e-07
8.38522e-07
8.38423e-07
1.12732e-06
1.13387e-06
8.44796e-07
8.44751e-07
1.1341e-06
8.44585e-07
8.44841e-07
8.44876e-07
1.13409e-06
8.44675e-07
3.75891e-06
8.92052e-06
8.92539e-06
3.73502e-06
1.84403e-05
1.8433e-05
3.75867e-06
8.92179e-06
8.92666e-06
3.73539e-06
1.31332e-07
1.31332e-07
1.31334e-07
1.30231e-07
1.30233e-07
1.30233e-07
1.30236e-07
1.24195e-06
2.86788e-06
1.59568e-07
2.43716e-07
2.89003e-06
1.6012e-07
1.21391e-06
1.84412e-05
1.8434e-05
1.24186e-06
1.59597e-07
2.86923e-06
2.43726e-07
1.60127e-07
2.8887e-06
1.21425e-06
5.17123e-06
5.17159e-06
3.91372e-07
5.1795e-06
5.18186e-06
3.81868e-06
8.93043e-06
3.80015e-06
8.93477e-06
1.84136e-05
1.84071e-05
3.81868e-06
8.93169e-06
3.80038e-06
8.93602e-06
1.29951e-07
1.29953e-07
1.29955e-07
1.29443e-07
1.29444e-07
1.29447e-07
1.2945e-07
1.32242e-06
2.92974e-06
1.62215e-07
2.56868e-07
1.29591e-06
2.94919e-06
1.63106e-07
1.84144e-05
1.84079e-05
1.32285e-06
1.62252e-07
2.93099e-06
2.56882e-07
1.29606e-06
1.63117e-07
2.94797e-06
5.19942e-06
5.20043e-06
4.21388e-07
5.20628e-06
5.2083e-06
3.86388e-06
8.93905e-06
3.85093e-06
8.94291e-06
1.83892e-05
1.83835e-05
3.86457e-06
8.94029e-06
3.85046e-06
8.94415e-06
1.29351e-07
1.29354e-07
1.29357e-07
1.2942e-07
1.2942e-07
1.29424e-07
1.29426e-07
1.39814e-06
2.9842e-06
1.6621e-07
2.72035e-07
1.37417e-06
3.00129e-06
1.67444e-07
1.839e-05
1.83843e-05
1.3989e-06
1.66251e-07
2.98544e-06
2.72054e-07
1.37383e-06
1.67458e-07
3.00019e-06
5.22301e-06
5.22435e-06
4.53105e-07
5.22854e-06
5.23065e-06
3.89872e-06
8.94655e-06
3.88913e-06
8.94994e-06
1.83672e-05
1.83623e-05
3.89938e-06
8.94781e-06
3.88859e-06
8.95117e-06
1.29533e-07
1.29538e-07
1.29542e-07
1.30168e-07
1.30168e-07
1.30174e-07
1.30178e-07
1.46868e-06
3.03217e-06
1.71567e-07
2.89146e-07
1.44658e-06
3.04725e-06
1.73143e-07
1.8368e-05
1.8363e-05
1.46872e-06
1.71613e-07
3.03338e-06
2.89176e-07
1.44675e-06
1.73159e-07
3.04616e-06
5.24277e-06
5.24412e-06
4.86962e-07
5.2474e-06
5.24943e-06
3.92515e-06
8.95311e-06
3.91807e-06
8.95607e-06
1.83474e-05
1.83432e-05
3.92578e-06
8.95439e-06
3.91752e-06
8.95731e-06
1.30474e-07
1.30481e-07
1.30485e-07
1.3168e-07
1.31679e-07
1.31689e-07
1.31693e-07
1.53302e-06
3.07454e-06
1.78289e-07
3.08109e-07
1.51307e-06
3.08785e-06
1.8021e-07
1.83482e-05
1.83439e-05
1.53314e-06
1.78344e-07
3.07567e-06
3.08151e-07
1.51324e-06
1.80232e-07
3.08679e-06
5.25976e-06
5.26127e-06
5.22097e-07
5.26371e-06
5.26565e-06
3.94534e-06
8.95899e-06
3.94012e-06
8.9617e-06
1.83297e-05
1.83262e-05
3.94596e-06
8.9603e-06
3.9396e-06
8.96292e-06
1.32175e-07
1.32186e-07
1.3219e-07
1.33952e-07
1.3395e-07
1.33963e-07
1.33968e-07
1.59169e-06
3.11202e-06
1.86382e-07
3.2882e-07
1.57306e-06
3.1238e-06
1.88646e-07
1.83304e-05
1.8327e-05
1.5916e-06
1.86446e-07
3.11308e-06
3.28872e-07
1.57318e-06
1.88676e-07
3.12278e-06
5.27422e-06
5.27581e-06
5.58866e-07
5.27776e-06
5.27955e-06
3.96099e-06
8.9645e-06
3.95714e-06
8.96708e-06
1.83141e-05
1.83115e-05
3.9616e-06
8.96579e-06
3.95665e-06
8.96834e-06
1.34636e-07
1.3465e-07
1.34655e-07
1.36985e-07
1.36981e-07
1.36997e-07
1.37003e-07
1.64385e-06
3.14535e-06
1.95835e-07
3.51149e-07
1.62727e-06
3.15584e-06
1.98442e-07
1.83149e-05
1.83122e-05
1.64396e-06
1.95909e-07
3.14636e-06
3.51214e-07
1.62738e-06
1.98477e-07
3.15485e-06
5.28692e-06
5.28846e-06
5.96375e-07
5.29005e-06
5.29179e-06
3.97353e-06
8.96986e-06
3.9705e-06
8.97243e-06
1.83009e-05
1.82991e-05
3.97378e-06
8.97115e-06
3.97009e-06
8.97373e-06
1.37859e-07
1.37875e-07
1.37882e-07
1.4078e-07
1.40776e-07
1.40794e-07
1.40801e-07
1.69085e-06
3.17517e-06
2.06631e-07
3.74969e-07
1.67585e-06
3.18459e-06
2.09571e-07
1.83016e-05
1.82997e-05
1.69065e-06
2.06713e-07
3.17614e-06
3.75034e-07
1.67609e-06
2.09612e-07
3.18365e-06
5.29823e-06
5.29983e-06
6.3353e-07
5.30105e-06
5.30276e-06
3.98356e-06
8.97526e-06
3.98102e-06
8.97794e-06
1.82899e-05
1.8289e-05
3.98376e-06
8.97659e-06
3.98077e-06
8.9793e-06
1.41843e-07
1.41863e-07
1.4187e-07
1.4534e-07
1.45336e-07
1.45358e-07
1.45364e-07
1.73231e-06
3.20211e-06
2.18741e-07
4.00118e-07
1.71955e-06
3.21061e-06
2.22011e-07
1.82906e-05
1.82895e-05
1.73258e-06
2.18829e-07
3.20302e-06
4.00189e-07
1.71943e-06
2.22056e-07
3.20973e-06
5.30857e-06
5.3102e-06
6.71881e-07
5.31116e-06
5.31286e-06
3.99191e-06
8.98091e-06
3.9899e-06
8.98374e-06
1.82813e-05
1.82812e-05
3.99212e-06
8.98227e-06
3.98978e-06
8.98523e-06
1.46595e-07
1.46618e-07
1.46625e-07
1.50671e-07
1.50667e-07
1.50692e-07
1.50698e-07
1.7699e-06
3.22687e-06
2.32136e-07
4.26439e-07
1.7585e-06
3.2339e-06
2.35721e-07
1.82819e-05
1.82818e-05
1.77023e-06
2.32227e-07
3.22751e-06
4.26517e-07
1.75829e-06
2.35768e-07
3.23354e-06
5.31822e-06
5.31987e-06
7.09199e-07
5.32065e-06
5.32238e-06
3.99926e-06
8.98726e-06
3.99744e-06
8.98993e-06
1.82751e-05
1.82758e-05
3.99939e-06
8.9885e-06
3.9974e-06
8.99145e-06
1.5212e-07
1.52146e-07
1.52152e-07
1.56778e-07
1.56774e-07
1.56804e-07
1.56807e-07
1.80374e-06
3.24924e-06
2.46769e-07
4.53771e-07
1.79349e-06
3.25577e-06
2.50658e-07
1.82757e-05
1.82763e-05
1.8041e-06
2.46865e-07
3.25001e-06
4.53856e-07
1.79327e-06
2.50706e-07
3.2555e-06
5.32742e-06
5.3291e-06
7.45563e-07
5.32977e-06
5.33151e-06
4.00563e-06
8.994e-06
4.00407e-06
8.9969e-06
1.82712e-05
1.82728e-05
4.00578e-06
8.9954e-06
4.00413e-06
8.9983e-06
1.58422e-07
1.58453e-07
1.58456e-07
1.63667e-07
1.63661e-07
1.63698e-07
1.63697e-07
1.8345e-06
3.27004e-06
2.62588e-07
4.81935e-07
1.82517e-06
3.27641e-06
2.66765e-07
1.82718e-05
1.82733e-05
1.8348e-06
2.62688e-07
3.27095e-06
4.82035e-07
1.825e-06
2.66818e-07
3.27577e-06
5.33637e-06
5.33806e-06
7.81004e-07
5.33868e-06
5.34044e-06
4.01158e-06
9.00139e-06
4.01011e-06
9.00458e-06
1.82698e-05
1.82722e-05
4.01169e-06
9.00275e-06
4.01015e-06
9.00592e-06
1.65505e-07
1.65541e-07
1.65542e-07
1.7134e-07
1.71333e-07
1.71375e-07
1.71372e-07
1.86271e-06
3.28968e-06
2.79532e-07
5.10767e-07
1.85403e-06
3.29534e-06
2.83983e-07
1.82703e-05
1.82727e-05
1.86294e-06
2.79639e-07
3.28997e-06
5.10882e-07
1.85394e-06
2.8404e-07
3.29498e-06
5.34519e-06
5.3469e-06
8.15506e-07
5.34748e-06
5.34927e-06
4.01719e-06
9.00952e-06
4.0158e-06
9.013e-06
1.82706e-05
1.82739e-05
4.0173e-06
9.01083e-06
4.01582e-06
9.01431e-06
1.73372e-07
1.73414e-07
1.73413e-07
1.79799e-07
1.79789e-07
1.79838e-07
1.79831e-07
1.88868e-06
3.3081e-06
2.97537e-07
5.40094e-07
1.8807e-06
3.3136e-06
3.02243e-07
1.82712e-05
1.82744e-05
1.88892e-06
2.97651e-07
3.30857e-06
5.40213e-07
1.88063e-06
3.02305e-07
3.31305e-06
5.35401e-06
5.35569e-06
8.48861e-07
5.3563e-06
5.35809e-06
4.02273e-06
9.0184e-06
4.02133e-06
9.02219e-06
1.82737e-05
1.82778e-05
4.02283e-06
9.01971e-06
4.02132e-06
9.02351e-06
1.82025e-07
1.82071e-07
1.82069e-07
1.89039e-07
1.89028e-07
1.89082e-07
1.89075e-07
1.913e-06
3.3256e-06
3.16526e-07
5.6974e-07
1.90546e-06
3.33066e-06
3.21464e-07
1.82743e-05
1.82784e-05
1.91309e-06
3.16646e-07
3.32583e-06
5.69861e-07
1.90548e-06
3.21535e-07
3.33046e-06
5.36285e-06
5.3645e-06
8.81026e-07
5.3652e-06
5.36696e-06
4.02837e-06
9.02804e-06
4.02682e-06
9.03215e-06
1.82791e-05
1.82839e-05
4.02842e-06
9.02938e-06
4.02685e-06
9.0335e-06
1.91459e-07
1.9151e-07
1.91507e-07
1.99055e-07
1.99042e-07
1.991e-07
1.99093e-07
1.93574e-06
3.34225e-06
3.36417e-07
5.99525e-07
1.9287e-06
3.34709e-06
3.41566e-07
1.82797e-05
1.82845e-05
1.93583e-06
3.36546e-07
3.3428e-06
5.99653e-07
1.9287e-06
3.41648e-07
3.34675e-06
5.37175e-06
5.37338e-06
9.12e-07
5.37415e-06
5.37589e-06
4.03414e-06
9.03847e-06
4.03247e-06
9.0429e-06
1.82865e-05
1.82921e-05
4.03418e-06
9.03984e-06
4.03252e-06
9.04428e-06
2.01664e-07
2.0172e-07
2.01717e-07
2.09832e-07
2.09818e-07
2.09879e-07
2.09873e-07
1.9573e-06
3.35833e-06
3.57129e-07
6.29293e-07
1.95059e-06
3.3629e-06
3.62475e-07
1.82872e-05
1.82927e-05
1.95741e-06
3.57264e-07
3.35868e-06
6.29425e-07
1.95055e-06
3.62558e-07
3.36282e-06
5.38073e-06
5.38233e-06
9.41786e-07
5.38318e-06
5.38491e-06
4.04017e-06
9.04969e-06
4.03837e-06
9.05443e-06
1.8296e-05
1.83023e-05
4.04022e-06
9.05107e-06
4.03842e-06
9.05582e-06
2.12629e-07
2.12689e-07
2.12685e-07
2.21352e-07
2.21338e-07
2.21404e-07
2.21396e-07
1.97782e-06
3.37348e-06
3.78576e-07
6.58892e-07
1.97142e-06
3.37793e-06
3.84089e-07
1.82966e-05
1.83029e-05
1.97791e-06
3.78715e-07
3.37397e-06
6.59027e-07
1.9714e-06
3.84178e-07
3.37797e-06
5.3898e-06
5.39138e-06
9.70385e-07
5.39229e-06
5.39403e-06
4.04647e-06
9.0617e-06
4.04453e-06
9.0668e-06
1.83071e-05
1.83141e-05
4.04659e-06
9.06306e-06
4.04464e-06
9.06812e-06
2.24331e-07
2.24397e-07
2.24391e-07
2.33591e-07
2.33577e-07
2.33647e-07
2.33638e-07
1.99743e-06
3.38817e-06
4.00653e-07
6.88171e-07
1.99131e-06
3.39248e-06
4.06309e-07
1.8308e-05
1.83149e-05
1.99753e-06
4.00802e-07
3.38869e-06
6.88312e-07
1.99131e-06
4.06407e-07
3.39221e-06
5.39895e-06
5.40051e-06
9.97759e-07
5.40153e-06
5.40324e-06
4.05316e-06
9.07416e-06
4.05107e-06
9.08005e-06
1.83201e-05
1.83277e-05
4.05321e-06
9.07578e-06
4.05115e-06
9.08111e-06
2.36745e-07
2.36817e-07
2.36808e-07
2.46516e-07
2.46504e-07
2.46578e-07
2.4657e-07
2.01621e-06
3.40232e-06
4.23268e-07
7.17004e-07
2.01035e-06
3.40659e-06
4.29039e-07
1.83212e-05
1.83287e-05
2.0163e-06
4.23424e-07
3.40277e-06
7.17145e-07
2.01038e-06
4.29143e-07
3.40619e-06
5.40818e-06
5.40974e-06
1.02402e-06
5.41076e-06
5.41254e-06
4.06006e-06
9.08761e-06
4.05795e-06
9.09373e-06
1.83348e-05
1.8343e-05
4.05994e-06
9.08916e-06
4.05807e-06
9.09477e-06
2.49838e-07
2.49914e-07
2.49906e-07
2.6009e-07
2.6008e-07
2.60158e-07
2.6015e-07
2.03431e-06
3.4161e-06
4.46314e-07
7.45269e-07
2.02866e-06
3.41994e-06
4.52173e-07
1.83359e-05
1.8344e-05
2.03438e-06
4.46474e-07
3.41621e-06
7.45409e-07
2.0287e-06
4.52283e-07
3.41983e-06
5.41758e-06
5.41905e-06
1.04915e-06
5.42001e-06
5.42188e-06
4.06723e-06
9.10169e-06
4.06493e-06
9.10804e-06
1.8351e-05
1.83597e-05
4.06712e-06
9.10318e-06
4.06533e-06
9.10903e-06
2.63568e-07
2.63648e-07
2.63641e-07
2.74265e-07
2.74256e-07
2.74339e-07
2.74331e-07
2.0517e-06
3.42911e-06
4.69684e-07
7.72869e-07
2.04628e-06
3.43296e-06
4.75609e-07
1.83523e-05
1.83608e-05
2.05176e-06
4.69847e-07
3.42953e-06
7.73012e-07
2.04632e-06
4.75721e-07
3.43277e-06
5.427e-06
5.4284e-06
1.07311e-06
5.42936e-06
5.43127e-06
4.07482e-06
9.11631e-06
4.07252e-06
9.12287e-06
1.83687e-05
1.83778e-05
4.07478e-06
9.11778e-06
4.07266e-06
9.12385e-06
2.77887e-07
2.77971e-07
2.77963e-07
2.88985e-07
2.88979e-07
2.89065e-07
2.89058e-07
2.06835e-06
3.44182e-06
4.93268e-07
7.99705e-07
2.06319e-06
3.44549e-06
4.99231e-07
1.83699e-05
1.83791e-05
2.06846e-06
4.93438e-07
3.44211e-06
7.99853e-07
2.06324e-06
4.99347e-07
3.44543e-06
5.43637e-06
5.43781e-06
1.09467e-06
5.43877e-06
5.44063e-06
4.08244e-06
9.13165e-06
4.08e-06
9.13794e-06
1.83876e-05
1.83973e-05
4.08219e-06
9.1329e-06
4.08029e-06
9.13915e-06
2.92736e-07
2.92824e-07
2.92818e-07
3.0419e-07
3.04185e-07
3.04274e-07
3.0427e-07
2.08436e-06
3.45409e-06
5.16958e-07
8.25708e-07
2.0794e-06
3.4576e-06
5.22932e-07
1.8389e-05
1.83986e-05
2.08446e-06
5.17135e-07
3.45458e-06
8.25857e-07
2.07947e-06
5.23054e-07
3.45745e-06
5.44569e-06
5.44718e-06
1.11661e-06
5.44829e-06
5.45003e-06
4.09018e-06
9.14718e-06
4.08757e-06
9.15375e-06
1.84078e-05
1.84179e-05
4.08982e-06
9.14845e-06
4.08796e-06
9.15488e-06
3.08053e-07
3.08143e-07
3.08141e-07
2.09967e-06
3.46609e-06
5.40645e-07
8.5081e-07
2.09489e-06
3.46878e-06
5.46599e-07
1.84092e-05
1.84193e-05
2.09973e-06
5.40824e-07
3.46619e-06
8.50958e-07
2.09499e-06
5.46722e-07
3.46923e-06
5.45511e-06
5.45656e-06
1.13746e-06
5.45742e-06
5.45943e-06
1.84377e-05
1.84305e-05
1.84405e-05
1.84333e-05
5.17113e-06
5.17309e-06
3.90992e-07
5.17945e-06
5.18055e-06
1.84172e-05
1.84241e-05
1.842e-05
1.84268e-05
3.9781e-07
5.19285e-06
5.19458e-06
5.18538e-06
5.18785e-06
3.75808e-06
8.92078e-06
8.92566e-06
3.73548e-06
1.24201e-06
2.86914e-06
1.59605e-07
2.43793e-07
2.88861e-06
1.60141e-07
1.21423e-06
1.24175e-06
2.86971e-06
1.59606e-07
2.4383e-07
2.88918e-06
1.60142e-07
1.21416e-06
3.7696e-06
8.93027e-06
8.92568e-06
3.7907e-06
3.77018e-06
8.93048e-06
8.92591e-06
3.78986e-06
1.25548e-06
2.46893e-07
2.91915e-06
1.6147e-07
2.90102e-06
1.60767e-07
1.28285e-06
1.25557e-06
2.46927e-07
2.91967e-06
1.6147e-07
2.90158e-06
1.60768e-07
1.28261e-06
5.17279e-06
5.16985e-06
3.90635e-07
5.18026e-06
5.17985e-06
1.84383e-05
1.84312e-05
1.84198e-05
1.84266e-05
3.97845e-07
5.19442e-06
5.19396e-06
5.18751e-06
5.18505e-06
1.84179e-05
1.84247e-05
1.24163e-06
2.86972e-06
1.596e-07
2.43752e-07
2.88922e-06
1.60137e-07
1.21446e-06
3.75884e-06
8.92147e-06
8.92634e-06
3.73514e-06
1.2417e-06
1.59605e-07
2.8686e-06
2.4382e-07
1.60141e-07
2.89065e-06
1.21429e-06
3.76999e-06
8.93153e-06
8.92693e-06
3.79066e-06
1.25586e-06
2.46852e-07
2.91974e-06
1.61467e-07
2.90161e-06
1.60764e-07
1.28258e-06
3.76978e-06
8.93116e-06
8.92659e-06
3.7907e-06
1.25575e-06
2.46917e-07
1.61472e-07
2.92109e-06
1.60769e-07
2.90057e-06
1.28256e-06
3.75908e-06
8.92103e-06
8.92593e-06
3.7352e-06
1.24205e-06
1.59582e-07
2.86943e-06
2.43781e-07
1.6012e-07
2.88885e-06
1.21419e-06
3.75824e-06
8.92095e-06
8.92581e-06
3.73578e-06
1.25546e-06
2.46805e-07
2.92045e-06
1.61445e-07
2.89991e-06
1.60725e-07
1.28294e-06
3.76988e-06
8.93072e-06
8.92615e-06
3.7909e-06
1.25547e-06
2.46875e-07
1.61448e-07
2.91937e-06
1.60745e-07
2.90132e-06
1.28278e-06
3.77041e-06
8.93065e-06
8.92608e-06
3.79005e-06
5.17161e-06
5.1707e-06
3.90619e-07
5.18174e-06
5.17978e-06
1.84388e-05
1.84315e-05
1.84207e-05
1.84275e-05
3.97715e-07
5.1957e-06
5.19384e-06
5.18652e-06
5.18453e-06
1.84183e-05
1.84251e-05
1.24188e-06
1.59608e-07
2.86859e-06
2.43779e-07
1.60138e-07
2.89072e-06
1.21428e-06
3.75897e-06
8.92134e-06
8.92622e-06
3.73527e-06
3.75896e-06
8.92156e-06
8.92644e-06
3.73533e-06
1.25571e-06
2.46813e-07
1.61454e-07
2.91915e-06
1.60759e-07
2.90109e-06
1.28308e-06
1.25569e-06
2.46869e-07
1.61468e-07
2.92113e-06
1.60772e-07
2.90056e-06
1.28288e-06
3.76995e-06
8.93105e-06
8.92648e-06
3.79091e-06
3.76996e-06
8.93128e-06
8.92671e-06
3.79087e-06
1.84393e-05
1.8432e-05
1.84412e-05
1.8434e-05
3.9717e-07
5.19295e-06
5.19546e-06
5.18543e-06
5.18639e-06
1.84188e-05
1.84256e-05
1.84207e-05
1.84276e-05
1.8411e-05
1.84046e-05
1.84138e-05
1.84073e-05
5.19927e-06
5.20132e-06
4.2014e-07
5.20554e-06
5.20735e-06
1.83925e-05
1.83986e-05
1.83952e-05
1.84013e-05
4.27986e-07
5.21798e-06
5.21979e-06
5.21152e-06
5.21347e-06
3.81789e-06
8.93069e-06
3.80076e-06
8.93502e-06
1.32262e-06
2.93087e-06
1.62261e-07
2.56957e-07
1.29603e-06
2.94784e-06
1.63132e-07
1.32253e-06
2.93144e-06
1.62263e-07
2.56996e-07
1.29613e-06
2.94836e-06
1.63132e-07
3.82699e-06
8.93901e-06
8.93493e-06
3.84221e-06
3.8275e-06
8.93921e-06
8.93518e-06
3.8424e-06
1.33552e-06
2.60568e-07
2.97484e-06
1.65134e-07
2.95898e-06
1.64092e-07
1.36133e-06
1.33553e-06
2.60604e-07
2.97534e-06
1.65134e-07
2.95952e-06
1.64094e-07
1.36114e-06
5.2009e-06
5.19872e-06
4.20046e-07
5.20701e-06
5.2065e-06
1.84116e-05
1.84052e-05
1.8395e-05
1.84011e-05
4.28347e-07
5.21896e-06
5.21822e-06
5.21321e-06
5.21114e-06
1.8393e-05
1.83991e-05
1.3225e-06
2.93146e-06
1.6226e-07
2.5691e-07
1.29633e-06
2.94841e-06
1.63131e-07
3.81865e-06
8.93136e-06
3.80031e-06
8.9357e-06
1.32226e-06
1.62266e-07
2.93053e-06
2.56994e-07
1.29632e-06
1.63136e-07
2.94977e-06
3.82715e-06
8.94023e-06
8.93619e-06
3.84322e-06
1.33569e-06
2.60521e-07
2.9754e-06
1.65135e-07
2.95956e-06
1.64094e-07
1.36111e-06
3.82706e-06
8.93989e-06
8.93584e-06
3.84317e-06
1.33583e-06
2.60603e-07
1.65141e-07
2.97667e-06
1.641e-07
2.95859e-06
1.361e-06
3.81882e-06
8.93092e-06
3.80042e-06
8.93526e-06
1.32269e-06
1.6224e-07
2.93114e-06
2.5695e-07
1.29608e-06
1.63111e-07
2.94805e-06
3.81802e-06
8.93086e-06
3.80093e-06
8.93521e-06
1.33564e-06
2.60467e-07
2.97597e-06
1.65106e-07
2.95792e-06
1.64046e-07
1.36052e-06
3.82724e-06
8.93938e-06
8.93539e-06
3.8423e-06
1.33552e-06
2.60551e-07
1.65114e-07
2.97499e-06
1.64072e-07
2.95923e-06
1.36131e-06
3.82766e-06
8.93939e-06
8.93534e-06
3.8425e-06
5.20023e-06
5.19842e-06
4.20166e-07
5.20826e-06
5.20654e-06
1.8412e-05
1.84056e-05
1.83958e-05
1.84019e-05
4.2848e-07
5.21977e-06
5.2183e-06
5.21259e-06
5.21082e-06
1.83935e-05
1.83996e-05
1.32267e-06
1.62268e-07
2.93055e-06
2.56943e-07
1.29616e-06
1.63131e-07
2.9498e-06
3.81886e-06
8.93127e-06
3.80045e-06
8.93561e-06
3.81883e-06
8.9315e-06
3.80044e-06
8.93584e-06
1.33558e-06
2.60483e-07
1.65117e-07
2.97483e-06
1.64084e-07
2.95909e-06
1.36158e-06
1.33565e-06
2.60543e-07
1.65135e-07
2.97668e-06
1.641e-07
2.95861e-06
1.3613e-06
3.8272e-06
8.93979e-06
8.93575e-06
3.84336e-06
3.82718e-06
8.94004e-06
8.93599e-06
3.84332e-06
1.84126e-05
1.84061e-05
1.84145e-05
1.8408e-05
4.27332e-07
5.21749e-06
5.21997e-06
5.21123e-06
5.21234e-06
1.8394e-05
1.84001e-05
1.83959e-05
1.8402e-05
1.83867e-05
1.83809e-05
1.83894e-05
1.83836e-05
5.22265e-06
5.22448e-06
4.52079e-07
5.22817e-06
5.23052e-06
1.837e-05
1.83754e-05
1.83727e-05
1.83781e-05
4.60965e-07
5.23866e-06
5.2401e-06
5.23321e-06
5.23479e-06
3.86378e-06
8.93931e-06
3.85094e-06
8.94316e-06
1.39868e-06
2.98532e-06
1.66261e-07
2.72137e-07
1.3738e-06
3.00005e-06
1.67472e-07
1.3985e-06
2.98585e-06
1.66263e-07
2.72181e-07
1.37387e-06
3.00053e-06
1.67472e-07
3.87141e-06
8.94653e-06
8.94297e-06
3.88236e-06
3.87134e-06
8.94677e-06
8.94323e-06
3.8824e-06
1.41074e-06
2.76244e-07
3.02383e-06
1.70154e-07
3.01005e-06
1.68771e-07
1.43466e-06
1.4108e-06
2.76281e-07
3.0243e-06
1.70154e-07
3.01058e-06
1.68774e-07
1.43451e-06
5.22446e-06
5.22255e-06
4.52372e-07
5.22979e-06
5.22885e-06
1.83872e-05
1.83815e-05
1.83726e-05
1.83779e-05
4.60546e-07
5.2401e-06
5.23876e-06
5.23476e-06
5.23291e-06
1.83706e-05
1.83758e-05
1.39836e-06
2.98588e-06
1.66265e-07
2.72086e-07
1.37401e-06
3.0006e-06
1.67475e-07
3.86451e-06
8.93998e-06
3.85044e-06
8.94385e-06
1.39838e-06
1.66271e-07
2.98497e-06
2.72182e-07
1.37411e-06
1.6748e-07
3.00189e-06
3.87091e-06
8.94775e-06
8.94422e-06
3.88316e-06
1.41103e-06
2.76191e-07
3.02435e-06
1.70158e-07
3.01059e-06
1.68777e-07
1.43442e-06
3.87085e-06
8.94748e-06
8.9439e-06
3.88297e-06
1.41095e-06
2.76286e-07
1.70165e-07
3.02562e-06
1.68783e-07
3.00965e-06
1.43448e-06
3.8639e-06
8.93952e-06
3.85116e-06
8.94332e-06
1.39869e-06
1.66242e-07
2.98557e-06
2.72131e-07
1.37382e-06
1.67453e-07
3.0002e-06
3.86386e-06
8.93949e-06
3.85107e-06
8.94336e-06
1.41109e-06
2.76127e-07
3.02493e-06
1.70123e-07
3.009e-06
1.68721e-07
1.43413e-06
3.87162e-06
8.94689e-06
8.9434e-06
3.88244e-06
1.41074e-06
2.76228e-07
1.70135e-07
3.02398e-06
1.68754e-07
3.01029e-06
1.43469e-06
3.87144e-06
8.94697e-06
8.94341e-06
3.88245e-06
5.22373e-06
5.22227e-06
4.52709e-07
5.23052e-06
5.22903e-06
1.83877e-05
1.83819e-05
1.83734e-05
1.83787e-05
4.60611e-07
5.24032e-06
5.23897e-06
5.23441e-06
5.23297e-06
1.8371e-05
1.83763e-05
1.3987e-06
1.6627e-07
2.985e-06
2.72124e-07
1.37395e-06
1.67475e-07
3.00192e-06
3.86468e-06
8.93989e-06
3.85058e-06
8.94373e-06
3.86465e-06
8.94014e-06
3.85056e-06
8.944e-06
1.41082e-06
2.76151e-07
1.70137e-07
3.0238e-06
1.68764e-07
3.01013e-06
1.43411e-06
1.41086e-06
2.76218e-07
1.70158e-07
3.02562e-06
1.68784e-07
3.00968e-06
1.43474e-06
3.871e-06
8.94731e-06
8.94378e-06
3.88327e-06
3.87097e-06
8.94761e-06
8.94406e-06
3.88323e-06
1.83882e-05
1.83825e-05
1.83902e-05
1.83844e-05
4.59858e-07
5.23832e-06
5.24042e-06
5.23314e-06
5.23432e-06
1.83716e-05
1.83769e-05
1.83735e-05
1.83789e-05
1.83646e-05
1.83597e-05
1.83673e-05
1.83624e-05
5.24259e-06
5.2445e-06
4.86183e-07
5.24733e-06
5.24941e-06
1.83498e-05
1.83544e-05
1.83526e-05
1.83571e-05
4.94916e-07
5.25584e-06
5.25756e-06
5.25152e-06
5.25317e-06
3.89863e-06
8.94691e-06
3.88913e-06
8.95015e-06
1.46911e-06
3.03325e-06
1.71622e-07
2.89263e-07
1.44628e-06
3.04603e-06
1.73174e-07
1.46911e-06
3.03377e-06
1.71624e-07
2.89308e-07
1.44631e-06
3.0465e-06
1.73173e-07
3.90464e-06
8.95306e-06
8.94995e-06
3.91265e-06
3.90459e-06
8.95333e-06
8.95022e-06
3.91272e-06
1.48037e-06
2.93842e-07
3.06705e-06
1.76541e-07
3.05504e-06
1.74815e-07
1.50154e-06
1.48023e-06
2.93882e-07
3.06752e-06
1.76539e-07
3.05553e-06
1.74817e-07
1.50204e-06
5.24417e-06
5.24251e-06
4.86614e-07
5.24918e-06
5.24769e-06
1.8365e-05
1.83602e-05
1.83525e-05
1.8357e-05
4.95072e-07
5.25731e-06
5.25611e-06
5.25299e-06
5.2514e-06
1.83503e-05
1.83548e-05
1.46886e-06
3.03378e-06
1.71628e-07
2.89204e-07
1.4465e-06
3.04653e-06
1.73179e-07
3.89861e-06
8.94755e-06
3.8887e-06
8.95084e-06
1.4691e-06
1.71636e-07
3.03288e-06
2.89317e-07
1.44638e-06
1.73186e-07
3.0478e-06
3.90412e-06
8.95429e-06
8.95121e-06
3.91342e-06
1.48051e-06
2.9378e-07
3.06753e-06
1.76548e-07
3.05555e-06
1.74822e-07
1.50198e-06
3.90459e-06
8.95401e-06
8.9509e-06
3.91274e-06
1.48026e-06
2.93894e-07
1.76554e-07
3.06873e-06
1.74831e-07
3.05463e-06
1.50206e-06
3.89867e-06
8.94699e-06
3.88936e-06
8.95032e-06
1.46918e-06
1.71604e-07
3.03348e-06
2.8926e-07
1.44624e-06
1.73156e-07
3.0462e-06
3.89867e-06
8.94706e-06
3.88921e-06
8.95043e-06
1.48059e-06
2.93712e-07
3.06812e-06
1.76506e-07
3.05404e-06
1.74759e-07
1.50149e-06
3.90482e-06
8.95343e-06
8.95037e-06
3.91272e-06
1.48024e-06
2.9383e-07
1.76522e-07
3.06721e-06
1.74798e-07
3.05526e-06
1.50214e-06
3.90466e-06
8.95355e-06
8.95044e-06
3.91275e-06
5.24381e-06
5.24251e-06
4.86768e-07
5.2495e-06
5.24801e-06
1.83656e-05
1.83606e-05
1.83532e-05
1.83578e-05
4.95119e-07
5.25788e-06
5.25638e-06
5.25274e-06
5.25134e-06
1.83508e-05
1.83554e-05
1.46901e-06
1.71635e-07
3.03292e-06
2.8925e-07
1.44634e-06
1.73179e-07
3.04781e-06
3.89945e-06
8.94744e-06
3.88874e-06
8.95067e-06
3.89942e-06
8.94771e-06
3.88872e-06
8.95104e-06
1.4808e-06
2.93748e-07
1.76524e-07
3.06703e-06
1.74808e-07
3.05513e-06
1.50161e-06
1.48048e-06
2.93815e-07
1.76548e-07
3.06874e-06
1.74831e-07
3.05467e-06
1.50195e-06
3.90424e-06
8.95381e-06
8.95074e-06
3.91353e-06
3.90422e-06
8.95417e-06
8.95111e-06
3.91349e-06
1.83662e-05
1.83613e-05
1.83682e-05
1.83632e-05
4.94583e-07
5.25582e-06
5.25787e-06
5.25154e-06
5.25284e-06
1.83515e-05
1.8356e-05
1.83534e-05
1.8358e-05
1.83448e-05
1.83406e-05
1.83475e-05
1.83433e-05
5.25966e-06
5.26145e-06
5.2151e-07
5.26364e-06
5.26541e-06
1.83318e-05
1.83356e-05
1.83346e-05
1.83384e-05
5.31455e-07
5.27096e-06
5.2727e-06
5.2672e-06
5.26897e-06
3.92507e-06
8.95345e-06
3.91807e-06