/*--------------------------------*- C++ -*----------------------------------*\
| =========                 |                                                 |
| \\      /  F ield         | OpenFOAM: The Open Source CFD Toolbox           |
|  \\    /   O peration     | Version:  2312                                  |
|   \\  /    A nd           | Website:  www.openfoam.com                      |
|    \\/     M anipulation  |                                                 |
\*---------------------------------------------------------------------------*/
FoamFile
{
    version     2.0;
    format      ascii;
    arch        "LSB;label=32;scalar=64";
    class       volScalarField;
    location    "650";
    object      k;
}
// * * * * * * * * * * * * * * * * * * * * * * * * * * * * * * * * * * * * * //

dimensions      [0 2 -2 0 0 0 0];

internalField   nonuniform List<scalar> 
42840
(
1.45938e-05
1.62409e-05
1.62409e-05
1.86884e-05
1.43152e-05
1.64634e-05
1.64636e-05
1.93875e-05
1.40824e-05
1.67728e-05
1.67732e-05
2.01809e-05
1.3895e-05
1.71661e-05
1.71669e-05
2.10554e-05
1.37527e-05
1.764e-05
1.76411e-05
2.19976e-05
1.36555e-05
1.81902e-05
1.81917e-05
2.29923e-05
1.36033e-05
1.88124e-05
1.88142e-05
2.40278e-05
1.35968e-05
1.95015e-05
1.95037e-05
2.509e-05
1.36345e-05
2.02521e-05
2.02547e-05
2.61691e-05
1.37183e-05
2.10589e-05
2.10617e-05
2.72528e-05
1.3848e-05
2.19154e-05
2.19182e-05
2.83177e-05
1.40239e-05
2.28147e-05
2.28178e-05
2.93762e-05
1.4246e-05
2.37506e-05
2.37542e-05
3.04179e-05
1.45145e-05
2.47175e-05
2.47208e-05
3.14422e-05
1.48292e-05
2.57085e-05
2.57119e-05
3.24434e-05
1.51898e-05
2.67171e-05
2.67208e-05
3.34119e-05
1.55958e-05
2.77374e-05
2.77414e-05
3.43774e-05
1.60462e-05
2.87643e-05
2.87687e-05
3.53159e-05
1.65399e-05
2.97922e-05
2.97972e-05
3.62262e-05
1.70753e-05
3.08179e-05
3.08231e-05
3.71304e-05
1.76509e-05
3.18363e-05
3.18417e-05
3.79864e-05
1.82644e-05
3.28435e-05
3.28491e-05
3.88396e-05
1.89133e-05
3.38357e-05
3.38414e-05
3.96433e-05
1.95947e-05
3.48099e-05
3.48155e-05
4.04369e-05
2.03053e-05
3.57632e-05
3.57684e-05
4.12044e-05
1.86732e-05
1.92369e-05
1.62415e-05
1.62417e-05
1.64003e-05
1.64006e-05
1.86722e-05
1.92374e-05
1.62418e-05
1.62412e-05
1.64005e-05
1.64003e-05
1.6241e-05
1.63994e-05
1.64e-05
1.86729e-05
1.92382e-05
1.62419e-05
1.63997e-05
1.64009e-05
1.92179e-05
1.93731e-05
2.00133e-05
1.64644e-05
1.64647e-05
1.66887e-05
1.66891e-05
1.93718e-05
2.00124e-05
1.64647e-05
1.64645e-05
1.66888e-05
1.66889e-05
1.64641e-05
1.66874e-05
1.66886e-05
1.93723e-05
2.00131e-05
1.64648e-05
1.66879e-05
1.66893e-05
1.99907e-05
2.01639e-05
2.08711e-05
1.67742e-05
1.67746e-05
1.70618e-05
1.70622e-05
2.01621e-05
2.08712e-05
1.67744e-05
1.67746e-05
1.70618e-05
1.70623e-05
1.67742e-05
1.70601e-05
1.70621e-05
2.01627e-05
2.08715e-05
1.67747e-05
1.70609e-05
1.70625e-05
2.08459e-05
2.10358e-05
2.17998e-05
1.7168e-05
1.71685e-05
1.75163e-05
1.75167e-05
2.10339e-05
2.17992e-05
1.7168e-05
1.71687e-05
1.75161e-05
1.75171e-05
1.71683e-05
1.75142e-05
1.75169e-05
2.10349e-05
2.18e-05
1.71686e-05
1.75154e-05
1.75172e-05
2.17721e-05
2.19753e-05
2.27853e-05
1.76424e-05
1.76427e-05
1.80483e-05
1.80487e-05
2.19741e-05
2.27841e-05
1.76421e-05
1.76432e-05
1.80479e-05
1.80492e-05
1.76429e-05
1.80457e-05
1.80492e-05
2.19751e-05
2.27846e-05
1.7643e-05
1.80473e-05
1.80492e-05
2.2753e-05
2.29699e-05
2.3812e-05
1.81931e-05
1.81934e-05
1.86533e-05
1.86538e-05
2.29684e-05
2.38106e-05
1.81926e-05
1.8194e-05
1.86528e-05
1.86544e-05
1.81938e-05
1.86504e-05
1.86544e-05
2.29691e-05
2.38107e-05
1.81937e-05
1.86524e-05
1.86542e-05
2.37771e-05
2.40035e-05
2.4868e-05
1.88156e-05
1.8816e-05
1.93267e-05
1.93269e-05
2.40028e-05
2.48654e-05
1.88149e-05
1.88167e-05
1.93257e-05
1.93279e-05
1.88165e-05
1.93233e-05
1.93278e-05
2.40042e-05
2.48671e-05
1.88162e-05
1.93256e-05
1.93273e-05
2.48315e-05
2.50648e-05
2.59413e-05
1.95051e-05
1.95054e-05
2.0063e-05
2.00629e-05
2.50639e-05
2.59386e-05
1.95041e-05
1.95065e-05
2.00614e-05
2.00643e-05
1.95063e-05
2.00592e-05
2.00641e-05
2.50658e-05
2.59407e-05
1.95056e-05
2.00618e-05
2.00633e-05
2.59047e-05
2.6141e-05
2.70194e-05
2.02563e-05
2.02562e-05
2.08566e-05
2.08565e-05
2.61397e-05
2.70162e-05
2.02547e-05
2.02577e-05
2.08547e-05
2.08579e-05
2.02576e-05
2.08526e-05
2.08576e-05
2.6142e-05
2.70098e-05
2.02564e-05
2.08553e-05
2.08563e-05
2.69725e-05
2.72256e-05
2.80757e-05
2.10631e-05
2.10631e-05
2.17012e-05
2.1701e-05
2.72249e-05
2.8079e-05
2.10614e-05
2.10649e-05
2.16992e-05
2.17028e-05
2.10643e-05
2.16971e-05
2.17023e-05
2.72314e-05
2.80818e-05
2.10628e-05
2.16999e-05
2.17007e-05
2.8045e-05
2.82948e-05
2.91287e-05
2.19196e-05
2.19196e-05
2.25908e-05
2.25905e-05
2.82927e-05
2.91175e-05
2.19178e-05
2.19215e-05
2.25885e-05
2.25923e-05
2.19209e-05
2.25865e-05
2.25915e-05
2.82909e-05
2.91349e-05
2.1919e-05
2.25895e-05
2.25895e-05
2.90978e-05
2.93451e-05
3.01789e-05
2.28194e-05
2.28192e-05
2.35187e-05
2.35179e-05
2.93596e-05
3.01607e-05
2.28172e-05
2.28212e-05
2.3516e-05
2.35202e-05
2.28203e-05
2.35137e-05
2.35191e-05
2.9342e-05
3.0169e-05
2.2818e-05
2.35172e-05
2.35169e-05
3.01478e-05
3.03851e-05
3.1203e-05
2.37558e-05
2.37551e-05
2.44786e-05
2.44774e-05
3.03869e-05
3.12038e-05
2.37532e-05
2.37575e-05
2.44756e-05
2.44798e-05
2.37565e-05
2.44734e-05
2.44791e-05
3.03822e-05
3.12026e-05
2.37541e-05
2.44769e-05
2.44764e-05
3.11764e-05
3.14138e-05
3.22077e-05
2.47226e-05
2.47217e-05
2.54641e-05
2.54626e-05
3.1414e-05
3.22178e-05
2.47198e-05
2.4724e-05
2.54611e-05
2.54651e-05
2.47234e-05
2.5459e-05
2.54644e-05
3.14066e-05
3.21995e-05
2.47206e-05
2.54625e-05
2.54616e-05
3.21801e-05
3.24149e-05
3.31946e-05
2.57136e-05
2.57123e-05
2.64689e-05
2.64671e-05
3.24149e-05
3.31981e-05
2.57107e-05
2.57147e-05
2.64657e-05
2.64699e-05
2.57142e-05
2.64638e-05
2.64693e-05
3.24081e-05
3.31634e-05
2.57113e-05
2.64675e-05
2.64664e-05
3.31819e-05
3.33939e-05
3.41663e-05
2.67223e-05
2.67206e-05
2.7487e-05
2.74846e-05
3.33997e-05
3.41617e-05
2.67193e-05
2.67233e-05
2.74838e-05
2.74877e-05
2.6723e-05
2.74817e-05
2.74875e-05
3.34231e-05
3.41512e-05
2.67199e-05
2.74858e-05
2.74843e-05
3.41536e-05
3.43605e-05
3.51093e-05
2.77428e-05
2.77406e-05
2.85127e-05
2.85101e-05
3.43561e-05
3.51065e-05
2.77397e-05
2.77434e-05
2.85094e-05
2.85132e-05
2.77436e-05
2.85073e-05
2.85134e-05
3.43608e-05
3.51019e-05
2.77401e-05
2.85117e-05
2.85096e-05
3.50969e-05
3.52986e-05
3.60305e-05
2.87696e-05
2.87671e-05
2.9541e-05
2.95377e-05
3.53055e-05
3.60187e-05
2.87664e-05
2.87703e-05
2.95374e-05
2.95413e-05
2.87705e-05
2.95353e-05
2.95414e-05
3.53025e-05
3.60225e-05
2.87665e-05
2.95404e-05
2.95373e-05
3.6002e-05
3.62154e-05
3.68937e-05
2.97978e-05
2.97948e-05
3.05672e-05
3.0564e-05
3.6209e-05
3.69214e-05
2.97942e-05
2.97983e-05
3.05633e-05
3.05677e-05
2.97985e-05
3.05619e-05
3.05682e-05
3.62124e-05
3.69248e-05
2.97942e-05
3.05673e-05
3.05637e-05
3.6892e-05
3.71284e-05
3.77841e-05
3.08233e-05
3.08201e-05
3.15879e-05
3.15846e-05
3.71023e-05
3.779e-05
3.08192e-05
3.08237e-05
3.15836e-05
3.15881e-05
3.08244e-05
3.15826e-05
3.15895e-05
3.71063e-05
3.77714e-05
3.08197e-05
3.15881e-05
3.15845e-05
3.77753e-05
3.79862e-05
3.86276e-05
3.18416e-05
3.18383e-05
3.25981e-05
3.25947e-05
3.79742e-05
3.86347e-05
3.18373e-05
3.18418e-05
3.25936e-05
3.25982e-05
3.18433e-05
3.25931e-05
3.26001e-05
3.79819e-05
3.86189e-05
3.18382e-05
3.25987e-05
3.2595e-05
3.86167e-05
3.88264e-05
3.94405e-05
3.28486e-05
3.28452e-05
3.35941e-05
3.35907e-05
3.88117e-05
3.94364e-05
3.2844e-05
3.28487e-05
3.35894e-05
3.35943e-05
3.28507e-05
3.35892e-05
3.35962e-05
3.88329e-05
3.94424e-05
3.28455e-05
3.35951e-05
3.35912e-05
3.94546e-05
3.96502e-05
4.02571e-05
3.38407e-05
3.38371e-05
3.45729e-05
3.45694e-05
3.96497e-05
4.02428e-05
3.38359e-05
3.38407e-05
3.45681e-05
3.45729e-05
3.38426e-05
3.45681e-05
3.45748e-05
3.96525e-05
4.02483e-05
3.38374e-05
3.4574e-05
3.45699e-05
4.02664e-05
4.04395e-05
4.10255e-05
3.48146e-05
3.4811e-05
3.55313e-05
3.55278e-05
4.04386e-05
4.10153e-05
3.48098e-05
3.48144e-05
3.55266e-05
3.5531e-05
3.48166e-05
3.55269e-05
3.55337e-05
4.04417e-05
4.1025e-05
3.48115e-05
3.55324e-05
3.55289e-05
4.10397e-05
4.1208e-05
3.57676e-05
3.57641e-05
4.12113e-05
3.57629e-05
3.57671e-05
3.57702e-05
4.12082e-05
3.57652e-05
5.4845e-05
7.01022e-05
7.0124e-05
5.43659e-05
6.9561e-05
6.95428e-05
5.48466e-05
7.01033e-05
7.01251e-05
5.43658e-05
1.45937e-05
1.45934e-05
1.45934e-05
1.43805e-05
1.43804e-05
1.43802e-05
1.43802e-05
3.10542e-05
4.64275e-05
1.47087e-05
1.62882e-05
4.68047e-05
1.46747e-05
3.04972e-05
6.95617e-05
6.95434e-05
3.10604e-05
1.47089e-05
4.64302e-05
1.62884e-05
1.46749e-05
4.6806e-05
3.04974e-05
5.97062e-05
5.97154e-05
1.88705e-05
5.99058e-05
5.99156e-05
5.59471e-05
7.0154e-05
5.55432e-05
7.01732e-05
6.94938e-05
6.94775e-05
5.5948e-05
7.01551e-05
5.55427e-05
7.01742e-05
1.4315e-05
1.43148e-05
1.43148e-05
1.41363e-05
1.41362e-05
1.41361e-05
1.41361e-05
3.27246e-05
4.75462e-05
1.4602e-05
1.65326e-05
3.21826e-05
4.78918e-05
1.4585e-05
6.94944e-05
6.9478e-05
3.27309e-05
1.46023e-05
4.75475e-05
1.65331e-05
3.21825e-05
1.45853e-05
4.78921e-05
6.02891e-05
6.02969e-05
1.95957e-05
6.0468e-05
6.04768e-05
5.68647e-05
7.01992e-05
5.65226e-05
7.02159e-05
6.94325e-05
6.94181e-05
5.68651e-05
7.02001e-05
5.65213e-05
7.02169e-05
1.40822e-05
1.40821e-05
1.40821e-05
1.39377e-05
1.39375e-05
1.39375e-05
1.39375e-05
3.43337e-05
4.85662e-05
1.45646e-05
1.68634e-05
3.38152e-05
4.88843e-05
1.45663e-05
6.9433e-05
6.94185e-05
3.43391e-05
1.4565e-05
4.85689e-05
1.6864e-05
3.38157e-05
1.45668e-05
4.88859e-05
6.08114e-05
6.08185e-05
2.04124e-05
6.09719e-05
6.09794e-05
5.76342e-05
7.02381e-05
5.73408e-05
7.02529e-05
6.93771e-05
6.93646e-05
5.76339e-05
7.02391e-05
5.73392e-05
7.0254e-05
1.38947e-05
1.38948e-05
1.38948e-05
1.37842e-05
1.3784e-05
1.37841e-05
1.37842e-05
3.5859e-05
4.95024e-05
1.45952e-05
1.72772e-05
3.53683e-05
4.97908e-05
1.46137e-05
6.93775e-05
6.93649e-05
3.58645e-05
1.45958e-05
4.9506e-05
1.72782e-05
3.53697e-05
1.46143e-05
4.9794e-05
6.12811e-05
6.12886e-05
2.13053e-05
6.14261e-05
6.14338e-05
5.82872e-05
7.02721e-05
5.80322e-05
7.02854e-05
6.93272e-05
6.93166e-05
5.82863e-05
7.02731e-05
5.80305e-05
7.02865e-05
1.37525e-05
1.37527e-05
1.37528e-05
1.36758e-05
1.36756e-05
1.36758e-05
1.3676e-05
3.72868e-05
5.03599e-05
1.4695e-05
1.77706e-05
3.68291e-05
5.06251e-05
1.47306e-05
6.93275e-05
6.93168e-05
3.72931e-05
1.46961e-05
5.03627e-05
1.7772e-05
3.68301e-05
1.47316e-05
5.06278e-05
6.17059e-05
6.17131e-05
2.22596e-05
6.18373e-05
6.18459e-05
5.88491e-05
7.03026e-05
5.86255e-05
7.0315e-05
6.92825e-05
6.92739e-05
5.8848e-05
7.03036e-05
5.86242e-05
7.03162e-05
1.36552e-05
1.36555e-05
1.36557e-05
1.36124e-05
1.36121e-05
1.36125e-05
1.36127e-05
3.86159e-05
5.11468e-05
1.4863e-05
1.83393e-05
3.81903e-05
5.13916e-05
1.49156e-05
6.92828e-05
6.92741e-05
3.86209e-05
1.48645e-05
5.11499e-05
1.8341e-05
3.81909e-05
1.4917e-05
5.13951e-05
6.20926e-05
6.21009e-05
2.32639e-05
6.22135e-05
6.22217e-05
5.93409e-05
7.03312e-05
5.91434e-05
7.03433e-05
6.92434e-05
6.92367e-05
5.934e-05
7.03323e-05
5.91427e-05
7.03445e-05
1.3603e-05
1.36034e-05
1.36037e-05
1.35946e-05
1.35943e-05
1.35948e-05
1.35951e-05
3.98462e-05
5.18731e-05
1.50985e-05
1.89787e-05
3.94527e-05
5.20998e-05
1.51678e-05
6.92437e-05
6.92369e-05
3.98492e-05
1.51004e-05
5.18759e-05
1.89808e-05
3.94533e-05
1.51696e-05
5.21025e-05
6.24484e-05
6.24566e-05
2.43056e-05
6.25598e-05
6.25684e-05
5.97796e-05
7.03592e-05
5.96021e-05
7.03713e-05
6.921e-05
6.92054e-05
5.97785e-05
7.03604e-05
5.96017e-05
7.03726e-05
1.35965e-05
1.3597e-05
1.35973e-05
1.36208e-05
1.36204e-05
1.36211e-05
1.36214e-05
4.09844e-05
5.25452e-05
1.54004e-05
1.96838e-05
4.06198e-05
5.27563e-05
1.54861e-05
6.92101e-05
6.92054e-05
4.09887e-05
1.54027e-05
5.25485e-05
1.96862e-05
4.06188e-05
1.54882e-05
5.27593e-05
6.27779e-05
6.27864e-05
2.53701e-05
6.28819e-05
6.28908e-05
6.01772e-05
7.03876e-05
6.00154e-05
7.04e-05
6.91824e-05
6.91799e-05
6.01761e-05
7.0389e-05
6.00156e-05
7.04015e-05
1.36341e-05
1.36349e-05
1.36353e-05
1.36932e-05
1.36928e-05
1.36937e-05
1.3694e-05
4.20418e-05
5.31716e-05
1.57674e-05
2.04491e-05
4.16951e-05
5.33686e-05
1.58691e-05
6.91824e-05
6.91798e-05
4.2046e-05
1.57699e-05
5.31745e-05
2.04518e-05
4.16938e-05
1.58713e-05
5.33721e-05
6.30863e-05
6.30949e-05
2.64428e-05
6.31842e-05
6.3193e-05
6.05417e-05
7.04173e-05
6.03927e-05
7.04305e-05
6.91607e-05
6.91604e-05
6.05408e-05
7.04191e-05
6.03929e-05
7.04321e-05
1.37179e-05
1.37189e-05
1.37192e-05
1.38114e-05
1.3811e-05
1.38121e-05
1.38123e-05
4.30231e-05
5.37565e-05
1.61975e-05
2.12689e-05
4.26925e-05
5.39428e-05
1.63148e-05
6.91606e-05
6.91601e-05
4.30272e-05
1.62003e-05
5.37608e-05
2.12717e-05
4.26912e-05
1.6317e-05
5.39461e-05
6.33772e-05
6.33859e-05
2.75146e-05
6.34702e-05
6.34792e-05
6.08792e-05
7.04482e-05
6.07405e-05
7.04646e-05
6.9145e-05
6.91468e-05
6.08775e-05
7.04512e-05
6.07409e-05
7.0466e-05
1.38477e-05
1.38488e-05
1.38491e-05
1.39757e-05
1.39753e-05
1.39766e-05
1.39767e-05
4.39377e-05
5.43088e-05
1.66888e-05
2.21366e-05
4.36209e-05
5.44849e-05
1.6821e-05
6.91448e-05
6.91465e-05
4.39419e-05
1.66916e-05
5.43117e-05
2.21395e-05
4.36198e-05
1.68233e-05
5.44869e-05
6.36538e-05
6.36626e-05
2.85868e-05
6.37428e-05
6.37517e-05
6.11948e-05
7.04832e-05
6.10648e-05
7.05012e-05
6.91352e-05
6.91392e-05
6.11932e-05
7.0485e-05
6.10652e-05
7.05029e-05
1.40235e-05
1.40248e-05
1.4025e-05
1.41863e-05
1.41857e-05
1.41873e-05
1.41872e-05
4.47947e-05
5.48313e-05
1.72385e-05
2.30458e-05
4.44894e-05
5.49978e-05
1.7385e-05
6.9135e-05
6.91389e-05
4.47991e-05
1.72415e-05
5.48317e-05
2.3049e-05
4.44886e-05
1.73873e-05
5.50003e-05
6.39185e-05
6.39274e-05
2.96261e-05
6.4004e-05
6.4013e-05
6.14938e-05
7.05218e-05
6.13698e-05
7.05413e-05
6.91315e-05
6.91376e-05
6.14927e-05
7.05234e-05
6.13701e-05
7.05427e-05
1.42456e-05
1.42471e-05
1.42472e-05
1.44432e-05
1.44425e-05
1.44443e-05
1.44442e-05
4.56026e-05
5.53267e-05
1.78437e-05
2.39899e-05
4.53068e-05
5.5486e-05
1.80037e-05
6.91312e-05
6.91373e-05
4.56069e-05
1.78469e-05
5.53261e-05
2.39934e-05
4.53064e-05
1.80061e-05
5.54901e-05
6.41732e-05
6.41822e-05
3.06657e-05
6.4256e-05
6.42651e-05
6.17796e-05
7.05643e-05
6.16608e-05
7.05853e-05
6.91336e-05
6.91418e-05
6.17783e-05
7.05656e-05
6.16609e-05
7.05866e-05
1.45139e-05
1.45157e-05
1.45157e-05
1.47463e-05
1.47456e-05
1.47476e-05
1.47474e-05
4.63685e-05
5.5799e-05
1.85014e-05
2.49633e-05
4.60808e-05
5.59516e-05
1.8674e-05
6.91334e-05
6.91415e-05
4.63722e-05
1.85048e-05
5.57969e-05
2.49668e-05
4.60802e-05
1.86765e-05
5.59578e-05
6.44197e-05
6.44278e-05
3.16821e-05
6.44999e-05
6.45096e-05
6.20555e-05
7.06106e-05
6.19403e-05
7.06332e-05
6.91415e-05
6.91518e-05
6.20536e-05
7.06119e-05
6.1941e-05
7.06346e-05
1.48285e-05
1.48305e-05
1.48305e-05
1.50955e-05
1.50947e-05
1.50969e-05
1.50967e-05
4.70973e-05
5.62493e-05
1.92081e-05
2.59594e-05
4.68175e-05
5.63991e-05
1.93923e-05
6.91413e-05
6.91515e-05
4.71009e-05
1.92115e-05
5.62473e-05
2.59629e-05
4.68167e-05
1.93951e-05
5.64056e-05
6.46585e-05
6.4666e-05
3.26759e-05
6.47371e-05
6.47468e-05
6.23229e-05
7.0661e-05
6.2213e-05
7.06852e-05
6.9155e-05
6.91673e-05
6.23224e-05
7.06624e-05
6.22126e-05
7.06867e-05
1.5189e-05
1.51912e-05
1.51912e-05
1.54901e-05
1.54892e-05
1.54916e-05
1.54914e-05
4.77953e-05
5.66812e-05
1.99597e-05
2.69714e-05
4.75209e-05
5.6828e-05
2.01546e-05
6.91548e-05
6.9167e-05
4.77981e-05
1.99638e-05
5.66789e-05
2.69754e-05
4.75211e-05
2.0158e-05
5.68338e-05
6.48904e-05
6.48977e-05
3.36564e-05
6.49679e-05
6.49772e-05
6.25864e-05
7.07154e-05
6.2479e-05
7.07413e-05
6.91738e-05
6.91879e-05
6.2586e-05
7.0717e-05
6.24784e-05
7.07429e-05
1.55948e-05
1.55972e-05
1.55972e-05
1.59295e-05
1.59284e-05
1.59311e-05
1.59309e-05
4.84656e-05
5.70958e-05
2.0753e-05
2.79938e-05
4.81976e-05
5.72395e-05
2.09579e-05
6.91737e-05
6.91877e-05
4.84681e-05
2.07575e-05
5.7094e-05
2.79981e-05
4.81978e-05
2.09615e-05
5.72455e-05
6.51162e-05
6.51233e-05
3.46119e-05
6.51926e-05
6.52016e-05
6.28465e-05
7.07739e-05
6.27403e-05
7.08014e-05
6.91976e-05
6.92135e-05
6.2846e-05
7.07755e-05
6.27399e-05
7.0803e-05
1.60451e-05
1.60477e-05
1.60476e-05
1.64125e-05
1.64112e-05
1.64142e-05
1.64139e-05
4.91107e-05
5.74943e-05
2.1584e-05
2.90213e-05
4.88494e-05
5.76353e-05
2.17975e-05
6.91976e-05
6.92134e-05
4.9113e-05
2.15886e-05
5.74931e-05
2.90261e-05
4.88503e-05
2.18014e-05
5.7642e-05
6.53365e-05
6.53435e-05
3.55465e-05
6.54117e-05
6.54205e-05
6.31041e-05
7.08364e-05
6.29991e-05
7.08654e-05
6.9226e-05
6.92437e-05
6.31037e-05
7.08381e-05
6.29984e-05
7.08671e-05
1.65386e-05
1.65416e-05
1.65414e-05
1.69376e-05
1.69364e-05
1.69396e-05
1.69392e-05
4.97328e-05
5.78787e-05
2.24479e-05
3.00491e-05
4.94795e-05
5.80167e-05
2.26691e-05
6.92263e-05
6.92437e-05
4.97353e-05
2.24529e-05
5.78775e-05
3.00544e-05
4.94812e-05
2.26733e-05
5.80234e-05
6.55516e-05
6.55585e-05
3.64527e-05
6.56257e-05
6.56341e-05
6.33596e-05
7.09039e-05
6.32552e-05
7.0932e-05
6.9259e-05
6.92782e-05
6.33604e-05
7.09043e-05
6.32545e-05
7.09348e-05
1.70741e-05
1.70774e-05
1.7077e-05
1.75033e-05
1.75021e-05
1.75056e-05
1.75053e-05
5.03341e-05
5.82494e-05
2.33406e-05
3.10733e-05
5.00896e-05
5.83842e-05
2.35683e-05
6.92594e-05
6.92784e-05
5.03377e-05
2.33459e-05
5.82485e-05
3.10788e-05
5.00909e-05
2.35728e-05
5.8391e-05
6.5762e-05
6.57686e-05
3.73416e-05
6.58348e-05
6.58428e-05
6.36137e-05
7.09739e-05
6.35097e-05
7.10032e-05
6.9296e-05
6.93166e-05
6.36139e-05
7.09741e-05
6.35072e-05
7.10058e-05
1.76496e-05
1.76532e-05
1.76529e-05
1.81076e-05
1.81064e-05
1.81101e-05
1.81099e-05
5.09165e-05
5.86068e-05
2.42576e-05
3.20893e-05
5.06801e-05
5.87386e-05
2.4491e-05
6.92967e-05
6.9317e-05
5.09202e-05
2.42632e-05
5.86065e-05
3.20949e-05
5.06814e-05
2.44958e-05
5.87459e-05
6.59676e-05
6.59741e-05
3.8199e-05
6.60388e-05
6.60469e-05
6.38655e-05
7.10471e-05
6.37616e-05
7.10777e-05
6.93369e-05
6.93588e-05
6.3865e-05
7.10471e-05
6.37588e-05
7.108e-05
1.82632e-05
1.8267e-05
1.82667e-05
1.87479e-05
1.87467e-05
1.87507e-05
1.87504e-05
5.14799e-05
5.89523e-05
2.51962e-05
3.30931e-05
5.12516e-05
5.9081e-05
2.54342e-05
6.93378e-05
6.93594e-05
5.14838e-05
2.5202e-05
5.89524e-05
3.30989e-05
5.12531e-05
2.54393e-05
5.90879e-05
6.61683e-05
6.6175e-05
3.90393e-05
6.62379e-05
6.6246e-05
6.41125e-05
7.11232e-05
6.40108e-05
7.11549e-05
6.93813e-05
6.94044e-05
6.41129e-05
7.1123e-05
6.40088e-05
7.11571e-05
1.89121e-05
1.89161e-05
1.89159e-05
1.94214e-05
1.94203e-05
1.94244e-05
1.94242e-05
5.20238e-05
5.92858e-05
2.61526e-05
3.4081e-05
5.18031e-05
5.94114e-05
2.63944e-05
6.93823e-05
6.94054e-05
5.20285e-05
2.61585e-05
5.92861e-05
3.40869e-05
5.18057e-05
2.63996e-05
5.94181e-05
6.63643e-05
6.63713e-05
3.98501e-05
6.6432e-05
6.64404e-05
6.4357e-05
7.12003e-05
6.4257e-05
7.12355e-05
6.9429e-05
6.94533e-05
6.43571e-05
7.12016e-05
6.42546e-05
7.12366e-05
1.95935e-05
1.95977e-05
1.95975e-05
2.0125e-05
2.0124e-05
2.01282e-05
2.01282e-05
5.25479e-05
5.96081e-05
2.7122e-05
3.50502e-05
5.23355e-05
5.97305e-05
2.73663e-05
6.94303e-05
6.94546e-05
5.25516e-05
2.71282e-05
5.96084e-05
3.50558e-05
5.23382e-05
2.73717e-05
5.97364e-05
6.65553e-05
6.65626e-05
4.06613e-05
6.6621e-05
6.663e-05
6.45964e-05
7.12812e-05
6.44981e-05
7.13167e-05
6.94797e-05
6.95053e-05
6.45969e-05
7.12824e-05
6.44956e-05
7.13184e-05
2.03041e-05
2.03084e-05
2.03085e-05
5.30522e-05
5.9919e-05
2.80993e-05
3.59979e-05
5.28481e-05
6.00382e-05
2.83447e-05
6.94812e-05
6.95066e-05
5.30547e-05
2.81056e-05
5.99194e-05
3.60033e-05
5.28511e-05
2.83503e-05
6.00433e-05
6.67417e-05
6.67489e-05
4.14158e-05
6.68053e-05
6.68147e-05
6.95594e-05
6.95412e-05
6.95614e-05
6.95433e-05
5.97099e-05
5.97201e-05
1.88879e-05
5.99097e-05
5.99204e-05
6.95079e-05
6.95251e-05
6.95099e-05
6.95272e-05
1.90113e-05
6.01987e-05
6.0209e-05
6.00099e-05
6.00195e-05
5.48443e-05
7.00989e-05
7.01207e-05
5.43651e-05
3.10583e-05
4.64301e-05
1.47095e-05
1.62889e-05
4.6807e-05
1.46754e-05
3.04959e-05
3.10606e-05
4.64329e-05
1.47095e-05
1.62892e-05
4.68104e-05
1.46755e-05
3.04952e-05
5.49815e-05
7.01496e-05
7.0129e-05
5.54215e-05
5.49806e-05
7.01462e-05
7.01258e-05
5.54206e-05
3.1346e-05
1.63419e-05
4.73623e-05
1.4622e-05
4.70007e-05
1.46475e-05
3.19011e-05
3.13432e-05
1.63422e-05
4.73638e-05
1.4622e-05
4.7004e-05
1.46476e-05
3.19019e-05
5.97148e-05
5.97098e-05
1.88876e-05
5.99148e-05
5.99087e-05
6.95598e-05
6.95416e-05
6.95094e-05
6.95266e-05
1.90106e-05
6.0204e-05
6.01986e-05
6.00141e-05
6.00094e-05
6.95082e-05
6.95254e-05
3.10578e-05
4.64315e-05
1.47096e-05
1.62891e-05
4.68107e-05
1.46756e-05
3.05e-05
5.48457e-05
7.00995e-05
7.01212e-05
5.4365e-05
3.1056e-05
1.47089e-05
4.64298e-05
1.62887e-05
1.46749e-05
4.68119e-05
3.0499e-05
5.49812e-05
7.01507e-05
7.01301e-05
5.54227e-05
3.13477e-05
1.63422e-05
4.73657e-05
1.46223e-05
4.70046e-05
1.46478e-05
3.18988e-05
5.49802e-05
7.01466e-05
7.01263e-05
5.54218e-05
3.13482e-05
1.63419e-05
1.46216e-05
4.73663e-05
1.46471e-05
4.70018e-05
3.18989e-05
5.48367e-05
7.01013e-05
7.01229e-05
5.43708e-05
3.10556e-05
1.47089e-05
4.64254e-05
1.62884e-05
1.46749e-05
4.68106e-05
3.04985e-05
5.48418e-05
7.00977e-05
7.01197e-05
5.43683e-05
3.13448e-05
1.63411e-05
4.73588e-05
1.46212e-05
4.69994e-05
1.46467e-05
3.18969e-05
5.49855e-05
7.01482e-05
7.01282e-05
5.5413e-05
3.13463e-05
1.63415e-05
1.46215e-05
4.73616e-05
1.46471e-05
4.69974e-05
3.18974e-05
5.49836e-05
7.01451e-05
7.01246e-05
5.54181e-05
5.97157e-05
5.97096e-05
1.88884e-05
5.99154e-05
5.99102e-05
6.95603e-05
6.9542e-05
6.95099e-05
6.95273e-05
1.90116e-05
6.0204e-05
6.01991e-05
6.00149e-05
6.00099e-05
6.95086e-05
6.95259e-05
3.10608e-05
1.47095e-05
4.64313e-05
1.62894e-05
1.46755e-05
4.68124e-05
3.04959e-05
5.48387e-05
7.01024e-05
7.01242e-05
5.43716e-05
5.48377e-05
7.00991e-05
7.0121e-05
5.43709e-05
3.13444e-05
1.63412e-05
1.46214e-05
4.73609e-05
1.4647e-05
4.7001e-05
3.19022e-05
3.13444e-05
1.63423e-05
1.46221e-05
4.7368e-05
1.46476e-05
4.70019e-05
3.19028e-05
5.49863e-05
7.01497e-05
7.01293e-05
5.54147e-05
5.49855e-05
7.01465e-05
7.01259e-05
5.54138e-05
6.95589e-05
6.95407e-05
6.9561e-05
6.95427e-05
1.90272e-05
6.01953e-05
6.02043e-05
6.00062e-05
6.0015e-05
6.95074e-05
6.95246e-05
6.95093e-05
6.95267e-05
6.94923e-05
6.9476e-05
6.94943e-05
6.9478e-05
6.02927e-05
6.03023e-05
1.96155e-05
6.04723e-05
6.04818e-05
6.94456e-05
6.9461e-05
6.94475e-05
6.94629e-05
1.97578e-05
6.07306e-05
6.074e-05
6.05611e-05
6.05701e-05
5.59462e-05
7.01505e-05
5.55421e-05
7.01699e-05
3.27302e-05
4.75465e-05
1.46028e-05
1.65337e-05
3.21837e-05
4.78935e-05
1.45858e-05
3.27301e-05
4.75504e-05
1.46029e-05
1.65341e-05
3.21814e-05
4.78942e-05
1.45858e-05
5.6055e-05
7.01954e-05
7.01775e-05
5.64267e-05
5.60541e-05
7.01919e-05
7.01741e-05
5.64257e-05
3.30082e-05
1.66086e-05
4.84011e-05
1.4567e-05
4.80697e-05
1.45755e-05
3.35433e-05
3.3007e-05
1.66089e-05
4.84028e-05
1.4567e-05
4.80727e-05
1.45755e-05
3.35435e-05
6.02978e-05
6.02915e-05
1.9615e-05
6.0477e-05
6.0471e-05
6.94925e-05
6.94762e-05
6.9447e-05
6.94624e-05
1.97556e-05
6.07352e-05
6.07292e-05
6.05654e-05
6.05596e-05
6.94458e-05
6.9461e-05
3.27288e-05
4.75515e-05
1.46033e-05
1.65339e-05
3.21862e-05
4.78964e-05
1.45862e-05
5.59471e-05
7.0151e-05
5.55414e-05
7.01703e-05
3.27283e-05
1.46025e-05
4.75483e-05
1.65339e-05
3.21858e-05
1.45855e-05
4.78974e-05
5.60542e-05
7.01965e-05
7.01785e-05
5.64273e-05
3.30099e-05
1.66088e-05
4.84056e-05
1.45675e-05
4.80744e-05
1.4576e-05
3.35431e-05
5.60531e-05
7.01923e-05
7.01746e-05
5.64263e-05
3.301e-05
1.66088e-05
1.45668e-05
4.84042e-05
1.45752e-05
4.80706e-05
3.35414e-05
5.59385e-05
7.01528e-05
5.55462e-05
7.01719e-05
3.27266e-05
1.46024e-05
4.75453e-05
1.65336e-05
3.21849e-05
1.45854e-05
4.7892e-05
5.59435e-05
7.01495e-05
5.55446e-05
7.01689e-05
3.30077e-05
1.66074e-05
4.83981e-05
1.45661e-05
4.80658e-05
1.45746e-05
3.35372e-05
5.60573e-05
7.01938e-05
7.01763e-05
5.64177e-05
3.30095e-05
1.66084e-05
1.45666e-05
4.83987e-05
1.45751e-05
4.80692e-05
3.354e-05
5.60561e-05
7.01909e-05
7.01731e-05
5.64228e-05
6.02976e-05
6.02927e-05
1.9615e-05
6.04774e-05
6.04726e-05
6.94931e-05
6.94767e-05
6.94475e-05
6.9463e-05
1.97566e-05
6.07356e-05
6.07309e-05
6.05653e-05
6.05611e-05
6.94462e-05
6.94617e-05
3.27316e-05
1.4603e-05
4.75472e-05
1.65344e-05
3.21825e-05
1.45859e-05
4.78976e-05
5.594e-05
7.01541e-05
5.5547e-05
7.01735e-05
5.5939e-05
7.01508e-05
5.55461e-05
7.01703e-05
3.30077e-05
1.66077e-05
1.45664e-05
4.84009e-05
1.4575e-05
4.80696e-05
3.35441e-05
3.3007e-05
1.66091e-05
1.45672e-05
4.84042e-05
1.45757e-05
4.80702e-05
3.35443e-05
5.60582e-05
7.01955e-05
7.01778e-05
5.64194e-05
5.60572e-05
7.01923e-05
7.01744e-05
5.64183e-05
6.94918e-05
6.94755e-05
6.94938e-05
6.94774e-05
1.97751e-05
6.07269e-05
6.07349e-05
6.05577e-05
6.05648e-05
6.9445e-05
6.94604e-05
6.94469e-05
6.94624e-05
6.9431e-05
6.94165e-05
6.94329e-05
6.94185e-05
6.08149e-05
6.08238e-05
2.04331e-05
6.09756e-05
6.09847e-05
6.93891e-05
6.94026e-05
6.9391e-05
6.94045e-05
2.05905e-05
6.12083e-05
6.12175e-05
6.10558e-05
6.10647e-05
5.68637e-05
7.01956e-05
5.65211e-05
7.02126e-05
3.43389e-05
4.85694e-05
1.45655e-05
1.68649e-05
3.38169e-05
4.88862e-05
1.45672e-05
3.43375e-05
4.85717e-05
1.45655e-05
1.68653e-05
3.38147e-05
4.88875e-05
1.45672e-05
5.69494e-05
7.02352e-05
7.02195e-05
5.7266e-05
5.69481e-05
7.02317e-05
7.02161e-05
5.72649e-05
3.46037e-05
1.69609e-05
4.93508e-05
1.45818e-05
4.9048e-05
1.4572e-05
3.51132e-05
3.46034e-05
1.69613e-05
4.93517e-05
1.45818e-05
4.90503e-05
1.4572e-05
3.51114e-05
6.08192e-05
6.08126e-05
2.04324e-05
6.09803e-05
6.09739e-05
6.9431e-05
6.94168e-05
6.93907e-05
6.94041e-05
2.05887e-05
6.12128e-05
6.12055e-05
6.10605e-05
6.1053e-05
6.93892e-05
6.94024e-05
3.43379e-05
4.85717e-05
1.45661e-05
1.6865e-05
3.38174e-05
4.88908e-05
1.45678e-05
5.68641e-05
7.01961e-05
5.652e-05
7.0213e-05
3.43365e-05
1.45654e-05
4.85702e-05
1.68652e-05
3.38178e-05
1.45671e-05
4.88905e-05
5.69479e-05
7.02362e-05
7.02205e-05
5.72659e-05
3.46051e-05
1.69609e-05
4.93553e-05
1.45825e-05
4.90499e-05
1.45727e-05
3.51116e-05
5.69467e-05
7.0232e-05
7.02166e-05
5.72649e-05
3.46052e-05
1.69613e-05
1.45818e-05
4.93549e-05
1.45719e-05
4.90476e-05
3.51098e-05
5.68555e-05
7.01975e-05
5.65241e-05
7.02144e-05
3.43356e-05
1.45652e-05
4.85694e-05
1.6865e-05
3.38171e-05
1.45669e-05
4.88839e-05
5.68608e-05
7.01947e-05
5.65228e-05
7.02116e-05
3.46026e-05
1.69592e-05
4.93463e-05
1.45809e-05
4.90439e-05
1.45711e-05
3.51059e-05
5.69501e-05
7.02333e-05
7.02179e-05
5.72565e-05
3.46045e-05
1.6961e-05
1.45816e-05
4.93498e-05
1.45718e-05
4.90479e-05
3.51091e-05
5.69493e-05
7.02306e-05
7.02152e-05
5.72619e-05
6.08192e-05
6.08147e-05
2.04332e-05
6.09805e-05
6.09758e-05
6.94317e-05
6.94172e-05
6.9391e-05
6.94045e-05
2.05891e-05
6.12134e-05
6.12088e-05
6.10596e-05
6.10551e-05
6.93897e-05
6.94032e-05
3.43379e-05
1.45657e-05
4.85705e-05
1.68656e-05
3.38149e-05
1.45675e-05
4.88892e-05
5.68574e-05
7.01993e-05
5.65246e-05
7.02161e-05
5.68563e-05
7.01961e-05
5.65235e-05
7.02131e-05
3.46036e-05
1.69598e-05
1.45814e-05
4.93493e-05
1.45715e-05
4.90478e-05
3.51131e-05
3.46037e-05
1.69614e-05
1.45822e-05
4.93536e-05
1.45723e-05
4.90486e-05
3.51134e-05
5.69509e-05
7.02352e-05
7.02197e-05
5.72585e-05
5.69498e-05
7.02323e-05
7.02166e-05
5.72574e-05
6.94305e-05
6.94161e-05
6.94325e-05
6.9418e-05
2.06105e-05
6.1205e-05
6.12128e-05
6.10526e-05
6.10595e-05
6.93887e-05
6.94021e-05
6.93906e-05
6.9404e-05
6.93756e-05
6.9363e-05
6.93774e-05
6.9365e-05
6.12849e-05
6.12924e-05
2.13284e-05
6.14297e-05
6.14387e-05
6.93383e-05
6.93499e-05
6.93403e-05
6.93518e-05
2.1498e-05
6.16403e-05
6.16492e-05
6.15024e-05
6.15105e-05
5.76331e-05
7.02348e-05
5.73393e-05
7.02498e-05
3.58633e-05
4.95052e-05
1.45963e-05
1.72791e-05
3.537e-05
4.97953e-05
1.46146e-05
3.58626e-05
4.95077e-05
1.45963e-05
1.72796e-05
3.53698e-05
4.97962e-05
1.46146e-05
5.77003e-05
7.02696e-05
7.02558e-05
5.79736e-05
5.76989e-05
7.02664e-05
7.02525e-05
5.79722e-05
3.61137e-05
1.73954e-05
5.02207e-05
1.46647e-05
4.99437e-05
1.46377e-05
3.65905e-05
3.61128e-05
1.73957e-05
5.02226e-05
1.46646e-05
4.99457e-05
1.46377e-05
3.65873e-05
6.12893e-05
6.12813e-05
2.13274e-05
6.14338e-05
6.14261e-05
6.93752e-05
6.9363e-05
6.93399e-05
6.93514e-05
2.1496e-05
6.16449e-05
6.16365e-05
6.15069e-05
6.1498e-05
6.93381e-05
6.93494e-05
3.58618e-05
4.95066e-05
1.4597e-05
1.72791e-05
3.53717e-05
4.98007e-05
1.46154e-05
5.76329e-05
7.02353e-05
5.7338e-05
7.02502e-05
3.58619e-05
1.45963e-05
4.95048e-05
1.72798e-05
3.53712e-05
1.46147e-05
4.97984e-05
5.76986e-05
7.02707e-05
7.02569e-05
5.79729e-05
3.61145e-05
1.73952e-05
5.02258e-05
1.46655e-05
4.99438e-05
1.46385e-05
3.65893e-05
5.76977e-05
7.02668e-05
7.0253e-05
5.79718e-05
3.61135e-05
1.73961e-05
1.46648e-05
5.02235e-05
1.46379e-05
4.99433e-05
3.6588e-05
5.76249e-05
7.02365e-05
5.73406e-05
7.02512e-05
3.58603e-05
1.45961e-05
4.95045e-05
1.72796e-05
3.53708e-05
1.46145e-05
4.97947e-05
5.76302e-05
7.02338e-05
5.73401e-05
7.02489e-05
3.61104e-05
1.73932e-05
5.02166e-05
1.46636e-05
4.99409e-05
1.46365e-05
3.65843e-05
5.76995e-05
7.02678e-05
7.02542e-05
5.79644e-05
3.6113e-05
1.73958e-05
1.46646e-05
5.02203e-05
1.46376e-05
4.99427e-05
3.65871e-05
5.76992e-05
7.02656e-05
7.02518e-05
5.79695e-05
6.12882e-05
6.12843e-05
2.1328e-05
6.14341e-05
6.14298e-05
6.93761e-05
6.93636e-05
6.93402e-05
6.93518e-05
2.14969e-05
6.16448e-05
6.16401e-05
6.1506e-05
6.15016e-05
6.93388e-05
6.93504e-05
3.58642e-05
1.45967e-05
4.95057e-05
1.728e-05
3.53685e-05
1.46151e-05
4.9798e-05
5.76269e-05
7.02383e-05
5.73414e-05
7.02532e-05
5.76258e-05
7.02353e-05
5.73402e-05
7.02503e-05
3.6112e-05
1.73942e-05
1.46644e-05
5.02199e-05
1.46374e-05
4.99436e-05
3.65914e-05
3.61111e-05
1.7396e-05
1.46653e-05
5.02242e-05
1.46383e-05
4.99441e-05
3.65907e-05
5.77003e-05
7.02696e-05
7.02559e-05
5.79663e-05
5.76991e-05
7.0267e-05
7.02531e-05
5.79652e-05
6.93751e-05
6.93626e-05
6.93771e-05
6.93646e-05
2.15214e-05
6.16368e-05
6.16447e-05
6.14987e-05
6.15063e-05
6.93379e-05
6.93494e-05
6.93399e-05
6.93514e-05
6.93255e-05
6.93149e-05
6.93274e-05
6.93169e-05
6.17095e-05
6.17175e-05
2.22868e-05
6.18416e-05
6.18496e-05
6.92929e-05
6.93025e-05
6.92949e-05
6.93045e-05
2.2466e-05
6.20335e-05
6.20418e-05
6.19075e-05
6.19157e-05
5.82856e-05