/*--------------------------------*- C++ -*----------------------------------*\
| =========                 |                                                 |
| \\      /  F ield         | OpenFOAM: The Open Source CFD Toolbox           |
|  \\    /   O peration     | Version:  2312                                  |
|   \\  /    A nd           | Website:  www.openfoam.com                      |
|    \\/     M anipulation  |                                                 |
\*---------------------------------------------------------------------------*/
FoamFile
{
    version     2.0;
    format      ascii;
    arch        "LSB;label=32;scalar=64";
    class       volScalarField;
    location    "650";
    object      nut;
}
// * * * * * * * * * * * * * * * * * * * * * * * * * * * * * * * * * * * * * //

dimensions      [0 2 -1 0 0 0 0];

internalField   nonuniform List<scalar> 
42840
(
0.000145954
9.86083e-05
9.86051e-05
8.19932e-05
0.000141924
9.62743e-05
9.62712e-05
8.20317e-05
0.000137982
9.44574e-05
9.44554e-05
8.26401e-05
0.000134145
9.31592e-05
9.31578e-05
8.36477e-05
0.000130465
9.23671e-05
9.23664e-05
8.48955e-05
0.00012697
9.20604e-05
9.20602e-05
8.65961e-05
0.000123697
9.22121e-05
9.22134e-05
8.85469e-05
0.00012069
9.27896e-05
9.2793e-05
9.0766e-05
0.000117952
9.37572e-05
9.37645e-05
9.31725e-05
0.000115536
9.50865e-05
9.50938e-05
9.56769e-05
0.000113456
9.67334e-05
9.67396e-05
9.8177e-05
0.000111727
9.86595e-05
9.86657e-05
0.000100752
0.000110359
0.00010083
0.000100836
0.000103351
0.000109358
0.000103216
0.000103221
0.00010599
0.000108725
0.000105784
0.00010579
0.000108634
0.000108455
0.000108503
0.000108511
0.000111214
0.000108542
0.000111347
0.000111356
0.000113924
0.000108977
0.000114293
0.000114305
0.000116605
0.000109745
0.000117318
0.000117334
0.00011925
0.000110834
0.000120415
0.000120432
0.000121995
0.000112226
0.000123558
0.000123578
0.000124561
0.000113904
0.000126732
0.000126753
0.000127246
0.000115849
0.000129921
0.000129941
0.000129629
0.00011804
0.00013311
0.000133129
0.000132091
0.000120455
0.000136286
0.000136302
0.000134588
8.1722e-05
8.21377e-05
9.8583e-05
9.85718e-05
9.67833e-05
9.67732e-05
8.17483e-05
8.22231e-05
9.86032e-05
9.85706e-05
9.68028e-05
9.67717e-05
9.85839e-05
9.68054e-05
9.67854e-05
8.17934e-05
8.22468e-05
9.85968e-05
9.68058e-05
9.67981e-05
8.18396e-05
8.18658e-05
8.2704e-05
9.62495e-05
9.62401e-05
9.48406e-05
9.483e-05
8.18507e-05
8.25924e-05
9.62697e-05
9.62393e-05
9.48597e-05
9.48286e-05
9.62523e-05
9.48599e-05
9.48437e-05
8.17818e-05
8.26937e-05
9.62628e-05
9.48607e-05
9.48533e-05
8.23344e-05
8.23198e-05
8.3508e-05
9.44346e-05
9.44258e-05
9.34148e-05
9.34056e-05
8.2376e-05
8.35929e-05
9.4454e-05
9.44263e-05
9.34336e-05
9.34046e-05
9.44396e-05
9.34332e-05
9.34215e-05
8.23135e-05
8.3513e-05
9.44481e-05
9.34337e-05
9.34294e-05
8.32342e-05
8.33835e-05
8.48307e-05
9.31393e-05
9.31312e-05
9.24995e-05
9.24914e-05
8.33575e-05
8.48204e-05
9.31581e-05
9.31314e-05
9.25173e-05
9.24906e-05
9.31456e-05
9.25169e-05
9.25084e-05
8.33748e-05
8.49002e-05
9.31534e-05
9.25181e-05
9.25156e-05
8.46187e-05
8.47394e-05
8.65723e-05
9.23492e-05
9.23416e-05
9.20758e-05
9.20688e-05
8.47147e-05
8.65551e-05
9.23668e-05
9.23421e-05
9.20938e-05
9.20679e-05
9.23567e-05
9.20917e-05
9.20839e-05
8.471e-05
8.6483e-05
9.23635e-05
9.20934e-05
9.20899e-05
8.61996e-05
8.63916e-05
8.84075e-05
9.20447e-05
9.20378e-05
9.21174e-05
9.21121e-05
8.63854e-05
8.83527e-05
9.20616e-05
9.20381e-05
9.21358e-05
9.21112e-05
9.20513e-05
9.21323e-05
9.21249e-05
8.64424e-05
8.83687e-05
9.20572e-05
9.21353e-05
9.213e-05
8.81567e-05
8.84177e-05
9.05625e-05
9.21978e-05
9.21926e-05
9.25952e-05
9.25887e-05
8.84206e-05
9.05516e-05
9.22142e-05
9.21934e-05
9.26107e-05
9.2589e-05
9.22048e-05
9.26068e-05
9.26015e-05
8.84177e-05
9.0515e-05
9.22105e-05
9.26117e-05
9.26061e-05
9.02472e-05
9.05988e-05
9.28706e-05
9.27777e-05
9.27726e-05
9.3473e-05
9.34644e-05
9.05791e-05
9.28338e-05
9.27933e-05
9.27751e-05
9.34861e-05
9.34676e-05
9.27857e-05
9.34813e-05
9.34776e-05
9.0593e-05
9.28483e-05
9.27904e-05
9.34888e-05
9.34827e-05
9.24822e-05
9.29441e-05
9.52765e-05
9.37521e-05
9.37441e-05
9.47174e-05
9.47102e-05
9.29299e-05
9.52284e-05
9.37644e-05
9.3748e-05
9.47298e-05
9.47121e-05
9.37594e-05
9.47246e-05
9.47221e-05
9.29471e-05
9.52228e-05
9.3762e-05
9.47327e-05
9.4724e-05
9.48172e-05
9.54442e-05
9.76688e-05
9.50812e-05
9.50744e-05
9.62884e-05
9.6282e-05
9.54376e-05
9.77083e-05
9.50939e-05
9.50792e-05
9.63014e-05
9.62837e-05
9.50866e-05
9.62947e-05
9.62935e-05
9.54626e-05
9.7781e-05
9.50885e-05
9.63026e-05
9.62952e-05
9.72963e-05
9.79609e-05
0.000100216
9.6729e-05
9.6724e-05
9.81505e-05
9.81447e-05
9.79442e-05
0.000100153
9.67417e-05
9.6727e-05
9.81615e-05
9.81446e-05
9.67346e-05
9.81558e-05
9.8153e-05
9.7821e-05
0.00010028
9.67355e-05
9.81622e-05
9.81532e-05
9.98124e-05
0.000100428
0.000102904
9.86568e-05
9.86534e-05
0.000100267
0.000100258
0.000100528
0.000102788
9.86673e-05
9.86549e-05
0.000100275
0.000100259
9.86613e-05
0.000100267
0.000100267
0.000100295
0.000102793
9.86604e-05
0.000100275
0.000100267
0.000102448
0.000102953
0.000105497
0.00010083
0.000100825
0.000102602
0.000102593
0.000102952
0.000105486
0.000100839
0.000100826
0.000102609
0.000102593
0.000100834
0.000102602
0.000102605
0.000102879
0.000105461
0.000100833
0.000102608
0.000102602
0.00010509
0.000105595
0.000108122
0.000103216
0.00010321
0.000105128
0.000105117
0.000105585
0.000108174
0.000103223
0.000103211
0.000105135
0.000105118
0.000103221
0.000105127
0.00010513
0.00010552
0.000108045
0.000103218
0.000105134
0.000105127
0.000107729
0.000108228
0.00011079
0.000105785
0.000105776
0.000107812
0.0001078
0.000108219
0.000110804
0.000105791
0.000105778
0.000107818
0.000107804
0.000105789
0.000107812
0.000107815
0.000108169
0.000110567
0.000105786
0.000107819
0.000107812
0.000110512
0.000110877
0.000113506
0.000108505
0.000108495
0.000110628
0.000110614
0.000110912
0.00011348
0.000108511
0.000108499
0.000110634
0.00011062
0.000108509
0.000110626
0.000110632
0.000111064
0.000113405
0.000108506
0.000110637
0.000110629
0.000113242
0.000113631
0.000115993
0.00011135
0.000111338
0.000113553
0.000113536
0.00011357
0.000116174
0.000111356
0.000111343
0.000113559
0.000113543
0.000111355
0.000113549
0.000113557
0.000113596
0.000116136
0.000111351
0.000113561
0.000113551
0.000115932
0.000116483
0.000118693
0.000114298
0.000114284
0.000116563
0.000116543
0.000116326
0.000118807
0.000114303
0.000114292
0.000116568
0.000116553
0.000114302
0.000116555
0.000116564
0.000116298
0.00011882
0.000114297
0.000116572
0.000116558
0.00011852
0.000119164
0.000121147
0.000117326
0.000117309
0.000119643
0.000119623
0.000118933
0.000121514
0.000117331
0.000117319
0.000119646
0.000119634
0.000117329
0.000119636
0.000119647
0.000118944
0.000121524
0.000117323
0.000119654
0.000119639
0.000121152
0.000121969
0.000123915
0.000120423
0.000120404
0.000122778
0.000122757
0.000121617
0.000124139
0.000120426
0.000120416
0.00012278
0.000122768
0.000120428
0.00012277
0.000122784
0.00012164
0.000123814
0.00012042
0.00012279
0.000122776
0.000123874
0.000124546
0.000126513
0.000123568
0.000123548
0.000125947
0.000125924
0.000124296
0.00012674
0.000123568
0.000123559
0.000125946
0.000125937
0.000123574
0.000125938
0.000125953
0.000124502
0.000126451
0.000123566
0.000125959
0.000125945
0.000126456
0.000127146
0.000129039
0.000126741
0.000126721
0.000129132
0.00012911
0.000126887
0.000129188
0.000126741
0.000126733
0.00012913
0.000129123
0.000126749
0.000129123
0.000129138
0.000127182
0.000129042
0.000126741
0.000129145
0.000129132
0.000129279
0.000129764
0.00013171
0.000129929
0.000129908
0.000132321
0.000132299
0.000129609
0.000131777
0.000129928
0.000129921
0.000132319
0.000132312
0.000129935
0.000132313
0.000132325
0.00012977
0.00013164
0.000129928
0.000132334
0.000132319
0.00013196
0.00013228
0.000134237
0.000133117
0.000133096
0.000135499
0.00013548
0.000132191
0.000134203
0.000133115
0.000133107
0.000135498
0.00013549
0.000133121
0.000135493
0.000135506
0.000132303
0.000134232
0.000133115
0.000135512
0.000135501
0.000134463
0.000134786
0.000136292
0.000136273
0.00013478
0.00013629
0.000136281
0.000136299
0.000134761
0.000136293
7.20201e-05
4.9581e-05
4.95848e-05
7.122e-05
2.3616e-05
2.36129e-05
7.2029e-05
4.95755e-05
4.95794e-05
7.12129e-05
0.00014595
0.000145945
0.000145942
0.000142914
0.00014291
0.000142905
0.000142902
6.98839e-05
6.76443e-05
0.000122025
9.79723e-05
6.8221e-05
0.000121041
6.89568e-05
2.36153e-05
2.36121e-05
6.99172e-05
0.000122005
6.76205e-05
9.79711e-05
0.000121039
6.82563e-05
6.89381e-05
6.20423e-05
6.20572e-05
8.18877e-05
6.23581e-05
6.235e-05
7.37709e-05
4.95993e-05
7.3064e-05
4.96022e-05
2.36046e-05
2.36018e-05
7.37733e-05
4.95939e-05
7.30581e-05
4.95968e-05
0.000141921
0.000141916
0.000141913
0.000138943
0.000138939
0.000138934
0.000138931
7.28822e-05
6.94455e-05
0.000118298
9.57674e-05
7.193e-05
6.99943e-05
0.000117377
2.36039e-05
2.36011e-05
7.28867e-05
0.000118275
6.94197e-05
9.57672e-05
7.1921e-05
0.000117374
7.00243e-05
6.29167e-05
6.29205e-05
8.20124e-05
6.32071e-05
6.32011e-05
7.53189e-05
4.96152e-05
7.46657e-05
4.96174e-05
2.35942e-05
2.35917e-05
7.53065e-05
4.96097e-05
7.46714e-05
4.9612e-05
0.000137978
0.000137974
0.000137971
0.00013509
0.000135086
0.000135082
0.00013508
7.58808e-05
7.11348e-05
0.000114863
9.40822e-05
7.48904e-05
7.16593e-05
0.000114043
2.35934e-05
2.3591e-05
7.58635e-05
0.000114841
7.11134e-05
9.40828e-05
7.49111e-05
0.000114042
7.16904e-05
6.37224e-05
6.37208e-05
8.27622e-05
6.39913e-05
6.39813e-05
7.66798e-05
4.96287e-05
7.60881e-05
4.96308e-05
2.35848e-05
2.35826e-05
7.66661e-05
4.96231e-05
7.60945e-05
4.96255e-05
0.000134141
0.000134137
0.000134134
0.000131372
0.000131368
0.000131364
0.000131362
7.87972e-05
7.27346e-05
0.000111745
9.29122e-05
7.78266e-05
7.32204e-05
0.000111009
2.3584e-05
2.35819e-05
7.88192e-05
0.000111725
7.27162e-05
9.29136e-05
7.78236e-05
0.000111008
7.32559e-05
6.44665e-05
6.44656e-05
8.38926e-05
6.4715e-05
6.47061e-05
7.7899e-05
4.96404e-05
7.73586e-05
4.96426e-05
2.35763e-05
2.35745e-05
7.78843e-05
4.96347e-05
7.7365e-05
4.96374e-05
0.000130461
0.000130457
0.000130456
0.000127828
0.000127825
0.00012782
0.000127819
8.16212e-05
7.42391e-05
0.000109007
9.22449e-05
8.06798e-05
7.46994e-05
0.000108369
2.35755e-05
2.35737e-05
8.1643e-05
0.00010899
7.42201e-05
9.22463e-05
8.06755e-05
0.000108371
7.47332e-05
6.51524e-05
6.51487e-05
8.54131e-05
6.53809e-05
6.5375e-05
7.90019e-05
4.96509e-05
7.85067e-05
4.96533e-05
2.35687e-05
2.35672e-05
7.89865e-05
4.96449e-05
7.85134e-05
4.96483e-05
0.000126967
0.000126962
0.000126962
0.000124497
0.000124494
0.00012449
0.000124489
8.43173e-05
7.5655e-05
0.000106673
9.20552e-05
8.34456e-05
7.60929e-05
0.000106139
2.35679e-05
2.35664e-05
8.43439e-05
0.000106658
7.56381e-05
9.20582e-05
8.34415e-05
0.000106143
7.6128e-05
6.57907e-05
6.57883e-05
8.71567e-05
6.60027e-05
6.59979e-05
8.00106e-05
4.96607e-05
7.95563e-05
4.96634e-05
2.3562e-05
2.35609e-05
7.99956e-05
4.96551e-05
7.95643e-05
4.96581e-05
0.000123694
0.000123689
0.000123689
0.000121423
0.00012142
0.000121416
0.000121416
8.69269e-05
7.6994e-05
0.000104766
9.23173e-05
8.60871e-05
7.74104e-05
0.00010434
2.35612e-05
2.35601e-05
8.69341e-05
0.000104753
7.69777e-05
9.23211e-05
8.60836e-05
0.000104347
7.74429e-05
6.63869e-05
6.63849e-05
8.91529e-05
6.65845e-05
6.65811e-05
8.09416e-05
4.96705e-05
8.05231e-05
4.96734e-05
2.35563e-05
2.35556e-05
8.09336e-05
4.96651e-05
8.05303e-05
4.96679e-05
0.000120687
0.000120682
0.000120682
0.000118606
0.000118603
0.0001186
0.000118599
8.94077e-05
7.82601e-05
0.000103302
9.29962e-05
8.86099e-05
7.86571e-05
0.00010299
2.35555e-05
2.35547e-05
8.94369e-05
0.000103292
7.82464e-05
9.3003e-05
8.85929e-05
0.000102997
7.86892e-05
6.6946e-05
6.6944e-05
9.14369e-05
6.71323e-05
6.71296e-05
8.18155e-05
4.96807e-05
8.14281e-05
4.96834e-05
2.35516e-05
2.35512e-05
8.18083e-05
4.96754e-05
8.14336e-05
4.96779e-05
0.000117948
0.000117945
0.000117945
0.00011611
0.000116106
0.000116104
0.000116103
9.18293e-05
7.94631e-05
0.000102289
9.40596e-05
9.09906e-05
7.98409e-05
0.000102088
2.35508e-05
2.35504e-05
9.18333e-05
0.00010228
7.94492e-05
9.40675e-05
9.09917e-05
0.000102095
7.98734e-05
6.74737e-05
6.74715e-05
9.36626e-05
6.76505e-05
6.76476e-05
8.26363e-05
4.96913e-05
8.22713e-05
4.96943e-05
2.3548e-05
2.35479e-05
8.26296e-05
4.96864e-05
8.22745e-05
4.96884e-05
0.000115532
0.00011553
0.00011553
0.000113944
0.00011394
0.000113939
0.000113938
9.41236e-05
8.05976e-05
0.000101718
9.54716e-05
9.32834e-05
8.09811e-05
0.000101627
2.35471e-05
2.3547e-05
9.4124e-05
0.000101712
8.05947e-05
9.548e-05
9.32891e-05
0.000101634
8.09999e-05
6.7974e-05
6.79714e-05
9.60732e-05
6.81424e-05
6.81396e-05
8.34064e-05
4.96999e-05
8.30648e-05
4.97083e-05
2.35453e-05
2.35456e-05
8.33993e-05
4.96972e-05
8.30667e-05
4.97017e-05
0.000113451
0.00011345
0.00011345
0.000112126
0.000112122
0.000112121
0.00011212
9.63262e-05
8.16959e-05
0.000101579
9.71915e-05
9.54846e-05
8.2062e-05
0.000101593
2.35444e-05
2.35447e-05
9.63254e-05
0.000101573
8.16855e-05
9.71989e-05
9.54912e-05
0.000101601
8.20746e-05
6.84501e-05
6.84474e-05
9.86481e-05
6.86113e-05
6.86081e-05
8.41398e-05
4.9712e-05
8.38152e-05
4.97213e-05
2.35436e-05
2.35443e-05
8.41321e-05
4.97068e-05
8.38151e-05
4.9716e-05
0.000111722
0.000111722
0.000111722
0.000110667
0.000110663
0.000110662
0.000110662
9.84413e-05
8.2746e-05
0.000101851
9.91828e-05
9.76006e-05
8.30875e-05
0.000101968
2.35427e-05
2.35434e-05
9.84446e-05
0.000101847
8.27241e-05
9.91897e-05
9.7606e-05
0.000101974
8.31113e-05
6.89049e-05
6.89021e-05
0.000101143
6.90593e-05
6.90561e-05
8.48378e-05
4.97256e-05
8.45271e-05
4.97354e-05
2.3543e-05
2.3544e-05
8.48326e-05
4.97203e-05
8.4527e-05
4.97301e-05
0.000110355
0.000110355
0.000110355
0.000109574
0.00010957
0.000109569
0.00010957
0.000100479
8.37451e-05
0.000102513
0.000101409
9.96446e-05
8.40832e-05
0.000102724
2.35421e-05
2.35431e-05
0.000100486
0.000102511
8.37358e-05
0.000101416
9.96475e-05
0.000102731
8.41047e-05
6.93403e-05
6.93378e-05
0.000103782
6.94898e-05
6.94862e-05
8.55086e-05
4.97405e-05
8.52096e-05
4.97509e-05
2.35433e-05
2.35447e-05
8.55028e-05
4.97352e-05
8.52095e-05
4.97456e-05
0.000109354
0.000109354
0.000109355
0.000108849
0.000108844
0.000108844
0.000108845
0.000102455
8.47065e-05
0.000103541
0.000103843
0.000101616
8.50293e-05
0.00010384
2.35425e-05
2.35438e-05
0.000102458
0.000103539
8.46882e-05
0.000103849
0.000101617
0.000103846
8.50621e-05
6.9759e-05
6.97547e-05
0.000106422
6.9903e-05
6.99007e-05
8.61554e-05
4.97569e-05
8.58658e-05
4.97678e-05
2.35447e-05
2.35464e-05
8.61478e-05
4.97515e-05
8.58677e-05
4.97624e-05
0.000108719
0.00010872
0.000108722
0.000108489
0.000108483
0.000108484
0.000108486
0.000104356
8.56263e-05
0.000104906
0.000106453
0.000103528
8.59522e-05
0.000105286
2.35438e-05
2.35455e-05
0.000104367
0.000104904
8.56141e-05
0.000106459
0.000103524
0.000105292
8.59771e-05
7.01614e-05
7.01561e-05
0.000109071
7.03012e-05
7.02992e-05
8.67778e-05
4.97747e-05
8.65053e-05
4.97861e-05
2.3547e-05
2.35491e-05
8.67753e-05
4.97693e-05
8.65033e-05
4.97808e-05
0.000108449
0.000108451
0.000108453
0.000108488
0.000108481
0.000108484
0.000108485
0.00010621
8.65131e-05
0.000106579
0.000109205
0.000105378
8.68361e-05
0.000107033
2.35461e-05
2.35482e-05
0.000106217
0.000106582
8.64917e-05
0.000109214
0.000105378
0.000107044
8.68626e-05
7.05484e-05
7.05428e-05
0.000111785
7.06854e-05
7.06828e-05
8.7388e-05
4.97939e-05
8.71242e-05
4.98058e-05
2.35502e-05
2.35526e-05
8.73861e-05
4.97885e-05
8.71214e-05
4.98005e-05
0.000108536
0.000108539
0.000108541
0.000108837
0.000108829
0.000108834
0.000108834
0.000108007
8.73629e-05
0.000108537
0.000112076
0.000107183
8.7684e-05
0.000109059
2.35493e-05
2.35517e-05
0.000108012
0.000108543
8.73481e-05
0.000112087
0.000107187
0.000109071
8.77043e-05
7.09217e-05
7.09161e-05
0.000114483
7.10559e-05
7.10527e-05
8.79842e-05
4.98145e-05
8.77264e-05
4.9827e-05
2.35542e-05
2.3557e-05
8.79818e-05
4.98091e-05
8.77239e-05
4.98217e-05
0.000108969
0.000108974
0.000108975
0.000109523
0.000109514
0.000109521
0.000109521
0.000109751
8.8189e-05
0.000110752
0.000115044
0.000108939
8.85052e-05
0.000111333
2.35534e-05
2.35561e-05
0.000109756
0.000110759
8.81724e-05
0.000115058
0.000108944
0.000111347
8.85247e-05
7.12822e-05
7.12766e-05
0.00011719
7.14136e-05
7.14096e-05
8.85687e-05
4.98362e-05
8.83167e-05
4.98491e-05
2.35592e-05
2.35624e-05
8.85651e-05
4.98312e-05
8.83125e-05
4.98442e-05
0.000109737
0.000109744
0.000109744
0.000110533
0.000110523
0.000110532
0.000110532
0.000111444
8.89845e-05
0.000113194
0.000118089
0.000110651
8.92958e-05
0.00011383
2.35583e-05
2.35612e-05
0.00011145
0.000113203
8.89673e-05
0.000118106
0.000110658
0.000113845
8.93236e-05
7.16309e-05
7.1625e-05
0.000119861
7.17585e-05
7.17542e-05
8.914e-05
4.98628e-05
8.88926e-05
4.98699e-05
2.3565e-05
2.35682e-05
8.91415e-05
4.98545e-05
8.88886e-05
4.9868e-05
0.000110824
0.000110834
0.000110833
0.00011185
0.000111841
0.000111851
0.000111851
0.000113092
8.97533e-05
0.000115838
0.000121198
0.000112322
9.00562e-05
0.00011652
2.35639e-05
2.35671e-05
0.000113103
0.000115847
8.97385e-05
0.000121217
0.000112326
0.000116536
9.00879e-05
7.19683e-05
7.1962e-05
0.000122552
7.20932e-05
7.20871e-05
8.97038e-05
4.98873e-05
8.94573e-05
4.98949e-05
2.35713e-05
2.35748e-05
8.97072e-05
4.9879e-05
8.94476e-05
4.9893e-05
0.000112216
0.000112227
0.000112227
0.000113459
0.000113449
0.000113461
0.000113461
0.000114695
9.04915e-05
0.000118658
0.000124351
0.000113949
9.07971e-05
0.000119385
2.35703e-05
2.35737e-05
0.000114707
0.000118671
9.04876e-05
0.000124371
0.000113952
0.000119403
9.08226e-05
7.22933e-05
7.22879e-05
0.000125172
7.24171e-05
7.24097e-05
9.02561e-05
4.99129e-05
9.00134e-05
4.99211e-05
2.35782e-05
2.35819e-05
9.02572e-05
4.99047e-05
8.99968e-05
4.9919e-05
0.000113894
0.000113907
0.000113907
0.000115339
0.000115329
0.000115343
0.000115343
0.000116253
9.12143e-05
0.000121649
0.00012753
0.000115529
9.151e-05
0.000122414
2.35772e-05
2.35809e-05
0.000116267
0.000121662
9.12033e-05
0.000127551
0.000115534
0.000122433
9.15366e-05
7.26077e-05
7.26037e-05
0.000127821
7.27288e-05
7.27211e-05
9.07861e-05
4.99397e-05
9.05493e-05
4.99482e-05
2.35858e-05
2.35897e-05
9.07883e-05
4.99314e-05
9.05409e-05
4.9946e-05
0.000115839
0.000115853
0.000115853
0.00011747
0.00011746
0.000117475
0.000117475
0.000117766
9.19086e-05
0.000124792
0.000130718
0.000117062
9.22e-05
0.000125592
2.35848e-05
2.35887e-05
0.000117782
0.000124806
9.19018e-05
0.00013074
0.000117071
0.000125613
9.22223e-05
7.29125e-05
7.29085e-05
0.000130562
7.30291e-05
7.30227e-05
9.13092e-05
4.99639e-05
9.10801e-05
4.99789e-05
2.35939e-05
2.3598e-05
9.1315e-05
4.9959e-05
9.10669e-05
4.99739e-05
0.000118029
0.000118044
0.000118045
0.000119831
0.000119821
0.000119836
0.000119837
0.000119228
9.25805e-05
0.000128065
0.000133905
0.000118549
9.28668e-05
0.000128893
2.35929e-05
2.35971e-05
0.00011924
0.00012808
9.25682e-05
0.000133924
0.000118557
0.000128914
9.28892e-05
7.32074e-05
7.32034e-05
0.000133262
7.3317e-05
7.33135e-05
9.18156e-05
4.99926e-05
9.1595e-05
5.00064e-05
2.36025e-05
2.36068e-05
9.1825e-05
4.99874e-05
9.1579e-05
5.00026e-05
0.000120445
0.00012046
0.000120461
0.000120642
9.32248e-05
0.000131438
0.000137077
0.000119989
9.35234e-05
0.000132287
2.36016e-05
2.36059e-05
0.000120649
0.000131454
9.32233e-05
0.000137094
0.000119996
0.000132309
9.35274e-05
7.34908e-05
7.34872e-05
0.000135719
7.35998e-05
7.35934e-05
2.36183e-05
2.36152e-05
2.36161e-05
2.3613e-05
6.20511e-05
6.20489e-05
8.21185e-05
6.23668e-05
6.23758e-05
2.36095e-05
2.36124e-05
2.36073e-05
2.36103e-05
8.17692e-05
6.28075e-05
6.2808e-05
6.25039e-05
6.24943e-05
7.20343e-05
4.95749e-05
4.95787e-05
7.12092e-05
6.98992e-05
6.76223e-05
0.000122008
9.79495e-05
6.82614e-05
0.000121037
6.89329e-05
6.99243e-05
6.76173e-05
0.000122008
9.79384e-05
6.82577e-05
0.000121038
6.89337e-05
7.2174e-05
4.95939e-05
4.95903e-05
7.29255e-05
7.21605e-05
4.95879e-05
4.95844e-05
7.29394e-05
7.04363e-05
9.7351e-05
6.91596e-05
0.000119169
6.85329e-05
0.000120109
7.13966e-05
7.04186e-05
9.73411e-05
6.91513e-05
0.00011917
6.85297e-05
0.000120108
7.14139e-05
6.20414e-05
6.20662e-05
8.21908e-05
6.23675e-05
6.236e-05
2.36177e-05
2.36145e-05
2.36072e-05
2.36102e-05
8.17562e-05
6.27995e-05
6.27937e-05
6.24871e-05
6.25071e-05
2.36089e-05
2.36119e-05
6.99188e-05
6.76126e-05
0.000122015
9.79693e-05
6.82576e-05
0.000121045
6.89381e-05
7.20234e-05
4.95719e-05
4.95756e-05
7.12155e-05
6.99067e-05
0.000121999
6.76341e-05
9.79364e-05
0.000121029
6.82275e-05
6.89436e-05
7.21657e-05
4.95885e-05
4.95849e-05
7.29295e-05
7.04226e-05
9.73706e-05
6.91553e-05
0.000119177
6.85305e-05
0.000120116
7.14011e-05
7.21673e-05
4.95847e-05
4.95814e-05
7.29263e-05
7.04311e-05
9.73405e-05
0.000119161
6.91253e-05
0.0001201
6.85469e-05
7.14029e-05
7.19952e-05
4.9577e-05
4.95802e-05
7.12295e-05
6.98847e-05
0.000122017
6.76019e-05
9.79491e-05
0.000121046
6.82662e-05
6.89469e-05
7.20248e-05
4.95723e-05
4.95764e-05
7.1212e-05
7.04317e-05
9.73763e-05
6.91183e-05
0.000119175
6.85557e-05
0.000120127
7.1373e-05
7.21791e-05
4.95894e-05
4.95864e-05
7.28993e-05
7.04381e-05
9.73531e-05
0.000119178
6.91523e-05
0.000120118
6.85164e-05
7.13838e-05
7.21639e-05
4.95854e-05
4.95818e-05
7.29291e-05
6.20575e-05
6.20556e-05
8.22017e-05
6.23509e-05
6.23638e-05
2.36175e-05
2.36143e-05
2.36065e-05
2.36095e-05
8.17914e-05
6.2784e-05
6.27963e-05
6.25007e-05
6.25143e-05
2.36086e-05
2.36116e-05
6.99178e-05
0.000122007
6.76388e-05
9.79621e-05
0.000121041
6.82275e-05
6.89296e-05
7.20024e-05
4.95768e-05
4.95805e-05
7.12302e-05
7.20003e-05
4.95708e-05
4.95747e-05
7.12272e-05
7.04161e-05
9.73744e-05
0.000119172
6.91555e-05
0.000120105
6.85324e-05
7.13888e-05
7.04176e-05
9.73655e-05
0.000119172
6.91293e-05
0.000120106
6.85474e-05
7.14028e-05
7.218e-05
4.95897e-05
4.95863e-05
7.29037e-05
7.21777e-05
4.95839e-05
4.95802e-05
7.29019e-05
2.36159e-05
2.36128e-05
2.36148e-05
2.36116e-05
8.2038e-05
6.27991e-05
6.27876e-05
6.24958e-05
6.25024e-05
2.36071e-05
2.36101e-05
2.36059e-05
2.3609e-05
2.36069e-05
2.36041e-05
2.36047e-05
2.36019e-05
6.2926e-05
6.29212e-05
8.24229e-05
6.32251e-05
6.3223e-05
2.35989e-05
2.36016e-05
2.35967e-05
2.35994e-05
8.20903e-05
6.36144e-05
6.3612e-05
6.33381e-05
6.33334e-05
7.37836e-05
4.95929e-05
7.30494e-05
4.95962e-05
7.28964e-05
6.94198e-05
0.000118277
9.57466e-05
7.19283e-05
7.00312e-05
0.000117371
7.29009e-05
6.94175e-05
0.000118277
9.5736e-05
7.19128e-05
7.00211e-05
0.000117372
7.38947e-05
4.96102e-05
4.96074e-05
7.45814e-05
7.38825e-05
4.96041e-05
4.96013e-05
7.45751e-05
7.34239e-05
9.5277e-05
7.08744e-05
0.00011565
7.0282e-05
0.000116519
7.4386e-05
7.34176e-05
9.52674e-05
7.08676e-05
0.00011565
7.02777e-05
0.000116519
7.43968e-05
6.29167e-05
6.29301e-05
8.24373e-05
6.3217e-05
6.32107e-05
2.36062e-05
2.36035e-05
2.35966e-05
2.35993e-05
8.20027e-05
6.36119e-05
6.36085e-05
6.33266e-05
6.33396e-05
2.35983e-05
2.36009e-05
7.28966e-05
6.94203e-05
0.000118285
9.57663e-05
7.19226e-05
7.00261e-05
0.00011738
7.37715e-05
4.95899e-05
7.30563e-05
4.9593e-05
7.29076e-05
0.000118269
6.94331e-05
9.57348e-05
7.19216e-05
0.000117364
6.99968e-05
7.38898e-05
4.96049e-05
4.9602e-05
7.45636e-05
7.3422e-05
9.52965e-05
7.08741e-05
0.000115658
7.02817e-05
0.000116527
7.43969e-05
7.38886e-05
4.96009e-05
4.95983e-05
7.45618e-05
7.34148e-05
9.5267e-05
0.000115642
7.08399e-05
0.00011651
7.02938e-05
7.43957e-05
7.37456e-05
4.95948e-05
7.30667e-05
4.95978e-05
7.2876e-05
0.000118286
6.94097e-05
9.57475e-05
7.19313e-05
0.00011738
7.00218e-05
7.37739e-05
4.95904e-05
7.30527e-05
4.95937e-05
7.34147e-05
9.53e-05
7.08385e-05
0.000115656
7.02955e-05
0.000116539
7.44031e-05
7.3896e-05
4.96058e-05
4.96032e-05
7.45559e-05
7.34295e-05
9.52812e-05
0.000115658
7.08639e-05
0.000116528
7.02744e-05
7.43724e-05
7.38849e-05
4.96016e-05
4.9599e-05
7.45656e-05
6.29246e-05
6.29363e-05
8.24137e-05
6.32027e-05
6.32136e-05
2.36061e-05
2.36032e-05
2.35959e-05
2.35985e-05
8.19853e-05
6.36031e-05
6.36111e-05
6.3334e-05
6.33467e-05
2.35981e-05
2.36007e-05
7.28995e-05
0.000118275
6.94295e-05
9.57591e-05
7.19157e-05
0.000117375
6.99967e-05
7.37485e-05
4.95948e-05
7.30683e-05
4.95981e-05
7.37466e-05
4.95888e-05
7.30661e-05
4.95922e-05
7.34183e-05
9.52981e-05
0.000115653
7.08741e-05
0.000116517
7.02789e-05
7.43759e-05
7.34112e-05
9.52916e-05
0.000115652
7.08397e-05
0.000116517
7.02921e-05
7.43918e-05
7.38993e-05
4.9606e-05
4.96033e-05
7.45398e-05
7.3897e-05
4.96001e-05
4.95972e-05
7.45377e-05
2.36045e-05
2.36017e-05
2.36034e-05
2.36005e-05
8.23599e-05
6.36127e-05
6.35992e-05
6.33346e-05
6.3336e-05
2.35966e-05
2.35992e-05
2.35954e-05
2.35981e-05
2.35965e-05
2.3594e-05
2.35943e-05
2.35918e-05
6.37341e-05
6.37303e-05
8.31179e-05
6.40036e-05
6.39941e-05
2.35893e-05
2.35916e-05
2.35871e-05
2.35894e-05
8.27769e-05
6.43639e-05
6.43657e-05
6.41104e-05
6.41096e-05
7.53183e-05
4.96088e-05
7.46616e-05
4.96113e-05
7.58746e-05
7.11175e-05
0.000114842
9.40632e-05
7.4918e-05
7.16948e-05
0.000114038
7.58783e-05
7.11117e-05
0.000114841
9.40533e-05
7.49045e-05
7.1687e-05
0.000114039
7.53966e-05
4.96246e-05
4.96223e-05
7.60222e-05
7.53947e-05
4.96185e-05
4.9616e-05
7.60185e-05
7.63907e-05
9.37228e-05
7.24891e-05
0.000112466
7.19303e-05
0.000113235
7.73454e-05
7.63861e-05
9.37145e-05
7.24806e-05
0.000112466
7.19245e-05
0.000113234
7.73457e-05
6.3721e-05
6.37304e-05
8.30586e-05
6.39937e-05
6.39919e-05
2.35958e-05
2.35934e-05
2.35871e-05
2.35894e-05
8.28376e-05
6.43558e-05
6.43569e-05
6.41013e-05
6.41081e-05
2.35887e-05
2.35909e-05
7.58878e-05
7.11108e-05
0.00011485
9.4082e-05
7.49086e-05
7.16949e-05
0.000114047
7.5305e-05
4.96058e-05
7.46682e-05
4.96082e-05
7.58804e-05
0.000114834
7.11283e-05
9.4052e-05
7.49053e-05
0.000114031
7.16632e-05
7.54025e-05
4.96193e-05
4.96167e-05
7.60063e-05
7.63811e-05
9.37414e-05
7.249e-05
0.000112474
7.19229e-05
0.000113242
7.73512e-05
7.54003e-05
4.96148e-05
4.9613e-05
7.60074e-05
7.63861e-05
9.37135e-05
0.000112459
7.24586e-05
0.000113227
7.19386e-05
7.73399e-05
7.52943e-05
4.96103e-05
7.46651e-05
4.96131e-05
7.58598e-05
0.000114851
7.11117e-05
9.40669e-05
7.49177e-05
0.000114047
7.16842e-05
7.53092e-05
4.96064e-05
7.46636e-05
4.96089e-05
7.63668e-05
9.37441e-05
7.24498e-05
0.000112473
7.19435e-05
0.000113256
7.73416e-05
7.53944e-05
4.962e-05
4.96176e-05
7.59954e-05
7.63943e-05
9.37295e-05
0.000112475
7.24827e-05
0.000113244
7.19241e-05
7.73259e-05
7.53957e-05
4.96157e-05
4.96137e-05
7.60095e-05
6.37298e-05
6.37384e-05
8.30035e-05
6.39853e-05
6.39936e-05
2.35956e-05
2.35932e-05
2.35863e-05
2.35886e-05
8.28291e-05
6.43543e-05
6.43611e-05
6.41036e-05
6.41118e-05
2.35885e-05
2.35908e-05
7.58696e-05
0.000114839
7.11283e-05
9.40757e-05
7.49012e-05
0.000114041
7.16588e-05
7.5284e-05
4.96107e-05
7.46779e-05
4.96132e-05
7.52816e-05
4.96048e-05
7.46753e-05
4.96074e-05
7.63861e-05
9.37423e-05
0.000112471
7.24857e-05
0.000113233
7.19277e-05
7.73746e-05
7.63843e-05
9.37373e-05
0.00011247
7.24547e-05
0.000113231
7.19409e-05
7.73418e-05
7.54087e-05
4.96204e-05
4.9618e-05
7.59846e-05
7.54062e-05
4.96145e-05
4.9612e-05
7.59823e-05
2.35941e-05
2.35917e-05
2.3593e-05
2.35904e-05
8.31372e-05
6.43613e-05
6.43519e-05
6.41045e-05
6.41045e-05
2.3587e-05
2.35893e-05
2.35858e-05
2.35881e-05
2.3587e-05
2.35849e-05
2.35848e-05
2.35827e-05
6.44768e-05
6.44692e-05
8.42093e-05
6.47234e-05
6.47165e-05
2.35807e-05
2.35827e-05
2.35785e-05
2.35805e-05
8.40438e-05
6.50622e-05
6.50598e-05
6.48248e-05
6.48216e-05
7.66786e-05
4.9622e-05
7.60844e-05
4.96252e-05
7.87931e-05
7.2717e-05
0.000111726
9.28952e-05
7.78503e-05
7.3263e-05
0.000111002
7.879e-05
7.27119e-05
0.000111725
9.28856e-05
7.78478e-05
7.32544e-05
0.000111003
7.67393e-05
4.96371e-05
4.96349e-05
7.73093e-05
7.67365e-05
4.9631e-05
4.96286e-05
7.73043e-05
7.92897e-05
9.26818e-05
7.40095e-05
0.000109633
7.34832e-05
0.000110309
8.02493e-05
7.92928e-05
9.26736e-05
7.40037e-05
0.000109633
7.34772e-05
0.000110308
8.02089e-05
6.44665e-05
6.44702e-05
8.41268e-05
6.47093e-05
6.47114e-05
2.35863e-05
2.35842e-05
2.35784e-05
2.35804e-05
8.40022e-05
6.50538e-05
6.50509e-05
6.48162e-05
6.4817e-05
2.358e-05
2.35819e-05
7.88e-05
7.27086e-05
0.000111733
9.29136e-05
7.78458e-05
7.3267e-05
0.000111011
7.66787e-05
4.96191e-05
7.60892e-05
4.9622e-05
7.87875e-05
0.000111718
7.27248e-05
9.2885e-05
7.785e-05
0.000110996
7.32295e-05
7.6745e-05
4.96318e-05
4.96293e-05
7.72924e-05
7.92857e-05
9.27001e-05
7.4013e-05
0.000109641
7.34711e-05
0.000110316
8.02206e-05
7.67333e-05
4.96278e-05
4.96256e-05
7.73028e-05
7.92948e-05
9.26735e-05
0.000109627
7.39771e-05
0.000110301
7.34915e-05
8.02106e-05
7.6656e-05
4.96239e-05
7.6083e-05
4.96263e-05
7.87764e-05
0.000111735
7.27094e-05
9.29011e-05
7.78558e-05
0.000111013
7.32572e-05
7.66701e-05
4.96198e-05
7.60848e-05
4.96225e-05
7.92634e-05
9.27004e-05
7.39717e-05
0.00010964
7.34987e-05
0.000110327
8.02248e-05
7.67337e-05
4.96325e-05
4.96302e-05
7.72835e-05
7.92938e-05
9.26904e-05
0.000109643
7.40044e-05
0.000110318
7.3475e-05
8.02027e-05
7.67359e-05
4.96286e-05
4.96264e-05
7.72966e-05
6.44688e-05
6.44764e-05
8.41046e-05
6.47059e-05
6.47151e-05
2.35862e-05
2.3584e-05
2.35777e-05
2.35796e-05
8.40007e-05
6.50467e-05
6.50553e-05
6.48174e-05
6.48255e-05
2.35798e-05
2.35818e-05
7.88023e-05
0.000111724
7.27265e-05
9.29085e-05
7.78402e-05
0.000111007
7.32281e-05
7.66459e-05
4.96239e-05
7.60973e-05
4.96271e-05
7.66437e-05
4.96183e-05
7.60948e-05
4.9621e-05
7.92592e-05
9.26992e-05
0.00010964
7.40077e-05
0.000110308
7.34804e-05
8.02496e-05
7.9272e-05
9.26976e-05
0.000109638
7.39789e-05
0.000110308
7.34932e-05
8.02286e-05
7.67471e-05
4.96329e-05
4.96305e-05
7.72725e-05
7.67444e-05
4.96273e-05
4.96246e-05
7.72704e-05
2.35847e-05
2.35826e-05
2.35835e-05
2.35814e-05
8.42836e-05
6.50552e-05
6.50467e-05
6.48169e-05
6.48168e-05
2.35784e-05
2.35803e-05
2.35772e-05
2.35792e-05
2.35785e-05
2.35767e-05
2.35763e-05
2.35745e-05
6.51613e-05
6.51558e-05
8.57186e-05
6.5391e-05
6.53859e-05
2.3573e-05
2.35746e-05
2.35708e-05
2.35724e-05
8.54725e-05
6.57061e-05
6.57021e-05
6.54862e-05
6.54814e-05
7.78966e-05
4.96339e-05