/*--------------------------------*- C++ -*----------------------------------*\
| =========                 |                                                 |
| \\      /  F ield         | OpenFOAM: The Open Source CFD Toolbox           |
|  \\    /   O peration     | Version:  2312                                  |
|   \\  /    A nd           | Website:  www.openfoam.com                      |
|    \\/     M anipulation  |                                                 |
\*---------------------------------------------------------------------------*/
FoamFile
{
    version     2.0;
    format      ascii;
    arch        "LSB;label=32;scalar=64";
    class       volVectorField;
    location    "650";
    object      U;
}
// * * * * * * * * * * * * * * * * * * * * * * * * * * * * * * * * * * * * * //

dimensions      [0 1 -1 0 0 0 0];

internalField   nonuniform List<vector> 
42840
(
(5.98235e-05 5.97855e-05 0.109207)
(-8.96201e-05 5.57928e-05 0.108145)
(5.57517e-05 -8.96893e-05 0.108144)
(-0.000142296 -0.000142283 0.106657)
(5.85666e-05 5.85335e-05 0.109495)
(-8.73794e-05 5.45646e-05 0.108304)
(5.45239e-05 -8.74044e-05 0.108303)
(-0.000138037 -0.000137997 0.106656)
(5.7314e-05 5.72928e-05 0.109774)
(-8.49951e-05 5.33042e-05 0.108444)
(5.32616e-05 -8.50095e-05 0.108444)
(-0.000133365 -0.00013336 0.106632)
(5.60025e-05 5.59857e-05 0.110044)
(-8.2457e-05 5.19877e-05 0.108566)
(5.19413e-05 -8.24629e-05 0.108566)
(-0.000128533 -0.000128554 0.106589)
(5.46382e-05 5.46223e-05 0.110303)
(-7.97869e-05 5.0574e-05 0.108669)
(5.05171e-05 -7.9794e-05 0.108669)
(-0.000123402 -0.000123473 0.106528)
(5.32253e-05 5.32052e-05 0.110553)
(-7.69565e-05 4.90254e-05 0.108754)
(4.89878e-05 -7.69598e-05 0.108754)
(-0.000118214 -0.000118279 0.106454)
(5.17845e-05 5.17731e-05 0.110792)
(-7.3999e-05 4.73156e-05 0.108822)
(4.72843e-05 -7.39884e-05 0.108821)
(-0.000112916 -0.000112969 0.106368)
(5.03265e-05 5.03153e-05 0.111021)
(-7.09201e-05 4.55095e-05 0.108873)
(4.54814e-05 -7.08842e-05 0.108872)
(-0.000107634 -0.000107654 0.106274)
(4.88494e-05 4.88504e-05 0.111238)
(-6.7743e-05 4.35831e-05 0.108908)
(4.35623e-05 -6.77016e-05 0.108907)
(-0.000102473 -0.000102474 0.106175)
(4.73669e-05 4.73555e-05 0.111445)
(-6.44972e-05 4.15751e-05 0.108928)
(4.15602e-05 -6.44466e-05 0.108927)
(-9.73663e-05 -9.73648e-05 0.106073)
(4.58851e-05 4.58678e-05 0.11164)
(-6.12048e-05 3.9484e-05 0.108935)
(3.94871e-05 -6.1158e-05 0.108935)
(-9.23851e-05 -9.23912e-05 0.105969)
(4.44236e-05 4.43994e-05 0.111823)
(-5.79061e-05 3.73237e-05 0.10893)
(3.73392e-05 -5.78633e-05 0.10893)
(-8.76684e-05 -8.7701e-05 0.105865)
(4.2961e-05 4.29312e-05 0.111993)
(-5.46027e-05 3.51043e-05 0.108915)
(3.51269e-05 -5.45738e-05 0.108914)
(-8.31343e-05 -8.32007e-05 0.105763)
(4.1513e-05 4.14768e-05 0.112152)
(-5.13358e-05 3.28593e-05 0.10889)
(3.28785e-05 -5.13105e-05 0.108889)
(-7.88261e-05 -7.89081e-05 0.105663)
(4.00545e-05 4.00239e-05 0.112299)
(-4.81048e-05 3.06034e-05 0.108857)
(3.06247e-05 -4.80874e-05 0.108856)
(-7.48031e-05 -7.48886e-05 0.105565)
(3.8569e-05 3.85557e-05 0.112433)
(-4.49328e-05 2.8369e-05 0.108817)
(2.83785e-05 -4.49044e-05 0.108816)
(-7.10079e-05 -7.10759e-05 0.105471)
(3.70712e-05 3.70784e-05 0.112554)
(-4.18114e-05 2.61514e-05 0.108772)
(2.61645e-05 -4.17819e-05 0.108771)
(-6.74291e-05 -6.74655e-05 0.10538)
(3.555e-05 3.55744e-05 0.112664)
(-3.87516e-05 2.40015e-05 0.108722)
(2.39996e-05 -3.87153e-05 0.108721)
(-6.40756e-05 -6.40894e-05 0.105293)
(3.40028e-05 3.40489e-05 0.112761)
(-3.57588e-05 2.19152e-05 0.108669)
(2.19099e-05 -3.57252e-05 0.108668)
(-6.09269e-05 -6.09375e-05 0.10521)
(3.24241e-05 3.24785e-05 0.112847)
(-3.28387e-05 1.99027e-05 0.108613)
(1.99015e-05 -3.28002e-05 0.108612)
(-5.79738e-05 -5.79695e-05 0.10513)
(3.08169e-05 3.08733e-05 0.112922)
(-2.99968e-05 1.79839e-05 0.108556)
(1.79742e-05 -2.99617e-05 0.108555)
(-5.51997e-05 -5.52038e-05 0.105054)
(2.9177e-05 2.92252e-05 0.112985)
(-2.72467e-05 1.61468e-05 0.108498)
(1.61452e-05 -2.72034e-05 0.108497)
(-5.26363e-05 -5.26456e-05 0.104982)
(2.75037e-05 2.75481e-05 0.113038)
(-2.45751e-05 1.44071e-05 0.10844)
(1.4416e-05 -2.45375e-05 0.108439)
(-5.0218e-05 -5.02314e-05 0.104913)
(2.57944e-05 2.58339e-05 0.113081)
(-2.20037e-05 1.27826e-05 0.108382)
(1.27865e-05 -2.19749e-05 0.108381)
(-4.80176e-05 -4.80335e-05 0.104849)
(2.40516e-05 2.40871e-05 0.113115)
(-1.95324e-05 1.12485e-05 0.108325)
(1.12548e-05 -1.94984e-05 0.108324)
(-4.5946e-05 -4.59626e-05 0.104788)
(0.000142312 0.00014224 0.106657)
(4.36806e-06 4.38253e-06 0.106843)
(5.5984e-05 8.97477e-05 0.108144)
(-5.59692e-05 8.97423e-05 0.108144)
(5.50607e-05 8.80448e-05 0.108265)
(-5.50628e-05 8.80325e-05 0.108265)
(-0.000142279 0.000142259 0.106657)
(-4.34584e-06 4.39067e-06 0.106843)
(8.97576e-05 5.58332e-05 0.108144)
(8.97078e-05 -5.59344e-05 0.108144)
(8.80428e-05 5.49058e-05 0.108265)
(8.80083e-05 -5.50195e-05 0.108265)
(-8.95261e-05 -5.58699e-05 0.108144)
(-8.79452e-05 5.48837e-05 0.108266)
(-8.78473e-05 -5.49534e-05 0.108265)
(0.000142261 -0.000142287 0.106657)
(4.36553e-06 -4.25952e-06 0.106842)
(-5.58059e-05 -8.97364e-05 0.108144)
(5.48391e-05 -8.79805e-05 0.108265)
(-5.49031e-05 -8.8034e-05 0.108265)
(-4.42297e-06 -4.30705e-06 0.106841)
(0.000138016 0.000137951 0.106656)
(1.79819e-06 1.82309e-06 0.106831)
(5.47402e-05 8.74689e-05 0.108303)
(-5.47491e-05 8.74578e-05 0.108303)
(5.37959e-05 8.571e-05 0.10841)
(-5.37891e-05 8.56783e-05 0.10841)
(-0.000137988 0.000137962 0.106656)
(-1.78368e-06 1.85239e-06 0.106831)
(8.74633e-05 5.45838e-05 0.108303)
(8.74297e-05 -5.47055e-05 0.108303)
(8.56906e-05 5.36472e-05 0.10841)
(8.56446e-05 -5.37723e-05 0.10841)
(-8.72788e-05 -5.46403e-05 0.108303)
(-8.5606e-05 5.36234e-05 0.108411)
(-8.5501e-05 -5.36909e-05 0.10841)
(0.000137967 -0.00013801 0.106656)
(1.85567e-06 -1.71601e-06 0.106831)
(-5.45972e-05 -8.74568e-05 0.108303)
(5.35774e-05 -8.56196e-05 0.108411)
(-5.36368e-05 -8.56686e-05 0.10841)
(-1.86453e-06 -1.78064e-06 0.10683)
(0.000133375 0.000133329 0.106632)
(-6.64248e-07 -6.34027e-07 0.106798)
(5.34764e-05 8.50968e-05 0.108443)
(-5.34724e-05 8.5068e-05 0.108443)
(5.24937e-05 8.31982e-05 0.108536)
(-5.24842e-05 8.3166e-05 0.108536)
(-0.000133341 0.000133344 0.106633)
(7.0446e-07 -6.27308e-07 0.106798)
(8.50742e-05 5.33304e-05 0.108444)
(8.50317e-05 -5.34608e-05 0.108443)
(8.31608e-05 5.23565e-05 0.108537)
(8.31188e-05 -5.24856e-05 0.108536)
(-8.48924e-05 -5.33773e-05 0.108443)
(-8.30989e-05 5.23326e-05 0.108537)
(-8.29979e-05 -5.2397e-05 0.108536)
(0.000133372 -0.000133384 0.106633)
(-6.20261e-07 7.22944e-07 0.106797)
(-5.33228e-05 -8.50613e-05 0.108443)
(5.22763e-05 -8.31048e-05 0.108537)
(-5.23305e-05 -8.31569e-05 0.108536)
(6.29507e-07 6.81947e-07 0.106796)
(0.000128515 0.000128478 0.106589)
(-3.1374e-06 -3.11605e-06 0.106746)
(5.21538e-05 8.25528e-05 0.108565)
(-5.21417e-05 8.25177e-05 0.108564)
(5.10965e-05 8.05651e-05 0.108644)
(-5.10742e-05 8.05234e-05 0.108643)
(-0.000128484 0.000128502 0.106589)
(3.19478e-06 -3.10816e-06 0.106745)
(8.25135e-05 5.20205e-05 0.108565)
(8.2461e-05 -5.21502e-05 0.108564)
(8.05137e-05 5.09671e-05 0.108644)
(8.04583e-05 -5.10919e-05 0.108643)
(-8.23555e-05 -5.20638e-05 0.108564)
(-8.04684e-05 5.09419e-05 0.108645)
(-8.03729e-05 -5.10259e-05 0.108643)
(0.000128513 -0.000128547 0.106589)
(-3.13478e-06 3.2223e-06 0.106745)
(-5.19925e-05 -8.25036e-05 0.108565)
(5.08779e-05 -8.04709e-05 0.108645)
(-5.09396e-05 -8.05121e-05 0.108644)
(3.16245e-06 3.15774e-06 0.106744)
(0.000123446 0.000123403 0.106528)
(-5.67866e-06 -5.64673e-06 0.106677)
(5.07345e-05 7.98817e-05 0.108668)
(-5.07125e-05 7.98384e-05 0.108667)
(4.95985e-05 7.7769e-05 0.108733)
(-4.95763e-05 7.7717e-05 0.108733)
(-0.0001234 0.000123429 0.106529)
(5.72551e-06 -5.62943e-06 0.106677)
(7.9828e-05 5.06007e-05 0.108668)
(7.97744e-05 -5.0729e-05 0.108667)
(7.77123e-05 4.9455e-05 0.108734)
(7.76554e-05 -4.95915e-05 0.108733)
(-7.96916e-05 -5.06726e-05 0.108667)
(-7.76742e-05 4.9435e-05 0.108734)
(-7.75805e-05 -4.95379e-05 0.108733)
(0.00012343 -0.000123468 0.106529)
(-5.63368e-06 5.72958e-06 0.106677)
(-5.05803e-05 -7.98322e-05 0.108668)
(4.93899e-05 -7.76776e-05 0.108734)
(-4.94321e-05 -7.77214e-05 0.108733)
(5.6523e-06 5.65125e-06 0.106676)
(0.000118243 0.000118196 0.106454)
(-8.24132e-06 -8.2154e-06 0.106596)
(4.91926e-05 7.70441e-05 0.108753)
(-4.91718e-05 7.69935e-05 0.108752)
(4.79232e-05 7.48263e-05 0.108805)
(-4.78983e-05 7.47719e-05 0.108804)
(-0.000118202 0.000118228 0.106454)
(8.26584e-06 -8.21175e-06 0.106596)
(7.69874e-05 4.90461e-05 0.108753)
(7.69316e-05 -4.91968e-05 0.108752)
(7.4781e-05 4.77888e-05 0.108806)
(7.47173e-05 -4.7921e-05 0.108804)
(-7.68623e-05 -4.91352e-05 0.108752)
(-7.47496e-05 4.77529e-05 0.108806)
(-7.46546e-05 -4.78529e-05 0.108805)
(0.000118223 -0.000118264 0.106454)
(-8.18277e-06 8.28106e-06 0.106595)
(-4.90299e-05 -7.70039e-05 0.108753)
(4.77178e-05 -7.47402e-05 0.108806)
(-4.77546e-05 -7.47831e-05 0.108805)
(8.22808e-06 8.23081e-06 0.106594)
(0.000112917 0.000112881 0.106368)
(-1.07738e-05 -1.07458e-05 0.106505)
(4.74853e-05 7.40687e-05 0.10882)
(-4.74764e-05 7.40176e-05 0.10882)
(4.6117e-05 7.17552e-05 0.10886)
(-4.61283e-05 7.17033e-05 0.108859)
(-0.000112896 0.000112887 0.106369)
(1.07543e-05 -1.07379e-05 0.106505)
(7.40208e-05 4.7353e-05 0.108821)
(7.39643e-05 -4.74805e-05 0.10882)
(7.17033e-05 4.59986e-05 0.108861)
(7.16554e-05 -4.61225e-05 0.108859)
(-7.39071e-05 -4.74241e-05 0.10882)
(-7.16958e-05 4.59746e-05 0.108861)
(-7.16053e-05 -4.60641e-05 0.108859)
(0.000112914 -0.000112937 0.106368)
(-1.07108e-05 1.08184e-05 0.106505)
(-4.7326e-05 -7.4029e-05 0.10882)
(4.59365e-05 -7.16648e-05 0.108861)
(-4.59941e-05 -7.17087e-05 0.10886)
(1.07518e-05 1.0784e-05 0.106504)
(0.000107609 0.00010758 0.106275)
(-1.32426e-05 -1.32057e-05 0.106407)
(4.56592e-05 7.09747e-05 0.108871)
(-4.56713e-05 7.09193e-05 0.10887)
(4.42203e-05 6.8591e-05 0.108899)
(-4.42436e-05 6.85341e-05 0.108898)
(-0.000107624 0.00010758 0.106275)
(1.32246e-05 -1.32254e-05 0.106407)
(7.09201e-05 4.55357e-05 0.108872)
(7.0877e-05 -4.56603e-05 0.10887)
(6.85347e-05 4.4104e-05 0.1089)
(6.84978e-05 -4.42177e-05 0.108898)
(-7.08318e-05 -4.55976e-05 0.10887)
(-6.85465e-05 4.40803e-05 0.1089)
(-6.84615e-05 -4.41588e-05 0.108898)
(0.00010762 -0.000107628 0.106275)
(-1.32171e-05 1.33005e-05 0.106407)
(-4.55343e-05 -7.09238e-05 0.108871)
(4.40546e-05 -6.85028e-05 0.1089)
(-4.40938e-05 -6.85413e-05 0.108899)
(1.32317e-05 1.32784e-05 0.106406)
(0.000102387 0.000102371 0.106175)
(-1.56783e-05 -1.56535e-05 0.106305)
(4.37288e-05 6.7791e-05 0.108906)
(-4.37504e-05 6.77277e-05 0.108905)
(4.22235e-05 6.53567e-05 0.108922)
(-4.22524e-05 6.52895e-05 0.108922)
(-0.000102418 0.00010236 0.106176)
(1.56513e-05 -1.56689e-05 0.106305)
(6.77305e-05 4.36119e-05 0.108907)
(6.76913e-05 -4.37238e-05 0.108905)
(6.52945e-05 4.21115e-05 0.108924)
(6.52643e-05 -4.22228e-05 0.108922)
(-6.76566e-05 -4.36664e-05 0.108905)
(-6.53077e-05 4.20845e-05 0.108924)
(-6.52283e-05 -4.21631e-05 0.108922)
(0.00010239 -0.000102413 0.106175)
(-1.56351e-05 1.57173e-05 0.106305)
(-4.36137e-05 -6.77337e-05 0.108906)
(4.20634e-05 -6.52619e-05 0.108924)
(-4.21183e-05 -6.52896e-05 0.108923)
(1.56367e-05 1.56901e-05 0.106304)
(9.72945e-05 9.72692e-05 0.106073)
(-1.80195e-05 -1.80033e-05 0.106201)
(4.17137e-05 6.45383e-05 0.108926)
(-4.17471e-05 6.44708e-05 0.108926)
(4.01597e-05 6.20716e-05 0.108933)
(-4.01785e-05 6.19987e-05 0.108932)
(-9.73342e-05 9.72586e-05 0.106073)
(1.80299e-05 -1.80551e-05 0.106201)
(6.44762e-05 4.1601e-05 0.108927)
(6.44443e-05 -4.17121e-05 0.108925)
(6.20189e-05 4.00439e-05 0.108934)
(6.19873e-05 -4.01593e-05 0.108932)
(-6.44102e-05 -4.1652e-05 0.108926)
(-6.2023e-05 4.00163e-05 0.108935)
(-6.19471e-05 -4.00839e-05 0.108932)
(9.7321e-05 -9.73411e-05 0.106073)
(-1.80111e-05 1.80947e-05 0.1062)
(-4.16036e-05 -6.44684e-05 0.108927)
(4.00114e-05 -6.19813e-05 0.108934)
(-4.00331e-05 -6.20018e-05 0.108933)
(1.80039e-05 1.80474e-05 0.106199)
(9.23945e-05 9.23625e-05 0.105969)
(-2.02637e-05 -2.0256e-05 0.106095)
(3.96278e-05 6.12461e-05 0.108933)
(-3.96491e-05 6.11741e-05 0.108933)
(3.80181e-05 5.87652e-05 0.108931)
(-3.80267e-05 5.8703e-05 0.10893)
(-9.23958e-05 9.2319e-05 0.105969)
(2.02779e-05 -2.02917e-05 0.106095)
(6.11933e-05 3.95085e-05 0.108934)
(6.11608e-05 -3.96232e-05 0.108932)
(5.87217e-05 3.78982e-05 0.108932)
(5.86955e-05 -3.80114e-05 0.10893)
(-6.11207e-05 -3.95526e-05 0.108933)
(-5.87241e-05 3.78758e-05 0.108932)
(-5.86371e-05 -3.7931e-05 0.10893)
(9.23957e-05 -9.24105e-05 0.105969)
(-2.0264e-05 2.03433e-05 0.106095)
(-3.95062e-05 -6.11818e-05 0.108934)
(3.78837e-05 -5.86835e-05 0.108932)
(-3.78639e-05 -5.87051e-05 0.108931)
(2.02228e-05 2.02374e-05 0.106094)
(8.76713e-05 8.76316e-05 0.105865)
(-2.23655e-05 -2.23763e-05 0.105991)
(3.74742e-05 5.79415e-05 0.108928)
(-3.74731e-05 5.78805e-05 0.108928)
(3.58117e-05 5.54646e-05 0.108917)
(-3.58158e-05 5.5412e-05 0.108917)
(-8.76837e-05 8.76232e-05 0.105866)
(2.23438e-05 -2.23538e-05 0.105991)
(5.78992e-05 3.73469e-05 0.10893)
(5.78739e-05 -3.74645e-05 0.108927)
(5.54387e-05 3.5693e-05 0.108919)
(5.54093e-05 -3.58038e-05 0.108916)
(-5.78124e-05 -3.73984e-05 0.108928)
(-5.54207e-05 3.56722e-05 0.108919)
(-5.53305e-05 -3.57345e-05 0.108917)
(8.76837e-05 -8.76987e-05 0.105865)
(-2.2362e-05 2.24372e-05 0.10599)
(-3.73271e-05 -5.78859e-05 0.108929)
(3.56836e-05 -5.53946e-05 0.108919)
(-3.56394e-05 -5.54254e-05 0.108918)
(2.23535e-05 2.23316e-05 0.105989)
(8.31763e-05 8.31226e-05 0.105763)
(-2.43264e-05 -2.43375e-05 0.105888)
(3.52565e-05 5.46459e-05 0.108913)
(-3.52495e-05 5.45884e-05 0.108912)
(3.35713e-05 5.21892e-05 0.108895)
(-3.3563e-05 5.21383e-05 0.108894)
(-8.31652e-05 8.31084e-05 0.105763)
(2.43443e-05 -2.43525e-05 0.105888)
(5.46214e-05 3.51317e-05 0.108914)
(5.45892e-05 -3.52432e-05 0.108912)
(5.21743e-05 3.34529e-05 0.108896)
(5.21392e-05 -3.35531e-05 0.108893)
(-5.45044e-05 -3.51772e-05 0.108912)
(-5.21433e-05 3.34203e-05 0.108897)
(-5.20521e-05 -3.35021e-05 0.108894)
(8.31929e-05 -8.32104e-05 0.105763)
(-2.43259e-05 2.43968e-05 0.105887)
(-3.50824e-05 -5.46123e-05 0.108913)
(3.34484e-05 -5.2124e-05 0.108896)
(-3.34046e-05 -5.21685e-05 0.108895)
(2.43372e-05 2.42963e-05 0.105886)
(7.88864e-05 7.88359e-05 0.105663)
(-2.61565e-05 -2.61528e-05 0.105787)
(3.3011e-05 5.13812e-05 0.108888)
(-3.30026e-05 5.13281e-05 0.108887)
(3.13093e-05 4.89541e-05 0.108863)
(-3.12986e-05 4.88976e-05 0.108863)
(-7.88781e-05 7.88233e-05 0.105663)
(2.61774e-05 -2.61823e-05 0.105787)
(5.13659e-05 3.28919e-05 0.108889)
(5.13258e-05 -3.29858e-05 0.108886)
(4.89453e-05 3.1202e-05 0.108865)
(4.89014e-05 -3.12857e-05 0.108862)
(-5.12435e-05 -3.29451e-05 0.108887)
(-4.89159e-05 3.11647e-05 0.108865)
(-4.88155e-05 -3.1261e-05 0.108863)
(7.89103e-05 -7.89323e-05 0.105663)
(-2.61677e-05 2.62336e-05 0.105786)
(-3.28386e-05 -5.13591e-05 0.108888)
(3.11929e-05 -4.88899e-05 0.108865)
(-3.11458e-05 -4.89301e-05 0.108864)
(2.61886e-05 2.61399e-05 0.105785)
(7.48617e-05 7.48299e-05 0.105565)
(-2.78661e-05 -2.78322e-05 0.105689)
(3.07426e-05 4.81558e-05 0.108855)
(-3.07388e-05 4.81003e-05 0.108854)
(2.90564e-05 4.57704e-05 0.108825)
(-2.90567e-05 4.57119e-05 0.108825)
(-7.48366e-05 7.47841e-05 0.105566)
(2.78488e-05 -2.78717e-05 0.105689)
(4.81449e-05 3.06413e-05 0.108856)
(4.80995e-05 -3.07135e-05 0.108853)
(4.57453e-05 2.89794e-05 0.108827)
(4.57019e-05 -2.90278e-05 0.108824)
(-4.80135e-05 -3.07031e-05 0.108854)
(-4.57366e-05 2.89191e-05 0.108827)
(-4.56228e-05 -2.90162e-05 0.108825)
(7.4898e-05 -7.49207e-05 0.105565)
(-2.78411e-05 2.78911e-05 0.105688)
(-3.05853e-05 -4.81269e-05 0.108855)
(2.89369e-05 -4.56935e-05 0.108826)
(-2.89074e-05 -4.5728e-05 0.108826)
(2.78839e-05 2.78454e-05 0.105687)
(7.1037e-05 7.10376e-05 0.105471)
(-2.94357e-05 -2.93718e-05 0.105594)
(2.84856e-05 4.49789e-05 0.108815)
(-2.85025e-05 4.49191e-05 0.108814)
(2.68088e-05 4.26318e-05 0.108781)
(-2.684e-05 4.25667e-05 0.108781)
(-7.10403e-05 7.09698e-05 0.105472)
(2.94084e-05 -2.94323e-05 0.105594)
(4.4946e-05 2.84145e-05 0.108816)
(4.49135e-05 -2.84703e-05 0.108813)
(4.25817e-05 2.67702e-05 0.108783)
(4.25596e-05 -2.68129e-05 0.10878)
(-4.48318e-05 -2.84549e-05 0.108814)
(-4.25956e-05 2.66971e-05 0.108783)
(-4.24905e-05 -2.67868e-05 0.108781)
(7.10342e-05 -7.10708e-05 0.105471)
(-2.94085e-05 2.94508e-05 0.105593)
(-2.83608e-05 -4.49358e-05 0.108815)
(2.67171e-05 -4.25583e-05 0.108782)
(-2.67098e-05 -4.25822e-05 0.108782)
(2.94246e-05 2.94159e-05 0.105592)
(6.74474e-05 6.74786e-05 0.10538)
(-3.08707e-05 -3.07908e-05 0.105502)
(2.62548e-05 4.18584e-05 0.108769)
(-2.6296e-05 4.17942e-05 0.108769)
(2.46205e-05 3.95531e-05 0.108732)
(-2.46762e-05 3.94869e-05 0.108732)
(-6.74736e-05 6.73981e-05 0.105381)
(3.08126e-05 -3.08396e-05 0.105503)
(4.17985e-05 2.62222e-05 0.108771)
(4.17812e-05 -2.62601e-05 0.108768)
(3.9483e-05 2.46054e-05 0.108734)
(3.94695e-05 -2.46237e-05 0.108731)
(-4.1717e-05 -2.62421e-05 0.108769)
(-3.95154e-05 2.45296e-05 0.108735)
(-3.94199e-05 -2.46124e-05 0.108732)
(6.74298e-05 -6.74698e-05 0.10538)
(-3.08367e-05 3.0875e-05 0.105501)
(-2.61691e-05 -4.18052e-05 0.10877)
(2.45343e-05 -3.94744e-05 0.108734)
(-2.45499e-05 -3.94811e-05 0.108733)
(3.08396e-05 3.08512e-05 0.105501)
(6.40599e-05 6.41095e-05 0.105293)
(-3.22026e-05 -3.21203e-05 0.105414)
(2.40748e-05 3.87918e-05 0.10872)
(-2.41459e-05 3.87284e-05 0.108719)
(2.24953e-05 3.65471e-05 0.10868)
(-2.25596e-05 3.64735e-05 0.10868)
(-6.40851e-05 6.39983e-05 0.105294)
(3.21283e-05 -3.21828e-05 0.105415)
(3.87157e-05 2.40669e-05 0.108721)
(3.87095e-05 -2.40911e-05 0.108718)
(3.6458e-05 2.24922e-05 0.108681)
(3.64573e-05 -2.25097e-05 0.108679)
(-3.86633e-05 -2.40715e-05 0.108719)
(-3.65021e-05 2.24282e-05 0.108682)
(-3.6418e-05 -2.24919e-05 0.10868)
(6.40803e-05 -6.41224e-05 0.105293)
(-3.21584e-05 3.21972e-05 0.105414)
(-2.40183e-05 -3.87179e-05 0.10872)
(2.24308e-05 -3.64638e-05 0.108681)
(-2.24343e-05 -3.64533e-05 0.108681)
(3.2121e-05 3.21361e-05 0.105413)
(6.08693e-05 6.09371e-05 0.10521)
(-3.33495e-05 -3.32818e-05 0.10533)
(2.19725e-05 3.58118e-05 0.108666)
(-2.20429e-05 3.574e-05 0.108666)
(2.04573e-05 3.36066e-05 0.108625)
(-2.05288e-05 3.3552e-05 0.108625)
(-6.09939e-05 6.08802e-05 0.10521)
(3.33155e-05 -3.33529e-05 0.105331)
(3.57106e-05 2.19761e-05 0.108668)
(3.57172e-05 -2.19917e-05 0.108665)
(3.35172e-05 2.04609e-05 0.108627)
(3.35213e-05 -2.04705e-05 0.108624)
(-3.56724e-05 -2.19751e-05 0.108666)
(-3.35615e-05 2.03962e-05 0.108627)
(-3.34782e-05 -2.04339e-05 0.108625)
(6.0923e-05 -6.09615e-05 0.105209)
(-3.33446e-05 3.33785e-05 0.10533)
(-2.19245e-05 -3.57065e-05 0.108667)
(2.03975e-05 -3.35224e-05 0.108626)
(-2.04066e-05 -3.3505e-05 0.108626)
(3.3294e-05 3.33231e-05 0.105329)
(5.79489e-05 5.80094e-05 0.10513)
(-3.44631e-05 -3.44062e-05 0.10525)
(1.99573e-05 3.28814e-05 0.108611)
(-2.00366e-05 3.28327e-05 0.108611)
(1.85065e-05 3.07416e-05 0.108568)
(-1.85811e-05 3.07022e-05 0.108568)
(-5.80151e-05 5.79194e-05 0.10513)
(3.43958e-05 -3.4434e-05 0.105251)
(3.27938e-05 1.99642e-05 0.108612)
(3.27974e-05 -1.99751e-05 0.10861)
(3.06617e-05 1.85101e-05 0.10857)
(3.06641e-05 -1.85229e-05 0.108567)
(-3.27618e-05 -1.99369e-05 0.10861)
(-3.07045e-05 1.84564e-05 0.108571)
(-3.06322e-05 -1.8494e-05 0.108568)
(5.79552e-05 -5.79958e-05 0.10513)
(-3.44388e-05 3.44739e-05 0.105249)
(-1.99121e-05 -3.27839e-05 0.108612)
(1.8451e-05 -3.06614e-05 0.108569)
(-1.84544e-05 -3.06449e-05 0.108569)
(3.44008e-05 3.44199e-05 0.105249)
(5.52016e-05 5.52516e-05 0.105054)
(-3.54312e-05 -3.53923e-05 0.105174)
(1.80344e-05 3.00374e-05 0.108554)
(-1.81088e-05 3.00004e-05 0.108553)
(1.66539e-05 2.79598e-05 0.10851)
(-1.67303e-05 2.79416e-05 0.10851)
(-5.52667e-05 5.51754e-05 0.105054)
(3.53718e-05 -3.5418e-05 0.105174)
(2.99572e-05 1.80359e-05 0.108555)
(2.99638e-05 -1.80467e-05 0.108552)
(2.78853e-05 1.66472e-05 0.108512)
(2.78928e-05 -1.66544e-05 0.108509)
(-2.99315e-05 -1.80146e-05 0.108553)
(-2.79341e-05 1.66009e-05 0.108513)
(-2.78617e-05 -1.66325e-05 0.10851)
(5.52176e-05 -5.52568e-05 0.105054)
(-3.53782e-05 3.54139e-05 0.105173)
(-1.79803e-05 -2.99446e-05 0.108555)
(1.65925e-05 -2.78833e-05 0.108512)
(-1.65939e-05 -2.78682e-05 0.108511)
(3.53654e-05 3.5378e-05 0.105173)
(5.26442e-05 5.26773e-05 0.104982)
(-3.62767e-05 -3.62496e-05 0.105101)
(1.62028e-05 2.72792e-05 0.108496)
(-1.62775e-05 2.72584e-05 0.108495)
(1.48948e-05 2.52674e-05 0.108452)
(-1.49612e-05 2.52458e-05 0.108452)
(-5.27158e-05 5.26188e-05 0.104982)
(3.62344e-05 -3.62818e-05 0.105101)
(2.72086e-05 1.61884e-05 0.108497)
(2.7214e-05 -1.62055e-05 0.108494)
(2.52055e-05 1.48748e-05 0.108454)
(2.52088e-05 -1.48996e-05 0.108451)
(-2.71863e-05 -1.61906e-05 0.108495)
(-2.52368e-05 1.48346e-05 0.108454)
(-2.51802e-05 -1.48854e-05 0.108451)
(5.26467e-05 -5.26814e-05 0.104981)
(-3.62537e-05 3.62926e-05 0.1051)
(-1.61481e-05 -2.71918e-05 0.108496)
(1.48386e-05 -2.51923e-05 0.108453)
(-1.48396e-05 -2.51855e-05 0.108453)
(3.62943e-05 3.62981e-05 0.1051)
(5.02521e-05 5.02777e-05 0.104914)
(-3.70866e-05 -3.70641e-05 0.105032)
(1.44761e-05 2.46091e-05 0.108437)
(-1.45328e-05 2.45858e-05 0.108437)
(1.32454e-05 2.26722e-05 0.108394)
(-1.32978e-05 2.26463e-05 0.108393)
(-5.02967e-05 5.02004e-05 0.104914)
(3.70283e-05 -3.70724e-05 0.105032)
(2.45481e-05 1.44554e-05 0.108439)
(2.45538e-05 -1.44786e-05 0.108436)
(2.26153e-05 1.32251e-05 0.108396)
(2.26226e-05 -1.32486e-05 0.108393)
(-2.45249e-05 -1.44643e-05 0.108437)
(-2.26412e-05 1.31836e-05 0.108396)
(-2.25852e-05 -1.32307e-05 0.108393)
(5.02482e-05 -5.02791e-05 0.104913)
(-3.70458e-05 3.70741e-05 0.105031)
(-1.44186e-05 -2.45323e-05 0.108438)
(1.31894e-05 -2.26056e-05 0.108395)
(-1.31774e-05 -2.2593e-05 0.108395)
(3.70594e-05 3.70569e-05 0.105031)
(4.80101e-05 4.80331e-05 0.104849)
(-3.77708e-05 -3.77437e-05 0.104967)
(1.28432e-05 2.20374e-05 0.108379)
(-1.28957e-05 2.20117e-05 0.108379)
(1.16797e-05 2.01762e-05 0.108336)
(-1.17333e-05 2.01564e-05 0.108336)
(-4.80841e-05 4.79909e-05 0.104849)
(3.7722e-05 -3.77611e-05 0.104967)
(2.19827e-05 1.28279e-05 0.108381)
(2.19926e-05 -1.28461e-05 0.108378)
(2.01199e-05 1.16696e-05 0.108338)
(2.01284e-05 -1.16828e-05 0.108335)
(-2.19505e-05 -1.28263e-05 0.108379)
(-2.01493e-05 1.1627e-05 0.108339)
(-2.0095e-05 -1.16816e-05 0.108336)
(4.80137e-05 -4.80538e-05 0.104848)
(-3.77525e-05 3.77801e-05 0.104966)
(-1.27776e-05 -2.19599e-05 0.10838)
(1.16336e-05 -2.01086e-05 0.108338)
(-1.16291e-05 -2.01048e-05 0.108337)
(3.77689e-05 3.77637e-05 0.104966)
(4.59501e-05 4.59791e-05 0.104788)
(1.13103e-05 1.95698e-05 0.108322)
(-1.13583e-05 1.95442e-05 0.108322)
(-4.59993e-05 4.59133e-05 0.104788)
(1.95092e-05 1.1294e-05 0.108324)
(1.952e-05 -1.131e-05 0.108321)
(-1.94843e-05 -1.13019e-05 0.108322)
(4.59416e-05 -4.59794e-05 0.104787)
(-1.12543e-05 -1.94926e-05 0.108323)
(8.6939e-07 6.99119e-06 0.0937511)
(-1.2447e-06 3.06907e-05 0.0833541)
(-3.98848e-06 -6.02659e-06 0.0833634)
(1.55817e-06 5.28679e-05 0.0937676)
(-3.47726e-06 1.42367e-05 0.0720083)
(5.42052e-06 -5.73561e-06 0.072049)
(6.97003e-06 8.57488e-07 0.0937512)
(3.0714e-05 -1.27535e-06 0.0833541)
(-6.02723e-06 -3.99503e-06 0.0833635)
(5.28478e-05 1.53346e-06 0.0937676)
(-5.97951e-05 5.97912e-05 0.109207)
(5.97703e-05 -5.98175e-05 0.109207)
(-5.97859e-05 -5.98203e-05 0.109207)
(5.88773e-05 5.88429e-05 0.109424)
(-5.88671e-05 5.88529e-05 0.109424)
(5.88226e-05 -5.88732e-05 0.109424)
(-5.88571e-05 -5.88729e-05 0.109424)
(-4.2768e-05 2.9402e-06 0.102218)
(-6.06434e-05 2.42199e-05 0.0954238)
(-0.000100173 1.95189e-05 0.108864)
(-8.90626e-05 5.54995e-05 0.108186)
(-1.7944e-05 -1.49761e-06 0.0954475)
(-9.97769e-05 1.93882e-05 0.108926)
(-0.00010376 4.76693e-06 0.102196)
(1.42107e-05 -3.51055e-06 0.0720088)
(-5.7108e-06 5.43074e-06 0.0720487)
(2.8833e-06 -4.27586e-05 0.102217)
(1.95475e-05 -0.000100238 0.108863)
(2.42746e-05 -6.06502e-05 0.0954249)
(5.54489e-05 -8.91216e-05 0.108186)
(1.9409e-05 -9.98446e-05 0.108926)
(-1.42589e-06 -1.78622e-05 0.0954457)
(4.82711e-06 -0.000103839 0.102196)
(-2.98579e-05 -1.62706e-05 0.0891387)
(-1.63307e-05 -2.97915e-05 0.089138)
(-5.74086e-06 -5.63511e-06 0.106838)
(-8.90771e-06 3.67511e-06 0.0891498)
(3.58016e-06 -8.83719e-06 0.0891469)
(6.08122e-07 4.22626e-06 0.0934791)
(-1.11822e-06 2.89232e-05 0.0831547)
(1.28722e-06 4.86864e-05 0.093488)
(-3.82951e-06 -6.76831e-06 0.0831694)
(-3.44136e-06 1.36705e-05 0.0718717)
(5.2186e-06 -5.71706e-06 0.0719152)
(4.24771e-06 6.09727e-07 0.0934792)
(2.89166e-05 -1.12182e-06 0.0831546)
(4.86693e-05 1.28035e-06 0.0934879)
(-6.78972e-06 -3.81877e-06 0.0831694)
(-5.85569e-05 5.85418e-05 0.109495)
(5.85131e-05 -5.85601e-05 0.109495)
(-5.85485e-05 -5.856e-05 0.109495)
(5.76299e-05 5.76068e-05 0.109705)
(-5.76202e-05 5.7613e-05 0.109705)
(5.75791e-05 -5.76243e-05 0.109705)
(-5.76078e-05 -5.76294e-05 0.109705)
(-3.66299e-05 2.26137e-06 0.101946)
(-5.68139e-05 2.24587e-05 0.0951546)
(-9.86213e-05 1.89942e-05 0.109108)
(-8.67982e-05 5.42517e-05 0.108341)
(-9.68016e-05 4.01455e-06 0.101925)
(-1.46416e-05 -2.32534e-06 0.0951817)
(-9.82156e-05 1.88607e-05 0.109166)
(1.36183e-05 -3.50379e-06 0.0718721)
(-5.71644e-06 5.20922e-06 0.0719148)
(2.24334e-06 -3.66664e-05 0.101944)
(1.90128e-05 -9.86633e-05 0.109107)
(2.25041e-05 -5.68563e-05 0.0951558)
(5.42051e-05 -8.68175e-05 0.10834)
(4.11635e-06 -9.68647e-05 0.101925)
(1.88804e-05 -9.82539e-05 0.109166)
(-2.26867e-06 -1.46199e-05 0.0951801)
(-2.79204e-05 -1.53869e-05 0.0889097)
(-1.53933e-05 -2.78809e-05 0.0889091)
(-3.14011e-06 -3.03007e-06 0.106839)
(-7.15209e-06 3.99567e-06 0.0889259)
(4.0034e-06 -7.12059e-06 0.0889231)
(4.09272e-07 2.23365e-06 0.0932333)
(-1.02272e-06 2.74802e-05 0.0829745)
(1.06296e-06 4.52626e-05 0.0932355)
(-3.75004e-06 -7.23227e-06 0.0829939)
(-3.4493e-06 1.32073e-05 0.0717477)
(5.01557e-06 -5.70064e-06 0.0717935)
(2.24673e-06 3.90786e-07 0.0932334)
(2.747e-05 -1.01553e-06 0.0829744)
(4.52697e-05 1.04684e-06 0.0932355)
(-7.24459e-06 -3.74384e-06 0.0829939)
(-5.73031e-05 5.72959e-05 0.109774)
(5.72636e-05 -5.73092e-05 0.109774)
(-5.72959e-05 -5.73158e-05 0.109774)
(5.63335e-05 5.63156e-05 0.109977)
(-5.63223e-05 5.63177e-05 0.109977)
(5.62836e-05 -5.63312e-05 0.109977)
(-5.63136e-05 -5.63374e-05 0.109977)
(-3.07238e-05 1.86041e-06 0.101679)
(-5.3338e-05 2.08713e-05 0.0949055)
(-9.70314e-05 1.84776e-05 0.109338)
(-8.43655e-05 5.29845e-05 0.108476)
(-9.00394e-05 3.45961e-06 0.101657)
(-1.17482e-05 -2.96805e-06 0.094936)
(-9.66007e-05 1.83459e-05 0.109393)
(1.31473e-05 -3.53783e-06 0.0717481)
(-5.69517e-06 5.01504e-06 0.0717931)
(1.86195e-06 -3.07624e-05 0.101677)
(1.84893e-05 -9.70507e-05 0.109338)
(2.09191e-05 -5.33964e-05 0.0949067)
(5.29326e-05 -8.43859e-05 0.108476)
(3.5893e-06 -9.01119e-05 0.101657)
(1.83586e-05 -9.66348e-05 0.109393)
(-2.96526e-06 -1.17268e-05 0.0949342)
(-2.61013e-05 -1.46145e-05 0.0887014)
(-1.45783e-05 -2.61229e-05 0.0887008)
(-6.12094e-07 -5.44236e-07 0.106816)
(-5.52495e-06 4.25085e-06 0.088722)
(4.32438e-06 -5.53827e-06 0.0887192)
(2.00308e-07 6.65321e-07 0.0930107)
(-1.0633e-06 2.62533e-05 0.0828115)
(8.39672e-07 4.24357e-05 0.0930072)
(-3.79918e-06 -7.32008e-06 0.082835)
(-3.4935e-06 1.27524e-05 0.0716353)
(4.87667e-06 -5.64627e-06 0.0716831)
(6.76904e-07 1.6522e-07 0.0930109)
(2.62534e-05 -1.06451e-06 0.0828115)
(4.24444e-05 8.10405e-07 0.0930073)
(-7.32481e-06 -3.80623e-06 0.0828351)
(-5.5992e-05 5.5986e-05 0.110044)
(5.595e-05 -5.60011e-05 0.110044)
(-5.59866e-05 -5.60121e-05 0.110043)
(5.49827e-05 5.49677e-05 0.110239)
(-5.4969e-05 5.49716e-05 0.110239)
(5.4932e-05 -5.49872e-05 0.110239)
(-5.49651e-05 -5.50089e-05 0.110239)
(-2.54e-05 1.49974e-06 0.101421)
(-5.02781e-05 1.94771e-05 0.0946756)
(-9.52651e-05 1.79622e-05 0.109554)
(-8.18032e-05 5.16463e-05 0.108593)
(-8.36787e-05 3.02097e-06 0.101398)
(-9.19417e-06 -3.46121e-06 0.0947091)
(-9.47828e-05 1.78339e-05 0.109606)
(1.27214e-05 -3.54715e-06 0.0716356)
(-5.6228e-06 4.90705e-06 0.0716826)
(1.50307e-06 -2.54351e-05 0.101419)
(1.79784e-05 -9.52944e-05 0.109554)
(1.94833e-05 -5.03487e-05 0.0946766)
(5.15905e-05 -8.18052e-05 0.108593)
(3.18155e-06 -8.37515e-05 0.101398)
(1.78514e-05 -9.48211e-05 0.109606)
(-3.45675e-06 -9.1822e-06 0.0947072)
(-2.44365e-05 -1.38851e-05 0.0885118)
(-1.38031e-05 -2.4476e-05 0.0885112)
(1.89802e-06 1.92108e-06 0.106772)
(-4.09869e-06 4.37017e-06 0.0885363)
(4.50821e-06 -4.15086e-06 0.0885335)
(-2.30031e-08 -6.34698e-07 0.0928086)
(-1.13236e-06 2.53225e-05 0.082664)
(6.16941e-07 3.99934e-05 0.0928003)
(-3.85998e-06 -7.21223e-06 0.0826911)
(-3.49659e-06 1.23875e-05 0.0715332)
(4.79754e-06 -5.55527e-06 0.0715827)
(-6.18826e-07 -5.91127e-08 0.0928089)
(2.53253e-05 -1.14303e-06 0.0826641)
(4.00007e-05 5.75454e-07 0.0928004)
(-7.21382e-06 -3.86152e-06 0.0826913)
(-5.46235e-05 5.46232e-05 0.110303)
(5.45891e-05 -5.46435e-05 0.110303)
(-5.46177e-05 -5.46642e-05 0.110303)
(5.3584e-05 5.35635e-05 0.110492)
(-5.35665e-05 5.35651e-05 0.110492)
(5.35358e-05 -5.35889e-05 0.110491)
(-5.35628e-05 -5.36155e-05 0.110491)
(-2.05985e-05 1.20393e-06 0.101175)
(-4.75222e-05 1.8207e-05 0.0944636)
(-9.32704e-05 1.7448e-05 0.109756)
(-7.90908e-05 5.0213e-05 0.108692)
(-7.78139e-05 2.63883e-06 0.10115)
(-6.98474e-06 -3.93662e-06 0.0945)
(-9.27273e-05 1.7315e-05 0.109803)
(1.23542e-05 -3.52992e-06 0.0715335)
(-5.51796e-06 4.85556e-06 0.0715822)
(1.20924e-06 -2.06483e-05 0.101173)
(1.74723e-05 -9.33107e-05 0.109755)
(1.82317e-05 -4.75945e-05 0.0944644)
(5.01416e-05 -7.90982e-05 0.108692)
(2.79511e-06 -7.78969e-05 0.101149)
(1.73425e-05 -9.27769e-05 0.109803)
(-3.90622e-06 -6.97707e-06 0.0944979)
(-2.2936e-05 -1.32309e-05 0.0883392)
(-1.31477e-05 -2.2981e-05 0.0883385)
(4.41331e-06 4.39278e-06 0.106712)
(-2.8843e-06 4.47111e-06 0.088367)
(4.57731e-06 -2.92287e-06 0.0883643)
(-1.81224e-07 -1.71553e-06 0.0926247)
(-1.22538e-06 2.45119e-05 0.0825304)
(3.92251e-07 3.77965e-05 0.0926122)
(-3.94099e-06 -7.15582e-06 0.0825607)
(-3.49087e-06 1.20226e-05 0.0714406)
(4.67868e-06 -5.52197e-06 0.0714916)
(-1.7022e-06 -1.94109e-07 0.092625)
(2.45114e-05 -1.22284e-06 0.0825306)
(3.78162e-05 3.55337e-07 0.0926123)