/*--------------------------------*- C++ -*----------------------------------*\
| =========                 |                                                 |
| \\      /  F ield         | OpenFOAM: The Open Source CFD Toolbox           |
|  \\    /   O peration     | Version:  2312                                  |
|   \\  /    A nd           | Website:  www.openfoam.com                      |
|    \\/     M anipulation  |                                                 |
\*---------------------------------------------------------------------------*/
FoamFile
{
    version     2.0;
    format      ascii;
    arch        "LSB;label=32;scalar=64";
    class       volScalarField;
    location    "125";
    object      epsilon;
}
// * * * * * * * * * * * * * * * * * * * * * * * * * * * * * * * * * * * * * //

dimensions      [0 2 -3 0 0 0 0];

internalField   nonuniform List<scalar> 
43008
(
1.40478e-07
2.15897e-07
1.36696e-07
2.22338e-07
2.22349e-07
3.35382e-07
3.15561e-07
3.3053e-07
2.15929e-07
2.1597e-07
2.20571e-07
2.20612e-07
3.30552e-07
2.15902e-07
2.15971e-07
2.2054e-07
2.20615e-07
2.20526e-07
2.20584e-07
3.15601e-07
3.30573e-07
2.15931e-07
2.20535e-07
2.2057e-07
3.30601e-07
3.3532e-07
2.22387e-07
2.22429e-07
3.35336e-07
2.22355e-07
2.22431e-07
2.22399e-07
3.35359e-07
2.22385e-07
3.47036e-06
8.88245e-06
3.42041e-06
8.88835e-06
1.85212e-05
3.47048e-06
8.88359e-06
3.42047e-06
8.88948e-06
1.40482e-07
1.40484e-07
1.40486e-07
1.37564e-07
1.37568e-07
1.37571e-07
1.37573e-07
9.8905e-07
2.17297e-07
2.65941e-06
1.59348e-07
1.8532e-05
1.8522e-05
9.89112e-07
1.59798e-07
2.62995e-06
2.17305e-07
9.62004e-07
1.59354e-07
2.65948e-06
3.20647e-07
5.05672e-06
5.05854e-06
3.58708e-06
8.89592e-06
3.54487e-06
8.90138e-06
1.84979e-05
1.84887e-05
3.58719e-06
8.89714e-06
3.54494e-06
8.90261e-06
1.367e-07
1.36703e-07
1.36705e-07
1.07338e-06
2.71759e-06
1.58557e-07
2.2428e-07
1.0455e-06
2.74409e-06
1.58418e-07
1.84986e-05
1.84894e-05
1.07344e-06
1.58568e-07
2.7176e-06
2.2429e-07
1.04555e-06
1.58428e-07
2.7442e-06
5.08909e-06
5.09078e-06
3.41386e-07
5.10452e-06
5.10633e-06
1.85289e-05
1.85186e-05
1.85316e-05
1.85216e-05
5.03731e-06
5.03927e-06
3.2058e-07
5.0566e-06
5.05867e-06
1.8502e-05
1.85115e-05
1.8505e-05
1.85144e-05
3.25019e-07
5.08171e-06
5.08374e-06
5.06435e-06
5.06632e-06
3.47033e-06
8.88253e-06
3.42037e-06
8.88845e-06
9.89001e-07
2.62991e-06
1.59791e-07
2.17337e-07
9.61903e-07
2.65938e-06
1.5935e-07
9.88995e-07
2.63053e-06
1.598e-07
2.17379e-07
9.61899e-07
2.65994e-06
1.59358e-07
3.4853e-06
8.89498e-06
8.8893e-06
3.53124e-06
3.48526e-06
8.89525e-06
8.88945e-06
3.5312e-06
1.00332e-06
2.1889e-07
2.7028e-06
1.58731e-07
2.67477e-06
1.59013e-07
1.0309e-06
1.00332e-06
2.18933e-07
2.7034e-06
1.58738e-07
2.67539e-06
1.59021e-07
1.03089e-06
3.20603e-07
5.05815e-06
5.05642e-06
1.85197e-05
1.85048e-05
1.85141e-05
3.2504e-07
5.08342e-06
5.08143e-06
5.06603e-06
5.06492e-06
1.85028e-05
1.85124e-05
9.89051e-07
2.63043e-06
1.59798e-07
2.1731e-07
9.61952e-07
2.65995e-06
1.59356e-07
3.47045e-06
8.88314e-06
3.42045e-06
8.88903e-06
9.89053e-07
1.59806e-07
2.63058e-06
2.17381e-07
9.61956e-07
1.59364e-07
2.66009e-06
3.48536e-06
8.8962e-06
8.89046e-06
3.53135e-06
1.00338e-06
2.18861e-07
2.70339e-06
1.58736e-07
2.67532e-06
1.5902e-07
1.03095e-06
3.48534e-06
8.89576e-06
8.89001e-06
3.53132e-06
1.00338e-06
2.18934e-07
1.58744e-07
2.70352e-06
1.59027e-07
2.67547e-06
1.03096e-06
3.47005e-06
8.88895e-06
9.89046e-07
2.17351e-07
1.59353e-07
2.65958e-06
3.47036e-06
8.88867e-06
1.00338e-06
2.18846e-07
2.70281e-06
1.58727e-07
2.67486e-06
1.59007e-07
1.03095e-06
3.48583e-06
8.89561e-06
8.88992e-06
3.53091e-06
1.00337e-06
2.18905e-07
1.58733e-07
2.70302e-06
1.59017e-07
2.67498e-06
1.03095e-06
3.4854e-06
8.89539e-06
8.88965e-06
3.53122e-06
5.03898e-06
5.0374e-06
3.20621e-07
5.05837e-06
5.05676e-06
1.85295e-05
1.85196e-05
1.85055e-05
1.85149e-05
3.25059e-07
5.0835e-06
5.08192e-06
5.06607e-06
5.06454e-06
1.8503e-05
1.85124e-05
9.89103e-07
1.59806e-07
2.6306e-06
2.17338e-07
9.62033e-07
1.5936e-07
2.66009e-06
3.47045e-06
8.88308e-06
3.42067e-06
8.88897e-06
3.47044e-06
8.88336e-06
3.42069e-06
8.88926e-06
1.00343e-06
2.18856e-07
1.58735e-07
2.70291e-06
1.59019e-07
2.67487e-06
1.03102e-06
1.00346e-06
2.1889e-07
1.58741e-07
2.70352e-06
1.59025e-07
2.67548e-06
1.031e-06
3.48556e-06
8.89568e-06
8.88994e-06
3.53129e-06
3.48557e-06
8.89599e-06
8.89024e-06
3.53127e-06
1.85207e-05
1.85225e-05
3.25082e-07
5.08184e-06
5.08367e-06
5.06443e-06
5.06619e-06
1.85041e-05
1.85135e-05
1.85059e-05
1.85153e-05
1.84952e-05
1.84861e-05
1.84981e-05
1.84889e-05
5.08895e-06
5.09095e-06
3.41312e-07
5.1044e-06
5.10639e-06
3.58704e-06
8.89619e-06
3.54483e-06
8.90161e-06
1.07333e-06
2.71749e-06
1.58563e-07
2.2433e-07
1.04544e-06
2.74409e-06
1.58424e-07
1.07332e-06
2.71808e-06
1.5857e-07
2.24371e-07
1.04543e-06
2.74468e-06
1.58431e-07
5.09061e-06
5.08952e-06
3.41331e-07
5.10604e-06
5.10424e-06
1.84959e-05
1.84867e-05
1.07338e-06
2.71807e-06
1.58569e-07
2.24296e-07
1.0455e-06
2.74466e-06
1.5843e-07
3.58716e-06
8.8967e-06
3.54491e-06
8.90218e-06
1.07338e-06
1.58577e-07
2.71819e-06
2.24375e-07
1.0455e-06
1.58437e-07
2.7448e-06
3.58676e-06
8.89658e-06
3.5454e-06
8.90202e-06
1.07338e-06
1.58566e-07
2.71772e-06
2.2434e-07
1.04548e-06
1.58426e-07
2.7443e-06
3.58706e-06
8.89634e-06
3.54497e-06
8.90181e-06
5.09069e-06
5.08919e-06
3.41355e-07
5.10617e-06
5.10462e-06
1.84961e-05
1.84869e-05
1.07343e-06
1.58575e-07
2.71817e-06
2.24327e-07
1.04557e-06
1.58435e-07
2.74479e-06
3.58707e-06
8.89662e-06
3.54517e-06
8.90209e-06
3.58706e-06
8.89693e-06
3.54517e-06
8.90241e-06
1.84972e-05
1.8488e-05
1.8499e-05
1.84898e-05
1.21005e-05
3.45353e-06
1.06373e-05
4.33935e-06
1.06357e-05
4.32542e-06
1.21031e-05
2.25107e-05
7.17874e-06
8.88493e-06
2.25111e-05
7.1825e-06
1.21001e-05
3.43787e-06
1.06343e-05
4.30025e-06
1.20977e-05
1.06355e-05
4.31492e-06
2.25017e-05
7.18853e-06
8.88592e-06
7.18521e-06
2.25013e-05
1.85298e-05
1.85226e-05
1.21005e-05
3.45359e-06
4.33933e-06
1.06374e-05
4.32538e-06
1.06358e-05
1.21031e-05
2.25101e-05
7.17854e-06
8.88606e-06
2.25106e-05
7.18231e-06
1.21e-05
3.43799e-06
4.30022e-06
1.06345e-05
1.20976e-05
4.3149e-06
1.06356e-05
2.25011e-05
7.18837e-06
8.88705e-06
7.18501e-06
2.25007e-05
1.85306e-05
1.85234e-05
9.70733e-06
2.19836e-05
2.19831e-05
2.19852e-05
2.19846e-05
9.70823e-06
3.80483e-06
5.04322e-06
1.74962e-06
8.97138e-06
3.81193e-06
5.04505e-06
1.75136e-06
8.97616e-06
9.70498e-06
2.19942e-05
2.19936e-05
3.8182e-06
8.98088e-06
5.05121e-06
1.7744e-06
1.76469e-06
8.97437e-06
3.82733e-06
3.82496e-06
8.98564e-06
5.053e-06
1.77613e-06
1.76616e-06
8.97911e-06
3.83445e-06
1.21139e-05
3.57285e-06
1.06513e-05
4.42451e-06
1.06481e-05
4.41322e-06
1.21167e-05
2.24726e-05
7.20054e-06
8.89824e-06
2.24731e-05
7.20274e-06
1.21133e-05
3.55979e-06
1.06442e-05
4.39305e-06
1.21105e-05
1.06471e-05
4.405e-06
2.24636e-05
7.20606e-06
8.89914e-06
7.20417e-06
2.24631e-05
1.84967e-05
1.84899e-05
1.21139e-05
3.57291e-06
4.42449e-06
1.06515e-05
4.41319e-06
1.06483e-05
1.21167e-05
2.24722e-05
7.20038e-06
8.89947e-06
2.24727e-05
7.20255e-06
1.21133e-05
3.5599e-06
4.39302e-06
1.06443e-05
1.21104e-05
4.40498e-06
1.06473e-05
2.24632e-05
7.20588e-06
8.90037e-06
7.20401e-06
2.24627e-05
1.84974e-05
1.84905e-05
9.71645e-06
2.19417e-05
2.19411e-05
2.19432e-05
2.19426e-05
9.71675e-06
3.88942e-06
1.83681e-06
9.00159e-06
5.09349e-06
3.8814e-06
1.84622e-06
9.00754e-06
3.89659e-06
1.83823e-06
9.00638e-06
5.09531e-06
3.88818e-06
1.84801e-06
9.01234e-06
9.71521e-06
2.19537e-05
2.19531e-05
9.71482e-06
2.19521e-05
2.19515e-05
3.90074e-06
9.01583e-06
5.10046e-06
1.86923e-06
1.85996e-06
9.01009e-06
3.9084e-06
3.90752e-06
9.02065e-06
5.10214e-06
1.87104e-06
1.86138e-06
9.01489e-06
3.91558e-06
1.85274e-05
1.852e-05
1.85303e-05
1.8523e-05
9.70753e-06
2.19835e-05
2.1983e-05
2.19851e-05
2.19845e-05
9.70837e-06
3.80441e-06
1.73968e-06
8.96428e-06
5.04317e-06
3.79534e-06
8.97101e-06
1.74942e-06
3.81153e-06
1.74134e-06
8.96954e-06
5.04509e-06
3.80225e-06
8.97628e-06
1.75101e-06
9.70523e-06
2.19957e-05
2.19952e-05
9.70426e-06
2.19941e-05
2.19935e-05
3.81826e-06
8.98046e-06
5.05114e-06
1.77417e-06
8.97402e-06
3.82684e-06
1.76454e-06
3.8251e-06
8.98577e-06
5.05317e-06
1.77577e-06
8.97923e-06
3.834e-06
1.76619e-06
1.85032e-05
1.85102e-05
1.85062e-05
1.85132e-05
9.71114e-06
2.19746e-05
2.1974e-05
9.71048e-06
2.19728e-05
2.19725e-05
3.86111e-06
1.82251e-06
5.07695e-06
8.99849e-06
8.99234e-06
1.81294e-06
3.86913e-06
3.86809e-06
1.8241e-06
5.07893e-06
9.00386e-06
8.99771e-06
1.81465e-06
3.87631e-06
3.84842e-06
8.98334e-06
1.78894e-06
5.06947e-06
3.84015e-06
8.98964e-06
1.79855e-06
3.85558e-06
8.98862e-06
1.79061e-06
5.07149e-06
3.84702e-06
8.99496e-06
1.80013e-06
9.71295e-06
2.19621e-05
2.19619e-05
2.19636e-05
2.19635e-05
9.71346e-06
1.21006e-05
3.45348e-06
1.06372e-05
4.33925e-06
1.06356e-05
4.32521e-06
1.21032e-05
2.25105e-05
7.17689e-06
8.885e-06
2.25109e-05
7.18079e-06
1.21001e-05
3.43783e-06
1.06342e-05
4.30003e-06
1.06354e-05
1.20977e-05
4.3148e-06
2.25015e-05
7.18682e-06
8.88605e-06
7.18342e-06
2.25011e-05
1.21064e-05
1.06377e-05
4.34922e-06
3.50146e-06
1.21036e-05
1.06399e-05
4.36244e-06
2.24828e-05
8.89261e-06
7.19878e-06
2.24822e-05
7.19618e-06
2.24919e-05
7.19101e-06
8.89168e-06
2.24923e-05
7.19391e-06
1.2107e-05
3.51571e-06
1.06432e-05
4.38429e-06
1.21098e-05
1.06406e-05
4.37172e-06
1.21064e-05
1.06376e-05
4.34901e-06
3.50142e-06
1.21037e-05
1.06398e-05
4.36235e-06
2.24826e-05
8.89286e-06
7.19702e-06
7.19437e-06
2.2482e-05
2.24917e-05
7.1892e-06
8.89189e-06
2.24921e-05
7.19222e-06
1.21071e-05
3.51567e-06
1.06431e-05
4.38416e-06
1.06405e-05
4.37151e-06
1.21099e-05
9.70747e-06
2.19833e-05
2.19835e-05
2.19848e-05
2.1985e-05
9.70833e-06
3.81169e-06
5.0446e-06
8.97598e-06
1.7511e-06
3.8045e-06
5.04303e-06
1.74933e-06
8.9715e-06
9.70512e-06
2.1994e-05
2.19943e-05
3.82512e-06
8.98545e-06
5.05297e-06
1.77586e-06
8.97892e-06
1.76628e-06
3.83412e-06
3.81805e-06
8.98092e-06
5.05159e-06
1.77409e-06
1.76462e-06
8.97441e-06
3.82703e-06
1.85282e-05
1.85209e-05
1.85059e-05
1.85129e-05
9.71118e-06
2.19743e-05
2.19745e-05
9.71044e-06
2.19728e-05
2.1973e-05
3.8682e-06
1.82417e-06
5.07861e-06
9.00351e-06
1.81476e-06
8.99744e-06
3.87639e-06
3.86098e-06
1.82241e-06
5.07753e-06
8.99897e-06
8.99283e-06
1.81306e-06
3.86937e-06
3.8557e-06
8.98835e-06
1.79072e-06
5.07117e-06
1.80022e-06
3.84713e-06
8.99469e-06
3.84865e-06
8.98376e-06
1.78904e-06
5.06912e-06
3.83992e-06
8.99008e-06
1.79845e-06
9.71295e-06
2.19622e-05
2.19625e-05
2.19639e-05
2.1964e-05
9.7135e-06
1.8504e-05
1.8511e-05
1.21006e-05
3.45357e-06
1.06374e-05
4.33921e-06
1.06358e-05
4.32524e-06
1.21032e-05
2.25098e-05
7.17661e-06
8.88561e-06
2.25102e-05
7.18035e-06
1.21002e-05
3.43796e-06
1.06344e-05
4.30007e-06
1.06356e-05
1.20978e-05
4.31478e-06
2.25008e-05
7.18642e-06
8.8866e-06
7.18308e-06
2.25004e-05
1.21064e-05
4.34918e-06
1.06379e-05
3.50158e-06
1.21036e-05
4.36242e-06
1.06401e-05
2.24823e-05
8.89382e-06
7.19856e-06
2.24818e-05
7.19595e-06
2.24913e-05
7.1908e-06
8.89286e-06
2.24917e-05
7.19379e-06
1.2107e-05
3.51577e-06
4.38428e-06
1.06434e-05
1.21098e-05
4.37169e-06
1.06408e-05
1.21065e-05
1.06378e-05
4.34905e-06
3.50155e-06
1.21038e-05
1.064e-05
4.36229e-06
2.24819e-05
8.89338e-06
7.19659e-06
7.19406e-06
2.24814e-05
2.24909e-05
7.18888e-06
8.89241e-06
2.24914e-05
7.19184e-06
1.21071e-05
3.51575e-06
1.06433e-05
4.38412e-06
1.06407e-05
4.37157e-06
1.211e-05
1.21003e-05
3.45406e-06
4.33842e-06
1.06375e-05
4.3261e-06
1.06359e-05
1.21029e-05
2.25004e-05
7.18719e-06
8.88651e-06
7.18526e-06
2.25002e-05
1.21004e-05
3.45362e-06
1.06372e-05
4.33906e-06
1.06356e-05
4.32519e-06
1.21029e-05
2.25005e-05
7.18621e-06
8.88624e-06
7.18281e-06
2.25001e-05
1.21062e-05
4.3499e-06
1.0638e-05
3.50115e-06
1.21034e-05
4.36152e-06
1.06401e-05
2.24816e-05
8.89326e-06
7.19749e-06
7.19617e-06
2.24813e-05
2.24908e-05
7.19102e-06
8.89227e-06
2.2491e-05
7.19268e-06
1.21068e-05
3.51625e-06
4.38337e-06
1.06435e-05
4.3724e-06
1.06409e-05
1.21096e-05
1.21062e-05
1.06376e-05
4.349e-06
3.50145e-06
1.21035e-05
1.06398e-05
4.36215e-06
2.24817e-05
8.89301e-06
7.19641e-06
7.19377e-06
2.24812e-05
2.24907e-05
7.1886e-06
8.89205e-06
2.24911e-05
7.19164e-06
1.21068e-05
3.51582e-06
1.06431e-05
4.38401e-06
1.06405e-05
4.3715e-06
1.21097e-05
9.7071e-06
2.19827e-05
2.19828e-05
2.19842e-05
2.19844e-05
9.70793e-06
3.8117e-06
1.74125e-06
8.96909e-06
5.04489e-06
8.97582e-06
3.80227e-06
1.7514e-06
3.80461e-06
1.73968e-06
8.96427e-06
5.04329e-06
1.74947e-06
3.79506e-06
8.971e-06
9.70472e-06
2.19948e-05
2.19949e-05
2.19932e-05
9.70373e-06
2.19934e-05
3.82514e-06
8.9853e-06
5.05286e-06
1.77618e-06
8.97878e-06
1.76609e-06
3.83418e-06
3.81794e-06
8.98045e-06
5.0513e-06
1.77422e-06
1.76453e-06
8.97394e-06
3.82706e-06
1.85281e-05
1.85209e-05
1.85067e-05
1.85137e-05
9.71072e-06
2.19737e-05
2.19739e-05
9.71005e-06
2.19722e-05
2.19724e-05
3.86813e-06
1.82452e-06
5.07868e-06
9.0034e-06
1.81456e-06
8.99725e-06
3.87649e-06
3.86094e-06
1.82254e-06
5.07717e-06
8.99855e-06
8.99243e-06
1.81299e-06
3.86933e-06
3.85576e-06
8.98816e-06
1.79052e-06
5.07122e-06
1.80054e-06
3.84707e-06
8.99449e-06
3.84862e-06
8.98336e-06
1.78897e-06
5.06964e-06
3.83989e-06
8.98966e-06
1.79857e-06
9.71256e-06
2.19617e-05
2.19619e-05
2.19633e-05
2.19634e-05
9.71305e-06
1.85042e-05
1.85112e-05
1.21002e-05
3.45378e-06
4.33927e-06
1.06374e-05
4.3254e-06
1.06358e-05
1.21027e-05
2.25092e-05
7.17809e-06
8.88555e-06
7.1818e-06
2.25096e-05
1.20997e-05
3.43796e-06
4.30023e-06
1.06345e-05
4.31484e-06
1.20973e-05
1.06356e-05
2.25002e-05
7.18786e-06
8.88654e-06
7.18455e-06
2.24998e-05
1.21008e-05
3.45379e-06
4.33929e-06
1.06375e-05
4.32532e-06
1.06359e-05
1.21034e-05
2.25105e-05
7.17673e-06
8.88583e-06
2.25109e-05
7.18057e-06
1.21004e-05
3.43795e-06
4.30015e-06
1.06345e-05
1.2098e-05
4.31485e-06
1.06357e-05
2.25015e-05
7.18663e-06
8.88683e-06
7.1832e-06
2.25011e-05
1.2106e-05
4.3492e-06
1.06379e-05
3.50153e-06
1.21033e-05
4.36235e-06
1.064e-05
2.24813e-05
8.89331e-06
7.19806e-06
7.1955e-06
2.24808e-05
2.24903e-05
7.19034e-06
8.89234e-06
2.24908e-05
7.19329e-06
1.21067e-05
3.51599e-06
4.38421e-06
1.06434e-05
4.37171e-06
1.06407e-05
1.21095e-05
1.21067e-05
4.34912e-06
1.06379e-05
3.50152e-06
1.21039e-05
4.36237e-06
1.06401e-05
2.24827e-05
8.89361e-06
7.19683e-06
7.19416e-06
2.24822e-05
2.24917e-05
7.18899e-06
8.89264e-06
2.24921e-05
7.19206e-06
1.21073e-05
3.516e-06
4.38422e-06
1.06434e-05
4.37163e-06
1.06408e-05
1.21101e-05
1.85292e-05
1.8522e-05
1.8531e-05
1.85238e-05
9.71101e-06
2.19747e-05
2.19741e-05
9.71028e-06
2.19731e-05
2.19726e-05
3.8612e-06
1.8227e-06
5.07707e-06
8.99894e-06
3.86959e-06
1.81319e-06
8.9928e-06
3.86797e-06
1.82449e-06
5.07877e-06
9.00373e-06
3.87675e-06
1.8146e-06
8.99758e-06
3.84887e-06
8.98373e-06
1.78913e-06
5.06956e-06
3.84013e-06
1.79873e-06
8.99005e-06
3.85603e-06
8.98849e-06
1.79059e-06
5.0714e-06
3.84691e-06
1.80052e-06
8.99483e-06
9.71279e-06
2.19626e-05
2.19621e-05
9.71334e-06
2.19642e-05
2.19637e-05
1.85053e-05
1.85123e-05
1.85071e-05
1.85141e-05
1.84941e-05
1.84872e-05
1.84969e-05
1.849e-05
9.7166e-06
2.19413e-05
2.19412e-05
2.19427e-05
2.19426e-05
9.71689e-06
3.88897e-06
1.83653e-06
9.00115e-06
5.09335e-06
3.88129e-06
9.00709e-06
1.84606e-06
3.89616e-06
1.83829e-06
9.00652e-06
5.09537e-06
3.8883e-06
9.01247e-06
1.84762e-06
9.71538e-06
2.19531e-05
2.1953e-05
9.71497e-06
2.19515e-05
2.19514e-05
3.90063e-06
9.0154e-06
5.10029e-06
1.8691e-06
9.00965e-06
3.90795e-06
1.85965e-06
3.90765e-06
9.02079e-06
5.1023e-06
1.87065e-06
9.01503e-06
3.91515e-06
1.86144e-06
1.2114e-05
3.57281e-06
1.06512e-05
4.42437e-06
1.0648e-05
4.41301e-06
1.21167e-05
2.24724e-05
7.19879e-06
8.8985e-06
2.24729e-05
7.201e-06
1.21134e-05
3.55975e-06
1.06441e-05
4.39284e-06
1.0647e-05
1.21105e-05
4.40487e-06
2.24634e-05
7.20434e-06
8.89937e-06
7.20243e-06
2.24629e-05
9.7166e-06
2.19411e-05
2.19415e-05
2.19426e-05
2.1943e-05
9.71691e-06
3.89619e-06
1.8384e-06
9.00609e-06
5.09503e-06
9.01196e-06
3.88842e-06
1.84768e-06
3.8892e-06
1.83668e-06
9.00162e-06
5.09313e-06
1.84593e-06
3.88118e-06
9.00756e-06
9.71535e-06
2.19531e-05
2.19535e-05
2.19515e-05
9.71494e-06
2.19519e-05
3.90776e-06
9.02028e-06
5.10201e-06
1.87071e-06
9.01455e-06
1.86154e-06
3.91519e-06
3.90052e-06
9.01586e-06
5.10085e-06
1.86895e-06
1.85982e-06
9.01011e-06
3.90819e-06
1.84948e-05
1.84878e-05
1.2114e-05
3.57289e-06
1.06514e-05
4.42433e-06
1.06482e-05
4.4131e-06
1.21168e-05
2.24719e-05
7.19855e-06
8.89903e-06
2.24724e-05
7.2006e-06
1.21134e-05
3.55987e-06
1.06442e-05
4.39293e-06
1.06472e-05
1.21106e-05
4.40482e-06
2.24628e-05
7.20394e-06
8.89993e-06
7.20219e-06
2.24624e-05
1.21137e-05
3.57338e-06
4.4236e-06
1.06515e-05
4.41389e-06
1.06484e-05
1.21165e-05
2.24718e-05
7.20057e-06
8.89888e-06
7.20153e-06
2.2472e-05
1.21131e-05
3.55947e-06
4.39372e-06
1.06444e-05
4.40408e-06
1.21102e-05
1.06473e-05
2.24625e-05
7.20495e-06
8.8998e-06
7.20422e-06
2.24622e-05
1.21137e-05
3.57294e-06
1.06512e-05
4.42422e-06
1.0648e-05
4.413e-06
1.21165e-05
2.24716e-05
7.19821e-06
8.89866e-06
2.24721e-05
7.20041e-06
1.21131e-05
3.55977e-06
1.06441e-05
4.39283e-06
1.21103e-05
1.0647e-05
4.40471e-06
2.24626e-05
7.20375e-06
8.89956e-06
7.20186e-06
2.24621e-05
9.71621e-06
2.19407e-05
2.19409e-05
2.19422e-05
2.19424e-05
9.71645e-06
3.89633e-06
1.83818e-06
9.00606e-06
5.09514e-06
9.01201e-06
3.88835e-06
1.84804e-06
3.88917e-06
1.8366e-06
9.00122e-06
5.09358e-06
1.84607e-06
3.88115e-06
9.00715e-06
9.71492e-06
2.19527e-05
2.19529e-05
2.19511e-05
9.71458e-06
2.19513e-05
3.90769e-06
9.02032e-06
5.10206e-06
1.87106e-06
9.01456e-06
1.86134e-06
3.91532e-06
3.90048e-06
9.01545e-06
5.10057e-06
1.8691e-06
1.85974e-06
9.00972e-06
3.90815e-06
1.84949e-05
1.84881e-05
1.21135e-05
3.57317e-06
4.42441e-06
1.06514e-05
4.41322e-06
1.06482e-05
1.21163e-05
2.24713e-05
7.19994e-06
8.89895e-06
7.20205e-06
2.24718e-05
1.21129e-05
3.55982e-06
4.39304e-06
1.06443e-05
4.40491e-06
1.21101e-05
1.06472e-05
2.24622e-05
7.20539e-06
8.89985e-06
7.20357e-06
2.24617e-05
1.21142e-05
3.57317e-06
4.42443e-06
1.06515e-05
4.41313e-06
1.06483e-05
1.2117e-05
2.24726e-05
7.1986e-06
8.89926e-06
2.24731e-05
7.20083e-06
1.21136e-05
3.55981e-06
4.39296e-06
1.06444e-05
1.21107e-05
4.40492e-06
1.06473e-05
2.24636e-05
7.20417e-06
8.90016e-06
7.20224e-06
2.24631e-05
1.8496e-05
1.84891e-05
1.84978e-05
1.8491e-05
1.27844e-07
1.27841e-07
1.39452e-07
1.26443e-07
1.26441e-07
1.21106e-07
1.2264e-07
1.54926e-06
3.15981e-07
6.55826e-07
6.56089e-07
1.22473e-07
1.22471e-07
1.35876e-07
1.2122e-07
1.21218e-07
1.15277e-07
1.16692e-07
1.64815e-06
7.08599e-07
7.08895e-07
3.35892e-07
1.6408e-06
7.12454e-07
7.12744e-07
1.54912e-06
6.52098e-07
6.52359e-07
3.15919e-07
1.54127e-06
6.55745e-07
6.55998e-07
1.61636e-06
3.30065e-07
6.97886e-07
6.98169e-07
6.94093e-07
6.94373e-07
1.62383e-06
1.54914e-06
3.15943e-07
6.55754e-07
6.56015e-07
1.61639e-06
3.30083e-07
6.98188e-07
6.97907e-07
6.94392e-07
6.94109e-07
1.62387e-06
1.54917e-06
6.52395e-07
6.52145e-07
3.15959e-07
6.55784e-07
1.54132e-06
6.5604e-07
1.61641e-06
3.30104e-07
6.98216e-07
6.97938e-07
6.94405e-07
6.94133e-07
1.6239e-06
1.61652e-06
3.30126e-07
6.97994e-07
6.98278e-07
1.62401e-06
6.94184e-07
6.94476e-07
1.64798e-06
7.0849e-07
7.08791e-07
3.3582e-07
1.64063e-06
7.12339e-07
7.12633e-07
1.64802e-06
7.08805e-07
7.08521e-07
3.3584e-07
7.12365e-07
1.64067e-06
7.12657e-07
1.64805e-06
7.08824e-07
7.08545e-07
3.35863e-07
7.12396e-07
1.64069e-06
7.12681e-07
1.27845e-07
1.27842e-07
1.39456e-07
1.26444e-07
1.26441e-07
1.21107e-07
1.2264e-07
1.27847e-07
1.27844e-07
1.39459e-07
1.26446e-07
1.26443e-07
1.21107e-07
1.22641e-07
1.27846e-07
1.27845e-07
1.3946e-07
1.26445e-07
1.26444e-07
1.21107e-07
1.22641e-07
1.38482e-07
1.2376e-07
1.23758e-07
1.25084e-07
1.25081e-07
1.19606e-07
1.18135e-07
1.38487e-07
1.23761e-07
1.23758e-07
1.25085e-07
1.25081e-07
1.19606e-07
1.18135e-07
1.3849e-07
1.23763e-07
1.2376e-07
1.25087e-07
1.25084e-07
1.19607e-07
1.18136e-07
1.38491e-07
1.23763e-07
1.23761e-07
1.25086e-07
1.25085e-07
1.19607e-07
1.18136e-07
4.12499e-07
9.82564e-07
1.29405e-06
3.38754e-07
1.28698e-06
3.37718e-07
4.13612e-07
5.76761e-07
1.92336e-06
2.65266e-06
8.88666e-07
8.84043e-07
1.91639e-06
5.78668e-07
4.12507e-07
9.82615e-07
3.3878e-07
1.29414e-06
3.37738e-07
1.28701e-06
4.13629e-07
5.6849e-07
8.6782e-07
1.89253e-06
2.63693e-06
5.66623e-07
8.72418e-07
1.89968e-06
4.06643e-07
9.68432e-07
3.32672e-07
1.2638e-06
4.05578e-07
3.3365e-07
1.27094e-06
5.76762e-07
1.92347e-06
2.65271e-06
8.88706e-07
8.84064e-07
1.91642e-06
5.78686e-07
1.56679e-06
3.20245e-07
6.69668e-07
6.69941e-07
6.65968e-07
6.66228e-07
1.57455e-06
1.22475e-07
1.22471e-07
1.3588e-07
1.21222e-07
1.21218e-07
1.15277e-07
1.16692e-07
1.22476e-07
1.22473e-07
1.35883e-07
1.21223e-07
1.2122e-07
1.15278e-07
1.16693e-07
1.22476e-07
1.22474e-07
1.35885e-07
1.21223e-07
1.21221e-07
1.15278e-07
1.16693e-07
4.42694e-07
1.06674e-06
1.3859e-06
3.61787e-07
1.37899e-06
3.60498e-07
4.44016e-07
6.10619e-07
9.33688e-07
1.98603e-06
2.72374e-06
6.0856e-07
9.38434e-07
1.99265e-06
4.36049e-07
1.05212e-06
1.35616e-06
3.54426e-07
4.3478e-07
1.36312e-06
3.55652e-07
6.19595e-07
2.01497e-06
2.73814e-06
9.55272e-07
9.50501e-07
2.0085e-06
6.217e-07
4.427e-07
1.0668e-06
3.61815e-07
1.386e-06
3.60526e-07
1.37904e-06
4.4403e-07
6.10642e-07
9.33714e-07
1.98606e-06
2.72385e-06
6.08567e-07
9.3848e-07
1.99276e-06
4.36065e-07
1.05218e-06
3.54448e-07
1.3562e-06
4.34784e-07
3.55684e-07
1.36321e-06
6.19604e-07
2.01508e-06
2.73815e-06
9.55321e-07
9.50524e-07
2.00853e-06
6.21721e-07
1.66466e-06
3.40843e-07
7.27079e-07
7.27375e-07
7.23188e-07
7.2349e-07
1.67187e-06
1.56666e-06
3.20186e-07
6.69581e-07
6.69842e-07
1.57439e-06
6.65882e-07
6.66146e-07
1.5993e-06
3.2545e-07
6.79878e-07
6.8015e-07
1.59169e-06
6.83631e-07
6.839e-07
4.12492e-07
9.8251e-07
1.29407e-06
3.38736e-07
1.28699e-06
3.37702e-07
4.13598e-07
5.68539e-07
8.67869e-07
1.89265e-06
2.63683e-06
1.89973e-06
5.66694e-07
8.72455e-07
4.06614e-07
9.68325e-07
1.26378e-06
3.32639e-07
1.27087e-06
4.05562e-07
3.33607e-07
5.76832e-07
1.92351e-06
2.6526e-06
8.88731e-07
1.91654e-06
8.84098e-07
5.78734e-07
4.12501e-07
9.82506e-07
1.29405e-06
3.38736e-07
1.28694e-06
3.37703e-07
4.13604e-07
5.68581e-07
8.68312e-07
1.89242e-06
2.6374e-06
5.66736e-07
1.89955e-06
8.7289e-07
4.06617e-07
9.68321e-07
1.26373e-06
3.3264e-07
4.05567e-07
1.27086e-06
3.33607e-07
5.76879e-07
1.92333e-06
2.65326e-06
8.89187e-07
1.91631e-06
5.7878e-07
8.84558e-07
4.2083e-07
1.31014e-06
3.43017e-07
1.00987e-06
4.19671e-07
1.31718e-06
3.44114e-07
5.97804e-07
9.21759e-07
2.69639e-06
1.97005e-06
9.17043e-07
1.9633e-06
5.99811e-07
5.89156e-07
1.94009e-06
9.00492e-07
2.68136e-06
9.05171e-07
5.87204e-07
1.94695e-06
4.27096e-07
1.02431e-06
1.34021e-06
3.49746e-07
1.3332e-06
3.48585e-07
4.28311e-07
4.20839e-07
1.31009e-06
3.43018e-07
1.00986e-06
4.1968e-07
1.31716e-06
3.44115e-07
5.97859e-07
9.2224e-07
2.69698e-06
1.96988e-06
1.96308e-06
9.17513e-07
5.99865e-07
5.89207e-07
1.93987e-06
9.00956e-07
2.68195e-06
5.87254e-07
1.94678e-06
9.05641e-07
4.27108e-07
1.0243e-06
1.34019e-06
3.49747e-07
1.33314e-06
3.48587e-07
4.2832e-07
1.56671e-06
3.20208e-07
6.6986e-07
6.6959e-07
6.65902e-07
6.66172e-07
1.57442e-06
1.59934e-06
3.25472e-07
6.80173e-07
6.799e-07
6.8392e-07
1.59173e-06
6.83644e-07
4.12518e-07
9.8256e-07
1.29411e-06
3.3875e-07
1.28703e-06
3.37717e-07
4.13616e-07
5.68571e-07
8.68193e-07
1.89273e-06
2.6374e-06
1.89983e-06
5.66723e-07
8.72793e-07
4.06629e-07
9.68374e-07
1.26382e-06
3.32652e-07
1.27092e-06
4.05585e-07
3.3362e-07
5.76864e-07
1.92361e-06
2.65316e-06
8.89085e-07
1.91662e-06
8.84436e-07
5.78766e-07
4.12505e-07
9.82563e-07
3.38756e-07
1.2941e-06
3.37722e-07
1.28698e-06
4.13619e-07
5.68582e-07
8.68344e-07
1.89243e-06
2.63755e-06
5.66712e-07
1.89959e-06
8.72965e-07
4.06634e-07
9.68378e-07
3.32657e-07
1.26377e-06
4.05574e-07
3.33626e-07
1.2709e-06
5.76854e-07
1.92337e-06
2.65331e-06
8.89262e-07
1.91632e-06
5.78778e-07
8.84592e-07
4.2085e-07
1.31018e-06
3.43034e-07
1.00992e-06
4.19699e-07
1.31722e-06
3.4413e-07
5.97843e-07
9.22137e-07
2.69694e-06
1.97016e-06
9.174e-07
1.96339e-06
5.9985e-07
5.89193e-07
1.94017e-06
9.00841e-07
2.68193e-06
9.05535e-07
5.87238e-07
1.94705e-06
4.27127e-07
1.02437e-06
1.34025e-06
3.49764e-07
1.33324e-06
3.48609e-07
4.28332e-07
4.20852e-07
3.4304e-07
1.31013e-06
1.00992e-06
4.19684e-07
3.44136e-07
1.31721e-06
5.97833e-07
9.22322e-07
2.69709e-06
1.96991e-06
1.9631e-06
9.17561e-07
5.99863e-07
5.89206e-07
1.93988e-06
9.01001e-07
2.68207e-06
5.87228e-07
1.94681e-06
9.05716e-07
4.27111e-07
1.02437e-06
3.4977e-07
1.34024e-06
3.48615e-07
1.33319e-06
4.28332e-07
4.12503e-07
9.82558e-07
3.38757e-07
1.29401e-06
3.37722e-07
1.28694e-06
4.13614e-07
5.76776e-07
1.92308e-06
2.6528e-06
8.88847e-07
8.84184e-07
1.9161e-06
5.78693e-07
4.20843e-07
1.31013e-06
3.43036e-07
1.00992e-06
4.1968e-07
1.31717e-06
3.44134e-07
5.97731e-07
9.21702e-07
2.69648e-06
1.96991e-06
5.99746e-07
9.16989e-07
1.96316e-06
5.89092e-07
1.93995e-06
9.0044e-07
2.68135e-06
5.8713e-07
9.05107e-07
1.94681e-06
4.27103e-07
1.02437e-06
1.3402e-06
3.49768e-07
4.28324e-07
1.33319e-06
3.48603e-07
4.20852e-07
3.43036e-07
1.31008e-06
1.00992e-06
4.19681e-07
3.44141e-07
1.31713e-06
5.97763e-07
9.21901e-07
2.69661e-06
1.96963e-06
1.96288e-06
9.17172e-07
5.99777e-07
5.89119e-07
1.93966e-06
9.006e-07
2.68156e-06
5.87157e-07
1.94652e-06
9.05297e-07
4.27105e-07
1.02436e-06
3.49774e-07
1.34016e-06
3.48604e-07
1.33314e-06
4.2833e-07
1.56672e-06
3.20226e-07
6.69887e-07
6.69623e-07
6.65927e-07
6.66184e-07
1.57445e-06
1.59936e-06
3.25492e-07
6.8019e-07
6.79925e-07
6.83947e-07
1.59175e-06
6.83676e-07
4.12547e-07
9.8264e-07
3.38781e-07
1.29411e-06
3.37748e-07
1.28703e-06
4.13646e-07
5.68582e-07
8.68333e-07
1.89241e-06
2.63755e-06
8.72927e-07
5.66737e-07
1.89955e-06
4.06661e-07
9.68428e-07
3.32682e-07
1.26383e-06
3.33652e-07
4.05617e-07
1.27092e-06
5.76869e-07
1.92332e-06
2.65332e-06
8.89219e-07
8.84565e-07
1.91629e-06
5.78776e-07
4.2086e-07
3.43055e-07
1.31017e-06
1.00998e-06
4.19685e-07
3.44163e-07
1.31726e-06
5.97736e-07
9.21744e-07
2.69649e-06
1.97002e-06
5.99766e-07
9.17014e-07
1.9632e-06
5.89111e-07
1.93998e-06
9.00462e-07
2.68146e-06
5.87134e-07
9.0515e-07
1.94691e-06
4.2711e-07
1.02443e-06
3.49793e-07
1.34029e-06
4.28339e-07
3.48629e-07
1.33323e-06
4.2088e-07
3.43064e-07
1.31018e-06
1.00997e-06
4.1973e-07
3.44164e-07
1.31722e-06
5.97846e-07
9.22274e-07
2.69707e-06
1.96987e-06
1.96306e-06
9.17519e-07
5.99857e-07
5.89201e-07
1.93984e-06
9.00976e-07
2.68207e-06
5.87243e-07
1.94676e-06
9.05672e-07
4.27158e-07
1.02445e-06
3.49793e-07
1.34025e-06
3.48638e-07
1.33324e-06
4.28362e-07
1.59947e-06
3.25519e-07
6.79969e-07
6.80259e-07
1.59184e-06
6.8373e-07
6.84008e-07
1.6645e-06
3.40779e-07
7.26957e-07
7.27262e-07
1.6717e-06
7.23069e-07
7.23384e-07
4.42687e-07
1.06668e-06
1.38591e-06
3.61764e-07
1.379e-06
3.60479e-07
4.44001e-07
6.10685e-07
9.33737e-07
1.98616e-06
2.72373e-06
1.99278e-06
6.08633e-07
9.38491e-07
4.36036e-07
1.05206e-06
1.35616e-06
3.54408e-07
1.36313e-06
4.34771e-07
3.55631e-07
6.1967e-07
2.0151e-06
2.73803e-06
9.55335e-07
2.00862e-06
9.50542e-07
6.21764e-07
4.42701e-07
1.06667e-06
1.38588e-06
3.61764e-07
1.37894e-06
3.6048e-07
4.44013e-07
6.10749e-07
9.34209e-07
1.98594e-06
2.72433e-06
6.08685e-07
1.99263e-06
9.38997e-07
4.36047e-07
1.05206e-06
1.35611e-06
3.54409e-07
4.34784e-07
1.36311e-06
3.55632e-07
6.19722e-07
2.01494e-06
2.73861e-06
9.55846e-07
2.0084e-06
6.21828e-07
9.51036e-07
1.66453e-06
3.40794e-07
7.27284e-07
7.26988e-07
7.23109e-07
7.23396e-07
1.67174e-06
4.42721e-07
1.06674e-06
1.38595e-06
3.61782e-07
1.37904e-06
3.60503e-07
4.44026e-07
6.10727e-07
9.34112e-07
1.98626e-06
2.72432e-06
1.9929e-06
6.08673e-07
9.3888e-07
4.36059e-07
1.05212e-06
1.3562e-06
3.54431e-07
1.36317e-06
4.34803e-07
3.55648e-07
6.19713e-07
2.01522e-06
2.73861e-06
9.55723e-07
2.00872e-06
9.50933e-07
6.21809e-07
4.42703e-07
1.06674e-06
3.61788e-07
1.38593e-06
3.60509e-07
1.37902e-06
4.44025e-07
6.10742e-07
9.34269e-07
1.98601e-06
2.72445e-06
6.08664e-07
1.99265e-06
9.39066e-07
4.36059e-07
1.05212e-06
3.54437e-07
1.35618e-06
4.34786e-07
3.55655e-07
1.36316e-06
6.19705e-07
2.01497e-06
2.73873e-06
9.55912e-07
2.00847e-06
6.21825e-07
9.51092e-07
4.42694e-07
1.06672e-06
3.61794e-07
1.38585e-06
3.60499e-07
1.37894e-06
4.44019e-07
6.10656e-07
9.33876e-07
1.98574e-06
2.72395e-06
9.38641e-07
6.08594e-07
1.99236e-06
4.36055e-07
1.05212e-06
3.54426e-07
1.3561e-06
3.5566e-07
4.34778e-07
1.36308e-06
6.19634e-07
2.01468e-06
2.73827e-06
9.55483e-07
9.50696e-07
2.0082e-06
6.21738e-07
1.66455e-06
3.40818e-07
7.2731e-07
7.27023e-07
7.2313e-07
7.23418e-07
1.67177e-06
4.42753e-07
1.06681e-06
3.61814e-07
1.38594e-06
3.60535e-07
1.37904e-06
4.44056e-07
6.10733e-07
9.34226e-07
1.98592e-06
2.72444e-06
9.39014e-07
6.08677e-07
1.9926e-06
4.3609e-07
1.05217e-06
3.54457e-07
1.3562e-06
3.55684e-07
4.34834e-07
1.36317e-06
6.19717e-07
2.01492e-06
2.73872e-06
9.55857e-07
9.51047e-07
2.00838e-06
6.21814e-07
4.9917e-07
4.99974e-07
4.99974e-07
4.99867e-07
4.45574e-07
4.54107e-07
4.54107e-07
4.63745e-07
4.03788e-07
4.18744e-07
4.18746e-07
4.39534e-07
3.68405e-07
3.88705e-07
3.88708e-07
4.17793e-07
3.38054e-07
3.62209e-07
3.62212e-07
3.96187e-07
3.11679e-07
3.38348e-07
3.38352e-07
3.74663e-07
2.885e-07
3.16691e-07
3.16695e-07
3.53771e-07
2.67943e-07
2.97059e-07
2.97064e-07
3.34192e-07
2.49595e-07
2.79396e-07
2.794e-07
3.16514e-07
2.33147e-07
2.63696e-07
2.637e-07
3.01181e-07
2.18373e-07
2.49965e-07
2.49969e-07
2.88504e-07
2.05094e-07
2.38204e-07
2.38208e-07
2.787e-07
1.93172e-07
2.28411e-07
2.28416e-07
2.71876e-07
1.82494e-07
2.20597e-07
2.20601e-07
2.68159e-07
1.72973e-07
2.14768e-07
2.14773e-07
2.67638e-07
1.64535e-07
2.10934e-07
2.10939e-07
2.70489e-07
1.57114e-07
2.09105e-07
2.0911e-07
2.76696e-07
1.50658e-07
2.09294e-07
2.093e-07
2.86284e-07
1.45128e-07
2.11551e-07
2.11559e-07
2.99238e-07
2.15889e-07
3.15616e-07
5.06203e-07
5.05587e-07
5.05586e-07
5.06203e-07
5.05586e-07
5.05586e-07
5.05987e-07
5.05987e-07
5.05987e-07
5.05987e-07
5.05588e-07
5.05588e-07
5.06203e-07
5.05588e-07
5.05587e-07
5.06204e-07
4.99868e-07
4.67259e-07
4.99975e-07
4.99976e-07
4.6413e-07