/*--------------------------------*- C++ -*----------------------------------*\
| =========                 |                                                 |
| \\      /  F ield         | OpenFOAM: The Open Source CFD Toolbox           |
|  \\    /   O peration     | Version:  2312                                  |
|   \\  /    A nd           | Website:  www.openfoam.com                      |
|    \\/     M anipulation  |                                                 |
\*---------------------------------------------------------------------------*/
FoamFile
{
    version     2.0;
    format      ascii;
    arch        "LSB;label=32;scalar=64";
    class       volScalarField;
    location    "125";
    object      epsilon;
}
// * * * * * * * * * * * * * * * * * * * * * * * * * * * * * * * * * * * * * //

dimensions      [0 2 -3 0 0 0 0];

internalField   nonuniform List<scalar> 
42973
(
1.23389e-07
3.13014e-07
5.27854e-07
1.23393e-07
3.13052e-07
3.13106e-07
5.27745e-07
1.23398e-07
3.13086e-07
3.13138e-07
5.27924e-07
1.23392e-07
3.13091e-07
3.13144e-07
5.28072e-07
1.23381e-07
3.13086e-07
3.13139e-07
5.28146e-07
1.23377e-07
3.1308e-07
3.13138e-07
5.28107e-07
1.23378e-07
3.13081e-07
3.13142e-07
5.27991e-07
1.2338e-07
3.1309e-07
3.13151e-07
5.2785e-07
1.23384e-07
3.13106e-07
3.13164e-07
5.27885e-07
1.23387e-07
3.13116e-07
3.13177e-07
5.28061e-07
1.23389e-07
3.13124e-07
3.13184e-07
5.2802e-07
1.23391e-07
3.13131e-07
3.1319e-07
5.28014e-07
1.23394e-07
3.13137e-07
3.13195e-07
5.2817e-07
1.23395e-07
3.13143e-07
3.13199e-07
5.28254e-07
1.23397e-07
3.13149e-07
3.13201e-07
5.282e-07
1.23398e-07
3.13153e-07
3.13205e-07
5.2806e-07
1.234e-07
3.13158e-07
3.13209e-07
5.27942e-07
1.23401e-07
3.13161e-07
3.13213e-07
5.27961e-07
1.23402e-07
3.13164e-07
3.13215e-07
5.28096e-07
1.23403e-07
3.13167e-07
3.13217e-07
5.28197e-07
1.23404e-07
3.13167e-07
3.13218e-07
5.28142e-07
1.23405e-07
3.13167e-07
3.13218e-07
5.28065e-07
1.23405e-07
3.13168e-07
3.13217e-07
5.28108e-07
1.23405e-07
3.13168e-07
3.13216e-07
5.28139e-07
1.23405e-07
3.13167e-07
3.13214e-07
5.28125e-07
1.23404e-07
3.13166e-07
3.13212e-07
5.28043e-07
1.23404e-07
3.1317e-07
3.13213e-07
5.28105e-07
5.27719e-07
5.25989e-07
3.13137e-07
3.13199e-07
3.13164e-07
3.13226e-07
5.27723e-07
5.25979e-07
3.1307e-07
3.13099e-07
3.13257e-07
3.1317e-07
3.13042e-07
3.13198e-07
5.26011e-07
3.13132e-07
3.13097e-07
3.1316e-07
5.26108e-07
5.27618e-07
5.26239e-07
3.13173e-07
3.13236e-07
3.13203e-07
3.13265e-07
5.27614e-07
5.26229e-07
3.13108e-07
3.13265e-07
3.13138e-07
3.13292e-07
3.13208e-07
3.13081e-07
3.13237e-07
5.27665e-07
5.26245e-07
3.13169e-07
3.13133e-07
3.13198e-07
5.26345e-07
5.27822e-07
5.26324e-07
3.13207e-07
3.13269e-07
3.13212e-07
3.13273e-07
5.27811e-07
5.26323e-07
3.13142e-07
3.13297e-07
3.13146e-07
3.13304e-07
3.13242e-07
3.13091e-07
3.13247e-07
5.27818e-07
5.26396e-07
3.13203e-07
3.13144e-07
3.13207e-07
5.26447e-07
5.27969e-07
5.26267e-07
3.13209e-07
3.1327e-07
3.13207e-07
3.13269e-07
5.2796e-07
5.26282e-07
3.13143e-07
3.13301e-07
3.1314e-07
3.13299e-07
3.13244e-07
3.13089e-07
3.13243e-07
5.2801e-07
5.26373e-07
3.13204e-07
3.1314e-07
3.13202e-07
5.26421e-07
5.28016e-07
5.26142e-07
3.13203e-07
3.13265e-07
3.13201e-07
3.13261e-07
5.28021e-07
5.26155e-07
3.13137e-07
3.13296e-07
3.13135e-07
3.13296e-07
3.13239e-07
3.13082e-07
3.13237e-07
5.28092e-07
5.26254e-07
3.13199e-07
3.13137e-07
3.13198e-07
5.263e-07
5.27959e-07
5.26034e-07
3.13199e-07
3.13259e-07
3.132e-07
3.13259e-07
5.27969e-07
5.26039e-07
3.13133e-07
3.13295e-07
3.13135e-07
3.13299e-07
3.13235e-07
3.1308e-07
3.13237e-07
5.28062e-07
5.26124e-07
3.13196e-07
3.1314e-07
3.13197e-07
5.26168e-07
5.27859e-07
5.25985e-07
3.132e-07
3.13259e-07
3.13207e-07
3.13263e-07
5.27865e-07
5.25987e-07
3.13135e-07
3.13299e-07
3.13142e-07
3.13306e-07
3.13237e-07
3.13086e-07
3.13243e-07
5.27944e-07
5.26089e-07
3.13197e-07
3.13147e-07
3.13204e-07
5.26104e-07
5.27752e-07
5.26067e-07
3.13208e-07
3.13263e-07
3.13223e-07
3.13275e-07
5.27755e-07
5.26066e-07
3.13143e-07
3.13306e-07
3.13158e-07
3.13317e-07
3.13244e-07
3.13103e-07
3.13257e-07
5.27865e-07
5.26096e-07
3.13204e-07
3.13159e-07
3.13217e-07
5.26248e-07
5.27757e-07
5.26144e-07
3.13223e-07
3.13277e-07
3.13233e-07
3.13287e-07
5.27752e-07
5.26162e-07
3.1316e-07
3.13318e-07
3.13169e-07
3.13331e-07
3.13257e-07
3.13114e-07
3.13272e-07
5.27804e-07
5.26252e-07
3.13217e-07
3.13175e-07
3.13232e-07
5.26408e-07
5.27797e-07
5.26171e-07
3.13233e-07
3.13287e-07
3.13239e-07
3.13294e-07
5.27815e-07
5.26155e-07
3.13169e-07
3.13331e-07
3.13175e-07
3.1334e-07
3.13273e-07
3.13121e-07
3.13276e-07
5.27873e-07
5.26382e-07
3.13234e-07
3.13181e-07
3.13237e-07
5.26336e-07
5.27783e-07
5.26327e-07
3.13239e-07
3.13294e-07
3.13246e-07
3.133e-07
5.27787e-07
5.26264e-07
3.13175e-07
3.1334e-07
3.13181e-07
3.13346e-07
3.13276e-07
3.13129e-07
3.13282e-07
5.28052e-07
5.26256e-07
3.13237e-07
3.13187e-07
3.13243e-07
5.26373e-07
5.27921e-07
5.26349e-07
3.13246e-07
3.133e-07
3.13251e-07
3.13306e-07
5.27848e-07
5.26418e-07
3.13181e-07
3.13346e-07
3.13187e-07
3.13351e-07
3.13282e-07
3.13136e-07
3.13288e-07
5.27965e-07
5.26239e-07
3.13243e-07
3.13193e-07
3.13249e-07
5.26519e-07
5.28049e-07
5.26196e-07
3.13251e-07
3.13306e-07
3.13256e-07
3.13311e-07
5.28064e-07
5.26344e-07
3.13187e-07
3.13351e-07
3.13191e-07
3.13356e-07
3.13288e-07
3.13142e-07
3.13292e-07
5.2789e-07
5.26356e-07
3.13249e-07
3.13198e-07
3.13253e-07
5.26523e-07
5.27949e-07
5.26127e-07
3.13256e-07
3.13311e-07
3.1326e-07
3.13313e-07
5.28114e-07
5.26179e-07
3.13191e-07
3.13355e-07
3.13196e-07
3.13359e-07
3.13291e-07
3.13147e-07
3.13294e-07
5.27946e-07
5.26475e-07
3.13252e-07
3.132e-07
3.13255e-07
5.26397e-07
5.27831e-07
5.26191e-07
3.1326e-07
3.13313e-07
3.13263e-07
3.13315e-07
5.27991e-07
5.26096e-07
3.13196e-07
3.13358e-07
3.13199e-07
3.13362e-07
3.13294e-07
3.13152e-07
3.13297e-07
5.2808e-07
5.26511e-07
3.13255e-07
3.13203e-07
3.13258e-07
5.26263e-07
5.27817e-07
5.26306e-07
3.13263e-07
3.13315e-07
3.13266e-07
3.13318e-07
5.27857e-07
5.26129e-07
3.13198e-07
3.13361e-07
3.13201e-07
3.13366e-07
3.13297e-07
3.13156e-07
3.13301e-07
5.28193e-07
5.26448e-07
3.13258e-07
3.13207e-07
3.13261e-07
5.26229e-07
5.279e-07
5.26385e-07
3.13265e-07
3.13318e-07
3.13268e-07
3.13321e-07
5.27797e-07
5.26258e-07
3.13201e-07
3.13366e-07
3.13203e-07
3.1337e-07
3.13301e-07
3.1316e-07
3.13304e-07
5.28217e-07
5.26329e-07
3.13261e-07
3.13212e-07
3.13265e-07
5.26341e-07
5.28006e-07
5.26405e-07
3.13267e-07
3.13321e-07
3.1327e-07
3.13324e-07
5.27859e-07
5.26386e-07
3.13203e-07
3.1337e-07
3.13206e-07
3.13372e-07
3.13304e-07
3.13164e-07
3.13308e-07
5.28143e-07
5.26219e-07
3.13264e-07
3.13214e-07
3.13268e-07
5.26484e-07
5.28072e-07
5.26394e-07
3.13269e-07
3.13323e-07
3.13272e-07
3.13326e-07
5.28002e-07
5.26384e-07
3.13204e-07
3.13372e-07
3.13208e-07
3.13374e-07
3.13307e-07
3.13166e-07
3.1331e-07
5.28007e-07
5.26261e-07
3.13267e-07
3.13216e-07
3.1327e-07
5.26514e-07
5.28123e-07
5.26297e-07
3.1327e-07
3.13325e-07
3.13272e-07
3.13326e-07
5.28092e-07
5.26229e-07
3.13206e-07
3.13373e-07
3.13208e-07
3.13375e-07
3.13308e-07
3.13166e-07
3.13309e-07
5.27968e-07
5.26368e-07
3.13269e-07
3.13217e-07
3.1327e-07
5.26407e-07
5.28096e-07
5.26152e-07
3.13271e-07
3.13325e-07
3.13272e-07
3.13326e-07
5.27989e-07
5.26161e-07
3.13207e-07
3.13373e-07
3.13207e-07
3.13375e-07
3.13309e-07
3.13167e-07
3.13309e-07
5.2808e-07
5.26335e-07
3.13269e-07
3.13217e-07
3.1327e-07
5.26366e-07
5.27945e-07
5.26153e-07
3.1327e-07
3.13324e-07
3.13271e-07
3.13326e-07
5.27866e-07
5.2624e-07
3.13206e-07
3.13374e-07
3.13207e-07
3.13374e-07
3.13308e-07
3.13168e-07
3.1331e-07
5.28112e-07
5.26199e-07
3.13269e-07
3.13216e-07
3.1327e-07
5.26431e-07
5.27864e-07
5.26261e-07
3.13269e-07
3.13323e-07
3.13271e-07
3.13324e-07
5.27884e-07
5.26325e-07
3.13205e-07
3.13373e-07
3.13206e-07
3.13374e-07
3.13308e-07
3.13168e-07
3.13309e-07
5.27969e-07
5.26194e-07
3.13268e-07
3.13215e-07
3.1327e-07
5.26442e-07
5.27937e-07
5.26269e-07
3.13269e-07
3.13322e-07
3.13269e-07
3.13323e-07
5.27986e-07
5.26294e-07
3.13204e-07
3.13371e-07
3.13204e-07
3.13372e-07
3.13307e-07
3.13166e-07
3.13307e-07
5.27873e-07
5.26351e-07
3.13268e-07
3.13213e-07
3.13268e-07
5.26381e-07
5.2798e-07
5.2624e-07
3.13267e-07
3.13321e-07
3.13268e-07
3.13321e-07
5.28007e-07
5.26241e-07
3.13203e-07
3.1337e-07
3.13203e-07
3.1337e-07
3.13306e-07
3.13166e-07
3.13306e-07
5.27993e-07
5.26339e-07
3.13267e-07
3.13212e-07
3.13267e-07
5.26319e-07
5.27959e-07
5.26249e-07
3.13267e-07
3.1332e-07
3.1327e-07
3.13323e-07
5.27967e-07
5.26237e-07
3.13202e-07
3.13368e-07
3.13206e-07
3.13369e-07
3.13305e-07
3.13168e-07
3.13308e-07
5.28036e-07
5.26266e-07
3.13266e-07
3.13211e-07
3.13269e-07
5.26418e-07
5.27978e-07
3.13271e-07
3.13324e-07
5.27969e-07
3.13207e-07
3.13369e-07
3.13308e-07
5.27962e-07
3.13269e-07
3.84372e-06
8.89321e-06
3.84379e-06
8.89343e-06
1.82721e-05
1.82741e-05
3.84376e-06
8.8944e-06
3.84383e-06
8.89461e-06
1.2339e-07
1.23409e-07
1.23392e-07
1.23393e-07
1.23411e-07
1.23412e-07
1.50762e-06
3.04414e-06
1.78629e-07
3.13021e-07
1.50808e-06
3.04365e-06
1.78634e-07
1.82756e-05
1.5077e-06
1.78673e-07
3.13082e-07
1.50818e-06
1.78675e-07
3.04369e-06
5.21392e-06
5.21561e-06
5.26379e-07
5.21369e-06
5.2154e-06
3.84374e-06
8.89315e-06
3.84382e-06
8.89336e-06
1.82718e-05
1.82739e-05
3.84377e-06
8.89433e-06
3.84384e-06
8.89454e-06
1.23394e-07
1.23412e-07
1.23414e-07
1.23397e-07
1.23398e-07
1.23415e-07
1.23418e-07
1.50767e-06
3.04423e-06
1.78644e-07
3.13062e-07
1.50808e-06
3.04375e-06
1.78652e-07
1.82734e-05
1.82754e-05
1.50774e-06
1.78689e-07
3.04422e-06
3.13115e-07
1.50816e-06
1.78692e-07
3.04378e-06
5.21387e-06
5.21556e-06
5.26267e-07
5.21369e-06
5.21538e-06
3.84375e-06
8.89308e-06
3.84383e-06
8.8933e-06
1.82716e-05
1.82737e-05
3.8438e-06
8.89426e-06
3.84386e-06
8.89449e-06
1.23398e-07
1.23415e-07
1.23418e-07
1.23396e-07
1.23398e-07
1.23413e-07
1.23417e-07
1.50769e-06
3.04429e-06
1.7866e-07
3.13088e-07
1.50811e-06
3.04379e-06
1.78664e-07
1.82732e-05
1.82752e-05
1.50776e-06
1.78703e-07
3.0443e-06
3.13141e-07
1.50818e-06
1.78702e-07
3.04386e-06
5.21387e-06
5.21555e-06
5.26128e-07
5.21369e-06
5.21538e-06
3.84377e-06
8.89305e-06
3.84385e-06
8.8933e-06
1.82715e-05
1.82737e-05
3.84382e-06
8.89423e-06
3.8439e-06
8.89447e-06
1.23395e-07
1.23409e-07
1.23414e-07
1.23383e-07
1.23386e-07
1.23401e-07
1.23405e-07
1.50762e-06
3.04433e-06
1.78658e-07
3.13089e-07
1.50811e-06
3.04387e-06
1.78658e-07
1.82731e-05
1.82751e-05
1.50772e-06
1.78702e-07
3.04435e-06
3.13141e-07
1.50819e-06
1.78696e-07
3.04388e-06
5.21388e-06
5.21556e-06
5.26083e-07
5.2137e-06
5.21539e-06
3.84381e-06
8.8931e-06
3.84387e-06
8.89336e-06
1.82715e-05
1.82737e-05
3.84386e-06
8.89426e-06
3.84392e-06
8.89452e-06
1.23383e-07
1.23399e-07
1.23402e-07
1.23378e-07
1.2338e-07
1.23398e-07
1.234e-07
1.50753e-06
3.04445e-06
1.78646e-07
3.13082e-07
1.50795e-06
3.04391e-06
1.78646e-07
1.82731e-05
1.82751e-05
1.50762e-06
1.78691e-07
3.04439e-06
3.13137e-07
1.50803e-06
1.78687e-07
3.04398e-06
5.21393e-06
5.2156e-06
5.26149e-07
5.21376e-06
5.21545e-06
3.84386e-06
8.8931e-06
3.84393e-06
8.89333e-06
1.82715e-05
1.82737e-05
3.84391e-06
8.89429e-06
3.84397e-06
8.89452e-06
1.2338e-07
1.23397e-07
1.23399e-07
1.23377e-07
1.23379e-07
1.23398e-07
1.23399e-07
1.50762e-06
3.0444e-06
1.78641e-07
3.13079e-07
1.50803e-06
3.04392e-06
1.78642e-07
1.82731e-05
1.82752e-05
1.5077e-06
1.78687e-07
3.04446e-06
3.13137e-07
1.50811e-06
1.78685e-07
3.04397e-06
5.21397e-06
5.21565e-06
5.26297e-07
5.21379e-06
5.21549e-06
3.84392e-06
8.89311e-06
3.84398e-06
8.89334e-06
1.82715e-05
1.82737e-05
3.84397e-06
8.89429e-06
3.84401e-06
8.89453e-06
1.23379e-07
1.23398e-07
1.23399e-07
1.23379e-07
1.23381e-07
1.234e-07
1.23402e-07
1.50761e-06
3.04443e-06
1.7864e-07
3.13081e-07
1.50799e-06
3.04391e-06
1.78641e-07
1.82731e-05
1.82752e-05
1.50769e-06
1.78685e-07
3.04447e-06
3.13142e-07
1.50807e-06
1.78684e-07
3.04398e-06
5.21401e-06
5.21569e-06
5.2644e-07
5.21384e-06
5.21553e-06
3.84399e-06
8.89311e-06
3.84404e-06
8.89336e-06
1.82716e-05
1.82738e-05
3.84403e-06
8.89429e-06
3.84407e-06
8.89454e-06
1.23382e-07
1.23401e-07
1.23402e-07
1.23383e-07
1.23385e-07
1.23403e-07
1.23405e-07
1.50765e-06
3.04436e-06
1.78643e-07
3.13094e-07
1.508e-06
3.0439e-06
1.78646e-07
1.82732e-05
1.82752e-05
1.50773e-06
1.78687e-07
3.04446e-06
3.13151e-07
1.50808e-06
1.78687e-07
3.04401e-06
5.21405e-06
5.21573e-06
5.26462e-07
5.21388e-06
5.21558e-06
3.84403e-06
8.89313e-06
3.84409e-06
8.89339e-06
1.82717e-05
1.82739e-05
3.84408e-06
8.89432e-06
3.84413e-06
8.89458e-06
1.23386e-07
1.23404e-07
1.23406e-07
1.23386e-07
1.23388e-07
1.23407e-07
1.23409e-07
1.50764e-06
3.04436e-06
1.78648e-07
3.13108e-07
1.50808e-06
3.04392e-06
1.7865e-07
1.82733e-05
1.82753e-05
1.50773e-06
1.78691e-07
3.04447e-06
3.13169e-07
1.50817e-06
1.78691e-07
3.04403e-06
5.21409e-06
5.21577e-06
5.26324e-07
5.21392e-06
5.21561e-06
3.84408e-06
8.89319e-06
3.84415e-06
8.89344e-06
1.82717e-05
1.82739e-05
3.84413e-06
8.89437e-06
3.84419e-06
8.89462e-06
1.23388e-07
1.23408e-07
1.23409e-07
1.23389e-07
1.2339e-07
1.2341e-07
1.23411e-07
1.50773e-06
3.04442e-06
1.78654e-07
3.13116e-07
1.50812e-06
3.04395e-06
1.78656e-07
1.82733e-05
1.82754e-05
1.50782e-06
1.78695e-07
3.04452e-06
3.13176e-07
1.50818e-06
1.78695e-07
3.04406e-06
5.21413e-06
5.21581e-06
5.26337e-07
5.21395e-06
5.21564e-06
3.84411e-06
8.89322e-06
3.84417e-06
8.89348e-06
1.82718e-05
1.8274e-05
3.84416e-06
8.89441e-06
3.84421e-06
8.89466e-06
1.23391e-07
1.2341e-07
1.23411e-07
1.23391e-07
1.23393e-07
1.23412e-07
1.23413e-07
1.50774e-06
3.04446e-06
1.78658e-07
3.13124e-07
1.50812e-06
3.04401e-06
1.78661e-07
1.82734e-05
1.82755e-05
1.50782e-06
1.78699e-07
3.04454e-06
3.13184e-07
1.5082e-06
1.78699e-07
3.04408e-06
5.21415e-06
5.21583e-06
5.2641e-07
5.21397e-06
5.21566e-06
3.84411e-06
8.89325e-06
3.84418e-06
8.8935e-06
1.82718e-05
1.8274e-05
3.84416e-06
8.89444e-06
3.84423e-06
8.89469e-06
1.23393e-07
1.23412e-07
1.23413e-07
1.23393e-07
1.23395e-07
1.23414e-07
1.23415e-07
1.50773e-06
3.04449e-06
1.78663e-07
3.1313e-07
1.50816e-06
3.04404e-06
1.78665e-07
1.82735e-05
1.82755e-05
1.50782e-06
1.78705e-07
3.04455e-06
3.1319e-07
1.50824e-06
1.78705e-07
3.04409e-06
5.21416e-06
5.21585e-06
5.26304e-07
5.21398e-06
5.21567e-06
3.84409e-06
8.89328e-06
3.84418e-06
8.89353e-06
1.82719e-05
1.82741e-05
3.84415e-06
8.89447e-06
3.84422e-06
8.89471e-06
1.23395e-07
1.23414e-07
1.23415e-07
1.23395e-07
1.23396e-07
1.23415e-07
1.23416e-07
1.50774e-06
3.04452e-06
1.78667e-07
3.13137e-07
1.50818e-06
3.04406e-06
1.78669e-07
1.82735e-05
1.82756e-05
1.50783e-06
1.78709e-07
3.04456e-06
3.13195e-07
1.50826e-06
1.78709e-07
3.0441e-06
5.21416e-06
5.21585e-06
5.26223e-07
5.21397e-06
5.21567e-06
3.84406e-06
8.8933e-06
3.84415e-06
8.89354e-06
1.82719e-05
1.82741e-05
3.84412e-06
8.89448e-06
3.84421e-06
8.89472e-06
1.23397e-07
1.23416e-07
1.23416e-07
1.23396e-07
1.23398e-07
1.23417e-07
1.23417e-07
1.50775e-06
3.04453e-06
1.78671e-07
3.13143e-07
1.50819e-06
3.04406e-06
1.78673e-07
1.82736e-05
1.82756e-05
1.50783e-06
1.78713e-07
3.04456e-06
3.13199e-07
1.50826e-06
1.78713e-07
3.04409e-06
5.21415e-06
5.21584e-06
5.263e-07
5.21396e-06
5.21566e-06
3.84404e-06
8.89331e-06
3.84413e-06
8.89355e-06
1.82719e-05
1.82741e-05
3.84409e-06
8.89449e-06
3.84418e-06
8.89473e-06
1.23398e-07
1.23417e-07
1.23418e-07
1.23398e-07
1.234e-07
1.23418e-07
1.23419e-07
1.50776e-06
3.04453e-06
1.78676e-07
3.13149e-07
1.50819e-06
3.04406e-06
1.78678e-07
1.82736e-05
1.82756e-05
1.50784e-06
1.78716e-07
3.04455e-06
3.13201e-07
1.50826e-06
1.78716e-07
3.04408e-06
5.21414e-06
5.21583e-06
5.26449e-07
5.21395e-06
5.21565e-06
3.84402e-06
8.89331e-06
3.84411e-06
8.89355e-06
1.8272e-05
1.82741e-05
3.84407e-06
8.8945e-06
3.84415e-06
8.89473e-06
1.234e-07
1.23418e-07
1.23419e-07
1.23399e-07
1.23401e-07
1.2342e-07
1.23421e-07
1.50777e-06
3.04453e-06
1.78681e-07
3.13153e-07
1.5082e-06
3.04406e-06
1.78683e-07
1.82736e-05
1.82757e-05
1.50784e-06
1.7872e-07
3.04454e-06
3.13204e-07
1.50826e-06
1.7872e-07
3.04407e-06
5.21413e-06
5.21582e-06
5.26552e-07
5.21394e-06
5.21564e-06
3.84399e-06
8.89331e-06
3.84409e-06
8.89355e-06
1.8272e-05
1.82742e-05
3.84405e-06
8.8945e-06
3.84413e-06
8.89473e-06
1.23401e-07
1.2342e-07
1.23421e-07
1.23401e-07
1.23403e-07
1.23422e-07
1.23422e-07
1.50777e-06
3.04452e-06
1.78685e-07
3.13158e-07
1.50819e-06
3.04405e-06
1.78686e-07
1.82736e-05
1.82757e-05
1.50783e-06
1.78724e-07
3.04452e-06
3.13209e-07
1.50826e-06
1.78724e-07
3.04406e-06
5.21411e-06
5.2158e-06
5.26518e-07
5.21393e-06
5.21563e-06
3.84397e-06
8.89331e-06
3.84406e-06
8.89355e-06
1.8272e-05
1.82742e-05
3.84403e-06
8.8945e-06
3.84411e-06
8.89473e-06
1.23403e-07
1.23422e-07
1.23423e-07
1.23402e-07
1.23404e-07
1.23423e-07
1.23424e-07
1.50775e-06
3.04451e-06
1.78687e-07
3.13161e-07
1.50818e-06
3.04404e-06
1.78688e-07
1.82736e-05
1.82757e-05
1.50782e-06
1.78727e-07
3.04451e-06
3.13212e-07
1.50825e-06
1.78727e-07
3.04404e-06
5.2141e-06
5.21579e-06
5.26376e-07
5.21391e-06
5.21561e-06
3.84395e-06
8.8933e-06
3.84405e-06
8.89354e-06
1.8272e-05
1.82742e-05
3.844e-06
8.89449e-06
3.84409e-06
8.89473e-06
1.23405e-07
1.23423e-07
1.23424e-07
1.23403e-07
1.23405e-07
1.23424e-07
1.23425e-07
1.50774e-06
3.04449e-06
1.78689e-07
3.13164e-07
1.50817e-06
3.04403e-06
1.7869e-07
1.82736e-05
1.82757e-05
1.50781e-06
1.78729e-07
3.0445e-06
3.13215e-07
1.50825e-06
1.78729e-07
3.04403e-06
5.21409e-06
5.21578e-06
5.26275e-07
5.2139e-06
5.2156e-06
3.84393e-06
8.8933e-06
3.84402e-06
8.89353e-06
1.8272e-05
1.82742e-05
3.84398e-06
8.89448e-06
3.84407e-06
8.89472e-06
1.23406e-07
1.23424e-07
1.23425e-07
1.23404e-07
1.23406e-07
1.23425e-07
1.23426e-07
1.50772e-06
3.04448e-06
1.7869e-07
3.13165e-07
1.50816e-06
3.04401e-06
1.78691e-07
1.82736e-05
1.82757e-05
1.5078e-06
1.78731e-07
3.04448e-06
3.13216e-07
1.50824e-06
1.78731e-07
3.04402e-06
5.21408e-06
5.21577e-06
5.26321e-07
5.21389e-06
5.21559e-06
3.84391e-06
8.89329e-06
3.84399e-06
8.89352e-06
1.8272e-05
1.82742e-05
3.84395e-06
8.89447e-06
3.84404e-06
8.8947e-06
1.23406e-07
1.23425e-07
1.23426e-07
1.23404e-07
1.23407e-07
1.23426e-07
1.23427e-07
1.50771e-06
3.04447e-06
1.7869e-07
3.13167e-07
1.50814e-06
3.04399e-06
1.78691e-07
1.82736e-05
1.82757e-05
1.50778e-06
1.78733e-07
3.04447e-06
3.13216e-07
1.50822e-06
1.78733e-07
3.044e-06
5.21407e-06
5.21576e-06
5.2642e-07
5.21388e-06
5.21558e-06
3.84388e-06
8.89328e-06
3.84397e-06
8.89351e-06
1.8272e-05
1.82742e-05
3.84393e-06
8.89446e-06
3.84401e-06
8.89469e-06
1.23407e-07
1.23426e-07
1.23427e-07
1.23405e-07
1.23408e-07
1.23427e-07
1.23428e-07
1.50769e-06
3.04446e-06
1.78691e-07
3.13167e-07
1.50812e-06
3.04398e-06
1.78692e-07
1.82736e-05
1.82757e-05
1.50775e-06
1.78733e-07
3.04446e-06
3.13216e-07
1.5082e-06
1.78733e-07
3.04398e-06
5.21405e-06
5.21574e-06
5.26379e-07
5.21386e-06
5.21556e-06
3.84386e-06
8.89326e-06
3.84395e-06
8.8935e-06
1.8272e-05
1.82741e-05
3.84391e-06
8.89445e-06
3.84399e-06
8.89468e-06
1.23408e-07
1.23427e-07
1.23427e-07
1.23405e-07
1.23408e-07
1.23427e-07
1.23428e-07
1.50767e-06
3.04444e-06
1.78691e-07
3.13167e-07
1.50811e-06
3.04397e-06
1.78693e-07
1.82736e-05
1.82756e-05
1.50773e-06
1.78734e-07
3.04444e-06
3.13215e-07
1.50819e-06
1.78733e-07
3.04397e-06
5.21404e-06
5.21573e-06
5.26332e-07
5.21385e-06
5.21555e-06
3.84384e-06
8.89326e-06
3.84394e-06
8.89349e-06
1.8272e-05
1.82741e-05
3.84389e-06
8.89444e-06
3.84398e-06
8.89468e-06
1.23408e-07
1.23427e-07
1.23427e-07
1.23405e-07
1.23408e-07
1.23427e-07
1.23428e-07
1.50766e-06
3.04442e-06
1.78691e-07
3.13166e-07
1.5081e-06
3.04395e-06
1.78692e-07
1.82736e-05
1.82756e-05
1.50771e-06
1.78734e-07
3.04443e-06
3.13213e-07
1.50817e-06
1.78733e-07
3.04396e-06
5.21403e-06
5.21572e-06
5.26341e-07
5.21384e-06
5.21554e-06
3.84386e-06
8.89325e-06
3.84392e-06
8.89349e-06
1.8272e-05
1.82741e-05
3.84389e-06
8.89444e-06
3.84396e-06
8.89468e-06
1.23408e-07
1.23426e-07
1.23427e-07
1.23404e-07
1.23408e-07
1.23426e-07
1.23427e-07
1.50765e-06
3.04441e-06
1.7869e-07
3.13165e-07
1.50807e-06
3.04394e-06
1.78691e-07
1.82736e-05
1.82756e-05
1.5077e-06
1.78733e-07
3.04442e-06
3.13211e-07
1.50814e-06
1.78732e-07
3.04394e-06
5.21402e-06
5.21571e-06
5.26427e-07
5.21383e-06
5.21553e-06
3.84391e-06
8.89325e-06
3.84397e-06
8.89349e-06
1.82719e-05
1.82741e-05
3.84394e-06
8.89444e-06
3.844e-06
8.89468e-06
1.23407e-07
1.23426e-07
1.23427e-07
1.23404e-07
1.23407e-07
1.23425e-07
1.23426e-07
1.50766e-06
3.04441e-06
1.78689e-07
3.13166e-07
1.50806e-06
3.04394e-06
1.7869e-07
1.82736e-05
1.82756e-05
1.50771e-06
1.78731e-07
3.04441e-06
3.1321e-07
1.50813e-06
1.7873e-07
3.04394e-06
5.21402e-06
5.21571e-06
5.26403e-07
5.21384e-06
5.21554e-06
8.89327e-06
3.844e-06
1.82719e-05
3.84403e-06
8.89445e-06
3.84405e-06
1.23407e-07
1.23425e-07
1.23426e-07
3.04442e-06
1.7869e-07
1.5081e-06
1.82736e-05
1.82756e-05
1.50784e-06
1.78731e-07
3.04443e-06
3.13215e-07
1.50816e-06
1.78732e-07
3.04398e-06
5.21404e-06
5.21573e-06
5.26344e-07
5.21387e-06
5.21556e-06
1.82703e-05
1.82723e-05
1.82732e-05
1.82751e-05
5.21386e-06
5.21565e-06
5.26247e-07
5.21361e-06
5.21545e-06
1.82721e-05
1.82702e-05
1.8275e-05
1.82731e-05
5.27971e-07
5.2136e-06
5.21543e-06
5.2138e-06
5.21561e-06
3.84367e-06
8.8932e-06
3.84374e-06
8.89342e-06
1.50761e-06
3.04406e-06
1.78657e-07
3.13144e-07
1.5081e-06
3.04362e-06
1.7866e-07
1.50758e-06
3.04449e-06
1.78672e-07
3.13206e-07
1.50807e-06
3.044e-06
1.78675e-07
3.8438e-06
8.8934e-06
8.89318e-06
3.84374e-06
3.84375e-06
8.89338e-06
8.89317e-06
3.84368e-06
1.50804e-06
3.13154e-07
3.04367e-06
1.78669e-07
3.04409e-06
1.78664e-07
1.50765e-06
1.50801e-06
3.13216e-07
3.04405e-06
1.78683e-07
3.04451e-06
1.78679e-07
1.50762e-06
5.21527e-06
5.21395e-06
5.26252e-07
5.21493e-06
5.21361e-06
1.82701e-05
1.82722e-05
1.8274e-05
1.82719e-05
5.2797e-07
5.21492e-06
5.21361e-06
5.21518e-06
5.21387e-06
1.82721e-05
1.827e-05
1.50764e-06
3.04455e-06
1.78674e-07
3.13078e-07
1.50816e-06
3.04414e-06
1.78677e-07
3.8437e-06
8.89421e-06
1.5076e-06
3.13242e-07
1.787e-07
3.04414e-06
3.84384e-06
8.89458e-06
8.89436e-06
3.84377e-06
1.50807e-06
3.13088e-07
3.04418e-06
1.78686e-07
3.04459e-06
1.78681e-07
1.50768e-06
3.84378e-06
8.89418e-06
8.89396e-06
3.8437e-06
1.50802e-06
3.13249e-07
1.78707e-07
3.04419e-06
1.78703e-07
3.0446e-06
1.50762e-06
3.84397e-06
8.89344e-06
3.84424e-06
8.89366e-06
1.50765e-06
1.7866e-07
3.04425e-06
3.13178e-07
1.50813e-06
1.78663e-07
3.04381e-06
3.84379e-06
8.89365e-06
3.84386e-06
8.89387e-06
1.50804e-06
3.13031e-07
3.0437e-06
1.78643e-07
3.04417e-06
1.78635e-07
1.50764e-06
3.84409e-06
8.89363e-06
8.89341e-06
3.84389e-06
1.50808e-06
3.13188e-07
1.78672e-07
3.04387e-06
1.78667e-07
3.04428e-06
1.50769e-06
3.84387e-06
8.89384e-06
8.89362e-06
3.8438e-06
5.26391e-07
5.21521e-06
5.21378e-06
1.82731e-05
1.82755e-05
1.82735e-05
5.28068e-07
5.2152e-06
5.21377e-06
5.21538e-06
5.21396e-06
1.8273e-05
1.8271e-05
1.50766e-06
1.78681e-07
3.04465e-06
3.1314e-07
1.50817e-06
1.78684e-07
3.04423e-06
3.84396e-06
3.84422e-06
8.8941e-06
3.84391e-06
8.89426e-06
3.84419e-06
8.89448e-06
1.50812e-06
3.13089e-07
1.78684e-07
3.04374e-06
1.7868e-07
3.04415e-06
1.50772e-06
1.50811e-06
3.1315e-07
1.78692e-07
3.04427e-06
1.78689e-07
3.04469e-06
1.50769e-06
3.84408e-06
8.89407e-06
8.89386e-06
3.84388e-06
3.84405e-06
8.89444e-06
8.89423e-06
3.84383e-06
1.82721e-05
1.82741e-05
1.82741e-05
1.82761e-05
5.28088e-07
5.21368e-06
5.21539e-06
5.21387e-06
5.21557e-06
1.82739e-05
1.8272e-05
1.82759e-05
1.8274e-05
1.827e-05
1.8272e-05
1.82729e-05
1.82749e-05
5.21379e-06
5.2156e-06
5.26113e-07
5.2136e-06
5.21542e-06
1.82719e-05
1.82699e-05
1.82748e-05
1.82728e-05
5.27934e-07
5.2136e-06
5.21542e-06
5.2138e-06
5.21559e-06
3.84368e-06
8.89313e-06
3.84376e-06
8.89334e-06
1.50767e-06
3.04414e-06
1.78673e-07
3.13185e-07
1.50808e-06
3.04371e-06
1.78678e-07
1.50764e-06
3.04455e-06
1.78688e-07
3.13247e-07
1.50805e-06
3.04409e-06
1.78692e-07
3.84382e-06
8.89333e-06
8.89311e-06
3.84374e-06
3.84376e-06
8.8933e-06
8.89309e-06
3.84369e-06
1.50809e-06
3.13196e-07
3.04373e-06
1.78687e-07
3.04418e-06
1.78682e-07
1.50769e-06
1.50807e-06
3.13258e-07
3.04411e-06
1.78702e-07
3.04459e-06
1.78697e-07
1.50766e-06
5.21518e-06
5.21387e-06
5.26123e-07
5.21492e-06
5.21361e-06
1.82699e-05
1.8272e-05
1.82738e-05
1.82717e-05
5.27942e-07
5.21492e-06
5.2136e-06
5.21518e-06
5.21387e-06
1.82719e-05
1.82698e-05
1.50768e-06
3.04463e-06
1.7869e-07
3.1312e-07
1.50812e-06
3.04422e-06
1.78695e-07
3.8437e-06
8.89393e-06
3.84378e-06
8.89415e-06
1.50763e-06
1.78711e-07
3.04465e-06
3.13275e-07
1.50806e-06
1.78715e-07
3.04424e-06
3.84384e-06
8.89451e-06
8.89429e-06
3.84378e-06
1.50811e-06
3.13131e-07
3.04424e-06
1.78703e-07
3.04466e-06
1.78699e-07
1.50771e-06
3.84378e-06
8.89413e-06
8.89391e-06
3.84372e-06
1.50806e-06
3.13285e-07
1.78723e-07
3.04427e-06
1.7872e-07
3.04469e-06
1.50765e-06
3.84385e-06
8.89337e-06
3.84403e-06
8.8936e-06
1.50771e-06
1.78676e-07
3.04434e-06
3.1322e-07
1.50811e-06
1.78681e-07
3.04391e-06
3.84379e-06
8.89359e-06
3.84388e-06
8.89381e-06
1.5081e-06
3.13074e-07
3.04378e-06
1.7866e-07
3.04426e-06
1.78653e-07
1.50767e-06
3.84399e-06
8.89357e-06
8.89334e-06
3.84383e-06
1.50813e-06
3.1323e-07
1.7869e-07
3.04393e-06
1.78686e-07
3.04437e-06
1.50773e-06
3.84388e-06
8.89378e-06
8.89356e-06
3.84379e-06
5.21538e-06
5.21396e-06
5.2623e-07
5.21521e-06
5.21378e-06
1.82709e-05
1.82729e-05
1.82753e-05
1.82733e-05
5.28046e-07
5.21522e-06
5.21379e-06
5.21539e-06
5.21397e-06
1.82728e-05
1.82708e-05
1.5077e-06
1.78698e-07
3.04473e-06
3.13181e-07
1.50814e-06
1.78701e-07
3.04431e-06
3.84384e-06
8.89383e-06
3.84402e-06
8.89405e-06
3.84378e-06
8.89419e-06
3.84398e-06
8.8944e-06
1.50815e-06
3.13126e-07
1.787e-07
3.04383e-06
1.78697e-07
3.04425e-06
1.50775e-06
1.50815e-06
3.13191e-07
1.7871e-07
3.04433e-06
1.78707e-07
3.04476e-06
1.50771e-06
3.84399e-06
8.89403e-06
8.89381e-06
3.84384e-06
3.84394e-06
8.89437e-06
8.89416e-06
3.84378e-06
1.82719e-05
1.82739e-05
1.82739e-05
1.82758e-05
5.28077e-07
5.21369e-06
5.21538e-06
5.21387e-06
5.21555e-06
1.82738e-05
1.82718e-05
1.82757e-05
1.82738e-05
1.82699e-05
1.82719e-05
1.82727e-05
1.82747e-05
5.21379e-06
5.21559e-06
5.25975e-07
5.2136e-06
5.21542e-06
1.82718e-05
1.82698e-05
1.82747e-05
1.82727e-05
5.27774e-07
5.2136e-06
5.21543e-06
5.21379e-06
5.21559e-06
3.84369e-06
8.89305e-06
3.84377e-06
8.89327e-06
1.50769e-06
3.0442e-06
1.78689e-07
3.13209e-07
1.50811e-06
3.04374e-06
1.7869e-07
1.50766e-06
3.04461e-06
1.78704e-07
3.1327e-07
1.50808e-06
3.04412e-06
1.78705e-07
3.84383e-06
8.89329e-06
8.89306e-06
3.84377e-06
3.84377e-06
8.89327e-06
8.89303e-06
3.84371e-06
1.50812e-06
3.1321e-07
3.04376e-06
1.78692e-07
3.04421e-06
1.78691e-07
1.50771e-06
1.50809e-06
3.13271e-07
3.04414e-06
1.78707e-07
3.04462e-06
1.78706e-07
1.50767e-06
5.21518e-06
5.21386e-06
5.25986e-07
5.21493e-06
5.21361e-06
1.82697e-05
1.82719e-05
1.82737e-05
1.82715e-05
5.27792e-07
5.21493e-06
5.21362e-06
5.21518e-06
5.21387e-06
1.82719e-05
1.82697e-05
1.50772e-06
3.04468e-06
1.78705e-07
3.13143e-07
1.50814e-06
3.04425e-06
1.78706e-07
3.84373e-06
8.89388e-06
3.84379e-06
8.8941e-06
1.50767e-06
1.78725e-07
3.04472e-06
3.133e-07
1.50809e-06
1.78726e-07
3.0443e-06
3.84387e-06
8.89447e-06
8.89424e-06
3.84382e-06
1.50815e-06
3.13144e-07
3.04427e-06
1.78707e-07
3.04469e-06
1.78707e-07
1.50773e-06
3.84381e-06
8.89409e-06
8.89386e-06
3.84375e-06
1.50811e-06
3.13302e-07
1.78727e-07
3.04432e-06
1.78727e-07
3.04475e-06
1.5077e-06
3.84383e-06
8.89332e-06
3.84398e-06
8.89354e-06
1.50773e-06
1.78693e-07
3.04439e-06
3.13244e-07
1.50815e-06
1.78694e-07
3.04394e-06
3.84379e-06
8.89353e-06
3.84388e-06
8.89375e-06
1.50811e-06
3.13089e-07
3.04381e-06
1.78664e-07
3.04429e-06
1.78661e-07
1.50768e-06
3.84398e-06
8.89355e-06
8.8933e-06
3.84384e-06
1.50815e-06
3.13245e-07
1.78696e-07
3.04396e-06
1.78695e-07
3.0444e-06
1.50774e-06
3.84388e-06
8.89374e-06
8.89351e-06
3.84381e-06
5.2154e-06
5.21398e-06
5.26094e-07
5.21523e-06
5.2138e-06
1.82707e-05
1.82727e-05
1.82751e-05
1.82732e-05
5.27925e-07
5.21523e-06
5.2138e-06
5.2154e-06
5.21398e-06
1.82727e-05
1.82707e-05
1.50772e-06
1.78714e-07
3.04478e-06
3.13205e-07
1.50817e-06
1.78714e-07
3.04435e-06
3.84384e-06
8.89379e-06
3.84399e-06
8.89401e-06
3.84378e-06
8.89413e-06
3.84395e-06
8.89435e-06
1.50818e-06
3.13143e-07
1.78701e-07
3.04388e-06
1.78705e-07
3.04432e-06
1.50777e-06
1.50817e-06
3.13206e-07
1.78712e-07
3.04436e-06
1.78716e-07
3.0448e-06
1.50773e-06
3.84399e-06
8.894e-06
8.89377e-06
3.84386e-06
3.84395e-06
8.89434e-06
8.89411e-06
3.8438e-06
1.82717e-05
1.82737e-05
1.82737e-05
1.82757e-05
5.27934e-07
5.21369e-06
5.21539e-06
5.21387e-06
5.21555e-06
1.82737e-05
1.82716e-05
1.82756e-05
1.82736e-05
1.82698e-05
1.82718e-05
1.82727e-05
1.82747e-05
5.2138e-06
5.21559e-06
5.25958e-07
5.21362e-06
5.21543e-06
1.82719e-05
1.82698e-05
1.82747e-05
1.82727e-05
5.27659e-07
5.21365e-06
5.21546e-06
5.21382e-06
5.21561e-06
3.84372e-06
8.89303e-06
3.84379e-06
8.89329e-06
1.50768e-06
3.04422e-06
1.78689e-07
3.13209e-07
1.50813e-06
3.04376e-06
1.78686e-07
1.50766e-06
3.04464e-06
1.78705e-07
3.1327e-07
1.5081e-06
3.04418e-06
1.78702e-07
3.84385e-06
8.89333e-06
8.89306e-06
3.84378e-06
3.8438e-06
8.89332e-06
8.89306e-06
3.84373e-06
1.50807e-06
3.13208e-07
3.04383e-06
1.78679e-07
3.04423e-06
1.78683e-07
1.50756e-06
1.50805e-06
3.1327e-07
3.04426e-06
1.78695e-07
3.04469e-06
1.78698e-07
1.50754e-06
5.21519e-06
5.21388e-06
5.25955e-07
5.21496e-06
5.21364e-06
1.82697e-05
1.82719e-05
1.82737e-05
1.82715e-05
5.27668e-07
5.21499e-06
5.21367e-06
5.21522e-06
5.21391e-06
1.82719e-05
1.82697e-05
1.50771e-06
3.0447e-06
1.78704e-07
3.13142e-07
1.50817e-06
3.04427e-06
1.78701e-07
3.84376e-06
8.89384e-06
3.84383e-06
8.89408e-06
1.50762e-06
1.78725e-07
3.04477e-06
3.133e-07
1.50812e-06
1.78721e-07
3.04433e-06
3.8439e-06
8.89448e-06
8.89423e-06
3.84384e-06
1.50812e-06
3.13141e-07
3.0443e-06
1.78695e-07
3.04471e-06
1.78697e-07
1.5076e-06
3.84384e-06
8.89409e-06
8.89384e-06
3.84378e-06
1.50802e-06
3.133e-07
1.78717e-07
3.04435e-06
1.78719e-07
3.04477e-06
1.50753e-06
3.84385e-06
8.89331e-06
3.844e-06
8.89357e-06
1.50769e-06
1.78693e-07
3.04442e-06
3.13244e-07
1.50816e-06
1.7869e-07
3.04396e-06
3.84381e-06
8.8935e-06
3.84389e-06
8.89374e-06
1.50801e-06
3.13089e-07
3.04394e-06
1.78652e-07