/*--------------------------------*- C++ -*----------------------------------*\
| =========                 |                                                 |
| \\      /  F ield         | OpenFOAM: The Open Source CFD Toolbox           |
|  \\    /   O peration     | Version:  2312                                  |
|   \\  /    A nd           | Website:  www.openfoam.com                      |
|    \\/     M anipulation  |                                                 |
\*---------------------------------------------------------------------------*/
FoamFile
{
    version     2.0;
    format      ascii;
    arch        "LSB;label=32;scalar=64";
    class       volScalarField;
    location    "125";
    object      p;
}
// * * * * * * * * * * * * * * * * * * * * * * * * * * * * * * * * * * * * * //

dimensions      [0 2 -2 0 0 0 0];

internalField   nonuniform List<scalar> 
42973
(
0.00167955
0.00167949
0.00168161
0.00164376
0.0016437
0.0016437
0.00164582
0.00160796
0.00160791
0.00160791
0.00161003
0.00157218
0.00157212
0.00157212
0.00157424
0.00153639
0.00153633
0.00153633
0.00153845
0.0015006
0.00150054
0.00150054
0.00150267
0.00146481
0.00146475
0.00146476
0.00146688
0.00142902
0.00142897
0.00142897
0.00143109
0.00139324
0.00139318
0.00139318
0.0013953
0.00135745
0.00135739
0.00135739
0.00135951
0.00132166
0.0013216
0.0013216
0.00132372
0.00128587
0.00128581
0.00128581
0.00128794
0.00125008
0.00125003
0.00125002
0.00125215
0.00121429
0.00121424
0.00121424
0.00121636
0.0011785
0.00117845
0.00117845
0.00118057
0.00114271
0.00114266
0.00114266
0.00114478
0.00110692
0.00110687
0.00110687
0.00110899
0.00107113
0.00107108
0.00107108
0.0010732
0.00103534
0.00103529
0.00103528
0.00103741
0.00099955
0.000999495
0.000999494
0.00100162
0.00096376
0.000963704
0.000963705
0.000965826
0.000927969
0.000927914
0.000927914
0.000930035
0.000892179
0.000892123
0.000892123
0.000894245
0.000856388
0.000856333
0.000856333
0.000858454
0.000820598
0.000820543
0.000820543
0.000822665
0.000784807
0.000784752
0.000784753
0.000786874
0.000749016
0.00074896
0.000748961
0.000751082
0.00168161
0.00165053
0.00167949
0.00167949
0.00165265
0.00165265
0.00168161
0.00165053
0.00167949
0.00165265
0.00165265
0.00167949
0.00165265
0.00165265
0.00165053
0.00167949
0.00165265
0.00165265
0.00165053
0.00164582
0.00161474
0.0016437
0.0016437
0.00161686
0.00161686
0.00164582
0.00161474
0.0016437
0.0016437
0.00161686
0.00161686
0.0016437
0.00161686
0.00161686
0.00164582
0.00161474
0.0016437
0.00161686
0.00161686
0.00161474
0.00161003
0.00157895
0.00160791
0.00160791
0.00158107
0.00158107
0.00161003
0.00157895
0.00160791
0.00160791
0.00158107
0.00158107
0.00160791
0.00158107
0.00158107
0.00161003
0.00157895
0.00160791
0.00158107
0.00158107
0.00157895
0.00157424
0.00154316
0.00157212
0.00157212
0.00154528
0.00154528
0.00157424
0.00154316
0.00157212
0.00157212
0.00154528
0.00154528
0.00157212
0.00154528
0.00154528
0.00157424
0.00154316
0.00157212
0.00154528
0.00154528
0.00154316
0.00153845
0.00150737
0.00153633
0.00153633
0.00150949
0.00150949
0.00153845
0.00150737
0.00153633
0.00153633
0.00150949
0.00150949
0.00153633
0.00150949
0.00150949
0.00153845
0.00150737
0.00153633
0.00150949
0.00150949
0.00150737
0.00150267
0.00147158
0.00150054
0.00150054
0.0014737
0.0014737
0.00150267
0.00147158
0.00150054
0.00150054
0.0014737
0.0014737
0.00150054
0.0014737
0.0014737
0.00150267
0.00147158
0.00150054
0.0014737
0.0014737
0.00147158
0.00146688
0.00143579
0.00146476
0.00146475
0.00143792
0.00143791
0.00146688
0.00143579
0.00146475
0.00146476
0.00143791
0.00143791
0.00146476
0.00143791
0.00143792
0.00146688
0.00143579
0.00146475
0.00143791
0.00143791
0.00143579
0.00143109
0.00140001
0.00142897
0.00142897
0.00140213
0.00140213
0.00143109
0.00140001
0.00142897
0.00142897
0.00140213
0.00140213
0.00142897
0.00140213
0.00140213
0.00143109
0.00140001
0.00142897
0.00140213
0.00140213
0.00140001
0.0013953
0.00136422
0.00139318
0.00139318
0.00136634
0.00136634
0.0013953
0.00136422
0.00139318
0.00139318
0.00136634
0.00136634
0.00139318
0.00136634
0.00136634
0.0013953
0.00136422
0.00139318
0.00136634
0.00136634
0.00136422
0.00135951
0.00132843
0.00135739
0.00135739
0.00133055
0.00133055
0.00135951
0.00132843
0.00135739
0.00135739
0.00133055
0.00133055
0.00135739
0.00133055
0.00133055
0.00135951
0.00132843
0.00135739
0.00133055
0.00133055
0.00132843
0.00132372
0.00129264
0.0013216
0.0013216
0.00129476
0.00129476
0.00132372
0.00129264
0.0013216
0.0013216
0.00129476
0.00129476
0.0013216
0.00129476
0.00129476
0.00132372
0.00129264
0.0013216
0.00129476
0.00129476
0.00129264
0.00128793
0.00125685
0.00128581
0.00128581
0.00125897
0.00125897
0.00128793
0.00125685
0.00128581
0.00128581
0.00125897
0.00125897
0.00128581
0.00125897
0.00125897
0.00128793
0.00125685
0.00128581
0.00125897
0.00125897
0.00125685
0.00125215
0.00122106
0.00125002
0.00125003
0.00122318
0.00122318
0.00125215
0.00122106
0.00125002
0.00125002
0.00122318
0.00122318
0.00125003
0.00122318
0.00122318
0.00125215
0.00122106
0.00125003
0.00122318
0.00122318
0.00122106
0.00121636
0.00118527
0.00121424
0.00121424
0.00118739
0.00118739
0.00121636
0.00118527
0.00121423
0.00121424
0.00118739
0.00118739
0.00121424
0.00118739
0.00118739
0.00121636
0.00118527
0.00121424
0.00118739
0.00118739
0.00118527
0.00118057
0.00114948
0.00117845
0.00117845
0.00115161
0.0011516
0.00118057
0.00114948
0.00117845
0.00117845
0.00115161
0.0011516
0.00117845
0.0011516
0.0011516
0.00118057
0.00114948
0.00117845
0.0011516
0.0011516
0.00114948
0.00114478
0.00111369
0.00114266
0.00114266
0.00111582
0.00111582
0.00114478
0.00111369
0.00114266
0.00114266
0.00111582
0.00111581
0.00114266
0.00111582
0.00111582
0.00114478
0.00111369
0.00114266
0.00111581
0.00111581
0.00111369
0.00110899
0.0010779
0.00110687
0.00110687
0.00108002
0.00108002
0.00110899
0.0010779
0.00110687
0.00110687
0.00108002
0.00108002
0.00110687
0.00108002
0.00108002
0.00110899
0.0010779
0.00110687
0.00108002
0.00108002
0.0010779
0.0010732
0.00104211
0.00107108
0.00107108
0.00104423
0.00104423
0.0010732
0.00104211
0.00107108
0.00107108
0.00104423
0.00104423
0.00107108
0.00104423
0.00104423
0.0010732
0.00104211
0.00107108
0.00104423
0.00104423
0.00104211
0.00103741
0.00100632
0.00103529
0.00103529
0.00100844
0.00100844
0.00103741
0.00100632
0.00103529
0.00103528
0.00100844
0.00100844
0.00103529
0.00100844
0.00100844
0.00103741
0.00100632
0.00103529
0.00100844
0.00100844
0.00100632
0.00100162
0.000970532
0.000999495
0.000999495
0.000972651
0.000972651
0.00100162
0.000970532
0.000999495
0.000999494
0.000972651
0.000972653
0.000999495
0.000972651
0.000972652
0.00100161
0.000970532
0.000999495
0.000972653
0.000972652
0.000970532
0.000965826
0.000934741
0.000963704
0.000963704
0.000936861
0.000936862
0.000965826
0.000934741
0.000963704
0.000963705
0.000936861
0.000936862
0.000963705
0.000936862
0.000936862
0.000965826
0.000934741
0.000963705
0.000936862
0.000936862
0.000934741
0.000930035
0.000898951
0.000927914
0.000927913
0.000901072
0.000901072
0.000930035
0.000898951
0.000927913
0.000927914
0.000901071
0.000901071
0.000927914
0.000901072
0.000901072
0.000930035
0.00089895
0.000927914
0.000901071
0.000901071
0.000898951
0.000894244
0.00086316
0.000892123
0.000892123
0.000865281
0.000865281
0.000894244
0.000863161
0.000892123
0.000892123
0.000865281
0.000865281
0.000892124
0.000865281
0.000865281
0.000894244
0.00086316
0.000892123
0.000865281
0.00086528
0.00086316
0.000858454
0.00082737
0.000856333
0.000856333
0.000829491
0.00082949
0.000858454
0.000827371
0.000856333
0.000856333
0.00082949
0.000829491
0.000856333
0.00082949
0.00082949
0.000858453
0.00082737
0.000856333
0.000829491
0.00082949
0.00082737
0.000822664
0.00079158
0.000820543
0.000820543
0.0007937
0.0007937
0.000822665
0.00079158
0.000820543
0.000820543
0.0007937
0.0007937
0.000820543
0.0007937
0.0007937
0.000822664
0.00079158
0.000820543
0.0007937
0.0007937
0.00079158
0.000786874
0.000755788
0.000784753
0.000784752
0.000757909
0.000757909
0.000786874
0.000755789
0.000784752
0.000784753
0.000757909
0.000757909
0.000784752
0.000757909
0.00075791
0.000786874
0.000755789
0.000784752
0.000757909
0.000757909
0.000755789
0.000751082
0.00074896
0.00074896
0.000751082
0.00074896
0.000748961
0.000748961
0.000751082
0.000748961
0.00166835
0.00168174
0.00168173
0.00166835
0.00168174
0.00166835
0.00166835
0.00168174
0.00168173
0.00166835
0.00167955
0.00167955
0.0016527
0.0016527
0.0016527
0.0016527
0.00166843
0.00168169
0.00167951
0.00167054
0.00168167
0.00166839
0.00167056
0.00166835
0.00166843
0.00167951
0.00167054
0.00168167
0.00167056
0.00166839
0.00168174
0.00168174
0.00166842
0.00166835
0.00166835
0.00163256
0.00164594
0.00164594
0.00163255
0.00164594
0.00163255
0.00163256
0.00164594
0.00164594
0.00163255
0.00164376
0.00164376
0.00164376
0.00161691
0.00161691
0.00161691
0.00161691
0.00163263
0.0016459
0.00164371
0.00163475
0.00164588
0.0016326
0.00163477
0.00164594
0.00163256
0.00163263
0.00164371
0.0016459
0.00163475
0.00164588
0.00163477
0.0016326
0.00164595
0.00164595
0.00163263
0.00163255
0.00163255
0.00159677
0.00161015
0.00161015
0.00159676
0.00161015
0.00159676
0.00159677
0.00161015
0.00161015
0.00159676
0.00160796
0.00160796
0.00160796
0.00158112
0.00158112
0.00158112
0.00158112
0.00159684
0.00161011
0.00160792
0.00159896
0.00161009
0.00159681
0.00159898
0.00161015
0.00159676
0.00159684
0.00160792
0.00161011
0.00159896
0.00161009
0.00159898
0.00159681
0.00161016
0.00161016
0.00159684
0.00159676
0.00159676
0.00156098
0.00157436
0.00157436
0.00156097
0.00157436
0.00156098
0.00156098
0.00157436
0.00157436
0.00156097
0.00157218
0.00157218
0.00157218
0.00154533
0.00154533
0.00154533
0.00154533
0.00156105
0.00157432
0.00157213
0.00156317
0.0015743
0.00156102
0.00156319
0.00157436
0.00156098
0.00156105
0.00157213
0.00157432
0.00156317
0.0015743
0.00156319
0.00156102
0.00157437
0.00157437
0.00156105
0.00156097
0.00156097
0.00152519
0.00153858
0.00153857
0.00152519
0.00153857
0.00152519
0.00152519
0.00153858
0.00153857
0.00152519
0.00153639
0.00153639
0.00153639
0.00150955
0.00150955
0.00150955
0.00150955
0.00152527
0.00153853
0.00153635
0.00152739
0.00153851
0.00152523
0.0015274
0.00153857
0.00152519
0.00152527
0.00153635
0.00153853
0.00152739
0.00153851
0.0015274
0.00152523
0.00153858
0.00153858
0.00152527
0.00152519
0.00152519
0.0014894
0.00150279
0.00150279
0.0014894
0.00150279
0.0014894
0.0014894
0.00150279
0.00150279
0.0014894
0.0015006
0.0015006
0.0015006
0.00147376
0.00147376
0.00147376
0.00147376
0.00148948
0.00150275
0.00150056
0.0014916
0.00150272
0.00148944
0.00149161
0.00150279
0.0014894
0.00148948
0.00150056
0.00150275
0.0014916
0.00150272
0.00149161
0.00148944
0.00150279
0.00150279
0.00148948
0.0014894
0.0014894
0.00145362
0.001467
0.001467
0.00145361
0.001467
0.00145361
0.00145362
0.001467
0.001467
0.00145361
0.00146481
0.00146481
0.00146481
0.00143797
0.00143797
0.00143797
0.00143797
0.00145369
0.00146696
0.00146477
0.00145581
0.00146693
0.00145365
0.00145582
0.001467
0.00145361
0.00145369
0.00146477
0.00146696
0.00145581
0.00146693
0.00145582
0.00145365
0.001467
0.001467
0.00145369
0.00145361
0.00145361
0.00141783
0.00143121
0.00143121
0.00141782
0.00143121
0.00141782
0.00141783
0.00143121
0.00143121
0.00141782
0.00142902
0.00142902
0.00142902
0.00140218
0.00140218
0.00140218
0.00140218
0.0014179
0.00143117
0.00142898
0.00142002
0.00143115
0.00141786
0.00142004
0.00143121
0.00141782
0.0014179
0.00142898
0.00143117
0.00142002
0.00143115
0.00142004
0.00141786
0.00143122
0.00143122
0.0014179
0.00141782
0.00141782
0.00138204
0.00139542
0.00139542
0.00138204
0.00139542
0.00138204
0.00138204
0.00139542
0.00139542
0.00138204
0.00139324
0.00139324
0.00139324
0.00136639
0.00136639
0.00136639
0.00136639
0.00138211
0.00139538
0.00139319
0.00138423
0.00139536
0.00138208
0.00138425
0.00139542
0.00138204
0.00138211
0.00139319
0.00139538
0.00138423
0.00139536
0.00138425
0.00138208
0.00139543
0.00139543
0.00138211
0.00138203
0.00138203
0.00134625
0.00135963
0.00135963
0.00134625
0.00135963
0.00134625
0.00134625
0.00135963
0.00135963
0.00134625
0.00135745
0.00135745
0.00135745
0.00133061
0.00133061
0.00133061
0.00133061
0.00134633
0.00135959
0.00135741
0.00134844
0.00135957
0.00134629
0.00134846
0.00135963
0.00134625
0.00134633
0.00135741
0.00135959
0.00134844
0.00135957
0.00134846
0.00134629
0.00135964
0.00135964
0.00134632
0.00134625
0.00134625
0.00131046
0.00132385
0.00132384
0.00131046
0.00132384
0.00131046
0.00131046
0.00132385
0.00132384
0.00131046
0.00132166
0.00132166
0.00132166
0.00129482
0.00129482
0.00129482
0.00129482
0.00131054
0.0013238
0.00132162
0.00131266
0.00132378
0.0013105
0.00131267
0.00132384
0.00131046
0.00131054
0.00132162
0.0013238
0.00131266
0.00132378
0.00131267
0.0013105
0.00132385
0.00132385
0.00131054
0.00131046
0.00131046
0.00127467
0.00128806
0.00128805
0.00127467
0.00128806
0.00127467
0.00127467
0.00128806
0.00128805
0.00127467
0.00128587
0.00128587
0.00128587
0.00125903
0.00125903
0.00125903
0.00125903
0.00127475
0.00128802
0.00128583
0.00127687
0.00128799
0.00127471
0.00127688
0.00128806
0.00127467
0.00127475
0.00128583
0.00128802
0.00127687
0.00128799
0.00127688
0.00127471
0.00128806
0.00128806
0.00127475
0.00127467
0.00127467
0.00123888
0.00125227
0.00125226
0.00123888
0.00125227
0.00123888
0.00123888
0.00125227
0.00125226
0.00123888
0.00125008
0.00125008
0.00125008
0.00122324
0.00122324
0.00122324
0.00122324
0.00123896
0.00125223
0.00125004
0.00124108
0.0012522
0.00123892
0.00124109
0.00125227
0.00123888
0.00123896
0.00125004
0.00125223
0.00124108
0.0012522
0.00124109
0.00123892
0.00125227
0.00125227
0.00123896
0.00123888
0.00123888
0.0012031
0.00121648
0.00121648
0.00120309
0.00121648
0.00120309
0.0012031
0.00121648
0.00121648
0.00120309
0.00121429
0.00121429
0.00121429
0.00118745
0.00118745
0.00118745
0.00118745
0.00120317
0.00121644
0.00121425
0.00120529
0.00121641
0.00120313
0.0012053
0.00121648
0.00120309
0.00120317
0.00121425
0.00121644
0.00120529
0.00121641
0.0012053
0.00120313
0.00121648
0.00121648
0.00120317
0.00120309
0.00120309
0.00116731
0.00118069
0.00118069
0.0011673
0.00118069
0.0011673
0.00116731
0.00118069
0.00118069
0.0011673
0.0011785
0.0011785
0.0011785
0.00115166
0.00115166
0.00115166
0.00115166
0.00116738
0.00118065
0.00117846
0.0011695
0.00118062
0.00116734
0.00116951
0.00118069
0.0011673
0.00116738
0.00117846
0.00118065
0.0011695
0.00118062
0.00116951
0.00116734
0.0011807
0.0011807
0.00116738
0.0011673
0.0011673
0.00113152
0.0011449
0.0011449
0.00113151
0.0011449
0.00113151
0.00113152
0.0011449
0.0011449
0.00113151
0.00114271
0.00114271
0.00114271
0.00111587
0.00111587
0.00111587
0.00111587
0.00113159
0.00114486
0.00114267
0.00113371
0.00114484
0.00113155
0.00113372
0.0011449
0.00113151
0.00113159
0.00114267
0.00114486
0.00113371
0.00114484
0.00113372
0.00113155
0.00114491
0.00114491
0.00113159
0.00113151
0.00113151
0.00109573
0.00110911
0.00110911
0.00109572
0.00110911
0.00109572
0.00109573
0.00110911
0.00110911
0.00109572
0.00110692
0.00110692
0.00110692
0.00108008
0.00108008
0.00108008
0.00108008
0.0010958
0.00110907
0.00110688
0.00109792
0.00110905
0.00109576
0.00109793
0.00110911
0.00109572
0.0010958
0.00110688
0.00110907
0.00109792
0.00110904
0.00109793
0.00109576
0.00110912
0.00110912
0.0010958
0.00109572
0.00109572
0.00105994
0.00107332
0.00107332
0.00105993
0.00107332
0.00105993
0.00105993
0.00107332
0.00107332
0.00105993
0.00107113
0.00107113
0.00107113
0.00104429
0.00104429
0.00104429
0.00104429
0.00106001
0.00107328
0.00107109
0.00106213
0.00107325
0.00105997
0.00106214
0.00107332
0.00105993
0.00106001
0.00107109
0.00107328
0.00106213
0.00107325
0.00106214
0.00105997
0.00107332
0.00107332
0.00106001
0.00105993
0.00105993
0.00102414
0.00103753
0.00103753
0.00102414
0.00103753
0.00102414
0.00102414
0.00103753
0.00103753
0.00102414
0.00103534
0.00103534
0.00103534
0.0010085
0.0010085
0.0010085
0.0010085
0.00102422
0.00103749
0.0010353
0.00102634
0.00103746
0.00102418
0.00102635
0.00103753
0.00102414
0.00102422
0.0010353
0.00103749
0.00102634
0.00103746
0.00102635
0.00102418
0.00103753
0.00103753
0.00102422
0.00102414
0.00102414
0.000988354
0.00100174
0.00100174
0.000988348
0.00100174
0.00098835
0.000988354
0.00100174
0.00100174
0.000988348
0.00099955
0.00099955
0.000999549
0.000972707
0.000972707
0.000972707
0.000972707
0.000988428
0.0010017
0.000999509
0.000990548
0.00100167
0.000988391
0.000990562
0.00100174
0.00098835
0.000988428
0.000999509
0.0010017
0.000990547
0.00100167
0.000990562
0.000988391
0.00100174
0.00100174
0.000988427
0.000988348
0.000988348
0.000952564
0.000965948
0.000965946
0.000952558
0.000965947
0.00095256
0.000952564
0.000965948
0.000965946
0.000952558
0.00096376
0.00096376
0.000963759
0.000936917
0.000936917
0.000936917
0.000936917
0.000952638
0.000965906
0.000963719
0.000954757
0.000965883
0.000952601
0.000954772
0.000965947
0.00095256
0.000952638
0.000963719
0.000965906
0.000954757
0.000965883
0.000954771
0.000952601
0.000965954
0.000965954
0.000952637
0.000952557
0.000952557
0.000916774
0.000930157
0.000930156
0.000916768
0.000930157
0.00091677
0.000916774
0.000930157
0.000930156
0.000916768
0.000927969
0.000927969
0.000927969
0.000901126
0.000901126
0.000901126
0.000901126
0.000916847
0.000930116
0.000927929
0.000918966
0.000930093
0.00091681
0.000918981
0.000930156
0.00091677
0.000916847
0.000927929
0.000930116
0.000918967
0.000930093
0.000918981
0.00091681
0.000930164
0.000930164
0.000916846
0.000916767
0.000916767
0.000880983
0.000894367
0.000894365
0.000880977
0.000894366
0.000880979
0.000880983
0.000894367
0.000894365
0.000880977
0.000892179
0.000892179
0.000892178
0.000865336
0.000865336
0.000865336
0.000865335
0.000881056
0.000894325
0.000892138
0.000883175
0.000894302
0.00088102
0.00088319
0.000894366
0.000880979
0.000881056
0.000892138
0.000894325
0.000883176
0.000894302
0.00088319
0.00088102
0.000894372
0.000894373
0.000881055
0.000880976
0.000880976
0.000845192
0.000858576
0.000858574
0.000845187
0.000858575
0.000845189
0.000845192
0.000858576
0.000858574
0.000845187
0.000856388
0.000856388
0.000856388
0.000829545
0.000829545
0.000829545
0.000829545
0.000845266
0.000858535
0.000856348
0.000847385
0.000858511
0.000845229
0.0008474
0.000858575
0.000845189
0.000845266
0.000856347
0.000858535
0.000847385
0.000858511
0.0008474
0.000845229
0.000858582
0.000858582
0.000845265
0.000845186
0.000845186
0.000809403
0.000822786
0.000822785
0.000809397
0.000822785
0.000809399
0.000809402
0.000822786
0.000822784
0.000809397
0.000820598
0.000820598
0.000820598
0.000793755
0.000793755
0.000793755
0.000793755
0.000809476
0.000822745
0.000820558
0.000811596
0.000822721
0.000809439
0.00081161
0.000822785
0.000809399
0.000809476
0.000820557
0.000822745
0.000811595
0.000822721
0.00081161
0.000809439
0.000822792
0.000822792
0.000809475
0.000809396
0.000809396
0.000773613
0.000786996
0.000786994
0.000773606
0.000786995
0.000773608
0.000773612
0.000786996
0.000786994
0.000773606
0.000784808
0.000784807
0.000784807
0.000757964
0.000757964
0.000757964
0.000757964
0.000773686
0.000786955
0.000784767
0.000775805
0.000786931
0.000773649
0.000775819
0.000786995
0.000773608
0.000773686
0.000784767
0.000786955
0.000775805
0.000786931
0.000775819
0.000773649
0.000787002
0.000787002
0.000773685
0.000773606
0.000773606
0.000751204
0.000751202
0.000751204
0.000737819
0.000751205
0.000751203
0.000749016
0.000749016
0.000749016
0.000751163
0.000748975
0.00075114
0.000751203
0.000737816
0.000737893
0.000748975
0.000751163
0.000740012
0.000751139
0.000740027
0.000737856
0.00075121
0.00075121
0.000737891
0.000737814
0.000737814
0.00168174
0.00166835
0.00168174
0.00166835
0.00168174
0.00168174
0.00166842
0.00166835
0.00166835
0.00165045
0.00166384
0.00165045
0.00166384
0.00166372
0.00165045
0.00165045
0.00166385
0.00166385
0.00166835
0.00168174
0.00168173
0.00166835
0.00166843
0.00168169
0.00167951
0.00167054
0.00168167
0.00166839
0.00167056
0.00166843
0.00168169
0.00167951
0.00167054
0.00168167
0.00166839
0.00167056
0.00166384
0.00165045
0.00166384
0.00165046
0.00166384
0.00165045
0.00166384
0.00165046
0.00166378
0.0016616
0.00165049
0.00165266
0.0016638
0.00166161
0.00165053
0.00166378
0.0016616
0.00165049
0.00165266
0.0016638
0.00166161
0.00165053
0.00168174
0.00168174
0.00166842
0.00166835
0.00166835
0.00168174
0.00166835
0.00165045
0.00166384
0.00166372
0.00165045
0.00165045
0.00166385
0.00166385
0.00165045
0.00166384
0.00166843
0.00168169
0.00167951
0.00167054
0.00168167
0.00166839
0.00167056
0.00166835
0.00166835
0.00166843
0.00167054
0.00167056
0.00166839
0.00166384
0.00165045
0.00166384
0.00165046
0.00166378
0.0016616
0.00165049
0.00165266
0.0016638
0.00166161
0.00165053
0.00166384
0.00165045
0.00166384
0.00165046
0.00166378
0.0016616
0.00165266
0.00165049
0.00166161
0.0016638
0.00165053
0.00166835
0.00168174
0.00168173
0.00166835
0.00166843
0.00167951
0.00168169
0.00167054
0.00168167
0.00167056
0.00166839
0.00166835
0.00168174
0.00168173
0.00166835
0.00166378
0.0016616
0.00165049
0.00165266
0.0016638
0.00166161
0.00165053
0.00166384
0.00165045
0.00166384
0.00165046
0.00166378
0.0016616
0.00165266
0.00165049
0.00166161
0.0016638
0.00165053
0.00166384
0.00165045
0.00166384
0.00165046
0.00166842
0.00166835
0.00166835
0.00166835
0.00165045
0.00166384
0.00166372
0.00165045
0.00165045
0.00166385
0.00166385
0.00165045
0.00166384
0.00166843
0.00167951
0.00168169
0.00167054
0.00168167
0.00167056
0.00166839
0.00166835
0.00168173
0.00166835
0.00166835
0.00168174
0.00168173
0.00166835
0.00166378
0.0016616
0.00165266
0.00165049
0.00166161
0.0016638
0.00165053
0.00166377
0.0016616
0.00165266
0.00165049
0.00166161
0.0016638
0.00165053
0.00166384
0.00165045
0.00166384
0.00165046
0.00166384
0.00165045
0.00166384
0.00165046
0.00168174
0.00166835
0.00168174
0.00166835
0.00166372
0.00165045
0.00165045
0.00166385
0.00166385
0.00165045
0.00166384
0.00165045
0.00166384
0.00164594
0.00163256
0.00164594
0.00163256
0.00164595
0.00164595
0.00163263
0.00163255
0.00163255
0.00161466
0.00162805
0.00161466
0.00162805
0.00162793
0.00161466
0.00161466
0.00162805
0.00162805
0.00163256
0.00164594
0.00164594
0.00163255
0.00163263
0.0016459
0.00164371
0.00163475
0.00164588
0.0016326
0.00163477
0.00163263
0.0016459
0.00164371
0.00163475
0.00164588
0.0016326
0.00163477
0.00162804
0.00161466
0.00162805
0.00161466
0.00162804
0.00161466
0.00162805
0.00161466
0.00162798
0.0016258
0.0016147
0.00161687
0.00162801
0.00162582
0.00161474
0.00162798
0.0016258
0.0016147
0.00161687
0.00162801
0.00162582
0.00161474
0.00164595
0.00164595
0.00163263
0.00163255
0.00163255
0.00164594
0.00163255
0.00161466
0.00162805
0.00162793
0.00161466
0.00161466
0.00162805
0.00162805
0.00161466
0.00162805
0.00163263
0.0016459
0.00164371
0.00163475
0.00164588
0.0016326
0.00163477
0.00163256
0.00164594
0.00164594
0.00163255
0.00163263
0.00164371
0.0016459
0.00163475
0.00164588
0.00163477
0.0016326
0.00162805
0.00161466
0.00162805
0.00161466
0.00162798
0.0016258
0.0016147
0.00161687
0.00162801
0.00162582
0.00161474
0.00162805
0.00161466
0.00162805
0.00161466
0.00162798
0.0016258
0.00161687
0.0016147
0.00162582
0.00162801
0.00161474
0.00163256
0.00164594
0.00164594
0.00163255
0.00163263
0.00164371
0.0016459
0.00163475
0.00164588
0.00163477
0.0016326
0.00163256
0.00164594
0.00164594
0.00163255
0.00162798
0.0016258
0.0016147
0.00161687
0.00162801
0.00162582
0.00161474
0.00162804
0.00161466
0.00162805
0.00161466
0.00162798
0.0016258
0.00161687
0.0016147
0.00162582
0.00162801
0.00161474
0.00162804
0.00161466
0.00162805
0.00161466
0.00164595
0.00164595
0.00163263
0.00163255
0.00163255
0.00164594
0.00163256
0.00161466
0.00162805
0.00162793
0.00161466
0.00161466
0.00162805
0.00162805
0.00161466
0.00162805
0.00163263
0.00164371
0.0016459
0.00163475
0.00164588
0.00163477
0.0016326
0.00163256
0.00164594
0.00164594
0.00163255
0.00163256
0.00164594
0.00164594
0.00163255
0.00162798
0.0016258
0.00161687
0.0016147
0.00162582
0.00162801
0.00161474
0.00162798
0.0016258
0.00161687
0.0016147
0.00162582
0.00162801
0.00161474
0.00162804
0.00161466
0.00162805
0.00161466
0.00162804
0.00161466
0.00162805
0.00161466
0.00164594
0.00163256
0.00164594
0.00163256
0.00162793
0.00161466
0.00161466
0.00162805
0.00162805
0.00161466
0.00162805
0.00161466
0.00162805
0.00161015
0.00159676
0.00161015
0.00159676
0.00161016
0.00161016
0.00159684
0.00159676
0.00159676
0.00157887
0.00159226
0.00157887
0.00159226
0.00159213
0.00157887
0.00157887
0.00159226
0.00159226
0.00159677
0.00161015
0.00161015
0.00159676
0.00159684
0.00161011
0.00160792
0.00159896
0.00161009
0.0015968
0.00159898
0.00159684
0.00161011
0.00160792
0.00159896
0.00161009
0.0015968
0.00159898
0.00159225
0.00157887
0.00159226
0.00157887
0.00159225
0.00157887
0.00159226
0.00157887
0.00159219
0.00159001
0.00157891
0.00158108
0.00159222
0.00159003
0.00157895
0.00159219
0.00159001
0.00157891
0.00158108
0.00159222
0.00159003
0.00157895
0.00161016
0.00161016
0.00159684
0.00159676
0.00159676
0.00161015
0.00159676
0.00157887
0.00159226
0.00159213
0.00157887
0.00157887
0.00159226
0.00159226
0.00157887
0.00159226
0.00159684
0.00161011
0.00160792
0.00159896
0.00161009
0.00159681
0.00159898
0.00159677
0.00161015
0.00161015
0.00159676
0.00159684
0.00160792
0.00161011
0.00159896
0.00161009
0.00159898
0.00159681
0.00159226
0.00157887
0.00159226
0.00157887
0.00159219
0.00159001
0.00157891
0.00158108
0.00159222
0.00159003
0.00157895
0.00159226
0.00157887
0.00159226
0.00157887
0.00159219
0.00159001
0.00158108
0.00157891
0.00159003
0.00159222
0.00157895
0.00159677
0.00161015
0.00161015
0.00159676
0.00159684
0.00160792
0.00161011
0.00159896
0.00161009
0.00159898
0.0015968
0.00159677
0.00161015
0.00161015
0.00159676
0.00159219
0.00159001
0.00157891
0.00158108
0.00159222
0.00159003
0.00157895
0.00159225
0.00157887
0.00159226
0.00157888
0.00159219
0.00159001
0.00158108
0.00157891
0.00159003
0.00159222
0.00157895
0.00159225
0.00157887
0.00159226
0.00157887
0.00161016
0.00161016
0.00159684
0.00159676
0.00159676
0.00161015
0.00159677
0.00157887
0.00159226
0.00159213
0.00157887
0.00157887
0.00159226
0.00159226
0.00157887
0.00159226
0.00159684
0.00160792
0.00161011
0.00159896
0.00161009
0.00159898
0.00159681
0.00159677
0.00161015
0.00161015
0.00159676
0.00159677
0.00161015
0.00161015
0.00159676
0.00159219
0.00159001
0.00158108
0.00157891
0.00159003
0.00159222
0.00157895
0.00159219
0.00159001
0.00158108
0.00157891
0.00159003
0.00159222
0.00157895
0.00159225
0.00157887
0.00159226
0.00157888
0.00159225
0.00157887
0.00159226
0.00157888
0.00161015
0.00159676
0.00161015
0.00159676
0.00159213
0.00157887
0.00157887
0.00159226
0.00159226
0.00157887
0.00159226
0.00157887
0.00159226
0.00157436
0.00156098
0.00157436
0.00156098
0.00157437
0.00157437
0.00156105
0.00156097
0.00156097
0.00154308
0.00155647
0.00154308
0.00155647
0.00155635
0.00154308
0.00154308
0.00155648
0.00155648
0.00156098
0.00157436
0.00157436
0.00156098
0.00156105
0.00157432
0.00157213
0.00156317
0.0015743
0.00156102
0.00156319
0.00156105
0.00157432
0.00157213
0.00156317
0.0015743
0.00156102
0.00156319
0.00155647
0.00154308
0.00155647
0.00154309
0.00155647
0.00154308
0.00155647
0.00154309
0.0015564
0.00155423
0.00154312
0.00154529
0.00155643
0.00155424
0.00154316
0.0015564
0.00155423
0.00154312
0.00154529
0.00155643
0.00155424
0.00154316
0.00157437
0.00157437
0.00156105
0.00156097
0.00156097
0.00157436
0.00156098
0.00154308
0.00155647
0.00155635
0.00154308
0.00154308
0.00155648
0.00155648
0.00154308
0.00155647
0.00156105
0.00157432
0.00157213
0.00156317
0.0015743
0.00156102
0.00156319
0.00156098
0.00157436
0.00157436
0.00156097
0.00156105
0.00157213
0.00157432
0.00156317
0.0015743
0.00156319
0.00156102
0.00155647
0.00154308
0.00155647
0.00154309
0.0015564
0.00155423
0.00154312
0.00154529
0.00155643
0.00155424
0.00154316
0.00155647
0.00154308
0.00155647
0.00154309
0.0015564
0.00155423
0.00154529
0.00154312
0.00155424
0.00155643
0.00154316
0.00156098
0.00157436
0.00157436
0.00156098
0.00156105
0.00157213
0.00157432
0.00156317
0.0015743
0.00156319
0.00156102
0.00156098
0.00157436
0.00157436
0.00156098
0.0015564
0.00155423
0.00154312
0.00154529
0.00155643
0.00155424
0.00154316
0.00155647
0.00154308
0.00155647
0.00154309
0.0015564
0.00155423
0.00154529
0.00154312
0.00155424
0.00155643
0.00154316
0.00155647
0.00154308
0.00155647
0.00154309
0.00157437
0.00157437
0.00156105
0.00156097
0.00156097
0.00157436
0.00156098
0.00154308
0.00155647
0.00155635
0.00154308
0.00154308
0.00155648
0.00155648
0.00154308
0.00155647
0.00156105
0.00157213
0.00157432
0.00156317
0.0015743
0.00156319
0.00156102
0.00156098
0.00157436
0.00157436
0.00156098
0.00156098
0.00157436
0.00157436
0.00156098
0.0015564
0.00155423
0.00154529
0.00154312
0.00155424
0.00155643
0.00154316
0.0015564
0.00155423
0.00154529
0.00154312
0.00155424
0.00155643
0.00154316
0.00155647
0.00154308
0.00155647
0.00154309
0.00155647
0.00154308
0.00155647
0.00154309
0.00157436
0.00156098
0.00157436
0.00156098
0.00155635
0.00154308
0.00154308
0.00155648
0.00155648
0.00154308
0.00155647
0.00154308
0.00155647
0.00153857
0.00152519
0.00153857
0.00152519
0.00153858
0.00153858
0.00152527
0.00152519
0.00152519
0.0015073
0.00152068
0.0015073
0.00152068
0.00152056
0.00150729
0.00150729
0.00152069
0.00152069
0.00152519
0.00153858
0.00153857
0.00152519
0.00152527
0.00153853
0.00153635
0.00152739
0.00153851
0.00152523
0.0015274
0.00152527
0.00153853
0.00153635
0.00152739
0.00153851
0.00152523
0.0015274
0.00152068
0.00150729
0.00152068
0.0015073
0.00152068
0.00150729
0.00152068
0.0015073
0.00152062
0.00151844
0.00150734
0.00150951
0.00152064
0.00151845
0.00150737
0.00152062
0.00151844
0.00150734
0.00150951
0.00152064
0.00151845
0.00150737
0.00153858
0.00153858
0.00152527
0.00152519
0.00152519
0.00153858
0.00152519
0.0015073
0.00152068
0.00152056
0.00150729
0.00150729
0.00152069
0.00152069
0.0015073
0.00152068
0.00152527
0.00153853
0.00153635
0.00152739
0.00153851
0.00152523
0.0015274
0.00152519
0.00153858
0.00153857
0.00152519
0.00152527
0.00153635
0.00153853
0.00152739
0.00153851
0.0015274
0.00152523
0.00152068
0.00150729
0.00152068
0.0015073
0.00152062