/*--------------------------------*- C++ -*----------------------------------*\
| =========                 |                                                 |
| \\      /  F ield         | OpenFOAM: The Open Source CFD Toolbox           |
|  \\    /   O peration     | Version:  2312                                  |
|   \\  /    A nd           | Website:  www.openfoam.com                      |
|    \\/     M anipulation  |                                                 |
\*---------------------------------------------------------------------------*/
FoamFile
{
    version     2.0;
    format      ascii;
    arch        "LSB;label=32;scalar=64";
    class       surfaceScalarField;
    location    "125";
    object      phi;
}
// * * * * * * * * * * * * * * * * * * * * * * * * * * * * * * * * * * * * * //

dimensions      [0 3 -1 0 0 0 0];

oriented        oriented;

internalField   nonuniform List<scalar> 
124832
(
-8.86746e-07
-8.92812e-07
4.65478e-07
4.66302e-07
0.00114062
-0.00113977
-1.52006e-06
8.87328e-07
4.46239e-07
0.0011331
-5.21299e-07
1.1074e-06
1.15701e-07
7.09829e-07
-5.71825e-07
-1.27111e-06
4.30681e-08
-0.00113253
-8.65975e-07
-8.66514e-07
-0.0011431
4.50833e-07
4.51566e-07
0.00114393
-0.0011349
-1.51707e-06
8.66269e-07
4.19843e-07
0.00113545
-5.08847e-07
1.11774e-06
1.20975e-07
7.16831e-07
-5.54678e-07
-1.25515e-06
4.94513e-08
-0.00113478
-1.51428e-06
8.663e-07
4.25482e-07
0.00113531
-5.08904e-07
1.11498e-06
1.20901e-07
7.16817e-07
-5.54671e-07
-1.25512e-06
4.9588e-08
-0.000276242
1.5462e-06
1.50897e-06
-5.04279e-07
-5.073e-07
0.000274198
1.56305e-06
1.52311e-06
-5.13714e-07
-5.21923e-07
0.000274043
-0.000276094
-1.15949e-06
-1.1162e-06
0.000276317
-0.000274208
8.09107e-08
8.61977e-08
4.36152e-07
0.00113268
-5.2393e-07
1.15089e-06
1.1862e-07
7.15311e-07
-5.7198e-07
-1.27681e-06
4.28255e-08
-0.0011321
8.81302e-07
4.36276e-07
0.00113275
1.14821e-06
1.21211e-07
7.15221e-07
-5.71937e-07
-1.27652e-06
4.28903e-08
-0.00113216
-1.55777e-06
-5.24211e-07
0.00113436
8.70186e-07
-0.00113382
4.39434e-07
-1.55889e-06
1.2823e-07
-5.17494e-07
-1.26483e-06
4.7919e-08
-5.59024e-07
7.20865e-07
1.15412e-06
0.00113443
8.70119e-07
-0.00113389
4.28401e-07
-1.55626e-06
1.25321e-07
-5.14803e-07
-1.26455e-06
4.80341e-08
-5.58881e-07
7.20797e-07
-1.11609e-06
0.000276297
-0.000274192
8.10298e-08
8.3574e-08
4.35025e-07
0.00113367
-5.21341e-07
1.11041e-06
1.15792e-07
7.15377e-07
-5.71869e-07
-1.27659e-06
4.31976e-08
-0.00113309
-1.55503e-06
8.86701e-07
4.36444e-07
0.00113264
-5.26962e-07
1.14266e-06
1.21203e-07
7.15273e-07
-5.71849e-07
-1.27656e-06
4.01378e-08
-0.00113205
0.00113536
8.70714e-07
-0.00113481
4.27335e-07
-1.51889e-06
1.19727e-07
-5.12068e-07
-1.26458e-06
4.82564e-08
-5.58879e-07
7.2088e-07
1.14856e-06
0.00113432
8.70007e-07
-0.00113377
4.28498e-07
-1.55073e-06
1.25272e-07
-5.17583e-07
-1.26452e-06
4.53127e-08
-5.5606e-07
7.2081e-07
8.70633e-07
-0.00113436
4.32768e-07
-1.51853e-06
1.19849e-07
-5.11886e-07
-1.25903e-06
4.80886e-08
7.1535e-07
-5.58792e-07
1.14557e-06
0.00113394
8.70024e-07
-0.00113339
4.28431e-07
-1.54767e-06
1.22617e-07
-5.14511e-07
-1.25616e-06
4.22701e-08
-5.53274e-07
7.12418e-07
-5.16798e-07
-5.21604e-07
0.000274019
-0.000276055
-1.11054e-06
0.000276273
-0.000274181
8.11384e-08
8.61431e-08
7.86609e-07
2.55116e-07
0.00113317
1.06587e-06
1.04271e-07
7.12432e-07
-5.69002e-07
4.31519e-08
-1.27361e-06
-1.58831e-06
-0.00113217
-5.32281e-07
8.70543e-07
-0.00113422
4.27402e-07
-1.51297e-06
1.19786e-07
-5.11929e-07
-1.25906e-06
4.82194e-08
7.15358e-07
-5.58761e-07
1.10777e-06
0.00113492
8.70479e-07
-0.00113437
4.27277e-07
-1.51045e-06
1.19751e-07
-5.11972e-07
-1.26143e-06
4.8347e-08
-5.58695e-07
7.18071e-07
-0.000274153
8.08714e-08
8.36328e-08
1.56025e-06
1.51744e-06
-5.04437e-07
-5.09978e-07
0.000274253
4.15665e-07
0.00113491
-5.17335e-07
1.16114e-06
1.29298e-07
7.22311e-07
-5.54936e-07
-1.26097e-06
4.92445e-08
-1.55481e-06
8.65857e-07
4.26447e-07
0.00113498
-5.14545e-07
1.15578e-06
1.26421e-07
7.22307e-07
-5.54774e-07
-1.26064e-06
4.65335e-08
-5.0471e-07
-5.06851e-07
0.000274237
4.255e-07
0.0011359
-5.09115e-07
1.11785e-06
1.20806e-07
7.22379e-07
-5.54784e-07
-1.26069e-06
4.95979e-08
-1.54927e-06
8.65776e-07
4.2658e-07
0.00113486
-5.14563e-07
1.15021e-06
1.26385e-07
7.22308e-07
-5.51953e-07
-1.26062e-06
4.66625e-08
8.65678e-07
4.26513e-07
0.00113448
-5.115e-07
1.14724e-06
1.23729e-07
7.13937e-07
-5.49177e-07
4.36345e-08
-1.25225e-06
-5.04709e-07
-5.09542e-07
0.000274223
8.66235e-07
4.25324e-07
0.00113546
-5.08954e-07
1.10943e-06
1.20857e-07
7.19512e-07
-5.54575e-07
4.97206e-08
-1.25752e-06
-1.63221e-10
1.26766e-07
0.000237577
-0.000237659
-3.42193e-08
-1.00184e-08
-4.68084e-10
1.27248e-07
-1.28654e-08
0.000198065
-0.000198179
2.44661e-11
2.47523e-07
0.000237902
-7.53424e-08
-1.11999e-08
-0.000238063
9.90328e-09
4.97235e-08
0.000197842
-5.71186e-09
-0.000197896
-9.97608e-09
2.1258e-08
9.92685e-05
-9.92798e-05
1.26774e-07
-2.03978e-10
0.000237563
-0.000237646
-1.0074e-08
-3.42234e-08
-6.4962e-10
1.27203e-07
-1.27328e-08
0.000198046
-0.00019816
2.47527e-07
1.64557e-10
0.000237888
-1.1484e-08
-7.53506e-08
-0.000238049
1.0251e-08
4.96232e-08
0.000197824
-5.87849e-09
-0.000197878
4.71302e-07
4.44076e-07
0.00114038
-8.87339e-07
-0.00113953
4.65744e-07
4.93961e-07
0.00114019
-0.00113938
4.1576e-07
4.38163e-07
0.00114013
-1.05331e-06
-0.00113914
-0.00114228
4.63729e-07
4.58885e-07
0.00114288
-0.00114206
4.58293e-07
4.58794e-07
0.00114268
-0.00114185
4.58282e-07
4.588e-07
0.00114264
-0.00114181
4.58201e-07
4.58874e-07
-1.26919e-07
-1.82723e-09
0.000261333
-0.000261212
-2.76969e-08
3.55819e-08
4.26953e-07
1.11224e-06
0.00113379
8.81471e-07
-1.26709e-06
4.4714e-08
-5.67539e-07
7.11622e-07
-1.52152e-06
1.17168e-07
-5.18189e-07
-0.00113321
-9.8407e-09
-4.97917e-08
0.000254119
3.1497e-08
-0.000254115
2.38719e-08
-1.78128e-08
0.00113398
9.18889e-07
-1.3743e-06
5.68743e-07
-1.20118e-06
7.67292e-07
-0.00113322
8.26135e-10
5.01592e-08
9.93392e-05
-9.93902e-05
-9.85116e-09
2.3439e-08
9.92611e-05
-9.92747e-05
-2.96138e-10
-1.26871e-07
0.00026132
-0.000261203
3.84595e-08
-2.85011e-08
0.00113309
5.32438e-08
9.23556e-07
7.67882e-07
-1.20352e-06
-1.3771e-06
5.66466e-07
-0.00113237
-4.63376e-08
-1.27194e-07
3.52885e-07
5.2112e-08
0.000254331
-0.000254562
4.43454e-07
1.10668e-06
0.00113367
8.81475e-07
-1.26714e-06
4.48144e-08
-5.67498e-07
7.11719e-07
-1.51873e-06
1.17116e-07
-5.18226e-07
1.6719e-09
-2.47492e-07
0.000261354
5.45857e-07
-2.91504e-08
-0.000261625
1.88342e-08
0.00113382
9.1874e-07
-1.3743e-06
5.71554e-07
-1.19847e-06
7.70163e-07
-9.82447e-09
-4.96649e-08
0.000254109
3.13804e-08
-0.000254107
2.64065e-08
-1.14728e-06
-1.09838e-06
0.000276141
-0.000274047
7.05946e-08
8.10326e-08
9.83997e-09
-2.34437e-08
0.000285568
1.4428e-08
-0.000285656
8.73402e-08
9.777e-09
-2.34746e-08
0.000285485
1.50241e-08
-0.000285574
8.7311e-08
-7.1131e-11
1.10155e-07
-0.00023674
-2.91874e-08
-8.31301e-09
-0.000197528
-1.47903e-10
1.16878e-07
-1.03299e-08
0.000197422
-0.000237112
4.04266e-11
2.28111e-07
0.000236962
-6.86791e-08
-9.73882e-09
9.30607e-09
4.11801e-08
-4.28693e-09
-0.000197271
-9.91447e-05
1.48413e-09
4.68103e-08
9.90964e-05
-9.24566e-09
2.03681e-08
-9.90364e-05
1.10158e-07
-1.2958e-10
-0.000236727
-8.34166e-09
-2.91848e-08
-0.000197506
-1.47255e-09
1.1677e-07
-1.05763e-08
0.000197402
-0.000237098
2.28113e-07
2.25615e-10
0.000236949
-1.00426e-08
-6.87146e-08
9.26231e-09
4.10739e-08
-4.22439e-09
-0.000197251
4.56479e-07
4.56983e-07
0.0011437
4.56502e-07
4.57049e-07
0.0011435
4.56391e-07
4.57078e-07
0.00114346
-1.10273e-07
-1.55776e-09
-0.000260579
-2.3337e-08
2.0628e-08
-0.000253678
-4.4732e-08
-1.18847e-07
3.36919e-07
4.59158e-08
0.000253459
0.00113617
-0.00113546
2.76305e-09
9.06671e-07
7.76538e-07
-1.19101e-06
-1.36229e-06
5.77824e-07
4.28948e-07
1.11936e-06
8.61814e-07
-1.25116e-06
5.08552e-08
-5.50627e-07
7.18426e-07
-1.51555e-06
1.22062e-07
-5.05817e-07
-0.000261019
-2.28034e-07
1.69667e-09
0.000260741
-2.38287e-08
5.27605e-07
-6.68211e-09
-3.90012e-08
2.57668e-08
-0.000253247
1.38493e-08
-4.18971e-09
9.03351e-07
-1.36201e-06
5.76832e-07
-1.19132e-06
7.75603e-07
-9.9138e-05
1.43141e-09
4.6479e-08
9.90901e-05
-9.31067e-09
2.02646e-08
-9.90313e-05
-7.58809e-10
-1.10235e-07
-0.000260569
2.06405e-08
-2.33604e-08
0.00113601
-0.00113529
4.63554e-09
9.06557e-07
7.76598e-07
-1.19388e-06
-1.3651e-06
5.74985e-07
-0.00025367
-4.47952e-08
-1.16736e-07
3.34458e-07
4.59352e-08
0.000253451
4.23587e-07
1.11661e-06
8.61741e-07
-1.25116e-06
5.09857e-08
-5.50601e-07
7.18384e-07
-1.51275e-06
1.19154e-07
-5.05865e-07
-0.000261008
9.05682e-10
-2.28135e-07
0.000260732
5.27712e-07
-2.38958e-08
-3.17937e-09
9.03286e-07
-1.36209e-06
5.79641e-07
-1.18861e-06
7.78426e-07
-6.6284e-09
-4.10744e-08
2.56245e-08
-0.00025324
1.64027e-08
-0.000285089
4.49212e-08
-4.64784e-08
1.59496e-07
-4.98512e-09
0.000284936
-0.000285007
4.49387e-08
-4.64971e-08
1.54689e-07
-5.44135e-09
0.000284859
-1.14887e-06
-1.11104e-06
-0.000274239
8.55736e-08
8.83435e-08
6.62683e-09
-2.02482e-08
1.35606e-08
-0.000284709
7.51512e-08
6.57835e-09
-2.02727e-08
1.4166e-08
-0.000284631
7.9786e-08
5.22038e-08
9.93669e-05
-9.94196e-05
2.34834e-08
9.92912e-05
-9.93048e-05
5.01173e-08
9.93558e-05
-9.94065e-05
2.31116e-08
9.92771e-05
-9.929e-05
4.86792e-08
1.68932e-07
-4.40113e-09
0.000285962
-0.000286123
4.62135e-08
1.71173e-07
-4.15968e-09
0.000285883
-0.000286047
0.000276213
-1.15292e-06
-1.11243e-06
-0.000274102
7.3283e-08
8.11152e-08
0.000285622
1.21449e-08
1.7178e-08
-0.000285713
8.49757e-08
0.000285546
1.20096e-08
1.46153e-08
-0.000285634
8.47728e-08
2.1921e-08
-9.23957e-09
9.9166e-05
-9.91787e-05
4.80099e-08
1.70836e-09
9.92415e-05
2.17551e-08
-9.6276e-09
9.91543e-05
-9.91665e-05
4.7742e-08
1.39281e-09
9.9228e-05
1.56034e-06
1.52034e-06
0.000274156
-5.078e-07
-5.1596e-07
8.52529e-09
0.000285143
7.98761e-08
-0.000285224
1.40609e-08
1.07183e-08
0.000285068
7.98066e-08
-0.00028515
1.41812e-08
4.44479e-08
-7.65582e-09
1.65328e-07
0.000285468
4.42917e-08
-5.0736e-09
1.64946e-07
0.000285389
1.26737e-07
0.000237534
-0.000237617
-3.42141e-08
-9.94626e-09
1.29434e-07
-1.26573e-08
0.000197998
-6.80701e-10
-0.000198114
2.47482e-07
0.000237859
-7.53316e-08
-1.15504e-08
-0.00023802
4.75103e-08
0.000197781
-5.54384e-09
-0.000197833
-9.20076e-10
0.000261349
-0.000261229
-2.80394e-08
3.54385e-08
3.55567e-07
5.20335e-08
0.000254344
-0.000254576
0.0011335
4.01999e-09
9.23842e-07
7.73712e-07
-1.20912e-06
-1.38293e-06
5.75063e-07
-0.00113275
4.33351e-07
0.00113326
8.80951e-07
-1.56177e-06
1.22857e-07
-5.20884e-07
-1.27289e-06
4.45548e-08
-5.67689e-07
7.17208e-07
8.68902e-10
0.000261379
-2.7803e-08
5.45688e-07
-0.00026165
0.00025412
3.13738e-08
-0.000254114
2.38534e-08
-3.12038e-09
0.00113426
9.13495e-07
-1.38004e-06
5.77325e-07
-1.20683e-06
7.76034e-07
0.000261319
-0.000261202
-2.68457e-08
3.54029e-08
3.55422e-07
5.2133e-08
0.000254235
-0.000254464
-4.87772e-08
0.00113345
9.18247e-07
7.73549e-07
-1.20907e-06
-1.3826e-06
5.7505e-07
-0.00113269
4.33534e-07
0.00113332
1.15025e-06
8.81012e-07
-1.27259e-06
4.46232e-08
7.1712e-07
-5.67632e-07
-1.55924e-06
1.22639e-07
-5.23889e-07
0.000261352
-2.93844e-08
5.45637e-07
-0.00026162
0.000254011
-9.90364e-09
3.15201e-08
-0.000254009
2.38516e-08
0.0011342
9.13512e-07
-1.37971e-06
5.77315e-07
-1.20678e-06
7.75856e-07
1.2245e-11
2.37626e-07
-7.20168e-08
-1.02161e-08
0.000237421
4.47805e-08
-0.000197577
-4.55044e-09
1.21791e-07
-1.34985e-08
0.000197735
-1.4867e-10
1.17997e-07
-0.000237189
-3.09694e-08
-9.52089e-09
2.376e-07
-7.20184e-08
-1.05797e-08
0.000237379
4.4973e-08
9.57935e-09
0.000197457
-0.000197507
-4.66651e-09
1.24031e-07
-1.65379e-09
-1.08427e-08
0.000197669
1.17989e-07
0.000237069
-0.000237147
-3.10093e-08
-9.64529e-09
8.70377e-10
-2.53644e-08
5.36722e-07
0.000261075
4.25177e-07
8.75182e-07
1.15491e-06
-5.20561e-07
1.24201e-07
7.19126e-07
-5.63333e-07
4.6325e-08
-1.26888e-06
0.000253681
1.83853e-08
-0.000253675
2.87401e-08
-0.00113499
-3.28801e-09
0.00113574
9.10097e-07
-1.37379e-06
5.78878e-07
-1.19909e-06
7.80605e-07
4.62661e-08
3.46281e-07
0.000253894
4.02457e-09
9.14081e-07
7.78383e-07
-1.20157e-06
-1.37696e-06
5.76798e-07
-8.91689e-10
0.000261035
-0.000260917
-2.60697e-08
2.77256e-08
-2.71697e-08
5.36676e-07
0.000261048
4.30739e-07
-1.55776e-06
8.75196e-07
7.19087e-07
-5.63202e-07
-1.26858e-06
4.63997e-08
1.15228e-06
-5.17937e-07
1.21199e-07
-1.06758e-08
0.000253572
1.83944e-08
-0.000253563
2.86151e-08
-0.00113494
0.00113567
9.10082e-07
-1.3735e-06
5.78869e-07
-1.19905e-06
7.80447e-07
-4.67482e-08
4.88066e-08
3.46165e-07
0.000253787
9.14081e-07
7.78265e-07
-1.20152e-06
-1.37662e-06
5.76784e-07
0.000261005
-0.000260891
-2.4566e-08
2.76983e-08
0.000276196
-0.000274088
7.59367e-08
7.84484e-08
0.000285483
1.49656e-08
-0.000285574
8.74236e-08
-2.36555e-08
0.000285635
1.4515e-08
-0.000285721
8.50871e-08
9.92843e-05
-9.7885e-09
-9.92981e-05
2.22146e-08
-9.91573e-05
5.03841e-08
9.92165e-05
1.52004e-06
0.000274142
-5.10782e-07
-5.12941e-07
0.00028501
7.99431e-08
-0.000285093
1.45914e-08
-1.9641e-08
8.38968e-09
0.000285153
7.98733e-08
-0.000285236
1.42643e-08
-4.9561e-09
1.65171e-07
0.000285326
-4.76822e-08
4.66891e-08
-4.9536e-09
1.65137e-07
0.000285476
-9.70924e-09
9.91637e-05
-9.91736e-05
1.49236e-09
9.92351e-05
-1.79514e-09
0.000261342
-0.000261221
-2.75564e-08
3.54875e-08
3.52855e-07
5.20376e-08
0.000254304
-0.000254535
0.00113335
2.93529e-09
9.29069e-07
7.73459e-07
-1.20632e-06
-1.38276e-06
5.72153e-07
-0.00113261
4.32227e-07
0.00113424
8.81441e-07
-1.52179e-06
1.17195e-07
-5.18264e-07
-1.27265e-06
4.49412e-08
-5.67536e-07
7.17292e-07
1.76543e-09
0.000261371
-2.88669e-08
5.45695e-07
-0.000261642
0.000254082
3.12611e-08
-0.000254078
2.63018e-08
-4.36291e-09
0.00113411
9.18627e-07
-1.37985e-06
5.74435e-07
-1.20401e-06
7.75799e-07
1.26762e-07
0.000237522
-0.000237604
-3.42243e-08
-1.03652e-08
1.27213e-07
-1.25992e-08
0.000197986
-0.0001981
2.47481e-07
0.000237847
-7.53289e-08
-1.13008e-08
-0.000238007
4.96889e-08
0.000197764
-5.59457e-09
-0.000197818
0.00026131
-0.000261193
3.55207e-08
-2.74124e-08
0.00113331
9.23713e-07
7.73632e-07
-1.20637e-06
-1.38256e-06
5.72131e-07
-0.00113255
-4.89429e-08
3.50368e-07
5.21209e-08
0.000254222
-0.000254448
4.33647e-07
0.0011332
1.14468e-06
8.9188e-07
-1.27263e-06
4.18982e-08
7.17185e-07
-5.64796e-07
-1.55372e-06
1.22612e-07
-5.23867e-07
0.000261344
5.45757e-07
-2.92797e-08
-0.000261611
0.00113405
9.24375e-07
-1.37971e-06
5.74424e-07
-1.20408e-06
7.75945e-07
0.000253995
-9.80861e-09
3.13091e-08
-0.000253996
2.91106e-08
2.37636e-07
1.76505e-10
-1.0498e-08
-7.20409e-08
0.000237408
4.48185e-08
-0.000197556
-4.77218e-09
1.21698e-07
-1.10741e-08
0.000197715
1.18017e-07
-1.54777e-10
-0.000237176
-9.61213e-09
-3.10311e-08
1.76914e-09
-2.63977e-08
5.36732e-07
0.000261067
4.29531e-07
8.7567e-07
1.11441e-06
-5.1514e-07
1.1855e-07
7.19197e-07
-5.63153e-07
4.66953e-08
-1.26858e-06
0.000253643
2.09548e-08
-0.000253637
2.85364e-08
-0.00113484
-4.17348e-09
0.00113557
9.09822e-07
-1.37365e-06
5.78793e-07
-1.19906e-06
7.80325e-07
4.87111e-08
3.43544e-07
0.000253856
2.92887e-09
9.19382e-07
7.78138e-07
-1.20155e-06
-1.37677e-06
5.76709e-07
-1.75837e-09
0.000261027
-0.000260907
-2.50392e-08
2.49052e-08
2.37625e-07
-7.20286e-08
-1.03035e-08
0.000237367
4.48475e-08
9.68108e-09
0.000197447
-0.000197497
-4.88829e-09
1.21743e-07
-1.61383e-09
-1.08887e-08
0.000197655
1.18005e-07
0.000237057
-0.000237134
-3.10296e-08
-9.80227e-09
5.36768e-07
-2.67091e-08
0.00026104
4.2544e-07
-1.55224e-06
8.75026e-07
7.19104e-07
-5.60381e-07
-1.26855e-06
4.37051e-08
1.1467e-06
-5.20718e-07
1.24009e-07
-0.00113478
0.00113551
9.09946e-07
-1.3735e-06
5.78793e-07
-1.19911e-06
7.80489e-07
-8.31801e-09
0.000253556
2.36967e-08
-0.000253555
2.84345e-08
9.19539e-07
7.78303e-07
-1.20161e-06
-1.37663e-06
5.76699e-07
-4.69024e-08
4.87829e-08
3.41058e-07
0.000253774
0.000260996
-0.00026088
2.49254e-08
-2.48162e-08
-1.82858e-10
0.000237558
-0.000237642
-1.01777e-08
-3.222e-08
0.000197828
-5.5272e-09
-0.000197882
-1.26807e-07
0.000261302
-0.000261185
3.54891e-08
-2.75497e-08
4.49857e-07
0.00113283
8.86376e-07
-1.55057e-06
1.22819e-07
-5.20938e-07
-1.26699e-06
4.17545e-08
-5.67491e-07
7.08793e-07
-0.00113228
0.0011339
9.18869e-07
-1.37411e-06
5.71609e-07
-1.2012e-06
7.70231e-07
-0.00113315
-4.97158e-08
0.000254037
3.13568e-08
-0.000254038
2.92461e-08
0.000237519
-0.000237601
-3.42691e-08
-1.05413e-08
0.000197769
9.85106e-09
-5.58741e-09
-0.000197823
-2.37563e-07
1.52214e-09
-2.61921e-08
5.36724e-07
0.000261058
4.24116e-07
8.75701e-07
1.11426e-06
-5.15017e-07
1.18586e-07
7.13594e-07
-5.63112e-07
-1.26311e-06
4.64869e-08
-4.27274e-08
1.84416e-08
-0.000253674
2.86579e-08
-0.00113471
-5.39996e-09
9.09854e-07
-1.36805e-06
5.73158e-07
7.71889e-07
-1.1962e-06
-1.21527e-07
4.87298e-08
3.46015e-07
0.000253893
-1.21076e-09
9.13889e-07
7.72447e-07
-1.19592e-06
-1.36846e-06
5.73864e-07
-1.18138e-07
-1.59747e-09
-0.000260901
-2.54296e-08
2.7811e-08
9.21059e-11
-1.05236e-08
-7.40726e-08
0.000237405
0.000197513
-0.00019756
-4.82783e-09
-1.08615e-08
0.000197719
-1.20711e-10
0.000237093
-0.000237172
-9.87078e-09
-2.90056e-08
-2.37626e-07
5.36735e-07
-2.68822e-08
0.000261031
4.36191e-07
-1.5519e-06
8.7507e-07
7.10707e-07
-5.6033e-07
-1.2602e-06
4.06696e-08
1.14649e-06
-5.20438e-07
1.24241e-07
-0.00113465
0.00113537
9.09903e-07
-1.36789e-06
5.76028e-07
-1.19623e-06
7.74807e-07
-4.48788e-08
-8.36197e-09
0.000253598
1.83896e-08
-0.000253592
2.86377e-08
9.13891e-07
7.72623e-07
-1.19873e-06
-1.37102e-06
5.73907e-07
-1.21715e-07
-4.69112e-08
4.87654e-08
3.4356e-07
0.000253813
-1.18044e-07
0.000260985
-0.000260874
3.06363e-08
-2.48693e-08
-7.2019e-08
-1.05285e-08
0.000237364
9.67343e-09
0.000197452
-0.000197501
-4.86091e-09
-1.6069e-09
-1.08896e-08
0.00019766
0.000237054
-0.000237132
-3.10627e-08
-9.56233e-09
1.66604e-07
-5.06482e-09
0.000285824
-0.000285984
-5.02093e-08
1.68988e-07
-4.84057e-09
0.000285966
-0.000286127
0.000276171
-0.000274077
7.60143e-08
8.10178e-08
0.000285482
1.48944e-08
-0.000285573
8.97038e-08
-2.35184e-08
0.000285624
1.49204e-08
-0.000285713
8.74536e-08
7.56401e-10
9.93625e-05
-9.94135e-05
9.92844e-05
-9.88916e-09
-9.9298e-05
2.17638e-08
-9.91501e-05
4.78651e-08
9.92116e-05
1.51449e-06
0.000274131
-5.10802e-07
-5.15627e-07
0.000285003
8.44636e-08
-0.000285089
1.46285e-08
-2.18348e-08
8.34427e-09
0.000285145
8.21549e-08
-0.000285231
1.733e-08
-5.68215e-09
1.60473e-07
0.000285328
-4.78957e-08
4.66907e-08
-8.04798e-09
1.62886e-07
0.000285471
-9.70849e-09
9.91613e-05
-9.91734e-05
1.55788e-09
9.92349e-05
-1.24329e-07
0.000261288
-0.000261174
3.55621e-08
-2.58039e-08
0.00113301
9.51979e-07
7.70426e-07
-1.20352e-06
5.66411e-07
-1.37984e-06
-0.00113241
-1.27144e-07
3.55321e-07
5.21521e-08
0.00025422
-4.87982e-08
-0.000254452
3.94056e-07
0.0011338
8.75832e-07
-1.51618e-06
1.11394e-07
-5.21028e-07
-1.26963e-06
4.48917e-08
-5.64721e-07
7.14435e-07
-2.49979e-07
0.000261325
5.48395e-07
-2.912e-08
-0.000261592
0.00113373
9.1885e-07
-1.37682e-06
5.71508e-07
-1.19842e-06
7.72739e-07
-4.96031e-08
0.000253999
3.13731e-08
-0.000253997
2.63021e-08
8.98002e-11
0.000237552
-0.000237634
-1.0137e-08
-3.43122e-08
-1.26181e-08
0.000198045
-0.000198159
2.77097e-10
0.000237877
-1.15823e-08
-7.5308e-08
-0.000238038
0.000197824
-5.57013e-09
-0.000197878
0.000237512
-0.000237592
-9.86973e-09
-3.42859e-08
-1.25702e-08
0.000197982
-0.000198095
-7.96947e-10
0.000237835
-1.15119e-08
-7.52926e-08
-0.000237998
0.00019776
9.88716e-09
-5.56775e-09
-0.000197814
1.22373e-09
-2.37668e-07
5.34124e-07
-2.63163e-08
0.000261049
4.35187e-07
8.75626e-07
1.10871e-06
-5.1506e-07
1.18532e-07
7.13645e-07
-5.63085e-07
-1.2631e-06
4.66174e-08
-0.00113456
-8.51256e-10
9.09761e-07
-1.36812e-06
5.7597e-07
7.74717e-07
-1.19347e-06
-4.48113e-08
2.09773e-08
-0.000253666
2.85215e-08
1.15661e-08
9.13734e-07
7.72525e-07
-1.19877e-06
-1.37126e-06
5.71051e-07
-1.21696e-07
4.87521e-08
3.43557e-07
0.000253885
-6.88214e-10
-1.181e-07
-0.000260892
2.78335e-08
-2.56821e-08
-2.4009e-07
5.36711e-07
-2.71487e-08
0.00026102
4.24081e-07
-1.51198e-06
8.7558e-07
7.16362e-07
-5.63026e-07
-1.26546e-06
4.67309e-08
1.10593e-06
-5.15099e-07
1.18519e-07
-0.00113448
0.00113521
9.09652e-07
-1.37051e-06
5.75894e-07
-1.19342e-06
7.77301e-07
-4.47659e-08
-8.27762e-09
0.00025356
2.35758e-08
-0.000253559
2.8457e-08
9.13741e-07
7.75117e-07
-1.19871e-06
-1.37364e-06
5.70977e-07
-1.21691e-07
-4.6793e-08
4.88129e-08
3.43469e-07
0.000253775
-1.15573e-07
0.000260977
-0.000260863
2.49403e-08
-2.37522e-08
2.0629e-10
-1.05804e-08
-7.20078e-08
0.000237397
0.000197506
-0.000197556
-4.83514e-09
-1.08745e-08
0.000197714
-4.56898e-11
0.000237087
-0.000237165
-9.59377e-09
-3.11219e-08
-1.05548e-08
-7.1978e-08
0.000237355
9.6984e-09
0.000197443
-0.000197492
-4.84327e-09
-1.57357e-09
-1.08801e-08
0.000197651
0.000237047
-0.000237123
-9.34726e-09
-3.1106e-08
9.92639e-05
-9.92775e-05
9.92591e-05
-9.92727e-05
0.000274101
-5.10436e-07
-5.13392e-07
-2.17608e-08
7.97612e-08
-0.00028517
1.41335e-08
-2.17805e-08
8.43834e-08
-0.000285092
1.47644e-08
-4.78773e-08
-5.11091e-09
1.62825e-07
0.000285411
-4.78996e-08
-5.53936e-09
1.62788e-07
0.000285329
9.91408e-05
-9.91529e-05
9.92144e-05
9.91361e-05
-9.91482e-05
9.92097e-05
4.67067e-08
9.91191e-05
2.02288e-08
-9.90599e-05
4.64332e-08
9.91064e-05
2.01816e-08
-9.90477e-05
4.50685e-08
1.59671e-07
-5.06196e-09
0.00028499
4.4958e-08
1.59445e-07
-5.03198e-09
0.000284915
-1.16002e-06
-1.11947e-06
-0.000274297
8.55626e-08
9.09139e-08
6.72779e-09
1.33047e-08
-0.000284763
7.75593e-08
6.6943e-09
1.33381e-08
-0.000284687
7.51415e-08
1.10123e-07
-0.000236698
-2.91757e-08
-8.28566e-09
1.16893e-07
-1.05526e-08
0.000197352
2.28099e-07
0.00023692
-6.86959e-08
-1.00448e-08
4.11601e-08
-4.2601e-09
-0.000197204
-8.42352e-10
-0.000260595
-2.3279e-08
2.05556e-08
3.37168e-07
4.61289e-08
0.00025346
0.00113645
3.91581e-09
9.06907e-07
7.8246e-07
-1.1995e-06
-1.37081e-06
5.83554e-07
4.30287e-07
8.61511e-07
-1.55598e-06
1.2757e-07
-5.11509e-07
-1.257e-06
5.06591e-08
-5.50895e-07
7.23854e-07
8.95367e-10
0.000260758
-2.32929e-08
5.27647e-07
2.57011e-08
-0.000253248
1.66559e-08
-3.36133e-09
9.03681e-07
-1.36778e-06
5.85362e-07
-1.19704e-06
7.84267e-07
-0.000260569
-2.21921e-08
2.05185e-08
-4.23438e-08
3.37084e-07
4.59485e-08
0.000253348
0.0011364
9.06832e-07
7.82359e-07
-1.19945e-06
-1.37046e-06
5.83538e-07
4.24537e-07
1.1574e-06
8.61361e-07
-1.25667e-06
4.79682e-08
7.23868e-07
-5.47959e-07
-1.55331e-06
1.27514e-07
-5.11481e-07
0.000260731
-2.47718e-08
5.27608e-07
-9.10928e-09
2.56157e-08
-0.000253139
1.64971e-08
9.03607e-07
-1.36746e-06
5.85355e-07
-1.19699e-06
7.84164e-07
1.5948e-07
-4.48653e-09
0.000284859
-4.86612e-08
1.59419e-07
-4.82378e-09
0.000285003
-0.000274278
8.57203e-08
8.82633e-08
1.60879e-08
-0.000284629
7.52595e-08
-1.81084e-08
1.36357e-08
-0.000284775
7.52344e-08
1.40095e-09
9.91136e-05
-9.30995e-09
-9.90548e-05
-1.73553e-09
-0.000260585
-2.27124e-08
1.77257e-08
3.34493e-07
4.60377e-08
0.000253425
0.00113629
3.16562e-09
9.06648e-07
7.82215e-07
-1.19668e-06
-1.37063e-06
5.80628e-07
4.23627e-07
8.62007e-07
-1.51592e-06
1.21927e-07
-5.06076e-07
-1.25672e-06
5.10158e-08
-5.50707e-07
7.2395e-07
1.8052e-09
0.000260747
-2.43053e-08
5.30399e-07
2.56694e-08
-0.000253213
1.64163e-08
-4.03541e-09
9.03449e-07
-1.36762e-06
5.82439e-07
-1.19424e-06
7.8404e-07
1.10143e-07
-0.000236686
-2.9181e-08
-8.48113e-09
1.16794e-07
-1.068e-08
0.000197342
2.28099e-07
0.000236908
-6.87017e-08
-9.7406e-09
4.1126e-08
-4.33909e-09
-0.000197192
-0.000260558
1.77452e-08
-2.24646e-08
0.00113624
9.06735e-07
7.82391e-07
-1.19673e-06
-1.37047e-06
5.80622e-07
-4.49849e-08
3.31967e-07
4.5957e-08
0.00025334
4.24649e-07
1.15183e-06
8.61304e-07
-1.25667e-06
4.80693e-08
7.23858e-07
-5.4789e-07
-1.54776e-06
1.27488e-07
-5.11528e-07
0.00026072
5.30427e-07
-2.45172e-08
9.03531e-07
-1.36747e-06
5.82436e-07
-1.19429e-06
7.84195e-07
-6.59748e-09
2.54913e-08
-0.000253129
1.91654e-08
-9.8997e-11
-0.000236724
-8.57886e-09
-2.71613e-08
-1.06431e-08
0.000197406
1.57217e-10
0.000236945
-9.7675e-09
-7.07555e-08
-4.25302e-09
-0.000197255
-1.10176e-07
-0.000260552
2.34807e-08
-2.2312e-08
0.0011361
9.0675e-07
7.76695e-07
-1.19383e-06
5.7787e-07
-1.36487e-06
-1.16738e-07
3.37018e-07
4.59909e-08
0.000253377
4.24604e-07
8.61226e-07
-1.54469e-06
1.24842e-07
-5.0846e-07
-1.2483e-06
4.50393e-08
-5.4514e-07
7.15489e-07
-2.28113e-07
0.000260714
5.24953e-07
-2.47763e-08
9.03415e-07
-1.36186e-06
5.79708e-07
-1.19135e-06
7.78511e-07
-4.11447e-08
2.57209e-08
-0.000253165
1.38131e-08
-0.000236683
-2.92244e-08
-8.24853e-09
-1.43954e-09
-1.06534e-08
0.000197347
0.000236905
-6.87087e-08
-9.98175e-09
9.2917e-09
-4.30083e-09
-0.000197197
1.54771e-07
-5.56679e-09
0.000284856
-4.65005e-08
1.57155e-07
-7.94997e-09
0.000284998
-0.000274264
8.58537e-08
9.08588e-08
1.40464e-08
-0.000284628
7.98638e-08
-2.03229e-08
1.67452e-08
-0.00028477
7.75412e-08
1.38983e-09
9.91134e-05
-9.32622e-09
-9.90546e-05
-1.07719e-07
-0.000260541
1.77296e-08
-2.16667e-08
0.00113594
9.06407e-07
7.79201e-07
-1.19384e-06
5.74897e-07
-1.36749e-06
-1.16746e-07
3.31838e-07
4.5972e-08
0.000253344
4.23393e-07
8.61765e-07
-1.50745e-06
1.21953e-07
-5.05921e-07
-1.25351e-06
5.11246e-08
-5.50529e-07
7.2106e-07
-2.30565e-07
0.000260703
5.30324e-07
-2.52547e-08
9.03197e-07
-1.36449e-06
5.79547e-07
-1.18858e-06
7.81004e-07
-4.10436e-08
2.55461e-08
-0.000253132
1.90229e-08
-6.63213e-11
-0.000236716
-8.29448e-09
-2.93017e-08
-1.06367e-08
0.000197401
1.08615e-10
0.000236938
-1.00474e-08
-6.86649e-08
-4.27071e-09
-0.000197251
-0.000236674
-8.27866e-09
-2.9279e-08
-1.41342e-09
-1.06439e-08
0.000197338
0.000236896
-1.00331e-08
-6.86369e-08
9.32098e-09
-4.28267e-09
-0.000197187
9.90929e-05
-9.90341e-05
9.90882e-05
-9.90294e-05
5.96932e-10
6.65527e-08
0.00014558
-0.000145644
-3.37136e-09
-7.3768e-08
-1.08294e-08
-0.000237817
-1.40473e-10
2.42566e-07
-0.000173707
-3.12717e-09
-1.09788e-10
0.000173676
-0.00023051
-2.76467e-08
-1.16636e-08
0.000230439
1.00404e-07
-0.00017378
-1.0925e-10
-0.00023066
-1.40616e-08
2.19555e-07
-4.65625e-09
0.000145554
-8.03807e-05
3.29225e-09
4.03687e-09
8.03733e-05
-4.08657e-08
0.000270228
1.46068e-08
1.76533e-07
-0.000270391
-6.85751e-09
0.000198007
1.25285e-08
5.22382e-08
2.93323e-09
-8.04245e-05
1.20351e-08
0.000270142
6.98826e-08
-0.000145671
2.58771e-09
2.91089e-08
-3.57641e-08
-1.05595e-08
-3.64196e-12
1.31206e-07
-1.98625e-10
0.000173813
-8.10978e-11
-0.000173888
-6.79084e-08
0.000230734
2.24002e-07
-0.000230886
-0.000145736
-9.42259e-11
1.04437e-07
3.97479e-08
8.03302e-05
-0.000269983
-2.03685e-09
0.000269901
6.66684e-08
-1.20341e-08
-9.50313e-10
1.24574e-07
1.73028e-07
8.03235e-05
9.93324e-05
-1.0572e-08
2.23095e-08
-9.93442e-05
1.12039e-09
5.1504e-08
6.6575e-08
6.70397e-10
0.000145578
-0.000145642
-3.44394e-09
-1.11147e-08
-7.37789e-08
-0.000237803
6.78511e-12
2.42573e-07
-0.000230499
-2.76628e-08
-1.16987e-08
0.000230428
1.00414e-07
-0.000173703
-3.17554e-09
-4.96335e-11
0.000173672
-0.000230649
-1.41134e-08
2.19569e-07
-0.000173776
-3.58463e-11
-4.69689e-09
0.000145552
-8.03819e-05
3.16081e-09
4.07436e-09
8.03747e-05
-4.08381e-08
0.000270222
1.46859e-08
1.76516e-07
-0.000270385
-6.65249e-09
0.00019799
1.06017e-08
5.21235e-08
3.00444e-09
-8.04258e-05
1.211e-08
0.000270136
6.98084e-08
-0.000145669
2.91034e-08
2.633e-09
-1.03889e-08
-3.57582e-08
-6.09834e-11
1.31212e-07
-6.79174e-08
0.000230723
2.24016e-07
-0.000230876
-2.66179e-10
0.000173809
-2.08066e-11
-0.000173884
-0.000145734
1.04445e-07
-4.27571e-11
3.97643e-08
8.03315e-05
-0.000269977
-1.99861e-09
0.000269895
6.66016e-08
-1.20835e-08
-7.72141e-10
1.24508e-07
1.72996e-07
8.03248e-05
9.93249e-05
-1.03357e-08
2.45895e-08
1.18081e-09
4.90797e-08
-3.26745e-08
-3.26848e-08
0.000218956
-0.000219064
8.5618e-08
8.78967e-08
-8.19535e-05
1.77662e-08
-3.55139e-09
8.19393e-05
-8.19414e-05
1.77761e-08
-3.60171e-09
8.19273e-05
-8.1996e-05
9.80759e-09
-8.19839e-05
9.81756e-09
5.67136e-08
5.67048e-08
0.000218878
8.55818e-08
-6.01789e-08
-5.86337e-08
0.000228982
8.75893e-08
-0.000229036
9.0074e-08
1.53517e-08
0.000285818
-2.46022e-08
-0.00028591
1.07271e-08
0.000260145
1.17561e-07
-0.000260186
9.86032e-08
3.67412e-09
0.00018716
-0.000187209
8.80323e-08
-6.01729e-08
-5.65114e-08
0.000228905
8.77497e-08
-0.000228964
9.00082e-08
1.54272e-08
0.000285733
-2.46198e-08
1.06418e-08
-0.000285824
0.000260023
1.12871e-07
1.03683e-07
-0.000260061
3.72601e-09
0.000187105
-0.000187154
-1.85522e-08
-1.8561e-08
-0.000219142
-8.20109e-05
-8.19988e-05
1.38906e-07
-1.06057e-07
0.000228836
1.9829e-07
-0.000187059
5.62748e-08
0.000187014
1.68279e-07
-4.76186e-09
-4.90979e-08
4.78081e-08
-0.00025998
-8.50981e-08
0.000259942
1.11928e-07
9.79683e-08
2.96136e-07
1.76845e-07
0.000228777
8.72531e-08
1.38818e-07
-1.0411e-07
0.000228765
1.93973e-07
-0.000187006
5.83079e-08
0.000186959
1.65905e-07
-5.19004e-09
-4.91146e-08
4.77088e-08
-0.00025986
-8.73957e-08
0.000259825
1.09496e-07
1.00425e-07
2.90895e-07
1.76695e-07
0.000228707
8.51678e-08
1.31255e-09
6.16688e-08
0.00014524
-0.0001453
-3.7051e-09
-6.77484e-08
-9.34562e-09
-0.000236887
-6.37114e-11
2.23764e-07
-0.000173319
-3.72943e-09
-5.43122e-12
-0.000229672
-2.32269e-08
-9.58362e-09
8.56045e-08
-0.000173386
-9.77374e-12
-0.00022981
-1.22806e-08
2.02707e-07
-5.02736e-09
-8.01869e-05
3.02346e-10
4.49135e-09
8.01821e-05
-3.73028e-08
0.000269287
1.32005e-08
-0.000269436
1.62873e-07
-4.77767e-09
0.000197374
9.62787e-09
4.31114e-08
3.55201e-09
-8.02277e-05
1.04398e-08
0.000269214
5.78809e-08
-0.000145323
3.38419e-09
2.39783e-08
-2.99687e-08
-9.06596e-09
4.73175e-11
1.13976e-07
-1.28254e-09
0.000173412
-0.00017348
-5.99428e-11
-6.22607e-08
0.000229874
-0.000230014
2.06417e-07
-0.000145383
-2.75214e-11
8.88635e-08
3.69756e-08
8.01414e-05
-0.000269068
6.27485e-10
5.52036e-08
-1.0294e-08
-1.65668e-09
1.14865e-07
1.60167e-07
9.9084e-05
-9.62421e-09
2.20047e-08
1.71148e-09
4.59136e-08
6.16725e-08
1.31923e-09
0.000145238
-0.000145298
-3.71034e-09
-9.60277e-09
-6.77602e-08
-0.000236874
8.51161e-11
2.23751e-07
-0.00022966
-2.32262e-08
-9.6124e-09
8.56014e-08
-0.000173316
-3.74086e-09
1.53074e-11