/*--------------------------------*- C++ -*----------------------------------*\
| =========                 |                                                 |
| \\      /  F ield         | OpenFOAM: The Open Source CFD Toolbox           |
|  \\    /   O peration     | Version:  2312                                  |
|   \\  /    A nd           | Website:  www.openfoam.com                      |
|    \\/     M anipulation  |                                                 |
\*---------------------------------------------------------------------------*/
FoamFile
{
    version     2.0;
    format      ascii;
    arch        "LSB;label=32;scalar=64";
    class       volVectorField;
    location    "125";
    object      U;
}
// * * * * * * * * * * * * * * * * * * * * * * * * * * * * * * * * * * * * * //

dimensions      [0 1 -1 0 0 0 0];

internalField   nonuniform List<vector> 
42973
(
(-2.39238e-06 -2.381e-06 0.110619)
(-1.48058e-06 2.94846e-06 0.108682)
(-6.70817e-05 -6.70677e-05 0.106314)
(-2.38909e-06 -2.36026e-06 0.110619)
(-1.50448e-06 2.95268e-06 0.108683)
(2.92772e-06 -1.48062e-06 0.108682)
(-6.71328e-05 -6.70924e-05 0.106314)
(-2.4128e-06 -2.37795e-06 0.110619)
(-1.47516e-06 2.91706e-06 0.108683)
(2.901e-06 -1.44971e-06 0.108682)
(-6.71407e-05 -6.71012e-05 0.106314)
(-2.43065e-06 -2.40932e-06 0.110619)
(-1.43329e-06 2.88451e-06 0.108683)
(2.88806e-06 -1.42714e-06 0.108682)
(-6.71297e-05 -6.71298e-05 0.106314)
(-2.4223e-06 -2.42155e-06 0.110619)
(-1.41703e-06 2.87828e-06 0.108683)
(2.88655e-06 -1.41721e-06 0.108682)
(-6.71218e-05 -6.71276e-05 0.106314)
(-2.41832e-06 -2.41972e-06 0.110619)
(-1.4273e-06 2.88607e-06 0.108683)
(2.89437e-06 -1.41727e-06 0.108682)
(-6.70968e-05 -6.70949e-05 0.106314)
(-2.41715e-06 -2.41446e-06 0.110619)
(-1.41929e-06 2.89822e-06 0.108683)
(2.91162e-06 -1.42247e-06 0.108682)
(-6.705e-05 -6.70453e-05 0.106314)
(-2.42665e-06 -2.41644e-06 0.110619)
(-1.4282e-06 2.90992e-06 0.108683)
(2.90025e-06 -1.41715e-06 0.108682)
(-6.70201e-05 -6.70099e-05 0.106314)
(-2.42244e-06 -2.40981e-06 0.110619)
(-1.42711e-06 2.91685e-06 0.108683)
(2.91945e-06 -1.4197e-06 0.108682)
(-6.70638e-05 -6.70497e-05 0.106314)
(-2.42407e-06 -2.41567e-06 0.110619)
(-1.43128e-06 2.90203e-06 0.108683)
(2.91098e-06 -1.42522e-06 0.108682)
(-6.70914e-05 -6.70852e-05 0.106314)
(-2.43015e-06 -2.41934e-06 0.110619)
(-1.43388e-06 2.90344e-06 0.108683)
(2.88656e-06 -1.41983e-06 0.108682)
(-6.7083e-05 -6.70791e-05 0.106314)
(-2.42857e-06 -2.416e-06 0.110619)
(-1.4301e-06 2.90173e-06 0.108683)
(2.89849e-06 -1.4215e-06 0.108682)
(-6.70928e-05 -6.70875e-05 0.106314)
(-2.41831e-06 -2.40524e-06 0.110619)
(-1.42506e-06 2.89321e-06 0.108683)
(2.90928e-06 -1.42219e-06 0.108682)
(-6.71208e-05 -6.71142e-05 0.106314)
(-2.42289e-06 -2.40884e-06 0.110619)
(-1.42497e-06 2.89213e-06 0.108683)
(2.89405e-06 -1.41376e-06 0.108682)
(-6.7113e-05 -6.71015e-05 0.106314)
(-2.4324e-06 -2.4183e-06 0.110619)
(-1.4346e-06 2.89456e-06 0.108683)
(2.88176e-06 -1.41757e-06 0.108682)
(-6.70797e-05 -6.70642e-05 0.106314)
(-2.43303e-06 -2.41965e-06 0.110619)
(-1.43761e-06 2.90329e-06 0.108683)
(2.88953e-06 -1.42332e-06 0.108682)
(-6.70361e-05 -6.70238e-05 0.106314)
(-2.42834e-06 -2.41578e-06 0.110619)
(-1.43326e-06 2.90937e-06 0.108682)
(2.89577e-06 -1.42109e-06 0.108682)
(-6.70258e-05 -6.70163e-05 0.106314)
(-2.42201e-06 -2.41243e-06 0.110619)
(-1.43125e-06 2.90577e-06 0.108682)
(2.89917e-06 -1.42052e-06 0.108682)
(-6.70564e-05 -6.70503e-05 0.106314)
(-2.42077e-06 -2.4111e-06 0.110619)
(-1.42822e-06 2.89475e-06 0.108682)
(2.90241e-06 -1.4253e-06 0.108682)
(-6.70968e-05 -6.70951e-05 0.106314)
(-2.42058e-06 -2.41124e-06 0.110619)
(-1.42133e-06 2.88712e-06 0.108682)
(2.9021e-06 -1.42372e-06 0.108682)
(-6.7113e-05 -6.71108e-05 0.106314)
(-2.42054e-06 -2.40887e-06 0.110619)
(-1.42285e-06 2.89621e-06 0.108682)
(2.89333e-06 -1.41647e-06 0.108682)
(-6.70898e-05 -6.70812e-05 0.106314)
(-2.42544e-06 -2.41102e-06 0.110619)
(-1.42969e-06 2.90632e-06 0.108682)
(2.89212e-06 -1.41475e-06 0.108682)
(-6.70603e-05 -6.70487e-05 0.106314)
(-2.42985e-06 -2.41772e-06 0.110619)
(-1.43083e-06 2.90393e-06 0.108682)
(2.90381e-06 -1.41916e-06 0.108682)
(-6.70712e-05 -6.70609e-05 0.106314)
(-2.42801e-06 -2.41483e-06 0.110619)
(-1.42986e-06 2.89771e-06 0.108682)
(2.90783e-06 -1.42002e-06 0.108682)
(-6.70911e-05 -6.70813e-05 0.106314)
(-2.42174e-06 -2.40795e-06 0.110619)
(-1.42733e-06 2.89474e-06 0.108682)
(2.89693e-06 -1.4183e-06 0.108682)
(-6.7091e-05 -6.70807e-05 0.106314)
(-2.41161e-06 -2.39428e-06 0.110619)
(-1.44064e-06 2.90501e-06 0.108682)
(2.89371e-06 -1.42664e-06 0.108682)
(-6.70748e-05 -6.70627e-05 0.106314)
(-2.39819e-06 -2.38427e-06 0.110619)
(-1.45954e-06 2.92011e-06 0.108682)
(2.91064e-06 -1.44994e-06 0.108682)
(-6.71129e-05 -6.71051e-05 0.106314)
(6.70311e-05 6.70425e-05 0.106315)
(-7.29275e-05 -7.28635e-05 0.106514)
(3.03365e-06 1.56639e-06 0.108681)
(-3.03989e-06 1.56815e-06 0.108681)
(3.02019e-06 1.59432e-06 0.108681)
(-3.0381e-06 1.59236e-06 0.108681)
(-6.70603e-05 6.70092e-05 0.106314)
(7.29319e-05 -7.28924e-05 0.106514)
(1.48373e-06 2.96708e-06 0.108682)
(1.49279e-06 2.97757e-06 0.108682)
(1.57283e-06 -3.00988e-06 0.10868)
(-1.54198e-06 -3.00747e-06 0.10868)
(-1.49682e-06 2.94307e-06 0.108682)
(-1.57286e-06 -2.99811e-06 0.108681)
(-7.28993e-05 7.29379e-05 0.106513)
(-2.95178e-06 -1.48605e-06 0.108681)
(2.92081e-06 -1.48041e-06 0.108682)
(-2.96085e-06 -1.49453e-06 0.108681)
(7.28518e-05 7.29164e-05 0.106513)
(6.7065e-05 6.70935e-05 0.106315)
(-7.29236e-05 -7.2846e-05 0.106514)
(3.02678e-06 1.59628e-06 0.108681)
(-3.05147e-06 1.59507e-06 0.108681)
(2.98676e-06 1.57643e-06 0.108681)
(-3.00725e-06 1.56633e-06 0.108681)
(-6.70939e-05 6.70513e-05 0.106314)
(7.28973e-05 -7.28852e-05 0.106514)
(1.49162e-06 2.99148e-06 0.108682)
(1.5712e-06 -3.0168e-06 0.10868)
(1.45808e-06 2.94629e-06 0.108682)
(1.54726e-06 -2.98666e-06 0.10868)
(-1.57568e-06 -3.00467e-06 0.108681)
(-1.48255e-06 2.92055e-06 0.108683)
(-1.55164e-06 -2.95967e-06 0.108681)
(6.7043e-05 -6.71002e-05 0.106314)
(-7.28718e-05 7.29195e-05 0.106513)
(-2.97749e-06 -1.49438e-06 0.108681)
(2.88698e-06 -1.45416e-06 0.108682)
(-2.93181e-06 -1.46296e-06 0.108681)
(7.28429e-05 7.29051e-05 0.106513)
(6.70753e-05 6.71145e-05 0.106315)
(-7.29457e-05 -7.2908e-05 0.106514)
(2.98873e-06 1.56618e-06 0.108681)
(-3.00859e-06 1.55599e-06 0.108681)
(2.97499e-06 1.52148e-06 0.108681)
(-2.9849e-06 1.52192e-06 0.108681)
(-6.71283e-05 6.70574e-05 0.106315)
(7.29492e-05 -7.2925e-05 0.106514)
(1.4538e-06 2.94428e-06 0.108682)
(1.54329e-06 -3.00122e-06 0.10868)
(1.43276e-06 2.90966e-06 0.108682)
(1.51672e-06 -2.97886e-06 0.10868)
(-1.54411e-06 -2.96563e-06 0.108681)
(-1.4361e-06 2.88957e-06 0.108683)
(-1.50053e-06 -2.94835e-06 0.108681)
(6.70717e-05 -6.71175e-05 0.106314)
(-7.28813e-05 7.29023e-05 0.106513)
(-2.92901e-06 -1.45648e-06 0.108681)
(2.89085e-06 -1.43492e-06 0.108682)
(-2.89525e-06 -1.43986e-06 0.108682)
(7.28901e-05 7.29184e-05 0.106513)
(6.7095e-05 6.7097e-05 0.106315)
(-7.29814e-05 -7.29531e-05 0.106514)
(2.97305e-06 1.50995e-06 0.108681)
(-2.98185e-06 1.51518e-06 0.108681)
(2.98407e-06 1.5037e-06 0.108681)
(-2.98526e-06 1.51251e-06 0.108681)
(-6.71187e-05 6.70592e-05 0.106315)
(7.29815e-05 -7.29564e-05 0.106515)
(1.42483e-06 2.90205e-06 0.108682)
(1.51011e-06 -2.97837e-06 0.10868)
(1.42249e-06 2.90423e-06 0.108682)
(1.50861e-06 -2.98725e-06 0.108681)
(-1.48909e-06 -2.94963e-06 0.108681)
(-1.4202e-06 2.89341e-06 0.108683)
(-1.48169e-06 -2.95962e-06 0.108681)
(6.70892e-05 -6.71623e-05 0.106314)
(-7.29192e-05 7.29558e-05 0.106514)
(-2.89135e-06 -1.43211e-06 0.108682)
(2.89338e-06 -1.41815e-06 0.108682)
(-2.88988e-06 -1.43037e-06 0.108682)
(7.29267e-05 7.29476e-05 0.106513)
(6.7082e-05 6.70761e-05 0.106315)
(-7.3014e-05 -7.29832e-05 0.106514)
(2.97428e-06 1.5013e-06 0.108681)
(-2.97408e-06 1.50595e-06 0.108681)
(2.99657e-06 1.50185e-06 0.108682)
(-2.99224e-06 1.51017e-06 0.108681)
(-6.71128e-05 6.7055e-05 0.106315)
(7.30188e-05 -7.29943e-05 0.106515)
(1.42453e-06 2.89201e-06 0.108682)
(1.5084e-06 -2.98081e-06 0.108681)
(1.43594e-06 2.9152e-06 0.108682)
(1.51871e-06 -3.00272e-06 0.108681)
(-1.48114e-06 -2.95103e-06 0.108681)
(-1.42312e-06 2.9003e-06 0.108683)
(-1.48241e-06 -2.97086e-06 0.108681)
(6.70917e-05 -6.71511e-05 0.106314)
(-7.29566e-05 7.29937e-05 0.106514)
(-2.88012e-06 -1.4319e-06 0.108682)
(2.91194e-06 -1.42515e-06 0.108682)
(-2.90078e-06 -1.44128e-06 0.108682)
(7.29623e-05 7.29895e-05 0.106513)
(6.70537e-05 6.70523e-05 0.106315)
(-7.30415e-05 -7.30034e-05 0.106514)
(2.98186e-06 1.50112e-06 0.108682)
(-2.97957e-06 1.51137e-06 0.108681)
(3.00095e-06 1.51321e-06 0.108682)
(-3.00404e-06 1.51956e-06 0.108681)
(-6.70829e-05 6.7025e-05 0.106315)
(7.30453e-05 -7.30173e-05 0.106515)
(1.42992e-06 2.90336e-06 0.108682)
(1.51104e-06 -2.98659e-06 0.108681)
(1.43017e-06 2.9252e-06 0.108682)
(1.51861e-06 -3.00772e-06 0.108681)
(-1.48088e-06 -2.95582e-06 0.108681)
(-1.42334e-06 2.90989e-06 0.108683)
(-1.49091e-06 -2.97632e-06 0.108681)
(6.70614e-05 -6.71203e-05 0.106315)
(-7.29851e-05 7.30231e-05 0.106514)
(-2.88791e-06 -1.4336e-06 0.108682)
(2.91559e-06 -1.42641e-06 0.108682)
(-2.91219e-06 -1.43941e-06 0.108682)
(7.29901e-05 7.30222e-05 0.106513)
(6.70087e-05 6.70139e-05 0.106315)
(-7.30364e-05 -7.29985e-05 0.106514)
(2.99332e-06 1.51e-06 0.108682)
(-2.99453e-06 1.5162e-06 0.108681)
(2.99769e-06 1.49951e-06 0.108682)
(-2.99723e-06 1.50031e-06 0.108681)
(-6.70388e-05 6.69855e-05 0.106315)
(7.30405e-05 -7.30183e-05 0.106515)
(1.42897e-06 2.91774e-06 0.108682)
(1.51798e-06 -3.00469e-06 0.108681)
(1.4191e-06 2.92425e-06 0.108682)
(1.51063e-06 -2.99999e-06 0.108681)
(-1.48708e-06 -2.96982e-06 0.108681)
(-1.41774e-06 2.90805e-06 0.108683)
(-1.48003e-06 -2.97107e-06 0.108681)
(6.7016e-05 -6.70737e-05 0.106315)
(-7.29753e-05 7.30157e-05 0.106514)
(-2.90601e-06 -1.43874e-06 0.108682)
(2.90769e-06 -1.41562e-06 0.108682)
(-2.90969e-06 -1.4258e-06 0.108682)
(7.29781e-05 7.30124e-05 0.106513)
(6.69794e-05 6.69854e-05 0.106315)
(-7.29928e-05 -7.2949e-05 0.106514)
(2.99779e-06 1.50643e-06 0.108682)
(-2.99935e-06 1.50767e-06 0.108681)
(3.00244e-06 1.51657e-06 0.108681)
(-3.00696e-06 1.52203e-06 0.108681)
(-6.7011e-05 6.6949e-05 0.106315)
(7.29954e-05 -7.29691e-05 0.106514)
(1.4198e-06 2.92743e-06 0.108682)
(1.50911e-06 -2.9916e-06 0.108681)
(1.43182e-06 2.93712e-06 0.108682)
(1.50824e-06 -2.99581e-06 0.108681)
(-1.48648e-06 -2.97057e-06 0.108681)
(-1.42356e-06 2.91527e-06 0.108683)
(-1.4913e-06 -2.96952e-06 0.108681)
(6.69896e-05 -6.70454e-05 0.106314)
(-7.29618e-05 7.29928e-05 0.106514)
(-2.91221e-06 -1.42409e-06 0.108682)
(2.91053e-06 -1.41725e-06 0.108682)
(-2.9146e-06 -1.43288e-06 0.108682)
(7.2912e-05 7.29536e-05 0.106513)
(6.70007e-05 6.70093e-05 0.106315)
(-7.29775e-05 -7.29407e-05 0.106514)
(3.00821e-06 1.51209e-06 0.108681)
(-3.01285e-06 1.51884e-06 0.108681)
(2.99169e-06 1.51166e-06 0.108681)
(-2.99653e-06 1.51452e-06 0.108681)
(-6.70292e-05 6.69736e-05 0.106315)
(7.29761e-05 -7.29575e-05 0.106514)
(1.42782e-06 2.94048e-06 0.108682)
(1.50937e-06 -3.01192e-06 0.108681)
(1.42981e-06 2.91933e-06 0.108682)
(1.5179e-06 -2.99423e-06 0.10868)
(-1.49097e-06 -2.98365e-06 0.108681)
(-1.42834e-06 2.89859e-06 0.108683)
(-1.49226e-06 -2.9616e-06 0.108681)
(6.69856e-05 -6.70493e-05 0.106314)
(-7.29034e-05 7.2946e-05 0.106513)
(-2.92907e-06 -1.4346e-06 0.108682)
(2.90045e-06 -1.42323e-06 0.108682)
(-2.90163e-06 -1.43296e-06 0.108682)
(7.28964e-05 7.29275e-05 0.106513)
(6.70076e-05 6.70115e-05 0.106315)
(-7.29662e-05 -7.29289e-05 0.106514)
(2.99988e-06 1.51349e-06 0.108681)
(-3.00481e-06 1.51643e-06 0.108681)
(2.98232e-06 1.50527e-06 0.108681)
(-2.99507e-06 1.50881e-06 0.108681)
(-6.70455e-05 6.69795e-05 0.106315)
(7.2972e-05 -7.29533e-05 0.106514)
(1.4342e-06 2.92778e-06 0.108682)
(1.51888e-06 -3.00607e-06 0.10868)
(1.42172e-06 2.91038e-06 0.108682)
(1.5089e-06 -2.9913e-06 0.10868)
(-1.49355e-06 -2.96594e-06 0.108681)
(-1.42768e-06 2.89673e-06 0.108683)
(-1.48694e-06 -2.96563e-06 0.108681)
(6.70264e-05 -6.70814e-05 0.106314)
(-7.28949e-05 7.29301e-05 0.106513)
(-2.90602e-06 -1.43745e-06 0.108682)
(2.89047e-06 -1.41941e-06 0.108682)
(-2.90543e-06 -1.43435e-06 0.108682)
(7.2922e-05 7.29515e-05 0.106513)
(6.70091e-05 6.70151e-05 0.106315)
(-7.29363e-05 -7.28982e-05 0.106514)
(2.99258e-06 1.50687e-06 0.108681)
(-3.00577e-06 1.50997e-06 0.108681)
(2.97329e-06 1.50542e-06 0.108681)
(-2.98666e-06 1.51119e-06 0.108681)
(-6.70445e-05 6.69766e-05 0.106315)
(7.29442e-05 -7.29179e-05 0.106514)
(1.42098e-06 2.92131e-06 0.108682)
(1.50603e-06 -2.98969e-06 0.10868)
(1.42303e-06 2.90582e-06 0.108682)
(1.51126e-06 -3.00267e-06 0.10868)
(-1.48812e-06 -2.96247e-06 0.108681)
(-1.42322e-06 2.89099e-06 0.108683)
(-1.48956e-06 -2.96268e-06 0.108681)
(6.70607e-05 -6.71189e-05 0.106314)
(-7.2957e-05 7.29836e-05 0.106513)
(-2.90314e-06 -1.42893e-06 0.108682)
(2.90453e-06 -1.42267e-06 0.108682)
(-2.90366e-06 -1.43651e-06 0.108682)
(7.29017e-05 7.29357e-05 0.106513)
(6.70495e-05 6.70544e-05 0.106315)
(-7.29603e-05 -7.29147e-05 0.106514)
(2.98409e-06 1.50669e-06 0.108681)
(-3.00013e-06 1.51345e-06 0.108681)
(2.98494e-06 1.51276e-06 0.108681)
(-2.98609e-06 1.51665e-06 0.108681)
(-6.70682e-05 6.70105e-05 0.106315)
(7.29385e-05 -7.2908e-05 0.106514)
(1.42211e-06 2.91614e-06 0.108682)
(1.50777e-06 -2.99933e-06 0.10868)
(1.42406e-06 2.91686e-06 0.108682)
(1.51409e-06 -2.99417e-06 0.10868)
(-1.48881e-06 -2.96939e-06 0.108681)
(-1.42082e-06 2.89653e-06 0.108683)
(-1.48831e-06 -2.95753e-06 0.108681)
(6.70227e-05 -6.70881e-05 0.106314)
(-7.29333e-05 7.29661e-05 0.106513)
(-2.90975e-06 -1.4345e-06 0.108682)
(2.89982e-06 -1.4221e-06 0.108682)
(-2.89771e-06 -1.43533e-06 0.108681)
(7.28823e-05 7.29161e-05 0.106513)
(6.70703e-05 6.70817e-05 0.106315)
(-7.30222e-05 -7.29805e-05 0.106514)
(2.97942e-06 1.51047e-06 0.108681)
(-2.98405e-06 1.51552e-06 0.108681)
(3.00092e-06 1.51301e-06 0.108681)
(-2.9978e-06 1.5143e-06 0.108681)
(-6.71117e-05 6.70586e-05 0.106315)
(7.29977e-05 -7.29766e-05 0.106514)
(1.42274e-06 2.91178e-06 0.108682)
(1.51517e-06 -3.0028e-06 0.10868)
(1.42672e-06 2.93406e-06 0.108682)
(1.5115e-06 -2.97766e-06 0.10868)
(-1.48658e-06 -2.95648e-06 0.108681)
(-1.42365e-06 2.90946e-06 0.108683)
(-1.48437e-06 -2.95303e-06 0.108681)
(6.70084e-05 -6.70694e-05 0.106314)
(-7.28941e-05 7.29329e-05 0.106513)
(-2.89825e-06 -1.43442e-06 0.108681)
(2.88671e-06 -1.41221e-06 0.108682)
(-2.89809e-06 -1.42713e-06 0.108681)
(7.29253e-05 7.29619e-05 0.106513)
(6.70195e-05 6.70273e-05 0.106315)
(-7.30224e-05 -7.29825e-05 0.106514)
(2.99026e-06 1.5087e-06 0.108681)
(-2.98511e-06 1.51026e-06 0.108681)
(2.9952e-06 1.50985e-06 0.108681)
(-3.00902e-06 1.51089e-06 0.108681)
(-6.70892e-05 6.70269e-05 0.106315)
(7.30358e-05 -7.30277e-05 0.106514)
(1.42395e-06 2.92478e-06 0.108682)
(1.51051e-06 -2.9863e-06 0.10868)
(1.4263e-06 2.92702e-06 0.108682)
(1.50521e-06 -2.97418e-06 0.10868)
(-1.48373e-06 -2.94301e-06 0.108681)
(-1.43227e-06 2.9087e-06 0.108682)
(-1.49417e-06 -2.96693e-06 0.108681)
(6.70332e-05 -6.70904e-05 0.106314)
(-7.28897e-05 7.29189e-05 0.106513)
(-2.89041e-06 -1.42531e-06 0.108681)
(2.87672e-06 -1.41398e-06 0.108682)
(-2.91448e-06 -1.43022e-06 0.108681)
(7.29673e-05 7.30087e-05 0.106513)
(6.69809e-05 6.69877e-05 0.106315)
(-7.29815e-05 -7.29395e-05 0.106514)
(2.99698e-06 1.5091e-06 0.108681)
(-3.00051e-06 1.50818e-06 0.108681)
(2.9829e-06 1.51201e-06 0.108681)
(-3.00584e-06 1.51415e-06 0.108681)
(-6.7043e-05 6.69682e-05 0.106315)
(7.30287e-05 -7.30157e-05 0.106514)
(1.42647e-06 2.92921e-06 0.108682)
(1.50733e-06 -2.98203e-06 0.10868)
(1.42564e-06 2.91301e-06 0.108682)
(1.51237e-06 -2.99279e-06 0.10868)
(-1.49348e-06 -2.95529e-06 0.108681)
(-1.43656e-06 2.90449e-06 0.108682)
(-1.49962e-06 -2.97199e-06 0.108681)
(6.70649e-05 -6.71311e-05 0.106314)
(-7.29037e-05 7.29337e-05 0.106513)
(-2.90353e-06 -1.42872e-06 0.108681)
(2.89386e-06 -1.42343e-06 0.108682)
(-2.9168e-06 -1.43578e-06 0.108681)
(7.2984e-05 7.30233e-05 0.106513)
(6.69984e-05 6.70081e-05 0.106315)
(-7.29481e-05 -7.29067e-05 0.106514)
(2.99209e-06 1.51531e-06 0.108681)
(-3.00498e-06 1.51622e-06 0.108681)
(2.97377e-06 1.51415e-06 0.108681)
(-2.99224e-06 1.52103e-06 0.108681)
(-6.70134e-05 6.69449e-05 0.106315)
(7.29983e-05 -7.29713e-05 0.106514)
(1.42774e-06 2.92349e-06 0.108682)
(1.51292e-06 -2.98874e-06 0.10868)
(1.4265e-06 2.90605e-06 0.108682)
(1.51938e-06 -3.00149e-06 0.10868)
(-1.49686e-06 -2.96645e-06 0.108681)
(-1.42983e-06 2.90113e-06 0.108682)
(-1.49714e-06 -2.96696e-06 0.108681)
(6.70849e-05 -6.71491e-05 0.106314)
(-7.29396e-05 7.29759e-05 0.106513)
(-2.91082e-06 -1.43389e-06 0.108681)
(2.90818e-06 -1.42475e-06 0.108682)
(-2.91104e-06 -1.43623e-06 0.108681)
(7.29584e-05 7.29948e-05 0.106513)
(6.70358e-05 6.70437e-05 0.106315)
(-7.29371e-05 -7.28988e-05 0.106514)
(2.98373e-06 1.51549e-06 0.108681)
(-3.00218e-06 1.52248e-06 0.108681)
(2.97953e-06 1.51377e-06 0.108681)
(-2.98774e-06 1.521e-06 0.108681)
(-6.70184e-05 6.6962e-05 0.106314)
(7.29552e-05 -7.29281e-05 0.106514)
(1.4283e-06 2.91525e-06 0.108682)
(1.5177e-06 -2.9889e-06 0.10868)
(1.42938e-06 2.90918e-06 0.108682)
(1.52155e-06 -3.00437e-06 0.10868)
(-1.49582e-06 -2.97388e-06 0.108681)
(-1.42611e-06 2.89721e-06 0.108682)
(-1.49382e-06 -2.96056e-06 0.108681)
(6.70666e-05 -6.71244e-05 0.106314)
(-7.29745e-05 7.30108e-05 0.106513)
(-2.91781e-06 -1.43577e-06 0.108681)
(2.91275e-06 -1.42417e-06 0.108682)
(-2.90384e-06 -1.43466e-06 0.108681)
(7.29122e-05 7.29456e-05 0.106513)
(6.70684e-05 6.70724e-05 0.106315)
(-7.29522e-05 -7.29144e-05 0.106514)
(2.98341e-06 1.51284e-06 0.108681)
(-2.99972e-06 1.52126e-06 0.108681)
(2.98404e-06 1.50998e-06 0.108681)
(-2.98509e-06 1.51571e-06 0.108681)
(-6.70569e-05 6.7e-05 0.106314)
(7.29381e-05 -7.29119e-05 0.106514)
(1.42976e-06 2.91077e-06 0.108682)
(1.51773e-06 -2.99252e-06 0.10868)
(1.42809e-06 2.91285e-06 0.108682)
(1.51849e-06 -3.00538e-06 0.10868)
(-1.49429e-06 -2.97309e-06 0.108681)
(-1.42347e-06 2.89252e-06 0.108682)
(-1.48993e-06 -2.95825e-06 0.108681)
(6.70278e-05 -6.70871e-05 0.106314)
(-7.29838e-05 7.30149e-05 0.106513)
(-2.91507e-06 -1.43678e-06 0.108681)
(2.90753e-06 -1.427e-06 0.108682)
(-2.8974e-06 -1.43719e-06 0.108681)
(7.28851e-05 7.29134e-05 0.106513)
(6.70775e-05 6.70817e-05 0.106315)
(-7.29779e-05 -7.29399e-05 0.106514)
(2.98083e-06 1.51e-06 0.108681)
(-2.98941e-06 1.51723e-06 0.108681)
(2.98742e-06 1.50981e-06 0.108681)
(-2.98891e-06 1.51721e-06 0.108681)
(-6.70938e-05 6.7037e-05 0.106314)
(7.29697e-05 -7.29396e-05 0.106514)
(1.42833e-06 2.90925e-06 0.108682)
(1.51569e-06 -3.00169e-06 0.10868)
(1.42711e-06 2.91528e-06 0.108682)
(1.51684e-06 -2.99562e-06 0.10868)
(-1.49182e-06 -2.96565e-06 0.108681)
(-1.4201e-06 2.8987e-06 0.108682)
(-1.48795e-06 -2.96156e-06 0.108681)
(6.69943e-05 -6.70587e-05 0.106314)
(-7.29541e-05 7.29861e-05 0.106513)
(-2.90397e-06 -1.43939e-06 0.108681)
(2.89755e-06 -1.42469e-06 0.108682)
(-2.89838e-06 -1.43691e-06 0.108681)
(7.29022e-05 7.29304e-05 0.106513)
(6.70703e-05 6.70752e-05 0.106315)
(-7.30171e-05 -7.2977e-05 0.106514)
(2.9758e-06 1.50683e-06 0.108681)
(-2.97888e-06 1.51517e-06 0.108681)
(2.99519e-06 1.51137e-06 0.108681)
(-3.00116e-06 1.51847e-06 0.108681)
(-6.70982e-05 6.70451e-05 0.106314)
(7.30235e-05 -7.29977e-05 0.106514)
(1.42489e-06 2.90471e-06 0.108682)
(1.51625e-06 -2.99971e-06 0.10868)
(1.42679e-06 2.92559e-06 0.108682)
(1.51198e-06 -2.98647e-06 0.10868)
(-1.48599e-06 -2.95548e-06 0.108681)
(-1.42253e-06 2.91111e-06 0.108682)
(-1.4894e-06 -2.96806e-06 0.108681)
(6.69979e-05 -6.706e-05 0.106314)
(-7.29276e-05 7.2961e-05 0.106513)
(-2.89367e-06 -1.43468e-06 0.108681)
(2.89098e-06 -1.41764e-06 0.108682)
(-2.90924e-06 -1.43394e-06 0.108681)
(7.29446e-05 7.2979e-05 0.106513)
(6.70411e-05 6.70488e-05 0.106315)
(-7.3041e-05 -7.29978e-05 0.106514)
(2.98137e-06 1.5072e-06 0.108681)
(-2.98986e-06 1.51387e-06 0.108681)
(2.99837e-06 1.51307e-06 0.108681)
(-3.00141e-06 1.51517e-06 0.108681)
(-6.70564e-05 6.69986e-05 0.106315)
(7.30251e-05 -7.30055e-05 0.106514)
(1.42263e-06 2.91205e-06 0.108682)
(1.51229e-06 -2.98868e-06 0.10868)
(1.42435e-06 2.93168e-06 0.108682)
(1.51075e-06 -2.99295e-06 0.10868)
(-1.48569e-06 -2.95644e-06 0.108681)
(-1.42584e-06 2.908e-06 0.108682)
(-1.49267e-06 -2.96817e-06 0.10868)
(6.7028e-05 -6.70889e-05 0.106314)
(-7.29481e-05 7.29804e-05 0.106513)
(-2.89984e-06 -1.43009e-06 0.108681)
(2.8965e-06 -1.418e-06 0.108682)
(-2.91371e-06 -1.43166e-06 0.108681)
(7.29605e-05 7.2998e-05 0.106513)
(6.70011e-05 6.70111e-05 0.106315)
(-7.30165e-05 -7.29751e-05 0.106514)
(2.99213e-06 1.51134e-06 0.108681)
(-3.00427e-06 1.51484e-06 0.108681)
(2.99335e-06 1.51197e-06 0.108681)
(-2.99442e-06 1.5131e-06 0.108681)
(-6.7024e-05 6.69591e-05 0.106314)
(7.29812e-05 -7.29623e-05 0.106514)
(1.4221e-06 2.92492e-06 0.108682)
(1.50865e-06 -2.98913e-06 0.10868)
(1.42631e-06 2.9254e-06 0.108682)
(1.51631e-06 -3.00363e-06 0.10868)
(-1.49143e-06 -2.96525e-06 0.10868)
(-1.42761e-06 2.89845e-06 0.108682)
(-1.49297e-06 -2.96231e-06 0.10868)
(6.7022e-05 -6.70854e-05 0.106314)
(-7.2976e-05 7.30099e-05 0.106513)
(-2.91273e-06 -1.43026e-06 0.108681)
(2.90695e-06 -1.42313e-06 0.108682)
(-2.90808e-06 -1.43166e-06 0.108681)
(7.29309e-05 7.29679e-05 0.106513)
(6.69914e-05 6.69989e-05 0.106315)
(-7.29752e-05 -7.29341e-05 0.106514)
(2.996e-06 1.50932e-06 0.108681)
(-3.00303e-06 1.51255e-06 0.108681)
(2.98387e-06 1.5123e-06 0.108681)
(-2.99063e-06 1.51591e-06 0.108681)
(-6.70439e-05 6.69791e-05 0.106314)
(7.29528e-05 -7.293e-05 0.106514)
(1.42384e-06 2.92732e-06 0.108682)
(1.51258e-06 -3.00096e-06 0.10868)
(1.42561e-06 2.91565e-06 0.108682)
(1.51592e-06 -2.99646e-06 0.10868)
(-1.49104e-06 -2.96369e-06 0.10868)
(-1.42692e-06 2.89598e-06 0.108682)
(-1.49406e-06 -2.96291e-06 0.10868)
(6.69908e-05 -6.70526e-05 0.106314)
(-7.29532e-05 7.29868e-05 0.106513)
(-2.9097e-06 -1.42993e-06 0.108681)
(2.90022e-06 -1.42199e-06 0.108682)
(-2.9085e-06 -1.43318e-06 0.108681)
(7.29312e-05 7.29677e-05 0.106513)
(6.70244e-05 6.70322e-05 0.106314)
(-7.29647e-05 -7.29219e-05 0.106514)
(2.99012e-06 1.51158e-06 0.108681)
(-2.99479e-06 1.51507e-06 0.108681)
(2.98428e-06 1.51001e-06 0.108681)
(-2.99655e-06 1.51646e-06 0.108681)
(-6.70818e-05 6.7022e-05 0.106314)
(7.29682e-05 -7.29437e-05 0.106514)
(1.42582e-06 2.92187e-06 0.108682)
(1.51427e-06 -3.00413e-06 0.10868)
(1.4246e-06 2.91613e-06 0.108682)
(1.51488e-06 -2.98801e-06 0.10868)
(-1.49095e-06 -2.95813e-06 0.10868)
(-1.42566e-06 2.90327e-06 0.108682)
(-1.49321e-06 -2.96934e-06 0.10868)
(6.69931e-05 -6.70543e-05 0.106314)
(-7.29125e-05 7.29456e-05 0.106513)
(-2.90414e-06 -1.42999e-06 0.108681)
(2.89185e-06 -1.42077e-06 0.108682)
(-2.91423e-06 -1.43364e-06 0.108681)
(7.29538e-05 7.29906e-05 0.106513)
(6.70589e-05 6.70693e-05 0.106315)
(-7.2995e-05 -7.2947e-05 0.106514)
(2.98137e-06 1.51019e-06 0.108681)
(-2.99094e-06 1.51537e-06 0.108681)
(2.99841e-06 1.52511e-06 0.108681)
(-3.01119e-06 1.52896e-06 0.108681)
(-6.71012e-05 6.7043e-05 0.106314)
(7.29964e-05 -7.29715e-05 0.106514)
(1.42298e-06 2.91532e-06 0.108682)
(1.51334e-06 -2.9939e-06 0.10868)
(1.43476e-06 2.93705e-06 0.108682)
(1.52089e-06 -2.99706e-06 0.10868)
(-1.49005e-06 -2.95765e-06 0.10868)
(-1.43926e-06 2.91837e-06 0.108682)
(-1.50689e-06 -2.98091e-06 0.10868)
(6.70359e-05 -6.70982e-05 0.106314)
(-7.29137e-05 7.2945e-05 0.106513)
(-2.90472e-06 -1.42905e-06 0.108681)
(2.89911e-06 -1.42954e-06 0.108682)
(-2.92981e-06 -1.445e-06 0.108681)
(7.29608e-05 7.3e-05 0.106513)
(6.70562e-05 6.70706e-05 0.106315)
(-7.29923e-05 -7.29484e-05 0.106514)
(2.98951e-06 1.52395e-06 0.108681)
(-3.00046e-06 1.52736e-06 0.108681)
(3.01256e-06 1.5451e-06 0.108681)
(-3.02019e-06 1.54744e-06 0.108681)
(-6.70921e-05 6.70339e-05 0.106314)
(7.29977e-05 -7.29695e-05 0.106514)
(1.43376e-06 2.92761e-06 0.108682)
(1.51825e-06 -2.9927e-06 0.10868)
(1.45561e-06 2.94993e-06 0.108682)
(1.53697e-06 -3.00668e-06 0.10868)
(-1.50373e-06 -2.97374e-06 0.10868)
(-1.45702e-06 2.93062e-06 0.108682)
(-1.52165e-06 -2.98135e-06 0.10868)
(6.70606e-05 -6.71248e-05 0.106314)
(-7.29125e-05 7.2943e-05 0.106513)
(-2.92368e-06 -1.4422e-06 0.108681)
(2.90816e-06 -1.44798e-06 0.108682)
(-2.92747e-06 -1.46152e-06 0.108681)
(7.29039e-05 7.29398e-05 0.106513)
(6.70659e-05 6.70759e-05 0.106315)
(3.00731e-06 1.54383e-06 0.108681)
(-3.01548e-06 1.54788e-06 0.108681)
(-6.70971e-05 6.70414e-05 0.106314)
(1.45492e-06 2.94154e-06 0.108682)
(1.53955e-06 -3.00955e-06 0.10868)
(-1.5239e-06 -2.98972e-06 0.10868)
(6.70697e-05 -6.71338e-05 0.106314)
(-2.93353e-06 -1.46458e-06 0.108681)
(-1.54626e-07 -1.06588e-05 0.0926976)
(2.26265e-07 9.59185e-06 0.0825273)
(-1.4001e-07 9.40872e-06 0.0926376)
(-2.20248e-06 -8.56443e-06 0.0825924)
(-2.54991e-06 4.25235e-06 0.0714413)
(2.74203e-06 -3.91333e-06 0.0715071)
(-1.06632e-05 -6.62513e-08 0.0926974)
(9.54636e-06 2.85604e-07 0.0825276)
(9.40808e-06 -4.4902e-08 0.0926372)
(-8.60772e-06 -2.15336e-06 0.0825926)
(2.39747e-06 -2.38409e-06 0.110619)
(2.37994e-06 2.393e-06 0.110618)
(-2.38069e-06 -2.35724e-06 0.110619)
(2.37707e-06 -2.36532e-06 0.110619)
(-2.38384e-06 2.39557e-06 0.110619)
(2.35827e-06 2.38216e-06 0.110618)
(1.9124e-05 -6.05274e-08 0.100926)
(-1.57817e-05 4.39974e-06 0.0942411)
(-2.10404e-06 -6.61622e-07 0.109933)
(-1.48376e-06 2.94321e-06 0.108682)
(-1.89083e-05 1.58236e-08 0.100821)
(1.32498e-05 -5.59005e-06 0.0943436)
(-2.10493e-06 -6.4708e-07 0.109933)
(-4.00458e-06 2.81606e-06 0.0715048)
(-1.33341e-07 1.91132e-05 0.100925)
(-6.35599e-07 -2.11004e-06 0.109932)
(2.92908e-06 -1.47493e-06 0.108682)
(-1.05883e-08 -1.89329e-05 0.100821)
(-6.29807e-07 -2.11979e-06 0.109933)
(-5.65329e-06 1.32811e-05 0.0943417)
(-5.74616e-06 -5.5231e-06 0.0882094)
(-5.53987e-06 -5.71318e-06 0.0882084)
(7.28432e-05 7.28942e-05 0.106513)
(4.17749e-06 5.17191e-06 0.0882736)
(5.16053e-06 4.2009e-06 0.0882714)
(-1.42774e-07 -1.06618e-05 0.0926974)
(2.48962e-07 9.57931e-06 0.082527)
(-1.26299e-07 9.42532e-06 0.0926374)
(-2.1631e-06 -8.58573e-06 0.0825922)
(-2.55924e-06 4.24349e-06 0.0714411)
(2.71372e-06 -3.9327e-06 0.0715068)
(-1.06619e-05 -1.20579e-07 0.0926973)
(9.56426e-06 2.60709e-07 0.0825273)
(9.42474e-06 -8.0688e-08 0.0926371)
(-8.59929e-06 -2.16514e-06 0.0825923)
(2.38094e-06 -2.37006e-06 0.110619)
(-2.39243e-06 2.40317e-06 0.110619)
(2.3597e-06 2.38885e-06 0.110619)
(-2.39395e-06 -2.35801e-06 0.110619)
(2.37669e-06 -2.36451e-06 0.110619)
(-2.39931e-06 2.40566e-06 0.110619)
(2.35612e-06 2.39421e-06 0.110619)
(1.91251e-05 -6.16121e-08 0.100926)
(-1.58143e-05 4.39938e-06 0.0942409)
(-2.14271e-06 -6.58884e-07 0.109933)
(-1.50017e-06 2.95354e-06 0.108683)
(-1.89312e-05 1.85677e-08 0.100821)
(1.32543e-05 -5.58239e-06 0.0943434)
(-2.13239e-06 -6.52335e-07 0.109933)
(4.3215e-06 -2.62694e-06 0.0714436)
(-4.02657e-06 2.77315e-06 0.0715046)
(-1.12884e-07 1.91234e-05 0.100925)
(-6.62955e-07 -2.12732e-06 0.109933)
(4.37617e-06 -1.58339e-05 0.094242)
(2.91618e-06 -1.47446e-06 0.108682)
(-2.05291e-08 -1.89452e-05 0.100821)
(-6.57698e-07 -2.12449e-06 0.109933)
(-5.60998e-06 1.32966e-05 0.0943416)
(-5.74365e-06 -5.53865e-06 0.0882092)
(-5.5229e-06 -5.73577e-06 0.0882081)
(7.29083e-05 7.29678e-05 0.106513)
(4.20327e-06 5.13739e-06 0.0882733)
(5.17626e-06 4.19551e-06 0.0882712)
(-1.26211e-07 -1.06687e-05 0.0926974)
(2.62366e-07 9.56739e-06 0.0825268)
(-1.14246e-07 9.41535e-06 0.0926373)
(-2.16685e-06 -8.58243e-06 0.082592)
(-2.57216e-06 4.2362e-06 0.0714408)
(2.71696e-06 -3.92893e-06 0.0715066)
(-1.06629e-05 -1.34471e-07 0.0926973)
(9.55953e-06 2.54099e-07 0.0825272)
(9.42022e-06 -1.16104e-07 0.092637)
(-8.60238e-06 -2.17795e-06 0.0825922)
(2.39679e-06 -2.38533e-06 0.110619)
(-2.41483e-06 2.42048e-06 0.110619)
(2.37545e-06 2.41194e-06 0.110619)
(-2.42565e-06 -2.40034e-06 0.110619)
(2.41415e-06 -2.40567e-06 0.110619)
(-2.41092e-06 2.41964e-06 0.110619)
(2.39565e-06 2.42167e-06 0.110619)
(1.91519e-05 -7.00753e-08 0.100926)
(-1.57799e-05 4.39464e-06 0.0942407)
(-2.11549e-06 -6.62155e-07 0.109934)
(-1.46052e-06 2.92038e-06 0.108683)
(-1.8899e-05 1.18372e-08 0.100821)
(1.32811e-05 -5.57066e-06 0.0943432)
(-2.09231e-06 -6.6945e-07 0.109933)
(4.32147e-06 -2.63337e-06 0.0714434)
(-4.02884e-06 2.76641e-06 0.0715044)
(-7.27218e-08 1.91433e-05 0.100925)
(-6.6053e-07 -2.0959e-06 0.109933)
(4.41517e-06 -1.58125e-05 0.0942418)
(2.91448e-06 -1.4487e-06 0.108682)
(1.98759e-08 -1.8919e-05 0.100821)
(-6.59032e-07 -2.09142e-06 0.109933)
(-5.57532e-06 1.3315e-05 0.0943415)
(-5.71732e-06 -5.56849e-06 0.088209)
(-5.51696e-06 -5.73969e-06 0.0882079)
(7.29743e-05 7.30339e-05 0.106513)
(4.22826e-06 5.11641e-06 0.0882731)
(5.1676e-06 4.20592e-06 0.0882709)
(-1.50736e-07 -1.06511e-05 0.0926973)
(2.31932e-07 9.57977e-06 0.0825267)
(-1.26704e-07 9.41914e-06 0.0926373)
(-2.20649e-06 -8.57708e-06 0.082592)
(-2.54619e-06 4.24922e-06 0.0714407)
(2.72759e-06 -3.92481e-06 0.0715066)
(-1.0644e-05 -1.39411e-07 0.0926972)
(9.564e-06 2.41455e-07 0.0825271)
(9.42933e-06 -1.37272e-07 0.092637)
(-8.60002e-06 -2.1914e-06 0.0825921)
(2.42203e-06 -2.41166e-06 0.110619)
(-2.41747e-06 2.42676e-06 0.110619)
(2.40487e-06 2.42671e-06 0.110619)
(-2.42967e-06 -2.42308e-06 0.110619)
(2.4319e-06 -2.41873e-06 0.110619)
(-2.41447e-06 2.425e-06 0.110619)
(2.41709e-06 2.42308e-06 0.110619)
(1.91675e-05 -5.68099e-08 0.100926)
(-1.57766e-05 4.38204e-06 0.0942407)
(-2.0457e-06 -6.61819e-07 0.109934)
(-1.42917e-06 2.90057e-06 0.108683)
(-1.88764e-05 1.02806e-08 0.100821)
(1.32695e-05 -5.57758e-06 0.0943431)
(-2.02399e-06 -6.69118e-07 0.109933)
(4.33356e-06 -2.61336e-06 0.0714432)
(-4.01288e-06 2.79838e-06 0.0715043)
(-6.45485e-08 1.91465e-05 0.100925)
(-6.43032e-07 -2.04983e-06 0.109933)
(4.39888e-06 -1.58056e-05 0.0942417)
(2.8998e-06 -1.42374e-06 0.108682)
(3.36564e-08 -1.89081e-05 0.100821)
(-6.48337e-07 -2.04343e-06 0.109933)
(-5.58999e-06 1.33099e-05 0.0943414)
(-5.72671e-06 -5.54773e-06 0.0882088)
(-5.49848e-06 -5.73606e-06 0.0882077)
(7.29706e-05 7.29981e-05 0.106513)
(4.2163e-06 5.14162e-06 0.088273)
(5.17931e-06 4.2072e-06 0.0882709)
(-1.43914e-07 -1.06611e-05 0.0926971)
(2.27953e-07 9.57216e-06 0.0825268)
(-1.36884e-07 9.42177e-06 0.0926371)