/*--------------------------------*- C++ -*----------------------------------*\
| =========                 |                                                 |
| \\      /  F ield         | OpenFOAM: The Open Source CFD Toolbox           |
|  \\    /   O peration     | Version:  2312                                  |
|   \\  /    A nd           | Website:  www.openfoam.com                      |
|    \\/     M anipulation  |                                                 |
\*---------------------------------------------------------------------------*/
FoamFile
{
    version     2.0;
    format      ascii;
    arch        "LSB;label=32;scalar=64";
    class       volVectorField;
    location    "125";
    object      U;
}
// * * * * * * * * * * * * * * * * * * * * * * * * * * * * * * * * * * * * * //

dimensions      [0 1 -1 0 0 0 0];

internalField   nonuniform List<vector> 
43008
(
(6.38718e-05 6.39026e-05 0.108306)
(6.20031e-05 -0.000101671 0.107565)
(6.23484e-05 6.23686e-05 0.108622)
(-9.95823e-05 6.09078e-05 0.107779)
(6.09174e-05 -9.95989e-05 0.107779)
(-0.000162093 -0.000162093 0.106573)
(0.000165432 0.000165416 0.106497)
(-2.5744e-06 -2.51936e-06 0.106712)
(6.20677e-05 0.000101722 0.107565)
(-6.21141e-05 0.000101758 0.107565)
(6.12271e-05 0.000100092 0.107727)
(-6.12394e-05 0.000100102 0.107727)
(2.61792e-06 -2.53137e-06 0.106712)
(0.000101682 6.20157e-05 0.107565)
(0.000101747 -6.21052e-05 0.107565)
(0.000100045 6.11679e-05 0.107727)
(0.000100086 -6.12183e-05 0.107727)
(-0.00010001 6.11182e-05 0.107727)
(-0.000100049 -6.119e-05 0.107727)
(0.000165431 -0.00016549 0.106497)
(-2.56043e-06 2.61674e-06 0.106712)
(-6.20126e-05 -0.00010168 0.107565)
(6.11227e-05 -0.000100007 0.107727)
(-6.11343e-05 -0.00010002 0.107727)
(2.52634e-06 2.59279e-06 0.106711)
(0.000162086 0.000162065 0.106573)
(6.1032e-05 9.96869e-05 0.107779)
(-6.10327e-05 9.96901e-05 0.107778)
(-0.000162071 0.000162034 0.106573)
(9.96337e-05 6.09673e-05 0.107779)
(9.96771e-05 -6.1016e-05 0.107778)
(-9.96181e-05 -6.09811e-05 0.107778)
(0.000162027 -0.000162103 0.106573)
(-6.09294e-05 -9.96191e-05 0.107779)
(2.60327e-06 3.2193e-05 0.0947128)
(-2.84198e-06 2.42868e-05 0.0841118)
(2.77467e-06 5.616e-05 0.0947952)
(-4.68194e-06 3.61505e-06 0.0840714)
(3.79602e-06 -1.36185e-06 0.0725177)
(3.2189e-05 2.6255e-06 0.0947126)
(2.42891e-05 -2.77728e-06 0.0841117)
(5.616e-05 2.79178e-06 0.094795)
(3.61173e-06 -4.78409e-06 0.0840714)
(-6.39088e-05 6.38867e-05 0.108306)
(6.38857e-05 -6.39025e-05 0.108306)
(-6.39104e-05 -6.38915e-05 0.108306)
(6.26665e-05 6.26872e-05 0.108544)
(-6.26955e-05 6.26729e-05 0.108544)
(6.26754e-05 -6.26925e-05 0.108544)
(-6.26991e-05 -6.26816e-05 0.108544)
(-7.49066e-05 6.58527e-06 0.102977)
(-0.000101087 6.16881e-05 0.10762)
(-3.76892e-05 7.72274e-06 0.0963542)
(-0.000103192 1.98716e-05 0.10814)
(7.54352e-06 -1.59386e-06 0.0725213)
(-1.39888e-06 3.74288e-06 0.0725167)
(6.56981e-06 -7.48991e-05 0.102976)
(2.0077e-05 -0.000103624 0.108068)
(2.00467e-05 -7.15869e-05 0.0963676)
(6.16917e-05 -0.000101092 0.10762)
(6.72831e-06 -0.000121182 0.102959)
(1.98716e-05 -0.000103207 0.10814)
(7.69097e-06 -3.76147e-05 0.0963526)
(9.79898e-07 1.08468e-06 0.106668)
(-2.34332e-05 -2.18869e-06 0.0899331)
(-2.14982e-06 -2.3444e-05 0.0899298)
(2.1689e-06 2.63111e-05 0.0943483)
(-1.95602e-06 2.17593e-05 0.0838365)
(2.3131e-06 4.96063e-05 0.0944192)
(-4.04322e-06 1.62114e-06 0.0838066)
(-1.68182e-06 7.3401e-06 0.0723388)
(3.69455e-06 -1.57305e-06 0.0723403)
(2.62897e-05 2.18121e-06 0.0943482)
(2.17894e-05 -2.07197e-06 0.0838365)
(4.9614e-05 2.3394e-06 0.0944189)
(1.60715e-06 -4.03522e-06 0.0838066)
(-6.23708e-05 6.23492e-05 0.108622)
(6.23558e-05 -6.23715e-05 0.108622)
(-6.23792e-05 -6.2355e-05 0.108622)
(-6.8138e-05 5.43777e-06 0.102726)
(-6.58351e-05 1.80868e-05 0.0960313)
(-0.000102241 1.93432e-05 0.108351)
(-9.91134e-05 6.07066e-05 0.10783)
(-0.000112999 5.65027e-06 0.102715)
(-3.29889e-05 6.09617e-06 0.0960248)
(-0.000102024 1.91924e-05 0.108419)
(7.23323e-06 -1.69572e-06 0.0723388)
(-1.60901e-06 3.72494e-06 0.0723396)
(5.40636e-06 -6.81382e-05 0.102726)
(1.93508e-05 -0.000102248 0.10835)
(1.80958e-05 -6.58707e-05 0.0960328)
(6.07084e-05 -9.91154e-05 0.10783)
(5.66589e-06 -0.000113034 0.102715)
(1.92034e-05 -0.000102038 0.108419)
(6.06129e-06 -3.28956e-05 0.0960231)
(-3.16387e-05 -1.34256e-05 0.0896761)
(-1.34016e-05 -3.16272e-05 0.0896751)
(3.85657e-06 3.92994e-06 0.106747)
(-2.07523e-05 -1.30685e-06 0.0896368)
(-1.30312e-06 -2.07334e-05 0.0896334)
(1.42199e-06 7.42918e-06 0.0725216)
(-3.8115e-06 -1.41718e-06 0.0725174)
(7.51248e-06 1.50783e-06 0.0725203)
(-1.54716e-06 -3.9548e-06 0.0725166)
(1.44266e-05 3.45336e-05 0.0899836)
(3.4589e-05 1.43874e-05 0.0899807)
(-1.07371e-06 -1.01906e-06 0.106669)
(2.1451e-06 2.34475e-05 0.0899338)
(2.33174e-05 2.10164e-06 0.0899313)
(-3.50594e-06 -1.39132e-06 0.0724267)
(1.88289e-06 7.26959e-06 0.0724281)
(-1.46686e-06 -3.71524e-06 0.0724261)
(7.15606e-06 1.72588e-06 0.0724268)
(0.000163827 0.000163809 0.106539)
(1.84997e-06 2.20241e-05 0.0897819)
(2.19525e-05 1.77711e-06 0.0897796)
(1.39758e-05 3.3105e-05 0.0898269)
(3.29863e-05 1.3927e-05 0.0898239)
(-2.6745e-06 3.21905e-05 0.0947126)
(2.77082e-06 2.42424e-05 0.0841114)
(-2.83996e-06 5.61578e-05 0.0947952)
(4.6417e-06 3.63533e-06 0.084071)
(6.52824e-06 7.48489e-05 0.102977)
(2.00386e-05 7.16508e-05 0.0963668)
(2.00967e-05 0.000103625 0.108068)
(6.17626e-05 0.000101158 0.10762)
(6.70117e-06 0.000121151 0.102959)
(7.69504e-06 3.76649e-05 0.0963526)
(1.98899e-05 0.00010322 0.10814)
(-6.57177e-06 7.48414e-05 0.102977)
(-2.00676e-05 7.16157e-05 0.0963656)
(-2.01013e-05 0.000103628 0.108068)
(-6.18052e-05 0.000101187 0.10762)
(-6.75347e-06 0.000121145 0.102959)
(-7.73845e-06 3.76776e-05 0.0963511)
(-1.98988e-05 0.000103223 0.10814)
(2.50112e-06 5.28236e-05 0.094603)
(-4.32163e-06 2.35472e-06 0.0839354)
(-2.12088e-06 2.28858e-05 0.0839705)
(2.38102e-06 2.90195e-05 0.0945263)
(-2.5721e-06 5.28269e-05 0.094603)
(4.39879e-06 2.43739e-06 0.083935)
(2.15569e-06 2.289e-05 0.0839703)
(-2.43777e-06 2.90276e-05 0.0945261)
(6.16741e-06 0.00011702 0.102839)
(6.14671e-05 0.00010058 0.107674)
(7.00252e-06 3.50689e-05 0.0961852)
(1.95211e-05 0.000102469 0.108281)
(1.90342e-05 6.8738e-05 0.0961969)
(1.96903e-05 0.000102769 0.108211)
(5.91414e-06 7.13582e-05 0.102854)
(-6.21391e-06 0.000117018 0.102839)
(-6.14911e-05 0.000100596 0.107674)
(-6.96215e-06 3.51354e-05 0.0961835)
(-1.95214e-05 0.000102469 0.108281)
(-1.90193e-05 6.87433e-05 0.0961959)
(-1.96955e-05 0.00010277 0.108211)
(-5.93481e-06 7.13545e-05 0.102854)
(1.08628e-06 -1.008e-06 0.106669)
(-2.17145e-06 2.35021e-05 0.0899314)
(-2.34897e-05 2.17082e-06 0.089935)
(1.31823e-06 -3.70718e-06 0.0725197)
(3.72381e-06 -1.32806e-06 0.0724269)
(-1.80701e-06 7.2685e-06 0.0724277)
(-0.000163839 0.000163796 0.106539)
(-1.71464e-06 2.20939e-05 0.0897795)
(-2.20131e-05 1.77666e-06 0.0897833)
(-1.39227e-05 3.30816e-05 0.0898237)
(-3.3012e-05 1.3925e-05 0.0898252)
(1.37526e-06 -3.68617e-06 0.0724293)
(-7.15106e-06 1.77893e-06 0.0724253)
(7.48582e-05 6.52884e-06 0.102977)
(7.15952e-05 2.00248e-05 0.0963665)
(0.000103626 2.00522e-05 0.108068)
(0.000101104 6.17058e-05 0.10762)
(0.000121149 6.70535e-06 0.102959)
(3.75842e-05 7.63765e-06 0.0963518)
(0.0001032 1.98445e-05 0.10814)
(3.21826e-05 -2.65737e-06 0.0947124)
(2.43073e-05 2.71046e-06 0.0841114)
(5.61548e-05 -2.82635e-06 0.0947948)
(3.64364e-06 4.65013e-06 0.0840707)
(7.48684e-05 -6.57979e-06 0.102977)
(0.000103633 -2.01182e-05 0.108068)
(7.16087e-05 -2.00785e-05 0.0963661)
(0.000101164 -6.17881e-05 0.10762)
(0.000121162 -6.74306e-06 0.102958)
(0.000103204 -1.99178e-05 0.10814)
(3.76133e-05 -7.68844e-06 0.0963502)
(5.28327e-05 2.52596e-06 0.0946028)
(2.39967e-06 -4.44132e-06 0.0839355)
(2.28804e-05 -2.24105e-06 0.0839703)
(2.90204e-05 2.41192e-06 0.0945261)
(0.00011702 6.17482e-06 0.102839)
(0.000100524 6.1406e-05 0.107674)
(3.50498e-05 6.94184e-06 0.0961845)
(0.000102458 1.94765e-05 0.108281)
(6.86794e-05 1.8965e-05 0.0961963)
(0.000102773 1.96462e-05 0.108211)
(7.13872e-05 5.91599e-06 0.102854)
(5.28308e-05 -2.54757e-06 0.0946026)
(2.42309e-06 4.47737e-06 0.0839348)
(2.29074e-05 2.16183e-06 0.08397)
(2.9017e-05 -2.40341e-06 0.0945259)
(0.000117033 -6.21402e-06 0.102839)
(0.000100574 -6.1485e-05 0.107674)
(0.000102457 -1.95425e-05 0.108281)
(3.50536e-05 -6.90703e-06 0.0961828)
(0.000102772 -1.97187e-05 0.108211)
(6.87068e-05 -1.90171e-05 0.096196)
(7.13923e-05 -5.93435e-06 0.102854)
(-3.22552e-05 2.66402e-06 0.0947134)
(-3.64976e-06 -4.6388e-06 0.0840729)
(-7.48725e-05 -6.53144e-06 0.102976)
(-0.000101135 -6.17531e-05 0.10762)
(-0.000103216 -1.99265e-05 0.10814)
(-3.76506e-05 -7.72353e-06 0.0963524)
(-3.22175e-05 -2.62627e-06 0.0947124)
(-3.62934e-06 4.64795e-06 0.0840711)
(-0.000117023 6.19096e-06 0.102839)
(-0.000100501 6.13699e-05 0.107674)
(-3.51437e-05 6.94713e-06 0.0961869)
(-0.000102436 1.94923e-05 0.108281)
(-6.86449e-05 1.89738e-05 0.0961961)
(-0.000102744 1.96682e-05 0.108211)
(-7.1397e-05 5.96533e-06 0.102854)
(-5.27832e-05 2.51818e-06 0.0946017)
(-2.42619e-06 -4.46996e-06 0.0839371)
(-2.28052e-05 -2.17731e-06 0.0839691)
(-2.90897e-05 2.42721e-06 0.0945269)
(-0.000117036 -6.18203e-06 0.102839)
(-0.000100547 -6.14446e-05 0.107674)
(-0.000102445 -1.95529e-05 0.108281)
(-3.51223e-05 -6.94505e-06 0.096185)
(-0.000102753 -1.97237e-05 0.108211)
(-6.8695e-05 -1.90271e-05 0.0961961)
(-7.13664e-05 -5.92143e-06 0.102853)
(-5.2833e-05 -2.54768e-06 0.0946024)
(-2.39835e-06 4.46923e-06 0.0839352)
(-2.29081e-05 2.16338e-06 0.08397)
(-2.9056e-05 -2.39233e-06 0.0945259)
(3.46037e-05 -1.44859e-05 0.0899811)
(1.44187e-05 -3.46013e-05 0.0899833)
(-1.02738e-06 1.08924e-06 0.106669)
(2.34333e-05 -2.20002e-06 0.0899294)
(2.19189e-06 -2.3483e-05 0.0899335)
(1.54924e-06 -7.55486e-06 0.0725213)
(-3.76689e-06 1.39143e-06 0.0725174)
(-1.45892e-06 3.72448e-06 0.0724261)
(7.2387e-06 -1.85851e-06 0.0724278)
(0.000163799 -0.000163869 0.106539)
(2.1944e-05 -1.8046e-06 0.0897776)
(1.8021e-06 -2.19861e-05 0.0897817)
(3.30536e-05 -1.40059e-05 0.0898244)
(1.3927e-05 -3.30371e-05 0.0898264)
(-3.74556e-06 1.45047e-06 0.0724267)
(1.81937e-06 -7.24523e-06 0.0724278)
(-6.55427e-06 -7.48879e-05 0.102977)
(-2.00968e-05 -0.000103622 0.108068)
(-2.00702e-05 -7.1612e-05 0.0963661)
(-6.16811e-05 -0.000101105 0.10762)
(-6.70587e-06 -0.00012115 0.102958)
(-1.98929e-05 -0.000103208 0.10814)
(-7.68757e-06 -3.7585e-05 0.0963507)
(2.64287e-06 -3.22218e-05 0.0947123)
(-2.72829e-06 -2.43008e-05 0.0841121)
(2.82911e-06 -5.61638e-05 0.0947946)
(-4.65526e-06 -3.62273e-06 0.0840713)
(-2.64349e-06 -3.22116e-05 0.0947126)
(2.71457e-06 -2.42725e-05 0.0841116)
(-2.79932e-06 -5.61568e-05 0.0947939)
(4.65573e-06 -3.6043e-06 0.0840708)
(6.22222e-06 -0.000117044 0.102839)
(6.13758e-05 -0.000100499 0.107674)
(1.95014e-05 -0.000102442 0.108281)
(6.91126e-06 -3.50561e-05 0.0961852)
(1.96724e-05 -0.000102753 0.108211)
(1.89783e-05 -6.86811e-05 0.0961975)
(5.93789e-06 -7.13999e-05 0.102853)
(-6.1853e-06 -0.000117015 0.102838)
(-6.1379e-05 -0.000100512 0.107674)
(-1.95147e-05 -0.000102449 0.108281)
(-6.90931e-06 -3.50104e-05 0.0961833)
(-1.96882e-05 -0.000102763 0.108211)
(-1.90045e-05 -6.86948e-05 0.0961963)
(-5.932e-06 -7.1404e-05 0.102854)
(2.54703e-06 -5.28332e-05 0.0946024)
(-4.47683e-06 -2.39166e-06 0.0839354)
(-2.17051e-06 -2.28902e-05 0.0839707)
(2.39801e-06 -2.90639e-05 0.0945258)
(-2.54401e-06 -5.28208e-05 0.0946017)
(4.47679e-06 -2.39718e-06 0.0839349)
(2.17396e-06 -2.28731e-05 0.0839702)
(-2.40992e-06 -2.90466e-05 0.0945262)
(1.39579e-06 3.74578e-06 0.0725177)
(3.76624e-06 1.39764e-06 0.0725166)
(-0.000163876 -0.000163851 0.106538)
(-2.19549e-05 -1.78461e-06 0.0897813)
(-1.76469e-06 -2.19347e-05 0.0897779)
(-3.30538e-05 -1.4002e-05 0.0898257)
(-1.39542e-05 -3.30611e-05 0.0898244)
(1.46415e-06 3.72496e-06 0.0724271)
(-7.24747e-06 -1.85403e-06 0.0724279)
(3.74009e-06 1.45298e-06 0.072426)
(-1.83547e-06 -7.24028e-06 0.0724277)
(1.86104e-06 7.31709e-06 0.0723391)
(-3.72953e-06 -1.62195e-06 0.0723404)
(7.21391e-06 1.706e-06 0.0723379)
(-1.64065e-06 -3.7107e-06 0.0723397)
(1.34773e-05 3.17237e-05 0.0896776)
(3.16282e-05 1.343e-05 0.0896744)
(-3.91203e-06 -3.84447e-06 0.106748)
(1.36561e-06 2.07535e-05 0.0896373)
(2.07311e-05 1.33684e-06 0.0896351)
(-2.1723e-06 2.63074e-05 0.0943481)
(2.04868e-06 2.18256e-05 0.0838365)
(-2.35967e-06 4.96171e-05 0.0944192)
(4.02662e-06 1.641e-06 0.0838061)
(5.40194e-06 6.8108e-05 0.102727)
(1.82101e-05 6.59258e-05 0.0960322)
(1.93751e-05 0.000102267 0.108351)
(6.08314e-05 9.9216e-05 0.107829)
(5.63281e-06 0.000113015 0.102715)
(6.12569e-06 3.29607e-05 0.096023)
(1.92282e-05 0.000102072 0.108419)
(-5.39287e-06 6.80986e-05 0.102727)
(-1.81424e-05 6.59578e-05 0.0960314)
(-1.93657e-05 0.000102263 0.108351)
(-6.08285e-05 9.92116e-05 0.107829)
(-5.65285e-06 0.000113016 0.102715)
(-6.11811e-06 3.2936e-05 0.0960213)
(-1.92132e-05 0.000102066 0.108419)
(-1.32945e-05 3.16997e-05 0.0896743)
(-3.15914e-05 1.3354e-05 0.0896757)
(3.94278e-06 -3.86014e-06 0.106748)
(-1.38282e-06 2.08085e-05 0.0896351)
(-2.07975e-05 1.31378e-06 0.0896388)
(-7.13685e-06 1.61695e-06 0.0723364)
(1.53163e-06 -3.6689e-06 0.0723428)
(6.81461e-05 5.39075e-06 0.102727)
(6.58879e-05 1.81511e-05 0.0960316)
(0.000102251 1.93319e-05 0.108351)
(9.91486e-05 6.07623e-05 0.10783)
(0.000113039 5.63763e-06 0.102714)
(3.28935e-05 6.09703e-06 0.0960224)
(0.000102045 1.91847e-05 0.108419)
(2.62865e-05 -2.15302e-06 0.094348)
(2.18076e-05 2.10148e-06 0.0838362)
(4.9614e-05 -2.32233e-06 0.0944187)
(1.64119e-06 4.06344e-06 0.0838059)
(6.81489e-05 -5.39284e-06 0.102727)
(0.000102249 -1.93884e-05 0.10835)
(6.58979e-05 -1.81306e-05 0.0960313)
(9.92048e-05 -6.08078e-05 0.107829)
(0.000113048 -5.64432e-06 0.102714)
(0.000102046 -1.92368e-05 0.108419)
(3.29016e-05 -6.05687e-06 0.0960207)
(-2.6374e-05 2.18879e-06 0.0943489)
(-2.16981e-05 -2.11503e-06 0.0838353)
(-4.95766e-05 2.31422e-06 0.0944179)
(-1.63976e-06 -4.05042e-06 0.0838081)
(-6.81051e-05 -5.38728e-06 0.102726)
(-0.000102254 -1.94033e-05 0.10835)
(-6.59126e-05 -1.81447e-05 0.0960314)
(-9.91492e-05 -6.07733e-05 0.107829)
(-0.000113014 -5.64412e-06 0.102715)
(-0.000102035 -1.92561e-05 0.108419)
(-3.2972e-05 -6.08613e-06 0.0960229)
(-2.63399e-05 -2.14584e-06 0.0943479)
(-2.17916e-05 2.09334e-06 0.0838362)
(-4.96306e-05 -2.33288e-06 0.0944186)
(-1.59936e-06 4.05446e-06 0.0838063)
(3.16311e-05 -1.34417e-05 0.0896749)
(1.33675e-05 -3.16086e-05 0.089677)
(-3.89915e-06 3.95243e-06 0.106748)
(2.07427e-05 -1.33117e-06 0.0896331)
(1.3311e-06 -2.07805e-05 0.0896372)
(1.66151e-06 -7.24071e-06 0.0723388)
(-3.73947e-06 1.60328e-06 0.0723402)
(-5.40319e-06 -6.81496e-05 0.102726)
(-1.93589e-05 -0.000102251 0.10835)
(-1.81211e-05 -6.58641e-05 0.0960317)
(-6.07252e-05 -9.91482e-05 0.107829)
(-5.63223e-06 -0.000113018 0.102714)
(-1.92048e-05 -0.000102049 0.108419)
(-6.06523e-06 -3.28499e-05 0.0960212)
(2.15823e-06 -2.6348e-05 0.0943479)
(-2.10207e-06 -2.17822e-05 0.0838369)
(2.33432e-06 -4.96162e-05 0.0944185)
(-4.05881e-06 -1.6056e-06 0.0838065)
(-2.16877e-06 -2.63282e-05 0.0943483)
(2.1029e-06 -2.17873e-05 0.0838364)
(-2.33682e-06 -4.96013e-05 0.0944178)
(4.05943e-06 -1.62633e-06 0.0838061)
(-7.23177e-06 -1.69637e-06 0.0723388)
(1.62135e-06 3.7173e-06 0.0723405)
(-1.68114e-06 -7.23771e-06 0.0723387)
(3.73707e-06 1.60502e-06 0.0723395)
(-5.90694e-07 9.13292e-06 0.0780512)
(2.62978e-06 5.4472e-05 0.0946981)
(1.17191e-06 -4.01214e-06 0.0798801)
(4.88648e-06 2.37308e-05 0.0927877)
(7.91614e-07 5.15589e-06 0.079856)
(5.08778e-06 4.54336e-05 0.0927628)
(1.61343e-06 -6.17382e-07 0.0780811)
(3.62389e-06 -2.03575e-06 0.0694029)
(5.18163e-06 2.79229e-05 0.0880929)
(-5.09594e-06 4.27892e-06 0.0841423)
(1.27769e-06 6.43347e-06 0.0693524)
(4.28229e-06 1.03863e-05 0.0881267)
(1.20814e-06 -6.53795e-07 0.0781299)
(2.7479e-06 3.3791e-05 0.0948092)
(7.32655e-07 4.82318e-06 0.0799052)
(5.38526e-06 4.67683e-05 0.0928533)
(-8.41814e-07 8.99769e-06 0.0781005)
(1.11651e-06 -4.25888e-06 0.0799286)
(5.13723e-06 2.50045e-05 0.0928772)
(1.51179e-06 6.34613e-06 0.0693087)
(4.27699e-06 9.61933e-06 0.0880473)
(-2.5081e-06 2.36261e-05 0.0840403)
(5.09138e-06 2.7133e-05 0.0880126)
(3.90012e-06 -2.15623e-06 0.0693595)
(3.99353e-06 -1.24814e-06 0.0725649)
(-1.57665e-06 7.38832e-06 0.0724737)
(9.13901e-06 -5.53757e-07 0.0780514)
(5.44745e-05 2.65075e-06 0.0946978)
(2.37384e-05 4.91036e-06 0.0927875)
(-4.00844e-06 1.19733e-06 0.0798801)
(4.54443e-05 5.11531e-06 0.0927626)
(5.16153e-06 8.15686e-07 0.079856)
(-6.15476e-07 1.63231e-06 0.0780813)
(-2.06326e-06 3.64849e-06 0.0694033)
(2.79048e-05 5.21235e-06 0.0880929)
(4.28672e-06 -5.01823e-06 0.0841422)
(6.44684e-06 1.31765e-06 0.0693529)
(1.03479e-05 4.31085e-06 0.0881266)
(-6.54685e-07 1.22909e-06 0.0781301)
(3.3787e-05 2.76655e-06 0.094809)
(4.67764e-05 5.416e-06 0.0928531)
(4.8309e-06 7.51275e-07 0.0799051)
(9.00531e-06 -8.06773e-07 0.0781007)
(2.50063e-05 5.16639e-06 0.0928771)
(-4.25584e-06 1.13664e-06 0.0799286)
(6.36591e-06 1.55177e-06 0.0693093)
(9.5894e-06 4.27843e-06 0.0880472)
(2.36246e-05 -2.57018e-06 0.0840401)
(2.71283e-05 5.09994e-06 0.0880126)
(-2.17828e-06 3.91361e-06 0.0693598)
(-1.24514e-06 3.90607e-06 0.0725637)
(7.40185e-06 -1.6866e-06 0.072474)
(-2.14028e-05 -2.1392e-05 0.0856593)
(-2.85269e-06 7.56161e-07 0.0695528)
(7.65585e-07 -2.86415e-06 0.0695461)
(-7.04689e-06 -4.84271e-06 0.0695212)
(-4.83957e-06 -7.06319e-06 0.0695148)
(-1.326e-05 -1.32558e-05 0.0856753)
(-2.64803e-05 -2.85458e-05 0.0946557)
(-2.41934e-05 -2.37412e-06 0.0900118)
(-4.6459e-05 -4.02869e-05 0.0999715)
(-1.86925e-05 2.87223e-06 0.0834449)
(-2.84803e-05 -2.64429e-05 0.0946468)
(-2.33921e-06 -2.42073e-05 0.0900085)
(-4.02095e-05 -4.64396e-05 0.0999672)
(2.91165e-06 -1.87056e-05 0.0834386)
(-1.37617e-05 -1.37511e-05 0.0857478)
(-3.03042e-06 7.29075e-07 0.0696013)
(7.39334e-07 -3.04114e-06 0.0695945)
(-5.35298e-05 -3.91731e-05 0.0945434)
(-1.81798e-05 2.7127e-06 0.0833792)
(-3.3843e-05 -1.41927e-05 0.0899031)
(-4.51767e-05 -3.90107e-05 0.0998932)
(-8.61906e-05 -6.12091e-05 0.099846)
(-2.7719e-05 -2.5881e-06 0.0833524)
(-2.56035e-05 -2.75643e-05 0.0945723)
(-3.91649e-05 -5.35177e-05 0.0945356)
(2.75048e-06 -1.81868e-05 0.0833729)
(-1.41494e-05 -3.38625e-05 0.0899017)
(-3.89276e-05 -4.51885e-05 0.0998889)
(-6.11529e-05 -8.61883e-05 0.0998427)
(-2.59405e-06 -2.77984e-05 0.083348)
(-2.74961e-05 -2.5569e-05 0.0945634)
(-2.20216e-07 9.6402e-06 0.0778685)
(2.21695e-06 4.82214e-05 0.0943305)
(1.39837e-06 -2.84366e-06 0.079703)
(4.05135e-06 1.92296e-05 0.0924517)
(9.969e-07 6.24519e-06 0.0796773)
(4.40829e-06 4.05454e-05 0.0924235)
(1.88817e-06 -6.70139e-08 0.0778998)
(3.47761e-06 -2.14952e-06 0.0692357)
(4.73648e-06 2.47944e-05 0.0877845)
(-4.30371e-06 2.07249e-06 0.0838702)
(1.24276e-06 6.19221e-06 0.0691841)
(3.72353e-06 7.55061e-06 0.0878216)
(1.70613e-06 -2.42361e-07 0.0779437)
(2.29592e-06 2.75876e-05 0.0944363)
(9.001e-07 5.73844e-06 0.0797202)
(4.79436e-06 4.15145e-05 0.0925051)
(-1.26162e-07 9.31867e-06 0.0779127)
(1.30191e-06 -3.32979e-06 0.0797457)
(4.50137e-06 2.01164e-05 0.0925325)
(1.458e-06 6.29502e-06 0.069145)
(3.54252e-06 7.04772e-06 0.0877508)
(-1.83245e-06 2.13954e-05 0.0837722)
(4.43987e-06 2.43343e-05 0.0877127)
(3.92281e-06 -2.24275e-06 0.0691968)
(3.81044e-06 -1.34225e-06 0.0723831)
(-1.71499e-06 7.22393e-06 0.0722957)
(9.63891e-06 -2.23861e-07 0.0778686)
(4.82127e-05 2.23166e-06 0.0943302)
(1.92245e-05 4.05792e-06 0.0924516)
(-2.83782e-06 1.4047e-06 0.079703)
(4.05427e-05 4.41461e-06 0.0924233)
(6.25508e-06 1.00342e-06 0.0796773)
(-6.65922e-08 1.88868e-06 0.0778999)
(-2.12759e-06 3.53011e-06 0.0692363)
(2.48475e-05 4.75519e-06 0.0877845)
(2.07374e-06 -4.38153e-06 0.0838703)
(6.29603e-06 1.35447e-06 0.0691847)
(7.54127e-06 3.73313e-06 0.0878216)
(-2.40294e-07 1.72871e-06 0.0779439)
(2.75775e-05 2.31546e-06 0.0944361)
(4.15315e-05 4.8278e-06 0.0925049)
(5.75191e-06 9.28165e-07 0.0797201)
(9.33903e-06 -5.01731e-08 0.0779128)
(2.01173e-05 4.51833e-06 0.0925324)
(-3.32132e-06 1.31622e-06 0.0797457)
(6.28636e-06 1.47465e-06 0.0691454)
(7.01014e-06 3.56469e-06 0.0877508)
(2.13906e-05 -1.85993e-06 0.0837722)
(2.4304e-05 4.45106e-06 0.0877128)
(-2.24893e-06 3.93884e-06 0.0691972)
(-1.44568e-06 3.84746e-06 0.0723824)
(7.14261e-06 -1.67173e-06 0.0722957)
(-1.95712e-05 -1.95817e-05 0.0853856)
(-2.36316e-06 9.11708e-07 0.0693703)
(9.26852e-07 -2.37074e-06 0.0693636)
(-6.54292e-06 -4.66372e-06 0.0693372)
(-4.65279e-06 -6.55564e-06 0.0693309)
(-1.15168e-05 -1.15277e-05 0.0854046)
(-2.30707e-05 -2.49674e-05 0.0943335)
(-8.19011e-05 -5.73027e-05 0.099615)
(-2.62118e-05 -2.68043e-06 0.0831629)
(-2.13732e-05 -1.47859e-06 0.0897081)
(-5.06538e-05 -3.64217e-05 0.0943028)
(-4.17226e-05 -3.55668e-05 0.0996629)
(-1.67574e-05 2.61866e-06 0.0831914)
(-2.4855e-05 -2.30352e-05 0.0943247)
(-5.72039e-05 -8.18529e-05 0.099612)
(-2.68212e-06 -2.6267e-05 0.0831584)
(-1.47141e-06 -2.13523e-05 0.0897047)
(-3.63657e-05 -5.06431e-05 0.094295)
(-3.54286e-05 -4.16805e-05 0.0996584)
(2.66139e-06 -1.67494e-05 0.0831851)
(-1.19483e-05 -1.196e-05 0.0854694)
(-6.65349e-06 -4.75729e-06 0.0693816)
(-4.74104e-06 -6.67001e-06 0.0693753)
(-1.99949e-05 -2.0006e-05 0.0854511)
(-2.51994e-06 8.57314e-07 0.0694143)
(8.759e-07 -2.52956e-06 0.0694076)
(-4.97994e-05 -3.55294e-05 0.0942262)
(-1.62873e-05 2.42584e-06 0.0831315)
(-3.10416e-05 -1.31309e-05 0.0896042)
(-4.06168e-05 -3.44217e-05 0.0995878)
(-8.05795e-05 -5.60474e-05 0.0995397)
(-2.57851e-05 -2.82301e-06 0.0831026)
(-2.23121e-05 -2.41036e-05 0.0942576)
(-3.54698e-05 -4.97866e-05 0.0942185)
(2.46953e-06 -1.62771e-05 0.0831252)
(-1.31155e-05 -3.10299e-05 0.0896031)
(-3.42756e-05 -4.05737e-05 0.0995833)
(-5.59385e-05 -8.05286e-05 0.0995366)
(-2.82308e-06 -2.5839e-05 0.0830982)
(-2.39889e-05 -2.22758e-05 0.0942487)
(-4.12506e-06 -1.39557e-06 0.0725645)
(1.55335e-06 7.33619e-06 0.0724742)
(-1.27537e-06 -4.00951e-06 0.072564)
(7.26744e-06 1.48406e-06 0.0724731)
(2.1316e-05 2.13618e-05 0.0856591)
(-7.74377e-07 2.8484e-06 0.0695533)
(2.82557e-06 -7.11e-07 0.0695463)
(4.80375e-06 7.02439e-06 0.0695211)
(7.00053e-06 4.84321e-06 0.0695143)
(1.32137e-05 1.32498e-05 0.0856763)
(2.85095e-05 2.64448e-05 0.0946565)
(6.2608e-05 8.76692e-05 0.0999251)
(2.41442e-06 2.82146e-05 0.0834198)
(2.32318e-06 2.41026e-05 0.0900125)
(4.01548e-05 5.44943e-05 0.0946277)
(-2.89438e-06 1.86918e-05 0.0834461)
(4.02713e-05 4.64141e-05 0.0999722)
(2.64493e-05 2.8436e-05 0.0946484)
(8.76036e-05 6.24909e-05 0.0999208)
(2.82372e-05 2.31188e-06 0.0834137)
(2.41717e-05 2.29774e-06 0.0900101)
(5.44499e-05 4.01054e-05 0.094619)
(1.87094e-05 -2.99279e-06 0.0834402)
(4.63952e-05 4.01696e-05 0.0999687)
(1.3647e-05 1.37008e-05 0.0857488)
(4.89761e-06 7.21751e-06 0.0695701)
(7.10663e-06 4.79006e-06 0.0695633)
(2.17858e-05 2.18806e-05 0.0857324)
(-7.62769e-07 2.99918e-06 0.0696019)
(2.926e-06 -8.58841e-07 0.0695949)
(3.91381e-05 5.34988e-05 0.0945436)
(-2.72117e-06 1.81913e-05 0.0833803)
(1.41233e-05 3.38129e-05 0.0899043)
(3.90085e-05 4.51891e-05 0.0998939)
(2.55063e-06 2.77091e-05 0.0833534)
(2.75566e-05 2.55888e-05 0.0945732)
(6.12042e-05 8.6182e-05 0.0998466)
(5.34326e-05 3.90926e-05 0.0945351)
(1.8162e-05 -2.72473e-06 0.0833744)
(3.37383e-05 1.40991e-05 0.0899013)
(4.5124e-05 3.89064e-05 0.0998905)
(2.77173e-05 2.54181e-06 0.0833475)
(2.55441e-05 2.74858e-05 0.094565)
(8.60773e-05 6.10949e-05 0.0998424)
(2.0488e-06 7.25696e-06 0.072383)
(-3.55202e-06 -1.47939e-06 0.0724715)
(7.19376e-06 1.85812e-06 0.0723818)
(-1.5248e-06 -3.67297e-06 0.0724707)
(1.27484e-05 1.28031e-05 0.0856058)
(4.81549e-06 6.87967e-06 0.0694733)
(6.85746e-06 4.90927e-06 0.0694666)
(2.0851e-05 2.09118e-05 0.0855878)
(-7.72162e-07 2.70463e-06 0.069506)
(2.66234e-06 -7.16369e-07 0.069499)
(3.73006e-05 5.16137e-05 0.0943816)
(3.67096e-05 4.28474e-05 0.0997395)
(1.38128e-05 3.2355e-05 0.0897514)
(-2.67917e-06 1.72139e-05 0.0832535)
(2.7021e-06 2.66896e-05 0.0832257)
(5.85698e-05 8.32968e-05 0.0996921)
(2.58379e-05 2.3898e-05 0.0944121)
(5.15216e-05 3.72621e-05 0.0943729)
(4.27998e-05 3.66012e-05 0.0997361)
(3.22792e-05 1.37423e-05 0.0897482)
(1.71845e-05 -2.70297e-06 0.0832477)
(2.66622e-05 2.69252e-06 0.0832194)
(8.31791e-05 5.8452e-05 0.0996877)
(2.38522e-05 2.57691e-05 0.094404)
(2.66684e-05 2.47383e-05 0.0944917)
(2.69899e-06 2.71845e-05 0.0832886)
(5.98439e-05 8.47233e-05 0.099769)
(2.05249e-06 2.26864e-05 0.0898569)
(3.81836e-05 5.25616e-05 0.0944616)
(-2.65046e-06 1.76526e-05 0.083316)
(3.78132e-05 4.39847e-05 0.0998163)
(2.4688e-05 2.66072e-05 0.0944836)
(2.71647e-05 2.72328e-06 0.0832826)
(8.45907e-05 5.97292e-05 0.0997647)
(2.26289e-05 1.99014e-06 0.0898545)
(5.24678e-05 3.81496e-05 0.0944531)
(1.76328e-05 -2.6639e-06 0.0833102)
(4.39218e-05 3.77085e-05 0.0998129)
(2.03951e-05 2.04549e-05 0.0855185)
(-8.40159e-07 2.61163e-06 0.0694599)
(2.58623e-06 -7.77626e-07 0.0694529)
(4.77824e-06 6.76135e-06 0.0694271)
(6.73467e-06 4.85749e-06 0.0694202)
(1.2334e-05 1.23761e-05 0.0855371)
(4.76097e-07 9.13601e-06 0.0780508)
(-2.70373e-06 5.44725e-05 0.0946981)
(-1.25793e-06 -4.01151e-06 0.07988)
(-4.95362e-06 2.37215e-05 0.0927867)
(-8.79683e-07 5.15823e-06 0.079856)
(-5.16271e-06 4.54407e-05 0.0927631)
(-1.70271e-06 -6.27604e-07 0.0780803)
(-3.70478e-06 -2.03355e-06 0.0694044)
(-5.24375e-06 2.79168e-05 0.0880938)
(4.96825e-06 4.29651e-06 0.084142)
(-1.35048e-06 6.4498e-06 0.0693548)
(-4.3595e-06 1.03768e-05 0.0881262)
(-1.30278e-06 -6.60407e-07 0.0781291)
(-2.81675e-06 3.37869e-05 0.0948089)
(-8.05264e-07 4.824e-06 0.0799051)
(-5.45035e-06 4.67671e-05 0.0928536)
(-1.1986e-06 -4.25884e-06 0.0799284)
(7.58281e-07 8.99491e-06 0.0781001)
(-5.20439e-06 2.4991e-05 0.0928763)
(-1.61679e-06 6.39276e-06 0.0693111)
(-4.33873e-06 9.60882e-06 0.0880468)
(2.44601e-06 2.36292e-05 0.0840399)
(-5.16376e-06 2.71624e-05 0.0880135)
(-3.97998e-06 -2.16929e-06 0.069361)
(2.00388e-06 -6.89488e-07 0.0780341)
(8.22204e-07 5.33263e-06 0.0798089)
(4.94005e-06 4.40896e-05 0.0926747)
(2.47977e-06 3.05973e-05 0.0946185)
(-1.21797e-07 9.08587e-06 0.0780036)
(1.18385e-06 -3.91216e-06 0.0798337)
(4.81834e-06 2.24156e-05 0.0927004)
(1.49593e-06 6.01658e-06 0.0692246)
(-1.9481e-06 2.21751e-05 0.0839026)
(4.05762e-06 7.9711e-06 0.0878947)
(3.51182e-06 -2.40198e-06 0.0692757)
(5.0437e-06 2.53859e-05 0.0878585)
(3.92599e-06 -2.30421e-06 0.0693173)
(5.13676e-06 2.62941e-05 0.0879345)
(-4.40555e-06 2.90093e-06 0.0840025)
(1.72771e-06 6.18808e-06 0.0692661)
(4.28683e-06 8.79098e-06 0.0879701)
(4.61221e-08 9.06443e-06 0.0779576)
(2.39574e-06 5.1184e-05 0.0945101)
(1.21649e-06 -3.74109e-06 0.0797892)
(4.76299e-06 2.11491e-05 0.0926154)
(1.91228e-06 -5.87766e-07 0.0779885)
(8.3511e-07 5.44484e-06 0.0797638)
(4.92218e-06 4.27252e-05 0.0925888)
(-2.10313e-06 -6.90888e-07 0.0780332)
(-9.08121e-07 5.33635e-06 0.0798088)
(-5.00888e-06 4.41016e-05 0.092675)
(-2.54637e-06 3.05984e-05 0.0946183)
(1.72506e-08 9.08683e-06 0.0780032)
(-1.26961e-06 -3.90891e-06 0.0798336)
(-4.88055e-06 2.24152e-05 0.0926995)
(-1.66624e-06 6.20798e-06 0.0692269)
(2.03203e-06 2.22374e-05 0.0839025)
(-4.11774e-06 8.09813e-06 0.0878944)
(-5.0934e-06 2.55215e-05 0.0878595)
(-3.6952e-06 -2.20671e-06 0.0692775)
(-4.00931e-06 -2.27068e-06 0.0693186)
(-5.17608e-06 2.63303e-05 0.0879355)
(4.43836e-06 2.92746e-06 0.0840019)
(-1.82185e-06 6.22855e-06 0.0692685)
(-4.32892e-06 8.80708e-06 0.0879696)
(-2.11249e-07 9.08757e-06 0.0779572)
(-2.46013e-06 5.11906e-05 0.09451)
(-1.29101e-06 -3.73219e-06 0.079789)
(-4.82115e-06 2.11549e-05 0.0926145)
(-9.16501e-07 5.45094e-06 0.0797637)
(-4.9903e-06 4.27461e-05 0.0925891)
(-2.06701e-06 -5.66861e-07 0.0779877)
(-2.14334e-05 2.13559e-05 0.0856595)
(7.44162e-07 2.83448e-06 0.0695471)
(-2.87668e-06 -7.98559e-07 0.0695525)
(-4.85687e-06 7.02904e-06 0.0695151)
(-7.06629e-06 4.80236e-06 0.0695205)
(-1.32868e-05 1.32088e-05 0.0856761)
(-2.85231e-05 2.64488e-05 0.0946478)
(-2.37292e-06 2.42266e-05 0.0900102)
(2.83241e-06 1.87598e-05 0.0834403)
(-4.02802e-05 4.64447e-05 0.099968)
(-2.64961e-05 2.85239e-05 0.0946567)
(-2.42396e-05 2.36627e-06 0.0900135)
(-4.6485e-05 4.0265e-05 0.0999729)
(-1.87179e-05 -2.89695e-06 0.083446)
(-1.37974e-05 1.37025e-05 0.0857486)
(7.08472e-07 2.9981e-06 0.0695956)
(-3.05618e-06 -7.59715e-07 0.069601)
(-3.91733e-05 5.34646e-05 0.094535)
(2.68801e-06 1.82618e-05 0.0833747)
(-1.41161e-05 3.38415e-05 0.089901)
(-3.90033e-05 4.51953e-05 0.0998898)
(-2.59647e-06 2.77545e-05 0.0833473)
(-6.11867e-05 8.61563e-05 0.0998422)
(-2.75379e-05 2.55698e-05 0.0945646)
(-5.3536e-05 3.91572e-05 0.0945438)
(-1.82022e-05 -2.74743e-06 0.0833803)
(-3.38156e-05 1.41345e-05 0.0899027)
(-4.52222e-05 3.89896e-05 0.0998946)
(-8.61779e-05 6.11863e-05 0.0998462)
(-2.77244e-05 2.55681e-06 0.0833528)
(-2.55999e-05 2.75419e-05 0.0945733)
(1.17914e-06 -3.87647e-06 0.0725665)
(-7.33227e-06 1.62045e-06 0.0724718)
(-1.8386e-06 7.30135e-06 0.0723828)
(3.64969e-06 -1.44408e-06 0.0724714)
(-1.28063e-05 1.27077e-05 0.0856054)
(-4.84236e-06 6.85617e-06 0.0694674)
(-6.8757e-06 4.79334e-06 0.0694728)
(-2.0918e-05 2.08576e-05 0.0855883)
(7.48184e-07 2.65022e-06 0.0694999)
(-2.71702e-06 -7.88798e-07 0.0695052)
(-3.72448e-05 5.14815e-05 0.0943727)
(-3.66274e-05 4.2811e-05 0.0997354)
(-1.36597e-05 3.23502e-05 0.0897482)
(2.78893e-06 1.7229e-05 0.0832481)
(-5.84775e-05 8.32177e-05 0.0996875)
(-2.61025e-06 2.66475e-05 0.0832192)
(-2.57392e-05 2.37976e-05 0.0944036)
(-5.1565e-05 3.725e-05 0.0943817)
(-4.28235e-05 3.66249e-05 0.0997403)
(-3.22293e-05 1.36957e-05 0.0897495)
(-1.71925e-05 -2.732e-06 0.0832535)
(-2.665e-05 2.64555e-06 0.0832248)
(-8.32229e-05 5.84877e-05 0.0996916)
(-2.38655e-05 2.57553e-05 0.0944122)
(-2.66114e-05 2.46753e-05 0.0944831)
(-2.68479e-06 2.71978e-05 0.0832824)
(-5.97943e-05 8.4665e-05 0.0997645)
(-2.00539e-06 2.27365e-05 0.0898544)
(-3.77702e-05 4.39635e-05 0.0998122)
(-3.81704e-05 5.24771e-05 0.0944529)
(2.6592e-06 1.7713e-05 0.0833106)
(-2.4703e-05 2.66229e-05 0.0944918)
(-2.71714e-05 2.66855e-06 0.083288)
(-8.46756e-05 5.9797e-05 0.0997685)
(-2.27105e-05 2.02769e-06 0.0898584)
(-5.25417e-05 3.81712e-05 0.0944619)