/*--------------------------------*- C++ -*----------------------------------*\
| =========                 |                                                 |
| \\      /  F ield         | OpenFOAM: The Open Source CFD Toolbox           |
|  \\    /   O peration     | Version:  2312                                  |
|   \\  /    A nd           | Website:  www.openfoam.com                      |
|    \\/     M anipulation  |                                                 |
\*---------------------------------------------------------------------------*/
FoamFile
{
    version     2.0;
    format      ascii;
    arch        "LSB;label=32;scalar=64";
    class       volScalarField;
    location    "400";
    object      epsilon;
}
// * * * * * * * * * * * * * * * * * * * * * * * * * * * * * * * * * * * * * //

dimensions      [0 2 -3 0 0 0 0];

internalField   nonuniform List<scalar> 
43008
(
1.40294e-07
2.1535e-07
1.36482e-07
2.21704e-07
2.21724e-07
3.34599e-07
3.14371e-07
3.29738e-07
2.15384e-07
2.15403e-07
2.19973e-07
2.19998e-07
3.2996e-07
2.15348e-07
2.15422e-07
2.19932e-07
2.20016e-07
2.19918e-07
2.19983e-07
3.14563e-07
3.29863e-07
2.15386e-07
2.19939e-07
2.19974e-07
3.29393e-07
3.34197e-07
2.21765e-07
2.2179e-07
3.34434e-07
2.21723e-07
2.21805e-07
2.2177e-07
3.34439e-07
2.21762e-07
3.46772e-06
8.88395e-06
3.42494e-06
8.88958e-06
1.85248e-05
3.46831e-06
8.88516e-06
3.42447e-06
8.89084e-06
1.40292e-07
1.40301e-07
1.40304e-07
1.37359e-07
1.37358e-07
1.37368e-07
1.37369e-07
9.88005e-07
2.16729e-07
2.66145e-06
1.59056e-07
1.85351e-05
1.85256e-05
9.88255e-07
1.59531e-07
2.63336e-06
2.16749e-07
9.61489e-07
1.59075e-07
2.66144e-06
3.19413e-07
5.05959e-06
5.0614e-06
3.586e-06
8.89738e-06
3.54949e-06
8.90269e-06
1.85008e-05
1.84921e-05
3.58495e-06
8.89828e-06
3.54901e-06
8.90427e-06
1.36482e-07
1.36491e-07
1.36493e-07
1.07253e-06
2.72086e-06
1.58247e-07
2.23638e-07
1.04488e-06
2.74576e-06
1.58104e-07
1.85015e-05
1.84927e-05
1.07355e-06
1.58272e-07
2.721e-06
2.23654e-07
1.04516e-06
1.58128e-07
2.74797e-06
5.0949e-06
5.09667e-06
3.40706e-07
5.10912e-06
5.10889e-06
1.85319e-05
1.8522e-05
1.85347e-05
1.8525e-05
5.04227e-06
5.0455e-06
3.19878e-07
5.06105e-06
5.06153e-06
1.85053e-05
1.85144e-05
1.85083e-05
1.85174e-05
3.23828e-07
5.08615e-06
5.08666e-06
5.06918e-06
5.07238e-06
3.46775e-06
8.88417e-06
3.42499e-06
8.88978e-06
9.88786e-07
2.63337e-06
1.59524e-07
2.16783e-07
9.60806e-07
2.66134e-06
1.59072e-07
9.87849e-07
2.63395e-06
1.5952e-07
2.16807e-07
9.61376e-07
2.66316e-06
1.59066e-07
3.48993e-06
8.89618e-06
8.8908e-06
3.52906e-06
3.4898e-06
8.89651e-06
8.89107e-06
3.52903e-06
1.00228e-06
2.18311e-07
2.70461e-06
1.58436e-07
2.67828e-06
1.58735e-07
1.03049e-06
1.00286e-06
2.18335e-07
2.70676e-06
1.5843e-07
2.67792e-06
1.58729e-07
1.02977e-06
3.19801e-07
5.06118e-06
5.06121e-06
1.85232e-05
1.85082e-05
1.85172e-05
3.23965e-07
5.08648e-06
5.0863e-06
5.07214e-06
5.06946e-06
1.85062e-05
1.85155e-05
9.88139e-07
2.63376e-06
1.59528e-07
2.16747e-07
9.61352e-07
2.66193e-06
1.59072e-07
3.46776e-06
8.88471e-06
3.4251e-06
8.89031e-06
9.88015e-07
1.59536e-07
2.63393e-06
2.16824e-07
9.61462e-07
1.59082e-07
2.66203e-06
3.48941e-06
8.8978e-06
8.89161e-06
3.52981e-06
1.00281e-06
2.18274e-07
2.7051e-06
1.58436e-07
2.6787e-06
1.58738e-07
1.03002e-06
3.48997e-06
8.89697e-06
8.89161e-06
3.52899e-06
1.00291e-06
2.1835e-07
1.58447e-07
2.70527e-06
1.58746e-07
2.67883e-06
1.02994e-06
3.46819e-06
8.89007e-06
9.88543e-07
2.16791e-07
1.59068e-07
2.66144e-06
3.46847e-06
8.88995e-06
1.00283e-06
2.18255e-07
2.70463e-06
1.5842e-07
2.67819e-06
1.58717e-07
1.03005e-06
3.48949e-06
8.89666e-06
8.89139e-06
3.52946e-06
1.00249e-06
2.1832e-07
1.58436e-07
2.70614e-06
1.58734e-07
2.6783e-06
1.03052e-06
3.48932e-06
8.89662e-06
8.89126e-06
3.5297e-06
5.04527e-06
5.04242e-06
3.19837e-07
5.06129e-06
5.06128e-06
1.85327e-05
1.85232e-05
1.85088e-05
1.8518e-05
3.23744e-07
5.08647e-06
5.08638e-06
5.07215e-06
5.06936e-06
1.85065e-05
1.85156e-05
9.88226e-07
1.59542e-07
2.63402e-06
2.16786e-07
9.6153e-07
1.59082e-07
2.66296e-06
3.46799e-06
8.8847e-06
3.42524e-06
8.89024e-06
3.4679e-06
8.88491e-06
3.42526e-06
8.89053e-06
1.00298e-06
2.18277e-07
1.58442e-07
2.70466e-06
1.58741e-07
2.67833e-06
1.02998e-06
1.00298e-06
2.18311e-07
1.58447e-07
2.7067e-06
1.58747e-07
2.6781e-06
1.03004e-06
3.48999e-06
8.89692e-06
8.89154e-06
3.52917e-06
3.49e-06
8.89725e-06
8.89178e-06
3.52914e-06
1.8524e-05
1.85259e-05
3.24101e-07
5.0847e-06
5.08654e-06
5.07037e-06
5.07219e-06
1.85073e-05
1.85164e-05
1.85092e-05
1.85184e-05
1.84979e-05
1.84893e-05
1.85009e-05
1.84922e-05
5.09359e-06
5.0967e-06
3.40611e-07
5.10897e-06
5.11096e-06
3.58627e-06
8.89775e-06
3.54938e-06
8.90291e-06
1.07323e-06
2.72061e-06
1.58264e-07
2.23696e-07
1.04452e-06
2.74777e-06
1.58121e-07
1.07227e-06
2.72013e-06
1.58259e-07
2.23724e-07
1.04497e-06
2.74829e-06
1.58115e-07
5.09642e-06
5.09387e-06
3.40763e-07
5.1107e-06
5.10659e-06
1.84987e-05
1.849e-05
1.07244e-06
2.72106e-06
1.58267e-07
2.23653e-07
1.04495e-06
2.74826e-06
1.58122e-07
3.58522e-06
8.89827e-06
3.54954e-06
8.90337e-06
1.07224e-06
1.58277e-07
2.72142e-06
2.2374e-07
1.045e-06
1.58134e-07
2.74629e-06
3.58542e-06
8.89794e-06
3.54913e-06
8.90306e-06
1.07307e-06
1.58265e-07
2.7198e-06
2.23703e-07
1.04462e-06
1.58121e-07
2.74778e-06
3.58546e-06
8.89785e-06
3.54895e-06
8.903e-06
5.09648e-06
5.09388e-06
3.40631e-07
5.1088e-06
5.10692e-06
1.84991e-05
1.84903e-05
1.073e-06
1.58277e-07
2.72069e-06
2.23695e-07
1.04517e-06
1.58132e-07
2.74634e-06
3.58631e-06
8.89823e-06
3.54965e-06
8.90331e-06
3.58646e-06
8.89848e-06
3.54963e-06
8.90363e-06
1.84999e-05
1.84911e-05
1.85019e-05
1.84931e-05
1.21036e-05
3.45817e-06
1.06413e-05
4.33905e-06
1.06395e-05
4.33194e-06
1.21065e-05
2.25121e-05
7.18591e-06
8.88615e-06
2.25102e-05
7.18588e-06
1.21034e-05
3.43509e-06
1.0638e-05
4.30691e-06
1.21007e-05
1.06395e-05
4.31446e-06
2.25009e-05
7.1926e-06
8.88743e-06
7.19206e-06
2.25027e-05
1.85334e-05
1.85257e-05
1.21038e-05
3.45752e-06
4.33893e-06
1.06417e-05
4.33191e-06
1.06399e-05
1.21067e-05
2.25119e-05
7.18477e-06
8.88734e-06
2.251e-05
7.18675e-06
1.21036e-05
3.43579e-06
4.3068e-06
1.06384e-05
1.21008e-05
4.31437e-06
1.06398e-05
2.25007e-05
7.1927e-06
8.88868e-06
7.19109e-06
2.25025e-05
1.85341e-05
1.85265e-05
9.71727e-06
2.19931e-05
2.19926e-05
2.19928e-05
2.19923e-05
9.71695e-06
3.80598e-06
5.04593e-06
1.74768e-06
8.97455e-06
3.81295e-06
5.0478e-06
1.74948e-06
8.97929e-06
9.7138e-06
2.20034e-05
2.20029e-05
3.82296e-06
8.98405e-06
5.05746e-06
1.7726e-06
1.7652e-06
8.97785e-06
3.82846e-06
3.82988e-06
8.9888e-06
5.0593e-06
1.77424e-06
1.76677e-06
8.98271e-06
3.83549e-06
1.21172e-05
3.57699e-06
1.06555e-05
4.42453e-06
1.06523e-05
4.41894e-06
1.21204e-05
2.24742e-05
7.20651e-06
8.89945e-06
2.24726e-05
7.20664e-06
1.21168e-05
3.55782e-06
1.06482e-05
4.39906e-06
1.21136e-05
1.06512e-05
4.40498e-06
2.24631e-05
7.2101e-06
8.90055e-06
7.20998e-06
2.24647e-05
1.85001e-05
1.84928e-05
1.21173e-05
3.57688e-06
4.42437e-06
1.06558e-05
4.419e-06
1.06526e-05
1.21205e-05
2.24742e-05
7.20611e-06
8.90107e-06
2.24725e-05
7.20666e-06
1.2117e-05
3.55822e-06
4.39904e-06
1.06485e-05
1.21138e-05
4.40487e-06
1.06515e-05
2.24631e-05
7.21003e-06
8.90153e-06
7.20976e-06
2.24647e-05
1.85007e-05
1.84935e-05
9.7266e-06
2.1952e-05
2.19515e-05
2.19517e-05
2.19512e-05
9.72549e-06
3.89034e-06
1.83751e-06
9.00513e-06
5.09636e-06
3.88544e-06
1.84434e-06
9.01066e-06
3.89902e-06
1.83902e-06
9.01005e-06
5.09808e-06
3.892e-06
1.84605e-06
9.01549e-06
9.72389e-06
2.1962e-05
2.19615e-05
9.72483e-06
2.19623e-05
2.19617e-05
3.90544e-06
9.01894e-06
5.10576e-06
1.86836e-06
1.8604e-06
9.01365e-06
3.90931e-06
3.91122e-06
9.0238e-06
5.10799e-06
1.86912e-06
1.86216e-06
9.01854e-06
3.91821e-06
1.85308e-05
1.85229e-05
1.85337e-05
1.8526e-05
9.71767e-06
2.19933e-05
2.19927e-05
2.19929e-05
2.19924e-05
9.71735e-06
3.80586e-06
1.74011e-06
8.96788e-06
5.04751e-06
3.80022e-06
8.97428e-06
1.74752e-06
3.81281e-06
1.74166e-06
8.9727e-06
5.04783e-06
3.80709e-06
8.97982e-06
1.74909e-06
9.71425e-06
2.20033e-05
2.20027e-05
9.71444e-06
2.20037e-05
2.20031e-05
3.823e-06
8.98375e-06
5.05623e-06
1.7723e-06
8.97763e-06
3.82825e-06
1.76521e-06
3.8298e-06
8.98918e-06
5.0594e-06
1.77397e-06
8.98243e-06
3.83525e-06
1.76667e-06
1.8506e-05
1.85135e-05
1.85091e-05
1.85166e-05
9.71999e-06
2.19826e-05
2.19821e-05
9.72058e-06
2.19827e-05
2.19824e-05
3.86582e-06
1.82072e-06
5.08165e-06
9.00177e-06
8.99596e-06
1.81376e-06
3.87048e-06
3.87276e-06
1.82215e-06
5.08508e-06
9.00699e-06
9.00142e-06
1.81535e-06
3.87755e-06
3.84965e-06
8.98698e-06
1.78973e-06
5.07363e-06
3.84484e-06
8.99293e-06
1.79665e-06
3.85671e-06
8.99233e-06
1.79123e-06
5.07442e-06
3.85168e-06
8.99818e-06
1.79825e-06
9.72304e-06
2.19722e-05
2.19721e-05
2.19719e-05
2.19718e-05
9.72226e-06
1.21038e-05
3.45807e-06
1.06413e-05
4.33944e-06
1.06395e-05
4.33129e-06
1.21067e-05
2.25123e-05
7.18317e-06
8.8863e-06
2.25106e-05
7.18542e-06
1.21036e-05
3.43511e-06
1.0638e-05
4.30637e-06
1.06394e-05
1.21009e-05
4.31487e-06
2.25012e-05
7.19111e-06
8.88766e-06
7.1897e-06
2.25029e-05
1.21098e-05
1.06417e-05
4.35556e-06
3.49893e-06
1.21068e-05
1.0644e-05
4.36225e-06
2.24821e-05
8.89411e-06
7.20256e-06
2.24837e-05
7.20244e-06
2.24933e-05
7.19726e-06
8.89289e-06
2.24915e-05
7.19729e-06
1.21102e-05
3.5203e-06
1.06473e-05
4.38408e-06
1.21133e-05
1.06446e-05
4.37792e-06
1.211e-05
1.06416e-05
4.35498e-06
3.49907e-06
1.2107e-05
1.06439e-05
4.36277e-06
2.24823e-05
8.89442e-06
7.20109e-06
7.20025e-06
2.24838e-05
2.24935e-05
7.19539e-06
8.89316e-06
2.24918e-05
7.19641e-06
1.21103e-05
3.52025e-06
1.06472e-05
4.38471e-06
1.06445e-05
4.37725e-06
1.21134e-05
9.71774e-06
2.19932e-05
2.19934e-05
2.19928e-05
2.1993e-05
9.71745e-06
3.81438e-06
5.04748e-06
8.97952e-06
1.74933e-06
3.80719e-06
5.04761e-06
1.74797e-06
8.97499e-06
9.71432e-06
2.20037e-05
2.2004e-05
3.82887e-06
8.989e-06
5.05933e-06
1.77414e-06
8.98227e-06
1.76682e-06
3.83659e-06
3.82169e-06
8.98445e-06
5.05627e-06
1.77263e-06
1.76475e-06
8.97774e-06
3.82939e-06
1.85317e-05
1.85239e-05
1.85089e-05
1.85164e-05
9.72017e-06
2.19825e-05
2.19827e-05
9.72068e-06
2.19829e-05
2.19831e-05
3.87185e-06
1.8224e-06
5.08485e-06
9.0071e-06
1.81551e-06
9.0008e-06
3.87898e-06
3.86461e-06
1.82094e-06
5.08192e-06
9.00255e-06
8.99615e-06
1.81329e-06
3.87167e-06
3.85841e-06
8.99173e-06
1.79139e-06
5.07419e-06
1.79851e-06
3.85088e-06
8.99828e-06
3.85133e-06
8.98711e-06
1.78932e-06
5.07377e-06
3.84363e-06
8.99366e-06
1.79702e-06
9.72317e-06
2.19725e-05
2.19728e-05
2.19723e-05
2.19724e-05
9.72242e-06
1.85069e-05
1.85145e-05
1.2104e-05
3.4582e-06
1.06416e-05
4.33946e-06
1.06398e-05
4.33118e-06
1.21069e-05
2.25114e-05
7.18346e-06
8.88686e-06
2.25096e-05
7.18386e-06
1.21038e-05
3.43517e-06
1.06383e-05
4.30628e-06
1.06398e-05
1.2101e-05
4.31482e-06
2.25002e-05
7.18946e-06
8.88818e-06
7.18961e-06
2.2502e-05
1.211e-05
4.35551e-06
1.0642e-05
3.49977e-06
1.2107e-05
4.36218e-06
1.06443e-05
2.2482e-05
8.89497e-06
7.20262e-06
2.24836e-05
7.2018e-06
2.24931e-05
7.19692e-06
8.89443e-06
2.24913e-05
7.19779e-06
1.21103e-05
3.51978e-06
4.38404e-06
1.06477e-05
1.21135e-05
4.37789e-06
1.06449e-05
1.21101e-05
1.0642e-05
4.35487e-06
3.49899e-06
1.21071e-05
1.06443e-05
4.36259e-06
2.24814e-05
8.89495e-06
7.19971e-06
7.20028e-06
2.2483e-05
2.24925e-05
7.19551e-06
8.89364e-06
2.24909e-05
7.19579e-06
1.21104e-05
3.52046e-06
1.06476e-05
4.38449e-06
1.06449e-05
4.37726e-06
1.21136e-05
1.21033e-05
3.4576e-06
4.33948e-06
1.06416e-05
4.33097e-06
1.06399e-05
1.21062e-05
2.24991e-05
7.19167e-06
8.88794e-06
7.19079e-06
2.25012e-05
1.21038e-05
3.45746e-06
1.06415e-05
4.33916e-06
1.06397e-05
4.33129e-06
1.21067e-05
2.25001e-05
7.19002e-06
8.88779e-06
7.18949e-06
2.25019e-05
1.21095e-05
4.35478e-06
1.0642e-05
3.49945e-06
1.21065e-05
4.36266e-06
1.06443e-05
2.24802e-05
8.89465e-06
7.2017e-06
7.20118e-06
2.24822e-05
2.24917e-05
7.19615e-06
8.89335e-06
2.24897e-05
7.19696e-06
1.21098e-05
3.51997e-06
4.3848e-06
1.06476e-05
4.37707e-06
1.06448e-05
1.21129e-05
1.21099e-05
1.06418e-05
4.35498e-06
3.49967e-06
1.21069e-05
1.06441e-05
4.36234e-06
2.24813e-05
8.89455e-06
7.20014e-06
7.19992e-06
2.24829e-05
2.24924e-05
7.19497e-06
8.8933e-06
2.24907e-05
7.19537e-06
1.21102e-05
3.5198e-06
1.06475e-05
4.38444e-06
1.06446e-05
4.37735e-06
1.21134e-05
9.71729e-06
2.19926e-05
2.19928e-05
2.19923e-05
2.19924e-05
9.71694e-06
3.81297e-06
1.74175e-06
8.97258e-06
5.04765e-06
8.97914e-06
3.80717e-06
1.74941e-06
3.80579e-06
1.74015e-06
8.968e-06
5.04767e-06
1.74755e-06
3.80002e-06
8.97422e-06
9.71383e-06
2.20025e-05
2.20027e-05
2.20029e-05
9.71394e-06
2.20031e-05
3.82992e-06
8.98862e-06
5.05911e-06
1.77423e-06
8.98235e-06
1.76676e-06
3.83547e-06
3.82275e-06
8.98387e-06
5.05641e-06
1.77255e-06
1.76513e-06
8.97772e-06
3.82825e-06
1.85318e-05
1.85241e-05
1.85097e-05
1.85171e-05
9.71961e-06
2.1982e-05
2.19821e-05
9.7202e-06
2.19823e-05
2.19825e-05
3.87281e-06
1.82247e-06
5.08484e-06
9.00671e-06
1.81539e-06
9.00084e-06
3.87784e-06
3.86573e-06
1.82074e-06
5.08189e-06
9.00218e-06
8.99584e-06
1.81377e-06
3.87058e-06
3.85692e-06
8.9918e-06
1.79131e-06
5.07418e-06
1.79851e-06
3.85176e-06
8.99781e-06
3.84965e-06
8.98659e-06
1.78969e-06
5.07385e-06
3.84463e-06
8.99325e-06
1.79665e-06
9.72267e-06
2.1972e-05
2.19722e-05
2.19717e-05
2.19719e-05
9.72189e-06
1.85073e-05
1.85148e-05
1.21035e-05
3.45826e-06
4.33915e-06
1.06416e-05
4.33169e-06
1.06398e-05
1.21064e-05
2.25108e-05
7.18535e-06
8.8868e-06
7.18514e-06
2.2509e-05
1.21033e-05
3.4353e-06
4.30673e-06
1.06383e-05
4.31458e-06
1.21006e-05
1.06398e-05
2.24997e-05
7.1917e-06
8.88817e-06
7.19138e-06
2.25013e-05
1.2104e-05
3.4583e-06
4.33931e-06
1.06416e-05
4.33123e-06
1.06399e-05
1.21069e-05
2.25121e-05
7.18393e-06
8.88707e-06
2.25102e-05
7.18389e-06
1.21038e-05
3.4352e-06
4.30637e-06
1.06384e-05
1.21011e-05
4.31479e-06
1.06398e-05
2.25009e-05
7.19075e-06
8.8884e-06
7.19014e-06
2.25027e-05
1.21097e-05
4.35535e-06
1.0642e-05
3.49934e-06
1.21067e-05
4.36235e-06
1.06443e-05
2.24808e-05
8.89489e-06
7.20161e-06
7.20198e-06
2.24824e-05
2.24919e-05
7.19664e-06
8.89357e-06
2.24902e-05
7.19644e-06
1.211e-05
3.52049e-06
4.38428e-06
1.06476e-05
4.37773e-06
1.06449e-05
1.21131e-05
1.21102e-05
4.35502e-06
1.0642e-05
3.49933e-06
1.21072e-05
4.36259e-06
1.06443e-05
2.24822e-05
8.89515e-06
7.20043e-06
7.20058e-06
2.24838e-05
2.24933e-05
7.1953e-06
8.8939e-06
2.24916e-05
7.19535e-06
1.21105e-05
3.52049e-06
4.38466e-06
1.06476e-05
4.37731e-06
1.06449e-05
1.21137e-05
1.85326e-05
1.85249e-05
1.85345e-05
1.85269e-05
9.71965e-06
2.19825e-05
2.1982e-05
9.72017e-06
2.19828e-05
2.19823e-05
3.8649e-06
1.82093e-06
5.08314e-06
9.0021e-06
3.87192e-06
1.81378e-06
8.99635e-06
3.87185e-06
1.82257e-06
5.0849e-06
9.00689e-06
3.87904e-06
1.81537e-06
9.00127e-06
3.85133e-06
8.98734e-06
1.78972e-06
5.07255e-06
3.84467e-06
1.79696e-06
8.99322e-06
3.85826e-06
8.9922e-06
1.79136e-06
5.07438e-06
3.8516e-06
1.79856e-06
8.99802e-06
9.72269e-06
2.19725e-05
2.1972e-05
9.72196e-06
2.19722e-05
2.19717e-05
1.85081e-05
1.85156e-05
1.85101e-05
1.85175e-05
1.84973e-05
1.849e-05
1.85001e-05
1.84928e-05
9.72692e-06
2.19518e-05
2.19518e-05
2.19515e-05
2.19514e-05
9.72584e-06
3.89036e-06
1.8373e-06
9.00481e-06
5.0977e-06
3.88587e-06
9.01037e-06
1.84403e-06
3.89741e-06
1.83903e-06
9.01019e-06
5.09823e-06
3.89287e-06
9.01557e-06
1.84551e-06
9.7242e-06
2.19616e-05
2.19615e-05
9.72516e-06
2.19619e-05
2.19618e-05
3.90547e-06
9.01864e-06
5.10475e-06
1.86701e-06
9.01332e-06
3.90901e-06
1.86061e-06
3.91247e-06
9.02388e-06
5.10766e-06
1.86863e-06
9.01867e-06
3.91606e-06
1.86225e-06
1.21173e-05
3.57664e-06
1.06557e-05
4.42524e-06
1.0652e-05
4.41817e-06
1.21205e-05
2.24743e-05
7.20466e-06
8.89972e-06
2.24727e-05
7.20501e-06
1.2117e-05
3.55807e-06
1.0648e-05
4.39841e-06
1.06512e-05
1.21138e-05
4.40531e-06
2.24633e-05
7.20847e-06
8.90089e-06
7.20826e-06
2.24648e-05
9.727e-06
2.19517e-05
2.19522e-05
2.19514e-05
2.19519e-05
9.72592e-06
3.89915e-06
1.83915e-06
9.00939e-06
5.09798e-06
9.01557e-06
3.89207e-06
1.84604e-06
3.89019e-06
1.83703e-06
9.00488e-06
5.09767e-06
1.84444e-06
3.88529e-06
9.01113e-06
9.72433e-06
2.19617e-05
2.19621e-05
2.1962e-05
9.72522e-06
2.19625e-05
3.91102e-06
9.02381e-06
5.10742e-06
1.8695e-06
9.01781e-06
1.86198e-06
3.91876e-06
3.90515e-06
9.01945e-06
5.10572e-06
1.86757e-06
1.86016e-06
9.01336e-06
3.9092e-06
1.84981e-05
1.84907e-05
1.21174e-05
3.57729e-06
1.06557e-05
4.42492e-06
1.06526e-05
4.41828e-06
1.21206e-05
2.24735e-05
7.20463e-06
8.90021e-06
2.2472e-05
7.20444e-06
1.21171e-05
3.55777e-06
1.06484e-05
4.39846e-06
1.06514e-05
1.21139e-05
4.40514e-06
2.24625e-05
7.20793e-06
8.90146e-06
7.20813e-06
2.2464e-05
1.21168e-05
3.57687e-06
4.42507e-06
1.06562e-05
4.41794e-06
1.06522e-05
1.212e-05
2.24726e-05
7.20556e-06
8.89989e-06
7.20572e-06
2.24707e-05
1.21164e-05
3.55802e-06
4.39823e-06
1.06483e-05
4.40518e-06
1.21133e-05
1.06516e-05
2.24612e-05
7.20921e-06
8.90114e-06
7.20915e-06
2.24631e-05
1.21172e-05
3.57679e-06
1.0656e-05
4.4242e-06
1.06519e-05
4.4185e-06
1.21204e-05
2.24734e-05
7.20408e-06
8.89984e-06
2.24718e-05
7.20411e-06
1.21169e-05
3.55809e-06
1.06481e-05
4.39852e-06
1.21137e-05
1.06514e-05
4.40485e-06
2.24623e-05
7.20761e-06
8.90104e-06
7.20776e-06
2.24638e-05
9.72652e-06
2.19515e-05
2.19516e-05
2.19512e-05
2.19513e-05
9.72542e-06
3.89767e-06
1.83906e-06
9.00973e-06
5.09794e-06
9.0153e-06
3.89295e-06
1.84595e-06
3.89181e-06
1.83734e-06
9.00461e-06
5.09777e-06
1.8446e-06
3.88545e-06
9.01079e-06
9.72382e-06
2.19614e-05
2.19616e-05
2.19617e-05
9.72476e-06
2.19619e-05
3.91247e-06
9.02359e-06
5.10792e-06
1.8695e-06
9.01822e-06
1.86209e-06
3.9164e-06
3.9041e-06
9.01912e-06
5.10568e-06
1.86745e-06
1.86016e-06
9.01307e-06
3.91148e-06
1.84983e-05
1.8491e-05
1.2117e-05
3.57688e-06
4.42444e-06
1.06561e-05
4.41878e-06
1.06522e-05
1.21201e-05
2.24729e-05
7.20589e-06
8.90015e-06
7.20573e-06
2.24714e-05
1.21166e-05
3.55823e-06
4.3989e-06
1.06483e-05
4.40499e-06
1.21135e-05
1.06515e-05
2.24618e-05
7.20931e-06
8.90138e-06
7.20945e-06
2.24633e-05
1.21175e-05
3.57683e-06
4.42536e-06
1.06561e-05
4.41812e-06
1.06523e-05
1.21208e-05
2.24744e-05
7.20455e-06
8.90046e-06
2.24727e-05
7.20467e-06
1.21172e-05
3.55821e-06
4.39846e-06
1.06484e-05
1.2114e-05
4.40538e-06
1.06516e-05
2.24633e-05
7.20828e-06
8.90168e-06
7.2081e-06
2.24649e-05
1.84991e-05
1.84918e-05
1.85011e-05
1.84938e-05
1.2776e-07
1.27758e-07
1.39264e-07
1.26354e-07
1.26352e-07
1.21062e-07
1.22601e-07
1.54924e-06
3.14758e-07
6.54637e-07
6.54856e-07
1.22374e-07
1.22372e-07
1.35664e-07
1.21124e-07
1.21121e-07
1.15232e-07
1.16643e-07
1.64877e-06
7.08183e-07
7.08508e-07
3.34594e-07
1.64093e-06
7.10983e-07
7.11481e-07
1.54906e-06
6.51445e-07
6.51738e-07
3.15216e-07
1.54194e-06
6.546e-07
6.54819e-07
1.61718e-06
3.28847e-07
6.9669e-07
6.96818e-07
6.9362e-07
6.93841e-07
1.62383e-06
1.55034e-06
3.15175e-07
6.55854e-07
6.55851e-07
1.61619e-06
3.28864e-07
6.98298e-07
6.97982e-07
6.9284e-07
6.92543e-07
1.6251e-06
1.54907e-06
6.51166e-07
6.51706e-07
3.15196e-07
6.54572e-07
1.54214e-06
6.55699e-07
1.61716e-06
3.28943e-07
6.96983e-07
6.96675e-07
6.93955e-07
6.93752e-07
1.62395e-06
1.61664e-06
3.29435e-07
6.96614e-07
6.96957e-07
1.62489e-06
6.93809e-07
6.94135e-07
1.64831e-06
7.07966e-07
7.08143e-07
3.35053e-07
1.64133e-06
7.11123e-07
7.1245e-07
1.64929e-06
7.07419e-07
7.07163e-07
3.35085e-07
7.12379e-07
1.64064e-06
7.12695e-07
1.64836e-06
7.08301e-07
7.08124e-07
3.35103e-07
7.11076e-07
1.64141e-06
7.11407e-07
1.27759e-07
1.27755e-07
1.39262e-07
1.26353e-07
1.2635e-07
1.21062e-07
1.226e-07
1.27764e-07
1.27761e-07
1.39272e-07
1.26358e-07
1.26355e-07
1.21064e-07
1.22602e-07
1.27762e-07
1.27763e-07
1.39273e-07
1.26356e-07
1.26357e-07
1.21064e-07
1.22602e-07
1.38283e-07
1.23662e-07
1.2366e-07
1.24989e-07
1.24988e-07
1.19557e-07
1.18084e-07
1.38282e-07
1.23661e-07
1.23658e-07
1.24988e-07
1.24984e-07
1.19557e-07
1.18084e-07
1.38291e-07
1.23666e-07
1.23663e-07
1.24994e-07
1.24991e-07
1.19559e-07
1.18086e-07
1.38293e-07
1.23664e-07
1.23664e-07
1.24991e-07
1.24992e-07
1.19559e-07
1.18086e-07
4.12459e-07
9.82139e-07
1.29472e-06
3.38306e-07
1.28707e-06
3.37733e-07
4.12721e-07
5.77462e-07
1.92575e-06
2.65622e-06
8.87717e-07
8.84005e-07
1.91749e-06
5.78373e-07
4.12944e-07
9.82135e-07
3.38352e-07
1.2942e-06
3.37778e-07
1.28795e-06
4.13101e-07
5.68319e-07
8.67785e-07
1.89472e-06
2.63873e-06
5.67529e-07
8.71145e-07
1.90133e-06
4.06013e-07
9.676e-07
3.32531e-07
1.26455e-06
4.0596e-07
3.33104e-07
1.27118e-06
5.77514e-07
1.92467e-06
2.65624e-06
8.87552e-07
8.84069e-07
1.91878e-06
5.78373e-07
1.56766e-06
3.19436e-07
6.68529e-07
6.68713e-07
6.65543e-07
6.65888e-07
1.57432e-06
1.22373e-07
1.22369e-07
1.35663e-07
1.21123e-07
1.2112e-07
1.15232e-07
1.16642e-07
1.22379e-07
1.22376e-07
1.35673e-07
1.21128e-07
1.21125e-07
1.15234e-07
1.16644e-07
1.22377e-07
1.22377e-07
1.35674e-07
1.21126e-07
1.21126e-07
1.15234e-07
1.16644e-07
4.44114e-07
1.06604e-06
1.38706e-06
3.61273e-07
1.37893e-06
3.60566e-07
4.43421e-07
6.10302e-07
9.33184e-07
1.98746e-06
2.72553e-06
6.09373e-07
9.37552e-07
1.99438e-06
4.35578e-07
1.05128e-06
1.35612e-06
3.54338e-07
4.35428e-07
1.36399e-06
3.55161e-07
6.20495e-07
2.01616e-06
2.74147e-06
9.54554e-07
9.50018e-07
2.01039e-06
6.2094e-07
4.44215e-07
1.06608e-06
3.62201e-07
1.38623e-06
3.5997e-07
1.37989e-06
4.43686e-07
6.11413e-07
9.33332e-07
1.98814e-06
2.72561e-06
6.08329e-07
9.37562e-07
1.99433e-06
4.3579e-07
1.05132e-06
3.53978e-07
1.35705e-06
4.35608e-07
3.55793e-07
1.36355e-06
6.19749e-07
2.01654e-06
2.74087e-06
9.54433e-07
9.50104e-07
2.0107e-06
6.20539e-07
1.6651e-06
3.39895e-07
7.25528e-07
7.27264e-07
7.22917e-07
7.22647e-07
1.67111e-06
1.5674e-06
3.19122e-07
6.68508e-07
6.68779e-07
1.57439e-06
6.65448e-07
6.65756e-07
1.59937e-06
3.24624e-07
6.79434e-07
6.79713e-07
1.59232e-06
6.82535e-07
6.82719e-07
4.12112e-07
9.81452e-07
1.29471e-06
3.38949e-07
1.28727e-06
3.37248e-07
4.14112e-07
5.69623e-07
8.67604e-07
1.89437e-06
2.63861e-06
1.90203e-06
5.66498e-07
8.71651e-07
4.07356e-07
9.6792e-07
1.2642e-06
3.32071e-07
1.2716e-06
4.05183e-07
3.33678e-07
5.76582e-07
1.92592e-06
2.65619e-06
8.8804e-07
1.91806e-06
8.83952e-07
5.79614e-07
4.12361e-07
9.82151e-07
1.29426e-06
3.38903e-07
1.28758e-06
3.37222e-07
4.12692e-07
5.68327e-07
8.6792e-07
1.89468e-06
2.63913e-06
5.67506e-07
1.90074e-06
8.72085e-07
4.0587e-07
9.67199e-07
1.26436e-06
3.32037e-07
4.05054e-07
1.27101e-06
3.3362e-07
5.77477e-07
1.92488e-06
2.65625e-06
8.88565e-07
1.9184e-06
5.78412e-07
8.84323e-07
4.21802e-07
1.31061e-06
3.42541e-07
1.00935e-06
4.1957e-07
1.31817e-06
3.44255e-07
5.97432e-07
9.21009e-07
2.69983e-06
1.97223e-06
9.16652e-07
1.96445e-06
6.00546e-07
5.90108e-07
1.94176e-06
9.00303e-07
2.68334e-06
9.04348e-07
5.8687e-07
1.94952e-06
4.26763e-07
1.02337e-06
1.34118e-06
3.49941e-07
1.33347e-06
3.48072e-07
4.2898e-07
4.20198e-07
1.31074e-06
3.42491e-07
1.0088e-06
4.19992e-07
1.31733e-06
3.44198e-07
5.98354e-07
9.21409e-07
2.69904e-06
1.97217e-06
1.96425e-06
9.17054e-07
5.9945e-07
5.88626e-07
1.94172e-06
9.00689e-07
2.68513e-06
5.87772e-07
1.94886e-06
9.04809e-07
4.2747e-07
1.02388e-06
1.34027e-06
3.49886e-07
1.33381e-06
3.4803e-07
4.27797e-07
1.56645e-06
3.19273e-07
6.70062e-07
6.6961e-07
6.64421e-07
6.65111e-07
1.57531e-06
1.60075e-06
3.24589e-07
6.78886e-07
6.78619e-07
6.8367e-07
1.59158e-06
6.83417e-07
4.12577e-07
9.81987e-07
1.29424e-06
3.383e-07
1.2878e-06
3.37741e-07
4.13945e-07
5.69534e-07
8.67801e-07
1.89445e-06
2.63909e-06
1.90191e-06
5.66452e-07
8.71908e-07
4.07098e-07
9.67398e-07
1.2645e-06
3.32456e-07
1.27095e-06
4.05144e-07
3.33024e-07
5.76545e-07
1.92599e-06
2.6566e-06
8.88376e-07
1.91783e-06
8.84176e-07
5.79533e-07
4.12336e-07
9.82238e-07
3.38299e-07
1.29434e-06
3.37773e-07
1.2877e-06
4.12773e-07
5.69462e-07
8.67643e-07
1.89442e-06
2.63923e-06
5.66397e-07
1.90122e-06
8.72744e-07
4.06228e-07
9.6719e-07
3.32471e-07
1.26455e-06
4.05046e-07
3.33038e-07
1.27109e-06
5.76544e-07
1.92498e-06
2.65672e-06
8.89338e-07
1.91851e-06
5.79509e-07
8.83373e-07
4.2149e-07
1.31083e-06
3.43012e-07
1.00903e-06
4.19295e-07
1.31757e-06
3.43619e-07
5.97357e-07
9.21172e-07
2.70023e-06
1.97255e-06
9.16942e-07
1.96441e-06
6.00605e-07
5.90048e-07
1.94152e-06
9.00608e-07
2.68387e-06
9.04533e-07
5.86842e-07
1.94924e-06
4.26596e-07
1.02382e-06
1.34053e-06
3.49203e-07
1.33391e-06
3.48586e-07
4.2864e-07
4.20325e-07
3.43038e-07
1.31084e-06
1.00893e-06
4.20084e-07
3.43625e-07
1.3175e-06
5.97341e-07
9.22383e-07
2.70049e-06
1.97128e-06
1.96519e-06
9.16115e-07
6.00642e-07
5.90027e-07
1.9421e-06
8.99838e-07
2.68401e-06
5.86827e-07
1.9483e-06
9.05484e-07
4.27569e-07
1.02388e-06
3.4923e-07
1.34051e-06
3.48631e-07
1.3339e-06
4.2793e-07
4.12821e-07
9.81546e-07
3.38272e-07
1.29404e-06
3.37739e-07
1.2879e-06
4.12981e-07
5.77475e-07
1.92466e-06
2.65626e-06
8.87935e-07
8.83971e-07
1.91834e-06
5.78359e-07
4.20308e-07
1.31034e-06
3.4297e-07
1.00908e-06
4.20077e-07
1.31811e-06
3.4364e-07
5.98366e-07
9.20865e-07
2.69987e-06
1.972e-06
5.99471e-07
9.16633e-07
1.96426e-06
5.88607e-07
1.94142e-06
9.00186e-07
2.68329e-06
5.8776e-07
9.04434e-07
1.94912e-06
4.27487e-07
1.02375e-06
1.34136e-06
3.49184e-07
4.27901e-07
1.33326e-06
3.48527e-07
4.205e-07
3.43001e-07
1.31098e-06
1.00926e-06
4.20278e-07
3.43638e-07
1.31719e-06
5.98481e-07
9.21026e-07
2.69938e-06
1.97104e-06
1.96514e-06
9.16844e-07
5.99475e-07
5.88629e-07
1.94193e-06
9.0027e-07
2.68368e-06
5.87851e-07
1.94805e-06
9.04488e-07
4.27688e-07
1.02353e-06
3.49266e-07
1.34039e-06
3.48614e-07
1.33403e-06
4.28e-07
1.56751e-06
3.19132e-07
6.68486e-07
6.68656e-07
6.65622e-07
6.65394e-07
1.57448e-06
1.59932e-06
3.24711e-07
6.79596e-07
6.79606e-07
6.82689e-07
1.59243e-06
6.82492e-07
4.12023e-07
9.82179e-07
3.38908e-07
1.29528e-06
3.37225e-07
1.28695e-06
4.14034e-07
5.69605e-07
8.6793e-07
1.89474e-06
2.63925e-06
8.72155e-07
5.66485e-07
1.90079e-06
4.06821e-07
9.67537e-07
3.32206e-07
1.26397e-06
3.3362e-07
4.05457e-07
1.27188e-06
5.76551e-07
1.92478e-06
2.65636e-06
8.88476e-07
8.8434e-07
1.91852e-06
5.79573e-07
4.20598e-07
3.43054e-07
1.31105e-06
1.009e-06
4.20359e-07
3.43679e-07
1.31761e-06
5.97509e-07
9.20687e-07
2.70001e-06
1.97148e-06
6.00357e-07
9.1687e-07
1.96549e-06
5.89733e-07
1.9423e-06
9.00393e-07
2.68348e-06
5.8766e-07
9.04268e-07
1.94879e-06
4.27724e-07
1.02394e-06
3.4984e-07
1.34059e-06
4.28146e-07
3.48515e-07
1.33406e-06
4.21486e-07
3.42554e-07
1.31018e-06
1.00905e-06
4.19251e-07
3.44251e-07
1.31833e-06
5.97402e-07
9.21385e-07
2.69929e-06
1.97204e-06
1.96489e-06
9.17067e-07
6.00489e-07
5.90062e-07
1.94218e-06
9.00724e-07
2.68506e-06
5.86845e-07
1.94837e-06
9.04778e-07
4.26685e-07
1.02396e-06
3.49923e-07
1.34143e-06
3.48086e-07
1.33318e-06
4.28903e-07
1.60033e-06
3.24161e-07
6.79537e-07
6.79897e-07
1.59255e-06
6.82598e-07
6.8283e-07
1.66543e-06
3.3982e-07
7.25577e-07
7.27722e-07
1.67118e-06
7.22602e-07
7.21903e-07
4.43067e-07
1.06558e-06
1.38596e-06
3.6216e-07
1.37949e-06
3.59879e-07
4.44869e-07
6.10052e-07
9.33322e-07
1.98775e-06
2.72709e-06
1.99453e-06
6.08853e-07
9.37712e-07
4.36757e-07
1.05154e-06
1.35654e-06
3.53961e-07
1.3637e-06
4.34436e-07
3.55744e-07
6.20463e-07
2.01724e-06
2.74002e-06
9.54583e-07
2.0103e-06
9.50002e-07
6.21055e-07
4.43795e-07
1.06617e-06
1.38726e-06
3.62075e-07
1.37895e-06
3.59838e-07
4.43401e-07
6.10278e-07
9.33694e-07
1.98717e-06
2.72755e-06
6.0925e-07
1.99536e-06
9.3816e-07
4.35289e-07
1.05101e-06
1.35678e-06
3.53891e-07
4.35111e-07
1.36362e-06
3.55692e-07
6.20548e-07
2.01804e-06
2.7404e-06
9.54981e-07
2.00921e-06
6.21036e-07
9.50441e-07
1.66407e-06
3.39804e-07
7.2775e-07
7.27366e-07
7.21488e-07
7.2174e-07
1.67333e-06
4.42982e-07
1.06607e-06
1.3863e-06
3.62023e-07
1.37954e-06
3.60138e-07
4.44776e-07
6.11563e-07
9.33644e-07
1.98747e-06
2.7275e-06
1.99559e-06
6.08446e-07
9.38493e-07
4.36593e-07
1.05129e-06
1.35686e-06
3.54444e-07
1.36359e-06
4.34281e-07
3.55388e-07
6.19713e-07
2.01836e-06
2.7405e-06
9.56193e-07
2.00958e-06
9.49541e-07
6.20653e-07
4.43908e-07
1.06628e-06
3.62049e-07
1.38615e-06
3.60151e-07
1.37965e-06
4.43524e-07
6.11754e-07
9.32995e-07
1.98806e-06
2.72607e-06
6.08353e-07
1.99409e-06
9.39044e-07
4.35451e-07
1.05116e-06
3.54464e-07
1.35689e-06
4.35248e-07
3.55444e-07
1.3635e-06
6.19098e-07
2.01626e-06
2.742e-06
9.56365e-07
2.01057e-06
6.23107e-07
9.49529e-07
4.43921e-07
1.06569e-06
3.62027e-07
1.38705e-06
3.60152e-07
1.37926e-06
4.43544e-07
6.10218e-07
9.33511e-07
1.98786e-06
2.72705e-06
9.37483e-07
6.09249e-07
1.99461e-06
4.35458e-07
1.05156e-06
3.54444e-07
1.35698e-06
3.55424e-07
4.35281e-07
1.3636e-06
6.20092e-07
2.01753e-06
2.74012e-06
9.53941e-07
9.504e-07
2.00945e-06
6.23212e-07
1.66538e-06
3.39734e-07
7.25883e-07
7.25627e-07
7.2272e-07
7.22905e-07
1.67155e-06
4.43031e-07
1.06596e-06
3.61026e-07
1.38731e-06
3.60205e-07
1.3788e-06
4.44838e-07
6.1002e-07
9.33741e-07
1.98735e-06
2.72585e-06
9.3811e-07
6.08821e-07
1.99469e-06
4.36705e-07
1.05139e-06
3.54038e-07
1.35625e-06
3.55489e-07
4.34383e-07
1.36407e-06
6.20444e-07
2.01781e-06
2.74191e-06
9.54973e-07
9.50456e-07
2.00961e-06
6.21046e-07
4.99174e-07
4.99988e-07
4.9999e-07
4.99918e-07
4.45591e-07
4.54261e-07
4.54272e-07
4.63972e-07
4.03814e-07
4.18906e-07
4.18915e-07
4.39715e-07
3.68437e-07
3.88831e-07
3.8884e-07
4.17829e-07
3.38084e-07
3.62282e-07
3.62287e-07
3.96014e-07
3.117e-07
3.38367e-07
3.3837e-07
3.74323e-07
2.88507e-07
3.16656e-07
3.16663e-07
3.53341e-07
2.67936e-07
2.96975e-07
2.96981e-07
3.33636e-07
2.49571e-07
2.7927e-07
2.79272e-07
3.1585e-07
2.33108e-07
2.63535e-07
2.63534e-07
3.00388e-07
2.18318e-07
2.49775e-07
2.49774e-07
2.87651e-07
2.05027e-07
2.37985e-07
2.37986e-07
2.77869e-07
1.93094e-07
2.28164e-07
2.2817e-07
2.71177e-07
1.82406e-07
2.20319e-07
2.20332e-07
2.67558e-07
1.72873e-07
2.14453e-07
2.14471e-07
2.67021e-07
1.6442e-07
2.10581e-07
2.10599e-07
2.69846e-07
1.56984e-07
2.08708e-07
2.08728e-07
2.76171e-07
1.50512e-07
2.08846e-07
2.08865e-07
2.8586e-07
1.44961e-07
2.1105e-07
2.1107e-07
2.98764e-07
2.1533e-07
3.14829e-07
5.06196e-07
5.05569e-07
5.05572e-07
5.06203e-07
5.05569e-07
5.05573e-07
5.05986e-07
5.05986e-07
5.05985e-07
5.05983e-07
5.05571e-07
5.05562e-07
5.06206e-07
5.05569e-07
5.05562e-07
5.06189e-07
4.9989e-07
4.67408e-07
4.99994e-07
4.99995e-07