/*--------------------------------*- C++ -*----------------------------------*\
| =========                 |                                                 |
| \\      /  F ield         | OpenFOAM: The Open Source CFD Toolbox           |
|  \\    /   O peration     | Version:  2312                                  |
|   \\  /    A nd           | Website:  www.openfoam.com                      |
|    \\/     M anipulation  |                                                 |
\*---------------------------------------------------------------------------*/
FoamFile
{
    version     2.0;
    format      ascii;
    arch        "LSB;label=32;scalar=64";
    class       volVectorField;
    location    "400";
    object      U;
}
// * * * * * * * * * * * * * * * * * * * * * * * * * * * * * * * * * * * * * //

dimensions      [0 1 -1 0 0 0 0];

internalField   nonuniform List<vector> 
43008
(
(6.34928e-05 6.35243e-05 0.108289)
(5.91416e-05 -9.55542e-05 0.107557)
(6.22743e-05 6.22758e-05 0.108604)
(-9.36768e-05 5.81645e-05 0.107771)
(5.81157e-05 -9.37183e-05 0.107771)
(-0.000149578 -0.000149593 0.106584)
(0.000152334 0.000152396 0.106508)
(1.25839e-05 1.27004e-05 0.106725)
(5.93005e-05 9.5527e-05 0.107557)
(-5.94313e-05 9.56766e-05 0.107557)
(5.85689e-05 9.4187e-05 0.107719)
(-5.86461e-05 9.4285e-05 0.107719)
(-1.26067e-05 1.26903e-05 0.106725)
(9.55516e-05 5.92346e-05 0.107557)
(9.55709e-05 -5.93625e-05 0.107556)
(9.41861e-05 5.84893e-05 0.107719)
(9.41561e-05 -5.85901e-05 0.107718)
(-9.4136e-05 5.84466e-05 0.107719)
(-9.4061e-05 -5.85214e-05 0.107719)
(0.000152409 -0.000152456 0.106508)
(1.26e-05 -1.25808e-05 0.106725)
(-5.92127e-05 -9.5541e-05 0.107557)
(5.83721e-05 -9.41594e-05 0.107719)
(-5.8433e-05 -9.41695e-05 0.107719)
(-1.26569e-05 -1.25836e-05 0.106724)
(0.000149546 0.00014955 0.106585)
(5.83234e-05 9.3743e-05 0.10777)
(-5.83749e-05 9.3813e-05 0.10777)
(-0.000149557 0.00014956 0.106585)
(9.37387e-05 5.82253e-05 0.107771)
(9.37011e-05 -5.83273e-05 0.10777)
(-9.35944e-05 -5.82515e-05 0.10777)
(0.00014955 -0.000149614 0.106584)
(-5.81671e-05 -9.37231e-05 0.10777)
(2.06173e-06 2.08601e-05 0.0947504)
(-2.84637e-06 3.83043e-05 0.0840938)
(2.76107e-06 7.04854e-05 0.0947937)
(-5.21045e-06 -1.23748e-06 0.0840809)
(5.93468e-06 -4.84701e-06 0.0725367)
(2.08289e-05 2.07874e-06 0.0947507)
(3.83102e-05 -2.81062e-06 0.0840945)
(7.04681e-05 2.79735e-06 0.094794)
(-1.32414e-06 -5.3781e-06 0.0840816)
(-6.35431e-05 6.35332e-05 0.108289)
(6.34833e-05 -6.35345e-05 0.108289)
(-6.35216e-05 -6.35293e-05 0.108289)
(6.25736e-05 6.25827e-05 0.108526)
(-6.26006e-05 6.25817e-05 0.108526)
(6.2542e-05 -6.26019e-05 0.108526)
(-6.25817e-05 -6.26015e-05 0.108526)
(-6.21523e-05 6.42388e-06 0.103006)
(-9.5063e-05 5.899e-05 0.107612)
(-3.02987e-05 2.15594e-06 0.0963714)
(-0.000104314 2.11394e-05 0.108127)
(1.63652e-05 -3.4754e-06 0.0725067)
(-4.76605e-06 5.91811e-06 0.0725356)
(6.28658e-06 -6.21223e-05 0.103005)
(2.12548e-05 -0.000104784 0.108055)
(3.08781e-05 -7.53302e-05 0.0963601)
(5.8882e-05 -9.5079e-05 0.107612)
(7.56739e-06 -0.000126262 0.102968)
(2.11142e-05 -0.000104378 0.108127)
(2.14558e-06 -3.02293e-05 0.0963695)
(-1.41341e-05 -1.40161e-05 0.106681)
(-1.56253e-05 2.01944e-06 0.0899648)
(2.05177e-06 -1.56314e-05 0.0899616)
(1.62634e-06 1.5291e-05 0.0943845)
(-1.86367e-06 3.51801e-05 0.0838203)
(2.3374e-06 6.36317e-05 0.0944186)
(-4.53539e-06 -3.3599e-06 0.0838163)
(-3.43311e-06 1.56183e-05 0.0723246)
(5.64936e-06 -5.17841e-06 0.0723586)
(1.52713e-05 1.63108e-06 0.0943849)
(3.52125e-05 -1.98503e-06 0.0838212)
(6.36379e-05 2.3254e-06 0.0944189)
(-3.31096e-06 -4.55232e-06 0.083817)
(-6.22921e-05 6.22721e-05 0.108604)
(6.22353e-05 -6.22991e-05 0.108604)
(-6.2275e-05 -6.2297e-05 0.108604)
(-5.53799e-05 5.22827e-06 0.102755)
(-6.98324e-05 2.83654e-05 0.0960254)
(-0.000103153 2.06834e-05 0.108337)
(-9.31987e-05 5.78886e-05 0.107822)
(-0.000118551 6.56211e-06 0.102725)
(-2.55825e-05 6.90783e-07 0.0960416)
(-0.000102776 2.0537e-05 0.108405)
(1.55565e-05 -3.5201e-06 0.0723246)
(-5.1824e-06 5.73245e-06 0.0723577)
(5.1584e-06 -5.54184e-05 0.102754)
(2.06886e-05 -0.000103238 0.108337)
(2.84118e-05 -6.9894e-05 0.0960266)
(5.78262e-05 -9.32385e-05 0.107822)
(6.65071e-06 -0.000118664 0.102725)
(2.0543e-05 -0.000102839 0.108406)
(7.31537e-07 -2.55336e-05 0.0960395)
(-3.43239e-05 -1.83025e-05 0.0896681)
(-1.82574e-05 -3.43151e-05 0.0896672)
(-1.11931e-05 -1.11206e-05 0.106761)
(-1.30779e-05 2.63482e-06 0.0896669)
(2.62512e-06 -1.30471e-05 0.0896635)
(3.40069e-06 1.63024e-05 0.0725066)
(-6.0563e-06 -4.81618e-06 0.0725361)
(1.63e-05 3.34611e-06 0.0725056)
(-4.97167e-06 -6.24173e-06 0.0725355)
(1.95092e-05 3.69316e-05 0.089975)
(3.69108e-05 1.93901e-05 0.0899724)
(1.402e-05 1.4152e-05 0.106682)
(-2.08612e-06 1.56243e-05 0.0899653)
(1.54011e-05 -2.14682e-06 0.0899631)
(-5.56812e-06 -5.00652e-06 0.072445)
(3.52105e-06 1.60095e-05 0.0724133)
(-5.00716e-06 -5.88795e-06 0.0724446)
(1.58936e-05 3.32569e-06 0.0724121)
(0.000151011 0.00015105 0.10655)
(-2.24797e-06 1.4318e-05 0.0898127)
(1.42506e-05 -2.398e-06 0.0898107)
(1.88695e-05 3.56812e-05 0.0898184)
(3.55507e-05 1.87748e-05 0.0898156)
(-2.21298e-06 2.08488e-05 0.0947504)
(2.76667e-06 3.82379e-05 0.0840941)
(-2.98203e-06 7.04697e-05 0.0947939)
(5.11324e-06 -1.24503e-06 0.0840813)
(6.30749e-06 6.21008e-05 0.103005)
(3.08254e-05 7.53994e-05 0.096359)
(2.12583e-05 0.000104743 0.108055)
(5.9057e-05 9.5089e-05 0.107612)
(7.46503e-06 0.00012628 0.102968)
(2.08049e-06 3.03272e-05 0.096369)
(2.11154e-05 0.000104338 0.108127)
(-6.41934e-06 6.20859e-05 0.103005)
(-3.09313e-05 7.53392e-05 0.0963587)
(-2.13138e-05 0.000104774 0.108055)
(-5.91911e-05 9.52231e-05 0.107612)
(-7.65767e-06 0.000126284 0.102968)
(-2.26809e-06 3.02968e-05 0.0963685)
(-2.11857e-05 0.000104368 0.108127)
(2.51861e-06 6.69302e-05 0.094602)
(-4.64525e-06 -2.45428e-06 0.083945)
(-2.24365e-06 3.66764e-05 0.0839535)
(1.82043e-06 1.79311e-05 0.0945632)
(-2.70442e-06 6.69225e-05 0.0946022)
(4.63453e-06 -2.31632e-06 0.0839452)
(2.26109e-06 3.66808e-05 0.083954)
(-1.9468e-06 1.79404e-05 0.0945632)
(7.01826e-06 0.000122452 0.102849)
(5.88258e-05 9.46581e-05 0.107666)
(1.47098e-06 2.77536e-05 0.0962015)
(2.08404e-05 0.000103568 0.108268)
(2.96449e-05 7.26026e-05 0.0961897)
(2.0978e-05 0.000103957 0.108198)
(5.71078e-06 5.86578e-05 0.102882)
(-7.17083e-06 0.000122451 0.102849)
(-5.89145e-05 9.47588e-05 0.107666)
(-1.51468e-06 2.79225e-05 0.0962005)
(-2.08926e-05 0.000103586 0.108268)
(-2.96892e-05 7.25796e-05 0.0961895)
(-2.10379e-05 0.000103978 0.108198)
(-5.79679e-06 5.86613e-05 0.102882)
(-1.40729e-05 1.41637e-05 0.106682)
(1.96048e-06 1.562e-05 0.0899634)
(-1.5685e-05 -2.09434e-06 0.0899669)
(4.73979e-06 -5.9565e-06 0.0725387)
(5.73005e-06 -4.81345e-06 0.0724454)
(-3.46188e-06 1.59371e-05 0.0724134)
(-0.000151068 0.00015108 0.10655)
(2.39317e-06 1.44911e-05 0.0898106)
(-1.4339e-05 -2.43454e-06 0.0898144)
(-1.8864e-05 3.56358e-05 0.0898156)
(-3.55948e-05 1.88048e-05 0.0898168)
(5.00176e-06 -5.86485e-06 0.072448)
(-1.59643e-05 3.40787e-06 0.0724108)
(6.20705e-05 6.31075e-06 0.103006)
(7.53086e-05 3.08706e-05 0.0963591)
(0.000104738 2.1247e-05 0.108055)
(9.50916e-05 5.8984e-05 0.107612)
(0.000126243 7.48872e-06 0.102968)
(3.0142e-05 2.01766e-06 0.0963689)
(0.000104322 2.11056e-05 0.108127)
(2.08302e-05 -2.18646e-06 0.0947505)
(3.83125e-05 2.6928e-06 0.0840942)
(7.0469e-05 -2.92904e-06 0.0947938)
(-1.16072e-06 5.17239e-06 0.0840809)
(6.20843e-05 -6.39009e-06 0.103005)
(0.000104759 -2.13138e-05 0.108055)
(7.53507e-05 -3.0943e-05 0.0963588)
(9.50874e-05 -5.91128e-05 0.107612)
(0.000126239 -7.62404e-06 0.102968)
(0.000104338 -2.11816e-05 0.108127)
(3.03116e-05 -2.10498e-06 0.0963674)
(6.69208e-05 2.54854e-06 0.0946023)
(-2.35865e-06 -4.82457e-06 0.0839459)
(3.6662e-05 -2.36551e-06 0.083954)
(1.79269e-05 1.84928e-06 0.0945636)
(0.000122432 7.03659e-06 0.102849)
(9.4653e-05 5.87464e-05 0.107666)
(2.77615e-05 1.38436e-06 0.0962015)
(0.00010355 2.08286e-05 0.108268)
(7.25517e-05 2.96087e-05 0.0961896)
(0.000103939 2.09664e-05 0.108197)
(5.86829e-05 5.71531e-06 0.102883)
(6.69188e-05 -2.66693e-06 0.0946021)
(-2.27361e-06 4.85645e-06 0.0839449)
(3.67052e-05 2.29909e-06 0.0839537)
(1.79295e-05 -1.90108e-06 0.0945634)
(0.000122444 -7.15581e-06 0.102849)
(9.46268e-05 -5.88605e-05 0.107665)
(0.00010355 -2.09003e-05 0.108268)
(2.78666e-05 -1.35726e-06 0.0961998)
(0.000103941 -2.10444e-05 0.108197)
(7.25573e-05 -2.96549e-05 0.0961894)
(5.86906e-05 -5.76651e-06 0.102882)
(-2.09125e-05 2.24915e-06 0.0947521)
(1.18976e-06 -5.19336e-06 0.0840833)
(-6.21089e-05 -6.30002e-06 0.103005)
(-9.50153e-05 -5.90441e-05 0.107612)
(-0.000104289 -2.11624e-05 0.108127)
(-3.03152e-05 -2.13797e-06 0.0963693)
(-2.08715e-05 -2.04169e-06 0.0947507)
(1.22121e-06 5.16086e-06 0.0840812)
(-0.000122383 7.04089e-06 0.102849)
(-9.46085e-05 5.8718e-05 0.107666)
(-2.78778e-05 1.39594e-06 0.0962038)
(-0.000103529 2.08346e-05 0.108268)
(-7.24685e-05 2.95731e-05 0.0961895)
(-0.000103918 2.09856e-05 0.108198)
(-5.8741e-05 5.81691e-06 0.102883)
(-6.68774e-05 2.55828e-06 0.0946014)
(2.31783e-06 -4.88872e-06 0.0839475)
(-3.66604e-05 -2.32073e-06 0.0839529)
(-1.80206e-05 1.96372e-06 0.0945649)
(-0.000122396 -7.0887e-06 0.102849)
(-9.4545e-05 -5.87971e-05 0.107666)
(-0.000103512 -2.08844e-05 0.108268)
(-2.79439e-05 -1.40886e-06 0.0962017)
(-0.000103894 -2.1023e-05 0.108197)
(-7.24886e-05 -2.96377e-05 0.0961894)
(-5.86804e-05 -5.70083e-06 0.102882)
(-6.68999e-05 -2.6288e-06 0.094602)
(2.32859e-06 4.83045e-06 0.0839453)
(-3.67135e-05 2.30717e-06 0.0839535)
(-1.79921e-05 -1.80991e-06 0.0945635)
(3.69534e-05 -1.94971e-05 0.0899729)
(1.94266e-05 -3.69653e-05 0.0899749)
(1.40582e-05 -1.40385e-05 0.106681)
(1.56393e-05 1.97779e-06 0.0899613)
(-2.01131e-06 -1.56459e-05 0.0899653)
(3.39927e-06 -1.6408e-05 0.0725067)
(-5.95109e-06 4.78177e-06 0.0725364)
(-4.99014e-06 5.82059e-06 0.0724446)
(1.59485e-05 -3.50687e-06 0.0724135)
(0.000151024 -0.000151083 0.10655)
(1.43139e-05 2.30852e-06 0.0898088)
(-2.31236e-06 -1.4313e-05 0.0898127)
(3.55948e-05 -1.88873e-05 0.0898163)
(1.88183e-05 -3.55844e-05 0.0898181)
(-5.82935e-06 5.01257e-06 0.0724453)
(3.44686e-06 -1.59914e-05 0.0724134)
(-6.38578e-06 -6.21118e-05 0.103006)
(-2.12868e-05 -0.000104725 0.108055)
(-3.09349e-05 -7.53755e-05 0.0963587)
(-5.8944e-05 -9.50876e-05 0.107612)
(-7.54791e-06 -0.000126225 0.102967)
(-2.11439e-05 -0.00010431 0.108127)
(-2.13036e-06 -3.02138e-05 0.0963677)
(2.11227e-06 -2.09161e-05 0.0947505)
(-2.7362e-06 -3.83141e-05 0.0840948)
(2.89282e-06 -7.04744e-05 0.0947935)
(-5.14645e-06 1.23839e-06 0.0840815)
(-2.12648e-06 -2.08814e-05 0.0947508)
(2.71739e-06 -3.83108e-05 0.0840943)
(-2.86093e-06 -7.04521e-05 0.0947927)
(5.17932e-06 1.2046e-06 0.084081)
(7.0951e-06 -0.000122459 0.102849)
(5.86338e-05 -9.46312e-05 0.107666)
(2.08315e-05 -0.000103589 0.108268)
(1.4056e-06 -2.77957e-05 0.0962018)
(2.09736e-05 -0.000103998 0.108197)
(2.96042e-05 -7.25401e-05 0.0961907)
(5.72686e-06 -5.87471e-05 0.102882)
(-7.07253e-06 -0.000122404 0.102848)
(-5.87008e-05 -9.46336e-05 0.107666)
(-2.08697e-05 -0.000103542 0.108267)
(-1.39687e-06 -2.77731e-05 0.0962)
(-2.10047e-05 -0.000103946 0.108197)
(-2.96489e-05 -7.2561e-05 0.0961895)
(-5.75845e-06 -5.87358e-05 0.102882)
(2.65442e-06 -6.69318e-05 0.0946017)
(-4.81172e-06 2.33346e-06 0.0839455)
(-2.33038e-06 -3.66894e-05 0.0839544)
(1.86755e-06 -1.80231e-05 0.0945633)
(-2.59424e-06 -6.69186e-05 0.0946009)
(4.85058e-06 2.29703e-06 0.0839451)
(2.33135e-06 -3.66787e-05 0.0839539)
(-1.86007e-06 -1.79903e-05 0.0945636)
(4.78496e-06 5.92365e-06 0.0725364)
(5.98015e-06 4.75028e-06 0.0725355)
(-0.00015107 -0.000151066 0.10655)
(-1.43074e-05 2.34019e-06 0.0898123)
(2.35778e-06 -1.42887e-05 0.0898089)
(-3.56084e-05 -1.88736e-05 0.0898173)
(-1.88236e-05 -3.56152e-05 0.0898162)
(5.01395e-06 5.81947e-06 0.0724454)
(-1.59821e-05 -3.47611e-06 0.0724133)
(5.85637e-06 4.97339e-06 0.0724444)
(-3.46064e-06 -1.59639e-05 0.0724133)
(3.64426e-06 1.56367e-05 0.0723244)
(-5.67124e-06 -5.24063e-06 0.0723583)
(1.55739e-05 3.45671e-06 0.0723235)
(-5.23231e-06 -5.74117e-06 0.0723578)
(1.83372e-05 3.44269e-05 0.0896694)
(3.43065e-05 1.82699e-05 0.0896665)
(1.11668e-05 1.12692e-05 0.106762)
(-2.51409e-06 1.30207e-05 0.0896671)
(1.30295e-05 -2.58947e-06 0.0896653)
(-1.66318e-06 1.5296e-05 0.0943845)
(1.98282e-06 3.5236e-05 0.083821)
(-2.43949e-06 6.36393e-05 0.0944188)
(4.50354e-06 -3.33271e-06 0.0838163)
(5.13923e-06 5.52999e-05 0.102755)
(2.85158e-05 6.996e-05 0.0960256)
(2.07013e-05 0.000103202 0.108337)
(5.80496e-05 9.32709e-05 0.107821)
(6.56651e-06 0.00011862 0.102725)
(7.60379e-07 2.55045e-05 0.0960392)
(2.0562e-05 0.00010282 0.108406)
(-5.17852e-06 5.52982e-05 0.102755)
(-2.84576e-05 6.99399e-05 0.0960256)
(-2.07452e-05 0.00010321 0.108337)
(-5.80916e-05 9.33187e-05 0.107821)
(-6.67707e-06 0.000118627 0.102725)
(-7.91324e-07 2.5574e-05 0.0960382)
(-2.05988e-05 0.000102826 0.108406)
(-1.81055e-05 3.4327e-05 0.0896664)
(-3.42967e-05 1.82115e-05 0.0896677)
(-1.11915e-05 1.12531e-05 0.106762)
(2.50469e-06 1.30882e-05 0.0896652)
(-1.31086e-05 -2.70749e-06 0.089669)
(-1.5539e-05 3.41809e-06 0.072322)
(5.22909e-06 -5.76062e-06 0.072361)
(5.53364e-05 5.12783e-06 0.102755)
(6.9907e-05 2.84498e-05 0.0960256)
(0.000103178 2.06911e-05 0.108337)
(9.32615e-05 5.79494e-05 0.107822)
(0.000118611 6.57326e-06 0.102725)
(2.54764e-05 7.26596e-07 0.0960394)
(0.00010279 2.05441e-05 0.108406)
(1.52691e-05 -1.64795e-06 0.0943846)
(3.52383e-05 1.98403e-06 0.0838207)
(6.36433e-05 -2.40405e-06 0.0944187)
(-3.23641e-06 4.60663e-06 0.083816)
(5.53464e-05 -5.16087e-06 0.102755)
(0.000103171 -2.07507e-05 0.108337)
(6.9907e-05 -2.8462e-05 0.0960253)
(9.3223e-05 -5.8031e-05 0.107821)
(0.000118615 -6.66506e-06 0.102724)
(0.000102791 -2.06088e-05 0.108405)
(2.55634e-05 -6.67551e-07 0.0960376)
(-1.53528e-05 1.70684e-06 0.094386)
(-3.51869e-05 -2.00774e-06 0.0838199)
(-6.36011e-05 2.29287e-06 0.094418)
(3.29511e-06 -4.62484e-06 0.0838186)
(-5.53156e-05 -5.11687e-06 0.102755)
(-0.000103131 -2.07371e-05 0.108337)
(-6.98727e-05 -2.84551e-05 0.0960253)
(-9.31127e-05 -5.79712e-05 0.107821)
(-0.000118557 -6.62062e-06 0.102725)
(-0.000102763 -2.05987e-05 0.108405)
(-2.56635e-05 -7.20137e-07 0.0960395)
(-1.5339e-05 -1.58292e-06 0.0943848)
(-3.52497e-05 1.98013e-06 0.0838205)
(-6.36274e-05 -2.4048e-06 0.0944186)
(3.3101e-06 4.58238e-06 0.0838164)
(3.43073e-05 -1.82964e-05 0.0896672)
(1.8241e-05 -3.42818e-05 0.089669)
(1.11534e-05 -1.11272e-05 0.106761)
(1.30769e-05 2.59286e-06 0.0896634)
(-2.59354e-06 -1.30842e-05 0.0896673)
(3.48108e-06 -1.55951e-05 0.0723245)
(-5.71776e-06 5.21534e-06 0.0723584)
(-5.1533e-06 -5.54029e-05 0.102755)
(-2.07221e-05 -0.000103198 0.108337)
(-2.84331e-05 -6.98643e-05 0.0960255)
(-5.78868e-05 -9.32532e-05 0.107821)
(-6.58054e-06 -0.000118609 0.102724)
(-2.05756e-05 -0.000102798 0.108405)
(-6.87015e-07 -2.54478e-05 0.0960379)
(1.64104e-06 -1.53813e-05 0.0943845)
(-1.98936e-06 -3.52321e-05 0.0838213)
(2.42385e-06 -6.36459e-05 0.0944182)
(-4.54778e-06 3.31344e-06 0.0838166)
(-1.61298e-06 -1.53451e-05 0.0943848)
(1.9963e-06 -3.52305e-05 0.0838209)
(-2.3488e-06 -6.36305e-05 0.0944174)
(4.58677e-06 3.24856e-06 0.0838161)
(-1.55827e-05 -3.50006e-06 0.0723243)
(5.20929e-06 5.72645e-06 0.0723585)
(-3.48587e-06 -1.55728e-05 0.0723244)
(5.75738e-06 5.17531e-06 0.0723575)
(-1.16237e-06 1.33349e-05 0.0780378)
(2.62499e-06 6.8676e-05 0.0946968)
(2.12794e-07 -1.0269e-05 0.0799117)
(4.15651e-06 1.39356e-05 0.0928152)
(6.55893e-08 8.3975e-06 0.0798521)
(6.36514e-06 5.91705e-05 0.0927526)
(1.53079e-07 -6.15835e-06 0.0781082)
(2.30715e-06 -6.66911e-06 0.0694209)
(5.29698e-06 3.91935e-05 0.0880747)
(-5.60433e-06 -6.32134e-07 0.0841517)
(8.3392e-07 1.24743e-05 0.0693263)
(3.67211e-06 3.63972e-06 0.0881434)
(-1.18108e-07 -6.24375e-06 0.0781569)
(2.17679e-06 2.24154e-05 0.0948471)
(-3.37184e-08 8.1787e-06 0.0799009)
(6.57757e-06 6.06703e-05 0.0928427)
(-1.42492e-06 1.32549e-05 0.0780866)
(1.22616e-07 -1.0499e-05 0.0799601)
(4.33355e-06 1.52313e-05 0.0929049)
(8.89697e-07 1.23607e-05 0.069283)
(3.63744e-06 2.93915e-06 0.0880641)
(-2.54097e-06 3.7501e-05 0.0840227)
(5.25984e-06 3.82517e-05 0.0879949)
(2.38874e-06 -6.73606e-06 0.0693774)
(6.01253e-06 -4.72686e-06 0.0725841)
(-3.3791e-06 1.61473e-05 0.0724592)
(1.33362e-05 -1.07463e-06 0.0780385)
(6.86608e-05 2.6656e-06 0.0946971)
(1.39236e-05 4.16435e-06 0.0928159)
(-1.0286e-05 2.34668e-07 0.0799123)
(5.91551e-05 6.43348e-06 0.0927533)
(8.38314e-06 1.14287e-07 0.0798525)
(-6.17206e-06 1.30752e-07 0.0781091)
(-6.7468e-06 2.34382e-06 0.0694219)
(3.91932e-05 5.39445e-06 0.0880754)
(-6.32078e-07 -5.35395e-06 0.0841524)
(1.25001e-05 9.11587e-07 0.0693272)
(3.57786e-06 3.76903e-06 0.0881441)
(-6.2752e-06 -8.2824e-08 0.0781577)
(2.23877e-05 2.22906e-06 0.0948474)
(6.0678e-05 6.64282e-06 0.0928432)
(8.16134e-06 9.5155e-09 0.0799012)
(1.32573e-05 -1.34916e-06 0.0780872)
(1.51983e-05 4.40645e-06 0.0929055)
(-1.05199e-05 1.6035e-07 0.0799607)
(1.24037e-05 9.67256e-07 0.0692841)
(2.85816e-06 3.598e-06 0.0880648)
(3.7466e-05 -2.65842e-06 0.0840234)
(3.82686e-05 5.23614e-06 0.0879957)
(-6.79029e-06 2.35205e-06 0.0693784)
(-4.64185e-06 5.9776e-06 0.0725828)
(1.6154e-05 -3.49764e-06 0.0724596)
(-2.75256e-05 -2.7538e-05 0.0856509)
(-3.93277e-07 6.27881e-06 0.0695839)
(6.28535e-06 -4.02518e-07 0.0695771)
(-1.00369e-05 -1.20161e-05 0.0695014)
(-1.19745e-05 -1.0084e-05 0.0694951)
(-8.48256e-06 -8.47886e-06 0.0857042)
(-1.61529e-05 -2.08909e-05 0.0946917)
(-1.63229e-05 1.84908e-06 0.0900439)
(-3.2829e-05 -3.54455e-05 0.10001)
(-1.24282e-05 6.99646e-06 0.0834762)
(-2.08458e-05 -1.60958e-05 0.0946828)
(1.87657e-06 -1.63508e-05 0.0900407)
(-3.53505e-05 -3.28426e-05 0.100005)
(7.02702e-06 -1.24309e-05 0.08347)
(-8.9645e-06 -8.94193e-06 0.0857767)
(-5.58538e-07 6.27675e-06 0.0696323)
(6.27784e-06 -5.62251e-07 0.0696255)
(-6.92116e-05 -4.42711e-05 0.0945369)
(-1.19582e-05 6.87669e-06 0.0834103)
(-3.62802e-05 -1.91704e-05 0.0898947)
(-3.16472e-05 -3.41832e-05 0.0999311)
(-9.9605e-05 -6.2678e-05 0.0998518)
(-3.07667e-05 -5.76946e-06 0.0833398)
(-1.53342e-05 -1.99751e-05 0.0946081)
(-4.42688e-05 -6.92003e-05 0.0945291)
(6.9023e-06 -1.19547e-05 0.0834041)
(-1.9132e-05 -3.62981e-05 0.0898934)
(-3.40767e-05 -3.16632e-05 0.0999267)
(-6.26725e-05 -9.96286e-05 0.0998485)
(-5.74989e-06 -3.08663e-05 0.0833355)
(-1.98952e-05 -1.52861e-05 0.0945993)
(-2.26101e-07 1.35801e-05 0.0778563)
(2.22944e-06 6.20954e-05 0.0943301)
(4.42296e-07 -9.14776e-06 0.0797343)
(3.43674e-06 9.47207e-06 0.092479)
(3.81588e-07 9.43005e-06 0.0796741)
(5.72431e-06 5.37364e-05 0.0924152)
(8.43824e-07 -5.82293e-06 0.0779268)
(2.48267e-06 -7.00471e-06 0.0692532)
(4.95677e-06 3.57601e-05 0.0877686)
(-4.57106e-06 -2.83722e-06 0.0838798)
(1.08167e-06 1.19713e-05 0.0691598)
(3.25434e-06 9.61559e-07 0.087839)
(7.42061e-07 -5.89264e-06 0.0779703)
(1.752e-06 1.65925e-05 0.0944728)
(3.36159e-07 9.15233e-06 0.0797163)
(5.88804e-06 5.50079e-05 0.0924962)
(-4.52733e-07 1.35181e-05 0.0778997)
(4.3361e-07 -9.44868e-06 0.0797764)
(3.64576e-06 1.05215e-05 0.0925598)
(1.22613e-06 1.19874e-05 0.0691211)
(3.06907e-06 3.77033e-07 0.0877681)
(-1.787e-06 3.4536e-05 0.0837567)
(4.82731e-06 3.50939e-05 0.0876975)
(2.49115e-06 -7.03426e-06 0.069214)
(5.74061e-06 -5.07363e-06 0.0724013)
(-3.61853e-06 1.55235e-05 0.0722815)
(1.35795e-05 -2.51526e-07 0.077857)
(6.20814e-05 2.22101e-06 0.0943304)
(9.46814e-06 3.42656e-06 0.0924796)
(-9.14505e-06 4.43301e-07 0.0797349)
(5.37353e-05 5.70614e-06 0.0924158)
(9.43402e-06 3.67169e-07 0.0796745)
(-5.82372e-06 8.33531e-07 0.0779276)
(-6.95996e-06 2.47803e-06 0.0692542)
(3.58099e-05 4.94944e-06 0.0877695)
(-2.84591e-06 -4.67832e-06 0.0838806)
(1.21117e-05 1.16427e-06 0.069161)
(9.42439e-07 3.22301e-06 0.0878398)
(-5.90589e-06 6.9819e-07 0.0779711)
(1.65762e-05 1.73326e-06 0.0944732)
(5.50038e-05 5.87235e-06 0.0924969)
(9.1577e-06 3.21409e-07 0.0797167)
(1.3529e-05 -4.22096e-07 0.0779005)
(1.04957e-05 3.6065e-06 0.0925604)
(-9.44505e-06 4.04284e-07 0.0797771)
(1.20116e-05 1.22216e-06 0.069122)
(3.71147e-07 3.07416e-06 0.0877689)
(3.45449e-05 -1.84846e-06 0.0837573)
(3.50731e-05 4.82867e-06 0.0876982)
(-7.0073e-06 2.49046e-06 0.0692149)
(-5.09213e-06 5.77636e-06 0.0724006)
(1.53695e-05 -3.52489e-06 0.0722817)
(-2.55493e-05 -2.5578e-05 0.0853786)
(2.56983e-07 6.2249e-06 0.0694009)
(6.22977e-06 2.56492e-07 0.0693942)
(-9.43911e-06 -1.17182e-05 0.0693189)
(-1.16615e-05 -9.4837e-06 0.0693126)
(-6.74506e-06 -6.74932e-06 0.0854336)
(-1.29811e-05 -1.74256e-05 0.0943686)
(-9.53469e-05 -5.89809e-05 0.0996209)
(-2.9367e-05 -5.99309e-06 0.0831506)
(-1.36753e-05 2.49501e-06 0.0897387)
(-6.60759e-05 -4.15113e-05 0.0942969)
(-2.83358e-05 -3.06834e-05 0.0996999)
(-1.05307e-05 6.5385e-06 0.0832213)
(-1.73078e-05 -1.29241e-05 0.0943597)
(-5.89281e-05 -9.53184e-05 0.0996178)
(-5.96753e-06 -2.94471e-05 0.0831462)
(2.4886e-06 -1.36643e-05 0.0897353)
(-4.1486e-05 -6.60937e-05 0.0942891)
(-3.0491e-05 -2.83056e-05 0.0996954)
(6.56691e-06 -1.05072e-05 0.0832151)
(-7.15547e-06 -7.16042e-06 0.0854985)
(-9.58542e-06 -1.17883e-05 0.0693629)
(-1.17309e-05 -9.63276e-06 0.0693566)
(-2.60184e-05 -2.60517e-05 0.085444)
(1.02499e-07 6.23972e-06 0.0694451)
(6.24993e-06 9.86447e-08 0.0694384)
(-6.51074e-05 -4.06644e-05 0.0942205)
(-1.00613e-05 6.44299e-06 0.0831612)
(-3.37124e-05 -1.80271e-05 0.0895962)
(-2.72922e-05 -2.95719e-05 0.0996243)
(-9.3967e-05 -5.78005e-05 0.0995456)
(-2.8895e-05 -6.0532e-06 0.0830903)
(-1.22137e-05 -1.65976e-05 0.0942923)
(-4.06255e-05 -6.51062e-05 0.0942127)
(6.46775e-06 -1.00317e-05 0.083155)
(-1.7987e-05 -3.3686e-05 0.0895953)
(-2.93654e-05 -2.72385e-05 0.0996199)
(-5.77368e-05 -9.39305e-05 0.0995425)
(-6.03002e-06 -2.89728e-05 0.083086)
(-1.65118e-05 -1.21834e-05 0.0942833)
(-6.28219e-06 -4.88174e-06 0.0725834)
(3.40181e-06 1.61267e-05 0.0724591)
(-4.52934e-06 -6.01427e-06 0.0725829)
(1.61273e-05 3.31238e-06 0.0724587)
(2.74408e-05 2.75113e-05 0.0856505)
(-6.25533e-06 3.92672e-07 0.0695844)
(3.04981e-07 -6.19367e-06 0.0695775)
(1.19232e-05 1.00197e-05 0.0695012)
(1.00431e-05 1.19681e-05 0.0694945)
(8.38965e-06 8.49871e-06 0.0857052)
(2.0776e-05 1.60511e-05 0.0946926)
(6.39891e-05 0.00010112 0.0999308)
(5.76874e-06 3.13175e-05 0.0834071)
(-1.98333e-06 1.61853e-05 0.0900445)
(4.5158e-05 7.03395e-05 0.094621)
(-7.11428e-06 1.23564e-05 0.0834774)
(3.53166e-05 3.27986e-05 0.10001)
(1.60961e-05 2.07464e-05 0.0946845)
(0.000100949 6.39257e-05 0.0999266)
(3.12339e-05 5.59158e-06 0.083401)
(1.63671e-05 -1.94522e-06 0.0900424)
(7.01318e-05 4.52144e-05 0.0946123)
(1.24121e-05 -7.16336e-06 0.0834716)
(3.27535e-05 3.53216e-05 0.100007)
(8.78744e-06 8.74443e-06 0.0857777)
(1.21641e-05 1.03865e-05 0.06955)
(1.01248e-05 1.20966e-05 0.0695432)
(2.79139e-05 2.81529e-05 0.0857236)
(-6.37413e-06 3.76235e-07 0.0696331)
(4.29629e-07 -6.56036e-06 0.0696261)
(4.41741e-05 6.92208e-05 0.094537)
(-6.84276e-06 1.19375e-05 0.0834113)
(1.91166e-05 3.63165e-05 0.0898956)
(3.4098e-05 3.16901e-05 0.0999317)
(5.67846e-06 3.0801e-05 0.0833406)
(1.99358e-05 1.53373e-05 0.094609)
(6.26465e-05 9.96992e-05 0.0998523)
(6.90816e-05 4.42432e-05 0.0945285)
(1.18723e-05 -6.8082e-06 0.0834056)
(3.61615e-05 1.90861e-05 0.0898931)
(3.15381e-05 3.40825e-05 0.0999286)
(3.07669e-05 5.76448e-06 0.083335)
(1.51989e-05 1.9931e-05 0.0946009)
(9.94477e-05 6.2609e-05 0.0998482)
(3.56856e-06 1.57842e-05 0.0723682)
(-5.99079e-06 -4.97492e-06 0.0724902)
(1.57653e-05 3.42512e-06 0.0723675)
(-4.89175e-06 -5.96604e-06 0.0724895)
(7.99866e-06 7.995e-06 0.0856349)
(1.1922e-05 9.94951e-06 0.069454)
(9.9073e-06 1.19886e-05 0.0694474)
(2.69801e-05 2.70806e-05 0.0855797)
(-6.22472e-06 1.87913e-07 0.0695372)
(2.04524e-07 -6.29683e-06 0.0695303)
(4.24062e-05 6.71915e-05 0.0943754)
(3.17628e-05 2.94473e-05 0.0997767)
(1.8591e-05 3.50356e-05 0.0897429)
(-6.6163e-06 1.10279e-05 0.0832839)
(5.95063e-06 2.98937e-05 0.0832132)
(6.0198e-05 9.6852e-05 0.0996978)
(1.82295e-05 1.37758e-05 0.0944474)
(6.70552e-05 4.24316e-05 0.0943668)
(2.93724e-05 3.17127e-05 0.0997736)
(3.49353e-05 1.85122e-05 0.0897402)
(1.09708e-05 -6.67848e-06 0.0832783)
(2.98787e-05 5.93937e-06 0.0832073)
(9.66516e-05 6.01487e-05 0.0996936)
(1.36763e-05 1.81659e-05 0.0944394)
(1.90739e-05 1.45123e-05 0.0945273)
(5.88003e-06 3.03568e-05 0.0832762)
(6.14174e-05 9.82731e-05 0.0997747)
(-2.21853e-06 1.48894e-05 0.089888)
(4.32937e-05 6.82221e-05 0.0944553)
(-6.70027e-06 1.14352e-05 0.0833468)
(3.2892e-05 3.05225e-05 0.0998538)
(1.44817e-05 1.90291e-05 0.0945192)
(3.03115e-05 5.86296e-06 0.0832702)
(9.80816e-05 6.13912e-05 0.0997705)
(1.49289e-05 -2.27199e-06 0.089886)
(6.80484e-05 4.33576e-05 0.0944467)
(1.14487e-05 -6.78631e-06 0.0833412)
(3.04948e-05 3.28891e-05 0.0998507)
(2.65248e-05 2.65662e-05 0.0855109)
(-6.35078e-06 2.87957e-08 0.0694909)
(1.4307e-08 -6.30881e-06 0.069484)
(1.18697e-05 9.77873e-06 0.0694081)
(9.80856e-06 1.18835e-05 0.0694013)
(7.52274e-06 7.55903e-06 0.0855663)
(8.73864e-07 1.33334e-05 0.0780377)
(-2.85342e-06 6.86663e-05 0.094697)
(-3.48176e-07 -1.02799e-05 0.0799117)
(-4.27976e-06 1.39229e-05 0.092815)
(-2.7715e-07 8.38781e-06 0.0798522)
(-6.59537e-06 5.91639e-05 0.0927537)
(-2.69608e-07 -6.17559e-06 0.0781078)
(-2.44727e-06 -6.72783e-06 0.069423)
(-5.47181e-06 3.91506e-05 0.0880766)
(5.32374e-06 -6.33228e-07 0.0841521)
(-9.63681e-07 1.24491e-05 0.0693294)
(-3.88591e-06 3.6165e-06 0.0881438)
(-6.34914e-08 -6.25097e-06 0.0781565)
(-2.35848e-06 2.24009e-05 0.0948471)
(-1.7894e-07 8.16702e-06 0.0799009)
(-6.78213e-06 6.06702e-05 0.0928438)
(-2.93674e-07 -1.05142e-05 0.0799601)
(1.22168e-06 1.32427e-05 0.0780865)
(-4.51601e-06 1.52219e-05 0.0929046)
(-1.11471e-06 1.24506e-05 0.069286)
(-3.72929e-06 2.90183e-06 0.0880645)
(2.47343e-06 3.7495e-05 0.0840231)
(-5.42584e-06 3.83148e-05 0.0879968)
(-2.48548e-06 -6.76913e-06 0.0693795)
(3.74711e-07 -6.06302e-06 0.0780609)
(1.55971e-07 8.63441e-06 0.0798052)
(6.19362e-06 5.76923e-05 0.0926649)
(1.93181e-06 1.93744e-05 0.0946557)
(-9.23714e-07 1.33918e-05 0.0779904)
(2.73065e-07 -1.00137e-05 0.079865)
(3.94604e-06 1.27136e-05 0.0927279)
(1.00803e-06 1.21366e-05 0.0692002)
(-1.97051e-06 3.58992e-05 0.0838863)
(3.34318e-06 1.32537e-06 0.0879119)
(2.21419e-06 -7.21928e-06 0.0692935)
(5.11309e-06 3.6468e-05 0.087842)
(2.44683e-06 -6.74589e-06 0.0693351)
(5.19779e-06 3.7347e-05 0.0879174)
(-5.01162e-06 -1.82969e-06 0.0840121)
(9.62557e-07 1.22004e-05 0.069241)
(3.51495e-06 2.26399e-06 0.0879871)
(-7.41039e-07 1.34433e-05 0.0779445)
(2.40626e-06 6.52517e-05 0.0945092)
(3.12042e-07 -9.74814e-06 0.07982)
(3.7157e-06 1.1537e-05 0.0926427)
(3.27827e-07 -6.04934e-06 0.078015)
(2.11737e-07 8.89965e-06 0.07976)
(5.98091e-06 5.62971e-05 0.0925795)
(-4.3998e-07 -6.09609e-06 0.0780605)
(-3.15744e-07 8.62834e-06 0.0798053)
(-6.35112e-06 5.77004e-05 0.092666)
(-2.0725e-06 1.9367e-05 0.0946558)
(7.34739e-07 1.33735e-05 0.0779903)
(-3.94866e-07 -1.00191e-05 0.079865)
(-4.06525e-06 1.27056e-05 0.0927276)
(-1.18046e-06 1.21937e-05 0.0692028)
(2.0773e-06 3.59517e-05 0.0838865)
(-3.50409e-06 1.54656e-06 0.0879123)
(-5.17223e-06 3.65884e-05 0.0878437)
(-2.54573e-06 -6.91552e-06 0.0692957)
(-2.49681e-06 -6.85504e-06 0.069337)
(-5.2793e-06 3.74231e-05 0.0879192)
(4.92714e-06 -1.8232e-06 0.0840122)
(-1.10286e-06 1.22728e-05 0.0692439)
(-3.57936e-06 2.19877e-06 0.0879873)
(5.12696e-07 1.34551e-05 0.0779443)
(-2.56566e-06 6.52502e-05 0.0945094)
(-4.53848e-07 -9.74394e-06 0.07982)
(-3.88404e-06 1.1568e-05 0.0926424)
(-3.61108e-07 8.89861e-06 0.07976)
(-6.16855e-06 5.63182e-05 0.0925805)
(-6.34162e-07 -5.9965e-06 0.0780146)
(-2.75593e-05 2.75296e-05 0.0856511)
(6.2406e-06 3.09751e-07 0.0695784)
(-4.42199e-07 -6.36261e-06 0.0695838)
(-1.20562e-05 1.00785e-05 0.0694954)
(-1.0045e-05 1.19824e-05 0.0695009)
(-8.52762e-06 8.37844e-06 0.0857051)
(-2.08911e-05 1.61186e-05 0.0946841)
(1.79662e-06 1.63249e-05 0.0900426)
(6.94717e-06 1.24351e-05 0.0834717)
(-3.54646e-05 3.28687e-05 0.100007)
(-1.6162e-05 2.0857e-05 0.0946929)
(-1.63763e-05 -1.9054e-06 0.0900459)
(-3.28924e-05 3.53702e-05 0.100011)
(-1.24587e-05 -7.07978e-06 0.0834774)
(-9.00803e-06 8.87013e-06 0.0857776)
(6.22273e-06 4.7987e-07 0.0696268)
(-6.1073e-07 -6.35499e-06 0.0696322)
(-4.43099e-05 6.91972e-05 0.0945287)
(6.82821e-06 1.19554e-05 0.0834059)
(-1.91579e-05 3.6312e-05 0.0898929)
(-3.42117e-05 3.16861e-05 0.0999281)
(-5.81888e-06 3.08275e-05 0.0833348)
(-6.26807e-05 9.96443e-05 0.0998483)
(-1.99706e-05 1.52995e-05 0.0946006)
(-6.92071e-05 4.429e-05 0.0945374)
(-1.19786e-05 -6.98129e-06 0.0834116)
(-3.62486e-05 1.91415e-05 0.0898943)
(-3.17276e-05 3.41071e-05 0.0999328)
(-9.95466e-05 6.26902e-05 0.0998521)
(-3.07599e-05 5.77067e-06 0.0833402)
(-1.53457e-05 1.99289e-05 0.0946093)
(4.62117e-06 -6.00892e-06 0.0725856)
(-1.61646e-05 3.414e-06 0.0724572)
(-3.47027e-06 1.57905e-05 0.0723684)
(5.8516e-06 -4.94066e-06 0.0724903)
(-8.08432e-06 7.85955e-06 0.0856346)
(-1.19764e-05 9.9418e-06 0.0694482)
(-9.91951e-06 1.18888e-05 0.0694537)
(-2.70611e-05 2.70146e-05 0.0855803)
(6.27512e-06 9.15973e-08 0.0695312)
(-2.98741e-07 -6.3791e-06 0.0695365)
(-4.2431e-05 6.70611e-05 0.0943667)
(-3.17701e-05 2.94203e-05 0.099773)
(-1.85343e-05 3.50135e-05 0.0897401)
(6.72069e-06 1.10167e-05 0.0832787)
(-6.01424e-05 9.67616e-05 0.0996935)
(-5.93345e-06 2.98845e-05 0.0832068)
(-1.81728e-05 1.36402e-05 0.094439)
(-6.71111e-05 4.23674e-05 0.0943757)
(-2.94791e-05 3.16725e-05 0.0997778)
(-3.49175e-05 1.84971e-05 0.0897414)
(-1.10333e-05 -6.78726e-06 0.0832842)
(-2.98539e-05 5.88633e-06 0.0832126)
(-9.67012e-05 6.01498e-05 0.0996975)
(-1.37663e-05 1.81206e-05 0.0944477)
(-1.90621e-05 1.44572e-05 0.0945189)
(-5.89459e-06 3.0357e-05 0.08327)
(-6.14093e-05 9.8191e-05 0.0997705)
(2.15457e-06 1.49765e-05 0.0898859)
(-3.29826e-05 3.05493e-05 0.0998502)
(-4.33621e-05 6.81219e-05 0.0944468)
(6.76284e-06 1.14842e-05 0.0833415)
(-1.45388e-05 1.89945e-05 0.0945275)
(-3.03085e-05 5.83502e-06 0.0832757)
(-9.81221e-05 6.14193e-05 0.0997744)
(-1.49979e-05 -2.27381e-06 0.0898898)
(-6.81584e-05 4.33284e-05 0.0944557)
(-1.15156e-05 -6.88925e-06 0.0833472)