/*--------------------------------*- C++ -*----------------------------------*\
| =========                 |                                                 |
| \\      /  F ield         | OpenFOAM: The Open Source CFD Toolbox           |
|  \\    /   O peration     | Version:  2312                                  |
|   \\  /    A nd           | Website:  www.openfoam.com                      |
|    \\/     M anipulation  |                                                 |
\*---------------------------------------------------------------------------*/
FoamFile
{
    version     2.0;
    format      ascii;
    arch        "LSB;label=32;scalar=64";
    class       volScalarField;
    location    "875";
    object      epsilon;
}
// * * * * * * * * * * * * * * * * * * * * * * * * * * * * * * * * * * * * * //

dimensions      [0 2 -3 0 0 0 0];

internalField   nonuniform List<scalar> 
43208
(
6.67275e-07
1.19309e-06
1.19322e-06
1.42519e-06
6.72144e-07
1.19495e-06
1.19505e-06
1.42702e-06
6.76486e-07
1.19642e-06
1.19653e-06
1.42873e-06
6.80266e-07
1.19735e-06
1.19746e-06
1.42983e-06
6.83509e-07
1.19787e-06
1.19796e-06
1.4307e-06
6.86181e-07
1.19777e-06
1.19794e-06
1.43079e-06
6.88431e-07
1.19736e-06
1.19749e-06
1.43085e-06
6.90296e-07
1.19712e-06
1.19707e-06
1.43103e-06
6.91594e-07
1.19551e-06
1.1958e-06
1.42968e-06
6.92509e-07
1.19419e-06
1.19432e-06
1.42907e-06
6.9306e-07
1.19283e-06
1.1927e-06
1.42821e-06
6.93125e-07
1.19042e-06
1.19063e-06
1.42618e-06
6.93069e-07
1.18767e-06
1.18801e-06
1.42381e-06
6.9281e-07
1.18603e-06
1.18589e-06
1.42223e-06
6.91881e-07
1.1834e-06
1.18337e-06
1.42143e-06
6.90506e-07
1.17879e-06
1.17931e-06
1.41677e-06
6.91136e-07
1.18003e-06
1.18047e-06
1.42003e-06
6.89706e-07
1.17478e-06
1.17425e-06
1.41382e-06
6.81801e-07
1.15767e-06
1.15743e-06
1.38741e-06
6.82865e-07
1.17564e-06
1.17971e-06
1.43524e-06
7.53225e-07
1.09536e-06
1.09679e-06
1.39599e-06
1.42306e-06
1.19267e-06
1.19254e-06
1.42299e-06
1.19249e-06
1.19266e-06
1.19254e-06
1.19271e-06
1.42311e-06
1.19266e-06
1.19254e-06
1.42314e-06
1.42512e-06
1.42494e-06
1.19323e-06
1.1931e-06
1.19461e-06
1.19451e-06
1.42505e-06
1.42494e-06
1.19305e-06
1.19323e-06
1.19444e-06
1.19464e-06
1.19326e-06
1.19452e-06
1.19466e-06
1.42517e-06
1.42504e-06
1.1931e-06
1.19463e-06
1.19449e-06
1.42504e-06
1.42691e-06
1.42667e-06
1.19504e-06
1.19495e-06
1.1962e-06
1.1961e-06
1.42693e-06
1.42668e-06
1.19486e-06
1.19506e-06
1.19601e-06
1.19618e-06
1.19509e-06
1.1961e-06
1.19624e-06
1.42701e-06
1.42672e-06
1.19492e-06
1.19618e-06
1.19608e-06
1.42679e-06
1.42863e-06
1.42793e-06
1.19655e-06
1.19643e-06
1.19727e-06
1.19715e-06
1.42862e-06
1.42785e-06
1.19636e-06
1.19653e-06
1.1971e-06
1.19728e-06
1.19658e-06
1.19715e-06
1.1973e-06
1.42867e-06
1.428e-06
1.19642e-06
1.19727e-06
1.19714e-06
1.42798e-06
1.42978e-06
1.42877e-06
1.19747e-06
1.19735e-06
1.19788e-06
1.19779e-06
1.42972e-06
1.42879e-06
1.1973e-06
1.19747e-06
1.19771e-06
1.19788e-06
1.1975e-06
1.19778e-06
1.19792e-06
1.42984e-06
1.42882e-06
1.19734e-06
1.19786e-06
1.19775e-06
1.42888e-06
1.43059e-06
1.42898e-06
1.19795e-06
1.19787e-06
1.19794e-06
1.19786e-06
1.43062e-06
1.42899e-06
1.19778e-06
1.19797e-06
1.19776e-06
1.19799e-06
1.19801e-06
1.19785e-06
1.19799e-06
1.43066e-06
1.42915e-06
1.19784e-06
1.19799e-06
1.19784e-06
1.42908e-06
1.43072e-06
1.42901e-06
1.19791e-06
1.19779e-06
1.19765e-06
1.19746e-06
1.4307e-06
1.42879e-06
1.19773e-06
1.19794e-06
1.19747e-06
1.1976e-06
1.19793e-06
1.19745e-06
1.19764e-06
1.43086e-06
1.42896e-06
1.19778e-06
1.19758e-06
1.19749e-06
1.42905e-06
1.43076e-06
1.42916e-06
1.19754e-06
1.19737e-06
1.19719e-06
1.19721e-06
1.43059e-06
1.4294e-06
1.19738e-06
1.1975e-06
1.197e-06
1.19719e-06
1.19757e-06
1.19723e-06
1.19732e-06
1.43073e-06
1.42919e-06
1.19742e-06
1.19718e-06
1.19713e-06
1.42933e-06
1.4309e-06
1.42811e-06
1.19709e-06
1.19711e-06
1.19608e-06
1.19595e-06
1.43117e-06
1.42801e-06
1.1969e-06
1.19709e-06
1.19591e-06
1.19614e-06
1.19717e-06
1.19593e-06
1.19606e-06
1.43092e-06
1.42837e-06
1.19698e-06
1.19612e-06
1.19591e-06
1.42814e-06
1.42963e-06
1.4273e-06
1.19567e-06
1.19553e-06
1.19465e-06
1.19443e-06
1.42952e-06
1.42708e-06
1.19552e-06
1.19581e-06
1.19449e-06
1.19466e-06
1.19572e-06
1.19441e-06
1.19464e-06
1.42993e-06
1.42735e-06
1.19559e-06
1.19464e-06
1.19451e-06
1.42737e-06
1.42913e-06
1.42646e-06
1.19444e-06
1.19421e-06
1.1932e-06
1.19315e-06
1.42886e-06
1.42659e-06
1.19427e-06
1.19435e-06
1.193e-06
1.19307e-06
1.19439e-06
1.19315e-06
1.19328e-06
1.42902e-06
1.42622e-06
1.19424e-06
1.19305e-06
1.19308e-06
1.42663e-06
1.42797e-06
1.42428e-06
1.19275e-06
1.19282e-06
1.19087e-06
1.19101e-06
1.42818e-06
1.42473e-06
1.19255e-06
1.19271e-06
1.1907e-06
1.19111e-06
1.19294e-06
1.19102e-06
1.19109e-06
1.4278e-06
1.4249e-06
1.19274e-06
1.19113e-06
1.19093e-06
1.42469e-06
1.42585e-06
1.42269e-06
1.19042e-06
1.19042e-06
1.18868e-06
1.18826e-06
1.42623e-06
1.42185e-06
1.19026e-06
1.19063e-06
1.18855e-06
1.18864e-06
1.19051e-06
1.18823e-06
1.1885e-06
1.42644e-06
1.42247e-06
1.19037e-06
1.1886e-06
1.18838e-06
1.42228e-06
1.42424e-06
1.42052e-06
1.18826e-06
1.18772e-06
1.18639e-06
1.1863e-06
1.42334e-06
1.42049e-06
1.18812e-06
1.18806e-06
1.18621e-06
1.18622e-06
1.18803e-06
1.18626e-06
1.18641e-06
1.42394e-06
1.42005e-06
1.18791e-06
1.18618e-06
1.18625e-06
1.42058e-06
1.42204e-06
1.41908e-06
1.18596e-06
1.18607e-06
1.18374e-06
1.18429e-06
1.42234e-06
1.4204e-06
1.18576e-06
1.18592e-06
1.18353e-06
1.18414e-06
1.1861e-06
1.18433e-06
1.18416e-06
1.42176e-06
1.42013e-06
1.18592e-06
1.18415e-06
1.18396e-06
1.41991e-06
1.42062e-06
1.4166e-06
1.18311e-06
1.18336e-06
1.18033e-06
1.17958e-06
1.42187e-06
1.41473e-06
1.18292e-06
1.18337e-06
1.18023e-06
1.18004e-06
1.18337e-06
1.1796e-06
1.17999e-06
1.42168e-06
1.41554e-06
1.18316e-06
1.18001e-06
1.17986e-06
1.41545e-06
1.41805e-06
1.41659e-06
1.17976e-06
1.1788e-06
1.17921e-06
1.17897e-06
1.41601e-06
1.41641e-06
1.17967e-06
1.17935e-06
1.1791e-06
1.1795e-06
1.17928e-06
1.17898e-06
1.17941e-06
1.41686e-06
1.41715e-06
1.17918e-06
1.17952e-06
1.17934e-06
1.41699e-06
1.41885e-06
1.41136e-06
1.17951e-06
1.17999e-06
1.17701e-06
1.17851e-06
1.41965e-06
1.41468e-06
1.17937e-06
1.1804e-06
1.17674e-06
1.17825e-06
1.18031e-06
1.17853e-06
1.17824e-06
1.42029e-06
1.41424e-06
1.18022e-06
1.17832e-06
1.17799e-06
1.41379e-06
1.41172e-06
1.38849e-06
1.17387e-06
1.17481e-06
1.16078e-06
1.15978e-06
1.41479e-06
1.38583e-06
1.17359e-06
1.17427e-06
1.16054e-06
1.15896e-06
1.1744e-06
1.15964e-06
1.15967e-06
1.41412e-06
1.3838e-06
1.17412e-06
1.15882e-06
1.15944e-06
1.38574e-06
1.3902e-06
1.41888e-06
1.15925e-06
1.15778e-06
1.16822e-06
1.16755e-06
1.38712e-06
1.41744e-06
1.15907e-06
1.15753e-06
1.16841e-06
1.17055e-06
1.15821e-06
1.16776e-06
1.16987e-06
1.38542e-06
1.42281e-06
1.15809e-06
1.17079e-06
1.17016e-06
1.42147e-06
1.43126e-06
1.42414e-06
1.17525e-06
1.17527e-06
1.12149e-06
1.12322e-06
1.43067e-06
1.42824e-06
1.17558e-06
1.17937e-06
1.12174e-06
1.12579e-06
1.17802e-06
1.12374e-06
1.12395e-06
1.43764e-06
1.43262e-06
1.17841e-06
1.12597e-06
1.12386e-06
1.42775e-06
1.39364e-06
1.0933e-06
1.09491e-06
1.3974e-06
1.09344e-06
1.09665e-06
7.54116e-07
7.55866e-07
7.54717e-07
1.09511e-06
1.40019e-06
1.09493e-06
4.23982e-06
9.56771e-06
1.9101e-05
9.56914e-06
6.65954e-07
6.65938e-07
6.66078e-07
6.6606e-07
2.29836e-06
1.19132e-06
3.64985e-06
9.3957e-07
4.24199e-06
9.58271e-06
4.24157e-06
9.58849e-06
1.9123e-05
1.91302e-05
4.24216e-06
9.58378e-06
4.24169e-06
9.58998e-06
6.67258e-07
6.67401e-07
6.67381e-07
6.70977e-07
6.70971e-07
6.71111e-07
6.71082e-07
2.29938e-06
3.65167e-06
9.42132e-07
1.1936e-06
2.29933e-06
3.65189e-06
9.42915e-07
1.91247e-05
1.91324e-05
2.29942e-06
9.42242e-07
3.65179e-06
1.19372e-06
2.29939e-06
9.43006e-07
3.652e-06
5.65558e-06
5.65734e-06
1.42415e-06
5.65614e-06
5.65787e-06
4.24354e-06
9.58799e-06
4.24295e-06
9.58767e-06
1.91312e-05
1.91366e-05
4.24356e-06
9.58976e-06
4.24305e-06
9.58899e-06
6.72142e-07
6.72279e-07
6.72253e-07
6.75436e-07
6.75434e-07
6.75561e-07
6.75546e-07
2.29995e-06
3.65307e-06
9.44985e-07
1.19535e-06
2.29994e-06
3.65345e-06
9.4562e-07
1.91322e-05
1.91357e-05
2.29993e-06
9.45087e-07
3.65307e-06
1.19543e-06
2.29994e-06
9.45697e-07
3.65339e-06
5.65798e-06
5.65966e-06
1.42592e-06
5.65938e-06
5.6611e-06
4.24583e-06
9.59729e-06
4.24533e-06
9.60755e-06
1.91561e-05
1.91705e-05
4.24585e-06
9.59775e-06
4.24521e-06
9.60924e-06
6.76474e-07
6.76609e-07
6.76591e-07
6.79366e-07
6.79347e-07
6.7949e-07
6.79464e-07
2.30052e-06
3.65527e-06
9.4731e-07
1.1967e-06
2.30064e-06
3.65547e-06
9.47808e-07
1.9157e-05
1.91753e-05
2.30057e-06
9.47414e-07
3.65515e-06
1.19681e-06
2.30064e-06
9.47898e-07
3.65551e-06
5.66324e-06
5.66503e-06
1.4275e-06
5.66399e-06
5.6658e-06
4.24674e-06
9.61104e-06
4.24649e-06
9.60936e-06
1.91755e-05
1.9179e-05
4.24689e-06
9.61343e-06
4.24667e-06
9.61095e-06
6.80249e-07
6.80387e-07
6.80365e-07
6.82742e-07
6.82737e-07
6.82859e-07
6.82841e-07
2.30037e-06
3.65622e-06
9.49059e-07
1.19751e-06
2.30069e-06
3.65626e-06
9.49418e-07
1.91788e-05
1.91789e-05
2.30034e-06
9.4916e-07
3.65636e-06
1.1976e-06
2.30072e-06
9.49489e-07
3.65627e-06
5.66533e-06
5.66706e-06
1.42845e-06
5.66602e-06
5.6677e-06
4.2481e-06
9.61206e-06
4.24781e-06
9.62486e-06
1.91934e-05
1.92113e-05
4.24811e-06
9.61203e-06
4.24777e-06
9.62488e-06
6.83507e-07
6.83636e-07
6.83613e-07
6.85533e-07
6.85535e-07
6.85683e-07
6.85646e-07
2.30013e-06
3.65752e-06
9.50283e-07
1.19789e-06
2.30056e-06
3.65754e-06
9.50492e-07
1.91892e-05
1.92101e-05
2.30015e-06
9.50375e-07
3.65728e-06
1.198e-06
2.3005e-06
9.50579e-07
3.65756e-06
5.66947e-06
5.67115e-06
1.4291e-06
5.67016e-06
5.67195e-06
4.24832e-06
9.63359e-06
4.24838e-06
9.63131e-06
1.9215e-05
1.9212e-05
4.24838e-06
9.63521e-06
4.24843e-06
9.63441e-06
6.86167e-07
6.86321e-07
6.86284e-07
6.87898e-07
6.87848e-07
6.87992e-07
6.87975e-07
2.29903e-06
3.65776e-06
9.50912e-07
1.19766e-06
2.29971e-06
3.65722e-06
9.51004e-07
1.92212e-05
1.92215e-05
2.29915e-06
9.51041e-07
3.65798e-06
1.19782e-06
2.29983e-06
9.51115e-07
3.65741e-06
5.67068e-06
5.67251e-06
1.42899e-06
5.67039e-06
5.67222e-06
4.24868e-06
9.62244e-06
4.24851e-06
9.62762e-06
1.92123e-05
1.9232e-05
4.24881e-06
9.62572e-06
4.24864e-06
9.62807e-06
6.88392e-07
6.88525e-07
6.8852e-07
6.89822e-07
6.89863e-07
6.89943e-07
6.89949e-07
2.29834e-06
3.65737e-06
9.51141e-07
1.1973e-06
2.29873e-06
3.65766e-06
9.51163e-07
1.92158e-05
1.92233e-05
2.29831e-06
9.51229e-07
3.65759e-06
1.19737e-06
2.2988e-06
9.51232e-07
3.65775e-06
5.67198e-06
5.67388e-06
1.42928e-06
5.67434e-06
5.67617e-06
4.25065e-06
9.64502e-06
4.25039e-06
9.6476e-06
1.92528e-05
1.92552e-05
4.25037e-06
9.64411e-06
4.25018e-06
9.6487e-06
6.90341e-07
6.90418e-07
6.90408e-07
6.91297e-07
6.91284e-07
6.91444e-07
6.91381e-07
2.29768e-06
3.66037e-06
9.51144e-07
1.19685e-06
2.29858e-06
3.65985e-06
9.51081e-07
1.92511e-05
1.9261e-05
2.29751e-06
9.51176e-07
3.65947e-06
1.19682e-06
2.29831e-06
9.51102e-07
3.65913e-06
5.67847e-06
5.6798e-06
1.42897e-06
5.67809e-06
5.67943e-06
4.24777e-06
9.64587e-06
4.24936e-06
9.64955e-06
1.92526e-05
1.9263e-05
4.24844e-06
9.64873e-06
4.24962e-06
9.65171e-06
6.91566e-07
6.91757e-07
6.91692e-07
6.92266e-07
6.92189e-07
6.92376e-07
6.92335e-07
2.29492e-06
3.65731e-06
9.50382e-07
1.19505e-06
2.2962e-06
3.65562e-06
9.50065e-07
1.92583e-05
1.92615e-05
2.29545e-06
9.50557e-07
3.65816e-06
1.19538e-06
2.29652e-06
9.50244e-07
3.65707e-06
5.6748e-06
5.67687e-06
1.42747e-06
5.67408e-06
5.6765e-06
4.2503e-06
9.66057e-06
4.24881e-06
9.66385e-06
1.92916e-05
1.93068e-05
4.25013e-06
9.66193e-06
4.2491e-06
9.66511e-06
6.9243e-07
6.92586e-07
6.92569e-07
6.92935e-07
6.92975e-07
6.93027e-07
6.93067e-07
2.29427e-06
3.65782e-06
9.49356e-07
1.19383e-06
2.29463e-06
3.65877e-06
9.4904e-07
1.92895e-05
1.93056e-05
2.29407e-06
9.49479e-07
3.65805e-06
1.19385e-06
2.2948e-06
9.4911e-07
3.65809e-06
5.67975e-06
5.68165e-06
1.42711e-06
5.68156e-06
5.68292e-06
4.24914e-06
9.66539e-06
4.2504e-06
9.6624e-06
1.92973e-05
1.92572e-05
4.24879e-06
9.66559e-06
4.25005e-06
9.66166e-06
6.93137e-07
6.93173e-07
6.93219e-07
6.93129e-07
6.93218e-07
6.93314e-07
6.93287e-07
2.29241e-06
3.65878e-06
9.48262e-07
1.19224e-06
2.29369e-06
3.65772e-06
9.47804e-07
1.92954e-05
1.92697e-05
2.29214e-06
9.48247e-07
3.65769e-06
1.19215e-06
2.29327e-06
9.47786e-07
3.65694e-06
5.68227e-06
5.68349e-06
1.42582e-06
5.68185e-06
5.68331e-06
4.2478e-06
9.63381e-06
4.24827e-06
9.63541e-06
1.92307e-05
1.92922e-05
4.24811e-06
9.63995e-06
4.24829e-06
9.64138e-06
6.93182e-07
6.93309e-07
6.93258e-07
6.93072e-07
6.92921e-07
6.93154e-07
6.93084e-07
2.28928e-06
3.65712e-06
9.4639e-07
1.18961e-06
2.29099e-06
3.65543e-06
9.45738e-07
1.92549e-05
1.92897e-05
2.28959e-06
9.46508e-07
3.65734e-06
1.1899e-06
2.29101e-06
9.45886e-07
3.65646e-06
5.68146e-06
5.68345e-06
1.42339e-06
5.67905e-06
5.68128e-06
4.24637e-06
9.70784e-06
4.24702e-06
9.72214e-06
1.9404e-05
1.93948e-05
4.24673e-06
9.70161e-06
4.24765e-06
9.71449e-06
6.92903e-07
6.93126e-07
6.93078e-07
6.92887e-07
6.92859e-07
6.92939e-07
6.92954e-07
2.28647e-06
3.65338e-06
9.44275e-07
1.18703e-06
2.28761e-06
3.65234e-06
9.43706e-07
1.936e-05
1.93612e-05
2.2866e-06
9.44473e-07
3.65469e-06
1.18725e-06
2.28806e-06
9.43859e-07
3.65264e-06
5.67948e-06
5.68142e-06
1.42133e-06
5.67948e-06
5.68123e-06
4.24579e-06
9.64868e-06
4.24598e-06
9.62167e-06
1.92577e-05
1.92499e-05
4.24497e-06
9.65349e-06
4.24551e-06
9.63072e-06
6.92847e-07
6.92902e-07
6.92916e-07
6.92207e-07
6.92473e-07
6.9246e-07
6.92424e-07
2.28529e-06
3.65283e-06
9.42645e-07
1.18558e-06
2.28587e-06
3.65333e-06
9.4208e-07
1.92931e-05
1.92943e-05
2.28488e-06
9.42666e-07
3.6518e-06
1.1854e-06
2.28563e-06
9.4205e-07
3.65188e-06
5.67857e-06
5.68016e-06
1.42044e-06
5.67864e-06
5.68022e-06
4.24882e-06
9.66758e-06
4.24795e-06
9.70368e-06
1.9316e-05
1.9354e-05
4.24913e-06
9.67548e-06
4.24759e-06
9.70802e-06
6.92007e-07
6.92053e-07
6.92016e-07
6.90651e-07
6.90415e-07
6.90664e-07
6.90626e-07
2.28396e-06
3.65826e-06
9.39889e-07
1.18196e-06
2.28532e-06
3.6572e-06
9.3872e-07
1.93407e-05
1.93492e-05
2.284e-06
9.39851e-07
3.65774e-06
1.1821e-06
2.28498e-06
9.38749e-07
3.65751e-06
5.69244e-06
5.694e-06
1.41824e-06
5.694e-06
5.69563e-06
4.24242e-06
9.70134e-06
4.24669e-06
9.69138e-06
1.93759e-05
1.94042e-05
4.24371e-06
9.69741e-06
4.24779e-06
9.68321e-06
6.90196e-07
6.90493e-07
6.90451e-07
6.90725e-07
6.90699e-07
6.91078e-07
6.91003e-07
2.27734e-06
3.64976e-06
9.36416e-07
1.17832e-06
2.28023e-06
3.64433e-06
9.35944e-07
1.9336e-05
1.93519e-05
2.278e-06
9.36691e-07
3.65163e-06
1.17888e-06
2.28078e-06
9.36265e-07
3.64599e-06
5.67885e-06
5.68073e-06
1.41415e-06
5.66954e-06
5.67157e-06
4.25427e-06
9.68826e-06
4.2459e-06
9.68948e-06
1.94047e-05
1.93847e-05
4.25393e-06
9.68374e-06
4.24653e-06
9.69459e-06
6.91318e-07
6.91625e-07
6.9153e-07
6.9054e-07
6.90999e-07
6.90982e-07
6.90909e-07
2.28386e-06
3.65595e-06
9.36291e-07
1.18044e-06
2.28043e-06
3.66509e-06
9.36334e-07
1.94046e-05
1.94224e-05
2.28406e-06
9.36565e-07
3.65656e-06
1.18075e-06
2.28091e-06
9.36564e-07
3.66539e-06
5.69905e-06
5.70117e-06
1.42001e-06
5.72182e-06
5.72386e-06
4.22736e-06
9.68087e-06
4.25365e-06
9.66689e-06
1.9267e-05
1.91991e-05
4.22524e-06
9.69432e-06
4.25263e-06
9.68206e-06
6.9002e-07
6.89901e-07
6.89899e-07
6.83333e-07
6.83064e-07
6.8287e-07
6.83036e-07
2.26174e-06
3.66138e-06
9.3327e-07
1.16984e-06
2.27834e-06
3.62267e-06
9.29817e-07
1.93495e-05
1.92343e-05
2.2601e-06
9.32941e-07
3.66066e-06
1.16905e-06
2.27768e-06
9.29335e-07
3.61857e-06
5.71007e-06
5.71125e-06
1.39882e-06
5.61865e-06
5.6185e-06
4.17515e-06
9.59976e-06
4.17173e-06
9.6135e-06
1.91686e-05
1.93423e-05
4.17251e-06
9.59225e-06
4.16785e-06
9.60277e-06
6.81429e-07
6.81587e-07
6.81734e-07
6.8163e-07
6.81477e-07
6.82913e-07
6.82627e-07
2.24175e-06
3.57825e-06
9.20114e-07
1.15802e-06
2.23662e-06
3.5846e-06
9.19227e-07
1.9123e-05
1.92562e-05
2.24181e-06
9.20216e-07
3.57166e-06
1.15837e-06
2.23485e-06
9.19707e-07
3.58183e-06
5.51885e-06
5.51921e-06
1.3937e-06
5.54404e-06
5.5468e-06
4.37235e-06
9.75326e-06
4.2964e-06
9.82547e-06
1.97531e-05
1.97369e-05
4.37856e-06
9.73936e-06
4.30211e-06
9.82288e-06
6.82954e-07
6.84763e-07
6.84323e-07
7.39707e-07
7.40509e-07
7.42444e-07
7.41362e-07
2.33113e-06
3.72627e-06
9.26056e-07
1.18266e-06
2.304e-06
3.77361e-06
9.29246e-07
1.97119e-05
1.97337e-05
2.33515e-06
9.28108e-07
3.74035e-06
1.18701e-06
2.3097e-06
9.31335e-07
3.78632e-06
5.84235e-06
5.84796e-06
1.45265e-06
5.95025e-06
5.95348e-06
3.39755e-06
8.89137e-06
4.30462e-06
5.98066e-06
1.67761e-05
8.39672e-06
3.38796e-06
8.90398e-06
4.30539e-06
5.9658e-06
3.14906e-07
5.24698e-07
5.24951e-07
7.71825e-07
3.17409e-07
5.34753e-07
5.34822e-07
2.18217e-06
3.68083e-06
8.37628e-07
1.04131e-06
2.28666e-06
3.70747e-06
7.86685e-07
1.68652e-05
8.31541e-06
2.17454e-06
8.37948e-07
3.68063e-06
1.04086e-06
2.28444e-06
7.86579e-07
3.68168e-06
5.81963e-06
5.81829e-06
1.3184e-06
5.21612e-06
5.20813e-06
1.9097e-05
1.91e-05
1.42183e-06
5.65242e-06
5.65416e-06
1.91197e-05
1.91e-05
1.91226e-05
1.9103e-05
1.42397e-06
5.65499e-06
5.65683e-06
5.65366e-06
5.65537e-06
4.23977e-06
9.56848e-06
2.29831e-06
1.19144e-06
3.64969e-06
9.39541e-07
2.29825e-06
1.19132e-06
3.65009e-06
9.39479e-07
4.24033e-06
9.58084e-06
9.56952e-06
4.24116e-06
4.24027e-06
9.58108e-06
9.57029e-06
4.24108e-06
2.29869e-06
1.19208e-06
3.65106e-06
9.41299e-07
3.65049e-06
9.40447e-07
2.29896e-06
2.29863e-06
1.19196e-06
3.6513e-06
9.41234e-07
3.65086e-06
9.40383e-07
2.29889e-06
1.42181e-06
5.65387e-06
5.65257e-06
1.91001e-05
1.91216e-05
1.91039e-05
1.42393e-06
5.65606e-06
5.65482e-06
5.65502e-06
5.65359e-06
1.91203e-05
1.9103e-05
1.19125e-06
3.65021e-06
4.24033e-06
9.58182e-06
9.57079e-06
4.24126e-06
2.29869e-06
1.1919e-06
3.65163e-06
9.41282e-07
3.651e-06
9.40428e-07
2.29899e-06
4.24025e-06
9.5816e-06
9.57107e-06
4.24118e-06
2.29863e-06
1.19207e-06
9.41323e-07
3.65147e-06
9.4047e-07
3.65087e-06
2.29893e-06
4.23993e-06
9.56984e-06
2.29833e-06
9.39604e-07
4.23984e-06
2.29874e-06
1.19195e-06
3.65106e-06
9.41326e-07
3.65058e-06
9.40456e-07
2.29899e-06
4.24055e-06
9.58177e-06
9.57165e-06
4.24125e-06
2.2987e-06
1.19212e-06
9.41362e-07
3.65111e-06
9.40512e-07
3.65059e-06
2.29897e-06
4.24037e-06
9.58227e-06
9.57273e-06
4.24116e-06
1.9123e-05
1.91049e-05
1.42402e-06
5.65645e-06
5.65501e-06
5.65503e-06
5.65371e-06
1.9121e-05
1.91034e-05
2.29878e-06
1.19207e-06
9.41416e-07
3.65119e-06
9.40565e-07
3.65062e-06
2.29905e-06
2.29872e-06
1.19196e-06
9.4135e-07
3.65165e-06
9.405e-07
3.65111e-06
2.29899e-06
4.24062e-06
9.58233e-06
9.57209e-06
4.24136e-06
4.24067e-06
9.5834e-06
9.57369e-06
4.24133e-06
1.42405e-06
5.65491e-06
5.65671e-06
5.65369e-06
5.6555e-06
1.9122e-05
1.91065e-05
1.91246e-05
1.91091e-05
1.91214e-05
1.91291e-05
1.91244e-05
1.91325e-05
5.65574e-06
5.65754e-06
1.42407e-06
5.65622e-06
5.65808e-06
1.913e-05
1.91286e-05
1.91337e-05
1.91321e-05
1.42606e-06
5.65712e-06
5.65898e-06
5.65672e-06
5.65853e-06
4.24192e-06
9.58274e-06
4.24149e-06
9.58821e-06
2.29932e-06
3.65167e-06
9.42124e-07
1.19372e-06
2.29929e-06
3.65183e-06
9.42887e-07
2.29925e-06
3.65194e-06
9.42058e-07
1.1936e-06
2.29922e-06
3.65209e-06
9.42821e-07
4.24226e-06
9.58869e-06
9.58872e-06
4.24262e-06
4.2422e-06
9.58863e-06
9.58845e-06
4.24257e-06
2.29961e-06
1.19419e-06
3.65231e-06
9.443e-07
3.65225e-06
9.43623e-07
2.29954e-06
2.29955e-06
1.19408e-06
3.6527e-06
9.4424e-07
3.65261e-06
9.4356e-07
2.29948e-06
5.65691e-06
5.65555e-06
1.42402e-06
5.65744e-06
5.65621e-06
1.91217e-05
1.91291e-05
1.91322e-05
1.91298e-05
1.42602e-06
5.65867e-06
5.65754e-06
5.65812e-06
5.6568e-06
1.91312e-05
1.91287e-05
2.29939e-06
3.65224e-06
9.42111e-07
1.19355e-06
2.29934e-06
3.65243e-06
9.42876e-07
4.2421e-06
9.5834e-06
4.24162e-06
9.58933e-06
2.29933e-06
9.42152e-07
3.65209e-06
1.19374e-06
2.29928e-06
9.42919e-07
3.65234e-06
4.24243e-06
9.59048e-06
9.5903e-06
4.24275e-06
2.29969e-06
1.19402e-06
3.6529e-06
9.4429e-07
3.65284e-06
9.43614e-07
2.29958e-06
4.24238e-06
9.58983e-06
9.58965e-06
4.2427e-06
2.29964e-06
1.19422e-06
9.44336e-07
3.65291e-06
9.43659e-07
3.6528e-06
2.29954e-06
4.24215e-06
9.58328e-06
4.24176e-06
9.58857e-06
2.29935e-06
9.42188e-07
3.6517e-06
1.19376e-06
2.2993e-06
9.4295e-07
3.65187e-06
4.24203e-06
9.58357e-06
4.24159e-06
9.58794e-06
2.29969e-06
1.19407e-06
3.65253e-06
9.44337e-07
3.65238e-06
9.43636e-07
2.29963e-06
4.24253e-06
9.58886e-06
9.5888e-06
4.24283e-06
2.29964e-06
1.19423e-06
9.44368e-07
3.65244e-06
9.43689e-07
3.65233e-06
2.29959e-06
4.24233e-06
9.58787e-06
9.58802e-06
4.24271e-06
5.6572e-06
5.65577e-06
1.42415e-06
5.65787e-06
5.65636e-06
1.91224e-05
1.91293e-05
1.91336e-05
1.91319e-05
1.42615e-06
5.65905e-06
5.65756e-06
5.6584e-06
5.65694e-06
1.91302e-05
1.91288e-05
2.29934e-06
9.42175e-07
3.65222e-06
1.19359e-06
2.29933e-06
9.42937e-07
3.65237e-06
4.24221e-06
9.58387e-06
4.24187e-06
9.5889e-06
4.24217e-06
9.5847e-06
4.2419e-06
9.58887e-06
2.29972e-06
1.1942e-06
9.44423e-07
3.65258e-06
9.43745e-07
3.65246e-06
2.29964e-06
2.29965e-06
1.19407e-06
9.44352e-07
3.65291e-06
9.43674e-07
3.65279e-06
2.29956e-06
4.24256e-06
9.58885e-06
9.58905e-06
4.24284e-06
4.24259e-06
9.58846e-06
9.58888e-06
4.2428e-06
1.91229e-05
1.91285e-05
1.91255e-05
1.91309e-05
1.42614e-06
5.65729e-06
5.65897e-06
5.65667e-06
5.65836e-06
1.91294e-05
1.91279e-05
1.91315e-05
1.91302e-05
1.91287e-05
1.91326e-05
1.91322e-05
1.91356e-05
5.65778e-06
5.65957e-06
1.4258e-06
5.65906e-06
5.66082e-06
1.91507e-05
1.91338e-05
1.91531e-05
1.91367e-05
1.42778e-06
5.6622e-06
5.66384e-06
5.6603e-06
5.66192e-06
4.2435e-06
9.58822e-06
4.2429e-06
9.58848e-06
2.29985e-06
3.6528e-06
9.44963e-07
1.19543e-06
2.29984e-06
3.65315e-06
9.45578e-07
2.29981e-06
3.65329e-06
9.44906e-07
1.19535e-06
2.29979e-06
3.65366e-06
9.45524e-07
4.24399e-06
9.59466e-06
9.58807e-06
4.24486e-06
4.24395e-06
9.59537e-06
9.58902e-06
4.24481e-06
2.30018e-06
1.19583e-06
3.65446e-06
9.46751e-07
3.65385e-06
9.4619e-07
2.30028e-06
2.30014e-06
1.19575e-06
3.6549e-06
9.46695e-07
3.65441e-06
9.46135e-07
2.30023e-06
5.65956e-06
5.65827e-06
1.42583e-06
5.66094e-06
5.65966e-06
1.91304e-05
1.91355e-05
1.91534e-05
1.91379e-05
1.42782e-06
5.66373e-06
5.66241e-06
5.66227e-06
5.66079e-06
1.91519e-05
1.91368e-05
2.29983e-06
3.65336e-06
9.44948e-07
1.19524e-06
2.29988e-06
3.65368e-06
9.45557e-07
4.2435e-06
9.58915e-06
4.243e-06
9.58845e-06
2.29978e-06
9.44995e-07
3.65338e-06
1.19544e-06
2.29983e-06
9.45602e-07
3.65367e-06
4.24396e-06
9.595e-06
9.58919e-06
4.24475e-06
2.30015e-06
1.19565e-06
3.65493e-06
9.46724e-07
3.65433e-06
9.46164e-07
2.30021e-06
4.2439e-06
9.59445e-06
9.58867e-06
4.24466e-06
2.3001e-06
1.19583e-06
9.46764e-07
3.65474e-06
9.46207e-07
3.65426e-06
2.30015e-06
4.24374e-06
9.58842e-06
4.24325e-06
9.58874e-06
2.29991e-06
9.45035e-07
3.65296e-06
1.19549e-06
2.29989e-06
9.45649e-07
3.65333e-06
4.24362e-06
9.58738e-06
4.24305e-06
9.5878e-06
2.30028e-06
1.19574e-06
3.65464e-06
9.46784e-07
3.65414e-06
9.4621e-07
2.30033e-06
4.24428e-06
9.59586e-06
9.58929e-06
4.24496e-06
2.30023e-06
1.19589e-06
9.46814e-07
3.65457e-06
9.4626e-07
3.65403e-06
2.30029e-06
4.24409e-06
9.59646e-06
9.58851e-06
4.24485e-06
5.6597e-06
5.65828e-06
1.42588e-06
5.66083e-06
5.65942e-06
1.91289e-05
1.9133e-05
1.91533e-05
1.91369e-05
1.42785e-06
5.66328e-06
5.66192e-06
5.66173e-06
5.6604e-06
1.91519e-05
1.91344e-05
2.29986e-06
9.45016e-07
3.65342e-06
1.19532e-06
2.29987e-06
9.4563e-07
3.65381e-06
4.24371e-06
9.58809e-06
4.24324e-06
9.5878e-06
4.24368e-06
9.58775e-06
4.24327e-06
9.58798e-06
2.30026e-06
1.19582e-06
9.46862e-07
3.6545e-06
9.46306e-07
3.65401e-06
2.30032e-06
2.3002e-06
1.19572e-06
9.46798e-07
3.65509e-06
9.46241e-07
3.65451e-06
2.30027e-06
4.24423e-06
9.59569e-06
9.58826e-06
4.24493e-06
4.24429e-06
9.59745e-06
9.5887e-06
4.24492e-06
1.91285e-05
1.91348e-05
1.91306e-05
1.91368e-05
1.4279e-06
5.66228e-06
5.66408e-06
5.66054e-06
5.66228e-06
1.91559e-05
1.91367e-05
1.91585e-05
1.91387e-05
1.91543e-05
1.91714e-05
1.91569e-05
1.91752e-05
5.66326e-06
5.66488e-06
1.42742e-06
5.66404e-06
5.66582e-06
1.91754e-05
1.91719e-05
1.91794e-05
1.91758e-05
1.42932e-06
5.66492e-06
5.66682e-06
5.66462e-06
5.66639e-06
4.24575e-06
9.59746e-06
4.24527e-06
9.60652e-06
2.30049e-06
3.65516e-06
9.47301e-07
1.19683e-06
2.3006e-06
3.65542e-06
9.47785e-07
2.30042e-06
3.65558e-06
9.4724e-07
1.1967e-06
2.30054e-06
3.65571e-06
9.47721e-07
4.24608e-06
9.6113e-06
9.60881e-06
4.24627e-06
4.24601e-06
9.61054e-06
9.6075e-06
4.24619e-06
2.30074e-06
1.19708e-06
3.65575e-06
9.48649e-07
3.65585e-06
9.48249e-07
2.3004e-06
2.30068e-06
1.19695e-06
3.65602e-06
9.48584e-07
3.65616e-06
9.48184e-07
2.30033e-06
5.66473e-06
5.6633e-06
1.42737e-06
5.66529e-06
5.66401e-06
1.91548e-05
1.91696e-05
1.91761e-05
1.91709e-05
1.42925e-06
5.6661e-06
5.66495e-06
5.66591e-06
5.66455e-06
1.91756e-05
1.91703e-05
2.30049e-06
3.65561e-06
9.47278e-07
1.19664e-06
2.30054e-06
3.65594e-06
9.47767e-07
4.24577e-06
9.59716e-06
4.24512e-06
9.60859e-06
2.30042e-06
9.47317e-07
3.65538e-06
1.19682e-06
2.30047e-06
9.47805e-07
3.65577e-06
4.24619e-06
9.61365e-06
9.61079e-06
4.24644e-06
2.30077e-06
1.1969e-06
3.65638e-06
9.48641e-07
3.6564e-06
9.48239e-07
2.30049e-06
4.24611e-06
9.61321e-06
9.61015e-06
4.24638e-06
2.30071e-06
1.19708e-06
9.4868e-07
3.65635e-06
9.48278e-07
3.65629e-06
2.30044e-06
4.24593e-06
9.59804e-06
4.24551e-06
9.60731e-06
2.30049e-06
9.47361e-07
3.65523e-06
1.19685e-06
2.3006e-06
9.47841e-07
3.65546e-06
4.24581e-06
9.59921e-06
4.24532e-06
9.60868e-06
2.30079e-06
1.19694e-06
3.65583e-06
9.48677e-07
3.6559e-06
9.48257e-07
2.30047e-06
4.24629e-06
9.61151e-06
9.60835e-06
4.24642e-06
2.30074e-06
1.19711e-06
9.48711e-07
3.6558e-06
9.4831e-07
3.65589e-06
2.30044e-06
4.2461e-06
9.61157e-06
9.60969e-06
4.2463e-06
5.66429e-06
5.66299e-06
1.42747e-06
5.66556e-06
5.66416e-06
1.91557e-05
1.91729e-05
1.91801e-05
1.9176e-05
1.42938e-06
5.66682e-06
5.66535e-06
5.66628e-06
5.66489e-06
1.91768e-05
1.91733e-05
2.30051e-06
9.4735e-07
3.65575e-06
1.19669e-06
2.3006e-06
9.47832e-07
3.65599e-06
4.246e-06
9.59863e-06
4.2455e-06
9.60908e-06
4.24598e-06
9.60046e-06
4.24556e-06
9.61021e-06
2.30084e-06
1.19708e-06
9.48767e-07
3.65601e-06
9.4837e-07
3.65601e-06
2.30053e-06
2.30078e-06
1.19695e-06
9.48698e-07
3.65631e-06
9.48302e-07
3.6564e-06
2.30045e-06
4.24639e-06
9.61242e-06
9.61033e-06
4.24652e-06
4.24642e-06
9.6126e-06
9.61121e-06
4.24648e-06
1.91593e-05
1.91736e-05
1.91621e-05
1.91764e-05
1.42938e-06
5.66487e-06
5.66663e-06
5.66453e-06
5.66631e-06
1.91765e-05
1.91736e-05
1.91787e-05
1.91764e-05
1.91739e-05
1.91736e-05
1.91779e-05
1.9177e-05
5.66541e-06
5.6673e-06
1.42838e-06
5.66608e-06
5.66796e-06
1.91829e-05
1.91728e-05
1.91849e-05
1.91759e-05
1.43023e-06
5.66842e-06
5.67016e-06
5.667e-06
5.66875e-06
4.24667e-06
9.61046e-06
4.24642e-06
9.61041e-06
2.30029e-06
3.65612e-06
9.49043e-07
1.19763e-06
2.30061e-06
3.65612e-06
9.49384e-07
2.30023e-06
3.65644e-06
9.4898e-07
1.19751e-06
2.30055e-06
3.65644e-06
9.49323e-07
4.247e-06
9.61034e-06
9.60859e-06
4.24746e-06
4.24694e-06
9.61322e-06
9.61033e-06
4.2474e-06
2.30053e-06
1.19778e-06
3.65683e-06
9.50001e-07
3.6566e-06
9.49725e-07
2.30024e-06
2.30047e-06
1.19767e-06
3.65722e-06
9.49943e-07
3.657e-06
9.49665e-07
2.30019e-06
5.66673e-06
5.66546e-06
1.42834e-06
5.66747e-06
5.66628e-06
1.91751e-05
1.91784e-05
1.91907e-05
1.91791e-05
1.43021e-06
5.6699e-06
5.66865e-06
5.66856e-06
5.66717e-06
1.91893e-05
1.91785e-05
2.30034e-06
3.65673e-06
9.49036e-07
1.19745e-06
2.30071e-06
3.65673e-06
9.49372e-07
4.24681e-06
9.61302e-06
4.2466e-06
9.61123e-06
2.30028e-06
9.49075e-07
3.6567e-06
1.19762e-06
2.30066e-06
9.49409e-07
3.65662e-06
4.24712e-06
9.61054e-06
9.60971e-06
4.24745e-06
2.30057e-06
1.1976e-06
3.65736e-06
9.49986e-07
3.65716e-06
9.4971e-07
2.30024e-06
4.24704e-06
9.61116e-06
9.61019e-06
4.24735e-06
2.30051e-06
1.19777e-06
9.50023e-07
3.65709e-06
9.49747e-07
3.65699e-06
2.30017e-06
4.2469e-06
9.61137e-06
4.24672e-06
9.61112e-06
2.30033e-06
9.49111e-07
3.65617e-06
1.19766e-06
2.30065e-06
9.49449e-07
3.65618e-06
4.24678e-06
9.61126e-06
4.24654e-06
9.60996e-06
2.30061e-06
1.19767e-06
3.657e-06
9.50034e-07
3.65676e-06
9.49743e-07
2.30032e-06
4.24726e-06
9.61381e-06
9.61101e-06
4.24762e-06
2.30057e-06
1.19781e-06
9.50063e-07
3.65691e-06
9.4979e-07
3.65665e-06
2.30028e-06
4.24706e-06
9.61212e-06
9.60955e-06
4.2475e-06
5.66729e-06
5.66584e-06
1.42839e-06
5.66769e-06
5.66619e-06
1.91754e-05
1.91756e-05
1.91866e-05
1.91781e-05
1.43024e-06
5.66934e-06
5.66784e-06
5.6682e-06
5.66675e-06
1.91848e-05
1.9175e-05
2.30028e-06
9.49093e-07
3.65665e-06
1.19749e-06
2.30065e-06
9.49423e-07
3.65664e-06
4.2469e-06
9.61206e-06
4.24678e-06
9.60994e-06
4.24687e-06
9.61204e-06
4.24681e-06
9.60947e-06
2.30057e-06
1.19775e-06
9.501e-07
3.65675e-06
9.49827e-07
3.65664e-06
2.30026e-06
2.30051e-06
1.19764e-06
9.50035e-07
3.65734e-06
9.49762e-07
3.65709e-06
2.3002e-06
4.2472e-06
9.61145e-06
9.6093e-06
4.24747e-06
4.24724e-06
9.6119e-06
9.60898e-06
4.24747e-06
1.91749e-05
1.91756e-05
1.91769e-05
1.91771e-05
1.43031e-06
5.66851e-06
5.67015e-06
5.66688e-06
5.66849e-06
1.91873e-05
1.91754e-05
1.91893e-05
1.91769e-05
1.91861e-05
1.92106e-05
1.91881e-05
1.92128e-05
5.66926e-06
5.67096e-06
1.42896e-06
5.66979e-06
5.67156e-06
1.92202e-05
1.92129e-05
1.92239e-05
1.92155e-05
1.43072e-06
5.67025e-06
5.67205e-06
5.67022e-06
5.67197e-06
4.24807e-06
9.61476e-06
4.24777e-06
9.62532e-06
2.30006e-06
3.65733e-06
9.50262e-07
1.19797e-06
2.30048e-06
3.65729e-06
9.50454e-07
2.30001e-06
3.6578e-06
9.50208e-07
1.1979e-06
2.30043e-06
3.65779e-06
9.50402e-07
4.24827e-06
9.63347e-06
9.62749e-06
4.24829e-06
4.24824e-06
9.6313e-06
9.62713e-06
4.24824e-06
2.3002e-06
1.19797e-06
3.65729e-06
9.50769e-07
3.65762e-06
9.50634e-07
2.29961e-06
2.30016e-06
1.19789e-06
3.65777e-06
9.50718e-07
3.65816e-06
9.50584e-07
2.29956e-06
5.67092e-06
5.66955e-06
1.42901e-06
5.67154e-06
5.67028e-06
1.91917e-05
1.92093e-05
1.92166e-05
1.92121e-05
1.43077e-06
5.67212e-06
5.67081e-06
5.67212e-06
5.67073e-06
1.92152e-05
1.92103e-05
2.30004e-06
3.65783e-06
9.50247e-07
1.19779e-06
2.30047e-06
3.65782e-06
9.50441e-07
4.24806e-06
9.61242e-06
4.24768e-06
9.62355e-06
2.3e-06
9.50289e-07
3.6576e-06
1.19801e-06
2.30041e-06
9.50488e-07
3.65785e-06