/*--------------------------------*- C++ -*----------------------------------*\
| =========                 |                                                 |
| \\      /  F ield         | OpenFOAM: The Open Source CFD Toolbox           |
|  \\    /   O peration     | Version:  2312                                  |
|   \\  /    A nd           | Website:  www.openfoam.com                      |
|    \\/     M anipulation  |                                                 |
\*---------------------------------------------------------------------------*/
FoamFile
{
    version     2.0;
    format      ascii;
    arch        "LSB;label=32;scalar=64";
    class       volScalarField;
    location    "875";
    object      k;
}
// * * * * * * * * * * * * * * * * * * * * * * * * * * * * * * * * * * * * * //

dimensions      [0 2 -2 0 0 0 0];

internalField   nonuniform List<scalar> 
43208
(
3.93807e-05
5.17674e-05
5.17725e-05
5.38522e-05
3.97589e-05
5.19901e-05
5.19955e-05
5.39989e-05
4.0075e-05
5.21304e-05
5.21266e-05
5.4106e-05
4.03898e-05
5.23154e-05
5.23293e-05
5.42835e-05
4.06603e-05
5.24366e-05
5.24294e-05
5.4333e-05
4.09252e-05
5.25864e-05
5.25854e-05
5.45131e-05
4.11578e-05
5.26453e-05
5.26708e-05
5.45086e-05
4.13307e-05
5.27316e-05
5.27099e-05
5.45877e-05
4.15348e-05
5.28097e-05
5.28269e-05
5.46479e-05
4.17043e-05
5.28607e-05
5.28496e-05
5.47308e-05
4.18608e-05
5.29808e-05
5.29683e-05
5.48446e-05
4.19299e-05
5.2759e-05
5.28286e-05
5.44904e-05
4.20219e-05
5.29301e-05
5.28768e-05
5.48778e-05
4.21701e-05
5.30747e-05
5.29848e-05
5.4856e-05
4.21593e-05
5.27127e-05
5.28619e-05
5.4439e-05
4.22423e-05
5.27631e-05
5.27849e-05
5.46852e-05
4.22836e-05
5.30476e-05
5.2869e-05
5.49164e-05
4.23124e-05
5.29467e-05
5.29942e-05
5.47225e-05
4.22352e-05
5.21049e-05
5.21983e-05
5.36567e-05
4.21031e-05
5.29023e-05
5.26185e-05
5.49165e-05
4.39265e-05
5.10329e-05
5.09201e-05
5.41446e-05
5.37726e-05
5.16998e-05
5.16974e-05
5.37764e-05
5.16975e-05
5.17019e-05
5.17027e-05
5.17105e-05
5.37794e-05
5.17068e-05
5.17084e-05
5.3792e-05
5.3834e-05
5.39795e-05
5.1765e-05
5.1762e-05
5.1948e-05
5.19408e-05
5.38364e-05
5.39744e-05
5.17621e-05
5.17666e-05
5.19454e-05
5.19467e-05
5.1776e-05
5.19451e-05
5.19447e-05
5.38407e-05
5.39802e-05
5.17741e-05
5.19514e-05
5.19432e-05
5.39696e-05
5.40126e-05
5.40625e-05
5.19934e-05
5.19862e-05
5.20882e-05
5.20878e-05
5.40089e-05
5.40687e-05
5.19915e-05
5.1992e-05
5.20857e-05
5.20847e-05
5.19857e-05
5.20912e-05
5.20829e-05
5.40124e-05
5.40597e-05
5.1984e-05
5.2087e-05
5.20797e-05
5.40589e-05
5.41035e-05
5.42484e-05
5.21278e-05
5.21268e-05
5.22799e-05
5.22661e-05
5.41078e-05
5.42287e-05
5.21242e-05
5.21229e-05
5.22776e-05
5.22768e-05
5.21277e-05
5.22708e-05
5.2283e-05
5.41005e-05
5.4247e-05
5.21245e-05
5.22826e-05
5.22821e-05
5.42504e-05
5.42847e-05
5.43021e-05
5.23257e-05
5.23104e-05
5.2399e-05
5.24021e-05
5.42657e-05
5.43222e-05
5.23244e-05
5.23244e-05
5.23979e-05
5.24056e-05
5.23262e-05
5.24075e-05
5.23987e-05
5.42853e-05
5.43159e-05
5.23254e-05
5.24077e-05
5.23953e-05
5.43038e-05
5.43269e-05
5.44737e-05
5.24201e-05
5.24315e-05
5.25472e-05
5.25451e-05
5.4355e-05
5.44666e-05
5.24179e-05
5.24266e-05
5.25417e-05
5.25351e-05
5.24238e-05
5.25482e-05
5.25482e-05
5.43406e-05
5.44538e-05
5.24198e-05
5.25418e-05
5.25466e-05
5.44728e-05
5.45204e-05
5.45161e-05
5.25952e-05
5.25835e-05
5.26589e-05
5.26365e-05
5.45002e-05
5.44894e-05
5.25896e-05
5.25788e-05
5.26606e-05
5.26638e-05
5.25913e-05
5.26406e-05
5.26489e-05
5.44982e-05
5.45322e-05
5.25901e-05
5.26658e-05
5.26482e-05
5.45001e-05
5.45229e-05
5.45192e-05
5.26588e-05
5.264e-05
5.26751e-05
5.26899e-05
5.44998e-05
5.45528e-05
5.26615e-05
5.26701e-05
5.2675e-05
5.26812e-05
5.26507e-05
5.26961e-05
5.26885e-05
5.4542e-05
5.45174e-05
5.26497e-05
5.26839e-05
5.26846e-05
5.45415e-05
5.45624e-05
5.46327e-05
5.27107e-05
5.27269e-05
5.27995e-05
5.27978e-05
5.4595e-05
5.46319e-05
5.27056e-05
5.2704e-05
5.27946e-05
5.28043e-05
5.27263e-05
5.2801e-05
5.28023e-05
5.45581e-05
5.46522e-05
5.27223e-05
5.28126e-05
5.2803e-05
5.46358e-05
5.46536e-05
5.47097e-05
5.28133e-05
5.28055e-05
5.28625e-05
5.28255e-05
5.46441e-05
5.46526e-05
5.28107e-05
5.28194e-05
5.28616e-05
5.28328e-05
5.28108e-05
5.28304e-05
5.28392e-05
5.46691e-05
5.46412e-05
5.2812e-05
5.28363e-05
5.28356e-05
5.46758e-05
5.47426e-05
5.47756e-05
5.28829e-05
5.28557e-05
5.2935e-05
5.29729e-05
5.46995e-05
5.48869e-05
5.28827e-05
5.28496e-05
5.29326e-05
5.29605e-05
5.28787e-05
5.29802e-05
5.29573e-05
5.4679e-05
5.48477e-05
5.28713e-05
5.29641e-05
5.29519e-05
5.48387e-05
5.47906e-05
5.45885e-05
5.29364e-05
5.29741e-05
5.28797e-05
5.28305e-05
5.49062e-05
5.44252e-05
5.29334e-05
5.29637e-05
5.28762e-05
5.28752e-05
5.29546e-05
5.28255e-05
5.28293e-05
5.48674e-05
5.4555e-05
5.29496e-05
5.2879e-05
5.28346e-05
5.44897e-05
5.45703e-05
5.46174e-05
5.283e-05
5.2763e-05
5.2824e-05
5.27867e-05
5.43888e-05
5.46563e-05
5.28306e-05
5.28239e-05
5.28261e-05
5.28148e-05
5.27974e-05
5.2791e-05
5.28392e-05
5.45425e-05
5.46271e-05
5.28065e-05
5.28224e-05
5.28471e-05
5.47422e-05
5.47782e-05
5.50141e-05
5.28971e-05
5.29152e-05
5.30531e-05
5.30963e-05
5.48786e-05
5.50733e-05
5.28957e-05
5.28674e-05
5.30393e-05
5.2995e-05
5.29422e-05
5.31061e-05
5.30407e-05
5.47445e-05
5.48632e-05
5.2939e-05
5.29924e-05
5.3017e-05
5.48941e-05
5.49339e-05
5.42993e-05
5.30231e-05
5.30673e-05
5.27421e-05
5.27434e-05
5.49975e-05
5.43516e-05
5.30097e-05
5.29871e-05
5.27515e-05
5.286e-05
5.30174e-05
5.27461e-05
5.27701e-05
5.48426e-05
5.46126e-05
5.29947e-05
5.28747e-05
5.27875e-05
5.44321e-05
5.43509e-05
5.48898e-05
5.27431e-05
5.27125e-05
5.29099e-05
5.27307e-05
5.43626e-05
5.45123e-05
5.27542e-05
5.28475e-05
5.29178e-05
5.28079e-05
5.2741e-05
5.27258e-05
5.27621e-05
5.46314e-05
5.45559e-05
5.27639e-05
5.27993e-05
5.27792e-05
5.45849e-05
5.49108e-05
5.45846e-05
5.29294e-05
5.27734e-05
5.28668e-05
5.29971e-05
5.45722e-05
5.49966e-05
5.29304e-05
5.27935e-05
5.28417e-05
5.28012e-05
5.28262e-05
5.30121e-05
5.29737e-05
5.45536e-05
5.46025e-05
5.28299e-05
5.28026e-05
5.2948e-05
5.49099e-05
5.45827e-05
5.46681e-05
5.28264e-05
5.30284e-05
5.28028e-05
5.29937e-05
5.50669e-05
5.49645e-05
5.28019e-05
5.28505e-05
5.27958e-05
5.298e-05
5.29726e-05
5.30141e-05
5.28813e-05
5.47134e-05
5.51156e-05
5.29468e-05
5.29985e-05
5.28746e-05
5.47178e-05
5.47429e-05
5.44888e-05
5.28138e-05
5.29256e-05
5.27237e-05
5.22177e-05
5.4913e-05
5.33734e-05
5.28187e-05
5.29771e-05
5.27519e-05
5.24531e-05
5.28554e-05
5.22062e-05
5.23993e-05
5.51317e-05
5.36601e-05
5.28547e-05
5.2439e-05
5.24292e-05
5.38242e-05
5.42875e-05
5.37664e-05
5.25214e-05
5.21294e-05
5.22912e-05
5.23782e-05
5.32924e-05
5.47181e-05
5.25566e-05
5.22131e-05
5.22747e-05
5.22224e-05
5.22424e-05
5.2349e-05
5.23031e-05
5.34432e-05
5.41353e-05
5.22603e-05
5.22178e-05
5.23033e-05
5.42758e-05
5.39389e-05
5.44289e-05
5.23563e-05
5.29041e-05
5.13346e-05
5.17884e-05
5.54438e-05
5.53922e-05
5.23268e-05
5.25999e-05
5.13097e-05
5.16323e-05
5.26832e-05
5.18234e-05
5.16598e-05
5.48363e-05
5.52242e-05
5.26661e-05
5.16666e-05
5.16342e-05
5.51287e-05
5.39708e-05
5.07264e-05
5.10036e-05
5.42894e-05
5.07087e-05
5.08942e-05
4.41214e-05
4.40075e-05
4.40214e-05
5.09092e-05
5.42309e-05
5.08876e-05
6.85815e-05
7.34505e-05
7.12131e-05
7.34525e-05
3.9284e-05
3.92834e-05
3.92894e-05
3.92902e-05
6.07035e-05
5.15872e-05
6.48214e-05
4.69044e-05
6.87299e-05
7.35272e-05
6.86553e-05
7.35572e-05
7.12679e-05
7.12862e-05
6.87271e-05
7.35273e-05
6.86516e-05
7.35594e-05
3.93804e-05
3.93868e-05
3.93883e-05
3.96681e-05
3.9667e-05
3.96733e-05
3.96724e-05
6.08563e-05
6.49225e-05
4.71146e-05
5.18316e-05
6.07837e-05
6.49916e-05
4.71874e-05
7.12699e-05
7.12892e-05
6.08599e-05
4.71185e-05
6.49279e-05
5.18374e-05
6.07861e-05
4.71914e-05
6.49975e-05
7.00961e-05
7.01067e-05
5.39031e-05
7.01153e-05
7.01256e-05
6.87116e-05
7.35548e-05
6.87324e-05
7.3553e-05
7.12887e-05
7.13018e-05
6.87114e-05
7.35585e-05
6.87339e-05
7.35544e-05
3.97572e-05
3.97637e-05
3.97607e-05
3.99988e-05
3.99984e-05
4.00015e-05
3.99977e-05
6.09004e-05
6.4984e-05
4.73926e-05
5.2026e-05
6.08983e-05
6.49569e-05
4.74483e-05
7.12889e-05
7.12974e-05
6.08968e-05
4.7397e-05
6.49842e-05
5.20287e-05
6.08973e-05
4.74519e-05
6.49453e-05
7.00227e-05
7.00292e-05
5.40057e-05
6.9973e-05
6.99775e-05
6.87611e-05
7.36014e-05
6.86998e-05
7.36543e-05
7.135e-05
7.13859e-05
6.87533e-05
7.35983e-05
6.86916e-05
7.36574e-05
4.00751e-05
4.00773e-05
4.00756e-05
4.03101e-05
4.03065e-05
4.03135e-05
4.03151e-05
6.09551e-05
6.49588e-05
4.75962e-05
5.21745e-05
6.09055e-05
6.50357e-05
4.7647e-05
7.13499e-05
7.13956e-05
6.09567e-05
4.75958e-05
6.49428e-05
5.2175e-05
6.08998e-05
4.76474e-05
6.50499e-05
7.00809e-05
7.00898e-05
5.41606e-05
7.02011e-05
7.02146e-05
6.8806e-05
7.36726e-05
6.88151e-05
7.36641e-05
7.13985e-05
7.14071e-05
6.88146e-05
7.36794e-05
6.88257e-05
7.36669e-05
4.03845e-05
4.03939e-05
4.03942e-05
4.05977e-05
4.05984e-05
4.06043e-05
4.06002e-05
6.10433e-05
6.50889e-05
4.78155e-05
5.23513e-05
6.1035e-05
6.50755e-05
4.78662e-05
7.14047e-05
7.14049e-05
6.10428e-05
4.78224e-05
6.51103e-05
5.2364e-05
6.10409e-05
4.78733e-05
6.50796e-05
7.02026e-05
7.02136e-05
5.42862e-05
7.00911e-05
7.00919e-05
6.87937e-05
7.36771e-05
6.87702e-05
7.37423e-05
7.14424e-05
7.14871e-05
6.87723e-05
7.36716e-05
6.8758e-05
7.37369e-05
4.06647e-05
4.06672e-05
4.06638e-05
4.08554e-05
4.08584e-05
4.08578e-05
4.08598e-05
6.1049e-05
6.50481e-05
4.79912e-05
5.24695e-05
6.10348e-05
6.50945e-05
4.80279e-05
7.14298e-05
7.14817e-05
6.10381e-05
4.79903e-05
6.50207e-05
5.24578e-05
6.10247e-05
4.80251e-05
6.50671e-05
7.0054e-05
7.00551e-05
5.43693e-05
7.02206e-05
7.02347e-05
6.88885e-05
7.37877e-05
6.889e-05
7.37766e-05
7.14968e-05
7.14894e-05
6.8897e-05
7.37906e-05
6.88875e-05
7.37868e-05
4.09245e-05
4.09254e-05
4.09286e-05
4.11084e-05
4.10981e-05
4.11105e-05
4.11058e-05
6.1135e-05
6.51788e-05
4.81581e-05
5.26147e-05
6.11243e-05
6.51656e-05
4.81996e-05
7.15097e-05
7.15107e-05
6.1147e-05
4.8159e-05
6.51893e-05
5.26222e-05
6.11296e-05
4.82024e-05
6.51919e-05
7.03258e-05
7.03429e-05
5.45217e-05
7.02578e-05
7.0268e-05
6.87665e-05
7.37306e-05
6.87836e-05
7.37562e-05
7.14896e-05
7.15379e-05
6.87823e-05
7.37421e-05
6.88173e-05
7.37535e-05
4.11477e-05
4.11632e-05
4.11548e-05
4.1282e-05
4.12845e-05
4.12897e-05
4.12873e-05
6.10832e-05
6.50505e-05
4.82894e-05
5.26519e-05
6.10949e-05
6.50449e-05
4.83061e-05
7.14963e-05
7.15146e-05
6.10804e-05
4.83014e-05
6.50853e-05
5.26721e-05
6.11057e-05
4.83175e-05
6.50429e-05
7.00468e-05
7.00475e-05
5.44821e-05
7.00518e-05
7.00509e-05
6.88916e-05
7.38457e-05
6.8853e-05
7.38592e-05
7.15903e-05
7.15962e-05
6.88769e-05
7.38354e-05
6.8806e-05
7.38593e-05
4.13378e-05
4.13368e-05
4.13398e-05
4.14858e-05
4.14887e-05
4.1491e-05
4.14911e-05
6.11574e-05
6.51745e-05
4.83832e-05
5.27618e-05
6.1111e-05
6.51951e-05
4.84154e-05
7.15833e-05
7.16082e-05
6.1156e-05
4.83785e-05
6.51084e-05
5.2748e-05
6.10927e-05
4.84103e-05
6.52054e-05
7.03083e-05
7.03209e-05
5.4617e-05
7.03229e-05
7.03418e-05
6.88615e-05
7.38503e-05
6.88654e-05
7.38686e-05
7.15896e-05
7.16151e-05
6.88732e-05
7.38595e-05
6.88765e-05
7.38743e-05
4.15353e-05
4.15423e-05
4.15393e-05
4.16607e-05
4.16461e-05
4.16523e-05
4.16552e-05
6.1147e-05
6.51303e-05
4.85031e-05
5.28134e-05
6.11511e-05
6.5114e-05
4.85192e-05
7.16017e-05
7.16094e-05
6.11498e-05
4.85114e-05
6.51944e-05
5.28303e-05
6.11669e-05
4.85301e-05
6.51183e-05
7.01657e-05
7.0182e-05
5.46255e-05
7.01545e-05
7.01602e-05
6.89287e-05
7.39251e-05
6.88934e-05
7.3942e-05
7.1686e-05
7.17241e-05
6.89204e-05
7.39266e-05
6.889e-05
7.3943e-05
4.16937e-05
4.16954e-05
4.17036e-05
4.18252e-05
4.18403e-05
4.18345e-05
4.18332e-05
6.12113e-05
6.5192e-05
4.85768e-05
5.2915e-05
6.11608e-05
6.53007e-05
4.86038e-05
7.16782e-05
7.17189e-05
6.11811e-05
4.85738e-05
6.5126e-05
5.28891e-05
6.11416e-05
4.85953e-05
6.52676e-05
7.04211e-05
7.04097e-05
5.47964e-05
7.0532e-05
7.05284e-05
6.89264e-05
7.395e-05
6.89351e-05
7.39355e-05
7.17015e-05
7.16029e-05
6.88995e-05
7.39456e-05
6.89219e-05
7.39262e-05
4.18775e-05
4.1875e-05
4.18684e-05
4.19189e-05
4.19094e-05
4.19298e-05
4.19132e-05
6.12031e-05
6.53802e-05
4.86801e-05
5.29703e-05
6.12406e-05
6.52552e-05
4.86804e-05
7.16945e-05
7.16308e-05
6.1195e-05
4.86778e-05
6.53437e-05
5.29631e-05
6.1221e-05
4.8683e-05
6.52238e-05
7.04545e-05
7.04474e-05
5.46972e-05
7.0011e-05
7.00304e-05
6.85151e-05
7.37888e-05
6.8617e-05
7.37957e-05
7.15344e-05
7.16843e-05
6.85914e-05
7.38148e-05
6.86687e-05
7.3821e-05
4.1909e-05
4.19373e-05
4.19216e-05
4.19755e-05
4.19505e-05
4.19703e-05
4.19802e-05
6.08198e-05
6.46184e-05
4.86222e-05
5.27413e-05
6.08852e-05
6.45836e-05
4.86052e-05
7.15926e-05
7.16774e-05
6.09278e-05
4.86532e-05
6.48329e-05
5.28084e-05
6.09792e-05
4.86362e-05
6.48027e-05
6.96485e-05
6.97199e-05
5.44755e-05
6.98473e-05
6.99399e-05
6.92652e-05
7.41641e-05
6.89061e-05
7.42396e-05
7.19644e-05
7.19439e-05
6.91236e-05
7.41272e-05
6.88505e-05
7.41951e-05
4.20121e-05
4.20091e-05
4.20297e-05
4.21556e-05
4.21854e-05
4.21331e-05
4.21616e-05
6.14117e-05
6.55282e-05
4.86378e-05
5.3061e-05
6.11382e-05
6.58354e-05
4.87151e-05
7.1853e-05
7.18572e-05
6.12176e-05
4.86408e-05
6.52624e-05
5.2952e-05
6.10622e-05
4.86731e-05
6.54392e-05
7.09043e-05
7.08285e-05
5.49862e-05
7.10092e-05
7.08986e-05
6.85189e-05
7.38684e-05
6.90793e-05
7.37267e-05
7.16037e-05
7.15825e-05
6.86053e-05
7.3887e-05
6.90151e-05
7.37675e-05
4.22006e-05
4.21701e-05
4.21814e-05
4.21584e-05
4.2162e-05
4.21994e-05
4.21637e-05
6.09594e-05
6.52325e-05
4.87997e-05
5.29653e-05
6.13288e-05
6.46848e-05
4.87849e-05
7.16884e-05
7.16904e-05
6.10477e-05
4.87567e-05
6.51912e-05
5.29485e-05
6.11921e-05
4.87537e-05
6.49649e-05
7.00364e-05
7.00449e-05
5.45769e-05
6.96788e-05
6.97934e-05
6.8706e-05
7.39571e-05
6.83729e-05
7.4144e-05
7.17449e-05
7.18403e-05
6.88024e-05
7.39923e-05
6.85221e-05
7.4161e-05
4.21456e-05
4.21991e-05
4.21565e-05
4.2205e-05
4.2142e-05
4.21936e-05
4.2165e-05
6.0761e-05
6.46408e-05
4.86213e-05
5.27073e-05
6.07109e-05
6.48705e-05
4.8597e-05
7.1805e-05
7.18267e-05
6.09154e-05
4.8694e-05
6.50245e-05
5.28447e-05
6.09181e-05
4.86663e-05
6.50511e-05
6.98488e-05
6.99779e-05
5.44373e-05
7.00442e-05
7.01066e-05
6.88919e-05
7.41342e-05
6.8895e-05
7.4083e-05
7.18943e-05
7.19646e-05
6.878e-05
7.41094e-05
6.88773e-05
7.40359e-05
4.2158e-05
4.21973e-05
4.21959e-05
4.22828e-05
4.23197e-05
4.22392e-05
4.231e-05
6.10972e-05
6.50784e-05
4.86092e-05
5.28424e-05
6.09484e-05
6.52707e-05
4.8644e-05
7.1794e-05
7.18325e-05
6.09491e-05
4.86434e-05
6.4933e-05
5.27813e-05
6.09171e-05
4.86439e-05
6.49261e-05
7.05945e-05
7.05097e-05
5.48338e-05
7.08302e-05
7.07312e-05
6.88286e-05
7.40664e-05
6.88708e-05
7.40727e-05
7.1967e-05
7.19186e-05
6.87394e-05
7.40375e-05
6.87286e-05
7.40927e-05
4.23693e-05
4.22836e-05
4.23393e-05
4.22987e-05
4.23887e-05
4.23768e-05
4.23509e-05
6.11885e-05
6.5553e-05
4.8766e-05
5.30493e-05
6.12284e-05
6.54458e-05
4.87659e-05
7.1963e-05
7.20079e-05
6.10657e-05
4.86942e-05
6.52822e-05
5.29479e-05
6.10492e-05
4.87052e-05
6.53836e-05
7.0717e-05
7.06694e-05
5.48024e-05
7.01859e-05
7.02295e-05
6.84938e-05
7.4029e-05
6.85969e-05
7.39593e-05
7.16277e-05
7.14589e-05
6.87625e-05
7.40919e-05
6.87471e-05
7.40315e-05
4.23745e-05
4.23786e-05
4.23461e-05
4.22891e-05
4.20955e-05
4.22199e-05
4.2173e-05
6.06847e-05
6.49782e-05
4.87144e-05
5.27601e-05
6.08856e-05
6.4438e-05
4.86373e-05
7.18309e-05
7.15469e-05
6.09072e-05
4.87083e-05
6.53859e-05
5.29509e-05
6.1015e-05
4.86906e-05
6.49588e-05
6.99437e-05
7.0024e-05
5.46235e-05
6.98106e-05
6.99027e-05
6.81131e-05
7.36159e-05
6.81186e-05
7.36844e-05
7.13792e-05
7.18043e-05
6.80219e-05
7.35728e-05
6.81336e-05
7.36241e-05
4.2055e-05
4.21226e-05
4.21132e-05
4.20975e-05
4.20944e-05
4.20777e-05
4.21012e-05
5.9993e-05
6.36854e-05
4.82836e-05
5.20947e-05
6.01578e-05
6.37082e-05
4.82365e-05
7.12645e-05
7.15896e-05
5.9993e-05
4.8365e-05
6.37443e-05
5.21137e-05
6.02851e-05
4.82659e-05
6.35975e-05
6.85696e-05
6.86117e-05
5.34785e-05
6.87349e-05
6.87602e-05
6.9661e-05
7.43955e-05
6.87455e-05
7.47983e-05
7.28278e-05
7.2819e-05
6.94607e-05
7.43184e-05
6.84335e-05
7.47788e-05
4.22338e-05
4.21416e-05
4.21741e-05
4.36174e-05
4.38577e-05
4.37418e-05
4.37598e-05
6.17397e-05
6.64515e-05
4.83784e-05
5.31139e-05
6.0682e-05
6.71943e-05
4.85048e-05
7.27224e-05
7.28082e-05
6.14933e-05
4.83035e-05
6.58542e-05
5.2851e-05
6.043e-05
4.84037e-05
6.68136e-05
7.34675e-05
7.34024e-05
5.58204e-05
7.39159e-05
7.38359e-05
6.29603e-05
7.3798e-05
6.88231e-05
7.21195e-05
7.07578e-05
6.05006e-05
6.32234e-05
7.38619e-05
6.88006e-05
7.22996e-05
2.96842e-05
3.76907e-05
3.76603e-05
4.43053e-05
2.98208e-05
3.80112e-05
3.79904e-05
5.98758e-05
6.5071e-05
4.63108e-05
4.92561e-05
6.15533e-05
6.20117e-05
4.49667e-05
7.10065e-05
6.09945e-05
5.99365e-05
4.62347e-05
6.51283e-05
4.92455e-05
6.14498e-05
4.49244e-05
6.23077e-05
6.76516e-05
6.76155e-05
5.18888e-05
6.38394e-05
6.38577e-05
7.12076e-05
7.12101e-05
5.36673e-05
6.98966e-05
6.99073e-05
7.12643e-05
7.12152e-05
7.12664e-05
7.12174e-05
5.37166e-05
7.00515e-05
7.00547e-05
6.99124e-05
6.99202e-05
6.85804e-05
7.34501e-05
6.07e-05
5.15887e-05
6.48097e-05
4.69058e-05
6.06986e-05
5.15833e-05
6.48106e-05
4.69029e-05
6.85841e-05
7.35176e-05
7.34596e-05
6.86399e-05
6.85833e-05
7.35145e-05
7.34592e-05
6.86391e-05
6.07059e-05
5.16413e-05
6.48905e-05
4.70399e-05
6.48161e-05
4.69725e-05
6.0758e-05
6.07048e-05
5.1638e-05
6.48948e-05
4.7038e-05
6.48203e-05
4.69701e-05
6.07571e-05
5.36672e-05
6.99085e-05
6.9917e-05
7.12135e-05
7.12645e-05
7.12203e-05
5.37193e-05
7.00583e-05
7.00588e-05
6.99406e-05
6.99442e-05
7.12638e-05
7.12205e-05
5.15869e-05
6.4814e-05
6.85862e-05
7.35171e-05
7.34608e-05
6.8637e-05
6.07077e-05
5.16394e-05
6.48894e-05
4.70402e-05
6.48196e-05
4.69729e-05
6.07569e-05
6.85861e-05
7.35137e-05
7.34599e-05
6.86369e-05
6.07074e-05
5.16426e-05
4.70418e-05
6.48945e-05
4.6974e-05
6.48251e-05
6.0757e-05
6.85877e-05
7.34576e-05
6.07042e-05
4.69047e-05
6.85904e-05
6.0712e-05
5.16428e-05
6.49031e-05
4.70423e-05
6.4831e-05
4.6973e-05
6.07694e-05
6.85942e-05
7.35186e-05
7.34668e-05
6.86518e-05
6.07129e-05
5.16476e-05
4.70446e-05
6.49165e-05
4.69745e-05
6.48413e-05
6.07714e-05
6.8597e-05
7.35185e-05
7.34695e-05
6.8655e-05
7.12657e-05
7.12205e-05
5.37214e-05
7.00586e-05
7.00646e-05
6.99399e-05
6.99473e-05
7.12655e-05
7.12215e-05
6.07109e-05
5.16461e-05
4.70458e-05
6.49069e-05
4.69761e-05
6.48318e-05
6.07714e-05
6.07098e-05
5.16452e-05
4.70444e-05
6.49211e-05
4.69739e-05
6.48432e-05
6.0771e-05
6.85939e-05
7.35214e-05
7.34689e-05
6.86553e-05
6.85929e-05
7.35222e-05
7.34724e-05
6.8654e-05
5.37289e-05
7.0077e-05
7.00877e-05
6.99756e-05
6.99849e-05
7.12655e-05
7.12268e-05
7.1269e-05
7.12303e-05
7.12685e-05
7.12878e-05
7.1271e-05
7.12913e-05
7.00865e-05
7.00898e-05
5.38962e-05
7.0136e-05
7.0143e-05
7.12903e-05
7.12866e-05
7.12943e-05
7.12902e-05
5.39479e-05
7.01009e-05
7.0115e-05
7.01372e-05
7.01446e-05
6.87276e-05
7.35231e-05
6.86542e-05
7.35514e-05
6.08537e-05
6.49154e-05
4.71113e-05
5.18309e-05
6.0773e-05
6.49969e-05
4.71842e-05
6.08518e-05
6.49169e-05
4.71095e-05
5.18264e-05
6.0772e-05
6.49883e-05
4.71823e-05
6.87341e-05
7.35584e-05
7.35584e-05
6.87385e-05
6.87317e-05
7.35538e-05
7.35527e-05
6.87362e-05
6.08664e-05
5.18938e-05
6.50028e-05
4.7328e-05
6.50033e-05
4.72582e-05
6.0906e-05
6.08643e-05
5.18878e-05
6.49918e-05
4.73254e-05
6.49935e-05
4.72559e-05
6.09038e-05
7.00876e-05
7.00858e-05
5.38933e-05
7.01249e-05
7.01236e-05
7.12673e-05
7.12859e-05
7.12912e-05
7.12851e-05
5.39433e-05
7.00864e-05
7.00893e-05
7.01254e-05
7.01238e-05
7.12913e-05
7.1285e-05
6.08504e-05
6.49124e-05
4.7111e-05
5.18277e-05
6.07713e-05
6.49969e-05
4.71833e-05
6.87252e-05
7.3523e-05
6.86511e-05
7.35537e-05
6.08493e-05
4.71128e-05
6.49147e-05
5.18312e-05
6.07712e-05
4.7185e-05
6.49923e-05
6.87324e-05
7.35621e-05
7.35611e-05
6.87395e-05
6.08636e-05
5.18908e-05
6.50062e-05
4.73273e-05
6.50042e-05
4.72571e-05
6.09065e-05
6.87305e-05
7.35565e-05
7.35554e-05
6.87374e-05
6.08622e-05
5.18931e-05
4.73284e-05
6.49993e-05
4.72585e-05
6.49985e-05
6.09047e-05
6.87261e-05
7.35264e-05
6.8665e-05
7.35538e-05
6.08566e-05
4.71175e-05
6.49352e-05
5.18384e-05
6.07855e-05
4.71901e-05
6.49885e-05
6.87255e-05
7.35252e-05
6.86676e-05
7.35478e-05
6.08671e-05
5.18925e-05
6.49943e-05
4.73289e-05
6.49958e-05
4.72604e-05
6.09e-05
6.87287e-05
7.35555e-05
7.35551e-05
6.873e-05
6.08668e-05
5.18962e-05
4.73301e-05
6.498e-05
4.72627e-05
6.49894e-05
6.08976e-05
6.87273e-05
7.35477e-05
7.35483e-05
6.87279e-05
7.00893e-05
7.00931e-05
5.39003e-05
7.01343e-05
7.01317e-05
7.12691e-05
7.12866e-05
7.12923e-05
7.12882e-05
5.39506e-05
7.01031e-05
7.00907e-05
7.01353e-05
7.0132e-05
7.12889e-05
7.12853e-05
6.08581e-05
4.71176e-05
6.49401e-05
5.18366e-05
6.07857e-05
4.71904e-05
6.49927e-05
6.87286e-05
7.35293e-05
6.86688e-05
7.35555e-05
6.87251e-05
7.35289e-05
6.86675e-05
7.35506e-05
6.08704e-05
5.18989e-05
4.73333e-05
6.49978e-05
4.72647e-05
6.50014e-05
6.08996e-05
6.08683e-05
5.18946e-05
4.73307e-05
6.49828e-05
4.72631e-05
6.49933e-05
6.0896e-05
6.87304e-05
7.35554e-05
7.35563e-05
6.87302e-05
6.87268e-05
7.35487e-05
7.35507e-05
6.87259e-05
7.12678e-05
7.12819e-05
7.12712e-05
7.12849e-05
5.39478e-05
7.00535e-05
7.00612e-05
7.0114e-05
7.01242e-05
7.12842e-05
7.12803e-05
7.12864e-05
7.12832e-05
7.12869e-05
7.12963e-05
7.12907e-05
7.12989e-05
7.00634e-05
7.00772e-05
5.40206e-05
6.99916e-05
7.00014e-05
7.13409e-05
7.12993e-05
7.13418e-05
7.13015e-05
5.4047e-05
6.99953e-05
6.99969e-05
6.99812e-05
6.9989e-05
6.87109e-05
7.35516e-05
6.87304e-05
7.35528e-05
6.0906e-05
6.49905e-05
4.73932e-05
5.2028e-05
6.09043e-05
6.49522e-05
4.74498e-05
6.09047e-05
6.4981e-05
4.73903e-05
5.20225e-05
6.09023e-05
6.49524e-05
4.7447e-05
6.87002e-05
7.35881e-05
7.35549e-05
6.86973e-05
6.87001e-05
7.35875e-05
7.35555e-05
6.86973e-05
6.09015e-05
5.20581e-05
6.49363e-05
4.75478e-05
6.49379e-05
4.75014e-05
6.0905e-05
6.09005e-05
5.20554e-05
6.49462e-05
4.75461e-05
6.49425e-05
4.74991e-05
6.09044e-05
7.0058e-05
7.00609e-05
5.40217e-05
7.00059e-05
7.001e-05
7.12891e-05
7.13017e-05
7.13432e-05
7.13049e-05
5.40513e-05
7.00214e-05
7.00186e-05
7e-05
7.00026e-05
7.13422e-05
7.13048e-05
6.09058e-05
6.4995e-05
4.73933e-05
5.20265e-05
6.09049e-05
6.49567e-05
4.74503e-05
6.87096e-05
7.3553e-05
6.87319e-05
7.35493e-05
6.09041e-05
4.73941e-05
6.49878e-05
5.20264e-05
6.09032e-05
4.74509e-05
6.49497e-05
6.86973e-05
7.35844e-05
7.35553e-05
6.86905e-05
6.09006e-05
5.20564e-05
6.49353e-05
4.75471e-05
6.49403e-05
4.75016e-05
6.09016e-05
6.86955e-05
7.35793e-05
7.35503e-05
6.86887e-05
6.08989e-05
5.20559e-05
4.75474e-05
6.49296e-05
4.75021e-05
6.49338e-05
6.09e-05
6.87036e-05
7.35532e-05
6.87236e-05
7.35547e-05
6.08981e-05
4.73929e-05
6.49652e-05
5.20176e-05
6.08958e-05
4.74474e-05
6.49335e-05
6.87022e-05
7.35451e-05
6.87213e-05
7.35471e-05
6.08966e-05
5.20588e-05
6.49499e-05
4.75469e-05
6.49467e-05
4.74997e-05
6.09019e-05
6.86939e-05
7.35905e-05
7.35574e-05
6.86932e-05
6.08943e-05
5.20487e-05
4.75451e-05
6.49366e-05
4.74982e-05
6.49249e-05
6.09004e-05
6.86931e-05
7.35907e-05
7.35506e-05
6.86937e-05
7.00664e-05
7.0054e-05
5.40191e-05
6.9991e-05
6.99823e-05
7.12856e-05
7.12955e-05
7.13405e-05
7.13002e-05
5.4045e-05
6.99897e-05
6.99911e-05
6.99797e-05
6.99727e-05
7.1342e-05
7.12989e-05
6.0893e-05
4.73934e-05
6.49668e-05
5.20156e-05
6.08937e-05
4.74475e-05
6.49328e-05
6.86975e-05
7.35515e-05
6.87223e-05
7.35498e-05
6.86926e-05
7.3545e-05
6.87177e-05
7.35459e-05
6.08921e-05
5.20576e-05
4.75473e-05
6.49316e-05
4.75019e-05
6.49315e-05
6.08959e-05
6.08885e-05
5.2046e-05
4.75434e-05
6.49353e-05
4.74973e-05
6.49236e-05
6.0893e-05
6.86857e-05
7.35894e-05
7.3552e-05
6.86849e-05
6.86814e-05
7.35936e-05
7.35495e-05
6.86814e-05
7.1282e-05
7.12973e-05
7.1284e-05
7.12991e-05
5.40346e-05
7.00229e-05
7.0029e-05
6.99691e-05
6.99733e-05
7.13492e-05
7.13018e-05
7.13527e-05
7.13038e-05
7.135e-05
7.13929e-05
7.13512e-05
7.13971e-05
7.00428e-05
7.00373e-05
5.41519e-05
7.01903e-05
7.01974e-05
7.14029e-05
7.13941e-05
7.14078e-05
7.13986e-05
5.42061e-05
7.02272e-05
7.02416e-05
7.02123e-05
7.02224e-05
6.87576e-05
7.35981e-05
6.86994e-05
7.36447e-05
6.09527e-05
6.49457e-05
4.75962e-05
5.21752e-05
6.09073e-05
6.50451e-05
4.76463e-05
6.09505e-05
6.49555e-05
4.75949e-05
5.21705e-05
6.09067e-05
6.50315e-05
4.76446e-05
6.87768e-05
7.36739e-05
7.36608e-05
6.88174e-05
6.87723e-05
7.36657e-05
7.36498e-05
6.88133e-05
6.09669e-05
5.2229e-05
6.51086e-05
4.77588e-05
6.5069e-05
4.77022e-05
6.10299e-05
6.09642e-05
5.22193e-05
6.50821e-05
4.77551e-05
6.50488e-05
4.76997e-05
6.10256e-05
7.00624e-05
7.0056e-05
5.41464e-05
7.01604e-05
7.01616e-05
7.13493e-05
7.13864e-05
7.14001e-05
7.13871e-05
5.41934e-05
7.01855e-05
7.019e-05
7.01759e-05
7.01776e-05
7.14015e-05
7.13881e-05
6.09452e-05
6.49426e-05
4.75944e-05
5.21713e-05
6.09027e-05
6.50425e-05
4.76439e-05
6.87511e-05
7.3593e-05
6.86899e-05
7.36517e-05
6.09434e-05
4.75945e-05
6.49372e-05
5.21698e-05
6.09011e-05
4.7644e-05
6.50361e-05
6.87741e-05
7.36805e-05
7.36655e-05
6.88273e-05
6.0961e-05
5.22257e-05
6.51164e-05
4.77584e-05
6.50691e-05
4.77004e-05
6.10347e-05
6.87719e-05
7.36759e-05
7.36599e-05
6.88256e-05
6.09592e-05
5.22243e-05
4.77587e-05
6.51103e-05
4.77005e-05
6.50624e-05
6.1033e-05
6.87623e-05
7.36016e-05
6.86974e-05
7.36493e-05
6.09572e-05
4.75953e-05
6.49528e-05
5.21787e-05
6.09044e-05
4.76475e-05
6.50584e-05
6.87665e-05
7.36047e-05
6.86984e-05
7.36536e-05
6.09692e-05
5.22237e-05
6.50899e-05
4.77589e-05
6.50531e-05
4.77028e-05
6.10303e-05
6.87782e-05
7.36712e-05
7.36547e-05
6.88163e-05
6.09714e-05
5.22335e-05
4.77622e-05
6.51032e-05
4.7705e-05
6.50778e-05
6.10321e-05
6.87816e-05
7.36687e-05
7.36588e-05
6.88174e-05
7.00319e-05
7.00432e-05
5.41486e-05
7.01887e-05
7.01938e-05
7.13514e-05
7.13946e-05
7.14077e-05
7.13974e-05
5.42029e-05
7.0232e-05
7.02286e-05
7.02136e-05
7.02153e-05
7.14045e-05
7.13957e-05
6.09566e-05
4.75931e-05
6.49529e-05
5.21762e-05
6.08975e-05
4.76458e-05
6.50652e-05
6.87716e-05
7.36044e-05
6.86904e-05
7.36583e-05
6.87715e-05
7.3609e-05
6.86879e-05
7.36594e-05
6.09729e-05
5.22303e-05
4.77641e-05
6.5112e-05
4.77054e-05
6.50742e-05
6.10386e-05
6.09728e-05
5.22318e-05
4.77631e-05
6.51097e-05
4.77045e-05
6.50852e-05
6.10368e-05
6.87896e-05
7.36758e-05
7.36648e-05
6.88243e-05
6.87892e-05
7.3672e-05
7.36646e-05
6.88215e-05
7.13577e-05
7.13937e-05
7.13616e-05
7.13978e-05
5.42139e-05
7.0218e-05
7.02312e-05
7.02147e-05
7.02285e-05
7.1401e-05
7.13939e-05
7.14037e-05
7.13978e-05
7.13993e-05
7.13984e-05
7.14041e-05
7.14017e-05
7.0221e-05
7.02367e-05
5.42902e-05
7.01069e-05
7.01222e-05
7.14209e-05
7.13964e-05
7.14209e-05
7.13991e-05
5.43082e-05
7.00325e-05
7.00365e-05
7.00711e-05
7.00825e-05
6.88042e-05
7.36653e-05
6.88111e-05
7.3665e-05
6.10418e-05
6.51073e-05
4.78162e-05
5.2359e-05
6.10344e-05
6.50767e-05
4.7867e-05
6.104e-05
6.50811e-05
4.78115e-05
5.23461e-05
6.10306e-05
6.50663e-05
4.78623e-05
6.87927e-05
7.36685e-05
7.366e-05
6.87738e-05
6.87931e-05
7.36789e-05
7.36645e-05
6.87775e-05
6.10369e-05
5.23828e-05
6.50119e-05
4.79504e-05
6.50486e-05
4.79129e-05
6.10338e-05
6.10358e-05
5.23768e-05
6.50398e-05
4.79488e-05
6.50534e-05
4.79092e-05
6.1035e-05
7.01814e-05
7.0187e-05
5.42819e-05
7.0121e-05
7.01317e-05
7.14003e-05
7.14084e-05
7.1436e-05
7.14075e-05
5.43102e-05
7.00954e-05
7.01014e-05
7.01062e-05
7.01149e-05
7.1435e-05
7.14086e-05
6.10475e-05
6.51156e-05
4.78174e-05
5.23585e-05
6.10406e-05
6.50859e-05
4.78692e-05
6.88139e-05
7.3675e-05
6.88241e-05
7.36659e-05
6.10469e-05
4.78178e-05
6.51096e-05
5.23604e-05
6.10392e-05
4.78701e-05
6.50852e-05
6.87974e-05
7.36642e-05
7.36604e-05
6.87661e-05
6.10415e-05
5.23825e-05
6.50109e-05
4.79517e-05
6.50555e-05
4.79152e-05
6.10315e-05
6.87975e-05
7.3665e-05
7.36605e-05
6.8767e-05
6.10411e-05
5.23874e-05
4.79537e-05
6.50235e-05
4.79166e-05
6.50604e-05
6.10319e-05
6.8806e-05
7.36705e-05
6.88144e-05
7.36692e-05
6.10422e-05
4.78193e-05
6.50999e-05
5.23572e-05
6.10358e-05
4.78693e-05
6.50648e-05
6.8805e-05
7.36672e-05
6.88149e-05
7.36606e-05
6.1039e-05
5.23822e-05
6.50481e-05
4.79527e-05
6.50624e-05
4.79131e-05
6.10378e-05
6.87942e-05
7.36825e-05
7.36685e-05
6.87781e-05
6.10374e-05
5.23806e-05
4.79521e-05
6.50165e-05
4.79146e-05
6.50403e-05
6.10353e-05
6.87922e-05
7.3671e-05
7.36583e-05
6.87761e-05
7.02276e-05
7.02215e-05
5.42964e-05
7.01299e-05
7.01148e-05
7.14011e-05
7.14014e-05
7.14235e-05
7.14028e-05
5.43181e-05
7.00609e-05
7.00549e-05
7.00973e-05
7.00843e-05
7.14238e-05
7.13998e-05
6.10395e-05
4.78208e-05
6.51058e-05
5.23559e-05
6.10386e-05
4.78707e-05
6.50632e-05
6.88046e-05
7.3674e-05
6.88218e-05
7.36632e-05
6.88e-05
7.36692e-05
6.88192e-05
7.3656e-05
6.10365e-05
5.23898e-05
4.79547e-05
6.50228e-05
4.79183e-05
6.50534e-05
6.10289e-05
6.1033e-05
5.23782e-05
4.79505e-05
6.50106e-05
4.79147e-05
6.5036e-05
6.10251e-05
6.87863e-05
7.36703e-05
7.36598e-05
6.87614e-05
6.87812e-05
7.36678e-05
7.36534e-05
6.8756e-05
7.13972e-05
7.13988e-05
7.13992e-05
7.13994e-05
5.4305e-05
7.00455e-05
7.0045e-05
7.00654e-05
7.00648e-05
7.14272e-05
7.13983e-05
7.14292e-05
7.13988e-05
7.14289e-05
7.14896e-05
7.14286e-05
7.149e-05
7.00354e-05
7.0038e-05
5.43575e-05
7.02017e-05
7.01929e-05
7.15141e-05
7.14956e-05
7.15182e-05
7.14968e-05
5.44108e-05
7.03584e-05
7.0362e-05
7.02636e-05
7.02578e-05
6.87959e-05
7.36867e-05
6.87741e-05
7.37406e-05
6.10444e-05
6.50093e-05
4.79869e-05
5.24523e-05
6.10302e-05
6.50632e-05
4.80226e-05
6.10466e-05
6.50406e-05
4.79875e-05
5.2465e-05
6.10319e-05
6.50957e-05
4.80245e-05
6.88099e-05
7.3787e-05
7.37559e-05
6.88871e-05
6.88104e-05
7.37717e-05
7.37499e-05
6.8881e-05
6.10543e-05
5.24976e-05
6.5207e-05
4.81098e-05
6.5103e-05
4.80652e-05
6.1123e-05
6.10559e-05
5.25057e-05
6.51788e-05
4.81097e-05
6.51204e-05
4.80668e-05
6.11197e-05
7.01048e-05
7.0107e-05
5.43868e-05
7.02345e-05
7.02256e-05
7.1441e-05
7.14847e-05
7.15008e-05
7.14893e-05
5.4432e-05
7.03024e-05
7.02947e-05
7.02664e-05
7.02562e-05
7.14998e-05
7.14874e-05
6.10322e-05
6.50063e-05
4.79866e-05
5.24484e-05
6.10258e-05
6.50494e-05
4.80201e-05
6.87712e-05
7.36714e-05
6.87589e-05
7.37279e-05
6.10319e-05
4.79891e-05
6.50192e-05
5.24535e-05
6.10262e-05
4.80224e-05
6.5051e-05
6.87864e-05