/*--------------------------------*- C++ -*----------------------------------*\
| =========                 |                                                 |
| \\      /  F ield         | OpenFOAM: The Open Source CFD Toolbox           |
|  \\    /   O peration     | Version:  2312                                  |
|   \\  /    A nd           | Website:  www.openfoam.com                      |
|    \\/     M anipulation  |                                                 |
\*---------------------------------------------------------------------------*/
FoamFile
{
    version     2.0;
    format      ascii;
    arch        "LSB;label=32;scalar=64";
    class       volScalarField;
    location    "875";
    object      nut;
}
// * * * * * * * * * * * * * * * * * * * * * * * * * * * * * * * * * * * * * //

dimensions      [0 2 -1 0 0 0 0];

internalField   nonuniform List<scalar> 
43208
(
0.000209172
0.000202154
0.000202172
0.000183137
0.000211665
0.00020358
0.000203605
0.000183901
0.000213664
0.000204428
0.00020438
0.00018441
0.000215828
0.000205722
0.000205812
0.000185478
0.000217691
0.000206587
0.000206515
0.000185704
0.000219678
0.000207785
0.000207749
0.000186925
0.000221455
0.000208322
0.000208503
0.000186887
0.000222717
0.000209048
0.000208885
0.000187406
0.0002245
0.00020995
0.000210036
0.000187996
0.000226036
0.000210588
0.000210477
0.000188648
0.000227555
0.000211789
0.000211711
0.000189548
0.000228286
0.000210443
0.000210961
0.000187373
0.000229307
0.000212301
0.000211813
0.000190364
0.000231014
0.000213757
0.00021306
0.000190424
0.000231206
0.000211319
0.000212524
0.000187645
0.000232579
0.000212553
0.000212635
0.000189969
0.000232821
0.000214624
0.000213104
0.000191139
0.000233623
0.000214766
0.000215247
0.000190625
0.000235469
0.000211064
0.000211866
0.00018676
0.000233634
0.000214249
0.000211224
0.000189114
0.000230553
0.000213987
0.000212765
0.000189005
0.00018287
0.000201697
0.000201701
0.000182904
0.00020171
0.000201715
0.000201742
0.000201775
0.000182909
0.000201754
0.000201785
0.000182991
0.000183023
0.000184037
0.000202111
0.000202111
0.000203307
0.000203268
0.000183048
0.000184002
0.000202119
0.000202124
0.000203317
0.000203292
0.000202192
0.000203301
0.000203274
0.000183061
0.000184028
0.000202205
0.000203332
0.00020329
0.000183956
0.000184008
0.000184379
0.000203591
0.00020355
0.000204135
0.000204149
0.00018398
0.00018442
0.000203607
0.000203576
0.000204148
0.00020411
0.000203521
0.000204176
0.000204086
0.000183994
0.000184354
0.000203536
0.000204129
0.000204089
0.000184339
0.000184406
0.000185485
0.000204386
0.000204398
0.000205456
0.000205369
0.000184436
0.00018536
0.00020439
0.00020435
0.000205468
0.00020543
0.000204379
0.000205406
0.000205475
0.00018438
0.000185467
0.000204381
0.000205478
0.000205496
0.000185492
0.000185493
0.000185743
0.000205782
0.000205683
0.000206288
0.000206329
0.000185372
0.000185879
0.000205802
0.000205772
0.00020631
0.000206341
0.00020578
0.000206372
0.000206279
0.00018549
0.000185832
0.000205802
0.000206361
0.000206281
0.000185741
0.000185677
0.000186891
0.000206442
0.000206546
0.000207446
0.000207445
0.000185866
0.000186842
0.000206455
0.000206491
0.000207434
0.000207342
0.000206461
0.00020747
0.000207446
0.000185761
0.000186733
0.000206459
0.000207395
0.000207459
0.000186872
0.000186984
0.000187179
0.000207832
0.00020776
0.000208381
0.000208236
0.000186848
0.000187024
0.000207819
0.000207696
0.000208425
0.000208428
0.000207797
0.000208271
0.000208303
0.000186814
0.000187296
0.000207813
0.000208447
0.000208323
0.000187063
0.000186997
0.000187181
0.000208398
0.000208278
0.000208588
0.000208702
0.000186861
0.000187379
0.000208448
0.000208494
0.00020862
0.000208637
0.000208329
0.000208748
0.000208673
0.000187132
0.000187165
0.000208347
0.000208659
0.000208675
0.000187311
0.000187249
0.000188099
0.000208888
0.000209013
0.00020977
0.000209779
0.000187437
0.000188106
0.000208881
0.000208835
0.000209761
0.000209797
0.000208998
0.000209808
0.000209795
0.000187216
0.000188199
0.000209
0.000209866
0.000209827
0.000188115
0.000188042
0.000188736
0.00020995
0.000209913
0.000210522
0.000210267
0.000187992
0.000188372
0.000209957
0.000209975
0.000210542
0.000210284
0.000209922
0.000210308
0.000210338
0.00018811
0.000188257
0.000209954
0.000210315
0.000210333
0.000188494
0.000188722
0.000189303
0.000210722
0.000210545
0.000211357
0.000211668
0.00018846
0.000190056
0.00021075
0.000210472
0.000211373
0.000211583
0.000210697
0.000211726
0.00021152
0.000188298
0.000189833
0.000210664
0.000211616
0.000211512
0.000189717
0.000189206
0.000188299
0.000211447
0.000211736
0.000211327
0.00021091
0.000189977
0.000187116
0.000211459
0.000211672
0.00021133
0.000211249
0.000211559
0.000210867
0.000210885
0.000189759
0.000187986
0.000211555
0.000211276
0.000210956
0.000187565
0.000187967
0.00018871
0.00021101
0.000210475
0.00021127
0.000211047
0.000186669
0.00018909
0.000211043
0.000210925
0.00021131
0.000211205
0.000210733
0.000211086
0.000211424
0.000187698
0.000188805
0.000210832
0.000211273
0.000211509
0.000189628
0.000189616
0.000191753
0.000211932
0.000212173
0.00021352
0.000213882
0.000190432
0.00019217
0.000211944
0.000211728
0.000213441
0.000213083
0.000212334
0.00021397
0.000213416
0.000189423
0.000190766
0.000212329
0.000213068
0.000213254
0.00019091
0.00019099
0.000186992
0.000213355
0.00021369
0.000211496
0.000211408
0.000191392
0.000187179
0.000213283
0.000213073
0.000211608
0.00021237
0.000213284
0.000211422
0.000211644
0.000190393
0.000189017
0.000213134
0.000212487
0.000211821
0.000187798
0.000187144
0.000191416
0.000211616
0.000211326
0.000213459
0.00021215
0.000187061
0.000189042
0.000211739
0.000212407
0.000213541
0.000212688
0.000211554
0.000212107
0.000212329
0.000188941
0.000189236
0.000211773
0.000212624
0.00021249
0.00018945
0.000191366
0.000189294
0.000213719
0.000212635
0.000213313
0.000214409
0.000189287
0.000192187
0.000213742
0.000212696
0.00021313
0.000212731
0.000212973
0.000214529
0.00021414
0.000189044
0.000189344
0.000213021
0.000212739
0.000213945
0.000191504
0.00018898
0.000190578
0.000212934
0.000214476
0.000213195
0.000214466
0.000192239
0.000192198
0.000212761
0.000212966
0.000213187
0.000214401
0.000213969
0.000214627
0.000213606
0.000189694
0.000193317
0.000213777
0.000214539
0.000213597
0.000190597
0.000191051
0.000192448
0.000213854
0.000214589
0.000215528
0.000211593
0.000191823
0.000185005
0.000213945
0.000215104
0.000215803
0.000213656
0.000214094
0.000211526
0.000213089
0.000193445
0.000187272
0.00021414
0.000213568
0.000213373
0.000188156
0.000190793
0.000183366
0.000214161
0.000211243
0.000210657
0.00021148
0.000184272
0.000190108
0.00021448
0.000211967
0.000210489
0.000209684
0.000212081
0.000211205
0.000210455
0.000185543
0.000185378
0.000212249
0.000209605
0.000210404
0.000186517
0.000182949
0.000187219
0.000209919
0.000214331
0.000211479
0.000214902
0.000193379
0.000193348
0.000209622
0.000211136
0.000211227
0.000213122
0.000212047
0.000215093
0.000213697
0.000188247
0.000191589
0.00021184
0.000213372
0.000213504
0.000191578
0.000188109
0.000211823
0.000213828
0.000189824
0.000211648
0.000212575
0.000232329
0.000230595
0.000231092
0.000212999
0.000189039
0.000212852
9.98408e-05
5.07486e-05
2.38949e-05
5.07437e-05
0.000208559
0.000208558
0.000208578
0.000208592
0.000144295
0.000201047
0.000103611
0.000210737
0.000100223
5.07751e-05
0.000100015
5.07858e-05
2.39043e-05
2.39074e-05
0.00010021
5.07694e-05
0.000100001
5.07809e-05
0.000209175
0.000209198
0.00020922
0.000211066
0.000211056
0.000211079
0.000211078
0.000144958
0.000103882
0.000212052
0.000202569
0.000144615
0.000104097
0.000212531
2.39034e-05
2.39068e-05
0.000144973
0.000212062
0.000103896
0.000202593
0.000144623
0.000212547
0.000104113
7.81902e-05
7.81896e-05
0.000183617
7.82255e-05
7.82246e-05
0.000100132
5.07852e-05
0.000100207
5.07844e-05
2.39079e-05
2.39099e-05
0.000100131
5.07809e-05
0.000100209
5.07793e-05
0.000211647
0.000211673
0.00021165
0.000213182
0.00021318
0.000213173
0.000213136
0.000145133
0.000104039
0.000213914
0.000203793
0.000145123
0.000103942
0.000214273
2.39068e-05
2.39081e-05
0.000145117
0.000213931
0.00010404
0.0002038
0.000145119
0.000214288
0.000103906
7.79935e-05
7.79849e-05
0.000184088
7.78637e-05
7.78499e-05
0.000100223
5.08003e-05
0.000100056
5.0819e-05
2.39179e-05
2.39241e-05
0.000100199
5.07936e-05
0.000100035
5.08144e-05
0.000213669
0.000213649
0.000213637
0.000215262
0.000215229
0.000215259
0.000215283
0.000145357
0.000103896
0.000215226
0.000204727
0.000145113
0.000104137
0.000215572
2.39167e-05
2.39245e-05
0.000145362
0.000215199
0.000103848
0.000204711
0.000145086
0.000215556
0.000104181
7.80508e-05
7.80458e-05
0.000184941
7.83083e-05
7.83135e-05
0.000100332
5.08258e-05
0.000100365
5.08229e-05
2.39263e-05
2.39277e-05
0.000100354
5.08226e-05
0.000100391
5.08184e-05
0.000215777
0.000215833
0.000215843
0.000217265
0.000217274
0.000217297
0.00021726
0.000145788
0.000104285
0.000216813
0.000205976
0.000145728
0.000104241
0.000217192
2.39262e-05
2.39262e-05
0.000145787
0.000216853
0.00010435
0.000206061
0.000145754
0.00021724
0.000104255
7.8293e-05
7.82937e-05
0.000185677
7.80352e-05
7.80139e-05
0.000100264
5.08266e-05
0.000100202
5.08489e-05
2.39334e-05
2.3941e-05
0.000100201
5.08192e-05
0.000100168
5.08414e-05
0.000217739
0.000217724
0.000217695
0.000219136
0.000219168
0.000219113
0.000219146
0.00014583
0.000104118
0.000218129
0.000206843
0.000145735
0.000104266
0.000218415
2.39301e-05
2.39388e-05
0.000145777
0.0002181
0.000104037
0.000206731
0.000145691
0.000218369
0.000104177
7.79051e-05
7.78845e-05
0.000186161
7.82666e-05
7.82732e-05
0.000100535
5.08654e-05
0.000100538
5.08622e-05
2.39428e-05
2.39416e-05
0.000100559
5.08607e-05
0.00010053
5.08598e-05
0.000219675
0.000219635
0.000219681
0.000221096
0.000221
0.000221088
0.000221043
0.000146312
0.00010453
0.000219504
0.000208028
0.000146217
0.000104503
0.00021986
2.39438e-05
2.3944e-05
0.000146361
0.000219482
0.000104557
0.00020806
0.000146234
0.00021986
0.000104582
7.8494e-05
7.85069e-05
0.00018722
7.83463e-05
7.83439e-05
0.000100171
5.08456e-05
0.000100225
5.08535e-05
2.39413e-05
2.39492e-05
0.000100214
5.0844e-05
0.00010032
5.08474e-05
0.000221359
0.000221483
0.000221394
0.000222345
0.000222358
0.000222389
0.000222361
0.000146107
0.00010413
0.000220649
0.000208386
0.000146138
0.000104104
0.000220796
2.39415e-05
2.39443e-05
0.000146095
0.000220738
0.000104235
0.000208533
0.000146185
0.000220885
0.000104094
7.78546e-05
7.78301e-05
0.000186911
7.78333e-05
7.78063e-05
0.000100489
5.08849e-05
0.000100383
5.089e-05
2.39583e-05
2.39594e-05
0.000100453
5.08757e-05
0.000100251
5.08843e-05
0.000222778
0.000222743
0.000222778
0.000224067
0.000224102
0.000224075
0.000224097
0.000146504
0.000104441
0.000221506
0.000209336
0.000146225
0.000104522
0.000221815
2.39558e-05
2.39602e-05
0.000146509
0.000221456
0.000104255
0.000209231
0.000146154
0.000221764
0.000104576
7.83474e-05
7.83572e-05
0.000187878
7.83851e-05
7.84087e-05
0.00010047
5.08868e-05
0.000100443
5.08927e-05
2.39582e-05
2.39623e-05
0.000100488
5.08844e-05
0.00010047
5.08892e-05
0.000224514
0.000224528
0.000224517
0.000225643
0.00022551
0.000225517
0.000225561
0.000146631
0.000104387
0.000222784
0.00021006
0.000146569
0.000104383
0.000223006
2.39592e-05
2.39603e-05
0.00014661
0.000222819
0.000104568
0.000210138
0.000146624
0.000223064
0.000104356
7.80802e-05
7.80882e-05
0.000188133
7.80652e-05
7.80447e-05
0.000100606
5.09124e-05
0.000100538
5.09184e-05
2.39741e-05
2.39807e-05
0.000100586
5.09073e-05
0.000100521
5.09132e-05
0.000225947
0.000225915
0.000226009
0.00022721
0.00022736
0.00022728
0.000227253
0.000146981
0.00010457
0.000223703
0.000211085
0.000146716
0.000104892
0.000224026
2.39716e-05
2.39787e-05
0.000146849
0.000223646
0.000104352
0.000210874
0.000146613
0.000223931
0.000104805
7.85812e-05
7.85295e-05
0.00018936
7.88039e-05
7.87769e-05
0.000100626
5.09213e-05
0.000100622
5.09171e-05
2.39775e-05
2.39613e-05
0.000100556
5.09142e-05
0.000100592
5.09082e-05
0.000227712
0.000227672
0.000227585
0.000228165
0.000228032
0.000228222
0.000228051
0.000147061
0.000105147
0.000224914
0.000211809
0.000147159
0.000104776
0.000225026
2.39751e-05
2.39645e-05
0.000147039
0.000224897
0.000105061
0.000211767
0.000147092
0.000225054
0.000104698
7.8621e-05
7.85882e-05
0.000188847
7.76399e-05
7.7663e-05
9.94608e-05
5.08658e-05
9.97455e-05
5.08668e-05
2.39485e-05
2.39723e-05
9.96752e-05
5.08691e-05
9.98955e-05
5.08701e-05
0.00022804
0.000228306
0.000228151
0.000228799
0.000228578
0.000228716
0.000228847
0.000145423
0.000102758
0.000224823
0.000210445
0.000145627
0.000102695
0.000224821
2.39573e-05
2.39708e-05
0.00014592
0.000225082
0.000103435
0.000210929
0.000146076
0.000225073
0.000103364
7.68432e-05
7.6974e-05
0.000187638
7.73155e-05
7.749e-05
0.000101685
5.09926e-05
0.000100618
5.10214e-05
2.40208e-05
2.40184e-05
0.000101261
5.09746e-05
0.00010044
5.10003e-05
0.000229255
0.000229149
0.000229389
0.000230829
0.000231165
0.000230566
0.000230873
0.00014845
0.00010578
0.000225471
0.000213467
0.000147057
0.000106805
0.000226325
2.40009e-05
2.40022e-05
0.000147504
0.000225452
0.000104886
0.000212551
0.000146663
0.000225898
0.000105514
7.9667e-05
7.94697e-05
0.00019145
7.99031e-05
7.96297e-05
9.95189e-05
5.0897e-05
0.000101149
5.08443e-05
2.39612e-05
2.39567e-05
9.97893e-05
5.08973e-05
0.000100972
5.08527e-05
0.000231335
0.000230983
0.000231102
0.000231087
0.000231037
0.000231452
0.000231072
0.000146347
0.000104844
0.000227368
0.000212958
0.000148088
0.000103076
0.000227366
2.39739e-05
2.39737e-05
0.000146797
0.000226963
0.00010474
0.000212857
0.000147444
0.000227083
0.000104012
7.77411e-05
7.77383e-05
0.000188728
7.69483e-05
7.71801e-05
9.99917e-05
5.09196e-05
9.90446e-05
5.09869e-05
2.39832e-05
2.39998e-05
0.000100265
5.09264e-05
9.94858e-05
5.09874e-05
0.000231013
0.000231584
0.000231129
0.000232119
0.000231506
0.00023199
0.000231688
0.00014548
0.000102797
0.00022637
0.000211534
0.000145154
0.000103559
0.000226426
2.39927e-05
2.39968e-05
0.000146218
0.000227056
0.000104036
0.000212613
0.000146169
0.000227065
0.000104128
7.7137e-05
7.74011e-05
0.000188056
7.75477e-05
7.76637e-05
0.000100685
5.09856e-05
0.000100593
5.09675e-05
2.40088e-05
2.40207e-05
0.000100328
5.09722e-05
0.000100515
5.09457e-05
0.000231756
0.000232088
0.000232087
0.000232951
0.000233367
0.000232352
0.000233157
0.000147522
0.000104437
0.000227096
0.000213277
0.000146619
0.000105211
0.000227536
2.39912e-05
2.39973e-05
0.000146765
0.000227349
0.000103917
0.000212683
0.000146433
0.000227458
0.000104055
7.89813e-05
7.87655e-05
0.000191357
7.96401e-05
7.93892e-05
0.00010022
5.09612e-05
0.000100541
5.09633e-05
2.40216e-05
2.4014e-05
9.99686e-05
5.09451e-05
0.000100112
5.0964e-05
0.000233705
0.000232657
0.000233302
0.000233189
0.000234027
0.0002339
0.00023364
0.000147541
0.000105786
0.000228594
0.000214566
0.000147955
0.000105177
0.000228583
2.40191e-05
2.40271e-05
0.000146936
0.000227855
0.000104896
0.000213688
0.00014706
0.000227959
0.000104969
7.89746e-05
7.8839e-05
0.000190349
7.74832e-05
7.75518e-05
9.98793e-05
5.09485e-05
9.95612e-05
5.09261e-05
2.39657e-05
2.39373e-05
0.000100715
5.09644e-05
0.000100021
5.09457e-05
0.000234202
0.000234287
0.000233929
0.000235542
0.000233481
0.00023493
0.000234352
0.00014654
0.000103785
0.000228849
0.000214154
0.000146438
0.000103157
0.000228973
2.39991e-05
2.39523e-05
0.000147724
0.000228873
0.000105112
0.000215852
0.000147103
0.000229594
0.00010495
7.71078e-05
7.72689e-05
0.000191972
7.80644e-05
7.82725e-05
0.000100007
5.08071e-05
0.000100105
5.0829e-05
2.39219e-05
2.39904e-05
9.98028e-05
5.07874e-05
0.000100243
5.08027e-05
0.000233591
0.000234288
0.000234133
0.000233995
0.000234013
0.000233335
0.000233694
0.000144496
0.000102012
0.000228034
0.000210918
0.000145624
0.000101904
0.000227809
2.39019e-05
2.39537e-05
0.000144493
0.000228778
0.00010239
0.000211007
0.000146357
0.000227968
0.000101629
7.66757e-05
7.67646e-05
0.000184686
7.66957e-05
7.67139e-05
9.98865e-05
5.10723e-05
9.89978e-05
5.12475e-05
2.41658e-05
2.41798e-05
9.9172e-05
5.10394e-05
9.79711e-05
5.12343e-05
0.000235056
0.000233413
0.000233923
0.000231474
0.000233778
0.000231938
0.000232467
0.000147165
0.000106654
0.000227462
0.000214685
0.00014384
0.000107684
0.000227867
2.41463e-05
2.41766e-05
0.000145741
0.000226257
0.000104351
0.000211785
0.000142295
0.000226409
0.00010611
8.31466e-05
8.29199e-05
0.000193049
8.26387e-05
8.2415e-05
0.000105005
5.51268e-05
9.9032e-05
7.82706e-05
2.68596e-05
3.9233e-05
0.000106184
5.51441e-05
9.89499e-05
7.88581e-05
0.000251832
0.00024367
0.000243159
0.000228894
0.000252152
0.000243171
0.000242873
0.000147862
0.000103531
0.000230439
0.000209693
0.000149123
9.33496e-05
0.000231325
2.69059e-05
4.02661e-05
0.000148682
0.000229595
0.000103719
0.000209693
0.000148766
0.000230921
9.49029e-05
7.07789e-05
7.07194e-05
0.000183798
7.03189e-05
7.04671e-05
2.38963e-05
2.38942e-05
0.000182311
7.77893e-05
7.77892e-05
2.39059e-05
2.38975e-05
2.39037e-05
2.38954e-05
0.000182373
7.80991e-05
7.80807e-05
7.78074e-05
7.78013e-05
9.98389e-05
5.07439e-05
0.000144281
0.000201039
0.000103578
0.000210756
0.000144279
0.000201016
0.00010357
0.000210744
9.98367e-05
5.07716e-05
5.07516e-05
9.99796e-05
9.98358e-05
5.07661e-05
5.0747e-05
9.99791e-05
0.000144286
0.00020134
0.000103797
0.000211567
0.000103576
0.000211152
0.000144517
0.000144284
0.000201336
0.000103804
0.000211565
0.000103578
0.000211145
0.000144517
0.000182314
7.77959e-05
7.78326e-05
2.38963e-05
2.39037e-05
2.38961e-05
0.000182396
7.80993e-05
7.81175e-05
7.78514e-05
7.78793e-05
2.39048e-05
2.38975e-05
0.000201056
0.000103577
9.98429e-05
5.07658e-05
5.07465e-05
9.99687e-05
0.000144295
0.000201357
0.000103778
0.000211573
0.000103572
0.00021116
0.00014451
9.98441e-05
5.07623e-05
5.07438e-05
9.99704e-05
0.000144297
0.000201352
0.000211579
0.000103798
0.00021116
0.000103594
0.000144514
9.98565e-05
5.07471e-05
0.0001443
0.000210732
9.98664e-05
0.000144312
0.000201374
0.000103837
0.000211583
0.000103621
0.000211155
0.000144569
9.98609e-05
5.07682e-05
5.07502e-05
0.000100012
0.000144318
0.000201383
0.000211595
0.000103879
0.000211155
0.000103653
0.00014458
9.98734e-05
5.07653e-05
5.07483e-05
0.000100024
2.39027e-05
2.3895e-05
0.000182399
7.80947e-05
7.81278e-05
7.78498e-05
7.78845e-05
2.39051e-05
2.38977e-05
0.000144304
0.00020138
0.000211594
0.000103846
0.000211158
0.000103622
0.000144574
0.000144302
0.000201392
0.000211596
0.000103878
0.000211153
0.000103644
0.000144577
9.98582e-05
5.0769e-05
5.07508e-05
0.00010002
9.98544e-05
5.07645e-05
5.07471e-05
0.000100017
0.000182445
7.81569e-05
7.81561e-05
7.79478e-05
7.79436e-05
2.39038e-05
2.38973e-05
2.39029e-05
2.38963e-05
2.39066e-05
2.391e-05
2.39045e-05
2.3908e-05
7.81666e-05
7.81493e-05
0.00018358
7.82705e-05
7.82605e-05
2.39105e-05
2.39098e-05
2.39086e-05
2.39079e-05
0.000183677
7.81797e-05
7.81855e-05
7.82663e-05
7.82577e-05
0.000100217
5.07692e-05
0.000100013
5.07793e-05
0.00014495
0.000103859
0.000212024
0.000202542
0.000144567
0.000104116
0.000212508
0.000144945
0.000103857
0.000212023
0.000202529
0.000144567
0.000104081
0.000212506
0.000100228
5.07865e-05
5.07863e-05
0.000100232
0.000100222
5.07804e-05
5.07799e-05
0.000100227
0.000144992
0.000202955
0.000104121
0.000213486
0.000104125
0.000213009
0.000145185
0.000144985
0.000202927
0.000104075
0.000213475
0.000104083
0.000213003
0.000145178
7.8153e-05
7.81679e-05
0.000183568
7.82288e-05
7.82429e-05
2.39055e-05
2.39087e-05
2.39083e-05
2.39073e-05
0.00018365
7.8126e-05
7.8148e-05
7.82206e-05
7.82352e-05
2.39096e-05
2.39086e-05
0.00014493
0.000103834
0.000212024
0.000202547
0.000144556
0.000104099
0.000212502
0.000100206
5.07656e-05
0.000100001
5.07766e-05
0.000144928
0.000212031
0.000103845
0.000202543
0.000144559
0.000212508
0.000104087
0.000100219
5.07822e-05
5.07816e-05
0.000100232
0.000144974
0.000202961
0.000104115
0.000213482
0.000104111
0.000213002
0.000145185
0.000100215
5.07778e-05
5.07772e-05
0.000100227
0.00014497
0.000202945
0.000213481
0.000104093
0.000213004
0.000104094
0.000145179
0.000100207
5.07709e-05
0.000100038
5.07807e-05
0.000144962
0.000212065
0.000103922
0.000202595
0.000144626
0.000212547
0.000104088
0.000100209
5.07677e-05
0.00010005
5.07759e-05
0.00014499
0.000202965
0.000104088
0.000213485
0.000104097
0.000213026
0.000145151
0.000100206
5.07815e-05
5.07812e-05
0.000100203
0.000144992
0.000202967
0.000213489
0.000104045
0.000213035
0.000104078
0.000145142
0.000100207
5.0776e-05
5.07761e-05
0.000100199
7.81529e-05
7.81809e-05
0.000183599
7.82439e-05
7.82589e-05
2.39058e-05
2.39088e-05
2.39074e-05
2.39067e-05
0.000183684
7.81579e-05
7.81508e-05
7.82387e-05
7.82516e-05
2.39093e-05
2.39086e-05
0.000144969
0.000212069
0.000103923
0.00020261
0.000144625
0.000212553
0.000104087
0.000100213
5.07719e-05
0.000100047
5.07812e-05
0.000100204
5.07669e-05
0.000100042
5.07747e-05
0.000145004
0.000202993
0.000213505
0.000104097
0.000213041
0.000104112
0.000145149
0.000144998
0.000202982
0.000213498
0.00010404
0.000213042
0.000104077
0.000145136
0.00010021
5.07814e-05
5.07816e-05
0.000100203
0.000100199
5.07742e-05
5.07748e-05
0.000100192
2.39043e-05
2.39067e-05
2.39033e-05
2.39057e-05
0.000183666
7.80718e-05
7.80656e-05
7.82151e-05
7.82146e-05
2.39071e-05
2.39065e-05
2.3906e-05
2.39054e-05
2.39099e-05
2.39113e-05
2.3908e-05
2.39092e-05
7.80872e-05
7.8093e-05
0.000184206
7.79095e-05
7.7907e-05
2.39186e-05
2.39118e-05
2.39162e-05
2.39096e-05
0.00018413
7.78745e-05
7.78556e-05
7.78692e-05
7.78643e-05
0.000100131
5.07796e-05
0.000100202
5.07798e-05
0.000145165
0.000104068
0.000213925
0.000203795
0.000145158
0.000103935
0.000214296
0.000145162
0.000104023
0.000213911
0.000203765
0.000145151
0.000103922
0.000214283
0.000100088
5.07958e-05
5.07849e-05
0.00010006
0.000100089
5.07912e-05
5.07806e-05
0.000100061
0.000145123
0.000203962
0.000103847
0.000214915
0.00010387
0.000214623
0.000145133
0.000145121
0.000203955
0.000103866
0.000214913
0.000103868
0.000214615
0.000145134
7.80504e-05
7.80746e-05
0.000184209
7.79155e-05
7.79421e-05
2.39093e-05
2.39112e-05
2.39167e-05
2.39104e-05
0.000184155
7.79117e-05
7.79234e-05
7.7884e-05
7.791e-05
2.39179e-05
2.39117e-05
0.000145166
0.000104066
0.000213928
0.000203815
0.000145159
0.000103935
0.000214305
0.000100127
5.07766e-05
0.000100204
5.07751e-05
0.000145161
0.000213925
0.000104043
0.00020378
0.000145153
0.0002143
0.000103912
0.000100081
5.0789e-05
5.07795e-05
0.000100042
0.000145121
0.00020398
0.000103831
0.000214915
0.000103864
0.000214631
0.000145122
0.000100077
5.07848e-05
5.07754e-05
0.000100039
0.000145116
0.000203945
0.000214909
0.000103818
0.000214625
0.000103845
0.000145118
0.000100104
5.07807e-05
0.000100174
5.0781e-05
0.000145124
0.000213906
0.000103982
0.000203704
0.000145114
0.000214258
0.00010387
0.000100103
5.07751e-05
0.000100172
5.07755e-05
0.000145094
0.000203983
0.000103885
0.0002149
0.00010389
0.000214604
0.000145116
0.000100063
5.07928e-05
5.07818e-05
0.000100045
0.000145086
0.000203879
0.000214877
0.000103845
0.000214578
0.000103823
0.000145111
0.000100066
5.07898e-05
5.07766e-05
0.000100049
7.80672e-05
7.80592e-05
0.000184185
7.78837e-05
7.78838e-05
2.39087e-05
2.39102e-05
2.39151e-05
2.39085e-05
0.000184107
7.78471e-05
7.78691e-05
7.78462e-05
7.78489e-05
2.39178e-05
2.39107e-05
0.000145103
0.000213914
0.000103974
0.000203716
0.000145105
0.000214263
0.000103854
0.000100087
5.07801e-05
0.000100171
5.07793e-05
0.000100074
5.07729e-05
0.000100157
5.07729e-05
0.000145073
0.00020396
0.000214886
0.000103831
0.000214601
0.000103845
0.000145087
0.00014506
0.000203885
0.000214865
0.000103826
0.000214575
0.000103805
0.000145077
0.000100041
5.07921e-05
5.07799e-05
0.000100022
0.000100026
5.07886e-05
5.0774e-05
0.000100012
2.39067e-05
2.39091e-05
2.39055e-05
2.39079e-05
0.00018403
7.79348e-05
7.79235e-05
7.7839e-05
7.78245e-05
2.39177e-05
2.39099e-05
2.39167e-05
2.39087e-05
2.39201e-05
2.39275e-05
2.39177e-05
2.39257e-05
7.79657e-05
7.79312e-05
0.000184892
7.82835e-05
7.82747e-05
2.39293e-05
2.39277e-05
2.39276e-05
2.3926e-05
0.000185017
7.83536e-05
7.83595e-05
7.83245e-05
7.83226e-05
0.000100214
5.07948e-05
0.000100056
5.08112e-05
0.000145348
0.000103857
0.000215228
0.00020471
0.000145125
0.000104168
0.000215571
0.000145341
0.000103877
0.00021523
0.000204695
0.000145125
0.000104116
0.000215571
0.000100262
5.08262e-05
5.08213e-05
0.000100377
0.000100251
5.08188e-05
5.08131e-05
0.000100366
0.000145399
0.000205089
0.000104362
0.000216394
0.000104232
0.000215972
0.000145722
0.00014539
0.000205036
0.00010427
0.000216374
0.000104159
0.000215963
0.000145706
7.79889e-05
7.79945e-05
0.000184861
7.81996e-05
7.822e-05
2.39191e-05
2.39255e-05
2.39265e-05
2.39243e-05
0.000184938
7.82444e-05
7.82704e-05
7.82257e-05
7.82482e-05
2.39281e-05
2.39258e-05
0.000145312
0.000103835
0.000215217
0.000204711
0.000145106
0.000104145
0.000215554
0.000100195
5.07893e-05
0.000100032
5.081e-05
0.000145307
0.000215209
0.000103824
0.000204669
0.000145103
0.000215546
0.000104129
0.000100252
5.08229e-05
5.08173e-05
0.000100401
0.00014537
0.000205093
0.000104369
0.000216391
0.000104217
0.000215957
0.000145739
0.000100247
5.08189e-05
5.08129e-05
0.000100398
0.000145365
0.000205052
0.000216385
0.000104351
0.00021595
0.000104198
0.000145735
0.000100224
5.07966e-05
0.000100044
5.08134e-05
0.000145369
0.000215207
0.000103878
0.000204733
0.000145111
0.000215569
0.00010421
0.000100239
5.07947e-05
0.000100052
5.0812e-05
0.000145407
0.000205071
0.0001043
0.000216387
0.00010418
0.000215975
0.000145719
0.000100262
5.08213e-05
5.08153e-05
0.00010037
0.000145421
0.000205119
0.00021641
0.000104343
0.000215984
0.000104259
0.00014573
0.000100276
5.08177e-05
5.08139e-05
0.000100376
7.79271e-05
7.79702e-05
0.000184863
7.8259e-05
7.82897e-05
2.39194e-05
2.39268e-05
2.39267e-05
2.39249e-05
0.000184987
7.8338e-05
7.83508e-05
7.83047e-05
7.83276e-05
2.39286e-05
2.39271e-05
0.000145365
0.000215189
0.000103864
0.00020474
0.000145078
0.000215556
0.000104216
0.000100249
5.07973e-05
0.000100024
5.08163e-05
0.000100249
5.0794e-05
0.000100015
5.08119e-05
0.000145422
0.0002051
0.000216414
0.000104365
0.000215973
0.000104244
0.000145755
0.000145425
0.000205133
0.000216421
0.00010435
0.00021598
0.000104268
0.000145751
0.000100293
5.08229e-05
5.08187e-05
0.00010039
0.00010029
5.08167e-05
5.08138e-05
0.000100383
2.39191e-05
2.39254e-05
2.39183e-05
2.39246e-05
0.000185062
7.83338e-05
7.83391e-05
7.83312e-05
7.83374e-05
2.39267e-05
2.39255e-05
2.39256e-05
2.39246e-05
2.39287e-05
2.39285e-05
2.3927e-05
2.39266e-05
7.8333e-05
7.8342e-05
0.000185713
7.80694e-05
7.80777e-05
2.3932e-05
2.39282e-05
2.39295e-05
2.39261e-05
0.000185595
7.78717e-05
7.78567e-05
7.79772e-05
7.79783e-05
0.000100328
5.08187e-05
0.000100354
5.08186e-05
0.000145786
0.000104347
0.000216824
0.000206017
0.00014573
0.000104249
0.000217207
0.000145781
0.000104254
0.000216796
0.000205936
0.000145716
0.000104207
0.000217178
0.000100287
5.08238e-05
5.08214e-05
0.000100221
0.00010029
5.0823e-05
5.08184e-05
0.000100233
0.000145747
0.000206178
0.000104022
0.000217823
0.000104146
0.000217545
0.00014575
0.000145745
0.000206149
0.0001041
0.000217822
0.00010415
0.000217526
0.00014576
7.82266e-05
7.82565e-05
0.000185661
7.80818e-05
7.81221e-05
2.39279e-05
2.39292e-05
2.39323e-05
2.39277e-05
0.000185613
7.79912e-05
7.80218e-05
7.80338e-05
7.80725e-05
2.39335e-05
2.39292e-05
0.00014581
0.000104357
0.000216836
0.000206043
0.000145753
0.000104261
0.00021723
0.000100354
5.08186e-05
0.000100388
5.08156e-05
0.000145811
0.000216831
0.000104338
0.00020603
0.00014575
0.000217229
0.000104262
0.000100298
5.08168e-05
5.0816e-05
0.000100199
0.000145766
0.000206206
0.000104003
0.000217838
0.000104152
0.000217569
0.00014574
0.0001003
5.08147e-05
5.08136e-05
0.000100204
0.000145768
0.000206217
0.000217848
0.000104051
0.000217574
0.000104172
0.000145746
0.000100328
5.08211e-05
0.000100357
5.08206e-05
0.000145785
0.000216836
0.000104322
0.000205998
0.000145734
0.000217212
0.00010421
0.000100328
5.08172e-05
0.000100363
5.08149e-05
0.000145752
0.000206193
0.000104133
0.000217836
0.000104185
0.000217543
0.000145764
0.000100285
5.08248e-05
5.08204e-05
0.00010023
0.000145747
0.000206155
0.000217823
0.000104034
0.000217546
0.000104117
0.000145755
0.000100284
5.08179e-05
5.0814e-05
0.000100227
7.83218e-05
7.83282e-05
0.000185754
7.80984e-05
7.80856e-05
2.39281e-05
2.39281e-05
2.39291e-05
2.39258e-05
0.000185662
7.79223e-05
7.79296e-05
7.80191e-05
7.80099e-05
2.39316e-05
2.39278e-05
0.000145775
0.000216855
0.000104327
0.000206017
0.000145747
0.000217231
0.000104191
0.000100324
5.08223e-05
0.000100377
5.08186e-05
0.000100311
5.08158e-05
0.000100369
5.08112e-05
0.000145742
0.000206239
0.000217839
0.000104059
0.000217571
0.00010416
0.000145726
0.000145729
0.000206166
0.000217816
0.000104003
0.000217553
0.000104091
0.000145711
0.000100264
5.08204e-05
5.08173e-05
0.000100185
0.000100248
5.08145e-05
5.08101e-05
0.000100169
2.39261e-05
2.39263e-05
2.39249e-05
2.39249e-05
0.000185564
7.78994e-05
7.78758e-05
7.79661e-05
7.79425e-05
2.39308e-05
2.39262e-05
2.39296e-05
2.39247e-05
2.39333e-05
2.39435e-05
2.39307e-05
2.3941e-05
7.78667e-05
7.78491e-05
0.000186098
7.82295e-05
7.81856e-05
2.39479e-05
2.39446e-05
2.39461e-05
2.39422e-05
0.000186234
7.85728e-05
7.85559e-05
7.83616e-05
7.83245e-05
0.000100271
5.08255e-05
0.000100215
5.0844e-05
0.000145813
0.000103999
0.000218095
0.000206693
0.000145718
0.000104173
0.000218375
0.000145826
0.000104086
0.000218113
0.000206806
0.000145729
0.000104263
0.000218404
0.000100307
5.08651e-05
5.08538e-05
0.000100532
0.00010031
5.08554e-05
5.08474e-05
0.000100515
0.000145851
0.000207051
0.000104634
0.000219096
0.000104291
0.000218721
0.000146217
0.000145861
0.000207128
0.000104529
0.000219107
0.000104331
0.000218748
0.000146204
7.79983e-05
7.8022e-05
0.000186291
7.82784e-05
7.8276e-05
2.39345e-05
2.39419e-05
2.39434e-05
2.39414e-05
0.000186372
7.84219e-05
7.84227e-05
7.83417e-05
7.83381e-05
2.39446e-05
2.39424e-05
0.000145755
0.000103975
0.000218095
0.000206693
0.000145698
0.000104114
0.000218355
0.000100199
5.08168e-05
0.000100172
5.08359e-05
0.000145757
0.000218108
0.000104023
0.000206695
0.000145704