/*--------------------------------*- C++ -*----------------------------------*\
| =========                 |                                                 |
| \\      /  F ield         | OpenFOAM: The Open Source CFD Toolbox           |
|  \\    /   O peration     | Version:  2312                                  |
|   \\  /    A nd           | Website:  www.openfoam.com                      |
|    \\/     M anipulation  |                                                 |
\*---------------------------------------------------------------------------*/
FoamFile
{
    version     2.0;
    format      ascii;
    arch        "LSB;label=32;scalar=64";
    class       volScalarField;
    location    "875";
    object      p;
}
// * * * * * * * * * * * * * * * * * * * * * * * * * * * * * * * * * * * * * //

dimensions      [0 2 -2 0 0 0 0];

internalField   nonuniform List<scalar> 
43208
(
0.000715133
0.000715059
0.000715062
0.000717069
0.000679504
0.000679433
0.000679422
0.000681438
0.000643995
0.000643929
0.000643945
0.000645973
0.000608335
0.000608275
0.000608261
0.000610268
0.000572753
0.0005727
0.000572692
0.000574737
0.000537045
0.000536963
0.000536997
0.000538994
0.000501275
0.000501245
0.000501206
0.000503259
0.000465625
0.000465565
0.000465603
0.00046761
0.00042985
0.000429768
0.000429745
0.000431787
0.000394092
0.000394142
0.000394125
0.000396179
0.000358045
0.000357889
0.000357942
0.000359902
0.000322152
0.000322154
0.000322142
0.000324232
0.00028668
0.000286724
0.000286562
0.00028865
0.000249974
0.000249841
0.000250097
0.000252011
0.000214561
0.000214364
0.000214321
0.000216362
0.000178436
0.000178692
0.000178445
0.000180745
0.000142396
0.000142417
0.000142644
0.000144388
0.000105738
0.000105161
0.000105382
0.000107594
6.94451e-05
6.97544e-05
6.94127e-05
7.14538e-05
3.56251e-05
3.58885e-05
3.59578e-05
3.83903e-05
8.97543e-06
3.26612e-06
3.34214e-06
1.45474e-06
0.000721916
0.000723952
0.000723948
0.000721907
0.000723952
0.00072395
0.000723947
0.000723946
0.000721913
0.000723951
0.000723946
0.000721902
0.000717085
0.000686268
0.000715066
0.000715061
0.000688327
0.000688332
0.000717076
0.000686277
0.000715066
0.000715064
0.000688326
0.000688324
0.000715053
0.00068833
0.000688321
0.000717082
0.000686264
0.000715053
0.000688322
0.00068832
0.000686265
0.000681434
0.000650788
0.000679426
0.000679433
0.000652811
0.000652804
0.000681444
0.000650774
0.000679424
0.000679423
0.00065281
0.000652811
0.000679429
0.000652805
0.000652822
0.000681431
0.000650789
0.000679427
0.000652814
0.000652823
0.000650799
0.000645967
0.000615126
0.000643941
0.000643927
0.000617192
0.000617197
0.000645949
0.000615139
0.000643942
0.000643943
0.000617194
0.000617199
0.000643944
0.000617197
0.000617185
0.000645969
0.000615132
0.000643947
0.000617195
0.000617184
0.000615118
0.00061027
0.000579546
0.000608258
0.000608275
0.000581572
0.000581582
0.000610291
0.000579554
0.000608257
0.000608264
0.000581567
0.000581562
0.000608258
0.000581583
0.000581581
0.000610278
0.000579535
0.000608254
0.000581566
0.000581579
0.000579557
0.000574729
0.000543893
0.000572705
0.000572701
0.000545955
0.000545931
0.000574727
0.000543862
0.000572701
0.000572688
0.00054596
0.000545961
0.000572708
0.000545929
0.000545939
0.000574713
0.000543903
0.000572709
0.000545957
0.000545942
0.000543872
0.00053901
0.000508072
0.00053698
0.000536964
0.000510118
0.000510139
0.000538987
0.000508105
0.000536987
0.000537002
0.000510118
0.000510121
0.000536968
0.000510143
0.000510132
0.00053903
0.000508066
0.000536972
0.000510121
0.000510129
0.000508089
0.00050324
0.000472478
0.00050122
0.000501242
0.000474523
0.000474522
0.000503271
0.000472471
0.000501214
0.000501203
0.000474518
0.000474524
0.000501236
0.000474521
0.000474529
0.000503223
0.0004725
0.000501231
0.000474529
0.00047453
0.000472484
0.00046761
0.000436674
0.000465576
0.000465567
0.00043872
0.000438693
0.000467598
0.000436635
0.000465578
0.0004656
0.000438724
0.000438697
0.000465573
0.000438691
0.00043869
0.000467643
0.00043662
0.000465579
0.000438691
0.00043869
0.000436628
0.000431825
0.000400959
0.000429796
0.00042977
0.00040301
0.000403057
0.000431787
0.000401044
0.000429796
0.000429751
0.000403006
0.000403038
0.00042977
0.000403064
0.000403071
0.000431759
0.000401029
0.000429765
0.000403043
0.000403066
0.000401048
0.000396086
0.000364996
0.00039405
0.000394132
0.000367061
0.000367038
0.000396194
0.000364923
0.000394047
0.000394116
0.000367059
0.000367044
0.000394122
0.000367029
0.000366986
0.000396179
0.000364937
0.000394119
0.000367038
0.000366987
0.000364856
0.000360064
0.000328843
0.000358005
0.000357909
0.000330893
0.000330868
0.000359936
0.000328855
0.000358009
0.000357955
0.000330912
0.000330956
0.000357879
0.000330878
0.000330988
0.000359985
0.000328934
0.000357887
0.000330966
0.00033101
0.000329002
0.000324069
0.000293817
0.000322073
0.000322131
0.000295788
0.000295856
0.000324144
0.000293862
0.000322081
0.000322124
0.000295748
0.000295627
0.000322201
0.000295858
0.000295685
0.000324151
0.000293597
0.000322206
0.000295611
0.000295632
0.000293609
0.000288856
0.00025663
0.000286746
0.000286743
0.000258878
0.000258904
0.000288851
0.000256701
0.000286712
0.000286589
0.000258907
0.000259101
0.000286599
0.000258908
0.000259026
0.000288656
0.000256987
0.000286556
0.00025912
0.000259066
0.000256912
0.000251734
0.000221605
0.000249777
0.000249822
0.00022348
0.000223293
0.000251809
0.000221286
0.00024982
0.000250059
0.000223495
0.000223353
0.000249969
0.00022327
0.000223238
0.000252099
0.000221315
0.000250028
0.000223326
0.000223254
0.000221211
0.000216771
0.00018528
0.000214629
0.000214402
0.00018743
0.000187578
0.000216436
0.000185574
0.000214629
0.000214371
0.00018739
0.000187341
0.000214333
0.000187597
0.000187649
0.000216403
0.000185272
0.000214324
0.000187353
0.000187599
0.000185634
0.000180363
0.000149292
0.000178373
0.000178647
0.000151328
0.000151499
0.000180737
0.000149455
0.00017833
0.000178405
0.00015133
0.00015158
0.000178677
0.000151511
0.000151374
0.000180443
0.000149644
0.000178628
0.000151606
0.000151384
0.000149279
0.000144455
0.000113023
0.000142373
0.000142417
0.000115085
0.000114676
0.000144512
0.000112332
0.000142402
0.000142639
0.000115146
0.000114966
0.000142324
0.000114657
0.000114865
0.000144778
0.000112666
0.00014236
0.000114932
0.000114912
0.000112737
0.000107899
7.57878e-05
0.000105729
0.000105196
7.80244e-05
7.8219e-05
0.000107162
7.62194e-05
0.000105772
0.000105427
7.79738e-05
7.78938e-05
0.00010547
7.81768e-05
7.79961e-05
0.000107452
7.58405e-05
0.000105496
7.78809e-05
7.79606e-05
7.59099e-05
7.11551e-05
4.23796e-05
6.92492e-05
6.97484e-05
4.40302e-05
4.49158e-05
7.17897e-05
4.35198e-05
6.91792e-05
6.9389e-05
4.39838e-05
4.47629e-05
6.95228e-05
4.50688e-05
4.49442e-05
7.13853e-05
4.35026e-05
6.94692e-05
4.49033e-05
4.49044e-05
4.35016e-05
3.76958e-05
4.51111e-06
3.53864e-05
3.57413e-05
6.45908e-06
4.92679e-06
3.83102e-05
2.70817e-06
3.53612e-05
3.58215e-05
6.48962e-06
5.06431e-06
3.59194e-05
4.87212e-06
4.97911e-06
3.84061e-05
2.82222e-06
3.59083e-05
4.99441e-06
4.99553e-06
2.83064e-06
2.87788e-06
4.61142e-06
3.32821e-06
1.43113e-06
4.63336e-06
3.41624e-06
7.86506e-06
7.94267e-06
7.86336e-06
3.31886e-06
1.46953e-06
3.32886e-06
0.000739452
0.000739459
0.000739453
0.000739459
0.000724016
0.000724013
0.000724016
0.000724013
0.00073951
0.000741675
0.00073948
0.000741696
0.000703943
0.00071725
0.000717252
0.000703943
0.000717247
0.000703948
0.000703944
0.000717251
0.000717253
0.000703943
0.000715128
0.00071513
0.000715123
0.000688408
0.00068841
0.000688404
0.000688401
0.00070399
0.000717218
0.00071508
0.000706154
0.000717202
0.000703962
0.000706179
0.00071725
0.00070395
0.000703989
0.000715082
0.000717221
0.000706155
0.000717203
0.000706179
0.000703964
0.000717251
0.000717252
0.000704082
0.000703942
0.000703942
0.000668352
0.000681675
0.000681658
0.000668366
0.000681685
0.000668372
0.000668347
0.000681674
0.000681656
0.000668364
0.000679509
0.000679502
0.000679504
0.000652869
0.000652866
0.000652871
0.000652878
0.000668392
0.00068162
0.00067946
0.000670549
0.000681586
0.000668375
0.000670573
0.000681681
0.000668367
0.000668387
0.000679453
0.000681613
0.000670541
0.00068158
0.000670568
0.000668368
0.000681664
0.000681663
0.000668516
0.000668344
0.000668343
0.00063282
0.000646135
0.000646129
0.000632814
0.000646121
0.00063281
0.000632828
0.000646137
0.000646132
0.000632816
0.000643986
0.000643997
0.000643999
0.000617264
0.000617266
0.000617266
0.000617258
0.000632878
0.000646099
0.000643947
0.000635034
0.000646077
0.00063284
0.000635054
0.000646122
0.000632815
0.000632888
0.000643957
0.000646109
0.000635051
0.000646085
0.000635066
0.000632851
0.000646127
0.000646129
0.000632994
0.000632811
0.000632813
0.000597161
0.000610514
0.000610504
0.000597172
0.000610521
0.000597184
0.000597155
0.000610514
0.000610505
0.00059717
0.000608345
0.000608337
0.000608333
0.000581631
0.000581641
0.000581626
0.000581638
0.0005972
0.000610467
0.000608301
0.000599364
0.000610437
0.000597184
0.000599386
0.000610522
0.000597181
0.000597187
0.000608292
0.000610463
0.000599344
0.000610431
0.000599373
0.00059717
0.000610514
0.000610513
0.000597297
0.000597157
0.000597154
0.000561587
0.000574911
0.000574898
0.000561575
0.000574904
0.000561572
0.000561586
0.000574908
0.00057489
0.000561575
0.000572752
0.000572744
0.000572756
0.000546009
0.000545988
0.000546009
0.000545996
0.000561639
0.000574871
0.00057271
0.000563803
0.000574839
0.00056161
0.000563813
0.000574902
0.000561564
0.000561645
0.000572706
0.000574863
0.000563807
0.000574835
0.000563817
0.000561611
0.000574892
0.000574892
0.000561785
0.000561564
0.000561565
0.000525824
0.000539238
0.000539227
0.000525839
0.000539234
0.00052585
0.000525839
0.000539241
0.000539236
0.000525843
0.00053703
0.000537056
0.000537035
0.000510185
0.000510201
0.000510189
0.000510194
0.000525853
0.000539185
0.000536994
0.000528001
0.000539156
0.000525831
0.000528034
0.000539248
0.000525859
0.000525865
0.000537014
0.000539202
0.000528028
0.00053917
0.000528049
0.000525854
0.000539244
0.000539248
0.000525924
0.000525834
0.000525836
0.000490139
0.000503486
0.000503462
0.000490141
0.00050349
0.00049014
0.00049012
0.000503485
0.000503455
0.000490136
0.000501295
0.000501267
0.000501287
0.00047456
0.000474564
0.000474563
0.000474568
0.000490192
0.000503439
0.000501255
0.000492353
0.000503398
0.000490179
0.000492357
0.000503483
0.000490133
0.00049017
0.000501232
0.000503419
0.00049231
0.00050338
0.000492331
0.000490145
0.000503472
0.000503469
0.000490327
0.000490131
0.000490127
0.0004544
0.000467797
0.000467801
0.000454403
0.000467808
0.000454408
0.000454413
0.000467797
0.000467807
0.000454407
0.000465618
0.000465639
0.000465624
0.00043878
0.00043876
0.000438762
0.000438757
0.000454439
0.000467768
0.000465586
0.000456599
0.000467749
0.000454413
0.000456625
0.000467798
0.00045442
0.000454464
0.000465606
0.000467787
0.000456641
0.000467765
0.000456651
0.000454442
0.000467805
0.000467806
0.00045453
0.000454401
0.000454405
0.000418651
0.000432021
0.000432002
0.000418659
0.000432003
0.00041864
0.000418643
0.000432022
0.000432005
0.000418658
0.00042983
0.000429817
0.000429829
0.000403051
0.000403088
0.000403072
0.000403092
0.000418696
0.000431951
0.000429792
0.000420856
0.000431928
0.000418662
0.000420876
0.000432017
0.000418641
0.000418673
0.000429778
0.000431944
0.000420829
0.00043192
0.000420857
0.000418644
0.000431991
0.000431993
0.000418846
0.000418622
0.000418619
0.000382885
0.000396303
0.0003963
0.000382885
0.000396308
0.000382919
0.000382876
0.000396298
0.000396292
0.00038288
0.000394155
0.000394139
0.000394144
0.000367095
0.000367065
0.000367077
0.000367037
0.000382964
0.000396298
0.000394123
0.00038517
0.000396276
0.000382961
0.000385147
0.000396282
0.000382885
0.000382953
0.000394108
0.00039629
0.000385147
0.000396267
0.000385134
0.000382932
0.000396313
0.00039631
0.000383053
0.000382914
0.00038291
0.000346761
0.000360332
0.000360318
0.000346783
0.000360332
0.000346831
0.000346792
0.000360335
0.00036032
0.000346797
0.000357961
0.000358006
0.000357964
0.000330997
0.000330979
0.000331035
0.000331065
0.000346683
0.000360261
0.000357932
0.00034874
0.000360195
0.000346679
0.000348841
0.000360341
0.000346861
0.000346754
0.000357973
0.000360266
0.000348861
0.000360208
0.000348918
0.00034677
0.000360349
0.000360351
0.000346726
0.000346771
0.000346782
0.000311065
0.000324329
0.000324286
0.000311072
0.000324296
0.000311034
0.000311045
0.000324339
0.000324317
0.000311065
0.00032221
0.000322188
0.000322245
0.000295706
0.000295764
0.000295599
0.000295639
0.000311224
0.000324246
0.000322164
0.000313471
0.000324234
0.000311185
0.000313414
0.000324358
0.000311033
0.000311163
0.00032216
0.000324304
0.000313344
0.000324278
0.000313336
0.000311118
0.000324282
0.000324296
0.000311502
0.000311017
0.00031101
0.000275268
0.000288785
0.000288867
0.000275221
0.00028876
0.000275251
0.000275233
0.000288761
0.000288797
0.000275212
0.000286691
0.000286579
0.000286587
0.000259043
0.000259053
0.000259198
0.00025915
0.000275276
0.00028885
0.000286677
0.000277443
0.000288881
0.000275263
0.000277471
0.00028868
0.000275176
0.000275236
0.000286551
0.000288719
0.000277414
0.000288739
0.000277433
0.000275202
0.000288797
0.000288773
0.000275234
0.000275284
0.000275266
0.000238882
0.000252433
0.000252305
0.000238953
0.000252565
0.000238984
0.000238946
0.000252446
0.000252365
0.000238982
0.000249984
0.00025016
0.000250095
0.000223461
0.000223305
0.000223351
0.000223281
0.00023888
0.000252304
0.000249947
0.000240947
0.000252162
0.000238945
0.000240989
0.000252555
0.000239058
0.000239011
0.000250128
0.000252412
0.000241164
0.000252323
0.000241158
0.000239056
0.000252494
0.000252508
0.000239018
0.000238953
0.000238973
0.000203243
0.000216626
0.000216654
0.000203214
0.0002165
0.000203098
0.000203228
0.000216642
0.000216678
0.000203214
0.000214407
0.000214374
0.000214367
0.000187471
0.000187615
0.000187423
0.000187619
0.000203258
0.000216537
0.000214349
0.000205464
0.000216514
0.00020316
0.000205459
0.000216604
0.000203136
0.000203188
0.000214321
0.000216576
0.000205334
0.000216515
0.000205368
0.000203145
0.000216506
0.000216513
0.000203442
0.000203075
0.000203071
0.000167243
0.000180696
0.000180706
0.000167222
0.000180675
0.000167246
0.00016717
0.000180669
0.000180627
0.000167193
0.000178672
0.000178478
0.000178648
0.000151374
0.000151489
0.000151553
0.000151415
0.000167455
0.00018071
0.000178676
0.000169692
0.000180782
0.000167392
0.000169652
0.000180596
0.000167163
0.000167356
0.000178501
0.00018057
0.000169495
0.000180645
0.00016952
0.000167267
0.000180682
0.000180664
0.00016751
0.000167317
0.000167297
0.000131099
0.000144684
0.000144685
0.000131159
0.000144883
0.000131293
0.000131183
0.000144683
0.000144702
0.000131191
0.000142396
0.00014257
0.000142365
0.000115062
0.000114726
0.00011493
0.000114889
0.000131019
0.00014475
0.000142374
0.000133182
0.00014462
0.000131191
0.000133171
0.000144816
0.000131332
0.000131171
0.00014251
0.000144776
0.000133476
0.000144686
0.000133354
0.000131332
0.000144812
0.000144826
0.000131155
0.000131231
0.000131247
9.39868e-05
0.000107983
0.000107954
9.39776e-05
0.000107942
9.3729e-05
9.39944e-05
0.000108023
0.000108051
9.39873e-05
0.000105342
0.000105489
0.00010552
7.8222e-05
7.83606e-05
7.81111e-05
7.82015e-05
9.38988e-05
0.000107744
0.000105347
9.59113e-05
0.000107739
9.37596e-05
9.6146e-05
0.000107989
9.38554e-05
9.39046e-05
0.000105488
0.000107878
9.59229e-05
0.000107867
9.61782e-05
9.37858e-05
0.000107925
0.00010794
9.37599e-05
9.39377e-05
9.39306e-05
5.88998e-05
7.1575e-05
7.15524e-05
5.89335e-05
7.14495e-05
5.86882e-05
5.88042e-05
7.15705e-05
7.14763e-05
5.88978e-05
6.98627e-05
6.95688e-05
6.96752e-05
4.41907e-05
4.48329e-05
4.46869e-05
4.47954e-05
5.92349e-05
7.13816e-05
6.97034e-05
6.17563e-05
7.1537e-05
5.93326e-05
6.14691e-05
7.13633e-05
5.86392e-05
5.90716e-05
6.94668e-05
7.12399e-05
6.14214e-05
7.14202e-05
6.12474e-05
5.91575e-05
7.11841e-05
7.11649e-05
5.98486e-05
5.86873e-05
5.86697e-05
2.24968e-05
3.71579e-05
3.73812e-05
2.19859e-05
3.79719e-05
2.17781e-05
2.24595e-05
3.7138e-05
3.73471e-05
2.19469e-05
3.5916e-05
3.59334e-05
3.59756e-05
1.15648e-05
1.0435e-05
1.05005e-05
1.04322e-05
2.28498e-05
3.77572e-05
3.59603e-05
2.56969e-05
3.79593e-05
2.27345e-05
2.63437e-05
3.78648e-05
2.17003e-05
2.28801e-05
3.59396e-05
3.77469e-05
2.58452e-05
3.79487e-05
2.64289e-05
2.27152e-05
3.76253e-05
3.76233e-05
2.28441e-05
2.31372e-05
2.3122e-05
2.81677e-06
3.79663e-06
2.78111e-06
-1.16959e-06
1.61076e-06
-4.95318e-06
2.76152e-06
3.76205e-06
2.7704e-06
-1.19126e-06
1.65951e-06
7.93746e-06
7.99429e-06
3.80557e-06
6.24775e-06
2.91356e-06
2.94858e-06
1.34009e-06
1.9718e-06
2.57788e-06
1.11905e-06
2.86262e-06
4.25056e-06
2.17456e-07
1.34245e-06
-5.13333e-06
1.29535e-06
2.6641e-06
1.87852e-06
1.11889e-06
2.87825e-06
2.35516e-07
4.18383e-06
-7.19212e-07
-7.38345e-07
2.35832e-07
2.34924e-06
2.35816e-06
0.000739457
0.000739458
0.00073964
0.000739436
0.000739436
0.00072171
0.000734992
0.000721711
0.000734994
0.000734833
0.000721708
0.000721708
0.000734987
0.000734986
0.000739452
0.000739458
0.000739501
0.000741668
0.000739477
0.000741689
0.000739502
0.000741672
0.000739479
0.00074169
0.000734992
0.000721714
0.000735001
0.000721722
0.000734992
0.000721713
0.000734999
0.000721722
0.000734939
0.000732817
0.000721751
0.000723969
0.000734964
0.000732834
0.000721785
0.000734939
0.000732817
0.000721747
0.000723967
0.000734964
0.000732833
0.000721784
0.000739645
0.000739437
0.000739438
0.000739455
0.000721711
0.000734989
0.000734833
0.000721707
0.000721707
0.000734987
0.000734989
0.000721711
0.000734992
0.000741667
0.000739475
0.000734992
0.000721715
0.000735002
0.000721723
0.000734938
0.000732816
0.000721751
0.000723968
0.000734963
0.000732833
0.000721784
0.000734993
0.000721716
0.000735002
0.000721723
0.000734938
0.000732818
0.000723968
0.00072175
0.000732833
0.000734964
0.000721784
0.000739457
0.000739459
0.000739511
0.000741699
0.000739457
0.000734945
0.000732818
0.000721746
0.000723966
0.000734966
0.000732837
0.000721781
0.000734995
0.000721714
0.000735001
0.000721721
0.000734945
0.000732821
0.000723966
0.000721746
0.000732838
0.000734969
0.00072178
0.000734996
0.000721715
0.000735003
0.00072172
0.000721713
0.000734993
0.000734835
0.000721709
0.000721709
0.000734988
0.00073499
0.000721714
0.000734993
0.000734947
0.000732821
0.000723969
0.000721749
0.000732839
0.000734967
0.000721783
0.000734948
0.000732822
0.000723967
0.000721747
0.00073284
0.00073497
0.000721782
0.000734997
0.000721716
0.000735002
0.000721722
0.000734997
0.000721715
0.000735003
0.000721722
0.000734839
0.00072171
0.00072171
0.000734995
0.000734995
0.000721716
0.000734996
0.000721716
0.000734995
0.000717247
0.00070395
0.000717248
0.00070395
0.00071725
0.000717251
0.000704102
0.000703944
0.000703944
0.000686158
0.000699476
0.000686157
0.000699476
0.000699256
0.000686139
0.000686139
0.000699478
0.000699479
0.000703942
0.000717248
0.000717251
0.000703942
0.000703997
0.000717224
0.000715086
0.000706161
0.000717208
0.000703966
0.000706186
0.000703996
0.00071722
0.000715084
0.000706156
0.000717207
0.000703964
0.000706185
0.000699462
0.000686147
0.000699471
0.000686139
0.000699462
0.00068615
0.000699471
0.000686139
0.000699404
0.000697243
0.000686152
0.000688362
0.000699428
0.000697274
0.000686175
0.000699403
0.000697243
0.000686156
0.000688363
0.000699427
0.000697274
0.000686176
0.000717248
0.000717248
0.000704098
0.000703941
0.00070394
0.000717247
0.000703948
0.00068616
0.000699476
0.000699255
0.00068614
0.000686139
0.000699475
0.000699475
0.000686159
0.000699475
0.000703999
0.000717224
0.000715087
0.000706161
0.000717209
0.000703967
0.000706187
0.000703944
0.000717252
0.000717253
0.000703944
0.000703999
0.000715086
0.000717223
0.000706159
0.000717208
0.000706186
0.000703967
0.000699463
0.000686146
0.000699471
0.000686138
0.000699406
0.000697243
0.000686152
0.000688361
0.000699429
0.000697275
0.000686174
0.000699463
0.000686146
0.000699472
0.000686137
0.000699405
0.00069724
0.00068836
0.000686151
0.000697274
0.000699429
0.000686174
0.000703939
0.000717249
0.000717248
0.000703941
0.000703988
0.000715078
0.000717218
0.000706144
0.000717201
0.000706175
0.000703959
0.000703938
0.00071725
0.000717249
0.00070394
0.000699398
0.000697241
0.000686155
0.00068836
0.000699426
0.000697269
0.000686173
0.000699458
0.000686149
0.00069947
0.000686138
0.000699396
0.000697229
0.000688357
0.000686148
0.000697265
0.000699422
0.000686172
0.000699458
0.000686145
0.000699467
0.000686136
0.000717252
0.000717251
0.000704098
0.000703944
0.000703943
0.00071725
0.000703949
0.000686156
0.000699476
0.000699251
0.000686138
0.000686137
0.000699479
0.000699477
0.000686156
0.000699475
0.000703988
0.000715079
0.000717218
0.000706144
0.000717202
0.000706175
0.000703959
0.000703939
0.000717252
0.00071725
0.000703943
0.000703939
0.000717251
0.000717249
0.00070394
0.000699396
0.000697237
0.000688355
0.000686149
0.000697266
0.000699426
0.000686168
0.000699395
0.000697228
0.000688354
0.000686146
0.000697264
0.000699421
0.000686168
0.000699458
0.000686144
0.00069947
0.000686134
0.000699457
0.000686144
0.000699467
0.000686134
0.000717252
0.000703947
0.000717252
0.000703947
0.000699239
0.000686133
0.000686132
0.000699473
0.000699473
0.000686154
0.000699472
0.000686154
0.000699472
0.000681683
0.00066837
0.000681682
0.000668368
0.000681668
0.000681668
0.000668503
0.000668343
0.000668342
0.000650597
0.000663901
0.0006506
0.0006639
0.000663687
0.000650585
0.000650586
0.000663883
0.00066388
0.000668353
0.000681678
0.000681659
0.000668368
0.000668388
0.000681616
0.000679458
0.000670542
0.000681586
0.00066837
0.000670569
0.000668389
0.000681621
0.000679461
0.000670548
0.000681587
0.000668375
0.000670571
0.000663882
0.000650604
0.000663902
0.000650599
0.000663882
0.0006506
0.000663903
0.000650599
0.000663814
0.000661673
0.000650628
0.000652823
0.000663847
0.000661693
0.000650646
0.000663814
0.000661673
0.000650624
0.00065282
0.000663851
0.000661693
0.000650646
0.000681671
0.000681671
0.00066851
0.000668349
0.000668349
0.000681684
0.000668372
0.000650595
0.000663903
0.00066369
0.000650586
0.000650587
0.000663887
0.000663888
0.000650596
0.000663904
0.000668383
0.000681615
0.000679456
0.00067054
0.000681584
0.000668366
0.000670566
0.000668347
0.000681673
0.000681656
0.000668363
0.000668383
0.000679455
0.000681614
0.00067054
0.000681583
0.000670565
0.000668366
0.000663877
0.000650605
0.0006639
0.000650599
0.000663808
0.000661671
0.000650628
0.000652823
0.000663844
0.000661691
0.000650646
0.000663877
0.000650604
0.000663899
0.000650599
0.000663808
0.000661671
0.000652823
0.000650628
0.000661691
0.000663844
0.000650646
0.000668355
0.000681678
0.000681658
0.000668368
0.000668392
0.000679458
0.000681615
0.000670551
0.000681585
0.000670574
0.000668375
0.000668354
0.000681674
0.000681657
0.000668368
0.000663818
0.000661675
0.000650625
0.000652824
0.000663852
0.000661696
0.00065065
0.000663884
0.0006506
0.000663904
0.000650601
0.000663818
0.000661685
0.000652829
0.000650634
0.0006617
0.000663853
0.000650651
0.000663885
0.000650604
0.000663906
0.000650602
0.000681667
0.000681666
0.000668502
0.00066834
0.000668342
0.00068168
0.000668368
0.000650599
0.000663899
0.000663687
0.000650585
0.000650587
0.000663881
0.000663882
0.000650597
0.0006639
0.000668388
0.000679455
0.000681613
0.000670549
0.00068158
0.000670571
0.000668374
0.000668351
0.000681672
0.000681653
0.000668364
0.000668352
0.000681672
0.000681653
0.000668367
0.000663815
0.000661674
0.000652829
0.000650632
0.000661696
0.000663847
0.000650655
0.000663816
0.000661685
0.000652832
0.000650636
0.000661699
0.000663853
0.000650657
0.000663882
0.000650605
0.000663901
0.000650605
0.000663882
0.000650605
0.000663905
0.000650606
0.000681679
0.000668371
0.000681679
0.00066837
0.000663703
0.000650588
0.00065059
0.000663884
0.000663883
0.000650594
0.000663904
0.000650594
0.000663904
0.000646121
0.000632814
0.000646123
0.000632815
0.000646125
0.000646127
0.000633006
0.000632811
0.000632813
0.000615004
0.000628341
0.000615006
0.000628343
0.000628153
0.000615001
0.000615003
0.000628343
0.000628346
0.000632819
0.00064613
0.000646129
0.000632809
0.00063288
0.000646105
0.000643949
0.000635047
0.000646075
0.000632849
0.000635059
0.000632878
0.000646098
0.000643944
0.000635034
0.000646073
0.00063284
0.000635054
0.000628335
0.000614997
0.000628339
0.000614993
0.000628335
0.000614998
0.000628335
0.000614993
0.000628288
0.000626128
0.000615014
0.000617222
0.000628308
0.000626148
0.000615038
0.000628286
0.000626121
0.000615013
0.000617224
0.0006283
0.000626146
0.000615038
0.000646124
0.000646125
0.000632987
0.000632804
0.000632804
0.000646121
0.000632809
0.000615002
0.000628336
0.000628142
0.000614993
0.000614993
0.000628335
0.000628335
0.000615002
0.000628335
0.00063289
0.000646107
0.000643952
0.00063505
0.000646077
0.000632854
0.000635065
0.000632827
0.000646137
0.000646132
0.000632816
0.00063289
0.000643952
0.000646107
0.000635051
0.000646077
0.000635065
0.000632853
0.000628343
0.000614998
0.000628341
0.000614996
0.000628298
0.000626132
0.000615015
0.000617226
0.000628312
0.000626154
0.000615042
0.000628343
0.000614999
0.000628341
0.000614996
0.000628298
0.000626134
0.000617227
0.000615016
0.000626155
0.000628312
0.000615042
0.000632818
0.00064613
0.00064613
0.000632808
0.000632878
0.000643952
0.000646108
0.000635043
0.000646078
0.000635057
0.000632845
0.000632818
0.000646134
0.00064613
0.000632812
0.000628284
0.000626121
0.000615012
0.000617223
0.0006283
0.000626145
0.000615036
0.000628333
0.000614997
0.000628334
0.000614992
0.000628285
0.00062612
0.000617219
0.000615008
0.000626144
0.000628303
0.000615035
0.000628333
0.000614994
0.000628337
0.000614992
0.000646127
0.000646127
0.000633007
0.000632812
0.000632812
0.000646122
0.000632817
0.000615005
0.000628342
0.000628156
0.000615
0.000614998
0.000628345
0.000628344
0.000615004
0.000628343
0.000632887
0.000643958
0.000646111
0.000635046
0.000646086
0.000635064
0.000632848
0.000632825
0.000646137
0.000646136
0.000632816
0.000632825
0.000646135
0.000646136
0.000632814
0.000628292
0.000626131
0.000617222
0.000615013
0.000626151
0.000628309
0.000615034
0.000628291
0.000626121
0.000617218
0.000615007
0.000626148
0.000628305
0.000615033
0.000628339
0.000614998
0.000628341
0.000614992
0.000628338
0.000614995
0.000628339
0.000614992
0.000646121
0.000632815
0.000646121
0.000632817
0.000628141
0.000614995
0.000614994
0.000628344
0.000628345
0.000615002
0.000628341
0.000615002
0.000628343
0.000610521
0.000597182
0.000610521
0.000597181
0.000610519
0.00061052
0.000597284
0.000597156
0.000597153
0.000579379
0.000592702
0.000579377
0.0005927
0.000592457
0.00057935
0.000579346
0.000592682
0.00059268
0.000597162
0.000610517
0.000610504
0.000597178
0.000597195
0.000610465
0.000608295
0.000599341
0.000610437
0.000597169
0.000599378
0.000597198
0.000610467
0.000608301
0.000599363
0.000610438
0.000597183
0.000599385
0.000592678
0.000579379
0.000592697
0.00057937
0.000592679
0.000579385
0.000592703
0.000579371
0.000592607
0.000590448
0.000579391
0.000581592
0.000592634
0.000590477
0.000579413
0.00059261
0.000590467
0.000579399
0.000581595
0.000592647
0.000590484
0.000579414
0.000610514
0.000610515
0.000597318
0.000597161
0.000597161
0.000610521
0.000597185
0.000579384
0.000592705
0.000592485
0.000579362
0.000579362
0.000592689
0.00059269
0.000579386
0.000592707
0.000597186
0.000610465
0.000608294
0.000599338
0.000610437
0.000597165
0.000599372
0.000597155
0.000610516
0.000610505
0.000597171
0.000597187
0.000608296
0.000610467
0.000599344
0.000610438
0.000599374
0.00059717
0.00059267
0.000579376
0.000592695
0.000579361
0.000592595
0.000590444
0.000579385
0.000581583
0.000592629
0.000590468
0.000579401
0.000592671
0.000579375
0.000592695
0.00057936
0.000592596
0.000590445
0.000581581
0.000579385
0.000590469
0.000592633
0.000579401
0.000597165
0.000610517
0.000610504
0.000597179
0.000597198
0.000608295
0.000610461
0.000599348
0.000610435
0.000599381
0.000597175
0.000597164
0.000610513
0.000610503
0.000597176
0.000592613
0.000590468
0.000579399
0.000581597
0.000592649
0.000590486
0.000579417
0.000592683
0.000579386
0.000592705
0.000579374
0.000592611
0.000590458
0.000581596
0.000579399
0.000590483
0.000592642
0.000579417
0.000592682
0.000579385
0.000592702
0.000579374
0.000610519
0.000610517
0.000597292
0.000597155
0.000597155
0.000610522
0.000597181
0.000579376
0.0005927
0.00059246
0.000579349
0.000579352
0.000592681
0.000592682
0.000579377
0.0005927
0.000597187
0.00060829
0.000610458
0.000599344
0.00061043
0.000599373
0.000597171
0.000597155
0.000610515
0.000610501
0.000597171
0.000597156
0.000610512
0.0006105
0.000597173
0.0005926
0.000590448
0.000581586
0.00057939
0.000590472
0.000592635
0.00057941
0.0005926
0.000590455
0.000581591
0.000579397
0.000590475
0.000592638
0.000579412
0.000592672
0.000579376
0.000592696
0.000579368
0.000592672
0.000579382
0.000592699
0.000579369
0.000610522
0.000597184
0.000610521
0.000597182
0.000592472
0.000579358
0.000579357
0.000592686
0.000592683
0.000579384
0.000592705
0.000579382
0.000592703
0.000574904
0.000561562
0.000574904
0.000561561
0.000574884
0.000574882
0.0005618
0.000561562
0.000561562
0.000543738
0.000557085
0.00054374
0.000557084
0.000556949
0.000543738
0.000543739
0.00055709
0.000557091
0.000561586
0.000574912
0.000574898
0.000561575
0.000561645
0.000574866
0.000572712
0.000563825
0.000574837
0.00056162
0.000563823
0.000561643
0.000574871
0.00057271
0.000563805
0.000574838
0.000561612
0.000563816
0.0005571
0.000543733
0.000557094
0.000543731
0.000557099
0.000543726
0.000557094
0.000543729
0.000557056
0.000554908
0.000543761
0.000545966
0.000557076
0.000554909
0.000543783
0.000557053
0.000554881
0.000543749
0.000545957
0.000557067
0.0005549
0.00054378
0.000574896
0.000574897
0.000561765
0.000561568
0.000561568
0.000574907
0.000561571
0.000543732
0.000557093
0.000556911
0.000543731
0.000543729
0.000557095
0.000557094
0.000543729
0.000557092
0.000561644
0.000574862
0.000572705
0.000563823
0.000574827
0.000561619
0.00056382
0.000561585
0.000574905
0.000574888
0.000561573
0.000561641
0.000572701
0.000574859
0.000563805