/*--------------------------------*- C++ -*----------------------------------*\
| =========                 |                                                 |
| \\      /  F ield         | OpenFOAM: The Open Source CFD Toolbox           |
|  \\    /   O peration     | Version:  2312                                  |
|   \\  /    A nd           | Website:  www.openfoam.com                      |
|    \\/     M anipulation  |                                                 |
\*---------------------------------------------------------------------------*/
FoamFile
{
    version     2.0;
    format      ascii;
    arch        "LSB;label=32;scalar=64";
    class       surfaceScalarField;
    location    "875";
    object      phi;
}
// * * * * * * * * * * * * * * * * * * * * * * * * * * * * * * * * * * * * * //

dimensions      [0 3 -1 0 0 0 0];

oriented        oriented;

internalField   nonuniform List<scalar> 
125400
(
1.2033e-07
1.21029e-07
-0.0011838
-7.55551e-08
-7.5664e-08
0.00118371
-0.00113207
-1.1859e-06
-1.22055e-07
-5.14021e-08
0.00113206
-2.06843e-07
1.22795e-06
2.42626e-07
8.84039e-07
-1.80628e-07
-8.25712e-07
2.33196e-07
-0.00113193
-1.18359e-06
-1.20359e-07
-4.41682e-08
0.00113191
-2.04766e-07
1.22467e-06
2.39077e-07
8.83884e-07
-1.80733e-07
-8.25774e-07
2.33022e-07
-0.000270047
1.21471e-06
1.17762e-06
-1.94144e-07
-1.96981e-07
0.000268046
1.34549e-07
1.34583e-07
-0.00118344
-8.59294e-08
-8.56174e-08
0.00118334
-0.001132
-1.18273e-06
-1.34408e-07
-5.86247e-08
0.00113199
-2.03644e-07
1.23025e-06
2.4471e-07
8.85599e-07
-1.79951e-07
-8.24538e-07
2.34537e-07
-0.00113186
-1.17924e-06
-1.36971e-07
-5.62513e-08
0.00113185
-1.99626e-07
1.22839e-06
2.43336e-07
8.85692e-07
-1.80025e-07
-8.24482e-07
2.34639e-07
-0.000270066
1.20997e-06
1.17349e-06
-1.9081e-07
-1.93156e-07
0.000268067
1.25888e-07
1.26831e-07
-0.00118305
-8.16321e-08
-8.15361e-08
0.00118296
-0.00113193
-1.18526e-06
-1.27674e-07
-5.55225e-08
0.00113192
-2.07007e-07
1.22758e-06
2.41834e-07
8.84704e-07
-1.79198e-07
-8.24537e-07
2.34189e-07
-0.0011318
-1.18338e-06
-1.25058e-07
-4.60997e-08
0.00113178
-2.05758e-07
1.22369e-06
2.37418e-07
8.84769e-07
-1.78775e-07
-8.24244e-07
2.34335e-07
-0.000270077
1.21653e-06
1.17919e-06
-1.95309e-07
-1.98345e-07
0.000268075
1.32649e-07
1.30571e-07
-0.0011827
-8.51953e-08
-8.74162e-08
0.00118261
-0.00113188
-1.18248e-06
-1.32033e-07
-5.98218e-08
0.00113187
-2.02896e-07
1.23018e-06
2.4536e-07
8.8417e-07
-1.80984e-07
-8.25688e-07
2.33089e-07
-0.00113174
-1.1798e-06
-1.32185e-07
-5.44972e-08
0.00113172
-1.99541e-07
1.22762e-06
2.43387e-07
8.8369e-07
-1.81843e-07
-8.26198e-07
2.32356e-07
-0.00027009
1.20956e-06
1.17284e-06
-1.90731e-07
-1.93246e-07
0.000268092
1.3147e-07
1.36791e-07
-0.00118232
-9.09789e-08
-8.59416e-08
0.00118223
-0.00113181
-1.18614e-06
-1.29168e-07
-5.01176e-08
0.0011318
-2.09031e-07
1.22564e-06
2.38917e-07
8.85637e-07
-1.77977e-07
-8.23284e-07
2.35107e-07
-0.00113168
-1.18166e-06
-1.33052e-07
-5.14297e-08
0.00113167
-2.04615e-07
1.22456e-06
2.37697e-07
8.85878e-07
-1.77306e-07
-8.22875e-07
2.35824e-07
-0.00027011
1.21503e-06
1.17869e-06
-1.94875e-07
-1.97144e-07
0.000268109
1.20781e-07
1.1717e-07
-0.00118198
-7.63035e-08
-8.0791e-08
0.0011819
-0.00113177
-1.18339e-06
-1.28414e-07
-6.26289e-08
0.00113178
-2.02944e-07
1.22987e-06
2.464e-07
8.80759e-07
-1.84358e-07
-8.28781e-07
2.29194e-07
-0.00113164
-1.1834e-06
-1.22483e-07
-4.53427e-08
0.00113163
-2.0448e-07
1.22372e-06
2.38775e-07
8.81149e-07
-1.83473e-07
-8.28107e-07
2.29765e-07
-0.00027012
1.21358e-06
1.17561e-06
-1.93896e-07
-1.97365e-07
0.000268122
1.43615e-07
1.4199e-07
-0.00118164
-9.60021e-08
-9.77272e-08
0.00118154
-0.00113175
-1.18343e-06
-1.3647e-07
-5.65812e-08
0.00113175
-2.06483e-07
1.22743e-06
2.39888e-07
8.86745e-07
-1.77622e-07
-8.22832e-07
2.36225e-07
-0.00113161
-1.17858e-06
-1.40693e-07
-6.00624e-08
0.0011316
-1.99592e-07
1.22783e-06
2.42538e-07
8.85685e-07
-1.79505e-07
-8.24059e-07
2.34699e-07
-0.000270155
1.2108e-06
1.17456e-06
-1.91653e-07
-1.93866e-07
0.000268155
1.18185e-07
1.24523e-07
-0.0011813
-8.56123e-08
-7.99762e-08
0.00118122
-0.00113171
-1.1862e-06
-1.20258e-07
-5.37956e-08
0.00113171
-2.06783e-07
1.22678e-06
2.4258e-07
8.80883e-07
-1.83642e-07
-8.28374e-07
2.29494e-07
-0.00113158
-1.18511e-06
-1.17123e-07
-4.25723e-08
0.00113157
-2.07459e-07
1.22146e-06
2.35334e-07
8.81788e-07
-1.81818e-07
-8.27225e-07
2.30815e-07
-0.000270165
1.2162e-06
1.1791e-06
-1.96215e-07
-1.98997e-07
0.000268165
1.34735e-07
1.3004e-07
-0.00118096
-8.40582e-08
-8.88624e-08
0.00118087
-0.00113168
-1.18129e-06
-1.40896e-07
-6.49231e-08
0.00113168
-2.02603e-07
1.23024e-06
2.44948e-07
8.85993e-07
-1.78657e-07
-8.23909e-07
2.35337e-07
-0.00113154
-1.17713e-06
-1.41738e-07
-6.26175e-08
0.00113153
-1.96472e-07
1.22939e-06
2.45622e-07
8.85051e-07
-1.80527e-07
-8.2526e-07
2.34203e-07
-0.000270192
1.20898e-06
1.17194e-06
-1.89268e-07
-1.9215e-07
0.000268193
1.20353e-07
1.2253e-07
-0.00118062
-8.64512e-08
-8.3238e-08
0.00118055
-0.00113163
-1.19024e-06
-1.0921e-07
-3.96986e-08
0.00113162
-2.14333e-07
1.22069e-06
2.32013e-07
8.83417e-07
-1.7966e-07
-8.26007e-07
2.33152e-07
-0.0011315
-1.18874e-06
-1.12113e-07
-3.43476e-08
0.0011315
-2.13056e-07
1.21714e-06
2.29018e-07
8.83069e-07
-1.79718e-07
-8.25788e-07
2.32423e-07
-0.000270197
1.22138e-06
1.18559e-06
-2.01003e-07
-2.0275e-07
0.000268194
1.01455e-07
1.05423e-07
-0.00118036
-7.56471e-08
-7.44465e-08
0.0011803
-0.00113163
-1.18866e-06
-1.09587e-07
-5.22494e-08
0.00113167
-2.0441e-07
1.22899e-06
2.52144e-07
8.68297e-07
-2.0085e-07
-8.41906e-07
2.122e-07
-0.00113151
-1.18269e-06
-1.14283e-07
-4.77069e-08
0.00113152
-1.99795e-07
1.22658e-06
2.46052e-07
8.72399e-07
-1.9508e-07
-8.37923e-07
2.18957e-07
-0.000270233
1.20727e-06
1.16968e-06
-1.91244e-07
-1.94198e-07
0.000268242
1.84208e-07
1.64051e-07
-0.00118003
-1.01318e-07
-1.22745e-07
0.00117991
-0.00113172
-1.16739e-06
-1.91078e-07
-1.08352e-07
0.0011317
-1.90256e-07
1.23868e-06
2.45637e-07
9.03448e-07
-1.60647e-07
-8.088e-07
2.5728e-07
-0.00113153
-1.17413e-06
-1.52728e-07
-7.41447e-08
0.00113152
-1.96261e-07
1.22986e-06
2.40786e-07
8.91801e-07
-1.72878e-07
-8.19395e-07
2.43066e-07
-0.000270293
1.21614e-06
1.17395e-06
-1.87666e-07
-1.9529e-07
0.000268286
1.3998e-08
5.42299e-08
-0.00117968
-5.08596e-08
-5.71297e-09
0.00117967
-0.00113156
-1.21799e-06
-1.50106e-08
4.79866e-08
0.00113154
-2.4063e-07
1.19937e-06
2.1626e-07
8.60896e-07
-1.99314e-07
-8.4531e-07
2.08288e-07
-0.00113147
-1.1987e-06
-8.47843e-08
-1.4727e-08
0.00113148
-2.20353e-07
1.21069e-06
2.26798e-07
8.74006e-07
-1.88894e-07
-8.34222e-07
2.2186e-07
-0.000270239
1.22112e-06
1.1974e-06
-2.12997e-07
-2.04752e-07
0.000268239
2.1994e-07
1.9275e-07
-0.00117954
-1.32932e-07
-1.62698e-07
0.00117942
-0.00113158
-1.16236e-06
-1.78645e-07
-1.34734e-07
0.00113164
-1.83217e-07
1.24664e-06
2.58442e-07
8.84068e-07
-1.85737e-07
-8.28724e-07
2.31406e-07
-0.0011315
-1.17107e-06
-1.33552e-07
-7.19854e-08
0.0011315
-1.92402e-07
1.23316e-06
2.45061e-07
8.8079e-07
-1.84563e-07
-8.30293e-07
2.30424e-07
-0.000270315
1.21002e-06
1.16166e-06
-1.8454e-07
-1.96291e-07
0.000268324
6.53953e-08
4.44834e-08
-0.00117913
-1.49785e-08
-4.15367e-08
0.00117908
-0.00113172
-1.19577e-06
-1.3218e-07
-2.81202e-08
0.00113173
-2.16277e-07
1.21745e-06
2.34331e-07
8.8352e-07
-1.78756e-07
-8.25491e-07
2.3263e-07
-0.00113146
-1.19834e-06
-1.04885e-07
-2.95079e-09
0.00113147
-2.19637e-07
1.21012e-06
2.26967e-07
8.76366e-07
-1.88063e-07
-8.32077e-07
2.2275e-07
-0.000270368
1.21575e-06
1.17444e-06
-1.90276e-07
-1.96958e-07
0.000268365
9.65902e-08
1.41016e-07
-0.00117888
-1.05111e-07
-5.31808e-08
0.0011788
-0.00113162
-1.18954e-06
-7.80128e-08
-3.5868e-08
0.00113158
-2.14049e-07
1.21971e-06
2.2824e-07
8.81704e-07
-1.75903e-07
-8.26548e-07
2.34773e-07
-0.00113152
-1.16706e-06
-1.45697e-07
-1.21743e-07
0.00113152
-1.85319e-07
1.23965e-06
2.54743e-07
8.86112e-07
-1.75353e-07
-8.23801e-07
2.38265e-07
-0.000270331
1.22441e-06
1.20185e-06
-2.12212e-07
-2.0363e-07
0.000268321
1.48469e-07
1.50616e-07
-0.00117866
-1.25577e-07
-1.22178e-07
0.0011786
-0.00113145
-1.19977e-06
-6.03722e-08
-6.2521e-10
0.00113146
-2.21755e-07
1.21024e-06
2.20994e-07
8.65474e-07
-1.93898e-07
-8.39585e-07
2.09351e-07
-0.00113144
-1.20452e-06
-5.5346e-08
3.68055e-08
0.0011314
-2.32489e-07
1.1977e-06
2.02269e-07
8.77142e-07
-1.78811e-07
-8.27581e-07
2.2361e-07
-0.000270335
1.20714e-06
1.16641e-06
-1.8708e-07
-1.92397e-07
0.000268341
3.6898e-08
-2.64838e-08
-0.00117857
5.15924e-08
-2.10712e-08
0.00117853
-0.00113172
-1.1729e-06
-1.61969e-07
-1.48717e-07
0.00113191
-1.76667e-07
1.2431e-06
2.7657e-07
8.39564e-07
-2.16473e-07
-8.56022e-07
1.77433e-07
-0.00113146
-1.19668e-06
-8.60633e-08
-4.89823e-08
0.00113161
-2.02603e-07
1.21905e-06
2.57429e-07
8.28698e-07
-2.27175e-07
-8.63778e-07
1.622e-07
-0.000270419
1.24922e-06
1.19869e-06
-2.2303e-07
-2.36681e-07
0.000268431
2.42486e-07
3.02121e-07
-0.00117822
-1.857e-07
-1.36322e-07
0.00117799
-0.00113206
-1.13468e-06
-3.32109e-07
-1.34596e-07
0.00113192
-1.49714e-07
1.2521e-06
2.47691e-07
9.37456e-07
-8.83607e-08
-7.5124e-07
2.97943e-07
-0.00113183
-1.11208e-06
-3.69235e-07
-2.40683e-07
0.00113177
-1.24804e-07
1.27304e-06
2.79195e-07
9.26006e-07
-1.01244e-07
-7.58212e-07
2.9087e-07
-0.000270563
1.14321e-06
1.10924e-06
-1.22122e-07
-1.17045e-07
0.000268549
1.23466e-06
1.28759e-06
-0.00117769
-1.11833e-06
-1.04661e-06
0.00117733
-0.00113158
-1.19287e-06
-8.53866e-07
-2.20854e-07
0.00113209
-2.64906e-07
1.32573e-06
2.04475e-07
1.02125e-06
-8.20762e-08
-7.28154e-07
2.82181e-07
-0.00113167
-1.18475e-06
-9.06762e-07
-2.51458e-07
0.00113219
-2.64743e-07
1.32572e-06
2.03107e-07
1.03499e-06
-6.37124e-08
-7.08162e-07
3.0104e-07
-0.000270368
1.21705e-06
1.1829e-06
-1.91022e-07
-1.8686e-07
0.000268345
5.53729e-06
5.51731e-06
-0.000289757
-3.89849e-06
-3.91387e-06
0.000286515
-0.000281139
5.1666e-06
-5.62329e-06
6.17832e-06
-4.04645e-06
0.000279464
-0.000281149
-5.60897e-06
5.15157e-06
-4.02963e-06
6.1669e-06
0.000279469
-0.000272957
-5.15758e-06
-5.17494e-06
5.63262e-06
5.61001e-06
0.000272047
-1.26683e-06
-1.22444e-06
0.00027012
-0.0002681
2.32139e-07
2.40017e-07
0.00113152
-1.22615e-07
-0.00113154
-4.33132e-08
-1.22633e-06
2.43763e-07
-2.10871e-07
-8.27242e-07
2.31848e-07
-1.76407e-07
8.87881e-07
1.26462e-06
0.00113159
-1.23506e-07
-0.00113161
-4.39269e-08
-1.22354e-06
2.47188e-07
-2.13215e-07
-8.32544e-07
2.34415e-07
-1.79301e-07
8.92985e-07
-1.22765e-06
0.000270104
-0.000268085
2.35389e-07
2.37632e-07
0.00113252
-1.23548e-07
-0.00113255
-4.34372e-08
-1.18415e-06
2.41167e-07
-2.08357e-07
-8.29553e-07
2.34871e-07
-1.78926e-07
8.90774e-07
1.25853e-06
0.00113145
-1.23764e-07
-0.00113148
-4.23348e-08
-1.21856e-06
2.46418e-07
-2.13819e-07
-8.29545e-07
2.32069e-07
-1.76228e-07
8.90674e-07
-1.22561e-07
-0.0011321
-3.99433e-08
-1.18604e-06
2.41905e-07
-2.07435e-07
-8.24693e-07
2.34405e-07
8.85028e-07
-1.79404e-07
1.25589e-06
0.00113108
-1.2133e-07
-0.00113111
-4.25354e-08
-1.21546e-06
2.44064e-07
-2.10606e-07
-8.22234e-07
2.28453e-07
-1.74482e-07
8.81798e-07
-1.22466e-06
0.000270077
-0.000268069
2.35261e-07
2.39685e-07
-1.21252e-07
-0.00113196
-4.47261e-08
-1.18339e-06
2.38716e-07
-2.04977e-07
-8.24761e-07
2.34353e-07
8.84869e-07
-1.79427e-07
1.21927e-06
0.00113207
-1.20796e-07
-0.0011321
-4.33971e-08
-1.17837e-06
2.417e-07
-2.0779e-07
-8.27644e-07
2.338e-07
-1.80024e-07
8.87001e-07
-0.000268044
2.34887e-07
2.37408e-07
1.22626e-06
1.18399e-06
-1.92112e-07
-1.99749e-07
0.000268101
-1.27076e-06
-1.22865e-06
0.000270135
-0.000268113
2.3518e-07
2.42725e-07
-4.3695e-08
0.0011315
-2.10266e-07
1.26716e-06
2.44536e-07
8.86602e-07
-1.77998e-07
-8.28587e-07
2.30275e-07
-1.22295e-06
-1.2138e-07
-4.64955e-08
0.00113157
-2.12183e-07
1.26537e-06
2.4833e-07
8.91781e-07
-1.80764e-07
-8.33833e-07
2.32974e-07
0.00113145
-1.29692e-07
-0.00113146
-5.53174e-08
-1.22231e-06
2.49087e-07
-2.05089e-07
-8.29054e-07
2.29882e-07
-1.7913e-07
8.86623e-07
1.26795e-06
0.00113151
-1.28523e-07
-0.00113153
-5.54095e-08
-1.21972e-06
2.51157e-07
-2.0844e-07
-8.34015e-07
2.32926e-07
-1.81477e-07
8.92071e-07
-1.9429e-07
-1.96538e-07
0.000268086
-1.23026e-06
0.000270119
-0.000268098
2.37201e-07
2.39849e-07
-4.41478e-08
0.0011325
-2.07649e-07
1.2249e-06
2.4207e-07
8.8937e-07
-1.80592e-07
-8.31003e-07
2.33205e-07
-1.21819e-06
-1.20959e-07
-4.42551e-08
0.00113143
-2.1306e-07
1.25915e-06
2.47353e-07
8.89238e-07
-1.7788e-07
-8.31008e-07
2.30377e-07
0.00113245
-1.29028e-07
-0.00113246
-5.54175e-08
-1.1798e-06
2.4668e-07
-2.02313e-07
-8.31955e-07
2.3245e-07
-1.82129e-07
8.88962e-07
1.26322e-06
0.00113138
-1.27757e-07
-0.0011314
-5.73082e-08
-1.2137e-06
2.52338e-07
-2.07426e-07
-8.32155e-07
2.29383e-07
-1.79651e-07
8.88641e-07
-1.21476e-07
-4.60309e-08
0.00113106
-2.09545e-07
1.25689e-06
2.45432e-07
8.80806e-07
-1.75737e-07
2.27196e-07
-8.23258e-07
-1.31036e-07
-0.00113202
-4.65201e-08
-1.1831e-06
2.45239e-07
-2.03477e-07
-8.25635e-07
2.33265e-07
8.8449e-07
-1.81137e-07
1.26061e-06
0.00113102
-1.32642e-07
-0.00113103
-5.9728e-08
-1.21032e-06
2.49667e-07
-2.04272e-07
-8.23105e-07
2.27833e-07
-1.75901e-07
8.81497e-07
-1.9467e-07
-1.99692e-07
0.00026807
-1.22784e-06
0.000270093
-0.000268082
2.37377e-07
2.43037e-07
-1.20946e-07
-4.70417e-08
0.00113206
-2.06723e-07
1.22025e-06
2.4306e-07
8.86024e-07
-1.8127e-07
2.32562e-07
-8.28655e-07
-1.31869e-07
-0.00113188
-5.33341e-08
-1.18019e-06
2.43354e-07
-2.00062e-07
-8.25964e-07
2.32851e-07
8.84114e-07
-1.81597e-07
1.22351e-06
0.00113201
-1.33468e-07
-0.00113202
-5.9025e-08
-1.17362e-06
2.46856e-07
-2.01832e-07
-8.28216e-07
2.33459e-07
-1.81219e-07
8.87059e-07
-0.000268061
2.37931e-07
2.40884e-07
1.2214e-06
1.17909e-06
-1.88379e-07
-1.96182e-07
0.000268119
-1.26679e-06
-1.22413e-06
0.000270148
-0.000268128
2.31644e-07
2.39819e-07
-5.82219e-08
0.00113143
-2.04758e-07
1.27125e-06
2.48979e-07
8.88102e-07
-1.77628e-07
-8.27652e-07
2.31572e-07
-1.21957e-06
-1.32414e-07
-5.50616e-08
0.0011315
-2.08837e-07
1.2677e-06
2.50374e-07
8.93333e-07
-1.80199e-07
-8.32759e-07
2.34272e-07
0.00113138
-1.31413e-07
-0.0011314
-4.74459e-08
-1.22479e-06
2.42484e-07
-2.10689e-07
-8.25437e-07
2.33612e-07
-1.7447e-07
8.89346e-07
1.26452e-06
0.00113144
-1.32003e-07
-0.00113146
-4.74184e-08
-1.22234e-06
2.46436e-07
-2.12946e-07
-8.3112e-07
2.3546e-07
-1.78063e-07
8.94018e-07
-1.91923e-07
-1.94033e-07
0.000268103
-1.2278e-06
0.000270132
-0.000268113
2.35215e-07
2.37289e-07
-5.72244e-08
0.00113243
-2.02196e-07
1.22888e-06
2.46311e-07
8.90656e-07
-1.80529e-07
-8.3041e-07
2.3429e-07
-1.21297e-06
-1.33176e-07
-5.89977e-08
0.00113137
-2.07256e-07
1.26345e-06
2.51969e-07
8.90335e-07
-1.78072e-07
-8.30635e-07
2.3123e-07
0.00113238
-1.33841e-07
-0.0011324
-4.65301e-08
-1.18293e-06
2.39702e-07
-2.08431e-07
-8.27296e-07
2.36963e-07
-1.76654e-07
8.92656e-07
1.25825e-06
0.00113132
-1.34362e-07
-0.00113133
-4.64335e-08
-1.21723e-06
2.45038e-07
-2.13829e-07
-8.27223e-07
2.34267e-07
-1.73859e-07
8.92653e-07
-1.36353e-07
-6.02758e-08
0.00113101
-2.04578e-07
1.26048e-06
2.4885e-07
8.83075e-07
-1.74246e-07
2.2962e-07
-8.21588e-07
-1.31262e-07
-0.00113195
-4.4546e-08
-1.18476e-06
2.41476e-07
-2.07009e-07
-8.2325e-07
2.35471e-07
8.85951e-07
-1.78064e-07
1.25457e-06
0.00113095
-1.2889e-07
-0.00113097
-4.24463e-08
-1.2152e-06
2.4157e-07
-2.11958e-07
-8.19964e-07
2.30449e-07
-1.72004e-07
8.83538e-07
-1.91512e-07
-1.95698e-07
0.000268088
-1.22484e-06
0.000270107
-0.000268098
2.35256e-07
2.39172e-07
-1.38097e-07
-5.84587e-08
0.001132
-2.02332e-07
1.22317e-06
2.45862e-07
8.88831e-07
-1.79377e-07
2.3543e-07
-8.26486e-07
-1.31648e-07
-0.00113181
-4.99873e-08
-1.18187e-06
2.37829e-07
-2.04715e-07
-8.22643e-07
2.36314e-07
8.86425e-07
-1.77121e-07
1.21785e-06
0.00113194
-1.29552e-07
-0.00113196
-4.2383e-08
-1.17833e-06
2.39176e-07
-2.09302e-07
-8.25147e-07
2.35937e-07
-1.77316e-07
8.88853e-07
-0.000268074
2.33672e-07
2.36214e-07
1.22672e-06
1.18446e-06
-1.92662e-07
-2.00176e-07
0.000268129
-1.26886e-06
-1.22744e-06
0.00027016
-0.000268139
2.33844e-07
2.4084e-07
-4.17924e-08
0.00113136
-2.12165e-07
1.26525e-06
2.41699e-07
8.87921e-07
-1.7588e-07
-8.26768e-07
2.31837e-07
-1.22288e-06
-1.28724e-07
-4.73676e-08
0.00113143
-2.12958e-07
1.26431e-06
2.46832e-07
8.92849e-07
-1.79131e-07
-8.32306e-07
2.34239e-07
0.00113132
-1.26377e-07
-0.00113133
-5.01889e-08
-1.22425e-06
2.4808e-07
-2.06985e-07
-8.29977e-07
2.27976e-07
-1.80125e-07
8.8492e-07
1.2669e-06
0.00113139
-1.28212e-07
-0.0011314
-5.46531e-08
-1.22045e-06
2.50632e-07
-2.09104e-07
-8.34285e-07
2.32133e-07
-1.81612e-07
8.91205e-07
-1.94066e-07
-1.96686e-07
0.000268115
-1.22968e-06
0.000270148
-0.000268127
2.3653e-07
2.38833e-07
-4.2959e-08
0.00113236
-2.09499e-07
1.22311e-06
2.394e-07
8.90741e-07
-1.78306e-07
-8.28975e-07
2.34835e-07
-1.21885e-06
-1.28381e-07
-4.2514e-08
0.0011313
-2.14899e-07
1.25716e-06
2.44747e-07
8.90887e-07
-1.75344e-07
-8.28755e-07
2.32311e-07
0.00113232
-1.23061e-07
-0.00113233
-5.36741e-08
-1.18104e-06
2.46309e-07
-2.03544e-07
-8.33395e-07
2.30102e-07
-1.83572e-07
8.86767e-07
1.26134e-06
0.00113126
-1.23576e-07
-0.00113127
-5.22474e-08
-1.21548e-06
2.51037e-07
-2.09266e-07
-8.32981e-07
2.27812e-07
-1.80367e-07
8.87087e-07
-1.23967e-07
-3.8689e-08
0.00113093
-2.12484e-07
1.25376e-06
2.41624e-07
8.81916e-07
-1.73748e-07
2.2853e-07
-8.21536e-07
-1.28522e-07
-0.00113189
-4.79572e-08
-1.18329e-06
2.45123e-07
-2.03658e-07
-8.26337e-07
2.32203e-07
8.83273e-07
-1.81577e-07
1.25911e-06
0.00113089
-1.28175e-07
-0.0011309
-5.44066e-08
-1.21192e-06
2.4928e-07
-2.05293e-07
-8.24378e-07
2.25607e-07
-1.77308e-07
8.79488e-07
-1.94585e-07
-2.0036e-07
0.000268099
-1.22625e-06
0.000270119
-0.000268108
2.35808e-07
2.41302e-07
-1.22814e-07
-4.08924e-08
0.00113192
-2.09389e-07
1.21752e-06
2.39651e-07
8.86872e-07
-1.79412e-07
2.33681e-07
-8.2708e-07
-1.25653e-07
-0.00113175
-5.02853e-08
-1.18152e-06
2.42258e-07
-2.01538e-07
-8.27112e-07
2.31058e-07
8.82369e-07
-1.82637e-07
1.22254e-06
0.00113188
-1.26364e-07
-0.00113189
-5.68414e-08
-1.17457e-06
2.46938e-07
-2.02279e-07
-8.30057e-07
2.30819e-07
-1.83114e-07
8.84612e-07
-0.000268085
2.369e-07
2.39453e-07
1.22152e-06
1.17869e-06
-1.88496e-07
-1.96769e-07
0.000268145
-1.26939e-06
-1.22581e-06
0.000270182
-0.000268162
2.33155e-07
2.42062e-07
-5.87863e-08
0.00113131
-2.03682e-07
1.2713e-06
2.50438e-07
8.85913e-07
-1.79646e-07
-8.2948e-07
2.29099e-07
-1.21961e-06
-1.31506e-07
-5.53422e-08
0.00113138
-2.08315e-07
1.2674e-06
2.50859e-07
8.92075e-07
-1.81021e-07
-8.33705e-07
2.33028e-07
0.00113127
-1.39097e-07
-0.00113128
-5.93117e-08
-1.22125e-06
2.44736e-07
-2.06737e-07
-8.24504e-07
2.3502e-07
-1.73621e-07
8.90602e-07
1.26409e-06
0.00113132
-1.34044e-07
-0.00113134
-4.55894e-08
-1.22181e-06
2.45298e-07
-2.1284e-07
-8.30325e-07
2.36273e-07
-1.77326e-07
8.94923e-07
-1.91898e-07
-1.9427e-07
0.000268132
-1.22716e-06
0.000270162
-0.000268142
2.34799e-07
2.37058e-07
-6.00297e-08
0.00113231
-2.00656e-07
1.22938e-06
2.48146e-07
8.88076e-07
-1.82933e-07
-8.32692e-07
2.31469e-07
-1.21351e-06
-1.28736e-07
-5.68951e-08
0.00113124
-2.07091e-07
1.26284e-06
2.5221e-07
8.88119e-07
-1.79923e-07
-8.32472e-07
2.28834e-07
0.00113227
-1.4397e-07
-0.00113228
-5.40058e-08
-1.18011e-06
2.40993e-07
-2.05266e-07
-8.26094e-07
2.3872e-07
-1.75582e-07
8.94388e-07
1.25979e-06
0.0011312
-1.39886e-07
-0.00113121
-5.22443e-08
-1.21496e-06
2.4658e-07
-2.11227e-07
-8.27029e-07
2.34486e-07
-1.74068e-07
8.93215e-07
-1.3381e-07
-6.1638e-08
0.00113088
-2.03084e-07
1.26097e-06
2.5056e-07
8.80727e-07
-1.76406e-07
2.27036e-07
-8.23575e-07
-1.33496e-07
-0.00113183
-4.19817e-08
-1.18437e-06
2.40125e-07
-2.07078e-07
-8.22489e-07
2.36242e-07
8.86859e-07
-1.77438e-07
1.25679e-06
0.00113083
-1.36047e-07
-0.00113085
-5.41236e-08
-1.21184e-06
2.43038e-07
-2.08775e-07
-8.19167e-07
2.31793e-07
-1.71164e-07
8.84633e-07
-1.92288e-07
-1.96408e-07
0.000268114
-1.22609e-06
0.000270138
-0.000268129
2.36255e-07
2.40437e-07
-1.34451e-07
-6.14287e-08
0.00113187
-2.00658e-07
1.22374e-06
2.47611e-07
8.86501e-07
-1.81725e-07
2.32778e-07
-8.28607e-07
-1.38516e-07
-0.00113169
-5.47624e-08
-1.18e-06
2.39168e-07
-2.02412e-07
-8.21998e-07
2.3681e-07
8.87181e-07
-1.76956e-07
1.21906e-06
0.00113183
-1.4015e-07
-0.00113184
-4.93171e-08
-1.17593e-06
2.39681e-07
-2.07045e-07
-8.23616e-07
2.37883e-07
-1.7586e-07
8.90599e-07
-0.000268107
2.34592e-07
2.37961e-07
1.22469e-06
1.18368e-06
-1.91817e-07
-1.98339e-07
0.000268164
-1.26407e-06
-1.22252e-06
0.000270188
-0.000268167
2.29264e-07
2.36434e-07
-4.8927e-08
0.00113125
-2.11477e-07
1.26591e-06
2.4089e-07
8.89502e-07
-1.73611e-07
-8.24965e-07
2.34053e-07
-1.22346e-06
-1.29316e-07
-4.27904e-08
0.00113131
-2.14699e-07
1.26272e-06
2.44243e-07
8.93575e-07
-1.77997e-07
-8.31188e-07
2.34989e-07
0.00113121
-1.14795e-07
-0.00113122
-3.66135e-08
-1.2285e-06
2.41899e-07
-2.12886e-07
-8.31336e-07
2.26054e-07
-1.81229e-07
8.83045e-07
1.26515e-06
0.00113129
-1.20597e-07
-0.00113129
-5.36106e-08
-1.22238e-06
2.48962e-07
-2.11661e-07
-8.36701e-07
2.28912e-07
-1.84048e-07
8.88233e-07
-1.94721e-07
-1.97052e-07
0.000268144
-1.22731e-06
0.000270178
-0.000268155
2.33553e-07
2.36429e-07
-4.37637e-08
0.00113225
-2.1006e-07
1.22233e-06
2.37222e-07
8.93331e-07
-1.75363e-07
-8.26311e-07
2.37852e-07
-1.21708e-06
-1.36295e-07
-4.81545e-08
0.00113119
-2.13773e-07
1.25793e-06
2.44897e-07
8.92332e-07
-1.73883e-07
-8.27196e-07
2.33922e-07
0.00113221
-1.14547e-07
-0.00113222
-3.97349e-08
-1.1857e-06
2.402e-07
-2.09699e-07
-8.33794e-07
2.28885e-07
-1.83877e-07
8.85719e-07
1.25812e-06
0.00113116
-1.19989e-07
-0.00113116
-4.77906e-08
-1.21797e-06
2.46447e-07
-2.13019e-07
-8.32775e-07
2.27857e-07
-1.79763e-07
8.86955e-07
-1.29422e-07
-4.49067e-08
0.00113082
-2.12392e-07
1.25391e-06
2.40509e-07
8.8341e-07
-1.71679e-07
2.30453e-07
-8.19873e-07
-1.23702e-07
-0.00113178
-4.48286e-08
-1.18583e-06
2.42921e-07
-2.06759e-07
-8.28118e-07
2.29563e-07
8.80939e-07
-1.83454e-07
1.2544e-06
0.00113079
-1.1932e-07
-0.00113079
-4.1932e-08
-1.21632e-06
2.43658e-07
-2.11286e-07
-8.25386e-07
2.23743e-07
-1.78276e-07
8.77881e-07
-1.93249e-07
-1.99e-07
0.000268132
-1.22318e-06
0.00027015
-0.00026814
2.32866e-07
2.3814e-07
-1.31836e-07
-4.13177e-08
0.00113181
-2.10258e-07
1.21668e-06
2.37607e-07
8.8886e-07
-1.7676e-07
2.36141e-07
-8.24871e-07
-1.20937e-07
-0.00113164
-4.54183e-08
-1.18379e-06
2.37735e-07
-2.05145e-07
-8.27322e-07
2.30713e-07
8.81792e-07
-1.82427e-07
1.21848e-06
0.00113178
-1.16648e-07
-0.00113178
-4.57116e-08
-1.17857e-06
2.41993e-07
-2.07841e-07
-8.31261e-07
2.28697e-07
-1.84203e-07
8.82622e-07
-0.000268115
2.32926e-07
2.34842e-07
1.22611e-06
1.1825e-06
-1.92506e-07
-2.01141e-07
0.000268173
-1.27101e-06
-1.22996e-06
0.000270224
-0.000268201
2.35691e-07
2.42421e-07
-4.4023e-08
0.00113121
-2.08892e-07
1.26686e-06
2.46418e-07
8.82453e-07
-1.82689e-07
-8.32401e-07
2.25052e-07
-1.21999e-06
-1.2555e-07
-6.03844e-08
0.00113129
-2.07908e-07
1.26755e-06
2.52297e-07
8.88183e-07
-1.8491e-07
-8.37347e-07
2.28682e-07
0.00113119
-1.4596e-07
-0.0011312
-6.32506e-08
-1.22015e-06
2.48319e-07
-2.0402e-07
-8.26627e-07
2.32481e-07
-1.76634e-07
8.89033e-07
1.26671e-06
0.00113127
-1.42191e-07
-0.00113128
-5.68882e-08
-1.21887e-06
2.48672e-07
-2.08828e-07
-8.31188e-07
2.35847e-07
-1.78523e-07
8.94862e-07
-1.93797e-07
-1.95695e-07
0.000268164
-1.23029e-06
0.00027021
-0.000268189
2.3705e-07
2.38701e-07
-5.09558e-08
0.00113221
-2.04915e-07
1.22618e-06
2.45507e-07
8.84346e-07
-1.8582e-07
-8.3545e-07
2.27292e-07
-1.21704e-06
-1.1944e-07
-4.92395e-08
0.00113115
-2.11877e-07
1.25915e-06
2.47901e-07
8.85806e-07
-1.81247e-07
-8.3402e-07
2.26478e-07
0.00113219
-1.38915e-07
-0.0011322
-6.84146e-08
-1.17629e-06
2.46733e-07
-2.00121e-07
-8.31003e-07
2.33927e-07
-1.80912e-07
8.90086e-07
1.26213e-06
0.00113113
-1.33282e-07
-0.00113114
-5.63835e-08
-1.21331e-06
2.50916e-07
-2.0781e-07
-8.31996e-07
2.2926e-07
-1.79655e-07
8.88681e-07
-1.25044e-07
-5.00161e-08
0.00113078
-2.07015e-07
1.2574e-06
2.47971e-07
8.77385e-07
-1.7943e-07
2.23059e-07
-8.26311e-07
-1.40027e-07
-0.00113177
-5.30811e-08
-1.18101e-06
2.43926e-07
-2.02697e-07
-8.23897e-07
2.35315e-07
8.86149e-07
-1.79039e-07
1.26011e-06
0.00113077
-1.43323e-07
-0.00113077
-6.30267e-08
-1.20891e-06
2.48096e-07
-2.04019e-07
-8.21277e-07
2.29791e-07
-1.73828e-07
8.83208e-07
-1.95694e-07
-1.99908e-07
0.000268146
-1.22728e-06
0.000270179
-0.000268168
2.36492e-07
2.41742e-07
-1.2158e-07
-5.62891e-08
0.00113177
-2.03329e-07
1.22166e-06
2.46496e-07
8.82199e-07
-1.85401e-07
2.28007e-07
-8.32149e-07
-1.3701e-07
-0.00113162
-5.53678e-08
-1.17945e-06
2.42532e-07
-1.99991e-07
-8.25652e-07
2.32733e-07
8.8415e-07
-1.81489e-07
1.22324e-06
0.00113176
-1.42303e-07
-0.00113177
-6.53655e-08
-1.17184e-06
2.45484e-07
-2.01229e-07
-8.26555e-07
2.35289e-07
-1.79342e-07
8.88636e-07
-0.000268149
2.37365e-07
2.40238e-07
1.22136e-06
1.1789e-06
-1.88369e-07
-1.9645e-07
0.000268208
-1.2654e-06
-1.22083e-06
0.000270239
-0.000268219
2.28255e-07
2.37911e-07
-6.10413e-08
0.00113119
-2.06543e-07
1.26941e-06
2.45312e-07
8.89827e-07
-1.74839e-07
-8.25319e-07
2.3372e-07
-1.22144e-06
-1.3904e-07
-4.75356e-08
0.00113126
-2.12755e-07
1.2638e-06
2.44579e-07
8.95335e-07
-1.77054e-07
-8.30064e-07
2.36679e-07
0.00113117
-1.16625e-07
-0.00113117
-4.66719e-08
-1.22657e-06
2.42825e-07
-2.11373e-07
-8.30362e-07
2.27883e-07
-1.7943e-07
8.84218e-07
1.26171e-06
0.00113122
-1.17577e-07
-0.00113123
-3.93202e-08
-1.22543e-06
2.44726e-07
-2.15339e-07
-8.35621e-07
2.30206e-07
-1.82514e-07
8.89296e-07
-1.92384e-07
-1.95373e-07
0.000268193
-1.22451e-06
0.000270219
-0.000268199
2.31798e-07
2.34295e-07
-5.92817e-08
0.00113219
-2.04029e-07
1.22674e-06
2.4218e-07
8.92245e-07
-1.78241e-07
-8.28625e-07
2.3625e-07
-1.21313e-06
-1.3948e-07
-5.8347e-08
0.00113112
-2.08072e-07
1.26195e-06
2.50239e-07
8.90827e-07
-1.77215e-07
-8.2986e-07
2.31745e-07
0.00113217
-1.27107e-07
-0.00113217
-3.75646e-08
-1.18679e-06
2.38371e-07
-2.11012e-07
-8.30585e-07
2.32562e-07
-1.80162e-07
8.88965e-07
1.25534e-06
0.0011311
-1.29426e-07
-0.0011311
-4.31522e-08
-1.21946e-06
2.42401e-07
-2.16196e-07
-8.29424e-07
2.31695e-07
-1.75583e-07
8.90128e-07
-1.40044e-07
-5.78054e-08
0.00113076
-2.07276e-07
1.2577e-06
2.44205e-07
8.84106e-07
-1.72135e-07
2.31031e-07
-8.19954e-07
-1.17606e-07
-0.00113172
-3.60655e-08
-1.1882e-06
2.3929e-07
-2.09783e-07
-8.27319e-07
2.30516e-07
8.81734e-07
-1.82274e-07
1.25249e-06
0.00113073
-1.15267e-07
-0.00113074
-3.97814e-08
-1.21752e-06
2.40677e-07
-2.13432e-07
-8.24395e-07
2.25131e-07
-1.76678e-07
8.78961e-07
-1.91379e-07
-1.96176e-07
0.000268175
-1.22245e-06
0.000270197
-0.000268188
2.32342e-07
2.35912e-07
-1.42164e-07
-5.43002e-08
0.00113175
-2.05329e-07
1.21995e-06
2.40721e-07
8.90005e-07
-1.77232e-07
2.36954e-07
-8.24788e-07
-1.23597e-07
-0.00113158
-4.90823e-08
-1.18342e-06
2.35609e-07
-2.0652e-07
-8.25396e-07
2.33383e-07
8.83511e-07
-1.79328e-07
1.21499e-06
0.00113172
-1.19484e-07
-0.00113173
-3.40743e-08
-1.18156e-06
2.37539e-07
-2.11678e-07
-8.29052e-07
2.31096e-07
-1.8145e-07
8.84682e-07
-0.000268161
2.30581e-07
2.33644e-07
1.22556e-06
1.18444e-06
-1.93429e-07
-1.99902e-07
0.000268223
-1.26849e-06
-1.22804e-06
0.000270259
-0.000268238
2.3477e-07
2.40875e-07
-4.83435e-08
0.00113116
-2.09187e-07
1.26674e-06
2.45186e-07
8.83723e-07
-1.80801e-07
-8.31242e-07
2.27033e-07
-1.22319e-06
-1.19081e-07
-4.75672e-08
0.00113121
-2.12129e-07
1.26418e-06
2.48185e-07
8.88457e-07
-1.83985e-07
-8.36743e-07
2.29126e-07
0.00113112
-1.36433e-07
-0.00113113
-5.21668e-08
-1.22234e-06
2.45986e-07
-2.05806e-07
-8.27282e-07
2.32059e-07
-1.76722e-07
8.88329e-07
1.26836e-06
0.00113119
-1.35901e-07
-0.0011312
-6.40167e-08
-1.21761e-06
2.51547e-07
-2.06491e-07
-8.33714e-07
2.33387e-07
-1.80819e-07
8.92315e-07
-1.95658e-07
-1.97781e-07
0.000268203
-1.23071e-06
0.000270247
-0.000268225
2.37139e-07
2.39744e-07
-4.60295e-08
0.00113216
-2.0747e-07
1.22377e-06
2.42282e-07
8.87423e-07
-1.8225e-07
-8.32444e-07
2.3085e-07
-1.22076e-06
-1.21713e-07
-3.86535e-08
0.00113109
-2.16717e-07
1.25488e-06
2.42654e-07
8.88063e-07
-1.78251e-07
-8.31592e-07
2.28894e-07
0.00113212
-1.2989e-07
-0.00113214
-5.90501e-08
-1.1781e-06
2.45078e-07
-2.01411e-07
-8.31589e-07
2.33467e-07
-1.80946e-07
8.89333e-07
1.26329e-06
0.00113106
-1.28036e-07
-0.00113107
-5.96005e-08
-1.21324e-06
2.53939e-07
-2.05877e-07
-8.33626e-07
2.27456e-07
-1.81256e-07
8.86934e-07
-1.17362e-07
-4.33822e-08
0.00113072
-2.10976e-07
1.25425e-06
2.43746e-07
8.7792e-07
-1.78349e-07
2.23797e-07
-8.25595e-07
-1.37973e-07
-0.00113169
-5.42542e-08
-1.18084e-06
2.4559e-07
-2.01447e-07
-8.25593e-07
2.33548e-07
8.84457e-07
-1.80691e-07
1.2608e-06
0.0011307
-1.4083e-07
-0.00113071
-6.30915e-08
-1.20863e-06
2.50402e-07
-2.02205e-07
-8.2262e-07
2.28609e-07
-1.74959e-07
8.8192e-07
-1.96681e-07
-2.02589e-07
0.000268191
-1.22769e-06
0.000270217
-0.000268206
2.37071e-07
2.42904e-07
-1.17586e-07
-4.41128e-08
0.00113171
-2.0809e-07
1.21797e-06
2.41808e-07
8.82862e-07
-1.83781e-07
2.29045e-07
-8.31034e-07
-1.31218e-07
-0.00113155
-5.42955e-08
-1.17968e-06
2.44602e-07
-1.98604e-07
-8.27854e-07
2.30632e-07
8.82145e-07
-1.8362e-07
1.22495e-06
0.00113169
-1.35957e-07
-0.0011317
-6.89631e-08
-1.17046e-06
2.48687e-07
-1.98443e-07
-8.29026e-07
2.33195e-07
-1.81481e-07
8.86388e-07
-0.000268187
2.38985e-07
2.40953e-07
1.22417e-06
1.18062e-06
-1.89206e-07
-1.9815e-07
0.000268242
-1.26441e-06
-1.2212e-06
0.000270268
-0.000268248
2.284e-07
2.36917e-07
-4.59579e-08
0.00113111
-2.09327e-07
1.26611e-06
2.41904e-07
8.89023e-07
-1.75293e-07
-8.26197e-07
2.32968e-07
-1.21792e-06
-1.39009e-07
-6.44969e-08
0.00113119
-2.07502e-07
1.26803e-06
2.51032e-07
8.93804e-07
-1.78867e-07
-8.31983e-07
2.35052e-07
0.00113107
-1.17298e-07
-0.00113108
-4.3175e-08
-1.22777e-06
2.41971e-07
-2.12416e-07
-8.30623e-07
2.27662e-07
-1.79975e-07
8.84203e-07
1.26053e-06
0.00113115
-1.24699e-07
-0.00113116
-4.11959e-08
-1.22457e-06
2.41146e-07
-2.15889e-07
-8.32367e-07
2.35902e-07
-1.77744e-07
8.93561e-07
-1.91024e-07
-1.93024e-07
0.000268232
-1.22428e-06
0.000270258
-0.00026824
2.3225e-07
2.33867e-07
-4.89092e-08
0.00113211
-2.05712e-07
1.22473e-06
2.40033e-07
8.90765e-07
-1.79108e-07