/*--------------------------------*- C++ -*----------------------------------*\
| =========                 |                                                 |
| \\      /  F ield         | OpenFOAM: The Open Source CFD Toolbox           |
|  \\    /   O peration     | Version:  2312                                  |
|   \\  /    A nd           | Website:  www.openfoam.com                      |
|    \\/     M anipulation  |                                                 |
\*---------------------------------------------------------------------------*/
FoamFile
{
    version     2.0;
    format      ascii;
    arch        "LSB;label=32;scalar=64";
    class       volVectorField;
    location    "875";
    object      U;
}
// * * * * * * * * * * * * * * * * * * * * * * * * * * * * * * * * * * * * * //

dimensions      [0 1 -1 0 0 0 0];

internalField   nonuniform List<vector> 
43208
(
(-1.07729e-05 -1.07392e-05 0.112445)
(1.1256e-05 -5.71774e-06 0.107483)
(-5.53295e-06 1.11034e-05 0.107482)
(-2.67935e-05 -2.68626e-05 0.104198)
(-1.20556e-05 -1.20407e-05 0.11241)
(1.2318e-05 -6.77181e-06 0.107477)
(-7.13277e-06 1.25512e-05 0.107476)
(-2.52662e-05 -2.51275e-05 0.104206)
(-1.1459e-05 -1.14039e-05 0.112373)
(1.16146e-05 -5.98469e-06 0.10747)
(-5.55073e-06 1.13691e-05 0.107469)
(-2.73187e-05 -2.74611e-05 0.10421)
(-1.18874e-05 -1.20894e-05 0.11234)
(1.19384e-05 -6.90285e-06 0.107465)
(-6.97351e-06 1.19783e-05 0.107464)
(-2.50314e-05 -2.49774e-05 0.104217)
(-1.24391e-05 -1.19504e-05 0.112304)
(1.17848e-05 -5.47564e-06 0.107459)
(-6.16893e-06 1.20438e-05 0.107458)
(-2.71039e-05 -2.69104e-05 0.104224)
(-1.08424e-05 -1.12147e-05 0.112273)
(1.12744e-05 -7.02212e-06 0.107456)
(-5.75722e-06 1.08454e-05 0.107454)
(-2.61545e-05 -2.65023e-05 0.104229)
(-1.30699e-05 -1.32556e-05 0.11224)
(1.22808e-05 -6.32427e-06 0.107454)
(-7.46368e-06 1.26605e-05 0.107452)
(-2.55375e-05 -2.53453e-05 0.104242)
(-1.16426e-05 -1.10441e-05 0.112208)
(1.06578e-05 -5.93112e-06 0.10745)
(-5.08747e-06 1.02904e-05 0.107449)
(-2.73213e-05 -2.73534e-05 0.104246)
(-1.185e-05 -1.23102e-05 0.112176)
(1.26012e-05 -7.38249e-06 0.107447)
(-7.96116e-06 1.27748e-05 0.107446)
(-2.44593e-05 -2.45512e-05 0.104258)
(-1.15116e-05 -1.12707e-05 0.112144)
(9.8858e-06 -3.93919e-06 0.107442)
(-3.7715e-06 9.96858e-06 0.107442)
(-2.95361e-05 -2.9104e-05 0.104259)
(-1.03777e-05 -1.01218e-05 0.112121)
(8.85547e-06 -6.52694e-06 0.107444)
(-6.6935e-06 9.5521e-06 0.107443)
(-2.41424e-05 -2.43096e-05 0.104275)
(-1.46017e-05 -1.65284e-05 0.112087)
(1.74167e-05 -1.12492e-05 0.107451)
(-8.63031e-06 1.37818e-05 0.107445)
(-2.46199e-05 -2.66543e-05 0.104296)
(-5.89094e-06 -1.94693e-06 0.11206)
(1.20555e-06 4.93696e-06 0.107434)
(-1.2929e-06 7.138e-06 0.10744)
(-3.43268e-05 -2.96265e-05 0.104276)
(-1.79288e-05 -2.0591e-05 0.112045)
(1.52621e-05 -1.46797e-05 0.107443)
(-9.68111e-06 1.19112e-05 0.107444)
(-2.11078e-05 -2.49597e-05 0.104308)
(-4.20014e-06 -6.46468e-06 0.112009)
(1.08193e-05 -2.74325e-06 0.107454)
(-9.37118e-07 8.52731e-06 0.107441)
(-2.52639e-05 -2.70743e-05 0.104326)
(-1.30223e-05 -8.47901e-06 0.111981)
(7.92681e-06 -3.38909e-06 0.107439)
(-1.25364e-05 1.31282e-05 0.107444)
(-3.49059e-05 -2.99207e-05 0.10431)
(-1.44645e-05 -1.41527e-05 0.111966)
(6.3532e-06 -9.82779e-07 0.107425)
(2.28442e-06 6.91255e-06 0.107435)
(-2.34585e-05 -2.44922e-05 0.104316)
(2.15282e-06 -4.23889e-06 0.111973)
(1.07319e-05 -1.53517e-05 0.107463)
(-6.82353e-06 5.08231e-06 0.107449)
(-3.57546e-05 -4.06579e-05 0.104351)
(-2.2954e-05 -1.83513e-05 0.111927)
(3.18458e-05 -1.77603e-05 0.107471)
(-2.79154e-05 3.34504e-05 0.107465)
(-6.94492e-07 2.76499e-06 0.104411)
(-9.62251e-06 -4.22038e-06 0.1119)
(-2.35798e-05 3.59833e-05 0.10737)
(3.54672e-05 -1.94269e-05 0.107389)
(-6.74434e-05 -6.31612e-05 0.10434)
(-4.46262e-05 -5.03892e-05 0.111264)
(9.82138e-05 -8.50751e-05 0.107919)
(-7.93195e-05 9.4473e-05 0.107924)
(0.000114902 0.000111436 0.105054)
(-4.33354e-05 -4.32792e-05 0.104312)
(-5.3525e-06 -1.13653e-05 0.107483)
(5.46118e-06 -1.14375e-05 0.107483)
(4.34952e-05 -4.35244e-05 0.104312)
(-1.14635e-05 -5.34736e-06 0.107485)
(-1.14903e-05 5.26517e-06 0.107482)
(1.13857e-05 -5.59367e-06 0.107485)
(1.12814e-05 5.34794e-06 0.107482)
(-4.34422e-05 4.32666e-05 0.104311)
(-5.5068e-06 1.12674e-05 0.107484)
(5.44485e-06 1.12193e-05 0.107483)
(4.34477e-05 4.3369e-05 0.10431)
(2.70258e-05 2.7055e-05 0.104199)
(-4.4674e-05 -4.47465e-05 0.104317)
(-5.47896e-06 -1.10863e-05 0.107481)
(5.77651e-06 -1.11739e-05 0.107481)
(-6.97259e-06 -1.18767e-05 0.107476)
(6.92886e-06 -1.17969e-05 0.107476)
(-2.67873e-05 2.68068e-05 0.104199)
(4.45769e-05 -4.43951e-05 0.104317)
(-1.11557e-05 -5.5128e-06 0.107483)
(-1.11537e-05 5.51749e-06 0.107479)
(-1.17719e-05 -7.02327e-06 0.107478)
(-1.16753e-05 7.17814e-06 0.107475)
(1.11994e-05 5.76402e-06 0.10748)
(1.19707e-05 -6.68149e-06 0.107478)
(1.21058e-05 7.38075e-06 0.107476)
(2.69603e-05 -2.70634e-05 0.104198)
(-4.45138e-05 4.48799e-05 0.104316)
(5.86639e-06 1.11409e-05 0.107481)
(-6.82693e-06 1.20403e-05 0.107477)
(7.31587e-06 1.21698e-05 0.107477)
(4.48395e-05 4.49437e-05 0.104317)
(2.52867e-05 2.52552e-05 0.104206)
(-4.31066e-05 -4.2943e-05 0.104322)
(-7.27283e-06 -1.23644e-05 0.107475)
(6.91579e-06 -1.21857e-05 0.107474)
(-5.77893e-06 -1.20421e-05 0.10747)
(5.84501e-06 -1.20617e-05 0.107469)
(-2.55411e-05 2.56434e-05 0.104206)
(4.32543e-05 -4.33703e-05 0.104322)
(-1.2322e-05 -7.22731e-06 0.107476)
(-1.2216e-05 7.37317e-06 0.107473)
(-1.22736e-05 -5.68694e-06 0.107471)
(-1.23217e-05 5.65401e-06 0.107468)
(1.24968e-05 7.42198e-06 0.107474)
(1.20144e-05 -6.07411e-06 0.107472)
(1.18503e-05 5.27628e-06 0.107469)
(2.54085e-05 -2.51478e-05 0.104205)
(-4.32912e-05 4.2924e-05 0.104321)
(7.26561e-06 1.26404e-05 0.107476)
(-6.01519e-06 1.2042e-05 0.107471)
(5.31144e-06 1.18739e-05 0.107471)
(4.27421e-05 4.26826e-05 0.104321)
(2.71655e-05 2.72359e-05 0.104211)
(-4.3896e-05 -4.42081e-05 0.104326)
(-5.15776e-06 -1.14671e-05 0.107468)
(5.76662e-06 -1.16841e-05 0.107468)
(-6.38573e-06 -1.13479e-05 0.107464)
(6.73366e-06 -1.15476e-05 0.107464)
(-2.67733e-05 2.66207e-05 0.104211)
(4.40837e-05 -4.40639e-05 0.104327)
(-1.15618e-05 -5.24506e-06 0.107469)
(-1.16941e-05 5.18878e-06 0.107467)
(-1.10373e-05 -6.71886e-06 0.107465)
(-1.11085e-05 6.59252e-06 0.107462)
(1.13286e-05 4.90551e-06 0.107467)
(1.15604e-05 -6.6876e-06 0.107466)
(1.15272e-05 6.86601e-06 0.107463)
(2.68918e-05 -2.72976e-05 0.10421)
(-4.38285e-05 4.41104e-05 0.104325)
(5.13185e-06 1.11897e-05 0.107469)
(-6.39895e-06 1.13275e-05 0.107465)
(7.04851e-06 1.13846e-05 0.107464)
(4.44354e-05 4.43591e-05 0.104325)
(2.53494e-05 2.51214e-05 0.104217)
(-4.38929e-05 -4.34083e-05 0.104334)
(-7.39019e-06 -1.19675e-05 0.107463)
(6.95892e-06 -1.19175e-05 0.107463)
(-7.03887e-06 -1.26813e-05 0.107459)
(5.82884e-06 -1.22692e-05 0.107458)
(-2.55398e-05 2.55276e-05 0.104218)
(4.30106e-05 -4.30506e-05 0.104333)
(-1.1755e-05 -7.5283e-06 0.107464)
(-1.16261e-05 7.21947e-06 0.107461)
(-1.30861e-05 -6.58002e-06 0.10746)
(-1.27348e-05 6.42445e-06 0.107457)
(1.20782e-05 7.67762e-06 0.107462)
(1.22326e-05 -5.98645e-06 0.10746)
(1.24189e-05 6.47286e-06 0.107458)
(2.55885e-05 -2.53171e-05 0.104216)
(-4.36303e-05 4.33761e-05 0.104333)
(7.61524e-06 1.2167e-05 0.107463)
(-6.67868e-06 1.25918e-05 0.107459)
(6.1065e-06 1.2724e-05 0.10746)
(4.29982e-05 4.32982e-05 0.104333)
(2.63945e-05 2.68829e-05 0.104225)
(-4.19965e-05 -4.22605e-05 0.104336)
(-5.79076e-06 -1.19716e-05 0.107458)
(5.35912e-06 -1.17706e-05 0.107456)
(-4.7883e-06 -1.01786e-05 0.107453)
(6.37241e-06 -1.06166e-05 0.107453)
(-2.6912e-05 2.6873e-05 0.104223)
(4.32408e-05 -4.29857e-05 0.104338)
(-1.24227e-05 -5.33757e-06 0.107459)
(-1.23764e-05 5.81234e-06 0.107456)
(-1.01778e-05 -5.0702e-06 0.107455)
(-1.06559e-05 5.73963e-06 0.107452)
(1.18064e-05 5.39405e-06 0.107457)
(1.0886e-05 -6.11269e-06 0.107456)
(1.05844e-05 5.34113e-06 0.107453)
(2.62717e-05 -2.66501e-05 0.104224)
(-4.2511e-05 4.27149e-05 0.104337)
(5.17695e-06 1.19358e-05 0.107458)
(-5.56778e-06 1.07177e-05 0.107455)
(5.70516e-06 1.03314e-05 0.107454)
(4.27955e-05 4.24534e-05 0.104336)
(2.7042e-05 2.6632e-05 0.104228)
(-4.43317e-05 -4.47655e-05 0.104349)
(-5.81787e-06 -1.06828e-05 0.107453)
(7.26839e-06 -1.10542e-05 0.107453)
(-7.77294e-06 -1.30686e-05 0.107452)
(7.0813e-06 -1.28095e-05 0.107452)
(-2.58284e-05 2.6014e-05 0.10423)
(4.37473e-05 -4.40204e-05 0.104351)
(-1.03811e-05 -6.43828e-06 0.107454)
(-1.05787e-05 6.09814e-06 0.107452)
(-1.24213e-05 -8.28349e-06 0.107453)
(-1.19537e-05 7.28251e-06 0.10745)
(1.10411e-05 6.42781e-06 0.107453)
(1.25528e-05 -7.32636e-06 0.107454)
(1.28133e-05 7.78118e-06 0.107451)
(2.69204e-05 -2.66664e-05 0.104229)
(-4.39726e-05 4.41586e-05 0.104347)
(6.93807e-06 1.07689e-05 0.107454)
(-7.14772e-06 1.23111e-05 0.107452)
(7.89316e-06 1.27895e-05 0.107453)
(4.43362e-05 4.43928e-05 0.104349)
(2.52649e-05 2.51112e-05 0.104242)
(-4.23556e-05 -4.15198e-05 0.104355)
(-7.26605e-06 -1.28438e-05 0.107451)
(5.98e-06 -1.25204e-05 0.107451)
(-5.53468e-06 -1.02736e-05 0.107449)
(4.97589e-06 -1.0357e-05 0.107447)
(-2.60965e-05 2.57949e-05 0.104243)
(4.20213e-05 -4.19428e-05 0.104354)
(-1.26827e-05 -7.15682e-06 0.107453)
(-1.25452e-05 7.33117e-06 0.107449)
(-1.12143e-05 -4.68858e-06 0.10745)
(-1.14598e-05 5.05339e-06 0.107447)
(1.25493e-05 6.95933e-06 0.107451)
(1.04611e-05 -5.08042e-06 0.10745)
(1.02782e-05 4.81649e-06 0.107447)
(2.51732e-05 -2.51742e-05 0.104241)
(-4.20559e-05 4.15077e-05 0.104354)
(6.64162e-06 1.27437e-05 0.107453)
(-5.63872e-06 1.09498e-05 0.107449)
(4.45826e-06 1.055e-05 0.107449)
(4.14786e-05 4.16567e-05 0.104353)
(2.67172e-05 2.72538e-05 0.104248)
(-4.34623e-05 -4.41514e-05 0.104363)
(-5.94372e-06 -1.0423e-05 0.107448)
(5.95498e-06 -1.04874e-05 0.107447)
(-6.69052e-06 -1.2349e-05 0.107445)
(7.76924e-06 -1.22201e-05 0.107445)
(-2.68782e-05 2.69531e-05 0.104247)
(4.4294e-05 -4.41418e-05 0.104364)
(-1.09703e-05 -5.68623e-06 0.10745)
(-1.06991e-05 4.68772e-06 0.107446)
(-1.16984e-05 -7.34751e-06 0.107447)
(-1.15055e-05 7.59498e-06 0.107444)
(1.0396e-05 5.3847e-06 0.107447)
(1.2297e-05 -7.50711e-06 0.107447)
(1.26191e-05 7.93413e-06 0.107445)
(2.74784e-05 -2.79629e-05 0.104247)
(-4.41705e-05 4.4614e-05 0.104362)
(5.53792e-06 1.03159e-05 0.107448)
(-7.16926e-06 1.17402e-05 0.107446)
(8.40928e-06 1.21949e-05 0.107446)
(4.49929e-05 4.46675e-05 0.104363)
(2.60601e-05 2.55409e-05 0.104256)
(-4.19085e-05 -4.15757e-05 0.104366)
(-5.91191e-06 -1.21799e-05 0.107444)
(7.69912e-06 -1.25085e-05 0.107445)
(-5.27469e-06 -1.04319e-05 0.10744)
(5.04863e-06 -1.12892e-05 0.107441)
(-2.49019e-05 2.50385e-05 0.104258)
(4.13227e-05 -4.16405e-05 0.104369)
(-1.17488e-05 -6.25575e-06 0.107446)
(-1.233e-05 8.60185e-06 0.107443)
(-1.0683e-05 -4.9412e-06 0.107441)
(-1.12408e-05 5.12076e-06 0.10744)
(1.26495e-05 7.53792e-06 0.107444)
(1.12488e-05 -5.3945e-06 0.107443)
(1.02305e-05 3.92901e-06 0.107439)
(2.4523e-05 -2.40297e-05 0.104256)
(-4.1073e-05 4.10764e-05 0.104369)
(7.54503e-06 1.26344e-05 0.107446)
(-5.18958e-06 1.16052e-05 0.107442)
(3.33535e-06 1.0779e-05 0.107441)
(3.99506e-05 4.05281e-05 0.104365)
(2.69561e-05 2.72231e-05 0.10426)
(-4.08871e-05 -4.05802e-05 0.104379)
(-6.29618e-06 -1.06376e-05 0.10744)
(2.9855e-06 -1.035e-05 0.10744)
(-5.2914e-06 -9.02127e-06 0.107442)
(2.67616e-06 -6.97035e-06 0.107438)
(-2.878e-05 2.82456e-05 0.104262)
(3.88164e-05 -3.86431e-05 0.104371)
(-1.07665e-05 -6.07077e-06 0.107441)
(-1.01387e-05 2.98057e-06 0.10744)
(-9.42767e-06 -4.91237e-06 0.107443)
(-8.56644e-06 4.42674e-06 0.107438)
(9.23544e-06 3.16682e-06 0.107438)
(6.73322e-06 -2.54104e-06 0.107441)
(8.96606e-06 7.48587e-06 0.107441)
(2.8828e-05 -2.91576e-05 0.104262)
(-4.10484e-05 4.09438e-05 0.104373)
(2.81943e-06 9.54673e-06 0.10744)
(-4.55745e-06 8.11089e-06 0.107441)
(7.33665e-06 9.20921e-06 0.107442)
(4.36216e-05 4.3686e-05 0.104377)
(2.88147e-05 2.90352e-05 0.104275)
(-4.67321e-05 -4.87032e-05 0.1044)
(-4.52444e-06 -8.22073e-06 0.107445)
(8.10983e-06 -7.98243e-06 0.107442)
(-9.52728e-06 -1.4771e-05 0.107446)
(1.59892e-05 -1.71288e-05 0.107449)
(-2.76501e-05 2.8366e-05 0.104269)
(5.15522e-05 -5.10062e-05 0.104411)
(-8.66624e-06 -4.45872e-06 0.107446)
(-9.20032e-06 7.70538e-06 0.107441)
(-1.31051e-05 -1.18887e-05 0.107447)
(-1.3714e-05 1.03129e-05 0.107444)
(1.04593e-05 9.42274e-06 0.107445)
(1.82985e-05 -1.5476e-05 0.107452)
(1.55463e-05 6.99156e-06 0.107447)
(2.67644e-05 -2.64793e-05 0.10427)
(-4.62743e-05 4.6328e-05 0.1044)
(9.82125e-06 1.04204e-05 0.107446)
(-1.02105e-05 1.41718e-05 0.107445)
(9.73592e-06 1.32385e-05 0.107447)
(4.61544e-05 4.37829e-05 0.104403)
(2.15877e-05 1.97975e-05 0.104295)
(-3.30487e-05 -2.9566e-05 0.104385)
(-1.00468e-05 -1.70455e-05 0.107444)
(9.8589e-06 -1.77954e-05 0.107449)
(2.70429e-06 -4.42187e-06 0.107433)
(-8.9129e-06 -3.52598e-06 0.107433)
(-1.97479e-05 1.94593e-05 0.104306)
(2.88572e-05 -2.99668e-05 0.104381)
(-1.52346e-05 -1.18588e-05 0.107446)
(-1.45151e-05 7.25923e-06 0.107443)
(-6.91371e-06 6.55642e-06 0.107434)
(-7.4099e-06 -7.63487e-08 0.107435)
(1.47674e-05 3.69065e-06 0.107444)
(1.86305e-06 7.85788e-06 0.107436)
(3.80825e-06 1.48896e-06 0.107432)
(2.32595e-05 -2.3878e-05 0.104295)
(-3.64441e-05 3.66611e-05 0.10439)
(5.54996e-06 1.26274e-05 0.107445)
(4.26572e-08 6.99537e-06 0.107438)
(-3.31011e-06 7.28485e-06 0.107433)
(3.38781e-05 3.84114e-05 0.104381)
(3.67614e-05 4.04683e-05 0.104277)
(-5.36508e-05 -5.54396e-05 0.104408)
(2.52031e-06 -7.26948e-07 0.107434)
(-4.02774e-06 -1.33196e-06 0.107432)
(-1.64319e-05 -1.26941e-05 0.107439)
(1.47603e-05 -1.14822e-05 0.107434)
(-3.8696e-05 3.8466e-05 0.104272)
(5.12811e-05 -5.07311e-05 0.104402)
(-4.11828e-06 6.79753e-06 0.107436)
(-5.86513e-06 3.09103e-06 0.107437)
(-1.21211e-05 -1.80187e-05 0.107441)
(-1.09637e-05 9.93638e-06 0.107438)
(3.30041e-06 5.31112e-06 0.107434)
(1.25062e-05 -1.44316e-05 0.107435)
(1.17207e-05 9.7391e-06 0.107437)
(3.26172e-05 -3.15939e-05 0.104284)
(-4.71244e-05 4.66408e-05 0.104407)
(1.26805e-07 7.89158e-06 0.107435)
(-1.02659e-05 1.13756e-05 0.10744)
(1.18281e-05 1.08689e-05 0.107439)
(4.79903e-05 4.54945e-05 0.104408)
(1.46553e-05 1.18602e-05 0.10431)
(-3.04048e-05 -3.30677e-05 0.104431)
(-1.76542e-05 -1.90636e-05 0.107446)
(1.28517e-05 -1.56651e-05 0.107441)
(4.37637e-06 -1.10569e-05 0.107444)
(4.51839e-06 -1.12115e-05 0.107444)
(-1.88531e-05 1.85204e-05 0.104304)
(3.94619e-05 -3.86228e-05 0.104433)
(-1.67659e-05 -2.14598e-05 0.107448)
(-1.38706e-05 6.74829e-06 0.107442)
(-8.31766e-06 7.55713e-07 0.107445)
(-8.03253e-06 6.26562e-07 0.107433)
(1.49218e-05 7.18447e-06 0.107443)
(1.1178e-05 -3.53137e-06 0.107448)
(1.31718e-05 4.42666e-06 0.107445)
(2.21355e-05 -2.38775e-05 0.104306)
(-3.60228e-05 3.67903e-05 0.104413)
(1.20628e-05 1.14699e-05 0.107446)
(2.23719e-08 7.5491e-06 0.107436)
(8.4854e-06 9.50021e-06 0.107445)
(4.35092e-05 4.03375e-05 0.10443)
(3.97955e-05 3.80384e-05 0.104322)
(-4.61882e-05 -4.24274e-05 0.104406)
(7.71143e-06 -5.80037e-06 0.107447)
(6.49852e-06 -8.90311e-06 0.10745)
(-7.52771e-06 -6.23306e-06 0.10743)
(5.80495e-06 -9.72914e-06 0.107442)
(-2.84129e-05 3.02349e-05 0.104328)
(4.31272e-05 -4.32081e-05 0.104428)
(-4.14672e-06 6.18382e-06 0.107447)
(-6.28155e-06 4.91721e-06 0.107439)
(-8.7239e-06 -3.35783e-06 0.107432)
(-1.19192e-05 1.33329e-05 0.107441)
(1.1898e-05 5.85578e-06 0.10745)
(1.07082e-05 -5.89386e-06 0.107444)
(6.36753e-06 2.28728e-06 0.107436)
(3.23485e-05 -3.01422e-05 0.104309)
(-4.78204e-05 4.86886e-05 0.104432)
(7.1895e-06 1.0164e-05 0.107449)
(-1.24624e-05 1.39932e-05 0.107443)
(-2.76353e-06 1.00652e-05 0.107437)
(3.45897e-05 3.95048e-05 0.104417)
(2.08479e-05 2.5031e-05 0.104303)
(-4.45835e-05 -4.33071e-05 0.104439)
(-1.25975e-05 -8.98672e-06 0.107429)
(7.20191e-08 -9.64394e-06 0.107437)
(-1.07313e-05 -8.61469e-06 0.107439)
(-4.60461e-06 -4.27767e-06 0.107425)
(-2.89792e-05 2.73466e-05 0.104321)
(3.33437e-05 -3.62451e-05 0.104406)
(-1.2511e-05 -7.38182e-06 0.10743)
(-1.39003e-05 1.00178e-05 0.107441)
(-1.09697e-05 -8.55797e-06 0.107441)
(-7.75327e-06 -4.85627e-06 0.107436)
(5.02906e-06 2.14494e-06 0.107431)
(1.50644e-06 1.20819e-06 0.107427)
(5.5165e-06 7.98773e-06 0.107428)
(2.09839e-05 -2.18284e-05 0.10433)
(-3.5817e-05 3.197e-05 0.104426)
(-3.71776e-06 9.44012e-06 0.107433)
(7.79927e-07 3.91096e-06 0.107439)
(6.36273e-06 7.14351e-06 0.107431)
(4.32622e-05 4.36403e-05 0.104415)
(2.50743e-05 2.50272e-05 0.104338)
(-2.36066e-05 -3.03481e-05 0.104442)
(-9.61268e-06 -1.306e-05 0.107442)
(-6.04283e-07 -7.35747e-06 0.107423)
(1.30747e-05 -1.04584e-06 0.107446)
(6.25274e-06 -1.12484e-06 0.107438)
(-3.34475e-05 3.17375e-05 0.104302)
(3.94808e-05 -3.74353e-05 0.104439)
(-1.32791e-05 -1.09001e-05 0.107445)
(-9.18849e-06 -4.70293e-06 0.107433)
(4.60612e-06 5.06508e-06 0.107447)
(7.12019e-06 -5.49889e-06 0.107426)
(1.25151e-05 1.03572e-05 0.107431)
(1.6762e-06 -3.80611e-06 0.10744)
(2.01184e-09 -1.00855e-05 0.107443)
(3.41003e-05 -3.66554e-05 0.104319)
(-2.60232e-05 2.99235e-05 0.104414)
(1.24507e-05 1.17442e-05 0.107433)
(8.81353e-06 -4.7682e-06 0.107428)
(-2.90101e-06 -4.87454e-06 0.107444)
(3.01017e-05 2.45066e-05 0.104445)
(4.34682e-05 3.72921e-05 0.104341)
(-5.56138e-05 -5.14844e-05 0.104456)
(1.20093e-05 -2.35379e-06 0.107455)
(2.01265e-05 -9.03024e-06 0.107461)
(-1.6879e-05 -1.21225e-05 0.107452)
(3.17345e-05 -2.19731e-05 0.10749)
(-2.11998e-05 2.34976e-05 0.104352)
(6.51861e-05 -6.00343e-05 0.104528)
(2.90108e-06 5.64239e-06 0.107456)
(-1.47467e-06 1.24383e-05 0.107446)
(-1.39045e-05 -1.33543e-05 0.107452)
(-2.4084e-05 3.69581e-05 0.107477)
(4.36998e-06 -3.08869e-06 0.107462)
(2.78328e-05 -2.55266e-05 0.107492)
(2.2562e-05 2.76219e-05 0.107472)
(3.37415e-05 -2.9567e-05 0.104324)
(-6.5035e-05 6.80599e-05 0.104514)
(2.26062e-06 3.59192e-07 0.107463)
(-3.21015e-05 2.78063e-05 0.107479)
(2.52048e-05 2.34515e-05 0.107472)
(6.14805e-05 6.41182e-05 0.104494)
(2.86797e-06 8.179e-06 0.104377)
(-1.34189e-05 -7.52717e-06 0.10441)
(-2.77174e-05 -2.23088e-05 0.107438)
(2.00419e-05 -2.76191e-05 0.107468)
(2.96928e-06 -3.71217e-06 0.107463)
(-6.81011e-05 1.4692e-05 0.107423)
(-4.03379e-07 4.21191e-06 0.10444)
(-3.915e-05 2.57038e-05 0.104315)
(-2.63742e-05 -2.12671e-05 0.107439)
(-3.14428e-05 2.89206e-05 0.107463)
(-9.88745e-06 1.05247e-05 0.107466)
(7.69105e-06 -6.0596e-05 0.107443)
(3.06135e-05 2.91913e-05 0.107453)
(-2.40754e-05 5.30126e-05 0.107427)
(-1.49389e-05 -4.09363e-05 0.107437)
(-1.59065e-06 3.20036e-06 0.104434)
(2.32685e-05 -3.62983e-05 0.10435)
(2.39847e-05 3.30582e-05 0.107453)
(4.54829e-05 -1.67478e-05 0.107445)
(-4.82671e-05 -9.5895e-06 0.107438)
(-2.64362e-05 -2.13035e-05 0.104345)
(3.16803e-05 3.62527e-05 0.104419)
(-7.16331e-05 -7.65539e-05 0.104717)
(2.13892e-07 -8.72308e-06 0.107422)
(-5.30547e-05 1.09526e-05 0.107366)
(-4.65646e-05 -6.9588e-05 0.107786)
(0.000109794 -8.73297e-05 0.10777)
(-7.87494e-05 6.58404e-05 0.104302)
(0.000129192 -0.000115954 0.104701)
(-1.28561e-05 3.8831e-06 0.107426)
(6.85669e-06 -5.26308e-05 0.107387)
(-6.56824e-05 -5.25044e-05 0.107789)
(-8.29668e-05 0.000105646 0.107779)
(-1.55368e-05 -3.28619e-05 0.107387)
(9.7047e-05 -9.31154e-05 0.107771)
(8.8962e-05 8.87504e-05 0.107786)
(6.45615e-05 -7.69312e-05 0.104338)
(-0.000112534 0.000127443 0.104707)
(-3.65126e-05 -1.19342e-05 0.107389)
(-8.72898e-05 9.43814e-05 0.107782)
(9.2788e-05 8.72913e-05 0.107789)
(0.000115875 0.000113194 0.104719)
(-7.35178e-05 -7.93809e-05 0.105039)
(-4.15645e-05 -6.66201e-05 0.107927)
(0.000103813 -8.61339e-05 0.107918)
(0.000127581 -0.000112498 0.105045)
(-6.15502e-05 -4.82246e-05 0.107929)
(-8.04263e-05 9.99018e-05 0.107922)
(8.92855e-05 -7.44265e-05 0.111257)
(-6.77197e-05 8.43154e-05 0.111267)
(7.74489e-05 7.37179e-05 0.11127)
(8.92337e-05 8.19277e-05 0.107928)
(-0.000109345 0.000126279 0.105042)
(8.661e-05 8.66646e-05 0.107931)
(-2.88989e-07 -1.29016e-05 0.0914223)
(-1.80129e-06 -8.5971e-06 0.0822849)
(3.0526e-06 -3.50026e-06 0.0716069)
(-8.5759e-06 -1.77353e-06 0.0822855)
(-1.09345e-05 -1.08895e-05 0.112453)
(1.08321e-05 -1.09804e-05 0.112454)
(-1.09774e-05 1.07156e-05 0.112452)
(1.07346e-05 1.06737e-05 0.112452)
(2.22389e-05 -6.42261e-07 0.0985738)
(1.19373e-05 -6.02978e-06 0.10749)
(1.71172e-05 -6.076e-06 0.0930642)
(1.46194e-05 -3.01163e-06 0.109908)
(-2.131e-07 -1.14495e-05 0.0914537)
(4.67859e-07 3.89347e-06 0.0822757)
(-2.60374e-07 -3.32625e-10 0.0914134)
(-9.80932e-07 -7.81375e-06 0.0823241)
(-1.3366e-06 2.1079e-06 0.0715952)
(2.13106e-06 -3.06021e-06 0.0716425)
(-1.14935e-05 -2.68439e-07 0.0914539)
(3.90014e-06 4.05689e-07 0.0822764)
(-7.5819e-08 -3.07809e-07 0.0914136)
(-7.8526e-06 -1.00565e-06 0.0823249)
(1.08584e-05 -1.08437e-05 0.112445)
(-1.07905e-05 1.07034e-05 0.112444)
(1.08331e-05 1.0769e-05 0.112444)
(-1.15773e-05 -1.16233e-05 0.112419)
(1.17565e-05 -1.14962e-05 0.112419)
(-1.14742e-05 1.18348e-05 0.112418)
(1.19492e-05 1.20033e-05 0.112418)
(2.06053e-05 -3.63433e-07 0.0985942)
(-3.4559e-06 6.40821e-07 0.093037)
(1.39464e-05 -2.64705e-06 0.109895)
(1.13423e-05 -6.03515e-06 0.107481)
(-1.0934e-06 -4.24049e-07 0.0985388)
(1.48528e-05 -4.69199e-06 0.0930924)
(1.38779e-05 -2.6552e-06 0.10989)
(2.15043e-06 -1.40464e-06 0.0715977)
(-3.20818e-06 2.13793e-06 0.0716409)
(-3.23115e-07 2.05247e-05 0.0985938)
(-2.5311e-06 1.38519e-05 0.109893)
(7.03612e-07 -3.36064e-06 0.093037)
(-5.83957e-06 1.1196e-05 0.10748)
(-3.70987e-07 -1.13357e-06 0.0985383)
(-2.53336e-06 1.37862e-05 0.109889)
(-4.49783e-06 1.4714e-05 0.0930914)
(-7.51303e-07 -2.2074e-06 0.0875924)
(-2.1713e-06 -7.68651e-07 0.0875916)
(4.42531e-05 4.42183e-05 0.104312)
(5.26616e-06 4.5053e-06 0.0876355)
(4.49909e-06 5.24165e-06 0.087634)
(-4.12606e-07 -1.15954e-05 0.091485)
(7.59314e-07 5.33273e-06 0.0823048)
(-4.36737e-07 1.73574e-06 0.0914445)
(-1.39901e-06 -7.78919e-06 0.08235)
(-1.17261e-06 2.8811e-06 0.0716141)
(2.86133e-06 -2.88074e-06 0.0716614)
(-1.1479e-05 -2.6909e-07 0.0914849)
(5.3557e-06 8.33347e-07 0.0823057)
(1.87741e-06 -3.15436e-07 0.0914445)
(-7.78206e-06 -1.30699e-06 0.0823505)
(1.20387e-05 -1.18291e-05 0.11241)
(-1.19382e-05 1.2275e-05 0.112409)
(1.22527e-05 1.23945e-05 0.112409)
(-1.20217e-05 -1.18363e-05 0.112382)
(1.18084e-05 -1.19192e-05 0.112382)
(-1.20991e-05 1.18631e-05 0.11238)
(1.15738e-05 1.16489e-05 0.112381)
(2.13579e-05 -4.68705e-07 0.0986176)
(-4.51189e-06 1.59169e-06 0.0930666)
(1.48896e-05 -2.89505e-06 0.109877)
(1.24747e-05 -6.63939e-06 0.107475)
(-2.05661e-06 -4.37615e-07 0.0985608)
(1.60198e-05 -5.0395e-06 0.0931226)
(1.52893e-05 -2.96809e-06 0.109871)
(3.09853e-06 -1.26609e-06 0.0716152)
(-2.76616e-06 3.00319e-06 0.0716574)
(-7.04168e-07 2.14507e-05 0.0986174)
(-3.1311e-06 1.49979e-05 0.109875)
(1.66437e-06 -4.8384e-06 0.0930666)
(-7.08577e-06 1.2797e-05 0.107474)
(-5.77369e-07 -2.1662e-06 0.0985606)
(-3.29169e-06 1.54761e-05 0.10987)
(-5.21357e-06 1.61348e-05 0.093122)
(-4.585e-07 -1.76773e-06 0.0876229)
(-1.85837e-06 -3.81887e-07 0.0876222)
(4.41387e-05 4.43209e-05 0.10432)
(8.04989e-06 5.89794e-06 0.0876672)
(5.88324e-06 8.10985e-06 0.0876657)
(-6.95364e-08 -1.22043e-05 0.0915164)
(-1.26948e-07 3.61121e-06 0.0823383)
(-8.7565e-08 -4.91137e-07 0.0914765)
(-1.23033e-06 -8.49342e-06 0.082389)
(-8.04549e-07 1.86641e-06 0.0716494)
(2.45442e-06 -3.26848e-06 0.0717008)
(-1.24008e-05 -3.04116e-07 0.0915168)
(3.6405e-06 -2.77793e-07 0.0823389)
(-7.51073e-07 -2.25248e-07 0.0914768)
(-8.55903e-06 -1.3879e-06 0.0823899)
(1.1558e-05 -1.17045e-05 0.112373)
(-1.16397e-05 1.1332e-05 0.112372)
(1.11923e-05 1.10982e-05 0.112372)
(-1.12399e-05 -1.15643e-05 0.112349)
(1.17333e-05 -1.17136e-05 0.112349)
(-1.13033e-05 1.14338e-05 0.112347)
(1.17217e-05 1.14975e-05 0.112347)
(2.12948e-05 -7.44037e-07 0.09864)
(-2.77452e-06 -2.58127e-08 0.0930963)
(1.48283e-05 -3.14452e-06 0.109859)
(1.13446e-05 -6.11296e-06 0.107469)
(-4.7129e-07 -7.02618e-07 0.098585)
(1.56907e-05 -5.5765e-06 0.0931509)
(1.44001e-05 -3.18498e-06 0.109855)
(1.74846e-06 -5.99924e-07 0.0716521)
(-3.51119e-06 2.45209e-06 0.0717015)
(-4.23988e-07 2.12578e-05 0.0986395)
(-2.87504e-06 1.47417e-05 0.109857)
(-3.30669e-07 -2.21225e-06 0.0930967)
(-5.47874e-06 1.09335e-05 0.107467)
(-4.96234e-07 -2.8847e-07 0.0985848)
(-2.6951e-06 1.41411e-05 0.109854)
(-5.47034e-06 1.57812e-05 0.0931497)
(4.64903e-08 -1.41504e-06 0.0876553)
(-1.23702e-06 -2.74428e-08 0.0876545)
(4.30316e-05 4.2718e-05 0.104321)
(5.95867e-06 4.855e-06 0.0876987)
(4.99641e-06 5.8412e-06 0.0876972)
(-6.87712e-07 -1.08759e-05 0.091547)
(8.23267e-07 5.4556e-06 0.0823722)
(-4.2749e-07 1.76549e-06 0.0915071)
(-1.17651e-06 -7.16862e-06 0.0824157)
(-1.18934e-06 2.84878e-06 0.0716763)
(2.81528e-06 -2.61257e-06 0.0717214)
(-1.05383e-05 -4.50281e-07 0.0915468)
(5.48898e-06 8.75069e-07 0.0823734)
(2.00527e-06 -3.90229e-07 0.091507)
(-7.12204e-06 -9.72228e-07 0.0824164)
(1.19964e-05 -1.19453e-05 0.11234)
(-1.1721e-05 1.19725e-05 0.112339)
(1.22059e-05 1.21964e-05 0.112339)
(-1.30504e-05 -1.26008e-05 0.112313)
(1.20036e-05 -1.20934e-05 0.112313)
(-1.26821e-05 1.25564e-05 0.112312)
(1.23131e-05 1.2732e-05 0.112312)
(2.06699e-05 -2.39416e-07 0.0986616)
(-4.82553e-06 1.38479e-06 0.0931246)
(1.45757e-05 -2.99383e-06 0.109843)
(1.22714e-05 -6.87558e-06 0.107463)
(-2.2383e-06 -4.07574e-07 0.0986057)
(1.53709e-05 -4.79938e-06 0.0931801)
(1.50162e-05 -2.8946e-06 0.109838)
(3.0287e-06 -1.54321e-06 0.0716793)
(-2.44594e-06 2.69817e-06 0.071717)
(-5.6617e-07 2.05506e-05 0.0986614)
(-2.97185e-06 1.45136e-05 0.109842)
(1.89889e-06 -5.51086e-06 0.093124)
(-7.24742e-06 1.25666e-05 0.107462)
(-4.24365e-07 -2.5539e-06 0.0986052)
(-3.16341e-06 1.51775e-05 0.109837)
(-4.49583e-06 1.49497e-05 0.0931792)
(-1.65614e-06 -2.23724e-06 0.0876855)
(-2.41239e-06 -1.55102e-06 0.0876847)
(4.46973e-05 4.50526e-05 0.10433)
(7.01035e-06 5.62964e-06 0.0877294)
(5.40468e-06 7.17964e-06 0.087728)
(-2.91463e-08 -1.27111e-05 0.0915788)
(-5.07844e-07 3.95527e-06 0.082401)
(-2.96541e-07 -4.5704e-07 0.0915387)
(-1.90143e-06 -9.02013e-06 0.0824528)
(-4.46211e-07 2.00607e-06 0.0717066)
(2.47608e-06 -3.42642e-06 0.0717605)
(-1.30907e-05 1.51547e-08 0.0915794)
(4.00593e-06 -3.68026e-07 0.0824011)
(-4.78836e-07 -4.37168e-08 0.0915389)
(-9.09413e-06 -1.97059e-06 0.0824528)
(1.16807e-05 -1.17496e-05 0.112304)
(-1.24166e-05 1.21382e-05 0.112303)
(1.17424e-05 1.2034e-05 0.112303)
(-1.05876e-05 -1.06471e-05 0.11228)
(1.15485e-05 -1.1273e-05 0.11228)
(-1.11411e-05 1.12227e-05 0.112279)
(1.10757e-05 1.08153e-05 0.112279)
(2.15877e-05 -5.03171e-07 0.0986855)
(-2.40162e-06 1.18876e-07 0.0931544)
(1.53345e-05 -2.66014e-06 0.109825)
(1.12098e-05 -5.23322e-06 0.107457)
(-4.26487e-07 -3.15991e-07 0.0986298)
(1.61277e-05 -5.60851e-06 0.0932086)
(1.47803e-05 -2.71067e-06 0.109821)
(2.26879e-06 -2.25109e-07 0.0717044)
(-3.75434e-06 2.99755e-06 0.0717567)
(-6.61985e-07 2.17955e-05 0.0986855)
(-3.24025e-06 1.55761e-05 0.109824)
(-3.63272e-07 -2.16629e-06 0.0931551)
(-5.77089e-06 1.13684e-05 0.107457)
(-6.42156e-07 -2.01987e-07 0.0986301)
(-3.11205e-06 1.48642e-05 0.10982)
(-6.29343e-06 1.65528e-05 0.0932081)
(9.20261e-07 -5.36003e-07 0.0877181)
(-5.28698e-07 9.70362e-07 0.0877174)
(4.18505e-05 4.17474e-05 0.104334)
(6.9143e-06 5.43446e-06 0.0877616)
(5.57981e-06 6.87396e-06 0.08776)
(-2.22573e-07 -9.32134e-06 0.0916079)
(1.09422e-06 5.36549e-06 0.0824389)
(9.23674e-08 2.1369e-06 0.0915689)
(-1.15965e-07 -6.37973e-06 0.0824804)
(-1.81769e-06 2.77386e-06 0.0717344)
(2.14005e-06 -2.16819e-06 0.0717723)
(-9.49569e-06 -6.88335e-07 0.0916084)
(5.29347e-06 7.5634e-07 0.0824402)
(1.64369e-06 -3.17611e-07 0.0915693)
(-6.34522e-06 -4.27551e-07 0.0824822)
(1.20031e-05 -1.17202e-05 0.112273)
(-1.10989e-05 1.13583e-05 0.112272)
(1.16464e-05 1.12565e-05 0.112272)
(-1.27613e-05 -1.34438e-05 0.112248)
(1.28585e-05 -1.30197e-05 0.112248)
(-1.22319e-05 1.2534e-05 0.112247)
(1.32319e-05 1.30285e-05 0.112247)
(1.91653e-05 -7.74872e-07 0.0987078)
(-6.20323e-06 1.87865e-06 0.0931816)
(1.40497e-05 -3.40922e-06 0.109813)
(1.1851e-05 -7.70427e-06 0.107456)
(-2.93726e-06 -7.43673e-07 0.0986522)
(1.31884e-05 -3.93372e-06 0.0932368)
(1.44162e-05 -3.59838e-06 0.109809)
(2.56231e-06 -1.74117e-06 0.0717412)
(-2.5332e-06 1.90335e-06 0.0717778)
(8.1479e-08 1.90605e-05 0.0987069)
(-2.52296e-06 1.37945e-05 0.109811)
(1.80798e-06 -5.09684e-06 0.0931818)
(-6.11486e-06 1.11942e-05 0.107454)
(-2.09382e-07 -2.74457e-06 0.0986513)
(-2.41784e-06 1.40445e-05 0.109808)
(-3.29717e-06 1.31296e-05 0.0932356)
(-3.15187e-06 -3.26486e-06 0.0877471)
(-3.03205e-06 -3.31179e-06 0.0877462)
(4.47982e-05 4.44812e-05 0.104342)
(4.99964e-06 4.15984e-06 0.0877891)
(4.28892e-06 4.88754e-06 0.0877877)
(-4.08639e-07 -1.30895e-05 0.0916393)
(1.79908e-07 4.88302e-06 0.0824566)
(-5.02977e-07 8.58607e-07 0.0915989)
(-2.44762e-06 -8.6789e-06 0.0825058)
(-2.33903e-07 2.59774e-06 0.0717478)
(3.50628e-06 -3.81548e-06 0.0718054)
(-1.23895e-05 2.81779e-07 0.0916386)
(4.97773e-06 5.65335e-07 0.0824582)
(1.67268e-06 -1.36163e-07 0.0915982)
(-8.50004e-06 -2.04106e-06 0.0825058)
(1.24861e-05 -1.27411e-05 0.11224)
(-1.27933e-05 1.288e-05 0.112239)
(1.29015e-05 1.30549e-05 0.112239)
(-1.1878e-05 -1.09262e-05 0.112214)
(1.08788e-05 -1.10094e-05 0.112214)
(-1.20936e-05 1.15191e-05 0.112213)
(1.06706e-05 1.11605e-05 0.112213)
(2.20056e-05 -1.4707e-08 0.098732)
(-2.76243e-06 5.89553e-07 0.0932119)
(1.56955e-05 -2.9706e-06 0.109797)
(1.15676e-05 -5.25368e-06 0.107452)
(-1.29262e-06 -2.7765e-07 0.0986763)
(1.73045e-05 -6.25025e-06 0.093266)
(1.53607e-05 -2.55917e-06 0.109792)
(3.02134e-06 -7.72924e-07 0.0717484)
(-3.0459e-06 3.36703e-06 0.0717948)
(-1.21494e-06 2.18464e-05 0.0987319)
(-3.50936e-06 1.57412e-05 0.109796)
(1.23707e-06 -4.56949e-06 0.0932108)
(-7.23931e-06 1.24675e-05 0.107451)
(-6.99508e-07 -1.85747e-06 0.098676)
(-3.89374e-06 1.57635e-05 0.109791)
(-6.33696e-06 1.67486e-05 0.0932652)
(1.01415e-06 -1.06875e-06 0.0877761)
(-1.35051e-06 1.19273e-06 0.0877756)
(4.17276e-05 4.22502e-05 0.104352)
(7.86394e-06 6.55874e-06 0.0878193)
(6.27549e-06 8.10084e-06 0.0878179)
(-2.15398e-07 -1.06164e-05 0.0916675)
(1.68142e-07 4.36594e-06 0.0824962)
(-3.88736e-07 7.18706e-07 0.0916284)
(-1.08833e-06 -7.26773e-06 0.0825425)