/*--------------------------------*- C++ -*----------------------------------*\
| =========                 |                                                 |
| \\      /  F ield         | OpenFOAM: The Open Source CFD Toolbox           |
|  \\    /   O peration     | Version:  2312                                  |
|   \\  /    A nd           | Website:  www.openfoam.com                      |
|    \\/     M anipulation  |                                                 |
\*---------------------------------------------------------------------------*/
FoamFile
{
    version     2.0;
    format      ascii;
    arch        "LSB;label=32;scalar=64";
    class       volScalarField;
    location    "950";
    object      epsilon;
}
// * * * * * * * * * * * * * * * * * * * * * * * * * * * * * * * * * * * * * //

dimensions      [0 2 -3 0 0 0 0];

internalField   nonuniform List<scalar> 
42840
(
1.31327e-07
2.40751e-07
2.40754e-07
3.83096e-07
1.29947e-07
2.53393e-07
2.53403e-07
4.12432e-07
1.29347e-07
2.68066e-07
2.68083e-07
4.43551e-07
1.2953e-07
2.84705e-07
2.84729e-07
4.77072e-07
1.30472e-07
3.0322e-07
3.03251e-07
5.12308e-07
1.32174e-07
3.23509e-07
3.23548e-07
5.48758e-07
1.34635e-07
3.4545e-07
3.45498e-07
5.85929e-07
1.37858e-07
3.68906e-07
3.68962e-07
6.23551e-07
1.41842e-07
3.93731e-07
3.93799e-07
6.61136e-07
1.46594e-07
4.1977e-07
4.19849e-07
6.9843e-07
1.52119e-07
4.46864e-07
4.46951e-07
7.35154e-07
1.58422e-07
4.74836e-07
4.74935e-07
7.70945e-07
1.65507e-07
5.03516e-07
5.03622e-07
8.05767e-07
1.73376e-07
5.32735e-07
5.32844e-07
8.39493e-07
1.82031e-07
5.62316e-07
5.62426e-07
8.72087e-07
1.91466e-07
5.92085e-07
5.92197e-07
9.03494e-07
2.01674e-07
6.21878e-07
6.21991e-07
9.3369e-07
2.1264e-07
6.51533e-07
6.51653e-07
9.62698e-07
2.24343e-07
6.809e-07
6.81027e-07
9.9051e-07
2.36757e-07
7.09849e-07
7.09983e-07
1.01715e-06
2.49848e-07
7.38264e-07
7.38405e-07
1.0426e-06
2.63577e-07
7.66036e-07
7.66178e-07
1.06699e-06
2.77893e-07
7.9307e-07
7.93213e-07
1.0903e-06
2.92741e-07
8.19289e-07
8.19428e-07
1.1126e-06
3.08056e-07
8.44627e-07
8.4476e-07
1.13387e-06
3.8361e-07
4.05046e-07
2.40816e-07
2.40846e-07
2.50112e-07
2.50148e-07
3.84072e-07
4.05557e-07
2.40765e-07
2.40856e-07
2.50057e-07
2.50159e-07
2.40799e-07
2.50049e-07
2.50101e-07
3.83681e-07
4.05206e-07
2.40787e-07
2.50052e-07
2.50092e-07
4.06111e-07
4.12539e-07
4.36057e-07
2.53472e-07
2.53503e-07
2.64297e-07
2.6433e-07
4.12607e-07
4.3638e-07
2.53415e-07
2.53514e-07
2.64236e-07
2.64345e-07
2.53456e-07
2.64217e-07
2.64281e-07
4.12685e-07
4.3604e-07
2.53444e-07
2.64231e-07
2.64273e-07
4.36773e-07
4.44065e-07
4.69246e-07
2.68159e-07
2.68188e-07
2.80463e-07
2.80495e-07
4.44133e-07
4.68849e-07
2.68095e-07
2.68202e-07
2.80395e-07
2.80514e-07
2.6814e-07
2.8037e-07
2.80449e-07
4.4432e-07
4.6959e-07
2.68129e-07
2.80393e-07
2.80437e-07
4.69904e-07
4.77635e-07
5.03968e-07
2.84807e-07
2.84838e-07
2.98529e-07
2.98562e-07
4.78028e-07
5.03887e-07
2.84738e-07
2.84853e-07
2.98455e-07
2.98581e-07
2.84793e-07
2.98426e-07
2.98522e-07
4.77715e-07
5.04034e-07
2.84776e-07
2.98455e-07
2.98502e-07
5.04752e-07
5.12816e-07
5.40123e-07
3.03332e-07
3.03364e-07
3.18395e-07
3.1843e-07
5.12793e-07
5.40398e-07
3.03257e-07
3.03381e-07
3.18312e-07
3.18451e-07
3.03326e-07
3.18282e-07
3.18396e-07
5.12855e-07
5.40211e-07
3.03301e-07
3.18318e-07
3.18368e-07
5.40836e-07
5.49265e-07
5.77435e-07
3.2363e-07
3.23666e-07
3.39946e-07
3.39983e-07
5.49376e-07
5.7736e-07
3.23547e-07
3.23685e-07
3.39853e-07
3.40006e-07
3.23633e-07
3.39821e-07
3.39956e-07
5.49295e-07
5.77177e-07
3.236e-07
3.39865e-07
3.39919e-07
5.77889e-07
5.86605e-07
6.14898e-07
3.45583e-07
3.4562e-07
3.63049e-07
3.63085e-07
5.86524e-07
6.15006e-07
3.45489e-07
3.45642e-07
3.62946e-07
3.63117e-07
3.45596e-07
3.62912e-07
3.6307e-07
5.86535e-07
6.14641e-07
3.45552e-07
3.62966e-07
3.63025e-07
6.15419e-07
6.24124e-07
6.52166e-07
3.69049e-07
3.6909e-07
3.8756e-07
3.87597e-07
6.24017e-07
6.52112e-07
3.68947e-07
3.69118e-07
3.87446e-07
3.87638e-07
3.69074e-07
3.87409e-07
3.87592e-07
6.24108e-07
6.52487e-07
3.69022e-07
3.87472e-07
3.87537e-07
6.53239e-07
6.61654e-07
6.894e-07
3.93887e-07
3.93926e-07
4.13326e-07
4.13359e-07
6.61705e-07
6.89494e-07
3.93778e-07
3.93965e-07
4.13201e-07
4.13406e-07
3.93923e-07
4.13156e-07
4.13363e-07
6.61797e-07
6.89373e-07
3.93864e-07
4.13231e-07
4.13303e-07
6.90777e-07
6.99063e-07
7.2591e-07
4.1994e-07
4.19977e-07
4.4018e-07
4.40214e-07
6.98939e-07
7.25999e-07
4.19824e-07
4.20022e-07
4.40049e-07
4.40267e-07
4.19982e-07
4.40001e-07
4.40223e-07
6.99287e-07
7.25797e-07
4.19915e-07
4.40087e-07
4.40159e-07
7.27587e-07
7.35932e-07
7.61589e-07
4.47043e-07
4.47076e-07
4.67962e-07
4.67994e-07
7.35978e-07
7.61616e-07
4.46918e-07
4.47128e-07
4.6782e-07
4.68049e-07
4.4709e-07
4.6777e-07
4.6801e-07
7.36507e-07
7.6183e-07
4.47017e-07
4.67866e-07
4.67932e-07
7.63544e-07
7.72244e-07
7.96686e-07
4.7503e-07
4.75057e-07
4.96493e-07
4.96523e-07
7.72404e-07
7.96792e-07
4.74894e-07
4.75111e-07
4.96346e-07
4.96583e-07
4.75079e-07
4.9629e-07
4.96542e-07
7.72599e-07
7.96895e-07
4.74993e-07
4.96395e-07
4.96455e-07
7.98506e-07
8.07348e-07
8.30702e-07
5.03721e-07
5.03745e-07
5.25601e-07
5.2563e-07
8.07415e-07
8.30792e-07
5.0358e-07
5.03801e-07
5.25446e-07
5.25686e-07
5.03774e-07
5.25391e-07
5.25651e-07
8.07504e-07
8.30831e-07
5.03676e-07
5.25501e-07
5.25555e-07
8.32426e-07
8.4116e-07
8.63529e-07
5.32943e-07
5.32969e-07
5.55112e-07
5.55135e-07
8.41252e-07
8.63606e-07
5.32794e-07
5.33019e-07
5.54946e-07
5.55192e-07
5.33e-07
5.54898e-07
5.55167e-07
8.41286e-07
8.63644e-07
5.32893e-07
5.55009e-07
5.55055e-07
8.65188e-07
8.73794e-07
8.95134e-07
5.62529e-07
5.62547e-07
5.8485e-07
5.84872e-07
8.73858e-07
8.95206e-07
5.62368e-07
5.62594e-07
5.84673e-07
5.84925e-07
5.62588e-07
5.84635e-07
5.84911e-07
8.73871e-07
8.95238e-07
5.62466e-07
5.84748e-07
5.8479e-07
8.96764e-07
9.05216e-07
9.25578e-07
5.92299e-07
5.92313e-07
6.14652e-07
6.14666e-07
9.05256e-07
9.25617e-07
5.92127e-07
5.92358e-07
6.14468e-07
6.14719e-07
5.92363e-07
6.14436e-07
6.14718e-07
9.05277e-07
9.2564e-07
5.92234e-07
6.14552e-07
6.14584e-07
9.27124e-07
9.35414e-07
9.54796e-07
6.22092e-07
6.22096e-07
6.44356e-07
6.44358e-07
9.35435e-07
9.5481e-07
6.21911e-07
6.22142e-07
6.44165e-07
6.44415e-07
6.22159e-07
6.44137e-07
6.44421e-07
9.35464e-07
9.54857e-07
6.22017e-07
6.44257e-07
6.44277e-07
9.56313e-07
9.64402e-07
9.82799e-07
6.51749e-07
6.5174e-07
6.73808e-07
6.738e-07
9.64409e-07
9.8281e-07
6.51561e-07
6.51792e-07
6.73609e-07
6.73861e-07
6.51814e-07
6.7359e-07
6.73873e-07
9.64471e-07
9.82884e-07
6.51661e-07
6.73716e-07
6.73718e-07
9.843e-07
9.92137e-07
1.00966e-06
6.8112e-07
6.811e-07
7.0287e-07
7.02854e-07
9.92143e-07
1.00963e-06
6.8092e-07
6.81156e-07
7.02668e-07
7.02921e-07
6.81183e-07
7.02655e-07
7.02941e-07
9.9223e-07
1.0097e-06
6.8102e-07
7.02789e-07
7.02778e-07
1.01112e-06
1.01869e-06
1.03533e-06
7.10065e-07
7.10037e-07
7.31422e-07
7.31399e-07
1.01872e-06
1.03532e-06
7.09862e-07
7.10103e-07
7.31221e-07
7.31477e-07
7.10136e-07
7.31213e-07
7.315e-07
1.01881e-06
1.03543e-06
7.09965e-07
7.31354e-07
7.31331e-07
1.03678e-06
1.04412e-06
1.05994e-06
7.38471e-07
7.38438e-07
7.59356e-07
7.59329e-07
1.04413e-06
1.05992e-06
7.38271e-07
7.38515e-07
7.59154e-07
7.59414e-07
7.38549e-07
7.59155e-07
7.59439e-07
1.04426e-06
1.06e-06
7.38371e-07
7.59299e-07
7.59262e-07
1.06135e-06
1.06844e-06
1.08347e-06
7.66233e-07
7.66197e-07
7.86574e-07
7.86541e-07
1.06847e-06
1.08344e-06
7.66034e-07
7.66281e-07
7.86373e-07
7.86633e-07
7.66319e-07
7.86382e-07
7.86656e-07
1.06858e-06
1.08359e-06
7.66134e-07
7.86528e-07
7.86474e-07
1.08485e-06
1.09175e-06
1.10599e-06
7.93261e-07
7.93216e-07
8.12997e-07
8.12952e-07
1.09173e-06
1.10595e-06
7.93061e-07
7.93311e-07
8.12795e-07
8.13049e-07
7.93344e-07
8.12811e-07
8.13078e-07
1.09184e-06
1.10602e-06
7.93155e-07
8.12954e-07
8.1289e-07
1.10732e-06
1.1139e-06
1.12811e-06
8.1947e-07
8.1942e-07
8.38548e-07
8.38499e-07
1.11395e-06
1.12802e-06
8.19268e-07
8.19518e-07
8.38344e-07
8.38599e-07
8.19558e-07
8.38377e-07
8.38635e-07
1.11405e-06
1.12811e-06
8.19366e-07
8.38512e-07
8.38445e-07
1.12878e-06
1.13432e-06
8.44796e-07
8.44744e-07
1.1345e-06
8.44593e-07
8.44843e-07
8.44894e-07
1.13457e-06
8.44695e-07
3.75876e-06
8.92058e-06
8.92542e-06
3.73484e-06
1.84402e-05
1.8433e-05
3.75916e-06
8.92183e-06
8.92669e-06
3.73496e-06
1.31331e-07
1.31334e-07
1.31333e-07
1.30227e-07
1.30233e-07
1.30236e-07
1.30235e-07
1.24185e-06
2.86792e-06
1.59579e-07
2.43727e-07
2.89011e-06
1.60132e-07
1.21422e-06
1.84411e-05
1.84339e-05
1.24202e-06
1.59598e-07
2.86924e-06
2.43731e-07
1.60129e-07
2.88873e-06
1.2142e-06
5.17138e-06
5.17161e-06
3.91481e-07
5.17841e-06
5.18188e-06
3.81867e-06
8.93044e-06
3.80015e-06
8.93476e-06
1.84135e-05
1.8407e-05
3.81879e-06
8.93172e-06
3.8001e-06
8.93604e-06
1.29952e-07
1.29955e-07
1.29954e-07
1.2944e-07
1.29445e-07
1.29449e-07
1.29448e-07
1.32245e-06
2.92977e-06
1.62227e-07
2.5688e-07
1.29599e-06
2.94929e-06
1.63118e-07
1.84144e-05
1.84079e-05
1.32263e-06
1.62255e-07
2.93104e-06
2.56893e-07
1.29611e-06
1.63121e-07
2.948e-06
5.19901e-06
5.20046e-06
4.2112e-07
5.206e-06
5.20834e-06
3.86386e-06
8.93902e-06
3.85089e-06
8.94288e-06
1.83891e-05
1.83834e-05
3.86457e-06
8.94029e-06
3.8504e-06
8.94414e-06
1.29352e-07
1.29357e-07
1.29355e-07
1.29416e-07
1.29421e-07
1.29427e-07
1.29425e-07
1.39821e-06
2.98426e-06
1.66223e-07
2.72051e-07
1.3742e-06
3.00139e-06
1.67456e-07
1.839e-05
1.83843e-05
1.39854e-06
1.66257e-07
2.98546e-06
2.72071e-07
1.37409e-06
1.67464e-07
3.00021e-06
5.22277e-06
5.22375e-06
4.53141e-07
5.22802e-06
5.23048e-06
3.89866e-06
8.94652e-06
3.88907e-06
8.9499e-06
1.83672e-05
1.83622e-05
3.89935e-06
8.9478e-06
3.88856e-06
8.95115e-06
1.29534e-07
1.29541e-07
1.2954e-07
1.30165e-07
1.30169e-07
1.30177e-07
1.30176e-07
1.46857e-06
3.03223e-06
1.7158e-07
2.89169e-07
1.44674e-06
3.04732e-06
1.73157e-07
1.8368e-05
1.8363e-05
1.469e-06
1.7162e-07
3.03339e-06
2.89193e-07
1.44653e-06
1.73168e-07
3.04618e-06
5.24274e-06
5.24399e-06
4.87117e-07
5.24737e-06
5.24949e-06
3.92509e-06
8.95308e-06
3.918e-06
8.95607e-06
1.83473e-05
1.83432e-05
3.92575e-06
8.95438e-06
3.91749e-06
8.95731e-06
1.30475e-07
1.30484e-07
1.30484e-07
1.31677e-07
1.31681e-07
1.31691e-07
1.31691e-07
1.53309e-06
3.07458e-06
1.78305e-07
3.08138e-07
1.51317e-06
3.08789e-06
1.80226e-07
1.83481e-05
1.83439e-05
1.53339e-06
1.78352e-07
3.07567e-06
3.08169e-07
1.51301e-06
1.80242e-07
3.0868e-06
5.25978e-06
5.26118e-06
5.22728e-07
5.26353e-06
5.26561e-06
3.94528e-06
8.95898e-06
3.94007e-06
8.9617e-06
1.83297e-05
1.83262e-05
3.94594e-06
8.96032e-06
3.93957e-06
8.96296e-06
1.32178e-07
1.32188e-07
1.32189e-07
1.33949e-07
1.33953e-07
1.33965e-07
1.33967e-07
1.59136e-06
3.11205e-06
1.86399e-07
3.2885e-07
1.57335e-06
3.12381e-06
1.88664e-07
1.83304e-05
1.83269e-05
1.5919e-06
1.86453e-07
3.11309e-06
3.28889e-07
1.57311e-06
1.88686e-07
3.12278e-06
5.27426e-06
5.27581e-06
5.59375e-07
5.27775e-06
5.27956e-06
3.9612e-06
8.9645e-06
3.95711e-06
8.96709e-06
1.83141e-05
1.83115e-05
3.96161e-06
8.96589e-06
3.95662e-06
8.96835e-06
1.3464e-07
1.34652e-07
1.34655e-07
1.36981e-07
1.36985e-07
1.36999e-07
1.37004e-07
1.64405e-06
3.14535e-06
1.95853e-07
3.51182e-07
1.62733e-06
3.15583e-06
1.9846e-07
1.83149e-05
1.83122e-05
1.64418e-06
1.95914e-07
3.14636e-06
3.51229e-07
1.62728e-06
1.98485e-07
3.15487e-06
5.28692e-06
5.28848e-06
5.96641e-07
5.29005e-06
5.29181e-06
3.97334e-06
8.96988e-06
3.97024e-06
8.97246e-06
1.83009e-05
1.8299e-05
3.97392e-06
8.9713e-06
3.97007e-06
8.97369e-06
1.37863e-07
1.37878e-07
1.37883e-07
1.40776e-07
1.4078e-07
1.40797e-07
1.40803e-07
1.69084e-06
3.17517e-06
2.06647e-07
3.74996e-07
1.67585e-06
3.18457e-06
2.09587e-07
1.83015e-05
1.82997e-05
1.69088e-06
2.06721e-07
3.17614e-06
3.75053e-07
1.67586e-06
2.09621e-07
3.18365e-06
5.29824e-06
5.29988e-06
6.34397e-07
5.30107e-06
5.30281e-06
3.98351e-06
8.97533e-06
3.98102e-06
8.97801e-06
1.82899e-05
1.82889e-05
3.98371e-06
8.97677e-06
3.98077e-06
8.97917e-06
1.41847e-07
1.41865e-07
1.41872e-07
1.45337e-07
1.4534e-07
1.45361e-07
1.45368e-07
1.73226e-06
3.20209e-06
2.18754e-07
4.00136e-07
1.71956e-06
3.21059e-06
2.22022e-07
1.82905e-05
1.82895e-05
1.73276e-06
2.18841e-07
3.20302e-06
4.00204e-07
1.71933e-06
2.22068e-07
3.20971e-06
5.3086e-06
5.31026e-06
6.72105e-07
5.31119e-06
5.31293e-06
3.99191e-06
8.98101e-06
3.98988e-06
8.98389e-06
1.82812e-05
1.82811e-05
3.9921e-06
8.98247e-06
3.98971e-06
8.98495e-06
1.46599e-07
1.46621e-07
1.4663e-07
1.50668e-07
1.5067e-07
1.50695e-07
1.50704e-07
1.76994e-06
3.2266e-06
2.32144e-07
4.26453e-07
1.75842e-06
3.23436e-06
2.35727e-07
1.82819e-05
1.82817e-05
1.7701e-06
2.32245e-07
3.2275e-06
4.26532e-07
1.75827e-06
2.35786e-07
3.23353e-06
5.31826e-06
5.31994e-06
7.0925e-07
5.3207e-06
5.32244e-06
3.99921e-06
8.9871e-06
3.9974e-06
8.99029e-06
1.8275e-05
1.82757e-05
3.99934e-06
8.9886e-06
3.99736e-06
8.99126e-06
1.52123e-07
1.52149e-07
1.52159e-07
1.56776e-07
1.56778e-07
1.56806e-07
1.56816e-07
1.80379e-06
3.24935e-06
2.46773e-07
4.5378e-07
1.79342e-06
3.25582e-06
2.5066e-07
1.82757e-05
1.82764e-05
1.80395e-06
2.46884e-07
3.25e-06
4.5387e-07
1.79338e-06
2.50729e-07
3.25548e-06
5.32748e-06
5.32916e-06
7.45653e-07
5.32983e-06
5.33158e-06
4.00567e-06
8.99381e-06
4.00407e-06
8.99724e-06
1.82711e-05
1.82727e-05
4.00571e-06
8.99529e-06
4.00404e-06
8.99819e-06
1.58426e-07
1.58454e-07
1.58467e-07
1.63665e-07
1.63666e-07
1.63698e-07
1.6371e-07
1.8345e-06
3.27001e-06
2.62588e-07
4.81944e-07
1.8251e-06
3.27635e-06
2.66763e-07
1.82718e-05
1.82734e-05
1.8347e-06
2.6271e-07
3.27093e-06
4.82046e-07
1.82511e-06
2.66841e-07
3.27577e-06
5.33644e-06
5.33812e-06
7.8111e-07
5.33875e-06
5.3405e-06
4.01157e-06
9.00115e-06
4.01009e-06
9.00485e-06
1.82697e-05
1.82721e-05
4.01163e-06
9.00263e-06
4.01006e-06
9.00582e-06
1.6551e-07
1.65541e-07
1.65556e-07
1.71338e-07
1.71339e-07
1.71374e-07
1.71388e-07
1.86264e-06
3.28957e-06
2.7953e-07
5.10775e-07
1.85407e-06
3.29535e-06
2.83979e-07
1.82704e-05
1.82728e-05
1.8629e-06
2.79661e-07
3.2899e-06
5.10883e-07
1.85403e-06
2.84063e-07
3.29537e-06
5.34527e-06
5.34695e-06
8.15547e-07
5.34759e-06
5.34932e-06
4.01717e-06
9.00922e-06
4.01578e-06
9.01322e-06
1.82705e-05
1.82738e-05
4.01724e-06
9.01071e-06
4.01573e-06
9.0142e-06
1.73379e-07
1.73412e-07
1.7343e-07
1.79796e-07
1.79797e-07
1.79835e-07
1.79851e-07
1.88866e-06
3.30801e-06
2.97533e-07
5.40102e-07
1.88071e-06
3.31346e-06
3.02237e-07
1.82712e-05
1.82745e-05
1.88891e-06
2.97671e-07
3.30878e-06
5.40211e-07
1.88069e-06
3.02326e-07
3.31308e-06
5.35407e-06
5.35573e-06
8.48902e-07
5.35641e-06
5.35814e-06
4.02267e-06
9.01805e-06
4.0213e-06
9.02236e-06
1.82737e-05
1.82777e-05
4.02275e-06
9.01955e-06
4.02126e-06
9.02336e-06
1.82033e-07
1.82068e-07
1.82089e-07
1.89036e-07
1.89037e-07
1.89077e-07
1.89097e-07
1.91293e-06
3.32554e-06
3.16522e-07
5.69745e-07
1.90549e-06
3.33063e-06
3.2146e-07
1.82744e-05
1.82784e-05
1.91315e-06
3.16667e-07
3.32621e-06
5.69856e-07
1.90546e-06
3.21556e-07
3.3303e-06
5.3629e-06
5.36456e-06
8.81091e-07
5.36528e-06
5.36701e-06
4.02827e-06
9.02767e-06
4.02683e-06
9.03231e-06
1.8279e-05
1.82838e-05
4.02834e-06
9.0292e-06
4.02681e-06
9.03334e-06
1.91467e-07
1.91505e-07
1.91531e-07
1.99051e-07
1.99052e-07
1.99095e-07
1.99119e-07
1.93569e-06
3.3422e-06
3.36414e-07
5.99535e-07
1.92869e-06
3.3471e-06
3.41567e-07
1.82798e-05
1.82846e-05
1.93595e-06
3.36565e-07
3.34253e-06
5.99648e-07
1.92868e-06
3.41668e-07
3.34691e-06
5.37179e-06
5.37344e-06
9.12094e-07
5.37422e-06
5.37595e-06
4.034e-06
9.0381e-06
4.03251e-06
9.04305e-06
1.82865e-05
1.82921e-05
4.03415e-06
9.03966e-06
4.03245e-06
9.04411e-06
2.01674e-07
2.01715e-07
2.01744e-07
2.09828e-07
2.09828e-07
2.09874e-07
2.09902e-07
1.95725e-06
3.35817e-06
3.57125e-07
6.29304e-07
1.95059e-06
3.36286e-06
3.62471e-07
1.82872e-05
1.82928e-05
1.95745e-06
3.57285e-07
3.35866e-06
6.29423e-07
1.95065e-06
3.6258e-07
3.36248e-06
5.38077e-06
5.38241e-06
9.41849e-07
5.38326e-06
5.38499e-06
4.04002e-06
9.04932e-06
4.03844e-06
9.05458e-06
1.82959e-05
1.83023e-05
4.04018e-06
9.05089e-06
4.03837e-06
9.05571e-06
2.12639e-07
2.12683e-07
2.12714e-07
2.21348e-07
2.21348e-07
2.21397e-07
2.21427e-07
1.97778e-06
3.37347e-06
3.7857e-07
6.58901e-07
1.97141e-06
3.37797e-06
3.84085e-07
1.82967e-05
1.83029e-05
1.97797e-06
3.78736e-07
3.37376e-06
6.59025e-07
1.97146e-06
3.84197e-07
3.37757e-06
5.38983e-06
5.39146e-06
9.70443e-07
5.39238e-06
5.39411e-06
4.0464e-06
9.06135e-06
4.04466e-06
9.06695e-06
1.83071e-05
1.8314e-05
4.04656e-06
9.06262e-06
4.04461e-06
9.06821e-06
2.2434e-07
2.2439e-07
2.24422e-07
2.33587e-07
2.33586e-07
2.33639e-07
2.33671e-07
1.99743e-06
3.38815e-06
4.00653e-07
6.88176e-07
1.99129e-06
3.3925e-06
4.06311e-07
1.8308e-05
1.83149e-05
1.99757e-06
4.00822e-07
3.3886e-06
6.88305e-07
1.99136e-06
4.06428e-07
3.39217e-06
5.39898e-06
5.4006e-06
9.97844e-07
5.40159e-06
5.40333e-06
4.05295e-06
9.07411e-06
4.05116e-06
9.07997e-06
1.83201e-05
1.83278e-05
4.05325e-06
9.07538e-06
4.05117e-06
9.08125e-06
2.36753e-07
2.36809e-07
2.3684e-07
2.46513e-07
2.4651e-07
2.46569e-07
2.46601e-07
2.01624e-06
3.40235e-06
4.23272e-07
7.17001e-07
2.01038e-06
3.4065e-06
4.29046e-07
1.83211e-05
1.83286e-05
2.01639e-06
4.23443e-07
3.40281e-06
7.1714e-07
2.01042e-06
4.29165e-07
3.40617e-06
5.40821e-06
5.40982e-06
1.02406e-06
5.41089e-06
5.41264e-06
4.05993e-06
9.08754e-06
4.05808e-06
9.09366e-06
1.83349e-05
1.8343e-05
4.06025e-06
9.08882e-06
4.05791e-06
9.09494e-06
2.49843e-07
2.49905e-07
2.49937e-07
2.60086e-07
2.60083e-07
2.60147e-07
2.6018e-07
2.03435e-06
3.41602e-06
4.46321e-07
7.45264e-07
2.02869e-06
3.41999e-06
4.52184e-07
1.83359e-05
1.8344e-05
2.03445e-06
4.46494e-07
3.41646e-06
7.45409e-07
2.02874e-06
4.52303e-07
3.4197e-06
5.41749e-06
5.41912e-06
1.04918e-06
5.42025e-06
5.42197e-06
4.06715e-06
9.10161e-06
4.06526e-06
9.10796e-06
1.83511e-05
1.83598e-05
4.0675e-06
9.10289e-06
4.06517e-06
9.10924e-06
2.63571e-07
2.63638e-07
2.6367e-07
2.74261e-07
2.74257e-07
2.74326e-07
2.74358e-07
2.05174e-06
3.42919e-06
4.69695e-07
7.72861e-07
2.04632e-06
3.43299e-06
4.75621e-07
1.83522e-05
1.83608e-05
2.05183e-06
4.69867e-07
3.42961e-06
7.73007e-07
2.04637e-06
4.7574e-07
3.43273e-06
5.42681e-06
5.42853e-06
1.07321e-06
5.42965e-06
5.43132e-06
4.07455e-06
9.11625e-06
4.07254e-06
9.12281e-06
1.83687e-05
1.83779e-05
4.075e-06
9.11751e-06
4.07244e-06
9.12408e-06
2.77886e-07
2.77959e-07
2.7799e-07
2.88982e-07
2.88977e-07
2.89051e-07
2.89084e-07
2.06844e-06
3.44171e-06
4.93283e-07
7.99697e-07
2.06325e-06
3.44566e-06
4.99247e-07
1.83699e-05
1.8379e-05
2.06849e-06
4.93452e-07
3.4423e-06
7.99843e-07
2.06327e-06
4.99362e-07
3.4453e-06
5.43625e-06
5.43781e-06
1.09617e-06
5.43899e-06
5.44068e-06
4.08217e-06
9.1316e-06
4.08012e-06
9.13785e-06
1.83877e-05
1.83974e-05
4.0825e-06
9.13263e-06
4.08015e-06
9.1394e-06
2.92733e-07
2.92811e-07
2.92843e-07
3.04187e-07
3.04181e-07
3.0426e-07
3.04294e-07
2.08444e-06
3.45411e-06
5.16978e-07
8.25702e-07
2.07947e-06
3.45772e-06
5.22953e-07
1.83889e-05
1.83986e-05
2.08448e-06
5.17143e-07
3.45437e-06
8.25843e-07
2.07948e-06
5.23065e-07
3.45756e-06
5.44561e-06
5.4472e-06
1.11812e-06
5.44838e-06
5.45007e-06
4.08996e-06
9.14714e-06
4.08791e-06
9.15371e-06
1.84079e-05
1.84181e-05
4.09019e-06
9.14821e-06
4.08779e-06
9.15505e-06
3.08049e-07
3.0813e-07
3.08164e-07
2.09975e-06
3.46596e-06
5.40669e-07
8.50816e-07
2.09497e-06
3.46948e-06
5.46622e-07
1.84092e-05
1.84193e-05
2.09974e-06
5.40827e-07
3.46632e-06
8.50946e-07
2.095e-06
5.4673e-07
3.46941e-06
5.4549e-06
5.45666e-06
1.13901e-06
5.45771e-06
5.45942e-06
1.84378e-05
1.84306e-05
1.84405e-05
1.84333e-05
5.17115e-06
5.17308e-06
3.90648e-07
5.17868e-06
5.18134e-06
1.84173e-05
1.84241e-05
1.842e-05
1.84269e-05
3.97697e-07
5.19348e-06
5.19547e-06
5.1859e-06
5.18729e-06
3.75815e-06
8.92074e-06
8.92558e-06
3.7355e-06
1.24181e-06
2.8692e-06
1.59599e-07
2.43788e-07
2.88862e-06
1.60135e-07
1.21417e-06
1.24153e-06
2.86973e-06
1.59598e-07
2.43823e-07
2.88919e-06
1.60134e-07
1.21411e-06
3.76965e-06
8.93028e-06
8.92571e-06
3.7907e-06
3.77016e-06
8.9304e-06
8.92586e-06
3.78991e-06
1.25557e-06
2.46888e-07
2.91918e-06
1.61464e-07
2.90108e-06
1.60761e-07
1.28253e-06
1.25571e-06
2.4692e-07
2.91972e-06
1.61462e-07
2.9016e-06
1.60761e-07
1.28245e-06
5.17282e-06
5.17036e-06
3.91026e-07
5.18102e-06
5.17964e-06
1.84382e-05
1.8431e-05
1.84197e-05
1.84265e-05
3.9783e-07
5.19509e-06
5.19395e-06
5.18703e-06
5.18467e-06
1.84177e-05
1.84245e-05
1.24184e-06
2.86971e-06
1.59599e-07
2.43735e-07
2.88919e-06
1.60135e-07
1.21425e-06
3.75912e-06
8.92141e-06
8.92628e-06
3.73495e-06
1.24189e-06
1.5961e-07
2.86851e-06
2.43831e-07
1.60145e-07
2.89063e-06
1.21411e-06
3.76961e-06
8.93155e-06
8.92697e-06
3.79099e-06
1.25563e-06
2.46836e-07
2.91971e-06
1.61464e-07
2.9016e-06
1.60762e-07
1.28283e-06
3.76955e-06
8.93113e-06
8.92655e-06
3.79079e-06
1.25558e-06
2.4693e-07
1.61474e-07
2.92104e-06
1.60772e-07
2.90047e-06
1.28277e-06
3.75904e-06
8.92099e-06
8.92589e-06
3.73516e-06
1.24163e-06
1.59586e-07
2.86936e-06
2.4378e-07
1.60123e-07
2.88882e-06
1.21423e-06
3.75823e-06
8.92094e-06
8.92584e-06
3.73561e-06
1.25557e-06
2.46819e-07
2.92051e-06
1.61457e-07
2.89993e-06
1.60737e-07
1.28291e-06
3.76982e-06
8.93071e-06
8.92612e-06
3.79085e-06
1.25571e-06
2.46872e-07
1.61451e-07
2.91936e-06
1.60749e-07
2.90126e-06
1.2826e-06
3.77029e-06
8.93068e-06
8.92608e-06
3.79001e-06
5.17152e-06
5.17021e-06
3.90789e-07
5.18135e-06
5.18005e-06
1.84388e-05
1.84316e-05
1.84206e-05
1.84274e-05
3.97759e-07
5.19529e-06
5.19408e-06
5.18611e-06
5.18482e-06
1.84183e-05
1.84251e-05
1.24221e-06
1.59606e-07
2.86857e-06
2.4377e-07
1.60137e-07
2.89076e-06
1.21411e-06
3.75926e-06
8.92143e-06
8.92628e-06
3.73527e-06
3.75925e-06
8.92162e-06
8.9265e-06
3.73527e-06
1.25569e-06
2.46821e-07
1.61457e-07
2.91918e-06
1.60761e-07
2.90112e-06
1.28308e-06
1.25553e-06
2.46858e-07
1.61466e-07
2.92116e-06
1.60769e-07
2.90052e-06
1.28294e-06
3.76989e-06
8.93107e-06
8.92654e-06
3.79103e-06
3.76988e-06
8.93134e-06
8.92676e-06
3.791e-06
1.84394e-05
1.84322e-05
1.84414e-05
1.84342e-05
3.97197e-07
5.19357e-06
5.19548e-06
5.18575e-06
5.18641e-06
1.84189e-05
1.84257e-05
1.84209e-05
1.84277e-05
1.84111e-05
1.84046e-05
1.84138e-05
1.84073e-05
5.19899e-06
5.2008e-06
4.20324e-07
5.20546e-06
5.20812e-06
1.83925e-05
1.83986e-05
1.83952e-05
1.84013e-05
4.27949e-07
5.21811e-06
5.22e-06
5.21171e-06
5.2131e-06
3.81788e-06
8.93063e-06
3.8007e-06
8.93495e-06
1.32241e-06
2.93093e-06
1.62256e-07
2.56954e-07
1.29622e-06
2.94787e-06
1.63127e-07
1.32224e-06
2.93143e-06
1.62256e-07
2.56988e-07
1.29624e-06
2.94837e-06
1.63125e-07
3.82697e-06
8.93898e-06
8.93492e-06
3.84222e-06
3.82743e-06
8.93915e-06
8.93511e-06
3.84235e-06
1.33563e-06
2.60566e-07
2.97485e-06
1.6513e-07
2.95902e-06
1.64088e-07
1.36104e-06
1.33568e-06
2.60597e-07
2.97537e-06
1.65127e-07
2.95952e-06
1.64087e-07
1.361e-06
5.20057e-06
5.19871e-06
4.19991e-07
5.20713e-06
5.20638e-06
1.84115e-05
1.8405e-05
1.83949e-05
1.8401e-05
4.28304e-07
5.21959e-06
5.21834e-06
5.21316e-06
5.21089e-06
1.83929e-05
1.8399e-05
1.32267e-06
2.93145e-06
1.62258e-07
2.56895e-07
1.29609e-06
2.9484e-06
1.63127e-07
3.81869e-06
8.93133e-06
3.80018e-06
8.93568e-06
1.32243e-06
1.62268e-07
2.93046e-06
2.57002e-07
1.29611e-06
1.63137e-07
2.94973e-06
3.827e-06
8.94023e-06
8.93621e-06
3.84324e-06
1.33557e-06
2.60507e-07
2.97538e-06
1.6513e-07
2.95953e-06
1.6409e-07
1.36125e-06
3.827e-06
8.93987e-06
8.93582e-06
3.84316e-06
1.33568e-06
2.60611e-07
1.6514e-07
2.97662e-06
1.641e-07
2.95853e-06
1.36105e-06
3.81877e-06
8.9309e-06
3.80038e-06
8.93526e-06
1.32252e-06
1.62243e-07
2.93113e-06
2.56947e-07
1.29618e-06
1.63113e-07
2.94804e-06
3.81797e-06
8.93089e-06
3.80085e-06
8.93526e-06
1.33567e-06
2.60482e-07
2.97608e-06
1.65118e-07
2.95799e-06
1.64058e-07
1.36059e-06
3.82722e-06
8.9394e-06
8.93538e-06
3.84228e-06
1.33558e-06
2.60547e-07
1.65116e-07
2.975e-06
1.64075e-07
2.9592e-06
1.36134e-06
3.8276e-06
8.93947e-06
8.93539e-06
3.84244e-06
5.19983e-06
5.19915e-06
4.20265e-07
5.20798e-06
5.20648e-06
1.8412e-05
1.84055e-05
1.83958e-05
1.84019e-05
4.28254e-07
5.2199e-06
5.21851e-06
5.21221e-06
5.21078e-06
1.83934e-05
1.83995e-05
1.32263e-06
1.62266e-07
2.93052e-06
2.56938e-07
1.29615e-06
1.6313e-07
2.94983e-06
3.81889e-06
8.93128e-06
3.80044e-06
8.93559e-06
3.81886e-06
8.93155e-06
3.80044e-06
8.9359e-06
1.33577e-06
2.60495e-07
1.65122e-07
2.97486e-06
1.64089e-07
2.95911e-06
1.36124e-06
1.3357e-06
2.60535e-07
1.65134e-07
2.97673e-06
1.64099e-07
2.95857e-06
1.36132e-06
3.82721e-06
8.93975e-06
8.93573e-06
3.84333e-06
3.8272e-06
8.94011e-06
8.93605e-06
3.84333e-06
1.84127e-05
1.84062e-05
1.84147e-05
1.84082e-05
4.27426e-07
5.21815e-06
5.21985e-06
5.21113e-06
5.21236e-06
1.83941e-05
1.84002e-05
1.83961e-05
1.84022e-05
1.83867e-05
1.83809e-05
1.83894e-05
1.83837e-05
5.22264e-06
5.22442e-06
4.52252e-07
5.22872e-06
5.23028e-06
1.837e-05
1.83753e-05
1.83728e-05
1.83781e-05
4.60582e-07
5.23838e-06
5.23999e-06
5.23296e-06
5.23475e-06
3.86373e-06
8.93927e-06
3.85087e-06
8.94314e-06
1.39845e-06
2.98535e-06
1.66257e-07
2.72138e-07
1.37395e-06
3.00005e-06
1.67469e-07
1.39853e-06
2.98584e-06
1.66256e-07
2.7217e-07
1.37394e-06
3.00056e-06
1.67465e-07
3.87134e-06
8.9465e-06
8.94294e-06
3.8823e-06
3.87125e-06
8.94662e-06
8.94319e-06
3.88232e-06
1.41084e-06
2.76244e-07
3.02381e-06
1.7015e-07
3.01006e-06
1.68768e-07
1.43438e-06
1.41071e-06
2.76273e-07
3.02431e-06
1.70147e-07
3.01054e-06
1.68767e-07
1.43441e-06
5.22418e-06
5.22248e-06
4.51936e-07
5.22999e-06
5.22887e-06
1.83871e-05
1.83814e-05
1.83726e-05
1.83779e-05
4.60892e-07
5.23977e-06
5.23878e-06
5.2345e-06
5.23298e-06
1.83705e-05
1.83757e-05
1.39844e-06
2.98587e-06
1.66259e-07
2.72071e-07
1.37392e-06
3.00053e-06
1.67468e-07
3.86448e-06
8.93996e-06
3.85042e-06
8.94383e-06
1.39847e-06
1.66269e-07
2.98492e-06
2.72187e-07
1.37405e-06
1.67478e-07
3.00184e-06
3.87086e-06
8.94774e-06
8.9442e-06
3.88314e-06
1.41098e-06
2.76178e-07
3.0243e-06
1.70151e-07
3.01059e-06
1.6877e-07
1.43442e-06
3.87082e-06
8.94743e-06
8.94388e-06
3.8831e-06
1.41086e-06
2.76289e-07
1.70161e-07
3.02554e-06
1.6878e-07
3.0096e-06
1.43437e-06
3.86389e-06
8.93949e-06
3.85115e-06
8.94335e-06
1.39871e-06
1.66244e-07
2.98556e-06
2.72127e-07
1.37378e-06
1.67454e-07
3.0002e-06
3.86383e-06
8.93956e-06
3.85103e-06
8.94344e-06
1.41118e-06
2.76147e-07
3.02498e-06
1.70136e-07
3.00906e-06
1.68733e-07
1.4339e-06
3.87162e-06
8.94688e-06
8.94339e-06
3.88242e-06
1.41075e-06
2.76224e-07
1.70137e-07
3.02399e-06
1.68755e-07
3.01027e-06
1.43468e-06
3.87141e-06
8.94704e-06
8.94348e-06
3.88243e-06
5.22393e-06
5.22241e-06
4.52088e-07
5.23057e-06
5.22896e-06
1.83876e-05
1.83818e-05
1.83734e-05
1.83787e-05
4.61041e-07
5.2403e-06
5.23884e-06
5.2342e-06
5.23308e-06
1.83709e-05
1.83763e-05
1.39866e-06
1.6627e-07
2.98495e-06
2.72118e-07
1.37399e-06
1.67474e-07
3.00193e-06
3.86464e-06
8.93984e-06
3.8506e-06
8.94367e-06
3.86464e-06
8.9402e-06
3.85059e-06
8.94407e-06
1.41105e-06
2.76167e-07
1.70144e-07
3.02381e-06
1.68771e-07
3.01015e-06
1.43451e-06
1.41089e-06
2.76209e-07
1.70157e-07
3.02561e-06
1.68783e-07
3.00963e-06
1.43456e-06
3.87099e-06
8.94725e-06
8.94373e-06
3.88323e-06
3.87098e-06
8.94767e-06
8.94412e-06
3.88323e-06
1.83884e-05
1.83826e-05
1.83903e-05
1.83846e-05
4.59601e-07
5.23843e-06
5.24049e-06
5.23315e-06
5.23446e-06
1.83717e-05
1.83771e-05
1.83736e-05
1.8379e-05
1.83646e-05
1.83597e-05
1.83674e-05
1.83624e-05
5.24266e-06
5.24452e-06
4.86079e-07
5.24728e-06
5.24924e-06
1.83498e-05
1.83544e-05
1.83526e-05
1.83572e-05
4.95213e-07
5.25591e-06
5.25781e-06
5.25149e-06
5.25326e-06
3.89855e-06
8.94675e-06
3.88904e-06
8.95021e-06
1.46889e-06
3.03325e-06
1.71618e-07
2.89264e-07
1.44639e-06
3.04599e-06
1.7317e-07
1.46877e-06
3.03374e-06
1.71616e-07
2.893e-07
1.44627e-06
3.04651e-06
1.73166e-07
3.90457e-06
8.95304e-06
8.94992e-06
3.91259e-06
3.9045e-06
8.95334e-06
8.95023e-06
3.91264e-06
1.48035e-06
2.93843e-07
3.067e-06
1.76536e-07
3.05501e-06
1.74811e-07
1.50188e-06
1.48037e-06
2.93874e-07
3.06752e-06
1.76532e-07
3.05552e-06
1.74809e-07
1.50183e-06
5.24425e-06
5.24249e-06
4.86749e-07
5.24909e-06
5.24775e-06
1.83649e-05
1.836e-05
1.83524e-05
1.8357e-05
4.95101e-07
5.25722e-06
5.25612e-06
5.25299e-06
5.25135e-06
1.83502e-05
1.83546e-05
1.46892e-06
3.03378e-06
1.71621e-07
2.89192e-07
1.44648e-06
3.04649e-06
1.7317e-07
3.89928e-06
8.94762e-06
3.88858e-06
8.95086e-06
1.46886e-06
1.71631e-07
3.03285e-06
2.89316e-07
1.44643e-06
1.73181e-07
3.04774e-06
3.90409e-06
8.95428e-06
8.95119e-06
3.91339e-06
1.48044e-06
2.93771e-07
3.06751e-06
1.76537e-07
3.05554e-06
1.74814e-07
1.50185e-06
3.90406e-06
8.95398e-06
8.95087e-06
3.91338e-06
1.4804e-06
2.9389e-07
1.76547e-07
3.06869e-06
1.74824e-07
3.0546e-06
1.50182e-06
3.89866e-06
8.94699e-06
3.88938e-06
8.95024e-06
1.46909e-06
1.71606e-07
3.03348e-06
2.89261e-07
1.44627e-06
1.73157e-07
3.04619e-06
3.89865e-06
8.94714e-06
3.88919e-06
8.95048e-06
1.48072e-06
2.93736e-07
3.06817e-06
1.76521e-07
3.0541e-06
1.74774e-07
1.50147e-06
3.90483e-06
8.95338e-06
8.95031e-06
3.91271e-06
1.48032e-06
2.93829e-07
1.76524e-07
3.06721e-06
1.748e-07
3.05525e-06
1.50197e-06
3.90465e-06
8.95362e-06
8.95057e-06
3.91273e-06
5.24376e-06
5.24236e-06
4.86346e-07
5.24944e-06
5.24796e-06
1.83655e-05
1.83605e-05
1.83532e-05
1.83578e-05
4.95062e-07
5.25783e-06
5.25636e-06
5.25273e-06
5.25137e-06
1.83507e-05
1.83553e-05
1.46904e-06
1.71635e-07
3.03287e-06
2.89245e-07
1.44644e-06
1.73178e-07
3.04781e-06
3.89942e-06
8.94738e-06
3.88872e-06
8.95062e-06
3.89941e-06
8.94776e-06
3.88872e-06
8.9511e-06
1.48055e-06
2.93763e-07
1.76533e-07
3.06704e-06
1.74817e-07
3.05512e-06
1.50193e-06
1.48044e-06
2.93808e-07
1.76546e-07
3.06874e-06
1.7483e-07
3.05463e-06
1.50203e-06
3.90421e-06
8.95379e-06
8.95069e-06
3.91349e-06
3.90422e-06
8.95421e-06
8.95116e-06
3.91349e-06
1.83663e-05
1.83614e-05
1.83683e-05
1.83633e-05
4.94059e-07
5.25585e-06
5.25792e-06
5.25153e-06
5.25279e-06
1.83516e-05
1.83561e-05
1.83535e-05
1.83581e-05
1.83448e-05
1.83406e-05
1.83475e-05
1.83433e-05
5.25957e-06
5.26133e-06
5.22172e-07
5.26366e-06
5.26534e-06
1.83319e-05
1.83357e-05
1.83346e-05
1.83384e-05
5.30958e-07
5.27092e-06
5.27266e-06
5.26714e-06
5.26897e-06
3.92499e-06
8.95346e-06
3.918e-06
8.9564e-06