/*--------------------------------*- C++ -*----------------------------------*\
| =========                 |                                                 |
| \\      /  F ield         | OpenFOAM: The Open Source CFD Toolbox           |
|  \\    /   O peration     | Version:  2312                                  |
|   \\  /    A nd           | Website:  www.openfoam.com                      |
|    \\/     M anipulation  |                                                 |
\*---------------------------------------------------------------------------*/
FoamFile
{
    version     2.0;
    format      ascii;
    arch        "LSB;label=32;scalar=64";
    class       volScalarField;
    location    "950";
    object      k;
}
// * * * * * * * * * * * * * * * * * * * * * * * * * * * * * * * * * * * * * //

dimensions      [0 2 -2 0 0 0 0];

internalField   nonuniform List<scalar> 
42840
(
1.45935e-05
1.62412e-05
1.62411e-05
1.86878e-05
1.43149e-05
1.64637e-05
1.6464e-05
1.93875e-05
1.40821e-05
1.67733e-05
1.67738e-05
2.01809e-05
1.38947e-05
1.71668e-05
1.71675e-05
2.1055e-05
1.37525e-05
1.76408e-05
1.76418e-05
2.19976e-05
1.36553e-05
1.81911e-05
1.81924e-05
2.29945e-05
1.3603e-05
1.88133e-05
1.88151e-05
2.40313e-05
1.35965e-05
1.95024e-05
1.95045e-05
2.50945e-05
1.36343e-05
2.02529e-05
2.02554e-05
2.61732e-05
1.37181e-05
2.10594e-05
2.10624e-05
2.72379e-05
1.38478e-05
2.19155e-05
2.19189e-05
2.83148e-05
1.40237e-05
2.28147e-05
2.28184e-05
2.93634e-05
1.42458e-05
2.37506e-05
2.37545e-05
3.04038e-05
1.45142e-05
2.47171e-05
2.4721e-05
3.14371e-05
1.48289e-05
2.5708e-05
2.57118e-05
3.2438e-05
1.51894e-05
2.67169e-05
2.67206e-05
3.34298e-05
1.55953e-05
2.77376e-05
2.77412e-05
3.43763e-05
1.60457e-05
2.87645e-05
2.87684e-05
3.53273e-05
1.65394e-05
2.97925e-05
2.97965e-05
3.62415e-05
1.70749e-05
3.08179e-05
3.08221e-05
3.7132e-05
1.76504e-05
3.18363e-05
3.18407e-05
3.79876e-05
1.82639e-05
3.28436e-05
3.28478e-05
3.88301e-05
1.89129e-05
3.38358e-05
3.38401e-05
3.96595e-05
1.95943e-05
3.481e-05
3.48141e-05
4.0444e-05
2.03049e-05
3.57636e-05
3.57674e-05
4.1222e-05
1.86733e-05
1.9238e-05
1.62413e-05
1.62412e-05
1.64e-05
1.64001e-05
1.86712e-05
1.92378e-05
1.6241e-05
1.62416e-05
1.63997e-05
1.64004e-05
1.62409e-05
1.63997e-05
1.63999e-05
1.86726e-05
1.92388e-05
1.62414e-05
1.64e-05
1.64005e-05
1.92192e-05
1.93733e-05
2.00145e-05
1.64643e-05
1.64642e-05
1.66885e-05
1.66885e-05
1.93707e-05
2.00125e-05
1.64639e-05
1.64646e-05
1.66881e-05
1.66889e-05
1.6464e-05
1.66878e-05
1.66885e-05
1.9372e-05
2.00128e-05
1.64644e-05
1.66884e-05
1.66891e-05
1.99922e-05
2.01632e-05
2.08714e-05
1.67741e-05
1.67741e-05
1.70616e-05
1.70617e-05
2.01618e-05
2.08708e-05
1.67737e-05
1.67746e-05
1.7061e-05
1.70621e-05
1.67741e-05
1.70607e-05
1.7062e-05
2.01632e-05
2.08694e-05
1.67745e-05
1.70615e-05
1.70623e-05
2.08482e-05
2.10352e-05
2.18e-05
1.7168e-05
1.71679e-05
1.75161e-05
1.75163e-05
2.10339e-05
2.17994e-05
1.71674e-05
1.71684e-05
1.75154e-05
1.75167e-05
1.71683e-05
1.75149e-05
1.75169e-05
2.10352e-05
2.17997e-05
1.71684e-05
1.7516e-05
1.75169e-05
2.17756e-05
2.19753e-05
2.27842e-05
1.76422e-05
1.76422e-05
1.80481e-05
1.80483e-05
2.19742e-05
2.27834e-05
1.76415e-05
1.76428e-05
1.80472e-05
1.80489e-05
1.7643e-05
1.80466e-05
1.80494e-05
2.19758e-05
2.27853e-05
1.76428e-05
1.80481e-05
1.80491e-05
2.27582e-05
2.29696e-05
2.38097e-05
1.81929e-05
1.81929e-05
1.86531e-05
1.86535e-05
2.29681e-05
2.38105e-05
1.8192e-05
1.81937e-05
1.8652e-05
1.86542e-05
1.81942e-05
1.86514e-05
1.86549e-05
2.29704e-05
2.38131e-05
1.81937e-05
1.86533e-05
1.86543e-05
2.37834e-05
2.40038e-05
2.4866e-05
1.88154e-05
1.88156e-05
1.93265e-05
1.93268e-05
2.40024e-05
2.48665e-05
1.88142e-05
1.88165e-05
1.93251e-05
1.93276e-05
1.88172e-05
1.93243e-05
1.93286e-05
2.40044e-05
2.48687e-05
1.88165e-05
1.93265e-05
1.93278e-05
2.48375e-05
2.50649e-05
2.59395e-05
1.9505e-05
1.95051e-05
2.00628e-05
2.00628e-05
2.50635e-05
2.59392e-05
1.95035e-05
1.95062e-05
2.0061e-05
2.00639e-05
1.95072e-05
2.006e-05
2.00652e-05
2.50653e-05
2.59413e-05
1.95063e-05
2.00625e-05
2.00643e-05
2.59094e-05
2.61409e-05
2.7008e-05
2.0256e-05
2.02562e-05
2.08563e-05
2.08564e-05
2.61398e-05
2.70078e-05
2.02543e-05
2.02574e-05
2.08543e-05
2.08576e-05
2.02586e-05
2.08529e-05
2.0859e-05
2.61413e-05
2.70196e-05
2.02574e-05
2.08561e-05
2.08577e-05
2.69911e-05
2.723e-05
2.80813e-05
2.10629e-05
2.10632e-05
2.1701e-05
2.1701e-05
2.72294e-05
2.80799e-05
2.1061e-05
2.10645e-05
2.16987e-05
2.17024e-05
2.10657e-05
2.16973e-05
2.17038e-05
2.72262e-05
2.80749e-05
2.10642e-05
2.17007e-05
2.17023e-05
2.80648e-05
2.82902e-05
2.91357e-05
2.19195e-05
2.19197e-05
2.25906e-05
2.25906e-05
2.8289e-05
2.91335e-05
2.19173e-05
2.19212e-05
2.2588e-05
2.25919e-05
2.19223e-05
2.25865e-05
2.25933e-05
2.8294e-05
2.91269e-05
2.19207e-05
2.25901e-05
2.25917e-05
2.91157e-05
2.93426e-05
3.01703e-05
2.28192e-05
2.28194e-05
2.35183e-05
2.35183e-05
2.93407e-05
3.01811e-05
2.28168e-05
2.28208e-05
2.35156e-05
2.35197e-05
2.2822e-05
2.35137e-05
2.35211e-05
2.93429e-05
3.01748e-05
2.28202e-05
2.35178e-05
2.35191e-05
3.01552e-05
3.03838e-05
3.12051e-05
2.37553e-05
2.37557e-05
2.44778e-05
2.4478e-05
3.03862e-05
3.11988e-05
2.37528e-05
2.3757e-05
2.44749e-05
2.44792e-05
2.37585e-05
2.44731e-05
2.44808e-05
3.03817e-05
3.11955e-05
2.37563e-05
2.44772e-05
2.44785e-05
3.11673e-05
3.14085e-05
3.22041e-05
2.47219e-05
2.47223e-05
2.54634e-05
2.54634e-05
3.14025e-05
3.22077e-05
2.47191e-05
2.47234e-05
2.54601e-05
2.54644e-05
2.47254e-05
2.54586e-05
2.54667e-05
3.14054e-05
3.22064e-05
2.47228e-05
2.54625e-05
2.5464e-05
3.21856e-05
3.24194e-05
3.3194e-05
2.57129e-05
2.57131e-05
2.64683e-05
2.64681e-05
3.24186e-05
3.31965e-05
2.57098e-05
2.57139e-05
2.64646e-05
2.6469e-05
2.57166e-05
2.64636e-05
2.6472e-05
3.24147e-05
3.31916e-05
2.57137e-05
2.64674e-05
2.64689e-05
3.31708e-05
3.33999e-05
3.41649e-05
2.67218e-05
2.67217e-05
2.74866e-05
2.74861e-05
3.34034e-05
3.41614e-05
2.67182e-05
2.67224e-05
2.74827e-05
2.7487e-05
2.67258e-05
2.74819e-05
2.74904e-05
3.33899e-05
3.41565e-05
2.67225e-05
2.74857e-05
2.74871e-05
3.41513e-05
3.43633e-05
3.5111e-05
2.77424e-05
2.77421e-05
2.85125e-05
2.85114e-05
3.43633e-05
3.50984e-05
2.77386e-05
2.77428e-05
2.85086e-05
2.85125e-05
2.77466e-05
2.85076e-05
2.85163e-05
3.43625e-05
3.51019e-05
2.7743e-05
2.85116e-05
2.85127e-05
3.50778e-05
3.52998e-05
3.60228e-05
2.87694e-05
2.87685e-05
2.95406e-05
2.95391e-05
3.52889e-05
3.60212e-05
2.87656e-05
2.87696e-05
2.95366e-05
2.95405e-05
2.87735e-05
2.95357e-05
2.95444e-05
3.52921e-05
3.60191e-05
2.87696e-05
2.95398e-05
2.95405e-05
3.60016e-05
3.62165e-05
3.69209e-05
2.97974e-05
2.97961e-05
3.05671e-05
3.05652e-05
3.62132e-05
3.69139e-05
2.97934e-05
2.97974e-05
3.05629e-05
3.05669e-05
2.98015e-05
3.05622e-05
3.05711e-05
3.6215e-05
3.69151e-05
2.97973e-05
3.05665e-05
3.05669e-05
3.68913e-05
3.71142e-05
3.7788e-05
3.0823e-05
3.08211e-05
3.15876e-05
3.15853e-05
3.7095e-05
3.77894e-05
3.08189e-05
3.08228e-05
3.15834e-05
3.15875e-05
3.08271e-05
3.15826e-05
3.15918e-05
3.71013e-05
3.77883e-05
3.08227e-05
3.15872e-05
3.15874e-05
3.77726e-05
3.79671e-05
3.86356e-05
3.18414e-05
3.1839e-05
3.25978e-05
3.25953e-05
3.79673e-05
3.86369e-05
3.18372e-05
3.18412e-05
3.25934e-05
3.25977e-05
3.18454e-05
3.25932e-05
3.2602e-05
3.79644e-05
3.86347e-05
3.18409e-05
3.25976e-05
3.25976e-05
3.86271e-05
3.88168e-05
3.94606e-05
3.28482e-05
3.28458e-05
3.35936e-05
3.35911e-05
3.88085e-05
3.94587e-05
3.28439e-05
3.28481e-05
3.35893e-05
3.35937e-05
3.28525e-05
3.35894e-05
3.35979e-05
3.88166e-05
3.94651e-05
3.28479e-05
3.35939e-05
3.35934e-05
3.94405e-05
3.96269e-05
4.02635e-05
3.38402e-05
3.38373e-05
3.45724e-05
3.45693e-05
3.96332e-05
4.02626e-05
3.38359e-05
3.38401e-05
3.45681e-05
3.45722e-05
3.38442e-05
3.45683e-05
3.45764e-05
3.96372e-05
4.0258e-05
3.38396e-05
3.45727e-05
3.4572e-05
4.02559e-05
4.04298e-05
4.10374e-05
3.48141e-05
3.48109e-05
3.55309e-05
3.55276e-05
4.04282e-05
4.10373e-05
3.48098e-05
3.48138e-05
3.55267e-05
3.55307e-05
3.48181e-05
3.55271e-05
3.55351e-05
4.04291e-05
4.1038e-05
3.48134e-05
3.55313e-05
3.55305e-05
4.1022e-05
4.11985e-05
3.57673e-05
3.57639e-05
4.11972e-05
3.57631e-05
3.57669e-05
3.57714e-05
4.12006e-05
3.57665e-05
5.48449e-05
7.01025e-05
7.01242e-05
5.43659e-05
6.95608e-05
6.95425e-05
5.48463e-05
7.01035e-05
7.01253e-05
5.43654e-05
1.45936e-05
1.45935e-05
1.45933e-05
1.43802e-05
1.43803e-05
1.43803e-05
1.43801e-05
3.10553e-05
4.64289e-05
1.4709e-05
1.62885e-05
4.68053e-05
1.46749e-05
3.04976e-05
6.95614e-05
6.95431e-05
3.10625e-05
1.47089e-05
4.64304e-05
1.62886e-05
1.46749e-05
4.68073e-05
3.04983e-05
5.9706e-05
5.97155e-05
1.88721e-05
5.99071e-05
5.99156e-05
5.59469e-05
7.01541e-05
5.5543e-05
7.01732e-05
6.94936e-05
6.94773e-05
5.59476e-05
7.01553e-05
5.55423e-05
7.01744e-05
1.43149e-05
1.43149e-05
1.43148e-05
1.4136e-05
1.41361e-05
1.41362e-05
1.4136e-05
3.27262e-05
4.75464e-05
1.46024e-05
1.6533e-05
3.21835e-05
4.78912e-05
1.45853e-05
6.94943e-05
6.94778e-05
3.27326e-05
1.46024e-05
4.75485e-05
1.65335e-05
3.21821e-05
1.45854e-05
4.78922e-05
6.02893e-05
6.0297e-05
1.95984e-05
6.04686e-05
6.04772e-05
5.68641e-05
7.0199e-05
5.65221e-05
7.02157e-05
6.94323e-05
6.94179e-05
5.68645e-05
7.02001e-05
5.65209e-05
7.02169e-05
1.40821e-05
1.40822e-05
1.4082e-05
1.39374e-05
1.39374e-05
1.39375e-05
1.39374e-05
3.43354e-05
4.85693e-05
1.4565e-05
1.68639e-05
3.3816e-05
4.88829e-05
1.45667e-05
6.9433e-05
6.94184e-05
3.43409e-05
1.45652e-05
4.857e-05
1.68646e-05
3.38147e-05
1.4567e-05
4.8886e-05
6.08113e-05
6.08192e-05
2.04144e-05
6.09724e-05
6.09794e-05
5.76333e-05
7.0238e-05
5.734e-05
7.02528e-05
6.9377e-05
6.93645e-05
5.76333e-05
7.0239e-05
5.73387e-05
7.02539e-05
1.38947e-05
1.38949e-05
1.38948e-05
1.37839e-05
1.3784e-05
1.37842e-05
1.37842e-05
3.586e-05
4.95042e-05
1.45956e-05
1.72779e-05
3.5369e-05
4.97917e-05
1.46142e-05
6.93774e-05
6.93649e-05
3.58648e-05
1.45961e-05
4.95062e-05
1.72789e-05
3.53683e-05
1.46146e-05
4.97954e-05
6.12807e-05
6.12881e-05
2.13066e-05
6.14254e-05
6.14337e-05
5.82862e-05
7.0272e-05
5.80313e-05
7.02853e-05
6.93271e-05
6.93165e-05
5.82858e-05
7.02731e-05
5.803e-05
7.02865e-05
1.37525e-05
1.37527e-05
1.37527e-05
1.36755e-05
1.36756e-05
1.36759e-05
1.36759e-05
3.72878e-05
5.03607e-05
1.46955e-05
1.77714e-05
3.6831e-05
5.06256e-05
1.47312e-05
6.93274e-05
6.93167e-05
3.72926e-05
1.46964e-05
5.03629e-05
1.77727e-05
3.68319e-05
1.47319e-05
5.06294e-05
6.17056e-05
6.17133e-05
2.22641e-05
6.18376e-05
6.18456e-05
5.88482e-05
7.03026e-05
5.86246e-05
7.0315e-05
6.92825e-05
6.92739e-05
5.88476e-05
7.03037e-05
5.86237e-05
7.03164e-05
1.36553e-05
1.36556e-05
1.36557e-05
1.36121e-05
1.36122e-05
1.36126e-05
1.36127e-05
3.86165e-05
5.11481e-05
1.48636e-05
1.83402e-05
3.8191e-05
5.13915e-05
1.49162e-05
6.92827e-05
6.9274e-05
3.86201e-05
1.48649e-05
5.11509e-05
1.83419e-05
3.81928e-05
1.49173e-05
5.13951e-05
6.20927e-05
6.21007e-05
2.32701e-05
6.22136e-05
6.22219e-05
5.93402e-05
7.03312e-05
5.91429e-05
7.03433e-05
6.92434e-05
6.92367e-05
5.93398e-05
7.03324e-05
5.91423e-05
7.03449e-05
1.36031e-05
1.36035e-05
1.36037e-05
1.35943e-05
1.35944e-05
1.35949e-05
1.35952e-05
3.98458e-05
5.18731e-05
1.50991e-05
1.89797e-05
3.9453e-05
5.20998e-05
1.51684e-05
6.92436e-05
6.92368e-05
3.98496e-05
1.51009e-05
5.18765e-05
1.89817e-05
3.94551e-05
1.51701e-05
5.21037e-05
6.24484e-05
6.24567e-05
2.43115e-05
6.25601e-05
6.25688e-05
5.97794e-05
7.03593e-05
5.96025e-05
7.03715e-05
6.92099e-05
6.92053e-05
5.97784e-05
7.03604e-05
5.96019e-05
7.03732e-05
1.35966e-05
1.35971e-05
1.35974e-05
1.36206e-05
1.36205e-05
1.36212e-05
1.36216e-05
4.09841e-05
5.25453e-05
1.54009e-05
1.96847e-05
4.06198e-05
5.27563e-05
1.54867e-05
6.921e-05
6.92053e-05
4.09894e-05
1.54034e-05
5.25489e-05
1.9687e-05
4.06196e-05
1.54889e-05
5.27602e-05
6.27783e-05
6.27869e-05
2.53758e-05
6.28823e-05
6.28914e-05
6.0177e-05
7.03879e-05
6.00159e-05
7.04004e-05
6.91822e-05
6.91797e-05
6.0176e-05
7.03886e-05
6.00154e-05
7.04022e-05
1.36343e-05
1.3635e-05
1.36355e-05
1.3693e-05
1.36929e-05
1.36938e-05
1.36943e-05
4.20413e-05
5.31716e-05
1.57678e-05
2.04497e-05
4.16946e-05
5.33683e-05
1.58696e-05
6.91823e-05
6.91797e-05
4.20468e-05
1.57708e-05
5.31751e-05
2.04525e-05
4.16946e-05
1.58722e-05
5.33721e-05
6.30868e-05
6.30957e-05
2.64452e-05
6.31848e-05
6.31939e-05
6.05413e-05
7.04178e-05
6.03927e-05
7.04309e-05
6.91604e-05
6.91601e-05
6.05399e-05
7.04178e-05
6.03928e-05
7.0433e-05
1.37181e-05
1.3719e-05
1.37196e-05
1.38112e-05
1.38111e-05
1.38122e-05
1.38128e-05
4.30224e-05
5.37572e-05
1.61978e-05
2.12692e-05
4.26918e-05
5.39424e-05
1.6315e-05
6.91605e-05
6.916e-05
4.30282e-05
1.62014e-05
5.3761e-05
2.12725e-05
4.26922e-05
1.63183e-05
5.39462e-05
6.33778e-05
6.33869e-05
2.75296e-05
6.34707e-05
6.34801e-05
6.08789e-05
7.045e-05
6.07404e-05
7.0464e-05
6.91447e-05
6.91465e-05
6.0877e-05
7.04495e-05
6.07401e-05
7.04662e-05
1.38478e-05
1.38488e-05
1.38496e-05
1.39755e-05
1.39754e-05
1.39766e-05
1.39773e-05
4.3937e-05
5.43078e-05
1.66887e-05
2.21367e-05
4.36201e-05
5.44831e-05
1.68209e-05
6.91447e-05
6.91465e-05
4.39429e-05
1.66929e-05
5.43119e-05
2.21402e-05
4.36208e-05
1.68245e-05
5.44869e-05
6.36544e-05
6.36637e-05
2.85827e-05
6.37433e-05
6.37527e-05
6.11947e-05
7.04851e-05
6.10643e-05
7.05003e-05
6.91349e-05
6.91389e-05
6.11922e-05
7.04845e-05
6.10646e-05
7.05024e-05
1.40236e-05
1.40248e-05
1.40257e-05
1.41861e-05
1.41859e-05
1.41873e-05
1.41881e-05
4.47942e-05
5.48298e-05
1.72383e-05
2.30456e-05
4.44888e-05
5.49959e-05
1.73848e-05
6.9135e-05
6.9139e-05
4.48002e-05
1.72427e-05
5.48318e-05
2.30496e-05
4.44897e-05
1.73885e-05
5.49998e-05
6.39192e-05
6.39284e-05
2.96422e-05
6.40046e-05
6.40141e-05
6.14936e-05
7.05235e-05
6.13696e-05
7.05401e-05
6.91312e-05
6.91373e-05
6.14907e-05
7.05228e-05
6.13697e-05
7.05422e-05
1.42457e-05
1.42471e-05
1.42481e-05
1.44429e-05
1.44428e-05
1.44443e-05
1.44452e-05
4.56022e-05
5.53258e-05
1.78434e-05
2.39898e-05
4.53064e-05
5.54848e-05
1.80033e-05
6.91314e-05
6.91374e-05
4.5608e-05
1.78481e-05
5.53268e-05
2.39938e-05
4.53075e-05
1.80074e-05
5.54899e-05
6.4174e-05
6.41832e-05
3.06563e-05
6.42566e-05
6.4266e-05
6.17793e-05
7.05656e-05
6.16602e-05
7.05837e-05
6.91334e-05
6.91416e-05
6.17769e-05
7.0565e-05
6.166e-05
7.05859e-05
1.45141e-05
1.45156e-05
1.45168e-05
1.4746e-05
1.47458e-05
1.47475e-05
1.47486e-05
4.63677e-05
5.5798e-05
1.85011e-05
2.4963e-05
4.60803e-05
5.5951e-05
1.86736e-05
6.91336e-05
6.91417e-05
4.63735e-05
1.8506e-05
5.57967e-05
2.4967e-05
4.60816e-05
1.86778e-05
5.59582e-05
6.44204e-05
6.44286e-05
3.16829e-05
6.45005e-05
6.45105e-05
6.20551e-05
7.06117e-05
6.19401e-05
7.06315e-05
6.91413e-05
6.91516e-05
6.20531e-05
7.06112e-05
6.19393e-05
7.06338e-05
1.48288e-05
1.48303e-05
1.48317e-05
1.50951e-05
1.50949e-05
1.50967e-05
1.5098e-05
4.70969e-05
5.62482e-05
1.92076e-05
2.59591e-05
4.68166e-05
5.63985e-05
1.93919e-05
6.91416e-05
6.91517e-05
4.71025e-05
1.92127e-05
5.62476e-05
2.59629e-05
4.68183e-05
1.93962e-05
5.64053e-05
6.46592e-05
6.46668e-05
3.26806e-05
6.47377e-05
6.47476e-05
6.23239e-05
7.0662e-05
6.22115e-05
7.06834e-05
6.91548e-05
6.9167e-05
6.2322e-05
7.06615e-05
6.22109e-05
7.06858e-05
1.51893e-05
1.51909e-05
1.51926e-05
1.54897e-05
1.54896e-05
1.54914e-05
1.5493e-05
4.77947e-05
5.668e-05
1.99596e-05
2.69715e-05
4.75208e-05
5.68275e-05
2.01547e-05
6.91551e-05
6.91672e-05
4.77997e-05
1.99648e-05
5.66791e-05
2.69752e-05
4.75227e-05
2.01591e-05
5.68338e-05
6.4891e-05
6.48985e-05
3.36566e-05
6.49686e-05
6.49781e-05
6.25877e-05
7.07163e-05
6.24766e-05
7.07394e-05
6.91736e-05
6.91877e-05
6.25854e-05
7.07161e-05
6.2477e-05
7.0742e-05
1.55952e-05
1.55969e-05
1.55988e-05
1.5929e-05
1.59289e-05
1.59308e-05
1.59326e-05
4.8465e-05
5.70948e-05
2.07531e-05
2.79941e-05
4.81973e-05
5.72391e-05
2.0958e-05
6.91739e-05
6.91879e-05
4.84694e-05
2.07585e-05
5.70939e-05
2.7998e-05
4.81992e-05
2.09626e-05
5.72456e-05
6.51169e-05
6.51243e-05
3.46157e-05
6.51934e-05
6.52027e-05
6.28478e-05
7.07748e-05
6.27377e-05
7.07996e-05
6.91974e-05
6.92134e-05
6.28455e-05
7.07747e-05
6.27392e-05
7.08024e-05
1.60455e-05
1.60474e-05
1.60494e-05
1.6412e-05
1.64117e-05
1.64138e-05
1.64158e-05
4.91107e-05
5.74938e-05
2.15841e-05
2.90217e-05
4.88497e-05
5.76352e-05
2.17978e-05
6.91978e-05
6.92135e-05
4.91145e-05
2.15896e-05
5.74929e-05
2.90257e-05
4.88517e-05
2.18024e-05
5.7642e-05
6.53373e-05
6.53446e-05
3.55575e-05
6.54125e-05
6.54217e-05
6.31049e-05
7.08373e-05
6.29968e-05
7.08637e-05
6.9226e-05
6.92437e-05
6.31035e-05
7.08386e-05
6.29982e-05
7.0865e-05
1.65391e-05
1.65412e-05
1.65432e-05
1.69371e-05
1.69368e-05
1.69391e-05
1.69411e-05
4.97339e-05
5.78784e-05
2.24484e-05
3.00494e-05
4.94805e-05
5.80168e-05
2.26697e-05
6.92263e-05
6.92437e-05
4.97368e-05
2.24538e-05
5.78775e-05
3.00536e-05
4.94828e-05
2.26742e-05
5.80232e-05
6.55524e-05
6.55597e-05
3.64599e-05
6.56264e-05
6.56354e-05
6.33607e-05
7.09036e-05
6.32527e-05
7.09315e-05
6.92591e-05
6.92783e-05
6.336e-05
7.0905e-05
6.32545e-05
7.09329e-05
1.70745e-05
1.70768e-05
1.70789e-05
1.75029e-05
1.75025e-05
1.7505e-05
1.75071e-05
5.03361e-05
5.82496e-05
2.33414e-05
3.10734e-05
5.00915e-05
5.8385e-05
2.35692e-05
6.92594e-05
6.92783e-05
5.03391e-05
2.33467e-05
5.82482e-05
3.10779e-05
5.00931e-05
2.35736e-05
5.83907e-05
6.57625e-05
6.577e-05
3.73403e-05
6.58352e-05
6.58442e-05
6.36142e-05
7.09735e-05
6.35075e-05
7.10028e-05
6.92962e-05
6.93167e-05
6.36136e-05
7.0975e-05
6.35088e-05
7.10043e-05
1.765e-05
1.76526e-05
1.76547e-05
1.81071e-05
1.81067e-05
1.81094e-05
1.81116e-05
5.09188e-05
5.86081e-05
2.42588e-05
3.20894e-05
5.06826e-05
5.87402e-05
2.44921e-05
6.92966e-05
6.9317e-05
5.09221e-05
2.42641e-05
5.86061e-05
3.2094e-05
5.0683e-05
2.44966e-05
5.87455e-05
6.59678e-05
6.59756e-05
3.81916e-05
6.6039e-05
6.60479e-05
6.38658e-05
7.10467e-05
6.3759e-05
7.10773e-05
6.93371e-05
6.93589e-05
6.38646e-05
7.10482e-05
6.37617e-05
7.10787e-05
1.82635e-05
1.82662e-05
1.82684e-05
1.87474e-05
1.8747e-05
1.87498e-05
1.87521e-05
5.14827e-05
5.89539e-05
2.51975e-05
3.30933e-05
5.12539e-05
5.90827e-05
2.54355e-05
6.93377e-05
6.93593e-05
5.14851e-05
2.52028e-05
5.89521e-05
3.30977e-05
5.12549e-05
2.54401e-05
5.90878e-05
6.61683e-05
6.61761e-05
3.9041e-05
6.6238e-05
6.6247e-05
6.4114e-05
7.11227e-05
6.40092e-05
7.11546e-05
6.93815e-05
6.94046e-05
6.4113e-05
7.11242e-05
6.40114e-05
7.11559e-05
1.89123e-05
1.89152e-05
1.89175e-05
1.9421e-05
1.94204e-05
1.94235e-05
1.94258e-05
5.20271e-05
5.92878e-05
2.6154e-05
3.40812e-05
5.18062e-05
5.94134e-05
2.63958e-05
6.93822e-05
6.94052e-05
5.20291e-05
2.61592e-05
5.92858e-05
3.40857e-05
5.18067e-05
2.64002e-05
5.94178e-05
6.63642e-05
6.6372e-05
3.98587e-05
6.64319e-05
6.64412e-05
6.43585e-05
7.12001e-05
6.42561e-05
7.12351e-05
6.94292e-05
6.94536e-05
6.4357e-05
7.12029e-05
6.42581e-05
7.12354e-05
1.95936e-05
1.95968e-05
1.9599e-05
2.01246e-05
2.0124e-05
2.01273e-05
2.01296e-05
5.25509e-05
5.96099e-05
2.71236e-05
3.50503e-05
5.23388e-05
5.97322e-05
2.73679e-05
6.94301e-05
6.94544e-05
5.25531e-05
2.71286e-05
5.9608e-05
3.50547e-05
5.23385e-05
2.73721e-05
5.97364e-05
6.65554e-05
6.65632e-05
4.06372e-05
6.66213e-05
6.66305e-05
6.45984e-05
7.12809e-05
6.4497e-05
7.13165e-05
6.94801e-05
6.95056e-05
6.45966e-05
7.12837e-05
6.44993e-05
7.13179e-05
2.03042e-05
2.03075e-05
2.03099e-05
5.30552e-05
5.99204e-05
2.8101e-05
3.59984e-05
5.28505e-05
6.00394e-05
2.83464e-05
6.94811e-05
6.95065e-05
5.30563e-05
2.81057e-05
5.99191e-05
3.60024e-05
5.28503e-05
2.83504e-05
6.00438e-05
6.67417e-05
6.67494e-05
4.13996e-05
6.68057e-05
6.68149e-05
6.95597e-05
6.95415e-05
6.95616e-05
6.95434e-05
5.97104e-05
5.97201e-05
1.88881e-05
5.99111e-05
5.99195e-05
6.95081e-05
6.95254e-05
6.951e-05
6.95273e-05
1.90119e-05
6.01993e-05
6.02078e-05
6.001e-05
6.00197e-05
5.48438e-05
7.00986e-05
7.01204e-05
5.43649e-05
3.10612e-05
4.64302e-05
1.47093e-05
1.62886e-05
4.68073e-05
1.46752e-05
3.04974e-05
3.10605e-05
4.6432e-05
1.4709e-05
1.62886e-05
4.68085e-05
1.46749e-05
3.04955e-05
5.49814e-05
7.01497e-05
7.01292e-05
5.54214e-05
5.49802e-05
7.01458e-05
7.01253e-05
5.54199e-05
3.13436e-05
1.63417e-05
4.7363e-05
1.46218e-05
4.70019e-05
1.46473e-05
3.19017e-05
3.13425e-05
1.63417e-05
4.73627e-05
1.46215e-05
4.70036e-05
1.4647e-05
3.19017e-05
5.97147e-05
5.97088e-05
1.88879e-05
5.99145e-05
5.99102e-05
6.95594e-05
6.95413e-05
6.95091e-05
6.95264e-05
1.90092e-05
6.02027e-05
6.01985e-05
6.00144e-05
6.00094e-05
6.95079e-05
6.95251e-05
3.10574e-05
4.64341e-05
1.47092e-05
1.62884e-05
4.68102e-05
1.46751e-05
3.0499e-05
5.48454e-05
7.0099e-05
7.01209e-05
5.43646e-05
3.10568e-05
1.47088e-05
4.64274e-05
1.6289e-05
1.46748e-05
4.68126e-05
3.04996e-05
5.49808e-05
7.01509e-05
7.01303e-05
5.54224e-05
3.13474e-05
1.63415e-05
4.73657e-05
1.46217e-05
4.70053e-05
1.46473e-05
3.18984e-05
5.498e-05
7.01464e-05
7.01259e-05
5.54213e-05
3.13472e-05
1.63421e-05
1.46214e-05
4.73653e-05
1.46469e-05
4.69994e-05
3.1898e-05
5.48363e-05
7.0101e-05
7.01226e-05
5.43703e-05
3.10552e-05
1.4709e-05
4.64288e-05
1.62883e-05
1.46749e-05
4.68061e-05
3.04977e-05
5.48409e-05
7.00978e-05
7.01197e-05
5.43673e-05
3.13454e-05
1.63414e-05
4.73614e-05
1.46215e-05
4.70002e-05
1.46471e-05
3.18965e-05
5.49852e-05
7.01481e-05
7.0128e-05
5.54129e-05
3.13463e-05
1.63414e-05
1.46215e-05
4.73611e-05
1.46471e-05
4.70003e-05
3.18968e-05
5.49827e-05
7.01452e-05
7.01248e-05
5.54174e-05
5.97152e-05
5.97102e-05
1.88895e-05
5.99158e-05
5.99108e-05
6.95605e-05
6.95421e-05
6.95097e-05
6.95271e-05
1.90107e-05
6.02042e-05
6.01994e-05
6.00142e-05
6.001e-05
6.95086e-05
6.95261e-05
3.10602e-05
1.47094e-05
4.64299e-05
1.6289e-05
1.46754e-05
4.68092e-05
3.0498e-05
5.48394e-05
7.01029e-05
7.01246e-05
5.43723e-05
5.48383e-05
7.00993e-05
7.01212e-05
5.43715e-05
3.13445e-05
1.63415e-05
1.46215e-05
4.73617e-05
1.46471e-05
4.70017e-05
3.19046e-05
3.13453e-05
1.63419e-05
1.4622e-05
4.73634e-05
1.46475e-05
4.70031e-05
3.19025e-05
5.4987e-05
7.01499e-05
7.01297e-05
5.54152e-05
5.49861e-05
7.01467e-05
7.01262e-05
5.54142e-05
6.95593e-05
6.95411e-05
6.95614e-05
6.9543e-05
1.90265e-05
6.01949e-05
6.02047e-05
6.00061e-05
6.00151e-05
6.95077e-05
6.9525e-05
6.95097e-05
6.95271e-05
6.94925e-05
6.94761e-05
6.94944e-05
6.9478e-05
6.02936e-05
6.03023e-05
1.96162e-05
6.04728e-05
6.04807e-05
6.94456e-05
6.94611e-05
6.94476e-05
6.9463e-05
1.9757e-05
6.0731e-05
6.07392e-05
6.0562e-05
6.05705e-05
5.59454e-05
7.01501e-05
5.55414e-05
7.01695e-05
3.27311e-05
4.75481e-05
1.46026e-05
1.65335e-05
3.21822e-05
4.78929e-05
1.45856e-05
3.27311e-05
4.75498e-05
1.46023e-05
1.65336e-05
3.21806e-05
4.7894e-05
1.45853e-05
5.60547e-05
7.01953e-05
7.01775e-05
5.64262e-05
5.60533e-05
7.01916e-05
7.01737e-05
5.64248e-05
3.30071e-05
1.66085e-05
4.84015e-05
1.45668e-05
4.80709e-05
1.45753e-05
3.35447e-05
3.30055e-05
1.66085e-05
4.84033e-05
1.45665e-05
4.80721e-05
1.4575e-05
3.35421e-05
6.02977e-05
6.02918e-05
1.96156e-05
6.04765e-05
6.04712e-05
6.94922e-05
6.94759e-05
6.94468e-05
6.94622e-05
1.97551e-05
6.07349e-05
6.07292e-05
6.05656e-05
6.05595e-05
6.94455e-05
6.94607e-05
3.27275e-05
4.75499e-05
1.46026e-05
1.65331e-05
3.2186e-05
4.78986e-05
1.45856e-05
5.59466e-05
7.01508e-05
5.55412e-05
7.01702e-05
3.27263e-05
1.46022e-05
4.75474e-05
1.65339e-05
3.21854e-05
1.45852e-05
4.78961e-05
5.60539e-05
7.01965e-05
7.01786e-05
5.64268e-05
3.30101e-05
1.66081e-05
4.84052e-05
1.45668e-05
4.8071e-05
1.45753e-05
3.35416e-05
5.60529e-05
7.01922e-05
7.01744e-05
5.64258e-05
3.30097e-05
1.66089e-05
1.45664e-05
4.84036e-05
1.45749e-05
4.80698e-05
3.35413e-05
5.59386e-05
7.01527e-05
5.55461e-05
7.01718e-05
3.27268e-05
1.46025e-05
4.75462e-05
1.65335e-05
3.21846e-05
1.45854e-05
4.78927e-05
5.5943e-05
7.01496e-05
5.5544e-05
7.01691e-05
3.30081e-05
1.66078e-05
4.83978e-05
1.45665e-05
4.80694e-05
1.4575e-05
3.3538e-05
5.60574e-05
7.01938e-05
7.01763e-05
5.6418e-05
3.30083e-05
1.66084e-05
1.45667e-05
4.84001e-05
1.45751e-05
4.8069e-05
3.35418e-05
5.60557e-05
7.01912e-05
7.01734e-05
5.64226e-05
6.02973e-05
6.02926e-05
1.96154e-05
6.04769e-05
6.04728e-05
6.94931e-05
6.94766e-05
6.94474e-05
6.94629e-05
1.97564e-05
6.07348e-05
6.07312e-05
6.05655e-05
6.05609e-05
6.94461e-05
6.94616e-05
3.27317e-05
1.46029e-05
4.75501e-05
1.6534e-05
3.21829e-05
1.45859e-05
4.78976e-05
5.59403e-05
7.01543e-05
5.55474e-05
7.01735e-05
5.59393e-05
7.01512e-05
5.55465e-05
7.01706e-05
3.30077e-05
1.66082e-05
1.45666e-05
4.84004e-05
1.45751e-05
4.80706e-05
3.35465e-05
3.30071e-05
1.66088e-05
1.45672e-05
4.84046e-05
1.45757e-05
4.80698e-05
3.35445e-05
5.60584e-05
7.01953e-05
7.01777e-05
5.64195e-05
5.60575e-05
7.01927e-05
7.01747e-05
5.64185e-05
6.94921e-05
6.94758e-05
6.94942e-05
6.94778e-05
1.97748e-05
6.07266e-05
6.07358e-05
6.05583e-05
6.05651e-05
6.94454e-05
6.94608e-05
6.94473e-05
6.94628e-05
6.94311e-05
6.94165e-05
6.9433e-05
6.94185e-05
6.08155e-05
6.0824e-05
2.04336e-05
6.09757e-05
6.09848e-05
6.93891e-05
6.94025e-05
6.93911e-05
6.94045e-05
2.05899e-05
6.12084e-05
6.12176e-05
6.10564e-05
6.10645e-05
5.68627e-05
7.01953e-05
5.65203e-05
7.02124e-05
3.43387e-05
4.85702e-05
1.45653e-05
1.68647e-05
3.38146e-05
4.88864e-05
1.45671e-05
3.43369e-05
4.85711e-05
1.4565e-05
1.68648e-05
3.38144e-05
4.8888e-05
1.45667e-05
5.69488e-05
7.0235e-05
7.02193e-05
5.72651e-05
5.69471e-05
7.0232e-05
7.0216e-05
5.72638e-05
3.46033e-05
1.69608e-05
4.93506e-05
1.45816e-05
4.90487e-05
1.45718e-05
3.51116e-05
3.46027e-05
1.69607e-05
4.93516e-05
1.45813e-05
4.90501e-05
1.45716e-05
3.51108e-05
6.08193e-05
6.0813e-05
2.04331e-05
6.09801e-05
6.09739e-05
6.94307e-05
6.94165e-05
6.93906e-05
6.9404e-05
2.05884e-05
6.12126e-05
6.12059e-05
6.10606e-05
6.10531e-05
6.93889e-05
6.94021e-05
3.43366e-05
4.85711e-05
1.45653e-05
1.68642e-05
3.38175e-05
4.88914e-05
1.4567e-05
5.68635e-05
7.0196e-05
5.65198e-05
7.02129e-05
3.43355e-05
1.45649e-05
4.85694e-05
1.68652e-05
3.38162e-05
1.45666e-05
4.889e-05
5.69475e-05
7.02361e-05
7.02204e-05
5.72654e-05
3.46052e-05
1.69602e-05
4.93547e-05
1.45816e-05
4.90484e-05
1.45718e-05
3.51099e-05
5.69465e-05
7.02321e-05
7.02165e-05
5.72643e-05
3.46043e-05
1.69612e-05
1.45812e-05
4.93529e-05
1.45714e-05
4.90466e-05
3.5109e-05
5.68559e-05
7.01976e-05
5.65243e-05
7.02144e-05
3.43358e-05
1.45652e-05
4.85686e-05
1.68649e-05
3.38162e-05
1.45669e-05
4.88852e-05
5.68607e-05
7.0195e-05
5.65226e-05
7.0212e-05
3.4603e-05
1.69598e-05
4.9347e-05
1.45813e-05
4.90471e-05
1.45715e-05
3.51094e-05
5.69505e-05
7.02333e-05
7.0218e-05
5.7257e-05
3.46046e-05
1.6961e-05
1.45816e-05
4.93495e-05
1.45718e-05
4.90472e-05
3.51094e-05
5.69492e-05
7.02312e-05
7.02156e-05
5.72619e-05
6.08191e-05
6.08147e-05
2.04328e-05
6.09802e-05
6.09756e-05
6.94315e-05
6.9417e-05
6.93909e-05
6.94045e-05
2.05893e-05
6.12127e-05
6.12088e-05
6.10601e-05
6.10552e-05
6.93895e-05
6.9403e-05
3.43396e-05
1.45658e-05
4.85693e-05
1.68654e-05
3.38151e-05
1.45676e-05
4.88896e-05
5.68574e-05
7.01991e-05
5.65246e-05
7.02159e-05
5.68564e-05
7.01964e-05
5.65237e-05
7.02134e-05
3.46032e-05
1.69604e-05
1.45816e-05
4.93502e-05
1.45717e-05
4.90487e-05
3.51156e-05
3.46024e-05
1.69612e-05
1.45823e-05
4.93548e-05
1.45724e-05
4.90473e-05
3.51134e-05
5.69507e-05
7.02349e-05
7.02195e-05
5.72584e-05
5.69498e-05
7.02326e-05
7.02169e-05
5.72574e-05
6.94309e-05
6.94164e-05
6.94329e-05
6.94183e-05
2.06106e-05
6.12045e-05
6.12124e-05
6.10522e-05
6.10595e-05
6.9389e-05
6.94024e-05
6.93909e-05
6.94044e-05
6.93755e-05
6.9363e-05
6.93775e-05
6.9365e-05
6.12845e-05
6.12927e-05
2.13285e-05
6.14301e-05
6.14384e-05
6.93383e-05
6.93499e-05
6.93403e-05
6.93518e-05
2.14974e-05
6.16401e-05
6.16486e-05
6.15022e-05
6.15101e-05
5.7632e-05
7.02344e-05
5.73382e-05
7.02497e-05
3.58635e-05
4.95056e-05
1.45961e-05
1.72789e-05
3.537e-05
4.97954e-05
1.46144e-05
3.58628e-05
4.95077e-05
1.45958e-05
1.72791e-05
3.53686e-05
4.97965e-05
1.46141e-05
5.76994e-05
7.02695e-05
7.02557e-05
5.79726e-05
5.76978e-05
7.02664e-05
7.02526e-05
5.79712e-05
3.61122e-05
1.73953e-05
5.02208e-05
1.46644e-05
4.99434e-05
1.46376e-05
3.65905e-05
3.61109e-05
1.73953e-05
5.02226e-05
1.46641e-05
4.99455e-05
1.46372e-05
3.65894e-05
6.12888e-05
6.1281e-05
2.13267e-05
6.14334e-05
6.14264e-05
6.93749e-05
6.93626e-05
6.93399e-05
6.93513e-05
2.14962e-05
6.16445e-05
6.16366e-05
6.15063e-05
6.14979e-05
6.93378e-05
6.9349e-05
3.58615e-05
4.95063e-05
1.45962e-05
1.72783e-05
3.5371e-05
4.97995e-05
1.46144e-05
5.76323e-05
7.02352e-05
5.73375e-05
7.025e-05
3.58604e-05
1.45958e-05
4.9505e-05
1.72795e-05
3.53705e-05
1.46141e-05
4.97978e-05
5.76981e-05
7.02706e-05
7.02568e-05
5.79724e-05
3.61134e-05
1.73946e-05
5.02257e-05
1.46645e-05
4.99442e-05
1.46376e-05
3.65884e-05
5.7697e-05
7.02666e-05
7.02529e-05
5.79713e-05
3.61131e-05
1.73958e-05
1.46641e-05
5.02242e-05
1.46372e-05
4.99426e-05
3.65865e-05
5.76254e-05
7.02364e-05
5.7341e-05
7.02511e-05
3.58609e-05
1.45961e-05
4.95051e-05
1.72796e-05
3.53709e-05
1.46145e-05
4.97936e-05
5.76302e-05
7.02343e-05
5.73401e-05
7.02494e-05
3.61124e-05
1.7394e-05
5.02177e-05
1.46641e-05
4.99418e-05
1.4637e-05
3.65852e-05
5.76999e-05
7.02676e-05
7.02539e-05
5.79648e-05
3.61137e-05
1.73959e-05
1.46646e-05
5.02202e-05
1.46376e-05
4.99435e-05
3.65876e-05
5.76993e-05
7.02661e-05
7.02522e-05
5.79695e-05
6.12887e-05
6.12838e-05
2.13276e-05
6.14337e-05
6.14296e-05
6.93759e-05
6.93633e-05
6.93401e-05
6.93517e-05
2.14977e-05
6.16446e-05
6.16401e-05
6.15063e-05
6.15012e-05
6.93386e-05
6.93501e-05
3.58619e-05
1.45968e-05
4.95041e-05
1.72797e-05
3.53683e-05
1.46152e-05
4.97979e-05
5.76267e-05
7.0238e-05
5.73411e-05
7.02529e-05
5.76257e-05
7.02356e-05
5.73402e-05
7.02506e-05
3.61125e-05
1.73948e-05
1.46647e-05
5.02211e-05
1.46377e-05
4.99436e-05
3.65905e-05
3.61128e-05
1.73958e-05
1.46653e-05
5.02238e-05
1.46384e-05
4.99428e-05
3.659e-05
5.77e-05
7.02694e-05
7.02556e-05
5.79661e-05
5.76991e-05
7.02673e-05
7.02534e-05
5.79652e-05
6.93754e-05
6.93629e-05
6.93773e-05
6.93648e-05
2.15207e-05
6.16364e-05
6.16444e-05
6.14986e-05
6.15058e-05
6.93382e-05
6.93497e-05
6.934e-05
6.93516e-05
6.93255e-05
6.9315e-05
6.93275e-05
6.93169e-05
6.17092e-05
6.17176e-05
2.22859e-05
6.18414e-05
6.18496e-05
6.9293e-05
6.93026e-05
6.9295e-05
6.93045e-05
2.24664e-05
6.20334e-05
6.20414e-05
6.19073e-05
6.19153e-05
5.82847e-05
7.02689e-05