/*--------------------------------*- C++ -*----------------------------------*\
| =========                 |                                                 |
| \\      /  F ield         | OpenFOAM: The Open Source CFD Toolbox           |
|  \\    /   O peration     | Version:  2312                                  |
|   \\  /    A nd           | Website:  www.openfoam.com                      |
|    \\/     M anipulation  |                                                 |
\*---------------------------------------------------------------------------*/
FoamFile
{
    version     2.0;
    format      ascii;
    arch        "LSB;label=32;scalar=64";
    class       volScalarField;
    location    "750";
    object      k;
}
// * * * * * * * * * * * * * * * * * * * * * * * * * * * * * * * * * * * * * //

dimensions      [0 2 -2 0 0 0 0];

internalField   nonuniform List<scalar> 
43168
(
3.9195e-05
5.15797e-05
5.15831e-05
5.36622e-05
5.36229e-05
5.15258e-05
5.1521e-05
5.36152e-05
5.15234e-05
5.15241e-05
5.15253e-05
5.15252e-05
5.36262e-05
5.15286e-05
5.15231e-05
5.36229e-05
5.3663e-05
5.15802e-05
5.15755e-05
5.36651e-05
5.15778e-05
5.15785e-05
5.15795e-05
5.36647e-05
5.15774e-05
7.34434e-05
7.34444e-05
3.90996e-05
3.90992e-05
3.91037e-05
3.91025e-05
6.86291e-05
7.34749e-05
6.86062e-05
7.34992e-05
7.12225e-05
7.12474e-05
6.86281e-05
7.34777e-05
6.86052e-05
7.35001e-05
3.91943e-05
3.91991e-05
3.91975e-05
6.07208e-05
6.48332e-05
4.69233e-05
5.16315e-05
6.06859e-05
6.48573e-05
4.69895e-05
7.12239e-05
7.12485e-05
6.07209e-05
4.69263e-05
6.4834e-05
5.16351e-05
6.0686e-05
4.69925e-05
6.48582e-05
6.99674e-05
6.9976e-05
5.37035e-05
6.99822e-05
6.99906e-05
7.11933e-05
7.11964e-05
5.35364e-05
6.99381e-05
6.99464e-05
7.12199e-05
7.11948e-05
7.1223e-05
7.11979e-05
5.35746e-05
6.99629e-05
6.99713e-05
6.99463e-05
6.99544e-05
5.14142e-05
6.47948e-05
6.8579e-05
7.34717e-05
7.34468e-05
6.86036e-05
6.85772e-05
7.34684e-05
7.34436e-05
6.86017e-05
6.06371e-05
5.1471e-05
6.48266e-05
4.68533e-05
6.48002e-05
4.67838e-05
6.0678e-05
6.06353e-05
5.14645e-05
6.48227e-05
4.68509e-05
6.47966e-05
4.67811e-05
6.06762e-05
7.12213e-05
7.11959e-05
5.35815e-05
6.9963e-05
6.99636e-05
6.99464e-05
7.12213e-05
5.14116e-05
6.47973e-05
6.85777e-05
7.34726e-05
7.34496e-05
6.86026e-05
6.0636e-05
5.14686e-05
6.4829e-05
4.68527e-05
6.48024e-05
4.67832e-05
6.06774e-05
6.85777e-05
7.34682e-05
7.34455e-05
6.85996e-05
6.06372e-05
5.14692e-05
4.68534e-05
6.48247e-05
4.67837e-05
6.47987e-05
6.06741e-05
6.48276e-05
4.68541e-05
6.06758e-05
7.34719e-05
6.86002e-05
4.68546e-05
6.48237e-05
6.06758e-05
7.34679e-05
6.86004e-05
7.12223e-05
7.11974e-05
5.35791e-05
6.99655e-05
6.99631e-05
6.995e-05
6.99472e-05
7.12211e-05
7.11961e-05
6.06392e-05
5.14737e-05
4.68573e-05
6.48283e-05
4.67878e-05
6.48025e-05
6.06758e-05
6.06365e-05
5.14684e-05
4.68549e-05
6.48261e-05
4.67854e-05
6.48003e-05
6.06733e-05
6.85775e-05
7.34729e-05
7.3448e-05
6.85993e-05
6.85739e-05
7.34696e-05
7.34469e-05
6.85958e-05
5.3575e-05
6.99585e-05
6.99668e-05
6.99514e-05
7.12208e-05
7.12235e-05
7.11986e-05
7.12213e-05
7.1246e-05
7.12245e-05
7.12491e-05
6.99709e-05
6.99791e-05
5.37043e-05
6.99867e-05
6.9995e-05
7.12474e-05
7.12505e-05
5.37472e-05
6.99942e-05
7.00024e-05
6.86275e-05
7.34716e-05
6.86044e-05
7.3496e-05
6.0723e-05
6.48316e-05
4.69223e-05
5.16322e-05
6.06843e-05
6.48564e-05
4.69885e-05
6.07213e-05
6.48282e-05
4.692e-05
5.16273e-05
6.06825e-05
6.48525e-05
4.69861e-05
6.86315e-05
7.35023e-05
6.86299e-05
7.34991e-05
6.07287e-05
5.1684e-05
6.48612e-05
4.70544e-05
6.0727e-05
5.16791e-05
6.48576e-05
4.70521e-05
6.99709e-05
6.99725e-05
5.37003e-05
6.99867e-05
6.9987e-05
7.12227e-05
7.12474e-05
7.12486e-05
5.37468e-05
6.99942e-05
6.99957e-05
7.12488e-05
6.07226e-05
6.48338e-05
4.69218e-05
5.16298e-05
6.06836e-05
6.48588e-05
4.69881e-05
6.86255e-05
7.34733e-05
6.86046e-05
7.34958e-05
6.07195e-05
4.69224e-05
6.48301e-05
5.16305e-05
6.06843e-05
4.69886e-05
6.48545e-05
6.86305e-05
7.35051e-05
6.07283e-05
5.16816e-05
6.48633e-05
4.7054e-05
6.863e-05
7.35008e-05
6.07288e-05
5.16823e-05
4.70546e-05
6.48596e-05
6.86261e-05
7.34752e-05
6.86035e-05
7.34995e-05
6.0721e-05
4.69237e-05
6.48287e-05
5.16315e-05
6.06858e-05
4.69899e-05
6.48535e-05
6.86269e-05
7.34729e-05
6.86051e-05
7.34955e-05
6.07302e-05
5.16833e-05
6.48627e-05
4.70554e-05
6.8629e-05
7.35026e-05
6.07302e-05
5.16832e-05
4.70558e-05
6.48582e-05
6.86295e-05
7.35005e-05
6.99746e-05
6.99719e-05
5.37055e-05
6.99893e-05
6.99869e-05
7.12226e-05
7.12473e-05
7.125e-05
5.3748e-05
6.99979e-05
6.99954e-05
7.12487e-05
6.07186e-05
4.69239e-05
6.48316e-05
5.16293e-05
6.06836e-05
4.699e-05
6.4856e-05
6.86252e-05
7.34761e-05
6.86045e-05
7.35005e-05
6.86217e-05
7.34746e-05
6.86009e-05
7.34972e-05
6.07304e-05
5.16869e-05
4.70583e-05
6.48634e-05
6.07279e-05
5.16811e-05
4.70559e-05
6.48609e-05
6.86298e-05
7.35036e-05
6.86264e-05
7.35022e-05
7.12223e-05
7.1247e-05
7.12251e-05
7.12497e-05
5.37451e-05
6.99908e-05
6.99993e-05
7.12484e-05
7.12512e-05
7.16829e-05
7.97899e-05
7.34324e-05
7.97821e-05
7.16972e-05
7.34355e-05
7.1906e-05
6.86189e-05
7.16857e-05
7.16507e-05
7.16769e-05
7.16436e-05
7.19148e-05
7.1736e-05
7.98177e-05
7.34856e-05
7.17219e-05
7.98249e-05
7.19012e-05
6.86165e-05
7.16629e-05
7.16318e-05
7.18922e-05
7.16719e-05
7.16392e-05
7.17347e-05
7.98359e-05
7.34887e-05
7.98291e-05
7.17488e-05
7.12344e-05
7.12356e-05
7.19038e-05
6.86178e-05
7.16503e-05
7.16871e-05
7.16398e-05
7.16753e-05
7.19171e-05
7.17363e-05
7.98155e-05
7.34865e-05
7.17222e-05
7.98228e-05
7.19034e-05
6.86155e-05
7.16283e-05
7.16616e-05
7.18899e-05
7.16387e-05
7.16732e-05
7.1735e-05
7.98339e-05
7.34914e-05
7.98268e-05
7.17491e-05
7.12355e-05
7.1237e-05
9.50342e-05
7.3552e-05
7.35453e-05
7.35387e-05
7.35321e-05
9.50365e-05
7.4199e-05
6.52882e-05
7.33011e-05
6.99705e-05
7.41943e-05
6.52993e-05
7.33128e-05
7.42465e-05
6.52965e-05
7.33124e-05
6.99789e-05
7.42422e-05
6.53081e-05
7.3321e-05
9.50237e-05
7.35266e-05
7.352e-05
9.50213e-05
7.354e-05
7.35333e-05
7.42082e-05
7.33259e-05
6.99793e-05
6.53173e-05
6.53067e-05
7.33142e-05
7.42127e-05
7.4256e-05
7.3334e-05
6.99878e-05
6.53261e-05
6.53149e-05
7.33256e-05
7.42602e-05
7.11813e-05
7.11845e-05
9.49856e-05
7.35031e-05
7.34963e-05
7.34895e-05
7.34827e-05
9.49879e-05
7.41521e-05
7.32728e-05
6.99336e-05
6.5243e-05
7.32599e-05
7.41572e-05
6.52321e-05
7.41983e-05
7.32822e-05
6.99418e-05
6.52512e-05
7.32694e-05
7.42033e-05
6.52387e-05
7.12081e-05
7.12067e-05
7.12113e-05
7.12097e-05
9.50014e-05
7.35019e-05
7.34951e-05
9.49991e-05
7.35154e-05
7.35086e-05
7.4182e-05
6.5282e-05
6.99587e-05
7.33e-05
7.3288e-05
6.52717e-05
7.41867e-05
7.42282e-05
6.52902e-05
6.99668e-05
7.33094e-05
7.32974e-05
6.52785e-05
7.42329e-05
7.41723e-05
7.32747e-05
6.52522e-05
6.99505e-05
7.41674e-05
7.32865e-05
6.52626e-05
7.42185e-05
7.32841e-05
6.52589e-05
6.99588e-05
7.42136e-05
7.32959e-05
6.52709e-05
9.50124e-05
7.35277e-05
7.35209e-05
7.35142e-05
7.35074e-05
9.50147e-05
7.18734e-05
7.16344e-05
7.16066e-05
6.859e-05
7.18645e-05
7.16436e-05
7.16146e-05
7.1709e-05
7.34608e-05
7.98134e-05
7.17232e-05
7.98061e-05
7.17102e-05
7.97943e-05
7.34576e-05
7.1696e-05
7.98017e-05
7.18782e-05
6.85928e-05
7.16578e-05
7.16271e-05
7.18877e-05
7.16485e-05
7.16192e-05
7.18724e-05
7.16325e-05
7.16013e-05
6.85883e-05
7.18634e-05
7.16445e-05
7.16094e-05
7.17084e-05
7.34575e-05
7.9795e-05
7.97878e-05
7.17225e-05
7.17096e-05
7.9776e-05
7.34543e-05
7.16954e-05
7.97832e-05
7.18773e-05
6.8591e-05
7.16586e-05
7.16217e-05
7.16468e-05
7.16139e-05
7.18866e-05
7.12093e-05
7.1208e-05
7.42296e-05
6.52864e-05
6.99587e-05
7.33078e-05
6.52756e-05
7.32959e-05
7.42327e-05
7.41827e-05
6.52835e-05
6.99607e-05
7.32995e-05
7.32909e-05
6.52724e-05
7.41858e-05
6.5256e-05
6.99506e-05
6.52672e-05
9.50105e-05
7.35216e-05
7.35282e-05
7.35082e-05
7.35144e-05
9.50121e-05
7.12095e-05
7.18759e-05
7.16028e-05
7.16328e-05
6.85888e-05
7.18624e-05
7.1614e-05
7.16448e-05
7.17093e-05
7.34637e-05
7.98115e-05
7.17235e-05
7.98039e-05
7.17105e-05
7.97922e-05
7.34587e-05
7.16963e-05
7.97997e-05
7.1877e-05
6.85917e-05
7.16269e-05
7.16594e-05
7.18891e-05
7.16157e-05
7.16473e-05
7.18734e-05
7.16322e-05
7.15997e-05
6.85863e-05
7.18629e-05
7.16443e-05
7.16076e-05
7.17074e-05
7.34594e-05
7.97921e-05
7.97848e-05
7.17216e-05
7.17086e-05
7.9773e-05
7.34543e-05
7.16944e-05
7.97804e-05
7.18769e-05
6.85912e-05
7.16585e-05
7.16199e-05
7.16466e-05
7.16121e-05
7.18866e-05
7.17075e-05
7.34611e-05
7.98045e-05
7.98005e-05
7.17223e-05
7.1876e-05
6.859e-05
7.16215e-05
7.16581e-05
7.1612e-05
7.16459e-05
7.18877e-05
7.17079e-05
7.3459e-05
7.97913e-05
7.97841e-05
7.17221e-05
7.18751e-05
6.85919e-05
7.16583e-05
7.16207e-05
7.16461e-05
7.16131e-05
7.18884e-05
7.12107e-05
7.12091e-05
9.49968e-05
7.34954e-05
7.35016e-05
9.49948e-05
7.35088e-05
7.3515e-05
7.42289e-05
6.52887e-05
6.99625e-05
7.33077e-05
6.52765e-05
7.32961e-05
7.42334e-05
7.41814e-05
6.52839e-05
6.99597e-05
7.32985e-05
7.32899e-05
6.52723e-05
7.41859e-05
7.4219e-05
7.32837e-05
6.52568e-05
6.99532e-05
6.52692e-05
7.42142e-05
7.32937e-05
7.41715e-05
7.32766e-05
6.52524e-05
6.99506e-05
7.41666e-05
7.32851e-05
6.52644e-05
9.50081e-05
7.3521e-05
7.35272e-05
7.35077e-05
7.35138e-05
9.50101e-05
7.12094e-05
7.12079e-05
7.18734e-05
7.16055e-05
7.16336e-05
6.8586e-05
7.18644e-05
7.16133e-05
7.16425e-05
7.17095e-05
7.34621e-05
7.98097e-05
7.98025e-05
7.17236e-05
7.17106e-05
7.97906e-05
7.34588e-05
7.16965e-05
7.97982e-05
7.18787e-05
6.8591e-05
7.16255e-05
7.16565e-05
7.16178e-05
7.16475e-05
7.18877e-05
7.18729e-05
7.15974e-05
7.16326e-05
6.85824e-05
7.18618e-05
7.16051e-05
7.16414e-05
7.17084e-05
7.34607e-05
7.97929e-05
7.97856e-05
7.17226e-05
7.17097e-05
7.97739e-05
7.34557e-05
7.16954e-05
7.97812e-05
7.18741e-05
6.85875e-05
7.16174e-05
7.16555e-05
7.16097e-05
7.16464e-05
7.18875e-05
9.49974e-05
7.35156e-05
7.35089e-05
7.41802e-05
6.52807e-05
6.99552e-05
7.32995e-05
7.41848e-05
6.52692e-05
7.32874e-05
7.42281e-05
6.52893e-05
6.99639e-05
7.33076e-05
7.42325e-05
6.52773e-05
7.32989e-05
7.41706e-05
6.9946e-05
6.52613e-05
7.32858e-05
7.42181e-05
6.52574e-05
6.99546e-05
6.527e-05
7.3294e-05
9.50082e-05
7.35278e-05
7.35211e-05
9.50106e-05
7.35144e-05
7.35078e-05
7.12091e-05
7.12076e-05
7.12119e-05
7.12103e-05
7.1233e-05
7.12344e-05
7.12361e-05
7.12376e-05
9.50382e-05
7.35519e-05
7.35451e-05
7.35385e-05
7.35318e-05
9.50404e-05
7.42009e-05
6.52908e-05
7.33017e-05
6.99749e-05
7.41964e-05
7.33135e-05
6.53006e-05
7.42471e-05
6.52976e-05
7.33111e-05
6.99832e-05
7.42425e-05
7.33229e-05
6.53089e-05
9.50277e-05
7.35264e-05
7.35197e-05
9.50255e-05
7.35398e-05
7.3533e-05
7.42101e-05
7.33268e-05
6.99827e-05
6.53187e-05
7.3315e-05
7.42144e-05
6.53092e-05
7.42562e-05
7.33362e-05
6.99909e-05
6.53269e-05
7.33244e-05
7.42606e-05
6.5316e-05
7.12589e-05
7.1262e-05
9.50529e-05
7.35506e-05
7.35438e-05
9.50508e-05
7.35639e-05
7.35571e-05
7.42277e-05
7.33282e-05
6.5327e-05
6.9998e-05
7.42234e-05
7.33398e-05
6.53362e-05
7.42739e-05
7.33376e-05
6.53338e-05
7.00063e-05
7.42696e-05
7.33492e-05
6.53444e-05
7.19053e-05
6.86172e-05
7.16867e-05
7.16456e-05
7.16748e-05
7.16383e-05
7.19142e-05
7.17354e-05
7.97993e-05
7.34823e-05
7.17213e-05
7.98065e-05
7.19006e-05
6.86148e-05
7.1661e-05
7.16264e-05
7.16727e-05
7.18913e-05
7.16341e-05
7.17341e-05
7.98176e-05
7.34854e-05
7.98107e-05
7.17482e-05
7.19283e-05
7.16907e-05
7.1655e-05
6.86414e-05
7.19195e-05
7.16997e-05
7.16622e-05
7.17614e-05
7.98402e-05
7.35128e-05
7.17474e-05
7.98469e-05
7.19275e-05
7.1689e-05
7.16497e-05
6.86398e-05
7.19187e-05
7.17006e-05
7.1657e-05
7.17608e-05
7.98218e-05
7.35096e-05
7.17469e-05
7.98286e-05
9.50358e-05
7.35457e-05
7.3552e-05
7.35324e-05
7.35388e-05
9.50376e-05
7.42466e-05
6.52944e-05
7.33096e-05
6.9975e-05
7.33213e-05
7.42433e-05
6.53049e-05
7.41999e-05
6.52913e-05
7.33043e-05
6.99754e-05
6.5302e-05
7.41968e-05
7.3313e-05
9.50249e-05
7.35203e-05
7.35269e-05
7.35337e-05
9.5023e-05
7.35401e-05
7.4257e-05
7.33345e-05
6.99827e-05
6.53231e-05
7.33229e-05
6.53128e-05
7.42601e-05
7.42106e-05
7.33261e-05
6.99843e-05
6.53201e-05
6.53098e-05
7.33177e-05
7.42135e-05
7.12344e-05
7.12358e-05
7.12604e-05
9.50501e-05
7.35444e-05
7.35507e-05
9.50484e-05
7.35576e-05
7.35639e-05
7.42732e-05
7.3336e-05
6.53306e-05
6.99981e-05
6.53406e-05
7.42702e-05
7.33475e-05
7.42266e-05
7.33309e-05
6.53275e-05
6.99985e-05
7.42239e-05
7.33393e-05
6.53375e-05
7.12603e-05
7.19049e-05
6.86177e-05
7.16865e-05
7.16438e-05
7.16747e-05
7.16366e-05
7.19138e-05
7.17344e-05
7.97963e-05
7.34822e-05
7.17203e-05
7.98035e-05
7.19003e-05
6.86129e-05
7.16609e-05
7.16246e-05
7.16726e-05
7.18909e-05
7.16323e-05
7.17331e-05
7.98146e-05
7.34871e-05
7.98077e-05
7.17472e-05
7.19304e-05
7.16516e-05
7.16894e-05
6.86404e-05
7.19174e-05
7.16617e-05
7.1701e-05
7.17617e-05
7.98379e-05
7.35138e-05
7.17477e-05
7.98448e-05
7.19271e-05
7.16888e-05
7.1648e-05
6.86378e-05
7.19183e-05
7.17005e-05
7.16553e-05
7.17598e-05
7.98188e-05
7.35094e-05
7.17458e-05
7.98256e-05
7.19027e-05
6.86164e-05
7.16454e-05
7.16862e-05
7.16363e-05
7.16742e-05
7.19151e-05
7.17351e-05
7.98122e-05
7.34859e-05
7.98158e-05
7.17204e-05
7.19013e-05
6.86133e-05
7.16245e-05
7.16604e-05
7.16336e-05
7.18897e-05
7.16723e-05
7.17332e-05
7.98271e-05
7.3489e-05
7.98234e-05
7.17479e-05
7.19029e-05
6.8617e-05
7.16865e-05
7.16446e-05
7.16746e-05
7.16373e-05
7.19159e-05
7.1735e-05
7.97957e-05
7.34818e-05
7.17208e-05
7.98027e-05
7.19023e-05
6.86138e-05
7.16607e-05
7.16253e-05
7.18897e-05
7.16725e-05
7.1633e-05
7.17336e-05
7.98138e-05
7.34868e-05
7.9807e-05
7.17477e-05
7.19284e-05
7.1648e-05
7.16884e-05
6.86384e-05
7.19171e-05
7.16568e-05
7.17002e-05
7.17605e-05
7.98344e-05
7.35131e-05
7.17459e-05
7.98379e-05
7.19294e-05
7.16887e-05
7.16485e-05
6.86394e-05
7.19164e-05
7.17004e-05
7.16562e-05
7.17603e-05
7.98181e-05
7.35091e-05
7.17463e-05
7.98247e-05
9.50339e-05
7.35453e-05
7.35515e-05
7.3532e-05
7.35382e-05
9.50359e-05
7.42476e-05
6.52956e-05
7.33096e-05
6.99776e-05
7.33213e-05
7.4243e-05
6.53074e-05
7.42002e-05
6.52915e-05
7.33033e-05
6.99751e-05
6.53026e-05
7.41956e-05
7.3312e-05
9.50231e-05
7.35199e-05
7.35261e-05
7.35332e-05
9.50211e-05
7.35394e-05
7.42568e-05
7.33346e-05
6.99864e-05
6.53254e-05
7.3323e-05
6.53141e-05
7.42612e-05
7.42094e-05
7.33252e-05
6.99839e-05
6.53206e-05
6.53099e-05
7.33167e-05
7.42138e-05
7.12343e-05
7.12357e-05
7.12614e-05
9.50484e-05
7.3544e-05
7.35502e-05
9.50465e-05
7.35572e-05
7.35635e-05
7.42745e-05
7.33362e-05
6.53319e-05
7.00008e-05
6.53429e-05
7.42702e-05
7.33477e-05
7.42271e-05
7.333e-05
6.53278e-05
6.99983e-05
7.42229e-05
7.33384e-05
6.53382e-05
7.12602e-05
7.19062e-05
6.86175e-05
7.16493e-05
7.16846e-05
7.16421e-05
7.16759e-05
7.1915e-05
7.17364e-05
7.98139e-05
7.34868e-05
7.98211e-05
7.17223e-05
7.19015e-05
6.86126e-05
7.16302e-05
7.16618e-05
7.16379e-05
7.18921e-05
7.16709e-05
7.17351e-05
7.98322e-05
7.34899e-05
7.98252e-05
7.17491e-05
7.19018e-05
6.8614e-05
7.16414e-05
7.16836e-05
7.16342e-05
7.16748e-05
7.19149e-05
7.17355e-05
7.97971e-05
7.34835e-05
7.17213e-05
7.98043e-05
7.19013e-05
6.86091e-05
7.16222e-05
7.16608e-05
7.18888e-05
7.16298e-05
7.16699e-05
7.17341e-05
7.98154e-05
7.34885e-05
7.98085e-05
7.17482e-05
7.19283e-05
7.16535e-05
7.16896e-05
6.86375e-05
7.19195e-05
7.16607e-05
7.16986e-05
7.17618e-05
7.98362e-05
7.3514e-05
7.17478e-05
7.98431e-05
7.19283e-05
7.16457e-05
7.16886e-05
6.8634e-05
7.19155e-05
7.16528e-05
7.16975e-05
7.17609e-05
7.98196e-05
7.35108e-05
7.17468e-05
7.98264e-05
7.12339e-05
7.12354e-05
7.12367e-05
7.12382e-05
9.5049e-05
7.35508e-05
7.35441e-05
9.50468e-05
7.3564e-05
7.35573e-05
7.42259e-05
7.33274e-05
6.53245e-05
6.99937e-05
7.42215e-05
6.53349e-05
7.33389e-05
7.42734e-05
7.33388e-05
6.53327e-05
7.00022e-05
7.42693e-05
6.53435e-05
7.33472e-05
7.12599e-05
7.12626e-05
3.89046e-05
3.22687e-05
3.22662e-05
3.92877e-05
3.2385e-05
3.23827e-05
2.34441e-05
2.33004e-05
6.59952e-05
5.95651e-05
5.95667e-05
5.3662e-05
6.59895e-05
5.95688e-05
5.95705e-05
6.59705e-05
5.36203e-05
5.95414e-05
5.9542e-05
5.95373e-05
5.95379e-05
6.59767e-05
6.59711e-05
5.3622e-05
5.95352e-05
5.95386e-05
5.95355e-05
5.95408e-05
6.59749e-05
6.59704e-05
5.36234e-05
5.95415e-05
5.9544e-05
5.95371e-05
5.95397e-05
6.5976e-05
6.59694e-05
5.36203e-05
5.95396e-05
5.95412e-05
6.59748e-05
5.95353e-05
5.95369e-05
6.59972e-05
5.95675e-05
5.9568e-05
5.36628e-05
6.59912e-05
5.95706e-05
5.95713e-05
6.59955e-05
5.95652e-05
5.95698e-05
5.36584e-05
5.95689e-05
6.59914e-05
5.95653e-05
6.59965e-05
5.95665e-05
5.9569e-05
5.36669e-05
5.95732e-05
6.59907e-05
5.95706e-05
3.90034e-05
3.21496e-05
3.2147e-05
3.20297e-05
3.2027e-05
2.30091e-05
2.31549e-05
3.90033e-05
3.21491e-05
3.21487e-05
3.20293e-05
3.20289e-05
2.30096e-05
2.31555e-05
3.90074e-05
3.21525e-05
3.21525e-05
3.20323e-05
3.20327e-05
2.30131e-05
2.31589e-05
3.90063e-05
3.21538e-05
3.21516e-05
3.20334e-05
3.2032e-05
2.30138e-05
2.31596e-05
3.22681e-05
3.22676e-05
3.92868e-05
3.23844e-05
3.23841e-05
2.34447e-05
2.3301e-05
3.22717e-05
3.22716e-05
3.92919e-05
3.23882e-05
3.2388e-05
2.34481e-05
2.33044e-05
3.22726e-05
3.22707e-05
3.92903e-05
3.23891e-05
3.2387e-05
2.34487e-05
2.3305e-05
3.93797e-05
3.25007e-05
3.24985e-05
2.35875e-05
3.93788e-05
3.25001e-05
3.24996e-05
2.3588e-05
3.93838e-05
3.2504e-05
3.25036e-05
2.35914e-05
3.93823e-05
3.25046e-05
3.25028e-05
2.3592e-05
5.64403e-05
6.07086e-05
6.24046e-05
5.51638e-05
6.23938e-05
5.51785e-05
5.64289e-05
5.74782e-05
6.04503e-05
6.42514e-05
6.48427e-05
5.74904e-05
6.04492e-05
6.4261e-05
5.63955e-05
6.06987e-05
6.23734e-05
5.51418e-05
5.64068e-05
6.23847e-05
5.51273e-05
5.75189e-05
6.42785e-05
6.48482e-05
6.04734e-05
6.04741e-05
6.42694e-05
5.75079e-05
5.64423e-05
6.07088e-05
5.51639e-05
6.24075e-05
5.51786e-05
6.23967e-05
5.64304e-05
5.74826e-05
6.04528e-05
6.42538e-05
6.48435e-05
5.74877e-05
6.04522e-05
6.42634e-05
5.63978e-05
6.0699e-05
5.5141e-05
6.23766e-05
5.64094e-05
5.51273e-05
6.23878e-05
5.75176e-05
6.42807e-05
6.48489e-05
6.04751e-05
6.04755e-05
6.42716e-05
5.75126e-05
6.60097e-05
5.37045e-05
5.95975e-05
5.9599e-05
5.95943e-05
5.95956e-05
6.6015e-05
6.59273e-05
5.35333e-05
5.94801e-05
5.94808e-05
6.59338e-05
5.94752e-05
5.94761e-05
6.59558e-05
5.35782e-05
5.95056e-05
5.95062e-05
6.59493e-05
5.95103e-05
5.95108e-05
5.73964e-05
6.42064e-05
6.47839e-05
6.0376e-05
6.4196e-05
6.03711e-05
5.73853e-05
5.63266e-05
6.23332e-05
5.50613e-05
6.06547e-05
5.63375e-05
6.23455e-05
5.50567e-05
5.74561e-05
6.04267e-05
6.48161e-05
6.42446e-05
6.04213e-05
6.42349e-05
5.74505e-05
5.74162e-05
6.42158e-05
6.03961e-05
6.48109e-05
6.04011e-05
5.74268e-05
6.4226e-05
5.63727e-05
6.06611e-05
6.23667e-05
5.50923e-05
6.23549e-05
5.50973e-05
5.6362e-05
5.6322e-05
6.23282e-05
5.50594e-05
6.0653e-05
5.6333e-05
6.23406e-05
5.50544e-05
5.74537e-05
6.04215e-05
6.48127e-05
6.42366e-05
6.42268e-05
6.04203e-05
5.74416e-05
5.74104e-05
6.42077e-05
6.03943e-05
6.4807e-05
5.74227e-05
6.42179e-05
6.03973e-05
5.63682e-05
6.06593e-05
6.23619e-05
5.50902e-05
6.235e-05
5.50954e-05
5.63573e-05
5.35744e-05
5.95066e-05
5.95057e-05
6.4786e-05
6.03784e-05
6.03723e-05
5.63277e-05
6.23284e-05
5.50565e-05
6.06538e-05
5.63329e-05
6.23458e-05
5.50595e-05
5.7449e-05
6.0428e-05
6.48185e-05
6.42445e-05
6.04239e-05
6.42327e-05
5.74484e-05
5.742e-05
6.42137e-05
6.03972e-05
6.48132e-05
6.04026e-05
5.74173e-05
6.42258e-05
5.63681e-05
6.06603e-05
6.23673e-05
5.50973e-05
6.23505e-05
5.5095e-05
5.63625e-05
5.63215e-05
5.50646e-05
6.23277e-05
6.06507e-05
5.63345e-05
5.50504e-05
6.23396e-05
5.7453e-05
6.04229e-05
6.48147e-05
6.42363e-05
6.42264e-05
6.04236e-05
5.74413e-05
5.74098e-05
6.42075e-05
6.03986e-05
6.4809e-05
5.74227e-05
6.42177e-05
6.03981e-05
5.63701e-05
6.06608e-05
5.50881e-05
6.23609e-05
5.51024e-05
6.23491e-05
5.63572e-05
5.74588e-05
6.04248e-05
6.48178e-05
6.4243e-05
5.74474e-05
6.04257e-05
6.42327e-05
5.63728e-05
6.06625e-05
6.2364e-05
5.50899e-05
5.63614e-05
6.23521e-05
5.51051e-05
5.74529e-05
6.0425e-05
6.48132e-05
6.42371e-05
6.42273e-05
6.04198e-05
5.74483e-05
5.63721e-05
6.06626e-05
5.50913e-05
6.23626e-05
5.51057e-05
6.23509e-05
5.63611e-05
6.59552e-05
5.35821e-05
5.95059e-05
5.95086e-05
5.95105e-05
6.59489e-05
5.95132e-05
5.63275e-05
5.50671e-05
6.23338e-05
6.06526e-05
5.63399e-05
5.50532e-05
6.23456e-05
5.74588e-05
6.0427e-05
6.48184e-05
6.42453e-05
5.74536e-05
6.0428e-05
6.42354e-05
5.74191e-05
6.42165e-05
6.04019e-05
6.48127e-05
5.743e-05
6.04019e-05
6.42268e-05
5.63755e-05
6.06626e-05
5.5089e-05
6.23671e-05
5.63635e-05
5.51041e-05
6.2355e-05
5.63223e-05
5.50658e-05
6.23272e-05
6.065e-05
5.63349e-05
5.50514e-05
6.2339e-05
5.7452e-05
6.04244e-05
6.48161e-05
6.42371e-05
6.42272e-05
6.0425e-05
5.74471e-05
5.74122e-05
6.42087e-05
6.03982e-05
6.48104e-05
5.7423e-05
6.42184e-05
6.03985e-05
5.63706e-05
6.06601e-05
5.50888e-05
6.23603e-05
5.51032e-05
6.23486e-05
5.63581e-05
6.59545e-05
5.35787e-05
5.95055e-05
5.95093e-05
5.95104e-05
6.6011e-05
5.37057e-05
5.95992e-05
5.96001e-05
6.60166e-05
5.95967e-05
5.95972e-05
6.60358e-05
5.37449e-05
5.96251e-05
5.96256e-05
6.60304e-05
5.96273e-05
5.96282e-05
5.644e-05
6.07067e-05
6.24075e-05
5.51665e-05
6.23966e-05
5.51711e-05
5.64294e-05
5.74806e-05
6.04459e-05
6.42532e-05
6.48417e-05
6.42627e-05
5.74859e-05
6.04512e-05
5.63964e-05
6.07008e-05
6.23763e-05
5.5135e-05
6.23878e-05
5.64068e-05
5.51301e-05
5.75158e-05
6.42802e-05
6.48467e-05
6.04746e-05
6.42712e-05
6.0471e-05
5.75106e-05
5.64358e-05
6.0705e-05
6.24027e-05
5.51646e-05
6.23917e-05
5.51692e-05
5.64249e-05
5.74713e-05
6.04441e-05
6.42452e-05
6.48377e-05
5.74834e-05
6.42549e-05
6.04453e-05
5.63918e-05
6.06991e-05
6.23714e-05
5.51331e-05
5.64025e-05
6.2383e-05
5.51282e-05
5.75132e-05
6.42724e-05
6.48431e-05
6.04689e-05
6.42634e-05
5.7502e-05
6.04682e-05
5.6462e-05
6.24162e-05
5.52061e-05
6.07444e-05
5.64724e-05
6.24269e-05
5.52018e-05
5.75397e-05
6.42885e-05
6.04939e-05
6.48707e-05
6.04973e-05
5.75445e-05
6.42973e-05
5.64575e-05
6.24113e-05
5.52043e-05
6.07427e-05
5.64683e-05
6.24221e-05
5.51999e-05
5.75323e-05
6.42807e-05
6.04909e-05
6.48666e-05
5.75393e-05
6.42895e-05
6.04908e-05
6.60108e-05
5.37064e-05
5.95958e-05
5.95978e-05
5.95983e-05
5.95945e-05
6.60156e-05
6.60348e-05
5.37411e-05
5.9623e-05
5.96262e-05
5.96241e-05
6.60298e-05
5.96262e-05
5.64371e-05
6.07062e-05
6.24081e-05
5.51679e-05
6.23921e-05
5.5168e-05
5.64302e-05
5.74799e-05
6.04473e-05
6.42514e-05
6.48441e-05
6.42627e-05
5.74807e-05
6.04526e-05
5.63966e-05
6.07004e-05
6.23719e-05
5.51315e-05
6.23881e-05
5.64032e-05
5.51335e-05
5.75111e-05
6.42803e-05
6.48489e-05
6.04765e-05
6.42692e-05
6.0472e-05
5.75099e-05
5.64375e-05
6.07072e-05
5.5162e-05
6.24019e-05
5.51769e-05
6.2391e-05
5.64251e-05
5.74711e-05
6.04475e-05
6.42447e-05
6.48399e-05
5.74831e-05
6.42544e-05
6.04472e-05
5.63921e-05
6.06974e-05
5.51391e-05
6.23705e-05
5.64042e-05
5.51255e-05
6.23822e-05
5.7513e-05
6.42719e-05
6.48451e-05
6.04704e-05
6.42628e-05
5.75021e-05
6.0471e-05
5.64621e-05
6.24121e-05
5.52047e-05
6.07439e-05
5.64698e-05
6.24276e-05
5.52029e-05
5.75387e-05
6.42866e-05
6.04948e-05
6.4873e-05
6.0499e-05
5.75406e-05
6.42972e-05
5.64581e-05
5.52109e-05
6.24106e-05
6.07409e-05
5.647e-05
5.51975e-05
6.24214e-05
5.75327e-05
6.428e-05
6.04937e-05
6.48687e-05
5.75395e-05
6.42888e-05
6.04934e-05
5.64391e-05
6.07087e-05
5.51646e-05
6.24035e-05
5.51785e-05
6.23927e-05
5.64281e-05
5.74771e-05
6.04453e-05
6.42456e-05
6.48388e-05
6.04485e-05
5.74818e-05
6.42553e-05
5.63948e-05
6.06989e-05
5.5141e-05
6.23721e-05
5.51279e-05
5.64056e-05
6.23837e-05
5.75119e-05
6.42728e-05
6.48437e-05
6.0472e-05
6.04682e-05
6.42637e-05
5.75072e-05
5.64614e-05
6.24136e-05
5.52124e-05
6.07423e-05
5.64726e-05
6.24242e-05
5.5199e-05
5.75385e-05
6.42866e-05
6.04971e-05
6.48715e-05
5.75452e-05
6.04979e-05
6.42956e-05
5.64607e-05
5.521e-05
6.24123e-05
6.07424e-05
5.64715e-05
5.52021e-05
6.2423e-05
5.75363e-05
6.42812e-05
6.04903e-05
6.48677e-05
5.75407e-05
6.42898e-05
6.04955e-05
6.60108e-05
5.37057e-05
5.95993e-05
5.96019e-05
5.95983e-05
5.95956e-05
6.60164e-05
6.60355e-05
5.37466e-05
5.96241e-05
5.96268e-05
5.96274e-05
6.60302e-05
5.96301e-05
5.64377e-05
6.07064e-05
5.51633e-05
6.24012e-05
5.51772e-05
6.23904e-05
5.64258e-05
5.7476e-05
6.04493e-05
6.42457e-05
6.48413e-05
6.04508e-05
5.74808e-05
6.42553e-05
5.63929e-05
6.06966e-05
5.51399e-05
6.237e-05
5.51266e-05
5.64047e-05
6.23815e-05
5.7511e-05
6.42727e-05
6.48465e-05
6.04726e-05
6.0472e-05
6.42636e-05
5.7506e-05
5.64632e-05
5.52124e-05
6.24164e-05
6.07423e-05
5.64747e-05
5.5199e-05
6.2427e-05
5.75416e-05
6.42889e-05
6.04986e-05
6.48724e-05
5.75464e-05
6.04986e-05
6.42978e-05
5.64587e-05
5.52086e-05
6.24101e-05
6.07399e-05
5.64701e-05
5.52006e-05
6.24207e-05
5.7535e-05
6.4281e-05
6.04946e-05
6.48702e-05
5.75398e-05
6.42898e-05
6.04939e-05
6.60341e-05
5.37439e-05
5.96222e-05
5.96235e-05
6.60287e-05
5.96255e-05
5.96268e-05
3.95576e-05
5.17817e-05
5.17854e-05
5.38243e-05
3.98929e-05
5.1963e-05
5.19667e-05
5.39686e-05
4.02016e-05
5.21239e-05
5.21276e-05
5.40962e-05
4.0484e-05
5.2265e-05
5.22686e-05
5.42077e-05
4.0741e-05
5.23868e-05
5.23904e-05
5.4304e-05
4.09733e-05
5.249e-05
5.24935e-05
5.43855e-05
4.11816e-05
5.25753e-05
5.25788e-05
5.44522e-05
4.13668e-05
5.26435e-05
5.26469e-05
5.45048e-05
4.15298e-05
5.26951e-05
5.26985e-05
5.45438e-05
4.16714e-05
5.27309e-05
5.27343e-05
5.45704e-05
4.17925e-05
5.27514e-05
5.27548e-05
5.45899e-05
4.1894e-05
5.27575e-05
5.2761e-05
5.45946e-05
4.19765e-05
5.27514e-05
5.2755e-05
5.45808e-05
4.20415e-05
5.2733e-05
5.27365e-05
5.45593e-05
4.20901e-05
5.27029e-05
5.27061e-05
5.45274e-05
4.21232e-05
5.26619e-05
5.26648e-05
5.4488e-05
4.21415e-05
5.26109e-05
5.26137e-05
5.44408e-05
4.21457e-05
5.25508e-05
5.25538e-05
5.43853e-05
4.2112e-05
5.24744e-05
5.24777e-05
5.43108e-05
4.3793e-05
5.05498e-05
5.05529e-05
5.39344e-05
5.37841e-05
5.17332e-05
5.17283e-05
5.37808e-05
5.17309e-05
5.17315e-05
5.17325e-05
5.17324e-05
5.37858e-05
5.17361e-05
5.17303e-05
5.37831e-05
5.38258e-05
5.39308e-05
5.17824e-05
5.17775e-05
5.19194e-05
5.19144e-05
5.38244e-05
5.39282e-05
5.17801e-05
5.17808e-05
5.19171e-05
5.19179e-05
5.17816e-05
5.19187e-05
5.19185e-05
5.38271e-05
5.39325e-05
5.17796e-05
5.19224e-05
5.19165e-05
5.393e-05
5.39699e-05
5.40612e-05
5.19637e-05
5.19587e-05
5.2085e-05
5.208e-05
5.39684e-05
5.40589e-05
5.19615e-05
5.19622e-05
5.20828e-05
5.20836e-05
5.19628e-05
5.20843e-05
5.2084e-05
5.39714e-05
5.40631e-05
5.19608e-05
5.2088e-05
5.20821e-05
5.40607e-05
5.40975e-05
5.41757e-05
5.21246e-05
5.21196e-05
5.22307e-05
5.22257e-05
5.40965e-05
5.41739e-05
5.21224e-05
5.21231e-05
5.22285e-05
5.22292e-05
5.21236e-05
5.223e-05
5.22297e-05
5.40989e-05
5.41775e-05
5.21217e-05
5.22336e-05
5.22278e-05
5.41751e-05
5.42092e-05
5.42747e-05
5.22657e-05
5.22607e-05
5.23569e-05
5.2352e-05
5.42082e-05
5.42731e-05
5.22635e-05
5.22642e-05
5.23548e-05
5.23556e-05
5.22647e-05
5.23563e-05
5.23559e-05
5.42103e-05
5.42763e-05
5.22628e-05
5.23599e-05
5.2354e-05
5.42738e-05
5.43052e-05
5.43586e-05
5.23874e-05
5.23825e-05
5.24645e-05
5.24595e-05
5.4304e-05
5.43571e-05
5.23853e-05
5.23861e-05
5.24624e-05
5.24632e-05
5.23865e-05
5.2464e-05
5.24636e-05
5.43064e-05
5.43602e-05
5.23846e-05
5.24675e-05
5.24617e-05
5.43576e-05
5.43862e-05
5.44283e-05
5.24906e-05
5.24856e-05
5.2554e-05
5.2549e-05
5.43849e-05
5.44265e-05
5.24885e-05
5.24893e-05
5.2552e-05
5.25527e-05
5.24897e-05
5.25535e-05
5.25532e-05
5.43874e-05
5.44294e-05
5.24878e-05
5.25569e-05
5.25513e-05
5.44272e-05
5.44528e-05
5.44835e-05
5.25759e-05
5.25709e-05
5.26262e-05
5.26211e-05
5.44514e-05
5.44817e-05
5.25739e-05
5.25746e-05
5.26242e-05
5.26248e-05
5.25751e-05
5.26256e-05
5.26253e-05
5.44539e-05
5.44845e-05
5.25732e-05
5.2629e-05
5.26235e-05
5.44826e-05
5.45053e-05
5.45251e-05
5.26441e-05
5.26391e-05
5.26817e-05
5.26766e-05
5.45038e-05
5.45233e-05
5.26421e-05
5.26427e-05
5.26797e-05
5.26802e-05
5.26433e-05
5.26811e-05
5.26808e-05
5.45063e-05
5.4526e-05
5.26414e-05
5.26845e-05
5.2679e-05
5.45242e-05
5.45443e-05
5.45539e-05
5.26957e-05
5.26907e-05
5.27215e-05
5.27163e-05
5.45426e-05
5.45521e-05
5.26938e-05
5.26943e-05
5.27195e-05
5.272e-05
5.26949e-05
5.27208e-05
5.27206e-05
5.45452e-05
5.45548e-05
5.26931e-05
5.27242e-05
5.27188e-05
5.45527e-05
5.45705e-05
5.45729e-05
5.27315e-05
5.27264e-05
5.27465e-05
5.27414e-05
5.45687e-05
5.45709e-05
5.27296e-05
5.27301e-05
5.27446e-05
5.2745e-05
5.27307e-05
5.27458e-05
5.27456e-05
5.45713e-05
5.45734e-05
5.27289e-05
5.27492e-05
5.27439e-05
5.45686e-05
5.45857e-05
5.45777e-05
5.27521e-05
5.2747e-05
5.27575e-05
5.27523e-05
5.45838e-05
5.45756e-05
5.27503e-05
5.27506e-05
5.27557e-05
5.2756e-05
5.27513e-05
5.27568e-05
5.27566e-05
5.45871e-05
5.45775e-05
5.27496e-05
5.27603e-05
5.2755e-05
5.45699e-05
5.45885e-05
5.4568e-05
5.27583e-05
5.2753e-05
5.2754e-05
5.27487e-05
5.45865e-05
5.45668e-05
5.27565e-05
5.27568e-05
5.27522e-05
5.27525e-05
5.27573e-05
5.27532e-05
5.2753e-05
5.45899e-05
5.45688e-05
5.27557e-05
5.27568e-05
5.27515e-05
5.45643e-05
5.45783e-05
5.45482e-05
5.27522e-05
5.27469e-05
5.27374e-05
5.2732e-05
5.45765e-05
5.45463e-05
5.27504e-05
5.27507e-05
5.27356e-05
5.27359e-05
5.27512e-05
5.27366e-05
5.27365e-05
5.45792e-05
5.45489e-05
5.27496e-05
5.27402e-05
5.2735e-05
5.45424e-05
5.45568e-05
5.45188e-05
5.27338e-05
5.27285e-05
5.27088e-05
5.27033e-05
5.45549e-05
5.45167e-05
5.2732e-05
5.27322e-05
5.2707e-05
5.27074e-05
5.27325e-05
5.27079e-05
5.27081e-05
5.45574e-05
5.45194e-05
5.2731e-05
5.27118e-05
5.27066e-05
5.45144e-05
5.45278e-05
5.44797e-05
5.27037e-05
5.26985e-05
5.26689e-05
5.26635e-05
5.45257e-05
5.44777e-05
5.2702e-05
5.27018e-05
5.26672e-05
5.26679e-05
5.2702e-05
5.2668e-05
5.26686e-05
5.45284e-05
5.44803e-05
5.27006e-05
5.26722e-05
5.26671e-05
5.44773e-05
5.44893e-05
5.4433e-05
5.26628e-05
5.26575e-05
5.26189e-05
5.26135e-05
5.44874e-05
5.44311e-05
5.26611e-05
5.26605e-05
5.26172e-05
5.26182e-05
5.26607e-05
5.26181e-05
5.26189e-05
5.44898e-05
5.44336e-05
5.26592e-05
5.26225e-05
5.26174e-05
5.44313e-05
5.44421e-05
5.43789e-05
5.26119e-05
5.26067e-05
5.25598e-05
5.25545e-05
5.44401e-05
5.43769e-05
5.26101e-05
5.26093e-05
5.25581e-05
5.25592e-05
5.26095e-05
5.2559e-05
5.25598e-05
5.44426e-05
5.43794e-05
5.2608e-05
5.25634e-05
5.25584e-05
5.43774e-05
5.43865e-05