/*--------------------------------*- C++ -*----------------------------------*\
| =========                 |                                                 |
| \\      /  F ield         | OpenFOAM: The Open Source CFD Toolbox           |
|  \\    /   O peration     | Version:  2312                                  |
|   \\  /    A nd           | Website:  www.openfoam.com                      |
|    \\/     M anipulation  |                                                 |
\*---------------------------------------------------------------------------*/
FoamFile
{
    version     2.0;
    format      ascii;
    arch        "LSB;label=32;scalar=64";
    class       volScalarField;
    location    "50";
    object      epsilon;
}
// * * * * * * * * * * * * * * * * * * * * * * * * * * * * * * * * * * * * * //

dimensions      [0 2 -3 0 0 0 0];

internalField   nonuniform List<scalar> 
43168
(
1.99138e-07
2.32885e-07
2.32884e-07
2.72832e-07
2.72517e-07
2.32884e-07
2.32923e-07
2.7298e-07
2.32857e-07
2.32915e-07
2.3288e-07
2.32927e-07
2.72395e-07
2.32881e-07
2.32923e-07
2.7247e-07
2.7287e-07
2.32893e-07
2.32936e-07
2.73305e-07
2.32867e-07
2.32929e-07
2.32935e-07
2.72711e-07
2.32877e-07
8.71049e-06
8.71194e-06
1.99139e-07
1.99158e-07
1.99155e-07
1.99183e-07
2.01721e-06
8.71125e-06
2.01796e-06
8.71149e-06
1.97129e-05
1.9713e-05
2.01756e-06
8.71192e-06
2.01862e-06
8.71133e-06
1.99174e-07
1.99143e-07
1.99137e-07
5.32578e-07
1.63865e-06
2.10355e-07
2.32892e-07
5.3255e-07
1.63743e-06
2.10363e-07
1.97152e-05
1.97145e-05
5.32892e-07
2.10351e-07
1.63885e-06
2.32879e-07
5.32748e-07
2.10372e-07
1.63729e-06
3.75524e-06
3.74718e-06
2.72493e-07
3.74587e-06
3.74419e-06
1.97177e-05
1.97167e-05
2.72503e-07
3.74477e-06
3.73603e-06
1.97159e-05
1.97162e-05
1.97143e-05
1.97154e-05
2.72891e-07
3.74517e-06
3.74142e-06
3.74506e-06
3.74257e-06
2.32897e-07
1.6378e-06
2.01824e-06
8.7107e-06
8.71101e-06
2.01688e-06
2.01781e-06
8.71139e-06
8.71191e-06
2.01648e-06
5.33332e-07
2.32886e-07
1.63723e-06
2.10388e-07
1.63826e-06
2.10383e-07
5.33111e-07
5.33245e-07
2.32899e-07
1.63749e-06
2.10387e-07
1.63932e-06
2.10386e-07
5.32986e-07
1.9714e-05
1.97152e-05
2.72782e-07
3.73685e-06
3.74916e-06
3.74397e-06
1.97181e-05
2.32913e-07
1.63785e-06
2.01847e-06
8.71147e-06
8.71224e-06
2.01763e-06
5.33294e-07
2.32858e-07
1.63718e-06
2.10377e-07
1.63831e-06
2.10388e-07
5.33076e-07
2.01808e-06
8.7119e-06
8.71235e-06
2.01706e-06
5.33305e-07
2.32914e-07
2.10391e-07
1.63804e-06
2.10392e-07
1.63942e-06
5.33022e-07
1.63739e-06
2.10352e-07
5.32271e-07
8.71168e-06
2.01743e-06
2.10385e-07
1.63853e-06
5.32996e-07
8.71023e-06
2.01713e-06
1.97163e-05
1.97169e-05
2.7277e-07
3.74308e-06
3.73993e-06
3.74638e-06
3.74851e-06
1.97137e-05
1.97161e-05
5.32419e-07
2.32894e-07
2.10349e-07
1.63774e-06
2.10345e-07
1.63929e-06
5.32402e-07
5.33018e-07
2.32943e-07
2.10405e-07
1.63788e-06
2.104e-07
1.63881e-06
5.32893e-07
2.01832e-06
8.71202e-06
8.71208e-06
2.01726e-06
2.01841e-06
8.71196e-06
8.71147e-06
2.01733e-06
2.72812e-07
3.75494e-06
3.74609e-06
3.74481e-06
1.97208e-05
1.97188e-05
1.9717e-05
1.97149e-05
1.97149e-05
1.97133e-05
1.97141e-05
3.74563e-06
3.74127e-06
2.72538e-07
3.74382e-06
3.74148e-06
1.97139e-05
1.97134e-05
2.72872e-07
3.745e-06
3.74266e-06
2.01642e-06
8.7117e-06
2.01708e-06
8.7108e-06
5.33311e-07
1.63814e-06
2.10417e-07
2.32895e-07
5.33397e-07
1.63721e-06
2.10413e-07
5.33139e-07
1.63836e-06
2.10411e-07
2.32939e-07
5.33229e-07
1.63734e-06
2.10417e-07
2.01814e-06
8.71192e-06
2.01733e-06
8.71187e-06
5.33602e-07
2.32899e-07
1.63844e-06
2.10412e-07
5.33452e-07
2.32946e-07
1.63854e-06
2.10416e-07
3.73937e-06
3.74917e-06
2.72886e-07
3.742e-06
3.74715e-06
1.97168e-05
1.97163e-05
1.97121e-05
2.73201e-07
3.74378e-06
3.74755e-06
1.97151e-05
5.33185e-07
1.63801e-06
2.10369e-07
2.32865e-07
5.33325e-07
1.63706e-06
2.10362e-07
2.017e-06
8.7122e-06
2.01788e-06
8.71054e-06
5.33091e-07
2.10412e-07
1.63904e-06
2.3291e-07
5.33258e-07
2.10382e-07
1.63769e-06
2.01834e-06
8.71169e-06
5.3343e-07
2.32875e-07
1.63828e-06
2.10359e-07
2.01783e-06
8.71166e-06
5.3336e-07
2.32898e-07
2.10365e-07
1.63869e-06
2.01731e-06
8.71187e-06
2.01834e-06
8.71144e-06
5.33119e-07
2.1036e-07
1.63955e-06
2.32936e-07
5.33239e-07
2.10374e-07
1.63819e-06
2.01697e-06
8.71062e-06
2.01794e-06
8.71003e-06
5.33001e-07
2.32922e-07
1.6386e-06
2.10374e-07
2.01813e-06
8.71162e-06
5.33405e-07
2.32939e-07
2.10378e-07
1.63916e-06
2.01777e-06
8.71017e-06
3.74353e-06
3.74035e-06
2.72358e-07
3.74124e-06
3.73785e-06
1.97125e-05
1.97115e-05
1.97135e-05
2.72724e-07
3.74188e-06
3.73823e-06
1.97101e-05
5.32941e-07
2.10386e-07
1.63902e-06
2.32877e-07
5.33134e-07
2.10384e-07
1.63798e-06
2.01711e-06
8.71285e-06
2.01815e-06
8.71124e-06
2.01731e-06
8.71248e-06
2.01827e-06
8.71164e-06
5.33341e-07
2.32889e-07
2.10376e-07
1.63825e-06
5.33205e-07
2.32886e-07
2.10383e-07
1.63893e-06
2.01796e-06
8.71182e-06
2.01823e-06
8.71196e-06
1.97196e-05
1.97187e-05
1.97178e-05
1.97184e-05
2.72806e-07
3.74584e-06
3.73403e-06
1.97173e-05
1.97166e-05
2.28985e-05
5.45956e-06
8.71077e-06
5.45969e-06
2.29017e-05
8.71238e-06
1.33009e-05
2.01801e-06
1.2179e-05
2.5586e-06
1.21794e-05
2.55942e-06
1.33008e-05
2.29057e-05
5.46308e-06
8.71112e-06
2.29015e-05
5.46056e-06
1.33007e-05
2.01692e-06
1.21793e-05
2.55915e-06
1.33009e-05
1.21791e-05
2.55803e-06
2.29042e-05
5.46422e-06
8.71177e-06
5.46497e-06
2.29069e-05
1.97134e-05
1.97125e-05
1.3301e-05
2.01851e-06
2.55654e-06
1.21791e-05
2.5587e-06
1.21794e-05
1.33044e-05
2.29021e-05
5.46414e-06
8.71161e-06
2.28991e-05
5.45684e-06
1.33008e-05
2.01754e-06
2.55992e-06
1.21794e-05
1.3301e-05
2.55804e-06
1.21791e-05
2.28987e-05
5.45728e-06
8.7119e-06
5.4619e-06
2.28996e-05
1.97154e-05
1.97143e-05
7.33423e-06
2.2193e-05
2.2193e-05
2.21905e-05
2.21904e-05
7.33306e-06
2.09424e-06
8.53097e-07
8.78862e-06
3.75297e-06
2.09493e-06
8.52482e-07
8.78817e-06
2.09409e-06
8.52783e-07
8.79008e-06
3.74669e-06
2.09764e-06
8.5223e-07
8.78992e-06
7.32956e-06
2.21888e-05
2.21887e-05
7.33069e-06
2.21924e-05
2.21924e-05
2.09514e-06
8.78837e-06
3.75311e-06
8.52417e-07
8.5292e-07
8.79009e-06
2.09445e-06
2.09374e-06
8.79083e-06
3.74808e-06
8.52218e-07
8.52702e-07
8.79027e-06
2.09151e-06
1.97173e-05
1.97165e-05
7.32642e-06
2.21859e-05
2.21861e-05
2.21838e-05
2.2184e-05
7.32356e-06
2.0954e-06
8.78655e-06
3.75126e-06
8.50662e-07
8.78712e-06
2.09426e-06
8.52584e-07
2.09823e-06
8.79007e-06
3.74277e-06
8.50772e-07
8.79081e-06
2.09712e-06
8.52742e-07
1.97156e-05
1.97167e-05
1.97142e-05
1.97155e-05
7.32152e-06
2.21835e-05
2.21836e-05
7.31692e-06
2.21864e-05
2.21865e-05
2.09604e-06
8.50221e-07
3.74604e-06
8.78629e-06
8.78671e-06
8.50424e-07
2.09462e-06
2.09898e-06
8.50188e-07
3.7431e-06
8.78927e-06
8.78978e-06
8.50435e-07
2.0976e-06
2.09459e-06
8.78683e-06
8.49176e-07
3.7431e-06
2.09568e-06
8.78641e-06
8.49625e-07
2.09751e-06
8.79009e-06
8.49269e-07
3.74211e-06
2.09856e-06
8.78959e-06
8.49684e-07
7.32812e-06
2.21868e-05
2.21868e-05
2.2184e-05
2.21841e-05
7.32413e-06
1.33007e-05
1.21793e-05
2.55853e-06
2.01655e-06
1.33008e-05
1.21791e-05
2.5565e-06
2.28993e-05
8.71091e-06
5.46036e-06
2.29031e-05
5.46229e-06
2.29022e-05
5.45937e-06
8.71061e-06
2.28993e-05
5.45988e-06
1.33009e-05
2.01767e-06
1.2179e-05
2.55769e-06
1.33007e-05
1.21794e-05
2.55825e-06
1.33064e-05
1.21791e-05
2.55137e-06
2.01638e-06
1.33083e-05
1.21789e-05
2.54909e-06
2.29052e-05
8.71187e-06
5.47057e-06
5.47093e-06
2.29075e-05
2.2908e-05
5.46275e-06
8.71154e-06
2.29053e-05
5.46612e-06
1.3308e-05
2.01738e-06
1.21789e-05
2.54431e-06
1.21792e-05
2.55001e-06
1.33062e-05
1.97138e-05
1.97152e-05
2.09745e-06
8.51771e-07
3.73752e-06
8.78985e-06
8.52225e-07
8.79037e-06
2.09697e-06
2.09575e-06
8.50623e-07
3.75111e-06
8.7882e-06
8.78873e-06
8.5085e-07
2.09451e-06
8.52628e-07
3.7412e-06
8.51786e-07
7.31802e-06
2.2189e-05
2.21887e-05
2.21852e-05
2.21849e-05
7.3172e-06
1.97176e-05
1.33006e-05
2.55896e-06
1.21794e-05
2.01756e-06
1.33008e-05
2.55826e-06
1.21791e-05
2.28984e-05
8.71191e-06
5.46044e-06
2.29012e-05
5.46203e-06
2.2901e-05
5.46815e-06
8.71163e-06
2.2899e-05
5.45916e-06
1.33009e-05
2.01853e-06
2.55876e-06
1.2179e-05
1.33008e-05
2.55967e-06
1.21794e-05
1.3306e-05
1.21793e-05
2.55412e-06
2.0171e-06
1.33067e-05
1.2179e-05
2.55138e-06
2.29011e-05
8.71231e-06
5.4669e-06
5.46781e-06
2.2904e-05
2.29038e-05
5.46671e-06
8.71203e-06
2.29007e-05
5.46603e-06
1.33076e-05
2.01801e-06
1.2179e-05
2.5497e-06
1.21793e-05
2.55147e-06
1.33119e-05
2.2894e-05
8.71239e-06
5.4598e-06
5.46295e-06
2.2895e-05
1.3299e-05
2.01841e-06
2.55751e-06
1.21783e-05
2.55884e-06
1.21787e-05
1.32984e-05
2.28935e-05
8.71086e-06
5.45225e-06
5.45036e-06
2.28963e-05
1.33042e-05
2.01809e-06
1.21786e-05
2.55226e-06
1.2179e-05
2.55422e-06
1.33025e-05
1.97159e-05
1.97169e-05
7.31992e-06
2.2186e-05
2.21854e-05
7.32817e-06
2.21889e-05
2.21883e-05
2.09845e-06
8.52261e-07
3.74476e-06
8.78957e-06
8.52728e-07
8.79006e-06
2.09628e-06
2.09513e-06
8.51811e-07
3.74281e-06
8.78911e-06
8.78967e-06
8.52366e-07
2.09289e-06
2.09665e-06
8.79048e-06
8.52826e-07
3.7443e-06
8.52326e-07
2.09714e-06
8.7899e-06
2.09351e-06
8.79019e-06
8.5258e-07
3.74398e-06
2.09417e-06
8.78902e-06
8.52025e-07
7.32604e-06
2.21887e-05
2.21882e-05
2.21863e-05
2.21857e-05
7.32699e-06
1.9714e-05
1.97159e-05
1.32996e-05
2.55486e-06
1.21786e-05
2.01729e-06
1.33e-05
2.5536e-06
1.21782e-05
2.28962e-05
8.71317e-06
5.46095e-06
5.46489e-06
2.28976e-05
2.28995e-05
5.46917e-06
8.71177e-06
2.28969e-05
5.46533e-06
1.32996e-05
2.01826e-06
2.55309e-06
1.21782e-05
2.55441e-06
1.21786e-05
1.32994e-05
1.32994e-05
2.5563e-06
1.21779e-05
2.01734e-06
1.32998e-05
2.5542e-06
1.21775e-05
2.29019e-05
8.71211e-06
5.46874e-06
5.46855e-06
2.29055e-05
2.29034e-05
5.46153e-06
8.71145e-06
2.28992e-05
5.46402e-06
1.32998e-05
2.01838e-06
2.5525e-06
1.21775e-05
2.55456e-06
1.21779e-05
1.32995e-05
7.33502e-06
2.21916e-05
2.21914e-05
2.09471e-06
8.52667e-07
3.75674e-06
8.78838e-06
2.09318e-06
8.53126e-07
8.78878e-06
2.09769e-06
8.52283e-07
3.74669e-06
8.78974e-06
2.09669e-06
8.52655e-07
8.79003e-06
2.09322e-06
3.75636e-06
8.52672e-07
8.78851e-06
2.09593e-06
8.52432e-07
3.74504e-06
8.52115e-07
8.78964e-06
7.33639e-06
2.21914e-05
2.21913e-05
7.32579e-06
2.2189e-05
2.21889e-05
1.97205e-05
1.97215e-05
1.97182e-05
1.97185e-05
1.97153e-05
1.97144e-05
1.97137e-05
1.97132e-05
7.32911e-06
2.21902e-05
2.21903e-05
2.21868e-05
2.21869e-05
7.328e-06
2.09491e-06
8.50675e-07
8.78662e-06
3.74411e-06
2.09607e-06
8.78615e-06
8.50459e-07
2.09792e-06
8.50599e-07
8.78951e-06
3.74019e-06
2.09906e-06
8.78906e-06
8.50377e-07
7.32412e-06
2.21851e-05
2.21851e-05
7.32695e-06
2.21884e-05
2.21885e-05
2.09596e-06
8.78606e-06
3.74509e-06
8.50825e-07
8.78646e-06
2.09454e-06
8.51125e-07
2.09897e-06
8.78934e-06
3.74211e-06
8.5083e-07
8.78951e-06
2.09756e-06
8.51084e-07
1.97142e-05
1.97136e-05
7.33085e-06
2.21884e-05
2.21885e-05
7.33204e-06
2.21915e-05
2.21916e-05
2.09428e-06
8.78629e-06
8.51413e-07
3.74365e-06
2.0957e-06
8.7858e-06
8.51046e-07
2.09726e-06
8.78973e-06
8.51441e-07
3.74119e-06
2.09869e-06
8.78914e-06
8.51105e-07
1.33086e-05
2.01728e-06
1.21788e-05
2.54653e-06
1.21792e-05
2.54782e-06
1.33007e-05
2.29057e-05
5.472e-06
8.71109e-06
2.29043e-05
5.46258e-06
1.33069e-05
2.01623e-06
1.21793e-05
2.54725e-06
1.21789e-05
1.33078e-05
2.5466e-06
2.28997e-05
5.45298e-06
8.71114e-06
5.46636e-06
2.29e-05
1.33009e-05
1.21794e-05
2.55962e-06
2.01731e-06
1.3301e-05
1.21791e-05
2.5587e-06
2.29052e-05
5.46597e-06
8.71167e-06
2.29034e-05
5.46469e-06
1.32994e-05
1.21792e-05
2.5479e-06
2.01651e-06
1.33e-05
1.21788e-05
2.54715e-06
2.28948e-05
5.45656e-06
8.71021e-06
2.28942e-05
5.44574e-06
7.3289e-06
2.21895e-05
2.21891e-05
2.21886e-05
2.21882e-05
7.3158e-06
2.09751e-06
8.51957e-07
8.79008e-06
3.73974e-06
8.78969e-06
2.09875e-06
8.5156e-07
2.0947e-06
8.51043e-07
8.78836e-06
3.74788e-06
8.50805e-07
2.09609e-06
8.78785e-06
7.32558e-06
2.2188e-05
2.21877e-05
2.21909e-05
7.32504e-06
2.21906e-05
2.09879e-06
8.78967e-06
3.74224e-06
8.51676e-07
8.79e-06
8.52082e-07
2.09707e-06
2.09578e-06
8.78761e-06
3.74868e-06
8.51136e-07
8.51454e-07
8.78808e-06
2.09409e-06
1.9717e-05
1.97159e-05
1.97126e-05
7.31626e-06
2.21855e-05
2.21851e-05
7.32308e-06
2.21869e-05
2.21866e-05
2.09643e-06
8.78992e-06
8.52047e-07
3.74307e-06
8.51635e-07
2.098e-06
8.78957e-06
2.09355e-06
8.78772e-06
8.51683e-07
3.74114e-06
2.09512e-06
8.7887e-06
8.51251e-07
1.9715e-05
1.33105e-05
2.01791e-06
1.2179e-05
2.54964e-06
1.21793e-05
2.55069e-06
1.33065e-05
2.29021e-05
5.46849e-06
8.71139e-06
2.2901e-05
5.46141e-06
1.33087e-05
2.01693e-06
1.21794e-05
2.55055e-06
1.2179e-05
1.33092e-05
2.54934e-06
2.28958e-05
5.45094e-06
8.71141e-06
5.45926e-06
2.28953e-05
1.33013e-05
2.55651e-06
1.21795e-05
2.0174e-06
1.33023e-05
2.55365e-06
1.21792e-05
2.28972e-05
5.45943e-06
8.71128e-06
2.28958e-05
5.45806e-06
1.33025e-05
1.21793e-05
2.55004e-06
2.01691e-06
1.33085e-05
1.2179e-05
2.54832e-06
2.28889e-05
5.43869e-06
8.7091e-06
2.28889e-05
5.439e-06
1.32985e-05
2.01833e-06
2.557e-06
1.21783e-05
2.55822e-06
1.21787e-05
1.32982e-05
2.28922e-05
5.45901e-06
8.71167e-06
5.45805e-06
2.28899e-05
1.32984e-05
2.01733e-06
2.55838e-06
1.21787e-05
2.5571e-06
1.32987e-05
1.21783e-05
2.28882e-05
5.45675e-06
8.71259e-06
5.45474e-06
2.28914e-05
1.33064e-05
2.0179e-06
1.21787e-05
2.55051e-06
1.21791e-05
2.55165e-06
1.33059e-05
2.28971e-05
5.45843e-06
8.71022e-06
2.28944e-05
5.45855e-06
1.33051e-05
2.01695e-06
1.2179e-05
2.55256e-06
1.33045e-05
1.21787e-05
2.55075e-06
2.28945e-05
5.45981e-06
8.71056e-06
5.46157e-06
2.28963e-05
1.32982e-05
2.55803e-06
1.21787e-05
2.01716e-06
1.32984e-05
2.55684e-06
1.21783e-05
2.28915e-05
5.46357e-06
8.71055e-06
2.28888e-05
5.46271e-06
1.33089e-05
1.21791e-05
2.55163e-06
2.01689e-06
1.33069e-05
1.21788e-05
2.55089e-06
2.28942e-05
5.46098e-06
8.70958e-06
2.28926e-05
5.45883e-06
7.33349e-06
2.2189e-05
2.21882e-05
2.21876e-05
2.21868e-05
7.31947e-06
2.09674e-06
8.525e-07
8.78969e-06
3.742e-06
8.78917e-06
2.09792e-06
8.52012e-07
2.09338e-06
8.52021e-07
8.78752e-06
3.73881e-06
8.51491e-07
2.09452e-06
8.78591e-06
7.33129e-06
2.21868e-05
2.21862e-05
2.21898e-05
7.33131e-06
2.21891e-05
2.09752e-06
8.78898e-06
3.74259e-06
8.51942e-07
8.78938e-06
8.52409e-07
2.09647e-06
2.09423e-06
8.78498e-06
3.73942e-06
8.51379e-07
8.51883e-07
8.78571e-06
2.09327e-06
1.97128e-05
1.97114e-05
1.97135e-05
7.31566e-06
2.21853e-05
2.21845e-05
7.32804e-06
2.21871e-05
2.21862e-05
2.09676e-06
8.78917e-06
8.52201e-07
3.74022e-06
8.51741e-07
2.09791e-06
8.78866e-06
2.09371e-06
8.78496e-06
8.51628e-07
3.73645e-06
2.09479e-06
8.78429e-06
8.51138e-07
1.971e-05
1.33009e-05
2.01812e-06
2.5515e-06
1.21783e-05
2.55284e-06
1.21786e-05
1.33027e-05
2.28949e-05
5.46205e-06
8.71265e-06
5.45888e-06
2.2894e-05
1.32992e-05
2.01712e-06
2.55379e-06
1.21786e-05
2.552e-06
1.32995e-05
1.21782e-05
2.28906e-05
5.45633e-06
8.71334e-06
5.45981e-06
2.28914e-05
1.3303e-05
2.01832e-06
2.5518e-06
1.21776e-05
2.5528e-06
1.21779e-05
1.3308e-05
2.29049e-05
5.47205e-06
8.71203e-06
2.29031e-05
5.46751e-06
1.32992e-05
2.01723e-06
2.55296e-06
1.21779e-05
1.32995e-05
2.5516e-06
1.21775e-05
2.29007e-05
5.46345e-06
8.71224e-06
5.46719e-06
2.29012e-05
1.33019e-05
2.55243e-06
1.21787e-05
2.017e-06
1.33066e-05
2.55134e-06
1.21783e-05
2.28872e-05
5.45529e-06
8.70918e-06
2.28863e-05
5.45237e-06
1.33051e-05
2.55278e-06
1.21781e-05
2.01725e-06
1.33061e-05
2.5519e-06
1.21777e-05
2.28982e-05
5.4641e-06
8.71141e-06
2.28973e-05
5.45912e-06
1.97199e-05
1.97187e-05
1.97185e-05
1.97178e-05
7.33189e-06
2.21908e-05
2.21908e-05
7.33654e-06
2.21928e-05
2.21928e-05
2.09531e-06
8.79087e-06
8.52635e-07
3.74083e-06
2.09623e-06
8.52076e-07
8.78944e-06
2.08632e-06
8.79209e-06
8.52372e-07
3.73193e-06
2.08982e-06
8.51772e-07
8.79225e-06
1.97162e-05
1.97157e-05
1.99151e-07
1.9226e-07
1.92277e-07
1.99137e-07
1.92254e-07
1.9226e-07
1.88797e-07
1.88799e-07
6.84555e-07
3.78409e-07
3.78328e-07
2.72463e-07
6.85025e-07
3.78123e-07
3.78053e-07
6.85355e-07
2.72872e-07
3.7794e-07
3.77954e-07
3.78203e-07
3.78241e-07
6.84769e-07
6.85325e-07
2.7333e-07
3.78082e-07
3.78022e-07
3.7832e-07
3.7829e-07
6.8477e-07
6.85117e-07
2.72715e-07
3.78e-07
3.78007e-07
3.78281e-07
3.78284e-07
6.84216e-07
6.85193e-07
2.72834e-07
3.78132e-07
3.78053e-07
6.84473e-07
3.7839e-07
3.78323e-07
6.84812e-07
3.78195e-07
3.78207e-07
2.72539e-07
6.85305e-07
3.77942e-07
3.77935e-07
6.84835e-07
3.78351e-07
3.78289e-07
2.72937e-07
3.78045e-07
6.85337e-07
3.78106e-07
6.84379e-07
3.78226e-07
3.78244e-07
2.72389e-07
3.77956e-07
6.84827e-07
3.77955e-07
1.99143e-07
1.92262e-07
1.92282e-07
1.92274e-07
1.9228e-07
1.88805e-07
1.88801e-07
1.99154e-07
1.92255e-07
1.92278e-07
1.9224e-07
1.92285e-07
1.88812e-07
1.88802e-07
1.99155e-07
1.92261e-07
1.92266e-07
1.92259e-07
1.9222e-07
1.88806e-07
1.88808e-07
1.99187e-07
1.92265e-07
1.9227e-07
1.92275e-07
1.9227e-07
1.88753e-07
1.88784e-07
1.92266e-07
1.92284e-07
1.9917e-07
1.92267e-07
1.92262e-07
1.88784e-07
1.88787e-07
1.92254e-07
1.92248e-07
1.99146e-07
1.9224e-07
1.92261e-07
1.88774e-07
1.8877e-07
1.9227e-07
1.9229e-07
1.99137e-07
1.92269e-07
1.92254e-07
1.88794e-07
1.88797e-07
1.99146e-07
1.92255e-07
1.92259e-07
1.88807e-07
1.99171e-07
1.92264e-07
1.92243e-07
1.88791e-07
1.99148e-07
1.92225e-07
1.92259e-07
1.88792e-07
1.99134e-07
1.92264e-07
1.92242e-07
1.88788e-07
3.12665e-07
5.32715e-07
6.27103e-07
2.9098e-07
6.27398e-07
2.9116e-07
3.12328e-07
3.77652e-07
5.04252e-07
9.84537e-07
1.63731e-06
3.78043e-07
5.03855e-07
9.83772e-07
3.12341e-07
5.32316e-07
6.27352e-07
2.91086e-07
3.12689e-07
6.26956e-07
2.90919e-07
3.78102e-07
9.84146e-07
1.63859e-06
5.04018e-07
5.04379e-07
9.84658e-07
3.77736e-07
3.12388e-07
5.33018e-07
2.90991e-07
6.27157e-07
2.91172e-07
6.27415e-07
3.12075e-07
3.77736e-07
5.04366e-07
9.86527e-07
1.63744e-06
3.78183e-07
5.03938e-07
9.85556e-07
3.12011e-07
5.32566e-07
2.91105e-07
6.27289e-07
3.12336e-07
2.90927e-07
6.26926e-07
3.78275e-07
9.85315e-07
1.63857e-06
5.04006e-07
5.04409e-07
9.86167e-07
3.77841e-07
6.84825e-07
2.72817e-07
3.78117e-07
3.78108e-07
3.78399e-07
3.7835e-07
6.84387e-07
6.85276e-07
2.72832e-07
3.77982e-07
3.78039e-07
6.84788e-07
3.7826e-07
3.78321e-07
6.84825e-07
2.72548e-07
3.78206e-07
3.78259e-07
6.85318e-07
3.77942e-07
3.77978e-07
3.78359e-07
9.83465e-07
1.63907e-06
5.03715e-07
9.86195e-07
5.04169e-07
3.77787e-07
3.1204e-07
6.27667e-07
2.91845e-07
5.33012e-07
3.12362e-07
6.27153e-07
2.92208e-07
3.7818e-07
5.03612e-07
1.63838e-06
9.83839e-07
5.04033e-07
9.84271e-07
3.77744e-07
3.77774e-07
9.8337e-07
5.04027e-07
1.6371e-06
5.03592e-07
3.78237e-07
9.83244e-07
3.12385e-07
5.33317e-07
6.27384e-07
2.92199e-07
6.27638e-07
2.92447e-07
3.1206e-07
3.11939e-07
6.27199e-07
2.91541e-07
5.32944e-07
3.12245e-07
6.266e-07
2.92259e-07
3.78263e-07
5.04052e-07
1.63877e-06
9.86082e-07
9.86734e-07
5.04406e-07
3.77837e-07
3.77847e-07
9.87079e-07
5.04346e-07
1.63755e-06
3.78318e-07
9.85941e-07
5.03895e-07
3.12279e-07
5.33232e-07
6.26635e-07
2.92119e-07
6.26997e-07
2.92502e-07
3.11964e-07
2.72821e-07
3.78313e-07
3.78036e-07
1.6391e-06
5.03745e-07
5.04203e-07
3.11881e-07
6.2778e-07
2.91243e-07
5.33051e-07
3.12229e-07
6.2744e-07
2.91058e-07
3.78101e-07
5.03624e-07
1.63836e-06
9.85996e-07
5.04031e-07
9.86604e-07
3.77692e-07
3.77691e-07
9.86659e-07
5.04052e-07
1.63713e-06
5.03611e-07
3.78147e-07
9.85885e-07
3.12361e-07
5.33334e-07
6.27549e-07
2.91079e-07
6.27853e-07
2.91267e-07
3.12034e-07
3.11927e-07
2.91236e-07
6.27349e-07
5.33049e-07
3.1227e-07
2.91019e-07
6.26892e-07
3.78206e-07
5.04007e-07
1.63929e-06
9.86238e-07
9.86937e-07
5.04395e-07
3.7779e-07
3.77824e-07
9.86901e-07
5.04302e-07
1.63815e-06
3.78271e-07
9.86222e-07
5.03901e-07
3.12381e-07
5.33313e-07
2.9106e-07
6.26797e-07
2.91274e-07
6.27202e-07
3.12059e-07
3.78076e-07
5.03742e-07
1.63852e-06
9.83729e-07
3.77627e-07
5.04131e-07
9.84501e-07
3.1227e-07
5.32542e-07
6.26954e-07
2.90864e-07
3.12143e-07
6.2733e-07
2.91056e-07
3.78269e-07
5.04029e-07
1.63977e-06
9.85566e-07
9.8634e-07
5.0441e-07
3.77866e-07
3.12312e-07
5.33267e-07
2.91067e-07
6.27093e-07
2.9127e-07
6.27479e-07
3.12303e-07
6.84547e-07
2.72417e-07
3.78322e-07
3.7833e-07
3.78026e-07
6.84983e-07
3.78033e-07
3.1186e-07
2.91087e-07
6.27245e-07
5.32241e-07
3.12192e-07
2.90829e-07
6.26859e-07
3.78142e-07
5.03881e-07
1.63907e-06
9.85897e-07
3.77744e-07
5.04267e-07
9.86715e-07
3.77731e-07
9.86779e-07
5.04196e-07
1.63798e-06
3.78163e-07
5.0379e-07
9.86058e-07
3.12312e-07
5.32594e-07
2.90861e-07
6.26879e-07
3.11993e-07
2.91065e-07
6.27226e-07
3.11854e-07
2.91168e-07
6.27348e-07
5.32826e-07
3.12186e-07
2.90968e-07
6.26947e-07
3.78178e-07
5.041e-07
1.639e-06
9.8598e-07
9.86522e-07
5.04472e-07
3.77765e-07
3.77775e-07
9.86061e-07
5.04355e-07
1.63771e-06
3.78175e-07
9.85566e-07
5.03974e-07
3.12321e-07
5.33141e-07
2.90974e-07
6.26926e-07
2.91215e-07
6.27313e-07
3.11998e-07
6.84608e-07
2.72461e-07
3.78352e-07
3.78119e-07
3.78076e-07
6.85208e-07
2.72874e-07
3.77985e-07
3.77981e-07
6.84692e-07
3.78227e-07
3.78221e-07
6.84658e-07
2.72547e-07
3.78241e-07
3.78269e-07
6.85189e-07
3.77974e-07
3.78015e-07
3.12447e-07
5.33532e-07
6.27794e-07
2.92019e-07
6.28041e-07
2.92315e-07
3.12133e-07
3.77736e-07
5.04027e-07
9.84637e-07
1.63703e-06
9.84316e-07
3.78158e-07
5.03653e-07
3.12086e-07
5.332e-07
6.27746e-07
2.92398e-07
6.27505e-07
3.12409e-07
2.92136e-07
3.78167e-07
9.85095e-07
1.63834e-06
5.03799e-07
9.85499e-07
5.04136e-07
3.77773e-07
3.12425e-07
5.33325e-07
6.26816e-07
2.92028e-07
6.2708e-07
2.92327e-07
3.12116e-07
3.7788e-07
5.04484e-07
9.86499e-07
1.63718e-06
3.78256e-07
9.85778e-07
5.0412e-07
3.12031e-07
5.33002e-07
6.26898e-07
2.92433e-07
3.12347e-07
6.26619e-07
2.92158e-07
3.7833e-07
9.85557e-07
1.6385e-06
5.0424e-07
9.86407e-07
3.77947e-07
5.04619e-07
3.12225e-07
6.28268e-07
2.92193e-07
5.33414e-07
3.12526e-07
6.28026e-07
2.91934e-07
3.77885e-07
9.86137e-07
5.04351e-07
1.63729e-06
5.04061e-07
3.78281e-07
9.85629e-07
3.1222e-07
6.27255e-07
2.92211e-07
5.33246e-07
3.12518e-07
6.26999e-07
2.91901e-07
3.7798e-07
9.86042e-07
5.04729e-07
1.63736e-06
3.78384e-07
9.85242e-07
5.0436e-07
6.85251e-07
2.73243e-07
3.78159e-07
3.78104e-07
3.78352e-07
3.784e-07
6.84726e-07
6.84691e-07
2.72871e-07
3.78425e-07
3.7838e-07
3.78157e-07
6.8523e-07
3.78128e-07
3.12431e-07
5.33408e-07
6.27659e-07
2.9108e-07
6.27992e-07
2.91286e-07
3.12103e-07
3.77625e-07
5.04038e-07
9.83699e-07
1.63688e-06
9.83211e-07
3.78187e-07
5.03649e-07
3.12067e-07
5.33111e-07
6.27903e-07
2.91293e-07
6.27554e-07
3.12392e-07
2.91077e-07
3.78147e-07
9.83955e-07
1.63817e-06
5.03813e-07
9.84387e-07
5.04147e-07
3.77659e-07
3.12406e-07
5.33321e-07
2.91111e-07
6.27123e-07
2.91331e-07
6.27358e-07
3.121e-07
3.7772e-07
5.04453e-07
9.86783e-07
1.63779e-06
3.78227e-07
9.85944e-07
5.04071e-07
3.12052e-07
5.33019e-07
2.91281e-07
6.27135e-07
3.1239e-07
2.91086e-07
6.26855e-07
3.78281e-07
9.85506e-07
1.63893e-06
5.04197e-07
9.86466e-07
3.7774e-07
5.04566e-07
3.12125e-07
6.28017e-07
2.91329e-07
5.33218e-07
3.12457e-07
6.27736e-07
2.91121e-07
3.77778e-07
9.84854e-07
5.04334e-07
1.63716e-06
5.03996e-07
3.78191e-07
9.84379e-07
3.1215e-07
2.91344e-07
6.27537e-07
5.33167e-07
3.12465e-07
2.91144e-07
6.27262e-07
3.77798e-07
9.85772e-07
5.04657e-07
1.63745e-06
3.78225e-07
9.84809e-07
5.04288e-07
3.12812e-07
5.33331e-07
2.91109e-07
6.27159e-07
2.91337e-07
6.27469e-07
3.12461e-07
3.77858e-07
5.04489e-07
9.86202e-07
1.6383e-06
5.04133e-07
3.78277e-07
9.85489e-07
3.12503e-07
5.33024e-07
2.91301e-07
6.27398e-07
2.91101e-07
3.12842e-07
6.27042e-07
3.78392e-07
9.85493e-07
1.63947e-06
5.04265e-07
5.04638e-07
9.86236e-07
3.77976e-07
3.12313e-07
6.27512e-07
2.91227e-07
5.32846e-07
3.12652e-07
6.27252e-07
2.9104e-07
3.77793e-07
9.85061e-07
5.0452e-07
1.63736e-06
3.78173e-07
5.04191e-07
9.84522e-07
3.1242e-07
2.91359e-07
6.27558e-07
5.33191e-07
3.12769e-07
2.91142e-07
6.27289e-07
3.78029e-07
9.86031e-07
5.04721e-07
1.63784e-06
3.784e-07
9.85266e-07
5.04332e-07
6.84749e-07
2.72693e-07
3.7796e-07
3.77938e-07
3.78216e-07
3.78223e-07
6.84334e-07
6.84482e-07
2.72413e-07
3.78225e-07
3.78199e-07
3.77966e-07
6.84918e-07
3.7793e-07
3.12414e-07
5.3318e-07
2.91011e-07
6.272e-07
2.91207e-07
6.27471e-07
3.12126e-07
3.77698e-07
5.0457e-07
9.86718e-07
1.6379e-06
5.0421e-07
3.78217e-07
9.86049e-07
3.12022e-07
5.32885e-07
2.91188e-07
6.27266e-07
2.90992e-07
3.12335e-07
6.26981e-07
3.78264e-07
9.85963e-07
1.63917e-06
5.04353e-07
5.0472e-07
9.86749e-07
3.77785e-07
3.12116e-07
2.91228e-07
6.27574e-07
5.33207e-07
3.12448e-07
2.91042e-07
6.27328e-07
3.77817e-07
9.85693e-07
5.0445e-07
1.63697e-06
3.78228e-07
5.0407e-07
9.8487e-07
3.12216e-07
2.91265e-07
6.27615e-07
5.32974e-07
3.12533e-07
2.91074e-07
6.27346e-07
3.77841e-07
9.86499e-07
5.04837e-07
1.63763e-06
3.78262e-07
9.85713e-07
5.04461e-07
6.84476e-07
2.72494e-07
3.78362e-07
3.78369e-07
6.84949e-07
3.78094e-07
3.78096e-07
1.99134e-07
2.3292e-07
2.3289e-07
2.72801e-07
1.99176e-07
2.32993e-07
2.32944e-07
2.72843e-07
1.99306e-07
2.33116e-07
2.33051e-07
2.72836e-07
1.99398e-07
2.33125e-07
2.33141e-07
2.72815e-07
1.99335e-07
2.33053e-07
2.33068e-07
2.72917e-07
1.9927e-07
2.32969e-07
2.32977e-07
2.7286e-07
1.99236e-07
2.32915e-07
2.32934e-07
2.72818e-07
1.99182e-07
2.32866e-07
2.32878e-07
2.72767e-07
1.99155e-07
2.32865e-07
2.32862e-07
2.72666e-07
1.99144e-07
2.32862e-07
2.32867e-07
2.72704e-07
1.99141e-07
2.32858e-07
2.32861e-07
2.72694e-07
1.9914e-07
2.32862e-07
2.32854e-07
2.72766e-07
1.99143e-07
2.32877e-07
2.32865e-07
2.72687e-07
1.99145e-07
2.32882e-07
2.32881e-07
2.72696e-07
1.99144e-07
2.32877e-07
2.32885e-07
2.72799e-07
1.99143e-07
2.32879e-07
2.32874e-07
2.72817e-07
1.99145e-07
2.32877e-07
2.3288e-07
2.72813e-07
1.99143e-07
2.32833e-07
2.3285e-07
2.72726e-07
1.99096e-07
2.32602e-07
2.3263e-07
2.72488e-07
2.03946e-07
2.27995e-07
2.28021e-07
2.65728e-07
2.72513e-07
2.32914e-07
2.3296e-07
2.72835e-07
2.3289e-07
2.32904e-07
2.32893e-07
2.32945e-07
2.72453e-07
2.32867e-07
2.32899e-07
2.72486e-07
2.72865e-07
2.72547e-07
2.32922e-07
2.32965e-07
2.32986e-07
2.32998e-07
2.73154e-07
2.7269e-07
2.32893e-07
2.32908e-07
2.32942e-07
2.32939e-07
2.32943e-07
2.32978e-07
2.32958e-07
2.7277e-07
2.72452e-07
2.32907e-07
2.32933e-07
2.32941e-07
2.72536e-07
2.72911e-07
2.72675e-07
2.33053e-07
2.33031e-07
2.3315e-07
2.33109e-07
2.73004e-07
2.72572e-07
2.33e-07
2.32992e-07
2.33103e-07
2.33075e-07
2.33008e-07
2.331e-07
2.3308e-07
2.72758e-07
2.72515e-07
2.32971e-07
2.3302e-07
2.33074e-07
2.72526e-07
2.72999e-07
2.72626e-07
2.3317e-07
2.33188e-07
2.3315e-07
2.33169e-07
2.72886e-07
2.72607e-07
2.33163e-07
2.33143e-07
2.33155e-07
2.33205e-07
2.33163e-07
2.33162e-07
2.33203e-07
2.72863e-07
2.72567e-07
2.33138e-07
2.33154e-07
2.33174e-07
2.72515e-07
2.72938e-07
2.72518e-07
2.33145e-07
2.33157e-07
2.33058e-07
2.33061e-07
2.72921e-07
2.72512e-07
2.33154e-07
2.33204e-07
2.33063e-07
2.33114e-07
2.33199e-07
2.33083e-07
2.33114e-07
2.72893e-07
2.72544e-07
2.33161e-07
2.33105e-07
2.33097e-07
2.72572e-07
2.72837e-07
2.7241e-07
2.33061e-07
2.33052e-07
2.32987e-07
2.32982e-07
2.7282e-07
2.72369e-07
2.33071e-07
2.33132e-07
2.32996e-07
2.33022e-07
2.33137e-07
2.3301e-07
2.3304e-07
2.72859e-07
2.72426e-07
2.33129e-07
2.33004e-07
2.33026e-07
2.72552e-07
2.72749e-07
2.72427e-07
2.32992e-07
2.32983e-07
2.3294e-07
2.32934e-07
2.72684e-07
2.72307e-07
2.32993e-07
2.3305e-07
2.32946e-07
2.32969e-07
2.33047e-07
2.3294e-07
2.32967e-07
2.72751e-07
2.72516e-07
2.33028e-07
2.32958e-07
2.32953e-07
2.72502e-07
2.72748e-07
2.72458e-07
2.32963e-07
2.32946e-07
2.32919e-07
2.32902e-07
2.72621e-07
2.72306e-07
2.32951e-07
2.32978e-07
2.32909e-07
2.32928e-07
2.32972e-07
2.32878e-07
2.32919e-07
2.72827e-07
2.72435e-07
2.3297e-07
2.32898e-07
2.32913e-07
2.72458e-07
2.72793e-07
2.7246e-07
2.32926e-07
2.32915e-07
2.32906e-07
2.32906e-07
2.7263e-07
2.72408e-07
2.32923e-07
2.3294e-07
2.32895e-07
2.32909e-07
2.32924e-07
2.32869e-07
2.32887e-07
2.72791e-07
2.72402e-07
2.32912e-07
2.32864e-07
2.32876e-07
2.72361e-07
2.72807e-07
2.72489e-07
2.32909e-07
2.32912e-07
2.32888e-07
2.32908e-07
2.72774e-07
2.72456e-07
2.32904e-07
2.32912e-07
2.32883e-07
2.32908e-07
2.32903e-07
2.32864e-07
2.3288e-07
2.72751e-07
2.72505e-07
2.32891e-07
2.32871e-07
2.32868e-07
2.724e-07
2.72802e-07
2.7246e-07
2.32903e-07
2.32913e-07
2.32902e-07
2.3291e-07
2.72769e-07
2.7242e-07
2.32901e-07
2.32916e-07
2.32883e-07
2.32913e-07
2.32879e-07
2.32863e-07
2.32882e-07
2.72836e-07
2.72436e-07
2.32873e-07
2.32865e-07
2.32864e-07
2.72386e-07
2.72761e-07
2.72467e-07
2.32901e-07
2.32915e-07
2.32901e-07
2.32912e-07
2.72734e-07
2.72383e-07
2.32886e-07
2.32924e-07
2.32887e-07
2.32905e-07
2.32882e-07
2.32856e-07
2.32902e-07
2.72783e-07
2.7239e-07
2.32881e-07
2.32851e-07
2.32876e-07
2.7246e-07
2.72792e-07
2.72383e-07
2.32913e-07
2.32919e-07
2.32898e-07
2.32914e-07
2.72745e-07
2.72427e-07
2.32886e-07
2.32925e-07
2.32876e-07
2.32922e-07
2.32926e-07
2.32877e-07
2.32903e-07
2.72706e-07
2.72408e-07
2.32896e-07
2.32862e-07
2.32884e-07
2.72387e-07
2.72701e-07
2.72418e-07
2.32905e-07
2.3292e-07
2.32897e-07
2.32911e-07
2.7274e-07
2.72438e-07
2.32877e-07
2.32921e-07
2.32879e-07
2.32918e-07
2.32907e-07
2.32881e-07
2.32893e-07
2.72747e-07
2.72458e-07
2.32876e-07
2.32879e-07
2.32872e-07
2.72362e-07
2.72741e-07
2.72393e-07
2.32914e-07
2.32931e-07
2.32889e-07
2.32915e-07
2.72758e-07
2.72427e-07
2.32885e-07
2.32921e-07
2.32873e-07
2.32909e-07
2.32913e-07
2.32878e-07
2.32908e-07
2.72768e-07
2.72417e-07
2.32878e-07
2.32883e-07
2.32886e-07
2.72478e-07
2.72738e-07
2.72411e-07
2.32908e-07
2.32921e-07
2.32892e-07
2.32902e-07
2.72737e-07
2.72408e-07
2.32892e-07
2.32917e-07
2.32873e-07
2.32912e-07
2.3291e-07
2.32875e-07
2.32912e-07
2.7277e-07
2.72417e-07
2.32894e-07
2.32872e-07
2.32899e-07
2.72505e-07
2.72735e-07
2.72474e-07
2.32902e-07
2.32923e-07
2.32897e-07
2.32895e-07
2.72726e-07
2.7238e-07
2.32883e-07
2.32914e-07
2.32879e-07
2.32901e-07
2.32921e-07
2.32876e-07
2.32904e-07
2.72743e-07
2.72452e-07
2.32904e-07
2.32874e-07
2.32889e-07
2.725e-07
2.72845e-07
2.72513e-07
2.32899e-07
2.32906e-07
2.32868e-07
2.32872e-07
2.72724e-07
2.72358e-07
2.32885e-07
2.32915e-07
2.32853e-07
2.3289e-07
2.32903e-07
2.32841e-07
2.32882e-07
2.72795e-07
2.72495e-07
2.32897e-07
2.32856e-07
2.32857e-07
2.72417e-07
2.72813e-07
2.72284e-07