/*--------------------------------*- C++ -*----------------------------------*\
| =========                 |                                                 |
| \\      /  F ield         | OpenFOAM: The Open Source CFD Toolbox           |
|  \\    /   O peration     | Version:  2312                                  |
|   \\  /    A nd           | Website:  www.openfoam.com                      |
|    \\/     M anipulation  |                                                 |
\*---------------------------------------------------------------------------*/
FoamFile
{
    version     2.0;
    format      ascii;
    arch        "LSB;label=32;scalar=64";
    class       volScalarField;
    location    "50";
    object      p;
}
// * * * * * * * * * * * * * * * * * * * * * * * * * * * * * * * * * * * * * //

dimensions      [0 2 -2 0 0 0 0];

internalField   nonuniform List<scalar> 
43168
(
0.000762928
0.000762902
0.000762901
0.000764715
0.000770653
0.000772465
0.00077247
0.000770652
0.000772466
0.00077247
0.000772468
0.000772473
0.000770656
0.000772472
0.000772472
0.000770657
0.000764718
0.000762904
0.000762901
0.000764712
0.000762903
0.000762901
0.000762901
0.000764712
0.000762902
0.000789304
0.000789305
0.000772493
0.000772481
0.000772495
0.000772495
0.000751063
0.000765201
0.000765198
0.000751063
0.000765215
0.000751049
0.000751059
0.000765202
0.0007652
0.000751061
0.000762924
0.000762926
0.000762928
0.000751147
0.00076512
0.000762906
0.000753338
0.000765116
0.000751133
0.00075334
0.000765217
0.000751045
0.000751146
0.000762907
0.000765126
0.000753333
0.00076512
0.00075334
0.00075113
0.000765209
0.00076521
0.000751522
0.000751067
0.000751069
0.000789289
0.000789288
0.000789787
0.000789307
0.000789307
0.000770171
0.000784348
0.00077018
0.000784352
0.000783838
0.000770187
0.000770186
0.000784343
0.000784342
0.0007916
0.000789384
0.00078434
0.000770183
0.000784344
0.000770196
0.000784338
0.000770192
0.000784338
0.000770202
0.000784254
0.000782031
0.000770261
0.00077247
0.000784269
0.000782039
0.000770273
0.000784255
0.000782038
0.000770262
0.000772472
0.000784257
0.000782041
0.000770274
0.00077018
0.00078436
0.000783848
0.000770191
0.000770188
0.000784337
0.000770178
0.000791599
0.000789384
0.000784323
0.00077019
0.00078434
0.000770206
0.00078425
0.000782031
0.000770258
0.000772473
0.000784264
0.000782043
0.000770274
0.000784319
0.000770194
0.000784322
0.000770208
0.000784249
0.000782038
0.000772475
0.000770265
0.000782044
0.000784253
0.000770276
0.000770256
0.000772475
0.000770273
0.000770188
0.000770197
0.000772477
0.000770266
0.000770274
0.000770194
0.000770197
0.000770183
0.000784333
0.000783849
0.000770197
0.000770193
0.000784321
0.000784327
0.000770184
0.000784356
0.000784255
0.000782037
0.000772476
0.00077026
0.000782046
0.000784253
0.000770277
0.000784256
0.000782043
0.000772476
0.000770268
0.000782048
0.000784257
0.000770278
0.000784321
0.000770195
0.000784331
0.00077021
0.00078432
0.000770198
0.000784325
0.000770211
0.000783854
0.000770201
0.000770202
0.000784325
0.000770189
0.000770191
0.000784335
0.000765209
0.000751058
0.000765213
0.000751052
0.000765194
0.000765192
0.000751525
0.000751068
0.000751068
0.000746095
0.000746095
0.000745586
0.000746074
0.000746074
0.000751061
0.000765201
0.000765197
0.000751064
0.000751143
0.000765124
0.000762908
0.000753342
0.000765123
0.000751131
0.000753345
0.000751144
0.000765124
0.000762907
0.000753335
0.000765123
0.000751138
0.000753343
0.000746071
0.00074608
0.000746069
0.000746069
0.000745992
0.000743776
0.000745995
0.00074378
0.000745991
0.000743772
0.000745996
0.00074378
0.000765198
0.000765192
0.00075152
0.000751068
0.000751068
0.000765203
0.000751054
0.000746081
0.000745584
0.000746069
0.000746072
0.000746091
0.000751141
0.000765121
0.000762906
0.00075334
0.000765123
0.000751134
0.000753341
0.000751064
0.000765205
0.000765199
0.000751062
0.000751141
0.000762905
0.000765125
0.000753333
0.000765124
0.000753339
0.000751132
0.000746069
0.000746075
0.000745991
0.000743774
0.000745997
0.000743778
0.000746066
0.000746069
0.000745987
0.00074377
0.000743777
0.000745991
0.000751056
0.000765193
0.000765189
0.00075106
0.000751144
0.000762905
0.000765129
0.000753334
0.00076512
0.000753338
0.000751135
0.000751061
0.000765206
0.00076519
0.000751067
0.000745991
0.000743773
0.000745994
0.000743778
0.000746063
0.000746072
0.000745992
0.000743773
0.000743777
0.000745995
0.000746067
0.000746078
0.000765202
0.000765198
0.000751517
0.000751062
0.000751062
0.000765208
0.000751047
0.000746083
0.000745582
0.000746065
0.000746064
0.000746084
0.000751143
0.000762906
0.000765131
0.000753334
0.000765124
0.00075334
0.000751135
0.00075106
0.000765203
0.000765198
0.000751058
0.000751063
0.000765208
0.000765201
0.000751072
0.000745988
0.00074377
0.000743778
0.000745988
0.000745987
0.00074377
0.000743777
0.000745994
0.000746061
0.000746066
0.000746063
0.000746078
0.000765225
0.000751064
0.000765221
0.000751071
0.000745583
0.000746075
0.000746078
0.000746108
0.00074611
0.0007939
0.000789298
0.000793872
0.000793888
0.000789293
0.00079388
0.000755659
0.000755633
0.000751049
0.000751061
0.00075565
0.000755635
0.000751052
0.000760595
0.000765215
0.000760614
0.000765213
0.000760607
0.000760609
0.000760625
0.000765214
0.0007652
0.000765216
0.00076061
0.000760625
0.000755666
0.000751056
0.000755639
0.000755654
0.000751067
0.000760607
0.000755655
0.000755665
0.000755632
0.000751056
0.000751048
0.000755632
0.000755653
0.000751051
0.000760614
0.000765218
0.000760612
0.000765225
0.00076061
0.000760621
0.000760623
0.0007652
0.00076522
0.00076523
0.000760622
0.000760612
0.000755679
0.000751049
0.000755639
0.000755656
0.000751043
0.00076061
0.000755655
0.000755664
0.000751046
0.000751044
0.000755671
0.00075567
0.000751036
0.000760654
0.000765165
0.000765206
0.000760624
0.00076519
0.000760656
0.000760632
0.000760656
0.000765172
0.0007652
0.000760624
0.000765193
0.000760665
0.000760625
0.000760602
0.000765228
0.000765226
0.000765236
0.00076059
0.000760589
0.000755607
0.000751076
0.000755642
0.000751088
0.000755594
0.000755637
0.000751077
0.000755608
0.000751074
0.000755642
0.000751088
0.000755597
0.000755633
0.00075108
0.000793893
0.000793892
0.000793899
0.00078929
0.00078929
0.0007939
0.0007939
0.000789286
0.000793852
0.000789316
0.000793868
0.000789349
0.000793867
0.000789332
0.000793842
0.000793853
0.000789316
0.000793868
0.00078935
0.000793867
0.000789332
0.000793843
0.000774794
0.00077976
0.000774797
0.000779755
0.000779748
0.000784366
0.000784366
0.000784369
0.00077975
0.00077975
0.000774743
0.000770222
0.000774779
0.000770192
0.000774772
0.000774729
0.000770211
0.000774743
0.000770218
0.000774777
0.000770193
0.000774772
0.000774727
0.00077021
0.00077979
0.000784337
0.000784302
0.000779774
0.000784316
0.000779783
0.000779797
0.000779789
0.000784338
0.0007843
0.000779771
0.000784316
0.000779782
0.000779796
0.000774795
0.000770156
0.000770156
0.000774801
0.000774801
0.000770158
0.000779754
0.00078436
0.00078434
0.000779767
0.000784363
0.000779755
0.000779763
0.00077479
0.00077478
0.000770172
0.000770153
0.000774787
0.000779762
0.000784356
0.000779772
0.000784363
0.000779756
0.000774786
0.000774773
0.000770183
0.000770193
0.000770172
0.000774791
0.00077477
0.00077975
0.000784358
0.000784339
0.000779768
0.000784365
0.000779753
0.000779767
0.000774802
0.00077479
0.000770184
0.000774801
0.000770175
0.000779751
0.000784352
0.000779771
0.00078436
0.00077976
0.000774789
0.000774778
0.00077019
0.000770198
0.000774796
0.00077478
0.000770178
0.000774803
0.000779764
0.000774756
0.000770222
0.000774784
0.0007702
0.000774732
0.000774778
0.000770218
0.000774755
0.000770221
0.000774783
0.0007702
0.000774781
0.000774726
0.000770218
0.000784293
0.000779774
0.000779795
0.000774805
0.000770159
0.000770158
0.000774794
0.000774796
0.000770166
0.000774817
0.000779745
0.00078432
0.000784335
0.00077976
0.00078434
0.000779757
0.000779746
0.000774805
0.000774783
0.000770184
0.000770188
0.000774795
0.000779751
0.000784345
0.000779767
0.000784359
0.00077975
0.000774801
0.000774781
0.000770201
0.000770198
0.000770194
0.00077478
0.000774804
0.00077975
0.000784334
0.000784316
0.000779757
0.000784345
0.000779744
0.000779755
0.000774805
0.000774786
0.000770188
0.000774801
0.000770178
0.000779738
0.000784338
0.000779756
0.00078433
0.00077975
0.000774806
0.000774783
0.000770196
0.000770208
0.000774805
0.000774785
0.000770187
0.000774814
0.000774792
0.000770178
0.000774799
0.000770185
0.000774801
0.000774778
0.000770192
0.000770184
0.000774778
0.0007748
0.000770176
0.000774801
0.000774781
0.000770181
0.000774791
0.000770172
0.0007748
0.000774779
0.000770185
0.000770195
0.000774799
0.000774777
0.000770183
0.000774796
0.000779744
0.000779728
0.000784335
0.000784336
0.000784337
0.000779729
0.000779729
0.000774755
0.000770228
0.000774783
0.000770205
0.000774736
0.000774777
0.000770221
0.000774756
0.000770224
0.000774781
0.000770205
0.000774778
0.000774729
0.000770221
0.000779778
0.000784311
0.00078429
0.000779759
0.00077979
0.000784295
0.000779764
0.00077978
0.000784316
0.000784284
0.000779762
0.000784296
0.000779768
0.000779784
0.000774806
0.000770175
0.000770176
0.000774804
0.000774802
0.000770175
0.000774809
0.000779763
0.000779734
0.000784319
0.000784332
0.000779755
0.000784325
0.000779756
0.000779741
0.000774823
0.000774786
0.000770192
0.000774803
0.000770205
0.000779727
0.000784334
0.000779759
0.000784339
0.000779743
0.000774808
0.000774781
0.000770206
0.000770203
0.000774784
0.000774805
0.000770198
0.000779749
0.000784321
0.000784334
0.000779757
0.000784339
0.000779757
0.000779744
0.000774802
0.000774786
0.000770193
0.000774802
0.000770188
0.000779736
0.000784339
0.000779754
0.000784333
0.000779748
0.000774811
0.000774783
0.000770208
0.000770202
0.000774784
0.000774807
0.0007702
0.000779723
0.000779726
0.000779727
0.000774748
0.000770229
0.000774777
0.000770216
0.000770225
0.000774732
0.000774776
0.000774751
0.000770232
0.000774782
0.000770212
0.000770227
0.000774737
0.000774776
0.000779772
0.000779747
0.000779786
0.000779755
0.000779774
0.000784292
0.000779757
0.000779791
0.000779757
0.000774804
0.000770193
0.000770193
0.000770186
0.000774811
0.000774811
0.000774794
0.000779737
0.000774799
0.00077974
0.000760603
0.000755657
0.000760598
0.000755645
0.000755668
0.000751037
0.000751037
0.00075566
0.000755659
0.000751042
0.000760651
0.000765161
0.000765187
0.000760616
0.000765179
0.000760624
0.000760657
0.000760651
0.000765159
0.000765188
0.000760612
0.000765179
0.000760623
0.000760659
0.000760602
0.000765204
0.000765205
0.00076522
0.000760592
0.000760591
0.000755616
0.000751077
0.000755641
0.00075109
0.000755636
0.000751085
0.000755595
0.000755616
0.000751075
0.00075564
0.000751092
0.000755632
0.000751085
0.000755601
0.000741486
0.000741476
0.000741479
0.000746095
0.000746095
0.000746102
0.000741477
0.000741478
0.000741523
0.000746072
0.000746031
0.000741492
0.000746053
0.000741505
0.000741526
0.000741522
0.000746073
0.00074603
0.000741492
0.000746053
0.000741504
0.000741531
0.000755671
0.000755634
0.000751051
0.000751053
0.000755656
0.000755633
0.00075105
0.000760634
0.000765217
0.000760617
0.000765223
0.000760612
0.000760618
0.000760623
0.000765213
0.000765197
0.000760609
0.000765217
0.000760623
0.000755697
0.000751052
0.000755647
0.000755663
0.000751056
0.000741487
0.000746089
0.000746072
0.000741497
0.000746095
0.000741484
0.000741496
0.000741482
0.000746094
0.000741492
0.000746109
0.000741484
0.000741477
0.000746084
0.000746064
0.000741495
0.000746074
0.00074148
0.000741489
0.000741462
0.000746077
0.000741479
0.000746081
0.000741471
0.000755676
0.000751058
0.000751058
0.000755681
0.000755681
0.000751043
0.000760651
0.000765159
0.000765201
0.000760621
0.000760638
0.000765176
0.000760656
0.00076065
0.000765157
0.000765197
0.000760615
0.000760653
0.000765175
0.000760636
0.000760617
0.000765231
0.000765229
0.000760614
0.000765231
0.000760613
0.000755611
0.000751078
0.000755643
0.00075109
0.000755643
0.000755597
0.000751073
0.000755611
0.000751079
0.000755641
0.000751089
0.000755595
0.000755643
0.000751073
0.000760599
0.000755654
0.000741469
0.00074146
0.000746089
0.000746089
0.000746091
0.000741453
0.000741454
0.000741515
0.000746061
0.000746032
0.000741483
0.000741527
0.000746043
0.000741486
0.000741515
0.000746062
0.000746028
0.000741485
0.000746043
0.000741488
0.000741522
0.000741482
0.000755656
0.000755638
0.000751052
0.000751058
0.000755658
0.000755637
0.000751044
0.000760639
0.000765225
0.000760621
0.00076524
0.000760616
0.000760616
0.000760625
0.000765214
0.0007652
0.000760612
0.000765219
0.000760623
0.00075569
0.000751052
0.000755647
0.00075566
0.000751072
0.000741481
0.000746068
0.000746083
0.000741494
0.000746085
0.000741496
0.000741479
0.000741473
0.000746085
0.000741488
0.00074608
0.00074148
0.000741478
0.000746085
0.000746058
0.000741488
0.000746088
0.000741475
0.000741478
0.000741473
0.00074608
0.000741478
0.000746107
0.000741464
0.000755649
0.000755629
0.000751058
0.000751042
0.000755631
0.000755648
0.000751037
0.000760581
0.0007652
0.000760606
0.000760593
0.00076521
0.000760599
0.000760616
0.000765187
0.000765206
0.000760615
0.000765204
0.000760603
0.000755645
0.000751046
0.000755638
0.000755645
0.000751025
0.000755655
0.000755633
0.000751045
0.00075106
0.00075565
0.000755639
0.000751041
0.000760602
0.000765217
0.00076062
0.000765212
0.000760609
0.000760614
0.000760619
0.000765208
0.000765195
0.00076522
0.000760607
0.000760623
0.000755656
0.000751053
0.000755646
0.000755656
0.000751046
0.000741475
0.000746064
0.000746078
0.000741491
0.000746081
0.000741488
0.000741475
0.00074147
0.000746082
0.000741484
0.000746087
0.000741474
0.000741466
0.00074608
0.000746069
0.000741493
0.000746076
0.000741474
0.000741491
0.000741469
0.000746084
0.000741487
0.00074609
0.000741474
0.000755668
0.000751047
0.000751048
0.000755676
0.000755677
0.000751032
0.000760651
0.000765162
0.0007652
0.000760621
0.000760635
0.000765181
0.000760654
0.00076065
0.000765161
0.0007652
0.000760618
0.000760655
0.00076518
0.000760636
0.000760613
0.000765226
0.000765228
0.000760607
0.000765232
0.000760608
0.000755608
0.000751069
0.00075564
0.000751087
0.000755637
0.000755595
0.00075107
0.000755607
0.000751071
0.000755638
0.000751087
0.000755595
0.000755638
0.000751069
0.000760601
0.000755651
0.00074147
0.000741463
0.00074609
0.000746091
0.000746089
0.000741458
0.000741458
0.000741512
0.00074606
0.000746025
0.00074148
0.00074152
0.00074604
0.000741489
0.000741512
0.000746061
0.000746024
0.000741478
0.000746039
0.000741489
0.00074152
0.000741469
0.000755657
0.000755632
0.00075106
0.000751046
0.000755635
0.000755653
0.000751038
0.000760615
0.000765221
0.000760614
0.000760609
0.000765235
0.000760616
0.000760619
0.000765196
0.000765218
0.000760617
0.000765226
0.000760609
0.000755668
0.000751047
0.000755641
0.000755656
0.000751051
0.000755659
0.000755636
0.000751062
0.000751048
0.000755638
0.000755656
0.00075104
0.000760623
0.000765225
0.000760619
0.000765235
0.000760614
0.000760614
0.000760625
0.0007652
0.000765217
0.000765224
0.000760623
0.00076061
0.000755685
0.000751052
0.00075565
0.00075566
0.000751045
0.000741468
0.00074606
0.000746076
0.000741484
0.000746071
0.000741476
0.00074147
0.000741455
0.000746073
0.000741475
0.000746089
0.000741459
0.000741476
0.000746064
0.000746077
0.000741488
0.00074608
0.000741487
0.000741472
0.000741478
0.000746083
0.000741487
0.000746079
0.000741476
0.000760616
0.000755662
0.0007606
0.000755658
0.000741483
0.000746103
0.000746101
0.000746104
0.000741478
0.000741481
0.000741524
0.000746076
0.000746025
0.000741491
0.000746052
0.000741523
0.000741506
0.000741522
0.000746077
0.000746025
0.000741491
0.000746053
0.000741519
0.000741511
0.000741488
0.000741493
0.000791627
0.000762919
0.000762918
0.000753365
0.000753356
0.000753355
0.000753348
0.000762913
0.000760767
0.000764946
0.000764949
0.000761094
0.00076507
0.000760881
0.000760883
0.000774622
0.000774274
0.000770443
0.000770441
0.000774505
0.000774505
0.000770329
0.000774629
0.000774274
0.000770445
0.000770441
0.000774509
0.000774504
0.000770332
0.000774634
0.000774281
0.000770447
0.000770447
0.000774511
0.000774511
0.000770338
0.000774634
0.000774283
0.000770448
0.000770448
0.000770341
0.000774513
0.000774513
0.000760766
0.000764946
0.000764946
0.000761098
0.000765063
0.000760884
0.000760883
0.00076076
0.000764942
0.000764942
0.000761093
0.000760881
0.000765055
0.00076088
0.000760759
0.000764941
0.000764942
0.000761089
0.000760876
0.000765058
0.000760877
0.000782061
0.000772484
0.000772486
0.000782053
0.000782053
0.000782052
0.000772482
0.000782049
0.000772483
0.000772485
0.000782051
0.000782053
0.000782052
0.000772483
0.000782063
0.000772488
0.000772491
0.000782055
0.000782059
0.000782055
0.000772485
0.000782057
0.00077249
0.00077249
0.000782058
0.000782057
0.000782056
0.000772485
0.00076292
0.000762918
0.00075337
0.000753359
0.000753355
0.000753348
0.000762913
0.000762917
0.000762918
0.000753363
0.000753352
0.000753352
0.000753345
0.000762911
0.000762917
0.000762919
0.000753365
0.000753352
0.000753352
0.000753345
0.000762911
0.000743804
0.000743793
0.000743794
0.000743785
0.000743809
0.000743795
0.000743793
0.000743785
0.000743802
0.000743793
0.00074379
0.000743784
0.000743804
0.000743791
0.000743791
0.000743785
0.00075538
0.000755556
0.000751147
0.00075131
0.000755553
0.000755379
0.000751308
0.000760851
0.000765015
0.000765112
0.000760689
0.00076496
0.000760794
0.000760701
0.000760866
0.000760706
0.000765113
0.000764943
0.000764942
0.000760706
0.000760872
0.000755397
0.000751147
0.000755564
0.000751229
0.000755453
0.000755557
0.000751291
0.000755383
0.000755559
0.000751309
0.000751146
0.000755382
0.000755556
0.000751307
0.00076085
0.000765017
0.000765116
0.000760693
0.000764959
0.000760796
0.000760698
0.000760871
0.00076071
0.000764946
0.000765113
0.000764946
0.000760877
0.000760705
0.000755396
0.000751132
0.000755565
0.000751228
0.000755453
0.000755553
0.000751287
0.00075549
0.00075515
0.000751309
0.00075131
0.000755377
0.000755379
0.000751196
0.00079375
0.000793421
0.000789575
0.000789574
0.000789455
0.000793645
0.000793646
0.000779893
0.000780212
0.000784072
0.000784072
0.000784189
0.000780005
0.000780004
0.000793658
0.0007894
0.0007938
0.000789492
0.000793805
0.00079371
0.00078955
0.000780002
0.000784254
0.000784071
0.000779846
0.000784077
0.000779848
0.000780003
0.000774528
0.000770359
0.000774702
0.000770276
0.000774584
0.000774694
0.00077042
0.000779984
0.000784261
0.000784153
0.000779841
0.000779929
0.000784096
0.000779843
0.000774512
0.000774686
0.000770278
0.000770432
0.000774689
0.000774502
0.000770436
0.000780004
0.000784249
0.000784072
0.000779848
0.000784077
0.000779851
0.000780004
0.000774531
0.000770362
0.000774704
0.000770274
0.000774698
0.000774587
0.00077042
0.000779989
0.000784257
0.000784153
0.000779837
0.000784096
0.000779848
0.000779932
0.000774514
0.000774688
0.000770277
0.000770431
0.000774693
0.000774503
0.000770437
0.000780219
0.000784075
0.000780009
0.000793804
0.000789491
0.00079371
0.000780004
0.000784245
0.00078408
0.000779842
0.000784086
0.000779841
0.000780007
0.000774526
0.000770358
0.0007747
0.000770269
0.000774581
0.00077469
0.000770418
0.000779984
0.00078425
0.000784153
0.000779838
0.000779929
0.000784098
0.000779837
0.000774508
0.000774688
0.000770275
0.000770432
0.000774687
0.000774503
0.000770433
0.000780004
0.00078408
0.000784238
0.000779842
0.000784087
0.000780007
0.000779839
0.00077453
0.000770363
0.000774703
0.000770279
0.000774697
0.000774587
0.00077042
0.000779987
0.000784258
0.000784151
0.000779829
0.000784102
0.000779845
0.000779928
0.000774509
0.000774688
0.000770433
0.00077028
0.000774503
0.000774688
0.000770435
0.000774528
0.000770359
0.000774699
0.000770263
0.000770415
0.000774583
0.00077469
0.000774512
0.000774687
0.000770274
0.000770436
0.000770432
0.000774687
0.000774505
0.000774529
0.000770363
0.000774697
0.000770278
0.000774691
0.000774586
0.00077042
0.000774511
0.000774686
0.000770437
0.000770277
0.000774504
0.000774685
0.000770436
0.000779896
0.00078022
0.000784077
0.000784076
0.000780009
0.000784186
0.000780008
0.000780006
0.000784085
0.000784253
0.000779846
0.00078409
0.00078001
0.000779846
0.000774531
0.000770361
0.000774696
0.000770267
0.000770416
0.000774586
0.000774689
0.000779989
0.000784251
0.00078415
0.000779827
0.000784101
0.000779927
0.000779843
0.000774512
0.000774691
0.000770435
0.000770276
0.000770432
0.000774507
0.000774688
0.000780006
0.000784086
0.000784248
0.000779845
0.000784092
0.000780009
0.000779841
0.000774531
0.000770365
0.000774704
0.000770281
0.000774702
0.000774589
0.000770421
0.00077999
0.00078426
0.000784154
0.00077983
0.000784106
0.000779845
0.00077993
0.000774509
0.00077469
0.000770434
0.000770279
0.000774505
0.000774686
0.000770435
0.000779897
0.000780226
0.000784078
0.000780016
0.00078001
0.000755492
0.000755154
0.000751311
0.000751311
0.000751194
0.000755379
0.00075538
0.000741637
0.000741966
0.000745815
0.000745816
0.000745931
0.000741753
0.000741754
0.000755378
0.000755554
0.000751145
0.000751307
0.000755551
0.000755376
0.000751309
0.000760851
0.000765019
0.000765126
0.00076069
0.000760707
0.000764964
0.000760797
0.000760865
0.000760711
0.00076512
0.000764947
0.00076071
0.000764947
0.000760874
0.000755396
0.000751135
0.000755563
0.00075123
0.000755553
0.000755453
0.000751291
0.000755379
0.000755553
0.000751146
0.000751308
0.000755549
0.000755376
0.000751309
0.000760846
0.000765017
0.000765118
0.00076069
0.00076496
0.000760691
0.000760795
0.000760865
0.00076071
0.000765117
0.000764946
0.000764947
0.000760706
0.000760874
0.000755394
0.00075114
0.000755567
0.00075123
0.000755548
0.000751291
0.000755453
0.000741743
0.00074599
0.000745817
0.000741584
0.000745823
0.000741581
0.00074175
0.000741724
0.000745989
0.000745891
0.000741561
0.000741669
0.000745836
0.000741574
0.000741739
0.000745992
0.000745817
0.000741581
0.00074582
0.000741579
0.000741748
0.00074172
0.000745991
0.000745887
0.000741558
0.000745832
0.000741574
0.000741664
0.000755488
0.000755149
0.000751308
0.000751307
0.000755377
0.000755377
0.00075119
0.000741637
0.000741965
0.000745813
0.000745813
0.000741751
0.000745931
0.00074175
0.000755378
0.000755552
0.000751141
0.000751306
0.000755546
0.000755375
0.000751309
0.000760849
0.000765017
0.000765121
0.000760687
0.0007607
0.000764962
0.000760797
0.000760863
0.000760709
0.000765112
0.000764946
0.000760701
0.000764945
0.000760873
0.000755399
0.000751144
0.000755564
0.000751232
0.000755553
0.000755456
0.000751295
0.000755379
0.000755554
0.000751304
0.000751145
0.000755375
0.000755555
0.000751306
0.000760847
0.000765018
0.000765119
0.00076069
0.00076496
0.000760692
0.000760795
0.000760866
0.00076071
0.000764946
0.000765122
0.000764948
0.000760873
0.00076071
0.000755394
0.000751127
0.000755563
0.000751227
0.000755546
0.000751286
0.000755454
0.000741741
0.000745992
0.000745815
0.000741583
0.000745821
0.000741585
0.000741748
0.000741724
0.000745998
0.00074589
0.000741565
0.000741669
0.000745837
0.000741579
0.000741738
0.000745814
0.000745981
0.00074158
0.000745816
0.000741748
0.000741574
0.000741717
0.000745975
0.000745884
0.000741552
0.000745828
0.000741561
0.000741661
0.000755377
0.000755553
0.000751306
0.000751148
0.000755374
0.000755554
0.000751307
0.000760849
0.000765019
0.000765127
0.000760693
0.000760795
0.000764961
0.000760705
0.000760863
0.000760707
0.000764945
0.000765115
0.00076087
0.000764944
0.000760706
0.000755397
0.000751143
0.000755566
0.000751228
0.000755453
0.00075556
0.00075129
0.000741737
0.000745987
0.000745814
0.000741582
0.000745816
0.000741579
0.000741745
0.000741718
0.000745991
0.000745885
0.000741555
0.000745829
0.000741663
0.000741571
0.000741741
0.000745814
0.000745991
0.000741583
0.000745819
0.000741746
0.000741584
0.00074172
0.000745988
0.000745886
0.000741559
0.000745832
0.000741571
0.000741665
0.000755489
0.000755145
0.000751306
0.000751305
0.000755375
0.000755375
0.00075119
0.00074163
0.000741963
0.00074581
0.000745809
0.000741748
0.000745926
0.000741747
0.000755381
0.000755555
0.000751307
0.000751147
0.000755378
0.000755555
0.000751309
0.00076085
0.000765022
0.000765124
0.000760696
0.000760798
0.000764962
0.000760701
0.000760868
0.000760711
0.000764947
0.000765121
0.000760875
0.000764949
0.00076071
0.000755397
0.000751142
0.000755568
0.00075123
0.000755454
0.000755551
0.000751291
0.000741733
0.000745812
0.000745984
0.000741574
0.000745813
0.000741743
0.000741571
0.000741715
0.000745978
0.000745883
0.000741551
0.000745826
0.00074166
0.000741565
0.000741739
0.000745813
0.000745986
0.000741577
0.000745818
0.000741745
0.000741577
0.000741719
0.000745992
0.000745887
0.000741557
0.000745832
0.000741569
0.000741664
0.000741634
0.000741962
0.000745812
0.000745812
0.000745931
0.00074175
0.000741747
0.000724674
0.000724642
0.000724645
0.000726448
0.000686422
0.000686393
0.000686393
0.0006882
0.000648181
0.000648154
0.000648152
0.000649962
0.000609935
0.000609907
0.00060991
0.000611719
0.000571686
0.000571656
0.000571656
0.00057347
0.000533433
0.000533405
0.000533406
0.000535212
0.000495176
0.000495147
0.000495149
0.00049696
0.000456913
0.000456883
0.000456881
0.000458693
0.000418661
0.000418633
0.000418632
0.00042044
0.000380411
0.000380386
0.000380385
0.000382193
0.000342162
0.000342136
0.000342137
0.000343943
0.00030391
0.000303884
0.000303885
0.00030569
0.000265651
0.000265624
0.000265625
0.000267428
0.000227389
0.000227364
0.000227363
0.000229161
0.000189123
0.000189097
0.000189097
0.000190892
0.000150852
0.000150826
0.000150826
0.000152609
0.000112566
0.000112537
0.000112538
0.000114295
7.4253e-05
7.41863e-05
7.41848e-05
7.58915e-05
3.64963e-05
3.59325e-05
3.59284e-05
3.72641e-05
8.34836e-06
7.4789e-06
7.4758e-06
6.6542e-06
0.000732391
0.000734208
0.000734208
0.000732389
0.000734208
0.000734209
0.000734208
0.000734207
0.00073239
0.000734209
0.000734208
0.000732387
0.000726455
0.000694142
0.000724643
0.000724642
0.000695954
0.000695952
0.000726451
0.000694141
0.000724643
0.000724644
0.000695955
0.000695954
0.000724643
0.000695953
0.000695953
0.000726457
0.000694141
0.000724643
0.000695954
0.000695953
0.000694139
0.000688205
0.000655903
0.000686394
0.000686395
0.000657713
0.000657716
0.000688205
0.000655903
0.000686393
0.000686391
0.000657713
0.000657713
0.000686393
0.000657715
0.000657712
0.000688203
0.000655899
0.000686393
0.000657712
0.000657711
0.000655898
0.000649967
0.000617656
0.000648153
0.000648154
0.00061947
0.00061947
0.000649967
0.000617657
0.000648154
0.000648153
0.00061947
0.000619472
0.000648152
0.000619469
0.000619471
0.000649964
0.000617661
0.000648151
0.000619472
0.000619471
0.000617659
0.00061172
0.00057941
0.000609908
0.000609908
0.000581222
0.000581217
0.00061172
0.000579406
0.000609908
0.00060991
0.000581222
0.00058122
0.00060991
0.000581219
0.000581222
0.000611724
0.000579408
0.00060991
0.000581221
0.000581221
0.00057941
0.00057347
0.000541158
0.000571658
0.000571655
0.000542969
0.000542969
0.000573468
0.000541159
0.000571659
0.000571656
0.000542969
0.00054297
0.000571658
0.000542969
0.000542967
0.000573468
0.000541157
0.000571657
0.000542969
0.000542967
0.000541153
0.00053522
0.0005029
0.000533405
0.000533406
0.000504713
0.000504714
0.00053522
0.000502902
0.000533405
0.000533407
0.000504712
0.000504714
0.000533405
0.000504713
0.000504715
0.000535219
0.000502901
0.000533404
0.000504713
0.000504715
0.000502903
0.000496961
0.000464637
0.000495149
0.00049515
0.00046645
0.000466447
0.000496962
0.000464635
0.000495148
0.00049515
0.000466451
0.000466448
0.000495149
0.000466449
0.000466448
0.000496963
0.000464634
0.000495149
0.000466448
0.000466447
0.000464635
0.000458697
0.000426385
0.000456886
0.000456883
0.000428195
0.000428197
0.000458695
0.000426385
0.000456885
0.000456883
0.000428195
0.000428193
0.000456883
0.000428196
0.000428194
0.000458693
0.000426381
0.000456883
0.000428193
0.000428194
0.000426381
0.000420447
0.000388135
0.000418633
0.000418634
0.000389946
0.000389947
0.000420446
0.000388135
0.000418634
0.000418633
0.000389946
0.000389949
0.000418632
0.000389947
0.000389947
0.000420444
0.000388137
0.000418633
0.000389949
0.000389947
0.000388136
0.000382195
0.000349887
0.000380384
0.000380386
0.000351697
0.000351697
0.000382196
0.000349888
0.000380384
0.000380386
0.000351696
0.000351698
0.000380386
0.000351697
0.000351701
0.000382194
0.00034989
0.000380387
0.000351698
0.000351699
0.00034989
0.000343943
0.000311639
0.000342134
0.000342136
0.000313448
0.000313448
0.000343945
0.000311639
0.000342135
0.000342136
0.000313446
0.000313448
0.000342138
0.000313448
0.000313446
0.000343947
0.00031164
0.000342137
0.000313449
0.000313447
0.000311637
0.000305692
0.000273382
0.000303884
0.000303886
0.000275187
0.000275188
0.000305693
0.000273382
0.000303883
0.000303886
0.000275189
0.000275189
0.000303885
0.00027519
0.000275191
0.000305693
0.000273382
0.000303886
0.000275191
0.00027519
0.000273382
0.000267431
0.000235124
0.000265625
0.000265624
0.000236928
0.000236927
0.000267429
0.000235125
0.000265625
0.000265624
0.000236927
0.000236925
0.000265627
0.000236927
0.000236925
0.00026743
0.000235122
0.000265625
0.000236926
0.000236925
0.000235122
0.000229164
0.000196866
0.000227364
0.000227365
0.000198663
0.000198662
0.000229167
0.000196863
0.000227363
0.000227363
0.000198664
0.000198662
0.000227363
0.000198661
0.000198663
0.000229165
0.000196864
0.000227362
0.000198662
0.000198663
0.000196865
0.000190897
0.000158603
0.000189101
0.000189097
0.000160394
0.000160392
0.000190893
0.0001586
0.000189101
0.000189098
0.000160395
0.000160393
0.000189099
0.000160392
0.000160394
0.000190895
0.0001586
0.000189098
0.000160392
0.000160393
0.000158602
0.000152612
0.000120326
0.000150827
0.000150826
0.00012212
0.000122118
0.00015261
0.000120323
0.000150827
0.000150827
0.00012212
0.000122118
0.000150827
0.000122118
0.000122118
0.000152611
0.000120326
0.000150827
0.000122119
0.000122118
0.000120323
0.000114302
8.20045e-05
0.000112539
0.000112535
8.3818e-05
8.38176e-05
0.000114299
8.20038e-05
0.000112538
0.000112538
8.38175e-05
8.38174e-05
0.000112537
8.38179e-05
8.38165e-05
0.000114303
8.20044e-05
0.000112537
8.38177e-05
8.38157e-05
8.20025e-05
7.58952e-05
4.36819e-05
7.4186e-05