/*--------------------------------*- C++ -*----------------------------------*\
| =========                 |                                                 |
| \\      /  F ield         | OpenFOAM: The Open Source CFD Toolbox           |
|  \\    /   O peration     | Version:  2312                                  |
|   \\  /    A nd           | Website:  www.openfoam.com                      |
|    \\/     M anipulation  |                                                 |
\*---------------------------------------------------------------------------*/
FoamFile
{
    version     2.0;
    format      ascii;
    arch        "LSB;label=32;scalar=64";
    class       surfaceScalarField;
    location    "50";
    object      phi;
}
// * * * * * * * * * * * * * * * * * * * * * * * * * * * * * * * * * * * * * //

dimensions      [0 3 -1 0 0 0 0];

oriented        oriented;

internalField   nonuniform List<scalar> 
125280
(
7.92188e-10
-3.44382e-09
-0.00110678
-1.34275e-09
-1.61796e-09
0.00110679
-0.00110474
-1.25107e-06
9.97895e-09
-3.51094e-08
0.00110478
-3.04625e-07
1.24916e-06
3.00323e-07
9.47831e-07
-3.11414e-07
-9.5002e-07
3.06552e-07
-0.00110466
-1.24564e-06
-9.90807e-10
8.28629e-09
0.00110466
-3.01972e-07
1.24657e-06
3.00532e-07
9.48079e-07
-3.11182e-07
-9.4744e-07
3.06872e-07
-0.000270896
1.27662e-06
1.24022e-06
-2.44383e-07
-2.47499e-07
0.000268871
-1.29127e-06
-1.24956e-06
0.000270967
-0.000268925
2.45368e-07
2.5352e-07
0.00110427
-8.29667e-10
-0.00110427
7.68154e-09
-1.28731e-06
3.0334e-07
-3.07048e-07
-9.50271e-07
3.03937e-07
-3.08719e-07
9.50356e-07
1.28912e-06
0.00110434
1.69618e-07
-0.00110449
-1.26539e-08
-1.28238e-06
3.0626e-07
-3.04433e-07
-9.55581e-07
3.01053e-07
-3.11422e-07
9.50353e-07
-1.22813e-06
0.000270946
-0.000268923
2.40597e-07
2.53532e-07
0.00110523
-1.41269e-09
-0.00110523
2.43503e-09
-1.24563e-06
3.00898e-07
-3.01552e-07
-9.52957e-07
3.06997e-07
-3.11294e-07
9.5351e-07
1.28352e-06
0.00110423
4.14908e-09
-0.00110422
-1.81563e-09
-1.27964e-06
3.06283e-07
-3.07357e-07
-9.52948e-07
3.03962e-07
-3.11564e-07
9.53506e-07
5.17781e-08
-1.63814e-07
-1.30919e-06
2.98069e-07
-3.097e-07
-9.52919e-07
3.03869e-07
9.45301e-07
-3.14155e-07
-0.00110452
1.28312e-06
0.00110385
2.00685e-08
4.09188e-09
-1.27399e-06
3.06048e-07
-3.04501e-07
-9.49843e-07
3.04057e-07
-3.1133e-07
9.45278e-07
-0.00110387
-1.24955e-06
0.000270929
-0.000268898
2.48493e-07
2.53509e-07
5.88744e-12
-0.00110468
1.80904e-08
-1.24557e-06
3.00728e-07
-3.01624e-07
-9.47793e-07
3.06809e-07
9.4791e-07
-3.11449e-07
1.24139e-06
0.00110479
1.11588e-09
-0.00110474
-2.92173e-08
-1.2457e-06
3.00649e-07
-3.04473e-07
-9.50342e-07
3.06577e-07
-3.11697e-07
9.50385e-07
-0.000268871
2.45611e-07
2.53416e-07
1.28779e-06
1.246e-06
-2.42073e-07
-2.49973e-07
0.000268925
3.96811e-09
0.00110427
-3.04684e-07
1.29083e-06
3.02961e-07
9.50616e-07
-3.08855e-07
-9.50435e-07
3.03752e-07
-1.28511e-06
9.81013e-09
4.61971e-09
0.00110433
-3.07661e-07
1.28842e-06
3.05928e-07
9.53047e-07
-3.11437e-07
-9.53e-07
3.06472e-07
-2.50006e-07
-2.47208e-07
0.000268907
3.24815e-09
0.00110523
-3.01882e-07
1.24918e-06
3.00541e-07
9.53439e-07
-3.11532e-07
-9.52993e-07
3.06901e-07
-1.27972e-06
3.52297e-09
4.14602e-09
0.00110422
-3.07626e-07
1.28324e-06
3.05916e-07
9.53663e-07
-3.08688e-07
-9.53173e-07
3.04095e-07
3.35741e-11
4.13086e-09
0.00110385
-3.04624e-07
1.28021e-06
3.02922e-07
9.45208e-07
-3.08696e-07
3.01098e-07
-9.44528e-07
-2.44854e-07
-2.49736e-07
0.000268899
-2.97639e-11
-1.28522e-08
0.0011048
-3.01928e-07
1.24393e-06
3.00217e-07
9.50359e-07
-3.11663e-07
3.0654e-07
-9.50317e-07
8.65738e-09
-4.84702e-08
0.000208328
5.32965e-09
-0.000208293
8.18289e-09
-4.81403e-08
0.000208306
-0.000208272
-0.00110679
4.60082e-09
-1.22857e-09
0.00110648
-0.00110601
-7.6699e-08
-1.67368e-07
0.00110638
-0.00110639
-1.08673e-08
2.1448e-08
0.00110632
-0.00110626
-2.14741e-08
-2.16416e-08
-6.97202e-11
-7.02265e-08
0.000248237
-0.000248197
3.05755e-08
1.24144e-10
-0.000208328
-8.01411e-09
5.02595e-08
-7.85605e-09
0.000208294
-0.000248236
2.47173e-11
6.89594e-08
0.000248197
-3.02379e-08
8.22589e-10
8.18546e-09
-4.83096e-08
0.000208329
5.51839e-09
-0.000208294
-0.000103782
8.23343e-09
2.41808e-08
0.00010375
-9.03224e-09
-2.30358e-08
0.000103781
-0.000103749
-6.98291e-08
-3.87627e-10
0.000248222
-0.000248183
5.51227e-10
2.99962e-08
-0.000208305
-7.98527e-09
5.06063e-08
-8.08433e-09
0.000208271
-0.000248221
6.9271e-08
1.2931e-10
0.000248182
5.14383e-10
-3.05111e-08
9.42499e-09
-4.85113e-08
0.000208306
4.36029e-09
-0.000208271
-1.19268e-08
-4.27686e-08
0.00110655
-1.30234e-09
1.01393e-08
0.00110638
-5.68947e-09
-1.60911e-08
0.00110635
6.98712e-08
-1.70709e-09
0.000262516
-0.000262388
-1.30566e-09
-1.94614e-07
-0.000263105
-3.10127e-08
-5.03481e-08
1.34876e-07
1.18141e-08
0.00026304
0.00110122
-0.00110126
-1.25122e-08
1.59101e-08
1.01493e-06
-8.29504e-07
-1.01498e-06
8.30174e-07
-2.1029e-09
1.25212e-06
0.00110478
5.86483e-10
-9.47381e-07
3.06345e-07
-3.11532e-07
9.47456e-07
-1.24833e-06
3.00933e-07
-3.01667e-07
-0.00026252
-6.89678e-08
8.64069e-10
0.000262392
2.78527e-09
1.93708e-07
3.07504e-08
4.84903e-08
0.000263107
-1.42353e-08
-0.000263041
-1.31258e-07
-9.09198e-09
0.00110123
1.33097e-09
-1.01242e-06
8.27301e-07
-8.29362e-07
1.01166e-06
-0.000103773
8.53581e-09
2.17931e-08
0.000103743
-9.01227e-09
-2.01501e-08
0.00010377
-0.000103741
-6.61129e-10
6.95298e-08
0.000262505
-0.000262378
-1.94411e-07
-1.26455e-09
0.00110107
-0.00110107
1.27385e-08
4.81937e-10
1.01453e-06
-8.32217e-07
-1.01234e-06
8.29954e-07
-0.000263097
-3.05976e-08
-5.09833e-08
1.32371e-07
1.16323e-08
0.000263035
2.4176e-09
1.24671e-06
0.00110466
-6.06878e-10
-9.47495e-07
3.06526e-07
-3.11244e-07
9.47946e-07
-1.24285e-06
3.00865e-07
-3.01756e-07
-0.000262507
1.24243e-09
-6.9085e-08
0.000262379
1.93922e-07
1.92167e-09
-5.68756e-10
0.00110107
1.22425e-09
-1.01246e-06
8.29771e-07
-8.29598e-07
1.01426e-06
3.0856e-08
4.80955e-08
0.000263099
-1.38154e-08
-0.000263036
-1.28746e-07
-0.000300473
3.13497e-08
-2.16112e-08
5.0822e-08
-1.62405e-08
0.000300429
-0.000300395
3.08396e-08
-2.12485e-08
5.10519e-08
-1.5962e-08
0.000300351
-1.28027e-06
-1.24401e-06
0.000270897
-0.000268871
2.48284e-07
2.506e-07
-3.12063e-08
2.00195e-08
0.000300476
1.53675e-08
-0.000300428
-5.22865e-08
-3.12542e-08
1.93435e-08
0.000300394
1.6453e-08
-0.000300349
-4.95072e-08
-2.03661e-08
0.00010381
-0.000103781
-1.9697e-08
0.00010379
-0.000103762
0.000270966
-1.29108e-06
-1.25213e-06
-0.000268922
2.45502e-07
2.53601e-07
0.000300531
-3.14016e-08
1.76299e-08
-0.000300486
-5.22703e-08
0.00030046
-2.91074e-08
1.5119e-08
-0.000300414
-5.24278e-08
-2.08053e-08
-8.78262e-09
0.00010381
-0.000103781
2.14786e-08
7.98675e-09
0.000103781
-2.03264e-08
-8.6909e-09
0.000103788
-0.000103759
2.22401e-08
8.19143e-09
0.00010376
1.28747e-06
1.24853e-06
0.000268922
-2.41885e-07
-2.49669e-07
-3.14626e-08
0.000300532
-5.20028e-08
-0.000300488
1.83805e-08
-2.90872e-08
0.000300464
-5.23558e-08
-0.000300419
1.56755e-08
3.07024e-08
-1.86178e-08
5.33217e-08
0.000300487
2.78721e-08
-1.55546e-08
5.29868e-08
0.000300417
0.00110427
-9.23059e-10
-1.28812e-06
3.03123e-07
-3.05216e-07
-9.51025e-07
3.0689e-07
-3.12119e-07
9.50762e-07
8.30587e-09
0.00026311
-1.40059e-08
-0.000263044
-1.31751e-07
1.60896e-10
6.88434e-08
-3.01813e-08
3.29092e-10
0.000248196
-0.000248236
-4.87225e-08
-0.000208294
5.62314e-09
5.00778e-08
-7.83829e-09
0.000208294
-3.60827e-10
-6.98934e-08
-0.000248197
3.04086e-08
3.37034e-10
6.87343e-08
-3.01844e-08
3.11354e-10
0.000248154
-0.000248193
-5.02875e-08
8.49201e-09
0.000208259
-0.000208223
5.58773e-09
5.29779e-08
-8.82252e-09
-8.01256e-09
0.000208223
-0.000208259
-6.98583e-08
0.000248193
-0.000248154
3.03949e-08
3.65e-10
9.78832e-10
2.57037e-09
1.93787e-07
0.000262401
-0.000262529
-1.08362e-09
-4.96611e-10
1.29132e-06
-3.04542e-07
3.0607e-07
9.50774e-07
-3.08598e-07
3.04371e-07
-9.50383e-07
0.00026311
-1.31393e-07
-0.000263044
-1.42671e-08
-0.0011015
5.74364e-10
0.0011015
6.42959e-10
-1.01515e-06
8.33472e-07
-8.31979e-07
1.01756e-06
1.13426e-08
1.34734e-07
0.000263044
2.12042e-10
-4.09034e-09
1.01765e-06
-8.32249e-07
-1.01519e-06
8.33373e-07
-0.0011015
-7.03108e-10
0.000262529
-0.0002624
-2.65198e-09
-1.95053e-07
1.51623e-09
1.93762e-07
0.000262375
-0.0002625
1.99662e-08
-1.29059e-06
-1.80033e-07
9.56138e-07
-3.05924e-07
-9.49871e-07
3.06729e-07
1.292e-06
-3.09918e-07
3.06539e-07
-0.00110434
3.12497e-08
0.000262998
-1.31213e-07
-0.000262932
-1.6577e-08
-0.00110147
0.00110144
2.12134e-08
-1.02295e-06
8.33536e-07
-8.34727e-07
1.01988e-06
-3.04501e-08
1.36504e-08
1.34598e-07
0.000262931
-0.000262995
-3.1666e-08
1.02567e-06
-8.32206e-07
-1.01756e-06
8.36149e-07
-0.00110143
0.0002625
-0.000262375
-6.20774e-10
-1.95266e-07
-2.24115e-08
-0.000103751
2.46936e-08
0.000103753
-0.000103786
0.000268922
-2.34062e-07
-0.00027095
1.22421e-06
-2.52187e-07
0.000300394
-4.96918e-08
-0.000300352
1.62071e-08
1.95552e-08
-3.13139e-08
0.000300542
-4.98447e-08
-0.000300497
1.63156e-08
5.04898e-08
0.00030035
-0.00030039
-1.64766e-08
-8.32902e-09
0.000103807
-0.00010378
0.00110523
-6.45785e-10
-1.24897e-06
3.0062e-07
-3.02409e-07
3.07191e-07
-3.12128e-07
0.000263072
-0.000263003
-1.29239e-07
6.98304e-08
2.31763e-10
1.56674e-10
-3.07104e-08
0.000248182
-4.83237e-08
-0.000208271
5.47686e-09
5.07432e-08
-8.1795e-09
0.000208272
-6.96744e-08
-3.21889e-10
-0.000248182
4.16637e-10
3.02395e-08
1.79924e-09
1.84568e-09
1.94386e-07
0.000262393
3.83464e-09
-1.4015e-09
1.25221e-06
-3.01859e-07
3.00728e-07
9.53702e-07
-3.11539e-07
3.075e-07
-9.53472e-07
0.000263073
-1.29068e-07
-0.000263004
-1.67902e-08
-0.00110135
-4.11916e-09
0.00110135
9.82713e-10
-1.01769e-06
8.33353e-07
-8.31882e-07
1.0202e-06
1.39225e-08
1.32454e-07
0.000263004
3.6746e-09
6.5459e-09
1.02009e-06
-8.32899e-07
-1.01875e-06
8.32844e-07
-1.74597e-09
0.000262521
-0.000262393
-1.40822e-09
-1.95105e-07
6.97531e-08
-3.086e-08
1.71763e-10
0.000248141
-4.80085e-08
8.45341e-09
0.000208243
-0.000208209
5.38803e-09
5.07903e-08
-8.39821e-09
-7.94585e-09
0.000208209
-6.96774e-08
0.00024818
-0.000248141
3.03466e-08
2.27945e-10
1.94376e-07
1.68579e-09
0.000262366
3.99631e-09
-1.28006e-06
4.59288e-09
9.53313e-07
-3.12049e-07
-9.53899e-07
3.06769e-07
1.28332e-06
-3.07916e-07
3.06247e-07
-0.0011013
0.00110129
5.64231e-09
-1.01744e-06
8.33264e-07
-8.31901e-07
1.0204e-06
3.14535e-08
0.000262982
-1.26278e-07
-0.000262921
-1.41119e-08
1.19464e-08
1.02031e-06
-8.32849e-07
-1.01873e-06
8.32825e-07
-3.12586e-08
1.16175e-08
1.32923e-07
0.00026292
0.000262491
-0.000262366
-1.95068e-07
-1.32602e-09
4.78672e-08
-1.2873e-07
-0.000263042
-1.38605e-08
-3.81413e-08
6.49433e-08
-1.02088e-06
8.30223e-07
1.01493e-06
-8.34742e-07
-0.00110144
6.94779e-08
-2.00113e-09
-0.000262392
-9.79868e-10
-1.94967e-07
0.000208311
-0.000208278
5.75226e-09
1.29165e-11
0.000248214
-0.000248177
1.37114e-10
3.21753e-08
0.00110117
2.12667e-08
-1.01483e-06
8.27726e-07
-8.31844e-07
1.01236e-06
-0.00110122
4.82724e-08
3.14992e-08
0.00026302
-1.26399e-07
-0.000262959
-1.41739e-08
6.96923e-08
0.000262486
-0.000262359
-1.9776e-07
-1.32976e-09
8.54512e-09
0.000208248
-0.000208213
5.44538e-09
0.000248177
-0.000248138
3.00728e-08
4.83415e-10
-2.00892e-08
-0.000103745
2.19167e-08
0.000103745
1.24871e-06
0.000268898
-2.45214e-07
-2.50296e-07
0.000300393
-4.72035e-08
-0.000300351
1.59244e-08
1.9732e-08
-3.15754e-08
0.000300541
-4.99111e-08
-0.000300495
1.58176e-08
-1.64252e-08
4.8865e-08
0.00030035
-2.25283e-08
2.88106e-08
-1.62592e-08
5.09623e-08
0.000300494
-7.87172e-09
0.000103797
-0.000103769
8.55223e-09
0.000103773
1.48857e-09
-6.94476e-08
1.94454e-07
1.82102e-09
0.000262381
8.51291e-09
2.89613e-11
1.24926e-06
-3.05049e-07
3.00676e-07
9.47894e-07
-3.12096e-07
-9.48272e-07
3.06686e-07
-0.00110108
2.05453e-08
9.3473e-10
-1.01228e-06
8.30296e-07
1.01492e-06
-8.26597e-07
4.7711e-08
-1.28892e-07
-0.000263033
-1.40373e-08
5.41809e-08
6.07483e-09
1.01464e-06
-8.30087e-07
-1.01327e-06
8.27424e-07
-5.12195e-08
1.20035e-08
1.33127e-07
0.000263029
-3.09056e-10
6.94808e-08
-0.00026238
-1.94734e-07
-1.99343e-09
-6.90889e-08
1.94434e-07
1.58826e-09
0.000262352
-1.88434e-07
-1.32046e-06
2.08393e-08
9.47384e-07
-3.123e-07
-9.51588e-07
3.06598e-07
1.2142e-06
-3.18844e-07
2.97885e-07
-0.00110101
0.00110099
5.81586e-09
-1.01476e-06
8.30419e-07
-8.26493e-07
1.01725e-06
4.83838e-08
3.19828e-08
0.000262984
-1.28954e-07
-0.000262921
-1.43405e-08
4.40073e-08
1.01417e-06
-8.30181e-07
-1.01611e-06
8.27289e-07
-5.04638e-08
-3.08812e-08
1.14705e-08
1.32927e-07
0.000262921
6.95692e-08
0.000262476
-0.000262351
-1.94933e-07
2.36631e-10
3.92616e-10
-2.31389e-10
-3.2843e-08
0.000248169
0.000208305
-0.000208271
5.88486e-09
-7.91106e-09
0.000208271
-1.17651e-10
0.000248207
-0.00024817
-2.50496e-10
3.24101e-08
8.64482e-11
-3.47784e-08
0.000248131
9.24126e-09
0.000208239
-0.000208204
4.65272e-09
-7.74951e-09
-8.38853e-09
0.000208204
0.000248166
-0.000248132
5.38326e-10
3.48065e-08
0.000268885
-2.50515e-07
1.27765e-06
-2.58144e-07
2.00868e-08
-4.99174e-08
-0.000300427
1.56796e-08
2.07205e-08
-4.9584e-08
-0.000300351
1.7002e-08
-2.13496e-08
5.16553e-08
0.000300352
-1.54538e-08
0.000103787
-0.000103758
0.000103775
-0.000103745
0.000103744
2.12084e-08
0.000103781
-2.07389e-08
0.00010381
-0.000103781
2.15571e-08
0.000103758
-2.08883e-08
0.00010379
-0.00010376
3.07214e-08
5.3181e-08
-1.84636e-08
0.000300488
2.81471e-08
5.28345e-08
-1.56981e-08
0.00030042
0.000270967
-1.29147e-06
-1.24975e-06
-0.000268925
2.45631e-07
2.5342e-07
0.000300533
-3.12808e-08
1.80472e-08
-0.000300488
-5.2025e-08
0.000300464
-2.86459e-08
1.53693e-08
-0.00030042
-5.15722e-08
2.18759e-08
8.56194e-09
0.000103779
2.17396e-08
8.25167e-09
0.00010376
1.28754e-06
1.24589e-06
0.000268925
-2.41831e-07
-2.50021e-07
3.10869e-08
-1.84613e-08
5.33631e-08
0.000300489
2.84988e-08
-1.55974e-08
5.33875e-08
0.00030042
-6.98299e-08
0.000248194
-0.000248155
3.01803e-08
3.23734e-10
5.29141e-08
-8.18145e-09
0.000208222
6.89784e-08
0.000248154
-3.0379e-08
3.94581e-10
-5.04765e-08
0.000208258
5.36456e-09
-0.000208222
-6.81734e-10
0.000262528
-0.000262399
-2.7133e-09
-1.95235e-07
1.34861e-07
1.11794e-08
0.000263045
0.00110149
6.1515e-09
1.07171e-09
1.01764e-06
-8.32564e-07
-1.01547e-06
8.33015e-07
8.6055e-09
0.00110426
-3.97537e-10
-1.2876e-06
3.0357e-07
-3.04483e-07
-9.50579e-07
3.03616e-07
-3.08479e-07
9.49957e-07
1.17474e-09
0.0002624
2.41559e-09
1.9403e-07
0.000263111
-1.40473e-08
-0.000263045
-1.31273e-07
-2.11511e-09
0.0011015
8.05472e-10
-1.01527e-06
8.33191e-07
-8.32131e-07
1.01727e-06
0.000262499
-0.000262374
-3.54495e-10
-1.94979e-07
-3.06739e-08
1.34694e-07
1.13283e-08
0.000262936
0.00110144
5.70686e-09
1.02005e-06
-8.32549e-07
-1.01786e-06
8.33024e-07
-1.89335e-09
0.00110433
1.28871e-06
2.03381e-10
-9.55617e-07
3.06346e-07
9.55621e-07
-3.1137e-07
-1.28241e-06
3.06379e-07
-3.0464e-07
0.000262375
1.45588e-09
1.93928e-07
0.000263
3.05215e-08
-1.335e-08
-0.000262936
-1.31009e-07
0.00110143
8.95945e-10
-1.02036e-06
8.33007e-07
-8.3226e-07
1.02249e-06
2.96981e-10
6.88468e-08
-3.01101e-08
3.4953e-10
0.000248197
5.08005e-08
-7.95408e-09
0.000208295
6.90866e-08
-3.02164e-08
1.91718e-10
0.000248155
5.27964e-08
-8.29607e-09
-7.69658e-09
0.000208221
1.03028e-09
2.69786e-09
1.93771e-07
0.000262399
4.21158e-09
-3.10551e-10
1.29097e-06
-3.04314e-07
3.03286e-07
9.50356e-07
-3.0893e-07
3.03317e-07
-9.50628e-07
0.00110426
1.14952e-08
1.34934e-07
0.000263047
4.44567e-09
1.87402e-09
1.01709e-06
-8.32561e-07
-1.01575e-06
8.32593e-07
0.0011015
1.21401e-09
1.93972e-07
0.000262374
3.67279e-09
-1.28519e-06
-6.21192e-10
9.55831e-07
-3.11669e-07
-9.55426e-07
3.0616e-07
1.28828e-06
-3.07306e-07
3.06108e-07
0.00110433
-3.16781e-08
1.17258e-08
1.35055e-07
0.000262938
1.74758e-09
1.02235e-06
-8.32679e-07
-1.02084e-06
8.32568e-07
0.00110144
5.0587e-08
-1.59935e-08
0.000300353
-2.18607e-08
5.06432e-08
-1.59805e-08
0.000300498
0.000270951
-0.000268909
2.48232e-07
2.50709e-07
0.000300395
1.51254e-08
-0.000300354
-4.91793e-08
2.07737e-08
0.000300548
1.43916e-08
-0.0003005
-5.21188e-08
8.28073e-09
0.000103777
0.000103805
-8.24756e-09
-0.000103776
2.39475e-08
0.000103749
1.24846e-06
0.000268909
-2.44847e-07
-2.4722e-07
-1.75935e-08
5.11145e-08
0.000300354
-2.15235e-08
3.1769e-08
-1.71078e-08
5.34303e-08
0.000300501
9.19208e-09
0.000103774
-1.9321e-09
0.000262521
-0.000262393
-1.31242e-09
-1.9488e-07
1.32276e-07
1.3851e-08
0.000263005
0.00110134
2.73544e-09
5.88899e-09
1.02016e-06
-8.32269e-07
-1.01815e-06
8.32936e-07
3.14221e-09
0.00110523
-7.23416e-10
-1.24588e-06
3.00905e-07
-3.01761e-07
-9.53123e-07
3.06603e-07
-3.11478e-07
9.53162e-07
1.77948e-09
0.000262393
2.01776e-09
1.93884e-07
0.000263074
-1.67361e-08
-0.000263006
-1.28772e-07
-3.89024e-09
0.00110134
5.55602e-09
-1.01789e-06
8.3283e-07
-8.32067e-07
1.01991e-06
-6.95708e-08
0.000248181
-0.000248142
3.00076e-08
2.06575e-10
5.08744e-08
-7.92923e-09
0.000208208
6.90526e-08
0.000248141
-3.02658e-08
2.74355e-10
-4.78595e-08
0.000208241
5.3922e-09
-0.000208208
0.000262491
-0.000262366
-1.94861e-07
-1.12198e-09
0.00110129
1.11319e-09
1.02031e-06
-8.32367e-07
-1.01782e-06
8.32804e-07
-3.08657e-08
1.29769e-07
1.17816e-08
0.000262922
3.01487e-09
0.00110422
1.28341e-06
-8.73277e-10
-9.52991e-07
3.03825e-07
9.53362e-07
-3.0872e-07
-1.27953e-06
3.06326e-07
-3.07407e-07
0.000262367
1.93899e-07
1.32793e-09
0.00110128
5.48352e-09
-1.01775e-06
8.32848e-07
-8.32158e-07
1.01967e-06
0.000262984
3.1069e-08
-1.36455e-08
-0.000262923
-1.26061e-07
6.89685e-08
1.53929e-10
4.4727e-10
-3.04018e-08
0.000248183
5.05951e-08
-8.11729e-09
0.000208272
1.61697e-09
1.74252e-09
1.96502e-07
0.00026239
4.31228e-09
-7.8383e-10
1.24919e-06
-3.0185e-07
3.00536e-07
9.53198e-07
-3.11761e-07
3.06518e-07
-9.53309e-07
0.00110523
1.42234e-08
1.32517e-07
0.000263007
3.47446e-09
1.75625e-09
1.01991e-06
-8.32567e-07
-1.01814e-06
8.32404e-07
0.00110134
6.93433e-08
-3.07519e-08
3.25207e-10
0.000248142
5.09321e-08
-8.30241e-09
-7.62031e-09
0.000208206
1.96612e-07
1.85615e-09
0.000262363
3.7297e-09
-1.27983e-06
-9.82971e-10
9.53812e-07
-3.08839e-07
-9.52659e-07
3.0368e-07
1.28282e-06
-3.0746e-07
3.05914e-07
0.00110422
1.83691e-09
1.01972e-06
-8.32589e-07
-1.01841e-06
8.32406e-07
0.00110128
-3.16312e-08
1.21053e-08
1.30009e-07
0.000262924
-4.46464e-10
0.000248216
-0.000248178
1.91051e-10
3.23473e-08
-7.46345e-09
0.000208277
-2.18031e-10
0.000248177
8.96855e-10
-3.28473e-08
0.000208312
5.70724e-09
-0.000208277
6.99873e-08
0.000262483
-0.000262358
-1.94889e-07
-1.50354e-09
0.00110115
5.64994e-09
1.01248e-06
-8.26717e-07
8.27652e-07
-1.00945e-06
-5.05265e-08
1.3237e-07
1.15676e-08
0.000262958
8.72681e-09
0.00110384
4.2518e-09
-1.27683e-06
3.03357e-07
-3.04487e-07
-9.44808e-07
3.01031e-07
-3.05983e-07
9.4479e-07
-6.88845e-08
0.000262359
1.9637e-07
9.52642e-10
0.00110114
5.48403e-09
-1.01215e-06
8.30153e-07
-8.29336e-07
1.01447e-06
4.80443e-08
0.000263023
-1.39586e-08
-0.000262957
-1.31227e-07
0.000248178
-0.000248139
3.04295e-08
-1.85382e-10
-8.66294e-09
-7.62413e-09
0.000208213
0.000248138
-3.04787e-08
3.17846e-10
0.000208247
8.43815e-09
5.65556e-09
-0.000208213
-6.84891e-08
1.42582e-09
2.17739e-09
1.93905e-07
0.000262387
-8.98178e-10
-9.71434e-10
1.25166e-06
-3.01685e-07
3.00492e-07
9.4785e-07
-3.11428e-07
-9.47417e-07
3.06173e-07
0.00110479
-5.02843e-08
1.17625e-08
1.34863e-07
0.000263043
1.46788e-09
1.45066e-09
1.01455e-06
-8.26921e-07
-1.00985e-06
8.29873e-07
0.00110122
-5.52804e-10
6.91196e-10
-3.23123e-08
0.00024818
-6.79466e-09
0.000208277
-6.87403e-08
1.93832e-07
1.44947e-09
0.000262358
4.21746e-09
-1.27684e-06
-7.43575e-09
9.45093e-07
-3.06093e-07
-9.44896e-07
3.00978e-07
1.28006e-06
-3.04495e-07
3.02972e-07
0.00110385
-4.27447e-09
1.01435e-06
-8.29661e-07
-1.01275e-06
8.29893e-07
0.00110115
-5.0957e-08
-3.13043e-08
1.17215e-08
1.35094e-07
0.000262958
-3.002e-08
-4.19641e-10
0.000248139
-9.23545e-09
-7.18904e-09
0.000208213
4.84321e-08
-1.6167e-08
0.000300352
-2.20749e-08
5.08322e-08
-1.88744e-08
0.000300501
0.000270927
-0.000268899
2.48302e-07
2.53412e-07
0.000300396
1.57018e-08
-0.000300354
-4.68575e-08
2.01993e-08
0.000300545
1.82852e-08
-0.000300503
-4.95435e-08
8.51251e-09
0.000103766
0.000103793
-8.78034e-09
-0.000103764
2.21025e-08
0.00010374
1.24317e-06
0.000268899
-2.44976e-07
-2.49817e-07
-1.68086e-08
4.85715e-08
0.000300354
-2.19884e-08
3.14096e-08
-1.97178e-08
5.07941e-08
0.000300505
8.53023e-09
0.000103762
6.93896e-08
0.000262476
-0.000262351
-1.9475e-07
-8.29804e-11
0.00110099
9.1291e-10
1.01692e-06
-8.32309e-07
8.29988e-07
-1.01487e-06
-5.06093e-08
1.32438e-07
1.16663e-08
0.000262922
3.41904e-09
0.0011048
-1.06699e-10
-1.24036e-06
3.00558e-07
-3.01889e-07
-9.50342e-07
3.06324e-07
-3.11646e-07
9.50399e-07
-6.87292e-08
0.000262351
1.93732e-07
8.32943e-10
0.00110099
1.15324e-09
-1.01494e-06
8.29867e-07
-8.29459e-07
1.01628e-06
4.76732e-08
0.000262985
-1.39042e-08
-0.000262922
-1.28447e-07
-5.82136e-10
0.00024821
-0.000248173
3.32365e-10
3.20641e-08
-7.90573e-09
0.00020827
2.3494e-10
0.000248171
-5.93762e-11
-3.28576e-08
0.000208304
5.53043e-09
-0.00020827
0.000248166
-0.000248132
2.69861e-10
3.4489e-08
-8.12572e-09
-8.35049e-09
0.000208205
0.000248132
9.92071e-11
-3.46353e-08
0.000208238
8.70618e-09
5.12734e-09
-0.000208204
1.03989e-09
-6.88541e-08
1.93957e-07
2.27307e-09
0.000262376
3.45044e-09
-1.28297e-09
1.24611e-06
-3.01861e-07
3.00421e-07
9.4857e-07
-3.11242e-07
-9.47021e-07
3.06491e-07
0.00110466
4.41546e-09
1.47603e-09
1.01441e-06
-8.29539e-07
-1.01245e-06
8.29673e-07
0.00110106
-5.05326e-08
1.18398e-08
1.3227e-07
0.000263037
-6.86938e-08
1.93741e-07
5.32796e-10
0.000262351
3.84095e-09
-1.24043e-06
-6.11254e-10
9.50405e-07
-3.1187e-07
-9.50247e-07
3.06388e-07
1.2437e-06
-3.01845e-07
3.0043e-07
0.0011048
1.77866e-09
1.01652e-06
-8.29704e-07
-1.01527e-06
8.29631e-07
0.001101
-5.12574e-08
-3.12637e-08
1.17938e-08
1.32752e-07
0.000262923
-9.64482e-11
-2.22975e-10
-3.25802e-08
0.000248174
-7.17377e-09
0.000208269
-3.96384e-10
-3.44931e-08
0.000248132
-9.53454e-09
-6.98293e-09
0.000208203
0.000103757
0.000103783
-0.000103754
0.000103746
0.000103774
-0.000103746
0.000268871
-2.44522e-07
-2.47539e-07
-2.22722e-08
-1.61433e-08
5.29032e-08
0.00030043
-2.27719e-08
-1.64365e-08
5.07883e-08
0.000300352
0.000103751
0.000103742
3.04273e-08
8.34189e-05
-3.32798e-11
-0.000285524
2.87882e-08
0.000285569
-6.7391e-08
-1.83371e-09
-7.86631e-09
-8.88822e-09
5.09711e-08
6.70542e-08
4.94867e-10
8.34486e-05
-8.84601e-10
-9.59074e-09
5.11894e-08
-1.6806e-09
3.00567e-08
0.000153686
-0.000153715
7.30152e-10
-2.99623e-08
4.38193e-10
-0.000248236
-1.56151e-10
6.88047e-08
-0.000184353
-3.26105e-10
-6.56269e-10
0.000184385
-0.00024235
3.04788e-08
1.43975e-09
0.000242392
-7.4152e-08
-0.000184385
-5.1748e-10
-0.000242391
-2.5501e-10
7.22962e-08
9.60997e-10
0.000153715
-8.34224e-05
-2.9464e-08
-1.636e-09
8.34535e-05
-2.884e-08
0.000285524
1.06426e-10
-0.00028557
6.69862e-08
5.17069e-09
0.000208328
8.82515e-09
-4.8596e-08
-5.55218e-10
-8.34507e-05
-1.77194e-09
0.000285569
-6.69322e-08
-0.000153687
6.2657e-10
-3.07187e-08
3.05789e-08
3.94605e-10
1.09638e-10
-7.0405e-08
1.74933e-09
0.000184353
-0.000184385
-3.07285e-10
-2.99054e-08
0.000242349
-0.00024239
7.22162e-08
-0.000153715
-1.47943e-10
-7.44926e-08
2.93074e-08
8.34249e-05
-0.000285523
2.90439e-08
0.000285569
-6.7482e-08
-7.78454e-09
-8.48784e-09
5.01239e-08
6.65846e-08
8.34549e-05
0.000103781
-8.56651e-09
-2.2433e-08
8.01649e-09
2.3713e-08
3.12904e-08
-7.91023e-10
0.000153683
-0.000153713
-1.67817e-10
1.69611e-10
-3.04492e-08
-0.000248221
-1.25145e-10
6.91219e-08
-0.000242337
2.96687e-08
1.93166e-09
0.000242381
-7.46858e-08
-0.000184349
-1.57472e-09
9.8641e-11
0.00018438
-0.000242378
-1.07172e-11
7.24288e-08
-0.00018438
-1.39071e-10
5.91994e-10
0.00015371
-8.34183e-05
-2.88928e-08
-1.74993e-09
8.34489e-05
-3.00239e-08
0.000285518
4.34551e-11
-0.000285564
6.75108e-08
4.82684e-09
0.000208305
9.37528e-09
-4.85513e-08
-3.31127e-10
-8.3448e-05
-1.90396e-09
0.000285563
-6.72629e-08
-0.000153686
-3.03479e-08
8.39927e-10
7.45157e-10
3.02241e-08
-8.47125e-11
-7.0125e-08
-3.04742e-08
0.000242335
-0.000242376
7.25331e-08
1.14548e-09
0.000184349
-0.000184381
1.27639e-10
-0.000153715
-7.46774e-08
-1.24051e-10
3.09784e-08
8.34178e-05
-0.000285519
2.79885e-08
0.000285564
-6.68413e-08
-8.59342e-09
-7.57981e-09
5.01902e-08
6.66029e-08
8.34464e-05
0.000103771
-8.66042e-09
-1.96901e-08
8.24655e-09
2.20327e-08
-1.15354e-08
-1.15503e-08
0.000232747
-0.000232773
2.47432e-08
2.4573e-08
-8.55954e-05
-1.16422e-08
-1.62037e-08
8.56232e-05
-8.5583e-05
-1.15656e-08
-1.63507e-08
8.56109e-05
-8.56224e-05
1.55074e-08
-8.561e-05
1.54849e-08
-2.38383e-08
-2.41075e-08
0.000232772
-0.000239317
-2.987e-08
3.70501e-08
2.35978e-08
0.000239356
-6.92657e-08
-3.23637e-08
0.000265815
-0.000265887
1.03669e-07
5.08581e-08
3.65767e-08
0.000196368
-1.56281e-08
-0.000196405
-5.01565e-08
1.53464e-08
0.000300474
2.02786e-08
-3.1262e-08
-2.48604e-08
-0.000239356
6.74485e-08
0.000265885
-1.01917e-07
-4.79639e-08
1.6536e-08
0.000196404
-0.000239248
-3.02243e-08
3.5128e-08
2.37786e-08
0.000239291
-7.1426e-08
-3.23733e-08
0.000265701
-0.000265775
1.06734e-07
5.11803e-08
3.44795e-08
0.000196312
-1.57447e-08
-0.000196347
-4.92475e-08
1.67792e-08
0.000300394
2.03881e-08
-3.16245e-08
-2.48481e-08
-0.000239292
7.06361e-08
0.000265775
-1.06356e-07
-4.77486e-08
1.65578e-08
0.000196347
-0.00023275
1.1984e-08
1.1988e-08
1.22801e-08
8.55939e-05
-8.56218e-05
1.21729e-08
8.55815e-05
-8.56094e-05
-0.000232775
3.21515e-08
-3.69133e-08
0.000239315
6.98491e-08
-0.000196366
-3.63652e-08
0.000196402
5.33527e-08
-1.58593e-08
-2.20784e-08
3.11872e-08
-0.000265816
3.00978e-08
0.000265886
-1.04503e-07
-4.78969e-08
1.03523e-07
5.09372e-08
0.000239357
-7.18989e-08
3.20667e-08
-3.47082e-08
0.000239248
7.02915e-08
-0.000196312
-3.40571e-08
0.000196346
5.12731e-08
-1.58298e-08
-2.16916e-08
3.10621e-08
-0.000265701
3.01445e-08
0.000265776
-1.06579e-07
-4.80851e-08
1.06581e-07
5.11289e-08
0.000239292
-7.17948e-08
2.22248e-08
2.27724e-08
-1.22623e-08
-1.25148e-08
0.000232779
2.76151e-08
2.54328e-08
-8.55977e-05
-1.15895e-08
-1.53198e-08
8.56246e-05
-8.55834e-05
-1.13743e-08
-1.55402e-08
8.56103e-05
1.61593e-08
1.59905e-08
-2.66581e-08
-2.44271e-08
0.000232807
-3.75429e-08
0.000239354
3.54094e-08
6.80151e-08
-0.000196382
-3.66659e-08
0.000196421
-1.90307e-08
5.30462e-08
3.09203e-08
3.30408e-08
-0.000265869
0.000265933
-1.04102e-07
-4.55263e-08
0.000239393
-6.96971e-08
1.03913e-07
4.84387e-08
-3.75504e-08
0.000239288
3.28832e-08
7.3198e-08
-0.000196325
-3.62569e-08
0.00019636
-1.60915e-08
5.2919e-08
2.84884e-08
3.02838e-08
-0.000265759
0.000265829
-1.06799e-07
-4.57266e-08
0.000239332
-7.43177e-08
1.06435e-07
4.81734e-08
-0.00010381
2.14033e-08
8.38405e-09
-2.08835e-08
-8.94095e-09
-0.000103789
2.14216e-08
8.74035e-09
-2.02517e-08
-8.73485e-09
-0.000232779
1.18885e-08
1.17332e-08
-2.65331e-08
-2.42366e-08
0.000232806
1.19458e-08
8.55973e-05
1.53025e-08
1.21442e-08
8.5583e-05
1.51486e-08
2.7275e-08
2.521e-08
-1.58976e-08
8.56251e-05
-1.60498e-08
8.56108e-05
-3.7246e-08
3.46622e-08
0.000239357
-0.000239395
-2.69552e-08
6.77261e-08
-0.000265872
3.29018e-08
0.000265934
-1.01355e-07
-4.53152e-08
-1.8712e-08
5.37015e-08
-0.000300532
3.10756e-08
-0.00019638
-3.7046e-08
1.65755e-08
0.000196418
-0.00019642
-1.53884e-08
-0.000265936
1.01608e-07
5.08347e-08
2.63223e-08
0.000239396
-6.94353e-08
-3.70991e-08
3.22554e-08
0.00023929
-0.000239333
-2.48525e-08
7.28102e-08
-0.000265761
3.0093e-08
0.00026583
-1.06726e-07
-4.54098e-08
-1.59866e-08
5.34213e-08
-0.000300463
2.84854e-08
-0.000196322
-3.67578e-08
1.67068e-08
0.000196357
-0.000196359
-1.54263e-08
-0.00026583
1.06546e-07
4.8205e-08
2.40505e-08
0.000239334
-7.42006e-08
-0.000239356
3.70782e-08
-3.30217e-08
-6.95756e-08
3.66386e-08
0.000196381
-3.41297e-08
0.000265872
1.01177e-07
4.78362e-08
1.77537e-08
-5.21298e-08
-3.13545e-08
6.71922e-08
-1.01408e-07
-4.80251e-08
-0.00023929
3.67235e-08
-3.02473e-08
-7.41834e-08
3.66731e-08
0.000196323
-3.18495e-08
0.00026576
1.06188e-07
4.7924e-08
1.52284e-08
-5.21986e-08
-2.91113e-08
7.23946e-08
-1.06583e-07
-4.54353e-08
-1.19829e-08
-1.20346e-08
0.000232778
-8.55977e-05
-1.16737e-08
8.5626e-05
-8.55833e-05
-1.15979e-08
8.56116e-05
0.000232805
-0.000153687
8.77679e-10
-2.99938e-08
9.35171e-10
0.000153715
1.0712e-09
0.000184353
-2.16777e-10
-0.000184384
-3.03846e-08
0.000242347
-4.32349e-12
7.20871e-08
-0.000242388
3.02648e-08
6.18933e-10
0.000248236
1.52815e-11
-7.02009e-08
1.80692e-11
-0.000153717
0.000184385
-3.20359e-10
2.04205e-09
0.00024239
-7.45036e-08
8.34185e-05
2.97343e-08
-8.34485e-05
2.33143e-10
-7.53479e-09
-0.000208328
5.02267e-08
3.04584e-08
-0.000285526
-1.86059e-09
-6.71709e-08
-1.72571e-09
-0.000285571
2.26985e-10
6.68584e-08
-8.34187e-05
-2.88774e-08
-2.99318e-08
0.000285525
6.66566e-08
5.38698e-09
-4.88126e-08
-6.76916e-08
0.000153686
-1.09755e-09
3.04544e-08
-3.03004e-08
4.70045e-10
-2.68023e-10
6.90711e-08
-1.95442e-10
-0.000184354
-6.18195e-10
3.10294e-08
-0.000242348
-7.44597e-08
-3.97571e-10
7.23476e-08
-0.000153596
1.26364e-09
-2.96246e-08
8.25904e-10
0.000153623
4.07387e-10
0.000184314
-0.000184345
-3.07813e-08
0.000242246
-2.56352e-09
6.928e-08
-0.000242282
3.03068e-08
3.88118e-10
0.000248194
-7.02548e-08
1.25975e-10
-0.000153626
0.000184345
4.00287e-09
0.000242285
-7.172e-08
2.95718e-08
8.33792e-05
-8.34093e-05
5.51768e-10
-7.60216e-09
-0.000208259
-8.6707e-09
5.31611e-08
-0.000285366
2.88642e-08
-3.88157e-09
0.000285411
-6.41973e-08
-0.000285411
3.00735e-09
6.46011e-08
-1.6362e-10
8.34082e-05
-8.33795e-05
-2.9023e-08
-3.03518e-08
0.000285367
6.42674e-08
-0.000285411
5.27502e-09
8.52619e-09
-5.03952e-08
-8.34097e-05
-6.44339e-08
-9.35428e-10
3.0851e-08
0.000153594
-3.0129e-08
9.40932e-11
6.90688e-08
-0.000184314
-1.11533e-09
0.000184345
-0.000242248
3.02772e-08
0.000242286
-7.13136e-08
7.02284e-08
0.000153623
-0.000103784
2.42238e-08
-2.25917e-08
3.26661e-08
-3.48318e-08
0.000239263
-3.02875e-08
7.30646e-08
-0.000239304
-0.000265703
3.24392e-08
0.000265771
-1.01818e-07
-4.80189e-08
5.07876e-08
-1.64414e-08
-0.000300392
3.07898e-08
-0.000196304
-3.50896e-08
1.89838e-08