/*--------------------------------*- C++ -*----------------------------------*\
| =========                 |                                                 |
| \\      /  F ield         | OpenFOAM: The Open Source CFD Toolbox           |
|  \\    /   O peration     | Version:  2312                                  |
|   \\  /    A nd           | Website:  www.openfoam.com                      |
|    \\/     M anipulation  |                                                 |
\*---------------------------------------------------------------------------*/
FoamFile
{
    version     2.0;
    format      ascii;
    arch        "LSB;label=32;scalar=64";
    class       volVectorField;
    location    "50";
    object      U;
}
// * * * * * * * * * * * * * * * * * * * * * * * * * * * * * * * * * * * * * //

dimensions      [0 1 -1 0 0 0 0];

internalField   nonuniform List<vector> 
43168
(
(-7.91799e-07 -7.96931e-07 0.105133)
(-1.08703e-06 1.01733e-06 0.104893)
(9.74248e-07 -7.91417e-07 0.104893)
(-4.59036e-05 -4.59449e-05 0.104569)
(-4.87523e-05 -4.87198e-05 0.104589)
(8.21499e-07 8.90888e-07 0.104893)
(-8.79585e-07 1.12631e-06 0.104893)
(4.89108e-05 -4.88278e-05 0.104589)
(8.44433e-07 7.82993e-07 0.104893)
(9.78242e-07 -8.90514e-07 0.104893)
(-1.12825e-06 8.33756e-07 0.104893)
(-1.09778e-06 -9.63312e-07 0.104893)
(-4.87859e-05 4.88143e-05 0.104589)
(8.45532e-07 -9.49651e-07 0.104893)
(-9.77104e-07 -1.11518e-06 0.104893)
(4.87471e-05 4.87573e-05 0.104588)
(4.60073e-05 4.59872e-05 0.104569)
(1.09149e-06 8.83478e-07 0.104893)
(-1.121e-06 1.0961e-06 0.104893)
(-4.59471e-05 4.59694e-05 0.104569)
(8.21499e-07 9.90504e-07 0.104893)
(8.41335e-07 -1.01777e-06 0.104893)
(-9.71247e-07 -1.00075e-06 0.104893)
(4.59711e-05 -4.60013e-05 0.104569)
(-1.00507e-06 -9.67263e-07 0.104893)
(-1.50148e-06 -1.3905e-05 0.088501)
(-1.37786e-05 -1.227e-06 0.0885001)
(-8.40646e-07 -7.72141e-07 0.105133)
(6.80395e-07 -6.57549e-07 0.105133)
(-8.04919e-07 7.39817e-07 0.105133)
(6.48076e-07 6.82193e-07 0.105133)
(2.39531e-07 -1.89775e-05 0.0989314)
(8.96419e-07 1.422e-05 0.0884441)
(-4.82897e-07 1.836e-05 0.0988782)
(-1.44194e-06 -1.39882e-05 0.0885012)
(-4.07425e-06 7.46883e-06 0.075732)
(4.14644e-06 -7.10723e-06 0.075795)
(-1.87729e-05 1.88931e-07 0.0989311)
(1.43864e-05 8.88354e-07 0.0884431)
(1.853e-05 -4.20703e-07 0.0988777)
(-1.39893e-05 -1.87868e-06 0.0884999)
(6.77036e-07 -6.98736e-07 0.105133)
(-8.02429e-07 7.32049e-07 0.105133)
(7.00276e-07 6.99535e-07 0.105133)
(2.3408e-05 4.37225e-07 0.103402)
(-2.12745e-05 9.91344e-06 0.0996525)
(-8.50327e-07 -1.83488e-07 0.105051)
(-1.12583e-06 8.35024e-07 0.104893)
(-2.3643e-05 -4.853e-07 0.103373)
(2.01429e-05 -1.03091e-05 0.0997277)
(-8.97474e-07 -1.29787e-07 0.105051)
(7.5412e-06 -4.28359e-06 0.0757334)
(-6.96161e-06 4.17685e-06 0.0757897)
(3.36987e-07 2.33514e-05 0.103402)
(-1.47398e-07 -7.27473e-07 0.105051)
(9.74377e-06 -2.13179e-05 0.0996538)
(7.89721e-07 -9.53567e-07 0.104893)
(-4.90552e-07 -2.37774e-05 0.103373)
(-1.73238e-07 -8.72459e-07 0.105051)
(-1.01884e-05 2.00455e-05 0.0997281)
(-7.45033e-06 -9.71853e-06 0.0945345)
(-9.53839e-06 -7.54412e-06 0.0945354)
(4.87522e-05 4.86941e-05 0.104589)
(7.19636e-06 9.31388e-06 0.0946046)
(9.56405e-06 7.11503e-06 0.0946036)
(-4.01003e-06 -7.09848e-06 0.0757984)
(-6.77079e-06 -3.94568e-06 0.0757928)
(-4.87004e-05 -4.86779e-05 0.104589)
(-9.23981e-06 -7.0008e-06 0.0946072)
(-7.13632e-06 -9.43401e-06 0.0946049)
(-4.25324e-06 -7.39075e-06 0.0757981)
(4.17742e-06 7.469e-06 0.0757389)
(-7.12118e-06 -4.21375e-06 0.0757902)
(7.88122e-06 4.26776e-06 0.0757325)
(4.59665e-05 4.59819e-05 0.104568)
(-9.27518e-06 -6.9499e-06 0.0946073)
(-7.20381e-06 -9.47348e-06 0.0946061)
(9.63726e-06 7.62514e-06 0.0945364)
(7.45792e-06 9.45262e-06 0.0945366)
(9.71371e-07 8.79864e-07 0.104893)
(-1.03616e-05 -2.01266e-05 0.0997269)
(-3.22886e-07 1.83181e-05 0.0988781)
(-1.44415e-06 -1.40807e-05 0.0885012)
(8.35774e-07 1.43531e-05 0.0884441)
(1.29459e-07 -1.88717e-05 0.0989311)
(3.53067e-07 1.82864e-05 0.0988787)
(1.36557e-06 -1.3697e-05 0.088501)
(-9.37581e-07 1.43809e-05 0.0884427)
(-2.51636e-07 -1.88698e-05 0.0989314)
(-5.17282e-07 2.35266e-05 0.103372)
(1.04066e-06 9.05268e-07 0.104893)
(-1.0491e-05 -2.01441e-05 0.0997269)
(-1.70563e-07 7.47354e-07 0.105051)
(9.57759e-06 2.10456e-05 0.0996525)
(-1.37383e-07 9.205e-07 0.105051)
(4.32007e-07 -2.35825e-05 0.103401)
(6.39007e-07 2.35049e-05 0.103372)
(-1.0703e-06 9.9619e-07 0.104893)
(1.03352e-05 -2.00067e-05 0.0997278)
(5.83376e-08 8.16113e-07 0.105051)
(-9.5201e-06 2.11761e-05 0.0996511)
(1.02947e-07 9.60357e-07 0.105051)
(-3.24302e-07 -2.36716e-05 0.103401)
(3.96567e-06 -6.86746e-06 0.0757961)
(-4.28523e-06 7.65417e-06 0.0757346)
(-4.60521e-05 4.59322e-05 0.104568)
(9.25154e-06 -6.97592e-06 0.0946068)
(7.17596e-06 -9.43674e-06 0.0946054)
(-9.44215e-06 7.33305e-06 0.0945335)
(6.68276e-06 -4.01134e-06 0.0758)
(8.81458e-07 8.84483e-07 0.104893)
(-2.0031e-05 -1.03712e-05 0.0997263)
(1.86865e-05 -2.78714e-07 0.0988776)
(-1.39599e-05 -1.43524e-06 0.0885)
(1.45877e-05 7.97324e-07 0.0884437)
(-1.87652e-05 1.95497e-07 0.0989306)
(2.39675e-05 -4.70475e-07 0.103372)
(8.27238e-07 1.04309e-06 0.104893)
(-2.01193e-05 -1.043e-05 0.0997265)
(8.13884e-07 -1.66467e-07 0.105051)
(2.1276e-05 9.56954e-06 0.0996529)
(9.5429e-07 -1.09076e-07 0.105051)
(-2.36424e-05 3.89858e-07 0.103401)
(1.86937e-05 2.67702e-07 0.0988784)
(-1.38753e-05 1.43017e-06 0.0884992)
(1.45075e-05 -9.79713e-07 0.0884432)
(-1.87935e-05 -2.91801e-07 0.0989312)
(2.39595e-05 5.24756e-07 0.103372)
(1.01572e-06 -1.03649e-06 0.104893)
(8.19519e-07 1.00985e-07 0.10505)
(-2.001e-05 1.04174e-05 0.0997259)
(1.0005e-06 1.11127e-07 0.105051)
(2.14473e-05 -9.78056e-06 0.0996523)
(-2.36634e-05 -3.53439e-07 0.103401)
(1.99131e-05 -1.02092e-05 0.0997271)
(-9.33377e-07 -1.38485e-07 0.105051)
(2.35689e-05 4.86471e-07 0.103403)
(1.38197e-05 -1.31516e-06 0.0885014)
(1.8594e-05 3.47722e-07 0.0989312)
(-8.52446e-07 2.55587e-08 0.10505)
(2.0052e-05 1.0347e-05 0.0997257)
(2.36029e-05 -3.45148e-07 0.103401)
(1.39585e-05 1.43594e-06 0.0884993)
(1.86991e-05 -7.74134e-08 0.0989314)
(-7.10439e-06 4.10065e-06 0.0757921)
(7.56651e-06 -4.23112e-06 0.0757351)
(4.60853e-05 -4.61062e-05 0.104568)
(-6.95037e-06 9.36648e-06 0.0946037)
(-9.45213e-06 7.17903e-06 0.0946074)
(7.65439e-06 -9.7706e-06 0.0945359)
(9.51613e-06 -7.32961e-06 0.0945364)
(-3.80033e-06 6.76137e-06 0.0757923)
(4.0801e-06 -7.55445e-06 0.075738)
(-5.15869e-07 -2.39715e-05 0.103373)
(1.01235e-06 -9.66111e-07 0.104893)
(-1.66162e-07 -8.11978e-07 0.105051)
(-1.03449e-05 2.00129e-05 0.0997272)
(-1.68159e-07 -9.19132e-07 0.105051)
(9.97819e-06 -2.15747e-05 0.0996528)
(2.9076e-07 2.34788e-05 0.103403)
(3.86693e-07 -2.39297e-05 0.103372)
(-1.06684e-06 -1.15855e-06 0.104893)
(6.70174e-08 -8.31932e-07 0.10505)
(1.06412e-05 2.01822e-05 0.0997264)
(4.1883e-08 -9.99628e-07 0.105051)
(-9.53844e-06 -2.13315e-05 0.0996527)
(-3.25605e-07 2.36101e-05 0.103402)
(-1.8351e-07 -1.85656e-05 0.0988754)
(-1.19558e-06 1.36712e-05 0.0884999)
(9.16499e-07 -1.44901e-05 0.0884439)
(2.22726e-07 1.87946e-05 0.0989312)
(2.7535e-07 -1.83487e-05 0.0988757)
(1.83425e-06 1.39414e-05 0.0884997)
(-6.32151e-07 -1.44017e-05 0.0884428)
(-3.57852e-07 1.87883e-05 0.0989334)
(-4.60079e-05 -4.60501e-05 0.104568)
(7.11563e-06 9.45919e-06 0.0946038)
(9.52945e-06 6.92972e-06 0.0946041)
(-9.72498e-06 -7.9663e-06 0.0945363)
(7.00783e-06 4.17714e-06 0.075801)
(4.34703e-06 7.40213e-06 0.0757951)
(-4.0616e-06 -7.16412e-06 0.0757343)
(4.06452e-06 7.21997e-06 0.0757389)
(-3.94805e-06 -7.23826e-06 0.0757976)
(7.47889e-06 4.05296e-06 0.0757305)
(-7.45914e-06 -4.42486e-06 0.0757913)
(9.61811e-06 7.48936e-06 0.0945363)
(7.36587e-06 9.54394e-06 0.0945374)
(-4.87882e-05 -4.8774e-05 0.104589)
(-9.24302e-06 -7.10427e-06 0.0946075)
(-6.80427e-06 -9.20822e-06 0.0946063)
(4.35767e-06 7.58617e-06 0.0757379)
(7.56533e-06 4.22021e-06 0.0757323)
(4.59486e-05 4.59356e-05 0.104569)
(9.70094e-06 7.48057e-06 0.0945366)
(7.53549e-06 9.68026e-06 0.0945372)
(-2.02579e-07 -1.88312e-05 0.0989318)
(-8.32486e-07 1.44755e-05 0.0884423)
(4.06128e-07 1.8438e-05 0.0988785)
(1.56582e-06 -1.37738e-05 0.0885006)
(4.24602e-07 -2.37093e-05 0.1034)
(9.56493e-06 2.11583e-05 0.0996524)
(-1.54322e-07 8.87476e-07 0.105051)
(8.7376e-07 8.75118e-07 0.104893)
(-4.09033e-07 2.37178e-05 0.103372)
(-1.04698e-05 -2.01625e-05 0.0997273)
(-1.23525e-07 7.48813e-07 0.105051)
(-3.04863e-07 -2.35406e-05 0.103401)
(-9.61163e-06 2.11996e-05 0.099652)
(3.80487e-08 9.2381e-07 0.105051)
(-8.93125e-07 1.10409e-06 0.104893)
(5.40516e-07 2.36817e-05 0.103372)
(1.00507e-05 -2.00135e-05 0.0997283)
(9.35975e-08 8.14257e-07 0.105051)
(-3.31004e-07 1.82923e-05 0.0988783)
(8.97548e-07 1.44724e-05 0.0884444)
(4.97054e-07 1.83633e-05 0.0988789)
(-9.05862e-07 1.4395e-05 0.0884417)
(-4.49765e-07 2.36115e-05 0.103371)
(1.06011e-06 8.81881e-07 0.104893)
(9.72563e-06 2.12491e-05 0.099653)
(-8.44538e-08 9.39575e-07 0.105051)
(4.78974e-07 2.36964e-05 0.103372)
(-1.05895e-06 9.67197e-07 0.104893)
(-9.95053e-06 2.12589e-05 0.0996527)
(1.47743e-07 9.41264e-07 0.105051)
(-9.67133e-06 7.45204e-06 0.0945345)
(-7.40452e-06 9.64507e-06 0.0945358)
(4.87266e-05 -4.86839e-05 0.104589)
(9.0018e-06 -6.84467e-06 0.0946071)
(7.1993e-06 -9.06786e-06 0.0946059)
(-7.64903e-06 4.10503e-06 0.0757406)
(7.1881e-06 -4.07931e-06 0.0757987)
(-4.16411e-06 7.36385e-06 0.0757308)
(-4.6011e-05 4.59885e-05 0.104569)
(-9.94103e-06 7.65518e-06 0.0945348)
(-7.48748e-06 9.938e-06 0.0945366)
(-7.46091e-06 4.46104e-06 0.0757379)
(-2.35709e-05 3.12551e-07 0.103401)
(2.12352e-05 9.63031e-06 0.0996532)
(8.91796e-07 -1.86129e-07 0.105051)
(8.85243e-07 8.24336e-07 0.104893)
(2.37724e-05 -4.77494e-07 0.103372)
(-2.01579e-05 -1.04296e-05 0.0997271)
(8.18161e-07 -1.18711e-07 0.105051)
(-1.87104e-05 -2.50898e-07 0.0989316)
(1.45006e-05 -9.31385e-07 0.0884429)
(1.8449e-05 3.5182e-07 0.0988782)
(-1.36938e-05 1.55356e-06 0.0884987)
(-2.35088e-05 -4.47273e-07 0.103401)
(8.77994e-07 6.93254e-08 0.10505)
(2.1288e-05 -9.69733e-06 0.099653)
(9.45754e-07 -8.2366e-07 0.104893)
(2.37312e-05 4.64892e-07 0.103372)
(8.33535e-07 1.04989e-07 0.105051)
(-1.99815e-05 1.01691e-05 0.0997267)
(1.84001e-05 -4.72898e-07 0.0988781)
(1.44529e-05 7.98627e-07 0.0884434)
(2.36182e-05 -5.30621e-07 0.103371)
(8.91668e-07 1.08007e-06 0.104893)
(2.126e-05 9.71969e-06 0.0996537)
(9.86277e-07 -8.03526e-08 0.105051)
(1.85737e-05 4.44756e-07 0.0988785)
(1.46063e-05 -9.66608e-07 0.0884417)
(2.3756e-05 4.1665e-07 0.103372)
(8.96997e-07 -1.044e-06 0.104893)
(9.83895e-07 1.31306e-07 0.105051)
(2.13506e-05 -1.00977e-05 0.0996536)
(1.88343e-05 2.96619e-07 0.0989321)
(-1.43795e-05 1.05906e-06 0.0884434)
(-1.85114e-05 -5.50826e-07 0.0988756)
(1.40268e-05 -1.25364e-06 0.0885012)
(2.35739e-05 -3.97944e-07 0.103401)
(-8.42681e-07 3.44386e-08 0.10505)
(-2.12693e-05 -9.81437e-06 0.0996518)
(-1.00282e-06 -9.28814e-07 0.104893)
(-2.36587e-05 3.8795e-07 0.103372)
(-8.18191e-07 6.39116e-08 0.105051)
(2.0038e-05 1.031e-05 0.0997267)
(1.88932e-05 -3.66058e-07 0.0989319)
(-1.44042e-05 -1.04054e-06 0.0884428)
(-1.84789e-05 3.64463e-07 0.0988782)
(1.3898e-05 1.41927e-06 0.0884994)
(-2.36383e-05 -5.13531e-07 0.103373)
(-9.11668e-07 1.05935e-06 0.104893)
(-2.12214e-05 9.88527e-06 0.0996534)
(-9.00785e-07 -1.1346e-07 0.105051)
(-1.81322e-05 -5.29239e-07 0.0988767)
(-1.42111e-05 1.31954e-06 0.0884437)
(-2.36089e-05 3.87263e-07 0.103372)
(-9.47602e-07 -1.04891e-06 0.104893)
(-9.36735e-07 7.82421e-08 0.105051)
(-2.13558e-05 -9.93062e-06 0.0996527)
(-1.82604e-05 6.89094e-08 0.0988786)
(-1.44808e-05 -1.20107e-06 0.0884424)
(7.49742e-06 -9.61636e-06 0.0945363)
(9.5255e-06 -7.48824e-06 0.094538)
(-4.8687e-05 4.87403e-05 0.104589)
(-6.85684e-06 9.17251e-06 0.0946046)
(-9.12156e-06 6.96998e-06 0.0946086)
(4.29366e-06 -7.74446e-06 0.0757322)
(-4.13541e-06 6.95971e-06 0.0757894)
(7.68742e-06 -4.1708e-06 0.075731)
(4.60321e-05 -4.60286e-05 0.104569)
(7.56331e-06 -9.76747e-06 0.0945368)
(9.75665e-06 -7.45459e-06 0.094539)
(4.26169e-06 -7.72467e-06 0.0757288)
(-3.96712e-07 2.3523e-05 0.103402)
(6.62878e-08 -8.15553e-07 0.105051)
(-9.66174e-06 -2.12513e-05 0.0996527)
(-9.11497e-07 -1.01666e-06 0.104893)
(4.96955e-07 -2.36103e-05 0.103372)
(6.70601e-08 -8.32545e-07 0.105051)
(1.01853e-05 1.99146e-05 0.0997266)
(3.56734e-08 1.86977e-05 0.0989327)
(1.02745e-06 -1.47085e-05 0.0884434)
(-2.7384e-07 -1.84508e-05 0.098876)
(-1.4896e-06 1.38276e-05 0.0884994)
(-3.78709e-07 1.8595e-05 0.0989338)
(-7.37676e-07 -1.4479e-05 0.0884431)
(3.30357e-07 -1.83058e-05 0.0988759)
(1.60878e-06 1.38311e-05 0.0884993)
(-3.91968e-07 -2.37214e-05 0.103372)
(1.03842e-06 -8.22748e-07 0.104893)
(-1.74643e-07 -8.7523e-07 0.105051)
(9.96138e-06 -2.12772e-05 0.0996548)
(5.0346e-07 -2.35657e-05 0.103372)
(-1.03624e-06 -9.45339e-07 0.104893)
(9.69648e-08 -9.46719e-07 0.105051)
(-9.97167e-06 -2.14626e-05 0.0996532)
(-3.81272e-07 -1.82755e-05 0.0988775)
(1.07114e-06 -1.43935e-05 0.0884427)
(2.50192e-07 -1.82487e-05 0.0988762)
(-1.28331e-06 -1.45994e-05 0.0884425)
(-7.51944e-06 -4.25824e-06 0.0757411)
(7.14744e-06 4.14878e-06 0.0757987)
(-4.18296e-06 -7.39801e-06 0.0757355)
(4.31869e-06 7.06555e-06 0.0757947)
(-4.59659e-05 -4.60348e-05 0.104569)
(-7.07487e-06 -9.57723e-06 0.0945355)
(-9.45753e-06 -7.17333e-06 0.0945353)
(-7.6842e-06 -4.33856e-06 0.0757375)
(-4.46294e-06 -7.93779e-06 0.0757339)
(-1.38692e-06 6.66254e-06 0.0719697)
(-2.12638e-07 -1.42509e-05 0.0931366)
(1.04234e-06 1.45864e-05 0.0884443)
(-6.33179e-07 1.42466e-05 0.0930598)
(7.39722e-07 -6.56094e-06 0.0720408)
(1.4631e-05 1.47146e-06 0.088444)
(-1.4632e-06 6.0801e-06 0.0823926)
(-4.27693e-07 1.82381e-05 0.0988783)
(1.64149e-07 -5.47412e-06 0.0847842)
(-1.59857e-07 -1.8721e-05 0.0975729)
(-4.28251e-07 5.57989e-06 0.084747)
(-1.69924e-07 1.78753e-05 0.0975086)
(4.95121e-07 -6.11018e-06 0.0824384)
(5.29047e-07 -6.84267e-06 0.0720446)
(-6.2541e-07 1.41967e-05 0.0930599)
(-1.54229e-06 -1.40569e-05 0.0885007)
(-1.5043e-06 6.40588e-06 0.0719708)
(-6.30873e-08 -1.39272e-05 0.0931363)
(4.41317e-07 -6.10498e-06 0.0824391)
(1.91733e-07 -1.90107e-05 0.0989313)
(-5.06605e-07 5.62325e-06 0.0847469)
(-2.18999e-07 1.78648e-05 0.0975083)
(-1.32208e-06 6.17335e-06 0.0823927)
(2.08521e-07 -5.45992e-06 0.0847841)
(-2.32568e-07 -1.88573e-05 0.0975725)
(-1.67489e-06 6.12553e-06 0.0719744)
(-1.21974e-07 -1.46664e-05 0.0931363)
(9.09167e-07 1.42392e-05 0.0884446)
(-6.10261e-07 1.38348e-05 0.0930597)
(5.47003e-07 -6.84255e-06 0.0720458)
(4.03744e-06 -6.95435e-06 0.0757951)
(-4.14662e-06 7.40694e-06 0.0757313)
(6.53693e-06 -9.26668e-07 0.0823925)
(1.84213e-05 -4.07284e-07 0.0988779)
(-1.905e-05 -2.73336e-07 0.0975726)
(-5.28542e-06 4.48408e-07 0.0847839)
(1.80241e-05 -1.92222e-07 0.0975078)
(5.65298e-06 -1.71463e-07 0.0847466)
(-5.41678e-06 1.01042e-06 0.0824378)
(-7.01347e-06 3.43762e-07 0.0720401)
(1.43416e-05 -7.45253e-07 0.0930599)
(-1.40113e-05 -1.73852e-06 0.0884997)
(6.6856e-06 -1.27473e-06 0.071968)
(-1.42934e-05 -2.34151e-07 0.0931367)
(-6.13729e-06 4.00446e-07 0.0824397)
(-1.8856e-05 2.51228e-07 0.0989309)
(1.79897e-05 -2.15349e-07 0.097507)
(5.60912e-06 -3.93709e-07 0.0847467)
(6.14565e-06 -1.14107e-06 0.0823939)
(-1.89958e-05 -3.471e-07 0.0975716)
(-5.46325e-06 3.32463e-07 0.0847839)
(6.92477e-06 -1.48617e-06 0.0719682)
(-1.41536e-05 -2.7791e-07 0.0931372)
(1.43081e-05 5.71962e-07 0.0884434)
(1.3701e-05 -8.94842e-07 0.0930599)
(-6.0791e-06 7.03554e-07 0.0720372)
(-6.92734e-06 4.08559e-06 0.0757909)
(7.82194e-06 -4.30525e-06 0.075732)
(-7.49872e-06 -7.5575e-06 0.0910326)
(3.02645e-06 7.02817e-06 0.0726646)
(6.96364e-06 3.017e-06 0.0726578)
(-2.87788e-06 -6.6226e-06 0.0726003)
(-6.77506e-06 -2.85216e-06 0.0725937)
(7.47485e-06 7.4297e-06 0.0910976)
(2.27313e-05 8.69113e-06 0.0989204)
(-2.77232e-05 -1.286e-05 0.102091)
(-5.64541e-06 -4.77017e-06 0.0874843)
(7.25015e-06 9.32691e-06 0.0946042)
(-2.20249e-05 -9.01407e-06 0.0988557)
(2.76551e-05 1.16721e-05 0.102134)
(5.19979e-06 4.70556e-06 0.0875476)
(8.78951e-06 2.25616e-05 0.0989145)
(-1.28812e-05 -2.78527e-05 0.10209)
(-4.59544e-06 -5.56524e-06 0.0874794)
(9.32486e-06 6.66593e-06 0.0946039)
(-9.05415e-06 -2.22919e-05 0.0988513)
(1.1709e-05 2.75029e-05 0.102133)
(4.98946e-06 5.42129e-06 0.0875416)
(7.28205e-06 7.21453e-06 0.0910986)
(-3.34018e-06 -6.82578e-06 0.0725979)
(-6.95381e-06 -3.27774e-06 0.0725913)
(-7.74567e-06 -7.81638e-06 0.0910338)
(3.09834e-06 7.19974e-06 0.0726648)
(7.11335e-06 3.13192e-06 0.0726579)
(-2.20531e-05 -9.104e-06 0.0988557)
(5.19889e-06 4.67444e-06 0.0875469)
(-7.5221e-06 -9.70586e-06 0.0945353)
(2.75629e-05 1.17563e-05 0.102135)
(-2.76951e-05 -1.28864e-05 0.102091)
(-5.60637e-06 -4.67463e-06 0.0874839)
(2.25567e-05 8.60225e-06 0.0989209)
(-9.01648e-06 -2.21795e-05 0.098851)
(4.80618e-06 5.14586e-06 0.0875415)
(-9.64806e-06 -7.69362e-06 0.0945353)
(1.17952e-05 2.74058e-05 0.102133)
(-1.28811e-05 -2.78196e-05 0.10209)
(-4.4494e-06 -5.4909e-06 0.0874801)
(8.68674e-06 2.24816e-05 0.0989147)
(4.38551e-06 7.7468e-06 0.0757396)
(8.02747e-06 4.55685e-06 0.075735)
(7.79322e-06 7.70242e-06 0.0910336)
(-6.79971e-06 -2.6659e-06 0.0726597)
(-2.60709e-06 -6.88871e-06 0.0726529)
(6.87328e-06 3.14408e-06 0.0725954)
(3.24123e-06 6.777e-06 0.0725889)
(-7.7761e-06 -7.87506e-06 0.0911008)
(9.33514e-06 2.22859e-05 0.0988559)
(-4.30959e-06 -4.91213e-06 0.0875485)
(9.60803e-06 7.24656e-06 0.0945358)
(-1.18683e-05 -2.74944e-05 0.102135)
(4.88291e-06 5.75603e-06 0.0874842)
(-8.68426e-06 -2.26218e-05 0.0989225)
(1.30204e-05 2.79597e-05 0.102091)
(2.24343e-05 9.44499e-06 0.0988516)
(-4.98721e-06 -4.37208e-06 0.0875416)
(7.24087e-06 9.54939e-06 0.0945356)
(-2.75099e-05 -1.18932e-05 0.102134)
(5.84269e-06 4.84211e-06 0.0874788)
(-2.24475e-05 -8.57107e-06 0.0989175)
(2.7947e-05 1.29765e-05 0.10209)
(4.16526e-06 7.47476e-06 0.0757385)
(-4.21177e-06 -7.32047e-06 0.0757982)
(7.52556e-06 4.30091e-06 0.0757313)
(-6.94901e-06 -4.10939e-06 0.075791)
(-7.55279e-06 -7.65639e-06 0.0910997)
(6.65425e-06 3.0402e-06 0.0725945)
(3.09662e-06 6.57748e-06 0.0725879)
(7.97711e-06 7.87618e-06 0.091034)
(-6.90994e-06 -2.94277e-06 0.0726595)
(-2.90636e-06 -6.99084e-06 0.0726526)
(9.02843e-06 2.21512e-05 0.098857)
(-1.17829e-05 -2.74775e-05 0.102135)
(9.64737e-06 7.5305e-06 0.0945363)
(-4.76646e-06 -5.20226e-06 0.0875471)
(4.71033e-06 5.63776e-06 0.0874826)
(1.27903e-05 2.78719e-05 0.102091)
(-8.80492e-06 -2.25712e-05 0.0989235)
(2.22837e-05 9.14718e-06 0.0988523)
(-2.75139e-05 -1.17831e-05 0.102135)
(7.44203e-06 9.61685e-06 0.094537)
(-5.33785e-06 -4.79277e-06 0.0875401)
(5.58634e-06 4.72279e-06 0.087477)
(2.78252e-05 1.28131e-05 0.102091)
(-2.24636e-05 -8.71394e-06 0.0989181)
(-8.76771e-06 -2.2703e-05 0.0989231)
(4.65179e-06 5.60032e-06 0.0874836)
(1.26513e-05 2.76441e-05 0.102091)
(-9.23491e-06 -7.03909e-06 0.0946074)
(8.82828e-06 2.18819e-05 0.0988567)
(-4.49103e-06 -5.19421e-06 0.0875479)
(-1.17934e-05 -2.75482e-05 0.102135)
(-2.25022e-05 -8.63235e-06 0.0989179)
(5.6189e-06 4.61609e-06 0.087478)
(2.76349e-05 1.26946e-05 0.102091)
(-7.10175e-06 -9.38736e-06 0.0946058)
(2.20816e-05 9.01011e-06 0.0988522)
(-5.31799e-06 -4.54508e-06 0.0875409)
(-2.75524e-05 -1.1805e-05 0.102134)
(7.72143e-06 7.66e-06 0.0910333)
(-7.20462e-06 -3.05348e-06 0.07266)
(-3.04787e-06 -7.23979e-06 0.0726531)
(6.7228e-06 3.01697e-06 0.0725941)
(3.01901e-06 6.73409e-06 0.0725875)
(-7.25308e-06 -7.302e-06 0.0910999)
(7.26538e-07 -5.8349e-06 0.0824389)
(-2.56592e-07 5.63308e-06 0.0847468)
(-1.51702e-07 1.78896e-05 0.0975073)
(2.26999e-07 -1.88402e-05 0.0989309)
(-9.68164e-07 6.35456e-06 0.0823934)
(3.18576e-07 -5.39908e-06 0.0847837)
(-3.43564e-07 -1.87136e-05 0.0975714)
(-1.34294e-06 6.93219e-06 0.0719675)
(1.03301e-06 1.43184e-05 0.0884437)
(2.8922e-08 -1.41193e-05 0.0931372)
(4.23342e-07 -7.20292e-06 0.0720419)
(-6.14044e-07 1.4049e-05 0.0930603)
(5.25253e-07 -6.38454e-06 0.0720408)
(-8.01648e-07 1.40711e-05 0.0930599)
(-1.53619e-06 -1.40726e-05 0.0885009)
(-1.40558e-06 6.75737e-06 0.071969)
(-2.86329e-07 -1.46025e-05 0.0931369)
(-8.95102e-07 6.5005e-06 0.0823926)
(-4.29731e-07 1.84062e-05 0.0988783)
(8.49122e-08 -5.45817e-06 0.0847841)
(-3.32937e-07 -1.89487e-05 0.0975721)
(3.02388e-07 -6.10256e-06 0.082439)
(-2.6519e-07 5.68466e-06 0.0847474)
(-1.60067e-07 1.79931e-05 0.0975083)
(-8.71494e-07 -5.47282e-06 0.0824295)
(-2.04431e-08 5.6774e-06 0.0847461)
(1.62519e-07 1.77123e-05 0.0975103)
(-2.71022e-07 -1.88963e-05 0.0989315)
(8.04275e-07 6.7575e-06 0.0823846)
(-5.98522e-07 -5.36417e-06 0.084783)
(2.2499e-07 -1.87358e-05 0.0975744)
(1.41521e-06 6.69677e-06 0.0719764)
(-1.0318e-06 1.45207e-05 0.0884423)
(1.02061e-07 -1.42567e-05 0.0931328)
(6.83436e-07 1.40969e-05 0.0930563)
(-9.48659e-07 -6.31911e-06 0.0720457)
(-3.76458e-07 -6.69232e-06 0.0720464)
(7.23031e-07 1.42698e-05 0.0930567)
(1.47751e-06 -1.38219e-05 0.0885016)
(1.59441e-06 6.69664e-06 0.0719775)
(1.90765e-07 -1.43127e-05 0.0931335)
(7.2852e-07 6.72262e-06 0.0823835)
(3.21112e-07 1.83291e-05 0.0988791)
(-4.53228e-07 -5.4308e-06 0.0847827)
(1.35411e-07 -1.87619e-05 0.0975749)
(4.52278e-08 5.68552e-06 0.0847467)
(-3.48796e-09 1.81973e-05 0.0975116)
(-1.05754e-06 -5.74566e-06 0.0824289)
(-4.35028e-06 7.71849e-06 0.0757327)
(4.01021e-06 -6.96031e-06 0.075798)
(-9.19399e-06 2.22103e-05 0.0988524)
(1.17394e-05 -2.75832e-05 0.102135)
(-9.58379e-06 7.30094e-06 0.0945338)
(4.95179e-06 -5.3588e-06 0.0875399)
(-1.28948e-05 2.77778e-05 0.102091)
(-4.58685e-06 5.5454e-06 0.0874777)
(8.57876e-06 -2.25345e-05 0.0989173)
(-2.21474e-05 8.99161e-06 0.0988569)
(2.74966e-05 -1.17021e-05 0.102135)
(-7.10276e-06 9.41181e-06 0.0945352)
(5.31858e-06 -4.93938e-06 0.0875468)
(-5.53591e-06 4.48256e-06 0.087484)
(-2.78586e-05 1.28492e-05 0.102091)
(2.24953e-05 -8.61684e-06 0.0989232)
(-1.26223e-05 2.76828e-05 0.10209)
(9.36262e-06 -7.10868e-06 0.0946065)
(1.19328e-05 -2.76125e-05 0.102134)
(-8.10214e-06 8.13765e-06 0.091033)
(7.36867e-06 -3.24908e-06 0.0726545)
(3.22971e-06 -7.38586e-06 0.0726601)
(-6.54589e-06 2.80164e-06 0.0725891)
(-2.78021e-06 6.64578e-06 0.0725944)
(6.95528e-06 -6.96499e-06 0.0910993)
(-7.68095e-06 4.14885e-06 0.075742)
(-5.77571e-06 9.32746e-07 0.0824401)
(1.82119e-05 -1.53535e-08 0.0975063)
(5.78037e-06 -3.0405e-07 0.0847469)
(-1.87924e-05 2.59765e-07 0.0989308)
(6.45501e-06 -8.6939e-07 0.0823946)
(-1.86398e-05 -1.62819e-07 0.0975709)
(-5.37911e-06 3.4534e-07 0.0847839)
(6.61264e-06 -1.24511e-06 0.0719682)
(1.43272e-05 1.20725e-06 0.0884431)
(-1.44226e-05 -1.62919e-07 0.0931369)
(-6.47653e-06 8.76132e-07 0.0720383)
(1.38486e-05 -5.53439e-07 0.0930596)
(-6.48918e-06 7.42161e-07 0.0720382)
(1.40278e-05 -9.44204e-07 0.0930592)
(-1.38933e-05 -1.46584e-06 0.0885002)
(6.82782e-06 -1.30125e-06 0.07197)
(-1.46307e-05 -2.38502e-07 0.0931366)
(6.23639e-06 -9.05884e-07 0.0823942)
(1.82723e-05 -3.85609e-07 0.0988779)
(-1.87359e-05 -2.30455e-07 0.097571)
(-5.45817e-06 1.29816e-07 0.0847836)
(-6.10918e-06 7.50637e-07 0.0824399)
(1.79454e-05 -8.15298e-08 0.0975069)
(5.57805e-06 -3.96549e-07 0.0847471)
(-5.63895e-06 -6.66011e-07 0.0824309)
(5.84288e-06 1.4433e-07 0.084746)
(1.76976e-05 1.05588e-07 0.0975096)
(-1.88381e-05 -3.07412e-07 0.0989315)
(6.67135e-06 1.07533e-06 0.0823859)
(-5.33506e-06 -5.4237e-07 0.084783)
(-1.91462e-05 2.59299e-07 0.0975741)
(6.96214e-06 1.30402e-06 0.0719729)
(1.43519e-05 -8.52525e-07 0.0884428)
(-1.41466e-05 9.97018e-08 0.093134)
(1.39174e-05 6.66577e-07 0.0930571)
(-6.93593e-06 -6.23844e-07 0.0720426)
(-6.92624e-06 -3.00631e-07 0.0720444)
(1.47123e-05 5.60437e-07 0.0930584)
(-1.39667e-05 1.62689e-06 0.0884997)
(6.25289e-06 1.616e-06 0.0719722)
(-1.39302e-05 1.21414e-07 0.0931342)
(6.933e-06 5.85047e-07 0.0823845)
(1.82717e-05 3.2815e-07 0.0988788)
(-5.44503e-06 -3.22761e-07 0.0847824)
(-1.87817e-05 2.12806e-07 0.0975746)
(5.64491e-06 -4.02204e-08 0.0847463)
(1.77568e-05 8.78198e-08 0.0975108)
(-5.59773e-06 -7.61097e-07 0.082429)
(-7.19215e-06 -1.02754e-06 0.071963)
(-1.43983e-05 1.08648e-06 0.0884438)
(1.45733e-05 -2.46407e-07 0.0931386)
(-1.37091e-05 -7.10514e-07 0.0930563)
(5.86945e-06 1.19985e-06 0.0720406)
(-6.39545e-06 -3.87103e-07 0.0823845)
(-1.84099e-05 -4.24973e-07 0.0988757)
(1.83763e-05 -1.19798e-07 0.097576)
(5.31029e-06 3.71908e-07 0.0847838)
(-1.81011e-05 -1.07722e-07 0.0975063)
(-5.61851e-06 -1.78051e-07 0.0847441)
(5.68507e-06 1.37471e-06 0.0824374)
(-6.87093e-06 1.32738e-06 0.0719652)
(-1.42647e-05 -9.26873e-07 0.0884428)
(1.39616e-05 7.35044e-08 0.0931364)
(-1.38901e-05 6.92099e-07 0.093059)
(6.80576e-06 -5.53445e-07 0.0720351)
(-6.58823e-06 7.33195e-07 0.0823857)
(-1.84378e-05 4.40042e-07 0.0988783)
(5.40302e-06 -2.34907e-07 0.0847828)
(1.88503e-05 3.61664e-07 0.0975747)
(-5.68815e-06 2.9215e-07 0.0847458)
(-1.78556e-05 2.25332e-07 0.09751)
(5.93802e-06 -7.01312e-07 0.0824309)
(7.35697e-06 -4.11574e-06 0.0757343)
(-7.40948e-06 4.27333e-06 0.075793)
(-7.77412e-06 7.72976e-06 0.0911002)
(3.02556e-06 -6.69015e-06 0.0725925)
(6.71509e-06 -3.02701e-06 0.0725979)
(7.83776e-06 -7.82476e-06 0.0910331)
(-2.77684e-06 6.73382e-06 0.0726553)
(-6.80747e-06 2.72855e-06 0.0726611)
(2.21439e-05 -9.00586e-06 0.0988519)
(-2.75519e-05 1.1882e-05 0.102133)
(7.52956e-06 -9.589e-06 0.0945358)
(-5.05976e-06 4.56231e-06 0.0875395)
(2.77542e-05 -1.27358e-05 0.102091)
(5.63825e-06 -4.70629e-06 0.0874783)
(-2.24869e-05 8.67867e-06 0.0989161)
(9.18708e-06 -2.23251e-05 0.0988564)
(-1.18647e-05 2.753e-05 0.102135)
(9.23442e-06 -6.97327e-06 0.094537)
(-4.51105e-06 5.00038e-06 0.0875462)
(4.77594e-06 -5.78609e-06 0.0874837)
(1.27695e-05 -2.77512e-05 0.102092)
(-8.51869e-06 2.23645e-05 0.0989208)
(-2.25465e-05 8.61366e-06 0.0989161)
(5.70525e-06 -4.74817e-06 0.0874791)
(2.80074e-05 -1.30283e-05 0.102091)
(-7.04069e-06 9.35773e-06 0.0946038)
(-2.76445e-05 1.18521e-05 0.102133)
(2.24477e-05 -9.40424e-06 0.0988517)
(-5.23838e-06 4.54939e-06 0.0875403)
(-8.51184e-06 2.2404e-05 0.0989209)
(4.73589e-06 -5.88852e-06 0.0874849)
(1.30152e-05 -2.80667e-05 0.102092)
(-9.61854e-06 7.36273e-06 0.0946064)
(9.32573e-06 -2.24227e-05 0.0988564)
(-4.51898e-06 4.98863e-06 0.0875473)
(-1.18374e-05 2.75147e-05 0.102135)
(7.59192e-06 -7.66854e-06 0.0910336)
(-2.49321e-06 6.80171e-06 0.0726538)
(-6.87499e-06 2.46469e-06 0.0726596)
(3.35627e-06 -7.0176e-06 0.0725915)
(6.87531e-06 -3.40401e-06 0.0725971)
(-7.74585e-06 7.68021e-06 0.0910998)
(4.53116e-06 -7.94592e-06 0.0757347)
(-4.02202e-06 6.8972e-06 0.0757962)
(6.96638e-07 6.04532e-06 0.0824333)
(1.17795e-07 -1.83797e-05 0.0975101)
(-5.69159e-08 -5.67253e-06 0.084744)
(2.3786e-07 1.88536e-05 0.0989312)
(-5.0445e-07 -6.54819e-06 0.0823872)
(-2.10134e-07 1.87622e-05 0.0975741)
(3.23697e-07 5.36992e-06 0.0847839)
(-1.37026e-06 -6.29434e-06 0.0719682)
(1.36179e-06 -1.45367e-05 0.0884437)
(-1.54668e-07 1.43604e-05 0.0931354)
(-5.11189e-07 -1.36149e-05 0.0930592)
(8.9975e-07 6.54624e-06 0.0720377)
(6.45632e-07 6.89618e-06 0.07204)
(-6.2884e-07 -1.4098e-05 0.0930599)
(-1.1891e-06 1.38421e-05 0.0885006)
(-1.02782e-06 -7.22427e-06 0.0719665)
(3.53462e-08 1.39042e-05 0.0931357)
(-9.27496e-07 -6.16028e-06 0.0823871)
(-2.04607e-07 -1.8062e-05 0.0988762)
(-8.19093e-08 1.85687e-05 0.0975741)
(2.82199e-07 5.36185e-06 0.0847833)
(7.53183e-08 -1.78883e-05 0.0975106)
(-2.38636e-07 -5.53351e-06 0.0847444)
(9.29189e-07 6.0313e-06 0.0824321)
(-5.1983e-07 6.03273e-06 0.0824342)
(-8.79275e-08 -1.79444e-05 0.0975078)
(3.34064e-07 -5.5879e-06 0.0847428)
(-3.85079e-07 1.88899e-05 0.0989336)
(1.47678e-06 -6.07411e-06 0.0823852)
(2.08682e-07 1.89639e-05 0.0975754)
(-3.90254e-07 5.32233e-06 0.0847849)
(1.5186e-06 -6.4516e-06 0.071973)
(-7.39051e-07 -1.43328e-05 0.0884429)
(1.74894e-07 1.42474e-05 0.0931347)
(5.91887e-07 -1.42576e-05 0.0930576)
(-4.52513e-07 6.93704e-06 0.0720447)
(-4.91506e-07 6.88694e-06 0.0720432)
(5.24489e-07 -1.45901e-05 0.0930588)
(1.90521e-06 1.40519e-05 0.0884999)
(1.67432e-06 -6.04879e-06 0.0719717)
(2.11259e-07 1.40293e-05 0.093136)
(1.09721e-06 -6.17963e-06 0.0823844)
(2.63471e-07 -1.79827e-05 0.0988764)
(2.41487e-07 1.88806e-05 0.0975755)
(-4.36147e-07 5.33371e-06 0.0847844)
(-3.47811e-08 -1.75971e-05 0.0975085)
(1.32879e-07 -5.48418e-06 0.0847432)
(-5.63513e-07 5.9396e-06 0.0824325)
(7.76399e-06 7.7951e-06 0.0910979)
(2.79532e-06 6.83549e-06 0.0726653)
(6.8179e-06 2.83104e-06 0.0726583)
(-2.20267e-05 -8.97288e-06 0.0988558)
(2.77026e-05 1.18095e-05 0.102134)
(-7.41166e-06 -9.46192e-06 0.0945342)
(5.23066e-06 4.71458e-06 0.087548)
(2.26606e-05 8.80677e-06 0.0989203)
(-2.75818e-05 -1.27508e-05 0.102091)
(-5.49e-06 -4.62605e-06 0.0874847)
(-8.88987e-06 -2.21499e-05 0.0988518)
(1.18801e-05 2.75322e-05 0.102133)
(-9.42486e-06 -7.56222e-06 0.0945357)
(4.96996e-06 5.35883e-06 0.0875413)
(8.92445e-06 2.24989e-05 0.098915)
(-1.27013e-05 -2.77093e-05 0.102091)
(-4.48279e-06 -5.54799e-06 0.087479)
(2.24121e-05 8.54205e-06 0.0989198)
(7.085e-06 9.52501e-06 0.0946035)
(2.76747e-05 1.17706e-05 0.102134)
(5.32772e-06 4.71992e-06 0.0875485)
(8.84829e-06 2.25477e-05 0.0989148)
(-1.29538e-05 -2.80314e-05 0.102091)
(9.44118e-06 6.86638e-06 0.0946044)
(1.18925e-05 2.75804e-05 0.102134)
(4.85051e-06 5.30524e-06 0.0875411)
(-7.52625e-06 -7.57502e-06 0.0910339)
(2.72803e-06 7.08438e-06 0.0726644)
(6.96336e-06 2.77165e-06 0.0726575)
(7.8764e-06 7.83118e-06 0.0910984)
(-3.25593e-06 -6.93973e-06 0.0725989)
(-6.92551e-06 -3.24742e-06 0.0725922)
(-7.58364e-06 -4.12499e-06 0.0757425)
(7.0091e-06 4.21911e-06 0.0758025)
(-4.13719e-06 -7.35722e-06 0.0757351)
(4.40335e-06 7.5545e-06 0.0757953)
(-4.24223e-06 -7.35851e-06 0.0757983)
(4.17077e-06 7.31183e-06 0.0757394)
(-7.39948e-06 -4.41279e-06 0.0757902)
(7.22521e-06 3.96546e-06 0.0757319)
(8.05196e-06 8.03883e-06 0.0910311)
(-7.03575e-06 -3.06527e-06 0.0726625)
(-3.08555e-06 -6.99909e-06 0.0726555)
(6.62437e-06 2.73424e-06 0.0725972)
(2.73551e-06 6.62438e-06 0.0725905)
(-7.36286e-06 -7.35694e-06 0.091097)
(-8.77917e-06 -2.26706e-05 0.0989238)
(1.28613e-05 2.77361e-05 0.102091)
(4.49851e-06 5.47317e-06 0.0874821)
(-9.25229e-06 -6.91736e-06 0.0946075)
(8.92706e-06 2.20735e-05 0.0988575)
(-4.80413e-06 -5.30448e-06 0.0875468)
(-1.17632e-05 -2.76181e-05 0.102135)