/*--------------------------------*- C++ -*----------------------------------*\
| =========                 |                                                 |
| \\      /  F ield         | OpenFOAM: The Open Source CFD Toolbox           |
|  \\    /   O peration     | Version:  2312                                  |
|   \\  /    A nd           | Website:  www.openfoam.com                      |
|    \\/     M anipulation  |                                                 |
\*---------------------------------------------------------------------------*/
FoamFile
{
    version     2.0;
    format      ascii;
    arch        "LSB;label=32;scalar=64";
    class       volScalarField;
    location    "450";
    object      epsilon;
}
// * * * * * * * * * * * * * * * * * * * * * * * * * * * * * * * * * * * * * //

dimensions      [0 2 -3 0 0 0 0];

internalField   nonuniform List<scalar> 
42840
(
1.31331e-07
2.40765e-07
2.40786e-07
3.83894e-07
1.29952e-07
2.53405e-07
2.53442e-07
4.13164e-07
1.29354e-07
2.68078e-07
2.68118e-07
4.44433e-07
1.29538e-07
2.84719e-07
2.84767e-07
4.78449e-07
1.30482e-07
3.03243e-07
3.03293e-07
5.13112e-07
1.32186e-07
3.2354e-07
3.23592e-07
5.49712e-07
1.34651e-07
3.45488e-07
3.4554e-07
5.86226e-07
1.37877e-07
3.68955e-07
3.69011e-07
6.23645e-07
1.41863e-07
3.93787e-07
3.93851e-07
6.61161e-07
1.46618e-07
4.19831e-07
4.19902e-07
6.98402e-07
1.52145e-07
4.46925e-07
4.47005e-07
7.35013e-07
1.58448e-07
4.74901e-07
4.74981e-07
7.70973e-07
1.65535e-07
5.03587e-07
5.03667e-07
8.07511e-07
1.73405e-07
5.32805e-07
5.32896e-07
8.41323e-07
1.82059e-07
5.62383e-07
5.6248e-07
8.73904e-07
1.91492e-07
5.92146e-07
5.9225e-07
9.0528e-07
2.01698e-07
6.21931e-07
6.22043e-07
9.35498e-07
2.12664e-07
6.51575e-07
6.51695e-07
9.6449e-07
2.24366e-07
6.80937e-07
6.8106e-07
9.92272e-07
2.36778e-07
7.09879e-07
7.10008e-07
1.01882e-06
2.49867e-07
7.38292e-07
7.38421e-07
1.04427e-06
2.63593e-07
7.66059e-07
7.66192e-07
1.06857e-06
2.77908e-07
7.93088e-07
7.9322e-07
1.09186e-06
2.92755e-07
8.193e-07
8.19431e-07
1.11408e-06
3.08068e-07
8.44629e-07
8.44755e-07
1.13451e-06
3.83842e-07
4.05351e-07
2.40847e-07
2.40874e-07
2.50146e-07
2.5017e-07
3.84166e-07
4.05417e-07
2.40802e-07
2.40863e-07
2.50098e-07
2.50171e-07
2.40836e-07
2.50058e-07
2.50135e-07
3.83772e-07
4.05298e-07
2.40835e-07
2.50087e-07
2.50133e-07
4.05113e-07
4.12709e-07
4.36025e-07
2.53506e-07
2.53524e-07
2.64331e-07
2.64351e-07
4.12596e-07
4.36007e-07
2.53456e-07
2.53526e-07
2.64277e-07
2.64365e-07
2.53491e-07
2.64227e-07
2.64317e-07
4.12727e-07
4.36449e-07
2.53491e-07
2.64265e-07
2.64318e-07
4.36182e-07
4.44162e-07
4.68971e-07
2.68194e-07
2.68207e-07
2.80501e-07
2.80514e-07
4.44149e-07
4.69156e-07
2.68135e-07
2.6822e-07
2.80437e-07
2.80539e-07
2.68182e-07
2.8038e-07
2.80492e-07
4.44178e-07
4.69019e-07
2.68179e-07
2.80425e-07
2.80487e-07
4.69044e-07
4.77913e-07
5.04226e-07
2.84851e-07
2.84862e-07
2.98579e-07
2.98591e-07
4.77728e-07
5.04118e-07
2.84785e-07
2.84882e-07
2.98509e-07
2.98621e-07
2.84841e-07
2.98444e-07
2.98568e-07
4.77949e-07
5.04019e-07
2.84828e-07
2.98492e-07
2.98555e-07
5.04303e-07
5.12965e-07
5.39936e-07
3.03386e-07
3.03397e-07
3.18454e-07
3.18466e-07
5.13062e-07
5.40082e-07
3.03315e-07
3.03425e-07
3.18375e-07
3.18504e-07
3.03376e-07
3.18309e-07
3.1845e-07
5.13104e-07
5.40593e-07
3.03356e-07
3.18357e-07
3.18431e-07
5.40345e-07
5.49586e-07
5.77329e-07
3.23693e-07
3.23707e-07
3.40017e-07
3.40029e-07
5.49592e-07
5.7752e-07
3.23613e-07
3.23743e-07
3.39926e-07
3.40071e-07
3.23689e-07
3.39857e-07
3.40013e-07
5.49369e-07
5.77164e-07
3.23662e-07
3.39904e-07
3.39987e-07
5.78553e-07
5.86616e-07
6.14756e-07
3.45658e-07
3.45671e-07
3.63131e-07
3.63146e-07
5.86661e-07
6.14775e-07
3.45567e-07
3.45713e-07
3.63028e-07
3.63192e-07
3.45654e-07
3.62959e-07
3.63129e-07
5.86735e-07
6.15032e-07
3.45619e-07
3.63012e-07
3.63096e-07
6.15648e-07
6.24274e-07
6.51852e-07
3.69135e-07
3.69152e-07
3.87648e-07
3.87669e-07
6.24268e-07
6.52282e-07
3.69032e-07
3.69195e-07
3.87534e-07
3.87714e-07
3.69137e-07
3.87463e-07
3.87654e-07
6.24212e-07
6.52512e-07
3.69094e-07
3.87527e-07
3.87611e-07
6.53323e-07
6.61985e-07
6.89429e-07
3.93974e-07
3.94e-07
4.13414e-07
4.13436e-07
6.61786e-07
6.8965e-07
3.93861e-07
3.94043e-07
4.13284e-07
4.13485e-07
3.93985e-07
4.13219e-07
4.13428e-07
6.61853e-07
6.89443e-07
3.93937e-07
4.13288e-07
4.13378e-07
6.90925e-07
6.99006e-07
7.27286e-07
4.20025e-07
4.20053e-07
4.40273e-07
4.40285e-07
6.98984e-07
7.25957e-07
4.19901e-07
4.20103e-07
4.40132e-07
4.40348e-07
4.20048e-07
4.40064e-07
4.40296e-07
6.99197e-07
7.25977e-07
4.19988e-07
4.40143e-07
4.40225e-07
7.27598e-07
7.35162e-07
7.63512e-07
4.47127e-07
4.47145e-07
4.68049e-07
4.68054e-07
7.3595e-07
7.61555e-07
4.46993e-07
4.47209e-07
4.67898e-07
4.68128e-07
4.47159e-07
4.6783e-07
4.68076e-07
7.35871e-07
7.62402e-07
4.47085e-07
4.67916e-07
4.67994e-07
7.62691e-07
7.7084e-07
7.98602e-07
4.75106e-07
4.75122e-07
4.96578e-07
4.9658e-07
7.72239e-07
7.96597e-07
4.74965e-07
4.75192e-07
4.9642e-07
4.96655e-07
4.75146e-07
4.96355e-07
4.96615e-07
7.71294e-07
7.98333e-07
4.75055e-07
4.96438e-07
4.96512e-07
7.96521e-07
8.05766e-07
8.3247e-07
5.03799e-07
5.03803e-07
5.25683e-07
5.25676e-07
8.06852e-07
8.30461e-07
5.03647e-07
5.03877e-07
5.25515e-07
5.25768e-07
5.03847e-07
5.25458e-07
5.25723e-07
8.05666e-07
8.32477e-07
5.03738e-07
5.25552e-07
5.25609e-07
8.30613e-07
8.39503e-07
8.65193e-07
5.33019e-07
5.33018e-07
5.5518e-07
5.55183e-07
8.4093e-07
8.63428e-07
5.32856e-07
5.33106e-07
5.55007e-07
5.55283e-07
5.33073e-07
5.54963e-07
5.55237e-07
8.39514e-07
8.65296e-07
5.32951e-07
5.55065e-07
5.55112e-07
8.63401e-07
8.7208e-07
8.96766e-07
5.62587e-07
5.62598e-07
5.84904e-07
5.84918e-07
8.73652e-07
8.95057e-07
5.62419e-07
5.6269e-07
5.84725e-07
5.85021e-07
5.62661e-07
5.84695e-07
5.84981e-07
8.72188e-07
8.96899e-07
5.62525e-07
5.84805e-07
5.84844e-07
8.94939e-07
9.03498e-07
9.27122e-07
5.92344e-07
5.92361e-07
6.14692e-07
6.1471e-07
9.05065e-07
9.25465e-07
5.92172e-07
5.92455e-07
6.14508e-07
6.14805e-07
5.92436e-07
6.14489e-07
6.14788e-07
9.03546e-07
9.25434e-07
5.92287e-07
6.14604e-07
6.14641e-07
9.25381e-07
9.3367e-07
9.56292e-07
6.22125e-07
6.22142e-07
6.44387e-07
6.44401e-07
9.35265e-07
9.54633e-07
6.21943e-07
6.22229e-07
6.44195e-07
6.44486e-07
6.22231e-07
6.44182e-07
6.4449e-07
9.35286e-07
9.54747e-07
6.22077e-07
6.44304e-07
6.44339e-07
9.54588e-07
9.62652e-07
9.84265e-07
6.51772e-07
6.51783e-07
6.7383e-07
6.73839e-07
9.64246e-07
9.8317e-07
6.51583e-07
6.51863e-07
6.73633e-07
6.73918e-07
6.51881e-07
6.73632e-07
6.73939e-07
9.64305e-07
9.82777e-07
6.51724e-07
6.73754e-07
6.73782e-07
9.82617e-07
9.90427e-07
1.01106e-06
6.81133e-07
6.81142e-07
7.02879e-07
7.02891e-07
9.91063e-07
1.01104e-06
6.80937e-07
6.81212e-07
7.02685e-07
7.02959e-07
6.81247e-07
7.02687e-07
7.03001e-07
9.92098e-07
1.00963e-06
6.81083e-07
7.02816e-07
7.02839e-07
1.00948e-06
1.01703e-06
1.03673e-06
7.10066e-07
7.10076e-07
7.31421e-07
7.31436e-07
1.01701e-06
1.03674e-06
7.09871e-07
7.10143e-07
7.3123e-07
7.31504e-07
7.1019e-07
7.31243e-07
7.31552e-07
1.01873e-06
1.03537e-06
7.10027e-07
7.31374e-07
7.31387e-07
1.03516e-06
1.0425e-06
1.06128e-06
7.38466e-07
7.38477e-07
7.59352e-07
7.59366e-07
1.04252e-06
1.06131e-06
7.38273e-07
7.38544e-07
7.5916e-07
7.59432e-07
7.38596e-07
7.59182e-07
7.59479e-07
1.04419e-06
1.05995e-06
7.38425e-07
7.59312e-07
7.59308e-07
1.05977e-06
1.06687e-06
1.08474e-06
7.66225e-07
7.66235e-07
7.86567e-07
7.86581e-07
1.06691e-06
1.08481e-06
7.66032e-07
7.66301e-07
7.86375e-07
7.86649e-07
7.66352e-07
7.86405e-07
7.8669e-07
1.06851e-06
1.08349e-06
7.6618e-07
7.86537e-07
7.86516e-07
1.0833e-06
1.09015e-06
1.10716e-06
7.93244e-07
7.93257e-07
8.12981e-07
8.12994e-07
1.09022e-06
1.10723e-06
7.93052e-07
7.93323e-07
8.12787e-07
8.13063e-07
7.93372e-07
8.12828e-07
8.13101e-07
1.09177e-06
1.10599e-06
7.93196e-07
8.12961e-07
8.12926e-07
1.10579e-06
1.11238e-06
1.12821e-06
8.1945e-07
8.19462e-07
8.3853e-07
8.38535e-07
1.11245e-06
1.12827e-06
8.19255e-07
8.1953e-07
8.38332e-07
8.3861e-07
8.19575e-07
8.38382e-07
8.38649e-07
1.11398e-06
1.12808e-06
8.19396e-07
8.38511e-07
8.38471e-07
1.12797e-06
1.13384e-06
8.44774e-07
8.44779e-07
1.1339e-06
8.44578e-07
8.4485e-07
8.44893e-07
1.13433e-06
8.4471e-07
3.75879e-06
8.92095e-06
8.92517e-06
3.73528e-06
1.84403e-05
1.84331e-05
3.75874e-06
8.92232e-06
8.92646e-06
3.7354e-06
1.31334e-07
1.31337e-07
1.3134e-07
1.30233e-07
1.30234e-07
1.30239e-07
1.30242e-07
1.24205e-06
2.86793e-06
1.59576e-07
2.43736e-07
2.89002e-06
1.6013e-07
1.21409e-06
1.84413e-05
1.84341e-05
1.24199e-06
1.59612e-07
2.86959e-06
2.4376e-07
1.60143e-07
2.88887e-06
1.21432e-06
5.17146e-06
5.17153e-06
3.90874e-07
5.17912e-06
5.18164e-06
3.81877e-06
8.93087e-06
3.8003e-06
8.93452e-06
1.84137e-05
1.84072e-05
3.8188e-06
8.93221e-06
3.80047e-06
8.93584e-06
1.29953e-07
1.29958e-07
1.29962e-07
1.29446e-07
1.29446e-07
1.29453e-07
1.29457e-07
1.32269e-06
2.92981e-06
1.62229e-07
2.56889e-07
1.296e-06
2.94921e-06
1.63121e-07
1.84146e-05
1.84081e-05
1.3226e-06
1.6227e-07
2.93132e-06
2.56926e-07
1.29639e-06
1.63136e-07
2.9481e-06
5.19952e-06
5.20029e-06
4.20342e-07
5.20638e-06
5.20813e-06
3.8639e-06
8.93949e-06
3.85096e-06
8.94272e-06
1.83895e-05
1.83838e-05
3.86468e-06
8.94082e-06
3.85057e-06
8.94402e-06
1.29353e-07
1.2936e-07
1.29364e-07
1.29424e-07
1.29421e-07
1.29431e-07
1.29434e-07
1.39825e-06
2.98431e-06
1.66228e-07
2.72059e-07
1.37426e-06
3.00135e-06
1.67462e-07
1.83902e-05
1.83844e-05
1.39829e-06
1.66272e-07
2.9857e-06
2.72102e-07
1.37439e-06
1.67479e-07
3.00027e-06
5.22287e-06
5.2237e-06
4.52422e-07
5.22805e-06
5.23051e-06
3.89874e-06
8.94689e-06
3.88915e-06
8.94985e-06
1.83676e-05
1.83627e-05
3.89951e-06
8.94832e-06
3.88872e-06
8.95119e-06
1.29535e-07
1.29545e-07
1.29551e-07
1.30175e-07
1.3017e-07
1.30182e-07
1.30186e-07
1.46874e-06
3.03226e-06
1.71589e-07
2.89178e-07
1.44669e-06
3.04731e-06
1.73166e-07
1.83681e-05
1.83631e-05
1.46886e-06
1.71637e-07
3.03359e-06
2.89228e-07
1.44677e-06
1.73187e-07
3.04619e-06
5.24278e-06
5.24416e-06
4.86541e-07
5.24712e-06
5.24957e-06
3.92517e-06
8.95347e-06
3.91809e-06
8.95615e-06
1.83478e-05
1.83437e-05
3.92589e-06
8.95475e-06
3.91765e-06
8.95736e-06
1.30477e-07
1.3049e-07
1.30495e-07
1.3169e-07
1.31684e-07
1.31698e-07
1.31703e-07
1.53316e-06
3.07462e-06
1.78317e-07
3.08158e-07
1.51316e-06
3.0879e-06
1.80242e-07
1.83483e-05
1.83441e-05
1.53317e-06
1.78371e-07
3.07585e-06
3.08207e-07
1.51327e-06
1.80263e-07
3.08681e-06
5.25973e-06
5.26119e-06
5.2215e-07
5.26356e-06
5.26569e-06
3.94538e-06
8.95938e-06
3.94018e-06
8.96176e-06
1.83302e-05
1.83267e-05
3.94606e-06
8.96066e-06
3.9397e-06
8.9631e-06
1.32181e-07
1.32196e-07
1.32202e-07
1.33965e-07
1.33958e-07
1.33974e-07
1.3398e-07
1.59157e-06
3.11208e-06
1.86415e-07
3.2888e-07
1.57314e-06
3.12384e-06
1.8868e-07
1.83306e-05
1.83271e-05
1.59162e-06
1.86475e-07
3.11326e-06
3.28929e-07
1.5732e-06
1.88709e-07
3.12283e-06
5.27438e-06
5.27574e-06
5.59806e-07
5.27775e-06
5.27964e-06
3.96104e-06
8.96487e-06
3.95722e-06
8.9672e-06
1.83146e-05
1.83119e-05
3.96153e-06
8.96622e-06
3.9568e-06
8.96854e-06
1.34646e-07
1.34663e-07
1.34669e-07
1.37e-07
1.36994e-07
1.37011e-07
1.37018e-07
1.64384e-06
3.14539e-06
1.95874e-07
3.51221e-07
1.6275e-06
3.15589e-06
1.98482e-07
1.83151e-05
1.83124e-05
1.64405e-06
1.95942e-07
3.1465e-06
3.51272e-07
1.62764e-06
1.98515e-07
3.15492e-06
5.28705e-06
5.28855e-06
5.96823e-07
5.29011e-06
5.29189e-06
3.97351e-06
8.97016e-06
3.97033e-06
8.97262e-06
1.83013e-05
1.82994e-05
3.97379e-06
8.97166e-06
3.97022e-06
8.97396e-06
1.37872e-07
1.3789e-07
1.37898e-07
1.40798e-07
1.40792e-07
1.40812e-07
1.40819e-07
1.69084e-06
3.17519e-06
2.06673e-07
3.75044e-07
1.67604e-06
3.18462e-06
2.09615e-07
1.83018e-05
1.83e-05
1.69103e-06
2.06751e-07
3.1763e-06
3.75104e-07
1.67596e-06
2.09653e-07
3.18374e-06
5.29834e-06
5.29994e-06
6.34475e-07
5.30115e-06
5.30288e-06
3.98351e-06
8.97555e-06
3.98102e-06
8.97827e-06
1.82902e-05
1.82892e-05
3.98378e-06
8.97716e-06
3.98095e-06
8.97951e-06
1.4186e-07
1.41881e-07
1.41889e-07
1.45361e-07
1.45355e-07
1.45378e-07
1.45386e-07
1.73239e-06
3.20203e-06
2.18791e-07
4.00192e-07
1.71956e-06
3.21059e-06
2.22057e-07
1.82909e-05
1.82899e-05
1.73281e-06
2.18874e-07
3.20317e-06
4.00261e-07
1.71943e-06
2.22103e-07
3.2098e-06
5.3087e-06
5.31032e-06
6.72143e-07
5.31128e-06
5.31299e-06
3.99202e-06
8.98124e-06
3.99e-06
8.98422e-06
1.82816e-05
1.82814e-05
3.99219e-06
8.98289e-06
3.9899e-06
8.98537e-06
1.46616e-07
1.46639e-07
1.46648e-07
1.50694e-07
1.50689e-07
1.50714e-07
1.50723e-07
1.7699e-06
3.22653e-06
2.32188e-07
4.26516e-07
1.75846e-06
3.23435e-06
2.35772e-07
1.82823e-05
1.82822e-05
1.77031e-06
2.32281e-07
3.22764e-06
4.26589e-07
1.75832e-06
2.35824e-07
3.23362e-06
5.31836e-06
5.31999e-06
7.09242e-07
5.32081e-06
5.32249e-06
3.99932e-06
8.98741e-06
3.99753e-06
8.9906e-06
1.82753e-05
1.8276e-05
3.99943e-06
8.98906e-06
3.9975e-06
8.99171e-06
1.52143e-07
1.52169e-07
1.52179e-07
1.56804e-07
1.56798e-07
1.56828e-07
1.56836e-07
1.80384e-06
3.24896e-06
2.4683e-07
4.53844e-07
1.79349e-06
3.25606e-06
2.50717e-07
1.82761e-05
1.82768e-05
1.80403e-06
2.46923e-07
3.25013e-06
4.53926e-07
1.79342e-06
2.50768e-07
3.25558e-06
5.32758e-06
5.3292e-06
7.45454e-07
5.3299e-06
5.33161e-06
4.0058e-06
8.99413e-06
4.00416e-06
8.99756e-06
1.82715e-05
1.82731e-05
4.00587e-06
8.99569e-06
4.00415e-06
8.99876e-06
1.58447e-07
1.58476e-07
1.58488e-07
1.63694e-07
1.63688e-07
1.63722e-07
1.63731e-07
1.83454e-06
3.27005e-06
2.62654e-07
4.82008e-07
1.82521e-06
3.27636e-06
2.66834e-07
1.82723e-05
1.82739e-05
1.83474e-06
2.62752e-07
3.27098e-06
4.82094e-07
1.82512e-06
2.66882e-07
3.27599e-06
5.33656e-06
5.33816e-06
7.79562e-07
5.33881e-06
5.34051e-06
4.01173e-06
9.0015e-06
4.01018e-06
9.00521e-06
1.827e-05
1.82725e-05
4.01174e-06
9.00276e-06
4.01026e-06
9.00646e-06
1.65533e-07
1.65565e-07
1.65579e-07
1.71368e-07
1.71362e-07
1.71401e-07
1.7141e-07
1.86274e-06
3.28956e-06
2.79611e-07
5.10843e-07
1.85414e-06
3.29558e-06
2.84059e-07
1.82708e-05
1.82732e-05
1.86294e-06
2.79703e-07
3.29046e-06
5.10933e-07
1.85408e-06
2.84106e-07
3.29508e-06
5.34537e-06
5.34701e-06
8.13762e-07
5.34761e-06
5.34932e-06
4.01732e-06
9.00959e-06
4.01587e-06
9.01359e-06
1.8271e-05
1.82742e-05
4.01738e-06
9.01105e-06
4.01595e-06
9.01461e-06
1.73403e-07
1.7344e-07
1.73453e-07
1.79826e-07
1.79822e-07
1.79866e-07
1.79875e-07
1.88876e-06
3.30848e-06
2.97617e-07
5.40169e-07
1.88076e-06
3.31299e-06
3.02317e-07
1.82717e-05
1.82749e-05
1.8889e-06
2.97718e-07
3.30846e-06
5.40268e-07
1.88073e-06
3.02368e-07
3.3133e-06
5.35416e-06
5.3558e-06
8.47088e-07
5.35643e-06
5.35818e-06
4.02283e-06
9.01868e-06
4.02144e-06
9.02247e-06
1.82741e-05
1.82782e-05
4.02287e-06
9.01998e-06
4.02145e-06
9.02377e-06
1.82059e-07
1.821e-07
1.82114e-07
1.89064e-07
1.89065e-07
1.89113e-07
1.89123e-07
1.91301e-06
3.32601e-06
3.16604e-07
5.69808e-07
1.90554e-06
3.33037e-06
3.2154e-07
1.82748e-05
1.82788e-05
1.91318e-06
3.16714e-07
3.32612e-06
5.69915e-07
1.90552e-06
3.21599e-07
3.33103e-06
5.36298e-06
5.36463e-06
8.79305e-07
5.36533e-06
5.36708e-06
4.02846e-06
9.02829e-06
4.02694e-06
9.0324e-06
1.82795e-05
1.82843e-05
4.02843e-06
9.02963e-06
4.02701e-06
9.03375e-06
1.91496e-07
1.91541e-07
1.91557e-07
1.99077e-07
1.9908e-07
1.99133e-07
1.99147e-07
1.93581e-06
3.34264e-06
3.36498e-07
5.99592e-07
1.92873e-06
3.34683e-06
3.41649e-07
1.82801e-05
1.82849e-05
1.93598e-06
3.36616e-07
3.34201e-06
5.99704e-07
1.92879e-06
3.41719e-07
3.3474e-06
5.37187e-06
5.37352e-06
9.10314e-07
5.37428e-06
5.37603e-06
4.0341e-06
9.03871e-06
4.03258e-06
9.04318e-06
1.82869e-05
1.82925e-05
4.03419e-06
9.04009e-06
4.0327e-06
9.04452e-06
2.01704e-07
2.01754e-07
2.01773e-07
2.09852e-07
2.09858e-07
2.09914e-07
2.09933e-07
1.95732e-06
3.35846e-06
3.5721e-07
6.29355e-07
1.95063e-06
3.36249e-06
3.62552e-07
1.82875e-05
1.8293e-05
1.95746e-06
3.5734e-07
3.3579e-06
6.29474e-07
1.95074e-06
3.62632e-07
3.36308e-06
5.38083e-06
5.3825e-06
9.40106e-07
5.38332e-06
5.38507e-06
4.04019e-06
9.04964e-06
4.03856e-06
9.05492e-06
1.82964e-05
1.83027e-05
4.04025e-06
9.05131e-06
4.03862e-06
9.05606e-06
2.12669e-07
2.12723e-07
2.12747e-07
2.21372e-07
2.21379e-07
2.21437e-07
2.21461e-07
1.97784e-06
3.37381e-06
3.78654e-07
6.58944e-07
1.97146e-06
3.37762e-06
3.84164e-07
1.82969e-05
1.83032e-05
1.97803e-06
3.78794e-07
3.37337e-06
6.59067e-07
1.9716e-06
3.84251e-07
3.37813e-06
5.38986e-06
5.39155e-06
9.6872e-07
5.39244e-06
5.39418e-06
4.04658e-06
9.06191e-06
4.04473e-06
9.06703e-06
1.83075e-05
1.83144e-05
4.04658e-06
9.0633e-06
4.04486e-06
9.06835e-06
2.24372e-07
2.24429e-07
2.24457e-07
2.33609e-07
2.33619e-07
2.33677e-07
2.33707e-07
1.99748e-06
3.38871e-06
4.00735e-07
6.88214e-07
1.99137e-06
3.39202e-06
4.06386e-07
1.83083e-05
1.83152e-05
1.99761e-06
4.00875e-07
3.38787e-06
6.88338e-07
1.99147e-06
4.06478e-07
3.3927e-06
5.39899e-06
5.4007e-06
9.96154e-07
5.40163e-06
5.40332e-06
4.05322e-06
9.07467e-06
4.05118e-06
9.08003e-06
1.83205e-05
1.83281e-05
4.0531e-06
9.07601e-06
4.05137e-06
9.08134e-06
2.36787e-07
2.36846e-07
2.36878e-07
2.46532e-07
2.46546e-07
2.46605e-07
2.4664e-07
2.0163e-06
3.40286e-06
4.23346e-07
7.17035e-07
2.01044e-06
3.40637e-06
4.29115e-07
1.83214e-05
1.83289e-05
2.01638e-06
4.23493e-07
3.40207e-06
7.1716e-07
2.01048e-06
4.29211e-07
3.40668e-06
5.40825e-06
5.40989e-06
1.0224e-06
5.41081e-06
5.41264e-06
4.06019e-06
9.08778e-06
4.05802e-06
9.09393e-06
1.83352e-05
1.83433e-05
4.06005e-06
9.0894e-06
4.05818e-06
9.09501e-06
2.49879e-07
2.4994e-07
2.49976e-07
2.60104e-07
2.60121e-07
2.60182e-07
2.60218e-07
2.03437e-06
3.41627e-06
4.4639e-07
7.45295e-07
2.02875e-06
3.41998e-06
4.5225e-07
1.83362e-05
1.83443e-05
2.03445e-06
4.46538e-07
3.41574e-06
7.45424e-07
2.02879e-06
4.52348e-07
3.42019e-06
5.41763e-06
5.41913e-06
1.04751e-06
5.42002e-06
5.42198e-06
4.06745e-06
9.10185e-06
4.06509e-06
9.10819e-06
1.83513e-05
1.836e-05
4.06724e-06
9.10336e-06
4.06527e-06
9.10948e-06
2.63609e-07
2.63672e-07
2.63709e-07
2.74277e-07
2.74297e-07
2.7436e-07
2.74397e-07
2.05174e-06
3.42935e-06
4.69758e-07
7.72887e-07
2.04634e-06
3.43305e-06
4.75682e-07
1.83525e-05
1.83611e-05
2.05181e-06
4.69909e-07
3.429e-06
7.73015e-07
2.04636e-06
4.7578e-07
3.43318e-06
5.42698e-06
5.42846e-06
1.07159e-06
5.42956e-06
5.43131e-06
4.07486e-06
9.11667e-06
4.07237e-06
9.12278e-06
1.8369e-05
1.83781e-05
4.07469e-06
9.11775e-06
4.07266e-06
9.12431e-06
2.77927e-07
2.77992e-07
2.7803e-07
2.88997e-07
2.89018e-07
2.89084e-07
2.89122e-07
2.06842e-06
3.44185e-06
4.93345e-07
7.9972e-07
2.06325e-06
3.44556e-06
4.99304e-07
1.83702e-05
1.83793e-05
2.06851e-06
4.93495e-07
3.44172e-06
7.9985e-07
2.06327e-06
4.99403e-07
3.44558e-06
5.43639e-06
5.43781e-06
1.09459e-06
5.43876e-06
5.44066e-06
4.08244e-06
9.1318e-06
4.08001e-06
9.13806e-06
1.83879e-05
1.83976e-05
4.08236e-06
9.13284e-06
4.08034e-06
9.13959e-06
2.92775e-07
2.92843e-07
2.92882e-07
3.04199e-07
3.04222e-07
3.04292e-07
3.04331e-07
2.08439e-06
3.45394e-06
5.17035e-07
8.25717e-07
2.07945e-06
3.45775e-06
5.23003e-07
1.83892e-05
1.83989e-05
2.0845e-06
5.17187e-07
3.45427e-06
8.25844e-07
2.07945e-06
5.23105e-07
3.4575e-06
5.44569e-06
5.44735e-06
1.1165e-06
5.448e-06
5.45009e-06
4.0899e-06
9.14705e-06
4.08779e-06
9.15399e-06
1.84081e-05
1.84183e-05
4.09019e-06
9.1486e-06
4.08777e-06
9.15506e-06
3.08089e-07
3.08161e-07
3.08201e-07
2.09968e-06
3.46585e-06
5.40715e-07
8.50819e-07
2.09494e-06
3.46926e-06
5.46668e-07
1.84094e-05
1.84195e-05
2.09978e-06
5.40871e-07
3.46614e-06
8.50941e-07
2.09497e-06
5.46768e-07
3.46905e-06
5.45506e-06
5.45652e-06
1.13841e-06
5.45751e-06
5.45942e-06
1.84378e-05
1.84305e-05
1.84406e-05
1.84334e-05
5.17143e-06
5.17332e-06
3.90556e-07
5.17843e-06
5.18099e-06
1.84173e-05
1.84242e-05
1.84201e-05
1.8427e-05
3.97808e-07
5.19277e-06
5.19484e-06
5.18585e-06
5.18716e-06
3.75829e-06
8.92085e-06
8.92572e-06
3.73563e-06
1.24175e-06
2.86945e-06
1.59605e-07
2.43813e-07
2.88871e-06
1.60145e-07
1.21428e-06
1.24181e-06
2.86994e-06
1.59605e-07
2.43843e-07
2.88928e-06
1.60141e-07
1.21434e-06
3.76984e-06
8.93003e-06
8.92609e-06
3.79074e-06
3.77028e-06
8.93041e-06
8.92602e-06
3.78999e-06
1.25578e-06
2.46916e-07
2.91942e-06
1.61475e-07
2.90122e-06
1.60768e-07
1.28264e-06
1.25568e-06
2.46939e-07
2.91995e-06
1.6147e-07
2.90174e-06
1.60768e-07
1.28251e-06
5.17289e-06
5.17023e-06
3.90665e-07
5.18109e-06
5.17973e-06
1.84383e-05
1.84312e-05
1.84199e-05
1.84267e-05
3.97717e-07
5.19442e-06
5.19379e-06
5.18706e-06
5.18509e-06
1.84179e-05
1.84247e-05
1.24183e-06
2.87e-06
1.59607e-07
2.43766e-07
2.88924e-06
1.60144e-07
1.21432e-06
3.75896e-06
8.9216e-06
8.92649e-06
3.73507e-06
1.24201e-06
1.59599e-07
2.86852e-06
2.43839e-07
1.60137e-07
2.89065e-06
1.21429e-06
3.77e-06
8.93135e-06
8.92743e-06
3.79073e-06
1.25571e-06
2.46868e-07
2.91993e-06
1.61472e-07
2.9018e-06
1.60769e-07
1.2826e-06
3.76977e-06
8.93133e-06
8.92675e-06
3.79075e-06
1.25551e-06
2.46936e-07
1.61469e-07
2.92121e-06
1.60764e-07
2.90061e-06
1.28279e-06
3.7591e-06
8.9211e-06
8.92598e-06
3.73514e-06
1.24166e-06
1.59599e-07
2.86961e-06
2.43808e-07
1.60136e-07
2.88885e-06
1.21423e-06
3.75824e-06
8.92109e-06
8.92597e-06
3.73566e-06
1.25551e-06
2.46825e-07
2.92069e-06
1.61457e-07
2.90007e-06
1.60734e-07
1.28311e-06
3.76982e-06
8.9308e-06
8.92624e-06
3.79085e-06
1.25579e-06
2.46903e-07
1.61465e-07
2.91957e-06
1.60762e-07
2.90139e-06
1.28256e-06
3.77038e-06
8.93083e-06
8.92623e-06
3.78999e-06
5.17143e-06
5.17018e-06
3.91135e-07
5.1817e-06
5.1801e-06
1.84386e-05
1.84314e-05
1.84208e-05
1.84276e-05
3.97887e-07
5.19539e-06
5.1942e-06
5.18647e-06
5.1849e-06
1.84181e-05
1.84249e-05
1.24206e-06
1.59621e-07
2.86859e-06
2.43807e-07
1.60153e-07
2.89068e-06
1.21425e-06
3.75907e-06
8.92138e-06
8.92622e-06
3.73532e-06
3.75898e-06
8.92174e-06
8.92663e-06
3.73528e-06
1.25584e-06
2.46856e-07
1.61472e-07
2.91952e-06
1.60773e-07
2.90132e-06
1.28281e-06
1.25572e-06
2.46902e-07
1.61483e-07
2.92126e-06
1.60786e-07
2.90067e-06
1.28264e-06
3.76999e-06
8.93102e-06
8.92647e-06
3.79085e-06
3.76998e-06
8.93147e-06
8.9269e-06
3.79079e-06
1.84395e-05
1.84323e-05
1.84416e-05
1.84344e-05
3.97766e-07
5.19297e-06
5.19539e-06
5.18531e-06
5.18676e-06
1.8419e-05
1.84258e-05
1.84211e-05
1.84279e-05
1.84111e-05
1.84046e-05
1.84139e-05
1.84074e-05
5.1995e-06
5.20127e-06
4.20399e-07
5.20556e-06
5.20717e-06
1.83925e-05
1.83986e-05
1.83953e-05
1.84014e-05
4.2794e-07
5.21771e-06
5.21921e-06
5.21167e-06
5.21353e-06
3.818e-06
8.93112e-06
3.80084e-06
8.93481e-06
1.32242e-06
2.93114e-06
1.62263e-07
2.56986e-07
1.29636e-06
2.9479e-06
1.63141e-07
1.32246e-06
2.93164e-06
1.62264e-07
2.57008e-07
1.29635e-06
2.94843e-06
1.63135e-07
3.82704e-06
8.93875e-06
8.93534e-06
3.84229e-06
3.82758e-06
8.93905e-06
8.93562e-06
3.8424e-06
1.33581e-06
2.60597e-07
2.97498e-06
1.6514e-07
2.9592e-06
1.64098e-07
1.36103e-06
1.33569e-06
2.60615e-07
2.97677e-06
1.65138e-07
2.95927e-06
1.64098e-07
1.36108e-06
5.20102e-06
5.19907e-06
4.20606e-07
5.20746e-06
5.20641e-06
1.84116e-05
1.84052e-05
1.83952e-05
1.84013e-05
4.28087e-07
5.2195e-06
5.21828e-06
5.21302e-06
5.21088e-06
1.83932e-05
1.83992e-05
1.32243e-06
2.93168e-06
1.62267e-07
2.56933e-07
1.29628e-06
2.94843e-06
1.63138e-07
3.81884e-06
8.93155e-06
3.80038e-06
8.9359e-06
1.32262e-06
1.62263e-07
2.93052e-06
2.57013e-07
1.2961e-06
1.63136e-07
2.94981e-06
3.8272e-06
8.94009e-06
8.93668e-06
3.84331e-06
1.33579e-06
2.60543e-07
2.97549e-06
1.65142e-07
2.95972e-06
1.64101e-07
1.3611e-06
3.82723e-06
8.94009e-06
8.93604e-06
3.84253e-06
1.33561e-06
2.6062e-07
1.65144e-07
2.97681e-06
1.64099e-07
2.95867e-06
1.36132e-06
3.81884e-06
8.931e-06
3.80043e-06
8.93535e-06
1.3225e-06
1.62258e-07
2.93132e-06
2.56976e-07
1.29631e-06
1.6313e-07
2.94811e-06
3.81863e-06
8.93104e-06
3.80093e-06
8.9354e-06
1.33559e-06
2.60491e-07
2.97622e-06
1.65121e-07
2.9581e-06
1.64058e-07
1.36069e-06
3.82723e-06
8.93951e-06
8.9355e-06
3.84247e-06
1.33573e-06
2.60585e-07
1.65133e-07
2.97521e-06
1.64092e-07
2.95937e-06
1.36134e-06
3.82726e-06
8.9396e-06
8.93552e-06
3.84252e-06
5.19986e-06
5.19875e-06
4.20381e-07
5.2082e-06
5.20678e-06
1.84119e-05
1.84054e-05
1.8396e-05
1.84021e-05
4.27921e-07
5.21989e-06
5.21831e-06
5.21254e-06
5.21114e-06
1.83933e-05
1.83994e-05
1.32246e-06
1.62284e-07
2.93056e-06
2.56976e-07
1.29641e-06
1.6315e-07
2.94986e-06
3.8189e-06
8.93123e-06
3.80055e-06
8.93554e-06
3.81887e-06
8.93169e-06
3.80055e-06
8.93603e-06
1.33589e-06
2.60528e-07
1.65138e-07
2.97509e-06
1.64102e-07
2.95929e-06
1.36081e-06
1.33592e-06
2.60583e-07
1.65155e-07
2.97686e-06
1.64119e-07
2.95872e-06
1.3611e-06
3.82719e-06
8.93972e-06
8.93569e-06
3.8433e-06
3.8272e-06
8.94012e-06
8.93622e-06
3.84327e-06
1.84128e-05
1.84063e-05
1.84149e-05
1.84084e-05
4.28606e-07
5.21818e-06
5.21979e-06
5.21127e-06
5.21271e-06
1.83942e-05
1.84003e-05
1.83963e-05
1.84024e-05
1.83867e-05
1.8381e-05
1.83895e-05
1.83838e-05
5.22288e-06
5.22481e-06
4.5222e-07
5.22791e-06
5.23043e-06
1.83701e-05
1.83754e-05
1.8373e-05
1.83783e-05
4.6068e-07
5.23872e-06
5.24042e-06
5.23328e-06
5.23497e-06
3.86385e-06
8.93977e-06
3.85099e-06
8.94305e-06
1.39845e-06
2.98554e-06
1.66268e-07
2.72171e-07
1.37416e-06
3.0001e-06
1.67483e-07
1.39844e-06
2.98491e-06
1.66268e-07
2.72188e-07
1.37403e-06
3.00186e-06
1.67479e-07
3.87141e-06
8.94646e-06
8.94343e-06
3.88238e-06
3.87138e-06
8.94677e-06
8.94375e-06
3.88238e-06
1.41102e-06
2.76281e-07
3.02396e-06
1.70166e-07
3.01022e-06
1.68782e-07
1.43449e-06
1.41092e-06
2.76293e-07
3.02565e-06
1.70162e-07
3.00966e-06
1.68781e-07
1.43443e-06
5.22425e-06
5.2227e-06
4.52243e-07
5.2299e-06
5.22881e-06
1.83873e-05
1.83817e-05
1.8373e-05
1.83783e-05
4.60592e-07
5.24008e-06
5.23879e-06
5.23479e-06
5.23282e-06
1.83707e-05
1.8376e-05
1.39855e-06
2.98608e-06
1.66273e-07
2.72113e-07
1.37409e-06
3.00064e-06
1.67486e-07
3.86396e-06
8.94019e-06
3.8511e-06
8.94406e-06
1.39865e-06
1.66271e-07
2.98497e-06
2.72207e-07
1.37385e-06
1.67488e-07
3.00194e-06
3.87098e-06
8.94773e-06
8.94474e-06
3.88328e-06
1.41096e-06
2.76218e-07
3.02451e-06
1.70171e-07
3.01076e-06
1.68788e-07
1.4344e-06
3.8715e-06
8.94753e-06
8.94409e-06
3.88254e-06
1.41083e-06
2.76311e-07
1.70175e-07
3.02572e-06
1.68789e-07
3.00974e-06
1.43444e-06
3.86391e-06
8.93964e-06
3.85112e-06
8.94345e-06
1.39876e-06
1.66262e-07
2.98571e-06
2.72162e-07
1.37393e-06
1.67474e-07
3.0003e-06
3.86391e-06
8.93969e-06
3.85097e-06
8.94355e-06
1.41117e-06
2.76156e-07
3.02514e-06
1.70143e-07
3.00918e-06
1.68737e-07
1.43427e-06
3.87167e-06
8.94701e-06
8.94355e-06
3.88248e-06
1.41081e-06
2.76269e-07
1.70157e-07
3.02416e-06
1.68776e-07
3.01039e-06
1.43467e-06
3.87151e-06
8.94714e-06
8.94359e-06
3.88247e-06
5.22392e-06
5.22227e-06
4.52281e-07
5.23045e-06
5.22907e-06
1.83875e-05
1.83818e-05
1.83735e-05
1.83789e-05
4.60741e-07
5.24025e-06
5.23899e-06
5.23446e-06
5.23301e-06
1.83708e-05
1.83762e-05
1.39848e-06
1.66291e-07
2.985e-06
2.7216e-07
1.37424e-06
1.67497e-07
3.00198e-06
3.86467e-06
8.93983e-06
3.8506e-06
8.94367e-06
3.86467e-06
8.94059e-06
3.85064e-06
8.9439e-06
1.4113e-06
2.76201e-07
1.70161e-07
3.02402e-06
1.68785e-07
3.01029e-06
1.43441e-06
1.4111e-06
2.7626e-07
1.70182e-07
3.02576e-06
1.68806e-07
3.00978e-06
1.43447e-06
3.87093e-06
8.94727e-06
8.94373e-06
3.88321e-06
3.87096e-06
8.94755e-06
8.94455e-06
3.88321e-06
1.83884e-05
1.83827e-05
1.83905e-05
1.83848e-05
4.60822e-07
5.23875e-06
5.24042e-06
5.23322e-06
5.23452e-06
1.83718e-05
1.83771e-05
1.83739e-05
1.83792e-05
1.83647e-05
1.83597e-05
1.83676e-05
1.83626e-05
5.24267e-06
5.24449e-06
4.8639e-07
5.24732e-06
5.24916e-06
1.83499e-05
1.83545e-05
1.83528e-05
1.83574e-05
4.95163e-07
5.2559e-06
5.25768e-06
5.25159e-06
5.25343e-06
3.89868e-06
8.94736e-06
3.88916e-06
8.95031e-06
1.4686e-06
3.03343e-06
1.71634e-07
2.89306e-07
1.44656e-06
3.04607e-06
1.73191e-07
1.469e-06
3.03283e-06
1.71633e-07
2.8932e-07
1.44646e-06
3.04778e-06
1.73185e-07
3.90465e-06
8.953e-06
8.95028e-06
3.91267e-06
3.90463e-06
8.95362e-06
8.95075e-06
3.91273e-06
1.48066e-06
2.93888e-07
3.06715e-06
1.7656e-07
3.05516e-06
1.74832e-07
1.50166e-06
1.48035e-06
2.93899e-07
3.0688e-06
1.76553e-07
3.05468e-06
1.74829e-07
1.50193e-06
5.24434e-06
5.2427e-06
4.86312e-07
5.24873e-06
5.24782e-06
1.83652e-05
1.83603e-05
1.83529e-05
1.83575e-05
4.9508e-07
5.25755e-06
5.25623e-06
5.25318e-06
5.2515e-06
1.83504e-05
1.83549e-05
1.46897e-06
3.03395e-06
1.71643e-07
2.89242e-07
1.44661e-06
3.04663e-06
1.73197e-07
3.89881e-06
8.94762e-06
3.88927e-06
8.95109e-06
1.46892e-06
1.71644e-07
3.03291e-06
2.89348e-07
1.44646e-06
1.73202e-07
3.04787e-06
3.9042e-06
8.95443e-06
8.95169e-06
3.91354e-06
1.48054e-06
2.9382e-07
3.06767e-06
1.76567e-07
3.0557e-06
1.74841e-07
1.5019e-06
3.90474e-06
8.95419e-06
8.95107e-06
3.91285e-06
1.48052e-06
2.93925e-07
1.76573e-07
3.06887e-06
1.74845e-07
3.05474e-06
1.50193e-06
3.89875e-06
8.94716e-06
3.88944e-06
8.9504e-06
1.46928e-06
1.71628e-07
3.03361e-06
2.89298e-07
1.44637e-06
1.73181e-07
3.04628e-06
3.89874e-06
8.94723e-06
3.88927e-06
8.95058e-06
1.48069e-06
2.9375e-07
3.06832e-06
1.76533e-07
3.05421e-06
1.74781e-07
1.50168e-06
3.9049e-06
8.95352e-06
8.95055e-06
3.91276e-06
1.48032e-06
2.93875e-07
1.76551e-07
3.06735e-06
1.74825e-07
3.05536e-06
1.5022e-06
3.90473e-06
8.95371e-06
8.95062e-06
3.91276e-06
5.24402e-06
5.24249e-06
4.86422e-07
5.24929e-06
5.24792e-06
1.83654e-05
1.83605e-05
1.83533e-05
1.83579e-05
4.9527e-07
5.25792e-06
5.25632e-06
5.25262e-06
5.25139e-06
1.83507e-05
1.83552e-05
1.46897e-06
1.7166e-07
3.03293e-06
2.89292e-07
1.44663e-06
1.73206e-07
3.04788e-06
3.89945e-06
8.9474e-06
3.88873e-06
8.95063e-06
3.89946e-06
8.94814e-06
3.88876e-06
8.95102e-06
1.48083e-06
2.938e-07
1.76551e-07
3.06721e-06
1.74834e-07
3.05523e-06
1.50169e-06
1.48055e-06
2.9386e-07
1.76576e-07
3.06887e-06
1.74858e-07
3.05476e-06
1.5019e-06
3.90418e-06
8.95378e-06
8.95081e-06
3.91348e-06
3.9042e-06
8.95421e-06
8.95158e-06
3.9135e-06
1.83664e-05
1.83615e-05
1.83685e-05
1.83635e-05
4.95077e-07
5.25621e-06
5.25791e-06
5.25162e-06
5.25279e-06
1.83517e-05
1.83562e-05
1.83537e-05
1.83583e-05
1.83449e-05
1.83407e-05
1.83477e-05
1.83436e-05
5.25972e-06
5.26156e-06
5.21993e-07
5.26372e-06
5.26555e-06
1.8332e-05
1.83358e-05
1.83348e-05
1.83386e-05
5.30952e-07
5.27105e-06
5.27285e-06
5.26726e-06
5.26903e-06
3.92512e-06