/*--------------------------------*- C++ -*----------------------------------*\
| =========                 |                                                 |
| \\      /  F ield         | OpenFOAM: The Open Source CFD Toolbox           |
|  \\    /   O peration     | Version:  2312                                  |
|   \\  /    A nd           | Website:  www.openfoam.com                      |
|    \\/     M anipulation  |                                                 |
\*---------------------------------------------------------------------------*/
FoamFile
{
    version     2.0;
    format      ascii;
    arch        "LSB;label=32;scalar=64";
    class       volScalarField;
    location    "450";
    object      nut;
}
// * * * * * * * * * * * * * * * * * * * * * * * * * * * * * * * * * * * * * //

dimensions      [0 2 -1 0 0 0 0];

internalField   nonuniform List<scalar> 
42840
(
0.00014595
9.86053e-05
9.86063e-05
8.18399e-05
0.00014192
9.62716e-05
9.62683e-05
8.18532e-05
0.000137978
9.44566e-05
9.44541e-05
8.24564e-05
0.000134141
9.31592e-05
9.31573e-05
8.33841e-05
0.000130461
9.23699e-05
9.23672e-05
8.48786e-05
0.000126967
9.20644e-05
9.20643e-05
8.65728e-05
0.000123694
9.22155e-05
9.22194e-05
8.86645e-05
0.000120688
9.27944e-05
9.27996e-05
9.08755e-05
0.00011795
9.37673e-05
9.37711e-05
9.32604e-05
0.000115534
9.50931e-05
9.50992e-05
9.56259e-05
0.000113455
9.67403e-05
9.67452e-05
9.80351e-05
0.000111726
9.86659e-05
9.86759e-05
0.000100611
0.000110359
0.000100839
0.000100849
0.000102934
0.000109358
0.000103225
0.000103237
0.000105631
0.000108724
0.000105795
0.000105805
0.000108236
0.000108454
0.000108517
0.000108525
0.000110905
0.000108541
0.000111361
0.00011137
0.00011361
0.000108976
0.000114305
0.000114316
0.000116273
0.000109745
0.000117333
0.000117343
0.00011896
0.000110833
0.00012043
0.000120437
0.000121646
0.000112225
0.000123573
0.00012358
0.000124269
0.000113904
0.000126746
0.000126752
0.000126902
0.000115849
0.000129933
0.00012994
0.000129484
0.00011804
0.00013312
0.000133127
0.000132061
0.000120455
0.000136295
0.000136303
0.000134635
8.17483e-05
8.2179e-05
9.85803e-05
9.85686e-05
9.67802e-05
9.6769e-05
8.16741e-05
8.21565e-05
9.86014e-05
9.85704e-05
9.68018e-05
9.67667e-05
9.85826e-05
9.68024e-05
9.67806e-05
8.1766e-05
8.21826e-05
9.85946e-05
9.68036e-05
9.67948e-05
8.20417e-05
8.18233e-05
8.26775e-05
9.62443e-05
9.62375e-05
9.4838e-05
9.48281e-05
8.18535e-05
8.26759e-05
9.62667e-05
9.62368e-05
9.48595e-05
9.48233e-05
9.62495e-05
9.48591e-05
9.48406e-05
8.18289e-05
8.25836e-05
9.62611e-05
9.48576e-05
9.48517e-05
8.24583e-05
8.23795e-05
8.36009e-05
9.44324e-05
9.44261e-05
9.34162e-05
9.34071e-05
8.23755e-05
8.35705e-05
9.44539e-05
9.44243e-05
9.34372e-05
9.34027e-05
9.44367e-05
9.34342e-05
9.34194e-05
8.23779e-05
8.35906e-05
9.44487e-05
9.34346e-05
9.3428e-05
8.33902e-05
8.33399e-05
8.48232e-05
9.31378e-05
9.31319e-05
9.2501e-05
9.2493e-05
8.33567e-05
8.48355e-05
9.31585e-05
9.31307e-05
9.25209e-05
9.24898e-05
9.31446e-05
9.25187e-05
9.25083e-05
8.33305e-05
8.48685e-05
9.3156e-05
9.25194e-05
9.25169e-05
8.46097e-05
8.47372e-05
8.65379e-05
9.23499e-05
9.23447e-05
9.20803e-05
9.20722e-05
8.4745e-05
8.62667e-05
9.23691e-05
9.23428e-05
9.20984e-05
9.20698e-05
9.23595e-05
9.20953e-05
9.20875e-05
8.47132e-05
8.64347e-05
9.23691e-05
9.2096e-05
9.20942e-05
8.62558e-05
8.64137e-05
8.84306e-05
9.20479e-05
9.20419e-05
9.21264e-05
9.21154e-05
8.65466e-05
8.82932e-05
9.2065e-05
9.20427e-05
9.21418e-05
9.21153e-05
9.20585e-05
9.21358e-05
9.21337e-05
8.6452e-05
8.84259e-05
9.20662e-05
9.21396e-05
9.21388e-05
8.79837e-05
8.84056e-05
9.04899e-05
9.22042e-05
9.21959e-05
9.26019e-05
9.25924e-05
8.83393e-05
9.04997e-05
9.22187e-05
9.21999e-05
9.26155e-05
9.25949e-05
9.2216e-05
9.26095e-05
9.26134e-05
8.83986e-05
9.02202e-05
9.22222e-05
9.26176e-05
9.26166e-05
9.01762e-05
9.05332e-05
9.28093e-05
9.27843e-05
9.27765e-05
9.34803e-05
9.34715e-05
9.05526e-05
9.28441e-05
9.27971e-05
9.27821e-05
9.34931e-05
9.3476e-05
9.27992e-05
9.34883e-05
9.34928e-05
9.07034e-05
9.26491e-05
9.28029e-05
9.34958e-05
9.34951e-05
9.24573e-05
9.29485e-05
9.52119e-05
9.37585e-05
9.37515e-05
9.47246e-05
9.47174e-05
9.29304e-05
9.51867e-05
9.37704e-05
9.37561e-05
9.4734e-05
9.47197e-05
9.37737e-05
9.47313e-05
9.47382e-05
9.29304e-05
9.51263e-05
9.37759e-05
9.47367e-05
9.47397e-05
9.49023e-05
9.5317e-05
9.72736e-05
9.50871e-05
9.50814e-05
9.6294e-05
9.62883e-05
9.53654e-05
9.76726e-05
9.50959e-05
9.50862e-05
9.63022e-05
9.62925e-05
9.51042e-05
9.63007e-05
9.63089e-05
9.53616e-05
9.77307e-05
9.51053e-05
9.63075e-05
9.6311e-05
9.73857e-05
9.80284e-05
9.98245e-05
9.67343e-05
9.673e-05
9.8154e-05
9.81486e-05
9.78559e-05
0.000100303
9.67423e-05
9.6736e-05
9.81627e-05
9.81561e-05
9.6751e-05
9.81607e-05
9.81697e-05
9.78353e-05
9.99879e-05
9.67505e-05
9.81712e-05
9.81685e-05
0.000100222
0.000100607
0.000102419
9.86603e-05
9.86571e-05
0.000100271
0.000100263
0.000100318
0.000102678
9.86687e-05
9.86655e-05
0.000100278
0.000100273
9.86794e-05
0.000100275
0.000100287
0.000100685
0.000102471
9.86769e-05
0.000100286
0.000100284
0.000102878
0.00010322
0.000105031
0.000100835
0.000100831
0.000102605
0.000102602
0.00010311
0.00010535
0.000100842
0.000100841
0.000102611
0.000102611
0.000100855
0.000102611
0.000102624
0.000103357
0.000105166
0.00010085
0.000102622
0.00010262
0.000105523
0.000105856
0.000107695
0.000103218
0.00010322
0.000105128
0.000105131
0.00010575
0.00010801
0.000103225
0.000103229
0.000105134
0.000105139
0.00010324
0.000105138
0.000105152
0.0001059
0.000107825
0.000103235
0.000105148
0.000105146
0.000108172
0.000108503
0.000110385
0.000105784
0.000105792
0.000107811
0.000107818
0.000108438
0.000110687
0.000105791
0.000105798
0.000107818
0.000107823
0.000105811
0.000107825
0.000107838
0.000108532
0.000110424
0.000105806
0.000107833
0.000107832
0.0001108
0.00011126
0.000113065
0.000108503
0.000108513
0.000110626
0.000110632
0.000111104
0.000113336
0.000108511
0.000108518
0.000110633
0.000110638
0.000108533
0.00011064
0.000110658
0.000111307
0.000113365
0.000108528
0.00011065
0.000110652
0.00011355
0.000113939
0.000115808
0.000111348
0.000111358
0.000113549
0.000113554
0.000113775
0.000116159
0.000111355
0.000111361
0.000113556
0.000113561
0.000111381
0.000113562
0.000113583
0.000113737
0.000116023
0.000111375
0.000113574
0.000113577
0.000116213
0.000116554
0.000118471
0.000114294
0.0001143
0.000116557
0.000116562
0.000116335
0.000118811
0.000114301
0.000114306
0.000116563
0.000116567
0.000114329
0.00011657
0.00011659
0.000116371
0.000118756
0.000114322
0.000116582
0.000116584
0.000118878
0.000119261
0.000121212
0.000117322
0.000117327
0.000119638
0.000119643
0.000119156
0.00012133
0.000117328
0.000117331
0.000119643
0.000119644
0.000117355
0.000119652
0.00011967
0.000119001
0.000121511
0.000117348
0.00011966
0.000119665
0.000121518
0.000121883
0.000123775
0.000120418
0.000120423
0.000122772
0.000122775
0.00012178
0.000123838
0.000120423
0.000120424
0.000122776
0.000122777
0.000120451
0.000122784
0.000122803
0.000121639
0.000124137
0.000120444
0.000122792
0.000122799
0.000124184
0.000124586
0.000126521
0.000123564
0.000123565
0.000125941
0.000125941
0.000124556
0.000126523
0.000123566
0.000123566
0.000125943
0.000125943
0.000123593
0.000125951
0.000125969
0.000124228
0.000126758
0.000123589
0.00012596
0.000125965
0.000126766
0.000127136
0.000129123
0.000126738
0.000126738
0.000129126
0.000129127
0.000127144
0.000129094
0.000126739
0.000126739
0.000129128
0.000129128
0.000126764
0.000129136
0.000129154
0.000126866
0.000129348
0.000126759
0.000129144
0.00012915
0.000129391
0.000129658
0.00013173
0.000129925
0.000129925
0.000132316
0.000132313
0.000129729
0.000131669
0.000129925
0.000129926
0.000132316
0.000132316
0.000129951
0.000132324
0.000132341
0.000129503
0.000131936
0.000129946
0.000132332
0.000132337
0.000131936
0.000132222
0.000134188
0.000133113
0.00013311
0.000135496
0.000135491
0.000132292
0.000134207
0.000133113
0.000133112
0.000135495
0.000135493
0.000133137
0.000135502
0.000135519
0.000132097
0.000134349
0.000133133
0.00013551
0.000135516
0.000134388
0.000134815
0.000136289
0.000136284
0.000134779
0.000136288
0.000136287
0.000136312
0.000134661
0.000136308
7.20274e-05
4.95776e-05
4.9589e-05
7.12202e-05
2.3616e-05
2.36129e-05
7.203e-05
4.9571e-05
4.95841e-05
7.12142e-05
0.000145945
0.000145943
0.00014594
0.00014291
0.000142905
0.000142902
0.000142899
6.9886e-05
6.76557e-05
0.000122027
9.79708e-05
6.82249e-05
0.000121043
6.89573e-05
2.36154e-05
2.36122e-05
6.99252e-05
0.000122005
6.76221e-05
9.79723e-05
0.000121038
6.82635e-05
6.89408e-05
6.20415e-05
6.20631e-05
8.19746e-05
6.23664e-05
6.2357e-05
7.37727e-05
4.95948e-05
7.30643e-05
4.96066e-05
2.36046e-05
2.36019e-05
7.37738e-05
4.95894e-05
7.30584e-05
4.96014e-05
0.000141916
0.000141913
0.000141911
0.000138939
0.000138935
0.00013893
0.000138928
7.28773e-05
6.94506e-05
0.000118299
9.57668e-05
7.19347e-05
7.00053e-05
0.000117379
2.36039e-05
2.36011e-05
7.29187e-05
0.000118274
6.94193e-05
9.57646e-05
7.19148e-05
0.000117373
7.00263e-05
6.29167e-05
6.2929e-05
8.22126e-05
6.32079e-05
6.3207e-05
7.53204e-05
4.96107e-05
7.46672e-05
4.96216e-05
2.35942e-05
2.35918e-05
7.53081e-05
4.96054e-05
7.46723e-05
4.96164e-05
0.000137974
0.00013797
0.00013797
0.000135086
0.000135083
0.000135077
0.000135078
7.58858e-05
7.11392e-05
0.000114864
9.40844e-05
7.48941e-05
7.16675e-05
0.000114045
2.35935e-05
2.3591e-05
7.59107e-05
0.000114842
7.11158e-05
9.40815e-05
7.48917e-05
0.000114042
7.16946e-05
6.37256e-05
6.37343e-05
8.28833e-05
6.40002e-05
6.39876e-05
7.66807e-05
4.96266e-05
7.6089e-05
4.96332e-05
2.35849e-05
2.35828e-05
7.66681e-05
4.96196e-05
7.60959e-05
4.96286e-05
0.000134138
0.000134132
0.000134132
0.000131367
0.000131366
0.000131359
0.00013136
7.88054e-05
7.27362e-05
0.000111746
9.29157e-05
7.78349e-05
7.32359e-05
0.000111012
2.35841e-05
2.35819e-05
7.88185e-05
0.000111727
7.27143e-05
9.29143e-05
7.7832e-05
0.000111008
7.32682e-05
6.44681e-05
6.4468e-05
8.39738e-05
6.47213e-05
6.47091e-05
7.79005e-05
4.96376e-05
7.73596e-05
4.96445e-05
2.35765e-05
2.35747e-05
7.78865e-05
4.96338e-05
7.73665e-05
4.96401e-05
0.000130459
0.000130452
0.000130454
0.000127824
0.000127823
0.000127816
0.000127818
8.16257e-05
7.42423e-05
0.000109009
9.22492e-05
8.06899e-05
7.47115e-05
0.000108372
2.35755e-05
2.35737e-05
8.16488e-05
0.000108992
7.42139e-05
9.22486e-05
8.06828e-05
0.00010837
7.47457e-05
6.51541e-05
6.51534e-05
8.54225e-05
6.53854e-05
6.53781e-05
7.90041e-05
4.96485e-05
7.8508e-05
4.96559e-05
2.35689e-05
2.35674e-05
7.89887e-05
4.96437e-05
7.85153e-05
4.965e-05
0.000126965
0.000126958
0.00012696
0.000124493
0.000124492
0.000124486
0.000124489
8.43389e-05
7.56597e-05
0.000106676
9.20601e-05
8.34498e-05
7.61052e-05
0.000106143
2.3568e-05
2.35665e-05
8.43497e-05
0.00010666
7.5635e-05
9.2062e-05
8.34552e-05
0.000106143
7.61356e-05
6.57904e-05
6.57912e-05
8.70467e-05
6.60064e-05
6.60008e-05
8.00133e-05
4.96591e-05
7.95591e-05
4.96655e-05
2.35623e-05
2.35611e-05
8.00022e-05
4.96537e-05
7.95655e-05
4.96604e-05
0.000123691
0.000123686
0.000123689
0.00012142
0.000121418
0.000121414
0.000121417
8.69428e-05
7.70004e-05
0.000104769
9.23216e-05
8.60813e-05
7.74165e-05
0.000104346
2.35613e-05
2.35602e-05
8.69435e-05
0.000104756
7.69767e-05
9.23262e-05
8.60783e-05
0.000104347
7.745e-05
6.63871e-05
6.6387e-05
8.91142e-05
6.65868e-05
6.65831e-05
8.09466e-05
4.96703e-05
8.05332e-05
4.96742e-05
2.35565e-05
2.35557e-05
8.09392e-05
4.96634e-05
8.0533e-05
4.96706e-05
0.000120684
0.00012068
0.000120682
0.000118604
0.0001186
0.000118598
0.0001186
8.94178e-05
7.82668e-05
0.000103309
9.30025e-05
8.86091e-05
7.86648e-05
0.000102999
2.35556e-05
2.35549e-05
8.94305e-05
0.000103296
7.82471e-05
9.30089e-05
8.86138e-05
0.000103001
7.86943e-05
6.69483e-05
6.69462e-05
9.13299e-05
6.7135e-05
6.71318e-05
8.18201e-05
4.96812e-05
8.14357e-05
4.96838e-05
2.35518e-05
2.35514e-05
8.1813e-05
4.96735e-05
8.14348e-05
4.96811e-05
0.000117946
0.000117944
0.000117947
0.000116108
0.000116104
0.000116103
0.000116105
9.18342e-05
7.94736e-05
0.000102297
9.40673e-05
9.09992e-05
7.98468e-05
0.0001021
2.35509e-05
2.35505e-05
9.18346e-05
0.000102288
7.94534e-05
9.4073e-05
9.10056e-05
0.000102102
7.98778e-05
6.74762e-05
6.74737e-05
9.37529e-05
6.76532e-05
6.76501e-05
8.26364e-05
4.96923e-05
8.22773e-05
4.96943e-05
2.35481e-05
2.3548e-05
8.26313e-05
4.96838e-05
8.22769e-05
4.96921e-05
0.00011553
0.000115529
0.000115532
0.000113943
0.000113939
0.000113938
0.000113941
9.41359e-05
8.06155e-05
0.000101727
9.54772e-05
9.3295e-05
8.09728e-05
0.000101637
2.35473e-05
2.35472e-05
9.41341e-05
0.00010172
8.0598e-05
9.54844e-05
9.33016e-05
0.000101643
8.1006e-05
6.79768e-05
6.7974e-05
9.61103e-05
6.81447e-05
6.81418e-05
8.34084e-05
4.97039e-05
8.30709e-05
4.97059e-05
2.35454e-05
2.35457e-05
8.34033e-05
4.9695e-05
8.30701e-05
4.97039e-05
0.000113451
0.00011345
0.000113454
0.000112125
0.000112121
0.000112121
0.000112124
9.63351e-05
8.17082e-05
0.000101588
9.71987e-05
9.54968e-05
8.20573e-05
0.000101607
2.35446e-05
2.35449e-05
9.63426e-05
0.000101583
8.1688e-05
9.7205e-05
9.54977e-05
0.00010161
8.20808e-05
6.84525e-05
6.84499e-05
9.88246e-05
6.86147e-05
6.86106e-05
8.41398e-05
4.97163e-05
8.38217e-05
4.97187e-05
2.35437e-05
2.35444e-05
8.41376e-05
4.97077e-05
8.38189e-05
4.97147e-05
0.000111722
0.000111723
0.000111726
0.000110666
0.000110663
0.000110664
0.000110668
9.84542e-05
8.27489e-05
0.000101863
9.91894e-05
9.76122e-05
8.30929e-05
0.00010198
2.3543e-05
2.35436e-05
9.84612e-05
0.000101858
8.27331e-05
9.92003e-05
9.76142e-05
0.000101985
8.3112e-05
6.89069e-05
6.89047e-05
0.000101562
6.90628e-05
6.90589e-05
8.48384e-05
4.97298e-05
8.45344e-05
4.97328e-05
2.35431e-05
2.35441e-05
8.48383e-05
4.97244e-05
8.45293e-05
4.97273e-05
0.000110356
0.000110357
0.000110361
0.000109574
0.000109571
0.000109573
0.000109577
0.000100493
8.37544e-05
0.000102523
0.000101418
9.9654e-05
8.40833e-05
0.000102736
2.35423e-05
2.35434e-05
0.000100499
0.000102522
8.37272e-05
0.000101428
9.96543e-05
0.000102742
8.4106e-05
6.93421e-05
6.93399e-05
0.000104192
6.94922e-05
6.94894e-05
8.55128e-05
4.97447e-05
8.52178e-05
4.97482e-05
2.35435e-05
2.35449e-05
8.55092e-05
4.97369e-05
8.52097e-05
4.97457e-05
0.000109356
0.000109358
0.000109363
0.000108849
0.000108848
0.000108849
0.000108854
0.000102462
8.47024e-05
0.000103551
0.000103853
0.000101628
8.50516e-05
0.000103852
2.35427e-05
2.35441e-05
0.000102471
0.000103549
8.46952e-05
0.000103864
0.000101628
0.000103859
8.50583e-05
6.97608e-05
6.9757e-05
0.000106827
6.99052e-05
6.99039e-05
8.6161e-05
4.97575e-05
8.58702e-05
4.97682e-05
2.35449e-05
2.35466e-05
8.6157e-05
4.9752e-05
8.58661e-05
4.97629e-05
0.000108724
0.000108726
0.000108732
0.000108488
0.000108489
0.000108491
0.000108497
0.00010437
8.56183e-05
0.000104917
0.000106464
0.000103537
8.59628e-05
0.000105299
2.3544e-05
2.35458e-05
0.000104377
0.000104916
8.56099e-05
0.000106473
0.000103537
0.000105306
8.59661e-05
7.01638e-05
7.01589e-05
0.00010954
7.03039e-05
7.03024e-05
8.67829e-05
4.97752e-05
8.65069e-05
4.97865e-05
2.35472e-05
2.35492e-05
8.6784e-05
4.97697e-05
8.65018e-05
4.97812e-05
0.000108456
0.000108459
0.000108465
0.000108487
0.000108489
0.000108492
0.000108499
0.000106218
8.65033e-05
0.000106594
0.00010922
0.000105393
8.68444e-05
0.00010705
2.35463e-05
2.35484e-05
0.000106228
0.000106594
8.65164e-05
0.000109227
0.000105393
0.000107057
8.68484e-05
7.0551e-05
7.0546e-05
0.00011218
7.06881e-05
7.06863e-05
8.73981e-05
4.97943e-05
8.71215e-05
4.98063e-05
2.35504e-05
2.35528e-05
8.73959e-05
4.9789e-05
8.7119e-05
4.9801e-05
0.000108544
0.000108547
0.000108555
0.000108836
0.000108838
0.000108843
0.000108851
0.000108017
8.73593e-05
0.000108553
0.00011209
0.000107194
8.76953e-05
0.000109076
2.35495e-05
2.35519e-05
0.000108027
0.000108556
8.73711e-05
0.0001121
0.000107196
0.000109086
8.77004e-05
7.09242e-05
7.09195e-05
0.000114906
7.10578e-05
7.10561e-05
8.79941e-05
4.98184e-05
8.77231e-05
4.98244e-05
2.35544e-05
2.35571e-05
8.79918e-05
4.98096e-05
8.77191e-05
4.98221e-05
0.000108979
0.000108983
0.000108992
0.000109522
0.000109524
0.00010953
0.000109539
0.000109762
8.81806e-05
0.000110768
0.000115057
0.000108951
8.85137e-05
0.000111352
2.35535e-05
2.35562e-05
0.000109766
0.000110771
8.81895e-05
0.000115069
0.000108952
0.00011136
8.85217e-05
7.12848e-05
7.12801e-05
0.000117537
7.14148e-05
7.1413e-05
8.85738e-05
4.98367e-05
8.83157e-05
4.98493e-05
2.35594e-05
2.35625e-05
8.8575e-05
4.98316e-05
8.83069e-05
4.98446e-05
0.000109747
0.000109753
0.000109763
0.000110532
0.000110535
0.00011054
0.000110551
0.000111456
8.89705e-05
0.000113212
0.000118103
0.000110661
8.93088e-05
0.000113847
2.35584e-05
2.35614e-05
0.000111459
0.000113213
8.8991e-05
0.000118114
0.000110664
0.000113855
8.93119e-05
7.1633e-05
7.16281e-05
0.000120247
7.17598e-05
7.17581e-05
8.91454e-05
4.98598e-05
8.88934e-05
4.98733e-05
2.35651e-05
2.35684e-05
8.91487e-05
4.98549e-05
8.88839e-05
4.98684e-05
0.000110837
0.000110841
0.000110853
0.00011185
0.000111853
0.000111859
0.000111871
0.000113103
8.974e-05
0.000115854
0.000121213
0.000112334
9.0064e-05
0.000116536
2.3564e-05
2.35672e-05
0.000113105
0.000115857
8.97591e-05
0.000121222
0.000112335
0.000116545
9.00761e-05
7.19694e-05
7.19649e-05
0.000122857
7.20944e-05
7.20902e-05
8.97052e-05
4.98878e-05
8.94599e-05
4.98953e-05
2.35714e-05
2.35749e-05
8.97094e-05
4.98795e-05
8.94492e-05
4.98934e-05
0.000112229
0.000112234
0.000112247
0.000113458
0.000113462
0.000113468
0.000113481
0.000114709
9.04899e-05
0.000118676
0.000124364
0.000113956
9.07984e-05
0.000119402
2.35704e-05
2.35738e-05
0.000114709
0.00011868
9.05029e-05
0.000124374
0.00011396
0.000119412
9.08136e-05
7.22937e-05
7.22911e-05
0.000125504
7.24179e-05
7.24117e-05
9.02524e-05
4.99133e-05
9.00151e-05
4.99214e-05
2.35783e-05
2.35821e-05
9.02588e-05
4.99052e-05
9.00028e-05
4.9917e-05
0.000113908
0.000113913
0.000113927
0.000115338
0.000115343
0.000115349
0.000115363
0.000116268
9.12109e-05
0.000121667
0.000127542
0.000115537
9.15112e-05
0.000122432
2.35774e-05
2.3581e-05
0.000116269
0.000121672
9.1219e-05
0.000127551
0.00011554
0.000122444
9.15262e-05
7.26081e-05
7.26059e-05
0.000128113
7.27263e-05
7.27227e-05
9.07897e-05
4.99368e-05
9.05571e-05
4.99512e-05
2.35859e-05
2.35898e-05
9.07951e-05
4.9935e-05
9.05453e-05
4.99435e-05
0.000115854
0.000115859
0.000115873
0.00011747
0.000117474
0.000117481
0.000117495
0.000117782
9.19125e-05
0.00012481
0.00013073
0.000117068
9.22024e-05
0.00012561
2.35849e-05
2.35889e-05
0.000117784
0.000124818
9.19135e-05
0.000130739
0.000117075
0.000125624
9.2218e-05
7.29121e-05
7.29107e-05
0.000130719
7.30292e-05
7.30235e-05
9.13167e-05
4.99644e-05
9.10829e-05
4.99792e-05
2.3594e-05
2.35981e-05
9.13125e-05
4.99626e-05
9.10695e-05
4.99712e-05
0.000118044
0.00011805
0.000118065
0.000119831
0.000119835
0.000119842
0.000119857
0.000119243
9.25887e-05
0.000128084
0.000133915
0.000118555
9.28654e-05
0.000128911
2.35931e-05
2.35972e-05
0.000119243
0.000128092
9.25764e-05
0.000133923
0.000118568
0.000128926
9.2887e-05
7.32076e-05
7.32022e-05
0.000133221
7.3322e-05
7.33136e-05
9.18285e-05
4.99958e-05
9.15909e-05
5.00051e-05
2.36026e-05
2.3607e-05
9.1815e-05
4.99876e-05
9.15915e-05
5.00028e-05
0.000120459
0.000120466
0.000120481
0.000120654
9.32338e-05
0.000131458
0.000137085
0.000119988
9.35117e-05
0.000132305
2.36017e-05
2.3606e-05
0.00012065
0.000131465
9.32231e-05
0.000137094
0.000120006
0.00013232
9.35305e-05
7.34912e-05
7.34883e-05
0.000135501
7.35991e-05
7.35932e-05
2.36183e-05
2.36152e-05
2.36161e-05
2.36131e-05
6.20494e-05
6.20474e-05
8.22177e-05
6.23838e-05
6.2372e-05
2.36096e-05
2.36125e-05
2.36074e-05
2.36103e-05
8.17618e-05
6.28121e-05
6.28071e-05
6.25008e-05
6.25053e-05
7.2034e-05
4.95749e-05
4.95789e-05
7.12118e-05
6.99386e-05
6.7623e-05
0.000122003
9.79521e-05
6.82697e-05
0.000121028
6.89451e-05
6.99301e-05
6.76159e-05
0.000122004
9.79371e-05
6.82565e-05
0.000121034
6.89288e-05
7.21741e-05
4.95983e-05
4.95861e-05
7.29289e-05
7.21628e-05
4.95901e-05
4.95842e-05
7.29401e-05
7.04199e-05
9.73494e-05
6.91594e-05
0.000119159
6.85374e-05
0.000120103
7.14306e-05
7.04208e-05
9.73395e-05
6.91527e-05
0.000119165
6.85315e-05
0.000120105
7.14239e-05
6.20429e-05
6.20644e-05
8.21954e-05
6.23589e-05
6.23655e-05
2.36177e-05
2.36145e-05
2.36072e-05
2.36102e-05
8.17743e-05
6.28007e-05
6.27987e-05
6.24957e-05
6.2509e-05
2.36089e-05
2.36118e-05
6.99239e-05
6.76076e-05
0.000122011
9.79735e-05
6.82741e-05
0.000121039
6.89332e-05
7.20235e-05
4.95721e-05
4.95758e-05
7.12177e-05
6.99078e-05
0.000122005
6.76499e-05
9.7936e-05
0.000121033
6.8222e-05
6.89343e-05
7.21679e-05
4.95931e-05
4.95807e-05
7.29305e-05
7.04253e-05
9.73715e-05
6.91675e-05
0.000119174
6.8524e-05
0.000120113
7.14048e-05
7.2169e-05
4.9585e-05
4.95816e-05
7.29276e-05
7.04321e-05
9.73404e-05
0.000119164
6.91279e-05
0.000120106
6.8556e-05
7.1393e-05
7.19955e-05
4.95769e-05
4.95805e-05
7.12306e-05
6.99086e-05
0.000122015
6.76162e-05
9.79475e-05
0.000121044
6.82571e-05
6.89501e-05
7.20256e-05
4.95727e-05
4.95765e-05
7.12133e-05
7.04401e-05
9.73756e-05
6.91215e-05
0.000119175
6.85617e-05
0.000120131
7.13669e-05
7.2181e-05
4.95896e-05
4.95863e-05
7.29017e-05
7.04291e-05
9.7353e-05
0.000119177
6.91499e-05
0.000120117
6.85306e-05
7.14007e-05
7.21633e-05
4.95857e-05
4.95822e-05
7.29325e-05
6.20625e-05
6.20682e-05
8.20871e-05
6.2353e-05
6.23646e-05
2.36175e-05
2.36143e-05
2.36065e-05
2.36096e-05
8.17473e-05
6.27892e-05
6.27955e-05
6.25028e-05
6.25132e-05
2.36086e-05
2.36116e-05
6.99185e-05
0.000122006
6.76531e-05
9.79614e-05
0.000121039
6.82318e-05
6.89422e-05
7.2004e-05
4.95769e-05
4.95807e-05
7.12328e-05
7.20032e-05
4.95711e-05
4.95751e-05
7.12311e-05
7.042e-05
9.73746e-05
0.000119169
6.91546e-05
0.000120107
6.85368e-05
7.14189e-05
7.04258e-05
9.73653e-05
0.000119173
6.91325e-05
0.000120108
6.85551e-05
7.14258e-05
7.21828e-05
4.95898e-05
4.95863e-05
7.29073e-05
7.21808e-05
4.95842e-05
4.95806e-05
7.29062e-05
2.3616e-05
2.36129e-05
2.3615e-05
2.36118e-05
8.18909e-05
6.2802e-05
6.27928e-05
6.25004e-05
6.25009e-05
2.36073e-05
2.36102e-05
2.36061e-05
2.36091e-05
2.36069e-05
2.36041e-05
2.36047e-05
2.3602e-05
6.29258e-05
6.29219e-05
8.23709e-05
6.32276e-05
6.32287e-05
2.3599e-05
2.36015e-05
2.35968e-05
2.35994e-05
8.20875e-05
6.36206e-05
6.36221e-05
6.33386e-05
6.33335e-05
7.37835e-05
4.95889e-05
7.30511e-05
4.96004e-05
7.29268e-05
6.94231e-05
0.000118273
9.57446e-05
7.19103e-05
7.00322e-05
0.000117362
7.29178e-05
6.94144e-05
0.000118273
9.57338e-05
7.1912e-05
7.00279e-05
0.000117367
7.38971e-05
4.96146e-05
4.96032e-05
7.45825e-05
7.38829e-05
4.96081e-05
4.9597e-05
7.4577e-05
7.34119e-05
9.52747e-05
7.0884e-05
0.000115646
7.02868e-05
0.000116516
7.44228e-05
7.34138e-05
9.52672e-05
7.08388e-05
0.000115646
7.02901e-05
0.000116515
7.44135e-05
6.29163e-05
6.29289e-05
8.23238e-05
6.32126e-05
6.32156e-05
2.36062e-05
2.36035e-05
2.35967e-05
2.35993e-05
8.20571e-05
6.36066e-05
6.36103e-05
6.33316e-05
6.3345e-05
2.35983e-05
2.36009e-05
7.2906e-05
6.9409e-05
0.000118282
9.5767e-05
7.19273e-05
7.00402e-05
0.000117377
7.37704e-05
4.959e-05
7.30567e-05
4.95934e-05
7.28927e-05
0.000118274
6.94343e-05
9.57312e-05
7.19328e-05
0.000117365
6.99986e-05
7.38919e-05
4.96093e-05
4.95978e-05
7.45647e-05
7.34194e-05
9.52972e-05
7.08821e-05
0.000115657
7.02736e-05
0.000116526
7.4402e-05
7.38877e-05
4.96012e-05
4.95986e-05
7.45766e-05
7.34265e-05
9.5266e-05
0.000115642
7.08421e-05
0.000116515
7.02943e-05
7.43846e-05
7.37473e-05
4.95948e-05
7.30679e-05
4.9598e-05
7.28956e-05
0.000118286
6.94137e-05
9.57456e-05
7.19248e-05
0.000117379
7.0028e-05
7.37646e-05
4.95907e-05
7.30525e-05
4.9594e-05
7.34277e-05
9.52998e-05
7.08444e-05
0.000115657
7.02979e-05
0.000116543
7.44097e-05
7.38989e-05
4.9606e-05
4.96031e-05
7.4555e-05
7.34258e-05
9.52787e-05
0.000115658
7.08658e-05
0.000116528
7.02774e-05
7.4382e-05
7.38936e-05
4.96019e-05
4.95993e-05
7.45676e-05
6.29315e-05
6.29362e-05
8.23668e-05
6.32042e-05
6.32136e-05
2.3606e-05
2.36032e-05
2.35959e-05
2.35986e-05
8.20952e-05
6.3603e-05
6.36133e-05
6.33366e-05
6.33448e-05
2.3598e-05
2.36007e-05
7.29242e-05
0.000118277
6.9438e-05
9.57569e-05
7.19127e-05
0.000117375
7.00043e-05
7.37504e-05
4.95947e-05
7.30691e-05
4.95981e-05
7.3749e-05
4.95891e-05
7.30671e-05
4.95927e-05
7.34084e-05
9.52974e-05
0.000115652
7.08685e-05
0.000116518
7.02841e-05
7.4429e-05
7.34042e-05
9.52906e-05
0.000115655
7.08478e-05
0.00011652
7.02961e-05
7.44125e-05
7.39016e-05
4.96059e-05
4.96031e-05
7.45422e-05
7.38997e-05
4.96016e-05
4.95973e-05
7.45409e-05
2.36046e-05
2.36018e-05
2.36035e-05
2.36007e-05
8.20946e-05
6.3605e-05
6.36058e-05
6.33367e-05
6.33366e-05
2.35967e-05
2.35993e-05
2.35955e-05
2.35982e-05
2.35965e-05
2.35941e-05
2.35943e-05
2.35919e-05
6.3733e-05
6.37276e-05
8.30984e-05
6.40123e-05
6.39964e-05
2.35893e-05
2.35916e-05
2.35872e-05
2.35895e-05
8.28304e-05
6.43649e-05
6.43638e-05
6.41112e-05
6.41097e-05
7.5318e-05
4.9605e-05
7.46627e-05
4.96156e-05
7.5902e-05
7.11131e-05
0.000114841
9.40641e-05
7.48983e-05
7.17091e-05
0.000114035
7.58965e-05
7.11425e-05
0.000114838
9.4054e-05
7.49012e-05
7.16728e-05
0.000114035
7.53981e-05
4.96269e-05
4.96182e-05
7.6023e-05
7.53947e-05
4.9622e-05
4.96122e-05
7.602e-05
7.63806e-05
9.3722e-05
7.25e-05
0.000112467
7.19248e-05
0.000113234
7.73631e-05
7.63843e-05
9.3715e-05
7.24639e-05
0.000112466
7.19452e-05
0.000113231
7.73505e-05
6.37266e-05
6.37321e-05
8.30917e-05
6.39943e-05
6.39957e-05
2.35958e-05
2.35934e-05
2.35872e-05
2.35894e-05
8.28331e-05
6.43588e-05
6.43602e-05
6.41023e-05
6.41125e-05
2.35887e-05
2.3591e-05
7.58824e-05
7.11069e-05
0.00011485
9.40845e-05
7.49101e-05
7.17034e-05
0.000114046
7.53182e-05
4.96061e-05
7.46587e-05
4.96086e-05
7.58707e-05
0.000114837
7.11308e-05
9.40494e-05
7.49209e-05
0.00011403
7.16677e-05
7.54052e-05
4.96229e-05
4.96128e-05
7.60079e-05
7.63958e-05
9.37423e-05
7.24913e-05
0.000112476
7.19212e-05
0.000113243
7.73533e-05
7.53911e-05
4.96169e-05
4.96134e-05
7.6019e-05
7.63993e-05
9.37128e-05
0.00011246
7.24596e-05
0.000113227
7.19396e-05
7.7354e-05
7.52971e-05
4.96105e-05
7.46683e-05
4.96134e-05
7.58698e-05
0.000114851
7.11131e-05
9.40656e-05
7.49201e-05
0.000114047
7.16919e-05
7.53109e-05
4.96068e-05
7.46678e-05
4.96093e-05
7.63736e-05
9.37442e-05
7.24609e-05
0.000112476
7.19468e-05
0.000113259
7.73483e-05
7.53965e-05
4.96204e-05
4.96177e-05
7.59981e-05
7.63984e-05
9.3728e-05
0.000112478
7.24861e-05
0.000113244
7.19264e-05
7.73424e-05
7.5397e-05
4.96164e-05
4.96141e-05
7.60116e-05
6.37297e-05
6.37401e-05
8.30851e-05
6.39874e-05
6.39949e-05
2.35955e-05
2.35931e-05
2.35863e-05
2.35886e-05
8.28147e-05
6.43569e-05
6.43615e-05
6.4105e-05
6.41136e-05
2.35884e-05
2.35907e-05
7.58959e-05
0.000114844
7.1133e-05
9.40753e-05
7.48947e-05
0.000114045
7.16706e-05
7.52856e-05
4.96105e-05
7.46786e-05
4.96131e-05
7.52837e-05
4.96027e-05
7.46762e-05
4.96111e-05
7.63675e-05
9.37422e-05
0.000112473
7.24883e-05
0.000113235
7.19309e-05
7.73665e-05
7.63768e-05
9.37385e-05
0.000112475
7.24617e-05
0.000113236
7.19414e-05
7.73653e-05
7.54109e-05
4.96202e-05
4.96179e-05
7.59865e-05
7.54088e-05
4.9618e-05
4.9608e-05
7.59847e-05
2.35942e-05
2.35917e-05
2.35931e-05
2.35906e-05
8.29546e-05
6.43573e-05
6.43556e-05
6.41051e-05
6.41052e-05
2.35871e-05
2.35894e-05
2.3586e-05
2.35882e-05
2.35871e-05
2.35849e-05
2.35849e-05
2.35828e-05
6.44776e-05
6.44742e-05
8.41708e-05
6.47252e-05
6.47216e-05
2.35807e-05
2.35827e-05
2.35786e-05
2.35806e-05
8.40105e-05
6.50635e-05
6.50605e-05
6.48255e-05
6.48217e-05
7.66784e-05
4.96195e-05
7.6085e-05
4.96278e-05
7.8829e-05
7.27112e-05
0.000111727
9.28973e-05
7.78411e-05
7.32749e-05
0.000111004
7.87961e-05
7.2736e-05
0.000111723
9.28881e-05
7.78499e-05
7.32316e-05
0.000111002
7.67402e-05
4.96394e-05
4.96325e-05
7.73102e-05
7.67365e-05
4.96321e-05
4.96269e-05
7.73056e-05
7.92809e-05
9.26827e-05
7.40189e-05
0.000109636
7.34788e-05
0.00011031
8.02521e-05
7.92973e-05
9.26766e-05
7.39787e-05
0.000109634
7.35025e-05
0.000110306
8.0222e-05
6.44661e-05
6.44709e-05
8.41849e-05
6.47191e-05
6.47129e-05
2.35864e-05
2.35843e-05
2.35786e-05
2.35806e-05
8.4018e-05
6.50531e-05
6.50526e-05
6.4817e-05
6.48203e-05
2.358e-05
2.3582e-05
7.88056e-05
7.27116e-05
0.000111733
9.29167e-05
7.78512e-05
7.32678e-05
0.000111013
7.66778e-05
4.96198e-05
7.60819e-05
4.96229e-05
7.88031e-05
0.00011172
7.27305e-05
9.28843e-05
7.78508e-05
0.000110996
7.32343e-05
7.6748e-05
4.96337e-05
4.96266e-05
7.72942e-05
7.92949e-05
9.2702e-05
7.40143e-05
0.000109643
7.34783e-05
0.000110316
8.02312e-05
7.67338e-05
4.96282e-05
4.96255e-05
7.73046e-05
7.92903e-05
9.26741e-05
0.000109628
7.39791e-05
0.000110302
7.3494e-05
8.02239e-05
7.66574e-05
4.96238e-05
7.60852e-05
4.96269e-05
7.87822e-05
0.000111735
7.27122e-05
9.29017e-05
7.78588e-05
0.000111014
7.32624e-05
7.66708e-05
4.96202e-05
7.60861e-05
4.96228e-05
7.92749e-05
9.27028e-05
7.3981e-05
0.000109642
7.34978e-05
0.00011033
8.02299e-05
7.6735e-05
4.96331e-05
4.96299e-05
7.72858e-05
7.93028e-05
9.26919e-05
0.000109645
7.4007e-05
0.000110319
7.34792e-05
8.02095e-05
7.67368e-05
4.96291e-05
4.96267e-05
7.72985e-05
6.44693e-05
6.44775e-05
8.41715e-05
6.47105e-05
6.47167e-05
2.35861e-05
2.3584e-05
2.35777e-05
2.35797e-05
8.39865e-05
6.50479e-05
6.50564e-05
6.48208e-05
6.48247e-05
2.35798e-05
2.35817e-05
7.88126e-05
0.000111728
7.2732e-05
9.291e-05
7.78333e-05
0.000111012
7.32387e-05
7.66474e-05
4.96238e-05
7.60985e-05
4.96272e-05
7.66454e-05
4.96154e-05
7.60961e-05
4.96245e-05
7.92676e-05
9.27012e-05
0.000109642
7.40151e-05
0.000110311
7.34773e-05
8.02529e-05
7.92789e-05
9.27015e-05
0.000109644
7.39834e-05
0.000110313
7.34946e-05
8.0238e-05
7.67498e-05
4.96338e-05
4.96298e-05
7.72747e-05
7.67476e-05
4.96299e-05
4.96215e-05
7.72727e-05
2.35848e-05
2.35827e-05
2.35837e-05
2.35815e-05
8.41956e-05
6.50512e-05
6.50502e-05
6.48169e-05
6.48199e-05
2.35785e-05
2.35804e-05
2.35774e-05
2.35793e-05
2.35785e-05
2.35768e-05
2.35764e-05
2.35746e-05
6.51625e-05
6.51584e-05
8.5639e-05
6.53918e-05
6.53869e-05
2.3573e-05
2.35747e-05
2.35709e-05
2.35725e-05
8.5568e-05
6.57072e-05
6.57027e-05
6.54878e-05
6.54835e-05
7.78969e-05
4.96347e-05
7.73552e-05