/*--------------------------------*- C++ -*----------------------------------*\
| =========                 |                                                 |
| \\      /  F ield         | OpenFOAM: The Open Source CFD Toolbox           |
|  \\    /   O peration     | Version:  2312                                  |
|   \\  /    A nd           | Website:  www.openfoam.com                      |
|    \\/     M anipulation  |                                                 |
\*---------------------------------------------------------------------------*/
FoamFile
{
    version     2.0;
    format      ascii;
    arch        "LSB;label=32;scalar=64";
    class       surfaceScalarField;
    location    "450";
    object      phi;
}
// * * * * * * * * * * * * * * * * * * * * * * * * * * * * * * * * * * * * * //

dimensions      [0 3 -1 0 0 0 0];

oriented        oriented;

internalField   nonuniform List<scalar> 
123680
(
-8.18617e-07
-8.1954e-07
4.33536e-07
4.34203e-07
0.00115006
-0.00114929
-1.50283e-06
8.19122e-07
3.99431e-07
0.00113925
-4.98887e-07
1.12935e-06
1.47115e-07
7.47164e-07
-5.44747e-07
8.46233e-08
-1.22939e-06
-0.0011388
-1.50005e-06
8.19243e-07
4.05162e-07
0.00113912
-4.96125e-07
1.12672e-06
1.44142e-07
7.47245e-07
-5.4492e-07
8.47108e-08
-1.22947e-06
-0.00113867
1.53183e-06
1.49472e-06
-4.76252e-07
-4.79375e-07
0.000274438
-0.000276509
-7.98942e-07
-8.00008e-07
-0.00115234
4.26026e-07
4.26462e-07
0.00115308
-0.0011405
-1.49425e-06
7.99163e-07
3.90017e-07
0.0011409
-4.87289e-07
1.13512e-06
1.53596e-07
7.54493e-07
-5.29996e-07
-1.21363e-06
9.28507e-08
-0.00114037
-1.49153e-06
7.99493e-07
3.96007e-07
0.00114077
-4.84592e-07
1.13227e-06
1.50664e-07
7.54551e-07
-5.30189e-07
-1.21378e-06
9.28936e-08
-0.000276524
1.52326e-06
1.48618e-06
-4.63583e-07
-4.66593e-07
0.000274445
-7.79076e-07
-7.80146e-07
-0.00115528
4.18637e-07
4.18827e-07
0.00115601
-0.00114201
-1.48472e-06
7.79325e-07
3.8015e-07
0.00114236
-4.7572e-07
1.14052e-06
1.60056e-07
7.61769e-07
-5.15385e-07
-1.19761e-06
1.00988e-07
-0.00114188
-1.48211e-06
7.79658e-07
3.86299e-07
0.00114222
-4.73036e-07
1.13762e-06
1.57077e-07
7.61843e-07
-5.15492e-07
-1.19766e-06
1.01047e-07
-0.000276478
1.51377e-06
1.47668e-06
-4.50525e-07
-4.53499e-07
0.000274392
-7.58223e-07
-7.59294e-07
-0.00115813
4.10525e-07
4.10583e-07
0.00115883
-0.00114331
-1.47448e-06
7.58394e-07
3.70992e-07
0.00114361
-4.6409e-07
1.14578e-06
1.6627e-07
7.69044e-07
-5.01018e-07
-1.18138e-06
1.09094e-07
-0.00114318
-1.47187e-06
7.58674e-07
3.77224e-07
0.00114348
-4.61452e-07
1.14289e-06
1.63261e-07
7.69109e-07
-5.01106e-07
-1.18148e-06
1.09114e-07
-0.000276378
1.50354e-06
1.46645e-06
-4.3737e-07
-4.40341e-07
0.000274286
-7.36857e-07
-7.37893e-07
-0.00116088
4.02169e-07
4.02272e-07
0.00116155
-0.00114442
-1.46367e-06
7.37161e-07
3.61577e-07
0.00114468
-4.52707e-07
1.15095e-06
1.72149e-07
7.76289e-07
-4.86796e-07
-1.16509e-06
1.17114e-07
-0.00114429
-1.46096e-06
7.37183e-07
3.67724e-07
0.00114454
-4.50003e-07
1.14807e-06
1.69247e-07
7.7644e-07
-4.86908e-07
-1.16519e-06
1.17176e-07
-0.000276232
1.49257e-06
1.45547e-06
-4.24211e-07
-4.27201e-07
0.000274135
-7.14846e-07
-7.15578e-07
-0.00116352
3.93379e-07
3.93623e-07
0.00116417
-0.00114534
-1.45216e-06
7.1508e-07
3.52102e-07
0.00114555
-4.41577e-07
1.15619e-06
1.7793e-07
7.83378e-07
-4.7292e-07
-1.14902e-06
1.2493e-07
-0.00114521
-1.44941e-06
7.15016e-07
3.57851e-07
0.00114541
-4.38792e-07
1.15336e-06
1.75067e-07
7.83509e-07
-4.72981e-07
-1.149e-06
1.25081e-07
-0.000276046
1.4811e-06
1.44403e-06
-4.11223e-07
-4.14118e-07
0.000273946
-6.92229e-07
-6.92825e-07
-0.00116605
3.8444e-07
3.84856e-07
0.00116667
-0.00114607
-1.44016e-06
6.92454e-07
3.41534e-07
0.00114624
-4.30639e-07
1.16152e-06
1.83788e-07
7.90393e-07
-4.59377e-07
-1.13321e-06
1.32641e-07
-0.00114594
-1.43736e-06
6.92376e-07
3.47238e-07
0.0011461
-4.27798e-07
1.15878e-06
1.80965e-07
7.90491e-07
-4.59449e-07
-1.13321e-06
1.32743e-07
-0.00027583
1.46903e-06
1.43197e-06
-3.98309e-07
-4.01205e-07
0.000273728
-6.68939e-07
-6.69392e-07
-0.00116848
3.75244e-07
3.75771e-07
0.00116906
-0.00114663
-1.42789e-06
6.69231e-07
3.30211e-07
0.00114675
-4.19814e-07
1.16682e-06
1.8956e-07
7.97261e-07
-4.46158e-07
-1.11771e-06
1.4025e-07
-0.0011465
-1.42507e-06
6.69055e-07
3.35601e-07
0.00114661
-4.1696e-07
1.1642e-06
1.86761e-07
7.97438e-07
-4.46224e-07
-1.11768e-06
1.40343e-07
-0.000275591
1.4568e-06
1.41973e-06
-3.85763e-07
-3.88682e-07
0.000273489
-6.45033e-07
-6.45276e-07
-0.00117078
3.65885e-07
3.66425e-07
0.00117134
-0.00114702
-1.41544e-06
6.45258e-07
3.18126e-07
0.0011471
-4.09248e-07
1.17214e-06
1.95211e-07
8.03864e-07
-4.33329e-07
-1.10256e-06
1.47711e-07
-0.00114689
-1.41264e-06
6.4518e-07
3.23584e-07
0.00114696
-4.06399e-07
1.16956e-06
1.92442e-07
8.04033e-07
-4.33426e-07
-1.10262e-06
1.47783e-07
-0.000275335
1.44445e-06
1.40736e-06
-3.73609e-07
-3.76531e-07
0.000273234
-6.20364e-07
-6.20814e-07
-0.00117297
3.50595e-07
3.56886e-07
0.0011735
-0.00114726
-1.40317e-06
6.20811e-07
3.05178e-07
0.0011473
-3.9894e-07
1.17747e-06
2.00737e-07
8.10321e-07
-4.20898e-07
-1.08794e-06
1.54976e-07
-0.00114712
-1.40042e-06
6.20765e-07
3.107e-07
0.00114716
-3.96112e-07
1.17475e-06
1.97953e-07
8.10391e-07
-4.2094e-07
-1.08797e-06
1.55109e-07
-0.00027507
1.43219e-06
1.39509e-06
-3.6194e-07
-3.64843e-07
0.00027297
-5.95429e-07
-5.95882e-07
-0.00117503
3.41092e-07
3.4731e-07
0.00117554
-0.00114735
-1.39105e-06
5.95815e-07
2.91583e-07
0.00114736
-3.88917e-07
1.18259e-06
2.06152e-07
8.16624e-07
-4.08814e-07
-1.07391e-06
1.62001e-07
-0.00114721
-1.38823e-06
5.95768e-07
2.97204e-07
0.00114722
-3.86187e-07
1.17988e-06
2.03345e-07
8.16735e-07
-4.08892e-07
-1.07387e-06
1.62165e-07
-0.0002748
1.41993e-06
1.38285e-06
-3.50676e-07
-3.53569e-07
0.000272702
-5.70228e-07
-5.70734e-07
-0.00117698
3.31645e-07
3.37816e-07
0.00117745
-0.00114731
-1.37911e-06
5.70633e-07
2.77019e-07
0.00114729
-3.79295e-07
1.18752e-06
2.1145e-07
8.2258e-07
-3.97279e-07
-1.06039e-06
1.68892e-07
-0.00114718
-1.37643e-06
5.70537e-07
2.82752e-07
0.00114715
-3.76523e-07
1.18476e-06
2.08538e-07
8.22754e-07
-3.97282e-07
-1.06029e-06
1.69039e-07
-0.000274529
1.40803e-06
1.37101e-06
-3.40014e-07
-3.42853e-07
0.000272433
-5.4481e-07
-5.45361e-07
-0.00117879
3.22208e-07
3.28441e-07
0.00117923
-0.00114716
-1.36765e-06
5.45267e-07
2.61838e-07
0.00114711
-3.69944e-07
1.1922e-06
2.16471e-07
8.28331e-07
-3.86172e-07
-1.04742e-06
1.75464e-07
-0.00114703
-1.36494e-06
5.451e-07
2.6766e-07
0.00114697
-3.67242e-07
1.1894e-06
2.13581e-07
8.28503e-07
-3.86189e-07
-1.04727e-06
1.75611e-07
-0.000274261
1.39656e-06
1.35956e-06
-3.2991e-07
-3.3273e-07
0.000272168
-5.1931e-07
-5.19802e-07
-0.00118048
3.12819e-07
3.19044e-07
0.00118088
-0.00114691
-1.35649e-06
5.19653e-07
2.46199e-07
0.00114684
-3.60994e-07
1.19666e-06
2.21328e-07
8.33766e-07
-3.75563e-07
-1.03512e-06
1.81725e-07
-0.00114677
-1.3538e-06
5.19517e-07
2.51969e-07
0.0011467
-3.58246e-07
1.1939e-06
2.1847e-07
8.33952e-07
-3.75559e-07
-1.03506e-06
1.81919e-07
-0.000273998
1.38538e-06
1.34839e-06
-3.2024e-07
-3.23058e-07
0.000271907
-4.93649e-07
-4.94178e-07
-0.00118203
3.03397e-07
3.09581e-07
0.00118241
-0.00114657
-1.34577e-06
4.93937e-07
2.29951e-07
0.00114648
-3.52401e-07
1.20091e-06
2.25977e-07
8.39057e-07
-3.65424e-07
-1.02331e-06
1.87719e-07
-0.00114643
-1.34308e-06
4.93821e-07
2.3581e-07
0.00114634
-3.49646e-07
1.19811e-06
2.23158e-07
8.39162e-07
-3.65473e-07
-1.02329e-06
1.8784e-07
-0.000273741
1.37467e-06
1.33767e-06
-3.11061e-07
-3.13938e-07
0.000271653
-4.67861e-07
-4.68318e-07
-0.00118346
2.93797e-07
3.00006e-07
0.0011838
-0.00114616
-1.33554e-06
4.68107e-07
2.1354e-07
0.00114605
-3.44177e-07
1.20487e-06
2.30412e-07
8.44116e-07
-3.5577e-07
-1.01211e-06
1.93342e-07
-0.00114602
-1.33281e-06
4.68033e-07
2.19267e-07
0.00114591
-3.41406e-07
1.2021e-06
2.27601e-07
8.44157e-07
-3.55792e-07
-1.01212e-06
1.9351e-07
-0.000273491
1.36444e-06
1.32745e-06
-3.02468e-07
-3.05328e-07
0.000271407
-4.4198e-07
-4.42342e-07
-0.00118476
2.8399e-07
2.90254e-07
0.00118507
-0.00114569
-1.32575e-06
4.42217e-07
1.96961e-07
0.00114557
-3.36315e-07
1.2085e-06
2.34596e-07
8.4884e-07
-3.46535e-07
-1.00148e-06
1.98766e-07
-0.00114555
-1.32305e-06
4.42113e-07
2.0282e-07
0.00114543
-3.33564e-07
1.20574e-06
2.31813e-07
8.48889e-07
-3.46574e-07
-1.00153e-06
1.98906e-07
-0.000273251
1.35464e-06
1.31766e-06
-2.94339e-07
-2.9721e-07
0.00027117
-4.16092e-07
-4.16296e-07
-0.00118593
2.7978e-07
2.80255e-07
0.0011862
-0.00114517
-1.31646e-06
4.16185e-07
1.80671e-07
0.00114504
-3.28871e-07
1.21183e-06
2.3856e-07
8.53292e-07
-3.37728e-07
-9.9138e-07
2.03929e-07
-0.00114504
-1.31375e-06
4.16207e-07
1.86562e-07
0.0011449
-3.26118e-07
1.20913e-06
2.35702e-07
8.53223e-07
-3.37789e-07
-9.91469e-07
2.04049e-07
-0.000273019
1.34536e-06
1.3084e-06
-2.86747e-07
-2.8959e-07
0.000270942
-3.90313e-07
-3.90288e-07
-0.00118697
2.69488e-07
2.69986e-07
0.00118721
-0.00114462
-1.30762e-06
3.90193e-07
1.64614e-07
0.00114448
-3.21881e-07
1.21507e-06
2.42189e-07
8.57504e-07
-3.2935e-07
-9.81819e-07
2.08825e-07
-0.00114448
-1.30493e-06
3.90209e-07
1.70428e-07
0.00114434
-3.19129e-07
1.21224e-06
2.39401e-07
8.5746e-07
-3.29421e-07
-9.81896e-07
2.08923e-07
-0.000272797
1.33656e-06
1.29963e-06
-2.79609e-07
-2.82416e-07
0.000270723
-3.64335e-07
-3.64333e-07
-0.00118789
2.58762e-07
2.59325e-07
0.0011881
-0.00114403
-1.29936e-06
3.64183e-07
1.4902e-07
0.00114389
-3.15231e-07
1.21791e-06
2.45595e-07
8.615e-07
-3.21391e-07
-9.72749e-07
2.13452e-07
-0.0011439
-1.29666e-06
3.64214e-07
1.54733e-07
0.00114375
-3.12481e-07
1.21512e-06
2.42775e-07
8.61492e-07
-3.21433e-07
-9.72773e-07
2.1358e-07
-0.000272585
1.32818e-06
1.29128e-06
-2.72864e-07
-2.757e-07
0.000270514
-3.3853e-07
-3.38525e-07
-0.00118869
2.47666e-07
2.48242e-07
0.00118887
-0.00114343
-1.29146e-06
3.38351e-07
1.3391e-07
0.00114329
-3.08984e-07
1.2205e-06
2.48717e-07
8.65275e-07
-3.13777e-07
-9.64151e-07
2.17837e-07
-0.0011433
-1.28877e-06
3.38319e-07
1.39545e-07
0.00114315
-3.06232e-07
1.21775e-06
2.4592e-07
8.65292e-07
-3.13833e-07
-9.64157e-07
2.1797e-07
-0.000272383
1.32027e-06
1.28339e-06
-2.66592e-07
-2.69376e-07
0.000270315
-3.12895e-07
-3.1282e-07
-0.00118937
2.36137e-07
2.36729e-07
0.00118952
-0.00114282
-1.28405e-06
3.1266e-07
1.19468e-07
0.00114268
-3.03088e-07
1.2229e-06
2.51628e-07
8.68857e-07
-3.06601e-07
-9.56e-07
2.21967e-07
-0.00114269
-1.28139e-06
3.12589e-07
1.2511e-07
0.00114254
-3.00355e-07
1.22014e-06
2.48844e-07
8.68884e-07
-3.06594e-07
-9.56007e-07
2.22119e-07
-0.00027219
1.31279e-06
1.27596e-06
-2.60732e-07
-2.63498e-07
0.000270125
-2.87518e-07
-2.87385e-07
-0.00118994
2.24202e-07
2.24767e-07
0.00119007
-0.00114221
-1.27708e-06
2.87233e-07
1.05628e-07
0.00114206
-2.97557e-07
1.22508e-06
2.54287e-07
8.7224e-07
-2.99786e-07
-9.48291e-07
2.25853e-07
-0.00114208
-1.27438e-06
2.87125e-07
1.11354e-07
0.00114192
-2.94874e-07
1.22231e-06
2.51504e-07
8.72273e-07
-2.9981e-07
-9.48295e-07
2.25988e-07
-0.000272007
1.30581e-06
1.269e-06
-2.55288e-07
-2.58054e-07
0.000269946
-2.62385e-07
-2.62242e-07
-0.00119041
2.11758e-07
2.12312e-07
0.00119051
-0.0011416
-1.27056e-06
2.62116e-07
9.26906e-08
0.00114145
-2.92429e-07
1.22693e-06
2.56724e-07
8.75421e-07
-2.93308e-07
-9.41021e-07
2.29522e-07
-0.00114146
-1.26781e-06
2.61946e-07
9.83926e-08
0.00114131
-2.89734e-07
1.22426e-06
2.53904e-07
8.75459e-07
-2.93375e-07
-9.41005e-07
2.29645e-07
-0.000271834
1.29929e-06
1.26249e-06
-2.50255e-07
-2.53001e-07
0.000269776
-2.37574e-07
-2.37484e-07
-0.00119077
1.98846e-07
1.99341e-07
0.00119085
-0.001141
-1.26443e-06
2.37365e-07
8.05734e-08
0.00114085
-2.87627e-07
1.22872e-06
2.58922e-07
8.78434e-07
-2.8721e-07
-9.34141e-07
2.32966e-07
-0.00114086
-1.26177e-06
2.37195e-07
8.62655e-08
0.00114071
-2.84926e-07
1.22602e-06
2.56114e-07
8.78494e-07
-2.87244e-07
-9.34125e-07
2.33097e-07
-0.000271671
1.29316e-06
1.25637e-06
-2.45571e-07
-2.48324e-07
0.000269615
1.54297e-06
1.50314e-06
-4.76475e-07
-4.82036e-07
0.000274496
-0.000276584
-1.1739e-06
-1.13386e-06
0.000276599
-0.000274507
1.05275e-07
1.10606e-07
4.06513e-07
0.0011387
-5.04611e-07
1.1696e-06
1.52817e-07
7.52626e-07
-5.45063e-07
8.44969e-08
-1.23515e-06
-0.00113826
-1.54029e-06
8.18791e-07
4.06177e-07
0.00113877
-5.04552e-07
1.16699e-06
1.52814e-07
7.52624e-07
-5.42221e-07
8.13813e-08
-1.2349e-06
-0.00113833
0.00113996
8.03858e-07
-0.00113955
3.99565e-07
-1.53665e-06
1.57648e-07
-4.95881e-07
-1.22336e-06
9.05795e-08
-5.3404e-07
7.58136e-07
1.1713e-06
0.00114003
8.0403e-07
-0.00113962
3.99004e-07
-1.53393e-06
1.57681e-07
-4.95826e-07
-1.22312e-06
8.75643e-08
-5.31148e-07
7.58173e-07
-4.76756e-07
-4.78899e-07
0.000274477
-0.000276564
-1.1337e-06
0.00027658
-0.000274488
1.05394e-07
1.07885e-07
4.05305e-07
0.0011397
-4.99135e-07
1.12949e-06
1.47013e-07
7.52571e-07
-5.45013e-07
8.47323e-08
-1.23497e-06
-0.00113926
-1.53486e-06
8.18103e-07
4.06415e-07
0.00113866
-5.0465e-07
1.16158e-06
1.52865e-07
7.52779e-07
-5.42101e-07
8.16067e-08
-1.23475e-06
-0.00113822
0.00114096
8.04798e-07
-0.00114055
3.98098e-07
-1.49672e-06
1.51908e-07
-4.90378e-07
-1.22317e-06
9.09035e-08
-5.33885e-07
7.58096e-07
1.16584e-06
0.00113991
8.0378e-07
-0.00113951
3.99302e-07
-1.52851e-06
1.57697e-07
-4.9595e-07
-1.22311e-06
8.77555e-08
-5.30985e-07
7.58175e-07
8.17982e-07
4.06425e-07
0.00113828
-5.01609e-07
1.1586e-06
1.49949e-07
7.44614e-07
-5.39116e-07
7.84344e-08
-1.22624e-06
-0.00113783
8.04029e-07
-0.0011401
4.0344e-07
-1.49642e-06
1.52015e-07
-4.90147e-07
-1.21757e-06
9.07113e-08
7.52764e-07
-5.33762e-07
1.16291e-06
0.00113953
8.0299e-07
-0.00113913
3.99392e-07
-1.52547e-06
1.5473e-07
-4.9288e-07
-1.21455e-06
8.46603e-08
-5.28043e-07
7.50077e-07
-4.76767e-07
-4.8165e-07
0.000274463
-0.00027654
-1.13096e-06
0.000276555
-0.000274474
1.05432e-07
1.10658e-07
8.19217e-07
4.04978e-07
0.00113926
-4.98964e-07
1.12123e-06
1.47094e-07
7.49711e-07
-5.44895e-07
8.48389e-08
-1.23187e-06
-0.00113882
8.04378e-07
-0.00113997
3.98202e-07
-1.49368e-06
1.49044e-07
-4.87415e-07
-1.2178e-06
9.08403e-08
7.5266e-07
-5.33773e-07
1.1255e-06
0.00114052
8.04788e-07
-0.00114011
3.97638e-07
-1.48837e-06
1.51939e-07
-4.90281e-07
-1.22012e-06
9.08725e-08
-5.33816e-07
7.55205e-07
-0.000274449
1.05202e-07
1.08096e-07
1.53451e-06
1.49455e-06
-4.63718e-07
-4.69383e-07
0.000274503
-1.17936e-06
-1.13938e-06
0.000276553
-0.000274468
1.1433e-07
1.1965e-07
3.97296e-07
0.00114035
-4.9301e-07
1.17519e-06
1.59229e-07
7.59953e-07
-5.302e-07
-1.21936e-06
9.27861e-08
-1.53177e-06
7.99043e-07
3.96725e-07
0.00114042
-4.92987e-07
1.17273e-06
1.59239e-07
7.59973e-07
-5.27399e-07
-1.21915e-06
8.97171e-08
0.00114146
7.84102e-07
-0.0011411
3.89931e-07
-1.52738e-06
1.63965e-07
-4.84427e-07
-1.2073e-06
9.87681e-08
-5.19201e-07
7.65446e-07
1.17685e-06
0.00114153
7.84039e-07
-0.00114118
3.89106e-07
-1.52462e-06
1.64042e-07
-4.84328e-07
-1.20703e-06
9.57992e-08
-5.16375e-07
7.65512e-07
-4.63999e-07
-4.66221e-07
0.000274484
-1.13925e-06
0.000276534
-0.00027445
1.14474e-07
1.16943e-07
3.95792e-07
0.00114135
-4.87491e-07
1.13519e-06
1.53555e-07
7.59891e-07
-5.30258e-07
-1.21924e-06
9.28953e-08
-1.52636e-06
7.98987e-07
3.96971e-07
0.00114031
-4.93125e-07
1.16717e-06
1.59295e-07
7.60017e-07
-5.27364e-07
-1.21909e-06
8.97531e-08
0.00114246
7.85105e-07
-0.0011421
3.882e-07
-1.48738e-06
1.58408e-07
-4.78854e-07
-1.20716e-06
9.89437e-08
-5.19218e-07
7.65403e-07
1.17129e-06
0.00114142
7.84107e-07
-0.00114106
3.89619e-07
-1.51924e-06
1.64152e-07
-4.84397e-07
-1.20709e-06
9.58199e-08
-5.16376e-07
7.65434e-07
7.98041e-07
3.97201e-07
0.00113993
-4.90015e-07
1.16432e-06
1.56409e-07
7.5189e-07
-5.2439e-07
8.66861e-08
-1.21054e-06
7.84257e-07
-0.00114165
3.93636e-07
-1.48709e-06
1.58472e-07
-4.78652e-07
-1.20157e-06
9.88776e-08
7.60064e-07
-5.19046e-07
1.16842e-06
0.00114103
7.83182e-07
-0.00114068
3.89661e-07
-1.51617e-06
1.6126e-07
-4.81364e-07
-1.19853e-06
9.28457e-08
-5.1338e-07
7.57326e-07
-4.64108e-07
-4.68989e-07
0.00027447
-1.13632e-06
0.000276509
-0.000274435
1.14343e-07
1.19705e-07
7.99805e-07
3.95472e-07
0.00114091
-4.874e-07
1.12689e-06
1.53528e-07
7.5703e-07
-5.30046e-07
9.30421e-08
-1.21612e-06
7.84651e-07
-0.00114152
3.88568e-07
-1.48449e-06
1.55481e-07
-4.75925e-07
-1.20172e-06
9.9004e-08
7.59941e-07
-5.19015e-07
1.131e-06
0.00114202
7.84878e-07
-0.00114166
3.88008e-07
-1.47905e-06
1.58341e-07
-4.7883e-07
-1.20404e-06
9.90561e-08
-5.19068e-07
7.62521e-07
-0.00027441
1.14277e-07
1.17128e-07
1.52505e-06
1.48504e-06
-4.50622e-07
-4.56343e-07
0.00027445
-1.18453e-06
-1.14463e-06
0.000276453
-0.000274375
1.22958e-07
1.28161e-07
3.87696e-07
0.0011418
-4.81547e-07
1.18057e-06
1.65521e-07
7.67247e-07
-5.15561e-07
-1.20328e-06
1.0085e-07
-1.52228e-06
7.78951e-07
3.86788e-07
0.00114188
-4.81426e-07
1.17809e-06
1.65626e-07
7.67296e-07
-5.12665e-07
-1.20296e-06
9.79237e-08
0.00114276
7.63438e-07
-0.00114245
3.80723e-07
-1.51745e-06
1.70182e-07
-4.72844e-07
-1.19109e-06
1.06948e-07
-5.04745e-07
7.72742e-07
1.18208e-06
0.00114284
7.63438e-07
-0.00114253
3.7991e-07
-1.51465e-06
1.70293e-07
-4.7275e-07
-1.19085e-06
1.03941e-07
-5.01951e-07
7.72772e-07
-4.50874e-07
-4.53171e-07
0.000274431
-1.14451e-06
0.000276435
-0.000274357
1.2311e-07
1.25524e-07
3.85911e-07
0.00114281
-4.75973e-07
1.14061e-06
1.59954e-07
7.6717e-07
-5.15589e-07
-1.20317e-06
1.00977e-07
-1.51686e-06
7.79108e-07
3.87377e-07
0.00114176
-4.81484e-07
1.17257e-06
1.65718e-07
7.67215e-07
-5.12697e-07
-1.20307e-06
9.78343e-08
0.00114377
7.64635e-07
-0.00114346
3.78952e-07
-1.47737e-06
1.64639e-07
-4.67221e-07
-1.19101e-06
1.06956e-07
-5.04874e-07
7.72655e-07
1.17657e-06
0.00114272
7.63702e-07
-0.00114241
3.80374e-07
-1.50923e-06
1.70427e-07
-4.72706e-07
-1.19094e-06
1.03839e-07
-5.01994e-07
7.72681e-07
7.78247e-07
3.87369e-07
0.00114138
-4.7844e-07
1.16971e-06
1.62832e-07
7.59148e-07
-5.09745e-07
9.4935e-08
-1.19451e-06
7.63589e-07
-0.00114301
3.84398e-07
-1.47707e-06
1.64736e-07
-4.67024e-07
-1.18538e-06
1.06986e-07
7.67373e-07
-5.04684e-07
1.17372e-06
0.00114234
7.62521e-07
-0.00114203
3.80469e-07
-1.50613e-06
1.67561e-07
-4.69664e-07
-1.18239e-06
1.00977e-07
-4.99045e-07
7.64606e-07
-4.51091e-07
-4.55884e-07
0.000274417
-1.14161e-06
0.000276409
-0.000274342
1.22975e-07
1.28307e-07
7.79804e-07
3.85744e-07
0.00114236
-4.75887e-07
1.13227e-06
1.59906e-07
7.6432e-07
-5.15341e-07
1.01163e-07
-1.19999e-06
7.63949e-07
-0.00114287
3.7938e-07
-1.47447e-06
1.61747e-07
-4.64297e-07
-1.18555e-06
1.07122e-07
7.67237e-07
-5.04601e-07
1.13627e-06
0.00114332
7.64436e-07
-0.00114302
3.7883e-07
-1.46907e-06
1.64522e-07
-4.67227e-07
-1.18786e-06
1.0718e-07
-5.04574e-07
7.69775e-07
-0.000274317
1.22913e-07
1.25746e-07
1.51484e-06
1.47476e-06
-4.37487e-07
-4.43191e-07
0.000274344
-1.18975e-06
-1.14983e-06
0.000276307
-0.000274235
1.31269e-07
1.36454e-07
3.78564e-07
0.00114306
-4.69969e-07
1.18585e-06
1.71691e-07
7.74525e-07
-5.01249e-07
-1.18706e-06
1.08916e-07
-1.51207e-06
7.58105e-07
3.777e-07
0.00114313
-4.69832e-07
1.18333e-06
1.7181e-07
7.74585e-07
-4.98343e-07
-1.18674e-06
1.06074e-07
0.00114387
7.42184e-07
-0.00114361
3.71416e-07
-1.50666e-06
1.76222e-07
-4.61317e-07
-1.17481e-06
1.14908e-07
-4.90604e-07
7.79986e-07
1.1873e-06
0.00114395
7.42114e-07
-0.00114369
3.70703e-07
-1.50392e-06
1.76234e-07
-4.61276e-07
-1.17454e-06
1.12022e-07
-4.8774e-07
7.80036e-07
-4.37728e-07
-4.40033e-07
0.000274326
-1.14971e-06
0.000276289
-0.000274217
1.31388e-07
1.33842e-07
3.76677e-07
0.00114406
-4.64306e-07
1.14594e-06
1.66217e-07
7.74438e-07
-5.01271e-07
-1.18693e-06
1.09028e-07
-1.50663e-06
7.58434e-07
3.78135e-07
0.00114301
-4.69843e-07
1.17783e-06
1.71918e-07
7.74468e-07
-4.98379e-07
-1.18685e-06
1.05908e-07
0.00114488
7.43316e-07
-0.00114462
3.69665e-07
-1.46661e-06
1.70611e-07
-4.55766e-07
-1.17469e-06
1.1502e-07
-4.90621e-07
7.79923e-07
1.18177e-06
0.00114383
7.4233e-07
-0.00114357
3.71095e-07
-1.49843e-06
1.76478e-07
-4.61214e-07
-1.17465e-06
1.11883e-07
-4.87861e-07
7.79925e-07
7.57329e-07
3.78164e-07
0.00114263
-4.66756e-07
1.1749e-06
1.69079e-07
7.66405e-07
-4.95422e-07
1.03071e-07
-1.17832e-06
7.42468e-07
-0.00114417
3.75149e-07
-1.46636e-06
1.70684e-07
-4.55608e-07
-1.16911e-06
1.15065e-07
7.74627e-07
-4.90375e-07
1.17882e-06
0.00114344
7.41396e-07
-0.00114318
3.70984e-07
-1.49537e-06
1.73555e-07
-4.58224e-07
-1.16613e-06
1.09067e-07
-4.84808e-07
7.71833e-07
-4.37951e-07
-4.42748e-07
0.000274311
-1.14681e-06
0.000276263
-0.000274202
1.31297e-07
1.36585e-07
7.59021e-07
3.76629e-07
0.00114362
-4.64317e-07
1.13746e-06
1.66108e-07
7.71618e-07
-5.00974e-07
1.09245e-07
-1.18376e-06
7.42537e-07
-0.00114403
3.70005e-07
-1.46369e-06
1.67755e-07
-4.52821e-07
-1.16923e-06
1.1522e-07
7.74535e-07
-4.90351e-07
1.14139e-06
0.00114443
7.42876e-07
-0.00114417
3.69578e-07
-1.4583e-06
1.70589e-07
-4.55792e-07
-1.17158e-06
1.15212e-07
-4.90373e-07
7.77171e-07
-0.000274177
1.31151e-07
1.33994e-07
1.50392e-06
1.46385e-06
-4.24366e-07
-4.30039e-07
0.000274194
-1.19503e-06
-1.15504e-06
0.000276122
-0.000274055
1.39193e-07
1.44585e-07
3.69027e-07
0.00114412
-4.58495e-07
1.19101e-06
1.77657e-07
7.81745e-07
-4.87091e-07
-1.17078e-06
1.16984e-07
-1.50122e-06
7.36706e-07
3.68314e-07
0.00114419
-4.58357e-07
1.18854e-06
1.77765e-07
7.81807e-07
-4.84149e-07
-1.17046e-06
1.14086e-07
0.00114479
7.20459e-07
-0.00114458
3.61643e-07
-1.49528e-06
1.82023e-07
-4.50085e-07
-1.15866e-06
1.22783e-07
-4.7663e-07
7.8711e-07
1.19247e-06
0.00114486
7.20318e-07
-0.00114465
3.61155e-07
-1.4926e-06
1.82038e-07
-4.50027e-07
-1.15838e-06
1.19956e-07
-4.7375e-07
7.87169e-07
-4.24644e-07
-4.26953e-07
0.000274175
-1.15485e-06
0.000276104
-0.000274037
1.39292e-07
1.41851e-07
3.67193e-07
0.00114512
-4.52888e-07
1.15106e-06
1.72132e-07
7.81692e-07
-4.8707e-07
-1.17063e-06
1.17128e-07
-1.4957e-06
7.36911e-07
3.6873e-07
0.00114407
-4.58401e-07
1.18302e-06
1.77898e-07
7.81709e-07
-4.84254e-07
-1.17055e-06
1.13981e-07
0.00114579
7.21222e-07
-0.00114558
3.60144e-07
-1.45529e-06
1.76458e-07
-4.44558e-07
-1.1585e-06
1.22976e-07
-4.76617e-07
7.87087e-07
1.18697e-06
0.00114474
7.20464e-07
-0.00114453
3.61259e-07
-1.48708e-06
1.8217e-07
-4.49961e-07
-1.15843e-06
1.1988e-07
-4.73746e-07
7.87106e-07
7.36042e-07
3.6865e-07
0.00114369
-4.55377e-07
1.18018e-06
1.74962e-07
7.73588e-07
-4.81254e-07
1.11125e-07
-1.16207e-06
7.20585e-07
-0.00114513
3.65809e-07
-1.45509e-06
1.76446e-07
-4.44367e-07
-1.15296e-06
1.22942e-07
7.81753e-07
-4.76399e-07
1.18411e-06
0.00114436
7.19659e-07
-0.00114415
3.61197e-07
-1.48405e-06
1.79289e-07
-4.46956e-07
-1.14995e-06
1.17069e-07
-4.70795e-07
7.78992e-07
-4.24823e-07
-4.29587e-07
0.00027416
-1.15204e-06
0.000276077
-0.000274022
1.39223e-07
1.44628e-07
7.37378e-07
3.67193e-07
0.00114468
-4.52943e-07
1.14274e-06
1.7205e-07
7.78942e-07
-4.86788e-07
1.17287e-07
-1.1675e-06
7.20582e-07
-0.001145
3.60212e-07
-1.4523e-06
1.73631e-07
-4.41543e-07
-1.15303e-06
1.23161e-07
7.81672e-07
-4.76384e-07
1.14668e-06
0.00114535
7.20736e-07
-0.00114514
3.60108e-07
-1.44697e-06
1.76416e-07
-4.44485e-07
-1.1554e-06
1.23166e-07
-4.76377e-07
7.84338e-07
-0.000273997
1.39155e-07
1.42089e-07
1.49232e-06
1.45235e-06
-4.11333e-07
-4.16908e-07
0.000274005
-1.20046e-06
-1.16043e-06
0.000275905
-0.000273844
1.4702e-07
1.52476e-07
3.5912e-07
0.00114499
-4.47241e-07
1.19637e-06
1.83533e-07
7.88841e-07
-4.73186e-07
-1.15468e-06
1.24787e-07
-1.48966e-06
7.1469e-07
3.58655e-07
0.00114506
-4.47201e-07
1.19381e-06
1.83543e-07
7.88875e-07
-4.70285e-07
-1.15437e-06
1.21948e-07
0.00114552
6.98026e-07
-0.00114535
3.51043e-07
-1.48343e-06
1.87905e-07
-4.38967e-07
-1.14273e-06
1.30542e-07
-4.63e-07
7.94148e-07
1.19784e-06
0.00114559
6.9782e-07
-0.00114543
3.50906e-07
-1.48062e-06
1.87879e-07
-4.39057e-07
-1.14249e-06
1.27684e-07
-4.60147e-07
7.94137e-07
-4.11648e-07
-4.13865e-07
0.000273987
-1.16021e-06
0.000275888
-0.000273826
1.47108e-07
1.49654e-07
3.57625e-07
0.001146
-4.41734e-07
1.15635e-06
1.77995e-07
7.88799e-07
-4.73123e-07
-1.15449e-06
1.25004e-07
-1.48418e-06
7.14825e-07
3.58888e-07
0.00114494
-4.47212e-07
1.18827e-06
1.83623e-07
7.88869e-07
-4.70301e-07
-1.15439e-06
1.21922e-07
0.00114653
6.98607e-07
-0.00114636
3.49784e-07
-1.44351e-06
1.8232e-07
-4.33518e-07
-1.1425e-06
1.3075e-07
-4.62887e-07
7.94156e-07
1.19232e-06
0.00114547
6.97606e-07
-0.00114531
3.50975e-07
-1.47513e-06
1.87977e-07
-4.38979e-07
-1.14245e-06
1.278e-07
-4.60086e-07
7.94162e-07
7.14027e-07
3.58752e-07
0.00114456
-4.44196e-07
1.18544e-06
1.80794e-07
7.80702e-07
-4.67324e-07
1.1907e-07
-1.14596e-06
6.98136e-07
-0.00114591
3.55476e-07
-1.44315e-06
1.82258e-07
-4.33492e-07
-1.13705e-06
1.30699e-07
7.88826e-07
-4.62766e-07
1.18941e-06
0.00114509
6.97137e-07
-0.00114493
3.50808e-07
-1.4721e-06
1.85173e-07
-4.35976e-07
-1.13407e-06
1.24855e-07
-4.57182e-07
7.86007e-07
-4.11736e-07
-4.16535e-07
0.000273972
-1.15748e-06
0.000275861
-0.000273811
1.47121e-07
1.52393e-07
7.15111e-07
3.57656e-07
0.00114555
-4.41689e-07
1.148e-06
1.779e-07
7.86076e-07
-4.72884e-07
1.2518e-07
-1.15139e-06
6.98071e-07
-0.00114578
3.49911e-07
-1.44033e-06
1.79496e-07
-4.3052e-07
-1.13715e-06
1.30792e-07
7.88729e-07
-4.62844e-07
1.152e-06
0.00114608
6.98121e-07
-0.00114592
3.49756e-07
-1.43504e-06
1.82293e-07
-4.33506e-07
-1.13948e-06
1.30894e-07
-4.62688e-07
7.9136e-07
-0.000273785
1.46966e-07
1.49819e-07
1.48021e-06
1.4403e-06
-3.9846e-07
-4.03933e-07
0.000273787
-1.20577e-06
-1.16572e-06
0.000275667
-0.000273609
1.54413e-07
1.5988e-07
3.48337e-07
0.00114567
-4.3625e-07
1.20179e-06
1.89415e-07
7.95808e-07
-4.59663e-07
-1.13885e-06
1.32485e-07
-1.47765e-06
6.92121e-07
3.48265e-07
0.00114575
-4.36234e-07
1.19912e-06
1.89394e-07
7.95857e-07
-4.56798e-07
-1.13859e-06
1.29665e-07
0.00114607
6.74841e-07
-0.00114595
3.39789e-07
-1.47103e-06
1.9369e-07
-4.28111e-07
-1.12706e-06
1.38141e-07
-4.49735e-07
8.00922e-07
1.20308e-06
0.00114615
6.74706e-07
-0.00114603
3.39877e-07
-1.46847e-06
1.93647e-07
-4.2815e-07
-1.1269e-06
1.3535e-07
-4.46857e-07
8.01071e-07
-3.9877e-07
-4.0098e-07
0.000273769
-1.16548e-06
0.000275648
-0.000273591
1.54518e-07
1.57039e-07
3.4702e-07
0.00114668
-4.30797e-07
1.16175e-06
1.83823e-07
7.95859e-07
-4.59554e-07
-1.13861e-06
1.32731e-07
-1.47215e-06
6.91912e-07
3.4837e-07
0.00114563
-4.36252e-07
1.19362e-06
1.89458e-07
7.95876e-07
-4.56731e-07
-1.13852e-06
1.29687e-07
0.00114708
6.75264e-07
-0.00114696
3.38617e-07
-1.43118e-06
1.88096e-07
-4.22682e-07
-1.12682e-06
1.3849e-07
-4.49556e-07
8.00996e-07
1.19767e-06
0.00114603
6.7434e-07
-0.0011459
3.39824e-07
-1.46299e-06
1.93752e-07
-4.28123e-07
-1.12683e-06
1.35484e-07
-4.46739e-07
8.01099e-07
6.91426e-07
3.48076e-07
0.00114525
-4.3324e-07
1.19077e-06
1.86656e-07
7.87695e-07
-4.53831e-07
1.2682e-07
-1.13014e-06
6.7511e-07
-0.00114651
3.44369e-07
-1.431e-06
1.88061e-07
-4.22563e-07
-1.12142e-06
1.38348e-07
7.95577e-07
-4.49462e-07
1.1947e-06
0.00114565
6.74098e-07
-0.00114552
3.39618e-07
-1.45991e-06
1.90951e-07
-4.25081e-07
-1.11848e-06
1.32505e-07
-4.43863e-07
7.92905e-07
-3.98802e-07
-4.03681e-07
0.000273754
-1.16291e-06
0.000275622
-0.000273576
1.54649e-07
1.59867e-07
6.92321e-07
3.47075e-07
0.00114624
-4.30728e-07
1.15336e-06
1.83773e-07
7.9315e-07
-4.59348e-07
1.32868e-07
-1.13554e-06
6.74959e-07
-0.00114638
3.38484e-07
-1.42814e-06
1.85372e-07
-4.19623e-07
-1.12153e-06
1.38442e-07
7.95666e-07
-4.49517e-07
1.15731e-06
0.00114664
6.74919e-07
-0.00114652
3.38639e-07
-1.42284e-06
1.88082e-07
-4.22586e-07
-1.12385e-06
1.38656e-07
-4.49367e-07
7.98261e-07
-0.00027355
1.54369e-07
1.57239e-07
1.46797e-06
1.42811e-06
-3.85958e-07
-3.9139e-07
0.000273548
-1.21105e-06
-1.17104e-06
0.000275411
-0.000273358
1.61556e-07
1.66971e-07
3.36888e-07
0.00114619
-4.25354e-07
1.20707e-06
1.95199e-07
8.02699e-07
-4.46453e-07
-1.1234e-06
1.40085e-07
-1.46538e-06
6.68777e-07
3.36934e-07
0.00114626
-4.25422e-07
1.20438e-06
1.95131e-07
8.02724e-07
-4.43546e-07
-1.12306e-06
1.37314e-07
0.00114646
6.51102e-07
-0.00114638
3.27817e-07
-1.45873e-06
1.99366e-07
-4.17462e-07
-1.11194e-06
1.45677e-07
-4.36761e-07
8.07705e-07
1.20838e-06
0.00114654
6.50946e-07
-0.00114646
3.2807e-07
-1.4562e-06
1.99231e-07
-4.17568e-07
-1.11161e-06
1.42916e-07
-4.33892e-07
8.0779e-07
-3.86184e-07
-3.88431e-07
0.00027353
-1.17087e-06
0.000275393
-0.000273339
1.61664e-07
1.64148e-07
3.3586e-07
0.0011472
-4.19938e-07
1.16702e-06
1.89605e-07
8.02678e-07
-4.46294e-07
-1.12321e-06
1.40338e-07
-1.45991e-06
6.68422e-07
3.37087e-07
0.00114614
-4.25484e-07
1.19896e-06
1.95175e-07
8.02762e-07
-4.43509e-07
-1.123e-06
1.3733e-07
0.00114747
6.51364e-07
-0.00114739
3.2666e-07
-1.41888e-06
1.93769e-07
-4.12037e-07
-1.1116e-06
1.46009e-07
-4.36576e-07
8.07757e-07
1.20292e-06
0.00114641
6.50441e-07
-0.00114633
3.2809e-07
-1.45057e-06
1.99413e-07
-4.17518e-07
-1.11161e-06
1.4301e-07
-4.33821e-07
8.07725e-07
6.68194e-07
3.36673e-07
0.00114576
-4.22397e-07
1.19606e-06
1.92396e-07
7.94553e-07
-4.40648e-07
1.34441e-07
-1.11467e-06
6.51307e-07
-0.00114694
3.32478e-07
-1.41869e-06
1.9372e-07
-4.11847e-07
-1.10622e-06
1.45859e-07
8.02299e-07
-4.36583e-07
1.19997e-06
0.00114603
6.5021e-07
-0.00114595
3.27773e-07
-1.44758e-06
1.96586e-07
-4.14474e-07
-1.10315e-06
1.40095e-07
-4.30946e-07
7.99594e-07
-3.8624e-07
-3.91119e-07
0.000273514
-1.16822e-06
0.000275367
-0.000273324
1.61807e-07
1.66854e-07
6.68914e-07
3.35911e-07
0.00114675
-4.19895e-07
1.15868e-06
1.89534e-07
7.99935e-07
-4.4615e-07
1.40477e-07
-1.12005e-06
6.51233e-07
-0.00114681
3.26579e-07
-1.41571e-06
1.9104e-07
-4.08978e-07
-1.10636e-06
1.45925e-07
8.02197e-07
-4.36593e-07
1.16264e-06
0.00114703
6.51266e-07
-0.00114695
3.26789e-07
-1.41051e-06
1.93761e-07
-4.11949e-07
-1.10869e-06
1.46062e-07
-4.36475e-07
8.05035e-07
-0.000273298
1.61469e-07
1.64324e-07
1.45563e-06
1.41578e-06
-3.73807e-07
-3.79247e-07
0.000273293
-1.21625e-06
-1.17626e-06
0.000275146
-0.000273095
1.68288e-07
1.73696e-07
3.24717e-07
0.00114654
-4.14833e-07
1.2124e-06
2.00778e-07
8.09316e-07
-4.33563e-07
-1.10818e-06
1.47608e-07
-1.45295e-06
6.44847e-07
3.25038e-07
0.00114661
-4.14917e-07
1.20963e-06
2.00727e-07
8.09352e-07
-4.3068e-07
-1.10803e-06
1.44832e-07
0.0011467
6.26586e-07
-0.00114666
3.20828e-07
-1.44637e-06
2.04912e-07