/*--------------------------------*- C++ -*----------------------------------*\
| =========                 |                                                 |
| \\      /  F ield         | OpenFOAM: The Open Source CFD Toolbox           |
|  \\    /   O peration     | Version:  2312                                  |
|   \\  /    A nd           | Website:  www.openfoam.com                      |
|    \\/     M anipulation  |                                                 |
\*---------------------------------------------------------------------------*/
FoamFile
{
    version     2.0;
    format      ascii;
    arch        "LSB;label=32;scalar=64";
    class       volScalarField;
    location    "625";
    object      epsilon;
}
// * * * * * * * * * * * * * * * * * * * * * * * * * * * * * * * * * * * * * //

dimensions      [0 2 -3 0 0 0 0];

internalField   nonuniform List<scalar> 
43120
(
1.33734e-07
2.30891e-07
2.30902e-07
3.58416e-07
1.3159e-07
2.41557e-07
2.41569e-07
3.84552e-07
1.30243e-07
2.54309e-07
2.54326e-07
4.13548e-07
1.29679e-07
2.69104e-07
2.69123e-07
4.45063e-07
1.29906e-07
2.85884e-07
2.85902e-07
4.78716e-07
1.30896e-07
3.0455e-07
3.04573e-07
5.14089e-07
1.3265e-07
3.25001e-07
3.25029e-07
5.50682e-07
1.35171e-07
3.47111e-07
3.47147e-07
5.88089e-07
1.38462e-07
3.70752e-07
3.70794e-07
6.25861e-07
1.42528e-07
3.95804e-07
3.95835e-07
6.63689e-07
1.47354e-07
4.2205e-07
4.22108e-07
7.01124e-07
1.52971e-07
4.49314e-07
4.49401e-07
7.37955e-07
1.5939e-07
4.77591e-07
4.77622e-07
7.7406e-07
1.66551e-07
5.06433e-07
5.06475e-07
8.09043e-07
1.74511e-07
5.35821e-07
5.35927e-07
8.42807e-07
1.83354e-07
5.65563e-07
5.65644e-07
8.75646e-07
1.92909e-07
5.95821e-07
5.95829e-07
9.0751e-07
2.03344e-07
6.25969e-07
6.2612e-07
9.38025e-07
2.1454e-07
6.55604e-07
6.55739e-07
9.66898e-07
2.26026e-07
6.84988e-07
6.84916e-07
9.94424e-07
2.38338e-07
7.13051e-07
7.12888e-07
1.01997e-06
2.52331e-07
7.42372e-07
7.42239e-07
1.0461e-06
2.66498e-07
7.73176e-07
7.73602e-07
1.06952e-06
2.74723e-07
7.83033e-07
7.81689e-07
1.07238e-06
2.85872e-07
8.04366e-07
7.98902e-07
1.0972e-06
3.29726e-07
8.9424e-07
9.03118e-07
1.20386e-06
9.409e-07
3.52884e-07
2.2861e-07
2.28652e-07
3.52902e-07
2.28574e-07
2.28656e-07
2.28555e-07
2.28615e-07
3.52928e-07
2.28564e-07
2.28606e-07
3.52963e-07
3.58345e-07
3.78372e-07
2.30951e-07
2.30992e-07
2.38761e-07
2.38801e-07
3.58358e-07
3.78388e-07
2.30913e-07
2.30997e-07
2.38719e-07
2.3881e-07
2.30956e-07
2.38696e-07
2.38764e-07
3.58386e-07
3.7842e-07
2.30945e-07
2.38706e-07
2.38753e-07
3.78455e-07
3.84479e-07
4.06755e-07
2.41626e-07
2.41667e-07
2.51005e-07
2.51045e-07
3.84489e-07
4.06771e-07
2.41583e-07
2.41677e-07
2.50957e-07
2.51059e-07
2.41629e-07
2.50931e-07
2.51008e-07
3.84522e-07
4.06808e-07
2.41617e-07
2.50945e-07
2.50996e-07
4.06849e-07
4.13464e-07
4.3772e-07
2.54389e-07
2.54429e-07
2.65304e-07
2.65342e-07
4.13475e-07
4.3773e-07
2.54339e-07
2.54445e-07
2.6525e-07
2.65364e-07
2.54392e-07
2.6522e-07
2.65308e-07
4.13514e-07
4.37776e-07
2.54378e-07
2.65237e-07
2.65293e-07
4.37823e-07
4.4497e-07
4.70884e-07
2.69192e-07
2.69231e-07
2.81598e-07
2.81642e-07
4.44976e-07
4.70904e-07
2.69135e-07
2.69254e-07
2.81535e-07
2.81666e-07
2.69198e-07
2.8151e-07
2.81605e-07
4.45023e-07
4.70954e-07
2.69179e-07
2.81528e-07
2.81586e-07
4.71e-07
4.78611e-07
5.0586e-07
2.85977e-07
2.86021e-07
2.99818e-07
2.99859e-07
4.78627e-07
5.05873e-07
2.85913e-07
2.86043e-07
2.99747e-07
2.99885e-07
2.85984e-07
2.99716e-07
2.99825e-07
4.78677e-07
5.05925e-07
2.85962e-07
2.99737e-07
2.99801e-07
5.05981e-07
5.13981e-07
5.42141e-07
3.04659e-07
3.04697e-07
3.19843e-07
3.19882e-07
5.13986e-07
5.42155e-07
3.04587e-07
3.04725e-07
3.19763e-07
3.19918e-07
3.04667e-07
3.19732e-07
3.19854e-07
5.1404e-07
5.42216e-07
3.04636e-07
3.19759e-07
3.19816e-07
5.42268e-07
5.5057e-07
5.79309e-07
3.25116e-07
3.25157e-07
3.41566e-07
3.41605e-07
5.5058e-07
5.79321e-07
3.25035e-07
3.25193e-07
3.41474e-07
3.41641e-07
3.25129e-07
3.41442e-07
3.41577e-07
5.50641e-07
5.79384e-07
3.25087e-07
3.41472e-07
3.41536e-07
5.79445e-07
5.87968e-07
6.16928e-07
3.4724e-07
3.47282e-07
3.64845e-07
3.64879e-07
5.87971e-07
6.16934e-07
3.47148e-07
3.47321e-07
3.64743e-07
3.64924e-07
3.47257e-07
3.64707e-07
3.64859e-07
5.88036e-07
6.17012e-07
3.47212e-07
3.64752e-07
3.64807e-07
6.17071e-07
6.25734e-07
6.5466e-07
3.70891e-07
3.70928e-07
3.89559e-07
3.89588e-07
6.25735e-07
6.54661e-07
3.7079e-07
3.70971e-07
3.89447e-07
3.89633e-07
3.70908e-07
3.89415e-07
3.89585e-07
6.25812e-07
6.54729e-07
3.70852e-07
3.89451e-07
3.89522e-07
6.54813e-07
6.63548e-07
6.92091e-07
3.95943e-07
3.9598e-07
4.1552e-07
4.1557e-07
6.63544e-07
6.92134e-07
3.95834e-07
3.96023e-07
4.15394e-07
4.15618e-07
3.95976e-07
4.15388e-07
4.15559e-07
6.63609e-07
6.922e-07
3.95905e-07
4.1543e-07
4.15475e-07
6.92263e-07
7.00969e-07
7.28969e-07
4.22175e-07
4.22239e-07
4.42601e-07
4.42611e-07
7.01011e-07
7.28977e-07
4.22053e-07
4.22298e-07
4.42462e-07
4.42673e-07
4.22227e-07
4.4241e-07
4.42613e-07
7.01085e-07
7.29079e-07
4.22136e-07
4.42488e-07
4.42526e-07
7.29124e-07
7.37817e-07
7.65159e-07
4.49505e-07
4.49519e-07
4.70618e-07
4.7064e-07
7.37804e-07
7.65145e-07
4.49372e-07
4.49593e-07
4.70472e-07
4.70709e-07
4.49538e-07
4.70453e-07
4.70662e-07
7.37911e-07
7.65245e-07
4.49452e-07
4.70506e-07
4.70568e-07
7.65325e-07
7.73923e-07
8.00302e-07
4.77752e-07
4.77777e-07
4.99352e-07
4.99377e-07
7.73903e-07
8.00308e-07
4.7761e-07
4.7783e-07
4.9918e-07
4.99397e-07
4.77788e-07
4.99192e-07
4.99398e-07
7.73986e-07
8.00355e-07
4.77679e-07
4.99211e-07
4.9927e-07
8.00473e-07
8.08889e-07
8.34206e-07
5.06592e-07
5.06621e-07
5.28562e-07
5.28627e-07
8.08895e-07
8.34283e-07
5.06427e-07
5.06651e-07
5.28399e-07
5.28719e-07
5.06665e-07
5.2844e-07
5.28632e-07
8.08941e-07
8.34385e-07
5.06529e-07
5.2856e-07
5.2851e-07
8.34412e-07
8.42621e-07
8.673e-07
5.35949e-07
5.3601e-07
5.58369e-07
5.58273e-07
8.42687e-07
8.67247e-07
5.35787e-07
5.36081e-07
5.58203e-07
5.58361e-07
5.35998e-07
5.58081e-07
5.58365e-07
8.428e-07
8.67313e-07
5.35875e-07
5.58166e-07
5.58227e-07
8.67406e-07
8.75543e-07
8.9923e-07
5.65855e-07
5.65774e-07
5.88335e-07
5.88455e-07
8.7548e-07
8.99284e-07
5.65696e-07
5.65846e-07
5.88123e-07
5.88446e-07
5.6588e-07
5.88219e-07
5.88476e-07
8.75517e-07
8.99319e-07
5.65739e-07
5.88262e-07
5.88335e-07
8.9949e-07
9.0728e-07
9.30092e-07
5.95899e-07
5.96045e-07
6.18627e-07
6.187e-07
9.07347e-07
9.30221e-07
5.95691e-07
5.96018e-07
6.18414e-07
6.18887e-07
5.96045e-07
6.18543e-07
6.18701e-07
9.0739e-07
9.303e-07
5.95883e-07
6.18638e-07
6.18522e-07
9.30276e-07
9.37885e-07
9.59492e-07
6.26125e-07
6.26082e-07
6.48532e-07
6.48247e-07
9.37953e-07
9.59176e-07
6.25917e-07
6.26338e-07
6.48377e-07
6.48424e-07
6.26175e-07
6.48167e-07
6.48495e-07
9.38081e-07
9.59414e-07
6.25992e-07
6.48286e-07
6.48337e-07
9.59437e-07
9.66927e-07
9.86798e-07
6.55934e-07
6.55726e-07
6.77659e-07
6.77887e-07
9.66658e-07
9.87268e-07
6.5578e-07
6.55861e-07
6.77514e-07
6.77702e-07
6.55888e-07
6.776e-07
6.77893e-07
9.6681e-07
9.87036e-07
6.55724e-07
6.77627e-07
6.77719e-07
9.87315e-07
9.93823e-07
1.01263e-06
6.84743e-07
6.85306e-07
7.06049e-07
7.06748e-07
9.94446e-07
1.01329e-06
6.84573e-07
6.84993e-07
7.05725e-07
7.06401e-07
6.85263e-07
7.06535e-07
7.06503e-07
9.94164e-07
1.01275e-06
6.85077e-07
7.06265e-07
7.06238e-07
1.01316e-06
1.01965e-06
1.03951e-06
7.13245e-07
7.1325e-07
7.35743e-07
7.34322e-07
1.02002e-06
1.03842e-06
7.1293e-07
7.1307e-07
7.35557e-07
7.34295e-07
7.13124e-07
7.34033e-07
7.34801e-07
1.0195e-06
1.03836e-06
7.12881e-07
7.33961e-07
7.34841e-07
1.03888e-06
1.04661e-06
1.06262e-06
7.43637e-07
7.42646e-07
7.64993e-07
7.67059e-07
1.04568e-06
1.06517e-06
7.43445e-07
7.42606e-07
7.64591e-07
7.6776e-07
7.4306e-07
7.67068e-07
7.6655e-07
1.04567e-06
1.06551e-06
7.43088e-07
7.67446e-07
7.66175e-07
1.06442e-06
1.06728e-06
1.07017e-06
7.70088e-07
7.73009e-07
7.79495e-07
7.81561e-07
1.0707e-06
1.07235e-06
7.69798e-07
7.73839e-07
7.80231e-07
7.81293e-07
7.72275e-07
7.82034e-07
7.80924e-07
1.07115e-06
1.0698e-06
7.71782e-07
7.81305e-07
7.80268e-07
1.07054e-06
1.07297e-06
1.08552e-06
7.8191e-07
7.82595e-07
7.96369e-07
7.92857e-07
1.07411e-06
1.08298e-06
7.82569e-07
7.81625e-07
7.94697e-07
7.86748e-07
7.82101e-07
7.91862e-07
7.93681e-07
1.07115e-06
1.07384e-06
7.81423e-07
7.86949e-07
7.93058e-07
1.08465e-06
1.0963e-06
1.16934e-06
8.07232e-07
8.06105e-07
8.66484e-07
8.70427e-07
1.09446e-06
1.17497e-06
8.05126e-07
7.98593e-07
8.65575e-07
8.76826e-07
8.07372e-07
8.69911e-07
8.73668e-07
1.08632e-06
1.18447e-06
8.07531e-07
8.78103e-07
8.75831e-07
1.18173e-06
1.19097e-06
1.25419e-06
8.91198e-07
8.94292e-07
9.44976e-07
9.40094e-07
1.19696e-06
1.24838e-06
8.90976e-07
9.01805e-07
9.45822e-07
9.40915e-07
8.97957e-07
9.41139e-07
9.40654e-07
1.20891e-06
1.25034e-06
9.00193e-07
9.41176e-07
9.40909e-07
1.24953e-06
9.41012e-07
1.25016e-06
1.34399e-07
1.34404e-07
1.34407e-07
1.34409e-07
1.84894e-05
2.24283e-07
2.74413e-06
3.68275e-06
8.90842e-06
3.64848e-06
8.91341e-06
1.84669e-05
1.84585e-05
3.68286e-06
8.90966e-06
3.64853e-06
8.91467e-06
1.33739e-07
1.33742e-07
1.33744e-07
1.32056e-07
1.32061e-07
1.32065e-07
1.32067e-07
1.15856e-06
2.79628e-06
1.58589e-07
2.33363e-07
1.13067e-06
2.81986e-06
1.58819e-07
1.84676e-05
1.84592e-05
1.15863e-06
1.58611e-07
2.79628e-06
2.33373e-07
1.13073e-06
1.5882e-07
2.81998e-06
5.1313e-06
5.13298e-06
3.65332e-07
5.14371e-06
5.14551e-06
3.75896e-06
8.91967e-06
3.73197e-06
8.92412e-06
1.84381e-05
1.84304e-05
3.75907e-06
8.92094e-06
3.73202e-06
8.9254e-06
1.31595e-07
1.31599e-07
1.31601e-07
1.30515e-07
1.3052e-07
1.30525e-07
1.30527e-07
1.2424e-06
2.86635e-06
1.59956e-07
2.44555e-07
1.21521e-06
2.88718e-06
1.60519e-07
1.84389e-05
1.84312e-05
1.24249e-06
1.5998e-07
2.86635e-06
2.44566e-07
1.21525e-06
1.60521e-07
2.8873e-06
5.16604e-06
5.16774e-06
3.92306e-07
5.17606e-06
5.17782e-06
3.81832e-06
8.92963e-06
3.79758e-06
8.93358e-06
1.84116e-05
1.84047e-05
3.81842e-06
8.93092e-06
3.79762e-06
8.93487e-06
1.30247e-07
1.30253e-07
1.30255e-07
1.29763e-07
1.29767e-07
1.29773e-07
1.29775e-07
1.32307e-06
2.9283e-06
1.62657e-07
2.57821e-07
1.2971e-06
2.94664e-06
1.6356e-07
1.84123e-05
1.84054e-05
1.32318e-06
1.62687e-07
2.92831e-06
2.57837e-07
1.29716e-06
1.63564e-07
2.94677e-06
5.19465e-06
5.19636e-06
4.22037e-07
5.20296e-06
5.2047e-06
3.86379e-06
8.93833e-06
3.84813e-06
8.94179e-06
1.83873e-05
1.83811e-05
3.8639e-06
8.93962e-06
3.84819e-06
8.9431e-06
1.29684e-07
1.29691e-07
1.29693e-07
1.29777e-07
1.29783e-07
1.2979e-07
1.29792e-07
1.39913e-06
2.98287e-06
1.66713e-07
2.73116e-07
1.37482e-06
2.99898e-06
1.67962e-07
1.83881e-05
1.83818e-05
1.39923e-06
1.66744e-07
2.98289e-06
2.73133e-07
1.37489e-06
1.67965e-07
2.99911e-06
5.21849e-06
5.2202e-06
4.54159e-07
5.2254e-06
5.22714e-06
3.89838e-06
8.94593e-06
3.88669e-06
8.949e-06
1.83654e-05
1.83599e-05
3.89844e-06
8.94719e-06
3.88671e-06
8.95027e-06
1.29911e-07
1.29918e-07
1.2992e-07
1.30576e-07
1.30582e-07
1.3059e-07
1.30592e-07
1.46965e-06
3.03094e-06
1.72142e-07
2.90379e-07
1.44726e-06
3.04509e-06
1.73737e-07
1.83661e-05
1.83605e-05
1.46976e-06
1.72176e-07
3.03096e-06
2.90396e-07
1.44732e-06
1.7374e-07
3.04522e-06
5.23856e-06
5.24025e-06
4.88296e-07
5.24438e-06
5.24612e-06
3.92467e-06
8.95267e-06
3.91598e-06
8.95548e-06
1.83457e-05
1.83409e-05
3.92474e-06
8.954e-06
3.91602e-06
8.95677e-06
1.309e-07
1.30908e-07
1.30911e-07
1.32141e-07
1.32146e-07
1.32157e-07
1.32158e-07
1.53412e-06
3.07336e-06
1.7895e-07
3.09502e-07
1.51376e-06
3.08582e-06
1.80893e-07
1.83464e-05
1.83416e-05
1.53422e-06
1.78989e-07
3.07336e-06
3.09526e-07
1.51382e-06
1.80898e-07
3.08594e-06
5.25568e-06
5.25737e-06
5.23989e-07
5.26063e-06
5.26237e-06
3.94477e-06
8.95885e-06
3.93831e-06
8.96143e-06
1.83283e-05
1.83243e-05
3.94487e-06
8.96015e-06
3.93833e-06
8.96276e-06
1.32656e-07
1.32666e-07
1.32669e-07
1.34473e-07
1.34477e-07
1.34489e-07
1.34492e-07
1.59244e-06
3.11091e-06
1.87139e-07
3.30381e-07
1.5741e-06
3.12195e-06
1.89428e-07
1.8329e-05
1.83249e-05
1.59254e-06
1.87183e-07
3.11092e-06
3.30411e-07
1.57416e-06
1.89438e-07
3.12206e-06
5.27042e-06
5.27211e-06
5.6077e-07
5.27473e-06
5.27646e-06
3.96043e-06
8.96465e-06
3.95554e-06
8.96722e-06
1.83132e-05
1.83099e-05
3.96048e-06
8.96594e-06
3.95556e-06
8.96847e-06
1.35177e-07
1.3519e-07
1.35194e-07
1.37571e-07
1.37574e-07
1.37589e-07
1.37591e-07
1.64482e-06
3.14434e-06
1.96701e-07
3.52883e-07
1.6284e-06
3.15416e-06
1.99332e-07
1.83138e-05
1.83105e-05
1.64494e-06
1.96753e-07
3.14436e-06
3.52923e-07
1.62847e-06
1.99347e-07
3.15431e-06
5.28338e-06
5.28508e-06
5.9823e-07
5.28717e-06
5.2889e-06
3.97283e-06
8.97028e-06
3.96906e-06
8.97284e-06
1.83003e-05
1.82979e-05
3.97288e-06
8.97159e-06
3.96912e-06
8.97411e-06
1.38468e-07
1.38481e-07
1.38486e-07
1.41441e-07
1.41444e-07
1.41459e-07
1.41466e-07
1.69171e-06
3.17429e-06
2.0762e-07
3.76888e-07
1.67704e-06
3.18311e-06
2.10587e-07
1.83009e-05
1.82985e-05
1.69194e-06
2.07678e-07
3.17432e-06
3.76928e-07
1.67703e-06
2.10604e-07
3.18326e-06
5.29491e-06
5.29656e-06
6.35944e-07
5.29835e-06
5.30006e-06
3.98291e-06
8.97605e-06
3.97989e-06
8.97864e-06
1.82898e-05
1.82884e-05
3.98296e-06
8.97737e-06
3.97994e-06
8.97994e-06
1.42536e-07
1.4255e-07
1.42557e-07
1.46078e-07
1.46088e-07
1.46106e-07
1.46108e-07
1.73384e-06
3.20142e-06
2.19874e-07
4.0227e-07
1.72049e-06
3.20943e-06
2.23173e-07
1.82905e-05
1.82889e-05
1.73398e-06
2.19923e-07
3.2014e-06
4.02297e-07
1.72041e-06
2.2318e-07
3.20951e-06
5.30558e-06
5.30726e-06
6.73612e-07
5.30881e-06
5.31056e-06
3.99138e-06
8.98204e-06
3.98878e-06
8.98478e-06
1.82817e-05
1.8281e-05
3.99141e-06
8.98336e-06
3.98882e-06
8.98612e-06
1.4737e-07
1.47394e-07
1.4739e-07
1.51503e-07
1.51499e-07
1.51524e-07
1.51527e-07
1.77158e-06
3.22616e-06
2.33409e-07
4.28783e-07
1.75939e-06
3.23343e-06
2.37018e-07
1.82825e-05
1.82817e-05
1.77178e-06
2.33475e-07
3.22614e-06
4.28848e-07
1.75933e-06
2.37049e-07
3.23354e-06
5.31541e-06
5.31711e-06
7.10765e-07
5.31837e-06
5.32009e-06
3.99862e-06
8.98841e-06
3.99638e-06
8.99149e-06
1.82758e-05
1.8276e-05
3.99871e-06
8.98971e-06
3.99646e-06
8.99277e-06
1.52971e-07
1.53002e-07
1.53006e-07
1.57715e-07
1.5772e-07
1.5774e-07
1.5775e-07
1.80559e-06
3.24876e-06
2.48166e-07
4.56299e-07
1.79434e-06
3.2555e-06
2.52086e-07
1.82766e-05
1.82767e-05
1.80582e-06
2.48262e-07
3.24882e-06
4.56386e-07
1.79436e-06
2.52134e-07
3.25561e-06
5.32478e-06
5.3264e-06
7.47328e-07
5.32772e-06
5.32939e-06
4.00496e-06
8.99515e-06
4.00305e-06
8.99833e-06
1.82726e-05
1.82736e-05
4.00505e-06
8.99653e-06
4.00309e-06
8.99969e-06
1.59395e-07
1.5941e-07
1.59422e-07
1.64696e-07
1.64715e-07
1.64724e-07
1.64738e-07
1.83657e-06
3.26992e-06
2.64175e-07
4.84767e-07
1.82612e-06
3.27621e-06
2.68391e-07
1.82732e-05
1.82742e-05
1.83665e-06
2.64218e-07
3.26988e-06
4.84788e-07
1.82605e-06
2.68383e-07
3.27617e-06
5.33402e-06
5.3357e-06
7.83046e-07
5.3369e-06
5.33861e-06
4.01091e-06
9.00275e-06
4.00909e-06
9.00593e-06
1.82715e-05
1.8273e-05
4.01082e-06
9.00387e-06
4.00905e-06
9.00725e-06
1.66567e-07
1.66577e-07
1.666e-07
1.72456e-07
1.72485e-07
1.72534e-07
1.72507e-07
1.86473e-06
3.2896e-06
2.81253e-07
5.13723e-07
1.85502e-06
3.29538e-06
2.85716e-07
1.8272e-05
1.82735e-05
1.86496e-06
2.81317e-07
3.28949e-06
5.13804e-07
1.85496e-06
2.85758e-07
3.29538e-06
5.34309e-06
5.3448e-06
8.17577e-07
5.34563e-06
5.34734e-06
4.01661e-06
9.01044e-06
4.0147e-06
9.0144e-06
1.82722e-05
1.8275e-05
4.01664e-06
9.01184e-06
4.01482e-06
9.01567e-06
1.74545e-07
1.74581e-07
1.74559e-07
1.81072e-07
1.81025e-07
1.81071e-07
1.8109e-07
1.89083e-06
3.30793e-06
2.99391e-07
5.43217e-07
1.88169e-06
3.31348e-06
3.04106e-07
1.8273e-05
1.82757e-05
1.891e-06
2.99513e-07
3.30805e-06
5.43305e-07
1.88166e-06
3.04169e-07
3.31364e-06
5.35174e-06
5.35345e-06
8.51022e-07
5.35435e-06
5.35606e-06
4.022e-06
9.01958e-06
4.02015e-06
9.02363e-06
1.82755e-05
1.8279e-05
4.02213e-06
9.02092e-06
4.02024e-06
9.025e-06
1.83312e-07
1.83348e-07
1.83387e-07
1.90415e-07
1.90467e-07
1.90489e-07
1.90506e-07
1.91509e-06
3.32529e-06
3.18483e-07
5.73086e-07
1.90636e-06
3.33055e-06
3.23447e-07
1.82759e-05
1.82796e-05
1.91532e-06
3.18583e-07
3.32528e-06
5.73156e-07
1.90636e-06
3.23513e-07
3.33066e-06
5.3605e-06
5.36219e-06
8.83587e-07
5.36373e-06
5.36543e-06
4.02782e-06
9.02919e-06
4.02575e-06
9.03366e-06
1.82818e-05
1.82865e-05
4.02779e-06
9.03039e-06
4.02575e-06
9.03476e-06
1.92965e-07
1.9297e-07
1.92999e-07
2.00703e-07
2.00793e-07
2.00856e-07
2.00786e-07
1.93824e-06
3.34233e-06
3.38652e-07
6.03435e-07
1.92983e-06
3.34751e-06
3.43909e-07
1.82823e-05
1.82868e-05
1.93836e-06
3.38727e-07
3.34229e-06
6.03428e-07
1.92982e-06
3.43898e-07
3.34752e-06
5.36999e-06
5.37168e-06
9.15042e-07
5.37297e-06
5.37475e-06
4.03349e-06
9.03978e-06
4.03173e-06
9.04448e-06
1.82895e-05
1.82937e-05
4.03376e-06
9.04119e-06
4.03162e-06
9.04601e-06
2.0339e-07
2.03512e-07
2.0341e-07
2.11682e-07
2.11552e-07
2.11604e-07
2.11682e-07
1.96009e-06
3.35868e-06
3.59699e-07
6.33341e-07
1.95198e-06
3.36326e-06
3.65064e-07
1.82906e-05
1.82951e-05
1.96009e-06
3.59774e-07
3.35858e-06
6.33507e-07
1.9519e-06
3.65086e-07
3.36336e-06
5.37951e-06
5.38103e-06
9.45064e-07
5.38216e-06
5.38386e-06
4.03926e-06
9.05089e-06
4.03716e-06
9.05591e-06
1.82975e-05
1.83028e-05
4.03921e-06
9.05213e-06
4.03715e-06
9.05732e-06
2.14467e-07
2.14518e-07
2.14551e-07
2.23104e-07
2.2308e-07
2.23102e-07
2.23146e-07
1.98031e-06
3.37357e-06
3.81268e-07
6.62982e-07
1.97263e-06
3.3782e-06
3.86726e-07
1.82981e-05
1.83029e-05
1.98058e-06
3.81349e-07
3.37364e-06
6.63129e-07
1.97265e-06
3.86851e-07
3.37821e-06
5.38838e-06
5.39022e-06
9.73575e-07
5.39135e-06
5.39295e-06
4.04605e-06
9.06291e-06
4.04348e-06
9.06747e-06
1.83094e-05
1.83166e-05
4.04603e-06
9.06456e-06
4.04371e-06
9.06879e-06
2.26119e-07
2.26064e-07
2.26196e-07
2.35179e-07
2.35741e-07
2.3559e-07
2.35582e-07
1.99982e-06
3.38842e-06
4.03226e-07
6.92412e-07
1.99256e-06
3.39243e-06
4.08976e-07
1.83088e-05
1.83157e-05
1.99993e-06
4.03437e-07
3.38833e-06
6.92235e-07
1.99258e-06
4.09027e-07
3.39236e-06
5.39749e-06
5.39903e-06
1.00045e-06
5.39932e-06
5.40097e-06
4.05248e-06
9.07318e-06
4.04978e-06
9.07919e-06
1.83207e-05
1.83255e-05
4.05291e-06
9.07445e-06
4.04968e-06
9.0804e-06
2.38588e-07
2.38512e-07
2.38458e-07
2.48485e-07
2.47622e-07
2.47712e-07
2.48046e-07
2.01789e-06
3.40011e-06
4.25836e-07
7.1953e-07
2.01102e-06
3.40335e-06
4.3116e-07
1.83209e-05
1.83265e-05
2.01779e-06
4.2576e-07
3.39965e-06
7.195e-07
2.01068e-06
4.31126e-07
3.40283e-06
5.40153e-06
5.40345e-06
1.02574e-06
5.40378e-06
5.40591e-06
4.05969e-06
9.08908e-06
4.0568e-06
9.09556e-06
1.83343e-05
1.83459e-05
4.05917e-06
9.08982e-06
4.05736e-06
9.09627e-06
2.51585e-07
2.51604e-07
2.52022e-07
2.63578e-07
2.64321e-07
2.64668e-07
2.64096e-07
2.03851e-06
3.41471e-06
4.48609e-07
7.51068e-07
2.02995e-06
3.42207e-06
4.55576e-07
1.83351e-05
1.83454e-05
2.03874e-06
4.48707e-07
3.41406e-06
7.5102e-07
2.03034e-06
4.55501e-07
3.42172e-06
5.41703e-06
5.41981e-06
1.05265e-06
5.42701e-06
5.42959e-06
4.06271e-06
9.10115e-06
4.06348e-06
9.09982e-06
1.83512e-05
1.83475e-05
4.06277e-06
9.10203e-06
4.06199e-06
9.10105e-06
2.67901e-07
2.68443e-07
2.67425e-07
2.72953e-07
2.74558e-07
2.74415e-07
2.73845e-07
2.05307e-06
3.43378e-06
4.76487e-07
7.77597e-07
2.05047e-06
3.43287e-06
4.82117e-07
1.83512e-05
1.83494e-05
2.05256e-06
4.76476e-07
3.43473e-06
7.77829e-07
2.04987e-06
4.82147e-07
3.43478e-06
5.43554e-06
5.43663e-06
1.0705e-06
5.42498e-06
5.42478e-06
4.0541e-06
9.08791e-06
4.0574e-06
9.08449e-06
1.83117e-05
1.83028e-05
4.05851e-06
9.09097e-06
4.06122e-06
9.08907e-06
2.75533e-07
2.74981e-07
2.74873e-07
2.81312e-07
2.79511e-07
2.77673e-07
2.79985e-07
2.04899e-06
3.41906e-06
4.91538e-07
7.84213e-07
2.05082e-06
3.4082e-06
4.92856e-07
1.83022e-05
1.82804e-05
2.04635e-06
4.91031e-07
3.41693e-06
7.82069e-07
2.04924e-06
4.92087e-07
3.40095e-06
5.38754e-06
5.38851e-06
1.07142e-06
5.36677e-06
5.3682e-06
4.07444e-06
9.10266e-06
4.0569e-06
9.14065e-06
1.83414e-05
1.84361e-05
4.07022e-06
9.10348e-06
4.0561e-06
9.13797e-06
2.84345e-07
2.81687e-07
2.85928e-07
3.15544e-07
3.176e-07
3.22135e-07
3.204e-07
2.07648e-06
3.41465e-06
5.00986e-07
8.22955e-07
2.05664e-06
3.44274e-06
5.11154e-07
1.82979e-05
1.8409e-05
2.08076e-06
5.00013e-07
3.40154e-06
8.23682e-07
2.05582e-06
5.11802e-07
3.43847e-06
5.38185e-06
5.38454e-06
1.12398e-06
5.43504e-06
5.44133e-06
4.15581e-06
9.22814e-06
4.12441e-06
9.28081e-06
1.8595e-05
1.86658e-05
4.15375e-06
9.2274e-06
4.1228e-06
9.28076e-06
3.3162e-07
3.37088e-07
3.34455e-07
3.66924e-07
3.6478e-07
3.67251e-07
3.65032e-07
2.16688e-06
3.52926e-06
5.63933e-07
9.16012e-07
2.13397e-06
3.57232e-06
5.83802e-07
1.8624e-05
1.87075e-05
2.1734e-06
5.70191e-07
3.5463e-06
9.23527e-07
2.14419e-06
5.89493e-07
3.5901e-06
5.56168e-06
5.57334e-06
1.23179e-06
5.62279e-06
5.63239e-06
3.69622e-07
1.86794e-05
3.59994e-06
1.84707e-05
1.84735e-05
5.12496e-06
5.12693e-06
8.90758e-06
3.63748e-06
8.90782e-06
3.63743e-06
2.78307e-06
1.58482e-07
1.11595e-06
2.78364e-06
1.58489e-07
1.11594e-06
1.84733e-05
5.12656e-06
5.12486e-06
1.84714e-05
8.90221e-06
2.2437e-07
2.74475e-06
3.59935e-06
8.90882e-06
3.63758e-06
1.08804e-06
2.78363e-06
1.58488e-07
1.58438e-07
1.116e-06
3.59932e-06
8.90838e-06
8.9031e-06
3.63755e-06
1.08803e-06
2.26447e-07
1.58499e-07
2.78376e-06
1.5845e-07
2.75859e-06
1.116e-06
2.78304e-06
1.58476e-07
1.11601e-06
8.90819e-06
3.63716e-06
1.58483e-07
2.78325e-06
1.116e-06
8.90801e-06
3.63746e-06
3.41344e-07
5.10618e-06
5.10461e-06
1.8487e-05
1.8474e-05
1.84828e-05
3.46469e-07
5.12672e-06
5.12516e-06
5.11278e-06
5.11128e-06
1.84715e-05
1.84803e-05
8.90213e-06
1.08809e-06
2.26356e-07
1.58486e-07
2.78316e-06
1.58437e-07
2.758e-06
1.11607e-06
1.08811e-06
1.58494e-07
2.78377e-06
1.58445e-07
1.11605e-06
3.59965e-06
8.90829e-06
8.90302e-06
3.63736e-06
3.59964e-06
8.90862e-06
3.63734e-06
5.12509e-06
5.12689e-06
1.84726e-05
1.84745e-05
1.84643e-05
1.84559e-05
1.84671e-05
1.84587e-05
5.13113e-06
5.13312e-06
3.6525e-07
5.14361e-06
5.14556e-06
1.84416e-05
1.84496e-05
1.84444e-05
1.84525e-05
3.71038e-07
5.16055e-06
5.16247e-06
5.14938e-06
5.15134e-06
3.6827e-06
8.90866e-06
3.64843e-06
8.91365e-06
1.1585e-06
2.79617e-06
1.58604e-07
2.33423e-07
1.13061e-06
2.8199e-06
1.58819e-07
1.15849e-06
2.79674e-06
1.58611e-07
2.33464e-07
1.1306e-06
2.82045e-06
1.58825e-07
3.69263e-06
8.91895e-06
8.9142e-06
3.72314e-06
3.69258e-06
8.91922e-06
8.91444e-06
3.72309e-06
1.17309e-06
2.36026e-07
2.85458e-06
1.59503e-07
2.83227e-06
1.59123e-07
1.20071e-06
1.17307e-06
2.36066e-07
2.85515e-06
1.5951e-07
2.83281e-06
1.5913e-07
1.2007e-06
5.1328e-06
5.13157e-06
3.65267e-07
5.14519e-06
5.14359e-06
1.84649e-05
1.84565e-05
1.84442e-05
1.84522e-05
3.71051e-07
5.1621e-06
5.16057e-06
5.15101e-06
5.1497e-06
1.84423e-05
1.84502e-05
1.15856e-06
2.79674e-06
1.5861e-07
2.33384e-07
1.13067e-06
2.82046e-06
1.58825e-07
3.68282e-06
8.90923e-06
3.6485e-06
8.91424e-06
1.15855e-06
1.58622e-07
2.79686e-06
2.33471e-07
1.13067e-06
1.58837e-07
2.82058e-06
3.69268e-06
8.92022e-06
8.91545e-06
3.72325e-06
1.17315e-06
2.35985e-07
2.85514e-06
1.5951e-07
2.83283e-06
1.59129e-07
1.20077e-06
3.69265e-06
8.91979e-06
8.91503e-06
3.72321e-06
1.17314e-06
2.36075e-07
1.59522e-07
2.85527e-06
1.59142e-07
2.83293e-06
1.20076e-06
3.68242e-06
8.90906e-06
3.64901e-06
8.91404e-06
1.15855e-06
1.58604e-07
2.79639e-06
2.33427e-07
1.13066e-06
1.5882e-07
2.82007e-06
3.68271e-06
8.90885e-06
3.64857e-06
8.91387e-06
1.17315e-06
2.35961e-07
2.85456e-06
1.59503e-07
2.83236e-06
1.59107e-07
1.20078e-06
3.69314e-06
8.91956e-06
8.91486e-06
3.72282e-06
1.17313e-06
2.36029e-07
1.59504e-07
2.85476e-06
1.59123e-07
2.83247e-06
1.20077e-06
3.6927e-06
8.91941e-06
8.91466e-06
3.72311e-06
5.13288e-06
5.1314e-06
3.65296e-07
5.14536e-06
5.1438e-06
1.84651e-05
1.84567e-05
1.84449e-05
1.84529e-05
3.71081e-07
5.16226e-06
5.16072e-06
5.15112e-06
5.14963e-06
1.84424e-05
1.84504e-05
1.1586e-06
1.58619e-07
2.79686e-06
2.33417e-07
1.13074e-06
1.58828e-07
2.82059e-06
3.68252e-06
8.90914e-06
3.64897e-06
8.91414e-06
3.68251e-06
8.90947e-06
3.64896e-06
8.91448e-06
1.1732e-06
2.35973e-07
1.59504e-07
2.85468e-06
1.5913e-07
2.83236e-06
1.20084e-06
1.17321e-06
2.36018e-07
1.59514e-07
2.85528e-06
1.59139e-07
2.83294e-06
1.20081e-06
3.69319e-06
8.91967e-06
8.91493e-06
3.72289e-06
3.69317e-06
8.92004e-06
8.91527e-06
3.72288e-06
1.84662e-05
1.84577e-05
1.8468e-05
1.84596e-05
3.71111e-07
5.16064e-06
5.16242e-06
5.14951e-06
5.1512e-06
1.84435e-05
1.84515e-05
1.84453e-05
1.84534e-05
1.84356e-05
1.84279e-05
1.84384e-05
1.84307e-05
5.16592e-06
5.16785e-06
3.92219e-07
5.17598e-06
5.17788e-06
1.84147e-05
1.8422e-05
1.84175e-05
1.84249e-05
3.98632e-07
5.19006e-06
5.19195e-06
5.18091e-06
5.18283e-06
3.75891e-06
8.91995e-06
3.73192e-06
8.92439e-06
1.24234e-06
2.86624e-06
1.59974e-07
2.44623e-07
1.21513e-06
2.88721e-06
1.60521e-07
1.24232e-06
2.86679e-06
1.5998e-07
2.44664e-07
1.21512e-06
2.88776e-06
1.60527e-07
3.76684e-06
8.92901e-06
8.92479e-06
3.79057e-06
3.76679e-06
8.92929e-06
8.92507e-06
3.79052e-06
1.25652e-06
2.47749e-07
2.91788e-06
1.61874e-07
2.89818e-06
1.61158e-07
1.28318e-06
1.2565e-06
2.4779e-07
2.91841e-06
1.61879e-07
2.89872e-06
1.61164e-07
1.28316e-06
5.16752e-06
5.16616e-06
3.92235e-07
5.17754e-06
5.176e-06
1.84362e-05
1.84285e-05
1.84172e-05
1.84246e-05
3.98645e-07
5.19158e-06
5.19003e-06
5.1825e-06
5.18111e-06
1.84153e-05
1.84226e-05
1.24239e-06
2.8668e-06
1.5998e-07
2.44578e-07
1.2152e-06
2.88776e-06
1.60527e-07
3.75903e-06
8.92052e-06
3.73199e-06
8.92499e-06
1.24239e-06
1.59993e-07
2.86692e-06
2.44675e-07
1.21519e-06
1.6054e-07
2.88788e-06
3.76689e-06
8.93029e-06
8.92607e-06
3.79067e-06
1.25658e-06
2.47702e-07
2.91842e-06
1.61879e-07
2.89873e-06
1.61164e-07
1.28322e-06
3.76685e-06
8.92989e-06
8.92566e-06
3.79063e-06
1.25657e-06
2.47801e-07
1.61893e-07
2.91853e-06
1.61178e-07
2.89884e-06
1.28321e-06
3.75864e-06
8.92031e-06
3.73249e-06
8.92474e-06
1.2424e-06
1.59973e-07
2.86645e-06
2.44626e-07
1.21519e-06
1.6052e-07
2.88738e-06
3.75892e-06
8.92014e-06
3.73205e-06
8.92462e-06
1.25659e-06
2.47675e-07
2.91784e-06
1.61871e-07
2.89828e-06
1.61138e-07
1.28323e-06
3.76734e-06
8.92959e-06
8.92544e-06
3.79023e-06
1.25657e-06
2.47752e-07
1.61873e-07
2.91803e-06
1.61157e-07
2.89838e-06
1.28323e-06
3.76691e-06
8.9295e-06
8.92529e-06
3.79051e-06
5.16762e-06
5.16615e-06
3.92268e-07
5.1777e-06
5.17618e-06
1.84363e-05
1.84287e-05
1.8418e-05
1.84253e-05
3.98679e-07
5.19174e-06
5.1902e-06
5.18261e-06
5.18113e-06
1.84154e-05
1.84228e-05
1.24246e-06
1.5999e-07
2.86691e-06
2.44616e-07
1.21526e-06
1.60531e-07
2.8879e-06
3.75874e-06
8.9204e-06
3.73251e-06
8.92486e-06
3.75873e-06
8.92077e-06
3.73249e-06
8.92525e-06
1.25664e-06
2.47688e-07
1.61874e-07
2.91796e-06
1.61165e-07
2.89829e-06
1.28333e-06
1.25665e-06
2.47739e-07
1.61884e-07
2.91855e-06
1.61175e-07
2.89884e-06
1.28329e-06
3.76738e-06
8.92977e-06
8.92554e-06
3.79033e-06
3.76736e-06
8.93014e-06
8.92592e-06
3.79032e-06
1.84374e-05
1.84297e-05
1.84393e-05
1.84316e-05
3.98712e-07
5.19011e-06
5.19187e-06
5.181e-06
5.18272e-06
1.84165e-05
1.84239e-05
1.84184e-05
1.84258e-05
1.84091e-05
1.84021e-05
1.84119e-05
1.84049e-05
5.19458e-06
5.19648e-06
4.21938e-07
5.20292e-06
5.20477e-06
1.83901e-05
1.83967e-05
1.83929e-05
1.83995e-05
4.28926e-07
5.21466e-06
5.21649e-06
5.20707e-06
5.20893e-06
3.81827e-06
8.92991e-06
3.79753e-06
8.93385e-06
1.32302e-06
2.92821e-06
1.62678e-07
2.57902e-07
1.29704e-06
2.94667e-06
1.63563e-07
1.32299e-06
2.92874e-06
1.62684e-07
2.5794e-07
1.29702e-06
2.94721e-06
1.63568e-07
3.82455e-06
8.93782e-06
8.93414e-06
3.84259e-06
3.8245e-06
8.93806e-06
8.93441e-06
3.84253e-06
1.33651e-06
2.6154e-07
2.97367e-06
1.65593e-07
2.95637e-06
1.64537e-07
1.36168e-06
1.33648e-06
2.61577e-07
2.97418e-06
1.65597e-07
2.95689e-06
1.64541e-07
1.36165e-06
5.19614e-06
5.19475e-06
4.21952e-07
5.20444e-06
5.20287e-06
1.84096e-05
1.84027e-05
1.83926e-05
1.83992e-05
4.28933e-07
5.21614e-06
5.21458e-06
5.20861e-06
5.2072e-06
1.83907e-05
1.83972e-05
1.32306e-06
2.92875e-06
1.62685e-07
2.5785e-07
1.2971e-06
2.94721e-06
1.6357e-07
3.81837e-06
8.93051e-06
3.79759e-06
8.93444e-06
1.32305e-06
1.627e-07
2.92885e-06
2.57957e-07
1.29708e-06
1.63584e-07
2.94732e-06
3.82459e-06
8.9391e-06
8.93542e-06
3.84269e-06
1.33656e-06
2.61488e-07
2.97421e-06
1.65601e-07
2.95691e-06
1.64544e-07
1.36174e-06
3.82455e-06
8.93868e-06
8.935e-06
3.84265e-06
1.33655e-06
2.61596e-07
1.65617e-07
2.9743e-06
1.64559e-07
2.95701e-06
1.36172e-06
3.818e-06
8.93023e-06
3.79807e-06
8.93413e-06
1.32307e-06
1.62677e-07
2.9284e-06
2.57905e-07
1.29709e-06
1.63562e-07
2.94684e-06
3.81828e-06
8.93012e-06
3.79764e-06
8.93408e-06
1.33657e-06
2.61453e-07
2.97362e-06
1.65591e-07
2.95647e-06
1.64514e-07
1.36174e-06
3.82505e-06
8.93835e-06
8.93472e-06
3.84226e-06
1.33656e-06
2.61543e-07
1.65593e-07
2.97382e-06
1.64535e-07
2.95656e-06
1.36175e-06
3.82463e-06
8.93832e-06
8.93464e-06
3.84255e-06
5.19624e-06
5.19476e-06
4.21994e-07
5.20456e-06
5.20306e-06
1.84098e-05
1.84029e-05
1.83933e-05
1.83999e-05
4.28978e-07
5.21627e-06
5.21477e-06
5.20868e-06
5.20723e-06
1.83908e-05
1.83974e-05
1.32313e-06
1.62697e-07
2.92886e-06
2.57891e-07
1.29716e-06
1.63574e-07
2.94734e-06
3.81809e-06
8.93038e-06
3.79809e-06
8.93432e-06
3.81807e-06
8.93076e-06
3.79807e-06
8.9347e-06
1.33664e-06
2.61471e-07
1.65594e-07
2.97376e-06
1.64545e-07
2.95649e-06
1.36185e-06
1.33663e-06
2.61527e-07
1.65605e-07
2.97431e-06
1.64555e-07
2.95702e-06
1.3618e-06
3.82507e-06
8.93857e-06
8.93489e-06
3.84237e-06
3.82505e-06
8.93895e-06
8.93526e-06
3.84235e-06
1.84109e-05
1.84039e-05
1.84128e-05
1.84058e-05
4.29014e-07
5.21467e-06
5.21642e-06
5.20711e-06
5.20882e-06
1.83918e-05
1.83985e-05
1.83938e-05
1.84004e-05
1.83848e-05
1.83786e-05
1.83876e-05
1.83814e-05
5.21845e-06
5.22031e-06
4.54048e-07
5.22538e-06
5.22721e-06
1.83677e-05
1.83736e-05
1.83704e-05
1.83763e-05
4.61544e-07
5.23525e-06
5.23706e-06
5.2289e-06
5.23074e-06
3.86374e-06
8.93858e-06
3.84808e-06
8.94205e-06
1.39907e-06
2.9828e-06
1.66736e-07
2.73203e-07
1.37475e-06
2.99901e-06
1.67965e-07
1.39904e-06
2.98329e-06
1.6674e-07
2.73242e-07
1.37472e-06
2.99952e-06
1.67968e-07
3.86874e-06
8.9455e-06
8.94225e-06
3.88228e-06
3.86869e-06
8.9458e-06
8.94253e-06
3.88223e-06
1.41168e-06