/*--------------------------------*- C++ -*----------------------------------*\
| =========                 |                                                 |
| \\      /  F ield         | OpenFOAM: The Open Source CFD Toolbox           |
|  \\    /   O peration     | Version:  2312                                  |
|   \\  /    A nd           | Website:  www.openfoam.com                      |
|    \\/     M anipulation  |                                                 |
\*---------------------------------------------------------------------------*/
FoamFile
{
    version     2.0;
    format      ascii;
    arch        "LSB;label=32;scalar=64";
    class       volScalarField;
    location    "625";
    object      k;
}
// * * * * * * * * * * * * * * * * * * * * * * * * * * * * * * * * * * * * * //

dimensions      [0 2 -2 0 0 0 0];

internalField   nonuniform List<scalar> 
43120
(
1.49359e-05
1.61519e-05
1.61522e-05
1.8133e-05
1.4613e-05
1.62907e-05
1.62909e-05
1.87282e-05
1.43367e-05
1.65186e-05
1.65188e-05
1.94272e-05
1.41065e-05
1.68339e-05
1.68345e-05
2.02205e-05
1.39217e-05
1.72333e-05
1.72341e-05
2.10938e-05
1.37826e-05
1.77144e-05
1.77151e-05
2.20355e-05
1.36893e-05
1.82717e-05
1.82729e-05
2.30315e-05
1.36411e-05
1.89013e-05
1.89024e-05
2.40654e-05
1.36375e-05
1.9597e-05
1.95984e-05
2.51271e-05
1.36799e-05
2.03543e-05
2.0356e-05
2.62015e-05
1.37699e-05
2.11709e-05
2.11704e-05
2.72873e-05
1.39025e-05
2.20342e-05
2.20366e-05
2.83612e-05
1.40838e-05
2.29364e-05
2.29421e-05
2.94312e-05
1.43141e-05
2.38885e-05
2.38894e-05
3.04893e-05
1.45833e-05
2.48489e-05
2.48516e-05
3.15182e-05
1.48993e-05
2.58513e-05
2.58515e-05
3.25266e-05
1.52773e-05
2.68552e-05
2.68625e-05
3.35287e-05
1.56846e-05
2.79118e-05
2.79007e-05
3.45098e-05
1.61485e-05
2.89366e-05
2.89428e-05
3.54584e-05
1.66609e-05
2.99645e-05
2.99798e-05
3.63708e-05
1.71714e-05
3.10252e-05
3.1014e-05
3.72692e-05
1.76955e-05
3.18717e-05
3.18608e-05
3.79976e-05
1.84498e-05
3.30909e-05
3.30909e-05
3.91019e-05
1.91503e-05
3.43002e-05
3.43091e-05
3.98886e-05
1.92224e-05
3.42407e-05
3.41515e-05
3.9335e-05
1.91483e-05
3.40164e-05
3.38015e-05
3.97934e-05
4.04664e-05
1.80237e-05
1.61312e-05
1.61315e-05
1.80238e-05
1.61315e-05
1.61317e-05
1.61313e-05
1.61314e-05
1.80241e-05
1.61315e-05
1.6132e-05
1.80245e-05
1.81322e-05
1.85961e-05
1.61517e-05
1.61521e-05
1.62475e-05
1.62478e-05
1.81323e-05
1.85961e-05
1.61521e-05
1.61524e-05
1.62477e-05
1.62481e-05
1.61521e-05
1.62474e-05
1.62478e-05
1.81326e-05
1.85965e-05
1.61526e-05
1.62477e-05
1.62484e-05
1.85971e-05
1.87274e-05
1.92746e-05
1.62907e-05
1.62911e-05
1.64534e-05
1.6454e-05
1.87272e-05
1.92747e-05
1.62909e-05
1.62914e-05
1.64536e-05
1.64546e-05
1.62912e-05
1.64534e-05
1.6454e-05
1.87277e-05
1.92753e-05
1.62916e-05
1.64539e-05
1.64545e-05
1.92757e-05
1.94263e-05
2.00483e-05
1.65189e-05
1.65193e-05
1.67476e-05
1.67483e-05
1.94263e-05
2.00486e-05
1.6519e-05
1.65196e-05
1.67475e-05
1.67487e-05
1.65193e-05
1.67474e-05
1.67484e-05
1.94269e-05
2.00491e-05
1.65197e-05
1.67479e-05
1.67487e-05
2.005e-05
2.0219e-05
2.09052e-05
1.68346e-05
1.68348e-05
1.71266e-05
1.71268e-05
2.02191e-05
2.09048e-05
1.68345e-05
1.68354e-05
1.71266e-05
1.71276e-05
1.6835e-05
1.71258e-05
1.71275e-05
2.02198e-05
2.09057e-05
1.68353e-05
1.71264e-05
1.71274e-05
2.09068e-05
2.10922e-05
2.18318e-05
1.7234e-05
1.72344e-05
1.75872e-05
1.75879e-05
2.10918e-05
2.18325e-05
1.72339e-05
1.72354e-05
1.75868e-05
1.75885e-05
1.72351e-05
1.75866e-05
1.75882e-05
2.10928e-05
2.18335e-05
1.7235e-05
1.75871e-05
1.7588e-05
2.18341e-05
2.20334e-05
2.28169e-05
1.7715e-05
1.77158e-05
1.81264e-05
1.81268e-05
2.2034e-05
2.28166e-05
1.77145e-05
1.77167e-05
1.81257e-05
1.81274e-05
1.77163e-05
1.81252e-05
1.81274e-05
2.20349e-05
2.28174e-05
1.77161e-05
1.81259e-05
1.81272e-05
2.28191e-05
2.30295e-05
2.3842e-05
1.8273e-05
1.82732e-05
1.87382e-05
1.87389e-05
2.30291e-05
2.38422e-05
1.82722e-05
1.82744e-05
1.87373e-05
1.874e-05
1.82744e-05
1.87371e-05
1.87397e-05
2.30301e-05
2.38434e-05
1.82738e-05
1.87381e-05
1.87384e-05
2.38441e-05
2.40634e-05
2.48967e-05
1.89024e-05
1.8903e-05
1.94185e-05
1.94195e-05
2.40638e-05
2.48965e-05
1.89014e-05
1.89043e-05
1.9417e-05
1.94204e-05
1.89038e-05
1.94171e-05
1.94203e-05
2.40648e-05
2.48978e-05
1.89026e-05
1.94182e-05
1.94194e-05
2.48995e-05
2.51245e-05
2.59674e-05
1.95987e-05
1.95996e-05
2.01617e-05
2.01619e-05
2.51241e-05
2.59671e-05
1.9597e-05
1.96005e-05
2.016e-05
2.01638e-05
1.96007e-05
2.01595e-05
2.01628e-05
2.51254e-05
2.59693e-05
1.95994e-05
2.01618e-05
2.01613e-05
2.59698e-05
2.61994e-05
2.70491e-05
2.03559e-05
2.03568e-05
2.09642e-05
2.09636e-05
2.6199e-05
2.70481e-05
2.03541e-05
2.03579e-05
2.09624e-05
2.09653e-05
2.03577e-05
2.09618e-05
2.09659e-05
2.62013e-05
2.70486e-05
2.03562e-05
2.0963e-05
2.09641e-05
2.70522e-05
2.72844e-05
2.81235e-05
2.11739e-05
2.11728e-05
2.18121e-05
2.18158e-05
2.72832e-05
2.81266e-05
2.11718e-05
2.1173e-05
2.18099e-05
2.18185e-05
2.1175e-05
2.18139e-05
2.1817e-05
2.72835e-05
2.81281e-05
2.11727e-05
2.18161e-05
2.18141e-05
2.81275e-05
2.83578e-05
2.91933e-05
2.20324e-05
2.20358e-05
2.27121e-05
2.27096e-05
2.83616e-05
2.91909e-05
2.20307e-05
2.20391e-05
2.2709e-05
2.2711e-05
2.20371e-05
2.27051e-05
2.27118e-05
2.83628e-05
2.91948e-05
2.20334e-05
2.27098e-05
2.27098e-05
2.91961e-05
2.9429e-05
3.02508e-05
2.29412e-05
2.29401e-05
2.36464e-05
2.36461e-05
2.94255e-05
3.02517e-05
2.29386e-05
2.29439e-05
2.36444e-05
2.36509e-05
2.2944e-05
2.36439e-05
2.36502e-05
2.94294e-05
3.02548e-05
2.29422e-05
2.36466e-05
2.36474e-05
3.02565e-05
3.04837e-05
3.12932e-05
2.38895e-05
2.38912e-05
2.4612e-05
2.46084e-05
3.04853e-05
3.12899e-05
2.38865e-05
2.38928e-05
2.46065e-05
2.46052e-05
2.38902e-05
2.46071e-05
2.46146e-05
3.04878e-05
3.12861e-05
2.38878e-05
2.4603e-05
2.46081e-05
3.12916e-05
3.15171e-05
3.22979e-05
2.48539e-05
2.48507e-05
2.55967e-05
2.56051e-05
3.15143e-05
3.23057e-05
2.48503e-05
2.48542e-05
2.55926e-05
2.5605e-05
2.48612e-05
2.56019e-05
2.55984e-05
3.15121e-05
3.2313e-05
2.4855e-05
2.56076e-05
2.55972e-05
3.23048e-05
3.25263e-05
3.3304e-05
2.58476e-05
2.58535e-05
2.66187e-05
2.66008e-05
3.25319e-05
3.32926e-05
2.58426e-05
2.58487e-05
2.66185e-05
2.66108e-05
2.58467e-05
2.66e-05
2.66145e-05
3.25363e-05
3.32941e-05
2.58443e-05
2.66056e-05
2.66086e-05
3.33038e-05
3.35258e-05
3.42789e-05
2.68713e-05
2.68587e-05
2.76356e-05
2.76508e-05
3.35139e-05
3.42924e-05
2.68724e-05
2.68668e-05
2.7627e-05
2.76335e-05
2.6869e-05
2.76431e-05
2.76492e-05
3.35174e-05
3.42845e-05
2.68663e-05
2.76357e-05
2.76457e-05
3.42911e-05
3.44966e-05
3.52544e-05
2.78991e-05
2.79176e-05
2.86917e-05
2.86862e-05
3.4516e-05
3.5249e-05
2.78937e-05
2.79023e-05
2.86871e-05
2.87079e-05
2.79131e-05
2.8687e-05
2.86853e-05
3.45047e-05
3.52647e-05
2.79064e-05
2.86991e-05
2.86795e-05
3.52491e-05
3.54684e-05
3.61716e-05
2.89499e-05
2.89339e-05
2.97222e-05
2.97082e-05
3.54533e-05
3.61556e-05
2.89444e-05
2.89461e-05
2.97191e-05
2.9726e-05
2.89455e-05
2.97179e-05
2.97256e-05
3.54731e-05
3.61616e-05
2.89424e-05
2.97268e-05
2.97188e-05
3.61693e-05
3.63779e-05
3.70391e-05
2.99826e-05
2.99567e-05
3.07294e-05
3.07474e-05
3.6361e-05
3.70681e-05
2.9983e-05
2.99794e-05
3.07304e-05
3.07192e-05
2.99637e-05
3.07301e-05
3.07487e-05
3.63676e-05
3.70505e-05
2.99558e-05
3.07256e-05
3.07512e-05
3.70623e-05
3.72188e-05
3.78233e-05
3.09675e-05
3.10429e-05
3.16698e-05
3.17166e-05
3.72774e-05
3.78619e-05
3.0962e-05
3.10067e-05
3.16564e-05
3.17043e-05
3.10368e-05
3.17204e-05
3.16903e-05
3.72505e-05
3.7843e-05
3.1036e-05
3.17045e-05
3.16695e-05
3.78396e-05
3.8028e-05
3.88903e-05
3.1914e-05
3.18696e-05
3.28339e-05
3.2698e-05
3.80124e-05
3.8742e-05
3.19075e-05
3.18653e-05
3.28257e-05
3.26833e-05
3.18655e-05
3.26779e-05
3.27452e-05
3.79991e-05
3.87311e-05
3.18528e-05
3.267e-05
3.27649e-05
3.88159e-05
3.91305e-05
3.96756e-05
3.31727e-05
3.3109e-05
3.39766e-05
3.41162e-05
3.90326e-05
3.98858e-05
3.31624e-05
3.3105e-05
3.3958e-05
3.41714e-05
3.31401e-05
3.41319e-05
3.40804e-05
3.90251e-05
3.99634e-05
3.31555e-05
3.41652e-05
3.40634e-05
3.98094e-05
3.97511e-05
3.93576e-05
3.41057e-05
3.42748e-05
3.41067e-05
3.43043e-05
3.99824e-05
3.95311e-05
3.40942e-05
3.43116e-05
3.41246e-05
3.43069e-05
3.42322e-05
3.43443e-05
3.42522e-05
4.00695e-05
3.94784e-05
3.42053e-05
3.43059e-05
3.42133e-05
3.93874e-05
3.93402e-05
3.94732e-05
3.39969e-05
3.4184e-05
3.38983e-05
3.38567e-05
3.94797e-05
3.91067e-05
3.40359e-05
3.4155e-05
3.38933e-05
3.36003e-05
3.41197e-05
3.38648e-05
3.38288e-05
3.93876e-05
3.84173e-05
3.40669e-05
3.36014e-05
3.37774e-05
3.92045e-05
3.99192e-05
4.42101e-05
3.41937e-05
3.40516e-05
3.82863e-05
3.85151e-05
3.95948e-05
4.46473e-05
3.41234e-05
3.3785e-05
3.82569e-05
3.89301e-05
3.40791e-05
3.84626e-05
3.87709e-05
3.88929e-05
4.54784e-05
3.40721e-05
3.90477e-05
3.89555e-05
4.50246e-05
4.03573e-05
4.63324e-05
1.50238e-05
1.50238e-05
1.50237e-05
1.50238e-05
6.96829e-05
1.6109e-05
4.4345e-05
5.35412e-05
7.00368e-05
5.29182e-05
7.0063e-05
6.96279e-05
6.96067e-05
5.35409e-05
7.00379e-05
5.2918e-05
7.00641e-05
1.49359e-05
1.49359e-05
1.49359e-05
1.46893e-05
1.46893e-05
1.46893e-05
1.46894e-05
2.93899e-05
4.52118e-05
1.49104e-05
1.61779e-05
2.88256e-05
4.5635e-05
1.48602e-05
6.9628e-05
6.96068e-05
2.93911e-05
1.49105e-05
4.52063e-05
1.61783e-05
2.88265e-05
1.48603e-05
4.56421e-05
5.9007e-05
5.90162e-05
1.82965e-05
5.92929e-05
5.93024e-05
5.4858e-05
7.00958e-05
5.43374e-05
7.01191e-05
6.95556e-05
6.95362e-05
5.4858e-05
7.0097e-05
5.43368e-05
7.01203e-05
1.46131e-05
1.46132e-05
1.46132e-05
1.44013e-05
1.44015e-05
1.44016e-05
1.44016e-05
3.10947e-05
4.64299e-05
1.47386e-05
1.63391e-05
3.05315e-05
4.68264e-05
1.47054e-05
6.95557e-05
6.95364e-05
3.10992e-05
1.47388e-05
4.64247e-05
1.63394e-05
3.05291e-05
1.47055e-05
4.68328e-05
5.96672e-05
5.96764e-05
1.89241e-05
5.9921e-05
5.99305e-05
5.59567e-05
7.0148e-05
5.55222e-05
7.01687e-05
6.94889e-05
6.94714e-05
5.59561e-05
7.01492e-05
5.55218e-05
7.01699e-05
1.43367e-05
1.43367e-05
1.43368e-05
1.41596e-05
1.41597e-05
1.41598e-05
1.41599e-05
3.27714e-05
4.75457e-05
1.4636e-05
1.65893e-05
3.2212e-05
4.79168e-05
1.46198e-05
6.94891e-05
6.94715e-05
3.27761e-05
1.46362e-05
4.75408e-05
1.65896e-05
3.22098e-05
1.462e-05
4.79226e-05
6.02529e-05
6.0262e-05
1.96513e-05
6.04803e-05
6.04896e-05
5.68714e-05
7.01935e-05
5.6509e-05
7.02116e-05
6.94278e-05
6.94121e-05
5.68722e-05
7.01948e-05
5.65078e-05
7.0213e-05
1.41063e-05
1.41064e-05
1.41066e-05
1.39636e-05
1.39636e-05
1.39637e-05
1.39638e-05
3.4386e-05
4.85674e-05
1.46032e-05
1.69261e-05
3.38395e-05
4.89135e-05
1.46056e-05
6.9428e-05
6.94122e-05
3.43913e-05
1.46037e-05
4.85631e-05
1.6927e-05
3.3838e-05
1.46061e-05
4.89194e-05
6.07777e-05
6.07868e-05
2.04688e-05
6.09808e-05
6.099e-05
5.76415e-05
7.02333e-05
5.73349e-05
7.02494e-05
6.93725e-05
6.93586e-05
5.76395e-05
7.02344e-05
5.73344e-05
7.02505e-05
1.39216e-05
1.39218e-05
1.39221e-05
1.3813e-05
1.38131e-05
1.3813e-05
1.38134e-05
3.59178e-05
4.95022e-05
1.46382e-05
1.73464e-05
3.53902e-05
4.9827e-05
1.46584e-05
6.93726e-05
6.93587e-05
3.59221e-05
1.46387e-05
4.94977e-05
1.73474e-05
3.53878e-05
1.46588e-05
4.98326e-05
6.125e-05
6.12588e-05
2.13625e-05
6.14332e-05
6.14421e-05
5.8296e-05
7.02686e-05
5.80323e-05
7.02833e-05
6.93229e-05
6.93109e-05
5.82954e-05
7.02701e-05
5.80325e-05
7.02845e-05
1.37828e-05
1.37831e-05
1.37834e-05
1.37077e-05
1.37079e-05
1.3708e-05
1.37084e-05
3.73532e-05
5.03593e-05
1.47434e-05
1.78473e-05
3.68486e-05
5.06655e-05
1.47811e-05
6.9323e-05
6.93109e-05
3.73581e-05
1.4744e-05
5.03547e-05
1.78482e-05
3.68473e-05
1.47816e-05
5.0671e-05
6.16783e-05
6.16872e-05
2.23209e-05
6.18464e-05
6.18554e-05
5.88608e-05
7.03009e-05
5.86321e-05
7.03144e-05
6.9279e-05
6.92689e-05
5.88596e-05
7.03022e-05
5.86309e-05
7.03159e-05
1.36892e-05
1.36897e-05
1.369e-05
1.36479e-05
1.36482e-05
1.36485e-05
1.36487e-05
3.86887e-05
5.11468e-05
1.49173e-05
1.8423e-05
3.82091e-05
5.14373e-05
1.49722e-05
6.92792e-05
6.92689e-05
3.86925e-05
1.49181e-05
5.11426e-05
1.84241e-05
3.82072e-05
1.49727e-05
5.14424e-05
6.20691e-05
6.20779e-05
2.33273e-05
6.2224e-05
6.2233e-05
5.93567e-05
7.03312e-05
5.91534e-05
7.03447e-05
6.92409e-05
6.92327e-05
5.93547e-05
7.03325e-05
5.91542e-05
7.03457e-05
1.3641e-05
1.36415e-05
1.36416e-05
1.36346e-05
1.36349e-05
1.36354e-05
1.36356e-05
3.99249e-05
5.18748e-05
1.51591e-05
1.90695e-05
3.94704e-05
5.21504e-05
1.52308e-05
6.9241e-05
6.92327e-05
3.99279e-05
1.516e-05
5.18709e-05
1.90709e-05
3.94684e-05
1.52315e-05
5.2155e-05
6.24299e-05
6.24386e-05
2.43688e-05
6.25736e-05
6.25827e-05
5.9798e-05
7.03607e-05
5.96177e-05
7.03741e-05
6.92084e-05
6.92024e-05
5.97974e-05
7.0362e-05
5.96171e-05
7.03752e-05
1.36378e-05
1.36383e-05
1.36386e-05
1.36653e-05
1.36652e-05
1.36661e-05
1.3666e-05
4.10678e-05
5.25493e-05
1.54673e-05
1.97808e-05
4.06365e-05
5.28112e-05
1.55552e-05
6.92085e-05
6.92024e-05
4.10683e-05
1.54686e-05
5.25466e-05
1.97828e-05
4.06369e-05
1.55563e-05
5.28146e-05
6.27641e-05
6.27722e-05
2.54331e-05
6.28977e-05
6.29063e-05
6.01986e-05
7.03909e-05
6.00337e-05
7.04044e-05
6.91821e-05
6.91784e-05
6.01975e-05
7.03923e-05
6.00331e-05
7.04057e-05
1.36802e-05
1.36807e-05
1.36808e-05
1.37426e-05
1.37426e-05
1.37437e-05
1.37437e-05
4.21239e-05
5.31779e-05
1.58408e-05
2.05524e-05
4.17167e-05
5.34285e-05
1.59445e-05
6.91821e-05
6.91782e-05
4.21251e-05
1.58427e-05
5.3178e-05
2.0554e-05
4.17199e-05
1.59457e-05
5.34282e-05
6.30765e-05
6.30852e-05
2.6509e-05
6.32051e-05
6.32139e-05
6.0564e-05
7.04222e-05
6.04109e-05
7.04365e-05
6.91617e-05
6.91599e-05
6.05634e-05
7.04236e-05
6.04103e-05
7.0438e-05
1.37698e-05
1.37697e-05
1.37706e-05
1.3864e-05
1.38657e-05
1.3867e-05
1.38667e-05
4.31049e-05
5.37696e-05
1.62786e-05
2.13818e-05
4.27214e-05
5.40068e-05
1.63979e-05
6.91619e-05
6.916e-05
4.31042e-05
1.62787e-05
5.37691e-05
2.13814e-05
4.27198e-05
1.63971e-05
5.40062e-05
6.33753e-05
6.33844e-05
2.75923e-05
6.34928e-05
6.35015e-05
6.09022e-05
7.04555e-05
6.0762e-05
7.04716e-05
6.91468e-05
6.91473e-05
6.09024e-05
7.04567e-05
6.07605e-05
7.04727e-05
1.39043e-05
1.39061e-05
1.39051e-05
1.40349e-05
1.40333e-05
1.40343e-05
1.4035e-05
4.4016e-05
5.43253e-05
1.67766e-05
2.22552e-05
4.36557e-05
5.45448e-05
1.69098e-05
6.9147e-05
6.91474e-05
4.40183e-05
1.67785e-05
5.43262e-05
2.22579e-05
4.36576e-05
1.6911e-05
5.45473e-05
6.36527e-05
6.36608e-05
2.86614e-05
6.37674e-05
6.37751e-05
6.12185e-05
7.04907e-05
6.10916e-05
7.05073e-05
6.91386e-05
6.91411e-05
6.12193e-05
7.04924e-05
6.10905e-05
7.05089e-05
1.40838e-05
1.40864e-05
1.40864e-05
1.42512e-05
1.42496e-05
1.42511e-05
1.42523e-05
4.48734e-05
5.48487e-05
1.73299e-05
2.317e-05
4.45265e-05
5.50598e-05
1.74787e-05
6.91385e-05
6.9141e-05
4.48765e-05
1.73361e-05
5.48521e-05
2.31743e-05
4.45327e-05
1.74827e-05
5.50609e-05
6.39237e-05
6.39326e-05
2.97292e-05
6.40331e-05
6.40411e-05
6.15237e-05
7.05304e-05
6.13953e-05
7.0547e-05
6.91359e-05
6.91397e-05
6.15162e-05
7.05307e-05
6.13947e-05
7.05483e-05
1.43136e-05
1.43149e-05
1.43145e-05
1.45109e-05
1.45126e-05
1.45093e-05
1.45135e-05
4.56793e-05
5.53521e-05
1.79448e-05
2.41327e-05
4.53534e-05
5.55512e-05
1.81095e-05
6.91355e-05
6.91392e-05
4.56783e-05
1.79449e-05
5.53507e-05
2.41297e-05
4.53486e-05
1.8108e-05
5.55484e-05
6.41862e-05
6.41955e-05
3.07805e-05
6.42872e-05
6.42962e-05
6.18057e-05
7.05705e-05
6.16804e-05
7.05912e-05
6.91376e-05
6.91448e-05
6.18055e-05
7.05723e-05
6.16838e-05
7.05923e-05
1.45823e-05
1.45821e-05
1.4586e-05
1.48175e-05
1.48222e-05
1.48245e-05
1.48203e-05
4.64354e-05
5.58164e-05
1.86031e-05
2.50983e-05
4.61288e-05
5.60107e-05
1.87777e-05
6.9138e-05
6.91448e-05
4.64437e-05
1.86027e-05
5.58196e-05
2.51082e-05
4.61295e-05
1.87818e-05
5.60193e-05
6.44284e-05
6.44371e-05
3.18011e-05
6.45307e-05
6.45395e-05
6.20791e-05
7.06183e-05
6.19667e-05
7.06394e-05
6.91459e-05
6.91549e-05
6.2083e-05
7.06197e-05
6.19636e-05
7.0641e-05
1.49056e-05
1.49037e-05
1.49021e-05
1.51806e-05
1.51693e-05
1.51741e-05
1.51762e-05
4.71622e-05
5.62728e-05
1.93164e-05
2.60996e-05
4.68744e-05
5.6447e-05
1.95021e-05
6.91454e-05
6.91547e-05
4.71602e-05
1.93217e-05
5.62732e-05
2.60994e-05
4.68734e-05
1.9503e-05
5.64487e-05
6.46562e-05
6.46647e-05
3.27993e-05
6.47627e-05
6.47719e-05
6.23458e-05
7.06684e-05
6.22342e-05
7.06917e-05
6.91617e-05
6.91738e-05
6.23439e-05
7.06692e-05
6.22343e-05
7.06919e-05
1.52667e-05
1.52706e-05
1.5273e-05
1.5571e-05
1.55785e-05
1.55736e-05
1.5581e-05
4.7858e-05
5.6698e-05
2.00657e-05
2.71143e-05
4.75694e-05
5.68794e-05
2.02609e-05
6.91616e-05
6.91729e-05
4.78601e-05
2.00709e-05
5.6703e-05
2.7121e-05
4.75749e-05
2.02691e-05
5.68819e-05
6.49051e-05
6.49122e-05
3.38026e-05
6.49982e-05
6.50087e-05
6.26176e-05
7.07237e-05
6.25131e-05
7.07482e-05
6.91813e-05
6.91918e-05
6.26188e-05
7.07254e-05
6.25033e-05
7.07506e-05
1.56919e-05
1.56825e-05
1.56934e-05
1.60323e-05
1.604e-05
1.60528e-05
1.60324e-05
4.85415e-05
5.71349e-05
2.08804e-05
2.81777e-05
4.82574e-05
5.73035e-05
2.10947e-05
6.91825e-05
6.91939e-05
4.85369e-05
2.08771e-05
5.71329e-05
2.81745e-05
4.82643e-05
2.1089e-05
5.73031e-05
6.51382e-05
6.51457e-05
3.47775e-05
6.52329e-05
6.52374e-05
6.28726e-05
7.07816e-05
6.27667e-05
7.08078e-05
6.92015e-05
6.92147e-05
6.28603e-05
7.07825e-05
6.27723e-05
7.08095e-05
1.61457e-05
1.61558e-05
1.61465e-05
1.65309e-05
1.65275e-05
1.65323e-05
1.65377e-05
4.91779e-05
5.75272e-05
2.17188e-05
2.91933e-05
4.89195e-05
5.76872e-05
2.19385e-05
6.92014e-05
6.92135e-05
4.9187e-05
2.17223e-05
5.7533e-05
2.91937e-05
4.89123e-05
2.19345e-05
5.76921e-05
6.53558e-05
6.53691e-05
3.5712e-05
6.54447e-05
6.54557e-05
6.31464e-05
7.0844e-05
6.30089e-05
7.08677e-05
6.92317e-05
6.92503e-05
6.31531e-05
7.08473e-05
6.30201e-05
7.08695e-05
1.6658e-05
1.66702e-05
1.66577e-05
1.70379e-05
1.70189e-05
1.70132e-05
1.70312e-05
4.97933e-05
5.79053e-05
2.25939e-05
3.02032e-05
4.95462e-05
5.80788e-05
2.27984e-05
6.92283e-05
6.92458e-05
4.9796e-05
2.25977e-05
5.79085e-05
3.02175e-05
4.9539e-05
2.28104e-05
5.80844e-05
6.55709e-05
6.55782e-05
3.66076e-05
6.56835e-05
6.5692e-05
6.33686e-05
7.08974e-05
6.32801e-05
7.09286e-05
6.92605e-05
6.92725e-05
6.33602e-05
7.08988e-05
6.3267e-05
7.09297e-05
1.71877e-05
1.71729e-05
1.71986e-05
1.75685e-05
1.7642e-05
1.76307e-05
1.76081e-05
5.04005e-05
5.83016e-05
2.34727e-05
3.13082e-05
5.01538e-05
5.84026e-05
2.37301e-05
6.92589e-05
6.92729e-05
5.03842e-05
2.34865e-05
5.82972e-05
3.12927e-05
5.01764e-05
2.37295e-05
5.83941e-05
6.57686e-05
6.57723e-05
3.75003e-05
6.57701e-05
6.57761e-05
6.36218e-05
7.09801e-05
6.35142e-05
7.10139e-05
6.92947e-05
6.93239e-05
6.36346e-05
7.09787e-05
6.35276e-05
7.10124e-05
1.77114e-05
1.77075e-05
1.76913e-05
1.82242e-05
1.8108e-05
1.80999e-05
1.81584e-05
5.08792e-05
5.85233e-05
2.43606e-05
3.20551e-05
5.06876e-05
5.86904e-05
2.45167e-05
6.92943e-05
6.93204e-05
5.09182e-05
2.43474e-05
5.85201e-05
3.20485e-05
5.06658e-05
2.45154e-05
5.8679e-05
6.58769e-05
6.58927e-05
3.8214e-05
6.60883e-05
6.61181e-05
6.39949e-05
7.10435e-05
6.38392e-05
7.10371e-05
6.93379e-05
6.93289e-05
6.39376e-05
7.10428e-05
6.38099e-05
7.10382e-05
1.83664e-05
1.83643e-05
1.84117e-05
1.90338e-05
1.91103e-05
1.91516e-05
1.90824e-05
5.17434e-05
5.9147e-05
2.5279e-05
3.35015e-05
5.135e-05
5.94309e-05
2.56623e-05
6.93355e-05
6.93316e-05
5.17208e-05
2.52909e-05
5.91305e-05
3.35213e-05
5.13633e-05
2.56696e-05
5.94365e-05
6.64971e-05
6.65158e-05
3.94714e-05
6.66576e-05
6.66594e-05
6.39952e-05
7.09752e-05
6.40518e-05
7.09569e-05
6.9239e-05
6.92157e-05
6.40761e-05
7.09858e-05
6.40632e-05
7.09755e-05
1.92612e-05
1.92926e-05
1.92189e-05
1.92384e-05
1.94064e-05
1.938e-05
1.93418e-05
5.20877e-05
5.95139e-05
2.66555e-05
3.43648e-05
5.20827e-05
5.92402e-05
2.6853e-05
6.92139e-05
6.91579e-05
5.20633e-05
2.66451e-05
5.96158e-05
3.435e-05
5.20541e-05
2.68297e-05
5.93138e-05
6.62709e-05
6.63077e-05
3.97706e-05
6.57626e-05
6.58011e-05
6.35535e-05
7.10487e-05
6.36394e-05
7.12445e-05
6.93097e-05
6.95462e-05
6.34949e-05
7.10482e-05
6.37766e-05
7.12256e-05
1.93918e-05
1.93543e-05
1.93211e-05
1.91022e-05
1.9158e-05
1.90418e-05
1.91101e-05
5.14314e-05
5.84343e-05
2.6976e-05
3.40128e-05
5.17567e-05
5.81711e-05
2.69194e-05
6.91978e-05
6.94744e-05
5.12549e-05
2.6917e-05
5.81946e-05
3.38137e-05
5.16531e-05
2.68341e-05
5.76692e-05
6.48541e-05
6.48071e-05
3.88948e-05
6.49205e-05
6.48534e-05
6.49531e-05
7.16974e-05
6.4145e-05
7.19713e-05
6.99462e-05
7.01257e-05
6.4935e-05
7.16882e-05
6.39933e-05
7.19658e-05
1.91712e-05
1.90584e-05
1.91482e-05
2.15955e-05
2.15948e-05
2.18959e-05
2.20041e-05
5.3024e-05
5.93005e-05
2.66832e-05
3.4783e-05
5.17414e-05
6.073e-05
2.68316e-05
7.00159e-05
7.02279e-05
5.34379e-05
2.65878e-05
5.93229e-05
3.48135e-05
5.18375e-05
2.68305e-05
6.117e-05
6.66605e-05
6.68139e-05
4.18074e-05
6.8059e-05
6.82783e-05
2.33521e-05
7.01654e-05
6.36575e-05
6.96425e-05
6.96446e-05
5.89508e-05
5.8962e-05
7.00324e-05
5.27898e-05
7.0029e-05
5.27886e-05
4.50084e-05
1.4963e-05
2.85376e-05
4.50104e-05
1.4963e-05
2.85372e-05
6.96441e-05
5.89562e-05
5.8952e-05
6.96429e-05
6.99966e-05
1.61091e-05
4.43506e-05
5.21123e-05
7.00335e-05
5.27898e-05
2.79779e-05
4.50118e-05
1.49632e-05
1.50218e-05
2.85381e-05
5.21114e-05
7.00289e-05
7.00012e-05
5.27889e-05
2.79777e-05
1.6117e-05
1.4963e-05
4.50119e-05
1.50216e-05
4.45599e-05
2.85379e-05
4.49996e-05
1.49633e-05
2.85381e-05
7.00319e-05
5.27901e-05
1.49632e-05
4.50055e-05
2.85379e-05
7.00281e-05
5.27892e-05
1.77822e-05
5.8592e-05
5.85854e-05
6.96814e-05
6.96441e-05
6.96662e-05
1.7879e-05
5.89577e-05
5.89513e-05
5.86533e-05
5.86469e-05
6.96426e-05
6.96647e-05
6.99998e-05
2.79787e-05
1.61168e-05
1.49634e-05
4.50065e-05
1.5022e-05
4.45577e-05
2.85391e-05
2.79786e-05
1.49634e-05
4.50135e-05
1.5022e-05
2.85385e-05
5.21129e-05
7.00321e-05
7.00045e-05
5.27906e-05
5.21122e-05
7.00294e-05
5.27897e-05
5.89491e-05
5.89586e-05
6.96428e-05
6.96445e-05
6.96263e-05
6.96051e-05
6.96284e-05
6.96073e-05
5.90085e-05
5.90197e-05
1.82953e-05
5.92954e-05
5.93062e-05
6.95692e-05
6.95895e-05
6.95714e-05
6.95916e-05
1.84155e-05
5.9619e-05
5.96293e-05
5.93495e-05
5.93603e-05
5.354e-05
7.00335e-05
5.2917e-05
7.00596e-05
2.93893e-05
4.52045e-05
1.49101e-05
1.61778e-05
2.88249e-05
4.56436e-05
1.48599e-05
2.93887e-05
4.52089e-05
1.49101e-05
1.61782e-05
2.88245e-05
4.56454e-05
1.48598e-05
5.36589e-05
7.0092e-05
7.00671e-05
5.423e-05
5.36577e-05
7.00888e-05
7.00638e-05
5.42287e-05
2.9678e-05
1.621e-05
4.62519e-05
1.47739e-05
4.58272e-05
1.48157e-05
3.02431e-05
2.96775e-05
1.62102e-05
4.62535e-05
1.47739e-05
4.58307e-05
1.48156e-05
3.02428e-05
5.9014e-05
5.901e-05
1.82956e-05
5.93006e-05
5.9296e-05
6.96265e-05
6.96055e-05
6.95707e-05
6.9591e-05
1.84157e-05
5.96233e-05
5.96187e-05
5.93546e-05
5.93503e-05
6.95696e-05
6.95897e-05
2.93897e-05
4.52086e-05
1.49102e-05
1.6178e-05
2.88255e-05
4.5647e-05
1.486e-05
5.35401e-05
7.00334e-05
5.29173e-05
7.00596e-05
2.93895e-05
1.49101e-05
4.52082e-05
1.61785e-05
2.88253e-05
1.48599e-05
4.5647e-05
5.36588e-05
7.00932e-05
7.00682e-05
5.42296e-05
2.96786e-05
1.62102e-05
4.62552e-05
1.47741e-05
4.58312e-05
1.48158e-05
3.02433e-05
5.36578e-05
7.00887e-05
7.00638e-05
5.42285e-05
2.96784e-05
1.62104e-05
1.4774e-05
4.62549e-05
1.48157e-05
4.58304e-05
3.02429e-05
5.3541e-05
7.00365e-05
5.2919e-05
7.00626e-05
2.93897e-05
1.49102e-05
4.52066e-05
1.61783e-05
2.88253e-05
1.486e-05
4.56404e-05
5.35401e-05
7.00325e-05
5.29179e-05
7.00588e-05
2.96786e-05
1.621e-05
4.62434e-05
1.47742e-05
4.58339e-05
1.4816e-05
3.02432e-05
5.36586e-05
7.00915e-05
7.00668e-05
5.42297e-05
2.96783e-05
1.62103e-05
1.47741e-05
4.62488e-05
1.48158e-05
4.58284e-05
3.0243e-05
5.36576e-05
7.00879e-05
7.0063e-05
5.42287e-05
5.90152e-05
5.9009e-05
1.8296e-05
5.93016e-05
5.92956e-05
6.96264e-05
6.96053e-05
6.95709e-05
6.95912e-05
1.84161e-05
5.96246e-05
5.96181e-05
5.93555e-05
5.93496e-05
6.95693e-05
6.95896e-05
2.93904e-05
1.49105e-05
4.52072e-05
1.61789e-05
2.88263e-05
1.48603e-05
4.5648e-05
5.35422e-05
7.00366e-05
5.29192e-05
7.00628e-05
5.3541e-05
7.00338e-05
5.29184e-05
7.00601e-05
2.96795e-05
1.62101e-05
1.47744e-05
4.625e-05
1.4816e-05
4.58286e-05
3.02462e-05
2.96794e-05
1.62108e-05
1.47744e-05
4.62563e-05
1.4816e-05
4.58289e-05
3.02435e-05
5.36598e-05
7.00918e-05
7.00669e-05
5.42298e-05
5.36587e-05
7.00892e-05
7.00642e-05
5.42288e-05
6.96266e-05
6.96054e-05
6.96283e-05
6.96071e-05
1.84166e-05
5.96161e-05
5.96256e-05
5.93469e-05
5.93562e-05
6.95695e-05
6.95897e-05
6.95712e-05
6.95915e-05
6.9554e-05
6.95347e-05
6.95562e-05
6.95369e-05
5.96697e-05
5.968e-05
1.89229e-05
5.99235e-05
5.99337e-05
6.95016e-05
6.95201e-05
6.95038e-05
6.95222e-05
1.90646e-05
6.02113e-05
6.02211e-05
5.99714e-05
5.99816e-05
5.48569e-05
7.00926e-05
5.43362e-05
7.01159e-05
3.10954e-05
4.6423e-05
1.47384e-05
1.63393e-05
3.05296e-05
4.68342e-05
1.47051e-05
3.10954e-05
4.6427e-05
1.47383e-05
1.63396e-05
3.05287e-05
4.6836e-05
1.4705e-05
5.49558e-05
7.01447e-05
7.01226e-05
5.5433e-05
5.49546e-05
7.01415e-05
7.01194e-05
5.54316e-05
3.1374e-05
1.63937e-05
4.73909e-05
1.46536e-05
4.69938e-05
1.46784e-05
3.19402e-05
3.13729e-05
1.63941e-05
4.73922e-05
1.46535e-05
4.69974e-05
1.46783e-05
3.19401e-05
5.96743e-05
5.96701e-05
1.8923e-05
5.99287e-05
5.99239e-05
6.95543e-05
6.9535e-05
6.9503e-05
6.95215e-05
1.90647e-05
6.02153e-05
6.02105e-05
5.99766e-05
5.9972e-05
6.95018e-05
6.95202e-05
3.1095e-05
4.6427e-05
1.47385e-05
1.63395e-05
3.05309e-05
4.68374e-05
1.47052e-05
5.48571e-05
7.00925e-05
5.43358e-05
7.01159e-05
3.10947e-05
1.47384e-05
4.64266e-05
1.63399e-05
3.05304e-05
1.47051e-05
4.68372e-05
5.49559e-05
7.01459e-05
7.01238e-05
5.54326e-05
3.13755e-05
1.63939e-05
4.73942e-05
1.46537e-05
4.69977e-05
1.46786e-05
3.19398e-05
5.49551e-05
7.01416e-05
7.01195e-05
5.54317e-05
3.13751e-05
1.63946e-05
1.46537e-05
4.73939e-05
1.46785e-05
4.69971e-05
3.19395e-05
5.48586e-05
7.00954e-05
5.43374e-05
7.01186e-05
3.10958e-05
1.47385e-05
4.64248e-05
1.63397e-05
3.05299e-05
1.47053e-05
4.68312e-05
5.48576e-05
7.00917e-05
5.43363e-05
7.01151e-05
3.13767e-05
1.63936e-05
4.73833e-05
1.46539e-05
4.70004e-05
1.46787e-05
3.19391e-05
5.49565e-05
7.0144e-05
7.01222e-05
5.54326e-05
3.1375e-05
1.63942e-05
1.46538e-05
4.73878e-05
1.46786e-05
4.69952e-05
3.19403e-05
5.49555e-05
7.01407e-05
7.01187e-05
5.54315e-05
5.96754e-05
5.96691e-05
1.89235e-05
5.99297e-05
5.9924e-05
6.95542e-05
6.95349e-05
6.95032e-05
6.95217e-05
1.90652e-05
6.02165e-05
6.02102e-05
5.99774e-05
5.99719e-05
6.95016e-05
6.95202e-05
3.10958e-05
1.47388e-05
4.64252e-05
1.63402e-05
3.05311e-05
1.47055e-05
4.68385e-05
5.48589e-05
7.00956e-05
5.43373e-05
7.0119e-05
5.48579e-05
7.0093e-05
5.43365e-05
7.01165e-05
3.13741e-05
1.6394e-05
1.46541e-05
4.73895e-05
1.46788e-05
4.69954e-05
3.19443e-05
3.13761e-05
1.63946e-05
1.46542e-05
4.73948e-05
1.46789e-05
4.69956e-05
3.19407e-05
5.49568e-05
7.01446e-05
7.01225e-05
5.54335e-05
5.4956e-05
7.01421e-05
7.012e-05
5.54324e-05
6.95543e-05
6.95349e-05
6.95561e-05
6.95367e-05
1.90657e-05
6.02076e-05
6.0217e-05
5.99688e-05
5.9978e-05
6.95017e-05
6.95202e-05
6.95036e-05
6.9522e-05
6.94875e-05
6.947e-05
6.94896e-05
6.94721e-05
6.02565e-05
6.02663e-05
1.96501e-05
6.04837e-05
6.0493e-05
6.94396e-05
6.94563e-05
6.94417e-05
6.94584e-05
1.98116e-05
6.07411e-05
6.07502e-05
6.05264e-05
6.05358e-05
5.59555e-05
7.01448e-05
5.55209e-05
7.01654e-05
3.27726e-05
4.75394e-05
1.46357e-05
1.65897e-05
3.22098e-05
4.79244e-05
1.46195e-05
3.27725e-05
4.75425e-05
1.46356e-05
1.659e-05
3.22086e-05
4.79259e-05
1.46194e-05
5.6038e-05
7.01909e-05
7.01716e-05
5.64353e-05
5.60368e-05
7.01874e-05
7.01683e-05
5.6434e-05
3.30321e-05
1.66661e-05
4.84339e-05
1.46029e-05
4.80623e-05
1.46106e-05
3.359e-05
3.30309e-05
1.66668e-05
4.84354e-05
1.46028e-05
4.80656e-05
1.46106e-05
3.35898e-05
6.02605e-05
6.0256e-05
1.96502e-05
6.0488e-05
6.04831e-05
6.94875e-05
6.94702e-05
6.9441e-05
6.94577e-05
1.98117e-05
6.07453e-05
6.07404e-05
6.0531e-05
6.05263e-05
6.94397e-05
6.94563e-05
3.27722e-05
4.75432e-05
1.46359e-05
1.65898e-05
3.22111e-05
4.79275e-05
1.46197e-05
5.59551e-05
7.01448e-05
5.55209e-05
7.01655e-05
3.27718e-05
1.46359e-05
4.75426e-05
1.65905e-05
3.22107e-05
1.46197e-05
4.79265e-05
5.60372e-05
7.01921e-05
7.01728e-05
5.64338e-05
3.30329e-05
1.6666e-05
4.84366e-05
1.46031e-05
4.80658e-05
1.46107e-05
3.35887e-05
5.60361e-05
7.01876e-05
7.01684e-05
5.64327e-05
3.30324e-05
1.66673e-05
1.46031e-05
4.84362e-05
1.46107e-05
4.80648e-05
3.35882e-05
5.59564e-05
7.01473e-05
5.55217e-05
7.01678e-05
3.27727e-05
1.46359e-05
4.75405e-05
1.65901e-05
3.22102e-05
1.46197e-05
4.79213e-05
5.59555e-05
7.01439e-05
5.55206e-05
7.01647e-05
3.30343e-05
1.6666e-05
4.84268e-05
1.46031e-05
4.80684e-05
1.46109e-05
3.35883e-05
5.60379e-05
7.01899e-05
7.01708e-05
5.64347e-05
3.30325e-05
1.66668e-05
1.46031e-05
4.84308e-05
1.46108e-05
4.80635e-05
3.35895e-05
5.60369e-05
7.01869e-05
7.01676e-05
5.64338e-05
6.02615e-05
6.02553e-05
1.96506e-05
6.04884e-05
6.04827e-05
6.94874e-05
6.947e-05
6.94411e-05
6.94578e-05
1.98121e-05
6.0746e-05
6.07404e-05
6.0531e-05
6.05257e-05
6.94396e-05
6.94563e-05
3.27727e-05
1.46363e-05
4.75409e-05
1.65905e-05
3.22117e-05
1.46201e-05
4.79281e-05
5.59564e-05
7.01479e-05
5.55223e-05
7.01685e-05
5.59554e-05
7.01453e-05
5.55215e-05
7.0166e-05
3.30319e-05
1.66664e-05
1.46035e-05
4.84331e-05
1.46111e-05
4.80634e-05
3.35937e-05
3.30337e-05
1.66671e-05
1.46035e-05
4.84376e-05
1.46112e-05
4.80638e-05
3.35901e-05
5.60378e-05
7.01908e-05
7.01715e-05
5.64362e-05
5.60368e-05
7.01882e-05
7.01689e-05
5.64348e-05
6.94876e-05
6.94701e-05
6.94895e-05
6.94719e-05
1.98128e-05
6.07374e-05
6.07468e-05
6.05232e-05
6.05322e-05
6.94396e-05
6.94563e-05
6.94415e-05
6.94583e-05
6.94264e-05
6.94107e-05
6.94285e-05
6.94128e-05
6.07814e-05
6.07906e-05
2.04672e-05
6.0985e-05
6.09942e-05
6.93832e-05
6.9398e-05
6.93853e-05
6.94001e-05
2.06464e-05
6.12169e-05
6.12257e-05
6.10233e-05
6.10326e-05
5.68699e-05
7.01901e-05
5.65076e-05
7.02083e-05
3.43873e-05
4.85614e-05
1.4603e-05
1.69268e-05
3.38373e-05
4.89212e-05
1.46054e-05
3.43868e-05
4.85643e-05
1.46029e-05
1.69271e-05
3.38361e-05
4.89217e-05
1.46053e-05
5.69392e-05
7.02311e-05
7.02141e-05
5.72732e-05
5.69377e-05
7.02279e-05
7.02108e-05
5.72718e-05
3.46233e-05
1.70244e-05
4.93874e-05
1.46225e-05