/*--------------------------------*- C++ -*----------------------------------*\
| =========                 |                                                 |
| \\      /  F ield         | OpenFOAM: The Open Source CFD Toolbox           |
|  \\    /   O peration     | Version:  2312                                  |
|   \\  /    A nd           | Website:  www.openfoam.com                      |
|    \\/     M anipulation  |                                                 |
\*---------------------------------------------------------------------------*/
FoamFile
{
    version     2.0;
    format      ascii;
    arch        "LSB;label=32;scalar=64";
    class       volScalarField;
    location    "625";
    object      nut;
}
// * * * * * * * * * * * * * * * * * * * * * * * * * * * * * * * * * * * * * //

dimensions      [0 2 -1 0 0 0 0];

internalField   nonuniform List<scalar> 
43120
(
0.000150129
0.000101691
0.000101689
8.25645e-05
0.000146049
9.88786e-05
9.88763e-05
8.20882e-05
0.000142031
9.6567e-05
9.65626e-05
8.21369e-05
0.000138105
9.47744e-05
9.47742e-05
8.26809e-05
0.000134277
9.34952e-05
9.34976e-05
8.36517e-05
0.00013061
9.27338e-05
9.27342e-05
8.50059e-05
0.000127144
9.24515e-05
9.24558e-05
8.66935e-05
0.000123896
9.2631e-05
9.26323e-05
8.86307e-05
0.000120889
9.32259e-05
9.32286e-05
9.07922e-05
0.000118169
9.42055e-05
9.42136e-05
9.30956e-05
0.000115809
9.55777e-05
9.55602e-05
9.55807e-05
0.000113715
9.72495e-05
9.72514e-05
9.80986e-05
0.000112
9.91376e-05
9.91798e-05
0.000100712
0.000110719
0.000101414
0.000101413
0.000103411
0.00010968
0.000103714
0.000103716
0.000106081
0.000108964
0.000106347
0.000106334
0.00010874
0.000108889
0.000108939
0.000108997
0.000111487
0.000108883
0.000112012
0.000111896
0.000114265
0.000109395
0.000114947
0.000114972
0.000117031
0.00011053
0.000117971
0.000118103
0.000119723
0.000111342
0.000121493
0.000121433
0.000122563
0.000111686
0.00012315
0.000123087
0.000124217
0.000114956
0.000127462
0.000127392
0.000128661
0.000120143
0.000135224
0.000135528
0.000133534
0.000116328
0.000131182
0.000131392
0.000126915
0.000100081
0.000116457
0.000113859
0.000118383
0.000156635
8.28515e-05
0.000102442
0.000102428
8.28483e-05
0.000102463
0.000102428
0.000102469
0.000102443
8.28446e-05
0.000102467
0.000102455
8.28399e-05
8.25738e-05
8.2256e-05
0.000101662
0.000101649
9.95065e-05
9.94937e-05
8.25718e-05
8.22521e-05
0.000101684
0.000101651
9.95269e-05
9.94939e-05
0.000101665
9.95321e-05
9.95095e-05
8.25682e-05
8.22492e-05
0.000101676
9.95325e-05
9.95207e-05
8.22468e-05
8.20966e-05
8.22013e-05
9.88499e-05
9.88383e-05
9.70672e-05
9.70588e-05
8.2093e-05
8.21994e-05
9.88698e-05
9.88383e-05
9.70874e-05
9.70601e-05
9.88546e-05
9.70956e-05
9.70732e-05
8.20898e-05
8.2197e-05
9.8865e-05
9.70965e-05
9.70835e-05
8.21923e-05
8.21458e-05
8.26423e-05
9.65395e-05
9.6529e-05
9.51493e-05
9.51431e-05
8.2144e-05
8.26426e-05
9.65596e-05
9.65269e-05
9.51673e-05
9.514e-05
9.65437e-05
9.51764e-05
9.51562e-05
8.21411e-05
8.26381e-05
9.6553e-05
9.51762e-05
9.51651e-05
8.26367e-05
8.26857e-05
8.35288e-05
9.47511e-05
9.47401e-05
9.37465e-05
9.37345e-05
8.2686e-05
8.35219e-05
9.47699e-05
9.47384e-05
9.37676e-05
9.37352e-05
9.47545e-05
9.37668e-05
9.37537e-05
8.26825e-05
8.35209e-05
9.47637e-05
9.37673e-05
9.37598e-05
8.35214e-05
8.36569e-05
8.47994e-05
9.34729e-05
9.34621e-05
9.28494e-05
9.28441e-05
8.36513e-05
8.48024e-05
9.3492e-05
9.34662e-05
9.28666e-05
9.28418e-05
9.34822e-05
9.28748e-05
9.28574e-05
8.36503e-05
8.48013e-05
9.34886e-05
9.28733e-05
9.2863e-05
8.47967e-05
8.5008e-05
8.64259e-05
9.27066e-05
9.27037e-05
9.24548e-05
9.24472e-05
8.50113e-05
8.64209e-05
9.27229e-05
9.27042e-05
9.2471e-05
9.24431e-05
9.27179e-05
9.24743e-05
9.24619e-05
8.50096e-05
8.64177e-05
9.27251e-05
9.24739e-05
9.24705e-05
8.64222e-05
8.6696e-05
8.83114e-05
9.24326e-05
9.24225e-05
9.25176e-05
9.25138e-05
8.66914e-05
8.83109e-05
9.24469e-05
9.24246e-05
9.2533e-05
9.25147e-05
9.24422e-05
9.25406e-05
9.2529e-05
8.66893e-05
8.83103e-05
9.24485e-05
9.25425e-05
9.25277e-05
8.83066e-05
8.86343e-05
9.04258e-05
9.26077e-05
9.26018e-05
9.30176e-05
9.30187e-05
8.86368e-05
9.04232e-05
9.26224e-05
9.26048e-05
9.30297e-05
9.30161e-05
9.26171e-05
9.30398e-05
9.30312e-05
8.86346e-05
9.04216e-05
9.26176e-05
9.30383e-05
9.30361e-05
9.0425e-05
9.0792e-05
9.27007e-05
9.32073e-05
9.32067e-05
9.39128e-05
9.39075e-05
9.07891e-05
9.26984e-05
9.3217e-05
9.32048e-05
9.39241e-05
9.39146e-05
9.32224e-05
9.39267e-05
9.39164e-05
9.07872e-05
9.27049e-05
9.32244e-05
9.39395e-05
9.3918e-05
9.26963e-05
9.31009e-05
9.51444e-05
9.41869e-05
9.41866e-05
9.51933e-05
9.51763e-05
9.30983e-05
9.51322e-05
9.41959e-05
9.41861e-05
9.52063e-05
9.51813e-05
9.41953e-05
9.52024e-05
9.52e-05
9.31056e-05
9.51263e-05
9.41989e-05
9.52032e-05
9.52031e-05
9.5143e-05
9.55813e-05
9.76498e-05
9.55765e-05
9.55525e-05
9.67444e-05
9.67746e-05
9.55671e-05
9.76706e-05
9.55856e-05
9.55405e-05
9.67553e-05
9.67849e-05
9.55744e-05
9.68021e-05
9.67853e-05
9.55588e-05
9.76672e-05
9.55746e-05
9.68039e-05
9.67782e-05
9.76567e-05
9.80932e-05
0.000100244
9.71922e-05
9.72194e-05
9.8648e-05
9.86222e-05
9.81209e-05
0.000100229
9.72055e-05
9.72321e-05
9.86519e-05
9.86197e-05
9.7227e-05
9.86222e-05
9.86365e-05
9.81153e-05
0.000100243
9.72129e-05
9.86517e-05
9.86386e-05
0.000100241
0.000100716
0.000102911
9.91452e-05
9.9131e-05
0.000100778
0.00010077
0.000100694
0.000102917
9.91519e-05
9.91522e-05
0.000100796
0.000100807
9.91624e-05
0.000100789
0.000100801
0.00010071
0.000102932
9.91694e-05
0.000100808
0.000100803
0.000102928
0.000103392
0.00010565
0.000101391
0.0001014
0.000103143
0.0001031
0.000103402
0.000105618
0.000101399
0.000101407
0.000103129
0.000103055
0.000101383
0.000103126
0.000103151
0.000103414
0.000105579
0.000101389
0.000103069
0.00010312
0.000105613
0.000106097
0.000108249
0.000103731
0.000103692
0.000105606
0.000105693
0.00010607
0.000108307
0.000103732
0.000103708
0.000105604
0.000105676
0.000103782
0.000105704
0.000105621
0.000106041
0.000108348
0.000103754
0.000105734
0.000105637
0.000108281
0.000108752
0.000111011
0.000106262
0.000106325
0.000108391
0.000108223
0.000108797
0.000110928
0.000106251
0.000106272
0.000108428
0.000108306
0.00010625
0.000108259
0.000108331
0.000108822
0.000110934
0.000106257
0.000108297
0.000108308
0.000110977
0.000111496
0.000113703
0.000109055
0.000108926
0.00011111
0.000111219
0.000111409
0.000113776
0.000109102
0.000108998
0.000111079
0.000111046
0.00010901
0.000111185
0.000111206
0.000111427
0.000113714
0.000109018
0.000111108
0.00011121
0.000113761
0.000114195
0.000116581
0.000111882
0.000112038
0.000114242
0.000114247
0.000114315
0.000116584
0.000111876
0.00011187
0.000114232
0.000114389
0.000111986
0.000114269
0.000114197
0.000114225
0.000116659
0.000111964
0.000114343
0.000114179
0.000116553
0.000117093
0.00011933
0.000114994
0.000114904
0.000117326
0.000117176
0.000117026
0.000119168
0.000114978
0.000114977
0.000117327
0.000117348
0.000114967
0.000117302
0.000117312
0.000117138
0.000119235
0.000114972
0.000117368
0.000117288
0.000119252
0.000119842
0.000121931
0.000118156
0.000117854
0.000120369
0.000120391
0.000119655
0.000122042
0.000118188
0.000118087
0.000120432
0.000120229
0.000117917
0.000120292
0.000120443
0.000119733
0.000121991
0.000117887
0.000120303
0.000120508
0.000122019
0.000122269
0.00012386
0.000121009
0.000121597
0.00012269
0.000123291
0.00012261
0.000124243
0.000121019
0.000121344
0.000122616
0.000123199
0.000121572
0.000123369
0.000123006
0.000122496
0.000124127
0.000121606
0.000123257
0.000122838
0.000124042
0.000124356
0.0001281
0.000123266
0.000123088
0.000126832
0.000125446
0.000124363
0.00012682
0.000123248
0.000123061
0.000126836
0.000125219
0.000122987
0.00012529
0.000125892
0.000124278
0.000126709
0.000122885
0.000125168
0.000126105
0.000127394
0.00012912
0.000132385
0.000128606
0.00012763
0.000133287
0.00013403
0.000128064
0.000133519
0.000128576
0.000127462
0.000133016
0.00013451
0.000127991
0.000134072
0.000133858
0.000127961
0.000134358
0.000128191
0.000134459
0.000133837
0.000133232
0.000132543
0.000128429
0.000133888
0.0001351
0.000131464
0.000133581
0.000133947
0.000129868
0.000133685
0.000135558
0.000131879
0.000134638
0.00013485
0.000134061
0.000133037
0.000134902
0.000130623
0.000134755
0.000134597
0.00013284
0.000128726
0.000127054
0.000119924
0.000128861
0.000130466
0.000119354
0.000118522
0.000128171
0.000117144
0.000129495
0.000131469
0.000119445
0.000115882
0.000129772
0.000118649
0.000117888
0.000128529
0.000112143
0.000129344
0.000115721
0.00011724
0.000117057
0.000120422
0.000140256
0.000118076
0.000116691
0.000139607
0.000142015
0.00011788
0.00014371
0.00011762
0.000113914
0.000139269
0.000144965
0.000116402
0.00014147
0.000143821
0.000112613
0.000148876
0.000116066
0.000145802
0.000145155
0.000146014
0.000155773
0.000154542
0.000151149
0.000151144
0.000151139
0.000151138
2.36359e-05
0.000104132
6.4495e-05
7.00563e-05
4.95559e-05
6.90781e-05
4.95651e-05
2.36274e-05
2.36238e-05
7.00533e-05
4.95504e-05
6.90768e-05
4.95597e-05
0.000150123
0.00015012
0.000150118
0.000147057
0.000147052
0.000147048
0.000147047
6.71001e-05
6.5791e-05
0.000126168
0.000100938
6.614e-05
6.64677e-05
0.000125137
2.36265e-05
2.36229e-05
6.71014e-05
0.000126151
6.57747e-05
0.000100938
6.61403e-05
0.000125139
6.64855e-05
6.10691e-05
6.10682e-05
8.24689e-05
6.15137e-05
6.15119e-05
7.20535e-05
4.95767e-05
7.12038e-05
4.9585e-05
2.36151e-05
2.36118e-05
7.20513e-05
4.95713e-05
7.12012e-05
4.95795e-05
0.000146046
0.000146042
0.000146042
0.000143016
0.000143015
0.000143011
0.000143009
7.00408e-05
6.76876e-05
0.000122224
9.82482e-05
6.90382e-05
6.83518e-05
0.000121246
2.36143e-05
2.3611e-05
7.00564e-05
0.000122207
6.76723e-05
9.82469e-05
6.9025e-05
0.000121246
6.83677e-05
6.20234e-05
6.20221e-05
8.21579e-05
6.24312e-05
6.24297e-05
7.38031e-05
4.95952e-05
7.30581e-05
4.96025e-05
2.36038e-05
2.36008e-05
7.37997e-05
4.95898e-05
7.30562e-05
4.95971e-05
0.000142027
0.000142021
0.000142022
0.000139057
0.000139055
0.00013905
0.00013905
7.30551e-05
6.94785e-05
0.000118526
9.60679e-05
7.19953e-05
7.01281e-05
0.00011761
2.3603e-05
2.36e-05
7.30702e-05
0.000118507
6.94638e-05
9.60661e-05
7.19818e-05
0.000117611
7.01417e-05
6.28988e-05
6.2897e-05
8.23522e-05
6.32733e-05
6.32715e-05
7.53383e-05
4.96113e-05
7.4684e-05
4.96177e-05
2.35934e-05
2.35907e-05
7.53384e-05
4.96059e-05
7.46799e-05
4.96123e-05
0.000138097
0.000138092
0.000138093
0.00013522
0.000135213
0.000135208
0.000135209
7.60585e-05
7.11703e-05
0.000115125
9.44082e-05
7.49624e-05
7.18005e-05
0.000114307
2.35926e-05
2.35899e-05
7.60765e-05
0.000115111
7.1157e-05
9.44118e-05
7.49522e-05
0.000114312
7.18146e-05
6.37068e-05
6.3705e-05
8.3027e-05
6.40485e-05
6.40465e-05
7.6706e-05
4.96253e-05
7.61202e-05
4.9631e-05
2.3584e-05
2.35816e-05
7.66993e-05
4.96199e-05
7.61187e-05
4.96256e-05
0.000134269
0.000134266
0.000134269
0.000131509
0.000131506
0.000131495
0.0001315
7.90039e-05
7.27636e-05
0.000112029
9.32602e-05
7.78866e-05
7.33789e-05
0.000111308
2.35832e-05
2.35808e-05
7.9017e-05
0.000112015
7.27501e-05
9.32659e-05
7.78729e-05
0.000111312
7.33923e-05
6.4453e-05
6.44507e-05
8.41128e-05
6.4767e-05
6.47644e-05
7.79321e-05
4.96378e-05
7.74002e-05
4.9643e-05
2.35756e-05
2.35735e-05
7.79292e-05
4.96325e-05
7.73999e-05
4.96376e-05
0.000130612
0.000130609
0.000130611
0.000127978
0.000127976
0.000127968
0.000127974
8.18536e-05
7.42657e-05
0.000109322
9.26236e-05
8.07288e-05
7.48683e-05
0.000108701
2.35747e-05
2.35727e-05
8.18699e-05
0.000109307
7.42521e-05
9.26259e-05
8.07194e-05
0.000108705
7.48814e-05
6.51446e-05
6.51425e-05
8.55741e-05
6.54385e-05
6.5436e-05
7.90448e-05
4.96492e-05
7.85603e-05
4.9654e-05
2.35681e-05
2.35664e-05
7.90395e-05
4.96438e-05
7.85567e-05
4.96486e-05
0.000127137
0.000127136
0.00012714
0.000124663
0.000124664
0.00012466
0.00012466
8.45955e-05
7.5682e-05
0.000107019
9.24589e-05
8.34726e-05
7.62733e-05
0.000106504
2.35673e-05
2.35655e-05
8.4607e-05
0.000107005
7.56695e-05
9.24611e-05
8.34609e-05
0.000106506
7.62858e-05
6.57883e-05
6.57858e-05
8.73348e-05
6.6063e-05
6.60604e-05
8.00643e-05
4.96599e-05
7.96152e-05
4.96647e-05
2.35616e-05
2.35602e-05
8.00581e-05
4.96545e-05
7.96169e-05
4.96592e-05
0.000123888
0.000123887
0.000123883
0.00012162
0.000121622
0.000121617
0.000121619
8.72194e-05
7.70241e-05
0.000105143
9.27454e-05
8.61042e-05
7.7602e-05
0.000104739
2.35608e-05
2.35594e-05
8.72259e-05
0.000105129
7.70119e-05
9.27481e-05
8.6092e-05
0.000104741
7.76122e-05
6.6392e-05
6.63891e-05
8.93394e-05
6.66503e-05
6.66479e-05
8.10059e-05
4.96703e-05
8.05946e-05
4.9675e-05
2.35561e-05
2.35551e-05
8.10031e-05
4.96649e-05
8.05919e-05
4.96696e-05
0.000120888
0.000120885
0.000120886
0.000118824
0.00011882
0.000118823
0.000118815
8.97258e-05
7.82943e-05
0.000103706
9.34367e-05
8.86201e-05
7.88574e-05
0.00010341
2.35553e-05
2.35542e-05
8.97163e-05
0.000103694
7.82855e-05
9.34453e-05
8.86224e-05
0.000103416
7.88639e-05
6.69586e-05
6.69551e-05
9.15423e-05
6.72003e-05
6.71972e-05
8.18871e-05
4.9681e-05
8.15007e-05
4.96857e-05
2.35516e-05
2.3551e-05
8.1883e-05
4.96756e-05
8.14983e-05
4.96803e-05
0.000118168
0.000118166
0.000118163
0.000116357
0.00011635
0.000116354
0.000116352
9.21066e-05
7.9499e-05
0.000102713
9.45041e-05
9.10351e-05
8.00498e-05
0.000102523
2.35508e-05
2.35501e-05
9.21043e-05
0.000102714
7.94997e-05
9.45124e-05
9.10535e-05
0.000102536
8.00471e-05
6.74907e-05
6.74879e-05
9.38899e-05
6.7725e-05
6.77217e-05
8.27083e-05
4.9692e-05
8.23441e-05
4.96971e-05
2.35481e-05
2.35478e-05
8.2706e-05
4.96866e-05
8.23418e-05
4.96917e-05
0.000115794
0.000115775
0.000115792
0.000114182
0.000114214
0.000114216
0.000114208
9.43923e-05
8.06549e-05
0.000102179
9.59602e-05
9.3362e-05
8.11849e-05
0.000102103
2.35473e-05
2.3547e-05
9.43786e-05
0.00010215
8.06537e-05
9.59428e-05
9.33581e-05
0.000102079
8.11803e-05
6.80057e-05
6.80035e-05
9.64031e-05
6.82202e-05
6.82168e-05
8.3483e-05
4.97037e-05
8.31457e-05
4.97094e-05
2.35456e-05
2.35457e-05
8.34817e-05
4.96983e-05
8.31398e-05
4.9704e-05
0.000113745
0.000113752
0.000113732
0.000112405
0.000112377
0.000112379
0.000112382
9.65704e-05
8.17578e-05
0.000102073
9.76918e-05
9.55915e-05
8.22491e-05
0.000102087
2.35448e-05
2.35449e-05
9.65686e-05
0.000102056
8.17591e-05
9.76962e-05
9.55988e-05
0.000102083
8.22539e-05
6.84817e-05
6.84783e-05
9.89298e-05
6.86908e-05
6.86858e-05
8.4219e-05
4.97162e-05
8.39102e-05
4.9722e-05
2.35442e-05
2.35446e-05
8.42194e-05
4.97109e-05
8.39062e-05
4.97167e-05
0.000111997
0.000112029
0.000112019
0.000110985
0.000110946
0.000110964
0.000110973
9.86764e-05
8.28016e-05
0.000102316
9.9669e-05
9.77126e-05
8.32797e-05
0.000102446
2.35433e-05
2.35438e-05
9.8686e-05
0.000102373
8.28128e-05
9.97023e-05
9.77437e-05
0.000102495
8.32842e-05
6.89463e-05
6.89438e-05
0.000101583
6.91452e-05
6.91405e-05
8.49346e-05
4.97302e-05
8.46189e-05
4.97361e-05
2.35437e-05
2.35444e-05
8.49158e-05
4.97244e-05
8.46179e-05
4.97306e-05
0.000110701
0.000110714
0.000110693
0.000109889
0.000109897
0.000109815
0.000109896
0.000100709
8.38239e-05
0.000103043
0.000102029
9.97965e-05
8.42799e-05
0.000103305
2.35428e-05
2.35435e-05
0.000100692
0.000103022
8.38227e-05
0.000101988
9.97782e-05
0.000103273
8.42715e-05
6.93959e-05
6.93938e-05
0.000104295
6.95813e-05
6.95786e-05
8.55931e-05
4.97443e-05
8.52872e-05
4.97516e-05
2.3544e-05
2.35452e-05
8.55923e-05
4.97391e-05
8.52941e-05
4.97461e-05
0.000109644
0.000109619
0.000109692
0.000109129
0.000109227
0.000109233
0.000109159
0.000102633
8.47635e-05
0.000104033
0.000104365
0.000101775
8.52118e-05
0.000104352
2.35433e-05
2.35444e-05
0.000102661
0.000103987
8.47702e-05
0.000104431
0.000101779
0.000104376
8.52339e-05
6.98075e-05
6.98041e-05
0.000106951
6.99953e-05
6.99919e-05
8.62365e-05
4.97611e-05
8.59639e-05
4.97686e-05
2.35454e-05
2.3547e-05
8.62445e-05
4.97558e-05
8.59537e-05
4.97633e-05
0.000109081
0.000109032
0.000108986
0.000108923
0.000108731
0.000108787
0.000108807
0.00010453
8.57059e-05
0.000105441
0.000106977
0.000103731
8.61012e-05
0.000105828
2.35445e-05
2.35461e-05
0.000104509
0.000105465
8.5707e-05
0.000106962
0.000103727
0.000105817
8.61033e-05
7.01871e-05
7.01834e-05
0.000109578
7.03763e-05
7.03738e-05
8.68534e-05
4.97788e-05
8.65874e-05
4.9787e-05
2.35481e-05
2.35502e-05
8.68486e-05
4.97732e-05
8.65875e-05
4.97812e-05
0.000108706
0.00010876
0.000108776
0.000108723
0.00010878
0.000108676
0.000108818
0.000106352
8.65625e-05
0.000107004
0.00010965
0.000105531
8.69822e-05
0.000107428
2.35473e-05
2.35492e-05
0.000106354
0.000107035
8.65787e-05
0.000109705
0.000105556
0.000107518
8.69896e-05
7.06036e-05
7.05969e-05
0.000112384
7.07671e-05
7.07664e-05
8.74891e-05
4.97983e-05
8.72355e-05
4.98069e-05
2.35515e-05
2.35533e-05
8.74867e-05
4.9793e-05
8.72105e-05
4.98019e-05
0.000108958
0.000108763
0.000108969
0.000109283
0.000109455
0.000109602
0.000109284
0.000108191
8.74736e-05
0.000109089
0.000112827
0.000107373
8.78709e-05
0.000109704
2.35508e-05
2.35528e-05
0.000108171
0.000109032
8.74699e-05
0.000112773
0.000107408
0.000109638
8.78669e-05
7.09859e-05
7.0982e-05
0.00011518
7.11573e-05
7.11447e-05
8.80772e-05
4.98187e-05
8.78264e-05
4.98279e-05
2.35549e-05
2.35572e-05
8.80441e-05
4.98131e-05
8.78422e-05
4.98226e-05
0.000109395
0.000109505
0.000109362
0.000110237
0.000110203
0.000110257
0.000110308
0.000109913
8.82876e-05
0.000111348
0.000115693
0.000109185
8.86578e-05
0.000112009
2.35541e-05
2.35561e-05
0.000109939
0.00011136
8.83035e-05
0.000115671
0.000109151
0.000111932
8.86725e-05
7.13432e-05
7.1348e-05
0.000117897
7.14978e-05
7.15008e-05
8.86969e-05
4.98404e-05
8.83673e-05
4.98487e-05
2.35602e-05
2.35635e-05
8.87161e-05
4.9836e-05
8.83937e-05
4.98438e-05
0.000110446
0.000110636
0.000110405
0.00011109
0.000110578
0.000110575
0.000110813
0.000111582
8.90599e-05
0.00011394
0.000118572
0.000110879
8.94886e-05
0.000114381
2.35586e-05
2.35616e-05
0.000111588
0.000113919
8.90721e-05
0.000118716
0.000110846
0.000114487
8.95076e-05
7.16924e-05
7.16879e-05
0.000120556
7.19144e-05
7.19111e-05
8.91805e-05
4.9859e-05
8.8991e-05
4.98698e-05
2.35653e-05
2.35673e-05
8.91473e-05
4.9854e-05
8.89564e-05
4.98648e-05
0.000111437
0.000111281
0.000111639
0.000111792
0.000113122
0.000112936
0.000112496
0.000113296
8.99728e-05
0.000116447
0.000122605
0.000112573
9.01987e-05
0.000117545
2.35639e-05
2.35662e-05
0.000113228
0.000116604
8.99712e-05
0.000122489
0.000112694
0.000117548
9.01863e-05
7.20714e-05
7.20539e-05
0.000123388
7.20446e-05
7.20294e-05
8.9735e-05
4.9888e-05
8.94954e-05
4.99e-05
2.35709e-05
2.3576e-05
8.97827e-05
4.9882e-05
8.95206e-05
4.98939e-05
0.000112218
0.00011216
0.000111769
0.000113404
0.000111649
0.000111401
0.000112366
0.00011429
9.02703e-05
0.000119055
0.000123129
0.00011391
9.05917e-05
0.000118743
2.35698e-05
2.35742e-05
0.000114453
0.000118901
9.02781e-05
0.000123085
0.00011379
0.00011875
9.05655e-05
7.21021e-05
7.20996e-05
0.000124855
7.2432e-05
7.24629e-05
9.07231e-05
4.99109e-05
9.02648e-05
4.99091e-05
2.35786e-05
2.35774e-05
9.05594e-05
4.99051e-05
9.02152e-05
4.9904e-05
0.000113323
0.000113068
0.000114085
0.000119456
0.000119714
0.000120294
0.000119675
0.000117368
9.1693e-05
0.000120701
0.000129902
0.000115736
9.25997e-05
0.000122937
2.35771e-05
2.35767e-05
0.000117294
0.000120818
9.16165e-05
0.000130017
0.000115831
0.000122999
9.25658e-05
7.32158e-05
7.32423e-05
0.000130984
7.37129e-05
7.37197e-05
9.09164e-05
4.98876e-05
9.10034e-05
4.98805e-05
2.35622e-05
2.35578e-05
9.10475e-05
4.98856e-05
9.09501e-05
4.98816e-05
0.000121181
0.000121821
0.000120939
0.000118411
0.000121264
0.000121736
0.000120254
0.000119172
9.32334e-05
0.000130094
0.00013553
0.000119043
9.26724e-05
0.000131677
2.35573e-05
2.35472e-05
0.000119214
0.000130127
9.36116e-05
0.000135785
0.000119004
0.000131653
9.31009e-05
7.33664e-05
7.34347e-05
0.000132863
7.25249e-05
7.25906e-05
8.92182e-05
4.99098e-05
8.98463e-05
4.99768e-05
2.35722e-05
2.36113e-05
8.9146e-05
4.99047e-05
9.02521e-05
4.99648e-05
0.000119024
0.000119683
0.000117503
0.000104076
0.000104006
0.000101303
0.000102583
0.000114649
8.9998e-05
0.000130729
0.000126517
0.000117225
8.84612e-05
0.000127591
2.35519e-05
2.35973e-05
0.00011363
0.000130411
8.96049e-05
0.00012493
0.000116802
0.000126623
8.70494e-05
7.03373e-05
7.02003e-05
0.000121135
6.97916e-05
6.95669e-05
9.13665e-05
5.01343e-05
8.97856e-05
5.02315e-05
2.36796e-05
2.3711e-05
9.1361e-05
5.01254e-05
8.93964e-05
5.02241e-05
9.97471e-05
9.69779e-05
9.86639e-05
0.000114392
0.000115056
0.000117491
0.000119377
0.000116776
8.96761e-05
0.000113629
0.000118871
0.000112909
9.29178e-05
0.000110986
2.36899e-05
2.37272e-05
0.00011825
0.000111581
8.93126e-05
0.000118111
0.000112789
0.000109906
9.38024e-05
7.19075e-05
7.20875e-05
0.000127707
7.41415e-05
7.44929e-05
0.000132782
2.37205e-05
0.000101309
2.36324e-05
2.36302e-05
6.10283e-05
6.1028e-05
4.95543e-05
6.89512e-05
4.95482e-05
6.8949e-05
6.55098e-05
0.000127146
6.568e-05
6.5502e-05
0.000127139
6.56787e-05
2.36301e-05
6.10205e-05
6.10319e-05
2.36317e-05
4.95334e-05
0.000104092
6.44971e-05
6.79045e-05
4.95488e-05
6.89492e-05
6.47483e-05
6.55065e-05
0.000127143
0.000128181
6.56793e-05
6.79026e-05
4.95449e-05
4.95351e-05
6.89477e-05
6.47474e-05
0.000103239
0.000127131
6.55035e-05
0.000128169
6.47804e-05
6.56783e-05
6.54847e-05
0.000127156
6.5679e-05
4.95501e-05
6.89582e-05
0.000127147
6.54969e-05
6.56782e-05
4.95458e-05
6.89501e-05
8.33722e-05
6.05094e-05
6.05145e-05
2.3638e-05
2.36293e-05
2.3633e-05
8.30361e-05
6.10217e-05
6.10269e-05
6.05579e-05
6.05624e-05
2.36314e-05
2.36352e-05
4.95385e-05
6.47489e-05
0.000103278
0.000127148
6.5502e-05
0.000128185
6.47879e-05
6.56796e-05
6.47474e-05
0.000127142
6.55079e-05
0.00012818
6.56783e-05
6.79006e-05
4.95499e-05
4.95401e-05
6.89557e-05
6.78988e-05
4.95442e-05
6.89536e-05
6.10233e-05
6.10215e-05
2.36301e-05
2.36289e-05
2.36296e-05
2.3626e-05
2.36274e-05
2.36239e-05
6.10743e-05
6.10738e-05
8.24769e-05
6.152e-05
6.1519e-05
2.36199e-05
2.36234e-05
2.36178e-05
2.36212e-05
8.22609e-05
6.19892e-05
6.19875e-05
6.15633e-05
6.15622e-05
7.00539e-05
4.95497e-05
6.90758e-05
4.9559e-05
6.71001e-05
6.57721e-05
0.000126151
0.00010091
6.61403e-05
6.64918e-05
0.000125133
6.70986e-05
6.57715e-05
0.000126144
0.000100898
6.61389e-05
6.64842e-05
0.000125126
7.01765e-05
4.95754e-05
4.95666e-05
7.10907e-05
7.01741e-05
4.95693e-05
4.95604e-05
7.10883e-05
6.75745e-05
0.000100195
6.74466e-05
0.000123159
6.67353e-05
0.000124152
6.85574e-05
6.75729e-05
0.000100182
6.74379e-05
0.000123153
6.67327e-05
0.000124145
6.85574e-05
6.10659e-05
6.10721e-05
8.24753e-05
6.1512e-05
6.15215e-05
2.3629e-05
2.36254e-05
2.36177e-05
2.36211e-05
8.22589e-05
6.19795e-05
6.19884e-05
6.15545e-05
6.1561e-05
2.36193e-05
2.36227e-05
6.70989e-05
6.57709e-05
0.000126148
0.000100931
6.61395e-05
6.64885e-05
0.00012513
7.00518e-05
4.95464e-05
6.90752e-05
4.95557e-05
6.70983e-05
0.000126137
6.57669e-05
0.000100899
6.61386e-05
0.000125119
6.6486e-05
7.0175e-05
4.95699e-05
4.95611e-05
7.10875e-05
6.75736e-05
0.000100215
6.7443e-05
0.000123156
6.67338e-05
0.000124149
6.85553e-05
7.01732e-05
4.9566e-05
4.95572e-05
7.10854e-05
6.75728e-05
0.00010018
0.000123145
6.74388e-05
0.000124137
6.6729e-05
6.85538e-05
7.0062e-05
4.95517e-05
6.907e-05
4.9561e-05
6.70991e-05
0.000126153
6.57732e-05
0.000100915
6.61392e-05
0.000125135
6.64786e-05
7.0054e-05
4.95474e-05
6.90757e-05
4.95567e-05
6.75737e-05
0.000100223
6.74222e-05
0.000123163
6.67525e-05
0.000124169
6.85546e-05
7.01658e-05
4.95712e-05
4.95625e-05
7.1096e-05
6.75727e-05
0.000100198
0.00012316
6.74331e-05
0.000124155
6.6734e-05
6.85538e-05
7.01715e-05
4.95669e-05
4.95581e-05
7.10879e-05
6.10673e-05
6.10722e-05
8.24723e-05
6.15121e-05
6.15181e-05
2.36287e-05
2.36251e-05
2.36168e-05
2.36203e-05
8.22563e-05
6.19804e-05
6.19853e-05
6.1555e-05
6.15605e-05
2.3619e-05
2.36224e-05
6.70997e-05
0.000126144
6.57639e-05
0.000100927
6.61387e-05
0.000125133
6.64886e-05
7.0063e-05
4.95515e-05
6.90715e-05
4.95608e-05
7.00602e-05
4.95457e-05
6.90696e-05
4.9555e-05
6.75746e-05
0.000100219
0.000123166
6.74385e-05
0.000124152
6.67372e-05
6.85646e-05
6.75736e-05
0.000100209
0.000123158
6.74428e-05
0.000124145
6.67243e-05
6.85537e-05
7.01679e-05
4.9571e-05
4.95622e-05
7.10949e-05
7.01655e-05
4.95653e-05
4.95565e-05
7.10923e-05
2.36274e-05
2.36238e-05
2.36262e-05
2.36226e-05
8.22537e-05
6.19821e-05
6.19804e-05
6.15563e-05
6.15554e-05
2.36177e-05
2.36211e-05
2.36165e-05
2.36199e-05
2.36173e-05
2.36141e-05
2.36152e-05
2.36119e-05
6.20301e-05
6.20284e-05
8.21658e-05
6.24374e-05
6.24355e-05
2.36084e-05
2.36116e-05
2.36063e-05
2.36094e-05
8.20587e-05
6.28675e-05
6.2865e-05
6.24777e-05
6.24757e-05
7.20515e-05
4.95706e-05
7.12014e-05
4.95789e-05
7.00477e-05
6.76701e-05
0.000122206
9.82225e-05
6.90338e-05
6.83738e-05
0.00012124
7.00485e-05
6.76686e-05
0.0001222
9.82096e-05
6.90303e-05
6.8366e-05
0.000121234
7.21594e-05
4.9594e-05
4.95862e-05
7.29581e-05
7.21572e-05
4.95879e-05
4.95801e-05
7.29557e-05
7.05039e-05
9.76302e-05
6.92731e-05
0.000119386
6.858e-05
0.000120322
7.15535e-05
7.05003e-05
9.76187e-05
6.92645e-05
0.000119381
6.85778e-05
0.000120317
7.15543e-05
6.20205e-05
6.2028e-05
8.21633e-05
6.24294e-05
6.24379e-05
2.36167e-05
2.36134e-05
2.36062e-05
2.36093e-05
8.20571e-05
6.28573e-05
6.28661e-05
6.24693e-05
6.24765e-05
2.36078e-05
2.36109e-05
7.00428e-05
6.76686e-05
0.000122204
9.82431e-05
6.90359e-05
6.83703e-05
0.000121238
7.20498e-05
4.95674e-05
7.11991e-05
4.95756e-05
7.0042e-05
0.000122192
6.76645e-05
9.82092e-05
6.9034e-05
0.000121226
6.83668e-05
7.21587e-05
4.95886e-05
4.95808e-05
7.29554e-05
7.05074e-05
9.76511e-05
6.92699e-05
0.000119385
6.85783e-05
0.000120321
7.15491e-05
7.21571e-05
4.95847e-05
4.95769e-05
7.29539e-05
7.05061e-05
9.76211e-05
0.000119374
6.92665e-05
0.00012031
6.85741e-05
7.15484e-05
7.20611e-05
4.95726e-05
7.11937e-05
4.95808e-05
7.00463e-05
0.000122209
6.76703e-05
9.82267e-05
6.90319e-05
0.000121243
6.83612e-05
7.20532e-05
4.95683e-05
7.11991e-05
4.95766e-05
7.05122e-05
9.76584e-05
6.92518e-05
0.000119393
6.8597e-05
0.000120342
7.15457e-05
7.21516e-05
4.95898e-05
4.95821e-05
7.29637e-05
7.05056e-05
9.76349e-05
0.00011939
6.92604e-05
0.000120327
6.85793e-05
7.15513e-05
7.21572e-05
4.95856e-05
4.95778e-05
7.29555e-05
6.20214e-05
6.20262e-05
8.21603e-05
6.24296e-05
6.2436e-05
2.36164e-05
2.36131e-05
2.36054e-05
2.36085e-05
8.20544e-05
6.2858e-05
6.28634e-05
6.24697e-05
6.2476e-05
2.36075e-05
2.36106e-05
7.00425e-05
0.0001222
6.76606e-05
9.82366e-05
6.90331e-05
0.00012124
6.83702e-05
7.20601e-05
4.95724e-05
7.1193e-05
4.95806e-05
7.20576e-05
4.95667e-05
7.11913e-05
4.9575e-05
7.04974e-05
9.76575e-05
0.000119395
6.9267e-05
0.000120325
6.85822e-05
7.1563e-05
7.05063e-05
9.76445e-05
0.000119388
6.92688e-05
0.000120318
6.85698e-05
7.15493e-05
7.21517e-05
4.95897e-05
4.95819e-05
7.29643e-05
7.21498e-05
4.9584e-05
4.95762e-05
7.29616e-05
2.36151e-05
2.36118e-05
2.36139e-05
2.36106e-05
8.20517e-05
6.28592e-05
6.28575e-05
6.24712e-05
6.24695e-05
2.36062e-05
2.36093e-05
2.3605e-05
2.36082e-05
2.3606e-05
2.36031e-05
2.36039e-05
2.36009e-05
6.29071e-05
6.29046e-05
8.23611e-05
6.32807e-05
6.32778e-05
2.35979e-05
2.36007e-05
2.35957e-05
2.35986e-05
8.23569e-05
6.3677e-05
6.36736e-05
6.33197e-05
6.33167e-05
7.3801e-05
4.95891e-05
7.30557e-05
4.95964e-05
7.30634e-05
6.94622e-05
0.000118506
9.60425e-05
7.19888e-05
7.01496e-05
0.000117604
7.30642e-05
6.94587e-05
0.000118501
9.60324e-05
7.19848e-05
7.01411e-05
0.000117599
7.38971e-05
4.96103e-05
4.96035e-05
7.45969e-05
7.38949e-05
4.96042e-05
4.95974e-05
7.45945e-05
7.34757e-05
9.55809e-05
7.09984e-05
0.000115898
7.03222e-05
0.000116766
7.45737e-05
7.34719e-05
9.55757e-05
7.09906e-05
0.000115894
7.03195e-05
0.000116763
7.45744e-05
6.28967e-05
6.29042e-05
8.23592e-05
6.32715e-05
6.32802e-05
2.36054e-05
2.36024e-05
2.35956e-05
2.35985e-05
8.2356e-05
6.36676e-05
6.36765e-05
6.33105e-05
6.33178e-05
2.35973e-05
2.36001e-05
7.3059e-05
6.94602e-05
0.000118505
9.60629e-05
7.19915e-05
7.01457e-05
0.000117603
7.37979e-05
4.95859e-05
7.30545e-05
4.95931e-05
7.30583e-05
0.000118493
6.94563e-05
9.60312e-05
7.19904e-05
0.000117592
7.01402e-05
7.38942e-05
4.96049e-05
4.95981e-05
7.45909e-05
7.34764e-05
9.55994e-05
7.09935e-05
0.000115896
7.03196e-05
0.000116762
7.45652e-05
7.3892e-05
4.9601e-05
4.95942e-05
7.45888e-05
7.34748e-05
9.55742e-05
0.000115885
7.09902e-05
0.000116752
7.03144e-05
7.45635e-05
7.38086e-05
4.9591e-05
7.30476e-05
4.95982e-05
7.30606e-05
0.000118511
6.94607e-05
9.6047e-05
7.19879e-05
0.000117609
7.01364e-05
7.38007e-05
4.95867e-05
7.30528e-05
4.95941e-05
7.34818e-05
9.56121e-05
7.09788e-05
0.000115904
7.03379e-05
0.000116786
7.45629e-05
7.38872e-05
4.9606e-05
4.95993e-05
7.46016e-05
7.34747e-05
9.55886e-05
0.000115903
7.09858e-05
0.000116771
7.03213e-05
7.45683e-05
7.38927e-05
4.96019e-05
4.95951e-05
7.45937e-05
6.28974e-05
6.29025e-05
8.23547e-05
6.32706e-05
6.32771e-05
2.36051e-05
2.36021e-05
2.35948e-05
2.35976e-05
8.23507e-05
6.36674e-05
6.3674e-05
6.33098e-05
6.33162e-05
2.3597e-05
2.35998e-05
7.30572e-05
0.000118501
6.94512e-05
9.60563e-05
7.19907e-05
0.000117605
7.01444e-05
7.38068e-05
4.95908e-05
7.30487e-05
4.95981e-05
7.38043e-05
4.95852e-05
7.30468e-05
4.95924e-05
7.34676e-05
9.56096e-05
0.000115908
7.0994e-05
0.000116769
7.03226e-05
7.4581e-05
7.34757e-05
9.55972e-05
0.000115901
7.09939e-05
0.000116762
7.03111e-05
7.45677e-05
7.38864e-05
4.9606e-05
4.95992e-05
7.46034e-05
7.38844e-05
4.96003e-05
4.95935e-05
7.46001e-05
2.36038e-05
2.36008e-05
2.36026e-05
2.35996e-05
8.23496e-05
6.36691e-05
6.36674e-05
6.33125e-05
6.33106e-05
2.35957e-05
2.35985e-05
2.35945e-05
2.35973e-05
2.35957e-05
2.3593e-05
2.35935e-05
2.35908e-05
6.37151e-05
6.37116e-05
8.30342e-05
6.40576e-05
6.40545e-05
2.35883e-05
2.35908e-05
2.35862e-05
2.35887e-05
8.31222e-05
6.44239e-05
6.44202e-05
6.4095e-05
6.40919e-05
7.53355e-05
4.96051e-05
7.46815e-05
4.96115e-05
7.60672e-05
7.11544e-05
0.000115106
9.43859e-05
7.4957e-05
7.18221e-05
0.000114301
7.60669e-05
7.11511e-05
0.000115102
9.43758e-05
7.4953e-05
7.18116e-05
0.000114297
7.54215e-05
4.96245e-05
4.96185e-05
7.6043e-05
7.54186e-05
4.96185e-05
4.96124e-05
7.60403e-05
7.64262e-05