/*--------------------------------*- C++ -*----------------------------------*\
| =========                 |                                                 |
| \\      /  F ield         | OpenFOAM: The Open Source CFD Toolbox           |
|  \\    /   O peration     | Version:  2312                                  |
|   \\  /    A nd           | Website:  www.openfoam.com                      |
|    \\/     M anipulation  |                                                 |
\*---------------------------------------------------------------------------*/
FoamFile
{
    version     2.0;
    format      ascii;
    arch        "LSB;label=32;scalar=64";
    class       surfaceScalarField;
    location    "625";
    object      phi;
}
// * * * * * * * * * * * * * * * * * * * * * * * * * * * * * * * * * * * * * //

dimensions      [0 3 -1 0 0 0 0];

oriented        oriented;

internalField   nonuniform List<scalar> 
124457
(
-8.45364e-07
-8.45769e-07
-0.00114634
4.47456e-07
4.48157e-07
0.00114714
-0.00113699
-1.51086e-06
8.4559e-07
4.10797e-07
0.00113748
-4.97172e-07
1.12546e-06
1.2622e-07
7.24008e-07
-5.38108e-07
-1.2389e-06
5.58977e-08
-0.00113686
-1.50802e-06
8.45556e-07
4.16411e-07
0.00113735
-4.94529e-07
1.12267e-06
1.23308e-07
7.23992e-07
-5.38039e-07
-1.23888e-06
5.60596e-08
-0.000276391
1.54002e-06
1.50277e-06
-4.92238e-07
-4.95208e-07
0.000274336
-8.24195e-07
-8.24589e-07
-0.00114949
4.38175e-07
4.38871e-07
0.00115026
-0.00113888
-1.50273e-06
8.24338e-07
4.02084e-07
0.00113933
-4.84296e-07
1.13155e-06
1.31421e-07
7.30357e-07
-5.21696e-07
-1.22163e-06
6.20103e-08
-0.00113875
-1.50006e-06
8.24366e-07
4.07761e-07
0.0011392
-4.81548e-07
1.12863e-06
1.28555e-07
7.30362e-07
-5.21539e-07
-1.22157e-06
6.21448e-08
-0.000276471
1.53189e-06
1.49462e-06
-4.78923e-07
-4.81852e-07
0.000274405
-8.02573e-07
-8.02836e-07
-0.00115254
4.28616e-07
4.29293e-07
0.00115329
-0.00114058
-1.49381e-06
8.02845e-07
3.94384e-07
0.00114098
-4.71277e-07
1.13674e-06
1.36167e-07
7.36585e-07
-5.05456e-07
-1.20392e-06
6.83018e-08
-0.00114045
-1.49106e-06
8.02898e-07
4.00112e-07
0.00114085
-4.68426e-07
1.1339e-06
1.33375e-07
7.36566e-07
-5.05446e-07
-1.2039e-06
6.83514e-08
-0.000276485
1.52304e-06
1.48569e-06
-4.65489e-07
-4.68415e-07
0.000274411
-7.80288e-07
-7.80803e-07
-0.00115549
4.18853e-07
4.19306e-07
0.00115622
-0.00114208
-1.48365e-06
7.80532e-07
3.86715e-07
0.00114243
-4.58234e-07
1.14177e-06
1.40903e-07
7.42838e-07
-4.89451e-07
-1.18588e-06
7.469e-08
-0.00114195
-1.48091e-06
7.80401e-07
3.92493e-07
0.0011423
-4.55362e-07
1.13895e-06
1.38184e-07
7.42874e-07
-4.89406e-07
-1.18579e-06
7.47714e-08
-0.000276439
1.51293e-06
1.47554e-06
-4.51548e-07
-4.54483e-07
0.000274357
-7.57742e-07
-7.57942e-07
-0.00115835
4.08799e-07
4.09398e-07
0.00115904
-0.00114338
-1.4727e-06
7.5807e-07
3.79185e-07
0.00114368
-4.45576e-07
1.14649e-06
1.45441e-07
7.49171e-07
-4.73755e-07
-1.16771e-06
8.11769e-08
-0.00114325
-1.46996e-06
7.58082e-07
3.84929e-07
0.00114355
-4.42764e-07
1.14366e-06
1.42678e-07
7.49165e-07
-4.73755e-07
-1.16765e-06
8.12021e-08
-0.000276339
1.50189e-06
1.46448e-06
-4.3749e-07
-4.40414e-07
0.000274251
-7.35302e-07
-7.35591e-07
-0.0011611
3.99542e-07
4.00051e-07
0.00116177
-0.00114449
-1.46092e-06
7.3551e-07
3.70749e-07
0.00114474
-4.33208e-07
1.15118e-06
1.49914e-07
7.55486e-07
-4.58504e-07
-1.14968e-06
8.76792e-08
-0.00114436
-1.45816e-06
7.35455e-07
3.76509e-07
0.0011446
-4.30383e-07
1.14833e-06
1.47119e-07
7.55521e-07
-4.58476e-07
-1.14961e-06
8.77498e-08
-0.000276192
1.49021e-06
1.45278e-06
-4.23561e-07
-4.26486e-07
0.000274099
-7.12778e-07
-7.13046e-07
-0.00116374
3.90536e-07
3.91031e-07
0.00116439
-0.0011454
-1.44847e-06
7.13015e-07
3.61637e-07
0.0011456
-4.21132e-07
1.1558e-06
1.54257e-07
7.61773e-07
-4.43723e-07
-1.132e-06
9.42302e-08
-0.00114527
-1.44576e-06
7.1292e-07
3.6745e-07
0.00114547
-4.18294e-07
1.15297e-06
1.51531e-07
7.61764e-07
-4.43718e-07
-1.13195e-06
9.42707e-08
-0.000276007
1.4777e-06
1.4403e-06
-4.09633e-07
-4.12526e-07
0.000273911
-6.90184e-07
-6.90011e-07
-0.00116628
3.81496e-07
3.82308e-07
0.00116689
-0.00114613
-1.43555e-06
6.8988e-07
3.5117e-07
0.00114629
-4.09155e-07
1.16055e-06
1.58864e-07
7.68038e-07
-4.2938e-07
-1.11472e-06
1.00853e-07
-0.001146
-1.43284e-06
6.90022e-07
3.56741e-07
0.00114615
-4.06386e-07
1.1577e-06
1.56075e-07
7.68012e-07
-4.29377e-07
-1.11467e-06
1.00879e-07
-0.000275791
1.4649e-06
1.42742e-06
-3.95956e-07
-3.98892e-07
0.000273694
-6.66213e-07
-6.66475e-07
-0.0011687
3.72429e-07
3.72882e-07
0.00116929
-0.00114668
-1.42238e-06
6.66545e-07
3.38937e-07
0.0011468
-3.97488e-07
1.16535e-06
1.63559e-07
7.74256e-07
-4.1549e-07
-1.09799e-06
1.07501e-07
-0.00114655
-1.41978e-06
6.66988e-07
3.45238e-07
0.00114666
-3.94847e-07
1.16236e-06
1.60603e-07
7.74163e-07
-4.15531e-07
-1.09793e-06
1.07466e-07
-0.000275552
1.45164e-06
1.41425e-06
-3.82648e-07
-3.85461e-07
0.000273454
-6.43969e-07
-6.44058e-07
-0.001171
3.64832e-07
3.65617e-07
0.00117156
-0.00114707
-1.40939e-06
6.43649e-07
3.26378e-07
0.00114714
-3.86354e-07
1.16986e-06
1.68044e-07
7.80285e-07
-4.02173e-07
-1.08186e-06
1.13988e-07
-0.00114694
-1.40664e-06
6.42913e-07
3.32208e-07
0.00114701
-3.83516e-07
1.16701e-06
1.65251e-07
7.80409e-07
-4.02053e-07
-1.08163e-06
1.14149e-07
-0.000275297
1.4387e-06
1.40139e-06
-3.70031e-07
-3.72783e-07
0.0002732
-6.19473e-07
-6.19585e-07
-0.00117319
3.4977e-07
3.56165e-07
0.00117372
-0.0011473
-1.39642e-06
6.20633e-07
3.13167e-07
0.00114734
-3.75478e-07
1.17432e-06
1.72512e-07
7.86058e-07
-3.8943e-07
-1.06642e-06
1.20304e-07
-0.00114717
-1.39363e-06
6.20166e-07
3.18902e-07
0.0011472
-3.72505e-07
1.17159e-06
1.69975e-07
7.86019e-07
-3.89428e-07
-1.06636e-06
1.20349e-07
-0.000275032
1.42541e-06
1.38799e-06
-3.57486e-07
-3.60369e-07
0.000272936
-5.97502e-07
-5.97118e-07
-0.00117526
3.42255e-07
3.49121e-07
0.00117576
-0.00114738
-1.38359e-06
5.95935e-07
2.97987e-07
0.00114739
-3.64862e-07
1.17883e-06
1.77096e-07
7.92019e-07
-3.76952e-07
-1.05132e-06
1.26777e-07
-0.00114725
-1.38081e-06
5.95753e-07
3.03051e-07
0.00114726
-3.62018e-07
1.17607e-06
1.74471e-07
7.92079e-07
-3.76872e-07
-1.05121e-06
1.26875e-07
-0.000274763
1.41302e-06
1.3755e-06
-3.46063e-07
-3.49017e-07
0.000272669
-5.7285e-07
-5.72554e-07
-0.0011772
3.3361e-07
3.40113e-07
0.00117767
-0.00114735
-1.37141e-06
5.74029e-07
2.84676e-07
0.00114732
-3.54867e-07
1.18279e-06
1.81393e-07
7.97519e-07
-3.65123e-07
-1.03719e-06
1.32936e-07
-0.00114721
-1.36891e-06
5.73621e-07
2.89819e-07
0.00114718
-3.52349e-07
1.17974e-06
1.78398e-07
7.97585e-07
-3.65165e-07
-1.03707e-06
1.32889e-07
-0.000274491
1.40041e-06
1.36313e-06
-3.35021e-07
-3.37747e-07
0.0002724
-5.48974e-07
-5.4975e-07
-0.00117901
3.27047e-07
3.32816e-07
0.00117945
-0.00114719
-1.35888e-06
5.48738e-07
2.64458e-07
0.00114714
-3.4405e-07
1.18753e-06
1.87121e-07
8.02896e-07
-3.53764e-07
-1.02371e-06
1.39081e-07
-0.00114706
-1.35624e-06
5.49234e-07
2.72174e-07
0.001147
-3.41533e-07
1.18437e-06
1.83787e-07
8.02611e-07
-3.5387e-07
-1.02388e-06
1.38958e-07
-0.000274223
1.38852e-06
1.3512e-06
-3.24625e-07
-3.2744e-07
0.000272135
-5.23018e-07
-5.23187e-07
-0.00118069
3.16801e-07
3.22337e-07
0.0011811
-0.00114694
-1.34834e-06
5.26251e-07
2.51052e-07
0.00114686
-3.35725e-07
1.19028e-06
1.90515e-07
8.0762e-07
-3.43197e-07
-1.01105e-06
1.44391e-07
-0.00114681
-1.34497e-06
5.28252e-07
2.55822e-07
0.00114672
-3.32282e-07
1.18812e-06
1.88358e-07
8.07627e-07
-3.43207e-07
-1.01108e-06
1.44471e-07
-0.00027396
1.37686e-06
1.33911e-06
-3.14353e-07
-3.176e-07
0.000271876
-4.99941e-07
-5.03241e-07
-0.00118225
3.13988e-07
3.1739e-07
0.00118262
-0.0011466
-1.33598e-06
4.94549e-07
2.28697e-07
0.00114651
-3.25393e-07
1.19516e-06
1.95863e-07
8.14046e-07
-3.31534e-07
-9.9777e-07
1.51782e-07
-0.00114646
-1.33372e-06
4.94949e-07
2.35953e-07
0.00114637
-3.23013e-07
1.19208e-06
1.92965e-07
8.13689e-07
-3.31636e-07
-9.9782e-07
1.5144e-07
-0.000273703
1.36601e-06
1.32854e-06
-3.05491e-07
-3.0822e-07
0.000271622
-4.76244e-07
-4.7022e-07
-0.00118366
2.94424e-07
3.07943e-07
0.00118401
-0.00114618
-1.32666e-06
4.83566e-07
2.15969e-07
0.00114607
-3.17615e-07
1.19758e-06
1.99408e-07
8.16367e-07
-3.23941e-07
-9.88122e-07
1.5465e-07
-0.00114605
-1.32328e-06
4.7788e-07
2.19795e-07
0.00114594
-3.14549e-07
1.19509e-06
1.96538e-07
8.17486e-07
-3.22778e-07
-9.87275e-07
1.56164e-07
-0.000273451
1.35488e-06
1.3185e-06
-2.97065e-07
-2.99037e-07
0.000271374
-4.55056e-07
-4.56456e-07
-0.00118496
3.00489e-07
3.05443e-07
0.00118527
-0.0011457
-1.31531e-06
4.51089e-07
1.97284e-07
0.00114557
-3.08691e-07
1.20133e-06
2.03251e-07
8.2275e-07
-3.1214e-07
-9.75215e-07
1.6203e-07
-0.00114556
-1.31246e-06
4.49771e-07
1.97745e-07
0.00114544
-3.05141e-07
1.19928e-06
2.01827e-07
8.22108e-07
-3.13157e-07
-9.75763e-07
1.61146e-07
-0.000273212
1.34519e-06
1.30719e-06
-2.87385e-07
-2.91251e-07
0.000271139
-4.16144e-07
-4.25108e-07
-0.00118612
2.92418e-07
2.85078e-07
0.00118639
-0.00114518
-1.30432e-06
4.15044e-07
1.66438e-07
0.00114506
-2.98599e-07
1.20679e-06
2.10057e-07
8.27181e-07
-3.03431e-07
-9.65586e-07
1.67883e-07
-0.00114504
-1.30307e-06
4.21192e-07
1.80652e-07
0.00114491
-2.97587e-07
1.20213e-06
2.05432e-07
8.26421e-07
-3.03923e-07
-9.65845e-07
1.66911e-07
-0.000272979
1.33351e-06
1.29649e-06
-2.79738e-07
-2.81832e-07
0.000270911
-4.08686e-07
-3.97068e-07
-0.00118714
2.71136e-07
2.82093e-07
0.00118739
-0.00114462
-1.30184e-06
4.12898e-07
1.76725e-07
0.00114448
-2.97329e-07
1.20237e-06
2.07541e-07
8.27308e-07
-2.98673e-07
-9.5827e-07
1.67471e-07
-0.0011445
-1.29559e-06
4.10783e-07
1.70771e-07
0.00114435
-2.91549e-07
1.20275e-06
2.07178e-07
8.27728e-07
-2.97757e-07
-9.58096e-07
1.68746e-07
-0.000272759
1.32957e-06
1.29256e-06
-2.76104e-07
-2.78538e-07
0.000270691
-3.56083e-07
-3.57181e-07
-0.00118808
2.52039e-07
2.53988e-07
0.00118828
-0.00114404
-1.28291e-06
3.71707e-07
1.36563e-07
0.00114389
-2.81972e-07
1.21433e-06
2.17391e-07
8.36033e-07
-2.8573e-07
-9.44822e-07
1.77541e-07
-0.00114391
-1.28368e-06
3.67734e-07
1.46035e-07
0.00114376
-2.81844e-07
1.20886e-06
2.1315e-07
8.35975e-07
-2.86126e-07
-9.4457e-07
1.76973e-07
-0.000272552
1.31225e-06
1.27653e-06
-2.62549e-07
-2.64798e-07
0.000270491
-3.63161e-07
-3.72729e-07
-0.00118887
2.9672e-07
2.83649e-07
0.00118903
-0.00114346
-1.28214e-06
3.10328e-07
1.24407e-07
0.00114334
-2.80406e-07
1.21208e-06
2.18467e-07
8.44421e-07
-2.75456e-07
-9.32555e-07
1.85539e-07
-0.00114334
-1.27919e-06
3.31977e-07
1.45203e-07
0.00114319
-2.78733e-07
1.20812e-06
2.13288e-07
8.41911e-07
-2.77229e-07
-9.34381e-07
1.82971e-07
-0.000272342
1.315e-06
1.27271e-06
-2.60991e-07
-2.66799e-07
0.000270283
-3.39739e-07
-3.25848e-07
-0.00118945
2.37674e-07
2.49651e-07
0.00118963
-0.00114276
-1.27509e-06
3.99005e-07
1.30675e-07
0.00114258
-2.77181e-07
1.21e-06
2.15095e-07
8.26143e-07
-2.83706e-07
-9.41552e-07
1.70909e-07
-0.00114264
-1.27099e-06
3.65472e-07
1.37215e-07
0.00114245
-2.72296e-07
1.20841e-06
2.14078e-07
8.34897e-07
-2.76306e-07
-9.33242e-07
1.78668e-07
-0.000272145
1.29908e-06
1.26973e-06
-2.59624e-07
-2.56395e-07
0.000270092
-2.3415e-07
-2.77923e-07
-0.00119026
1.71646e-07
1.38691e-07
0.00119046
-0.00114224
-1.26003e-06
2.53586e-07
3.58248e-08
0.0011422
-2.62013e-07
1.22283e-06
2.28466e-07
8.38999e-07
-2.69308e-07
-9.29098e-07
1.8588e-07
-0.00114208
-1.25829e-06
2.82464e-07
4.52152e-08
0.00114204
-2.57011e-07
1.22239e-06
2.31202e-07
8.23029e-07
-2.83206e-07
-9.44428e-07
1.72409e-07
-0.000272031
1.29132e-06
1.24642e-06
-2.42202e-07
-2.53475e-07
0.000269989
-3.14853e-07
-1.85488e-07
-0.00119074
1.96238e-07
3.26635e-07
0.00119072
-0.00114208
-1.27305e-06
9.97871e-08
1.67742e-07
0.00114194
-2.79351e-07
1.20423e-06
2.10159e-07
8.90026e-07
-2.28842e-07
-8.77656e-07
2.26119e-07
-0.00114217
-1.23684e-06
-4.32195e-08
-2.29129e-08
0.00114215
-2.50009e-07
1.23631e-06
2.3212e-07
9.15307e-07
-2.04767e-07
-8.57637e-07
2.55741e-07
-0.000271867
1.29792e-06
1.27198e-06
-2.51885e-07
-2.45247e-07
0.000269794
-1.27863e-07
-2.72096e-07
-0.00119058
2.99088e-07
1.42188e-07
0.00119054
-0.00114069
-1.22187e-06
4.12853e-07
1.19545e-07
0.00114007
-2.20514e-07
1.25195e-06
2.65081e-07
8.83529e-07
-2.24127e-07
-8.68136e-07
2.20418e-07
-0.00114049
-1.28521e-06
6.77024e-07
5.1189e-07
0.00113954
-2.8063e-07
1.17944e-06
2.01559e-07
8.66509e-07
-2.41681e-07
-8.77314e-07
1.96446e-07
-0.000271431
1.28242e-06
1.19924e-06
-1.92543e-07
-2.22949e-07
0.000269365
-0.00113793
-1.20406e-06
2.13005e-07
-1.99664e-07
1.24938e-06
2.71053e-07
-2.63544e-07
1.79154e-07
-1.16445e-06
-1.1239e-06
0.000276466
-0.000274366
9.14032e-08
9.67501e-08
0.00113645
8.5046e-07
4.19861e-07
-1.55313e-06
1.30579e-07
-5.058e-07
-1.24896e-06
5.42137e-08
-5.42525e-07
7.27822e-07
1.16178e-06
0.00113652
8.50329e-07
4.19665e-07
-1.55052e-06
1.30428e-07
-5.05918e-07
-1.24868e-06
5.15248e-08
-5.39629e-07
7.27839e-07
-1.12375e-06
0.000276447
-0.000274347
9.15137e-08
9.40219e-08
0.00113744
8.5088e-07
4.18668e-07
-1.51304e-06
1.24949e-07
-5.00366e-07
-1.24868e-06
5.45438e-08
-5.4237e-07
7.27912e-07
1.15623e-06
0.0011364
8.50227e-07
-0.0011359
4.19684e-07
-1.54493e-06
1.30364e-07
-5.05993e-07
-1.24867e-06
5.16171e-08
-5.3958e-07
7.27818e-07
8.50712e-07
4.24092e-07
-1.51273e-06
1.24983e-07
-5.00261e-07
-1.24315e-06
5.44012e-08
7.22402e-07
-5.42299e-07
1.15325e-06
0.00113602
8.50121e-07
4.19765e-07
-1.54191e-06
1.27755e-07
-5.02925e-07
-1.24024e-06
4.85787e-08
-5.36812e-07
7.19501e-07
-1.12101e-06
0.000276422
-0.000274333
9.16489e-08
9.66559e-08
8.50678e-07
-0.00113636
4.18678e-07
-1.50988e-06
1.22025e-07
-4.97557e-07
-1.24318e-06
5.45434e-08
7.22325e-07
-5.4225e-07
1.11539e-06
0.001137
8.50701e-07
4.185e-07
-1.50467e-06
1.24857e-07
-5.004e-07
-1.24547e-06
5.47041e-08
-5.42142e-07
7.25061e-07
-0.000274308
9.13042e-08
9.41065e-08
1.5513e-06
1.51119e-06
-4.92296e-07
-4.97852e-07
0.000274394
-1.17084e-06
-1.13032e-06
0.000276546
-0.000274452
1.00943e-07
1.06271e-07
4.17647e-07
0.00113694
-5.02812e-07
1.1661e-06
1.31636e-07
7.29437e-07
-5.3833e-07
-1.24472e-06
5.57538e-08
-1.54867e-06
8.45215e-07
4.17398e-07
0.00113701
-5.02838e-07
1.16349e-06
1.31657e-07
7.29486e-07
-5.35433e-07
-1.24437e-06
5.30276e-08
0.00113834
8.29428e-07
-0.00113788
4.10885e-07
-1.54525e-06
1.35659e-07
-4.93124e-07
-1.2318e-06
6.03434e-08
-5.25894e-07
7.34208e-07
1.16809e-06
0.00113841
8.29413e-07
-0.00113796
4.10928e-07
-1.5427e-06
1.35426e-07
-4.93344e-07
-1.2315e-06
5.76736e-08
-5.22987e-07
7.34257e-07
-4.9264e-07
-4.94828e-07
0.000274375
-1.13007e-06
0.000276527
-0.000274433
1.00972e-07
1.03446e-07
4.16427e-07
0.00113794
-4.97368e-07
1.12556e-06
1.26018e-07
7.29533e-07
-5.38183e-07
-1.24444e-06
5.60825e-08
-1.54311e-06
8.45125e-07
4.17378e-07
0.00113689
-5.0301e-07
1.15793e-06
1.31639e-07
7.29483e-07
-5.35365e-07
-1.24438e-06
5.31511e-08
0.00113934
8.29871e-07
-0.00113888
4.09573e-07
-1.50508e-06
1.30086e-07
-4.87646e-07
-1.23153e-06
6.06451e-08
-5.25773e-07
7.34294e-07
1.1625e-06
0.00113829
8.29329e-07
-0.00113784
4.10999e-07
-1.53712e-06
1.35483e-07
-4.93287e-07
-1.23155e-06
5.7742e-08
-5.22955e-07
7.34192e-07
8.45014e-07
4.17493e-07
0.00113651
-4.99795e-07
1.15499e-06
1.29007e-07
7.21076e-07
-5.32681e-07
5.0045e-08
-1.236e-06
8.29818e-07
-0.00113843
4.15289e-07
-1.50484e-06
1.30004e-07
-4.87677e-07
-1.22598e-06
6.04993e-08
7.28829e-07
-5.25724e-07
1.15962e-06
0.00113791
8.29176e-07
-0.00113746
4.10938e-07
-1.53402e-06
1.3281e-07
-4.90286e-07
-1.2231e-06
5.46957e-08
-5.20273e-07
7.25893e-07
-4.92649e-07
-4.97461e-07
0.000274361
-1.12716e-06
0.000276502
-0.000274419
1.00934e-07
1.0606e-07
8.45609e-07
4.1624e-07
0.0011375
-4.97269e-07
1.11712e-06
1.26107e-07
7.26645e-07
-5.37991e-07
5.61796e-08
-1.24122e-06
8.29886e-07
-0.0011383
4.09986e-07
-1.50213e-06
1.2714e-07
-4.8487e-07
-1.22601e-06
6.06532e-08
7.28758e-07
-5.25635e-07
1.12172e-06
0.0011389
8.29759e-07
-0.00113844
4.09577e-07
-1.49675e-06
1.29917e-07
-4.87752e-07
-1.22831e-06
6.08328e-08
-5.25505e-07
7.31459e-07
-0.000274394
1.00769e-07
1.03607e-07
1.54317e-06
1.50299e-06
-4.78903e-07
-4.8448e-07
0.000274463
-1.17628e-06
-1.13572e-06
0.000276561
-0.000274473
1.09603e-07
1.14953e-07
4.08912e-07
0.00113878
-4.89915e-07
1.17223e-06
1.36829e-07
7.35787e-07
-5.21805e-07
-1.22746e-06
6.18824e-08
-1.5406e-06
8.24017e-07
4.08738e-07
0.00113885
-4.89965e-07
1.16956e-06
1.36833e-07
7.35836e-07
-5.18912e-07
-1.22708e-06
5.91613e-08
0.00114003
8.08007e-07
-0.00113963
4.02946e-07
-1.53654e-06
1.40633e-07
-4.80002e-07
-1.21421e-06
6.64785e-08
-5.09756e-07
7.40443e-07
1.17353e-06
0.00114011
8.07978e-07
-0.0011397
4.03099e-07
-1.53398e-06
1.40434e-07
-4.80121e-07
-1.21392e-06
6.37848e-08
-5.06889e-07
7.40445e-07
-4.79306e-07
-4.81539e-07
0.000274444
-1.13548e-06
0.000276541
-0.000274454
1.09669e-07
1.12139e-07
4.0765e-07
0.00113978
-4.8443e-07
1.13171e-06
1.31263e-07
7.35878e-07
-5.21694e-07
-1.22719e-06
6.21822e-08
-1.53506e-06
8.23936e-07
4.08749e-07
0.00113874
-4.89963e-07
1.16396e-06
1.36893e-07
7.35796e-07
-5.18842e-07
-1.22712e-06
5.92348e-08
0.00114104
8.08241e-07
-0.00114063
4.01812e-07
-1.49637e-06
1.35049e-07
-4.7454e-07
-1.21389e-06
6.68195e-08
-5.09598e-07
7.40579e-07
1.16797e-06
0.00113999
8.07698e-07
-0.00113958
4.03204e-07
-1.5284e-06
1.40563e-07
-4.80042e-07
-1.21393e-06
6.37898e-08
-5.0685e-07
7.40439e-07
8.23733e-07
4.08719e-07
0.00113836
-4.86901e-07
1.16111e-06
1.34212e-07
7.27429e-07
-5.1626e-07
5.62157e-08
-1.21876e-06
8.08392e-07
-0.00114018
4.07363e-07
-1.49611e-06
1.34997e-07
-4.74473e-07
-1.20838e-06
6.67119e-08
7.3505e-07
-5.09514e-07
1.165e-06
0.00113961
8.07824e-07
-0.0011392
4.03035e-07
-1.52532e-06
1.37726e-07
-4.7714e-07
-1.20552e-06
6.09573e-08
-5.04061e-07
7.32108e-07
-4.79461e-07
-4.84218e-07
0.00027443
-1.13266e-06
0.000276516
-0.00027444
1.09697e-07
1.14774e-07
8.24459e-07
4.07447e-07
0.00113934
-4.84364e-07
1.1232e-06
1.31322e-07
7.32985e-07
-5.21442e-07
6.23009e-08
-1.22395e-06
8.08337e-07
-0.00114005
4.01905e-07
-1.49334e-06
1.32262e-07
-4.71599e-07
-1.2084e-06
6.67767e-08
7.34998e-07
-5.09498e-07
1.12713e-06
0.0011406
8.0829e-07
-0.00114019
4.01893e-07
-1.488e-06
1.34888e-07
-4.74575e-07
-1.21074e-06
6.68604e-08
-5.09421e-07
7.37669e-07
-0.000274415
1.09442e-07
1.12283e-07
1.53421e-06
1.49403e-06
-4.65439e-07
-4.70979e-07
0.000274469
-1.18119e-06
-1.14067e-06
0.000276515
-0.000274434
1.17862e-07
1.23178e-07
4.01098e-07
0.00114043
-4.76784e-07
1.17754e-06
1.41791e-07
7.4205e-07
-5.05674e-07
-1.20972e-06
6.8112e-08
-1.53168e-06
8.02471e-07
4.01168e-07
0.0011405
-4.76922e-07
1.17479e-06
1.41601e-07
7.42032e-07
-5.02817e-07
-1.20942e-06
6.53872e-08
0.00114153
7.85955e-07
-0.00114118
3.9581e-07
-1.52685e-06
1.45198e-07
-4.67138e-07
-1.19617e-06
7.28362e-08
-4.93662e-07
7.46727e-07
1.17861e-06
0.00114161
7.85639e-07
-0.00114125
3.95452e-07
-1.52418e-06
1.45266e-07
-4.67059e-07
-1.19583e-06
7.01727e-08
-4.90769e-07
7.46768e-07
-4.65834e-07
-4.68065e-07
0.00027445
-1.14059e-06
0.000276495
-0.000274415
1.1808e-07
1.20521e-07
3.99954e-07
0.00114143
-4.71321e-07
1.13697e-06
1.3621e-07
7.42185e-07
-5.05522e-07
-1.2094e-06
6.84359e-08
-1.52612e-06
8.02248e-07
4.01433e-07
0.00114038
-4.76866e-07
1.1692e-06
1.41671e-07
7.42042e-07
-5.02806e-07
-1.2094e-06
6.53789e-08
0.00114254
7.86482e-07
-0.00114218
3.94528e-07
-1.48662e-06
1.39673e-07
-4.61632e-07
-1.19592e-06
7.30796e-08
-4.93586e-07
7.46783e-07
1.17304e-06
0.00114149
7.85616e-07
-0.00114113
3.95546e-07
-1.51864e-06
1.45403e-07
-4.67024e-07
-1.19584e-06
7.00855e-08
-4.90837e-07
7.46731e-07
8.02328e-07
4.01149e-07
0.00114
-4.7395e-07
1.16625e-06
1.38891e-07
7.33669e-07
-5.00009e-07
6.25405e-08
-1.20104e-06
7.86131e-07
-0.00114173
3.99702e-07
-1.48627e-06
1.39861e-07
-4.61395e-07
-1.19035e-06
7.30532e-08
7.41314e-07
-4.9343e-07
1.17007e-06
0.00114111
7.85735e-07
-0.00114075
3.95509e-07
-1.51552e-06
1.4257e-07
-4.64057e-07
-1.18753e-06
6.72846e-08
-4.88008e-07
7.38331e-07
-4.65911e-07
-4.7071e-07
0.000274436
-1.13771e-06
0.00027647
-0.000274401
1.18049e-07
1.23147e-07
8.02871e-07
3.99987e-07
0.00114099
-4.71365e-07
1.1284e-06
1.36074e-07
7.39259e-07
-5.05393e-07
6.84391e-08
-1.20624e-06
7.85954e-07
-0.0011416
3.94335e-07
-1.48358e-06
1.37078e-07
-4.58617e-07
-1.19032e-06
7.31476e-08
7.4132e-07
-4.93392e-07
1.13224e-06
0.00114209
7.86073e-07
-0.00114174
3.94335e-07
-1.47814e-06
1.39775e-07
-4.61448e-07
-1.1927e-06
7.31749e-08
-4.93398e-07
7.43939e-07
-0.000274375
1.1786e-07
1.20675e-07
1.52429e-06
1.48404e-06
-4.51675e-07
-4.57238e-07
0.000274415
-1.1861e-06
-1.14551e-06
0.000276415
-0.000274341
1.25895e-07
1.31292e-07
3.93942e-07
0.00114188
-4.64019e-07
1.18237e-06
1.46273e-07
7.48342e-07
-4.89656e-07
-1.19163e-06
7.44993e-08
-1.52158e-06
7.80046e-07
3.93571e-07
0.00114195
-4.63896e-07
1.17979e-06
1.46311e-07
7.48319e-07
-4.86791e-07
-1.19133e-06
7.17893e-08
0.00114283
7.63472e-07
-0.00114253
3.87816e-07
-1.51599e-06
1.49876e-07
-4.54282e-07
-1.17804e-06
7.93183e-08
-4.7789e-07
7.53017e-07
1.18334e-06
0.00114291
7.633e-07
-0.0011426
3.8796e-07
-1.51349e-06
1.49754e-07
-4.54422e-07
-1.17769e-06
7.66254e-08
-4.75006e-07
7.53068e-07
-4.51893e-07
-4.54147e-07
0.000274396
-1.1453e-06
0.000276396
-0.000274321
1.26004e-07
1.28461e-07
3.92551e-07
0.00114288
-4.58505e-07
1.14185e-06
1.40759e-07
7.4839e-07
-4.89588e-07
-1.1914e-06
7.47508e-08
-1.51596e-06
7.80103e-07
3.93707e-07
0.00114183
-4.63749e-07
1.17429e-06
1.4652e-07
7.48239e-07
-4.86884e-07
-1.19137e-06
7.17002e-08
0.00114384
7.63628e-07
-0.00114353
3.86772e-07
-1.4758e-06
1.44291e-07
-4.4884e-07
-1.17766e-06
7.96631e-08
-4.7771e-07
7.53215e-07
1.17769e-06
0.00114279
7.6308e-07
-0.00114248
3.88234e-07
-1.50799e-06
1.49736e-07
-4.54488e-07
-1.1776e-06
7.66782e-08
-4.7496e-07
7.53163e-07
7.80172e-07
3.93699e-07
0.00114145
-4.60942e-07
1.17123e-06
1.43564e-07
7.39878e-07
-4.84049e-07
6.8916e-08
-1.18305e-06
7.63706e-07
-0.00114308
3.9227e-07
-1.47558e-06
1.4433e-07
-4.48778e-07
-1.17218e-06
7.95535e-08
7.47657e-07
-4.77625e-07
1.17488e-06
0.00114241
7.63195e-07
-0.0011421
3.87711e-07
-1.50478e-06
1.47137e-07
-4.51371e-07
-1.16934e-06
7.38054e-08
-4.72217e-07
7.44697e-07
-4.51977e-07
-4.56737e-07
0.000274382
-1.14243e-06
0.00027637
-0.000274307
1.25977e-07
1.31006e-07
7.80499e-07
3.92488e-07
0.00114244
-4.58331e-07
1.1334e-06
1.40767e-07
7.4552e-07
-4.89399e-07
7.48371e-08
-1.18819e-06
7.6358e-07
-0.00114295
3.86922e-07
-1.47288e-06
1.41486e-07
-4.46041e-07
-1.17214e-06
7.96166e-08
7.47652e-07
-4.77602e-07
1.13703e-06
0.0011434
7.6346e-07
-0.00114309
3.86632e-07
-1.4674e-06
1.44338e-07
-4.48779e-07
-1.17447e-06
7.96879e-08
-4.77565e-07
7.50316e-07
-0.000274282
1.25849e-07
1.28676e-07
1.5132e-06
1.47301e-06
-4.37638e-07
-4.43101e-07
0.00027431
-1.19061e-06
-1.1501e-06
0.000276268
-0.0002742
1.33558e-07
1.38885e-07
3.85985e-07
0.00114313
-4.51226e-07
1.18719e-06
1.50857e-07
7.54658e-07
-4.73962e-07
-1.17349e-06
8.10065e-08
-1.51061e-06
7.57653e-07
3.85971e-07
0.0011432
-4.51202e-07
1.18454e-06
1.50879e-07
7.5462e-07
-4.71148e-07
-1.17319e-06
7.82416e-08
0.00114394
7.41169e-07
-0.00114368
3.80092e-07
-1.50454e-06
1.54149e-07
-4.42025e-07
-1.15994e-06
8.58437e-08
-4.62497e-07
7.59364e-07
1.18796e-06
0.00114401
7.40976e-07
-0.00114375
3.79945e-07
-1.50191e-06
1.54108e-07
-4.42013e-07
-1.15963e-06
8.31163e-08
-4.59679e-07
7.59378e-07
-4.3792e-07
-4.40152e-07
0.00027429
-1.14992e-06
0.000276249
-0.000274181
1.33667e-07
1.36144e-07
3.84812e-07
0.00114413
-4.45778e-07
1.14661e-06
1.45302e-07
7.54825e-07
-4.73813e-07
-1.17312e-06
8.13215e-08
-1.5051e-06
7.57573e-07
3.86348e-07
0.00114308
-4.51227e-07
1.17891e-06
1.50923e-07
7.54663e-07
-4.71131e-07
-1.17309e-06
7.82386e-08
0.00114494
7.41386e-07
-0.00114469
3.78971e-07
-1.46429e-06
1.48643e-07
-4.36528e-07
-1.15968e-06
8.61276e-08
-4.62394e-07
7.59448e-07
1.18239e-06
0.00114389
7.40636e-07
-0.00114363
3.79913e-07
-1.49633e-06
1.54206e-07
-4.41962e-07
-1.15964e-06
8.31755e-08
-4.59643e-07
7.59382e-07
7.57524e-07
3.85785e-07
0.0011427
-4.48171e-07
1.17605e-06
1.4821e-07
7.4624e-07
-4.68356e-07
7.54389e-08
-1.16486e-06
7.41154e-07
-0.00114423
3.84231e-07
-1.46401e-06
1.48679e-07
-4.3639e-07
-1.15409e-06
8.61032e-08
7.54005e-07
-4.62224e-07
1.17937e-06
0.00114351
7.40863e-07
-0.00114325
3.79994e-07
-1.49332e-06
1.51344e-07
-4.39135e-07
-1.1513e-06
8.03599e-08
-4.56839e-07
7.51018e-07
-4.38011e-07
-4.42853e-07
0.000274276
-1.1471e-06
0.000276223
-0.000274166
1.33681e-07
1.38756e-07
7.57882e-07
3.84562e-07
0.00114369
-4.45546e-07
1.13824e-06
1.45448e-07
7.51828e-07
-4.73715e-07
8.13043e-08
-1.17002e-06
7.41078e-07
-0.0011441
3.78654e-07
-1.46124e-06
1.45927e-07
-4.33548e-07
-1.1541e-06
8.61642e-08
7.53978e-07
-4.62218e-07
1.14157e-06
0.0011445
7.41338e-07
-0.00114424
3.78889e-07
-1.45589e-06
1.48583e-07
-4.36502e-07
-1.15654e-06
8.61778e-08
-4.6223e-07
7.56645e-07
-0.000274141
1.33447e-07
1.36235e-07
1.50149e-06
1.46122e-06
-4.23608e-07
-4.29125e-07
0.000274158
-1.1954e-06
-1.15487e-06
0.000276083
-0.00027402
1.41073e-07
1.46431e-07
3.77833e-07
0.00114418
-4.38853e-07
1.1918e-06
1.55356e-07
7.60965e-07
-4.5873e-07
-1.15545e-06
8.74847e-08
-1.49882e-06
7.35077e-07
3.77575e-07
0.00114426
-4.38833e-07
1.18921e-06
1.5533e-07
7.60936e-07
-4.55933e-07
-1.15516e-06
8.47445e-08
0.00114485
7.18326e-07
-0.00114464
3.70809e-07
-1.49205e-06
1.58646e-07
-4.29667e-07
-1.1422e-06
9.24333e-08
-4.47587e-07
7.65633e-07
1.1927e-06
0.00114492
7.18111e-07
-0.00114471
3.70594e-07
-1.48949e-06
1.58599e-07
-4.29695e-07
-1.14181e-06
8.97295e-08
-4.4474e-07
7.657e-07
-4.2391e-07
-4.26133e-07
0.000274139
-1.1547e-06
0.000276063
-0.000274001
1.41198e-07
1.43645e-07
3.76522e-07
0.00114519
-4.33342e-07
1.15131e-06
1.49871e-07
7.61089e-07
-4.58609e-07
-1.15517e-06
8.77939e-08
-1.49325e-06
7.3504e-07
3.77736e-07
0.00114414
-4.38782e-07
1.18363e-06
1.55411e-07
7.60931e-07
-4.55902e-07
-1.15515e-06
8.47678e-08
0.00114586
7.18438e-07
-0.00114565
3.69605e-07
-1.45182e-06
1.53143e-07
-4.24187e-07
-1.14186e-06
9.27332e-08
-4.47447e-07
7.65775e-07
1.18705e-06
0.0011448
7.18093e-07
-0.00114459
3.70911e-07
-1.48399e-06
1.58627e-07
-4.29725e-07
-1.14181e-06
8.97254e-08
-4.44743e-07
7.6568e-07
7.35116e-07
3.77602e-07
0.00114375
-4.35886e-07
1.18064e-06
1.52631e-07
7.52556e-07
-4.53118e-07
8.19474e-08
-1.14685e-06
7.18301e-07
-0.0011452
3.7496e-07
-1.45157e-06
1.53185e-07
-4.24062e-07
-1.13632e-06
9.26771e-08
7.60305e-07
-4.47316e-07
1.1842e-06
0.00114442
7.1812e-07
-0.00114421
3.70586e-07
-1.4808e-06
1.55911e-07
-4.26709e-07
-1.1336e-06
8.69234e-08
-4.41979e-07
7.57256e-07
-4.23991e-07
-4.28778e-07
0.000274125
-1.15178e-06
0.000276038
-0.000273986
1.41134e-07
1.46201e-07
7.35407e-07
3.76443e-07
0.00114475
-4.33264e-07
1.14283e-06
1.49858e-07
7.58228e-07
-4.58473e-07
8.78125e-08
-1.15205e-06
7.18384e-07
-0.00114506
3.69797e-07
-1.4489e-06
1.50365e-07
-4.21317e-07
-1.13632e-06
9.27051e-08
7.60248e-07
-4.47322e-07
1.14636e-06
0.00114541
7.18231e-07
-0.0011452
3.69467e-07
-1.44342e-06
1.53136e-07
-4.24117e-07
-1.13871e-06
9.27873e-08
-4.47281e-07
7.62972e-07
-0.000273961
1.40984e-07
1.43823e-07
1.48905e-06
1.44879e-06
-4.09727e-07
-4.15208e-07
0.00027397
-1.20017e-06
-1.15966e-06
0.000275867
-0.000273809
1.48323e-07
1.53688e-07
3.68634e-07
0.00114505
-4.26786e-07
1.1964e-06
1.59671e-07
7.67273e-07
-4.43911e-07
-1.13775e-06
9.40728e-08
-1.48639e-06
7.12556e-07
3.6841e-07
0.00114512
-4.2676e-07
1.19381e-06
1.59665e-07
7.67219e-07
-4.41139e-07
-1.13745e-06
9.13134e-08
0.00114558
6.95052e-07
-0.00114541
3.6007e-07
-1.47918e-06
1.63278e-07
-4.17597e-07
-1.12476e-06
9.90318e-08
-4.33129e-07
7.71898e-07
1.19751e-06
0.00114565
6.95215e-07
-0.00114549
3.60225e-07
-1.47662e-06
1.63263e-07
-4.17628e-07
-1.12449e-06
9.62765e-08
-4.30355e-07
7.71865e-07
-4.09985e-07
-4.12222e-07
0.000273951
-1.15947e-06
0.000275848
-0.00027379
1.48455e-07
1.50935e-07
3.67288e-07
0.00114606
-4.21273e-07
1.15592e-06
1.54216e-07
7.67363e-07
-4.43808e-07
-1.13745e-06
9.43421e-08
-1.48084e-06
7.12571e-07
3.68513e-07
0.001145
-4.26693e-07
1.18825e-06
1.59806e-07
7.6716e-07
-4.41153e-07
-1.13747e-06
9.1285e-08
0.00114659
6.95105e-07
-0.00114642
3.5898e-07
-1.43894e-06
1.57767e-07
-4.1212e-07
-1.12443e-06
9.93696e-08
-4.32977e-07
7.72078e-07
1.19181e-06
0.00114553
6.9502e-07
-0.00114537
3.60566e-07
-1.4711e-06
1.63206e-07
-4.17671e-07
-1.12444e-06
9.63488e-08
-4.30292e-07
7.71934e-07
7.12492e-07
3.68128e-07
0.00114462
-4.23758e-07
1.1853e-06
1.56996e-07
7.58835e-07
-4.38333e-07
8.85411e-08
-1.12919e-06
6.95078e-07
-0.00114597
3.64594e-07
-1.43874e-06
1.57808e-07
-4.12041e-07
-1.11891e-06
9.92704e-08
7.66577e-07
-4.32876e-07
1.18885e-06
0.00114515
6.94941e-07
-0.00114498
3.60503e-07
-1.46804e-06
1.60419e-07
-4.14764e-07
-1.11614e-06
9.35622e-08
-4.27508e-07
7.6358e-07
-4.10106e-07
-4.14893e-07
0.000273936
-1.15655e-06
0.000275822
-0.000273775
1.48385e-07
1.53443e-07
7.12549e-07
3.66944e-07
0.00114561
-4.21132e-07
1.14751e-06
1.54259e-07
7.64518e-07
-4.43662e-07
9.43856e-08
-1.13434e-06
6.95263e-07
-0.00114584
3.5922e-07
-1.43603e-06
1.54944e-07
-4.09285e-07
-1.1189e-06
9.93047e-08
7.66531e-07
-4.32871e-07
1.15113e-06
0.00114614
6.95636e-07
-0.00114598
3.59296e-07
-1.43057e-06
1.57715e-07
-4.121e-07
-1.12142e-06
9.93058e-08
-4.32912e-07
7.69112e-07
-0.00027375
1.48223e-07
1.50986e-07
1.47611e-06
1.43592e-06
-3.96061e-07
-4.0148e-07
0.000273752
-1.20479e-06
-1.16439e-06
0.000275628
-0.000273575
1.55263e-07
1.60554e-07
3.57979e-07
0.00114573
-4.14829e-07
1.20112e-06
1.6422e-07
7.7341e-07
-4.29626e-07
-1.12054e-06
1.00609e-07
-1.47338e-06
6.90054e-07
3.57677e-07
0.0011458
-4.14715e-07
1.19862e-06
1.64332e-07
7.7335e-07
-4.26873e-07
-1.12029e-06
9.78613e-08
0.00114613
6.71927e-07
-0.00114601
3.48783e-07
-1.46621e-06
1.67818e-07
-4.05997e-07
-1.10788e-06
1.05641e-07
-4.19158e-07
7.78117e-07
1.20212e-06
0.0011462
6.71766e-07
-0.00114608
3.48703e-07
-1.4636e-06
1.67745e-07
-4.06036e-07
-1.10755e-06
1.02962e-07
-4.16331e-07
7.78125e-07
-3.96253e-07
-3.98446e-07
0.000273733
-1.16421e-06
0.000275609
-0.000273556
1.5538e-07
1.57765e-07
3.57014e-07
0.00114674
-4.09387e-07
1.16059e-06
1.58689e-07
7.73637e-07
-4.2944e-07
-1.12014e-06
1.00969e-07
-1.46793e-06
6.89684e-07
3.57969e-07
0.00114568
-4.1479e-07
1.19294e-06
1.64316e-07
7.73433e-07