/*--------------------------------*- C++ -*----------------------------------*\
| =========                 |                                                 |
| \\      /  F ield         | OpenFOAM: The Open Source CFD Toolbox           |
|  \\    /   O peration     | Version:  2312                                  |
|   \\  /    A nd           | Website:  www.openfoam.com                      |
|    \\/     M anipulation  |                                                 |
\*---------------------------------------------------------------------------*/
FoamFile
{
    version     2.0;
    format      ascii;
    arch        "LSB;label=32;scalar=64";
    class       volVectorField;
    location    "625";
    object      U;
}
// * * * * * * * * * * * * * * * * * * * * * * * * * * * * * * * * * * * * * //

dimensions      [0 1 -1 0 0 0 0];

internalField   nonuniform List<vector> 
43120
(
(6.08631e-05 6.08765e-05 0.108928)
(-9.73722e-05 5.98677e-05 0.107975)
(5.98702e-05 -9.73805e-05 0.107975)
(-0.000158581 -0.000158561 0.106621)
(5.9396e-05 5.94045e-05 0.109226)
(-9.49627e-05 5.8832e-05 0.108152)
(5.88425e-05 -9.49725e-05 0.108152)
(-0.000154202 -0.000154168 0.106644)
(5.79041e-05 5.79212e-05 0.109515)
(-9.25511e-05 5.78356e-05 0.108311)
(5.78399e-05 -9.25479e-05 0.108311)
(-0.000149501 -0.000149489 0.106642)
(5.63969e-05 5.639e-05 0.109794)
(-8.99219e-05 5.67443e-05 0.108451)
(5.67412e-05 -8.98941e-05 0.108451)
(-0.000144305 -0.000144307 0.106618)
(5.49039e-05 5.49168e-05 0.110064)
(-8.71042e-05 5.55584e-05 0.108573)
(5.55541e-05 -8.70969e-05 0.108572)
(-0.000138817 -0.000138819 0.106575)
(5.35534e-05 5.35551e-05 0.110324)
(-8.41278e-05 5.41796e-05 0.108675)
(5.41843e-05 -8.41218e-05 0.108675)
(-0.000133157 -0.000133163 0.106514)
(5.22659e-05 5.22694e-05 0.110574)
(-8.10349e-05 5.26479e-05 0.10876)
(5.26373e-05 -8.1019e-05 0.108759)
(-0.000127286 -0.00012728 0.106439)
(5.10085e-05 5.10525e-05 0.110813)
(-7.77451e-05 5.08786e-05 0.108827)
(5.08518e-05 -7.77479e-05 0.108826)
(-0.000121378 -0.000121401 0.106354)
(4.97679e-05 4.97738e-05 0.111042)
(-7.43104e-05 4.88496e-05 0.108877)
(4.88979e-05 -7.43521e-05 0.108877)
(-0.000115524 -0.000115501 0.10626)
(4.86858e-05 4.87082e-05 0.11126)
(-7.08114e-05 4.67465e-05 0.108912)
(4.67697e-05 -7.0743e-05 0.108911)
(-0.000109875 -0.000109838 0.106161)
(4.73735e-05 4.73827e-05 0.111466)
(-6.72315e-05 4.45051e-05 0.108932)
(4.44656e-05 -6.71827e-05 0.108931)
(-0.000104215 -0.000104226 0.106059)
(4.62649e-05 4.63272e-05 0.111661)
(-6.35607e-05 4.21598e-05 0.108939)
(4.20481e-05 -6.3513e-05 0.108938)
(-9.89917e-05 -9.90591e-05 0.105956)
(4.51787e-05 4.52197e-05 0.111843)
(-6.0116e-05 3.99702e-05 0.108933)
(3.99886e-05 -6.0073e-05 0.108933)
(-9.39217e-05 -9.39066e-05 0.105852)
(4.42818e-05 4.42368e-05 0.112014)
(-5.6459e-05 3.7111e-05 0.108917)
(3.73121e-05 -5.65512e-05 0.108917)
(-8.915e-05 -8.91345e-05 0.105749)
(4.29317e-05 4.29332e-05 0.112173)
(-5.3202e-05 3.50011e-05 0.108892)
(3.48681e-05 -5.33116e-05 0.108891)
(-8.44325e-05 -8.46598e-05 0.10565)
(4.23219e-05 4.20115e-05 0.112319)
(-4.90501e-05 3.19963e-05 0.108859)
(3.20332e-05 -4.91048e-05 0.108858)
(-8.04427e-05 -8.03978e-05 0.105552)
(4.02954e-05 4.09598e-05 0.112452)
(-4.68346e-05 3.00551e-05 0.108818)
(2.98732e-05 -4.62214e-05 0.108818)
(-7.65331e-05 -7.62069e-05 0.105457)
(4.02523e-05 4.01819e-05 0.112573)
(-4.27499e-05 2.75428e-05 0.108772)
(2.70475e-05 -4.27934e-05 0.108771)
(-7.20894e-05 -7.24963e-05 0.105367)
(3.8317e-05 3.74861e-05 0.112682)
(-3.88187e-05 2.36228e-05 0.108723)
(2.44998e-05 -3.93325e-05 0.108721)
(-6.86586e-05 -6.84709e-05 0.10528)
(3.61295e-05 3.72356e-05 0.112778)
(-3.75821e-05 2.46854e-05 0.108669)
(2.34209e-05 -3.73789e-05 0.108669)
(-6.67717e-05 -6.66352e-05 0.105196)
(3.36636e-05 3.37145e-05 0.112865)
(-3.28407e-05 1.93559e-05 0.108613)
(2.0187e-05 -3.24635e-05 0.108613)
(-6.07546e-05 -6.04361e-05 0.10512)
(3.65417e-05 3.54478e-05 0.112938)
(-2.74657e-05 1.8018e-05 0.10856)
(1.92216e-05 -2.95908e-05 0.10856)
(-6.01129e-05 -6.16871e-05 0.10504)
(3.18614e-05 3.31473e-05 0.112993)
(-3.34735e-05 1.78639e-05 0.108489)
(1.78921e-05 -2.96494e-05 0.10849)
(-5.874e-05 -5.59226e-05 0.104967)
(2.49978e-05 2.10494e-05 0.113073)
(-2.33052e-05 8.79059e-06 0.108447)
(7.30171e-06 -2.72615e-05 0.108443)
(-5.1447e-05 -5.46394e-05 0.104926)
(2.22954e-05 3.44254e-05 0.113108)
(-8.48897e-06 2.35471e-05 0.10843)
(7.40423e-06 1.19397e-06 0.108458)
(-5.69419e-05 -5.31781e-05 0.104858)
(3.7031e-05 2.51985e-05 0.113091)
(-2.03969e-05 1.11102e-05 0.108272)
(4.31057e-05 -3.37759e-05 0.108249)
(-3.03127e-05 -4.47535e-05 0.104697)
(-1.92409e-05 -1.16971e-05 0.10805)
(-5.8317e-06 -5.77222e-06 0.106779)
(6.02632e-05 9.80513e-05 0.107927)
(-6.0261e-05 9.80399e-05 0.107927)
(5.83494e-06 -5.7628e-06 0.106779)
(9.79721e-05 6.01905e-05 0.107927)
(9.80248e-05 -6.02292e-05 0.107927)
(-9.79355e-05 6.0139e-05 0.107927)
(-9.79699e-05 -6.02084e-05 0.107927)
(-5.80628e-06 5.85397e-06 0.106778)
(6.01397e-05 -9.79455e-05 0.107927)
(-6.01595e-05 -9.79731e-05 0.107927)
(5.73739e-06 5.82263e-06 0.106778)
(0.000158546 0.000158529 0.106621)
(-8.43116e-06 -8.38682e-06 0.106817)
(5.99961e-05 9.74861e-05 0.107974)
(-5.99953e-05 9.74793e-05 0.107974)
(5.92147e-05 9.56856e-05 0.108109)
(-5.92358e-05 9.56817e-05 0.108109)
(-0.000158565 0.000158513 0.106621)
(8.40123e-06 -8.34355e-06 0.106817)
(9.74012e-05 5.99178e-05 0.107975)
(9.7464e-05 -5.99714e-05 0.107974)
(9.56073e-05 5.91229e-05 0.10811)
(9.56949e-05 -5.92414e-05 0.108109)
(-9.74059e-05 -5.994e-05 0.107974)
(-9.55748e-05 5.91042e-05 0.10811)
(-9.56029e-05 -5.91656e-05 0.108109)
(0.000158491 -0.000158584 0.106621)
(-8.29256e-06 8.41302e-06 0.106817)
(-5.98945e-05 -9.74147e-05 0.107974)
(5.91217e-05 -9.56065e-05 0.108109)
(-5.91129e-05 -9.56209e-05 0.108109)
(8.31996e-06 8.41904e-06 0.106816)
(0.000154145 0.000154114 0.106644)
(-1.06615e-05 -1.06107e-05 0.10683)
(5.89657e-05 9.50771e-05 0.108152)
(-5.89668e-05 9.50611e-05 0.108151)
(5.81974e-05 9.32609e-05 0.108273)
(-5.82406e-05 9.32673e-05 0.108272)
(-0.000154196 0.000154131 0.106644)
(1.0649e-05 -1.05809e-05 0.106829)
(9.49996e-05 5.88748e-05 0.108152)
(9.508e-05 -5.89614e-05 0.108151)
(9.31689e-05 5.81222e-05 0.108273)
(9.32314e-05 -5.82346e-05 0.108272)
(-9.4992e-05 -5.88973e-05 0.108151)
(-9.31891e-05 5.811e-05 0.108273)
(-9.32192e-05 -5.818e-05 0.108272)
(0.0001542 -0.000154225 0.106644)
(-1.05652e-05 1.0666e-05 0.106829)
(-5.88456e-05 -9.5015e-05 0.108152)
(5.80958e-05 -9.31743e-05 0.108273)
(-5.81268e-05 -9.31735e-05 0.108273)
(1.05632e-05 1.06414e-05 0.106828)
(0.000149431 0.00014941 0.106643)
(-1.27551e-05 -1.27172e-05 0.106818)
(5.79334e-05 9.26303e-05 0.10831)
(-5.7969e-05 9.26291e-05 0.10831)
(5.71854e-05 9.06934e-05 0.108417)
(-5.71684e-05 9.06639e-05 0.108417)
(-0.000149481 0.00014943 0.106643)
(1.28012e-05 -1.27477e-05 0.106817)
(9.25408e-05 5.78602e-05 0.108311)
(9.25987e-05 -5.79835e-05 0.10831)
(9.06333e-05 5.70938e-05 0.108418)
(9.06503e-05 -5.71475e-05 0.108417)
(-9.25817e-05 -5.79114e-05 0.10831)
(-9.05978e-05 5.70275e-05 0.108418)
(-9.06439e-05 -5.71106e-05 0.108417)
(0.00014946 -0.000149497 0.106642)
(-1.2703e-05 1.28069e-05 0.106817)
(-5.78557e-05 -9.25408e-05 0.108311)
(5.70189e-05 -9.0568e-05 0.108418)
(-5.70562e-05 -9.05875e-05 0.108417)
(1.27382e-05 1.27972e-05 0.106816)
(0.000144328 0.000144296 0.106619)
(-1.4861e-05 -1.47959e-05 0.106784)
(5.68983e-05 9.00048e-05 0.10845)
(-5.68886e-05 8.99874e-05 0.10845)
(5.59677e-05 8.79091e-05 0.108543)
(-5.60031e-05 8.78873e-05 0.108543)
(-0.000144302 0.000144242 0.106619)
(1.48325e-05 -1.47735e-05 0.106784)
(8.99396e-05 5.67998e-05 0.108451)
(8.99813e-05 -5.6867e-05 0.10845)
(8.78102e-05 5.59032e-05 0.108544)
(8.78606e-05 -5.60123e-05 0.108542)
(-8.9969e-05 -5.68379e-05 0.10845)
(-8.78182e-05 5.58698e-05 0.108544)
(-8.78495e-05 -5.59153e-05 0.108543)
(0.000144277 -0.000144302 0.106619)
(-1.47323e-05 1.48093e-05 0.106783)
(-5.67819e-05 -8.99082e-05 0.108451)
(5.58701e-05 -8.78032e-05 0.108544)
(-5.5868e-05 -8.77925e-05 0.108543)
(1.47908e-05 1.48536e-05 0.106783)
(0.000138812 0.000138812 0.106575)
(-1.68327e-05 -1.67978e-05 0.106732)
(5.568e-05 8.71885e-05 0.108572)
(-5.56901e-05 8.7171e-05 0.108571)
(5.46902e-05 8.49811e-05 0.10865)
(-5.46946e-05 8.49679e-05 0.10865)
(-0.000138844 0.000138796 0.106575)
(1.68507e-05 -1.67828e-05 0.106731)
(8.70892e-05 5.56039e-05 0.108572)
(8.71563e-05 -5.57055e-05 0.108571)
(8.48952e-05 5.4608e-05 0.108651)
(8.49345e-05 -5.46722e-05 0.10865)
(-8.71356e-05 -5.56177e-05 0.108571)
(-8.48745e-05 5.45605e-05 0.108651)
(-8.49268e-05 -5.46436e-05 0.10865)
(0.000138831 -0.000138888 0.106575)
(-1.67639e-05 1.68581e-05 0.106731)
(-5.55546e-05 -8.70825e-05 0.108572)
(5.4538e-05 -8.48711e-05 0.108651)
(-5.4589e-05 -8.48978e-05 0.10865)
(1.6773e-05 1.68193e-05 0.10673)
(0.000133146 0.000133116 0.106514)
(-1.89108e-05 -1.88645e-05 0.106663)
(5.43249e-05 8.42171e-05 0.108674)
(-5.43182e-05 8.41935e-05 0.108674)
(5.31392e-05 8.18876e-05 0.108739)
(-5.31511e-05 8.18607e-05 0.108739)
(-0.000133143 0.000133103 0.106514)
(1.8911e-05 -1.88544e-05 0.106663)
(8.41266e-05 5.42288e-05 0.108675)
(8.41859e-05 -5.43131e-05 0.108674)
(8.17896e-05 5.30587e-05 0.10874)
(8.18558e-05 -5.31593e-05 0.108738)
(-8.41704e-05 -5.42607e-05 0.108674)
(-8.17786e-05 5.3018e-05 0.10874)
(-8.18426e-05 -5.30822e-05 0.108739)
(0.000133128 -0.000133161 0.106514)
(-1.87931e-05 1.88859e-05 0.106662)
(-5.42089e-05 -8.4117e-05 0.108674)
(5.30266e-05 -8.17808e-05 0.10874)
(-5.3041e-05 -8.1769e-05 0.108739)
(1.8849e-05 1.89172e-05 0.106661)
(0.000127285 0.000127265 0.10644)
(-2.09518e-05 -2.09077e-05 0.106582)
(5.27784e-05 8.11124e-05 0.108759)
(-5.27903e-05 8.10914e-05 0.108758)
(5.13687e-05 7.86228e-05 0.108811)
(-5.13808e-05 7.86277e-05 0.10881)
(-0.000127279 0.000127237 0.10644)
(2.09701e-05 -2.08953e-05 0.106582)
(8.10238e-05 5.2678e-05 0.108759)
(8.10851e-05 -5.27632e-05 0.108758)
(7.852e-05 5.13015e-05 0.108811)
(7.86039e-05 -5.14072e-05 0.10881)
(-8.10671e-05 -5.26912e-05 0.108758)
(-7.85064e-05 5.12725e-05 0.108811)
(-7.85718e-05 -5.13739e-05 0.10881)
(0.000127288 -0.000127319 0.106439)
(-2.08344e-05 2.09281e-05 0.106581)
(-5.26432e-05 -8.0988e-05 0.108759)
(5.12759e-05 -7.85243e-05 0.108811)
(-5.13014e-05 -7.85678e-05 0.108811)
(2.0888e-05 2.09193e-05 0.10658)
(0.000121366 0.000121362 0.106354)
(-2.29129e-05 -2.28969e-05 0.106491)
(5.09905e-05 7.78724e-05 0.108826)
(-5.09768e-05 7.78586e-05 0.108825)
(4.94686e-05 7.52415e-05 0.108865)
(-4.94683e-05 7.52192e-05 0.108864)
(-0.000121331 0.000121315 0.106354)
(2.29188e-05 -2.28809e-05 0.106491)
(7.77472e-05 5.09335e-05 0.108827)
(7.78131e-05 -5.0985e-05 0.108825)
(7.51577e-05 4.93703e-05 0.108866)
(7.52306e-05 -4.95089e-05 0.108864)
(-7.77911e-05 -5.09669e-05 0.108825)
(-7.51407e-05 4.93245e-05 0.108866)
(-7.52195e-05 -4.94266e-05 0.108864)
(0.000121377 -0.000121409 0.106354)
(-2.2806e-05 2.28968e-05 0.10649)
(-5.08982e-05 -7.77713e-05 0.108826)
(4.93793e-05 -7.51689e-05 0.108866)
(-4.93669e-05 -7.51543e-05 0.108865)
(2.28682e-05 2.29414e-05 0.10649)
(0.000115513 0.000115473 0.106261)
(-2.47897e-05 -2.47541e-05 0.106394)
(4.89535e-05 7.43839e-05 0.108876)
(-4.89908e-05 7.43761e-05 0.108875)
(4.74797e-05 7.18299e-05 0.108903)
(-4.74613e-05 7.17912e-05 0.108903)
(-0.000115529 0.000115464 0.106261)
(2.48187e-05 -2.47611e-05 0.106393)
(7.43087e-05 4.88711e-05 0.108877)
(7.43954e-05 -4.9035e-05 0.108875)
(7.1723e-05 4.73989e-05 0.108904)
(7.1751e-05 -4.73925e-05 0.108902)
(-7.43675e-05 -4.89378e-05 0.108875)
(-7.17342e-05 4.73349e-05 0.108904)
(-7.17847e-05 -4.74039e-05 0.108903)
(0.00011555 -0.000115579 0.10626)
(-2.47414e-05 2.48518e-05 0.106393)
(-4.88741e-05 -7.43178e-05 0.108876)
(4.73031e-05 -7.16652e-05 0.108904)
(-4.73751e-05 -7.17008e-05 0.108904)
(2.47569e-05 2.48177e-05 0.106392)
(0.000109861 0.000109847 0.106162)
(-2.67044e-05 -2.66699e-05 0.106291)
(4.69359e-05 7.09281e-05 0.108911)
(-4.68804e-05 7.08555e-05 0.10891)
(4.51919e-05 6.82515e-05 0.108927)
(-4.52993e-05 6.82725e-05 0.108926)
(-0.000109847 0.000109806 0.106162)
(2.66757e-05 -2.66162e-05 0.106291)
(7.08453e-05 4.68693e-05 0.108912)
(7.08601e-05 -4.68538e-05 0.10891)
(6.81436e-05 4.50994e-05 0.108928)
(6.81855e-05 -4.523e-05 0.108926)
(-7.09204e-05 -4.69148e-05 0.10891)
(-6.822e-05 4.5149e-05 0.108928)
(-6.81885e-05 -4.50956e-05 0.108926)
(0.000109824 -0.000109818 0.106161)
(-2.6555e-05 2.66174e-05 0.10629)
(-4.68987e-05 -7.08047e-05 0.108911)
(4.51058e-05 -6.81628e-05 0.108928)
(-4.5066e-05 -6.81299e-05 0.108927)
(2.6667e-05 2.66988e-05 0.10629)
(0.00010421 0.000104195 0.106059)
(-2.8323e-05 -2.82879e-05 0.106187)
(4.44738e-05 6.72153e-05 0.108931)
(-4.46343e-05 6.72767e-05 0.10893)
(4.30589e-05 6.47281e-05 0.108937)
(-4.2897e-05 6.46257e-05 0.108936)
(-0.000104297 0.000104273 0.106059)
(2.84686e-05 -2.839e-05 0.106187)
(6.71248e-05 4.43765e-05 0.108932)
(6.72257e-05 -4.45731e-05 0.108929)
(6.45942e-05 4.30129e-05 0.108938)
(6.45366e-05 -4.29442e-05 0.108935)
(-6.72649e-05 -4.44831e-05 0.10893)
(-6.44652e-05 4.28331e-05 0.108938)
(-6.44539e-05 -4.28782e-05 0.108936)
(0.000104301 -0.000104345 0.106059)
(-2.83394e-05 2.83736e-05 0.106186)
(-4.44251e-05 -6.71816e-05 0.108931)
(4.27718e-05 -6.45429e-05 0.108937)
(-4.27739e-05 -6.44622e-05 0.108937)
(2.83742e-05 2.83354e-05 0.106185)
(9.90923e-05 9.90709e-05 0.105956)
(-3.01768e-05 -3.01672e-05 0.106082)
(4.24812e-05 6.38154e-05 0.108937)
(-4.22788e-05 6.36634e-05 0.108936)
(4.03528e-05 6.07805e-05 0.108934)
(-4.0551e-05 6.08684e-05 0.108934)
(-9.89489e-05 9.89241e-05 0.105956)
(3.00358e-05 -3.00341e-05 0.106081)
(6.36849e-05 4.24056e-05 0.108938)
(6.34586e-05 -4.21637e-05 0.108936)
(6.07752e-05 4.02758e-05 0.108935)
(6.11922e-05 -4.07449e-05 0.108933)
(-6.3568e-05 -4.22663e-05 0.108937)
(-6.08584e-05 4.0422e-05 0.108936)
(-6.09395e-05 -4.05105e-05 0.108933)
(9.89766e-05 -9.90338e-05 0.105955)
(-2.98976e-05 2.99951e-05 0.106081)
(-4.21933e-05 -6.35635e-05 0.108938)
(4.06269e-05 -6.09537e-05 0.108935)
(-4.04436e-05 -6.08818e-05 0.108934)
(3.0016e-05 3.00396e-05 0.10608)
(9.37738e-05 9.37689e-05 0.105852)
(-3.14237e-05 -3.13738e-05 0.105976)
(3.99255e-05 6.01094e-05 0.108932)
(-4.00717e-05 6.01199e-05 0.108931)
(3.80414e-05 5.74664e-05 0.108921)
(-3.79187e-05 5.74879e-05 0.10892)
(-9.39542e-05 9.38778e-05 0.105852)
(3.16506e-05 -3.15704e-05 0.105976)
(5.99844e-05 3.99609e-05 0.108933)
(6.01849e-05 -4.01398e-05 0.10893)
(5.73186e-05 3.79367e-05 0.108922)
(5.73821e-05 -3.77997e-05 0.108919)
(-6.00163e-05 -3.98093e-05 0.108931)
(-5.73845e-05 3.77808e-05 0.108922)
(-5.74641e-05 -3.795e-05 0.10892)
(9.40267e-05 -9.40561e-05 0.105852)
(-3.17025e-05 3.17538e-05 0.105976)
(-3.98347e-05 -5.99244e-05 0.108932)
(3.77796e-05 -5.73429e-05 0.108922)
(-3.80154e-05 -5.73357e-05 0.108921)
(3.15026e-05 3.15737e-05 0.105975)
(8.91701e-05 8.91308e-05 0.10575)
(-3.29683e-05 -3.29546e-05 0.105874)
(3.7321e-05 5.6514e-05 0.108916)
(-3.72094e-05 5.65163e-05 0.108915)
(3.52935e-05 5.38127e-05 0.108897)
(-3.55781e-05 5.38763e-05 0.108897)
(-8.899e-05 8.89774e-05 0.10575)
(3.2855e-05 -3.27591e-05 0.105873)
(5.65044e-05 3.71479e-05 0.108917)
(5.67442e-05 -3.73276e-05 0.108914)
(5.37617e-05 3.52315e-05 0.108899)
(5.36784e-05 -3.55969e-05 0.108897)
(-5.66438e-05 -3.74251e-05 0.108915)
(-5.3713e-05 3.5483e-05 0.108899)
(-5.36511e-05 -3.53561e-05 0.108897)
(8.89611e-05 -8.89652e-05 0.10575)
(-3.2918e-05 3.27776e-05 0.105873)
(-3.73822e-05 -5.64968e-05 0.108916)
(3.52333e-05 -5.3941e-05 0.108899)
(-3.50654e-05 -5.39574e-05 0.108898)
(3.31324e-05 3.28917e-05 0.105872)
(8.46686e-05 8.46981e-05 0.10565)
(-3.41862e-05 -3.43279e-05 0.105773)
(3.47268e-05 5.29775e-05 0.108891)
(-3.5194e-05 5.335e-05 0.10889)
(3.33153e-05 5.05395e-05 0.108866)
(-3.25381e-05 5.01352e-05 0.108866)
(-8.48121e-05 8.48257e-05 0.10565)
(3.45303e-05 -3.45014e-05 0.105773)
(5.29027e-05 3.47402e-05 0.108892)
(5.31015e-05 -3.50998e-05 0.10889)
(5.0581e-05 3.30074e-05 0.108868)
(5.03879e-05 -3.24176e-05 0.108865)
(-5.29773e-05 -3.4712e-05 0.10889)
(-5.02439e-05 3.25848e-05 0.108868)
(-5.04261e-05 -3.28948e-05 0.108866)
(8.45667e-05 -8.48106e-05 0.10565)
(-3.41577e-05 3.4653e-05 0.105772)
(-3.46584e-05 -5.31802e-05 0.108891)
(3.27456e-05 -4.98661e-05 0.108867)
(-3.28969e-05 -5.00211e-05 0.108867)
(3.40698e-05 3.43237e-05 0.105771)
(8.04452e-05 8.02398e-05 0.105552)
(-3.58861e-05 -3.54167e-05 0.105674)
(3.26194e-05 4.96025e-05 0.108857)
(-3.1822e-05 4.91059e-05 0.108857)
(3.00434e-05 4.71848e-05 0.108827)
(-3.12726e-05 4.76172e-05 0.108826)
(-8.00219e-05 8.00822e-05 0.105553)
(3.51093e-05 -3.52028e-05 0.105674)
(4.97966e-05 3.23288e-05 0.108858)
(4.9479e-05 -3.19391e-05 0.108856)
(4.66475e-05 3.05515e-05 0.108828)
(4.68957e-05 -3.09463e-05 0.108826)
(-4.93241e-05 -3.24751e-05 0.108857)
(-4.7411e-05 3.09428e-05 0.108829)
(-4.73696e-05 -3.06184e-05 0.108826)
(8.03707e-05 -8.00548e-05 0.105552)
(-3.55841e-05 3.52255e-05 0.105674)
(-3.2173e-05 -4.9278e-05 0.108858)
(3.03954e-05 -4.72673e-05 0.108829)
(-3.09101e-05 -4.74316e-05 0.108827)
(3.53335e-05 3.5501e-05 0.105672)
(7.59642e-05 7.63254e-05 0.105458)
(-3.63539e-05 -3.67014e-05 0.105579)
(2.95844e-05 4.62318e-05 0.108817)
(-3.04574e-05 4.67249e-05 0.108815)
(2.84057e-05 4.35487e-05 0.108783)
(-2.75384e-05 4.30716e-05 0.108782)
(-7.67778e-05 7.64847e-05 0.105458)
(3.72284e-05 -3.71615e-05 0.105579)
(4.568e-05 2.96922e-05 0.108818)
(4.61036e-05 -3.00874e-05 0.108816)
(4.41825e-05 2.82074e-05 0.108785)
(4.3932e-05 -2.77969e-05 0.108781)
(-4.67451e-05 -2.97001e-05 0.108815)
(-4.3107e-05 2.75831e-05 0.108784)
(-4.29777e-05 -2.77706e-05 0.108782)
(7.62539e-05 -7.65253e-05 0.105458)
(-3.66983e-05 3.69152e-05 0.105578)
(-3.002e-05 -4.63194e-05 0.108816)
(2.79478e-05 -4.34734e-05 0.108783)
(-2.75605e-05 -4.31538e-05 0.108784)
(3.71497e-05 3.68301e-05 0.105578)
(7.26908e-05 7.25109e-05 0.105367)
(-3.796e-05 -3.81245e-05 0.105488)
(2.76373e-05 4.31507e-05 0.108771)
(-2.76733e-05 4.28377e-05 0.108769)
(2.542e-05 4.00439e-05 0.108733)
(-2.50695e-05 4.0267e-05 0.108733)
(-7.2054e-05 7.21016e-05 0.105367)
(3.76486e-05 -3.77838e-05 0.105488)
(4.32745e-05 2.79503e-05 0.108772)
(4.29114e-05 -2.74323e-05 0.108769)
(3.9903e-05 2.47507e-05 0.108735)
(4.04168e-05 -2.56767e-05 0.108731)
(-4.25727e-05 -2.77002e-05 0.10877)
(-4.06052e-05 2.4791e-05 0.108735)
(-4.08389e-05 -2.51783e-05 0.108732)
(7.22811e-05 -7.23599e-05 0.105366)
(-3.76524e-05 3.76123e-05 0.105486)
(-2.76525e-05 -4.29568e-05 0.108771)
(2.56978e-05 -4.06823e-05 0.108734)
(-2.50205e-05 -4.05718e-05 0.108734)
(3.76499e-05 3.79198e-05 0.105486)
(6.88093e-05 6.83617e-05 0.10528)
(-3.87917e-05 -3.77985e-05 0.1054)
(2.52097e-05 3.87488e-05 0.10872)
(-2.36429e-05 3.85346e-05 0.108721)
(2.30735e-05 3.85963e-05 0.10868)
(-2.4868e-05 3.85365e-05 0.108681)
(-6.86617e-05 6.85172e-05 0.10528)
(3.80396e-05 -3.73178e-05 0.105401)
(3.94614e-05 2.44667e-05 0.108722)
(3.94102e-05 -2.41349e-05 0.108718)
(3.76914e-05 2.41029e-05 0.108681)
(3.73635e-05 -2.4063e-05 0.108681)
(-3.90582e-05 -2.39098e-05 0.10872)
(-3.76282e-05 2.54114e-05 0.108683)
(-3.75043e-05 -2.46933e-05 0.10868)
(6.8912e-05 -6.88695e-05 0.105279)
(-3.85836e-05 3.84867e-05 0.105401)
(-2.37618e-05 -3.88929e-05 0.108722)
(2.35265e-05 -3.74366e-05 0.108683)
(-2.47505e-05 -3.76551e-05 0.108681)
(3.7853e-05 3.79138e-05 0.105399)
(6.5155e-05 6.62598e-05 0.105197)
(-4.00513e-05 -4.08536e-05 0.105321)
(2.1485e-05 3.76263e-05 0.108667)
(-2.43681e-05 3.85137e-05 0.108666)
(2.02784e-05 3.20898e-05 0.108629)
(-2.00966e-05 3.2202e-05 0.108624)
(-6.66079e-05 6.71576e-05 0.105197)
(4.06966e-05 -4.20553e-05 0.105317)
(3.65e-05 2.23796e-05 0.108669)
(3.71029e-05 -2.40361e-05 0.108667)
(3.26384e-05 1.97531e-05 0.108631)
(3.35589e-05 -2.04706e-05 0.108625)
(-3.79014e-05 -2.43868e-05 0.108666)
(-3.31279e-05 1.86519e-05 0.108629)
(-3.29204e-05 -1.87249e-05 0.108626)
(6.5878e-05 -6.61512e-05 0.105198)
(-4.0373e-05 4.06035e-05 0.105316)
(-2.42985e-05 -3.78172e-05 0.108667)
(2.04084e-05 -3.32275e-05 0.108628)
(-1.93068e-05 -3.24015e-05 0.108628)
(4.11075e-05 4.14892e-05 0.105317)
(6.2381e-05 6.1638e-05 0.105122)
(-3.90123e-05 -3.90727e-05 0.105233)
(2.11394e-05 3.15421e-05 0.108615)
(-2.05468e-05 3.16617e-05 0.10861)
(2.14682e-05 3.26302e-05 0.108568)
(-1.68058e-05 3.12058e-05 0.10857)
(-6.12806e-05 6.00108e-05 0.105119)
(4.04985e-05 -3.84236e-05 0.105237)
(3.17589e-05 2.10539e-05 0.108617)
(3.30051e-05 -2.00821e-05 0.10861)
(3.24843e-05 2.07687e-05 0.10857)
(3.01517e-05 -1.76796e-05 0.108571)
(-3.18093e-05 -1.8853e-05 0.108611)
(-2.9691e-05 1.94436e-05 0.108571)
(-3.03833e-05 -2.10709e-05 0.108569)
(6.15381e-05 -6.12772e-05 0.105118)
(-3.96506e-05 4.01262e-05 0.105238)
(-1.98591e-05 -3.1259e-05 0.108613)
(1.89832e-05 -2.96317e-05 0.108573)
(-1.91792e-05 -3.15206e-05 0.108571)
(3.92465e-05 3.78881e-05 0.105235)
(6.03481e-05 5.99389e-05 0.105038)
(-4.15645e-05 -4.09145e-05 0.105158)
(1.97253e-05 3.11099e-05 0.10855)
(-1.63516e-05 2.90842e-05 0.108558)
(1.5863e-05 2.90114e-05 0.108503)
(-2.2921e-05 2.95297e-05 0.108505)
(-5.89884e-05 6.07461e-05 0.105043)
(3.78473e-05 -4.1251e-05 0.105157)
(3.16633e-05 1.83021e-05 0.108553)
(2.95421e-05 -1.90259e-05 0.108557)
(2.85218e-05 1.7111e-05 0.108504)
(2.84508e-05 -1.95638e-05 0.108505)
(-2.89065e-05 -2.04516e-05 0.108555)
(-3.24253e-05 1.88663e-05 0.108508)
(-3.16895e-05 -1.65754e-05 0.108503)
(6.0074e-05 -5.99743e-05 0.105044)
(-4.12916e-05 4.00584e-05 0.105156)
(-1.79095e-05 -3.10832e-05 0.108557)
(1.73788e-05 -2.93866e-05 0.108508)
(-1.94679e-05 -2.93023e-05 0.108503)
(3.95554e-05 4.20957e-05 0.105155)
(5.66678e-05 5.75478e-05 0.104971)
(-4.02767e-05 -4.37034e-05 0.105116)
(1.41935e-05 2.96994e-05 0.10849)
(-2.11956e-05 3.08802e-05 0.108486)
(1.2892e-05 2.47503e-05 0.108472)
(-9.46843e-06 2.84738e-05 0.108452)
(-6.02611e-05 5.71372e-05 0.104967)
(4.41233e-05 -4.13937e-05 0.1051)
(2.82983e-05 1.57166e-05 0.108492)
(2.9626e-05 -1.92669e-05 0.108486)
(2.727e-05 8.22393e-06 0.108475)
(3.17181e-05 -1.16206e-05 0.108444)
(-3.23343e-05 -1.47877e-05 0.108487)
(-2.67537e-05 1.03358e-05 0.108453)
(-2.51381e-05 -1.05033e-05 0.108461)
(5.65314e-05 -5.74224e-05 0.104967)
(-3.87977e-05 4.01282e-05 0.105094)
(-1.78186e-05 -2.87084e-05 0.108487)
(1.28809e-05 -3.04585e-05 0.108449)
(-7.60847e-06 -2.72988e-05 0.108466)
(4.43605e-05 4.12267e-05 0.105108)
(5.62703e-05 5.27306e-05 0.104931)
(-4.4688e-05 -3.35358e-05 0.105036)
(1.52755e-05 2.21578e-05 0.108466)
(-6.91331e-06 2.54848e-05 0.108447)
(1.80381e-05 2.12471e-05 0.108428)
(-8.79295e-06 1.50515e-05 0.108441)
(-5.10669e-05 5.39351e-05 0.104918)
(4.66038e-05 -4.05994e-05 0.105063)
(2.61198e-05 1.04698e-05 0.108468)
(2.8264e-05 -4.47897e-06 0.10844)
(1.45348e-05 3.09765e-05 0.10842)
(6.5755e-06 3.05506e-06 0.108455)
(-2.22772e-05 -1.01257e-05 0.108456)
(-1.04014e-05 1.78309e-05 0.108439)
(-1.43183e-05 -1.74152e-05 0.108434)
(5.5061e-05 -5.37889e-05 0.104913)
(-5.03332e-05 5.2502e-05 0.105086)
(-7.82858e-06 -2.47376e-05 0.108462)
(1.69358e-06 -5.64474e-06 0.108453)
(-2.44543e-05 -1.04724e-05 0.108436)
(3.8656e-05 4.31233e-05 0.10505)
(4.93422e-05 6.19432e-05 0.104842)
(-4.93924e-05 -6.53853e-05 0.104895)
(1.75643e-05 2.30483e-05 0.1084)
(-1.46076e-05 1.47594e-05 0.108429)
(1.20487e-05 6.67406e-06 0.108293)
(-3.05383e-05 8.24095e-06 0.108317)
(-4.9252e-05 5.53287e-05 0.104874)
(4.22293e-05 -5.57615e-05 0.104897)
(1.17284e-05 3.40062e-05 0.108393)
(-1.78872e-06 -7.0807e-06 0.10846)
(1.26298e-05 -4.03926e-06 0.108309)
(1.32394e-05 -6.13507e-05 0.10834)
(-1.27737e-05 -2.35472e-05 0.108416)
(-1.46419e-05 1.79812e-05 0.108332)
(-9.69468e-06 -2.75041e-05 0.108299)
(4.51825e-05 -4.42576e-05 0.104901)
(-3.92329e-05 2.82242e-05 0.104895)
(-2.86493e-05 -9.85331e-06 0.108415)
(4.4562e-05 -2.16512e-05 0.108341)
(-6.5531e-06 -2.25395e-05 0.108295)
(5.88662e-05 4.40897e-05 0.104878)
(4.20953e-05 2.13114e-05 0.104719)
(-4.56083e-05 -4.32264e-05 0.104822)
(1.09781e-05 -1.36149e-06 0.10826)
(-3.09752e-05 8.27338e-06 0.108256)
(1.2049e-05 7.79276e-06 0.108187)
(-2.81803e-06 1.70657e-05 0.108131)
(-4.91693e-05 3.26339e-05 0.104708)
(4.81031e-05 -4.5352e-05 0.104777)
(1.33341e-05 -1.61394e-05 0.108282)
(2.64948e-05 -5.90179e-05 0.108248)
(1.16916e-05 8.61766e-06 0.108195)
(3.23419e-05 1.49085e-05 0.108053)
(-1.09251e-05 -2.11725e-05 0.108249)
(-2.08388e-05 -1.00063e-06 0.108136)
(-2.45914e-05 2.58499e-06 0.108143)
(5.24285e-05 -6.24264e-05 0.104691)
(-4.57027e-05 5.85494e-05 0.104709)
(1.19065e-06 -2.44928e-05 0.108245)
(-3.37908e-06 -2.3651e-05 0.108055)
(-1.19329e-05 -1.37049e-05 0.108137)
(3.61061e-05 5.21731e-05 0.104786)
(2.66694e-05 4.39969e-05 0.10805)
(3.8694e-05 -2.21318e-05 0.104572)
(6.12221e-05 6.12374e-05 0.108853)
(-6.12426e-05 6.12249e-05 0.108853)
(6.12332e-05 -6.12422e-05 0.108853)
(-6.12601e-05 -6.12215e-05 0.108852)
(-1.59859e-06 3.58818e-06 0.0723385)
(6.06685e-05 -9.90478e-05 0.107829)
(6.13204e-06 -3.28949e-05 0.096022)
(1.7698e-06 2.13131e-05 0.0940165)
(-1.45979e-06 1.97423e-05 0.0835903)
(1.91496e-06 4.42131e-05 0.0940768)
(-3.74203e-06 -2.46375e-08 0.0835669)
(-1.85854e-06 6.77199e-06 0.0721741)
(3.49235e-06 -1.76731e-06 0.0721778)
(2.12573e-05 1.79647e-06 0.0940163)
(1.97286e-05 -1.45813e-06 0.0835903)
(4.41939e-05 1.93078e-06 0.0940765)
(-5.34962e-08 -3.72762e-06 0.0835669)
(-6.08763e-05 6.08598e-05 0.108928)
(6.08713e-05 -6.08775e-05 0.108928)
(-6.08965e-05 -6.0858e-05 0.108928)
(5.97531e-05 5.97565e-05 0.109153)
(-5.97867e-05 5.97584e-05 0.109153)
(5.97683e-05 -5.97855e-05 0.109153)
(-5.97985e-05 -5.97554e-05 0.109152)
(-6.14552e-05 4.35145e-06 0.102462)
(-6.07484e-05 1.63129e-05 0.0957196)
(-0.000101061 1.86854e-05 0.108621)
(-9.67914e-05 5.96161e-05 0.108021)
(-0.000105296 4.71735e-06 0.102454)
(-2.88059e-05 4.78208e-06 0.0957155)
(-0.000100751 1.85361e-05 0.108686)
(6.77402e-06 -1.8638e-06 0.0721742)
(-1.77233e-06 3.47733e-06 0.0721771)
(4.28817e-06 -6.14413e-05 0.102461)
(1.86953e-05 -0.000101068 0.10862)
(1.63078e-05 -6.07574e-05 0.0957211)
(5.96146e-05 -9.68023e-05 0.108021)
(4.71211e-06 -0.000105336 0.102454)
(1.8538e-05 -0.000100766 0.108686)
(4.75205e-06 -2.87189e-05 0.0957138)
(-2.89709e-05 -1.26152e-05 0.0893994)
(-1.26194e-05 -2.89522e-05 0.0893984)
(7.1372e-06 7.23012e-06 0.1068)
(-1.82758e-05 -8.01464e-07 0.0893664)
(-8.09146e-07 -1.82527e-05 0.0893632)
(1.47465e-06 1.73927e-05 0.0937166)
(-1.18027e-06 1.81822e-05 0.0833676)
(1.59034e-06 3.95875e-05 0.0937663)
(-3.49568e-06 -1.17757e-06 0.0833518)
(-1.91267e-06 6.50192e-06 0.0720235)
(3.33622e-06 -1.89751e-06 0.0720309)
(1.74274e-05 1.49219e-06 0.0937164)
(1.81506e-05 -1.15917e-06 0.0833676)
(3.95944e-05 1.61325e-06 0.093766)
(-1.20774e-06 -3.48182e-06 0.0833519)
(-5.94143e-05 5.9392e-05 0.109226)
(5.93911e-05 -5.94082e-05 0.109226)
(-5.9431e-05 -5.93879e-05 0.109226)
(5.82689e-05 5.82887e-05 0.109444)
(-5.83038e-05 5.82884e-05 0.109443)
(5.82733e-05 -5.83057e-05 0.109443)
(-5.83215e-05 -5.82846e-05 0.109443)
(-5.49475e-05 3.50319e-06 0.10219)
(-5.6291e-05 1.47888e-05 0.0954285)
(-9.98173e-05 1.81139e-05 0.108878)
(-9.43756e-05 5.85859e-05 0.108194)
(-9.78236e-05 3.80372e-06 0.102184)
(-2.50712e-05 3.63967e-06 0.0954288)
(-9.95348e-05 1.79767e-05 0.10894)
(6.50465e-06 -1.92745e-06 0.0720236)
(-1.90756e-06 3.31964e-06 0.0720303)
(3.51115e-06 -5.49728e-05 0.102189)
(1.81131e-05 -9.98373e-05 0.108878)
(1.47835e-05 -5.62897e-05 0.0954298)
(5.85747e-05 -9.43624e-05 0.108194)
(3.82905e-06 -9.78015e-05 0.102185)
(1.7978e-05 -9.95579e-05 0.10894)
(3.60026e-06 -2.50667e-05 0.0954272)
(-2.65882e-05 -1.17893e-05 0.0891472)
(-1.18089e-05 -2.65821e-05 0.0891462)
(9.50597e-06 9.60617e-06 0.106825)
(-1.60286e-05 -2.78447e-07 0.0891215)
(-2.27494e-07 -1.60399e-05 0.0891183)
(1.16482e-06 1.43905e-05 0.0934456)
(-1.06495e-06 1.69712e-05 0.0831668)
(1.30829e-06 3.59665e-05 0.0934857)
(-3.42606e-06 -1.85964e-06 0.0831575)
(-2.0169e-06 6.30912e-06 0.0718865)
(3.21288e-06 -1.91828e-06 0.0718974)
(1.44123e-05 1.16207e-06 0.0934455)
(1.69737e-05 -1.08272e-06 0.0831669)
(3.59842e-05 1.31043e-06 0.0934854)
(-1.86122e-06 -3.43585e-06 0.0831576)
(-5.79213e-05 5.79149e-05 0.109515)
(5.79065e-05 -5.79343e-05 0.109515)
(-5.79462e-05 -5.79236e-05 0.109515)
(5.67769e-05 5.67727e-05 0.109725)
(-5.67682e-05 5.67541e-05 0.109725)
(5.67661e-05 -5.67646e-05 0.109725)
(-5.67988e-05 -5.67674e-05 0.109725)
(-4.85588e-05 2.92541e-06 0.101919)
(-5.20688e-05 1.35743e-05 0.0951584)
(-9.86874e-05 1.76129e-05 0.109122)
(-9.19111e-05 5.75682e-05 0.108348)
(-9.02571e-05 3.20248e-06 0.101913)
(-2.16724e-05 2.65225e-06 0.0951629)
(-9.83593e-05 1.7509e-05 0.109181)
(6.31504e-06 -2.00192e-06 0.0718867)
(-1.90632e-06 3.26164e-06 0.0718968)
(2.93267e-06 -4.85922e-05 0.101917)
(1.76306e-05 -9.86969e-05 0.109122)
(1.3586e-05 -5.21276e-05 0.0951597)
(5.75814e-05 -9.19251e-05 0.108348)
(3.23735e-06 -9.02945e-05 0.101913)
(1.75414e-05 -9.83965e-05 0.109181)
(2.64765e-06 -2.1643e-05 0.0951613)
(-2.44135e-05 -1.10979e-05 0.0889179)
(-1.10423e-05 -2.44292e-05 0.0889169)
(1.16363e-05 1.16983e-05 0.106825)
(-1.40771e-05 1.85756e-07 0.0888986)
(2.5249e-07 -1.40852e-05 0.0888955)
(8.69396e-07 1.19559e-05 0.093201)
(-1.10702e-06 1.62561e-05 0.0829855)
(1.00203e-06 3.2998e-05 0.0932325)
(-3.48214e-06 -2.2119e-06 0.0829818)
(-2.02523e-06 6.20482e-06 0.0717622)
(3.17748e-06 -1.89036e-06 0.0717761)
(1.1955e-05 8.77811e-07 0.0932008)
(1.62214e-05 -1.08032e-06 0.0829856)
(3.30198e-05 1.02682e-06 0.0932322)
(-2.23543e-06 -3.46444e-06 0.082982)
(-5.63912e-05 5.63778e-05 0.109794)
(5.64011e-05 -5.63984e-05 0.109794)
(-5.64252e-05 -5.63994e-05 0.109794)
(5.52707e-05 5.52928e-05 0.109998)
(-5.52966e-05 5.52887e-05 0.109997)
(5.5282e-05 -5.52914e-05 0.109997)
(-5.53162e-05 -5.52779e-05 0.109997)
(-4.25879e-05 2.45196e-06 0.101652)
(-4.84055e-05 1.25129e-05 0.0949084)
(-9.73703e-05 1.71943e-05 0.109353)
(-8.92419e-05 5.64712e-05 0.108483)
(-8.31237e-05 2.70483e-06 0.101645)
(-1.87444e-05 1.83918e-06 0.0949169)
(-9.69872e-05 1.71291e-05 0.109408)
(6.17589e-06 -2.07996e-06 0.0717622)
(-1.89091e-06 3.17534e-06 0.0717754)
(2.44167e-06 -4.2599e-05 0.10165)
(1.72291e-05 -9.73509e-05 0.109352)