/*--------------------------------*- C++ -*----------------------------------*\
| =========                 |                                                 |
| \\      /  F ield         | OpenFOAM: The Open Source CFD Toolbox           |
|  \\    /   O peration     | Version:                                        |
|   \\  /    A nd           | Website:  www.openfoam.com                      |
|    \\/     M anipulation  |                                                 |
\*---------------------------------------------------------------------------*/
FoamFile
{
    version     2.0;
    format      ascii;
    class       volScalarField;
    location    "17850.5";
    object      p;
}
// * * * * * * * * * * * * * * * * * * * * * * * * * * * * * * * * * * * * * //

dimensions      [0 2 -2 0 0 0 0];


internalField   nonuniform List<scalar> 
247096
(
1.18085e-07
1.18088e-07
1.18231e-07
1.18318e-07
1.18351e-07
1.18309e-07
1.18218e-07
1.18064e-07
1.18088e-07
1.18286e-07
1.18463e-07
1.18556e-07
1.18579e-07
1.18549e-07
1.18445e-07
1.18262e-07
1.18231e-07
1.18463e-07
1.18604e-07
1.18646e-07
1.18652e-07
1.18643e-07
1.18593e-07
1.18436e-07
1.18204e-07
1.18318e-07
1.18556e-07
1.18646e-07
1.18658e-07
1.18656e-07
1.18658e-07
1.18641e-07
1.18534e-07
1.18285e-07
1.18085e-07
1.18351e-07
1.18579e-07
1.18652e-07
1.18656e-07
1.18653e-07
1.18657e-07
1.18649e-07
1.1856e-07
1.18316e-07
1.18309e-07
1.18549e-07
1.18643e-07
1.18658e-07
1.18657e-07
1.18658e-07
1.18638e-07
1.18526e-07
1.18276e-07
1.18218e-07
1.18445e-07
1.18593e-07
1.18641e-07
1.18649e-07
1.18638e-07
1.18582e-07
1.18417e-07
1.18192e-07
1.18064e-07
1.18262e-07
1.18436e-07
1.18534e-07
1.1856e-07
1.18526e-07
1.18417e-07
1.1824e-07
1.18204e-07
1.18285e-07
1.18316e-07
1.18276e-07
1.18192e-07
1.1527e-07
1.15246e-07
1.15254e-07
1.15107e-07
1.1512e-07
1.15139e-07
1.15119e-07
1.15303e-07
1.15241e-07
1.15254e-07
1.15127e-07
1.14922e-07
1.14941e-07
1.14941e-07
1.14922e-07
1.15183e-07
1.1513e-07
1.15107e-07
1.14922e-07
1.14961e-07
1.14983e-07
1.14983e-07
1.14961e-07
1.14922e-07
1.15246e-07
1.15292e-07
1.1527e-07
1.1512e-07
1.14941e-07
1.14983e-07
1.15006e-07
1.15006e-07
1.14983e-07
1.14941e-07
1.15274e-07
1.15309e-07
1.15246e-07
1.15139e-07
1.14941e-07
1.14983e-07
1.15006e-07
1.15006e-07
1.14983e-07
1.14941e-07
1.15276e-07
1.15135e-07
1.15119e-07
1.14922e-07
1.14961e-07
1.14983e-07
1.14983e-07
1.14961e-07
1.14922e-07
1.1527e-07
1.15319e-07
1.15303e-07
1.15183e-07
1.14922e-07
1.14941e-07
1.14941e-07
1.14922e-07
1.15264e-07
1.15189e-07
1.15302e-07
1.15241e-07
1.1513e-07
1.15246e-07
1.15274e-07
1.15276e-07
1.1527e-07
1.15189e-07
1.15311e-07
1.15292e-07
1.15309e-07
1.15135e-07
1.15319e-07
1.15302e-07
1.1349e-07
1.13482e-07
1.1349e-07
1.1336e-07
1.13359e-07
1.13369e-07
1.13361e-07
1.13524e-07
1.13481e-07
1.1349e-07
1.13354e-07
1.13118e-07
1.13126e-07
1.13126e-07
1.13118e-07
1.13376e-07
1.13372e-07
1.1336e-07
1.13118e-07
1.13138e-07
1.1315e-07
1.1315e-07
1.13138e-07
1.13118e-07
1.13421e-07
1.13514e-07
1.1349e-07
1.13359e-07
1.13126e-07
1.1315e-07
1.13164e-07
1.13164e-07
1.1315e-07
1.13126e-07
1.13424e-07
1.13511e-07
1.13481e-07
1.13369e-07
1.13126e-07
1.1315e-07
1.13164e-07
1.13164e-07
1.1315e-07
1.13126e-07
1.13423e-07
1.13379e-07
1.13361e-07
1.13118e-07
1.13138e-07
1.1315e-07
1.1315e-07
1.13138e-07
1.13118e-07
1.13427e-07
1.13519e-07
1.13524e-07
1.13376e-07
1.13118e-07
1.13126e-07
1.13126e-07
1.13118e-07
1.13408e-07
1.134e-07
1.13524e-07
1.13481e-07
1.13372e-07
1.13421e-07
1.13424e-07
1.13423e-07
1.13427e-07
1.134e-07
1.13526e-07
1.13514e-07
1.13511e-07
1.13379e-07
1.13519e-07
1.13524e-07
1.11905e-07
1.11897e-07
1.11905e-07
1.11782e-07
1.1178e-07
1.11787e-07
1.11782e-07
1.11935e-07
1.11899e-07
1.11905e-07
1.11776e-07
1.11572e-07
1.11577e-07
1.11577e-07
1.11572e-07
1.11799e-07
1.11795e-07
1.11782e-07
1.11572e-07
1.11584e-07
1.1159e-07
1.1159e-07
1.11584e-07
1.11572e-07
1.1184e-07
1.11929e-07
1.11905e-07
1.1178e-07
1.11577e-07
1.1159e-07
1.11597e-07
1.11597e-07
1.1159e-07
1.11577e-07
1.11843e-07
1.11927e-07
1.11897e-07
1.11787e-07
1.11577e-07
1.1159e-07
1.11597e-07
1.11597e-07
1.1159e-07
1.11577e-07
1.11842e-07
1.118e-07
1.11782e-07
1.11572e-07
1.11584e-07
1.1159e-07
1.1159e-07
1.11584e-07
1.11572e-07
1.11845e-07
1.11933e-07
1.11935e-07
1.11799e-07
1.11572e-07
1.11577e-07
1.11577e-07
1.11572e-07
1.11826e-07
1.1182e-07
1.11936e-07
1.11899e-07
1.11795e-07
1.1184e-07
1.11843e-07
1.11842e-07
1.11845e-07
1.1182e-07
1.1194e-07
1.11929e-07
1.11927e-07
1.118e-07
1.11933e-07
1.11936e-07
1.10502e-07
1.10493e-07
1.10501e-07
1.10384e-07
1.1038e-07
1.10386e-07
1.10382e-07
1.10526e-07
1.10496e-07
1.10501e-07
1.10378e-07
1.10196e-07
1.10199e-07
1.10199e-07
1.10196e-07
1.10401e-07
1.10398e-07
1.10384e-07
1.10196e-07
1.10204e-07
1.10206e-07
1.10206e-07
1.10204e-07
1.10196e-07
1.1044e-07
1.10525e-07
1.10502e-07
1.1038e-07
1.10199e-07
1.10206e-07
1.1021e-07
1.1021e-07
1.10206e-07
1.10199e-07
1.10441e-07
1.10522e-07
1.10493e-07
1.10386e-07
1.10199e-07
1.10206e-07
1.1021e-07
1.1021e-07
1.10206e-07
1.10199e-07
1.10439e-07
1.10403e-07
1.10382e-07
1.10196e-07
1.10204e-07
1.10206e-07
1.10206e-07
1.10204e-07
1.10196e-07
1.10442e-07
1.10527e-07
1.10526e-07
1.10401e-07
1.10196e-07
1.10199e-07
1.10199e-07
1.10196e-07
1.10426e-07
1.1042e-07
1.10529e-07
1.10496e-07
1.10398e-07
1.1044e-07
1.10441e-07
1.10439e-07
1.10442e-07
1.1042e-07
1.10535e-07
1.10525e-07
1.10522e-07
1.10403e-07
1.10527e-07
1.10529e-07
1.09212e-07
1.09203e-07
1.09211e-07
1.09098e-07
1.09094e-07
1.09098e-07
1.09095e-07
1.09235e-07
1.09208e-07
1.09211e-07
1.09091e-07
1.08923e-07
1.08924e-07
1.08924e-07
1.08923e-07
1.09115e-07
1.09113e-07
1.09098e-07
1.08923e-07
1.08928e-07
1.08928e-07
1.08928e-07
1.08928e-07
1.08923e-07
1.09154e-07
1.09235e-07
1.09212e-07
1.09094e-07
1.08924e-07
1.08928e-07
1.08929e-07
1.08929e-07
1.08928e-07
1.08924e-07
1.09155e-07
1.09232e-07
1.09203e-07
1.09098e-07
1.08924e-07
1.08928e-07
1.08929e-07
1.08929e-07
1.08928e-07
1.08924e-07
1.09153e-07
1.09117e-07
1.09095e-07
1.08923e-07
1.08928e-07
1.08928e-07
1.08928e-07
1.08928e-07
1.08923e-07
1.09155e-07
1.09237e-07
1.09235e-07
1.09115e-07
1.08923e-07
1.08924e-07
1.08924e-07
1.08923e-07
1.0914e-07
1.09134e-07
1.09238e-07
1.09208e-07
1.09113e-07
1.09154e-07
1.09155e-07
1.09153e-07
1.09155e-07
1.09134e-07
1.09245e-07
1.09235e-07
1.09232e-07
1.09117e-07
1.09237e-07
1.09238e-07
1.07973e-07
1.07963e-07
1.07972e-07
1.0786e-07
1.07856e-07
1.0786e-07
1.07857e-07
1.07995e-07
1.07969e-07
1.07972e-07
1.07854e-07
1.0769e-07
1.07691e-07
1.07691e-07
1.0769e-07
1.07878e-07
1.07876e-07
1.0786e-07
1.0769e-07
1.07694e-07
1.07693e-07
1.07693e-07
1.07694e-07
1.0769e-07
1.07918e-07
1.07996e-07
1.07973e-07
1.07856e-07
1.07691e-07
1.07693e-07
1.07693e-07
1.07693e-07
1.07693e-07
1.07691e-07
1.07918e-07
1.07993e-07
1.07963e-07
1.0786e-07
1.07691e-07
1.07693e-07
1.07693e-07
1.07693e-07
1.07693e-07
1.07691e-07
1.07916e-07
1.07879e-07
1.07857e-07
1.0769e-07
1.07694e-07
1.07693e-07
1.07693e-07
1.07694e-07
1.0769e-07
1.07917e-07
1.07998e-07
1.07995e-07
1.07878e-07
1.0769e-07
1.07691e-07
1.07691e-07
1.0769e-07
1.07903e-07
1.07896e-07
1.07998e-07
1.07969e-07
1.07876e-07
1.07918e-07
1.07918e-07
1.07916e-07
1.07917e-07
1.07896e-07
1.08006e-07
1.07996e-07
1.07993e-07
1.07879e-07
1.07998e-07
1.07998e-07
1.06749e-07
1.06739e-07
1.06747e-07
1.06636e-07
1.06632e-07
1.06636e-07
1.06633e-07
1.06771e-07
1.06745e-07
1.06747e-07
1.0663e-07
1.06467e-07
1.06468e-07
1.06468e-07
1.06467e-07
1.06654e-07
1.06652e-07
1.06636e-07
1.06467e-07
1.06471e-07
1.0647e-07
1.0647e-07
1.06471e-07
1.06467e-07
1.06695e-07
1.06772e-07
1.06749e-07
1.06632e-07
1.06468e-07
1.0647e-07
1.06469e-07
1.06469e-07
1.0647e-07
1.06468e-07
1.06694e-07
1.06769e-07
1.06739e-07
1.06636e-07
1.06468e-07
1.0647e-07
1.06469e-07
1.06469e-07
1.0647e-07
1.06468e-07
1.06692e-07
1.06656e-07
1.06633e-07
1.06467e-07
1.06471e-07
1.0647e-07
1.0647e-07
1.06471e-07
1.06467e-07
1.06694e-07
1.06773e-07
1.06771e-07
1.06654e-07
1.06467e-07
1.06468e-07
1.06468e-07
1.06467e-07
1.06679e-07
1.06673e-07
1.06774e-07
1.06745e-07
1.06652e-07
1.06695e-07
1.06694e-07
1.06692e-07
1.06694e-07
1.06673e-07
1.06782e-07
1.06772e-07
1.06769e-07
1.06656e-07
1.06773e-07
1.06774e-07
1.05527e-07
1.05517e-07
1.05526e-07
1.05414e-07
1.0541e-07
1.05414e-07
1.05412e-07
1.05549e-07
1.05523e-07
1.05526e-07
1.05408e-07
1.05246e-07
1.05246e-07
1.05246e-07
1.05246e-07
1.05432e-07
1.0543e-07
1.05414e-07
1.05246e-07
1.05249e-07
1.05248e-07
1.05248e-07
1.05249e-07
1.05246e-07
1.05473e-07
1.0555e-07
1.05527e-07
1.0541e-07
1.05246e-07
1.05248e-07
1.05247e-07
1.05247e-07
1.05248e-07
1.05246e-07
1.05473e-07
1.05547e-07
1.05517e-07
1.05414e-07
1.05246e-07
1.05248e-07
1.05247e-07
1.05247e-07
1.05248e-07
1.05246e-07
1.0547e-07
1.05434e-07
1.05412e-07
1.05246e-07
1.05249e-07
1.05248e-07
1.05248e-07
1.05249e-07
1.05246e-07
1.05472e-07
1.05552e-07
1.05549e-07
1.05432e-07
1.05246e-07
1.05246e-07
1.05246e-07
1.05246e-07
1.05458e-07
1.05451e-07
1.05552e-07
1.05523e-07
1.0543e-07
1.05473e-07
1.05473e-07
1.0547e-07
1.05472e-07
1.05451e-07
1.0556e-07
1.0555e-07
1.05547e-07
1.05434e-07
1.05552e-07
1.05552e-07
1.04305e-07
1.04296e-07
1.04304e-07
1.04193e-07
1.04188e-07
1.04192e-07
1.0419e-07
1.04327e-07
1.04301e-07
1.04304e-07
1.04186e-07
1.04024e-07
1.04024e-07
1.04024e-07
1.04024e-07
1.0421e-07
1.04208e-07
1.04193e-07
1.04024e-07
1.04027e-07
1.04026e-07
1.04026e-07
1.04027e-07
1.04024e-07
1.04251e-07
1.04328e-07
1.04305e-07
1.04188e-07
1.04024e-07
1.04026e-07
1.04025e-07
1.04025e-07
1.04026e-07
1.04024e-07
1.04251e-07
1.04325e-07
1.04296e-07
1.04192e-07
1.04024e-07
1.04026e-07
1.04025e-07
1.04025e-07
1.04026e-07
1.04024e-07
1.04248e-07
1.04212e-07
1.0419e-07
1.04024e-07
1.04027e-07
1.04026e-07
1.04026e-07
1.04027e-07
1.04024e-07
1.0425e-07
1.0433e-07
1.04327e-07
1.0421e-07
1.04024e-07
1.04024e-07
1.04024e-07
1.04024e-07
1.04236e-07
1.04229e-07
1.0433e-07
1.04301e-07
1.04208e-07
1.04251e-07
1.04251e-07
1.04248e-07
1.0425e-07
1.04229e-07
1.04339e-07
1.04328e-07
1.04325e-07
1.04212e-07
1.0433e-07
1.0433e-07
1.03083e-07
1.03073e-07
1.03082e-07
1.0297e-07
1.02966e-07
1.0297e-07
1.02968e-07
1.03105e-07
1.03079e-07
1.03082e-07
1.02964e-07
1.02802e-07
1.02802e-07
1.02802e-07
1.02802e-07
1.02988e-07
1.02986e-07
1.0297e-07
1.02802e-07
1.02805e-07
1.02804e-07
1.02804e-07
1.02805e-07
1.02802e-07
1.03029e-07
1.03106e-07
1.03083e-07
1.02966e-07
1.02802e-07
1.02804e-07
1.02803e-07
1.02803e-07
1.02804e-07
1.02802e-07
1.03029e-07
1.03103e-07
1.03073e-07
1.0297e-07
1.02802e-07
1.02804e-07
1.02803e-07
1.02803e-07
1.02804e-07
1.02802e-07
1.03026e-07
1.0299e-07
1.02968e-07
1.02802e-07
1.02805e-07
1.02804e-07
1.02804e-07
1.02805e-07
1.02802e-07
1.03028e-07
1.03108e-07
1.03105e-07
1.02988e-07
1.02802e-07
1.02802e-07
1.02802e-07
1.02802e-07
1.03014e-07
1.03007e-07
1.03108e-07
1.03079e-07
1.02986e-07
1.03029e-07
1.03029e-07
1.03026e-07
1.03028e-07
1.03007e-07
1.03116e-07
1.03106e-07
1.03103e-07
1.0299e-07
1.03108e-07
1.03108e-07
1.01861e-07
1.01851e-07
1.01859e-07
1.01748e-07
1.01744e-07
1.01748e-07
1.01745e-07
1.01883e-07
1.01857e-07
1.01859e-07
1.01742e-07
1.01579e-07
1.0158e-07
1.0158e-07
1.01579e-07
1.01766e-07
1.01764e-07
1.01748e-07
1.01579e-07
1.01583e-07
1.01581e-07
1.01581e-07
1.01583e-07
1.01579e-07
1.01807e-07
1.01884e-07
1.01861e-07
1.01744e-07
1.0158e-07
1.01581e-07
1.01581e-07
1.01581e-07
1.01581e-07
1.0158e-07
1.01806e-07
1.01881e-07
1.01851e-07
1.01748e-07
1.0158e-07
1.01581e-07
1.01581e-07
1.01581e-07
1.01581e-07
1.0158e-07
1.01804e-07
1.01768e-07
1.01745e-07
1.01579e-07
1.01583e-07
1.01581e-07
1.01581e-07
1.01583e-07
1.01579e-07
1.01806e-07
1.01885e-07
1.01883e-07
1.01766e-07
1.01579e-07
1.0158e-07
1.0158e-07
1.01579e-07
1.01791e-07
1.01784e-07
1.01886e-07
1.01857e-07
1.01764e-07
1.01807e-07
1.01806e-07
1.01804e-07
1.01806e-07
1.01784e-07
1.01894e-07
1.01884e-07
1.01881e-07
1.01768e-07
1.01885e-07
1.01886e-07
1.00638e-07
1.00629e-07
1.00637e-07
1.00526e-07
1.00521e-07
1.00526e-07
1.00523e-07
1.0066e-07
1.00634e-07
1.00637e-07
1.0052e-07
1.00357e-07
1.00358e-07
1.00358e-07
1.00357e-07
1.00544e-07
1.00542e-07
1.00526e-07
1.00357e-07
1.0036e-07
1.00359e-07
1.00359e-07
1.0036e-07
1.00357e-07
1.00584e-07
1.00661e-07
1.00638e-07
1.00521e-07
1.00358e-07
1.00359e-07
1.00358e-07
1.00358e-07
1.00359e-07
1.00358e-07
1.00584e-07
1.00659e-07
1.00629e-07
1.00526e-07
1.00358e-07
1.00359e-07
1.00358e-07
1.00358e-07
1.00359e-07
1.00358e-07
1.00582e-07
1.00546e-07
1.00523e-07
1.00357e-07
1.0036e-07
1.00359e-07
1.00359e-07
1.0036e-07
1.00357e-07
1.00584e-07
1.00663e-07
1.0066e-07
1.00544e-07
1.00357e-07
1.00358e-07
1.00358e-07
1.00357e-07
1.00569e-07
1.00562e-07
1.00664e-07
1.00634e-07
1.00542e-07
1.00584e-07
1.00584e-07
1.00582e-07
1.00584e-07
1.00562e-07
1.00672e-07
1.00661e-07
1.00659e-07
1.00545e-07
1.00663e-07
1.00664e-07
9.94162e-08
9.94067e-08
9.94149e-08
9.93036e-08
9.92992e-08
9.93035e-08
9.93009e-08
9.94381e-08
9.94121e-08
9.94149e-08
9.92974e-08
9.91348e-08
9.91353e-08
9.91353e-08
9.91348e-08
9.93216e-08
9.93195e-08
9.93036e-08
9.91348e-08
9.91382e-08
9.91369e-08
9.91369e-08
9.91382e-08
9.91348e-08
9.93621e-08
9.94392e-08
9.94162e-08
9.92992e-08
9.91353e-08
9.91369e-08
9.91361e-08
9.91361e-08
9.91369e-08
9.91353e-08
9.93618e-08
9.94366e-08
9.94067e-08
9.93035e-08
9.91353e-08
9.91369e-08
9.91361e-08
9.91361e-08
9.91369e-08
9.91353e-08
9.93595e-08
9.93233e-08
9.93009e-08
9.91348e-08
9.91382e-08
9.91369e-08
9.91369e-08
9.91382e-08
9.91348e-08
9.93613e-08
9.94409e-08
9.9438e-08
9.93216e-08
9.91348e-08
9.91353e-08
9.91353e-08
9.91348e-08
9.93469e-08
9.934e-08
9.94416e-08
9.94121e-08
9.93195e-08
9.93621e-08
9.93618e-08
9.93595e-08
9.93613e-08
9.934e-08
9.94497e-08
9.94392e-08
9.94366e-08
9.93233e-08
9.94409e-08
9.94416e-08
9.8194e-08
9.81845e-08
9.81926e-08
9.80814e-08
9.8077e-08
9.80813e-08
9.80786e-08
9.82158e-08
9.81898e-08
9.81926e-08
9.80752e-08
9.79126e-08
9.79131e-08
9.79131e-08
9.79126e-08
9.80994e-08
9.80973e-08
9.80814e-08
9.79126e-08
9.7916e-08
9.79146e-08
9.79146e-08
9.7916e-08
9.79126e-08
9.81399e-08
9.82169e-08
9.8194e-08
9.8077e-08
9.79131e-08
9.79146e-08
9.79139e-08
9.79139e-08
9.79146e-08
9.79131e-08
9.81396e-08
9.82144e-08
9.81845e-08
9.80813e-08
9.79131e-08
9.79146e-08
9.79139e-08
9.79139e-08
9.79146e-08
9.79131e-08
9.81373e-08
9.8101e-08
9.80786e-08
9.79126e-08
9.7916e-08
9.79146e-08
9.79146e-08
9.7916e-08
9.79126e-08
9.8139e-08
9.82187e-08
9.82158e-08
9.80994e-08
9.79126e-08
9.79131e-08
9.79131e-08
9.79126e-08
9.81247e-08
9.81178e-08
9.82193e-08
9.81899e-08
9.80973e-08
9.81399e-08
9.81396e-08
9.81373e-08
9.8139e-08
9.81178e-08
9.82274e-08
9.82169e-08
9.82144e-08
9.8101e-08
9.82187e-08
9.82193e-08
9.69718e-08
9.69622e-08
9.69704e-08
9.68592e-08
9.68548e-08
9.6859e-08
9.68564e-08
9.69936e-08
9.69676e-08
9.69704e-08
9.68529e-08
9.66904e-08
9.66908e-08
9.66908e-08
9.66904e-08
9.68772e-08
9.6875e-08
9.68592e-08
9.66904e-08
9.66937e-08
9.66924e-08
9.66924e-08
9.66937e-08
9.66904e-08
9.69176e-08
9.69947e-08
9.69717e-08
9.68548e-08
9.66908e-08
9.66924e-08
9.66916e-08
9.66916e-08
9.66924e-08
9.66908e-08
9.69173e-08
9.69921e-08
9.69622e-08
9.6859e-08
9.66908e-08
9.66924e-08
9.66916e-08
9.66916e-08
9.66924e-08
9.66908e-08
9.6915e-08
9.68788e-08
9.68564e-08
9.66904e-08
9.66937e-08
9.66924e-08
9.66924e-08
9.66937e-08
9.66904e-08
9.69168e-08
9.69964e-08
9.69936e-08
9.68772e-08
9.66904e-08
9.66908e-08
9.66908e-08
9.66904e-08
9.69024e-08
9.68955e-08
9.69971e-08
9.69676e-08
9.6875e-08
9.69176e-08
9.69173e-08
9.6915e-08
9.69168e-08
9.68955e-08
9.70052e-08
9.69947e-08
9.69921e-08
9.68788e-08
9.69965e-08
9.69971e-08
9.57495e-08
9.574e-08
9.57482e-08
9.56369e-08
9.56325e-08
9.56368e-08
9.56342e-08
9.57713e-08
9.57454e-08
9.57482e-08
9.56307e-08
9.54681e-08
9.54686e-08
9.54686e-08
9.54681e-08
9.56549e-08
9.56528e-08
9.56369e-08
9.54681e-08
9.54715e-08
9.54701e-08
9.54701e-08
9.54715e-08
9.54681e-08
9.56954e-08
9.57724e-08
9.57495e-08
9.56325e-08
9.54686e-08
9.54701e-08
9.54694e-08
9.54694e-08
9.54701e-08
9.54686e-08
9.56951e-08
9.57699e-08
9.574e-08
9.56368e-08
9.54686e-08
9.54701e-08
9.54694e-08
9.54694e-08
9.54701e-08
9.54686e-08
9.56928e-08
9.56565e-08
9.56342e-08
9.54681e-08
9.54715e-08
9.54701e-08
9.54701e-08
9.54715e-08
9.54681e-08
9.56945e-08
9.57742e-08
9.57713e-08
9.56549e-08
9.54681e-08
9.54686e-08
9.54686e-08
9.54681e-08
9.56802e-08
9.56733e-08
9.57748e-08
9.57454e-08
9.56528e-08
9.56954e-08
9.56951e-08
9.56928e-08
9.56945e-08
9.56733e-08
9.57829e-08
9.57725e-08
9.57699e-08
9.56565e-08
9.57742e-08
9.57748e-08
9.45273e-08
9.45177e-08
9.45259e-08
9.44147e-08
9.44103e-08
9.44145e-08
9.44119e-08
9.45491e-08
9.45231e-08
9.45259e-08
9.44084e-08
9.42459e-08
9.42463e-08
9.42463e-08
9.42459e-08
9.44327e-08
9.44305e-08
9.44147e-08
9.42459e-08
9.42492e-08
9.42479e-08
9.42479e-08
9.42492e-08
9.42459e-08
9.44731e-08
9.45502e-08
9.45273e-08
9.44103e-08
9.42463e-08
9.42479e-08
9.42471e-08
9.42471e-08
9.42479e-08
9.42463e-08
9.44728e-08
9.45477e-08
9.45177e-08
9.44145e-08
9.42463e-08
9.42479e-08
9.42471e-08
9.42471e-08
9.42479e-08
9.42463e-08
9.44705e-08
9.44343e-08
9.44119e-08
9.42459e-08
9.42492e-08
9.42479e-08
9.42479e-08
9.42492e-08
9.42459e-08
9.44723e-08
9.4552e-08
9.45491e-08
9.44327e-08
9.42459e-08
9.42463e-08
9.42463e-08
9.42459e-08
9.44579e-08
9.4451e-08
9.45526e-08
9.45231e-08
9.44305e-08
9.44731e-08
9.44728e-08
9.44705e-08
9.44723e-08
9.4451e-08
9.45607e-08
9.45502e-08
9.45477e-08
9.44343e-08
9.4552e-08
9.45526e-08
9.3305e-08
9.32955e-08
9.33036e-08
9.31924e-08
9.3188e-08
9.31923e-08
9.31897e-08
9.33268e-08
9.33009e-08
9.33037e-08
9.31862e-08
9.30236e-08
9.30241e-08
9.30241e-08
9.30236e-08
9.32104e-08
9.32083e-08
9.31924e-08
9.30236e-08
9.3027e-08
9.30256e-08
9.30256e-08
9.3027e-08
9.30236e-08
9.32509e-08
9.33279e-08
9.3305e-08
9.3188e-08
9.30241e-08
9.30256e-08
9.30249e-08
9.30249e-08
9.30256e-08
9.30241e-08
9.32506e-08
9.33254e-08
9.32955e-08
9.31923e-08
9.30241e-08
9.30256e-08
9.30249e-08
9.30249e-08
9.30256e-08
9.30241e-08
9.32483e-08
9.3212e-08
9.31897e-08
9.30236e-08
9.3027e-08
9.30256e-08
9.30256e-08
9.3027e-08
9.30236e-08
9.325e-08
9.33297e-08
9.33268e-08
9.32104e-08
9.30236e-08
9.30241e-08
9.30241e-08
9.30236e-08
9.32357e-08
9.32288e-08
9.33303e-08
9.33009e-08
9.32083e-08
9.32509e-08
9.32506e-08
9.32483e-08
9.325e-08
9.32288e-08
9.33384e-08
9.33279e-08
9.33254e-08
9.3212e-08
9.33297e-08
9.33303e-08
9.20827e-08
9.20732e-08
9.20814e-08
9.19702e-08
9.19658e-08
9.197e-08
9.19674e-08
9.21046e-08
9.20786e-08
9.20814e-08
9.19639e-08
9.18013e-08
9.18018e-08
9.18018e-08
9.18014e-08
9.19882e-08
9.1986e-08
9.19702e-08
9.18014e-08
9.18047e-08
9.18034e-08
9.18034e-08
9.18047e-08
9.18013e-08
9.20286e-08
9.21057e-08
9.20827e-08
9.19658e-08
9.18018e-08
9.18034e-08
9.18026e-08
9.18026e-08
9.18034e-08
9.18018e-08
9.20283e-08
9.21031e-08
9.20732e-08
9.197e-08
9.18018e-08
9.18034e-08
9.18026e-08
9.18026e-08
9.18034e-08
9.18018e-08
9.2026e-08
9.19898e-08
9.19674e-08
9.18014e-08
9.18047e-08
9.18034e-08
9.18034e-08
9.18047e-08
9.18014e-08
9.20278e-08
9.21074e-08
9.21046e-08
9.19882e-08
9.18014e-08
9.18018e-08
9.18018e-08
9.18014e-08
9.20134e-08
9.20065e-08
9.21081e-08
9.20786e-08
9.1986e-08
9.20286e-08
9.20283e-08
9.2026e-08
9.20278e-08
9.20065e-08
9.21162e-08
9.21057e-08
9.21031e-08
9.19898e-08
9.21074e-08
9.21081e-08
9.08605e-08
9.0851e-08
9.08592e-08
9.07479e-08
9.07435e-08
9.07478e-08
9.07452e-08
9.08823e-08
9.08564e-08
9.08592e-08
9.07417e-08
9.05791e-08
9.05796e-08
9.05796e-08
9.05791e-08
9.07659e-08
9.07638e-08
9.07479e-08
9.05791e-08
9.05825e-08
9.05811e-08
9.05811e-08
9.05825e-08
9.05791e-08
9.08064e-08
9.08834e-08
9.08605e-08
9.07435e-08
9.05796e-08
9.05811e-08
9.05804e-08
9.05804e-08
9.05811e-08
9.05796e-08
9.08061e-08
9.08809e-08
9.0851e-08
9.07478e-08
9.05796e-08
9.05811e-08
9.05804e-08
9.05804e-08
9.05811e-08
9.05796e-08
9.08038e-08
9.07675e-08
9.07452e-08
9.05791e-08
9.05825e-08
9.05811e-08
9.05811e-08
9.05825e-08
9.05791e-08
9.08055e-08
9.08852e-08
9.08823e-08
9.07659e-08
9.05791e-08
9.05796e-08
9.05796e-08
9.05791e-08
9.07912e-08
9.07843e-08
9.08858e-08
9.08564e-08
9.07638e-08
9.08064e-08
9.08061e-08
9.08038e-08
9.08055e-08
9.07843e-08
9.08939e-08
9.08834e-08
9.08809e-08
9.07675e-08
9.08852e-08
9.08858e-08
8.96383e-08
8.96288e-08
8.96369e-08
8.95257e-08
8.95213e-08
8.95256e-08
8.95229e-08
8.96601e-08
8.96341e-08
8.96369e-08
8.95194e-08
8.93569e-08
8.93574e-08
8.93574e-08
8.93569e-08
8.95437e-08
8.95415e-08
8.95257e-08
8.93569e-08
8.93603e-08
8.93589e-08
8.93589e-08
8.93603e-08
8.93569e-08
8.95841e-08
8.96612e-08
8.96383e-08
8.95213e-08
8.93574e-08
8.93589e-08
8.93581e-08
8.93581e-08
8.93589e-08
8.93574e-08
8.95839e-08
8.96587e-08
8.96287e-08
8.95256e-08
8.93574e-08
8.93589e-08
8.93581e-08
8.93581e-08
8.93589e-08
8.93574e-08
8.95816e-08
8.95453e-08
8.95229e-08
8.93569e-08
8.93603e-08
8.93589e-08
8.93589e-08
8.93603e-08
8.93569e-08
8.95833e-08
8.9663e-08
8.96601e-08
8.95437e-08
8.93569e-08
8.93574e-08
8.93574e-08
8.93569e-08
8.95689e-08
8.95621e-08
8.96636e-08
8.96341e-08
8.95415e-08
8.95842e-08
8.95839e-08
8.95816e-08
8.95833e-08
8.95621e-08
8.96717e-08
8.96612e-08
8.96587e-08
8.95453e-08
8.9663e-08
8.96636e-08
8.84161e-08
8.84065e-08
8.84147e-08
8.83035e-08
8.82991e-08
8.83033e-08
8.83007e-08
8.84379e-08
8.84119e-08
8.84147e-08
8.82972e-08
8.81347e-08
8.81352e-08
8.81352e-08
8.81347e-08
8.83215e-08
8.83193e-08
8.83035e-08
8.81347e-08
8.8138e-08
8.81367e-08
8.81367e-08
8.8138e-08
8.81347e-08
8.83619e-08
8.8439e-08
8.84161e-08
8.82991e-08
8.81352e-08
8.81367e-08
8.81359e-08
8.81359e-08
8.81367e-08
8.81352e-08
8.83616e-08
8.84365e-08
8.84065e-08
8.83033e-08
8.81352e-08
8.81367e-08
8.81359e-08
8.81359e-08
8.81367e-08
8.81352e-08
8.83593e-08
8.83231e-08
8.83007e-08
8.81347e-08
8.8138e-08
8.81367e-08
8.81367e-08
8.8138e-08
8.81347e-08
8.83611e-08
8.84408e-08
8.84379e-08
8.83215e-08
8.81347e-08
8.81352e-08
8.81352e-08
8.81347e-08
8.83467e-08
8.83398e-08
8.84414e-08
8.84119e-08
8.83193e-08
8.83619e-08
8.83616e-08
8.83594e-08
8.83611e-08
8.83399e-08
8.84495e-08
8.8439e-08
8.84365e-08
8.83231e-08
8.84408e-08
8.84414e-08
8.71938e-08
8.71843e-08
8.71925e-08
8.70812e-08
8.70768e-08
8.70811e-08
8.70785e-08
8.72157e-08
8.71897e-08
8.71925e-08
8.7075e-08
8.69124e-08
8.69129e-08
8.69129e-08
8.69124e-08
8.70992e-08
8.70971e-08
8.70813e-08
8.69124e-08
8.69158e-08
8.69145e-08
8.69145e-08
8.69158e-08
8.69124e-08
8.71397e-08
8.72168e-08
8.71938e-08
8.70768e-08
8.69129e-08
8.69144e-08
8.69137e-08
8.69137e-08
8.69145e-08
8.69129e-08
8.71394e-08
8.72142e-08
8.71843e-08
8.70811e-08
8.69129e-08
8.69145e-08
8.69137e-08
8.69137e-08
8.69145e-08
8.69129e-08
8.71371e-08
8.71009e-08
8.70785e-08
8.69124e-08
8.69158e-08
8.69145e-08
8.69145e-08
8.69158e-08
8.69124e-08
8.71389e-08
8.72185e-08
8.72157e-08
8.70992e-08
8.69124e-08
8.69129e-08
8.69129e-08
8.69124e-08
8.71245e-08
8.71176e-08
8.72192e-08
8.71897e-08
8.70971e-08
8.71397e-08
8.71394e-08
8.71371e-08
8.71389e-08
8.71176e-08
8.72273e-08
8.72168e-08
8.72142e-08
8.71009e-08
8.72185e-08
8.72192e-08
8.59716e-08
8.59621e-08
8.59702e-08
8.5859e-08
8.58546e-08
8.58589e-08
8.58562e-08
8.59934e-08
8.59674e-08
8.59702e-08
8.58527e-08
8.56902e-08
8.56907e-08
8.56907e-08
8.56902e-08
8.5877e-08
8.58748e-08
8.5859e-08
8.56902e-08
8.56936e-08
8.56922e-08
8.56922e-08
8.56936e-08
8.56902e-08
8.59174e-08
8.59945e-08
8.59716e-08
8.58546e-08
8.56907e-08
8.56922e-08
8.56914e-08
8.56914e-08
8.56922e-08
8.56907e-08
8.59172e-08
8.5992e-08
8.5962e-08
8.58589e-08
8.56907e-08
8.56922e-08
8.56914e-08
8.56914e-08
8.56922e-08
8.56907e-08
8.59149e-08
8.58786e-08
8.58562e-08
8.56902e-08
8.56936e-08
8.56922e-08
8.56922e-08
8.56936e-08
8.56902e-08
8.59166e-08
8.59963e-08
8.59934e-08
8.5877e-08
8.56902e-08
8.56907e-08
8.56907e-08
8.56902e-08
8.59022e-08
8.58953e-08
8.59969e-08
8.59674e-08
8.58748e-08
8.59175e-08
8.59172e-08
8.59149e-08
8.59166e-08
8.58954e-08
8.6005e-08
8.59945e-08
8.5992e-08
8.58786e-08
8.59963e-08
8.59969e-08
8.47493e-08
8.47398e-08
8.4748e-08
8.46367e-08
8.46323e-08
8.46366e-08
8.4634e-08
8.47711e-08
8.47452e-08
8.4748e-08
8.46305e-08
8.44679e-08
8.44684e-08
8.44684e-08
8.44679e-08
8.46547e-08
8.46526e-08
8.46367e-08
8.44679e-08
8.44713e-08
8.44699e-08
8.44699e-08
8.44713e-08
8.44679e-08
8.46952e-08
8.47723e-08
8.47493e-08
8.46323e-08
8.44684e-08
8.44699e-08
8.44692e-08
8.44692e-08
8.44699e-08
8.44684e-08
8.46949e-08
8.47697e-08
8.47398e-08
8.46366e-08
8.44684e-08
8.44699e-08
8.44692e-08
8.44692e-08
8.44699e-08
8.44684e-08
8.46926e-08
8.46563e-08
8.4634e-08
8.44679e-08
8.44713e-08
8.44699e-08
8.44699e-08
8.44713e-08
8.44679e-08
8.46943e-08
8.4774e-08
8.47711e-08
8.46547e-08
8.44679e-08
8.44684e-08
8.44684e-08
8.44679e-08
8.468e-08
8.46731e-08
8.47746e-08
8.47452e-08
8.46526e-08
8.46952e-08
8.46949e-08
8.46926e-08
8.46943e-08
8.46731e-08
8.47827e-08
8.47723e-08
8.47697e-08
8.46563e-08
8.4774e-08
8.47747e-08
8.35271e-08
8.35175e-08
8.35257e-08
8.34145e-08
8.34101e-08
8.34143e-08
8.34117e-08
8.35489e-08
8.35229e-08
8.35257e-08
8.34082e-08
8.32457e-08
8.32462e-08
8.32462e-08
8.32457e-08
8.34325e-08
8.34303e-08
8.34145e-08
8.32457e-08
8.3249e-08
8.32477e-08
8.32477e-08
8.3249e-08
8.32457e-08
8.34729e-08
8.355e-08
8.35271e-08
8.34101e-08
8.32462e-08
8.32477e-08
8.32469e-08
8.32469e-08
8.32477e-08
8.32462e-08
8.34726e-08
8.35475e-08
8.35175e-08
8.34143e-08
8.32462e-08
8.32477e-08
8.32469e-08
8.32469e-08
8.32477e-08
8.32462e-08
8.34703e-08
8.34341e-08
8.34117e-08
8.32457e-08
8.3249e-08
8.32477e-08
8.32477e-08
8.3249e-08
8.32457e-08
8.34721e-08
8.35517e-08
8.35489e-08
8.34325e-08
8.32457e-08
8.32462e-08
8.32462e-08
8.32457e-08
8.34577e-08
8.34508e-08
8.35524e-08
8.35229e-08
8.34303e-08
8.34729e-08
8.34726e-08
8.34704e-08
8.34721e-08
8.34508e-08
8.35605e-08
8.355e-08
8.35475e-08
8.34341e-08
8.35518e-08
8.35524e-08
8.23048e-08
8.22953e-08
8.23035e-08
8.21922e-08
8.21878e-08
8.21921e-08
8.21895e-08
8.23266e-08
8.23007e-08
8.23035e-08
8.2186e-08
8.20234e-08
8.20239e-08
8.20239e-08
8.20234e-08
8.22102e-08
8.22081e-08
8.21922e-08
8.20234e-08
8.20268e-08
8.20254e-08
8.20254e-08
8.20268e-08
8.20234e-08
8.22507e-08
8.23277e-08
8.23048e-08
8.21878e-08
8.20239e-08
8.20254e-08
8.20247e-08
8.20247e-08
8.20254e-08
8.20239e-08
8.22504e-08
8.23252e-08
8.22953e-08
8.21921e-08
8.20239e-08
8.20254e-08
8.20247e-08
8.20247e-08
8.20254e-08
8.20239e-08
8.22481e-08
8.22118e-08
8.21895e-08
8.20234e-08
8.20268e-08
8.20254e-08
8.20254e-08
8.20268e-08
8.20234e-08
8.22498e-08
8.23295e-08
8.23266e-08
8.22102e-08
8.20234e-08
8.20239e-08
8.20239e-08
8.20234e-08
8.22355e-08
8.22286e-08
8.23301e-08
8.23007e-08
8.22081e-08
8.22507e-08
8.22504e-08
8.22481e-08
8.22498e-08
8.22286e-08
8.23382e-08
8.23278e-08
8.23252e-08
8.22118e-08
8.23295e-08
8.23302e-08
8.10826e-08
8.10731e-08
8.10812e-08
8.097e-08
8.09656e-08
8.09699e-08
8.09672e-08
8.11044e-08
8.10784e-08
8.10812e-08
8.09638e-08
8.08012e-08
8.08017e-08
8.08017e-08
8.08012e-08
8.0988e-08
8.09858e-08
8.097e-08
8.08012e-08
8.08046e-08
8.08032e-08
8.08032e-08
8.08046e-08
8.08012e-08
8.10284e-08
8.11055e-08
8.10826e-08
8.09656e-08
8.08017e-08
8.08032e-08
8.08024e-08
8.08024e-08
8.08032e-08
8.08017e-08
8.10282e-08
8.1103e-08
8.1073e-08
8.09699e-08
8.08017e-08
8.08032e-08
8.08024e-08
8.08024e-08
8.08032e-08
8.08017e-08
8.10259e-08
8.09896e-08
8.09672e-08
8.08012e-08
8.08046e-08
8.08032e-08
8.08032e-08
8.08046e-08
8.08012e-08
8.10276e-08
8.11073e-08
8.11044e-08
8.0988e-08
8.08012e-08
8.08017e-08
8.08017e-08
8.08012e-08
8.10132e-08
8.10064e-08
8.11079e-08
8.10784e-08
8.09859e-08
8.10285e-08
8.10282e-08
8.10259e-08
8.10276e-08
8.10064e-08
8.1116e-08
8.11055e-08
8.1103e-08
8.09896e-08
8.11073e-08
8.11079e-08
7.98603e-08
7.98508e-08
7.9859e-08
7.97478e-08
7.97433e-08
7.97476e-08
7.9745e-08
7.98822e-08
7.98562e-08
7.9859e-08
7.97415e-08
7.95789e-08
7.95794e-08
7.95794e-08
7.95789e-08
7.97657e-08
7.97636e-08
7.97478e-08
7.95789e-08
7.95823e-08
7.9581e-08
7.9581e-08
7.95823e-08
7.95789e-08
7.98062e-08
7.98833e-08
7.98603e-08
7.97433e-08
7.95794e-08
7.9581e-08
7.95802e-08
7.95802e-08
7.9581e-08
7.95794e-08
7.98059e-08
7.98807e-08
7.98508e-08
7.97476e-08
7.95794e-08
7.9581e-08
7.95802e-08
7.95802e-08
7.9581e-08
7.95794e-08
7.98036e-08
7.97674e-08
7.9745e-08
7.95789e-08
7.95823e-08
7.9581e-08
7.9581e-08
7.95823e-08
7.95789e-08
7.98054e-08
7.9885e-08
7.98822e-08
7.97657e-08
7.95789e-08
7.95794e-08
7.95794e-08
7.95789e-08
7.9791e-08
7.97841e-08
7.98857e-08
7.98562e-08
7.97636e-08
7.98062e-08
7.98059e-08
7.98036e-08
7.98054e-08
7.97841e-08
7.98938e-08
7.98833e-08
7.98807e-08
7.97674e-08
7.9885e-08
7.98857e-08
7.86381e-08
7.86285e-08
7.86367e-08
7.85255e-08
7.85211e-08
7.85253e-08
7.85227e-08
7.86599e-08
7.86339e-08
7.86367e-08
7.85192e-08
7.83567e-08
7.83571e-08
7.83571e-08
7.83567e-08
7.85435e-08
7.85413e-08
7.85255e-08
7.83567e-08
7.836e-08
7.83587e-08
7.83587e-08
7.836e-08
7.83567e-08
7.85839e-08
7.8661e-08
7.86381e-08
7.85211e-08
7.83571e-08
7.83587e-08
7.83579e-08
7.83579e-08
7.83587e-08
7.83571e-08
7.85836e-08
7.86585e-08
7.86285e-08
7.85253e-08
7.83571e-08
7.83587e-08
7.83579e-08
7.83579e-08
7.83587e-08
7.83571e-08
7.85813e-08
7.85451e-08
7.85227e-08
7.83567e-08
7.836e-08
7.83587e-08
7.83587e-08
7.836e-08
7.83567e-08
7.85831e-08
7.86628e-08
7.86599e-08
7.85435e-08
7.83567e-08
7.83571e-08
7.83571e-08
7.83567e-08
7.85687e-08
7.85618e-08
7.86634e-08
7.86339e-08
7.85413e-08
7.85839e-08
7.85836e-08
7.85814e-08
7.85831e-08
7.85619e-08
7.86715e-08
7.8661e-08
7.86585e-08
7.85451e-08
7.86628e-08
7.86634e-08
7.74158e-08
7.74063e-08
7.74144e-08
7.73032e-08
7.72988e-08
7.73031e-08
7.73004e-08
7.74376e-08
7.74116e-08
7.74144e-08
7.72969e-08
7.71344e-08
7.71349e-08
7.71349e-08
7.71344e-08
7.73212e-08
7.7319e-08
7.73032e-08
7.71344e-08
7.71377e-08
7.71364e-08
7.71364e-08
7.71378e-08
7.71344e-08
7.73616e-08
7.74387e-08
7.74158e-08
7.72988e-08
7.71349e-08
7.71364e-08
7.71356e-08
7.71356e-08
7.71364e-08
7.71349e-08
7.73614e-08
7.74362e-08
7.74062e-08
7.73031e-08
7.71349e-08
7.71364e-08
7.71356e-08
7.71356e-08
7.71364e-08
7.71349e-08
7.73591e-08
7.73228e-08
7.73004e-08
7.71344e-08
7.71377e-08
7.71364e-08
7.71364e-08
7.71377e-08
7.71344e-08
7.73608e-08
7.74405e-08
7.74376e-08
7.73212e-08
7.71344e-08
7.71349e-08
7.71349e-08
7.71344e-08
7.73464e-08
7.73395e-08