/*--------------------------------*- C++ -*----------------------------------*\
| =========                 |                                                 |
| \\      /  F ield         | OpenFOAM: The Open Source CFD Toolbox           |
|  \\    /   O peration     | Version:  2312                                  |
|   \\  /    A nd           | Website:  www.openfoam.com                      |
|    \\/     M anipulation  |                                                 |
\*---------------------------------------------------------------------------*/
FoamFile
{
    version     2.0;
    format      ascii;
    arch        "LSB;label=32;scalar=64";
    class       volScalarField;
    location    "250";
    object      k;
}
// * * * * * * * * * * * * * * * * * * * * * * * * * * * * * * * * * * * * * //

dimensions      [0 2 -2 0 0 0 0];

internalField   nonuniform List<scalar> 
42840
(
1.45933e-05
1.62412e-05
1.62422e-05
1.86849e-05
1.43148e-05
1.64644e-05
1.64653e-05
1.93852e-05
1.4082e-05
1.67742e-05
1.67756e-05
2.0179e-05
1.38947e-05
1.71679e-05
1.71697e-05
2.10555e-05
1.37525e-05
1.7642e-05
1.76442e-05
2.19993e-05
1.36554e-05
1.81926e-05
1.81952e-05
2.29688e-05
1.36033e-05
1.88151e-05
1.88185e-05
2.4003e-05
1.35971e-05
1.95049e-05
1.95086e-05
2.5063e-05
1.36364e-05
2.0256e-05
2.02601e-05
2.61577e-05
1.37206e-05
2.10629e-05
2.10673e-05
2.72102e-05
1.38508e-05
2.19194e-05
2.19237e-05
2.82862e-05
1.40271e-05
2.28193e-05
2.28232e-05
2.93413e-05
1.42497e-05
2.37557e-05
2.37595e-05
3.04131e-05
1.45187e-05
2.47223e-05
2.47259e-05
3.14155e-05
1.48339e-05
2.57128e-05
2.57161e-05
3.24207e-05
1.51949e-05
2.67206e-05
2.67237e-05
3.34211e-05
1.56008e-05
2.77391e-05
2.77424e-05
3.43747e-05
1.60507e-05
2.87635e-05
2.87671e-05
3.53044e-05
1.65432e-05
2.97888e-05
2.97922e-05
3.62071e-05
1.70768e-05
3.08113e-05
3.08151e-05
3.70934e-05
1.76498e-05
3.18272e-05
3.18314e-05
3.79707e-05
1.82598e-05
3.28331e-05
3.28379e-05
3.87976e-05
1.89044e-05
3.38267e-05
3.38312e-05
3.96268e-05
1.95802e-05
3.48048e-05
3.48096e-05
4.04409e-05
2.02834e-05
3.57653e-05
3.57692e-05
4.12097e-05
1.8673e-05
1.92374e-05
1.62416e-05
1.6242e-05
1.64e-05
1.64004e-05
1.86844e-05
1.92185e-05
1.62421e-05
1.62426e-05
1.64005e-05
1.64016e-05
1.62416e-05
1.63986e-05
1.64003e-05
1.86744e-05
1.92409e-05
1.62422e-05
1.63999e-05
1.64006e-05
1.92189e-05
1.93777e-05
1.99914e-05
1.64646e-05
1.6465e-05
1.66884e-05
1.66889e-05
1.93873e-05
2.00117e-05
1.64651e-05
1.64663e-05
1.66888e-05
1.66907e-05
1.64651e-05
1.66868e-05
1.66891e-05
1.9373e-05
2.00034e-05
1.64652e-05
1.66884e-05
1.66892e-05
1.99907e-05
2.01781e-05
2.08721e-05
1.67747e-05
1.67751e-05
1.70617e-05
1.70623e-05
2.01637e-05
2.08696e-05
1.67749e-05
1.67769e-05
1.70618e-05
1.70644e-05
1.67755e-05
1.70596e-05
1.70628e-05
2.01726e-05
2.08495e-05
1.67754e-05
1.70615e-05
1.70625e-05
2.08482e-05
2.10343e-05
2.17668e-05
1.71688e-05
1.71692e-05
1.75165e-05
1.75171e-05
2.10331e-05
2.1799e-05
1.71688e-05
1.71714e-05
1.75164e-05
1.75192e-05
1.71699e-05
1.75136e-05
1.75177e-05
2.10519e-05
2.17994e-05
1.71694e-05
1.75158e-05
1.75174e-05
2.17753e-05
2.19946e-05
2.27529e-05
1.76435e-05
1.76441e-05
1.80487e-05
1.80495e-05
2.19751e-05
2.27501e-05
1.76434e-05
1.7646e-05
1.80486e-05
1.80514e-05
1.76447e-05
1.80451e-05
1.80501e-05
2.19782e-05
2.27519e-05
1.76442e-05
1.80477e-05
1.80496e-05
2.27844e-05
2.29914e-05
2.37797e-05
1.81945e-05
1.81952e-05
1.86541e-05
1.86547e-05
2.29905e-05
2.37765e-05
1.81943e-05
1.8197e-05
1.86537e-05
1.86567e-05
1.81958e-05
1.86497e-05
1.86552e-05
2.2992e-05
2.37795e-05
1.81952e-05
1.8653e-05
1.86546e-05
2.38117e-05
2.40297e-05
2.48347e-05
1.88177e-05
1.8818e-05
1.93276e-05
1.93279e-05
2.40267e-05
2.48319e-05
1.88171e-05
1.88201e-05
1.93269e-05
1.93302e-05
1.88186e-05
1.93226e-05
1.93284e-05
2.40295e-05
2.48341e-05
1.88178e-05
1.93264e-05
1.93277e-05
2.4867e-05
2.50945e-05
2.58965e-05
1.95077e-05
1.95076e-05
2.00639e-05
2.00638e-05
2.5089e-05
2.5938e-05
1.95069e-05
1.951e-05
2.00629e-05
2.00664e-05
1.95083e-05
2.00585e-05
2.00644e-05
2.50927e-05
2.59058e-05
1.95074e-05
2.00626e-05
2.00637e-05
2.59415e-05
2.6166e-05
2.69674e-05
2.02589e-05
2.02587e-05
2.08568e-05
2.08571e-05
2.61352e-05
2.70044e-05
2.02579e-05
2.02614e-05
2.08556e-05
2.086e-05
2.02596e-05
2.08514e-05
2.0858e-05
2.61697e-05
2.70054e-05
2.02586e-05
2.08558e-05
2.08569e-05
2.70075e-05
2.72398e-05
2.80507e-05
2.10656e-05
2.10657e-05
2.1701e-05
2.17016e-05
2.72104e-05
2.80471e-05
2.10643e-05
2.10687e-05
2.16992e-05
2.17043e-05
2.10669e-05
2.16954e-05
2.17027e-05
2.72253e-05
2.80646e-05
2.10655e-05
2.16998e-05
2.17012e-05
2.80823e-05
2.82953e-05
2.91105e-05
2.19221e-05
2.19225e-05
2.25902e-05
2.25908e-05
2.82979e-05
2.90985e-05
2.19202e-05
2.19251e-05
2.25878e-05
2.25931e-05
2.19239e-05
2.25844e-05
2.25925e-05
2.82819e-05
2.90867e-05
2.19221e-05
2.25884e-05
2.25903e-05
2.91359e-05
2.9354e-05
3.01437e-05
2.28219e-05
2.28222e-05
2.35175e-05
2.35183e-05
2.93609e-05
3.01449e-05
2.28195e-05
2.28245e-05
2.35149e-05
2.35205e-05
2.28245e-05
2.35118e-05
2.35208e-05
2.93601e-05
3.01751e-05
2.28219e-05
2.35158e-05
2.3518e-05
3.01438e-05
3.03937e-05
3.11971e-05
2.37582e-05
2.37585e-05
2.44766e-05
2.44777e-05
3.04074e-05
3.11581e-05
2.37556e-05
2.37607e-05
2.4474e-05
2.44797e-05
2.37614e-05
2.44711e-05
2.44802e-05
3.03821e-05
3.12075e-05
2.37584e-05
2.4475e-05
2.44771e-05
3.12016e-05
3.14062e-05
3.21855e-05
2.47247e-05
2.4725e-05
2.54616e-05
2.54622e-05
3.14334e-05
3.21651e-05
2.47221e-05
2.4727e-05
2.54589e-05
2.5464e-05
2.47281e-05
2.54557e-05
2.54652e-05
3.14099e-05
3.21997e-05
2.47247e-05
2.54594e-05
2.5462e-05
3.22182e-05
3.24252e-05
3.31785e-05
2.57152e-05
2.57153e-05
2.64656e-05
2.64657e-05
3.2437e-05
3.31663e-05
2.57125e-05
2.57168e-05
2.64625e-05
2.64672e-05
2.57187e-05
2.64594e-05
2.64688e-05
3.24083e-05
3.31874e-05
2.57152e-05
2.64628e-05
2.64654e-05
3.31631e-05
3.3399e-05
3.41595e-05
2.67233e-05
2.6723e-05
2.74818e-05
2.74816e-05
3.34163e-05
3.41383e-05
2.67202e-05
2.67242e-05
2.74783e-05
2.74829e-05
2.67264e-05
2.74754e-05
2.74853e-05
3.33959e-05
3.41297e-05
2.67228e-05
2.74789e-05
2.74819e-05
3.4151e-05
3.43543e-05
3.5093e-05
2.77424e-05
2.77411e-05
2.85051e-05
2.85043e-05
3.43607e-05
3.50893e-05
2.77389e-05
2.77425e-05
2.85014e-05
2.85058e-05
2.77455e-05
2.84985e-05
2.85086e-05
3.43664e-05
3.50713e-05
2.77419e-05
2.85023e-05
2.85052e-05
3.50711e-05
3.5283e-05
3.60017e-05
2.87668e-05
2.87648e-05
2.953e-05
2.95288e-05
3.5286e-05
3.59893e-05
2.8763e-05
2.87665e-05
2.9526e-05
2.95304e-05
2.87699e-05
2.95233e-05
2.95337e-05
3.53009e-05
3.60128e-05
2.87661e-05
2.95272e-05
2.95299e-05
3.60207e-05
3.61968e-05
3.68998e-05
2.97915e-05
2.97892e-05
3.05529e-05
3.05514e-05
3.6212e-05
3.6872e-05
2.97873e-05
2.97909e-05
3.05487e-05
3.05537e-05
2.97949e-05
3.05462e-05
3.0557e-05
3.61995e-05
3.69033e-05
2.97907e-05
3.05504e-05
3.05529e-05
3.69055e-05
3.70848e-05
3.77756e-05
3.08135e-05
3.08107e-05
3.15703e-05
3.15686e-05
3.71107e-05
3.7739e-05
3.0809e-05
3.08132e-05
3.1566e-05
3.15716e-05
3.08169e-05
3.15633e-05
3.15748e-05
3.70903e-05
3.77713e-05
3.08126e-05
3.1568e-05
3.15708e-05
3.77836e-05
3.79532e-05
3.86242e-05
3.1829e-05
3.18258e-05
3.25785e-05
3.25769e-05
3.79728e-05
3.86019e-05
3.18245e-05
3.18288e-05
3.2574e-05
3.258e-05
3.18328e-05
3.25712e-05
3.2583e-05
3.79585e-05
3.86077e-05
3.18285e-05
3.25761e-05
3.2579e-05
3.86249e-05
3.87999e-05
3.94494e-05
3.28345e-05
3.28309e-05
3.35748e-05
3.3573e-05
3.88084e-05
3.94304e-05
3.28298e-05
3.28345e-05
3.35701e-05
3.35762e-05
3.28378e-05
3.35671e-05
3.35782e-05
3.8823e-05
3.94503e-05
3.28336e-05
3.35722e-05
3.35745e-05
3.94469e-05
3.96215e-05
4.02577e-05
3.38273e-05
3.38236e-05
3.45564e-05
3.4555e-05
3.96409e-05
4.02548e-05
3.38224e-05
3.38269e-05
3.45516e-05
3.45578e-05
3.38293e-05
3.45488e-05
3.45587e-05
3.96329e-05
4.02465e-05
3.38254e-05
3.45539e-05
3.45554e-05
4.02312e-05
4.04303e-05
4.10353e-05
3.48045e-05
3.4801e-05
3.55205e-05
3.55196e-05
4.04243e-05
4.10385e-05
3.47995e-05
3.48041e-05
3.55155e-05
3.55219e-05
3.48054e-05
3.55135e-05
3.55221e-05
4.04414e-05
4.10459e-05
3.48019e-05
3.55181e-05
3.55192e-05
4.10338e-05
4.11933e-05
3.57632e-05
3.57603e-05
4.12041e-05
3.57579e-05
3.57627e-05
3.57634e-05
4.12111e-05
3.57604e-05
5.48452e-05
7.01028e-05
7.01248e-05
5.43668e-05
6.95614e-05
6.95431e-05
5.48461e-05
7.01043e-05
7.01262e-05
5.43659e-05
1.45933e-05
1.45934e-05
1.45934e-05
1.43798e-05
1.43794e-05
1.43797e-05
1.43798e-05
3.10572e-05
4.64287e-05
1.47085e-05
1.62872e-05
4.68115e-05
1.46745e-05
3.04992e-05
6.95615e-05
6.95433e-05
3.10635e-05
1.4709e-05
4.64275e-05
1.62884e-05
1.46751e-05
4.68121e-05
3.04975e-05
5.97077e-05
5.97166e-05
1.88681e-05
5.99076e-05
5.99172e-05
5.59473e-05
7.01543e-05
5.55439e-05
7.01736e-05
6.9494e-05
6.94777e-05
5.59474e-05
7.01559e-05
5.55424e-05
7.01751e-05
1.43147e-05
1.4315e-05
1.43149e-05
1.41357e-05
1.41353e-05
1.41358e-05
1.41358e-05
3.27276e-05
4.75469e-05
1.46019e-05
1.65319e-05
3.21858e-05
4.78927e-05
1.45849e-05
6.94943e-05
6.9478e-05
3.27337e-05
1.46027e-05
4.75477e-05
1.65333e-05
3.21853e-05
1.45858e-05
4.78959e-05
6.02898e-05
6.02984e-05
1.95948e-05
6.04691e-05
6.04787e-05
5.68647e-05
7.01993e-05
5.65233e-05
7.02162e-05
6.94328e-05
6.94184e-05
5.68645e-05
7.02009e-05
5.65212e-05
7.02181e-05
1.40819e-05
1.40824e-05
1.40823e-05
1.39371e-05
1.39367e-05
1.39374e-05
1.39373e-05
3.43378e-05
4.85705e-05
1.45644e-05
1.68629e-05
3.38142e-05
4.88868e-05
1.45662e-05
6.94331e-05
6.94186e-05
3.43439e-05
1.45658e-05
4.8569e-05
1.68645e-05
3.38158e-05
1.45676e-05
4.88902e-05
6.08121e-05
6.08197e-05
2.04101e-05
6.09728e-05
6.0981e-05
5.76341e-05
7.02385e-05
5.73411e-05
7.02534e-05
6.93776e-05
6.93652e-05
5.76338e-05
7.024e-05
5.73393e-05
7.0255e-05
1.38945e-05
1.38952e-05
1.3895e-05
1.37838e-05
1.37833e-05
1.37841e-05
1.37841e-05
3.58601e-05
4.95059e-05
1.45962e-05
1.72767e-05
3.53697e-05
4.97942e-05
1.46124e-05
6.93776e-05
6.93651e-05
3.58663e-05
1.45981e-05
4.95063e-05
1.72787e-05
3.5373e-05
1.46142e-05
4.97973e-05
6.12819e-05
6.12898e-05
2.1305e-05
6.1427e-05
6.14349e-05
5.82871e-05
7.02726e-05
5.80324e-05
7.0286e-05
6.93278e-05
6.93172e-05
5.82868e-05
7.02743e-05
5.8031e-05
7.02877e-05
1.37522e-05
1.37531e-05
1.3753e-05
1.36755e-05
1.3675e-05
1.3676e-05
1.3676e-05
3.72887e-05
5.03636e-05
1.46963e-05
1.77699e-05
3.68307e-05
5.06287e-05
1.47293e-05
6.93277e-05
6.93171e-05
3.72955e-05
1.46986e-05
5.0365e-05
1.77723e-05
3.68332e-05
1.47314e-05
5.06311e-05
6.17066e-05
6.1714e-05
2.22582e-05
6.18384e-05
6.18468e-05
5.88495e-05
7.03032e-05
5.86259e-05
7.03158e-05
6.92831e-05
6.92744e-05
5.88494e-05
7.03048e-05
5.86252e-05
7.03178e-05
1.3655e-05
1.3656e-05
1.3656e-05
1.36123e-05
1.36117e-05
1.36128e-05
1.36128e-05
3.86186e-05
5.11501e-05
1.48646e-05
1.83386e-05
3.81918e-05
5.13951e-05
1.49141e-05
6.92831e-05
6.92744e-05
3.8623e-05
1.48675e-05
5.11528e-05
1.83415e-05
3.81959e-05
1.49167e-05
5.14008e-05
6.20937e-05
6.21013e-05
2.32942e-05
6.22151e-05
6.22226e-05
5.9342e-05
7.03317e-05
5.91444e-05
7.03448e-05
6.92439e-05
6.92372e-05
5.93415e-05
7.03326e-05
5.91442e-05
7.03463e-05
1.36027e-05
1.3604e-05
1.36039e-05
1.35947e-05
1.3594e-05
1.35954e-05
1.35952e-05
3.98486e-05
5.18763e-05
1.51004e-05
1.89779e-05
3.94526e-05
5.21041e-05
1.51661e-05
6.92439e-05
6.92372e-05
3.98527e-05
1.5104e-05
5.18786e-05
1.89815e-05
3.94562e-05
1.51693e-05
5.21056e-05
6.24495e-05
6.24574e-05
2.43387e-05
6.25616e-05
6.25694e-05
5.97806e-05
7.03593e-05
5.96041e-05
7.03728e-05
6.92103e-05
6.92057e-05
5.97803e-05
7.03607e-05
5.96032e-05
7.03746e-05
1.35962e-05
1.35977e-05
1.35975e-05
1.36196e-05
1.36189e-05
1.36206e-05
1.36207e-05
4.09865e-05
5.2547e-05
1.54031e-05
1.9683e-05
4.06218e-05
5.27602e-05
1.54844e-05
6.92104e-05
6.92058e-05
4.09916e-05
1.54072e-05
5.25525e-05
1.9687e-05
4.06225e-05
1.54883e-05
5.27627e-05
6.27788e-05
6.27875e-05
2.54038e-05
6.28835e-05
6.28921e-05
6.01783e-05
7.03879e-05
6.00177e-05
7.04019e-05
6.91825e-05
6.91801e-05
6.01783e-05
7.03888e-05
6.00163e-05
7.04039e-05
1.36354e-05
1.36371e-05
1.36363e-05
1.36916e-05
1.36911e-05
1.36931e-05
1.3693e-05
4.2044e-05
5.31732e-05
1.57709e-05
2.04481e-05
4.16979e-05
5.33732e-05
1.58674e-05
6.91828e-05
6.91803e-05
4.20491e-05
1.57756e-05
5.31778e-05
2.04524e-05
4.16977e-05
1.58718e-05
5.33745e-05
6.30872e-05
6.30963e-05
2.64795e-05
6.31854e-05
6.31945e-05
6.05432e-05
7.0418e-05
6.03946e-05
7.04327e-05
6.91608e-05
6.91604e-05
6.05424e-05
7.04197e-05
6.03937e-05
7.04344e-05
1.37196e-05
1.37216e-05
1.37205e-05
1.38093e-05
1.38091e-05
1.38112e-05
1.38111e-05
4.30251e-05
5.37603e-05
1.6202e-05
2.12673e-05
4.26954e-05
5.3947e-05
1.63131e-05
6.91611e-05
6.91608e-05
4.30297e-05
1.6207e-05
5.37627e-05
2.12718e-05
4.2695e-05
1.63176e-05
5.3948e-05
6.33786e-05
6.33873e-05
2.75471e-05
6.34716e-05
6.34806e-05
6.08796e-05
7.04511e-05
6.07429e-05
7.04653e-05
6.9145e-05
6.91468e-05
6.08796e-05
7.04512e-05
6.07413e-05
7.04681e-05
1.38498e-05
1.38519e-05
1.38508e-05
1.39731e-05
1.39731e-05
1.39753e-05
1.39753e-05
4.39395e-05
5.43111e-05
1.66942e-05
2.21347e-05
4.36235e-05
5.4486e-05
1.68192e-05
6.91455e-05
6.91473e-05
4.39432e-05
1.66992e-05
5.43127e-05
2.21389e-05
4.36225e-05
1.68235e-05
5.44881e-05
6.36555e-05
6.3664e-05
2.86122e-05
6.37441e-05
6.37531e-05
6.11944e-05
7.04863e-05
6.10662e-05
7.05014e-05
6.91352e-05
6.91392e-05
6.11947e-05
7.04863e-05
6.10646e-05
7.05042e-05
1.40261e-05
1.40283e-05
1.40273e-05
1.4183e-05
1.41833e-05
1.41856e-05
1.41859e-05
4.47959e-05
5.48323e-05
1.72447e-05
2.30436e-05
4.44915e-05
5.49981e-05
1.7383e-05
6.91357e-05
6.91396e-05
4.47992e-05
1.72495e-05
5.48338e-05
2.30477e-05
4.44906e-05
1.73869e-05
5.50004e-05
6.392e-05
6.39282e-05
2.96564e-05
6.40052e-05
6.40137e-05
6.14921e-05
7.05243e-05
6.13708e-05
7.05408e-05
6.91313e-05
6.91374e-05
6.14917e-05
7.05244e-05
6.13691e-05
7.05438e-05
1.42487e-05
1.42509e-05
1.42502e-05
1.44393e-05
1.44399e-05
1.44421e-05
1.44427e-05
4.56021e-05
5.53272e-05
1.78506e-05
2.39878e-05
4.53077e-05
5.54851e-05
1.80015e-05
6.91316e-05
6.91375e-05
4.56059e-05
1.7855e-05
5.53275e-05
2.39917e-05
4.53066e-05
1.80049e-05
5.5489e-05
6.4174e-05
6.41821e-05
3.06632e-05
6.42565e-05
6.42644e-05
6.17764e-05
7.0566e-05
6.166e-05
7.0584e-05
6.91331e-05
6.91412e-05
6.17756e-05
7.05662e-05
6.16589e-05
7.0587e-05
1.45177e-05
1.45198e-05
1.45193e-05
1.47418e-05
1.47426e-05
1.47448e-05
1.47456e-05
4.63653e-05
5.57991e-05
1.85085e-05
2.49607e-05
4.60794e-05
5.59503e-05
1.8671e-05
6.91331e-05
6.9141e-05
4.63685e-05
1.85124e-05
5.57962e-05
2.49643e-05
4.60788e-05
1.86742e-05
5.59547e-05
6.44193e-05
6.44274e-05
3.17099e-05
6.4499e-05
6.45072e-05
6.20504e-05
7.06115e-05
6.19386e-05
7.0631e-05
6.91405e-05
6.91505e-05
6.20504e-05
7.06116e-05
6.19355e-05
7.06338e-05
1.48328e-05
1.48348e-05
1.48344e-05
1.50903e-05
1.50912e-05
1.50934e-05
1.50944e-05
4.70915e-05
5.62479e-05
1.92147e-05
2.59555e-05
4.68124e-05
5.63953e-05
1.93882e-05
6.91402e-05
6.91501e-05
4.70938e-05
1.92186e-05
5.62455e-05
2.59591e-05
4.68122e-05
1.93912e-05
5.64008e-05
6.4657e-05
6.46652e-05
3.27077e-05
6.47344e-05
6.47428e-05
6.23176e-05
7.06605e-05
6.22086e-05
7.0683e-05
6.91531e-05
6.91649e-05
6.23165e-05
7.06607e-05
6.22062e-05
7.06845e-05
1.51936e-05
1.51955e-05
1.51954e-05
1.5484e-05
1.54852e-05
1.54872e-05
1.54885e-05
4.7784e-05
5.66769e-05
1.99658e-05
2.69662e-05
4.75125e-05
5.68211e-05
2.01492e-05
6.91526e-05
6.91644e-05
4.77868e-05
1.99698e-05
5.66743e-05
2.69697e-05
4.75124e-05
2.01522e-05
5.6826e-05
6.48878e-05
6.48963e-05
3.365e-05
6.49631e-05
6.49718e-05
6.25819e-05
7.07125e-05
6.24708e-05
7.07379e-05
6.91705e-05
6.91841e-05
6.25794e-05
7.07151e-05
6.2471e-05
7.07377e-05
1.55993e-05
1.56012e-05
1.56013e-05
1.59223e-05
1.59235e-05
1.59256e-05
1.59273e-05
4.84498e-05
5.70885e-05
2.07577e-05
2.79863e-05
4.81842e-05
5.72301e-05
2.095e-05
6.91701e-05
6.91836e-05
4.84522e-05
2.07618e-05
5.70863e-05
2.799e-05
4.81846e-05
2.0953e-05
5.7235e-05
6.51126e-05
6.51208e-05
3.46071e-05
6.51862e-05
6.51951e-05
6.28427e-05
7.07696e-05
6.27323e-05
7.07966e-05
6.91924e-05
6.92078e-05
6.28413e-05
7.07721e-05
6.27319e-05
7.07964e-05
1.60489e-05
1.60507e-05
1.60511e-05
1.64037e-05
1.64051e-05
1.64072e-05
1.64093e-05
4.90912e-05
5.7485e-05
2.15861e-05
2.90111e-05
4.88319e-05
5.76238e-05
2.17861e-05
6.91923e-05
6.92075e-05
4.90931e-05
2.15902e-05
5.74831e-05
2.90148e-05
4.88326e-05
2.17893e-05
5.76297e-05
6.53322e-05
6.53399e-05
3.55614e-05
6.54041e-05
6.54132e-05
6.3103e-05
7.08306e-05
6.29926e-05
7.08584e-05
6.92187e-05
6.92357e-05
6.31019e-05
7.08332e-05
6.29914e-05
7.08591e-05
1.6541e-05
1.65429e-05
1.65434e-05
1.69265e-05
1.69281e-05
1.69305e-05
1.69329e-05
4.9711e-05
5.78683e-05
2.24463e-05
3.00351e-05
4.94583e-05
5.80053e-05
2.26532e-05
6.92191e-05
6.92359e-05
4.97133e-05
2.24507e-05
5.7866e-05
3.00392e-05
4.94602e-05
2.26565e-05
5.80101e-05
6.5547e-05
6.55547e-05
3.6469e-05
6.56184e-05
6.56275e-05
6.33627e-05
7.08975e-05
6.32553e-05
7.09251e-05
6.92493e-05
6.92677e-05
6.3363e-05
7.08979e-05
6.32523e-05
7.09271e-05
1.70742e-05
1.70763e-05
1.70767e-05
1.74889e-05
1.74909e-05
1.74936e-05
1.74963e-05
5.03129e-05
5.82404e-05
2.33343e-05
3.10559e-05
5.00669e-05
5.83757e-05
2.35464e-05
6.92502e-05
6.92685e-05
5.03141e-05
2.33387e-05
5.82382e-05
3.10602e-05
5.00683e-05
2.35497e-05
5.83809e-05
6.57584e-05
6.57666e-05
3.73469e-05
6.58298e-05
6.58393e-05
6.3627e-05
7.09667e-05
6.35182e-05
7.09958e-05
6.92838e-05
6.93035e-05
6.36244e-05
7.09671e-05
6.35149e-05
7.09963e-05
1.76467e-05
1.76492e-05
1.76495e-05
1.80891e-05
1.80915e-05
1.80945e-05
1.80973e-05
5.08988e-05
5.86029e-05
2.42459e-05
3.20687e-05
5.0659e-05
5.8737e-05
2.44624e-05
6.92853e-05
6.9305e-05
5.09004e-05
2.425e-05
5.86017e-05
3.20734e-05
5.066e-05
2.44653e-05
5.87425e-05
6.5968e-05
6.59768e-05
3.82035e-05
6.60398e-05
6.60497e-05
6.38935e-05
7.10393e-05
6.37836e-05
7.10696e-05
6.93216e-05
6.93423e-05
6.38896e-05
7.10388e-05
6.37796e-05
7.10713e-05
1.82563e-05
1.82591e-05
1.82593e-05
1.87245e-05
1.87273e-05
1.87306e-05
1.87333e-05
5.1473e-05
5.89585e-05
2.51782e-05
3.30707e-05
5.12366e-05
5.9092e-05
2.53984e-05
6.93239e-05
6.93447e-05
5.14724e-05
2.51821e-05
5.89561e-05
3.30758e-05
5.12385e-05
2.5401e-05
5.90962e-05
6.61757e-05
6.61849e-05
3.90473e-05
6.62487e-05
6.62586e-05
6.41611e-05
7.11144e-05
6.40486e-05
7.11452e-05
6.93618e-05
6.93829e-05
6.41557e-05
7.11136e-05
6.40461e-05
7.11473e-05
1.89002e-05
1.89034e-05
1.89031e-05
1.93922e-05
1.93955e-05
1.93991e-05
1.94013e-05
5.20334e-05
5.93072e-05
2.61282e-05
3.40599e-05
5.18044e-05
5.94401e-05
2.63513e-05
6.9365e-05
6.93863e-05
5.2032e-05
2.61318e-05
5.93035e-05
3.40649e-05
5.18044e-05
2.63538e-05
5.9442e-05
6.63817e-05
6.63909e-05
3.98422e-05
6.64565e-05
6.64661e-05
6.44255e-05
7.11886e-05
6.43146e-05
7.12214e-05
6.94025e-05
6.94232e-05
6.44225e-05
7.119e-05
6.431e-05
7.12232e-05
1.95755e-05
1.9579e-05
1.95779e-05
2.00883e-05
2.00924e-05
2.00961e-05
2.00975e-05
5.25793e-05
5.96478e-05
2.70917e-05
3.50334e-05
5.23556e-05
5.97787e-05
2.73167e-05
6.9407e-05
6.9428e-05
5.25756e-05
2.70952e-05
5.96428e-05
3.50383e-05
5.23537e-05
2.73188e-05
5.97784e-05
6.65861e-05
6.65953e-05
4.06551e-05
6.66599e-05
6.66695e-05
6.46839e-05
7.12621e-05
6.45748e-05
7.12937e-05
6.94418e-05
6.94615e-05
6.46811e-05
7.12663e-05
6.45725e-05
7.12959e-05
2.02783e-05
2.02819e-05
2.02799e-05
5.31016e-05
5.99779e-05
2.80637e-05
3.59885e-05
5.28891e-05
6.01043e-05
2.82889e-05
6.94478e-05
6.94678e-05
5.30955e-05
2.80657e-05
5.9971e-05
3.59925e-05
5.2883e-05
2.82893e-05
6.01022e-05
6.67877e-05
6.67962e-05
4.14123e-05
6.68573e-05
6.68664e-05
6.95601e-05
6.95419e-05
6.95623e-05
6.95441e-05
5.97121e-05
5.97217e-05
1.88873e-05
5.99119e-05
5.99215e-05
6.95084e-05
6.95257e-05
6.95106e-05
6.95279e-05
1.90106e-05
6.02006e-05
6.02097e-05
6.00114e-05
6.00206e-05
5.48446e-05
7.00992e-05
7.0121e-05
5.43653e-05
3.10587e-05
4.64337e-05
1.4709e-05
1.62885e-05
4.68119e-05
1.4675e-05
3.05015e-05
3.10592e-05
4.64356e-05
1.47092e-05
1.62889e-05
4.68119e-05
1.46751e-05
3.05021e-05
5.49823e-05
7.01501e-05
7.01295e-05
5.54217e-05
5.49806e-05
7.01464e-05
7.0126e-05
5.54207e-05
3.13487e-05
1.63421e-05
4.73661e-05
1.46217e-05
4.70013e-05
1.46472e-05
3.1902e-05
3.13484e-05
1.63425e-05
4.73663e-05
1.46217e-05
4.70068e-05
1.46473e-05
3.19002e-05
5.97164e-05
5.97119e-05
1.88674e-05
5.99165e-05
5.99128e-05
6.95592e-05
6.95412e-05
6.95096e-05
6.9527e-05
1.90245e-05
6.02048e-05
6.02014e-05
6.0016e-05
6.00109e-05
6.95078e-05
6.95248e-05
3.10613e-05
4.64366e-05
1.47096e-05
1.6289e-05
4.6813e-05
1.46756e-05
3.05024e-05
5.48454e-05
7.00976e-05
7.01233e-05
5.43647e-05
3.10579e-05
1.47095e-05
4.64346e-05
1.62898e-05
1.46755e-05
4.6816e-05
3.05024e-05
5.49811e-05
7.01515e-05
7.01311e-05
5.54221e-05
3.1349e-05
1.63425e-05
4.73689e-05
1.46223e-05
4.70071e-05
1.46479e-05
3.19014e-05
5.49801e-05
7.01488e-05
7.01245e-05
5.54213e-05
3.13501e-05
1.63434e-05
1.46223e-05
4.73715e-05
1.46478e-05
4.70041e-05
3.19012e-05
5.48359e-05
7.00988e-05
7.01246e-05
5.43708e-05
3.10613e-05
1.47091e-05
4.64321e-05
1.62886e-05
1.4675e-05
4.68128e-05
3.05017e-05
5.48412e-05
7.00987e-05
7.01219e-05
5.43676e-05
3.13473e-05
1.63418e-05
4.73669e-05
1.46211e-05
4.70006e-05
1.46466e-05
3.18973e-05
5.49854e-05
7.01499e-05
7.01257e-05
5.54122e-05
3.13458e-05
1.63423e-05
1.46217e-05
4.73664e-05
1.46473e-05
4.69994e-05
3.19025e-05
5.49827e-05
7.01478e-05
7.01233e-05
5.54172e-05
5.97165e-05
5.97119e-05
1.88894e-05
5.99174e-05
5.99126e-05
6.95606e-05
6.95424e-05
6.95099e-05
6.95272e-05
1.90117e-05
6.02057e-05
6.02005e-05
6.00158e-05
6.00114e-05
6.95089e-05
6.95262e-05
3.10627e-05
1.47094e-05
4.64363e-05
1.62892e-05
1.46754e-05
4.68115e-05
3.04992e-05
5.48394e-05
7.01007e-05
7.01265e-05
5.43728e-05
5.48383e-05
7.01002e-05
7.01221e-05
5.43719e-05
3.13467e-05
1.63428e-05
1.46218e-05
4.73638e-05
1.46473e-05
4.69987e-05
3.19047e-05
3.13459e-05
1.63426e-05
1.46222e-05
4.7367e-05
1.46477e-05
4.70069e-05
3.1905e-05
5.49875e-05
7.01518e-05
7.01276e-05
5.54153e-05
5.49865e-05
7.01475e-05
7.0127e-05
5.54143e-05
6.95601e-05
6.95418e-05
6.95617e-05
6.95434e-05
1.90231e-05
6.01967e-05
6.02048e-05
6.00074e-05
6.0016e-05
6.95083e-05
6.95255e-05
6.95099e-05
6.95273e-05
6.94928e-05
6.94764e-05
6.9495e-05
6.94787e-05
6.02938e-05
6.03032e-05
1.95923e-05
6.04729e-05
6.04829e-05
6.94458e-05
6.94613e-05
6.94482e-05
6.94636e-05
1.97722e-05
6.07315e-05
6.07409e-05
6.05619e-05
6.05713e-05
5.59462e-05
7.01509e-05
5.55422e-05
7.01701e-05
3.27299e-05
4.75477e-05
1.46027e-05
1.65334e-05
3.21863e-05
4.78944e-05
1.45856e-05
3.2729e-05
4.75528e-05
1.46027e-05
1.65339e-05
3.21864e-05
4.7897e-05
1.45856e-05
5.60557e-05
7.01956e-05
7.01776e-05
5.64268e-05
5.60542e-05
7.01923e-05
7.01744e-05
5.64256e-05
3.3012e-05
1.66089e-05
4.84012e-05
1.4567e-05
4.8071e-05
1.45755e-05
3.35434e-05
3.30115e-05
1.66093e-05
4.84038e-05
1.45669e-05
4.80749e-05
1.45754e-05
3.35422e-05
6.02987e-05
6.02941e-05
1.95941e-05
6.04785e-05
6.04737e-05
6.9492e-05
6.94759e-05
6.94473e-05
6.94627e-05
1.97736e-05
6.07362e-05
6.07319e-05
6.05668e-05
6.05618e-05
6.94455e-05
6.94606e-05
3.27315e-05
4.7552e-05
1.46033e-05
1.65339e-05
3.21863e-05
4.78988e-05
1.45863e-05
5.59466e-05
7.01496e-05
5.55412e-05
7.01726e-05
3.27303e-05
1.46034e-05
4.75492e-05
1.65354e-05
3.2187e-05
1.45864e-05
4.79012e-05
5.60541e-05
7.01971e-05
7.01791e-05
5.64267e-05
3.30106e-05
1.66093e-05
4.84062e-05
1.45676e-05
4.80748e-05
1.45761e-05
3.35438e-05
5.60531e-05
7.01946e-05
7.01731e-05
5.64257e-05
3.30109e-05
1.66109e-05
1.45678e-05
4.84075e-05
1.45763e-05
4.80724e-05
3.35432e-05
5.59376e-05
7.01508e-05
5.5546e-05
7.01737e-05
3.27306e-05
1.46027e-05
4.75469e-05
1.6534e-05
3.21844e-05
1.45857e-05
4.78948e-05
5.59426e-05
7.01486e-05
5.55439e-05
7.01715e-05
3.30088e-05
1.66086e-05
4.84021e-05
1.4566e-05
4.80714e-05
1.45745e-05
3.35436e-05
5.60572e-05
7.01957e-05
7.01742e-05
5.6417e-05
3.30092e-05
1.66096e-05
1.4567e-05
4.8402e-05
1.45755e-05
4.80709e-05
3.35417e-05
5.60553e-05
7.01936e-05
7.0172e-05
5.64219e-05
6.02989e-05
6.02939e-05
1.96176e-05
6.04784e-05
6.04733e-05
6.94932e-05
6.94769e-05
6.94476e-05
6.94629e-05
1.97589e-05
6.07377e-05
6.07326e-05
6.05663e-05
6.05621e-05
6.94464e-05
6.94618e-05
3.27326e-05
1.46033e-05
4.75529e-05
1.65342e-05
3.2184e-05
1.45863e-05
4.78977e-05
5.59407e-05
7.01527e-05
5.55481e-05
7.01756e-05
5.59396e-05
7.0152e-05
5.5547e-05
7.01713e-05
3.30103e-05
1.66098e-05
1.45671e-05
4.84051e-05
1.45756e-05
4.80697e-05
3.355e-05
3.30097e-05
1.66096e-05
1.45677e-05
4.84061e-05
1.45762e-05
4.80746e-05
3.3546e-05
5.60594e-05
7.01976e-05
7.01761e-05
5.64201e-05
5.60582e-05
7.01935e-05
7.01754e-05
5.64191e-05
6.94926e-05
6.94762e-05
6.94944e-05
6.9478e-05
1.97719e-05
6.07278e-05
6.07362e-05
6.05588e-05
6.05671e-05
6.94458e-05
6.94611e-05
6.94476e-05
6.94631e-05
6.94313e-05
6.94168e-05
6.94337e-05
6.94193e-05
6.08161e-05
6.08253e-05
2.04322e-05
6.09766e-05
6.09863e-05
6.93894e-05
6.94028e-05
6.93919e-05
6.94053e-05
2.05881e-05
6.12092e-05
6.12191e-05
6.10567e-05
6.10668e-05
5.68636e-05
7.01961e-05
5.65214e-05
7.02131e-05
3.43386e-05
4.85711e-05
1.45656e-05
1.68647e-05
3.382e-05
4.88885e-05
1.45674e-05
3.43379e-05
4.85743e-05
1.45655e-05
1.68652e-05
3.38195e-05
4.88894e-05
1.45673e-05
5.69498e-05
7.02355e-05
7.02196e-05
5.72659e-05
5.69482e-05
7.02324e-05
7.02167e-05
5.72647e-05
3.46076e-05
1.69614e-05
4.93523e-05
1.45818e-05
4.90492e-05
1.45727e-05
3.51122e-05
3.46071e-05
1.69618e-05
4.93539e-05
1.45817e-05
4.90527e-05
1.45726e-05
3.51135e-05
6.08208e-05
6.0815e-05
2.04322e-05
6.09812e-05
6.0976e-05
6.94307e-05
6.94166e-05
6.93911e-05
6.94044e-05
2.05877e-05
6.12145e-05
6.12076e-05
6.10617e-05
6.10548e-05
6.9389e-05
6.94022e-05
3.43373e-05
4.85752e-05
1.45663e-05
1.68649e-05
3.38189e-05
4.88912e-05
1.4568e-05
5.68635e-05
7.01951e-05
5.65203e-05
7.02142e-05
3.43372e-05
1.45665e-05
4.85742e-05
1.68672e-05
3.38186e-05
1.45683e-05
4.88911e-05
5.6948e-05
7.0237e-05
7.02209e-05
5.72656e-05
3.46074e-05
1.69616e-05
4.93571e-05
1.45824e-05
4.90538e-05
1.45733e-05
3.51117e-05
5.69471e-05
7.02326e-05
7.02169e-05
5.72645e-05
3.46063e-05
1.69639e-05
1.45827e-05
4.93549e-05
1.45735e-05
4.90535e-05
3.51104e-05
5.68549e-05
7.01962e-05
5.6524e-05
7.02161e-05
3.43389e-05
1.45656e-05
4.85706e-05
1.68655e-05
3.38181e-05
1.45674e-05
4.8887e-05
5.68599e-05
7.01939e-05
5.65224e-05
7.0214e-05
3.46025e-05
1.69608e-05
4.93512e-05
1.45798e-05
4.90482e-05
1.45717e-05
3.51088e-05
5.69503e-05
7.02349e-05
7.02166e-05
5.72561e-05
3.46047e-05
1.69624e-05
1.45815e-05
4.93539e-05
1.45729e-05
4.90499e-05
3.51111e-05
5.69489e-05
7.02325e-05
7.02146e-05
5.7261e-05
6.0821e-05
6.08159e-05
2.04106e-05
6.09822e-05
6.09771e-05
6.94318e-05
6.94173e-05
6.93912e-05
6.94046e-05
2.06091e-05
6.12146e-05
6.12097e-05
6.10612e-05
6.10569e-05
6.93899e-05
6.94033e-05
3.43412e-05
1.45664e-05
4.85741e-05
1.68655e-05
3.38172e-05
1.45682e-05
4.88906e-05
5.68582e-05
7.0198e-05
5.65258e-05
7.02175e-05
5.68571e-05
7.01961e-05
5.65246e-05
7.0215e-05
3.46047e-05
1.69624e-05
1.45815e-05
4.93542e-05
1.45732e-05
4.90474e-05
3.51147e-05
3.46052e-05
1.69621e-05
1.45824e-05
4.93546e-05
1.45737e-05
4.90524e-05
3.51136e-05
5.69522e-05
7.02364e-05
7.02193e-05
5.72594e-05
5.69514e-05
7.02345e-05
7.02155e-05
5.72583e-05
6.94312e-05
6.94168e-05
6.94331e-05
6.94186e-05
2.06081e-05
6.12061e-05
6.12143e-05
6.10534e-05
6.10608e-05
6.93895e-05
6.94028e-05
6.93911e-05
6.94046e-05
6.93759e-05
6.93635e-05
6.93783e-05
6.93659e-05
6.12856e-05
6.12952e-05
2.13276e-05
6.14314e-05
6.14401e-05
6.93388e-05
6.93503e-05
6.93413e-05
6.93527e-05
2.15022e-05
6.16418e-05
6.16506e-05
6.15035e-05
6.15126e-05
5.7633e-05
7.02353e-05
5.73393e-05
7.02503e-05
3.58637e-05
4.95068e-05
1.45972e-05
1.72792e-05
3.53735e-05
4.9797e-05
1.46148e-05
3.58648e-05
4.95098e-05
1.45971e-05
1.72797e-05
3.53711e-05
4.97991e-05
1.46147e-05
5.77005e-05
7.02701e-05
7.02561e-05
5.79734e-05
5.76988e-05
7.02673e-05
7.02533e-05
5.79723e-05
3.61157e-05
1.73964e-05
5.02229e-05
1.46649e-05
4.99451e-05
1.46389e-05
3.6592e-05
3.61133e-05
1.73967e-05
5.02251e-05
1.46649e-05
4.99484e-05
1.46387e-05
3.6591e-05
6.12907e-05
6.12825e-05
2.13263e-05
6.14353e-05
6.14272e-05
6.93749e-05
6.93627e-05
6.93406e-05
6.9352e-05
2.14962e-05
6.16462e-05
6.16371e-05
6.15081e-05
6.14999e-05
6.93378e-05
6.93491e-05
3.5863e-05
4.95098e-05
1.45977e-05
1.72791e-05
3.53731e-05
4.98027e-05
1.46153e-05
5.76327e-05
7.02358e-05
5.73382e-05
7.02508e-05
3.58616e-05
1.45981e-05
4.95112e-05
1.72819e-05
3.53727e-05
1.46157e-05
4.97999e-05
5.76989e-05
7.02718e-05
7.02578e-05
5.79732e-05
3.61154e-05
1.73962e-05
5.02284e-05
1.46654e-05
4.99471e-05
1.46394e-05
3.65923e-05
5.76978e-05
7.02679e-05
7.02534e-05
5.79719e-05
3.61157e-05
1.73989e-05
1.46659e-05
5.02255e-05
1.46398e-05
4.99488e-05
3.65888e-05
5.76246e-05
7.02354e-05
5.73409e-05
7.02525e-05
3.5862e-05
1.45974e-05
4.95053e-05
1.72803e-05
3.53712e-05
1.46145e-05
4.97993e-05
5.76295e-05
7.02343e-05
5.73398e-05
7.025e-05
3.61125e-05
1.73951e-05
5.02202e-05
1.46623e-05
4.99448e-05
1.46377e-05
3.65869e-05
5.76999e-05
7.0269e-05
7.02529e-05
5.79641e-05
3.6113e-05
1.73974e-05
1.46645e-05
5.02247e-05
1.46391e-05
4.99428e-05
3.65896e-05
5.76992e-05
7.02665e-05
7.02525e-05
5.79692e-05
6.12899e-05
6.12855e-05
2.13294e-05
6.14353e-05
6.14311e-05
6.93763e-05
6.93638e-05
6.93404e-05
6.9352e-05
2.14973e-05
6.16455e-05
6.16414e-05
6.15078e-05
6.15031e-05
6.9339e-05
6.93506e-05
3.58654e-05
1.45983e-05
4.95096e-05
1.728e-05
3.53724e-05
1.46155e-05
4.97981e-05
5.76278e-05
7.02366e-05
5.73428e-05
7.02548e-05
5.76267e-05
7.02347e-05
5.73419e-05
7.02524e-05
3.61158e-05
1.73971e-05
1.46643e-05
5.0223e-05
1.46398e-05
4.9945e-05
3.65941e-05
3.61142e-05
1.7397e-05
1.46657e-05
5.0224e-05
1.46401e-05
4.99474e-05
3.65916e-05
5.77018e-05
7.02713e-05
7.0255e-05
5.79674e-05
5.77008e-05
7.02689e-05
7.02526e-05
5.79661e-05
6.93758e-05
6.93634e-05
6.93776e-05
6.9365e-05
2.15205e-05
6.1638e-05
6.16454e-05
6.14998e-05
6.15064e-05
6.93387e-05
6.93502e-05
6.93403e-05
6.93519e-05
6.9326e-05
6.93155e-05
6.93284e-05
6.9318e-05
6.17109e-05
6.17199e-05
2.2256e-05
6.18431e-05
6.18523e-05
6.92935e-05
6.93031e-05
6.92959e-05
6.93055e-05
2.24876e-05
6.20352e-05
6.20441e-05
6.19084e-05
6.19176e-05
5.8286e-05