/*--------------------------------*- C++ -*----------------------------------*\
| =========                 |                                                 |
| \\      /  F ield         | OpenFOAM: The Open Source CFD Toolbox           |
|  \\    /   O peration     | Version:  2312                                  |
|   \\  /    A nd           | Website:  www.openfoam.com                      |
|    \\/     M anipulation  |                                                 |
\*---------------------------------------------------------------------------*/
FoamFile
{
    version     2.0;
    format      ascii;
    arch        "LSB;label=32;scalar=64";
    class       volScalarField;
    location    "625";
    object      epsilon;
}
// * * * * * * * * * * * * * * * * * * * * * * * * * * * * * * * * * * * * * //

dimensions      [0 2 -3 0 0 0 0];

internalField   nonuniform List<scalar> 
42973
(
3.73113e-07
9.44023e-07
1.25093e-06
3.60852e-07
8.9337e-07
8.83309e-07
1.16053e-06
3.07542e-07
8.30938e-07
8.5467e-07
1.1014e-06
3.01514e-07
8.50748e-07
9.02439e-07
1.17208e-06
4.03175e-07
1.01383e-06
9.79406e-07
1.26667e-06
4.67216e-07
1.05034e-06
9.95624e-07
1.27973e-06
4.27902e-07
9.63643e-07
9.7013e-07
1.23781e-06
4.02227e-07
9.64387e-07
1.00766e-06
1.238e-06
4.54777e-07
1.0378e-06
1.08167e-06
1.32597e-06
5.16739e-07
1.07897e-06
1.08179e-06
1.33235e-06
5.12797e-07
1.08763e-06
1.03091e-06
1.27972e-06
4.79567e-07
1.07485e-06
1.04202e-06
1.31841e-06
5.03565e-07
1.0699e-06
1.11404e-06
1.37057e-06
5.52925e-07
1.09676e-06
1.12791e-06
1.37607e-06
5.52319e-07
1.11983e-06
1.10434e-06
1.34735e-06
5.45395e-07
1.12218e-06
1.11008e-06
1.33307e-06
5.66333e-07
1.12596e-06
1.13838e-06
1.35911e-06
5.90659e-07
1.14077e-06
1.14779e-06
1.38159e-06
5.9824e-07
1.15507e-06
1.14535e-06
1.38897e-06
6.01462e-07
1.15847e-06
1.15196e-06
1.3998e-06
6.09694e-07
1.16062e-06
1.16629e-06
1.40647e-06
6.2396e-07
1.1664e-06
1.1707e-06
1.40009e-06
6.35948e-07
1.17417e-06
1.17249e-06
1.39971e-06
6.41669e-07
1.18229e-06
1.18105e-06
1.41247e-06
6.49017e-07
1.18649e-06
1.18545e-06
1.4202e-06
6.56658e-07
1.18666e-06
1.18635e-06
1.4197e-06
6.61913e-07
1.1897e-06
1.19147e-06
1.42271e-06
1.26041e-06
1.20348e-06
9.50705e-07
9.43166e-07
9.28621e-07
9.15589e-07
1.25182e-06
1.1883e-06
9.51249e-07
9.26844e-07
9.01206e-07
9.41936e-07
9.13819e-07
9.00567e-07
1.17058e-06
9.41589e-07
8.98423e-07
8.96917e-07
1.16751e-06
1.19505e-06
1.08817e-06
9.02155e-07
8.94921e-07
8.38683e-07
8.40502e-07
1.18143e-06
1.09114e-06
9.00728e-07
8.85964e-07
8.38821e-07
8.56287e-07
8.81054e-07
8.40776e-07
8.45525e-07
1.1653e-06
1.11675e-06
8.77785e-07
8.55838e-07
8.44679e-07
1.09913e-06
1.08562e-06
1.09088e-06
8.27193e-07
8.2991e-07
8.27395e-07
8.28016e-07
1.08896e-06
1.08673e-06
8.28024e-07
8.54308e-07
8.30593e-07
8.76392e-07
8.43876e-07
8.30542e-07
8.76161e-07
1.11867e-06
1.1549e-06
8.43858e-07
8.82816e-07
8.83732e-07
1.15262e-06
1.11066e-06
1.25311e-06
8.48772e-07
8.46339e-07
9.67896e-07
9.76364e-07
1.10602e-06
1.26474e-06
8.54752e-07
8.95576e-07
9.68683e-07
9.60504e-07
8.9764e-07
9.77117e-07
9.67516e-07
1.17151e-06
1.24423e-06
9.06032e-07
9.64008e-07
9.7104e-07
1.25292e-06
1.28449e-06
1.34028e-06
1.00545e-06
1.01512e-06
1.05721e-06
1.06231e-06
1.29801e-06
1.34988e-06
1.00365e-06
9.78825e-07
1.05006e-06
1.00133e-06
9.86726e-07
1.05653e-06
1.01316e-06
1.25741e-06
1.26292e-06
9.86505e-07
9.9686e-07
1.00742e-06
1.27933e-06
1.33792e-06
1.22911e-06
1.05446e-06
1.05638e-06
9.8218e-07
9.78103e-07
1.34498e-06
1.22722e-06
1.0475e-06
1.00016e-06
9.81674e-07
9.7307e-07
1.01359e-06
9.7924e-07
9.92436e-07
1.26119e-06
1.20617e-06
1.00807e-06
9.74072e-07
9.92169e-07
1.23876e-06
1.22205e-06
1.19247e-06
9.62982e-07
9.60591e-07
9.45136e-07
9.48274e-07
1.2205e-06
1.1985e-06
9.63907e-07
9.67719e-07
9.47461e-07
9.80106e-07
9.83869e-07
9.52608e-07
9.73686e-07
1.20593e-06
1.23979e-06
9.84607e-07
9.84563e-07
9.75693e-07
1.22824e-06
1.20611e-06
1.28997e-06
9.5442e-07
9.6151e-07
1.02842e-06
1.02067e-06
1.21242e-06
1.27949e-06
9.56632e-07
1.00449e-06
1.03076e-06
1.06675e-06
9.77859e-07
1.02153e-06
1.03961e-06
1.26135e-06
1.35049e-06
9.80228e-07
1.0683e-06
1.04304e-06
1.30997e-06
1.3089e-06
1.35765e-06
1.0508e-06
1.03654e-06
1.09506e-06
1.07282e-06
1.29327e-06
1.32495e-06
1.05337e-06
1.08032e-06
1.09703e-06
1.0895e-06
1.05721e-06
1.07268e-06
1.07599e-06
1.36339e-06
1.35808e-06
1.06082e-06
1.09006e-06
1.07903e-06
1.33507e-06
1.36365e-06
1.34028e-06
1.09917e-06
1.08088e-06
1.08803e-06
1.09336e-06
1.33127e-06
1.34385e-06
1.10053e-06
1.08298e-06
1.08403e-06
1.04494e-06
1.07099e-06
1.08744e-06
1.04774e-06
1.35479e-06
1.27707e-06
1.07321e-06
1.04008e-06
1.04424e-06
1.27948e-06
1.33633e-06
1.27387e-06
1.07262e-06
1.09358e-06
1.0407e-06
1.07771e-06
1.34743e-06
1.33619e-06
1.06738e-06
1.03501e-06
1.03535e-06
1.0268e-06
1.04629e-06
1.07899e-06
1.06715e-06
1.27374e-06
1.25832e-06
1.0414e-06
1.02817e-06
1.05955e-06
1.30512e-06
1.27406e-06
1.31148e-06
1.03786e-06
1.07112e-06
1.06812e-06
1.06354e-06
1.33656e-06
1.31731e-06
1.0335e-06
1.03388e-06
1.07313e-06
1.09303e-06
1.07897e-06
1.06949e-06
1.105e-06
1.27016e-06
1.34483e-06
1.07394e-06
1.09954e-06
1.10787e-06
1.36295e-06
1.32856e-06
1.37939e-06
1.08745e-06
1.06517e-06
1.12497e-06
1.0918e-06
1.31868e-06
1.32571e-06
1.0939e-06
1.1096e-06
1.13177e-06
1.13211e-06
1.11028e-06
1.08858e-06
1.11666e-06
1.36126e-06
1.38371e-06
1.11545e-06
1.13011e-06
1.12263e-06
1.37508e-06
1.38362e-06
1.35561e-06
1.12834e-06
1.1005e-06
1.11525e-06
1.11874e-06
1.33104e-06
1.34787e-06
1.13385e-06
1.13096e-06
1.11354e-06
1.10874e-06
1.11677e-06
1.11616e-06
1.10896e-06
1.38397e-06
1.34655e-06
1.12158e-06
1.10811e-06
1.10685e-06
1.3478e-06
1.35487e-06
1.33665e-06
1.10925e-06
1.12141e-06
1.10277e-06
1.12197e-06
1.35347e-06
1.36241e-06
1.10656e-06
1.10405e-06
1.09972e-06
1.10232e-06
1.10552e-06
1.12234e-06
1.10079e-06
1.34631e-06
1.34102e-06
1.10248e-06
1.10371e-06
1.09741e-06
1.33018e-06
1.34048e-06
1.36236e-06
1.10416e-06
1.12153e-06
1.12553e-06
1.12327e-06
1.36551e-06
1.36788e-06
1.10202e-06
1.10867e-06
1.12751e-06
1.1326e-06
1.10165e-06
1.12358e-06
1.11934e-06
1.34775e-06
1.37347e-06
1.09887e-06
1.13238e-06
1.1203e-06
1.35163e-06
1.36986e-06
1.38692e-06
1.13237e-06
1.12592e-06
1.14761e-06
1.13701e-06
1.37041e-06
1.37374e-06
1.13489e-06
1.1388e-06
1.14957e-06
1.14808e-06
1.12597e-06
1.13649e-06
1.14165e-06
1.38011e-06
1.38735e-06
1.1277e-06
1.14756e-06
1.14412e-06
1.37742e-06
1.3906e-06
1.38956e-06
1.15001e-06
1.14141e-06
1.15232e-06
1.15285e-06
1.37727e-06
1.38592e-06
1.15119e-06
1.14826e-06
1.1514e-06
1.14573e-06
1.14446e-06
1.15242e-06
1.1502e-06
1.38867e-06
1.37884e-06
1.1465e-06
1.14562e-06
1.14971e-06
1.38597e-06
1.39104e-06
1.3854e-06
1.15237e-06
1.15515e-06
1.1524e-06
1.15731e-06
1.38987e-06
1.39286e-06
1.15106e-06
1.14537e-06
1.15112e-06
1.1476e-06
1.15246e-06
1.15825e-06
1.16099e-06
1.38007e-06
1.37964e-06
1.15109e-06
1.14826e-06
1.15866e-06
1.39583e-06
1.38693e-06
1.38766e-06
1.15262e-06
1.15734e-06
1.15636e-06
1.15801e-06
1.39474e-06
1.39193e-06
1.1518e-06
1.15099e-06
1.15697e-06
1.16184e-06
1.16356e-06
1.15969e-06
1.16733e-06
1.38334e-06
1.39374e-06
1.1616e-06
1.16321e-06
1.16747e-06
1.40464e-06
1.39063e-06
1.3975e-06
1.15841e-06
1.15931e-06
1.16674e-06
1.16514e-06
1.39378e-06
1.39572e-06
1.1592e-06
1.16509e-06
1.16714e-06
1.1705e-06
1.16742e-06
1.16473e-06
1.16572e-06
1.39813e-06
1.40311e-06
1.16792e-06
1.17049e-06
1.16638e-06
1.3989e-06
1.40134e-06
1.4076e-06
1.16969e-06
1.16744e-06
1.17617e-06
1.17397e-06
1.39876e-06
1.40442e-06
1.16974e-06
1.17103e-06
1.17542e-06
1.17266e-06
1.16539e-06
1.17213e-06
1.16655e-06
1.40525e-06
1.4051e-06
1.16583e-06
1.17128e-06
1.16632e-06
1.39659e-06
1.41038e-06
1.41097e-06
1.17724e-06
1.17568e-06
1.17878e-06
1.18011e-06
1.40766e-06
1.4122e-06
1.17644e-06
1.17387e-06
1.17826e-06
1.17905e-06
1.16924e-06
1.18042e-06
1.17885e-06
1.4076e-06
1.41106e-06
1.16855e-06
1.17894e-06
1.17831e-06
1.40818e-06
1.41303e-06
1.41433e-06
1.17945e-06
1.18152e-06
1.1832e-06
1.18514e-06
1.41511e-06
1.41721e-06
1.17909e-06
1.18083e-06
1.18303e-06
1.18432e-06
1.18182e-06
1.18599e-06
1.18692e-06
1.41403e-06
1.41582e-06
1.18131e-06
1.18504e-06
1.18662e-06
1.41804e-06
1.41689e-06
1.41882e-06
1.18479e-06
1.18591e-06
1.18827e-06
1.18679e-06
1.41929e-06
1.41739e-06
1.18453e-06
1.18486e-06
1.1879e-06
1.18615e-06
1.18732e-06
1.18672e-06
1.18731e-06
1.41774e-06
1.4161e-06
1.18705e-06
1.18591e-06
1.18704e-06
1.41799e-06
1.42101e-06
1.42123e-06
1.18885e-06
1.18685e-06
1.19017e-06
1.18838e-06
1.41896e-06
1.41871e-06
1.1886e-06
1.18686e-06
1.19035e-06
1.19032e-06
1.1873e-06
1.18803e-06
1.18915e-06
1.41833e-06
1.4204e-06
1.18706e-06
1.19003e-06
1.1893e-06
1.42024e-06
1.42339e-06
1.19083e-06
1.18987e-06
1.42133e-06
1.19103e-06
1.19163e-06
1.19039e-06
1.4232e-06
1.19052e-06
4.16906e-06
9.31915e-06
4.18039e-06
9.30617e-06
1.86789e-05
1.8599e-05
4.16624e-06
9.31711e-06
4.17688e-06
9.30192e-06
3.69174e-07
3.6794e-07
3.7258e-07
3.65e-07
3.55749e-07
3.55873e-07
2.17291e-06
3.60132e-06
6.21492e-07
9.42935e-07
2.18766e-06
3.57781e-06
6.23775e-07
1.85444e-05
2.1613e-06
6.20001e-07
9.33431e-07
2.18269e-06
6.20393e-07
3.5585e-06
5.65304e-06
5.64857e-06
1.22329e-06
5.59033e-06
5.57961e-06
4.0642e-06
9.18984e-06
4.10559e-06
9.10503e-06
1.83359e-05
1.82334e-05
4.07322e-06
9.18879e-06
4.1102e-06
9.11261e-06
3.5316e-07
3.45623e-07
3.43588e-07
3.17847e-07
3.17368e-07
3.21975e-07
3.16717e-07
2.09055e-06
3.49598e-06
6.02011e-07
8.73729e-07
2.12024e-06
3.443e-06
5.87875e-07
1.8279e-05
1.82173e-05
2.08624e-06
5.9342e-07
3.46852e-06
8.70445e-07
2.10966e-06
5.82453e-07
3.42789e-06
5.41605e-06
5.41532e-06
1.11822e-06
5.3374e-06
5.3446e-06
4.01373e-06
9.01779e-06
4.0223e-06
9.00771e-06
1.81662e-05
1.81823e-05
4.02136e-06
9.03017e-06
4.03049e-06
9.01729e-06
3.08187e-07
3.1829e-07
3.12982e-07
2.98064e-07
2.99776e-07
3.21927e-07
3.20546e-07
2.06069e-06
3.38401e-06
5.56239e-07
8.26517e-07
2.06364e-06
3.36195e-06
5.52154e-07
1.82382e-05
1.83072e-05
2.07843e-06
5.63724e-07
3.40423e-06
8.56232e-07
2.07143e-06
5.63353e-07
3.41156e-06
5.30096e-06
5.30973e-06
1.11098e-06
5.33027e-06
5.33832e-06
4.07305e-06
9.05949e-06
4.0314e-06
9.147e-06
1.82952e-05
1.84782e-05
4.07802e-06
9.05945e-06
4.04093e-06
9.14288e-06
3.03528e-07
3.33801e-07
3.3592e-07
3.74364e-07
3.83197e-07
3.78155e-07
3.85189e-07
2.12582e-06
3.37586e-06
5.6153e-07
8.92787e-07
2.08747e-06
3.43538e-06
5.86745e-07
1.84404e-05
1.85453e-05
2.14492e-06
5.92029e-07
3.46451e-06
9.2337e-07
2.11426e-06
6.10642e-07
3.50828e-06
5.42986e-06
5.44397e-06
1.20585e-06
5.50648e-06
5.51608e-06
4.22198e-06
9.34412e-06
4.17564e-06
9.43203e-06
1.8797e-05
1.89242e-05
4.19549e-06
9.32604e-06
4.15811e-06
9.40659e-06
4.13109e-07
3.92939e-07
4.00915e-07
4.62777e-07
4.68964e-07
4.20817e-07
4.31384e-07
2.23536e-06
3.59239e-06
6.82245e-07
1.04101e-06
2.20469e-06
3.65422e-06
7.09136e-07
1.86576e-05
1.86785e-05
2.21009e-06
6.70138e-07
3.57048e-06
9.89757e-07
2.1927e-06
6.85629e-07
3.58539e-06
5.61171e-06
5.59896e-06
1.27767e-06
5.62636e-06
5.60611e-06
4.19758e-06
9.46215e-06
4.23856e-06
9.37647e-06
1.89004e-05
1.86866e-05
4.18532e-06
9.43905e-06
4.21391e-06
9.37071e-06
4.71273e-07
4.23682e-07
4.35592e-07
4.42809e-07
4.38471e-07
4.21712e-07
4.36465e-07
2.21058e-06
3.66909e-06
7.38673e-07
1.02659e-06
2.23655e-06
3.61277e-06
7.35556e-07
1.85475e-05
1.8426e-05
2.19226e-06
7.05721e-07
3.56109e-06
9.89011e-07
2.21005e-06
7.0597e-07
3.51661e-06
5.55153e-06
5.55745e-06
1.26179e-06
5.49216e-06
5.51279e-06
4.07989e-06
9.18545e-06
4.10673e-06
9.13849e-06
1.83519e-05
1.83235e-05
4.08359e-06
9.19009e-06
4.10976e-06
9.13746e-06
4.2412e-07
4.19892e-07
4.31991e-07
4.02965e-07
4.02204e-07
4.23072e-07
4.21537e-07
2.14642e-06
3.49931e-06
6.91718e-07
9.53993e-07
2.16107e-06
3.46311e-06
6.81725e-07
1.83262e-05
1.83785e-05
2.14227e-06
6.93746e-07
3.45383e-06
9.69198e-07
2.15407e-06
6.90743e-07
3.44329e-06
5.43922e-06
5.45544e-06
1.22483e-06
5.4326e-06
5.44216e-06
4.12343e-06
9.17998e-06
4.09241e-06
9.24793e-06
1.84715e-05
1.86012e-05
4.13104e-06
9.17349e-06
4.0964e-06
9.24499e-06
4.02087e-07
4.34732e-07
4.21474e-07
4.34717e-07
4.31667e-07
4.79735e-07
4.51408e-07
2.18016e-06
3.47384e-06
6.75818e-07
9.84908e-07
2.15653e-06
3.50673e-06
6.85807e-07
1.86222e-05
1.87849e-05
2.19418e-06
6.97174e-07
3.50471e-06
1.02981e-06
2.16145e-06
7.14826e-07
3.56916e-06
5.46888e-06
5.47245e-06
1.26252e-06
5.52567e-06
5.52822e-06
4.19058e-06
9.34422e-06
4.17068e-06
9.38209e-06
1.87176e-05
1.87351e-05
4.20517e-06
9.34365e-06
4.18447e-06
9.38575e-06
4.46124e-07
4.91672e-07
4.66425e-07
5.06794e-07
4.88503e-07
5.06655e-07
4.92694e-07
2.24083e-06
3.56595e-06
7.43646e-07
1.0524e-06
2.22512e-06
3.58124e-06
7.60586e-07
1.892e-05
1.89226e-05
2.27022e-06
7.69371e-07
3.66107e-06
1.08901e-06
2.25261e-06
7.8204e-07
3.68169e-06
5.62505e-06
5.62789e-06
1.34041e-06
5.65637e-06
5.66057e-06
4.20995e-06
9.40967e-06
4.20794e-06
9.41988e-06
1.87174e-05
1.8722e-05
4.21387e-06
9.42218e-06
4.21863e-06
9.43157e-06
5.00188e-07
5.05936e-07
4.93838e-07
5.20888e-07
5.20167e-07
4.82382e-07
4.85976e-07
2.2342e-06
3.58658e-06
7.90211e-07
1.08339e-06
2.24199e-06
3.58675e-06
7.92576e-07
1.87914e-05
1.86747e-05
2.23455e-06
7.91118e-07
3.65166e-06
1.06629e-06
2.25877e-06
7.85336e-07
3.60002e-06
5.61815e-06
5.61522e-06
1.30309e-06
5.54359e-06
5.52952e-06
4.1756e-06
9.40326e-06
4.19737e-06
9.34184e-06
1.87605e-05
1.87742e-05
4.14922e-06
9.38953e-06
4.17827e-06
9.32463e-06
5.22069e-07
4.74855e-07
4.84639e-07
4.83883e-07
5.17333e-07
4.65732e-07
4.91045e-07
2.22822e-06
3.60046e-06
7.92066e-07
1.08697e-06
2.22648e-06
3.60856e-06
7.91526e-07
1.84856e-05
1.8446e-05
2.19294e-06
7.59327e-07
3.52018e-06
1.02591e-06
2.19897e-06
7.55552e-07
3.49473e-06
5.45325e-06
5.44381e-06
1.27843e-06
5.44575e-06
5.4481e-06
4.1392e-06
9.24497e-06
4.14326e-06
9.23592e-06
1.87513e-05
1.87266e-05
4.13059e-06
9.24977e-06
4.12305e-06
9.25131e-06
5.11053e-07
4.67434e-07
5.01043e-07
4.86719e-07
4.99172e-07
5.09543e-07
5.28228e-07
2.23669e-06
3.61456e-06
7.91476e-07
1.07181e-06
2.23394e-06
3.60463e-06
7.92102e-07
1.85261e-05
1.86662e-05
2.22619e-06
7.64497e-07
3.50853e-06
1.06297e-06
2.20794e-06
7.81747e-07
3.54314e-06
5.52106e-06
5.53382e-06
1.33792e-06
5.57399e-06
5.58972e-06
4.18764e-06
9.32723e-06
4.16457e-06
9.40354e-06
1.87031e-05
1.8698e-05
4.20768e-06
9.35309e-06
4.1794e-06
9.42273e-06
4.98156e-07
5.24995e-07
5.35477e-07
5.45076e-07
5.07771e-07
5.55405e-07
5.47413e-07
2.24692e-06
3.5789e-06
7.9827e-07
1.07284e-06
2.24208e-06
3.56605e-06
8.03015e-07
1.88535e-05
1.89161e-05
2.26999e-06
8.2808e-07
3.61293e-06
1.12442e-06
2.25746e-06
8.38969e-07
3.63764e-06
5.64126e-06
5.65949e-06
1.37501e-06
5.65972e-06
5.67532e-06
4.20912e-06
9.46098e-06
4.20921e-06
9.45807e-06
1.86881e-05
1.87009e-05
4.2191e-06
9.47315e-06
4.22803e-06
9.46339e-06
5.16636e-07
5.58052e-07
5.48168e-07
5.56578e-07
5.43858e-07
5.5253e-07
5.43839e-07
2.25437e-06
3.56072e-06
8.23993e-07
1.10435e-06
2.25356e-06
3.56663e-06
8.31223e-07
1.88913e-05
1.88173e-05
2.26682e-06
8.48731e-07
3.6453e-06
1.1206e-06
2.27472e-06
8.46565e-07
3.62553e-06
5.65516e-06
5.65172e-06
1.36452e-06
5.62755e-06
5.61278e-06
4.1818e-06
9.40071e-06
4.1919e-06
9.3703e-06
1.87522e-05
1.87949e-05
4.17692e-06
9.39931e-06
4.1891e-06
9.37311e-06
5.51408e-07
5.49367e-07
5.41124e-07
5.45387e-07
5.63684e-07
5.46403e-07
5.36917e-07
2.24581e-06
3.58626e-06
8.44828e-07
1.12173e-06
2.24951e-06
3.5943e-06
8.4632e-07
1.87125e-05
1.87076e-05
2.24052e-06
8.32952e-07
3.58816e-06
1.10231e-06
2.24796e-06
8.30627e-07
3.57444e-06
5.56679e-06
5.55536e-06
1.33445e-06
5.53726e-06
5.53344e-06
4.18109e-06
9.35264e-06
4.17624e-06
9.36865e-06
1.88431e-05
1.88635e-05
4.1794e-06
9.3643e-06
4.17194e-06
9.38406e-06
5.64768e-07
5.4738e-07
5.37121e-07
5.58967e-07
5.65744e-07
5.6397e-07
5.52132e-07
2.2506e-06
3.61014e-06
8.47925e-07
1.12215e-06
2.2461e-06
3.61496e-06
8.491e-07
1.87702e-05
1.8835e-05
2.24753e-06
8.32292e-07
3.57937e-06
1.11808e-06
2.24053e-06
8.39433e-07
3.59349e-06
5.51925e-06
5.52981e-06
1.33699e-06
5.52956e-06
5.54356e-06
4.20437e-06
9.41812e-06
4.19541e-06
9.44774e-06
1.88605e-05
1.88502e-05
4.20934e-06
9.42776e-06
4.19859e-06
9.45282e-06
5.66664e-07
5.7018e-07
5.59912e-07
5.86006e-07
5.75318e-07
5.85017e-07
5.82111e-07
2.26489e-06
3.61554e-06
8.5633e-07
1.12891e-06
2.26032e-06
3.61149e-06
8.6003e-07
1.88948e-05
1.89097e-05
2.27149e-06
8.63585e-07
3.62229e-06
1.14317e-06
2.26369e-06
8.70492e-07
3.63113e-06
5.5722e-06
5.57897e-06
1.36674e-06
5.5912e-06
5.59493e-06
4.2173e-06
9.4732e-06
4.21431e-06
9.47884e-06
1.8846e-05
1.88657e-05
4.21958e-06
9.47414e-06
4.21908e-06
9.47857e-06
5.79641e-07
5.87818e-07
5.87668e-07
5.97346e-07
5.94027e-07
5.91589e-07
5.97538e-07
2.27302e-06
3.60937e-06
8.73511e-07
1.14502e-06
2.27021e-06
3.61261e-06
8.78259e-07
1.88943e-05
1.88789e-05
2.27552e-06
8.81994e-07
3.63207e-06
1.14738e-06
2.27658e-06
8.82799e-07
3.62424e-06
5.6085e-06
5.60756e-06
1.38278e-06
5.60938e-06
5.60788e-06
4.21496e-06
9.47358e-06
4.21698e-06
9.46739e-06
1.8903e-05
1.89224e-05
4.21085e-06
9.47358e-06
4.21441e-06
9.46874e-06
5.98172e-07
5.92304e-07
5.99936e-07
6.00398e-07
6.05999e-07
5.96561e-07
6.0811e-07
2.27967e-06
3.6245e-06
8.89814e-07
1.1568e-06
2.27762e-06
3.62829e-06
8.92353e-07
1.88614e-05
1.88653e-05
2.27237e-06
8.83035e-07
3.61265e-06
1.14538e-06
2.2728e-06
8.83364e-07
3.60835e-06
5.60811e-06
5.60774e-06
1.39006e-06
5.61089e-06
5.61142e-06
4.21129e-06
9.46195e-06
4.21208e-06
9.4644e-06
1.89325e-05
1.8935e-05
4.20874e-06
9.46447e-06
4.20757e-06
9.46697e-06
6.0735e-07
5.99406e-07
6.11065e-07
6.06983e-07
6.10628e-07
6.11402e-07
6.17976e-07
2.28332e-06
3.63098e-06
8.96755e-07
1.15869e-06
2.28255e-06
3.62886e-06
8.97814e-07
1.8891e-05
1.89202e-05
2.27975e-06
8.91186e-07
3.61112e-06
1.1558e-06
2.27594e-06
8.9514e-07
3.61635e-06
5.62913e-06
5.63044e-06
1.40166e-06
5.63838e-06
5.64089e-06
4.21408e-06
9.47396e-06
4.21212e-06
9.48296e-06
1.89341e-05
1.89415e-05
4.21726e-06
9.47649e-06
4.2141e-06
9.48481e-06
6.12159e-07
6.15758e-07
6.19265e-07
6.20109e-07
6.18975e-07
6.25909e-07
6.21111e-07
2.2831e-06
3.62486e-06
9.01413e-07
1.16181e-06
2.28375e-06
3.62314e-06
9.0284e-07
1.89552e-05
1.89726e-05
2.28637e-06
9.06211e-07
3.6289e-06
1.16857e-06
2.28546e-06
9.0865e-07
3.63221e-06
5.64487e-06
5.64804e-06
1.40257e-06
5.63796e-06
5.64075e-06
4.22267e-06
9.49735e-06
4.219e-06
9.50918e-06
1.89623e-05
1.89815e-05
4.2231e-06
9.49783e-06
4.22086e-06
9.50947e-06
6.21786e-07
6.27752e-07
6.21493e-07
6.33716e-07
6.30463e-07
6.31237e-07
6.24526e-07
2.2823e-06
3.6257e-06
9.07191e-07
1.16822e-06
2.28238e-06
3.62829e-06
9.08873e-07
1.89848e-05
1.89923e-05
2.28445e-06
9.11078e-07
3.63519e-06
1.17078e-06
2.28537e-06
9.11245e-07
3.63518e-06
5.61962e-06
5.6208e-06
1.39601e-06
5.61079e-06
5.61145e-06
4.23e-06
9.52317e-06
4.22795e-06
9.52919e-06
1.90017e-05
1.90149e-05
4.22944e-06
9.52444e-06
4.22718e-06
9.53099e-06
6.33143e-07
6.32634e-07
6.2686e-07
6.4036e-07
6.40631e-07
6.38913e-07
6.37179e-07
2.28823e-06
3.63517e-06
9.155e-07
1.17626e-06
2.28516e-06
3.63841e-06
9.18271e-07
1.90011e-05
1.90122e-05
2.28791e-06
9.13922e-07
3.63633e-06
1.17452e-06
2.28565e-06
9.1624e-07
3.63798e-06
5.6104e-06
5.61132e-06
1.40133e-06
5.61822e-06
5.61913e-06
4.23331e-06
9.53413e-06
4.23219e-06
9.53768e-06
1.90309e-05
1.90441e-05
4.23356e-06
9.53568e-06
4.23232e-06
9.53901e-06
6.42985e-07
6.41409e-07
6.4102e-07
6.46884e-07
6.49233e-07
6.4804e-07
6.50507e-07
2.29636e-06
3.645e-06
9.26426e-07
1.18389e-06
2.29426e-06
3.64674e-06
9.28589e-07
1.90307e-05
1.90422e-05
2.29589e-06
9.24659e-07
3.64422e-06
1.18287e-06
2.29372e-06
9.27257e-07
3.64549e-06
5.63754e-06
5.63927e-06
1.41468e-06
5.64383e-06
5.64553e-06
4.23693e-06
9.54445e-06
4.23583e-06
9.55104e-06
1.90567e-05
1.9064e-05
4.23588e-06
9.54561e-06
4.23535e-06
9.55174e-06
6.50922e-07
6.49706e-07
6.5242e-07
6.55027e-07
6.5442e-07
6.53696e-07
6.55557e-07
2.29706e-06
3.64822e-06
9.3242e-07
1.18671e-06
2.29772e-06
3.64742e-06
9.32945e-07
1.90511e-05
1.90576e-05
2.29604e-06
9.31863e-07
3.64566e-06
1.18563e-06
2.29681e-06
9.32387e-07
3.64442e-06
5.64832e-06
5.65e-06
1.41869e-06
5.64772e-06
5.64942e-06
4.2369e-06
9.55773e-06
4.23716e-06
9.56166e-06
1.90687e-05
1.90737e-05
4.23669e-06
9.55833e-06
4.23626e-06
9.56265e-06
6.55244e-07
6.55057e-07
6.56319e-07
6.60635e-07
6.58701e-07
6.60257e-07
6.59754e-07
2.29561e-06
3.64596e-06
9.33517e-07
1.18669e-06
2.29617e-06
3.64453e-06
9.33839e-07
1.90657e-05
1.90766e-05
2.2957e-06
9.33627e-07
3.64382e-06
1.18735e-06
2.29557e-06
9.34534e-07
3.64423e-06
5.64642e-06
5.64815e-06
1.41853e-06
5.64663e-06
5.64861e-06
9.56779e-06
4.23799e-06
1.90861e-05
4.24105e-06
9.56992e-06
4.23917e-06
6.60463e-07
6.62221e-07
6.61362e-07
3.64659e-06
9.37313e-07
2.29713e-06
1.90962e-05
1.9111e-05
2.29967e-06
9.3883e-07
3.6495e-06
1.1928e-06
2.29815e-06
9.40362e-07
3.65206e-06
5.65228e-06
5.65447e-06
1.42255e-06
5.65508e-06
5.65696e-06
1.86725e-05
1.86355e-05
1.86732e-05
1.86322e-05
5.64829e-06
5.64744e-06
1.25145e-06
5.63716e-06
5.63395e-06
1.84641e-05
1.85954e-05
1.84634e-05
1.8591e-05
1.24809e-06
5.54285e-06
5.54281e-06
5.62195e-06
5.61866e-06
4.16977e-06
9.32617e-06
4.18134e-06
9.29754e-06
2.17826e-06
3.60312e-06
6.21857e-07
9.51328e-07
2.18774e-06
3.59403e-06
6.25581e-07
2.17778e-06
3.6034e-06
6.20186e-07
9.42439e-07
2.18775e-06
3.58157e-06
6.23154e-07
4.16013e-06
9.22143e-06
9.2882e-06
4.12142e-06
4.16061e-06
9.19278e-06
9.2733e-06
4.12058e-06
2.17025e-06
9.47013e-07
3.53585e-06
6.22642e-07
3.58574e-06
6.25863e-07
2.13915e-06
2.16968e-06
9.34968e-07
3.515e-06
6.19162e-07
3.57117e-06
6.2309e-07
2.13841e-06
5.65082e-06
5.64691e-06
1.23524e-06
5.6102e-06
5.6024e-06
1.86727e-05
1.85885e-05
1.83933e-05
1.85403e-05
1.23114e-06
5.49982e-06
5.49462e-06
5.58791e-06
5.58014e-06
1.83891e-05
1.85296e-05
2.173e-06
3.60102e-06
6.23736e-07
9.51595e-07
2.18499e-06
3.59114e-06
6.26948e-07
4.16518e-06
9.28541e-06
2.17174e-06
9.34912e-07
6.23253e-07
3.56649e-06
4.15816e-06
9.21855e-06
9.28354e-06
4.124e-06
2.16534e-06
9.46534e-07
3.5362e-06
6.22224e-07
3.58309e-06
6.2681e-07
2.13701e-06
4.15574e-06
9.16741e-06
9.25619e-06
4.11686e-06
2.16358e-06
9.18089e-07
6.13944e-07
3.48895e-06
6.21859e-07
3.55078e-06
2.13399e-06
4.16897e-06
9.326e-06
4.18298e-06
9.29243e-06
2.1723e-06
6.2126e-07
3.60433e-06
9.38514e-07
2.18859e-06
6.2298e-07
3.57124e-06
4.16753e-06
9.32836e-06
4.18392e-06
9.29341e-06
2.16408e-06
9.34087e-07
3.51244e-06
6.16687e-07
3.5674e-06
6.23032e-07
2.13212e-06
4.15957e-06
9.18741e-06
9.26744e-06
4.11817e-06
2.16283e-06
9.2273e-07
6.13122e-07
3.48997e-06
6.216e-07
3.55653e-06
2.12938e-06
4.15673e-06
9.17349e-06
9.26649e-06
4.11281e-06
1.21905e-06
5.57464e-06
5.56127e-06
1.85288e-05
1.83237e-05
1.84746e-05
1.21351e-06
5.43985e-06
5.43551e-06
5.53986e-06
5.52786e-06
1.83286e-05
1.84625e-05
2.16095e-06
6.19524e-07
3.60206e-06
9.36948e-07
2.18345e-06
6.20124e-07
3.56334e-06
4.15518e-06
4.17968e-06
9.27014e-06
4.15465e-06
9.32556e-06
4.18027e-06
9.27226e-06
2.15163e-06
9.1545e-07
6.06057e-07
3.48343e-06
6.17257e-07
3.54258e-06
2.12016e-06
2.15103e-06
9.18922e-07
6.05968e-07
3.48286e-06
6.17306e-07
3.54751e-06
2.11859e-06
4.14349e-06
9.15621e-06
9.23957e-06
4.1008e-06
4.14271e-06
9.15321e-06
9.24248e-06
4.09946e-06
1.867e-05
1.85675e-05
1.8662e-05
1.85516e-05
1.21693e-06
5.44807e-06
5.44465e-06
5.55951e-06
5.54818e-06
1.83342e-05
1.85027e-05
1.83393e-05
1.84884e-05
1.83993e-05
1.82584e-05
1.84024e-05
1.82751e-05
5.50935e-06
5.51164e-06
1.13905e-06
5.40833e-06
5.41881e-06
1.81531e-05
1.82149e-05
1.81727e-05
1.8234e-05
1.1312e-06
5.30759e-06
5.32079e-06
5.37865e-06
5.39081e-06
4.06081e-06
9.16024e-06
4.10417e-06
9.08581e-06
2.09199e-06
3.51654e-06
6.09944e-07
8.77728e-07
2.12665e-06
3.45068e-06
5.93258e-07
2.09074e-06
3.49719e-06
6.06273e-07
8.74847e-07
2.12576e-06
3.43873e-06
5.91283e-07
4.05249e-06
9.02833e-06
9.07909e-06
4.02821e-06
4.04863e-06
9.02718e-06
9.0646e-06
4.02377e-06
2.08196e-06
8.56144e-07
3.38608e-06
5.65137e-07
3.43231e-06
5.78208e-07
2.06157e-06
2.08053e-06
8.56189e-07
3.38231e-06
5.65203e-07
3.42431e-06
5.77463e-07
2.05958e-06
5.47259e-06
5.4695e-06
1.13351e-06
5.39326e-06
5.39805e-06
1.8335e-05
1.82455e-05
1.81708e-05
1.82035e-05
1.12752e-06
5.31645e-06
5.32953e-06
5.37324e-06
5.3809e-06
1.81942e-05
1.82199e-05
2.09625e-06
3.5183e-06
6.07885e-07
8.76746e-07
2.12587e-06
3.45794e-06
5.9203e-07
4.06422e-06
9.13785e-06
4.10218e-06
9.07646e-06
2.09295e-06
6.00656e-07
3.47209e-06
8.72684e-07
2.12254e-06
5.8855e-07
3.42523e-06
4.06199e-06
9.04116e-06
9.08892e-06
4.03695e-06
2.08765e-06
8.55684e-07
3.395e-06
5.6568e-07
3.4406e-06
5.77813e-07
2.07026e-06
4.05389e-06
9.04526e-06
9.06207e-06
4.03375e-06
2.08466e-06
8.62334e-07
5.69189e-07
3.39737e-06
5.77859e-07
3.41598e-06
2.06896e-06
4.06448e-06
9.15654e-06
4.10326e-06
9.08987e-06
2.08744e-06
5.98079e-07
3.46993e-06
8.64688e-07
2.1171e-06
5.84718e-07
3.41508e-06
4.05901e-06
9.13964e-06
4.09707e-06
9.06609e-06
2.08256e-06
8.55706e-07
3.39236e-06
5.64184e-07
3.43044e-06
5.75078e-07
2.0669e-06
4.05395e-06
9.04152e-06
9.07179e-06
4.0311e-06
2.07981e-06
8.5238e-07
5.6465e-07
3.38185e-06
5.73404e-07
3.4036e-06
2.0662e-06
4.04916e-06
9.026e-06
9.04856e-06
4.03072e-06
5.41362e-06
5.41272e-06
1.13168e-06
5.35467e-06
5.36321e-06
1.82908e-05
1.82458e-05
1.8228e-05
1.82088e-05
1.13007e-06
5.33285e-06
5.34492e-06
5.34448e-06
5.35512e-06
1.82603e-05
1.82408e-05
2.08422e-06
5.9199e-07
3.46442e-06
8.61967e-07
2.10794e-06
5.80041e-07
3.4152e-06
4.05522e-06
9.13039e-06
4.08774e-06
9.08063e-06
4.05316e-06
9.12369e-06
4.08629e-06
9.06305e-06
2.08056e-06
8.60883e-07
5.66837e-07
3.40483e-06
5.73351e-07
3.42039e-06
2.07188e-06
2.07861e-06
8.50463e-07
5.63565e-07
3.3855e-06
5.70322e-07
3.4048e-06
2.06999e-06
4.04714e-06
9.05782e-06
9.06952e-06
4.03218e-06
4.04485e-06
9.03352e-06
9.04929e-06
4.02929e-06
1.82791e-05
1.81889e-05
1.82914e-05
1.82165e-05
1.11532e-06
5.29942e-06
5.30871e-06
5.32145e-06
5.32989e-06
1.81745e-05
1.81711e-05
1.82046e-05
1.82014e-05
1.81429e-05
1.81588e-05
1.81599e-05
1.81637e-05
5.29104e-06
5.30375e-06
1.07141e-06
5.26156e-06
5.269e-06
1.82723e-05
1.81712e-05
1.82576e-05
1.81724e-05
1.07449e-06
5.28489e-06
5.2825e-06
5.25996e-06
5.26527e-06
4.01087e-06
9.01905e-06
4.0181e-06
9.01112e-06
2.0516e-06
3.37567e-06
5.54981e-07
8.22405e-07
2.05703e-06
3.35661e-06
5.48982e-07
2.04964e-06
3.37374e-06
5.55565e-07
8.24926e-07
2.05497e-06
3.35316e-06
5.49806e-07
4.01315e-06
9.04225e-06
9.00905e-06
4.02365e-06
4.01082e-06
9.03995e-06
9.01164e-06
4.02363e-06
2.0521e-06
8.22266e-07
3.36904e-06
5.47666e-07
3.35542e-06
5.47044e-07
2.06631e-06
2.05028e-06
8.24313e-07
3.3611e-06
5.48424e-07
3.35117e-06
5.47863e-07
2.0655e-06
5.3033e-06
5.31687e-06
1.07355e-06
5.26689e-06
5.27896e-06
1.81893e-05
1.81976e-05
1.82638e-05
1.81893e-05
1.07525e-06
5.26714e-06
5.26514e-06
5.26011e-06
5.26975e-06
1.82501e-05
1.82008e-05
2.06354e-06
3.38407e-06
5.56676e-07
8.23879e-07
2.06662e-06
3.36198e-06
5.51941e-07
4.02774e-06
9.04497e-06
4.02975e-06
9.06468e-06
2.06651e-06
5.63542e-07
3.39646e-06
8.54976e-07
2.06634e-06
5.61292e-07
3.40338e-06
4.02112e-06
9.04409e-06
9.01739e-06
4.03349e-06
2.06527e-06
8.24135e-07
3.36971e-06
5.52538e-07
3.3597e-06
5.50929e-07
2.08123e-06
4.02978e-06
9.11855e-06
9.07326e-06
4.047e-06
2.07002e-06
8.60726e-07
5.64592e-07
3.44189e-06
5.61381e-07
3.41159e-06
2.08842e-06
4.01888e-06
9.03453e-06
4.02587e-06
9.02649e-06
2.06413e-06
5.59345e-07
3.38074e-06
8.45788e-07
2.06395e-06
5.57619e-07
3.38957e-06
4.02517e-06
9.02521e-06
4.02713e-06
9.04649e-06
2.06221e-06
8.26194e-07
3.36251e-06
5.52841e-07
3.3587e-06
5.51298e-07
2.0782e-06
4.019e-06
9.04204e-06
9.02594e-06
4.0317e-06
2.0673e-06
8.56269e-07
5.62909e-07
3.43233e-06
5.58164e-07
3.3988e-06
2.08522e-06
4.0269e-06
9.10779e-06
9.05669e-06
4.04275e-06
5.33527e-06
5.34652e-06
1.12352e-06
5.35878e-06
5.36762e-06
1.82682e-05
1.83267e-05
1.84178e-05
1.83235e-05
1.13369e-06
5.42184e-06
5.43014e-06
5.37155e-06
5.38002e-06
1.84334e-05
1.83418e-05
2.07704e-06
5.6058e-07
3.38473e-06
8.4723e-07
2.06963e-06
5.60491e-07
3.39566e-06
4.03456e-06
9.05801e-06
4.03021e-06
9.07894e-06
4.03198e-06
9.03373e-06
4.02728e-06
9.06142e-06
2.08322e-06
8.64879e-07
5.74895e-07
3.44995e-06
5.65448e-07
3.41952e-06
2.1052e-06
2.08214e-06
8.61825e-07
5.75749e-07
3.44304e-06
5.6362e-07
3.40601e-06
2.10452e-06
4.03885e-06
9.13703e-06
9.08827e-06
4.06226e-06
4.0366e-06
9.13565e-06
9.07421e-06
4.06083e-06
1.81854e-05
1.82692e-05
1.82139e-05
1.82919e-05
1.12469e-06
5.40577e-06
5.41942e-06
5.34647e-06
5.35516e-06
1.84058e-05
1.82907e-05
1.84334e-05
1.83141e-05
1.83058e-05
1.84783e-05
1.82886e-05
1.84568e-05
5.30583e-06
5.30257e-06
1.15943e-06
5.40115e-06
5.39482e-06
1.87127e-05
1.85308e-05
1.86852e-05
1.85081e-05
1.19172e-06
5.57359e-06
5.56123e-06
5.44352e-06
5.43724e-06
4.07512e-06
9.05743e-06
4.03197e-06
9.15187e-06
2.11783e-06
3.38288e-06
5.5337e-07
8.87158e-07
2.07572e-06
3.44091e-06
5.73896e-07
2.11851e-06
3.376e-06
5.54032e-07
8.88623e-07
2.07529e-06
3.43978e-06
5.74876e-07
4.0918e-06
9.30759e-06
9.18347e-06
4.1557e-06
4.09419e-06
9.3277e-06
9.19187e-06
4.15863e-06
2.13608e-06
9.27484e-07
3.55824e-06
6.43349e-07
3.4697e-06
6.07932e-07
2.19445e-06
2.13708e-06
9.33199e-07
3.57197e-06
6.46764e-07
3.47245e-06
6.10371e-07
2.1962e-06
5.2884e-06
5.28197e-06
1.15966e-06
5.39361e-06
5.38163e-06
1.82755e-05
1.84477e-05
1.87494e-05
1.85399e-05
1.19557e-06
5.59696e-06
5.58369e-06
5.44548e-06
5.43331e-06
1.87203e-05
1.85091e-05
2.1245e-06
3.38304e-06
5.61505e-07
8.92102e-07
2.08976e-06
3.43777e-06
5.85585e-07
4.09117e-06
9.13534e-06
4.05493e-06
9.20106e-06
2.13188e-06
5.76723e-07
3.45674e-06
9.16694e-07
2.09734e-06
5.97194e-07
3.50403e-06
4.0929e-06
9.29284e-06
9.17721e-06
4.14257e-06
2.13859e-06
9.30573e-07
3.5463e-06
6.45087e-07
3.46536e-06
6.14731e-07
2.18224e-06
4.10489e-06
9.28799e-06
9.22268e-06
4.1495e-06
2.14521e-06
9.38901e-07
6.44318e-07
3.56619e-06
6.19977e-07
3.52161e-06
2.18572e-06
4.08074e-06
9.05589e-06
4.04022e-06
9.14272e-06
2.13181e-06
5.78092e-07
3.44881e-06
9.20726e-07
2.09453e-06
6.0008e-07
3.5012e-06
4.09026e-06
9.12712e-06
4.05104e-06
9.20373e-06
2.14174e-06
9.35758e-07
3.56153e-06
6.51164e-07
3.46689e-06
6.18688e-07
2.19012e-06