/*--------------------------------*- C++ -*----------------------------------*\
| =========                 |                                                 |
| \\      /  F ield         | OpenFOAM: The Open Source CFD Toolbox           |
|  \\    /   O peration     | Version:  2312                                  |
|   \\  /    A nd           | Website:  www.openfoam.com                      |
|    \\/     M anipulation  |                                                 |
\*---------------------------------------------------------------------------*/
FoamFile
{
    version     2.0;
    format      ascii;
    arch        "LSB;label=32;scalar=64";
    class       volScalarField;
    location    "625";
    object      k;
}
// * * * * * * * * * * * * * * * * * * * * * * * * * * * * * * * * * * * * * //

dimensions      [0 2 -2 0 0 0 0];

internalField   nonuniform List<scalar> 
42973
(
2.29144e-05
3.98931e-05
4.58428e-05
2.58576e-05
4.21453e-05
4.20921e-05
4.76618e-05
2.52984e-05
3.85625e-05
3.76499e-05
4.15104e-05
1.97475e-05
3.45098e-05
3.56317e-05
3.93234e-05
1.83491e-05
3.44477e-05
3.84248e-05
4.37855e-05
2.65342e-05
4.52737e-05
4.28563e-05
4.80313e-05
3.08192e-05
4.68861e-05
4.29837e-05
4.7513e-05
2.76215e-05
4.06986e-05
4.04184e-05
4.50835e-05
2.44859e-05
3.98756e-05
4.26425e-05
4.52791e-05
2.75937e-05
4.45346e-05
4.76086e-05
5.0291e-05
3.25681e-05
4.63919e-05
4.74945e-05
4.95353e-05
3.25195e-05
4.68078e-05
4.31327e-05
4.64139e-05
2.90845e-05
4.63118e-05
4.29452e-05
4.91919e-05
2.94138e-05
4.562e-05
4.81877e-05
5.17271e-05
3.37108e-05
4.61021e-05
4.89687e-05
5.16554e-05
3.38019e-05
4.77661e-05
4.71097e-05
4.96337e-05
3.27367e-05
4.81796e-05
4.68958e-05
4.91436e-05
3.33916e-05
4.82921e-05
4.88908e-05
5.10052e-05
3.54471e-05
4.87118e-05
4.93601e-05
5.18311e-05
3.59046e-05
4.96489e-05
4.90833e-05
5.19282e-05
3.58564e-05
4.98922e-05
4.91445e-05
5.26681e-05
3.59642e-05
4.98864e-05
5.02796e-05
5.29269e-05
3.7023e-05
5.01827e-05
5.05549e-05
5.24816e-05
3.78628e-05
5.06538e-05
5.05575e-05
5.24369e-05
3.8187e-05
5.11921e-05
5.11239e-05
5.33888e-05
3.86181e-05
5.14816e-05
5.13725e-05
5.36487e-05
3.90577e-05
5.14717e-05
5.14101e-05
5.36021e-05
4.51204e-05
4.77699e-05
3.96743e-05
3.98728e-05
4.2124e-05
4.19673e-05
4.54992e-05
4.75884e-05
3.96977e-05
4.21623e-05
4.21141e-05
4.01059e-05
4.20296e-05
4.20352e-05
4.7767e-05
4.02627e-05
4.21328e-05
4.20533e-05
4.77021e-05
4.79633e-05
4.4712e-05
4.24171e-05
4.21045e-05
4.15305e-05
4.05784e-05
4.76281e-05
4.3611e-05
4.24365e-05
4.20932e-05
4.14902e-05
3.90663e-05
4.20579e-05
4.04621e-05
3.91525e-05
4.75069e-05
4.21901e-05
4.20516e-05
3.884e-05
3.88615e-05
4.21249e-05
4.37591e-05
3.87452e-05
3.9443e-05
3.86572e-05
3.51774e-05
3.52168e-05
4.29409e-05
3.91454e-05
3.93792e-05
3.78156e-05
3.51992e-05
3.58562e-05
3.76141e-05
3.52573e-05
3.52556e-05
4.17813e-05
4.02004e-05
3.73919e-05
3.5803e-05
3.51643e-05
3.92735e-05
3.84732e-05
3.85352e-05
3.43797e-05
3.44563e-05
3.36316e-05
3.36383e-05
3.88787e-05
3.80601e-05
3.44111e-05
3.56297e-05
3.37782e-05
3.62542e-05
3.50462e-05
3.377e-05
3.60597e-05
4.02311e-05
4.25614e-05
3.50218e-05
3.67384e-05
3.67491e-05
4.2654e-05
3.96753e-05
4.85599e-05
3.41823e-05
3.42408e-05
4.27903e-05
4.336e-05
3.92513e-05
4.93196e-05
3.44315e-05
3.77948e-05
4.2718e-05
4.20878e-05
3.79165e-05
4.3352e-05
4.25216e-05
4.35763e-05
4.72835e-05
3.86415e-05
4.21868e-05
4.25514e-05
4.76727e-05
4.95934e-05
5.16454e-05
4.48228e-05
4.54521e-05
4.70359e-05
4.74797e-05
5.04263e-05
5.22553e-05
4.45496e-05
4.2931e-05
4.65858e-05
4.35237e-05
4.33919e-05
4.70887e-05
4.41764e-05
4.76809e-05
4.69619e-05
4.32294e-05
4.32697e-05
4.38493e-05
4.76895e-05
5.13045e-05
4.42606e-05
4.69127e-05
4.72695e-05
4.21911e-05
4.19443e-05
5.15955e-05
4.39588e-05
4.6477e-05
4.32636e-05
4.21109e-05
4.07904e-05
4.41012e-05
4.19761e-05
4.21382e-05
4.6555e-05
4.32952e-05
4.37743e-05
4.08027e-05
4.20346e-05
4.51979e-05
4.36593e-05
4.3092e-05
4.07461e-05
4.0549e-05
3.94149e-05
3.95177e-05
4.3407e-05
4.35145e-05
4.07633e-05
4.03476e-05
3.95106e-05
4.08117e-05
4.15613e-05
3.96845e-05
4.09074e-05
4.31609e-05
4.60538e-05
4.15251e-05
4.09483e-05
4.09542e-05
4.47971e-05
4.37522e-05
4.85994e-05
3.95331e-05
3.97448e-05
4.38785e-05
4.34883e-05
4.42703e-05
4.80907e-05
3.96427e-05
4.24684e-05
4.41369e-05
4.67748e-05
4.10736e-05
4.3602e-05
4.49625e-05
4.72988e-05
5.1677e-05
4.11713e-05
4.68979e-05
4.52626e-05
4.97378e-05
4.93233e-05
5.13593e-05
4.52879e-05
4.43591e-05
4.75467e-05
4.61573e-05
4.851e-05
4.92962e-05
4.55197e-05
4.74703e-05
4.77084e-05
4.79166e-05
4.59477e-05
4.61088e-05
4.65242e-05
5.20352e-05
5.12528e-05
4.62275e-05
4.79847e-05
4.67812e-05
5.00454e-05
5.16447e-05
5.01957e-05
4.78772e-05
4.65676e-05
4.75928e-05
4.71535e-05
4.9496e-05
5.0323e-05
4.79833e-05
4.7574e-05
4.73873e-05
4.415e-05
4.62149e-05
4.678e-05
4.4296e-05
5.07142e-05
4.62318e-05
4.64259e-05
4.38672e-05
4.40788e-05
4.64745e-05
4.95173e-05
4.60829e-05
4.65226e-05
4.71674e-05
4.38408e-05
4.65105e-05
5.04432e-05
4.99848e-05
4.60782e-05
4.33652e-05
4.34891e-05
4.25651e-05
4.41042e-05
4.66481e-05
4.46753e-05
4.58898e-05
4.55649e-05
4.37899e-05
4.2592e-05
4.41182e-05
4.84249e-05
4.59967e-05
4.90614e-05
4.35952e-05
4.60082e-05
4.45819e-05
4.53694e-05
4.98172e-05
4.86827e-05
4.33088e-05
4.27423e-05
4.48606e-05
4.68743e-05
4.5676e-05
4.56756e-05
4.76509e-05
4.6276e-05
5.11782e-05
4.51585e-05
4.72687e-05
4.78871e-05
5.14896e-05
4.99691e-05
5.22607e-05
4.60697e-05
4.53545e-05
4.85356e-05
4.57693e-05
4.86701e-05
4.87536e-05
4.65347e-05
4.79919e-05
4.89212e-05
4.91082e-05
4.79948e-05
4.57293e-05
4.83721e-05
5.17311e-05
5.23098e-05
4.83496e-05
4.90312e-05
4.87731e-05
5.1756e-05
5.22935e-05
5.0375e-05
4.8668e-05
4.64027e-05
4.8056e-05
4.767e-05
4.90688e-05
5.04474e-05
4.89949e-05
4.90595e-05
4.80483e-05
4.75511e-05
4.8332e-05
4.75131e-05
4.72508e-05
5.20984e-05
4.97544e-05
4.87047e-05
4.74897e-05
4.72468e-05
4.97447e-05
5.01629e-05
4.93756e-05
4.75693e-05
4.78759e-05
4.68998e-05
4.81419e-05
5.06541e-05
5.11493e-05
4.74805e-05
4.71349e-05
4.67542e-05
4.68169e-05
4.69383e-05
4.81238e-05
4.6489e-05
4.9628e-05
4.96733e-05
4.68673e-05
4.68111e-05
4.63407e-05
4.90544e-05
4.94637e-05
5.10605e-05
4.68974e-05
4.81764e-05
4.78888e-05
4.82507e-05
5.12139e-05
5.11285e-05
4.67566e-05
4.69013e-05
4.79571e-05
4.84933e-05
4.64982e-05
4.82816e-05
4.76247e-05
4.99643e-05
5.16916e-05
4.63457e-05
4.8474e-05
4.75963e-05
5.06645e-05
5.14216e-05
5.21945e-05
4.84282e-05
4.8265e-05
4.93988e-05
4.85119e-05
5.11308e-05
5.11419e-05
4.85583e-05
4.89163e-05
4.94983e-05
4.93808e-05
4.81216e-05
4.84506e-05
4.9019e-05
5.192e-05
5.20389e-05
4.81847e-05
4.9358e-05
4.91763e-05
5.17643e-05
5.22585e-05
5.21065e-05
4.95335e-05
4.87967e-05
4.96172e-05
4.95074e-05
5.13231e-05
5.20937e-05
4.95926e-05
4.93817e-05
4.96087e-05
4.91698e-05
4.91409e-05
4.94876e-05
4.93491e-05
5.20206e-05
5.1504e-05
4.93059e-05
4.91614e-05
4.93917e-05
5.1877e-05
5.20971e-05
5.18288e-05
4.95963e-05
4.96389e-05
4.94381e-05
4.97938e-05
5.22036e-05
5.2329e-05
4.95435e-05
4.90871e-05
4.9369e-05
4.9026e-05
4.9475e-05
4.98779e-05
5.0018e-05
5.14982e-05
5.15092e-05
4.94074e-05
4.90455e-05
4.98225e-05
5.25128e-05
5.18386e-05
5.19825e-05
4.94161e-05
4.97943e-05
4.94838e-05
4.97653e-05
5.23413e-05
5.21862e-05
4.93546e-05
4.90873e-05
4.95155e-05
4.99523e-05
5.01759e-05
4.98849e-05
5.03985e-05
5.16578e-05
5.25262e-05
5.00458e-05
5.00793e-05
5.04211e-05
5.29192e-05
5.20922e-05
5.26184e-05
4.96364e-05
4.97678e-05
5.02143e-05
5.00845e-05
5.21989e-05
5.2454e-05
4.97008e-05
5.01811e-05
5.02589e-05
5.05293e-05
5.04004e-05
5.00816e-05
5.02557e-05
5.26593e-05
5.28538e-05
5.04357e-05
5.05467e-05
5.03234e-05
5.24978e-05
5.27603e-05
5.31251e-05
5.04113e-05
5.02542e-05
5.085e-05
5.06575e-05
5.25648e-05
5.29178e-05
5.04392e-05
5.05567e-05
5.08254e-05
5.06036e-05
5.018e-05
5.05175e-05
5.0105e-05
5.28783e-05
5.28652e-05
5.02427e-05
5.05428e-05
5.01419e-05
5.23387e-05
5.31763e-05
5.3215e-05
5.09236e-05
5.07658e-05
5.09929e-05
5.1058e-05
5.30087e-05
5.33202e-05
5.08887e-05
5.06742e-05
5.09739e-05
5.10095e-05
5.01512e-05
5.10714e-05
5.09378e-05
5.29202e-05
5.32741e-05
5.01667e-05
5.09787e-05
5.08956e-05
5.32451e-05
5.32426e-05
5.34161e-05
5.10211e-05
5.11492e-05
5.12586e-05
5.13889e-05
5.33974e-05
5.3563e-05
5.10165e-05
5.11087e-05
5.12506e-05
5.13039e-05
5.11523e-05
5.14428e-05
5.14889e-05
5.33529e-05
5.34672e-05
5.11249e-05
5.13563e-05
5.14759e-05
5.3621e-05
5.34897e-05
5.36447e-05
5.13517e-05
5.14419e-05
5.15453e-05
5.14782e-05
5.35986e-05
5.35495e-05
5.13341e-05
5.13269e-05
5.1522e-05
5.13802e-05
5.15241e-05
5.1488e-05
5.15238e-05
5.34868e-05
5.34729e-05
5.15096e-05
5.13818e-05
5.15076e-05
5.35887e-05
5.36868e-05
5.15805e-05
5.14708e-05
5.35568e-05
5.15709e-05
5.14397e-05
5.1519e-05
5.35195e-05
5.15062e-05
6.69193e-05
7.21736e-05
6.62484e-05
7.21107e-05
7.01633e-05
6.9967e-05
6.68846e-05
7.21579e-05
6.63055e-05
7.20836e-05
2.30166e-05
2.33228e-05
2.54348e-05
2.53379e-05
2.55834e-05
2.53947e-05
5.65027e-05
6.29188e-05
3.09883e-05
4.09089e-05
5.54285e-05
6.37652e-05
3.22876e-05
6.98301e-05
5.66733e-05
3.15021e-05
4.1453e-05
5.58445e-05
3.26879e-05
6.40852e-05
7.03748e-05
7.05116e-05
4.70709e-05
7.09089e-05
7.08401e-05
6.57452e-05
7.15134e-05
6.67731e-05
7.10716e-05
6.93058e-05
6.90449e-05
6.57492e-05
7.1502e-05
6.66003e-05
7.11052e-05
2.56565e-05
2.57417e-05
2.55868e-05
2.59405e-05
2.55206e-05
2.48175e-05
2.48228e-05
5.54064e-05
6.3059e-05
3.40991e-05
4.21022e-05
5.67336e-05
6.16293e-05
3.4154e-05
6.91587e-05
6.89995e-05
5.4778e-05
3.40162e-05
6.21656e-05
4.1739e-05
5.61389e-05
3.39863e-05
6.06687e-05
6.85336e-05
6.83708e-05
4.5829e-05
6.6574e-05
6.66038e-05
6.3671e-05
7.06117e-05
6.41984e-05
7.05565e-05
6.88715e-05
6.89103e-05
6.37348e-05
7.06713e-05
6.43268e-05
7.06015e-05
2.46061e-05
2.34255e-05
2.33373e-05
2.06647e-05
2.04468e-05
2.07216e-05
2.03e-05
5.25008e-05
5.96446e-05
3.23399e-05
3.70701e-05
5.32357e-05
5.89039e-05
3.08278e-05
6.90484e-05
6.92211e-05
5.23404e-05
3.13428e-05
5.91068e-05
3.68105e-05
5.29309e-05
3.03219e-05
5.86988e-05
6.45319e-05
6.46747e-05
3.99137e-05
6.42893e-05
6.43432e-05
6.28681e-05
7.08201e-05
6.29519e-05
7.12713e-05
6.91897e-05
6.9647e-05
6.3336e-05
7.08151e-05
6.31824e-05
7.12452e-05
1.96546e-05
2.02604e-05
1.98109e-05
1.83264e-05
1.83898e-05
2.00375e-05
1.96733e-05
5.17056e-05
5.73705e-05
2.83877e-05
3.3932e-05
5.17792e-05
5.69355e-05
2.78885e-05
6.95551e-05
6.9819e-05
5.28186e-05
2.8724e-05
5.88062e-05
3.5628e-05
5.21956e-05
2.85861e-05
5.96037e-05
6.50151e-05
6.52245e-05
4.00096e-05
6.6049e-05
6.6405e-05
6.62218e-05
7.2292e-05
6.45737e-05
7.27491e-05
7.04487e-05
7.07701e-05
6.60569e-05
7.21943e-05
6.48182e-05
7.26134e-05
1.84403e-05
2.04594e-05
2.02917e-05
2.37477e-05
2.4588e-05
2.47134e-05
2.51566e-05
5.5526e-05
5.96745e-05
2.77365e-05
3.71168e-05
5.34468e-05
6.22389e-05
2.87118e-05
7.01033e-05
7.01583e-05
5.58385e-05
2.96438e-05
6.15174e-05
3.99448e-05
5.45963e-05
3.14389e-05
6.25958e-05
6.84494e-05
6.85466e-05
4.57475e-05
6.97342e-05
6.94165e-05
6.91741e-05
7.29145e-05
6.86778e-05
7.24806e-05
7.0723e-05
7.01931e-05
6.83e-05
7.27888e-05
6.78362e-05
7.24438e-05
2.73555e-05
2.58187e-05
2.63366e-05
3.06081e-05
3.10836e-05
2.73271e-05
2.82029e-05
5.89861e-05
6.57013e-05
3.65657e-05
4.64978e-05
5.82822e-05
6.63297e-05
3.79918e-05
6.98354e-05
6.95293e-05
5.76048e-05
3.54456e-05
6.35703e-05
4.32185e-05
5.72769e-05
3.61521e-05
6.33477e-05
6.98732e-05
6.94604e-05
4.82377e-05
6.86661e-05
6.88585e-05
6.54482e-05
7.14894e-05
6.7004e-05
7.12397e-05
6.93439e-05
6.92672e-05
6.55486e-05
7.15085e-05
6.68616e-05
7.12296e-05
3.11988e-05
2.73461e-05
2.83308e-05
2.9286e-05
2.91057e-05
2.64621e-05
2.77601e-05
5.62565e-05
6.34167e-05
3.9144e-05
4.58986e-05
5.77543e-05
6.12876e-05
3.89578e-05
6.92724e-05
6.93992e-05
5.58043e-05
3.66934e-05
6.13435e-05
4.2213e-05
5.67925e-05
3.65657e-05
6.00527e-05
6.69555e-05
6.7572e-05
4.6331e-05
6.65036e-05
6.6994e-05
6.46084e-05
7.14477e-05
6.42158e-05
7.17987e-05
6.96344e-05
6.99612e-05
6.46058e-05
7.14086e-05
6.42738e-05
7.17779e-05
2.74256e-05
2.60199e-05
2.71043e-05
2.47105e-05
2.46273e-05
2.57e-05
2.59142e-05
5.42455e-05
5.9511e-05
3.5371e-05
3.99615e-05
5.44861e-05
5.96743e-05
3.44942e-05
7.00082e-05
7.04173e-05
5.42687e-05
3.49494e-05
5.91251e-05
4.03191e-05
5.44149e-05
3.45977e-05
6.01163e-05
6.62777e-05
6.63887e-05
4.46129e-05
6.66173e-05
6.65772e-05
6.67404e-05
7.22983e-05
6.59995e-05
7.24953e-05
7.02558e-05
7.03014e-05
6.70325e-05
7.22899e-05
6.62065e-05
7.25083e-05
2.44645e-05
2.60326e-05
2.58855e-05
2.55516e-05
2.55417e-05
3.02418e-05
2.78645e-05
5.6778e-05
6.15556e-05
3.37534e-05
4.07621e-05
5.54821e-05
6.25871e-05
3.39134e-05
7.07595e-05
7.07691e-05
5.76613e-05
3.47325e-05
6.30401e-05
4.4459e-05
5.60725e-05
3.57594e-05
6.4609e-05
6.83955e-05
6.83923e-05
4.71454e-05
6.96247e-05
6.95843e-05
6.75878e-05
7.26391e-05
6.73728e-05
7.26923e-05
7.02573e-05
7.0268e-05
6.80671e-05
7.2698e-05
6.77655e-05
7.27477e-05
2.69594e-05
3.12358e-05
2.92115e-05
3.19171e-05
3.04167e-05
3.24372e-05
3.09224e-05
5.86029e-05
6.31783e-05
3.78268e-05
4.52092e-05
5.83772e-05
6.30927e-05
3.89089e-05
7.04458e-05
7.01547e-05
5.97988e-05
4.00348e-05
6.59334e-05
4.79821e-05
5.95485e-05
4.0702e-05
6.56705e-05
7.09705e-05
7.09985e-05
5.08531e-05
7.02665e-05
7.01271e-05
6.79415e-05
7.2612e-05
6.79439e-05
7.22982e-05
7.0364e-05
7.0399e-05
6.74515e-05
7.25368e-05
6.81229e-05
7.22032e-05
3.12074e-05
3.24113e-05
3.09339e-05
3.28698e-05
3.23263e-05
3.01571e-05
3.00371e-05
5.76358e-05
6.2988e-05
4.02039e-05
4.65821e-05
5.79912e-05
6.3231e-05
4.02485e-05
6.96773e-05
6.95747e-05
5.71154e-05
4.09707e-05
6.32492e-05
4.61308e-05
5.82319e-05
4.0521e-05
6.18845e-05
6.76666e-05
6.72556e-05
4.7786e-05
6.65759e-05
6.62856e-05
6.63255e-05
7.17928e-05
6.69139e-05
7.17424e-05
7.03433e-05
7.02816e-05
6.5483e-05
7.18112e-05
6.60738e-05
7.18149e-05
3.24024e-05
2.92096e-05
2.96635e-05
2.96308e-05
3.22312e-05
2.7722e-05
2.94176e-05
5.77977e-05
6.38238e-05
4.00994e-05
4.68083e-05
5.75401e-05
6.40196e-05
4.00222e-05
6.97702e-05
7.01201e-05
5.60003e-05
3.79042e-05
6.04779e-05
4.2695e-05
5.6013e-05
3.74566e-05
6.05244e-05
6.66876e-05
6.68155e-05
4.65815e-05
6.76595e-05
6.78611e-05
6.65513e-05
7.22077e-05
6.59979e-05
7.26028e-05
7.02218e-05
7.0209e-05
6.68576e-05
7.2336e-05
6.58676e-05
7.26966e-05
3.17707e-05
2.76984e-05
2.95906e-05
2.89282e-05
3.05575e-05
3.00223e-05
3.20937e-05
5.81423e-05
6.356e-05
3.99099e-05
4.60125e-05
5.80436e-05
6.31375e-05
3.99146e-05
7.05911e-05
7.075e-05
5.83019e-05
3.73553e-05
6.23448e-05
4.42671e-05
5.72833e-05
3.79308e-05
6.35406e-05
6.91305e-05
6.94714e-05
5.04099e-05
6.9816e-05
7.02097e-05
6.79344e-05
7.29032e-05
6.75227e-05
7.2891e-05
7.01836e-05
7.02149e-05
6.86158e-05
7.29607e-05
6.82473e-05
7.29139e-05
3.04142e-05
3.16073e-05
3.27781e-05
3.31067e-05
3.03976e-05
3.41359e-05
3.37819e-05
5.85177e-05
6.25552e-05
4.00846e-05
4.5611e-05
5.83331e-05
6.24751e-05
4.01727e-05
7.06926e-05
7.05091e-05
5.98618e-05
4.18622e-05
6.48911e-05
4.87514e-05
5.95354e-05
4.25376e-05
6.50748e-05
7.04634e-05
7.0692e-05
5.19067e-05
7.04547e-05
7.03732e-05
6.7638e-05
7.25977e-05
6.79538e-05
7.24399e-05
7.03424e-05
7.04493e-05
6.75611e-05
7.2585e-05
6.8075e-05
7.24486e-05
3.05358e-05
3.43151e-05
3.38246e-05
3.39791e-05
3.2459e-05
3.40087e-05
3.32515e-05
5.87027e-05
6.28806e-05
4.10312e-05
4.66827e-05
5.87364e-05
6.31611e-05
4.13835e-05
7.02441e-05
7.02299e-05
5.89068e-05
4.30719e-05
6.41309e-05
4.86437e-05
5.94814e-05
4.30035e-05
6.34153e-05
6.95596e-05
6.92072e-05
5.07681e-05
6.89258e-05
6.85961e-05
6.71082e-05
7.23462e-05
6.7187e-05
7.24266e-05
7.05702e-05
7.06219e-05
6.68589e-05
7.24004e-05
6.69232e-05
7.25007e-05
3.30395e-05
3.35713e-05
3.28349e-05
3.28504e-05
3.38923e-05
3.27792e-05
3.20312e-05
5.84205e-05
6.35525e-05
4.1961e-05
4.79387e-05
5.8458e-05
6.38264e-05
4.20092e-05
7.03843e-05
7.05464e-05
5.79512e-05
4.17477e-05
6.2699e-05
4.68876e-05
5.81121e-05
4.14409e-05
6.27193e-05
6.80864e-05
6.80479e-05
4.91687e-05
6.79148e-05
6.80472e-05
6.75538e-05
7.26806e-05
6.7312e-05
7.28337e-05
7.06154e-05
7.05896e-05
6.7617e-05
7.27253e-05
6.72444e-05
7.28547e-05
3.39656e-05
3.27455e-05
3.19488e-05
3.28979e-05
3.40584e-05
3.32916e-05
3.22457e-05
5.89342e-05
6.40517e-05
4.2168e-05
4.82274e-05
5.86706e-05
6.40277e-05
4.22849e-05
7.06969e-05
7.07351e-05
5.87933e-05
4.11974e-05
6.35068e-05
4.7261e-05
5.82778e-05
4.12727e-05
6.40295e-05
6.83383e-05
6.85689e-05
4.95891e-05
6.8787e-05
6.89675e-05
6.80154e-05
7.29658e-05
6.78535e-05
7.29956e-05
7.0578e-05
7.06266e-05
6.82021e-05
7.29655e-05
6.80596e-05
7.29889e-05
3.40777e-05
3.38706e-05
3.29313e-05
3.51103e-05
3.42666e-05
3.51025e-05
3.47782e-05
5.92579e-05
6.37777e-05
4.26759e-05
4.83084e-05
5.91568e-05
6.37219e-05
4.28149e-05
7.06978e-05
7.06594e-05
5.97304e-05
4.29527e-05
6.45133e-05
4.91645e-05
5.9515e-05
4.3436e-05
6.45472e-05
6.933e-05
6.93754e-05
5.14274e-05
6.94602e-05
6.94355e-05
6.81329e-05
7.29694e-05
6.81327e-05
7.29376e-05
7.072e-05
7.07687e-05
6.80908e-05
7.29639e-05
6.81857e-05
7.2939e-05
3.4511e-05
3.53011e-05
3.51412e-05
3.58804e-05
3.54546e-05
3.54875e-05
3.56972e-05
5.96267e-05
6.3956e-05
4.34554e-05
4.90087e-05
5.94726e-05
6.41723e-05
4.3717e-05
7.06151e-05
7.06243e-05
5.96169e-05
4.40715e-05
6.42012e-05
4.93384e-05
5.97222e-05
4.41066e-05
6.39873e-05
6.94076e-05
6.93463e-05
5.18502e-05
6.93202e-05
6.92763e-05
6.80282e-05
7.2909e-05
6.80601e-05
7.29211e-05
7.07944e-05
7.08007e-05
6.78555e-05
7.29166e-05
6.78955e-05
7.2929e-05
3.57229e-05
3.54865e-05
3.58109e-05
3.58799e-05
3.62302e-05
3.5458e-05
3.62835e-05
5.98951e-05
6.43869e-05
4.4381e-05
4.97625e-05
5.97966e-05
6.44288e-05
4.4534e-05
7.06877e-05
7.07603e-05
5.94569e-05
4.40591e-05
6.37561e-05
4.90389e-05
5.94413e-05
4.40336e-05
6.37732e-05
6.94442e-05
6.94189e-05
5.20846e-05
6.96678e-05
6.96612e-05
6.79985e-05
7.29699e-05
6.79929e-05
7.3016e-05
7.07983e-05
7.08164e-05
6.80647e-05
7.29775e-05
6.79416e-05
7.30202e-05
3.63082e-05
3.54699e-05
3.64801e-05
3.58694e-05
3.63777e-05
3.61773e-05
3.69481e-05
6.00158e-05
6.43433e-05
4.48033e-05
4.98929e-05
5.99812e-05
6.42636e-05
4.48523e-05
7.0848e-05
7.08915e-05
6.0031e-05
4.41274e-05
6.41059e-05
4.94555e-05
5.97839e-05
4.44016e-05
6.43299e-05
7.00033e-05
7.00364e-05
5.28322e-05
7.00799e-05
7.01199e-05
6.81467e-05
7.30897e-05
6.80627e-05
7.31503e-05
7.08679e-05
7.09157e-05
6.82143e-05
7.30868e-05
6.81701e-05
7.31464e-05
3.63959e-05
3.65458e-05
3.70294e-05
3.67501e-05
3.67133e-05
3.72996e-05
3.70939e-05
6.00136e-05
6.41992e-05
4.49932e-05
4.99037e-05
6.00236e-05
6.42424e-05
4.50484e-05
7.09221e-05
7.09409e-05
6.01951e-05
4.52546e-05
6.45025e-05
5.04179e-05
6.01931e-05
4.5402e-05
6.4531e-05
6.98276e-05
6.98439e-05
5.27509e-05
6.96022e-05
6.95975e-05
6.8383e-05
7.32224e-05
6.82913e-05
7.32535e-05
7.09663e-05
7.09991e-05
6.83533e-05
7.32234e-05
6.82886e-05
7.32573e-05
3.68858e-05
3.7413e-05
3.70893e-05
3.77111e-05
3.73983e-05
3.75274e-05
3.70488e-05
5.99632e-05
6.43498e-05
4.51784e-05
5.02841e-05
5.99537e-05
6.44422e-05
4.52236e-05
7.09627e-05
7.099e-05
6.00316e-05
4.55382e-05
6.44941e-05
5.05518e-05
6.00873e-05
4.55339e-05
6.44659e-05
6.93211e-05
6.92977e-05
5.23348e-05
6.93143e-05
6.92885e-05
6.84626e-05
7.32789e-05
6.84456e-05
7.32971e-05
7.10388e-05
7.10718e-05
6.84616e-05
7.32815e-05
6.84254e-05
7.32985e-05
3.75663e-05
3.75855e-05
3.70554e-05
3.81174e-05
3.80729e-05
3.79832e-05
3.76657e-05
6.03982e-05
6.46056e-05
4.55709e-05
5.07966e-05
6.01853e-05
6.47221e-05
4.57624e-05
7.10363e-05
7.10649e-05
6.03511e-05
4.55235e-05
6.45762e-05
5.06267e-05
6.01256e-05
4.55735e-05
6.47097e-05
6.96168e-05
6.96096e-05
5.27291e-05
6.98107e-05
6.98156e-05
6.85462e-05
7.33315e-05
6.84925e-05
7.33653e-05
7.11034e-05
7.11216e-05
6.854e-05
7.33321e-05
6.85032e-05
7.33635e-05
3.82371e-05
3.81474e-05
3.80097e-05
3.84926e-05
3.86692e-05
3.85661e-05
3.87265e-05
6.06621e-05
6.48224e-05
4.63248e-05
5.12956e-05
6.0598e-05
6.48541e-05
4.64725e-05
7.10873e-05
7.11033e-05
6.06395e-05
4.62245e-05
6.47983e-05
5.12355e-05
6.05774e-05
4.64038e-05
6.48023e-05
6.99765e-05
6.99867e-05
5.35223e-05
6.99961e-05
7.00052e-05
6.85921e-05
7.33997e-05
6.85913e-05
7.34198e-05
7.11333e-05
7.11455e-05
6.85536e-05
7.33974e-05
6.85541e-05
7.34194e-05
3.87811e-05
3.86591e-05
3.88622e-05
3.8965e-05
3.89692e-05
3.88446e-05
3.90285e-05
6.06808e-05
6.48495e-05
4.67579e-05
5.14956e-05
6.0685e-05
6.48097e-05
4.67963e-05
7.11233e-05
7.11504e-05
6.06305e-05
4.66875e-05
6.47488e-05
5.13747e-05
6.06466e-05
4.67085e-05
6.47116e-05
6.99447e-05
6.99505e-05
5.36273e-05
6.99043e-05
6.99135e-05
7.34511e-05
6.85668e-05
7.1176e-05
6.861e-05
7.34565e-05
6.85623e-05
3.89882e-05
3.89207e-05
3.90503e-05
6.47106e-05
4.6806e-05
6.06219e-05
7.1199e-05
7.12359e-05
6.06644e-05
4.67468e-05
6.47294e-05
5.14911e-05
6.0603e-05
4.68042e-05
6.48393e-05
6.99143e-05
6.99414e-05
5.36197e-05
6.9996e-05
7.00187e-05
7.01499e-05
7.00607e-05
7.01469e-05
7.00475e-05
6.93759e-05
6.94093e-05
4.64674e-05
7.042e-05
7.03771e-05
6.96346e-05
6.99618e-05
6.96273e-05
6.99458e-05
4.70178e-05
7.06084e-05
7.04531e-05
7.0615e-05
7.05412e-05
6.69618e-05
7.22061e-05
6.6281e-05
7.20636e-05
5.62298e-05
6.2416e-05
3.09645e-05
4.07284e-05
5.52094e-05
6.34585e-05
3.21554e-05
5.62715e-05
6.28421e-05
3.10408e-05
4.08461e-05
5.52486e-05
6.37555e-05
3.22177e-05
6.70296e-05
7.16767e-05
7.20191e-05
6.70318e-05
6.707e-05
7.15245e-05
7.19394e-05
6.70539e-05
5.64677e-05
4.15356e-05
6.39695e-05
3.36937e-05
6.37062e-05
3.30548e-05
5.67779e-05
5.6504e-05
4.15449e-05
6.36935e-05
3.36676e-05
6.38737e-05
3.30784e-05
5.6787e-05
7.00103e-05
7.00651e-05
4.6741e-05
7.06295e-05
7.05789e-05
7.01515e-05
6.99437e-05
6.94512e-05
6.98205e-05
4.71943e-05
6.96586e-05
6.95019e-05
7.06294e-05
7.05574e-05
6.94432e-05
6.97968e-05
5.6329e-05
6.24565e-05
3.09242e-05
4.07744e-05
5.53775e-05
6.34392e-05
3.22354e-05
6.69758e-05
7.19992e-05
5.64305e-05
4.13658e-05
3.2478e-05
6.41055e-05
6.69595e-05
7.16561e-05
7.19897e-05
6.68815e-05
5.65125e-05
4.15862e-05
6.38509e-05
3.38215e-05
6.36549e-05
3.31808e-05
5.66814e-05
6.7036e-05
7.13891e-05
7.18491e-05
6.68613e-05
5.65955e-05
4.19292e-05
3.38774e-05
6.29975e-05
3.33508e-05
6.4086e-05
5.67006e-05
6.71114e-05
7.22062e-05
6.64144e-05
7.20381e-05
5.65432e-05
3.10983e-05
6.31265e-05
4.10763e-05
5.54556e-05
3.23612e-05
6.40008e-05
6.71457e-05
7.22155e-05
6.64436e-05
7.2041e-05
5.67102e-05
4.16222e-05
6.35533e-05
3.38038e-05
6.38544e-05
3.32058e-05
5.68587e-05
6.71922e-05
7.14971e-05
7.191e-05
6.69985e-05
5.67502e-05
4.17368e-05
3.38257e-05
6.34841e-05
3.32581e-05
6.40691e-05
5.68848e-05
6.7223e-05
7.14229e-05
7.19031e-05
6.6986e-05
4.75453e-05
7.10036e-05
7.08644e-05
6.97955e-05
6.92725e-05
6.96547e-05
4.78309e-05
6.86448e-05
6.84233e-05
7.05636e-05
7.03036e-05
6.92887e-05
6.96286e-05
5.66907e-05
3.14814e-05
6.33636e-05
4.11994e-05
5.58492e-05
3.262e-05
6.40322e-05
6.71443e-05
6.67315e-05
7.19244e-05
6.71663e-05
7.22012e-05
6.6759e-05
7.19305e-05
5.67634e-05
4.19813e-05
3.38941e-05
6.27368e-05
3.34693e-05
6.40298e-05
5.65806e-05
5.67843e-05
4.18098e-05
3.38438e-05
6.31341e-05
3.33971e-05
6.40451e-05
5.66102e-05
6.71429e-05
7.13338e-05
7.17671e-05
6.64955e-05
6.71635e-05
7.13147e-05
7.17775e-05
6.64966e-05
7.0142e-05
6.98891e-05
7.01196e-05
6.98464e-05
4.7474e-05
6.92411e-05
6.90204e-05
7.08552e-05
7.06928e-05
6.93026e-05
6.97273e-05
6.93115e-05
6.96883e-05
6.94715e-05
6.91145e-05
6.94737e-05
6.91512e-05
7.02013e-05
7.00212e-05
4.77963e-05
6.85216e-05
6.85125e-05
6.88441e-05
6.90036e-05
6.88891e-05
6.90465e-05
4.74325e-05
6.62108e-05
6.63791e-05
6.78917e-05
6.79396e-05
6.57133e-05
7.13553e-05
6.6773e-05
7.09661e-05
5.58322e-05
6.3879e-05
3.40894e-05
4.24521e-05
5.67568e-05
6.24642e-05
3.42297e-05
5.57703e-05
6.32236e-05
3.40047e-05
4.20745e-05
5.67564e-05
6.17596e-05
3.41032e-05
6.5353e-05
7.06678e-05
7.09356e-05
6.44644e-05
6.53081e-05
7.06567e-05
7.08546e-05
6.4391e-05
5.53119e-05
4.23019e-05
6.02031e-05
3.39991e-05
6.18539e-05
3.42156e-05
5.39036e-05
5.52484e-05
4.17704e-05
5.99174e-05
3.37973e-05
6.12257e-05
3.40707e-05
5.38401e-05
6.91325e-05
6.89802e-05
4.66702e-05
6.76415e-05
6.75637e-05
6.93061e-05
6.9078e-05
6.88837e-05
6.89686e-05
4.61692e-05
6.6061e-05
6.62267e-05
6.71738e-05
6.71496e-05
6.89459e-05
6.90125e-05
5.5609e-05
6.37295e-05
3.41853e-05
4.24624e-05
5.66147e-05
6.24159e-05
3.42916e-05
6.55851e-05
7.12348e-05
6.65267e-05
7.09122e-05
5.54449e-05
3.40952e-05
6.24297e-05
4.18118e-05
5.65716e-05
3.41104e-05
6.08419e-05
6.54092e-05
7.07296e-05
7.09811e-05
6.45951e-05
5.51438e-05
4.23009e-05
6.03358e-05
3.39808e-05
6.1861e-05
3.42599e-05
5.38954e-05
6.52259e-05
7.07454e-05
7.0836e-05
6.44015e-05
5.49654e-05
4.0696e-05
3.34235e-05
5.92822e-05
3.39889e-05
6.03432e-05
5.3715e-05
6.55538e-05
7.13363e-05
6.66021e-05
7.09872e-05
5.53293e-05
3.40693e-05
6.28507e-05
4.18805e-05
5.67389e-05
3.40879e-05
6.10168e-05
6.54525e-05
7.12464e-05
6.65625e-05
7.08604e-05
5.48824e-05
4.17552e-05
5.99802e-05
3.36678e-05
6.1132e-05
3.40831e-05
5.36093e-05
6.51848e-05
7.07319e-05
7.0892e-05
6.43762e-05
5.47856e-05
4.10224e-05
3.33553e-05
5.90524e-05
3.39605e-05
6.04175e-05
5.34843e-05
6.50738e-05
7.06464e-05
7.07676e-05
6.42643e-05
6.7979e-05
6.77978e-05
4.52983e-05
6.63123e-05
6.63442e-05
6.91923e-05
6.90757e-05
6.90229e-05
6.89771e-05
4.45604e-05
6.51222e-05
6.53921e-05
6.58874e-05
6.60022e-05
6.91093e-05
6.90621e-05
5.47658e-05
3.39853e-05
6.25264e-05
4.18121e-05
5.61659e-05
3.3963e-05
6.08121e-05
6.5141e-05
7.11987e-05
6.61148e-05
7.09367e-05
6.51239e-05
7.11604e-05
6.61112e-05
7.08415e-05
5.43052e-05
4.04579e-05
3.27164e-05
5.93291e-05
3.37193e-05
6.02309e-05
5.3232e-05
5.42826e-05
4.07489e-05
3.27304e-05
5.90116e-05
3.37151e-05
6.0265e-05
5.31799e-05
6.48196e-05
7.08143e-05
7.08778e-05
6.41065e-05
6.47971e-05
7.06832e-05
7.07686e-05
6.40641e-05
6.91625e-05
6.89311e-05
6.91897e-05
6.89975e-05
4.50097e-05
6.47763e-05
6.49345e-05
6.60019e-05
6.60883e-05
6.88902e-05
6.88849e-05
6.89636e-05
6.89582e-05
6.88173e-05
6.88543e-05
6.88556e-05
6.88626e-05
6.5721e-05
6.59013e-05
4.08679e-05
6.45121e-05
6.4683e-05
6.91369e-05
6.8885e-05
6.90955e-05
6.88837e-05
4.03274e-05
6.34326e-05
6.34788e-05
6.41667e-05
6.43136e-05
6.35978e-05
7.06134e-05
6.41217e-05
7.05701e-05
5.25277e-05
5.97019e-05
3.30884e-05
3.74978e-05
5.34526e-05
5.857e-05
3.13573e-05
5.24781e-05
5.95337e-05
3.27549e-05
3.71075e-05
5.3392e-05
5.86856e-05
3.11244e-05
6.34989e-05
7.07317e-05
7.05625e-05
6.30732e-05
6.34301e-05
7.07155e-05
7.05722e-05
6.30255e-05
5.22713e-05
3.61463e-05
5.74697e-05
2.9047e-05
5.82431e-05
2.99826e-05
5.1699e-05
5.22251e-05
3.60274e-05
5.74723e-05
2.89975e-05
5.83983e-05
2.98601e-05
5.16587e-05
6.57501e-05
6.59595e-05
4.07598e-05
6.49242e-05
6.52425e-05
6.89329e-05
6.89527e-05
6.91116e-05
6.89274e-05
4.0434e-05
6.34026e-05
6.36323e-05
6.45735e-05
6.49114e-05
6.90813e-05
6.89603e-05
5.26316e-05
5.98529e-05
3.28936e-05
3.74841e-05
5.3492e-05
5.87174e-05
3.12267e-05
6.36513e-05
7.07433e-05
6.41517e-05
7.08433e-05
5.25344e-05
3.20458e-05
5.90263e-05
3.693e-05
5.33303e-05
3.08056e-05
5.85774e-05
6.35569e-05
7.07365e-05
7.06014e-05
6.32308e-05
5.23855e-05
3.61661e-05
5.75377e-05
2.91165e-05
5.83718e-05
2.99768e-05
5.19074e-05
6.35238e-05
7.11213e-05
7.08874e-05
6.33567e-05
5.23235e-05
3.62942e-05
2.92684e-05
5.85018e-05
2.99073e-05
5.85006e-05
5.19775e-05
6.36769e-05
7.06948e-05
6.41397e-05
7.06513e-05
5.2401e-05
3.18696e-05
5.87152e-05
3.65097e-05
5.3114e-05
3.05615e-05
5.81531e-05
6.36194e-05
7.06415e-05
6.40376e-05
7.07493e-05
5.22986e-05
3.60437e-05
5.77021e-05
2.8988e-05
5.86436e-05
2.97362e-05
5.1884e-05
6.35316e-05
7.0728e-05
7.06479e-05
6.32049e-05
5.22196e-05
3.57373e-05
2.89798e-05
5.81547e-05
2.96351e-05
5.80801e-05
5.19143e-05
6.35055e-05
7.10658e-05
7.08018e-05
6.33029e-05
6.49947e-05
6.5269e-05
4.06557e-05
6.48888e-05
6.50914e-05
6.91291e-05
6.92753e-05
6.94984e-05
6.9262e-05
4.05479e-05
6.52291e-05
6.53962e-05
6.49108e-05
6.50877e-05
6.95427e-05
6.93129e-05
5.22601e-05
3.1267e-05
5.86864e-05
3.63355e-05
5.28699e-05
3.01738e-05
5.81192e-05
6.35284e-05
7.08148e-05
6.39014e-05
7.09211e-05
6.34611e-05
7.06836e-05
6.38514e-05
7.08244e-05
5.22174e-05
3.62018e-05
2.90636e-05
5.86627e-05
2.95948e-05
5.86285e-05
5.21377e-05
5.21356e-05
3.55944e-05
2.88357e-05
5.82311e-05
2.93932e-05
5.8051e-05
5.20614e-05
6.3467e-05
7.12208e-05
7.0969e-05
6.35192e-05
6.33984e-05
7.12079e-05
7.08901e-05
6.34614e-05
6.89171e-05
6.91264e-05
6.89862e-05
6.91808e-05
3.96948e-05
6.4795e-05
6.49326e-05
6.432e-05
6.43518e-05
6.94697e-05
6.91803e-05
6.9536e-05
6.92362e-05
6.92207e-05
6.9653e-05
6.91728e-05
6.9594e-05
6.33257e-05
6.33397e-05
3.77601e-05
6.35773e-05
6.35326e-05
7.02424e-05
6.97847e-05
7.01688e-05
6.9723e-05
3.77637e-05
6.59485e-05
6.58664e-05
6.40037e-05
6.39824e-05
6.28576e-05
7.0805e-05
6.29142e-05
7.12915e-05
5.13011e-05
5.72815e-05
2.83606e-05
3.38133e-05
5.15316e-05
5.71388e-05
2.77756e-05
5.12682e-05
5.71803e-05
2.83469e-05
3.38498e-05
5.1493e-05
5.68376e-05
2.77726e-05
6.29677e-05
7.21025e-05
7.14597e-05
6.40927e-05
6.29774e-05
7.22012e-05
7.14981e-05
6.41226e-05
5.13142e-05
3.35917e-05
5.89245e-05
2.72502e-05
5.72779e-05
2.73762e-05
5.22245e-05
5.12837e-05
3.3598e-05
5.87748e-05
2.72619e-05
5.69127e-05
2.73791e-05
5.22257e-05
6.31081e-05
6.32537e-05
3.78e-05
6.29647e-05
6.29303e-05
6.91439e-05
6.95739e-05
7.03287e-05
6.98017e-05
3.77076e-05
6.57678e-05
6.56911e-05
6.33295e-05
6.31764e-05
7.02591e-05
6.97273e-05
5.18152e-05
5.73408e-05
2.84651e-05
3.38874e-05
5.18141e-05
5.7223e-05
2.7965e-05
6.36404e-05
7.12081e-05
6.33511e-05
7.15483e-05
5.20913e-05
2.87911e-05
5.86069e-05
3.5587e-05
5.19342e-05
2.84814e-05
5.93001e-05
6.35123e-05
7.2022e-05
7.14226e-05
6.44596e-05
5.19636e-05
3.37098e-05
5.90201e-05
2.76432e-05
5.74034e-05
2.76917e-05
5.29771e-05
6.38054e-05
7.19996e-05
7.16604e-05
6.47224e-05
5.22785e-05
3.56851e-05
2.83774e-05
6.08968e-05
2.83626e-05
5.9622e-05
5.32921e-05
6.31818e-05
7.07986e-05
6.31305e-05
7.12452e-05
5.19219e-05
2.84959e-05
5.82903e-05
3.50302e-05
5.18604e-05
2.81954e-05
5.90376e-05
6.34384e-05
7.11657e-05
6.32693e-05
7.15621e-05
5.17869e-05
3.37102e-05
5.88263e-05
2.7567e-05
5.69875e-05
2.76092e-05