/*--------------------------------*- C++ -*----------------------------------*\
| =========                 |                                                 |
| \\      /  F ield         | OpenFOAM: The Open Source CFD Toolbox           |
|  \\    /   O peration     | Version:  2312                                  |
|   \\  /    A nd           | Website:  www.openfoam.com                      |
|    \\/     M anipulation  |                                                 |
\*---------------------------------------------------------------------------*/
FoamFile
{
    version     2.0;
    format      ascii;
    arch        "LSB;label=32;scalar=64";
    class       volScalarField;
    location    "625";
    object      nut;
}
// * * * * * * * * * * * * * * * * * * * * * * * * * * * * * * * * * * * * * //

dimensions      [0 2 -1 0 0 0 0];

internalField   nonuniform List<scalar> 
42973
(
0.000126654
0.000151724
0.0001512
0.000166759
0.000178941
0.000180523
0.000176167
0.000187294
0.000161066
0.000149269
0.000140803
0.000116401
0.000125987
0.000126618
0.000118737
7.51585e-05
0.000105341
0.000135676
0.00013622
0.000135624
0.000175633
0.000166026
0.000162246
0.000199775
0.000205312
0.000171404
0.00016414
0.000170713
0.000154579
0.000145911
0.00014776
0.000118653
0.000137893
0.000151298
0.000139157
0.000132614
0.000165435
0.000188569
0.000170846
0.000186158
0.000178093
0.000196928
0.000172567
0.000198463
0.000183456
0.000160686
0.000147058
0.000151186
0.000180418
0.000148994
0.000158902
0.000140825
0.000170783
0.000185286
0.000175
0.000185179
0.000170817
0.000195423
0.000178235
0.000188544
0.000182987
0.000179932
0.000166319
0.00017031
0.000185543
0.00017387
0.000159927
0.000169895
0.000183991
0.000187428
0.000169469
0.000189028
0.000184886
0.000191451
0.000174072
0.000192901
0.000191503
0.000188223
0.000173373
0.000189785
0.000193027
0.000186375
0.000177504
0.000186563
0.000192025
0.000194348
0.000180069
0.000193984
0.000193028
0.000196183
0.0001771
0.000201074
0.000195318
0.000194781
0.000175201
0.000202217
0.000198786
0.000198429
0.000180632
0.000204402
0.000201011
0.000200213
0.000182458
0.000207421
0.000200421
0.000199644
0.000181756
0.00014537
0.000170653
0.00014901
0.000151708
0.000171974
0.000173127
0.000148836
0.000171522
0.0001491
0.000172618
0.000177122
0.000153687
0.000173978
0.000176584
0.000175428
0.000154948
0.000177829
0.000177456
0.000175412
0.000173251
0.000165346
0.000179491
0.000178285
0.000185088
0.000176317
0.000172807
0.000156875
0.00017994
0.00017999
0.000184699
0.000160408
0.00018069
0.000175251
0.000163168
0.000174308
0.000143453
0.000181309
0.000158639
0.000160913
0.000145302
0.000158745
0.000123851
0.000169269
0.000162058
0.000134604
0.000134804
0.000152396
0.000126906
0.000168552
0.00015065
0.000134252
0.00013203
0.000150892
0.000134703
0.000127678
0.000140445
0.000125939
0.000149117
0.000130681
0.000125929
0.000120436
0.000119944
0.000106652
0.00012533
0.000126251
0.000105174
0.000104303
0.000123
0.000103082
0.000124681
0.000127575
0.000106007
0.000123157
0.000123147
0.000105041
0.000120956
0.000124342
0.000131031
0.000121836
0.000126009
0.000125169
0.00013069
0.000110293
0.000158344
0.000104589
0.000103947
0.000155874
0.000159283
0.000106825
0.000162175
0.00010631
0.000131341
0.000156405
0.000159213
0.00013113
0.000160096
0.000160614
0.000135915
0.000159326
0.000136223
0.00016068
0.000161755
0.000159883
0.000165448
0.000195306
0.000171479
0.000176006
0.000202727
0.000207431
0.000170154
0.000200253
0.00017052
0.00016585
0.000198967
0.000175206
0.000167185
0.000203792
0.000176978
0.000162238
0.000164561
0.000166844
0.000172989
0.000174414
0.000165235
0.000193849
0.000147853
0.000205686
0.000209347
0.000169508
0.000166976
0.000196304
0.00014511
0.00020169
0.000174076
0.00016845
0.000152786
0.000177912
0.000166468
0.000164125
0.000161754
0.000136074
0.000175153
0.000152187
0.000162983
0.000149691
0.000142236
0.000129556
0.000156558
0.000153904
0.000135954
0.000137702
0.000139865
0.00013319
0.000156328
0.000145859
0.000136306
0.000140524
0.000158981
0.00013875
0.000144869
0.00013292
0.000141345
0.00015832
0.00014126
0.000144723
0.000137874
0.000131624
0.000156572
0.000133858
0.000137156
0.000158237
0.000158658
0.000136389
0.000157095
0.000134273
0.000150253
0.000159818
0.000180734
0.000143616
0.000159509
0.000169097
0.00014768
0.000176975
0.000143811
0.000181593
0.000170879
0.000166767
0.000160562
0.000177127
0.000167935
0.000163844
0.000187001
0.000175372
0.000159088
0.00016275
0.000169449
0.000187269
0.00018897
0.000197754
0.000177412
0.000175957
0.000185929
0.000179872
0.000185123
0.000179208
0.000199242
0.000188619
0.000176172
0.00017963
0.000178013
0.000192333
0.000178467
0.000195884
0.000185681
0.000163635
0.000170572
0.000194135
0.000196805
0.0001952
0.000170851
0.00018372
0.000182534
0.00016548
0.000181728
0.000152874
0.00018627
0.000168444
0.000165037
0.000148944
0.000173208
0.000145734
0.000187685
0.000186934
0.00016195
0.000183059
0.00017134
0.000170699
0.000184894
0.000163703
0.000158618
0.000149182
0.000162253
0.00018312
0.000162561
0.000149217
0.000138943
0.000160698
0.000148486
0.000158121
0.000154845
0.000143322
0.000157049
0.000157293
0.000178851
0.000159008
0.000169678
0.000169379
0.000160895
0.000154319
0.000148181
0.000160034
0.000174671
0.000169116
0.000172485
0.000183005
0.000141584
0.00017036
0.000164539
0.000177938
0.000183842
0.000173521
0.000162416
0.000181325
0.000169291
0.000168225
0.000190103
0.000168524
0.000160168
0.000158711
0.000171887
0.000183287
0.000193434
0.000195758
0.000185637
0.000168618
0.000189896
0.000174027
0.000182889
0.000187585
0.000195255
0.000193426
0.000178871
0.000181652
0.000170865
0.000192176
0.000172809
0.000188473
0.000182286
0.000160105
0.000168117
0.00019524
0.000196201
0.000188937
0.000184611
0.000190171
0.000181029
0.000182539
0.000181446
0.000166139
0.000193649
0.000183902
0.00018307
0.000167427
0.000168947
0.000161055
0.000184444
0.000183935
0.000175884
0.000185696
0.000169113
0.000172136
0.000184113
0.000180353
0.000174488
0.000174169
0.000179992
0.000185506
0.000173773
0.000164471
0.000161685
0.000179902
0.000174159
0.000172518
0.000160229
0.000160746
0.000169184
0.000174804
0.000185526
0.000179852
0.000184283
0.000172254
0.000171264
0.00017337
0.000173846
0.000180059
0.000184346
0.000172818
0.000184604
0.000178802
0.000162798
0.000173339
0.000171422
0.000184282
0.000178203
0.000167719
0.000171132
0.000176447
0.000183544
0.000183682
0.000190591
0.000183724
0.00017084
0.000169847
0.000184341
0.000187547
0.000191511
0.000191547
0.000182105
0.000183329
0.000188017
0.000174708
0.00017676
0.000182257
0.00019139
0.000189307
0.000174
0.000176692
0.000176381
0.000191623
0.000185518
0.000192267
0.000190605
0.000170567
0.00017535
0.0001923
0.000191615
0.000192415
0.000189604
0.000188582
0.000190298
0.000188787
0.000176478
0.000173045
0.000190077
0.000189432
0.000189495
0.000173525
0.000176123
0.000174221
0.000192068
0.000191614
0.000190227
0.000192699
0.000175852
0.000177056
0.000191796
0.000188411
0.000189595
0.000186187
0.000189333
0.000193071
0.000192886
0.000172543
0.00017133
0.000189134
0.000186116
0.000191358
0.000176688
0.000173914
0.000174022
0.000189722
0.000192487
0.000188884
0.000191302
0.000176904
0.000175612
0.000189121
0.000186132
0.000189061
0.000191858
0.000194092
0.00019229
0.000196102
0.000171778
0.000176971
0.000193003
0.000192837
0.000196168
0.00018017
0.000174279
0.000177027
0.000189571
0.000190943
0.000192943
0.000192306
0.000175317
0.000176321
0.000190056
0.000193533
0.000193408
0.000195956
0.000196173
0.000192585
0.000194855
0.000177599
0.000178932
0.000196374
0.000196322
0.000195418
0.000177605
0.000177632
0.000180021
0.000194281
0.000193329
0.00019742
0.000195707
0.000176659
0.000178464
0.000194631
0.000195966
0.000197317
0.000195466
0.000193821
0.000194577
0.000191667
0.000178779
0.000178254
0.000194419
0.000195016
0.000192037
0.000175078
0.000180105
0.000180202
0.00019788
0.00019631
0.000197789
0.00019797
0.00017871
0.000180548
0.000197668
0.000195717
0.000197671
0.000197731
0.000191537
0.000197932
0.000196745
0.000178249
0.000180412
0.000191739
0.000197373
0.000196468
0.000179934
0.000180063
0.000180992
0.000197744
0.000198549
0.000199004
0.000200267
0.000180806
0.000182172
0.00019775
0.000198411
0.000199003
0.000199712
0.000198338
0.000200699
0.000200959
0.000180702
0.000181687
0.000198171
0.00020016
0.000200902
0.00018249
0.000181211
0.000182236
0.000199629
0.000200669
0.000200915
0.000200694
0.000182213
0.000181912
0.000199534
0.000199771
0.000200702
0.000199605
0.000201235
0.000200829
0.000200919
0.000181535
0.000181175
0.000201163
0.000199666
0.000200769
0.000181982
0.000182244
0.000201077
0.000200384
0.000181625
0.000200969
0.000199847
0.000200672
0.000181134
0.000200551
9.66734e-05
5.03064e-05
9.4488e-05
5.02888e-05
2.37199e-05
2.36885e-05
9.66387e-05
5.02955e-05
9.47305e-05
5.02739e-05
0.00012915
0.000133054
0.000156271
0.000158304
0.000165583
0.000163093
0.000132233
9.89334e-05
0.00013906
0.000159734
0.000126395
0.00010228
0.000150413
2.36654e-05
0.000133747
0.000144056
0.000165681
0.000128591
0.000155006
0.00010387
7.88487e-05
7.92182e-05
0.000163012
8.0948e-05
8.09463e-05
9.57184e-05
5.00852e-05
9.77395e-05
4.99291e-05
2.35765e-05
2.35309e-05
9.55182e-05
5.0075e-05
9.71254e-05
4.99347e-05
0.000167751
0.000172549
0.000171489
0.000190538
0.000184698
0.000172162
0.000175095
0.00013216
0.000102369
0.00017383
0.000182589
0.000136628
9.9284e-05
0.000178583
2.35496e-05
2.35207e-05
0.000129446
0.00017549
0.000100276
0.000180129
0.00013445
0.00017848
9.66375e-05
7.80489e-05
7.76889e-05
0.000169043
7.47347e-05
7.4701e-05
9.09029e-05
4.97618e-05
9.22181e-05
4.97396e-05
2.34994e-05
2.35051e-05
9.09124e-05
4.97775e-05
9.23994e-05
4.97501e-05
0.000176813
0.000155166
0.000156612
0.000128941
0.000125515
0.000120041
0.000115703
0.000120382
9.46136e-05
0.000169223
0.000149637
0.000123599
9.28837e-05
0.000154906
2.3527e-05
2.35558e-05
0.000118627
0.000156838
9.23632e-05
0.000142428
0.000121728
0.000146884
9.08967e-05
7.07029e-05
7.08988e-05
0.000129057
6.97864e-05
6.97981e-05
8.73341e-05
4.98256e-05
8.84716e-05
4.99797e-05
2.35498e-05
2.36259e-05
8.85308e-05
4.98187e-05
8.89108e-05
4.99655e-05
0.000114544
0.000110675
0.000105151
8.07427e-05
7.94278e-05
9.55566e-05
9.04322e-05
0.000113185
8.77475e-05
0.000129161
0.000116068
0.000115593
8.49248e-05
0.000119301
2.36119e-05
2.36568e-05
0.000117059
0.000125427
8.98354e-05
0.000123723
0.000115972
0.000120438
9.11369e-05
7.0062e-05
7.03313e-05
0.000119474
7.13019e-05
7.1947e-05
9.3482e-05
5.03367e-05
8.98733e-05
5.05002e-05
2.37629e-05
2.3819e-05
9.36043e-05
5.0298e-05
9.0937e-05
5.0448e-05
7.40824e-05
9.58748e-05
9.24331e-05
0.000109677
0.000116025
0.000130622
0.000132033
0.000124133
8.92147e-05
0.000101486
0.000119104
0.000116611
9.54051e-05
0.000104625
2.37063e-05
2.37169e-05
0.00012697
0.000118017
9.53917e-05
0.000145089
0.000122346
0.000129744
9.83552e-05
7.51427e-05
7.55279e-05
0.000147421
7.77869e-05
7.73581e-05
0.000102596
5.05686e-05
0.000100151
5.04251e-05
2.38172e-05
2.37301e-05
0.000100313
5.05177e-05
9.82836e-05
5.04049e-05
0.000142909
0.000141602
0.000143311
0.000190414
0.000198319
0.000159373
0.000164014
0.000141656
0.000105884
0.000162907
0.000189545
0.000136689
0.000109602
0.000176607
2.36652e-05
2.36128e-05
0.000136228
0.000160227
0.000102133
0.000169974
0.000133598
0.000166618
0.000102702
7.91502e-05
7.81343e-05
0.000165969
7.72653e-05
7.7408e-05
9.44909e-05
5.00755e-05
9.83892e-05
4.99818e-05
2.35819e-05
2.35662e-05
9.46949e-05
5.0077e-05
9.78995e-05
4.99733e-05
0.000206551
0.000160286
0.000167219
0.000191556
0.000189563
0.000148963
0.000164531
0.000132701
0.000103435
0.000199362
0.000198745
0.000138913
9.7616e-05
0.000200365
2.35663e-05
2.35853e-05
0.000130829
0.00017467
9.80572e-05
0.000165471
0.000134761
0.00017421
9.42613e-05
7.41785e-05
7.53263e-05
0.000157728
7.32699e-05
7.42238e-05
9.11091e-05
5.00468e-05
9.06874e-05
5.01686e-05
2.36259e-05
2.36818e-05
9.0934e-05
5.00275e-05
9.07626e-05
5.01554e-05
0.000168358
0.000140163
0.000156873
0.000126415
0.000126453
0.00012391
0.00013389
0.000121474
9.17544e-05
0.000166612
0.000145925
0.000123896
9.13935e-05
0.000156147
2.36869e-05
2.3757e-05
0.000120801
0.000157681
8.97705e-05
0.000142072
0.000123291
0.000150708
9.113e-05
7.229e-05
7.24852e-05
0.000141882
7.22822e-05
7.2162e-05
9.56635e-05
5.03449e-05
9.39977e-05
5.04154e-05
2.37333e-05
2.37418e-05
9.61678e-05
5.03362e-05
9.42767e-05
5.04138e-05
0.000120743
0.000124051
0.000129292
0.000115944
0.000120192
0.00016246
0.00014183
0.000129478
9.56319e-05
0.000137883
0.000142093
0.000124507
9.84417e-05
0.000136093
2.38172e-05
2.38203e-05
0.000131808
0.000141117
9.76942e-05
0.000163354
0.000125619
0.000147162
0.000102042
7.48465e-05
7.48017e-05
0.000149239
7.71314e-05
7.69847e-05
9.76568e-05
5.04672e-05
9.70829e-05
5.04864e-05
2.37344e-05
2.37358e-05
9.89546e-05
5.04819e-05
9.79689e-05
5.05007e-05
0.000130777
0.000173561
0.000155513
0.000176013
0.000160075
0.000196308
0.000177082
0.000138344
0.000100161
0.000162966
0.00016979
0.000136803
9.98851e-05
0.000171909
2.37681e-05
2.37194e-05
0.000144025
0.000182338
0.000107143
0.000194325
0.00014129
0.000189853
0.000107815
8.06872e-05
8.07931e-05
0.000178609
8.0158e-05
8.00436e-05
9.94933e-05
5.04639e-05
9.89842e-05
5.03576e-05
2.37519e-05
2.37583e-05
9.86867e-05
5.04331e-05
9.99615e-05
5.03181e-05
0.000167892
0.000199101
0.000177702
0.000200954
0.000181796
0.000175746
0.000165362
0.000134174
9.91747e-05
0.000183661
0.000179665
0.00013594
9.9717e-05
0.000184194
2.3637e-05
2.3618e-05
0.000133882
0.000198957
0.000102279
0.000186687
0.000138786
0.000195586
9.86263e-05
7.55676e-05
7.47819e-05
0.000160755
7.32519e-05
7.25832e-05
9.56504e-05
5.01763e-05
9.72596e-05
5.0155e-05
2.37496e-05
2.37392e-05
9.34303e-05
5.0176e-05
9.52978e-05
5.01728e-05
0.000184897
0.000164276
0.000158056
0.00016235
0.000187304
0.000135741
0.000147447
0.000134418
0.000101427
0.000182844
0.00018398
0.000133386
0.000102331
0.000181997
2.36481e-05
2.37067e-05
0.000126783
0.000169138
9.38234e-05
0.000154339
0.000127889
0.000161523
9.30496e-05
7.24954e-05
7.26058e-05
0.000145962
7.39153e-05
7.41472e-05
9.51889e-05
5.03103e-05
9.4131e-05
5.04496e-05
2.37287e-05
2.37265e-05
9.56098e-05
5.03496e-05
9.3427e-05
5.04771e-05
0.00018236
0.000131522
0.000147166
0.000138174
0.000165505
0.000146057
0.000169343
0.000135407
0.000101592
0.000179579
0.000177606
0.000135239
0.000100607
0.000178559
2.37876e-05
2.38156e-05
0.000134767
0.000151662
9.68241e-05
0.000156848
0.000130821
0.000154341
9.98908e-05
7.62441e-05
7.67497e-05
0.000166329
7.75099e-05
7.81712e-05
9.86804e-05
5.0559e-05
9.74859e-05
5.05577e-05
2.37219e-05
2.37267e-05
0.000100432
5.05739e-05
9.9146e-05
5.05611e-05
0.000161143
0.000161117
0.000176399
0.000177234
0.00015291
0.000189805
0.00018886
0.000136708
9.89081e-05
0.000175498
0.000169541
0.000135895
9.84913e-05
0.000174738
2.38083e-05
2.3778e-05
0.000142274
0.00018583
0.000103963
0.000190883
0.000140238
0.000192366
0.000105123
7.90178e-05
7.95796e-05
0.000177709
7.93858e-05
7.94107e-05
9.84603e-05
5.04578e-05
9.91423e-05
5.04016e-05
2.37478e-05
2.37659e-05
9.83512e-05
5.04476e-05
9.95628e-05
5.03986e-05
0.000152191
0.000192908
0.000190288
0.000190529
0.00016822
0.000190506
0.000185335
0.000138097
9.92279e-05
0.000179351
0.000174851
0.000138029
9.98913e-05
0.000182122
2.37317e-05
2.37284e-05
0.000139388
0.000200453
0.000103159
0.000193194
0.00014165
0.000200375
0.000101256
7.82261e-05
7.75948e-05
0.000173829
7.72166e-05
7.65325e-05
9.69402e-05
5.03663e-05
9.72809e-05
5.03919e-05
2.37866e-05
2.37958e-05
9.62602e-05
5.03789e-05
9.6618e-05
5.04122e-05
0.000173956
0.000185306
0.000180652
0.000173755
0.000182736
0.000171468
0.000167243
0.000136482
0.000100689
0.000186886
0.000184318
0.000136931
0.000101424
0.000187057
2.37534e-05
2.37808e-05
0.000134481
0.000188465
9.88456e-05
0.000176965
0.000135652
0.000184126
9.85211e-05
7.55933e-05
7.53637e-05
0.00016274
7.50725e-05
7.5175e-05
9.76882e-05
5.04795e-05
9.71971e-05
5.05334e-05
2.37951e-05
2.37907e-05
9.77555e-05
5.04899e-05
9.69284e-05
5.05355e-05
0.00018323
0.000169252
0.000164071
0.000166217
0.000181461
0.000170507
0.000160761
0.000138016
0.000102125
0.000186882
0.000185427
0.000137061
0.000102163
0.000187111
2.38069e-05
2.38138e-05
0.000136958
0.000176879
0.000100207
0.000175848
0.000135031
0.000176118
0.000101615
7.54301e-05
7.58479e-05
0.00016193
7.61642e-05
7.65131e-05
9.87238e-05
5.05807e-05
9.83242e-05
5.05918e-05
2.37883e-05
2.37962e-05
9.9213e-05
5.05752e-05
9.88107e-05
5.0584e-05
0.000180312
0.000175649
0.000166084
0.000185731
0.000177902
0.000187456
0.000182176
0.000139037
0.000101426
0.000187646
0.000183431
0.000138735
0.000101158
0.000187849
2.3808e-05
2.38015e-05
0.000141109
0.00018826
0.00010313
0.000189601
0.000140027
0.000192345
0.000103462
7.71326e-05
7.72466e-05
0.000172138
7.74105e-05
7.73762e-05
9.91206e-05
5.05836e-05
9.90722e-05
5.05725e-05
2.3812e-05
2.38204e-05
9.90945e-05
5.0576e-05
9.92868e-05
5.05673e-05
0.000179198
0.000189354
0.000185256
0.000192983
0.000186688
0.000189994
0.000188595
0.000140363
0.000101568
0.000190999
0.000186866
0.000139764
0.000102149
0.000192755
2.37937e-05
2.3795e-05
0.000140767
0.000197961
0.000102684
0.000191276
0.000141238
0.000198203
0.000102123
7.73107e-05
7.71795e-05
0.000174065
7.7078e-05
7.69732e-05
9.8902e-05
5.0562e-05
9.89763e-05
5.05657e-05
2.38249e-05
2.3826e-05
9.84602e-05
5.0559e-05
9.86036e-05
5.05629e-05
0.000189102
0.000189081
0.000188879
0.000190884
0.000193467
0.000185073
0.00019173
0.000141403
0.000102758
0.00019768
0.000192345
0.000140986
0.000102951
0.00019881
2.38053e-05
2.38175e-05
0.00013956
0.00019604
0.000101308
0.000187258
0.00013972
0.000194948
0.000101216
7.71033e-05
7.70293e-05
0.000174188
7.74734e-05
7.74242e-05
9.87503e-05
5.05823e-05
9.87801e-05
5.05981e-05
2.38256e-05
2.38284e-05
9.8868e-05
5.05794e-05
9.85845e-05
5.05941e-05
0.000193816
0.000183888
0.00019341
0.000186733
0.000192415
0.000188193
0.000197814
0.000141987
0.000102792
0.000200419
0.000192835
0.000141783
0.000102586
0.00020054
2.38324e-05
2.38399e-05
0.000141856
0.000193388
0.000101921
0.000188373
0.000140746
0.000195274
0.000102541
7.81315e-05
7.81613e-05
0.000179108
7.83985e-05
7.84492e-05
9.89795e-05
5.06235e-05
9.88215e-05
5.06444e-05
2.38369e-05
2.3845e-05
9.91658e-05
5.0617e-05
9.909e-05
5.06375e-05
0.000191737
0.000191482
0.000198564
0.000191808
0.000192411
0.000198362
0.000198288
0.000142026
0.000102308
0.000200834
0.000191859
0.000142069
0.000102373
0.000200954
2.38451e-05
2.38483e-05
0.000142752
0.000202308
0.000103007
0.000195406
0.000142685
0.00020359
0.000103099
7.8089e-05
7.81092e-05
0.000179397
7.77078e-05
7.76881e-05
9.94943e-05
5.06697e-05
9.92759e-05
5.06808e-05
2.38536e-05
2.38591e-05
9.94214e-05
5.06645e-05
9.9286e-05
5.06765e-05
0.000193401
0.00019913
0.000197501
0.000199874
0.000196488
0.00019838
0.000193878
0.000141421
0.000102521
0.000200653
0.000193464
0.000141566
0.000102724
0.000200448
2.38519e-05
2.38564e-05
0.000141763
0.000204214
0.000102948
0.00019582
0.000142167
0.000203658
0.000102812
7.70866e-05
7.70219e-05
0.000175906
7.69642e-05
7.68945e-05
9.96481e-05
5.06897e-05
9.96249e-05
5.06959e-05
2.38658e-05
2.38713e-05
9.96392e-05
5.0685e-05
9.95632e-05
5.06908e-05
0.000197533
0.00019822
0.000192785
0.000202145
0.000200943
0.000200366
0.000196283
0.000142972
0.000103059
0.000201747
0.000196155
0.000142096
0.000103382
0.000202972
2.38642e-05
2.38691e-05
0.000142778
0.000201712
0.000102987
0.000195013
0.000141847
0.00020159
0.000103377
7.73715e-05
7.73318e-05
0.000176883
7.77166e-05
7.77038e-05
9.98064e-05
5.07076e-05
9.96757e-05
5.07193e-05
2.38767e-05
2.38798e-05
9.98129e-05
5.07023e-05
9.97183e-05
5.07131e-05
0.000202155
0.000201583
0.000199299
0.000203581
0.000205644
0.000204775
0.000205896
0.00014418
0.00010366
0.000207137
0.000199553
0.000143834
0.000103784
0.000208343
2.38729e-05
2.38756e-05
0.000144137
0.000206364
0.000103656
0.000199267
0.000143793
0.000207852
0.000103704
7.80237e-05
7.80235e-05
0.000181728
7.8076e-05
7.80726e-05
9.99409e-05
5.07313e-05
9.99323e-05
5.07383e-05
2.38818e-05
2.38838e-05
9.98336e-05
5.07249e-05
9.9845e-05
5.07325e-05
0.000206576
0.000205337
0.000207101
0.000206838
0.00020749
0.000205679
0.00020779
0.00014436
0.000103811
0.000210781
0.000201117
0.000144345
0.000103724
0.000211054
2.38789e-05
2.38834e-05
0.000144115
0.000210121
0.00010355
0.00020006
0.0001442
0.000210106
0.000103419
7.79792e-05
7.79682e-05
0.000182464
7.78863e-05
7.78795e-05
5.0749e-05
9.98413e-05
2.38887e-05
9.9895e-05
5.07452e-05
9.98004e-05
0.000207139
0.000205873
0.000207516
0.000103349
0.000210359
0.000143984
2.38915e-05
2.38977e-05
0.000144028
0.000209488
0.000103327
0.000200051
0.000143831
0.000209661
0.000103605
7.78308e-05
7.78609e-05
0.000181895
7.7974e-05
7.79988e-05
2.37189e-05
2.37055e-05
2.3716e-05
2.37008e-05
7.66906e-05
7.67762e-05
0.000155283
7.91724e-05
7.91211e-05
2.36354e-05
2.36896e-05
2.36315e-05
2.36844e-05
0.000159412
8.09511e-05
8.05959e-05
7.98269e-05
7.97067e-05
9.67797e-05
5.03138e-05
9.45596e-05
5.02697e-05
0.000130637
9.73097e-05
0.000138765
0.00015693
0.000125393
0.000100842
0.000148754
0.00013086
9.8635e-05
0.000139826
0.000159327
0.000125571
0.000102142
0.000149912
9.72004e-05
5.01418e-05
5.02581e-05
9.81201e-05
9.73066e-05
5.00848e-05
5.02276e-05
9.82047e-05
0.000132231
0.000163956
0.000104158
0.000164097
0.000101865
0.00015712
0.000135631
0.000132436
0.000166143
0.000103874
0.000164764
0.000102819
0.000158045
0.000135722
7.80648e-05
7.82412e-05
0.000159179
8.0027e-05
8.00237e-05
2.37197e-05
2.36862e-05
2.36016e-05
2.36642e-05
0.000162822
7.94042e-05
7.91221e-05
8.03461e-05
8.0294e-05
2.36016e-05
2.36617e-05
0.000131416
9.74925e-05
0.000137987
0.000157241
0.000126317
0.000100862
0.000149168
9.6927e-05
5.02454e-05
0.000131966
0.000164723
0.00015232
0.000103703
9.70431e-05
5.01286e-05
5.02423e-05
9.76193e-05
0.000132741
0.000164439
0.000103762
0.000165456
0.000101777
0.000158081
0.000135306
9.73218e-05
5.00334e-05
5.01941e-05
9.77295e-05
0.00013324
0.000172342
0.000168242
0.000102375
0.000160976
0.000104098
0.000135589
9.72315e-05
5.03149e-05
9.49031e-05
5.02618e-05
0.00013246
0.000140102
9.95041e-05
0.000161802
0.000126464
0.000151293
0.000103227
9.73642e-05
5.0315e-05
9.49655e-05
5.02605e-05
0.000133749
0.000166919
0.000103493
0.000166767
0.000102866
0.00015928
0.000136466
9.76858e-05
5.00755e-05
5.02182e-05
9.80997e-05
0.000134015
0.000169905
0.000167953
0.000103933
0.00016015
0.000103876
0.000136767
9.78421e-05
5.00476e-05
5.02137e-05
9.81911e-05
0.000166893
8.13928e-05
8.12689e-05
2.36619e-05
2.35696e-05
2.36357e-05
0.000169674
7.79598e-05
7.75194e-05
8.0892e-05
8.04712e-05
2.35743e-05
2.36334e-05
0.000133851
0.000143977
0.000100316
0.000163045
0.000128568
0.000154431
0.000103558
9.76497e-05
9.58874e-05
5.02238e-05
9.77262e-05
5.03102e-05
9.59528e-05
5.02208e-05
0.000134776
0.000173269
0.000170599
0.00010169
0.000163331
0.000104157
0.000135897
0.000134912
0.000171207
0.000170118
0.000102999
0.000162614
0.000104062
0.00013614
9.79211e-05
5.0017e-05
5.01696e-05
9.70415e-05
9.79995e-05
5.00066e-05
5.01684e-05
9.70768e-05
2.37167e-05
2.3676e-05
2.37117e-05
2.36673e-05
0.000166682
7.92006e-05
7.87458e-05
8.12736e-05
8.10668e-05
2.35765e-05
2.3649e-05
2.3576e-05
2.36407e-05
2.36077e-05
2.3546e-05
2.36053e-05
2.35495e-05
8.05068e-05
8.00609e-05
0.000180505
7.81329e-05
7.79611e-05
2.34977e-05
2.35265e-05
2.3503e-05
2.35312e-05
0.000179001
7.43366e-05
7.45296e-05
7.71264e-05
7.70611e-05
9.57053e-05
5.00252e-05
9.77731e-05
4.98862e-05
0.000134107
0.000104434
0.000171471
0.000184791
0.000136327
0.000101765
0.000177749
0.00013389
0.000102869
0.000171653
0.000182116
0.000136382
9.98281e-05
0.000177026
9.4853e-05
4.97827e-05
4.98803e-05
9.28477e-05
9.4813e-05
4.97734e-05
4.98459e-05
9.27384e-05
0.000132253
0.000188112
9.63345e-05
0.000184088
0.000100321
0.000182224
0.000126847
0.000132041
0.000183405
9.55291e-05
0.000181887
9.8523e-05
0.000180918
0.00012667
7.85984e-05
7.82967e-05
0.00017294
7.63514e-05
7.61083e-05
2.35779e-05
2.35378e-05
2.35018e-05
2.35174e-05
0.000170146
7.38773e-05
7.40663e-05
7.55797e-05
7.5418e-05
2.3514e-05
2.35262e-05
0.000132767
0.000103894
0.000173021
0.000185088
0.000135695
0.000101395
0.000178762
9.52522e-05
4.99784e-05
9.71002e-05
4.98619e-05
0.000132193
0.000174182
0.000101026
0.000180295
0.000135701
0.000177923
9.72654e-05
9.4794e-05
4.9799e-05
4.98903e-05
9.30226e-05
0.000131092
0.000188203
9.65055e-05
0.000183713
0.000100102
0.000182821
0.000126276
9.44519e-05
4.97987e-05
4.98338e-05
9.25394e-05
0.000130432
0.000172851
0.00017664
9.30996e-05
0.000179926
9.59365e-05
0.000125511
9.51554e-05
5.00187e-05
9.72946e-05
4.98936e-05
0.000131989
0.000174667
0.000102457
0.00018256
0.000136856
0.000178853
9.81161e-05
9.49893e-05
4.99849e-05
9.7326e-05
4.98459e-05
0.00013017
0.000183375
9.54458e-05
0.000180822
9.80459e-05
0.0001818
0.000125142
9.43315e-05
4.98003e-05
4.9859e-05
9.25271e-05
0.000129883
0.000177685
0.000177335
9.28033e-05
0.000181021
9.65227e-05
0.000124602
9.41218e-05
4.97654e-05
4.98118e-05
9.22146e-05
7.68252e-05
7.6429e-05
0.000163185
7.39091e-05
7.38625e-05
2.35573e-05
2.35358e-05
2.35228e-05
2.35163e-05
0.000158138
7.15717e-05
7.20032e-05
7.3104e-05
7.32134e-05
2.35401e-05
2.35331e-05
0.000129514
0.000175594
0.000101564
0.000182539
0.000134688
0.000178976
9.74555e-05
9.41752e-05
4.99686e-05
9.62404e-05
4.98734e-05
9.41736e-05
4.99515e-05
9.62639e-05
4.98361e-05
0.000127569
0.000171122
0.000169947
9.30427e-05
0.000178476
9.54566e-05
0.00012309
0.000127582
0.000175719
0.000171081
9.25749e-05
0.000179378
9.6002e-05
0.000122961
9.34343e-05
4.98266e-05
4.98516e-05
9.17292e-05
9.34224e-05
4.97757e-05
4.98091e-05
9.16735e-05
2.3552e-05
2.35108e-05
2.35547e-05
2.35204e-05
0.000163477
7.12601e-05
7.14833e-05
7.36759e-05
7.37519e-05
2.35015e-05
2.35022e-05
2.35125e-05
2.35131e-05
2.34926e-05
2.34973e-05
2.34968e-05
2.34966e-05
7.34699e-05
7.36967e-05
0.000140297
7.11886e-05
7.14652e-05
2.35435e-05
2.35022e-05
2.35341e-05
2.34998e-05
0.000136219
6.85223e-05
6.86532e-05
7.04496e-05
7.07012e-05
9.07586e-05
4.97573e-05
9.20941e-05
4.974e-05
0.000121039
9.50297e-05
0.000177548
0.000153875
0.000125009
9.19796e-05
0.000161198
0.000120926
9.45488e-05
0.000173804
0.000150228
0.00012485
9.24381e-05
0.000158575
9.04254e-05
4.97959e-05
4.97407e-05
8.89841e-05
9.02819e-05
4.97858e-05
4.974e-05
8.885e-05
0.000119832
0.000143007
8.82295e-05
0.000138653
9.0988e-05
0.000147897
0.000116415
0.000119726
0.000141715
8.84462e-05
0.00013799
9.15897e-05
0.000146472
0.00011628
7.3365e-05
7.36446e-05
0.000139278
7.2028e-05
7.25697e-05
2.35115e-05
2.35142e-05
2.35372e-05
2.35077e-05
0.000136844
6.86882e-05
6.92129e-05
7.13438e-05
7.19605e-05
2.35341e-05
2.35153e-05
0.000120815
9.52738e-05
0.000174929
0.000153488
0.000124612
9.22956e-05
0.000159001
9.05307e-05
4.97973e-05
9.19137e-05
4.98296e-05
0.000120197
0.000164005
9.23225e-05
0.000143565
0.000123877
0.000152164
9.07384e-05
9.04111e-05
4.97925e-05
4.97494e-05
8.92111e-05
0.000119588
0.000142839
8.84209e-05
0.000138089
9.12741e-05
0.000146797
0.000116515
9.01226e-05
4.99248e-05
4.98445e-05
8.92678e-05
0.000119032
0.000137737
0.000136554
8.94921e-05
0.000143396
9.0283e-05
0.000116427
9.08032e-05
4.97865e-05
9.1968e-05
4.97696e-05
0.000119725
0.000163424
9.17764e-05
0.000141839
0.000123016
0.000150749
8.97933e-05
9.04976e-05
4.97628e-05
9.16467e-05
4.97974e-05
0.000119369
0.000141521
8.91175e-05
0.000136797
9.21537e-05
0.000144354
0.000116579
9.03868e-05
4.97919e-05
4.97678e-05
8.91776e-05
0.000118715
0.000134238
0.000134275
8.86794e-05
0.000141609
8.93248e-05
0.000116323
9.01352e-05
4.99058e-05
4.98151e-05
8.92096e-05
7.12593e-05
7.17109e-05
0.000132405
7.07158e-05
7.10408e-05
2.35434e-05
2.35675e-05
2.36023e-05
2.35626e-05
0.000130522
7.06282e-05
7.08822e-05
7.05954e-05
7.0869e-05
2.36123e-05
2.35738e-05
0.000118342
0.000156956
9.15783e-05
0.00014025
0.000121553
0.000146195
8.95277e-05
9.00289e-05
4.98262e-05
9.11876e-05
4.98607e-05
8.9896e-05
4.97752e-05
9.11112e-05
4.98209e-05
0.000117798
0.000136379
0.000132237
8.97747e-05
0.000139406
9.0468e-05
0.000116213
0.00011749
0.000132308
0.000129978
8.8636e-05
0.000137959
8.90461e-05
0.00011591
8.97596e-05
4.99634e-05
4.98768e-05
8.93891e-05
8.96155e-05
4.99528e-05
4.98431e-05
8.92579e-05
2.35057e-05
2.35403e-05
2.3516e-05
2.3548e-05
0.000126089
6.98986e-05
7.0019e-05
6.96413e-05
6.95972e-05
2.35981e-05
2.35493e-05
2.36079e-05
2.35572e-05
2.35573e-05
2.36298e-05
2.35468e-05
2.36174e-05
6.80218e-05
6.80939e-05
0.000110679
6.73535e-05
6.73379e-05
2.37303e-05
2.3652e-05
2.37155e-05
2.36392e-05
0.000107701
7.02291e-05
7.021e-05
6.77286e-05
6.77618e-05
8.72603e-05
4.98156e-05
8.83532e-05
4.99814e-05
0.000111842
8.7294e-05
0.000130815
0.000115989
0.000115138
8.53946e-05
0.000120986
0.000111663
8.71632e-05
0.000130533
0.000116048
0.00011499
8.45249e-05
0.000120754
8.72095e-05
5.02697e-05
5.00447e-05
8.89643e-05
8.71854e-05
5.02987e-05
5.00527e-05
8.89845e-05
0.000110943
0.000109497
8.7821e-05
0.000103881
8.50991e-05
0.000110952
0.000111858
0.000110759
0.000108866
8.70397e-05
0.000103421
8.3951e-05
0.000110532
0.000111773
6.77778e-05
6.81739e-05
0.000110891
6.61543e-05
6.6229e-05
2.35441e-05
2.36152e-05
2.37421e-05
2.36519e-05
0.000107035
6.9553e-05
6.95559e-05
6.62854e-05
6.61131e-05
2.3732e-05
2.36409e-05
0.000113737
8.74707e-05
0.000129872
0.000115852
0.000115623
8.57251e-05
0.000120194
8.90964e-05
4.99547e-05
8.90773e-05
5.0073e-05
0.000114554
0.000129357
8.94281e-05
0.000124337
0.00011574
0.00012225
9.03204e-05
8.87008e-05
5.0237e-05
5.00269e-05
9.0271e-05
0.000113636
0.000109901
8.84029e-05
0.000106611
8.55797e-05
0.000112268
0.000115749
8.92598e-05
5.02321e-05
5.01122e-05
9.08567e-05
0.000114662
0.000122066
0.000112483
9.35896e-05
0.000116778
9.08478e-05
0.000116942
8.80416e-05
4.9815e-05
8.87801e-05
4.99664e-05
0.000113814
0.000126419
8.86678e-05
0.000119949
0.000115566
0.000119231
8.95947e-05
8.85515e-05
4.99402e-05
8.89327e-05
5.00778e-05
0.000112698
0.000109295
8.74476e-05
0.000105034
8.43067e-05