/*--------------------------------*- C++ -*----------------------------------*\
| =========                 |                                                 |
| \\      /  F ield         | OpenFOAM: The Open Source CFD Toolbox           |
|  \\    /   O peration     | Version:  2312                                  |
|   \\  /    A nd           | Website:  www.openfoam.com                      |
|    \\/     M anipulation  |                                                 |
\*---------------------------------------------------------------------------*/
FoamFile
{
    version     2.0;
    format      ascii;
    arch        "LSB;label=32;scalar=64";
    class       volScalarField;
    location    "625";
    object      p;
}
// * * * * * * * * * * * * * * * * * * * * * * * * * * * * * * * * * * * * * //

dimensions      [0 2 -2 0 0 0 0];

internalField   nonuniform List<scalar> 
42973
(
0.00167594
0.00167487
0.00167678
0.00163718
0.00163633
0.00163621
0.00163813
0.00159773
0.00159909
0.00159966
0.0016019
0.00156306
0.00156395
0.00156424
0.00156663
0.00153184
0.00153206
0.00153039
0.00153233
0.00149709
0.00149508
0.00149588
0.00149745
0.00145813
0.00145748
0.0014589
0.00146084
0.00142249
0.00142382
0.00142325
0.00142514
0.00138853
0.00138882
0.00138812
0.00139092
0.00135379
0.00135256
0.00135227
0.00135423
0.00131671
0.00131664
0.00131623
0.00131833
0.00127961
0.00128032
0.00128153
0.0012836
0.00124568
0.00124496
0.00124602
0.00124719
0.00121092
0.00121042
0.00120895
0.00121136
0.00117375
0.00117465
0.00117353
0.00117609
0.00113845
0.00113825
0.00113905
0.0011409
0.00110347
0.00110304
0.00110371
0.00110563
0.00106838
0.00106812
0.00106772
0.00106977
0.00103271
0.00103287
0.00103251
0.00103455
0.000997432
0.00099727
0.00099751
0.000999454
0.000962002
0.00096183
0.0009621
0.000963907
0.000926655
0.000926501
0.000926259
0.000928328
0.000891191
0.000891145
0.000891019
0.000893148
0.000855707
0.000855764
0.000855865
0.000857959
0.000820451
0.0008203
0.00082033
0.00082226
0.000785039
0.000784854
0.000784876
0.000786828
0.000749457
0.000749436
0.000749446
0.000751465
0.00167691
0.00164381
0.00167511
0.0016749
0.00164634
0.00164625
0.00167682
0.00164373
0.00167507
0.00164624
0.00164592
0.00167488
0.00164614
0.00164596
0.00164342
0.00167481
0.00164582
0.00164586
0.00164344
0.00163852
0.00160598
0.0016364
0.00163642
0.00160743
0.00160784
0.00163841
0.00160632
0.00163635
0.00163626
0.00160754
0.00160854
0.00163608
0.001608
0.00160833
0.00163821
0.00160682
0.00163605
0.00160869
0.00160849
0.00160674
0.0016013
0.00157103
0.00159868
0.00159893
0.00157268
0.00157238
0.00160151
0.00157071
0.00159879
0.00159953
0.00157274
0.00157275
0.0015995
0.0015724
0.00157296
0.00160191
0.00157108
0.00159962
0.00157284
0.00157307
0.00157125
0.00156647
0.00153822
0.00156422
0.00156392
0.00154024
0.00154039
0.00156621
0.00153845
0.00156429
0.00156417
0.00154001
0.0015392
0.00156434
0.00154022
0.00153916
0.00156649
0.00153695
0.00156444
0.00153891
0.00153887
0.00153686
0.00153373
0.00150216
0.00153208
0.00153234
0.00150469
0.00150459
0.00153396
0.00150204
0.00153177
0.00153081
0.00150459
0.0015048
0.00153069
0.00150442
0.00150458
0.0015324
0.0015024
0.00153026
0.00150471
0.00150455
0.00150223
0.00149718
0.00146429
0.0014953
0.00149513
0.00146644
0.00146633
0.00149705
0.00146421
0.00149529
0.0014958
0.00146684
0.0014678
0.00149564
0.00146671
0.00146803
0.00149759
0.00146569
0.00149579
0.00146818
0.00146842
0.00146588
0.00145927
0.00143044
0.00145708
0.00145711
0.00143196
0.00143223
0.0014593
0.00143063
0.00145742
0.00145851
0.0014319
0.00143194
0.00145869
0.00143226
0.00143152
0.00146073
0.00143017
0.00145905
0.00143192
0.0014315
0.0014298
0.00142594
0.00139615
0.00142377
0.00142405
0.00139821
0.00139799
0.00142605
0.00139597
0.00142367
0.00142339
0.00139799
0.00139738
0.00142279
0.00139775
0.00139757
0.0014255
0.00139515
0.00142267
0.00139716
0.00139746
0.00139563
0.00139131
0.00135911
0.00138927
0.00138896
0.00136164
0.00136158
0.00139116
0.00135927
0.00138907
0.00138833
0.00136149
0.00136123
0.00138905
0.00136158
0.00136165
0.00139031
0.00135899
0.00138886
0.00136122
0.00136147
0.0013592
0.00135419
0.0013232
0.00135242
0.00135258
0.00132537
0.00132567
0.0013544
0.0013234
0.00135232
0.00135228
0.00132531
0.00132518
0.00135234
0.00132565
0.0013251
0.00135412
0.00132299
0.00135223
0.00132511
0.00132501
0.00132298
0.00131828
0.00128699
0.00131618
0.00131662
0.00128858
0.00128884
0.00131853
0.00128721
0.00131612
0.00131619
0.00128881
0.0012899
0.00131638
0.00128941
0.00129032
0.0013182
0.00128821
0.00131633
0.00129026
0.00129052
0.00128845
0.00128236
0.00125295
0.00127995
0.00127988
0.00125466
0.00125371
0.00128238
0.00125189
0.0012803
0.00128117
0.00125502
0.00125514
0.0012814
0.00125362
0.00125406
0.00128349
0.00125319
0.00128168
0.00125509
0.00125448
0.00125212
0.00124829
0.00121707
0.00124619
0.00124526
0.00121965
0.00121955
0.00124725
0.00121719
0.00124649
0.00124632
0.00121939
0.00121853
0.00124488
0.00121911
0.00121827
0.00124831
0.00121605
0.00124525
0.00121803
0.00121796
0.0012161
0.001212
0.0011802
0.00121026
0.00121071
0.00118249
0.0011836
0.0012124
0.00118135
0.00120981
0.00120926
0.00118206
0.00118206
0.00120958
0.00118379
0.00118323
0.00121112
0.00118005
0.00120914
0.00118228
0.0011828
0.00118089
0.00117537
0.00114539
0.00117349
0.00117439
0.0011472
0.00114703
0.00117639
0.00114515
0.00117316
0.00117328
0.00114733
0.00114756
0.0011743
0.0011472
0.00114763
0.00117531
0.00114574
0.00117398
0.0011477
0.00114774
0.00114568
0.00114069
0.00111053
0.00113856
0.00113814
0.0011124
0.00111183
0.00114037
0.00110993
0.00113879
0.00113896
0.00111267
0.00111268
0.00113876
0.00111179
0.00111225
0.00114106
0.0011107
0.00113896
0.00111263
0.00111252
0.0011104
0.00110574
0.00107461
0.00110358
0.0011031
0.00107682
0.0010769
0.00110519
0.0010748
0.00110379
0.00110376
0.00107674
0.00107669
0.00110345
0.00107685
0.00107676
0.00110586
0.00107454
0.00110367
0.00107668
0.00107674
0.0010746
0.00106977
0.00103927
0.00106787
0.00106815
0.00104137
0.00104172
0.00107003
0.00103959
0.00106762
0.00106773
0.00104122
0.00104124
0.00106785
0.00104174
0.00104139
0.00106969
0.00103917
0.0010677
0.00104125
0.00104123
0.00103929
0.00103452
0.0010042
0.00103259
0.00103284
0.00100621
0.00100611
0.00103479
0.0010041
0.00103248
0.0010325
0.00100624
0.00100628
0.00103262
0.00100615
0.00100625
0.00103443
0.00100428
0.0010325
0.00100628
0.00100628
0.00100423
0.000999419
0.00096888
0.000997387
0.000997265
0.000970852
0.000970721
0.00099931
0.000968685
0.000997453
0.000997504
0.000970951
0.000971039
0.000997424
0.000970676
0.000970739
0.000999527
0.000968988
0.000997494
0.00097102
0.000970866
0.00096874
0.000964074
0.000933336
0.000962001
0.000961883
0.000935438
0.000935389
0.000963881
0.000933324
0.000962077
0.000962148
0.000935395
0.000935239
0.000961832
0.000935331
0.000935208
0.000964145
0.000933123
0.000961917
0.000935163
0.00093515
0.000933136
0.00092851
0.000897815
0.000926558
0.000926546
0.000899913
0.000899957
0.000928526
0.000897923
0.000926486
0.00092631
0.000899853
0.000899767
0.000926366
0.000899987
0.000899961
0.000928298
0.000897775
0.000926289
0.000899793
0.0008999
0.000897916
0.000893005
0.00086242
0.000891024
0.000891081
0.000864426
0.000864511
0.000893123
0.000862523
0.00089099
0.000890972
0.000864454
0.000864589
0.000891174
0.000864617
0.000864778
0.00089301
0.000862617
0.00089113
0.000864685
0.000864798
0.000862758
0.000857638
0.00082718
0.000855606
0.000855676
0.000829205
0.000829193
0.000857722
0.000827124
0.00085564
0.000855774
0.000829222
0.00082924
0.000855934
0.000829168
0.000829159
0.000857824
0.000827158
0.000855974
0.00082922
0.00082918
0.000827087
0.000822386
0.000791775
0.000820392
0.000820351
0.000793833
0.000793768
0.000822316
0.000791696
0.000820401
0.000820378
0.000793834
0.000793786
0.000820256
0.000793715
0.000793661
0.000822341
0.000791716
0.000820266
0.000793731
0.000793661
0.000791629
0.000786948
0.00075624
0.000784942
0.000784893
0.000758268
0.000758278
0.000786883
0.000756256
0.000784946
0.000784917
0.000758275
0.000758303
0.000784815
0.000758284
0.000758284
0.000786905
0.000756273
0.000784817
0.00075831
0.00075829
0.000756271
0.000751421
0.000749394
0.000749421
0.000751448
0.000749395
0.000749428
0.000749437
0.000751455
0.000749439
0.00166216
0.00167597
0.00167615
0.00166197
0.00167566
0.00166193
0.00166203
0.00167585
0.00167594
0.00166191
0.00167577
0.00167567
0.00164705
0.00164691
0.00164663
0.00164665
0.00166239
0.00167589
0.00167539
0.00166546
0.00167627
0.00166208
0.00166586
0.00166198
0.00166225
0.00167513
0.00166504
0.00167606
0.00166556
0.001662
0.00167557
0.00167553
0.00166292
0.00166186
0.00166187
0.00162484
0.00163856
0.00163864
0.00162488
0.001639
0.00162522
0.00162507
0.00163863
0.00163876
0.00162497
0.00163712
0.00163692
0.00163688
0.00160735
0.00160749
0.00160774
0.0016076
0.00162498
0.00163879
0.00163659
0.00162661
0.00163856
0.00162518
0.00162678
0.00163953
0.00162583
0.00162534
0.00163642
0.00163927
0.00162681
0.00163881
0.00162676
0.00162571
0.00163929
0.00163936
0.0016245
0.00162585
0.00162589
0.00158888
0.00160253
0.0016022
0.00158922
0.00160254
0.00158914
0.00158899
0.00160263
0.00160242
0.00158927
0.00159794
0.00159859
0.00159844
0.00157153
0.00157143
0.00157199
0.00157205
0.00158876
0.00160242
0.0015987
0.00159019
0.00160221
0.00158892
0.00158988
0.0016027
0.00158894
0.00158887
0.00159922
0.00160263
0.00159057
0.0016024
0.0015903
0.00158894
0.00160301
0.00160305
0.00158884
0.00158917
0.0015892
0.00155442
0.00156731
0.00156701
0.00155452
0.00156743
0.00155465
0.00155401
0.00156723
0.00156686
0.00155428
0.00156292
0.00156348
0.00156356
0.00153938
0.00153958
0.00153913
0.0015392
0.00155405
0.0015669
0.00156379
0.00155591
0.00156652
0.00155441
0.00155559
0.0015666
0.00155347
0.00155359
0.00156408
0.00156651
0.00155577
0.00156649
0.00155566
0.00155341
0.00156656
0.0015665
0.00155411
0.00155332
0.00155317
0.00151907
0.00153247
0.0015329
0.00151865
0.00153215
0.00151815
0.00151899
0.00153218
0.00153236
0.00151861
0.00153211
0.00153119
0.00153125
0.00150666
0.00150657
0.0015057
0.00150555
0.00151941
0.00153233
0.00153181
0.00152317
0.00153268
0.00151871
0.00152349
0.00153161
0.00151864
0.00151909
0.00153078
0.00153153
0.00152186
0.0015318
0.00152228
0.0015188
0.00153143
0.00153128
0.00151966
0.00151857
0.00151858
0.00148244
0.00149564
0.00149589
0.0014824
0.0014953
0.00148251
0.00148322
0.00149617
0.00149658
0.00148287
0.0014969
0.00149666
0.00149656
0.00146766
0.00146758
0.00146845
0.00146873
0.00148336
0.00149596
0.00149578
0.00148565
0.00149673
0.00148277
0.00148633
0.00149714
0.00148427
0.00148438
0.00149607
0.00149739
0.00148682
0.00149752
0.00148702
0.00148435
0.00149724
0.00149742
0.00148428
0.00148424
0.00148438
0.00144837
0.00146125
0.00146098
0.00144864
0.00146185
0.00144911
0.00144826
0.00146139
0.00146126
0.00144855
0.00145804
0.00145893
0.00145923
0.00143086
0.00143095
0.00143144
0.00143115
0.00144796
0.00146134
0.00145798
0.00144878
0.00146091
0.00144859
0.00144884
0.00146215
0.00144871
0.00144803
0.00145901
0.00146193
0.00144973
0.00146149
0.0014497
0.00144844
0.00146169
0.00146176
0.00144767
0.00144808
0.0014481
0.00141338
0.00142687
0.00142682
0.00141335
0.00142678
0.00141302
0.00141293
0.00142657
0.00142635
0.00141306
0.00142254
0.00142273
0.00142226
0.00139706
0.00139706
0.00139721
0.00139683
0.00141297
0.00142648
0.00142307
0.00141526
0.00142597
0.00141306
0.00141459
0.00142581
0.00141196
0.00141247
0.00142282
0.00142576
0.00141462
0.00142551
0.00141419
0.00141221
0.00142566
0.00142562
0.00141256
0.0014125
0.00141247
0.00137681
0.0013905
0.00139049
0.00137675
0.00139015
0.00137668
0.0013764
0.00139023
0.00139006
0.00137649
0.00138845
0.0013887
0.00138863
0.00136289
0.00136248
0.001362
0.00136253
0.00137704
0.00139024
0.0013889
0.00137979
0.00139054
0.00137671
0.00138019
0.00138904
0.00137571
0.00137652
0.00138865
0.0013893
0.00137903
0.00139
0.00137981
0.00137589
0.0013901
0.00139002
0.00137762
0.00137634
0.00137623
0.0013409
0.00135405
0.00135424
0.0013406
0.00135456
0.0013412
0.00134069
0.00135385
0.00135394
0.00134046
0.00135353
0.00135299
0.00135316
0.00132609
0.00132634
0.00132559
0.00132552
0.00134104
0.00135435
0.00135289
0.00134358
0.00135422
0.00134119
0.00134363
0.0013539
0.001341
0.00134076
0.00135245
0.0013538
0.00134325
0.0013539
0.00134336
0.00134085
0.0013538
0.00135369
0.00134085
0.00134096
0.00134089
0.00130484
0.00131804
0.00131836
0.00130483
0.00131839
0.00130476
0.0013055
0.00131821
0.00131852
0.00130531
0.00131718
0.00131631
0.00131653
0.0012886
0.0012896
0.00128936
0.00128991
0.00130573
0.00131881
0.00131659
0.00130761
0.0013189
0.00130534
0.00130762
0.00131952
0.00130656
0.00130627
0.00131617
0.00131947
0.00130758
0.00131907
0.00130738
0.0013066
0.00131974
0.00131979
0.00130585
0.00130654
0.00130666
0.00126985
0.00128332
0.00128282
0.00127037
0.00128233
0.00126937
0.00127067
0.0012839
0.00128379
0.00127084
0.00128028
0.0012806
0.00128106
0.00125408
0.00125341
0.00125461
0.00125425
0.00126951
0.00128254
0.00128067
0.0012713
0.00128301
0.00126921
0.00127165
0.00128425
0.0012706
0.0012706
0.00128139
0.00128424
0.00127279
0.00128401
0.00127264
0.00127069
0.0012836
0.00128379
0.00127059
0.00126958
0.00126978
0.00123475
0.00124826
0.00124807
0.00123461
0.00124783
0.00123481
0.00123427
0.00124826
0.00124818
0.00123429
0.00124476
0.00124597
0.00124546
0.00121995
0.00121901
0.00121934
0.00121869
0.00123399
0.0012473
0.00124489
0.00123635
0.001247
0.00123436
0.00123613
0.00124738
0.00123343
0.0012336
0.00124596
0.00124725
0.00123671
0.00124736
0.00123689
0.00123335
0.00124656
0.00124659
0.00123384
0.00123321
0.0012331
0.00119847
0.00121162
0.00121209
0.00119806
0.00121271
0.00119923
0.00119755
0.00121097
0.00121101
0.0011975
0.00121037
0.00121004
0.00120981
0.00118286
0.00118397
0.00118261
0.00118318
0.00119909
0.00121249
0.00121014
0.00120164
0.0012121
0.0011993
0.00120142
0.0012107
0.00119767
0.0011979
0.00120901
0.00121073
0.00120002
0.00121093
0.00120004
0.00119773
0.00121142
0.00121121
0.00119855
0.00119848
0.00119828
0.00116285
0.00117594
0.00117603
0.00116295
0.00117629
0.00116271
0.00116304
0.00117585
0.00117583
0.00116308
0.00117492
0.00117369
0.00117425
0.00114717
0.00114756
0.00114734
0.00114746
0.0011632
0.00117656
0.00117467
0.00116543
0.00117656
0.001163
0.00116557
0.00117628
0.0011634
0.00116329
0.00117366
0.00117621
0.00116489
0.00117608
0.00116493
0.00116339
0.00117675
0.00117666
0.0011633
0.00116359
0.0011636
0.00112764
0.00114111
0.00114084
0.00112788
0.00114035
0.00112717
0.00112819
0.00114146
0.00114142
0.00112821
0.00113851
0.00113865
0.00113863
0.00111226
0.00111179
0.00111239
0.00111218
0.00112754
0.00114045
0.00113848
0.00112938
0.0011407
0.00112725
0.00112958
0.00114144
0.00112806
0.00112818
0.0011389
0.00114142
0.00113031
0.0011413
0.00113021
0.00112817
0.00114132
0.00114142
0.00112805
0.00112795
0.00112804
0.0010922
0.00110555
0.00110547
0.00109215
0.00110534
0.00109231
0.00109215
0.00110568
0.00110569
0.00109211
0.00110301
0.00110358
0.00110341
0.00107716
0.00107684
0.0010771
0.00107716
0.0010922
0.00110522
0.00110314
0.00109431
0.0011053
0.0010922
0.00109437
0.0011055
0.00109201
0.00109229
0.00110374
0.00110555
0.00109473
0.00110568
0.00109484
0.0010921
0.00110548
0.00110557
0.00109257
0.00109205
0.00109208
0.00105683
0.00106986
0.00107002
0.00105668
0.00107035
0.00105711
0.00105653
0.00106966
0.00106969
0.0010565
0.00106814
0.00106816
0.0010683
0.00104155
0.00104191
0.00104148
0.00104157
0.00105702
0.00107026
0.00106802
0.00105935
0.00107007
0.00105714
0.00105926
0.00106976
0.00105666
0.00105663
0.00106788
0.00106972
0.00105884
0.00106973
0.00105888
0.00105663
0.00106981
0.00106975
0.00105683
0.00105666
0.00105658
0.00102163
0.00103476
0.0010348
0.00102166
0.00103481
0.00102154
0.0010217
0.00103473
0.00103473
0.0010217
0.00103309
0.00103267
0.00103274
0.00100628
0.00100636
0.00100627
0.00100634
0.00102171
0.00103485
0.00103289
0.00102396
0.00103483
0.00102162
0.00102404
0.00103487
0.0010218
0.00102172
0.0010325
0.00103477
0.00102378
0.00103466
0.00102376
0.00102177
0.00103481
0.00103477
0.00102179
0.0010217
0.00102169
0.000986346
0.000999642
0.000999566
0.000986412
0.000999438
0.000986242
0.000986521
0.000999755
0.00099975
0.000986515
0.000997438
0.000997462
0.000997531
0.000970856
0.000970752
0.000970985
0.000970937
0.000986276
0.000999397
0.000997379
0.000988395
0.00099944
0.000986215
0.000988482
0.000999789
0.000986513
0.000986544
0.000997509
0.000999736
0.00098872
0.000999665
0.000988713
0.000986535
0.000999537
0.000999605
0.00098656
0.000986192
0.000986252
0.000950928
0.000964237
0.000964189
0.000950949
0.00096417
0.000950938
0.000950868
0.000964267
0.000964242
0.000950915
0.000961883
0.000962157
0.000962009
0.000935495
0.000935371
0.000935463
0.000935269
0.000950822
0.000964024
0.000961839
0.000952992
0.000963967
0.000950857
0.000952981
0.000964154
0.000950748
0.000950766
0.000962121
0.000964078
0.000953117
0.000964067
0.00095317
0.000950716
0.000963928
0.000963939
0.000950908
0.000950668
0.000950655
0.000915405
0.0009287
0.000928704
0.000915377
0.000928739
0.000915429
0.000915287
0.00092861
0.000928558
0.000915303
0.000926549
0.000926521
0.000926404
0.000900069
0.000900089
0.000899877
0.00089993
0.000915493
0.000928667
0.000926458
0.000917669
0.000928588
0.000915484
0.000917631
0.000928471
0.000915246
0.000915323
0.00092629
0.000928408
0.0009174
0.000928409
0.00091743
0.00091527
0.000928667
0.000928633
0.000915481
0.000915511
0.00091548
0.000879925
0.000893149
0.00089318
0.000879898
0.000893232
0.00087999
0.000879952
0.000893132
0.000893159
0.000879913
0.000891234
0.000891051
0.000891131
0.000864549
0.000864668
0.00086465
0.000864771
0.000880215
0.000893298
0.000891176
0.000882305
0.000893319
0.000880114
0.00088236
0.000893226
0.000880053
0.000880211
0.000891038
0.00089324
0.000882252
0.000893239
0.000882276
0.000880154
0.000893487
0.000893467
0.000880362
0.000880244
0.00088024
0.000844639
0.000857828
0.000857824
0.000844653
0.000857863
0.000844632
0.000844675
0.000857865
0.000857873
0.00084468
0.000855819
0.000855851
0.000855992
0.000829258
0.000829308
0.000829362
0.000829407
0.00084471
0.000857872
0.000855867
0.000846903
0.000857903
0.000844654
0.000846998
0.000857937
0.000844687
0.000844786
0.000855926
0.000857977
0.000847007
0.000858004
0.000847083
0.000844729
0.000857974
0.000857997
0.000844946
0.000844612
0.000844631
0.000809307
0.000822584
0.000822553
0.000809323
0.000822505
0.000809263
0.000809324
0.000822591
0.000822567
0.000809333
0.000820454
0.000820489
0.000820486
0.000793925
0.000793842
0.000793843
0.00079378
0.000809242
0.000822421
0.000820338
0.000811433
0.000822388
0.00080923
0.000811467
0.000822548
0.000809306
0.000809251
0.000820377
0.000822449
0.000811451
0.000822402
0.000811485
0.000809256
0.000822392
0.000822394
0.000809324
0.000809147
0.000809149
0.000773838
0.000787125
0.000787111
0.000773838
0.000787117
0.000773869
0.000773857
0.000787144
0.000787138
0.000773851
0.000784955
0.000784961
0.000784901
0.000758343
0.000758302
0.000758353
0.000758304
0.000773863
0.000787036
0.00078486
0.000775994
0.00078699
0.000773862
0.000775996
0.000787159
0.000773884
0.000773883
0.000784868
0.000787072
0.000776022
0.00078701
0.000776012
0.000773888
0.000787056
0.000787062
0.000773951
0.000773826
0.000773831
0.000751631
0.000751637
0.000751689
0.00073831
0.000751613
0.000751614
0.000749441
0.000749495
0.000749453
0.000751649
0.000749435
0.000751602
0.000751622
0.000738297
0.0007384
0.00074946
0.00075161
0.000740571
0.000751594
0.000740598
0.000738342
0.000751664
0.000751658
0.000738552
0.00073835
0.000738338
0.00167581
0.00166182
0.00167574
0.00166178
0.00167588
0.00167584
0.00166324
0.00166185
0.00166182
0.00164319
0.00165713
0.00164322
0.00165711
0.00165807
0.00164314
0.00164315
0.00165716
0.00165714
0.00166216
0.00167583
0.00167612
0.00166199
0.00166262
0.00167616
0.00167549
0.00166573
0.00167649
0.00166221
0.00166603
0.0016626
0.00167601
0.00167542
0.00166553
0.00167646
0.00166217
0.00166596
0.00165745
0.00164323
0.00165725
0.00164337
0.00165746
0.0016435
0.00165734
0.0016434
0.0016577
0.00165615
0.00164326
0.00164663
0.00165738
0.00165641
0.0016435
0.00165769
0.00165597
0.00164347
0.0016466
0.00165742
0.00165636
0.00164351
0.00167571
0.00167567
0.00166309
0.00166197
0.00166193
0.00167559
0.00166189
0.00164362
0.00165732
0.00165796
0.0016436
0.00164361
0.00165735
0.00165732
0.00164365
0.0016573
0.00166242
0.00167606
0.00167543
0.00166566
0.00167628
0.00166212
0.0016659
0.00166203
0.00166187
0.00166238
0.00166514
0.00166573
0.00166203
0.00165736
0.00164327
0.00165722
0.00164342
0.00165754
0.00165605
0.00164326
0.00164647
0.00165732
0.00165624
0.00164349
0.00165737
0.0016438
0.00165731
0.00164349
0.00165752
0.00165558
0.00164637
0.00164379
0.00165609
0.00165734
0.00164353
0.00166198
0.00167569
0.0016759
0.00166191
0.00166238
0.00167537
0.00167584
0.00166542
0.00167628
0.00166584
0.00166201
0.00166198
0.00167562
0.0016759
0.0016618
0.0016575
0.00165587
0.00164347
0.00164641
0.00165734
0.00165619
0.00164344
0.00165731
0.00164356
0.00165728
0.00164343
0.00165749
0.00165575
0.00164634
0.0016435
0.00165615
0.00165727
0.00164342
0.00165732
0.00164361
0.00165718
0.00164344
0.0016627
0.00166199
0.00166199
0.00166202
0.00164412
0.00165752
0.0016576
0.00164414
0.00164419
0.0016575
0.00165752
0.0016442
0.00165757
0.00166225
0.0016752
0.00167575
0.00166532
0.0016761
0.00166563
0.001662
0.00166198
0.00167572
0.00166189
0.00166198
0.00167556
0.00167574
0.00166188
0.00165742
0.00165548
0.00164615
0.00164389
0.00165589
0.00165733
0.00164355
0.00165742
0.00165563
0.00164619
0.00164366
0.00165593
0.00165728
0.00164352
0.00165736
0.00164396
0.00165738
0.00164371
0.00165735
0.00164382
0.00165729
0.00164369
0.00167548
0.0016618
0.00167547
0.00166186
0.00165773
0.00164378
0.00164386
0.00165728
0.0016573
0.00164382
0.00165725
0.00164392
0.00165733
0.00163857
0.00162499
0.00163861
0.00162503
0.00163849
0.00163852
0.00162413
0.00162495
0.00162498
0.00160722
0.00162046
0.00160728
0.00162052
0.001619
0.00160722
0.00160728
0.00162046
0.0016205
0.00162487
0.00163887
0.00163868
0.00162507
0.0016246
0.00163844
0.00163675
0.00162643
0.00163853
0.00162479
0.00162683
0.00162465
0.00163874
0.00163674
0.00162659
0.00163856
0.00162503
0.00162687
0.00162022
0.00160698
0.00162032
0.00160669
0.00162025
0.00160694
0.0016205
0.0016067
0.00161986
0.00161664
0.0016069
0.00160745
0.00162014
0.001617
0.00160652
0.00161991
0.00161706
0.00160687
0.00160751
0.00162036
0.00161705
0.00160653
0.001639
0.00163903
0.00162439
0.00162524
0.0016253
0.00163905
0.00162533
0.00160708
0.00162063
0.00161933
0.00160707
0.00160712
0.00162063
0.00162071
0.00160714
0.00162075
0.00162486
0.00163848
0.00163664
0.00162642
0.0016386
0.00162484
0.00162685
0.00162514
0.00163922
0.00163885
0.00162557
0.00162496
0.00163659
0.00163914
0.00162679
0.00163865
0.00162679
0.00162555
0.00162046
0.00160708
0.00162041
0.00160695
0.00162013
0.00161676
0.001607
0.00160765
0.00162024
0.00161712
0.00160675
0.00162054
0.0016073
0.00162101
0.00160697
0.00162023
0.00161755
0.00160789
0.00160723
0.0016172
0.00162089
0.0016068
0.00162521
0.00163897
0.00163882
0.00162526
0.00162501
0.00163651
0.00163889
0.00162647
0.00163855
0.00162669
0.0016255
0.00162523
0.00163908
0.00163884
0.00162557
0.00162028
0.00161714
0.00160705
0.00160776
0.00162052
0.00161715
0.00160688
0.00162062
0.00160709
0.00162066
0.00160705
0.00162031
0.00161725
0.00160785
0.0016074
0.0016171
0.00162089
0.00160692
0.00162065
0.00160747
0.00162105
0.00160708
0.00163958
0.00163964
0.00162483
0.00162586
0.00162596
0.00163963
0.00162594
0.00160735
0.00162121
0.0016199
0.00160735
0.00160739
0.00162123
0.0016213
0.00160742
0.0016213
0.00162532
0.00163639
0.00163907
0.00162651
0.00163877
0.0016267
0.00162566
0.00162552
0.00163942
0.00163914
0.0016258
0.00162551
0.00163928
0.00163913
0.00162572
0.00162062
0.00161766
0.00160817
0.00160735
0.00161725
0.00162107
0.00160713
0.00162061
0.00161734
0.00160812
0.00160748
0.00161719
0.00162103
0.00160714
0.00162093
0.00160743
0.00162121
0.00160729
0.00162093
0.00160756
0.00162119
0.00160731
0.0016393
0.00162585
0.0016394
0.0016259
0.00161965
0.00160764
0.00160769
0.00162132
0.00162135
0.00160762
0.00162131
0.00160769
0.00162135
0.00160277
0.00158947
0.00160283
0.00158951
0.00160279
0.00160285
0.00158852
0.00158947
0.00158949
0.00157178
0.00158499
0.00157178
0.00158502
0.00158374
0.00157175
0.00157176
0.00158499
0.00158501
0.00158884
0.00160242
0.00160219
0.00158902
0.00158869
0.00160238
0.00159831
0.00159013
0.0016019
0.00158913
0.00158959
0.00158865
0.00160227
0.00159838
0.00159009
0.0016019
0.00158889
0.00158961
0.00158443
0.00157165
0.00158477
0.00157133
0.00158438
0.00157155
0.00158457
0.0015713
0.00158407
0.00158142
0.00157152
0.00157233
0.00158459
0.001581
0.00157109
0.00158405
0.00158119
0.00157138
0.00157222
0.00158434
0.00158092
0.00157105
0.00160254
0.00160258
0.00158843
0.00158909
0.0015891
0.00160259
0.00158914
0.00157174
0.0015847
0.00158363
0.00157169
0.00157168
0.00158465
0.00158463
0.00157172
0.00158468
0.0015888
0.00160247
0.00159856
0.00159018
0.00160211
0.00158918
0.0015898
0.00158894
0.00160269
0.00160242
0.00158901
0.00158877
0.00159886
0.00160254
0.00159048
0.00160213
0.00159001
0.00158891
0.00158449
0.0015716
0.0015848
0.00157124
0.00158418
0.00158146
0.00157152
0.00157243
0.00158463
0.00158111
0.0015711
0.00158442
0.0015711
0.00158446
0.00157117
0.00158414
0.00158152
0.00157248
0.00157105
0.00158119
0.0015843
0.00157106
0.00158892
0.00160254
0.00160248
0.00158901
0.0015888
0.00159891
0.00160272
0.00159058
0.00160225
0.00159008
0.0015891
0.00158893
0.00160287
0.00160251
0.00158915
0.0015841
0.00158125
0.00157128
0.00157233
0.00158432
0.00158109
0.00157097
0.00158438
0.00157144
0.00158452
0.00157115
0.00158414
0.00158171
0.00157249
0.00157111
0.00158125
0.00158446
0.001571
0.00158439
0.00157115
0.00158458
0.00157113
0.00160269
0.00160272
0.0015887
0.00158891
0.00158893
0.00160275
0.00158897
0.00157103
0.00158439
0.00158392
0.00157099
0.00157097
0.00158436
0.00158437
0.00157097
0.0015844
0.00158889
0.00159919
0.0016028
0.00159066
0.00160242
0.00159029
0.00158914
0.00158897
0.00160278
0.00160267
0.001589
0.00158899
0.00160294
0.0016027
0.00158917
0.0015842
0.0015816
0.00157263
0.00157101
0.00158138
0.0015843
0.00157101
0.00158422
0.00158181
0.00157268
0.0015711
0.00158141
0.00158449
0.00157104
0.00158439
0.00157097
0.00158442
0.00157099
0.00158441
0.00157103
0.00158457
0.001571
0.00160298
0.00158917
0.00160305
0.00158921
0.00158405
0.00157104
0.00157102
0.00158457
0.0015846
0.00157108
0.00158457
0.001571
0.0015846
0.00156741
0.00155448
0.00156738
0.00155434
0.00156738
0.00156738
0.00155441
0.00155448
0.00155441
0.0015368
0.00155011
0.0015366
0.00154992
0.00155009
0.00153684
0.00153668
0.00155013
0.00155002
0.00155442
0.00156725
0.00156699
0.00155458
0.00155433
0.00156712
0.00156379
0.00155606
0.00156667
0.0015545
0.00155559
0.00155434
0.00156704
0.00156372
0.00155592
0.00156664
0.00155458
0.00155557
0.00155021
0.00153702
0.00155019
0.00153737
0.00155022
0.00153705
0.00155028
0.00153738
0.00155011
0.00154809
0.00153727
0.00153988
0.0015502
0.00154767
0.00153779
0.00155013
0.00154813
0.00153734
0.00154
0.00155033
0.00154772
0.00153782
0.00156741
0.00156737
0.00155429
0.00155467
0.00155461
0.0015674
0.00155456
0.0015368
0.00155027
0.00155004
0.00153686
0.00153669
0.00155035
0.00155028
0.00153656
0.00155014
0.00155405
0.0015671
0.0015639
0.00155608
0.00156664
0.00155436
0.00155562
0.00155392
0.00156668
0.00156679
0.00155361
0.00155398
0.00156394
0.00156658
0.00155577
0.00156659
0.00155562
0.00155364
0.0015497
0.00153668
0.0015499
0.00153678
0.00154972
0.00154802
0.00153695
0.00153962
0.00155
0.00154758
0.00153714
0.00154961
0.0015362
0.00154925
0.00153669
0.00154962
0.00154747
0.00153941
0.00153633
0.00154747
0.00154922
0.00153702
0.00155405
0.00156713
0.00156679
0.00155439
0.00155398
0.00156393
0.00156661
0.00155586
0.00156653
0.00155562
0.00155361
0.00155395
0.00156671
0.00156676
0.00155359
0.00154975
0.00154804
0.00153702
0.00153973
0.00155016
0.00154761
0.00153722
0.00154976
0.00153669
0.00155006
0.00153679
0.00154966
0.00154749
0.00153947
0.00153623
0.00154749
0.00154919
0.00153706
0.00154965
0.00153607
0.0015492
0.00153667
0.00156655
0.00156652
0.00155405
0.00155342
0.00155331
0.0015665
0.00155327
0.00153598
0.00154906
0.00154954
0.00153595
0.00153579
0.00154903
0.00154889
0.00153575
0.00154884
0.00155358
0.00156413
0.00156654
0.00155588
0.00156651
0.00155571
0.00155334
0.00155342
0.00156651
0.00156653
0.0015533
0.00155341
0.00156652
0.00156654
0.00155322
0.00154913
0.00154736
0.00153909
0.00153594
0.00154734
0.00154894
0.00153627
0.00154912
0.00154738
0.00153911
0.00153582
0.00154738
0.00154885
0.00153626
0.00154902
0.00153578
0.00154888
0.00153597
0.00154901
0.00153565
0.00154877
0.00153595
0.00156661
0.00155339
0.00156648
0.00155314
0.00154956
0.00153579
0.00153561
0.00154891
0.00154872
0.00153579
0.00154897
0.00153559
0.00154869
0.00153222
0.00151835
0.00153204
0.00151836
0.00153226
0.0015321
0.00152049
0.00151845
0.00151839
0.00150005
0.00151369
0.00150025
0.00151378
0.00151559
0.00150016
0.00150026
0.0015138
0.00151382
0.00151908
0.00153247
0.0015329
0.00151853
0.0015198
0.00153269
0.00153214
0.00152339
0.00153333
0.00151903
0.001524
0.00151979
0.0015327
0.00153222
0.00152351
0.00153335
0.00151892
0.00152404
0.00151437
0.00150018
0.00151396
0.00150047
0.00151434
0.00149999
0.00151387
0.00150044
0.00151503
0.00151412
0.00150056
0.00150571
0.00151434
0.00151519
0.00150124
0.00151502
0.00151408
0.00150039
0.00150565
0.00151418
0.00151518
0.00150121
0.0015322
0.00153199
0.00152056
0.00151821
0.0015181
0.00153192
0.00151806
0.00149975
0.00151343
0.00151557
0.00149983
0.00149994
0.00151353
0.00151349
0.00149996
0.00151344
0.00151951
0.00153236
0.00153164
0.00152304
0.00153267
0.00151889
0.00152341
0.00151899
0.0015318
0.00153228
0.00151872
0.00151946
0.00153133
0.00153191
0.00152226
0.00153255
0.00152301
0.00151897
0.00151446
0.0015006
0.00151406
0.00150108
0.00151491
0.00151386
0.00150083
0.00150537
0.00151428
0.00151463