/*--------------------------------*- C++ -*----------------------------------*\
| =========                 |                                                 |
| \\      /  F ield         | OpenFOAM: The Open Source CFD Toolbox           |
|  \\    /   O peration     | Version:  2312                                  |
|   \\  /    A nd           | Website:  www.openfoam.com                      |
|    \\/     M anipulation  |                                                 |
\*---------------------------------------------------------------------------*/
FoamFile
{
    version     2.0;
    format      ascii;
    arch        "LSB;label=32;scalar=64";
    class       surfaceScalarField;
    location    "625";
    object      phi;
}
// * * * * * * * * * * * * * * * * * * * * * * * * * * * * * * * * * * * * * //

dimensions      [0 3 -1 0 0 0 0];

oriented        oriented;

internalField   nonuniform List<scalar> 
124041
(
-3.12615e-07
-3.11259e-07
3.9951e-07
3.21081e-07
0.00119028
-1.23674e-06
2.92943e-07
-1.39475e-08
0.00113877
-2.43407e-07
1.21576e-06
2.28471e-07
8.29492e-07
-2.53377e-07
-9.16459e-07
1.85221e-07
1.23245e-06
1.26039e-06
-2.55842e-07
-2.11099e-07
0.000269207
-3.89036e-07
-2.12414e-07
-0.00118971
2.04566e-07
5.60783e-07
0.00118955
-0.00113932
-1.28126e-06
-1.02393e-07
1.24277e-07
0.00113981
-2.98677e-07
1.17397e-06
1.72836e-07
8.00897e-07
-2.84807e-07
-9.44035e-07
1.50308e-07
-0.00113996
-1.25057e-06
-4.29705e-07
-4.31437e-08
0.00114074
-2.83457e-07
1.19648e-06
1.8131e-07
8.32957e-07
-2.5736e-07
-9.15804e-07
1.81058e-07
-0.000271454
1.25567e-06
1.22609e-06
-2.59159e-07
-2.72706e-07
0.000269505
1.86695e-07
-3.5691e-08
-0.00119056
-4.0413e-07
-6.9559e-07
0.00119151
-0.00114126
-1.25489e-06
4.782e-07
-1.13335e-07
0.00114147
-2.56987e-07
1.22463e-06
2.37543e-07
7.45283e-07
-3.56211e-07
-1.01302e-06
9.39524e-08
-0.00114151
-1.29175e-06
7.69329e-07
3.38687e-07
0.00114112
-2.93706e-07
1.18028e-06
1.92759e-07
7.54739e-07
-3.5294e-07
-1.00206e-06
9.61055e-08
-0.000271769
1.4144e-06
1.27328e-06
-2.73693e-07
-3.42215e-07
0.000269697
-3.23199e-08
-3.46498e-07
-0.00119445
1.82981e-07
-4.30595e-07
0.00119508
-0.00114138
-1.16542e-06
1.9359e-07
-4.18605e-07
0.00114101
-1.82545e-07
1.30078e-06
2.93178e-07
9.75558e-07
-1.44595e-07
-7.99277e-07
3.19895e-07
-0.00113902
-1.21223e-06
8.08262e-07
-7.10509e-08
0.00113822
-2.19422e-07
1.23871e-06
2.48658e-07
8.80057e-07
-2.23191e-07
-8.7275e-07
2.22249e-07
-0.000270984
1.33123e-06
1.2583e-06
-2.16573e-07
-2.27843e-07
0.000268839
-7.3416e-07
-1.05242e-07
-0.00119468
5.80293e-07
1.32973e-06
0.00119361
-0.00113764
-1.35894e-06
2.12808e-07
1.24867e-06
0.00113623
-3.58186e-07
1.08021e-06
1.0527e-07
9.9339e-07
-1.02509e-07
-7.22213e-07
3.11207e-07
-0.00113663
-1.23384e-06
-4.75362e-07
9.52593e-09
0.00113662
-2.39956e-07
1.20702e-06
2.23001e-07
9.98345e-07
-9.00037e-08
-7.38161e-07
3.42344e-07
-0.000270459
1.0039e-06
1.22966e-06
-2.18145e-07
-4.52439e-08
0.000268489
-3.75525e-07
-3.62488e-09
-0.00118967
3.44497e-08
1.27131e-06
0.00118874
-0.0011339
-1.20103e-06
-3.5908e-09
7.0303e-08
0.00113399
-1.82834e-07
1.25476e-06
2.99362e-07
7.74407e-07
-2.87076e-07
-9.41679e-07
1.30591e-07
-0.00113777
-1.16842e-06
-8.5391e-07
-4.86016e-08
0.00113824
-1.76308e-07
1.28259e-06
2.94942e-07
9.15042e-07
-1.60175e-07
-8.09107e-07
2.59812e-07
-0.000270944
1.18614e-06
1.10365e-06
-1.21867e-07
-1.97896e-07
0.000268974
1.12207e-06
4.67695e-08
-0.00118756
-8.32757e-08
-1.3119e-06
0.00118779
-0.00113701
-9.60053e-07
-3.81996e-07
-1.81784e-06
0.00113845
-2.23236e-08
1.46518e-06
4.16284e-07
8.3419e-07
-2.49817e-07
-9.15439e-07
1.96534e-07
-0.00113901
-1.12065e-06
4.60067e-07
-3.51131e-07
0.00113887
-1.53895e-07
1.32007e-06
3.05229e-07
7.91661e-07
-3.03865e-07
-9.53036e-07
1.38828e-07
-0.000270998
1.5355e-06
1.17109e-06
-2.06964e-07
-4.29164e-07
0.000268928
1.38808e-07
-1.33862e-07
-0.00119027
4.92069e-08
-1.10005e-06
0.00119131
-0.00114023
-1.39711e-06
2.33494e-07
8.63565e-07
0.00113966
-4.22668e-07
1.03868e-06
4.12917e-08
9.27747e-07
-1.69949e-07
-8.13496e-07
2.65067e-07
-0.00113683
-1.38896e-06
8.17283e-07
1.00228e-06
0.00113572
-4.01651e-07
1.03369e-06
5.35924e-08
8.7412e-07
-2.21295e-07
-8.62805e-07
2.10507e-07
-0.000270648
1.19576e-06
1.23376e-06
-2.61325e-07
-1.64617e-07
0.000268644
-7.85139e-07
-3.90383e-07
-0.00119335
6.54009e-07
6.5785e-07
0.00119321
-0.00113661
-1.27886e-06
4.43865e-07
4.23371e-07
0.0011359
-2.50642e-07
1.19372e-06
2.39176e-07
8.52708e-07
-2.30455e-07
-8.77599e-07
1.99761e-07
-0.0011331
-1.23163e-06
2.79944e-07
-7.91229e-08
0.00113296
-2.10307e-07
1.21535e-06
2.6007e-07
8.3783e-07
-2.32577e-07
-8.84559e-07
1.92558e-07
-0.000270611
1.1271e-06
1.27768e-06
-2.41336e-07
-1.03279e-07
0.000268551
-2.28028e-07
2.17104e-07
-0.00119046
1.65717e-07
9.28845e-07
0.00118937
-0.00113536
-1.16802e-06
-4.34608e-07
-2.31202e-08
0.00113537
-1.99314e-07
1.25183e-06
2.47003e-07
9.46709e-07
-1.36409e-07
-7.84992e-07
2.92066e-07
-0.00113432
-1.11184e-06
-7.07633e-07
-6.11263e-07
0.00113505
-1.44366e-07
1.30035e-06
2.94608e-07
9.2464e-07
-1.45183e-07
-8.03069e-07
2.79401e-07
-0.000270304
1.17108e-06
1.24035e-06
-2.37115e-07
-1.79827e-07
0.00026831
-4.20234e-07
2.15448e-07
-0.00118738
-4.7484e-07
8.73857e-07
0.00118719
-0.00113479
-1.2959e-06
5.78878e-08
7.26498e-07
0.00113447
-2.94513e-07
1.14686e-06
1.82481e-07
8.10261e-07
-2.66136e-07
-8.97542e-07
1.43641e-07
-0.00113743
-1.19631e-06
-7.88105e-07
-7.14383e-08
0.00113809
-2.18004e-07
1.2477e-06
2.54087e-07
8.94812e-07
-1.88751e-07
-8.29255e-07
2.33562e-07
-0.000270786
1.15736e-06
1.19268e-06
-2.06609e-07
-1.90318e-07
0.000268833
6.27976e-07
2.52946e-07
-0.00118834
-9.61963e-07
-7.84449e-07
0.00118921
-0.00113393
-1.02289e-06
9.80869e-07
-1.29384e-06
0.00113406
-3.34008e-08
1.41014e-06
4.18233e-07
7.10072e-07
-3.5767e-07
-1.02436e-06
7.9861e-08
-0.00113839
-1.1006e-06
8.68065e-07
-4.21205e-07
0.00113776
-1.29182e-07
1.33473e-06
3.25256e-07
8.0943e-07
-2.81462e-07
-9.31639e-07
1.60449e-07
-0.000270639
1.49267e-06
1.19665e-06
-1.72935e-07
-3.8061e-07
0.000268503
4.80511e-07
-8.36928e-07
-0.00119161
1.03739e-06
-1.01279e-06
0.00119194
-0.00113534
-1.22476e-06
-5.04739e-07
-4.82567e-07
0.00113588
-2.69529e-07
1.18518e-06
1.70989e-07
1.0102e-06
-6.42112e-08
-7.2888e-07
3.67345e-07
-0.00113424
-1.3761e-06
7.6469e-07
8.92893e-07
0.00113312
-3.85827e-07
1.03207e-06
5.38752e-08
8.94272e-07
-1.76859e-07
-8.28107e-07
2.45517e-07
-0.000269847
1.37651e-06
1.05245e-06
-1.25407e-07
-2.92175e-07
0.000267836
-5.36275e-07
-3.75736e-07
-0.00119046
1.42615e-06
4.72819e-07
0.00118947
-0.00113676
-1.34338e-06
-9.17796e-07
1.00792e-06
0.00113661
-3.51816e-07
1.10602e-06
1.25797e-07
9.95924e-07
-8.53092e-08
-7.17553e-07
3.26036e-07
-0.0011319
-1.2922e-06
-5.27531e-07
4.13829e-07
0.00113216
-2.8544e-07
1.14543e-06
1.83691e-07
8.82338e-07
-1.83763e-07
-8.28015e-07
2.29135e-07
-0.000270116
1.01102e-06
1.26133e-06
-2.84665e-07
-4.47507e-08
0.000268173
-2.51825e-07
8.7568e-07
-0.00118748
-9.95194e-07
5.08001e-07
0.00118734
-0.00113488
-1.18215e-06
3.87845e-07
4.58702e-07
0.00113417
-1.91472e-07
1.24967e-06
2.69404e-07
7.89874e-07
-2.8461e-07
-9.23102e-07
1.32524e-07
-0.00113387
-1.06085e-06
-4.03642e-07
-6.95822e-07
0.00113443
-9.07524e-08
1.35752e-06
3.55432e-07
8.57472e-07
-2.18895e-07
-8.63606e-07
2.05542e-07
-0.000270487
1.07725e-06
1.32542e-06
-2.92149e-07
-1.1548e-07
0.000268492
2.86676e-07
3.1738e-07
-0.00118809
-8.73447e-07
-1.14258e-07
0.00118847
-0.00113282
-1.16563e-06
4.96767e-07
-3.52467e-07
0.00113274
-1.76588e-07
1.253e-06
2.75214e-07
7.97227e-07
-2.71158e-07
-9.26314e-07
1.56212e-07
-0.00113505
-1.18403e-06
1.73469e-07
-8.3352e-08
0.00113487
-2.07621e-07
1.22959e-06
2.38652e-07
8.66197e-07
-2.0989e-07
-8.57207e-07
2.15367e-07
-0.000270435
1.33163e-06
1.1404e-06
-1.44653e-07
-2.89639e-07
0.000268397
1.10232e-07
-5.25653e-07
-0.00118907
6.27704e-07
-9.09273e-08
0.00118895
-0.00113329
-1.17194e-06
-2.14601e-07
-4.72309e-07
0.0011336
-1.90296e-07
1.25238e-06
2.63975e-07
9.16282e-07
-1.55752e-07
-8.07643e-07
2.68374e-07
-0.00113374
-1.22738e-06
2.37605e-07
1.18626e-07
0.00113338
-2.34215e-07
1.19684e-06
2.20082e-07
8.72564e-07
-1.98147e-07
-8.46451e-07
2.22951e-07
-0.000270133
1.34126e-06
1.11498e-06
-1.41806e-07
-2.68e-07
0.000268087
9.9258e-09
-6.37144e-09
-0.0011878
4.16332e-07
-7.18407e-09
0.00118739
-0.00113414
-1.18492e-06
-3.85661e-07
3.3288e-08
0.0011341
-2.13195e-07
1.23797e-06
2.41586e-07
9.38415e-07
-1.34477e-07
-7.76053e-07
2.82018e-07
-0.00113292
-1.16805e-06
-2.10535e-07
-1.47699e-07
0.00113296
-1.91217e-07
1.24812e-06
2.56591e-07
9.01806e-07
-1.66739e-07
-8.13321e-07
2.51128e-07
-0.000269954
1.17543e-06
1.22702e-06
-2.39166e-07
-1.61651e-07
0.000267952
6.15795e-08
4.11934e-07
-0.00118674
-4.50909e-07
-1.96156e-09
0.00118672
-0.00113344
-1.19962e-06
-1.83463e-08
1.55372e-07
0.00113319
-2.18952e-07
1.2209e-06
2.35359e-07
8.75715e-07
-1.91093e-07
-8.3582e-07
2.24799e-07
-0.0011333
-1.16913e-06
-2.70827e-07
-1.35948e-07
0.00113341
-1.95688e-07
1.24421e-06
2.5108e-07
9.00274e-07
-1.69083e-07
-8.1373e-07
2.48415e-07
-0.000270034
1.15587e-06
1.2195e-06
-2.21025e-07
-1.61122e-07
0.000268041
1.7512e-07
1.28559e-07
-0.00118693
-2.81639e-07
-1.0942e-07
0.00118702
-0.00113281
-1.18947e-06
1.55939e-08
-1.49241e-07
0.00113282
-2.07432e-07
1.2293e-06
2.44647e-07
8.67258e-07
-1.99633e-07
-8.48053e-07
2.19439e-07
-0.00113349
-1.19744e-06
-4.61735e-08
2.8855e-09
0.0011334
-2.17319e-07
1.21779e-06
2.30947e-07
8.83848e-07
-1.85614e-07
-8.32065e-07
2.33949e-07
-0.000270054
1.26571e-06
1.15315e-06
-1.70297e-07
-2.36159e-07
0.000268042
1.80852e-07
-6.93287e-08
-0.00118713
1.41819e-07
-2.13331e-07
0.00118709
-0.001133
-1.20579e-06
-1.63774e-07
-3.2612e-08
0.00113305
-2.27364e-07
1.21177e-06
2.23764e-07
8.9562e-07
-1.72826e-07
-8.19902e-07
2.45734e-07
-0.00113281
-1.22383e-06
2.08852e-08
1.80736e-07
0.00113259
-2.41049e-07
1.18856e-06
2.05209e-07
8.80981e-07
-1.86309e-07
-8.3245e-07
2.304e-07
-0.00027001
1.24402e-06
1.15299e-06
-1.82333e-07
-2.14787e-07
0.00026801
5.44592e-08
8.88724e-08
-0.00118668
1.11891e-07
-3.40426e-08
0.00118646
-0.00113297
-1.21812e-06
-2.26037e-07
1.72387e-07
0.00113291
-2.35162e-07
1.20155e-06
2.19443e-07
8.9583e-07
-1.7339e-07
-8.16053e-07
2.41584e-07
-0.00113221
-1.21022e-06
-1.71947e-07
9.10206e-08
0.00113221
-2.25153e-07
1.20342e-06
2.2356e-07
8.81345e-07
-1.86158e-07
-8.30104e-07
2.29421e-07
-0.000270082
1.17417e-06
1.18994e-06
-2.07139e-07
-1.65875e-07
0.000268091
-1.58161e-08
1.40373e-07
-0.00118569
-4.83601e-08
1.69485e-07
0.00118544
-0.00113269
-1.1673e-06
-9.79007e-08
-8.07652e-08
0.00113264
-1.82432e-07
1.25332e-06
2.71546e-07
8.7297e-07
-1.95195e-07
-8.38691e-07
2.2096e-07
-0.0011324
-1.15505e-06
-1.83955e-07
-1.83969e-07
0.00113248
-1.72589e-07
1.25902e-06
2.75188e-07
8.80792e-07
-1.8802e-07
-8.31528e-07
2.28697e-07
-0.000270131
1.20021e-06
1.2002e-06
-2.04933e-07
-1.84524e-07
0.00026812
1.51581e-07
1.55357e-07
-0.00118494
-1.61651e-07
-7.99783e-08
0.00118488
-0.00113245
-1.15016e-06
1.19625e-09
-2.40289e-07
0.0011324
-1.73945e-07
1.26318e-06
2.73162e-07
8.76981e-07
-1.8874e-07
-8.35765e-07
2.28174e-07
-0.0011325
-1.14639e-06
-2.8527e-08
-2.27322e-07
0.00113244
-1.70212e-07
1.26205e-06
2.71645e-07
8.80658e-07
-1.85151e-07
-8.31692e-07
2.31435e-07
-0.000270034
1.23531e-06
1.177e-06
-1.86597e-07
-2.08521e-07
0.000268016
1.94203e-07
1.61579e-07
-0.00118485
-1.59076e-07
-1.86023e-07
0.00118484
-0.00113226
-1.19457e-06
-1.18589e-07
-4.37664e-08
0.00113224
-2.18307e-07
1.21787e-06
2.29784e-07
8.91833e-07
-1.72895e-07
-8.1882e-07
2.41898e-07
-0.00113225
-1.19136e-06
-1.19516e-07
-2.71974e-08
0.00113221
-2.1564e-07
1.21594e-06
2.27146e-07
8.93643e-07
-1.71297e-07
-8.17446e-07
2.43848e-07
-0.000269983
1.21982e-06
1.17302e-06
-1.92191e-07
-2.01662e-07
0.000267984
1.15733e-07
9.88469e-08
-0.00118465
-3.96475e-08
-6.07988e-08
0.00118454
-0.00113225
-1.2e-06
-1.93696e-07
7.0249e-09
0.00113227
-2.19785e-07
1.21571e-06
2.31337e-07
8.91243e-07
-1.74072e-07
-8.18856e-07
2.40103e-07
-0.00113217
-1.20029e-06
-1.8875e-07
3.94153e-08
0.00113216
-2.20304e-07
1.20988e-06
2.25376e-07
8.92814e-07
-1.73099e-07
-8.17348e-07
2.40968e-07
-0.000270028
1.21339e-06
1.1716e-06
-1.91296e-07
-1.97202e-07
0.000268031
1.1846e-07
7.97288e-08
-0.00118416
-8.53209e-09
-7.96349e-08
-0.00113228
-1.18304e-06
-1.36091e-07
-4.95413e-08
-2.03494e-07
1.23199e-06
2.46594e-07
8.85582e-07
-1.80793e-07
-8.24914e-07
2.33996e-07
-0.00113207
-1.1832e-06
-1.00925e-07
-2.16743e-08
0.00113202
-2.02388e-07
1.22649e-06
2.42394e-07
8.80063e-07
-1.85605e-07
-8.29873e-07
2.28915e-07
-0.000270057
1.21533e-06
1.17528e-06
-1.92433e-07
-1.9598e-07
0.000268055
1.28475e-06
1.27211e-06
-2.54023e-07
-2.33552e-07
0.000269318
-1.24666e-06
-1.14185e-06
0.000271249
-0.000269201
1.48169e-07
1.92137e-07
1.66106e-07
0.00113858
-2.52698e-07
1.25034e-06
2.2454e-07
8.30096e-07
-2.54444e-07
-9.13239e-07
1.70857e-07
-1.24761e-06
2.93732e-07
-1.43268e-07
0.00113837
-2.14992e-07
1.28986e-06
2.75386e-07
8.16579e-07
-2.74604e-07
-9.42013e-07
1.61764e-07
0.00113802
5.29295e-07
-0.00113807
9.8958e-08
-1.28732e-06
2.17899e-07
-2.59383e-07
-9.99732e-07
9.4538e-08
-3.32479e-07
7.45563e-07
1.30141e-06
0.00113902
2.57195e-07
-0.00113868
-3.89489e-07
-1.22528e-06
2.60813e-07
-2.15407e-07
-9.70178e-07
1.46386e-07
-2.95592e-07
7.94931e-07
-2.39227e-07
-2.153e-07
0.000269236
-1.18421e-06
0.000271486
-0.000269396
1.73224e-07
2.21993e-07
3.33912e-07
0.00113949
-2.88356e-07
1.16646e-06
1.75086e-07
8.56149e-07
-2.32425e-07
-8.95369e-07
1.99855e-07
0.00113884
3.00578e-07
-0.00113887
4.76801e-07
-1.31255e-06
1.64197e-07
-3.14702e-07
-9.80944e-07
1.09377e-07
-3.18537e-07
7.64373e-07
1.32713e-06
0.00113947
-9.51723e-08
-0.00113869
-7.73101e-07
-1.18173e-06
2.77216e-07
-1.92219e-07
-9.31291e-07
1.94228e-07
-2.47374e-07
8.36942e-07
4.00934e-07
-1.14624e-07
0.00113783
-2.12522e-07
1.28578e-06
2.70097e-07
7.94594e-07
-2.74448e-07
1.49096e-07
-9.40731e-07
-3.75933e-08
-0.00113898
9.92072e-08
-1.27016e-06
1.89035e-07
-2.81701e-07
-9.31284e-07
1.65784e-07
8.13436e-07
-2.71331e-07
1.2879e-06
0.00113853
1.37654e-07
-0.00113806
-4.05337e-07
-1.22127e-06
2.52048e-07
-2.20155e-07
-9.56585e-07
1.51458e-07
-2.82643e-07
7.89643e-07
-1.22974e-06
0.000271663
-0.00026954
2.02942e-07
2.3118e-07
2.25469e-07
1.70282e-07
0.00113875
-2.71564e-07
1.17511e-06
2.00676e-07
8.42499e-07
-2.4488e-07
1.90232e-07
-9.05655e-07
-4.34521e-07
-0.00113914
-2.7033e-07
-1.21689e-06
2.21045e-07
-2.40338e-07
-9.06259e-07
2.00338e-07
8.44885e-07
-2.39843e-07
1.20487e-06
0.00113963
-1.73663e-07
-0.00113907
-3.36135e-08
-1.24255e-06
2.20117e-07
-2.5911e-07
-9.4614e-07
1.55848e-07
-2.82981e-07
8.04832e-07
-0.000269365
1.94745e-07
2.08859e-07
1.28529e-06
1.27994e-06
-2.90532e-07
-2.77679e-07
0.000269252
-1.22864e-06
-1.26529e-06
0.000271791
-0.000269685
2.2107e-07
1.67583e-07
-4.38138e-08
0.00113826
-2.60914e-07
1.24744e-06
2.15514e-07
7.41552e-07
-3.37077e-07
-1.00872e-06
9.60472e-08
-1.26212e-06
1.74007e-07
-2.27139e-07
0.00113944
-2.6216e-07
1.25701e-06
2.08404e-07
8.00228e-07
-2.91513e-07
-9.669e-07
1.49992e-07
0.00114054
-1.69019e-07
-0.00113966
-2.67249e-07
-1.31135e-06
1.93243e-07
-2.91399e-07
-9.56946e-07
1.6331e-07
-2.84062e-07
8.11107e-07
1.11539e-06
0.00114061
6.05794e-08
-0.00114031
5.48978e-07
-1.42131e-06
9.6475e-08
-4.00435e-07
-9.60317e-07
1.45829e-07
-2.97325e-07
8.0822e-07
-2.8924e-07
-2.59897e-07
0.000269492
-1.19349e-06
0.000271669
-0.000269642
1.85193e-07
9.57998e-08
1.79605e-07
0.00113914
-2.84238e-07
1.17878e-06
1.97777e-07
7.42662e-07
-3.4069e-07
-1.00784e-06
9.35443e-08
-1.25417e-06
-1.69187e-07
-3.73866e-07
0.00114021
-2.74148e-07
1.24774e-06
1.935e-07
8.51653e-07
-2.40444e-07
-9.15065e-07
1.98379e-07
0.00114163
-1.24337e-08
-0.00114069
-6.51969e-07
-1.19422e-06
2.65034e-07
-2.15774e-07
-9.93492e-07
1.36544e-07
-3.18664e-07
7.81548e-07
1.06251e-06
0.00114078
1.69074e-07
-0.00114092
1.01549e-06
-1.46847e-06
5.37539e-08
-4.43289e-07
-9.35067e-07
1.49049e-07
-2.86061e-07
8.25843e-07
-5.51481e-08
-3.20315e-07
0.0011392
-2.60793e-07
1.2499e-06
2.09114e-07
8.09128e-07
-2.6897e-07
1.64914e-07
-9.40995e-07
2.86468e-07
-0.00114088
2.71877e-08
-1.27983e-06
2.02407e-07
-2.9028e-07
-1.0066e-06
9.30421e-08
7.45782e-07
-3.50969e-07
1.12879e-06
0.00114091
-3.57999e-08
-0.00114057
4.24551e-07
-1.39664e-06
1.14141e-07
-3.7707e-07
-9.21673e-07
1.65334e-07
-2.71476e-07
8.30985e-07
-2.69896e-07
-2.69735e-07
0.000269698
-1.16226e-06
0.000271637
-0.000269672
1.75789e-07
8.37392e-08
-2.53177e-07
-1.63133e-07
0.00114038
-2.5223e-07
1.22221e-06
2.26316e-07
7.96206e-07
-2.94441e-07
1.4615e-07
-9.57604e-07
4.80422e-07
-0.00114161
3.92031e-07
-1.30757e-06
1.70489e-07
-3.16007e-07
-9.94884e-07
9.75742e-08
7.58673e-07
-3.47463e-07
1.19975e-06
0.00114213
2.51222e-07
-0.00114183
-5.70688e-08
-1.2521e-06
2.04219e-07
-2.80032e-07
-9.78559e-07
1.34924e-07
-3.18243e-07
7.89343e-07
-0.000269755
1.92844e-07
1.21411e-07
1.32623e-06
1.20188e-06
-2.33614e-07
-3.01287e-07
0.000269798
-1.21757e-06
-1.23287e-06
0.000271657
-0.0002697
2.54266e-07
2.39309e-07
-1.5921e-07
0.00114127
-3.00368e-07
1.22296e-06
1.90745e-07
8.40441e-07
-2.64849e-07
-9.30943e-07
1.84458e-07
-1.41925e-06
9.94607e-08
5.75781e-07
0.00114078
-3.80576e-07
1.13315e-06
1.27134e-07
8.09806e-07
-3.01567e-07
-9.61641e-07
1.44656e-07
0.00114145
-8.44067e-09
-0.00114175
4.34463e-07
-1.33992e-06
1.86938e-07
-3.08035e-07
-8.46356e-07
2.4587e-07
-2.02322e-07
9.21725e-07
1.28936e-06
0.00114078
-2.41624e-08
-0.00114087
2.86856e-08
-1.27297e-06
2.73431e-07
-2.31579e-07
-8.83806e-07
2.34189e-07
-2.27722e-07
8.99721e-07
-2.62817e-07
-3.58999e-07
0.000269617
-1.30804e-06
0.0002715
-0.000269494
3.0048e-07
2.91439e-07
-6.12895e-07
0.0011424
-2.21995e-07
1.26138e-06
2.60778e-07
8.12916e-07
-2.9591e-07
-9.65902e-07
1.61551e-07
-1.46763e-06
3.24454e-07
1.11678e-06
0.00114039
-4.28811e-07
1.07326e-06
7.47053e-08
8.12871e-07
-3.02455e-07
-9.49413e-07
1.35343e-07
0.0011426
2.95836e-07
-0.00114292
-3.9262e-08
-1.23694e-06
2.32339e-07
-2.53999e-07
-8.61658e-07
2.45759e-07
-2.10821e-07
9.14334e-07
1.20276e-06
0.00113858
4.2607e-07
-0.00113924
6.13753e-07
-1.33592e-06
2.08009e-07
-2.93534e-07
-9.15913e-07
1.76407e-07
-2.65997e-07
8.49236e-07
1.63792e-07
6.58076e-07
0.00114088
-3.8571e-07
1.11772e-06
1.08023e-07
8.28458e-07
-2.7982e-07
1.577e-07
-9.24736e-07
3.55314e-07
-0.00114153
-5.14693e-07
-1.16865e-06
3.07262e-07
-1.77087e-07
-8.81123e-07
2.45237e-07
8.94119e-07
-2.23253e-07
1.15188e-06
0.00113864
5.07146e-07
-0.0011397
1.0106e-06
-1.37864e-06
1.55092e-07
-3.39901e-07
-8.75307e-07
1.95205e-07
-2.39161e-07
8.7169e-07
-2.77831e-07
-3.76273e-07
0.000269532
-1.23659e-06
0.00027099
-0.000269045
2.53303e-07
2.41228e-07
5.19354e-07
1.20462e-07
0.00114204
-2.95515e-07
1.18151e-06
1.9011e-07
7.98011e-07
-3.12802e-07
1.40032e-07
-9.70023e-07
9.04286e-07
-0.00113981
-4.39259e-09
-1.2221e-06
2.47067e-07
-2.27007e-07
-9.15024e-07
1.88757e-07
8.42766e-07
-2.61885e-07
1.17878e-06
0.00113948
9.48048e-07
-0.00114065
5.06702e-07
-1.27259e-06
1.97492e-07
-2.85719e-07
-8.99651e-07
1.92567e-07
-2.52198e-07
8.57615e-07
-0.000269102
2.3378e-07
2.14141e-07
1.32387e-06
1.23917e-06
-1.9456e-07
-2.17818e-07
0.000269506
-1.37947e-06
-1.14789e-06
0.000270677
-0.000268747
2.25346e-07
3.72708e-07
5.30764e-07
0.0011408
-2.89284e-07
1.23444e-06
2.09288e-07
9.56018e-07
-1.69867e-07
-8.10506e-07
2.77124e-07
-1.23003e-06
-1.15013e-07
-4.23673e-08
0.00114049
-2.00529e-07
1.32337e-06
2.97306e-07
9.62107e-07
-1.68956e-07
-8.24675e-07
2.93068e-07
0.00113736
5.53777e-07
-0.00113864
-1.57777e-08
-1.16978e-06
3.57231e-07
-1.31338e-07
-7.77849e-07
2.75439e-07
-1.47902e-07
9.57783e-07
1.33659e-06
0.00113743
4.56497e-07
-0.00113877
1.80049e-07
-1.193e-06
3.12283e-07
-1.73903e-07
-7.48349e-07
2.9992e-07
-1.216e-07
9.93397e-07
-1.54755e-07
-1.5241e-07
0.000269411
-1.12378e-06
0.000270742
-0.00026883
2.07707e-07
3.40865e-07
1.68876e-07
0.00114188
-2.56106e-07
1.22657e-06
2.27832e-07
9.55833e-07
-1.7127e-07
-8.18133e-07
2.8351e-07
-1.27805e-06
4.06064e-07
3.2732e-07
0.00113791
-2.38271e-07
1.25826e-06
2.61776e-07
8.69455e-07
-2.42507e-07
-8.91472e-07
1.95902e-07
0.00113802
2.53384e-07
-0.00113943
9.0079e-07
-1.29028e-06
1.66408e-07
-2.99688e-07
-7.27671e-07
3.34737e-07
-9.45635e-08
1.01758e-06
1.4507e-06
0.0011366
2.62906e-07
-0.00113684
-8.8877e-07
-1.07716e-06
4.31518e-07
-5.63268e-08
-8.44169e-07
2.43969e-07
-1.89235e-07
9.06073e-07
5.55858e-07
8.36499e-07
0.00113747
-2.89809e-07
1.19925e-06
2.07123e-07
8.76387e-07
-2.26738e-07
2.00606e-07
-8.61523e-07
2.03499e-07
-0.00113907
9.54062e-07
-1.3111e-06
1.33325e-07
-3.2726e-07
-6.82614e-07
3.55591e-07
1.0444e-06
-6.38985e-08
1.45334e-06
0.0011353
4.73658e-07
-0.00113566
-8.74939e-07
-1.07196e-06
4.42976e-07
-4.23623e-08
-8.69239e-07
2.07814e-07
-2.18463e-07
8.60728e-07
-1.99649e-07
-2.01875e-07
0.000268901
-1.20738e-06
0.000270717
-0.000268695
2.36395e-07
3.99471e-07
9.66178e-07
4.81606e-07
0.0011382
-2.71912e-07
1.18457e-06
2.05295e-07
8.73591e-07
-2.33397e-07
2.07041e-07
-8.77377e-07
-3.74145e-08
-0.00113693
-2.14143e-08
-1.23219e-06
2.21952e-07
-2.39699e-07
-7.6565e-07
3.16139e-07
9.74424e-07
-1.20179e-07
1.18593e-06
0.00113577
8.74933e-08
-0.00113619
1.31904e-07
-1.24197e-06
2.19418e-07
-2.49234e-07
-7.98459e-07
2.87581e-07
-1.49058e-07
9.45358e-07
-0.000268443
2.24627e-07
3.98532e-07
1.12913e-06
1.31701e-06
-2.36254e-07
-9.26956e-08
0.000268559
-1.28442e-06
-1.18328e-06
0.000270368
-0.000268346
2.23574e-07
2.22108e-07
-2.76091e-07
0.00113617
-9.74662e-08
1.40644e-06
3.77829e-07
9.16497e-07
-1.7539e-07
-8.13055e-07
2.4428e-07
-1.18752e-06
7.39552e-07
1.31747e-07
0.00113605
-1.6314e-07
1.33831e-06
3.18874e-07
9.301e-07
-1.69722e-07
-8.01008e-07
2.46672e-07
0.00113406
6.21585e-07
-0.00113451
-2.30065e-07
-1.20946e-06
2.50854e-07
-1.97074e-07
-8.88479e-07
1.99422e-07
-2.19092e-07
8.40382e-07
1.29396e-06
0.00113347
7.74472e-07
-0.00113397
-2.07469e-07
-1.20361e-06
2.78774e-07
-1.83943e-07
-9.35827e-07
1.55777e-07
-2.6612e-07
7.99635e-07
-2.6357e-07
-1.2622e-07
0.000268585
-1.15563e-06
0.000270205
-0.000268193
2.01894e-07
2.36009e-07
1.03625e-06
0.00113678
-3.1644e-07
1.11924e-06
1.48772e-07
9.93469e-07
-1.06907e-07
-7.41206e-07
3.13585e-07
-1.03086e-06
1.45381e-07
-1.22647e-06
0.00113661
-1.90383e-08
1.48755e-06
4.569e-07
9.18039e-07
-1.68649e-07
-8.3107e-07
2.63704e-07
0.00113511
-1.11161e-07
-0.00113534
5.338e-07
-1.26007e-06
2.29179e-07
-2.47383e-07
-8.82311e-07
1.78135e-07
-2.32681e-07
8.39506e-07
1.39345e-06
0.00113739
-2.06869e-07
-0.0011371
-9.41994e-07
-1.09819e-06
3.45788e-07
-1.12e-07
-7.99731e-07
3.01876e-07
-1.25287e-07
9.46652e-07
3.28019e-07
-1.398e-06
0.00113532
1.21535e-08
1.50929e-06
4.8315e-07
8.75668e-07
-1.96765e-07
2.32675e-07
-8.58026e-07
4.66853e-08
-0.00113428
7.10025e-07
-1.29148e-06
2.04325e-07
-2.72605e-07
-8.98037e-07
1.59854e-07
8.11476e-07
-2.51063e-07
1.39696e-06
0.00113646
-2.88485e-07
-0.00113602
-1.11514e-06
-1.08116e-06
3.44142e-07
-1.00804e-07
-7.74191e-07
3.24996e-07
-1.01417e-07
9.61458e-07
-2.12991e-07
-5.56112e-08
0.000268721
-1.25568e-06
0.00027102
-0.000268953
2.75689e-07
3.06394e-07
-4.40567e-07
1.32473e-08
0.0011358
-2.34644e-07
1.20096e-06
2.36646e-07
9.77475e-07
-1.12455e-07
3.21436e-07
-7.65045e-07
-1.03574e-06
-0.0011373
2.05307e-08
-1.19232e-06
2.711e-07
-1.98487e-07
-7.6075e-07
3.09229e-07
9.63725e-07
-1.10667e-07
1.30608e-06
0.00113752
-1.11393e-06
-0.00113682
-3.31795e-07
-1.13414e-06
3.31168e-07
-1.44687e-07
-7.64585e-07
3.0683e-07
-1.1556e-07
9.66904e-07
-0.00026886
3.18236e-07
3.00882e-07
1.26725e-06
1.18646e-06
-1.86665e-07
-2.5633e-07
0.000268357
-1.154e-06
-1.45347e-06
0.000270906
-0.000268765
3.49147e-07
1.1748e-07
-3.084e-08
0.00113386
-2.51022e-07
1.22791e-06
1.99992e-07
8.45671e-07
-2.1426e-07
-8.865e-07
2.06119e-07
-1.21313e-06
4.90387e-07
-3.4676e-07
0.00113338
-1.9306e-07
1.2856e-06
2.70013e-07
8.10368e-07
-2.56339e-07
-9.3309e-07
1.71788e-07
0.00113537
-8.60677e-07
-0.00113449
2.46091e-07
-1.3592e-06
1.25169e-07
-3.3943e-07
-8.33474e-07
2.51722e-07
-1.70282e-07
9.05185e-07
1.22398e-06
0.001136
-1.06739e-06
-0.0011347
-3.70775e-07
-1.27469e-06
1.82615e-07
-2.76879e-07
-8.12176e-07
2.9283e-07
-1.40394e-07
9.45375e-07
-2.05228e-07
-2.19481e-07
0.000268215
-1.49928e-06
0.000271067
-0.000268876
3.8084e-07
1.51345e-07
6.09467e-08
0.00113514
-1.75454e-07
1.26372e-06
3.04922e-07
7.87314e-07
-2.84372e-07
-9.38447e-07
1.31817e-07
-1.17805e-06
-2.7023e-07
-5.01314e-07
0.00113764
-1.92683e-07
1.31006e-06
2.64703e-07
9.46768e-07
-1.25867e-07
-7.99606e-07
2.99509e-07
0.00113698
3.55927e-08
-0.0011361
-1.43262e-06
-9.8087e-07
4.36969e-07
-1.38796e-08
-9.8088e-07
1.33003e-07
-3.08857e-07
7.73363e-07
1.05781e-06
0.00113789
-5.12243e-07
-0.0011379
1.06169e-06
-1.43885e-06
3.34262e-08
-4.362e-07
-8.07831e-07
2.68255e-07
-1.53896e-07
9.38247e-07
-4.53015e-07
-4.93656e-07
0.0011368
-2.08318e-07
1.28606e-06
2.35005e-07
9.80629e-07
-8.30588e-08
3.37748e-07
-7.52348e-07
-3.58612e-07
-0.00113564
-1.80626e-06
-9.43052e-07
4.71448e-07
2.00091e-08
-9.44635e-07
1.66744e-07
8.0015e-07
-2.74454e-07
9.805e-07
0.00113673
-4.78745e-07
-0.00113693
1.55096e-06
-1.50665e-06
-3.2787e-08
-4.98718e-07
-8.03447e-07
2.40798e-07
-1.62082e-07
9.10644e-07
-1.67416e-07
-1.89957e-07
0.000269031
-1.3425e-06
0.000271172
-0.000269155
3.0625e-07
7.64483e-08
-8.98113e-07
-3.92306e-07
0.00113812
-1.22311e-07
1.33486e-06
3.49637e-07
9.24638e-07
-1.58541e-07
2.64398e-07
-8.06634e-07
1.42159e-07
-0.00113891
-3.83683e-07
-1.1049e-06
3.31128e-07
-1.33603e-07
-9.41124e-07
1.43877e-07
7.98103e-07
-2.91985e-07
1.29129e-06
0.00113842
3.65426e-07
-0.00113861
-1.16022e-07
-1.1297e-06
2.8758e-07
-1.72038e-07
-9.50679e-07
1.26724e-07
-3.01736e-07
7.85691e-07
-0.00026902
2.65324e-07
2.84824e-08
1.3566e-06
9.94822e-07
-1.09881e-07
-3.32265e-07
0.000268996
-1.25979e-06
-1.19584e-06
0.000271427
-0.00026939
1.65839e-07
2.53159e-07
2.34799e-07
0.0011365
-3.43329e-07
1.16265e-06
1.30145e-07
9.10376e-07
-1.72737e-07
-8.26726e-07
2.48725e-07
-1.3174e-06
-1.38064e-06
-1.15522e-07
0.00113746
-3.28288e-07
1.18346e-06
1.3959e-07
9.68141e-07
-1.26992e-07
-7.85271e-07
3.02392e-07
0.00113928
-5.62857e-07
-0.00113866
5.32561e-08
-1.28865e-06
2.40868e-07
-2.54842e-07
-8.85207e-07
1.94416e-07
-2.40364e-07
8.63834e-07
1.19495e-06
0.00113993
-5.08215e-07
-0.00113964
5.43258e-07
-1.35129e-06
1.81112e-07
-3.24471e-07
-8.70334e-07
1.98176e-07
-2.33586e-07
8.81324e-07
-8.525e-08
-3.13697e-07
0.000269188
-1.13402e-06
0.000271483
-0.0002695
1.3173e-07
2.15135e-07
-1.51111e-06
0.00113801
-5.10629e-08
1.42657e-06
3.92622e-07
8.122e-07
-2.76113e-07
-9.46776e-07
1.69726e-07
-1.48392e-06
-4.96191e-07
1.37213e-06
0.00113777
-4.66557e-07
1.02596e-06
1.47209e-08
9.17969e-07
-1.80778e-07
-8.25386e-07
2.41061e-07
0.00114014
-1.29262e-08
-0.00113975
-4.11609e-07
-1.23628e-06
1.86175e-07
-2.78094e-07
-8.40477e-07
2.64047e-07
-1.80957e-07
9.21554e-07
1.1476e-06
0.00113646
2.80192e-07
-0.0011371
1.05217e-06
-1.38426e-06
1.60407e-07
-3.43864e-07
-9.2899e-07
1.31443e-07
-2.93328e-07
8.13655e-07
-3.02445e-07
1.75813e-06
0.00113643
-5.09018e-07
9.68769e-07
-2.77933e-08
8.50685e-07
-2.2567e-07
1.78499e-07
-8.62204e-07
5.12892e-08
-0.00114024
1.48797e-07
-1.29287e-06
1.14201e-07
-3.40758e-07
-8.23955e-07
2.66645e-07
9.25786e-07
-1.75557e-07
1.23304e-06
0.00113589
2.50542e-07
-0.00113593
3.43402e-07
-1.30173e-06
2.54646e-07
-2.48379e-07
-9.86126e-07
8.6996e-08
-3.41875e-07
7.48752e-07
-1.58647e-07
-3.93257e-07
0.00026912
-1.09957e-06
0.000270651
-0.000268732
1.25982e-07
2.02215e-07
7.25592e-07
1.08214e-08
0.00113802
-2.11727e-07
1.24806e-06
2.48332e-07
7.59349e-07
-3.29391e-07
1.02507e-07
-9.79788e-07
8.43767e-07
-0.00113778
6.35461e-07
-1.31915e-06
9.98729e-08
-3.48123e-07
-8.86602e-07
2.01475e-07
8.59092e-07
-2.40114e-07
1.18962e-06
0.00113678
8.319e-07
-0.00113707
-1.7695e-07
-1.24058e-06
2.14838e-07
-2.57205e-07
-9.47783e-07
1.57268e-07
-2.89504e-07
8.05441e-07
-0.000268654
1.79748e-07
2.4939e-07
1.25587e-06
1.30527e-06
-2.96482e-07
-1.92291e-07
0.000269355
-1.34306e-06
-1.10645e-06
0.000270676
-0.000268764
1.88662e-07
3.48358e-07
2.46753e-08
0.00113943
-2.18308e-07
1.2921e-06
2.74821e-07
8.50566e-07
-2.55165e-07
-9.01893e-07
1.832e-07
-1.30632e-06
1.16392e-07
5.15522e-07
0.00113961
-2.72074e-07
1.24294e-06
2.33584e-07
8.33672e-07
-2.78457e-07
-9.18367e-07
1.56029e-07
0.00113713
7.98273e-07
-0.00113823
5.45046e-08
-1.19251e-06
3.24288e-07
-1.5416e-07
-8.89306e-07
1.92943e-07
-2.38772e-07
8.57611e-07
1.34681e-06
0.00113654
1.18023e-06
-0.00113766
-1.02972e-07
-1.17881e-06
3.36469e-07
-1.43513e-07
-9.59605e-07
1.42406e-07
-2.97074e-07
7.97817e-07
-3.48165e-07
-2.19181e-07
0.000269346
-1.0959e-06
0.000270518
-0.000268587
1.85142e-07
3.26152e-07
5.67553e-08
0.00114009
-3.31202e-07
1.13451e-06
1.39951e-07
9.348e-07
-1.67702e-07
-8.23201e-07
2.7422e-07
-1.30773e-06
6.96827e-07
6.73912e-07
0.00113561
-2.64433e-07
1.22181e-06
2.37581e-07
7.79993e-07
-3.24558e-07
-9.61916e-07
9.93152e-08
0.00113764
4.75652e-07
-0.00113872
7.85211e-07
-1.34543e-06
1.3516e-07
-3.42333e-07
-8.03561e-07
2.79538e-07
-1.52083e-07
9.42643e-07
1.37619e-06
0.00113306
1.09781e-06
-0.00113373
-5.90371e-07
-1.12423e-06
3.77694e-07
-9.18617e-08
-9.68924e-07
1.25328e-07
-3.06531e-07
7.77328e-07
2.73804e-07
-3.05762e-07
0.00113599
-1.49973e-07
1.33276e-06
3.43363e-07
7.7505e-07
-3.18476e-07
1.20623e-07
-9.69439e-07
5.26941e-07
-0.0011376
9.66036e-07
-1.37605e-06
1.49056e-07
-3.44423e-07
-8.6545e-07
2.03261e-07
8.61278e-07
-2.22643e-07
1.39759e-06
0.00113576
2.5567e-07
-0.00113602
-6.9268e-07
-1.09825e-06
3.7372e-07
-8.82954e-08
-8.3647e-07
2.418e-07
-1.85208e-07
8.99067e-07
-3.41821e-07
-2.25945e-07
0.000268522
-1.12935e-06
0.000270005
-0.000268017
1.85759e-07
3.32192e-07
5.75937e-07
-3.43264e-07
0.00113667
-2.47559e-07
1.19886e-06
2.2466e-07
8.59288e-07
-2.36523e-07
2.13667e-07
-8.97147e-07
5.05209e-07
-0.00113367
4.56323e-07
-1.32059e-06
1.8491e-07
-2.9104e-07
-8.81322e-07
1.8592e-07
8.38812e-07
-2.36262e-07
1.16957e-06
0.00113621
-4.08491e-09
-0.00113648
1.68925e-08
-1.25131e-06
1.85189e-07
-2.76307e-07
-7.5917e-07
3.22891e-07
-1.06628e-07