/*--------------------------------*- C++ -*----------------------------------*\
| =========                 |                                                 |
| \\      /  F ield         | OpenFOAM: The Open Source CFD Toolbox           |
|  \\    /   O peration     | Version:  2312                                  |
|   \\  /    A nd           | Website:  www.openfoam.com                      |
|    \\/     M anipulation  |                                                 |
\*---------------------------------------------------------------------------*/
FoamFile
{
    version     2.0;
    format      ascii;
    arch        "LSB;label=32;scalar=64";
    class       volVectorField;
    location    "625";
    object      U;
}
// * * * * * * * * * * * * * * * * * * * * * * * * * * * * * * * * * * * * * //

dimensions      [0 1 -1 0 0 0 0];

internalField   nonuniform List<vector> 
42973
(
(4.53738e-05 3.89175e-05 0.113069)
(-1.6683e-05 1.92127e-07 0.108121)
(-5.5254e-05 -3.43801e-05 0.104635)
(1.08459e-05 3.6833e-05 0.112999)
(-8.70899e-06 1.48676e-05 0.108193)
(3.90542e-06 6.03843e-06 0.108285)
(-5.24579e-05 -5.07061e-05 0.10473)
(-2.81952e-05 -5.22419e-05 0.113132)
(-6.31455e-05 -2.54404e-07 0.108371)
(3.07301e-05 -7.4639e-05 0.108379)
(-6.17096e-05 -9.59046e-05 0.104821)
(4.66938e-05 1.97538e-06 0.113497)
(4.85572e-07 -1.69753e-05 0.108359)
(4.40824e-06 -3.56645e-05 0.108118)
(-4.40562e-05 -5.47103e-05 0.104506)
(5.13616e-05 0.000120698 0.113441)
(2.87383e-05 9.46655e-05 0.107941)
(1.02067e-05 5.65233e-05 0.107921)
(-4.44046e-05 4.06727e-05 0.104347)
(-4.55783e-06 7.46704e-05 0.112955)
(-4.48955e-06 -1.41439e-05 0.10765)
(-1.75678e-05 4.58174e-05 0.10806)
(-3.46731e-06 -2.10001e-05 0.104538)
(-2.01275e-05 -0.000136673 0.112809)
(2.96023e-06 -0.000133884 0.108025)
(-3.89127e-05 -4.21675e-05 0.108154)
(-2.39449e-05 -0.000131554 0.104535)
(1.40816e-05 -5.60222e-05 0.113114)
(-1.16836e-05 8.98107e-05 0.108243)
(9.17408e-05 -3.06222e-05 0.107898)
(-5.31167e-05 -2.24809e-05 0.104411)
(7.24173e-05 0.000102543 0.113362)
(-1.97399e-05 2.99623e-05 0.107873)
(1.78445e-06 -1.01243e-05 0.107577)
(-5.52348e-05 9.43078e-06 0.104392)
(-8.2016e-06 5.30496e-05 0.113026)
(4.19886e-05 -7.20009e-06 0.107798)
(-4.69747e-05 4.15743e-05 0.107742)
(-4.93109e-05 -1.67957e-05 0.104288)
(-4.6274e-05 4.80049e-05 0.112774)
(-9.57134e-06 4.42443e-05 0.107727)
(-9.4214e-06 3.38091e-05 0.108041)
(-3.4592e-05 -1.58544e-05 0.10448)
(-5.74234e-05 -7.11606e-05 0.112919)
(-7.82797e-05 -9.9058e-05 0.107662)
(-3.89669e-05 -6.2436e-05 0.108076)
(-2.51582e-05 -0.000111254 0.104388)
(0.00011367 -5.93594e-05 0.113215)
(5.15382e-05 -4.75331e-06 0.107821)
(8.2646e-05 -1.2445e-05 0.107642)
(1.30229e-05 -7.93002e-05 0.10411)
(8.29779e-05 5.31664e-05 0.113034)
(6.47225e-05 7.52103e-05 0.107928)
(3.47774e-05 3.76672e-05 0.107486)
(-6.16937e-05 3.77704e-05 0.10423)
(-0.00010571 3.42193e-05 0.112786)
(-3.14063e-05 7.32345e-06 0.107715)
(-6.32227e-05 9.70186e-06 0.107696)
(-7.726e-05 1.61661e-05 0.104361)
(-5.66033e-05 -1.98942e-05 0.112875)
(-3.1907e-05 -2.61487e-05 0.107547)
(-6.45434e-06 -1.34077e-05 0.107774)
(-1.07868e-05 -6.6007e-05 0.10433)
(6.76301e-05 -7.27141e-06 0.112949)
(1.97068e-05 -2.23389e-05 0.107614)
(1.17086e-05 -6.89044e-06 0.107635)
(-2.85926e-06 -6.57956e-05 0.104214)
(1.7265e-05 -3.22966e-06 0.112807)
(3.17415e-05 -3.19803e-07 0.107682)
(-1.27033e-05 2.24021e-05 0.107577)
(-4.44447e-05 -1.32236e-05 0.104156)
(-4.78043e-05 -4.2761e-06 0.112726)
(6.48202e-06 2.67057e-06 0.107601)
(-1.35762e-05 2.02124e-05 0.107619)
(-4.1591e-05 -8.54709e-06 0.10419)
(-1.95918e-05 -1.40782e-05 0.112751)
(2.9678e-06 -9.80984e-06 0.107553)
(-1.01399e-06 5.94318e-06 0.107628)
(-1.78589e-05 -4.39067e-05 0.104195)
(1.3637e-05 -1.91969e-05 0.112765)
(1.50705e-05 1.11351e-06 0.107575)
(1.35174e-05 6.00882e-06 0.107555)
(-1.97541e-05 -3.70794e-05 0.104181)
(-1.09992e-07 -3.87979e-06 0.112713)
(1.73309e-05 1.09946e-05 0.107567)
(6.06454e-06 1.45687e-05 0.107508)
(-3.22647e-05 -1.37886e-05 0.10421)
(-1.24485e-05 7.38266e-06 0.112616)
(6.40587e-06 -1.24687e-05 0.10754)
(-1.84995e-05 1.04871e-05 0.107532)
(-3.35109e-05 -2.13954e-05 0.104225)
(-1.66666e-05 -1.29874e-05 0.112553)
(4.21278e-06 -2.16897e-05 0.107518)
(-2.16749e-05 5.28881e-06 0.107534)
(-2.49089e-05 -3.27224e-05 0.104187)
(-1.59467e-05 -1.96014e-05 0.112549)
(1.43148e-05 -3.05348e-06 0.107501)
(-2.84209e-06 1.48308e-05 0.107511)
(-2.53995e-05 -2.88022e-05 0.104172)
(-7.86484e-06 -9.85807e-06 0.112525)
(1.61129e-05 -1.29474e-07 0.107502)
(1.82662e-06 1.62976e-05 0.107505)
(-2.53738e-05 -2.68387e-05 0.104191)
(-5.43874e-06 -1.08985e-05 0.112478)
(1.12936e-05 -6.24742e-06 0.107503)
(-4.87197e-06 9.06104e-06 0.107494)
(-2.61138e-05 -2.70629e-05 0.104201)
(4.39999e-05 5.3318e-05 0.104663)
(-3.27089e-05 -1.29654e-05 0.104759)
(1.42965e-05 2.07933e-05 0.108165)
(1.13298e-05 2.20835e-05 0.108123)
(2.46735e-06 4.4079e-05 0.108095)
(2.83928e-05 2.7062e-05 0.108169)
(-3.71345e-05 4.58735e-05 0.104629)
(4.77992e-05 -2.26603e-05 0.104853)
(1.40014e-05 2.84575e-05 0.108162)
(2.90427e-05 3.19737e-05 0.108077)
(4.55636e-06 5.01534e-05 0.108204)
(-3.0354e-05 1.3231e-05 0.108125)
(-6.34947e-06 9.69304e-06 0.108152)
(-1.7923e-05 2.95604e-05 0.10816)
(-3.57344e-05 5.28027e-05 0.104926)
(-1.69174e-05 -1.0321e-05 0.108119)
(-1.43732e-05 1.27096e-05 0.108205)
(2.41395e-06 -2.89195e-06 0.108167)
(3.21516e-05 4.41875e-05 0.104859)
(5.3864e-05 6.69343e-05 0.10462)
(-1.7205e-05 -4.50089e-05 0.104975)
(-5.01044e-06 3.79894e-05 0.108103)
(1.05669e-05 2.32131e-05 0.108206)
(-5.21217e-06 1.24862e-05 0.108299)
(-5.55188e-05 2.35401e-05 0.108329)
(-4.65388e-05 6.53043e-05 0.104718)
(-1.36897e-05 -2.70221e-05 0.104949)
(3.07424e-05 1.01251e-05 0.108089)
(2.8343e-07 1.35077e-05 0.108281)
(2.8815e-05 -3.71211e-05 0.108307)
(2.84581e-05 -9.11193e-05 0.10838)
(-7.36522e-06 1.57284e-05 0.108217)
(-4.90366e-05 9.50905e-06 0.108343)
(-2.03311e-05 -5.08902e-05 0.108407)
(5.70575e-05 -4.82762e-05 0.104798)
(-2.29812e-05 -2.29556e-05 0.104956)
(1.04412e-05 -5.49968e-06 0.108232)
(3.44965e-05 -6.20811e-05 0.108405)
(-5.87809e-06 -4.89265e-05 0.108432)
(3.19481e-05 -5.24481e-06 0.10501)
(7.3394e-05 4.56056e-05 0.104821)
(-3.66521e-05 -5.2182e-05 0.104955)
(4.95814e-06 1.56205e-05 0.10838)
(-5.53348e-05 3.094e-05 0.10835)
(4.78301e-05 1.3281e-05 0.108448)
(-1.02437e-05 1.34497e-05 0.108363)
(-0.000100507 5.78373e-05 0.104767)
(5.99447e-05 -7.30477e-05 0.104889)
(3.37832e-05 -3.03631e-05 0.108391)
(3.94502e-05 -9.65476e-05 0.108352)
(2.60193e-05 1.44718e-05 0.108466)
(3.45079e-05 -4.95922e-05 0.10819)
(-3.43083e-05 -6.91376e-05 0.108422)
(-2.6551e-05 -2.63143e-05 0.108379)
(-3.20715e-05 -8.01483e-05 0.108255)
(6.40426e-05 -0.000109702 0.104752)
(-5.41522e-05 3.69656e-05 0.104703)
(-2.18707e-05 -6.05851e-05 0.108442)
(7.23566e-06 -5.12556e-05 0.108195)
(-4.32724e-05 -5.14436e-05 0.108246)
(4.23654e-05 2.50041e-05 0.104725)
(5.05589e-05 3.83285e-05 0.104738)
(-9.93789e-05 -3.537e-05 0.104562)
(4.86908e-05 2.96105e-06 0.108403)
(-2.46006e-06 -4.40519e-06 0.10835)
(-1.40669e-05 6.37191e-06 0.108097)
(-4.66352e-06 -9.00351e-07 0.108104)
(-2.32083e-05 1.73523e-05 0.104696)
(8.61907e-05 -2.5819e-05 0.104597)
(1.3766e-05 2.56201e-05 0.108417)
(2.89627e-05 -2.3984e-05 0.108125)
(-2.53998e-05 6.64255e-05 0.108071)
(9.17683e-06 7.26592e-05 0.107975)
(-2.8674e-05 -5.92266e-05 0.108144)
(3.31471e-05 7.72732e-05 0.108083)
(-1.99881e-05 7.56147e-05 0.107889)
(3.31691e-05 -4.11795e-05 0.104509)
(-4.16616e-05 0.000114319 0.104572)
(-3.98119e-05 -4.25449e-05 0.108125)
(1.1598e-05 3.13873e-05 0.107936)
(-1.89122e-05 2.40504e-05 0.107842)
(3.75472e-05 0.000117 0.104481)
(-1.65134e-05 5.61835e-05 0.104377)
(-4.66852e-05 -3.61985e-05 0.104413)
(-3.50789e-05 1.64103e-05 0.107975)
(2.19453e-06 1.59783e-05 0.107967)
(-2.1174e-05 9.32817e-06 0.10774)
(2.44164e-05 2.50897e-05 0.107675)
(-6.71774e-07 6.74938e-05 0.104402)
(5.26729e-05 -2.66246e-05 0.104355)
(-3.1972e-05 7.42304e-05 0.107939)
(-2.44066e-06 9.6762e-05 0.107964)
(-1.48618e-05 2.56091e-05 0.107734)
(-3.24808e-05 7.25482e-05 0.108031)
(-8.09107e-06 0.000111701 0.107874)
(5.81189e-06 3.7692e-05 0.107666)
(4.06742e-05 8.13137e-05 0.107972)
(4.2871e-05 3.46181e-05 0.104431)
(-5.60755e-05 8.14681e-05 0.10468)
(-8.03261e-06 5.36196e-05 0.107825)
(-6.77995e-06 6.7092e-05 0.108014)
(3.3774e-05 6.85078e-05 0.107966)
(7.3548e-05 8.09319e-05 0.104657)
(4.38394e-05 2.96899e-05 0.104288)
(5.06148e-06 -0.000109235 0.104606)
(-2.76781e-06 -1.80064e-06 0.107707)
(3.10306e-05 1.20208e-05 0.107645)
(2.92443e-05 -5.8066e-05 0.107798)
(1.20476e-05 -7.06863e-05 0.107833)
(-2.92667e-05 3.54659e-05 0.104236)
(1.37707e-05 -0.00012055 0.104666)
(5.79562e-06 -1.51444e-05 0.107724)
(-3.58238e-05 3.69666e-05 0.108058)
(2.14049e-05 -0.000120002 0.10786)
(-4.26672e-05 -8.8363e-05 0.108095)
(5.2706e-05 3.08921e-05 0.108011)
(3.8148e-13 -0.000143585 0.107884)
(3.89124e-05 -0.000126481 0.10803)
(2.2675e-05 -1.73261e-05 0.104551)
(-8.26174e-05 -2.61098e-05 0.104755)
(4.39746e-05 4.7039e-05 0.108032)
(-4.61585e-05 -2.79296e-05 0.108155)
(2.56957e-05 -3.96838e-05 0.1081)
(6.81641e-05 -4.77546e-05 0.104703)
(8.19591e-05 -2.31901e-05 0.10451)
(-4.30669e-05 -2.37871e-05 0.104842)
(3.05555e-05 -6.4319e-05 0.107899)
(-1.15362e-05 -8.29712e-05 0.107971)
(1.29323e-05 2.8301e-06 0.1082)
(-4.89762e-05 3.76208e-06 0.108275)
(-7.20033e-05 -3.36127e-05 0.104585)
(2.58567e-05 -7.02722e-06 0.104882)
(1.27232e-05 -0.000114877 0.107956)
(-3.65534e-05 -0.000110364 0.10809)
(5.968e-06 -4.42291e-06 0.108198)
(3.21969e-05 -7.7619e-05 0.107992)
(1.79487e-05 -0.000137534 0.108005)
(-9.68721e-06 3.50744e-05 0.108273)
(-4.48942e-05 -2.31387e-05 0.107936)
(6.8821e-06 -0.000114982 0.104594)
(-5.406e-06 2.02026e-05 0.104571)
(1.14133e-05 -5.77877e-05 0.10807)
(6.04564e-05 -3.77565e-05 0.107999)
(1.48674e-07 -4.93479e-05 0.107938)
(2.93115e-05 4.31949e-05 0.104563)
(3.49476e-05 7.13828e-05 0.104673)
(-8.35186e-05 -1.54024e-05 0.104564)
(7.37042e-06 2.88187e-05 0.108239)
(-3.77041e-05 4.25762e-05 0.108273)
(-5.60917e-06 5.18277e-05 0.108071)
(1.91083e-05 7.67714e-05 0.108002)
(-4.9317e-05 9.32958e-05 0.104688)
(8.2141e-05 -1.15259e-05 0.104504)
(8.59255e-06 3.41851e-05 0.108216)
(5.98776e-05 -4.4394e-05 0.10792)
(7.20485e-06 7.22287e-05 0.108023)
(7.06964e-05 4.94181e-05 0.107657)
(-4.43708e-05 2.49221e-05 0.107941)
(-2.26781e-05 7.67154e-05 0.107957)
(-1.80799e-05 5.27731e-05 0.107943)
(8.92339e-05 -4.96584e-05 0.104379)
(-1.77399e-05 8.85337e-05 0.104292)
(4.82357e-06 -2.6564e-05 0.107921)
(4.46921e-05 -1.99572e-05 0.107611)
(-2.48591e-05 2.22465e-05 0.107892)
(2.96706e-05 9.63432e-05 0.104546)
(-1.07004e-06 6.33553e-05 0.104374)
(-5.82812e-05 -2.36803e-05 0.104353)
(-1.18283e-05 3.85833e-05 0.107959)
(3.01827e-05 5.40158e-05 0.107902)
(-1.40541e-05 -8.32988e-06 0.107698)
(3.00502e-05 -3.94728e-05 0.107785)
(-2.21545e-06 5.52869e-05 0.104329)
(6.24391e-05 -7.05811e-05 0.104464)
(-2.62222e-06 6.37352e-05 0.107915)
(4.1964e-05 6.1352e-05 0.107609)
(-3.17281e-05 4.30546e-05 0.107677)
(-3.53458e-05 5.83381e-05 0.107672)
(-1.3139e-05 3.59188e-05 0.107906)
(3.04435e-05 -3.05703e-05 0.107795)
(-4.02959e-06 1.99153e-05 0.107768)
(4.57279e-05 9.0722e-06 0.104164)
(-7.36678e-05 6.66794e-05 0.104434)
(-4.2065e-05 2.4942e-05 0.107857)
(-5.85516e-05 3.04906e-05 0.107677)
(-3.82498e-05 2.21437e-05 0.107741)
(2.1753e-05 5.80716e-05 0.10442)
(2.50334e-05 5.53292e-05 0.104219)
(-4.22739e-05 -1.50473e-05 0.104373)
(-1.2155e-05 -7.57742e-06 0.107661)
(2.04092e-05 -4.20466e-05 0.107788)
(-2.81569e-05 3.14297e-05 0.107642)
(-2.63958e-05 5.29446e-06 0.107749)
(-2.04952e-05 1.68699e-05 0.104335)
(2.2569e-05 -1.05516e-05 0.104427)
(-2.8741e-05 4.15894e-05 0.107647)
(-3.78929e-05 5.8977e-05 0.107737)
(5.15985e-06 2.70522e-05 0.107645)
(-2.63849e-05 4.0236e-05 0.107964)
(2.49729e-06 3.92817e-05 0.107755)
(1.66395e-05 5.89171e-05 0.107757)
(2.1285e-05 7.22732e-05 0.107889)
(7.25358e-06 -9.56449e-06 0.104339)
(-3.87099e-05 5.20213e-05 0.104676)
(-1.42409e-05 2.66605e-05 0.107736)
(-3.9318e-06 5.12653e-05 0.107969)
(1.62902e-05 4.92979e-05 0.10789)
(4.79479e-05 7.41919e-05 0.104593)
(3.19475e-05 5.32401e-05 0.104262)
(-2.5062e-05 -9.9658e-05 0.104591)
(-4.20505e-05 3.17302e-05 0.107666)
(-4.88945e-05 1.38882e-05 0.107708)
(-1.68014e-05 -2.76492e-05 0.107842)
(-8.53462e-05 1.19195e-06 0.107598)
(-6.46348e-05 6.18676e-05 0.104277)
(-3.03095e-05 -9.0756e-05 0.104339)
(7.9341e-06 3.45671e-06 0.107677)
(-2.90632e-05 7.25015e-06 0.108023)
(3.98485e-06 -8.41773e-05 0.107894)
(-2.80629e-05 -0.000111736 0.108048)
(1.93395e-05 4.82474e-05 0.107954)
(-8.13305e-05 -7.22713e-05 0.107659)
(-5.66826e-06 -9.29869e-05 0.107945)
(3.63244e-05 -3.91766e-05 0.104549)
(-8.96419e-05 -2.9176e-05 0.10466)
(3.65557e-06 4.20845e-05 0.107964)
(-4.59982e-05 -4.98723e-05 0.108117)
(-2.76907e-05 -3.53197e-05 0.108003)
(4.98232e-05 -2.12454e-05 0.104574)
(6.29602e-05 -2.55363e-05 0.104473)
(1.94321e-05 -9.12407e-05 0.104588)
(1.83536e-05 -4.72013e-05 0.107908)
(-6.18319e-05 -9.35327e-06 0.107607)
(0.000117864 -5.09252e-05 0.107964)
(7.29833e-05 -1.02786e-05 0.107792)
(-9.72457e-05 -1.97499e-05 0.104217)
(0.000100435 -4.6989e-05 0.104511)
(8.61762e-06 -9.58298e-05 0.107973)
(-2.161e-05 -0.000124452 0.108013)
(3.28694e-05 -4.99909e-05 0.108027)
(4.19939e-05 -3.07929e-05 0.10779)
(-1.10271e-05 -0.000128712 0.107857)
(1.79991e-05 -5.00814e-05 0.107769)
(-1.80938e-06 -0.000107207 0.107563)
(-4.64888e-06 -0.000111612 0.104485)
(-6.72494e-06 6.00197e-05 0.104356)
(-1.49333e-05 -6.39048e-05 0.10793)
(5.43868e-05 -3.46786e-05 0.107761)
(6.18846e-05 -8.57415e-05 0.107621)
(9.34754e-05 -1.96335e-05 0.104246)
(9.4265e-05 2.04315e-06 0.104407)
(-7.54124e-05 6.22853e-06 0.104276)
(0.000118813 -3.16845e-05 0.107915)
(0.0001053 -1.0592e-06 0.107872)
(1.90947e-06 3.84931e-05 0.107665)
(8.35623e-05 2.57851e-06 0.107989)
(3.62887e-05 4.63522e-05 0.104399)
(0.000109447 2.2781e-06 0.104588)
(3.67603e-05 -1.90147e-05 0.107953)
(6.27454e-05 2.148e-05 0.107698)
(8.66023e-06 6.01173e-05 0.107615)
(4.4169e-05 8.74989e-05 0.10753)
(6.81519e-06 -6.3965e-05 0.10752)
(8.00906e-05 7.7845e-05 0.10793)
(5.3193e-06 7.44435e-05 0.107599)
(8.52581e-05 -8.75729e-07 0.104188)
(7.32342e-06 9.85044e-05 0.104227)
(7.09408e-05 -6.27523e-05 0.107556)
(6.85295e-05 3.81548e-05 0.107473)
(1.48224e-05 3.31506e-05 0.107552)
(2.24841e-05 0.000102789 0.10433)
(-1.12072e-05 8.93706e-05 0.104136)
(-0.000110048 1.48402e-06 0.104314)
(-4.66123e-05 4.90964e-05 0.107608)
(4.22149e-05 -4.8584e-06 0.107963)
(-0.000114756 3.0984e-05 0.107597)
(-7.56317e-05 -1.42312e-05 0.107749)
(1.33465e-05 7.37234e-05 0.104432)
(-7.0149e-06 -5.70655e-05 0.104378)
(-1.0011e-05 7.19861e-05 0.107538)
(2.04974e-05 7.48898e-05 0.10752)
(-4.9708e-05 4.61595e-05 0.107528)
(-4.55421e-05 3.64816e-06 0.107604)
(-2.55402e-06 0.000102572 0.107658)
(-1.16032e-05 2.4483e-05 0.107786)
(-1.4161e-05 9.85901e-05 0.107799)
(6.63481e-05 1.39803e-05 0.104114)
(-8.4108e-05 2.13372e-05 0.104378)
(-1.49587e-05 5.45763e-05 0.107591)
(-5.65657e-05 1.77574e-05 0.107638)
(-6.2978e-05 6.90133e-05 0.107734)
(-8.19719e-06 0.000104063 0.104485)
(-2.80242e-05 6.43311e-05 0.104213)
(-2.60453e-05 -6.89242e-05 0.104478)
(-0.000103369 1.33325e-05 0.107632)
(-8.76922e-05 -1.16397e-05 0.107668)
(-4.30168e-06 -2.98389e-05 0.107747)
(-3.93049e-05 8.25502e-06 0.10753)
(-8.93195e-05 1.74338e-05 0.10422)
(1.28598e-05 -5.24497e-05 0.104257)
(-5.31014e-05 2.49845e-05 0.107584)
(-5.35224e-05 -1.75479e-05 0.107653)
(-2.20263e-05 -2.52692e-05 0.107773)
(-2.25829e-05 -3.80499e-05 0.107752)
(-1.0412e-05 7.36063e-05 0.107821)
(-4.08406e-05 -2.31867e-05 0.107564)
(7.93168e-06 -1.91859e-05 0.107808)
(-1.09744e-05 -5.95081e-05 0.104272)
(-5.68408e-05 1.77785e-05 0.104457)
(-5.77707e-05 5.83457e-05 0.107776)
(-2.51837e-05 -1.04666e-05 0.107784)
(-2.46735e-06 -4.73454e-07 0.107833)
(5.90817e-05 1.8483e-05 0.104475)
(6.04538e-05 2.84815e-06 0.104347)
(6.2354e-07 -7.18227e-05 0.104377)
(3.11989e-05 -3.37042e-05 0.107761)
(-1.07991e-05 1.3509e-05 0.107525)
(7.49485e-05 -2.06058e-05 0.107699)
(4.77559e-05 4.99298e-06 0.107591)
(-5.12341e-05 2.39694e-05 0.104134)
(7.10844e-05 -4.72575e-05 0.104339)
(-3.60947e-06 -3.17732e-05 0.107804)
(-4.81978e-06 -3.07802e-05 0.107755)
(2.93794e-05 -2.58295e-05 0.107746)
(2.43129e-05 4.23965e-06 0.107679)
(1.36666e-05 -4.2754e-05 0.107784)
(8.03151e-06 -2.5544e-05 0.107585)
(1.9695e-05 -6.4373e-05 0.107682)
(2.65365e-05 -5.32597e-05 0.104316)
(-3.23306e-05 5.42244e-05 0.104346)
(1.6028e-05 -1.59011e-05 0.107827)
(1.64678e-05 -1.1519e-05 0.107673)
(3.53272e-05 -2.85327e-05 0.107732)
(7.7421e-05 4.46411e-06 0.10436)
(6.97922e-05 8.768e-06 0.104225)
(-5.64933e-05 -3.38162e-05 0.104267)
(6.34915e-05 -1.34212e-05 0.107655)
(4.97203e-05 -4.51242e-06 0.107623)
(-6.43422e-06 5.40594e-07 0.107553)
(1.58605e-05 -3.07851e-05 0.107682)
(-1.93301e-06 2.64132e-05 0.104227)
(5.48695e-05 -5.1025e-05 0.104398)
(2.77547e-05 -1.94169e-05 0.10769)
(2.10461e-05 1.18339e-05 0.107642)
(-4.19496e-06 2.42567e-06 0.107546)
(-1.5261e-05 1.49112e-05 0.107578)
(1.79643e-05 -5.43792e-05 0.107644)
(3.43971e-05 -5.73418e-06 0.10768)
(5.51778e-06 3.70569e-06 0.107567)
(4.05224e-05 -1.88562e-05 0.104207)
(-5.03909e-05 5.16891e-05 0.104306)
(3.01899e-05 -2.27946e-05 0.107683)
(-9.16897e-06 1.747e-05 0.107576)
(-2.10567e-06 8.25733e-06 0.10756)
(3.41393e-05 5.51615e-05 0.10428)
(1.14389e-05 4.32276e-05 0.104145)
(-6.80313e-05 -3.15705e-05 0.104317)
(-2.68141e-05 1.79014e-06 0.107545)
(1.382e-06 -3.25724e-05 0.10768)
(-4.58821e-05 -2.63824e-06 0.107573)
(-1.8948e-05 -1.82028e-05 0.107622)
(-2.40097e-05 2.40047e-05 0.104267)
(3.49875e-05 -4.44812e-05 0.104329)
(-1.58985e-05 8.23528e-06 0.107528)
(-2.42119e-05 1.15939e-05 0.107576)
(-2.93174e-05 8.04128e-06 0.107554)
(-2.89975e-05 4.90862e-06 0.107604)
(1.42755e-06 2.26771e-05 0.10756)
(1.20836e-05 5.38671e-06 0.107626)
(1.27721e-06 4.25618e-05 0.107572)
(2.18329e-05 -2.34371e-05 0.104186)
(-5.1288e-05 4.40642e-05 0.104344)
(-1.16199e-05 1.78451e-05 0.107542)
(-1.55949e-05 2.33459e-05 0.107607)
(-1.61297e-05 2.80247e-05 0.107549)
(2.8186e-05 6.85749e-05 0.104307)
(8.62515e-06 3.79322e-05 0.104204)
(-3.60718e-05 -5.44914e-05 0.104364)
(-3.86466e-05 -6.89375e-06 0.107588)
(-1.60565e-05 -1.25203e-05 0.107597)
(-1.04606e-06 -1.67373e-05 0.107616)
(3.58629e-06 -3.48441e-06 0.107557)
(-3.83304e-05 2.98356e-05 0.104196)
(4.36454e-05 -4.29078e-05 0.104301)
(-2.73843e-05 2.78344e-06 0.107575)
(-2.5493e-05 3.32695e-06 0.107616)
(-1.03956e-05 -1.4171e-05 0.107628)
(-1.07564e-05 -1.15052e-06 0.107636)
(4.47281e-06 3.49518e-05 0.107576)
(1.41995e-06 -8.27615e-06 0.107555)
(1.13482e-05 -5.89865e-06 0.107565)
(2.32911e-05 -2.97395e-05 0.104225)
(-4.29814e-05 4.26244e-05 0.104362)
(-1.10027e-05 2.58696e-05 0.107561)
(-4.29904e-06 8.96331e-06 0.107634)
(9.31784e-06 7.64551e-06 0.107581)
(5.31057e-05 3.25285e-05 0.104318)
(4.0276e-05 1.73205e-05 0.104241)
(-3.23387e-05 -5.55504e-05 0.104346)
(9.16072e-06 -1.77984e-05 0.107618)
(9.42541e-06 -3.04977e-06 0.107558)
(1.67991e-05 -1.55689e-05 0.107606)
(1.79771e-05 -5.29427e-06 0.107579)
(-2.74764e-05 3.01464e-05 0.104182)
(5.3267e-05 -3.93903e-05 0.104333)
(-4.5112e-06 -1.81372e-05 0.107635)
(-6.27611e-06 -1.86357e-06 0.107632)
(1.56247e-06 -1.88757e-05 0.107619)
(1.67937e-06 3.36794e-06 0.107586)
(1.2195e-05 -1.58516e-05 0.107555)
(1.21142e-05 -3.57746e-06 0.10757)
(1.2132e-05 -1.41462e-05 0.107532)
(3.18547e-05 -3.09705e-05 0.104234)
(-3.51554e-05 4.89063e-05 0.104314)
(1.54473e-05 3.38404e-07 0.107576)
(1.02108e-05 4.29871e-06 0.107577)
(2.24175e-05 -6.82244e-06 0.107546)
(5.46593e-05 3.12995e-05 0.104299)
(3.82723e-05 1.99901e-05 0.104219)
(-5.16168e-05 -3.62136e-05 0.104311)
(1.23666e-05 -1.41267e-05 0.107598)
(1.81608e-05 -6.05052e-06 0.107585)
(-5.84193e-06 -8.09655e-06 0.107567)
(1.44522e-05 -5.69654e-06 0.107578)
(-1.9095e-05 3.41279e-05 0.104214)
(5.19601e-05 -3.53098e-05 0.104328)
(-1.11951e-06 -1.46726e-05 0.107606)
(2.82745e-06 6.95046e-06 0.107565)
(-1.30464e-05 5.71829e-06 0.107557)
(2.25734e-07 1.57411e-05 0.107516)
(1.18013e-05 -5.48177e-06 0.107532)
(1.84808e-05 1.16477e-05 0.107573)
(1.2582e-05 2.09984e-05 0.107558)
(3.90171e-05 -2.31785e-05 0.104186)
(-3.39185e-05 5.10893e-05 0.104281)
(2.03407e-05 -2.23963e-06 0.10754)
(1.11246e-05 1.35181e-05 0.107511)
(7.83345e-06 1.78218e-05 0.107548)
(4.09213e-05 5.70612e-05 0.104324)
(1.99402e-05 3.80487e-05 0.104187)
(-4.98398e-05 -3.5575e-05 0.104285)
(-9.84152e-06 -5.90083e-06 0.107555)
(1.21462e-05 -5.26853e-06 0.107568)
(-1.24991e-05 -3.19523e-06 0.107516)
(1.54382e-06 -8.94011e-06 0.107532)
(-2.20416e-05 3.63145e-05 0.104204)
(3.91413e-05 -4.96307e-05 0.104305)
(-1.55474e-05 1.09805e-05 0.107542)
(-2.13394e-06 1.65413e-05 0.107509)
(-1.42946e-05 9.58533e-06 0.107509)
(-1.28788e-05 1.00274e-05 0.107511)
(1.26238e-05 2.42038e-05 0.107569)
(9.49277e-06 -5.29868e-06 0.107546)
(1.17185e-05 1.64332e-05 0.107587)
(3.58589e-05 -2.16361e-05 0.104163)
(-5.15541e-05 4.23398e-05 0.104301)
(3.15324e-06 2.21853e-05 0.107557)
(-1.28696e-05 1.23367e-05 0.107524)
(-5.94125e-06 2.28262e-05 0.107579)
(3.79113e-05 5.30381e-05 0.104347)
(2.30274e-05 3.40205e-05 0.104166)
(-4.35324e-05 -4.91451e-05 0.104293)
(-1.15014e-05 -4.20554e-06 0.107506)
(-2.78904e-06 -1.19858e-05 0.107522)
(-8.45355e-06 -1.16835e-05 0.107496)
(-9.65089e-06 -1.97786e-05 0.107505)
(-3.4588e-05 1.97853e-05 0.104185)
(3.33286e-05 -5.79876e-05 0.1043)
(-1.26756e-05 4.35746e-06 0.107502)
(-1.6328e-05 4.56036e-06 0.107515)
(-1.10126e-05 -1.21397e-05 0.107502)
(-2.11256e-05 -9.47938e-06 0.107521)
(1.12198e-05 1.09387e-05 0.107583)
(2.68512e-06 -2.3451e-05 0.107523)
(9.9166e-06 -3.05074e-06 0.107542)
(1.77819e-05 -3.10764e-05 0.104186)
(-5.87997e-05 3.30927e-05 0.104314)
(-6.00162e-06 2.00647e-05 0.107579)
(-2.43738e-05 5.2845e-06 0.107539)
(6.47958e-07 9.40451e-06 0.107548)
(4.62803e-05 3.98777e-05 0.10431)
(2.78073e-05 2.11867e-05 0.104179)
(-4.42866e-05 -4.85872e-05 0.104315)
(-8.00374e-06 -1.4496e-05 0.1075)
(-8.02995e-06 -2.03285e-05 0.107504)
(-6.53381e-06 -1.7081e-05 0.107514)
(5.48565e-06 -1.49941e-05 0.107504)
(-3.66705e-05 1.48686e-05 0.104183)
(4.69497e-05 -4.24849e-05 0.104302)
(-1.17195e-05 -1.49117e-05 0.107506)
(-2.09077e-05 -9.06384e-06 0.10752)
(-1.36957e-05 -1.23784e-05 0.10752)
(-1.55988e-05 4.9012e-06 0.107516)
(9.62249e-06 -4.59923e-06 0.107524)
(1.20976e-05 -7.32525e-06 0.107503)
(1.10072e-05 1.25147e-06 0.107487)
(1.42775e-05 -3.73918e-05 0.104197)
(-4.30417e-05 4.73043e-05 0.104309)
(3.25653e-06 6.89512e-06 0.107531)
(-6.93675e-06 1.21813e-05 0.107515)
(7.53785e-06 7.54113e-06 0.107493)
(4.57476e-05 4.12675e-05 0.104286)
(2.69175e-05 2.3564e-05 0.104201)
(-4.24724e-05 -4.38895e-05 0.104314)
(-5.51697e-06 -1.59086e-05 0.107517)
(1.00787e-05 -1.23081e-05 0.107505)
(-2.48751e-06 -1.17993e-05 0.107509)
(1.56276e-05 -8.04548e-06 0.107506)
(-2.24433e-05 3.02282e-05 0.104188)
(5.11026e-05 -3.81271e-05 0.104312)
(-1.35356e-05 -9.58148e-06 0.107521)
(-1.30971e-05 9.72112e-06 0.107515)
(-1.10784e-05 -4.61061e-06 0.107512)
(-8.66846e-06 1.44313e-05 0.107511)
(1.15343e-05 4.10349e-06 0.107484)
(1.68376e-05 9.05146e-07 0.1075)
(1.25689e-05 7.66951e-06 0.107488)
(2.9828e-05 -2.21293e-05 0.104194)
(-3.76995e-05 5.08424e-05 0.104314)
(8.3628e-06 9.14015e-06 0.107488)
(2.28027e-06 1.72692e-05 0.107506)
(9.51874e-06 1.15978e-05 0.10749)
(4.52384e-05 4.40107e-05 0.104302)
(2.87138e-05 2.70048e-05 0.104198)
(-4.25301e-05 -4.43729e-05 0.104309)
(-1.96016e-06 -1.10305e-05 0.107504)
(1.45446e-05 -8.20198e-06 0.107505)
(-3.58928e-06 -1.05375e-05 0.107491)
(6.61108e-06 -1.11293e-05 0.107501)
(-2.05818e-05 3.18733e-05 0.104198)
(4.35727e-05 -4.46515e-05 0.104319)
(-9.93297e-06 -4.84091e-06 0.107507)
(-8.35961e-06 1.27452e-05 0.107509)
(-8.16257e-06 -7.12579e-06 0.107493)
(-9.10532e-06 4.40376e-06 0.107495)
(1.26511e-05 7.00845e-06 0.10749)
(1.25164e-05 -5.24547e-06 0.107504)
(1.22034e-05 4.78851e-06 0.107495)
(3.26243e-05 -2.11998e-05 0.104199)
(-4.35431e-05 4.23815e-05 0.104312)
(9.55077e-06 1.14061e-05 0.107493)
(-3.08151e-06 1.07011e-05 0.107498)
(8.35033e-06 1.01364e-05 0.107496)
(4.49969e-05 4.31839e-05 0.104314)
(2.72983e-05 2.63591e-05 0.104195)
(-5.4583e-06 -1.05985e-05 0.107489)
(3.90193e-06 -1.18518e-05 0.107499)
(-2.80663e-05 2.55719e-05 0.104205)
(-8.89444e-06 -7.12962e-06 0.107489)
(-9.6722e-06 2.59101e-06 0.107489)
(1.16385e-05 5.46492e-06 0.107494)
(2.6403e-05 -2.89644e-05 0.104197)
(7.2084e-06 1.01644e-05 0.107495)
(-2.72101e-06 1.52635e-05 0.0910504)
(8.04296e-06 2.18081e-07 0.0816827)
(5.1834e-06 1.89228e-05 0.0910283)
(9.24372e-06 -7.80827e-06 0.0816909)
(-1.92134e-05 -4.60268e-06 0.0710158)
(-2.5095e-05 -9.06892e-06 0.0709913)
(1.69492e-05 -7.28499e-06 0.0910547)
(1.96734e-06 1.27514e-05 0.0816846)
(2.10425e-05 1.07246e-05 0.0910242)
(-5.1399e-06 9.34297e-06 0.0816904)
(-3.90493e-05 3.39725e-05 0.113032)
(-4.49183e-05 -3.24628e-05 0.113027)
(2.89642e-05 5.66331e-05 0.113021)
(1.23914e-05 2.22912e-05 0.113045)
(-2.08585e-05 6.44574e-05 0.113016)
(-8.75138e-06 3.30322e-05 0.113041)
(-2.01132e-05 8.10942e-06 0.0985761)
(-2.37325e-05 1.67422e-05 0.0926757)
(-4.19804e-05 -1.38254e-06 0.110757)
(-1.30046e-05 2.89372e-06 0.108118)
(-3.48677e-05 8.91019e-07 0.0985159)
(-8.22246e-06 2.72194e-05 0.092732)
(-3.93927e-05 2.64158e-06 0.110725)
(-6.63808e-06 -3.11189e-05 0.0709506)
(-2.79287e-06 -2.16812e-05 0.0985855)
(-2.45647e-05 -3.50674e-05 0.11071)
(-2.80867e-05 6.08521e-08 0.108076)
(-1.95151e-05 -3.91623e-05 0.0985111)
(-4.09994e-05 -2.50354e-05 0.110687)
(3.72454e-05 -8.06146e-06 0.0927442)
(-1.11001e-05 -2.42853e-05 0.0870872)
(-2.53901e-05 -1.14938e-05 0.0870794)
(2.53392e-05 5.52487e-05 0.104786)
(-4.48887e-06 -2.72101e-05 0.0870874)
(-2.30377e-05 -8.33712e-06 0.0870792)
(-4.23377e-06 1.70433e-05 0.0909897)
(1.72785e-05 1.793e-05 0.0815395)
(-1.19187e-05 3.96568e-05 0.0909871)
(1.64139e-05 -5.29269e-07 0.0815051)
(-2.34361e-05 2.69805e-06 0.0707586)
(-2.20043e-06 2.07481e-06 0.0707207)
(1.26497e-05 -8.77481e-06 0.0909894)
(1.43836e-05 1.59668e-05 0.0815344)
(3.77342e-05 -2.4054e-05 0.0909908)
(-5.38854e-06 1.52575e-05 0.081501)
(2.59814e-05 1.0891e-05 0.113053)
(-2.95999e-05 7.0086e-05 0.113059)
(1.61583e-05 4.941e-05 0.113061)
(-3.082e-05 -4.38255e-05 0.113052)
(-1.91205e-06 -1.28245e-05 0.113137)
(8.82981e-07 -2.30691e-05 0.113227)
(2.73807e-05 5.11542e-06 0.113223)
(-3.20622e-05 -5.4806e-06 0.0986152)
(-4.18178e-05 3.81667e-05 0.0926526)
(-2.53035e-05 1.04299e-05 0.110671)
(-1.75837e-05 1.87947e-05 0.108244)
(-6.04254e-05 7.36175e-06 0.0985373)
(-1.46545e-05 1.21937e-05 0.09266)
(-2.72077e-05 1.03749e-05 0.110684)
(1.00985e-05 -8.56289e-06 0.0707378)
(8.92339e-06 1.79434e-05 0.0707348)
(1.82976e-05 -2.24545e-05 0.0986242)
(-1.15321e-05 -1.19874e-05 0.110712)
(4.20329e-05 -2.86307e-05 0.0926628)
(2.03725e-05 -1.10607e-05 0.108355)
(2.61847e-05 -5.77065e-05 0.098563)
(1.40017e-05 -1.99326e-05 0.110752)
(7.99879e-06 -3.24263e-06 0.0926545)
(-1.14564e-05 -2.9535e-05 0.0869387)
(-2.41072e-05 -1.35954e-05 0.0869295)
(3.7483e-05 1.16561e-05 0.104976)
(1.73014e-06 -5.04932e-06 0.0869095)
(-5.14057e-06 4.64905e-06 0.0869035)
(1.92812e-05 -2.0753e-05 0.0909133)
(7.57976e-06 7.73941e-06 0.0814067)
(1.72444e-05 5.0823e-06 0.0908993)
(-6.35306e-06 -5.34032e-06 0.0814523)
(1.79326e-05 1.39276e-05 0.0706589)
(2.14084e-05 8.09441e-06 0.070736)
(-2.01396e-05 2.7203e-05 0.090905)
(9.103e-06 4.07354e-06 0.0814054)
(3.52503e-06 2.56042e-05 0.0908943)
(-9.78136e-07 -9.70681e-06 0.0814527)
(-2.15769e-05 -1.40268e-05 0.113197)
(1.82217e-05 -6.36896e-05 0.113272)
(6.01252e-06 -3.16731e-05 0.113292)
(2.55121e-05 -1.527e-05 0.113425)
(-3.64947e-05 -1.87582e-05 0.1134)
(4.2027e-05 -0.000112085 0.11332)
(-5.85983e-05 -0.000119026 0.1134)
(1.37063e-05 -1.9098e-05 0.0985098)
(-2.12297e-05 -6.34896e-06 0.092494)
(-5.06507e-05 -2.06597e-05 0.110823)
(-6.54575e-05 -1.11713e-05 0.108382)
(-2.68809e-05 -1.8991e-05 0.0985016)
(8.4546e-06 -1.14612e-05 0.0925178)
(-5.94801e-05 -3.89263e-05 0.110866)
(1.15489e-05 2.1358e-05 0.0707217)
(-1.72882e-06 1.44906e-05 0.0708028)
(-2.16456e-05 1.47482e-05 0.0984769)
(3.09733e-05 -6.78129e-05 0.110871)
(-1.74185e-05 -2.32806e-05 0.092497)
(2.27187e-05 -7.35413e-05 0.108331)
(-1.35424e-05 -2.25477e-05 0.0984797)
(1.91603e-05 -7.61281e-05 0.110879)
(-2.41839e-05 7.70196e-06 0.0925218)
(-4.61934e-06 7.7318e-06 0.0868198)
(5.37888e-06 2.28498e-06 0.0868287)
(3.15349e-05 4.27172e-06 0.10492)
(5.92381e-06 2.12256e-05 0.0868628)
(2.07455e-05 1.00835e-05 0.0868764)
(-1.26367e-05 -5.46404e-05 0.0909221)
(-2.42816e-05 7.83252e-06 0.0814699)
(-9.04726e-09 -2.83165e-05 0.0908682)
(-3.0774e-05 -1.19513e-05 0.0815964)
(1.21481e-05 4.31967e-06 0.0708046)
(2.01824e-05 -6.56869e-06 0.0709755)
(-4.36182e-05 1.22316e-06 0.0909085)
(1.01681e-05 -1.99021e-05 0.0814751)
(-2.33567e-05 1.20702e-05 0.0908546)
(-8.80036e-06 -2.45796e-05 0.0816028)
(-3.40792e-05 -1.86636e-05 0.113459)
(4.38998e-05 -0.000110324 0.11331)
(-7.12405e-05 -0.000131937 0.113381)
(6.99813e-05 9.27288e-05 0.113524)
(-6.87747e-05 8.22347e-05 0.113485)
(3.96533e-05 -2.5425e-05 0.113207)
(-6.93071e-05 -4.07458e-05 0.113174)
(7.58566e-05 4.80875e-05 0.0984062)
(2.67653e-05 6.22535e-06 0.0924881)
(-1.48923e-05 -6.00693e-05 0.110918)
(2.05813e-05 9.52698e-06 0.108307)
(2.68615e-05 1.35234e-05 0.0983696)
(6.42774e-05 -1.17897e-05 0.0925816)
(1.02057e-05 -2.27347e-05 0.110909)
(-4.09269e-06 -2.63707e-06 0.0708588)
(-1.28451e-05 -2.49315e-06 0.0709605)
(5.88724e-06 5.03383e-05 0.0983558)
(-1.77115e-05 -4.0875e-05 0.110808)
(-5.56235e-06 7.94355e-06 0.0924697)
(5.98542e-06 -1.69711e-05 0.108043)
(-7.49283e-06 1.84796e-05 0.0983236)
(-2.16718e-05 -2.16375e-05 0.110755)
(-4.91274e-06 3.15247e-05 0.0925517)
(9.90965e-08 2.43003e-05 0.0868998)
(1.3136e-05 4.23812e-06 0.0869063)
(4.413e-05 6.59214e-05 0.104537)
(4.41272e-06 3.40557e-05 0.0870034)
(1.55688e-05 1.03051e-05 0.0869957)
(4.36571e-06 -1.41767e-05 0.0910199)
(-9.73615e-06 -7.39489e-06 0.0817308)
(-8.15643e-06 -2.58412e-05 0.0909543)
(5.27878e-06 -2.35278e-05 0.0818227)