/*--------------------------------*- C++ -*----------------------------------*\
| =========                 |                                                 |
| \\      /  F ield         | OpenFOAM: The Open Source CFD Toolbox           |
|  \\    /   O peration     | Version:  2312                                  |
|   \\  /    A nd           | Website:  www.openfoam.com                      |
|    \\/     M anipulation  |                                                 |
\*---------------------------------------------------------------------------*/
FoamFile
{
    version     2.0;
    format      ascii;
    arch        "LSB;label=32;scalar=64";
    class       volScalarField;
    location    "850";
    object      epsilon;
}
// * * * * * * * * * * * * * * * * * * * * * * * * * * * * * * * * * * * * * //

dimensions      [0 2 -3 0 0 0 0];

internalField   nonuniform List<scalar> 
43008
(
1.40294e-07
2.15336e-07
1.36482e-07
2.21688e-07
2.21703e-07
3.34194e-07
3.14695e-07
3.29197e-07
2.15368e-07
2.15401e-07
2.19952e-07
2.19986e-07
3.29755e-07
2.15338e-07
2.15396e-07
2.19918e-07
2.19983e-07
2.19904e-07
2.19961e-07
3.14868e-07
3.29078e-07
2.15363e-07
2.19918e-07
2.19946e-07
3.29791e-07
3.34458e-07
2.21745e-07
2.21776e-07
3.34142e-07
2.2171e-07
2.21774e-07
2.21747e-07
3.3463e-07
2.21733e-07
3.46854e-06
8.8835e-06
3.42405e-06
8.8898e-06
1.85246e-05
3.46768e-06
8.88453e-06
3.42497e-06
8.89091e-06
1.40297e-07
1.40299e-07
1.40301e-07
1.37358e-07
1.37362e-07
1.37364e-07
1.37366e-07
9.88497e-07
2.16719e-07
2.66262e-06
1.5906e-07
1.85349e-05
1.85255e-05
9.88483e-07
1.59527e-07
2.63176e-06
2.16734e-07
9.60905e-07
1.5907e-07
2.66293e-06
3.19745e-07
5.06087e-06
5.06275e-06
3.58624e-06
8.89694e-06
3.54855e-06
8.90285e-06
1.85005e-05
1.84919e-05
3.58502e-06
8.89807e-06
3.54935e-06
8.9041e-06
1.36485e-07
1.36488e-07
1.36489e-07
1.07268e-06
2.71916e-06
1.58247e-07
2.2362e-07
1.04454e-06
2.74752e-06
1.58105e-07
1.85013e-05
1.84926e-05
1.07347e-06
1.58264e-07
2.71952e-06
2.23635e-07
1.04467e-06
1.58119e-07
2.74524e-06
5.09343e-06
5.09519e-06
3.40726e-07
5.10658e-06
5.11075e-06
1.85319e-05
1.8522e-05
1.85344e-05
1.85249e-05
5.04346e-06
5.04405e-06
3.19149e-07
5.05939e-06
5.06293e-06
1.85053e-05
1.85143e-05
1.85081e-05
1.85171e-05
3.24263e-07
5.08456e-06
5.08797e-06
5.07029e-06
5.07098e-06
3.46815e-06
8.88349e-06
3.42422e-06
8.88986e-06
9.88038e-07
2.6318e-06
1.59519e-07
2.16765e-07
9.6144e-07
2.66265e-06
1.59065e-07
9.88205e-07
2.6322e-06
1.59529e-07
2.16801e-07
9.60931e-07
2.66331e-06
1.59072e-07
3.48901e-06
8.89641e-06
8.89039e-06
3.52995e-06
3.48918e-06
8.89663e-06
8.89046e-06
3.52941e-06
1.00274e-06
2.18294e-07
2.70555e-06
1.5843e-07
2.67686e-06
1.58728e-07
1.02991e-06
1.00246e-06
2.18326e-07
2.70632e-06
1.58434e-07
2.6773e-06
1.58735e-07
1.03035e-06
3.19709e-07
5.06251e-06
5.06107e-06
1.85231e-05
1.8508e-05
1.85169e-05
3.23888e-07
5.08771e-06
5.08616e-06
5.07075e-06
5.06929e-06
1.85061e-05
1.85153e-05
9.88576e-07
2.63217e-06
1.59527e-07
2.16735e-07
9.60935e-07
2.66326e-06
1.59071e-07
3.4681e-06
8.88415e-06
3.42464e-06
8.89051e-06
9.8878e-07
1.59527e-07
2.63221e-06
2.16797e-07
9.60899e-07
1.59073e-07
2.66342e-06
3.48987e-06
8.89762e-06
8.89144e-06
3.52909e-06
1.00232e-06
2.18262e-07
2.70624e-06
1.58435e-07
2.6773e-06
1.58735e-07
1.03057e-06
3.48937e-06
8.89721e-06
8.89109e-06
3.52975e-06
1.00217e-06
2.18324e-07
1.58435e-07
2.70659e-06
1.58737e-07
2.6773e-06
1.03062e-06
3.46834e-06
8.89024e-06
9.88605e-07
2.16773e-07
1.59064e-07
2.66274e-06
3.46813e-06
8.89e-06
1.00223e-06
2.18244e-07
2.70588e-06
1.58422e-07
2.67679e-06
1.58719e-07
1.0301e-06
3.48921e-06
8.89685e-06
8.8908e-06
3.52864e-06
1.00222e-06
2.183e-07
1.58429e-07
2.70416e-06
1.5873e-07
2.67716e-06
1.03041e-06
3.48919e-06
8.89667e-06
8.89057e-06
3.52948e-06
5.04377e-06
5.04229e-06
3.19263e-07
5.06264e-06
5.06119e-06
1.85325e-05
1.85231e-05
1.85088e-05
1.85178e-05
3.2436e-07
5.08774e-06
5.08628e-06
5.07068e-06
5.06925e-06
1.85063e-05
1.85154e-05
9.88517e-07
1.59531e-07
2.63237e-06
2.16763e-07
9.61175e-07
1.59072e-07
2.66332e-06
3.46834e-06
8.88401e-06
3.42471e-06
8.89039e-06
3.46813e-06
8.88437e-06
3.42472e-06
8.89072e-06
1.00251e-06
2.1826e-07
1.58434e-07
2.70602e-06
1.58736e-07
2.67688e-06
1.0304e-06
1.00252e-06
2.18285e-07
1.58438e-07
2.7066e-06
1.58738e-07
2.67748e-06
1.03032e-06
3.48953e-06
8.89705e-06
8.8909e-06
3.52971e-06
3.48964e-06
8.89741e-06
8.89131e-06
3.52974e-06
1.85237e-05
1.85259e-05
3.23729e-07
5.08603e-06
5.08791e-06
5.06911e-06
5.07097e-06
1.85069e-05
1.8516e-05
1.85092e-05
1.85182e-05
1.84979e-05
1.84893e-05
1.85006e-05
1.84919e-05
5.09463e-06
5.09545e-06
3.39716e-07
5.10692e-06
5.10846e-06
3.58585e-06
8.89715e-06
3.5488e-06
8.90309e-06
1.07243e-06
2.71998e-06
1.58258e-07
2.23674e-07
1.04483e-06
2.74546e-06
1.58114e-07
1.07269e-06
2.72038e-06
1.58263e-07
2.23707e-07
1.04445e-06
2.74602e-06
1.58117e-07
5.09514e-06
5.09366e-06
3.39954e-07
5.10815e-06
5.10891e-06
1.84986e-05
1.849e-05
1.0729e-06
2.72045e-06
1.58265e-07
2.23634e-07
1.04441e-06
2.74606e-06
1.58119e-07
3.58572e-06
8.89774e-06
3.54874e-06
8.90371e-06
1.07325e-06
1.58266e-07
2.72e-06
2.23702e-07
1.04431e-06
1.58119e-07
2.74819e-06
3.58465e-06
8.89737e-06
3.54932e-06
8.90335e-06
1.07195e-06
1.58258e-07
2.72072e-06
2.23678e-07
1.04446e-06
1.58112e-07
2.74566e-06
3.5847e-06
8.89718e-06
3.54886e-06
8.90318e-06
5.09511e-06
5.09371e-06
3.40128e-07
5.11055e-06
5.1091e-06
1.84988e-05
1.84902e-05
1.07309e-06
1.58267e-07
2.72011e-06
2.23669e-07
1.04465e-06
1.58122e-07
2.74818e-06
3.58615e-06
8.89754e-06
3.54904e-06
8.90352e-06
3.58472e-06
8.89793e-06
3.54916e-06
8.90388e-06
1.84994e-05
1.84907e-05
1.85017e-05
1.8493e-05
1.21038e-05
3.4571e-06
1.06415e-05
4.33946e-06
1.06397e-05
4.33126e-06
1.21067e-05
2.25123e-05
7.18508e-06
8.88643e-06
2.25105e-05
7.18664e-06
1.21036e-05
3.43579e-06
1.06382e-05
4.3064e-06
1.21008e-05
1.06396e-05
4.31487e-06
2.25011e-05
7.19278e-06
8.88696e-06
7.19095e-06
2.25029e-05
1.85332e-05
1.85254e-05
1.21038e-05
3.45816e-06
4.33949e-06
1.06417e-05
4.33119e-06
1.064e-05
1.21067e-05
2.25117e-05
7.18571e-06
8.8875e-06
2.25098e-05
7.18563e-06
1.21036e-05
3.43491e-06
4.30624e-06
1.06384e-05
1.21008e-05
4.31479e-06
1.06399e-05
2.25005e-05
7.19251e-06
8.888e-06
7.19193e-06
2.25023e-05
1.85341e-05
1.85263e-05
9.71718e-06
2.19929e-05
2.19924e-05
2.19925e-05
2.19921e-05
9.7169e-06
3.8073e-06
5.04736e-06
1.74828e-06
8.97471e-06
3.81436e-06
5.04928e-06
1.75011e-06
8.9795e-06
9.71375e-06
2.20032e-05
2.20027e-05
3.82182e-06
8.98421e-06
5.05593e-06
1.77296e-06
1.76451e-06
8.97727e-06
3.82967e-06
3.82872e-06
8.98901e-06
5.05782e-06
1.77473e-06
1.76602e-06
8.98233e-06
3.83657e-06
1.21173e-05
3.57609e-06
1.06561e-05
4.42518e-06
1.0652e-05
4.41826e-06
1.21205e-05
2.24743e-05
7.20635e-06
8.89967e-06
2.24727e-05
7.20678e-06
1.21169e-05
3.55846e-06
1.06481e-05
4.39854e-06
1.21138e-05
1.06515e-05
4.4053e-06
2.24632e-05
7.21007e-06
8.90014e-06
7.20979e-06
2.24648e-05
1.84999e-05
1.84925e-05
1.21173e-05
3.57717e-06
4.4249e-06
1.06563e-05
4.41833e-06
1.06523e-05
1.21205e-05
2.24739e-05
7.20636e-06
8.90086e-06
2.24723e-05
7.20641e-06
1.21169e-05
3.55773e-06
4.39835e-06
1.06484e-05
1.21137e-05
4.40526e-06
1.06517e-05
2.24628e-05
7.21002e-06
8.90129e-06
7.20979e-06
2.24644e-05
1.85006e-05
1.84932e-05
9.72651e-06
2.19517e-05
2.19513e-05
2.19514e-05
2.1951e-05
9.72542e-06
3.89198e-06
1.8368e-06
9.00449e-06
5.09755e-06
3.88574e-06
1.84486e-06
9.01084e-06
3.89771e-06
1.83842e-06
9.00961e-06
5.09955e-06
3.89307e-06
1.84637e-06
9.01569e-06
9.72381e-06
2.19617e-05
2.19612e-05
9.72472e-06
2.1962e-05
2.19615e-05
3.90417e-06
9.01917e-06
5.10542e-06
1.86835e-06
1.85997e-06
9.01298e-06
3.91165e-06
3.91238e-06
9.02398e-06
5.10654e-06
1.8694e-06
1.8618e-06
9.01808e-06
3.91652e-06
1.85308e-05
1.85229e-05
1.85336e-05
1.85257e-05
9.71753e-06
2.19932e-05
2.19926e-05
2.19928e-05
2.19922e-05
9.71724e-06
3.80692e-06
1.73956e-06
8.96733e-06
5.04578e-06
3.79887e-06
8.97452e-06
1.74788e-06
3.81406e-06
1.74122e-06
8.97251e-06
5.0493e-06
3.80568e-06
8.97971e-06
1.74926e-06
9.71414e-06
2.20032e-05
2.20025e-05
9.71427e-06
2.20036e-05
2.20029e-05
3.82182e-06
8.98397e-06
5.05725e-06
1.77263e-06
8.97712e-06
3.82932e-06
1.7645e-06
3.8286e-06
8.98922e-06
5.05808e-06
1.77417e-06
8.98225e-06
3.83639e-06
1.76628e-06
1.8506e-05
1.85135e-05
1.85088e-05
1.85164e-05
9.71989e-06
2.19825e-05
2.19819e-05
9.72043e-06
2.19827e-05
2.19822e-05
3.86451e-06
1.8209e-06
5.08298e-06
9.00197e-06
8.99548e-06
1.81299e-06
3.87154e-06
3.87148e-06
1.82251e-06
5.08345e-06
9.00729e-06
9.00076e-06
1.8147e-06
3.87877e-06
3.851e-06
8.98646e-06
1.78908e-06
5.0723e-06
3.84362e-06
8.9931e-06
1.79699e-06
3.8582e-06
8.99167e-06
1.79081e-06
5.07549e-06
3.85049e-06
8.99835e-06
1.79858e-06
9.72289e-06
2.19721e-05
2.19719e-05
2.19718e-05
2.19716e-05
9.72218e-06
1.21037e-05
3.45732e-06
1.06413e-05
4.33898e-06
1.06394e-05
4.33158e-06
1.21067e-05
2.25121e-05
7.18419e-06
8.88641e-06
2.25103e-05
7.18412e-06
1.21035e-05
3.43548e-06
1.06379e-05
4.30657e-06
1.06394e-05
1.21008e-05
4.31429e-06
2.2501e-05
7.1904e-06
8.88701e-06
7.19042e-06
2.25028e-05
1.211e-05
1.06418e-05
4.35502e-06
3.4996e-06
1.2107e-05
1.06441e-05
4.3626e-06
2.24823e-05
8.8936e-06
7.20285e-06
2.24839e-05
7.20166e-06
2.24935e-05
7.19703e-06
8.89311e-06
2.24917e-05
7.19787e-06
1.21103e-05
3.51951e-06
1.06475e-05
4.38456e-06
1.21134e-05
1.06447e-05
4.37739e-06
1.211e-05
1.06416e-05
4.35519e-06
3.49929e-06
1.21069e-05
1.06439e-05
4.36225e-06
2.24821e-05
8.89376e-06
7.20069e-06
7.20072e-06
2.24837e-05
2.24933e-05
7.19577e-06
8.8933e-06
2.24916e-05
7.19583e-06
1.21103e-05
3.51969e-06
1.06473e-05
4.38411e-06
1.06445e-05
4.37754e-06
1.21134e-05
9.71768e-06
2.19931e-05
2.19933e-05
2.19927e-05
2.1993e-05
9.71734e-06
3.81268e-06
5.04901e-06
8.97912e-06
1.74916e-06
3.80553e-06
5.04746e-06
1.74725e-06
8.97463e-06
9.71416e-06
2.20036e-05
2.20039e-05
3.82987e-06
8.98862e-06
5.05769e-06
1.77391e-06
8.98241e-06
1.76663e-06
3.8353e-06
3.82275e-06
8.98409e-06
5.0561e-06
1.7721e-06
1.76483e-06
8.97787e-06
3.8282e-06
1.85317e-05
1.85238e-05
1.85086e-05
1.85162e-05
9.72004e-06
2.19824e-05
2.19827e-05
9.72059e-06
2.19828e-05
2.1983e-05
3.87274e-06
1.82203e-06
5.08318e-06
9.00664e-06
1.81539e-06
9.001e-06
3.87763e-06
3.86562e-06
1.82047e-06
5.08173e-06
9.00215e-06
8.99633e-06
1.81356e-06
3.87043e-06
3.85676e-06
8.99183e-06
1.7912e-06
5.07522e-06
1.79817e-06
3.85171e-06
8.99785e-06
3.84952e-06
8.98716e-06
1.78943e-06
5.07362e-06
3.84455e-06
8.9933e-06
1.79652e-06
9.7231e-06
2.19724e-05
2.19727e-05
2.19722e-05
2.19724e-05
9.72232e-06
1.85068e-05
1.85144e-05
1.2104e-05
3.45757e-06
1.06416e-05
4.33886e-06
1.06398e-05
4.33154e-06
1.21069e-05
2.25116e-05
7.18289e-06
8.8871e-06
2.25097e-05
7.18447e-06
1.21038e-05
3.43539e-06
1.06383e-05
4.30652e-06
1.06397e-05
1.2101e-05
4.3143e-06
2.25004e-05
7.19065e-06
8.88763e-06
7.18882e-06
2.25022e-05
1.211e-05
4.35491e-06
1.06421e-05
3.49898e-06
1.21069e-05
4.3626e-06
1.06444e-05
2.24817e-05
8.89473e-06
7.20229e-06
2.24834e-05
7.20233e-06
2.24929e-05
7.19705e-06
8.89425e-06
2.24911e-05
7.19704e-06
1.21103e-05
3.5202e-06
4.38478e-06
1.06477e-05
1.21134e-05
4.37729e-06
1.0645e-05
1.21102e-05
1.0642e-05
4.35523e-06
3.49969e-06
1.21072e-05
1.06443e-05
4.36199e-06
2.24816e-05
8.89435e-06
7.20071e-06
7.19955e-06
2.24833e-05
2.24928e-05
7.19492e-06
8.89389e-06
2.24911e-05
7.19579e-06
1.21105e-05
3.5196e-06
1.06477e-05
4.38392e-06
1.06448e-05
4.37765e-06
1.21137e-05
1.21033e-05
3.45703e-06
4.33828e-06
1.06415e-05
4.33193e-06
1.06397e-05
1.21061e-05
2.24992e-05
7.19168e-06
8.8873e-06
7.19144e-06
2.25013e-05
1.21036e-05
3.45729e-06
1.06413e-05
4.33856e-06
1.06395e-05
4.33157e-06
1.21065e-05
2.24997e-05
7.19037e-06
8.88706e-06
7.18924e-06
2.25015e-05
1.21094e-05
4.35555e-06
1.06419e-05
3.49878e-06
1.21064e-05
4.36153e-06
1.06441e-05
2.24804e-05
8.89401e-06
7.20173e-06
7.20156e-06
2.24824e-05
2.24918e-05
7.19654e-06
8.89355e-06
2.24898e-05
7.19664e-06
1.21098e-05
3.52008e-06
4.38347e-06
1.06475e-05
4.37792e-06
1.06448e-05
1.21129e-05
1.21098e-05
1.06416e-05
4.35518e-06
3.49946e-06
1.21067e-05
1.0644e-05
4.36194e-06
2.24809e-05
8.89385e-06
7.20037e-06
7.19969e-06
2.24826e-05
2.2492e-05
7.19436e-06
8.89337e-06
2.24903e-05
7.19585e-06
1.21101e-05
3.51961e-06
1.06473e-05
4.38383e-06
1.06445e-05
4.37754e-06
1.21132e-05
9.71728e-06
2.19925e-05
2.19927e-05
2.19921e-05
2.19923e-05
9.71692e-06
3.81406e-06
1.74134e-06
8.97261e-06
5.04906e-06
8.97885e-06
3.80579e-06
1.74969e-06
3.80716e-06
1.7396e-06
8.96741e-06
5.04757e-06
1.74817e-06
3.79861e-06
8.97455e-06
9.71383e-06
2.20024e-05
2.20026e-05
2.20028e-05
9.71399e-06
2.2003e-05
3.82878e-06
8.98836e-06
5.05775e-06
1.7745e-06
8.98226e-06
1.76614e-06
3.8365e-06
3.82156e-06
8.98403e-06
5.05631e-06
1.77269e-06
1.76437e-06
8.97713e-06
3.82934e-06
1.85317e-05
1.85239e-05
1.85095e-05
1.85171e-05
9.7196e-06
2.19818e-05
2.1982e-05
9.72018e-06
2.19822e-05
2.19824e-05
3.87159e-06
1.82278e-06
5.08315e-06
9.00681e-06
1.81455e-06
9.00033e-06
3.87884e-06
3.86452e-06
1.8209e-06
5.08175e-06
9.0021e-06
8.99564e-06
1.81284e-06
3.87157e-06
3.85825e-06
8.99167e-06
1.79077e-06
5.07521e-06
1.79895e-06
3.85062e-06
8.99772e-06
3.85124e-06
8.98655e-06
1.78914e-06
5.07374e-06
3.84352e-06
8.99318e-06
1.79725e-06
9.72267e-06
2.19718e-05
2.1972e-05
2.19715e-05
2.19717e-05
9.72188e-06
1.8507e-05
1.85146e-05
1.21032e-05
3.45773e-06
4.33925e-06
1.06413e-05
4.33152e-06
1.06395e-05
1.21061e-05
2.25105e-05
7.1842e-06
8.88697e-06
7.18613e-06
2.25087e-05
1.2103e-05
3.43562e-06
4.30643e-06
1.0638e-05
4.31472e-06
1.21003e-05
1.06394e-05
2.24994e-05
7.19185e-06
8.88748e-06
7.1908e-06
2.25011e-05
1.2104e-05
3.45782e-06
4.33897e-06
1.06414e-05
4.33168e-06
1.06396e-05
1.21069e-05
2.25122e-05
7.18296e-06
8.8873e-06
2.25104e-05
7.18499e-06
1.21038e-05
3.43553e-06
4.30668e-06
1.06381e-05
1.2101e-05
4.31442e-06
1.06395e-05
2.2501e-05
7.19068e-06
8.88786e-06
7.18975e-06
2.25028e-05
1.21094e-05
4.35517e-06
1.06416e-05
3.49972e-06
1.21064e-05
4.36242e-06
1.0644e-05
2.24806e-05
8.89421e-06
7.20207e-06
7.20109e-06
2.24823e-05
2.24917e-05
7.19578e-06
8.89373e-06
2.249e-05
7.19732e-06
1.21097e-05
3.51989e-06
4.38442e-06
1.06473e-05
4.37756e-06
1.06445e-05
1.21128e-05
1.21102e-05
4.35539e-06
1.06418e-05
3.49968e-06
1.21071e-05
4.3621e-06
1.06441e-05
2.24823e-05
8.8946e-06
7.20078e-06
7.20014e-06
2.24838e-05
2.24933e-05
7.19469e-06
8.8941e-06
2.24917e-05
7.19615e-06
1.21105e-05
3.51995e-06
4.3841e-06
1.06474e-05
4.3778e-06
1.06447e-05
1.21136e-05
1.85323e-05
1.85245e-05
1.85345e-05
1.85267e-05
9.71958e-06
2.19822e-05
2.19818e-05
9.7201e-06
2.19826e-05
2.19821e-05
3.86578e-06
1.82136e-06
5.08156e-06
9.00226e-06
3.87065e-06
1.81323e-06
8.99568e-06
3.87273e-06
1.82299e-06
5.08337e-06
9.00708e-06
3.87766e-06
1.81469e-06
9.00082e-06
3.84948e-06
8.9867e-06
1.78921e-06
5.07345e-06
3.84403e-06
1.79712e-06
8.99333e-06
3.85662e-06
8.99171e-06
1.79078e-06
5.07537e-06
3.851e-06
1.79887e-06
8.99815e-06
9.7226e-06
2.19723e-05
2.19718e-05
9.72187e-06
2.19719e-05
2.19715e-05
1.85076e-05
1.85152e-05
1.85099e-05
1.85175e-05
1.84973e-05
1.849e-05
1.84999e-05
1.84925e-05
9.72676e-06
2.19518e-05
2.19516e-05
2.19513e-05
2.19512e-05
9.72572e-06
3.89156e-06
1.83677e-06
9.00432e-06
5.09606e-06
3.88476e-06
9.01054e-06
1.84425e-06
3.89898e-06
1.83846e-06
9.00959e-06
5.09936e-06
3.89174e-06
9.01589e-06
1.84624e-06
9.72409e-06
2.19615e-05
2.19613e-05
9.72502e-06
2.19618e-05
2.19616e-05
3.90374e-06
9.01889e-06
5.10603e-06
1.86747e-06
9.0128e-06
3.91135e-06
1.85995e-06
3.91065e-06
9.02423e-06
5.10722e-06
1.86936e-06
9.01806e-06
3.91853e-06
1.86145e-06
1.21173e-05
3.57636e-06
1.06555e-05
4.42437e-06
1.06523e-05
4.41854e-06
1.21205e-05
2.24742e-05
7.20475e-06
8.89989e-06
2.24726e-05
7.20494e-06
1.2117e-05
3.5581e-06
1.06481e-05
4.39867e-06
1.06512e-05
1.21138e-05
4.40493e-06
2.24631e-05
7.20849e-06
8.9003e-06
7.20826e-06
2.24647e-05
9.72694e-06
2.19517e-05
2.19521e-05
2.19514e-05
2.19518e-05
9.72584e-06
3.89737e-06
1.83892e-06
9.00956e-06
5.09903e-06
9.01507e-06
3.89285e-06
1.84591e-06
3.89175e-06
1.83715e-06
9.00505e-06
5.09766e-06
1.844e-06
3.88536e-06
9.0107e-06
9.72425e-06
2.19616e-05
2.19621e-05
2.19619e-05
9.72515e-06
2.19624e-05
3.91246e-06
9.02332e-06
5.10696e-06
1.86884e-06
9.01806e-06
1.86194e-06
3.91609e-06
3.90393e-06
9.01892e-06
5.10484e-06
1.86715e-06
1.86027e-06
9.01359e-06
3.91143e-06
1.8498e-05
1.84906e-05
1.21175e-05
3.57634e-06
1.06563e-05
4.42409e-06
1.06521e-05
4.41877e-06
1.21207e-05
2.24738e-05
7.20424e-06
8.90049e-06
2.24722e-05
7.20463e-06
1.21172e-05
3.55827e-06
1.06483e-05
4.39883e-06
1.06517e-05
1.2114e-05
4.40467e-06
2.24627e-05
7.20807e-06
8.90093e-06
7.20777e-06
2.24642e-05
1.21168e-05
3.5772e-06
4.42355e-06
1.06556e-05
4.41904e-06
1.06525e-05
1.21199e-05
2.24729e-05
7.20565e-06
8.90013e-06
7.20566e-06
2.24709e-05
1.21164e-05
3.55754e-06
4.39906e-06
1.06483e-05
4.4043e-06
1.21132e-05
1.06513e-05
2.24615e-05
7.20921e-06
8.90058e-06
7.20928e-06
2.24634e-05
1.21171e-05
3.57676e-06
1.06554e-05
4.424e-06
1.06523e-05
4.41871e-06
1.21202e-05
2.2473e-05
7.20381e-06
8.89995e-06
2.24714e-05
7.20428e-06
1.21167e-05
3.55773e-06
1.06481e-05
4.39868e-06
1.21135e-05
1.06511e-05
4.40451e-06
2.2462e-05
7.20775e-06
8.90039e-06
7.20746e-06
2.24635e-05
9.72654e-06
2.19512e-05
2.19514e-05
2.1951e-05
2.19512e-05
9.72534e-06
3.89891e-06
1.83851e-06
9.00911e-06
5.09927e-06
9.01543e-06
3.89188e-06
1.84607e-06
3.89013e-06
1.83688e-06
9.00445e-06
5.09782e-06
1.84475e-06
3.88521e-06
9.01066e-06
9.72378e-06
2.19612e-05
2.19614e-05
2.19615e-05
9.72478e-06
2.19617e-05
3.91084e-06
9.02378e-06
5.1063e-06
1.86907e-06
9.01765e-06
1.86179e-06
3.91841e-06
3.9051e-06
9.01899e-06
5.10489e-06
1.86774e-06
1.85982e-06
9.01292e-06
3.90903e-06
1.84982e-05
1.84908e-05
1.21167e-05
3.5765e-06
4.42461e-06
1.06555e-05
4.41866e-06
1.06523e-05
1.21199e-05
2.24728e-05
7.20537e-06
8.90031e-06
7.20601e-06
2.24712e-05
1.21164e-05
3.55844e-06
4.39866e-06
1.06481e-05
4.40497e-06
1.21132e-05
1.06512e-05
2.24617e-05
7.20941e-06
8.90076e-06
7.20915e-06
2.24632e-05
1.21175e-05
3.57707e-06
4.42426e-06
1.06555e-05
4.41891e-06
1.06525e-05
1.21206e-05
2.24743e-05
7.20415e-06
8.90069e-06
2.24728e-05
7.20473e-06
1.21171e-05
3.55802e-06
4.39895e-06
1.06482e-05
1.21139e-05
4.40473e-06
1.06513e-05
2.24633e-05
7.20807e-06
8.90114e-06
7.20802e-06
2.24648e-05
1.84988e-05
1.84914e-05
1.8501e-05
1.84936e-05
1.27761e-07
1.27759e-07
1.39263e-07
1.26355e-07
1.26352e-07
1.21063e-07
1.22601e-07
1.55002e-06
3.15045e-07
6.55634e-07
6.55756e-07
1.22375e-07
1.22373e-07
1.35662e-07
1.21124e-07
1.21122e-07
1.15233e-07
1.16643e-07
1.64821e-06
7.07003e-07
7.07623e-07
3.3514e-07
1.6416e-06
7.12453e-07
7.1217e-07
1.54941e-06
6.50815e-07
6.51076e-07
3.14683e-07
1.54114e-06
6.55573e-07
6.5571e-07
1.61617e-06
3.29195e-07
6.97798e-07
6.97844e-07
6.92391e-07
6.92817e-07
1.62508e-06
1.54852e-06
3.15052e-07
6.54563e-07
6.55856e-07
1.61711e-06
3.28944e-07
6.9786e-07
6.96773e-07
6.92875e-07
6.93529e-07
1.62354e-06
1.55019e-06
6.51826e-07
6.50956e-07
3.14634e-07
6.55184e-07
1.54078e-06
6.54675e-07
1.61607e-06
3.29414e-07
6.96882e-07
6.97236e-07
6.93775e-07
6.92788e-07
1.62498e-06
1.61724e-06
3.29032e-07
6.97835e-07
6.97558e-07
1.62384e-06
6.92669e-07
6.93156e-07
1.64863e-06
7.07015e-07
7.07571e-07
3.34387e-07
1.6403e-06
7.12251e-07
7.11929e-07
1.6478e-06
7.07616e-07
7.07875e-07
3.34887e-07
7.11144e-07
1.64139e-06
7.11741e-07
1.64936e-06
7.08127e-07
7.07349e-07
3.34541e-07
7.11871e-07
1.64046e-06
7.12265e-07
1.27763e-07
1.27758e-07
1.39267e-07
1.26357e-07
1.26353e-07
1.21063e-07
1.22601e-07
1.27763e-07
1.27761e-07
1.39269e-07
1.26357e-07
1.26355e-07
1.21064e-07
1.22602e-07
1.27763e-07
1.27762e-07
1.3927e-07
1.26357e-07
1.26355e-07
1.21064e-07
1.22602e-07
1.38282e-07
1.23663e-07
1.2366e-07
1.2499e-07
1.24988e-07
1.19558e-07
1.18085e-07
1.38286e-07
1.23664e-07
1.23661e-07
1.24992e-07
1.24987e-07
1.19558e-07
1.18085e-07
1.38289e-07
1.23665e-07
1.23662e-07
1.24992e-07
1.2499e-07
1.19559e-07
1.18086e-07
1.3829e-07
1.23665e-07
1.23663e-07
1.24992e-07
1.24991e-07
1.19559e-07
1.18086e-07
4.12839e-07
9.81411e-07
1.29384e-06
3.38873e-07
1.28776e-06
3.37179e-07
4.12967e-07
5.76379e-07
1.92559e-06
2.6544e-06
8.88717e-07
8.82678e-07
1.9174e-06
5.79581e-07
4.11977e-07
9.81634e-07
3.3891e-07
1.29484e-06
3.37235e-07
1.2871e-06
4.14208e-07
5.69484e-07
8.66703e-07
1.89395e-06
2.63995e-06
5.66346e-07
8.72563e-07
1.90156e-06
4.07023e-07
9.67834e-07
3.3203e-07
1.26377e-06
4.04926e-07
3.33622e-07
1.27173e-06
5.76429e-07
1.92642e-06
2.65492e-06
8.88229e-07
8.83005e-07
1.91792e-06
5.79454e-07
1.56679e-06
3.19116e-07
6.6934e-07
6.69483e-07
6.64634e-07
6.64982e-07
1.57546e-06
1.22376e-07
1.22372e-07
1.35666e-07
1.21126e-07
1.21122e-07
1.15233e-07
1.16644e-07
1.22377e-07
1.22375e-07
1.35669e-07
1.21126e-07
1.21124e-07
1.15234e-07
1.16644e-07
1.22377e-07
1.22376e-07
1.3567e-07
1.21127e-07
1.21124e-07
1.15234e-07
1.16645e-07
4.44023e-07
1.06565e-06
1.38703e-06
3.62108e-07
1.37915e-06
3.59889e-07
4.43555e-07
6.1165e-07
9.3204e-07
1.98733e-06
2.72688e-06
6.08156e-07
9.38632e-07
1.99408e-06
4.35627e-07
1.05126e-06
1.35675e-06
3.5379e-07
4.35459e-07
1.36322e-06
3.5572e-07
6.19029e-07
2.0169e-06
2.73984e-06
9.55654e-07
9.48983e-07
2.00986e-06
6.23047e-07
4.43197e-07
1.06547e-06
3.6106e-07
1.38726e-06
3.60281e-07
1.37902e-06
4.45041e-07
6.11659e-07
9.32678e-07
1.98756e-06
2.72635e-06
6.08219e-07
9.38064e-07
1.99432e-06
4.36899e-07
1.0517e-06
3.53884e-07
1.35645e-06
4.34503e-07
3.55642e-07
1.36394e-06
6.19096e-07
2.01687e-06
2.74085e-06
9.54676e-07
9.49387e-07
2.01013e-06
6.23031e-07
1.66508e-06
3.39725e-07
7.27605e-07
7.27171e-07
7.21652e-07
7.22213e-07
1.6733e-06
1.56674e-06
3.19282e-07
6.6959e-07
6.69743e-07
1.57528e-06
6.64595e-07
6.64939e-07
1.60003e-06
3.24376e-07
6.78505e-07
6.78847e-07
1.5914e-06
6.83292e-07
6.8341e-07
4.1244e-07
9.81968e-07
1.29394e-06
3.38307e-07
1.28786e-06
3.37743e-07
4.12794e-07
5.69507e-07
8.66866e-07
1.89432e-06
2.64013e-06
1.90176e-06
5.66426e-07
8.72213e-07
4.06049e-07
9.67317e-07
1.26458e-06
3.32511e-07
1.27085e-06
4.05857e-07
3.33054e-07
5.76486e-07
1.9256e-06
2.65473e-06
8.88477e-07
1.91809e-06
8.83182e-07
5.79458e-07
4.11982e-07
9.81519e-07
1.29502e-06
3.38277e-07
1.28679e-06
3.37742e-07
4.13878e-07
5.69569e-07
8.66931e-07
1.8932e-06
2.64062e-06
5.66344e-07
1.90219e-06
8.7306e-07
4.06658e-07
9.67726e-07
1.2638e-06
3.32512e-07
4.05422e-07
1.27163e-06
3.33061e-07
5.76428e-07
1.92589e-06
2.65528e-06
8.89488e-07
1.91753e-06
5.7954e-07
8.83419e-07
4.20345e-07
1.31091e-06
3.43001e-07
1.00898e-06
4.20088e-07
1.31725e-06
3.4361e-07
5.97256e-07
9.21135e-07
2.69824e-06
1.97221e-06
9.15842e-07
1.96436e-06
6.00534e-07
5.89965e-07
1.94176e-06
8.99592e-07
2.68421e-06
9.0479e-07
5.86757e-07
1.94922e-06
4.27465e-07
1.02372e-06
1.34022e-06
3.49252e-07
1.334e-06
3.48607e-07
4.2779e-07
4.21341e-07
1.31003e-06
3.42992e-07
1.00922e-06
4.19112e-07
1.31786e-06
3.43583e-07
5.97199e-07
9.22078e-07
2.69869e-06
1.9723e-06
1.964e-06
9.15976e-07
6.00679e-07
5.90023e-07
1.94095e-06
8.99654e-07
2.68473e-06
5.86677e-07
1.94874e-06
9.05262e-07
4.26563e-07
1.02336e-06
1.34104e-06
3.49204e-07
1.33316e-06
3.48566e-07
4.28765e-07
1.5675e-06
3.1912e-07
6.69601e-07
6.68443e-07
6.65366e-07
6.64716e-07
1.5741e-06
1.59892e-06
3.24528e-07
6.78873e-07
6.79349e-07
6.83388e-07
1.59239e-06
6.82499e-07
4.12194e-07
9.81457e-07
1.29497e-06
3.3897e-07
1.28692e-06
3.37276e-07
4.13749e-07
5.69546e-07
8.66994e-07
1.89408e-06
2.64071e-06
1.90213e-06
5.66405e-07
8.72796e-07
4.06658e-07
9.6785e-07
1.26366e-06
3.32111e-07
1.27178e-06
4.05363e-07
3.337e-07
5.76486e-07
1.92578e-06
2.65517e-06
8.88751e-07
1.91785e-06
8.83393e-07
5.79505e-07
4.13272e-07
9.81354e-07
3.38897e-07
1.29422e-06
3.37213e-07
1.28751e-06
4.13343e-07
5.69497e-07
8.67318e-07
1.89319e-06
2.64069e-06
5.66335e-07
1.90173e-06
8.72681e-07
4.06019e-07
9.67785e-07
3.32118e-07
1.26424e-06
4.06018e-07
3.33599e-07
1.27098e-06
5.76411e-07
1.92554e-06
2.65529e-06
8.88885e-07
1.91766e-06
5.79441e-07
8.83544e-07
4.21353e-07
1.31016e-06
3.42538e-07
1.0094e-06
4.18992e-07
1.31798e-06
3.44245e-07
5.97269e-07
9.21379e-07
2.69865e-06
1.97207e-06
9.16063e-07
1.96423e-06
6.00576e-07
5.90011e-07
1.94162e-06
8.99913e-07
2.68478e-06
9.05241e-07
5.86751e-07
1.94945e-06
4.26582e-07
1.02324e-06
1.34111e-06
3.49918e-07
1.3332e-06
3.48071e-07
4.28861e-07
4.20218e-07
3.42505e-07
1.31064e-06
1.00948e-06
4.19908e-07
3.44187e-07
1.31724e-06
5.97247e-07
9.21606e-07
2.69865e-06
1.97177e-06
1.96445e-06
9.16154e-07
6.00384e-07
5.89929e-07
1.94104e-06
9.00066e-07
2.68489e-06
5.86684e-07
1.94826e-06
9.05436e-07
4.27533e-07
1.02313e-06
3.49863e-07
1.34025e-06
3.48052e-07
1.33375e-06
4.27882e-07
4.11763e-07
9.81242e-07
3.38896e-07
1.29482e-06
3.37143e-07
1.28678e-06
4.13802e-07
5.7631e-07
1.92528e-06
2.65447e-06
8.88887e-07
8.82768e-07
1.91691e-06
5.79479e-07
4.20435e-07
1.31074e-06
3.4248e-07
1.00879e-06
4.2022e-07
1.31709e-06
3.44142e-07
5.97286e-07
9.21816e-07
2.69805e-06
1.97146e-06
6.00538e-07
9.15438e-07
1.96446e-06
5.90075e-07
1.94115e-06
8.99349e-07
2.68414e-06
5.86806e-07
9.04866e-07
1.94827e-06
4.27583e-07
1.02348e-06
1.33995e-06
3.49864e-07
4.27986e-07
1.33379e-06
3.48018e-07
4.21492e-07
3.42543e-07
1.3101e-06
1.0094e-06
4.19203e-07
3.44254e-07
1.31777e-06
5.97278e-07
9.21829e-07
2.699e-06
1.9721e-06
1.9637e-06
9.15701e-07
6.00586e-07
5.90098e-07
1.94107e-06
8.99512e-07
2.684e-06
5.86772e-07
1.94892e-06
9.05025e-07
4.26488e-07
1.02321e-06
3.4991e-07
1.34065e-06
3.48059e-07
1.33324e-06
4.28713e-07
1.56647e-06
3.19528e-07
6.68762e-07
6.69208e-07
6.64845e-07
6.65714e-07
1.57537e-06
1.60046e-06
3.24254e-07
6.79746e-07
6.78824e-07
6.82682e-07
1.59139e-06
6.83045e-07
4.129e-07
9.81671e-07
3.38906e-07
1.29422e-06
3.37254e-07
1.28777e-06
4.12746e-07
5.68287e-07
8.66951e-07
1.89454e-06
2.64078e-06
8.73296e-07
5.67502e-07
1.90056e-06
4.05854e-07
9.67736e-07
3.32084e-07
1.26445e-06
3.33617e-07
4.05897e-07
1.27105e-06
5.77423e-07
1.92494e-06
2.65538e-06
8.8929e-07
8.834e-07
1.91839e-06
5.78344e-07
4.21621e-07
3.42541e-07
1.31039e-06
1.00928e-06
4.19441e-07
3.44209e-07
1.31775e-06
5.97193e-07
9.20917e-07
2.69837e-06
1.97191e-06
6.00447e-07
9.15764e-07
1.96482e-06
5.89937e-07
1.9412e-06
8.99661e-07
2.68408e-06
5.86704e-07
9.04825e-07
1.9484e-06
4.26822e-07
1.02348e-06
3.4991e-07
1.341e-06
4.28869e-07
3.48076e-07
1.33352e-06
4.20435e-07
3.42538e-07
1.31095e-06
1.00935e-06
4.20147e-07
3.44219e-07
1.31713e-06
5.983e-07
9.22269e-07
2.69876e-06
1.97139e-06
1.96504e-06
9.15879e-07
5.99389e-07
5.88507e-07
1.94206e-06
8.99793e-07
2.68495e-06
5.8771e-07
1.9479e-06
9.05589e-07
4.27612e-07
1.02346e-06
3.49896e-07
1.34057e-06
3.48082e-07
1.33389e-06
4.27838e-07
1.59887e-06
3.24615e-07
6.78804e-07
6.79152e-07
1.59195e-06
6.83227e-07
6.83345e-07
1.66399e-06
3.40047e-07
7.27152e-07
7.2517e-07
1.67384e-06
7.21301e-07
7.22366e-07
4.43762e-07
1.06594e-06
1.38645e-06
3.61197e-07
1.37932e-06
3.60543e-07
4.43371e-07
6.11651e-07
9.32766e-07
1.98745e-06
2.725e-06
1.9956e-06
6.08311e-07
9.37923e-07
4.35267e-07
1.05121e-06
1.35693e-06
3.5442e-07
1.36351e-06
4.35087e-07
3.55173e-07
6.1902e-07
2.01814e-06
2.7411e-06
9.547e-07
2.00945e-06
9.49412e-07
6.22982e-07
4.42886e-07
1.06573e-06
1.38574e-06
3.6116e-07
1.37939e-06
3.60528e-07
4.44687e-07
6.11705e-07
9.32877e-07
1.98705e-06
2.7255e-06
6.08217e-07
1.99485e-06
9.38707e-07
4.36582e-07
1.05124e-06
1.3562e-06
3.544e-07
4.34255e-07
1.36313e-06
3.55131e-07
6.1897e-07
2.01784e-06
2.74161e-06
9.56117e-07
2.00921e-06
6.23102e-07
9.49364e-07
1.6648e-06
3.3974e-07
7.25609e-07
7.25529e-07
7.22484e-07
7.22259e-07
1.67315e-06
4.42919e-07
1.06545e-06
1.38679e-06
3.60971e-07
1.37887e-06
3.60187e-07
4.447e-07
6.11673e-07
9.33309e-07
1.98765e-06
2.72556e-06
1.99524e-06
6.08345e-07
9.37655e-07
4.36625e-07
1.05155e-06
1.35624e-06
3.54035e-07
1.36381e-06
4.34275e-07
3.55429e-07
6.19054e-07
2.01679e-06
2.74161e-06
9.54501e-07
2.00992e-06
9.50079e-07
6.23005e-07
4.4381e-07
1.0653e-06
3.60944e-07
1.38709e-06
3.60136e-07
1.37909e-06
4.43395e-07
6.09852e-07
9.33295e-07
1.98736e-06
2.72741e-06
6.08672e-07
1.99416e-06
9.38616e-07
4.35324e-07
1.05158e-06
3.53982e-07
1.35679e-06
4.3516e-07
3.55393e-07
1.36343e-06
6.20288e-07
2.01652e-06
2.7403e-06
9.54453e-07
2.00987e-06
6.20836e-07
9.49907e-07
4.4285e-07
1.06586e-06
3.60967e-07
1.38617e-06
3.6015e-07
1.3793e-06
4.44658e-07
6.11449e-07
9.32537e-07
1.98688e-06
2.72538e-06
9.38556e-07
6.08211e-07
1.99488e-06
4.3653e-07
1.05116e-06
3.54003e-07
1.35631e-06
3.55419e-07
4.3418e-07
1.36327e-06
6.19502e-07
2.01734e-06
2.74133e-06
9.55973e-07
9.49017e-07
2.00904e-06
6.20492e-07
1.66382e-06
3.40103e-07
7.27403e-07
7.26929e-07
7.21664e-07
7.21863e-07
1.67344e-06
4.43817e-07
1.06562e-06
3.62092e-07
1.38706e-06
3.59894e-07
1.37917e-06
4.43394e-07
6.11554e-07
9.32889e-07
1.98798e-06
2.72755e-06
9.39193e-07
6.08865e-07
1.99427e-06
4.35341e-07
1.05156e-06
3.5394e-07
1.35696e-06
3.55723e-07
4.35167e-07
1.3635e-06
6.19338e-07
2.01738e-06
2.74037e-06
9.56176e-07
9.49345e-07
2.00956e-06
6.23177e-07
4.99174e-07
4.99985e-07
4.99987e-07
4.99936e-07
4.45591e-07
4.54243e-07
4.54263e-07
4.64013e-07
4.03815e-07
4.18881e-07
4.18907e-07
4.39731e-07
3.68435e-07
3.88806e-07
3.88833e-07
4.17806e-07
3.3808e-07
3.6226e-07
3.6228e-07
3.96099e-07
3.11696e-07
3.38347e-07
3.38363e-07
3.74403e-07
2.88503e-07
3.16639e-07
3.16655e-07
3.53506e-07
2.67932e-07
2.96963e-07
2.9698e-07
3.33855e-07
2.49567e-07
2.79259e-07
2.79277e-07
3.16124e-07
2.33104e-07
2.63526e-07
2.63542e-07
3.00718e-07
2.18316e-07
2.49767e-07
2.49783e-07
2.87928e-07
2.05026e-07
2.37979e-07
2.37994e-07
2.78086e-07
1.93093e-07
2.28162e-07
2.28175e-07
2.71358e-07
1.82404e-07
2.20323e-07
2.20334e-07
2.67523e-07
1.72871e-07
2.14461e-07
2.14472e-07
2.66993e-07
1.64418e-07
2.10592e-07
2.10599e-07
2.69791e-07
1.56982e-07
2.08719e-07
2.08727e-07
2.75942e-07
1.50511e-07
2.08853e-07
2.08862e-07
2.85328e-07
1.4496e-07
2.11049e-07
2.11062e-07
2.98185e-07
2.15322e-07
3.14473e-07
5.06193e-07
5.0557e-07
5.05571e-07
5.06197e-07
5.05569e-07
5.05569e-07
5.05986e-07
5.05986e-07
5.05985e-07
5.05983e-07
5.05574e-07
5.05563e-07
5.06199e-07
5.0557e-07
5.0556e-07
5.06197e-07
4.9993e-07
4.67477e-07
4.99993e-07