/*--------------------------------*- C++ -*----------------------------------*\
| =========                 |                                                 |
| \\      /  F ield         | OpenFOAM: The Open Source CFD Toolbox           |
|  \\    /   O peration     | Version:  2312                                  |
|   \\  /    A nd           | Website:  www.openfoam.com                      |
|    \\/     M anipulation  |                                                 |
\*---------------------------------------------------------------------------*/
FoamFile
{
    version     2.0;
    format      ascii;
    arch        "LSB;label=32;scalar=64";
    class       volScalarField;
    location    "850";
    object      k;
}
// * * * * * * * * * * * * * * * * * * * * * * * * * * * * * * * * * * * * * //

dimensions      [0 2 -2 0 0 0 0];

internalField   nonuniform List<scalar> 
43008
(
1.571e-05
1.6115e-05
1.52903e-05
1.6066e-05
1.6066e-05
1.76121e-05
1.7252e-05
1.75297e-05
1.61144e-05
1.61148e-05
1.60671e-05
1.60674e-05
1.75308e-05
1.61149e-05
1.61145e-05
1.60676e-05
1.60672e-05
1.60676e-05
1.60669e-05
1.72535e-05
1.75291e-05
1.61149e-05
1.60676e-05
1.60675e-05
1.75173e-05
1.76026e-05
1.60656e-05
1.60659e-05
1.76033e-05
1.6066e-05
1.60658e-05
1.60654e-05
1.76036e-05
1.6066e-05
5.00972e-05
6.99079e-05
4.93378e-05
6.99369e-05
6.97731e-05
5.00986e-05
6.99084e-05
4.93365e-05
6.99374e-05
1.57101e-05
1.57099e-05
1.57097e-05
1.53906e-05
1.53907e-05
1.53905e-05
1.53904e-05
2.60095e-05
1.60923e-05
4.29286e-05
1.53536e-05
6.97974e-05
6.97733e-05
2.60131e-05
1.54377e-05
4.24535e-05
1.60924e-05
2.54929e-05
1.53536e-05
4.29348e-05
1.73383e-05
5.77556e-05
5.77671e-05
5.19464e-05
6.99786e-05
5.12827e-05
7.00055e-05
6.97127e-05
6.96906e-05
5.19474e-05
6.99794e-05
5.12813e-05
7.00062e-05
1.52904e-05
1.52902e-05
1.529e-05
2.76536e-05
4.38827e-05
1.51274e-05
1.60684e-05
2.71075e-05
4.43333e-05
1.50599e-05
6.97128e-05
6.96907e-05
2.76569e-05
1.51273e-05
4.38858e-05
1.60686e-05
2.711e-05
1.50598e-05
4.43286e-05
5.83089e-05
5.83194e-05
1.7727e-05
5.8565e-05
5.85759e-05
6.97959e-05
6.97719e-05
6.97973e-05
6.97734e-05
5.74662e-05
5.74781e-05
1.73477e-05
5.77585e-05
5.777e-05
6.97297e-05
6.97527e-05
6.97312e-05
6.97543e-05
1.74112e-05
5.81768e-05
5.81879e-05
5.79032e-05
5.79147e-05
5.00965e-05
6.99038e-05
4.93365e-05
6.99328e-05
2.60167e-05
4.24532e-05
1.54375e-05
1.60917e-05
2.54864e-05
4.29307e-05
1.53534e-05
2.60165e-05
4.24549e-05
1.54375e-05
1.60921e-05
2.54883e-05
4.29326e-05
1.53533e-05
5.03441e-05
6.99723e-05
6.99439e-05
5.10562e-05
5.0343e-05
6.99682e-05
6.994e-05
5.10554e-05
2.62859e-05
1.60784e-05
4.36443e-05
1.51982e-05
4.31824e-05
1.5274e-05
2.6829e-05
2.62851e-05
1.60788e-05
4.36463e-05
1.51981e-05
4.31842e-05
1.5274e-05
2.68276e-05
1.73475e-05
5.77657e-05
5.77597e-05
6.97721e-05
6.97311e-05
6.97542e-05
1.74127e-05
5.81833e-05
5.81775e-05
5.79102e-05
5.79049e-05
6.973e-05
6.97529e-05
2.60166e-05
4.24558e-05
1.54378e-05
1.60923e-05
2.54879e-05
4.29359e-05
1.53536e-05
5.00971e-05
6.99041e-05
4.93358e-05
6.99332e-05
2.60123e-05
1.54373e-05
4.24549e-05
1.60919e-05
2.549e-05
1.53531e-05
4.29346e-05
5.03427e-05
6.99728e-05
6.99446e-05
5.10574e-05
2.62865e-05
1.60789e-05
4.36489e-05
1.51985e-05
4.31842e-05
1.52743e-05
2.68293e-05
5.03421e-05
6.99685e-05
6.99402e-05
5.10562e-05
2.62878e-05
1.60785e-05
1.51979e-05
4.36451e-05
1.52738e-05
4.31833e-05
2.6826e-05
5.0082e-05
6.99357e-05
2.60163e-05
1.60915e-05
1.53534e-05
4.29308e-05
5.00909e-05
6.99318e-05
2.62877e-05
1.6079e-05
4.3641e-05
1.51984e-05
4.3179e-05
1.52742e-05
2.68215e-05
5.03505e-05
6.99705e-05
6.99423e-05
5.1042e-05
2.62831e-05
1.60783e-05
1.51982e-05
4.36436e-05
1.52741e-05
4.31788e-05
2.6828e-05
5.03453e-05
6.99669e-05
6.99384e-05
5.10502e-05
5.74733e-05
5.74685e-05
1.73497e-05
5.77656e-05
5.77614e-05
6.9796e-05
6.9772e-05
6.97313e-05
6.97544e-05
1.74106e-05
5.81834e-05
5.81793e-05
5.79098e-05
5.79056e-05
6.97299e-05
6.9753e-05
2.60176e-05
1.54376e-05
4.24557e-05
1.60921e-05
2.54863e-05
1.53534e-05
4.29361e-05
5.00916e-05
6.99072e-05
4.93448e-05
6.99361e-05
5.00907e-05
6.99043e-05
4.93435e-05
6.99336e-05
2.629e-05
1.6079e-05
1.51983e-05
4.36448e-05
1.52742e-05
4.31821e-05
2.68247e-05
2.62849e-05
1.60789e-05
1.51983e-05
4.36469e-05
1.52741e-05
4.31847e-05
2.6831e-05
5.03513e-05
6.99713e-05
6.99433e-05
5.10503e-05
5.03503e-05
6.99689e-05
6.99405e-05
5.10496e-05
6.9771e-05
6.97736e-05
1.74142e-05
5.81737e-05
5.8185e-05
5.79003e-05
5.79114e-05
6.97289e-05
6.97519e-05
6.97315e-05
6.97546e-05
6.9711e-05
6.96891e-05
6.97127e-05
6.96907e-05
5.83121e-05
5.83231e-05
1.77454e-05
5.85692e-05
5.85788e-05
5.19454e-05
6.99746e-05
5.12814e-05
7.00018e-05
2.76591e-05
4.38844e-05
1.51273e-05
1.60682e-05
2.71071e-05
4.433e-05
1.50598e-05
2.7657e-05
4.38861e-05
1.51272e-05
1.60682e-05
2.71066e-05
4.43304e-05
1.50596e-05
5.83182e-05
5.83133e-05
1.77443e-05
5.85747e-05
5.85706e-05
6.97113e-05
6.96895e-05
2.76548e-05
4.38865e-05
1.51276e-05
1.60685e-05
2.71076e-05
4.43362e-05
1.506e-05
5.19463e-05
6.99749e-05
5.12807e-05
7.0002e-05
2.76567e-05
1.5127e-05
4.38869e-05
1.60683e-05
2.71077e-05
1.50595e-05
4.43321e-05
5.19335e-05
6.99771e-05
5.12884e-05
7.00042e-05
2.76591e-05
1.51273e-05
4.38816e-05
1.60676e-05
2.71038e-05
1.50597e-05
4.43331e-05
5.19406e-05
6.99732e-05
5.12834e-05
7.00004e-05
5.83184e-05
5.83142e-05
1.77455e-05
5.85746e-05
5.85706e-05
6.97114e-05
6.96893e-05
2.76557e-05
1.51273e-05
4.38881e-05
1.60685e-05
2.71057e-05
1.50599e-05
4.434e-05
5.194e-05
6.99778e-05
5.12899e-05
7.00048e-05
5.19393e-05
6.99752e-05
5.1289e-05
7.00025e-05
6.97103e-05
6.96883e-05
6.9713e-05
6.96908e-05
6.97455e-05
4.98493e-05
6.90334e-05
5.70696e-05
6.90257e-05
5.68505e-05
6.97567e-05
7.11552e-05
7.30043e-05
6.99192e-05
7.11513e-05
7.3107e-05
6.97448e-05
4.95918e-05
6.90191e-05
5.64673e-05
6.97343e-05
6.90253e-05
5.66924e-05
7.11316e-05
7.3254e-05
6.99259e-05
7.31575e-05
7.11353e-05
6.97947e-05
6.97756e-05
6.97454e-05
4.9848e-05
5.70685e-05
6.9034e-05
5.68484e-05
6.90262e-05
6.97566e-05
7.11546e-05
7.30042e-05
6.99196e-05
7.11508e-05
7.3102e-05
6.97447e-05
4.95934e-05
5.6465e-05
6.90197e-05
6.97341e-05
5.66914e-05
6.9026e-05
7.11311e-05
7.32498e-05
6.99264e-05
7.31558e-05
7.11349e-05
6.97949e-05
6.97757e-05
8.65098e-05
7.26165e-05
7.26104e-05
7.26157e-05
7.26097e-05
8.66063e-05
5.44783e-05
5.75362e-05
3.5809e-05
6.84869e-05
5.45464e-05
5.75475e-05
3.58292e-05
6.84999e-05
8.64601e-05
7.26392e-05
7.26331e-05
5.47225e-05
6.85351e-05
5.76857e-05
3.62388e-05
3.61021e-05
6.85051e-05
5.48345e-05
5.47908e-05
6.85481e-05
5.76969e-05
3.62582e-05
3.6122e-05
6.8516e-05
5.49006e-05
6.97974e-05
5.17263e-05
6.90943e-05
5.84317e-05
6.90811e-05
5.82353e-05
6.98097e-05
7.10753e-05
7.35726e-05
6.99892e-05
7.10719e-05
7.36581e-05
6.9796e-05
5.15099e-05
6.9063e-05
5.79107e-05
6.97839e-05
6.9076e-05
5.81124e-05
7.10519e-05
7.37768e-05
6.99953e-05
7.36989e-05
7.10552e-05
6.97107e-05
6.96923e-05
6.97972e-05
5.17249e-05
5.84305e-05
6.90949e-05
5.82332e-05
6.90814e-05
6.98094e-05
7.10749e-05
7.35737e-05
6.99898e-05
7.10716e-05
7.36529e-05
6.97958e-05
5.1511e-05
5.79085e-05
6.90633e-05
6.97837e-05
5.81112e-05
6.90765e-05
7.10516e-05
7.37726e-05
6.9996e-05
7.36974e-05
7.10549e-05
6.97108e-05
6.96926e-05
8.7051e-05
7.25259e-05
7.25198e-05
7.25253e-05
7.25193e-05
8.71353e-05
5.58379e-05
3.73685e-05
6.86433e-05
5.83724e-05
5.57332e-05
3.74994e-05
6.86704e-05
5.59029e-05
3.73878e-05
6.86546e-05
5.83837e-05
5.58029e-05
3.75196e-05
6.86836e-05
8.70115e-05
7.25478e-05
7.25418e-05
8.69238e-05
7.25484e-05
7.25424e-05
5.60499e-05
6.87121e-05
5.85028e-05
3.79115e-05
3.77785e-05
6.86862e-05
5.6152e-05
5.61213e-05
6.87254e-05
5.85136e-05
3.79295e-05
3.77999e-05
6.86978e-05
5.62165e-05
6.97936e-05
6.97741e-05
6.97948e-05
6.97757e-05
8.65151e-05
7.26182e-05
7.26116e-05
7.26173e-05
7.26108e-05
8.66104e-05
5.44786e-05
3.56668e-05
6.8457e-05
5.75392e-05
5.43652e-05
6.84882e-05
3.58101e-05
5.45459e-05
3.56855e-05
6.84688e-05
5.7551e-05
5.44319e-05
6.84999e-05
3.58286e-05
8.64631e-05
7.264e-05
7.26334e-05
8.63661e-05
7.26409e-05
7.26343e-05
5.47227e-05
6.85362e-05
5.76883e-05
3.62394e-05
6.85061e-05
5.48323e-05
3.61004e-05
5.47892e-05
6.85481e-05
5.77001e-05
3.62583e-05
6.85179e-05
5.49005e-05
3.61176e-05
6.97317e-05
6.97506e-05
6.97333e-05
6.97521e-05
8.67501e-05
7.25947e-05
7.25881e-05
8.66598e-05
7.25954e-05
7.25889e-05
5.54071e-05
3.70833e-05
5.81112e-05
6.86286e-05
6.85999e-05
3.69502e-05
5.55103e-05
5.54745e-05
3.71053e-05
5.81223e-05
6.86406e-05
6.8612e-05
3.69656e-05
5.55789e-05
5.5175e-05
6.85539e-05
3.65268e-05
5.79714e-05
5.50702e-05
6.85836e-05
3.66628e-05
5.52438e-05
6.85658e-05
3.65449e-05
5.79831e-05
5.51367e-05
6.85954e-05
3.66842e-05
8.67987e-05
7.25726e-05
7.25661e-05
7.2572e-05
7.25654e-05
8.68858e-05
6.97438e-05
4.98481e-05
6.90325e-05
5.70662e-05
6.90247e-05
5.68453e-05
6.9755e-05
7.11533e-05
7.29846e-05
6.9915e-05
7.11496e-05
7.30864e-05
6.9743e-05
4.95911e-05
6.90181e-05
5.64617e-05
6.90244e-05
6.97325e-05
5.66891e-05
7.11298e-05
7.32343e-05
6.99219e-05
7.31372e-05
7.11335e-05
6.97694e-05
6.9035e-05
5.72187e-05
5.05853e-05
6.97577e-05
6.90449e-05
5.74319e-05
7.1092e-05
6.99615e-05
7.35293e-05
7.10954e-05
7.34443e-05
7.11155e-05
7.33023e-05
6.99553e-05
7.11118e-05
7.33977e-05
6.97706e-05
5.08219e-05
6.90592e-05
5.77792e-05
6.97826e-05
6.90475e-05
5.75719e-05
6.97677e-05
6.90341e-05
5.72134e-05
5.05846e-05
6.9756e-05
6.90441e-05
5.74283e-05
7.10903e-05
6.99578e-05
7.3508e-05
7.3425e-05
7.10936e-05
7.11136e-05
7.32837e-05
6.99512e-05
7.11101e-05
7.33761e-05
6.97688e-05
5.08208e-05
6.90586e-05
5.77753e-05
6.90466e-05
5.75666e-05
6.97809e-05
8.6513e-05
7.26126e-05
7.26178e-05
7.26117e-05
7.2617e-05
8.66135e-05
5.45487e-05
5.75466e-05
6.8501e-05
3.58292e-05
5.44826e-05
5.754e-05
3.58107e-05
6.84913e-05
8.64669e-05
7.26352e-05
7.26405e-05
5.47863e-05
6.85493e-05
5.76953e-05
3.62601e-05
6.85142e-05
3.61185e-05
5.49024e-05
5.47171e-05
6.85395e-05
5.76903e-05
3.624e-05
3.60988e-05
6.85043e-05
5.48334e-05
6.97937e-05
6.97741e-05
6.97332e-05
6.9752e-05
8.67538e-05
7.25891e-05
7.25943e-05
8.66569e-05
7.25899e-05
7.25951e-05
5.54717e-05
3.71048e-05
5.81176e-05
6.86412e-05
3.69665e-05
6.86083e-05
5.55801e-05
5.54029e-05
3.70858e-05
5.81126e-05
6.86312e-05
6.85979e-05
3.69487e-05
5.55131e-05
5.52476e-05
6.85623e-05
3.6545e-05
5.79782e-05
3.66846e-05
5.51344e-05
6.85958e-05
5.51805e-05
6.85521e-05
3.65265e-05
5.79726e-05
5.50664e-05
6.85859e-05
3.66648e-05
8.6795e-05
7.25673e-05
7.25724e-05
7.25665e-05
7.25717e-05
8.68884e-05
6.97319e-05
6.97508e-05
6.97443e-05
4.98476e-05
6.90334e-05
5.70633e-05
6.90256e-05
5.68446e-05
6.97555e-05
7.11527e-05
7.29808e-05
6.99153e-05
7.11489e-05
7.30811e-05
6.97435e-05
4.95918e-05
6.9019e-05
5.64611e-05
6.90252e-05
6.97329e-05
5.66863e-05
7.11292e-05
7.32299e-05
6.99221e-05
7.31318e-05
7.11329e-05
6.97692e-05
5.72164e-05
6.90355e-05
5.05867e-05
6.97576e-05
5.74306e-05
6.90455e-05
7.10915e-05
6.99621e-05
7.35265e-05
7.1095e-05
7.34408e-05
7.1115e-05
7.33032e-05
6.99556e-05
7.11114e-05
7.33925e-05
6.97704e-05
5.08206e-05
5.7778e-05
6.90598e-05
6.97824e-05
5.75696e-05
6.90479e-05
6.97682e-05
6.90349e-05
5.72128e-05
5.05853e-05
6.97565e-05
6.90449e-05
5.74254e-05
7.10897e-05
6.9958e-05
7.35055e-05
7.34192e-05
7.10931e-05
7.11131e-05
7.32772e-05
6.99515e-05
7.11095e-05
7.3373e-05
6.97694e-05
5.082e-05
6.90592e-05
5.77727e-05
6.90475e-05
5.75662e-05
6.97814e-05
6.97438e-05
4.98562e-05
5.70479e-05
6.90326e-05
5.68585e-05
6.9025e-05
6.97548e-05
7.11291e-05
7.32445e-05
6.99248e-05
7.31468e-05
7.11335e-05
6.97434e-05
4.98507e-05
6.90325e-05
5.70614e-05
6.90248e-05
5.68458e-05
6.97545e-05
7.11281e-05
7.32289e-05
6.99208e-05
7.31314e-05
7.11318e-05
6.97675e-05
5.72259e-05
6.90342e-05
5.05707e-05
6.9756e-05
5.74108e-05
6.90441e-05
7.10895e-05
6.99602e-05
7.35193e-05
7.34316e-05
7.10936e-05
7.11136e-05
7.32931e-05
6.99535e-05
7.11093e-05
7.33849e-05
6.97688e-05
5.0828e-05
5.77588e-05
6.90585e-05
5.75782e-05
6.90466e-05
6.97807e-05
6.97672e-05
6.90341e-05
5.72137e-05
5.05792e-05
6.97555e-05
6.9044e-05
5.74236e-05
7.10885e-05
6.99562e-05
7.35034e-05
7.34157e-05
7.10919e-05
7.11119e-05
7.32771e-05
6.99498e-05
7.11084e-05
7.3369e-05
6.97683e-05
5.08229e-05
6.90584e-05
5.77711e-05
6.90465e-05
5.75668e-05
6.97803e-05
8.65096e-05
7.26119e-05
7.26176e-05
7.26111e-05
7.26168e-05
8.66106e-05
5.45488e-05
3.5686e-05
6.84651e-05
5.75463e-05
6.85002e-05
5.443e-05
3.58318e-05
5.44793e-05
3.56708e-05
6.84572e-05
5.75414e-05
3.58094e-05
5.43646e-05
6.84886e-05
8.64644e-05
7.26337e-05
7.26393e-05
7.26346e-05
8.63592e-05
7.26403e-05
5.47885e-05
6.85485e-05
5.76951e-05
3.6262e-05
6.85143e-05
3.61184e-05
5.49045e-05
5.47234e-05
6.85367e-05
5.76907e-05
3.62376e-05
3.61025e-05
6.85063e-05
5.48316e-05
6.97935e-05
6.97743e-05
6.97334e-05
6.97522e-05
8.67506e-05
7.25885e-05
7.25941e-05
8.66544e-05
7.25892e-05
7.25948e-05
5.54715e-05
3.71072e-05
5.81174e-05
6.86391e-05
3.69676e-05
6.86097e-05
5.55828e-05
5.54085e-05
3.7084e-05
5.81135e-05
6.8629e-05
6.86003e-05
3.69523e-05
5.5512e-05
5.52497e-05
6.85621e-05
3.65449e-05
5.79782e-05
3.66855e-05
5.5135e-05
6.85951e-05
5.51766e-05
6.85543e-05
3.65297e-05
5.79736e-05
5.50712e-05
6.85838e-05
3.6664e-05
8.67929e-05
7.25665e-05
7.25721e-05
7.25658e-05
7.25714e-05
8.68851e-05
6.9732e-05
6.97508e-05
6.97439e-05
4.98566e-05
5.70661e-05
6.9032e-05
5.68522e-05
6.90243e-05
6.9755e-05
7.11537e-05
7.29991e-05
6.99182e-05
7.30987e-05
7.11499e-05
6.97431e-05
4.95862e-05
5.64689e-05
6.90178e-05
5.66888e-05
6.97326e-05
6.90239e-05
7.11303e-05
7.32469e-05
6.99251e-05
7.31526e-05
7.11339e-05
6.97435e-05
4.98555e-05
5.70644e-05
6.90319e-05
5.68463e-05
6.90242e-05
6.97547e-05
7.11531e-05
7.29786e-05
6.99157e-05
7.11493e-05
7.30866e-05
6.97428e-05
4.95854e-05
5.64627e-05
6.90177e-05
6.97323e-05
5.66872e-05
6.90238e-05
7.11296e-05
7.32349e-05
6.99224e-05
7.31314e-05
7.11333e-05
6.97676e-05
5.722e-05
6.90336e-05
5.05797e-05
6.97561e-05
5.74282e-05
6.90435e-05
7.10907e-05
6.99608e-05
7.35233e-05
7.34379e-05
7.1094e-05
7.1114e-05
7.33e-05
6.99543e-05
7.11106e-05
7.33886e-05
6.97689e-05
5.08292e-05
5.77755e-05
6.9058e-05
5.7573e-05
6.90461e-05
6.97808e-05
6.97673e-05
5.72144e-05
6.90335e-05
5.05787e-05
6.97556e-05
5.74266e-05
6.90434e-05
7.109e-05
6.99582e-05
7.35106e-05
7.34154e-05
7.10935e-05
7.11134e-05
7.32776e-05
6.99518e-05
7.11098e-05
7.3376e-05
6.97685e-05
5.08283e-05
5.7774e-05
6.90579e-05
5.75676e-05
6.9046e-05
6.97805e-05
6.97926e-05
6.97733e-05
6.97951e-05
6.97759e-05
8.67467e-05
7.25931e-05
7.2587e-05
8.66532e-05
7.25938e-05
7.25877e-05
5.54076e-05
3.70841e-05
5.81081e-05
6.86269e-05
5.5512e-05
3.69516e-05
6.85988e-05
5.54762e-05
3.71045e-05
5.81188e-05
6.86401e-05
5.55792e-05
3.69707e-05
6.86097e-05
5.51753e-05
6.85522e-05
3.65289e-05
5.79683e-05
5.507e-05
3.66636e-05
6.85823e-05
5.52434e-05
6.85636e-05
3.6549e-05
5.79797e-05
5.51385e-05
3.66854e-05
6.85949e-05
8.67915e-05
7.25711e-05
7.2565e-05
8.6882e-05
7.25704e-05
7.25644e-05
6.9731e-05
6.97498e-05
6.97336e-05
6.97524e-05
6.97092e-05
6.96908e-05
6.97108e-05
6.96925e-05
8.70566e-05
7.25274e-05
7.25209e-05
7.25267e-05
7.25203e-05
8.71396e-05
5.58367e-05
3.73669e-05
6.86441e-05
5.83762e-05
5.57325e-05
6.86722e-05
3.75005e-05
5.59053e-05
3.73835e-05
6.86564e-05
5.83869e-05
5.58002e-05
6.86841e-05
3.75187e-05
8.70154e-05
7.25493e-05
7.25428e-05
8.69296e-05
7.255e-05
7.25434e-05
5.60496e-05
6.8714e-05
5.85064e-05
3.79136e-05
6.86875e-05
5.61497e-05
3.7776e-05
5.61179e-05
6.87258e-05
5.85175e-05
3.7927e-05
6.86998e-05
5.62179e-05
3.77963e-05
6.97958e-05
5.1725e-05
6.90958e-05
5.84276e-05
6.90786e-05
5.82302e-05
6.98082e-05
7.10736e-05
7.35551e-05
6.99855e-05
7.10703e-05
7.36356e-05
6.97945e-05
5.1509e-05
6.90618e-05
5.79054e-05
6.90758e-05
6.97822e-05
5.81084e-05
7.10503e-05
7.3754e-05
6.99918e-05
7.36816e-05
7.10535e-05
8.70556e-05
7.25219e-05
7.25271e-05
7.25212e-05
7.25264e-05
8.71406e-05
5.59051e-05
3.73846e-05
6.86532e-05
5.83819e-05
6.86846e-05
5.58001e-05
3.75209e-05
5.58373e-05
3.73655e-05
6.86428e-05
5.83766e-05
3.75018e-05
5.57311e-05
6.86747e-05
8.7018e-05
7.25439e-05
7.2549e-05
7.25445e-05
8.69277e-05
7.25497e-05
5.61175e-05
6.87269e-05
5.85123e-05
3.79308e-05
6.86961e-05
3.77954e-05
5.62154e-05
5.60499e-05
6.87169e-05
5.85071e-05
3.7913e-05
3.77761e-05
6.86859e-05
5.61466e-05
6.97095e-05
6.96911e-05
6.97963e-05
5.17242e-05
6.90943e-05
5.84254e-05
6.90811e-05
5.82298e-05
6.98086e-05
7.10731e-05
7.3549e-05
6.99857e-05
7.10698e-05
7.36338e-05
6.97949e-05
5.15099e-05
6.9063e-05
5.79053e-05
6.9076e-05
6.97827e-05
5.8106e-05
7.10497e-05
7.37534e-05
6.99921e-05
7.36748e-05
7.10529e-05
6.97956e-05
5.1732e-05
5.84131e-05
6.90957e-05
5.824e-05
6.90781e-05
6.98078e-05
7.10736e-05
7.35641e-05
6.99877e-05
7.36457e-05
7.10696e-05
6.97942e-05
5.14964e-05
5.79161e-05
6.90616e-05
5.80928e-05
6.97821e-05
6.90759e-05
7.10496e-05
7.37656e-05
6.99941e-05
7.36895e-05
7.10535e-05
6.97951e-05
5.17272e-05
6.90955e-05
5.8424e-05
6.9078e-05
5.823e-05
6.98074e-05
7.10719e-05
7.35478e-05
6.99841e-05
7.10686e-05
7.36296e-05
6.97938e-05
5.15039e-05
6.90616e-05
5.79054e-05
6.97816e-05
6.90757e-05
5.81045e-05
7.10485e-05
7.37502e-05
6.99903e-05
7.36724e-05
7.10517e-05
8.70537e-05
7.25212e-05
7.25268e-05
7.25206e-05
7.25262e-05
8.71375e-05
5.59082e-05
3.73847e-05
6.8655e-05
5.83819e-05
6.86826e-05
5.57992e-05
3.75216e-05
5.58377e-05
3.73679e-05
6.86446e-05
5.83781e-05
3.74998e-05
5.57343e-05
6.86725e-05
8.70134e-05
7.25432e-05
7.25488e-05
7.25438e-05
8.69255e-05
7.25494e-05
5.61152e-05
6.87244e-05
5.8513e-05
3.79321e-05
6.8698e-05
3.77967e-05
5.62236e-05
5.60517e-05
6.87143e-05
5.85086e-05
3.7909e-05
3.77802e-05
6.86879e-05
5.61519e-05
6.97094e-05
6.96912e-05
6.97957e-05
5.17335e-05
5.8428e-05
6.90952e-05
5.82361e-05
6.90779e-05
6.9808e-05
7.10741e-05
7.35696e-05
6.99884e-05
7.36496e-05
7.10708e-05
6.97943e-05
5.15037e-05
5.79116e-05
6.90613e-05
5.81086e-05
6.97822e-05
6.90753e-05
7.10508e-05
7.37695e-05
6.99947e-05
7.36948e-05
7.1054e-05
6.97952e-05
5.17328e-05
5.84266e-05
6.90952e-05
5.82307e-05
6.90776e-05
6.98076e-05
7.10734e-05
7.35474e-05
6.9986e-05
7.107e-05
7.36374e-05
6.9794e-05
5.15029e-05
5.79062e-05
6.90611e-05
6.97817e-05
5.81072e-05
6.90752e-05
7.105e-05
7.37583e-05
6.99922e-05
7.36718e-05
7.10532e-05
6.97084e-05
6.96901e-05
6.9711e-05
6.96928e-05
1.59856e-05
1.59858e-05
1.56003e-05
1.58591e-05
1.58594e-05
1.62836e-05
1.64158e-05
3.44249e-05
1.72605e-05
2.26281e-05
2.2626e-05
1.54943e-05
1.54946e-05
1.51928e-05
1.53773e-05
1.53776e-05
1.57732e-05
1.58981e-05
3.61842e-05
2.3678e-05
2.36799e-05
1.76187e-05
3.60541e-05
2.3743e-05
2.37549e-05
3.4422e-05
2.25502e-05
2.25526e-05
1.72706e-05
3.42912e-05
2.26353e-05
2.26392e-05
3.56175e-05
1.75018e-05
2.34686e-05
2.34742e-05
2.33729e-05
2.33801e-05
3.57497e-05
3.44352e-05
1.72712e-05
2.26327e-05
2.2632e-05
3.56105e-05
1.75034e-05
2.34669e-05
2.34675e-05
2.33895e-05
2.3378e-05
3.57533e-05
3.44252e-05
2.25547e-05
2.25623e-05
1.72708e-05
2.26221e-05
3.42918e-05
2.26401e-05
3.56198e-05
1.75014e-05
2.34725e-05
2.34571e-05
2.33776e-05
2.33906e-05
3.57505e-05
3.56212e-05
1.75114e-05
2.34553e-05
2.34652e-05
3.57512e-05
2.33889e-05
2.3391e-05
3.61823e-05
2.36657e-05
2.36704e-05
1.76316e-05
3.605e-05
2.37705e-05
2.37595e-05
3.61878e-05
2.36786e-05
2.36693e-05
1.76316e-05
2.37597e-05
3.60472e-05
2.37578e-05
3.61888e-05
2.36712e-05
2.36776e-05
1.76324e-05
2.37484e-05
3.60512e-05
2.37716e-05
1.59856e-05
1.59859e-05
1.56005e-05
1.58591e-05
1.58594e-05
1.62836e-05
1.64158e-05
1.59854e-05
1.59858e-05
1.56003e-05
1.5859e-05
1.58593e-05
1.62835e-05
1.64157e-05
1.59855e-05
1.59856e-05
1.56001e-05
1.5859e-05
1.58592e-05
1.62834e-05
1.64156e-05
1.54941e-05
1.56135e-05
1.56138e-05
1.57352e-05
1.57355e-05
1.61533e-05
1.60247e-05
1.54942e-05
1.56135e-05
1.56138e-05
1.57352e-05
1.57355e-05
1.61533e-05
1.60247e-05
1.5494e-05
1.56134e-05
1.56137e-05
1.57351e-05
1.57354e-05
1.61531e-05
1.60246e-05
1.54939e-05
1.56134e-05
1.56136e-05
1.57351e-05
1.57353e-05
1.61531e-05
1.60246e-05
1.82987e-05
2.5886e-05
3.01506e-05
1.69934e-05
3.00099e-05
1.69765e-05
1.83163e-05
2.07141e-05
3.6932e-05
4.28187e-05
2.53487e-05
2.52666e-05
3.68162e-05
2.07559e-05
1.82872e-05
2.58889e-05
1.70031e-05
3.01501e-05
1.69698e-05
3.00193e-05
1.83322e-05
2.05492e-05
2.49474e-05
3.64089e-05
4.2565e-05
2.0516e-05
2.5038e-05
3.65218e-05
1.82002e-05
2.56141e-05
1.68832e-05
2.95942e-05
1.81587e-05
1.69124e-05
2.97244e-05
2.07162e-05
3.69401e-05
4.28204e-05
2.53495e-05
2.5265e-05
3.68183e-05
2.07511e-05
3.47387e-05
1.73339e-05
2.28973e-05
2.2899e-05
2.28293e-05
2.28338e-05
3.48732e-05
1.54943e-05
1.54946e-05
1.51929e-05
1.53773e-05
1.53776e-05
1.57732e-05
1.58981e-05
1.54942e-05
1.54945e-05
1.51928e-05
1.53772e-05
1.53775e-05
1.5773e-05
1.58979e-05
1.54942e-05
1.54944e-05
1.51926e-05
1.53772e-05
1.53774e-05
1.5773e-05
1.58979e-05
1.88951e-05
2.75239e-05
3.18513e-05
1.74315e-05
3.17216e-05
1.74048e-05
1.89168e-05
2.14115e-05
2.62338e-05
3.80314e-05
4.39888e-05
2.13651e-05
2.63325e-05
3.81446e-05
1.8759e-05
2.72362e-05
3.12915e-05
1.72835e-05
1.87348e-05
3.14291e-05
1.73094e-05
2.15959e-05
3.85452e-05
4.42224e-05
2.66634e-05
2.6569e-05
3.84249e-05
2.16394e-05
1.88792e-05
2.75273e-05
1.74464e-05
3.18597e-05
1.73958e-05
3.17277e-05
1.89432e-05
2.14099e-05
2.62333e-05
3.80349e-05
4.39901e-05
2.13684e-05
2.63289e-05
3.81476e-05
1.87724e-05
2.72393e-05
1.72759e-05
3.13006e-05
1.87207e-05
1.73193e-05
3.14321e-05
2.15906e-05
3.85426e-05
4.42268e-05
2.66609e-05
2.65683e-05
3.84315e-05
2.16715e-05
3.64811e-05
1.77209e-05
2.40403e-05
2.40482e-05
2.39729e-05
2.39788e-05
3.6617e-05
3.47362e-05
1.73273e-05
2.29067e-05
2.29165e-05
3.48712e-05
2.28194e-05
2.2824e-05
3.5309e-05
1.74326e-05
2.30962e-05
2.30977e-05
3.5179e-05
2.31861e-05
2.31868e-05
1.82892e-05
2.58834e-05
3.0157e-05
1.70002e-05
3.00142e-05
1.69706e-05
1.83333e-05
2.05495e-05
2.49518e-05
3.64092e-05
4.25678e-05
3.6523e-05
2.05176e-05
2.50358e-05
1.82008e-05
2.56186e-05
2.95887e-05
1.68836e-05
2.97285e-05
1.816e-05
1.69108e-05
2.07178e-05
3.6937e-05
4.28207e-05
2.53513e-05
3.68228e-05
2.52658e-05
2.07526e-05
1.82999e-05
2.58826e-05
3.01502e-05
1.69997e-05
3.00138e-05
1.697e-05
1.83179e-05
2.05541e-05
2.49497e-05
3.6402e-05
4.25679e-05
2.0515e-05
3.65207e-05
2.50493e-05
1.81869e-05
2.56179e-05
2.95885e-05
1.68832e-05
1.81715e-05
2.97249e-05
1.69098e-05
2.07145e-05
3.69335e-05
4.28229e-05
2.53667e-05
3.6816e-05
2.07562e-05
2.52624e-05
1.84736e-05
3.04402e-05
1.70648e-05
2.64187e-05
1.84288e-05
3.05828e-05
1.7096e-05
2.11441e-05
2.59964e-05
4.35377e-05
3.77462e-05
2.591e-05
3.76382e-05
2.1183e-05
2.09628e-05
3.72314e-05
2.55848e-05
4.32923e-05
2.56755e-05
2.09261e-05
3.73456e-05
1.85724e-05
2.66945e-05
3.10096e-05
1.72016e-05
3.08677e-05
1.71674e-05
1.86184e-05
1.84588e-05
3.04403e-05
1.7064e-05
2.64208e-05
1.8439e-05
3.05777e-05
1.70956e-05
2.11402e-05
2.60096e-05
4.3539e-05
3.7744e-05
3.76312e-05
2.59027e-05
2.1186e-05
2.09658e-05
3.72254e-05
2.55817e-05
4.32942e-05
2.09227e-05
3.73377e-05
2.56869e-05
1.8584e-05
2.66921e-05
3.10052e-05
1.72013e-05
3.08668e-05
1.71666e-05
1.86055e-05
3.47266e-05
1.73279e-05
2.29026e-05
2.29062e-05
2.28215e-05
2.28321e-05
3.48748e-05
3.53192e-05
1.74345e-05
2.31084e-05
2.30994e-05
2.31808e-05
3.51723e-05
2.31856e-05
1.83018e-05
2.58837e-05
3.01495e-05
1.69928e-05
3.00183e-05
1.69785e-05
1.83187e-05
2.05515e-05
2.49483e-05
3.64083e-05
4.25718e-05
3.65243e-05
2.05188e-05
2.50494e-05
1.81885e-05
2.56193e-05
2.95929e-05
1.68906e-05
2.9725e-05
1.81734e-05
1.69038e-05
2.07188e-05
3.6935e-05
4.28226e-05
2.53653e-05
3.68218e-05
2.52615e-05
2.07539e-05
1.82868e-05
2.58851e-05
1.69917e-05
3.01496e-05
1.69776e-05
3.00118e-05
1.83306e-05
2.0551e-05
2.49557e-05
3.63988e-05
4.2568e-05
2.05143e-05
3.65182e-05
2.50406e-05
1.81992e-05
2.56155e-05
1.68899e-05
2.95865e-05
1.81586e-05
1.6903e-05
2.97241e-05
2.07144e-05
3.69308e-05
4.28218e-05
2.5354e-05
3.68123e-05
2.07531e-05
2.52702e-05
1.846e-05
3.04446e-05
1.70721e-05
2.64201e-05
1.84414e-05
3.05766e-05
1.70881e-05
2.1145e-05
2.6013e-05
4.35386e-05
3.77459e-05
2.59018e-05
3.7638e-05
2.11854e-05
2.09642e-05
3.72308e-05
2.55814e-05
4.32971e-05
2.5687e-05
2.09267e-05
3.73457e-05
1.85856e-05
2.66943e-05
3.10049e-05
1.71932e-05
3.08722e-05
1.71762e-05
1.86061e-05
1.84718e-05
1.70715e-05
3.04387e-05
2.64172e-05
1.84266e-05
1.70871e-05
3.05771e-05
2.11405e-05
2.60018e-05
4.35387e-05
3.77459e-05
3.76261e-05
2.59143e-05
2.11838e-05
2.09626e-05
3.72218e-05
2.55888e-05
4.32942e-05
2.09229e-05
3.73385e-05
2.56815e-05
1.85694e-05
2.66949e-05
1.7192e-05
3.10047e-05
1.71749e-05
3.08656e-05
1.86163e-05
1.82987e-05
2.58806e-05
1.69926e-05
3.01462e-05
1.69762e-05
3.00167e-05
1.83176e-05
2.07141e-05
3.69282e-05
4.28178e-05
2.53585e-05
2.52553e-05
3.68129e-05
2.07545e-05
1.84576e-05
3.0436e-05
1.70696e-05
2.64125e-05
1.84376e-05
3.05751e-05
1.70895e-05
2.11406e-05
2.60022e-05
4.35342e-05
3.77409e-05
2.11865e-05
2.59058e-05
3.76308e-05
2.09647e-05
3.72244e-05
2.5583e-05
4.32901e-05
2.0923e-05
2.56784e-05
3.73362e-05
1.85819e-05
2.66945e-05
3.10047e-05
1.71943e-05
1.86043e-05
3.08642e-05
1.7172e-05
1.84584e-05
1.70696e-05
3.04421e-05
2.6418e-05
1.84379e-05
1.70892e-05
3.05728e-05
2.1141e-05
2.60048e-05
4.35341e-05
3.77397e-05
3.76285e-05
2.58992e-05
2.11849e-05
2.09663e-05
3.72213e-05
2.55761e-05
4.32901e-05
2.09223e-05
3.73373e-05
2.56794e-05
1.85828e-05
2.66917e-05
1.71949e-05
3.09993e-05
1.7173e-05
3.08699e-05
1.8605e-05
3.47374e-05
1.73294e-05
2.29102e-05
2.28976e-05
2.28307e-05
2.28239e-05
3.48733e-05
3.53097e-05
1.74307e-05
2.31017e-05
2.31075e-05
2.31916e-05
3.51807e-05
2.31719e-05
1.82887e-05
2.58818e-05
1.70028e-05
3.01534e-05
1.69698e-05
3.00126e-05
1.83336e-05
2.05676e-05
2.49571e-05
3.63957e-05
4.25705e-05
2.50437e-05
2.05039e-05
3.65304e-05
1.82018e-05
2.56199e-05
1.68832e-05
2.95897e-05
1.69122e-05
1.81602e-05
2.97272e-05
2.07047e-05
3.69409e-05
4.28235e-05
2.53556e-05
2.52714e-05
3.68068e-05
2.07688e-05
1.84725e-05
1.70636e-05
3.04457e-05
2.64165e-05
1.84267e-05
1.70985e-05
3.05767e-05
2.11419e-05
2.60003e-05
4.35373e-05
3.77487e-05
2.11809e-05
2.59083e-05
3.76336e-05
2.09597e-05
3.72294e-05
2.55834e-05
4.32904e-05
2.09252e-05
2.56741e-05
3.7342e-05
1.857e-05
2.66979e-05
1.72055e-05
3.1003e-05
1.86151e-05
1.71655e-05
3.08722e-05
1.84748e-05
1.70635e-05
3.04398e-05
2.6421e-05
1.84289e-05
1.70987e-05
3.0582e-05
2.11285e-05
2.60032e-05
4.35408e-05
3.77495e-05
3.76193e-05
2.59159e-05
2.1201e-05
2.09842e-05
3.72171e-05
2.55909e-05
4.32956e-05
2.09131e-05
3.73492e-05
2.56827e-05
1.85715e-05
2.66925e-05
1.72054e-05
3.10048e-05
1.71657e-05
3.08657e-05
1.86195e-05
3.53096e-05
1.74216e-05
2.31056e-05
2.31093e-05
3.51823e-05
2.31741e-05
2.31826e-05
3.64792e-05
1.77088e-05
2.40722e-05
2.40671e-05
3.66096e-05
2.39535e-05
2.39667e-05
1.88837e-05
2.75228e-05
3.1862e-05
1.74398e-05
3.17257e-05
1.7398e-05
1.8943e-05
2.14252e-05
2.62381e-05
3.80373e-05
4.39916e-05
3.81543e-05
2.13629e-05
2.63253e-05
1.87738e-05
2.72422e-05
3.12961e-05
1.72802e-05
3.14341e-05
1.87252e-05
1.73147e-05
2.15851e-05
3.85594e-05
4.42265e-05
2.66592e-05
3.84279e-05
2.65716e-05
2.16673e-05
1.88971e-05
2.75221e-05
3.18602e-05
1.74392e-05
3.17208e-05
1.73972e-05
1.89193e-05
2.14144e-05
2.62366e-05
3.80299e-05
4.39932e-05
2.13646e-05
3.81483e-05
2.6334e-05
1.87593e-05
2.72414e-05
3.12946e-05
1.72792e-05
1.87354e-05
3.14332e-05
1.73143e-05
2.15966e-05
3.85465e-05
4.42285e-05
2.66683e-05
3.84248e-05
2.16409e-05
2.65709e-05
3.64768e-05
1.77097e-05
2.40556e-05
2.40587e-05
2.39619e-05
2.39725e-05
3.6603e-05
1.8892e-05
2.75251e-05
3.18588e-05
1.74275e-05
3.1728e-05
1.74092e-05
1.89403e-05
2.14284e-05
2.62323e-05
3.80366e-05
4.39965e-05
3.81543e-05
2.1363e-05
2.63387e-05
1.87615e-05
2.72417e-05
3.13001e-05
1.72879e-05
3.1432e-05
1.87359e-05
1.73075e-05
2.1585e-05
3.85642e-05
4.42278e-05
2.66703e-05
3.84274e-05
2.65671e-05
2.16672e-05
1.88801e-05
2.75246e-05
1.74265e-05
3.18639e-05
1.74084e-05
3.17206e-05
1.89416e-05
2.14251e-05
2.62394e-05
3.80294e-05
4.39917e-05
2.13609e-05
3.81441e-05
2.63393e-05
1.8772e-05
2.724e-05
1.72871e-05
3.1294e-05
1.87217e-05
1.73063e-05
3.14327e-05
2.15822e-05
3.85419e-05
4.42285e-05
2.66718e-05
3.84259e-05
2.16708e-05
2.65725e-05
1.88956e-05
2.75215e-05
1.74311e-05
3.18539e-05
1.74042e-05
3.17256e-05
1.89188e-05
2.14143e-05
2.6231e-05
3.80287e-05
4.39921e-05
2.63293e-05
2.13633e-05
3.81409e-05
1.87593e-05
2.72396e-05
1.72846e-05
3.12973e-05
1.73094e-05
1.87343e-05
3.14281e-05
2.15956e-05
3.85362e-05
4.42219e-05
2.66666e-05
2.65628e-05
3.8426e-05
2.16391e-05
3.64755e-05
1.77097e-05
2.40726e-05
2.40434e-05
2.39731e-05
2.39609e-05
3.66228e-05
1.88825e-05
2.75247e-05
1.74459e-05
3.18651e-05
1.73955e-05
3.17188e-05
1.89455e-05
2.14347e-05
2.62419e-05
3.80263e-05
4.3996e-05
2.63423e-05
2.13555e-05
3.81515e-05
1.87755e-05
2.72406e-05
1.72783e-05
3.12964e-05
1.7318e-05
1.87243e-05
3.14367e-05
2.15787e-05
3.85414e-05
4.42271e-05
2.66809e-05
2.65679e-05
3.84219e-05
2.16703e-05
3.60233e-05
3.60197e-05
3.60197e-05
3.60085e-05
3.39295e-05
3.38856e-05
3.38854e-05
3.39583e-05
3.21567e-05
3.20024e-05
3.20017e-05
3.19428e-05
3.05324e-05
3.02215e-05
3.02206e-05
2.99755e-05
2.90295e-05
2.85446e-05
2.85439e-05
2.81073e-05
2.7631e-05
2.69765e-05
2.69761e-05
2.63738e-05
2.63255e-05
2.55194e-05
2.55193e-05
2.47899e-05
2.51051e-05
2.41725e-05
2.41727e-05
2.33606e-05
2.39642e-05
2.29374e-05
2.29377e-05
2.20866e-05
2.28984e-05
2.1813e-05
2.18133e-05
2.09682e-05
2.19042e-05
2.07968e-05
2.0797e-05
1.99955e-05
2.09782e-05
1.98858e-05
1.98859e-05
1.91629e-05
2.01154e-05
1.9078e-05
1.9078e-05
1.84693e-05
1.93147e-05
1.837e-05
1.837e-05
1.79095e-05
1.85749e-05
1.77588e-05
1.77588e-05
1.74786e-05
1.78935e-05
1.72427e-05
1.72427e-05
1.71694e-05
1.72682e-05
1.68208e-05
1.68208e-05
1.69869e-05
1.66969e-05
1.64922e-05
1.64922e-05
1.6939e-05
1.61783e-05
1.62569e-05
1.62569e-05
1.70333e-05
1.61151e-05
1.72567e-05
3.62977e-05
3.62919e-05
3.62919e-05
3.62977e-05
3.62919e-05
3.62919e-05
3.62908e-05
3.62908e-05
3.62908e-05
3.62908e-05
3.62919e-05
3.62919e-05
3.62977e-05
3.62919e-05
3.62919e-05
3.62977e-05
3.60085e-05
3.42653e-05
3.60197e-05
3.60197e-05