/*--------------------------------*- C++ -*----------------------------------*\
| =========                 |                                                 |
| \\      /  F ield         | OpenFOAM: The Open Source CFD Toolbox           |
|  \\    /   O peration     | Version:  2312                                  |
|   \\  /    A nd           | Website:  www.openfoam.com                      |
|    \\/     M anipulation  |                                                 |
\*---------------------------------------------------------------------------*/
FoamFile
{
    version     2.0;
    format      ascii;
    arch        "LSB;label=32;scalar=64";
    class       surfaceScalarField;
    location    "850";
    object      phi;
}
// * * * * * * * * * * * * * * * * * * * * * * * * * * * * * * * * * * * * * //

dimensions      [0 3 -1 0 0 0 0];

oriented        oriented;

internalField   nonuniform List<scalar> 
124832
(
-8.75805e-07
-8.82743e-07
4.56176e-07
4.56848e-07
0.00114043
-0.00113959
-1.5189e-06
8.77243e-07
4.45122e-07
0.00113301
-5.32524e-07
1.1076e-06
1.27682e-07
7.24733e-07
-5.90868e-07
-1.27341e-06
5.83383e-08
-0.00113244
-8.56633e-07
-8.57971e-07
-0.00114291
4.42999e-07
4.43295e-07
0.00114374
-0.00113482
-1.51668e-06
8.57086e-07
4.18874e-07
0.00113536
-5.21504e-07
1.11694e-06
1.34251e-07
7.32456e-07
-5.75121e-07
-1.25928e-06
6.7696e-08
-0.00113469
-1.51393e-06
8.57644e-07
4.24462e-07
0.00113523
-5.21559e-07
1.11432e-06
1.34235e-07
7.32362e-07
-5.75405e-07
-1.2595e-06
6.78062e-08
-0.000276279
1.5456e-06
1.50862e-06
-4.99863e-07
-5.0297e-07
0.000274228
1.56159e-06
1.52203e-06
-5.07818e-07
-5.16008e-07
0.00027407
-0.00027613
-1.15818e-06
-1.11535e-06
0.000276354
-0.000274237
7.57317e-08
8.11788e-08
4.36236e-07
0.0011326
-5.35281e-07
1.15047e-06
1.30611e-07
7.30207e-07
-5.90819e-07
-1.27888e-06
5.8341e-08
-0.00113201
8.70928e-07
4.35816e-07
0.00113266
1.14776e-06
1.3331e-07
7.30012e-07
-5.90791e-07
-1.2787e-06
5.82586e-08
-0.00113208
-1.5564e-06
-5.35602e-07
0.00113427
8.61408e-07
-0.00113374
4.39378e-07
-1.5581e-06
1.4137e-07
-5.30049e-07
-1.2686e-06
6.53743e-08
-5.79339e-07
7.36083e-07
1.15289e-06
0.00113435
8.61724e-07
-0.0011338
4.28063e-07
-1.55544e-06
1.38292e-07
-5.27364e-07
-1.26846e-06
6.5321e-08
-5.79216e-07
7.35868e-07
-1.11531e-06
0.000276334
-0.000274221
7.58538e-08
7.85077e-08
4.34773e-07
0.00113358
-5.32773e-07
1.11038e-06
1.27579e-07
7.30175e-07
-5.90769e-07
-1.27872e-06
5.85695e-08
-0.001133
-1.55375e-06
8.75894e-07
4.36314e-07
0.00113255
-5.38363e-07
1.14224e-06
1.33324e-07
7.30346e-07
-5.90684e-07
-1.27853e-06
5.51117e-08
-0.00113197
0.00113527
8.62696e-07
-0.00113472
4.27296e-07
-1.51839e-06
1.32457e-07
-5.24631e-07
-1.26846e-06
6.55875e-08
-5.79311e-07
7.35922e-07
1.14738e-06
0.00113424
8.6117e-07
-0.00113369
4.28686e-07
-1.55006e-06
1.38323e-07
-5.30097e-07
-1.26828e-06
6.23074e-08
-5.76316e-07
7.36027e-07
8.61891e-07
-0.00113427
4.32479e-07
-1.51803e-06
1.32612e-07
-5.24344e-07
-1.26282e-06
6.54439e-08
7.30564e-07
-5.78965e-07
1.14449e-06
0.00113386
8.61586e-07
-0.00113331
4.28764e-07
-1.54704e-06
1.35498e-07
-5.27062e-07
-1.25994e-06
5.87147e-08
-5.73418e-07
7.27727e-07
-5.10839e-07
-5.1578e-07
0.000274046
-0.000276092
-1.10991e-06
0.00027631
-0.00027421
7.61209e-08
8.1125e-08
7.7643e-07
2.55395e-07
0.00113308
1.06635e-06
1.15342e-07
7.2722e-07
-5.87995e-07
5.85436e-08
-1.27585e-06
-1.58665e-06
-0.00113209
-5.43625e-07
8.62398e-07
-0.00113414
4.26881e-07
-1.51253e-06
1.3261e-07
-5.24343e-07
-1.2631e-06
6.55522e-08
7.30516e-07
-5.79155e-07
1.10709e-06
0.00113484
8.62394e-07
-0.00113428
4.2723e-07
-1.51009e-06
1.32495e-07
-5.24539e-07
-1.2655e-06
6.56412e-08
-5.79161e-07
7.33117e-07
-0.000274182
7.57848e-08
7.85775e-08
1.55951e-06
1.51702e-06
-5.00086e-07
-5.0565e-07
0.000274283
4.1497e-07
0.00113482
-5.30103e-07
1.15981e-06
1.42941e-07
7.3789e-07
-5.75542e-07
-1.26511e-06
6.74942e-08
-1.55406e-06
8.57173e-07
4.25572e-07
0.00113489
-5.27214e-07
1.15453e-06
1.39932e-07
7.37945e-07
-5.75333e-07
-1.26485e-06
6.43888e-08
-5.00314e-07
-5.02454e-07
0.000274267
4.24832e-07
0.00113581
-5.21872e-07
1.11701e-06
1.34003e-07
7.37875e-07
-5.75478e-07
-1.26492e-06
6.77614e-08
-1.54868e-06
8.56415e-07
4.26198e-07
0.00113478
-5.27307e-07
1.14905e-06
1.39981e-07
7.37949e-07
-5.72574e-07
-1.26464e-06
6.45077e-08
8.56727e-07
4.26249e-07
0.00113439
-5.24254e-07
1.14615e-06
1.37139e-07
7.29623e-07
-5.69636e-07
6.10712e-08
-1.25641e-06
-5.00377e-07
-5.05252e-07
0.000274253
8.5766e-07
4.24692e-07
0.00113538
-5.21742e-07
1.10877e-06
1.34141e-07
7.34949e-07
-5.75351e-07
6.79616e-08
-1.26195e-06
-8.65804e-11
9.36006e-08
0.000237628
-0.000237702
-1.05706e-08
-8.45494e-09
-3.76867e-09
1.514e-07
-2.07224e-08
0.00019805
-0.000198177
6.16612e-11
2.76847e-07
0.000237945
-9.49345e-08
-1.31413e-08
-0.000238114
1.50285e-08
3.11045e-08
0.000197841
-5.51311e-09
-0.000197882
-1.49087e-08
5.43095e-09
9.92818e-05
-9.92723e-05
9.35408e-08
-2.04308e-10
0.000237615
-0.000237689
-8.40817e-09
-1.05347e-08
-3.90461e-09
1.51344e-07
-2.08519e-08
0.000198031
-0.000198157
2.76796e-07
1.54494e-10
0.000237932
-1.33899e-08
-9.49123e-08
-0.000238101
1.54332e-08
3.09183e-08
0.000197823
-5.91571e-09
-0.000197863
4.6171e-07
4.35052e-07
0.00114019
-8.7666e-07
-0.00113934
4.56736e-07
4.84058e-07
0.00114001
-0.0011392
4.06799e-07
4.29264e-07
0.00113994
-1.0433e-06
-0.00113896
-0.00114209
4.55934e-07
4.50794e-07
0.0011427
-0.00114187
4.50158e-07
4.50737e-07
0.00114249
-0.00114167
4.50464e-07
4.50537e-07
0.00114245
-0.00114163
4.50608e-07
4.50874e-07
-9.37668e-08
-1.78509e-09
0.000261359
-0.000261288
-2.74851e-08
5.21237e-08
4.26732e-07
1.11189e-06
0.0011337
8.71684e-07
-1.26967e-06
6.08e-08
-5.86639e-07
7.26596e-07
-1.52058e-06
1.29248e-07
-5.29876e-07
-0.00113312
4.74309e-09
-3.11431e-08
0.000254115
2.0221e-08
-0.00025415
4.04524e-08
-1.80583e-08
0.00113384
9.23948e-07
-1.38029e-06
5.74523e-07
-1.20849e-06
7.71479e-07
-0.00113308
4.30396e-09
6.75345e-08
9.93322e-05
-9.9404e-05
-1.48761e-08
7.8144e-09
9.92747e-05
-9.92676e-05
-4.47279e-10
-9.38414e-08
0.000261344
-0.000261277
5.50127e-08
-2.80003e-08
0.00113295
5.28072e-08
9.28581e-07
7.71539e-07
-1.211e-06
-1.38341e-06
5.72002e-07
-0.00113223
-7.05654e-08
-1.51304e-07
3.37785e-07
7.62259e-08
0.000254363
-0.000254555
4.42735e-07
1.1066e-06
0.00113358
8.72235e-07
-1.27002e-06
6.08643e-08
-5.86892e-07
7.26649e-07
-1.51775e-06
1.29349e-07
-5.29822e-07
1.67752e-09
-2.7693e-07
0.000261428
5.31135e-07
-3.52432e-08
-0.000261648
1.86167e-08
0.00113368
9.24307e-07
-1.38068e-06
5.77133e-07
-1.20609e-06
7.74086e-07
4.50222e-09
-3.1003e-08
0.000254103
2.0214e-08
-0.00025414
4.29955e-08
-1.1466e-06
-1.09823e-06
0.000276178
-0.000274074
6.54149e-08
7.60403e-08
-4.74244e-09
-7.85611e-09
0.000285613
2.27136e-08
-0.000285684
6.07799e-08
-4.71371e-09
-7.84304e-09
0.000285531
2.31637e-08
-0.000285602
6.06502e-08
-2.10783e-11
7.70519e-08
-0.000236783
-5.74834e-09
-6.73306e-09
-0.000197528
-3.39826e-09
1.40533e-07
-1.7644e-08
0.000197409
-0.000237163
9.37272e-11
2.57392e-07
0.000237005
-8.82389e-08
-1.14232e-08
1.39728e-08
2.2663e-08
-3.67958e-09
-0.000197259
-9.91574e-05
4.89344e-09
6.36827e-08
9.90888e-05
-1.39855e-08
4.60994e-09
-9.90288e-05
7.70305e-08
-1.40106e-10
-0.00023677
-6.69e-09
-5.73478e-09
-0.000197506
-4.86491e-09
1.40352e-07
-1.80753e-08
0.000197389
-0.00023715
2.57384e-07
1.85601e-10
0.000236992
-1.15828e-08
-8.8293e-08
1.40582e-08
2.26749e-08
-3.77896e-09
-0.000197239
4.48264e-07
4.48885e-07
0.00114351
4.48505e-07
4.48655e-07
0.00114331
4.48668e-07
4.48877e-07
0.00114327
-7.72264e-08
-1.47556e-09
-0.000260654
-2.2828e-08
3.60008e-08
-0.000253675
-6.78216e-08
-1.42423e-07
3.22956e-07
6.89315e-08
0.000253494
0.00113603
-0.00113532
2.44044e-09
9.10551e-07
7.8121e-07
-1.19885e-06
-1.36947e-06
5.84257e-07
4.2749e-07
1.11854e-06
8.52267e-07
-1.25567e-06
6.995e-08
-5.71248e-07
7.34317e-07
-1.51523e-06
1.35842e-07
-5.18745e-07
-0.000261045
-2.57205e-07
1.58292e-09
0.000260817
-3.03139e-08
5.13962e-07
7.68612e-09
-2.04735e-08
1.47418e-08
-0.000253282
2.84515e-08
-4.47314e-09
9.06179e-07
-1.36915e-06
5.83711e-07
-1.19911e-06
7.80637e-07
-9.91513e-05
4.92881e-09
6.34777e-08
9.90829e-05
-1.4105e-08
4.68766e-09
-9.90241e-05
-8.05976e-10
-7.73243e-08
-0.000260642
3.62137e-08
-2.27342e-08
0.00113587
-0.00113514
4.42627e-09
9.11283e-07
7.81109e-07
-1.20204e-06
-1.3726e-06
5.81165e-07
-0.000253665
-6.80529e-08
-1.40252e-07
3.20601e-07
6.91262e-08
0.000253484
4.22174e-07
1.11592e-06
8.52793e-07
-1.25585e-06
7.00659e-08
-5.71475e-07
7.34265e-07
-1.51245e-06
1.32833e-07
-5.18744e-07
-0.000261032
9.42065e-10
-2.57509e-07
0.000260805
5.14394e-07
-3.05494e-08
-3.31354e-09
9.06903e-07
-1.36955e-06
5.86323e-07
-1.19667e-06
7.83343e-07
7.42315e-09
-2.25719e-08
1.47571e-08
-0.000253272
3.10386e-08
-0.000285133
6.79678e-08
-6.35966e-08
1.79783e-07
-1.3462e-08
0.000284962
-0.000285052
6.80699e-08
-6.34621e-08
1.74911e-07
-1.3976e-08
0.000284886
-1.14771e-06
-1.11033e-06
-0.000274269
8.08207e-08
8.36099e-08
-7.78038e-09
-4.67338e-09
2.13673e-08
-0.000284734
4.90577e-08
-7.67607e-09
-4.6017e-09
2.17536e-08
-0.000284658
5.35526e-08
6.93559e-08
9.93598e-05
-9.9433e-05
7.82492e-09
9.93045e-05
-9.92973e-05
6.75204e-08
9.93482e-05
-9.94196e-05
7.45899e-09
9.92905e-05
-9.92825e-05
7.30273e-08
1.88792e-07
-1.32844e-08
0.000285992
-0.000286171
7.02775e-08
1.90886e-07
-1.29229e-08
0.000285913
-0.000286094
0.000276249
-1.15216e-06
-1.11207e-06
-0.000274129
6.80742e-08
7.61271e-08
0.000285669
-1.90078e-09
2.51868e-08
-0.000285743
5.82611e-08
0.000285592
-2.18381e-09
2.26124e-08
-0.000285663
5.79557e-08
6.10598e-09
-1.4003e-08
9.9179e-05
-9.91711e-05
6.56704e-08
4.77289e-09
9.92341e-05
6.13714e-09
-1.45113e-08
9.9167e-05
-9.91587e-05
6.56387e-08
4.54364e-09
9.92203e-05
1.55934e-06
1.51969e-06
0.000274184
-5.02737e-07
-5.10907e-07
-6.0323e-09
0.000285189
5.35284e-08
-0.000285252
2.17971e-08
-3.66595e-09
0.000285113
5.34299e-08
-0.000285178
2.2008e-08
6.80432e-08
-1.59813e-08
1.8557e-07
0.000285497
6.79162e-08
-1.32368e-08
1.85194e-07
0.000285418
9.35604e-08
0.000237585
-0.00023766
-1.05448e-08
-8.2438e-09
1.53575e-07
-2.05577e-08
0.000197982
-4.12083e-09
-0.000198111
2.76795e-07
0.000237903
-9.48868e-08
-1.34517e-08
-0.000238071
2.87884e-08
0.000197779
-5.29591e-09
-0.000197818
-7.81198e-10
0.000261373
-0.000261303
-2.79337e-08
5.19576e-08
3.40403e-07
7.61256e-08
0.000254378
-0.00025457
0.00113336
4.16129e-09
9.29006e-07
7.77495e-07
-1.21636e-06
-1.38868e-06
5.8065e-07
-0.00113261
4.33096e-07
0.00113317
8.70874e-07
-1.56049e-06
1.3519e-07
-5.32674e-07
-1.2755e-06
6.06579e-08
-5.86949e-07
7.3212e-07
9.57976e-10
0.000261453
-3.42103e-08
5.31043e-07
-0.000261674
0.000254115
2.02211e-08
-0.000254147
4.05441e-08
-3.08362e-09
0.00113412
9.18773e-07
-1.38619e-06
5.82986e-07
-1.21422e-06
7.7994e-07
0.000261343
-0.000261276
-2.64815e-08
5.1916e-08
3.40223e-07
7.61482e-08
0.000254268
-0.000254457
-7.2974e-08
0.00113331
9.23466e-07
7.77402e-07
-1.21634e-06
-1.38847e-06
5.80627e-07
-0.00113255
4.33341e-07
0.00113324
1.14944e-06
8.71578e-07
-1.27539e-06
6.07038e-08
7.31945e-07
-5.86998e-07
-1.55795e-06
1.34967e-07
-5.3562e-07
0.000261426
-3.56505e-08
5.30998e-07
-0.000261644
0.000254006
4.46281e-09
2.02933e-08
-0.000254042
4.03852e-08
0.00113406
9.18954e-07
-1.38593e-06
5.8297e-07
-1.2142e-06
7.79733e-07
6.12433e-11
2.66931e-07
-9.13865e-08
-1.22082e-08
0.000237465
2.65586e-08
-0.000197565
-4.01501e-09
1.45725e-07
-2.15689e-08
0.000197722
-1.14213e-10
8.50512e-08
-0.000237232
-7.89139e-09
-7.48215e-09
2.66891e-07
-9.13691e-08
-1.25375e-08
0.000237422
2.67853e-08
1.4113e-08
0.000197456
-0.000197493
-3.97551e-09
1.47958e-07
-4.76285e-09
-1.90443e-08
0.000197655
8.50519e-08
0.00023712
-0.000237189
-7.94853e-09
-7.5708e-09
9.72976e-10
-3.20465e-08
5.22735e-07
0.000261148
4.25301e-07
8.66364e-07
1.1538e-06
-5.3277e-07
1.36801e-07
7.34044e-07
-5.83213e-07
6.29963e-08
-1.27219e-06
0.000253677
3.41931e-08
-0.000253708
1.75013e-08
-0.00113485
-3.08437e-09
0.00113559
9.15488e-07
-1.38088e-06
5.84846e-07
-1.20695e-06
7.84639e-07
7.0081e-08
3.31809e-07
0.000253927
4.10818e-09
9.20006e-07
7.82202e-07
-1.20928e-06
-1.38364e-06
5.82497e-07
-7.9115e-10
0.000261059
-0.000260991
-2.57726e-08
4.38789e-08
-3.37068e-08
5.227e-07
0.000261122
4.30941e-07
-1.55678e-06
8.66601e-07
7.33932e-07
-5.8303e-07
-1.27197e-06
6.30868e-08
1.15119e-06
-5.30098e-07
1.33661e-07
3.49221e-09
0.000253568
3.43639e-08
-0.000253597
1.74632e-08
-0.0011348
0.00113553
9.15556e-07
-1.38053e-06
5.84823e-07
-1.20691e-06
7.8452e-07
-7.04412e-08
7.25446e-08
3.31639e-07
0.00025382
9.20089e-07
7.82149e-07
-1.20923e-06
-1.38328e-06
5.82485e-07
0.000261029
-0.000260965
-2.40975e-08
4.38659e-08
0.000276233
-0.000274116
7.07409e-08
7.33419e-08
0.00028553
2.30227e-08
-0.000285604
6.06985e-08
-7.88688e-09
0.000285682
2.28943e-08
-0.000285751
5.84657e-08
9.9298e-05
-1.48962e-08
-9.9291e-05
6.61454e-09
-9.91499e-05
6.79628e-08
9.9209e-05
1.51941e-06
0.00027417
-5.05738e-07
-5.07865e-07
0.000285056
5.36634e-08
-0.000285121
2.23272e-08
-3.95203e-09
-6.29378e-09
0.0002852
5.36449e-08
-0.000285266
2.22364e-08
-1.33452e-08
1.85322e-07
0.000285355
-6.54445e-08
7.03401e-08
-1.33388e-08
1.85308e-07
0.000285505
-1.45536e-08
9.9177e-05
-9.91664e-05
4.5533e-09
9.9228e-05
-1.78063e-09
0.000261366
-0.000261295
-2.73336e-08
5.19806e-08
3.37706e-07
7.6098e-08
0.000254337
-0.000254529
0.00113321
2.87992e-09
9.3388e-07
7.77327e-07
-1.2135e-06
-1.38851e-06
5.7782e-07
-0.00113247
4.31873e-07
0.00113416
8.72196e-07
-1.52083e-06
1.29223e-07
-5.30035e-07
-1.27537e-06
6.10237e-08
-5.8686e-07
7.32112e-07
1.73208e-09
0.000261445
-3.51707e-08
5.30973e-07
-0.000261666
0.000254077
1.9935e-08
-0.000254111
4.29085e-08
-4.40896e-09
0.00113396
9.23803e-07
-1.386e-06
5.8013e-07
-1.21136e-06
7.7965e-07
9.35131e-08
0.000237574
-0.000237649
-1.05294e-08
-8.71327e-09
1.51292e-07
-2.0464e-08
0.000197972
-0.000198098
2.76725e-07
0.000237891
-9.48678e-08
-1.32446e-08
-0.00023806
3.11876e-08
0.000197765
-5.48373e-09
-0.000197805
0.000261335
-0.000261268
5.19462e-08
-2.71076e-08
0.00113317
9.28085e-07
7.7762e-07
-1.21347e-06
-1.38834e-06
5.77891e-07
-0.00113241
-7.32317e-08
3.35124e-07
7.62721e-08
0.000254256
-0.000254443
4.33862e-07
0.00113312
1.14397e-06
8.819e-07
-1.27518e-06
5.76024e-08
7.32289e-07
-5.84023e-07
-1.55262e-06
1.34981e-07
-5.35642e-07
0.000261419
5.30898e-07
-3.5522e-08
-0.000261636
0.00113391
9.29482e-07
-1.38565e-06
5.80209e-07
-1.21133e-06
7.8002e-07
0.000253991
4.69865e-09
1.98968e-08
-0.00025403
4.58265e-08
2.66896e-07
1.36164e-10
-1.24205e-08
-9.13861e-08
0.000237452
2.6631e-08
-0.000197543
-4.52297e-09
1.45708e-07
-1.93215e-08
0.000197701
8.50616e-08
-1.52266e-10
-0.000237219
-7.52631e-09
-7.96481e-09
1.73998e-09
-3.30326e-08
5.22691e-07
0.000261141
4.29511e-07
8.67448e-07
1.11373e-06
-5.27413e-07
1.308e-07
7.33982e-07
-5.83132e-07
6.3213e-08
-1.27199e-06
0.000253639
3.69204e-08
-0.00025367
1.72192e-08
-0.00113469
-4.11112e-09
0.00113543
9.15298e-07
-1.38068e-06
5.84729e-07
-1.20686e-06
7.84312e-07
7.25033e-08
3.29124e-07
0.000253889
2.90274e-09
9.25021e-07
7.81996e-07
-1.20919e-06
-1.38336e-06
5.82405e-07
-1.74623e-09
0.000261052
-0.000260982
-2.46939e-08
4.11614e-08
2.66848e-07
-9.13621e-08
-1.22968e-08
0.000237411
2.68396e-08
1.44397e-08
0.000197448
-0.000197485
-4.63265e-09
1.45644e-07
-4.66428e-09
-1.916e-08
0.000197643
8.50313e-08
0.000237109
-0.000237179
-7.96134e-09
-7.71368e-09
5.22653e-07
-3.3356e-08
0.000261115
4.25861e-07
-1.55134e-06
8.6602e-07
7.34146e-07
-5.80223e-07
-1.27179e-06
5.99556e-08
1.14566e-06
-5.32898e-07
1.36675e-07
-0.00113464
0.00113537
9.15313e-07
-1.38044e-06
5.84805e-07
-1.20685e-06
7.84669e-07
6.32739e-09
0.000253553
3.97759e-08
-0.00025359
1.69843e-08
9.25085e-07
7.82364e-07
-1.20915e-06
-1.38315e-06
5.82483e-07
-7.05546e-08
7.25608e-08
3.26472e-07
0.000253808
0.000261021
-0.000260955
4.11181e-08
-2.43921e-08
3.26265e-11
0.00023761
-0.000237687
-8.69572e-09
-8.5052e-09
0.000197828
-5.41037e-09
-0.000197869
-9.3627e-08
0.000261327
-0.00026126
5.1973e-08
-2.72859e-08
4.49866e-07
0.00113275
8.76786e-07
-1.54947e-06
1.35189e-07
-5.32684e-07
-1.26963e-06
5.73325e-08
-5.86688e-07
7.23849e-07
-0.0011322
0.00113376
9.23796e-07
-1.3803e-06
5.77412e-07
-1.20853e-06
7.7428e-07
-0.00113301
-3.12996e-08
0.000254031
1.9928e-08
-0.00025407
4.60412e-08
0.000237571
-0.000237645
-1.05963e-08
-8.69516e-09
0.000197767
1.49501e-08
-5.65621e-09
-0.000197808
-2.66712e-07
1.36916e-09
-3.26643e-08
5.22535e-07
0.000261134
4.24127e-07
8.66796e-07
1.11361e-06
-5.27144e-07
1.30929e-07
7.28555e-07
-5.82836e-07
-1.26635e-06
6.31811e-08
-2.45031e-08
3.43413e-08
-0.000253709
1.7333e-08
-0.00113457
-5.73682e-09
9.15017e-07
-1.375e-06
5.79137e-07
7.7613e-07
-1.204e-06
-1.45483e-07
7.23947e-08
3.31382e-07
0.000253927
-1.48578e-09
9.19458e-07
7.76509e-07
-1.20355e-06
-1.37499e-06
5.7962e-07
-8.52847e-08
-1.53706e-09
-0.000260977
-2.50877e-08
4.40604e-08
7.41082e-11
-1.24262e-08
-9.3444e-08
0.000237449
0.000197513
-0.000197548
-4.52424e-09
-1.90918e-08
0.000197706
9.00597e-11
0.000237145
-0.000237217
-7.94875e-09
-5.94485e-09
-2.66835e-07
5.22585e-07
-3.35126e-08
0.000261106
4.36538e-07
-1.551e-06
8.66557e-07
7.25757e-07
-5.80003e-07
-1.26352e-06
5.63433e-08
1.14553e-06
-5.32587e-07
1.36866e-07
-0.0011345
0.00113523
9.15187e-07
-1.37489e-06
5.82018e-07
-1.20401e-06
7.78969e-07
-2.68867e-08
6.33157e-09
0.000253593
3.45893e-08
-0.000253624
1.71938e-08
9.19495e-07
7.76576e-07
-1.20634e-06
-1.37762e-06
5.79696e-07
-1.45682e-07
-7.04716e-08
7.24246e-08
3.28974e-07
0.000253846
-8.51758e-08
0.00026101
-0.000260949
4.67765e-08
-2.43901e-08
-9.13624e-08
-1.24256e-08
0.000237408
1.44898e-08
0.000197451
-0.000197487
-4.72747e-09
-4.5349e-09
-1.93027e-08
0.000197646
0.000237106
-0.000237176
-8.02972e-09
-7.30196e-09
1.86302e-07
-1.37079e-08
0.000285855
-0.000286033
-6.76187e-08
1.88742e-07
-1.37013e-08
0.000285996
-0.000286174
0.000276208
-0.000274105
7.10397e-08
7.60042e-08
0.00028553
2.30891e-08
-0.000285603
6.30435e-08
-7.68915e-09
0.000285671
2.29391e-08
-0.000285742
6.07358e-08
4.23341e-09
9.93553e-05
-9.94271e-05
9.92978e-05
-1.47729e-08
-9.92907e-05
6.17234e-09
-9.9143e-05
6.54486e-08
9.92046e-05
1.51379e-06
0.000274159
-5.05698e-07
-5.10608e-07
0.00028505
5.82387e-08
-0.000285118
2.2427e-08
-5.97451e-09
-6.04839e-09
0.000285191
5.58273e-08
-0.00028526
2.48522e-08
-1.38541e-08
1.80534e-07
0.000285358
-6.54733e-08
7.04753e-08
-1.65166e-08
1.82962e-07
0.000285499
-1.42706e-08
9.91743e-05
-9.91661e-05
4.66734e-09
9.92276e-05
-9.12412e-08
0.000261312
-0.000261248
5.22061e-08
-2.5613e-08
0.00113287
9.57619e-07
7.74216e-07
-1.2109e-06
5.71951e-07
-1.38571e-06
-0.00113227
-1.51373e-07
3.40245e-07
7.62682e-08
0.000254253
-7.30818e-08
-0.000254445
3.94061e-07
0.00113372
8.66781e-07
-1.51534e-06
1.23043e-07
-5.32814e-07
-1.27243e-06
6.09687e-08
-5.84131e-07
7.29252e-07
-2.79378e-07
0.000261399
5.33776e-07
-3.54921e-08
-0.000261616
0.00113359
9.24486e-07
-1.38312e-06
5.77106e-07
-1.20599e-06
7.76611e-07
-3.10656e-08
0.000253993
2.00645e-08
-0.00025403
4.29114e-08
4.60034e-11
0.000237602
-0.000237676
-8.45543e-09
-1.071e-08
-2.04058e-08
0.000198029
-0.000198156
2.89576e-10
0.00023792
-1.35348e-08
-9.49426e-08
-0.000238088
0.000197822
-5.15142e-09
-0.000197863
0.000237563
-0.000237635
-8.20937e-09
-1.06523e-08
-2.05103e-08
0.000197967
-0.000198093
-4.2504e-09
0.000237878
-1.34597e-08
-9.49229e-08
-0.000238049
0.000197759
1.49269e-08
-5.41716e-09
-0.0001978
1.18928e-09
-2.67029e-07
5.2025e-07
-3.28758e-08
0.000261122
4.34946e-07
8.67388e-07
1.10824e-06
-5.2708e-07
1.30977e-07
7.2857e-07
-5.83097e-07
-1.26658e-06
6.31816e-08
-0.00113442
-1.0813e-09
9.15592e-07
-1.37538e-06
5.81741e-07
7.78837e-07
-1.20162e-06
-2.65901e-08
3.68945e-08
-0.000253699
1.73346e-08
1.12254e-08
9.20199e-07
7.76535e-07
-1.20669e-06
-1.37801e-06
5.76593e-07
-1.45612e-07
7.25892e-08
3.2902e-07
0.000253917
-7.81129e-10
-8.53541e-08
-0.000260965
4.42572e-08
-2.52367e-08
-2.69482e-07
5.22778e-07
-3.38327e-08
0.000261094
4.24224e-07
-1.51136e-06
8.67393e-07
7.31177e-07
-5.83045e-07
-1.26895e-06
6.33578e-08
1.10542e-06
-5.2729e-07
1.30839e-07
-0.00113434
0.00113507
9.15398e-07
-1.37772e-06
5.81746e-07
-1.20145e-06
7.8126e-07
-2.67134e-08
6.2865e-09
0.000253556
3.95321e-08
-0.000253592
1.71217e-08
9.19874e-07
7.78901e-07
-1.20655e-06
-1.38038e-06
5.76564e-07
-1.45645e-07
-7.04698e-08
7.25854e-08
3.2903e-07
0.000253808
-8.27562e-08
0.000261001
-0.000260937
4.13569e-08
-2.34006e-08
2.71882e-10
-1.26698e-08
-9.1418e-08
0.000237438
0.000197505
-0.000197542
-4.19839e-09
-1.90315e-08
0.0001977
-4.36591e-11
0.000237137
-0.000237206
-7.54655e-09
-8.15889e-09
-1.25208e-08
-9.14007e-08
0.000237397
1.44304e-08
0.000197443
-0.000197479
-4.49072e-09
-4.62936e-09
-1.91406e-08
0.000197638
0.000237097
-0.000237165
-7.22093e-09
-8.09694e-09
9.92765e-05
-9.92694e-05
9.92725e-05
-9.92654e-05
0.000274129
-5.05296e-07
-5.08321e-07
-6.18123e-09
5.36007e-08
-0.000285196
2.19919e-08
-6.14663e-09
5.81425e-08
-0.00028512
2.24339e-08
-6.56056e-08
-1.33117e-08
1.83039e-07
0.000285438
-6.54884e-08
-1.38036e-08
1.82936e-07
0.000285357
9.91531e-05
-9.91448e-05
9.92063e-05
9.91491e-05
-9.91408e-05
9.92023e-05
6.38576e-08
9.91117e-05
4.44204e-09
-9.90526e-05
6.35335e-08
9.90986e-05
4.52629e-09
-9.904e-05
6.81468e-08
1.79964e-07
-1.36242e-08
0.000285019
6.79516e-08
1.79723e-07
-1.3585e-08
0.000284942
-1.15869e-06
-1.11861e-06
-0.000274327
8.0757e-08
8.61442e-08
-7.44192e-09
2.0722e-08
-0.00028479
5.12851e-08
-7.5413e-09
2.09565e-08
-0.000284714
4.89589e-08
7.70083e-08
-0.000236741
-5.76608e-09
-6.61526e-09
1.40352e-07
-1.8063e-08
0.000197339
2.57366e-07
0.000236962
-8.82394e-08
-1.16365e-08
2.26656e-08
-3.63967e-09
-0.000197191
-7.37917e-10
-0.000260669
-2.27746e-08
3.58472e-08
3.23343e-07
6.92437e-08
0.000253493
0.0011363
4.15563e-09
9.11112e-07
7.86889e-07
-1.20735e-06
-1.37812e-06
5.89892e-07
4.29364e-07
8.51996e-07
-1.55532e-06
1.41557e-07
-5.24482e-07
-1.26151e-06
6.98247e-08
-5.71732e-07
7.39752e-07
9.94226e-10
0.000260831
-2.99909e-08
5.14132e-07
1.47307e-08
-0.000253282
3.11938e-08
-3.05528e-09
9.06956e-07
-1.37502e-06
5.92195e-07
-1.20482e-06
7.89172e-07
-0.000260642
-2.15221e-08
3.58026e-08
-6.52202e-08
3.23186e-07
6.88952e-08
0.000253381
0.00113626
9.11136e-07
7.86883e-07
-1.2073e-06
-1.37773e-06
5.89894e-07
4.23175e-07
1.15615e-06
8.52365e-07
-1.26126e-06
6.66302e-08
7.3973e-07
-5.68808e-07
-1.55263e-06
1.41527e-07
-5.24449e-07
0.000260805
-3.12841e-08
5.14074e-07
4.84655e-09
1.46527e-08
-0.000253173
3.12394e-08
9.0693e-07
-1.37472e-06
5.922e-07
-1.20478e-06
7.89133e-07
1.79651e-07
-1.30232e-08
0.000284887
-6.57684e-08
1.79658e-07
-1.3454e-08
0.000285032
-0.000274308
8.09228e-08
8.35324e-08
2.36563e-08
-0.000284657
4.89476e-08
-2.44102e-09
2.15222e-08
-0.000284804
4.9097e-08
4.96511e-09
9.91063e-05
-1.41683e-08
-9.90476e-05
-1.77706e-09
-0.000260659
-2.21411e-08
3.31096e-08
3.20669e-07
6.90589e-08
0.000253457
0.00113615
3.18679e-09
9.10993e-07
7.86625e-07
-1.20447e-06
-1.3779e-06
5.86994e-07
4.22471e-07
8.53174e-07
-1.51558e-06
1.35612e-07
-5.19019e-07
-1.26134e-06
6.9964e-08
-5.71617e-07
7.39681e-07
1.75778e-09
0.000260822
-3.08884e-08
5.1683e-07
1.45964e-08
-0.000253246
3.11097e-08
-3.95975e-09
9.06717e-07
-1.37484e-06
5.89243e-07
-1.20198e-06
7.88932e-07
7.70241e-08
-0.00023673
-5.74401e-09
-6.85081e-09
1.40347e-07
-1.81048e-08
0.000197331
2.57334e-07
0.000236952
-8.82621e-08
-1.13615e-08
2.28531e-08
-3.9607e-09
-0.000197181
-0.000260632
3.30942e-08
-2.18606e-08
0.00113609
9.10955e-07
7.86956e-07
-1.20446e-06
-1.37766e-06
5.87051e-07
-6.80404e-08
3.18092e-07
6.90382e-08
0.000253375
4.23642e-07
1.15068e-06
8.51573e-07
-1.26113e-06
6.6771e-08
7.39857e-07
-5.68677e-07
-1.54721e-06
1.41613e-07
-5.24436e-07
0.000260795
5.1682e-07
-3.1197e-08
9.06687e-07
-1.37463e-06
5.893e-07
-1.20198e-06
7.89174e-07
7.77996e-09
1.42851e-08
-0.000253163
3.39952e-08
9.61144e-11
-0.000236768
-7.07166e-09
-3.70979e-09
-1.79524e-08
0.000197394
9.67047e-11
0.00023699
-1.12976e-08
-9.0349e-08
-3.76838e-09
-0.000197244
-7.716e-08
-0.000260627
3.88007e-08
-2.16366e-08
0.00113595
9.1072e-07
7.81315e-07
-1.20159e-06
5.84293e-07
-1.37207e-06
-1.40396e-07
3.23179e-07
6.90035e-08
0.000253409
4.2377e-07
8.51846e-07
-1.5442e-06
1.38752e-07
-5.21423e-07
-1.25266e-06
6.32889e-08
-5.65834e-07
7.31508e-07
-2.57266e-07
0.000260789
5.11249e-07
-3.13471e-08
9.06386e-07
-1.36903e-06
5.86551e-07
-1.19911e-06
7.83541e-07
-2.28712e-08
1.45472e-08
-0.000253198
2.86993e-08
-0.000236727
-5.82308e-09
-6.4651e-09
-4.85893e-09
-1.8216e-08
0.000197333
0.000236948
-8.82325e-08
-1.15486e-08
1.41214e-08
-3.9979e-09
-0.000197184
1.74965e-07
-1.39545e-08
0.000284885
-6.34178e-08
1.77349e-07
-1.67626e-08
0.000285026
-0.000274294
8.11606e-08
8.62633e-08
2.18246e-08
-0.000284656
5.37213e-08
-4.44081e-09
2.41346e-08
-0.000284797
5.12646e-08
5.02152e-09
9.91059e-05
-1.38662e-08
-9.90472e-05
-7.47122e-08
-0.000260614
3.32606e-08
-2.10835e-08
0.0011358
9.11113e-07
7.83551e-07
-1.20188e-06
5.81153e-07
-1.37491e-06
-1.40328e-07
3.18058e-07
6.91313e-08
0.000253377
4.22144e-07
8.52845e-07
-1.5072e-06
1.35775e-07
-5.18896e-07
-1.25824e-06
7.02094e-08
-5.71481e-07
7.36834e-07
-2.59931e-07
0.000260777
5.16912e-07
-3.19032e-08
9.06798e-07
-1.37188e-06
5.86323e-07
-1.19657e-06
7.8581e-07
-2.26792e-08
1.45134e-08
-0.000253165
3.36843e-08
-5.05308e-11
-0.000236757
-6.7112e-09
-5.96032e-09
-1.78311e-08
0.000197388
1.992e-10
0.000236979
-1.18171e-08
-8.82952e-08
-3.43869e-09
-0.000197238
-0.000236716
-6.56706e-09
-5.89611e-09
-4.96479e-09
-1.79848e-08
0.000197325
0.000236938
-1.16304e-08
-8.82638e-08
1.40328e-08
-3.73106e-09
-0.000197175
9.90846e-05
-9.90259e-05
9.90806e-05
-9.90219e-05
-4.14411e-10
8.64253e-08
0.000145584
-0.000145667
-3.74984e-09
-9.31093e-08
-1.28582e-08
-0.000237868
-1.41999e-10
2.7184e-07
-0.000173728
-2.27606e-10
-9.59697e-11
0.000173717
-0.00023053
-7.28068e-09
-8.68754e-09
0.000230468
6.98914e-08
-0.000173821
-1.71162e-10
-0.000230688
-1.72711e-08
2.48862e-07
-1.93972e-10
0.000145577
-8.0366e-05
-1.38818e-08
-1.00101e-10
8.038e-05
-6.16083e-08
0.000270221
1.7708e-08
1.99022e-07
-0.000270397
-6.54937e-09
0.000198006
1.74052e-08
3.35777e-08
3.48968e-09
-8.04311e-05
8.99404e-09
0.00027015
4.25433e-08
-0.000145675
-1.7807e-10
8.61052e-09
-1.20382e-08
-8.90276e-09
5.87195e-11
9.8011e-08
7.4013e-10
0.000173833
-1.16898e-10
-0.000173929
-8.80333e-08
0.000230753
2.53395e-07
-0.000230914
-0.000145759
-9.66388e-11
7.3891e-08
6.04524e-08
8.03158e-05
-0.000269977
1.47413e-08
0.000269909
3.95667e-08
-1.98855e-08
-4.46163e-09
1.48602e-07
1.95416e-07
8.03303e-05
9.93458e-05
-1.53306e-08
6.34105e-09
-9.93368e-05
4.52383e-09
6.8967e-08
8.64563e-08
-3.07604e-10
0.000145583
-0.000145665
-3.83027e-09
-1.3117e-08
-9.30949e-08
-0.000237855
-5.5106e-12
2.71793e-07
-0.000230519
-7.29454e-09
-8.53902e-09
0.000230456
6.98681e-08
-0.000173725
-1.83239e-10
-4.56996e-11
0.000173714
-0.000230677
-1.72646e-08
2.4887e-07
-0.000173818
-2.68402e-11
-1.12195e-10
0.000145575
-8.03672e-05
-1.41173e-08
-8.42191e-11
8.03814e-05
-6.1641e-08
0.000270215
1.77574e-08
1.98971e-07
-0.000270391
-6.04058e-09
0.000197988
1.54495e-08
3.32822e-08
3.55814e-09
-8.04324e-05
9.12894e-09
0.000270143
4.23831e-08
-0.000145673
8.53495e-09
-1.30932e-10
-8.70461e-09
-1.19775e-08
-2.86169e-11
9.79442e-08
-8.80143e-08
0.000230742
2.53394e-07
-0.000230903
6.42123e-10
0.00017383
-1.53322e-11
-0.000173926
-0.000145757
7.38393e-08
-5.92442e-12
6.05678e-08
8.0317e-05
-0.000269971
1.47774e-08
0.000269902
3.9438e-08
-2.01024e-08
-3.75012e-09
1.48355e-07
1.9546e-07
8.03316e-05
9.93386e-05
-1.51215e-08
8.70304e-09
4.49804e-09
6.64652e-08
-4.09694e-08
-4.09688e-08
0.000218973
-0.000219099
1.02416e-07
1.04759e-07
-8.19485e-05
8.44445e-09
-1.72167e-08
8.19573e-05
-8.19365e-05
8.38033e-09
-1.71782e-08
8.19453e-05
-8.20137e-05
2.42389e-08
-8.20017e-05
2.4244e-08
3.85531e-08
3.86078e-08
0.000218913
7.03533e-08
-3.85909e-08
-4.0301e-08
0.00022902
5.7488e-08
-0.000229068
6.33524e-08
2.35844e-08
0.000285864
-8.77091e-09
-0.000285938
-3.8652e-09
0.000260211
7.79214e-08
-0.000260234
7.92475e-08
1.73748e-08
0.000187189
-0.000187221
7.28491e-08
-3.84756e-08
-3.8314e-08
0.000228943
5.75093e-08
-0.000228997
6.31795e-08
2.3491e-08
0.00028578
-8.73854e-09
-3.82753e-09
-0.000285854
0.000260089
7.32438e-08
8.41071e-08
-0.00026011
1.73081e-08
0.000187134
-0.000187166
-9.15004e-09
-9.05788e-09
-0.000219159
-8.20055e-05
-8.19935e-05
1.46338e-07
-1.28235e-07
0.000228869
2.35311e-07
-0.000187072
3.48428e-08
0.000187042
1.88286e-07
-1.31716e-08
-6.66529e-08
7.17153e-08
-0.000260028
-6.99741e-08
0.000260007
7.24392e-08
7.86332e-08
3.28217e-07
1.89642e-07
0.000228815
5.73506e-08
1.46352e-07
-1.2621e-07
0.000228797
2.30994e-07
-0.000187018
3.67714e-08
0.000186988
1.85813e-07
-1.36944e-08
-6.65338e-08
7.17372e-08
-0.000259908
-7.23095e-08
0.00025989
6.99763e-08
8.09768e-08
3.22982e-07
1.8962e-07
0.000228745
5.51139e-08
9.8644e-10
8.06728e-08
0.000145246
-0.000145323
-4.83958e-09
-8.6853e-08
-1.12718e-08
-0.000236938
1.58118e-12
2.5278e-07
-0.000173341
-1.25687e-09
1.21514e-11
-0.000229693
-2.79789e-09
-6.98586e-09
5.52303e-08
-0.000173427
2.24406e-11
-0.00022984
-1.57979e-08
2.31677e-07
-7.78031e-10
-8.0173e-05
-1.67608e-08
7.46993e-10
8.0189e-05
-5.74881e-08
0.000269285
1.63067e-08
-0.000269446
1.85255e-07
-3.81898e-09
0.000197374
1.40431e-08
2.47548e-08
4.64927e-09
-8.02351e-05
7.55236e-09
0.000269225
3.12033e-08
-0.000145328
1.10456e-09
3.86629e-09
-6.8055e-09
-7.21141e-09
1.43823e-10
8.10153e-08
-6.35865e-10
0.000173433
-0.00017352
-6.05291e-11
-8.20007e-08
0.000229894
-0.000230043
2.35894e-07
-0.000145406
5.03008e-11
5.87767e-08
5.66721e-08
8.01275e-05
-0.000269067
1.73883e-08
2.85661e-08
-1.75128e-08
-5.08781e-09
1.37833e-07
1.82014e-07
9.90968e-05
-1.39331e-08
5.89807e-09
5.27015e-09
6.27995e-08
8.06817e-08
9.13802e-10
0.000145244
-0.000145321
-4.78236e-09
-1.14032e-08
-8.68664e-08
-0.000236925
3.88327e-11
2.5277e-07
-0.000229682
-2.82873e-09
-6.96723e-09
5.52647e-08
-0.000173338
-1.21769e-09
-2.52544e-12
-0.000229829
-1.5713e-08
2.31699e-07
-0.000173424