/*--------------------------------*- C++ -*----------------------------------*\
| =========                 |                                                 |
| \\      /  F ield         | OpenFOAM: The Open Source CFD Toolbox           |
|  \\    /   O peration     | Version:  2312                                  |
|   \\  /    A nd           | Website:  www.openfoam.com                      |
|    \\/     M anipulation  |                                                 |
\*---------------------------------------------------------------------------*/
FoamFile
{
    version     2.0;
    format      ascii;
    arch        "LSB;label=32;scalar=64";
    class       volVectorField;
    location    "850";
    object      U;
}
// * * * * * * * * * * * * * * * * * * * * * * * * * * * * * * * * * * * * * //

dimensions      [0 1 -1 0 0 0 0];

internalField   nonuniform List<vector> 
43008
(
(6.34958e-05 6.35095e-05 0.108289)
(5.91258e-05 -9.55666e-05 0.107557)
(6.22911e-05 6.22664e-05 0.108604)
(-9.36464e-05 5.81491e-05 0.107771)
(5.81146e-05 -9.37096e-05 0.107771)
(-0.000149554 -0.000149576 0.106585)
(0.000152367 0.000152382 0.106508)
(1.26238e-05 1.27018e-05 0.106725)
(5.93252e-05 9.55024e-05 0.107557)
(-5.93894e-05 9.56453e-05 0.107556)
(5.86054e-05 9.41736e-05 0.107719)
(-5.86012e-05 9.42575e-05 0.107718)
(-1.25808e-05 1.2663e-05 0.106725)
(9.55505e-05 5.92256e-05 0.107557)
(9.55351e-05 -5.93811e-05 0.107556)
(9.42019e-05 5.84905e-05 0.107719)
(9.41343e-05 -5.8593e-05 0.107718)
(-9.41093e-05 5.84287e-05 0.107719)
(-9.40549e-05 -5.85408e-05 0.107718)
(0.000152375 -0.000152455 0.106508)
(1.26027e-05 -1.25874e-05 0.106725)
(-5.92153e-05 -9.55615e-05 0.107557)
(5.83736e-05 -9.41614e-05 0.107719)
(-5.84317e-05 -9.41838e-05 0.107719)
(-1.26647e-05 -1.25925e-05 0.106724)
(0.00014957 0.00014954 0.106585)
(5.8355e-05 9.37298e-05 0.10777)
(-5.83275e-05 9.37816e-05 0.10777)
(-0.000149521 0.000149526 0.106585)
(9.37524e-05 5.82199e-05 0.107771)
(9.36843e-05 -5.83213e-05 0.10777)
(-9.35863e-05 -5.82669e-05 0.10777)
(0.000149536 -0.000149597 0.106585)
(-5.81613e-05 -9.37342e-05 0.10777)
(2.13457e-06 2.08408e-05 0.094751)
(-2.83137e-06 3.82959e-05 0.0840945)
(2.84828e-06 7.0456e-05 0.0947943)
(-5.20049e-06 -1.2361e-06 0.0840816)
(5.93579e-06 -4.85016e-06 0.0725366)
(2.08148e-05 2.12165e-06 0.0947511)
(3.83097e-05 -2.83138e-06 0.0840943)
(7.04556e-05 2.8452e-06 0.0947942)
(-1.29164e-06 -5.38815e-06 0.0840815)
(-6.35079e-05 6.35011e-05 0.108289)
(6.3453e-05 -6.35482e-05 0.108289)
(-6.35206e-05 -6.35547e-05 0.108289)
(6.25908e-05 6.25748e-05 0.108526)
(-6.25631e-05 6.25572e-05 0.108526)
(6.25228e-05 -6.2605e-05 0.108526)
(-6.25734e-05 -6.26183e-05 0.108526)
(-6.21435e-05 6.40089e-06 0.103006)
(-9.50386e-05 5.89626e-05 0.107612)
(-3.02928e-05 2.16025e-06 0.096372)
(-0.000104279 2.11002e-05 0.108126)
(1.63629e-05 -3.48169e-06 0.0725068)
(-4.76475e-06 5.92477e-06 0.0725358)
(6.27949e-06 -6.21511e-05 0.103005)
(2.12413e-05 -0.000104808 0.108055)
(3.09036e-05 -7.53188e-05 0.0963601)
(5.88737e-05 -9.50938e-05 0.107612)
(7.56104e-06 -0.000126278 0.102968)
(2.11022e-05 -0.000104397 0.108126)
(2.18394e-06 -3.02183e-05 0.0963695)
(-1.41569e-05 -1.40396e-05 0.106681)
(-1.56546e-05 2.04169e-06 0.0899645)
(2.04292e-06 -1.56284e-05 0.0899616)
(1.66919e-06 1.52825e-05 0.0943851)
(-1.85706e-06 3.51896e-05 0.0838209)
(2.38733e-06 6.36121e-05 0.0944193)
(-4.53421e-06 -3.32846e-06 0.0838167)
(-3.41965e-06 1.5628e-05 0.0723245)
(5.67705e-06 -5.16287e-06 0.0723584)
(1.52584e-05 1.65153e-06 0.0943852)
(3.5216e-05 -1.9942e-06 0.0838209)
(6.36316e-05 2.35515e-06 0.0944192)
(-3.29842e-06 -4.57101e-06 0.0838167)
(-6.22547e-05 6.22468e-05 0.108604)
(6.22222e-05 -6.2296e-05 0.108604)
(-6.22609e-05 -6.2309e-05 0.108604)
(-5.53596e-05 5.2325e-06 0.102756)
(-6.98046e-05 2.83906e-05 0.096026)
(-0.000103113 2.06626e-05 0.108337)
(-9.31674e-05 5.78839e-05 0.107821)
(-0.000118527 6.5594e-06 0.102725)
(-2.55679e-05 7.34789e-07 0.0960423)
(-0.00010273 2.05194e-05 0.108405)
(1.5565e-05 -3.50464e-06 0.0723246)
(-5.1711e-06 5.75709e-06 0.0723578)
(5.14335e-06 -5.54216e-05 0.102754)
(2.06834e-05 -0.000103238 0.108337)
(2.8457e-05 -6.9845e-05 0.0960266)
(5.78357e-05 -9.32295e-05 0.107821)
(6.64869e-06 -0.000118682 0.102724)
(2.05381e-05 -0.000102834 0.108405)
(7.84396e-07 -2.54915e-05 0.0960397)
(-3.43376e-05 -1.8272e-05 0.0896678)
(-1.82765e-05 -3.43012e-05 0.0896672)
(-1.12438e-05 -1.11843e-05 0.106761)
(-1.31129e-05 2.66485e-06 0.0896665)
(2.61727e-06 -1.30408e-05 0.0896635)
(3.41537e-06 1.63021e-05 0.072507)
(-6.05734e-06 -4.81499e-06 0.0725364)
(1.63063e-05 3.32268e-06 0.0725054)
(-4.96102e-06 -6.26398e-06 0.0725354)
(1.953e-05 3.69176e-05 0.0899756)
(3.69346e-05 1.93592e-05 0.0899724)
(1.40416e-05 1.41346e-05 0.106682)
(-2.07908e-06 1.56271e-05 0.0899659)
(1.54199e-05 -2.17157e-06 0.089963)
(-5.57989e-06 -4.99876e-06 0.0724453)
(3.52131e-06 1.60094e-05 0.0724137)
(-5.00029e-06 -5.90548e-06 0.0724444)
(1.59025e-05 3.31259e-06 0.0724119)
(0.000151028 0.00015103 0.10655)
(-2.25469e-06 1.43272e-05 0.0898132)
(1.4273e-05 -2.4195e-06 0.0898106)
(1.8884e-05 3.56875e-05 0.0898189)
(3.55676e-05 1.87596e-05 0.0898155)
(-2.1434e-06 2.08286e-05 0.0947506)
(2.77614e-06 3.82228e-05 0.0840936)
(-2.89546e-06 7.04473e-05 0.0947941)
(5.11669e-06 -1.26017e-06 0.084081)
(6.39675e-06 6.2071e-05 0.103006)
(3.08747e-05 7.53916e-05 0.0963597)
(2.12953e-05 0.000104721 0.108055)
(5.90893e-05 9.50693e-05 0.107612)
(7.55956e-06 0.00012627 0.102969)
(2.11087e-06 3.03194e-05 0.0963698)
(2.11588e-05 0.000104316 0.108127)
(-6.32934e-06 6.20628e-05 0.103005)
(-3.08854e-05 7.53178e-05 0.0963584)
(-2.12627e-05 0.000104745 0.108055)
(-5.9146e-05 9.51901e-05 0.107611)
(-7.54851e-06 0.000126257 0.102968)
(-2.21796e-06 3.02656e-05 0.0963684)
(-2.1132e-05 0.000104338 0.108126)
(2.59356e-06 6.69008e-05 0.0946026)
(-4.64882e-06 -2.44898e-06 0.0839456)
(-2.23275e-06 3.66818e-05 0.0839541)
(1.88157e-06 1.79117e-05 0.0945639)
(-2.63934e-06 6.68988e-05 0.0946024)
(4.6427e-06 -2.32405e-06 0.083945)
(2.27075e-06 3.66726e-05 0.0839536)
(-1.89027e-06 1.79146e-05 0.0945635)
(7.10426e-06 0.000122442 0.102849)
(5.88587e-05 9.46391e-05 0.107666)
(1.49106e-06 2.77693e-05 0.0962022)
(2.08857e-05 0.000103551 0.108267)
(2.96745e-05 7.2593e-05 0.0961903)
(2.10238e-05 0.000103936 0.108197)
(5.78156e-06 5.86331e-05 0.102883)
(-7.07702e-06 0.000122441 0.102849)
(-5.88677e-05 9.47219e-05 0.107665)
(-1.47953e-06 2.7911e-05 0.0962005)
(-2.08388e-05 0.00010356 0.108267)
(-2.96682e-05 7.25793e-05 0.0961894)
(-2.09828e-05 0.000103948 0.108197)
(-5.71913e-06 5.86423e-05 0.102882)
(-1.40726e-05 1.41435e-05 0.106682)
(1.98506e-06 1.56093e-05 0.0899635)
(-1.56771e-05 -2.0808e-06 0.0899674)
(4.75619e-06 -5.93676e-06 0.0725389)
(5.73863e-06 -4.81282e-06 0.0724453)
(-3.45746e-06 1.5939e-05 0.0724132)
(-0.000151039 0.000151037 0.10655)
(2.41994e-06 1.44913e-05 0.0898108)
(-1.43244e-05 -2.40168e-06 0.0898149)
(-1.88411e-05 3.56237e-05 0.0898158)
(-3.55897e-05 1.8842e-05 0.0898173)
(5.0234e-06 -5.83199e-06 0.0724481)
(-1.59539e-05 3.43447e-06 0.072411)
(6.20608e-05 6.3433e-06 0.103006)
(7.53352e-05 3.08441e-05 0.0963592)
(0.00010471 2.12516e-05 0.108055)
(9.50949e-05 5.89755e-05 0.107612)
(0.000126235 7.5252e-06 0.102968)
(3.0167e-05 2.00234e-06 0.0963689)
(0.000104303 2.11095e-05 0.108126)
(2.08047e-05 -2.14936e-06 0.0947511)
(3.82898e-05 2.68055e-06 0.0840944)
(7.04425e-05 -2.88818e-06 0.0947943)
(-1.19421e-06 5.16457e-06 0.0840813)
(6.20639e-05 -6.36319e-06 0.103006)
(0.000104716 -2.13089e-05 0.108055)
(7.53091e-05 -3.09708e-05 0.0963593)
(9.50564e-05 -5.9128e-05 0.107612)
(0.000126214 -7.58679e-06 0.102968)
(0.000104297 -2.11727e-05 0.108126)
(3.02844e-05 -2.11162e-06 0.0963679)
(6.69075e-05 2.58252e-06 0.0946026)
(-2.36087e-06 -4.84372e-06 0.0839457)
(3.66624e-05 -2.3795e-06 0.0839538)
(1.79195e-05 1.88271e-06 0.0945639)
(0.000122417 7.06896e-06 0.102849)
(9.46606e-05 5.87396e-05 0.107666)
(2.77932e-05 1.38133e-06 0.0962014)
(0.000103542 2.08378e-05 0.108267)
(7.25613e-05 2.95982e-05 0.0961896)
(0.000103927 2.09755e-05 0.108197)
(5.86734e-05 5.75335e-06 0.102883)
(6.69065e-05 -2.63529e-06 0.0946026)
(-2.28481e-06 4.85432e-06 0.0839454)
(3.66889e-05 2.29421e-06 0.0839541)
(1.79111e-05 -1.86874e-06 0.094564)
(0.000122407 -7.11501e-06 0.102849)
(9.45979e-05 -5.8869e-05 0.107665)
(0.000103524 -2.08878e-05 0.108267)
(2.78557e-05 -1.35529e-06 0.0962004)
(0.000103906 -2.10307e-05 0.108197)
(7.25351e-05 -2.96728e-05 0.0961899)
(5.86698e-05 -5.74664e-06 0.102883)
(-2.08993e-05 2.25124e-06 0.0947525)
(1.22086e-06 -5.16389e-06 0.0840835)
(-6.20855e-05 -6.32538e-06 0.103006)
(-9.50164e-05 -5.9066e-05 0.107612)
(-0.000104265 -2.11966e-05 0.108126)
(-3.03463e-05 -2.12645e-06 0.0963692)
(-2.08593e-05 -2.04368e-06 0.094751)
(1.18426e-06 5.19854e-06 0.0840809)
(-0.000122341 7.01706e-06 0.10285)
(-9.45785e-05 5.86936e-05 0.107666)
(-2.78582e-05 1.4175e-06 0.0962045)
(-0.000103492 2.08074e-05 0.108267)
(-7.24577e-05 2.95901e-05 0.0961901)
(-0.000103883 2.09544e-05 0.108197)
(-5.87163e-05 5.81191e-06 0.102883)
(-6.68538e-05 2.5671e-06 0.0946017)
(2.3462e-06 -4.85569e-06 0.0839477)
(-3.66454e-05 -2.29542e-06 0.083953)
(-1.80022e-05 1.98443e-06 0.0945653)
(-0.000122392 -7.11719e-06 0.10285)
(-9.45409e-05 -5.88142e-05 0.107666)
(-0.000103485 -2.09152e-05 0.108267)
(-2.79739e-05 -1.39263e-06 0.0962017)
(-0.000103869 -2.10532e-05 0.108197)
(-7.25076e-05 -2.96295e-05 0.0961893)
(-5.86553e-05 -5.71259e-06 0.102882)
(-6.69003e-05 -2.61901e-06 0.0946022)
(2.30192e-06 4.87481e-06 0.083945)
(-3.67518e-05 2.34321e-06 0.0839532)
(-1.7974e-05 -1.78544e-06 0.0945638)
(3.69436e-05 -1.95032e-05 0.0899733)
(1.94713e-05 -3.69497e-05 0.0899751)
(1.40506e-05 -1.4054e-05 0.106681)
(1.56354e-05 1.99844e-06 0.0899617)
(-1.96755e-06 -1.56208e-05 0.0899655)
(3.4432e-06 -1.6385e-05 0.0725066)
(-5.89718e-06 4.8129e-06 0.0725363)
(-4.98244e-06 5.83559e-06 0.0724447)
(1.59531e-05 -3.50213e-06 0.0724136)
(0.000151005 -0.00015108 0.10655)
(1.43178e-05 2.33185e-06 0.0898091)
(-2.26087e-06 -1.42798e-05 0.0898129)
(3.55901e-05 -1.88729e-05 0.0898166)
(1.8878e-05 -3.55564e-05 0.0898183)
(-5.76995e-06 5.0465e-06 0.0724453)
(3.49654e-06 -1.59681e-05 0.0724133)
(-6.39705e-06 -6.21524e-05 0.103006)
(-2.12869e-05 -0.000104752 0.108055)
(-3.09438e-05 -7.53727e-05 0.0963589)
(-5.89437e-05 -9.51054e-05 0.107612)
(-7.55555e-06 -0.000126269 0.102967)
(-2.11427e-05 -0.000104334 0.108126)
(-2.13388e-06 -3.02133e-05 0.096368)
(2.11855e-06 -2.09237e-05 0.0947501)
(-2.68507e-06 -3.82898e-05 0.0840944)
(2.8947e-06 -7.04937e-05 0.094793)
(-5.09118e-06 1.28458e-06 0.0840812)
(-2.15002e-06 -2.08906e-05 0.0947507)
(2.70073e-06 -3.82997e-05 0.0840943)
(-2.86932e-06 -7.04777e-05 0.0947926)
(5.15908e-06 1.22366e-06 0.0840811)
(7.08474e-06 -0.000122484 0.102849)
(5.86316e-05 -9.46349e-05 0.107666)
(2.08263e-05 -0.000103595 0.108267)
(1.45332e-06 -2.77754e-05 0.0962019)
(2.09651e-05 -0.000104011 0.108197)
(2.96456e-05 -7.25048e-05 0.0961907)
(5.72063e-06 -5.87646e-05 0.102882)
(-7.09316e-06 -0.000122445 0.102848)
(-5.86966e-05 -9.46489e-05 0.107666)
(-2.08716e-05 -0.000103557 0.108267)
(-1.38996e-06 -2.77529e-05 0.0962003)
(-2.10046e-05 -0.000103967 0.108197)
(-2.96624e-05 -7.25602e-05 0.0961897)
(-5.77676e-06 -5.87558e-05 0.102883)
(2.66185e-06 -6.6947e-05 0.0946013)
(-4.7569e-06 2.39151e-06 0.0839453)
(-2.28011e-06 -3.66631e-05 0.083954)
(1.86962e-06 -1.80248e-05 0.0945629)
(-2.61243e-06 -6.69412e-05 0.0946008)
(4.83155e-06 2.31767e-06 0.0839451)
(2.30448e-06 -3.6671e-05 0.083954)
(-1.87077e-06 -1.79985e-05 0.0945635)
(4.76196e-06 5.95773e-06 0.0725361)
(5.96041e-06 4.76148e-06 0.0725355)
(-0.000151072 -0.000151069 0.10655)
(-1.43355e-05 2.37029e-06 0.0898119)
(2.3482e-06 -1.42769e-05 0.0898089)
(-3.56379e-05 -1.8867e-05 0.089817)
(-1.88532e-05 -3.56072e-05 0.0898162)
(4.99205e-06 5.86093e-06 0.072445)
(-1.60009e-05 -3.44719e-06 0.0724128)
(5.84471e-06 4.98472e-06 0.0724444)
(-3.4842e-06 -1.59562e-05 0.0724132)
(3.6347e-06 1.56416e-05 0.0723247)
(-5.68743e-06 -5.23094e-06 0.0723585)
(1.55843e-05 3.44136e-06 0.0723233)
(-5.22029e-06 -5.75296e-06 0.0723575)
(1.83372e-05 3.44358e-05 0.0896699)
(3.43098e-05 1.82473e-05 0.0896664)
(1.11987e-05 1.12702e-05 0.106762)
(-2.52909e-06 1.30338e-05 0.0896676)
(1.30522e-05 -2.60052e-06 0.0896652)
(-1.6267e-06 1.52667e-05 0.0943849)
(1.99096e-06 3.52475e-05 0.0838207)
(-2.38763e-06 6.36204e-05 0.0944191)
(4.51269e-06 -3.30774e-06 0.0838161)
(5.20693e-06 5.52993e-05 0.102755)
(2.85228e-05 6.99365e-05 0.0960262)
(2.07463e-05 0.000103187 0.108337)
(5.80847e-05 9.3263e-05 0.107821)
(6.64594e-06 0.000118605 0.102725)
(7.73909e-07 2.55254e-05 0.0960398)
(2.06071e-05 0.000102804 0.108405)
(-5.11001e-06 5.52878e-05 0.102755)
(-2.84122e-05 6.98977e-05 0.0960255)
(-2.06904e-05 0.000103185 0.108337)
(-5.80535e-05 9.32916e-05 0.107821)
(-6.58976e-06 0.000118598 0.102725)
(-7.53305e-07 2.55651e-05 0.0960384)
(-2.0546e-05 0.000102802 0.108405)
(-1.80853e-05 3.43204e-05 0.0896667)
(-3.4278e-05 1.82504e-05 0.0896682)
(-1.11595e-05 1.12298e-05 0.106762)
(2.53676e-06 1.31045e-05 0.0896655)
(-1.30806e-05 -2.6744e-06 0.0896695)
(-1.55174e-05 3.45119e-06 0.0723221)
(5.24973e-06 -5.73063e-06 0.0723612)
(5.53386e-05 5.13403e-06 0.102755)
(6.98925e-05 2.84351e-05 0.0960255)
(0.000103171 2.06978e-05 0.108337)
(9.32782e-05 5.79455e-05 0.107821)
(0.000118609 6.60179e-06 0.102725)
(2.54935e-05 7.28189e-07 0.0960392)
(0.000102788 2.05533e-05 0.108405)
(1.52523e-05 -1.6287e-06 0.0943853)
(3.5232e-05 1.99138e-06 0.0838211)
(6.3622e-05 -2.37122e-06 0.0944193)
(-3.23618e-06 4.61579e-06 0.0838165)
(5.53504e-05 -5.14952e-06 0.102755)
(0.000103149 -2.07355e-05 0.108337)
(6.9898e-05 -2.84521e-05 0.0960259)
(9.32128e-05 -5.80294e-05 0.107821)
(0.000118607 -6.63707e-06 0.102725)
(0.000102772 -2.05883e-05 0.108405)
(2.55631e-05 -6.40685e-07 0.0960381)
(-1.5338e-05 1.74099e-06 0.0943865)
(-3.51644e-05 -1.96844e-06 0.08382)
(-6.35838e-05 2.3129e-06 0.0944183)
(3.32649e-06 -4.59314e-06 0.0838188)
(-5.53113e-05 -5.12321e-06 0.102755)
(-0.000103103 -2.07616e-05 0.108337)
(-6.99055e-05 -2.84434e-05 0.0960251)
(-9.31021e-05 -5.79863e-05 0.107821)
(-0.000118548 -6.62568e-06 0.102725)
(-0.000102726 -2.06192e-05 0.108405)
(-2.56839e-05 -6.85954e-07 0.0960396)
(-1.53237e-05 -1.55306e-06 0.094385)
(-3.52824e-05 2.02225e-06 0.0838203)
(-6.36123e-05 -2.38064e-06 0.0944189)
(3.27536e-06 4.61811e-06 0.0838161)
(3.43123e-05 -1.82719e-05 0.0896675)
(1.83208e-05 -3.42562e-05 0.0896691)
(1.11666e-05 -1.1132e-05 0.106761)
(1.30998e-05 2.63108e-06 0.0896637)
(-2.53155e-06 -1.30428e-05 0.0896674)
(3.53612e-06 -1.55631e-05 0.0723244)
(-5.66529e-06 5.24777e-06 0.0723584)
(-5.16255e-06 -5.54033e-05 0.102755)
(-2.07195e-05 -0.000103209 0.108336)
(-2.84691e-05 -6.98955e-05 0.0960257)
(-5.78779e-05 -9.32586e-05 0.107821)
(-6.59839e-06 -0.000118633 0.102724)
(-2.05746e-05 -0.000102805 0.108405)
(-7.03868e-07 -2.54492e-05 0.0960381)
(1.63801e-06 -1.53664e-05 0.0943842)
(-1.93229e-06 -3.51956e-05 0.083821)
(2.42752e-06 -6.36475e-05 0.0944178)
(-4.49266e-06 3.356e-06 0.0838163)
(-1.6229e-06 -1.53415e-05 0.0943848)
(1.96995e-06 -3.52121e-05 0.083821)
(-2.36082e-06 -6.3637e-05 0.0944173)
(4.56295e-06 3.27264e-06 0.0838162)
(-1.56052e-05 -3.47294e-06 0.0723239)
(5.18546e-06 5.76107e-06 0.072358)
(-3.51411e-06 -1.5563e-05 0.0723243)
(5.73857e-06 5.18506e-06 0.0723575)
(-1.12157e-06 1.33353e-05 0.0780384)
(2.70693e-06 6.8648e-05 0.0946975)
(2.45523e-07 -1.02812e-05 0.0799122)
(4.22547e-06 1.39193e-05 0.0928161)
(1.04469e-07 8.38902e-06 0.0798526)
(6.44837e-06 5.91529e-05 0.0927536)
(1.88773e-07 -6.15572e-06 0.0781089)
(2.32887e-06 -6.68137e-06 0.0694215)
(5.34539e-06 3.91885e-05 0.0880755)
(-5.58916e-06 -6.39062e-07 0.0841524)
(8.75783e-07 1.24748e-05 0.0693268)
(3.71769e-06 3.64516e-06 0.0881442)
(-7.6959e-08 -6.24788e-06 0.0781576)
(2.26327e-06 2.23853e-05 0.0948477)
(7.58373e-09 8.16577e-06 0.0799013)
(6.67176e-06 6.0665e-05 0.0928436)
(-1.36625e-06 1.32537e-05 0.0780872)
(1.61187e-07 -1.05086e-05 0.0799605)
(4.42024e-06 1.52163e-05 0.0929058)
(9.08472e-07 1.2357e-05 0.0692835)
(3.67246e-06 2.92272e-06 0.0880648)
(-2.52891e-06 3.7501e-05 0.0840233)
(5.30172e-06 3.82411e-05 0.0879956)
(2.40755e-06 -6.72958e-06 0.0693779)
(6.00753e-06 -4.73532e-06 0.0725839)
(-3.3874e-06 1.61451e-05 0.0724589)
(1.33321e-05 -1.05404e-06 0.0780386)
(6.86459e-05 2.71101e-06 0.0946974)
(1.39241e-05 4.19938e-06 0.092816)
(-1.02901e-05 2.56544e-07 0.0799126)
(5.9163e-05 6.46497e-06 0.0927533)
(8.37672e-06 1.46786e-07 0.0798528)
(-6.17734e-06 1.47355e-07 0.0781092)
(-6.73316e-06 2.34031e-06 0.0694218)
(3.91836e-05 5.39099e-06 0.0880753)
(-6.2923e-07 -5.37111e-06 0.0841523)
(1.25043e-05 9.06948e-07 0.0693272)
(3.56995e-06 3.76421e-06 0.088144)
(-6.27241e-06 -5.72035e-08 0.0781579)
(2.23639e-05 2.2673e-06 0.0948478)
(6.06712e-05 6.67509e-06 0.0928433)
(8.15668e-06 4.94767e-08 0.0799015)
(1.32551e-05 -1.31915e-06 0.0780874)
(1.51972e-05 4.43091e-06 0.0929056)
(-1.05259e-05 1.93662e-07 0.0799609)
(1.2397e-05 9.64201e-07 0.069284)
(2.86454e-06 3.59852e-06 0.0880647)
(3.74607e-05 -2.68548e-06 0.0840232)
(3.82928e-05 5.23862e-06 0.0879956)
(-6.80182e-06 2.35436e-06 0.0693783)
(-4.64325e-06 5.97789e-06 0.072583)
(1.61543e-05 -3.49615e-06 0.0724596)
(-2.75463e-05 -2.75226e-05 0.0856507)
(-4.15082e-07 6.29555e-06 0.0695836)
(6.27104e-06 -3.96187e-07 0.0695769)
(-1.00562e-05 -1.19999e-05 0.0695012)
(-1.19898e-05 -1.00735e-05 0.0694949)
(-8.50833e-06 -8.47255e-06 0.085704)
(-1.61893e-05 -2.08865e-05 0.0946915)
(-1.63556e-05 1.8754e-06 0.0900437)
(-3.28628e-05 -3.54469e-05 0.10001)
(-1.24581e-05 7.02501e-06 0.083476)
(-2.0879e-05 -1.60985e-05 0.0946828)
(1.86597e-06 -1.63471e-05 0.0900408)
(-3.53669e-05 -3.28475e-05 0.100005)
(7.01175e-06 -1.24226e-05 0.0834699)
(-8.98775e-06 -8.92571e-06 0.0857765)
(-5.81802e-07 6.29584e-06 0.069632)
(6.26223e-06 -5.53496e-07 0.0696253)
(-6.92413e-05 -4.42638e-05 0.0945367)
(-1.19933e-05 6.89737e-06 0.0834101)
(-3.63061e-05 -1.91509e-05 0.0898944)
(-3.16858e-05 -3.41844e-05 0.0999311)
(-9.96349e-05 -6.26821e-05 0.0998517)
(-3.07985e-05 -5.74827e-06 0.0833395)
(-1.53659e-05 -1.99741e-05 0.0946079)
(-4.42875e-05 -6.91877e-05 0.094529)
(6.89285e-06 -1.19472e-05 0.083404)
(-1.91495e-05 -3.62884e-05 0.0898934)
(-3.40913e-05 -3.16646e-05 0.0999269)
(-6.26827e-05 -9.96144e-05 0.0998486)
(-5.76765e-06 -3.08582e-05 0.0833353)
(-1.99297e-05 -1.52887e-05 0.0945992)
(-2.14594e-07 1.35789e-05 0.0778569)
(2.27993e-06 6.20779e-05 0.0943308)
(4.52477e-07 -9.17252e-06 0.0797348)
(3.46729e-06 9.46672e-06 0.0924798)
(3.97966e-07 9.43941e-06 0.0796746)
(5.76301e-06 5.37302e-05 0.092416)
(8.44349e-07 -5.82523e-06 0.0779275)
(2.47348e-06 -6.99789e-06 0.0692536)
(4.97989e-06 3.57694e-05 0.0877692)
(-4.57172e-06 -2.8247e-06 0.0838803)
(1.07763e-06 1.19733e-05 0.0691601)
(3.26337e-06 9.60016e-07 0.0878396)
(7.47911e-07 -5.89722e-06 0.0779709)
(1.79649e-06 1.65735e-05 0.0944734)
(3.50623e-07 9.15103e-06 0.0797168)
(5.92498e-06 5.50015e-05 0.092497)
(-4.46758e-07 1.35154e-05 0.0779003)
(4.49158e-07 -9.4726e-06 0.0797769)
(3.68461e-06 1.05101e-05 0.0925606)
(1.22291e-06 1.19906e-05 0.0691214)
(3.06998e-06 3.92301e-07 0.0877687)
(-1.80576e-06 3.45437e-05 0.0837572)
(4.83373e-06 3.50961e-05 0.0876981)
(2.47331e-06 -7.02813e-06 0.0692144)
(5.76672e-06 -5.07168e-06 0.0724012)
(-3.60272e-06 1.55411e-05 0.0722813)
(1.35837e-05 -2.602e-07 0.0778571)
(6.20818e-05 2.24312e-06 0.0943307)
(9.48544e-06 3.4463e-06 0.0924796)
(-9.16584e-06 4.3281e-07 0.0797351)
(5.37372e-05 5.71515e-06 0.0924157)
(9.44895e-06 3.67266e-07 0.0796747)
(-5.81878e-06 8.21747e-07 0.0779277)
(-6.95282e-06 2.4606e-06 0.069254)
(3.58252e-05 4.9585e-06 0.0877693)
(-2.83847e-06 -4.69222e-06 0.0838803)
(1.21148e-05 1.15749e-06 0.0691608)
(9.39611e-07 3.21962e-06 0.0878395)
(-5.90563e-06 6.88735e-07 0.0779712)
(1.65635e-05 1.76339e-06 0.0944735)
(5.49977e-05 5.89484e-06 0.0924969)
(9.16686e-06 3.32077e-07 0.079717)
(1.35361e-05 -4.18997e-07 0.0779005)
(1.04986e-05 3.61969e-06 0.0925605)
(-9.46734e-06 4.04519e-07 0.0797773)
(1.20162e-05 1.20745e-06 0.0691217)
(3.82895e-07 3.06949e-06 0.0877685)
(3.4559e-05 -1.85025e-06 0.083757)
(3.50827e-05 4.82599e-06 0.087698)
(-7.00782e-06 2.48059e-06 0.0692147)
(-5.07696e-06 5.79775e-06 0.0724008)
(1.53827e-05 -3.50353e-06 0.0722817)
(-2.55755e-05 -2.55729e-05 0.0853784)
(2.38606e-07 6.24434e-06 0.0694007)
(6.22472e-06 2.60736e-07 0.0693941)
(-9.45816e-06 -1.16965e-05 0.0693186)
(-1.16723e-05 -9.47738e-06 0.0693124)
(-6.76899e-06 -6.74194e-06 0.0854334)
(-1.29917e-05 -1.74033e-05 0.0943683)
(-9.53441e-05 -5.89652e-05 0.0996208)
(-2.93919e-05 -5.97076e-06 0.0831502)
(-1.37138e-05 2.52085e-06 0.0897383)
(-6.61151e-05 -4.15241e-05 0.0942967)
(-2.83659e-05 -3.06895e-05 0.0996999)
(-1.05509e-05 6.56582e-06 0.0832211)
(-1.73256e-05 -1.29133e-05 0.0943596)
(-5.89346e-05 -9.52962e-05 0.0996178)
(-5.98242e-06 -2.94335e-05 0.0831461)
(2.48234e-06 -1.36514e-05 0.0897353)
(-4.15016e-05 -6.60727e-05 0.094289)
(-3.05044e-05 -2.82988e-05 0.0996955)
(6.55574e-06 -1.04937e-05 0.083215)
(-7.17036e-06 -7.14564e-06 0.0854983)
(-9.6025e-06 -1.17709e-05 0.0693627)
(-1.17433e-05 -9.62528e-06 0.0693564)
(-2.6035e-05 -2.6034e-05 0.0854437)
(8.52839e-08 6.25524e-06 0.0694449)
(6.24125e-06 1.04537e-07 0.0694382)
(-6.51244e-05 -4.06542e-05 0.0942202)
(-1.01003e-05 6.47059e-06 0.0831609)
(-3.3701e-05 -1.79803e-05 0.0895959)
(-2.73084e-05 -2.9552e-05 0.0996244)
(-9.39722e-05 -5.77841e-05 0.0995454)
(-2.89333e-05 -6.02922e-06 0.08309)
(-1.22409e-05 -1.65999e-05 0.0942921)
(-4.06433e-05 -6.50896e-05 0.0942125)
(6.4617e-06 -1.00319e-05 0.0831549)
(-1.79991e-05 -3.36817e-05 0.0895953)
(-2.93621e-05 -2.7227e-05 0.0996199)
(-5.77499e-05 -9.39155e-05 0.0995425)
(-6.04049e-06 -2.89677e-05 0.0830859)
(-1.65133e-05 -1.21566e-05 0.0942833)
(-6.27417e-06 -4.88115e-06 0.0725837)
(3.40591e-06 1.61295e-05 0.0724595)
(-4.52097e-06 -6.03704e-06 0.0725828)
(1.61381e-05 3.28799e-06 0.0724584)
(2.74705e-05 2.74989e-05 0.0856506)
(-6.25236e-06 3.93996e-07 0.0695845)
(3.18013e-07 -6.2051e-06 0.0695775)
(1.19306e-05 1.00201e-05 0.0695013)
(1.00542e-05 1.19538e-05 0.0694945)
(8.41563e-06 8.48768e-06 0.0857054)
(2.08118e-05 1.60226e-05 0.0946928)
(6.40283e-05 0.000101096 0.0999311)
(5.78581e-06 3.13066e-05 0.0834074)
(-1.97344e-06 1.61728e-05 0.0900451)
(4.51965e-05 7.03104e-05 0.0946212)
(-7.10417e-06 1.23562e-05 0.0834778)
(3.5349e-05 3.27726e-05 0.100011)
(1.61298e-05 2.07257e-05 0.0946846)
(0.000100982 6.38992e-05 0.0999268)
(3.12571e-05 5.56805e-06 0.0834009)
(1.63916e-05 -1.97361e-06 0.0900424)
(7.01726e-05 4.5193e-05 0.0946124)
(1.24349e-05 -7.18957e-06 0.0834716)
(3.27823e-05 3.52924e-05 0.100007)
(8.81902e-06 8.72938e-06 0.0857779)
(1.21786e-05 1.03835e-05 0.0695501)
(1.01401e-05 1.20832e-05 0.0695432)
(2.7943e-05 2.81291e-05 0.0857237)
(-6.36813e-06 3.7308e-07 0.0696333)
(4.42876e-07 -6.57684e-06 0.0696261)
(4.42149e-05 6.91998e-05 0.0945373)
(-6.83731e-06 1.19484e-05 0.0834117)
(1.91277e-05 3.63108e-05 0.0898961)
(3.4123e-05 3.16559e-05 0.0999322)
(5.68711e-06 3.08069e-05 0.0833409)
(1.99752e-05 1.5316e-05 0.0946092)
(6.26827e-05 9.96731e-05 0.0998527)
(6.91087e-05 4.42172e-05 0.0945286)
(1.18786e-05 -6.8446e-06 0.0834056)
(3.61831e-05 1.90607e-05 0.089893)
(3.15678e-05 3.40579e-05 0.0999287)
(3.08121e-05 5.75372e-06 0.0833349)
(1.52292e-05 1.99075e-05 0.094601)
(9.94772e-05 6.25875e-05 0.0998484)
(3.5614e-06 1.5788e-05 0.0723686)
(-6.00057e-06 -4.97265e-06 0.0724904)
(1.57765e-05 3.40685e-06 0.0723672)
(-4.88021e-06 -5.9843e-06 0.0724893)
(8.01156e-06 7.98598e-06 0.085635)
(1.19239e-05 9.9521e-06 0.0694541)
(9.91501e-06 1.19802e-05 0.0694473)
(2.70002e-05 2.70707e-05 0.0855798)
(-6.22919e-06 1.91551e-07 0.0695373)
(2.06819e-07 -6.30483e-06 0.0695303)
(4.24196e-05 6.71781e-05 0.0943757)
(3.17894e-05 2.94464e-05 0.0997771)
(1.85985e-05 3.50389e-05 0.0897434)
(-6.62141e-06 1.10453e-05 0.0832842)
(5.94668e-06 2.9905e-05 0.0832136)
(6.023e-05 9.6839e-05 0.0996982)
(1.82529e-05 1.37781e-05 0.0944477)
(6.70853e-05 4.24278e-05 0.0943669)
(2.93978e-05 3.1697e-05 0.0997737)
(3.49548e-05 1.84981e-05 0.0897401)
(1.09912e-05 -6.68419e-06 0.0832782)
(2.98985e-05 5.93443e-06 0.0832072)
(9.66857e-05 6.01412e-05 0.0996937)
(1.37053e-05 1.81601e-05 0.0944395)
(1.90975e-05 1.45011e-05 0.0945275)
(5.87908e-06 3.03586e-05 0.0832765)
(6.14508e-05 9.82525e-05 0.0997751)
(-2.21459e-06 1.48939e-05 0.0898886)
(4.3329e-05 6.82092e-05 0.0944555)
(-6.70443e-06 1.14399e-05 0.0833472)
(3.29271e-05 3.05135e-05 0.0998543)
(1.45148e-05 1.90204e-05 0.0945193)
(3.03318e-05 5.84726e-06 0.0832702)
(9.8098e-05 6.13655e-05 0.0997706)
(1.49417e-05 -2.29037e-06 0.0898859)
(6.8085e-05 4.33461e-05 0.0944468)
(1.14596e-05 -6.80328e-06 0.0833412)
(3.05249e-05 3.28771e-05 0.0998508)
(2.65318e-05 2.65607e-05 0.085511)
(-6.35513e-06 3.90875e-08 0.0694911)
(1.56622e-08 -6.30898e-06 0.069484)
(1.18652e-05 9.78597e-06 0.0694082)
(9.80908e-06 1.18824e-05 0.0694012)
(7.53455e-06 7.56104e-06 0.0855665)
(9.00835e-07 1.33254e-05 0.0780376)
(-2.78246e-06 6.86442e-05 0.0946972)
(-3.1576e-07 -1.02903e-05 0.0799119)
(-4.23747e-06 1.39007e-05 0.0928149)
(-2.41646e-07 8.37871e-06 0.0798523)
(-6.54569e-06 5.91461e-05 0.0927535)
(-2.53196e-07 -6.18094e-06 0.0781077)
(-2.4314e-06 -6.72775e-06 0.0694227)
(-5.44226e-06 3.9135e-05 0.0880761)
(5.3312e-06 -6.5566e-07 0.0841517)
(-9.55478e-07 1.2452e-05 0.0693291)
(-3.85298e-06 3.59471e-06 0.0881434)
(-3.9999e-08 -6.26011e-06 0.0781563)
(-2.28389e-06 2.23743e-05 0.0948473)
(-1.34204e-07 8.1581e-06 0.079901)
(-6.72485e-06 6.06585e-05 0.0928435)
(-2.545e-07 -1.05221e-05 0.0799602)
(1.24815e-06 1.3238e-05 0.0780863)
(-4.46676e-06 1.51977e-05 0.0929045)
(-1.09493e-06 1.24444e-05 0.0692858)
(-3.70974e-06 2.88288e-06 0.0880642)
(2.47222e-06 3.74808e-05 0.0840227)
(-5.4039e-06 3.83201e-05 0.0879963)
(-2.47056e-06 -6.76938e-06 0.0693794)
(3.96132e-07 -6.06546e-06 0.0780616)
(1.86589e-07 8.62914e-06 0.0798057)
(6.25741e-06 5.76845e-05 0.0926658)
(1.99927e-06 1.93512e-05 0.0946564)
(-9.00996e-07 1.33885e-05 0.0779911)
(2.97908e-07 -1.00199e-05 0.0798655)
(4.01027e-06 1.27051e-05 0.0927287)
(1.01909e-06 1.2149e-05 0.0692006)
(-1.96379e-06 3.59066e-05 0.0838868)
(3.36034e-06 1.33373e-06 0.0879125)
(2.21563e-06 -7.22477e-06 0.0692939)
(5.14102e-06 3.64597e-05 0.0878427)
(2.45491e-06 -6.74774e-06 0.0693356)
(5.22947e-06 3.7361e-05 0.0879181)
(-5.01249e-06 -1.83e-06 0.0840128)
(9.69831e-07 1.21991e-05 0.0692414)
(3.54107e-06 2.25885e-06 0.0879878)
(-7.15691e-07 1.34455e-05 0.0779451)
(2.46793e-06 6.52377e-05 0.0945099)
(3.32043e-07 -9.76409e-06 0.0798205)
(3.76714e-06 1.15289e-05 0.0926435)
(3.38496e-07 -6.0571e-06 0.0780156)
(2.36888e-07 8.89622e-06 0.0797605)
(6.03505e-06 5.62937e-05 0.0925804)
(-4.36227e-07 -6.09575e-06 0.0780605)
(-2.8988e-07 8.62465e-06 0.0798055)
(-6.32207e-06 5.76867e-05 0.0926658)
(-2.01568e-06 1.9343e-05 0.094656)
(7.34919e-07 1.3379e-05 0.0779903)
(-3.69142e-07 -1.00256e-05 0.0798652)
(-4.03414e-06 1.26888e-05 0.0927275)
(-1.16756e-06 1.21906e-05 0.0692026)
(2.08695e-06 3.59465e-05 0.0838862)
(-3.47965e-06 1.53652e-06 0.087912)
(-5.14947e-06 3.65904e-05 0.0878434)
(-2.52439e-06 -6.91804e-06 0.0692956)
(-2.49105e-06 -6.84824e-06 0.0693369)
(-5.26072e-06 3.74098e-05 0.0879188)
(4.94031e-06 -1.84371e-06 0.0840119)
(-1.1013e-06 1.2281e-05 0.0692437)
(-3.55497e-06 2.17712e-06 0.087987)
(5.243e-07 1.34503e-05 0.0779444)
(-2.51233e-06 6.52321e-05 0.0945097)
(-4.25508e-07 -9.7468e-06 0.0798202)
(-3.84737e-06 1.15406e-05 0.0926424)
(-3.35845e-07 8.88956e-06 0.0797603)
(-6.13609e-06 5.63052e-05 0.0925804)
(-6.14619e-07 -5.99901e-06 0.0780146)
(-2.75699e-05 2.7527e-05 0.0856514)
(6.25643e-06 3.23887e-07 0.0695786)
(-4.34045e-07 -6.35061e-06 0.069584)
(-1.20479e-05 1.00872e-05 0.0694955)
(-1.00415e-05 1.19871e-05 0.0695011)
(-8.52624e-06 8.37797e-06 0.0857053)
(-2.08967e-05 1.60786e-05 0.0946843)
(1.8217e-06 1.63025e-05 0.0900426)
(6.95152e-06 1.24175e-05 0.0834718)
(-3.54431e-05 3.28261e-05 0.100007)
(-1.61838e-05 2.08344e-05 0.0946933)
(-1.63803e-05 -1.90361e-06 0.0900464)
(-3.29046e-05 3.53598e-05 0.100012)
(-1.2465e-05 -7.08328e-06 0.0834778)
(-9.01485e-06 8.85261e-06 0.0857778)
(6.22765e-06 4.86023e-07 0.0696269)
(-6.0919e-07 -6.35487e-06 0.0696324)
(-4.43168e-05 6.91653e-05 0.0945289)
(6.83999e-06 1.19548e-05 0.0834061)
(-1.91346e-05 3.62872e-05 0.089893)
(-3.4194e-05 3.16523e-05 0.0999284)
(-5.81185e-06 3.08161e-05 0.0833349)
(-6.26646e-05 9.96022e-05 0.0998484)
(-1.9969e-05 1.52637e-05 0.0946008)
(-6.92302e-05 4.42765e-05 0.0945379)
(-1.198e-05 -6.97052e-06 0.0834119)
(-3.62462e-05 1.9148e-05 0.0898948)
(-3.17369e-05 3.41029e-05 0.0999332)
(-9.95588e-05 6.26921e-05 0.0998526)
(-3.07655e-05 5.77494e-06 0.0833406)
(-1.53605e-05 1.99179e-05 0.0946097)
(4.635e-06 -5.99985e-06 0.0725858)
(-1.61522e-05 3.42817e-06 0.0724573)
(-3.46328e-06 1.5796e-05 0.0723682)
(5.86009e-06 -4.93838e-06 0.0724902)
(-8.07171e-06 7.86627e-06 0.0856348)
(-1.19587e-05 9.95515e-06 0.0694484)
(-9.9043e-06 1.19028e-05 0.0694539)
(-2.70591e-05 2.70234e-05 0.0855806)
(6.29882e-06 1.07665e-07 0.0695313)
(-2.78824e-07 -6.36374e-06 0.0695367)
(-4.24315e-05 6.70494e-05 0.0943671)
(-3.17487e-05 2.93994e-05 0.0997733)
(-1.85113e-05 3.5005e-05 0.0897403)
(6.74381e-06 1.102e-05 0.083279)
(-6.01269e-05 9.67367e-05 0.0996938)
(-5.91543e-06 2.98806e-05 0.0832071)
(-1.81683e-05 1.36292e-05 0.0944393)
(-6.71266e-05 4.23834e-05 0.0943761)
(-2.94766e-05 3.1682e-05 0.0997782)
(-3.49014e-05 1.85289e-05 0.0897418)
(-1.10211e-05 -6.76336e-06 0.0832845)
(-2.98366e-05 5.90505e-06 0.083213)
(-9.66992e-05 6.01584e-05 0.099698)
(-1.37504e-05 1.81161e-05 0.094448)
(-1.90575e-05 1.44392e-05 0.0945191)
(-5.87645e-06 3.03458e-05 0.0832703)
(-6.1398e-05 9.81657e-05 0.0997707)
(2.18817e-06 1.49628e-05 0.0898861)
(-3.29679e-05 3.05224e-05 0.0998504)
(-4.33596e-05 6.80975e-05 0.0944471)
(6.78012e-06 1.14818e-05 0.0833417)
(-1.45493e-05 1.89968e-05 0.0945279)
(-3.03016e-05 5.85477e-06 0.083276)
(-9.81376e-05 6.14228e-05 0.0997749)
(-1.49892e-05 -2.24615e-06 0.0898903)
(-6.81631e-05 4.3323e-05 0.0944561)