/*--------------------------------*- C++ -*----------------------------------*\
| =========                 |                                                 |
| \\      /  F ield         | OpenFOAM: The Open Source CFD Toolbox           |
|  \\    /   O peration     | Version:                                        |
|   \\  /    A nd           | Website:  www.openfoam.com                      |
|    \\/     M anipulation  |                                                 |
\*---------------------------------------------------------------------------*/
FoamFile
{
    version     2.0;
    format      ascii;
    class       volScalarField;
    location    "1100.5";
    object      p;
}
// * * * * * * * * * * * * * * * * * * * * * * * * * * * * * * * * * * * * * //

dimensions      [0 2 -2 0 0 0 0];


internalField   nonuniform List<scalar> 
247096
(
3.17333e-07
3.17341e-07
3.1739e-07
3.17437e-07
3.17454e-07
3.17432e-07
3.17383e-07
3.17331e-07
3.17341e-07
3.1742e-07
3.17506e-07
3.17529e-07
3.17531e-07
3.17528e-07
3.17499e-07
3.17405e-07
3.1739e-07
3.17506e-07
3.17531e-07
3.17514e-07
3.17505e-07
3.17516e-07
3.17531e-07
3.17495e-07
3.17377e-07
3.17437e-07
3.17529e-07
3.17514e-07
3.17477e-07
3.17462e-07
3.17481e-07
3.17518e-07
3.17525e-07
3.17417e-07
3.17333e-07
3.17454e-07
3.17531e-07
3.17505e-07
3.17462e-07
3.17445e-07
3.17466e-07
3.1751e-07
3.17529e-07
3.17433e-07
3.17432e-07
3.17528e-07
3.17516e-07
3.17481e-07
3.17466e-07
3.17484e-07
3.1752e-07
3.17523e-07
3.17412e-07
3.17383e-07
3.17499e-07
3.17531e-07
3.17518e-07
3.1751e-07
3.1752e-07
3.1753e-07
3.17487e-07
3.17373e-07
3.17331e-07
3.17405e-07
3.17495e-07
3.17525e-07
3.17529e-07
3.17523e-07
3.17487e-07
3.17392e-07
3.17377e-07
3.17417e-07
3.17433e-07
3.17412e-07
3.17373e-07
3.13462e-07
3.13433e-07
3.13414e-07
3.13204e-07
3.13198e-07
3.13208e-07
3.13205e-07
3.13448e-07
3.13399e-07
3.13414e-07
3.13185e-07
3.12834e-07
3.12822e-07
3.12822e-07
3.12834e-07
3.13262e-07
3.13243e-07
3.13204e-07
3.12834e-07
3.12802e-07
3.12802e-07
3.12802e-07
3.12802e-07
3.12834e-07
3.13367e-07
3.13464e-07
3.13462e-07
3.13198e-07
3.12822e-07
3.12802e-07
3.12803e-07
3.12803e-07
3.12802e-07
3.12822e-07
3.13368e-07
3.13463e-07
3.13433e-07
3.13208e-07
3.12822e-07
3.12802e-07
3.12803e-07
3.12803e-07
3.12802e-07
3.12822e-07
3.13361e-07
3.13268e-07
3.13205e-07
3.12834e-07
3.12802e-07
3.12802e-07
3.12802e-07
3.12802e-07
3.12834e-07
3.1337e-07
3.13474e-07
3.13448e-07
3.13262e-07
3.12834e-07
3.12822e-07
3.12822e-07
3.12834e-07
3.13333e-07
3.13307e-07
3.13467e-07
3.13399e-07
3.13243e-07
3.13367e-07
3.13368e-07
3.13361e-07
3.1337e-07
3.13307e-07
3.13464e-07
3.13464e-07
3.13463e-07
3.13268e-07
3.13474e-07
3.13467e-07
3.10115e-07
3.10116e-07
3.10104e-07
3.09874e-07
3.09865e-07
3.09876e-07
3.09873e-07
3.10125e-07
3.10089e-07
3.10104e-07
3.09847e-07
3.09417e-07
3.0942e-07
3.0942e-07
3.09417e-07
3.09901e-07
3.09915e-07
3.09875e-07
3.09417e-07
3.09432e-07
3.09431e-07
3.09431e-07
3.09432e-07
3.09417e-07
3.10007e-07
3.10139e-07
3.10115e-07
3.09865e-07
3.0942e-07
3.09431e-07
3.09431e-07
3.09431e-07
3.09431e-07
3.0942e-07
3.10004e-07
3.10116e-07
3.10116e-07
3.09876e-07
3.0942e-07
3.09431e-07
3.09431e-07
3.09431e-07
3.09431e-07
3.0942e-07
3.09997e-07
3.09944e-07
3.09873e-07
3.09417e-07
3.09432e-07
3.09431e-07
3.09431e-07
3.09432e-07
3.09417e-07
3.10007e-07
3.10127e-07
3.10125e-07
3.09901e-07
3.09417e-07
3.0942e-07
3.0942e-07
3.09417e-07
3.09946e-07
3.0996e-07
3.10149e-07
3.10089e-07
3.09915e-07
3.10007e-07
3.10004e-07
3.09997e-07
3.10007e-07
3.0996e-07
3.10137e-07
3.10139e-07
3.10116e-07
3.09944e-07
3.10127e-07
3.10149e-07
3.06759e-07
3.0676e-07
3.06747e-07
3.06518e-07
3.06509e-07
3.0652e-07
3.06517e-07
3.06769e-07
3.06733e-07
3.06747e-07
3.06491e-07
3.06058e-07
3.06061e-07
3.06061e-07
3.06058e-07
3.06545e-07
3.06558e-07
3.06518e-07
3.06058e-07
3.06078e-07
3.06071e-07
3.06071e-07
3.06078e-07
3.06058e-07
3.06653e-07
3.06783e-07
3.06759e-07
3.06509e-07
3.06061e-07
3.06071e-07
3.06068e-07
3.06068e-07
3.06071e-07
3.06061e-07
3.0665e-07
3.06761e-07
3.0676e-07
3.0652e-07
3.06061e-07
3.06071e-07
3.06068e-07
3.06068e-07
3.06071e-07
3.06061e-07
3.06643e-07
3.06588e-07
3.06517e-07
3.06058e-07
3.06078e-07
3.06071e-07
3.06071e-07
3.06078e-07
3.06058e-07
3.06653e-07
3.06772e-07
3.06769e-07
3.06545e-07
3.06058e-07
3.06061e-07
3.06061e-07
3.06058e-07
3.06591e-07
3.06605e-07
3.06793e-07
3.06733e-07
3.06558e-07
3.06653e-07
3.0665e-07
3.06643e-07
3.06653e-07
3.06605e-07
3.06781e-07
3.06783e-07
3.06761e-07
3.06588e-07
3.06772e-07
3.06793e-07
3.03401e-07
3.03402e-07
3.03389e-07
3.0316e-07
3.0315e-07
3.03162e-07
3.03158e-07
3.03411e-07
3.03374e-07
3.03389e-07
3.03132e-07
3.02699e-07
3.02702e-07
3.02702e-07
3.02699e-07
3.03186e-07
3.032e-07
3.0316e-07
3.02699e-07
3.02721e-07
3.02711e-07
3.02711e-07
3.02721e-07
3.02699e-07
3.03295e-07
3.03425e-07
3.03401e-07
3.0315e-07
3.02702e-07
3.02711e-07
3.02707e-07
3.02707e-07
3.02711e-07
3.02702e-07
3.03292e-07
3.03403e-07
3.03402e-07
3.03162e-07
3.02702e-07
3.02711e-07
3.02707e-07
3.02707e-07
3.02711e-07
3.02702e-07
3.03285e-07
3.0323e-07
3.03158e-07
3.02699e-07
3.02721e-07
3.02712e-07
3.02711e-07
3.02721e-07
3.02699e-07
3.03296e-07
3.03414e-07
3.03411e-07
3.03186e-07
3.02699e-07
3.02702e-07
3.02702e-07
3.02699e-07
3.03233e-07
3.03247e-07
3.03435e-07
3.03374e-07
3.032e-07
3.03295e-07
3.03292e-07
3.03285e-07
3.03296e-07
3.03247e-07
3.03423e-07
3.03425e-07
3.03403e-07
3.0323e-07
3.03414e-07
3.03435e-07
3.00042e-07
3.00043e-07
3.00031e-07
2.99801e-07
2.99792e-07
2.99803e-07
2.998e-07
3.00052e-07
3.00016e-07
3.00031e-07
2.99773e-07
2.9934e-07
2.99343e-07
2.99343e-07
2.9934e-07
2.99828e-07
2.99841e-07
2.99801e-07
2.9934e-07
2.99361e-07
2.99352e-07
2.99352e-07
2.99361e-07
2.9934e-07
2.99937e-07
3.00067e-07
3.00042e-07
2.99792e-07
2.99343e-07
2.99352e-07
2.99348e-07
2.99348e-07
2.99352e-07
2.99343e-07
2.99934e-07
3.00044e-07
3.00043e-07
2.99803e-07
2.99343e-07
2.99352e-07
2.99348e-07
2.99348e-07
2.99352e-07
2.99343e-07
2.99926e-07
2.99872e-07
2.998e-07
2.9934e-07
2.99361e-07
2.99352e-07
2.99352e-07
2.99361e-07
2.9934e-07
2.99937e-07
3.00055e-07
3.00052e-07
2.99828e-07
2.9934e-07
2.99343e-07
2.99343e-07
2.9934e-07
2.99874e-07
2.99888e-07
3.00076e-07
3.00016e-07
2.99841e-07
2.99937e-07
2.99934e-07
2.99926e-07
2.99937e-07
2.99888e-07
3.00064e-07
3.00067e-07
3.00044e-07
2.99872e-07
3.00055e-07
3.00076e-07
2.96684e-07
2.96685e-07
2.96672e-07
2.96443e-07
2.96433e-07
2.96444e-07
2.96441e-07
2.96694e-07
2.96657e-07
2.96672e-07
2.96415e-07
2.95981e-07
2.95984e-07
2.95984e-07
2.95981e-07
2.96469e-07
2.96483e-07
2.96443e-07
2.95981e-07
2.96002e-07
2.95994e-07
2.95994e-07
2.96002e-07
2.95981e-07
2.96578e-07
2.96708e-07
2.96684e-07
2.96433e-07
2.95984e-07
2.95994e-07
2.95989e-07
2.95989e-07
2.95994e-07
2.95984e-07
2.96575e-07
2.96686e-07
2.96685e-07
2.96444e-07
2.95984e-07
2.95994e-07
2.95989e-07
2.95989e-07
2.95994e-07
2.95984e-07
2.96568e-07
2.96513e-07
2.96441e-07
2.95981e-07
2.96002e-07
2.95994e-07
2.95994e-07
2.96002e-07
2.95981e-07
2.96579e-07
2.96697e-07
2.96694e-07
2.96469e-07
2.95981e-07
2.95984e-07
2.95984e-07
2.95981e-07
2.96516e-07
2.9653e-07
2.96718e-07
2.96657e-07
2.96483e-07
2.96578e-07
2.96575e-07
2.96568e-07
2.96579e-07
2.9653e-07
2.96706e-07
2.96708e-07
2.96686e-07
2.96513e-07
2.96697e-07
2.96718e-07
2.93325e-07
2.93326e-07
2.93314e-07
2.93084e-07
2.93075e-07
2.93086e-07
2.93083e-07
2.93335e-07
2.93299e-07
2.93314e-07
2.93056e-07
2.92623e-07
2.92625e-07
2.92625e-07
2.92623e-07
2.93111e-07
2.93124e-07
2.93084e-07
2.92623e-07
2.92643e-07
2.92635e-07
2.92635e-07
2.92643e-07
2.92623e-07
2.9322e-07
2.93349e-07
2.93325e-07
2.93075e-07
2.92625e-07
2.92635e-07
2.9263e-07
2.9263e-07
2.92635e-07
2.92625e-07
2.93217e-07
2.93327e-07
2.93326e-07
2.93086e-07
2.92625e-07
2.92635e-07
2.9263e-07
2.9263e-07
2.92635e-07
2.92625e-07
2.93209e-07
2.93155e-07
2.93083e-07
2.92623e-07
2.92643e-07
2.92635e-07
2.92635e-07
2.92643e-07
2.92623e-07
2.9322e-07
2.93338e-07
2.93335e-07
2.93111e-07
2.92623e-07
2.92625e-07
2.92625e-07
2.92623e-07
2.93157e-07
2.93171e-07
2.93359e-07
2.93299e-07
2.93124e-07
2.9322e-07
2.93217e-07
2.93209e-07
2.9322e-07
2.93171e-07
2.93347e-07
2.9335e-07
2.93327e-07
2.93155e-07
2.93338e-07
2.93359e-07
2.89967e-07
2.89968e-07
2.89955e-07
2.89726e-07
2.89716e-07
2.89728e-07
2.89724e-07
2.89977e-07
2.8994e-07
2.89955e-07
2.89698e-07
2.89264e-07
2.89267e-07
2.89267e-07
2.89264e-07
2.89752e-07
2.89766e-07
2.89726e-07
2.89264e-07
2.89284e-07
2.89277e-07
2.89277e-07
2.89284e-07
2.89264e-07
2.89861e-07
2.89991e-07
2.89967e-07
2.89716e-07
2.89267e-07
2.89276e-07
2.89272e-07
2.89272e-07
2.89276e-07
2.89267e-07
2.89858e-07
2.89969e-07
2.89968e-07
2.89727e-07
2.89267e-07
2.89276e-07
2.89272e-07
2.89272e-07
2.89276e-07
2.89267e-07
2.89851e-07
2.89796e-07
2.89724e-07
2.89264e-07
2.89284e-07
2.89276e-07
2.89276e-07
2.89284e-07
2.89264e-07
2.89862e-07
2.8998e-07
2.89977e-07
2.89752e-07
2.89264e-07
2.89267e-07
2.89267e-07
2.89264e-07
2.89799e-07
2.89813e-07
2.90001e-07
2.8994e-07
2.89766e-07
2.89861e-07
2.89858e-07
2.89851e-07
2.89862e-07
2.89813e-07
2.89989e-07
2.89991e-07
2.89969e-07
2.89796e-07
2.8998e-07
2.90001e-07
2.86608e-07
2.86609e-07
2.86597e-07
2.86367e-07
2.86358e-07
2.86369e-07
2.86366e-07
2.86618e-07
2.86582e-07
2.86597e-07
2.86339e-07
2.85906e-07
2.85908e-07
2.85908e-07
2.85906e-07
2.86394e-07
2.86407e-07
2.86367e-07
2.85906e-07
2.85926e-07
2.85918e-07
2.85918e-07
2.85926e-07
2.85906e-07
2.86503e-07
2.86632e-07
2.86608e-07
2.86358e-07
2.85908e-07
2.85918e-07
2.85913e-07
2.85913e-07
2.85918e-07
2.85908e-07
2.865e-07
2.8661e-07
2.86609e-07
2.86369e-07
2.85908e-07
2.85918e-07
2.85913e-07
2.85913e-07
2.85918e-07
2.85908e-07
2.86492e-07
2.86438e-07
2.86366e-07
2.85906e-07
2.85926e-07
2.85918e-07
2.85918e-07
2.85926e-07
2.85906e-07
2.86503e-07
2.86621e-07
2.86618e-07
2.86394e-07
2.85906e-07
2.85908e-07
2.85908e-07
2.85906e-07
2.8644e-07
2.86454e-07
2.86642e-07
2.86582e-07
2.86407e-07
2.86503e-07
2.865e-07
2.86492e-07
2.86503e-07
2.86454e-07
2.8663e-07
2.86633e-07
2.8661e-07
2.86438e-07
2.86621e-07
2.86642e-07
2.8325e-07
2.83251e-07
2.83238e-07
2.83008e-07
2.82999e-07
2.8301e-07
2.83007e-07
2.8326e-07
2.83223e-07
2.83238e-07
2.82981e-07
2.82547e-07
2.8255e-07
2.8255e-07
2.82547e-07
2.83035e-07
2.83049e-07
2.83008e-07
2.82547e-07
2.82567e-07
2.82559e-07
2.82559e-07
2.82567e-07
2.82547e-07
2.83144e-07
2.83274e-07
2.8325e-07
2.82999e-07
2.8255e-07
2.82559e-07
2.82555e-07
2.82555e-07
2.82559e-07
2.8255e-07
2.83141e-07
2.83252e-07
2.83251e-07
2.8301e-07
2.8255e-07
2.82559e-07
2.82555e-07
2.82555e-07
2.82559e-07
2.8255e-07
2.83134e-07
2.83079e-07
2.83007e-07
2.82547e-07
2.82567e-07
2.82559e-07
2.82559e-07
2.82567e-07
2.82547e-07
2.83144e-07
2.83263e-07
2.8326e-07
2.83035e-07
2.82547e-07
2.8255e-07
2.8255e-07
2.82547e-07
2.83082e-07
2.83096e-07
2.83284e-07
2.83223e-07
2.83049e-07
2.83144e-07
2.83141e-07
2.83134e-07
2.83144e-07
2.83096e-07
2.83272e-07
2.83274e-07
2.83252e-07
2.83079e-07
2.83263e-07
2.83284e-07
2.79891e-07
2.79892e-07
2.79879e-07
2.7965e-07
2.7964e-07
2.79652e-07
2.79649e-07
2.79901e-07
2.79865e-07
2.79879e-07
2.79622e-07
2.79189e-07
2.79191e-07
2.79191e-07
2.79189e-07
2.79676e-07
2.7969e-07
2.7965e-07
2.79189e-07
2.79209e-07
2.79201e-07
2.79201e-07
2.79209e-07
2.79189e-07
2.79786e-07
2.79915e-07
2.79891e-07
2.7964e-07
2.79191e-07
2.79201e-07
2.79196e-07
2.79196e-07
2.79201e-07
2.79191e-07
2.79783e-07
2.79893e-07
2.79892e-07
2.79652e-07
2.79191e-07
2.79201e-07
2.79196e-07
2.79196e-07
2.79201e-07
2.79191e-07
2.79775e-07
2.79721e-07
2.79649e-07
2.79189e-07
2.79209e-07
2.79201e-07
2.79201e-07
2.79209e-07
2.79189e-07
2.79786e-07
2.79904e-07
2.79901e-07
2.79676e-07
2.79189e-07
2.79191e-07
2.79191e-07
2.79189e-07
2.79723e-07
2.79737e-07
2.79925e-07
2.79865e-07
2.7969e-07
2.79786e-07
2.79783e-07
2.79775e-07
2.79786e-07
2.79737e-07
2.79913e-07
2.79915e-07
2.79893e-07
2.79721e-07
2.79904e-07
2.79925e-07
2.76533e-07
2.76533e-07
2.76521e-07
2.76291e-07
2.76282e-07
2.76293e-07
2.7629e-07
2.76542e-07
2.76506e-07
2.76521e-07
2.76264e-07
2.7583e-07
2.75833e-07
2.75833e-07
2.7583e-07
2.76318e-07
2.76332e-07
2.76291e-07
2.7583e-07
2.7585e-07
2.75842e-07
2.75842e-07
2.7585e-07
2.7583e-07
2.76427e-07
2.76557e-07
2.76533e-07
2.76282e-07
2.75833e-07
2.75842e-07
2.75837e-07
2.75837e-07
2.75842e-07
2.75833e-07
2.76424e-07
2.76534e-07
2.76533e-07
2.76293e-07
2.75833e-07
2.75842e-07
2.75837e-07
2.75837e-07
2.75842e-07
2.75833e-07
2.76416e-07
2.76362e-07
2.7629e-07
2.7583e-07
2.7585e-07
2.75842e-07
2.75842e-07
2.7585e-07
2.7583e-07
2.76427e-07
2.76545e-07
2.76542e-07
2.76318e-07
2.7583e-07
2.75833e-07
2.75833e-07
2.7583e-07
2.76365e-07
2.76378e-07
2.76567e-07
2.76506e-07
2.76332e-07
2.76427e-07
2.76424e-07
2.76416e-07
2.76427e-07
2.76378e-07
2.76555e-07
2.76557e-07
2.76534e-07
2.76362e-07
2.76545e-07
2.76567e-07
2.73174e-07
2.73175e-07
2.73162e-07
2.72933e-07
2.72923e-07
2.72935e-07
2.72931e-07
2.73184e-07
2.73148e-07
2.73162e-07
2.72905e-07
2.72471e-07
2.72474e-07
2.72474e-07
2.72471e-07
2.72959e-07
2.72973e-07
2.72933e-07
2.72472e-07
2.72491e-07
2.72484e-07
2.72484e-07
2.72491e-07
2.72471e-07
2.73068e-07
2.73198e-07
2.73174e-07
2.72923e-07
2.72474e-07
2.72484e-07
2.72479e-07
2.72479e-07
2.72484e-07
2.72474e-07
2.73065e-07
2.73176e-07
2.73175e-07
2.72935e-07
2.72474e-07
2.72484e-07
2.72479e-07
2.72479e-07
2.72484e-07
2.72474e-07
2.73058e-07
2.73003e-07
2.72931e-07
2.72472e-07
2.72491e-07
2.72484e-07
2.72484e-07
2.72491e-07
2.72472e-07
2.73069e-07
2.73187e-07
2.73184e-07
2.72959e-07
2.72472e-07
2.72474e-07
2.72474e-07
2.72472e-07
2.73006e-07
2.7302e-07
2.73208e-07
2.73148e-07
2.72973e-07
2.73068e-07
2.73065e-07
2.73058e-07
2.73069e-07
2.7302e-07
2.73196e-07
2.73198e-07
2.73176e-07
2.73003e-07
2.73187e-07
2.73208e-07
2.69815e-07
2.69816e-07
2.69804e-07
2.69574e-07
2.69565e-07
2.69576e-07
2.69573e-07
2.69825e-07
2.69789e-07
2.69804e-07
2.69547e-07
2.69113e-07
2.69116e-07
2.69116e-07
2.69113e-07
2.69601e-07
2.69615e-07
2.69574e-07
2.69113e-07
2.69133e-07
2.69125e-07
2.69125e-07
2.69133e-07
2.69113e-07
2.6971e-07
2.6984e-07
2.69816e-07
2.69565e-07
2.69116e-07
2.69125e-07
2.6912e-07
2.6912e-07
2.69125e-07
2.69116e-07
2.69707e-07
2.69817e-07
2.69816e-07
2.69576e-07
2.69116e-07
2.69125e-07
2.6912e-07
2.6912e-07
2.69125e-07
2.69116e-07
2.69699e-07
2.69645e-07
2.69573e-07
2.69113e-07
2.69133e-07
2.69125e-07
2.69125e-07
2.69133e-07
2.69113e-07
2.6971e-07
2.69828e-07
2.69825e-07
2.69601e-07
2.69113e-07
2.69116e-07
2.69116e-07
2.69113e-07
2.69647e-07
2.69661e-07
2.6985e-07
2.69789e-07
2.69615e-07
2.6971e-07
2.69707e-07
2.69699e-07
2.6971e-07
2.69661e-07
2.69838e-07
2.6984e-07
2.69817e-07
2.69645e-07
2.69828e-07
2.6985e-07
2.66457e-07
2.66458e-07
2.66445e-07
2.66216e-07
2.66206e-07
2.66218e-07
2.66214e-07
2.66467e-07
2.66431e-07
2.66445e-07
2.66188e-07
2.65754e-07
2.65757e-07
2.65757e-07
2.65754e-07
2.66242e-07
2.66256e-07
2.66216e-07
2.65754e-07
2.65774e-07
2.65767e-07
2.65767e-07
2.65774e-07
2.65754e-07
2.66351e-07
2.66481e-07
2.66457e-07
2.66206e-07
2.65757e-07
2.65767e-07
2.65762e-07
2.65762e-07
2.65767e-07
2.65757e-07
2.66348e-07
2.66459e-07
2.66458e-07
2.66218e-07
2.65757e-07
2.65767e-07
2.65762e-07
2.65762e-07
2.65767e-07
2.65757e-07
2.66341e-07
2.66286e-07
2.66214e-07
2.65754e-07
2.65774e-07
2.65767e-07
2.65767e-07
2.65774e-07
2.65754e-07
2.66352e-07
2.6647e-07
2.66467e-07
2.66242e-07
2.65754e-07
2.65757e-07
2.65757e-07
2.65754e-07
2.66289e-07
2.66303e-07
2.66491e-07
2.66431e-07
2.66256e-07
2.66351e-07
2.66348e-07
2.66341e-07
2.66352e-07
2.66303e-07
2.66479e-07
2.66481e-07
2.66459e-07
2.66286e-07
2.6647e-07
2.66491e-07
2.63098e-07
2.63099e-07
2.63087e-07
2.62857e-07
2.62848e-07
2.62859e-07
2.62856e-07
2.63108e-07
2.63072e-07
2.63087e-07
2.6283e-07
2.62396e-07
2.62399e-07
2.62399e-07
2.62396e-07
2.62884e-07
2.62898e-07
2.62857e-07
2.62396e-07
2.62416e-07
2.62408e-07
2.62408e-07
2.62416e-07
2.62396e-07
2.62993e-07
2.63123e-07
2.63098e-07
2.62848e-07
2.62399e-07
2.62408e-07
2.62403e-07
2.62403e-07
2.62408e-07
2.62399e-07
2.6299e-07
2.631e-07
2.63099e-07
2.62859e-07
2.62399e-07
2.62408e-07
2.62403e-07
2.62403e-07
2.62408e-07
2.62399e-07
2.62982e-07
2.62928e-07
2.62856e-07
2.62396e-07
2.62416e-07
2.62408e-07
2.62408e-07
2.62416e-07
2.62396e-07
2.62993e-07
2.63111e-07
2.63108e-07
2.62884e-07
2.62396e-07
2.62399e-07
2.62399e-07
2.62396e-07
2.6293e-07
2.62944e-07
2.63133e-07
2.63072e-07
2.62898e-07
2.62993e-07
2.6299e-07
2.62982e-07
2.62993e-07
2.62944e-07
2.63121e-07
2.63123e-07
2.631e-07
2.62928e-07
2.63111e-07
2.63133e-07
2.5974e-07
2.59741e-07
2.59728e-07
2.59499e-07
2.59489e-07
2.59501e-07
2.59497e-07
2.5975e-07
2.59714e-07
2.59728e-07
2.59471e-07
2.59037e-07
2.5904e-07
2.5904e-07
2.59037e-07
2.59525e-07
2.59539e-07
2.59499e-07
2.59037e-07
2.59057e-07
2.5905e-07
2.5905e-07
2.59057e-07
2.59037e-07
2.59634e-07
2.59764e-07
2.5974e-07
2.59489e-07
2.5904e-07
2.5905e-07
2.59045e-07
2.59045e-07
2.5905e-07
2.5904e-07
2.59631e-07
2.59742e-07
2.59741e-07
2.59501e-07
2.5904e-07
2.5905e-07
2.59045e-07
2.59045e-07
2.5905e-07
2.5904e-07
2.59624e-07
2.59569e-07
2.59497e-07
2.59037e-07
2.59057e-07
2.5905e-07
2.5905e-07
2.59057e-07
2.59037e-07
2.59635e-07
2.59753e-07
2.5975e-07
2.59525e-07
2.59037e-07
2.5904e-07
2.5904e-07
2.59037e-07
2.59572e-07
2.59586e-07
2.59774e-07
2.59714e-07
2.59539e-07
2.59634e-07
2.59631e-07
2.59624e-07
2.59635e-07
2.59586e-07
2.59762e-07
2.59764e-07
2.59742e-07
2.59569e-07
2.59753e-07
2.59774e-07
2.56381e-07
2.56382e-07
2.5637e-07
2.5614e-07
2.56131e-07
2.56142e-07
2.56139e-07
2.56391e-07
2.56355e-07
2.5637e-07
2.56113e-07
2.55679e-07
2.55681e-07
2.55681e-07
2.55679e-07
2.56167e-07
2.56181e-07
2.5614e-07
2.55679e-07
2.55699e-07
2.55691e-07
2.55691e-07
2.55699e-07
2.55679e-07
2.56276e-07
2.56406e-07
2.56381e-07
2.56131e-07
2.55682e-07
2.55691e-07
2.55686e-07
2.55686e-07
2.55691e-07
2.55682e-07
2.56273e-07
2.56383e-07
2.56382e-07
2.56142e-07
2.55682e-07
2.55691e-07
2.55686e-07
2.55686e-07
2.55691e-07
2.55682e-07
2.56265e-07
2.56211e-07
2.56139e-07
2.55679e-07
2.55699e-07
2.55691e-07
2.55691e-07
2.55699e-07
2.55679e-07
2.56276e-07
2.56394e-07
2.56391e-07
2.56167e-07
2.55679e-07
2.55682e-07
2.55682e-07
2.55679e-07
2.56213e-07
2.56227e-07
2.56416e-07
2.56355e-07
2.56181e-07
2.56276e-07
2.56273e-07
2.56265e-07
2.56276e-07
2.56227e-07
2.56403e-07
2.56406e-07
2.56383e-07
2.56211e-07
2.56394e-07
2.56416e-07
2.53023e-07
2.53024e-07
2.53011e-07
2.52782e-07
2.52772e-07
2.52783e-07
2.5278e-07
2.53033e-07
2.52996e-07
2.53011e-07
2.52754e-07
2.5232e-07
2.52323e-07
2.52323e-07
2.5232e-07
2.52808e-07
2.52822e-07
2.52782e-07
2.5232e-07
2.5234e-07
2.52332e-07
2.52332e-07
2.5234e-07
2.5232e-07
2.52917e-07
2.53047e-07
2.53023e-07
2.52772e-07
2.52323e-07
2.52332e-07
2.52328e-07
2.52328e-07
2.52332e-07
2.52323e-07
2.52914e-07
2.53025e-07
2.53024e-07
2.52783e-07
2.52323e-07
2.52332e-07
2.52328e-07
2.52328e-07
2.52332e-07
2.52323e-07
2.52907e-07
2.52852e-07
2.5278e-07
2.5232e-07
2.5234e-07
2.52332e-07
2.52332e-07
2.5234e-07
2.5232e-07
2.52918e-07
2.53036e-07
2.53033e-07
2.52808e-07
2.5232e-07
2.52323e-07
2.52323e-07
2.5232e-07
2.52855e-07
2.52869e-07
2.53057e-07
2.52996e-07
2.52822e-07
2.52917e-07
2.52914e-07
2.52907e-07
2.52918e-07
2.52869e-07
2.53045e-07
2.53047e-07
2.53025e-07
2.52852e-07
2.53036e-07
2.53057e-07
2.49664e-07
2.49665e-07
2.49652e-07
2.49423e-07
2.49414e-07
2.49425e-07
2.49422e-07
2.49674e-07
2.49638e-07
2.49652e-07
2.49395e-07
2.48962e-07
2.48964e-07
2.48964e-07
2.48962e-07
2.49449e-07
2.49463e-07
2.49423e-07
2.48962e-07
2.48982e-07
2.48974e-07
2.48974e-07
2.48982e-07
2.48962e-07
2.49559e-07
2.49688e-07
2.49664e-07
2.49414e-07
2.48964e-07
2.48974e-07
2.48969e-07
2.48969e-07
2.48974e-07
2.48964e-07
2.49556e-07
2.49666e-07
2.49665e-07
2.49425e-07
2.48964e-07
2.48974e-07
2.48969e-07
2.48969e-07
2.48974e-07
2.48964e-07
2.49548e-07
2.49494e-07
2.49422e-07
2.48962e-07
2.48982e-07
2.48974e-07
2.48974e-07
2.48982e-07
2.48962e-07
2.49559e-07
2.49677e-07
2.49674e-07
2.4945e-07
2.48962e-07
2.48964e-07
2.48964e-07
2.48962e-07
2.49496e-07
2.4951e-07
2.49698e-07
2.49638e-07
2.49463e-07
2.49559e-07
2.49556e-07
2.49548e-07
2.49559e-07
2.4951e-07
2.49686e-07
2.49688e-07
2.49666e-07
2.49494e-07
2.49677e-07
2.49698e-07
2.46306e-07
2.46306e-07
2.46294e-07
2.46064e-07
2.46055e-07
2.46066e-07
2.46063e-07
2.46316e-07
2.46279e-07
2.46294e-07
2.46037e-07
2.45603e-07
2.45606e-07
2.45606e-07
2.45603e-07
2.46091e-07
2.46105e-07
2.46064e-07
2.45603e-07
2.45623e-07
2.45615e-07
2.45615e-07
2.45623e-07
2.45603e-07
2.462e-07
2.4633e-07
2.46306e-07
2.46055e-07
2.45606e-07
2.45615e-07
2.45611e-07
2.45611e-07
2.45615e-07
2.45606e-07
2.46197e-07
2.46308e-07
2.46307e-07
2.46066e-07
2.45606e-07
2.45615e-07
2.45611e-07
2.45611e-07
2.45615e-07
2.45606e-07
2.46189e-07
2.46135e-07
2.46063e-07
2.45603e-07
2.45623e-07
2.45615e-07
2.45615e-07
2.45623e-07
2.45603e-07
2.462e-07
2.46319e-07
2.46316e-07
2.46091e-07
2.45603e-07
2.45606e-07
2.45606e-07
2.45603e-07
2.46138e-07
2.46151e-07
2.4634e-07
2.46279e-07
2.46105e-07
2.462e-07
2.46197e-07
2.46189e-07
2.462e-07
2.46152e-07
2.46328e-07
2.4633e-07
2.46308e-07
2.46135e-07
2.46319e-07
2.4634e-07
2.42947e-07
2.42948e-07
2.42935e-07
2.42706e-07
2.42696e-07
2.42708e-07
2.42705e-07
2.42957e-07
2.42921e-07
2.42935e-07
2.42678e-07
2.42245e-07
2.42247e-07
2.42247e-07
2.42245e-07
2.42732e-07
2.42746e-07
2.42706e-07
2.42245e-07
2.42265e-07
2.42257e-07
2.42257e-07
2.42265e-07
2.42245e-07
2.42842e-07
2.42971e-07
2.42947e-07
2.42696e-07
2.42247e-07
2.42257e-07
2.42252e-07
2.42252e-07
2.42257e-07
2.42247e-07
2.42839e-07
2.42949e-07
2.42948e-07
2.42708e-07
2.42247e-07
2.42257e-07
2.42252e-07
2.42252e-07
2.42257e-07
2.42247e-07
2.42831e-07
2.42777e-07
2.42705e-07
2.42245e-07
2.42265e-07
2.42257e-07
2.42257e-07
2.42265e-07
2.42245e-07
2.42842e-07
2.4296e-07
2.42957e-07
2.42732e-07
2.42245e-07
2.42247e-07
2.42247e-07
2.42245e-07
2.42779e-07
2.42793e-07
2.42981e-07
2.42921e-07
2.42746e-07
2.42842e-07
2.42839e-07
2.42831e-07
2.42842e-07
2.42793e-07
2.42969e-07
2.42971e-07
2.42949e-07
2.42777e-07
2.4296e-07
2.42981e-07
2.39589e-07
2.39589e-07
2.39577e-07
2.39347e-07
2.39338e-07
2.39349e-07
2.39346e-07
2.39598e-07
2.39562e-07
2.39577e-07
2.3932e-07
2.38886e-07
2.38889e-07
2.38889e-07
2.38886e-07
2.39374e-07
2.39388e-07
2.39347e-07
2.38886e-07
2.38906e-07
2.38898e-07
2.38898e-07
2.38906e-07
2.38886e-07
2.39483e-07
2.39613e-07
2.39589e-07
2.39338e-07
2.38889e-07
2.38898e-07
2.38893e-07
2.38893e-07
2.38898e-07
2.38889e-07
2.3948e-07
2.3959e-07
2.39589e-07
2.39349e-07
2.38889e-07
2.38898e-07
2.38893e-07
2.38893e-07
2.38898e-07
2.38889e-07
2.39472e-07
2.39418e-07
2.39346e-07
2.38886e-07
2.38906e-07
2.38898e-07
2.38898e-07
2.38906e-07
2.38886e-07
2.39483e-07
2.39601e-07
2.39599e-07
2.39374e-07
2.38886e-07
2.38889e-07
2.38889e-07
2.38886e-07
2.39421e-07
2.39434e-07
2.39623e-07
2.39562e-07
2.39388e-07
2.39483e-07
2.3948e-07
2.39472e-07
2.39483e-07
2.39435e-07
2.39611e-07
2.39613e-07
2.39591e-07
2.39418e-07
2.39602e-07
2.39623e-07
2.3623e-07
2.36231e-07
2.36218e-07
2.35989e-07
2.35979e-07
2.35991e-07
2.35987e-07
2.3624e-07
2.36204e-07
2.36218e-07
2.35961e-07
2.35527e-07
2.3553e-07
2.3553e-07
2.35527e-07
2.36015e-07
2.36029e-07
2.35989e-07
2.35528e-07
2.35547e-07
2.3554e-07
2.3554e-07
2.35547e-07
2.35528e-07
2.36124e-07
2.36254e-07
2.3623e-07
2.35979e-07
2.3553e-07
2.3554e-07
2.35535e-07
2.35535e-07
2.3554e-07
2.3553e-07
2.36121e-07
2.36232e-07
2.36231e-07
2.35991e-07
2.3553e-07
2.3554e-07
2.35535e-07
2.35535e-07
2.3554e-07
2.3553e-07
2.36114e-07
2.36059e-07
2.35988e-07
2.35528e-07
2.35547e-07
2.3554e-07
2.3554e-07
2.35547e-07
2.35528e-07
2.36125e-07
2.36243e-07
2.3624e-07
2.36015e-07
2.35528e-07
2.3553e-07
2.3553e-07
2.35528e-07
2.36062e-07
2.36076e-07
2.36264e-07
2.36204e-07
2.36029e-07
2.36124e-07
2.36121e-07
2.36114e-07
2.36125e-07
2.36076e-07
2.36252e-07
2.36254e-07
2.36232e-07
2.36059e-07
2.36243e-07
2.36264e-07
2.32871e-07
2.32872e-07
2.3286e-07
2.3263e-07
2.32621e-07
2.32632e-07
2.32629e-07
2.32881e-07
2.32845e-07
2.3286e-07
2.32603e-07
2.32169e-07
2.32172e-07
2.32172e-07
2.32169e-07
2.32657e-07
2.32671e-07
2.3263e-07
2.32169e-07
2.32189e-07
2.32181e-07
2.32181e-07
2.32189e-07
2.32169e-07
2.32766e-07
2.32896e-07
2.32872e-07
2.32621e-07
2.32172e-07
2.32181e-07
2.32176e-07
2.32176e-07
2.32181e-07
2.32172e-07
2.32763e-07
2.32873e-07
2.32872e-07
2.32632e-07
2.32172e-07
2.32181e-07
2.32176e-07
2.32176e-07
2.32181e-07
2.32172e-07
2.32755e-07
2.32701e-07
2.32629e-07
2.32169e-07
2.32189e-07
2.32181e-07
2.32181e-07
2.32189e-07
2.32169e-07
2.32766e-07
2.32884e-07
2.32881e-07
2.32657e-07
2.32169e-07
2.32172e-07
2.32172e-07
2.32169e-07
2.32703e-07
2.32717e-07
2.32906e-07
2.32845e-07
2.32671e-07
2.32766e-07
2.32763e-07
2.32755e-07
2.32766e-07
2.32717e-07
2.32894e-07
2.32896e-07
2.32873e-07
2.32701e-07
2.32884e-07
2.32906e-07
2.29513e-07
2.29514e-07
2.29501e-07
2.29272e-07
2.29262e-07
2.29274e-07
2.2927e-07
2.29523e-07
2.29487e-07
2.29501e-07
2.29244e-07
2.2881e-07
2.28813e-07
2.28813e-07
2.2881e-07
2.29298e-07
2.29312e-07
2.29272e-07
2.2881e-07
2.2883e-07
2.28823e-07
2.28823e-07
2.2883e-07
2.2881e-07
2.29407e-07
2.29537e-07
2.29513e-07
2.29262e-07
2.28813e-07
2.28823e-07
2.28818e-07
2.28818e-07
2.28823e-07
2.28813e-07
2.29404e-07
2.29515e-07
2.29514e-07
2.29274e-07
2.28813e-07
2.28823e-07
2.28818e-07
2.28818e-07
2.28823e-07
2.28813e-07
2.29397e-07
2.29342e-07
2.2927e-07
2.2881e-07
2.2883e-07
2.28823e-07
2.28823e-07
2.2883e-07
2.2881e-07
2.29408e-07
2.29526e-07
2.29523e-07
2.29298e-07
2.28811e-07
2.28813e-07
2.28813e-07
2.28811e-07
2.29345e-07
2.29359e-07
2.29547e-07
2.29487e-07
2.29312e-07
2.29407e-07
2.29404e-07
2.29397e-07
2.29408e-07
2.29359e-07
2.29535e-07
2.29537e-07
2.29515e-07
2.29342e-07
2.29526e-07
2.29547e-07
2.26154e-07
2.26155e-07
2.26143e-07
2.25913e-07
2.25904e-07
2.25915e-07
2.25912e-07
2.26164e-07
2.26128e-07
2.26143e-07
2.25886e-07
2.25452e-07
2.25455e-07
2.25455e-07
2.25452e-07
2.2594e-07
2.25954e-07
2.25913e-07
2.25452e-07
2.25472e-07
2.25464e-07
2.25464e-07
2.25472e-07
2.25452e-07
2.26049e-07
2.26179e-07
2.26155e-07
2.25904e-07
2.25455e-07
2.25464e-07
2.25459e-07
2.25459e-07
2.25464e-07
2.25455e-07
2.26046e-07
2.26156e-07
2.26155e-07
2.25915e-07
2.25455e-07
2.25464e-07
2.25459e-07
2.25459e-07
2.25464e-07
2.25455e-07
2.26038e-07
2.25984e-07
2.25912e-07
2.25452e-07
2.25472e-07
2.25464e-07
2.25464e-07
2.25472e-07
2.25452e-07
2.26049e-07
2.26167e-07
2.26164e-07
2.2594e-07
2.25452e-07
2.25455e-07
2.25455e-07
2.25452e-07
2.25986e-07
2.26e-07
2.26189e-07
2.26128e-07
2.25954e-07
2.26049e-07
2.26046e-07
2.26038e-07
2.26049e-07
2.26e-07
2.26177e-07
2.26179e-07
2.26156e-07
2.25984e-07
2.26167e-07
2.26189e-07
2.22796e-07
2.22797e-07
2.22784e-07
2.22555e-07
2.22545e-07
2.22557e-07
2.22553e-07
2.22806e-07
2.2277e-07
2.22784e-07
2.22527e-07
2.22093e-07
2.22096e-07
2.22096e-07
2.22093e-07
2.22581e-07
2.22595e-07
2.22555e-07
2.22093e-07
2.22113e-07
2.22106e-07
2.22106e-07
2.22113e-07
2.22093e-07
2.2269e-07
2.2282e-07
2.22796e-07
2.22545e-07
2.22096e-07
2.22106e-07
2.22101e-07
2.22101e-07
2.22106e-07
2.22096e-07
2.22687e-07
2.22798e-07
2.22797e-07
2.22557e-07
2.22096e-07
2.22106e-07
2.22101e-07
2.22101e-07
2.22106e-07
2.22096e-07
2.2268e-07
2.22625e-07
2.22553e-07
2.22093e-07
2.22113e-07
2.22106e-07
2.22106e-07
2.22113e-07
2.22093e-07
2.22691e-07
2.22809e-07
2.22806e-07
2.22581e-07
2.22093e-07
2.22096e-07
2.22096e-07
2.22093e-07
2.22628e-07
2.22642e-07
2.2283e-07
2.2277e-07
2.22595e-07
2.2269e-07
2.22687e-07
2.2268e-07
2.22691e-07
2.22642e-07
2.22818e-07
2.2282e-07
2.22798e-07
2.22625e-07
2.22809e-07
2.2283e-07
2.19437e-07
2.19438e-07
2.19426e-07
2.19196e-07
2.19187e-07
2.19198e-07
2.19195e-07
2.19447e-07
2.19411e-07
2.19426e-07
2.19168e-07
2.18735e-07
2.18737e-07
2.18737e-07
2.18735e-07
2.19223e-07
2.19236e-07
2.19196e-07
2.18735e-07
2.18755e-07
2.18747e-07
2.18747e-07
2.18755e-07
2.18735e-07
2.19332e-07
2.19462e-07
2.19437e-07
2.19187e-07
2.18737e-07
2.18747e-07
2.18742e-07
2.18742e-07
2.18747e-07
2.18737e-07
2.19329e-07
2.19439e-07
2.19438e-07
2.19198e-07
2.18737e-07
2.18747e-07
2.18742e-07
2.18742e-07
2.18747e-07
2.18737e-07
2.19321e-07
2.19267e-07
2.19195e-07
2.18735e-07
2.18755e-07
2.18747e-07
2.18747e-07
2.18755e-07
2.18735e-07
2.19332e-07
2.1945e-07
2.19447e-07
2.19223e-07
2.18735e-07
2.18738e-07
2.18738e-07
2.18735e-07
2.19269e-07
2.19283e-07
2.19471e-07
2.19411e-07
2.19237e-07
2.19332e-07
2.19329e-07
2.19321e-07
2.19332e-07
2.19283e-07
2.19459e-07
2.19462e-07
2.19439e-07
2.19267e-07
2.1945e-07
2.19471e-07
2.16079e-07
2.1608e-07
2.16067e-07
2.15838e-07
2.15828e-07
2.15839e-07
2.15836e-07
2.16089e-07
2.16052e-07
2.16067e-07
2.1581e-07
2.15376e-07
2.15379e-07
2.15379e-07
2.15376e-07
2.15864e-07
2.15878e-07
2.15838e-07
2.15376e-07
2.15396e-07
2.15388e-07
2.15388e-07
2.15396e-07
2.15376e-07
2.15973e-07
2.16103e-07
2.16079e-07
2.15828e-07
2.15379e-07
2.15388e-07
2.15384e-07
2.15384e-07
2.15388e-07
2.15379e-07
2.1597e-07
2.16081e-07
2.1608e-07
2.15839e-07
2.15379e-07
2.15388e-07
2.15384e-07
2.15384e-07
2.15388e-07
2.15379e-07
2.15963e-07
2.15908e-07
2.15836e-07
2.15376e-07
2.15396e-07
2.15388e-07
2.15388e-07
2.15396e-07
2.15376e-07
2.15974e-07
2.16092e-07
2.16089e-07
2.15864e-07
2.15376e-07
2.15379e-07
2.15379e-07
2.15376e-07
2.15911e-07
2.15925e-07
2.16113e-07
2.16052e-07
2.15878e-07
2.15973e-07
2.1597e-07
2.15963e-07
2.15974e-07
2.15925e-07
2.16101e-07
2.16103e-07
2.16081e-07
2.15908e-07
2.16092e-07
2.16113e-07
2.1272e-07
2.12721e-07
2.12708e-07
2.12479e-07
2.1247e-07
2.12481e-07
2.12478e-07
2.1273e-07
2.12694e-07
2.12708e-07
2.12451e-07
2.12018e-07
2.1202e-07
2.1202e-07
2.12018e-07
2.12506e-07
2.12519e-07
2.12479e-07
2.12018e-07
2.12038e-07
2.1203e-07
2.1203e-07
2.12038e-07
2.12018e-07
2.12615e-07
2.12744e-07
2.1272e-07
2.1247e-07
2.1202e-07
2.1203e-07
2.12025e-07
2.12025e-07
2.1203e-07
2.1202e-07
2.12612e-07
2.12722e-07
2.12721e-07
2.12481e-07
2.1202e-07
2.1203e-07
2.12025e-07
2.12025e-07
2.1203e-07
2.1202e-07
2.12604e-07
2.1255e-07
2.12478e-07
2.12018e-07
2.12038e-07
2.1203e-07
2.1203e-07
2.12038e-07
2.12018e-07
2.12615e-07
2.12733e-07
2.1273e-07
2.12506e-07
2.12018e-07
2.1202e-07
2.1202e-07
2.12018e-07
2.12552e-07
2.12566e-07
2.12754e-07
2.12694e-07