/*--------------------------------*- C++ -*----------------------------------*\
| =========                 |                                                 |
| \\      /  F ield         | OpenFOAM: The Open Source CFD Toolbox           |
|  \\    /   O peration     | Version:  2312                                  |
|   \\  /    A nd           | Website:  www.openfoam.com                      |
|    \\/     M anipulation  |                                                 |
\*---------------------------------------------------------------------------*/
FoamFile
{
    version     2.0;
    format      ascii;
    arch        "LSB;label=32;scalar=64";
    class       volScalarField;
    location    "100";
    object      k;
}
// * * * * * * * * * * * * * * * * * * * * * * * * * * * * * * * * * * * * * //

dimensions      [0 2 -2 0 0 0 0];

internalField   nonuniform List<scalar> 
43168
(
1.41178e-05
1.57172e-05
1.57156e-05
1.76171e-05
1.76126e-05
1.57108e-05
1.57208e-05
1.76108e-05
1.57131e-05
1.57135e-05
1.57169e-05
1.57053e-05
1.75662e-05
1.57157e-05
1.57038e-05
1.75993e-05
1.76349e-05
1.5712e-05
1.57212e-05
1.76246e-05
1.57143e-05
1.57129e-05
1.57057e-05
1.75886e-05
1.57049e-05
6.93006e-05
6.93026e-05
1.41177e-05
1.41184e-05
1.4118e-05
1.41136e-05
4.96173e-05
6.92992e-05
4.96717e-05
6.93006e-05
6.9245e-05
6.92551e-05
5.02219e-05
6.92973e-05
5.0122e-05
6.92983e-05
1.41186e-05
1.41175e-05
1.41143e-05
2.7756e-05
4.38734e-05
1.43496e-05
1.57176e-05
2.77649e-05
4.38771e-05
1.43504e-05
6.92343e-05
6.92407e-05
2.77211e-05
1.43477e-05
4.38561e-05
1.57149e-05
2.77425e-05
1.43478e-05
4.38548e-05
5.73955e-05
5.7417e-05
1.76047e-05
5.74108e-05
5.74182e-05
6.92343e-05
6.92379e-05
1.76039e-05
5.75515e-05
5.75457e-05
6.9237e-05
6.92269e-05
6.92393e-05
6.92306e-05
1.76223e-05
5.75535e-05
5.75532e-05
5.75555e-05
5.75778e-05
1.57087e-05
4.38182e-05
4.96505e-05
6.93e-05
6.9299e-05
4.96575e-05
5.00394e-05
6.93538e-05
6.93516e-05
5.00727e-05
2.73571e-05
1.57097e-05
4.38217e-05
1.4333e-05
4.38237e-05
1.43331e-05
2.73409e-05
2.76039e-05
1.57202e-05
4.38516e-05
1.43475e-05
4.38567e-05
1.43474e-05
2.75977e-05
6.92531e-05
6.92439e-05
1.76205e-05
5.75452e-05
5.75499e-05
5.7562e-05
6.92467e-05
1.57111e-05
4.38356e-05
5.02486e-05
6.92986e-05
6.93002e-05
5.01379e-05
2.76319e-05
1.57122e-05
4.3839e-05
1.43401e-05
4.38414e-05
1.43405e-05
2.76125e-05
5.04219e-05
6.93351e-05
6.93261e-05
5.0284e-05
2.77177e-05
1.57141e-05
1.4345e-05
4.38507e-05
1.43443e-05
4.38524e-05
2.76947e-05
4.38621e-05
1.43495e-05
2.77561e-05
6.93453e-05
5.06107e-05
1.43468e-05
4.37716e-05
2.77521e-05
6.9317e-05
5.05125e-05
6.92417e-05
6.92315e-05
1.75767e-05
5.75638e-05
5.75646e-05
5.75398e-05
5.75592e-05
6.92471e-05
6.92357e-05
2.7747e-05
1.57158e-05
1.43477e-05
4.38481e-05
1.43474e-05
4.38497e-05
2.77365e-05
2.77433e-05
1.57034e-05
1.43439e-05
4.37756e-05
1.43437e-05
4.37816e-05
2.77354e-05
5.06138e-05
6.93417e-05
6.93369e-05
5.05462e-05
5.06128e-05
6.93096e-05
6.93044e-05
5.06046e-05
1.76183e-05
5.73749e-05
5.738e-05
5.74108e-05
6.91646e-05
6.9172e-05
6.91665e-05
6.923e-05
6.92413e-05
6.92316e-05
6.9241e-05
5.7556e-05
5.75643e-05
1.76217e-05
5.75488e-05
5.75668e-05
6.92344e-05
6.92334e-05
1.76437e-05
5.75429e-05
5.75523e-05
5.00924e-05
6.93528e-05
5.0094e-05
6.93512e-05
2.73321e-05
4.38279e-05
1.43328e-05
1.57129e-05
2.73453e-05
4.38272e-05
1.43322e-05
2.75978e-05
4.38573e-05
1.43475e-05
1.57214e-05
2.76047e-05
4.38549e-05
1.43473e-05
4.96547e-05
6.92997e-05
5.0022e-05
6.93459e-05
2.73385e-05
1.57136e-05
4.38348e-05
1.4332e-05
2.76022e-05
1.57217e-05
4.38624e-05
1.43472e-05
5.75367e-05
5.75633e-05
1.76129e-05
5.75346e-05
5.75686e-05
6.924e-05
6.92518e-05
6.9248e-05
1.76316e-05
5.75497e-05
5.75717e-05
6.9245e-05
2.76068e-05
4.38445e-05
1.43394e-05
1.57152e-05
2.76177e-05
4.38422e-05
1.43395e-05
5.02478e-05
6.93349e-05
5.02924e-05
6.93315e-05
2.76724e-05
1.43448e-05
4.38578e-05
1.5712e-05
2.76988e-05
1.43445e-05
4.38522e-05
5.02563e-05
6.9298e-05
2.76145e-05
1.5716e-05
4.38489e-05
1.43395e-05
5.02473e-05
6.93292e-05
2.76752e-05
1.57111e-05
1.43444e-05
4.38581e-05
5.05369e-05
6.93437e-05
5.0612e-05
6.93484e-05
2.77487e-05
1.43475e-05
4.37787e-05
1.5706e-05
2.77598e-05
1.43481e-05
4.37757e-05
5.05044e-05
6.93163e-05
5.05269e-05
6.93204e-05
2.77627e-05
1.57184e-05
4.38857e-05
1.43502e-05
5.0553e-05
6.93491e-05
2.77517e-05
1.57062e-05
1.43484e-05
4.37825e-05
5.03616e-05
6.93182e-05
5.75689e-05
5.7555e-05
1.75778e-05
5.75221e-05
5.75762e-05
6.92404e-05
6.92527e-05
6.92325e-05
1.75941e-05
5.75223e-05
5.75511e-05
6.92447e-05
2.77308e-05
1.43446e-05
4.37819e-05
1.57058e-05
2.7743e-05
1.43451e-05
4.37754e-05
5.04833e-05
6.93431e-05
5.05766e-05
6.93471e-05
5.04883e-05
6.93078e-05
5.06057e-05
6.9307e-05
2.77237e-05
1.57148e-05
1.4347e-05
4.38616e-05
2.77354e-05
1.57068e-05
1.43455e-05
4.37809e-05
5.03942e-05
6.93462e-05
5.04418e-05
6.93021e-05
6.91583e-05
6.917e-05
6.91639e-05
6.91692e-05
1.76196e-05
5.74064e-05
5.74014e-05
6.91628e-05
6.91597e-05
7.0381e-05
7.23537e-05
6.92998e-05
7.23564e-05
7.03922e-05
6.93025e-05
6.91556e-05
4.96174e-05
6.87139e-05
5.60795e-05
6.87126e-05
5.61322e-05
6.91574e-05
7.03889e-05
7.23709e-05
6.93003e-05
7.03763e-05
7.23774e-05
6.91606e-05
4.9681e-05
6.8715e-05
5.61365e-05
6.91583e-05
6.87164e-05
5.61306e-05
7.03758e-05
7.23745e-05
6.92993e-05
7.23715e-05
7.03884e-05
6.92533e-05
6.9246e-05
6.91907e-05
5.01708e-05
5.63072e-05
6.88231e-05
5.62995e-05
6.8821e-05
6.91948e-05
7.03899e-05
7.23494e-05
6.92981e-05
7.03763e-05
7.23469e-05
6.91942e-05
5.01844e-05
5.62713e-05
6.88229e-05
6.91909e-05
5.62804e-05
6.88244e-05
7.03787e-05
7.23596e-05
6.92969e-05
7.23631e-05
7.03931e-05
6.9242e-05
6.92332e-05
8.58895e-05
7.2059e-05
7.20717e-05
7.20462e-05
7.20585e-05
8.58921e-05
5.43245e-05
3.71135e-05
6.78894e-05
5.73955e-05
5.43565e-05
3.71073e-05
6.78919e-05
5.46001e-05
3.72328e-05
6.79573e-05
5.74152e-05
5.46294e-05
3.72284e-05
6.79604e-05
8.58814e-05
7.20447e-05
7.2056e-05
8.58798e-05
7.2057e-05
7.20689e-05
5.44006e-05
6.78933e-05
5.74071e-05
3.71077e-05
3.71141e-05
6.78908e-05
5.43774e-05
5.46179e-05
6.79618e-05
5.74227e-05
3.72334e-05
3.72369e-05
6.7959e-05
5.46138e-05
6.92257e-05
6.92296e-05
8.59023e-05
7.20982e-05
7.20925e-05
7.2088e-05
7.20826e-05
8.58894e-05
5.45887e-05
6.79851e-05
5.75514e-05
3.72751e-05
6.79803e-05
5.45883e-05
3.72688e-05
5.46681e-05
6.80079e-05
5.75636e-05
3.72691e-05
6.80032e-05
5.46811e-05
3.72682e-05
6.92281e-05
6.92353e-05
6.92314e-05
6.92389e-05
8.58836e-05
7.20847e-05
7.20789e-05
8.58879e-05
7.2095e-05
7.20889e-05
5.45654e-05
3.71437e-05
5.75557e-05
6.79942e-05
6.79896e-05
3.71661e-05
5.45481e-05
5.47013e-05
3.72537e-05
5.7581e-05
6.80132e-05
6.80092e-05
3.72691e-05
5.46701e-05
5.45877e-05
6.79824e-05
3.72266e-05
5.75534e-05
5.45962e-05
6.79903e-05
3.72622e-05
5.46945e-05
6.8008e-05
3.72761e-05
5.75744e-05
5.4697e-05
6.80106e-05
3.72196e-05
8.58818e-05
7.20924e-05
7.20857e-05
7.20816e-05
7.20753e-05
8.58808e-05
6.91649e-05
6.87216e-05
5.60807e-05
4.96539e-05
6.91626e-05
6.87219e-05
5.60943e-05
7.03765e-05
6.92986e-05
7.23675e-05
7.0389e-05
7.23434e-05
7.039e-05
7.23557e-05
6.92998e-05
7.03784e-05
7.23562e-05
6.91604e-05
4.96618e-05
6.87186e-05
5.61216e-05
6.91629e-05
6.87178e-05
5.61258e-05
6.93852e-05
6.88258e-05
5.67282e-05
5.00385e-05
6.93854e-05
6.88286e-05
5.66384e-05
7.04952e-05
6.93521e-05
7.25002e-05
7.24899e-05
7.05082e-05
7.05076e-05
7.2476e-05
6.93527e-05
7.04954e-05
7.24735e-05
6.93775e-05
5.00639e-05
6.88291e-05
5.65852e-05
6.88265e-05
5.66391e-05
6.93772e-05
6.92446e-05
6.92525e-05
5.4656e-05
3.72817e-05
5.75597e-05
6.80069e-05
3.72889e-05
6.80049e-05
5.46374e-05
5.43524e-05
3.71471e-05
5.75541e-05
6.79536e-05
6.79523e-05
3.71674e-05
5.43585e-05
3.72902e-05
5.75594e-05
3.72827e-05
8.58634e-05
7.20772e-05
7.20737e-05
7.20652e-05
7.2061e-05
8.58726e-05
6.92377e-05
6.91981e-05
5.62232e-05
6.88325e-05
5.0164e-05
6.91953e-05
5.62786e-05
6.8832e-05
7.03763e-05
6.92981e-05
7.23335e-05
7.03884e-05
7.23372e-05
7.03902e-05
7.23589e-05
6.93001e-05
7.03797e-05
7.23465e-05
6.9193e-05
5.01592e-05
5.62541e-05
6.88272e-05
6.91954e-05
5.62528e-05
6.88271e-05
6.93844e-05
6.88782e-05
5.68881e-05
5.03357e-05
6.93825e-05
6.88782e-05
5.68952e-05
7.04617e-05
6.93329e-05
7.25163e-05
7.25133e-05
7.04742e-05
7.04747e-05
7.25026e-05
6.93324e-05
7.04618e-05
7.25196e-05
6.93768e-05
5.02675e-05
6.88709e-05
5.66768e-05
6.88717e-05
5.67762e-05
6.93751e-05
7.04869e-05
6.9345e-05
7.25096e-05
7.25045e-05
7.05014e-05
6.94063e-05
5.06161e-05
5.68994e-05
6.89041e-05
5.69589e-05
6.89018e-05
6.94086e-05
7.04905e-05
6.93146e-05
7.24988e-05
7.24895e-05
7.05037e-05
6.93952e-05
5.0524e-05
6.89028e-05
5.67482e-05
6.89011e-05
5.67707e-05
6.93951e-05
6.92331e-05
6.924e-05
8.58548e-05
7.20462e-05
7.2052e-05
8.58719e-05
7.20563e-05
7.20622e-05
5.45017e-05
3.69564e-05
5.75584e-05
6.79715e-05
3.70112e-05
6.79734e-05
5.45131e-05
5.4399e-05
3.72002e-05
5.75647e-05
6.79631e-05
6.79602e-05
3.72062e-05
5.44077e-05
5.4562e-05
6.79768e-05
3.70597e-05
5.75259e-05
3.69829e-05
5.45742e-05
6.79791e-05
5.43481e-05
6.79604e-05
3.72081e-05
5.75593e-05
5.43985e-05
6.7962e-05
3.72005e-05
8.5851e-05
7.20533e-05
7.20595e-05
7.20429e-05
7.20489e-05
8.58443e-05
6.92379e-05
6.92447e-05
6.93932e-05
5.68828e-05
6.8892e-05
5.06062e-05
6.93938e-05
5.67953e-05
6.88943e-05
7.0472e-05
6.93404e-05
7.2534e-05
7.2532e-05
7.0484e-05
7.04847e-05
7.25196e-05
6.93382e-05
7.04726e-05
7.25169e-05
6.93851e-05
5.06102e-05
5.67195e-05
6.88931e-05
5.67624e-05
6.88915e-05
6.93847e-05
6.93966e-05
5.69581e-05
6.88915e-05
5.06087e-05
6.93938e-05
5.69556e-05
6.88939e-05
7.04662e-05
6.93078e-05
7.25172e-05
7.25126e-05
7.04789e-05
7.04786e-05
7.24835e-05
6.93077e-05
7.04651e-05
7.25108e-05
6.93908e-05
5.06107e-05
5.68586e-05
6.88934e-05
5.69198e-05
6.88911e-05
6.93922e-05
8.58932e-05
7.20558e-05
7.20652e-05
5.43429e-05
3.71074e-05
5.73746e-05
6.78909e-05
5.4356e-05
3.71137e-05
6.78884e-05
5.46926e-05
3.72248e-05
5.74011e-05
6.79582e-05
5.46448e-05
3.72287e-05
6.79548e-05
5.42775e-05
5.73638e-05
3.71085e-05
6.78904e-05
5.4677e-05
3.72228e-05
5.74078e-05
3.72199e-05
6.79546e-05
8.58906e-05
7.20562e-05
7.2067e-05
8.58928e-05
7.20441e-05
7.20542e-05
6.91555e-05
6.91624e-05
6.9165e-05
6.91736e-05
6.92391e-05
6.92322e-05
6.92397e-05
6.92324e-05
8.58812e-05
7.20908e-05
7.20826e-05
7.20788e-05
7.20711e-05
8.58767e-05
5.45979e-05
3.71484e-05
6.79942e-05
5.75534e-05
5.4591e-05
6.79976e-05
3.71423e-05
5.4605e-05
3.72192e-05
6.80124e-05
5.75564e-05
5.46632e-05
6.80153e-05
3.72442e-05
8.58682e-05
7.20795e-05
7.20725e-05
8.58754e-05
7.20908e-05
7.20835e-05
5.4612e-05
6.79981e-05
5.75559e-05
3.71463e-05
6.79951e-05
5.46133e-05
3.71501e-05
5.46088e-05
6.80165e-05
5.75708e-05
3.72458e-05
6.80139e-05
5.45794e-05
3.72821e-05
6.92437e-05
6.92421e-05
8.58952e-05
7.20794e-05
7.20707e-05
8.58927e-05
7.2092e-05
7.20826e-05
5.45976e-05
6.80001e-05
3.7155e-05
5.75628e-05
5.46263e-05
6.80056e-05
3.71251e-05
5.45698e-05
6.80145e-05
3.71976e-05
5.75702e-05
5.45955e-05
6.80172e-05
3.72424e-05
6.93636e-05
5.01009e-05
6.88285e-05
5.6639e-05
6.88267e-05
5.65941e-05
6.93649e-05
7.05072e-05
7.24997e-05
6.93539e-05
7.04953e-05
7.25018e-05
6.93703e-05
5.00948e-05
6.88269e-05
5.66137e-05
6.88293e-05
6.93698e-05
5.66104e-05
7.04927e-05
7.24654e-05
6.93515e-05
7.24828e-05
7.05023e-05
6.91556e-05
6.8711e-05
5.60899e-05
4.96556e-05
6.91527e-05
6.87132e-05
5.60719e-05
7.03892e-05
7.23728e-05
6.93013e-05
7.0376e-05
7.23741e-05
6.93586e-05
6.88246e-05
5.66048e-05
4.99669e-05
6.93585e-05
6.8825e-05
5.6561e-05
7.0493e-05
7.24167e-05
6.93452e-05
7.04849e-05
7.24203e-05
8.58835e-05
7.20781e-05
7.20766e-05
7.2066e-05
7.20639e-05
8.58887e-05
5.46139e-05
3.7284e-05
6.80037e-05
5.75092e-05
6.80053e-05
5.45975e-05
3.72763e-05
5.44022e-05
3.71422e-05
6.79489e-05
5.75594e-05
3.71294e-05
5.43919e-05
6.79588e-05
8.58806e-05
7.20653e-05
7.20622e-05
7.20775e-05
8.58741e-05
7.2075e-05
5.4632e-05
6.8005e-05
5.75357e-05
3.72761e-05
6.80031e-05
3.72813e-05
5.46085e-05
5.44081e-05
6.79631e-05
5.75725e-05
3.70805e-05
3.71316e-05
6.79589e-05
5.43872e-05
6.92491e-05
6.92425e-05
6.92573e-05
8.58771e-05
7.2066e-05
7.20649e-05
8.58728e-05
7.20774e-05
7.2077e-05
5.46006e-05
6.79989e-05
3.72151e-05
5.75542e-05
3.70446e-05
5.46095e-05
6.79974e-05
5.44395e-05
6.79622e-05
3.70333e-05
5.7565e-05
5.43826e-05
6.79648e-05
3.70222e-05
6.9254e-05
6.93523e-05
5.02781e-05
6.88605e-05
5.65924e-05
6.88604e-05
5.665e-05
6.93514e-05
7.04729e-05
7.25157e-05
6.9336e-05
7.04611e-05
7.2516e-05
6.93618e-05
5.02663e-05
6.88656e-05
5.66569e-05
6.88653e-05
6.93643e-05
5.66106e-05
7.04575e-05
7.24285e-05
6.93317e-05
7.24796e-05
7.04662e-05
6.91954e-05
5.62934e-05
6.88207e-05
5.02092e-05
6.91914e-05
5.62916e-05
6.88224e-05
7.03973e-05
7.23757e-05
6.92995e-05
7.03825e-05
7.23759e-05
6.93416e-05
6.88554e-05
5.66051e-05
5.02132e-05
6.9342e-05
6.88552e-05
5.65858e-05
7.04596e-05
7.24177e-05
6.93291e-05
7.04499e-05
7.24067e-05
6.93978e-05
5.06057e-05
5.68494e-05
6.89021e-05
5.68433e-05
6.89006e-05
6.94e-05
7.05026e-05
7.24952e-05
6.93477e-05
7.25054e-05
7.04886e-05
6.94042e-05
5.06049e-05
5.6924e-05
6.89013e-05
5.68364e-05
6.94031e-05
6.89035e-05
7.04897e-05
7.25059e-05
6.93475e-05
7.25048e-05
7.05036e-05
6.93815e-05
5.05049e-05
6.88989e-05
5.66856e-05
6.88976e-05
5.67195e-05
6.93823e-05
7.05042e-05
7.24999e-05
6.93189e-05
7.04914e-05
7.25041e-05
6.93878e-05
5.05033e-05
6.88997e-05
5.67352e-05
6.93877e-05
6.89012e-05
5.66912e-05
7.04908e-05
7.24913e-05
6.93188e-05
7.24934e-05
7.05023e-05
6.93956e-05
5.68177e-05
6.88986e-05
5.05144e-05
6.9394e-05
5.678e-05
6.88999e-05
7.05043e-05
7.24894e-05
6.93514e-05
7.04904e-05
7.24966e-05
6.93741e-05
6.88941e-05
5.65902e-05
5.03355e-05
6.93743e-05
6.88934e-05
5.66077e-05
7.04954e-05
7.24542e-05
6.93185e-05
7.04865e-05
7.24537e-05
8.58443e-05
7.20515e-05
7.20582e-05
7.20402e-05
7.20469e-05
8.58447e-05
5.45011e-05
3.68381e-05
6.7967e-05
5.75474e-05
6.79686e-05
5.45241e-05
3.68366e-05
5.44268e-05
3.7206e-05
6.79616e-05
5.75735e-05
3.72008e-05
5.44267e-05
6.79651e-05
8.5856e-05
7.20408e-05
7.20471e-05
7.20526e-05
8.58376e-05
7.20591e-05
5.45065e-05
6.79672e-05
5.75102e-05
3.68468e-05
6.79655e-05
3.68493e-05
5.44948e-05
5.44385e-05
6.7968e-05
5.75909e-05
3.7203e-05
3.72082e-05
6.79646e-05
5.44386e-05
6.92499e-05
6.92437e-05
6.92402e-05
8.58534e-05
7.20394e-05
7.20461e-05
8.58504e-05
7.20511e-05
7.20577e-05
5.44947e-05
6.79646e-05
3.68597e-05
5.75299e-05
3.68587e-05
5.44991e-05
6.79666e-05
5.44097e-05
6.79662e-05
3.72085e-05
5.75433e-05
5.44454e-05
6.7968e-05
3.72016e-05
6.92521e-05
6.93723e-05
5.05499e-05
5.66995e-05
6.88894e-05
5.67908e-05
6.88884e-05
6.93724e-05
7.04825e-05
7.25267e-05
6.93453e-05
7.25246e-05
7.04707e-05
6.93786e-05
5.05506e-05
5.67509e-05
6.88901e-05
5.67768e-05
6.93775e-05
6.88919e-05
7.04693e-05
7.25487e-05
6.93453e-05
7.25408e-05
7.04812e-05
6.93811e-05
5.05585e-05
5.6823e-05
6.88898e-05
5.68519e-05
6.88887e-05
6.93823e-05
7.04771e-05
7.25076e-05
6.93086e-05
7.04654e-05
7.25085e-05
6.9387e-05
5.05359e-05
5.68456e-05
6.88905e-05
6.93859e-05
5.68136e-05
6.88921e-05
7.04632e-05
7.25075e-05
6.93067e-05
7.25049e-05
7.04747e-05
6.9362e-05
5.66129e-05
6.88843e-05
5.0422e-05
6.93628e-05
5.6629e-05
6.88848e-05
7.04787e-05
7.25325e-05
6.93475e-05
7.04673e-05
7.25437e-05
6.93724e-05
5.66908e-05
6.88851e-05
5.04389e-05
6.93734e-05
5.66827e-05
6.88857e-05
7.04705e-05
7.25059e-05
6.93021e-05
7.04606e-05
7.24855e-05
6.91676e-05
6.91609e-05
6.91712e-05
6.91625e-05
8.58875e-05
7.20483e-05
7.20613e-05
8.58904e-05
7.20612e-05
7.20744e-05
5.43123e-05
6.78902e-05
3.71109e-05
5.73859e-05
5.42969e-05
3.71035e-05
6.78919e-05
5.46626e-05
6.79604e-05
3.72423e-05
5.74157e-05
5.46489e-05
3.72399e-05
6.79638e-05
6.91715e-05
6.91662e-05
1.41161e-05
1.40564e-05
1.40562e-05
1.41177e-05
1.40567e-05
1.40565e-05
1.42587e-05
1.42586e-05
3.56094e-05
2.38202e-05
2.38496e-05
1.76044e-05
3.56192e-05
2.38036e-05
2.38346e-05
3.57203e-05
1.76291e-05
2.38774e-05
2.3885e-05
2.38924e-05
2.38983e-05
3.57105e-05
3.5625e-05
1.7625e-05
2.38634e-05
2.38337e-05
2.38795e-05
2.38504e-05
3.56126e-05
3.55958e-05
1.75786e-05
2.38081e-05
2.38299e-05
2.383e-05
2.38479e-05
3.55788e-05
3.56187e-05
1.7613e-05
2.38043e-05
2.38319e-05
3.56059e-05
2.38206e-05
2.38465e-05
3.57146e-05
2.3892e-05
2.39014e-05
1.76073e-05
3.57244e-05
2.38769e-05
2.38883e-05
3.56127e-05
2.3877e-05
2.38468e-05
1.76082e-05
2.38303e-05
3.5624e-05
2.38608e-05
3.55753e-05
2.38169e-05
2.38432e-05
1.75759e-05
2.38253e-05
3.55887e-05
2.3793e-05
1.41174e-05
1.40563e-05
1.40561e-05
1.40564e-05
1.40557e-05
1.42578e-05
1.42585e-05
1.41177e-05
1.40584e-05
1.40573e-05
1.40579e-05
1.40569e-05
1.42577e-05
1.42577e-05
1.41173e-05
1.40582e-05
1.40569e-05
1.40585e-05
1.40557e-05
1.42582e-05
1.42581e-05
1.41129e-05
1.4056e-05
1.4055e-05
1.40558e-05
1.40547e-05
1.42582e-05
1.42587e-05
1.40582e-05
1.40575e-05
1.41185e-05
1.40579e-05
1.40578e-05
1.42582e-05
1.4258e-05
1.4057e-05
1.40581e-05
1.41173e-05
1.4057e-05
1.4058e-05
1.42582e-05
1.42582e-05
1.40562e-05
1.40568e-05
1.41146e-05
1.40567e-05
1.4057e-05
1.42587e-05
1.42588e-05
1.41176e-05
1.40563e-05
1.40567e-05
1.42581e-05
1.41185e-05
1.40578e-05
1.40582e-05
1.42579e-05
1.41172e-05
1.40571e-05
1.4058e-05
1.4258e-05
1.41149e-05
1.4057e-05
1.40571e-05
1.42585e-05
1.90968e-05
2.77651e-05
3.16478e-05
1.76183e-05
3.16581e-05
1.76274e-05
1.90789e-05
2.18493e-05
2.68074e-05
3.80201e-05
4.38694e-05
2.18656e-05
2.67926e-05
3.80095e-05
1.90783e-05
2.77564e-05
3.16618e-05
1.76268e-05
1.90946e-05
3.16494e-05
1.76173e-05
2.18685e-05
3.80172e-05
4.38799e-05
2.67965e-05
2.68094e-05
3.80262e-05
2.18523e-05
1.90752e-05
2.77351e-05
1.76055e-05
3.13669e-05
1.76154e-05
3.13901e-05
1.90519e-05
2.18298e-05
2.67957e-05
3.79753e-05
4.38512e-05
2.18467e-05
2.67809e-05
3.79618e-05
1.90607e-05
2.77305e-05
1.76162e-05
3.14984e-05
1.90793e-05
1.76061e-05
3.14791e-05
2.18463e-05
3.79586e-05
4.38597e-05
2.67814e-05
2.67956e-05
3.79726e-05
2.18291e-05
3.56212e-05
1.76184e-05
2.38038e-05
2.38383e-05
2.38197e-05
2.38525e-05
3.56123e-05
3.57031e-05
1.76222e-05
2.38699e-05
2.38749e-05
3.56967e-05
2.38822e-05
2.38878e-05
3.57053e-05
1.76094e-05
2.38867e-05
2.38916e-05
3.57128e-05
2.38748e-05
2.38788e-05
2.1795e-05
3.782e-05
4.38236e-05
2.6779e-05
3.78314e-05
2.6791e-05
2.17777e-05
1.88818e-05
3.08825e-05
1.7514e-05
2.7345e-05
1.89005e-05
3.08887e-05
1.7502e-05
2.17953e-05
2.67826e-05
4.38266e-05
3.78317e-05
2.67969e-05
3.78407e-05
2.17783e-05
2.17778e-05
3.78332e-05
2.67932e-05
4.38186e-05
2.67818e-05
2.17948e-05
3.78243e-05
1.88966e-05
2.73511e-05
3.09077e-05
1.74993e-05
3.09162e-05
1.75105e-05
1.88778e-05
1.90728e-05
3.16311e-05
1.75865e-05
2.7595e-05
1.90902e-05
3.16159e-05
1.75761e-05
2.18725e-05
2.6812e-05
4.38574e-05
3.79909e-05
3.80019e-05
2.68255e-05
2.18553e-05
2.18543e-05
3.80012e-05
2.68252e-05
4.38495e-05
2.18713e-05
3.79881e-05
2.68098e-05
1.90893e-05
2.76046e-05
3.16084e-05
1.75761e-05
3.16224e-05
1.75856e-05
1.90718e-05
1.76011e-05
2.38817e-05
2.38633e-05
4.38407e-05
2.67901e-05
2.68025e-05
1.89893e-05
3.1377e-05
1.75767e-05
2.76192e-05
1.90052e-05
3.13659e-05
1.75668e-05
2.182e-05
2.67961e-05
4.38444e-05
3.78861e-05
2.68087e-05
3.78996e-05
2.18011e-05
2.18027e-05
3.79022e-05
2.68041e-05
4.38366e-05
2.67918e-05
2.18202e-05
3.78882e-05
1.9007e-05
2.76236e-05
3.13613e-05
1.75664e-05
3.13731e-05
1.75761e-05
1.89921e-05
1.90601e-05
1.76019e-05
3.16345e-05
2.77043e-05
1.90757e-05
1.75922e-05
3.16225e-05
2.18461e-05
2.67617e-05
4.38557e-05
3.79627e-05
3.79748e-05
2.678e-05
2.18269e-05
2.1829e-05
3.79736e-05
2.67868e-05
4.38476e-05
2.18468e-05
3.7962e-05
2.67688e-05
1.90781e-05
2.7708e-05
1.7592e-05
3.16096e-05
1.76016e-05
3.1628e-05
1.90633e-05
2.18627e-05
2.67903e-05
4.38642e-05
3.80024e-05
2.18461e-05
2.68017e-05
3.80095e-05
1.9094e-05
2.77639e-05
3.16528e-05
1.76167e-05
1.90761e-05
3.16631e-05
1.76257e-05
2.18352e-05
2.6719e-05
4.3777e-05
3.79564e-05
3.79681e-05
2.67337e-05
2.18167e-05
1.90872e-05
2.77609e-05
1.76158e-05
3.16332e-05
1.7625e-05
3.1644e-05
1.90693e-05
3.5587e-05
1.75597e-05
2.38409e-05
2.38521e-05
2.38191e-05
3.56006e-05
2.38338e-05
1.90629e-05
1.76161e-05
3.16413e-05
2.77383e-05
1.90801e-05
1.76065e-05
3.1626e-05
2.18482e-05
2.67811e-05
4.38529e-05
3.79636e-05
2.18293e-05
2.67954e-05
3.79756e-05
2.18308e-05
3.79734e-05
2.67951e-05
4.38449e-05
2.18475e-05
2.67808e-05
3.79622e-05
1.90797e-05
2.77465e-05
1.76066e-05
3.1547e-05
1.90631e-05
1.76161e-05
3.16312e-05
1.90509e-05
1.76126e-05
3.16301e-05
2.7735e-05
1.90678e-05
1.76032e-05
3.16195e-05
2.18196e-05
2.67428e-05
4.37819e-05
3.79283e-05
3.79399e-05
2.67556e-05
2.18016e-05
2.1801e-05
3.79378e-05
2.67526e-05
4.37755e-05
2.18177e-05
3.79263e-05
2.67396e-05
1.90684e-05
2.77436e-05
1.76036e-05
3.16154e-05
1.76129e-05
3.16275e-05
1.90533e-05
3.56054e-05
1.75987e-05
2.38438e-05
2.38049e-05
2.3829e-05
3.57266e-05
1.76344e-05
2.38791e-05
2.38933e-05
3.57167e-05
2.38939e-05
2.39073e-05
3.57202e-05
1.76318e-05
2.38951e-05
2.39095e-05
3.57303e-05
2.38799e-05
2.38951e-05
1.88885e-05
2.73418e-05
3.08604e-05
1.74931e-05
3.08882e-05
1.7504e-05
1.88694e-05
2.17787e-05
2.67948e-05
3.78448e-05
4.38234e-05
3.78345e-05
2.17955e-05
2.67807e-05
1.88737e-05
2.73355e-05
3.0919e-05
1.75071e-05
3.08854e-05
1.88928e-05
1.74955e-05
2.17955e-05
3.78374e-05
4.38318e-05
2.67818e-05
3.78486e-05
2.67956e-05
2.17784e-05
1.90901e-05
2.76069e-05
3.15378e-05
1.75747e-05
3.16198e-05
1.75843e-05
1.9071e-05
2.18562e-05
2.68249e-05
3.80018e-05
4.38517e-05
2.18731e-05
3.79907e-05
2.68114e-05
1.90724e-05
2.75977e-05
3.1617e-05
1.75847e-05
1.90895e-05
3.16097e-05
1.75749e-05
2.18736e-05
3.79911e-05
4.38599e-05
2.6813e-05
3.80039e-05
2.18564e-05
2.68269e-05
1.88668e-05
3.08477e-05
1.75012e-05
2.73298e-05
1.88848e-05
3.07843e-05
1.74903e-05
2.17789e-05
3.78498e-05
2.67957e-05
4.38306e-05
2.67817e-05
2.17957e-05
3.78384e-05
1.90668e-05
3.15005e-05
1.75834e-05
2.75884e-05
1.90864e-05
3.14855e-05
1.75732e-05
2.18571e-05
3.80003e-05
2.68252e-05
4.38577e-05
2.18743e-05
3.79862e-05
2.68072e-05
3.56232e-05
1.76286e-05
2.38605e-05
2.38295e-05
2.38461e-05
2.3877e-05
3.56112e-05
3.56113e-05
1.76184e-05
2.38735e-05
2.38433e-05
2.38531e-05
3.56224e-05
2.38265e-05
1.90115e-05
2.76153e-05
3.13595e-05
1.75648e-05
3.13685e-05
1.75745e-05
1.89924e-05
2.18024e-05
2.68097e-05
3.79016e-05
4.38393e-05
3.78931e-05
2.1819e-05
2.67976e-05
1.89942e-05
2.7608e-05
3.13689e-05
1.75752e-05
3.13586e-05
1.90107e-05
1.75652e-05
2.18192e-05
3.79005e-05
4.3847e-05
2.68015e-05
3.79093e-05
2.68144e-05
2.18024e-05
1.90785e-05
2.76878e-05
1.75897e-05
3.14415e-05
1.75999e-05
3.14252e-05
1.90563e-05
2.1827e-05
2.67698e-05
3.79742e-05
4.38521e-05
2.18439e-05
3.79607e-05
2.67502e-05
1.90639e-05
2.76845e-05
1.76008e-05
3.16131e-05
1.90819e-05
1.75908e-05
3.15373e-05
2.18424e-05
3.79537e-05
4.38584e-05
2.67408e-05
3.79697e-05
2.18237e-05
2.67596e-05
1.89911e-05
3.13687e-05
1.75737e-05
2.76051e-05
1.90091e-05
3.13598e-05
1.75637e-05
2.18047e-05
3.79158e-05
2.68155e-05
4.38441e-05
2.68022e-05
2.18212e-05
3.79068e-05
1.90461e-05
1.75984e-05
3.13511e-05
2.76563e-05
1.90699e-05
1.75874e-05
3.13381e-05
2.18225e-05
3.79606e-05
2.67506e-05
4.3852e-05
2.18405e-05
3.79438e-05
2.67327e-05
1.90903e-05
2.77588e-05
1.76167e-05
3.15802e-05
1.76259e-05
3.16527e-05
1.90715e-05
2.18176e-05
2.67324e-05
3.79693e-05
4.37735e-05
2.6718e-05
2.18344e-05
3.79576e-05
1.90715e-05
2.77508e-05
1.76251e-05
3.16449e-05
1.76159e-05
1.90877e-05
3.1637e-05
2.18344e-05
3.79584e-05
4.37811e-05
2.67178e-05
2.67323e-05
3.7971e-05
2.18175e-05
1.90808e-05
3.16558e-05
1.76277e-05
2.77522e-05
1.90973e-05
3.16448e-05
1.76186e-05
2.18561e-05
3.80317e-05
2.6811e-05
4.38819e-05
2.18724e-05
2.67976e-05
3.80218e-05
1.90702e-05
1.76258e-05
3.1494e-05
2.77101e-05
1.90879e-05
1.76156e-05
3.15172e-05
2.18188e-05
3.79689e-05
2.67314e-05
4.37769e-05
2.18356e-05
3.79547e-05
2.67171e-05
3.55805e-05
1.75925e-05
2.37806e-05
2.38221e-05
2.38398e-05
2.38026e-05
3.55673e-05
3.55631e-05
1.7583e-05
2.37908e-05
2.3836e-05
2.37702e-05
3.55768e-05
2.38185e-05
1.90752e-05
2.77413e-05
1.76039e-05
3.16052e-05
1.76133e-05
3.16178e-05
1.90567e-05
2.18031e-05
2.67581e-05
3.79407e-05
4.37757e-05
2.67453e-05
2.18196e-05
3.79286e-05
1.90569e-05
2.77336e-05
1.76128e-05
3.16219e-05
1.76035e-05
1.90728e-05
3.16095e-05
2.18202e-05
3.79294e-05
4.3782e-05
2.67486e-05
2.67614e-05
3.79415e-05
2.18038e-05
1.90441e-05
1.76143e-05
3.13741e-05
2.77085e-05
1.90662e-05
1.76038e-05
3.13644e-05
2.18293e-05
3.79682e-05
2.67952e-05
4.38556e-05
2.18463e-05
2.67809e-05
3.7954e-05
1.90554e-05
1.7613e-05
3.16102e-05
2.77235e-05
1.90741e-05
1.76034e-05
3.15377e-05
2.18062e-05
3.79416e-05
2.6764e-05
4.37741e-05
2.18227e-05
3.79281e-05
2.67511e-05
3.56166e-05
1.76068e-05
2.3819e-05
2.38554e-05
3.56256e-05
2.38032e-05
2.38413e-05
1.41178e-05
1.57195e-05
1.57133e-05
1.7627e-05
1.41176e-05
1.57234e-05
1.57117e-05
1.76307e-05
1.41169e-05
1.57238e-05
1.57098e-05
1.76314e-05
1.41158e-05
1.57217e-05
1.57081e-05
1.76364e-05
1.41154e-05
1.57163e-05
1.57057e-05
1.75773e-05
1.41148e-05
1.57078e-05
1.57017e-05
1.75652e-05
1.41143e-05
1.57008e-05
1.56982e-05
1.75755e-05
1.41137e-05
1.56967e-05
1.56962e-05
1.75625e-05
1.41129e-05
1.56929e-05
1.56952e-05
1.75693e-05
1.41123e-05
1.56917e-05
1.56947e-05
1.75437e-05
1.41125e-05
1.56924e-05
1.56934e-05
1.75593e-05
1.41123e-05
1.56924e-05
1.56916e-05
1.75469e-05
1.41121e-05
1.56918e-05
1.56891e-05
1.75428e-05
1.41109e-05
1.56903e-05
1.56859e-05
1.7525e-05
1.41084e-05
1.56879e-05
1.56829e-05
1.75532e-05
1.41049e-05
1.56861e-05
1.56804e-05
1.75589e-05
1.41018e-05
1.56846e-05
1.56789e-05
1.75652e-05
1.40999e-05
1.56842e-05
1.56789e-05
1.75182e-05
1.40989e-05
1.56757e-05
1.56721e-05
1.74963e-05
1.42738e-05
1.52501e-05
1.52492e-05
1.71218e-05
1.76394e-05
1.57146e-05
1.57217e-05
1.76161e-05
1.57168e-05
1.57103e-05
1.57188e-05
1.57065e-05
1.75882e-05
1.57139e-05
1.57078e-05
1.76076e-05
1.7658e-05
1.76132e-05
1.57151e-05
1.57216e-05
1.57167e-05
1.57208e-05
1.76351e-05
1.76269e-05
1.57174e-05
1.57089e-05
1.57179e-05
1.57049e-05
1.57066e-05
1.57228e-05
1.57072e-05
1.76036e-05
1.75864e-05
1.57085e-05
1.57121e-05
1.57101e-05
1.76166e-05
1.76104e-05
1.75972e-05
1.57174e-05
1.57208e-05
1.57178e-05
1.57205e-05
1.76442e-05
1.76074e-05
1.57175e-05
1.57043e-05
1.57146e-05
1.57004e-05
1.57076e-05
1.57241e-05
1.57085e-05
1.76038e-05
1.75582e-05
1.57107e-05
1.57105e-05
1.57099e-05
1.76169e-05
1.76327e-05
1.75888e-05
1.57172e-05
1.57202e-05
1.57152e-05
1.57187e-05
1.76006e-05
1.75899e-05
1.57133e-05
1.56991e-05
1.57087e-05
1.56952e-05
1.57089e-05
1.57222e-05
1.57101e-05
1.7552e-05
1.75576e-05
1.57089e-05
1.57083e-05
1.57054e-05
1.76195e-05
1.75829e-05
1.75869e-05
1.57146e-05
1.57182e-05
1.57132e-05
1.57145e-05
1.75872e-05
1.75642e-05
1.57072e-05
1.56942e-05
1.57024e-05
1.56893e-05
1.57107e-05
1.5718e-05
1.57102e-05
1.75735e-05
1.75483e-05
1.57044e-05
1.57063e-05
1.57012e-05
1.75811e-05
1.75794e-05
1.75436e-05
1.5713e-05
1.57131e-05
1.57115e-05
1.57063e-05
1.75807e-05
1.75674e-05
1.57008e-05
1.56873e-05
1.56951e-05
1.56803e-05
1.57095e-05
1.57098e-05
1.57058e-05
1.75715e-05
1.75535e-05
1.57007e-05
1.57027e-05
1.56989e-05
1.75711e-05
1.75636e-05
1.75341e-05
1.57111e-05
1.57042e-05
1.57075e-05
1.56962e-05
1.75605e-05
1.75264e-05
1.56935e-05
1.56783e-05
1.56896e-05
1.56736e-05
1.57041e-05
1.5702e-05
1.56971e-05
1.75651e-05
1.75542e-05
1.56985e-05
1.56989e-05
1.56962e-05
1.75602e-05
1.75509e-05
1.7543e-05
1.57064e-05
1.56942e-05
1.57008e-05
1.56876e-05
1.75453e-05
1.75242e-05
1.56891e-05
1.56733e-05
1.56882e-05
1.5673e-05
1.56946e-05
1.56972e-05
1.56877e-05
1.75673e-05
1.75588e-05
1.56957e-05
1.56965e-05
1.56933e-05
1.75448e-05
1.75624e-05
1.75148e-05
1.56992e-05
1.56863e-05
1.56918e-05
1.56807e-05
1.75421e-05
1.75106e-05
1.56883e-05
1.56731e-05
1.56872e-05
1.56743e-05
1.56862e-05
1.56936e-05
1.56825e-05
1.75799e-05
1.75387e-05
1.56929e-05
1.56953e-05
1.5691e-05
1.75539e-05
1.75338e-05
1.75311e-05
1.569e-05
1.56793e-05
1.56847e-05
1.56755e-05
1.75347e-05
1.75259e-05
1.56873e-05
1.56751e-05
1.56869e-05
1.56771e-05
1.5682e-05
1.56917e-05
1.56805e-05
1.75581e-05
1.75648e-05
1.56909e-05
1.56948e-05
1.56898e-05
1.75212e-05
1.75469e-05
1.75414e-05
1.56843e-05
1.56755e-05
1.56835e-05
1.56757e-05
1.7541e-05
1.75328e-05
1.5687e-05
1.56783e-05
1.56878e-05
1.568e-05
1.56805e-05
1.56921e-05
1.56803e-05
1.75559e-05
1.75432e-05
1.56898e-05
1.56936e-05
1.56895e-05
1.7544e-05
1.75576e-05
1.75218e-05
1.56835e-05
1.56764e-05
1.56833e-05
1.56782e-05
1.75483e-05
1.75072e-05
1.56883e-05
1.56812e-05
1.56883e-05
1.56826e-05
1.56804e-05
1.56923e-05
1.5681e-05
1.75455e-05
1.75332e-05
1.56896e-05
1.56919e-05
1.56894e-05
1.75274e-05
1.75469e-05
1.75494e-05
1.56834e-05
1.56795e-05
1.5683e-05
1.56814e-05
1.75336e-05
1.75345e-05
1.56884e-05
1.56835e-05
1.56882e-05
1.56846e-05
1.56816e-05
1.56919e-05
1.56827e-05
1.75257e-05
1.75184e-05
1.56894e-05
1.56895e-05
1.56888e-05
1.75277e-05
1.75631e-05
1.75224e-05
1.56831e-05
1.56823e-05
1.56826e-05
1.56836e-05
1.75544e-05
1.75341e-05
1.56883e-05
1.56851e-05
1.56872e-05
1.56849e-05
1.56834e-05
1.56906e-05
1.56842e-05
1.75465e-05
1.75306e-05
1.56887e-05
1.56863e-05
1.56865e-05
1.75053e-05
1.75453e-05
1.75236e-05
1.56827e-05
1.56844e-05
1.56816e-05
1.56846e-05
1.75633e-05
1.75287e-05
1.56871e-05
1.56849e-05
1.56847e-05
1.56829e-05
1.56844e-05
1.56882e-05
1.56838e-05
1.75509e-05
1.75269e-05
1.56861e-05
1.56833e-05
1.56829e-05
1.75362e-05
1.75408e-05
1.75231e-05
1.56817e-05
1.56848e-05
1.56815e-05
1.56846e-05
1.75475e-05
1.75498e-05
1.56844e-05
1.56826e-05
1.56819e-05
1.56798e-05
1.56837e-05
1.56862e-05
1.56822e-05
1.75517e-05
1.75259e-05
1.56826e-05
1.56807e-05
1.56803e-05
1.75271e-05
1.75441e-05
1.74887e-05
1.56817e-05
1.56847e-05
1.56821e-05
1.5683e-05
1.75504e-05
1.75299e-05
1.56816e-05
1.56796e-05
1.56788e-05
1.56785e-05
1.56821e-05
1.56846e-05
1.5681e-05
1.75143e-05
1.75061e-05
1.56803e-05
1.5679e-05
1.56799e-05
1.75461e-05
1.7528e-05
1.75132e-05
1.56825e-05
1.56829e-05
1.56828e-05
1.56813e-05
1.75241e-05
1.74986e-05
1.56782e-05
1.56786e-05
1.56735e-05
1.56788e-05
1.56812e-05
1.5684e-05
1.5681e-05
1.75126e-05
1.74901e-05
1.56802e-05
1.56785e-05