/*--------------------------------*- C++ -*----------------------------------*\
| =========                 |                                                 |
| \\      /  F ield         | OpenFOAM: The Open Source CFD Toolbox           |
|  \\    /   O peration     | Version:  2312                                  |
|   \\  /    A nd           | Website:  www.openfoam.com                      |
|    \\/     M anipulation  |                                                 |
\*---------------------------------------------------------------------------*/
FoamFile
{
    version     2.0;
    format      ascii;
    arch        "LSB;label=32;scalar=64";
    class       volScalarField;
    location    "100";
    object      p;
}
// * * * * * * * * * * * * * * * * * * * * * * * * * * * * * * * * * * * * * //

dimensions      [0 2 -2 0 0 0 0];

internalField   nonuniform List<scalar> 
43168
(
0.000712119
0.000712088
0.000712085
0.000713738
0.00071939
0.00072103
0.000721039
0.000719394
0.000721032
0.000721047
0.000721039
0.000721055
0.000719395
0.000721046
0.000721053
0.000719402
0.00071374
0.000712088
0.000712087
0.00071374
0.000712086
0.000712082
0.000712088
0.000713734
0.000712086
0.000736767
0.000736776
0.000721062
0.000721059
0.000721088
0.000721091
0.000701028
0.000714232
0.000714219
0.000701017
0.000714241
0.000701023
0.000701027
0.000714225
0.000714213
0.000701018
0.000712121
0.00071212
0.000712128
0.000701157
0.000714144
0.000712093
0.000703142
0.000714092
0.000701113
0.000703147
0.000714248
0.000701013
0.000701153
0.000712092
0.000714148
0.000703138
0.000714089
0.000703145
0.000701114
0.000714236
0.000714239
0.000701499
0.000701032
0.00070103
0.000736763
0.000736765
0.000737293
0.000736769
0.00073677
0.000718902
0.000732131
0.000718899
0.000732129
0.00073163
0.000718915
0.000718906
0.000732122
0.000732119
0.000738926
0.000736847
0.00073211
0.00071891
0.000732121
0.00071893
0.00073211
0.000718905
0.000732123
0.000718924
0.000731985
0.000729981
0.000718993
0.000721041
0.000732034
0.000729995
0.000719056
0.000731982
0.00072999
0.000718991
0.000721043
0.000732033
0.000729997
0.000719058
0.0007189
0.00073213
0.000731632
0.000718909
0.000718911
0.00073212
0.000718901
0.000738925
0.000736854
0.000732082
0.000718906
0.000732117
0.000718933
0.000731944
0.000729985
0.000718988
0.000721053
0.000732028
0.000730004
0.000719061
0.000732083
0.000718914
0.000732105
0.00071893
0.000731941
0.000729991
0.000721056
0.000719
0.000730006
0.00073201
0.000719059
0.000719
0.000721057
0.000719057
0.00071891
0.000718925
0.000721063
0.000719004
0.000719057
0.000718914
0.000718922
0.000718909
0.000732114
0.000731636
0.000718923
0.000718919
0.000732104
0.000732102
0.000718907
0.000732119
0.00073196
0.000729988
0.000721056
0.00071901
0.00073
0.000732009
0.000719067
0.000731962
0.000729993
0.000721063
0.000719006
0.000730004
0.000732008
0.000719065
0.000732085
0.000718918
0.000732108
0.000718944
0.000732086
0.00071892
0.00073211
0.00071894
0.000731638
0.000718924
0.000718927
0.000732103
0.000718906
0.000718912
0.000732127
0.00071424
0.000701007
0.000714237
0.00070101
0.000714228
0.000714219
0.000701493
0.000701021
0.000701025
0.000696342
0.000696346
0.000695842
0.000696335
0.000696336
0.000701031
0.000714231
0.000714215
0.000701031
0.000701157
0.000714136
0.000712093
0.00070314
0.000714088
0.000701106
0.000703145
0.000701146
0.000714139
0.000712094
0.000703137
0.000714093
0.000701116
0.000703146
0.000696321
0.000696333
0.000696324
0.000696349
0.000696198
0.00069419
0.000696241
0.000694198
0.000696183
0.000694189
0.000696252
0.000694197
0.000714229
0.000714229
0.000701495
0.000701037
0.000701031
0.000714241
0.000701021
0.000696361
0.000695841
0.000696355
0.000696348
0.000696359
0.000701158
0.00071413
0.000712087
0.000703136
0.000714085
0.000701106
0.000703139
0.000701026
0.000714233
0.00071421
0.000701022
0.000701148
0.000712083
0.000714139
0.000703133
0.000714079
0.000703134
0.000701108
0.000696321
0.000696336
0.000696192
0.000694189
0.000696242
0.000694195
0.000696322
0.000696338
0.000696186
0.00069419
0.000694193
0.000696242
0.000701037
0.000714233
0.000714216
0.000701027
0.000701153
0.000712093
0.000714142
0.000703138
0.000714091
0.000703143
0.000701115
0.000701037
0.000714234
0.000714216
0.00070103
0.000696189
0.000694194
0.00069625
0.000694201
0.000696331
0.000696347
0.000696185
0.000694195
0.000694197
0.00069625
0.000696336
0.000696349
0.000714238
0.000714233
0.000701495
0.000701023
0.000701032
0.000714243
0.000701023
0.000696345
0.000695845
0.000696331
0.000696341
0.000696362
0.000701151
0.000712092
0.000714144
0.000703137
0.000714089
0.000703141
0.000701116
0.000701038
0.000714237
0.000714225
0.000701032
0.000701039
0.00071424
0.000714222
0.000701032
0.000696193
0.000694194
0.000694199
0.000696246
0.00069619
0.000694195
0.000694198
0.00069625
0.000696332
0.000696348
0.000696333
0.00069635
0.000714244
0.000701021
0.000714252
0.000701021
0.000695849
0.000696342
0.000696341
0.000696357
0.000696357
0.000741066
0.000736753
0.000741044
0.000741058
0.00073676
0.000741057
0.000705317
0.000705289
0.000701009
0.00070102
0.000705321
0.000705294
0.000701006
0.000709953
0.000714247
0.000709958
0.00071425
0.00070995
0.000709961
0.000709983
0.000714245
0.000714226
0.000714253
0.000709964
0.000709979
0.000705316
0.000701004
0.000705297
0.000705312
0.000701005
0.000709957
0.000705317
0.000705303
0.000705288
0.000701022
0.000701004
0.000705289
0.000705303
0.000701005
0.00070994
0.000714235
0.000709952
0.000714237
0.000709939
0.000709945
0.000709979
0.000714216
0.000714237
0.000714239
0.000709969
0.00070995
0.000705306
0.000701005
0.000705295
0.000705306
0.000701004
0.000709962
0.000705313
0.000705315
0.000701007
0.000701003
0.000705314
0.000705313
0.000701
0.000710001
0.000714179
0.00071423
0.000709966
0.00071421
0.000710024
0.000709966
0.000709999
0.00071417
0.000714242
0.000709967
0.000714207
0.000710019
0.000709973
0.000709943
0.000714263
0.000714268
0.000714271
0.000709944
0.000709947
0.000705256
0.000701038
0.000705302
0.000701081
0.000705237
0.000705291
0.000701055
0.000705256
0.000701029
0.000705302
0.00070109
0.000705237
0.000705292
0.000701058
0.000741054
0.00074106
0.000741061
0.000736758
0.00073676
0.00074107
0.00074107
0.000736752
0.000740996
0.000736777
0.000741041
0.00073683
0.000741037
0.000736801
0.000740984
0.000740999
0.000736778
0.000741048
0.000736831
0.00074104
0.0007368
0.000740984
0.000723207
0.000727861
0.0007232
0.000727852
0.000727848
0.000732148
0.000732148
0.000732157
0.000727851
0.000727849
0.000723154
0.00071896
0.000723204
0.000718911
0.000723187
0.000723124
0.000718939
0.000723146
0.000718957
0.000723193
0.000718913
0.000723186
0.000723123
0.000718931
0.000727912
0.000732123
0.000732066
0.00072788
0.000732101
0.00072788
0.000727931
0.000727907
0.000732121
0.000732066
0.000727868
0.000732101
0.000727874
0.000727932
0.000723206
0.000718887
0.000718888
0.000723207
0.000723206
0.000718882
0.000727835
0.00073213
0.000732112
0.000727861
0.000732128
0.000727842
0.000727857
0.000723203
0.000723196
0.000718899
0.0007189
0.000723206
0.000727842
0.000732128
0.000727866
0.000732129
0.000727846
0.000723198
0.000723185
0.000718905
0.000718925
0.000718903
0.000723202
0.000723187
0.000727852
0.000732135
0.000732117
0.000727862
0.00073215
0.000727839
0.00072786
0.000723202
0.000723188
0.000718895
0.000723203
0.000718895
0.000727846
0.000732137
0.000727859
0.000732136
0.000727849
0.000723204
0.000723182
0.000718897
0.000718915
0.000723193
0.000723183
0.0007189
0.000723198
0.000727851
0.000723144
0.00071896
0.000723186
0.000718913
0.00072312
0.000723182
0.000718934
0.000723147
0.000718968
0.000723194
0.00071891
0.000723184
0.00072313
0.000718937
0.000732066
0.000727866
0.000727926
0.000723204
0.000718886
0.000718884
0.000723203
0.000723205
0.00071888
0.000723203
0.000727837
0.000732091
0.000732143
0.000727843
0.000732127
0.000727844
0.000727852
0.000723209
0.000723195
0.000718896
0.000718896
0.00072321
0.000727838
0.000732117
0.000727859
0.000732129
0.000727835
0.000723215
0.000723195
0.000718924
0.000718902
0.000718902
0.000723196
0.000723216
0.000727861
0.00073215
0.000732097
0.000727843
0.000732135
0.000727863
0.000727849
0.000723221
0.000723201
0.000718906
0.000723222
0.000718906
0.000727849
0.000732119
0.000727852
0.00073213
0.000727844
0.000723234
0.000723193
0.000718903
0.000718925
0.000723219
0.000723197
0.000718911
0.000723214
0.000723198
0.000718902
0.000723215
0.000718904
0.000723214
0.000723199
0.000718918
0.000718908
0.0007232
0.000723213
0.000718907
0.000723213
0.0007232
0.000718902
0.000723216
0.000718903
0.000723221
0.000723197
0.000718906
0.000718915
0.00072321
0.000723197
0.000718907
0.000723207
0.000727842
0.000727821
0.000732133
0.000732135
0.00073213
0.000727831
0.000727828
0.000723156
0.000718966
0.000723204
0.000718925
0.00072313
0.000723193
0.000718948
0.000723155
0.000718977
0.000723199
0.000718916
0.000723183
0.00072314
0.000718947
0.000727881
0.000732098
0.000732041
0.000727858
0.000727906
0.000732073
0.000727856
0.000727879
0.000732103
0.000732035
0.000727853
0.000732068
0.000727851
0.00072791
0.000723212
0.000718897
0.000718893
0.000723211
0.000723206
0.000718893
0.000723204
0.000727841
0.000727854
0.000732095
0.00073213
0.000727852
0.000732155
0.000727851
0.000727844
0.00072322
0.000723202
0.000718914
0.000723223
0.000718916
0.000727842
0.000732125
0.00072785
0.000732135
0.000727844
0.000723224
0.000723204
0.000718946
0.000718922
0.000723207
0.000723218
0.000718923
0.000727848
0.000732095
0.00073213
0.000727854
0.000732138
0.000727852
0.000727846
0.00072322
0.000723203
0.000718913
0.000723222
0.000718917
0.000727843
0.000732122
0.000727851
0.00073213
0.000727843
0.000723223
0.000723202
0.000718933
0.000718921
0.000723202
0.000723219
0.000718924
0.000727815
0.000727822
0.000727824
0.000723157
0.000718988
0.000723196
0.000718925
0.000718962
0.00072314
0.000723183
0.000723157
0.000718982
0.000723201
0.000718934
0.00071896
0.000723142
0.00072319
0.000727875
0.000727846
0.000727906
0.000727845
0.000727876
0.000732036
0.00072785
0.000727906
0.000727851
0.00072321
0.000718903
0.000718907
0.000718904
0.000723206
0.000723209
0.000723201
0.000727836
0.000723204
0.000727841
0.000709952
0.000705305
0.000709947
0.000705302
0.000705309
0.000700993
0.000700993
0.000705308
0.000705307
0.000700988
0.000710004
0.000714162
0.000714224
0.000709964
0.000714203
0.000709968
0.00071002
0.000709999
0.000714161
0.000714224
0.000709959
0.000714196
0.000709969
0.000710018
0.000709945
0.000714253
0.000714253
0.00071426
0.000709945
0.000709944
0.00070525
0.000701021
0.000705297
0.000701081
0.000705287
0.00070105
0.000705236
0.00070525
0.000701021
0.000705299
0.000701078
0.000705288
0.000701052
0.000705234
0.000692057
0.000692062
0.000692051
0.000696363
0.000696362
0.000696368
0.000692054
0.000692052
0.000692109
0.000696336
0.000696268
0.000692072
0.000696314
0.00069208
0.000692121
0.000692112
0.000696332
0.000696271
0.000692074
0.000696316
0.000692075
0.000692125
0.000705326
0.0007053
0.000701026
0.00070104
0.000705325
0.000705307
0.000701023
0.00070996
0.000714244
0.000709967
0.000714249
0.000709957
0.000709959
0.00070999
0.00071424
0.000714215
0.000709969
0.000714247
0.000709983
0.000705331
0.000701021
0.000705311
0.000705327
0.000701029
0.000692054
0.000696347
0.000696318
0.000692081
0.000696348
0.000692063
0.000692072
0.00069205
0.000696344
0.000692064
0.000696348
0.000692052
0.000692069
0.000696369
0.000696343
0.000692085
0.00069637
0.000692071
0.000692088
0.000692071
0.000696362
0.000692079
0.000696373
0.000692067
0.000705317
0.000701009
0.000701004
0.000705318
0.000705314
0.000701001
0.000710007
0.000714166
0.000714228
0.00070997
0.000709973
0.000714203
0.000710025
0.000710006
0.00071417
0.000714222
0.000709965
0.000710026
0.000714206
0.000709971
0.000709948
0.000714254
0.000714251
0.000709949
0.000714258
0.000709947
0.000705255
0.00070104
0.000705307
0.000701081
0.000705299
0.000705238
0.000701058
0.000705254
0.000701029
0.000705302
0.000701088
0.000705242
0.000705291
0.000701059
0.000709955
0.000705311
0.000692074
0.000692061
0.000696376
0.000696373
0.000696379
0.000692066
0.000692064
0.000692125
0.000696351
0.000696271
0.000692093
0.000692127
0.000696329
0.000692092
0.000692119
0.000696343
0.000696277
0.000692082
0.000696327
0.000692085
0.000692135
0.000692071
0.000705325
0.000705296
0.000701015
0.00070103
0.000705311
0.000705307
0.000701019
0.000709966
0.000714248
0.000709965
0.000714251
0.00070996
0.000709967
0.000709986
0.000714245
0.000714222
0.000709959
0.000714254
0.00070999
0.000705335
0.000701014
0.000705306
0.000705325
0.000701022
0.000692066
0.000696326
0.00069635
0.000692081
0.000696361
0.000692077
0.00069207
0.000692056
0.000696348
0.000692068
0.000696351
0.000692057
0.000692069
0.000696358
0.000696337
0.000692082
0.000696368
0.000692082
0.000692085
0.000692061
0.000696354
0.000692071
0.000696362
0.00069206
0.000705326
0.000705304
0.000701034
0.00070103
0.000705304
0.000705325
0.000701018
0.000709964
0.00071425
0.000709964
0.00070996
0.000714258
0.000709975
0.000709994
0.00071422
0.000714253
0.000709986
0.000714262
0.000709973
0.000705325
0.000701017
0.000705306
0.000705323
0.000701018
0.000705329
0.000705307
0.000701038
0.000701038
0.000705329
0.000705307
0.000701035
0.000709963
0.000714247
0.000709966
0.000714252
0.000709959
0.000709964
0.000709996
0.000714251
0.000714218
0.000714252
0.000709977
0.000709985
0.000705332
0.000701026
0.00070531
0.000705328
0.000701032
0.000692089
0.000696337
0.000696382
0.000692094
0.000696377
0.000692091
0.000692094
0.000692078
0.000696361
0.000692079
0.000696371
0.000692073
0.000692093
0.00069639
0.000696345
0.000692101
0.000696386
0.000692103
0.0006921
0.000692087
0.000696369
0.00069208
0.000696384
0.000692078
0.000705313
0.000701
0.000701002
0.000705315
0.000705315
0.000700996
0.000710008
0.000714159
0.000714237
0.000709974
0.000709977
0.00071421
0.000710014
0.000710005
0.000714171
0.000714227
0.000709969
0.000710025
0.000714208
0.00070997
0.000709948
0.000714259
0.000714256
0.000709951
0.000714267
0.000709948
0.000705253
0.000701027
0.000705304
0.000701077
0.000705294
0.000705234
0.00070105
0.000705252
0.00070103
0.000705305
0.000701081
0.00070524
0.000705291
0.000701051
0.000709956
0.000705313
0.000692061
0.000692051
0.000696362
0.000696367
0.000696371
0.000692053
0.000692055
0.000692109
0.000696333
0.000696274
0.000692072
0.000692129
0.000696314
0.000692075
0.000692111
0.000696344
0.000696268
0.000692077
0.000696315
0.000692081
0.000692127
0.000692071
0.000705344
0.000705309
0.000701043
0.000701039
0.000705322
0.000705338
0.000701041
0.000709963
0.000714255
0.000709967
0.000709961
0.000714259
0.000709971
0.00071
0.000714242
0.000714264
0.000709999
0.000714263
0.000709985
0.000705332
0.000701024
0.000705311
0.00070533
0.000701028
0.000705337
0.00070531
0.000701041
0.000701045
0.000705315
0.00070534
0.000701045
0.000709966
0.000714256
0.00070997
0.000714263
0.000709964
0.000709971
0.000710001
0.000714228
0.000714261
0.000714268
0.000709995
0.000709983
0.000705334
0.000701028
0.000705313
0.000705332
0.000701031
0.000692081
0.000696341
0.000696378
0.000692095
0.000696382
0.000692089
0.000692085
0.000692072
0.000696364
0.000692077
0.000696372
0.00069207
0.000692091
0.000696345
0.000696385
0.0006921
0.000696396
0.000692101
0.000692086
0.000692086
0.000696372
0.000692082
0.000696383
0.00069208
0.000709957
0.00070531
0.00070996
0.000705314
0.000692054
0.000696371
0.000696366
0.000696377
0.000692057
0.000692055
0.000692113
0.000696349
0.000696272
0.000692077
0.000696321
0.00069213
0.000692083
0.000692114
0.000696336
0.000696283
0.000692078
0.000696325
0.000692134
0.000692078
0.000692068
0.000692071
0.000738971
0.000712106
0.000712102
0.000703181
0.000703167
0.000703161
0.000703152
0.000712088
0.000710169
0.00071393
0.000713929
0.000710454
0.000714042
0.000710278
0.000710278
0.000722973
0.000722665
0.000719211
0.000719218
0.000722857
0.000722867
0.000719101
0.000722974
0.000722674
0.000719221
0.00071922
0.000722871
0.00072287
0.000719105
0.000722984
0.000722677
0.00071922
0.000719228
0.000722872
0.00072288
0.000719116
0.000722991
0.000722686
0.000719237
0.000719235
0.000719131
0.000722884
0.000722885
0.000710168
0.000713922
0.000713929
0.00071045
0.000714035
0.000710274
0.000710278
0.000710174
0.000713927
0.000713926
0.000710451
0.00071028
0.000714041
0.000710278
0.000710171
0.000713914
0.000713926
0.000710445
0.000710276
0.000714039
0.000710266
0.000730025
0.000721054
0.000721068
0.000730016
0.00073002
0.000730026
0.000721064
0.00073001
0.00072106
0.000721075
0.000730016
0.000730018
0.000730026
0.000721071
0.00073003
0.000721076
0.000721083
0.000730025
0.000730025
0.00073003
0.000721074
0.000730018
0.000721083
0.000721084
0.000730023
0.000730022
0.00073003
0.000721076
0.000712112
0.000712107
0.000703186
0.000703168
0.00070316
0.000703148
0.000712092
0.000712101
0.000712105
0.000703173
0.000703155
0.000703154
0.000703143
0.000712088
0.000712107
0.000712109
0.000703181
0.000703158
0.000703158
0.000703144
0.000712089
0.000694234
0.000694218
0.000694218
0.000694215
0.000694243
0.000694219
0.000694219
0.000694215
0.000694231
0.000694216
0.000694214
0.000694214
0.00069424
0.000694218
0.000694219
0.000694215
0.000705012
0.000705163
0.00070116
0.000701288
0.000705167
0.000705008
0.000701291
0.00071022
0.00071403
0.000714111
0.000710046
0.000713964
0.00071015
0.000710088
0.000710236
0.000710118
0.000714088
0.000713953
0.000713947
0.000710108
0.000710237
0.000705029
0.00070115
0.000705214
0.000701208
0.000705099
0.000705181
0.000701275
0.000705001
0.000705157
0.000701288
0.000701149
0.000705004
0.00070516
0.000701285
0.000710219
0.000714031
0.000714119
0.00071005
0.000713965
0.000710148
0.000710093
0.000710229
0.000710111
0.000713949
0.000714097
0.000713939
0.000710234
0.000710114
0.000705027
0.000701153
0.000705218
0.000701206
0.000705097
0.000705185
0.000701276
0.000705086
0.000704786
0.000701332
0.000701335
0.00070498
0.000704983
0.000701223
0.000740837
0.000740566
0.000737106
0.000737105
0.000736978
0.00074075
0.000740746
0.000728074
0.000728333
0.000731823
0.000731824
0.000731938
0.000728171
0.000728176
0.00074079
0.00073689
0.000740955
0.000736963
0.000740924
0.000740854
0.000737042
0.000728133
0.000731993
0.000731843
0.000727998
0.000731844
0.000728004
0.000728131
0.00072292
0.000719086
0.000723112
0.000719033
0.000722984
0.000723079
0.000719161
0.000728123
0.000732003
0.000731927
0.000727962
0.000728055
0.000731862
0.000728
0.000722906
0.000723055
0.000719051
0.000719178
0.000723065
0.000722897
0.000719179
0.000728129
0.000731979
0.000731841
0.000728
0.000731838
0.000727989
0.000728132
0.000722919
0.00071909
0.0007231
0.000719032
0.000723071
0.000722985
0.000719164
0.000728119
0.000732
0.000731924
0.000727951
0.000731858
0.000727991
0.000728051
0.000722904
0.000723058
0.000719047
0.000719182
0.000723054
0.000722898
0.000719184
0.000728342
0.000731822
0.000728176
0.000740966
0.000736964
0.000740857
0.000728131
0.000731958
0.000731842
0.00072797
0.00073184
0.000727972
0.000728136
0.00072292
0.00071909
0.000723109
0.000719032
0.00072299
0.000723075
0.000719164
0.000728113
0.000731975
0.000731924
0.000727954
0.000728057
0.00073185
0.000727973
0.000722907
0.000723058
0.00071905
0.000719182
0.000723057
0.000722901
0.000719184
0.000728127
0.000731841
0.000731959
0.000727964
0.000731839
0.000728134
0.000727961
0.000722924
0.000719092
0.000723116
0.000719039
0.00072308
0.000722993
0.000719166
0.000728109
0.000731974
0.000731903
0.000727938
0.000731846
0.000727971
0.000728035
0.000722907
0.000723056
0.000719183
0.000719047
0.000722902
0.000723048
0.000719183
0.000722926
0.000719098
0.000723113
0.000719041
0.000719167
0.000722995
0.000723084
0.000722913
0.000723068
0.000719049
0.000719186
0.000719184
0.000723072
0.000722905
0.000722932
0.000719105
0.000723117
0.000719041
0.000723086
0.000723002
0.000719175
0.000722916
0.000723068
0.000719191
0.00071905
0.000722907
0.000723066
0.000719195
0.000728051
0.000728345
0.000731808
0.000731811
0.000728163
0.000731912
0.000728169
0.000728133
0.000731847
0.00073195
0.000727984
0.000731839
0.00072814
0.000727972
0.000722931
0.000719106
0.000723119
0.000719053
0.000719172
0.000723002
0.00072309
0.000728114
0.000731976
0.000731905
0.000727935
0.00073185
0.000728039
0.000727976
0.000722913
0.000723069
0.000719182
0.00071906
0.000719177
0.000722906
0.000723069
0.000728134
0.000731848
0.00073196
0.000727985
0.000731843
0.00072814
0.000727978
0.000722931
0.000719105
0.00072312
0.000719043
0.000723086
0.000723003
0.000719173
0.000728115
0.000731977
0.000731906
0.000727936
0.000731851
0.000727976
0.000728041
0.000722914
0.000723067
0.000719187
0.000719053
0.000722907
0.000723065
0.000719189
0.00072805
0.000728351
0.00073181
0.000728172
0.000728169
0.000705078
0.000704776
0.000701329
0.000701324
0.000701221
0.000704976
0.000704974
0.000692274
0.000692552
0.000696027
0.000696027
0.000696148
0.000692376
0.000692375
0.000705004
0.000705156
0.000701152
0.000701285
0.000705164
0.000704998
0.000701287
0.000710218
0.000714024
0.000714104
0.000710046
0.000710088
0.000713962
0.000710147
0.000710226
0.000710111
0.000714086
0.000713954
0.000710106
0.000713943
0.00071023
0.000705025
0.000701143
0.000705215
0.000701204
0.000705181
0.000705098
0.00070127
0.000705006
0.00070516
0.00070115
0.000701279
0.000705172
0.000704996
0.000701276
0.000710221
0.000714026
0.000714106
0.000710054
0.000713964
0.000710094
0.000710151
0.000710235
0.000710117
0.000714093
0.000713956
0.000713952
0.00071012
0.000710232
0.000705024
0.000701147
0.000705223
0.000701203
0.000705186
0.000701267
0.0007051
0.00069234
0.000696197
0.000696059
0.000692212
0.000696059
0.000692211
0.000692342
0.000692324
0.000696206
0.000696128
0.000692153
0.000692251
0.000696068
0.000692193
0.000692334
0.000696192
0.000696054
0.00069221
0.000696045
0.00069221
0.000692342
0.000692325
0.000696211
0.000696124
0.000692164
0.000696065
0.000692198
0.000692249
0.000705082
0.000704779
0.000701327
0.00070133
0.000704981
0.000704978
0.000701223
0.000692284
0.000692554
0.00069602
0.000696028
0.000692372
0.000696156
0.000692384
0.000705005
0.000705163
0.000701152
0.000701281
0.000705171
0.000704996
0.000701283
0.00071022
0.000714027
0.000714102
0.000710042
0.000710087
0.000713965
0.000710148
0.00071023
0.000710114
0.000714087
0.000713951
0.00071011
0.000713946
0.000710229
0.000705024
0.000701143
0.000705214
0.0007012
0.000705181
0.000705095
0.000701268
0.000704995
0.000705159
0.000701278
0.000701145
0.000704993
0.000705163
0.000701274
0.000710213
0.000714018
0.000714105
0.000710049
0.000713958
0.000710089
0.000710141
0.000710218
0.000710111
0.000713947
0.000714083
0.00071394
0.000710225
0.000710106
0.000705022
0.000701142
0.000705217
0.000701202
0.000705181
0.000701266
0.000705096
0.000692336
0.000696191
0.000696054
0.000692206
0.000696051
0.000692207
0.000692338
0.000692325
0.000696208
0.000696128
0.000692152
0.00069225
0.000696067
0.000692195
0.00069233
0.000696052
0.000696187
0.000692197
0.000696041
0.000692336
0.000692204
0.000692325
0.000696209
0.000696132
0.000692155
0.000696066
0.000692195
0.000692253
0.000705015
0.000705168
0.000701285
0.000701153
0.000705004
0.000705177
0.000701286
0.000710224
0.000714032
0.000714109
0.000710052
0.000710151
0.000713969
0.000710095
0.000710241
0.00071012
0.000713957
0.000714093
0.000710237
0.000713956
0.000710123
0.00070503
0.000701151
0.000705224
0.000701208
0.000705103
0.000705189
0.000701273
0.000692342
0.000696196
0.000696058
0.000692209
0.000696055
0.000692208
0.000692345
0.00069233
0.000696213
0.000696132
0.00069216
0.000696071
0.000692258
0.000692198
0.000692335
0.000696053
0.000696197
0.000692203
0.000696054
0.000692337
0.00069221
0.000692329
0.000696214
0.000696136
0.000692163
0.000696073
0.0006922
0.00069226
0.00070508
0.000704777
0.000701328
0.00070133
0.000704978
0.000704973
0.000701219
0.000692279
0.000692554
0.000696032
0.00069603
0.000692382
0.000696148
0.000692381
0.000705011
0.000705163
0.000701286
0.000701151
0.000705002
0.000705176
0.000701289
0.000710225
0.000714031
0.000714111
0.000710054
0.000710152
0.000713967
0.000710099
0.000710237
0.000710118
0.000713954
0.000714089
0.000710235
0.00071395
0.000710122
0.000705032
0.000701154
0.000705225
0.000701212
0.000705104
0.000705192
0.000701277
0.000692344
0.000696063
0.000696195
0.000692215
0.000696056
0.000692348
0.000692211
0.000692332
0.000696216
0.000696133
0.000692156
0.000696075
0.000692256
0.000692199
0.000692338
0.00069606
0.000696192
0.000692217
0.000696056
0.000692345
0.000692212
0.000692333
0.000696217
0.00069614
0.000692162
0.000696076
0.000692204
0.000692263
0.000692282
0.000692561
0.000696034
0.000696037
0.000696156
0.000692386
0.000692387
0.00067634
0.0006763
0.000676301
0.000677952
0.00064057
0.000640532
0.000640527
0.000642181
0.000604775
0.000604743
0.000604737
0.000606388
0.000568994
0.000568955
0.000568956
0.000570596
0.000533226
0.000533176
0.00053318
0.000534822
0.00049746
0.000497411
0.000497415
0.000499058
0.000461714
0.000461672
0.000461672
0.00046331
0.000425984
0.000425946
0.000425946
0.000427586
0.000390265
0.000390226
0.000390232
0.000391873
0.00035456
0.000354522
0.000354529
0.000356168
0.000318862
0.000318829
0.000318825
0.000320472
0.000283158
0.000283119
0.000283119
0.000284762
0.000247442
0.000247404
0.000247402
0.000249044
0.000211718
0.000211679
0.000211677
0.000213309
0.000175988
0.000175951
0.000175949
0.000177578
0.000140242
0.000140208
0.000140205
0.000141833
0.000104467
0.000104434
0.000104431
0.000106046
6.86903e-05
6.86324e-05
6.86345e-05
7.02061e-05
3.35561e-05
3.30017e-05
3.3004e-05
3.42863e-05
8.06405e-06
6.78883e-06
6.79008e-06
5.97372e-06
0.000683601
0.000685243
0.000685246
0.000683604
0.000685242
0.000685245
0.00068524
0.000685249
0.000683601
0.000685241
0.000685248
0.000683605
0.000677953
0.000647827
0.000676302
0.000676303
0.000649465
0.000649469
0.000677954
0.000647829
0.000676303
0.0006763
0.000649464
0.000649466
0.000676304
0.000649462
0.000649471
0.000677951
0.000647825
0.000676302
0.000649458
0.00064947
0.000647832
0.000642179
0.000612027
0.000640532
0.000640536
0.000613667
0.000613674
0.00064218
0.00061204
0.000640535
0.000640534
0.000613674
0.000613677
0.000640539
0.000613676
0.000613679
0.000642177
0.000612037
0.000640537
0.000613669
0.000613679
0.000612041
0.000606378
0.000576248
0.000604734
0.000604741
0.000577888
0.000577894
0.000606389
0.000576256
0.000604739
0.000604742
0.000577888
0.000577892
0.000604745
0.000577886
0.000577888
0.000606388
0.000576253
0.000604744
0.000577886
0.000577888
0.000576246
0.0005706
0.000540481
0.000568957
0.00056896
0.000542117
0.000542115
0.000570605
0.000540472
0.000568959
0.000568961
0.000542117
0.000542116
0.000568957
0.000542104
0.000542113
0.000570604
0.000540474
0.000568956
0.000542109
0.000542113
0.000540473
0.000534834
0.000504712
0.000533188
0.000533185
0.00050635
0.000506343
0.000534825
0.000504705
0.000533186
0.000533186
0.000506346
0.000506344
0.000533184
0.000506337
0.000506345
0.000534829
0.000504706
0.000533183
0.00050634
0.000506345
0.000504706
0.000499067
0.000468961
0.000497424
0.000497416
0.000470599
0.000470595
0.000499058
0.000468956
0.00049742
0.000497416
0.000470594
0.000470593
0.000497418
0.000470589
0.000470595
0.000499061
0.000468957
0.000497418
0.000470591
0.000470594
0.000468954
0.000463321
0.000433234
0.000461678
0.000461675
0.000434869
0.000434867
0.000463316
0.000433234
0.000461675
0.000461672
0.000434865
0.000434864
0.000461674
0.000434864
0.000434864
0.000463316
0.000433229
0.000461673
0.000434861
0.000434863
0.000433225
0.000427592
0.000397507
0.00042595
0.000425947
0.000399141
0.000399144
0.000427591
0.000397509
0.000425947
0.000425948
0.000399142
0.000399148
0.000425949
0.000399143
0.000399146
0.000427592
0.000397515
0.000425946
0.000399145
0.000399146
0.000397511
0.000391869
0.000361801
0.000390226
0.000390226
0.000363434
0.000363436
0.000391868
0.0003618
0.000390228
0.000390233
0.000363435
0.000363442
0.000390233
0.000363431
0.00036344
0.000391877
0.000361811
0.000390232
0.00036344
0.000363443
0.000361805
0.000356167
0.000326103
0.000354523
0.000354524
0.000327736
0.00032774
0.000356165
0.000326108
0.000354524
0.000354529
0.000327736
0.000327742
0.00035453
0.000327739
0.000327746
0.000356173
0.000326106
0.000354531
0.000327738
0.000327747
0.000326111
0.000320467
0.000290405
0.000318825
0.000318829
0.000292037
0.00029204
0.000320474
0.000290406
0.000318824
0.000318827
0.000292035
0.000292037
0.000318833
0.000292034
0.00029204
0.000320468
0.000290402
0.000318833
0.000292032
0.000292038
0.000290405
0.000284765
0.000254691
0.000283122
0.000283124
0.000256324
0.000256326
0.000284765
0.000254692
0.00028312
0.00028312
0.000256323
0.000256324
0.000283124
0.000256321
0.000256326
0.000284762
0.000254689
0.000283123
0.000256319
0.000256325
0.000254691
0.000249047
0.000218974
0.000247406
0.000247408
0.000220607
0.000220605
0.000249048
0.000218972
0.000247405
0.000247405
0.000220607
0.000220606
0.000247408
0.000220599
0.0002206
0.000249045
0.00021897
0.000247406
0.000220598
0.000220599
0.000218962
0.000213321
0.000183249
0.000211683
0.000211684
0.000184881
0.000184881
0.000213321
0.000183246
0.000211684
0.000211684
0.000184881
0.000184879
0.000211677
0.000184875
0.000184874
0.00021332
0.000183243
0.000211676
0.000184872
0.000184874
0.000183238
0.000177591
0.000147515
0.000175957
0.000175956
0.000149147
0.000149145
0.000177588
0.000147513
0.000175957
0.000175954
0.000149147
0.000149143
0.00017595
0.000149141
0.000149145
0.000177584
0.000147509
0.00017595
0.000149138
0.000149144
0.000147511
0.000141838
0.000111746
0.000140214
0.000140212
0.000113382
0.000113385
0.000141838
0.00011175
0.000140213
0.00014021
0.000113382
0.000113381
0.00014021
0.00011338
0.000113384
0.000141834
0.000111743
0.00014021
0.000113377
0.000113383
0.000111747
0.000106045
7.59536e-05
0.000104435
0.000104438
7.75892e-05
7.7594e-05
0.000106048
7.59594e-05
0.000104435
0.000104433
7.75885e-05
7.75948e-05
0.000104438
7.75911e-05
7.7597e-05
0.000106043
7.59612e-05
0.000104438
7.75924e-05
7.75964e-05
7.59627e-05
7.0199e-05
4.02064e-05
6.86301e-05
6.86335e-05