/*--------------------------------*- C++ -*----------------------------------*\
| =========                 |                                                 |
| \\      /  F ield         | OpenFOAM: The Open Source CFD Toolbox           |
|  \\    /   O peration     | Version:  2312                                  |
|   \\  /    A nd           | Website:  www.openfoam.com                      |
|    \\/     M anipulation  |                                                 |
\*---------------------------------------------------------------------------*/
FoamFile
{
    version     2.0;
    format      ascii;
    arch        "LSB;label=32;scalar=64";
    class       surfaceScalarField;
    location    "100";
    object      phi;
}
// * * * * * * * * * * * * * * * * * * * * * * * * * * * * * * * * * * * * * //

dimensions      [0 3 -1 0 0 0 0];

oriented        oriented;

internalField   nonuniform List<scalar> 
125280
(
-2.03e-09
-6.21579e-09
-0.00114698
4.91414e-11
-4.15642e-10
0.00114699
-0.00113638
-1.29511e-06
1.14763e-08
-3.35853e-08
0.00113642
-3.17971e-07
1.29587e-06
3.12422e-07
9.73103e-07
-3.17104e-07
-9.77111e-07
3.08219e-07
-0.0011363
-1.28952e-06
8.24659e-10
1.19202e-08
0.0011363
-3.15262e-07
1.29396e-06
3.12619e-07
9.72867e-07
-3.18164e-07
-9.75151e-07
3.07714e-07
-0.00027607
1.32205e-06
1.28481e-06
-2.70265e-07
-2.74045e-07
0.000274008
-1.33701e-06
-1.29468e-06
0.00027613
-0.000274052
2.72721e-07
2.80714e-07
0.0011359
3.31221e-10
-0.0011359
1.6751e-08
-1.33373e-06
3.13543e-07
-3.22272e-07
-9.7746e-07
3.05741e-07
-3.14438e-07
9.7671e-07
1.33604e-06
0.00113596
1.74334e-07
-0.00113611
-7.9056e-09
-1.32735e-06
3.18058e-07
-3.18492e-07
-9.8279e-07
3.0268e-07
-3.17729e-07
9.76002e-07
-1.27374e-06
0.000276109
-0.000274049
2.68465e-07
2.81594e-07
0.00113689
3.6911e-10
-0.00113689
8.39523e-09
-1.29111e-06
3.1108e-07
-3.16894e-07
-9.79337e-07
3.08951e-07
-3.17304e-07
9.79603e-07
1.33068e-06
0.00113585
4.00554e-09
-0.00113584
2.60662e-09
-1.32431e-06
3.18616e-07
-3.21243e-07
-9.8011e-07
3.0594e-07
-3.18219e-07
9.79073e-07
5.30213e-08
-1.65595e-07
-1.35487e-06
3.09734e-07
-3.24016e-07
-9.79849e-07
3.05623e-07
9.70828e-07
-3.20009e-07
-0.00113615
1.33026e-06
0.00113548
1.90023e-08
8.30389e-09
-1.31851e-06
3.17881e-07
-3.18166e-07
-9.76638e-07
3.06415e-07
-3.1697e-07
9.71289e-07
-0.0011355
-1.29631e-06
0.000276097
-0.000274029
2.77148e-07
2.80938e-07
-1.43007e-09
-0.00113632
2.4017e-08
-1.28937e-06
3.12534e-07
-3.15688e-07
-9.74656e-07
3.08117e-07
9.73568e-07
-3.17934e-07
1.28773e-06
0.00113645
2.17287e-11
-0.0011364
-2.59968e-08
-1.28949e-06
3.12085e-07
-3.18471e-07
-9.76537e-07
3.09142e-07
-3.17044e-07
9.7682e-07
-0.000274007
2.73811e-07
2.81014e-07
1.33384e-06
1.29111e-06
-2.68409e-07
-2.76545e-07
0.00027405
1.05563e-08
0.0011359
-3.19232e-07
1.33741e-06
3.13706e-07
9.76623e-07
-3.1449e-07
-9.77436e-07
3.05418e-07
-1.32986e-06
1.21719e-08
7.45931e-09
0.00113594
-3.20962e-07
1.33607e-06
3.18073e-07
9.7832e-07
-3.17878e-07
-9.8036e-07
3.07656e-07
-2.75716e-07
-2.72858e-07
0.000274033
1.00766e-08
0.00113689
-3.16679e-07
1.29498e-06
3.11135e-07
9.79439e-07
-3.17161e-07
-9.79693e-07
3.08823e-07
-1.32489e-06
4.82047e-09
7.26654e-09
0.00113584
-3.21072e-07
1.33043e-06
3.18328e-07
9.78825e-07
-3.15357e-07
-9.80368e-07
3.05678e-07
2.033e-09
8.18337e-09
0.00113548
-3.18661e-07
1.32697e-06
3.14657e-07
9.70553e-07
-3.14679e-07
3.02975e-07
-9.71771e-07
-2.70124e-07
-2.76606e-07
0.00027403
1.8931e-09
-7.86374e-09
0.00113646
-3.16202e-07
1.28992e-06
3.11604e-07
9.75952e-07
-3.17493e-07
3.08414e-07
-9.77189e-07
1.09749e-08
-5.24927e-08
0.000196822
3.2932e-09
-0.000196784
1.09612e-08
-5.25045e-08
0.000196805
-0.000196767
-0.00114699
6.60636e-09
-2.30807e-09
0.00114665
-0.00114617
-8.00793e-08
-1.73812e-07
0.00114656
-0.00114657
-1.18267e-08
2.32208e-08
0.0011465
-0.00114644
-2.29916e-08
-2.32405e-08
3.92801e-11
-8.03902e-08
0.000236523
-0.000236481
3.64941e-08
2.01526e-09
-0.000196823
-7.93673e-09
5.72756e-08
-1.07263e-08
0.000196784
-0.000236524
9.47021e-10
8.05851e-08
0.000236482
-3.77964e-08
-1.08144e-09
1.08245e-08
-5.296e-08
0.000196823
3.84398e-09
-0.000196785
-9.88062e-05
8.10066e-09
3.05843e-08
9.87675e-05
-1.08274e-08
-2.80181e-08
9.88074e-05
-9.87686e-05
-7.96843e-08
1.08282e-10
0.000236487
-0.000236445
1.70971e-09
3.60103e-08
-0.000196804
-8.74751e-09
5.66266e-08
-9.14571e-09
0.000196765
-0.000236487
8.04447e-08
6.69222e-10
0.000236445
-1.17014e-09
-3.81697e-08
9.71507e-09
-5.37608e-08
0.000196804
5.63681e-09
-0.000196766
-1.24389e-08
-4.28612e-08
0.00114673
-1.99311e-09
1.08351e-08
0.00114656
-6.20354e-09
-1.59764e-08
0.00114653
8.05708e-08
-1.79182e-09
0.000260112
-0.000259972
1.61172e-09
-2.20231e-07
-0.000252715
-3.3733e-08
-5.63284e-08
1.40536e-07
1.98558e-08
0.000252645
0.00113823
-0.00113828
-1.33338e-08
1.84611e-08
1.05433e-06
-8.67657e-07
-1.05347e-06
8.68823e-07
3.30285e-09
1.29839e-06
0.00113642
8.63337e-10
-9.74514e-07
3.08205e-07
-3.17268e-07
9.73084e-07
-1.29218e-06
3.12452e-07
-3.15545e-07
-0.000260115
-7.87725e-08
1.22018e-09
0.000259975
-2.13429e-10
2.17667e-07
3.61297e-08
5.2974e-08
0.000252715
-2.46506e-08
-0.000252645
-1.34226e-07
-9.05348e-09
0.00113825
3.70717e-09
-1.05106e-06
8.65742e-07
-8.68105e-07
1.05128e-06
-9.8792e-05
9.43627e-09
2.74316e-08
9.87551e-05
-9.92979e-09
-2.60147e-08
9.87906e-05
-9.87546e-05
-1.34191e-09
7.94859e-08
0.000260116
-0.000259977
-2.19801e-07
2.28823e-09
0.00113808
-0.00113809
1.20566e-08
2.35575e-09
1.05473e-06
-8.70678e-07
-1.0506e-06
8.68786e-07
-0.00025271
-3.42075e-08
-5.71255e-08
1.39409e-07
2.06294e-08
0.000252641
7.13865e-09
1.29405e-06
0.0011363
1.0678e-10
-9.75489e-07
3.07484e-07
-3.18457e-07
9.72676e-07
-1.28618e-06
3.12894e-07
-3.15448e-07
-0.000260114
1.30695e-09
-7.98433e-08
0.000259975
2.18306e-07
-1.1425e-09
-1.29102e-09
0.00113808
3.17861e-09
-1.05145e-06
8.68434e-07
-8.68233e-07
1.05447e-06
3.61709e-08
5.16539e-08
0.000252707
-2.45135e-08
-0.00025264
-1.30235e-07
-0.000284216
3.5487e-08
-2.72301e-08
5.79444e-08
-1.67649e-08
0.000284166
-0.000284153
3.39706e-08
-2.82818e-08
5.81791e-08
-1.66561e-08
0.000284106
-1.32675e-06
-1.2898e-06
0.000276069
-0.000274007
2.76228e-07
2.7788e-07
-3.51753e-08
2.60459e-08
0.000284212
1.743e-08
-0.000284163
-5.79794e-08
-3.69476e-08
2.45654e-08
0.000284156
2.00426e-08
-0.000284108
-5.56314e-08
-2.48205e-08
9.88219e-05
-9.87861e-05
-2.5128e-08
9.88108e-05
-9.87747e-05
0.00027613
-1.33682e-06
-1.29741e-06
-0.00027405
2.73261e-07
2.81245e-07
0.000284273
-3.54491e-08
1.95954e-08
-0.000284224
-5.7938e-08
0.000284199
-3.30372e-08
1.69404e-08
-0.000284151
-5.77082e-08
-2.57905e-08
-1.08824e-08
9.88241e-05
-9.87874e-05
2.8326e-08
7.77327e-09
9.87858e-05
-2.59577e-08
-1.03528e-08
9.88115e-05
-9.87752e-05
2.78453e-08
8.30319e-09
9.87747e-05
1.33385e-06
1.29375e-06
0.000274048
-2.68638e-07
-2.76691e-07
-3.53845e-08
0.000284272
-5.77091e-08
-0.000284225
2.05245e-08
-3.24566e-08
0.0002842
-5.79151e-08
-0.000284151
1.60953e-08
3.39139e-08
-1.92026e-08
6.04673e-08
0.000284226
3.19281e-08
-1.69558e-08
6.03551e-08
0.000284152
0.0011359
-8.89081e-10
-1.33423e-06
3.13269e-07
-3.20211e-07
-9.76781e-07
3.0923e-07
-3.16666e-07
9.77532e-07
1.78441e-08
0.000252731
-2.39511e-08
-0.00025266
-1.34986e-07
8.03136e-10
7.97151e-08
-3.73066e-08
-1.30091e-09
0.000236483
-0.000236525
-5.24376e-08
-0.000196784
3.34982e-09
5.67341e-08
-1.07977e-08
0.000196784
7.40299e-10
-8.03151e-08
-0.000236483
3.69775e-08
1.53493e-09
8.0052e-08
-3.74174e-08
-1.30459e-10
0.000236413
-0.000236455
-5.46763e-08
1.09281e-08
0.000196769
-0.000196729
3.20111e-09
5.90348e-08
-8.02178e-09
-1.0871e-08
0.000196728
-0.000196769
-8.00211e-08
0.000236454
-0.000236413
3.6598e-08
2.92059e-09
3.45381e-10
-3.62444e-10
2.18013e-07
0.000260104
-0.000260242
6.14944e-09
1.48689e-09
1.33733e-06
-3.19759e-07
3.16056e-07
9.76589e-07
-3.14272e-07
3.05359e-07
-9.77138e-07
0.000252729
-1.33668e-07
-0.000252659
-2.41735e-08
-0.00113854
1.65058e-09
0.00113855
2.07224e-09
-1.05438e-06
8.72223e-07
-8.70348e-07
1.05831e-06
2.03656e-08
1.40343e-07
0.00025266
1.48556e-09
-3.453e-09
1.05866e-06
-8.69985e-07
-1.05376e-06
8.72612e-07
-0.00113854
-9.04379e-10
0.000260246
-0.000260106
6.25109e-10
-2.20402e-07
-1.40961e-09
2.18477e-07
0.000260007
-0.000260144
2.34593e-08
-1.33522e-06
-1.85239e-07
9.81473e-07
-3.11981e-07
-9.76869e-07
3.07703e-07
1.33927e-06
-3.23503e-07
3.17902e-07
-0.00113595
3.54644e-08
0.000252606
-1.33516e-07
-0.000252537
-2.6546e-08
-0.00113849
0.00113846
2.36866e-08
-1.06188e-06
8.7157e-07
-8.73435e-07
1.06018e-06
-3.40951e-08
2.2368e-08
1.41077e-07
0.000252538
-0.000252608
-3.14025e-08
1.06589e-06
-8.70346e-07
-1.05611e-06
8.74684e-07
-0.00113845
0.000260143
-0.000260007
2.82211e-09
-2.19655e-07
-2.76291e-08
-9.87676e-05
3.03484e-08
9.87669e-05
-9.88053e-05
0.000274047
-2.60175e-07
-0.000276112
1.26764e-06
-2.78062e-07
0.000284133
-5.49696e-08
-0.000284088
1.80718e-08
2.61555e-08
-3.57778e-08
0.000284266
-5.61461e-08
-0.000284219
1.79552e-08
5.81684e-08
0.000284089
-0.000284134
-1.67997e-08
-1.08245e-08
9.88187e-05
-9.87817e-05
0.00113689
5.66723e-10
-1.29388e-06
3.11256e-07
-3.16894e-07
3.09052e-07
-3.1726e-07
0.000252693
-0.000252619
-1.32067e-07
8.013e-08
1.65359e-10
-8.19648e-10
-3.88413e-08
0.000236443
-5.29929e-08
-0.000196766
4.50115e-09
5.68334e-08
-9.78246e-09
0.000196766
-7.95882e-08
8.90745e-11
-0.000236445
2.04782e-09
3.60402e-08
1.52136e-09
-1.19142e-09
2.17943e-07
0.000260027
9.19946e-09
1.85669e-09
1.29763e-06
-3.16691e-07
3.10873e-07
9.79648e-07
-3.17293e-07
3.08291e-07
-9.79617e-07
0.000252691
-1.32053e-07
-0.000252618
-2.61627e-08
-0.00113838
-3.39758e-09
0.00113838
3.29454e-09
-1.05659e-06
8.72151e-07
-8.69753e-07
1.05996e-06
2.33725e-08
1.38226e-07
0.00025262
4.18361e-09
9.43149e-09
1.05995e-06
-8.70998e-07
-1.05664e-06
8.72086e-07
-1.4409e-09
0.00026017
-0.00026003
1.70583e-09
-2.2007e-07
8.00798e-08
-3.8874e-08
-1.06962e-09
0.000236379
-5.21488e-08
9.85251e-09
0.00019675
-0.000196711
3.91824e-09
5.72614e-08
-9.10338e-09
-9.60239e-09
0.000196711
-7.96789e-08
0.000236425
-0.000236383
3.53852e-08
2.18756e-09
2.18116e-07
-2.32937e-09
0.000259969
7.21887e-09
-1.32511e-06
6.9486e-09
9.78804e-07
-3.18202e-07
-9.80529e-07
3.08294e-07
1.33073e-06
-3.21471e-07
3.18414e-07
-0.00113832
0.00113831
7.67871e-09
-1.05676e-06
8.72306e-07
-8.69731e-07
1.06018e-06
3.33955e-08
0.000252591
-1.28048e-07
-0.000252526
-2.2392e-08
1.51058e-08
1.05966e-06
-8.7125e-07
-1.05694e-06
8.71979e-07
-3.63391e-08
2.14134e-08
1.39897e-07
0.000252527
0.000260109
-0.000259972
-2.20097e-07
2.05589e-09
5.33566e-08
-1.31657e-07
-0.000252648
-2.45885e-08
-3.99428e-08
6.67471e-08
-1.05909e-06
8.6922e-07
1.05461e-06
-8.72674e-07
-0.00113846
8.06994e-08
-1.72579e-09
-0.000259976
2.25225e-09
-2.2025e-07
0.000196819
-0.000196779
3.29873e-09
-4.3125e-10
0.000236455
-0.000236416
2.5601e-09
3.88865e-08
0.00113818
2.15946e-08
-1.05286e-06
8.66639e-07
-8.69677e-07
1.05217e-06
-0.00113823
5.3384e-08
3.47423e-08
0.000252658
-1.29501e-07
-0.000252593
-2.35744e-08
8.11983e-08
0.000260085
-0.000259946
-2.23309e-07
1.86858e-09
1.05605e-08
0.000196737
-0.000196698
4.05398e-09
0.000236417
-0.000236375
3.69185e-08
1.94919e-09
-2.615e-08
-9.8756e-05
2.73385e-08
9.87556e-05
1.29327e-06
0.000274027
-2.71216e-07
-2.76157e-07
0.0002841
-5.24306e-08
-0.000284057
1.68139e-08
2.5306e-08
-3.52334e-08
0.000284257
-5.46702e-08
-0.000284211
1.80784e-08
-1.80592e-08
5.72383e-08
0.000284063
-2.82083e-08
3.33067e-08
-1.80814e-08
5.89695e-08
0.000284216
-1.16567e-08
9.88201e-05
-9.87831e-05
8.40297e-09
9.8782e-05
2.23594e-09
-7.92738e-08
2.17704e-07
-1.56402e-09
0.000259975
1.42873e-08
4.20066e-10
1.29592e-06
-3.18879e-07
3.12095e-07
9.73551e-07
-3.17612e-07
-9.74769e-07
3.08213e-07
-0.00113809
2.11846e-08
6.59109e-10
-1.05073e-06
8.69342e-07
1.05521e-06
-8.64305e-07
5.27936e-08
-1.3099e-07
-0.000252643
-2.36591e-08
5.82055e-08
6.57797e-09
1.05492e-06
-8.67927e-07
-1.05115e-06
8.66455e-07
-5.68769e-08
2.13247e-08
1.38986e-07
0.000252642
-3.34764e-10
8.01259e-08
-0.000259975
-2.19701e-07
1.26739e-09
-7.90033e-08
2.17568e-07
-3.79254e-10
0.000259949
-1.93611e-07
-1.36614e-06
2.14658e-08
9.74082e-07
-3.16802e-07
-9.76723e-07
3.09209e-07
1.26018e-06
-3.32454e-07
3.0955e-07
-0.00113802
0.001138
6.05386e-09
-1.05331e-06
8.69298e-07
-8.64145e-07
1.05708e-06
5.28706e-08
3.63253e-08
0.00025263
-1.3234e-07
-0.000252562
-2.47578e-08
4.53378e-08
1.05464e-06
-8.6787e-07
-1.05361e-06
8.66486e-07
-5.69995e-08
-3.38086e-08
1.97652e-08
1.37883e-07
0.000252562
7.99258e-08
0.000260086
-0.00025995
-2.19939e-07
3.94329e-09
6.61348e-10
-1.32644e-09
-3.96309e-08
0.000236411
0.000196815
-0.000196777
2.48959e-09
-1.03143e-08
0.000196776
-1.56821e-10
0.000236452
-0.000236412
1.85068e-09
3.87994e-08
-3.97144e-10
-4.14081e-08
0.000236371
1.07399e-08
0.000196731
-0.000196693
3.6199e-09
-9.03937e-09
-9.60772e-09
0.000196693
0.000236408
-0.000236372
2.36666e-09
4.0734e-08
0.000274021
-2.76437e-07
1.32255e-06
-2.82953e-07
2.6628e-08
-5.60669e-08
-0.000284169
1.72252e-08
2.56847e-08
-5.58411e-08
-0.000284105
1.86143e-08
-2.84051e-08
5.77146e-08
0.000284104
-1.68899e-08
9.87592e-05
-9.8722e-05
9.87606e-05
-9.87242e-05
9.87246e-05
2.78327e-08
9.87883e-05
-2.60764e-08
9.88266e-05
-9.87897e-05
2.75757e-08
9.87752e-05
-2.66962e-08
9.88124e-05
-9.8776e-05
3.43634e-08
6.05743e-08
-1.87475e-08
0.000284223
3.26928e-08
6.04512e-08
-1.81071e-08
0.000284152
0.000276128
-1.33737e-06
-1.2946e-06
-0.000274049
2.72238e-07
2.81003e-07
0.000284268
-3.5406e-08
2.01282e-08
-0.000284221
-5.74035e-08
0.000284199
-3.20162e-08
1.63079e-08
-0.000284152
-5.84173e-08
2.78227e-08
8.3996e-09
9.87904e-05
2.70569e-08
9.23914e-09
9.87761e-05
1.33353e-06
1.29129e-06
0.000274048
-2.68664e-07
-2.76144e-07
3.45493e-08
-1.93533e-08
6.097e-08
0.00028422
3.30972e-08
-1.77235e-08
6.02278e-08
0.000284151
-8.03284e-08
0.000236453
-0.000236411
3.65841e-08
1.72189e-09
5.94272e-08
-1.06439e-08
0.000196729
8.01152e-08
0.000236412
-3.76521e-08
-1.7564e-10
-5.47873e-08
0.000196769
3.9473e-09
-0.000196729
-9.46774e-10
0.000260248
-0.000260108
8.51636e-10
-2.20604e-07
1.41238e-07
2.05017e-08
0.000252659
0.00113854
7.41671e-09
2.74175e-09
1.05868e-06
-8.70678e-07
-1.05413e-06
8.72367e-07
1.62338e-08
0.00113589
8.93089e-10
-1.33343e-06
3.1391e-07
-3.1924e-07
-9.77426e-07
3.0543e-07
-3.14799e-07
9.76664e-07
8.91659e-10
0.000260108
-2.26102e-10
2.18208e-07
0.000252727
-2.38326e-08
-0.000252658
-1.33884e-07
-1.51856e-09
0.00113855
2.92803e-09
-1.05449e-06
8.7208e-07
-8.7066e-07
1.05812e-06
0.000260143
-0.000260006
1.97139e-09
-2.20139e-07
-3.41764e-08
1.41504e-07
2.02499e-08
0.000252538
0.00113847
8.13574e-09
1.06021e-06
-8.71059e-07
-1.0563e-06
8.717e-07
3.73153e-09
0.00113594
1.33576e-06
1.1526e-09
-9.83227e-07
3.07687e-07
9.81103e-07
-3.18342e-07
-1.32711e-06
3.18134e-07
-3.18525e-07
0.000260007
-1.43962e-09
2.18529e-07
0.000252604
3.50058e-08
-2.36618e-08
-0.000252537
-1.32963e-07
0.00113846
3.55197e-09
-1.05958e-06
8.7148e-07
-8.70971e-07
1.063e-06
1.89767e-11
8.0357e-08
-3.77275e-08
-3.45223e-10
0.000236481
5.67239e-08
-9.82081e-09
0.000196784
7.9737e-08
-3.76543e-08
-1.36899e-09
0.000236412
5.94273e-08
-8.11644e-09
-1.05546e-08
0.000196728
1.32033e-09
-6.65458e-11
2.18389e-07
0.000260109
9.28768e-09
1.65787e-09
1.33777e-06
-3.18762e-07
3.14122e-07
9.76589e-07
-3.14515e-07
3.05471e-07
-9.77462e-07
0.00113589
2.04719e-08
1.41027e-07
0.000252657
5.23885e-09
2.62132e-09
1.05833e-06
-8.70996e-07
-1.05449e-06
8.72174e-07
0.00113855
-1.99986e-09
2.18186e-07
0.000260008
7.79253e-09
-1.33016e-06
8.46481e-10
9.81162e-07
-3.17849e-07
-9.83064e-07
3.07763e-07
1.33581e-06
-3.20611e-07
3.1812e-07
0.00113594
-3.52042e-08
2.04777e-08
1.42412e-07
0.000252536
2.7894e-09
1.06329e-06
-8.70867e-07
-1.05907e-06
8.72168e-07
0.00113847
5.87328e-08
-1.69393e-08
0.000284087
-2.75652e-08
5.75772e-08
-1.67184e-08
0.000284219
0.000276116
-0.000274036
2.76458e-07
2.78373e-07
0.000284129
1.80144e-08
-0.000284086
-5.45656e-08
2.6003e-08
0.000284271
1.79333e-08
-0.00028422
-5.84607e-08
8.28468e-09
9.87828e-05
9.88214e-05
-1.08471e-08
-9.87846e-05
2.98811e-08
9.87694e-05
1.29259e-06
0.000274036
-2.70077e-07
-2.73297e-07
-1.70588e-08
5.87652e-08
0.000284082
-2.77478e-08
3.36646e-08
-1.6029e-08
6.00143e-08
0.000284221
8.25929e-09
9.87854e-05
-5.24126e-10
0.000260172
-0.000260032
8.80357e-10
-2.20096e-07
1.38073e-07
2.34685e-08
0.000252619
0.00113837
5.18257e-09
8.16e-09
1.0603e-06
-8.70546e-07
-1.05646e-06
8.72132e-07
1.22046e-08
0.00113688
-5.72054e-10
-1.29088e-06
3.11235e-07
-3.16803e-07
-9.79628e-07
3.08968e-07
-3.17243e-07
9.79497e-07
2.34581e-09
0.000260032
-1.39866e-09
2.17997e-07
0.000252691
-2.60058e-08
-0.000252618
-1.3208e-07
-1.4219e-09
0.00113838
7.69014e-09
-1.05679e-06
8.71685e-07
-8.707e-07
1.05991e-06
-8.03216e-08
0.000236428
-0.000236386
3.59131e-08
1.71821e-09
5.76848e-08
-9.77341e-09
0.000196711
7.9856e-08
0.000236385
-3.84388e-08
-9.24309e-10
-5.20926e-08
0.000196749
4.0995e-09
-0.000196711
0.000260114
-0.000259976
-2.20434e-07
2.13199e-09
0.00113831
2.95455e-09
1.06097e-06
-8.70518e-07
-1.05619e-06
8.72366e-07
-3.67796e-08
1.37747e-07
2.20988e-08
0.000252525
7.94504e-09
0.00113585
1.33017e-06
-2.53989e-09
-9.80344e-07
3.05822e-07
9.79047e-07
-3.15619e-07
-1.32483e-06
3.18068e-07
-3.21878e-07
0.000259974
2.17907e-07
-1.46616e-09
0.00113831
7.21681e-09
-1.05623e-06
8.71673e-07
-8.70832e-07
1.06063e-06
0.000252589
3.37877e-08
-2.24026e-08
-0.000252525
-1.2829e-07
8.07393e-08
5.30342e-10
-1.31474e-09
-3.81988e-08
0.000236445
5.62185e-08
-8.57389e-09
0.000196766
3.30169e-09
-1.97183e-09
2.21117e-07
0.00026003
1.07565e-08
-3.20915e-10
1.29482e-06
-3.16592e-07
3.11238e-07
9.79465e-07
-3.17095e-07
3.0899e-07
-9.7969e-07
0.00113688
2.34953e-08
1.38274e-07
0.000252618
6.28201e-09
2.13564e-09
1.06061e-06
-8.70781e-07
-1.05648e-06
8.72124e-07
0.00113837
8.07944e-08
-3.88735e-08
-1.19785e-09
0.000236388
5.76838e-08
-8.82094e-09
-1.01391e-08
0.00019671
2.20881e-07
-5.15702e-10
0.000259978
6.88797e-09
-1.32519e-06
-1.23233e-09
9.7938e-07
-3.15222e-07
-9.80007e-07
3.06177e-07
1.33039e-06
-3.2173e-07
3.18118e-07
0.00113585
1.75818e-09
1.06139e-06
-8.70558e-07
-1.05571e-06
8.72454e-07
0.00113831
-3.61658e-08
2.1782e-08
1.37179e-07
0.000252524
-2.76609e-10
0.000236455
-0.000236415
2.4093e-09
3.86413e-08
-1.0371e-08
0.000196781
-4.29577e-10
0.000236416
-1.40666e-10
-3.93244e-08
0.000196821
3.28134e-09
-0.000196782
8.07566e-08
0.000260083
-0.000259946
-2.20346e-07
1.23636e-09
0.00113816
7.92097e-09
1.05183e-06
-8.64971e-07
8.66245e-07
-1.04779e-06
-5.64526e-08
1.38456e-07
2.11776e-08
0.00025259
1.44091e-08
0.00113547
5.35692e-09
-1.32215e-06
3.14371e-07
-3.18988e-07
-9.72115e-07
3.02689e-07
-3.12412e-07
9.70379e-07
-7.87963e-08
0.000259947
2.2024e-07
-2.04182e-09
0.00113816
8.55746e-09
-1.05162e-06
8.68505e-07
-8.68249e-07
1.05404e-06
5.28836e-08
0.000252656
-2.36689e-08
-0.000252586
-1.3384e-07
0.000236418
-0.000236376
3.63535e-08
1.752e-09
-8.66585e-09
-9.55278e-09
0.000196698
0.000236376
-3.73235e-08
-1.09811e-09
0.000196737
1.04926e-08
3.94805e-09
-0.000196699
-7.9557e-08
1.75362e-09
-9.0832e-10
2.17908e-07
0.000259973
2.10484e-09
1.03936e-09
1.29885e-06
-3.15162e-07
3.12379e-07
9.7301e-07
-3.17154e-07
-9.74637e-07
3.08226e-07
0.00113642
-5.67968e-08
1.95447e-08
1.40646e-07
0.000252645
1.60164e-09
4.1399e-09
1.05407e-06
-8.65328e-07
-1.0484e-06
8.68826e-07
0.00113823
-2.09132e-10
-1.46049e-10
-4.01146e-08
0.000236416
-1.05576e-08
0.000196783
-7.94388e-08
2.17983e-07
-2.03528e-09
0.000259948
8.9849e-09
-1.32251e-06
-4.5652e-09
9.70554e-07
-3.12223e-07
-9.72137e-07
3.02739e-07
1.32683e-06
-3.18838e-07
3.14365e-07
0.00113548
-3.81234e-10
1.0544e-06
-8.68258e-07
-1.05123e-06
8.69129e-07
0.00113817
-5.71358e-08
-3.51683e-08
2.10065e-08
1.41513e-07
0.000252585
-3.80853e-08
-1.24654e-09
0.000236378
-8.30923e-09
-1.04399e-08
0.000196699
5.67725e-08
-1.81394e-08
0.000284052
-2.87138e-08
5.92693e-08
-1.89708e-08
0.000284211
0.000276098
-0.000274032
2.77747e-07
2.80386e-07
0.000284091
1.71795e-08
-0.000284048
-5.31699e-08
2.42451e-08
0.000284253
2.21317e-08
-0.000284209
-5.41259e-08
7.17552e-09
9.87842e-05
9.8822e-05
-1.22088e-08
-9.87855e-05
2.79201e-08
9.87538e-05
1.28633e-06
0.000274033
-2.69797e-07
-2.76717e-07
-1.80684e-08
5.65914e-08
0.000284045
-2.99108e-08
3.34718e-08
-1.80011e-08
5.96038e-08
0.000284207
7.04157e-09
9.8785e-05
7.9451e-08
0.000260087
-0.000259951
-2.19686e-07
2.714e-09
0.001138
2.57265e-09
1.05711e-06
-8.70579e-07
8.68887e-07
-1.05342e-06
-5.70666e-08
1.38204e-07
2.02099e-08
0.000252563
1.00368e-08
0.00113646
6.58564e-10
-1.28485e-06
3.11299e-07
-3.16624e-07
-9.77583e-07
3.08077e-07
-3.18071e-07
9.7573e-07
-7.97457e-08
0.00025995
2.17851e-07
-1.50986e-09
0.00113801
3.41501e-09
-1.05432e-06
8.68175e-07
-8.68241e-07
1.05646e-06
5.22224e-08
0.00025263
-2.48524e-08
-0.000252562
-1.31704e-07
-3.33956e-10
0.000236452
-0.000236412
2.40955e-09
3.76422e-08
-1.16006e-08
0.000196777
2.81745e-10
0.000236413
-1.39379e-09
-3.96923e-08
0.000196815
1.109e-09
-0.000196777
0.000236409
-0.000236371
2.10051e-09
3.97829e-08
-8.37232e-09
-1.01278e-08
0.000196693
0.000236372
-9.90052e-10
-4.2064e-08
0.00019673
1.1135e-08
3.06789e-09
-0.000196692
3.83588e-10
-8.06964e-08
2.18525e-07
-5.78371e-10
0.000259979
5.69854e-09
6.61068e-10
1.29431e-06
-3.14865e-07
3.13193e-07
9.72701e-07
-3.18412e-07
-9.75735e-07
3.07612e-07
0.0011363
3.07735e-09
3.13893e-09
1.05478e-06
-8.6826e-07
-1.05135e-06
8.68817e-07
0.00113808
-5.85359e-08
1.99055e-08
1.40081e-07
0.000252639
-8.03568e-08
2.1844e-07
-2.88307e-09
0.000259952
1.02528e-08
-1.28517e-06
2.01448e-09
9.75789e-07
-3.17954e-07
-9.77755e-07
3.08213e-07
1.28987e-06
-3.1653e-07
3.11318e-07
0.00113646
3.42106e-09
1.05763e-06
-8.68265e-07
-1.05387e-06
8.68724e-07
0.00113801
-5.78475e-08
-3.3267e-08
1.99614e-08
1.38677e-07
0.000252562
1.05035e-10
-7.69559e-10
-4.12045e-08
0.000236413
-1.28733e-08
0.000196777
-1.35862e-09
-4.30194e-08
0.000236373
-7.9413e-09
-1.10029e-08
0.000196691
9.87233e-05
9.87606e-05
-9.87241e-05
9.8724e-05
9.87591e-05
-9.87234e-05
0.000274006
-2.7013e-07
-2.74476e-07
-2.79397e-08
-1.70384e-08
6.07409e-08
0.000284162
-2.93443e-08
-1.53081e-08
5.84106e-08
0.000284108
9.87244e-05
9.87218e-05
3.67609e-08
7.98323e-05
1.31593e-10
-0.000268437
3.26641e-08
0.000268485
-7.18568e-08
-5.20272e-09
-1.0795e-08
-7.76594e-09
5.66766e-08
7.2201e-08
1.02718e-09
7.98675e-05
-2.58429e-09
-7.97401e-09
5.68056e-08
-7.15183e-10
3.58473e-08
0.000144818
-0.000144853
-1.21541e-10
-3.72478e-08
-8.10083e-10
-0.000236523
-9.7016e-11
7.99098e-08
-0.000172996
-2.43654e-11
-9.41458e-10
0.000173034
-0.000229321
3.58912e-08
4.79898e-09
0.000229365
-8.27861e-08
-0.000173034
-5.69405e-11
-0.000229365
-8.47859e-10
8.03786e-08
2.57162e-09
0.000144852
-7.98295e-05
-3.33333e-08
-2.64942e-09
7.98655e-05
-3.65637e-08
0.000268436
1.05467e-09
-0.000268484
7.27519e-08
3.35671e-09
0.000196823
1.08164e-08
-5.26881e-08
2.36852e-10
-7.98663e-05
-5.40776e-09
0.000268484
-7.22495e-08
-0.000144821
7.91022e-10
-3.59536e-08
3.67553e-08
1.82814e-09
4.62276e-10
-8.05841e-08
1.53441e-11
0.000172997
-0.000173035
6.6109e-10
-3.63425e-08
0.000229321
-0.000229366
8.10975e-08
-0.000144857
2.49641e-10
-8.30569e-08
3.60782e-08
7.98293e-05
-0.000268437
3.38591e-08
0.000268484
-7.23014e-08
-1.04234e-08
-8.09243e-09
5.65286e-08
7.18402e-08
7.98657e-05
9.88064e-05
-1.09361e-08
-2.79808e-08
7.83654e-09
2.99894e-08
3.55808e-08
-1.1327e-09
0.000144848
-0.000144882
-6.57514e-10
-1.24156e-09
-3.74239e-08
-0.000236487
-4.88462e-11
8.04142e-08
-0.000229353
3.62271e-08
3.96425e-09
0.000229397
-8.24266e-08
-0.000173087
4.47772e-10
-1.66491e-09
0.000173125
-0.000229397
-1.78542e-09
8.05951e-08
-0.000173125
-1.36509e-09
2.4064e-09
0.000144882
-7.9833e-05
-3.41889e-08
-2.48648e-09
7.98696e-05
-3.58498e-08
0.000268446
1.76055e-09
-0.000268493
7.23779e-08
5.19321e-09
0.000196804
9.90705e-09
-5.35425e-08
5.22801e-10
-7.98693e-05
-4.57335e-09
0.000268494
-7.25639e-08
-0.000144848
-3.57559e-08
-5.68624e-10
1.95966e-09
3.61546e-08
1.73545e-10
-8.00976e-08
-3.64739e-08
0.000229353
-0.000229397
8.09831e-08
9.31543e-10
0.000173088
-0.000173126
-7.59272e-10
-0.000144883
-8.24869e-08
-1.24624e-09
3.51051e-08
7.98339e-05
-0.000268447
3.47344e-08
0.000268494
-7.25159e-08
-8.66793e-09
-8.94802e-09
5.55724e-08
7.1408e-08
7.9871e-05
9.87911e-05
-9.58234e-09
-2.63683e-08
9.05773e-09
2.7359e-08
-1.51565e-08
-1.45269e-08
0.000218106
-0.000218134
2.86305e-08
2.90936e-08
-8.1582e-05
-1.36091e-08
-2.06994e-08
8.16163e-05
-8.158e-05
-1.43829e-08
-2.01995e-08
8.16146e-05
-8.16155e-05
1.84223e-08
-8.16132e-05
1.86941e-08
-2.8854e-08
-2.79168e-08
0.000218135
-0.000227946
-3.33235e-08
4.23557e-08
2.84441e-08
0.000227987
-7.9082e-08
-3.64824e-08
0.000258865
-0.000258942
1.16194e-07
5.50479e-08
4.20826e-08
0.000186082
-1.90739e-08
-0.000186122
-5.59516e-08
1.70192e-08
0.000284214
2.62005e-08
-3.48771e-08
-2.85404e-08
-0.000227988
7.6656e-08
0.00025894
-1.14376e-07
-4.988e-08
1.98764e-08
0.000186122
-0.00022786
-3.33904e-08
4.04717e-08
2.82281e-08
0.000227906
-8.11512e-08
-3.64087e-08
0.000258723
-0.000258803
1.1946e-07
5.52115e-08
3.98245e-08
0.000186068
-1.91621e-08
-0.000186105
-5.56227e-08
1.85874e-08
0.000284154
2.49923e-08
-3.64833e-08
-2.87175e-08
-0.000227907
7.91378e-08
0.000258802
-1.18387e-07
-4.96799e-08
1.97097e-08
0.000186107
-0.000218106
1.4128e-08
1.47193e-08
1.47756e-08
8.15815e-05
-8.16154e-05
1.42714e-08
8.15788e-05
-8.16122e-05
-0.000218134
3.59711e-08
-4.24328e-08
0.000227944
7.88837e-08
-0.000186081
-4.22137e-08
0.00018612
6.05564e-08
-1.63268e-08
-2.75066e-08
3.45681e-08
-0.000258865
3.42535e-08
0.00025894
-1.16687e-07
-5.01254e-08
1.16358e-07
5.45368e-08
0.000227989
-8.20073e-08
3.61285e-08
-4.03157e-08
0.00022786
7.97948e-08
-0.00018607
-3.98232e-08
0.00018611
5.82305e-08
-1.55472e-08
-2.87829e-08
3.30183e-08
-0.000258721
3.36518e-08
0.000258799
-1.17637e-07
-4.95035e-08
1.1998e-07
5.49581e-08
0.000227906
-8.02361e-08
2.83178e-08
2.80382e-08
-1.48895e-08
-1.516e-08
0.00021816
3.07894e-08
2.83134e-08
-8.16106e-05
-1.41949e-08
-1.87553e-08
8.16435e-05
-8.15965e-05
-1.39683e-08
-1.89322e-08
8.16294e-05
1.93973e-08
1.93171e-08
-3.0399e-08
-2.87604e-08
0.000218191
-4.27672e-08
0.000227966
3.84417e-08
7.66347e-08
-0.000186146
-4.16708e-08
0.000186188
-1.86768e-08
6.03032e-08
3.4116e-08
3.60185e-08
-0.000258868
0.000258937
-1.16396e-07
-4.6566e-08
0.000228009
-7.91074e-08
1.16518e-07
5.2924e-08
-4.29733e-08
0.000227894
3.55401e-08
8.18822e-08
-0.000186091
-4.1438e-08
0.000186131
-1.59499e-08
6.06191e-08
3.17006e-08
3.40563e-08
-0.000258752
0.000258826
-1.18868e-07
-4.72443e-08
0.000227942
-8.36198e-08
1.19357e-07
5.23012e-08
-9.88228e-05
2.74068e-08
7.9444e-09
-2.5891e-08
-1.10134e-08
-9.88112e-05
2.72622e-08
8.78953e-09
-2.62965e-08
-1.02797e-08
-0.000218161
1.45411e-08
1.46417e-08
-3.12506e-08
-2.89739e-08
0.000218192
1.44106e-08
8.16096e-05
1.94713e-08
1.45472e-08
8.15953e-05
1.95533e-08
3.04548e-08
2.82881e-08
-1.92518e-08
8.16434e-05
-1.90281e-08
8.1629e-05
-4.2969e-08
3.8283e-08
0.000227965
-0.000228007
-3.02786e-08
7.7666e-08
-0.000258866
3.62141e-08
0.000258933
-1.13227e-07
-4.70561e-08
-1.80417e-08
6.02644e-08
-0.000284274
3.4114e-08
-0.000186147
-4.16153e-08
1.93346e-08
0.00018619
-0.000186189
-1.91213e-08
-0.000258937
1.14441e-07
5.48306e-08
3.08021e-08
0.000228006
-7.8008e-08
-4.25982e-08
3.59315e-08
0.000227894
-0.00022794
-2.85789e-08
8.14257e-08
-0.000258748
3.37789e-08
0.000258822
-1.18523e-07
-4.68861e-08
-1.71363e-08
6.03712e-08
-0.0002842
3.24929e-08
-0.000186091
-4.16785e-08
1.891e-08
0.000186129
-0.000186131
-1.94739e-08
-0.000258824
1.19556e-07
5.25688e-08
2.84561e-08
0.000227942
-8.3751e-08
-0.000227966
4.22912e-08
-3.589e-08
-7.8723e-08
4.23672e-08
0.000186146
-3.90169e-08
0.000258869
1.14192e-07
5.29055e-08
1.98919e-08
-5.79092e-08
-3.56124e-08
7.6419e-08
-1.12829e-07
-4.89829e-08
-0.000227894
4.21869e-08
-3.33292e-08
-8.36933e-08
4.2189e-08
0.000186091
-3.63151e-08
0.000258751
1.19107e-07
5.2381e-08
1.63611e-08
-5.80882e-08
-3.26164e-08
8.13149e-08
-1.17894e-07
-4.63749e-08
-1.4993e-08
-1.4898e-08
0.000218163
-8.16093e-05
-1.40795e-08
8.16427e-05
-8.15946e-05
-1.43682e-08
8.16279e-05
0.000218194
-0.000144826
6.66849e-10
-3.56137e-08
2.20936e-09
0.000144858
2.0619e-10
0.000173
1.41161e-09
-0.000173039
-3.60426e-08
0.000229326
-8.0982e-10
8.06274e-08
-0.000229371
3.66517e-08
1.40433e-09
0.000236526
7.10211e-10
-8.10094e-08
-3.00011e-10
-0.000144861
0.000173037
1.15634e-09
4.72334e-09
0.000229369
-8.25723e-08
7.983e-05
3.59038e-08
-7.98665e-05
6.0215e-10
-1.04097e-08
-0.000196823
5.65871e-08
3.34892e-08
-0.000268437
-5.3042e-09
-7.16753e-08
-2.86642e-09
-0.000268485
1.16725e-09
7.22003e-08
-7.98306e-05
-3.36507e-08
-3.66294e-08
0.000268438
7.20818e-08
3.52325e-09
-5.31218e-08
-7.24316e-08
0.000144824
-4.27559e-10
3.56392e-08
-3.6979e-08
-1.36212e-09
7.41068e-10
7.99645e-08
-4.78667e-10
-0.000172998
6.42182e-10
3.63301e-08
-0.000229324
-8.25099e-08
8.75094e-10
8.10278e-08
-0.0001449
2.73843e-10
-3.50176e-08
3.28773e-09
0.000144932
1.24524e-09
0.000173056
-0.000173093
-3.64588e-08
0.00022923
-2.77344e-09
7.76774e-08
-0.000229269
3.62793e-08
2.63437e-09
0.000236455
-8.0076e-08
3.62635e-10
-0.000144936
0.000173093
7.22202e-09
0.000229271
-8.00815e-08
3.63311e-08
7.98422e-05
-7.98785e-05
-1.16605e-10
-1.09048e-08
-0.000196769
-7.96247e-09
5.91482e-08
-0.000268338
3.32072e-08
-7.60409e-09
0.000268385
-6.8855e-08
-0.000268386
2.97974e-09
7.00707e-08
-3.2687e-09
7.98787e-05
-7.98418e-05
-3.33438e-08
-3.65468e-08
0.00026834
7.00895e-08
-0.000268387
3.2801e-09
1.10107e-08
-5.49936e-08
-7.9878e-05
-6.90727e-08
-5.94744e-10
3.62809e-08
0.000144896
-3.71267e-08
-1.18186e-10
8.02827e-08
-0.000173057
-1.18861e-10
0.000173094
-0.000229232
3.53867e-08
0.000229272
-8.0128e-08
7.77204e-08
0.000144928
-9.88059e-05
3.03665e-08
-2.80338e-08
3.56276e-08
-4.10859e-08
0.000227865
-3.27885e-08
8.18003e-08
-0.000227908
-0.00025869
3.70536e-08
0.000258762
-1.13661e-07
-5.05202e-08
5.86986e-08
-1.67454e-08
-0.000284134
3.40339e-08
-0.000186065
-3.98297e-08
2.1962e-08
0.000186101
-0.00025877