/*--------------------------------*- C++ -*----------------------------------*\
| =========                 |                                                 |
| \\      /  F ield         | OpenFOAM: The Open Source CFD Toolbox           |
|  \\    /   O peration     | Version:  2312                                  |
|   \\  /    A nd           | Website:  www.openfoam.com                      |
|    \\/     M anipulation  |                                                 |
\*---------------------------------------------------------------------------*/
FoamFile
{
    version     2.0;
    format      ascii;
    arch        "LSB;label=32;scalar=64";
    class       volVectorField;
    location    "100";
    object      U;
}
// * * * * * * * * * * * * * * * * * * * * * * * * * * * * * * * * * * * * * //

dimensions      [0 1 -1 0 0 0 0];

internalField   nonuniform List<vector> 
43168
(
(-9.923e-07 -1.02508e-06 0.108952)
(-1.92134e-06 1.76087e-06 0.107897)
(1.82456e-06 -1.73558e-06 0.107898)
(-5.82075e-05 -5.83947e-05 0.106511)
(-6.23242e-05 -6.23793e-05 0.106637)
(2.52161e-06 1.4882e-06 0.107898)
(-2.00441e-06 1.75807e-06 0.107896)
(6.29123e-05 -6.28037e-05 0.106638)
(1.41236e-06 2.21345e-06 0.107898)
(1.4029e-06 -1.8507e-06 0.107896)
(-1.68581e-06 1.88893e-06 0.107897)
(-1.45679e-06 -1.89758e-06 0.107898)
(-6.315e-05 6.27954e-05 0.106639)
(2.0475e-06 -1.40276e-06 0.107897)
(-2.03509e-06 -1.54195e-06 0.107899)
(6.28113e-05 6.26741e-05 0.106641)
(5.85703e-05 5.84798e-05 0.106507)
(2.34082e-06 1.76258e-06 0.107898)
(-1.88922e-06 2.11133e-06 0.107896)
(-5.80397e-05 5.80707e-05 0.106507)
(1.70028e-06 2.24717e-06 0.107898)
(1.68354e-06 -1.77466e-06 0.107897)
(-1.83861e-06 -1.92236e-06 0.107899)
(5.79262e-05 -5.8414e-05 0.106509)
(-2.08354e-06 -1.93962e-06 0.107899)
(-2.25184e-06 -1.70228e-05 0.0836327)
(-1.7164e-05 -2.29325e-06 0.0836335)
(-1.03074e-06 -1.16193e-06 0.108952)
(1.0999e-06 -1.1805e-06 0.108951)
(-1.21748e-06 1.26531e-06 0.108951)
(1.08572e-06 1.19114e-06 0.108951)
(-1.50907e-07 -2.12609e-05 0.0942872)
(1.88106e-07 1.83645e-05 0.0835375)
(3.85946e-07 2.1627e-05 0.0941875)
(-2.10692e-06 -1.73899e-05 0.0836327)
(-4.46869e-06 9.82345e-06 0.0720755)
(4.95644e-06 -9.31397e-06 0.0721821)
(-2.10003e-05 -3.29637e-08 0.0942777)
(1.80805e-05 5.47226e-07 0.0835379)
(2.14913e-05 1.85919e-07 0.0941782)
(-1.76842e-05 -1.55625e-06 0.0836329)
(1.06203e-06 -1.07704e-06 0.108951)
(-1.27269e-06 1.20522e-06 0.108951)
(1.00057e-06 1.13309e-06 0.108951)
(2.74751e-05 -1.36932e-07 0.102493)
(-2.15968e-05 1.16285e-05 0.0956835)
(-1.55739e-06 -1.97862e-07 0.108582)
(-1.71054e-06 1.97469e-06 0.107897)
(-2.73611e-05 -5.3549e-08 0.102384)
(1.98373e-05 -1.30861e-05 0.0958195)
(-1.53947e-06 -1.29588e-07 0.108582)
(9.66075e-06 -5.01577e-06 0.0720725)
(-9.57372e-06 4.51721e-06 0.0721726)
(-4.64174e-07 2.70723e-05 0.102499)
(-2.28176e-07 -1.39191e-06 0.108582)
(1.18279e-05 -2.19788e-05 0.0956856)
(1.91757e-06 -1.61198e-06 0.107898)
(-7.60684e-08 -2.76778e-05 0.102388)
(-2.8146e-07 -1.40853e-06 0.108582)
(-1.30317e-05 1.91939e-05 0.0958196)
(-9.71109e-06 -1.03573e-05 0.0893966)
(-9.60921e-06 -9.47339e-06 0.0894013)
(6.26564e-05 6.24413e-05 0.106641)
(8.41885e-06 9.57852e-06 0.0895054)
(1.0584e-05 8.51149e-06 0.0895104)
(-5.08764e-06 -9.01679e-06 0.0721758)
(-9.25001e-06 -5.07256e-06 0.0721754)
(-6.23607e-05 -6.2447e-05 0.106637)
(-9.86399e-06 -8.44728e-06 0.0895097)
(-8.27135e-06 -9.74216e-06 0.0895063)
(-5.10529e-06 -9.37028e-06 0.0721772)
(4.30073e-06 1.00258e-05 0.0720738)
(-9.447e-06 -4.88888e-06 0.0721757)
(9.75283e-06 4.60402e-06 0.072074)
(5.85924e-05 5.85647e-05 0.106506)
(-9.889e-06 -8.24883e-06 0.0895093)
(-8.60093e-06 -9.59939e-06 0.0895061)
(9.64443e-06 9.49558e-06 0.0893996)
(9.64261e-06 9.97048e-06 0.0893971)
(2.66306e-06 1.23295e-06 0.107898)
(-1.28086e-05 -1.98846e-05 0.0958237)
(3.14463e-07 2.12513e-05 0.0941875)
(-2.12997e-06 -1.7128e-05 0.0836328)
(1.24184e-07 1.83957e-05 0.0835376)
(1.55869e-07 -2.14368e-05 0.0942871)
(2.00399e-07 2.12507e-05 0.0941767)
(2.27114e-06 -1.71719e-05 0.0836381)
(-1.52501e-07 1.82336e-05 0.0835409)
(4.0185e-07 -2.13052e-05 0.0942753)
(-1.44669e-07 2.75222e-05 0.102428)
(2.52572e-06 1.76653e-06 0.107897)
(-1.28453e-05 -1.95657e-05 0.0958229)
(-3.9712e-08 1.3404e-06 0.108584)
(1.18191e-05 2.15957e-05 0.095688)
(3.83252e-09 1.32222e-06 0.108583)
(-1.76648e-07 -2.75078e-05 0.102539)
(-2.10446e-07 2.77418e-05 0.102401)
(-1.92103e-06 1.99623e-06 0.107895)
(1.29391e-05 -1.94959e-05 0.0958183)
(1.22497e-07 1.47354e-06 0.108582)
(-1.17559e-05 2.17834e-05 0.0956817)
(1.8159e-07 1.492e-06 0.108581)
(1.98858e-07 -2.72864e-05 0.10251)
(4.97545e-06 -9.21243e-06 0.0721816)
(-4.37037e-06 9.79957e-06 0.0720748)
(-5.8132e-05 5.81457e-05 0.106506)
(9.71973e-06 -8.21745e-06 0.089506)
(8.6103e-06 -9.84584e-06 0.0895029)
(-9.83449e-06 9.69915e-06 0.0893954)
(9.50354e-06 -5.00478e-06 0.0721769)
(1.41741e-06 2.45253e-06 0.107898)
(-1.97327e-05 -1.29755e-05 0.0958225)
(2.09647e-05 -6.28548e-08 0.0941763)
(-1.73923e-05 -1.89119e-06 0.0836329)
(1.82046e-05 3.33424e-07 0.0835385)
(-2.10835e-05 -1.18165e-07 0.0942769)
(2.79174e-05 5.23534e-09 0.102401)
(1.73301e-06 2.26509e-06 0.107898)
(-1.98134e-05 -1.26387e-05 0.0958216)
(1.42277e-06 -1.70132e-07 0.108583)
(2.17821e-05 1.19861e-05 0.095688)
(1.53525e-06 -6.53636e-08 0.108583)
(-2.73493e-05 -7.38634e-08 0.102512)
(2.07482e-05 4.59395e-09 0.0941672)
(-1.72216e-05 1.91963e-06 0.0836342)
(1.81603e-05 -5.6696e-07 0.0835397)
(-2.11384e-05 2.37985e-07 0.0942682)
(2.80445e-05 -3.21935e-07 0.102389)
(1.8262e-06 -1.86734e-06 0.107897)
(1.36645e-06 1.92331e-07 0.108582)
(-1.91668e-05 1.20958e-05 0.0958161)
(1.53817e-06 1.81752e-07 0.108582)
(2.21313e-05 -1.25099e-05 0.0956826)
(-2.7295e-05 3.24522e-07 0.1025)
(1.9863e-05 -1.30117e-05 0.0958197)
(-1.28931e-06 -2.5135e-07 0.108581)
(2.75403e-05 -7.76193e-08 0.102493)
(1.74593e-05 -2.20002e-06 0.0836378)
(2.15102e-05 -2.17019e-07 0.0942674)
(-1.19201e-06 3.46364e-08 0.108581)
(1.97458e-05 1.27546e-05 0.0958277)
(2.76362e-05 3.52251e-07 0.102493)
(1.76333e-05 2.09221e-06 0.083627)
(2.18064e-05 1.19505e-07 0.0942665)
(-9.57608e-06 4.59541e-06 0.0721736)
(9.49639e-06 -4.88521e-06 0.0720729)
(5.83081e-05 -5.84027e-05 0.106508)
(-7.98546e-06 9.11148e-06 0.0894935)
(-9.68328e-06 8.03811e-06 0.0895023)
(1.01124e-05 -1.05522e-05 0.0893893)
(1.03942e-05 -9.87984e-06 0.0893945)
(-5.3117e-06 9.39682e-06 0.0721773)
(4.54951e-06 -9.82649e-06 0.072075)
(2.74939e-07 -2.75536e-05 0.102387)
(2.07668e-06 -1.57869e-06 0.107898)
(-1.6423e-07 -1.14517e-06 0.108582)
(-1.27465e-05 1.9582e-05 0.0958208)
(-7.17475e-09 -1.33803e-06 0.108582)
(1.23183e-05 -2.18636e-05 0.0956866)
(-2.88016e-07 2.73713e-05 0.102497)
(9.61099e-08 -2.74654e-05 0.102387)
(-2.00395e-06 -1.82114e-06 0.107899)
(1.00066e-07 -1.23373e-06 0.108582)
(1.30981e-05 1.99641e-05 0.0958306)
(1.92375e-07 -1.40027e-06 0.108582)
(-1.17489e-05 -2.15459e-05 0.0956952)
(2.49877e-07 2.73518e-05 0.102498)
(2.70196e-07 -2.08629e-05 0.0941672)
(-2.58978e-06 1.724e-05 0.0836377)
(2.84894e-07 -1.80522e-05 0.083543)
(-3.3421e-07 2.14164e-05 0.0942686)
(9.94311e-08 -2.0733e-05 0.0941661)
(2.05174e-06 1.71197e-05 0.0836286)
(-6.33301e-07 -1.83639e-05 0.0835337)
(1.48069e-07 2.12855e-05 0.0942689)
(-5.80844e-05 -5.82967e-05 0.106511)
(8.37606e-06 9.38294e-06 0.0895065)
(1.02011e-05 8.6663e-06 0.0895097)
(-9.50149e-06 -9.20457e-06 0.0894005)
(9.75513e-06 4.86707e-06 0.0721478)
(5.16298e-06 9.38044e-06 0.0721517)
(-4.6209e-06 -1.0018e-05 0.0720517)
(4.31899e-06 9.65106e-06 0.0720754)
(-5.00384e-06 -9.63695e-06 0.0721789)
(9.66589e-06 4.64968e-06 0.0720745)
(-9.59099e-06 -4.63505e-06 0.0721764)
(9.76822e-06 9.80217e-06 0.0893989)
(9.54684e-06 1.01975e-05 0.0893973)
(-6.23799e-05 -6.23037e-05 0.106637)
(-9.8009e-06 -8.28335e-06 0.0895082)
(-8.63997e-06 -9.41053e-06 0.0895059)
(4.54277e-06 9.6903e-06 0.0720772)
(9.4833e-06 4.82496e-06 0.0720749)
(5.8433e-05 5.85655e-05 0.106506)
(9.9252e-06 9.78607e-06 0.0893977)
(9.59255e-06 1.03283e-05 0.0893971)
(1.85962e-07 -2.17136e-05 0.0942753)
(-1.03511e-07 1.82828e-05 0.0835411)
(2.49638e-07 2.13693e-05 0.0941768)
(2.22076e-06 -1.72812e-05 0.0836377)
(-2.70523e-07 -2.76528e-05 0.102541)
(1.19296e-05 2.19551e-05 0.0956871)
(-3.26865e-08 1.40955e-06 0.108584)
(2.43188e-06 1.52281e-06 0.107898)
(-1.59938e-07 2.76969e-05 0.10243)
(-1.27873e-05 -1.9678e-05 0.0958221)
(-4.26191e-08 1.40423e-06 0.108584)
(-2.59411e-08 -2.73415e-05 0.10251)
(-1.16726e-05 2.19817e-05 0.0956809)
(1.12532e-07 1.61568e-06 0.108582)
(-2.09326e-06 1.79001e-06 0.107896)
(7.87542e-08 2.77217e-05 0.102401)
(1.28225e-05 -1.93782e-05 0.0958172)
(1.05415e-07 1.4982e-06 0.108582)
(-6.54563e-08 2.1561e-05 0.0941867)
(3.88646e-07 1.81263e-05 0.0835376)
(-1.05763e-07 2.07368e-05 0.0941763)
(-5.08041e-08 1.81774e-05 0.0835407)
(3.97088e-08 2.76522e-05 0.102431)
(2.18858e-06 1.71185e-06 0.107898)
(1.19351e-05 2.17867e-05 0.0956864)
(-7.15003e-08 1.41515e-06 0.108584)
(7.07611e-09 2.78447e-05 0.102401)
(-1.90602e-06 1.83248e-06 0.107896)
(-1.18979e-05 2.21639e-05 0.0956798)
(1.33015e-07 1.41305e-06 0.108582)
(-9.99742e-06 9.87908e-06 0.0893947)
(-9.47539e-06 9.64747e-06 0.0893936)
(6.27497e-05 -6.27279e-05 0.106638)
(9.51697e-06 -7.98622e-06 0.0895051)
(8.70108e-06 -1.00508e-05 0.0895032)
(-9.65053e-06 4.52725e-06 0.0720752)
(9.41969e-06 -5.00464e-06 0.0721788)
(-4.42262e-06 9.70234e-06 0.0720768)
(-5.81929e-05 5.80819e-05 0.106507)
(-1.02666e-05 1.0098e-05 0.0893936)
(-9.37919e-06 9.59583e-06 0.0893941)
(-9.8301e-06 4.49354e-06 0.0720771)
(-2.74177e-05 3.39757e-07 0.102513)
(2.17083e-05 1.20961e-05 0.095687)
(1.54109e-06 -1.20139e-09 0.108583)
(1.41375e-06 2.50558e-06 0.107898)
(2.77186e-05 1.51143e-07 0.102403)
(-1.99716e-05 -1.26046e-05 0.0958214)
(1.52296e-06 1.39477e-07 0.108583)
(-2.16828e-05 1.60031e-07 0.0942704)
(1.83628e-05 -5.70343e-07 0.0835397)
(2.10734e-05 9.09818e-08 0.0941701)
(-1.72778e-05 1.95048e-06 0.0836341)
(-2.73459e-05 5.09217e-07 0.102503)
(1.49555e-06 2.27528e-07 0.108582)
(2.23638e-05 -1.26286e-05 0.0956822)
(1.34403e-06 -1.95096e-06 0.107897)
(2.77147e-05 2.30763e-07 0.102391)
(1.42612e-06 2.37395e-07 0.108582)
(-1.91414e-05 1.21374e-05 0.0958155)
(2.16283e-05 2.29637e-07 0.0941777)
(1.78625e-05 7.83338e-07 0.083538)
(2.77996e-05 5.59599e-07 0.102403)
(1.54389e-06 2.30379e-06 0.107898)
(2.16534e-05 1.21722e-05 0.0956869)
(1.39426e-06 1.18134e-07 0.108583)
(2.15304e-05 -3.10179e-08 0.0941711)
(1.82704e-05 -3.7762e-07 0.0835394)
(2.78513e-05 5.27455e-07 0.102393)
(1.50975e-06 -1.83552e-06 0.107897)
(1.28862e-06 2.76944e-07 0.108583)
(2.22831e-05 -1.25527e-05 0.0956817)
(2.16632e-05 -3.24553e-07 0.0942678)
(-1.80265e-05 2.69949e-07 0.0835424)
(-2.07839e-05 -1.386e-07 0.0941671)
(1.72434e-05 -2.23789e-06 0.0836388)
(2.74291e-05 7.88644e-08 0.102493)
(-1.54707e-06 4.48595e-08 0.108582)
(-2.17847e-05 -1.20893e-05 0.0956919)
(-1.60871e-06 -2.09839e-06 0.107898)
(-2.73587e-05 1.18683e-07 0.102384)
(-1.52178e-06 3.07852e-08 0.108582)
(1.95743e-05 1.27605e-05 0.095827)
(2.19189e-05 2.45135e-07 0.0942672)
(-1.79263e-05 -3.77395e-07 0.0835322)
(-2.07578e-05 -1.53788e-07 0.0941681)
(1.74671e-05 2.09523e-06 0.0836274)
(-2.76174e-05 7.73068e-08 0.102384)
(-1.81771e-06 1.77546e-06 0.107897)
(-2.16318e-05 1.15663e-05 0.0956835)
(-1.62457e-06 -1.6429e-07 0.108582)
(-2.08944e-05 -1.70926e-07 0.0941665)
(-1.8274e-05 2.4885e-07 0.0835433)
(-2.77264e-05 -8.07105e-08 0.102384)
(-1.74238e-06 -2.00321e-06 0.107899)
(-1.6312e-06 6.08714e-08 0.108582)
(-2.1984e-05 -1.20791e-05 0.0956911)
(-2.05575e-05 -7.88368e-08 0.0941681)
(-1.8143e-05 -1.67247e-07 0.0835324)
(1.00411e-05 -1.06504e-05 0.089386)
(9.78056e-06 -1.00557e-05 0.0893929)
(-6.33474e-05 6.26268e-05 0.10664)
(-8.17351e-06 9.18995e-06 0.0894904)
(-1.0219e-05 7.96348e-06 0.0895007)
(4.13855e-06 -9.86259e-06 0.0720765)
(-5.70095e-06 9.26774e-06 0.0721792)
(9.58538e-06 -4.85868e-06 0.0720714)
(5.77822e-05 -5.85012e-05 0.10651)
(9.94435e-06 -1.0502e-05 0.0893833)
(9.33629e-06 -1.00144e-05 0.0893916)
(3.89883e-06 -1.01542e-05 0.0720774)
(-4.91737e-08 2.70259e-05 0.102498)
(8.2357e-08 -1.48164e-06 0.108582)
(-1.178e-05 -2.16619e-05 0.0956956)
(-2.29485e-06 -1.75608e-06 0.107899)
(2.05585e-07 -2.75623e-05 0.102388)
(3.7757e-08 -1.55403e-06 0.108582)
(1.31964e-05 1.97102e-05 0.0958305)
(-2.16044e-07 2.13451e-05 0.0942691)
(-2.73523e-07 -1.82708e-05 0.0835434)
(1.03462e-07 -2.10273e-05 0.0941686)
(-2.89417e-06 1.70127e-05 0.0836377)
(5.38321e-08 2.13678e-05 0.0942694)
(-3.6433e-07 -1.84287e-05 0.0835337)
(-2.34791e-08 -2.11396e-05 0.0941672)
(2.21146e-06 1.69434e-05 0.0836283)
(-1.71897e-07 -2.80083e-05 0.102389)
(1.68258e-06 -1.7349e-06 0.107898)
(-3.48553e-07 -1.47734e-06 0.108582)
(1.16176e-05 -2.24222e-05 0.0956847)
(-2.08573e-07 -2.79618e-05 0.102389)
(-2.27431e-06 -1.96849e-06 0.107899)
(-6.19056e-09 -1.60544e-06 0.108582)
(-1.16109e-05 -2.18747e-05 0.0956954)
(1.59263e-07 -2.13391e-05 0.0941683)
(-4.08071e-07 -1.86257e-05 0.0835432)
(-1.52045e-07 -2.1116e-05 0.094167)
(-1.55884e-07 -1.86921e-05 0.0835332)
(-9.45032e-06 -4.72662e-06 0.0720471)
(9.49186e-06 4.87976e-06 0.0721495)
(-4.39718e-06 -9.86812e-06 0.072051)
(5.34507e-06 9.00662e-06 0.072151)
(-5.82915e-05 -5.85904e-05 0.106511)
(-9.76261e-06 -1.03388e-05 0.0893955)
(-9.25202e-06 -9.65602e-06 0.089402)
(-9.71959e-06 -4.59051e-06 0.0720477)
(-4.22134e-06 -1.02148e-05 0.0720496)
(-2.13201e-06 9.10043e-06 0.0688575)
(-1.69467e-06 -1.566e-05 0.0875818)
(1.37068e-08 1.82868e-05 0.0835373)
(-7.57067e-07 1.61716e-05 0.0874733)
(-1.46755e-07 -8.66324e-06 0.068967)
(1.82088e-05 1.4906e-07 0.0835383)
(-1.14294e-06 9.00944e-06 0.0776187)
(4.69089e-08 2.11444e-05 0.094187)
(9.79292e-08 -8.07911e-06 0.0795833)
(-1.1858e-06 -2.05603e-05 0.0923506)
(1.04345e-07 8.54576e-06 0.0795071)
(2.09627e-07 1.98401e-05 0.0922445)
(1.91416e-07 -8.74505e-06 0.077705)
(-1.52107e-07 -8.77162e-06 0.0689652)
(-7.56002e-07 1.62188e-05 0.0874733)
(-2.16106e-06 -1.71733e-05 0.0836327)
(-1.93868e-06 9.12386e-06 0.0688551)
(-1.61907e-06 -1.58686e-05 0.0875812)
(4.1941e-07 -8.72226e-06 0.0777062)
(2.98337e-08 -2.13263e-05 0.0942873)
(4.9647e-07 8.52908e-06 0.0795079)
(3.4935e-07 2.0149e-05 0.0922454)
(-9.21779e-07 9.024e-06 0.0776207)
(5.83099e-07 -8.2606e-06 0.0795838)
(-1.27923e-06 -2.05429e-05 0.092351)
(-2.01149e-06 9.00112e-06 0.0688542)
(-1.41642e-06 -1.60123e-05 0.0875811)
(2.47613e-07 1.81122e-05 0.0835376)
(-7.37031e-07 1.5916e-05 0.0874735)
(4.86233e-08 -8.83224e-06 0.068965)
(4.93408e-06 -9.3217e-06 0.0721814)
(-4.33744e-06 9.56104e-06 0.0720758)
(8.77328e-06 -1.08312e-06 0.0776357)
(2.14237e-05 4.19446e-08 0.0941778)
(-2.0478e-05 -9.51226e-07 0.0923678)
(-7.97825e-06 -3.85523e-07 0.079627)
(2.01202e-05 4.28757e-07 0.0922618)
(8.56415e-06 -3.73513e-07 0.0795507)
(-9.03186e-06 1.58239e-07 0.0777228)
(-8.9824e-06 2.14302e-07 0.068968)
(1.61048e-05 -3.18048e-07 0.0874784)
(-1.74688e-05 -1.68671e-06 0.0836329)
(8.9208e-06 -1.59992e-06 0.0688569)
(-1.59454e-05 -1.11043e-06 0.0875864)
(-8.77352e-06 1.84611e-07 0.0777224)
(-2.10635e-05 -5.65101e-08 0.0942779)
(2.02548e-05 4.56424e-07 0.0922622)
(8.89644e-06 -3.25856e-07 0.0795515)
(9.09351e-06 -9.9471e-07 0.0776362)
(-2.02044e-05 -1.07814e-06 0.0923682)
(-7.891e-06 -3.29114e-07 0.0796271)
(8.84747e-06 -1.47994e-06 0.0688572)
(-1.61217e-05 -9.14314e-07 0.0875865)
(1.77558e-05 6.96103e-07 0.083538)
(1.57857e-05 -2.47741e-07 0.0874788)
(-8.93952e-06 6.12936e-07 0.0689687)
(-9.57752e-06 4.44524e-06 0.0721731)
(9.57007e-06 -5.02156e-06 0.0720717)
(-8.81183e-06 -8.56964e-06 0.0852937)
(3.81393e-06 9.09619e-06 0.0692814)
(8.73308e-06 4.0582e-06 0.0692833)
(-4.43178e-06 -8.22804e-06 0.0691792)
(-8.48572e-06 -4.23589e-06 0.0691812)
(8.45645e-06 8.68068e-06 0.0853815)
(2.46664e-05 1.05042e-05 0.0942452)
(-3.08977e-05 -1.40636e-05 0.0993887)
(-8.33247e-06 -5.70841e-06 0.0828815)
(8.39294e-06 9.39886e-06 0.0895062)
(-2.41441e-05 -1.1006e-05 0.0941357)
(3.08301e-05 1.22179e-05 0.0994994)
(7.89229e-06 6.06557e-06 0.082985)
(1.05795e-05 2.45952e-05 0.0942314)
(-1.40951e-05 -3.11548e-05 0.0993767)
(-5.65531e-06 -8.17154e-06 0.0828941)
(1.02037e-05 8.5081e-06 0.0895103)
(-1.08469e-05 -2.39417e-05 0.0941233)
(1.22115e-05 3.05066e-05 0.0994866)
(6.22173e-06 8.16857e-06 0.0829965)
(8.5583e-06 8.82281e-06 0.0853815)
(-4.38305e-06 -8.34291e-06 0.0691788)
(-8.64097e-06 -4.17394e-06 0.0691801)
(-8.70939e-06 -8.44055e-06 0.0852938)
(3.99321e-06 8.86357e-06 0.0692811)
(8.5181e-06 4.22135e-06 0.0692825)
(-2.40818e-05 -1.08788e-05 0.0941353)
(7.68347e-06 6.2938e-06 0.0829843)
(-9.76586e-06 -1.01059e-05 0.0893962)
(3.06708e-05 1.24205e-05 0.0994992)
(-3.10058e-05 -1.39592e-05 0.0993892)
(-8.43864e-06 -5.51825e-06 0.0828814)
(2.48774e-05 1.09528e-05 0.0942456)
(-1.09883e-05 -2.42733e-05 0.0941229)
(6.54757e-06 8.03375e-06 0.0829973)
(-9.27543e-06 -9.5902e-06 0.089402)
(1.23954e-05 3.03329e-05 0.0994855)
(-1.39768e-05 -3.12831e-05 0.0993765)
(-5.39808e-06 -8.24923e-06 0.0828951)
(1.04325e-05 2.40333e-05 0.0942314)
(4.29625e-06 9.94747e-06 0.072074)
(9.7779e-06 4.36787e-06 0.0720739)
(8.47549e-06 8.29064e-06 0.0853038)
(-8.36351e-06 -3.84517e-06 0.0692986)
(-3.80902e-06 -8.46764e-06 0.0692917)
(8.6371e-06 4.51231e-06 0.0691964)
(4.56731e-06 8.54936e-06 0.0691899)
(-8.71993e-06 -8.86941e-06 0.0853938)
(1.08488e-05 2.40037e-05 0.0941293)
(-5.66768e-06 -7.47321e-06 0.083008)
(9.67001e-06 9.52256e-06 0.0893985)
(-1.21959e-05 -3.05151e-05 0.0994805)
(5.7062e-06 8.421e-06 0.0829029)
(-1.05419e-05 -2.4496e-05 0.0942414)
(1.40937e-05 3.09903e-05 0.0993703)
(2.41805e-05 1.07519e-05 0.0941209)
(-7.51731e-06 -5.72641e-06 0.0830016)
(9.74556e-06 9.70202e-06 0.0893964)
(-3.05341e-05 -1.24042e-05 0.0994763)
(8.64893e-06 5.72845e-06 0.0828978)
(-2.44244e-05 -1.07333e-05 0.0942333)
(3.10258e-05 1.38739e-05 0.0993657)
(4.26844e-06 9.79255e-06 0.0720745)
(-5.14981e-06 -9.18688e-06 0.0721758)
(9.59985e-06 4.67495e-06 0.0720743)
(-9.45818e-06 -4.81372e-06 0.0721752)
(-8.92671e-06 -8.97914e-06 0.0853935)
(8.67768e-06 4.4018e-06 0.0691952)
(4.42741e-06 8.64338e-06 0.0691885)
(8.45888e-06 8.33212e-06 0.0853046)
(-8.60513e-06 -4.04144e-06 0.0692978)
(-4.13835e-06 -8.47752e-06 0.0692906)
(1.08334e-05 2.43158e-05 0.0941296)
(-1.25332e-05 -3.06823e-05 0.0994788)
(9.56789e-06 9.58006e-06 0.0893993)
(-5.94759e-06 -7.44018e-06 0.0830087)
(5.68345e-06 8.64893e-06 0.0829035)
(1.35997e-05 3.06759e-05 0.0993691)
(-1.05546e-05 -2.42021e-05 0.0942399)
(2.40203e-05 1.07785e-05 0.0941215)
(-3.04684e-05 -1.22767e-05 0.0994748)
(9.44967e-06 9.98588e-06 0.089397)
(-7.57634e-06 -5.51363e-06 0.0830009)
(8.58022e-06 6.01313e-06 0.0828977)
(3.1102e-05 1.39949e-05 0.0993646)
(-2.45991e-05 -1.07294e-05 0.0942325)
(-1.06567e-05 -2.45847e-05 0.0942403)
(5.91407e-06 8.57556e-06 0.0829033)
(1.41975e-05 3.11761e-05 0.0993705)
(-9.85794e-06 -8.56518e-06 0.0895101)
(1.07795e-05 2.38787e-05 0.0941304)
(-5.77726e-06 -7.64993e-06 0.0830079)
(-1.21632e-05 -3.04455e-05 0.0994795)
(-2.45565e-05 -1.06462e-05 0.094232)
(8.57192e-06 5.95859e-06 0.082898)
(3.10698e-05 1.40556e-05 0.099366)
(-8.70579e-06 -9.60607e-06 0.0895064)
(2.39865e-05 1.08164e-05 0.094122)
(-7.89966e-06 -5.69119e-06 0.0830012)
(-3.03126e-05 -1.20233e-05 0.0994757)
(8.47321e-06 8.52128e-06 0.0853052)
(-8.60155e-06 -3.85839e-06 0.0692979)
(-3.97175e-06 -8.48985e-06 0.0692904)
(8.48873e-06 4.51662e-06 0.0691951)
(4.45514e-06 8.57668e-06 0.0691881)
(-8.80606e-06 -8.63473e-06 0.085395)
(5.34969e-07 -8.86692e-06 0.0777087)
(4.49602e-07 8.55788e-06 0.0795095)
(4.13937e-07 2.02651e-05 0.0922466)
(1.78684e-07 -2.14433e-05 0.094288)
(-9.20673e-07 8.88757e-06 0.0776231)
(7.05146e-07 -8.11769e-06 0.0795851)
(-9.18677e-07 -2.00821e-05 0.0923527)
(-1.73103e-06 9.01224e-06 0.0688551)
(2.46617e-07 1.82422e-05 0.0835376)
(-1.67218e-06 -1.58377e-05 0.0875814)
(-4.32e-08 -8.79648e-06 0.0689656)
(-7.18001e-07 1.59768e-05 0.0874736)
(4.52707e-09 -8.84601e-06 0.0689658)
(-9.19269e-07 1.61704e-05 0.0874739)
(-2.1528e-06 -1.71535e-05 0.0836326)
(-2.01725e-06 9.08115e-06 0.0688559)
(-1.57207e-06 -1.5954e-05 0.0875818)
(-9.05314e-07 8.74179e-06 0.077622)
(3.2713e-07 2.11917e-05 0.0941884)
(4.91775e-07 -8.17701e-06 0.0795841)
(-1.20481e-06 -2.0535e-05 0.0923511)
(2.98003e-07 -8.97848e-06 0.0777079)
(3.3609e-07 8.45981e-06 0.0795085)
(4.71798e-07 2.01547e-05 0.0922467)
(-2.517e-07 -8.18963e-06 0.0777858)
(5.66115e-07 8.65988e-06 0.0795506)
(5.78597e-08 1.95078e-05 0.0922499)
(3.04847e-07 -2.11036e-05 0.0942761)
(1.32624e-06 9.39005e-06 0.0777011)
(-2.96285e-08 -8.0378e-06 0.079627)
(1.43156e-06 -2.07873e-05 0.0923545)
(2.25866e-06 9.04359e-06 0.0689047)
(-2.19012e-08 1.81824e-05 0.083541)
(1.52978e-06 -1.58179e-05 0.0875937)
(6.5796e-07 1.60992e-05 0.0874873)
(4.6587e-07 -8.8095e-06 0.0690154)
(3.23101e-07 -8.76879e-06 0.0690147)
(7.5605e-07 1.61852e-05 0.0874878)
(2.24418e-06 -1.72298e-05 0.0836377)
(2.07262e-06 9.24023e-06 0.0689043)
(1.40795e-06 -1.58069e-05 0.0875941)
(1.05348e-06 9.57688e-06 0.0776988)
(2.23394e-07 2.13109e-05 0.0941771)
(-1.17193e-07 -8.05447e-06 0.0796273)
(1.54691e-06 -2.08296e-05 0.0923547)
(1.50003e-07 8.54912e-06 0.0795512)
(3.36665e-09 1.95368e-05 0.0922512)
(-1.59936e-07 -8.29256e-06 0.0777839)
(-4.34727e-06 9.70363e-06 0.0720753)
(5.05807e-06 -9.33107e-06 0.0721809)
(-1.06918e-05 2.41318e-05 0.0941199)
(1.25981e-05 -3.03954e-05 0.0994741)
(-9.85063e-06 9.74186e-06 0.0893949)
(6.11453e-06 -7.48221e-06 0.0829968)
(-1.38421e-05 3.13107e-05 0.0993636)
(-5.6851e-06 8.7207e-06 0.0828944)
(1.09658e-05 -2.45734e-05 0.0942303)
(-2.42724e-05 1.10622e-05 0.094132)
(3.07163e-05 -1.26304e-05 0.0994869)
(-9.3892e-06 9.78536e-06 0.0893935)
(8.2128e-06 -6.01572e-06 0.0829913)
(-7.98068e-06 5.60437e-06 0.0828871)
(-3.10072e-05 1.37919e-05 0.0993759)
(2.43149e-05 -1.03495e-05 0.0942434)
(-1.38595e-05 3.11131e-05 0.0993637)
(9.74051e-06 -8.32528e-06 0.0895062)
(1.23516e-05 -3.03907e-05 0.099474)
(-8.44448e-06 8.75156e-06 0.0852927)
(8.96625e-06 -3.70661e-06 0.0692845)
(4.25796e-06 -8.31178e-06 0.0692858)
(-8.18684e-06 4.63298e-06 0.0691816)
(-4.13055e-06 8.77335e-06 0.0691824)
(8.8003e-06 -8.43885e-06 0.0853822)
(-9.51352e-06 4.55539e-06 0.072074)
(-8.30593e-06 5.51597e-07 0.0777244)
(2.03956e-05 3.84854e-07 0.0922612)
(9.1627e-06 3.01227e-08 0.0795539)
(-2.14768e-05 -1.87916e-07 0.0942778)
(9.37998e-06 -8.29006e-07 0.0776382)
(-2.0051e-05 -8.58147e-07 0.0923686)
(-7.36274e-06 6.85124e-08 0.0796295)
(8.9745e-06 -1.54623e-06 0.0688562)
(1.80035e-05 6.17724e-07 0.083538)
(-1.58563e-05 -1.24376e-06 0.087586)
(-8.94609e-06 2.22698e-07 0.0689674)
(1.60422e-05 -2.73209e-07 0.0874783)
(-8.68682e-06 4.32178e-07 0.0689675)
(1.60504e-05 -6.39629e-07 0.0874781)
(-1.74186e-05 -1.74673e-06 0.0836331)
(9.21881e-06 -1.64111e-06 0.0688578)
(-1.58742e-05 -1.03617e-06 0.0875867)
(9.23108e-06 -9.658e-07 0.0776365)
(2.10914e-05 5.70214e-08 0.0941784)
(-2.02498e-05 -1.12859e-06 0.0923675)
(-7.76144e-06 -1.6668e-07 0.0796276)
(-8.67423e-06 2.90866e-07 0.0777231)
(1.99959e-05 4.56265e-07 0.0922623)
(9.17149e-06 -3.93211e-07 0.0795519)
(-8.27292e-06 -1.32678e-07 0.0777836)
(9.09285e-06 4.94097e-07 0.0795683)
(2.01874e-05 -4.29079e-07 0.0922474)
(-2.17231e-05 1.09893e-07 0.0942686)
(9.26824e-06 1.242e-06 0.0776973)
(-7.29699e-06 1.50806e-07 0.0796437)
(-2.04524e-05 9.77288e-07 0.0923539)
(9.1766e-06 2.09546e-06 0.0688892)
(1.82081e-05 -4.87215e-07 0.0835394)
(-1.5578e-05 1.31962e-06 0.087591)
(1.62354e-05 4.04377e-07 0.0874841)
(-8.65223e-06 4.60717e-07 0.0689999)
(-8.47013e-06 -2.17326e-07 0.0690001)
(1.62146e-05 4.35218e-07 0.087485)
(-1.73134e-05 1.79259e-06 0.0836346)
(9.21358e-06 1.69099e-06 0.0688903)
(-1.56072e-05 1.16505e-06 0.0875923)
(9.7055e-06 1.39263e-06 0.0776944)
(2.10587e-05 -1.16376e-08 0.0941693)
(-7.37884e-06 -4.51162e-07 0.0796412)
(-2.05117e-05 1.22708e-06 0.0923537)
(9.47946e-06 9.45696e-08 0.0795657)
(1.93855e-05 -2.97063e-07 0.0922485)
(-7.88451e-06 -1.14408e-07 0.0777801)
(-8.9014e-06 -1.80992e-06 0.0688979)
(-1.79323e-05 3.53853e-07 0.0835415)
(1.60082e-05 -1.57397e-06 0.0875987)
(-1.56816e-05 -6.07333e-07 0.0874878)
(8.66521e-06 -9.5409e-08 0.0690152)
(-8.70808e-06 -1.29811e-06 0.0777059)
(-2.0653e-05 -2.31215e-08 0.0941666)
(2.07611e-05 -1.36501e-06 0.0923577)
(8.21795e-06 -1.43204e-07 0.0796575)
(-1.9452e-05 2.75241e-07 0.0922488)
(-8.28951e-06 -3.79415e-07 0.0795778)
(8.71063e-06 -8.24382e-08 0.077799)
(-8.91565e-06 1.98858e-06 0.068903)
(-1.78819e-05 -2.90548e-07 0.0835316)
(1.60029e-05 1.22041e-06 0.0875927)
(-1.5911e-05 3.92834e-07 0.087485)
(8.85219e-06 1.90212e-07 0.069014)
(-9.24634e-06 7.97956e-07 0.0777039)
(-2.07238e-05 -1.24299e-07 0.0941673)
(8.20712e-06 -6.5642e-07 0.0796552)
(2.09823e-05 1.13993e-06 0.0923555)
(-8.44993e-06 -4.1243e-07 0.0795783)
(-1.91021e-05 -3.4511e-07 0.0922501)
(8.46342e-06 -5.16361e-07 0.0777904)
(9.40109e-06 -4.81306e-06 0.0720725)
(-9.60117e-06 4.64483e-06 0.0721735)
(-8.50121e-06 8.63116e-06 0.0853756)
(4.23511e-06 -8.98931e-06 0.069172)
(8.6914e-06 -4.424e-06 0.069178)
(8.8272e-06 -8.71714e-06 0.0852868)
(-4.06238e-06 8.24352e-06 0.0692729)
(-8.48368e-06 3.92058e-06 0.0692793)
(2.43564e-05 -1.11642e-05 0.0941187)
(-3.06256e-05 1.22651e-05 0.0994806)
(9.99403e-06 -1.04348e-05 0.0893873)
(-7.73602e-06 5.8562e-06 0.0829827)
(3.14486e-05 -1.41071e-05 0.0993712)
(8.48864e-06 -5.82844e-06 0.0828814)
(-2.43624e-05 1.01994e-05 0.0942277)
(1.12258e-05 -2.46362e-05 0.0941308)
(-1.23963e-05 3.01473e-05 0.0994843)
(1.00207e-05 -9.86905e-06 0.0893934)
(-5.97452e-06 7.62374e-06 0.0829889)
(5.74559e-06 -8.60833e-06 0.082886)
(1.39864e-05 -3.14384e-05 0.0993745)
(-1.02625e-05 2.40828e-05 0.0942406)
(-2.41875e-05 1.00762e-05 0.0942283)
(8.35729e-06 -6.04646e-06 0.0828826)
(3.14441e-05 -1.42733e-05 0.0993702)
(-8.01407e-06 9.18798e-06 0.0894959)
(-3.07608e-05 1.22233e-05 0.0994804)
(2.49563e-05 -1.18025e-05 0.0941193)
(-7.91866e-06 5.78857e-06 0.0829844)
(-1.01219e-05 2.42446e-05 0.094241)
(6.06345e-06 -8.53081e-06 0.0828866)
(1.42487e-05 -3.13424e-05 0.0993745)
(-9.28057e-06 8.07798e-06 0.0895036)
(1.14155e-05 -2.44525e-05 0.0941308)
(-5.72794e-06 7.69751e-06 0.0829894)
(-1.21647e-05 3.03554e-05 0.0994852)
(8.81171e-06 -8.68384e-06 0.085286)
(-4.0713e-06 8.53354e-06 0.0692719)
(-8.47777e-06 4.07018e-06 0.0692783)
(4.33473e-06 -8.72804e-06 0.0691702)
(8.55155e-06 -4.43338e-06 0.0691763)
(-8.43289e-06 8.56529e-06 0.0853744)
(4.29667e-06 -9.74351e-06 0.0720751)
(-5.06902e-06 9.3273e-06 0.0721767)
(4.00511e-07 8.05656e-06 0.077789)
(4.57076e-07 -1.89991e-05 0.0922517)
(1.08268e-07 -8.5233e-06 0.0795745)
(-1.09772e-07 2.12879e-05 0.09427)
(-8.17632e-07 -9.31122e-06 0.0777034)
(-1.04543e-06 2.09092e-05 0.0923582)
(3.88316e-07 7.78539e-06 0.0796538)
(-2.26055e-06 -9.00272e-06 0.0688937)
(-2.93603e-08 -1.8221e-05 0.083543)
(-1.67742e-06 1.56806e-05 0.0875942)
(-6.18965e-07 -1.61541e-05 0.0874882)
(-4.71983e-07 8.69029e-06 0.0690032)
(-3.09397e-07 8.522e-06 0.0690039)
(-4.91714e-07 -1.62207e-05 0.0874892)
(-2.22838e-06 1.72442e-05 0.0836381)
(-1.85018e-06 -9.33439e-06 0.0688947)
(-1.32314e-06 1.54516e-05 0.0875956)
(-8.67664e-07 -9.54989e-06 0.0777004)
(9.10907e-08 -2.08376e-05 0.0941685)
(-1.34954e-06 2.06811e-05 0.0923574)
(2.16257e-07 8.01408e-06 0.0796531)
(4.16732e-07 -1.94452e-05 0.0922532)
(2.09206e-07 -8.51724e-06 0.079574)
(2.00806e-07 8.23498e-06 0.0777865)
(-4.39614e-07 8.52827e-06 0.077791)
(-2.91514e-07 -1.93647e-05 0.0922488)
(3.01091e-07 -8.36101e-06 0.0795724)
(1.14319e-07 2.1287e-05 0.0942704)
(9.84707e-07 -8.91989e-06 0.0777004)
(1.02423e-06 2.04596e-05 0.092358)
(-4.10029e-08 7.90707e-06 0.0796545)
(1.62833e-06 -8.95207e-06 0.0688916)
(-4.21477e-07 -1.83616e-05 0.0835334)
(1.44749e-06 1.5832e-05 0.0875932)
(4.34402e-07 -1.59892e-05 0.0874852)
(-1.43105e-07 8.73187e-06 0.069003)
(-2.22481e-07 8.67731e-06 0.0690031)
(4.27009e-07 -1.61036e-05 0.0874856)
(1.79753e-06 1.701e-05 0.0836291)
(1.61859e-06 -9.07821e-06 0.0688923)
(1.26306e-06 1.57183e-05 0.0875943)
(9.28426e-07 -8.98557e-06 0.0776992)
(4.66998e-09 -2.0841e-05 0.0941672)
(1.23233e-06 2.06624e-05 0.092357)
(-7.47096e-08 8.05395e-06 0.079654)
(-3.97863e-07 -1.94489e-05 0.0922498)
(1.07633e-07 -8.37246e-06 0.0795719)
(-3.03896e-07 8.71078e-06 0.0777897)
(8.43912e-06 8.80927e-06 0.0853814)
(3.85635e-06 8.91115e-06 0.069281)
(8.44041e-06 4.1962e-06 0.0692807)
(-2.41206e-05 -1.08184e-05 0.0941358)
(3.086e-05 1.23585e-05 0.099499)
(-9.71701e-06 -1.01684e-05 0.0893974)
(7.86644e-06 6.08352e-06 0.0829846)
(2.46471e-05 1.06539e-05 0.0942455)
(-3.08006e-05 -1.37754e-05 0.0993889)
(-8.42485e-06 -5.62386e-06 0.0828816)
(-1.08293e-05 -2.41166e-05 0.0941236)
(1.23175e-05 3.05221e-05 0.0994868)
(-9.41518e-06 -9.39033e-06 0.0894011)
(6.21512e-06 8.151e-06 0.0829954)
(1.07212e-05 2.46107e-05 0.0942317)
(-1.38471e-05 -3.10768e-05 0.0993774)
(-5.54912e-06 -8.24779e-06 0.0828932)
(2.45546e-05 1.04679e-05 0.0942456)
(8.25715e-06 9.29418e-06 0.0895077)
(3.10221e-05 1.24692e-05 0.0994995)
(7.76669e-06 5.87327e-06 0.0829854)
(1.04576e-05 2.44627e-05 0.094232)
(-1.4049e-05 -3.10596e-05 0.0993776)
(1.01906e-05 8.62807e-06 0.0895102)
(1.23937e-05 3.06603e-05 0.0994884)
(5.99923e-06 8.04509e-06 0.0829949)
(-8.73259e-06 -8.42927e-06 0.0852938)
(3.99843e-06 8.98407e-06 0.0692805)
(8.57759e-06 4.27475e-06 0.0692811)
(8.61282e-06 8.92057e-06 0.0853814)
(-4.48194e-06 -8.18177e-06 0.0691784)
(-8.5467e-06 -4.20305e-06 0.0691789)
(-9.44635e-06 -4.57681e-06 0.0720455)
(9.53692e-06 4.7868e-06 0.0721469)
(-4.39939e-06 -9.81088e-06 0.0720506)
(4.9178e-06 8.99816e-06 0.0721519)
(-5.01239e-06 -9.5384e-06 0.072178)
(4.48123e-06 9.51436e-06 0.072076)
(-9.48269e-06 -4.66276e-06 0.0721756)
(9.46704e-06 4.80277e-06 0.0720746)
(8.49487e-06 8.87353e-06 0.0853049)
(-8.58298e-06 -4.16237e-06 0.069297)
(-4.14723e-06 -8.66223e-06 0.0692889)
(8.52076e-06 4.2806e-06 0.0691941)
(4.1523e-06 8.61331e-06 0.0691865)
(-8.75541e-06 -8.50008e-06 0.0853942)
(-1.03948e-05 -2.4379e-05 0.0942388)
(1.38785e-05 3.08992e-05 0.0993689)
(5.76509e-06 8.60989e-06 0.0829039)
(-9.66171e-06 -8.21372e-06 0.0895091)
(1.10275e-05 2.43428e-05 0.0941296)
(-5.90081e-06 -7.85802e-06 0.0830091)