/*--------------------------------*- C++ -*----------------------------------*\
| =========                 |                                                 |
| \\      /  F ield         | OpenFOAM: The Open Source CFD Toolbox           |
|  \\    /   O peration     | Version:  2312                                  |
|   \\  /    A nd           | Website:  www.openfoam.com                      |
|    \\/     M anipulation  |                                                 |
\*---------------------------------------------------------------------------*/
FoamFile
{
    version     2.0;
    format      ascii;
    arch        "LSB;label=32;scalar=64";
    class       volVectorField;
    location    "900";
    object      U;
}
// * * * * * * * * * * * * * * * * * * * * * * * * * * * * * * * * * * * * * //

dimensions      [0 1 -1 0 0 0 0];

internalField   nonuniform List<vector> 
43008
(
(6.34979e-05 6.347e-05 0.108289)
(5.9139e-05 -9.5558e-05 0.107557)
(6.22985e-05 6.22275e-05 0.108604)
(-9.36507e-05 5.81747e-05 0.107771)
(5.81399e-05 -9.36973e-05 0.107771)
(-0.000149541 -0.00014959 0.106584)
(0.000152383 0.000152351 0.106508)
(1.26298e-05 1.26507e-05 0.106725)
(5.93195e-05 9.54548e-05 0.107557)
(-5.94127e-05 9.5659e-05 0.107556)
(5.86019e-05 9.41314e-05 0.107719)
(-5.8611e-05 9.42771e-05 0.107718)
(-1.25876e-05 1.27056e-05 0.106725)
(9.55591e-05 5.91853e-05 0.107557)
(9.55619e-05 -5.93802e-05 0.107556)
(9.42181e-05 5.84437e-05 0.107719)
(9.41781e-05 -5.8582e-05 0.107718)
(-9.41153e-05 5.84492e-05 0.107719)
(-9.40501e-05 -5.85368e-05 0.107718)
(0.000152423 -0.000152454 0.106508)
(1.26501e-05 -1.25624e-05 0.106725)
(-5.92131e-05 -9.55763e-05 0.107557)
(5.8397e-05 -9.41475e-05 0.107719)
(-5.84223e-05 -9.41925e-05 0.107719)
(-1.26573e-05 -1.26141e-05 0.106724)
(0.000149573 0.000149488 0.106585)
(5.83528e-05 9.36879e-05 0.10777)
(-5.83384e-05 9.38112e-05 0.10777)
(-0.000149527 0.000149571 0.106585)
(9.37713e-05 5.81757e-05 0.107771)
(9.37291e-05 -5.83042e-05 0.10777)
(-9.35821e-05 -5.82614e-05 0.10777)
(0.00014959 -0.000149579 0.106584)
(-5.81474e-05 -9.3742e-05 0.10777)
(2.14874e-06 2.08195e-05 0.0947512)
(-2.80802e-06 3.82755e-05 0.0840946)
(2.86416e-06 7.04473e-05 0.0947945)
(-5.18157e-06 -1.26085e-06 0.0840817)
(6.00357e-06 -4.80866e-06 0.0725366)
(2.08569e-05 2.0909e-06 0.0947512)
(3.83277e-05 -2.85257e-06 0.0840952)
(7.04886e-05 2.79252e-06 0.0947945)
(-1.28577e-06 -5.40197e-06 0.0840823)
(-6.3532e-05 6.35066e-05 0.108289)
(6.34665e-05 -6.35517e-05 0.108289)
(-6.35255e-05 -6.35594e-05 0.108289)
(6.25972e-05 6.25348e-05 0.108526)
(-6.25821e-05 6.25711e-05 0.108526)
(6.25513e-05 -6.26049e-05 0.108526)
(-6.25709e-05 -6.26183e-05 0.108526)
(-6.21378e-05 6.37627e-06 0.103006)
(-9.50502e-05 5.89826e-05 0.107612)
(-3.0275e-05 2.19161e-06 0.0963718)
(-0.000104294 2.11051e-05 0.108126)
(1.64062e-05 -3.39493e-06 0.0725068)
(-4.72063e-06 6.00918e-06 0.0725357)
(6.30301e-06 -6.21317e-05 0.103005)
(2.12366e-05 -0.00010481 0.108055)
(3.09578e-05 -7.52986e-05 0.0963603)
(5.88914e-05 -9.50816e-05 0.107612)
(7.58374e-06 -0.000126278 0.102968)
(2.11041e-05 -0.000104396 0.108126)
(2.24069e-06 -3.01884e-05 0.0963697)
(-1.415e-05 -1.40551e-05 0.106681)
(-1.56358e-05 2.01656e-06 0.0899647)
(2.08039e-06 -1.56575e-05 0.0899616)
(1.67283e-06 1.52737e-05 0.0943853)
(-1.8538e-06 3.51737e-05 0.0838212)
(2.39701e-06 6.36088e-05 0.0944194)
(-4.52942e-06 -3.34063e-06 0.0838171)
(-3.35781e-06 1.56587e-05 0.0723246)
(5.7335e-06 -5.13736e-06 0.0723586)
(1.52952e-05 1.69461e-06 0.0943849)
(3.52099e-05 -1.97406e-06 0.0838217)
(6.36795e-05 2.37348e-06 0.0944191)
(-3.32862e-06 -4.52767e-06 0.0838174)
(-6.22707e-05 6.22642e-05 0.108604)
(6.22539e-05 -6.22944e-05 0.108604)
(-6.2258e-05 -6.23094e-05 0.108604)
(-5.53704e-05 5.2279e-06 0.102756)
(-6.97892e-05 2.84259e-05 0.096026)
(-0.000103124 2.06677e-05 0.108337)
(-9.31732e-05 5.79088e-05 0.107821)
(-0.000118539 6.54255e-06 0.102725)
(-2.55596e-05 7.62374e-07 0.0960422)
(-0.000102739 2.05284e-05 0.108405)
(1.55997e-05 -3.4433e-06 0.0723246)
(-5.14141e-06 5.80615e-06 0.0723577)
(5.18487e-06 -5.5402e-05 0.102754)
(2.06979e-05 -0.000103236 0.108336)
(2.84996e-05 -6.9842e-05 0.0960268)
(5.78618e-05 -9.32138e-05 0.107821)
(6.69011e-06 -0.000118661 0.102724)
(2.05573e-05 -0.000102829 0.108405)
(7.98263e-07 -2.54747e-05 0.0960398)
(-3.43282e-05 -1.82901e-05 0.089668)
(-1.82312e-05 -3.4329e-05 0.0896672)
(-1.12228e-05 -1.11887e-05 0.106761)
(-1.30943e-05 2.64627e-06 0.0896667)
(2.65417e-06 -1.30676e-05 0.0896636)
(3.43425e-06 1.62912e-05 0.0725071)
(-6.03663e-06 -4.82363e-06 0.0725366)
(1.63152e-05 3.29889e-06 0.072506)
(-4.96238e-06 -6.27493e-06 0.0725358)
(1.95514e-05 3.68875e-05 0.0899756)
(3.69486e-05 1.93283e-05 0.0899727)
(1.404e-05 1.40776e-05 0.106682)
(-2.06045e-06 1.55943e-05 0.089966)
(1.54311e-05 -2.18903e-06 0.0899634)
(-5.56944e-06 -5.00522e-06 0.0724455)
(3.53954e-06 1.60011e-05 0.0724138)
(-5.01189e-06 -5.89725e-06 0.0724449)
(1.5899e-05 3.30502e-06 0.0724125)
(0.000151026 0.000150971 0.10655)
(-2.24598e-06 1.43019e-05 0.0898134)
(1.42691e-05 -2.41954e-06 0.0898109)
(1.88999e-05 3.56547e-05 0.089819)
(3.55781e-05 1.87457e-05 0.0898159)
(-2.10473e-06 2.08311e-05 0.0947511)
(2.85712e-06 3.82859e-05 0.0840942)
(-2.85959e-06 7.0453e-05 0.0947946)
(5.19547e-06 -1.19515e-06 0.0840814)
(6.36567e-06 6.20467e-05 0.103006)
(3.08838e-05 7.53416e-05 0.0963598)
(2.12632e-05 0.000104672 0.108055)
(5.90832e-05 9.50226e-05 0.107612)
(7.51105e-06 0.000126227 0.102969)
(2.11991e-06 3.02756e-05 0.0963699)
(2.11273e-05 0.000104273 0.108126)
(-6.34538e-06 6.20592e-05 0.103006)
(-3.08293e-05 7.5359e-05 0.0963585)
(-2.13061e-05 0.000104728 0.108055)
(-5.91653e-05 9.52035e-05 0.107611)
(-7.58473e-06 0.000126252 0.102969)
(-2.16464e-06 3.03143e-05 0.0963685)
(-2.11675e-05 0.000104324 0.108126)
(2.60786e-06 6.68967e-05 0.0946028)
(-4.63599e-06 -2.46563e-06 0.0839458)
(-2.21302e-06 3.66664e-05 0.0839543)
(1.89191e-06 1.79005e-05 0.094564)
(-2.59973e-06 6.69113e-05 0.0946029)
(4.7178e-06 -2.25702e-06 0.0839453)
(2.34631e-06 3.67312e-05 0.0839541)
(-1.85844e-06 1.793e-05 0.0945639)
(7.07171e-06 0.000122405 0.102849)
(5.8856e-05 9.45948e-05 0.107666)
(1.48387e-06 2.77152e-05 0.0962024)
(2.08556e-05 0.000103512 0.108267)
(2.96869e-05 7.25534e-05 0.0961905)
(2.0991e-05 0.000103896 0.108197)
(5.77578e-06 5.86186e-05 0.102883)
(-7.09217e-06 0.000122435 0.102849)
(-5.88808e-05 9.47444e-05 0.107665)
(-1.4126e-06 2.79389e-05 0.0962006)
(-2.08737e-05 0.000103554 0.108267)
(-2.961e-05 7.26283e-05 0.0961894)
(-2.1019e-05 0.000103941 0.108197)
(-5.72342e-06 5.86429e-05 0.102883)
(-1.40554e-05 1.41562e-05 0.106682)
(2.04614e-06 1.56547e-05 0.0899635)
(-1.56553e-05 -2.03813e-06 0.0899675)
(4.77234e-06 -5.90235e-06 0.072539)
(5.80865e-06 -4.774e-06 0.0724454)
(-3.39109e-06 1.59749e-05 0.0724133)
(-0.000151027 0.000151063 0.10655)
(2.47517e-06 1.45396e-05 0.0898107)
(-1.43022e-05 -2.37198e-06 0.089815)
(-1.87757e-05 3.56721e-05 0.0898157)
(-3.55645e-05 1.88826e-05 0.0898174)
(5.03428e-06 -5.80519e-06 0.0724482)
(-1.59358e-05 3.47117e-06 0.0724112)
(6.21038e-05 6.28726e-06 0.103006)
(7.53423e-05 3.08051e-05 0.0963597)
(0.000104733 2.12143e-05 0.108055)
(9.51068e-05 5.8937e-05 0.107612)
(0.00012627 7.4638e-06 0.102968)
(3.01817e-05 1.9626e-06 0.0963694)
(0.000104328 2.10715e-05 0.108126)
(2.08569e-05 -2.16109e-06 0.094751)
(3.83547e-05 2.76501e-06 0.0840946)
(7.04854e-05 -2.92141e-06 0.0947944)
(-1.12101e-06 5.25821e-06 0.0840813)
(6.21154e-05 -6.41098e-06 0.103006)
(0.000104744 -2.13344e-05 0.108055)
(7.53814e-05 -3.0908e-05 0.0963593)
(9.50893e-05 -5.91229e-05 0.107611)
(0.000126262 -7.65093e-06 0.102968)
(0.000104334 -2.11994e-05 0.108126)
(3.03568e-05 -2.03304e-06 0.0963678)
(6.69426e-05 2.56042e-06 0.0946027)
(-2.3642e-06 -4.82929e-06 0.0839464)
(3.66761e-05 -2.38349e-06 0.0839547)
(1.79568e-05 1.88996e-06 0.0945639)
(0.000122478 7.02133e-06 0.102849)
(9.46777e-05 5.87e-05 0.107666)
(2.77829e-05 1.3389e-06 0.0962019)
(0.000103577 2.07988e-05 0.108267)
(7.25789e-05 2.9564e-05 0.0961901)
(0.000103958 2.09358e-05 0.108197)
(5.87291e-05 5.70999e-06 0.102883)
(6.69527e-05 -2.64184e-06 0.0946026)
(-2.22331e-06 4.94535e-06 0.0839452)
(3.67579e-05 2.38163e-06 0.0839542)
(1.79597e-05 -1.85301e-06 0.0945637)
(0.00012248 -7.16313e-06 0.102849)
(9.46403e-05 -5.88622e-05 0.107665)
(0.000103569 -2.09063e-05 0.108267)
(2.79173e-05 -1.26044e-06 0.0962001)
(0.000103949 -2.10547e-05 0.108197)
(7.26094e-05 -2.95956e-05 0.0961898)
(5.87452e-05 -5.76749e-06 0.102883)
(-2.08952e-05 2.21625e-06 0.0947521)
(1.24686e-06 -5.14497e-06 0.0840836)
(-6.20984e-05 -6.36094e-06 0.103005)
(-9.50148e-05 -5.90655e-05 0.107611)
(-0.000104279 -2.1198e-05 0.108126)
(-3.03168e-05 -2.13713e-06 0.0963694)
(-2.08658e-05 -2.09728e-06 0.0947507)
(1.20773e-06 5.17025e-06 0.0840812)
(-0.000122373 6.99595e-06 0.102849)
(-9.45887e-05 5.87144e-05 0.107666)
(-2.78454e-05 1.4582e-06 0.0962044)
(-0.000103501 2.08121e-05 0.108267)
(-7.24393e-05 2.96243e-05 0.09619)
(-0.000103894 2.09582e-05 0.108197)
(-5.87233e-05 5.79612e-06 0.102883)
(-6.68665e-05 2.52764e-06 0.0946013)
(2.36967e-06 -4.83728e-06 0.0839478)
(-3.66232e-05 -2.26215e-06 0.0839532)
(-1.80069e-05 1.95749e-06 0.0945649)
(-0.0001224 -7.15062e-06 0.102849)
(-9.45389e-05 -5.88177e-05 0.107665)
(-0.000103494 -2.09112e-05 0.108267)
(-2.7952e-05 -1.41153e-06 0.0962018)
(-0.000103879 -2.10535e-05 0.108197)
(-7.25088e-05 -2.96509e-05 0.0961894)
(-5.86607e-05 -5.73438e-06 0.102882)
(-6.69062e-05 -2.67813e-06 0.094602)
(2.32115e-06 4.85265e-06 0.0839452)
(-3.67218e-05 2.31667e-06 0.0839536)
(-1.79765e-05 -1.82915e-06 0.0945636)
(3.70114e-05 -1.94179e-05 0.0899732)
(1.95265e-05 -3.69168e-05 0.0899753)
(1.40924e-05 -1.40313e-05 0.106681)
(1.57042e-05 2.07208e-06 0.0899615)
(-1.91787e-06 -1.55879e-05 0.0899656)
(3.49031e-06 -1.6363e-05 0.0725069)
(-5.86704e-06 4.8223e-06 0.0725365)
(-4.9436e-06 5.91016e-06 0.0724446)
(1.59924e-05 -3.42216e-06 0.0724135)
(0.000151051 -0.000151063 0.10655)
(1.43814e-05 2.39838e-06 0.0898089)
(-2.22811e-06 -1.42625e-05 0.089813)
(3.56535e-05 -1.88012e-05 0.0898165)
(1.8922e-05 -3.55307e-05 0.0898184)
(-5.76225e-06 5.04232e-06 0.0724454)
(3.5313e-06 -1.59523e-05 0.0724136)
(-6.38351e-06 -6.21509e-05 0.103006)
(-2.12974e-05 -0.000104763 0.108055)
(-3.09008e-05 -7.54035e-05 0.0963589)
(-5.89349e-05 -9.51175e-05 0.107612)
(-7.54672e-06 -0.000126262 0.102967)
(-2.11491e-05 -0.00010434 0.108126)
(-2.08991e-06 -3.02427e-05 0.0963679)
(2.17787e-06 -2.0917e-05 0.0947504)
(-2.63638e-06 -3.82701e-05 0.0840949)
(2.95367e-06 -7.04805e-05 0.0947934)
(-5.06551e-06 1.29157e-06 0.0840815)
(-2.08704e-06 -2.08939e-05 0.0947509)
(2.74325e-06 -3.8338e-05 0.0840945)
(-2.81625e-06 -7.04779e-05 0.0947928)
(5.20251e-06 1.17814e-06 0.0840811)
(7.12688e-06 -0.000122468 0.102849)
(5.86527e-05 -9.46247e-05 0.107666)
(2.08381e-05 -0.000103593 0.108267)
(1.49827e-06 -2.7754e-05 0.0962021)
(2.0973e-05 -0.00010401 0.108197)
(2.9698e-05 -7.24971e-05 0.0961909)
(5.75024e-06 -5.8758e-05 0.102882)
(-7.05988e-06 -0.000122436 0.102848)
(-5.86915e-05 -9.46585e-05 0.107666)
(-2.08629e-05 -0.000103561 0.108267)
(-1.34915e-06 -2.77826e-05 0.0962003)
(-2.10027e-05 -0.000103973 0.108197)
(-2.9623e-05 -7.25962e-05 0.0961896)
(-5.74678e-06 -5.87594e-05 0.102883)
(2.7149e-06 -6.69365e-05 0.0946016)
(-4.75529e-06 2.38668e-06 0.0839456)
(-2.23948e-06 -3.66503e-05 0.0839545)
(1.93476e-06 -1.80256e-05 0.0945632)
(-2.54894e-06 -6.69362e-05 0.0946011)
(4.86838e-06 2.28292e-06 0.0839452)
(2.35578e-06 -3.67114e-05 0.0839541)
(-1.80312e-06 -1.79968e-05 0.0945638)
(4.77795e-06 5.93482e-06 0.0725363)
(6.00645e-06 4.73754e-06 0.0725355)
(-0.000151057 -0.00015108 0.10655)
(-1.43169e-05 2.35102e-06 0.0898121)
(2.38285e-06 -1.43104e-05 0.0898089)
(-3.56137e-05 -1.88736e-05 0.0898172)
(-1.87997e-05 -3.56386e-05 0.0898163)
(5.00499e-06 5.83468e-06 0.0724452)
(-1.5986e-05 -3.47214e-06 0.0724131)
(5.88275e-06 4.96423e-06 0.0724444)
(-3.43592e-06 -1.59768e-05 0.0724133)
(3.64605e-06 1.56387e-05 0.0723249)
(-5.68075e-06 -5.23098e-06 0.0723588)
(1.55685e-05 3.46171e-06 0.0723239)
(-5.25001e-06 -5.71643e-06 0.0723581)
(1.83435e-05 3.44145e-05 0.0896701)
(3.43152e-05 1.82651e-05 0.0896668)
(1.11989e-05 1.12248e-05 0.106762)
(-2.53193e-06 1.30203e-05 0.0896678)
(1.30295e-05 -2.57959e-06 0.0896655)
(-1.59846e-06 1.52906e-05 0.0943851)
(2.06744e-06 3.52838e-05 0.0838212)
(-2.35868e-06 6.3633e-05 0.0944194)
(4.57264e-06 -3.25476e-06 0.0838165)
(5.19513e-06 5.52897e-05 0.102755)
(2.85464e-05 6.99314e-05 0.0960265)
(2.07174e-05 0.000103151 0.108337)
(5.80774e-05 9.32243e-05 0.107821)
(6.62749e-06 0.000118595 0.102725)
(7.69614e-07 2.55009e-05 0.0960401)
(2.05771e-05 0.000102772 0.108405)
(-5.1206e-06 5.52923e-05 0.102755)
(-2.83652e-05 6.99909e-05 0.0960257)
(-2.07229e-05 0.000103185 0.108337)
(-5.80584e-05 9.33196e-05 0.107821)
(-6.60595e-06 0.000118612 0.102725)
(-6.84478e-07 2.56075e-05 0.0960382)
(-2.05765e-05 0.000102801 0.108405)
(-1.80127e-05 3.437e-05 0.0896666)
(-3.4267e-05 1.8287e-05 0.0896682)
(-1.11587e-05 1.12664e-05 0.106761)
(2.59545e-06 1.31369e-05 0.0896654)
(-1.30659e-05 -2.64833e-06 0.0896695)
(-1.55093e-05 3.47474e-06 0.0723223)
(5.2592e-06 -5.71129e-06 0.0723613)
(5.53967e-05 5.13879e-06 0.102755)
(6.99424e-05 2.84358e-05 0.096026)
(0.000103211 2.0661e-05 0.108337)
(9.32964e-05 5.78987e-05 0.107821)
(0.000118664 6.57105e-06 0.102725)
(2.5495e-05 7.18633e-07 0.0960397)
(0.000102826 2.05158e-05 0.108405)
(1.53023e-05 -1.5753e-06 0.0943848)
(3.52942e-05 2.07173e-06 0.083821)
(6.36849e-05 -2.35168e-06 0.094419)
(-3.17132e-06 4.68123e-06 0.0838162)
(5.54047e-05 -5.14451e-06 0.102755)
(0.000103198 -2.07528e-05 0.108337)
(6.99829e-05 -2.83967e-05 0.0960256)
(9.32586e-05 -5.80097e-05 0.107821)
(0.000118677 -6.64919e-06 0.102725)
(0.000102822 -2.06069e-05 0.108405)
(2.56293e-05 -5.68313e-07 0.0960379)
(-1.53383e-05 1.74023e-06 0.0943862)
(-3.51487e-05 -1.94878e-06 0.0838202)
(-6.35852e-05 2.29228e-06 0.094418)
(3.33633e-06 -4.57699e-06 0.083819)
(-5.53119e-05 -5.14256e-06 0.102755)
(-0.000103114 -2.07578e-05 0.108337)
(-6.98955e-05 -2.84654e-05 0.0960253)
(-9.30968e-05 -5.79816e-05 0.107821)
(-0.00011856 -6.65067e-06 0.102725)
(-0.000102736 -2.06184e-05 0.108405)
(-2.56716e-05 -7.07822e-07 0.0960395)
(-1.532e-05 -1.57497e-06 0.0943849)
(-3.52506e-05 1.99683e-06 0.0838205)
(-6.36244e-05 -2.4182e-06 0.0944186)
(3.29124e-06 4.59758e-06 0.0838163)
(3.43645e-05 -1.82164e-05 0.0896673)
(1.83337e-05 -3.42358e-05 0.0896693)
(1.12117e-05 -1.11057e-05 0.106761)
(1.31441e-05 2.66992e-06 0.0896635)
(-2.53516e-06 -1.30397e-05 0.0896676)
(3.54717e-06 -1.55659e-05 0.0723247)
(-5.67835e-06 5.23338e-06 0.0723585)
(-5.12633e-06 -5.54053e-05 0.102755)
(-2.07095e-05 -0.000103212 0.108336)
(-2.84163e-05 -6.99141e-05 0.0960256)
(-5.78657e-05 -9.32646e-05 0.107821)
(-6.55245e-06 -0.000118616 0.102724)
(-2.05638e-05 -0.000102805 0.108405)
(-6.56764e-07 -2.54698e-05 0.0960381)
(1.68183e-06 -1.53745e-05 0.0943845)
(-1.92292e-06 -3.5195e-05 0.0838215)
(2.48254e-06 -6.36486e-05 0.0944182)
(-4.50387e-06 3.34096e-06 0.0838167)
(-1.56867e-06 -1.53464e-05 0.094385)
(2.0208e-06 -3.52403e-05 0.0838211)
(-2.30069e-06 -6.36464e-05 0.0944176)
(4.60908e-06 3.23499e-06 0.0838162)
(-1.55879e-05 -3.49559e-06 0.0723242)
(5.20185e-06 5.74097e-06 0.0723583)
(-3.47029e-06 -1.55796e-05 0.0723244)
(5.78016e-06 5.1646e-06 0.0723575)
(-1.09243e-06 1.33189e-05 0.0780383)
(2.72407e-06 6.86333e-05 0.0946976)
(2.83018e-07 -1.02847e-05 0.0799122)
(4.23241e-06 1.38951e-05 0.0928161)
(1.47518e-07 8.37654e-06 0.0798527)
(6.45118e-06 5.91278e-05 0.0927535)
(2.13946e-07 -6.16924e-06 0.0781088)
(2.35489e-06 -6.69233e-06 0.0694215)
(5.36091e-06 3.91724e-05 0.0880756)
(-5.5678e-06 -6.68423e-07 0.0841524)
(8.99525e-07 1.24601e-05 0.069327)
(3.73069e-06 3.61419e-06 0.0881443)
(-4.31383e-08 -6.26526e-06 0.0781574)
(2.28173e-06 2.23725e-05 0.0948479)
(5.86317e-08 8.1549e-06 0.0799014)
(6.67297e-06 6.06482e-05 0.0928435)
(-1.33451e-06 1.32383e-05 0.0780871)
(2.10985e-07 -1.05232e-05 0.0799606)
(4.42095e-06 1.51909e-05 0.0929058)
(9.27014e-07 1.23402e-05 0.0692837)
(3.68465e-06 2.90603e-06 0.0880649)
(-2.50859e-06 3.74744e-05 0.0840234)
(5.31229e-06 3.82273e-05 0.0879958)
(2.43103e-06 -6.74029e-06 0.0693781)
(6.07567e-06 -4.6938e-06 0.0725839)
(-3.32051e-06 1.61816e-05 0.0724591)
(1.33355e-05 -1.0693e-06 0.0780389)
(6.8681e-05 2.67189e-06 0.0946976)
(1.39501e-05 4.15e-06 0.0928164)
(-1.02901e-05 2.82552e-07 0.0799126)
(5.92031e-05 6.41011e-06 0.0927539)
(8.38239e-06 1.56225e-07 0.0798528)
(-6.17656e-06 1.56106e-07 0.0781095)
(-6.73975e-06 2.32933e-06 0.0694225)
(3.9194e-05 5.3512e-06 0.0880763)
(-6.21679e-07 -5.39278e-06 0.0841531)
(1.25064e-05 8.8712e-07 0.069328)
(3.595e-06 3.73222e-06 0.0881449)
(-6.2678e-06 -7.66497e-08 0.0781583)
(2.23983e-05 2.22524e-06 0.0948479)
(6.07048e-05 6.61266e-06 0.0928439)
(8.1612e-06 3.94847e-08 0.0799016)
(1.32598e-05 -1.34857e-06 0.0780878)
(1.52316e-05 4.37758e-06 0.0929061)
(-1.05187e-05 1.96851e-07 0.0799611)
(1.23915e-05 9.56763e-07 0.0692848)
(2.8626e-06 3.57101e-06 0.0880655)
(3.74699e-05 -2.7e-06 0.0840241)
(3.83079e-05 5.21075e-06 0.0879965)
(-6.79792e-06 2.36327e-06 0.069379)
(-4.60006e-06 6.06168e-06 0.0725829)
(1.61968e-05 -3.41129e-06 0.0724596)
(-2.75155e-05 -2.75525e-05 0.0856507)
(-3.92706e-07 6.27393e-06 0.0695837)
(6.29944e-06 -4.18385e-07 0.069577)
(-1.0034e-05 -1.20228e-05 0.0695012)
(-1.19626e-05 -1.00976e-05 0.069495)
(-8.47342e-06 -8.49765e-06 0.085704)
(-1.61522e-05 -2.09028e-05 0.0946915)
(-1.63292e-05 1.85296e-06 0.0900438)
(-3.2837e-05 -3.54524e-05 0.10001)
(-1.24334e-05 6.99538e-06 0.083476)
(-2.08345e-05 -1.61216e-05 0.0946828)
(1.90502e-06 -1.63789e-05 0.0900408)
(-3.53378e-05 -3.28815e-05 0.100005)
(7.05044e-06 -1.24614e-05 0.08347)
(-8.95556e-06 -8.95779e-06 0.0857764)
(-5.57842e-07 6.26976e-06 0.0696321)
(6.29147e-06 -5.79039e-07 0.0696254)
(-6.92069e-05 -4.42882e-05 0.0945368)
(-1.19593e-05 6.88016e-06 0.0834101)
(-3.62848e-05 -1.91825e-05 0.0898946)
(-3.16642e-05 -3.41965e-05 0.0999311)
(-9.96087e-05 -6.26909e-05 0.0998517)
(-3.07709e-05 -5.77558e-06 0.0833396)
(-1.53322e-05 -1.99923e-05 0.0946079)
(-4.42594e-05 -6.92238e-05 0.094529)
(6.93683e-06 -1.19707e-05 0.0834041)
(-1.91106e-05 -3.63222e-05 0.0898935)
(-3.40569e-05 -3.16959e-05 0.0999268)
(-6.26578e-05 -9.96546e-05 0.0998486)
(-5.73195e-06 -3.08951e-05 0.0833355)
(-1.98845e-05 -1.5314e-05 0.0945992)
(-2.12775e-07 1.35739e-05 0.0778569)
(2.28608e-06 6.20733e-05 0.0943308)
(4.60467e-07 -9.14571e-06 0.0797348)
(3.46222e-06 9.44578e-06 0.0924799)
(4.08046e-07 9.41908e-06 0.0796746)
(5.76169e-06 5.37149e-05 0.092416)
(8.42034e-07 -5.82643e-06 0.0779274)
(2.49396e-06 -7.00028e-06 0.0692538)
(4.97671e-06 3.57427e-05 0.0877695)
(-4.5685e-06 -2.83965e-06 0.0838806)
(1.09802e-06 1.19758e-05 0.0691604)
(3.26719e-06 9.4128e-07 0.0878398)
(7.68992e-07 -5.90272e-06 0.0779709)
(1.81438e-06 1.65778e-05 0.0944736)
(3.7231e-07 9.14248e-06 0.0797168)
(5.9348e-06 5.49861e-05 0.0924971)
(-4.29003e-07 1.35114e-05 0.0779003)
(4.66672e-07 -9.45453e-06 0.0797769)
(3.69048e-06 1.04961e-05 0.0925607)
(1.22903e-06 1.19861e-05 0.0691217)
(3.06368e-06 3.76554e-07 0.0877689)
(-1.80166e-06 3.45189e-05 0.0837575)
(4.83425e-06 3.50854e-05 0.0876984)
(2.4768e-06 -7.03112e-06 0.0692146)
(5.82112e-06 -5.03316e-06 0.0724012)
(-3.54036e-06 1.55621e-05 0.0722814)
(1.35718e-05 -1.86576e-07 0.0778571)
(6.21391e-05 2.28294e-06 0.0943305)
(9.49658e-06 3.47402e-06 0.0924798)
(-9.13119e-06 5.36615e-07 0.0797348)
(5.37689e-05 5.73853e-06 0.092416)
(9.43244e-06 4.57595e-07 0.0796744)
(-5.82874e-06 9.09592e-07 0.0779277)
(-6.97976e-06 2.54209e-06 0.0692547)
(3.5829e-05 4.97956e-06 0.0877701)
(-2.85447e-06 -4.66885e-06 0.083881)
(1.21038e-05 1.22042e-06 0.0691615)
(9.4682e-07 3.25551e-06 0.0878403)
(-5.91825e-06 7.59099e-07 0.0779713)
(1.66037e-05 1.79064e-06 0.0944734)
(5.50397e-05 5.89414e-06 0.0924972)
(9.16378e-06 4.02336e-07 0.0797168)
(1.35254e-05 -3.6785e-07 0.0779007)
(1.05237e-05 3.63877e-06 0.0925607)
(-9.43629e-06 4.91686e-07 0.079777)
(1.19975e-05 1.28969e-06 0.0691224)
(3.68694e-07 3.12488e-06 0.0877693)
(3.45301e-05 -1.82334e-06 0.0837578)
(3.50781e-05 4.87345e-06 0.0876988)
(-7.02235e-06 2.57143e-06 0.0692153)
(-5.04745e-06 5.85955e-06 0.0724006)
(1.54111e-05 -3.45013e-06 0.0722817)
(-2.55449e-05 -2.55837e-05 0.0853785)
(2.47513e-07 6.23077e-06 0.0694008)
(6.23486e-06 2.48139e-07 0.0693942)
(-9.44151e-06 -1.17145e-05 0.0693187)
(-1.16541e-05 -9.48995e-06 0.0693125)
(-6.75242e-06 -6.75973e-06 0.0854334)
(-1.2981e-05 -1.74356e-05 0.0943684)
(-9.5318e-05 -5.89756e-05 0.0996209)
(-2.93678e-05 -5.98605e-06 0.0831504)
(-1.36803e-05 2.50496e-06 0.0897385)
(-6.60658e-05 -4.15168e-05 0.0942968)
(-2.83516e-05 -3.06987e-05 0.0996998)
(-1.05359e-05 6.54377e-06 0.0832212)
(-1.7292e-05 -1.29398e-05 0.0943596)
(-5.89098e-05 -9.53304e-05 0.0996179)
(-5.94739e-06 -2.94609e-05 0.0831462)
(2.52043e-06 -1.36781e-05 0.0897354)
(-4.14738e-05 -6.61076e-05 0.094289)
(-3.04731e-05 -2.83251e-05 0.0996954)
(6.58566e-06 -1.05249e-05 0.0832151)
(-7.15148e-06 -7.17135e-06 0.0854984)
(-9.58686e-06 -1.1786e-05 0.0693628)
(-1.17228e-05 -9.64192e-06 0.0693566)
(-2.60128e-05 -2.60594e-05 0.0854438)
(9.97047e-08 6.24163e-06 0.069445)
(6.25964e-06 8.916e-08 0.0694383)
(-6.50909e-05 -4.06643e-05 0.0942204)
(-1.00768e-05 6.45865e-06 0.083161)
(-3.37121e-05 -1.80212e-05 0.0895962)
(-2.72785e-05 -2.9556e-05 0.0996243)
(-9.39443e-05 -5.77947e-05 0.0995456)
(-2.88972e-05 -6.04415e-06 0.0830902)
(-1.22166e-05 -1.66089e-05 0.0942921)
(-4.06132e-05 -6.51145e-05 0.0942127)
(6.47955e-06 -1.00614e-05 0.083155)
(-1.79681e-05 -3.36982e-05 0.0895954)
(-2.93333e-05 -2.72506e-05 0.0996199)
(-5.77294e-05 -9.39566e-05 0.0995426)
(-6.01309e-06 -2.89827e-05 0.083086)
(-1.65051e-05 -1.22031e-05 0.0942834)
(-6.25445e-06 -4.89559e-06 0.0725839)
(3.42746e-06 1.61171e-05 0.0724596)
(-4.5152e-06 -6.05822e-06 0.0725832)
(1.61436e-05 3.27296e-06 0.072459)
(2.74849e-05 2.74713e-05 0.0856508)
(-6.23944e-06 3.83387e-07 0.0695846)
(3.24076e-07 -6.21621e-06 0.0695776)
(1.19449e-05 1.00082e-05 0.0695014)
(1.00615e-05 1.19422e-05 0.0694946)
(8.43153e-06 8.46144e-06 0.0857054)
(2.08281e-05 1.59868e-05 0.0946929)
(6.40417e-05 0.000101057 0.0999312)
(5.80081e-06 3.12765e-05 0.0834075)
(-1.95485e-06 1.61467e-05 0.0900451)
(4.52115e-05 7.0276e-05 0.0946213)
(-7.08727e-06 1.23272e-05 0.0834778)
(3.53587e-05 3.27319e-05 0.100011)
(1.61431e-05 2.06879e-05 0.0946847)
(0.000100986 6.38676e-05 0.0999268)
(3.12685e-05 5.5427e-06 0.0834012)
(1.64035e-05 -2.00496e-06 0.0900427)
(7.01882e-05 4.51651e-05 0.0946125)
(1.24485e-05 -7.20721e-06 0.0834718)
(3.28039e-05 3.52627e-05 0.100007)
(8.83573e-06 8.69982e-06 0.0857779)
(1.21911e-05 1.03679e-05 0.0695503)
(1.01513e-05 1.20631e-05 0.0695433)
(2.79663e-05 2.81035e-05 0.0857239)
(-6.35342e-06 3.60341e-07 0.0696334)
(4.54629e-07 -6.59316e-06 0.0696262)
(4.42326e-05 6.91675e-05 0.0945374)
(-6.8226e-06 1.19127e-05 0.0834117)
(1.91461e-05 3.62826e-05 0.0898962)
(3.41363e-05 3.1618e-05 0.0999322)
(5.70495e-06 3.0774e-05 0.083341)
(1.99888e-05 1.52782e-05 0.0946093)
(6.26975e-05 9.96386e-05 0.0998528)
(6.91277e-05 4.41825e-05 0.0945288)
(1.18794e-05 -6.85961e-06 0.0834058)
(3.61933e-05 1.90373e-05 0.0898934)
(3.15793e-05 3.40193e-05 0.0999288)
(3.08203e-05 5.74378e-06 0.0833352)
(1.52444e-05 1.98742e-05 0.0946011)
(9.95004e-05 6.25545e-05 0.0998485)
(3.5767e-06 1.57834e-05 0.0723687)
(-5.9862e-06 -4.98003e-06 0.0724907)
(1.57682e-05 3.41541e-06 0.0723678)
(-4.89074e-06 -5.98291e-06 0.0724898)
(8.01886e-06 7.96317e-06 0.0856351)
(1.19313e-05 9.94339e-06 0.0694543)
(9.91571e-06 1.19725e-05 0.0694475)
(2.70114e-05 2.70451e-05 0.08558)
(-6.2238e-06 1.8622e-07 0.0695374)
(2.03654e-07 -6.30886e-06 0.0695304)
(4.24405e-05 6.71513e-05 0.0943759)
(3.17968e-05 2.94052e-05 0.0997772)
(1.86037e-05 3.50161e-05 0.0897436)
(-6.62233e-06 1.10141e-05 0.0832844)
(5.95447e-06 2.98783e-05 0.0832137)
(6.0243e-05 9.68002e-05 0.0996984)
(1.82545e-05 1.37373e-05 0.0944478)
(6.71036e-05 4.23991e-05 0.094367)
(2.94172e-05 3.16734e-05 0.0997738)
(3.49553e-05 1.84915e-05 0.0897405)
(1.09775e-05 -6.68344e-06 0.0832784)
(2.98932e-05 5.93578e-06 0.0832074)
(9.67013e-05 6.0109e-05 0.0996938)
(1.37103e-05 1.81328e-05 0.0944396)
(1.91088e-05 1.44596e-05 0.0945276)
(5.89303e-06 3.03303e-05 0.0832766)
(6.14581e-05 9.82014e-05 0.0997752)
(-2.20957e-06 1.48655e-05 0.0898887)
(4.33374e-05 6.81675e-05 0.0944557)
(-6.68879e-06 1.14254e-05 0.0833473)
(3.29396e-05 3.04697e-05 0.0998544)
(1.45192e-05 1.8981e-05 0.0945194)
(3.03374e-05 5.84243e-06 0.0832704)
(9.81086e-05 6.13306e-05 0.0997707)
(1.49505e-05 -2.30277e-06 0.0898862)
(6.80987e-05 4.3314e-05 0.0944469)
(1.14784e-05 -6.79503e-06 0.0833414)
(3.05382e-05 3.28405e-05 0.0998509)
(2.65425e-05 2.65448e-05 0.0855111)
(-6.35706e-06 4.05397e-08 0.0694912)
(7.79909e-09 -6.305e-06 0.0694841)
(1.1868e-05 9.78183e-06 0.0694084)
(9.80229e-06 1.18815e-05 0.0694014)
(7.53074e-06 7.54037e-06 0.0855666)
(1.00696e-06 1.33452e-05 0.0780383)
(-2.73737e-06 6.86477e-05 0.0946977)
(-2.54704e-07 -1.02844e-05 0.0799123)
(-4.16098e-06 1.39374e-05 0.0928155)
(-1.72369e-07 8.38371e-06 0.0798529)
(-6.4684e-06 5.91723e-05 0.0927542)
(-1.53847e-07 -6.15736e-06 0.0781084)
(-2.32299e-06 -6.71049e-06 0.069423)
(-5.35138e-06 3.91922e-05 0.0880767)
(5.40835e-06 -5.8782e-07 0.0841521)
(-8.59472e-07 1.2477e-05 0.0693294)
(-3.76223e-06 3.6497e-06 0.0881438)
(7.45048e-08 -6.24723e-06 0.0781571)
(-2.24181e-06 2.23796e-05 0.0948478)
(-5.58205e-08 8.16178e-06 0.0799016)
(-6.65509e-06 6.06691e-05 0.0928443)
(-1.79902e-07 -1.05197e-05 0.0799607)
(1.35715e-06 1.32501e-05 0.0780871)
(-4.39151e-06 1.52256e-05 0.0929051)
(-9.98824e-07 1.24749e-05 0.0692861)
(-3.61515e-06 2.92149e-06 0.0880645)
(2.55207e-06 3.75455e-05 0.0840232)
(-5.31003e-06 3.8357e-05 0.0879969)
(-2.36718e-06 -6.74005e-06 0.0693796)
(4.26448e-07 -6.07697e-06 0.0780615)
(2.23626e-07 8.61914e-06 0.0798058)
(6.26315e-06 5.7667e-05 0.0926658)
(2.01677e-06 1.93418e-05 0.0946566)
(-8.68793e-07 1.33767e-05 0.077991)
(3.35689e-07 -1.00263e-05 0.0798655)
(4.01602e-06 1.26761e-05 0.0927288)
(1.03246e-06 1.21329e-05 0.0692008)
(-1.95371e-06 3.58819e-05 0.0838871)
(3.36662e-06 1.31427e-06 0.0879127)
(2.22882e-06 -7.23221e-06 0.0692941)
(5.1466e-06 3.64599e-05 0.0878429)
(2.48216e-06 -6.74995e-06 0.0693357)
(5.238e-06 3.73205e-05 0.0879183)
(-4.99475e-06 -1.84799e-06 0.0840129)
(9.99324e-07 1.21966e-05 0.0692417)
(3.54959e-06 2.22793e-06 0.0879879)
(-7.02535e-07 1.34339e-05 0.077945)
(2.48153e-06 6.52233e-05 0.09451)
(3.55904e-07 -9.75714e-06 0.0798205)
(3.76996e-06 1.14979e-05 0.0926436)
(3.51123e-07 -6.06827e-06 0.0780155)
(2.66879e-07 8.88792e-06 0.0797606)
(6.04131e-06 5.6262e-05 0.0925804)
(-3.32398e-07 -6.0806e-06 0.0780611)
(-2.32444e-07 8.62566e-06 0.079806)
(-6.24266e-06 5.77218e-05 0.0926665)
(-1.9721e-06 1.93538e-05 0.0946565)
(8.28439e-07 1.33976e-05 0.0779909)
(-3.1139e-07 -1.00255e-05 0.0798657)
(-3.94877e-06 1.27213e-05 0.0927281)
(-1.05892e-06 1.22092e-05 0.0692029)
(2.15414e-06 3.60124e-05 0.0838867)
(-3.39786e-06 1.58777e-06 0.0879124)
(-5.05957e-06 3.66367e-05 0.0878439)
(-2.43167e-06 -6.90536e-06 0.0692958)
(-2.37531e-06 -6.83071e-06 0.0693371)
(-5.16463e-06 3.74448e-05 0.0879193)
(5.00396e-06 -1.7673e-06 0.0840123)
(-9.98513e-07 1.23087e-05 0.069244)
(-3.46324e-06 2.23462e-06 0.0879874)
(6.17881e-07 1.34716e-05 0.0779449)
(-2.4703e-06 6.5238e-05 0.0945101)
(-3.84403e-07 -9.75197e-06 0.0798206)
(-3.77444e-06 1.15867e-05 0.092643)
(-2.86544e-07 8.89301e-06 0.0797607)
(-6.05333e-06 5.63388e-05 0.092581)
(-5.32607e-07 -5.98554e-06 0.0780151)
(-2.75302e-05 2.75744e-05 0.0856513)
(6.29442e-06 3.56191e-07 0.0695786)
(-4.05853e-07 -6.3183e-06 0.069584)
(-1.20091e-05 1.01217e-05 0.0694955)
(-1.00146e-05 1.20213e-05 0.069501)
(-8.48587e-06 8.42445e-06 0.0857053)
(-2.08574e-05 1.61267e-05 0.0946843)
(1.88224e-06 1.63513e-05 0.0900426)
(7.01207e-06 1.24655e-05 0.0834718)
(-3.54097e-05 3.28727e-05 0.100007)
(-1.61522e-05 2.08788e-05 0.0946933)
(-1.63547e-05 -1.86735e-06 0.0900465)
(-3.2877e-05 3.53954e-05 0.100012)
(-1.2436e-05 -7.05282e-06 0.0834778)
(-8.98126e-06 8.90596e-06 0.0857778)
(6.26945e-06 5.22408e-07 0.0696269)
(-5.82407e-07 -6.32164e-06 0.0696324)
(-4.42792e-05 6.92194e-05 0.0945289)
(6.8918e-06 1.20038e-05 0.0834061)
(-1.9074e-05 3.63397e-05 0.0898929)
(-3.41612e-05 3.17062e-05 0.0999282)
(-5.75901e-06 3.08697e-05 0.0833349)
(-6.26261e-05 9.96536e-05 0.0998484)
(-1.99264e-05 1.53151e-05 0.0946008)
(-6.91971e-05 4.43192e-05 0.0945378)
(-1.19581e-05 -6.93039e-06 0.0834119)
(-3.62271e-05 1.91921e-05 0.0898949)
(-3.1715e-05 3.41444e-05 0.0999332)
(-9.95402e-05 6.27299e-05 0.0998526)
(-3.07414e-05 5.81298e-06 0.0833406)
(-1.53265e-05 1.99628e-05 0.0946096)
(4.6515e-06 -5.9678e-06 0.0725859)
(-1.6136e-05 3.46352e-06 0.0724575)
(-3.40369e-06 1.5827e-05 0.0723683)
(5.92304e-06 -4.90117e-06 0.0724903)
(-8.03464e-06 7.9092e-06 0.0856348)
(-1.19237e-05 9.98701e-06 0.0694483)
(-9.87966e-06 1.1934e-05 0.0694538)
(-2.70191e-05 2.70652e-05 0.0855805)
(6.33166e-06 1.41973e-07 0.0695313)
(-2.57756e-07 -6.33054e-06 0.0695367)
(-4.23917e-05 6.71005e-05 0.094367)
(-3.17208e-05 2.94693e-05 0.0997731)
(-1.84569e-05 3.50524e-05 0.0897402)
(6.78753e-06 1.10775e-05 0.083279)
(-6.00799e-05 9.67901e-05 0.0996938)
(-5.86806e-06 2.9929e-05 0.0832071)
(-1.81262e-05 1.36776e-05 0.0944393)
(-6.70939e-05 4.24256e-05 0.0943761)
(-2.9461e-05 3.17293e-05 0.0997782)
(-3.48821e-05 1.85698e-05 0.0897419)
(-1.10044e-05 -6.72957e-06 0.0832845)
(-2.98168e-05 5.94214e-06 0.0832129)
(-9.66893e-05 6.02059e-05 0.099698)
(-1.37368e-05 1.81742e-05 0.094448)
(-1.90237e-05 1.44939e-05 0.0945191)
(-5.82687e-06 3.03982e-05 0.0832702)
(-6.13583e-05 9.8208e-05 0.0997707)
(2.242e-06 1.50156e-05 0.089886)
(-3.29283e-05 3.05687e-05 0.0998503)
(-4.33224e-05 6.8152e-05 0.094447)
(6.83062e-06 1.15265e-05 0.0833417)
(-1.45266e-05 1.90482e-05 0.0945279)
(-3.02771e-05 5.8877e-06 0.083276)
(-9.80993e-05 6.14572e-05 0.0997749)
(-1.49711e-05 -2.20561e-06 0.0898904)
(-6.81354e-05 4.33704e-05 0.0944561)