/*--------------------------------*- C++ -*----------------------------------*\
| =========                 |                                                 |
| \\      /  F ield         | OpenFOAM: The Open Source CFD Toolbox           |
|  \\    /   O peration     | Version:  2312                                  |
|   \\  /    A nd           | Website:  www.openfoam.com                      |
|    \\/     M anipulation  |                                                 |
\*---------------------------------------------------------------------------*/
FoamFile
{
    version     2.0;
    format      ascii;
    arch        "LSB;label=32;scalar=64";
    class       volScalarField;
    location    "50";
    object      nut;
}
// * * * * * * * * * * * * * * * * * * * * * * * * * * * * * * * * * * * * * //

dimensions      [0 2 -1 0 0 0 0];

internalField   nonuniform List<scalar> 
43008
(
0.000196949
0.000155805
0.00019695
0.000155765
0.000155799
0.000128027
0.000127939
0.000128055
0.00015573
0.000155735
0.00015575
0.000155726
0.000128243
0.000155761
0.000155757
0.000155765
0.000155746
0.000155762
0.000155751
0.000127712
0.000128444
0.000155754
0.000155796
0.00015576
0.000128454
0.000128119
0.00015575
0.000155724
0.00012752
0.000155765
0.000155742
0.000155738
0.000127807
0.000155761
3.99323e-05
4.91326e-05
3.99269e-05
4.91308e-05
2.40462e-05
3.99319e-05
4.91251e-05
3.99274e-05
4.9123e-05
0.000196932
0.000196928
0.000196912
0.000196948
0.000196912
0.000196914
0.000196901
6.65552e-05
0.000155766
4.61209e-05
0.000178519
2.40453e-05
2.40457e-05
6.66853e-05
0.000178518
4.61225e-05
0.000155789
6.67613e-05
0.000178515
4.61271e-05
0.000127754
4.21358e-05
4.21788e-05
3.99367e-05
4.91282e-05
3.99296e-05
4.91295e-05
2.40445e-05
2.4045e-05
3.99372e-05
4.91285e-05
3.99285e-05
4.91283e-05
0.000196924
0.000196921
0.000196905
6.69681e-05
4.61106e-05
0.000178518
0.000155763
6.69817e-05
4.61175e-05
0.000178537
2.40442e-05
2.40423e-05
6.66879e-05
0.000178526
4.61157e-05
0.000155791
6.67315e-05
0.000178514
4.61163e-05
4.19254e-05
4.19585e-05
0.000128065
4.2008e-05
4.19524e-05
2.40475e-05
2.40484e-05
2.40451e-05
2.40457e-05
4.23803e-05
4.23878e-05
0.000128197
4.23633e-05
4.23688e-05
2.40477e-05
2.40479e-05
2.40455e-05
2.40453e-05
0.000127676
4.22018e-05
4.22723e-05
4.23514e-05
4.23568e-05
3.99115e-05
4.91289e-05
3.99084e-05
4.91282e-05
6.66618e-05
4.6113e-05
0.000178505
0.000155725
6.6637e-05
4.61188e-05
0.000178486
6.66075e-05
4.6113e-05
0.000178497
0.00015573
6.66586e-05
4.61189e-05
0.00017848
3.99283e-05
4.9128e-05
4.91313e-05
3.99332e-05
3.99084e-05
4.9126e-05
4.91273e-05
3.99117e-05
6.6737e-05
0.000155745
4.61148e-05
0.000178516
4.61146e-05
0.00017851
6.67565e-05
6.6718e-05
0.000155726
4.61185e-05
0.000178492
4.6115e-05
0.00017849
6.67332e-05
0.000127794
4.23606e-05
4.23717e-05
2.40474e-05
2.40455e-05
2.40456e-05
0.000127815
4.23514e-05
4.20722e-05
4.2368e-05
4.2379e-05
2.40462e-05
2.40467e-05
6.66579e-05
4.61157e-05
0.000178516
0.000155748
6.67961e-05
4.61197e-05
0.00017851
3.9912e-05
4.91419e-05
3.99081e-05
4.91352e-05
6.66913e-05
0.000178499
4.61184e-05
0.000155732
6.6544e-05
0.0001785
4.61216e-05
3.99273e-05
4.91275e-05
4.91245e-05
3.99322e-05
6.6683e-05
0.000155759
4.61161e-05
0.000178516
4.61152e-05
0.000178523
6.68032e-05
3.99087e-05
4.91336e-05
4.91331e-05
3.99122e-05
6.66597e-05
0.000155742
0.000178503
4.61177e-05
0.000178505
4.61166e-05
6.66406e-05
3.99007e-05
4.91248e-05
6.65979e-05
0.00015571
0.000178477
4.6109e-05
3.99121e-05
4.91442e-05
6.66598e-05
0.000155762
4.61183e-05
0.000178513
4.61174e-05
0.000178513
6.68949e-05
3.98968e-05
4.91279e-05
4.91269e-05
3.99024e-05
6.65706e-05
0.000155732
0.000178525
4.60989e-05
0.000178511
4.61034e-05
6.65769e-05
3.99083e-05
4.91446e-05
4.9145e-05
3.99104e-05
4.23871e-05
4.2393e-05
0.000128199
4.23689e-05
4.23951e-05
2.40473e-05
2.40478e-05
2.40451e-05
2.40452e-05
0.000127697
4.22438e-05
4.22891e-05
4.23569e-05
4.23928e-05
2.40479e-05
2.40475e-05
6.66619e-05
0.000178504
4.6098e-05
0.00015575
6.67519e-05
0.000178489
4.61048e-05
3.99191e-05
4.91327e-05
3.99171e-05
4.91364e-05
3.99122e-05
4.91211e-05
3.99099e-05
4.91242e-05
6.66367e-05
0.000155789
0.000178522
4.61237e-05
0.000178519
4.61226e-05
6.66665e-05
6.66067e-05
0.000155756
0.000178492
4.60948e-05
0.000178489
4.60972e-05
6.6686e-05
3.99151e-05
4.91415e-05
4.91456e-05
3.99173e-05
3.99081e-05
4.91231e-05
4.91256e-05
3.99103e-05
2.40438e-05
2.40418e-05
0.000127543
4.18287e-05
4.19489e-05
4.21175e-05
4.19205e-05
2.40428e-05
2.40438e-05
2.40416e-05
2.40414e-05
2.40467e-05
2.40457e-05
2.40447e-05
2.4044e-05
4.20792e-05
4.22714e-05
0.000127724
4.20386e-05
4.21906e-05
3.99113e-05
4.91268e-05
3.99098e-05
4.91268e-05
6.68777e-05
4.6109e-05
0.00017851
0.000155732
6.67835e-05
4.61056e-05
0.000178529
6.68305e-05
4.61148e-05
0.000178489
0.000155729
6.67675e-05
4.61159e-05
0.000178478
4.22399e-05
4.21538e-05
0.000128055
4.22961e-05
4.21383e-05
2.40458e-05
2.40454e-05
6.68168e-05
4.61127e-05
0.000178531
0.000155766
6.68635e-05
4.61124e-05
0.000178467
3.99114e-05
4.91314e-05
3.99106e-05
4.91254e-05
6.66187e-05
0.000178495
4.61115e-05
0.000155751
6.66133e-05
0.000178508
4.61049e-05
3.9912e-05
4.91358e-05
3.9901e-05
4.91317e-05
6.66991e-05
0.000178515
4.60931e-05
0.000155743
6.65929e-05
0.000178513
4.60969e-05
3.99116e-05
4.91442e-05
3.99071e-05
4.91418e-05
4.20358e-05
4.22895e-05
0.000127952
4.18884e-05
4.21419e-05
2.4047e-05
2.40463e-05
6.6771e-05
0.000178502
4.60909e-05
0.000155751
6.66625e-05
0.000178527
4.60957e-05
3.99137e-05
4.91391e-05
3.99155e-05
4.91331e-05
3.991e-05
4.9122e-05
3.99087e-05
4.91216e-05
2.40423e-05
2.40415e-05
2.40406e-05
2.40393e-05
3.71047e-05
3.99282e-05
4.19053e-05
4.14783e-05
4.19055e-05
4.15276e-05
3.71049e-05
2.02954e-05
4.80764e-05
4.91306e-05
2.02957e-05
4.7949e-05
3.71046e-05
3.99333e-05
4.19055e-05
4.14352e-05
3.71051e-05
4.19052e-05
4.14718e-05
2.02944e-05
4.80415e-05
4.91311e-05
4.80776e-05
2.02956e-05
2.40461e-05
2.40457e-05
3.71044e-05
3.99283e-05
4.14785e-05
4.19047e-05
4.15248e-05
4.1905e-05
3.71046e-05
2.02943e-05
4.80268e-05
4.91234e-05
2.0294e-05
4.79829e-05
3.71043e-05
3.99336e-05
4.14277e-05
4.1905e-05
3.71048e-05
4.14667e-05
4.19047e-05
2.02931e-05
4.80298e-05
4.91235e-05
4.79963e-05
2.02947e-05
2.40456e-05
2.40452e-05
4.71623e-05
2.15838e-05
2.15808e-05
2.15824e-05
2.15794e-05
4.73272e-05
4.73511e-05
4.20348e-05
5.5735e-05
4.66031e-05
4.73715e-05
4.22061e-05
5.57479e-05
4.65929e-05
4.69615e-05
2.15831e-05
2.15801e-05
4.72726e-05
4.66055e-05
4.21656e-05
5.57334e-05
5.57263e-05
4.66044e-05
4.72482e-05
4.72924e-05
4.65943e-05
4.21805e-05
5.57395e-05
5.57352e-05
4.65937e-05
4.72674e-05
3.71047e-05
3.99335e-05
4.19052e-05
4.12017e-05
4.19055e-05
4.14182e-05
3.71044e-05
2.02943e-05
4.7921e-05
4.91286e-05
2.02927e-05
4.80498e-05
3.71046e-05
3.99375e-05
4.19055e-05
4.14275e-05
3.71049e-05
4.19052e-05
4.1445e-05
2.02931e-05
4.81323e-05
4.91289e-05
4.79552e-05
2.02951e-05
2.40449e-05
2.40448e-05
3.71046e-05
3.99323e-05
4.14822e-05
4.19047e-05
4.15262e-05
4.19049e-05
3.71048e-05
2.02979e-05
4.8262e-05
4.91287e-05
2.02967e-05
4.82087e-05
3.71045e-05
3.99363e-05
4.14371e-05
4.1905e-05
3.71049e-05
4.1475e-05
4.19046e-05
2.02965e-05
4.81707e-05
4.9129e-05
4.81993e-05
2.02972e-05
2.40442e-05
2.40435e-05
4.72309e-05
2.15833e-05
2.15803e-05
2.15822e-05
2.15792e-05
4.71259e-05
4.71996e-05
5.57182e-05
4.66038e-05
4.19621e-05
4.72075e-05
5.57347e-05
4.66032e-05
4.7371e-05
5.57233e-05
4.65931e-05
4.18368e-05
4.74462e-05
5.57382e-05
4.65913e-05
4.7032e-05
2.15811e-05
2.15781e-05
4.71019e-05
2.15821e-05
2.15791e-05
4.71899e-05
4.66024e-05
4.19449e-05
5.57318e-05
5.57219e-05
4.66035e-05
4.71902e-05
4.72938e-05
4.65913e-05
4.194e-05
5.57359e-05
5.57266e-05
4.65915e-05
4.72604e-05
2.40482e-05
2.40479e-05
2.40455e-05
2.40452e-05
4.73132e-05
2.15853e-05
2.15823e-05
2.15845e-05
2.15815e-05
4.71836e-05
4.72021e-05
5.57271e-05
4.66147e-05
4.2384e-05
4.72101e-05
4.66143e-05
5.57407e-05
4.72103e-05
5.572e-05
4.66023e-05
4.23907e-05
4.72171e-05
4.66018e-05
5.57323e-05
4.72913e-05
2.15847e-05
2.15817e-05
4.72644e-05
2.15856e-05
2.15825e-05
4.719e-05
4.66143e-05
4.23809e-05
5.57352e-05
4.66145e-05
4.71762e-05
5.57288e-05
4.7201e-05
4.6602e-05
4.23866e-05
5.57254e-05
4.66023e-05
4.71984e-05
5.57192e-05
2.40477e-05
2.40483e-05
2.40452e-05
2.40456e-05
4.71983e-05
2.15847e-05
2.15816e-05
4.7264e-05
2.15856e-05
2.15823e-05
4.71268e-05
5.57267e-05
4.23085e-05
4.66103e-05
4.66147e-05
5.57207e-05
4.71186e-05
4.72111e-05
5.57265e-05
4.23135e-05
4.66014e-05
4.6602e-05
5.57165e-05
4.72171e-05
4.71442e-05
4.66148e-05
5.5729e-05
4.23274e-05
4.71567e-05
4.66143e-05
5.57351e-05
4.72072e-05
4.66024e-05
5.57203e-05
4.23326e-05
4.7196e-05
4.6602e-05
5.57282e-05
4.72758e-05
2.15853e-05
2.15818e-05
2.15846e-05
2.15811e-05
4.71802e-05
3.71036e-05
3.99078e-05
4.1905e-05
4.12037e-05
4.19052e-05
4.12048e-05
3.71036e-05
2.02978e-05
4.82272e-05
4.91286e-05
2.02966e-05
4.81094e-05
3.71035e-05
3.99136e-05
4.19052e-05
4.12084e-05
4.1905e-05
3.71034e-05
4.1211e-05
2.02971e-05
4.79239e-05
4.91301e-05
4.80143e-05
2.0297e-05
3.71053e-05
4.19056e-05
4.14208e-05
3.99326e-05
3.71051e-05
4.19053e-05
4.14017e-05
2.02931e-05
4.91296e-05
4.79113e-05
2.02934e-05
4.79346e-05
2.02951e-05
4.80247e-05
4.91305e-05
2.02944e-05
4.79767e-05
3.71054e-05
3.99278e-05
4.19053e-05
4.14179e-05
3.7105e-05
4.19056e-05
4.13876e-05
3.71036e-05
4.19053e-05
4.12002e-05
3.99129e-05
3.71036e-05
4.1905e-05
4.12014e-05
2.02948e-05
4.9127e-05
4.8094e-05
4.79971e-05
2.02956e-05
2.02956e-05
4.78171e-05
4.91265e-05
2.02948e-05
4.79882e-05
3.71035e-05
3.99082e-05
4.1905e-05
4.10301e-05
4.19053e-05
4.11964e-05
3.71029e-05
4.71197e-05
2.15821e-05
2.15848e-05
2.15809e-05
2.15836e-05
4.72511e-05
4.73183e-05
4.23854e-05
4.66001e-05
5.57301e-05
4.73137e-05
4.23961e-05
5.57563e-05
4.66124e-05
4.73484e-05
2.15826e-05
2.15852e-05
4.72454e-05
4.66008e-05
4.23857e-05
5.57392e-05
4.66007e-05
5.57334e-05
4.72077e-05
4.72383e-05
4.6613e-05
4.23974e-05
5.57651e-05
5.57591e-05
4.66131e-05
4.71993e-05
2.40472e-05
2.40468e-05
2.40453e-05
2.40457e-05
4.71744e-05
2.15817e-05
2.15844e-05
4.72691e-05
2.15826e-05
2.15853e-05
4.71082e-05
5.57433e-05
4.23556e-05
4.6601e-05
5.57396e-05
4.66011e-05
4.70929e-05
4.70976e-05
5.57618e-05
4.22324e-05
4.66112e-05
4.66125e-05
5.57614e-05
4.70819e-05
4.71389e-05
4.6601e-05
5.57497e-05
4.23648e-05
5.57569e-05
4.71683e-05
4.66007e-05
4.71289e-05
4.66134e-05
5.57757e-05
4.22918e-05
4.71589e-05
4.66126e-05
5.57815e-05
4.707e-05
2.15815e-05
2.15841e-05
2.15807e-05
2.15833e-05
4.71497e-05
2.40463e-05
2.40471e-05
3.7104e-05
3.99079e-05
4.19044e-05
4.12255e-05
4.19047e-05
4.12287e-05
3.71039e-05
2.03056e-05
4.8444e-05
4.91394e-05
2.03049e-05
4.83713e-05
3.71041e-05
3.99135e-05
4.19047e-05
4.12372e-05
4.19044e-05
3.71041e-05
4.12364e-05
2.03027e-05
4.81856e-05
4.9138e-05
4.83551e-05
2.0302e-05
3.71051e-05
4.14235e-05
4.1905e-05
3.99318e-05
3.71049e-05
4.14075e-05
4.19047e-05
2.02956e-05
4.91267e-05
4.8242e-05
2.02975e-05
4.82675e-05
2.02955e-05
4.80726e-05
4.91245e-05
2.02939e-05
4.81468e-05
3.71052e-05
3.9927e-05
4.14277e-05
4.19047e-05
3.7105e-05
4.13966e-05
4.1905e-05
3.71037e-05
4.19047e-05
4.12206e-05
3.99129e-05
3.71038e-05
4.19044e-05
4.12178e-05
2.02981e-05
4.91409e-05
4.81171e-05
4.81658e-05
2.02984e-05
2.02997e-05
4.82433e-05
4.91437e-05
2.03002e-05
4.80935e-05
3.71036e-05
3.99077e-05
4.19044e-05
4.12098e-05
4.19047e-05
4.1211e-05
3.71034e-05
3.71032e-05
3.98973e-05
4.11807e-05
4.19033e-05
4.11754e-05
4.19036e-05
3.7103e-05
2.02928e-05
4.81772e-05
4.91232e-05
4.81466e-05
2.02949e-05
3.71046e-05
3.99086e-05
4.19047e-05
4.12514e-05
4.1905e-05
4.12493e-05
3.71046e-05
2.03073e-05
4.87326e-05
4.91447e-05
4.87299e-05
2.03083e-05
3.71031e-05
4.11831e-05
4.19036e-05
3.9901e-05
3.71032e-05
4.11877e-05
4.19033e-05
2.02957e-05
4.91284e-05
4.80869e-05
4.8237e-05
2.02966e-05
2.02958e-05
4.82125e-05
4.91266e-05
2.02947e-05
4.81104e-05
3.71035e-05
3.98963e-05
4.11918e-05
4.19033e-05
4.11873e-05
4.19036e-05
3.71034e-05
3.71046e-05
4.1905e-05
4.12507e-05
3.99122e-05
3.71046e-05
4.19047e-05
4.12527e-05
2.03074e-05
4.91451e-05
4.87443e-05
4.87308e-05
2.03084e-05
2.03083e-05
4.87316e-05
4.91444e-05
2.03073e-05
4.87339e-05
3.71046e-05
3.99065e-05
4.19047e-05
4.12516e-05
4.1905e-05
4.12495e-05
3.71046e-05
4.71833e-05
2.1583e-05
2.15859e-05
2.15813e-05
2.15842e-05
4.71547e-05
4.73736e-05
5.57385e-05
4.66014e-05
4.23902e-05
4.66012e-05
4.74406e-05
5.57479e-05
4.73633e-05
5.57647e-05
4.66137e-05
4.23961e-05
5.57741e-05
4.74306e-05
4.66135e-05
4.73006e-05
2.15802e-05
2.1583e-05
2.15816e-05
4.71712e-05
2.15845e-05
4.72936e-05
4.66022e-05
4.23867e-05
5.57437e-05
4.6602e-05
5.57343e-05
4.72666e-05
4.72837e-05
4.66145e-05
4.23928e-05
5.5763e-05
5.57578e-05
4.66144e-05
4.72567e-05
2.40477e-05
2.40474e-05
2.40451e-05
2.40456e-05
4.71824e-05
2.15822e-05
2.15851e-05
4.72154e-05
2.15834e-05
2.15863e-05
4.72409e-05
5.57504e-05
4.23137e-05
4.66016e-05
5.57409e-05
4.66027e-05
4.72414e-05
4.7231e-05
5.57574e-05
4.23333e-05
4.66143e-05
4.66149e-05
5.57495e-05
4.72315e-05
4.72461e-05
4.66028e-05
5.57404e-05
4.23326e-05
5.57512e-05
4.72468e-05
4.66026e-05
4.72362e-05
4.6615e-05
5.57551e-05
4.23413e-05
4.7237e-05
4.66149e-05
5.57624e-05
4.71659e-05
2.15827e-05
2.15856e-05
2.15822e-05
2.15851e-05
4.71434e-05
2.40475e-05
2.40481e-05
3.71056e-05
3.99158e-05
4.12213e-05
4.19045e-05
4.12213e-05
4.19048e-05
3.71057e-05
2.03016e-05
4.83149e-05
4.91354e-05
4.82896e-05
2.03005e-05
3.71056e-05
3.99217e-05
4.12237e-05
4.19047e-05
4.12262e-05
3.71055e-05
4.19045e-05
2.03006e-05
4.82764e-05
4.91416e-05
4.82875e-05
2.03013e-05
3.71022e-05
3.99089e-05
4.12023e-05
4.19037e-05
4.12e-05
4.1904e-05
3.71023e-05
2.02958e-05
4.8243e-05
4.91219e-05
2.02936e-05
4.82669e-05
3.7102e-05
3.99147e-05
4.11968e-05
4.1904e-05
3.71019e-05
4.12023e-05
4.19037e-05
2.02959e-05
4.82611e-05
4.91237e-05
4.82669e-05
2.02973e-05
3.71056e-05
4.12188e-05
4.19048e-05
3.99188e-05
3.71057e-05
4.12189e-05
4.19046e-05
2.02993e-05
4.91528e-05
4.82454e-05
4.82767e-05
2.02999e-05
2.03006e-05
4.82728e-05
4.91435e-05
2.03e-05
4.82754e-05
3.71056e-05
3.99133e-05
4.12141e-05
4.19046e-05
4.1214e-05
4.19048e-05
3.71055e-05
3.71024e-05
4.12012e-05
4.1904e-05
3.99115e-05
3.71024e-05
4.12013e-05
4.19038e-05
2.02957e-05
4.91257e-05
4.79731e-05
4.80476e-05
2.02954e-05
2.0297e-05
4.82447e-05
4.91248e-05
2.02966e-05
4.80957e-05
3.71024e-05
3.99058e-05
4.11953e-05
4.19039e-05
4.11955e-05
4.19041e-05
3.71024e-05
2.40422e-05
2.40425e-05
2.40412e-05
2.40409e-05
4.70525e-05
2.15831e-05
2.15801e-05
4.71688e-05
2.15834e-05
2.15804e-05
4.72182e-05
5.57311e-05
4.19561e-05
4.66038e-05
4.72178e-05
5.57256e-05
4.66057e-05
4.73008e-05
5.57332e-05
4.19794e-05
4.6593e-05
4.73569e-05
5.57236e-05
4.65939e-05
4.72248e-05
4.66065e-05
5.57288e-05
4.20506e-05
4.72272e-05
5.57386e-05
4.6606e-05
4.72884e-05
4.65947e-05
5.57285e-05
4.19918e-05
4.72468e-05
5.5736e-05
4.65938e-05
4.7055e-05
2.15826e-05
2.15796e-05
4.69919e-05
2.15825e-05
2.15795e-05
2.40433e-05
2.4044e-05
2.40409e-05
2.40416e-05
2.40463e-05
2.40458e-05
2.40451e-05
2.4044e-05
4.71395e-05
2.15825e-05
2.15789e-05
2.15818e-05
2.15782e-05
4.71143e-05
4.70928e-05
5.57195e-05
4.66234e-05
4.19459e-05
4.71009e-05
4.66274e-05
5.57238e-05
4.71973e-05
5.57245e-05
4.66009e-05
4.22118e-05
4.72055e-05
4.66004e-05
5.57336e-05
4.71497e-05
2.15835e-05
2.158e-05
4.71465e-05
2.15837e-05
2.15801e-05
4.70855e-05
4.66136e-05
4.19676e-05
5.57139e-05
4.66222e-05
4.7075e-05
5.57068e-05
4.7186e-05
4.65983e-05
4.20807e-05
5.5727e-05
4.65995e-05
4.71777e-05
5.57177e-05
3.71029e-05
3.99081e-05
4.1905e-05
4.09957e-05
4.19053e-05
4.10436e-05
3.7103e-05
2.02967e-05
4.81388e-05
4.91276e-05
2.02953e-05
4.81168e-05
3.71027e-05
3.99134e-05
4.19053e-05
4.11081e-05
4.1905e-05
3.71031e-05
4.09579e-05
2.02959e-05
4.79009e-05
4.91279e-05
4.81025e-05
2.02958e-05
4.72751e-05
2.1583e-05
2.15853e-05
2.15814e-05
2.15838e-05
4.71416e-05
4.70673e-05
5.57329e-05
4.66011e-05
4.23586e-05
4.66005e-05
4.70743e-05
5.57416e-05
4.70557e-05
5.57512e-05
4.66115e-05
4.21371e-05
5.57547e-05
4.70629e-05
4.66111e-05
4.70468e-05
2.15804e-05
2.15828e-05
2.15813e-05
4.71361e-05
2.15837e-05
4.70676e-05
4.66125e-05
4.22592e-05
5.57374e-05
4.66011e-05
5.57276e-05
4.70735e-05
4.70557e-05
4.66112e-05
4.21779e-05
5.57508e-05
5.57401e-05
4.66067e-05
4.70613e-05
2.40463e-05
2.40455e-05
3.71033e-05
3.99087e-05
4.19044e-05
4.10439e-05
4.19046e-05
4.11352e-05
3.71037e-05
2.02968e-05
4.81801e-05
4.91283e-05
2.02966e-05
4.80589e-05
3.71036e-05
3.99143e-05
4.19047e-05
4.12092e-05
4.19044e-05
3.71033e-05
4.11424e-05
2.02962e-05
4.79389e-05
4.9128e-05
4.81752e-05
2.02966e-05
3.71038e-05
3.99053e-05
4.12088e-05
4.19033e-05
4.12024e-05
4.19036e-05
3.71046e-05
2.02974e-05
4.81847e-05
4.91293e-05
4.81514e-05
2.02965e-05
3.71036e-05
3.9908e-05
4.11944e-05
4.19036e-05
4.12007e-05
3.71036e-05
4.19033e-05
2.02978e-05
4.826e-05
4.91323e-05
4.83502e-05
2.02994e-05
3.71046e-05
3.99067e-05
4.19047e-05
4.12452e-05
4.1905e-05
4.1245e-05
3.71046e-05
2.03075e-05
4.85631e-05
4.91433e-05
2.03067e-05
4.86289e-05
3.71046e-05
3.99113e-05
4.1905e-05
4.12493e-05
3.71046e-05
4.19047e-05
4.12507e-05
2.03061e-05
4.84669e-05
4.9143e-05
4.84466e-05
2.03067e-05
4.72452e-05
2.15824e-05
2.15852e-05
2.15808e-05
2.15837e-05
4.73474e-05
4.72204e-05
5.5744e-05
4.6601e-05
4.20084e-05
4.65962e-05
4.72295e-05
5.57496e-05
4.72104e-05
5.5752e-05
4.66141e-05
4.21681e-05
5.57563e-05
4.72196e-05
4.66126e-05
4.71511e-05
2.15813e-05
2.15842e-05
2.15818e-05
4.71937e-05
2.15848e-05
4.72106e-05
4.66167e-05
4.19758e-05
5.57377e-05
4.66089e-05
5.57341e-05
4.72067e-05
4.72005e-05
4.66235e-05
4.22166e-05
5.5747e-05
5.57412e-05
4.6613e-05
4.71964e-05
2.40468e-05
2.40463e-05
3.71056e-05
3.99124e-05
4.0947e-05
4.19045e-05
4.11325e-05
4.19048e-05
3.71049e-05
2.02994e-05
4.82498e-05
4.91362e-05
4.82463e-05
2.02986e-05
3.71058e-05
3.99186e-05
4.12137e-05
4.19048e-05
4.11507e-05
3.71055e-05
4.19046e-05
2.02984e-05
4.80861e-05
4.91355e-05
4.82561e-05
2.02987e-05
3.71021e-05
3.99074e-05
4.08971e-05
4.19038e-05
4.11256e-05
4.19041e-05
3.71015e-05
2.02944e-05
4.788e-05
4.91213e-05
2.02932e-05
4.80485e-05
3.71018e-05
3.99122e-05
4.11939e-05
4.19041e-05
3.71023e-05
4.10153e-05
4.19038e-05
2.02938e-05
4.82622e-05
4.91222e-05
4.81086e-05
2.02951e-05
2.40425e-05
2.4042e-05
2.404e-05
2.40393e-05
0.000210555
0.000210557
0.000196945
0.00021055
0.000210554
0.000219879
0.000219879
6.37028e-05
0.000127721
9.44046e-05
9.44028e-05
0.000210551
0.000210556
0.000196991
0.00021059
0.000210589
0.000219849
0.00021988
6.37089e-05
9.45702e-05
9.42968e-05
0.000128163
6.3692e-05
9.45838e-05
9.43431e-05
6.36756e-05
9.43518e-05
9.44654e-05
0.000127824
6.36563e-05
9.45008e-05
9.45807e-05
6.36481e-05
0.000127822
9.44546e-05
9.44977e-05
9.44052e-05
9.44185e-05
6.36747e-05
6.36868e-05
0.00012803
9.44919e-05
9.44032e-05
6.36317e-05
0.000127835
9.42565e-05
9.45799e-05
9.42166e-05
9.4506e-05
6.36482e-05
6.37246e-05
9.4556e-05
9.47333e-05
0.000127777
9.45316e-05
6.37109e-05
9.43657e-05
6.37018e-05
0.000127849
9.47057e-05
9.47649e-05
9.46335e-05
9.45545e-05
6.37295e-05
6.36798e-05
0.000128486
9.46435e-05
9.43827e-05
6.37092e-05
9.47009e-05
9.4329e-05
6.36725e-05
9.45493e-05
9.45761e-05
0.000127892
6.36535e-05
9.47703e-05
9.4779e-05
6.36359e-05
9.43427e-05
9.46963e-05
0.000127941
9.45753e-05
6.36209e-05
9.46432e-05
6.37207e-05
9.45718e-05
9.45195e-05
0.000127842
9.45181e-05
6.37058e-05
9.46463e-05
0.000210529
0.000210528
0.000196908
0.00021052
0.000210522
0.000219854
0.000219854
0.000210528
0.000210529
0.000196917
0.000210525
0.000210512
0.000219851
0.000219851
0.000210524
0.00021052
0.000196908
0.000210514
0.000210515
0.000219841
0.00021984
0.000196945
0.00021055
0.000210554
0.00021055
0.000210552
0.000219875
0.000219875
0.00019691
0.000210525
0.000210521
0.000210537
0.00021052
0.000219852
0.000219851
0.000196913
0.000210525
0.000210519
0.000210525
0.000210516
0.000219849
0.000219848
0.000196903
0.000210517
0.000210515
0.000210518
0.000210516
0.000219843
0.000219841
0.000108058
6.65712e-05
6.0953e-05
0.000115696
6.09367e-05
0.000115671
0.000108261
9.08742e-05
5.10922e-05
4.61161e-05
7.35912e-05
7.35478e-05
5.10795e-05
9.12235e-05
0.000108227
6.67985e-05
0.000115435
6.10484e-05
0.000115647
6.10638e-05
0.000108412
9.16042e-05
7.37213e-05
5.11464e-05
4.61297e-05
9.12983e-05
7.37012e-05
5.11617e-05
0.000108346
6.67626e-05
0.000115381
6.11151e-05
0.000108226
0.000115448
6.1096e-05
9.13635e-05
5.11535e-05
4.61222e-05
7.36579e-05
7.36282e-05
5.11455e-05
9.14364e-05
6.36846e-05
0.000127598
9.43351e-05
9.43345e-05
9.43093e-05
9.43089e-05
6.36959e-05
0.000210514
0.000210527
0.000196912
0.000210552
0.000210544
0.000219802
0.000219852
0.000210528
0.000210524
0.000196922
0.000210545
0.000210541
0.000219834
0.000219851
0.000210517
0.000210519
0.000196902
0.000210543
0.000210545
0.000219789
0.000219843
0.000108123
6.70823e-05
6.11251e-05
0.000116085
6.10897e-05
0.000115941
0.000108518
9.12954e-05
7.35489e-05
5.12246e-05
4.61177e-05
9.12719e-05
7.35999e-05
5.12333e-05
0.000108345
6.70309e-05
6.10282e-05
0.000115797
0.000108597
6.10738e-05
0.000115676
9.1174e-05
5.12323e-05
4.61107e-05
7.38879e-05
7.35433e-05
5.12241e-05
9.1235e-05
0.000108174
6.67904e-05
0.000115616
6.09841e-05
0.00011553
6.09769e-05
0.00010816
9.14893e-05
7.35865e-05
5.11301e-05
4.61215e-05
9.14196e-05
7.36324e-05
5.1145e-05
0.000108643
6.67496e-05
0.000115785
6.09877e-05
0.000108387
0.000115532
6.10053e-05
9.12233e-05
5.1126e-05
4.61129e-05
7.36669e-05
7.35781e-05
5.11292e-05
9.12878e-05
6.36953e-05
0.000127871
9.45115e-05
9.43937e-05
9.45394e-05
9.43532e-05
6.37085e-05
6.36651e-05
0.000127689
9.44204e-05
9.44528e-05
6.36775e-05
9.46157e-05
9.46658e-05
6.36688e-05
0.00012825
9.45135e-05
9.45408e-05
6.36537e-05
9.44102e-05
9.44301e-05
0.000108135
6.66013e-05
6.10266e-05
0.000115665
6.10051e-05
0.000115228
0.000108372
9.1294e-05
7.35613e-05
5.11204e-05
4.61204e-05
5.11313e-05
9.11983e-05
7.36109e-05
0.000108273
6.66567e-05
6.09948e-05
0.000115339
6.10219e-05
0.000107894
0.000115354
9.11529e-05
5.11262e-05
4.61136e-05
7.36112e-05
5.11159e-05
7.35632e-05
9.13487e-05
0.000108156
6.66009e-05
6.09656e-05
0.000115285
6.09467e-05
0.00011524
0.000108528
9.15285e-05
7.35574e-05
5.11299e-05
4.61205e-05
9.12283e-05
5.11416e-05
7.36096e-05
0.000108166
6.66677e-05
6.09483e-05
0.000115263
0.000108034
6.09701e-05
0.000115268
9.12281e-05
5.11278e-05
4.61135e-05
7.36087e-05
5.11225e-05
9.13197e-05
7.35613e-05
0.000108234
6.10138e-05
0.000115342
6.6721e-05
0.000108493
6.10311e-05
0.000115403
9.12518e-05
7.36107e-05
4.61114e-05
5.11192e-05
7.35659e-05
5.11092e-05
9.14082e-05
9.13358e-05
5.11171e-05
7.35688e-05
4.61192e-05
7.36142e-05
9.14215e-05
5.11254e-05
0.000108102
6.67323e-05
6.10351e-05
0.000115512
6.10095e-05
0.000115653
0.000108627
0.000108064
6.09496e-05
0.000115572
6.67479e-05
0.000108027
6.09682e-05
0.000115462
9.12435e-05
7.36107e-05
4.61136e-05
5.11202e-05
5.11081e-05
7.35651e-05
9.15026e-05
9.1301e-05
5.11146e-05
7.35677e-05
4.61206e-05
9.12547e-05
5.11235e-05
7.36133e-05
0.000108391
6.67511e-05
6.09701e-05
0.0001159
6.09507e-05
0.00011552
0.000108403
6.36699e-05
0.000127707
9.42816e-05
9.45252e-05
9.44738e-05
9.42872e-05
6.36817e-05
6.36633e-05
0.000127978
9.42511e-05
9.4542e-05
9.42876e-05
6.36533e-05
9.47388e-05
0.000108208
6.66692e-05
6.10318e-05
0.000116189
6.10129e-05
0.000115926
0.000108342
9.12457e-05
7.36083e-05
5.11105e-05
4.61221e-05
5.11242e-05
9.12965e-05
7.36357e-05
0.000108597
6.67176e-05
6.10057e-05
0.000115694
6.10328e-05
0.000108196
0.000115997
9.10936e-05
5.11248e-05
4.61149e-05
7.36131e-05
5.11108e-05
7.35752e-05
9.11838e-05
0.000108584
6.65747e-05
0.000116128
6.09764e-05
0.00011569
6.09575e-05
0.000108496
9.16169e-05
7.36573e-05
5.11504e-05
4.61247e-05
9.13596e-05
5.11627e-05
7.36677e-05
0.000108876
6.66096e-05
0.00011555
6.09465e-05
0.000108537
0.000116076
6.09761e-05
9.1312e-05
5.1148e-05
4.6117e-05
7.36663e-05
5.11466e-05
9.13404e-05
7.36003e-05
0.000108326
6.10142e-05
0.000115633
6.68735e-05
0.000108119
6.10348e-05
0.000115599
9.12927e-05
7.36499e-05
4.61119e-05
5.11409e-05
7.35571e-05
5.11261e-05
9.15538e-05
9.12244e-05
5.11197e-05
7.35664e-05
4.61197e-05
7.3609e-05
9.11386e-05
5.11344e-05
0.000108513
6.68068e-05
6.10376e-05
0.000115911
6.10155e-05
0.000115547
0.000108417
0.000108386
0.000115731
6.09627e-05
6.66701e-05
0.000108325
0.000116029
6.09814e-05
9.12334e-05
7.37371e-05
4.61138e-05
5.11294e-05
5.11221e-05
7.36673e-05
9.13015e-05
9.13717e-05
5.1138e-05
7.36164e-05
4.61216e-05
9.14023e-05
5.11394e-05
7.37538e-05
0.00010828
6.6637e-05
0.000115548
6.09784e-05
0.000115594
6.09599e-05
0.000108588
0.000108302
6.66751e-05
0.000115412
6.09812e-05
0.000115326
6.096e-05
0.00010846
9.12256e-05
5.1169e-05
4.61036e-05
7.36134e-05
7.35703e-05
5.11582e-05
9.13039e-05
0.000108285
6.09411e-05
0.000115652
6.66256e-05
0.000108468
6.09601e-05
0.000115958
9.10375e-05
7.35944e-05
4.61147e-05
5.12454e-05
9.13721e-05
7.35457e-05
5.12397e-05
9.12037e-05
5.12519e-05
7.35486e-05
4.61226e-05
9.11752e-05
7.35938e-05
5.12579e-05
0.000108181
6.6758e-05
6.09597e-05
0.000115478
0.000108454
6.0943e-05
0.000115534
0.000108411
0.000115733
6.09676e-05
6.66657e-05
0.000108606
0.000115634
6.09866e-05
9.11911e-05
7.36074e-05
4.6097e-05
5.1167e-05
5.11564e-05
7.35629e-05
9.12239e-05
9.14328e-05
5.11601e-05
7.35662e-05
4.6107e-05
9.11449e-05
5.11712e-05
7.36115e-05
0.000108298
6.65716e-05
0.000116325
6.09824e-05
0.000115797
6.09642e-05
0.000108346
6.37077e-05
0.000127666
9.48383e-05
9.46092e-05
9.44004e-05
9.444e-05
6.37234e-05
6.37205e-05
0.00012784
9.46611e-05
9.43758e-05
9.47477e-05
6.36991e-05
9.46819e-05
0.000108009
6.67052e-05
0.000115482
6.09684e-05
0.000115538
6.09526e-05
0.000108065
9.1374e-05
7.36667e-05
5.11209e-05
4.61062e-05
7.36748e-05
9.12898e-05
5.11372e-05
0.000108225
6.67347e-05
0.000115579
6.09577e-05
0.000115618
0.000108488
6.09775e-05
9.12301e-05
5.11336e-05
4.60996e-05
7.36402e-05
7.36074e-05
5.11236e-05
9.14345e-05
0.000108802
0.000115464
6.10255e-05
6.66415e-05
0.000108447
0.000115913
6.10324e-05
9.14922e-05
7.36383e-05
4.61196e-05
5.11462e-05
9.16657e-05
7.35952e-05
5.11372e-05
9.1736e-05
5.11429e-05
7.36069e-05
4.61271e-05
9.13338e-05
7.36474e-05
5.11526e-05
0.000108292
6.66081e-05
0.000115659
6.1014e-05
0.00010863
0.000115568
6.10014e-05
0.000108019
0.000115677
6.09512e-05
6.65956e-05
0.00010793
0.000115523
6.09677e-05
9.13408e-05
7.36607e-05
4.60916e-05
5.1119e-05
5.11116e-05
7.35712e-05
9.16166e-05
9.13544e-05
5.11241e-05
7.35891e-05
4.61007e-05
9.15298e-05
5.11298e-05
7.36263e-05
0.00010822
6.65863e-05
0.000115383
6.09658e-05
0.000115336
6.09459e-05
0.000108159
6.36958e-05
0.000128118
9.44445e-05
9.42668e-05
6.36724e-05
9.48108e-05
9.43945e-05
6.36557e-05
0.00012768
9.44947e-05
9.44948e-05
6.36708e-05
9.44971e-05
9.44991e-05
0.000108231
6.69648e-05
6.10485e-05
0.000115583
6.10329e-05
0.000115418
0.000108298
9.13142e-05
7.35629e-05
5.11144e-05
4.61108e-05
5.11254e-05
9.14575e-05
7.37159e-05
0.000108742
6.68868e-05
6.10278e-05
0.000115416
6.10537e-05
0.000108449
0.000115591
9.11112e-05
5.11236e-05
4.61008e-05
7.37253e-05
5.11097e-05
7.36379e-05
9.12623e-05
0.000108131
6.68466e-05
6.09752e-05
0.000115444
6.09554e-05
0.000115221
0.000108197
9.13303e-05
7.35651e-05
5.11159e-05
4.61203e-05
9.12133e-05
5.11274e-05
7.36074e-05
0.000108383
6.68862e-05
6.09581e-05
0.000115363
0.000108246
6.09772e-05
0.000115368
9.11111e-05
5.11193e-05
4.61115e-05
7.36451e-05
5.11122e-05
9.12523e-05
7.35548e-05
6.36225e-05
0.000128298
9.47211e-05
9.45465e-05
9.45407e-05
9.45872e-05
6.36426e-05
0.00010815
6.67893e-05
6.10494e-05
0.000115496
6.10294e-05
0.000115334
0.000108462
9.13691e-05
7.36244e-05
5.11372e-05
4.61167e-05
5.11465e-05
9.13805e-05
7.37815e-05
0.000108277
6.6832e-05
6.10273e-05
0.000115451
6.10484e-05
0.000108303
0.000115531
9.11687e-05
5.11388e-05
4.61072e-05
7.37969e-05
5.11297e-05
7.37095e-05
9.14072e-05
0.000108055
6.65996e-05
0.000115986
6.09687e-05
0.000115774
6.0951e-05
0.000108476
9.1513e-05
7.36949e-05
5.11236e-05
4.61134e-05
9.12434e-05
5.11327e-05
7.38401e-05
0.000108145
6.66265e-05
0.00011548
6.09614e-05
0.000108167
0.000115479
6.09755e-05
9.12056e-05
5.11262e-05
4.61025e-05
7.38272e-05
5.11183e-05
9.12492e-05
7.37537e-05
0.00010809
6.67042e-05
0.000115874
6.09843e-05
0.000116058
6.09609e-05
0.000108704
9.13575e-05
7.35644e-05
5.11562e-05
4.60977e-05
7.36125e-05
9.10992e-05
5.11679e-05
0.000108264
6.65968e-05
0.000116001
6.09654e-05
0.000115861
0.000108203
6.09828e-05
9.12787e-05
5.11625e-05
4.609e-05
7.36634e-05
7.3563e-05
5.11519e-05
9.14298e-05
6.37038e-05
0.000127609
9.46337e-05
9.46961e-05
9.44893e-05
9.47679e-05
6.37171e-05
0.000108381
6.68187e-05
0.000115733
6.09713e-05
0.000115907
6.09541e-05
0.000108678
9.13769e-05
7.3633e-05
5.11099e-05
4.6095e-05
7.37884e-05
9.13915e-05
5.11193e-05
0.00010862
6.67297e-05
0.000115255
6.09534e-05
0.000115653
0.000108225
6.09735e-05
9.11751e-05
5.11218e-05
4.60886e-05
7.38017e-05
7.37148e-05
5.11054e-05
9.13243e-05
0.000233965
0.000233521
0.000233523
0.000233442
0.000232505
0.000227357
0.000227385
0.000223742
0.000230474
0.000220072
0.000220081
0.000208999
0.000227755
0.000211517
0.000211515
0.000193717
0.000224388
0.000202548
0.000202545
0.000179683
0.000220504
0.000193693
0.000193689
0.000167322
0.00021626
0.000185216
0.000185211
0.000156586
0.000211792
0.000177202
0.000177197
0.000147228
0.000207235
0.000169758
0.000169755
0.000139122
0.000202664
0.000163107
0.000163107
0.000132836
0.000198883
0.000158255
0.000158246
0.000129684
0.00019719
0.000156099
0.000156072
0.000127445
0.000197086
0.00015582
0.000155797
0.000127762
0.000197109
0.000155844
0.000155823
0.000128029
0.000196971
0.000155826
0.000155823
0.000127965
0.000196951
0.000155821
0.000155827
0.000127613
0.000196951
0.000155813
0.000155811
0.000127532
0.000196955
0.00015578
0.000155828
0.000127642
0.000196955
0.000155774
0.000155821
0.000127774
0.000155769
0.000127422
0.000234258
0.000234478
0.000234468
0.000234263
0.000234471
0.000234469
0.000234265
0.000234263
0.000234263
0.000234261
0.000234481
0.000234468
0.000234266
0.000234483
0.000234468
0.000234264