/*--------------------------------*- C++ -*----------------------------------*\
| =========                 |                                                 |
| \\      /  F ield         | OpenFOAM: The Open Source CFD Toolbox           |
|  \\    /   O peration     | Version:  2312                                  |
|   \\  /    A nd           | Website:  www.openfoam.com                      |
|    \\/     M anipulation  |                                                 |
\*---------------------------------------------------------------------------*/
FoamFile
{
    version     2.0;
    format      ascii;
    arch        "LSB;label=32;scalar=64";
    class       volScalarField;
    location    "350";
    object      k;
}
// * * * * * * * * * * * * * * * * * * * * * * * * * * * * * * * * * * * * * //

dimensions      [0 2 -2 0 0 0 0];

internalField   nonuniform List<scalar> 
43008
(
1.57095e-05
1.61156e-05
1.52899e-05
1.60667e-05
1.60669e-05
1.7609e-05
1.72541e-05
1.75308e-05
1.61146e-05
1.6115e-05
1.60674e-05
1.60679e-05
1.753e-05
1.61151e-05
1.61155e-05
1.60679e-05
1.60683e-05
1.60682e-05
1.60681e-05
1.72549e-05
1.75307e-05
1.6116e-05
1.60683e-05
1.60688e-05
1.75151e-05
1.76e-05
1.6066e-05
1.60666e-05
1.76018e-05
1.60664e-05
1.6067e-05
1.60667e-05
1.76016e-05
1.60674e-05
5.00985e-05
6.99061e-05
4.93391e-05
6.99398e-05
6.97738e-05
5.01011e-05
6.99073e-05
4.93387e-05
6.9941e-05
1.57097e-05
1.57098e-05
1.57099e-05
1.53902e-05
1.53904e-05
1.53905e-05
1.53906e-05
2.60138e-05
1.60929e-05
4.29321e-05
1.5354e-05
6.97974e-05
6.97734e-05
2.60132e-05
1.54379e-05
4.24551e-05
1.6093e-05
2.54954e-05
1.53538e-05
4.29371e-05
1.73369e-05
5.77577e-05
5.77681e-05
5.19476e-05
6.99769e-05
5.12832e-05
7.00082e-05
6.97132e-05
6.96913e-05
5.19495e-05
6.99783e-05
5.12829e-05
7.00097e-05
1.52901e-05
1.52902e-05
1.52903e-05
2.76601e-05
4.38871e-05
1.51279e-05
1.60691e-05
2.71107e-05
4.43308e-05
1.50604e-05
6.97131e-05
6.9691e-05
2.76604e-05
1.51278e-05
4.38891e-05
1.60694e-05
2.71126e-05
1.50602e-05
4.43336e-05
5.83104e-05
5.83204e-05
1.77405e-05
5.85674e-05
5.85775e-05
6.97959e-05
6.9772e-05
6.97982e-05
6.97744e-05
5.74682e-05
5.74803e-05
1.73451e-05
5.77602e-05
5.77732e-05
6.97297e-05
6.97526e-05
6.97322e-05
6.97551e-05
1.74076e-05
5.8178e-05
5.81908e-05
5.79044e-05
5.79169e-05
5.00992e-05
6.99025e-05
4.9339e-05
6.99364e-05
2.60204e-05
4.24561e-05
1.54373e-05
1.60919e-05
2.54915e-05
4.29411e-05
1.53532e-05
2.60188e-05
4.24544e-05
1.54371e-05
1.60923e-05
2.5489e-05
4.29452e-05
1.5353e-05
5.03444e-05
6.99747e-05
6.9942e-05
5.10577e-05
5.03446e-05
6.99715e-05
6.99389e-05
5.10579e-05
2.62869e-05
1.60788e-05
4.3651e-05
1.5198e-05
4.31772e-05
1.52739e-05
2.68278e-05
2.62873e-05
1.60793e-05
4.36544e-05
1.51979e-05
4.31825e-05
1.52738e-05
2.68338e-05
1.73497e-05
5.77686e-05
5.77617e-05
6.97724e-05
6.97319e-05
6.97548e-05
1.74108e-05
5.81872e-05
5.81797e-05
5.79129e-05
5.79069e-05
6.97303e-05
6.9753e-05
2.60209e-05
4.24557e-05
1.54375e-05
1.60924e-05
2.54902e-05
4.29455e-05
1.53533e-05
5.00999e-05
6.99046e-05
4.93385e-05
6.9934e-05
2.60187e-05
1.54374e-05
4.24569e-05
1.60928e-05
2.54901e-05
1.53533e-05
4.29404e-05
5.03448e-05
6.99761e-05
6.99433e-05
5.10598e-05
2.6287e-05
1.60793e-05
4.36582e-05
1.51982e-05
4.31836e-05
1.5274e-05
2.68313e-05
5.03445e-05
6.99692e-05
6.99409e-05
5.10584e-05
2.6289e-05
1.60796e-05
1.51981e-05
4.36494e-05
1.52739e-05
4.31876e-05
2.68321e-05
5.00841e-05
6.99366e-05
2.60181e-05
1.60926e-05
1.53539e-05
4.29312e-05
5.00937e-05
6.99329e-05
2.62896e-05
1.60796e-05
4.36455e-05
1.51988e-05
4.31837e-05
1.52746e-05
2.68272e-05
5.0353e-05
6.99714e-05
6.99433e-05
5.10443e-05
2.62888e-05
1.60795e-05
1.51988e-05
4.36462e-05
1.52747e-05
4.31835e-05
2.68312e-05
5.03476e-05
6.9968e-05
6.99398e-05
5.10528e-05
5.74749e-05
5.74708e-05
1.73453e-05
5.77673e-05
5.7763e-05
6.97965e-05
6.97727e-05
6.97315e-05
6.97545e-05
1.7408e-05
5.8185e-05
5.81811e-05
5.7912e-05
5.79074e-05
6.97306e-05
6.97535e-05
2.60206e-05
1.54379e-05
4.24597e-05
1.60934e-05
2.54894e-05
1.53537e-05
4.29397e-05
5.00932e-05
6.99083e-05
4.9347e-05
6.99375e-05
5.00925e-05
6.99047e-05
4.93459e-05
6.99354e-05
2.62931e-05
1.60797e-05
1.51986e-05
4.36502e-05
1.52745e-05
4.31844e-05
2.68307e-05
2.62864e-05
1.60802e-05
1.51986e-05
4.36564e-05
1.52745e-05
4.31874e-05
2.6833e-05
5.0353e-05
6.99726e-05
6.99441e-05
5.10524e-05
5.03518e-05
6.99713e-05
6.99384e-05
5.10514e-05
6.97715e-05
6.97736e-05
1.74212e-05
5.81753e-05
5.81862e-05
5.79017e-05
5.79128e-05
6.97295e-05
6.97524e-05
6.97317e-05
6.97546e-05
6.9711e-05
6.96892e-05
6.97134e-05
6.96916e-05
5.83136e-05
5.83244e-05
1.7742e-05
5.85697e-05
5.85828e-05
5.19472e-05
6.99739e-05
5.12827e-05
7.00053e-05
2.76644e-05
4.38809e-05
1.51272e-05
1.60686e-05
2.71102e-05
4.4336e-05
1.50598e-05
2.7663e-05
4.38902e-05
1.51271e-05
1.6069e-05
2.71064e-05
4.43407e-05
1.50597e-05
5.832e-05
5.83157e-05
1.77427e-05
5.85774e-05
5.85709e-05
6.97116e-05
6.96897e-05
2.76639e-05
4.38854e-05
1.51274e-05
1.6069e-05
2.7109e-05
4.43455e-05
1.50599e-05
5.19478e-05
6.99761e-05
5.12826e-05
7.00027e-05
2.766e-05
1.51272e-05
4.38907e-05
1.60695e-05
2.71086e-05
1.50598e-05
4.43349e-05
5.19359e-05
6.99781e-05
5.12904e-05
7.0005e-05
2.76607e-05
1.5128e-05
4.38855e-05
1.60691e-05
2.71081e-05
1.50604e-05
4.43343e-05
5.19436e-05
6.99745e-05
5.12853e-05
7.00015e-05
5.83201e-05
5.83168e-05
1.77445e-05
5.85762e-05
5.85725e-05
6.9712e-05
6.969e-05
2.76608e-05
1.51278e-05
4.38863e-05
1.60699e-05
2.71075e-05
1.50604e-05
4.43409e-05
5.19418e-05
6.99793e-05
5.12916e-05
7.0006e-05
5.19409e-05
6.99737e-05
5.12904e-05
7.0005e-05
6.9711e-05
6.9689e-05
6.97131e-05
6.96911e-05
6.97457e-05
4.98502e-05
6.9034e-05
5.70698e-05
6.90262e-05
5.68511e-05
6.97569e-05
7.11551e-05
7.29992e-05
6.99215e-05
7.11511e-05
7.31102e-05
6.97449e-05
4.9594e-05
6.90196e-05
5.6468e-05
6.97344e-05
6.90259e-05
5.6693e-05
7.11314e-05
7.32593e-05
6.99243e-05
7.31523e-05
7.11353e-05
6.97954e-05
6.97762e-05
6.97462e-05
4.98501e-05
5.70703e-05
6.90347e-05
5.68503e-05
6.90268e-05
6.97574e-05
7.11555e-05
7.29968e-05
6.99228e-05
7.11516e-05
7.31083e-05
6.97455e-05
4.95959e-05
5.64671e-05
6.90203e-05
6.9735e-05
5.66934e-05
6.90266e-05
7.11319e-05
7.32573e-05
6.99255e-05
7.31503e-05
7.11356e-05
6.97949e-05
6.97758e-05
8.65095e-05
7.26168e-05
7.26106e-05
7.2616e-05
7.26098e-05
8.66071e-05
5.44784e-05
5.75371e-05
3.58107e-05
6.84872e-05
5.45482e-05
5.75484e-05
3.58303e-05
6.84992e-05
8.64602e-05
7.26394e-05
7.26332e-05
5.47248e-05
6.85356e-05
5.76868e-05
3.62421e-05
3.61038e-05
6.85053e-05
5.48332e-05
5.4792e-05
6.85475e-05
5.76979e-05
3.62603e-05
3.61256e-05
6.85172e-05
5.49028e-05
6.97976e-05
5.17265e-05
6.9095e-05
5.84318e-05
6.90814e-05
5.82355e-05
6.98099e-05
7.10753e-05
7.35681e-05
6.99915e-05
7.10718e-05
7.36611e-05
6.97962e-05
5.15116e-05
6.90635e-05
5.79109e-05
6.9784e-05
6.90765e-05
5.81129e-05
7.10518e-05
7.37824e-05
6.99937e-05
7.36926e-05
7.10552e-05
6.97115e-05
6.9693e-05
6.9798e-05
5.17265e-05
5.8432e-05
6.90956e-05
5.82346e-05
6.90818e-05
6.98102e-05
7.10756e-05
7.35668e-05
6.99929e-05
7.10722e-05
7.36595e-05
6.97966e-05
5.1513e-05
5.79101e-05
6.90639e-05
6.97844e-05
5.8113e-05
6.90772e-05
7.10521e-05
7.37803e-05
6.9995e-05
7.36917e-05
7.10554e-05
6.97111e-05
6.96929e-05
8.70536e-05
7.25262e-05
7.25201e-05
7.25257e-05
7.25195e-05
8.71348e-05
5.58376e-05
3.7371e-05
6.86436e-05
5.83746e-05
5.57355e-05
3.75031e-05
6.86715e-05
5.59036e-05
3.73906e-05
6.86553e-05
5.8385e-05
5.58046e-05
3.75227e-05
6.86836e-05
8.70111e-05
7.25482e-05
7.25421e-05
8.69259e-05
7.25488e-05
7.25426e-05
5.60537e-05
6.87135e-05
5.85049e-05
3.79123e-05
3.77824e-05
6.86869e-05
5.61512e-05
5.61219e-05
6.87256e-05
5.85147e-05
3.79329e-05
3.78015e-05
6.86986e-05
5.62186e-05
6.97937e-05
6.97741e-05
6.97958e-05
6.97766e-05
8.65155e-05
7.26184e-05
7.26121e-05
7.26176e-05
7.26113e-05
8.66128e-05
5.44803e-05
3.56685e-05
6.84558e-05
5.75409e-05
5.43666e-05
6.84898e-05
3.58134e-05
5.45469e-05
3.56891e-05
6.84675e-05
5.75529e-05
5.44332e-05
6.85031e-05
3.58297e-05
8.64663e-05
7.26402e-05
7.2634e-05
8.63649e-05
7.26412e-05
7.26349e-05
5.47246e-05
6.85377e-05
5.769e-05
3.62429e-05
6.85056e-05
5.4835e-05
3.61003e-05
5.47924e-05
6.85508e-05
5.77025e-05
3.6262e-05
6.85166e-05
5.49027e-05
3.61219e-05
6.97316e-05
6.97507e-05
6.97341e-05
6.9753e-05
8.67535e-05
7.25949e-05
7.25886e-05
8.66604e-05
7.25956e-05
7.25893e-05
5.5409e-05
3.70889e-05
5.81123e-05
6.86292e-05
6.85993e-05
3.69505e-05
5.55132e-05
5.54761e-05
3.7109e-05
5.8124e-05
6.86418e-05
6.86125e-05
3.69691e-05
5.55843e-05
5.51779e-05
6.85536e-05
3.65279e-05
5.7972e-05
5.50726e-05
6.85842e-05
3.66689e-05
5.52464e-05
6.85664e-05
3.65476e-05
5.79858e-05
5.51409e-05
6.85969e-05
3.66897e-05
8.67978e-05
7.25728e-05
7.25666e-05
7.25721e-05
7.25659e-05
8.68884e-05
6.97453e-05
4.98503e-05
6.9034e-05
5.70687e-05
6.90262e-05
5.6847e-05
6.97564e-05
7.11546e-05
7.29799e-05
6.99182e-05
7.11509e-05
7.30901e-05
6.97446e-05
4.95944e-05
6.90196e-05
5.64637e-05
6.90259e-05
6.9734e-05
5.66916e-05
7.1131e-05
7.3239e-05
6.99212e-05
7.31346e-05
7.11346e-05
6.97695e-05
6.90355e-05
5.72189e-05
5.05868e-05
6.97579e-05
6.90454e-05
5.7432e-05
7.10919e-05
6.99599e-05
7.35338e-05
7.10954e-05
7.34371e-05
7.11154e-05
7.32986e-05
6.99575e-05
7.11117e-05
7.34006e-05
6.97707e-05
5.08222e-05
6.90598e-05
5.77794e-05
6.97827e-05
6.9048e-05
5.7572e-05
6.97691e-05
6.90355e-05
5.72148e-05
5.05872e-05
6.97574e-05
6.90455e-05
5.74305e-05
7.10911e-05
6.99568e-05
7.35143e-05
7.34195e-05
7.10944e-05
7.11145e-05
7.32786e-05
6.99541e-05
7.1111e-05
7.33792e-05
6.97702e-05
5.08223e-05
6.90598e-05
5.77776e-05
6.9048e-05
5.7568e-05
6.97822e-05
8.65129e-05
7.26126e-05
7.2618e-05
7.26117e-05
7.26171e-05
8.66154e-05
5.45527e-05
5.7549e-05
6.85014e-05
3.58356e-05
5.4477e-05
5.75422e-05
3.58096e-05
6.84911e-05
8.64689e-05
7.26352e-05
7.26407e-05
5.47893e-05
6.85497e-05
5.76984e-05
3.62633e-05
6.85153e-05
3.61204e-05
5.49071e-05
5.4723e-05
6.85396e-05
5.76918e-05
3.62414e-05
3.61044e-05
6.85053e-05
5.48358e-05
6.97939e-05
6.97743e-05
6.97338e-05
6.97527e-05
8.67552e-05
7.25891e-05
7.25945e-05
8.66577e-05
7.259e-05
7.25953e-05
5.54756e-05
3.71085e-05
5.81198e-05
6.86419e-05
3.69722e-05
6.86094e-05
5.55844e-05
5.54039e-05
3.70863e-05
5.81144e-05
6.86315e-05
6.85989e-05
3.69502e-05
5.55153e-05
5.52484e-05
6.85628e-05
3.65485e-05
5.79819e-05
3.6688e-05
5.51366e-05
6.85965e-05
5.51818e-05
6.85527e-05
3.65283e-05
5.79735e-05
5.50678e-05
6.85863e-05
3.66685e-05
8.67975e-05
7.25673e-05
7.25725e-05
7.25666e-05
7.25718e-05
8.68898e-05
6.97321e-05
6.97511e-05
6.97446e-05
4.985e-05
6.90343e-05
5.70649e-05
6.90265e-05
5.68461e-05
6.97558e-05
7.11521e-05
7.29799e-05
6.99159e-05
7.11483e-05
7.308e-05
6.97439e-05
4.95952e-05
6.90199e-05
5.64626e-05
6.90262e-05
6.97333e-05
5.66877e-05
7.11287e-05
7.32289e-05
6.9923e-05
7.3135e-05
7.11324e-05
6.977e-05
5.72182e-05
6.90361e-05
5.05889e-05
6.97584e-05
5.74323e-05
6.90462e-05
7.10922e-05
6.99612e-05
7.3533e-05
7.10957e-05
7.34356e-05
7.11157e-05
7.32959e-05
6.99588e-05
7.1112e-05
7.33987e-05
6.97712e-05
5.08224e-05
5.77797e-05
6.90605e-05
6.97831e-05
5.75714e-05
6.90486e-05
6.97685e-05
6.90358e-05
5.72144e-05
5.05879e-05
6.97568e-05
6.90457e-05
5.74269e-05
7.10892e-05
6.99585e-05
7.35036e-05
7.34196e-05
7.10927e-05
7.11126e-05
7.32818e-05
6.99515e-05
7.1109e-05
7.33692e-05
6.97697e-05
5.08222e-05
6.906e-05
5.77742e-05
6.90483e-05
5.75677e-05
6.97817e-05
6.9744e-05
4.98586e-05
5.70492e-05
6.90331e-05
5.68601e-05
6.90254e-05
6.9755e-05
7.11288e-05
7.32462e-05
6.99253e-05
7.31435e-05
7.11332e-05
6.97439e-05
4.98528e-05
6.90332e-05
5.70631e-05
6.90254e-05
5.68469e-05
6.9755e-05
7.11283e-05
7.32266e-05
6.99217e-05
7.31331e-05
7.1132e-05
6.97676e-05
5.72275e-05
6.90346e-05
5.05727e-05
6.97561e-05
5.74119e-05
6.90445e-05
7.10891e-05
6.99608e-05
7.35216e-05
7.34275e-05
7.10933e-05
7.11133e-05
7.32882e-05
6.9954e-05
7.1109e-05
7.33876e-05
6.97689e-05
5.08302e-05
5.776e-05
6.90589e-05
5.75796e-05
6.90469e-05
6.97807e-05
6.97676e-05
6.90346e-05
5.72152e-05
5.05818e-05
6.9756e-05
6.90446e-05
5.74251e-05
7.10886e-05
6.99572e-05
7.35023e-05
7.34169e-05
7.10921e-05
7.11121e-05
7.32791e-05
6.99505e-05
7.11085e-05
7.33687e-05
6.97687e-05
5.0825e-05
6.9059e-05
5.77726e-05
6.90469e-05
5.75682e-05
6.97807e-05
8.65098e-05
7.26121e-05
7.26178e-05
7.26113e-05
7.2617e-05
8.66113e-05
5.4552e-05
3.56911e-05
6.84661e-05
5.75474e-05
6.84999e-05
5.44315e-05
3.58316e-05
5.44824e-05
3.56738e-05
6.84574e-05
5.75438e-05
3.58129e-05
5.43664e-05
6.84897e-05
8.64649e-05
7.26338e-05
7.26396e-05
7.26347e-05
8.63602e-05
7.26405e-05
5.47886e-05
6.8548e-05
5.7697e-05
3.62615e-05
6.8516e-05
3.61228e-05
5.49047e-05
5.47242e-05
6.85387e-05
5.76927e-05
3.62434e-05
3.61051e-05
6.85071e-05
5.48354e-05
6.97942e-05
6.97748e-05
6.97337e-05
6.97523e-05
8.67518e-05
7.25887e-05
7.25943e-05
8.66539e-05
7.25894e-05
7.25951e-05
5.54748e-05
3.71104e-05
5.81193e-05
6.86396e-05
3.69706e-05
6.86105e-05
5.55858e-05
5.54092e-05
3.7088e-05
5.81154e-05
6.86317e-05
6.85985e-05
3.69537e-05
5.55141e-05
5.52484e-05
6.85644e-05
3.65493e-05
5.79801e-05
3.66895e-05
5.51374e-05
6.85944e-05
5.51792e-05
6.85521e-05
3.65318e-05
5.7975e-05
5.50722e-05
6.85863e-05
3.66678e-05
8.67925e-05
7.25668e-05
7.25725e-05
7.25661e-05
7.25717e-05
8.68865e-05
6.97326e-05
6.97514e-05
6.97449e-05
4.98584e-05
5.70671e-05
6.90332e-05
5.68532e-05
6.90255e-05
6.97559e-05
7.11542e-05
7.29979e-05
6.99194e-05
7.30997e-05
7.11504e-05
6.97441e-05
4.95885e-05
5.64701e-05
6.9019e-05
5.66901e-05
6.97336e-05
6.90252e-05
7.11307e-05
7.32501e-05
6.99264e-05
7.31488e-05
7.11344e-05
6.97437e-05
4.98573e-05
5.70653e-05
6.90328e-05
5.68471e-05
6.90251e-05
6.97549e-05
7.11525e-05
7.29777e-05
6.99165e-05
7.11487e-05
7.30858e-05
6.9743e-05
4.95876e-05
5.64637e-05
6.90186e-05
6.97325e-05
5.66881e-05
6.90248e-05
7.1129e-05
7.32344e-05
6.99222e-05
7.31306e-05
7.11328e-05
6.97685e-05
5.72211e-05
6.90348e-05
5.05814e-05
6.9757e-05
5.74293e-05
6.90446e-05
7.10911e-05
6.99618e-05
7.35247e-05
7.34352e-05
7.10945e-05
7.11145e-05
7.3296e-05
6.9955e-05
7.1111e-05
7.33913e-05
6.97698e-05
5.0831e-05
5.77768e-05
6.9059e-05
5.7574e-05
6.90472e-05
6.97817e-05
6.97675e-05
5.72153e-05
6.90344e-05
5.05806e-05
6.97558e-05
5.74275e-05
6.90442e-05
7.10895e-05
6.99565e-05
7.35096e-05
7.34169e-05
7.1093e-05
7.11129e-05
7.32777e-05
6.99538e-05
7.11094e-05
7.33762e-05
6.97686e-05
5.08298e-05
5.77751e-05
6.90586e-05
5.75683e-05
6.90468e-05
6.97806e-05
6.9793e-05
6.97737e-05
6.97951e-05
6.97759e-05
8.67477e-05
7.25934e-05
7.25873e-05
8.66544e-05
7.25941e-05
7.25879e-05
5.54079e-05
3.7085e-05
5.81097e-05
6.86277e-05
5.5511e-05
3.69541e-05
6.85989e-05
5.54771e-05
3.71067e-05
5.812e-05
6.86398e-05
5.55791e-05
3.69739e-05
6.86106e-05
5.51791e-05
6.8553e-05
3.65316e-05
5.79701e-05
5.50711e-05
3.66656e-05
6.85825e-05
5.52445e-05
6.85649e-05
3.65523e-05
5.79807e-05
5.51399e-05
3.66869e-05
6.85943e-05
8.67914e-05
7.25714e-05
7.25653e-05
8.68827e-05
7.25708e-05
7.25646e-05
6.97315e-05
6.97503e-05
6.97337e-05
6.97525e-05
6.97092e-05
6.96908e-05
6.97117e-05
6.96932e-05
8.70587e-05
7.25275e-05
7.25214e-05
7.25269e-05
7.25207e-05
8.71414e-05
5.58393e-05
3.7367e-05
6.86444e-05
5.83775e-05
5.57339e-05
6.86727e-05
3.75051e-05
5.59083e-05
3.73855e-05
6.86571e-05
5.83895e-05
5.58007e-05
6.86852e-05
3.7523e-05
8.7017e-05
7.25495e-05
7.25432e-05
8.69311e-05
7.25501e-05
7.25439e-05
5.60506e-05
6.87146e-05
5.85079e-05
3.79138e-05
6.86876e-05
5.61537e-05
3.7778e-05
5.61187e-05
6.87274e-05
5.85194e-05
3.79322e-05
6.87001e-05
5.62231e-05
3.77985e-05
6.97969e-05
5.17261e-05
6.90963e-05
5.843e-05
6.90802e-05
5.82312e-05
6.98092e-05
7.10742e-05
7.35489e-05
6.99885e-05
7.10709e-05
7.3641e-05
6.97956e-05
5.15114e-05
6.90632e-05
5.79066e-05
6.90768e-05
6.97834e-05
5.81106e-05
7.10509e-05
7.37633e-05
6.99909e-05
7.36758e-05
7.10541e-05
8.70562e-05
7.2522e-05
7.25272e-05
7.25213e-05
7.25266e-05
8.7142e-05
5.59096e-05
3.73884e-05
6.86539e-05
5.83859e-05
6.86855e-05
5.58019e-05
3.75241e-05
5.58393e-05
3.73688e-05
6.86435e-05
5.83788e-05
3.75017e-05
5.57316e-05
6.86751e-05
8.70185e-05
7.25439e-05
7.25491e-05
7.25446e-05
8.69289e-05
7.25498e-05
5.6118e-05
6.87272e-05
5.85146e-05
3.79339e-05
6.86968e-05
3.77996e-05
5.62223e-05
5.60507e-05
6.87174e-05
5.85098e-05
3.79119e-05
3.77815e-05
6.86866e-05
5.61537e-05
6.97099e-05
6.96914e-05
6.97965e-05
5.17258e-05
6.90951e-05
5.84269e-05
6.90817e-05
5.8231e-05
6.98088e-05
7.10727e-05
7.35535e-05
6.99862e-05
7.10694e-05
7.3631e-05
6.97952e-05
5.1512e-05
6.90638e-05
5.79065e-05
6.90767e-05
6.9783e-05
5.81074e-05
7.10494e-05
7.37519e-05
6.99927e-05
7.36777e-05
7.10526e-05
6.97955e-05
5.17335e-05
5.84147e-05
6.90956e-05
5.82412e-05
6.90784e-05
6.98076e-05
7.10732e-05
7.35596e-05
6.99883e-05
7.36493e-05
7.10691e-05
6.97941e-05
5.14982e-05
5.79174e-05
6.90618e-05
5.8094e-05
6.97821e-05
6.9076e-05
7.1049e-05
7.37701e-05
6.99948e-05
7.36842e-05
7.1053e-05
6.97954e-05
5.17287e-05
6.90957e-05
5.84255e-05
6.90784e-05
5.82314e-05
6.98077e-05
7.1072e-05
7.35478e-05
6.9985e-05
7.10687e-05
7.36309e-05
6.97941e-05
5.15066e-05
6.90617e-05
5.79067e-05
6.9782e-05
6.90761e-05
5.81059e-05
7.10487e-05
7.37505e-05
6.99914e-05
7.3675e-05
7.10518e-05
8.70527e-05
7.25216e-05
7.25273e-05
7.2521e-05
7.25266e-05
8.71396e-05
5.59101e-05
3.7387e-05
6.86553e-05
5.83838e-05
6.86833e-05
5.58008e-05
3.75241e-05
5.58387e-05
3.73712e-05
6.86433e-05
5.83798e-05
3.75022e-05
5.57368e-05
6.86753e-05
8.70158e-05
7.25435e-05
7.25492e-05
7.25442e-05
8.69254e-05
7.25499e-05
5.61184e-05
6.87255e-05
5.85148e-05
3.7935e-05
6.86985e-05
3.78e-05
5.62236e-05
5.60548e-05
6.87175e-05
5.85106e-05
3.79126e-05
3.77833e-05
6.86866e-05
5.61528e-05
6.97102e-05
6.96918e-05
6.97966e-05
5.17351e-05
5.84293e-05
6.90958e-05
5.82367e-05
6.90791e-05
6.98088e-05
7.10745e-05
7.35676e-05
6.99894e-05
7.36515e-05
7.10712e-05
6.97952e-05
5.15059e-05
5.79124e-05
6.90623e-05
5.81101e-05
6.9783e-05
6.90761e-05
7.10512e-05
7.37725e-05
6.99958e-05
7.3692e-05
7.10544e-05
6.97954e-05
5.17341e-05
5.84278e-05
6.90954e-05
5.82316e-05
6.90787e-05
6.98078e-05
7.1073e-05
7.35479e-05
6.99881e-05
7.10696e-05
7.36372e-05
6.97941e-05
5.15047e-05
5.79069e-05
6.90619e-05
6.97819e-05
5.81082e-05
6.90757e-05
7.10497e-05
7.37587e-05
6.99907e-05
7.36726e-05
7.10529e-05
6.9709e-05
6.96908e-05
6.97112e-05
6.96928e-05
1.59851e-05
1.59855e-05
1.55999e-05
1.58587e-05
1.5859e-05
1.62833e-05
1.64155e-05
3.44274e-05
1.72602e-05
2.26242e-05
2.2633e-05
1.54939e-05
1.54942e-05
1.51925e-05
1.53769e-05
1.53772e-05
1.57729e-05
1.58978e-05
3.61889e-05
2.368e-05
2.36859e-05
1.76276e-05
3.60546e-05
2.37529e-05
2.37591e-05
3.44413e-05
2.25497e-05
2.25531e-05
1.72674e-05
3.42881e-05
2.26462e-05
2.26471e-05
3.56141e-05
1.75023e-05
2.34816e-05
2.34807e-05
2.33773e-05
2.33827e-05
3.57642e-05
3.44369e-05
1.7269e-05
2.26502e-05
2.26302e-05
3.5612e-05
1.75026e-05
2.34807e-05
2.34688e-05
2.33822e-05
2.33819e-05
3.57636e-05
3.44429e-05
2.25563e-05
2.25638e-05
1.72687e-05
2.26287e-05
3.42886e-05
2.26485e-05
3.56159e-05
1.7502e-05
2.34861e-05
2.34757e-05
2.33821e-05
2.3377e-05
3.57625e-05
3.56203e-05
1.75135e-05
2.3464e-05
2.34625e-05
3.5756e-05
2.33908e-05
2.3398e-05
3.61949e-05
2.36633e-05
2.36704e-05
1.76315e-05
3.60479e-05
2.37723e-05
2.377e-05
3.61963e-05
2.36694e-05
2.36728e-05
1.76322e-05
2.37668e-05
3.60457e-05
2.37704e-05
3.61976e-05
2.36684e-05
2.36641e-05
1.76335e-05
2.37664e-05
3.60501e-05
2.37772e-05
1.59851e-05
1.59857e-05
1.56001e-05
1.58587e-05
1.58593e-05
1.62834e-05
1.64156e-05
1.59852e-05
1.59856e-05
1.56002e-05
1.58588e-05
1.58592e-05
1.62833e-05
1.64155e-05
1.59855e-05
1.59856e-05
1.56003e-05
1.5859e-05
1.58592e-05
1.62833e-05
1.64155e-05
1.54937e-05
1.56131e-05
1.56134e-05
1.57348e-05
1.57351e-05
1.6153e-05
1.60245e-05
1.54939e-05
1.56131e-05
1.56137e-05
1.57348e-05
1.57354e-05
1.6153e-05
1.60245e-05
1.5494e-05
1.56132e-05
1.56136e-05
1.57349e-05
1.57353e-05
1.61529e-05
1.60244e-05
1.54941e-05
1.56134e-05
1.56136e-05
1.57351e-05
1.57353e-05
1.6153e-05
1.60245e-05
1.83016e-05
2.58895e-05
3.0152e-05
1.6993e-05
3.00148e-05
1.69777e-05
1.83193e-05
2.07192e-05
3.69475e-05
4.28211e-05
2.53608e-05
2.52642e-05
3.68115e-05
2.07577e-05
1.82904e-05
2.58908e-05
1.70024e-05
3.01531e-05
1.69708e-05
3.00223e-05
1.83337e-05
2.0571e-05
2.49552e-05
3.64105e-05
4.25717e-05
2.05057e-05
2.50398e-05
3.65299e-05
1.82024e-05
2.56164e-05
1.68855e-05
2.9598e-05
1.81617e-05
1.69147e-05
2.97263e-05
2.07054e-05
3.69407e-05
4.28232e-05
2.53548e-05
2.52687e-05
3.6822e-05
2.0777e-05
3.47427e-05
1.7335e-05
2.28996e-05
2.2902e-05
2.28306e-05
2.2835e-05
3.48722e-05
1.5494e-05
1.54945e-05
1.51927e-05
1.5377e-05
1.53775e-05
1.57729e-05
1.58978e-05
1.5494e-05
1.54944e-05
1.51928e-05
1.5377e-05
1.53774e-05
1.57728e-05
1.58977e-05
1.54943e-05
1.54944e-05
1.51929e-05
1.53773e-05
1.53774e-05
1.57729e-05
1.58978e-05
1.88997e-05
2.75268e-05
3.18621e-05
1.7429e-05
3.1726e-05
1.74099e-05
1.89217e-05
2.14121e-05
2.624e-05
3.80309e-05
4.39916e-05
2.13717e-05
2.63304e-05
3.81551e-05
1.87585e-05
2.72392e-05
3.12984e-05
1.729e-05
1.87386e-05
3.14336e-05
1.7307e-05
2.16045e-05
3.85514e-05
4.42299e-05
2.6661e-05
2.65741e-05
3.84274e-05
2.16459e-05
1.88862e-05
2.75293e-05
1.74413e-05
3.1863e-05
1.74026e-05
3.17312e-05
1.89381e-05
2.14361e-05
2.62404e-05
3.80403e-05
4.39932e-05
2.13565e-05
2.6333e-05
3.81497e-05
1.87779e-05
2.72441e-05
1.72818e-05
3.13045e-05
1.87254e-05
1.73181e-05
3.14366e-05
2.15888e-05
3.85437e-05
4.42307e-05
2.66658e-05
2.65733e-05
3.84378e-05
2.16663e-05
3.64848e-05
1.77125e-05
2.40477e-05
2.40595e-05
2.39738e-05
2.39795e-05
3.66141e-05
3.47308e-05
1.73294e-05
2.29142e-05
2.2923e-05
3.48837e-05
2.28166e-05
2.28203e-05
3.53248e-05
1.74362e-05
2.3093e-05
2.30968e-05
3.51746e-05
2.31956e-05
2.32035e-05
1.82922e-05
2.58871e-05
3.01571e-05
1.70019e-05
3.0019e-05
1.69708e-05
1.8336e-05
2.05734e-05
2.49523e-05
3.64036e-05
4.25678e-05
3.65439e-05
2.05046e-05
2.50423e-05
1.82051e-05
2.562e-05
2.95946e-05
1.68855e-05
2.9728e-05
1.81634e-05
1.69139e-05
2.07059e-05
3.69595e-05
4.28221e-05
2.53572e-05
3.68132e-05
2.52686e-05
2.07779e-05
1.83046e-05
2.58853e-05
3.01575e-05
1.70008e-05
3.0015e-05
1.69707e-05
1.83212e-05
2.05537e-05
2.49477e-05
3.64098e-05
4.25793e-05
2.0522e-05
3.65264e-05
2.50596e-05
1.81895e-05
2.56213e-05
2.95906e-05
1.6885e-05
1.8174e-05
2.97311e-05
1.69131e-05
2.07253e-05
3.69411e-05
4.28215e-05
2.53758e-05
3.68179e-05
2.07582e-05
2.52611e-05
1.84752e-05
3.04432e-05
1.70651e-05
2.64224e-05
1.84282e-05
3.05857e-05
1.70987e-05
2.11328e-05
2.60154e-05
4.35318e-05
3.77665e-05
2.59028e-05
3.76263e-05
2.12085e-05
2.09887e-05
3.72179e-05
2.55859e-05
4.3301e-05
2.56826e-05
2.09156e-05
3.73647e-05
1.85742e-05
2.66948e-05
3.10119e-05
1.72042e-05
3.08696e-05
1.71686e-05
1.86236e-05
1.84598e-05
3.04397e-05
1.70652e-05
2.64247e-05
1.8442e-05
3.05819e-05
1.70984e-05
2.11521e-05
2.6025e-05
4.354e-05
3.77582e-05
3.76268e-05
2.59081e-05
2.11898e-05
2.0971e-05
3.72222e-05
2.55816e-05
4.33025e-05
2.09349e-05
3.73503e-05
2.56984e-05
1.8588e-05
2.6694e-05
3.10085e-05
1.72043e-05
3.08688e-05
1.71687e-05
1.86072e-05
3.47316e-05
1.73255e-05
2.29099e-05
2.29151e-05
2.28193e-05
2.28375e-05
3.48838e-05
3.53253e-05
1.74377e-05
2.31029e-05
2.3095e-05
2.3197e-05
3.51738e-05
2.3187e-05
1.82921e-05
2.58856e-05
3.01586e-05
1.69908e-05
3.00164e-05
1.69784e-05
1.83358e-05
2.05753e-05
2.49468e-05
3.64022e-05
4.25757e-05
3.65403e-05
2.05054e-05
2.50578e-05
1.82046e-05
2.56233e-05
2.95916e-05
1.68928e-05
2.97341e-05
1.81632e-05
1.69034e-05
2.07059e-05
3.6945e-05
4.28242e-05
2.53702e-05
3.68146e-05
2.52612e-05
2.07796e-05
1.82919e-05
2.58864e-05
1.69909e-05
3.01541e-05
1.69785e-05
3.00183e-05
1.8334e-05
2.0568e-05
2.49546e-05
3.64065e-05
4.25728e-05
2.05106e-05
3.65239e-05
2.5055e-05
1.8203e-05
2.56224e-05
1.6893e-05
2.95935e-05
1.81635e-05
1.69038e-05
2.97293e-05
2.07118e-05
3.69379e-05
4.28252e-05
2.53702e-05
3.68187e-05
2.07725e-05
2.5268e-05
1.84751e-05
3.04433e-05
1.7074e-05
2.64246e-05
1.84283e-05
3.05831e-05
1.70878e-05
2.11334e-05
2.60144e-05
4.35379e-05
3.77663e-05
2.59093e-05
3.76349e-05
2.12104e-05
2.09907e-05
3.72287e-05
2.55841e-05
4.3307e-05
2.56937e-05
2.0916e-05
3.73558e-05
1.85744e-05
2.66953e-05
3.10133e-05
1.71928e-05
3.08728e-05
1.71773e-05
1.86237e-05
1.84733e-05
1.70739e-05
3.04448e-05
2.64246e-05
1.84272e-05
1.70876e-05
3.058e-05
2.11374e-05
2.60265e-05
4.35417e-05
3.77491e-05
3.76319e-05
2.59107e-05
2.12093e-05
2.09845e-05
3.72265e-05
2.55864e-05
4.32971e-05
2.09214e-05
3.73462e-05
2.56931e-05
1.85731e-05
2.66958e-05
1.71926e-05
3.10078e-05
1.7177e-05
3.0873e-05
1.86222e-05
1.83046e-05
2.5888e-05
1.69926e-05
3.01519e-05
1.69787e-05
3.00179e-05
1.8322e-05
2.07193e-05
3.69313e-05
4.28213e-05
2.5353e-05
2.5265e-05
3.68168e-05
2.0761e-05
1.84566e-05
3.04427e-05
1.70732e-05
2.64197e-05
1.84386e-05
3.05793e-05
1.70898e-05
2.11465e-05
2.60048e-05
4.35383e-05
3.77546e-05
2.11863e-05
2.59091e-05
3.76265e-05
2.09693e-05
3.72188e-05
2.55849e-05
4.32921e-05
2.09292e-05
2.56808e-05
3.73535e-05
1.85853e-05
2.66965e-05
3.10048e-05
1.71944e-05
1.86039e-05
3.08699e-05
1.71769e-05
1.84605e-05
1.70743e-05
3.04455e-05
2.64221e-05
1.84417e-05
1.70893e-05
3.05762e-05
2.11457e-05
2.59992e-05
4.35381e-05
3.77445e-05
3.76317e-05
2.59099e-05
2.11903e-05
2.09723e-05
3.7229e-05
2.55859e-05
4.32917e-05
2.0929e-05
3.73365e-05
2.56739e-05
1.85878e-05
2.66957e-05
1.71934e-05
3.10026e-05
1.71776e-05
3.08738e-05
1.86073e-05
3.47301e-05
1.733e-05
2.29201e-05
2.29038e-05
2.28353e-05
2.28226e-05
3.48855e-05
3.53223e-05
1.7437e-05
2.30971e-05
2.31e-05
2.32001e-05
3.51741e-05
2.31887e-05
1.82932e-05
2.58856e-05
1.70027e-05
3.01536e-05
1.69705e-05
3.00166e-05
1.83361e-05
2.05747e-05
2.49612e-05
3.63956e-05
4.25724e-05
2.50467e-05
2.05071e-05
3.65389e-05
1.82052e-05
2.56213e-05
1.68851e-05
2.95899e-05
1.69148e-05
1.81641e-05
2.97282e-05
2.07092e-05
3.69493e-05
4.28293e-05
2.53691e-05
2.52771e-05
3.68067e-05
2.07779e-05
1.84729e-05
1.70652e-05
3.04495e-05
2.64189e-05
1.84259e-05
1.70993e-05
3.05796e-05
2.11315e-05
2.60043e-05
4.35392e-05
3.7756e-05
2.12109e-05
2.59113e-05
3.76364e-05
2.09892e-05
3.72307e-05
2.55875e-05
4.32976e-05
2.09149e-05
2.56778e-05
3.73489e-05
1.85717e-05
2.67007e-05
1.7204e-05
3.1007e-05
1.8623e-05
1.71693e-05
3.08776e-05
1.84757e-05
1.70652e-05
3.04441e-05
2.64249e-05
1.84296e-05
1.70995e-05
3.05814e-05
2.11379e-05
2.60197e-05
4.35383e-05
3.77543e-05
3.76277e-05
2.59104e-05
2.12054e-05
2.09863e-05
3.72174e-05
2.55887e-05
4.33039e-05
2.09199e-05
3.73507e-05
2.56917e-05
1.85761e-05
2.66946e-05
1.72044e-05
3.10123e-05
1.71693e-05
3.08716e-05
1.86244e-05
3.53164e-05
1.74245e-05
2.3107e-05
2.31145e-05
3.51834e-05
2.31816e-05
2.31792e-05
3.64794e-05
1.77084e-05
2.40687e-05
2.40713e-05
3.66222e-05
2.396e-05
2.39683e-05
1.88907e-05
2.75255e-05
3.18641e-05
1.74435e-05
3.17267e-05
1.74013e-05
1.89437e-05
2.14337e-05
2.62266e-05
3.80279e-05
4.39973e-05
3.81629e-05
2.13567e-05
2.63463e-05
1.8781e-05
2.72465e-05
3.12977e-05
1.72798e-05
3.14387e-05
1.8728e-05
1.73197e-05
2.15922e-05
3.85601e-05
4.42243e-05
2.66797e-05
3.84272e-05
2.656e-05
2.16645e-05
1.89043e-05
2.75249e-05
3.18657e-05
1.74433e-05
3.17257e-05
1.74016e-05
1.89264e-05
2.14177e-05
2.62343e-05
3.80274e-05
4.40008e-05
2.13783e-05
3.81602e-05
2.6352e-05
1.87638e-05
2.72457e-05
3.12981e-05
1.72802e-05
1.87431e-05
3.14377e-05
1.73196e-05
2.16081e-05
3.85581e-05
4.42321e-05
2.66833e-05
3.84238e-05
2.1649e-05
2.6569e-05
3.64766e-05
1.77104e-05
2.40635e-05
2.40655e-05
2.39656e-05
2.39659e-05
3.66208e-05
1.88909e-05
2.75256e-05
3.18672e-05
1.74294e-05
3.17253e-05
1.741e-05
1.89439e-05
2.14362e-05
2.6238e-05
3.80323e-05
4.40035e-05
3.81705e-05
2.13573e-05
2.63431e-05
1.87811e-05
2.72459e-05
3.12989e-05
1.72896e-05
3.14434e-05
1.87282e-05
1.7307e-05
2.15923e-05
3.85613e-05
4.42289e-05
2.66812e-05
3.84275e-05
2.65738e-05
2.16684e-05
1.8889e-05
2.75268e-05
1.74294e-05
3.18674e-05
1.74095e-05
3.17265e-05
1.89426e-05
2.14358e-05
2.62363e-05
3.80344e-05
4.39955e-05
2.13607e-05
3.81488e-05
2.63563e-05
1.87794e-05
2.7246e-05
1.72891e-05
3.13002e-05
1.87267e-05
1.73064e-05
3.14379e-05
2.1593e-05
3.85435e-05
4.42327e-05
2.66893e-05
3.84318e-05
2.16695e-05
2.65689e-05
1.89029e-05
2.75262e-05
1.743e-05
3.18594e-05
1.74105e-05
3.17304e-05
1.89255e-05
2.14178e-05
2.62391e-05
3.80328e-05
4.39961e-05
2.63319e-05
2.13712e-05
3.81476e-05
1.8763e-05
2.72452e-05
1.72903e-05
3.1302e-05
1.73071e-05
1.87422e-05
3.14311e-05
2.16023e-05
3.85422e-05
4.42271e-05
2.66693e-05
2.65714e-05
3.84311e-05
2.16509e-05
3.64782e-05
1.77105e-05
2.40721e-05
2.40661e-05
2.39609e-05
2.39651e-05
3.66232e-05
1.88923e-05
2.7526e-05
1.74405e-05
3.18655e-05
1.74032e-05
3.17238e-05
1.89443e-05
2.1431e-05
2.62374e-05
3.80303e-05
4.40005e-05
2.63476e-05
2.13623e-05
3.81574e-05
1.87818e-05
2.72464e-05
1.72811e-05
3.1296e-05
1.73183e-05
1.87298e-05
3.14403e-05
2.15961e-05
3.85557e-05
4.42291e-05
2.66792e-05
2.6571e-05
3.84257e-05
2.16635e-05
3.60233e-05
3.60197e-05
3.60197e-05
3.60086e-05
3.39295e-05
3.38855e-05
3.38852e-05
3.39589e-05
3.21567e-05
3.20017e-05
3.20018e-05
3.19435e-05
3.05323e-05
3.02207e-05
3.02207e-05
2.99754e-05
2.90294e-05
2.85438e-05
2.85436e-05
2.81075e-05
2.76308e-05
2.69752e-05
2.69752e-05
2.6375e-05
2.63253e-05
2.55177e-05
2.55181e-05
2.47915e-05
2.5105e-05
2.41709e-05
2.41713e-05
2.33614e-05
2.3964e-05
2.29357e-05
2.29362e-05
2.2088e-05
2.28981e-05
2.18113e-05
2.18117e-05
2.09687e-05
2.19038e-05
2.07951e-05
2.07955e-05
1.99957e-05
2.09777e-05
1.98842e-05
1.98846e-05
1.91633e-05
2.01148e-05
1.90766e-05
1.90769e-05
1.84697e-05
1.93139e-05
1.83689e-05
1.83692e-05
1.79097e-05
1.85741e-05
1.7758e-05
1.77581e-05
1.74789e-05
1.78928e-05
1.72421e-05
1.72422e-05
1.71696e-05
1.72675e-05
1.68204e-05
1.68205e-05
1.69864e-05
1.66963e-05
1.64922e-05
1.64923e-05
1.69403e-05
1.61778e-05
1.62572e-05
1.62573e-05
1.70348e-05
1.61156e-05
1.72597e-05
3.62977e-05
3.62919e-05
3.62919e-05
3.62977e-05
3.62919e-05
3.62919e-05
3.62908e-05
3.62908e-05
3.62908e-05
3.62908e-05
3.62919e-05
3.62919e-05
3.62978e-05
3.62919e-05
3.62919e-05
3.62978e-05
3.60085e-05
3.4266e-05
3.60197e-05
3.60197e-05
3.43735e-05
3.43735e-05