/*--------------------------------*- C++ -*----------------------------------*\
| =========                 |                                                 |
| \\      /  F ield         | OpenFOAM: The Open Source CFD Toolbox           |
|  \\    /   O peration     | Version:  2312                                  |
|   \\  /    A nd           | Website:  www.openfoam.com                      |
|    \\/     M anipulation  |                                                 |
\*---------------------------------------------------------------------------*/
FoamFile
{
    version     2.0;
    format      ascii;
    arch        "LSB;label=32;scalar=64";
    class       volScalarField;
    location    "950";
    object      k;
}
// * * * * * * * * * * * * * * * * * * * * * * * * * * * * * * * * * * * * * //

dimensions      [0 2 -2 0 0 0 0];

internalField   nonuniform List<scalar> 
43168
(
3.91948e-05
5.15792e-05
5.1583e-05
5.36654e-05
5.36226e-05
5.15256e-05
5.15207e-05
5.36164e-05
5.1523e-05
5.15238e-05
5.15248e-05
5.15249e-05
5.36205e-05
5.15286e-05
5.15228e-05
5.36203e-05
5.36626e-05
5.15799e-05
5.15752e-05
5.36611e-05
5.15774e-05
5.15782e-05
5.15792e-05
5.36681e-05
5.15771e-05
7.34435e-05
7.34445e-05
3.90994e-05
3.90989e-05
3.91037e-05
3.91021e-05
6.86288e-05
7.3475e-05
6.8606e-05
7.34994e-05
7.12225e-05
7.12475e-05
6.86281e-05
7.34777e-05
6.86051e-05
7.35001e-05
3.9194e-05
3.91991e-05
3.91972e-05
6.07223e-05
6.48329e-05
4.69228e-05
5.1631e-05
6.06838e-05
6.48569e-05
4.6989e-05
7.12237e-05
7.12483e-05
6.07223e-05
4.69261e-05
6.48335e-05
5.16349e-05
6.06837e-05
4.69923e-05
6.48582e-05
6.99675e-05
6.99759e-05
5.37046e-05
6.99823e-05
6.99909e-05
7.11934e-05
7.11964e-05
5.35362e-05
6.99381e-05
6.99459e-05
7.122e-05
7.11949e-05
7.1223e-05
7.11979e-05
5.35743e-05
6.9963e-05
6.99709e-05
6.99462e-05
6.99546e-05
5.14139e-05
6.47946e-05
6.85787e-05
7.34718e-05
7.3447e-05
6.86034e-05
6.8577e-05
7.34685e-05
7.34437e-05
6.86015e-05
6.06368e-05
5.14707e-05
6.48266e-05
4.68531e-05
6.48006e-05
4.67836e-05
6.06777e-05
6.06352e-05
5.14643e-05
6.48226e-05
4.68508e-05
6.47967e-05
4.6781e-05
6.06761e-05
7.12213e-05
7.1196e-05
5.3573e-05
6.99629e-05
6.99634e-05
6.99463e-05
7.12212e-05
5.14112e-05
6.47969e-05
6.85776e-05
7.34726e-05
7.34494e-05
6.86025e-05
6.06359e-05
5.14682e-05
6.48287e-05
4.68525e-05
6.48021e-05
4.67829e-05
6.06774e-05
6.8576e-05
7.3468e-05
7.34452e-05
6.86007e-05
6.06345e-05
5.1469e-05
4.68533e-05
6.48242e-05
4.67836e-05
6.4798e-05
6.0676e-05
6.48272e-05
4.68536e-05
6.06774e-05
7.34719e-05
6.86003e-05
4.68541e-05
6.48236e-05
6.06773e-05
7.34679e-05
6.86014e-05
7.12222e-05
7.11972e-05
5.35892e-05
6.99651e-05
6.99627e-05
6.99497e-05
6.99469e-05
7.12209e-05
7.11959e-05
6.06361e-05
5.14737e-05
4.68571e-05
6.48283e-05
4.67876e-05
6.48019e-05
6.06774e-05
6.06336e-05
5.14682e-05
4.68546e-05
6.48262e-05
4.67851e-05
6.47996e-05
6.06746e-05
6.85759e-05
7.34727e-05
7.34477e-05
6.85999e-05
6.85725e-05
7.34694e-05
7.34467e-05
6.85962e-05
5.35814e-05
6.99585e-05
6.99672e-05
6.99514e-05
7.12208e-05
7.12235e-05
7.11986e-05
7.12214e-05
7.12462e-05
7.12245e-05
7.12492e-05
6.99709e-05
6.99791e-05
5.37039e-05
6.99867e-05
6.99948e-05
7.12475e-05
7.12506e-05
5.37469e-05
6.99943e-05
7.00024e-05
6.86273e-05
7.34717e-05
6.86042e-05
7.34961e-05
6.07227e-05
6.4832e-05
4.69221e-05
5.1632e-05
6.0684e-05
6.48563e-05
4.69883e-05
6.07211e-05
6.48281e-05
4.69199e-05
5.16271e-05
6.06824e-05
6.48523e-05
4.6986e-05
6.86313e-05
7.35025e-05
6.86297e-05
7.34992e-05
6.07284e-05
5.16837e-05
6.48615e-05
4.70542e-05
6.07267e-05
5.16788e-05
6.48576e-05
4.70519e-05
6.99708e-05
6.99722e-05
5.37009e-05
6.99866e-05
6.9987e-05
7.12227e-05
7.12473e-05
7.12486e-05
5.37447e-05
6.99941e-05
6.99954e-05
7.12487e-05
6.07227e-05
6.48336e-05
4.69215e-05
5.16294e-05
6.06836e-05
6.48586e-05
4.69878e-05
6.86266e-05
7.34731e-05
6.86033e-05
7.34956e-05
6.07213e-05
4.69222e-05
6.48298e-05
5.16302e-05
6.06822e-05
4.69885e-05
6.48539e-05
6.86305e-05
7.35051e-05
6.07284e-05
5.16812e-05
6.48631e-05
4.70538e-05
6.86289e-05
7.35006e-05
6.0727e-05
5.1682e-05
4.70544e-05
6.48594e-05
6.86261e-05
7.34752e-05
6.86036e-05
7.34995e-05
6.07224e-05
4.69231e-05
6.48288e-05
5.16313e-05
6.06836e-05
4.69894e-05
6.48534e-05
6.86272e-05
7.3473e-05
6.86042e-05
7.34955e-05
6.07282e-05
5.16828e-05
6.48623e-05
4.70549e-05
6.86291e-05
7.35026e-05
6.07281e-05
5.1683e-05
4.70553e-05
6.48583e-05
6.86297e-05
7.35005e-05
6.99742e-05
6.99717e-05
5.37066e-05
6.99889e-05
6.99865e-05
7.12224e-05
7.12471e-05
7.12498e-05
5.37485e-05
6.99975e-05
6.99952e-05
7.12485e-05
6.07199e-05
4.69236e-05
6.48313e-05
5.16291e-05
6.06812e-05
4.69897e-05
6.48561e-05
6.86258e-05
7.34759e-05
6.86031e-05
7.35003e-05
6.86222e-05
7.34745e-05
6.85998e-05
7.3497e-05
6.07282e-05
5.16867e-05
4.70581e-05
6.48629e-05
6.07259e-05
5.16809e-05
4.70556e-05
6.48608e-05
6.86286e-05
7.35034e-05
6.86255e-05
7.3502e-05
7.12224e-05
7.1247e-05
7.12251e-05
7.12497e-05
5.37465e-05
6.99909e-05
6.99993e-05
7.12484e-05
7.12512e-05
7.1683e-05
7.97897e-05
7.34322e-05
7.97821e-05
7.16973e-05
7.34354e-05
7.19038e-05
6.86186e-05
7.1687e-05
7.16505e-05
7.16753e-05
7.16433e-05
7.1917e-05
7.17361e-05
7.98176e-05
7.34857e-05
7.1722e-05
7.98248e-05
7.19033e-05
6.86163e-05
7.16616e-05
7.16314e-05
7.18899e-05
7.16732e-05
7.1639e-05
7.17348e-05
7.98359e-05
7.34888e-05
7.9829e-05
7.17489e-05
7.12345e-05
7.12356e-05
7.19038e-05
6.86178e-05
7.16501e-05
7.16871e-05
7.16397e-05
7.16753e-05
7.19171e-05
7.17363e-05
7.98153e-05
7.34865e-05
7.17222e-05
7.98227e-05
7.19034e-05
6.86155e-05
7.16281e-05
7.16617e-05
7.18899e-05
7.16386e-05
7.16732e-05
7.1735e-05
7.98339e-05
7.34914e-05
7.98267e-05
7.17491e-05
7.12353e-05
7.12368e-05
9.50343e-05
7.35521e-05
7.35454e-05
7.35388e-05
7.35322e-05
9.50367e-05
7.41992e-05
6.52884e-05
7.33011e-05
6.99706e-05
7.41943e-05
6.52994e-05
7.33128e-05
7.4247e-05
6.52965e-05
7.33124e-05
6.99792e-05
7.42422e-05
6.53081e-05
7.3321e-05
9.5024e-05
7.35267e-05
7.35201e-05
9.50214e-05
7.354e-05
7.35334e-05
7.42083e-05
7.3326e-05
6.99793e-05
6.53176e-05
6.53069e-05
7.33143e-05
7.42128e-05
7.4256e-05
7.3334e-05
6.99878e-05
6.53263e-05
6.53149e-05
7.33256e-05
7.42606e-05
7.11815e-05
7.11845e-05
9.49853e-05
7.35032e-05
7.34964e-05
7.34896e-05
7.34828e-05
9.49881e-05
7.41521e-05
7.32731e-05
6.99335e-05
6.52429e-05
7.32609e-05
7.41572e-05
6.52321e-05
7.41982e-05
7.32824e-05
6.99418e-05
6.5251e-05
7.32702e-05
7.42033e-05
6.52384e-05
7.12082e-05
7.12068e-05
7.12113e-05
7.12098e-05
9.50016e-05
7.3502e-05
7.34952e-05
9.4999e-05
7.35155e-05
7.35087e-05
7.4182e-05
6.5282e-05
6.99587e-05
7.33002e-05
7.32882e-05
6.52719e-05
7.41867e-05
7.42281e-05
6.529e-05
6.99669e-05
7.33095e-05
7.32975e-05
6.52782e-05
7.42328e-05
7.41722e-05
7.32748e-05
6.52523e-05
6.99505e-05
7.41674e-05
7.32867e-05
6.52626e-05
7.42183e-05
7.32841e-05
6.52586e-05
6.99586e-05
7.42134e-05
7.3296e-05
6.52706e-05
9.50123e-05
7.35278e-05
7.3521e-05
7.35143e-05
7.35075e-05
9.50148e-05
7.18754e-05
7.1633e-05
7.16063e-05
6.85897e-05
7.18621e-05
7.16448e-05
7.16144e-05
7.17091e-05
7.34609e-05
7.98133e-05
7.17233e-05
7.98061e-05
7.17103e-05
7.97942e-05
7.34577e-05
7.16961e-05
7.98017e-05
7.18765e-05
6.85925e-05
7.16594e-05
7.16269e-05
7.18893e-05
7.16473e-05
7.16188e-05
7.18743e-05
7.16327e-05
7.16013e-05
6.85881e-05
7.18617e-05
7.16446e-05
7.16094e-05
7.17085e-05
7.34577e-05
7.9795e-05
7.97878e-05
7.17227e-05
7.17097e-05
7.9776e-05
7.34545e-05
7.16955e-05
7.97834e-05
7.18754e-05
6.85908e-05
7.16587e-05
7.16217e-05
7.16469e-05
7.16139e-05
7.18885e-05
7.12093e-05
7.12081e-05
7.42293e-05
6.52862e-05
6.99586e-05
7.33078e-05
6.52752e-05
7.32959e-05
7.42324e-05
7.41824e-05
6.52831e-05
6.99604e-05
7.32995e-05
7.32909e-05
6.52719e-05
7.41855e-05
6.52557e-05
6.99505e-05
6.52668e-05
9.50104e-05
7.35216e-05
7.35282e-05
7.35082e-05
7.35144e-05
9.50119e-05
7.12095e-05
7.18759e-05
7.16026e-05
7.16328e-05
6.85887e-05
7.18624e-05
7.16138e-05
7.16448e-05
7.17093e-05
7.34637e-05
7.98114e-05
7.17235e-05
7.98038e-05
7.17105e-05
7.97921e-05
7.34587e-05
7.16963e-05
7.97996e-05
7.1877e-05
6.85915e-05
7.16267e-05
7.16594e-05
7.18891e-05
7.16155e-05
7.16473e-05
7.18736e-05
7.16322e-05
7.15976e-05
6.85872e-05
7.18624e-05
7.16444e-05
7.16088e-05
7.17073e-05
7.34592e-05
7.97918e-05
7.97844e-05
7.17215e-05
7.17086e-05
7.97726e-05
7.3454e-05
7.16943e-05
7.97801e-05
7.1875e-05
6.85899e-05
7.16585e-05
7.16213e-05
7.16466e-05
7.16104e-05
7.18882e-05
7.17076e-05
7.34611e-05
7.98046e-05
7.98006e-05
7.17223e-05
7.18752e-05
6.85902e-05
7.16218e-05
7.16582e-05
7.16122e-05
7.1646e-05
7.18884e-05
7.17079e-05
7.34591e-05
7.97913e-05
7.97837e-05
7.1722e-05
7.18752e-05
6.85907e-05
7.16584e-05
7.16219e-05
7.16464e-05
7.16111e-05
7.18885e-05
7.12105e-05
7.12089e-05
9.49966e-05
7.34952e-05
7.35013e-05
9.49944e-05
7.35086e-05
7.35148e-05
7.42285e-05
6.52882e-05
6.99621e-05
7.33077e-05
6.52761e-05
7.32958e-05
7.42332e-05
7.4181e-05
6.52836e-05
6.99595e-05
7.32982e-05
7.32896e-05
6.52719e-05
7.41856e-05
7.42188e-05
7.32821e-05
6.52563e-05
6.99528e-05
6.52688e-05
7.4214e-05
7.32941e-05
7.41713e-05
7.32764e-05
6.52521e-05
6.99503e-05
7.41664e-05
7.32849e-05
6.52642e-05
9.50077e-05
7.35209e-05
7.3527e-05
7.35075e-05
7.35136e-05
9.50098e-05
7.12092e-05
7.12076e-05
7.18746e-05
7.16031e-05
7.16314e-05
6.85865e-05
7.18635e-05
7.16143e-05
7.16437e-05
7.17092e-05
7.34618e-05
7.98095e-05
7.98021e-05
7.17233e-05
7.17104e-05
7.97902e-05
7.34586e-05
7.16962e-05
7.97979e-05
7.18761e-05
6.85897e-05
7.16267e-05
7.16578e-05
7.16159e-05
7.16458e-05
7.18893e-05
7.1874e-05
7.15954e-05
7.16302e-05
6.85828e-05
7.18601e-05
7.1606e-05
7.16427e-05
7.17083e-05
7.34606e-05
7.97927e-05
7.97854e-05
7.17226e-05
7.17096e-05
7.97736e-05
7.34555e-05
7.16953e-05
7.97811e-05
7.18744e-05
6.85864e-05
7.16184e-05
7.16569e-05
7.16082e-05
7.16447e-05
7.18872e-05
9.49978e-05
7.35156e-05
7.3509e-05
7.41802e-05
6.52808e-05
6.99553e-05
7.32996e-05
7.41849e-05
6.52693e-05
7.32875e-05
7.42282e-05
6.52894e-05
6.99638e-05
7.33076e-05
7.42328e-05
6.52773e-05
7.32989e-05
7.41707e-05
6.99461e-05
6.52615e-05
7.32859e-05
7.42185e-05
6.52576e-05
6.99548e-05
6.527e-05
7.32941e-05
9.50082e-05
7.35279e-05
7.35212e-05
9.50109e-05
7.35145e-05
7.35079e-05
7.12092e-05
7.12076e-05
7.12119e-05
7.12103e-05
7.12332e-05
7.12345e-05
7.12361e-05
7.12376e-05
9.50382e-05
7.3552e-05
7.35452e-05
7.35387e-05
7.35319e-05
9.50405e-05
7.42009e-05
6.52909e-05
7.33019e-05
6.99749e-05
7.41964e-05
7.33137e-05
6.53007e-05
7.42469e-05
6.52973e-05
7.33112e-05
6.9983e-05
7.42423e-05
7.3323e-05
6.53087e-05
9.50278e-05
7.35265e-05
7.35197e-05
9.50254e-05
7.35399e-05
7.35331e-05
7.42101e-05
7.33269e-05
6.99828e-05
6.53187e-05
7.33152e-05
7.42144e-05
6.53093e-05
7.42561e-05
7.33362e-05
6.99909e-05
6.53267e-05
7.33245e-05
7.42605e-05
6.53157e-05
7.12591e-05
7.12621e-05
9.50529e-05
7.35507e-05
7.35439e-05
9.50508e-05
7.3564e-05
7.35572e-05
7.42277e-05
7.33283e-05
6.53271e-05
6.99981e-05
7.42235e-05
7.334e-05
6.53362e-05
7.42738e-05
7.33377e-05
6.53335e-05
7.00062e-05
7.42694e-05
7.33493e-05
6.53442e-05
7.19033e-05
6.8617e-05
7.16868e-05
7.16455e-05
7.16749e-05
7.16382e-05
7.19162e-05
7.17355e-05
7.97993e-05
7.34824e-05
7.17214e-05
7.98065e-05
7.19028e-05
6.86146e-05
7.16611e-05
7.16263e-05
7.16728e-05
7.18894e-05
7.1634e-05
7.17342e-05
7.98176e-05
7.34855e-05
7.98107e-05
7.17483e-05
7.19304e-05
7.16894e-05
7.16548e-05
6.86411e-05
7.19174e-05
7.1701e-05
7.1662e-05
7.17615e-05
7.98401e-05
7.35129e-05
7.17475e-05
7.98469e-05
7.19297e-05
7.1689e-05
7.16496e-05
6.86396e-05
7.19167e-05
7.17007e-05
7.16569e-05
7.17609e-05
7.98218e-05
7.35096e-05
7.17469e-05
7.98285e-05
9.50356e-05
7.35456e-05
7.3552e-05
7.35323e-05
7.35387e-05
9.50374e-05
7.42464e-05
6.52942e-05
7.33096e-05
6.99748e-05
7.33213e-05
7.4243e-05
6.53048e-05
7.41996e-05
6.52909e-05
7.33042e-05
6.99754e-05
6.53017e-05
7.41965e-05
7.3313e-05
9.50247e-05
7.35203e-05
7.35269e-05
7.35336e-05
9.50229e-05
7.35401e-05
7.42567e-05
7.33345e-05
6.99826e-05
6.53229e-05
7.33228e-05
6.53127e-05
7.42599e-05
7.42103e-05
7.33261e-05
6.99839e-05
6.53197e-05
6.53093e-05
7.33176e-05
7.42132e-05
7.12344e-05
7.12358e-05
7.12604e-05
9.50499e-05
7.35443e-05
7.35506e-05
9.50482e-05
7.35576e-05
7.35638e-05
7.42729e-05
7.3336e-05
6.53304e-05
6.99979e-05
6.53403e-05
7.42699e-05
7.33475e-05
7.42263e-05
7.33308e-05
6.53271e-05
6.99983e-05
7.42236e-05
7.33392e-05
6.53372e-05
7.12602e-05
7.19028e-05
6.86162e-05
7.16866e-05
7.16452e-05
7.16747e-05
7.16346e-05
7.19158e-05
7.17344e-05
7.9796e-05
7.3482e-05
7.17203e-05
7.98032e-05
7.19023e-05
6.86138e-05
7.16609e-05
7.16229e-05
7.16726e-05
7.18891e-05
7.16334e-05
7.17331e-05
7.98144e-05
7.34869e-05
7.98074e-05
7.17471e-05
7.19304e-05
7.16515e-05
7.16895e-05
6.86404e-05
7.19174e-05
7.16616e-05
7.17011e-05
7.17617e-05
7.98378e-05
7.35138e-05
7.17477e-05
7.98448e-05
7.19292e-05
7.16889e-05
7.16465e-05
6.86389e-05
7.19162e-05
7.17006e-05
7.16567e-05
7.17598e-05
7.98185e-05
7.35092e-05
7.17458e-05
7.98254e-05
7.19023e-05
6.86165e-05
7.16455e-05
7.16863e-05
7.16365e-05
7.16743e-05
7.19156e-05
7.17352e-05
7.98122e-05
7.34858e-05
7.98159e-05
7.17205e-05
7.19022e-05
6.86134e-05
7.16247e-05
7.16605e-05
7.16338e-05
7.18891e-05
7.16724e-05
7.17332e-05
7.98271e-05
7.34889e-05
7.98234e-05
7.17479e-05
7.1903e-05
6.8617e-05
7.16865e-05
7.16458e-05
7.16747e-05
7.16354e-05
7.1916e-05
7.17349e-05
7.97953e-05
7.34819e-05
7.17208e-05
7.98027e-05
7.19024e-05
6.86145e-05
7.16608e-05
7.16237e-05
7.18895e-05
7.16726e-05
7.16341e-05
7.17335e-05
7.98139e-05
7.34868e-05
7.98066e-05
7.17476e-05
7.19289e-05
7.16482e-05
7.16884e-05
6.86384e-05
7.19162e-05
7.16569e-05
7.17003e-05
7.17605e-05
7.98344e-05
7.3513e-05
7.17459e-05
7.98379e-05
7.19294e-05
7.16888e-05
7.16472e-05
6.86395e-05
7.19163e-05
7.17005e-05
7.16573e-05
7.17602e-05
7.98177e-05
7.35091e-05
7.17462e-05
7.98247e-05
9.50335e-05
7.35451e-05
7.35513e-05
7.35318e-05
7.3538e-05
9.50355e-05
7.42473e-05
6.52953e-05
7.33096e-05
6.99772e-05
7.33212e-05
7.42427e-05
6.53068e-05
7.41999e-05
6.52911e-05
7.33031e-05
6.99747e-05
6.53022e-05
7.41952e-05
7.33118e-05
9.50228e-05
7.35197e-05
7.35259e-05
7.3533e-05
9.50207e-05
7.35392e-05
7.42564e-05
7.33344e-05
6.9986e-05
6.53248e-05
7.33228e-05
6.53137e-05
7.42609e-05
7.4209e-05
7.3325e-05
6.99836e-05
6.53204e-05
6.53096e-05
7.33165e-05
7.42134e-05
7.12341e-05
7.12355e-05
7.12612e-05
9.5048e-05
7.35439e-05
7.355e-05
9.50461e-05
7.35571e-05
7.35633e-05
7.42742e-05
7.3336e-05
6.53315e-05
7.00003e-05
6.53425e-05
7.42699e-05
7.33475e-05
7.42268e-05
7.33298e-05
6.53274e-05
6.99979e-05
7.42225e-05
7.33381e-05
6.53379e-05
7.126e-05
7.19038e-05
6.8616e-05
7.16504e-05
7.16859e-05
7.16399e-05
7.16738e-05
7.19168e-05
7.17362e-05
7.98136e-05
7.34866e-05
7.98209e-05
7.17221e-05
7.19033e-05
6.86131e-05
7.16283e-05
7.166e-05
7.16388e-05
7.18901e-05
7.16719e-05
7.17349e-05
7.9832e-05
7.34897e-05
7.98249e-05
7.17489e-05
7.19014e-05
6.86128e-05
7.16423e-05
7.16849e-05
7.16325e-05
7.16727e-05
7.1915e-05
7.17354e-05
7.9797e-05
7.34834e-05
7.17212e-05
7.98042e-05
7.19011e-05
6.86094e-05
7.16207e-05
7.16589e-05
7.18884e-05
7.16306e-05
7.16709e-05
7.1734e-05
7.98153e-05
7.34884e-05
7.98083e-05
7.17482e-05
7.19302e-05
7.16517e-05
7.1688e-05
6.8638e-05
7.19171e-05
7.16618e-05
7.16999e-05
7.17615e-05
7.98359e-05
7.35138e-05
7.17476e-05
7.98429e-05
7.19284e-05
7.16443e-05
7.16868e-05
6.86344e-05
7.1915e-05
7.16538e-05
7.16989e-05
7.17608e-05
7.98194e-05
7.35107e-05
7.17467e-05
7.98263e-05
7.1234e-05
7.12355e-05
7.12367e-05
7.12382e-05
9.50492e-05
7.35508e-05
7.35442e-05
9.50469e-05
7.35641e-05
7.35574e-05
7.42261e-05
7.33275e-05
6.53248e-05
6.99937e-05
7.42216e-05
6.53351e-05
7.3339e-05
7.42739e-05
7.33389e-05
6.53328e-05
7.00023e-05
7.42694e-05
6.53437e-05
7.33473e-05
7.12599e-05
7.12626e-05
3.89044e-05
3.22686e-05
3.22661e-05
3.92874e-05
3.23849e-05
3.23826e-05
2.34441e-05
2.33005e-05
6.59957e-05
5.95673e-05
5.95685e-05
5.36637e-05
6.59896e-05
5.95692e-05
5.95707e-05
6.59703e-05
5.362e-05
5.95411e-05
5.95417e-05
5.95372e-05
5.95376e-05
6.59765e-05
6.59698e-05
5.36178e-05
5.95364e-05
5.95408e-05
5.95336e-05
5.9537e-05
6.59754e-05
6.59703e-05
5.36283e-05
5.95383e-05
5.95415e-05
5.95385e-05
5.95411e-05
6.59759e-05
6.59691e-05
5.36239e-05
5.95399e-05
5.95405e-05
6.59749e-05
5.95365e-05
5.95378e-05
6.59967e-05
5.95672e-05
5.95677e-05
5.36625e-05
6.5991e-05
5.95702e-05
5.9571e-05
6.59959e-05
5.95638e-05
5.95672e-05
5.36593e-05
5.95702e-05
6.59903e-05
5.9566e-05
6.5996e-05
5.95678e-05
5.95703e-05
5.3664e-05
5.95728e-05
6.59901e-05
5.95695e-05
3.90032e-05
3.21495e-05
3.21469e-05
3.20297e-05
3.20269e-05
2.30091e-05
2.3155e-05
3.9003e-05
3.2149e-05
3.21484e-05
3.20293e-05
3.20286e-05
2.30096e-05
2.31554e-05
3.90074e-05
3.21525e-05
3.21524e-05
3.20324e-05
3.20327e-05
2.30131e-05
2.31589e-05
3.9006e-05
3.21534e-05
3.21514e-05
3.20331e-05
3.20318e-05
2.30137e-05
2.31595e-05
3.2268e-05
3.22673e-05
3.92865e-05
3.23843e-05
3.23838e-05
2.34446e-05
2.33009e-05
3.22717e-05
3.22715e-05
3.92919e-05
3.23882e-05
3.23879e-05
2.34481e-05
2.33044e-05
3.22722e-05
3.22705e-05
3.92899e-05
3.23888e-05
3.23868e-05
2.34485e-05
2.33049e-05
3.93795e-05
3.25006e-05
3.24984e-05
2.35875e-05
3.93785e-05
3.25e-05
3.24992e-05
2.35879e-05
3.93838e-05
3.25039e-05
3.25035e-05
2.35914e-05
3.9382e-05
3.25043e-05
3.25025e-05
2.35918e-05
5.64377e-05
6.07063e-05
6.24065e-05
5.51715e-05
6.23912e-05
5.51692e-05
5.64306e-05
5.74841e-05
6.04491e-05
6.42507e-05
6.48423e-05
5.74825e-05
6.04491e-05
6.42613e-05
5.63972e-05
6.07002e-05
6.23711e-05
5.51327e-05
5.64039e-05
6.23866e-05
5.51349e-05
5.75117e-05
6.42787e-05
6.48477e-05
6.04724e-05
6.04728e-05
6.42684e-05
5.75129e-05
5.64396e-05
6.07062e-05
5.51716e-05
6.24096e-05
5.51693e-05
6.23935e-05
5.64328e-05
5.7484e-05
6.04503e-05
6.42524e-05
6.48435e-05
5.7485e-05
6.04537e-05
6.4264e-05
5.63993e-05
6.07001e-05
5.51323e-05
6.23736e-05
5.64058e-05
5.51344e-05
6.23897e-05
5.75151e-05
6.42815e-05
6.48484e-05
6.04778e-05
6.04727e-05
6.42703e-05
5.75136e-05
6.60097e-05
5.37064e-05
5.95982e-05
5.95994e-05
5.9596e-05
5.95971e-05
6.60153e-05
6.59273e-05
5.35331e-05
5.94801e-05
5.94804e-05
6.59338e-05
5.94754e-05
5.94758e-05
6.59553e-05
5.35779e-05
5.95057e-05
5.95059e-05
6.59491e-05
5.95102e-05
5.95105e-05
5.73964e-05
6.42061e-05
6.4784e-05
6.03736e-05
6.41958e-05
6.0374e-05
5.7385e-05
5.63263e-05
6.23329e-05
5.50611e-05
6.06545e-05
5.63373e-05
6.23452e-05
5.50565e-05
5.74588e-05
6.04257e-05
6.48164e-05
6.42444e-05
6.04247e-05
6.42348e-05
5.74474e-05
5.74154e-05
6.42156e-05
6.03996e-05
6.48107e-05
6.03999e-05
5.74275e-05
6.42257e-05
5.63726e-05
6.06608e-05
6.23664e-05
5.5092e-05
6.23546e-05
5.50971e-05
5.63617e-05
5.6322e-05
6.23282e-05
5.50593e-05
6.06529e-05
5.6333e-05
6.23406e-05
5.50543e-05
5.74537e-05
6.04216e-05
6.48127e-05
6.42366e-05
6.42268e-05
6.04214e-05
5.74415e-05
5.74104e-05
6.42078e-05
6.03958e-05
6.48069e-05
5.74227e-05
6.4218e-05
6.03959e-05
5.63682e-05
6.06592e-05
6.23618e-05
5.50901e-05
6.23499e-05
5.50953e-05
5.63573e-05
5.35705e-05
5.95031e-05
5.95059e-05
6.47858e-05
6.0378e-05
6.03719e-05
5.63274e-05
6.23281e-05
5.50566e-05
6.06538e-05
5.63326e-05
6.23455e-05
5.50597e-05
5.74485e-05
6.04277e-05
6.48182e-05
6.42442e-05
6.04235e-05
6.42324e-05
5.74481e-05
5.74196e-05
6.42134e-05
6.03968e-05
6.48129e-05
6.04022e-05
5.74169e-05
6.42254e-05
5.63678e-05
6.06602e-05
6.23671e-05
5.50977e-05
6.23503e-05
5.5095e-05
5.63622e-05
5.63248e-05
5.50556e-05
6.23241e-05
6.06524e-05
5.63301e-05
5.50588e-05
6.23417e-05
5.74445e-05
6.04241e-05
6.48143e-05
6.42358e-05
6.42256e-05
6.04225e-05
5.74425e-05
5.74151e-05
6.42061e-05
6.03975e-05
6.48086e-05
5.74126e-05
6.42174e-05
6.03974e-05
5.63654e-05
6.06588e-05
5.50966e-05
6.23632e-05
5.50941e-05
6.23462e-05
5.63595e-05
5.74515e-05
6.04251e-05
6.48174e-05
6.42433e-05
5.7453e-05
6.04246e-05
6.42321e-05
5.63693e-05
6.06602e-05
6.23661e-05
5.50984e-05
5.63627e-05
6.23495e-05
5.50954e-05
5.74477e-05
6.04252e-05
6.48132e-05
6.42375e-05
6.42258e-05
6.04195e-05
5.74463e-05
5.6368e-05
6.066e-05
5.50987e-05
6.23644e-05
5.50959e-05
6.23476e-05
5.63612e-05
6.59537e-05
5.35737e-05
5.9509e-05
5.95117e-05
5.95076e-05
6.59496e-05
5.95103e-05
5.63305e-05
5.50566e-05
6.233e-05
6.06536e-05
5.63357e-05
5.50601e-05
6.23473e-05
5.74537e-05
6.04307e-05
6.4818e-05
6.4246e-05
5.74525e-05
6.04243e-05
6.42338e-05
5.7425e-05
6.42147e-05
6.03982e-05
6.48126e-05
5.7423e-05
6.04046e-05
6.42271e-05
5.63707e-05
6.06604e-05
5.50981e-05
6.23694e-05
5.6365e-05
5.50955e-05
6.23521e-05
5.63253e-05
5.50559e-05
6.23236e-05
6.06511e-05
5.63304e-05
5.50591e-05
6.23406e-05
5.74469e-05
6.04276e-05
6.48157e-05
6.42377e-05
6.42258e-05
6.04212e-05
5.74455e-05
5.7418e-05
6.42066e-05
6.03968e-05
6.48105e-05
5.74161e-05
6.42188e-05
6.04015e-05
5.63655e-05
6.06579e-05
5.50969e-05
6.23622e-05
5.50943e-05
6.23457e-05
5.636e-05
6.59544e-05
5.35743e-05
5.95074e-05
5.95094e-05
5.95086e-05
6.6011e-05
5.37054e-05
5.95989e-05
5.95998e-05
6.60164e-05
5.95964e-05
5.95969e-05
6.60355e-05
5.37446e-05
5.96248e-05
5.96253e-05
6.60302e-05
5.9627e-05
5.96279e-05
5.644e-05
6.07065e-05
6.24072e-05
5.51663e-05
6.23964e-05
5.51709e-05
5.64291e-05
5.74773e-05
6.04483e-05
6.42531e-05
6.48416e-05
6.42625e-05
5.74891e-05
6.04496e-05
5.63961e-05
6.07006e-05
6.2376e-05
5.51347e-05
6.23875e-05
5.64068e-05
5.51299e-05
5.75189e-05
6.42801e-05
6.4847e-05
6.04732e-05
6.42712e-05
6.04721e-05
5.75079e-05
5.64357e-05
6.07048e-05
6.24026e-05
5.51644e-05
6.23916e-05
5.51691e-05
5.64247e-05
5.74712e-05
6.04448e-05
6.42452e-05
6.48377e-05
5.74835e-05
6.42548e-05
6.0444e-05
5.63917e-05
6.06989e-05
6.23713e-05
5.5133e-05
5.64024e-05
6.23829e-05
5.5128e-05
5.75132e-05
6.42724e-05
6.48431e-05
6.0469e-05
6.42633e-05
5.75019e-05
6.04698e-05
5.64617e-05
6.24159e-05
5.52059e-05
6.07441e-05
5.64724e-05
6.24266e-05
5.52015e-05
5.75383e-05
6.42885e-05
6.04947e-05
6.48705e-05
6.04959e-05
5.75451e-05
6.42971e-05
5.64573e-05
6.24111e-05
5.52041e-05
6.07424e-05
5.64681e-05
6.24219e-05
5.51997e-05
5.75323e-05
6.42806e-05
6.04923e-05
6.48666e-05
5.75392e-05
6.42894e-05
6.04924e-05
6.60102e-05
5.37035e-05
5.9595e-05
5.95989e-05
5.95965e-05
5.95933e-05
6.60155e-05
6.60346e-05
5.37415e-05
5.96218e-05
5.96248e-05
5.96231e-05
6.60294e-05
5.96268e-05
5.64369e-05
6.07062e-05
6.2408e-05
5.51711e-05
6.23919e-05
5.51691e-05
5.64303e-05
5.74796e-05
6.04467e-05
6.4251e-05
6.48439e-05
6.42624e-05
5.74804e-05
6.04526e-05
5.63965e-05
6.07004e-05
6.23717e-05
5.51315e-05
6.23879e-05
5.6403e-05
5.5134e-05
5.75107e-05
6.428e-05
6.48486e-05
6.04764e-05
6.42689e-05
6.04711e-05
5.75095e-05
5.64348e-05
6.07048e-05
5.517e-05
6.24042e-05
5.5168e-05
6.23879e-05
5.64276e-05
5.74744e-05
6.04464e-05
6.42442e-05
6.48393e-05
5.74778e-05
6.42539e-05
6.04473e-05
5.63937e-05
6.0699e-05
5.51305e-05
6.23677e-05
5.64006e-05
5.51329e-05
6.23841e-05
5.7512e-05
6.42718e-05
6.48449e-05
6.04695e-05
6.42623e-05
5.75032e-05
6.04699e-05
5.64622e-05
6.2412e-05
5.52038e-05
6.07441e-05
5.64697e-05
6.24274e-05
5.52035e-05
5.75384e-05
6.42863e-05
6.04942e-05
6.48728e-05
6.04989e-05
5.75402e-05
6.4297e-05
5.64596e-05
5.52027e-05
6.2408e-05
6.07427e-05
5.64676e-05
5.52024e-05
6.24236e-05
5.75346e-05
6.42798e-05
6.04941e-05
6.48683e-05
5.7541e-05
6.42889e-05
6.0494e-05
5.64366e-05
6.0706e-05
5.51714e-05
6.24054e-05
5.51694e-05
6.23895e-05
5.64293e-05
5.74782e-05
6.04436e-05
6.42446e-05
6.48387e-05
6.0449e-05
5.74794e-05
6.42557e-05
5.63958e-05
6.07001e-05
5.51322e-05
6.23693e-05
5.51345e-05
5.64028e-05
6.23852e-05
5.75096e-05
6.42733e-05
6.48438e-05
6.04727e-05
6.04676e-05
6.42625e-05
5.7508e-05
5.64627e-05
6.24112e-05
5.52038e-05
6.07437e-05
5.64703e-05
6.24259e-05
5.52054e-05
5.75396e-05
6.42858e-05
6.04967e-05
6.48712e-05
5.75401e-05
6.04964e-05
6.42957e-05
5.64615e-05
5.52041e-05
6.24095e-05
6.07438e-05
5.64693e-05
5.5204e-05
6.24249e-05
5.75369e-05
6.42799e-05
6.04915e-05
6.48676e-05
5.7539e-05
6.42903e-05
6.04954e-05
6.60103e-05
5.37086e-05
5.95987e-05
5.96014e-05
5.95995e-05
5.9597e-05
6.60158e-05
6.60352e-05
5.37468e-05
5.96248e-05
5.96277e-05
5.9627e-05
6.60298e-05
5.96299e-05
5.64347e-05
6.07038e-05
5.51702e-05
6.24031e-05
5.51681e-05
6.23873e-05
5.64281e-05
5.74773e-05
6.04459e-05
6.42444e-05
6.48413e-05
6.04512e-05
5.74784e-05
6.42558e-05
5.63943e-05
6.06976e-05
5.51307e-05
6.23671e-05
5.51332e-05
5.64007e-05
6.2383e-05
5.75085e-05
6.42734e-05
6.48462e-05
6.04748e-05
6.04699e-05
6.42624e-05
5.75071e-05
5.64647e-05
5.52039e-05
6.24135e-05
6.07436e-05
5.64721e-05
5.52055e-05
6.24289e-05
5.75423e-05
6.42875e-05
6.04962e-05
6.48723e-05
5.75444e-05
6.05002e-05
6.42984e-05
5.646e-05
5.52027e-05
6.24074e-05
6.07412e-05
5.64674e-05
5.52026e-05
6.24226e-05
5.75359e-05
6.42797e-05
6.04937e-05
6.48703e-05
5.75379e-05
6.42904e-05
6.04975e-05
6.60345e-05
5.37448e-05
5.96237e-05
5.96248e-05
6.6029e-05
5.96262e-05
5.96274e-05
3.95573e-05
5.17812e-05
5.17852e-05
5.3825e-05
3.98926e-05
5.19623e-05
5.19665e-05
5.3969e-05
4.02012e-05
5.21232e-05
5.21273e-05
5.40963e-05
4.04837e-05
5.22642e-05
5.22683e-05
5.42077e-05
4.07407e-05
5.2386e-05
5.239e-05
5.4304e-05
4.0973e-05
5.24893e-05
5.24931e-05
5.43852e-05
4.11813e-05
5.25747e-05
5.25783e-05
5.4452e-05
4.13665e-05
5.26429e-05
5.26464e-05
5.45046e-05
4.15295e-05
5.26945e-05
5.2698e-05
5.45437e-05
4.16711e-05
5.27303e-05
5.27338e-05
5.45703e-05
4.17922e-05
5.27509e-05
5.27544e-05
5.45915e-05
4.18937e-05
5.2757e-05
5.27605e-05
5.45923e-05
4.19762e-05
5.27509e-05
5.27545e-05
5.45827e-05
4.20412e-05
5.27325e-05
5.2736e-05
5.45592e-05
4.20898e-05
5.27023e-05
5.27057e-05
5.45274e-05
4.21228e-05
5.26613e-05
5.26644e-05
5.44879e-05
4.21412e-05
5.26103e-05
5.26133e-05
5.44406e-05
4.21454e-05
5.25503e-05
5.25534e-05
5.43851e-05
4.21117e-05
5.24741e-05
5.24774e-05
5.43109e-05
4.37928e-05
5.05496e-05
5.05528e-05
5.39417e-05
5.37837e-05
5.17329e-05
5.1728e-05
5.37808e-05
5.17304e-05
5.17313e-05
5.1732e-05
5.17322e-05
5.37859e-05
5.1736e-05
5.17301e-05
5.37838e-05
5.38255e-05
5.39305e-05
5.17821e-05
5.17772e-05
5.19191e-05
5.19141e-05
5.38233e-05
5.39274e-05
5.17797e-05
5.17806e-05
5.19167e-05
5.19176e-05
5.17815e-05
5.19181e-05
5.19183e-05
5.38271e-05
5.39324e-05
5.17794e-05
5.19222e-05
5.19164e-05
5.39304e-05
5.39696e-05
5.40613e-05
5.19634e-05
5.19583e-05
5.20847e-05
5.20795e-05
5.39676e-05
5.4058e-05
5.1961e-05
5.1962e-05
5.20824e-05
5.20833e-05
5.19627e-05
5.20836e-05
5.2084e-05
5.39712e-05
5.40622e-05
5.19607e-05
5.20878e-05
5.2082e-05
5.40609e-05
5.40972e-05
5.41759e-05
5.21243e-05
5.21191e-05
5.22304e-05
5.22251e-05
5.40956e-05
5.4173e-05
5.2122e-05
5.21229e-05
5.22282e-05
5.2229e-05
5.21236e-05
5.22293e-05
5.22296e-05
5.40987e-05
5.41763e-05
5.21216e-05
5.22333e-05
5.22277e-05
5.41752e-05
5.42088e-05
5.42749e-05
5.22653e-05
5.22601e-05
5.23566e-05
5.23514e-05
5.42072e-05
5.42723e-05
5.22632e-05
5.2264e-05
5.23545e-05
5.23553e-05
5.22646e-05
5.23556e-05
5.23558e-05
5.42105e-05
5.42754e-05
5.22627e-05
5.23595e-05
5.23539e-05
5.42741e-05
5.4305e-05
5.43589e-05
5.23871e-05
5.23819e-05
5.24643e-05
5.2459e-05
5.43032e-05
5.43565e-05
5.23851e-05
5.23858e-05
5.24622e-05
5.24628e-05
5.23864e-05
5.24632e-05
5.24634e-05
5.43062e-05
5.43593e-05
5.23845e-05
5.2467e-05
5.24616e-05
5.43578e-05
5.43862e-05
5.44282e-05
5.24904e-05
5.24851e-05
5.25538e-05
5.25485e-05
5.43843e-05
5.44259e-05
5.24883e-05
5.24889e-05
5.25518e-05
5.25523e-05
5.24895e-05
5.25528e-05
5.25529e-05
5.43871e-05
5.44287e-05
5.24877e-05
5.25565e-05
5.25511e-05
5.4427e-05
5.44527e-05
5.44834e-05
5.25757e-05
5.25704e-05
5.26259e-05
5.26207e-05
5.44509e-05
5.44811e-05
5.25737e-05
5.25742e-05
5.2624e-05
5.26244e-05
5.25748e-05
5.26249e-05
5.2625e-05
5.44535e-05
5.44838e-05
5.2573e-05
5.26285e-05
5.26233e-05
5.44824e-05
5.45052e-05
5.45249e-05
5.26438e-05
5.26386e-05
5.26814e-05
5.26761e-05
5.45033e-05
5.45227e-05
5.26419e-05
5.26423e-05
5.26795e-05
5.26798e-05
5.2643e-05
5.26804e-05
5.26806e-05
5.4506e-05
5.45254e-05
5.26412e-05
5.26839e-05
5.26788e-05
5.45241e-05
5.45441e-05
5.45537e-05
5.26954e-05
5.26902e-05
5.27211e-05
5.27159e-05
5.45423e-05
5.45511e-05
5.26936e-05
5.26939e-05
5.27193e-05
5.27195e-05
5.26947e-05
5.27202e-05
5.27203e-05
5.45449e-05
5.45544e-05
5.26929e-05
5.27237e-05
5.27187e-05
5.45526e-05
5.45703e-05
5.45726e-05
5.27312e-05
5.2726e-05
5.27462e-05
5.27409e-05
5.45688e-05
5.45654e-05
5.27294e-05
5.27296e-05
5.27444e-05
5.27446e-05
5.27304e-05
5.27452e-05
5.27454e-05
5.45709e-05
5.4573e-05
5.27288e-05
5.27488e-05
5.27438e-05
5.45671e-05
5.45855e-05
5.45773e-05
5.27518e-05
5.27466e-05
5.27572e-05
5.27519e-05
5.45899e-05
5.4568e-05
5.275e-05
5.27502e-05
5.27554e-05
5.27556e-05
5.27511e-05
5.27563e-05
5.27564e-05
5.45867e-05
5.45771e-05
5.27495e-05
5.27598e-05
5.27548e-05
5.45734e-05
5.45882e-05
5.45685e-05
5.27579e-05
5.27526e-05
5.27536e-05
5.27484e-05
5.45927e-05
5.45602e-05
5.27562e-05
5.27563e-05
5.27519e-05
5.27521e-05
5.27572e-05
5.27528e-05
5.27529e-05
5.45895e-05
5.45684e-05
5.27556e-05
5.27563e-05
5.27514e-05
5.45612e-05
5.45782e-05
5.4548e-05
5.27518e-05
5.27465e-05
5.27371e-05
5.27318e-05
5.45809e-05
5.45415e-05
5.27501e-05
5.27503e-05
5.27353e-05
5.27355e-05
5.27511e-05
5.27363e-05
5.27364e-05
5.45788e-05
5.45485e-05
5.27495e-05
5.27398e-05
5.27349e-05
5.45423e-05
5.45565e-05
5.45184e-05
5.27334e-05
5.2728e-05
5.27084e-05
5.27033e-05
5.4558e-05
5.45138e-05
5.27317e-05
5.27318e-05
5.27067e-05
5.27071e-05
5.27325e-05
5.27077e-05
5.27079e-05
5.45571e-05
5.45191e-05
5.2731e-05
5.27113e-05
5.27065e-05
5.45141e-05
5.45273e-05
5.44794e-05
5.27034e-05
5.26978e-05
5.26686e-05
5.26636e-05
5.45262e-05
5.44769e-05
5.27016e-05
5.27014e-05
5.26668e-05
5.26676e-05
5.2702e-05
5.26679e-05
5.26683e-05
5.45281e-05
5.44799e-05
5.27006e-05
5.26719e-05
5.26669e-05
5.44773e-05
5.4489e-05
5.44327e-05
5.26624e-05
5.26568e-05
5.26186e-05
5.26137e-05
5.44872e-05
5.44307e-05
5.26608e-05
5.26601e-05
5.26168e-05
5.26179e-05
5.26607e-05
5.2618e-05
5.26185e-05
5.44895e-05
5.44333e-05
5.26593e-05
5.26222e-05
5.26171e-05
5.44315e-05
5.44417e-05
5.43786e-05
5.26115e-05
5.26059e-05
5.25594e-05
5.25546e-05
5.44399e-05
5.43766e-05
5.26099e-05
5.26089e-05
5.25578e-05
5.25589e-05
5.26097e-05
5.2559e-05
5.25593e-05
5.44423e-05
5.43791e-05
5.26083e-05
5.25632e-05
5.2558e-05