/*--------------------------------*- C++ -*----------------------------------*\
| =========                 |                                                 |
| \\      /  F ield         | OpenFOAM: The Open Source CFD Toolbox           |
|  \\    /   O peration     | Version:  2312                                  |
|   \\  /    A nd           | Website:  www.openfoam.com                      |
|    \\/     M anipulation  |                                                 |
\*---------------------------------------------------------------------------*/
FoamFile
{
    version     2.0;
    format      ascii;
    arch        "LSB;label=32;scalar=64";
    class       volScalarField;
    location    "950";
    object      p;
}
// * * * * * * * * * * * * * * * * * * * * * * * * * * * * * * * * * * * * * //

dimensions      [0 2 -2 0 0 0 0];

internalField   nonuniform List<scalar> 
43168
(
0.000710853
0.000710801
0.000710801
0.000712377
0.000718025
0.000719636
0.000719636
0.000718024
0.000719636
0.000719636
0.000719636
0.000719636
0.000718025
0.000719636
0.000719636
0.000718024
0.000712377
0.000710801
0.000710801
0.000712376
0.000710801
0.000710801
0.000710801
0.000712377
0.000710801
0.000735141
0.000735141
0.000719689
0.000719689
0.000719689
0.000719689
0.000699803
0.000712944
0.000712932
0.000699805
0.000712951
0.000699804
0.000699803
0.000712944
0.000712932
0.000699805
0.000710853
0.000710853
0.000710853
0.000699884
0.000712897
0.00071082
0.000701964
0.000712848
0.00069984
0.000701983
0.000712951
0.000699804
0.000699884
0.00071082
0.000712897
0.000701964
0.000712848
0.000701983
0.00069984
0.000712944
0.000712944
0.000700352
0.000699798
0.000699798
0.00073514
0.00073514
0.000735691
0.000735135
0.000735134
0.000717475
0.000730618
0.000717475
0.000730618
0.000730044
0.00071747
0.000717469
0.00073061
0.00073061
0.000737302
0.000735177
0.000730599
0.000717476
0.000730611
0.000717474
0.000730599
0.000717476
0.00073061
0.000717474
0.000730515
0.00072847
0.000717511
0.000719656
0.000730563
0.00072849
0.000717555
0.000730515
0.00072847
0.000717512
0.000719656
0.000730563
0.00072849
0.000717555
0.000717475
0.000730618
0.000730043
0.00071747
0.000717469
0.00073061
0.000717475
0.000737302
0.000735176
0.000730599
0.000717476
0.000730611
0.000717474
0.000730514
0.00072847
0.000717511
0.000719656
0.000730563
0.00072849
0.000717556
0.000730598
0.000717476
0.000730611
0.000717474
0.000730514
0.00072847
0.000719656
0.000717511
0.00072849
0.000730563
0.000717556
0.000717511
0.000719655
0.000717556
0.000717476
0.000717474
0.000719656
0.000717511
0.000717556
0.000717476
0.000717474
0.000717475
0.000730618
0.000730044
0.000717469
0.000717469
0.00073061
0.00073061
0.000717475
0.000730618
0.000730514
0.00072847
0.000719656
0.000717511
0.00072849
0.000730563
0.000717556
0.000730514
0.00072847
0.000719656
0.000717511
0.00072849
0.000730563
0.000717556
0.000730598
0.000717476
0.000730611
0.000717474
0.000730598
0.000717476
0.000730611
0.000717475
0.000730043
0.000717469
0.000717469
0.00073061
0.000717475
0.000717475
0.000730618
0.000712952
0.000699804
0.000712952
0.000699804
0.000712944
0.000712944
0.000700352
0.000699799
0.000699798
0.000695279
0.000695279
0.000694703
0.000695271
0.000695271
0.000699803
0.000712944
0.000712932
0.000699805
0.000699884
0.000712897
0.00071082
0.000701964
0.000712848
0.00069984
0.000701983
0.000699884
0.000712896
0.00071082
0.000701964
0.000712848
0.00069984
0.000701983
0.000695259
0.000695272
0.000695259
0.000695271
0.000695175
0.000693126
0.000695224
0.000693145
0.000695175
0.000693126
0.000695224
0.000693145
0.000712943
0.000712944
0.000700353
0.000699799
0.000699799
0.000712951
0.000699804
0.000695279
0.000694702
0.000695271
0.000695271
0.000695279
0.000699884
0.000712897
0.00071082
0.000701964
0.000712848
0.00069984
0.000701983
0.000699803
0.000712944
0.000712932
0.000699805
0.000699884
0.00071082
0.000712897
0.000701964
0.000712848
0.000701983
0.00069984
0.000695259
0.000695272
0.000695175
0.000693126
0.000695224
0.000693145
0.000695259
0.000695272
0.000695175
0.000693126
0.000693145
0.000695224
0.000699803
0.000712944
0.000712932
0.000699805
0.000699884
0.000710821
0.000712897
0.000701964
0.000712848
0.000701984
0.00069984
0.000699803
0.000712944
0.000712932
0.000699805
0.000695175
0.000693126
0.000695224
0.000693145
0.000695259
0.000695272
0.000695175
0.000693126
0.000693145
0.000695224
0.000695259
0.000695272
0.000712944
0.000712944
0.000700352
0.000699798
0.000699799
0.000712952
0.000699804
0.000695279
0.000694703
0.000695271
0.000695271
0.000695279
0.000699884
0.00071082
0.000712897
0.000701964
0.000712848
0.000701983
0.00069984
0.000699803
0.000712944
0.000712932
0.000699805
0.000699803
0.000712944
0.000712931
0.000699805
0.000695175
0.000693126
0.000693144
0.000695224
0.000695175
0.000693125
0.000693144
0.000695224
0.000695259
0.000695272
0.000695259
0.000695272
0.000712951
0.000699804
0.000712952
0.000699804
0.000694703
0.000695271
0.000695271
0.000695279
0.000695279
0.000739453
0.000735128
0.000739442
0.000739446
0.000735137
0.000739442
0.000704119
0.000704097
0.000699797
0.000699801
0.000704117
0.0007041
0.000699797
0.000708638
0.000712948
0.000708641
0.000712956
0.000708629
0.000708633
0.000708639
0.000712952
0.000712935
0.000712954
0.000708633
0.000708638
0.00070412
0.000699792
0.000704109
0.000704113
0.000699801
0.00070864
0.000704116
0.000704119
0.000704097
0.000699801
0.000699797
0.0007041
0.000704117
0.000699797
0.000708638
0.000712949
0.000708641
0.000712956
0.000708629
0.000708634
0.000708639
0.000712935
0.000712952
0.000712954
0.000708638
0.000708633
0.000704121
0.000699792
0.000704109
0.000704113
0.000699801
0.00070864
0.000704116
0.000704122
0.000699799
0.000699799
0.000704126
0.000704126
0.00069979
0.000708658
0.000712886
0.000712947
0.000708635
0.00071292
0.000708687
0.000708643
0.000708657
0.000712887
0.000712947
0.000708635
0.00071292
0.000708687
0.000708643
0.000708626
0.000712961
0.000712961
0.000712958
0.000708636
0.000708636
0.000704084
0.000699806
0.000704108
0.000699851
0.000704051
0.000704111
0.000699821
0.000704085
0.000699806
0.000704108
0.000699851
0.000704051
0.000704112
0.000699821
0.000739449
0.000739449
0.000739455
0.000735135
0.000735135
0.000739459
0.000739459
0.000735126
0.000739417
0.000735143
0.000739441
0.000735188
0.000739444
0.000735158
0.000739384
0.000739418
0.000735143
0.000739441
0.000735188
0.000739444
0.000735158
0.000739384
0.000721786
0.000726308
0.000721786
0.000726308
0.000726294
0.000730628
0.000730628
0.000730624
0.000726304
0.000726304
0.000721754
0.000717523
0.000721778
0.000717478
0.000721781
0.00072172
0.000717493
0.000721754
0.000717522
0.000721778
0.000717478
0.000721781
0.00072172
0.000717493
0.000726326
0.000730613
0.000730553
0.000726303
0.000730586
0.000726311
0.000726356
0.000726326
0.000730613
0.000730553
0.000726303
0.000730587
0.000726311
0.000726356
0.000721792
0.000717471
0.000717471
0.000721795
0.000721795
0.000717461
0.000726301
0.000730619
0.000730602
0.000726307
0.000730621
0.000726301
0.000726306
0.00072179
0.000721778
0.000717463
0.000717472
0.000721782
0.000726305
0.000730615
0.000726309
0.000730622
0.000726297
0.000721788
0.000721766
0.000717468
0.000717472
0.000717468
0.000721786
0.000721769
0.000726301
0.000730619
0.000730602
0.000726307
0.000730621
0.000726301
0.000726305
0.00072179
0.000721778
0.000717463
0.000721782
0.000717472
0.000726305
0.000730615
0.000726309
0.000730622
0.000726296
0.000721788
0.000721766
0.000717468
0.000717472
0.000721786
0.000721769
0.000717468
0.000721785
0.000726308
0.000721754
0.000717522
0.000721777
0.000717478
0.000721721
0.000721781
0.000717492
0.000721753
0.000717522
0.000721777
0.000717477
0.000721781
0.00072172
0.000717493
0.000730552
0.000726303
0.000726356
0.000721791
0.00071747
0.00071747
0.000721795
0.000721795
0.000717461
0.000721786
0.000726301
0.000730602
0.000730619
0.000726307
0.00073062
0.000726306
0.000726301
0.00072179
0.000721778
0.000717463
0.000717472
0.000721782
0.000726305
0.000730615
0.000726309
0.000730622
0.000726296
0.000721788
0.000721766
0.000717473
0.000717468
0.000717468
0.000721769
0.000721786
0.000726301
0.000730618
0.000730602
0.000726307
0.000730621
0.000726301
0.000726305
0.00072179
0.000721778
0.000717463
0.000721782
0.000717472
0.000726305
0.000730615
0.000726309
0.000730622
0.000726296
0.000721788
0.000721766
0.000717468
0.000717472
0.000721786
0.000721769
0.000717468
0.00072179
0.000721778
0.000717464
0.000721782
0.000717472
0.000721788
0.000721765
0.000717473
0.000717468
0.000721768
0.000721786
0.000717468
0.00072179
0.000721778
0.000717463
0.000721782
0.000717472
0.000721788
0.000721766
0.000717468
0.000717472
0.000721786
0.000721769
0.000717468
0.000721785
0.000726308
0.000726294
0.000730628
0.000730628
0.000730624
0.000726304
0.000726304
0.000721754
0.000717522
0.000721778
0.000717477
0.000721721
0.000721781
0.000717492
0.000721754
0.000717522
0.000721778
0.000717478
0.000721781
0.000721721
0.000717492
0.000726326
0.000730614
0.000730554
0.000726302
0.000726355
0.000730587
0.000726311
0.000726326
0.000730614
0.000730553
0.000726303
0.000730587
0.000726311
0.000726356
0.000721792
0.00071747
0.00071747
0.000721795
0.000721795
0.000717461
0.000721785
0.000726308
0.000726301
0.000730602
0.000730618
0.000726307
0.000730621
0.000726306
0.000726301
0.00072179
0.000721778
0.000717463
0.000721783
0.000717472
0.000726305
0.000730615
0.000726309
0.000730622
0.000726296
0.000721788
0.000721766
0.000717472
0.000717468
0.000721769
0.000721786
0.000717468
0.000726301
0.000730601
0.000730618
0.000726308
0.00073062
0.000726306
0.000726301
0.00072179
0.000721778
0.000717463
0.000721782
0.000717472
0.000726305
0.000730615
0.000726309
0.000730622
0.000726296
0.000721788
0.000721765
0.000717473
0.000717468
0.000721769
0.000721786
0.000717468
0.000726294
0.000726303
0.000726303
0.000721754
0.000717522
0.000721778
0.000717477
0.000717492
0.00072172
0.000721781
0.000721754
0.000717522
0.000721778
0.000717477
0.000717492
0.000721721
0.000721781
0.000726325
0.000726302
0.000726356
0.000726311
0.000726326
0.000730552
0.000726302
0.000726355
0.00072631
0.000721792
0.00071747
0.00071747
0.000717461
0.000721795
0.000721795
0.000721785
0.000726308
0.000721785
0.000726308
0.00070864
0.000704116
0.00070864
0.000704116
0.000704122
0.000699799
0.000699799
0.000704126
0.000704126
0.00069979
0.000708658
0.000712886
0.000712947
0.000708635
0.00071292
0.000708643
0.000708688
0.000708658
0.000712886
0.000712947
0.000708635
0.00071292
0.000708643
0.000708687
0.000708626
0.000712961
0.000712961
0.000712958
0.000708636
0.000708636
0.000704084
0.000699807
0.000704108
0.000699851
0.000704112
0.000699822
0.000704051
0.000704084
0.000699807
0.000704108
0.000699851
0.000704112
0.000699822
0.000704051
0.000690966
0.000690966
0.000690952
0.000695289
0.000695289
0.000695285
0.000690961
0.000690961
0.000690984
0.000695274
0.000695213
0.000690961
0.000695247
0.000690969
0.000691013
0.000690983
0.000695274
0.000695213
0.00069096
0.000695247
0.000690969
0.000691013
0.000704119
0.000704097
0.000699797
0.000699801
0.000704117
0.0007041
0.000699797
0.000708637
0.000712948
0.000708641
0.000712956
0.000708628
0.000708633
0.000708639
0.000712952
0.000712935
0.000708633
0.000712954
0.000708638
0.00070412
0.000699792
0.000704109
0.000704113
0.000699801
0.000690959
0.00069528
0.000695263
0.000690965
0.000695282
0.000690959
0.000690963
0.000690963
0.000695276
0.000690967
0.000695283
0.000690954
0.000690959
0.00069528
0.000695263
0.000690965
0.000695282
0.000690959
0.000690963
0.000690963
0.000695276
0.000690967
0.000695283
0.000690954
0.000704122
0.000699799
0.000699799
0.000704126
0.000704126
0.00069979
0.000708658
0.000712886
0.000712947
0.000708635
0.000708643
0.00071292
0.000708687
0.000708658
0.000712886
0.000712947
0.000708635
0.000708688
0.00071292
0.000708643
0.000708626
0.000712961
0.000712961
0.000708636
0.000712958
0.000708636
0.000704084
0.000699806
0.000704108
0.000699851
0.000704111
0.000704051
0.000699821
0.000704084
0.000699807
0.000704108
0.000699851
0.00070405
0.000704111
0.000699822
0.00070864
0.000704116
0.000690966
0.000690952
0.000695289
0.000695289
0.000695285
0.000690961
0.000690961
0.000690983
0.000695274
0.000695213
0.000690961
0.000691013
0.000695247
0.000690969
0.000690984
0.000695274
0.000695213
0.000690961
0.000695247
0.000690969
0.000691013
0.000690966
0.000704119
0.000704097
0.000699797
0.000699801
0.000704117
0.0007041
0.000699797
0.000708637
0.000712948
0.000708641
0.000712956
0.000708628
0.000708633
0.000708639
0.000712952
0.000712935
0.000708633
0.000712954
0.000708637
0.00070412
0.000699792
0.000704109
0.000704113
0.000699801
0.000690959
0.000695263
0.00069528
0.000690965
0.000695282
0.000690963
0.000690959
0.000690963
0.000695276
0.000690967
0.000695283
0.000690954
0.000690959
0.00069528
0.000695263
0.000690965
0.000695282
0.000690959
0.000690963
0.000690963
0.000695276
0.000690967
0.000695283
0.000690954
0.000704119
0.000704096
0.000699802
0.000699797
0.000704099
0.000704117
0.000699798
0.000708637
0.000712948
0.000708641
0.000708629
0.000712956
0.000708634
0.00070864
0.000712934
0.000712952
0.000708639
0.000712954
0.000708633
0.00070412
0.000699793
0.000704109
0.000704112
0.000699801
0.000704119
0.000704097
0.000699797
0.000699801
0.000704117
0.0007041
0.000699797
0.000708637
0.000712948
0.000708641
0.000712956
0.000708629
0.000708633
0.000708639
0.000712952
0.000712935
0.000712954
0.000708633
0.000708638
0.00070412
0.000699792
0.000704109
0.000704113
0.000699801
0.00069096
0.000695262
0.00069528
0.000690965
0.000695282
0.000690964
0.000690959
0.000690963
0.000695275
0.000690967
0.000695283
0.000690955
0.000690959
0.00069528
0.000695263
0.000690965
0.000695282
0.000690959
0.000690963
0.000690963
0.000695276
0.000690967
0.000695283
0.000690954
0.000704122
0.000699799
0.000699799
0.000704126
0.000704126
0.00069979
0.000708657
0.000712887
0.000712947
0.000708634
0.000708643
0.00071292
0.000708687
0.000708658
0.000712886
0.000712947
0.000708635
0.000708687
0.00071292
0.000708643
0.000708626
0.000712961
0.000712961
0.000708635
0.000712958
0.000708636
0.000704085
0.000699806
0.000704108
0.00069985
0.000704112
0.000704051
0.000699821
0.000704085
0.000699806
0.000704108
0.000699851
0.000704051
0.000704112
0.000699821
0.00070864
0.000704116
0.000690966
0.000690952
0.000695289
0.000695289
0.000695285
0.000690961
0.000690961
0.000690983
0.000695274
0.000695214
0.00069096
0.000691012
0.000695248
0.000690968
0.000690983
0.000695275
0.000695214
0.000690961
0.000695248
0.000690968
0.000691013
0.000690966
0.000704119
0.000704096
0.000699801
0.000699797
0.0007041
0.000704117
0.000699797
0.000708637
0.000712949
0.000708641
0.000708629
0.000712956
0.000708633
0.000708639
0.000712935
0.000712952
0.000708638
0.000712955
0.000708633
0.000704121
0.000699792
0.000704109
0.000704113
0.000699801
0.000704119
0.000704096
0.000699802
0.000699797
0.000704099
0.000704117
0.000699797
0.000708637
0.000712948
0.000708641
0.000712956
0.000708629
0.000708634
0.00070864
0.000712935
0.000712952
0.000712954
0.000708638
0.000708633
0.00070412
0.000699792
0.000704109
0.000704113
0.000699801
0.000690959
0.000695263
0.00069528
0.000690965
0.000695282
0.000690963
0.000690959
0.000690963
0.000695276
0.000690967
0.000695283
0.000690954
0.000690959
0.000695262
0.00069528
0.000690965
0.000695282
0.000690964
0.000690959
0.000690963
0.000695276
0.000690967
0.000695283
0.000690954
0.00070864
0.000704116
0.00070864
0.000704116
0.000690952
0.000695289
0.000695289
0.000695285
0.000690961
0.000690961
0.000690983
0.000695274
0.000695214
0.000690961
0.000695247
0.000691013
0.000690969
0.000690983
0.000695275
0.000695214
0.00069096
0.000695248
0.000691013
0.000690968
0.000690966
0.000690966
0.000737356
0.000710884
0.000710884
0.000702015
0.000702046
0.000702046
0.000702092
0.00071093
0.000708758
0.000712656
0.000712656
0.000709189
0.000712818
0.000708931
0.000708931
0.000721652
0.000721211
0.000717767
0.000717766
0.00072149
0.000721491
0.000717594
0.000721651
0.00072121
0.000717767
0.000717765
0.000721491
0.000721488
0.000717594
0.000721653
0.000721211
0.000717766
0.000717766
0.00072149
0.000721491
0.000717593
0.000721652
0.000721212
0.000717767
0.000717766
0.000717593
0.000721491
0.000721491
0.000708759
0.000712656
0.000712657
0.000709189
0.000712818
0.000708931
0.000708931
0.000708759
0.000712656
0.000712655
0.00070919
0.000708932
0.000712818
0.000708932
0.000708758
0.000712656
0.000712656
0.000709189
0.000708931
0.000712818
0.000708931
0.000728523
0.000719721
0.000719721
0.000728556
0.000728556
0.000728602
0.000719767
0.000728523
0.000719721
0.000719721
0.000728556
0.000728554
0.000728603
0.000719767
0.000728523
0.000719721
0.000719721
0.000728556
0.000728557
0.000728603
0.000719767
0.000728523
0.000719721
0.000719721
0.000728554
0.000728556
0.000728603
0.000719767
0.000710884
0.000710885
0.000702015
0.000702046
0.000702047
0.000702091
0.00071093
0.000710884
0.000710884
0.000702015
0.000702046
0.000702046
0.000702091
0.00071093
0.000710885
0.000710884
0.000702015
0.000702047
0.000702046
0.000702091
0.00071093
0.000693176
0.000693207
0.000693207
0.000693252
0.000693176
0.000693207
0.000693207
0.000693252
0.000693176
0.000693207
0.000693207
0.000693252
0.000693176
0.000693207
0.000693207
0.000693252
0.00070378
0.000704012
0.000699881
0.000700119
0.000704016
0.000703782
0.000700124
0.000708922
0.000712747
0.000712866
0.000708677
0.000712643
0.000708838
0.000708703
0.000708961
0.000708721
0.000712852
0.000712618
0.000712616
0.000708718
0.000708956
0.000703808
0.000699867
0.000704061
0.000700001
0.000703912
0.000704031
0.000700086
0.00070378
0.000704012
0.000700119
0.000699881
0.000703782
0.000704017
0.000700125
0.000708922
0.000712748
0.000712867
0.000708676
0.000712644
0.000708837
0.000708702
0.000708961
0.000708721
0.000712618
0.000712852
0.000712616
0.000708956
0.000708718
0.000703808
0.000699866
0.000704061
0.000700001
0.000703912
0.000704031
0.000700085
0.000703982
0.000703541
0.000700095
0.000700094
0.00070382
0.000703821
0.000699922
0.000739316
0.000738876
0.000735432
0.000735432
0.000735259
0.000739154
0.000739155
0.000726427
0.000726858
0.000730323
0.000730324
0.000730485
0.0007266
0.0007266
0.000739142
0.000735203
0.000739394
0.000735338
0.000739365
0.000739246
0.000735423
0.00072663
0.000730519
0.000730285
0.000726389
0.000730283
0.000726386
0.000726625
0.000721478
0.000717672
0.000721731
0.000717538
0.000721582
0.000721701
0.000717757
0.000726591
0.000730533
0.000730415
0.000726345
0.000726505
0.000730311
0.000726371
0.00072145
0.000721682
0.000717553
0.000717791
0.000721686
0.000721452
0.000717797
0.000726631
0.000730519
0.000730285
0.000726389
0.000730283
0.000726386
0.000726625
0.000721477
0.000717671
0.00072173
0.000717537
0.000721701
0.000721581
0.000717757
0.000726591
0.000730533
0.000730415
0.000726345
0.00073031
0.000726371
0.000726505
0.00072145
0.000721682
0.000717552
0.000717791
0.000721686
0.000721452
0.000717797
0.00072686
0.00073032
0.000726601
0.000739394
0.000735338
0.000739246
0.000726631
0.000730519
0.000730285
0.000726389
0.000730283
0.000726386
0.000726625
0.000721478
0.000717672
0.000721731
0.000717538
0.000721582
0.000721701
0.000717758
0.000726591
0.000730533
0.000730415
0.000726344
0.000726506
0.000730311
0.000726371
0.00072145
0.000721682
0.000717553
0.000717792
0.000721686
0.000721452
0.000717797
0.00072663
0.000730285
0.000730519
0.000726389
0.000730283
0.000726625
0.000726386
0.000721478
0.000717671
0.000721731
0.000717537
0.000721701
0.000721582
0.000717757
0.000726591
0.000730534
0.000730415
0.000726344
0.000730311
0.000726371
0.000726505
0.00072145
0.000721682
0.000717791
0.000717552
0.000721452
0.000721687
0.000717797
0.000721477
0.000717671
0.00072173
0.000717538
0.000717757
0.000721581
0.0007217
0.00072145
0.000721682
0.000717552
0.000717791
0.000717796
0.000721686
0.000721452
0.000721478
0.000717671
0.00072173
0.000717537
0.0007217
0.000721582
0.000717757
0.00072145
0.000721681
0.000717791
0.000717553
0.000721452
0.000721686
0.000717796
0.000726427
0.000726858
0.000730323
0.000730323
0.0007266
0.000730485
0.0007266
0.00072663
0.000730286
0.000730519
0.000726389
0.000730283
0.000726625
0.000726386
0.000721478
0.000717672
0.000721731
0.000717537
0.000717757
0.000721582
0.000721701
0.000726591
0.000730534
0.000730415
0.000726344
0.000730311
0.000726506
0.000726371
0.00072145
0.000721682
0.000717792
0.000717553
0.000717797
0.000721453
0.000721686
0.00072663
0.000730285
0.000730518
0.000726389
0.000730283
0.000726625
0.000726386
0.000721478
0.000717672
0.000721731
0.000717537
0.000721701
0.000721582
0.000717757
0.000726591
0.000730533
0.000730415
0.000726344
0.000730311
0.000726371
0.000726505
0.00072145
0.000721682
0.000717792
0.000717553
0.000721452
0.000721686
0.000717797
0.000726427
0.000726858
0.00073032
0.000726602
0.000726598
0.000703982
0.00070354
0.000700095
0.000700094
0.000699922
0.00070382
0.000703821
0.000691084
0.000691514
0.000694983
0.000694983
0.000695145
0.000691256
0.000691256
0.00070378
0.000704012
0.000699881
0.000700119
0.000704016
0.000703782
0.000700125
0.000708922
0.000712748
0.000712867
0.000708677
0.000708703
0.000712643
0.000708837
0.000708961
0.00070872
0.000712852
0.000712618
0.000708718
0.000712616
0.000708956
0.000703808
0.000699866
0.000704061
0.0007
0.000704031
0.000703912
0.000700085
0.000703779
0.000704012
0.000699881
0.000700119
0.000704016
0.000703782
0.000700125
0.000708922
0.000712747
0.000712867
0.000708677
0.000712643
0.000708702
0.000708837
0.000708962
0.00070872
0.000712852
0.000712618
0.000712615
0.000708717
0.000708956
0.000703807
0.000699866
0.000704061
0.000700001
0.000704031
0.000700086
0.000703911
0.000691286
0.000695179
0.000694944
0.000691046
0.000694942
0.000691043
0.000691281
0.000691247
0.000695194
0.000695075
0.000691002
0.000691162
0.00069497
0.000691028
0.000691287
0.000695179
0.000694944
0.000691046
0.000694942
0.000691043
0.000691281
0.000691248
0.000695194
0.000695074
0.000691002
0.00069497
0.000691028
0.000691163
0.000703982
0.00070354
0.000700095
0.000700095
0.00070382
0.00070382
0.000699922
0.000691084
0.000691514
0.000694982
0.000694983
0.000691257
0.000695145
0.000691256
0.000703779
0.000704012
0.000699881
0.000700119
0.000704016
0.000703781
0.000700125
0.000708923
0.000712748
0.000712867
0.000708676
0.000708703
0.000712643
0.000708837
0.000708962
0.000708721
0.000712852
0.000712618
0.000708718
0.000712615
0.000708956
0.000703807
0.000699866
0.000704061
0.000700001
0.000704031
0.000703912
0.000700086
0.00070378
0.000704012
0.000700119
0.000699881
0.000703782
0.000704017
0.000700125
0.000708922
0.000712749
0.000712867
0.000708676
0.000712644
0.000708702
0.000708836
0.000708961
0.000708721
0.000712618
0.000712852
0.000712616
0.000708956
0.000708717
0.000703808
0.000699866
0.000704061
0.0007
0.000704031
0.000700085
0.000703913
0.000691287
0.000695179
0.000694944
0.000691046
0.000694942
0.000691043
0.000691281
0.000691247
0.000695194
0.000695075
0.000691002
0.000691162
0.00069497
0.000691028
0.000691286
0.000694944
0.000695179
0.000691046
0.000694942
0.000691281
0.000691043
0.000691247
0.000695194
0.000695076
0.000691002
0.00069497
0.000691028
0.000691162
0.00070378
0.000704012
0.000700119
0.000699881
0.000703782
0.000704017
0.000700124
0.000708922
0.000712748
0.000712867
0.000708676
0.000708836
0.000712644
0.000708703
0.000708961
0.000708721
0.000712618
0.000712852
0.000708956
0.000712616
0.000708718
0.000703808
0.000699866
0.000704061
0.0007
0.000703913
0.000704031
0.000700085
0.000691286
0.000695179
0.000694944
0.000691046
0.000694942
0.000691043
0.000691281
0.000691247
0.000695194
0.000695074
0.000691002
0.00069497
0.000691163
0.000691028
0.000691286
0.000694944
0.000695179
0.000691046
0.000694943
0.000691281
0.000691043
0.000691247
0.000695194
0.000695076
0.000691002
0.00069497
0.000691028
0.000691162
0.000703982
0.000703541
0.000700095
0.000700094
0.00070382
0.00070382
0.000699922
0.000691083
0.000691514
0.000694982
0.000694983
0.000691256
0.000695145
0.000691256
0.00070378
0.000704012
0.000700119
0.000699881
0.000703782
0.000704016
0.000700125
0.000708922
0.000712748
0.000712867
0.000708676
0.000708837
0.000712644
0.000708703
0.000708962
0.000708721
0.000712618
0.000712852
0.000708956
0.000712616
0.000708718
0.000703808
0.000699866
0.000704061
0.000700001
0.000703912
0.000704031
0.000700085
0.000691286
0.000694944
0.000695179
0.000691046
0.000694942
0.000691281
0.000691043
0.000691247
0.000695194
0.000695075
0.000691002
0.00069497
0.000691162
0.000691028
0.000691286
0.000694944
0.000695179
0.000691046
0.000694942
0.000691281
0.000691043
0.000691247
0.000695194
0.000695075
0.000691002
0.00069497
0.000691028
0.000691162
0.000691084
0.000691514
0.000694982
0.000694983
0.000695145
0.000691256
0.000691256
0.000675493
0.000675444
0.000675444
0.000677023
0.000640106
0.00064006
0.00064006
0.000641641
0.00060469
0.000604647
0.000604647
0.000606231
0.000569244
0.000569204
0.000569204
0.00057079
0.000533767
0.000533729
0.000533729
0.000535318
0.000498257
0.000498221
0.000498221
0.000499813
0.000462712
0.000462679
0.000462679
0.000464274
0.000427134
0.000427103
0.000427102
0.0004287
0.000391521
0.000391492
0.000391492
0.000393092
0.000355871
0.000355845
0.000355845
0.000357448
0.000320186
0.000320162
0.000320162
0.000321768
0.000284465
0.000284442
0.000284442
0.000286051
0.000248708
0.000248687
0.000248687
0.000250298
0.000212914
0.000212895
0.000212895
0.000214509
0.000177084
0.000177066
0.000177066
0.000178683
0.000141216
0.000141199
0.000141199
0.000142819
0.000105306
0.000105291
0.000105291
0.000106915
6.93672e-05
6.93378e-05
6.93372e-05
7.09609e-05
3.40317e-05
3.34917e-05
3.34883e-05
3.49324e-05
1.09762e-05
7.25222e-06
7.24878e-06
5.71702e-06
0.000682674
0.000684286
0.000684286
0.000682674
0.000684286
0.000684286
0.000684285
0.000684286
0.000682674
0.000684286
0.000684286
0.000682673
0.000677022
0.000647296
0.000675444
0.000675444
0.000648909
0.000648909
0.000677022
0.000647296
0.000675444
0.000675444
0.000648909
0.000648909
0.000675444
0.000648909
0.000648909
0.000677022
0.000647296
0.000675444
0.000648909
0.000648908
0.000647296
0.000641641
0.00061189
0.00064006
0.00064006
0.000613503
0.000613503
0.000641641
0.00061189
0.00064006
0.00064006
0.000613503
0.000613503
0.00064006
0.000613503
0.000613503
0.000641641
0.00061189
0.00064006
0.000613503
0.000613503
0.00061189
0.000606231
0.000576453
0.000604647
0.000604647
0.000578067
0.000578067
0.00060623
0.000576454
0.000604647
0.000604647
0.000578067
0.000578067
0.000604647
0.000578067
0.000578067
0.000606231
0.000576453
0.000604647
0.000578067
0.000578067
0.000576453
0.00057079
0.000540986
0.000569204
0.000569204
0.0005426
0.0005426
0.00057079
0.000540986
0.000569204
0.000569204
0.0005426
0.0005426
0.000569204
0.0005426
0.0005426
0.00057079
0.000540986
0.000569204
0.0005426
0.0005426
0.000540985
0.000535318
0.000505485
0.000533729
0.000533729
0.000507101
0.000507101
0.000535317
0.000505486
0.000533729
0.000533729
0.000507101
0.000507101
0.000533729
0.000507101
0.000507101
0.000535318
0.000505485
0.000533729
0.000507101
0.000507101
0.000505485
0.000499813
0.000469951
0.000498221
0.000498221
0.000471567
0.000471567
0.000499812
0.000469951
0.000498221
0.000498221
0.000471567
0.000471567
0.000498221
0.000471567
0.000471567
0.000499813
0.000469951
0.000498221
0.000471567
0.000471567
0.000469951
0.000464274
0.000434383
0.000462679
0.000462679
0.000436
0.000436
0.000464273
0.000434383
0.000462679
0.000462679
0.000436
0.000436
0.000462679
0.000436
0.000436
0.000464274
0.000434382
0.000462679
0.000436
0.000436
0.000434382
0.0004287
0.00039878
0.000427103
0.000427103
0.000400397
0.000400397
0.0004287
0.00039878
0.000427103
0.000427103
0.000400397
0.000400397
0.000427103
0.000400397
0.000400397
0.0004287
0.00039878
0.000427103
0.000400398
0.000400397
0.000398779
0.000393092
0.00036314
0.000391492
0.000391492
0.000364759
0.000364759
0.000393092
0.000363141
0.000391492
0.000391492
0.000364759
0.000364759
0.000391492
0.000364759
0.000364759
0.000393092
0.000363141
0.000391492
0.000364759
0.000364759
0.00036314
0.000357448
0.000327465
0.000355845
0.000355845
0.000329085
0.000329085
0.000357447
0.000327466
0.000355845
0.000355845
0.000329085
0.000329085
0.000355845
0.000329085
0.000329085
0.000357448
0.000327465
0.000355845
0.000329085
0.000329085
0.000327465
0.000321767
0.000291754
0.000320162
0.000320162
0.000293375
0.000293375
0.000321767
0.000291755
0.000320162
0.000320162
0.000293375
0.000293375
0.000320162
0.000293375
0.000293375
0.000321768
0.000291754
0.000320162
0.000293375
0.000293375
0.000291754
0.000286051
0.000256007
0.000284442
0.000284442
0.000257628
0.000257628
0.000286051
0.000256007
0.000284442
0.000284442
0.000257628
0.000257628
0.000284442
0.000257628
0.000257628
0.000286051
0.000256007
0.000284442
0.000257628
0.000257628
0.000256007
0.000250298
0.000220224
0.000248687
0.000248687
0.000221845
0.000221845
0.000250298
0.000220224
0.000248687
0.000248687
0.000221845
0.000221845
0.000248687
0.000221845
0.000221845
0.000250298
0.000220224
0.000248687
0.000221845
0.000221845
0.000220223
0.000214508
0.000184404
0.000212895
0.000212895
0.000186025
0.000186025
0.000214508
0.000184404
0.000212895
0.000212895
0.000186025
0.000186025
0.000212895
0.000186025
0.000186025
0.000214508
0.000184404
0.000212895
0.000186025
0.000186025
0.000184404
0.000178682
0.000148548
0.000177066
0.000177066
0.000150169
0.000150169
0.000178682
0.000148548
0.000177066
0.000177066
0.000150169
0.000150169
0.000177066
0.000150169
0.000150169
0.000178682
0.000148548
0.000177066
0.000150169
0.000150169
0.000148547
0.000142819
0.000112652
0.000141199
0.000141199
0.000114273
0.000114273
0.000142818
0.000112652
0.000141199
0.000141199
0.000114273
0.000114273
0.000141199
0.000114273
0.000114273
0.000142819
0.000112652
0.000141199
0.000114273
0.000114273
0.000112651
0.000106914
7.67103e-05
0.000105291
0.000105291
7.83346e-05
7.83351e-05
0.000106914
7.67106e-05
0.000105291
0.000105291
7.83348e-05
7.83345e-05
0.000105291
7.83351e-05
7.83343e-05
0.000106914
7.67101e-05
0.000105291
7.83348e-05
7.83344e-05
7.67096e-05
7.09606e-05