/*--------------------------------*- C++ -*----------------------------------*\
| =========                 |                                                 |
| \\      /  F ield         | OpenFOAM: The Open Source CFD Toolbox           |
|  \\    /   O peration     | Version:  2312                                  |
|   \\  /    A nd           | Website:  www.openfoam.com                      |
|    \\/     M anipulation  |                                                 |
\*---------------------------------------------------------------------------*/
FoamFile
{
    version     2.0;
    format      ascii;
    arch        "LSB;label=32;scalar=64";
    class       surfaceScalarField;
    location    "950";
    object      phi;
}
// * * * * * * * * * * * * * * * * * * * * * * * * * * * * * * * * * * * * * //

dimensions      [0 3 -1 0 0 0 0];

oriented        oriented;

internalField   nonuniform List<scalar> 
125280
(
1.24185e-07
1.18767e-07
-0.00118379
-7.70575e-08
-7.71214e-08
0.0011837
-0.00113203
-1.19884e-06
-1.13286e-07
-8.97921e-08
0.00113205
-2.39376e-07
1.23825e-06
2.74651e-07
9.11179e-07
-2.1494e-07
-8.55059e-07
2.69026e-07
-0.00113194
-1.19347e-06
-1.24527e-07
-4.50324e-08
0.00113191
-2.3666e-07
1.2355e-06
2.74647e-07
9.11239e-07
-2.14986e-07
-8.52416e-07
2.68998e-07
-0.000270074
1.22478e-06
1.1882e-06
-1.9791e-07
-2.00628e-07
0.00026806
-1.28036e-06
-1.23849e-06
0.000270144
-0.000268111
2.38956e-07
2.46795e-07
0.00113153
-1.23667e-07
-0.00113155
-4.46403e-08
-1.23572e-06
2.77263e-07
-2.42201e-07
-8.55286e-07
2.66221e-07
-2.12335e-07
9.13985e-07
1.27781e-06
0.0011316
5.84523e-08
-0.00113178
-6.73466e-08
-1.2308e-06
2.80046e-07
-2.3969e-07
-8.60436e-07
2.63566e-07
-2.15016e-07
9.13724e-07
-1.2167e-06
0.000270124
-0.00026811
2.33919e-07
2.46607e-07
0.00113253
-1.23962e-07
-0.00113255
-5.0424e-08
-1.19378e-06
2.74802e-07
-2.36827e-07
-8.57786e-07
2.69109e-07
-2.15075e-07
9.16594e-07
1.27237e-06
0.00113147
-1.17894e-07
-0.00113149
-5.58767e-08
-1.22775e-06
2.80103e-07
-2.42325e-07
-8.57799e-07
2.66268e-07
-2.15066e-07
9.16482e-07
-6.70902e-08
-2.22288e-07
-1.25773e-06
2.71971e-07
-2.45006e-07
-8.5794e-07
2.66345e-07
9.08576e-07
-2.17697e-07
-0.00113182
1.27213e-06
0.0011311
-1.00931e-07
-5.02623e-08
-1.22215e-06
2.8e-07
-2.39497e-07
-8.55078e-07
2.66249e-07
-2.1496e-07
9.08433e-07
-0.00113114
-1.23823e-06
0.000270105
-0.000268083
2.41738e-07
2.4662e-07
-1.24059e-07
-0.00113198
-3.35183e-08
-1.19353e-06
2.74679e-07
-2.36705e-07
-8.5244e-07
2.69029e-07
9.11253e-07
-2.15047e-07
1.23028e-06
0.00113206
-1.23874e-07
-0.00113204
-8.40256e-08
-1.19361e-06
2.74779e-07
-2.3953e-07
-8.54946e-07
2.69058e-07
-2.14983e-07
9.13784e-07
-0.000268058
2.38889e-07
2.4679e-07
1.23566e-06
1.19371e-06
-1.95419e-07
-2.0322e-07
0.000268114
-5.0516e-08
0.00113151
-2.39414e-07
1.28031e-06
2.77225e-07
9.13908e-07
-2.1228e-07
-8.5523e-07
2.66188e-07
-1.23305e-06
-1.12886e-07
-5.0668e-08
0.00113157
-2.42321e-07
1.2777e-06
2.80072e-07
9.16399e-07
-2.15003e-07
-8.57682e-07
2.68887e-07
-2.03253e-07
-2.00559e-07
0.000268096
-5.065e-08
0.0011325
-2.36799e-07
1.23844e-06
2.74762e-07
9.16559e-07
-2.1504e-07
-8.57729e-07
2.69077e-07
-1.2277e-06
-1.18449e-07
-5.04841e-08
0.00113144
-2.42262e-07
1.27231e-06
2.80071e-07
9.16461e-07
-2.12304e-07
-8.57764e-07
2.66249e-07
-1.24431e-07
-5.05075e-08
0.00113108
-2.394e-07
1.26942e-06
2.77218e-07
9.08393e-07
-2.12215e-07
2.63507e-07
-8.49648e-07
-1.98145e-07
-2.03122e-07
0.000268085
-1.24419e-07
-6.75307e-08
0.00113206
-2.36736e-07
1.23292e-06
2.74709e-07
9.1371e-07
-2.14944e-07
2.69012e-07
-8.54869e-07
6.86312e-09
-4.35992e-08
0.000193706
3.31262e-09
-0.000193673
6.88142e-09
-4.36245e-08
0.000193689
-0.000193655
-0.00118389
-7.05508e-08
-7.64635e-08
0.00118346
-0.00118305
-1.58014e-07
-2.56302e-07
0.00118335
-0.00118345
-8.80722e-08
-5.32142e-08
0.00118328
-0.00118331
-9.95889e-08
-1.00016e-07
-1.0295e-10
-7.00557e-08
0.000229498
-0.00022946
2.9855e-08
1.97174e-09
-0.000193745
-4.87694e-09
2.26459e-08
-4.02036e-09
0.000193731
-0.000229459
9.10478e-11
2.85855e-08
0.00022944
-1.11165e-08
1.2237e-09
6.9463e-09
-4.34175e-08
0.000193784
3.18751e-09
-0.000193751
-9.80695e-05
4.9308e-09
1.36943e-08
9.80509e-05
-6.92901e-09
-2.19038e-08
9.80899e-05
-9.80611e-05
-7.00996e-08
-1.57204e-10
0.000229485
-0.000229447
2.14971e-09
2.98728e-08
-0.000193728
-4.922e-09
2.26289e-08
-3.9593e-09
0.000193714
-0.000229446
2.86083e-08
1.70306e-10
0.000229428
9.70049e-10
-1.11348e-08
6.9595e-09
-4.3452e-08
0.000193767
3.2084e-09
-0.000193734
-8.87819e-08
-1.23648e-07
0.00118344
-7.70953e-08
-6.54851e-08
0.00118324
-8.3001e-08
-9.48094e-08
0.00118321
6.9937e-08
-1.6941e-09
0.000250298
-0.000250178
4.0136e-09
-1.93049e-07
-0.000245595
-1.20507e-08
-2.26119e-08
6.64016e-08
3.96812e-09
0.000245559
0.00115197
-0.00115206
-1.27654e-08
-1.33668e-07
1.00605e-06
-7.53331e-07
-9.35416e-07
8.28459e-07
-5.64988e-08
1.24091e-06
0.00113203
-1.24988e-07
-8.52306e-07
2.68951e-07
-2.14935e-07
9.11193e-07
-1.19611e-06
2.7461e-07
-2.36601e-07
-0.000250274
-2.8466e-08
9.525e-10
0.000250167
2.73464e-09
1.31791e-07
2.3268e-08
4.34097e-08
0.000245633
-1.67444e-08
-0.000245578
-1.04724e-07
-9.69761e-09
0.00115193
-1.52047e-07
-9.32486e-07
8.25785e-07
-7.53148e-07
1.00338e-06
-9.80625e-05
4.94671e-09
1.13573e-08
9.80462e-05
-6.98383e-09
-1.9534e-08
9.8083e-05
-9.80564e-05
-7.23102e-10
6.99374e-08
0.000250288
-0.000250168
-1.93047e-07
3.90115e-09
0.0011518
-0.00115185
1.347e-08
-1.50925e-07
1.00611e-06
-7.56061e-07
-9.32693e-07
8.28472e-07
-0.000245584
-1.1984e-08
-2.26234e-08
6.40168e-08
3.9329e-09
0.000245551
-5.07513e-08
1.23547e-06
0.00113189
-1.2485e-07
-8.52375e-07
2.68959e-07
-2.14982e-07
9.11207e-07
-1.19074e-06
2.74601e-07
-2.36641e-07
-0.000250261
1.19336e-09
-2.85004e-08
0.000250154
1.31819e-07
1.90936e-09
-4.29711e-11
0.00115175
-1.51867e-07
-9.32547e-07
8.28499e-07
-7.53194e-07
1.00612e-06
2.32006e-08
4.34142e-08
0.000245622
-1.67451e-08
-0.00024557
-1.02308e-07
-0.000278333
1.21133e-08
-1.14429e-08
2.27226e-08
-6.74853e-09
0.000278316
-0.000278255
1.21149e-08
-1.13641e-08
2.26958e-08
-7.29734e-09
0.000278239
-1.26938e-06
-1.23287e-06
0.000270079
-0.000268062
2.41305e-07
2.44049e-07
-2.32102e-08
1.95792e-08
0.000278383
1.01661e-08
-0.000278339
-5.0542e-08
-2.32122e-08
1.95722e-08
0.000278305
1.06539e-08
-0.000278264
-4.82686e-08
-1.98354e-08
9.80694e-05
-9.80427e-05
-1.98009e-08
9.80583e-05
-9.80316e-05
0.00027014
-1.28042e-06
-1.24126e-06
-0.000268104
2.39084e-07
2.46931e-07
0.000278329
-2.31395e-08
1.25793e-08
-0.000278288
-5.07884e-08
0.000278261
-2.08578e-08
1.00624e-08
-0.00027822
-5.07859e-08
-1.97278e-08
-6.90455e-09
9.809e-05
-9.80633e-05
1.14106e-08
4.93011e-09
9.8053e-05
-1.96981e-08
-6.9222e-09
9.80789e-05
-9.80523e-05
1.1354e-08
4.97355e-09
9.8042e-05
1.23578e-06
1.19654e-06
0.000268106
-1.95461e-07
-2.03264e-07
-2.31468e-08
0.00027838
-5.06582e-08
-0.000278338
1.26273e-08
-2.08525e-08
0.000278312
-5.06679e-08
-0.00027827
1.00998e-08
1.20664e-08
-9.37032e-09
2.49729e-08
0.000278313
9.72418e-09
-6.75362e-09
2.4918e-08
0.000278245
0.00113157
-1.22608e-07
-1.23587e-06
2.7737e-07
-2.39554e-07
-8.55396e-07
2.68984e-07
-2.15137e-07
9.14001e-07
-4.41929e-08
0.000245558
-1.66969e-08
-0.000245503
-1.04895e-07
4.54865e-11
2.86032e-08
-1.11073e-08
9.9385e-10
0.000229401
-0.000229419
-4.35118e-08
-0.000193712
3.25276e-09
2.25944e-08
-3.95403e-09
0.000193692
-8.7981e-11
-7.01321e-08
-0.00022942
2.99138e-08
1.9677e-09
2.86031e-08
-1.11061e-08
9.51704e-10
0.000229361
-0.000229379
-4.57192e-08
6.89625e-09
0.000193684
-0.000193648
3.40796e-09
2.47693e-08
-4.98061e-09
-4.0102e-09
0.000193629
-0.000193644
-7.01389e-08
0.000229418
-0.00022938
2.99162e-08
2.13415e-09
8.13227e-10
2.6924e-09
1.32011e-07
0.000250151
-0.000250258
-5.56796e-08
-1.23196e-07
1.28038e-06
-2.39486e-07
2.80051e-07
9.13969e-07
-2.1233e-07
2.66278e-07
-8.55384e-07
0.000245597
-1.04774e-07
-0.000245542
-1.67081e-08
-0.00115235
1.34891e-09
0.00115231
-1.4964e-07
-9.35709e-07
8.31243e-07
-7.5629e-07
1.009e-06
3.99637e-09
6.63989e-08
0.000245523
4.66035e-10
-1.54295e-07
1.00891e-06
-7.56458e-07
-9.35919e-07
8.31189e-07
-0.0011524
-8.23816e-10
0.000250285
-0.000250164
3.10834e-09
-1.93161e-07
1.45237e-09
1.32021e-07
0.000250126
-0.00025023
-3.3149e-08
-1.23859e-06
-3.10606e-07
9.19134e-07
-2.09661e-07
-8.55132e-07
2.68933e-07
1.28088e-06
-2.45014e-07
2.80235e-07
-0.00113164
2.30675e-08
0.000245492
-1.04739e-07
-0.000245437
-1.90216e-08
-0.00115232
0.00115224
-1.26451e-07
-9.43665e-07
8.31212e-07
-7.58999e-07
1.01144e-06
-1.20713e-08
6.38589e-09
6.63619e-08
0.000245418
-0.000245454
-1.83373e-07
1.01689e-06
-7.56431e-07
-9.3836e-07
8.33906e-07
-0.00115233
0.000250257
-0.00025014
4.74204e-09
-1.93173e-07
-2.20004e-08
-9.80406e-05
1.36266e-08
9.80303e-05
-9.80489e-05
0.000268108
-1.87894e-07
-0.000270125
1.17195e-06
-2.05754e-07
0.000278251
-4.8335e-08
-0.000278213
1.06182e-08
1.96515e-08
-2.32702e-08
0.000278394
-4.83786e-08
-0.000278353
1.06707e-08
2.26132e-08
0.000278187
-0.000278201
-7.43802e-09
-6.99875e-09
9.80856e-05
-9.80589e-05
0.00113257
-1.22872e-07
-1.19664e-06
2.74883e-07
-2.36906e-07
2.6918e-07
-2.15154e-07
0.000245524
-0.000245467
-1.0259e-07
2.86432e-08
1.62078e-10
9.62021e-10
-1.11312e-08
0.000229388
-4.35413e-08
-0.000193695
3.26298e-09
2.25853e-08
-3.89596e-09
0.000193675
-7.01638e-08
-1.60521e-10
-0.000229408
2.15334e-09
2.99318e-08
1.65997e-09
1.94932e-09
1.32035e-07
0.000250144
-5.02517e-08
-1.23483e-07
1.24123e-06
-2.36866e-07
2.74843e-07
9.16626e-07
-2.15093e-07
2.69144e-07
-8.57844e-07
0.000245562
-1.02484e-07
-0.000245505
-1.92057e-08
-0.00115219
-3.96865e-09
0.00115215
-1.49648e-07
-9.38247e-07
8.31218e-07
-7.56251e-07
1.01151e-06
6.4867e-09
6.40304e-08
0.000245486
3.58932e-09
-1.42653e-07
1.01146e-06
-7.56455e-07
-9.38421e-07
8.31158e-07
-1.68877e-09
0.000250278
-0.000250157
4.05679e-09
-1.93186e-07
2.86429e-08
-1.11283e-08
9.3144e-10
0.000229349
-4.34526e-08
6.93811e-09
0.00019367
-0.000193637
3.20493e-09
2.25448e-08
-4.99088e-09
-3.88525e-09
0.000193617
-7.01461e-08
0.000229406
-0.000229368
2.9919e-08
2.19031e-09
1.32053e-07
1.62635e-09
0.000250117
-5.00908e-08
-1.22784e-06
-1.1737e-07
9.16519e-07
-2.15101e-07
-8.57863e-07
2.68991e-07
1.27241e-06
-2.42363e-07
2.80165e-07
-0.00115214
0.00115207
-1.43766e-07
-9.38253e-07
8.31225e-07
-7.56286e-07
1.01151e-06
2.32198e-08
0.000245476
-9.99417e-08
-0.000245426
-1.67422e-08
-1.36739e-07
1.01148e-06
-7.56494e-07
-9.38437e-07
8.31162e-07
-1.21806e-08
4.02907e-09
6.40229e-08
0.000245407
0.000250248
-0.000250131
-1.93177e-07
4.32681e-09
4.34978e-08
-1.02399e-07
-0.000245542
-1.67808e-08
-3.94737e-08
-7.95782e-08
-9.41134e-07
8.28395e-07
1.00601e-06
-7.5898e-07
-0.00115229
7.00005e-08
-2.01214e-09
-0.000250153
4.49027e-09
-1.93071e-07
0.000193732
-0.000193698
3.1107e-09
-1.96881e-10
0.000229442
-0.000229405
2.07816e-09
3.19678e-08
0.00115195
-1.26663e-07
-9.35499e-07
8.25699e-07
-7.56236e-07
1.00329e-06
-0.00115205
4.34877e-08
2.32437e-08
0.000245516
-9.99326e-08
-0.000245466
-1.67317e-08
7.00557e-08
0.000250244
-0.000250125
-1.95684e-07
4.06694e-09
6.92307e-09
0.000193675
-0.000193642
3.23497e-09
0.000229404
-0.000229366
2.98698e-08
1.99178e-09
-1.96414e-08
-9.80359e-05
1.12922e-08
9.80256e-05
1.19631e-06
0.000268081
-1.98208e-07
-2.03199e-07
0.00027825
-4.60651e-08
-0.000278211
1.05374e-08
1.96647e-08
-2.32037e-08
0.000278386
-4.83317e-08
-0.000278344
1.06052e-08
-7.34485e-09
2.03781e-08
0.000278185
-1.13763e-08
9.65192e-09
-7.2326e-09
2.26213e-08
0.000278321
-6.94832e-09
9.80853e-05
-9.80587e-05
4.9244e-09
9.80484e-05
1.6253e-09
-2.85533e-08
1.31997e-07
1.89234e-09
0.000250127
-4.459e-08
-1.23568e-07
1.23827e-06
-2.39496e-07
2.74726e-07
9.11299e-07
-2.15058e-07
-8.5257e-07
2.69066e-07
-0.00115191
2.25221e-08
-1.49872e-07
-9.32803e-07
8.28456e-07
1.00609e-06
-7.50744e-07
4.35063e-08
-1.02423e-07
-0.000245532
-1.67523e-08
5.78246e-08
-1.43043e-07
1.00602e-06
-7.53693e-07
-9.33013e-07
8.25649e-07
-2.25864e-08
3.97987e-09
6.40348e-08
0.00024551
-3.1649e-10
7.00167e-08
-0.000250141
-1.93097e-07
3.41806e-09
-2.84877e-08
1.3198e-07
2.14314e-09
0.000250103
-2.49596e-07
-1.26845e-06
-1.01033e-07
9.11052e-07
-2.15032e-07
-8.5511e-07
2.69126e-07
1.20327e-06
-2.53314e-07
2.7207e-07
-0.00115183
0.00115177
-1.43965e-07
-9.35344e-07
8.28375e-07
-7.5075e-07
1.00852e-06
4.35293e-08
2.32294e-08
0.000245481
-1.02463e-07
-0.000245429
-1.67487e-08
-1.01518e-07
1.00573e-06
-7.53716e-07
-9.35648e-07
8.25563e-07
-2.25471e-08
-1.21473e-08
4.06746e-09
6.39992e-08
0.00024541
6.99507e-08
0.000250233
-0.000250116
-1.93059e-07
5.72078e-09
2.73086e-10
8.71504e-10
-1.32038e-08
0.000229378
0.000193727
-0.000193694
3.21362e-09
-3.95827e-09
0.000193674
-2.15377e-11
0.000229434
-0.000229397
1.87756e-09
3.19634e-08
1.08511e-09
-1.5281e-08
0.00022934
6.94345e-09
0.000193667
-0.000193634
3.23266e-09
-5.01566e-09
-3.80622e-09
0.000193614
0.000229393
-0.00022936
2.39625e-09
3.40528e-08
0.000268069
-2.03329e-07
1.22542e-06
-2.10919e-07
1.96903e-08
-4.83676e-08
-0.000278291
1.01154e-08
1.96723e-08
-4.83813e-08
-0.000278213
1.06202e-08
-1.13037e-08
2.26409e-08
0.000278188
-7.35e-09
9.80653e-05
-9.80387e-05
9.80615e-05
-9.80348e-05
9.80245e-05
1.14774e-08
9.80736e-05
-1.96222e-08
9.81104e-05
-9.80839e-05
1.14163e-08
9.80626e-05
-1.95956e-08
9.80994e-05
-9.80728e-05
1.2031e-08
2.50317e-08
-9.30687e-09
0.000278363
9.69117e-09
2.49772e-08
-6.69699e-09
0.000278295
0.000270149
-1.28026e-06
-1.23839e-06
-0.000268116
2.38795e-07
2.46643e-07
0.00027843
-2.31444e-08
1.26707e-08
-0.000278389
-5.05329e-08
0.000278362
-2.08454e-08
1.01363e-08
-0.00027832
-5.05451e-08
1.15452e-08
4.82379e-09
9.80941e-05
1.14816e-08
4.87282e-09
9.8083e-05
1.23555e-06
1.19361e-06
0.000268119
-1.95392e-07
-2.03189e-07
1.19969e-08
-9.24791e-09
2.51003e-08
0.000278414
9.66664e-09
-6.64444e-09
2.5042e-08
0.000278345
-7.00602e-08
0.000229457
-0.00022942
2.9855e-08
2.12639e-09
2.4822e-08
-4.07824e-09
0.000193668
2.85862e-08
0.0002294
-1.11135e-08
9.58503e-10
-4.56232e-08
0.000193723
3.35492e-09
-0.000193687
-8.5083e-10
0.000250313
-0.000250192
3.11364e-09
-1.93118e-07
6.64174e-08
3.95384e-09
0.000245561
0.00115225
7.4461e-09
-1.50776e-07
1.00898e-06
-7.56141e-07
-9.35603e-07
8.31261e-07
-4.50289e-08
0.00113148
-1.24564e-07
-1.2356e-06
2.77178e-07
-2.39383e-07
-8.55172e-07
2.66142e-07
-2.12259e-07
9.13867e-07
9.47729e-10
0.000250178
2.69928e-09
1.31863e-07
0.000245635
-1.66955e-08
-0.00024558
-1.04653e-07
-1.7053e-09
0.00115221
-1.51727e-07
-9.35457e-07
8.31298e-07
-7.55988e-07
1.00901e-06
0.000250285
-0.000250167
4.73305e-09
-1.93126e-07
-1.20479e-08
6.6412e-08
3.90354e-09
0.000245458
0.0011522
-1.45095e-07
1.01147e-06
-7.56113e-07
-9.38068e-07
8.31237e-07
-5.63602e-08
0.00113155
1.27769e-06
-1.24587e-07
-8.60291e-07
2.68856e-07
9.19044e-07
-2.14977e-07
-1.23033e-06
2.8002e-07
-2.39539e-07
0.000250153
1.46546e-09
1.31865e-07
0.00024553
2.30645e-08
-1.65729e-08
-0.000245478
-1.0466e-07
0.00115214
-1.51768e-07
-9.40653e-07
8.31271e-07
-7.55959e-07
1.01421e-06
6.68336e-11
2.85746e-08
-1.1127e-08
1.23431e-09
0.000229479
2.26964e-08
-4.08901e-09
0.000193771
2.85756e-08
-1.11241e-08
9.61824e-10
0.000229439
2.48637e-08
-4.88206e-09
-4.13706e-09
0.000193707
8.64054e-10
2.95233e-09
1.3174e-07
0.000250206
-5.08616e-08
-1.25007e-07
1.28022e-06
-2.39358e-07
2.77137e-07
9.13843e-07
-2.12236e-07
2.66105e-07
-8.55134e-07
0.00113146
3.92396e-09
6.64366e-08
0.000245599
4.53776e-09
-1.52762e-07
1.00901e-06
-7.55865e-07
-9.35359e-07
8.31309e-07
0.00115216
1.22615e-09
1.31742e-07
0.000250181
-5.08938e-08
-1.23298e-06
-1.25004e-07
9.19015e-07
-2.14948e-07
-8.60238e-07
2.68818e-07
1.27765e-06
-2.42238e-07
2.79982e-07
0.00113153
-1.20159e-08
3.88372e-09
6.64198e-08
0.000245497
-1.52786e-07
1.01422e-06
-7.55831e-07
-9.40539e-07
8.31292e-07
0.0011521
2.2669e-08
-7.39711e-09
0.000278238
-1.14694e-08
2.27533e-08
-7.19584e-09
0.000278378
0.000270134
-0.000268101
2.41561e-07
2.43889e-07
0.000278302
1.0655e-08
-0.000278263
-4.82242e-08
1.95568e-08
0.000278447
1.02124e-08
-0.000278403
-5.05629e-08
4.93398e-09
9.80692e-05
9.8106e-05
-7.03093e-09
-9.80794e-05
1.37542e-08
9.80713e-05
1.19607e-06
0.000268104
-1.98038e-07
-2.00501e-07
-7.33944e-09
2.27293e-08
0.000278288
-1.15175e-08
1.20312e-08
-6.64178e-09
2.51047e-08
0.000278428
4.88959e-09
9.80896e-05
-1.69169e-09
0.000250306
-0.000250185
4.05976e-09
-1.93149e-07
6.40402e-08
6.44622e-09
0.000245524
0.00115209
3.26076e-09
-1.44995e-07
1.01152e-06
-7.56097e-07
-9.38119e-07
8.31242e-07
-5.07793e-08
0.00113248
-1.24863e-07
-1.19366e-06
2.74714e-07
-2.36773e-07
-8.57684e-07
2.69035e-07
-2.1501e-07
9.16531e-07
1.6648e-09
0.000250171
1.95279e-09
1.31867e-07
0.000245601
-1.91876e-08
-0.000245543
-1.02368e-07
-4.01002e-09
0.00115204
-1.45967e-07
-9.3797e-07
8.31286e-07
-7.55953e-07
1.01155e-06
-7.00831e-08
0.000229446
-0.000229408
2.98614e-08
2.19254e-09
2.26013e-08
-3.94592e-09
0.000193656
2.8608e-08
0.000229388
-1.11323e-08
9.54032e-10
-4.33658e-08
0.000193709
3.13375e-09
-0.000193676
0.000250275
-0.000250158
-1.93142e-07
4.3347e-09
0.00115203
-1.5076e-07
1.01154e-06
-7.5613e-07
-9.38126e-07
8.31251e-07
-1.21564e-08
6.16212e-08
4.03269e-09
0.000245445
-5.06528e-08
0.00113142
1.27228e-06
-1.24535e-07
-8.57729e-07
2.66191e-07
9.16435e-07
-2.12276e-07
-1.22763e-06
2.80027e-07
-2.42233e-07
0.000250145
1.31885e-07
1.65208e-09
0.00115197
-1.459e-07
-9.37989e-07
8.31293e-07
-7.55984e-07
1.01155e-06
0.000245514
2.32188e-08
-1.67453e-08
-0.000245464
-9.98368e-08
2.85903e-08
1.76039e-10
9.77114e-10
-1.11386e-08
0.000229467
2.26758e-08
-4.01776e-09
0.000193753
1.67607e-09
1.96629e-09
1.3433e-07
0.000250196
-5.09819e-08
-1.2531e-07
1.23834e-06
-2.36748e-07
2.74673e-07
9.16506e-07
-2.14987e-07
2.68996e-07
-8.57656e-07
0.00113246
6.4298e-09
6.40557e-08
0.000245562
3.39426e-09
-1.52833e-07
1.01154e-06
-7.558e-07
-9.37875e-07
8.31287e-07
0.00115199
2.85946e-08
-1.11376e-08
9.72617e-10
0.000229427
2.26464e-08
-4.88905e-09
-4.00902e-09
0.000193695
1.34353e-07
1.68245e-09
0.00025017
-5.08573e-08
-1.22758e-06
-1.24987e-07
9.16409e-07
-2.12263e-07
-8.57661e-07
2.66145e-07
1.27223e-06
-2.42214e-07
2.7998e-07
0.0011314
-1.52775e-07
1.01155e-06
-7.55838e-07
-9.37879e-07
8.31288e-07
0.00115193
-1.21268e-08
4.00454e-09
6.16371e-08
0.000245484
-9.65921e-11
0.000229481
-0.000229445
2.07368e-09
3.19098e-08
-3.87871e-09
0.000193718
-1.20455e-10
0.000229425
1.28929e-09
-1.31767e-08
0.000193771
3.0627e-09
-0.000193737
6.99888e-08
0.000250269
-0.000250151
-1.93075e-07
4.07931e-09
0.00115189
-1.45312e-07
1.00333e-06
-7.5059e-07
8.25753e-07
-9.29916e-07
-2.26117e-08
6.39798e-08
3.9759e-09
0.000245483
-4.50903e-08
0.00113105
-1.19055e-07
-1.22471e-06
2.7718e-07
-2.39337e-07
-8.49617e-07
2.6345e-07
-2.0948e-07
9.08363e-07
-2.85302e-08
0.000250138
1.34396e-07
1.20768e-09
0.00115183
-1.46163e-07
-9.32477e-07
8.28536e-07
-7.53178e-07
1.00607e-06
4.3386e-08
0.000245554
-1.67105e-08
-0.0002455
-1.04632e-07
0.000229444
-0.000229405
2.98146e-08
2.00419e-09
-4.89699e-09
-3.977e-09
0.000193661
0.000229386
-1.10983e-08
9.19276e-10
0.000193714
6.96955e-09
3.16212e-09
-0.000193681
-2.84427e-08
1.42599e-09
2.25355e-09
1.31641e-07
0.000250191
-5.67427e-08
-1.25403e-07
1.24086e-06
-2.36583e-07
2.74561e-07
9.11167e-07
-2.1492e-07
-8.52319e-07
2.68904e-07
0.00113202
-2.26579e-08
3.93311e-09
6.64199e-08
0.000245597
1.52827e-09
-1.53002e-07
1.00607e-06
-7.50276e-07
-9.29699e-07
8.28537e-07
0.00115187
1.22162e-11
1.29321e-09
-1.3181e-08
0.000229464
-3.93527e-09
0.000193757
-2.84977e-08
1.3167e-07
1.71559e-09
0.000250165
-5.08968e-08
-1.22466e-06
-1.30859e-07
9.08329e-07
-2.09446e-07
-8.4959e-07
2.63407e-07
1.26935e-06
-2.39312e-07
2.77145e-07
0.00113103
-1.58786e-07
1.00608e-06
-7.53032e-07
-9.32363e-07
8.28544e-07
0.00115179
-2.26533e-08
-1.20377e-08
3.95073e-09
6.63709e-08
0.000245519
-1.10984e-08
9.38865e-10
0.000229425
-4.83972e-09
-4.04734e-09
0.0001937
2.04212e-08
-7.28678e-09
0.000278236
-1.14572e-08
2.27336e-08
-9.77499e-09
0.000278372
0.000270108
-0.000268088
2.41588e-07
2.46485e-07
0.0002783
1.05814e-08
-0.000278261
-4.59409e-08
1.95578e-08
0.000278436
1.32594e-08
-0.000278397
-4.82361e-08
4.86608e-09
9.8069e-05
9.81058e-05
-6.98705e-09
-9.80792e-05
1.143e-08
9.80666e-05
1.19068e-06
0.000268091
-1.98124e-07
-2.03101e-07
-7.22633e-09
2.04914e-08
0.000278286
-1.15218e-08
1.19553e-08
-9.71108e-09
2.27946e-08
0.000278422
4.81746e-09
9.80894e-05
6.98744e-08
0.000250261
-0.000250144
-1.93023e-07
5.2361e-09
0.00115172
-1.50938e-07
1.00852e-06
-7.56041e-07
8.28413e-07
-9.35159e-07
-2.25773e-08
6.39769e-08
4.05065e-09
0.000245448
-5.08672e-08
0.00113204
-1.24866e-07
-1.18815e-06
2.74656e-07
-2.36723e-07
-8.54804e-07
2.68963e-07
-2.14952e-07
9.13681e-07
-2.84413e-08
0.00025013
1.31807e-07
1.19233e-09
0.00115167
-1.51883e-07
-9.34989e-07
8.28457e-07
-7.53157e-07
1.00854e-06
4.34382e-08
0.00024552
-1.67318e-08
-0.000245467
-1.0234e-07
-1.57953e-10
0.000229473
-0.000229437
2.31861e-09
3.19051e-08
-4.02585e-09
0.000193713
2.50949e-10
0.000229417
8.80034e-10
-1.31966e-08
0.000193766
3.15549e-09
-0.000193733
0.000229433
-0.000229399
2.39437e-09
3.39898e-08
-4.96945e-09
-3.85923e-09
0.000193654
0.000229379
8.81489e-10
-1.52794e-08
0.000193706
6.97663e-09
3.18058e-09
-0.000193673
8.26733e-10
-2.84871e-08
1.317e-07
2.17157e-09
0.000250182
-5.0945e-08
-1.25304e-07
1.23542e-06
-2.36612e-07
2.74559e-07
9.11171e-07
-2.14945e-07
-8.52345e-07
2.68915e-07
0.00113188
5.0091e-09
-1.52924e-07
1.0061e-06
-7.53062e-07
-9.32459e-07
8.2852e-07
0.0011517
-2.26735e-08
3.90994e-09
6.40376e-08
0.000245589
-2.84239e-08
1.31672e-07
7.24772e-10
0.000250158
-5.10288e-08
-1.18811e-06
-1.25337e-07
9.13591e-07
-2.14916e-07
-8.54766e-07
2.68945e-07
1.23282e-06
-2.36708e-07
2.74605e-07
0.00113202
-1.52933e-07
1.00854e-06
-7.5301e-07
-9.3488e-07
8.28465e-07
0.00115163
-2.26277e-08
-1.20985e-08
4.03045e-09
6.40081e-08
0.000245486
1.4068e-10
8.90939e-10
-1.32035e-08
0.000229456
-4.0869e-09
0.000193752
6.64651e-10
-1.52862e-08
0.000229419
-4.92281e-09
-3.91747e-09
0.000193693
9.8049e-05
9.80858e-05
-9.80592e-05
9.80451e-05
9.80819e-05
-9.80554e-05
0.000268065
-1.97899e-07
-2.00592e-07
-1.15107e-08
-6.67998e-09
2.50886e-08
0.000278364
-1.14276e-08
-7.2497e-09
2.27539e-08
0.000278289
9.80694e-05
9.80656e-05
1.7043e-08
7.92965e-05
2.72867e-11
-0.000263321
2.42391e-08
0.000263366
-6.15555e-08
-4.39709e-09
-3.92693e-09
-4.95889e-09
2.25858e-08
3.32155e-08
-9.30192e-10
7.93222e-05
-1.48745e-09
-4.99573e-09
2.2572e-08
-8.54858e-10
1.23951e-08
0.000143482
-0.000143493
6.84286e-11
-1.11168e-08
1.00484e-09
-0.000229478
-6.94988e-11
2.85738e-08
-0.0001712
-2.76551e-10
-2.64856e-11
0.000171231
-0.000223511
2.87656e-08
4.4346e-09
0.000223552
-7.15589e-08
-0.000171212
-1.70704e-11
-0.000223532
9.87402e-10
3.29515e-08
1.5449e-09
0.000143509
-7.93223e-05
-2.40962e-08
-1.5313e-09
7.9348e-05
-1.71198e-08
0.000263399
-9.71631e-10
-0.000263418
3.32937e-08
3.21978e-09
0.000193765
6.92421e-09
-4.34651e-08
-4.48971e-11
-7.93394e-05
-4.4257e-09
0.000263444
-6.13859e-08
-0.000143467
2.8721e-10
-2.87928e-08
2.98802e-08
2.191e-09
5.63249e-11
-7.00936e-08
8.44772e-10
0.000171182
-0.000171194
-6.44962e-12
-1.23932e-08
0.000223491
-0.000223512
3.29666e-08
-0.000143478
-1.5963e-11
-7.15943e-08
1.7144e-08
7.93309e-05
-0.000263424
2.40523e-08
0.000263469
-6.13243e-08
-4.05563e-09
-4.85005e-09
2.26663e-08
3.33138e-08
7.93565e-05
9.80797e-05
-6.90857e-09
-2.19535e-08
4.90596e-09
1.3721e-08
1.24125e-08
-8.1735e-10
0.00014348
-0.000143492
1.7317e-11
7.464e-10
-1.11345e-08
-0.000229465
2.49688e-11
2.86029e-08
-0.000223502
2.87817e-08
4.39982e-09
0.000223542
-7.15881e-08
-0.000171197
-3.2096e-10
2.29927e-11
0.000171228
-0.000223522
9.43184e-10
3.29726e-08
-0.000171209
1.11361e-11
1.5162e-09
0.000143507
-7.9324e-05
-2.41296e-08
-1.50466e-09
7.93496e-05
-1.70745e-08
0.000263394
-9.30528e-10
-0.000263414
3.32696e-08
3.23626e-09
0.000193748
6.93843e-09
-4.34961e-08
4.40399e-12
-7.93411e-05
-4.39426e-09
0.000263439
-6.14365e-08
-0.000143465
-2.88071e-08
3.2781e-10
2.37242e-09
2.99003e-08
-1.02369e-11
-7.01314e-08
-1.24149e-08
0.000223482
-0.000223502
3.29915e-08
8.11198e-10
0.000171179
-0.000171191
1.67275e-11
-0.000143477
-7.16191e-08
2.95167e-11
1.71006e-08
7.93325e-05
-0.00026342
2.40875e-08
0.000263465
-6.13774e-08
-3.98774e-09
-4.89785e-09
2.26482e-08
3.32957e-08
7.93581e-05
9.80728e-05
-6.95909e-09
-1.95897e-08
4.91924e-09
1.1393e-08
-7.04135e-09
-7.04435e-09
0.000213852
-0.000213858
1.01297e-08
1.01462e-08
-8.05862e-05
-1.21251e-08
-1.20612e-08
8.06104e-05
-8.05746e-05
-1.21554e-08
-1.20452e-08
8.05988e-05
-8.06026e-05
9.35923e-09
-8.0591e-05
9.37303e-09
-2.47429e-08
-2.47777e-08
0.000213877
-0.000221985
-3.59753e-08
3.29651e-08
2.47766e-08
0.000222021
-5.70256e-08
-1.57814e-08
0.000250743
-0.000250798
6.11973e-08
3.18915e-08
1.63534e-08
0.000183126
-9.37498e-09
-0.000183139
-4.83049e-08
1.01403e-08
0.000278358
1.96388e-08
-2.32403e-08
-1.0116e-08
-0.000222004
2.89252e-08
0.000250811
-9.70509e-08
-5.48752e-08
1.20586e-08
0.000183157
-0.000221917
-3.60267e-08
3.10211e-08
2.48161e-08
0.000221957
-5.9473e-08
-1.58281e-08
0.00025063
-0.000250687
6.36146e-08
3.19287e-08
1.43802e-08
0.000183074
-9.37905e-09
-0.000183086
-4.83246e-08
1.06378e-08
0.00027828
1.96207e-08
-2.32209e-08
-1.01239e-08
-0.00022194
3.13073e-08
0.000250703
-1.01957e-07
-5.49576e-08
1.20476e-08
0.000183103
-0.000213832
1.21544e-08
1.21801e-08
7.02694e-09
8.05784e-05
-8.05948e-05
7.03728e-09
8.05668e-05
-8.05832e-05
-0.000213839
1.57842e-08
-1.63869e-08
0.000222
3.12711e-08
-0.000183143
-3.29088e-08
0.000183174
2.50551e-08
-6.71302e-09
-1.14756e-08
1.20585e-08
-0.000250758
3.59448e-08
0.000250826
-9.94459e-08
-5.48691e-08
6.12158e-08
3.18624e-08
0.000222038
-5.92654e-08
1.58429e-08
-1.44081e-08
0.000221934
3.13398e-08
-0.000183091
-3.09694e-08
0.000183121
2.27269e-08
-7.27775e-09
-1.13978e-08
1.21117e-08
-0.000250646
3.59991e-08
0.000250718
-1.0189e-07
-5.49405e-08
6.36271e-08
3.19356e-08
0.000221974
-5.94023e-08
1.13765e-08
1.13248e-08
-7.01874e-09
-7.06937e-09
0.0002138
1.22763e-08
1.01762e-08
-8.05624e-05
-1.22871e-08
-1.19926e-08
8.05867e-05
-8.05489e-05
-1.22384e-08
-1.20719e-08
8.05733e-05
9.38446e-09
9.36957e-09
-2.70071e-08
-2.50545e-08
0.000213827
-1.64931e-08
0.000221965
1.8224e-08
2.89644e-08
-0.000183087
-3.3352e-08
0.000183121
-9.40741e-09
2.49528e-08
1.2095e-08
3.84325e-08
-0.000250746
0.000250808
-9.96534e-08
-5.23341e-08
0.000222001
-5.73631e-08
6.1113e-08
2.94191e-08
-1.63071e-08
0.0002219
1.57427e-08
3.35185e-08
-0.000183034
-3.31435e-08
0.000183065
-6.77977e-09
2.49016e-08
9.73777e-09
3.60722e-08
-0.000250638
0.000250706
-1.02154e-07
-5.24317e-08
0.000221939
-6.19239e-08
6.35758e-08
2.93863e-08
-9.80797e-05
1.14411e-08
4.90538e-09
-1.97861e-08
-6.88025e-09
-9.80686e-05
1.13855e-08
4.94581e-09
-1.97503e-08
-6.90369e-09
-0.000213819
1.2267e-08
1.22233e-08
-2.6983e-08
-2.50223e-08
0.000213846
7.02964e-09
8.05703e-05
9.37289e-09
7.07333e-09
8.05568e-05
9.36284e-09
1.22807e-08
1.01904e-08
-1.1991e-08
8.05946e-05
-1.20672e-08
8.05811e-05
-1.65412e-08
1.82194e-08
0.000222
-0.000222018
-1.22939e-08
2.90104e-08
-0.000250779
3.83917e-08
0.000250839
-9.70396e-08
-5.23284e-08
-9.3383e-09
2.49993e-08
-0.000278354
1.20502e-08
-0.000183122
-3.32488e-08
1.19936e-08
0.000183156
-0.000183139
-9.35535e-09
-0.000250827
5.87313e-08
3.19153e-08
2.69457e-08
0.000222035
-5.72182e-08
-1.63479e-08
1.57512e-08
0.000221934
-0.000221956
-1.02027e-08
3.35546e-08
-0.000250669
3.60243e-08
0.000250737
-1.02023e-07
-5.24148e-08
-6.72411e-09
2.49483e-08
-0.000278287
9.70861e-09
-0.000183069
-3.3045e-08
1.20674e-08
0.0001831
-0.000183083
-9.34652e-09
-0.000250721
6.35857e-08
2.93676e-08
2.49852e-08
0.000221973
-6.17838e-08
-0.000221983
3.33017e-08
-3.84151e-08
-5.72952e-08
1.6515e-08
0.000183105
-1.82101e-08
0.000250764
5.86437e-08
2.93866e-08
1.26025e-08
-5.07268e-08
-2.31438e-08
2.89856e-08
-9.71905e-08
-5.48732e-08
-0.000221917
3.30962e-08
-3.60474e-08
-6.18582e-08
1.63261e-08
0.000183052
-1.57469e-08
0.000250653
6.3573e-08
2.93776e-08
1.00792e-08
-5.07312e-08
-2.08529e-08
3.35375e-08
-1.02093e-07
-5.24242e-08
-7.04075e-09
-7.08305e-09
0.000213838
-8.05782e-05
-1.22377e-08
8.06024e-05
-8.05647e-05
-1.21954e-08
8.05889e-05
0.000213866
-0.000143436
2.98483e-10
-2.88494e-08
1.50434e-09
0.000143463
8.25314e-10
0.000171146
-1.2679e-11
-0.000171158
-1.23955e-08
0.000223451
9.43585e-10
3.29763e-08
-0.000223472
2.99425e-08
2.18858e-09
0.000229439
2.83494e-11
-7.01693e-08
-5.42747e-12
-0.000143447
0.000171176
-1.9086e-11
4.40446e-09
0.000223492
-7.16678e-08
7.93137e-05
1.70916e-08
-7.93308e-05
-1.60405e-11
-3.98811e-09
-0.000193726
2.26217e-08
2.41498e-08
-0.000263373
-4.41705e-09
-6.14461e-08
-1.51489e-09
-0.000263392
-9.58622e-10
3.32625e-08
-7.93051e-05
-2.41905e-08
-1.70712e-08
0.000263347
3.32404e-08
3.28545e-09
-4.35557e-08
-6.1504e-08
0.000143451
-8.36551e-10
1.23945e-08
-1.11049e-08
9.9487e-10
-6.72361e-11
2.85918e-08
-2.90275e-10
-0.000171164
-2.51736e-11
2.88197e-08
-0.000223471
-7.16393e-08
-1.62893e-11
3.29642e-08
-0.000143366
3.40426e-10
-2.88314e-08
1.45811e-09
0.000143393
7.94215e-10
0.000171111
-0.000171123
-1.23687e-08
0.000223353
-1.14897e-09
3.04919e-08
-0.000223369
2.99416e-08
2.13508e-09
0.000229399
-7.0172e-08
-1.40538e-11
-0.000143377
0.000171141
6.40235e-09
0.000223389
-6.91956e-08
1.70669e-08
7.92719e-05
-7.92889e-05
-5.05789e-12
-4.04841e-09
-0.000193664
-4.9471e-09
2.47859e-08
-0.00026324
2.41758e-08
-6.4098e-09
0.000263285
-5.89517e-08
-0.000263259
1.12951e-09
3.07394e-08
-1.47188e-09
7.92975e-05
-7.92632e-05
-2.42177e-08
-1.70471e-08
0.000263214
3.0713e-08
-0.000263233
3.43383e-09
6.8797e-09
-4.57587e-08
-7.92803e-05
-5.90039e-08
-8.07832e-10
1.23721e-08
0.000143381
-1.11063e-08
9.54961e-10
2.85908e-08
-0.000171129
-3.30746e-10
0.000171159
-0.000223373
2.88048e-08
0.000223409
-6.91607e-08
3.04788e-08
0.000143408
-9.80592e-05
1.36636e-08
-2.2042e-08
1.58795e-08
-1.46081e-08
0.00022191
-1.4596e-08
3.37232e-08
-0.00022193
-0.000250615
3.84655e-08
0.00025068
-9.71963e-08
-5.48616e-08
2.26448e-08
-7.42017e-09
-0.000278226
1.20652e-08
-0.000183052