/*--------------------------------*- C++ -*----------------------------------*\
| =========                 |                                                 |
| \\      /  F ield         | OpenFOAM: The Open Source CFD Toolbox           |
|  \\    /   O peration     | Version:                                        |
|   \\  /    A nd           | Website:  www.openfoam.com                      |
|    \\/     M anipulation  |                                                 |
\*---------------------------------------------------------------------------*/
FoamFile
{
    version     2.0;
    format      ascii;
    class       volScalarField;
    location    "100000";
    object      p;
}
// * * * * * * * * * * * * * * * * * * * * * * * * * * * * * * * * * * * * * //

dimensions      [0 2 -2 0 0 0 0];


internalField   nonuniform List<scalar> 
172512
(
1.27134e-07
1.27103e-07
1.27103e-07
1.27057e-07
1.24035e-07
1.23952e-07
1.23952e-07
1.24081e-07
1.21867e-07
1.21841e-07
1.21841e-07
1.2195e-07
1.20039e-07
1.20031e-07
1.20031e-07
1.20126e-07
1.18383e-07
1.18383e-07
1.18383e-07
1.18472e-07
1.16831e-07
1.16833e-07
1.16833e-07
1.16918e-07
1.15347e-07
1.15349e-07
1.15349e-07
1.15431e-07
1.13909e-07
1.13911e-07
1.13911e-07
1.13991e-07
1.12506e-07
1.12507e-07
1.12507e-07
1.12585e-07
1.11127e-07
1.11128e-07
1.11128e-07
1.11205e-07
1.09767e-07
1.09767e-07
1.09767e-07
1.09844e-07
1.08421e-07
1.08422e-07
1.08422e-07
1.08497e-07
1.07087e-07
1.07087e-07
1.07087e-07
1.07162e-07
1.0576e-07
1.05761e-07
1.05761e-07
1.05835e-07
1.04441e-07
1.04441e-07
1.04441e-07
1.04515e-07
1.03126e-07
1.03126e-07
1.03126e-07
1.032e-07
1.01816e-07
1.01816e-07
1.01816e-07
1.0189e-07
1.00508e-07
1.00508e-07
1.00508e-07
1.00582e-07
9.92033e-08
9.92032e-08
9.92032e-08
9.92769e-08
9.79001e-08
9.79e-08
9.79e-08
9.79736e-08
9.65983e-08
9.65982e-08
9.65982e-08
9.66717e-08
9.52976e-08
9.52976e-08
9.52976e-08
9.5371e-08
9.39979e-08
9.39978e-08
9.39978e-08
9.40712e-08
9.26988e-08
9.26987e-08
9.26987e-08
9.27721e-08
9.14003e-08
9.14002e-08
9.14002e-08
9.14735e-08
9.01022e-08
9.0102e-08
9.0102e-08
9.01753e-08
8.88043e-08
8.88042e-08
8.88042e-08
8.88775e-08
8.75068e-08
8.75066e-08
8.75066e-08
8.75799e-08
8.62094e-08
8.62092e-08
8.62092e-08
8.62825e-08
8.49122e-08
8.4912e-08
8.4912e-08
8.49853e-08
8.36151e-08
8.36149e-08
8.36149e-08
8.36882e-08
8.23181e-08
8.23179e-08
8.23179e-08
8.23912e-08
8.10212e-08
8.1021e-08
8.1021e-08
8.10942e-08
7.97243e-08
7.97241e-08
7.97241e-08
7.97974e-08
7.84275e-08
7.84272e-08
7.84272e-08
7.85005e-08
7.71306e-08
7.71304e-08
7.71304e-08
7.72037e-08
7.58339e-08
7.58336e-08
7.58336e-08
7.59069e-08
7.45371e-08
7.45369e-08
7.45369e-08
7.46102e-08
7.32404e-08
7.32401e-08
7.32401e-08
7.33134e-08
7.19436e-08
7.19434e-08
7.19434e-08
7.20167e-08
7.06469e-08
7.06467e-08
7.06467e-08
7.072e-08
6.93502e-08
6.935e-08
6.935e-08
6.94232e-08
6.80534e-08
6.80532e-08
6.80532e-08
6.81265e-08
6.67567e-08
6.67565e-08
6.67565e-08
6.68298e-08
6.546e-08
6.54598e-08
6.54598e-08
6.5533e-08
6.41633e-08
6.4163e-08
6.4163e-08
6.42363e-08
6.28665e-08
6.28663e-08
6.28663e-08
6.29396e-08
6.15698e-08
6.15696e-08
6.15696e-08
6.16428e-08
6.02731e-08
6.02728e-08
6.02728e-08
6.03461e-08
5.89763e-08
5.89761e-08
5.89761e-08
5.90494e-08
5.76796e-08
5.76794e-08
5.76794e-08
5.77527e-08
5.63829e-08
5.63827e-08
5.63827e-08
5.6456e-08
5.50862e-08
5.5086e-08
5.5086e-08
5.51592e-08
5.37894e-08
5.37892e-08
5.37892e-08
5.38625e-08
5.24927e-08
5.24925e-08
5.24925e-08
5.25658e-08
5.1196e-08
5.11958e-08
5.11958e-08
5.1269e-08
4.98993e-08
4.9899e-08
4.9899e-08
4.99723e-08
4.86025e-08
4.86023e-08
4.86023e-08
4.86756e-08
4.73058e-08
4.73056e-08
4.73056e-08
4.73789e-08
4.60091e-08
4.60089e-08
4.60089e-08
4.60822e-08
4.47124e-08
4.47122e-08
4.47122e-08
4.47854e-08
4.34157e-08
4.34154e-08
4.34154e-08
4.34887e-08
4.21189e-08
4.21187e-08
4.21187e-08
4.2192e-08
4.08222e-08
4.0822e-08
4.0822e-08
4.08953e-08
3.95255e-08
3.95253e-08
3.95253e-08
3.95985e-08
3.82288e-08
3.82285e-08
3.82285e-08
3.83018e-08
3.6932e-08
3.69318e-08
3.69318e-08
3.70051e-08
3.56353e-08
3.56351e-08
3.56351e-08
3.57084e-08
3.43386e-08
3.43384e-08
3.43384e-08
3.44117e-08
3.30419e-08
3.30417e-08
3.30417e-08
3.31149e-08
3.17452e-08
3.17449e-08
3.17449e-08
3.18182e-08
3.04484e-08
3.04482e-08
3.04482e-08
3.05215e-08
2.91517e-08
2.91515e-08
2.91515e-08
2.92248e-08
2.7855e-08
2.78548e-08
2.78548e-08
2.7928e-08
2.65583e-08
2.6558e-08
2.6558e-08
2.66313e-08
2.52615e-08
2.52613e-08
2.52613e-08
2.53346e-08
2.39648e-08
2.39646e-08
2.39646e-08
2.40379e-08
2.26681e-08
2.26679e-08
2.26679e-08
2.27411e-08
2.13714e-08
2.13711e-08
2.13711e-08
2.14444e-08
2.00746e-08
2.00744e-08
2.00744e-08
2.01477e-08
1.87779e-08
1.87777e-08
1.87777e-08
1.8851e-08
1.74812e-08
1.7481e-08
1.7481e-08
1.75542e-08
1.61845e-08
1.61843e-08
1.61843e-08
1.62575e-08
1.48878e-08
1.48875e-08
1.48875e-08
1.49608e-08
1.3591e-08
1.35908e-08
1.35908e-08
1.36641e-08
1.22943e-08
1.22941e-08
1.22941e-08
1.23674e-08
1.09976e-08
1.09974e-08
1.09974e-08
1.10706e-08
9.70086e-09
9.70064e-09
9.70064e-09
9.77391e-09
8.40415e-09
8.40393e-09
8.40393e-09
8.47719e-09
7.10744e-09
7.10723e-09
7.10723e-09
7.18047e-09
5.81075e-09
5.81055e-09
5.81055e-09
5.88375e-09
4.5141e-09
4.51394e-09
4.51394e-09
4.58698e-09
3.21777e-09
3.21747e-09
3.21746e-09
3.29017e-09
1.92775e-09
1.92555e-09
1.92553e-09
1.99761e-09
8.47083e-10
7.46734e-10
7.46718e-10
7.07644e-10
1.27537e-07
1.2756e-07
1.2756e-07
1.27537e-07
1.2756e-07
1.2756e-07
1.27566e-07
1.27566e-07
1.27566e-07
1.27566e-07
1.2756e-07
1.2756e-07
1.27537e-07
1.2756e-07
1.2756e-07
1.27537e-07
1.27057e-07
1.24422e-07
1.27103e-07
1.27103e-07
1.24567e-07
1.24567e-07
1.27057e-07
1.24422e-07
1.27103e-07
1.27103e-07
1.24567e-07
1.24567e-07
1.27103e-07
1.24567e-07
1.24567e-07
1.27057e-07
1.24422e-07
1.27103e-07
1.24567e-07
1.24567e-07
1.24422e-07
1.24081e-07
1.2222e-07
1.23952e-07
1.23952e-07
1.22331e-07
1.22331e-07
1.24081e-07
1.2222e-07
1.23952e-07
1.23952e-07
1.22331e-07
1.22331e-07
1.23952e-07
1.22331e-07
1.22331e-07
1.24081e-07
1.2222e-07
1.23952e-07
1.22331e-07
1.22331e-07
1.2222e-07
1.2195e-07
1.20362e-07
1.21841e-07
1.21841e-07
1.20465e-07
1.20465e-07
1.2195e-07
1.20362e-07
1.21841e-07
1.21841e-07
1.20465e-07
1.20465e-07
1.21841e-07
1.20465e-07
1.20465e-07
1.2195e-07
1.20362e-07
1.21841e-07
1.20465e-07
1.20465e-07
1.20362e-07
1.20126e-07
1.18691e-07
1.20031e-07
1.20031e-07
1.18784e-07
1.18784e-07
1.20126e-07
1.18691e-07
1.20031e-07
1.20031e-07
1.18784e-07
1.18784e-07
1.20031e-07
1.18784e-07
1.18784e-07
1.20126e-07
1.18691e-07
1.20031e-07
1.18784e-07
1.18784e-07
1.18691e-07
1.18472e-07
1.17124e-07
1.18383e-07
1.18383e-07
1.17213e-07
1.17213e-07
1.18472e-07
1.17124e-07
1.18383e-07
1.18383e-07
1.17213e-07
1.17214e-07
1.18383e-07
1.17213e-07
1.17213e-07
1.18472e-07
1.17124e-07
1.18383e-07
1.17213e-07
1.17213e-07
1.17125e-07
1.16918e-07
1.1563e-07
1.16833e-07
1.16833e-07
1.15716e-07
1.15715e-07
1.16918e-07
1.1563e-07
1.16833e-07
1.16833e-07
1.15715e-07
1.15715e-07
1.16833e-07
1.15715e-07
1.15715e-07
1.16918e-07
1.1563e-07
1.16833e-07
1.15716e-07
1.15716e-07
1.1563e-07
1.15431e-07
1.14185e-07
1.15349e-07
1.15349e-07
1.14267e-07
1.14267e-07
1.15431e-07
1.14185e-07
1.15349e-07
1.15349e-07
1.14267e-07
1.14267e-07
1.15349e-07
1.14267e-07
1.14267e-07
1.15431e-07
1.14185e-07
1.15349e-07
1.14267e-07
1.14267e-07
1.14185e-07
1.13991e-07
1.12776e-07
1.13911e-07
1.13911e-07
1.12855e-07
1.12855e-07
1.13991e-07
1.12776e-07
1.13911e-07
1.13911e-07
1.12855e-07
1.12855e-07
1.13911e-07
1.12855e-07
1.12855e-07
1.13991e-07
1.12776e-07
1.13911e-07
1.12855e-07
1.12855e-07
1.12776e-07
1.12585e-07
1.11392e-07
1.12507e-07
1.12507e-07
1.11471e-07
1.11471e-07
1.12585e-07
1.11392e-07
1.12507e-07
1.12507e-07
1.11471e-07
1.11471e-07
1.12507e-07
1.11471e-07
1.11471e-07
1.12585e-07
1.11392e-07
1.12507e-07
1.11471e-07
1.11471e-07
1.11392e-07
1.11205e-07
1.10029e-07
1.11128e-07
1.11128e-07
1.10106e-07
1.10106e-07
1.11205e-07
1.10029e-07
1.11128e-07
1.11128e-07
1.10106e-07
1.10106e-07
1.11128e-07
1.10106e-07
1.10106e-07
1.11205e-07
1.10029e-07
1.11128e-07
1.10106e-07
1.10106e-07
1.10029e-07
1.09844e-07
1.08681e-07
1.09767e-07
1.09767e-07
1.08757e-07
1.08757e-07
1.09844e-07
1.08681e-07
1.09767e-07
1.09767e-07
1.08757e-07
1.08757e-07
1.09767e-07
1.08757e-07
1.08757e-07
1.09844e-07
1.08681e-07
1.09767e-07
1.08757e-07
1.08757e-07
1.08681e-07
1.08497e-07
1.07344e-07
1.08422e-07
1.08422e-07
1.0742e-07
1.0742e-07
1.08497e-07
1.07344e-07
1.08422e-07
1.08422e-07
1.0742e-07
1.0742e-07
1.08422e-07
1.0742e-07
1.0742e-07
1.08497e-07
1.07344e-07
1.08422e-07
1.0742e-07
1.0742e-07
1.07344e-07
1.07162e-07
1.06016e-07
1.07087e-07
1.07087e-07
1.06091e-07
1.06091e-07
1.07162e-07
1.06016e-07
1.07087e-07
1.07087e-07
1.06091e-07
1.06091e-07
1.07087e-07
1.06091e-07
1.06091e-07
1.07162e-07
1.06016e-07
1.07087e-07
1.06091e-07
1.06091e-07
1.06016e-07
1.05835e-07
1.04696e-07
1.05761e-07
1.05761e-07
1.0477e-07
1.0477e-07
1.05835e-07
1.04696e-07
1.05761e-07
1.05761e-07
1.0477e-07
1.0477e-07
1.05761e-07
1.0477e-07
1.0477e-07
1.05835e-07
1.04696e-07
1.05761e-07
1.0477e-07
1.0477e-07
1.04696e-07
1.04515e-07
1.0338e-07
1.04441e-07
1.04441e-07
1.03455e-07
1.03455e-07
1.04515e-07
1.0338e-07
1.04441e-07
1.04441e-07
1.03455e-07
1.03455e-07
1.04441e-07
1.03455e-07
1.03455e-07
1.04515e-07
1.0338e-07
1.04441e-07
1.03455e-07
1.03455e-07
1.0338e-07
1.032e-07
1.02069e-07
1.03126e-07
1.03126e-07
1.02143e-07
1.02143e-07
1.032e-07
1.02069e-07
1.03126e-07
1.03126e-07
1.02143e-07
1.02143e-07
1.03126e-07
1.02143e-07
1.02143e-07
1.032e-07
1.02069e-07
1.03126e-07
1.02143e-07
1.02143e-07
1.02069e-07
1.0189e-07
1.00761e-07
1.01816e-07
1.01816e-07
1.00835e-07
1.00835e-07
1.0189e-07
1.00761e-07
1.01816e-07
1.01816e-07
1.00835e-07
1.00835e-07
1.01816e-07
1.00835e-07
1.00835e-07
1.0189e-07
1.00761e-07
1.01816e-07
1.00835e-07
1.00835e-07
1.00761e-07
1.00582e-07
9.94556e-08
1.00508e-07
1.00508e-07
9.95293e-08
9.95293e-08
1.00582e-07
9.94556e-08
1.00508e-07
1.00508e-07
9.95293e-08
9.95293e-08
1.00508e-07
9.95293e-08
9.95293e-08
1.00582e-07
9.94556e-08
1.00508e-07
9.95293e-08
9.95293e-08
9.94556e-08
9.92769e-08
9.81521e-08
9.92032e-08
9.92032e-08
9.82257e-08
9.82257e-08
9.92769e-08
9.81521e-08
9.92032e-08
9.92032e-08
9.82257e-08
9.82257e-08
9.92032e-08
9.82257e-08
9.82257e-08
9.92769e-08
9.81521e-08
9.92032e-08
9.82257e-08
9.82257e-08
9.81521e-08
9.79736e-08
9.68501e-08
9.79e-08
9.79e-08
9.69235e-08
9.69235e-08
9.79736e-08
9.685e-08
9.79e-08
9.79e-08
9.69235e-08
9.69235e-08
9.79e-08
9.69235e-08
9.69235e-08
9.79736e-08
9.685e-08
9.79e-08
9.69235e-08
9.69235e-08
9.685e-08
9.66717e-08
9.55492e-08
9.65982e-08
9.65982e-08
9.56226e-08
9.56226e-08
9.66717e-08
9.55492e-08
9.65982e-08
9.65982e-08
9.56226e-08
9.56226e-08
9.65982e-08
9.56226e-08
9.56226e-08
9.66717e-08
9.55492e-08
9.65982e-08
9.56226e-08
9.56226e-08
9.55492e-08
9.5371e-08
9.42493e-08
9.52976e-08
9.52976e-08
9.43227e-08
9.43227e-08
9.5371e-08
9.42493e-08
9.52976e-08
9.52976e-08
9.43227e-08
9.43227e-08
9.52976e-08
9.43227e-08
9.43227e-08
9.5371e-08
9.42493e-08
9.52976e-08
9.43227e-08
9.43227e-08
9.42493e-08
9.40712e-08
9.29501e-08
9.39978e-08
9.39978e-08
9.30234e-08
9.30234e-08
9.40712e-08
9.29501e-08
9.39978e-08
9.39978e-08
9.30234e-08
9.30234e-08
9.39978e-08
9.30234e-08
9.30234e-08
9.40712e-08
9.29501e-08
9.39978e-08
9.30234e-08
9.30234e-08
9.29501e-08
9.27721e-08
9.16515e-08
9.26987e-08
9.26987e-08
9.17247e-08
9.17247e-08
9.27721e-08
9.16514e-08
9.26987e-08
9.26987e-08
9.17247e-08
9.17247e-08
9.26987e-08
9.17247e-08
9.17247e-08
9.27721e-08
9.16514e-08
9.26987e-08
9.17247e-08
9.17247e-08
9.16514e-08
9.14735e-08
9.03532e-08
9.14002e-08
9.14002e-08
9.04265e-08
9.04265e-08
9.14735e-08
9.03532e-08
9.14002e-08
9.14002e-08
9.04265e-08
9.04265e-08
9.14002e-08
9.04265e-08
9.04265e-08
9.14735e-08
9.03532e-08
9.14002e-08
9.04265e-08
9.04265e-08
9.03532e-08
9.01753e-08
8.90554e-08
9.0102e-08
9.0102e-08
8.91286e-08
8.91286e-08
9.01753e-08
8.90554e-08
9.0102e-08
9.0102e-08
8.91286e-08
8.91286e-08
9.0102e-08
8.91286e-08
8.91286e-08
9.01753e-08
8.90554e-08
9.0102e-08
8.91286e-08
8.91286e-08
8.90553e-08
8.88775e-08
8.77578e-08
8.88042e-08
8.88042e-08
8.7831e-08
8.7831e-08
8.88775e-08
8.77578e-08
8.88042e-08
8.88042e-08
8.7831e-08
8.7831e-08
8.88042e-08
8.7831e-08
8.7831e-08
8.88775e-08
8.77577e-08
8.88042e-08
8.7831e-08
8.7831e-08
8.77577e-08
8.75799e-08
8.64604e-08
8.75066e-08
8.75066e-08
8.65336e-08
8.65336e-08
8.75799e-08
8.64603e-08
8.75066e-08
8.75066e-08
8.65336e-08
8.65336e-08
8.75066e-08
8.65336e-08
8.65336e-08
8.75799e-08
8.64603e-08
8.75066e-08
8.65336e-08
8.65336e-08
8.64603e-08
8.62825e-08
8.51631e-08
8.62092e-08
8.62092e-08
8.52363e-08
8.52363e-08
8.62825e-08
8.51631e-08
8.62092e-08
8.62092e-08
8.52363e-08
8.52363e-08
8.62092e-08
8.52363e-08
8.52363e-08
8.62825e-08
8.51631e-08
8.62092e-08
8.52363e-08
8.52363e-08
8.51631e-08
8.49853e-08
8.3866e-08
8.4912e-08
8.4912e-08
8.39392e-08
8.39392e-08
8.49853e-08
8.3866e-08
8.4912e-08
8.4912e-08
8.39392e-08
8.39392e-08
8.4912e-08
8.39392e-08
8.39392e-08
8.49853e-08
8.3866e-08
8.4912e-08
8.39392e-08
8.39392e-08
8.3866e-08
8.36882e-08
8.2569e-08
8.36149e-08
8.36149e-08
8.26421e-08
8.26421e-08
8.36882e-08
8.2569e-08
8.36149e-08
8.36149e-08
8.26421e-08
8.26421e-08
8.36149e-08
8.26421e-08
8.26421e-08
8.36882e-08
8.25689e-08
8.36149e-08
8.26421e-08
8.26421e-08
8.25689e-08
8.23912e-08
8.1272e-08
8.23179e-08
8.23179e-08
8.13452e-08
8.13452e-08
8.23912e-08
8.1272e-08
8.23179e-08
8.23179e-08
8.13452e-08
8.13452e-08
8.23179e-08
8.13452e-08
8.13452e-08
8.23912e-08
8.1272e-08
8.23179e-08
8.13452e-08
8.13452e-08
8.1272e-08
8.10942e-08
7.99751e-08
8.1021e-08
8.1021e-08
8.00483e-08
8.00483e-08
8.10942e-08
7.99751e-08
8.1021e-08
8.1021e-08
8.00483e-08
8.00483e-08
8.1021e-08
8.00483e-08
8.00483e-08
8.10942e-08
7.99751e-08
8.1021e-08
8.00483e-08
8.00483e-08
7.99751e-08
7.97973e-08
7.86783e-08
7.97241e-08
7.97241e-08
7.87514e-08
7.87514e-08
7.97973e-08
7.86783e-08
7.97241e-08
7.97241e-08
7.87514e-08
7.87514e-08
7.97241e-08
7.87514e-08
7.87514e-08
7.97974e-08
7.86783e-08
7.97241e-08
7.87514e-08
7.87514e-08
7.86782e-08
7.85005e-08
7.73814e-08
7.84272e-08
7.84272e-08
7.74546e-08
7.74546e-08
7.85005e-08
7.73814e-08
7.84272e-08
7.84272e-08
7.74546e-08
7.74546e-08
7.84272e-08
7.74546e-08
7.74546e-08
7.85005e-08
7.73814e-08
7.84272e-08
7.74546e-08
7.74546e-08
7.73814e-08
7.72037e-08
7.60847e-08
7.71304e-08
7.71304e-08
7.61578e-08
7.61578e-08
7.72037e-08
7.60847e-08
7.71304e-08
7.71304e-08
7.61578e-08
7.61578e-08
7.71304e-08
7.61578e-08
7.61578e-08
7.72037e-08
7.60846e-08
7.71304e-08
7.61578e-08
7.61578e-08
7.60846e-08
7.59069e-08
7.47879e-08
7.58336e-08
7.58336e-08
7.48611e-08
7.48611e-08
7.59069e-08
7.47879e-08
7.58336e-08
7.58336e-08
7.48611e-08
7.48611e-08
7.58336e-08
7.48611e-08
7.48611e-08
7.59069e-08
7.47879e-08
7.58336e-08
7.48611e-08
7.48611e-08
7.47879e-08
7.46101e-08
7.34911e-08
7.45369e-08
7.45369e-08
7.35643e-08
7.35643e-08
7.46101e-08
7.34911e-08
7.45369e-08
7.45369e-08
7.35643e-08
7.35643e-08
7.45369e-08
7.35643e-08
7.35643e-08
7.46102e-08
7.34911e-08
7.45369e-08
7.35643e-08
7.35643e-08
7.34911e-08
7.33134e-08
7.21944e-08
7.32401e-08
7.32401e-08
7.22676e-08
7.22676e-08
7.33134e-08
7.21944e-08
7.32401e-08
7.32401e-08
7.22676e-08
7.22676e-08
7.32401e-08
7.22676e-08
7.22676e-08
7.33134e-08
7.21944e-08
7.32401e-08
7.22676e-08
7.22676e-08
7.21944e-08
7.20167e-08
7.08977e-08
7.19434e-08
7.19434e-08
7.09709e-08
7.09709e-08
7.20167e-08
7.08977e-08
7.19434e-08
7.19434e-08
7.09709e-08
7.09709e-08
7.19434e-08
7.09709e-08
7.09709e-08
7.20167e-08
7.08977e-08
7.19434e-08
7.09709e-08
7.09709e-08
7.08977e-08
7.07199e-08
6.9601e-08
7.06467e-08
7.06467e-08
6.96741e-08
6.96741e-08
7.07199e-08
6.9601e-08
7.06467e-08
7.06467e-08
6.96741e-08
6.96741e-08
7.06467e-08
6.96741e-08
6.96741e-08
7.07199e-08
6.9601e-08
7.06467e-08
6.96741e-08
6.96741e-08
6.96009e-08
6.94232e-08
6.83042e-08
6.935e-08
6.935e-08
6.83774e-08
6.83774e-08
6.94232e-08
6.83042e-08
6.935e-08
6.935e-08
6.83774e-08
6.83774e-08
6.935e-08
6.83774e-08
6.83774e-08
6.94232e-08
6.83042e-08
6.935e-08
6.83774e-08
6.83774e-08
6.83042e-08
6.81265e-08
6.70075e-08
6.80532e-08
6.80532e-08
6.70807e-08
6.70807e-08
6.81265e-08
6.70075e-08
6.80532e-08
6.80532e-08
6.70807e-08
6.70807e-08
6.80532e-08
6.70807e-08
6.70807e-08
6.81265e-08
6.70075e-08
6.80532e-08
6.70807e-08
6.70807e-08
6.70075e-08
6.68298e-08
6.57108e-08
6.67565e-08
6.67565e-08
6.57839e-08
6.57839e-08
6.68298e-08
6.57108e-08
6.67565e-08
6.67565e-08
6.57839e-08
6.57839e-08
6.67565e-08
6.57839e-08
6.57839e-08
6.68298e-08
6.57108e-08
6.67565e-08
6.57839e-08
6.57839e-08
6.57108e-08
6.5533e-08
6.4414e-08
6.54598e-08
6.54598e-08
6.44872e-08
6.44872e-08
6.5533e-08
6.4414e-08
6.54598e-08
6.54598e-08
6.44872e-08
6.44872e-08
6.54598e-08
6.44872e-08
6.44872e-08
6.5533e-08
6.4414e-08
6.54598e-08
6.44872e-08
6.44872e-08
6.4414e-08
6.42363e-08
6.31173e-08
6.4163e-08
6.4163e-08
6.31905e-08
6.31905e-08
6.42363e-08
6.31173e-08
6.4163e-08
6.4163e-08
6.31905e-08
6.31905e-08
6.4163e-08
6.31905e-08
6.31905e-08
6.42363e-08
6.31173e-08
6.4163e-08
6.31905e-08
6.31905e-08
6.31173e-08
6.29396e-08
6.18206e-08
6.28663e-08
6.28663e-08
6.18938e-08
6.18938e-08
6.29396e-08
6.18206e-08
6.28663e-08
6.28663e-08
6.18938e-08
6.18938e-08
6.28663e-08
6.18938e-08
6.18938e-08
6.29396e-08
6.18206e-08
6.28663e-08
6.18938e-08
6.18938e-08
6.18206e-08
6.16428e-08
6.05238e-08
6.15696e-08
6.15696e-08
6.0597e-08
6.0597e-08
6.16428e-08
6.05238e-08
6.15696e-08
6.15696e-08
6.0597e-08
6.0597e-08
6.15696e-08
6.0597e-08
6.0597e-08
6.16428e-08
6.05238e-08
6.15696e-08
6.0597e-08
6.0597e-08
6.05238e-08
6.03461e-08
5.92271e-08
6.02728e-08
6.02728e-08
5.93003e-08
5.93003e-08
6.03461e-08
5.92271e-08
6.02728e-08
6.02728e-08
5.93003e-08
5.93003e-08
6.02728e-08
5.93003e-08
5.93003e-08
6.03461e-08
5.92271e-08
6.02728e-08
5.93003e-08
5.93003e-08
5.92271e-08
5.90494e-08
5.79304e-08
5.89761e-08
5.89761e-08
5.80036e-08
5.80036e-08
5.90494e-08
5.79304e-08
5.89761e-08
5.89761e-08
5.80036e-08
5.80036e-08
5.89761e-08
5.80036e-08
5.80036e-08
5.90494e-08
5.79304e-08
5.89761e-08
5.80036e-08
5.80036e-08
5.79304e-08
5.77527e-08
5.66337e-08
5.76794e-08
5.76794e-08
5.67069e-08
5.67069e-08
5.77527e-08
5.66337e-08
5.76794e-08
5.76794e-08
5.67069e-08
5.67069e-08
5.76794e-08
5.67069e-08
5.67069e-08
5.77527e-08
5.66337e-08
5.76794e-08
5.67069e-08
5.67069e-08
5.66337e-08
5.64559e-08
5.5337e-08
5.63827e-08
5.63827e-08
5.54101e-08
5.54101e-08
5.64559e-08
5.5337e-08
5.63827e-08
5.63827e-08
5.54101e-08
5.54101e-08
5.63827e-08
5.54101e-08
5.54101e-08
5.64559e-08
5.53369e-08
5.63827e-08
5.54101e-08
5.54101e-08
5.53369e-08
5.51592e-08
5.40402e-08
5.5086e-08
5.5086e-08
5.41134e-08
5.41134e-08
5.51592e-08
5.40402e-08
5.5086e-08
5.5086e-08
5.41134e-08
5.41134e-08
5.5086e-08
5.41134e-08
5.41134e-08
5.51592e-08
5.40402e-08
5.5086e-08
5.41134e-08
5.41134e-08
5.40402e-08
5.38625e-08
5.27435e-08
5.37892e-08
5.37892e-08
5.28167e-08
5.28167e-08
5.38625e-08
5.27435e-08
5.37892e-08
5.37892e-08
5.28167e-08
5.28167e-08
5.37892e-08
5.28167e-08
5.28167e-08
5.38625e-08
5.27435e-08
5.37892e-08
5.28167e-08
5.28167e-08
5.27435e-08
5.25658e-08
5.14468e-08
5.24925e-08
5.24925e-08
5.15199e-08
5.15199e-08
5.25658e-08
5.14468e-08
5.24925e-08
5.24925e-08
5.15199e-08
5.15199e-08
5.24925e-08
5.15199e-08
5.15199e-08
5.25658e-08
5.14468e-08
5.24925e-08
5.15199e-08
5.15199e-08
5.14468e-08
5.1269e-08
5.015e-08
5.11958e-08
5.11958e-08
5.02232e-08
5.02232e-08
5.1269e-08
5.015e-08
5.11958e-08
5.11958e-08
5.02232e-08
5.02232e-08
5.11958e-08
5.02232e-08
5.02232e-08
5.1269e-08
5.015e-08
5.11958e-08
5.02232e-08
5.02232e-08
5.015e-08
4.99723e-08
4.88533e-08
4.9899e-08
4.9899e-08
4.89265e-08
4.89265e-08
4.99723e-08
4.88533e-08
4.9899e-08
4.9899e-08
4.89265e-08
4.89265e-08
4.9899e-08
4.89265e-08
4.89265e-08
4.99723e-08
4.88533e-08
4.9899e-08
4.89265e-08
4.89265e-08
4.88533e-08
4.86756e-08
4.75566e-08
4.86023e-08
4.86023e-08
4.76298e-08
4.76298e-08
4.86756e-08
4.75566e-08
4.86023e-08
4.86023e-08
4.76298e-08
4.76298e-08
4.86023e-08
4.76298e-08
4.76298e-08
4.86756e-08
4.75566e-08
4.86023e-08
4.76298e-08
4.76298e-08
4.75566e-08
4.73789e-08
4.62599e-08
4.73056e-08
4.73056e-08
4.63331e-08
4.63331e-08
4.73789e-08
4.62599e-08
4.73056e-08
4.73056e-08
4.63331e-08
4.63331e-08
4.73056e-08
4.63331e-08
4.63331e-08
4.73789e-08
4.62599e-08
4.73056e-08
4.63331e-08
4.63331e-08
4.62599e-08
4.60821e-08
4.49632e-08
4.60089e-08
4.60089e-08
4.50363e-08
4.50363e-08
4.60821e-08
4.49632e-08
4.60089e-08
4.60089e-08
4.50363e-08
4.50363e-08
4.60089e-08
4.50363e-08
4.50363e-08
4.60822e-08
4.49632e-08
4.60089e-08
4.50363e-08
4.50363e-08
4.49632e-08
4.47854e-08
4.36664e-08
4.47122e-08
4.47122e-08
4.37396e-08
4.37396e-08
4.47854e-08
4.36664e-08
4.47122e-08
4.47122e-08
4.37396e-08
4.37396e-08
4.47122e-08
4.37396e-08
4.37396e-08
4.47854e-08
4.36664e-08
4.47122e-08
4.37396e-08
4.37396e-08
4.36664e-08
4.34887e-08
4.23697e-08
4.34154e-08
4.34154e-08
4.24429e-08
4.24429e-08
4.34887e-08
4.23697e-08
4.34154e-08
4.34154e-08
4.24429e-08
4.24429e-08
4.34154e-08
4.24429e-08
4.24429e-08
4.34887e-08
4.23697e-08
4.34154e-08
4.24429e-08
4.24429e-08
4.23697e-08
4.2192e-08
4.1073e-08
4.21187e-08
4.21187e-08
4.11462e-08
4.11462e-08
4.2192e-08
4.1073e-08
4.21187e-08
4.21187e-08
4.11462e-08
4.11462e-08
4.21187e-08
4.11462e-08
4.11462e-08
4.2192e-08
4.1073e-08
4.21187e-08
4.11462e-08
4.11462e-08
4.1073e-08
4.08953e-08
3.97763e-08
4.0822e-08
4.0822e-08
3.98494e-08
3.98494e-08
4.08953e-08
3.97763e-08
4.0822e-08
4.0822e-08
3.98494e-08
3.98494e-08
4.0822e-08
3.98494e-08
3.98494e-08
4.08953e-08
3.97763e-08
4.0822e-08
3.98494e-08
3.98494e-08
3.97763e-08
3.95985e-08
3.84795e-08
3.95253e-08
3.95253e-08
3.85527e-08
3.85527e-08
3.95985e-08
3.84795e-08
3.95253e-08
3.95253e-08
3.85527e-08
3.85527e-08
3.95253e-08
3.85527e-08
3.85527e-08
3.95985e-08
3.84795e-08
3.95253e-08
3.85527e-08
3.85527e-08
3.84795e-08
3.83018e-08
3.71828e-08
3.82285e-08
3.82285e-08
3.7256e-08
3.7256e-08
3.83018e-08
3.71828e-08
3.82285e-08
3.82285e-08
3.7256e-08
3.7256e-08
3.82285e-08
3.7256e-08
3.7256e-08
3.83018e-08
3.71828e-08
3.82285e-08
3.7256e-08
3.7256e-08
3.71828e-08
3.70051e-08
3.58861e-08
3.69318e-08
3.69318e-08
3.59593e-08
3.59593e-08
3.70051e-08
3.58861e-08
3.69318e-08
3.69318e-08
3.59593e-08
3.59593e-08
3.69318e-08
3.59593e-08
3.59593e-08
3.70051e-08
3.58861e-08
3.69318e-08
3.59593e-08
3.59593e-08
3.58861e-08
3.57084e-08
3.45894e-08
3.56351e-08
3.56351e-08
3.46626e-08
3.46626e-08
3.57084e-08
3.45894e-08
3.56351e-08
3.56351e-08
3.46626e-08
3.46626e-08
3.56351e-08
3.46626e-08
3.46626e-08
3.57084e-08
3.45894e-08
3.56351e-08
3.46626e-08
3.46626e-08
3.45894e-08
3.44116e-08
3.32927e-08
3.43384e-08
3.43384e-08
3.33658e-08
3.33658e-08
3.44116e-08
3.32927e-08
3.43384e-08
3.43384e-08
3.33658e-08
3.33658e-08
3.43384e-08
3.33658e-08
3.33658e-08
3.44116e-08
3.32927e-08
3.43384e-08
3.33658e-08
3.33658e-08
3.32926e-08
3.31149e-08
3.19959e-08
3.30417e-08
3.30417e-08
3.20691e-08
3.20691e-08
3.31149e-08
3.19959e-08
3.30417e-08
3.30417e-08
3.20691e-08
3.20691e-08
3.30417e-08
3.20691e-08
3.20691e-08
3.31149e-08
3.19959e-08
3.30417e-08
3.20691e-08
3.20691e-08
3.19959e-08
3.18182e-08
3.06992e-08
3.17449e-08
3.17449e-08
3.07724e-08
3.07724e-08
3.18182e-08
3.06992e-08
3.17449e-08
3.17449e-08
3.07724e-08
3.07724e-08
3.17449e-08
3.07724e-08
3.07724e-08
3.18182e-08
3.06992e-08
3.17449e-08
3.07724e-08
3.07724e-08
3.06992e-08
3.05215e-08
2.94025e-08
3.04482e-08
3.04482e-08
2.94757e-08
2.94757e-08
3.05215e-08
2.94025e-08
3.04482e-08
3.04482e-08
2.94757e-08
2.94757e-08
3.04482e-08
2.94757e-08
2.94757e-08
3.05215e-08
2.94025e-08
3.04482e-08
2.94757e-08
2.94757e-08
2.94025e-08
2.92247e-08
2.81058e-08
2.91515e-08
2.91515e-08
2.81789e-08
2.81789e-08
2.92247e-08
2.81058e-08
2.91515e-08
2.91515e-08
2.81789e-08
2.81789e-08
2.91515e-08
2.81789e-08
2.81789e-08
2.92247e-08
2.81058e-08
2.91515e-08
2.81789e-08
2.81789e-08
2.81057e-08
2.7928e-08
2.6809e-08
2.78548e-08
2.78548e-08
2.68822e-08
2.68822e-08
2.7928e-08
2.6809e-08
2.78548e-08
2.78548e-08
2.68822e-08
2.68822e-08
2.78548e-08
2.68822e-08
2.68822e-08
2.7928e-08
2.6809e-08
2.78548e-08
2.68822e-08
2.68822e-08
2.6809e-08
2.66313e-08
2.55123e-08
2.6558e-08
2.6558e-08
2.55855e-08
2.55855e-08
2.66313e-08
2.55123e-08
2.6558e-08
2.6558e-08
2.55855e-08
2.55855e-08
2.6558e-08
2.55855e-08
2.55855e-08
2.66313e-08
2.55123e-08
2.6558e-08
2.55855e-08
2.55855e-08
2.55123e-08
2.53346e-08
2.42156e-08
2.52613e-08
2.52613e-08
2.42888e-08
2.42888e-08
2.53346e-08
2.42156e-08
2.52613e-08
2.52613e-08
2.42888e-08
2.42888e-08
2.52613e-08
2.42888e-08
2.42888e-08
2.53346e-08
2.42156e-08
2.52613e-08
2.42888e-08
2.42888e-08
2.42156e-08
2.40379e-08
2.29189e-08
2.39646e-08
2.39646e-08
2.2992e-08
2.2992e-08
2.40378e-08
2.29189e-08
2.39646e-08
2.39646e-08
2.2992e-08
2.2992e-08
2.39646e-08
2.2992e-08
2.2992e-08
2.40379e-08
2.29189e-08
2.39646e-08
2.2992e-08
2.2992e-08
2.29188e-08
2.27411e-08
2.16221e-08
2.26679e-08
2.26679e-08
2.16953e-08
2.16953e-08
2.27411e-08
2.16221e-08
2.26679e-08
2.26679e-08
2.16953e-08
2.16953e-08
2.26679e-08
2.16953e-08
2.16953e-08
2.27411e-08
2.16221e-08
2.26679e-08
2.16953e-08
2.16953e-08
2.16221e-08
2.14444e-08
2.03254e-08
2.13711e-08
2.13711e-08
2.03986e-08
2.03986e-08
2.14444e-08
2.03254e-08
2.13711e-08
2.13711e-08
2.03986e-08
2.03986e-08
2.13711e-08
2.03986e-08
2.03986e-08
2.14444e-08
2.03254e-08
2.13711e-08
2.03986e-08
2.03986e-08
2.03254e-08
2.01477e-08
1.90287e-08
2.00744e-08
2.00744e-08
1.91019e-08
1.91019e-08
2.01477e-08
1.90287e-08
2.00744e-08
2.00744e-08
1.91019e-08
1.91019e-08
2.00744e-08
1.91019e-08
1.91019e-08
2.01477e-08
1.90287e-08
2.00744e-08
1.91019e-08
1.91019e-08
1.90287e-08
1.88509e-08
1.7732e-08
1.87777e-08
1.87777e-08
1.78051e-08
1.78051e-08
1.88509e-08
1.7732e-08
1.87777e-08
1.87777e-08
1.78051e-08
1.78051e-08
1.87777e-08
1.78051e-08
1.78051e-08
1.8851e-08
1.7732e-08
1.87777e-08
1.78051e-08
1.78051e-08
1.7732e-08
1.75542e-08
1.64352e-08
1.7481e-08
1.7481e-08
1.65084e-08
1.65084e-08
1.75542e-08
1.64353e-08
1.7481e-08
1.7481e-08
1.65084e-08
1.65084e-08
1.7481e-08
1.65084e-08
1.65084e-08
1.75542e-08
1.64352e-08
1.7481e-08
1.65084e-08
1.65084e-08
1.64352e-08
1.62575e-08
1.51385e-08
1.61843e-08
1.61843e-08
1.52117e-08
1.52117e-08
1.62575e-08
1.51385e-08
1.61843e-08
1.61843e-08
1.52117e-08
1.52117e-08
1.61843e-08
1.52117e-08
1.52117e-08
1.62575e-08
1.51385e-08
1.61843e-08
1.52117e-08
1.52117e-08
1.51385e-08
1.49608e-08
1.38418e-08
1.48875e-08
1.48875e-08
1.3915e-08
1.3915e-08
1.49608e-08
1.38418e-08
1.48875e-08
1.48875e-08
1.3915e-08
1.3915e-08
1.48875e-08
1.3915e-08
1.3915e-08
1.49608e-08
1.38418e-08
1.48875e-08
1.3915e-08
1.3915e-08
1.38418e-08
1.36641e-08
1.25451e-08
1.35908e-08
1.35908e-08
1.26183e-08
1.26183e-08
1.36641e-08
1.25451e-08
1.35908e-08
1.35908e-08
1.26183e-08
1.26183e-08
1.35908e-08
1.26183e-08
1.26183e-08
1.36641e-08
1.25451e-08
1.35908e-08
1.26183e-08
1.26183e-08
1.25451e-08
1.23673e-08
1.12484e-08
1.22941e-08
1.22941e-08
1.13215e-08
1.13215e-08
1.23673e-08
1.12484e-08
1.22941e-08
1.22941e-08
1.13215e-08
1.13215e-08
1.22941e-08
1.13215e-08
1.13215e-08
1.23674e-08
1.12484e-08
1.22941e-08
1.13215e-08
1.13215e-08
1.12483e-08
1.10706e-08
9.95164e-09
1.09974e-08
1.09974e-08
1.00248e-08
1.00248e-08
1.10706e-08
9.95164e-09
1.09974e-08
1.09974e-08
1.00248e-08
1.00248e-08
1.09974e-08
1.00248e-08
1.00248e-08
1.10706e-08
9.95163e-09
1.09974e-08
1.00248e-08
1.00248e-08
9.95162e-09
9.7739e-09
8.65491e-09
9.70064e-09
9.70064e-09
8.72809e-09
8.72809e-09
9.7739e-09
8.65491e-09
9.70064e-09
9.70064e-09
8.72809e-09
8.72809e-09
9.70064e-09
8.72809e-09
8.72809e-09
9.7739e-09
8.65491e-09
9.70064e-09
8.72809e-09
8.72809e-09
8.6549e-09
8.47718e-09
7.35819e-09
8.40393e-09
8.40393e-09
7.43137e-09
7.43137e-09
8.47718e-09
7.35819e-09
8.40393e-09
8.40393e-09
7.43137e-09
7.43137e-09
8.40393e-09
7.43137e-09
7.43137e-09
8.47718e-09
7.35819e-09
8.40393e-09
7.43137e-09
7.43137e-09
7.35818e-09
7.18046e-09
6.06146e-09
7.10723e-09
7.10723e-09
6.13465e-09
6.13465e-09
7.18046e-09
6.06146e-09
7.10723e-09
7.10723e-09
6.13465e-09
6.13465e-09
7.10723e-09
6.13465e-09
6.13465e-09
7.18046e-09
6.06146e-09
7.10723e-09
6.13465e-09
6.13465e-09
6.06145e-09
5.88373e-09
4.76468e-09
5.81055e-09
5.81055e-09
4.83789e-09
4.83789e-09
5.88373e-09
4.76468e-09
5.81055e-09
5.81055e-09
4.83789e-09
4.83789e-09
5.81055e-09
4.83789e-09
4.83789e-09
5.88374e-09
4.76468e-09
5.81055e-09
4.83789e-09
4.83789e-09
4.76467e-09
4.58697e-09
3.46774e-09
4.51394e-09
4.51394e-09
3.54098e-09
3.54098e-09
4.58697e-09
3.46773e-09
4.51394e-09
4.51394e-09
3.54098e-09
3.54098e-09
4.51394e-09
3.54098e-09
3.54098e-09
4.58697e-09
3.46773e-09
4.51394e-09
3.54098e-09
3.54098e-09
3.46771e-09
3.29015e-09
2.17173e-09
3.21747e-09
3.21747e-09
2.24441e-09
2.24441e-09
3.29015e-09
2.17173e-09
3.21747e-09
3.21746e-09
2.24442e-09
2.2444e-09
3.21746e-09
2.24442e-09
2.2444e-09
3.29016e-09
2.17171e-09
3.21746e-09
2.24441e-09
2.24441e-09
2.17171e-09
1.99761e-09
7.98894e-10
1.92552e-09
1.92552e-09
8.74681e-10
8.74632e-10
1.99759e-09
7.98903e-10
1.92556e-09
1.9255e-09
8.74718e-10
8.74618e-10
1.9255e-09
8.74718e-10
8.74638e-10
1.99759e-09
7.98914e-10
1.92553e-09
8.74684e-10
8.74661e-10
7.98917e-10
7.07652e-10
7.467e-10
7.46659e-10
7.07643e-10
7.46741e-10
7.4665e-10
8.47058e-10
8.47051e-10
8.47034e-10
7.46661e-10
7.07629e-10
7.46681e-10
1.28267e-07
1.28885e-07
1.28552e-07
1.28552e-07
1.30289e-07
1.29146e-07
1.31672e-07
1.28775e-07
1.30289e-07
1.29146e-07
1.28775e-07
1.31672e-07
1.29443e-07
1.32106e-07
1.32106e-07
1.25623e-07
1.2688e-07
1.26896e-07
1.25586e-07
1.26819e-07
1.2557e-07
1.25623e-07
1.2688e-07
1.26896e-07
1.25586e-07
1.27134e-07
1.27134e-07
1.27134e-07
1.2467e-07
1.2467e-07
1.2467e-07
1.2467e-07
1.25686e-07
1.26933e-07
1.27145e-07
1.25967e-07
1.26969e-07
1.25636e-07
1.26021e-07
1.26819e-07
1.2557e-07
1.25686e-07
1.27145e-07
1.26933e-07
1.25967e-07
1.26969e-07
1.26021e-07
1.25636e-07
1.26952e-07
1.26952e-07
1.25802e-07
1.2562e-07
1.2562e-07
1.23199e-07
1.24004e-07
1.24024e-07
1.23184e-07
1.23998e-07
1.2318e-07
1.23199e-07
1.24004e-07
1.24024e-07
1.23184e-07
1.24035e-07
1.24035e-07
1.24035e-07
1.22365e-07
1.22365e-07
1.22365e-07
1.22365e-07
1.23215e-07