/*--------------------------------*- C++ -*----------------------------------*\
| =========                 |                                                 |
| \\      /  F ield         | OpenFOAM: The Open Source CFD Toolbox           |
|  \\    /   O peration     | Version:                                        |
|   \\  /    A nd           | Website:  www.openfoam.com                      |
|    \\/     M anipulation  |                                                 |
\*---------------------------------------------------------------------------*/
FoamFile
{
    version     2.0;
    format      ascii;
    class       volScalarField;
    location    "26350.5";
    object      p;
}
// * * * * * * * * * * * * * * * * * * * * * * * * * * * * * * * * * * * * * //

dimensions      [0 2 -2 0 0 0 0];


internalField   nonuniform List<scalar> 
247096
(
1.11423e-07
1.11426e-07
1.11569e-07
1.11656e-07
1.11688e-07
1.11647e-07
1.11556e-07
1.11402e-07
1.11426e-07
1.11624e-07
1.11801e-07
1.11894e-07
1.11917e-07
1.11887e-07
1.11783e-07
1.116e-07
1.1157e-07
1.11801e-07
1.11942e-07
1.11983e-07
1.1199e-07
1.11981e-07
1.11931e-07
1.11774e-07
1.11542e-07
1.11656e-07
1.11894e-07
1.11984e-07
1.11995e-07
1.11994e-07
1.11995e-07
1.11979e-07
1.11872e-07
1.11623e-07
1.11423e-07
1.11689e-07
1.11917e-07
1.1199e-07
1.11994e-07
1.1199e-07
1.11995e-07
1.11987e-07
1.11898e-07
1.11654e-07
1.11647e-07
1.11887e-07
1.11981e-07
1.11996e-07
1.11995e-07
1.11995e-07
1.11976e-07
1.11865e-07
1.11614e-07
1.11556e-07
1.11783e-07
1.11932e-07
1.11979e-07
1.11987e-07
1.11976e-07
1.1192e-07
1.11756e-07
1.1153e-07
1.11402e-07
1.11601e-07
1.11775e-07
1.11873e-07
1.11898e-07
1.11865e-07
1.11756e-07
1.11578e-07
1.11543e-07
1.11623e-07
1.11654e-07
1.11615e-07
1.11531e-07
1.0861e-07
1.08585e-07
1.08594e-07
1.08444e-07
1.08457e-07
1.08476e-07
1.08456e-07
1.08643e-07
1.08581e-07
1.08594e-07
1.08465e-07
1.08259e-07
1.08278e-07
1.08278e-07
1.08259e-07
1.08522e-07
1.08469e-07
1.08446e-07
1.08265e-07
1.08299e-07
1.0832e-07
1.0832e-07
1.08299e-07
1.08265e-07
1.08587e-07
1.08632e-07
1.0861e-07
1.08458e-07
1.0828e-07
1.0832e-07
1.08343e-07
1.08343e-07
1.0832e-07
1.0828e-07
1.08615e-07
1.0865e-07
1.08586e-07
1.08477e-07
1.08279e-07
1.0832e-07
1.08344e-07
1.08344e-07
1.0832e-07
1.08279e-07
1.08617e-07
1.08474e-07
1.08457e-07
1.0826e-07
1.083e-07
1.08321e-07
1.08321e-07
1.083e-07
1.0826e-07
1.0861e-07
1.08659e-07
1.08644e-07
1.08523e-07
1.08265e-07
1.08281e-07
1.08281e-07
1.08266e-07
1.08605e-07
1.08528e-07
1.08642e-07
1.08582e-07
1.0847e-07
1.08588e-07
1.08616e-07
1.08619e-07
1.08612e-07
1.08529e-07
1.08653e-07
1.08633e-07
1.08651e-07
1.08475e-07
1.0866e-07
1.08643e-07
1.06834e-07
1.06825e-07
1.06833e-07
1.06703e-07
1.06703e-07
1.06713e-07
1.06705e-07
1.06868e-07
1.06825e-07
1.06833e-07
1.06698e-07
1.06465e-07
1.06473e-07
1.06473e-07
1.06465e-07
1.06722e-07
1.06715e-07
1.06703e-07
1.06465e-07
1.06485e-07
1.06496e-07
1.06496e-07
1.06485e-07
1.06465e-07
1.06766e-07
1.06858e-07
1.06834e-07
1.06703e-07
1.06473e-07
1.06496e-07
1.06509e-07
1.06509e-07
1.06496e-07
1.06473e-07
1.06771e-07
1.06855e-07
1.06825e-07
1.06713e-07
1.06473e-07
1.06496e-07
1.06509e-07
1.06509e-07
1.06496e-07
1.06473e-07
1.06769e-07
1.06723e-07
1.06705e-07
1.06465e-07
1.06485e-07
1.06496e-07
1.06496e-07
1.06485e-07
1.06465e-07
1.06773e-07
1.06863e-07
1.06868e-07
1.06722e-07
1.06465e-07
1.06473e-07
1.06473e-07
1.06465e-07
1.06755e-07
1.06745e-07
1.06868e-07
1.06825e-07
1.06716e-07
1.06766e-07
1.06771e-07
1.0677e-07
1.06774e-07
1.06745e-07
1.06871e-07
1.06858e-07
1.06855e-07
1.06723e-07
1.06863e-07
1.06868e-07
1.0523e-07
1.05222e-07
1.0523e-07
1.05107e-07
1.05106e-07
1.05114e-07
1.05108e-07
1.05261e-07
1.05223e-07
1.0523e-07
1.05103e-07
1.04893e-07
1.04899e-07
1.04899e-07
1.04893e-07
1.05126e-07
1.0512e-07
1.05107e-07
1.04893e-07
1.04905e-07
1.04911e-07
1.04911e-07
1.04905e-07
1.04893e-07
1.05167e-07
1.05254e-07
1.0523e-07
1.05106e-07
1.04899e-07
1.04911e-07
1.04918e-07
1.04918e-07
1.04911e-07
1.04899e-07
1.05171e-07
1.05252e-07
1.05222e-07
1.05114e-07
1.04899e-07
1.04911e-07
1.04918e-07
1.04918e-07
1.04911e-07
1.04899e-07
1.0517e-07
1.05126e-07
1.05108e-07
1.04893e-07
1.04905e-07
1.04911e-07
1.04911e-07
1.04905e-07
1.04893e-07
1.05173e-07
1.05259e-07
1.05261e-07
1.05127e-07
1.04893e-07
1.04899e-07
1.04899e-07
1.04893e-07
1.05155e-07
1.05147e-07
1.05262e-07
1.05223e-07
1.0512e-07
1.05167e-07
1.05171e-07
1.0517e-07
1.05173e-07
1.05147e-07
1.05266e-07
1.05254e-07
1.05252e-07
1.05126e-07
1.05259e-07
1.05262e-07
1.0376e-07
1.03752e-07
1.0376e-07
1.03642e-07
1.0364e-07
1.03647e-07
1.03642e-07
1.03787e-07
1.03754e-07
1.0376e-07
1.03637e-07
1.03444e-07
1.03448e-07
1.03448e-07
1.03444e-07
1.0366e-07
1.03656e-07
1.03642e-07
1.03444e-07
1.03452e-07
1.03455e-07
1.03455e-07
1.03452e-07
1.03444e-07
1.03699e-07
1.03783e-07
1.0376e-07
1.0364e-07
1.03448e-07
1.03455e-07
1.0346e-07
1.0346e-07
1.03455e-07
1.03448e-07
1.03701e-07
1.03781e-07
1.03752e-07
1.03647e-07
1.03448e-07
1.03455e-07
1.0346e-07
1.0346e-07
1.03455e-07
1.03448e-07
1.03699e-07
1.03661e-07
1.03642e-07
1.03444e-07
1.03452e-07
1.03455e-07
1.03455e-07
1.03452e-07
1.03444e-07
1.03703e-07
1.03787e-07
1.03787e-07
1.0366e-07
1.03444e-07
1.03448e-07
1.03448e-07
1.03444e-07
1.03686e-07
1.0368e-07
1.03789e-07
1.03754e-07
1.03656e-07
1.03699e-07
1.03701e-07
1.03699e-07
1.03703e-07
1.0368e-07
1.03794e-07
1.03783e-07
1.03781e-07
1.03661e-07
1.03787e-07
1.03789e-07
1.02396e-07
1.02387e-07
1.02395e-07
1.02282e-07
1.02279e-07
1.02285e-07
1.02281e-07
1.0242e-07
1.0239e-07
1.02395e-07
1.02277e-07
1.02097e-07
1.02099e-07
1.02099e-07
1.02097e-07
1.02299e-07
1.02296e-07
1.02282e-07
1.02097e-07
1.02102e-07
1.02104e-07
1.02104e-07
1.02102e-07
1.02097e-07
1.02336e-07
1.02418e-07
1.02396e-07
1.02279e-07
1.02099e-07
1.02104e-07
1.02107e-07
1.02107e-07
1.02104e-07
1.02099e-07
1.02337e-07
1.02416e-07
1.02387e-07
1.02285e-07
1.02099e-07
1.02104e-07
1.02107e-07
1.02107e-07
1.02104e-07
1.02099e-07
1.02336e-07
1.02301e-07
1.02281e-07
1.02097e-07
1.02102e-07
1.02104e-07
1.02104e-07
1.02102e-07
1.02097e-07
1.02339e-07
1.02421e-07
1.0242e-07
1.02299e-07
1.02097e-07
1.02099e-07
1.02099e-07
1.02097e-07
1.02323e-07
1.02318e-07
1.02422e-07
1.0239e-07
1.02296e-07
1.02336e-07
1.02337e-07
1.02336e-07
1.02339e-07
1.02318e-07
1.02428e-07
1.02418e-07
1.02416e-07
1.02301e-07
1.02421e-07
1.02422e-07
1.0112e-07
1.01111e-07
1.01119e-07
1.0101e-07
1.01007e-07
1.01011e-07
1.01008e-07
1.01142e-07
1.01115e-07
1.01119e-07
1.01004e-07
1.00836e-07
1.00837e-07
1.00837e-07
1.00836e-07
1.01026e-07
1.01024e-07
1.0101e-07
1.00836e-07
1.0084e-07
1.00841e-07
1.00841e-07
1.0084e-07
1.00836e-07
1.01063e-07
1.01142e-07
1.0112e-07
1.01007e-07
1.00837e-07
1.00841e-07
1.00843e-07
1.00843e-07
1.00841e-07
1.00837e-07
1.01063e-07
1.0114e-07
1.01111e-07
1.01011e-07
1.00837e-07
1.00841e-07
1.00843e-07
1.00843e-07
1.00841e-07
1.00837e-07
1.01061e-07
1.01028e-07
1.01008e-07
1.00836e-07
1.0084e-07
1.00841e-07
1.00841e-07
1.0084e-07
1.00836e-07
1.01064e-07
1.01144e-07
1.01142e-07
1.01026e-07
1.00836e-07
1.00837e-07
1.00837e-07
1.00836e-07
1.01049e-07
1.01045e-07
1.01145e-07
1.01115e-07
1.01024e-07
1.01063e-07
1.01063e-07
1.01061e-07
1.01064e-07
1.01045e-07
1.01151e-07
1.01142e-07
1.0114e-07
1.01028e-07
1.01144e-07
1.01145e-07
9.99094e-08
9.99008e-08
9.99082e-08
9.98021e-08
9.97983e-08
9.98026e-08
9.98e-08
9.99307e-08
9.99051e-08
9.99082e-08
9.97959e-08
9.96361e-08
9.96371e-08
9.96371e-08
9.96361e-08
9.98181e-08
9.98166e-08
9.98021e-08
9.96361e-08
9.96394e-08
9.96394e-08
9.96394e-08
9.96393e-08
9.96361e-08
9.9855e-08
9.99309e-08
9.99094e-08
9.97982e-08
9.96371e-08
9.96394e-08
9.96402e-08
9.96402e-08
9.96394e-08
9.96371e-08
9.98548e-08
9.99289e-08
9.99007e-08
9.98025e-08
9.96371e-08
9.96394e-08
9.96402e-08
9.96402e-08
9.96394e-08
9.96371e-08
9.9853e-08
9.98203e-08
9.97999e-08
9.96361e-08
9.96393e-08
9.96394e-08
9.96394e-08
9.96393e-08
9.96361e-08
9.98553e-08
9.99332e-08
9.99307e-08
9.98181e-08
9.96361e-08
9.96371e-08
9.96371e-08
9.96361e-08
9.98413e-08
9.98361e-08
9.99337e-08
9.9905e-08
9.98166e-08
9.9855e-08
9.98548e-08
9.9853e-08
9.98553e-08
9.98361e-08
9.99403e-08
9.99309e-08
9.99289e-08
9.98202e-08
9.99332e-08
9.99337e-08
9.87378e-08
9.87291e-08
9.87366e-08
9.8632e-08
9.86279e-08
9.86319e-08
9.86295e-08
9.87585e-08
9.87338e-08
9.87364e-08
9.86256e-08
9.84704e-08
9.84711e-08
9.84711e-08
9.84704e-08
9.8648e-08
9.86461e-08
9.86319e-08
9.84703e-08
9.84733e-08
9.84728e-08
9.84728e-08
9.84733e-08
9.84703e-08
9.86851e-08
9.87592e-08
9.87377e-08
9.86278e-08
9.8471e-08
9.84727e-08
9.84728e-08
9.84728e-08
9.84727e-08
9.8471e-08
9.86848e-08
9.87572e-08
9.8729e-08
9.86318e-08
9.8471e-08
9.84727e-08
9.84728e-08
9.84728e-08
9.84727e-08
9.8471e-08
9.86828e-08
9.865e-08
9.86294e-08
9.84704e-08
9.84733e-08
9.84727e-08
9.84727e-08
9.84733e-08
9.84704e-08
9.86848e-08
9.87613e-08
9.87585e-08
9.8648e-08
9.84703e-08
9.8471e-08
9.8471e-08
9.84703e-08
9.86712e-08
9.86657e-08
9.87616e-08
9.87337e-08
9.86461e-08
9.8685e-08
9.86848e-08
9.86828e-08
9.86847e-08
9.86654e-08
9.87685e-08
9.87592e-08
9.87571e-08
9.86499e-08
9.87612e-08
9.87615e-08
9.75844e-08
9.75757e-08
9.75832e-08
9.74793e-08
9.7475e-08
9.74789e-08
9.74766e-08
9.76049e-08
9.75805e-08
9.75829e-08
9.74728e-08
9.73195e-08
9.73201e-08
9.73201e-08
9.73195e-08
9.74953e-08
9.74932e-08
9.74791e-08
9.73194e-08
9.73224e-08
9.73214e-08
9.73214e-08
9.73224e-08
9.73195e-08
9.75326e-08
9.76058e-08
9.75843e-08
9.74749e-08
9.732e-08
9.73214e-08
9.73211e-08
9.73211e-08
9.73214e-08
9.732e-08
9.75323e-08
9.76038e-08
9.75756e-08
9.74788e-08
9.732e-08
9.73214e-08
9.73211e-08
9.73211e-08
9.73214e-08
9.732e-08
9.75302e-08
9.74973e-08
9.74765e-08
9.73195e-08
9.73223e-08
9.73214e-08
9.73214e-08
9.73223e-08
9.73195e-08
9.75321e-08
9.76078e-08
9.76049e-08
9.74953e-08
9.73194e-08
9.732e-08
9.732e-08
9.73194e-08
9.75185e-08
9.7513e-08
9.76081e-08
9.75804e-08
9.74931e-08
9.75325e-08
9.75322e-08
9.75301e-08
9.75319e-08
9.75125e-08
9.76151e-08
9.76057e-08
9.76037e-08
9.74971e-08
9.76077e-08
9.76078e-08
9.64377e-08
9.6429e-08
9.64365e-08
9.63328e-08
9.63286e-08
9.63323e-08
9.633e-08
9.6458e-08
9.64337e-08
9.64363e-08
9.63263e-08
9.61737e-08
9.61742e-08
9.61742e-08
9.61736e-08
9.63488e-08
9.6348e-08
9.63326e-08
9.61736e-08
9.61766e-08
9.61755e-08
9.61755e-08
9.61766e-08
9.61737e-08
9.63866e-08
9.64593e-08
9.64376e-08
9.63285e-08
9.61741e-08
9.61754e-08
9.61749e-08
9.61749e-08
9.61755e-08
9.61742e-08
9.63861e-08
9.64573e-08
9.64289e-08
9.63323e-08
9.61741e-08
9.61754e-08
9.61749e-08
9.61749e-08
9.61754e-08
9.61741e-08
9.6384e-08
9.63509e-08
9.633e-08
9.61736e-08
9.61766e-08
9.61754e-08
9.61754e-08
9.61766e-08
9.61736e-08
9.63857e-08
9.64612e-08
9.64582e-08
9.63489e-08
9.61736e-08
9.61741e-08
9.61741e-08
9.61736e-08
9.63721e-08
9.63665e-08
9.64614e-08
9.64338e-08
9.63467e-08
9.63863e-08
9.63859e-08
9.63838e-08
9.63855e-08
9.63661e-08
9.64685e-08
9.64591e-08
9.64571e-08
9.63507e-08
9.6461e-08
9.64611e-08
9.52931e-08
9.52844e-08
9.52919e-08
9.51883e-08
9.5184e-08
9.51878e-08
9.51855e-08
9.53136e-08
9.52892e-08
9.52916e-08
9.51817e-08
9.50292e-08
9.50297e-08
9.50297e-08
9.50292e-08
9.52043e-08
9.52022e-08
9.5188e-08
9.50292e-08
9.50323e-08
9.5031e-08
9.5031e-08
9.50323e-08
9.50292e-08
9.52419e-08
9.53145e-08
9.5293e-08
9.51838e-08
9.50296e-08
9.5031e-08
9.50304e-08
9.50304e-08
9.5031e-08
9.50296e-08
9.52415e-08
9.53125e-08
9.52843e-08
9.51877e-08
9.50296e-08
9.5031e-08
9.50303e-08
9.50303e-08
9.5031e-08
9.50296e-08
9.52394e-08
9.52063e-08
9.51854e-08
9.50292e-08
9.50322e-08
9.50309e-08
9.50309e-08
9.50322e-08
9.50292e-08
9.52411e-08
9.53165e-08
9.53135e-08
9.52043e-08
9.50291e-08
9.50296e-08
9.50296e-08
9.50291e-08
9.52275e-08
9.52219e-08
9.53167e-08
9.52891e-08
9.52021e-08
9.52418e-08
9.52414e-08
9.52393e-08
9.52409e-08
9.52214e-08
9.53238e-08
9.53144e-08
9.53124e-08
9.52061e-08
9.53163e-08
9.53165e-08
9.41489e-08
9.41402e-08
9.41477e-08
9.40441e-08
9.40398e-08
9.40436e-08
9.40413e-08
9.41694e-08
9.4145e-08
9.41474e-08
9.40375e-08
9.38851e-08
9.38855e-08
9.38855e-08
9.38851e-08
9.40602e-08
9.40581e-08
9.40439e-08
9.3885e-08
9.3888e-08
9.38869e-08
9.38869e-08
9.3888e-08
9.38851e-08
9.40977e-08
9.41704e-08
9.41488e-08
9.40397e-08
9.38855e-08
9.38868e-08
9.38862e-08
9.38862e-08
9.38868e-08
9.38855e-08
9.40973e-08
9.41684e-08
9.41401e-08
9.40435e-08
9.38855e-08
9.38868e-08
9.38862e-08
9.38862e-08
9.38868e-08
9.38855e-08
9.40952e-08
9.40621e-08
9.40412e-08
9.3885e-08
9.3888e-08
9.38868e-08
9.38868e-08
9.3888e-08
9.38851e-08
9.40969e-08
9.41723e-08
9.41693e-08
9.40601e-08
9.3885e-08
9.38854e-08
9.38854e-08
9.3885e-08
9.40833e-08
9.40778e-08
9.41725e-08
9.41449e-08
9.4058e-08
9.40976e-08
9.40972e-08
9.40951e-08
9.40967e-08
9.40773e-08
9.41796e-08
9.41703e-08
9.41682e-08
9.40619e-08
9.41721e-08
9.41723e-08
9.30048e-08
9.29961e-08
9.30036e-08
9.29e-08
9.28957e-08
9.28994e-08
9.28971e-08
9.3025e-08
9.30007e-08
9.30033e-08
9.28934e-08
9.2741e-08
9.27414e-08
9.27414e-08
9.2741e-08
9.29159e-08
9.29151e-08
9.28998e-08
9.27409e-08
9.27439e-08
9.27428e-08
9.27428e-08
9.27439e-08
9.2741e-08
9.29538e-08
9.30264e-08
9.30047e-08
9.28956e-08
9.27414e-08
9.27427e-08
9.27421e-08
9.27421e-08
9.27428e-08
9.27414e-08
9.29533e-08
9.30243e-08
9.2996e-08
9.28994e-08
9.27414e-08
9.27427e-08
9.2742e-08
9.2742e-08
9.27427e-08
9.27414e-08
9.29511e-08
9.2918e-08
9.28971e-08
9.27409e-08
9.27439e-08
9.27427e-08
9.27427e-08
9.27439e-08
9.2741e-08
9.29528e-08
9.30282e-08
9.30252e-08
9.2916e-08
9.27409e-08
9.27413e-08
9.27413e-08
9.27409e-08
9.29392e-08
9.29337e-08
9.30284e-08
9.30008e-08
9.29139e-08
9.29535e-08
9.29531e-08
9.2951e-08
9.29526e-08
9.29332e-08
9.30355e-08
9.30261e-08
9.30241e-08
9.29178e-08
9.3028e-08
9.30282e-08
9.18607e-08
9.1852e-08
9.18595e-08
9.17559e-08
9.17516e-08
9.17554e-08
9.17531e-08
9.18812e-08
9.18568e-08
9.18592e-08
9.17493e-08
9.15969e-08
9.15973e-08
9.15973e-08
9.15969e-08
9.1772e-08
9.17699e-08
9.17557e-08
9.15969e-08
9.15998e-08
9.15987e-08
9.15987e-08
9.15998e-08
9.15969e-08
9.18095e-08
9.18822e-08
9.18606e-08
9.17515e-08
9.15973e-08
9.15986e-08
9.1598e-08
9.1598e-08
9.15987e-08
9.15973e-08
9.18091e-08
9.18802e-08
9.18519e-08
9.17553e-08
9.15973e-08
9.15986e-08
9.1598e-08
9.1598e-08
9.15986e-08
9.15973e-08
9.1807e-08
9.17739e-08
9.1753e-08
9.15969e-08
9.15998e-08
9.15986e-08
9.15986e-08
9.15998e-08
9.15969e-08
9.18087e-08
9.18841e-08
9.18811e-08
9.17719e-08
9.15968e-08
9.15972e-08
9.15972e-08
9.15968e-08
9.17951e-08
9.17896e-08
9.18843e-08
9.18568e-08
9.17698e-08
9.18094e-08
9.1809e-08
9.18069e-08
9.18086e-08
9.17891e-08
9.18914e-08
9.18821e-08
9.188e-08
9.17737e-08
9.1884e-08
9.18841e-08
9.07166e-08
9.07079e-08
9.07154e-08
9.06118e-08
9.06075e-08
9.06113e-08
9.0609e-08
9.07371e-08
9.07127e-08
9.07151e-08
9.06052e-08
9.04528e-08
9.04532e-08
9.04532e-08
9.04528e-08
9.06279e-08
9.06258e-08
9.06116e-08
9.04527e-08
9.04557e-08
9.04546e-08
9.04546e-08
9.04558e-08
9.04528e-08
9.06654e-08
9.07381e-08
9.07165e-08
9.06074e-08
9.04532e-08
9.04545e-08
9.04539e-08
9.04539e-08
9.04546e-08
9.04532e-08
9.0665e-08
9.07361e-08
9.07078e-08
9.06112e-08
9.04532e-08
9.04545e-08
9.04539e-08
9.04539e-08
9.04546e-08
9.04532e-08
9.06629e-08
9.06298e-08
9.06089e-08
9.04528e-08
9.04557e-08
9.04545e-08
9.04545e-08
9.04557e-08
9.04528e-08
9.06646e-08
9.074e-08
9.0737e-08
9.06278e-08
9.04527e-08
9.04532e-08
9.04532e-08
9.04527e-08
9.06511e-08
9.06455e-08
9.07402e-08
9.07127e-08
9.06257e-08
9.06653e-08
9.0665e-08
9.06629e-08
9.06645e-08
9.0645e-08
9.07474e-08
9.0738e-08
9.0736e-08
9.06297e-08
9.07399e-08
9.074e-08
8.95725e-08
8.95638e-08
8.95713e-08
8.94677e-08
8.94634e-08
8.94671e-08
8.94648e-08
8.95927e-08
8.95684e-08
8.9571e-08
8.94611e-08
8.93087e-08
8.93091e-08
8.93091e-08
8.93087e-08
8.94836e-08
8.94828e-08
8.94674e-08
8.93086e-08
8.93116e-08
8.93105e-08
8.93105e-08
8.93117e-08
8.93087e-08
8.95215e-08
8.95941e-08
8.95723e-08
8.94632e-08
8.93091e-08
8.93104e-08
8.93098e-08
8.93098e-08
8.93105e-08
8.93091e-08
8.9521e-08
8.9592e-08
8.95636e-08
8.9467e-08
8.93091e-08
8.93104e-08
8.93098e-08
8.93098e-08
8.93105e-08
8.93091e-08
8.95188e-08
8.94857e-08
8.94647e-08
8.93086e-08
8.93116e-08
8.93105e-08
8.93105e-08
8.93117e-08
8.93087e-08
8.95205e-08
8.95959e-08
8.95927e-08
8.94836e-08
8.93087e-08
8.93091e-08
8.93091e-08
8.93087e-08
8.9507e-08
8.9501e-08
8.9596e-08
8.95684e-08
8.94828e-08
8.95215e-08
8.9521e-08
8.95189e-08
8.95206e-08
8.95014e-08
8.96033e-08
8.95941e-08
8.9592e-08
8.94857e-08
8.95959e-08
8.95962e-08
8.84284e-08
8.84197e-08
8.84272e-08
8.83236e-08
8.83193e-08
8.8323e-08
8.83207e-08
8.84486e-08
8.84243e-08
8.84269e-08
8.8317e-08
8.81646e-08
8.8165e-08
8.8165e-08
8.81646e-08
8.83395e-08
8.83387e-08
8.83233e-08
8.81646e-08
8.81675e-08
8.81664e-08
8.81664e-08
8.81676e-08
8.81647e-08
8.83775e-08
8.84501e-08
8.84282e-08
8.83191e-08
8.8165e-08
8.81664e-08
8.81657e-08
8.81657e-08
8.81664e-08
8.81651e-08
8.83769e-08
8.8448e-08
8.84195e-08
8.83229e-08
8.8165e-08
8.81664e-08
8.81657e-08
8.81657e-08
8.81664e-08
8.81651e-08
8.83748e-08
8.83417e-08
8.83206e-08
8.81646e-08
8.81675e-08
8.81664e-08
8.81664e-08
8.81676e-08
8.81646e-08
8.83765e-08
8.84519e-08
8.84486e-08
8.83395e-08
8.81646e-08
8.8165e-08
8.8165e-08
8.81646e-08
8.83629e-08
8.83573e-08
8.84521e-08
8.84243e-08
8.83387e-08
8.83774e-08
8.83769e-08
8.83747e-08
8.83763e-08
8.83569e-08
8.84592e-08
8.845e-08
8.84479e-08
8.83416e-08
8.84518e-08
8.84519e-08
8.72843e-08
8.72756e-08
8.72831e-08
8.71795e-08
8.71752e-08
8.7179e-08
8.71766e-08
8.73046e-08
8.72803e-08
8.72828e-08
8.7173e-08
8.70205e-08
8.7021e-08
8.7021e-08
8.70205e-08
8.71955e-08
8.71946e-08
8.71793e-08
8.70205e-08
8.70235e-08
8.70223e-08
8.70223e-08
8.70235e-08
8.70206e-08
8.72334e-08
8.7306e-08
8.72842e-08
8.71751e-08
8.70209e-08
8.70223e-08
8.70216e-08
8.70216e-08
8.70223e-08
8.7021e-08
8.72329e-08
8.73039e-08
8.72755e-08
8.71789e-08
8.70209e-08
8.70223e-08
8.70216e-08
8.70216e-08
8.70223e-08
8.7021e-08
8.72307e-08
8.71976e-08
8.71767e-08
8.70205e-08
8.70234e-08
8.70223e-08
8.70223e-08
8.70235e-08
8.70206e-08
8.72324e-08
8.73078e-08
8.73047e-08
8.71955e-08
8.70205e-08
8.70209e-08
8.70209e-08
8.70205e-08
8.72188e-08
8.72132e-08
8.7308e-08
8.72804e-08
8.71934e-08
8.72331e-08
8.72327e-08
8.72306e-08
8.72322e-08
8.72128e-08
8.73151e-08
8.73057e-08
8.73037e-08
8.71974e-08
8.73076e-08
8.73078e-08
8.61403e-08
8.61316e-08
8.61391e-08
8.60354e-08
8.60312e-08
8.60349e-08
8.60327e-08
8.61607e-08
8.61364e-08
8.61388e-08
8.60289e-08
8.58765e-08
8.58769e-08
8.58769e-08
8.58765e-08
8.60515e-08
8.60494e-08
8.60352e-08
8.58764e-08
8.58794e-08
8.58782e-08
8.58782e-08
8.58794e-08
8.58765e-08
8.60891e-08
8.61618e-08
8.61401e-08
8.6031e-08
8.58768e-08
8.58782e-08
8.58775e-08
8.58776e-08
8.58782e-08
8.58769e-08
8.60887e-08
8.61598e-08
8.61315e-08
8.60349e-08
8.58768e-08
8.58782e-08
8.58775e-08
8.58775e-08
8.58782e-08
8.58769e-08
8.60866e-08
8.60535e-08
8.60326e-08
8.58764e-08
8.58794e-08
8.58782e-08
8.58782e-08
8.58794e-08
8.58765e-08
8.60883e-08
8.61637e-08
8.61607e-08
8.60515e-08
8.58764e-08
8.58768e-08
8.58768e-08
8.58764e-08
8.60747e-08
8.60692e-08
8.61639e-08
8.61363e-08
8.60493e-08
8.6089e-08
8.60886e-08
8.60865e-08
8.60881e-08
8.60687e-08
8.6171e-08
8.61616e-08
8.61596e-08
8.60533e-08
8.61635e-08
8.61637e-08
8.49962e-08
8.49874e-08
8.4995e-08
8.48913e-08
8.4887e-08
8.48908e-08
8.48885e-08
8.50164e-08
8.49921e-08
8.49947e-08
8.48848e-08
8.47324e-08
8.47328e-08
8.47328e-08
8.47324e-08
8.49073e-08
8.49065e-08
8.48911e-08
8.47323e-08
8.47353e-08
8.47341e-08
8.47342e-08
8.47353e-08
8.47324e-08
8.49452e-08
8.50178e-08
8.49961e-08
8.4887e-08
8.47328e-08
8.47341e-08
8.47335e-08
8.47335e-08
8.47342e-08
8.47328e-08
8.49447e-08
8.50157e-08
8.49874e-08
8.48908e-08
8.47328e-08
8.47341e-08
8.47335e-08
8.47335e-08
8.47342e-08
8.47328e-08
8.49426e-08
8.49094e-08
8.48885e-08
8.47324e-08
8.47353e-08
8.47341e-08
8.47341e-08
8.47353e-08
8.47324e-08
8.49443e-08
8.50197e-08
8.50166e-08
8.49074e-08
8.47323e-08
8.47327e-08
8.47327e-08
8.47323e-08
8.49307e-08
8.49251e-08
8.50198e-08
8.49922e-08
8.49053e-08
8.49449e-08
8.49445e-08
8.49424e-08
8.49441e-08
8.49246e-08
8.50269e-08
8.50176e-08
8.50155e-08
8.49092e-08
8.50195e-08
8.50196e-08
8.38521e-08
8.38433e-08
8.38509e-08
8.37472e-08
8.3743e-08
8.37467e-08
8.37444e-08
8.38723e-08
8.3848e-08
8.38506e-08
8.37407e-08
8.35883e-08
8.35887e-08
8.35887e-08
8.35883e-08
8.37632e-08
8.37624e-08
8.37471e-08
8.35882e-08
8.35912e-08
8.35901e-08
8.35901e-08
8.35913e-08
8.35883e-08
8.38011e-08
8.38738e-08
8.3852e-08
8.37429e-08
8.35887e-08
8.359e-08
8.35894e-08
8.35894e-08
8.35901e-08
8.35887e-08
8.38006e-08
8.38717e-08
8.38433e-08
8.37467e-08
8.35887e-08
8.359e-08
8.35894e-08
8.35894e-08
8.35901e-08
8.35887e-08
8.37985e-08
8.37654e-08
8.37444e-08
8.35883e-08
8.35912e-08
8.359e-08
8.359e-08
8.35912e-08
8.35883e-08
8.38002e-08
8.38756e-08
8.38725e-08
8.37633e-08
8.35882e-08
8.35886e-08
8.35886e-08
8.35882e-08
8.37866e-08
8.3781e-08
8.38758e-08
8.38482e-08
8.37612e-08
8.38008e-08
8.38004e-08
8.37983e-08
8.38e-08
8.37805e-08
8.38829e-08
8.38735e-08
8.38715e-08
8.37652e-08
8.38754e-08
8.38755e-08
8.2708e-08
8.26992e-08
8.27068e-08
8.26031e-08
8.25988e-08
8.26026e-08
8.26003e-08
8.27282e-08
8.27039e-08
8.27065e-08
8.25966e-08
8.24442e-08
8.24446e-08
8.24446e-08
8.24442e-08
8.26191e-08
8.26183e-08
8.2603e-08
8.24442e-08
8.24471e-08
8.2446e-08
8.2446e-08
8.24472e-08
8.24442e-08
8.2657e-08
8.27297e-08
8.27079e-08
8.25988e-08
8.24446e-08
8.2446e-08
8.24453e-08
8.24453e-08
8.2446e-08
8.24447e-08
8.26565e-08
8.27276e-08
8.26992e-08
8.26026e-08
8.24446e-08
8.2446e-08
8.24453e-08
8.24453e-08
8.2446e-08
8.24447e-08
8.26544e-08
8.26213e-08
8.26004e-08
8.24442e-08
8.24471e-08
8.24459e-08
8.2446e-08
8.24471e-08
8.24442e-08
8.26561e-08
8.27315e-08
8.27284e-08
8.26192e-08
8.24441e-08
8.24446e-08
8.24446e-08
8.24442e-08
8.26425e-08
8.26369e-08
8.27317e-08
8.27041e-08
8.26171e-08
8.26567e-08
8.26564e-08
8.26543e-08
8.26559e-08
8.26364e-08
8.27388e-08
8.27294e-08
8.27274e-08
8.26211e-08
8.27313e-08
8.27314e-08
8.15638e-08
8.15551e-08
8.15624e-08
8.14589e-08
8.14547e-08
8.14585e-08
8.14562e-08
8.15841e-08
8.15598e-08
8.15627e-08
8.14526e-08
8.13001e-08
8.13005e-08
8.13005e-08
8.13001e-08
8.1475e-08
8.14742e-08
8.14591e-08
8.13001e-08
8.13031e-08
8.13019e-08
8.13019e-08
8.13031e-08
8.13001e-08
8.1513e-08
8.15856e-08
8.15639e-08
8.14548e-08
8.13005e-08
8.13019e-08
8.13012e-08
8.13012e-08
8.13019e-08
8.13006e-08
8.15124e-08
8.15835e-08
8.15552e-08
8.14586e-08
8.13005e-08
8.13019e-08
8.13012e-08
8.13012e-08
8.13019e-08
8.13006e-08
8.15103e-08
8.14772e-08
8.14563e-08
8.13001e-08
8.1303e-08
8.13019e-08
8.13019e-08
8.13031e-08
8.13001e-08
8.1512e-08
8.15874e-08
8.15843e-08
8.14751e-08
8.13001e-08
8.13005e-08
8.13005e-08
8.13001e-08
8.14984e-08
8.14928e-08
8.15876e-08
8.156e-08
8.1473e-08
8.15127e-08
8.15123e-08
8.15102e-08
8.15118e-08
8.14924e-08
8.15947e-08
8.15853e-08
8.15833e-08
8.1477e-08
8.15872e-08
8.15874e-08
8.04198e-08
8.0411e-08
8.04186e-08
8.0315e-08
8.03107e-08
8.03144e-08
8.03121e-08
8.044e-08
8.04157e-08
8.04183e-08
8.03084e-08
8.0156e-08
8.01564e-08
8.01564e-08
8.0156e-08
8.03309e-08
8.03301e-08
8.03148e-08
8.0156e-08
8.0159e-08
8.01578e-08
8.01578e-08
8.0159e-08
8.01561e-08
8.03689e-08
8.04415e-08
8.04197e-08
8.03106e-08
8.01564e-08
8.01578e-08
8.01571e-08
8.01571e-08
8.01578e-08
8.01565e-08
8.03683e-08
8.04394e-08
8.0411e-08
8.03144e-08
8.01564e-08
8.01578e-08
8.01571e-08
8.01571e-08
8.01578e-08
8.01565e-08
8.03662e-08
8.03331e-08
8.03121e-08
8.0156e-08
8.0159e-08
8.01578e-08
8.01578e-08
8.0159e-08
8.01561e-08
8.03679e-08
8.04433e-08
8.044e-08
8.03309e-08
8.0156e-08
8.01565e-08
8.01564e-08
8.0156e-08
8.03543e-08
8.03488e-08
8.04435e-08
8.04157e-08
8.03301e-08
8.03688e-08
8.03683e-08
8.03662e-08
8.03678e-08
8.03483e-08
8.04506e-08
8.04414e-08
8.04393e-08
8.0333e-08
8.04432e-08
8.04433e-08
7.92757e-08
7.9267e-08
7.92745e-08
7.91709e-08
7.91666e-08
7.91704e-08
7.9168e-08
7.9296e-08
7.92717e-08
7.92742e-08
7.91644e-08
7.9012e-08
7.90124e-08
7.90124e-08
7.90119e-08
7.91869e-08
7.9186e-08
7.91707e-08
7.90119e-08
7.90149e-08
7.90137e-08
7.90137e-08
7.90149e-08
7.9012e-08
7.92247e-08
7.92974e-08
7.92756e-08
7.91665e-08
7.90123e-08
7.90137e-08
7.9013e-08
7.9013e-08
7.90137e-08
7.90124e-08
7.92242e-08
7.92953e-08
7.92669e-08
7.91703e-08
7.90123e-08
7.90137e-08
7.9013e-08
7.9013e-08
7.90137e-08
7.90124e-08
7.92221e-08
7.91889e-08
7.9168e-08
7.90119e-08
7.90149e-08
7.90137e-08
7.90137e-08
7.90149e-08
7.90119e-08
7.92237e-08
7.92991e-08
7.92959e-08
7.91868e-08
7.9012e-08
7.90124e-08
7.90124e-08
7.9012e-08
7.92103e-08
7.92042e-08
7.92992e-08
7.92716e-08
7.9186e-08
7.92248e-08
7.92242e-08
7.92221e-08
7.92238e-08
7.92047e-08
7.93065e-08
7.92974e-08
7.92953e-08
7.9189e-08
7.92992e-08
7.92994e-08
7.81317e-08
7.8123e-08
7.81305e-08
7.80269e-08
7.80226e-08
7.80264e-08
7.80241e-08
7.81521e-08
7.81278e-08
7.81302e-08
7.80203e-08
7.78679e-08
7.78683e-08
7.78683e-08
7.78679e-08
7.80429e-08
7.80408e-08
7.80267e-08
7.78678e-08
7.78708e-08
7.78697e-08
7.78697e-08
7.78708e-08
7.78678e-08
7.80804e-08
7.81531e-08
7.81316e-08
7.80225e-08
7.78683e-08
7.78696e-08
7.7869e-08
7.7869e-08
7.78696e-08
7.78683e-08
7.80801e-08
7.81511e-08
7.81229e-08
7.80263e-08
7.78683e-08
7.78696e-08
7.7869e-08
7.7869e-08
7.78696e-08
7.78683e-08
7.80779e-08
7.80448e-08
7.8024e-08
7.78679e-08
7.78708e-08
7.78696e-08
7.78696e-08
7.78708e-08
7.78678e-08
7.80796e-08
7.8155e-08
7.81521e-08
7.80429e-08
7.78678e-08
7.78683e-08
7.78683e-08
7.78679e-08
7.80662e-08
7.80601e-08
7.81551e-08
7.81278e-08
7.80408e-08
7.80804e-08
7.80801e-08
7.8078e-08
7.80797e-08
7.80606e-08
7.81624e-08
7.81531e-08
7.81511e-08
7.80448e-08
7.81551e-08
7.81553e-08
7.69876e-08
7.69789e-08
7.69864e-08
7.68828e-08
7.68785e-08
7.68823e-08
7.688e-08
7.70081e-08
7.69837e-08
7.69861e-08
7.68763e-08
7.67238e-08
7.67242e-08
7.67242e-08
7.67238e-08
7.68989e-08
7.68968e-08
7.68826e-08
7.67238e-08
7.67268e-08
7.67256e-08
7.67256e-08
7.67268e-08
7.67238e-08
7.69364e-08
7.70091e-08
7.69875e-08
7.68784e-08
7.67242e-08
7.67256e-08
7.67249e-08
7.67249e-08
7.67256e-08
7.67242e-08
7.6936e-08
7.7007e-08
7.69788e-08
7.68822e-08
7.67242e-08
7.67256e-08
7.67249e-08
7.67249e-08
7.67256e-08
7.67242e-08
7.69339e-08
7.69008e-08
7.688e-08
7.67238e-08
7.67267e-08
7.67255e-08
7.67255e-08
7.67267e-08
7.67238e-08
7.69356e-08
7.7011e-08
7.7008e-08
7.68988e-08
7.67237e-08
7.67242e-08
7.67242e-08
7.67237e-08
7.69221e-08
7.69165e-08
7.70112e-08
7.69837e-08
7.68967e-08
7.69363e-08
7.6936e-08
7.69339e-08
7.69355e-08
7.6916e-08
7.70184e-08
7.7009e-08
7.7007e-08
7.69007e-08
7.70109e-08
7.7011e-08
7.58435e-08
7.58348e-08
7.58423e-08
7.57387e-08
7.57344e-08
7.57381e-08
7.57358e-08
7.58637e-08
7.58394e-08
7.5842e-08
7.57322e-08
7.55797e-08
7.55801e-08
7.55801e-08
7.55797e-08
7.57546e-08
7.57538e-08
7.57385e-08
7.55797e-08
7.55827e-08
7.55815e-08
7.55815e-08
7.55827e-08
7.55797e-08
7.57925e-08
7.58651e-08
7.58434e-08
7.57343e-08
7.55801e-08
7.55815e-08
7.55808e-08
7.55808e-08
7.55815e-08
7.55802e-08
7.5792e-08
7.58631e-08
7.58347e-08
7.57381e-08
7.55801e-08
7.55815e-08
7.55808e-08
7.55808e-08
7.55815e-08
7.55801e-08
7.57899e-08
7.57567e-08
7.57359e-08
7.55797e-08
7.55827e-08
7.55815e-08
7.55815e-08
7.55827e-08
7.55797e-08
7.57916e-08
7.5867e-08
7.58639e-08
7.57547e-08
7.55797e-08
7.55801e-08
7.55801e-08
7.55797e-08
7.5778e-08
7.57724e-08
7.58672e-08
7.58396e-08
7.57527e-08
7.57923e-08
7.57919e-08
7.57898e-08
7.57914e-08
7.5772e-08
7.58743e-08
7.58649e-08
7.58629e-08
7.57566e-08
7.58668e-08
7.5867e-08
7.46993e-08
7.46906e-08
7.46979e-08
7.45944e-08
7.45902e-08
7.4594e-08
7.45917e-08
7.47196e-08
7.46953e-08
7.46982e-08
7.45881e-08
7.44356e-08
7.4436e-08
7.4436e-08
7.44356e-08
7.46105e-08
7.46097e-08
7.45946e-08
7.44356e-08
7.44386e-08
7.44374e-08
7.44374e-08
7.44386e-08
7.44356e-08
7.46484e-08
7.4721e-08
7.46994e-08
7.45903e-08
7.44361e-08
7.44374e-08
7.44367e-08
7.44367e-08
7.44374e-08
7.44361e-08
7.46479e-08
7.4719e-08
7.46907e-08
7.4594e-08
7.4436e-08
7.44374e-08
7.44367e-08
7.44367e-08
7.44374e-08
7.4436e-08
7.46458e-08
7.46126e-08
7.45917e-08
7.44356e-08
7.44386e-08
7.44374e-08
7.44374e-08
7.44386e-08
7.44356e-08
7.46474e-08
7.47228e-08
7.47196e-08
7.46105e-08
7.44357e-08
7.44361e-08
7.44361e-08
7.44357e-08
7.46339e-08
7.46279e-08
7.47229e-08
7.46954e-08
7.46097e-08
7.46485e-08
7.46479e-08
7.46458e-08
7.46475e-08
7.46284e-08
7.47302e-08
7.47211e-08
7.4719e-08
7.46127e-08
7.47229e-08
7.47231e-08
7.35552e-08
7.35465e-08
7.35538e-08
7.34503e-08
7.34461e-08
7.34499e-08
7.34476e-08
7.35755e-08
7.35513e-08
7.35541e-08
7.3444e-08
7.32915e-08
7.32919e-08
7.32919e-08
7.32915e-08
7.34664e-08
7.34656e-08
7.34505e-08
7.32915e-08
7.32945e-08
7.32933e-08
7.32933e-08
7.32945e-08
7.32916e-08
7.35043e-08
7.3577e-08
7.35553e-08
7.34462e-08
7.3292e-08
7.32933e-08
7.32926e-08
7.32926e-08
7.32933e-08
7.3292e-08
7.35038e-08
7.35749e-08
7.35466e-08
7.345e-08
7.3292e-08
7.32933e-08
7.32927e-08
7.32927e-08
7.32933e-08
7.3292e-08
7.35017e-08
7.34685e-08
7.34476e-08
7.32915e-08
7.32945e-08
7.32933e-08
7.32933e-08
7.32945e-08
7.32915e-08
7.35033e-08
7.35787e-08
7.35756e-08
7.34665e-08
7.32916e-08
7.3292e-08
7.3292e-08
7.32916e-08
7.34899e-08
7.34838e-08
7.35788e-08
7.35513e-08
7.34656e-08
7.35044e-08
7.35039e-08
7.35017e-08
7.35034e-08
7.34843e-08
7.35862e-08
7.3577e-08
7.35749e-08
7.34686e-08
7.35788e-08
7.3579e-08
7.24113e-08
7.24025e-08
7.24101e-08
7.23064e-08
7.23021e-08
7.23059e-08
7.23037e-08
7.24317e-08
7.24074e-08
7.24098e-08
7.22999e-08
7.21475e-08
7.21479e-08
7.21479e-08
7.21475e-08
7.23225e-08
7.23204e-08
7.23063e-08
7.21474e-08
7.21504e-08
7.21493e-08
7.21493e-08
7.21504e-08
7.21475e-08
7.23601e-08
7.24327e-08
7.24112e-08
7.23021e-08
7.21479e-08
7.21492e-08
7.21486e-08
7.21486e-08
7.21492e-08
7.21479e-08
7.23597e-08
7.24308e-08
7.24025e-08
7.23059e-08
7.21479e-08
7.21492e-08
7.21486e-08
7.21486e-08
7.21492e-08
7.21479e-08
7.23576e-08
7.23245e-08
7.23036e-08
7.21475e-08
7.21504e-08
7.21492e-08
7.21492e-08
7.21504e-08
7.21475e-08
7.23593e-08
7.24347e-08
7.24317e-08
7.23225e-08
7.21474e-08
7.21478e-08
7.21478e-08
7.21474e-08
7.23458e-08
7.23402e-08
7.24349e-08
7.24074e-08
7.23204e-08
7.236e-08
7.23596e-08
7.23575e-08