/*--------------------------------*- C++ -*----------------------------------*\
| =========                 |                                                 |
| \\      /  F ield         | OpenFOAM: The Open Source CFD Toolbox           |
|  \\    /   O peration     | Version:  2312                                  |
|   \\  /    A nd           | Website:  www.openfoam.com                      |
|    \\/     M anipulation  |                                                 |
\*---------------------------------------------------------------------------*/
FoamFile
{
    version     2.0;
    format      ascii;
    arch        "LSB;label=32;scalar=64";
    class       volScalarField;
    location    "500";
    object      k;
}
// * * * * * * * * * * * * * * * * * * * * * * * * * * * * * * * * * * * * * //

dimensions      [0 2 -2 0 0 0 0];

internalField   nonuniform List<scalar> 
43008
(
1.57102e-05
1.61155e-05
1.52905e-05
1.60666e-05
1.60666e-05
1.76038e-05
1.72617e-05
1.75186e-05
1.6115e-05
1.61153e-05
1.60676e-05
1.60681e-05
1.75181e-05
1.61155e-05
1.61151e-05
1.60681e-05
1.60679e-05
1.60682e-05
1.60675e-05
1.72601e-05
1.75184e-05
1.61156e-05
1.60682e-05
1.60683e-05
1.75309e-05
1.76132e-05
1.60662e-05
1.60667e-05
1.76139e-05
1.60666e-05
1.60665e-05
1.60661e-05
1.76132e-05
1.60669e-05
5.00985e-05
6.9906e-05
4.93383e-05
6.9939e-05
6.97737e-05
5.01008e-05
6.99067e-05
4.93384e-05
6.99402e-05
1.57101e-05
1.571e-05
1.57099e-05
1.53908e-05
1.53908e-05
1.53907e-05
1.53905e-05
2.60137e-05
1.60928e-05
4.29367e-05
1.53536e-05
6.97975e-05
6.97738e-05
2.60199e-05
1.54381e-05
4.2449e-05
1.60929e-05
2.5489e-05
1.53539e-05
4.29387e-05
1.73457e-05
5.77588e-05
5.77677e-05
5.19471e-05
6.99767e-05
5.12829e-05
7.00078e-05
6.97129e-05
6.9691e-05
5.19496e-05
6.99777e-05
5.12832e-05
7.00092e-05
1.52905e-05
1.52904e-05
1.52902e-05
2.7665e-05
4.38804e-05
1.51274e-05
1.6069e-05
2.71055e-05
4.43278e-05
1.50599e-05
6.9713e-05
6.96912e-05
2.76655e-05
1.51278e-05
4.38813e-05
1.6069e-05
2.71066e-05
1.50603e-05
4.43297e-05
5.83102e-05
5.83193e-05
1.77457e-05
5.85671e-05
5.85759e-05
6.97961e-05
6.9772e-05
6.97976e-05
6.97741e-05
5.74667e-05
5.74782e-05
1.73376e-05
5.77598e-05
5.77724e-05
6.97296e-05
6.97527e-05
6.97319e-05
6.97546e-05
1.74217e-05
5.81778e-05
5.81901e-05
5.79033e-05
5.79148e-05
5.00984e-05
6.99021e-05
4.93378e-05
6.99352e-05
2.60128e-05
4.24481e-05
1.54378e-05
1.60923e-05
2.54938e-05
4.29388e-05
1.53536e-05
2.60143e-05
4.24525e-05
1.54378e-05
1.60927e-05
2.54939e-05
4.29404e-05
1.53536e-05
5.03446e-05
6.99741e-05
6.99422e-05
5.10574e-05
5.03438e-05
6.99702e-05
6.99383e-05
5.1057e-05
2.62917e-05
1.60791e-05
4.36482e-05
1.51984e-05
4.31771e-05
1.52743e-05
2.68253e-05
2.62907e-05
1.60795e-05
4.36512e-05
1.51985e-05
4.31822e-05
1.52743e-05
2.6827e-05
1.73392e-05
5.77676e-05
5.77617e-05
6.97722e-05
6.97317e-05
6.97544e-05
1.74211e-05
5.81851e-05
5.8179e-05
5.79109e-05
5.79048e-05
6.97301e-05
6.97527e-05
2.60127e-05
4.24514e-05
1.54377e-05
1.60929e-05
2.54933e-05
4.29435e-05
1.53535e-05
5.00999e-05
6.99023e-05
4.93383e-05
6.99357e-05
2.60141e-05
1.54373e-05
4.24532e-05
1.60925e-05
2.5492e-05
1.53532e-05
4.29424e-05
5.03447e-05
6.99753e-05
6.99429e-05
5.10596e-05
2.62913e-05
1.60796e-05
4.36558e-05
1.51983e-05
4.31815e-05
1.52742e-05
2.68259e-05
5.03445e-05
6.99706e-05
6.99384e-05
5.10587e-05
2.62901e-05
1.60792e-05
1.5198e-05
4.36539e-05
1.52738e-05
4.31817e-05
2.68257e-05
5.0084e-05
6.99379e-05
2.60118e-05
1.60921e-05
1.53534e-05
4.29385e-05
5.00933e-05
6.99345e-05
2.62864e-05
1.60795e-05
4.36507e-05
1.51984e-05
4.31778e-05
1.52742e-05
2.68281e-05
5.03532e-05
6.99728e-05
6.99407e-05
5.10446e-05
2.62904e-05
1.60789e-05
1.51982e-05
4.36507e-05
1.52741e-05
4.31766e-05
2.68249e-05
5.03478e-05
6.99695e-05
6.99375e-05
5.10528e-05
5.74739e-05
5.74687e-05
1.73405e-05
5.77681e-05
5.77621e-05
6.97966e-05
6.97728e-05
6.97318e-05
6.97545e-05
1.74205e-05
5.81856e-05
5.81803e-05
5.79106e-05
5.79061e-05
6.97309e-05
6.97537e-05
2.60141e-05
1.54379e-05
4.24538e-05
1.60929e-05
2.5495e-05
1.53538e-05
4.29426e-05
5.00926e-05
6.99057e-05
4.93455e-05
6.99391e-05
5.00918e-05
6.99022e-05
4.93449e-05
6.99356e-05
2.62864e-05
1.60795e-05
1.51987e-05
4.36513e-05
1.52746e-05
4.31789e-05
2.68333e-05
2.62924e-05
1.60797e-05
1.51987e-05
4.36538e-05
1.52745e-05
4.31828e-05
2.68277e-05
5.0352e-05
6.99741e-05
6.99419e-05
5.10514e-05
5.03512e-05
6.99707e-05
6.99385e-05
5.10504e-05
6.97721e-05
6.97734e-05
1.74098e-05
5.8176e-05
5.81852e-05
5.79013e-05
5.7911e-05
6.973e-05
6.97527e-05
6.97314e-05
6.97541e-05
6.97109e-05
6.96889e-05
6.97131e-05
6.96913e-05
5.83123e-05
5.83237e-05
1.77269e-05
5.85688e-05
5.85815e-05
5.19468e-05
6.99731e-05
5.12821e-05
7.00043e-05
2.76598e-05
4.38832e-05
1.51275e-05
1.60685e-05
2.71116e-05
4.43305e-05
1.506e-05
2.76605e-05
4.38861e-05
1.51276e-05
1.60692e-05
2.711e-05
4.43364e-05
1.50601e-05
5.83193e-05
5.83136e-05
1.77277e-05
5.85753e-05
5.85704e-05
6.97111e-05
6.96895e-05
2.7665e-05
4.38854e-05
1.51274e-05
1.60689e-05
2.71112e-05
4.43376e-05
1.50599e-05
5.19481e-05
6.99732e-05
5.1283e-05
7.00046e-05
2.76627e-05
1.51271e-05
4.38856e-05
1.60689e-05
2.71114e-05
1.50596e-05
4.43341e-05
5.19359e-05
6.99754e-05
5.12909e-05
7.00067e-05
2.76562e-05
1.51274e-05
4.38805e-05
1.60686e-05
2.71107e-05
1.50598e-05
4.43292e-05
5.19429e-05
6.99721e-05
5.12861e-05
7.00034e-05
5.83196e-05
5.83148e-05
1.77292e-05
5.85772e-05
5.85719e-05
6.97122e-05
6.96904e-05
2.76577e-05
1.51278e-05
4.38858e-05
1.60694e-05
2.71126e-05
1.50603e-05
4.43445e-05
5.19409e-05
6.99767e-05
5.12907e-05
7.0008e-05
5.19398e-05
6.99733e-05
5.12898e-05
7.00048e-05
6.97112e-05
6.96893e-05
6.97126e-05
6.96908e-05
6.97453e-05
4.985e-05
6.90333e-05
5.70703e-05
6.90255e-05
5.68514e-05
6.97564e-05
7.11551e-05
7.30019e-05
6.99213e-05
7.11513e-05
7.31104e-05
6.97446e-05
4.95932e-05
6.9019e-05
5.64681e-05
6.97341e-05
6.90253e-05
5.66931e-05
7.11315e-05
7.3258e-05
6.99241e-05
7.31543e-05
7.11352e-05
6.97953e-05
6.97758e-05
6.97454e-05
4.98501e-05
5.70704e-05
6.90338e-05
5.68499e-05
6.90261e-05
6.97566e-05
7.11551e-05
7.29971e-05
6.99223e-05
7.11511e-05
7.31094e-05
6.97447e-05
4.95954e-05
5.64666e-05
6.90195e-05
6.97341e-05
5.66934e-05
6.90258e-05
7.11315e-05
7.32581e-05
6.9925e-05
7.3151e-05
7.11353e-05
6.97954e-05
6.97759e-05
8.65074e-05
7.26171e-05
7.26107e-05
7.26163e-05
7.261e-05
8.66091e-05
5.44839e-05
5.75392e-05
3.58129e-05
6.84897e-05
5.45505e-05
5.7548e-05
3.58298e-05
6.85007e-05
8.64625e-05
7.26398e-05
7.26334e-05
5.47207e-05
6.85379e-05
5.76864e-05
3.62429e-05
3.61037e-05
6.85041e-05
5.48359e-05
5.47878e-05
6.85491e-05
5.76965e-05
3.62618e-05
3.61231e-05
6.85152e-05
5.49022e-05
6.97969e-05
5.17267e-05
6.90963e-05
5.84323e-05
6.90786e-05
5.82359e-05
6.98093e-05
7.10751e-05
7.35722e-05
6.9991e-05
7.10717e-05
7.36622e-05
6.97956e-05
5.15109e-05
6.9062e-05
5.79114e-05
6.97834e-05
6.90764e-05
5.81131e-05
7.10516e-05
7.3783e-05
6.99934e-05
7.36939e-05
7.10549e-05
6.97113e-05
6.96927e-05
6.97972e-05
5.17266e-05
5.84324e-05
6.90969e-05
5.82348e-05
6.90794e-05
6.98096e-05
7.10753e-05
7.35673e-05
6.99923e-05
7.10719e-05
7.36598e-05
6.97959e-05
5.15132e-05
5.79102e-05
6.90628e-05
6.97837e-05
5.81131e-05
6.90769e-05
7.10519e-05
7.37811e-05
6.99946e-05
7.36924e-05
7.10552e-05
6.97113e-05
6.96928e-05
8.70521e-05
7.25265e-05
7.25202e-05
7.25259e-05
7.25196e-05
8.71367e-05
5.58413e-05
3.73688e-05
6.86423e-05
5.83745e-05
5.5733e-05
3.75037e-05
6.86734e-05
5.59059e-05
3.73881e-05
6.86536e-05
5.83839e-05
5.58e-05
3.75238e-05
6.86847e-05
8.7012e-05
7.25484e-05
7.25421e-05
8.69243e-05
7.2549e-05
7.25427e-05
5.60489e-05
6.87155e-05
5.85047e-05
3.79126e-05
3.77811e-05
6.86852e-05
5.61599e-05
5.61175e-05
6.87269e-05
5.85137e-05
3.79321e-05
3.7799e-05
6.86967e-05
5.62195e-05
6.97938e-05
6.97742e-05
6.97956e-05
6.97761e-05
8.65115e-05
7.26183e-05
7.26119e-05
7.26174e-05
7.2611e-05
8.66136e-05
5.44805e-05
3.56727e-05
6.84547e-05
5.75403e-05
5.43633e-05
6.84908e-05
3.5809e-05
5.45501e-05
3.56911e-05
6.84668e-05
5.75527e-05
5.44286e-05
6.85027e-05
3.58273e-05
8.64671e-05
7.26401e-05
7.26337e-05
8.63616e-05
7.26411e-05
7.26347e-05
5.47216e-05
6.85389e-05
5.76884e-05
3.62392e-05
6.85042e-05
5.48356e-05
3.61037e-05
5.47866e-05
6.85509e-05
5.77003e-05
3.62575e-05
6.85164e-05
5.49028e-05
3.61222e-05
6.97316e-05
6.97506e-05
6.97337e-05
6.97528e-05
8.6754e-05
7.25947e-05
7.25883e-05
8.6656e-05
7.25955e-05
7.25891e-05
5.54048e-05
3.70857e-05
5.81108e-05
6.86307e-05
6.85977e-05
3.69519e-05
5.55145e-05
5.54723e-05
3.71044e-05
5.81227e-05
6.86428e-05
6.86105e-05
3.69706e-05
5.55804e-05
5.51799e-05
6.85515e-05
3.65303e-05
5.79725e-05
5.50679e-05
6.85855e-05
3.66654e-05
5.52475e-05
6.85642e-05
3.65488e-05
5.79844e-05
5.51348e-05
6.85973e-05
3.66842e-05
8.67944e-05
7.25727e-05
7.25664e-05
7.2572e-05
7.25656e-05
8.68884e-05
6.9744e-05
4.98492e-05
6.90326e-05
5.70674e-05
6.90248e-05
5.68462e-05
6.97551e-05
7.11533e-05
7.29807e-05
6.99173e-05
7.11496e-05
7.30901e-05
6.97432e-05
4.95931e-05
6.90183e-05
5.64627e-05
6.90245e-05
6.97328e-05
5.66905e-05
7.11298e-05
7.32371e-05
6.99203e-05
7.31334e-05
7.11335e-05
6.97691e-05
6.90347e-05
5.72194e-05
5.05865e-05
6.97574e-05
6.90448e-05
5.74324e-05
7.10917e-05
6.99591e-05
7.35342e-05
7.10953e-05
7.34371e-05
7.11153e-05
7.33011e-05
6.99566e-05
7.11116e-05
7.34005e-05
6.97702e-05
5.08224e-05
6.90592e-05
5.77797e-05
6.97822e-05
6.90471e-05
5.75727e-05
6.97678e-05
6.90341e-05
5.72141e-05
5.05863e-05
6.97561e-05
6.90441e-05
5.74293e-05
7.10902e-05
6.99555e-05
7.35121e-05
7.34176e-05
7.10937e-05
7.11136e-05
7.3279e-05
6.99529e-05
7.111e-05
7.33785e-05
6.9769e-05
5.08214e-05
6.90585e-05
5.77763e-05
6.90466e-05
5.75673e-05
6.97809e-05
8.65159e-05
7.26127e-05
7.2618e-05
7.26119e-05
7.26172e-05
8.66118e-05
5.45463e-05
5.75483e-05
6.84993e-05
3.58344e-05
5.44759e-05
5.75419e-05
3.58093e-05
6.84891e-05
8.64637e-05
7.26353e-05
7.26406e-05
5.4792e-05
6.85477e-05
5.76961e-05
3.62631e-05
6.85173e-05
3.61197e-05
5.49019e-05
5.47232e-05
6.85375e-05
5.76901e-05
3.62394e-05
3.61027e-05
6.85072e-05
5.48328e-05
6.97938e-05
6.97739e-05
6.97335e-05
6.97525e-05
8.6751e-05
7.25893e-05
7.25945e-05
8.66606e-05
7.25901e-05
7.25953e-05
5.54762e-05
3.71072e-05
5.81187e-05
6.864e-05
3.69696e-05
6.86113e-05
5.55809e-05
5.54069e-05
3.70849e-05
5.81127e-05
6.86295e-05
6.86009e-05
3.69521e-05
5.55118e-05
5.52456e-05
6.85649e-05
3.65473e-05
5.79796e-05
3.6687e-05
5.51389e-05
6.85948e-05
5.51762e-05
6.85545e-05
3.65296e-05
5.79736e-05
5.50699e-05
6.85844e-05
3.66641e-05
8.67994e-05
7.25674e-05
7.25725e-05
7.25667e-05
7.25718e-05
8.68863e-05
6.97317e-05
6.97509e-05
6.97442e-05
4.98498e-05
6.90333e-05
5.70658e-05
6.90254e-05
5.68468e-05
6.97554e-05
7.11525e-05
7.29768e-05
6.99178e-05
7.11486e-05
7.30872e-05
6.97435e-05
4.95946e-05
6.90188e-05
5.64633e-05
6.90251e-05
6.9733e-05
5.66888e-05
7.11289e-05
7.32354e-05
6.99204e-05
7.31274e-05
7.11327e-05
6.97692e-05
5.72181e-05
6.90353e-05
5.05888e-05
6.97576e-05
5.74325e-05
6.90453e-05
7.10918e-05
6.99602e-05
7.3533e-05
7.10954e-05
7.34351e-05
7.11153e-05
7.32964e-05
6.99577e-05
7.11116e-05
7.33981e-05
6.97704e-05
5.08226e-05
5.77798e-05
6.90597e-05
6.97824e-05
5.75715e-05
6.90477e-05
6.9768e-05
6.90347e-05
5.7215e-05
5.0588e-05
6.97564e-05
6.90448e-05
5.74275e-05
7.10892e-05
6.99556e-05
7.35103e-05
7.34116e-05
7.10929e-05
7.11128e-05
7.32747e-05
6.99533e-05
7.11091e-05
7.3376e-05
6.97692e-05
5.08224e-05
6.90593e-05
5.77747e-05
6.90471e-05
5.75684e-05
6.97812e-05
6.97435e-05
4.98589e-05
5.70494e-05
6.9032e-05
5.68605e-05
6.90244e-05
6.97544e-05
7.11288e-05
7.3248e-05
6.99225e-05
7.3145e-05
7.11333e-05
6.97432e-05
4.98531e-05
6.9032e-05
5.70635e-05
6.90242e-05
5.68475e-05
6.97544e-05
7.11287e-05
7.32343e-05
6.9919e-05
7.31256e-05
7.11326e-05
6.97671e-05
5.72278e-05
6.90337e-05
5.05729e-05
6.97556e-05
5.74124e-05
6.90435e-05
7.10891e-05
6.99579e-05
7.35234e-05
7.34293e-05
7.10934e-05
7.11133e-05
7.32899e-05
6.99554e-05
7.1109e-05
7.33884e-05
6.97685e-05
5.08306e-05
5.77609e-05
6.90579e-05
5.75803e-05
6.90463e-05
6.97803e-05
6.97671e-05
6.90336e-05
5.72156e-05
5.05817e-05
6.97554e-05
6.90435e-05
5.74256e-05
7.10891e-05
6.99545e-05
7.35087e-05
7.34101e-05
7.10927e-05
7.11127e-05
7.32741e-05
6.99522e-05
7.1109e-05
7.33746e-05
6.97683e-05
5.08255e-05
6.90579e-05
5.77732e-05
6.90462e-05
5.75686e-05
6.97803e-05
8.65099e-05
7.26122e-05
7.26179e-05
7.26114e-05
7.26171e-05
8.66102e-05
5.45523e-05
3.56925e-05
6.8466e-05
5.75486e-05
6.85009e-05
5.4429e-05
3.583e-05
5.44807e-05
3.56696e-05
6.84552e-05
5.75424e-05
3.58134e-05
5.43628e-05
6.84914e-05
8.64638e-05
7.2634e-05
7.26397e-05
7.26349e-05
8.63592e-05
7.26406e-05
5.47878e-05
6.8549e-05
5.76959e-05
3.62615e-05
6.85151e-05
3.61233e-05
5.4906e-05
5.4722e-05
6.85395e-05
5.76912e-05
3.62442e-05
3.61015e-05
6.85047e-05
5.48372e-05
6.97944e-05
6.9775e-05
6.97336e-05
6.97526e-05
8.67503e-05
7.25888e-05
7.25945e-05
8.66545e-05
7.25895e-05
7.25952e-05
5.54732e-05
3.71071e-05
5.81185e-05
6.86411e-05
3.69725e-05
6.8609e-05
5.55828e-05
5.54052e-05
3.70896e-05
5.81137e-05
6.86312e-05
6.85988e-05
3.6949e-05
5.55146e-05
5.52503e-05
6.85632e-05
3.65504e-05
5.79801e-05
3.6685e-05
5.51356e-05
6.85958e-05
5.51807e-05
6.85523e-05
3.65281e-05
5.79748e-05
5.50679e-05
6.85859e-05
3.66686e-05
8.67929e-05
7.25668e-05
7.25725e-05
7.25661e-05
7.25718e-05
8.68851e-05
6.97328e-05
6.97517e-05
6.97452e-05
4.98571e-05
5.70665e-05
6.90335e-05
5.68525e-05
6.90257e-05
6.97564e-05
7.11549e-05
7.29924e-05
6.99212e-05
7.3105e-05
7.11511e-05
6.97445e-05
4.95873e-05
5.64693e-05
6.90192e-05
5.66895e-05
6.9734e-05
6.90253e-05
7.11314e-05
7.32535e-05
6.99239e-05
7.31466e-05
7.11351e-05
6.9744e-05
4.98565e-05
5.70647e-05
6.90331e-05
5.68466e-05
6.90253e-05
6.97552e-05
7.11525e-05
7.29804e-05
6.99176e-05
7.11487e-05
7.30838e-05
6.97433e-05
4.95866e-05
5.64633e-05
6.90188e-05
6.97328e-05
5.66876e-05
6.9025e-05
7.11291e-05
7.32313e-05
6.99205e-05
7.31333e-05
7.11328e-05
6.9769e-05
5.72205e-05
6.90349e-05
5.05804e-05
6.97574e-05
5.74286e-05
6.9045e-05
7.10917e-05
6.99591e-05
7.35287e-05
7.34311e-05
7.10952e-05
7.11152e-05
7.32916e-05
6.99567e-05
7.11116e-05
7.3394e-05
6.97702e-05
5.083e-05
5.77762e-05
6.90594e-05
5.75735e-05
6.90475e-05
6.97822e-05
6.97678e-05
5.72146e-05
6.90346e-05
5.05796e-05
6.97562e-05
5.74268e-05
6.90446e-05
7.10895e-05
6.99558e-05
7.35077e-05
7.34183e-05
7.10929e-05
7.11129e-05
7.32797e-05
6.99532e-05
7.11094e-05
7.33735e-05
6.9769e-05
5.08291e-05
5.77742e-05
6.9059e-05
5.75678e-05
6.90471e-05
6.97809e-05
6.97937e-05
6.97741e-05
6.9795e-05
6.97754e-05
8.67494e-05
7.25936e-05
7.25873e-05
8.66516e-05
7.25944e-05
7.25881e-05
5.54066e-05
3.70888e-05
5.81092e-05
6.86297e-05
5.55152e-05
3.69512e-05
6.85978e-05
5.54726e-05
3.71074e-05
5.81184e-05
6.86411e-05
5.55818e-05
3.69704e-05
6.8609e-05
5.51812e-05
6.85516e-05
3.65306e-05
5.79706e-05
5.50694e-05
3.66688e-05
6.85843e-05
5.5249e-05
6.85627e-05
3.65496e-05
5.79799e-05
5.51368e-05
3.66873e-05
6.85956e-05
8.67903e-05
7.25717e-05
7.25654e-05
8.68832e-05
7.2571e-05
7.25647e-05
6.97318e-05
6.97509e-05
6.97332e-05
6.97522e-05
6.97091e-05
6.96907e-05
6.97114e-05
6.96929e-05
8.70562e-05
7.25274e-05
7.25212e-05
7.25267e-05
7.25205e-05
8.71415e-05
5.58381e-05
3.73686e-05
6.86424e-05
5.83765e-05
5.5731e-05
6.86743e-05
3.75002e-05
5.59066e-05
3.73871e-05
6.86551e-05
5.83885e-05
5.58e-05
6.86864e-05
3.752e-05
8.70168e-05
7.25493e-05
7.2543e-05
8.69273e-05
7.255e-05
7.25436e-05
5.6049e-05
6.87166e-05
5.85069e-05
3.79108e-05
6.86854e-05
5.61497e-05
3.778e-05
5.61158e-05
6.87289e-05
5.85182e-05
3.79306e-05
6.86982e-05
5.62242e-05
3.77984e-05
6.97958e-05
5.17255e-05
6.90938e-05
5.84283e-05
6.90801e-05
5.8231e-05
6.98081e-05
7.10736e-05
7.35504e-05
6.99875e-05
7.10703e-05
7.36396e-05
6.97944e-05
5.15105e-05
6.90619e-05
5.79061e-05
6.90753e-05
6.97823e-05
5.81092e-05
7.10504e-05
7.37598e-05
6.999e-05
7.36755e-05
7.10535e-05
8.70562e-05
7.25221e-05
7.25272e-05
7.25214e-05
7.25266e-05
8.71409e-05
5.59035e-05
3.73876e-05
6.86555e-05
5.83835e-05
6.86835e-05
5.58036e-05
3.7522e-05
5.58349e-05
3.73689e-05
6.8645e-05
5.83778e-05
3.75003e-05
5.57343e-05
6.86731e-05
8.70166e-05
7.25441e-05
7.25492e-05
7.25447e-05
8.69296e-05
7.25498e-05
5.61203e-05
6.87253e-05
5.85138e-05
3.79309e-05
6.86988e-05
3.77988e-05
5.6226e-05
5.60514e-05
6.87149e-05
5.85082e-05
3.79138e-05
3.77795e-05
6.86883e-05
5.61557e-05
6.97096e-05
6.96909e-05
6.9796e-05
5.17264e-05
6.90965e-05
5.84269e-05
6.90786e-05
5.82317e-05
6.98083e-05
7.10728e-05
7.35458e-05
6.99877e-05
7.10694e-05
7.3638e-05
6.97946e-05
5.15122e-05
6.90621e-05
5.79072e-05
6.90766e-05
6.97825e-05
5.81077e-05
7.10494e-05
7.37586e-05
6.99899e-05
7.36694e-05
7.10527e-05
6.97954e-05
5.17342e-05
5.84151e-05
6.9093e-05
5.82423e-05
6.908e-05
6.98074e-05
7.10732e-05
7.35607e-05
6.99899e-05
7.36503e-05
7.10691e-05
6.97938e-05
5.14985e-05
5.79182e-05
6.90618e-05
5.80948e-05
6.97818e-05
6.90747e-05
7.10492e-05
7.37688e-05
6.99923e-05
7.36882e-05
7.1053e-05
6.97952e-05
5.17296e-05
6.9093e-05
5.84257e-05
6.908e-05
5.82315e-05
6.98075e-05
7.10726e-05
7.35436e-05
6.99866e-05
7.10692e-05
7.36359e-05
6.97938e-05
5.15063e-05
6.90618e-05
5.7907e-05
6.97816e-05
6.90747e-05
5.81063e-05
7.10492e-05
7.37568e-05
6.99889e-05
7.36676e-05
7.10525e-05
8.7052e-05
7.25215e-05
7.25271e-05
7.25209e-05
7.25265e-05
8.71382e-05
5.59072e-05
3.73894e-05
6.86539e-05
5.83848e-05
6.86848e-05
5.58015e-05
3.75212e-05
5.58388e-05
3.73668e-05
6.86435e-05
5.83797e-05
3.75046e-05
5.57321e-05
6.86748e-05
8.70145e-05
7.25435e-05
7.25491e-05
7.25441e-05
8.69255e-05
7.25498e-05
5.61191e-05
6.8727e-05
5.85137e-05
3.79318e-05
6.86969e-05
3.78006e-05
5.62171e-05
5.60493e-05
6.8716e-05
5.85088e-05
3.79145e-05
3.7778e-05
6.86872e-05
5.61583e-05
6.97104e-05
6.9692e-05
6.9797e-05
5.17348e-05
5.84289e-05
6.90944e-05
5.82366e-05
6.90811e-05
6.98092e-05
7.10751e-05
7.35636e-05
6.99912e-05
7.36555e-05
7.10718e-05
6.97956e-05
5.15044e-05
5.7912e-05
6.90629e-05
5.81094e-05
6.97835e-05
6.90761e-05
7.10518e-05
7.37767e-05
6.99936e-05
7.36882e-05
7.1055e-05
6.97958e-05
5.17338e-05
5.84266e-05
6.9094e-05
5.82313e-05
6.90807e-05
6.9808e-05
7.10729e-05
7.35501e-05
6.99878e-05
7.10696e-05
7.3634e-05
6.97944e-05
5.15034e-05
5.79065e-05
6.90625e-05
6.97823e-05
5.81072e-05
6.90757e-05
7.10496e-05
7.3755e-05
6.99901e-05
7.36742e-05
7.10528e-05
6.97095e-05
6.9691e-05
6.97109e-05
6.96924e-05
1.59856e-05
1.59859e-05
1.56005e-05
1.58592e-05
1.58594e-05
1.62836e-05
1.64158e-05
3.44401e-05
1.72675e-05
2.26392e-05
2.26498e-05
1.54944e-05
1.54946e-05
1.5193e-05
1.53774e-05
1.53776e-05
1.57732e-05
1.58981e-05
3.61905e-05
2.36723e-05
2.36714e-05
1.76341e-05
3.60508e-05
2.37608e-05
2.37651e-05
3.4436e-05
2.25623e-05
2.25658e-05
1.7261e-05
3.42813e-05
2.26251e-05
2.26272e-05
3.56129e-05
1.75147e-05
2.34579e-05
2.34641e-05
2.33904e-05
2.33949e-05
3.57568e-05
3.44248e-05
1.72626e-05
2.26231e-05
2.26456e-05
3.56204e-05
1.75151e-05
2.34809e-05
2.34589e-05
2.33798e-05
2.3394e-05
3.57519e-05
3.44351e-05
2.25683e-05
2.25474e-05
1.7262e-05
2.26439e-05
3.42851e-05
2.26268e-05
3.56141e-05
1.75137e-05
2.34686e-05
2.34804e-05
2.33936e-05
2.33756e-05
3.57583e-05
3.56152e-05
1.75034e-05
2.34656e-05
2.34772e-05
3.57586e-05
2.33795e-05
2.3381e-05
3.61869e-05
2.36783e-05
2.36831e-05
1.76189e-05
3.60481e-05
2.3748e-05
2.37537e-05
3.61822e-05
2.36714e-05
2.3681e-05
1.76196e-05
2.37483e-05
3.60546e-05
2.37706e-05
3.61883e-05
2.36838e-05
2.36662e-05
1.76201e-05
2.37671e-05
3.60501e-05
2.37555e-05
1.59856e-05
1.59859e-05
1.56005e-05
1.58592e-05
1.58594e-05
1.62836e-05
1.64158e-05
1.59855e-05
1.59858e-05
1.56004e-05
1.5859e-05
1.58594e-05
1.62835e-05
1.64157e-05
1.59855e-05
1.59857e-05
1.56003e-05
1.5859e-05
1.58593e-05
1.62834e-05
1.64157e-05
1.54943e-05
1.56136e-05
1.56138e-05
1.57353e-05
1.57355e-05
1.61533e-05
1.60248e-05
1.54943e-05
1.56136e-05
1.56138e-05
1.57353e-05
1.57355e-05
1.61533e-05
1.60247e-05
1.54942e-05
1.56134e-05
1.56138e-05
1.57351e-05
1.57355e-05
1.61531e-05
1.60246e-05
1.5494e-05
1.56134e-05
1.56137e-05
1.57351e-05
1.57354e-05
1.61531e-05
1.60246e-05
1.82879e-05
2.58835e-05
3.01506e-05
1.69994e-05
3.00168e-05
1.69705e-05
1.83319e-05
2.0706e-05
3.69429e-05
4.28146e-05
2.53618e-05
2.52551e-05
3.68101e-05
2.07692e-05
1.83011e-05
2.58839e-05
1.69927e-05
3.01555e-05
1.69799e-05
3.00157e-05
1.83182e-05
2.0555e-05
2.49391e-05
3.63949e-05
4.2574e-05
2.05143e-05
2.50477e-05
3.65373e-05
1.8188e-05
2.56209e-05
1.68915e-05
2.95901e-05
1.81729e-05
1.69039e-05
2.97298e-05
2.07145e-05
3.69487e-05
4.28162e-05
2.53686e-05
2.52573e-05
3.68107e-05
2.0756e-05
3.47315e-05
1.73308e-05
2.29048e-05
2.29162e-05
2.28199e-05
2.2821e-05
3.48787e-05
1.54944e-05
1.54946e-05
1.51931e-05
1.53774e-05
1.53776e-05
1.57731e-05
1.5898e-05
1.54942e-05
1.54946e-05
1.5193e-05
1.53772e-05
1.53776e-05
1.5773e-05
1.58979e-05
1.54942e-05
1.54945e-05
1.51928e-05
1.53772e-05
1.53775e-05
1.5773e-05
1.58979e-05
1.88816e-05
2.75198e-05
3.18659e-05
1.74423e-05
3.17196e-05
1.73988e-05
1.89437e-05
2.14305e-05
2.62268e-05
3.80249e-05
4.39947e-05
2.13555e-05
2.63428e-05
3.81555e-05
1.87728e-05
2.72427e-05
3.12912e-05
1.7279e-05
1.87229e-05
3.14363e-05
1.73144e-05
2.15836e-05
3.85418e-05
4.42254e-05
2.66799e-05
2.65587e-05
3.84277e-05
2.16707e-05
1.88975e-05
2.75233e-05
1.74307e-05
3.18663e-05
1.74089e-05
3.17252e-05
1.8919e-05
2.14136e-05
2.62279e-05
3.80254e-05
4.39962e-05
2.13662e-05
2.6332e-05
3.8158e-05
1.87609e-05
2.72457e-05
1.72878e-05
3.12971e-05
1.87374e-05
1.73075e-05
3.14379e-05
2.15973e-05
3.85479e-05
4.42261e-05
2.66721e-05
2.65671e-05
3.84257e-05
2.164e-05
3.64807e-05
1.77123e-05
2.40544e-05
2.40619e-05
2.39666e-05
2.39713e-05
3.6613e-05
3.47299e-05
1.7338e-05
2.28958e-05
2.29029e-05
3.48789e-05
2.28317e-05
2.28363e-05
3.53209e-05
1.74246e-05
2.31079e-05
2.31126e-05
3.51729e-05
2.31777e-05
2.31777e-05
1.83014e-05
2.58902e-05
3.01503e-05
1.69931e-05
3.00202e-05
1.69782e-05
1.83179e-05
2.05519e-05
2.49445e-05
3.64028e-05
4.25733e-05
3.65361e-05
2.05176e-05
2.50467e-05
1.81876e-05
2.56159e-05
2.95948e-05
1.68905e-05
2.97261e-05
1.81729e-05
1.69042e-05
2.07181e-05
3.69469e-05
4.28157e-05
2.53666e-05
3.68139e-05
2.52581e-05
2.07544e-05
1.82906e-05
2.58904e-05
3.01507e-05
1.69934e-05
3.0019e-05
1.69786e-05
1.83343e-05
2.0568e-05
2.49574e-05
3.63968e-05
4.25757e-05
2.05052e-05
3.65327e-05
2.5043e-05
1.82022e-05
2.56148e-05
2.95949e-05
1.68909e-05
1.81614e-05
2.97248e-05
1.69047e-05
2.07073e-05
3.69415e-05
4.28208e-05
2.53625e-05
3.68089e-05
2.07693e-05
2.52721e-05
1.84587e-05
3.04471e-05
1.70717e-05
2.64169e-05
1.84403e-05
3.05757e-05
1.70887e-05
2.11457e-05
2.60119e-05
4.35323e-05
3.77583e-05
2.58986e-05
3.76251e-05
2.11836e-05
2.09628e-05
3.72241e-05
2.55758e-05
4.32958e-05
2.56831e-05
2.09273e-05
3.73558e-05
1.85851e-05
2.66996e-05
3.10041e-05
1.71938e-05
3.08752e-05
1.71753e-05
1.86049e-05
1.84755e-05
3.04449e-05
1.70722e-05
2.64179e-05
1.84309e-05
3.05773e-05
1.70893e-05
2.11325e-05
2.60083e-05
4.35364e-05
3.77518e-05
3.76215e-05
2.59155e-05
2.12008e-05
2.09831e-05
3.72199e-05
2.55918e-05
4.32992e-05
2.09159e-05
3.7351e-05
2.568e-05
1.85739e-05
2.66978e-05
3.10038e-05
1.71942e-05
3.08721e-05
1.71755e-05
1.86202e-05
3.47403e-05
1.73346e-05
2.29146e-05
2.28968e-05
2.28348e-05
2.28229e-05
3.48713e-05
3.53114e-05
1.74264e-05
2.31011e-05
2.31095e-05
2.3192e-05
3.5182e-05
2.31763e-05
1.83009e-05
2.58899e-05
3.01569e-05
1.70002e-05
3.00138e-05
1.69708e-05
1.83182e-05
2.05522e-05
2.49565e-05
3.64013e-05
4.2578e-05
3.65411e-05
2.05187e-05
2.50423e-05
1.81872e-05
2.56151e-05
2.95891e-05
1.68841e-05
2.973e-05
1.81724e-05
1.69106e-05
2.07193e-05
3.69508e-05
4.28206e-05
2.5359e-05
3.68116e-05
2.52713e-05
2.07559e-05
1.83005e-05
2.5888e-05
1.70002e-05
3.01483e-05
1.69709e-05
3.00197e-05
1.83174e-05
2.05534e-05
2.49477e-05
3.63944e-05
4.25759e-05
2.05153e-05
3.65316e-05
2.50533e-05
1.81868e-05
2.5617e-05
1.68841e-05
2.95946e-05
1.81718e-05
1.69106e-05
2.97234e-05
2.07159e-05
3.69405e-05
4.28207e-05
2.53673e-05
3.68083e-05
2.07549e-05
2.52629e-05
1.84584e-05
3.04407e-05
1.70649e-05
2.6417e-05
1.84398e-05
3.05808e-05
1.70961e-05
2.11456e-05
2.6006e-05
4.35371e-05
3.7761e-05
2.5914e-05
3.76242e-05
2.11867e-05
2.09658e-05
3.7222e-05
2.55902e-05
4.33003e-05
2.56805e-05
2.09278e-05
3.73567e-05
1.85848e-05
2.66991e-05
3.10091e-05
1.72019e-05
3.08696e-05
1.71675e-05
1.86056e-05
1.84583e-05
1.7065e-05
3.04457e-05
2.64169e-05
1.84395e-05
1.70963e-05
3.05757e-05
2.11435e-05
2.60147e-05
4.35356e-05
3.77511e-05
3.7623e-05
2.59041e-05
2.11839e-05
2.09625e-05
3.72183e-05
2.55836e-05
4.33005e-05
2.09252e-05
3.7347e-05
2.56902e-05
1.85845e-05
2.6699e-05
1.72021e-05
3.1003e-05
1.71676e-05
3.08737e-05
1.86046e-05
1.82878e-05
2.58886e-05
1.69997e-05
3.01534e-05
1.69698e-05
3.00104e-05
1.83317e-05
2.07036e-05
3.69425e-05
4.28138e-05
2.53565e-05
2.52642e-05
3.68014e-05
2.07708e-05
1.84731e-05
3.04409e-05
1.70653e-05
2.64184e-05
1.8428e-05
3.05789e-05
1.7095e-05
2.11322e-05
2.60101e-05
4.35313e-05
3.77587e-05
2.12013e-05
2.58967e-05
3.76205e-05
2.09863e-05
3.72225e-05
2.55769e-05
4.32953e-05
2.09168e-05
2.56831e-05
3.73542e-05
1.85717e-05
2.66929e-05
3.10112e-05
1.72007e-05
1.86156e-05
3.08664e-05
1.71677e-05
1.84733e-05
1.70655e-05
3.04387e-05
2.64151e-05
1.84283e-05
1.70965e-05
3.0578e-05
2.11315e-05
2.60042e-05
4.35303e-05
3.77564e-05
3.76157e-05
2.59082e-05
2.12006e-05
2.09815e-05
3.72137e-05
2.55847e-05
4.32965e-05
2.09127e-05
3.73472e-05
2.56743e-05
1.85715e-05
2.66982e-05
1.72021e-05
3.10062e-05
1.71681e-05
3.0867e-05
1.86179e-05
3.47335e-05
1.73352e-05
2.29074e-05
2.29189e-05
2.28212e-05
2.28351e-05
3.4881e-05
3.53228e-05
1.7426e-05
2.31136e-05
2.3094e-05
2.31773e-05
3.51753e-05
2.31867e-05
1.8303e-05
2.58908e-05
1.69928e-05
3.01516e-05
1.69798e-05
3.00196e-05
1.83189e-05
2.05523e-05
2.49502e-05
3.64052e-05
4.25751e-05
2.50545e-05
2.052e-05
3.65237e-05
1.81885e-05
2.56164e-05
1.68918e-05
2.95943e-05
1.69041e-05
1.81742e-05
2.97263e-05
2.07201e-05
3.69368e-05
4.28232e-05
2.53706e-05
2.52649e-05
3.68183e-05
2.07545e-05
1.84593e-05
1.70732e-05
3.04427e-05
2.6422e-05
1.844e-05
1.70883e-05
3.05813e-05
2.11399e-05
2.60095e-05
4.3531e-05
3.77612e-05
2.11865e-05
2.59005e-05
3.76246e-05
2.09661e-05
3.72193e-05
2.55737e-05
4.3298e-05
2.09221e-05
2.5679e-05
3.73513e-05
1.85844e-05
2.66948e-05
1.71921e-05
3.10113e-05
1.86061e-05
1.71763e-05
3.08705e-05
1.84603e-05
1.70734e-05
3.04464e-05
2.64176e-05
1.84427e-05
1.70886e-05
3.05758e-05
2.11475e-05
2.60217e-05
4.35384e-05
3.77448e-05
3.76346e-05
2.59033e-05
2.11838e-05
2.09622e-05
3.72278e-05
2.55848e-05
4.32996e-05
2.09295e-05
3.73411e-05
2.56934e-05
1.85882e-05
2.67001e-05
1.71936e-05
3.10047e-05
1.71774e-05
3.08742e-05
1.86069e-05
3.53243e-05
1.74333e-05
2.31009e-05
2.31009e-05
3.51775e-05
2.31858e-05
2.31912e-05
3.64782e-05
1.77221e-05
2.40395e-05
2.40471e-05
3.66077e-05
2.39752e-05
2.39793e-05
1.88985e-05
2.75271e-05
3.18581e-05
1.74275e-05
3.17307e-05
1.74081e-05
1.89184e-05
2.14096e-05
2.62286e-05
3.80293e-05
4.3996e-05
3.81631e-05
2.13699e-05
2.63418e-05
1.87591e-05
2.72412e-05
3.13023e-05
1.72872e-05
3.14327e-05
1.87367e-05
1.73079e-05
2.16033e-05
3.85559e-05
4.42245e-05
2.66757e-05
3.84235e-05
2.65598e-05
2.16394e-05
1.88849e-05
2.75256e-05
3.18582e-05
1.74284e-05
3.17278e-05
1.74087e-05
1.89449e-05
2.14324e-05
2.62439e-05
3.80277e-05
4.40001e-05
2.13583e-05
3.81582e-05
2.63428e-05
1.87758e-05
2.72419e-05
3.12999e-05
1.72878e-05
1.87268e-05
3.14313e-05
1.73085e-05
2.15834e-05
3.85411e-05
4.42267e-05
2.66902e-05
3.84234e-05
2.16726e-05
2.65668e-05
3.64818e-05
1.77229e-05
2.40675e-05
2.40401e-05
2.39775e-05
2.39642e-05
3.6625e-05
1.88981e-05
2.75247e-05
3.18646e-05
1.74399e-05
3.17242e-05
1.7398e-05
1.89199e-05
2.1416e-05
2.62408e-05
3.80297e-05
4.39992e-05
3.81583e-05
2.13694e-05
2.63399e-05
1.87594e-05
2.72431e-05
3.12973e-05
1.72798e-05
3.14358e-05
1.87363e-05
1.73148e-05
2.16023e-05
3.85545e-05
4.42284e-05
2.66724e-05
3.8428e-05
2.6574e-05
2.16444e-05
1.88979e-05
2.75259e-05
1.744e-05
3.18558e-05
1.7398e-05
3.17299e-05
1.89177e-05
2.14069e-05
2.62365e-05
3.80265e-05
4.39983e-05
2.13695e-05
3.81539e-05
2.63449e-05
1.87583e-05
2.72422e-05
1.72799e-05
3.13013e-05
1.87361e-05
1.7315e-05
3.14319e-05
2.16022e-05
3.85529e-05
4.42281e-05
2.66768e-05
3.84211e-05
2.16389e-05
2.65686e-05
1.88831e-05
2.75274e-05
1.74404e-05
3.18621e-05
1.73988e-05
3.17224e-05
1.89424e-05
2.14227e-05
2.62369e-05
3.80186e-05
4.39939e-05
2.6334e-05
2.13551e-05
3.8153e-05
1.8773e-05
2.72394e-05
1.72807e-05
3.12948e-05
1.73152e-05
1.87247e-05
3.14324e-05
2.15837e-05
3.85529e-05
4.42245e-05
2.66688e-05
2.65683e-05
3.84151e-05
2.16671e-05
3.648e-05
1.77225e-05
2.40567e-05
2.40737e-05
2.39582e-05
2.39769e-05
3.66091e-05
1.89021e-05
2.75302e-05
1.74286e-05
3.18581e-05
1.7411e-05
3.17302e-05
1.89204e-05
2.14094e-05
2.62345e-05
3.80344e-05
4.40001e-05
2.63511e-05
2.1372e-05
3.81486e-05
1.8761e-05
2.724e-05
1.72893e-05
3.1302e-05
1.73088e-05
1.874e-05
3.14317e-05
2.16053e-05
3.85436e-05
4.42261e-05
2.66923e-05
2.65645e-05
3.84297e-05
2.16411e-05
3.60233e-05
3.60197e-05
3.60197e-05
3.60085e-05
3.39295e-05
3.38855e-05
3.38853e-05
3.39587e-05
3.21567e-05
3.20023e-05
3.2002e-05
3.19434e-05
3.05324e-05
3.02216e-05
3.02212e-05
2.99757e-05
2.90295e-05
2.85446e-05
2.85444e-05
2.81071e-05
2.76308e-05
2.69759e-05
2.69761e-05
2.63741e-05
2.63252e-05
2.55174e-05
2.55188e-05
2.4791e-05
2.51048e-05
2.41697e-05
2.4172e-05
2.33623e-05
2.3964e-05
2.29349e-05
2.29369e-05
2.20892e-05
2.28984e-05
2.18112e-05
2.18126e-05
2.09696e-05
2.19043e-05
2.07956e-05
2.07964e-05
1.99968e-05
2.09784e-05
1.98852e-05
1.98855e-05
1.91638e-05
2.01156e-05
1.90778e-05
1.90777e-05
1.84698e-05
1.93148e-05
1.83701e-05
1.83699e-05
1.79099e-05
1.85751e-05
1.7759e-05
1.77587e-05
1.74789e-05
1.78937e-05
1.72428e-05
1.72427e-05
1.7168e-05
1.72685e-05
1.6821e-05
1.68209e-05
1.69834e-05
1.66972e-05
1.64925e-05
1.64925e-05
1.69404e-05
1.61786e-05
1.62574e-05
1.62574e-05
1.70331e-05
1.61155e-05
1.72542e-05
3.62976e-05
3.62919e-05
3.62919e-05
3.62977e-05
3.62919e-05
3.62919e-05
3.62908e-05
3.62908e-05
3.62908e-05
3.62908e-05
3.62919e-05
3.62919e-05
3.62977e-05
3.62919e-05
3.62919e-05
3.62977e-05
3.60086e-05