/*--------------------------------*- C++ -*----------------------------------*\
| =========                 |                                                 |
| \\      /  F ield         | OpenFOAM: The Open Source CFD Toolbox           |
|  \\    /   O peration     | Version:  2312                                  |
|   \\  /    A nd           | Website:  www.openfoam.com                      |
|    \\/     M anipulation  |                                                 |
\*---------------------------------------------------------------------------*/
FoamFile
{
    version     2.0;
    format      ascii;
    arch        "LSB;label=32;scalar=64";
    class       volScalarField;
    location    "550";
    object      k;
}
// * * * * * * * * * * * * * * * * * * * * * * * * * * * * * * * * * * * * * //

dimensions      [0 2 -2 0 0 0 0];

internalField   nonuniform List<scalar> 
43008
(
1.57099e-05
1.61155e-05
1.52902e-05
1.60656e-05
1.60665e-05
1.76123e-05
1.7253e-05
1.7529e-05
1.61141e-05
1.61141e-05
1.60669e-05
1.60669e-05
1.75303e-05
1.61152e-05
1.61151e-05
1.60677e-05
1.60678e-05
1.60671e-05
1.60666e-05
1.72555e-05
1.75312e-05
1.61153e-05
1.60681e-05
1.60681e-05
1.75169e-05
1.76038e-05
1.60655e-05
1.60655e-05
1.76035e-05
1.60662e-05
1.60664e-05
1.60652e-05
1.76046e-05
1.60666e-05
5.0099e-05
6.99085e-05
4.93387e-05
6.99373e-05
6.97742e-05
5.00991e-05
6.9909e-05
4.93366e-05
6.99381e-05
1.57096e-05
1.57101e-05
1.57096e-05
1.53906e-05
1.53902e-05
1.53908e-05
1.53903e-05
2.60112e-05
1.60917e-05
4.29305e-05
1.53533e-05
6.97976e-05
6.97735e-05
2.60127e-05
1.5438e-05
4.24538e-05
1.60927e-05
2.54922e-05
1.53538e-05
4.29334e-05
1.73381e-05
5.77565e-05
5.77664e-05
5.19479e-05
6.99789e-05
5.12834e-05
7.00058e-05
6.97136e-05
6.96915e-05
5.19486e-05
6.99801e-05
5.12821e-05
7.00071e-05
1.52899e-05
1.52904e-05
1.529e-05
2.76556e-05
4.38858e-05
1.51272e-05
1.60681e-05
2.71086e-05
4.43335e-05
1.50596e-05
6.97129e-05
6.96908e-05
2.76573e-05
1.51277e-05
4.38851e-05
1.6069e-05
2.71105e-05
1.50602e-05
4.43301e-05
5.831e-05
5.83193e-05
1.77286e-05
5.8566e-05
5.85765e-05
6.97962e-05
6.97721e-05
6.97982e-05
6.97744e-05
5.74663e-05
5.74782e-05
1.735e-05
5.77584e-05
5.77706e-05
6.97298e-05
6.97529e-05
6.97322e-05
6.97553e-05
1.74101e-05
5.81766e-05
5.81886e-05
5.79031e-05
5.79148e-05
5.00986e-05
6.99052e-05
4.93382e-05
6.99341e-05
2.60141e-05
4.2451e-05
1.5437e-05
1.60915e-05
2.54899e-05
4.29339e-05
1.53528e-05
2.6016e-05
4.24566e-05
1.54368e-05
1.60915e-05
2.54899e-05
4.29353e-05
1.53527e-05
5.0345e-05
6.99725e-05
6.99444e-05
5.10581e-05
5.03447e-05
6.99694e-05
6.99414e-05
5.10577e-05
2.62888e-05
1.60782e-05
4.36454e-05
1.51977e-05
4.31802e-05
1.52735e-05
2.68279e-05
2.62867e-05
1.60782e-05
4.36494e-05
1.51976e-05
4.31852e-05
1.52734e-05
2.68292e-05
1.73451e-05
5.7767e-05
5.77614e-05
6.97731e-05
6.97321e-05
6.97552e-05
1.74084e-05
5.81846e-05
5.81789e-05
5.79117e-05
5.79063e-05
6.97306e-05
6.97538e-05
2.60153e-05
4.24552e-05
1.5438e-05
1.60925e-05
2.54884e-05
4.29369e-05
1.53539e-05
5.00983e-05
6.99043e-05
4.93364e-05
6.99334e-05
2.60186e-05
1.54377e-05
4.24559e-05
1.60925e-05
2.54877e-05
1.53536e-05
4.29361e-05
5.03434e-05
6.99735e-05
6.99452e-05
5.10585e-05
2.62873e-05
1.60791e-05
4.36494e-05
1.51986e-05
4.3184e-05
1.52745e-05
2.68297e-05
5.03429e-05
6.99686e-05
6.99403e-05
5.10574e-05
2.6285e-05
1.60792e-05
1.51983e-05
4.36486e-05
1.52742e-05
4.3185e-05
2.68294e-05
5.00827e-05
6.99362e-05
2.60156e-05
1.60911e-05
1.53528e-05
4.29307e-05
5.00918e-05
6.99331e-05
2.62891e-05
1.60785e-05
4.36422e-05
1.51981e-05
4.31813e-05
1.5274e-05
2.68235e-05
5.03522e-05
6.99708e-05
6.99428e-05
5.10429e-05
2.62844e-05
1.60779e-05
1.51977e-05
4.36429e-05
1.52735e-05
4.31792e-05
2.68287e-05
5.03465e-05
6.99682e-05
6.99396e-05
5.1051e-05
5.7474e-05
5.74689e-05
1.73468e-05
5.77663e-05
5.77618e-05
6.97963e-05
6.97724e-05
6.97314e-05
6.97545e-05
1.74088e-05
5.81839e-05
5.81801e-05
5.79105e-05
5.79069e-05
6.97305e-05
6.97534e-05
2.60192e-05
1.54378e-05
4.24566e-05
1.60927e-05
2.54868e-05
1.53537e-05
4.2937e-05
5.00913e-05
6.99074e-05
4.93448e-05
6.99365e-05
5.00903e-05
6.99042e-05
4.93435e-05
6.99335e-05
2.62908e-05
1.60794e-05
1.51986e-05
4.36462e-05
1.52745e-05
4.31833e-05
2.68275e-05
2.62853e-05
1.60794e-05
1.51986e-05
4.36497e-05
1.52744e-05
4.31852e-05
2.68311e-05
5.03513e-05
6.99718e-05
6.99435e-05
5.10503e-05
5.03501e-05
6.99688e-05
6.99406e-05
5.10493e-05
6.97722e-05
6.97734e-05
1.74198e-05
5.81742e-05
5.81845e-05
5.79008e-05
5.79109e-05
6.97302e-05
6.97532e-05
6.97315e-05
6.97545e-05
6.97111e-05
6.96892e-05
6.97137e-05
6.96917e-05
5.8312e-05
5.83234e-05
1.77461e-05
5.85696e-05
5.85799e-05
5.19477e-05
6.99759e-05
5.12832e-05
7.00029e-05
2.7661e-05
4.38843e-05
1.51268e-05
1.60681e-05
2.7109e-05
4.43369e-05
1.50593e-05
2.76651e-05
4.38875e-05
1.51267e-05
1.60679e-05
2.7107e-05
4.43323e-05
1.50592e-05
5.83197e-05
5.83147e-05
1.77451e-05
5.85766e-05
5.85706e-05
6.97119e-05
6.96897e-05
2.7656e-05
4.3888e-05
1.51277e-05
1.60687e-05
2.71074e-05
4.43331e-05
1.50601e-05
5.19475e-05
6.99749e-05
5.12816e-05
7.0002e-05
2.76575e-05
1.51274e-05
4.38883e-05
1.60689e-05
2.71076e-05
1.50599e-05
4.43314e-05
5.19339e-05
6.99774e-05
5.12897e-05
7.00042e-05
2.76592e-05
1.51269e-05
4.38834e-05
1.60675e-05
2.7105e-05
1.50593e-05
4.43318e-05
5.19413e-05
6.99744e-05
5.12848e-05
7.00018e-05
5.83192e-05
5.83152e-05
1.7746e-05
5.85753e-05
5.85709e-05
6.97119e-05
6.96898e-05
2.76574e-05
1.51277e-05
4.38883e-05
1.6069e-05
2.71071e-05
1.50602e-05
4.43406e-05
5.19404e-05
6.99781e-05
5.12901e-05
7.00053e-05
5.1939e-05
6.99753e-05
5.12889e-05
7.00026e-05
6.97117e-05
6.96897e-05
6.9713e-05
6.9691e-05
6.97454e-05
4.98501e-05
6.90334e-05
5.70703e-05
6.90257e-05
5.68512e-05
6.97565e-05
7.11554e-05
7.30064e-05
6.99196e-05
7.11516e-05
7.31066e-05
6.97446e-05
4.95937e-05
6.90191e-05
5.6468e-05
6.97341e-05
6.90253e-05
5.66931e-05
7.11319e-05
7.32541e-05
6.99264e-05
7.316e-05
7.11356e-05
6.97958e-05
6.97766e-05
6.97455e-05
4.98484e-05
5.70685e-05
6.90337e-05
5.68483e-05
6.90259e-05
6.97567e-05
7.11554e-05
7.30016e-05
6.99203e-05
7.11515e-05
7.31035e-05
6.97447e-05
4.95937e-05
5.64649e-05
6.90193e-05
6.97341e-05
5.66912e-05
6.90256e-05
7.11319e-05
7.32511e-05
6.99271e-05
7.31551e-05
7.11357e-05
6.97951e-05
6.97759e-05
8.65096e-05
7.26169e-05
7.26106e-05
7.26161e-05
7.26098e-05
8.66058e-05
5.44782e-05
5.75369e-05
3.5808e-05
6.84878e-05
5.4545e-05
5.75466e-05
3.58293e-05
6.84987e-05
8.6459e-05
7.26395e-05
7.26332e-05
5.47226e-05
6.85362e-05
5.7686e-05
3.62388e-05
3.61036e-05
6.85053e-05
5.48346e-05
5.479e-05
6.85472e-05
5.76963e-05
3.62594e-05
3.61226e-05
6.85167e-05
5.49006e-05
6.97973e-05
5.17271e-05
6.90944e-05
5.84322e-05
6.90812e-05
5.82357e-05
6.98096e-05
7.10753e-05
7.35762e-05
6.99893e-05
7.10721e-05
7.3657e-05
6.97959e-05
5.15116e-05
6.9063e-05
5.79111e-05
6.97837e-05
6.9076e-05
5.8113e-05
7.1052e-05
7.37785e-05
6.99953e-05
7.36977e-05
7.10552e-05
6.97117e-05
6.96933e-05
6.97977e-05
5.17257e-05
5.8431e-05
6.90948e-05
5.82338e-05
6.90813e-05
6.98099e-05
7.1076e-05
7.35729e-05
6.99906e-05
7.10726e-05
7.36532e-05
6.97963e-05
5.15121e-05
5.79089e-05
6.90631e-05
6.9784e-05
5.81117e-05
6.90764e-05
7.10527e-05
7.37723e-05
6.99969e-05
7.36984e-05
7.10559e-05
6.97109e-05
6.96927e-05
8.70499e-05
7.25263e-05
7.25201e-05
7.25257e-05
7.25195e-05
8.71364e-05
5.58353e-05
3.7369e-05
6.86436e-05
5.83736e-05
5.57352e-05
3.75008e-05
6.86715e-05
5.59053e-05
3.73874e-05
6.86549e-05
5.83831e-05
5.58006e-05
3.75209e-05
6.86832e-05
8.7011e-05
7.25483e-05
7.25421e-05
8.69249e-05
7.25489e-05
7.25427e-05
5.60514e-05
6.87132e-05
5.85038e-05
3.79125e-05
3.77801e-05
6.86866e-05
5.61557e-05
5.61165e-05
6.87251e-05
5.85134e-05
3.79299e-05
3.77993e-05
6.86979e-05
5.62207e-05
6.97939e-05
6.97743e-05
6.97958e-05
6.97767e-05
8.65147e-05
7.26184e-05
7.26121e-05
7.26176e-05
7.26114e-05
8.66109e-05
5.44787e-05
3.5669e-05
6.84561e-05
5.7539e-05
5.43641e-05
6.84894e-05
3.58103e-05
5.45451e-05
3.56874e-05
6.84695e-05
5.75516e-05
5.44321e-05
6.85007e-05
3.58304e-05
8.64645e-05
7.26403e-05
7.2634e-05
8.63644e-05
7.26412e-05
7.26349e-05
5.4722e-05
6.85371e-05
5.76882e-05
3.62409e-05
6.85056e-05
5.48327e-05
3.61005e-05
5.47902e-05
6.85488e-05
5.77001e-05
3.62601e-05
6.85186e-05
5.49002e-05
3.61172e-05
6.97318e-05
6.97508e-05
6.97343e-05
6.97531e-05
8.67513e-05
7.25949e-05
7.25886e-05
8.66584e-05
7.25956e-05
7.25894e-05
5.54072e-05
3.70852e-05
5.81109e-05
6.8629e-05
6.85997e-05
3.69488e-05
5.55082e-05
5.54745e-05
3.71053e-05
5.81224e-05
6.86413e-05
6.86126e-05
3.69654e-05
5.55787e-05
5.51762e-05
6.85529e-05
3.6527e-05
5.79716e-05
5.50694e-05
6.85844e-05
3.66656e-05
5.52451e-05
6.85664e-05
3.65449e-05
5.79834e-05
5.5137e-05
6.85962e-05
3.66855e-05
8.6797e-05
7.25729e-05
7.25666e-05
7.25722e-05
7.25659e-05
8.68864e-05
6.97449e-05
4.98499e-05
6.90331e-05
5.7068e-05
6.90253e-05
5.68469e-05
6.97562e-05
7.1155e-05
7.29875e-05
6.99162e-05
7.11513e-05
7.30864e-05
6.97442e-05
4.95933e-05
6.90186e-05
5.64634e-05
6.90249e-05
6.97336e-05
5.66908e-05
7.11316e-05
7.32333e-05
6.99233e-05
7.31398e-05
7.11352e-05
6.97692e-05
6.9035e-05
5.72192e-05
5.05871e-05
6.97576e-05
6.90449e-05
5.74325e-05
7.10921e-05
6.99617e-05
7.35316e-05
7.10955e-05
7.34418e-05
7.11156e-05
7.33067e-05
6.99554e-05
7.11121e-05
7.33964e-05
6.97704e-05
5.08228e-05
6.90593e-05
5.77798e-05
6.97824e-05
6.90475e-05
5.75723e-05
6.97688e-05
6.90346e-05
5.7215e-05
5.05868e-05
6.97571e-05
6.90446e-05
5.743e-05
7.10919e-05
6.9959e-05
7.35097e-05
7.34243e-05
7.10952e-05
7.11153e-05
7.32857e-05
6.99524e-05
7.11118e-05
7.33757e-05
6.977e-05
5.08225e-05
6.90591e-05
5.7777e-05
6.90472e-05
5.75683e-05
6.9782e-05
8.65139e-05
7.26132e-05
7.26191e-05
7.26123e-05
7.26183e-05
8.66152e-05
5.45503e-05
5.75476e-05
6.85015e-05
3.58284e-05
5.44796e-05
5.75417e-05
3.58102e-05
6.84923e-05
8.64693e-05
7.26359e-05
7.26419e-05
5.4789e-05
6.85496e-05
5.7697e-05
3.62591e-05
6.85154e-05
3.61235e-05
5.49059e-05
5.47182e-05
6.85403e-05
5.76915e-05
3.62403e-05
3.60966e-05
6.85064e-05
5.4834e-05
6.97948e-05
6.97752e-05
6.97342e-05
6.9753e-05
8.67555e-05
7.25897e-05
7.25955e-05
8.66574e-05
7.25905e-05
7.25962e-05
5.54725e-05
3.71059e-05
5.81193e-05
6.86417e-05
3.69716e-05
6.86092e-05
5.55826e-05
5.5402e-05
3.70863e-05
5.8114e-05
6.86318e-05
6.85998e-05
3.69468e-05
5.55125e-05
5.52505e-05
6.85635e-05
3.655e-05
5.79796e-05
3.6685e-05
5.51353e-05
6.85964e-05
5.51803e-05
6.85541e-05
3.65243e-05
5.79737e-05
5.50654e-05
6.85867e-05
3.66643e-05
8.67956e-05
7.25678e-05
7.25733e-05
7.2567e-05
7.25726e-05
8.68895e-05
6.97326e-05
6.97517e-05
6.97437e-05
4.9848e-05
6.90328e-05
5.70644e-05
6.9025e-05
5.68453e-05
6.97549e-05
7.11522e-05
7.29805e-05
6.99155e-05
7.11485e-05
7.30821e-05
6.9743e-05
4.95929e-05
6.90184e-05
5.64618e-05
6.90247e-05
6.97324e-05
5.66872e-05
7.11287e-05
7.3231e-05
6.99223e-05
7.31323e-05
7.11324e-05
6.97695e-05
5.72165e-05
6.90352e-05
5.05875e-05
6.97578e-05
5.74309e-05
6.90452e-05
7.10925e-05
6.99629e-05
7.35255e-05
7.10959e-05
7.34428e-05
7.11159e-05
7.33003e-05
6.99564e-05
7.11123e-05
7.3394e-05
6.97707e-05
5.08213e-05
5.77784e-05
6.90596e-05
6.97827e-05
5.75699e-05
6.90477e-05
6.97675e-05
6.90343e-05
5.72135e-05
5.05865e-05
6.97559e-05
6.90443e-05
5.74263e-05
7.1089e-05
6.9958e-05
7.35069e-05
7.3417e-05
7.10924e-05
7.11124e-05
7.32787e-05
6.99516e-05
7.11089e-05
7.33718e-05
6.97687e-05
5.08208e-05
6.90587e-05
5.77736e-05
6.9047e-05
5.75669e-05
6.97807e-05
6.97431e-05
4.98581e-05
5.70487e-05
6.9032e-05
5.68601e-05
6.90243e-05
6.97541e-05
7.11289e-05
7.32458e-05
6.99253e-05
7.31484e-05
7.11331e-05
6.9744e-05
4.98516e-05
6.90325e-05
5.70617e-05
6.90247e-05
5.68462e-05
6.97552e-05
7.11297e-05
7.32294e-05
6.99221e-05
7.31318e-05
7.11334e-05
6.97667e-05
5.72271e-05
6.90335e-05
5.05717e-05
6.97552e-05
5.74115e-05
6.90435e-05
7.1089e-05
6.99605e-05
7.35209e-05
7.34319e-05
7.10931e-05
7.11131e-05
7.32951e-05
6.99539e-05
7.11089e-05
7.33846e-05
6.9768e-05
5.08294e-05
5.77597e-05
6.9058e-05
5.75795e-05
6.90459e-05
6.97798e-05
6.97679e-05
6.90339e-05
5.72141e-05
5.05799e-05
6.97562e-05
6.9044e-05
5.74238e-05
7.10901e-05
6.99574e-05
7.35041e-05
7.34155e-05
7.10936e-05
7.11136e-05
7.32768e-05
6.99511e-05
7.111e-05
7.33701e-05
6.97691e-05
5.08243e-05
6.90586e-05
5.77714e-05
6.90463e-05
5.75674e-05
6.97811e-05
8.65117e-05
7.26118e-05
7.26175e-05
7.26111e-05
7.26167e-05
8.66072e-05
5.45466e-05
3.56867e-05
6.84674e-05
5.7547e-05
6.84988e-05
5.44326e-05
3.5832e-05
5.44795e-05
3.56721e-05
6.84574e-05
5.75419e-05
3.58092e-05
5.43652e-05
6.84889e-05
8.64612e-05
7.26337e-05
7.26393e-05
7.26345e-05
8.63605e-05
7.26402e-05
5.47907e-05
6.85469e-05
5.76957e-05
3.62615e-05
6.85165e-05
3.61192e-05
5.49e-05
5.47227e-05
6.85369e-05
5.76918e-05
3.62391e-05
3.6104e-05
6.85067e-05
5.48351e-05
6.97939e-05
6.97746e-05
6.97335e-05
6.97523e-05
8.67472e-05
7.25884e-05
7.25941e-05
8.66557e-05
7.25891e-05
7.25948e-05
5.54759e-05
3.71071e-05
5.81183e-05
6.86392e-05
3.69688e-05
6.86107e-05
5.5578e-05
5.54076e-05
3.7087e-05
5.81147e-05
6.86292e-05
6.86008e-05
3.69519e-05
5.55118e-05
5.52445e-05
6.85644e-05
3.65461e-05
5.79788e-05
3.66857e-05
5.51379e-05
6.85941e-05
5.51784e-05
6.85545e-05
3.65306e-05
5.79746e-05
5.507e-05
6.85843e-05
3.66666e-05
8.67943e-05
7.25664e-05
7.25721e-05
7.25658e-05
7.25714e-05
8.68822e-05
6.97324e-05
6.97513e-05
6.97448e-05
4.98566e-05
5.70659e-05
6.90332e-05
5.6852e-05
6.90255e-05
6.97559e-05
7.11542e-05
7.29975e-05
6.99187e-05
7.31006e-05
7.11504e-05
6.9744e-05
4.95861e-05
5.64687e-05
6.90189e-05
5.66886e-05
6.97335e-05
6.90251e-05
7.11307e-05
7.32481e-05
6.99254e-05
7.315e-05
7.11344e-05
6.97442e-05
4.98554e-05
5.70634e-05
6.9033e-05
5.68454e-05
6.90253e-05
6.97554e-05
7.1153e-05
7.29765e-05
6.99156e-05
7.11492e-05
7.30849e-05
6.97435e-05
4.95851e-05
5.64619e-05
6.90187e-05
6.97329e-05
5.66863e-05
6.90249e-05
7.11295e-05
7.32334e-05
6.99223e-05
7.31295e-05
7.11333e-05
6.97686e-05
5.72199e-05
6.90348e-05
5.05794e-05
6.9757e-05
5.7428e-05
6.90447e-05
7.10912e-05
6.99611e-05
7.35238e-05
7.34366e-05
7.10945e-05
7.11145e-05
7.32951e-05
6.99547e-05
7.1111e-05
7.33911e-05
6.97698e-05
5.08292e-05
5.77754e-05
6.90591e-05
5.75729e-05
6.90473e-05
6.97817e-05
6.9768e-05
5.72135e-05
6.90346e-05
5.05783e-05
6.97563e-05
5.74256e-05
6.90445e-05
7.10901e-05
6.99581e-05
7.35092e-05
7.34152e-05
7.10936e-05
7.11134e-05
7.32758e-05
6.99517e-05
7.11098e-05
7.33744e-05
6.97692e-05
5.08281e-05
5.77732e-05
6.9059e-05
5.75667e-05
6.90471e-05
6.97812e-05
6.97938e-05
6.97746e-05
6.97949e-05
6.97758e-05
8.67464e-05
7.25935e-05
7.25872e-05
8.66535e-05
7.25942e-05
7.25879e-05
5.54071e-05
3.70852e-05
5.8109e-05
6.86279e-05
5.55116e-05
3.69521e-05
6.85992e-05
5.54749e-05
3.71059e-05
5.81184e-05
6.86395e-05
5.55792e-05
3.69706e-05
6.86104e-05
5.51778e-05
6.85524e-05
3.65298e-05
5.79689e-05
5.50694e-05
3.66654e-05
6.85833e-05
5.5243e-05
6.85639e-05
3.65493e-05
5.79791e-05
5.51375e-05
3.66855e-05
6.85945e-05
8.67921e-05
7.25715e-05
7.25653e-05
8.68817e-05
7.25709e-05
7.25646e-05
6.97323e-05
6.97511e-05
6.97336e-05
6.97523e-05
6.97093e-05
6.96909e-05
6.97118e-05
6.96935e-05
8.70583e-05
7.25276e-05
7.25214e-05
7.25269e-05
7.25208e-05
8.71399e-05
5.58328e-05
3.73661e-05
6.86439e-05
5.8376e-05
5.57346e-05
6.86726e-05
3.75026e-05
5.59031e-05
3.73846e-05
6.86569e-05
5.83874e-05
5.58014e-05
6.86849e-05
3.75189e-05
8.70143e-05
7.25495e-05
7.25433e-05
8.69305e-05
7.25502e-05
7.25439e-05
5.60528e-05
6.87143e-05
5.8506e-05
3.79139e-05
6.86874e-05
5.61471e-05
3.7776e-05
5.61198e-05
6.87266e-05
5.85179e-05
3.79284e-05
6.87004e-05
5.62162e-05
3.77974e-05
6.97968e-05
5.17268e-05
6.90963e-05
5.84292e-05
6.90791e-05
5.82321e-05
6.98092e-05
7.10751e-05
7.35561e-05
6.99867e-05
7.10719e-05
7.36363e-05
6.97955e-05
5.15111e-05
6.90624e-05
5.79072e-05
6.90763e-05
6.97833e-05
5.81101e-05
7.10518e-05
7.37557e-05
6.99929e-05
7.36814e-05
7.10549e-05
8.70553e-05
7.25223e-05
7.25277e-05
7.25216e-05
7.25271e-05
8.71423e-05
5.59076e-05
3.73883e-05
6.8654e-05
5.83836e-05
6.86852e-05
5.58012e-05
3.75202e-05
5.58383e-05
3.73645e-05
6.86444e-05
5.8378e-05
3.75009e-05
5.57312e-05
6.86753e-05
8.70186e-05
7.25443e-05
7.25498e-05
7.25449e-05
8.69291e-05
7.25504e-05
5.61186e-05
6.87275e-05
5.85136e-05
3.7928e-05
6.86969e-05
3.78007e-05
5.62172e-05
5.6049e-05
6.87173e-05
5.85084e-05
3.79133e-05
3.77767e-05
6.86872e-05
5.61475e-05
6.971e-05
6.96914e-05
6.97956e-05
5.17251e-05
6.90938e-05
5.84262e-05
6.90806e-05
5.82307e-05
6.98078e-05
7.10723e-05
7.35501e-05
6.99856e-05
7.1069e-05
7.36327e-05
6.97942e-05
5.15111e-05
6.90624e-05
5.7906e-05
6.90755e-05
6.9782e-05
5.81067e-05
7.1049e-05
7.37544e-05
6.99919e-05
7.3673e-05
7.10522e-05
6.97947e-05
5.17326e-05
5.84136e-05
6.90952e-05
5.8241e-05
6.90774e-05
6.9807e-05
7.10729e-05
7.35655e-05
6.99879e-05
7.36463e-05
7.1069e-05
6.97933e-05
5.14971e-05
5.79173e-05
6.90609e-05
5.80935e-05
6.97812e-05
6.90754e-05
7.10489e-05
7.37669e-05
6.99943e-05
7.36897e-05
7.10527e-05
6.97959e-05
5.17284e-05
6.90958e-05
5.84243e-05
6.90778e-05
5.82307e-05
6.98083e-05
7.10735e-05
7.35473e-05
6.99854e-05
7.10702e-05
7.36307e-05
6.97946e-05
5.15047e-05
6.90613e-05
5.7906e-05
6.97824e-05
6.9076e-05
5.81048e-05
7.10502e-05
7.37511e-05
6.99914e-05
7.36723e-05
7.10534e-05
8.70546e-05
7.25212e-05
7.25268e-05
7.25206e-05
7.25262e-05
8.71342e-05
5.59034e-05
3.73864e-05
6.86549e-05
5.83827e-05
6.86828e-05
5.5803e-05
3.75216e-05
5.58353e-05
3.73684e-05
6.86448e-05
5.83787e-05
3.75021e-05
5.57354e-05
6.86729e-05
8.70117e-05
7.25432e-05
7.25488e-05
7.25438e-05
8.69259e-05
7.25494e-05
5.61197e-05
6.87247e-05
5.85137e-05
3.793e-05
6.86982e-05
3.77986e-05
5.62212e-05
5.60524e-05
6.87147e-05
5.85094e-05
3.79118e-05
3.77802e-05
6.86882e-05
5.61544e-05
6.971e-05
6.96916e-05
6.97966e-05
5.1734e-05
5.84282e-05
6.90964e-05
5.82361e-05
6.90789e-05
6.98089e-05
7.10745e-05
7.35669e-05
6.99889e-05
7.36513e-05
7.10712e-05
6.97952e-05
5.15037e-05
5.79114e-05
6.90624e-05
5.81088e-05
6.97831e-05
6.90764e-05
7.10512e-05
7.37712e-05
6.99951e-05
7.36923e-05
7.10544e-05
6.9796e-05
5.1733e-05
5.84259e-05
6.90962e-05
5.82302e-05
6.90787e-05
6.98084e-05
7.10735e-05
7.35472e-05
6.9986e-05
7.10702e-05
7.36359e-05
6.97947e-05
5.15025e-05
5.79055e-05
6.90622e-05
6.97825e-05
5.81064e-05
6.90763e-05
7.10502e-05
7.37562e-05
6.99923e-05
7.36731e-05
7.10534e-05
6.97097e-05
6.96914e-05
6.9711e-05
6.96928e-05
1.59853e-05
1.59859e-05
1.56003e-05
1.58589e-05
1.58595e-05
1.62835e-05
1.64157e-05
3.44266e-05
1.72584e-05
2.26189e-05
2.26262e-05
1.54941e-05
1.54947e-05
1.51928e-05
1.53771e-05
1.53776e-05
1.57731e-05
1.5898e-05
3.6183e-05
2.36766e-05
2.3681e-05
1.76192e-05
3.60547e-05
2.37503e-05
2.37552e-05
3.44256e-05
2.25509e-05
2.25532e-05
1.72716e-05
3.42901e-05
2.26358e-05
2.26413e-05
3.56179e-05
1.75011e-05
2.34647e-05
2.34734e-05
2.33767e-05
2.33785e-05
3.5751e-05
3.4434e-05
1.72673e-05
2.26418e-05
2.26336e-05
3.56127e-05
1.75022e-05
2.34648e-05
2.34749e-05
2.33922e-05
2.3375e-05
3.57551e-05
3.4429e-05
2.25513e-05
2.256e-05
1.72689e-05
2.2629e-05
3.42908e-05
2.26473e-05
3.56196e-05
1.75028e-05
2.34825e-05
2.34614e-05
2.33781e-05
2.33894e-05
3.57514e-05
3.56208e-05
1.75109e-05
2.34626e-05
2.34646e-05
3.57494e-05
2.33862e-05
2.33927e-05
3.61841e-05
2.36696e-05
2.36715e-05
1.76327e-05
3.60502e-05
2.3761e-05
2.37759e-05
3.61886e-05
2.36825e-05
2.36664e-05
1.76322e-05
2.37572e-05
3.60487e-05
2.37515e-05
3.61833e-05
2.36696e-05
2.36782e-05
1.76334e-05
2.37515e-05
3.60546e-05
2.37702e-05
1.59851e-05
1.59855e-05
1.55999e-05
1.58587e-05
1.58591e-05
1.62834e-05
1.64156e-05
1.59856e-05
1.59858e-05
1.56005e-05
1.58592e-05
1.58594e-05
1.62835e-05
1.64157e-05
1.59851e-05
1.59856e-05
1.56e-05
1.58587e-05
1.58592e-05
1.62833e-05
1.64155e-05
1.54941e-05
1.56133e-05
1.56139e-05
1.5735e-05
1.57356e-05
1.61532e-05
1.60247e-05
1.54937e-05
1.56131e-05
1.56135e-05
1.57348e-05
1.57352e-05
1.6153e-05
1.60245e-05
1.54943e-05
1.56136e-05
1.56138e-05
1.57353e-05
1.57355e-05
1.61531e-05
1.60246e-05
1.54937e-05
1.56131e-05
1.56136e-05
1.57348e-05
1.57353e-05
1.6153e-05
1.60245e-05
1.83005e-05
2.58867e-05
3.0153e-05
1.69917e-05
3.00142e-05
1.69789e-05
1.8317e-05
2.07179e-05
3.69337e-05
4.28198e-05
2.53554e-05
2.52625e-05
3.68198e-05
2.07566e-05
1.82885e-05
2.5889e-05
1.70031e-05
3.01515e-05
1.69709e-05
3.00199e-05
1.83337e-05
2.05698e-05
2.4951e-05
3.64062e-05
4.25664e-05
2.04999e-05
2.50373e-05
3.6527e-05
1.82014e-05
2.56155e-05
1.68841e-05
2.95944e-05
1.81595e-05
1.69129e-05
2.97243e-05
2.07013e-05
3.69351e-05
4.28218e-05
2.53514e-05
2.52652e-05
3.68195e-05
2.07701e-05
3.47384e-05
1.73375e-05
2.28996e-05
2.29042e-05
2.283e-05
2.28348e-05
3.48741e-05
1.54939e-05
1.54943e-05
1.51925e-05
1.53769e-05
1.53773e-05
1.57729e-05
1.58978e-05
1.54944e-05
1.54946e-05
1.5193e-05
1.53773e-05
1.53776e-05
1.5773e-05
1.58979e-05
1.5494e-05
1.54944e-05
1.51926e-05
1.5377e-05
1.53774e-05
1.57729e-05
1.58978e-05
1.88976e-05
2.75258e-05
3.18559e-05
1.7426e-05
3.17241e-05
1.74085e-05
1.89171e-05
2.14121e-05
2.62356e-05
3.80305e-05
4.39904e-05
2.13693e-05
2.63305e-05
3.81523e-05
1.87594e-05
2.72375e-05
3.12944e-05
1.7287e-05
1.87374e-05
3.14325e-05
1.73057e-05
2.16004e-05
3.85514e-05
4.4225e-05
2.66673e-05
2.65675e-05
3.84269e-05
2.16404e-05
1.88818e-05
2.75287e-05
1.74412e-05
3.18598e-05
1.73994e-05
3.173e-05
1.89438e-05
2.14253e-05
2.62351e-05
3.80348e-05
4.39925e-05
2.1353e-05
2.63307e-05
3.81475e-05
1.8773e-05
2.72403e-05
1.72787e-05
3.13009e-05
1.87229e-05
1.73176e-05
3.14329e-05
2.15818e-05
3.85396e-05
4.42272e-05
2.66603e-05
2.65707e-05
3.84343e-05
2.16662e-05
3.64825e-05
1.77224e-05
2.40442e-05
2.4057e-05
2.39744e-05
2.39741e-05
3.66103e-05
3.47365e-05
1.7329e-05
2.29075e-05
2.29128e-05
3.48714e-05
2.28207e-05
2.28236e-05
3.53111e-05
1.74306e-05
2.30971e-05
2.30996e-05
3.51788e-05
2.3184e-05
2.31893e-05
1.82883e-05
2.5886e-05
3.01567e-05
1.70009e-05
3.00127e-05
1.69701e-05
1.83324e-05
2.05633e-05
2.49509e-05
3.64081e-05
4.25674e-05
3.65238e-05
2.0504e-05
2.50372e-05
1.82003e-05
2.5617e-05
2.95892e-05
1.68834e-05
2.97293e-05
1.81593e-05
1.69106e-05
2.07058e-05
3.69347e-05
4.28185e-05
2.53517e-05
3.6821e-05
2.52644e-05
2.07652e-05
1.83004e-05
2.5884e-05
3.01541e-05
1.70011e-05
3.00115e-05
1.697e-05
1.83177e-05
2.05518e-05
2.49442e-05
3.64021e-05
4.25686e-05
2.0516e-05
3.65208e-05
2.50544e-05
1.81867e-05
2.56179e-05
2.95866e-05
1.68835e-05
1.81715e-05
2.97275e-05
1.69106e-05
2.07159e-05
3.69347e-05
4.28243e-05
2.53728e-05
3.68143e-05
2.07556e-05
2.52621e-05
1.84736e-05
3.04397e-05
1.70643e-05
2.64192e-05
1.84282e-05
3.05836e-05
1.70976e-05
2.11309e-05
2.5997e-05
4.3535e-05
3.77466e-05
2.59085e-05
3.76365e-05
2.11971e-05
2.09796e-05
3.72315e-05
2.55836e-05
4.32919e-05
2.56761e-05
2.09145e-05
3.73442e-05
1.85713e-05
2.66959e-05
3.10105e-05
1.7204e-05
3.08665e-05
1.71663e-05
1.86185e-05
1.84589e-05
3.04386e-05
1.70638e-05
2.64197e-05
1.84394e-05
3.05794e-05
1.70977e-05
2.1142e-05
2.60169e-05
4.35392e-05
3.77481e-05
3.7629e-05
2.59047e-05
2.11869e-05
2.09654e-05
3.72246e-05
2.55793e-05
4.32967e-05
2.09244e-05
3.73411e-05
2.56869e-05
1.85847e-05
2.6694e-05
3.10058e-05
1.72044e-05
3.08669e-05
1.7166e-05
1.86059e-05
3.47291e-05
1.73297e-05
2.29017e-05
2.29129e-05
2.28155e-05
2.2833e-05
3.48763e-05
3.53191e-05
1.7433e-05
2.31096e-05
2.30938e-05
2.31805e-05
3.51737e-05
2.31854e-05
1.82933e-05
2.58848e-05
3.01491e-05
1.69939e-05
3.00184e-05
1.69777e-05
1.83287e-05
2.05646e-05
2.49428e-05
3.64064e-05
4.25709e-05
3.65256e-05
2.05029e-05
2.50526e-05
1.8195e-05
2.56181e-05
2.95938e-05
1.68903e-05
2.97242e-05
1.81717e-05
1.69048e-05
2.07009e-05
3.69353e-05
4.28225e-05
2.53697e-05
3.68207e-05
2.52602e-05
2.07674e-05
1.82885e-05
2.58829e-05
1.69938e-05
3.01523e-05
1.69775e-05
3.00136e-05
1.83317e-05
2.05624e-05
2.49554e-05
3.64033e-05
4.25697e-05
2.0504e-05
3.65181e-05
2.5043e-05
1.82003e-05
2.56199e-05
1.68901e-05
2.95868e-05
1.81595e-05
1.69046e-05
2.97274e-05
2.0706e-05
3.69346e-05
4.28237e-05
2.53622e-05
3.68153e-05
2.07655e-05
2.52699e-05
1.84707e-05
3.04448e-05
1.70711e-05
2.64203e-05
1.84251e-05
3.05765e-05
1.70894e-05
2.11254e-05
2.60142e-05
4.35386e-05
3.77518e-05
2.59032e-05
3.76339e-05
2.12009e-05
2.09836e-05
3.72297e-05
2.55776e-05
4.32959e-05
2.56841e-05
2.09094e-05
3.73473e-05
1.85701e-05
2.66943e-05
3.10032e-05
1.71943e-05
3.08719e-05
1.71742e-05
1.8617e-05
1.84726e-05
1.70711e-05
3.04409e-05
2.64192e-05
1.84285e-05
1.70894e-05
3.05774e-05
2.1131e-05
2.60084e-05
4.35396e-05
3.77439e-05
3.76302e-05
2.59121e-05
2.11956e-05
2.09768e-05
3.72255e-05
2.55896e-05
4.32955e-05
2.09141e-05
3.73385e-05
2.56804e-05
1.85713e-05
2.66944e-05
1.71943e-05
3.10067e-05
1.71742e-05
3.08695e-05
1.86171e-05
1.82987e-05
2.58808e-05
1.69907e-05
3.01458e-05
1.69778e-05
3.00152e-05
1.83153e-05
2.07164e-05
3.69263e-05
4.28189e-05
2.53645e-05
2.52545e-05
3.68138e-05
2.07499e-05
1.8458e-05
3.04395e-05
1.70724e-05
2.64135e-05
1.84396e-05
3.05786e-05
1.70872e-05
2.11446e-05
2.60021e-05
4.35375e-05
3.77513e-05
2.11881e-05
2.59058e-05
3.76297e-05
2.09663e-05
3.72264e-05
2.55834e-05
4.32908e-05
2.09267e-05
2.56737e-05
3.73462e-05
1.85841e-05
2.66962e-05
3.1008e-05
1.71905e-05
1.86048e-05
3.08671e-05
1.71753e-05
1.84561e-05
1.70716e-05
3.04411e-05
2.64193e-05
1.84381e-05
1.70868e-05
3.05717e-05
2.11443e-05
2.60075e-05
4.35353e-05
3.77384e-05
3.76293e-05
2.5901e-05
2.11807e-05
2.09604e-05
3.72217e-05
2.55735e-05
4.32903e-05
2.09246e-05
3.73352e-05
2.56777e-05
1.85833e-05
2.66922e-05
1.71921e-05
3.09999e-05
1.71758e-05
3.08694e-05
1.86027e-05
3.47379e-05
1.73317e-05
2.29162e-05
2.28978e-05
2.28315e-05
2.28228e-05
3.48732e-05
3.53147e-05
1.74342e-05
2.30986e-05
2.31069e-05
2.31907e-05
3.518e-05
2.31797e-05
1.82902e-05
2.5883e-05
1.70017e-05
3.01518e-05
1.69713e-05
3.00145e-05
1.83339e-05
2.05656e-05
2.49568e-05
3.63982e-05
4.25706e-05
2.50448e-05
2.0506e-05
3.65314e-05
1.82019e-05
2.56205e-05
1.68843e-05
2.95895e-05
1.6912e-05
1.81613e-05
2.97272e-05
2.07076e-05
3.69387e-05
4.28239e-05
2.536e-05
2.52722e-05
3.68069e-05
2.07668e-05
1.84739e-05
1.70649e-05
3.04459e-05
2.64163e-05
1.8428e-05
1.70983e-05
3.05777e-05
2.11267e-05
2.6002e-05
4.35381e-05
3.77485e-05
2.11995e-05
2.59065e-05
3.76334e-05
2.09831e-05
3.72287e-05
2.55841e-05
4.32921e-05
2.09101e-05
2.56782e-05
3.73475e-05
1.85717e-05
2.66979e-05
1.72043e-05
3.10062e-05
1.86167e-05
1.71673e-05
3.08722e-05
1.84743e-05
1.70655e-05
3.04419e-05
2.6421e-05
1.84301e-05
1.70974e-05
3.05808e-05
2.11328e-05
2.60054e-05
4.35393e-05
3.77503e-05
3.76183e-05
2.59184e-05
2.11969e-05
2.09798e-05
3.72201e-05
2.55918e-05
4.32964e-05
2.09163e-05
3.73513e-05
2.56818e-05
1.85735e-05
2.66939e-05
1.72031e-05
3.10078e-05
1.71682e-05
3.08673e-05
1.86196e-05
3.53104e-05
1.74239e-05
2.31054e-05
2.31107e-05
3.51819e-05
2.31769e-05
2.31809e-05
3.64807e-05
1.77099e-05
2.40642e-05
2.40732e-05
3.66093e-05
2.39605e-05
2.39603e-05
1.88821e-05
2.75247e-05
3.18686e-05
1.74449e-05
3.17209e-05
1.73956e-05
1.8944e-05
2.143e-05
2.62357e-05
3.80374e-05
4.39902e-05
3.81466e-05
2.13563e-05
2.633e-05
1.87742e-05
2.72427e-05
3.12953e-05
1.72791e-05
3.14379e-05
1.87239e-05
1.73176e-05
2.15814e-05
3.85465e-05
4.42243e-05
2.66562e-05
3.84328e-05
2.65715e-05
2.16706e-05
1.88979e-05
2.75211e-05
3.18548e-05
1.74456e-05
3.17252e-05
1.73953e-05
1.89199e-05
2.1414e-05
2.62361e-05
3.80329e-05
4.39939e-05
2.13667e-05
3.81437e-05
2.63334e-05
1.87597e-05
2.72445e-05
3.12965e-05
1.72783e-05
1.87361e-05
3.14322e-05
1.7318e-05
2.15991e-05
3.85506e-05
4.42302e-05
2.66658e-05
3.84268e-05
2.16424e-05
2.65751e-05
3.64786e-05
1.77095e-05
2.40428e-05
2.40625e-05
2.39632e-05
2.398e-05
3.6606e-05
1.88817e-05
2.75255e-05
3.18585e-05
1.74289e-05
3.17273e-05
1.74068e-05
1.89425e-05
2.14321e-05
2.6233e-05
3.80351e-05
4.39933e-05
3.81509e-05
2.13524e-05
2.63455e-05
1.87734e-05
2.72414e-05
3.12998e-05
1.72864e-05
3.14333e-05
1.87235e-05
1.73084e-05
2.15771e-05
3.85482e-05
4.42311e-05
2.66737e-05
3.84314e-05
2.65642e-05
2.16695e-05
1.88822e-05
2.75244e-05
1.74291e-05
3.18672e-05
1.74069e-05
3.17207e-05
1.89416e-05
2.14227e-05
2.62416e-05
3.80323e-05
4.39923e-05
2.13562e-05
3.81447e-05
2.63363e-05
1.87724e-05
2.72415e-05
1.72864e-05
3.12976e-05
1.87241e-05
1.73086e-05
3.14371e-05
2.15834e-05
3.85361e-05
4.42304e-05
2.66679e-05
3.84293e-05
2.16661e-05
2.65751e-05
1.88969e-05
2.75224e-05
1.74274e-05
3.18575e-05
1.74084e-05
3.17239e-05
1.89165e-05
2.14065e-05
2.62285e-05
3.80282e-05
4.39902e-05
2.6338e-05
2.13659e-05
3.8139e-05
1.87572e-05
2.72409e-05
1.72872e-05
3.12963e-05
1.73069e-05
1.87352e-05
3.14291e-05
2.15995e-05
3.85356e-05
4.42243e-05
2.66849e-05
2.65586e-05
3.84271e-05
2.16356e-05
3.64812e-05
1.77102e-05
2.40637e-05
2.40419e-05
2.39759e-05
2.39642e-05
3.66262e-05
1.88858e-05
2.75254e-05
1.74406e-05
3.18638e-05
1.73997e-05
3.17212e-05
1.89452e-05
2.14255e-05
2.62445e-05
3.80261e-05
4.39944e-05
2.63443e-05
2.13589e-05
3.81525e-05
1.87747e-05
2.72415e-05
1.7281e-05
3.1296e-05
1.73155e-05
1.87263e-05
3.14357e-05
2.15853e-05
3.85401e-05
4.42279e-05
2.66863e-05
2.65682e-05
3.84227e-05
2.16671e-05
3.60233e-05
3.60197e-05
3.60197e-05
3.60085e-05
3.39295e-05
3.38854e-05
3.38854e-05
3.39585e-05
3.21568e-05
3.20019e-05
3.20017e-05
3.19434e-05
3.05325e-05
3.0221e-05
3.02204e-05
2.99763e-05
2.90296e-05
2.85441e-05
2.85435e-05
2.81081e-05
2.76311e-05
2.6976e-05
2.69757e-05
2.63741e-05
2.63256e-05
2.55188e-05
2.55189e-05
2.47902e-05
2.51053e-05
2.41718e-05
2.41723e-05
2.33608e-05
2.39644e-05
2.29368e-05
2.29372e-05
2.20875e-05
2.28987e-05
2.18126e-05
2.18128e-05
2.09688e-05
2.19045e-05
2.07966e-05
2.07966e-05
1.99953e-05
2.09785e-05
1.98857e-05
1.98857e-05
1.91627e-05
2.01157e-05
1.90778e-05
1.90779e-05
1.8469e-05
1.93148e-05
1.83696e-05
1.83699e-05
1.79092e-05
1.8575e-05
1.77581e-05
1.77587e-05
1.74784e-05
1.78935e-05
1.72419e-05
1.72427e-05
1.71685e-05
1.72682e-05
1.682e-05
1.68209e-05
1.69859e-05
1.66969e-05
1.64915e-05
1.64924e-05
1.69394e-05
1.61783e-05
1.62562e-05
1.62573e-05
1.7034e-05
1.61145e-05
1.7261e-05
3.62977e-05
3.62919e-05
3.62919e-05
3.62977e-05
3.62919e-05
3.62919e-05
3.62908e-05
3.62908e-05
3.62908e-05
3.62908e-05
3.62919e-05
3.62919e-05
3.62978e-05
3.62919e-05
3.62919e-05
3.62977e-05
3.60086e-05
3.42659e-05