/*--------------------------------*- C++ -*----------------------------------*\
| =========                 |                                                 |
| \\      /  F ield         | OpenFOAM: The Open Source CFD Toolbox           |
|  \\    /   O peration     | Version:  2312                                  |
|   \\  /    A nd           | Website:  www.openfoam.com                      |
|    \\/     M anipulation  |                                                 |
\*---------------------------------------------------------------------------*/
FoamFile
{
    version     2.0;
    format      ascii;
    arch        "LSB;label=32;scalar=64";
    class       volVectorField;
    location    "550";
    object      U;
}
// * * * * * * * * * * * * * * * * * * * * * * * * * * * * * * * * * * * * * //

dimensions      [0 1 -1 0 0 0 0];

internalField   nonuniform List<vector> 
43008
(
(6.34597e-05 6.35553e-05 0.108289)
(5.91464e-05 -9.55411e-05 0.107557)
(6.2253e-05 6.23202e-05 0.108604)
(-9.36972e-05 5.81811e-05 0.107771)
(5.81356e-05 -9.36863e-05 0.107771)
(-0.00014957 -0.000149545 0.106584)
(0.000152321 0.000152436 0.106508)
(1.25743e-05 1.27369e-05 0.106725)
(5.92746e-05 9.55558e-05 0.107557)
(-5.94125e-05 9.56619e-05 0.107556)
(5.85575e-05 9.42336e-05 0.107719)
(-5.86285e-05 9.42911e-05 0.107718)
(-1.26441e-05 1.26985e-05 0.106725)
(9.55171e-05 5.92645e-05 0.107557)
(9.555e-05 -5.93576e-05 0.107556)
(9.41672e-05 5.85297e-05 0.107719)
(9.41528e-05 -5.85724e-05 0.107718)
(-9.4158e-05 5.84477e-05 0.107719)
(-9.40794e-05 -5.8497e-05 0.107718)
(0.000152402 -0.000152436 0.106508)
(1.26212e-05 -1.25695e-05 0.106725)
(-5.9212e-05 -9.55301e-05 0.107556)
(5.8392e-05 -9.41346e-05 0.107719)
(-5.84301e-05 -9.4142e-05 0.107718)
(-1.2663e-05 -1.25486e-05 0.106724)
(0.000149533 0.000149592 0.106584)
(5.83087e-05 9.37873e-05 0.10777)
(-5.83621e-05 9.38201e-05 0.10777)
(-0.000149576 0.000149545 0.106585)
(9.37172e-05 5.82629e-05 0.107771)
(9.36992e-05 -5.83065e-05 0.10777)
(-9.36131e-05 -5.8221e-05 0.10777)
(0.000149554 -0.000149579 0.106584)
(-5.81582e-05 -9.36883e-05 0.10777)
(2.09955e-06 2.08824e-05 0.0947508)
(-2.83967e-06 3.83151e-05 0.0840948)
(2.80796e-06 7.04978e-05 0.0947942)
(-5.20849e-06 -1.22296e-06 0.0840819)
(5.86392e-06 -4.8881e-06 0.0725372)
(2.08165e-05 2.1153e-06 0.0947507)
(3.82774e-05 -2.7772e-06 0.0840948)
(7.04569e-05 2.84647e-06 0.0947938)
(-1.3287e-06 -5.3403e-06 0.0840821)
(-6.35393e-05 6.35181e-05 0.108289)
(6.34648e-05 -6.35176e-05 0.108289)
(-6.35366e-05 -6.35175e-05 0.108289)
(6.25554e-05 6.26276e-05 0.108526)
(-6.26005e-05 6.25948e-05 0.108526)
(6.25372e-05 -6.25748e-05 0.108526)
(-6.25912e-05 -6.2568e-05 0.108526)
(-6.21865e-05 6.39338e-06 0.103006)
(-9.50848e-05 5.89629e-05 0.107612)
(-3.03048e-05 2.20472e-06 0.0963723)
(-0.000104341 2.11071e-05 0.108126)
(1.637e-05 -3.45661e-06 0.0725068)
(-4.75598e-06 5.94514e-06 0.0725358)
(6.29618e-06 -6.21051e-05 0.103005)
(2.12546e-05 -0.000104766 0.108055)
(3.09074e-05 -7.53154e-05 0.0963602)
(5.88955e-05 -9.50654e-05 0.107612)
(7.57923e-06 -0.000126244 0.102968)
(2.11167e-05 -0.000104351 0.108126)
(2.19065e-06 -3.02146e-05 0.0963696)
(-1.41563e-05 -1.39984e-05 0.106681)
(-1.56319e-05 2.01711e-06 0.0899652)
(2.06477e-06 -1.56338e-05 0.0899617)
(1.60877e-06 1.53142e-05 0.0943849)
(-1.8786e-06 3.52067e-05 0.083821)
(2.33775e-06 6.3641e-05 0.0944191)
(-4.55012e-06 -3.31894e-06 0.0838168)
(-3.49942e-06 1.5586e-05 0.072325)
(5.59247e-06 -5.20568e-06 0.0723589)
(1.52572e-05 1.6588e-06 0.0943849)
(3.51847e-05 -1.94824e-06 0.0838216)
(6.36272e-05 2.35526e-06 0.0944189)
(-3.34127e-06 -4.51651e-06 0.0838174)
(-6.22939e-05 6.22914e-05 0.108604)
(6.2233e-05 -6.22657e-05 0.108604)
(-6.22814e-05 -6.22561e-05 0.108604)
(-5.54083e-05 5.27442e-06 0.102755)
(-6.98202e-05 2.84589e-05 0.0960261)
(-0.000103177 2.06929e-05 0.108337)
(-9.32227e-05 5.79223e-05 0.107821)
(-0.000118579 6.57952e-06 0.102725)
(-2.55907e-05 8.00729e-07 0.0960423)
(-0.000102796 2.05583e-05 0.108405)
(1.55725e-05 -3.48868e-06 0.0723246)
(-5.16466e-06 5.76314e-06 0.0723578)
(5.16101e-06 -5.53901e-05 0.102754)
(2.07015e-05 -0.000103196 0.108336)
(2.84581e-05 -6.98595e-05 0.0960267)
(5.7851e-05 -9.32069e-05 0.107821)
(6.66695e-06 -0.000118624 0.102725)
(2.05595e-05 -0.000102794 0.108405)
(7.78024e-07 -2.54999e-05 0.0960398)
(-3.43081e-05 -1.83065e-05 0.0896685)
(-1.82334e-05 -3.43112e-05 0.0896673)
(-1.12071e-05 -1.11045e-05 0.106761)
(-1.30698e-05 2.61579e-06 0.0896672)
(2.65639e-06 -1.30511e-05 0.0896637)
(3.39831e-06 1.63102e-05 0.0725072)
(-6.06831e-06 -4.80521e-06 0.0725366)
(1.62803e-05 3.37315e-06 0.0725061)
(-4.98567e-06 -6.21655e-06 0.072536)
(1.95091e-05 3.69427e-05 0.0899757)
(3.68957e-05 1.9411e-05 0.089973)
(1.39945e-05 1.41858e-05 0.106682)
(-2.09656e-06 1.56454e-05 0.089966)
(1.5386e-05 -2.12317e-06 0.0899637)
(-5.58452e-06 -4.99015e-06 0.0724453)
(3.50591e-06 1.60187e-05 0.0724138)
(-5.02279e-06 -5.86126e-06 0.0724451)
(1.58768e-05 3.35824e-06 0.0724126)
(0.000150976 0.000151072 0.10655)
(-2.26878e-06 1.43369e-05 0.0898133)
(1.42482e-05 -2.36728e-06 0.0898112)
(1.88668e-05 3.57098e-05 0.089819)
(3.55326e-05 1.88095e-05 0.0898162)
(-2.20334e-06 2.08582e-05 0.0947507)
(2.70865e-06 3.81925e-05 0.0840946)
(-2.96371e-06 7.0477e-05 0.0947942)
(5.049e-06 -1.29499e-06 0.0840819)
(6.33353e-06 6.21429e-05 0.103006)
(3.08385e-05 7.54195e-05 0.0963599)
(2.12491e-05 0.000104791 0.108055)
(5.90372e-05 9.51261e-05 0.107612)
(7.47993e-06 0.000126338 0.102969)
(2.08341e-06 3.03572e-05 0.09637)
(2.11135e-05 0.000104395 0.108126)
(-6.40438e-06 6.21221e-05 0.103006)
(-3.09303e-05 7.53042e-05 0.0963589)
(-2.12952e-05 0.000104801 0.108055)
(-5.91699e-05 9.5213e-05 0.107611)
(-7.63536e-06 0.000126308 0.102969)
(-2.27304e-06 3.02562e-05 0.0963688)
(-2.11627e-05 0.000104402 0.108126)
(2.55336e-06 6.69439e-05 0.0946025)
(-4.65498e-06 -2.43884e-06 0.0839457)
(-2.24926e-06 3.6698e-05 0.0839543)
(1.83269e-06 1.79479e-05 0.0945636)
(-2.69958e-06 6.69371e-05 0.0946025)
(4.5634e-06 -2.36696e-06 0.0839458)
(2.20035e-06 3.66384e-05 0.0839545)
(-1.95671e-06 1.79488e-05 0.0945636)
(7.037e-06 0.000122511 0.102849)
(5.88088e-05 9.46968e-05 0.107666)
(1.46862e-06 2.781e-05 0.0962024)
(2.08418e-05 0.000103632 0.108267)
(2.96504e-05 7.26187e-05 0.0961905)
(2.09785e-05 0.000104018 0.108197)
(5.73826e-06 5.87058e-05 0.102882)
(-7.14952e-06 0.000122502 0.102849)
(-5.88972e-05 9.47512e-05 0.107665)
(-1.54298e-06 2.79031e-05 0.0962009)
(-2.0876e-05 0.000103634 0.108267)
(-2.97276e-05 7.25696e-05 0.0961898)
(-2.1017e-05 0.000104017 0.108197)
(-5.78763e-06 5.86964e-05 0.102883)
(-1.40967e-05 1.41467e-05 0.106682)
(1.91624e-06 1.55657e-05 0.0899637)
(-1.56842e-05 -2.04203e-06 0.0899686)
(4.7713e-06 -5.89431e-06 0.0725395)
(5.65654e-06 -4.85322e-06 0.0724459)
(-3.53153e-06 1.59011e-05 0.0724137)
(-0.000151069 0.000151043 0.10655)
(2.3438e-06 1.44463e-05 0.089811)
(-1.43429e-05 -2.36299e-06 0.0898158)
(-1.89158e-05 3.55843e-05 0.0898159)
(-3.55963e-05 1.88748e-05 0.0898184)
(5.02777e-06 -5.8016e-06 0.0724485)
(-1.59354e-05 3.47717e-06 0.0724116)
(6.20651e-05 6.36336e-06 0.103006)
(7.52924e-05 3.0894e-05 0.0963596)
(0.000104694 2.12744e-05 0.108055)
(9.50609e-05 5.90202e-05 0.107612)
(0.000126242 7.54486e-06 0.102968)
(3.01291e-05 2.0507e-06 0.0963693)
(0.000104283 2.1132e-05 0.108126)
(2.08202e-05 -2.15867e-06 0.0947503)
(3.82998e-05 2.7001e-06 0.0840942)
(7.04569e-05 -2.89147e-06 0.0947936)
(-1.17831e-06 5.18132e-06 0.0840811)
(6.20528e-05 -6.35203e-06 0.103005)
(0.000104721 -2.12874e-05 0.108055)
(7.53363e-05 -3.09431e-05 0.096359)
(9.50732e-05 -5.91046e-05 0.107611)
(0.000126219 -7.57751e-06 0.102968)
(0.000104303 -2.1154e-05 0.108126)
(3.0308e-05 -2.08904e-06 0.0963676)
(6.69109e-05 2.57908e-06 0.0946022)
(-2.38997e-06 -4.80159e-06 0.0839463)
(3.66343e-05 -2.32982e-06 0.0839544)
(1.79201e-05 1.88194e-06 0.0945636)
(0.000122414 7.08572e-06 0.102849)
(9.4627e-05 5.87813e-05 0.107666)
(2.77608e-05 1.43126e-06 0.0962019)
(0.000103524 2.08638e-05 0.108267)
(7.25185e-05 2.96386e-05 0.0961901)
(0.000103908 2.1e-05 0.108197)
(5.86734e-05 5.75196e-06 0.102883)
(6.69178e-05 -2.64348e-06 0.0946019)
(-2.26981e-06 4.86939e-06 0.0839451)
(3.66938e-05 2.31493e-06 0.0839538)
(1.79227e-05 -1.87489e-06 0.0945632)
(0.000122437 -7.11317e-06 0.102849)
(9.46133e-05 -5.88479e-05 0.107665)
(0.000103528 -2.08661e-05 0.108267)
(2.78689e-05 -1.33694e-06 0.0961999)
(0.000103913 -2.10096e-05 0.108197)
(7.25596e-05 -2.96562e-05 0.0961895)
(5.86804e-05 -5.74118e-06 0.102882)
(-2.09219e-05 2.26434e-06 0.0947517)
(1.24292e-06 -5.1122e-06 0.0840835)
(-6.21329e-05 -6.3558e-06 0.103006)
(-9.50395e-05 -5.90315e-05 0.107612)
(-0.00010432 -2.11787e-05 0.108126)
(-3.03424e-05 -2.14201e-06 0.09637)
(-2.09001e-05 -2.0553e-06 0.0947508)
(1.22004e-06 5.15955e-06 0.0840819)
(-0.000122399 7.01631e-06 0.102849)
(-9.46255e-05 5.87076e-05 0.107666)
(-2.78692e-05 1.48143e-06 0.0962047)
(-0.000103554 2.08305e-05 0.108267)
(-7.24726e-05 2.96407e-05 0.0961903)
(-0.000103944 2.09685e-05 0.108197)
(-5.87665e-05 5.83651e-06 0.102883)
(-6.69012e-05 2.58821e-06 0.0946008)
(2.36021e-06 -4.80788e-06 0.0839476)
(-3.66128e-05 -2.23057e-06 0.083953)
(-1.80259e-05 2.01603e-06 0.0945644)
(-0.000122435 -7.13464e-06 0.102849)
(-9.4566e-05 -5.87752e-05 0.107665)
(-0.000103541 -2.08814e-05 0.108267)
(-2.79692e-05 -1.41507e-06 0.0962025)
(-0.000103924 -2.10285e-05 0.108197)
(-7.25027e-05 -2.96424e-05 0.0961901)
(-5.87024e-05 -5.70549e-06 0.102882)
(-6.69221e-05 -2.62399e-06 0.0946021)
(2.33538e-06 4.83013e-06 0.083946)
(-3.67196e-05 2.30652e-06 0.0839543)
(-1.80016e-05 -1.77965e-06 0.0945636)
(3.6971e-05 -1.94756e-05 0.0899732)
(1.94691e-05 -3.69463e-05 0.0899752)
(1.40781e-05 -1.40331e-05 0.106681)
(1.56615e-05 2.01181e-06 0.0899616)
(-1.97637e-06 -1.562e-05 0.0899656)
(3.43664e-06 -1.63799e-05 0.0725068)
(-5.91368e-06 4.80531e-06 0.0725366)
(-4.97512e-06 5.8491e-06 0.0724447)
(1.59604e-05 -3.47854e-06 0.0724135)
(0.000151041 -0.000151076 0.10655)
(1.43351e-05 2.33423e-06 0.089809)
(-2.27773e-06 -1.42829e-05 0.089813)
(3.56143e-05 -1.88514e-05 0.0898166)
(1.88648e-05 -3.55635e-05 0.0898183)
(-5.79128e-06 5.028e-06 0.0724455)
(3.48592e-06 -1.59693e-05 0.0724136)
(-6.39644e-06 -6.20982e-05 0.103006)
(-2.12919e-05 -0.000104707 0.108055)
(-3.09182e-05 -7.5369e-05 0.0963589)
(-5.89406e-05 -9.50697e-05 0.107612)
(-7.55644e-06 -0.000126214 0.102967)
(-2.11467e-05 -0.000104284 0.108126)
(-2.10717e-06 -3.02086e-05 0.096368)
(2.12796e-06 -2.08902e-05 0.0947506)
(-2.70161e-06 -3.82918e-05 0.0840947)
(2.90096e-06 -7.04567e-05 0.0947936)
(-5.11537e-06 1.27156e-06 0.0840815)
(-2.12703e-06 -2.08527e-05 0.0947511)
(2.72625e-06 -3.83175e-05 0.0840944)
(-2.85692e-06 -7.04411e-05 0.094793)
(5.18164e-06 1.20674e-06 0.0840812)
(7.11506e-06 -0.00012244 0.102849)
(5.86515e-05 -9.46078e-05 0.107666)
(2.08454e-05 -0.000103551 0.108267)
(1.45569e-06 -2.7778e-05 0.096202)
(2.0983e-05 -0.000103965 0.108197)
(2.96329e-05 -7.25065e-05 0.0961907)
(5.73452e-06 -5.87257e-05 0.102882)
(-7.07344e-06 -0.000122392 0.102848)
(-5.86944e-05 -9.46075e-05 0.107666)
(-2.08656e-05 -0.000103503 0.108267)
(-1.36281e-06 -2.7751e-05 0.0962004)
(-2.10025e-05 -0.000103912 0.108197)
(-2.96337e-05 -7.25503e-05 0.0961897)
(-5.7612e-06 -5.87064e-05 0.102883)
(2.66971e-06 -6.69124e-05 0.0946018)
(-4.78131e-06 2.36602e-06 0.0839456)
(-2.29097e-06 -3.66651e-05 0.0839544)
(1.87783e-06 -1.8001e-05 0.0945635)
(-2.59089e-06 -6.69025e-05 0.0946013)
(4.85704e-06 2.30057e-06 0.0839453)
(2.34014e-06 -3.66874e-05 0.0839541)
(-1.84837e-06 -1.7965e-05 0.094564)
(4.79273e-06 5.91705e-06 0.0725369)
(5.98466e-06 4.75102e-06 0.0725355)
(-0.000151078 -0.000151033 0.10655)
(-1.43087e-05 2.33006e-06 0.0898126)
(2.37774e-06 -1.42883e-05 0.089809)
(-3.56118e-05 -1.8892e-05 0.0898177)
(-1.88213e-05 -3.56162e-05 0.0898163)
(5.02687e-06 5.80765e-06 0.0724458)
(-1.59768e-05 -3.48616e-06 0.0724136)
(5.87227e-06 4.97203e-06 0.0724445)
(-3.45113e-06 -1.59684e-05 0.0724132)
(3.62005e-06 1.56523e-05 0.0723248)
(-5.69608e-06 -5.22137e-06 0.0723586)
(1.55564e-05 3.48606e-06 0.0723239)
(-5.24808e-06 -5.70505e-06 0.0723582)
(1.83206e-05 3.44506e-05 0.08967)
(3.42797e-05 1.82943e-05 0.089667)
(1.11632e-05 1.13136e-05 0.106762)
(-2.54689e-06 1.3045e-05 0.0896676)
(1.30121e-05 -2.55946e-06 0.0896658)
(-1.71388e-06 1.53022e-05 0.0943849)
(1.91364e-06 3.52113e-05 0.0838216)
(-2.4638e-06 6.36514e-05 0.0944191)
(4.43319e-06 -3.34819e-06 0.0838168)
(5.14929e-06 5.53643e-05 0.102755)
(2.84987e-05 6.99482e-05 0.0960263)
(2.07029e-05 0.000103269 0.108337)
(5.80381e-05 9.33181e-05 0.107821)
(6.58995e-06 0.000118682 0.102725)
(7.47867e-07 2.555e-05 0.0960399)
(2.0562e-05 0.000102886 0.108405)
(-5.18371e-06 5.53601e-05 0.102755)
(-2.84799e-05 6.98821e-05 0.0960259)
(-2.07295e-05 0.000103261 0.108337)
(-5.80895e-05 9.3332e-05 0.107821)
(-6.66261e-06 0.000118681 0.102725)
(-8.30875e-07 2.55523e-05 0.0960387)
(-2.05883e-05 0.00010288 0.108405)
(-1.8167e-05 3.42799e-05 0.0896668)
(-3.43013e-05 1.82825e-05 0.089669)
(-1.12121e-05 1.12499e-05 0.106762)
(2.45118e-06 1.30552e-05 0.0896656)
(-1.31117e-05 -2.64577e-06 0.0896701)
(-1.55135e-05 3.47381e-06 0.0723224)
(5.2424e-06 -5.71927e-06 0.0723614)
(5.53256e-05 5.14775e-06 0.102755)
(6.98489e-05 2.84727e-05 0.096026)
(0.000103154 2.07221e-05 0.108337)
(9.32472e-05 5.79833e-05 0.107821)
(0.000118607 6.60705e-06 0.102724)
(2.54596e-05 7.77603e-07 0.0960397)
(0.000102772 2.05789e-05 0.108405)
(1.52653e-05 -1.62531e-06 0.0943846)
(3.5239e-05 2.00443e-06 0.0838207)
(6.36329e-05 -2.3781e-06 0.0944186)
(-3.22848e-06 4.62769e-06 0.0838161)
(5.5346e-05 -5.13991e-06 0.102755)
(0.000103152 -2.07146e-05 0.108337)
(6.99086e-05 -2.84459e-05 0.0960254)
(9.32271e-05 -5.8011e-05 0.107821)
(0.000118616 -6.62685e-06 0.102724)
(0.000102774 -2.05684e-05 0.108405)
(2.55771e-05 -6.3743e-07 0.0960376)
(-1.5364e-05 1.77348e-06 0.0943857)
(-3.51475e-05 -1.92982e-06 0.0838199)
(-6.36139e-05 2.34974e-06 0.0944175)
(3.32734e-06 -4.56499e-06 0.0838186)
(-5.53454e-05 -5.09765e-06 0.102755)
(-0.00010316 -2.07247e-05 0.108337)
(-6.9895e-05 -2.84603e-05 0.0960259)
(-9.31279e-05 -5.79354e-05 0.107821)
(-0.000118607 -6.61414e-06 0.102725)
(-0.000102785 -2.05771e-05 0.108405)
(-2.56749e-05 -7.15444e-07 0.0960402)
(-1.53437e-05 -1.54731e-06 0.0943849)
(-3.52417e-05 1.97468e-06 0.0838213)
(-6.36443e-05 -2.37467e-06 0.0944187)
(3.32752e-06 4.56262e-06 0.0838171)
(3.43254e-05 -1.82636e-05 0.0896674)
(1.82981e-05 -3.42635e-05 0.0896692)
(1.11747e-05 -1.11121e-05 0.106761)
(1.31079e-05 2.62766e-06 0.0896635)
(-2.5518e-06 -1.30564e-05 0.0896675)
(3.51878e-06 -1.55773e-05 0.0723247)
(-5.69368e-06 5.22546e-06 0.0723587)
(-5.13484e-06 -5.53609e-05 0.102755)
(-2.0712e-05 -0.000103153 0.108336)
(-2.84345e-05 -6.98852e-05 0.0960258)
(-5.78752e-05 -9.32148e-05 0.107821)
(-6.57131e-06 -0.000118582 0.102724)
(-2.05655e-05 -0.000102753 0.108405)
(-6.69172e-07 -2.54413e-05 0.0960382)
(1.64379e-06 -1.53514e-05 0.0943848)
(-1.95321e-06 -3.52111e-05 0.0838214)
(2.43798e-06 -6.36109e-05 0.0944184)
(-4.52104e-06 3.32819e-06 0.0838167)
(-1.60102e-06 -1.5312e-05 0.0943854)
(2.00782e-06 -3.52223e-05 0.0838212)
(-2.33434e-06 -6.36052e-05 0.0944178)
(4.59154e-06 3.2579e-06 0.0838164)
(-1.55744e-05 -3.52258e-06 0.0723247)
(5.22825e-06 5.69513e-06 0.0723589)
(-3.47591e-06 -1.55747e-05 0.0723244)
(5.77448e-06 5.16395e-06 0.0723576)
(-1.13606e-06 1.33313e-05 0.0780382)
(2.67168e-06 6.86932e-05 0.0946973)
(2.09855e-07 -1.02697e-05 0.079912)
(4.21113e-06 1.39527e-05 0.0928159)
(7.09283e-08 8.3968e-06 0.0798524)
(6.43386e-06 5.91889e-05 0.0927534)
(1.79186e-07 -6.15268e-06 0.0781087)
(2.33519e-06 -6.68502e-06 0.0694216)
(5.35176e-06 3.92234e-05 0.0880757)
(-5.60006e-06 -6.23809e-07 0.0841527)
(8.84401e-07 1.24711e-05 0.0693269)
(3.72037e-06 3.66774e-06 0.0881444)
(-8.14438e-08 -6.24815e-06 0.0781574)
(2.224e-06 2.2428e-05 0.0948475)
(-1.14009e-08 8.17444e-06 0.0799011)
(6.65396e-06 6.0708e-05 0.0928435)
(-1.37116e-06 1.32547e-05 0.078087)
(1.3953e-07 -1.05035e-05 0.0799604)
(4.40473e-06 1.52537e-05 0.0929056)
(9.14193e-07 1.23514e-05 0.0692836)
(3.67263e-06 2.93774e-06 0.088065)
(-2.53921e-06 3.75123e-05 0.0840235)
(5.3035e-06 3.82794e-05 0.0879958)
(2.41082e-06 -6.72042e-06 0.069378)
(5.93893e-06 -4.7738e-06 0.0725845)
(-3.45757e-06 1.61096e-05 0.0724595)
(1.33266e-05 -1.0214e-06 0.0780386)
(6.8648e-05 2.71081e-06 0.094697)
(1.38971e-05 4.21665e-06 0.092816)
(-1.02917e-05 2.63277e-07 0.0799123)
(5.91604e-05 6.4823e-06 0.0927533)
(8.37352e-06 1.51661e-07 0.0798525)
(-6.18149e-06 1.85592e-07 0.0781093)
(-6.75101e-06 2.38748e-06 0.0694223)
(3.91511e-05 5.43693e-06 0.0880758)
(-6.66633e-07 -5.31869e-06 0.0841528)
(1.24895e-05 9.5123e-07 0.0693277)
(3.54585e-06 3.80848e-06 0.0881445)
(-6.27684e-06 -3.03275e-08 0.0781579)
(2.23725e-05 2.27023e-06 0.0948473)
(6.0652e-05 6.69626e-06 0.0928433)
(8.15961e-06 5.30285e-08 0.0799012)
(1.3253e-05 -1.29195e-06 0.0780874)
(1.51914e-05 4.45045e-06 0.0929056)
(-1.05255e-05 1.95429e-07 0.0799606)
(1.23864e-05 1.01425e-06 0.0692846)
(2.82075e-06 3.63613e-06 0.0880652)
(3.74271e-05 -2.63729e-06 0.0840237)
(3.82452e-05 5.27909e-06 0.0879961)
(-6.80111e-06 2.40786e-06 0.0693788)
(-4.63358e-06 5.99915e-06 0.072583)
(1.61623e-05 -3.47652e-06 0.0724596)
(-2.75322e-05 -2.75262e-05 0.0856509)
(-3.89674e-07 6.27492e-06 0.0695839)
(6.29269e-06 -4.10485e-07 0.0695771)
(-1.00343e-05 -1.20174e-05 0.0695014)
(-1.19728e-05 -1.00875e-05 0.0694951)
(-8.48835e-06 -8.47491e-06 0.0857042)
(-1.61712e-05 -2.08712e-05 0.0946918)
(-1.63322e-05 1.84729e-06 0.0900444)
(-3.28552e-05 -3.54243e-05 0.10001)
(-1.24353e-05 7.00187e-06 0.0834764)
(-2.08557e-05 -1.60722e-05 0.0946828)
(1.88639e-06 -1.63478e-05 0.0900408)
(-3.53461e-05 -3.28323e-05 0.100005)
(7.02295e-06 -1.2435e-05 0.08347)
(-8.97517e-06 -8.92606e-06 0.0857767)
(-5.60337e-07 6.27984e-06 0.0696323)
(6.27962e-06 -5.64638e-07 0.0696255)
(-6.92334e-05 -4.42547e-05 0.094537)
(-1.19598e-05 6.87448e-06 0.0834105)
(-3.62891e-05 -1.9177e-05 0.0898951)
(-3.16725e-05 -3.41669e-05 0.0999314)
(-9.96347e-05 -6.26641e-05 0.099852)
(-3.07741e-05 -5.77192e-06 0.0833399)
(-1.53581e-05 -1.99654e-05 0.0946081)
(-4.42749e-05 -6.91827e-05 0.094529)
(6.91e-06 -1.19558e-05 0.0834041)
(-1.91258e-05 -3.62981e-05 0.0898935)
(-3.40656e-05 -3.16448e-05 0.0999268)
(-6.26639e-05 -9.9609e-05 0.0998484)
(-5.75065e-06 -3.08651e-05 0.0833354)
(-1.99083e-05 -1.52761e-05 0.0945993)
(-2.6418e-07 1.3595e-05 0.0778568)
(2.21597e-06 6.21018e-05 0.0943305)
(3.69059e-07 -9.15464e-06 0.0797347)
(3.43733e-06 9.4887e-06 0.0924796)
(3.13212e-07 9.45501e-06 0.0796745)
(5.73643e-06 5.37594e-05 0.0924158)
(7.9586e-07 -5.8108e-06 0.0779273)
(2.45925e-06 -6.99261e-06 0.0692535)
(4.97076e-06 3.57744e-05 0.0877692)
(-4.58811e-06 -2.80255e-06 0.0838804)
(1.07096e-06 1.19909e-05 0.0691601)
(3.25674e-06 9.97877e-07 0.0878396)
(7.1365e-07 -5.88241e-06 0.0779708)
(1.75107e-06 1.66216e-05 0.0944732)
(2.86324e-07 9.17236e-06 0.0797167)
(5.915e-06 5.50337e-05 0.0924968)
(-4.68198e-07 1.35362e-05 0.0779001)
(3.77683e-07 -9.45752e-06 0.0797768)
(3.66887e-06 1.05452e-05 0.0925604)
(1.19726e-06 1.19934e-05 0.0691214)
(3.05291e-06 4.0274e-07 0.0877686)
(-1.81764e-06 3.45492e-05 0.0837573)
(4.82324e-06 3.51219e-05 0.0876981)
(2.44555e-06 -7.02064e-06 0.0692143)
(5.68355e-06 -5.11214e-06 0.0724017)
(-3.68597e-06 1.54984e-05 0.0722818)
(1.35733e-05 -2.23012e-07 0.0778573)
(6.20794e-05 2.25197e-06 0.0943304)
(9.46988e-06 3.46203e-06 0.0924799)
(-9.16507e-06 4.67946e-07 0.079735)
(5.37204e-05 5.73587e-06 0.0924159)
(9.45237e-06 3.97293e-07 0.0796746)
(-5.82531e-06 8.62201e-07 0.0779279)
(-6.96838e-06 2.51638e-06 0.0692547)
(3.58012e-05 4.99965e-06 0.0877699)
(-2.87403e-06 -4.65164e-06 0.0838809)
(1.2099e-05 1.20514e-06 0.0691614)
(9.27658e-07 3.25787e-06 0.0878402)
(-5.91462e-06 7.29407e-07 0.0779714)
(1.65633e-05 1.76596e-06 0.0944732)
(5.49873e-05 5.91562e-06 0.092497)
(9.16828e-06 3.50409e-07 0.0797168)
(1.35261e-05 -3.86585e-07 0.0779007)
(1.04903e-05 3.64467e-06 0.0925607)
(-9.46739e-06 4.28719e-07 0.0797771)
(1.20081e-05 1.25048e-06 0.0691224)
(3.59442e-07 3.10885e-06 0.0877693)
(3.45266e-05 -1.80207e-06 0.0837578)
(3.50634e-05 4.8593e-06 0.0876986)
(-7.01009e-06 2.52549e-06 0.0692153)
(-5.07187e-06 5.81091e-06 0.0724007)
(1.53862e-05 -3.49545e-06 0.0722816)
(-2.55343e-05 -2.55924e-05 0.0853786)
(2.82483e-07 6.20219e-06 0.069401)
(6.26371e-06 2.33275e-07 0.0693943)
(-9.41887e-06 -1.17385e-05 0.0693188)
(-1.1636e-05 -9.50607e-06 0.0693126)
(-6.72692e-06 -6.76503e-06 0.0854336)
(-1.2969e-05 -1.74172e-05 0.0943686)
(-9.53419e-05 -5.89576e-05 0.0996211)
(-2.93537e-05 -6.01137e-06 0.0831506)
(-1.36829e-05 2.47187e-06 0.089739)
(-6.60992e-05 -4.15298e-05 0.0942969)
(-2.83505e-05 -3.06784e-05 0.0997001)
(-1.05127e-05 6.52187e-06 0.0832215)
(-1.72948e-05 -1.29079e-05 0.0943598)
(-5.89143e-05 -9.52958e-05 0.0996178)
(-5.9454e-06 -2.94543e-05 0.0831463)
(2.51802e-06 -1.36642e-05 0.0897355)
(-4.14686e-05 -6.60692e-05 0.0942891)
(-3.04801e-05 -2.82895e-05 0.0996955)
(6.58805e-06 -1.0518e-05 0.0832152)
(-7.14161e-06 -7.17268e-06 0.0854986)
(-9.56742e-06 -1.18076e-05 0.0693629)
(-1.17087e-05 -9.65376e-06 0.0693567)
(-2.60037e-05 -2.60563e-05 0.085444)
(1.22024e-07 6.21872e-06 0.0694451)
(6.27517e-06 7.59365e-08 0.0694385)
(-6.51045e-05 -4.06639e-05 0.0942206)
(-1.00433e-05 6.42317e-06 0.0831613)
(-3.3669e-05 -1.80288e-05 0.0895966)
(-2.72946e-05 -2.95584e-05 0.0996246)
(-9.39621e-05 -5.77782e-05 0.0995458)
(-2.88866e-05 -6.07424e-06 0.0830904)
(-1.22172e-05 -1.66099e-05 0.0942923)
(-4.06126e-05 -6.50946e-05 0.0942128)
(6.49496e-06 -1.00499e-05 0.0831551)
(-1.79585e-05 -3.36981e-05 0.0895955)
(-2.93438e-05 -2.72237e-05 0.09962)
(-5.77185e-05 -9.3911e-05 0.0995425)
(-6.00803e-06 -2.89928e-05 0.0830861)
(-1.648e-05 -1.21588e-05 0.0942835)
(-6.28825e-06 -4.87317e-06 0.0725839)
(3.39501e-06 1.6137e-05 0.0724596)
(-4.55015e-06 -5.98371e-06 0.0725834)
(1.61127e-05 3.33775e-06 0.0724591)
(2.74384e-05 2.75276e-05 0.085651)
(-6.26827e-06 4.06968e-07 0.0695847)
(2.97026e-07 -6.17885e-06 0.0695779)
(1.19142e-05 1.00356e-05 0.0695015)
(1.0034e-05 1.19815e-05 0.0694948)
(8.39027e-06 8.51922e-06 0.0857057)
(2.07744e-05 1.60527e-05 0.094693)
(6.39859e-05 0.000101137 0.0999312)
(5.76261e-06 3.13274e-05 0.0834076)
(-1.9936e-06 1.61963e-05 0.0900452)
(4.51585e-05 7.03452e-05 0.0946214)
(-7.12503e-06 1.23708e-05 0.083478)
(3.53091e-05 3.28115e-05 0.100011)
(1.60891e-05 2.07632e-05 0.0946849)
(0.000100936 6.3947e-05 0.099927)
(3.1222e-05 5.60635e-06 0.0834015)
(1.63502e-05 -1.92241e-06 0.090043)
(7.013e-05 4.52319e-05 0.0946128)
(1.23985e-05 -7.1499e-06 0.0834721)
(3.27406e-05 3.53424e-05 0.100007)
(8.78602e-06 8.75765e-06 0.0857782)
(1.2156e-05 1.03977e-05 0.0695504)
(1.01156e-05 1.21095e-05 0.0695436)
(2.79141e-05 2.81653e-05 0.0857241)
(-6.38647e-06 3.88612e-07 0.0696335)
(4.20719e-07 -6.54889e-06 0.0696265)
(4.41795e-05 6.92324e-05 0.0945375)
(-6.85453e-06 1.19597e-05 0.0834118)
(1.91074e-05 3.6334e-05 0.0898962)
(3.40903e-05 3.17027e-05 0.0999322)
(5.66691e-06 3.08169e-05 0.0833411)
(1.99373e-05 1.5349e-05 0.0946094)
(6.26393e-05 9.97099e-05 0.0998527)
(6.90749e-05 4.42573e-05 0.094529)
(1.18438e-05 -6.80513e-06 0.0834061)
(3.61473e-05 1.91148e-05 0.0898937)
(3.15328e-05 3.41067e-05 0.0999289)
(3.07752e-05 5.79279e-06 0.0833354)
(1.51949e-05 1.9946e-05 0.0946013)
(9.94446e-05 6.2639e-05 0.0998486)
(3.55494e-06 1.57956e-05 0.0723687)
(-6.01258e-06 -4.96423e-06 0.0724905)
(1.57518e-05 3.454e-06 0.0723679)
(-4.90741e-06 -5.93482e-06 0.07249)
(7.98523e-06 8.01201e-06 0.0856354)
(1.1907e-05 9.96141e-06 0.0694544)
(9.89402e-06 1.20023e-05 0.0694477)
(2.6973e-05 2.70972e-05 0.0855801)
(-6.24254e-06 2.03523e-07 0.0695375)
(1.88174e-07 -6.28051e-06 0.0695306)
(4.23912e-05 6.72038e-05 0.0943759)
(3.17569e-05 2.94819e-05 0.0997771)
(1.85798e-05 3.50557e-05 0.0897435)
(-6.63218e-06 1.10499e-05 0.0832844)
(5.9304e-06 2.99099e-05 0.0832137)
(6.01976e-05 9.68771e-05 0.0996982)
(1.82195e-05 1.38068e-05 0.0944478)
(6.70506e-05 4.24561e-05 0.0943672)
(2.93617e-05 3.1742e-05 0.0997739)
(3.4921e-05 1.85484e-05 0.0897408)
(1.09592e-05 -6.6448e-06 0.0832787)
(2.98653e-05 5.97031e-06 0.0832077)
(9.66601e-05 6.01914e-05 0.099694)
(1.36768e-05 1.82023e-05 0.0944398)
(1.90699e-05 1.45302e-05 0.0945277)
(5.86565e-06 3.03783e-05 0.0832767)
(6.14103e-05 9.82786e-05 0.0997751)
(-2.23214e-06 1.49167e-05 0.0898887)
(4.32964e-05 6.82391e-05 0.0944557)
(-6.72273e-06 1.14503e-05 0.0833474)
(3.28907e-05 3.05457e-05 0.0998543)
(1.44772e-05 1.90571e-05 0.0945197)
(3.0299e-05 5.88375e-06 0.0832707)
(9.80558e-05 6.14128e-05 0.0997709)
(1.4913e-05 -2.23566e-06 0.0898865)
(6.80501e-05 4.3383e-05 0.0944471)
(1.14309e-05 -6.7642e-06 0.0833417)
(3.04789e-05 3.29168e-05 0.099851)
(2.6513e-05 2.65905e-05 0.0855113)
(-6.36833e-06 4.85166e-08 0.0694913)
(-3.19732e-09 -6.28653e-06 0.0694843)
(1.18507e-05 9.79425e-06 0.0694084)
(9.78721e-06 1.19029e-05 0.0694016)
(7.50469e-06 7.58054e-06 0.0855668)
(8.26966e-07 1.33248e-05 0.0780382)
(-2.83968e-06 6.86724e-05 0.0946973)
(-3.73033e-07 -1.02841e-05 0.0799121)
(-4.31078e-06 1.3914e-05 0.0928155)
(-2.92361e-07 8.38253e-06 0.0798525)
(-6.62223e-06 5.91638e-05 0.0927542)
(-3.35166e-07 -6.18131e-06 0.0781083)
(-2.50968e-06 -6.74858e-06 0.0694238)
(-5.52665e-06 3.9124e-05 0.0880773)
(5.2667e-06 -6.86865e-07 0.0841526)
(-1.01619e-06 1.24268e-05 0.0693302)
(-3.93829e-06 3.58623e-06 0.0881446)
(-1.08588e-07 -6.26149e-06 0.078157)
(-2.34341e-06 2.24063e-05 0.0948475)
(-1.85316e-07 8.15954e-06 0.0799012)
(-6.80448e-06 6.06712e-05 0.0928442)
(-3.0327e-07 -1.05246e-05 0.0799604)
(1.18317e-06 1.32384e-05 0.078087)
(-4.54188e-06 1.52187e-05 0.0929051)
(-1.18059e-06 1.24331e-05 0.0692869)
(-3.78935e-06 2.85934e-06 0.0880653)
(2.4051e-06 3.74527e-05 0.0840236)
(-5.48653e-06 3.82967e-05 0.0879975)
(-2.56541e-06 -6.77146e-06 0.0693804)
(3.78648e-07 -6.06223e-06 0.0780614)
(1.41683e-07 8.64232e-06 0.0798055)
(6.25066e-06 5.77296e-05 0.0926657)
(1.96138e-06 1.93934e-05 0.0946562)
(-9.01168e-07 1.33998e-05 0.0779909)
(2.48965e-07 -1.00116e-05 0.0798654)
(4.00091e-06 1.27345e-05 0.0927286)
(1.00198e-06 1.2138e-05 0.0692006)
(-1.97636e-06 3.59187e-05 0.083887)
(3.35135e-06 1.33313e-06 0.0879126)
(2.20083e-06 -7.20661e-06 0.069294)
(5.13725e-06 3.65055e-05 0.0878427)
(2.45572e-06 -6.75073e-06 0.0693356)
(5.23053e-06 3.73492e-05 0.0879182)
(-5.02688e-06 -1.80914e-06 0.0840129)
(9.8843e-07 1.22194e-05 0.0692414)
(3.54386e-06 2.29744e-06 0.0879879)
(-7.50193e-07 1.3447e-05 0.0779449)
(2.42726e-06 6.52752e-05 0.0945097)
(2.7143e-07 -9.75222e-06 0.0798204)
(3.746e-06 1.15523e-05 0.0926433)
(3.12556e-07 -6.04479e-06 0.0780154)
(1.78167e-07 8.90652e-06 0.0797604)
(6.02052e-06 5.63186e-05 0.0925802)
(-5.16952e-07 -6.10487e-06 0.078061)
(-3.46831e-07 8.63306e-06 0.0798057)
(-6.39436e-06 5.76975e-05 0.0926664)
(-2.07598e-06 1.93819e-05 0.0946561)
(6.56465e-07 1.33738e-05 0.0779909)
(-4.32657e-07 -1.00186e-05 0.0798654)
(-4.11032e-06 1.27049e-05 0.0927281)
(-1.26395e-06 1.21669e-05 0.0692037)
(2.00666e-06 3.59163e-05 0.0838871)
(-3.57045e-06 1.51979e-06 0.0879131)
(-5.24034e-06 3.6583e-05 0.0878445)
(-2.63061e-06 -6.93478e-06 0.0692966)
(-2.59131e-06 -6.87004e-06 0.0693379)
(-5.34321e-06 3.73866e-05 0.08792)
(4.86941e-06 -1.87206e-06 0.0840128)
(-1.19897e-06 1.22712e-05 0.0692448)
(-3.63966e-06 2.17417e-06 0.0879881)
(4.47937e-07 1.34404e-05 0.0779449)
(-2.57433e-06 6.52638e-05 0.0945098)
(-5.06998e-07 -9.7415e-06 0.0798204)
(-3.92223e-06 1.15544e-05 0.092643)
(-4.06103e-07 8.89756e-06 0.0797605)
(-6.21044e-06 5.63174e-05 0.092581)
(-7.0605e-07 -6.00497e-06 0.0780151)
(-2.76142e-05 2.75009e-05 0.0856521)
(6.2039e-06 2.7674e-07 0.0695789)
(-4.5545e-07 -6.37689e-06 0.0695847)
(-1.20977e-05 1.00459e-05 0.0694959)
(-1.00636e-05 1.1965e-05 0.0695019)
(-8.57477e-06 8.34829e-06 0.085706)
(-2.09353e-05 1.60553e-05 0.0946846)
(1.75793e-06 1.62652e-05 0.0900429)
(6.8949e-06 1.23716e-05 0.0834719)
(-3.54762e-05 3.27992e-05 0.100007)
(-1.62164e-05 2.08188e-05 0.0946943)
(-1.63918e-05 -1.88145e-06 0.0900477)
(-3.29433e-05 3.53622e-05 0.100013)
(-1.24823e-05 -7.07928e-06 0.0834792)
(-9.0575e-06 8.82534e-06 0.0857785)
(6.1795e-06 4.45302e-07 0.0696272)
(-6.31672e-07 -6.37729e-06 0.0696332)
(-4.43513e-05 6.91371e-05 0.0945292)
(6.7751e-06 1.19085e-05 0.0834062)
(-1.92035e-05 3.62495e-05 0.0898932)
(-3.42221e-05 3.16362e-05 0.0999283)
(-5.87588e-06 3.07742e-05 0.083335)
(-6.27017e-05 9.95929e-05 0.0998484)
(-2.00061e-05 1.52348e-05 0.0946011)
(-6.92576e-05 4.42608e-05 0.0945389)
(-1.19969e-05 -6.96406e-06 0.0834131)
(-3.62619e-05 1.91818e-05 0.089896)
(-3.17631e-05 3.41079e-05 0.0999342)
(-9.96065e-05 6.26958e-05 0.0998536)
(-3.07877e-05 5.78398e-06 0.0833419)
(-1.53912e-05 1.99065e-05 0.0946106)
(4.64705e-06 -5.96301e-06 0.0725865)
(-1.61395e-05 3.46892e-06 0.072458)
(-3.5444e-06 1.57551e-05 0.0723687)
(5.78236e-06 -4.97793e-06 0.0724908)
(-8.12546e-06 7.83269e-06 0.0856354)
(-1.20118e-05 9.90694e-06 0.0694486)
(-9.9283e-06 1.18731e-05 0.0694546)
(-2.71097e-05 2.69895e-05 0.0855812)
(6.24224e-06 5.92755e-08 0.0695315)
(-3.05813e-07 -6.39307e-06 0.0695373)
(-4.24857e-05 6.70214e-05 0.0943673)
(-3.18028e-05 2.93863e-05 0.0997732)
(-1.85912e-05 3.49625e-05 0.0897405)
(6.67397e-06 1.09601e-05 0.083279)
(-6.01711e-05 9.6716e-05 0.0996937)
(-5.98254e-06 2.98266e-05 0.0832071)
(-1.82237e-05 1.35976e-05 0.0944395)
(-6.71763e-05 4.23784e-05 0.094377)
(-2.95245e-05 3.17077e-05 0.0997791)
(-3.49225e-05 1.85654e-05 0.0897428)
(-1.10405e-05 -6.77737e-06 0.0832854)
(-2.98618e-05 5.89934e-06 0.083214)
(-9.6743e-05 6.01835e-05 0.0996989)
(-1.38039e-05 1.81059e-05 0.0944488)
(-1.91104e-05 1.44134e-05 0.0945194)
(-5.94622e-06 3.03004e-05 0.0832703)
(-6.14285e-05 9.81418e-05 0.0997707)
(2.10978e-06 1.49234e-05 0.0898863)
(-3.30053e-05 3.04998e-05 0.0998504)
(-4.34054e-05 6.80683e-05 0.0944473)
(6.71364e-06 1.14279e-05 0.0833418)
(-1.4594e-05 1.89867e-05 0.0945288)
(-3.03196e-05 5.85314e-06 0.0832772)
(-9.81631e-05 6.1435e-05 0.0997759)
(-1.50043e-05 -2.2098e-06 0.0898914)
(-6.82015e-05 4.33096e-05 0.094457)