/*--------------------------------*- C++ -*----------------------------------*\
| =========                 |                                                 |
| \\      /  F ield         | OpenFOAM: The Open Source CFD Toolbox           |
|  \\    /   O peration     | Version:  2312                                  |
|   \\  /    A nd           | Website:  www.openfoam.com                      |
|    \\/     M anipulation  |                                                 |
\*---------------------------------------------------------------------------*/
FoamFile
{
    version     2.0;
    format      ascii;
    arch        "LSB;label=32;scalar=64";
    class       volScalarField;
    location    "500";
    object      epsilon;
}
// * * * * * * * * * * * * * * * * * * * * * * * * * * * * * * * * * * * * * //

dimensions      [0 2 -3 0 0 0 0];

internalField   nonuniform List<scalar> 
43120
(
1.33726e-07
2.28652e-07
2.30175e-07
3.52259e-07
1.31241e-07
2.40018e-07
2.4409e-07
3.78518e-07
1.29965e-07
2.49291e-07
2.53312e-07
4.09727e-07
1.2997e-07
2.75163e-07
2.69615e-07
4.45069e-07
1.30048e-07
2.89577e-07
2.79243e-07
4.52873e-07
1.29805e-07
2.9408e-07
2.98645e-07
4.98868e-07
1.3219e-07
3.22174e-07
3.25793e-07
5.42442e-07
1.35095e-07
3.45646e-07
3.56658e-07
5.70117e-07
1.38515e-07
3.65419e-07
3.66908e-07
6.29749e-07
1.42842e-07
4.03004e-07
3.91963e-07
6.13072e-07
1.45938e-07
4.28043e-07
4.15216e-07
7.38594e-07
1.53368e-07
4.44702e-07
4.55238e-07
7.61892e-07
1.60827e-07
4.74944e-07
4.79415e-07
7.83745e-07
1.66144e-07
5.06373e-07
5.01388e-07
8.05863e-07
1.74023e-07
5.39733e-07
5.39267e-07
8.37795e-07
1.83971e-07
5.64149e-07
5.7045e-07
8.7092e-07
1.93601e-07
5.95107e-07
5.9557e-07
9.06542e-07
2.03386e-07
6.28443e-07
6.24795e-07
9.34788e-07
2.14364e-07
6.55075e-07
6.54343e-07
9.7555e-07
2.25954e-07
6.84142e-07
6.85069e-07
9.99511e-07
2.38548e-07
7.13798e-07
7.14413e-07
1.01705e-06
2.52093e-07
7.4273e-07
7.42837e-07
1.04584e-06
2.65821e-07
7.70969e-07
7.71276e-07
1.07225e-06
2.80331e-07
7.98426e-07
7.97904e-07
1.09494e-06
2.95484e-07
8.24102e-07
8.24182e-07
1.11707e-06
3.11055e-07
8.49677e-07
8.50495e-07
1.14035e-06
8.74746e-07
3.622e-07
2.31038e-07
2.27935e-07
3.48937e-07
2.31066e-07
2.28277e-07
2.27864e-07
2.28662e-07
3.51851e-07
2.28049e-07
2.28151e-07
3.51333e-07
3.62696e-07
3.64058e-07
2.31509e-07
2.28751e-07
2.35983e-07
2.36576e-07
3.49934e-07
3.68335e-07
2.31499e-07
2.30354e-07
2.35958e-07
2.41205e-07
2.29357e-07
2.36747e-07
2.36857e-07
3.55568e-07
3.90139e-07
2.29003e-07
2.4121e-07
2.36948e-07
3.69467e-07
3.69026e-07
3.96095e-07
2.3844e-07
2.39832e-07
2.48658e-07
2.47209e-07
3.76723e-07
3.90151e-07
2.38382e-07
2.4414e-07
2.48466e-07
2.50242e-07
2.40485e-07
2.47006e-07
2.5004e-07
3.96924e-07
4.0317e-07
2.40573e-07
2.50011e-07
2.50203e-07
4.03257e-07
4.04953e-07
4.40619e-07
2.52353e-07
2.49643e-07
2.65637e-07
2.67786e-07
3.93817e-07
4.47174e-07
2.52166e-07
2.53512e-07
2.65644e-07
2.66322e-07
2.53564e-07
2.67328e-07
2.6573e-07
4.06882e-07
4.41215e-07
2.53778e-07
2.66285e-07
2.65969e-07
4.39061e-07
4.51791e-07
4.78644e-07
2.71015e-07
2.75537e-07
2.84274e-07
2.88617e-07
4.67806e-07
4.98267e-07
2.71061e-07
2.69629e-07
2.84214e-07
2.76092e-07
2.69269e-07
2.88565e-07
2.777e-07
4.46392e-07
4.43729e-07
2.69441e-07
2.76082e-07
2.77605e-07
4.50433e-07
4.81615e-07
4.75502e-07
2.8711e-07
2.89603e-07
2.93569e-07
2.91556e-07
4.96971e-07
4.65104e-07
2.86997e-07
2.79316e-07
2.93469e-07
2.94154e-07
2.80221e-07
2.91407e-07
2.94812e-07
4.46695e-07
4.80711e-07
2.80057e-07
2.93863e-07
2.9469e-07
4.83839e-07
4.77639e-07
5.18664e-07
2.95952e-07
2.94289e-07
3.136e-07
3.14073e-07
4.67597e-07
5.22258e-07
2.95906e-07
2.98928e-07
3.13559e-07
3.16615e-07
3.0171e-07
3.14073e-07
3.19192e-07
4.90917e-07
5.34885e-07
3.0165e-07
3.16599e-07
3.19168e-07
5.37696e-07
5.37137e-07
5.81531e-07
3.22102e-07
3.22183e-07
3.42282e-07
3.40982e-07
5.39627e-07
5.77168e-07
3.21997e-07
3.25779e-07
3.4217e-07
3.52157e-07
3.22985e-07
3.40756e-07
3.36065e-07
5.52785e-07
6.20417e-07
3.22898e-07
3.51906e-07
3.35986e-07
5.57778e-07
5.87009e-07
6.13235e-07
3.46712e-07
3.45949e-07
3.63579e-07
3.60574e-07
5.83228e-07
6.00274e-07
3.46664e-07
3.57002e-07
3.63489e-07
3.63526e-07
3.43711e-07
3.60353e-07
3.67556e-07
6.25721e-07
6.04486e-07
3.437e-07
3.63325e-07
3.67518e-07
6.25372e-07
6.26371e-07
6.64462e-07
3.71163e-07
3.6548e-07
3.92686e-07
3.91854e-07
6.07969e-07
6.69452e-07
3.71031e-07
3.66951e-07
3.92708e-07
3.85936e-07
3.72329e-07
3.91923e-07
3.78544e-07
6.06625e-07
6.39514e-07
3.72277e-07
3.85945e-07
3.78571e-07
6.09526e-07
6.69543e-07
6.62501e-07
3.98166e-07
4.03194e-07
4.08239e-07
4.25681e-07
6.90987e-07
7.20077e-07
3.98248e-07
3.9216e-07
4.08066e-07
4.07833e-07
3.82461e-07
4.24975e-07
4.18189e-07
6.47705e-07
6.65766e-07
3.82578e-07
4.07251e-07
4.18033e-07
7.14523e-07
6.65898e-07
7.33423e-07
4.12258e-07
4.28602e-07
4.41304e-07
4.38263e-07
7.20719e-07
7.10868e-07
4.11953e-07
4.15648e-07
4.40996e-07
4.46187e-07
4.30807e-07
4.38346e-07
4.52687e-07
6.7767e-07
7.47211e-07
4.30514e-07
4.463e-07
4.5245e-07
7.60097e-07
7.55857e-07
7.91549e-07
4.53504e-07
4.44608e-07
4.79736e-07
4.68055e-07
7.19072e-07
7.57498e-07
4.53298e-07
4.55144e-07
4.79683e-07
4.74347e-07
4.56884e-07
4.67882e-07
4.74819e-07
7.59052e-07
7.72662e-07
4.56727e-07
4.74136e-07
4.74774e-07
7.76105e-07
7.93767e-07
7.90953e-07
4.84796e-07
4.7517e-07
4.97799e-07
4.97715e-07
7.66453e-07
7.97493e-07
4.84762e-07
4.79671e-07
4.97695e-07
4.94985e-07
4.81721e-07
4.97444e-07
4.99487e-07
7.76083e-07
7.85083e-07
4.81697e-07
4.94734e-07
4.99471e-07
7.99296e-07
7.96065e-07
8.26376e-07
5.03026e-07
5.0664e-07
5.24981e-07
5.32507e-07
8.09929e-07
8.46703e-07
5.02886e-07
5.01623e-07
5.24732e-07
5.29564e-07
5.05682e-07
5.32348e-07
5.27226e-07
7.92967e-07
8.43015e-07
5.0562e-07
5.29425e-07
5.27036e-07
8.29548e-07
8.39014e-07
8.78675e-07
5.34033e-07
5.39865e-07
5.61369e-07
5.58469e-07
8.53981e-07
8.65023e-07
5.3378e-07
5.39385e-07
5.61132e-07
5.6389e-07
5.34484e-07
5.58307e-07
5.56503e-07
8.56429e-07
8.82541e-07
5.34266e-07
5.63743e-07
5.56307e-07
8.62011e-07
8.87684e-07
9.07781e-07
5.69561e-07
5.64346e-07
5.9179e-07
5.86414e-07
8.70375e-07
8.95276e-07
5.69369e-07
5.70623e-07
5.91687e-07
5.89237e-07
5.64282e-07
5.86199e-07
5.88009e-07
8.8808e-07
8.99284e-07
5.64122e-07
5.8902e-07
5.87949e-07
8.9859e-07
9.13982e-07
9.29986e-07
5.9859e-07
5.95309e-07
6.18797e-07
6.21222e-07
9.06703e-07
9.37823e-07
5.98493e-07
5.95775e-07
6.18608e-07
6.17547e-07
5.95584e-07
6.21032e-07
6.17107e-07
9.0567e-07
9.26875e-07
5.95513e-07
6.17366e-07
6.16948e-07
9.26841e-07
9.37101e-07
9.59215e-07
6.25915e-07
6.28635e-07
6.48306e-07
6.4855e-07
9.44828e-07
9.58576e-07
6.25711e-07
6.24968e-07
6.48082e-07
6.47085e-07
6.24657e-07
6.48339e-07
6.49984e-07
9.3471e-07
9.56036e-07
6.24465e-07
6.46892e-07
6.49773e-07
9.6604e-07
9.66819e-07
9.84308e-07
6.55877e-07
6.55288e-07
6.77156e-07
6.76907e-07
9.64786e-07
9.84312e-07
6.55657e-07
6.54538e-07
6.76927e-07
6.77498e-07
6.58598e-07
6.76721e-07
6.81437e-07
9.63628e-07
9.86543e-07
6.5839e-07
6.77327e-07
6.81241e-07
9.94608e-07
9.9069e-07
1.01203e-06
6.83899e-07
6.84309e-07
7.05894e-07
7.06516e-07
9.91887e-07
1.01313e-06
6.83674e-07
6.85216e-07
7.05709e-07
7.07422e-07
6.8777e-07
7.06405e-07
7.06144e-07
9.94429e-07
1.01483e-06
6.87571e-07
7.07334e-07
7.05978e-07
1.01053e-06
1.02046e-06
1.04129e-06
7.13815e-07
7.13926e-07
7.36408e-07
7.35815e-07
1.02049e-06
1.04015e-06
7.13631e-07
7.14516e-07
7.36197e-07
7.35839e-07
7.12958e-07
7.35625e-07
7.34946e-07
1.02163e-06
1.03997e-06
7.12783e-07
7.35679e-07
7.34752e-07
1.0383e-06
1.04755e-06
1.06354e-06
7.4326e-07
7.42931e-07
7.63509e-07
7.64128e-07
1.04697e-06
1.06535e-06
7.43048e-07
7.43013e-07
7.6329e-07
7.64413e-07
7.42366e-07
7.63958e-07
7.6415e-07
1.04697e-06
1.06591e-06
7.42166e-07
7.64265e-07
7.6394e-07
1.06552e-06
1.07015e-06
1.08816e-06
7.70419e-07
7.71128e-07
7.91135e-07
7.91741e-07
1.07206e-06
1.08953e-06
7.70206e-07
7.71407e-07
7.90953e-07
7.91573e-07
7.71227e-07
7.91588e-07
7.91624e-07
1.07252e-06
1.08853e-06
7.71016e-07
7.91459e-07
7.91454e-07
1.08888e-06
1.09465e-06
1.11175e-06
7.97928e-07
7.98568e-07
8.18138e-07
8.18113e-07
1.09598e-06
1.11118e-06
7.97738e-07
7.98016e-07
8.17898e-07
8.17595e-07
7.98195e-07
8.1799e-07
8.17805e-07
1.09445e-06
1.11053e-06
7.98012e-07
8.17489e-07
8.1758e-07
1.11075e-06
1.11812e-06
1.13406e-06
8.24794e-07
8.24244e-07
8.44132e-07
8.43126e-07
1.11674e-06
1.1323e-06
8.24546e-07
8.24305e-07
8.43928e-07
8.44175e-07
8.24346e-07
8.42977e-07
8.44206e-07
1.11708e-06
1.1343e-06
8.24111e-07
8.44053e-07
8.44014e-07
1.13437e-06
1.13995e-06
1.15411e-06
8.50415e-07
8.49811e-07
8.68839e-07
8.69428e-07
1.13901e-06
1.15557e-06
8.5024e-07
8.50607e-07
8.68643e-07
8.68879e-07
8.50679e-07
8.6933e-07
8.68565e-07
1.14031e-06
1.15437e-06
8.50505e-07
8.68807e-07
8.68376e-07
1.15334e-06
8.74822e-07
1.16011e-06
1.34617e-07
1.34188e-07
1.3437e-07
1.3429e-07
1.84889e-05
2.27126e-07
2.74655e-06
3.67861e-06
8.91594e-06
3.64901e-06
8.91389e-06
1.84674e-05
1.845e-05
3.6792e-06
8.9175e-06
3.64795e-06
8.9069e-06
1.33433e-07
1.33756e-07
1.33509e-07
1.31718e-07
1.31836e-07
1.32391e-07
1.31865e-07
1.15495e-06
2.79767e-06
1.58408e-07
2.30465e-07
1.12835e-06
2.81778e-06
1.58522e-07
1.84652e-05
1.84579e-05
1.15746e-06
1.58591e-07
2.78931e-06
2.3373e-07
1.12983e-06
1.5881e-07
2.81041e-06
5.12872e-06
5.12753e-06
3.52986e-07
5.14304e-06
5.14426e-06
3.75904e-06
8.91356e-06
3.72937e-06
8.92504e-06
1.84363e-05
1.84177e-05
3.7577e-06
8.92157e-06
3.7315e-06
8.92686e-06
1.31343e-07
1.3184e-07
1.31478e-07
1.30184e-07
1.29913e-07
1.3046e-07
1.30408e-07
1.24172e-06
2.87116e-06
1.5977e-07
2.42966e-07
1.21282e-06
2.90299e-06
1.60348e-07
1.8436e-05
1.8431e-05
1.24061e-06
1.60006e-07
2.87087e-06
2.46127e-07
1.21237e-06
1.60485e-07
2.89516e-06
5.17418e-06
5.17632e-06
3.89445e-07
5.1812e-06
5.1825e-06
3.81458e-06
8.92984e-06
3.79763e-06
8.92997e-06
1.84034e-05
1.83992e-05
3.8122e-06
8.92381e-06
3.79355e-06
8.92695e-06
1.29707e-07
1.30277e-07
1.30161e-07
1.29871e-07
1.30164e-07
1.29785e-07
1.2987e-07
1.31814e-06
2.92406e-06
1.62202e-07
2.53327e-07
1.29652e-06
2.92988e-06
1.63086e-07
1.84107e-05
1.84061e-05
1.32101e-06
1.62611e-07
2.91904e-06
2.57572e-07
1.29683e-06
1.63469e-07
2.93919e-06
5.19627e-06
5.19742e-06
4.20192e-07
5.20367e-06
5.20627e-06
3.8632e-06
8.92843e-06
3.84356e-06
8.93713e-06
1.83935e-05
1.84065e-05
3.86776e-06
8.93135e-06
3.84743e-06
8.94008e-06
1.30575e-07
1.29617e-07
1.29736e-07
1.30153e-07
1.30714e-07
1.29178e-07
1.2925e-07
1.39816e-06
2.97428e-06
1.67005e-07
2.81701e-07
1.37135e-06
3.00388e-06
1.68447e-07
1.83866e-05
1.83846e-05
1.40088e-06
1.66671e-07
3.00339e-06
2.7205e-07
1.37406e-06
1.67902e-07
3.01635e-06
5.22322e-06
5.2272e-06
4.48386e-07
5.23773e-06
5.24077e-06
3.90379e-06
8.95208e-06
3.89191e-06
8.95341e-06
1.83842e-05
1.83572e-05
3.89941e-06
8.95422e-06
3.88854e-06
8.95483e-06
1.30296e-07
1.29198e-07
1.29256e-07
1.2977e-07
1.29718e-07
1.29765e-07
1.2993e-07
1.47379e-06
3.05197e-06
1.72548e-07
2.9e-07
1.45155e-06
3.05954e-06
1.73908e-07
1.83542e-05
1.83397e-05
1.46955e-06
1.71835e-07
3.03205e-06
2.83629e-07
1.44849e-06
1.73303e-07
3.04941e-06
5.24027e-06
5.23989e-06
4.56519e-07
5.24289e-06
5.24183e-06
3.91957e-06
8.95739e-06
3.91613e-06
8.95238e-06
1.83119e-05
1.83078e-05
3.9232e-06
8.95644e-06
3.91833e-06
8.95496e-06
1.2975e-07
1.30066e-07
1.30481e-07
1.31277e-07
1.31281e-07
1.31725e-07
1.32007e-07
1.53104e-06
3.07182e-06
1.78291e-07
2.99307e-07
1.51144e-06
3.08008e-06
1.80122e-07
1.83241e-05
1.83212e-05
1.53347e-06
1.7846e-07
3.07579e-06
3.03445e-07
1.51253e-06
1.80356e-07
3.07903e-06
5.25822e-06
5.26006e-06
5.1997e-07
5.26525e-06
5.26789e-06
3.94464e-06
8.9459e-06
3.9321e-06
8.95778e-06
1.8307e-05
1.83164e-05
3.94156e-06
8.94922e-06
3.93108e-06
8.9594e-06
1.32138e-07
1.32848e-07
1.32304e-07
1.34502e-07
1.34308e-07
1.35935e-07
1.33786e-07
1.59207e-06
3.114e-06
1.8666e-07
3.29524e-07
1.57281e-06
3.13006e-06
1.89145e-07
1.83139e-05
1.83249e-05
1.59075e-06
1.87119e-07
3.09663e-06
3.35697e-07
1.57282e-06
1.8968e-07
3.11427e-06
5.269e-06
5.27026e-06
5.4463e-07
5.26696e-06
5.26705e-06
3.96247e-06
8.97167e-06
3.95972e-06
8.96956e-06
1.83184e-05
1.83044e-05
3.96522e-06
8.97125e-06
3.9601e-06
8.97044e-06
1.34979e-07
1.36449e-07
1.34849e-07
1.37452e-07
1.36845e-07
1.37614e-07
1.3781e-07
1.64364e-06
3.14367e-06
1.96585e-07
3.50697e-07
1.62837e-06
3.15497e-06
1.99117e-07
1.83409e-05
1.83348e-05
1.64632e-06
1.97397e-07
3.16026e-06
3.5942e-07
1.62841e-06
1.99957e-07
3.16999e-06
5.27196e-06
5.27283e-06
5.96024e-07
5.296e-06
5.29732e-06
3.97075e-06
8.96586e-06
3.96834e-06
8.9696e-06
1.82773e-05
1.82822e-05
3.96948e-06
8.96769e-06
3.96741e-06
8.97067e-06
1.37646e-07
1.38192e-07
1.38427e-07
1.41939e-07
1.41901e-07
1.40758e-07
1.39883e-07
1.69495e-06
3.17191e-06
2.07283e-07
3.72096e-07
1.67861e-06
3.17076e-06
2.10377e-07
1.8293e-05
1.82763e-05
1.69271e-06
2.07704e-07
3.16677e-06
3.72321e-07
1.67812e-06
2.10374e-07
3.18119e-06
5.32091e-06
5.32243e-06
6.19315e-07
5.29587e-06
5.29846e-06
3.98536e-06
8.97699e-06
3.97734e-06
8.98199e-06
1.82852e-05
1.83031e-05
3.98779e-06
8.97678e-06
3.98156e-06
8.98499e-06
1.43634e-07
1.41726e-07
1.40837e-07
1.4497e-07
1.47656e-07
1.44944e-07
1.46372e-07
1.73032e-06
3.19855e-06
2.20164e-07
4.12737e-07
1.71882e-06
3.21995e-06
2.23653e-07
1.82607e-05
1.82723e-05
1.73339e-06
2.19505e-07
3.21272e-06
3.96829e-07
1.72177e-06
2.22699e-07
3.20997e-06
5.27417e-06
5.27815e-06
6.38099e-07
5.29003e-06
5.2933e-06
3.98967e-06
8.98379e-06
3.99267e-06
8.97522e-06
1.8315e-05
1.8294e-05
3.98501e-06
8.98573e-06
3.98731e-06
8.97507e-06
1.48488e-07
1.46413e-07
1.48425e-07
1.51144e-07
1.51117e-07
1.51945e-07
1.53272e-07
1.77343e-06
3.23427e-06
2.34108e-07
4.30539e-07
1.75961e-06
3.23357e-06
2.37548e-07
1.82604e-05
1.82562e-05
1.76982e-06
2.32644e-07
3.20853e-06
4.25145e-07
1.75545e-06
2.36364e-07
3.226e-06
5.34216e-06
5.34287e-06
7.57178e-07
5.3467e-06
5.34678e-06
3.99899e-06
8.97622e-06
3.99236e-06
8.99504e-06
1.82538e-05
1.82512e-05
4.00161e-06
8.97622e-06
3.99438e-06
8.9975e-06
1.52388e-07
1.5379e-07
1.54553e-07
1.5933e-07
1.57132e-07
1.58519e-07
1.58725e-07
1.80442e-06
3.24408e-06
2.47933e-07
4.52293e-07
1.79462e-06
3.25582e-06
2.51732e-07
1.82866e-05
1.83039e-05
1.80715e-06
2.48749e-07
3.25743e-06
4.62523e-07
1.79643e-06
2.52839e-07
3.26273e-06
5.33067e-06
5.33205e-06
7.61856e-07
5.33183e-06
5.33408e-06
4.00735e-06
9.00616e-06
4.00673e-06
9.00497e-06
1.82676e-05
1.82723e-05
4.00784e-06
9.00881e-06
4.0071e-06
9.0067e-06
1.58823e-07
1.59902e-07
1.6028e-07
1.64718e-07
1.64372e-07
1.64072e-07
1.64928e-07
1.83811e-06
3.27107e-06
2.64015e-07
4.81849e-07
1.82698e-06
3.27222e-06
2.68286e-07
1.82863e-05
1.82716e-05
1.83857e-06
2.64749e-07
3.2749e-06
4.84428e-07
1.82674e-06
2.68748e-07
3.27933e-06
5.34261e-06
5.34462e-06
7.89172e-07
5.34044e-06
5.34294e-06
4.00932e-06
9.00264e-06
4.00788e-06
9.0021e-06
1.82641e-05
1.82702e-05
4.00847e-06
9.00369e-06
4.00858e-06
9.00339e-06
1.66481e-07
1.65769e-07
1.66567e-07
1.71728e-07
1.73118e-07
1.72472e-07
1.72192e-07
1.86356e-06
3.28692e-06
2.81143e-07
5.15485e-07
1.8543e-06
3.29655e-06
2.85694e-07
1.82585e-05
1.82565e-05
1.86278e-06
2.80964e-07
3.28063e-06
5.09678e-07
1.85489e-06
2.85231e-07
3.2861e-06
5.33882e-06
5.34112e-06
8.12685e-07
5.34227e-06
5.34402e-06
4.01712e-06
9.0036e-06
4.01422e-06
9.01188e-06
1.82855e-05
1.82846e-05
4.01652e-06
9.00475e-06
4.01291e-06
9.0123e-06
1.75257e-07
1.74981e-07
1.74223e-07
1.81485e-07
1.81228e-07
1.82214e-07
1.80673e-07
1.89153e-06
3.31187e-06
2.99726e-07
5.46436e-07
1.88194e-06
3.3174e-06
3.04499e-07
1.82685e-05
1.82949e-05
1.89145e-06
2.99448e-07
3.30971e-06
5.48305e-07
1.88096e-06
3.04433e-07
3.31728e-06
5.34984e-06
5.35088e-06
8.45607e-07
5.35187e-06
5.35287e-06
4.02236e-06
9.02274e-06
4.02131e-06
9.02788e-06
1.82745e-05
1.8273e-05
4.02329e-06
9.02442e-06
4.02166e-06
9.02938e-06
1.83199e-07
1.84435e-07
1.82997e-07
1.91235e-07
1.90062e-07
1.90885e-07
1.90332e-07
1.91494e-06
3.32364e-06
3.18577e-07
5.70574e-07
1.90681e-06
3.32585e-06
3.23379e-07
1.82947e-05
1.8292e-05
1.91597e-06
3.19294e-07
3.32985e-06
5.76736e-07
1.90706e-06
3.24165e-07
3.33377e-06
5.35793e-06
5.35952e-06
8.80913e-07
5.36242e-06
5.36437e-06
4.02765e-06
9.03173e-06
4.02542e-06
9.03484e-06
1.82716e-05
1.82862e-05
4.02772e-06
9.03329e-06
4.02625e-06
9.03651e-06
1.9272e-07
1.93122e-07
1.9282e-07
2.00841e-07
2.01108e-07
2.00462e-07
2.00383e-07
1.93816e-06
3.34038e-06
3.38391e-07
6.04169e-07
1.92921e-06
3.34927e-06
3.4373e-07
1.82834e-05
1.82811e-05
1.93827e-06
3.38887e-07
3.34081e-06
6.02571e-07
1.92992e-06
3.43885e-07
3.34617e-06
5.37019e-06
5.37223e-06
9.13157e-07
5.37095e-06
5.37282e-06
4.03367e-06
9.03932e-06
4.03181e-06
9.04262e-06
1.8301e-05
1.83034e-05
4.03332e-06
9.04022e-06
4.03121e-06
9.04353e-06
2.03834e-07
2.03073e-07
2.03045e-07
2.1151e-07
2.11735e-07
2.11253e-07
2.11836e-07
1.96007e-06
3.36186e-06
3.59877e-07
6.35279e-07
1.95236e-06
3.36475e-06
3.65254e-07
1.82829e-05
1.82917e-05
1.95972e-06
3.59477e-07
3.35858e-06
6.32166e-07
1.95169e-06
3.64778e-07
3.36253e-06
5.37471e-06
5.37627e-06
9.44464e-07
5.3803e-06
5.38177e-06
4.03977e-06
9.05046e-06
4.03716e-06
9.05596e-06
1.8298e-05
1.82992e-05
4.03988e-06
9.05187e-06
4.03718e-06
9.05738e-06
2.14417e-07
2.14096e-07
2.14951e-07
2.23035e-07
2.23001e-07
2.23074e-07
2.24124e-07
1.98033e-06
3.37246e-06
3.81172e-07
6.62097e-07
1.97236e-06
3.37724e-06
3.86651e-07
1.8294e-05
1.83002e-05
1.98054e-06
3.8103e-07
3.37248e-06
6.61905e-07
1.97228e-06
3.86563e-07
3.37727e-06
5.39536e-06
5.39695e-06
9.83621e-07
5.40029e-06
5.40208e-06
4.04565e-06
9.06347e-06
4.04381e-06
9.06698e-06
1.83044e-05
1.83131e-05
4.04587e-06
9.06477e-06
4.04381e-06
9.06819e-06
2.26008e-07
2.26188e-07
2.27022e-07
2.35241e-07
2.35405e-07
2.35683e-07
2.35616e-07
2.00059e-06
3.38824e-06
4.03362e-07
6.9157e-07
1.99316e-06
3.39255e-06
4.09061e-07
1.83084e-05
1.83161e-05
2.00083e-06
4.03536e-07
3.389e-06
6.92697e-07
1.99314e-06
4.09236e-07
3.39414e-06
5.40141e-06
5.40302e-06
1.00162e-06
5.39969e-06
5.40138e-06
4.05251e-06
9.07194e-06
4.04939e-06
9.0797e-06
1.83193e-05
1.83275e-05
4.05259e-06
9.07332e-06
4.04963e-06
9.08132e-06
2.38647e-07
2.38873e-07
2.38651e-07
2.48719e-07
2.48614e-07
2.48727e-07
2.48426e-07
2.01863e-06
3.40221e-06
4.26107e-07
7.21155e-07
2.01149e-06
3.40668e-06
4.31897e-07
1.8325e-05
1.83301e-05
2.01884e-06
4.26361e-07
3.40272e-06
7.2147e-07
2.01168e-06
4.32065e-07
3.40648e-06
5.40261e-06
5.40434e-06
1.02346e-06
5.40671e-06
5.40844e-06
4.05945e-06
9.09093e-06
4.05705e-06
9.09574e-06
1.83375e-05
1.83454e-05
4.05946e-06
9.09197e-06
4.05692e-06
9.09681e-06
2.52015e-07
2.52112e-07
2.51844e-07
2.62308e-07
2.62435e-07
2.62541e-07
2.62428e-07
2.03703e-06
3.41634e-06
4.49342e-07
7.49807e-07
2.02996e-06
3.42025e-06
4.55258e-07
1.83365e-05
1.83459e-05
2.03707e-06
4.49469e-07
3.41602e-06
7.50011e-07
2.02982e-06
4.5532e-07
3.42065e-06
5.41514e-06
5.41678e-06
1.05249e-06
5.41889e-06
5.42054e-06
4.06665e-06
9.10166e-06
4.06358e-06
9.10779e-06
1.83536e-05
1.83626e-05
4.06683e-06
9.10292e-06
4.06368e-06
9.10915e-06
2.65986e-07
2.66112e-07
2.66011e-07
2.76646e-07
2.76874e-07
2.76887e-07
2.76886e-07
2.05464e-06
3.43019e-06
4.72967e-07
7.77889e-07
2.04778e-06
3.43413e-06
4.78962e-07
1.83558e-05
1.83644e-05
2.05482e-06
4.73117e-07
3.43048e-06
7.78166e-07
2.04779e-06
4.79061e-07
3.4346e-06
5.42675e-06
5.42846e-06
1.0777e-06
5.42949e-06
5.4313e-06
4.07434e-06
9.11771e-06
4.07124e-06
9.12433e-06
1.83735e-05
1.83803e-05
4.07428e-06
9.11905e-06
4.07144e-06
9.12569e-06
2.80581e-07
2.805e-07
2.80533e-07
2.91646e-07
2.91727e-07
2.91603e-07
2.91656e-07
2.07135e-06
3.44299e-06
4.96811e-07
8.05169e-07
2.06476e-06
3.44746e-06
5.02821e-07
1.83728e-05
1.83801e-05
2.07134e-06
4.96899e-07
3.4426e-06
8.04341e-07
2.06491e-06
5.02803e-07
3.44576e-06
5.43518e-06
5.43698e-06
1.09967e-06
5.43804e-06
5.43977e-06
4.08179e-06
9.13306e-06
4.07899e-06
9.14021e-06
1.83917e-05
1.84e-05
4.08181e-06
9.13434e-06
4.07862e-06
9.14116e-06
2.95442e-07
2.95425e-07
2.95468e-07
3.07129e-07
3.06883e-07
3.07162e-07
3.07161e-07
2.08701e-06
3.45489e-06
5.20619e-07
8.30205e-07
2.08113e-06
3.45707e-06
5.26562e-07
1.83898e-05
1.84004e-05
2.08707e-06
5.20625e-07
3.45445e-06
8.30885e-07
2.08077e-06
5.26597e-07
3.45872e-06
5.44344e-06
5.44492e-06
1.12258e-06
5.44736e-06
5.449e-06
4.08948e-06
9.14919e-06
4.08598e-06
9.15546e-06
1.84072e-05
1.84204e-05
4.08996e-06
9.15044e-06
4.08658e-06
9.15724e-06
3.10835e-07
3.11119e-07
3.11124e-07
3.22925e-07
3.23029e-07
3.23033e-07
3.22959e-07
2.10267e-06
3.4663e-06
5.44295e-07
8.56448e-07
2.09613e-06
3.47186e-06
5.50365e-07
1.84154e-05
1.84252e-05
2.10311e-06
5.44611e-07
3.46797e-06
8.56755e-07
2.09665e-06
5.50617e-07
3.47191e-06
5.45674e-06
5.4586e-06
1.14446e-06
5.45948e-06
5.46134e-06
3.27024e-07
1.84375e-05
3.4779e-06
1.84822e-05
1.84844e-05
5.12544e-06
5.12617e-06
8.91578e-06
3.63965e-06
8.9169e-06
3.63766e-06
2.78895e-06
1.58617e-07
1.11822e-06
2.79034e-06
1.58383e-07
1.11607e-06
1.8478e-05
5.1292e-06
5.12712e-06
1.84742e-05
8.90766e-06
2.27343e-07
2.74897e-06
3.60891e-06
8.92334e-06
3.63857e-06
1.09429e-06
2.78887e-06
1.58671e-07
1.58779e-07
1.11841e-06
3.61022e-06
8.91638e-06
8.90823e-06
3.64167e-06
1.09402e-06
2.27567e-07
1.58631e-07
2.78141e-06
1.58636e-07
2.76131e-06
1.11932e-06
2.78899e-06
1.58389e-07
1.11582e-06
8.91899e-06
3.63377e-06
1.58551e-07
2.79394e-06
1.11966e-06
8.92678e-06
3.64015e-06
3.52589e-07
5.10033e-06
5.0986e-06
1.84859e-05
1.84719e-05
1.84817e-05
3.53039e-07
5.12174e-06
5.11855e-06
5.10687e-06
5.10493e-06
1.84655e-05
1.84774e-05
8.90788e-06
1.08853e-06
2.2734e-07
1.58507e-07
2.77891e-06
1.58492e-07
2.75834e-06
1.1153e-06
1.08567e-06
1.58334e-07
2.78919e-06
1.58334e-07
1.11298e-06
3.60104e-06
8.90748e-06
8.90875e-06
3.63733e-06
3.5965e-06
8.89954e-06
3.63472e-06
5.12578e-06
5.12443e-06
1.84787e-05
1.84722e-05
1.84702e-05
1.84499e-05
1.84706e-05
1.84491e-05
5.13282e-06
5.13336e-06
3.59462e-07
5.14837e-06
5.14942e-06
1.84319e-05
1.84391e-05
1.84343e-05
1.84391e-05
3.61215e-07
5.163e-06
5.16498e-06
5.15386e-06
5.15527e-06
3.67711e-06
8.91137e-06
3.64725e-06
8.90231e-06
1.15623e-06
2.79969e-06
1.58636e-07
2.3233e-07
1.1313e-06
2.82366e-06
1.58705e-07
1.15455e-06
2.79925e-06
1.58406e-07
2.30578e-07
1.12928e-06
2.81831e-06
1.58501e-07
3.68891e-06
8.91203e-06
8.91188e-06
3.71953e-06
3.68661e-06
8.90733e-06
8.90182e-06
3.71548e-06
1.17011e-06
2.33952e-07
2.85962e-06
1.59215e-07
2.83761e-06
1.58863e-07
1.19802e-06
1.16828e-06
2.33417e-07
2.8513e-06
1.59112e-07
2.82826e-06
1.58753e-07
1.19536e-06
5.13364e-06
5.13101e-06
3.51165e-07
5.14602e-06
5.14253e-06
1.8463e-05
1.84477e-05
1.84412e-05
1.84434e-05
3.56284e-07
5.17607e-06
5.17439e-06
5.15314e-06
5.15042e-06
1.84403e-05
1.84421e-05
1.15675e-06
2.7991e-06
1.58682e-07
2.3227e-07
1.13107e-06
2.82407e-06
1.58745e-07
3.67771e-06
8.9163e-06
3.65017e-06
8.91128e-06
1.15633e-06
1.5868e-07
2.79087e-06
2.33794e-07
1.13201e-06
1.58818e-07
2.80992e-06
3.68998e-06
8.91808e-06
8.90619e-06
3.72232e-06
1.17109e-06
2.33911e-07
2.86073e-06
1.59287e-07
2.83851e-06
1.58913e-07
1.19931e-06
3.68755e-06
8.90668e-06
8.90832e-06
3.72006e-06
1.16977e-06
2.3759e-07
1.59511e-07
2.85448e-06
1.59119e-07
2.82348e-06
1.19743e-06
3.67742e-06
8.90889e-06
3.64537e-06
8.89379e-06
1.15497e-06
1.5856e-07
2.80159e-06
2.30749e-07
1.13177e-06
1.58624e-07
2.81402e-06
3.67455e-06
8.92606e-06
3.64895e-06
8.91429e-06
1.16985e-06
2.33467e-07
2.85384e-06
1.59298e-07
2.82896e-06
1.58846e-07
1.19821e-06
3.68918e-06
8.91349e-06
8.89338e-06
3.71882e-06
1.16788e-06
2.33434e-07
1.59122e-07
2.85284e-06
1.58783e-07
2.82347e-06
1.19469e-06
3.68421e-06
8.90254e-06
8.90886e-06
3.7153e-06
5.12645e-06
5.12361e-06
3.66436e-07
5.14304e-06
5.14151e-06
1.84594e-05
1.84552e-05
1.84409e-05
1.84508e-05
3.76419e-07
5.1703e-06
5.16934e-06
5.15109e-06
5.14994e-06
1.844e-05
1.84493e-05
1.15617e-06
1.58392e-07
2.79849e-06
2.30753e-07
1.12805e-06
1.58561e-07
2.81469e-06
3.68108e-06
8.90482e-06
3.64941e-06
8.90445e-06
3.67872e-06
8.89727e-06
3.64773e-06
8.90047e-06
1.17162e-06
2.37592e-07
1.59576e-07
2.85552e-06
1.59186e-07
2.82473e-06
1.19819e-06
1.17022e-06
2.33513e-07
1.59243e-07
2.85492e-06
1.5885e-07
2.82535e-06
1.19655e-06
3.6912e-06
8.91781e-06
8.90589e-06
3.71847e-06
3.68881e-06
8.91335e-06
8.90378e-06
3.71641e-06
1.8465e-05
1.845e-05
1.84601e-05
1.84499e-05
3.57703e-07
5.16884e-06
5.1712e-06
5.15074e-06
5.1523e-06
1.84314e-05
1.84433e-05
1.84355e-05
1.84456e-05
1.84293e-05
1.84244e-05
1.84319e-05
1.84266e-05
5.1678e-06
5.16963e-06
3.76889e-07
5.18103e-06
5.18221e-06
1.84009e-05
1.84152e-05
1.84035e-05
1.84171e-05
3.84137e-07
5.19383e-06
5.19487e-06
5.18611e-06
5.18721e-06
3.75772e-06
8.90798e-06
3.72541e-06
8.91388e-06
1.24052e-06
2.86924e-06
1.59706e-07
2.41468e-07
1.21273e-06
2.88673e-06
1.60272e-07
1.23898e-06
2.8681e-06
1.59578e-07
2.42858e-07
1.20987e-06
2.90151e-06
1.6018e-07
3.76812e-06
8.92986e-06
8.92623e-06
3.79132e-06
3.76818e-06
8.93271e-06
8.91724e-06
3.79409e-06
1.25521e-06
2.44977e-07
2.92094e-06
1.61611e-07
2.89835e-06
1.60897e-07
1.2829e-06
1.25498e-06
2.45272e-07
2.92418e-06
1.61615e-07
2.9127e-06
1.60871e-07
1.28483e-06
5.18311e-06
5.18221e-06
3.83748e-07
5.18957e-06
5.18897e-06
1.84359e-05
1.84179e-05
1.84067e-05
1.84081e-05
3.8779e-07
5.18626e-06
5.18518e-06
5.18901e-06
5.18855e-06
1.84035e-05
1.84072e-05
1.24072e-06
2.87015e-06
1.59746e-07
2.41358e-07
1.21398e-06
2.88649e-06
1.60257e-07
3.75999e-06
8.90724e-06
3.73028e-06
8.92014e-06
1.24157e-06
1.59967e-07
2.87046e-06
2.46262e-07
1.21263e-06
1.60498e-07
2.89664e-06
3.7654e-06
8.92412e-06
8.92621e-06
3.78723e-06
1.25443e-06
2.44815e-07
2.91997e-06
1.61521e-07
2.89747e-06
1.60833e-07
1.28035e-06
3.7683e-06
8.93091e-06
8.92324e-06
3.78937e-06
1.25629e-06
2.48021e-07
1.61839e-07
2.91708e-06
1.61121e-07
2.90651e-06
1.28255e-06
3.76098e-06
8.91884e-06
3.73014e-06
8.93369e-06
1.24172e-06
1.59686e-07
2.86948e-06
2.43874e-07
1.20982e-06
1.60374e-07
2.895e-06
3.76295e-06
8.90174e-06
3.72756e-06
8.91411e-06
1.25742e-06
2.45231e-07
2.92241e-06
1.61551e-07
2.91346e-06
1.60927e-07
1.28419e-06
3.77165e-06
8.93607e-06
8.935e-06
3.791e-06
1.25796e-06
2.46952e-07
1.61786e-07
2.91672e-06
1.61088e-07
2.90412e-06
1.28537e-06
3.77361e-06
8.93375e-06
8.92029e-06
3.79288e-06
5.17554e-06
5.17432e-06
4.00484e-07
5.18082e-06
5.17873e-06
1.8435e-05
1.84278e-05
1.84153e-05
1.84241e-05
4.02884e-07
5.18515e-06
5.18232e-06
5.18169e-06
5.1793e-06
1.84106e-05
1.84193e-05
1.24179e-06
1.59803e-07
2.87135e-06
2.43969e-07
1.21117e-06
1.60481e-07
2.89622e-06
3.75771e-06
8.91946e-06
3.7286e-06
8.92514e-06
3.76058e-06
8.91388e-06
3.72784e-06
8.91787e-06
1.25568e-06
2.47813e-07
1.61797e-07
2.91494e-06
1.61089e-07
2.90472e-06
1.28334e-06
1.25825e-06
2.47071e-07
1.6198e-07
2.91832e-06
1.61233e-07
2.90512e-06
1.28686e-06
3.76766e-06
8.92347e-06
8.92489e-06
3.79048e-06
3.77158e-06
8.93469e-06
8.91991e-06
3.79468e-06
1.84241e-05
1.84238e-05
1.84287e-05
1.84284e-05
3.96036e-07
5.19198e-06
5.1929e-06
5.1835e-06
5.18409e-06
1.84234e-05
1.84233e-05
1.84283e-05
1.84276e-05
1.83963e-05
1.83988e-05
1.83996e-05
1.84032e-05
5.19538e-06
5.19684e-06
4.17261e-07
5.19687e-06
5.19954e-06
1.83928e-05
1.83968e-05
1.83975e-05
1.84015e-05
4.26045e-07
5.2138e-06
5.21773e-06
5.19853e-06
5.20216e-06
3.81798e-06
8.93392e-06
3.80088e-06
8.93557e-06
1.3213e-06
2.93077e-06
1.62427e-07
2.56244e-07
1.29676e-06
2.94246e-06
1.63344e-07
1.32366e-06
2.92646e-06
1.62428e-07
2.53775e-07
1.29909e-06
2.93408e-06
1.63396e-07
3.82011e-06
8.92835e-06
8.92928e-06
3.83736e-06
3.82348e-06
8.93639e-06
8.93527e-06
3.83934e-06
1.33398e-06
2.60637e-07
2.96623e-06
1.65543e-07
2.94795e-06
1.64378e-07
1.35882e-06
1.33621e-06
2.60053e-07
2.96496e-06
1.65914e-07
2.94369e-06
1.64579e-07
1.36064e-06
5.18742e-06
5.18624e-06
4.03915e-07
5.19852e-06
5.19657e-06
1.83989e-05
1.83932e-05
1.83943e-05
1.83958e-05
4.16344e-07
5.21519e-06
5.21337e-06
5.20205e-06
5.20029e-06
1.83889e-05
1.83897e-05
1.31911e-06
2.93013e-06
1.62333e-07
2.56105e-07
1.29393e-06
2.94274e-06
1.63258e-07
3.81072e-06
8.93062e-06
3.79484e-06
8.92708e-06
1.31907e-06
1.62624e-07
2.92098e-06
2.5771e-07
1.29558e-06
1.63449e-07
2.93958e-06
3.81861e-06
8.93089e-06
8.9277e-06
3.83989e-06
1.33223e-06
2.60572e-07
2.9676e-06
1.65483e-07
2.94873e-06
1.64302e-07
1.358e-06
3.81672e-06
8.9306e-06
8.92625e-06
3.83795e-06
1.33155e-06
2.62203e-07
1.65412e-07
2.99072e-06
1.64358e-07
2.95617e-06
1.3572e-06
3.81041e-06
8.93419e-06
3.79678e-06
8.92455e-06
1.31913e-06
1.6252e-07
2.92531e-06
2.57605e-07
1.29772e-06
1.63384e-07
2.94676e-06
3.80994e-06
8.93411e-06
3.79762e-06
8.93355e-06
1.33033e-06
2.59565e-07
2.96176e-06
1.65592e-07
2.93946e-06
1.64213e-07
1.35679e-06
3.81776e-06
8.92008e-06
8.92149e-06
3.83699e-06
1.33099e-06
2.61801e-07
1.65445e-07
2.97571e-06
1.64373e-07
2.95796e-06
1.35652e-06
3.81591e-06
8.93184e-06
8.93239e-06
3.83472e-06
5.1892e-06
5.18664e-06
4.18432e-07
5.21387e-06
5.21185e-06
1.8407e-05
1.84033e-05
1.83917e-05
1.84012e-05
4.29292e-07
5.23523e-06
5.23454e-06
5.22251e-06
5.22076e-06
1.83917e-05
1.8399e-05
1.32323e-06
1.62777e-07
2.92763e-06
2.57862e-07
1.30027e-06
1.63649e-07
2.95004e-06
3.81338e-06
8.92225e-06
3.79722e-06
8.92193e-06
3.81471e-06
8.93683e-06
3.80091e-06
8.94209e-06
1.33374e-06
2.62126e-07
1.65483e-07
2.99162e-06
1.64422e-07
2.95622e-06
1.35975e-06
1.33521e-06
2.62069e-07
1.65611e-07
2.97785e-06
1.6461e-07
2.961e-06
1.35929e-06
3.8203e-06
8.93439e-06
8.92212e-06
3.84054e-06
3.82088e-06
8.94178e-06
8.94199e-06
3.83913e-06
1.84167e-05
1.84019e-05
1.84228e-05
1.8409e-05
4.28897e-07
5.21605e-06
5.22016e-06
5.20633e-06
5.20946e-06
1.8391e-05
1.8394e-05
1.83988e-05
1.84015e-05
1.83874e-05
1.83839e-05
1.8392e-05
1.83888e-05
5.22037e-06
5.22406e-06
4.66329e-07
5.23311e-06
5.23699e-06
1.83859e-05
1.83826e-05
1.8389e-05
1.83874e-05
4.74163e-07
5.24575e-06
5.24807e-06
5.23687e-06
5.24064e-06
3.86232e-06
8.93701e-06
3.84488e-06
8.94198e-06
1.39839e-06
2.9801e-06
1.66827e-07
2.76232e-07
1.37234e-06
3.00574e-06
1.68196e-07
1.39842e-06
2.9765e-06
1.67278e-07
2.8195e-07
1.37373e-06
3.00451e-06
1.68607e-07
3.86963e-06
8.95164e-06
8.94067e-06
3.88688e-06
3.86847e-06
8.95045e-06
8.94316e-06