/*--------------------------------*- C++ -*----------------------------------*\
| =========                 |                                                 |
| \\      /  F ield         | OpenFOAM: The Open Source CFD Toolbox           |
|  \\    /   O peration     | Version:  2312                                  |
|   \\  /    A nd           | Website:  www.openfoam.com                      |
|    \\/     M anipulation  |                                                 |
\*---------------------------------------------------------------------------*/
FoamFile
{
    version     2.0;
    format      ascii;
    arch        "LSB;label=32;scalar=64";
    class       volScalarField;
    location    "500";
    object      nut;
}
// * * * * * * * * * * * * * * * * * * * * * * * * * * * * * * * * * * * * * //

dimensions      [0 2 -1 0 0 0 0];

internalField   nonuniform List<scalar> 
43120
(
0.00015159
0.000105958
0.000106412
9.17221e-05
0.00014677
9.82742e-05
9.73396e-05
8.11212e-05
0.000141617
9.75304e-05
9.92291e-05
8.05998e-05
0.000137236
9.00015e-05
9.37403e-05
8.02652e-05
0.000134403
9.54839e-05
9.7157e-05
9.07769e-05
0.000132172
0.00010007
9.07844e-05
7.9159e-05
0.000125902
8.79871e-05
8.86971e-05
8.33092e-05
0.000122313
9.13515e-05
8.93334e-05
8.99403e-05
0.000121056
9.38502e-05
0.000100793
8.27397e-05
0.000117496
8.93741e-05
9.38033e-05
0.000106714
0.000117728
9.78399e-05
9.60994e-05
7.44018e-05
0.000112264
0.000102416
9.07786e-05
0.000108207
0.000110097
9.65404e-05
0.00010202
0.000105869
0.000113431
0.000100197
0.000104047
0.000107197
0.000109762
0.000102629
9.98832e-05
0.000105565
0.000107686
0.000108677
0.000106884
0.000108469
0.000109058
0.000108493
0.000111497
0.000110121
0.000109838
0.000110933
0.000111998
0.000114735
0.000109614
0.000116362
0.000114788
0.000114357
0.00011033
0.000117922
0.000117376
0.000121597
0.000111207
0.000120726
0.000120973
0.000124362
0.000112327
0.000124
0.000124254
0.00012359
0.000114556
0.000127264
0.000127245
0.0001272
0.000116319
0.000130586
0.000130769
0.000130355
0.000118494
0.000133982
0.000133764
0.000132722
0.000121021
0.00013691
0.000136726
0.000134819
0.000140311
9.17514e-05
0.000105147
0.000106149
9.26612e-05
0.000105283
0.000108822
0.000106276
0.000105605
9.82612e-05
0.000108856
0.000105796
9.12115e-05
9.43798e-05
9.03949e-05
0.000105853
0.000105775
0.00010341
0.0001004
9.26707e-05
8.29423e-05
0.000106067
0.000106381
0.000103436
9.85847e-05
0.000105426
0.000100303
0.000101242
9.59363e-05
7.76983e-05
0.00010545
9.84697e-05
0.000100673
8.41212e-05
8.80271e-05
7.86753e-05
0.000101096
9.83805e-05
9.6312e-05
9.62807e-05
8.02659e-05
8.21874e-05
0.000101103
9.74169e-05
9.64178e-05
9.9001e-05
9.86331e-05
9.65506e-05
9.52845e-05
7.65087e-05
8.97998e-05
9.83363e-05
9.92101e-05
9.52639e-05
7.83049e-05
7.75697e-05
7.78476e-05
9.50565e-05
9.71391e-05
9.35711e-05
9.25476e-05
8.44826e-05
7.46106e-05
9.51598e-05
9.90961e-05
9.34345e-05
9.49101e-05
9.59118e-05
9.27243e-05
9.40808e-05
9.04844e-05
7.99618e-05
9.59488e-05
9.48403e-05
9.4054e-05
8.07046e-05
7.82791e-05
8.23704e-05
9.26953e-05
8.99204e-05
9.24433e-05
9.07739e-05
7.0935e-05
8.21127e-05
9.25693e-05
9.38172e-05
9.25124e-05
9.67993e-05
9.36423e-05
9.03769e-05
9.56922e-05
7.9124e-05
9.3729e-05
9.3733e-05
9.68619e-05
9.59486e-05
9.00491e-05
8.55042e-05
9.59182e-05
9.41933e-05
9.57503e-05
9.73278e-05
0.000101212
8.99908e-05
0.000108687
9.43004e-05
9.70505e-05
9.73676e-05
9.20857e-05
9.593e-05
0.000101261
9.29118e-05
9.40462e-05
7.88056e-05
9.61364e-05
9.2231e-05
9.29104e-05
8.18087e-05
9.55715e-05
7.99825e-05
9.69253e-05
9.99916e-05
9.15948e-05
9.04077e-05
0.000105767
7.45836e-05
9.69021e-05
9.06549e-05
9.15735e-05
9.01539e-05
9.08187e-05
9.04148e-05
8.79812e-05
7.71599e-05
7.99168e-05
9.07815e-05
9.00456e-05
8.79087e-05
7.82849e-05
7.69941e-05
7.94313e-05
8.90396e-05
8.79773e-05
8.66328e-05
8.78833e-05
7.20491e-05
8.27316e-05
8.90569e-05
8.88154e-05
8.66887e-05
8.62077e-05
9.07173e-05
8.80123e-05
9.45701e-05
7.94162e-05
7.72162e-05
9.07111e-05
8.63676e-05
9.4569e-05
9.18152e-05
8.53567e-05
9.25162e-05
9.03875e-05
9.119e-05
9.45896e-05
9.3856e-05
8.72702e-05
9.33152e-05
9.03879e-05
8.91495e-05
9.4586e-05
0.000100401
9.30107e-05
9.38426e-05
8.82316e-05
8.15586e-05
0.000109453
9.29666e-05
0.000100358
8.82032e-05
8.04471e-05
9.07186e-05
8.88578e-05
9.31707e-05
9.39229e-05
9.16152e-05
9.15098e-05
9.26574e-05
8.51322e-05
9.31837e-05
0.000100894
9.16334e-05
9.53571e-05
8.9428e-05
9.14157e-05
9.95372e-05
0.000109609
9.00345e-05
8.94357e-05
9.5322e-05
9.95363e-05
0.000106959
9.19503e-05
0.000104906
9.34112e-05
8.937e-05
9.91224e-05
9.25073e-05
8.31435e-05
9.51168e-05
9.33745e-05
9.37588e-05
9.92344e-05
9.49634e-05
9.99121e-05
9.28741e-05
9.0313e-05
8.88848e-05
9.60299e-05
9.98952e-05
9.52436e-05
9.03676e-05
7.70809e-05
0.000104837
8.78647e-05
9.9972e-05
9.7735e-05
9.47156e-05
0.000104093
0.000102046
0.000110464
0.000100132
9.60112e-05
9.4769e-05
9.15211e-05
8.75781e-05
0.00010382
9.36933e-05
9.59632e-05
8.59992e-05
8.76605e-05
9.1345e-05
9.36839e-05
0.000102349
8.51444e-05
9.84411e-05
9.21428e-05
0.000102645
9.39778e-05
9.72622e-05
0.000108077
9.53458e-05
9.21496e-05
9.09502e-05
9.38065e-05
9.98264e-05
9.96385e-05
9.72665e-05
0.000103376
8.59113e-05
0.000106049
9.95343e-05
0.000100018
0.000103277
0.000106999
0.000104754
0.000112271
9.91474e-05
9.6415e-05
0.000106084
0.000100273
9.55689e-05
0.000101865
9.90602e-05
0.000101821
0.000106145
0.000103944
0.000102194
0.000100337
0.000102838
0.000108108
0.000107515
0.00010211
0.000103951
0.00010288
0.00010627
0.000111525
0.000103912
0.000106079
0.000100186
0.000103435
0.000101006
0.000101677
0.000102202
0.000106149
0.000104062
0.000103486
0.000100543
0.000103995
0.000100984
0.00010333
0.000106652
9.94444e-05
0.000104035
0.000100527
0.000103386
0.000105843
0.000102626
0.000104139
0.000102478
0.000102656
0.000103007
0.000107537
0.000104344
0.000112723
0.000102512
9.98952e-05
0.00010298
0.000104785
0.000103415
0.000107563
0.000105598
9.85996e-05
0.000108839
0.000103458
0.000104817
0.000105568
0.000108078
0.000105877
0.000113128
0.000104392
0.000108624
0.000108936
0.000109061
0.000113114
0.000110923
0.000104354
0.000106833
0.000108897
0.000110828
0.000106029
0.000109093
0.000107455
0.000111332
0.000115288
0.000105981
0.000110871
0.000107405
0.00010935
0.000114122
0.000116082
0.000110109
0.000108484
0.000112778
0.000109433
0.000109973
0.000111166
0.000110087
0.000111472
0.000112826
0.000111741
0.000108277
0.00010944
0.000111406
0.000115242
0.000114035
0.000108245
0.000111748
0.000111444
0.000114276
0.000116211
0.000116255
0.000113257
0.000110921
0.000114326
0.000115478
0.000112963
0.000119174
0.000113306
0.000111991
0.000114331
0.000114063
0.000112222
0.000115499
0.000113077
0.000113997
0.000116285
0.000112261
0.000114087
0.000113075
0.000114214
0.000116536
0.000119782
0.000114857
0.000116341
0.000117302
0.000117473
0.000119495
0.00011928
0.000114855
0.000114762
0.000117296
0.000116692
0.000113546
0.000117479
0.000117039
0.000116835
0.000118294
0.000113531
0.000116703
0.000117014
0.000120083
0.000120466
0.000121343
0.000118342
0.000117917
0.000120271
0.000119956
0.00011933
0.000121239
0.000118338
0.000117368
0.000120256
0.000119945
0.000118611
0.000119955
0.000122209
0.000118708
0.000121564
0.000118591
0.000119948
0.000122187
0.000124476
0.000121235
0.00012366
0.000120522
0.000120713
0.000122629
0.000123081
0.000121744
0.000124159
0.000120507
0.000120958
0.000122641
0.000123509
0.000122588
0.000123131
0.000123093
0.000122263
0.000124692
0.000122569
0.000123561
0.000123095
0.000123393
0.000124702
0.000127776
0.000123854
0.000123954
0.000126942
0.000126509
0.000124718
0.000127061
0.000123864
0.000124206
0.000126944
0.000126417
0.000123654
0.000126517
0.00012613
0.000125011
0.000126848
0.000123652
0.000126433
0.000126126
0.000126612
0.000127983
0.000129301
0.000127587
0.000127265
0.000129581
0.000129743
0.000127481
0.000129668
0.000127586
0.000127243
0.000129569
0.000129854
0.00012702
0.000129761
0.000129726
0.000127373
0.000130023
0.000127014
0.000129869
0.000129705
0.000129818
0.000129801
0.000132089
0.000130379
0.000130564
0.000132822
0.000133007
0.000130171
0.000132487
0.000130374
0.000130747
0.000132836
0.00013314
0.000130661
0.00013302
0.000133059
0.000130554
0.000132367
0.000130646
0.000133164
0.000133067
0.000132422
0.000132506
0.000134722
0.000133597
0.000133958
0.000136093
0.000136394
0.000133056
0.00013494
0.00013361
0.000133735
0.000136078
0.000135842
0.000133782
0.000136424
0.000135944
0.000132609
0.000134268
0.000133789
0.00013587
0.000135925
0.000134352
0.000135241
0.000137507
0.000136974
0.000136888
0.000139394
0.000138776
0.000135014
0.000136669
0.000136947
0.000136705
0.000139391
0.000139377
0.000136652
0.000138779
0.00013951
0.000134841
0.000137562
0.000136623
0.000139383
0.000139505
0.000137771
0.000140303
0.000137981
0.000152169
0.000152488
0.000153004
0.000152295
2.36357e-05
0.000109675
6.44764e-05
7.07001e-05
4.95703e-05
6.95307e-05
4.95671e-05
2.36279e-05
2.36203e-05
7.05053e-05
4.95674e-05
7.01421e-05
4.95462e-05
0.000151534
0.000151504
0.000151387
0.000148223
0.000147357
0.00014677
0.000147537
6.84621e-05
6.69184e-05
0.000127289
0.000105016
6.79453e-05
6.74852e-05
0.000126168
2.36256e-05
2.36225e-05
6.72473e-05
0.000126942
6.63379e-05
0.000103144
6.66623e-05
0.00012567
6.71094e-05
6.15364e-05
6.15359e-05
9.19838e-05
6.19819e-05
6.1797e-05
7.19187e-05
4.95649e-05
7.08631e-05
4.95862e-05
2.36143e-05
2.36065e-05
7.20328e-05
4.95715e-05
7.08376e-05
4.95827e-05
0.000146056
0.000145649
0.000146014
0.000142925
0.000142912
0.000143495
0.000142534
6.95848e-05
6.73098e-05
0.000122115
9.69904e-05
6.84759e-05
6.72313e-05
0.000120991
2.36129e-05
2.36109e-05
6.99938e-05
0.000122076
6.6787e-05
9.69988e-05
6.9094e-05
0.000121157
6.77887e-05
6.15248e-05
6.14742e-05
7.66479e-05
6.16676e-05
6.17833e-05
7.41142e-05
4.9596e-05
7.29099e-05
4.95963e-05
2.36001e-05
2.35984e-05
7.37774e-05
4.95771e-05
7.31887e-05
4.95823e-05
0.000142103
0.000142601
0.000141865
0.000138364
0.000138125
0.000139204
0.00013856
7.38799e-05
7.02836e-05
0.000118542
9.73485e-05
7.15964e-05
7.18242e-05
0.000117879
2.36023e-05
2.36002e-05
7.32006e-05
0.000118644
7.02583e-05
9.80604e-05
7.15548e-05
0.0001179
7.09792e-05
6.34246e-05
6.33913e-05
8.2751e-05
6.33953e-05
6.3325e-05
7.48589e-05
4.95932e-05
7.46699e-05
4.96078e-05
2.35957e-05
2.36012e-05
7.47253e-05
4.95906e-05
7.44852e-05
4.96055e-05
0.000136085
0.000137927
0.000137705
0.000134602
0.000134104
0.000135976
0.000135936
7.49992e-05
7.06521e-05
0.000114415
8.80359e-05
7.48826e-05
7.04636e-05
0.000113369
2.35917e-05
2.3591e-05
7.53791e-05
0.000114931
6.92338e-05
9.34396e-05
7.48468e-05
0.000114078
7.11665e-05
6.34891e-05
6.36308e-05
8.3114e-05
6.35728e-05
6.37832e-05
7.66367e-05
4.96367e-05
7.58706e-05
4.96393e-05
2.35924e-05
2.35811e-05
7.69836e-05
4.9633e-05
7.62823e-05
4.96343e-05
0.000134705
0.000135412
0.00013503
0.000133155
0.000134599
0.000131493
0.000131886
7.86165e-05
7.20674e-05
0.000111661
9.93999e-05
7.71414e-05
7.3857e-05
0.000111613
2.35783e-05
2.3572e-05
7.94072e-05
0.000112326
7.38783e-05
9.58867e-05
7.79366e-05
0.000111792
7.34081e-05
6.45517e-05
6.46462e-05
8.96269e-05
6.5164e-05
6.51648e-05
7.83151e-05
4.96467e-05
7.77254e-05
4.96384e-05
2.35612e-05
2.35592e-05
7.80846e-05
4.9637e-05
7.72427e-05
4.96349e-05
0.000133437
0.000129908
0.000130132
0.000128037
0.000127827
0.000127001
0.000126387
8.24987e-05
7.51182e-05
0.000110619
9.71534e-05
8.16722e-05
7.5173e-05
0.000109796
2.3565e-05
2.35639e-05
8.17715e-05
0.000109212
7.38399e-05
8.97668e-05
8.08733e-05
0.000108303
7.53005e-05
6.47053e-05
6.45572e-05
7.45618e-05
6.44614e-05
6.43264e-05
7.86389e-05
4.96253e-05
7.86507e-05
4.96456e-05
2.35586e-05
2.35624e-05
7.884e-05
4.96237e-05
7.89281e-05
4.96411e-05
0.000125565
0.000125345
0.00012619
0.000122498
0.000122646
0.000122082
0.000125364
8.42669e-05
7.48956e-05
0.000106524
8.62327e-05
8.31052e-05
7.51343e-05
0.000105424
2.35607e-05
2.35649e-05
8.47047e-05
0.000106334
7.59749e-05
8.67497e-05
8.3428e-05
0.000105584
7.5831e-05
6.5946e-05
6.59617e-05
9.12005e-05
6.64804e-05
6.64512e-05
8.02829e-05
4.9673e-05
7.92675e-05
4.96697e-05
2.3564e-05
2.35582e-05
8.0028e-05
4.96644e-05
7.90505e-05
4.96633e-05
0.000122581
0.000121996
0.000124155
0.000122013
0.000122136
0.000123821
0.000120183
8.7352e-05
7.7534e-05
0.00010455
9.33394e-05
8.59755e-05
7.80228e-05
0.000104582
2.35721e-05
2.35701e-05
8.68227e-05
0.000104418
7.57939e-05
9.35274e-05
8.58318e-05
0.000104411
7.71512e-05
6.63614e-05
6.63053e-05
8.40611e-05
6.58644e-05
6.58085e-05
8.10127e-05
4.96624e-05
8.08243e-05
4.96686e-05
2.35461e-05
2.35482e-05
8.12126e-05
4.96579e-05
8.09498e-05
4.96629e-05
0.000121454
0.000123587
0.000119748
0.000117949
0.000117705
0.000120612
0.000120537
8.92424e-05
7.7937e-05
0.000103747
9.39064e-05
8.84252e-05
7.95701e-05
0.000103308
2.35524e-05
2.3545e-05
8.99509e-05
0.000104665
7.99592e-05
9.94594e-05
8.86242e-05
0.000104681
7.95177e-05
6.56389e-05
6.57234e-05
9.50864e-05
6.74811e-05
6.756e-05
8.16236e-05
4.96826e-05
8.15104e-05
4.96916e-05
2.35493e-05
2.35564e-05
8.15097e-05
4.96743e-05
8.12747e-05
4.9689e-05
0.000116282
0.000118792
0.000120079
0.000118
0.000114269
0.000115917
0.000115099
9.27469e-05
7.92274e-05
0.000102203
8.81455e-05
9.15918e-05
7.82873e-05
0.000101844
2.35376e-05
2.35428e-05
9.22248e-05
0.000102834
7.79772e-05
9.29268e-05
9.09914e-05
0.000102195
7.99515e-05
6.88026e-05
6.88102e-05
9.59365e-05
6.72913e-05
6.73287e-05
8.31532e-05
4.96958e-05
8.21515e-05
4.96804e-05
2.35627e-05
2.35542e-05
8.32235e-05
4.96923e-05
8.26961e-05
4.96724e-05
0.000115573
0.000115526
0.000113129
0.000113993
0.000117472
0.000112276
0.000110808
9.37587e-05
8.10856e-05
0.000101922
0.000101853
9.2916e-05
8.23762e-05
0.000102321
2.35381e-05
2.35359e-05
9.42811e-05
0.000102465
8.17626e-05
9.5e-05
9.38856e-05
0.000102274
8.07275e-05
6.50704e-05
6.5103e-05
7.54651e-05
6.74358e-05
6.73018e-05
8.31401e-05
4.96802e-05
8.33375e-05
4.97144e-05
2.35364e-05
2.35349e-05
8.29041e-05
4.96722e-05
8.29277e-05
4.97109e-05
0.000116682
0.000111178
0.000112593
0.000108945
0.000112936
0.000112017
0.000114845
9.69623e-05
8.2197e-05
0.000103222
0.000100585
9.57695e-05
8.17486e-05
0.000103091
2.35482e-05
2.35564e-05
9.63443e-05
0.000100516
8.01137e-05
9.28817e-05
9.4864e-05
0.000100682
8.21442e-05
7.00912e-05
6.99546e-05
0.000112112
6.97268e-05
6.96681e-05
8.43512e-05
4.97368e-05
8.36411e-05
4.97348e-05
2.35418e-05
2.35441e-05
8.44237e-05
4.97339e-05
8.38497e-05
4.97303e-05
0.000111756
0.000112676
0.000114113
0.000113509
0.000110379
0.000112817
0.000112213
9.83223e-05
8.24097e-05
0.000102047
9.7628e-05
9.75958e-05
8.36318e-05
0.000102066
2.35494e-05
2.35431e-05
9.86338e-05
0.000102745
8.34153e-05
0.000103001
9.80353e-05
0.000103119
8.33971e-05
6.84234e-05
6.84748e-05
0.000104059
6.91082e-05
6.91646e-05
8.49986e-05
4.97304e-05
8.48359e-05
4.97294e-05
2.35406e-05
2.35427e-05
8.50941e-05
4.97245e-05
8.47893e-05
4.97239e-05
0.000109972
0.000112457
0.000112189
0.00011088
0.000108633
0.000109159
0.000110448
0.00010099
8.38244e-05
0.00010299
9.97886e-05
0.000100084
8.35678e-05
0.000103144
2.35372e-05
2.35363e-05
0.000101208
0.000103788
8.45029e-05
0.000103341
9.99579e-05
0.000103995
8.46031e-05
6.99719e-05
6.99891e-05
0.000107229
6.9577e-05
6.96044e-05
8.54879e-05
4.97316e-05
8.5223e-05
4.97463e-05
2.35497e-05
2.35495e-05
8.53849e-05
4.9726e-05
8.52779e-05
4.97392e-05
0.000108738
0.000108082
0.000109853
0.000107673
0.000109851
0.000108056
0.000109132
0.000102411
8.46962e-05
0.000103694
0.000104446
0.00010158
8.53524e-05
0.000104097
2.35406e-05
2.35524e-05
0.00010218
0.000103612
8.37578e-05
0.000100744
0.000101724
0.000103595
8.4707e-05
6.94821e-05
6.94366e-05
0.000105995
7.00944e-05
7.00457e-05
8.62946e-05
4.97668e-05
8.59337e-05
4.97764e-05
2.35452e-05
2.35445e-05
8.6268e-05
4.9762e-05
8.58668e-05
4.97714e-05
0.000110162
0.00010863
0.000108896
0.000108713
0.000109621
0.000110062
0.000108338
0.000104671
8.6126e-05
0.000105765
0.000109358
0.000103767
8.65474e-05
0.000106288
2.35527e-05
2.35516e-05
0.000104598
0.000105121
8.59639e-05
0.000108574
0.000103661
0.000105829
8.64154e-05
7.01463e-05
7.01082e-05
0.000108508
7.02093e-05
7.01906e-05
8.68468e-05
4.97837e-05
8.66532e-05
4.97893e-05
2.35437e-05
2.35496e-05
8.69191e-05
4.97787e-05
8.66428e-05
4.97845e-05
0.000108988
0.000110237
0.000108331
0.00010981
0.000107875
0.000109626
0.000108835
0.000106289
8.63552e-05
0.000107267
0.000108155
0.000105649
8.63629e-05
0.000107457
2.35479e-05
2.35469e-05
0.000106455
0.00010766
8.69946e-05
0.00011175
0.00010564
0.000108146
8.71839e-05
7.04511e-05
7.04869e-05
0.000111957
7.08023e-05
7.08647e-05
8.74951e-05
4.97976e-05
8.7174e-05
4.98035e-05
2.35564e-05
2.35576e-05
8.74678e-05
4.97915e-05
8.72204e-05
4.97973e-05
0.000108102
0.000109363
0.000109003
0.000109639
0.00010972
0.000109261
0.000108772
0.000108165
8.73864e-05
0.000108663
0.000112626
0.000107249
8.81193e-05
0.000109356
2.35474e-05
2.35513e-05
0.000108143
0.000109262
8.72041e-05
0.000112559
0.000107412
0.000109684
8.78178e-05
7.1074e-05
7.10829e-05
0.000114795
7.10245e-05
7.1019e-05
8.80595e-05
4.98178e-05
8.78347e-05
4.9828e-05
2.35553e-05
2.35557e-05
8.80454e-05
4.98125e-05
8.78001e-05
4.98227e-05
0.000110125
0.000109343
0.000108701
0.000109989
0.000110393
0.000109701
0.00010956
0.000109919
8.85825e-05
0.000111638
0.00011686
0.000109266
8.87044e-05
0.000112238
2.35523e-05
2.35549e-05
0.000109847
0.000111278
8.83303e-05
0.000115427
0.000109166
0.00011183
8.8575e-05
7.09411e-05
7.09253e-05
0.000115905
7.13981e-05
7.1375e-05
8.86926e-05
4.98415e-05
8.83825e-05
4.98479e-05
2.3558e-05
2.35619e-05
8.86838e-05
4.98363e-05
8.83838e-05
4.98428e-05
0.000110422
0.000109863
0.000110191
0.000111123
0.000110885
0.000110706
0.000112155
0.000111545
8.89363e-05
0.0001138
0.000118514
0.000110757
8.93964e-05
0.000114388
2.35584e-05
2.35616e-05
0.000111545
0.000113574
8.89688e-05
0.000118118
0.000110763
0.000114224
8.93298e-05
7.20377e-05
7.20343e-05
0.000123617
7.22553e-05
7.22481e-05
8.91871e-05
4.98567e-05
8.90207e-05
4.98706e-05
2.35646e-05
2.35681e-05
8.9196e-05
4.98519e-05
8.9008e-05
4.98662e-05
0.000111135
0.000111141
0.000112439
0.000111817
0.000112134
0.00011239
0.000112542
0.000113308
8.98532e-05
0.000116431
0.000121507
0.000112629
9.01654e-05
0.00011713
2.35656e-05
2.35678e-05
0.00011332
0.000116419
8.99277e-05
0.000121948
0.000112618
0.00011719
9.03477e-05
7.22142e-05
7.22091e-05
0.000123874
7.19939e-05
7.19961e-05
8.98127e-05
4.98915e-05
8.95039e-05
4.99005e-05
2.35724e-05
2.35758e-05
8.97992e-05
4.98861e-05
8.95197e-05
4.98951e-05
0.000112534
0.000112752
0.000112682
0.000114099
0.000113896
0.000113927
0.00011365
0.000114777
9.05678e-05
0.000119195
0.000124883
0.000114107
9.09545e-05
0.000119913
2.35704e-05
2.35745e-05
0.000114785
0.000119316
9.05932e-05
0.000124945
0.000114161
0.000120008
9.08779e-05
7.22601e-05
7.22548e-05
0.000124687
7.24568e-05
7.24539e-05
9.03203e-05
4.99112e-05
9.0127e-05
4.99222e-05
2.35793e-05
2.35831e-05
9.03149e-05
4.99062e-05
9.01126e-05
4.99174e-05
0.000114353
0.00011436
0.000114119
0.000115828
0.000115833
0.000115895
0.000115738
0.000116369
9.12935e-05
0.000122201
0.000128043
0.000115716
9.16077e-05
0.000122963
2.35787e-05
2.35824e-05
0.000116355
0.000122194
9.12848e-05
0.000128099
0.000115697
0.000122968
9.16477e-05
7.25957e-05
7.25874e-05
0.000128243
7.28409e-05
7.28328e-05
9.08716e-05
4.99404e-05
9.0626e-05
4.99525e-05
2.35879e-05
2.35908e-05
9.08819e-05
4.99355e-05
9.06226e-05
4.99477e-05
0.000116365
0.000116477
0.000116349
0.000117931
0.000118077
0.000118216
0.000118133
0.000117917
9.20621e-05
0.000125399
0.000131355
0.00011727
9.23205e-05
0.000126222
2.35861e-05
2.35892e-05
0.000117942
0.000125417
9.20925e-05
0.000131658
0.000117266
0.00012628
9.2447e-05
7.30102e-05
7.30104e-05
0.00013129
7.31352e-05
7.31358e-05
9.14064e-05
4.99684e-05
9.1168e-05
4.99814e-05
2.35956e-05
2.35992e-05
9.13846e-05
4.99634e-05
9.11849e-05
4.99758e-05
0.000118735
0.000118712
0.000118663
0.000120346
0.00012063
0.000120266
0.000120358
0.000119409
9.27336e-05
0.000128745
0.000134949
0.000118747
9.31907e-05
0.000129618
2.35933e-05
2.35978e-05
0.000119379
0.000128783
9.27029e-05
0.000134355
0.000118801
0.000129562
9.29155e-05
7.32876e-05
7.32912e-05
0.000133269
7.33981e-05
7.33797e-05
9.18918e-05
4.99979e-05
9.17176e-05
5.00093e-05
2.36023e-05
2.36077e-05
9.18866e-05
4.99928e-05
9.16722e-05
5.00051e-05
0.000121164
0.00012091
0.000120934
0.00012307
0.000122724
0.000122975
0.000123024
0.000120726
9.33419e-05
0.000132191
0.000137364
0.00012025
9.33789e-05
0.000132953
2.36042e-05
2.36084e-05
0.000120708
0.000132022
9.32905e-05
0.000137596
0.00012015
0.000132871
9.3629e-05
7.34068e-05
7.33921e-05
0.000135908
7.36398e-05
7.36442e-05
0.000123734
2.36137e-05
9.41035e-05
2.36376e-05
2.36353e-05
6.14273e-05
6.15507e-05
4.95697e-05
6.91214e-05
4.95666e-05
6.94451e-05
6.55913e-05
0.000127592
6.54693e-05
6.5933e-05
0.000127945
6.61979e-05
2.36323e-05
6.13536e-05
6.14309e-05
2.36332e-05
4.95439e-05
0.000109689
6.43889e-05
6.78335e-05
4.95775e-05
6.98051e-05
6.44391e-05
6.60706e-05
0.000127796
0.00012853
6.64858e-05
6.73483e-05
4.95599e-05
4.95445e-05
6.94866e-05
6.4563e-05
0.000109584
0.000128033
6.59315e-05
0.000129122
6.47591e-05
6.59792e-05
6.62481e-05
0.00012818
6.73692e-05
4.95738e-05
7.01314e-05
0.000127889
6.56417e-05
6.6603e-05
4.95811e-05
6.97187e-05
0.000101489
6.02987e-05
6.05034e-05
2.36377e-05
2.36285e-05
2.36325e-05
0.000101745
6.12115e-05
6.12469e-05
6.04974e-05
6.0683e-05
2.36289e-05
2.3634e-05
4.95491e-05
6.53341e-05
0.000109587
0.000128112
6.60348e-05
0.000129202
6.49585e-05
6.63257e-05
6.59007e-05
0.000127982
6.56145e-05
0.000129101
6.63724e-05
6.82409e-05
4.95496e-05
4.9551e-05
6.93159e-05
6.84482e-05
4.95288e-05
6.90913e-05
6.13504e-05
6.14163e-05
2.3633e-05
2.36282e-05
2.36325e-05
2.36237e-05
2.36294e-05
2.362e-05
6.15311e-05
6.16243e-05
9.70031e-05
6.16077e-05
6.15219e-05
2.36156e-05
2.3619e-05
2.36132e-05
2.36155e-05
9.66165e-05
6.17244e-05
6.15934e-05
6.15505e-05
6.14349e-05
7.04512e-05
4.95572e-05
6.9613e-05
4.95389e-05
6.80258e-05
6.62042e-05
0.000126797
0.000105838
6.6278e-05
6.70306e-05
0.000125998
6.7961e-05
6.66451e-05
0.000126992
0.000104827
6.68245e-05
6.74132e-05
0.000125953
7.07455e-05
4.95625e-05
4.95632e-05
7.0848e-05
7.05343e-05
4.95474e-05
4.95376e-05
7.10904e-05
6.84675e-05
0.000105025
6.71902e-05
0.000123812
6.7028e-05
0.000125016
6.89016e-05
6.83349e-05
0.000102945
6.76649e-05
0.000123551
6.72881e-05
0.00012476
6.88668e-05
6.16551e-05
6.17273e-05
9.18689e-05
6.18622e-05
6.19035e-05
2.36285e-05
2.36218e-05
2.36163e-05
2.36173e-05
9.02962e-05
6.17742e-05
6.16268e-05
6.1768e-05
6.17841e-05
2.36183e-05
2.36192e-05
6.83827e-05
6.66173e-05
0.000127056
0.000106032
6.72792e-05
6.70796e-05
0.000126212
7.07821e-05
4.95601e-05
6.99152e-05
4.95518e-05
6.8382e-05
0.000126953
6.63373e-05
0.000103224
6.68355e-05
0.000125861
6.74411e-05
7.0412e-05
4.95645e-05
4.95444e-05
7.06837e-05
6.85323e-05
0.000105177
6.69473e-05
0.000123798
6.6899e-05
0.000125118
6.86812e-05
7.0768e-05
4.95423e-05
4.9546e-05
7.09808e-05
6.87518e-05
0.000100504
0.000123433
6.70426e-05
0.000124655
6.74628e-05
6.9098e-05
7.02971e-05
4.9555e-05
7.02813e-05
4.95244e-05
6.87538e-05
0.000127012
6.63196e-05
0.000104885
6.73531e-05
0.000126105
6.78435e-05
7.08987e-05
4.95802e-05
7.00463e-05
4.95596e-05
6.83822e-05
0.000102994
6.71986e-05
0.000123375
6.72612e-05
0.000124795
6.83111e-05
7.0157e-05
4.95576e-05
4.95229e-05
7.06655e-05
6.90849e-05
0.00010354
0.000123896
6.77298e-05
0.000125108
6.80432e-05
6.93288e-05
7.08826e-05
4.95367e-05
4.95492e-05
7.10474e-05
6.14128e-05
6.14036e-05
8.64089e-05
6.18705e-05
6.17876e-05
2.36263e-05
2.36245e-05
2.36151e-05
2.36195e-05
8.32723e-05
6.14332e-05
6.13572e-05
6.17772e-05
6.16869e-05
2.36179e-05
2.3622e-05
6.68381e-05
0.000126836
6.61057e-05
0.000104643
6.64941e-05
0.000125656
6.71431e-05
6.98531e-05
4.95445e-05
6.93419e-05
4.95429e-05
6.96612e-05
4.9524e-05
6.90649e-05
4.95281e-05
6.75695e-05
0.000100375
0.000123122
6.6833e-05
0.000124334
6.71055e-05
6.85779e-05
6.7159e-05
0.000103143
0.000123319
6.73518e-05
0.000124481
6.73729e-05
6.85725e-05
7.00352e-05
4.95671e-05
4.95452e-05
7.13253e-05
6.99641e-05
4.9553e-05
4.95341e-05
7.14192e-05
2.36273e-05
2.36206e-05
2.36231e-05
2.36184e-05
9.08128e-05
6.16821e-05
6.15759e-05
6.19682e-05
6.18014e-05
2.36126e-05
2.36178e-05
2.36123e-05
2.36166e-05
2.36144e-05
2.36127e-05
2.36122e-05
2.36103e-05
6.19466e-05
6.18704e-05
8.28054e-05
6.25664e-05
6.25793e-05
2.36025e-05
2.36089e-05
2.36003e-05
2.36064e-05
8.12627e-05
6.24482e-05
6.24722e-05
6.25527e-05
6.2577e-05
7.17396e-05
4.95487e-05
7.11188e-05
4.95586e-05
6.96457e-05
6.74822e-05
0.000122538
9.92639e-05
6.90249e-05
6.87418e-05
0.00012134
6.95797e-05
6.76975e-05
0.000122329
9.70428e-05
6.90731e-05
6.72872e-05
0.000121117
7.20808e-05
4.9596e-05
4.95886e-05
7.2761e-05
7.17545e-05
4.95934e-05
4.95644e-05
7.23459e-05
7.01464e-05
9.77307e-05
6.89949e-05
0.000119298
6.8939e-05
0.000120313
7.11883e-05
6.98606e-05
9.62509e-05
6.8884e-05
0.000118878
6.71439e-05
0.000119926
7.0484e-05
6.17775e-05
6.16351e-05
7.72722e-05
6.17112e-05
6.15887e-05
2.36165e-05
2.3609e-05
2.36014e-05
2.36021e-05
7.69613e-05
6.29263e-05
6.2968e-05
6.17508e-05
6.16487e-05
2.36026e-05
2.36043e-05
6.97494e-05
6.73297e-05
0.000122514
9.93146e-05
6.88195e-05
6.8858e-05
0.000121381
7.15824e-05
4.9543e-05
7.09747e-05
4.95655e-05
6.94549e-05
0.000122248
6.68289e-05
9.69847e-05
6.91583e-05
0.000121134
6.75157e-05
7.22713e-05
4.95778e-05
4.95818e-05
7.31219e-05
7.03772e-05
9.78206e-05
6.91229e-05
0.000119489
6.91019e-05
0.000120455
7.17094e-05
7.18086e-05
4.95868e-05
4.95714e-05
7.30146e-05
6.97833e-05
9.78203e-05
0.000119354
6.96387e-05
0.0001202
6.79294e-05
7.12144e-05
7.18371e-05
4.95681e-05
7.09673e-05
4.9597e-05
6.92568e-05
0.000122487
6.73192e-05
9.69219e-05
6.9316e-05
0.000121051
6.70201e-05
7.13148e-05
4.95347e-05
7.09919e-05
4.95546e-05
6.99637e-05
9.62971e-05
6.9327e-05
0.000119128
6.72323e-05
0.000119977
7.09125e-05
7.18215e-05
4.96024e-05
4.95997e-05
7.26181e-05
6.93315e-05
9.58002e-05
0.000118828
6.97096e-05
0.000119743
6.7519e-05
7.04243e-05
7.1356e-05
4.95933e-05
4.95664e-05
7.26003e-05
6.14067e-05
6.13531e-05
7.89859e-05
6.22893e-05
6.23142e-05
2.36157e-05
2.36128e-05
2.36042e-05
2.3608e-05
8.27686e-05
6.33211e-05
6.33127e-05
6.25643e-05
6.25807e-05
2.36054e-05
2.36092e-05
6.97289e-05
0.000122124
6.71417e-05
9.67721e-05
6.91144e-05
0.000120909
6.73375e-05
7.19025e-05
4.95703e-05
7.14622e-05
4.95816e-05
7.15879e-05
4.95541e-05
7.15528e-05
4.95609e-05
7.02779e-05
9.80111e-05
0.000119492
6.97385e-05
0.000120327
6.82163e-05
7.10404e-05
6.98172e-05
9.56879e-05
0.00011883
6.97109e-05
0.000119719
6.77917e-05
7.04512e-05
7.18845e-05
4.95787e-05
4.95812e-05
7.26447e-05
7.15046e-05
4.95913e-05
4.95643e-05
7.24717e-05
2.36094e-05
2.36089e-05
2.36093e-05
2.36089e-05
7.56577e-05
6.33003e-05
6.3289e-05
6.21504e-05
6.22451e-05
2.36091e-05
2.36087e-05
2.36092e-05
2.36086e-05
2.36004e-05
2.36015e-05
2.35984e-05
2.36e-05
6.24508e-05
6.24636e-05
7.66162e-05
6.33887e-05
6.33559e-05
2.35991e-05
2.36007e-05
2.35978e-05
2.35993e-05
7.65181e-05
6.37746e-05
6.37704e-05
6.36952e-05
6.36491e-05
7.4128e-05
4.9596e-05
7.26254e-05
4.95997e-05
7.30883e-05
6.90437e-05
0.000118254
9.40722e-05
7.16383e-05
7.02929e-05
0.000117376
7.29292e-05
6.9878e-05
0.000118102
9.69927e-05
7.09655e-05
7.16247e-05
0.000117391
7.43286e-05
4.95932e-05
4.95951e-05
7.47128e-05
7.43684e-05
4.96011e-05
4.95992e-05
7.48013e-05
7.36914e-05
9.37845e-05
7.15321e-05
0.000115599
7.08015e-05
0.000116524
7.48871e-05
7.368e-05
9.52583e-05
7.10286e-05
0.000115447
7.15619e-05
0.000116526
7.50391e-05
6.32785e-05
6.33254e-05
8.44295e-05
6.36267e-05
6.3679e-05
2.36008e-05
2.35984e-05
2.35962e-05
2.3597e-05
8.20923e-05
6.31459e-05
6.31812e-05
6.35888e-05
6.36383e-05
2.35963e-05
2.35969e-05
7.3048e-05
6.90733e-05
0.000118414
9.41292e-05
7.21529e-05
7.01381e-05
0.000117451
7.41134e-05
4.95865e-05
7.32066e-05
4.95803e-05
7.34097e-05
0.000118571
7.02283e-05
9.80405e-05
7.18603e-05
0.000117899
7.11266e-05
7.39159e-05
4.95899e-05
4.95837e-05
7.45013e-05
7.34451e-05
9.37162e-05
7.14454e-05
0.000115527
7.0638e-05
0.000116495
7.44965e-05
7.42372e-05
4.95849e-05
4.95785e-05
7.45329e-05
7.39169e-05
9.64184e-05
0.000116081
6.96471e-05
0.000117132
7.07402e-05
7.48064e-05
7.46425e-05
4.95994e-05
7.30724e-05
4.95818e-05
7.38303e-05
0.000118222
7.01857e-05
9.59413e-05
7.12663e-05
0.000117577
7.04606e-05
7.47261e-05
4.95943e-05
7.31348e-05
4.95939e-05
7.45082e-05
9.55095e-05
7.09961e-05
0.000115718
7.16796e-05
0.000116997
7.50415e-05
7.47593e-05
4.95723e-05
4.95758e-05
7.44354e-05
7.45158e-05
9.50772e-05
0.000115876
7.06716e-05
0.00011681
7.02621e-05
7.52193e-05
7.48739e-05
4.95904e-05
4.95917e-05
7.45664e-05
6.34645e-05
6.34481e-05
8.74717e-05
6.32311e-05
6.32012e-05
2.36038e-05
2.36023e-05
2.3594e-05
2.35982e-05
8.49482e-05
6.25591e-05
6.25468e-05
6.30456e-05
6.30074e-05
2.35971e-05
2.36004e-05
7.33205e-05
0.000118137
7.01183e-05
9.59003e-05
7.11408e-05
0.000117435
7.02927e-05
7.40969e-05
4.95763e-05
7.29204e-05
4.95755e-05
7.42976e-05
4.95956e-05
7.28823e-05
4.96064e-05
7.37518e-05
9.63771e-05
0.000115958
6.94719e-05
0.00011703
7.05716e-05
7.47359e-05
7.40331e-05
9.50094e-05
0.000115923
7.08431e-05
0.000116682
7.01247e-05
7.52471e-05
7.42046e-05
4.95962e-05
4.95757e-05
7.45256e-05
7.4436e-05
4.96062e-05
4.96063e-05
7.47925e-05
2.36065e-05
2.36001e-05
2.3607e-05
2.36012e-05
8.22418e-05
6.32861e-05
6.33659e-05
6.32853e-05
6.32265e-05
2.35951e-05
2.35967e-05
2.35964e-05
2.35978e-05
2.35968e-05
2.3595e-05
2.35954e-05
2.35938e-05
6.36483e-05
6.36658e-05
7.85866e-05
6.33067e-05
6.34053e-05
2.35961e-05
2.35944e-05
2.35941e-05
2.35931e-05
7.88037e-05
6.46395e-05
6.47319e-05
6.33486e-05
6.34812e-05
7.51184e-05
4.96022e-05
7.47833e-05
4.96113e-05
7.56205e-05
7.12698e-05
0.000114712
9.16791e-05
7.51016e-05
7.07237e-05
0.000113811
7.5942e-05
7.07512e-05
0.000114414
8.80471e-05
7.52764e-05
7.08799e-05
0.000113525
7.49485e-05
4.96357e-05
4.96143e-05
7.57661e-05
7.52303e-05
4.96268e-05
4.96134e-05