/*--------------------------------*- C++ -*----------------------------------*\
| =========                 |                                                 |
| \\      /  F ield         | OpenFOAM: The Open Source CFD Toolbox           |
|  \\    /   O peration     | Version:  2312                                  |
|   \\  /    A nd           | Website:  www.openfoam.com                      |
|    \\/     M anipulation  |                                                 |
\*---------------------------------------------------------------------------*/
FoamFile
{
    version     2.0;
    format      ascii;
    arch        "LSB;label=32;scalar=64";
    class       volScalarField;
    location    "500";
    object      p;
}
// * * * * * * * * * * * * * * * * * * * * * * * * * * * * * * * * * * * * * //

dimensions      [0 2 -2 0 0 0 0];

internalField   nonuniform List<scalar> 
43120
(
0.00265232
0.00265222
0.00265205
0.00265468
0.00261229
0.00261227
0.00261254
0.00261452
0.00257286
0.00257277
0.00257264
0.00257536
0.00253352
0.00253354
0.00253347
0.00253594
0.00249419
0.00249445
0.00249363
0.00249624
0.0024548
0.00245421
0.00245506
0.00245723
0.00241652
0.00241657
0.00241639
0.00241917
0.00237818
0.00237809
0.0023785
0.00238008
0.00233954
0.00233943
0.00233901
0.00234258
0.00230143
0.00230132
0.00230131
0.00230261
0.0022632
0.00226366
0.00226319
0.00226636
0.00222573
0.00222523
0.00222608
0.00222772
0.002188
0.00218797
0.00218773
0.00219001
0.00215002
0.00215012
0.00214994
0.00215224
0.00211274
0.00211288
0.00211292
0.00211497
0.00207562
0.0020754
0.00207559
0.00207767
0.00203837
0.00203832
0.00203825
0.00204057
0.00200131
0.00200145
0.00200131
0.00200343
0.00196445
0.00196437
0.00196443
0.0019667
0.00192769
0.00192767
0.0019277
0.00192981
0.00189105
0.00189101
0.00189101
0.00189303
0.00185457
0.00185451
0.00185449
0.00185666
0.00181812
0.00181809
0.0018181
0.00182021
0.00178184
0.00178177
0.00178176
0.00178386
0.00174562
0.00174554
0.00174553
0.00174761
0.00170949
0.00170939
0.00170943
0.00171152
0.00167334
0.00266024
0.00266264
0.0026625
0.00265994
0.00266263
0.00266214
0.00266248
0.00266249
0.00265945
0.00266212
0.00266246
0.00266005
0.00265483
0.0026195
0.00265234
0.00265223
0.00262194
0.00262203
0.00265456
0.0026196
0.00265233
0.00265207
0.00262197
0.00262226
0.00265228
0.00262205
0.00262199
0.00265422
0.00262011
0.00265226
0.00262231
0.00262206
0.00261961
0.00261439
0.00258031
0.00261212
0.00261222
0.00258258
0.00258278
0.00261452
0.00258043
0.00261215
0.00261248
0.00258257
0.00258263
0.00261219
0.00258279
0.00258288
0.00261499
0.00258024
0.00261224
0.00258264
0.00258287
0.00258057
0.00257515
0.00254104
0.00257277
0.00257278
0.00254335
0.00254313
0.00257513
0.00254094
0.00257275
0.00257264
0.00254333
0.00254316
0.00257287
0.0025431
0.00254321
0.00257501
0.00254117
0.00257286
0.00254315
0.00254321
0.00254099
0.0025359
0.00250203
0.00253344
0.00253356
0.0025042
0.00250446
0.0025359
0.0025028
0.00253342
0.00253348
0.00250415
0.00250371
0.00253352
0.00250445
0.00250391
0.00253602
0.0025011
0.0025335
0.00250368
0.00250384
0.00250152
0.00249682
0.00246194
0.00249427
0.00249446
0.00246438
0.00246393
0.00249736
0.00246108
0.00249423
0.00249365
0.00246442
0.00246463
0.00249394
0.00246395
0.00246441
0.00249595
0.00246243
0.00249388
0.00246465
0.00246446
0.00246223
0.0024567
0.00242355
0.0024545
0.00245417
0.00242573
0.00242592
0.00245602
0.00242383
0.00245456
0.00245504
0.00242572
0.00242598
0.00245481
0.00242595
0.00242631
0.00245737
0.00242375
0.00245488
0.00242601
0.00242634
0.00242434
0.00241868
0.00238605
0.00241633
0.00241657
0.0023881
0.00238791
0.00241892
0.00238573
0.00241633
0.00241638
0.00238811
0.00238817
0.0024166
0.00238786
0.0023874
0.00241874
0.00238632
0.00241661
0.00238813
0.00238741
0.00238508
0.00238079
0.00234671
0.00237825
0.00237813
0.00234899
0.00234903
0.00238058
0.00234675
0.00237827
0.00237854
0.00234897
0.00234885
0.00237782
0.00234904
0.00234942
0.00238121
0.0023462
0.00237784
0.00234886
0.00234941
0.00234761
0.0023417
0.00230898
0.00233944
0.00233941
0.00231107
0.00231079
0.00234164
0.00230861
0.0023394
0.00233899
0.00231103
0.00231072
0.00233987
0.00231076
0.00231039
0.00234108
0.00230878
0.00233985
0.00231069
0.00231039
0.00230764
0.00230395
0.00227011
0.00230152
0.00230136
0.00227261
0.00227338
0.00230373
0.00227125
0.00230149
0.00230137
0.00227257
0.00227265
0.0023006
0.0022734
0.00227301
0.00230374
0.00227023
0.00230058
0.00227269
0.00227299
0.00227119
0.00226502
0.00223295
0.00226295
0.00226361
0.00223485
0.00223449
0.00226597
0.00223211
0.00226292
0.0022631
0.00223489
0.00223531
0.00226395
0.00223459
0.0022354
0.00226534
0.00223341
0.00226393
0.00223536
0.00223544
0.00223295
0.0022281
0.00219551
0.00222574
0.00222521
0.00219778
0.0021974
0.00222729
0.00219535
0.00222582
0.00222608
0.00219779
0.00219736
0.00222554
0.00219735
0.00219707
0.00222854
0.00219496
0.0022256
0.0021973
0.00219708
0.00219494
0.00219031
0.00215695
0.00218805
0.00218801
0.00215931
0.00215951
0.00219034
0.00215729
0.00218804
0.00218778
0.00215929
0.00215933
0.00218777
0.00215952
0.00215954
0.00218992
0.00215705
0.00218775
0.00215934
0.00215952
0.00215722
0.00215201
0.00211982
0.00214991
0.0021501
0.00212196
0.00212224
0.00215234
0.00212011
0.00214988
0.00214992
0.00212195
0.00212207
0.00215007
0.00212225
0.00212205
0.0021521
0.00212005
0.00215005
0.00212207
0.00212204
0.0021199
0.00211495
0.00208288
0.00211273
0.00211288
0.002085
0.00208477
0.00211513
0.00208248
0.00211274
0.00211292
0.00208502
0.002085
0.00211277
0.00208475
0.0020848
0.00211519
0.00208276
0.00211277
0.00208498
0.00208482
0.0020826
0.00207791
0.00204543
0.00207566
0.00207541
0.00204764
0.00204754
0.00207752
0.00204538
0.00207568
0.00207561
0.00204764
0.00204754
0.00207548
0.00204754
0.00204766
0.00207777
0.0020453
0.00207549
0.00204754
0.00204766
0.0020455
0.00204048
0.00200831
0.00203833
0.00203831
0.00201052
0.00201072
0.0020405
0.0020086
0.00203833
0.00203825
0.0020105
0.00201051
0.00203838
0.00201073
0.00201056
0.00204039
0.00200839
0.00203838
0.00201052
0.00201054
0.00200834
0.0020034
0.0019715
0.00200127
0.00200144
0.00197364
0.00197358
0.00200363
0.00197137
0.00200126
0.00200131
0.00197364
0.00197364
0.0020013
0.00197359
0.00197367
0.00200349
0.00197147
0.00200128
0.00197365
0.00197367
0.00197157
0.00196661
0.00193467
0.00196444
0.00196436
0.00193685
0.00193682
0.00196648
0.00193469
0.00196445
0.00196442
0.00193685
0.00193687
0.00196452
0.00193683
0.00193692
0.00196657
0.00193472
0.00196452
0.00193687
0.00193693
0.00193475
0.00192976
0.001898
0.00192764
0.00192766
0.00190013
0.00190017
0.00192981
0.00189803
0.00192765
0.00192769
0.00190013
0.00190019
0.00192769
0.00190016
0.00190007
0.00192984
0.00189803
0.00192769
0.00190018
0.00190007
0.00189789
0.00189315
0.00186153
0.00189102
0.00189102
0.00186368
0.00186363
0.00189315
0.00186149
0.00189102
0.00189102
0.00186367
0.0018636
0.00189092
0.00186362
0.00186362
0.00189314
0.00186146
0.00189092
0.00186359
0.00186362
0.00186152
0.00185664
0.001825
0.00185453
0.00185451
0.00182714
0.00182718
0.00185662
0.00182505
0.00185453
0.00185449
0.00182714
0.00182719
0.00185453
0.00182718
0.0018272
0.0018566
0.00182507
0.00185453
0.00182719
0.0018272
0.00182507
0.00182015
0.00178873
0.00181805
0.00181808
0.00179085
0.00179084
0.00182019
0.00178871
0.00181805
0.00181809
0.00179085
0.00179084
0.00181811
0.00179085
0.00179084
0.00182021
0.00178871
0.00181811
0.00179084
0.00179084
0.00178871
0.00178388
0.00175247
0.00178178
0.00178177
0.00175459
0.0017546
0.00178386
0.00175248
0.00178178
0.00178176
0.00175459
0.00175457
0.00178176
0.0017546
0.00175457
0.00178385
0.00175245
0.00178176
0.00175457
0.00175457
0.00175245
0.00174763
0.00171633
0.00174554
0.00174554
0.00171844
0.0017184
0.00174762
0.00171628
0.00174554
0.00174553
0.00171844
0.00171846
0.00174552
0.0017184
0.00171844
0.00174761
0.00171635
0.00174552
0.00171846
0.00171844
0.00171635
0.00171149
0.00168026
0.00170941
0.00170938
0.00168236
0.00168241
0.00171146
0.00168031
0.00170941
0.00170943
0.00168236
0.00168236
0.00170943
0.00168241
0.00168236
0.00171152
0.00168024
0.00170943
0.00168236
0.00168236
0.00168023
0.00167334
0.00167541
0.00266252
0.00266247
0.00266237
0.00266246
0.00267982
0.00268275
0.00268018
0.00263958
0.00265451
0.00265465
0.00263944
0.00265444
0.0026397
0.00263964
0.00265454
0.00265465
0.00263952
0.00265229
0.00265229
0.00265229
0.00262219
0.00262226
0.00262239
0.00262231
0.00263982
0.00265469
0.00265227
0.00264195
0.00265476
0.0026399
0.0026421
0.00265477
0.00263986
0.00263999
0.00265223
0.00265495
0.00264206
0.00265481
0.00264218
0.00263997
0.00265456
0.00265458
0.00263948
0.00263995
0.00264001
0.00259984
0.00261464
0.00261466
0.0025998
0.00261476
0.00259972
0.00259985
0.00261462
0.0026147
0.00259979
0.00261242
0.00261251
0.00261242
0.00258272
0.00258271
0.00258266
0.00258278
0.0026001
0.00261462
0.00261233
0.00260245
0.00261481
0.00259974
0.00260253
0.00261464
0.00259949
0.00260011
0.00261247
0.00261463
0.00260274
0.00261483
0.00260259
0.00259978
0.00261497
0.002615
0.00260031
0.00259971
0.00259971
0.00256043
0.00257509
0.00257515
0.00256041
0.00257474
0.00256062
0.00256039
0.00257512
0.00257513
0.00256041
0.00257278
0.00257274
0.00257288
0.00254333
0.00254336
0.00254335
0.00254328
0.00256063
0.00257514
0.00257279
0.00256271
0.00257531
0.00256071
0.00256288
0.00257493
0.00256056
0.00256058
0.00257273
0.00257523
0.00256269
0.00257527
0.00256283
0.00256047
0.00257517
0.00257517
0.00256061
0.00256054
0.00256051
0.00252114
0.00253581
0.00253587
0.00252102
0.00253617
0.00252092
0.00252102
0.00253574
0.00253572
0.00252096
0.00253363
0.00253353
0.00253349
0.00250409
0.00250424
0.00250381
0.00250392
0.00252134
0.00253598
0.0025335
0.00252398
0.00253582
0.00252106
0.00252378
0.00253549
0.00252021
0.00252114
0.00253344
0.00253544
0.00252384
0.00253566
0.00252361
0.00252076
0.00253538
0.00253533
0.00252149
0.00252071
0.0025207
0.00248154
0.00249617
0.00249632
0.00248137
0.00249557
0.00248102
0.0024816
0.00249613
0.0024963
0.0024814
0.00249426
0.00249398
0.00249403
0.00246456
0.00246444
0.00246474
0.00246472
0.00248185
0.00249588
0.0024942
0.00248429
0.00249641
0.00248149
0.00248419
0.00249644
0.00248197
0.00248187
0.00249389
0.00249639
0.00248383
0.00249638
0.0024841
0.00248183
0.00249627
0.00249629
0.00248144
0.00248191
0.00248196
0.00244266
0.00245702
0.00245704
0.00244272
0.00245742
0.00244307
0.00244276
0.00245712
0.00245721
0.00244278
0.00245477
0.00245504
0.00245504
0.00242605
0.00242609
0.00242608
0.00242618
0.00244287
0.00245734
0.00245465
0.00244473
0.00245716
0.00244308
0.00244505
0.00245712
0.00244266
0.00244304
0.00245501
0.00245733
0.00244543
0.00245735
0.00244538
0.0024429
0.00245761
0.00245765
0.00244333
0.00244249
0.00244257
0.00240445
0.00241877
0.00241877
0.0024044
0.00241898
0.00240413
0.00240447
0.00241878
0.00241879
0.00240439
0.00241657
0.0024165
0.00241654
0.00238786
0.00238777
0.00238795
0.00238758
0.00240453
0.0024187
0.00241652
0.00240715
0.00241876
0.00240429
0.00240697
0.00241901
0.00240461
0.00240453
0.00241648
0.00241887
0.00240687
0.00241878
0.00240691
0.0024045
0.00241829
0.0024183
0.00240445
0.00240426
0.00240427
0.0023658
0.00238012
0.00238025
0.00236578
0.00237991
0.00236578
0.00236579
0.00238014
0.00238028
0.00236578
0.0023781
0.00237833
0.00237798
0.00234914
0.00234915
0.00234899
0.00234935
0.002366
0.00238004
0.00237801
0.00236833
0.00238026
0.0023658
0.00236836
0.00237982
0.00236514
0.00236602
0.00237821
0.00237992
0.00236875
0.0023803
0.00236851
0.00236562
0.00238059
0.00238059
0.00236605
0.00236611
0.0023661
0.00232751
0.00234184
0.00234182
0.00232746
0.00234174
0.0023274
0.00232739
0.00234179
0.00234172
0.00232741
0.00233954
0.00233933
0.00233974
0.00231095
0.00231087
0.00231083
0.00231061
0.00232761
0.00234184
0.00233955
0.00232986
0.00234175
0.00232765
0.00232995
0.00234167
0.00232785
0.00232747
0.00233934
0.00234173
0.00232939
0.00234166
0.00232978
0.00232753
0.00234102
0.00234102
0.00232806
0.0023264
0.00232643
0.00228929
0.00230332
0.00230356
0.00228905
0.00230403
0.00228929
0.00228921
0.00230328
0.00230348
0.00228898
0.00230143
0.00230131
0.00230107
0.00227274
0.00227311
0.00227278
0.00227305
0.0022895
0.00230365
0.00230133
0.00229209
0.00230356
0.00228935
0.00229193
0.00230339
0.00228872
0.00228945
0.00230122
0.00230342
0.00229192
0.00230349
0.00229171
0.00228921
0.00230414
0.00230412
0.00228875
0.00229034
0.00229035
0.00225127
0.00226549
0.00226543
0.00225146
0.00226479
0.00225104
0.00225141
0.00226544
0.00226543
0.00225144
0.00226352
0.00226336
0.00226369
0.00223504
0.00223488
0.00223523
0.00223523
0.00225164
0.00226527
0.00226354
0.00225385
0.00226568
0.00225138
0.00225401
0.0022658
0.00225194
0.00225173
0.00226343
0.00226571
0.00225384
0.00226566
0.00225407
0.00225176
0.00226584
0.00226585
0.00225323
0.00225072
0.00225075
0.00221378
0.00222798
0.00222784
0.00221369
0.00222805
0.00221395
0.00221382
0.00222804
0.002228
0.00221374
0.00222548
0.00222582
0.00222564
0.00219752
0.0021973
0.00219735
0.00219722
0.00221369
0.0022278
0.00222547
0.00221593
0.00222769
0.00221373
0.00221606
0.00222761
0.00221327
0.00221379
0.00222582
0.00222778
0.00221657
0.0022279
0.0022163
0.0022135
0.00222731
0.00222737
0.00221335
0.00221377
0.00221381
0.00217582
0.00218978
0.00219
0.00217568
0.00218983
0.00217574
0.00217574
0.00218974
0.00218992
0.00217563
0.00218788
0.00218784
0.00218781
0.00215945
0.00215955
0.00215944
0.00215954
0.00217607
0.00218996
0.00218786
0.00217849
0.00219001
0.00217592
0.00217844
0.00218983
0.00217575
0.00217596
0.00218779
0.00218981
0.00217825
0.0021899
0.00217834
0.00217587
0.00219008
0.00219006
0.0021763
0.00217565
0.00217562
0.00213827
0.00215224
0.00215226
0.00213828
0.00215248
0.00213834
0.00213824
0.0021522
0.00215221
0.00213824
0.00215015
0.00215002
0.00215012
0.002122
0.00212216
0.00212207
0.00212206
0.00213842
0.00215236
0.00215018
0.00214079
0.00215233
0.00213839
0.00214082
0.00215228
0.00213848
0.00213838
0.00215006
0.00215231
0.00214059
0.00215228
0.0021407
0.00213841
0.00215235
0.00215233
0.00213848
0.00213841
0.00213841
0.00210097
0.00211496
0.00211491
0.00210097
0.00211467
0.00210076
0.00210104
0.00211498
0.00211496
0.00210101
0.00211283
0.00211284
0.00211277
0.00208493
0.00208482
0.00208495
0.00208483
0.00210107
0.00211475
0.00211281
0.0021035
0.00211489
0.00210088
0.00210348
0.00211496
0.00210077
0.00210115
0.00211285
0.00211495
0.00210372
0.00211493
0.00210357
0.00210096
0.00211483
0.00211484
0.00210127
0.00210087
0.00210088
0.0020637
0.00207759
0.00207763
0.00206363
0.00207753
0.00206373
0.0020637
0.00207761
0.00207766
0.00206364
0.00207549
0.00207561
0.00207552
0.00204766
0.00204758
0.00204761
0.00204765
0.00206383
0.00207756
0.00207549
0.00206608
0.0020776
0.00206379
0.00206618
0.0020775
0.00206361
0.00206384
0.00207559
0.00207754
0.00206622
0.00207764
0.00206626
0.00206372
0.00207769
0.00207769
0.00206404
0.00206372
0.00206372
0.0020266
0.0020404
0.00204046
0.00202653
0.00204062
0.00202663
0.00202654
0.00204038
0.00204041
0.0020265
0.00203834
0.00203831
0.00203838
0.00201056
0.00201066
0.00201054
0.00201058
0.00202677
0.00204053
0.00203839
0.00202914
0.00204049
0.00202671
0.00202916
0.00204042
0.00202661
0.00202671
0.00203834
0.00204042
0.00202899
0.00204044
0.00202907
0.00202664
0.00204041
0.0020404
0.00202692
0.00202651
0.0020265
0.00198959
0.00200341
0.00200342
0.0019896
0.00200328
0.00198946
0.0019896
0.00200339
0.00200341
0.0019896
0.00200141
0.00200132
0.00200133
0.00197365
0.00197365
0.00197366
0.00197368
0.00198975
0.00200336
0.00200142
0.00199214
0.00200346
0.0019896
0.00199216
0.00200339
0.00198954
0.00198975
0.00200134
0.00200342
0.0019921
0.00200343
0.00199212
0.00198965
0.00200347
0.00200347
0.00198987
0.00198972
0.00198972
0.00195275
0.00196648
0.00196651
0.0019527
0.0019665
0.00195277
0.00195276
0.00196649
0.00196653
0.00195271
0.00196443
0.00196446
0.0019645
0.00193688
0.00193686
0.00193689
0.00193693
0.0019529
0.00196649
0.00196447
0.00195517
0.00196653
0.00195283
0.00195527
0.00196653
0.00195276
0.00195292
0.0019645
0.00196652
0.00195523
0.00196655
0.0019553
0.00195284
0.00196655
0.00196655
0.00195323
0.00195268
0.00195269
0.00191602
0.00192971
0.00192975
0.001916
0.00192976
0.00191601
0.00191603
0.00192972
0.00192975
0.00191601
0.00192769
0.00192772
0.00192773
0.00190018
0.0019002
0.00190022
0.00190015
0.00191615
0.00192975
0.00192772
0.0019185
0.00192976
0.00191608
0.00191854
0.00192976
0.001916
0.00191616
0.00192774
0.00192975
0.00191852
0.00192977
0.00191856
0.00191608
0.00192963
0.00192963
0.00191623
0.00191595
0.00191595
0.00187945
0.00189313
0.00189312
0.00187942
0.00189309
0.00187941
0.00187944
0.00189313
0.00189312
0.00187942
0.00189105
0.00189106
0.00189099
0.0018637
0.00186367
0.00186365
0.00186365
0.00187954
0.00189307
0.00189105
0.00188188
0.00189309
0.00187947
0.00188191
0.00189305
0.0018794
0.00187954
0.00189105
0.00189305
0.00188186
0.00189308
0.00188191
0.00187945
0.00189317
0.00189317
0.00187969
0.0018795
0.0018795
0.00184293
0.00185653
0.00185658
0.00184289
0.00185655
0.00184291
0.00184293
0.00185653
0.00185657
0.00184289
0.00185456
0.00185454
0.00185455
0.00182722
0.00182724
0.00182724
0.00182725
0.00184308
0.00185656
0.00185456
0.00184539
0.00185659
0.001843
0.00184545
0.00185657
0.00184293
0.00184309
0.00185455
0.00185657
0.00184539
0.00185659
0.00184545
0.00184301
0.00185659
0.00185659
0.00184329
0.00184294
0.00184293
0.00180657
0.00182016
0.00182016
0.00180656
0.00182016
0.00180655
0.00180657
0.00182016
0.00182016
0.00180656
0.00181815
0.00181815
0.00181816
0.0017909
0.00179091
0.00179091
0.00179091
0.0018067
0.00182015
0.00181816
0.001809
0.00182017
0.00180662
0.00180907
0.00182014
0.00180653
0.0018067
0.00181816
0.00182015
0.00180901
0.00182017
0.00180907
0.00180661
0.00182017
0.00182017
0.00180688
0.00180656
0.00180655
0.00177028
0.00178383
0.00178385
0.00177027
0.00178384
0.00177028
0.00177028
0.00178383
0.00178385
0.00177026
0.00178184
0.00178183
0.00178183
0.00175466
0.00175467
0.00175464
0.00175465
0.0017704
0.00178382
0.00178183
0.0017727
0.00178384
0.00177032
0.00177276
0.00178382
0.00177026
0.0017704
0.00178183
0.00178382
0.00177268
0.00178384
0.00177275
0.00177032
0.00178383
0.00178383
0.00177056
0.00177028
0.00177027
0.00173409
0.00174761
0.00174762
0.00173407
0.00174757
0.00173407
0.0017341
0.00174761
0.00174763
0.00173408
0.00174561
0.0017456
0.0017456
0.00171851
0.00171848
0.00171852
0.00171851
0.00173421
0.00174759
0.0017456
0.00173648
0.00174762
0.00173413
0.00173655
0.00174764
0.0017341
0.00173422
0.0017456
0.00174762
0.0017365
0.00174762
0.00173656
0.00173415
0.00174763
0.00174764
0.00173438
0.0017341
0.0017341
0.001698
0.00171147
0.00171149
0.00169798
0.00171154
0.00169801
0.001698
0.00171148
0.00171149
0.00169797
0.00170947
0.0017095
0.0017095
0.00168245
0.00168247
0.00168245
0.00168245
0.00169812
0.00171149
0.00170946
0.0017004
0.00171148
0.00169806
0.00170046
0.00171147
0.00169797
0.00169812
0.00170948
0.00171147
0.00170041
0.00171149
0.00170046
0.00169804
0.0017115
0.0017115
0.00169831
0.00169795
0.00169795
0.00167343
0.00167541
0.00167541
0.00265936
0.00265936
0.00265944
0.00265943
0.0026596
0.00265976
0.00265965
0.00265975
0.00265978
0.00266253
0.00266013
0.00265989
0.0026625
0.0026601
0.00265944
0.0026596
0.00265959
0.00265944
0.00268002
0.00268275
0.00268022
0.00267498
0.0026596
0.00265974
0.00267518
0.00265975
0.0026625
0.00267269
0.00266011
0.00267498
0.00265975
0.00267489
0.00265977
0.00267515
0.00267241
0.0026624
0.00266011
0.00267256
0.00267506
0.00266014
0.00265986
0.00266247
0.00266004
0.00265964
0.0026597
0.00266248
0.00265985
0.00266008
0.00265961
0.00265972
0.00268017
0.00267998
0.00267996
0.00267978
0.0026598
0.00267474
0.00267474
0.0026602
0.00266021
0.00267501
0.002675
0.00265984
0.00267472
0.00267993
0.00267507
0.0026724
0.00266235
0.00266009
0.00267252
0.00267502
0.00266004
0.00267505
0.0026624
0.00265987
0.00267257
0.00266002
0.00267492
0.00265979
0.00267483
0.0026598
0.00267494
0.00265972
0.0026598
0.0026595
0.00265953
0.00265941
0.00265949
0.00265434
0.00263953
0.00265436
0.00263961
0.00265451
0.00265451
0.00263952
0.00263979
0.0026398
0.00261962
0.00263456
0.00261961
0.0026346
0.00263416
0.00261977
0.00261977
0.00263479
0.0026348
0.0026396
0.0026546
0.00265465
0.00263966
0.00263983
0.0026546
0.00265232
0.00264204
0.00265486
0.00263968
0.00264216
0.00263984
0.00265471
0.00265229
0.00264197
0.00265482
0.00263987
0.00264212
0.00263454
0.00261962
0.00263444
0.00261966
0.00263456
0.00261961
0.00263464
0.00261968
0.00263461
0.0026319
0.00261981
0.0026221
0.00263456
0.00263208
0.00261984
0.00263463
0.0026319
0.0026198
0.00262213
0.00263475
0.00263207
0.00261987
0.00265467
0.00265467
0.00263944
0.00264001
0.00264003
0.00265445
0.00263974
0.00261977
0.00263471
0.00263421
0.00261986
0.0026199
0.00263499
0.00263502
0.00261981
0.00263474
0.00263982
0.00265459
0.00265231
0.00264202
0.00265483
0.0026397
0.00264215
0.00263964
0.0026547
0.00265467
0.0026397
0.00263986
0.00265227
0.00265495
0.00264206
0.00265487
0.00264217
0.00263992
0.0026346
0.00261961
0.00263451
0.00261971
0.00263462
0.0026319
0.00261986
0.00262216
0.00263459
0.00263209
0.00261991
0.00263461
0.00261968
0.00263466
0.00261973
0.00263466
0.0026321
0.00262226
0.00261975
0.00263217
0.00263472
0.00261989
0.00263967
0.00265462
0.00265463
0.00263974
0.00263984
0.0026523
0.00265469
0.00264205
0.00265481
0.00264214
0.00263984
0.00263963
0.00265456
0.00265463
0.00263962
0.00263464
0.00263189
0.00261984
0.00262214
0.00263478
0.00263205
0.00261996
0.00263465
0.00261962
0.00263472
0.00261977
0.00263465
0.00263193
0.00262216
0.00261987
0.00263208
0.00263472
0.00261991
0.00263462
0.00261974
0.00263461
0.00261976
0.00265515
0.00265516
0.00263957
0.00264004
0.00264007
0.00265483
0.00263991
0.0026198
0.00263483
0.00263444
0.00261968
0.00261972
0.00263495
0.00263499
0.00261981
0.00263488
0.00263999
0.00265225
0.00265473
0.00264206
0.00265479
0.00264216
0.00263992
0.00263977
0.00265477
0.00265475
0.00263976
0.00263975
0.00265469
0.0026547
0.00263969
0.00263481
0.00263213
0.00262233
0.00261979
0.00263222
0.00263478
0.00262001
0.00263482
0.00263199
0.00262228
0.00261994
0.00263217
0.00263478
0.00262001
0.00263473
0.00261967
0.00263471
0.00261976
0.00263471
0.00261967
0.00263464
0.00261975
0.00265437
0.00263962
0.00265446
0.00263966
0.00263425
0.00262005
0.0026201
0.00263501
0.00263506
0.00261998
0.0026347
0.00261998
0.00263473
0.0026146
0.00259985
0.00261459
0.00259984
0.00261475
0.00261476
0.0025999
0.00259997
0.00259997
0.00258018
0.00259491
0.00258018
0.00259491
0.00259479
0.00258024
0.00258023
0.00259504
0.00259503
0.00259985
0.00261455
0.00261468
0.0025997
0.00260008
0.00261474
0.00261221
0.00260232
0.00261471
0.0026
0.00260237
0.00260006
0.0026146
0.00261227
0.0026024
0.00261472
0.00259972
0.00260245
0.00259485
0.00258004
0.00259481
0.00258012
0.00259486
0.00257999
0.00259471
0.00258008
0.00259495
0.00259247
0.0025802
0.00258268
0.00259489
0.00259253
0.00258037
0.00259493
0.00259265
0.00258015
0.00258268
0.00259468
0.00259259
0.00258036
0.00261478
0.00261479
0.00260038
0.00259952
0.00259952
0.00261478
0.00259969
0.00257962
0.00259459
0.00259529
0.00257971
0.00257969
0.00259443
0.00259442
0.00257961
0.00259456
0.00260014
0.00261477
0.00261229
0.00260234
0.00261478
0.0026
0.00260243
0.00259988
0.00261465
0.00261473
0.00259971
0.00260014
0.0026124
0.00261461
0.00260265
0.00261476
0.00260252
0.00259979
0.00259487
0.00258007
0.00259482
0.00258009
0.00259499
0.00259247
0.0025802
0.00258266
0.00259489
0.00259255
0.00258033
0.00259488
0.00258001
0.00259473
0.00258005
0.00259501
0.00259271
0.00258266
0.00258022
0.00259261
0.00259476
0.00258035
0.00259986
0.00261453
0.00261474
0.00259963
0.0026001
0.00261231
0.00261476
0.00260251
0.00261475
0.00260248
0.00260005
0.00259991
0.00261475
0.00261475
0.0025999
0.00259497
0.00259268
0.00258014
0.00258274
0.00259467
0.00259267
0.00258042
0.00259488
0.00258001
0.00259467
0.00258009
0.002595
0.00259277
0.00258277
0.00258019
0.00259265
0.00259495
0.00258047
0.00259492
0.00258001
0.00259488
0.00258011
0.0026145
0.00261453
0.00260064
0.0025994
0.0025994
0.00261464
0.00259949
0.00257986
0.00259449
0.00259535
0.00258009
0.00258009
0.00259447
0.00259448
0.0025799
0.0025945
0.0026001
0.00261242
0.00261479
0.00260251
0.00261482
0.00260254
0.00260003
0.0025999
0.00261463
0.00261473
0.00259971
0.00259993
0.0026147
0.00261473
0.00259992
0.00259499
0.00259273
0.00258269
0.00258025
0.00259265
0.00259476
0.0025804
0.00259499
0.00259276
0.00258274
0.0025802
0.00259265
0.00259494
0.00258045
0.00259492
0.00258009
0.00259476
0.00258012
0.00259495
0.00258004
0.00259493
0.00258014
0.00261496
0.00259977
0.00261495
0.00259977
0.00259525
0.00258
0.00258001
0.00259462
0.00259462
0.00257988
0.00259463
0.0025799
0.00259466
0.00257516
0.00256026
0.00257517
0.00256024
0.00257521
0.0025752
0.00256081
0.00256028
0.00256027
0.00254082
0.00255533
0.00254076
0.00255528
0.00255571
0.00254088
0.00254083
0.00255537
0.00255533
0.00256041
0.00257507
0.00257512
0.00256043
0.00256071
0.00257515
0.00257283
0.002563
0.00257527
0.00256058
0.00256298
0.00256071
0.00257514
0.00257278
0.00256272
0.00257527
0.00256066
0.00256291
0.00255548
0.00254078
0.00255548
0.00254082
0.00255548
0.00254095
0.00255552
0.00254085
0.00255558
0.00255322
0.00254085
0.00254329
0.00255551
0.00255312
0.00254098
0.00255558
0.00255278
0.00254106
0.00254331
0.00255565
0.0025531
0.002541
0.00257495
0.00257494
0.0025602
0.00256097
0.00256109
0.00257474
0.0025607
0.00254123
0.00255584
0.00255517
0.00254125
0.00254127
0.00255616
0.00255619
0.00254125
0.00255589
0.00256061
0.00257514
0.00257279
0.00256297
0.0025752
0.00256055
0.00256293
0.00256039
0.00257507
0.00257509
0.00256033
0.0025606
0.00257272
0.0025752
0.00256269
0.00257521
0.00256285
0.00256046
0.00255542
0.00254072
0.00255547
0.00254068
0.00255549
0.0025532
0.00254081
0.00254324
0.0025555
0.00255308
0.00254086
0.00255543
0.00254045
0.00255533
0.00254071
0.00255548
0.00255286
0.00254328
0.00254057
0.00255306
0.00255536
0.00254085
0.00256036
0.0025751
0.00257511
0.0025605
0.00256064
0.00257286
0.00257512
0.00256287
0.00257534
0.00256295
0.00256044
0.00256035
0.00257503
0.00257513
0.00256026
0.00255547
0.00255277
0.00254107
0.00254324
0.00255568
0.00255303
0.00254089
0.00255542
0.00254099
0.00255558
0.00254082
0.00255546
0.00255297
0.00254323
0.00254068
0.00255307
0.00255536
0.00254085
0.0025554
0.00254061
0.00255532
0.00254076
0.0025753
0.00257527
0.00256015
0.00256076
0.00256076
0.00257504
0.00256056
0.00254066
0.00255566
0.00255513
0.00254045
0.00254036
0.00255579
0.00255578
0.00254063
0.00255565
0.00256059
0.00257283
0.00257512
0.00256285
0.00257532
0.00256292
0.00256042
0.00256032
0.00257517
0.00257513
0.00256035
0.0025603
0.00257505
0.00257514
0.00256023
0.00255541
0.00255285
0.00254324
0.00254054
0.00255301
0.00255536
0.00254077
0.00255541
0.00255295
0.00254321
0.00254064
0.00255305
0.00255533
0.00254074
0.00255534
0.00254042
0.00255533
0.00254061
0.00255531
0.00254052
0.00255526
0.00254057
0.002575
0.00256044
0.00257501
0.0025604
0.00255541
0.00254042
0.00254035
0.00255552
0.00255548
0.00254049
0.00255546
0.0025404
0.00255541
0.00253591
0.00252104
0.00253585
0.00252103
0.00253596
0.00253592
0.00252155
0.00252098
0.00252093
0.0025009
0.00251592
0.00250091
0.00251589
0.00251646
0.00250086
0.00250088
0.00251586
0.00251583
0.00252114
0.00253601
0.0025359
0.00252104
0.00252132
0.00253578
0.00253349
0.00252366
0.00253587
0.00252111
0.00252373
0.00252133
0.00253598
0.00253354
0.002524
0.00253589
0.00252105
0.00252381
0.00251614
0.00250116
0.00251603
0.00250131
0.00251615
0.00250096
0.00251597
0.00250132
0.00251621
0.00251397
0.00250126
0.0025041
0.00251605
0.00251395
0.00250157
0.00251622
0.00251435
0.00250093
0.0025042
0.00251582
0.00251405
0.00250156
0.00253612
0.00253611
0.00252199
0.00252068
0.00252071
0.00253617
0.00252087
0.0025006
0.00251575
0.00251713
0.00250033
0.00250033
0.00251553
0.00251553
0.00250059
0.00251575
0.00252122
0.00253573
0.00253344
0.00252362
0.00253575
0.00252105
0.00252367
0.00252098
0.00253552
0.00253573
0.00252075
0.00252121
0.00253347
0.00253547
0.00252385
0.00253573
0.00252362
0.00252079
0.00251605
0.00250111
0.00251597
0.00250127
0.00251615
0.00251391
0.00250121
0.00250398
0.002516
0.00251385
0.00250157
0.00251601
0.00250122
0.00251581
0.00250125
0.00251612
0.00251387
0.00250383
0.00250142
0.00251374
0.00251578
0.00250155
0.00252111
0.00253603
0.00253587
0.00252101
0.0025213
0.00253343
0.00253561
0.00252369
0.00253577
0.00252366
0.0025209
0.00252108
0.00253565
0.00253582
0.00252085
0.00251621
0.00251434
0.0025009
0.00250416
0.00251583
0.00251402
0.00250154
0.00251611
0.00250093
0.00251592
0.00250129
0.00251618
0.00251378
0.00250399
0.00250142
0.00251386
0.00251587
0.00250155
0.00251609
0.00250119
0.00251588
0.00250129
0.00253523
0.0025352
0.00252167
0.00252007
0.00252006
0.00253544
0.00252018
0.00250119
0.00251532
0.00251638
0.00250157
0.00250152
0.00251532
0.00251533
0.00250116
0.0025153
0.00252113
0.0025334
0.00253552
0.00252365
0.00253564
0.00252358
0.00252081
0.00252089
0.00253547
0.00253564
0.00252069
0.00252093
0.00253555
0.00253561
0.00252079
0.00251604
0.00251384
0.00250377
0.00250138
0.00251368
0.00251575
0.00250149
0.00251605
0.00251372
0.00250383
0.00250139
0.00251373
0.00251582
0.00250152
0.00251592
0.00250117
0.00251577
0.00250122
0.00251598
0.00250115
0.00251583
0.00250125
0.00253546
0.00252076
0.00253537
0.00252072
0.0025163
0.00250117
0.00250118
0.00251583
0.0025158
0.00250105
0.00251583
0.00250106
0.0025158
0.00249594
0.00248136
0.00249596
0.00248139
0.00249594
0.00249596
0.00248197
0.0024814
0.00248141
0.00246183
0.00247646
0.0024619
0.00247649
0.0024767
0.00246202
0.00246206
0.00247653
0.00247653
0.00248151
0.00249598
0.00249632
0.00248134
0.00248179
0.00249615
0.00249418
0.00248425
0.00249643
0.00248149
0.00248424
0.00248178
0.0024959
0.00249423
0.00248428
0.00249641
0.00248149
0.00248419
0.00247657
0.00246187
0.00247643
0.00246193
0.00247654
0.00246194
0.00247643
0.00246192
0.00247667
0.00247427
0.00246212
0.00246442
0.00247649
0.00247431
0.00246217
0.00247666
0.00247406