/*--------------------------------*- C++ -*----------------------------------*\
| =========                 |                                                 |
| \\      /  F ield         | OpenFOAM: The Open Source CFD Toolbox           |
|  \\    /   O peration     | Version:  2312                                  |
|   \\  /    A nd           | Website:  www.openfoam.com                      |
|    \\/     M anipulation  |                                                 |
\*---------------------------------------------------------------------------*/
FoamFile
{
    version     2.0;
    format      ascii;
    arch        "LSB;label=32;scalar=64";
    class       surfaceScalarField;
    location    "500";
    object      phi;
}
// * * * * * * * * * * * * * * * * * * * * * * * * * * * * * * * * * * * * * //

dimensions      [0 3 -1 0 0 0 0];

oriented        oriented;

internalField   nonuniform List<scalar> 
124457
(
-8.24591e-07
-7.96652e-07
-0.00114668
4.41189e-07
4.7291e-07
0.00114738
-0.00113709
-1.45758e-06
7.19262e-07
2.72406e-07
0.00113754
-3.93936e-07
1.1952e-06
2.62256e-07
7.24494e-07
-5.62578e-07
-1.23776e-06
2.52172e-08
-0.00113668
-1.37528e-06
6.24184e-07
1.08618e-07
0.0011372
-3.32114e-07
1.24505e-06
2.71419e-07
7.12319e-07
-5.60536e-07
-1.25471e-06
3.94416e-08
-0.000276168
1.4991e-06
1.47739e-06
-4.78097e-07
-4.66353e-07
0.000274136
-6.28602e-07
-6.91326e-07
-0.00114948
3.28479e-07
2.49366e-07
0.00115022
-0.00113892
-1.46894e-06
8.39092e-07
3.7448e-07
0.00113941
-5.04288e-07
1.13755e-06
7.71128e-08
7.2296e-07
-5.11323e-07
-1.2368e-06
8.73076e-08
-0.0011387
-1.58474e-06
1.00316e-06
6.51062e-07
0.00113915
-6.14097e-07
1.02161e-06
-1.52035e-08
7.37578e-07
-5.04949e-07
-1.21842e-06
7.63375e-08
-0.000276563
1.51635e-06
1.45282e-06
-4.57921e-07
-4.83218e-07
0.000274535
-8.30099e-07
-8.2571e-07
-0.00115252
4.46182e-07
4.50254e-07
0.00115328
-0.00114086
-1.44403e-06
6.99305e-07
1.74373e-07
0.00114119
-3.55822e-07
1.23043e-06
3.15799e-07
7.34142e-07
-5.22057e-07
-1.2019e-06
4.43783e-08
-0.00114029
-1.39085e-06
6.49427e-07
7.8481e-08
0.00114066
-3.02943e-07
1.2591e-06
3.25631e-07
7.233e-07
-5.35539e-07
-1.21514e-06
3.81803e-08
-0.000276597
1.52124e-06
1.48228e-06
-4.46336e-07
-4.50401e-07
0.00027449
-8.19444e-07
-7.89673e-07
-0.00115539
4.19479e-07
4.42208e-07
0.00115613
-0.00114223
-1.53469e-06
8.17396e-07
5.43949e-07
0.00114268
-6.24209e-07
1.04672e-06
-5.96665e-08
7.91361e-07
-4.26528e-07
-1.15291e-06
1.49905e-07
-0.00114186
-1.62125e-06
9.66134e-07
7.34329e-07
0.00114238
-6.79347e-07
9.69485e-07
-9.04834e-08
7.54609e-07
-4.62604e-07
-1.17926e-06
9.05293e-08
-0.000276484
1.55825e-06
1.52309e-06
-5.00386e-07
-5.01074e-07
0.000274404
-9.4346e-07
-7.92781e-07
-0.00115853
3.97106e-07
6.28017e-07
0.00115924
-0.00114325
-1.63516e-06
1.03167e-06
9.05795e-07
0.00114341
-5.91976e-07
1.00607e-06
3.1642e-08
7.29741e-07
-4.9795e-07
-1.1724e-06
3.27103e-08
-0.0011434
-1.30094e-06
4.76875e-07
-1.34486e-08
0.00114365
-1.80419e-07
1.31877e-06
3.79688e-07
7.1991e-07
-5.09402e-07
-1.19598e-06
5.51861e-08
-0.000276318
1.43107e-06
1.44189e-06
-4.25958e-07
-3.93818e-07
0.000274265
-5.43603e-07
-6.33936e-07
-0.0011612
3.65874e-07
2.24841e-07
0.00116178
-0.00114404
-1.22869e-06
4.34801e-07
-2.69564e-07
0.00114444
-1.67053e-07
1.37127e-06
3.89299e-07
7.11896e-07
-5.0519e-07
-1.20282e-06
5.68851e-08
-0.00114483
-1.52139e-06
7.96319e-07
4.59902e-07
0.00114514
-5.20415e-07
1.09757e-06
9.18913e-08
7.68441e-07
-4.41526e-07
-1.13693e-06
9.60686e-08
-0.000276585
1.48657e-06
1.42403e-06
-4.12729e-07
-4.31771e-07
0.000274519
-6.10715e-07
-6.52019e-07
-0.00116349
3.11737e-07
2.71418e-07
0.00116417
-0.00114587
-1.51518e-06
7.73618e-07
4.36291e-07
0.0011462
-5.55162e-07
1.06949e-06
6.52689e-09
8.00624e-07
-3.92289e-07
-1.10132e-06
1.49842e-07
-0.00114558
-1.40639e-06
7.01324e-07
2.53997e-07
0.00114573
-3.87582e-07
1.18767e-06
1.56031e-07
7.73852e-07
-4.27675e-07
-1.12644e-06
1.23834e-07
-0.000276159
1.53897e-06
1.48728e-06
-4.2179e-07
-4.38283e-07
0.000273993
-7.63577e-07
-8.33926e-07
-0.00116639
5.38771e-07
4.23172e-07
0.00116702
-0.00114648
-1.45864e-06
6.77225e-07
4.80869e-07
0.00114648
-3.84876e-07
1.16271e-06
2.06975e-07
7.70772e-07
-4.35304e-07
-1.10523e-06
9.07402e-08
-0.00114596
-1.62106e-06
9.83167e-07
1.03507e-06
0.00114586
-6.05263e-07
9.62814e-07
-4.35406e-08
7.84896e-07
-4.11037e-07
-1.08753e-06
9.99377e-08
-0.000275866
1.39217e-06
1.33627e-06
-3.38619e-07
-3.52507e-07
0.000273828
-6.67158e-07
-6.43174e-07
-0.00116871
3.40382e-07
3.93025e-07
0.00116929
-0.00114677
-1.40482e-06
6.61154e-07
2.0092e-07
0.00114701
-3.91667e-07
1.18397e-06
1.79319e-07
7.66206e-07
-4.21894e-07
-1.10628e-06
9.72552e-08
-0.00114593
-1.21761e-06
4.22967e-07
-2.89298e-07
0.00114613
-1.21876e-07
1.37586e-06
4.35587e-07
7.35092e-07
-4.65836e-07
-1.13809e-06
6.64934e-08
-0.000275789
1.62552e-06
1.59445e-06
-5.16772e-07
-5.18071e-07
0.000273604
-7.80846e-07
-7.1464e-07
-0.00117097
4.35536e-07
5.11319e-07
0.00117152
-0.00114738
-1.43306e-06
6.11749e-07
6.02508e-07
0.00114735
-4.5829e-07
1.10215e-06
3.07677e-08
8.12656e-07
-3.52647e-07
-1.06081e-06
1.79858e-07
-0.00114708
-1.53817e-06
6.61511e-07
6.82595e-07
0.00114733
-5.7669e-07
1.02558e-06
-1.45143e-08
8.01001e-07
-3.65724e-07
-1.06168e-06
1.33719e-07
-0.000275186
1.17122e-06
1.15287e-06
-1.69988e-07
-1.55244e-07
0.000273187
-4.79318e-07
-3.75112e-07
-0.0011732
9.58854e-08
2.72891e-07
0.00117368
-0.00114686
-1.45115e-06
8.50002e-07
4.71321e-07
0.00114666
-3.76096e-07
1.15754e-06
2.2695e-07
7.60429e-07
-4.30569e-07
-1.07255e-06
5.76344e-08
-0.00114732
-1.25154e-06
4.57189e-07
-1.44151e-07
0.00114735
-1.85427e-07
1.31938e-06
3.33857e-07
7.81329e-07
-3.97237e-07
-1.07635e-06
1.28908e-07
-0.000275695
1.62651e-06
1.6189e-06
-5.50662e-07
-5.34067e-07
0.000273534
-5.51702e-07
-6.67481e-07
-0.00117514
3.94227e-07
2.2279e-07
0.00117574
-0.0011468
-1.25498e-06
4.22035e-07
-1.77475e-07
0.00114708
-2.58397e-07
1.28367e-06
2.51214e-07
7.78541e-07
-3.83007e-07
-1.07572e-06
1.36869e-07
-0.00114772
-1.51423e-06
8.49828e-07
6.42824e-07
0.00114762
-5.15447e-07
1.04857e-06
4.00833e-08
8.14038e-07
-3.62787e-07
-1.02646e-06
1.28569e-07
-0.000274278
1.392e-06
1.31964e-06
-2.78963e-07
-3.06128e-07
0.000272152
-7.11455e-07
-7.57035e-07
-0.00117735
5.56801e-07
5.05594e-07
0.00117776
-0.00114766
-1.43275e-06
5.56886e-07
4.11076e-07
0.00114768
-4.07968e-07
1.13776e-06
1.51711e-07
8.08901e-07
-3.58713e-07
-1.02196e-06
1.33246e-07
-0.00114695
-1.3429e-06
5.37772e-07
3.16677e-07
0.00114685
-3.15167e-07
1.19976e-06
2.02681e-07
7.87543e-07
-3.7346e-07
-1.04551e-06
1.25003e-07
-0.000274269
1.42087e-06
1.37226e-06
-3.64617e-07
-3.76744e-07
0.000272218
-4.87037e-07
-4.40592e-07
-0.00117891
2.21081e-07
2.90374e-07
0.00117933
-0.00114743
-1.34136e-06
5.43292e-07
2.62868e-07
0.00114735
-3.36028e-07
1.19536e-06
1.74713e-07
8.04733e-07
-3.45783e-07
-1.0256e-06
1.53079e-07
-0.00114698
-1.30586e-06
4.48678e-07
6.75277e-08
0.00114703
-2.75996e-07
1.24166e-06
2.57083e-07
7.91439e-07
-3.67273e-07
-1.03747e-06
1.30318e-07
-0.000274113
1.33812e-06
1.31471e-06
-2.94602e-07
-2.86594e-07
0.000272042
-4.6986e-07
-4.44889e-07
-0.00118061
2.10526e-07
2.5478e-07
0.00118106
-0.00114696
-1.38193e-06
6.11651e-07
3.89705e-07
0.00114677
-3.61861e-07
1.16276e-06
1.71343e-07
8.10108e-07
-3.45271e-07
-1.00523e-06
1.39127e-07
-0.00114703
-1.40243e-06
5.81149e-07
4.12059e-07
0.00114694
-4.16457e-07
1.12365e-06
1.03801e-07
8.31563e-07
-3.17723e-07
-9.88831e-07
1.65383e-07
-0.000273985
1.38798e-06
1.3574e-06
-3.36181e-07
-3.33693e-07
0.00027191
-5.45657e-07
-5.89528e-07
-0.00118232
4.07578e-07
3.53454e-07
0.0011827
-0.00114635
-1.31307e-06
4.49456e-07
1.64634e-07
0.0011463
-2.96362e-07
1.21826e-06
2.26717e-07
8.04344e-07
-3.41392e-07
-1.00648e-06
1.41672e-07
-0.0011463
-1.34294e-06
5.44063e-07
3.40127e-07
0.00114609
-3.26034e-07
1.18308e-06
1.88861e-07
8.09602e-07
-3.36991e-07
-9.99122e-07
1.43441e-07
-0.000273759
1.36092e-06
1.3099e-06
-2.89879e-07
-3.03321e-07
0.000271682
-4.99749e-07
-5.10499e-07
-0.00118365
3.54953e-07
3.4328e-07
0.00118396
-0.00114624
-1.31634e-06
4.17591e-07
1.52472e-07
0.0011462
-3.16538e-07
1.20142e-06
1.90705e-07
8.26752e-07
-3.10167e-07
-9.81356e-07
1.71954e-07
-0.00114576
-1.30038e-06
4.32045e-07
1.26402e-07
0.00114572
-2.88748e-07
1.21723e-06
2.21684e-07
8.10474e-07
-3.29653e-07
-9.94915e-07
1.50951e-07
-0.000273504
1.3684e-06
1.32903e-06
-3.0251e-07
-3.06934e-07
0.000271416
-4.40792e-07
-4.04371e-07
-0.00118488
2.34847e-07
2.93673e-07
0.00118519
-0.00114578
-1.34308e-06
5.21943e-07
3.14507e-07
0.00114557
-3.32216e-07
1.17897e-06
1.86656e-07
8.20596e-07
-3.17236e-07
-9.74874e-07
1.53967e-07
-0.00114557
-1.31939e-06
4.42886e-07
1.9888e-07
0.00114548
-3.15935e-07
1.19209e-06
1.93045e-07
8.21611e-07
-3.13259e-07
-9.76514e-07
1.60175e-07
-0.000273222
1.32327e-06
1.29712e-06
-2.80139e-07
-2.74257e-07
0.000271156
-4.22578e-07
-4.19495e-07
-0.0011861
2.75187e-07
2.82386e-07
0.00118638
-0.00114503
-1.2866e-06
4.13816e-07
1.09323e-07
0.00114492
-2.80098e-07
1.2228e-06
2.26617e-07
8.20256e-07
-3.09688e-07
-9.72238e-07
1.61913e-07
-0.00114511
-1.29568e-06
4.23282e-07
1.51255e-07
0.00114497
-2.89735e-07
1.20954e-06
2.12179e-07
8.25398e-07
-3.04722e-07
-9.66945e-07
1.66313e-07
-0.000273016
1.3547e-06
1.3175e-06
-2.93772e-07
-2.96544e-07
0.000270935
-3.91111e-07
-4.0157e-07
-0.00118717
2.83073e-07
2.6787e-07
0.00118742
-0.00114466
-1.29369e-06
3.95724e-07
1.18898e-07
0.00114456
-2.91123e-07
1.21069e-06
2.14127e-07
8.29753e-07
-2.96622e-07
-9.57136e-07
1.70555e-07
-0.00114459
-1.29325e-06
4.12007e-07
1.53345e-07
0.00114445
-2.90758e-07
1.20484e-06
2.06639e-07
8.31436e-07
-2.94382e-07
-9.55434e-07
1.73125e-07
-0.000272666
1.33774e-06
1.297e-06
-2.79317e-07
-2.84846e-07
0.000270596
-3.56302e-07
-3.62969e-07
-0.00118809
2.57048e-07
2.46905e-07
0.0011883
-0.00114411
-1.29284e-06
3.70046e-07
1.71109e-07
0.00114396
-2.91386e-07
1.20559e-06
2.09361e-07
8.36269e-07
-2.85337e-07
-9.45105e-07
1.7834e-07
-0.00114394
-1.29091e-06
3.82549e-07
1.88112e-07
0.00114377
-2.87241e-07
1.20292e-06
2.09064e-07
8.33553e-07
-2.8882e-07
-9.47104e-07
1.74592e-07
-0.000272517
1.29725e-06
1.25856e-06
-2.53217e-07
-2.56962e-07
0.000270471
-3.73352e-07
-3.69377e-07
-0.0011889
2.83426e-07
2.89336e-07
0.00118907
-0.00114346
-1.28478e-06
3.46527e-07
1.46634e-07
0.00114331
-2.83764e-07
1.20857e-06
2.14645e-07
8.38473e-07
-2.79369e-07
-9.36931e-07
1.80149e-07
-0.00114329
-1.27747e-06
3.32623e-07
1.32144e-07
0.00114315
-2.77229e-07
1.20945e-06
2.14547e-07
8.39344e-07
-2.77944e-07
-9.36496e-07
1.82168e-07
-0.000272391
1.31446e-06
1.27848e-06
-2.64505e-07
-2.66326e-07
0.000270329
-3.0903e-07
-3.09198e-07
-0.00118953
2.34012e-07
2.34682e-07
0.00118968
-0.00114283
-1.27208e-06
3.26394e-07
1.1404e-07
0.00114268
-2.74116e-07
1.21381e-06
2.18194e-07
8.41534e-07
-2.71938e-07
-9.29545e-07
1.84854e-07
-0.0011427
-1.27184e-06
3.28791e-07
1.21654e-07
0.00114254
-2.72887e-07
1.21007e-06
2.16137e-07
8.41474e-07
-2.72781e-07
-9.29376e-07
1.83916e-07
-0.000272163
1.30334e-06
1.26606e-06
-2.54271e-07
-2.571e-07
0.000270105
-2.97841e-07
-2.97083e-07
-0.00119011
2.32967e-07
2.3355e-07
0.00119023
-0.00114221
-1.26327e-06
2.94893e-07
9.58964e-08
0.00114206
-2.64168e-07
1.21847e-06
2.25549e-07
8.45186e-07
-2.65498e-07
-9.21509e-07
1.89236e-07
-0.00114206
-1.26287e-06
3.01468e-07
1.07259e-07
0.00114191
-2.6484e-07
1.21337e-06
2.20536e-07
8.42939e-07
-2.67521e-07
-9.23262e-07
1.86131e-07
-0.000271966
1.29511e-06
1.25823e-06
-2.49706e-07
-2.52104e-07
0.000269915
-2.73053e-07
-2.68213e-07
-0.00119056
2.18648e-07
2.27275e-07
0.00119066
-0.00114159
-1.26197e-06
2.77009e-07
9.84879e-08
0.00114144
-2.6357e-07
1.21658e-06
2.27049e-07
8.45714e-07
-2.62026e-07
-9.15641e-07
1.88096e-07
-0.00114148
-1.25332e-06
2.57758e-07
8.67891e-08
0.00114133
-2.5728e-07
1.21669e-06
2.22619e-07
8.49533e-07
-2.56861e-07
-9.13113e-07
1.94915e-07
-0.000271803
1.28753e-06
1.25166e-06
-2.44881e-07
-2.46691e-07
0.000269755
-2.43135e-07
-2.5023e-07
-0.00119091
2.17461e-07
2.06769e-07
0.00119098
-0.001141
-1.24764e-06
2.24394e-07
5.2656e-08
0.00114088
-2.54735e-07
1.22247e-06
2.27065e-07
8.55005e-07
-2.47865e-07
-9.04482e-07
2.01789e-07
-0.00114088
-1.2528e-06
2.47692e-07
9.0706e-08
0.00114072
-2.56404e-07
1.21492e-06
2.24055e-07
8.52967e-07
-2.51527e-07
-9.05125e-07
1.96913e-07
-0.000271641
1.2895e-06
1.24988e-06
-2.42163e-07
-2.46865e-07
0.000269591
-0.00114025
-1.24189e-06
2.20299e-07
-2.46081e-07
1.22187e-06
2.32591e-07
-2.49419e-07
1.96968e-07
-1.13502e-06
-1.08843e-06
0.000276075
-0.000273997
6.90652e-08
7.66787e-08
0.00113641
9.26336e-07
4.98326e-07
-1.60085e-06
1.45949e-07
-5.35992e-07
-1.25533e-06
1.4552e-08
-5.64121e-07
7.12563e-07
1.18749e-06
0.00113662
8.5569e-07
3.32879e-07
-1.53751e-06
1.88153e-07
-4.87803e-07
-1.2643e-06
1.4199e-08
-5.63694e-07
7.12002e-07
-1.14059e-06
0.000276238
-0.000274117
9.84677e-08
1.0792e-07
0.00113738
9.01353e-07
5.60776e-07
-1.56531e-06
1.33418e-07
-5.36276e-07
-1.2556e-06
1.78204e-08
-5.63388e-07
7.16288e-07
1.30406e-06
0.00113622
6.9485e-07
-0.00113567
1.53721e-08
-1.39191e-06
3.23527e-07
-3.06077e-07
-1.28806e-06
4.12355e-10
-5.86061e-07
6.86151e-07
8.26077e-07
3.79929e-07
-1.50694e-06
1.72989e-07
-4.9048e-07
-1.25337e-06
2.50266e-08
7.15572e-07
-5.60836e-07
1.14954e-06
0.00113609
9.05187e-07
4.18376e-07
-1.55427e-06
1.41549e-07
-5.22699e-07
-1.25759e-06
1.24811e-08
-5.6027e-07
6.99918e-07
-1.25048e-06
0.000276048
-0.000273891
1.88001e-07
2.08919e-07
6.26815e-07
-0.00113615
9.18901e-08
-1.37428e-06
2.97757e-07
-3.14619e-07
-1.26461e-06
2.34437e-08
7.01836e-07
-5.72807e-07
1.08992e-06
0.00113706
8.17824e-07
5.12874e-07
-1.53875e-06
1.18274e-07
-5.40927e-07
-1.23636e-06
3.69024e-08
-5.48588e-07
7.33024e-07
-0.000274081
6.65978e-08
8.65744e-08
1.51968e-06
1.48608e-06
-4.67904e-07
-4.69379e-07
0.000274007
-1.24571e-06
-1.22065e-06
0.000276441
-0.000274282
1.56726e-07
1.50801e-07
3.49115e-07
0.00113682
-4.08627e-07
1.21798e-06
2.57373e-07
6.99817e-07
-5.75396e-07
-1.26539e-06
5.58978e-09
-1.48436e-06
7.67927e-07
2.27204e-07
0.00113708
-3.88246e-07
1.24494e-06
2.79303e-07
7.13182e-07
-5.69811e-07
-1.25766e-06
1.00255e-08
0.00113817
6.50897e-07
-0.00113764
2.31336e-07
-1.45801e-06
1.99856e-07
-4.15027e-07
-1.24278e-06
5.88034e-08
-5.33839e-07
7.28416e-07
1.25257e-06
0.00113848
6.66563e-07
-0.001138
2.01586e-07
-1.44303e-06
1.90243e-07
-3.99021e-07
-1.2383e-06
7.62797e-08
-5.25118e-07
7.37419e-07
-4.53401e-07
-4.47146e-07
0.000274197
-1.21832e-06
0.00027667
-0.000274505
1.53234e-07
1.52299e-07
3.84899e-07
0.00113777
-4.09831e-07
1.17043e-06
2.45105e-07
7.12111e-07
-5.69744e-07
-1.25556e-06
1.34996e-08
-1.39376e-06
6.8082e-07
4.30734e-08
0.00113675
-3.25085e-07
1.29544e-06
2.93595e-07
7.00692e-07
-5.71662e-07
-1.27978e-06
2.41913e-08
0.00113917
7.05418e-07
-0.00113861
1.38515e-07
-1.40549e-06
2.10282e-07
-3.96389e-07
-1.25225e-06
4.84157e-08
-5.4312e-07
7.14848e-07
1.11153e-06
0.00113825
8.34425e-07
-0.00113776
5.31026e-07
-1.55429e-06
2.31723e-08
-5.70702e-07
-1.21685e-06
9.46671e-08
-4.95847e-07
7.58114e-07
7.64004e-07
2.8447e-07
0.00113657
-4.18369e-07
1.21814e-06
2.53756e-07
7.05767e-07
-5.59787e-07
1.29036e-08
-1.24728e-06
6.7943e-07
-0.00113844
1.92964e-07
-1.40458e-06
1.89401e-07
-3.9193e-07
-1.23577e-06
7.41741e-08
7.22465e-07
-5.30164e-07
1.23402e-06
0.00113782
6.52799e-07
-0.00113739
2.58731e-07
-1.43995e-06
1.8219e-07
-3.92617e-07
-1.22379e-06
7.62476e-08
-5.18167e-07
7.33591e-07
-3.9772e-07
-3.87685e-07
0.000274065
-1.08914e-06
0.000276561
-0.000274461
5.36019e-08
4.73873e-08
7.15737e-07
3.3245e-07
0.00113754
-4.29397e-07
1.16807e-06
2.40858e-07
7.2615e-07
-5.54369e-07
2.80335e-08
-1.23297e-06
8.80283e-07
-0.00113821
4.89239e-07
-1.50882e-06
2.86188e-08
-5.51302e-07
-1.22956e-06
8.62e-08
7.329e-07
-5.09179e-07
1.2234e-06
0.00113885
7.50086e-07
-0.0011384
1.41184e-07
-1.37773e-06
2.05974e-07
-3.65077e-07
-1.26043e-06
6.29873e-08
-5.42156e-07
7.07672e-07
-0.000274421
1.67359e-07
1.4809e-07
1.47562e-06
1.4178e-06
-4.30652e-07
-4.49828e-07
0.000274428
-1.19226e-06
-1.15345e-06
0.000276807
-0.000274702
1.18005e-07
1.21839e-07
1.90704e-07
0.00113876
-4.36633e-07
1.23641e-06
1.97297e-07
7.43207e-07
-5.16397e-07
-1.22413e-06
7.20627e-08
-1.51834e-06
7.8282e-07
4.52058e-07
0.00113894
-5.22355e-07
1.16064e-06
6.62894e-08
7.48764e-07
-4.99189e-07
-1.22509e-06
9.50959e-08
0.0011402
7.75758e-07
-0.00113978
3.5612e-07
-1.5141e-06
1.36051e-07
-4.65039e-07
-1.2172e-06
7.97716e-08
-5.03954e-07
7.39751e-07
1.14837e-06
0.00114041
7.84384e-07
-0.00113995
4.75144e-07
-1.60356e-06
1.58676e-07
-5.29658e-07
-1.19686e-06
5.69048e-08
-5.00594e-07
7.48778e-07
-4.65614e-07
-4.75183e-07
0.000274624
-1.12486e-06
0.000276654
-0.000274599
1.14248e-07
1.0442e-07
9.53233e-08
0.00113977
-4.13659e-07
1.2145e-06
2.09896e-07
7.28028e-07
-5.27482e-07
-1.24001e-06
6.1406e-08
-1.63659e-06
9.34397e-07
7.384e-07
0.00113868
-6.39233e-07
1.03877e-06
-2.36184e-08
7.60891e-07
-4.90483e-07
-1.20384e-06
8.44769e-08
0.0011412
7.83737e-07
-0.00114079
3.44231e-07
-1.47019e-06
1.31534e-07
-4.5678e-07
-1.21681e-06
7.87903e-08
-5.05997e-07
7.41753e-07
1.1943e-06
0.00113983
7.59156e-07
-0.00113945
3.95175e-07
-1.53381e-06
2.32929e-07
-4.30269e-07
-1.22025e-06
2.83878e-08
-5.29313e-07
7.24984e-07
7.65235e-07
4.29989e-07
0.00113835
-5.29146e-07
1.14472e-06
4.41429e-08
7.44685e-07
-4.936e-07
9.15541e-08
-1.21013e-06
8.38652e-07
-0.00114042
4.11361e-07
-1.54881e-06
1.65995e-07
-5.08984e-07
-1.20052e-06
4.98201e-08
7.36549e-07
-5.13477e-07
1.14829e-06
0.0011398
8.38623e-07
-0.00113944
4.61375e-07
-1.57042e-06
1.66146e-07
-4.90391e-07
-1.19609e-06
5.20172e-08
-5.06778e-07
7.35314e-07
-5.60199e-07
-5.7851e-07
0.000274478
-1.16985e-06
0.000276262
-0.000274211
1.58436e-07
1.55224e-07
8.55015e-07
3.23124e-07
0.00113938
-5.01518e-07
1.13283e-06
6.64702e-08
7.26978e-07
-5.15395e-07
8.30254e-08
-1.24426e-06
7.95737e-07
-0.00113992
3.28969e-07
-1.48676e-06
2.34692e-07
-4.10908e-07
-1.21379e-06
2.54221e-08
7.19827e-07
-5.36973e-07
1.11244e-06
0.00114078
8.50433e-07
-0.00114043
4.56486e-07
-1.53006e-06
1.65104e-07
-4.85537e-07
-1.20024e-06
5.59336e-08
-5.14021e-07
7.39982e-07
-0.000274557
1.09914e-07
1.11099e-07
1.55362e-06
1.51449e-06
-4.84399e-07
-4.89339e-07
0.000274713
-1.19178e-06
-1.14838e-06
0.000276653
-0.000274589
1.31941e-07
1.43646e-07
4.81952e-07
0.00114061
-5.24639e-07
1.14988e-06
8.29246e-08
7.45292e-07
-4.95454e-07
-1.21072e-06
8.19141e-08
-1.49046e-06
6.75848e-07
2.18352e-07
0.00114073
-3.68138e-07
1.26279e-06
3.17179e-07
7.38866e-07
-5.13995e-07
-1.20639e-06
4.56924e-08
0.0011416
7.67731e-07
-0.00114133
4.08711e-07
-1.53378e-06
1.74731e-07
-4.47461e-07
-1.18254e-06
8.04278e-08
-4.89781e-07
7.58213e-07
1.22207e-06
0.00114173
7.01884e-07
-0.00114129
2.3562e-07
-1.44971e-06
9.33643e-08
-4.42883e-07
-1.20651e-06
1.18809e-07
-4.71788e-07
7.53779e-07
-4.13787e-07
-4.24571e-07
0.000274558
-1.17297e-06
0.000276811
-0.000274672
1.21014e-07
1.35167e-07
4.8836e-07
0.00114161
-5.2056e-07
1.10699e-06
7.48251e-08
7.49781e-07
-4.94991e-07
-1.20669e-06
8.29169e-08
-1.4339e-06
6.25028e-07
1.22986e-07
0.0011402
-3.1865e-07
1.28741e-06
3.27436e-07
7.30445e-07
-5.27955e-07
-1.22052e-06
4.05568e-08
0.00114265
7.67138e-07
-0.00114235
3.73476e-07
-1.49556e-06
1.66789e-07
-4.43447e-07
-1.17859e-06
8.59141e-08
-4.85774e-07
7.63275e-07
1.09603e-06
0.00114136
8.68453e-07
-0.00114091
5.3814e-07
-1.5404e-06
-2.25422e-08
-5.71962e-07
-1.20425e-06
1.03451e-07
-4.68879e-07
7.48725e-07
8.26789e-07
4.35915e-07
0.00114006
-4.23635e-07
1.18474e-06
1.98701e-07
7.20057e-07
-5.15748e-07
4.65432e-08
-1.21007e-06
6.6567e-07
-0.00114178
2.48132e-07
-1.42182e-06
7.73194e-08
-4.46795e-07
-1.18374e-06
1.32163e-07
7.65935e-07
-4.64429e-07
1.12122e-06
0.00114111
8.02143e-07
-0.0011407
5.1409e-07
-1.55574e-06
5.94844e-08
-5.46857e-07
-1.17863e-06
8.61231e-08
-4.70306e-07
7.56024e-07
-3.79552e-07
-3.91083e-07
0.000274208
-1.06137e-06
0.00027655
-0.000274457
2.95601e-08
3.53298e-08
8.36851e-07
4.3926e-07
0.00114103
-4.19402e-07
1.14852e-06
1.97716e-07
7.21594e-07
-5.23109e-07
4.97721e-08
-1.21744e-06
8.78754e-07
-0.0011414
5.22001e-07
-1.50441e-06
-2.90203e-08
-5.62348e-07
-1.20124e-06
1.05952e-07
7.41064e-07
-4.7268e-07
1.08782e-06
0.00114212
8.28996e-07
-0.00114168
4.53747e-07
-1.5131e-06
6.03525e-08
-5.3923e-07
-1.1884e-06
9.0955e-08
-4.7823e-07
7.59092e-07
-0.000274416
6.96213e-08
7.13902e-08
1.52028e-06
1.48762e-06
-4.41404e-07
-4.38957e-07
0.000274526
-1.12775e-06
-1.04229e-06
0.000276336
-0.000274306
5.22555e-08
8.71808e-08
4.08988e-07
0.00114189
-4.58739e-07
1.18202e-06
1.25646e-07
7.48133e-07
-4.86627e-07
-1.1914e-06
8.5128e-08
-1.56047e-06
8.6263e-07
5.18413e-07
0.00114217
-6.18934e-07
1.09689e-06
-4.50804e-08
7.84441e-07
-4.33798e-07
-1.17296e-06
1.37231e-07
0.00114295
9.97343e-07
-0.00114262
4.39656e-07
-1.58411e-06
9.9875e-08
-5.28725e-07
-1.18357e-06
5.25579e-08
-4.93715e-07
7.44355e-07
9.65711e-07
0.00114275
1.20959e-06
-0.00114262
1.01741e-06
-1.73388e-06
-5.81604e-08
-6.64628e-07
-1.17032e-06
4.51654e-08
-4.86443e-07
7.48207e-07
-5.1283e-07
-5.02973e-07
0.000274731
-9.13156e-07
0.000276055
-0.000274145
-2.25001e-08
-8.60905e-09
4.2214e-07
0.00114295
-4.60678e-07
1.13182e-06
1.09674e-07
7.58409e-07
-4.78434e-07
-1.18309e-06
9.55144e-08
-1.65445e-06
9.72034e-07
7.17526e-07
0.00114189
-6.85778e-07
1.00753e-06
-7.98858e-08
7.60929e-07
-4.61127e-07
-1.18348e-06
8.57448e-08
0.00114393
8.35511e-07
-0.00114364
7.41226e-07
-1.58662e-06
4.82281e-08
-5.66223e-07
-1.16385e-06
7.36838e-08
-4.72774e-07
7.62742e-07
1.33462e-06
0.00114294
6.14887e-07
-0.0011427
-1.84956e-08
-1.39532e-06
4.26145e-07
-2.19632e-07
-1.19912e-06
2.11739e-08
-5.20341e-07
7.18983e-07
8.10246e-07
4.41959e-07
0.00114148
-5.19306e-07
1.13652e-06
1.12828e-07
7.6016e-07
-4.70833e-07
7.61674e-08
-1.16193e-06
1.15538e-06
-0.00114314
1.12305e-06
-1.7101e-06
-7.67153e-08
-6.73293e-07
-1.16236e-06
5.53914e-08
7.45795e-07
-4.82711e-07
1.21477e-06
0.00114259
8.52425e-07
-0.00114217
1.71175e-07
-1.47788e-06
2.04836e-07
-4.13286e-07
-1.19871e-06
3.05429e-08
-5.05919e-07
7.10262e-07
-5.95035e-07
-5.98147e-07
0.000274467
-1.27825e-06
0.000276314
-0.000274241
2.59525e-07
2.8042e-07
7.95687e-07
4.35657e-07
0.00114251
-5.20281e-07
1.09264e-06
1.02048e-07
7.74431e-07
-4.71791e-07
8.98369e-08
-1.16236e-06
5.44028e-07
-0.00114317
9.67779e-08
-1.37984e-06
3.96296e-07
-2.31819e-07
-1.18156e-06
3.71864e-08
7.26151e-07
-5.11645e-07
1.12631e-06
0.00114354
6.72176e-07
-0.00114316
4.85254e-07
-1.4889e-06
1.5169e-07
-4.58934e-07
-1.17771e-06
6.17575e-08
-4.87305e-07
7.39986e-07
-0.000274252
1.17804e-07
1.56661e-07
1.54293e-06
1.54534e-06
-4.86686e-07
-4.62485e-07
0.000274197
-1.23933e-06
-1.2136e-06
0.00027618
-0.000274075
1.76942e-07
1.71554e-07
3.87378e-07
0.00114319
-4.57031e-07
1.17112e-06
1.66866e-07
7.34899e-07
-5.02515e-07
-1.1866e-06
4.45194e-08
-1.65838e-06
1.08485e-06
7.98149e-07
0.00114292
-5.82846e-07
1.05878e-06
5.27984e-08
7.32591e-07
-5.01919e-07
-1.18032e-06
2.25532e-08
0.0011439
6.69518e-07
-0.00114362
3.51012e-07
-1.46302e-06
2.23081e-07
-3.89601e-07
-1.18941e-06
5.03991e-08
-4.92361e-07
7.26767e-07
1.41095e-06
0.00114362
4.64948e-07
-0.00114333
-1.59175e-07
-1.28241e-06
4.44052e-07
-1.42217e-07
-1.21842e-06
2.22876e-08
-5.25168e-07
6.9984e-07
-5.47391e-07
-5.39508e-07
0.000273849
-1.37642e-06
0.000275951
-0.000273769
3.04563e-07
3.01397e-07
6.64881e-07
0.00114414
-4.92707e-07
1.08924e-06
1.2158e-07
7.51225e-07
-4.8377e-07
-1.16916e-06
6.32281e-08
-1.3139e-06
5.52957e-07
-1.44505e-07
0.0011432
-1.66373e-07
1.37624e-06
4.099e-07
7.13482e-07
-5.18649e-07
-1.21452e-06
4.04722e-08
0.00114486
7.08918e-07
-0.00114457
2.44779e-07
-1.41395e-06
2.35563e-07
-3.71952e-07
-1.18938e-06
4.47477e-08
-4.95336e-07
7.23492e-07
1.14627e-06
0.00114442
7.3357e-07
-0.00114401
3.97393e-07
-1.51471e-06
5.58311e-08
-5.36925e-07
-1.15405e-06
1.15818e-07
-4.30058e-07
7.73712e-07
7.60955e-07
5.90588e-08
0.00114298
-3.53698e-07
1.26775e-06
2.71537e-07
7.10336e-07
-5.08718e-07
2.93049e-08
-1.19822e-06
4.71849e-07
-0.00114377
-1.38095e-07
-1.24405e-06
4.43063e-07
-1.3534e-07
-1.21741e-06
2.00138e-08
6.888e-07
-5.31391e-07
1.25519e-06
0.00114383
5.86881e-07
-0.00114357
2.2218e-07
-1.40431e-06
2.01021e-07
-3.40558e-07
-1.16484e-06
9.91285e-08
-4.60819e-07
7.45478e-07
-2.88417e-07
-2.77073e-07
0.000274265
-1.11147e-06
0.000276719
-0.000274617
7.68193e-08
7.90383e-08
5.92378e-07
3.51748e-07
0.0011439
-3.97623e-07
1.18299e-06
2.24226e-07
7.36201e-07
-4.91462e-07
5.82453e-08
-1.18163e-06
7.2949e-07
-0.00114442
4.17142e-07
-1.48205e-06
4.98312e-08
-5.29445e-07
-1.15119e-06
1.15476e-07
7.64434e-07
-4.34576e-07
1.23162e-06
0.00114478
6.20099e-07
-0.0011445
1.22047e-07
-1.35864e-06
2.15344e-07
-3.26627e-07
-1.17089e-06
1.00157e-07
-4.68136e-07
7.4756e-07
-0.00027447
1.89331e-07
1.82026e-07
1.42921e-06
1.36303e-06
-3.61497e-07
-3.84188e-07
0.000274133
-1.28261e-06
-1.2642e-06
0.000276574
-0.000274436
2.10184e-07
1.97934e-07
2.46352e-07
0.0011442
-3.44503e-07
1.27514e-06
2.68606e-07
7.38704e-07
-4.84046e-07
-1.17798e-06
6.14864e-08
-1.27925e-06
3.86605e-07
-1.76324e-07
0.00114401
-1.86464e-07
1.39304e-06
3.77457e-07
7.25216e-07
-4.95143e-07
-1.20066e-06
6.21558e-08
0.00114508
4.59617e-07
-0.00114478
1.05122e-07
-1.39721e-06
2.09799e-07
-3.31707e-07
-1.13139e-06
1.41291e-07
-4.23899e-07
7.85088e-07
1.17955e-06
0.00114535
5.36081e-07
-0.00114494
3.23582e-07
-1.48222e-06
6.63809e-08
-4.94473e-07
-1.11446e-06
1.60214e-07
-3.90689e-07
8.05495e-07
-2.65891e-07
-2.77621e-07
0.000273986
-1.17143e-06
0.000276718
-0.000274589
1.19362e-07
1.02597e-07
5.55942e-08
0.0011452
-3.10887e-07
1.26507e-06
2.95073e-07
7.25579e-07
-4.95574e-07
-1.18789e-06
4.76817e-08
-1.56653e-06
7.51781e-07
5.43327e-07
0.00114472
-5.40746e-07
1.11909e-06
8.41793e-08
7.8093e-07
-4.32097e-07
-1.13557e-06
1.01142e-07
0.00114612
5.33328e-07
-0.00114583
3.45808e-09
-1.33192e-06
2.24164e-07
-3.03263e-07
-1.14679e-06
1.29269e-07
-4.37383e-07
7.70818e-07
1.21095e-06
0.00114505
6.20806e-07
-0.00114496
4.18608e-07
-1.47553e-06
1.93322e-07
-3.91474e-07
-1.129e-06
1.11121e-07
-4.31953e-07
7.79071e-07
6.72316e-07
5.04836e-07
0.00114412
-4.96418e-07
1.15184e-06
3.17631e-08
7.6733e-07
-4.2344e-07
1.31938e-07
-1.14531e-06
6.40966e-07
-0.00114544
1.23983e-07
-1.41376e-06
9.10374e-08
-4.58417e-07
-1.11968e-06
1.50212e-07
7.8893e-07
-4.06377e-07
1.07132e-06
0.00114462
8.37124e-07
-0.00114455
7.63303e-07
-1.62296e-06
7.99458e-08
-5.46759e-07
-1.1004e-06
8.71654e-08
-4.26881e-07
7.8032e-07
-4.93338e-07
-5.05339e-07
0.00027463
-1.20646e-06
0.000276342
-0.000274305
1.98151e-07
1.82902e-07
7.61822e-07
3.16349e-07
0.00114511
-4.6681e-07
1.14316e-06
6.14427e-08
7.60298e-07
-4.40081e-07
1.24491e-07
-1.16095e-06
7.26338e-07
-0.00114546
2.11376e-07
-1.40879e-06
2.14955e-07
-3.52147e-07
-1.13488e-06
1.00838e-07
7.62078e-07
-4.47988e-07
1.056e-06
0.00114565
9.15402e-07
-0.00114558
6.56084e-07
-1.56024e-06
9.73602e-08
-5.21407e-07
-1.12075e-06
8.01638e-08
-4.46078e-07
7.7228e-07
-0.000274207
9.51547e-08
7.99006e-08
1.47582e-06
1.42167e-06
-3.96272e-07
-4.15287e-07
0.000274489
-1.08535e-06
-1.05722e-06
0.000276013
-0.000274065
9.88068e-08
9.53805e-08
3.26092e-07
0.00114542
-4.87051e-07
1.17562e-06
4.13556e-08
8.03459e-07
-3.88938e-07
-1.11538e-06
1.69383e-07
-1.57521e-06
7.04596e-07
5.57401e-07
0.00114567
-5.81294e-07
1.08833e-06
-4.47263e-09
8.15805e-07
-3.79017e-07
-1.09675e-06
1.56627e-07
0.00114598
8.68481e-07
-0.00114594
7.13005e-07
-1.62952e-06
9.45025e-08
-5.40422e-07
-1.0912e-06
8.92464e-08
-4.23832e-07
7.93251e-07
1.14966e-06
0.00114602
8.5888e-07
-0.00114598
5.08949e-07
-1.55803e-06
1.54165e-07
-4.65763e-07
-1.10988e-06
7.85808e-08
-4.35323e-07
7.76387e-07
-4.80058e-07
-4.99476e-07
0.000274607
-1.08773e-06
0.000275966
-0.000273996
1.2393e-07
1.43392e-07
2.97999e-07
0.00114644
-4.70049e-07
1.14615e-06
4.48742e-08
7.94151e-07
-3.97528e-07
-1.12589e-06
1.6219e-07
-1.46406e-06
6.31221e-07
3.68852e-07
0.0011452
-4.16619e-07
1.20335e-06
1.47132e-07
7.89528e-07
-4.14306e-07
-1.12135e-06
1.30663e-07
0.00114697
9.1546e-07
-0.00114691
6.28977e-07
-1.57882e-06
1.02462e-07
-5.24051e-07
-1.09586e-06
8.33894e-08
-4.29471e-07
7.88106e-07
1.03441e-06
0.00114551
9.75046e-07
-0.0011455
7.57963e-07
-1.61508e-06
-1.71077e-08
-5.90335e-07
-1.08937e-06
1.23568e-07
-3.95657e-07
8.04365e-07
7.7013e-07
5.38681e-07
0.00114467
-4.32278e-07
1.15779e-06
1.84535e-07
7.62623e-07
-4.44623e-07
7.16352e-08
-1.11476e-06
7.84362e-07
-0.00114647
6.75444e-07
-1.54125e-06
1.238e-07
-4.82694e-07
-1.09692e-06
9.21252e-08
7.80159e-07
-4.28601e-07
1.26365e-06
0.00114518
5.45365e-07
-0.00114491
1.06265e-07
-1.39388e-06
2.38211e-07
-3.32117e-07
-1.12278e-06
9.33457e-08
-4.33397e-07
7.58983e-07
-3.645e-07
-3.86637e-07
0.000274222
-9.76399e-07
0.000275771
-0.000273829
2.45267e-08
4.47122e-08
8.14061e-07
5.08935e-07
0.00114568
-4.18011e-07
1.13129e-06
1.90923e-07
7.58868e-07
-4.59104e-07
6.95124e-08
-1.13051e-06
9.03333e-07
-0.00114598
9.16347e-07
-1.59996e-06
-4.57229e-08
-6.0382e-07
-1.07745e-06
1.35888e-07
8.07082e-07
-3.90134e-07
1.23929e-06
0.00114616
5.92062e-07
-0.00114587
2.25335e-08
-1.34506e-06
2.49447e-07
-3.17808e-07
-1.13366e-06
9.21041e-08
-4.44899e-07
7.58886e-07
-0.000273778
2.10561e-07
2.04108e-07
1.53329e-06
1.47544e-06
-3.99635e-07
-4.15588e-07
0.000273819
-1.25592e-06
-1.21722e-06
0.000275682
-0.000273586
1.87035e-07
1.90489e-07
5.41819e-07
0.00114594
-4.07626e-07
1.18092e-06
2.09726e-07
7.69767e-07
-4.46981e-07
-1.11155e-06
7.15477e-08
-1.4722e-06
7.57334e-07
3.32996e-07
0.00114603
-3.66627e-07
1.22504e-06
2.35551e-07
7.65032e-07
-4.43801e-07
-1.12165e-06
7.65529e-08
0.00114614
5.95795e-07
-0.00114599
2.11816e-07
-1.40094e-06
1.92422e-07
-3.49581e-07
-1.11891e-06
1.17366e-07
-4.18922e-07
7.72226e-07
1.214e-06
0.00114628
6.4891e-07
-0.00114614
3.43512e-07
-1.44215e-06
1.62316e-07
-4.00087e-07
-1.12021e-06
9.95079e-08
-4.19142e-07
7.66031e-07
-3.89701e-07
-3.73999e-07
0.000273799
-1.18335e-06
0.000275674
-0.000273599
1.61665e-07
1.60976e-07
3.91762e-07
0.00114696
-3.83833e-07
1.15986e-06
2.24521e-07
7.62929e-07
-4.54081e-07
-1.11773e-06
6.39692e-08
-1.63279e-06