/*--------------------------------*- C++ -*----------------------------------*\
| =========                 |                                                 |
| \\      /  F ield         | OpenFOAM: The Open Source CFD Toolbox           |
|  \\    /   O peration     | Version:  2312                                  |
|   \\  /    A nd           | Website:  www.openfoam.com                      |
|    \\/     M anipulation  |                                                 |
\*---------------------------------------------------------------------------*/
FoamFile
{
    version     2.0;
    format      ascii;
    arch        "LSB;label=32;scalar=64";
    class       volVectorField;
    location    "500";
    object      U;
}
// * * * * * * * * * * * * * * * * * * * * * * * * * * * * * * * * * * * * * //

dimensions      [0 1 -1 0 0 0 0];

internalField   nonuniform List<vector> 
43120
(
(5.84078e-05 6.1301e-05 0.108957)
(-8.52773e-05 4.01662e-05 0.107983)
(1.68567e-05 -7.93135e-05 0.107959)
(-0.00015321 -0.000146974 0.10654)
(4.65619e-05 4.00022e-05 0.109223)
(-0.000100944 5.87346e-05 0.108158)
(9.13854e-05 -0.000110048 0.108148)
(-0.000133781 -0.000143307 0.106687)
(5.85063e-05 5.88542e-05 0.109514)
(-7.92225e-05 2.69878e-05 0.108337)
(1.26976e-05 -7.52271e-05 0.108294)
(-0.000147172 -0.000147695 0.106679)
(5.64335e-05 5.88172e-05 0.109784)
(-9.32682e-05 8.04146e-05 0.108473)
(0.000105513 -0.000108061 0.10845)
(-0.000166432 -0.000165948 0.106637)
(5.84306e-05 7.61213e-05 0.110084)
(-0.000104163 0.000110584 0.108552)
(2.83972e-06 -6.57744e-05 0.108582)
(-0.000132274 -0.000116215 0.106573)
(4.44766e-05 3.38676e-05 0.11033)
(-6.36737e-05 -2.31973e-05 0.108637)
(6.54812e-05 -8.8069e-05 0.108725)
(-0.000119747 -0.000126921 0.10667)
(4.10155e-05 3.72265e-05 0.11055)
(-8.73761e-05 7.27618e-05 0.108813)
(4.23689e-05 -8.01156e-05 0.108785)
(-0.000144257 -0.000150328 0.106484)
(7.01026e-05 6.12758e-05 0.110826)
(-7.29634e-05 5.81754e-05 0.108852)
(0.000128782 -9.89198e-05 0.108811)
(-9.31903e-05 -9.83942e-05 0.106393)
(4.43734e-05 4.81554e-05 0.111043)
(-7.53308e-05 4.03955e-05 0.10889)
(-2.85317e-05 -5.27155e-05 0.10882)
(-0.000177418 -0.000176518 0.106338)
(5.69343e-05 6.33827e-05 0.111256)
(-7.10576e-05 7.61458e-05 0.108938)
(8.65975e-05 -7.66187e-05 0.108936)
(-1.7098e-05 -9.95348e-06 0.106134)
(2.29081e-05 3.57996e-05 0.111465)
(-7.72954e-05 6.0004e-05 0.108877)
(-5.37072e-06 -5.40576e-05 0.108943)
(-0.000191648 -0.000182465 0.106306)
(5.03677e-05 3.65431e-05 0.111653)
(-5.5337e-05 -7.41071e-06 0.108895)
(8.7028e-05 -8.08795e-05 0.108981)
(-7.41312e-05 -8.49483e-05 0.105761)
(6.95915e-05 6.4706e-05 0.111856)
(-5.95557e-05 5.5472e-05 0.108967)
(3.91164e-05 -5.69989e-05 0.108902)
(-9.98228e-05 -0.000104305 0.105776)
(3.18586e-05 3.69647e-05 0.112003)
(-5.71169e-05 3.67961e-05 0.108938)
(1.14306e-05 -5.0653e-05 0.108915)
(-7.50801e-05 -7.04995e-05 0.105711)
(3.2941e-05 3.58475e-05 0.112166)
(-5.71878e-05 4.86685e-05 0.108889)
(5.61405e-05 -5.72558e-05 0.108914)
(-9.37903e-05 -9.11939e-05 0.105661)
(5.26031e-05 4.77878e-05 0.112326)
(-4.65639e-05 2.34708e-05 0.108836)
(4.04408e-05 -5.09911e-05 0.108836)
(-7.32343e-05 -7.7842e-05 0.105574)
(4.52343e-05 4.38887e-05 0.112449)
(-4.3288e-05 2.57143e-05 0.108829)
(1.89484e-05 -4.36684e-05 0.108794)
(-7.94618e-05 -8.03972e-05 0.105475)
(3.40586e-05 3.81622e-05 0.112566)
(-4.69606e-05 3.86596e-05 0.108776)
(2.79285e-05 -4.33879e-05 0.108774)
(-6.89087e-05 -6.51057e-05 0.105372)
(3.70061e-05 3.7523e-05 0.112681)
(-3.88561e-05 1.72976e-05 0.108708)
(2.22975e-05 -3.95731e-05 0.108727)
(-7.58877e-05 -7.57654e-05 0.105292)
(3.69711e-05 3.57735e-05 0.112781)
(-3.65883e-05 1.9785e-05 0.108675)
(2.24427e-05 -3.70423e-05 0.108679)
(-6.80945e-05 -6.93156e-05 0.10516)
(3.36798e-05 3.28967e-05 0.112866)
(-3.28845e-05 2.25177e-05 0.10862)
(2.31128e-05 -3.35922e-05 0.108615)
(-5.52575e-05 -5.57543e-05 0.105109)
(3.63331e-05 3.67776e-05 0.112941)
(-3.01457e-05 2.02182e-05 0.108558)
(1.81033e-05 -2.91879e-05 0.108555)
(-6.19886e-05 -6.15777e-05 0.105059)
(3.03745e-05 3.0404e-05 0.113)
(-2.77761e-05 1.70002e-05 0.108499)
(1.69621e-05 -2.77515e-05 0.108498)
(-5.71355e-05 -5.71741e-05 0.104973)
(2.99694e-05 3.00267e-05 0.113054)
(-2.43195e-05 1.41008e-05 0.10844)
(1.49153e-05 -2.51061e-05 0.108437)
(-5.48432e-05 -5.47384e-05 0.1049)
(2.78405e-05 2.84543e-05 0.113096)
(-2.24614e-05 1.39013e-05 0.10838)
(1.25881e-05 -2.11342e-05 0.108383)
(-5.24549e-05 -5.20203e-05 0.104839)
(2.68976e-05 2.60993e-05 0.113127)
(-1.77912e-05 9.66697e-06 0.108326)
(1.25302e-05 -1.9059e-05 0.108325)
(-5.1251e-05 -5.21032e-05 0.104778)
(8.34447e-06 -1.69517e-05 0.108266)
(7.60774e-06 9.15373e-06 0.106629)
(6.40638e-05 9.99129e-05 0.107924)
(-4.83954e-05 9.69465e-05 0.107936)
(1.38039e-05 -1.0622e-05 0.106692)
(9.88218e-05 6.7734e-05 0.107923)
(8.57191e-05 -9.86519e-06 0.107907)
(-9.45774e-05 5.1831e-05 0.107937)
(-0.000101466 -5.80911e-05 0.107931)
(-5.54895e-05 6.21343e-05 0.106619)
(1.69729e-05 -7.91432e-05 0.107909)
(-6.70493e-05 -9.32489e-05 0.107931)
(-4.781e-06 2.88776e-06 0.10669)
(0.000148862 0.000150804 0.106472)
(-3.65129e-05 -4.15735e-05 0.106764)
(4.39078e-05 9.30101e-05 0.107968)
(-3.53249e-05 8.96968e-05 0.107983)
(3.37058e-05 8.25551e-05 0.108088)
(-2.91449e-05 8.36969e-05 0.108115)
(-0.000135622 0.000139197 0.106548)
(3.88672e-05 -4.01837e-05 0.106859)
(9.06543e-05 4.71149e-05 0.107965)
(8.45935e-05 -1.09358e-05 0.107959)
(8.61705e-05 2.69214e-05 0.108087)
(9.74565e-05 -7.25164e-05 0.108103)
(-8.75348e-05 -3.7505e-05 0.107981)
(-8.41243e-05 2.76562e-05 0.108112)
(-8.47539e-05 -3.95052e-05 0.108099)
(0.000108393 -0.00010228 0.106492)
(8.97579e-06 -1.37136e-05 0.106839)
(-4.22885e-05 -8.27045e-05 0.10798)
(6.78526e-05 -0.000101583 0.108103)
(-2.84504e-05 -9.32731e-05 0.108103)
(4.82661e-05 3.88189e-05 0.106841)
(0.000132077 0.000126102 0.106617)
(-1.77622e-05 -1.83755e-05 0.106924)
(3.07016e-05 7.89328e-05 0.108142)
(-6.52043e-05 9.70599e-05 0.108159)
(5.56765e-05 9.39735e-05 0.108287)
(-6.18098e-05 8.56542e-05 0.1083)
(-0.000140601 0.000137388 0.106708)
(-1.22578e-06 -3.90948e-06 0.106878)
(8.38696e-05 2.30121e-05 0.108144)
(0.000104684 -9.87996e-05 0.108148)
(9.44356e-05 5.49568e-05 0.108289)
(8.53208e-05 -5.08752e-05 0.108258)
(-9.43967e-05 -6.70333e-05 0.108145)
(-9.06646e-05 5.58462e-05 0.1083)
(-9.23495e-05 -6.0786e-05 0.108296)
(0.000185979 -0.000191679 0.106667)
(-2.6084e-05 2.25092e-05 0.106731)
(-5.69254e-05 -0.00010248 0.108149)
(4.60425e-05 -8.79734e-05 0.108258)
(-5.99975e-05 -9.32554e-05 0.108296)
(3.7347e-06 3.06199e-06 0.106877)
(0.000154847 0.000155078 0.106737)
(-1.76759e-05 -1.55166e-05 0.106875)
(6.90856e-05 9.70074e-05 0.108327)
(-2.96531e-05 7.74018e-05 0.108338)
(5.58115e-05 8.82177e-05 0.108428)
(-4.00961e-05 8.82457e-05 0.108423)
(-0.000139465 0.000135932 0.106684)
(2.68261e-05 -2.21816e-05 0.106931)
(9.63925e-05 6.96157e-05 0.108327)
(7.35658e-05 -1.58187e-05 0.108294)
(8.68497e-05 5.46278e-05 0.108432)
(0.000105103 -8.36456e-05 0.108398)
(-9.43235e-05 -5.69246e-05 0.108323)
(-8.36965e-05 4.29479e-05 0.108426)
(-9.07749e-05 -6.89127e-05 0.108414)
(0.000115887 -0.000118838 0.106548)
(1.70569e-05 -1.68417e-05 0.106845)
(-5.62071e-05 -9.53249e-05 0.108322)
(8.23878e-05 -0.000105843 0.108402)
(-6.54994e-05 -9.23979e-05 0.108416)
(-8.01777e-06 -8.78063e-06 0.106833)
(0.000138933 0.000141778 0.106666)
(9.26429e-06 2.35668e-05 0.106761)
(6.27993e-05 9.50593e-05 0.108453)
(-7.6681e-05 9.78621e-05 0.108468)
(7.0165e-05 0.0001026 0.108555)
(-0.000136372 0.000120907 0.108535)
(-0.000158016 0.000162644 0.106745)
(-6.17045e-05 6.61418e-05 0.106678)
(9.193e-05 6.52185e-05 0.108459)
(0.000108098 -0.000104751 0.108446)
(9.23909e-05 9.09446e-05 0.108555)
(7.17597e-05 -6.63675e-06 0.108561)
(-8.97041e-05 -6.35277e-05 0.108453)
(-0.000117474 0.000143346 0.10854)
(-9.47812e-05 -4.11608e-05 0.108554)
(0.000198732 -0.000198297 0.106653)
(-7.02823e-05 7.75714e-05 0.106756)
(-6.48162e-05 -8.81735e-05 0.108457)
(1.55119e-05 -6.63571e-05 0.108562)
(-6.38607e-05 -8.23039e-05 0.108552)
(1.29016e-05 2.95518e-05 0.106771)
(0.000151817 0.000165675 0.10654)
(-3.78128e-05 -4.24685e-05 0.106689)
(5.96133e-05 9.85495e-05 0.108582)
(-0.000103372 0.000107119 0.108548)
(4.3086e-05 8.13141e-05 0.108644)
(1.58894e-05 6.3417e-05 0.108609)
(-0.00019362 0.000198005 0.106425)
(0.000103717 -0.000105512 0.10659)
(8.85342e-05 7.9031e-05 0.108578)
(7.14653e-05 6.78148e-06 0.108582)
(8.32795e-05 3.62381e-05 0.10864)
(8.75659e-05 -5.92717e-05 0.108694)
(-8.58219e-05 -2.15336e-05 0.108594)
(-6.47705e-05 -1.58584e-05 0.108605)
(-7.80123e-05 -3.06359e-05 0.108679)
(7.1014e-05 -6.35808e-05 0.106561)
(2.31225e-06 -2.90024e-06 0.106919)
(-4.28766e-05 -7.37074e-05 0.108589)
(5.99269e-05 -8.74613e-05 0.10869)
(-2.41717e-05 -7.92501e-05 0.108675)
(4.9781e-05 4.52352e-05 0.106873)
(0.000107028 9.9455e-05 0.106492)
(-4.92105e-05 -5.70461e-05 0.106843)
(2.792e-05 6.99039e-05 0.108672)
(1.68433e-05 6.02988e-05 0.108641)
(2.10792e-05 6.58087e-05 0.108756)
(-4.81231e-05 7.2475e-05 0.108772)
(-5.06719e-05 4.68412e-05 0.106427)
(6.70291e-06 -1.59554e-05 0.10691)
(7.59631e-05 1.4385e-05 0.108671)
(8.54618e-05 -7.15508e-05 0.108729)
(7.17882e-05 1.21879e-05 0.108761)
(7.36993e-05 -5.16586e-05 0.108766)
(-8.46734e-05 -6.56896e-05 0.108706)
(-7.91334e-05 3.3448e-05 0.108777)
(-8.63934e-05 -9.40561e-05 0.108765)
(0.000162593 -0.000165224 0.106708)
(-4.05057e-05 3.08763e-05 0.106784)
(-5.21911e-05 -9.01532e-05 0.108705)
(3.6877e-05 -8.05278e-05 0.108772)
(-8.52259e-05 -9.25832e-05 0.10877)
(-1.31044e-05 -2.11677e-05 0.106738)
(0.000119621 0.000113699 0.106634)
(1.8735e-05 1.47926e-05 0.106659)
(5.67551e-05 7.76556e-05 0.108787)
(-8.16171e-05 8.22839e-05 0.108807)
(9.47348e-05 8.73537e-05 0.108857)
(-7.21587e-05 8.61389e-05 0.108852)
(-0.000163164 0.000155155 0.106694)
(6.47851e-06 1.32275e-06 0.106642)
(8.13955e-05 5.3086e-05 0.10879)
(7.47378e-05 -5.13776e-05 0.108778)
(9.01738e-05 8.88822e-05 0.108854)
(9.70033e-05 -0.000106106 0.108817)
(-8.04104e-05 -6.86764e-05 0.10877)
(-8.14785e-05 8.30302e-05 0.108853)
(-6.80874e-05 -2.40369e-05 0.108805)
(0.000110326 -0.000118498 0.106551)
(4.41854e-05 -3.71404e-05 0.106582)
(-6.49931e-05 -8.45059e-05 0.108773)
(0.000117018 -9.27687e-05 0.108819)
(-1.79543e-05 -7.106e-05 0.108803)
(5.2516e-05 4.82277e-05 0.106599)
(0.000140735 0.000135814 0.106394)
(-4.2038e-05 -4.28147e-05 0.106504)
(6.87462e-05 7.95815e-05 0.108855)
(-4.75514e-05 7.84057e-05 0.108854)
(3.31281e-05 7.10078e-05 0.108863)
(-5.03398e-05 7.70819e-05 0.108869)
(-0.000119874 0.000127969 0.106389)
(2.94003e-05 -3.10005e-05 0.106512)
(8.33646e-05 5.90145e-05 0.108854)
(0.00010414 -0.000118173 0.108813)
(7.29489e-05 3.25885e-05 0.108868)
(6.41089e-05 -1.25063e-05 0.108804)
(-6.38031e-05 -1.72384e-05 0.108836)
(-7.72537e-05 4.54742e-05 0.10887)
(-9.05749e-05 -9.869e-05 0.1089)
(0.000184545 -0.000177083 0.106314)
(-7.47769e-05 7.30265e-05 0.106276)
(-7.19752e-06 -6.76951e-05 0.108836)
(7.6247e-06 -6.42267e-05 0.108805)
(-9.8122e-05 -9.2415e-05 0.108905)
(-2.95285e-05 -3.05113e-05 0.106594)
(0.000107841 0.000108948 0.106286)
(-5.28422e-06 2.08844e-06 0.106387)
(4.84523e-05 7.69769e-05 0.108879)
(-4.69255e-05 7.44398e-05 0.108886)
(6.6564e-05 7.93245e-05 0.108906)
(-2.18083e-05 6.5604e-05 0.108932)
(-0.000113042 0.000110472 0.10629)
(4.89339e-05 -4.12671e-05 0.106498)
(7.65398e-05 5.33482e-05 0.108882)
(5.18814e-05 2.20914e-05 0.108815)
(7.37634e-05 7.22567e-05 0.108907)
(7.92214e-05 -5.11721e-05 0.108899)
(-9.77901e-05 -0.000116005 0.108903)
(-6.06938e-05 3.29548e-05 0.108939)
(-5.41209e-05 1.11367e-05 0.108899)
(4.33803e-05 -4.61633e-05 0.106077)
(8.17629e-06 -7.77823e-07 0.106486)
(-0.000120904 -9.72767e-05 0.108906)
(6.23277e-05 -7.44196e-05 0.108906)
(5.2595e-06 -4.89158e-05 0.108901)
(9.94451e-05 0.000106476 0.106339)
(0.000123011 0.000130248 0.106139)
(-6.22876e-05 -5.17665e-05 0.106237)
(6.49566e-05 7.94572e-05 0.108901)
(-5.92466e-05 7.73956e-05 0.108935)
(1.38691e-05 6.7977e-05 0.10891)
(-0.000106574 8.62229e-05 0.108908)
(-0.000100687 0.000109459 0.106262)
(-2.44605e-05 2.27836e-05 0.106153)
(7.38135e-05 7.18859e-05 0.108905)
(8.31042e-05 -6.98314e-05 0.108934)
(6.07168e-05 3.05089e-05 0.108909)
(5.45976e-05 -1.1262e-05 0.108955)
(-4.28337e-05 5.01241e-05 0.1089)
(-8.56011e-05 0.000105874 0.108898)
(-7.07493e-05 -5.13128e-05 0.108985)
(0.000163484 -0.000154765 0.106264)
(-7.43783e-05 7.25592e-05 0.106346)
(4.31857e-05 -3.71286e-05 0.108903)
(1.07745e-05 -5.42161e-05 0.108945)
(-6.84599e-05 -6.3595e-05 0.108984)
(-2.31755e-05 -1.3074e-05 0.10655)
(5.77249e-05 6.74846e-05 0.106025)
(-2.60861e-05 -3.40445e-05 0.106358)
(-1.48575e-05 5.52326e-05 0.108923)
(-7.4497e-05 7.27858e-05 0.108883)
(3.64749e-05 5.41923e-05 0.10897)
(-8.48864e-07 4.58532e-05 0.108857)
(-0.000131013 0.000124924 0.105892)
(6.74706e-05 -8.34228e-05 0.106085)
(4.86971e-05 -4.88666e-07 0.108918)
(4.92766e-05 -9.33668e-06 0.108949)
(5.79645e-05 2.4495e-05 0.108967)
(6.76483e-05 -9.32937e-05 0.10897)
(-8.58937e-05 -0.000112773 0.109008)
(-5.75082e-05 -2.08097e-05 0.108871)
(-7.66722e-05 -8.94479e-05 0.108922)
(5.04032e-05 -5.6921e-05 0.10612)
(1.61224e-05 -3.17344e-05 0.106297)
(-0.000127357 -7.94982e-05 0.109003)
(7.14185e-05 -7.93582e-05 0.108983)
(-7.81706e-05 -8.08757e-05 0.108919)
(2.28145e-05 1.42914e-05 0.106013)
(0.000133503 0.000123365 0.106127)
(-4.67714e-06 -1.18914e-05 0.106004)
(8.62532e-05 6.43811e-05 0.108985)
(-2.22748e-06 4.74617e-05 0.108882)
(8.59084e-05 7.0457e-05 0.108944)
(-4.28761e-05 6.65678e-05 0.108963)
(-6.72446e-05 5.51584e-05 0.105896)
(1.46711e-05 -2.93347e-06 0.106166)
(7.13533e-05 6.84175e-05 0.108987)
(7.30826e-05 -9.66858e-05 0.108968)
(7.66469e-05 7.70626e-05 0.10895)
(6.61244e-05 -3.2822e-05 0.108917)
(-6.10081e-05 -4.53473e-05 0.108881)
(-5.97022e-05 5.72783e-05 0.108961)
(-5.47097e-05 -3.02255e-05 0.108862)
(0.000148597 -0.00016053 0.106041)
(-3.86128e-05 5.01061e-05 0.10599)
(-2.8335e-05 -6.85823e-05 0.108883)
(4.705e-05 -5.91456e-05 0.108916)
(-2.1461e-05 -6.06272e-05 0.108867)
(3.74762e-05 3.06577e-05 0.105982)
(9.87897e-05 9.39433e-05 0.105748)
(-4.99596e-05 -4.54218e-05 0.105895)
(5.77719e-05 6.60379e-05 0.108911)
(-4.33745e-05 6.68024e-05 0.10897)
(1.6448e-05 5.70601e-05 0.108871)
(-2.95155e-05 5.44634e-05 0.108947)
(-0.000107429 0.000118806 0.105929)
(4.43298e-05 -4.53112e-05 0.106021)
(6.93228e-05 5.40001e-05 0.108915)
(6.43771e-05 -2.71599e-05 0.108905)
(5.41693e-05 2.08589e-05 0.108873)
(5.48723e-05 -2.0159e-05 0.108909)
(-6.10434e-05 -4.50663e-05 0.10888)
(-5.43426e-05 2.89387e-05 0.108947)
(-5.78341e-05 -2.60317e-05 0.108898)
(8.0581e-05 -6.95597e-05 0.105766)
(-4.38198e-05 4.28585e-05 0.105969)
(-4.13509e-05 -6.39639e-05 0.108884)
(1.96215e-05 -5.48799e-05 0.108909)
(-3.04454e-05 -5.51432e-05 0.1089)
(4.03918e-05 4.47377e-05 0.10593)
(7.20822e-05 7.69293e-05 0.105691)
(-4.04378e-05 -3.68256e-05 0.105927)
(1.30008e-05 5.45672e-05 0.108877)
(-3.93209e-05 5.5729e-05 0.108937)
(1.87079e-05 5.0078e-05 0.108903)
(-5.73789e-05 5.81776e-05 0.108903)
(-8.17685e-05 7.97286e-05 0.105794)
(1.5044e-05 -1.68487e-05 0.105866)
(5.10851e-05 1.9286e-05 0.108879)
(4.92265e-05 -1.39684e-05 0.108914)
(4.69568e-05 2.40813e-05 0.108902)
(5.26574e-05 -4.62678e-05 0.108916)
(-5.4739e-05 -1.93379e-05 0.108892)
(-5.95015e-05 5.3921e-05 0.108907)
(-5.6109e-05 -3.34796e-05 0.108891)
(7.43316e-05 -7.63908e-05 0.105758)
(-2.05437e-05 1.85518e-05 0.105939)
(-2.56134e-05 -5.15878e-05 0.108894)
(4.27594e-05 -5.4113e-05 0.10892)
(-3.88246e-05 -5.30257e-05 0.10889)
(2.36476e-05 2.73814e-05 0.10588)
(8.26458e-05 8.51409e-05 0.105707)
(-2.10138e-05 -2.55027e-05 0.10579)
(2.85651e-05 5.02871e-05 0.108908)
(-5.07551e-05 5.62957e-05 0.108884)
(4.97206e-05 5.25379e-05 0.108886)
(-2.56543e-05 5.11025e-05 0.10884)
(-9.72054e-05 9.58065e-05 0.10563)
(4.34934e-05 -4.0466e-05 0.105721)
(4.84827e-05 3.08383e-05 0.108907)
(5.63084e-05 -5.82608e-05 0.108911)
(5.52236e-05 4.44889e-05 0.108887)
(5.48745e-05 -4.33784e-05 0.108855)
(-5.43342e-05 -3.41594e-05 0.108893)
(-4.94626e-05 2.94781e-05 0.108843)
(-4.73176e-05 -2.96365e-05 0.108875)
(0.000105612 -0.000107144 0.105706)
(-2.93096e-05 3.24445e-05 0.105716)
(-3.64493e-05 -5.25459e-05 0.108891)
(4.71933e-05 -5.31102e-05 0.108858)
(-2.4407e-05 -4.99773e-05 0.108876)
(4.33866e-05 3.8997e-05 0.105792)
(9.18976e-05 8.7232e-05 0.105558)
(-3.36991e-05 -3.53908e-05 0.105629)
(4.75854e-05 5.15763e-05 0.108869)
(-1.88913e-05 4.8947e-05 0.108834)
(3.74475e-05 4.84148e-05 0.10881)
(-1.56392e-05 4.31884e-05 0.10883)
(-6.87806e-05 7.21142e-05 0.10551)
(4.4352e-05 -4.25032e-05 0.105702)
(5.46398e-05 4.1574e-05 0.108871)
(5.34424e-05 -3.58829e-05 0.108834)
(5.00266e-05 3.4467e-05 0.108814)
(4.74695e-05 -2.05752e-05 0.108797)
(-4.693e-05 -3.19348e-05 0.108867)
(-4.15241e-05 1.798e-05 0.108831)
(-4.66323e-05 -3.63044e-05 0.10884)
(8.11191e-05 -7.77504e-05 0.10549)
(-4.11886e-05 4.30109e-05 0.105626)
(-2.5923e-05 -4.99421e-05 0.108869)
(2.28855e-05 -4.58942e-05 0.108799)
(-3.33283e-05 -4.83281e-05 0.108844)
(3.27827e-05 3.0989e-05 0.105695)
(7.68435e-05 7.5998e-05 0.105413)
(-4.34424e-05 -3.95771e-05 0.105554)
(3.31291e-05 4.78507e-05 0.108795)
(-2.47129e-05 4.41773e-05 0.108827)
(1.91273e-05 4.37525e-05 0.108764)
(-4.31562e-05 4.76279e-05 0.108793)
(-7.21509e-05 7.33361e-05 0.105491)
(2.44452e-05 -2.51622e-05 0.105582)
(4.84026e-05 3.25943e-05 0.108798)
(4.45989e-05 -1.79477e-05 0.108792)
(4.11889e-05 2.39452e-05 0.108765)
(4.31774e-05 -2.70024e-05 0.108778)
(-4.70694e-05 -3.58515e-05 0.108826)
(-4.7875e-05 4.22572e-05 0.108796)
(-4.41318e-05 -2.18406e-05 0.108787)
(6.95266e-05 -6.83587e-05 0.10542)
(-3.48883e-05 3.41922e-05 0.105587)
(-3.5324e-05 -4.77011e-05 0.108829)
(2.61147e-05 -4.33847e-05 0.108781)
(-2.66817e-05 -4.1563e-05 0.108788)
(3.87174e-05 4.26511e-05 0.105581)
(6.56181e-05 6.93664e-05 0.105347)
(-3.66094e-05 -3.60431e-05 0.105493)
(1.8773e-05 4.2875e-05 0.108757)
(-3.95328e-05 4.6562e-05 0.108773)
(2.40978e-05 4.05222e-05 0.108733)
(-2.21767e-05 3.98306e-05 0.108718)
(-8.21175e-05 8.13235e-05 0.105361)
(4.25951e-05 -4.39265e-05 0.105459)
(4.02247e-05 2.34661e-05 0.108757)
(4.29705e-05 -2.87785e-05 0.108771)
(3.97445e-05 2.50798e-05 0.108734)
(3.94101e-05 -2.4963e-05 0.108738)
(-4.21795e-05 -1.79938e-05 0.108776)
(-4.05444e-05 2.05804e-05 0.10872)
(-4.09441e-05 -2.84303e-05 0.108741)
(7.5748e-05 -7.65623e-05 0.105377)
(-4.08899e-05 3.95318e-05 0.105497)
(-2.27231e-05 -3.95694e-05 0.108776)
(2.3345e-05 -4.01492e-05 0.10874)
(-2.94014e-05 -4.00843e-05 0.108742)
(3.25555e-05 3.31979e-05 0.105502)
(7.0694e-05 7.07335e-05 0.105285)
(-3.83959e-05 -3.95786e-05 0.105398)
(2.65089e-05 3.96997e-05 0.108722)
(-1.94882e-05 3.7863e-05 0.108706)
(2.47068e-05 3.75664e-05 0.108681)
(-2.14946e-05 3.55716e-05 0.108681)
(-6.37566e-05 6.21889e-05 0.105257)
(3.78337e-05 -3.99707e-05 0.10541)
(3.95494e-05 2.62819e-05 0.108723)
(3.8554e-05 -2.44835e-05 0.108725)
(3.82662e-05 2.31797e-05 0.108683)
(3.60095e-05 -2.40108e-05 0.108689)
(-4.09494e-05 -3.2678e-05 0.108727)
(-3.708e-05 1.84364e-05 0.108684)
(-4.03181e-05 -3.37443e-05 0.108669)
(6.59012e-05 -6.74809e-05 0.10529)
(-4.00332e-05 3.79185e-05 0.105415)
(-3.24658e-05 -4.07046e-05 0.108728)
(2.09381e-05 -3.74557e-05 0.108692)
(-3.22063e-05 -4.11401e-05 0.108671)
(3.36012e-05 3.23352e-05 0.105365)
(6.43743e-05 6.32096e-05 0.105196)
(-4.17621e-05 -4.23988e-05 0.105335)
(2.07383e-05 3.6098e-05 0.108668)
(-2.24071e-05 3.53768e-05 0.108671)
(1.72536e-05 3.20223e-05 0.108632)
(-2.20292e-05 3.43193e-05 0.108632)
(-6.71101e-05 6.51415e-05 0.105209)
(3.92936e-05 -3.86288e-05 0.105328)
(3.67318e-05 1.92606e-05 0.10867)
(3.58936e-05 -2.50812e-05 0.108675)
(3.24601e-05 1.62154e-05 0.108634)
(3.52077e-05 -2.38962e-05 0.108628)
(-3.88326e-05 -2.79543e-05 0.10865)
(-3.41692e-05 2.25494e-05 0.108635)
(-3.19181e-05 -1.16638e-05 0.108609)
(6.50162e-05 -6.69584e-05 0.105211)
(-3.7476e-05 3.81404e-05 0.105318)
(-2.64552e-05 -3.95549e-05 0.108652)
(2.44307e-05 -3.50429e-05 0.108632)
(-1.06623e-05 -3.23222e-05 0.108611)
(4.76434e-05 4.70555e-05 0.1053)
(6.28983e-05 6.23409e-05 0.105137)
(-3.70675e-05 -3.66579e-05 0.105238)
(2.12779e-05 3.23628e-05 0.10862)
(-2.08207e-05 3.35445e-05 0.108617)
(2.41937e-05 3.29082e-05 0.108575)
(-1.94351e-05 3.21859e-05 0.108571)
(-6.27825e-05 6.37613e-05 0.105127)
(4.05753e-05 -3.86784e-05 0.10524)
(3.27291e-05 2.05659e-05 0.108622)
(3.42842e-05 -2.14003e-05 0.108612)
(3.26585e-05 2.46658e-05 0.108577)
(3.12196e-05 -1.6505e-05 0.108567)
(-3.08955e-05 -1.21479e-05 0.1086)
(-3.08227e-05 2.18978e-05 0.108573)
(-3.05962e-05 -1.87015e-05 0.108574)
(6.3936e-05 -6.29591e-05 0.105118)
(-4.03193e-05 4.21875e-05 0.105235)
(-1.14628e-05 -3.12046e-05 0.108602)
(1.89312e-05 -2.98811e-05 0.108568)
(-1.91655e-05 -3.0365e-05 0.108576)
(3.79716e-05 3.83772e-05 0.105253)
(6.11144e-05 6.15427e-05 0.105041)
(-4.33593e-05 -4.33855e-05 0.10516)
(2.07039e-05 3.16827e-05 0.108557)
(-1.85456e-05 3.1225e-05 0.108556)
(1.45613e-05 2.73869e-05 0.108509)
(-1.71514e-05 2.76347e-05 0.108511)
(-5.94967e-05 6.10135e-05 0.105044)
(4.15056e-05 -4.21952e-05 0.105162)
(3.13237e-05 2.1198e-05 0.108559)
(3.02489e-05 -1.64574e-05 0.108553)
(2.73257e-05 1.44717e-05 0.108511)
(2.82927e-05 -1.87293e-05 0.10851)
(-3.03892e-05 -1.97239e-05 0.108562)
(-2.79205e-05 1.6321e-05 0.108514)
(-2.80184e-05 -1.80823e-05 0.108515)
(5.96683e-05 -5.81877e-05 0.105042)
(-4.028e-05 3.96273e-05 0.105161)
(-2.02138e-05 -3.00961e-05 0.108563)
(1.7924e-05 -2.85107e-05 0.108512)
(-1.80144e-05 -2.79658e-05 0.108517)
(4.0495e-05 4.05009e-05 0.105164)
(5.53978e-05 5.53198e-05 0.104971)
(-4.12374e-05 -4.11575e-05 0.105094)
(1.47994e-05 2.65448e-05 0.108496)
(-1.82038e-05 2.71932e-05 0.108496)
(1.57113e-05 2.5291e-05 0.108456)
(-1.49338e-05 2.49516e-05 0.108452)
(-5.71068e-05 5.62187e-05 0.104972)
(4.20498e-05 -4.23954e-05 0.105088)
(2.65448e-05 1.47003e-05 0.108497)
(2.72409e-05 -1.81499e-05 0.108495)
(2.51904e-05 1.56317e-05 0.108458)
(2.54916e-05 -1.62802e-05 0.108449)
(-2.73332e-05 -1.74129e-05 0.108499)
(-2.52305e-05 1.42864e-05 0.108455)
(-2.57492e-05 -1.61647e-05 0.108452)
(5.75304e-05 -5.83979e-05 0.10497)
(-4.19029e-05 4.14721e-05 0.105085)
(-1.73443e-05 -2.73388e-05 0.108501)
(1.56024e-05 -2.58505e-05 0.108453)
(-1.60603e-05 -2.56464e-05 0.108453)
(4.08143e-05 4.08874e-05 0.105085)
(5.47551e-05 5.4858e-05 0.104907)
(-4.27945e-05 -4.2293e-05 0.105022)
(1.53872e-05 2.47828e-05 0.108441)
(-1.43424e-05 2.42892e-05 0.108437)
(1.29603e-05 2.24175e-05 0.108396)
(-1.52791e-05 2.32722e-05 0.108392)
(-5.34301e-05 5.32194e-05 0.104902)
(4.05878e-05 -4.0342e-05 0.105017)
(2.46356e-05 1.54692e-05 0.108443)
(2.49799e-05 -1.51817e-05 0.108435)
(2.20576e-05 1.37655e-05 0.108398)
(2.15437e-05 -1.08331e-05 0.108394)
(-2.44565e-05 -1.42185e-05 0.108437)
(-2.31237e-05 1.55364e-05 0.108395)
(-2.27966e-05 -1.30129e-05 0.108393)
(5.41446e-05 -5.44555e-05 0.104899)
(-4.41518e-05 4.45014e-05 0.105023)
(-1.42773e-05 -2.43222e-05 0.108439)
(1.11114e-05 -2.12829e-05 0.108397)
(-1.38424e-05 -2.2424e-05 0.108395)
(4.22342e-05 4.27444e-05 0.10502)
(5.16415e-05 5.20449e-05 0.10484)
(-4.14472e-05 -4.22016e-05 0.104952)
(1.33801e-05 2.19698e-05 0.108381)
(-1.35099e-05 2.26303e-05 0.108377)
(1.35077e-05 1.99542e-05 0.108336)
(-7.81117e-06 1.85708e-05 0.108336)
(-5.28613e-05 5.30736e-05 0.104834)
(4.59324e-05 -4.56189e-05 0.10496)
(2.1632e-05 1.38612e-05 0.108383)
(2.13903e-05 -1.21764e-05 0.10838)
(2.03151e-05 1.24017e-05 0.108338)
(1.99597e-05 -1.28415e-05 0.108338)
(-2.20051e-05 -1.23571e-05 0.10838)
(-1.82283e-05 8.0815e-06 0.108339)
(-1.92614e-05 -1.36999e-05 0.108337)
(5.05824e-05 -5.02966e-05 0.104842)
(-4.12669e-05 4.14999e-05 0.104956)
(-1.28641e-05 -2.1606e-05 0.108381)
(1.30733e-05 -1.97081e-05 0.10834)
(-1.25865e-05 -1.97124e-05 0.108339)
(4.22714e-05 4.14658e-05 0.104956)
(5.06138e-05 4.98077e-05 0.104774)
(-4.28146e-05 -4.25938e-05 0.104891)
(1.22578e-05 1.89528e-05 0.108321)
(-9.78911e-06 1.80776e-05 0.108323)
(1.06436e-05 1.7514e-05 0.108278)
(-1.44512e-05 1.81636e-05 0.108282)
(-4.77128e-05 4.78662e-05 0.104783)
(3.96188e-05 -3.98933e-05 0.104893)
(1.94129e-05 1.11452e-05 0.108323)
(1.92657e-05 -1.26871e-05 0.108322)
(1.75277e-05 1.0886e-05 0.10828)
(1.7881e-05 -1.06405e-05 0.108277)
(-1.92818e-05 -1.53543e-05 0.108322)
(-1.84498e-05 1.41798e-05 0.108285)
(-1.77392e-05 -8.8527e-06 0.108278)
(5.06411e-05 -5.05722e-05 0.104777)
(-4.30311e-05 4.28253e-05 0.104889)
(-1.42315e-05 -1.98225e-05 0.108324)
(1.04033e-05 -1.80882e-05 0.10828)
(-9.12215e-06 -1.76694e-05 0.10828)
(4.47673e-05 4.50598e-05 0.104888)
(1.6824e-05 -8.29492e-06 0.108263)
(4.71874e-05 -4.73729e-05 0.104716)
(6.76472e-05 7.12373e-05 0.108887)
(-5.92695e-05 6.25128e-05 0.108889)
(4.62785e-05 -4.00623e-05 0.108879)
(-6.68332e-05 -5.87454e-05 0.108889)
(-5.01037e-06 1.45115e-05 0.0723359)
(4.75355e-05 -9.22144e-05 0.107805)
(5.2652e-06 -6.6032e-05 0.0960445)
(-3.86054e-06 2.438e-05 0.0940167)
(-6.10713e-06 1.88134e-05 0.0835825)
(4.78514e-06 4.75394e-05 0.0940917)
(1.7111e-06 -6.56338e-07 0.0835508)
(8.06641e-07 1.51441e-06 0.0721547)
(-1.75647e-05 -1.52496e-05 0.0721611)
(2.50288e-05 -7.934e-06 0.0940157)
(2.38862e-05 -1.35685e-05 0.0835848)
(4.72009e-05 -2.61977e-07 0.0940784)
(6.51683e-06 -5.8829e-06 0.0835499)
(-4.99849e-05 5.47635e-05 0.108963)
(4.49151e-05 -3.95195e-05 0.108947)
(-5.56339e-05 -5.14354e-05 0.108961)
(4.74333e-05 4.11189e-05 0.109154)
(-4.51102e-05 4.32985e-05 0.109148)
(5.88291e-05 -6.29181e-05 0.109146)
(-4.00521e-05 -4.95474e-05 0.109145)
(-6.24568e-05 -4.63704e-06 0.102465)
(-9.46312e-05 1.52518e-05 0.0956943)
(-9.48762e-05 1.1767e-05 0.108657)
(-7.62385e-05 2.53562e-05 0.108023)
(-0.000107683 -4.15197e-06 0.102451)
(-4.94862e-05 8.59692e-06 0.0956843)
(-8.94099e-05 7.44487e-06 0.108712)
(-8.37533e-06 -2.36497e-05 0.0721792)
(-1.27887e-05 -2.7319e-05 0.0721944)
(5.05097e-06 -6.47894e-05 0.102469)
(3.89454e-06 -9.30078e-05 0.108645)
(2.53059e-05 -8.0277e-05 0.0957097)
(2.57501e-05 -8.42191e-05 0.108008)
(-4.96018e-07 -0.000108424 0.102469)
(1.01905e-05 -9.56714e-05 0.108698)
(1.88399e-05 -2.81556e-05 0.09571)
(-6.48146e-05 -7.00774e-06 0.0893499)
(-1.00257e-06 -6.82136e-05 0.0893482)
(5.52657e-05 5.4247e-05 0.106742)
(-1.56492e-05 -2.50989e-05 0.0893371)
(-1.72007e-05 -1.96507e-05 0.0893407)
(-2.78928e-06 1.67679e-05 0.0937132)
(-8.50072e-06 2.04343e-05 0.0833484)
(-3.635e-06 4.05415e-05 0.093765)
(5.39648e-06 -2.95817e-06 0.0833337)
(-2.43073e-05 8.92102e-06 0.0720269)
(3.93815e-05 2.12375e-05 0.071995)
(1.78758e-05 -9.36791e-06 0.0937111)
(1.85741e-05 -8.6014e-06 0.0833503)
(4.12933e-05 -1.1854e-05 0.0937627)
(-3.22911e-06 3.58266e-06 0.0833368)
(-5.73394e-05 5.10588e-05 0.109217)
(6.82549e-05 -7.53236e-05 0.109219)
(-4.99914e-05 -5.84721e-05 0.109217)
(5.35069e-05 5.26505e-05 0.109441)
(-6.43769e-05 5.94082e-05 0.109455)
(5.67269e-05 -6.07026e-05 0.109449)
(-6.37657e-05 -6.48337e-05 0.109447)
(-5.34459e-05 4.64423e-06 0.10219)
(-3.84525e-05 2.45725e-05 0.0954293)
(-9.96736e-05 1.40432e-05 0.108864)
(-0.000110881 8.61907e-05 0.108203)
(-0.000100875 1.33911e-05 0.102184)
(2.41851e-06 3.80934e-06 0.0954479)
(-0.00010419 2.1278e-05 0.108932)
(1.70765e-05 7.88679e-06 0.0720321)
(8.55633e-06 3.25989e-05 0.0720098)
(1.00337e-05 -5.08238e-05 0.102191)
(3.17416e-05 -0.000105556 0.108867)
(2.3816e-05 -3.0938e-05 0.0954533)
(9.87575e-05 -0.000112295 0.108188)
(1.41605e-05 -9.75502e-05 0.102178)
(3.33371e-05 -0.000106113 0.108937)
(-5.74814e-06 -2.4813e-05 0.0954353)
(-1.56923e-06 -2.23179e-05 0.0891492)
(-2.12742e-05 -8.22227e-07 0.0891497)
(-1.93935e-05 -2.54729e-05 0.106904)
(-3.1303e-05 2.42457e-05 0.0890807)
(2.50961e-05 -3.1745e-05 0.0890759)
(9.83642e-06 1.36579e-05 0.0934282)
(-3.96686e-06 1.71533e-05 0.0831701)
(9.26742e-06 3.42391e-05 0.09348)
(-1.57129e-05 8.61781e-07 0.0831448)
(9.10042e-06 -2.15376e-07 0.0718476)
(-4.17533e-05 -1.90248e-05 0.0719004)
(1.42656e-05 7.3796e-06 0.0934368)
(1.85593e-05 -4.55021e-06 0.0831689)
(3.48803e-05 8.01908e-06 0.0934786)
(-5.02918e-07 -1.11975e-05 0.0831443)
(-5.18249e-05 4.93857e-05 0.10952)
(4.44207e-05 -4.71795e-05 0.109511)
(-6.10505e-05 -6.17654e-05 0.109514)
(5.67843e-05 5.57516e-05 0.109716)
(-4.27185e-05 4.5023e-05 0.10971)
(5.79211e-05 -5.90182e-05 0.109708)
(-5.80185e-05 -6.1155e-05 0.109719)
(-5.23112e-05 -1.0266e-05 0.101906)
(-9.56227e-05 -2.48149e-05 0.0951169)
(-9.60543e-05 5.53279e-06 0.109129)
(-7.60511e-05 1.41952e-05 0.108361)
(-9.11279e-05 -1.0616e-05 0.101922)
(-3.38722e-05 -4.22913e-07 0.09512)
(-9.45474e-05 -6.27962e-06 0.10918)
(-1.22153e-05 -2.20085e-05 0.0718761)
(-2.12729e-05 -5.58884e-05 0.0719189)
(-5.90077e-06 -5.35396e-05 0.101911)
(1.33962e-06 -9.5495e-05 0.109124)
(2.83628e-06 -8.7312e-05 0.0951151)
(9.08102e-06 -7.70394e-05 0.108329)
(-8.49912e-06 -9.32687e-05 0.101923)
(-5.14275e-06 -9.67403e-05 0.109171)
(2.07976e-05 -2.22689e-05 0.0951348)
(-1.03175e-05 -2.39286e-05 0.0889132)
(-2.25872e-05 -1.10871e-05 0.0889156)
(2.18141e-05 2.09697e-05 0.106838)
(6.66978e-06 -2.57166e-05 0.0889056)
(-2.74917e-05 7.41115e-06 0.0889072)
(-8.32611e-06 1.25248e-05 0.093214)
(1.41506e-05 1.60121e-05 0.082987)
(-9.07061e-06 3.39886e-05 0.093224)
(-3.83033e-06 -3.46893e-06 0.0830085)
(-1.11663e-05 4.48956e-06 0.071811)
(1.08942e-06 2.86066e-06 0.0718393)
(8.68308e-06 1.74891e-05 0.0932227)
(8.9739e-06 2.77613e-05 0.0829853)
(3.1511e-05 2.53546e-06 0.0932394)
(-9.26259e-06 8.1794e-06 0.0830031)
(-5.81507e-05 6.20101e-05 0.109779)
(7.06756e-05 -6.95453e-05 0.109792)
(-6.00397e-05 -5.88262e-05 0.109789)
(6.12704e-05 8.06565e-05 0.110013)
(-9.30182e-05 9.96558e-05 0.110014)
(4.42726e-05 -3.63587e-05 0.110017)
(-6.4677e-05 -4.38772e-05 0.110016)
(-3.91089e-05 2.63623e-05 0.101673)
(-6.61873e-06 3.87806e-05 0.094951)
(-9.75318e-05 2.41519e-05 0.109335)
(-0.000106083 0.000119498 0.10851)
(-7.57544e-05 1.07451e-05 0.101642)
(1.83639e-05 1.0385e-05 0.0949645)
(-0.000102332 4.45688e-05 0.109397)
(3.20745e-05 4.65038e-05 0.0717501)
(1.03429e-05 5.47975e-05 0.071732)
(9.9005e-06 -3.84857e-05 0.101677)
(3.22518e-05 -0.000101381 0.10935)