/*--------------------------------*- C++ -*----------------------------------*\
| =========                 |                                                 |
| \\      /  F ield         | OpenFOAM: The Open Source CFD Toolbox           |
|  \\    /   O peration     | Version:                                        |
|   \\  /    A nd           | Website:  www.openfoam.com                      |
|    \\/     M anipulation  |                                                 |
\*---------------------------------------------------------------------------*/
FoamFile
{
    version     2.0;
    format      ascii;
    class       volScalarField;
    location    "35100.5";
    object      p;
}
// * * * * * * * * * * * * * * * * * * * * * * * * * * * * * * * * * * * * * //

dimensions      [0 2 -2 0 0 0 0];


internalField   nonuniform List<scalar> 
247096
(
1.08669e-07
1.08671e-07
1.08815e-07
1.08901e-07
1.08934e-07
1.08892e-07
1.08802e-07
1.08647e-07
1.08671e-07
1.0887e-07
1.09047e-07
1.0914e-07
1.09163e-07
1.09132e-07
1.09028e-07
1.08846e-07
1.08815e-07
1.09047e-07
1.09187e-07
1.09229e-07
1.09235e-07
1.09227e-07
1.09177e-07
1.09019e-07
1.08788e-07
1.08901e-07
1.0914e-07
1.09229e-07
1.09241e-07
1.09239e-07
1.09241e-07
1.09224e-07
1.09118e-07
1.08868e-07
1.08669e-07
1.08934e-07
1.09163e-07
1.09235e-07
1.09239e-07
1.09236e-07
1.0924e-07
1.09232e-07
1.09143e-07
1.08899e-07
1.08892e-07
1.09132e-07
1.09227e-07
1.09241e-07
1.0924e-07
1.09241e-07
1.09221e-07
1.0911e-07
1.0886e-07
1.08802e-07
1.09028e-07
1.09177e-07
1.09224e-07
1.09232e-07
1.09221e-07
1.09165e-07
1.09001e-07
1.08775e-07
1.08647e-07
1.08846e-07
1.09019e-07
1.09118e-07
1.09143e-07
1.0911e-07
1.09001e-07
1.08823e-07
1.08788e-07
1.08868e-07
1.08899e-07
1.0886e-07
1.08775e-07
1.05856e-07
1.05831e-07
1.0584e-07
1.05691e-07
1.05703e-07
1.05722e-07
1.05702e-07
1.05889e-07
1.05826e-07
1.0584e-07
1.05711e-07
1.05507e-07
1.05525e-07
1.05525e-07
1.05507e-07
1.05768e-07
1.05714e-07
1.05691e-07
1.05507e-07
1.05545e-07
1.05566e-07
1.05566e-07
1.05545e-07
1.05507e-07
1.05831e-07
1.05878e-07
1.05855e-07
1.05703e-07
1.05525e-07
1.05566e-07
1.05589e-07
1.05589e-07
1.05566e-07
1.05525e-07
1.05859e-07
1.05895e-07
1.05831e-07
1.05722e-07
1.05525e-07
1.05566e-07
1.05589e-07
1.05589e-07
1.05566e-07
1.05525e-07
1.05862e-07
1.05719e-07
1.05702e-07
1.05507e-07
1.05545e-07
1.05566e-07
1.05566e-07
1.05545e-07
1.05507e-07
1.05855e-07
1.05904e-07
1.05889e-07
1.05768e-07
1.05507e-07
1.05525e-07
1.05525e-07
1.05507e-07
1.0585e-07
1.05773e-07
1.05887e-07
1.05826e-07
1.05714e-07
1.05831e-07
1.05859e-07
1.05862e-07
1.05855e-07
1.05773e-07
1.05898e-07
1.05877e-07
1.05895e-07
1.05719e-07
1.05904e-07
1.05887e-07
1.04078e-07
1.04069e-07
1.04078e-07
1.03947e-07
1.03947e-07
1.03957e-07
1.03949e-07
1.04112e-07
1.04069e-07
1.04078e-07
1.03942e-07
1.03708e-07
1.03716e-07
1.03716e-07
1.03708e-07
1.03965e-07
1.03959e-07
1.03947e-07
1.03708e-07
1.03728e-07
1.03739e-07
1.03739e-07
1.03728e-07
1.03708e-07
1.0401e-07
1.04102e-07
1.04078e-07
1.03947e-07
1.03716e-07
1.03739e-07
1.03753e-07
1.03753e-07
1.03739e-07
1.03716e-07
1.04014e-07
1.04099e-07
1.04069e-07
1.03957e-07
1.03716e-07
1.03739e-07
1.03753e-07
1.03753e-07
1.03739e-07
1.03716e-07
1.04013e-07
1.03966e-07
1.03949e-07
1.03708e-07
1.03728e-07
1.03739e-07
1.03739e-07
1.03728e-07
1.03708e-07
1.04017e-07
1.04107e-07
1.04112e-07
1.03965e-07
1.03708e-07
1.03716e-07
1.03716e-07
1.03708e-07
1.03998e-07
1.03988e-07
1.04112e-07
1.04069e-07
1.03959e-07
1.0401e-07
1.04014e-07
1.04013e-07
1.04017e-07
1.03988e-07
1.04115e-07
1.04102e-07
1.04099e-07
1.03966e-07
1.04107e-07
1.04112e-07
1.02477e-07
1.02469e-07
1.02477e-07
1.02354e-07
1.02352e-07
1.02361e-07
1.02355e-07
1.02508e-07
1.02471e-07
1.02477e-07
1.02349e-07
1.02141e-07
1.02147e-07
1.02147e-07
1.02141e-07
1.02373e-07
1.02367e-07
1.02354e-07
1.02141e-07
1.02153e-07
1.02159e-07
1.02159e-07
1.02153e-07
1.02141e-07
1.02414e-07
1.02501e-07
1.02477e-07
1.02352e-07
1.02147e-07
1.02159e-07
1.02166e-07
1.02166e-07
1.02159e-07
1.02147e-07
1.02418e-07
1.02499e-07
1.02469e-07
1.02361e-07
1.02147e-07
1.02159e-07
1.02166e-07
1.02166e-07
1.02159e-07
1.02147e-07
1.02417e-07
1.02373e-07
1.02355e-07
1.02141e-07
1.02153e-07
1.02159e-07
1.02159e-07
1.02153e-07
1.02141e-07
1.0242e-07
1.02506e-07
1.02508e-07
1.02373e-07
1.02141e-07
1.02147e-07
1.02147e-07
1.02141e-07
1.02402e-07
1.02393e-07
1.02509e-07
1.02471e-07
1.02367e-07
1.02414e-07
1.02418e-07
1.02417e-07
1.0242e-07
1.02393e-07
1.02513e-07
1.02501e-07
1.02499e-07
1.02372e-07
1.02506e-07
1.02509e-07
1.01016e-07
1.01007e-07
1.01016e-07
1.00898e-07
1.00896e-07
1.00903e-07
1.00898e-07
1.01043e-07
1.0101e-07
1.01016e-07
1.00893e-07
1.00702e-07
1.00705e-07
1.00705e-07
1.00702e-07
1.00916e-07
1.00912e-07
1.00898e-07
1.00702e-07
1.0071e-07
1.00713e-07
1.00713e-07
1.0071e-07
1.00702e-07
1.00955e-07
1.01039e-07
1.01016e-07
1.00896e-07
1.00705e-07
1.00713e-07
1.00717e-07
1.00717e-07
1.00713e-07
1.00705e-07
1.00957e-07
1.01037e-07
1.01007e-07
1.00903e-07
1.00705e-07
1.00713e-07
1.00717e-07
1.00717e-07
1.00713e-07
1.00705e-07
1.00956e-07
1.00916e-07
1.00898e-07
1.00702e-07
1.0071e-07
1.00713e-07
1.00713e-07
1.0071e-07
1.00702e-07
1.00959e-07
1.01043e-07
1.01043e-07
1.00916e-07
1.00702e-07
1.00705e-07
1.00705e-07
1.00702e-07
1.00943e-07
1.00936e-07
1.01045e-07
1.0101e-07
1.00912e-07
1.00955e-07
1.00957e-07
1.00956e-07
1.00959e-07
1.00936e-07
1.0105e-07
1.01039e-07
1.01037e-07
1.00916e-07
1.01043e-07
1.01045e-07
9.96504e-08
9.96417e-08
9.96497e-08
9.95367e-08
9.95341e-08
9.95402e-08
9.95362e-08
9.96754e-08
9.9645e-08
9.96497e-08
9.95319e-08
9.93519e-08
9.9354e-08
9.9354e-08
9.93518e-08
9.95546e-08
9.9551e-08
9.95367e-08
9.93519e-08
9.93571e-08
9.93588e-08
9.93588e-08
9.93571e-08
9.93518e-08
9.95922e-08
9.96727e-08
9.96504e-08
9.95341e-08
9.9354e-08
9.93588e-08
9.93613e-08
9.93613e-08
9.93588e-08
9.9354e-08
9.95935e-08
9.96707e-08
9.96417e-08
9.95402e-08
9.9354e-08
9.93588e-08
9.93613e-08
9.93613e-08
9.93588e-08
9.9354e-08
9.95919e-08
9.95552e-08
9.95362e-08
9.93519e-08
9.93571e-08
9.93588e-08
9.93588e-08
9.93571e-08
9.93519e-08
9.9595e-08
9.9676e-08
9.96754e-08
9.95546e-08
9.93519e-08
9.9354e-08
9.9354e-08
9.93519e-08
9.95797e-08
9.95735e-08
9.96776e-08
9.9645e-08
9.9551e-08
9.95922e-08
9.95935e-08
9.95919e-08
9.9595e-08
9.95735e-08
9.9683e-08
9.96727e-08
9.96707e-08
9.95553e-08
9.9676e-08
9.96777e-08
9.83523e-08
9.83438e-08
9.83515e-08
9.82421e-08
9.82392e-08
9.82446e-08
9.82411e-08
9.83757e-08
9.83473e-08
9.83515e-08
9.8237e-08
9.8065e-08
9.80667e-08
9.80667e-08
9.8065e-08
9.82593e-08
9.82564e-08
9.82421e-08
9.8065e-08
9.80689e-08
9.80699e-08
9.80699e-08
9.80689e-08
9.8065e-08
9.82961e-08
9.83741e-08
9.83523e-08
9.82392e-08
9.80667e-08
9.80699e-08
9.80716e-08
9.80716e-08
9.80699e-08
9.80667e-08
9.82968e-08
9.83722e-08
9.83438e-08
9.82446e-08
9.80667e-08
9.80699e-08
9.80716e-08
9.80716e-08
9.80699e-08
9.80667e-08
9.82951e-08
9.82604e-08
9.82411e-08
9.8065e-08
9.80689e-08
9.80699e-08
9.80699e-08
9.80689e-08
9.8065e-08
9.82982e-08
9.83771e-08
9.83757e-08
9.82593e-08
9.8065e-08
9.80667e-08
9.80667e-08
9.8065e-08
9.82833e-08
9.82778e-08
9.83782e-08
9.83473e-08
9.82564e-08
9.82961e-08
9.82968e-08
9.82951e-08
9.82982e-08
9.82778e-08
9.83838e-08
9.83741e-08
9.83722e-08
9.82604e-08
9.83771e-08
9.83782e-08
9.7106e-08
9.70976e-08
9.7105e-08
9.69985e-08
9.69953e-08
9.70002e-08
9.69971e-08
9.71281e-08
9.71012e-08
9.7105e-08
9.69929e-08
9.68276e-08
9.68288e-08
9.68288e-08
9.68276e-08
9.70149e-08
9.70126e-08
9.69985e-08
9.68276e-08
9.68307e-08
9.68313e-08
9.68313e-08
9.68307e-08
9.68276e-08
9.70511e-08
9.71274e-08
9.7106e-08
9.69953e-08
9.68288e-08
9.68313e-08
9.68325e-08
9.68325e-08
9.68313e-08
9.68288e-08
9.70516e-08
9.71255e-08
9.70976e-08
9.70002e-08
9.68288e-08
9.68313e-08
9.68325e-08
9.68325e-08
9.68313e-08
9.68288e-08
9.70498e-08
9.70165e-08
9.69971e-08
9.68276e-08
9.68307e-08
9.68313e-08
9.68313e-08
9.68307e-08
9.68276e-08
9.70526e-08
9.71301e-08
9.71281e-08
9.70149e-08
9.68276e-08
9.68288e-08
9.68288e-08
9.68276e-08
9.70381e-08
9.70331e-08
9.71309e-08
9.71012e-08
9.70126e-08
9.70511e-08
9.70516e-08
9.70498e-08
9.70526e-08
9.70331e-08
9.71366e-08
9.71274e-08
9.71255e-08
9.70165e-08
9.71301e-08
9.71309e-08
9.5903e-08
9.58948e-08
9.59019e-08
9.57977e-08
9.57942e-08
9.57986e-08
9.57959e-08
9.59243e-08
9.58986e-08
9.59019e-08
9.57918e-08
9.56322e-08
9.56331e-08
9.56331e-08
9.56322e-08
9.58135e-08
9.58118e-08
9.57977e-08
9.56322e-08
9.56349e-08
9.56352e-08
9.56352e-08
9.56349e-08
9.56322e-08
9.58496e-08
9.59242e-08
9.5903e-08
9.57942e-08
9.56331e-08
9.56352e-08
9.56359e-08
9.56359e-08
9.56352e-08
9.56331e-08
9.58496e-08
9.59223e-08
9.58948e-08
9.57986e-08
9.56331e-08
9.56352e-08
9.56359e-08
9.56359e-08
9.56352e-08
9.56331e-08
9.58478e-08
9.58155e-08
9.57959e-08
9.56322e-08
9.56349e-08
9.56352e-08
9.56352e-08
9.56349e-08
9.56322e-08
9.58503e-08
9.59266e-08
9.59243e-08
9.58135e-08
9.56322e-08
9.56331e-08
9.56331e-08
9.56322e-08
9.58363e-08
9.58314e-08
9.59272e-08
9.58986e-08
9.58118e-08
9.58496e-08
9.58496e-08
9.58478e-08
9.58503e-08
9.58314e-08
9.59332e-08
9.59242e-08
9.59223e-08
9.58155e-08
9.59266e-08
9.59272e-08
9.47358e-08
9.47275e-08
9.47346e-08
9.46322e-08
9.46284e-08
9.46324e-08
9.463e-08
9.47564e-08
9.47316e-08
9.47346e-08
9.4626e-08
9.44711e-08
9.44718e-08
9.44718e-08
9.44711e-08
9.46476e-08
9.46462e-08
9.46322e-08
9.44711e-08
9.44736e-08
9.44735e-08
9.44735e-08
9.44736e-08
9.44711e-08
9.46837e-08
9.47568e-08
9.47358e-08
9.46284e-08
9.44718e-08
9.44735e-08
9.44738e-08
9.44738e-08
9.44735e-08
9.44718e-08
9.46834e-08
9.47549e-08
9.47275e-08
9.46324e-08
9.44718e-08
9.44735e-08
9.44738e-08
9.44738e-08
9.44735e-08
9.44718e-08
9.46816e-08
9.46498e-08
9.463e-08
9.44711e-08
9.44736e-08
9.44735e-08
9.44735e-08
9.44736e-08
9.44711e-08
9.46838e-08
9.4759e-08
9.47563e-08
9.46476e-08
9.44711e-08
9.44718e-08
9.44718e-08
9.44711e-08
9.46702e-08
9.46652e-08
9.47593e-08
9.47316e-08
9.46462e-08
9.46836e-08
9.46834e-08
9.46816e-08
9.46838e-08
9.46652e-08
9.47656e-08
9.47568e-08
9.47549e-08
9.46498e-08
9.4759e-08
9.47593e-08
9.35945e-08
9.35863e-08
9.35933e-08
9.3492e-08
9.34881e-08
9.34919e-08
9.34896e-08
9.36146e-08
9.35905e-08
9.35933e-08
9.34857e-08
9.33341e-08
9.33347e-08
9.33347e-08
9.33341e-08
9.35074e-08
9.35061e-08
9.3492e-08
9.33341e-08
9.33366e-08
9.33361e-08
9.33361e-08
9.33366e-08
9.33341e-08
9.35435e-08
9.36155e-08
9.35945e-08
9.3488e-08
9.33347e-08
9.33361e-08
9.33361e-08
9.33361e-08
9.33361e-08
9.33347e-08
9.35431e-08
9.36135e-08
9.35862e-08
9.34919e-08
9.33347e-08
9.33361e-08
9.33361e-08
9.33361e-08
9.33361e-08
9.33347e-08
9.35412e-08
9.35095e-08
9.34896e-08
9.33341e-08
9.33366e-08
9.33361e-08
9.33361e-08
9.33366e-08
9.33341e-08
9.35432e-08
9.36175e-08
9.36146e-08
9.35074e-08
9.3334e-08
9.33346e-08
9.33346e-08
9.3334e-08
9.35298e-08
9.35247e-08
9.36177e-08
9.35905e-08
9.3506e-08
9.35434e-08
9.35431e-08
9.35412e-08
9.35431e-08
9.35247e-08
9.36242e-08
9.36154e-08
9.36135e-08
9.35095e-08
9.36175e-08
9.36177e-08
9.24694e-08
9.24611e-08
9.24683e-08
9.23676e-08
9.23635e-08
9.23672e-08
9.2365e-08
9.24894e-08
9.24655e-08
9.2468e-08
9.23611e-08
9.22114e-08
9.2212e-08
9.2212e-08
9.22114e-08
9.23829e-08
9.2381e-08
9.23674e-08
9.22114e-08
9.2214e-08
9.22132e-08
9.22132e-08
9.2214e-08
9.22114e-08
9.2419e-08
9.24902e-08
9.24693e-08
9.23634e-08
9.22119e-08
9.22132e-08
9.22129e-08
9.22129e-08
9.22132e-08
9.22119e-08
9.24186e-08
9.24883e-08
9.2461e-08
9.23671e-08
9.22119e-08
9.22132e-08
9.22129e-08
9.22129e-08
9.22132e-08
9.22119e-08
9.24166e-08
9.2385e-08
9.23649e-08
9.22114e-08
9.22139e-08
9.22132e-08
9.22132e-08
9.22139e-08
9.22114e-08
9.24185e-08
9.24922e-08
9.24893e-08
9.23829e-08
9.22113e-08
9.22119e-08
9.22119e-08
9.22113e-08
9.24053e-08
9.24002e-08
9.24924e-08
9.24655e-08
9.23809e-08
9.24189e-08
9.24185e-08
9.24166e-08
9.24183e-08
9.23997e-08
9.24989e-08
9.24901e-08
9.24882e-08
9.23849e-08
9.24921e-08
9.24921e-08
9.13527e-08
9.13444e-08
9.13516e-08
9.12512e-08
9.12471e-08
9.12507e-08
9.12485e-08
9.13725e-08
9.13489e-08
9.13513e-08
9.12447e-08
9.1096e-08
9.10964e-08
9.10964e-08
9.1096e-08
9.12665e-08
9.12647e-08
9.1251e-08
9.10959e-08
9.10986e-08
9.10977e-08
9.10977e-08
9.10987e-08
9.10959e-08
9.13027e-08
9.13735e-08
9.13526e-08
9.12469e-08
9.10964e-08
9.10976e-08
9.10972e-08
9.10972e-08
9.10976e-08
9.10964e-08
9.13023e-08
9.13716e-08
9.13443e-08
9.12506e-08
9.10964e-08
9.10976e-08
9.10972e-08
9.10972e-08
9.10976e-08
9.10964e-08
9.13003e-08
9.12686e-08
9.12485e-08
9.10959e-08
9.10986e-08
9.10976e-08
9.10976e-08
9.10986e-08
9.10959e-08
9.13021e-08
9.13754e-08
9.13724e-08
9.12665e-08
9.10959e-08
9.10963e-08
9.10963e-08
9.10959e-08
9.12889e-08
9.12838e-08
9.13756e-08
9.13488e-08
9.12646e-08
9.13027e-08
9.13022e-08
9.13002e-08
9.13019e-08
9.12833e-08
9.13822e-08
9.13734e-08
9.13715e-08
9.12684e-08
9.13753e-08
9.13753e-08
9.02398e-08
9.02315e-08
9.02387e-08
9.01385e-08
9.01343e-08
9.01379e-08
9.01357e-08
9.02594e-08
9.02358e-08
9.02384e-08
9.0132e-08
8.99836e-08
8.99841e-08
8.99841e-08
8.99836e-08
9.01537e-08
9.01531e-08
9.01383e-08
8.99836e-08
8.99864e-08
8.99853e-08
8.99853e-08
8.99864e-08
8.99836e-08
9.01903e-08
9.02608e-08
9.02397e-08
9.01342e-08
8.9984e-08
8.99853e-08
8.99848e-08
8.99848e-08
8.99853e-08
8.99841e-08
9.01898e-08
9.02588e-08
9.02314e-08
9.01379e-08
8.9984e-08
8.99853e-08
8.99848e-08
8.99848e-08
8.99853e-08
8.99841e-08
9.01877e-08
9.01559e-08
9.01357e-08
8.99836e-08
8.99864e-08
8.99852e-08
8.99852e-08
8.99864e-08
8.99836e-08
9.01894e-08
9.02626e-08
9.02595e-08
9.01537e-08
8.99835e-08
8.9984e-08
8.9984e-08
8.99835e-08
9.01762e-08
9.0171e-08
9.02627e-08
9.0236e-08
9.01519e-08
9.019e-08
9.01896e-08
9.01876e-08
9.01892e-08
9.01706e-08
9.02694e-08
9.02605e-08
9.02586e-08
9.01557e-08
9.02624e-08
9.02624e-08
8.91285e-08
8.91202e-08
8.91274e-08
8.90272e-08
8.90231e-08
8.90267e-08
8.90245e-08
8.91483e-08
8.91247e-08
8.91271e-08
8.90207e-08
8.88725e-08
8.8873e-08
8.8873e-08
8.88725e-08
8.90426e-08
8.90407e-08
8.9027e-08
8.88725e-08
8.88754e-08
8.88742e-08
8.88742e-08
8.88754e-08
8.88725e-08
8.90789e-08
8.91493e-08
8.91284e-08
8.90229e-08
8.88729e-08
8.88742e-08
8.88736e-08
8.88736e-08
8.88742e-08
8.88729e-08
8.90785e-08
8.91475e-08
8.91201e-08
8.90266e-08
8.88729e-08
8.88742e-08
8.88736e-08
8.88736e-08
8.88742e-08
8.88729e-08
8.90765e-08
8.90446e-08
8.90244e-08
8.88725e-08
8.88754e-08
8.88741e-08
8.88741e-08
8.88754e-08
8.88725e-08
8.90782e-08
8.91513e-08
8.91482e-08
8.90425e-08
8.88724e-08
8.88729e-08
8.88729e-08
8.88724e-08
8.90649e-08
8.90598e-08
8.91514e-08
8.91246e-08
8.90406e-08
8.90788e-08
8.90784e-08
8.90763e-08
8.9078e-08
8.90593e-08
8.9158e-08
8.91492e-08
8.91473e-08
8.90445e-08
8.91511e-08
8.91511e-08
8.80178e-08
8.80095e-08
8.80166e-08
8.79165e-08
8.79123e-08
8.79159e-08
8.79138e-08
8.80376e-08
8.8014e-08
8.80163e-08
8.791e-08
8.77619e-08
8.77623e-08
8.77623e-08
8.77619e-08
8.79319e-08
8.793e-08
8.79163e-08
8.77618e-08
8.77647e-08
8.77635e-08
8.77635e-08
8.77647e-08
8.77618e-08
8.79682e-08
8.80386e-08
8.80176e-08
8.79122e-08
8.77622e-08
8.77635e-08
8.77629e-08
8.77629e-08
8.77635e-08
8.77623e-08
8.79678e-08
8.80367e-08
8.80094e-08
8.79158e-08
8.77622e-08
8.77635e-08
8.77629e-08
8.77629e-08
8.77635e-08
8.77623e-08
8.79657e-08
8.79339e-08
8.79137e-08
8.77618e-08
8.77646e-08
8.77635e-08
8.77635e-08
8.77646e-08
8.77619e-08
8.79674e-08
8.80405e-08
8.80375e-08
8.79318e-08
8.77618e-08
8.77622e-08
8.77622e-08
8.77618e-08
8.79542e-08
8.7949e-08
8.80406e-08
8.80139e-08
8.79299e-08
8.79681e-08
8.79677e-08
8.79657e-08
8.79673e-08
8.79486e-08
8.80473e-08
8.80385e-08
8.80366e-08
8.79338e-08
8.80404e-08
8.80404e-08
8.69072e-08
8.68989e-08
8.69061e-08
8.68059e-08
8.68018e-08
8.68053e-08
8.68031e-08
8.69268e-08
8.69033e-08
8.69058e-08
8.67994e-08
8.66513e-08
8.66517e-08
8.66517e-08
8.66513e-08
8.68212e-08
8.68205e-08
8.68057e-08
8.66513e-08
8.66541e-08
8.6653e-08
8.6653e-08
8.66541e-08
8.66514e-08
8.68579e-08
8.69282e-08
8.69071e-08
8.68016e-08
8.66517e-08
8.6653e-08
8.66524e-08
8.66524e-08
8.6653e-08
8.66518e-08
8.68573e-08
8.69262e-08
8.68988e-08
8.68052e-08
8.66517e-08
8.6653e-08
8.66524e-08
8.66524e-08
8.6653e-08
8.66517e-08
8.68552e-08
8.68234e-08
8.68031e-08
8.66513e-08
8.66541e-08
8.6653e-08
8.6653e-08
8.66541e-08
8.66513e-08
8.68568e-08
8.69299e-08
8.69267e-08
8.68211e-08
8.66513e-08
8.66517e-08
8.66517e-08
8.66514e-08
8.68437e-08
8.68381e-08
8.69299e-08
8.69032e-08
8.68205e-08
8.68578e-08
8.68573e-08
8.68552e-08
8.68569e-08
8.68385e-08
8.69368e-08
8.69282e-08
8.69262e-08
8.68234e-08
8.693e-08
8.69301e-08
8.57967e-08
8.57884e-08
8.57956e-08
8.56955e-08
8.56913e-08
8.56949e-08
8.56927e-08
8.58163e-08
8.57928e-08
8.57953e-08
8.56889e-08
8.55409e-08
8.55413e-08
8.55413e-08
8.55409e-08
8.57107e-08
8.57101e-08
8.56953e-08
8.55408e-08
8.55436e-08
8.55426e-08
8.55426e-08
8.55437e-08
8.55409e-08
8.57474e-08
8.58177e-08
8.57966e-08
8.56912e-08
8.55412e-08
8.55425e-08
8.55419e-08
8.55419e-08
8.55426e-08
8.55413e-08
8.57468e-08
8.58158e-08
8.57883e-08
8.56948e-08
8.55412e-08
8.55425e-08
8.55419e-08
8.55419e-08
8.55426e-08
8.55413e-08
8.57448e-08
8.5713e-08
8.56926e-08
8.55408e-08
8.55436e-08
8.55425e-08
8.55425e-08
8.55437e-08
8.55409e-08
8.57465e-08
8.58196e-08
8.58162e-08
8.57106e-08
8.55409e-08
8.55413e-08
8.55412e-08
8.55409e-08
8.57332e-08
8.57281e-08
8.58196e-08
8.57927e-08
8.571e-08
8.57474e-08
8.57468e-08
8.57447e-08
8.57463e-08
8.57276e-08
8.58263e-08
8.58177e-08
8.58157e-08
8.57129e-08
8.58194e-08
8.58194e-08
8.46863e-08
8.4678e-08
8.46851e-08
8.4585e-08
8.45808e-08
8.45844e-08
8.45822e-08
8.47058e-08
8.46823e-08
8.46849e-08
8.45785e-08
8.44304e-08
8.44308e-08
8.44308e-08
8.44304e-08
8.46003e-08
8.45996e-08
8.45848e-08
8.44304e-08
8.44332e-08
8.44321e-08
8.44321e-08
8.44332e-08
8.44305e-08
8.4637e-08
8.47073e-08
8.46862e-08
8.45807e-08
8.44308e-08
8.44321e-08
8.44315e-08
8.44315e-08
8.44321e-08
8.44309e-08
8.46364e-08
8.47053e-08
8.46779e-08
8.45844e-08
8.44308e-08
8.44321e-08
8.44315e-08
8.44315e-08
8.44321e-08
8.44309e-08
8.46343e-08
8.46025e-08
8.45823e-08
8.44304e-08
8.44332e-08
8.44321e-08
8.44321e-08
8.44332e-08
8.44305e-08
8.4636e-08
8.47091e-08
8.4706e-08
8.46003e-08
8.44304e-08
8.44308e-08
8.44308e-08
8.44304e-08
8.46228e-08
8.46176e-08
8.47092e-08
8.46824e-08
8.45985e-08
8.46367e-08
8.46362e-08
8.46342e-08
8.46358e-08
8.46172e-08
8.47159e-08
8.47071e-08
8.47052e-08
8.46023e-08
8.47089e-08
8.47089e-08
8.35759e-08
8.35676e-08
8.35747e-08
8.34746e-08
8.34704e-08
8.3474e-08
8.34719e-08
8.35956e-08
8.35721e-08
8.35744e-08
8.34681e-08
8.332e-08
8.33204e-08
8.33204e-08
8.332e-08
8.349e-08
8.34881e-08
8.34744e-08
8.332e-08
8.33228e-08
8.33217e-08
8.33217e-08
8.33228e-08
8.332e-08
8.35263e-08
8.35967e-08
8.35758e-08
8.34703e-08
8.33204e-08
8.33217e-08
8.3321e-08
8.3321e-08
8.33217e-08
8.33204e-08
8.35259e-08
8.35948e-08
8.35675e-08
8.34739e-08
8.33204e-08
8.33216e-08
8.3321e-08
8.3321e-08
8.33217e-08
8.33204e-08
8.35239e-08
8.3492e-08
8.34718e-08
8.332e-08
8.33227e-08
8.33216e-08
8.33216e-08
8.33228e-08
8.332e-08
8.35255e-08
8.35986e-08
8.35956e-08
8.34899e-08
8.33199e-08
8.33203e-08
8.33203e-08
8.33199e-08
8.35123e-08
8.35072e-08
8.35987e-08
8.3572e-08
8.3488e-08
8.35262e-08
8.35258e-08
8.35237e-08
8.35254e-08
8.35067e-08
8.36054e-08
8.35966e-08
8.35947e-08
8.34919e-08
8.35985e-08
8.35985e-08
8.24654e-08
8.24571e-08
8.24643e-08
8.23642e-08
8.236e-08
8.23635e-08
8.23613e-08
8.2485e-08
8.24615e-08
8.2464e-08
8.23576e-08
8.22096e-08
8.221e-08
8.221e-08
8.22095e-08
8.23794e-08
8.23787e-08
8.2364e-08
8.22095e-08
8.22123e-08
8.22112e-08
8.22112e-08
8.22124e-08
8.22096e-08
8.24161e-08
8.24864e-08
8.24653e-08
8.23599e-08
8.22099e-08
8.22112e-08
8.22106e-08
8.22106e-08
8.22112e-08
8.221e-08
8.24155e-08
8.24845e-08
8.2457e-08
8.23635e-08
8.22099e-08
8.22112e-08
8.22106e-08
8.22106e-08
8.22112e-08
8.221e-08
8.24135e-08
8.23816e-08
8.23614e-08
8.22095e-08
8.22123e-08
8.22112e-08
8.22112e-08
8.22123e-08
8.22096e-08
8.24151e-08
8.24882e-08
8.24851e-08
8.23794e-08
8.22095e-08
8.22099e-08
8.22099e-08
8.22095e-08
8.24019e-08
8.23967e-08
8.24883e-08
8.24616e-08
8.23776e-08
8.24158e-08
8.24153e-08
8.24133e-08
8.24149e-08
8.23963e-08
8.2495e-08
8.24862e-08
8.24843e-08
8.23814e-08
8.2488e-08
8.2488e-08
8.1355e-08
8.13466e-08
8.13538e-08
8.12537e-08
8.12495e-08
8.12531e-08
8.12509e-08
8.13745e-08
8.1351e-08
8.13536e-08
8.12472e-08
8.10991e-08
8.10995e-08
8.10995e-08
8.10991e-08
8.12689e-08
8.12683e-08
8.12535e-08
8.10991e-08
8.11019e-08
8.11008e-08
8.11008e-08
8.11019e-08
8.10992e-08
8.13057e-08
8.1376e-08
8.13549e-08
8.12494e-08
8.10995e-08
8.11008e-08
8.11001e-08
8.11002e-08
8.11008e-08
8.10996e-08
8.13051e-08
8.1374e-08
8.13466e-08
8.12531e-08
8.10995e-08
8.11008e-08
8.11001e-08
8.11001e-08
8.11008e-08
8.10995e-08
8.1303e-08
8.12712e-08
8.1251e-08
8.10991e-08
8.11019e-08
8.11008e-08
8.11008e-08
8.11019e-08
8.10991e-08
8.13047e-08
8.13778e-08
8.13747e-08
8.1269e-08
8.1099e-08
8.10995e-08
8.10995e-08
8.10991e-08
8.12915e-08
8.12863e-08
8.13779e-08
8.13511e-08
8.12672e-08
8.13054e-08
8.13049e-08
8.13029e-08
8.13045e-08
8.12858e-08
8.13845e-08
8.13757e-08
8.13738e-08
8.1271e-08
8.13776e-08
8.13776e-08
8.02445e-08
8.02362e-08
8.02434e-08
8.01433e-08
8.01391e-08
8.01426e-08
8.01404e-08
8.02641e-08
8.02406e-08
8.02431e-08
8.01368e-08
7.99887e-08
7.99891e-08
7.99891e-08
7.99887e-08
8.01585e-08
8.01579e-08
8.01431e-08
7.99887e-08
7.99915e-08
7.99904e-08
7.99904e-08
7.99915e-08
7.99887e-08
8.01952e-08
8.02656e-08
8.02444e-08
8.0139e-08
7.99891e-08
7.99903e-08
7.99897e-08
7.99897e-08
7.99904e-08
7.99891e-08
8.01947e-08
8.02636e-08
8.02362e-08
8.01427e-08
7.99891e-08
7.99903e-08
7.99897e-08
7.99897e-08
7.99904e-08
7.99891e-08
8.01926e-08
8.01608e-08
8.01405e-08
7.99887e-08
7.99914e-08
7.99903e-08
7.99903e-08
7.99915e-08
7.99887e-08
8.01943e-08
8.02674e-08
8.02643e-08
8.01586e-08
7.99886e-08
7.9989e-08
7.9989e-08
7.99886e-08
8.0181e-08
8.01759e-08
8.02674e-08
8.02407e-08
8.01567e-08
8.01949e-08
8.01945e-08
8.01924e-08
8.01941e-08
8.01754e-08
8.02741e-08
8.02653e-08
8.02634e-08
8.01606e-08
8.02672e-08
8.02672e-08
7.9134e-08
7.91257e-08
7.91327e-08
7.90327e-08
7.90286e-08
7.90322e-08
7.903e-08
7.91536e-08
7.91301e-08
7.91329e-08
7.90263e-08
7.88782e-08
7.88786e-08
7.88786e-08
7.88782e-08
7.90481e-08
7.90474e-08
7.90328e-08
7.88782e-08
7.8881e-08
7.88799e-08
7.88799e-08
7.8881e-08
7.88783e-08
7.90848e-08
7.91551e-08
7.91341e-08
7.90286e-08
7.88786e-08
7.88799e-08
7.88793e-08
7.88793e-08
7.88799e-08
7.88787e-08
7.90842e-08
7.91532e-08
7.91258e-08
7.90322e-08
7.88786e-08
7.88799e-08
7.88793e-08
7.88793e-08
7.88799e-08
7.88787e-08
7.90822e-08
7.90503e-08
7.90301e-08
7.88782e-08
7.8881e-08
7.88799e-08
7.88799e-08
7.8881e-08
7.88783e-08
7.90838e-08
7.91569e-08
7.91538e-08
7.90482e-08
7.88782e-08
7.88786e-08
7.88786e-08
7.88782e-08
7.90706e-08
7.90654e-08
7.9157e-08
7.91303e-08
7.90463e-08
7.90845e-08
7.90841e-08
7.9082e-08
7.90836e-08
7.9065e-08
7.91637e-08
7.91549e-08
7.9153e-08
7.90502e-08
7.91568e-08
7.91568e-08
7.80236e-08
7.80153e-08
7.80225e-08
7.79224e-08
7.79182e-08
7.79218e-08
7.79196e-08
7.80432e-08
7.80197e-08
7.80222e-08
7.79159e-08
7.77678e-08
7.77682e-08
7.77682e-08
7.77678e-08
7.79376e-08
7.7937e-08
7.79222e-08
7.77678e-08
7.77706e-08
7.77695e-08
7.77695e-08
7.77706e-08
7.77678e-08
7.79743e-08
7.80447e-08
7.80235e-08
7.79181e-08
7.77682e-08
7.77695e-08
7.77688e-08
7.77688e-08
7.77695e-08
7.77682e-08
7.79738e-08
7.80427e-08
7.80152e-08
7.79217e-08
7.77682e-08
7.77695e-08
7.77688e-08
7.77688e-08
7.77695e-08
7.77682e-08
7.79717e-08
7.79399e-08
7.79195e-08
7.77678e-08
7.77706e-08
7.77695e-08
7.77695e-08
7.77706e-08
7.77678e-08
7.79734e-08
7.80465e-08
7.80432e-08
7.79376e-08
7.77678e-08
7.77682e-08
7.77682e-08
7.77678e-08
7.79602e-08
7.7955e-08
7.80466e-08
7.80197e-08
7.7937e-08
7.79743e-08
7.79737e-08
7.79716e-08
7.79732e-08
7.79546e-08
7.80533e-08
7.80446e-08
7.80427e-08
7.79398e-08
7.80464e-08
7.80464e-08
7.69132e-08
7.69049e-08
7.69121e-08
7.6812e-08
7.68078e-08
7.68113e-08
7.68091e-08
7.69328e-08
7.69092e-08
7.69118e-08
7.68054e-08
7.66574e-08
7.66578e-08
7.66578e-08
7.66573e-08
7.68272e-08
7.68265e-08
7.68118e-08
7.66573e-08
7.66601e-08
7.6659e-08
7.6659e-08
7.66601e-08
7.66574e-08
7.68639e-08
7.69342e-08
7.69131e-08
7.68076e-08
7.66577e-08
7.6659e-08
7.66584e-08
7.66584e-08
7.6659e-08
7.66578e-08
7.68633e-08
7.69322e-08
7.69048e-08
7.68113e-08
7.66577e-08
7.6659e-08
7.66584e-08
7.66584e-08
7.6659e-08
7.66577e-08
7.68612e-08
7.68294e-08
7.68091e-08
7.66573e-08
7.66601e-08
7.6659e-08
7.6659e-08
7.66601e-08
7.66573e-08
7.68628e-08
7.69359e-08
7.69327e-08
7.68271e-08
7.66574e-08
7.66578e-08
7.66578e-08
7.66574e-08
7.68497e-08
7.68441e-08
7.69359e-08
7.69092e-08
7.68265e-08
7.68639e-08
7.68633e-08
7.68613e-08
7.68629e-08
7.68446e-08
7.69428e-08
7.69342e-08
7.69322e-08
7.68294e-08
7.6936e-08
7.69361e-08
7.58028e-08
7.57945e-08
7.58016e-08
7.57015e-08
7.56974e-08
7.5701e-08
7.56988e-08
7.58225e-08
7.5799e-08
7.58014e-08
7.5695e-08
7.55469e-08
7.55473e-08
7.55473e-08
7.55469e-08
7.57169e-08
7.5715e-08
7.57013e-08
7.55469e-08
7.55497e-08
7.55486e-08
7.55486e-08
7.55497e-08
7.55469e-08
7.57532e-08
7.58236e-08
7.58027e-08
7.56972e-08
7.55473e-08
7.55486e-08
7.55479e-08
7.55479e-08
7.55486e-08
7.55473e-08
7.57527e-08
7.58217e-08
7.57944e-08
7.57009e-08
7.55473e-08
7.55486e-08
7.55479e-08
7.55479e-08
7.55486e-08
7.55473e-08
7.57507e-08
7.57189e-08
7.56988e-08
7.55469e-08
7.55497e-08
7.55486e-08
7.55486e-08
7.55497e-08
7.55469e-08
7.57523e-08
7.58254e-08
7.58225e-08
7.57168e-08
7.55469e-08
7.55473e-08
7.55473e-08
7.55469e-08
7.57393e-08
7.57336e-08
7.58254e-08
7.57989e-08
7.5715e-08
7.57532e-08
7.57528e-08
7.57508e-08
7.57524e-08
7.57341e-08
7.58323e-08
7.58236e-08
7.58217e-08
7.57189e-08
7.58255e-08
7.58256e-08
7.46923e-08
7.4684e-08
7.46912e-08
7.45911e-08
7.45869e-08
7.45905e-08
7.45884e-08
7.47121e-08
7.46885e-08
7.46909e-08
7.45845e-08
7.44365e-08
7.44369e-08
7.44369e-08
7.44365e-08
7.46064e-08
7.46046e-08
7.45909e-08
7.44364e-08
7.44392e-08
7.44382e-08
7.44382e-08
7.44393e-08
7.44365e-08
7.46428e-08
7.47131e-08
7.46922e-08
7.45868e-08
7.44368e-08
7.44381e-08
7.44375e-08
7.44375e-08
7.44381e-08
7.44369e-08
7.46423e-08
7.47113e-08
7.46839e-08
7.45904e-08
7.44368e-08
7.44381e-08
7.44375e-08
7.44375e-08
7.44381e-08
7.44369e-08
7.46403e-08
7.46085e-08
7.45883e-08
7.44365e-08
7.44392e-08
7.44381e-08
7.44381e-08
7.44392e-08
7.44365e-08
7.4642e-08
7.47151e-08
7.4712e-08
7.46064e-08
7.44364e-08
7.44368e-08
7.44368e-08
7.44364e-08
7.46288e-08
7.46236e-08
7.47152e-08
7.46885e-08
7.46045e-08
7.46427e-08
7.46423e-08
7.46402e-08
7.46419e-08
7.46232e-08
7.47219e-08
7.47131e-08
7.47112e-08
7.46084e-08
7.4715e-08
7.4715e-08
7.35818e-08
7.35735e-08
7.35807e-08
7.34806e-08
7.34764e-08
7.348e-08
7.34778e-08
7.36014e-08
7.35779e-08
7.35805e-08
7.34741e-08
7.3326e-08
7.33264e-08
7.33264e-08
7.3326e-08
7.34958e-08
7.34952e-08
7.34804e-08
7.3326e-08
7.33288e-08
7.33277e-08
7.33277e-08
7.33288e-08
7.3326e-08
7.35325e-08
7.36029e-08
7.35818e-08
7.34764e-08
7.33264e-08
7.33277e-08
7.33271e-08
7.33271e-08
7.33277e-08
7.33264e-08
7.3532e-08
7.36009e-08
7.35735e-08
7.348e-08
7.33264e-08
7.33277e-08
7.33271e-08
7.33271e-08
7.33277e-08
7.33264e-08
7.35299e-08
7.34981e-08
7.34779e-08
7.3326e-08
7.33288e-08
7.33277e-08
7.33277e-08
7.33288e-08
7.3326e-08
7.35316e-08
7.36047e-08
7.36016e-08
7.34959e-08
7.3326e-08
7.33264e-08
7.33264e-08
7.3326e-08
7.35184e-08
7.35132e-08
7.36047e-08
7.35781e-08
7.34941e-08
7.35323e-08
7.35319e-08
7.35298e-08
7.35314e-08
7.35128e-08
7.36115e-08
7.36027e-08
7.36008e-08
7.3498e-08
7.36045e-08
7.36045e-08
7.24713e-08
7.2463e-08
7.247e-08
7.237e-08
7.23659e-08
7.23695e-08
7.23673e-08
7.24909e-08
7.24674e-08
7.24703e-08
7.23637e-08
7.22155e-08
7.22159e-08
7.22159e-08
7.22155e-08
7.23854e-08
7.23847e-08
7.23702e-08
7.22156e-08
7.22184e-08
7.22172e-08
7.22172e-08
7.22184e-08
7.22156e-08
7.24221e-08
7.24924e-08
7.24714e-08
7.2366e-08
7.2216e-08
7.22173e-08
7.22166e-08
7.22166e-08
7.22173e-08
7.2216e-08
7.24215e-08
7.24905e-08
7.24631e-08
7.23695e-08
7.2216e-08
7.22173e-08
7.22166e-08
7.22166e-08
7.22173e-08
7.2216e-08
7.24194e-08
7.23876e-08
7.23674e-08
7.22156e-08
7.22184e-08
7.22173e-08
7.22173e-08
7.22184e-08
7.22156e-08
7.2421e-08
7.24942e-08
7.2491e-08
7.23854e-08
7.22156e-08
7.2216e-08
7.2216e-08
7.22156e-08
7.2408e-08
7.24023e-08
7.24941e-08
7.24675e-08
7.23848e-08
7.24221e-08
7.24215e-08
7.24195e-08
7.24212e-08
7.24028e-08
7.2501e-08
7.24924e-08
7.24905e-08
7.23876e-08
7.24942e-08
7.24943e-08
7.13609e-08
7.13526e-08
7.13596e-08
7.12596e-08
7.12555e-08
7.12591e-08
7.12569e-08
7.13805e-08
7.1357e-08
7.13598e-08
7.12532e-08
7.11051e-08
7.11055e-08
7.11055e-08
7.11051e-08
7.12749e-08
7.12743e-08
7.12597e-08
7.11052e-08
7.11079e-08
7.11068e-08
7.11068e-08
7.11079e-08
7.11052e-08
7.13117e-08
7.1382e-08
7.1361e-08
7.12555e-08
7.11055e-08
7.11068e-08
7.11062e-08
7.11062e-08
7.11068e-08
7.11056e-08
7.13111e-08
7.138e-08
7.13526e-08
7.12591e-08
7.11055e-08
7.11068e-08
7.11062e-08
7.11062e-08
7.11068e-08
7.11055e-08
7.1309e-08
7.12771e-08
7.12569e-08
7.11051e-08
7.11079e-08
7.11068e-08
7.11068e-08
7.11079e-08
7.11051e-08
7.13106e-08
7.13837e-08
7.13805e-08
7.1275e-08
7.11052e-08
7.11056e-08
7.11056e-08
7.11052e-08
7.12975e-08
7.12919e-08
7.13837e-08
7.1357e-08
7.12743e-08
7.13117e-08
7.13111e-08
7.13091e-08
7.13107e-08
7.12924e-08
7.13906e-08
7.1382e-08
7.138e-08
7.12772e-08
7.13838e-08
7.13839e-08
7.02506e-08
7.02423e-08
7.02494e-08
7.01493e-08
7.01451e-08
7.01487e-08
7.01466e-08
7.02703e-08
7.02468e-08
7.02492e-08
7.01428e-08
6.99947e-08
6.99951e-08
6.99951e-08
6.99947e-08
7.01647e-08
7.01628e-08
7.01492e-08
6.99947e-08
6.99975e-08
6.99964e-08
6.99964e-08
6.99975e-08
6.99947e-08
7.0201e-08
7.02714e-08
7.02505e-08
7.01451e-08
6.99951e-08
6.99964e-08
6.99958e-08
6.99958e-08
6.99964e-08
6.99951e-08
7.02006e-08
7.02696e-08
7.02422e-08
7.01487e-08
6.99951e-08
6.99964e-08
6.99957e-08
6.99958e-08
6.99964e-08
6.99951e-08
7.01986e-08
7.01667e-08
7.01466e-08
6.99947e-08
6.99975e-08
6.99964e-08
6.99964e-08
6.99975e-08
6.99947e-08
7.02003e-08
7.02734e-08
7.02703e-08
7.01646e-08
6.99947e-08
6.99951e-08
6.99951e-08
6.99947e-08
7.01871e-08
7.01819e-08