/*--------------------------------*- C++ -*----------------------------------*\
| =========                 |                                                 |
| \\      /  F ield         | OpenFOAM: The Open Source CFD Toolbox           |
|  \\    /   O peration     | Version:                                        |
|   \\  /    A nd           | Website:  www.openfoam.com                      |
|    \\/     M anipulation  |                                                 |
\*---------------------------------------------------------------------------*/
FoamFile
{
    version     2.0;
    format      ascii;
    class       volScalarField;
    location    "27350.5";
    object      p;
}
// * * * * * * * * * * * * * * * * * * * * * * * * * * * * * * * * * * * * * //

dimensions      [0 2 -2 0 0 0 0];


internalField   nonuniform List<scalar> 
247096
(
1.10971e-07
1.10974e-07
1.11118e-07
1.11204e-07
1.11237e-07
1.11195e-07
1.11104e-07
1.1095e-07
1.10974e-07
1.11173e-07
1.1135e-07
1.11442e-07
1.11465e-07
1.11435e-07
1.11331e-07
1.11149e-07
1.11118e-07
1.1135e-07
1.1149e-07
1.11532e-07
1.11538e-07
1.11529e-07
1.1148e-07
1.11322e-07
1.11091e-07
1.11204e-07
1.11443e-07
1.11532e-07
1.11544e-07
1.11542e-07
1.11544e-07
1.11527e-07
1.11421e-07
1.11171e-07
1.10972e-07
1.11237e-07
1.11466e-07
1.11539e-07
1.11542e-07
1.11539e-07
1.11543e-07
1.11535e-07
1.11446e-07
1.11202e-07
1.11195e-07
1.11436e-07
1.1153e-07
1.11544e-07
1.11543e-07
1.11544e-07
1.11524e-07
1.11413e-07
1.11163e-07
1.11105e-07
1.11332e-07
1.1148e-07
1.11527e-07
1.11535e-07
1.11525e-07
1.11468e-07
1.11304e-07
1.11079e-07
1.10951e-07
1.11149e-07
1.11323e-07
1.11421e-07
1.11446e-07
1.11413e-07
1.11304e-07
1.11126e-07
1.11091e-07
1.11172e-07
1.11203e-07
1.11163e-07
1.11079e-07
1.08158e-07
1.08133e-07
1.08142e-07
1.07993e-07
1.08005e-07
1.08024e-07
1.08004e-07
1.08191e-07
1.08129e-07
1.08143e-07
1.08014e-07
1.07807e-07
1.07826e-07
1.07826e-07
1.07808e-07
1.08071e-07
1.08017e-07
1.07994e-07
1.07812e-07
1.07847e-07
1.07868e-07
1.07868e-07
1.07848e-07
1.07812e-07
1.08135e-07
1.08181e-07
1.08159e-07
1.08006e-07
1.07828e-07
1.07869e-07
1.07892e-07
1.07892e-07
1.07869e-07
1.07828e-07
1.08163e-07
1.08198e-07
1.08134e-07
1.08025e-07
1.07827e-07
1.07869e-07
1.07892e-07
1.07892e-07
1.07869e-07
1.07827e-07
1.08165e-07
1.08022e-07
1.08005e-07
1.07808e-07
1.07848e-07
1.07869e-07
1.07869e-07
1.07848e-07
1.07808e-07
1.08158e-07
1.08208e-07
1.08192e-07
1.08071e-07
1.07813e-07
1.07829e-07
1.07829e-07
1.07813e-07
1.08153e-07
1.08076e-07
1.08191e-07
1.0813e-07
1.08018e-07
1.08136e-07
1.08164e-07
1.08167e-07
1.0816e-07
1.08077e-07
1.08201e-07
1.08181e-07
1.08199e-07
1.08023e-07
1.08208e-07
1.08191e-07
1.06382e-07
1.06373e-07
1.06382e-07
1.06252e-07
1.06251e-07
1.06261e-07
1.06253e-07
1.06416e-07
1.06373e-07
1.06382e-07
1.06247e-07
1.06013e-07
1.06022e-07
1.06022e-07
1.06013e-07
1.0627e-07
1.06264e-07
1.06252e-07
1.06014e-07
1.06033e-07
1.06044e-07
1.06044e-07
1.06033e-07
1.06013e-07
1.06314e-07
1.06406e-07
1.06382e-07
1.06251e-07
1.06022e-07
1.06045e-07
1.06058e-07
1.06058e-07
1.06045e-07
1.06022e-07
1.06319e-07
1.06404e-07
1.06374e-07
1.06262e-07
1.06022e-07
1.06045e-07
1.06058e-07
1.06058e-07
1.06045e-07
1.06022e-07
1.06318e-07
1.06271e-07
1.06254e-07
1.06014e-07
1.06033e-07
1.06045e-07
1.06045e-07
1.06034e-07
1.06014e-07
1.06322e-07
1.06412e-07
1.06417e-07
1.0627e-07
1.06014e-07
1.06022e-07
1.06022e-07
1.06014e-07
1.06303e-07
1.06293e-07
1.06417e-07
1.06374e-07
1.06264e-07
1.06315e-07
1.0632e-07
1.06318e-07
1.06322e-07
1.06293e-07
1.0642e-07
1.06407e-07
1.06404e-07
1.06271e-07
1.06412e-07
1.06417e-07
1.0478e-07
1.04772e-07
1.0478e-07
1.04657e-07
1.04656e-07
1.04664e-07
1.04658e-07
1.04811e-07
1.04773e-07
1.0478e-07
1.04653e-07
1.04444e-07
1.0445e-07
1.0445e-07
1.04444e-07
1.04677e-07
1.0467e-07
1.04657e-07
1.04444e-07
1.04456e-07
1.04461e-07
1.04461e-07
1.04456e-07
1.04444e-07
1.04717e-07
1.04804e-07
1.0478e-07
1.04656e-07
1.0445e-07
1.04461e-07
1.04469e-07
1.04469e-07
1.04461e-07
1.0445e-07
1.04722e-07
1.04802e-07
1.04772e-07
1.04664e-07
1.0445e-07
1.04461e-07
1.04469e-07
1.04469e-07
1.04461e-07
1.0445e-07
1.04721e-07
1.04676e-07
1.04658e-07
1.04444e-07
1.04456e-07
1.04461e-07
1.04461e-07
1.04456e-07
1.04444e-07
1.04724e-07
1.04809e-07
1.04811e-07
1.04677e-07
1.04444e-07
1.0445e-07
1.0445e-07
1.04444e-07
1.04706e-07
1.04697e-07
1.04812e-07
1.04774e-07
1.04671e-07
1.04718e-07
1.04722e-07
1.04721e-07
1.04724e-07
1.04697e-07
1.04816e-07
1.04804e-07
1.04802e-07
1.04676e-07
1.04809e-07
1.04812e-07
1.03311e-07
1.03303e-07
1.03311e-07
1.03193e-07
1.03191e-07
1.03198e-07
1.03193e-07
1.03338e-07
1.03305e-07
1.03311e-07
1.03188e-07
1.02995e-07
1.02999e-07
1.02999e-07
1.02995e-07
1.03211e-07
1.03207e-07
1.03193e-07
1.02995e-07
1.03003e-07
1.03006e-07
1.03006e-07
1.03003e-07
1.02995e-07
1.0325e-07
1.03334e-07
1.03311e-07
1.03191e-07
1.02999e-07
1.03006e-07
1.03011e-07
1.03011e-07
1.03006e-07
1.02999e-07
1.03252e-07
1.03332e-07
1.03303e-07
1.03198e-07
1.02999e-07
1.03006e-07
1.03011e-07
1.03011e-07
1.03006e-07
1.02999e-07
1.03251e-07
1.03212e-07
1.03193e-07
1.02995e-07
1.03003e-07
1.03006e-07
1.03006e-07
1.03003e-07
1.02995e-07
1.03254e-07
1.03338e-07
1.03338e-07
1.03211e-07
1.02995e-07
1.02999e-07
1.02999e-07
1.02995e-07
1.03237e-07
1.03231e-07
1.0334e-07
1.03305e-07
1.03207e-07
1.0325e-07
1.03252e-07
1.03251e-07
1.03254e-07
1.03231e-07
1.03345e-07
1.03334e-07
1.03332e-07
1.03212e-07
1.03338e-07
1.0334e-07
1.01943e-07
1.01934e-07
1.01942e-07
1.01829e-07
1.01827e-07
1.01833e-07
1.01829e-07
1.01968e-07
1.01937e-07
1.01942e-07
1.01824e-07
1.01644e-07
1.01646e-07
1.01646e-07
1.01644e-07
1.01846e-07
1.01844e-07
1.01829e-07
1.01644e-07
1.01649e-07
1.01651e-07
1.01651e-07
1.01649e-07
1.01644e-07
1.01884e-07
1.01965e-07
1.01943e-07
1.01827e-07
1.01646e-07
1.01651e-07
1.01654e-07
1.01654e-07
1.01651e-07
1.01646e-07
1.01885e-07
1.01963e-07
1.01934e-07
1.01833e-07
1.01646e-07
1.01651e-07
1.01654e-07
1.01654e-07
1.01651e-07
1.01646e-07
1.01883e-07
1.01848e-07
1.01829e-07
1.01644e-07
1.01649e-07
1.01651e-07
1.01651e-07
1.01649e-07
1.01644e-07
1.01886e-07
1.01968e-07
1.01968e-07
1.01846e-07
1.01644e-07
1.01646e-07
1.01646e-07
1.01644e-07
1.0187e-07
1.01866e-07
1.0197e-07
1.01937e-07
1.01844e-07
1.01884e-07
1.01885e-07
1.01883e-07
1.01886e-07
1.01866e-07
1.01975e-07
1.01965e-07
1.01963e-07
1.01848e-07
1.01968e-07
1.0197e-07
1.0066e-07
1.00652e-07
1.00659e-07
1.0055e-07
1.00547e-07
1.00552e-07
1.00549e-07
1.00683e-07
1.00655e-07
1.00659e-07
1.00545e-07
1.00375e-07
1.00377e-07
1.00377e-07
1.00375e-07
1.00567e-07
1.00565e-07
1.0055e-07
1.00375e-07
1.00379e-07
1.0038e-07
1.0038e-07
1.00379e-07
1.00375e-07
1.00603e-07
1.00682e-07
1.0066e-07
1.00547e-07
1.00377e-07
1.0038e-07
1.00382e-07
1.00382e-07
1.0038e-07
1.00377e-07
1.00604e-07
1.0068e-07
1.00652e-07
1.00552e-07
1.00377e-07
1.0038e-07
1.00382e-07
1.00382e-07
1.0038e-07
1.00377e-07
1.00602e-07
1.00569e-07
1.00549e-07
1.00375e-07
1.00379e-07
1.0038e-07
1.0038e-07
1.00379e-07
1.00375e-07
1.00605e-07
1.00685e-07
1.00683e-07
1.00567e-07
1.00375e-07
1.00377e-07
1.00377e-07
1.00375e-07
1.0059e-07
1.00585e-07
1.00686e-07
1.00655e-07
1.00565e-07
1.00603e-07
1.00604e-07
1.00602e-07
1.00605e-07
1.00585e-07
1.00691e-07
1.00682e-07
1.0068e-07
1.00569e-07
1.00685e-07
1.00686e-07
9.9444e-08
9.94355e-08
9.94428e-08
9.93369e-08
9.93331e-08
9.93374e-08
9.93348e-08
9.94654e-08
9.94396e-08
9.94428e-08
9.93307e-08
9.91701e-08
9.91711e-08
9.91711e-08
9.91701e-08
9.93527e-08
9.93512e-08
9.93369e-08
9.91701e-08
9.91733e-08
9.91736e-08
9.91736e-08
9.91733e-08
9.91701e-08
9.93894e-08
9.94655e-08
9.9444e-08
9.93331e-08
9.91711e-08
9.91736e-08
9.91744e-08
9.91744e-08
9.91736e-08
9.91711e-08
9.93893e-08
9.94635e-08
9.94355e-08
9.93374e-08
9.91711e-08
9.91736e-08
9.91744e-08
9.91744e-08
9.91736e-08
9.91711e-08
9.93876e-08
9.93549e-08
9.93348e-08
9.91701e-08
9.91733e-08
9.91736e-08
9.91735e-08
9.91733e-08
9.91701e-08
9.939e-08
9.94679e-08
9.94654e-08
9.93527e-08
9.91701e-08
9.91711e-08
9.91711e-08
9.91701e-08
9.93758e-08
9.93708e-08
9.94684e-08
9.94396e-08
9.93512e-08
9.93894e-08
9.93893e-08
9.93875e-08
9.939e-08
9.93708e-08
9.94748e-08
9.94655e-08
9.94635e-08
9.93549e-08
9.94679e-08
9.94684e-08
9.82704e-08
9.82618e-08
9.82692e-08
9.81649e-08
9.81609e-08
9.81649e-08
9.81625e-08
9.82911e-08
9.82663e-08
9.82691e-08
9.81586e-08
9.80032e-08
9.80039e-08
9.80039e-08
9.80032e-08
9.81808e-08
9.81793e-08
9.81649e-08
9.80031e-08
9.80061e-08
9.80056e-08
9.80056e-08
9.80061e-08
9.80032e-08
9.82177e-08
9.82919e-08
9.82704e-08
9.81608e-08
9.80039e-08
9.80056e-08
9.80058e-08
9.80058e-08
9.80056e-08
9.80039e-08
9.82174e-08
9.82898e-08
9.82618e-08
9.81649e-08
9.80039e-08
9.80056e-08
9.80058e-08
9.80058e-08
9.80056e-08
9.80039e-08
9.82155e-08
9.81829e-08
9.81624e-08
9.80031e-08
9.8006e-08
9.80056e-08
9.80056e-08
9.8006e-08
9.80031e-08
9.82175e-08
9.82939e-08
9.82911e-08
9.81808e-08
9.80031e-08
9.80039e-08
9.80039e-08
9.80031e-08
9.82039e-08
9.81985e-08
9.82942e-08
9.82663e-08
9.81792e-08
9.82177e-08
9.82174e-08
9.82155e-08
9.82175e-08
9.81984e-08
9.83011e-08
9.82918e-08
9.82898e-08
9.81829e-08
9.82939e-08
9.82942e-08
9.71188e-08
9.71102e-08
9.71177e-08
9.70142e-08
9.701e-08
9.70138e-08
9.70115e-08
9.71393e-08
9.71149e-08
9.71173e-08
9.70077e-08
9.68547e-08
9.68553e-08
9.68553e-08
9.68547e-08
9.70301e-08
9.7028e-08
9.70139e-08
9.68546e-08
9.68575e-08
9.68567e-08
9.68567e-08
9.68575e-08
9.68547e-08
9.70671e-08
9.71401e-08
9.71187e-08
9.70098e-08
9.68552e-08
9.68566e-08
9.68564e-08
9.68564e-08
9.68567e-08
9.68552e-08
9.70668e-08
9.71382e-08
9.71101e-08
9.70137e-08
9.68552e-08
9.68566e-08
9.68564e-08
9.68564e-08
9.68566e-08
9.68552e-08
9.70648e-08
9.7032e-08
9.70114e-08
9.68547e-08
9.68575e-08
9.68566e-08
9.68566e-08
9.68575e-08
9.68547e-08
9.70666e-08
9.71422e-08
9.71393e-08
9.703e-08
9.68546e-08
9.68552e-08
9.68552e-08
9.68546e-08
9.70531e-08
9.70477e-08
9.71424e-08
9.71149e-08
9.70279e-08
9.7067e-08
9.70667e-08
9.70647e-08
9.70664e-08
9.70472e-08
9.71494e-08
9.71401e-08
9.71381e-08
9.70319e-08
9.7142e-08
9.71422e-08
9.59762e-08
9.59675e-08
9.5975e-08
9.58718e-08
9.58676e-08
9.58713e-08
9.5869e-08
9.59964e-08
9.59721e-08
9.59747e-08
9.58653e-08
9.57132e-08
9.57137e-08
9.57137e-08
9.57132e-08
9.58877e-08
9.58869e-08
9.58716e-08
9.57132e-08
9.57161e-08
9.5715e-08
9.5715e-08
9.57161e-08
9.57132e-08
9.59252e-08
9.59977e-08
9.59761e-08
9.58675e-08
9.57137e-08
9.5715e-08
9.57145e-08
9.57146e-08
9.5715e-08
9.57137e-08
9.59247e-08
9.59956e-08
9.59675e-08
9.58713e-08
9.57137e-08
9.5715e-08
9.57145e-08
9.57145e-08
9.5715e-08
9.57137e-08
9.59226e-08
9.58898e-08
9.5869e-08
9.57132e-08
9.57161e-08
9.5715e-08
9.5715e-08
9.57161e-08
9.57132e-08
9.59244e-08
9.59995e-08
9.59965e-08
9.58877e-08
9.57131e-08
9.57136e-08
9.57136e-08
9.57131e-08
9.59108e-08
9.59054e-08
9.59997e-08
9.59723e-08
9.58856e-08
9.59249e-08
9.59246e-08
9.59225e-08
9.59242e-08
9.59049e-08
9.60068e-08
9.59975e-08
9.59955e-08
9.58896e-08
9.59994e-08
9.59995e-08
9.48366e-08
9.4828e-08
9.48354e-08
9.47323e-08
9.47281e-08
9.47318e-08
9.47296e-08
9.4857e-08
9.48327e-08
9.48351e-08
9.47258e-08
9.45739e-08
9.45744e-08
9.45744e-08
9.45739e-08
9.47483e-08
9.47462e-08
9.47321e-08
9.45739e-08
9.45771e-08
9.45757e-08
9.45757e-08
9.45771e-08
9.45739e-08
9.47856e-08
9.48579e-08
9.48365e-08
9.47279e-08
9.45744e-08
9.45757e-08
9.45751e-08
9.45751e-08
9.45757e-08
9.45744e-08
9.47852e-08
9.4856e-08
9.48278e-08
9.47317e-08
9.45744e-08
9.45757e-08
9.45751e-08
9.45751e-08
9.45757e-08
9.45744e-08
9.47831e-08
9.47502e-08
9.47295e-08
9.45739e-08
9.45771e-08
9.45756e-08
9.45756e-08
9.45771e-08
9.45739e-08
9.47849e-08
9.48599e-08
9.48569e-08
9.47482e-08
9.45738e-08
9.45743e-08
9.45743e-08
9.45738e-08
9.47713e-08
9.47658e-08
9.48601e-08
9.48326e-08
9.47461e-08
9.47855e-08
9.47851e-08
9.4783e-08
9.47847e-08
9.47653e-08
9.48671e-08
9.48578e-08
9.48558e-08
9.47501e-08
9.48597e-08
9.48598e-08
9.36978e-08
9.36892e-08
9.36966e-08
9.35935e-08
9.35893e-08
9.3593e-08
9.35908e-08
9.37182e-08
9.36939e-08
9.36963e-08
9.3587e-08
9.34353e-08
9.34357e-08
9.34357e-08
9.34353e-08
9.36095e-08
9.36074e-08
9.35933e-08
9.34352e-08
9.34382e-08
9.3437e-08
9.3437e-08
9.34382e-08
9.34352e-08
9.36468e-08
9.37191e-08
9.36977e-08
9.35892e-08
9.34357e-08
9.3437e-08
9.34364e-08
9.34364e-08
9.3437e-08
9.34357e-08
9.36464e-08
9.37172e-08
9.3689e-08
9.35929e-08
9.34357e-08
9.3437e-08
9.34363e-08
9.34363e-08
9.3437e-08
9.34357e-08
9.36444e-08
9.36114e-08
9.35907e-08
9.34352e-08
9.34382e-08
9.3437e-08
9.3437e-08
9.34382e-08
9.34352e-08
9.36461e-08
9.37211e-08
9.37181e-08
9.36094e-08
9.34352e-08
9.34356e-08
9.34356e-08
9.34352e-08
9.36325e-08
9.3627e-08
9.37213e-08
9.36938e-08
9.36074e-08
9.36467e-08
9.36464e-08
9.36442e-08
9.36459e-08
9.36266e-08
9.37283e-08
9.37191e-08
9.37171e-08
9.36113e-08
9.37209e-08
9.3721e-08
9.25592e-08
9.25505e-08
9.2558e-08
9.24549e-08
9.24507e-08
9.24544e-08
9.24521e-08
9.25793e-08
9.25551e-08
9.25577e-08
9.24484e-08
9.22967e-08
9.22971e-08
9.22971e-08
9.22967e-08
9.24708e-08
9.247e-08
9.24547e-08
9.22966e-08
9.22996e-08
9.22984e-08
9.22984e-08
9.22996e-08
9.22967e-08
9.25085e-08
9.25807e-08
9.25591e-08
9.24506e-08
9.22971e-08
9.22984e-08
9.22978e-08
9.22978e-08
9.22984e-08
9.22971e-08
9.25079e-08
9.25786e-08
9.25504e-08
9.24543e-08
9.22971e-08
9.22984e-08
9.22977e-08
9.22977e-08
9.22984e-08
9.22971e-08
9.25058e-08
9.24729e-08
9.24521e-08
9.22966e-08
9.22996e-08
9.22984e-08
9.22984e-08
9.22996e-08
9.22967e-08
9.25075e-08
9.25825e-08
9.25795e-08
9.24708e-08
9.22966e-08
9.2297e-08
9.2297e-08
9.22966e-08
9.2494e-08
9.24884e-08
9.25827e-08
9.25553e-08
9.24688e-08
9.25082e-08
9.25078e-08
9.25057e-08
9.25073e-08
9.2488e-08
9.25897e-08
9.25805e-08
9.25785e-08
9.24727e-08
9.25823e-08
9.25824e-08
9.14207e-08
9.1412e-08
9.14194e-08
9.13164e-08
9.13121e-08
9.13159e-08
9.13136e-08
9.1441e-08
9.14168e-08
9.14192e-08
9.13099e-08
9.11582e-08
9.11586e-08
9.11586e-08
9.11582e-08
9.13324e-08
9.13303e-08
9.13162e-08
9.11581e-08
9.1161e-08
9.11599e-08
9.11599e-08
9.11611e-08
9.11581e-08
9.13697e-08
9.1442e-08
9.14205e-08
9.1312e-08
9.11585e-08
9.11599e-08
9.11592e-08
9.11592e-08
9.11599e-08
9.11585e-08
9.13693e-08
9.144e-08
9.14119e-08
9.13158e-08
9.11585e-08
9.11599e-08
9.11592e-08
9.11592e-08
9.11599e-08
9.11585e-08
9.13672e-08
9.13343e-08
9.13136e-08
9.11581e-08
9.1161e-08
9.11598e-08
9.11598e-08
9.1161e-08
9.11581e-08
9.13689e-08
9.1444e-08
9.14409e-08
9.13323e-08
9.1158e-08
9.11585e-08
9.11585e-08
9.1158e-08
9.13554e-08
9.13499e-08
9.14441e-08
9.14167e-08
9.13302e-08
9.13696e-08
9.13692e-08
9.13671e-08
9.13687e-08
9.13494e-08
9.14512e-08
9.14419e-08
9.14399e-08
9.13342e-08
9.14438e-08
9.14439e-08
9.02821e-08
9.02735e-08
9.02809e-08
9.01778e-08
9.01736e-08
9.01773e-08
9.01751e-08
9.03025e-08
9.02782e-08
9.02806e-08
9.01713e-08
9.00196e-08
9.002e-08
9.002e-08
9.00196e-08
9.01938e-08
9.01918e-08
9.01776e-08
9.00195e-08
9.00225e-08
9.00213e-08
9.00213e-08
9.00225e-08
9.00196e-08
9.02311e-08
9.03034e-08
9.02819e-08
9.01734e-08
9.00199e-08
9.00213e-08
9.00206e-08
9.00207e-08
9.00213e-08
9.002e-08
9.02308e-08
9.03015e-08
9.02733e-08
9.01772e-08
9.00199e-08
9.00213e-08
9.00206e-08
9.00206e-08
9.00213e-08
9.002e-08
9.02287e-08
9.01957e-08
9.0175e-08
9.00195e-08
9.00225e-08
9.00213e-08
9.00213e-08
9.00225e-08
9.00196e-08
9.02304e-08
9.03054e-08
9.03023e-08
9.01937e-08
9.00195e-08
9.00199e-08
9.00199e-08
9.00195e-08
9.02169e-08
9.02113e-08
9.03056e-08
9.02781e-08
9.01917e-08
9.02311e-08
9.02307e-08
9.02286e-08
9.02302e-08
9.02109e-08
9.03126e-08
9.03034e-08
9.03014e-08
9.01956e-08
9.03053e-08
9.03054e-08
8.91435e-08
8.91348e-08
8.91423e-08
8.90393e-08
8.9035e-08
8.90387e-08
8.90364e-08
8.91637e-08
8.91395e-08
8.9142e-08
8.90327e-08
8.8881e-08
8.88814e-08
8.88814e-08
8.8881e-08
8.90551e-08
8.90543e-08
8.9039e-08
8.88809e-08
8.88839e-08
8.88828e-08
8.88828e-08
8.88839e-08
8.8881e-08
8.90928e-08
8.9165e-08
8.91433e-08
8.90348e-08
8.88814e-08
8.88827e-08
8.88821e-08
8.88821e-08
8.88828e-08
8.88814e-08
8.90923e-08
8.9163e-08
8.91347e-08
8.90386e-08
8.88814e-08
8.88827e-08
8.88821e-08
8.88821e-08
8.88828e-08
8.88814e-08
8.90901e-08
8.90572e-08
8.90363e-08
8.88809e-08
8.88839e-08
8.88828e-08
8.88828e-08
8.88839e-08
8.8881e-08
8.90917e-08
8.91668e-08
8.91636e-08
8.9055e-08
8.8881e-08
8.88814e-08
8.88814e-08
8.8881e-08
8.90783e-08
8.90724e-08
8.91669e-08
8.91394e-08
8.90542e-08
8.90928e-08
8.90922e-08
8.90901e-08
8.90918e-08
8.90728e-08
8.91741e-08
8.9165e-08
8.91629e-08
8.90572e-08
8.91668e-08
8.9167e-08
8.80049e-08
8.79963e-08
8.80037e-08
8.79007e-08
8.78964e-08
8.79001e-08
8.78978e-08
8.80251e-08
8.80009e-08
8.80034e-08
8.78942e-08
8.77425e-08
8.77429e-08
8.77429e-08
8.77424e-08
8.79165e-08
8.79158e-08
8.79005e-08
8.77424e-08
8.77454e-08
8.77442e-08
8.77442e-08
8.77454e-08
8.77425e-08
8.79543e-08
8.80265e-08
8.80048e-08
8.78963e-08
8.77428e-08
8.77442e-08
8.77435e-08
8.77435e-08
8.77442e-08
8.77429e-08
8.79537e-08
8.80245e-08
8.79961e-08
8.79e-08
8.77428e-08
8.77442e-08
8.77435e-08
8.77435e-08
8.77442e-08
8.77429e-08
8.79516e-08
8.79187e-08
8.78978e-08
8.77424e-08
8.77453e-08
8.77442e-08
8.77442e-08
8.77454e-08
8.77425e-08
8.79533e-08
8.80283e-08
8.8025e-08
8.79165e-08
8.77424e-08
8.77428e-08
8.77428e-08
8.77424e-08
8.79398e-08
8.79343e-08
8.80285e-08
8.80008e-08
8.79157e-08
8.79542e-08
8.79537e-08
8.79515e-08
8.79532e-08
8.79338e-08
8.80356e-08
8.80264e-08
8.80244e-08
8.79186e-08
8.80282e-08
8.80283e-08
8.68664e-08
8.68577e-08
8.68652e-08
8.67621e-08
8.67579e-08
8.67616e-08
8.67593e-08
8.68865e-08
8.68624e-08
8.68649e-08
8.67556e-08
8.66039e-08
8.66043e-08
8.66043e-08
8.66039e-08
8.6778e-08
8.67772e-08
8.67619e-08
8.66039e-08
8.66068e-08
8.66057e-08
8.66057e-08
8.66068e-08
8.66039e-08
8.68157e-08
8.6888e-08
8.68663e-08
8.67578e-08
8.66043e-08
8.66056e-08
8.6605e-08
8.6605e-08
8.66057e-08
8.66043e-08
8.68152e-08
8.68859e-08
8.68576e-08
8.67616e-08
8.66043e-08
8.66056e-08
8.6605e-08
8.6605e-08
8.66057e-08
8.66043e-08
8.68131e-08
8.67801e-08
8.67593e-08
8.66039e-08
8.66068e-08
8.66056e-08
8.66056e-08
8.66068e-08
8.66039e-08
8.68148e-08
8.68898e-08
8.68867e-08
8.67781e-08
8.66038e-08
8.66043e-08
8.66043e-08
8.66038e-08
8.68012e-08
8.67957e-08
8.689e-08
8.68625e-08
8.6776e-08
8.68154e-08
8.6815e-08
8.68129e-08
8.68146e-08
8.67952e-08
8.6897e-08
8.68877e-08
8.68857e-08
8.678e-08
8.68896e-08
8.68897e-08
8.57279e-08
8.57192e-08
8.57266e-08
8.56236e-08
8.56193e-08
8.56231e-08
8.56208e-08
8.57482e-08
8.5724e-08
8.57264e-08
8.56171e-08
8.54654e-08
8.54658e-08
8.54658e-08
8.54654e-08
8.56396e-08
8.56375e-08
8.56234e-08
8.54653e-08
8.54683e-08
8.54671e-08
8.54671e-08
8.54683e-08
8.54653e-08
8.56769e-08
8.57492e-08
8.57277e-08
8.56192e-08
8.54657e-08
8.54671e-08
8.54664e-08
8.54664e-08
8.54671e-08
8.54658e-08
8.56765e-08
8.57473e-08
8.57191e-08
8.5623e-08
8.54657e-08
8.54671e-08
8.54664e-08
8.54664e-08
8.54671e-08
8.54658e-08
8.56745e-08
8.56415e-08
8.56208e-08
8.54653e-08
8.54682e-08
8.54671e-08
8.54671e-08
8.54682e-08
8.54654e-08
8.56762e-08
8.57512e-08
8.57481e-08
8.56395e-08
8.54653e-08
8.54657e-08
8.54657e-08
8.54653e-08
8.56626e-08
8.56571e-08
8.57514e-08
8.57239e-08
8.56374e-08
8.56768e-08
8.56764e-08
8.56744e-08
8.5676e-08
8.56567e-08
8.57584e-08
8.57491e-08
8.57471e-08
8.56414e-08
8.5751e-08
8.57511e-08
8.45893e-08
8.45806e-08
8.45881e-08
8.4485e-08
8.44808e-08
8.44845e-08
8.44822e-08
8.46094e-08
8.45852e-08
8.45878e-08
8.44785e-08
8.43268e-08
8.43272e-08
8.43272e-08
8.43268e-08
8.45009e-08
8.45001e-08
8.44848e-08
8.43267e-08
8.43297e-08
8.43285e-08
8.43285e-08
8.43297e-08
8.43268e-08
8.45386e-08
8.46108e-08
8.45892e-08
8.44807e-08
8.43272e-08
8.43285e-08
8.43279e-08
8.43279e-08
8.43286e-08
8.43272e-08
8.45381e-08
8.46088e-08
8.45806e-08
8.44845e-08
8.43272e-08
8.43285e-08
8.43279e-08
8.43279e-08
8.43286e-08
8.43272e-08
8.45359e-08
8.4503e-08
8.44822e-08
8.43268e-08
8.43297e-08
8.43285e-08
8.43285e-08
8.43297e-08
8.43268e-08
8.45376e-08
8.46127e-08
8.46096e-08
8.4501e-08
8.43267e-08
8.43271e-08
8.43271e-08
8.43267e-08
8.45241e-08
8.45186e-08
8.46128e-08
8.45854e-08
8.44989e-08
8.45383e-08
8.45379e-08
8.45358e-08
8.45374e-08
8.45181e-08
8.46199e-08
8.46106e-08
8.46086e-08
8.45028e-08
8.46125e-08
8.46126e-08
8.34507e-08
8.3442e-08
8.34495e-08
8.33465e-08
8.33422e-08
8.33459e-08
8.33436e-08
8.34709e-08
8.34467e-08
8.34493e-08
8.334e-08
8.31882e-08
8.31887e-08
8.31886e-08
8.31882e-08
8.33623e-08
8.33615e-08
8.33463e-08
8.31882e-08
8.31911e-08
8.319e-08
8.319e-08
8.31912e-08
8.31883e-08
8.34e-08
8.34723e-08
8.34506e-08
8.33421e-08
8.31886e-08
8.319e-08
8.31893e-08
8.31893e-08
8.319e-08
8.31887e-08
8.33995e-08
8.34702e-08
8.3442e-08
8.33459e-08
8.31886e-08
8.319e-08
8.31893e-08
8.31893e-08
8.319e-08
8.31887e-08
8.33974e-08
8.33645e-08
8.33437e-08
8.31882e-08
8.31911e-08
8.319e-08
8.319e-08
8.31911e-08
8.31883e-08
8.33991e-08
8.34741e-08
8.3471e-08
8.33624e-08
8.31882e-08
8.31886e-08
8.31886e-08
8.31882e-08
8.33855e-08
8.338e-08
8.34743e-08
8.34468e-08
8.33603e-08
8.33997e-08
8.33993e-08
8.33972e-08
8.33989e-08
8.33795e-08
8.34813e-08
8.3472e-08
8.347e-08
8.33643e-08
8.34739e-08
8.3474e-08
8.23121e-08
8.23035e-08
8.2311e-08
8.22079e-08
8.22036e-08
8.22074e-08
8.22051e-08
8.23323e-08
8.23081e-08
8.23107e-08
8.22014e-08
8.20497e-08
8.20501e-08
8.20501e-08
8.20497e-08
8.22238e-08
8.2223e-08
8.22077e-08
8.20496e-08
8.20526e-08
8.20514e-08
8.20514e-08
8.20526e-08
8.20497e-08
8.22615e-08
8.23337e-08
8.23121e-08
8.22036e-08
8.20501e-08
8.20514e-08
8.20508e-08
8.20508e-08
8.20515e-08
8.20501e-08
8.2261e-08
8.23317e-08
8.23035e-08
8.22074e-08
8.20501e-08
8.20514e-08
8.20508e-08
8.20508e-08
8.20514e-08
8.20501e-08
8.22589e-08
8.22259e-08
8.22051e-08
8.20497e-08
8.20526e-08
8.20514e-08
8.20514e-08
8.20526e-08
8.20497e-08
8.22605e-08
8.23356e-08
8.23325e-08
8.22238e-08
8.20496e-08
8.205e-08
8.205e-08
8.20496e-08
8.2247e-08
8.22415e-08
8.23357e-08
8.23083e-08
8.22218e-08
8.22612e-08
8.22608e-08
8.22587e-08
8.22603e-08
8.2241e-08
8.23428e-08
8.23335e-08
8.23315e-08
8.22257e-08
8.23354e-08
8.23355e-08
8.11735e-08
8.11649e-08
8.11721e-08
8.10692e-08
8.1065e-08
8.10688e-08
8.10665e-08
8.11937e-08
8.11696e-08
8.11724e-08
8.10628e-08
8.09111e-08
8.09115e-08
8.09115e-08
8.09111e-08
8.10852e-08
8.10844e-08
8.10693e-08
8.09111e-08
8.0914e-08
8.09129e-08
8.09129e-08
8.09141e-08
8.09112e-08
8.11229e-08
8.11952e-08
8.11736e-08
8.10651e-08
8.09115e-08
8.09129e-08
8.09122e-08
8.09122e-08
8.09129e-08
8.09116e-08
8.11224e-08
8.11931e-08
8.11649e-08
8.10688e-08
8.09115e-08
8.09129e-08
8.09122e-08
8.09122e-08
8.09129e-08
8.09116e-08
8.11203e-08
8.10874e-08
8.10666e-08
8.09111e-08
8.0914e-08
8.09129e-08
8.09129e-08
8.0914e-08
8.09112e-08
8.1122e-08
8.1197e-08
8.11939e-08
8.10853e-08
8.09111e-08
8.09115e-08
8.09115e-08
8.09111e-08
8.11085e-08
8.11029e-08
8.11972e-08
8.11697e-08
8.10833e-08
8.11227e-08
8.11223e-08
8.11202e-08
8.11218e-08
8.11025e-08
8.12042e-08
8.11949e-08
8.1193e-08
8.10872e-08
8.11968e-08
8.11969e-08
8.0035e-08
8.00263e-08
8.00338e-08
7.99308e-08
7.99265e-08
7.99302e-08
7.99279e-08
8.00552e-08
8.0031e-08
8.00336e-08
7.99243e-08
7.97725e-08
7.9773e-08
7.9773e-08
7.97725e-08
7.99466e-08
7.99458e-08
7.99306e-08
7.97725e-08
7.97755e-08
7.97743e-08
7.97743e-08
7.97755e-08
7.97726e-08
7.99844e-08
8.00566e-08
8.00349e-08
7.99264e-08
7.97729e-08
7.97743e-08
7.97736e-08
7.97736e-08
7.97743e-08
7.9773e-08
7.99838e-08
8.00546e-08
8.00263e-08
7.99302e-08
7.97729e-08
7.97743e-08
7.97736e-08
7.97736e-08
7.97743e-08
7.9773e-08
7.99817e-08
7.99488e-08
7.99279e-08
7.97725e-08
7.97755e-08
7.97743e-08
7.97743e-08
7.97755e-08
7.97726e-08
7.99834e-08
8.00585e-08
8.00551e-08
7.99466e-08
7.97726e-08
7.9773e-08
7.9773e-08
7.97725e-08
7.99699e-08
7.99644e-08
8.00586e-08
8.0031e-08
7.99458e-08
7.99843e-08
7.99838e-08
7.99817e-08
7.99833e-08
7.99639e-08
8.00657e-08
8.00566e-08
8.00545e-08
7.99487e-08
8.00583e-08
8.00584e-08
7.88965e-08
7.88878e-08
7.88953e-08
7.87922e-08
7.87879e-08
7.87917e-08
7.87894e-08
7.89166e-08
7.88924e-08
7.8895e-08
7.87857e-08
7.8634e-08
7.86344e-08
7.86344e-08
7.8634e-08
7.88081e-08
7.88073e-08
7.8792e-08
7.86339e-08
7.86369e-08
7.86357e-08
7.86357e-08
7.86369e-08
7.8634e-08
7.88458e-08
7.8918e-08
7.88963e-08
7.87878e-08
7.86344e-08
7.86357e-08
7.86351e-08
7.86351e-08
7.86357e-08
7.86344e-08
7.88452e-08
7.89159e-08
7.88877e-08
7.87916e-08
7.86344e-08
7.86357e-08
7.86351e-08
7.86351e-08
7.86357e-08
7.86344e-08
7.88431e-08
7.88102e-08
7.87893e-08
7.86339e-08
7.86369e-08
7.86357e-08
7.86357e-08
7.86369e-08
7.8634e-08
7.88447e-08
7.89198e-08
7.89166e-08
7.8808e-08
7.8634e-08
7.86344e-08
7.86344e-08
7.8634e-08
7.88313e-08
7.88253e-08
7.89198e-08
7.88924e-08
7.88072e-08
7.88458e-08
7.88452e-08
7.88431e-08
7.88448e-08
7.88258e-08
7.89271e-08
7.8918e-08
7.8916e-08
7.88102e-08
7.89199e-08
7.892e-08
7.77579e-08
7.77493e-08
7.77567e-08
7.76537e-08
7.76494e-08
7.76532e-08
7.76509e-08
7.77783e-08
7.77541e-08
7.77564e-08
7.76471e-08
7.74954e-08
7.74958e-08
7.74958e-08
7.74954e-08
7.76696e-08
7.76676e-08
7.76535e-08
7.74954e-08
7.74983e-08
7.74972e-08
7.74972e-08
7.74983e-08
7.74954e-08
7.7707e-08
7.77793e-08
7.77578e-08
7.76493e-08
7.74958e-08
7.74971e-08
7.74965e-08
7.74965e-08
7.74971e-08
7.74958e-08
7.77066e-08
7.77773e-08
7.77492e-08
7.76531e-08
7.74958e-08
7.74971e-08
7.74965e-08
7.74965e-08
7.74971e-08
7.74958e-08
7.77045e-08
7.76715e-08
7.76508e-08
7.74954e-08
7.74983e-08
7.74971e-08
7.74971e-08
7.74983e-08
7.74954e-08
7.77061e-08
7.77811e-08
7.77782e-08
7.76696e-08
7.74953e-08
7.74958e-08
7.74958e-08
7.74954e-08
7.76927e-08
7.76867e-08
7.77812e-08
7.7754e-08
7.76675e-08
7.77069e-08
7.77066e-08
7.77045e-08
7.77062e-08
7.76872e-08
7.77885e-08
7.77793e-08
7.77773e-08
7.76716e-08
7.77812e-08
7.77814e-08
7.66193e-08
7.66107e-08
7.66181e-08
7.65151e-08
7.65108e-08
7.65146e-08
7.65123e-08
7.66397e-08
7.66155e-08
7.66178e-08
7.65085e-08
7.63568e-08
7.63572e-08
7.63572e-08
7.63568e-08
7.6531e-08
7.6529e-08
7.65149e-08
7.63568e-08
7.63597e-08
7.63586e-08
7.63586e-08
7.63597e-08
7.63568e-08
7.65684e-08
7.66407e-08
7.66192e-08
7.65107e-08
7.63572e-08
7.63585e-08
7.63579e-08
7.63579e-08
7.63586e-08
7.63572e-08
7.6568e-08
7.66387e-08
7.66106e-08
7.65145e-08
7.63572e-08
7.63585e-08
7.63579e-08
7.63579e-08
7.63586e-08
7.63572e-08
7.65659e-08
7.6533e-08
7.65123e-08
7.63568e-08
7.63597e-08
7.63585e-08
7.63585e-08
7.63597e-08
7.63568e-08
7.65676e-08
7.66426e-08
7.66396e-08
7.6531e-08
7.63567e-08
7.63572e-08
7.63572e-08
7.63567e-08
7.65541e-08
7.65486e-08
7.66428e-08
7.66154e-08
7.65289e-08
7.65683e-08
7.65679e-08
7.65658e-08
7.65675e-08
7.65481e-08
7.66499e-08
7.66406e-08
7.66386e-08
7.65329e-08
7.66425e-08
7.66426e-08
7.54807e-08
7.5472e-08
7.54795e-08
7.53764e-08
7.53722e-08
7.53759e-08
7.53736e-08
7.55008e-08
7.54767e-08
7.54792e-08
7.53699e-08
7.52182e-08
7.52186e-08
7.52186e-08
7.52182e-08
7.53923e-08
7.53915e-08
7.53763e-08
7.52182e-08
7.52211e-08
7.52199e-08
7.52199e-08
7.52211e-08
7.52182e-08
7.543e-08
7.55022e-08
7.54806e-08
7.53721e-08
7.52186e-08
7.52199e-08
7.52193e-08
7.52193e-08
7.522e-08
7.52186e-08
7.54295e-08
7.55002e-08
7.5472e-08
7.53759e-08
7.52186e-08
7.52199e-08
7.52193e-08
7.52193e-08
7.522e-08
7.52186e-08
7.54273e-08
7.53944e-08
7.53737e-08
7.52182e-08
7.52211e-08
7.52199e-08
7.52199e-08
7.52211e-08
7.52182e-08
7.5429e-08
7.55041e-08
7.5501e-08
7.53924e-08
7.52182e-08
7.52186e-08
7.52186e-08
7.52182e-08
7.54155e-08
7.541e-08
7.55042e-08
7.54768e-08
7.53903e-08
7.54297e-08
7.54294e-08
7.54273e-08
7.54289e-08
7.54095e-08
7.55113e-08
7.5502e-08
7.55e-08
7.53943e-08
7.55039e-08
7.5504e-08
7.4342e-08
7.43333e-08
7.43406e-08
7.42376e-08
7.42334e-08
7.42372e-08
7.42349e-08
7.43622e-08
7.4338e-08
7.43409e-08
7.42313e-08
7.40795e-08
7.408e-08
7.408e-08
7.40795e-08
7.42536e-08
7.42529e-08
7.42378e-08
7.40796e-08
7.40825e-08
7.40813e-08
7.40813e-08
7.40825e-08
7.40796e-08
7.42914e-08
7.43636e-08
7.4342e-08
7.42335e-08
7.408e-08
7.40813e-08
7.40807e-08
7.40807e-08
7.40813e-08
7.408e-08
7.42908e-08
7.43616e-08
7.43334e-08
7.42373e-08
7.408e-08
7.40813e-08
7.40807e-08
7.40807e-08
7.40813e-08
7.408e-08
7.42887e-08
7.42558e-08
7.4235e-08
7.40796e-08
7.40825e-08
7.40814e-08
7.40814e-08
7.40825e-08
7.40796e-08
7.42903e-08
7.43654e-08
7.43622e-08
7.42537e-08
7.40796e-08
7.408e-08
7.408e-08
7.40796e-08
7.42769e-08
7.42709e-08
7.43654e-08
7.4338e-08
7.42529e-08
7.42914e-08
7.42909e-08
7.42887e-08
7.42904e-08
7.42714e-08
7.43727e-08
7.43636e-08
7.43616e-08
7.42558e-08
7.43655e-08
7.43657e-08
7.32034e-08
7.31947e-08
7.3202e-08
7.3099e-08
7.30948e-08
7.30986e-08
7.30963e-08
7.32236e-08
7.31994e-08
7.32023e-08
7.30927e-08
7.29409e-08
7.29414e-08
7.29414e-08
7.29409e-08
7.3115e-08
7.31142e-08
7.30992e-08
7.2941e-08
7.29439e-08
7.29427e-08
7.29427e-08
7.29439e-08
7.2941e-08
7.31527e-08
7.3225e-08
7.32034e-08
7.30949e-08
7.29414e-08
7.29427e-08
7.29421e-08
7.29421e-08
7.29427e-08
7.29414e-08
7.31522e-08
7.32229e-08
7.31948e-08
7.30987e-08
7.29414e-08
7.29427e-08
7.29421e-08
7.29421e-08
7.29427e-08
7.29414e-08
7.31501e-08
7.31171e-08
7.30963e-08
7.29409e-08
7.29439e-08
7.29427e-08
7.29427e-08
7.29439e-08
7.2941e-08
7.31517e-08
7.32268e-08
7.32236e-08
7.3115e-08
7.2941e-08
7.29414e-08
7.29414e-08
7.2941e-08
7.31383e-08
7.31323e-08
7.32268e-08
7.31994e-08
7.31143e-08
7.31528e-08
7.31522e-08
7.31501e-08
7.31518e-08
7.31328e-08
7.32341e-08
7.3225e-08
7.3223e-08
7.31172e-08
7.32269e-08
7.3227e-08
7.20649e-08
7.20562e-08
7.20637e-08
7.19606e-08
7.19564e-08
7.19601e-08
7.19579e-08
7.20852e-08
7.2061e-08
7.20634e-08
7.19541e-08
7.18024e-08
7.18028e-08
7.18028e-08
7.18024e-08
7.19766e-08
7.19745e-08
7.19604e-08
7.18023e-08
7.18053e-08
7.18041e-08
7.18041e-08
7.18053e-08
7.18024e-08
7.2014e-08
7.20863e-08
7.20648e-08
7.19563e-08
7.18028e-08
7.18041e-08
7.18035e-08
7.18035e-08
7.18041e-08
7.18028e-08
7.20136e-08
7.20843e-08
7.20562e-08
7.19601e-08
7.18028e-08
7.18041e-08
7.18034e-08
7.18034e-08
7.18041e-08
7.18028e-08
7.20115e-08
7.19786e-08
7.19578e-08
7.18024e-08
7.18053e-08
7.18041e-08
7.18041e-08
7.18053e-08
7.18024e-08
7.20132e-08
7.20882e-08
7.20852e-08
7.19766e-08
7.18023e-08
7.18027e-08
7.18027e-08
7.18023e-08
7.19997e-08
7.19942e-08
7.20884e-08
7.2061e-08
7.19745e-08
7.20139e-08