/*--------------------------------*- C++ -*----------------------------------*\
| =========                 |                                                 |
| \\      /  F ield         | OpenFOAM: The Open Source CFD Toolbox           |
|  \\    /   O peration     | Version:  2312                                  |
|   \\  /    A nd           | Website:  www.openfoam.com                      |
|    \\/     M anipulation  |                                                 |
\*---------------------------------------------------------------------------*/
FoamFile
{
    version     2.0;
    format      ascii;
    arch        "LSB;label=32;scalar=64";
    class       volScalarField;
    location    "500";
    object      epsilon;
}
// * * * * * * * * * * * * * * * * * * * * * * * * * * * * * * * * * * * * * //

dimensions      [0 2 -3 0 0 0 0];

internalField   nonuniform List<scalar> 
43211
(
4.9917e-07
4.99974e-07
4.99974e-07
4.99867e-07
4.45574e-07
4.54107e-07
4.54107e-07
4.63745e-07
4.03788e-07
4.18744e-07
4.18746e-07
4.39534e-07
3.68405e-07
3.88705e-07
3.88708e-07
4.17793e-07
3.38054e-07
3.62209e-07
3.62212e-07
3.96187e-07
3.11679e-07
3.38348e-07
3.38352e-07
3.74663e-07
2.885e-07
3.16691e-07
3.16695e-07
3.53771e-07
2.67943e-07
2.97059e-07
2.97064e-07
3.34191e-07
2.49595e-07
2.79397e-07
2.79401e-07
3.16515e-07
2.33147e-07
2.63696e-07
2.637e-07
3.01183e-07
2.18372e-07
2.49967e-07
2.4997e-07
2.88506e-07
2.05094e-07
2.38208e-07
2.38213e-07
2.78717e-07
1.93173e-07
2.28424e-07
2.28425e-07
2.71924e-07
1.82496e-07
2.20627e-07
2.20624e-07
2.68293e-07
1.72979e-07
2.14832e-07
2.14837e-07
2.67919e-07
1.64557e-07
2.11103e-07
2.11119e-07
2.71387e-07
1.57159e-07
2.09437e-07
2.0951e-07
2.78674e-07
1.50751e-07
2.10162e-07
2.10441e-07
2.9158e-07
1.45602e-07
2.13913e-07
2.13839e-07
3.11933e-07
1.41068e-07
2.20914e-07
2.24088e-07
3.43354e-07
1.37403e-07
2.2599e-07
2.2705e-07
3.50908e-07
5.06203e-07
5.05587e-07
5.05586e-07
5.06203e-07
5.05586e-07
5.05586e-07
5.05987e-07
5.05987e-07
5.05987e-07
5.05987e-07
5.05588e-07
5.05588e-07
5.06203e-07
5.05588e-07
5.05587e-07
5.06204e-07
4.99868e-07
4.67259e-07
4.99975e-07
4.99976e-07
4.6413e-07
4.64138e-07
4.99868e-07
4.67258e-07
4.99976e-07
4.99976e-07
4.64134e-07
4.64139e-07
4.99974e-07
4.64124e-07
4.64129e-07
4.99867e-07
4.67261e-07
4.99976e-07
4.64125e-07
4.64134e-07
4.67263e-07
4.63745e-07
4.41544e-07
4.54112e-07
4.5412e-07
4.26998e-07
4.27007e-07
4.63745e-07
4.41543e-07
4.54116e-07
4.54123e-07
4.26998e-07
4.27009e-07
4.54113e-07
4.2699e-07
4.27e-07
4.63745e-07
4.41549e-07
4.54116e-07
4.26991e-07
4.27001e-07
4.41556e-07
4.39527e-07
4.19399e-07
4.18753e-07
4.18761e-07
3.95843e-07
3.95852e-07
4.3953e-07
4.19402e-07
4.18752e-07
4.18764e-07
3.95838e-07
3.95855e-07
4.18757e-07
3.95833e-07
3.95848e-07
4.39531e-07
4.19407e-07
4.18755e-07
3.95835e-07
3.95843e-07
4.19415e-07
4.17778e-07
3.97737e-07
3.88717e-07
3.88725e-07
3.68574e-07
3.68582e-07
4.17781e-07
3.97742e-07
3.8871e-07
3.88728e-07
3.68564e-07
3.68585e-07
3.88722e-07
3.68561e-07
3.68581e-07
4.17786e-07
3.97748e-07
3.88716e-07
3.68564e-07
3.68571e-07
3.97758e-07
3.96168e-07
3.76152e-07
3.62222e-07
3.6223e-07
3.4411e-07
3.44117e-07
3.96173e-07
3.76158e-07
3.62212e-07
3.62234e-07
3.44097e-07
3.44121e-07
3.6223e-07
3.44096e-07
3.44118e-07
3.96178e-07
3.76164e-07
3.62219e-07
3.44099e-07
3.44106e-07
3.76175e-07
3.74642e-07
3.55156e-07
3.38363e-07
3.3837e-07
3.21928e-07
3.21933e-07
3.74648e-07
3.55161e-07
3.38349e-07
3.38374e-07
3.21911e-07
3.21937e-07
3.38371e-07
3.21912e-07
3.21936e-07
3.74653e-07
3.55169e-07
3.38358e-07
3.21915e-07
3.21921e-07
3.5518e-07
3.53749e-07
3.35421e-07
3.16708e-07
3.16713e-07
3.01799e-07
3.01804e-07
3.53755e-07
3.35428e-07
3.16691e-07
3.16717e-07
3.01781e-07
3.01808e-07
3.16716e-07
3.01783e-07
3.01807e-07
3.53761e-07
3.35437e-07
3.16701e-07
3.01786e-07
3.01791e-07
3.35446e-07
3.34168e-07
3.17546e-07
2.97077e-07
2.97082e-07
2.83646e-07
2.83651e-07
3.34175e-07
3.17553e-07
2.97058e-07
2.97085e-07
2.83626e-07
2.83655e-07
2.97085e-07
2.83629e-07
2.83655e-07
3.34182e-07
3.17561e-07
2.97068e-07
2.83632e-07
2.83637e-07
3.17572e-07
3.1649e-07
3.01979e-07
2.79415e-07
2.7942e-07
2.67456e-07
2.6746e-07
3.16499e-07
3.01982e-07
2.79395e-07
2.79422e-07
2.67435e-07
2.67464e-07
2.79423e-07
2.67438e-07
2.67464e-07
3.16506e-07
3.0199e-07
2.79405e-07
2.67441e-07
2.67445e-07
3.02003e-07
3.01159e-07
2.8904e-07
2.63716e-07
2.6372e-07
2.53233e-07
2.53238e-07
3.01165e-07
2.89044e-07
2.63694e-07
2.63723e-07
2.5321e-07
2.53242e-07
2.63724e-07
2.53215e-07
2.53241e-07
3.01171e-07
2.89054e-07
2.63705e-07
2.53217e-07
2.53222e-07
2.89063e-07
2.88484e-07
2.78953e-07
2.49987e-07
2.49992e-07
2.40983e-07
2.40988e-07
2.88491e-07
2.78956e-07
2.49963e-07
2.49995e-07
2.40959e-07
2.40993e-07
2.49994e-07
2.40962e-07
2.40992e-07
2.88499e-07
2.7897e-07
2.49974e-07
2.40967e-07
2.40971e-07
2.7898e-07
2.78694e-07
2.7184e-07
2.38231e-07
2.38234e-07
2.30703e-07
2.30711e-07
2.787e-07
2.71854e-07
2.38205e-07
2.38238e-07
2.30678e-07
2.30715e-07
2.38237e-07
2.30683e-07
2.30713e-07
2.7871e-07
2.71873e-07
2.38217e-07
2.30686e-07
2.30691e-07
2.71882e-07
2.71887e-07
2.67928e-07
2.28447e-07
2.28452e-07
2.22407e-07
2.22421e-07
2.71902e-07
2.67949e-07
2.28423e-07
2.28454e-07
2.22379e-07
2.2242e-07
2.28453e-07
2.22382e-07
2.22421e-07
2.71917e-07
2.67965e-07
2.28428e-07
2.22393e-07
2.22397e-07
2.67989e-07
2.68228e-07
2.67211e-07
2.2064e-07
2.20668e-07
2.16135e-07
2.16111e-07
2.68258e-07
2.6717e-07
2.20612e-07
2.20658e-07
2.16104e-07
2.16147e-07
2.20662e-07
2.16086e-07
2.16128e-07
2.6827e-07
2.67248e-07
2.20638e-07
2.16101e-07
2.16094e-07
2.67219e-07
2.67933e-07
2.69844e-07
2.14857e-07
2.1485e-07
2.11827e-07
2.11849e-07
2.6787e-07
2.69791e-07
2.14833e-07
2.14873e-07
2.118e-07
2.11868e-07
2.14846e-07
2.11803e-07
2.1186e-07
2.67956e-07
2.69907e-07
2.14813e-07
2.11824e-07
2.11829e-07
2.69901e-07
2.71287e-07
2.76449e-07
2.11153e-07
2.11148e-07
2.09659e-07
2.09651e-07
2.71297e-07
2.76159e-07
2.11122e-07
2.11171e-07
2.09647e-07
2.09678e-07
2.11181e-07
2.09648e-07
2.09679e-07
2.71427e-07
2.76559e-07
2.11148e-07
2.09641e-07
2.09645e-07
2.76401e-07
2.78759e-07
2.88435e-07
2.09509e-07
2.09461e-07
2.09949e-07
2.09829e-07
2.78385e-07
2.87794e-07
2.09484e-07
2.09551e-07
2.09917e-07
2.10018e-07
2.09498e-07
2.09763e-07
2.09876e-07
2.78854e-07
2.88824e-07
2.09471e-07
2.09978e-07
2.09856e-07
2.88122e-07
2.91958e-07
3.07526e-07
2.10414e-07
2.10251e-07
2.13062e-07
2.12288e-07
2.91098e-07
3.04593e-07
2.10418e-07
2.1044e-07
2.13102e-07
2.12218e-07
2.10334e-07
2.12262e-07
2.12522e-07
2.92294e-07
3.05685e-07
2.10324e-07
2.1232e-07
2.12564e-07
3.05719e-07
3.14574e-07
3.40411e-07
2.15096e-07
2.13967e-07
2.20295e-07
2.1985e-07
3.10064e-07
3.36928e-07
2.1503e-07
2.1374e-07
2.20001e-07
2.22096e-07
2.14427e-07
2.19554e-07
2.20269e-07
3.10861e-07
3.48945e-07
2.1455e-07
2.21893e-07
2.20491e-07
3.39954e-07
3.43753e-07
3.56957e-07
2.21152e-07
2.21152e-07
2.26133e-07
2.24725e-07
3.41286e-07
3.48412e-07
2.20908e-07
2.24319e-07
2.26367e-07
2.27056e-07
2.21318e-07
2.24818e-07
2.24732e-07
3.56609e-07
3.59946e-07
2.21534e-07
2.26849e-07
2.24492e-07
3.48047e-07
3.62156e-07
2.28097e-07
2.25913e-07
3.50648e-07
2.28319e-07
2.27259e-07
2.26161e-07
3.60081e-07
2.25775e-07
5.35653e-07
5.35523e-07
5.35636e-07
5.35636e-07
5.34569e-07
5.35438e-07
5.33635e-07
5.35608e-07
5.34569e-07
5.35438e-07
5.35608e-07
5.33635e-07
5.35198e-07
5.35984e-07
5.35983e-07
1.1065e-06
3.87801e-06
9.32089e-07
4.60317e-06
1.26012e-05
1.65941e-05
1.10694e-06
3.87833e-06
9.31849e-07
4.6041e-06
4.9917e-07
4.9917e-07
4.9917e-07
4.57217e-07
4.57217e-07
4.57217e-07
4.57217e-07
5.4296e-07
1.2178e-06
4.99137e-07
4.86008e-07
5.25011e-07
1.20859e-06
4.82348e-07
1.26025e-05
1.65955e-05
5.42967e-07
4.99137e-07
1.21779e-06
4.86008e-07
5.25009e-07
4.82348e-07
1.20857e-06
2.51892e-06
2.51951e-06
4.84042e-07
2.37148e-06
2.37214e-06
1.43151e-06
5.59237e-06
1.3307e-06
6.13508e-06
2.12848e-05
2.31116e-05
1.43187e-06
5.59313e-06
1.3305e-06
6.13634e-06
4.45574e-07
4.45574e-07
4.45575e-07
4.13573e-07
4.13573e-07
4.13574e-07
4.13574e-07
5.87299e-07
1.19528e-06
4.46483e-07
4.44622e-07
5.74002e-07
1.20483e-06
4.35743e-07
2.12864e-05
2.31127e-05
5.87309e-07
4.46484e-07
1.19533e-06
4.44623e-07
5.74008e-07
4.35743e-07
1.20486e-06
2.31294e-06
2.31338e-06
4.53586e-07
2.35426e-06
2.35453e-06
1.66354e-06
6.91713e-06
1.5961e-06
7.31889e-06
2.46421e-05
2.49387e-05
1.66359e-06
6.91823e-06
1.59612e-06
7.32032e-06
4.03788e-07
4.03789e-07
4.03789e-07
3.76731e-07
3.76731e-07
3.76732e-07
3.76733e-07
6.15706e-07
1.24319e-06
4.06598e-07
4.10825e-07
6.08546e-07
1.26593e-06
3.97781e-07
2.46436e-05
2.49399e-05
6.15715e-07
4.06599e-07
1.24314e-06
4.10826e-07
6.08557e-07
3.9778e-07
1.26591e-06
2.47448e-06
2.47492e-06
4.30312e-07
2.5331e-06
2.53357e-06
1.81239e-06
7.84465e-06
1.77232e-06
8.09766e-06
2.47386e-05
2.44315e-05
1.81246e-06
7.84607e-06
1.77239e-06
8.09911e-06
3.68405e-07
3.68407e-07
3.68407e-07
3.45233e-07
3.45234e-07
3.45235e-07
3.45236e-07
6.26359e-07
1.31336e-06
3.73523e-07
3.81796e-07
6.24971e-07
1.33397e-06
3.66073e-07
2.47401e-05
2.44319e-05
6.2637e-07
3.73526e-07
1.31337e-06
3.81798e-07
6.24978e-07
3.66074e-07
1.33396e-06
2.63558e-06
2.63606e-06
4.0859e-07
2.67963e-06
2.68014e-06
1.89281e-06
8.3941e-06
1.87305e-06
8.52762e-06
2.36943e-05
2.32658e-05
1.89289e-06
8.39551e-06
1.87313e-06
8.52909e-06
3.38055e-07
3.38056e-07
3.38057e-07
3.17947e-07
3.17948e-07
3.1795e-07
3.17951e-07
6.22128e-07
1.37225e-06
3.45276e-07
3.5602e-07
6.2548e-07
1.38731e-06
3.38801e-07
2.36957e-05
2.32658e-05
6.22143e-07
3.45279e-07
1.37229e-06
3.56022e-07
6.25491e-07
3.38803e-07
1.38733e-06
2.76378e-06
2.76434e-06
3.86934e-07
2.80551e-06
2.8061e-06
1.92983e-06
8.66201e-06
1.92162e-06
8.71698e-06
2.25031e-05
2.21205e-05
1.92991e-06
8.6634e-06
1.92171e-06
8.7183e-06
3.1168e-07
3.11682e-07
3.11683e-07
2.94029e-07
2.9403e-07
2.94032e-07
2.94033e-07
6.0888e-07
1.4161e-06
3.2052e-07
3.32738e-07
6.1538e-07
1.42769e-06
3.14774e-07
2.25045e-05
2.21205e-05
6.08895e-07
3.20525e-07
1.41612e-06
3.32741e-07
6.15391e-07
3.14776e-07
1.42771e-06
2.89499e-06
2.89564e-06
3.65562e-07
2.94367e-06
2.94437e-06
1.94785e-06
8.75792e-06
1.94344e-06
8.77118e-06
2.14784e-05
2.11787e-05
1.94792e-06
8.7591e-06
1.94353e-06
8.77235e-06
2.88501e-07
2.88503e-07
2.88504e-07
2.72861e-07
2.72863e-07
2.72865e-07
2.72866e-07
5.91842e-07
1.45273e-06
2.98431e-07
3.11598e-07
5.99354e-07
1.46412e-06
2.93265e-07
2.14799e-05
2.11787e-05
5.91858e-07
2.98436e-07
1.45284e-06
3.11601e-07
5.99365e-07
2.93267e-07
1.4641e-06
3.04889e-06
3.04964e-06
3.45115e-07
3.10575e-06
3.10656e-06
1.96558e-06
8.76891e-06
1.95937e-06
8.76218e-06
2.06747e-05
2.04531e-05
1.96567e-06
8.77024e-06
1.95945e-06
8.76349e-06
2.67945e-07
2.67947e-07
2.67948e-07
2.53993e-07
2.53994e-07
2.53997e-07
2.53998e-07
5.75421e-07
1.4917e-06
2.78515e-07
2.9246e-07
5.82249e-07
1.50548e-06
2.73841e-07
2.06766e-05
2.04529e-05
5.75441e-07
2.7852e-07
1.49179e-06
2.92464e-07
5.82259e-07
2.73844e-07
1.50551e-06
3.22631e-06
3.22721e-06
3.26245e-07
3.29079e-06
3.2917e-06
1.99549e-06
8.74878e-06
1.98417e-06
8.7427e-06
2.00719e-05
1.99111e-05
1.99558e-06
8.75028e-06
1.98426e-06
8.74342e-06
2.49596e-07
2.49598e-07
2.49599e-07
2.37094e-07
2.37096e-07
2.37098e-07
2.37099e-07
5.62872e-07
1.53974e-06
2.60483e-07
2.75288e-07
5.67804e-07
1.55778e-06
2.56251e-07
2.00729e-05
1.99118e-05
5.62887e-07
2.60489e-07
1.53987e-06
2.75291e-07
5.67813e-07
2.56253e-07
1.55773e-06
3.42194e-06
3.42292e-06
3.09478e-07
3.4915e-06
3.49259e-06
2.04517e-06
8.73379e-06
2.02659e-06
8.73067e-06
1.96325e-05
1.95164e-05
2.04522e-06
8.7344e-06
2.02671e-06
8.73254e-06
2.33149e-07
2.33151e-07
2.33152e-07
2.21919e-07
2.21921e-07
2.21923e-07
2.21924e-07
5.5647e-07
1.60094e-06
2.44162e-07
2.60079e-07
5.58614e-07
1.62362e-06
2.40338e-07
1.96332e-05
1.95173e-05
5.56488e-07
2.44168e-07
1.60098e-06
2.60083e-07
5.58624e-07
2.4034e-07
1.62365e-06
3.62719e-06
3.62837e-06
2.95188e-07
3.70038e-06
3.7016e-06
2.11894e-06
8.73146e-06
2.09188e-06
8.73345e-06
1.93184e-05
1.92353e-05
2.11902e-06
8.73305e-06
2.09196e-06
8.73448e-06
2.18374e-07
2.18376e-07
2.18377e-07
2.0828e-07
2.08282e-07
2.08285e-07
2.08286e-07
5.57587e-07
1.67638e-06
2.29439e-07
2.46842e-07
5.5672e-07
1.70387e-06
2.26001e-07
1.9319e-05
1.92366e-05
5.57597e-07
2.29445e-07
1.67635e-06
2.46844e-07
5.56729e-07
2.26003e-07
1.70389e-06
3.83555e-06
3.83684e-06
2.83655e-07
3.9089e-06
3.91037e-06
2.21863e-06
8.73975e-06
2.18268e-06
8.74957e-06
1.90952e-05
1.90408e-05
2.21885e-06
8.74226e-06
2.18256e-06
8.74772e-06
2.05096e-07
2.05098e-07
2.05099e-07
1.96031e-07
1.96033e-07
1.96036e-07
1.96036e-07
5.6692e-07
1.76533e-06
2.16235e-07
2.35575e-07
5.63089e-07
1.79687e-06
2.13168e-07
1.90973e-05
1.90411e-05
5.66952e-07
2.16242e-07
1.76551e-06
2.35579e-07
5.63104e-07
2.1317e-07
1.79681e-06
4.03956e-06
4.04104e-06
2.75025e-07
4.10831e-06
4.10973e-06
2.34405e-06
8.75606e-06
2.29914e-06
8.77168e-06
1.89421e-05
1.89052e-05
2.34357e-06
8.75973e-06
2.29929e-06
8.76989e-06
1.93174e-07
1.93176e-07
1.93177e-07
1.85053e-07
1.85056e-07
1.85058e-07
1.8506e-07
5.85831e-07
1.86567e-06
2.04491e-07
2.26281e-07
5.78755e-07
1.90049e-06
2.01779e-07
1.89423e-05
1.89059e-05
5.85825e-07
2.04496e-07
1.86562e-06
2.26288e-07
5.78808e-07
2.01781e-07
1.90051e-06
4.22984e-06
4.23139e-06
2.69521e-07
4.29395e-06
4.2957e-06
2.49134e-06
8.78121e-06
2.43931e-06
8.78724e-06
1.88367e-05
1.8806e-05
2.49159e-06
8.78161e-06
2.43888e-06
8.79017e-06
1.82501e-07
1.82501e-07
1.82504e-07
1.75259e-07
1.75256e-07
1.75261e-07
1.7526e-07
6.15006e-07
1.97429e-06
1.94153e-07
2.18984e-07
6.0417e-07
2.01137e-06
1.91787e-07
1.88367e-05
1.88079e-05
6.15052e-07
1.9416e-07
1.97456e-06
2.18992e-07
6.04325e-07
1.91788e-07
2.0112e-06
4.4045e-06
4.40628e-06
2.67221e-07
4.4617e-06
4.46351e-06
2.65735e-06
8.80291e-06
2.59702e-06
8.80329e-06
1.87543e-05
1.87396e-05
2.65707e-06
8.80119e-06
2.59736e-06
8.80827e-06
1.72981e-07
1.72984e-07
1.72982e-07
1.66558e-07
1.6656e-07
1.66563e-07
1.66565e-07
6.54713e-07
2.08882e-06
1.85186e-07
2.13684e-07
6.40429e-07
2.12629e-06
1.83155e-07
1.87567e-05
1.87394e-05
6.54562e-07
1.85192e-07
2.0884e-06
2.13695e-07
6.40388e-07
1.83159e-07
2.12642e-06
4.55751e-06
4.55929e-06
2.68047e-07
4.60707e-06
4.60864e-06
2.83144e-06
8.8263e-06
2.76764e-06
8.82765e-06
1.86985e-05
1.86831e-05
2.83111e-06
8.82342e-06
2.76811e-06
8.83363e-06
1.64556e-07
1.64559e-07
1.64565e-07
1.58897e-07
1.58901e-07
1.58901e-07
1.58903e-07
7.04319e-07
2.2032e-06
1.77543e-07
2.10506e-07
6.86888e-07
2.2411e-06
1.75846e-07
1.87006e-05
1.86825e-05
7.04194e-07
1.77552e-07
2.20341e-06
2.10534e-07
6.87223e-07
1.75847e-07
2.24096e-06
4.68991e-06
4.69194e-06
2.72694e-07
4.73109e-06
4.73313e-06
3.00745e-06
8.83852e-06
2.94317e-06
8.8494e-06
1.86513e-05
1.86306e-05
3.00781e-06
8.83677e-06
2.94454e-06
8.85069e-06
1.57153e-07
1.5716e-07
1.57161e-07
1.52271e-07
1.52264e-07
1.52294e-07
1.52276e-07
7.64809e-07
2.31753e-06
1.7123e-07
2.09449e-07
7.44442e-07
2.35289e-06
1.69856e-07
1.86534e-05
1.86306e-05
7.64456e-07
1.71226e-07
2.31632e-06
2.09546e-07
7.43875e-07
1.69855e-07
2.35172e-06
4.79869e-06
4.80036e-06
2.81358e-07
4.83267e-06
4.83438e-06
3.17991e-06
8.85127e-06
3.11794e-06
8.87273e-06
1.86049e-05
1.85884e-05
3.18323e-06
8.85594e-06
3.11838e-06
8.86161e-06
1.50741e-07
1.50776e-07
1.50753e-07
1.46764e-07
1.46638e-07
1.46606e-07
1.46693e-07
8.32907e-07
2.42403e-06
1.66159e-07
2.10605e-07
8.09477e-07
2.45757e-06
1.65097e-07
1.86095e-05
1.85889e-05
8.34738e-07
1.66244e-07
2.42347e-06
2.11018e-07
8.10427e-07
1.65188e-07
2.45831e-06
4.88953e-06
4.89115e-06
2.95932e-07
4.91444e-06
4.91673e-06
3.33763e-06
8.86971e-06
3.27742e-06
8.87504e-06
1.85712e-05
1.85626e-05
3.32971e-06
8.88398e-06
3.27984e-06
8.8847e-06
1.45472e-07
1.45451e-07
1.45555e-07
1.42167e-07
1.4216e-07
1.42518e-07
1.42228e-07
9.09825e-07
2.52011e-06
1.62573e-07
2.15921e-07
8.83551e-07
2.55237e-06
1.61884e-07
1.85681e-05
1.85614e-05
9.09217e-07
1.6258e-07
2.51854e-06
2.16282e-07
8.84875e-07
1.61923e-07
2.54486e-06
4.95137e-06
4.95186e-06
3.25024e-07
4.98563e-06
4.9873e-06
3.47194e-06
8.90087e-06
3.42848e-06
8.90024e-06
1.85554e-05
1.85474e-05
3.47341e-06
8.88399e-06
3.42006e-06
8.88004e-06
1.41087e-07
1.41499e-07
1.41106e-07
1.38295e-07
1.38071e-07
1.38253e-07
1.3808e-07
9.93766e-07
2.62732e-06
1.60244e-07
2.22163e-07
9.63655e-07
2.65662e-06
1.59901e-07
1.85577e-05
1.85562e-05
9.93463e-07
1.60442e-07
2.61848e-06
2.2559e-07
9.65358e-07
1.59985e-07
2.65297e-06
5.0243e-06
5.02641e-06
3.44593e-07
5.03941e-06
5.04288e-06
3.59401e-06
8.88793e-06
3.54783e-06
8.9003e-06
1.85112e-05
1.84953e-05
3.59798e-06
8.90217e-06
3.55748e-06
8.92291e-06
1.37111e-07
1.37179e-07
1.37127e-07
1.08078e-06
2.72417e-06
1.59117e-07
2.26825e-07
1.05502e-06
2.75906e-06
1.58779e-07
1.85127e-05
1.07489e-06
1.58899e-07
2.72049e-06
1.04871e-06
1.58604e-07
5.09174e-06
5.09453e-06
3.52056e-07
5.11571e-06
5.11696e-06
5.35197e-07
5.35994e-07
5.35991e-07
1.09111e-05
5.81361e-07
1.09125e-05
5.81358e-07
5.28303e-07
2.43029e-06
2.43092e-06
5.40842e-07
5.40835e-07
5.34569e-07
5.35439e-07
5.33635e-07
5.35608e-07
5.34569e-07
5.35438e-07
5.33634e-07
5.35608e-07
5.30398e-07
3.47031e-06
5.68226e-07
8.19947e-07
5.30398e-07
3.47044e-06
5.68213e-07
8.19868e-07
5.29522e-07
5.28493e-07
1.16562e-06
5.06099e-07
5.32668e-07
5.28418e-07
5.191e-07
5.29522e-07
5.28493e-07
1.16566e-06
5.06099e-07
5.32665e-07
5.28418e-07
5.19098e-07
5.35197e-07
5.35989e-07
5.35988e-07
1.0912e-05
5.81341e-07
5.28303e-07
2.43059e-06
2.4307e-06
5.40836e-07
5.40831e-07
1.09126e-05
5.81344e-07
5.34569e-07
5.35438e-07
5.33635e-07
5.35608e-07
5.34569e-07
5.35438e-07
5.35608e-07
5.33635e-07
5.30397e-07
3.47071e-06
5.68221e-07
8.20182e-07
5.29521e-07
5.28493e-07
1.16582e-06
5.06099e-07
5.32666e-07
5.28418e-07
5.19105e-07
5.30398e-07
3.47076e-06
5.68197e-07
8.20177e-07
5.29522e-07
5.28493e-07
5.06099e-07
1.16577e-06
5.28418e-07
5.32662e-07
5.191e-07
5.35653e-07
5.35523e-07
5.35636e-07
5.35636e-07
5.35653e-07
5.35523e-07
5.35636e-07
5.35636e-07
5.35653e-07
5.35523e-07
5.35636e-07
5.35636e-07
5.28432e-07
5.28492e-07
5.06195e-07
5.06195e-07
5.28422e-07
5.28422e-07
5.06264e-07
5.28432e-07
5.28492e-07
5.06195e-07
5.06195e-07
5.28422e-07
5.28422e-07
5.06264e-07
5.28432e-07
5.28492e-07
5.06195e-07
5.06195e-07
5.28422e-07
5.28422e-07
5.06264e-07
5.28432e-07
5.28492e-07
5.06195e-07
5.06195e-07
5.28422e-07
5.28422e-07
5.06264e-07
5.34569e-07
5.35439e-07
5.35608e-07
5.33634e-07
5.29522e-07
5.28493e-07
1.16575e-06
5.06099e-07
5.32662e-07
5.28418e-07
5.19101e-07
5.30397e-07
3.47074e-06
5.68206e-07
8.19912e-07
5.29522e-07
5.28493e-07
5.06099e-07
1.16563e-06
5.28418e-07
5.32659e-07
5.19096e-07
5.30397e-07
3.47079e-06
5.68192e-07
8.19852e-07
5.35198e-07
5.35987e-07
5.35987e-07
1.09129e-05
5.81317e-07
5.28303e-07
2.43082e-06
2.4307e-06
5.40828e-07
5.40826e-07
1.09125e-05
5.81334e-07
5.34569e-07
5.35438e-07
5.35608e-07
5.33634e-07
5.29522e-07
5.28493e-07
5.06099e-07
1.16573e-06
5.28418e-07
5.3266e-07
5.19104e-07
5.29522e-07
5.28493e-07
5.06099e-07
1.16577e-06
5.28418e-07
5.32658e-07
5.19102e-07
5.30397e-07
3.47076e-06
5.68194e-07
8.20053e-07
5.30397e-07
3.47096e-06
5.68187e-07
8.20111e-07
5.28302e-07
2.43055e-06
2.43114e-06
5.40823e-07
5.4082e-07
1.0913e-05
5.81311e-07
1.09136e-05
5.81315e-07
1.25997e-05
1.65916e-05
1.26014e-05
1.65945e-05
2.51875e-06
2.51941e-06
4.84041e-07
2.37139e-06
2.37204e-06
2.05276e-05
1.76792e-05
2.05312e-05
1.76826e-05
4.79192e-07
2.30695e-06
2.3076e-06
2.33935e-06
2.34018e-06
1.10659e-06
3.87817e-06
9.3201e-07
4.60405e-06
5.42963e-07
1.21771e-06
4.99137e-07
4.86012e-07
5.2503e-07
1.20854e-06
4.82348e-07
5.42959e-07
1.21784e-06
4.99137e-07
4.86018e-07
5.25024e-07
1.20872e-06
4.82348e-07
1.16125e-06
5.40671e-06
4.8083e-06
1.28145e-06
1.16122e-06
5.40774e-06
4.8087e-06
1.28149e-06
5.50947e-07
4.7476e-07
1.19366e-06
4.5781e-07
1.2043e-06
4.69755e-07
5.66564e-07
5.50956e-07
4.74768e-07
1.19385e-06
4.5781e-07
1.20444e-06
4.69756e-07
5.66568e-07
2.51925e-06
2.51892e-06
4.8404e-07
2.37197e-06
2.37134e-06
1.26013e-05
1.65938e-05
2.05308e-05
1.76817e-05
4.79192e-07
2.30762e-06
2.30696e-06
2.33997e-06
2.33959e-06
2.05294e-05
1.76811e-05
5.42996e-07
1.21794e-06
4.99137e-07
4.86016e-07
5.25012e-07
1.2088e-06
4.82348e-07
1.10695e-06
3.87868e-06
9.31662e-07
4.60432e-06
5.42994e-07
4.99137e-07
1.21797e-06
4.86018e-07
5.24998e-07
4.82348e-07
1.20882e-06
1.16098e-06
5.40785e-06
4.80885e-06
1.28174e-06
5.50949e-07
4.74765e-07
1.19386e-06
4.5781e-07
1.20452e-06
4.69755e-07
5.66574e-07
1.16086e-06
5.40815e-06
4.80938e-06
1.28171e-06
5.50949e-07
4.74769e-07
4.57811e-07
1.19386e-06
4.69756e-07
1.20454e-06
5.6658e-07
1.10657e-06
3.87829e-06
9.32003e-07
4.60387e-06
5.42964e-07
4.99137e-07
1.21774e-06
4.8601e-07
5.24999e-07
4.82348e-07
1.20855e-06
1.10656e-06
3.87865e-06
9.31878e-07
4.60402e-06
5.50951e-07
4.74757e-07
1.19368e-06
4.57809e-07
1.20431e-06
4.69755e-07
5.66542e-07
1.16118e-06
5.40746e-06
4.80867e-06
1.28125e-06
5.50941e-07
4.7476e-07
4.5781e-07
1.19373e-06
4.69755e-07
1.20432e-06
5.66556e-07
1.16111e-06
5.40795e-06
4.80931e-06
1.28133e-06
2.5196e-06
2.51901e-06
4.84042e-07
2.3722e-06
2.37151e-06
1.26013e-05
1.65934e-05
2.05321e-05
1.76836e-05
4.79191e-07
2.30763e-06
2.30707e-06
2.34024e-06
2.3396e-06
2.05295e-05
1.76811e-05
5.42985e-07
4.99137e-07
1.21792e-06
4.86015e-07
5.25e-07
4.82348e-07
1.20877e-06
1.10671e-06
3.87834e-06
9.31904e-07
4.60388e-06
1.10677e-06
3.87872e-06
9.31759e-07
4.60458e-06
5.50957e-07
4.74757e-07
4.5781e-07
1.19369e-06
4.69755e-07
1.20433e-06
5.66561e-07
5.50947e-07
4.74764e-07
4.5781e-07
1.19386e-06
4.69755e-07
1.20451e-06
5.66586e-07
1.16109e-06
5.40736e-06
4.80868e-06
1.28144e-06
1.16099e-06
5.40815e-06
4.8095e-06
1.28176e-06
1.26019e-05
1.65945e-05
1.26028e-05
1.6596e-05
4.79191e-07
2.30731e-06
2.3076e-06
2.33985e-06
2.34017e-06
2.05312e-05
1.76824e-05
2.05326e-05
1.7684e-05
2.12812e-05
2.31074e-05
2.12851e-05
2.31113e-05
2.31247e-06
2.31317e-06
4.53579e-07
2.35378e-06
2.35431e-06
2.44689e-05
2.35328e-05
2.44731e-05
2.35378e-05
4.50982e-07
2.44287e-06
2.44338e-06
2.38167e-06
2.38252e-06
1.43162e-06
5.59301e-06
1.33065e-06
6.13613e-06
5.87299e-07
1.19528e-06
4.46484e-07
4.44628e-07
5.73995e-07
1.20483e-06
4.35743e-07
5.87305e-07
1.19546e-06
4.46486e-07
4.44637e-07
5.74006e-07
1.20499e-06
4.35745e-07
1.47563e-06
6.7767e-06
6.30029e-06
1.55834e-06
1.47551e-06
6.77774e-06
6.30098e-06
1.55834e-06
5.9353e-07
4.35608e-07
1.23161e-06
4.15841e-07
1.21279e-06
4.25543e-07
6.03791e-07
5.93535e-07
4.35616e-07
1.23179e-06
4.15843e-07
1.2129e-06
4.25544e-07
6.03801e-07
2.31332e-06
2.3125e-06
4.53577e-07
2.35459e-06
2.35381e-06
2.12829e-05
2.3109e-05
2.4473e-05
2.3537e-05
4.50983e-07
2.44367e-06
2.44288e-06
2.38248e-06
2.38204e-06
2.44706e-05
2.35353e-05
5.87311e-07
1.19545e-06
4.46485e-07
4.4463e-07
5.74015e-07
1.20499e-06
4.35744e-07
1.432e-06
5.5937e-06
1.3305e-06
6.13681e-06
5.87316e-07
4.46486e-07
1.19553e-06
4.44639e-07
5.74017e-07
4.35745e-07
1.20501e-06
1.47538e-06
6.77807e-06
6.30126e-06
1.55835e-06
5.93549e-07
4.3561e-07
1.23176e-06
4.15842e-07
1.213e-06
4.25544e-07
6.03815e-07
1.47535e-06
6.77865e-06
6.3018e-06
1.55833e-06
5.93558e-07
4.35619e-07
4.15844e-07
1.23183e-06
4.25545e-07
1.213e-06
6.03821e-07
1.43159e-06
5.59296e-06
1.33088e-06
6.13586e-06
5.87303e-07
4.46485e-07
1.19536e-06
4.44628e-07
5.74003e-07
4.35744e-07
1.20489e-06
1.43175e-06
5.59353e-06
1.33079e-06
6.13657e-06
5.93538e-07
4.356e-07
1.23164e-06
4.15841e-07
1.21283e-06
4.25542e-07
6.03802e-07
1.47572e-06
6.77772e-06
6.30089e-06
1.55819e-06
5.93536e-07
4.35611e-07
4.15842e-07
1.23171e-06
4.25543e-07
1.21282e-06
6.03803e-07
1.4755e-06
6.7784e-06
6.30153e-06
1.55835e-06
2.31339e-06
2.31272e-06
4.53582e-07
2.35452e-06
2.35398e-06
2.12836e-05
2.31099e-05
2.44744e-05
2.35384e-05
4.50983e-07
2.44374e-06
2.443e-06
2.38257e-06
2.38185e-06
2.44712e-05
2.35354e-05
5.8732e-07
4.46485e-07
1.1955e-06
4.44632e-07
5.74008e-07
4.35745e-07
1.20504e-06
1.43169e-06
5.5931e-06
1.33078e-06
6.13589e-06
1.4319e-06
5.59403e-06
1.33054e-06
6.13682e-06
5.93546e-07
4.35602e-07
4.15841e-07
1.23165e-06
4.25542e-07
1.21282e-06
6.03814e-07
5.93552e-07
4.35611e-07
4.15843e-07
1.23186e-06
4.25544e-07
1.21303e-06
6.0382e-07
1.47571e-06
6.77772e-06
6.30099e-06
1.55816e-06
1.47544e-06
6.77877e-06
6.30197e-06
1.55838e-06
2.12851e-05
2.31115e-05
2.12869e-05
2.3113e-05
4.50985e-07
2.4433e-06
2.44373e-06
2.38214e-06
2.38256e-06
2.4473e-05
2.3537e-05
2.4475e-05
2.35388e-05
2.46381e-05
2.49348e-05
2.46428e-05
2.49393e-05
2.47401e-06
2.47484e-06
4.30297e-07
2.53272e-06
2.53335e-06
2.48365e-05
2.49369e-05
2.48408e-05
2.49413e-05
4.28599e-07
2.61107e-06
2.6117e-06
2.56076e-06
2.56145e-06
1.66355e-06
6.91796e-06
1.5961e-06
7.31997e-06
6.15692e-07
1.24308e-06
4.06599e-07
4.10834e-07
6.08533e-07
1.26585e-06
3.9778e-07
6.157e-07
1.24326e-06
4.06601e-07
4.10843e-07
6.08544e-07
1.26603e-06
3.97782e-07
1.69472e-06
7.75776e-06
7.43234e-06
1.74788e-06
1.69472e-06
7.75913e-06
7.43356e-06
1.74788e-06
6.18952e-07
4.03207e-07
1.30116e-06
3.81274e-07
1.27845e-06
3.89349e-07
6.23109e-07
6.18958e-07
4.03216e-07
1.30133e-06
3.81277e-07
1.27862e-06
3.89351e-07
6.23113e-07
2.47487e-06
2.47434e-06
4.30299e-07
2.53353e-06
2.53284e-06
2.46402e-05
2.49369e-05
2.48402e-05
2.49406e-05
4.28601e-07
2.61187e-06
2.61116e-06
2.56161e-06
2.56091e-06
2.48385e-05
2.4939e-05
6.15713e-07
1.2433e-06
4.066e-07
4.10831e-07
6.08558e-07
1.26605e-06
3.97782e-07
1.66358e-06
6.91879e-06
1.5961e-06
7.32088e-06
6.15715e-07
4.06602e-07
1.24329e-06
4.10846e-07
6.08562e-07
3.97784e-07
1.26609e-06
1.69478e-06
7.75917e-06
7.43367e-06
1.74794e-06
6.18974e-07
4.03203e-07
1.30136e-06
3.81276e-07
1.27865e-06
3.89351e-07
6.23129e-07
1.69477e-06
7.7597e-06
7.43414e-06
1.74793e-06
6.18976e-07
4.03219e-07
3.81278e-07
1.3014e-06
3.89353e-07
1.27868e-06
6.23129e-07
1.66358e-06
6.91778e-06
1.5963e-06
7.31962e-06
6.15705e-07
4.066e-07
1.24319e-06
4.10838e-07
6.08547e-07
3.97782e-07
1.26596e-06
1.66358e-06
6.9185e-06
1.59612e-06
7.32064e-06
6.18968e-07
4.03197e-07
1.30124e-06
3.81275e-07
1.27853e-06
3.89348e-07
6.23125e-07
1.6949e-06
7.75806e-06
7.43318e-06
1.74791e-06
6.18964e-07
4.03212e-07
3.81276e-07
1.30128e-06
3.89351e-07
1.27857e-06
6.23123e-07
1.69477e-06
7.75935e-06
7.43379e-06
1.74793e-06
2.47493e-06
2.4742e-06
4.30304e-07
2.53358e-06
2.53281e-06
2.46404e-05
2.49369e-05
2.48413e-05
2.49419e-05
4.28604e-07
2.61193e-06
2.61113e-06
2.56167e-06
2.56096e-06
2.48385e-05
2.49389e-05
6.1572e-07
4.06601e-07
1.24334e-06
4.10835e-07
6.08562e-07
3.97783e-07
1.26613e-06
1.66358e-06
6.91801e-06
1.59629e-06
7.31997e-06
1.66362e-06
6.91908e-06
1.59616e-06
7.32098e-06
6.18976e-07
4.03199e-07
3.81275e-07
1.30122e-06
3.8935e-07
1.27851e-06
6.23134e-07
6.18981e-07
4.03208e-07
3.81277e-07
1.30144e-06
3.89352e-07
1.27872e-06
6.23137e-07
1.6949e-06
7.75906e-06
7.43343e-06
1.74801e-06
1.69481e-06
7.76033e-06
7.43479e-06
1.74798e-06
2.46422e-05
2.49386e-05
2.46442e-05
2.49405e-05
4.28609e-07
2.61145e-06
2.61192e-06
2.56121e-06
2.56165e-06
2.48401e-05
2.49406e-05
2.48418e-05
2.49424e-05
2.47353e-05
2.44277e-05
2.47394e-05
2.44315e-05
2.63518e-06
2.63584e-06
4.08572e-07
2.67926e-06
2.6799e-06
2.38673e-05
2.42711e-05
2.38707e-05
2.42748e-05
4.0698e-07
2.74226e-06
2.74292e-06
2.70099e-06
2.70167e-06
1.8124e-06
7.84618e-06
1.77232e-06
8.09955e-06
6.26342e-07
1.31329e-06
3.73525e-07
3.81807e-07
6.24953e-07
1.33389e-06
3.66073e-07
6.26344e-07
1.31347e-06
3.73527e-07
3.81816e-07
6.24956e-07
1.33405e-06
3.66075e-07
1.83082e-06
8.3497e-06
8.16147e-06
1.85966e-06
1.83081e-06
8.35155e-06
8.16276e-06
1.85967e-06
6.26773e-07
3.75098e-07
1.36262e-06
3.5197e-07
1.34484e-06
3.58896e-07
6.25663e-07
6.26775e-07
3.75106e-07
1.36277e-06
3.51972e-07
1.34504e-06
3.58898e-07
6.25664e-07
2.63601e-06
2.63528e-06
4.08576e-07
2.68006e-06
2.67933e-06
2.47373e-05
2.44297e-05
2.38709e-05
2.42739e-05
4.06984e-07
2.74308e-06
2.74233e-06
2.70185e-06
2.70109e-06
2.38692e-05
2.42729e-05
6.26361e-07
1.3135e-06
3.73526e-07
3.818e-07
6.24975e-07
1.3341e-06
3.66075e-07
1.81245e-06
7.84644e-06
1.77238e-06
8.09942e-06
6.2636e-07
3.73529e-07
1.31354e-06
3.81819e-07
6.24975e-07
3.66078e-07
1.33415e-06
1.8309e-06
8.35121e-06
8.16291e-06
1.85974e-06
6.26794e-07
3.7509e-07
1.36282e-06
3.51972e-07
1.34505e-06
3.58898e-07
6.25683e-07
1.83089e-06
8.35147e-06
8.16345e-06
1.85973e-06
6.26793e-07
3.7511e-07
3.51975e-07
1.36287e-06
3.589e-07
1.34509e-06
6.2568e-07
1.81241e-06
7.84613e-06
1.77249e-06
8.09803e-06
6.26356e-07
3.73526e-07
1.31342e-06
3.81814e-07
6.24965e-07
3.66075e-07
1.33401e-06
1.81244e-06
7.84611e-06
1.77237e-06
8.09915e-06
6.26792e-07
3.75085e-07
1.36268e-06
3.5197e-07
1.3449e-06
3.58894e-07
6.2568e-07
1.831e-06
8.35052e-06
8.16341e-06
1.85968e-06
6.26787e-07
3.75105e-07
3.51972e-07
1.36273e-06
3.58897e-07
1.34496e-06
6.25678e-07
1.83088e-06
8.35136e-06
8.16315e-06
1.85972e-06
2.63606e-06
2.63534e-06
4.08581e-07
2.68014e-06
2.67932e-06
2.47372e-05
2.44294e-05
2.38711e-05
2.42755e-05
4.06989e-07
2.74316e-06
2.74233e-06
2.70188e-06
2.70116e-06
2.38688e-05
2.42728e-05
6.26371e-07
3.73528e-07
1.31358e-06
3.81806e-07
6.24982e-07
3.66077e-07
1.33418e-06
1.81252e-06
7.84576e-06
1.77244e-06
8.09913e-06
1.8125e-06
7.8473e-06
1.77242e-06
8.10054e-06
6.26802e-07
3.75088e-07
3.51972e-07
1.36268e-06
3.58897e-07
1.34493e-06
6.25695e-07
6.26804e-07
3.75096e-07
3.51974e-07
1.36291e-06
3.58899e-07
1.34515e-06
6.25694e-07
1.83094e-06
8.35136e-06
8.1625e-06
1.8598e-06
1.83092e-06
8.35236e-06
8.16378e-06
1.85978e-06
2.47387e-05
2.44312e-05
2.47405e-05
2.44325e-05
4.06997e-07
2.74262e-06
2.74317e-06
2.70138e-06
2.7019e-06
2.38706e-05
2.42742e-05
2.38717e-05
2.42757e-05
2.36916e-05
2.32623e-05
2.3695e-05
2.32654e-05
2.7634e-06
2.76411e-06
3.86911e-07
2.80513e-06
2.80583e-06
2.26695e-05
2.30853e-05
2.26723e-05
2.30884e-05
3.85367e-07
2.87143e-06
2.87218e-06
2.82696e-06
2.82771e-06
1.89281e-06
8.39476e-06
1.87304e-06
8.52883e-06
6.2211e-07
1.37218e-06
3.45278e-07
3.56033e-07
6.25462e-07
1.38725e-06
3.38801e-07
6.2211e-07
1.3724e-06
3.4528e-07
3.56041e-07
6.25463e-07
1.38742e-06
3.38803e-07
1.90221e-06
8.64534e-06
8.55611e-06
1.91511e-06
1.9022e-06
8.64636e-06
8.5566e-06
1.91511e-06
6.21491e-07