/*--------------------------------*- C++ -*----------------------------------*\
| =========                 |                                                 |
| \\      /  F ield         | OpenFOAM: The Open Source CFD Toolbox           |
|  \\    /   O peration     | Version:  2312                                  |
|   \\  /    A nd           | Website:  www.openfoam.com                      |
|    \\/     M anipulation  |                                                 |
\*---------------------------------------------------------------------------*/
FoamFile
{
    version     2.0;
    format      ascii;
    arch        "LSB;label=32;scalar=64";
    class       volScalarField;
    location    "500";
    object      k;
}
// * * * * * * * * * * * * * * * * * * * * * * * * * * * * * * * * * * * * * //

dimensions      [0 2 -2 0 0 0 0];

internalField   nonuniform List<scalar> 
43211
(
3.60232e-05
3.60198e-05
3.60198e-05
3.60083e-05
3.39295e-05
3.38866e-05
3.38866e-05
3.39612e-05
3.21573e-05
3.20055e-05
3.20055e-05
3.19506e-05
3.05338e-05
3.02267e-05
3.02267e-05
2.99864e-05
2.90318e-05
2.85515e-05
2.85515e-05
2.81202e-05
2.76341e-05
2.69848e-05
2.69847e-05
2.63881e-05
2.63294e-05
2.55287e-05
2.55286e-05
2.48046e-05
2.51097e-05
2.41827e-05
2.41826e-05
2.33754e-05
2.39694e-05
2.29484e-05
2.29483e-05
2.21019e-05
2.29042e-05
2.18247e-05
2.18245e-05
2.09832e-05
2.19105e-05
2.08092e-05
2.08091e-05
2.00109e-05
2.09849e-05
1.98992e-05
1.9899e-05
1.91787e-05
2.01226e-05
1.90928e-05
1.90928e-05
1.84884e-05
1.93224e-05
1.83872e-05
1.83871e-05
1.79335e-05
1.85834e-05
1.77785e-05
1.77782e-05
1.75108e-05
1.79037e-05
1.72667e-05
1.72668e-05
1.72062e-05
1.728e-05
1.68531e-05
1.68536e-05
1.705e-05
1.67094e-05
1.65339e-05
1.6533e-05
1.70454e-05
1.62015e-05
1.63386e-05
1.63607e-05
1.72844e-05
1.5758e-05
1.62519e-05
1.62511e-05
1.76105e-05
1.5367e-05
1.64197e-05
1.66022e-05
1.90705e-05
3.62984e-05
3.62919e-05
3.62919e-05
3.62984e-05
3.62919e-05
3.62919e-05
3.62908e-05
3.62908e-05
3.62908e-05
3.62908e-05
3.62919e-05
3.62919e-05
3.62984e-05
3.62919e-05
3.62919e-05
3.62984e-05
3.60084e-05
3.42676e-05
3.60198e-05
3.60198e-05
3.43745e-05
3.43744e-05
3.60083e-05
3.42677e-05
3.60198e-05
3.60198e-05
3.43745e-05
3.43744e-05
3.60198e-05
3.43745e-05
3.43745e-05
3.60083e-05
3.42677e-05
3.60198e-05
3.43745e-05
3.43745e-05
3.42676e-05
3.39612e-05
3.22619e-05
3.38865e-05
3.38865e-05
3.24658e-05
3.24657e-05
3.39612e-05
3.22619e-05
3.38865e-05
3.38865e-05
3.24659e-05
3.24657e-05
3.38865e-05
3.2466e-05
3.24658e-05
3.39612e-05
3.22619e-05
3.38865e-05
3.24659e-05
3.24659e-05
3.22618e-05
3.19507e-05
3.02973e-05
3.20054e-05
3.20053e-05
3.06617e-05
3.06616e-05
3.19506e-05
3.02973e-05
3.20054e-05
3.20052e-05
3.06618e-05
3.06615e-05
3.20053e-05
3.0662e-05
3.06617e-05
3.19506e-05
3.02972e-05
3.20054e-05
3.06619e-05
3.06618e-05
3.02971e-05
2.99865e-05
2.8423e-05
3.02264e-05
3.02263e-05
2.89599e-05
2.89597e-05
2.99865e-05
2.8423e-05
3.02266e-05
3.02262e-05
2.89601e-05
2.89596e-05
3.02264e-05
2.89603e-05
2.89598e-05
2.99864e-05
2.84228e-05
3.02265e-05
2.89602e-05
2.896e-05
2.84227e-05
2.81205e-05
2.66716e-05
2.85511e-05
2.85509e-05
2.73656e-05
2.73653e-05
2.81204e-05
2.66715e-05
2.85514e-05
2.85508e-05
2.73659e-05
2.73652e-05
2.8551e-05
2.73661e-05
2.73655e-05
2.81203e-05
2.66714e-05
2.85513e-05
2.7366e-05
2.73658e-05
2.66712e-05
2.63884e-05
2.50638e-05
2.69842e-05
2.6984e-05
2.58817e-05
2.58815e-05
2.63883e-05
2.50638e-05
2.69846e-05
2.69839e-05
2.58822e-05
2.58813e-05
2.69841e-05
2.58824e-05
2.58816e-05
2.63882e-05
2.50636e-05
2.69844e-05
2.58823e-05
2.5882e-05
2.50633e-05
2.4805e-05
2.361e-05
2.5528e-05
2.55277e-05
2.4508e-05
2.45077e-05
2.48049e-05
2.36099e-05
2.55285e-05
2.55276e-05
2.45085e-05
2.45075e-05
2.55279e-05
2.45087e-05
2.45078e-05
2.48047e-05
2.36097e-05
2.55283e-05
2.45086e-05
2.45083e-05
2.36095e-05
2.33758e-05
2.23099e-05
2.41819e-05
2.41816e-05
2.32456e-05
2.32453e-05
2.33758e-05
2.23098e-05
2.41825e-05
2.41814e-05
2.32463e-05
2.32451e-05
2.41817e-05
2.32465e-05
2.32455e-05
2.33757e-05
2.23096e-05
2.41823e-05
2.32464e-05
2.32461e-05
2.23093e-05
2.21025e-05
2.11657e-05
2.29475e-05
2.29471e-05
2.20943e-05
2.2094e-05
2.21022e-05
2.11656e-05
2.29481e-05
2.2947e-05
2.20951e-05
2.20939e-05
2.29473e-05
2.20953e-05
2.20942e-05
2.2102e-05
2.11653e-05
2.29479e-05
2.20952e-05
2.20949e-05
2.1165e-05
2.09838e-05
2.01686e-05
2.18237e-05
2.18234e-05
2.10521e-05
2.10517e-05
2.09837e-05
2.01682e-05
2.18244e-05
2.18232e-05
2.10529e-05
2.10516e-05
2.18236e-05
2.10531e-05
2.1052e-05
2.09835e-05
2.01679e-05
2.18243e-05
2.1053e-05
2.10527e-05
2.01677e-05
2.00116e-05
1.93127e-05
2.08081e-05
2.08078e-05
2.0116e-05
2.01157e-05
2.00113e-05
1.93127e-05
2.0809e-05
2.08077e-05
2.01169e-05
2.01156e-05
2.08081e-05
2.01171e-05
2.01158e-05
2.00109e-05
1.93124e-05
2.08088e-05
2.0117e-05
2.01167e-05
1.93119e-05
1.91797e-05
1.85887e-05
1.98981e-05
1.98978e-05
1.92837e-05
1.92835e-05
1.91796e-05
1.85884e-05
1.9899e-05
1.98976e-05
1.92847e-05
1.92834e-05
1.9898e-05
1.92849e-05
1.92837e-05
1.91794e-05
1.85887e-05
1.98988e-05
1.92848e-05
1.92845e-05
1.85885e-05
1.84887e-05
1.79956e-05
1.90919e-05
1.90913e-05
1.85526e-05
1.85529e-05
1.84888e-05
1.79961e-05
1.90928e-05
1.90914e-05
1.85536e-05
1.85527e-05
1.90916e-05
1.85542e-05
1.85531e-05
1.84887e-05
1.79972e-05
1.90924e-05
1.8554e-05
1.85541e-05
1.79974e-05
1.79321e-05
1.75405e-05
1.83859e-05
1.83858e-05
1.79211e-05
1.79204e-05
1.79331e-05
1.7539e-05
1.8387e-05
1.83858e-05
1.7922e-05
1.79206e-05
1.8386e-05
1.79215e-05
1.79207e-05
1.79335e-05
1.75397e-05
1.83867e-05
1.79222e-05
1.79215e-05
1.75412e-05
1.75085e-05
1.72233e-05
1.77772e-05
1.77778e-05
1.73841e-05
1.73843e-05
1.75089e-05
1.72236e-05
1.77782e-05
1.77767e-05
1.73845e-05
1.73855e-05
1.77778e-05
1.7386e-05
1.73844e-05
1.75088e-05
1.72282e-05
1.77787e-05
1.7386e-05
1.73844e-05
1.72237e-05
1.72073e-05
1.7048e-05
1.72673e-05
1.72641e-05
1.69433e-05
1.69452e-05
1.72065e-05
1.70483e-05
1.72676e-05
1.72662e-05
1.69451e-05
1.69465e-05
1.72652e-05
1.69455e-05
1.69449e-05
1.72115e-05
1.70519e-05
1.72652e-05
1.69476e-05
1.69459e-05
1.70503e-05
1.7045e-05
1.70362e-05
1.68509e-05
1.68528e-05
1.66049e-05
1.66028e-05
1.70493e-05
1.70202e-05
1.68512e-05
1.68532e-05
1.66079e-05
1.66075e-05
1.68532e-05
1.66048e-05
1.66069e-05
1.70522e-05
1.70376e-05
1.68536e-05
1.66092e-05
1.66064e-05
1.70317e-05
1.70515e-05
1.72195e-05
1.65277e-05
1.65301e-05
1.63983e-05
1.63889e-05
1.70295e-05
1.72151e-05
1.65307e-05
1.65299e-05
1.63965e-05
1.64005e-05
1.65304e-05
1.63881e-05
1.63958e-05
1.70467e-05
1.72575e-05
1.653e-05
1.6399e-05
1.63957e-05
1.72085e-05
1.72957e-05
1.75303e-05
1.63419e-05
1.63408e-05
1.62677e-05
1.62385e-05
1.72736e-05
1.74584e-05
1.63443e-05
1.63583e-05
1.62742e-05
1.62367e-05
1.63469e-05
1.62412e-05
1.6248e-05
1.73214e-05
1.74713e-05
1.63467e-05
1.62474e-05
1.62494e-05
1.7449e-05
1.77643e-05
1.89762e-05
1.62992e-05
1.62487e-05
1.64604e-05
1.64235e-05
1.75941e-05
1.88374e-05
1.63034e-05
1.62407e-05
1.64456e-05
1.65263e-05
1.62653e-05
1.64107e-05
1.64544e-05
1.75194e-05
1.94096e-05
1.6268e-05
1.65186e-05
1.6471e-05
1.90277e-05
1.89995e-05
1.64445e-05
1.64332e-05
1.89389e-05
1.64291e-05
1.66122e-05
1.64549e-05
1.97088e-05
1.64713e-05
3.73769e-05
3.73764e-05
3.73767e-05
3.73767e-05
3.73694e-05
3.73756e-05
3.73043e-05
3.73764e-05
3.73694e-05
3.73756e-05
3.73764e-05
3.73043e-05
3.73714e-05
3.72959e-05
3.72959e-05
3.58829e-05
4.08682e-05
3.6601e-05
4.51379e-05
5.511e-05
6.4888e-05
3.58835e-05
4.08678e-05
3.66009e-05
4.51406e-05
3.60232e-05
3.60232e-05
3.60232e-05
3.44005e-05
3.44005e-05
3.44005e-05
3.44005e-05
3.52763e-05
3.56384e-05
3.60241e-05
3.53761e-05
3.60479e-05
3.42425e-05
3.53827e-05
5.51119e-05
6.48897e-05
3.52764e-05
3.60241e-05
3.5638e-05
3.53761e-05
3.60478e-05
3.53827e-05
3.4243e-05
3.65941e-05
3.65948e-05
3.52782e-05
3.40675e-05
3.40666e-05
3.39695e-05
5.13501e-05
3.46835e-05
5.46187e-05
7.65447e-05
8.08615e-05
3.39704e-05
5.13506e-05
3.46829e-05
5.4622e-05
3.39295e-05
3.39295e-05
3.39295e-05
3.25851e-05
3.25851e-05
3.25851e-05
3.25851e-05
3.30546e-05
3.24828e-05
3.3929e-05
3.34062e-05
3.38972e-05
3.1583e-05
3.34673e-05
7.65472e-05
8.08625e-05
3.30547e-05
3.3929e-05
3.24822e-05
3.34062e-05
3.3897e-05
3.34673e-05
3.15843e-05
3.17211e-05
3.17215e-05
3.32624e-05
3.09282e-05
3.09265e-05
3.22518e-05
5.91666e-05
3.29223e-05
6.1436e-05
8.43931e-05
8.50688e-05
3.22518e-05
5.91685e-05
3.29221e-05
6.14392e-05
3.21574e-05
3.21574e-05
3.21574e-05
3.09274e-05
3.09274e-05
3.09274e-05
3.09274e-05
3.07891e-05
3.05189e-05
3.21369e-05
3.15514e-05
3.1637e-05
2.98911e-05
3.17094e-05
8.43943e-05
8.50695e-05
3.07894e-05
3.21369e-05
3.05181e-05
3.15514e-05
3.16368e-05
3.17094e-05
2.98911e-05
3.02183e-05
3.02181e-05
3.12712e-05
3.00048e-05
3.00042e-05
3.07528e-05
6.4344e-05
3.13492e-05
6.57204e-05
8.46133e-05
8.39115e-05
3.07529e-05
6.43469e-05
3.13491e-05
6.57231e-05
3.05338e-05
3.05338e-05
3.05338e-05
2.93969e-05
2.93969e-05
2.93969e-05
2.93969e-05
2.85998e-05
2.9145e-05
3.04686e-05
2.97979e-05
2.94126e-05
2.86777e-05
3.00678e-05
8.46144e-05
8.39104e-05
2.86004e-05
3.04685e-05
2.91449e-05
2.97979e-05
2.94123e-05
3.00678e-05
2.86779e-05
2.99406e-05
2.99405e-05
2.9346e-05
3.00348e-05
3.00348e-05
2.95174e-05
6.73144e-05
2.99994e-05
6.80265e-05
8.22149e-05
8.12207e-05
2.95175e-05
6.73167e-05
2.99996e-05
6.80291e-05
2.90317e-05
2.90317e-05
2.90317e-05
2.79744e-05
2.79744e-05
2.79743e-05
2.79743e-05
2.65666e-05
2.81251e-05
2.89018e-05
2.81495e-05
2.73165e-05
2.77829e-05
2.85246e-05
8.22161e-05
8.12187e-05
2.65673e-05
2.89016e-05
2.81252e-05
2.81495e-05
2.73161e-05
2.85246e-05
2.77832e-05
3.0448e-05
3.04486e-05
2.75304e-05
3.0764e-05
3.07647e-05
2.86035e-05
6.87391e-05
2.89461e-05
6.90299e-05
7.9436e-05
7.85329e-05
2.86037e-05
6.87411e-05
2.89463e-05
6.90316e-05
2.7634e-05
2.7634e-05
2.7634e-05
2.66473e-05
2.66472e-05
2.66472e-05
2.66472e-05
2.47423e-05
2.7407e-05
2.74276e-05
2.66103e-05
2.54134e-05
2.71912e-05
2.70731e-05
7.9437e-05
7.85309e-05
2.47433e-05
2.74275e-05
2.74073e-05
2.66103e-05
2.54129e-05
2.7073e-05
2.71922e-05
3.16009e-05
3.16022e-05
2.58484e-05
3.21288e-05
3.21271e-05
2.80579e-05
6.9246e-05
2.82436e-05
6.93157e-05
7.70058e-05
7.62874e-05
2.80583e-05
6.92468e-05
2.82438e-05
6.93166e-05
2.63293e-05
2.63293e-05
2.63293e-05
2.5407e-05
2.54069e-05
2.54069e-05
2.54069e-05
2.31627e-05
2.70013e-05
2.60433e-05
2.51817e-05
2.37456e-05
2.69213e-05
2.5711e-05
7.70073e-05
7.62857e-05
2.31632e-05
2.60431e-05
2.70013e-05
2.51817e-05
2.37454e-05
2.5711e-05
2.6922e-05
3.32074e-05
3.32092e-05
2.43172e-05
3.39091e-05
3.39088e-05
2.79127e-05
6.93037e-05
2.79263e-05
6.92681e-05
7.50722e-05
7.45349e-05
2.79129e-05
6.93053e-05
2.79268e-05
6.92696e-05
2.51097e-05
2.51096e-05
2.51096e-05
2.42473e-05
2.42472e-05
2.42471e-05
2.42471e-05
2.18455e-05
2.69333e-05
2.47477e-05
2.38636e-05
2.23366e-05
2.69831e-05
2.44375e-05
7.50751e-05
7.45326e-05
2.18458e-05
2.47475e-05
2.69331e-05
2.38635e-05
2.2336e-05
2.44374e-05
2.69836e-05
3.51822e-05
3.51853e-05
2.29396e-05
3.59639e-05
3.59705e-05
2.81568e-05
6.91976e-05
2.80308e-05
6.91653e-05
7.36058e-05
7.32127e-05
2.81572e-05
6.92001e-05
2.8031e-05
6.91638e-05
2.39694e-05
2.39693e-05
2.39693e-05
2.31636e-05
2.31636e-05
2.31635e-05
2.31635e-05
2.08002e-05
2.72005e-05
2.35398e-05
2.26572e-05
2.11946e-05
2.73541e-05
2.32509e-05
7.36066e-05
7.32123e-05
2.07996e-05
2.35396e-05
2.72001e-05
2.2657e-05
2.11946e-05
2.32508e-05
2.73551e-05
3.74085e-05
3.74065e-05
2.17182e-05
3.83378e-05
3.8347e-05
2.8823e-05
6.91182e-05
2.85509e-05
6.91025e-05
7.25283e-05
7.22418e-05
2.88235e-05
6.9116e-05
2.85509e-05
6.91071e-05
2.29042e-05
2.29041e-05
2.29041e-05
2.21523e-05
2.21523e-05
2.21521e-05
2.21521e-05
2.00267e-05
2.77804e-05
2.2416e-05
2.15608e-05
2.0318e-05
2.80332e-05
2.21479e-05
7.25279e-05
7.2242e-05
2.00277e-05
2.24157e-05
2.77805e-05
2.15607e-05
2.03167e-05
2.21478e-05
2.80341e-05
3.98006e-05
3.98027e-05
2.06486e-05
4.08126e-05
4.08178e-05
2.99137e-05
6.91066e-05
2.94948e-05
6.91163e-05
7.17523e-05
7.15467e-05
2.99288e-05
6.91096e-05
2.94988e-05
6.91165e-05
2.19104e-05
2.19103e-05
2.19103e-05
2.121e-05
2.12099e-05
2.12098e-05
2.12097e-05
1.95201e-05
2.86482e-05
2.13757e-05
2.0572e-05
1.97025e-05
2.89912e-05
2.11287e-05
7.17519e-05
7.15477e-05
1.9521e-05
2.13754e-05
2.86503e-05
2.05719e-05
1.9702e-05
2.11285e-05
2.89903e-05
4.23011e-05
4.23103e-05
1.97225e-05
4.3153e-05
4.31539e-05
3.14234e-05
6.915e-05
3.08147e-05
6.92011e-05
7.11989e-05
7.10635e-05
3.14183e-05
6.91578e-05
3.08399e-05
6.91864e-05
2.09849e-05
2.09847e-05
2.09847e-05
2.03325e-05
2.03325e-05
2.03323e-05
2.03323e-05
1.92787e-05
2.97737e-05
2.04188e-05
1.96879e-05
1.93514e-05
3.01933e-05
2.01921e-05
7.12018e-05
7.10622e-05
1.92781e-05
2.04185e-05
2.97702e-05
1.96879e-05
1.93512e-05
2.01919e-05
3.01952e-05
4.46315e-05
4.46274e-05
1.89333e-05
4.54493e-05
4.54637e-05
3.3395e-05
6.92358e-05
3.2484e-05
6.93186e-05
7.08177e-05
7.07257e-05
3.33197e-05
6.92502e-05
3.25383e-05
6.93033e-05
2.01225e-05
2.01224e-05
2.01223e-05
1.95165e-05
1.95165e-05
1.95163e-05
1.95164e-05
1.93004e-05
3.11147e-05
1.95421e-05
1.89069e-05
1.9264e-05
3.15932e-05
1.93351e-05
7.08162e-05
7.07251e-05
1.92975e-05
1.95419e-05
3.11205e-05
1.89067e-05
1.92659e-05
1.93349e-05
3.15875e-05
4.68004e-05
4.68124e-05
1.82742e-05
4.78174e-05
4.78224e-05
3.54509e-05
6.93681e-05
3.46723e-05
6.94001e-05
7.05548e-05
7.0478e-05
3.55109e-05
6.93652e-05
3.45979e-05
6.941e-05
1.93224e-05
1.93223e-05
1.93222e-05
1.87627e-05
1.87625e-05
1.87625e-05
1.87624e-05
1.95717e-05
3.26284e-05
1.8743e-05
1.82259e-05
1.94529e-05
3.31472e-05
1.8555e-05
7.05526e-05
7.04808e-05
1.95675e-05
1.87427e-05
3.2622e-05
1.82257e-05
1.94521e-05
1.85547e-05
3.31467e-05
4.90566e-05
4.90709e-05
1.775e-05
4.9649e-05
4.96427e-05
3.78713e-05
6.94836e-05
3.70325e-05
6.94846e-05
7.03486e-05
7.03118e-05
3.78059e-05
6.94689e-05
3.70692e-05
6.9504e-05
1.85834e-05
1.85831e-05
1.85834e-05
1.80677e-05
1.80678e-05
1.80677e-05
1.80675e-05
2.00923e-05
3.42364e-05
1.80186e-05
1.76414e-05
1.98935e-05
3.47934e-05
1.7849e-05
7.03529e-05
7.03094e-05
2.00852e-05
1.80186e-05
3.42506e-05
1.76414e-05
1.99039e-05
1.7849e-05
3.47887e-05
5.07817e-05
5.0791e-05
1.73657e-05
5.16296e-05
5.1657e-05
4.05763e-05
6.96064e-05
3.95041e-05
6.96131e-05
7.0209e-05
7.01714e-05
4.05601e-05
6.95856e-05
3.94724e-05
6.96379e-05
1.7903e-05
1.79031e-05
1.7903e-05
1.74298e-05
1.74301e-05
1.74304e-05
1.74298e-05
2.08683e-05
3.59308e-05
1.73677e-05
1.71535e-05
2.06061e-05
3.65045e-05
1.72163e-05
7.02123e-05
7.01675e-05
2.08682e-05
1.73671e-05
3.59272e-05
1.7154e-05
2.05853e-05
1.72161e-05
3.64978e-05
5.26097e-05
5.26042e-05
1.71136e-05
5.30742e-05
5.30874e-05
4.32018e-05
6.96693e-05
4.20667e-05
6.97276e-05
7.00912e-05
7.00394e-05
4.31462e-05
6.96557e-05
4.20318e-05
6.97271e-05
1.72798e-05
1.72799e-05
1.728e-05
1.6848e-05
1.68483e-05
1.68492e-05
1.68482e-05
2.18578e-05
3.76067e-05
1.67877e-05
1.6767e-05
2.15164e-05
3.81752e-05
1.66545e-05
7.00943e-05
7.00373e-05
2.18639e-05
1.67882e-05
3.76227e-05
1.67669e-05
2.15348e-05
1.66545e-05
3.81838e-05
5.41514e-05
5.41746e-05
1.70322e-05
5.43562e-05
5.43605e-05
4.57812e-05
6.97362e-05
4.44942e-05
6.98493e-05
6.99753e-05
6.99337e-05
4.5542e-05
6.97566e-05
4.46742e-05
6.97844e-05
1.67108e-05
1.67103e-05
1.67095e-05
1.6328e-05
1.63259e-05
1.63282e-05
1.63276e-05
2.31326e-05
3.93054e-05
1.62806e-05
1.64715e-05
2.27314e-05
3.98407e-05
1.61646e-05
6.99844e-05
6.99329e-05
2.30904e-05
1.62791e-05
3.92767e-05
1.64709e-05
2.27177e-05
1.61632e-05
3.98171e-05
5.53559e-05
5.53765e-05
1.70768e-05
5.55087e-05
5.55049e-05
4.80339e-05
6.98343e-05
4.71671e-05
6.98605e-05
6.98906e-05
6.98694e-05
4.81755e-05
6.99033e-05
4.72699e-05
6.99075e-05
1.6201e-05
1.62048e-05
1.62016e-05
1.58542e-05
1.58486e-05
1.58481e-05
1.58497e-05
2.45025e-05
4.09053e-05
1.58397e-05
1.62795e-05
2.40604e-05
4.14647e-05
1.57374e-05
6.98804e-05
6.98638e-05
2.4604e-05
1.58443e-05
4.0887e-05
1.63093e-05
2.4082e-05
1.5746e-05
4.16065e-05
5.66662e-05
5.66997e-05
1.73693e-05
5.67474e-05
5.67517e-05
5.03896e-05
6.99968e-05
4.926e-05
6.99948e-05
6.98504e-05
6.98309e-05
4.99346e-05
6.99039e-05
4.92761e-05
6.98832e-05
1.57461e-05
1.57434e-05
1.57495e-05
1.54721e-05
1.54652e-05
1.54834e-05
1.54754e-05
2.608e-05
4.22364e-05
1.54776e-05
1.62997e-05
2.56063e-05
4.29195e-05
1.54016e-05
6.98537e-05
6.98506e-05
2.60344e-05
1.54776e-05
4.21684e-05
1.62827e-05
2.55745e-05
1.54012e-05
4.27143e-05
5.73864e-05
5.73498e-05
1.83981e-05
5.78796e-05
5.78803e-05
5.17826e-05
6.99299e-05
5.12846e-05
6.99932e-05
6.97397e-05
6.96992e-05
5.19128e-05
6.99967e-05
5.12598e-05
7.01068e-05
1.5367e-05
1.53974e-05
1.53735e-05
2.78248e-05
4.38634e-05
1.5187e-05
1.64128e-05
2.7138e-05
4.41605e-05
1.51233e-05
6.97421e-05
2.78242e-05
1.52043e-05
4.38382e-05
2.72522e-05
1.51442e-05
5.82586e-05
5.82963e-05
1.89323e-05
5.82668e-05
5.83408e-05
3.73714e-05
3.72958e-05
3.72959e-05
5.31077e-05
3.71932e-05
5.31099e-05
3.71933e-05
3.70971e-05
3.72394e-05
3.72389e-05
3.71762e-05
3.71762e-05
3.73695e-05
3.73756e-05
3.73042e-05
3.73764e-05
3.73695e-05
3.73756e-05
3.73042e-05
3.73764e-05
3.71731e-05
3.94089e-05
3.7168e-05
3.67245e-05
3.71731e-05
3.9409e-05
3.7168e-05
3.67242e-05
3.70969e-05
3.71056e-05
3.60251e-05
3.62911e-05
3.71635e-05
3.71112e-05
3.63053e-05
3.70969e-05
3.71056e-05
3.60251e-05
3.62911e-05
3.71635e-05
3.71112e-05
3.63053e-05
3.73714e-05
3.72958e-05
3.72959e-05
5.3109e-05
3.71932e-05
3.70971e-05
3.72393e-05
3.72383e-05
3.71762e-05
3.71762e-05
5.31102e-05
3.71932e-05
3.73695e-05
3.73756e-05
3.73042e-05
3.73764e-05
3.73695e-05
3.73756e-05
3.73764e-05
3.73043e-05
3.71731e-05
3.94096e-05
3.7168e-05
3.67245e-05
3.70969e-05
3.71056e-05
3.60248e-05
3.62911e-05
3.71635e-05
3.71112e-05
3.63053e-05
3.71731e-05
3.94095e-05
3.7168e-05
3.67243e-05
3.70969e-05
3.71056e-05
3.62911e-05
3.60246e-05
3.71112e-05
3.71635e-05
3.63053e-05
3.73769e-05
3.73764e-05
3.73767e-05
3.73767e-05
3.73769e-05
3.73764e-05
3.73767e-05
3.73767e-05
3.73769e-05
3.73764e-05
3.73767e-05
3.73767e-05
3.71135e-05
3.71094e-05
3.62924e-05
3.62924e-05
3.71126e-05
3.71126e-05
3.62946e-05
3.71135e-05
3.71094e-05
3.62924e-05
3.62924e-05
3.71126e-05
3.71126e-05
3.62946e-05
3.71135e-05
3.71094e-05
3.62924e-05
3.62924e-05
3.71126e-05
3.71126e-05
3.62946e-05
3.71135e-05
3.71094e-05
3.62924e-05
3.62924e-05
3.71126e-05
3.71126e-05
3.62946e-05
3.73694e-05
3.73756e-05
3.73764e-05
3.73043e-05
3.70969e-05
3.71056e-05
3.60245e-05
3.62911e-05
3.71635e-05
3.71112e-05
3.63052e-05
3.71731e-05
3.94098e-05
3.7168e-05
3.67245e-05
3.70969e-05
3.71056e-05
3.62911e-05
3.60249e-05
3.71112e-05
3.71635e-05
3.63052e-05
3.71731e-05
3.94095e-05
3.7168e-05
3.67243e-05
3.73714e-05
3.72959e-05
3.72959e-05
5.31106e-05
3.71933e-05
3.70971e-05
3.72384e-05
3.72384e-05
3.71762e-05
3.71762e-05
5.311e-05
3.71932e-05
3.73695e-05
3.73756e-05
3.73764e-05
3.73043e-05
3.70969e-05
3.71056e-05
3.62911e-05
3.60249e-05
3.71112e-05
3.71635e-05
3.63053e-05
3.70969e-05
3.71056e-05
3.62911e-05
3.60249e-05
3.71112e-05
3.71635e-05
3.63053e-05
3.71731e-05
3.94097e-05
3.7168e-05
3.67246e-05
3.71731e-05
3.941e-05
3.7168e-05
3.67245e-05
3.70971e-05
3.72392e-05
3.72392e-05
3.71762e-05
3.71762e-05
5.31111e-05
3.71933e-05
5.31115e-05
3.71933e-05
5.51085e-05
6.4886e-05
5.51106e-05
6.48886e-05
3.65937e-05
3.65952e-05
3.52782e-05
3.40677e-05
3.40664e-05
7.47262e-05
6.76657e-05
7.47298e-05
6.76695e-05
3.49723e-05
3.20472e-05
3.2045e-05
3.34733e-05
3.34748e-05
3.58829e-05
4.08677e-05
3.66008e-05
4.51412e-05
3.52764e-05
3.56381e-05
3.60241e-05
3.53761e-05
3.60478e-05
3.42433e-05
3.53827e-05
3.52764e-05
3.56379e-05
3.60241e-05
3.53761e-05
3.60477e-05
3.42433e-05
3.53827e-05
3.56373e-05
5.02087e-05
4.64495e-05
3.48989e-05
3.5637e-05
5.0212e-05
4.64496e-05
3.48987e-05
3.50001e-05
3.48708e-05
3.27402e-05
3.44014e-05
3.38709e-05
3.48856e-05
3.41808e-05
3.5e-05
3.48708e-05
3.27401e-05
3.44014e-05
3.38706e-05
3.48856e-05
3.41807e-05
3.65947e-05
3.65954e-05
3.52782e-05
3.40672e-05
3.40656e-05
5.51108e-05
6.48889e-05
7.47287e-05
6.76676e-05
3.49723e-05
3.20468e-05
3.20451e-05
3.34741e-05
3.34754e-05
7.47289e-05
6.76685e-05
3.52765e-05
3.56381e-05
3.60241e-05
3.53761e-05
3.60478e-05
3.42427e-05
3.53827e-05
3.58833e-05
4.08692e-05
3.66005e-05
4.51406e-05
3.52764e-05
3.60241e-05
3.56384e-05
3.53761e-05
3.60477e-05
3.53827e-05
3.42426e-05
3.56367e-05
5.02118e-05
4.64496e-05
3.48994e-05
3.50001e-05
3.48708e-05
3.27391e-05
3.44014e-05
3.3871e-05
3.48856e-05
3.41809e-05
3.56363e-05
5.02123e-05
4.64516e-05
3.48991e-05
3.5e-05
3.48708e-05
3.44014e-05
3.27389e-05
3.48856e-05
3.38709e-05
3.41808e-05
3.58826e-05
4.08679e-05
3.66012e-05
4.51403e-05
3.52764e-05
3.60241e-05
3.56382e-05
3.53762e-05
3.60478e-05
3.53827e-05
3.42431e-05
3.58828e-05
4.08693e-05
3.66007e-05
4.51396e-05
3.50003e-05
3.48708e-05
3.27393e-05
3.44014e-05
3.38712e-05
3.48856e-05
3.41806e-05
3.56377e-05
5.02109e-05
4.64499e-05
3.48978e-05
3.50001e-05
3.48708e-05
3.44014e-05
3.27402e-05
3.48856e-05
3.38709e-05
3.41807e-05
3.5637e-05
5.02119e-05
4.64522e-05
3.48983e-05
3.65955e-05
3.65947e-05
3.52783e-05
3.40662e-05
3.40665e-05
5.51109e-05
6.48884e-05
7.47302e-05
6.76705e-05
3.49723e-05
3.20449e-05
3.20459e-05
3.34744e-05
3.34744e-05
7.47287e-05
6.76683e-05
3.52764e-05
3.60241e-05
3.56382e-05
3.53761e-05
3.60478e-05
3.53827e-05
3.42429e-05
3.58831e-05
4.0868e-05
3.6601e-05
4.51402e-05
3.5883e-05
4.0869e-05
3.66007e-05
4.51419e-05
3.50002e-05
3.48708e-05
3.44014e-05
3.27399e-05
3.48856e-05
3.38708e-05
3.41808e-05
3.50001e-05
3.48708e-05
3.44014e-05
3.27397e-05
3.48856e-05
3.3871e-05
3.41808e-05
3.56372e-05
5.02101e-05
4.64496e-05
3.48986e-05
3.56368e-05
5.0212e-05
4.6452e-05
3.48993e-05
5.51118e-05
6.48895e-05
5.51124e-05
6.48904e-05
3.49723e-05
3.20473e-05
3.20456e-05
3.34741e-05
3.34742e-05
7.47302e-05
6.76696e-05
7.47309e-05
6.76712e-05
7.65423e-05
8.08586e-05
7.65465e-05
8.08616e-05
3.17204e-05
3.17213e-05
3.32624e-05
3.0928e-05
3.09252e-05
8.4004e-05
8.18479e-05
8.40069e-05
8.18527e-05
3.29533e-05
3.03115e-05
3.03093e-05
3.07472e-05
3.0748e-05
3.39694e-05
5.13506e-05
3.46831e-05
5.46215e-05
3.30548e-05
3.24823e-05
3.3929e-05
3.34061e-05
3.38968e-05
3.15844e-05
3.34673e-05
3.30546e-05
3.24822e-05
3.3929e-05
3.34061e-05
3.38967e-05
3.15842e-05
3.34673e-05
3.37813e-05
5.8363e-05
5.55946e-05
3.30858e-05
3.37805e-05
5.83652e-05
5.55954e-05
3.30853e-05
3.27696e-05
3.29327e-05
3.06567e-05
3.2572e-05
3.13983e-05
3.30152e-05
3.19187e-05
3.27693e-05
3.29326e-05
3.06565e-05
3.2572e-05
3.13977e-05
3.30152e-05
3.19184e-05
3.17215e-05
3.17224e-05
3.32625e-05
3.09278e-05
3.09257e-05
7.65445e-05
8.08602e-05
8.40066e-05
8.18506e-05
3.29533e-05
3.03111e-05
3.03099e-05
3.07476e-05
3.07496e-05
8.40053e-05
8.18508e-05
3.30548e-05
3.24825e-05
3.3929e-05
3.34062e-05
3.38968e-05
3.15825e-05
3.34673e-05
3.39705e-05
5.13526e-05
3.46826e-05
5.46231e-05
3.30546e-05
3.3929e-05
3.24821e-05
3.34061e-05
3.38966e-05
3.34673e-05
3.15833e-05
3.37802e-05
5.83665e-05
5.55962e-05
3.30855e-05
3.27695e-05
3.29327e-05
3.06553e-05
3.2572e-05
3.13988e-05
3.30152e-05
3.19187e-05
3.37798e-05
5.83678e-05
5.55976e-05
3.30851e-05
3.27693e-05
3.29326e-05
3.2572e-05
3.06561e-05
3.30152e-05
3.13976e-05
3.19185e-05
3.39688e-05
5.13511e-05
3.46851e-05
5.4621e-05
3.30547e-05
3.3929e-05
3.24823e-05
3.34062e-05
3.38968e-05
3.34673e-05
3.15844e-05
3.397e-05
5.13524e-05
3.4684e-05
5.46226e-05
3.277e-05
3.29328e-05
3.06557e-05
3.2572e-05
3.13991e-05
3.30153e-05
3.19185e-05
3.37829e-05
5.83658e-05
5.55957e-05
3.30836e-05
3.27695e-05
3.29327e-05
3.2572e-05
3.06567e-05
3.30152e-05
3.13978e-05
3.19185e-05
3.37808e-05
5.83673e-05
5.55971e-05
3.30854e-05
3.17214e-05
3.17217e-05
3.32624e-05
3.09261e-05
3.09269e-05
7.65447e-05
8.0861e-05
8.40075e-05
8.18523e-05
3.29533e-05
3.03106e-05
3.03102e-05
3.07473e-05
3.07481e-05
8.4006e-05
8.18504e-05
3.30547e-05
3.3929e-05
3.24821e-05
3.34062e-05
3.38967e-05
3.34673e-05
3.15838e-05
3.39695e-05
5.13515e-05
3.46843e-05
5.46206e-05
3.39702e-05
5.13542e-05
3.4683e-05
5.46228e-05
3.27698e-05
3.29328e-05
3.2572e-05
3.06567e-05
3.30152e-05
3.13982e-05
3.19186e-05
3.27694e-05
3.29328e-05
3.2572e-05
3.06566e-05
3.30152e-05
3.13981e-05
3.19185e-05
3.37823e-05
5.83656e-05
5.55957e-05
3.30839e-05
3.37803e-05
5.83679e-05
5.55981e-05
3.30853e-05
7.6546e-05
8.08623e-05
7.65478e-05
8.08631e-05
3.29533e-05
3.03118e-05
3.03109e-05
3.07477e-05
3.07476e-05
8.40071e-05
8.18514e-05
8.40079e-05
8.18528e-05
8.43908e-05
8.50669e-05
8.43946e-05
8.50697e-05
3.02179e-05
3.02175e-05
3.12713e-05
3.00046e-05
3.00036e-05
8.48435e-05
8.50718e-05
8.48455e-05
8.50742e-05
3.09593e-05
2.99295e-05
2.99286e-05
2.99696e-05
2.99686e-05
3.22513e-05
5.91674e-05
3.29219e-05
6.14379e-05
3.07894e-05
3.05181e-05
3.21369e-05
3.15513e-05
3.16367e-05
2.98911e-05
3.17094e-05
3.07891e-05
3.05179e-05
3.21369e-05
3.15511e-05
3.16364e-05
2.98909e-05
3.17094e-05
3.2112e-05
6.38681e-05
6.20693e-05
3.14724e-05
3.21118e-05
6.38713e-05
6.2072e-05
3.1472e-05
3.05135e-05
3.11034e-05
2.92404e-05
3.08756e-05
2.97792e-05
3.12891e-05
2.96797e-05
3.05133e-05
3.11033e-05
2.92401e-05
3.08755e-05
2.9779e-05
3.1289e-05
2.96794e-05
3.0218e-05
3.02188e-05
3.12713e-05
3.00043e-05
3.00043e-05
8.43931e-05
8.50684e-05
8.48447e-05
8.50733e-05
3.09594e-05
2.99294e-05
2.99293e-05
2.99695e-05
2.99695e-05
8.48446e-05
8.50731e-05
3.07893e-05
3.05181e-05
3.21369e-05
3.15513e-05
3.16366e-05
2.98907e-05
3.17094e-05
3.22514e-05
5.91696e-05
3.29217e-05
6.14404e-05
3.07891e-05
3.21369e-05
3.05174e-05
3.15511e-05
3.16364e-05
3.17094e-05
2.98905e-05
3.21118e-05
6.38709e-05
6.20718e-05
3.14724e-05
3.05134e-05
3.11035e-05
2.92399e-05
3.08755e-05
2.97787e-05
3.12891e-05
2.96796e-05
3.21114e-05
6.38718e-05
6.20725e-05
3.14721e-05
3.05132e-05
3.11032e-05
3.08755e-05
2.92397e-05
3.1289e-05
2.97785e-05
2.96794e-05
3.225e-05
5.91672e-05
3.29248e-05
6.14367e-05
3.07891e-05
3.21369e-05
3.0518e-05
3.15512e-05
3.16366e-05
3.17094e-05
2.9891e-05
3.22516e-05
5.91689e-05
3.29222e-05
6.144e-05
3.05138e-05
3.11036e-05
2.92402e-05
3.08756e-05
2.97793e-05
3.12891e-05
2.96794e-05
3.21136e-05
6.38662e-05
6.20704e-05
3.14716e-05
3.05134e-05
3.11034e-05
3.08755e-05
2.92401e-05
3.12891e-05
2.9779e-05
2.96795e-05
3.21118e-05
6.38709e-05
6.20716e-05
3.14722e-05
3.02176e-05
3.02186e-05
3.12713e-05
3.00038e-05
3.00036e-05
8.43928e-05
8.50684e-05
8.48451e-05
8.5074e-05
3.09593e-05
2.99292e-05
2.99291e-05
2.99692e-05
2.99697e-05
8.48445e-05
8.5073e-05
3.07892e-05
3.21369e-05
3.0518e-05
3.15513e-05
3.16365e-05
3.17094e-05
2.98911e-05
3.22509e-05
5.91682e-05
3.29243e-05
6.14385e-05
3.22516e-05
5.91705e-05
3.29222e-05
6.14402e-05
3.05136e-05
3.11036e-05
3.08756e-05
2.92404e-05
3.12891e-05
2.97792e-05
2.96798e-05
3.05133e-05
3.11035e-05
3.08755e-05
2.92403e-05
3.1289e-05
2.97791e-05
2.96795e-05
3.21132e-05
6.38716e-05
6.20719e-05
3.1473e-05
3.2112e-05
6.38744e-05
6.20754e-05
3.14723e-05
8.43936e-05
8.50692e-05
8.43947e-05
8.50698e-05
3.09593e-05
2.99298e-05
2.99296e-05
2.99699e-05
2.99696e-05
8.48451e-05
8.50737e-05
8.48453e-05
8.50742e-05
8.46128e-05
8.39101e-05
8.46145e-05
8.3911e-05
2.99403e-05
2.99394e-05
2.93463e-05
3.00344e-05
3.00337e-05
8.26218e-05
8.35509e-05
8.2622e-05
8.35519e-05
2.90385e-05
3.03177e-05
3.03174e-05
3.01069e-05
3.01063e-05
3.07522e-05
6.43483e-05
3.1349e-05
6.57261e-05
2.86003e-05
2.91449e-05
3.04685e-05
2.97976e-05
2.94123e-05
2.86779e-05
3.00678e-05
2.86001e-05
2.91446e-05
3.04685e-05
2.97974e-05
2.94121e-05
2.86777e-05
3.00677e-05
3.06415e-05
6.7077e-05
6.60649e-05
3.00983e-05
3.06411e-05
6.70826e-05
6.60678e-05
3.0098e-05
2.83435e-05
2.93754e-05
2.81932e-05
2.92845e-05
2.85966e-05
2.96732e-05
2.75605e-05
2.83434e-05
2.93752e-05
2.81929e-05
2.92844e-05
2.85963e-05
2.96731e-05
2.75604e-05
2.99403e-05
2.99402e-05
2.93463e-05
3.00345e-05
3.00343e-05
8.46139e-05
8.3911e-05
8.26229e-05
8.35503e-05
2.90385e-05
3.03179e-05
3.03176e-05
3.0107e-05
3.01068e-05
8.26226e-05
8.35515e-05
2.86002e-05
2.91445e-05
3.04685e-05
2.97978e-05
2.94121e-05
2.86775e-05
3.00678e-05
3.07525e-05
6.43468e-05
3.13488e-05
6.57227e-05
2.86e-05
3.04685e-05
2.91443e-05
2.97974e-05
2.94119e-05
3.00677e-05
2.86773e-05
3.06416e-05
6.70799e-05
6.60676e-05
3.00984e-05
2.83433e-05
2.93756e-05
2.81929e-05
2.92844e-05
2.85962e-05
2.96731e-05
2.75605e-05
3.06412e-05
6.70791e-05
6.60684e-05
3.0098e-05
2.8343e-05
2.93752e-05
2.92843e-05
2.81927e-05
2.9673e-05
2.8596e-05
2.75601e-05
3.07523e-05
6.43483e-05
3.13497e-05
6.57186e-05
2.86e-05
3.04685e-05
2.91447e-05
2.97976e-05
2.94122e-05
3.00678e-05
2.86776e-05
3.07527e-05
6.4346e-05
3.1349e-05
6.57223e-05
2.83438e-05
2.93758e-05
2.81929e-05
2.92845e-05
2.85966e-05
2.96732e-05
2.756e-05
3.06416e-05
6.70775e-05
6.60716e-05
3.00979e-05
2.83434e-05
2.93754e-05
2.92844e-05
2.81929e-05
2.96731e-05
2.85963e-05
2.75602e-05
3.06414e-05
6.70796e-05
6.60678e-05
3.00982e-05
2.99401e-05
2.99404e-05
2.93461e-05
3.00344e-05
3.00343e-05
8.46137e-05
8.39102e-05
8.26214e-05
8.35519e-05
2.90384e-05
3.03181e-05
3.03177e-05
3.0107e-05
3.01072e-05
8.26216e-05
8.35514e-05
2.86002e-05
3.04685e-05
2.91448e-05
2.97977e-05
2.94121e-05
3.00677e-05
2.86779e-05
3.07532e-05
6.43466e-05
3.13497e-05
6.57246e-05
3.07526e-05
6.43509e-05
3.13493e-05
6.57279e-05
2.83435e-05
2.93757e-05
2.92845e-05
2.81932e-05
2.96732e-05
2.85966e-05
2.75606e-05
2.83433e-05
2.93756e-05
2.92844e-05
2.81932e-05
2.96731e-05
2.85966e-05
2.75604e-05
3.06419e-05
6.70821e-05
6.60668e-05
3.00987e-05
3.06414e-05
6.70832e-05
6.60696e-05
3.00982e-05
8.4614e-05
8.39113e-05
8.46144e-05
8.39107e-05
2.90383e-05
3.03182e-05
3.03185e-05
3.01073e-05
3.01075e-05
8.26228e-05
8.35514e-05
8.26218e-05
8.35514e-05
8.22156e-05
8.12196e-05
8.2216e-05
8.12193e-05
3.04475e-05
3.04472e-05
2.75308e-05
3.07673e-05
3.07674e-05
7.98338e-05
8.0807e-05
7.9833e-05
8.08068e-05
2.72364e-05
3.13907e-05
3.13907e-05
3.09484e-05
3.09488e-05
2.95171e-05
6.73137e-05
2.99991e-05
6.80285e-05
2.65672e-05
2.81252e-05
2.89016e-05
2.81491e-05
2.73161e-05
2.77834e-05
2.85246e-05
2.6567e-05
2.81249e-05
2.89016e-05
2.81488e-05
2.73159e-05
2.77829e-05
2.85245e-05
2.9432e-05
6.86511e-05
6.81777e-05
2.90168e-05
2.94318e-05
6.86521e-05
6.81759e-05
2.90165e-05
2.63373e-05