/*--------------------------------*- C++ -*----------------------------------*\
| =========                 |                                                 |
| \\      /  F ield         | OpenFOAM: The Open Source CFD Toolbox           |
|  \\    /   O peration     | Version:  2312                                  |
|   \\  /    A nd           | Website:  www.openfoam.com                      |
|    \\/     M anipulation  |                                                 |
\*---------------------------------------------------------------------------*/
FoamFile
{
    version     2.0;
    format      ascii;
    arch        "LSB;label=32;scalar=64";
    class       volScalarField;
    location    "500";
    object      p;
}
// * * * * * * * * * * * * * * * * * * * * * * * * * * * * * * * * * * * * * //

dimensions      [0 2 -2 0 0 0 0];

internalField   nonuniform List<scalar> 
43211
(
0.0036077
0.00360811
0.00360811
0.00360801
0.00354985
0.00354999
0.00354999
0.00355268
0.00349826
0.00349826
0.00349826
0.00350104
0.003446
0.00344601
0.003446
0.00344877
0.00339462
0.00339464
0.00339463
0.00339738
0.00334465
0.00334467
0.00334466
0.00334738
0.00329612
0.00329615
0.00329614
0.00329882
0.0032489
0.00324892
0.00324891
0.00325158
0.00320277
0.00320278
0.00320278
0.00320541
0.00315754
0.00315756
0.00315758
0.00316015
0.00311302
0.00311304
0.00311303
0.00311562
0.00306912
0.00306914
0.00306914
0.00307168
0.00302573
0.00302575
0.00302572
0.00302825
0.00298282
0.00298285
0.00298284
0.00298532
0.00294034
0.00294035
0.00294032
0.00294282
0.0028983
0.00289828
0.00289826
0.00290078
0.00285668
0.00285667
0.00285666
0.00285916
0.00281548
0.00281549
0.00281546
0.00281789
0.00277462
0.00277462
0.00277465
0.00277713
0.00273401
0.00273409
0.00273411
0.0027369
0.00269307
0.00269295
0.00269306
0.00269531
0.00361787
0.00361694
0.00361694
0.00361787
0.00361694
0.00361694
0.00361585
0.00361585
0.00361585
0.00361585
0.00361694
0.00361694
0.00361787
0.00361694
0.00361694
0.00361787
0.00360801
0.00355907
0.00360811
0.00360811
0.00356144
0.00356144
0.00360801
0.00355907
0.00360811
0.00360811
0.00356144
0.00356144
0.00360811
0.00356144
0.00356144
0.00360801
0.00355907
0.00360811
0.00356144
0.00356144
0.00355907
0.00355268
0.00350799
0.00354999
0.00354999
0.00351146
0.00351146
0.00355268
0.00350799
0.00354999
0.00354999
0.00351146
0.00351146
0.00354999
0.00351146
0.00351146
0.00355268
0.00350799
0.00354999
0.00351146
0.00351146
0.00350799
0.00350104
0.00345564
0.00349826
0.00349826
0.003459
0.003459
0.00350104
0.00345564
0.00349826
0.00349826
0.003459
0.003459
0.00349826
0.003459
0.003459
0.00350104
0.00345564
0.00349826
0.003459
0.003459
0.00345564
0.00344877
0.00340409
0.003446
0.003446
0.00340736
0.00340736
0.00344877
0.00340409
0.003446
0.003446
0.00340736
0.00340736
0.003446
0.00340735
0.00340736
0.00344877
0.00340409
0.003446
0.00340736
0.00340736
0.00340409
0.00339738
0.00335388
0.00339463
0.00339463
0.00335702
0.00335701
0.00339738
0.00335388
0.00339463
0.00339463
0.00335702
0.00335701
0.00339463
0.00335701
0.00335702
0.00339738
0.00335388
0.00339463
0.00335701
0.00335702
0.00335388
0.00334738
0.00330513
0.00334466
0.00334467
0.00330815
0.00330814
0.00334738
0.00330513
0.00334466
0.00334466
0.00330815
0.00330814
0.00334466
0.00330813
0.00330815
0.00334738
0.00330512
0.00334466
0.00330814
0.00330815
0.00330513
0.00329882
0.00325771
0.00329614
0.00329614
0.00326062
0.00326061
0.00329883
0.00325769
0.00329613
0.00329614
0.00326062
0.00326062
0.00329614
0.00326061
0.00326062
0.00329883
0.00325769
0.00329613
0.00326062
0.0032606
0.0032577
0.00325157
0.00321139
0.00324892
0.00324892
0.00321423
0.00321423
0.00325157
0.0032114
0.00324892
0.00324891
0.00321423
0.00321422
0.00324892
0.00321423
0.00321422
0.00325156
0.0032114
0.00324892
0.00321424
0.00321422
0.00321139
0.00320541
0.00316603
0.00320278
0.00320278
0.00316879
0.00316879
0.0032054
0.00316603
0.00320278
0.00320279
0.00316879
0.00316878
0.00320279
0.0031688
0.00316879
0.0032054
0.00316603
0.00320278
0.00316877
0.00316879
0.00316603
0.00316015
0.00312139
0.00315757
0.00315758
0.00312412
0.00312413
0.00316016
0.00312139
0.00315757
0.00315756
0.00312412
0.00312413
0.00315756
0.00312412
0.00312412
0.00316016
0.0031214
0.00315757
0.00312414
0.00312412
0.0031214
0.00311561
0.00307739
0.00311304
0.00311303
0.00308009
0.00308006
0.00311561
0.00307738
0.00311304
0.00311304
0.00308009
0.00308007
0.00311305
0.00308007
0.00308008
0.00311561
0.00307738
0.00311304
0.00308007
0.00308006
0.00307738
0.00307167
0.0030339
0.00306912
0.00306915
0.00303655
0.00303656
0.00307168
0.00303389
0.00306913
0.00306915
0.00303656
0.00303657
0.00306914
0.00303655
0.00303655
0.00307168
0.00303388
0.00306914
0.00303656
0.00303655
0.00303387
0.00302826
0.00299089
0.00302576
0.00302576
0.00299354
0.00299355
0.00302825
0.00299089
0.00302575
0.00302571
0.00299354
0.00299351
0.00302573
0.00299354
0.00299353
0.00302824
0.00299089
0.00302574
0.00299352
0.00299353
0.00299089
0.00298532
0.00294834
0.00298283
0.00298284
0.00295095
0.00295097
0.00298532
0.00294835
0.00298283
0.00298284
0.00295095
0.00295097
0.00298283
0.00295099
0.00295095
0.00298533
0.00294834
0.00298283
0.00295096
0.00295095
0.00294834
0.00294283
0.00290626
0.00294032
0.00294035
0.00290877
0.00290876
0.00294283
0.00290622
0.00294032
0.00294032
0.00290876
0.00290878
0.00294031
0.00290879
0.00290874
0.00294282
0.00290621
0.00294031
0.00290877
0.00290872
0.00290623
0.0029008
0.00286455
0.00289831
0.00289829
0.002867
0.00286703
0.00290076
0.00286457
0.0028983
0.00289827
0.002867
0.00286702
0.00289829
0.00286703
0.00286703
0.00290075
0.00286455
0.0028983
0.00286701
0.00286704
0.00286457
0.00285916
0.00282323
0.0028567
0.00285667
0.00282571
0.00282568
0.00285916
0.00282328
0.00285668
0.00285667
0.00282572
0.00282566
0.00285669
0.00282568
0.00282573
0.00285914
0.00282325
0.0028567
0.00282567
0.00282575
0.00282325
0.00281788
0.00278241
0.00281545
0.00281548
0.00278487
0.00278481
0.00281795
0.00278239
0.00281544
0.00281547
0.00278489
0.00278478
0.00281545
0.00278481
0.00278487
0.00281791
0.00278242
0.00281546
0.00278478
0.00278487
0.00278244
0.00277709
0.00274218
0.00277465
0.00277464
0.00274421
0.00274417
0.00277708
0.00274194
0.00277466
0.00277464
0.0027442
0.00274408
0.00277466
0.00274418
0.00274419
0.0027771
0.00274186
0.00277468
0.0027441
0.00274419
0.00274213
0.00273685
0.00270072
0.00273419
0.00273411
0.00270313
0.00270323
0.00273674
0.00270076
0.00273419
0.00273412
0.00270317
0.00270341
0.00273416
0.00270325
0.0027032
0.00273668
0.0027012
0.00273418
0.0027034
0.00270318
0.00270067
0.00269539
0.00269292
0.00269292
0.0026954
0.00269296
0.00269307
0.00269291
0.00269574
0.00269289
0.00362589
0.00363614
0.00363063
0.00363063
0.00365323
0.00364014
0.00366859
0.00363404
0.00365323
0.00364014
0.00363405
0.00366859
0.00364466
0.00367231
0.00367231
0.00358031
0.00359999
0.00360912
0.00357244
0.00357368
0.00357598
0.00358029
0.00360001
0.0036091
0.00357243
0.0036077
0.0036077
0.0036077
0.00356125
0.00356125
0.00356124
0.00356125
0.00357778
0.00360419
0.00360756
0.00358531
0.00360701
0.00357667
0.00358624
0.00357375
0.00357596
0.00357778
0.00360756
0.0036042
0.00358531
0.00360701
0.00358624
0.00357666
0.00361004
0.00361005
0.0035806
0.00357638
0.00357638
0.0035351
0.00355414
0.00355553
0.00353363
0.00355303
0.00353317
0.0035351
0.00355415
0.00355553
0.00353362
0.00354985
0.00354985
0.00354985
0.00351153
0.00351153
0.00351153
0.00351153
0.00353371
0.00355425
0.00354973
0.00353763
0.00355307
0.00353424
0.00353746
0.00355305
0.00353318
0.00353371
0.00354973
0.00355425
0.00353763
0.00355307
0.00353745
0.00353424
0.00355524
0.00355525
0.00353398
0.00353454
0.00353455
0.00348269
0.00350151
0.00350258
0.00348166
0.00350114
0.00348138
0.00348269
0.00350151
0.00350258
0.00348166
0.00349826
0.00349826
0.00349826
0.00345899
0.00345899
0.00345899
0.00345899
0.00348178
0.00350191
0.00349815
0.00348513
0.00350134
0.00348215
0.00348502
0.00350115
0.00348138
0.00348178
0.00349815
0.00350191
0.00348513
0.00350134
0.00348502
0.00348215
0.00350215
0.00350215
0.00348176
0.00348221
0.00348221
0.00343019
0.00344884
0.0034497
0.00342942
0.00344864
0.00342925
0.00343019
0.00344884
0.0034497
0.00342942
0.003446
0.003446
0.003446
0.00340735
0.00340735
0.00340735
0.00340735
0.00342968
0.00344925
0.00344596
0.00343305
0.00344897
0.00342987
0.00343301
0.00344864
0.00342925
0.00342968
0.00344596
0.00344925
0.00343305
0.00344896
0.00343302
0.00342987
0.00344929
0.00344929
0.00342973
0.00342981
0.00342981
0.00337899
0.00339735
0.00339798
0.00337844
0.0033972
0.00337831
0.00337899
0.00339735
0.00339798
0.00337844
0.00339462
0.00339462
0.00339462
0.003357
0.003357
0.003357
0.003357
0.00337872
0.0033977
0.0033946
0.003382
0.00339753
0.00337883
0.00338197
0.0033972
0.0033783
0.00337872
0.0033946
0.0033977
0.003382
0.00339753
0.00338197
0.00337883
0.00339769
0.00339769
0.0033788
0.00337874
0.00337874
0.00332935
0.0033473
0.00334775
0.00332896
0.00334717
0.00332884
0.00332935
0.0033473
0.00334775
0.00332896
0.00334465
0.00334465
0.00334465
0.00330813
0.00330813
0.00330813
0.00330813
0.00332923
0.0033476
0.00334464
0.00333239
0.00334749
0.00332931
0.00333237
0.00334718
0.00332885
0.00332923
0.00334464
0.0033476
0.0033324
0.00334748
0.00333237
0.0033293
0.00334758
0.00334758
0.00332933
0.00332922
0.00332922
0.00328118
0.00329874
0.00329904
0.0032809
0.00329863
0.00328079
0.00328118
0.00329874
0.00329904
0.0032809
0.00329613
0.00329612
0.00329612
0.00326059
0.00326059
0.00326059
0.00326059
0.00328116
0.00329899
0.00329611
0.00328421
0.0032989
0.00328121
0.00328419
0.00329863
0.00328081
0.00328116
0.00329611
0.00329899
0.00328423
0.00329889
0.00328419
0.0032812
0.00329898
0.00329898
0.00328126
0.00328113
0.00328113
0.00323429
0.00325148
0.0032517
0.00323407
0.00325138
0.003234
0.00323429
0.00325148
0.0032517
0.00323407
0.0032489
0.0032489
0.0032489
0.00321421
0.00321421
0.00321421
0.00321421
0.00323433
0.0032517
0.00324888
0.00323729
0.00325162
0.00323438
0.00323725
0.00325138
0.00323401
0.00323433
0.00324888
0.00325169
0.0032373
0.00325162
0.00323725
0.00323438
0.00325171
0.00325171
0.00323442
0.0032343
0.00323429
0.00318846
0.00320532
0.00320549
0.00318828
0.00320524
0.0031882
0.00318845
0.00320531
0.0032055
0.00318828
0.00320277
0.00320277
0.00320277
0.00316877
0.00316877
0.00316877
0.00316877
0.00318852
0.00320553
0.00320275
0.00319142
0.00320546
0.00318857
0.00319138
0.00320524
0.0031882
0.00318853
0.00320276
0.00320553
0.0031914
0.00320546
0.00319137
0.00318857
0.00320555
0.00320554
0.0031886
0.00318848
0.00318848
0.00314345
0.00316005
0.00316022
0.00314334
0.00316
0.00314322
0.00314345
0.00316005
0.00316022
0.00314333
0.00315754
0.00315754
0.00315754
0.0031241
0.0031241
0.0031241
0.0031241
0.00314356
0.00316026
0.00315753
0.00314636
0.0031602
0.00314361
0.00314634
0.00315998
0.00314322
0.00314356
0.00315754
0.00316026
0.00314636
0.00316021
0.00314633
0.00314361
0.00316025
0.00316026
0.00314363
0.0031435
0.00314349
0.00309917
0.00311554
0.00311565
0.00309902
0.00311544
0.00309896
0.00309916
0.00311554
0.00311566
0.00309902
0.00311302
0.00311302
0.00311303
0.00308005
0.00308005
0.00308005
0.00308005
0.00309928
0.00311573
0.00311302
0.00310203
0.00311567
0.00309931
0.003102
0.00311544
0.00309895
0.00309928
0.00311302
0.00311573
0.00310203
0.00311567
0.003102
0.00309932
0.0031157
0.00311569
0.00309932
0.00309922
0.00309923
0.00305543
0.0030716
0.00307172
0.00305528
0.00307154
0.00305521
0.00305542
0.0030716
0.00307172
0.00305529
0.00306912
0.00306912
0.00306912
0.00303653
0.00303654
0.00303654
0.00303653
0.00305557
0.0030718
0.00306912
0.00305824
0.00307176
0.00305556
0.00305823
0.00307152
0.00305523
0.00305557
0.00306912
0.0030718
0.00305823
0.00307176
0.00305822
0.00305556
0.00307178
0.00307177
0.00305559
0.00305543
0.00305544
0.00301218
0.00302819
0.00302831
0.00301205
0.00302811
0.00301199
0.00301219
0.00302819
0.00302829
0.00301204
0.00302573
0.00302572
0.00302573
0.00299351
0.00299351
0.0029935
0.0029935
0.00301233
0.00302836
0.00302573
0.00301498
0.00302836
0.00301232
0.00301499
0.00302813
0.00301195
0.00301235
0.00302572
0.00302834
0.00301499
0.00302835
0.00301498
0.00301234
0.00302833
0.00302834
0.00301236
0.00301217
0.00301217
0.00296939
0.00298523
0.00298537
0.00296927
0.00298517
0.00296921
0.0029694
0.00298523
0.00298537
0.00296927
0.00298282
0.00298282
0.00298282
0.00295093
0.00295093
0.00295093
0.00295093
0.00296957
0.00298542
0.00298285
0.00297213
0.00298545
0.00296953
0.00297215
0.00298514
0.00296924
0.00296958
0.00298284
0.00298542
0.00297214
0.00298544
0.00297214
0.00296953
0.00298538
0.00298538
0.0029696
0.00296939
0.00296939
0.00292707
0.00294275
0.00294285
0.00292694
0.00294268
0.00292687
0.00292707
0.00294275
0.00294284
0.00292692
0.00294034
0.00294033
0.00294033
0.00290877
0.00290877
0.00290877
0.00290876
0.00292727
0.0029429
0.00294036
0.00292976
0.00294295
0.00292719
0.00292979
0.00294269
0.00292687
0.00292729
0.00294035
0.00294289
0.00292977
0.00294292
0.00292978
0.00292719
0.00294287
0.00294286
0.00292727
0.00292703
0.00292704
0.00288515
0.00290066
0.00290078
0.00288503
0.00290058
0.002885
0.00288516
0.00290066
0.00290075
0.002885
0.0028983
0.00289829
0.0028983
0.00286704
0.00286704
0.00286704
0.00286705
0.00288541
0.00290083
0.00289832
0.00288785
0.00290086
0.00288524
0.00288784
0.0029006
0.002885
0.0028854
0.00289829
0.00290081
0.00288786
0.00290087
0.00288787
0.00288525
0.00290076
0.00290077
0.00288534
0.00288512
0.0028851
0.00284367
0.00285899
0.00285912
0.00284355
0.00285894
0.00284351
0.00284368
0.00285903
0.00285911
0.00284352
0.00285668
0.00285667
0.00285668
0.00282573
0.00282573
0.00282572
0.00282574
0.00284395
0.00285914
0.00285667
0.00284635
0.00285921
0.00284381
0.00284635
0.00285894
0.00284352
0.00284394
0.0028567
0.00285913
0.00284634
0.00285921
0.00284632
0.0028438
0.00285904
0.00285905
0.00284384
0.00284368
0.00284366
0.00280257
0.00281777
0.00281789
0.00280239
0.00281774
0.00280243
0.00280257
0.0028178
0.00281787
0.00280245
0.00281549
0.00281548
0.00281548
0.00278481
0.0027848
0.0027848
0.00278481
0.00280284
0.00281787
0.00281549
0.00280524
0.00281799
0.00280266
0.00280523
0.00281772
0.00280241
0.00280285
0.00281547
0.00281786
0.00280525
0.00281795
0.00280522
0.00280264
0.00281784
0.00281785
0.00280281
0.00280255
0.00280253
0.00276182
0.00277709
0.00277707
0.00276168
0.00277695
0.00276186
0.00276181
0.002777
0.00277703
0.00276167
0.0027746
0.0027746
0.00277461
0.00274421
0.0027442
0.00274419
0.00274421
0.00276209
0.00277717
0.00277463
0.00276438
0.00277714
0.00276192
0.0027644
0.0027769
0.00276186
0.00276211
0.00277465
0.00277715
0.00276444
0.0027772
0.00276442
0.00276204
0.00277711
0.00277714
0.00276187
0.00276201
0.002762
0.002721
0.00273613
0.0027363
0.00272098
0.00273606
0.00272069
0.00272109
0.00273623
0.00273632
0.0027211
0.00273403
0.00273406
0.00273404
0.00270327
0.00270325
0.00270335
0.00270323
0.00272132
0.00273627
0.00273405
0.0027239
0.0027364
0.00272114
0.00272379
0.00273624
0.00272067
0.00272138
0.00273405
0.00273633
0.00272404
0.00273643
0.00272386
0.00272103
0.00273593
0.00273594
0.00272159
0.0027207
0.00272068
0.00268015
0.00269538
0.00269543
0.00267999
0.00269531
0.00267991
0.00268012
0.00269532
0.00269543
0.00267989
0.00269302
0.00269303
0.00269301
0.0026804
0.0026953
0.00269303
0.00268272
0.00269556
0.00268008
0.00268283
0.00269505
0.00268035
0.00269304
0.00269516
0.00269549
0.00268275
0.00269551
0.00269549
0.00268035
0.00267999
0.00268001
0.00364466
0.0036723
0.00367231
0.00363613
0.00367183
0.00363613
0.00367182
0.00364162
0.00362795
0.00362798
0.00366711
0.00366711
0.00365321
0.00364014
0.00366858
0.00363404
0.00365321
0.00364014
0.00366858
0.00363404
0.00365786
0.00362821
0.00366896
0.00362306
0.00365786
0.00362825
0.00366896
0.00362305
0.00364907
0.00363773
0.00361945
0.00361526
0.00366386
0.00363226
0.00361998
0.00364907
0.00363773
0.00361944
0.00361526
0.00366386
0.00363226
0.00361998
0.00364466
0.00367231
0.00367232
0.00363614
0.00367183
0.00364162
0.00362796
0.00362797
0.00366711
0.00366712
0.00363613
0.00367184
0.00365322
0.00364014
0.00366859
0.00363404
0.00365322
0.00364014
0.00363404
0.00366859
0.00365788
0.00362821
0.00366896
0.00362306
0.00364909
0.00363773
0.00361945
0.00361527
0.00366386
0.00363226
0.00361999
0.00365787
0.00362827
0.00366896
0.00362305
0.00364908
0.00363774
0.00361527
0.00361945
0.00363226
0.00366386
0.00361999
0.00362589
0.00363614
0.00363063
0.00363063
0.00362589
0.00363614
0.00363063
0.00363063
0.00362589
0.00363614
0.00363063
0.00363063
0.00362463
0.00363416
0.00361407
0.00361407
0.00362907
0.00362908
0.00361205
0.00362463
0.00363416
0.00361407
0.00361407
0.00362907
0.00362908
0.00361205
0.00362463
0.00363417
0.00361407
0.00361407
0.00362908
0.00362908
0.00361205
0.00362463
0.00363417
0.00361407
0.00361407
0.00362908
0.00362908
0.00361205
0.00365323
0.00364014
0.00363404
0.00366859
0.00364909
0.00363773
0.00361945
0.00361526
0.00366387
0.00363226
0.00361998
0.00365788
0.00362819
0.00366897
0.00362305
0.00364909
0.00363774
0.00361526
0.00361945
0.00363226
0.00366386
0.00361998
0.00365788
0.00362824
0.00366896
0.00362304
0.00364466
0.00367231
0.00367232
0.00363618
0.00367183
0.00364162
0.00362799
0.00362798
0.00366711
0.00366712
0.00363612
0.00367184
0.00365323
0.00364014
0.00363404
0.00366859
0.00364909
0.00363774
0.00361527
0.00361945
0.00363227
0.00366387
0.00361999
0.00364909
0.00363774
0.00361527
0.00361945
0.00363227
0.00366386
0.00361998
0.00365788
0.00362819
0.00366897
0.00362305
0.00365788
0.00362821
0.00366896
0.00362305
0.00364162
0.00362797
0.00362797
0.00366711
0.00366711
0.00363613
0.00367182
0.00363612
0.00367183
0.00357362
0.00357598
0.00357382
0.00357593
0.00361
0.00361005
0.00358059
0.00357638
0.00357637
0.00355959
0.00357575
0.00355962
0.00357572
0.00357458
0.00356223
0.00356225
0.00357469
0.00357468
0.00358031
0.00360003
0.00360912
0.00357245
0.00357779
0.00360418
0.00360756
0.00358531
0.00360702
0.00357667
0.00358625
0.0035778
0.00360418
0.00360756
0.00358531
0.00360702
0.00357667
0.00358625
0.00357595
0.00356134
0.00357347
0.00356213
0.00357595
0.00356135
0.00357346
0.00356213
0.00357302
0.00357257
0.00356108
0.00356131
0.00357406
0.00357299
0.00355945
0.00357302
0.00357257
0.00356107
0.00356131
0.00357405
0.00357299
0.00355945
0.00361001
0.00361005
0.0035806
0.00357638
0.00357638
0.00357379
0.00357596
0.00355961
0.00357575
0.00357458
0.00356223
0.00356224
0.0035747
0.00357469
0.00355962
0.00357572
0.00357778
0.0036042
0.00360756
0.00358531
0.00360702
0.00357666
0.00358624
0.00358029
0.00360001
0.0036091
0.00357243
0.00357778
0.00360756
0.00360418
0.00358531
0.00360702
0.00358624
0.00357665
0.00357594
0.00356135
0.00357344
0.00356213
0.00357301
0.00357257
0.00356108
0.00356131
0.00357404
0.00357299
0.00355945
0.00357595
0.00356135
0.00357345
0.00356213
0.00357301
0.00357257
0.00356131
0.00356108
0.00357299
0.00357404
0.00355945
0.0035803
0.0036
0.00360909
0.00357243
0.00357778
0.00360756
0.00360419
0.00358531
0.00360701
0.00358624
0.00357666
0.0035803
0.00360001
0.00360909
0.00357243
0.00357301
0.00357257
0.00356108
0.00356131
0.00357405
0.00357299
0.00355946
0.00357595
0.00356136
0.00357345
0.00356213
0.00357302
0.00357257
0.00356131
0.00356108
0.00357299
0.00357404
0.00355946
0.00357595
0.00356135
0.00357345
0.00356214
0.00361004
0.00361006
0.00358059
0.00357637
0.00357636
0.00357383
0.00357594
0.00355962
0.00357573
0.00357458
0.00356224
0.00356224
0.00357469
0.00357468
0.00355962
0.00357572
0.00357779
0.00360756
0.0036042
0.00358531
0.00360701
0.00358624
0.00357666
0.0035803
0.0036
0.0036091
0.00357243
0.0035803
0.00360001
0.00360909
0.00357242
0.00357301
0.00357257
0.00356131
0.00356108
0.00357299
0.00357404
0.00355945
0.00357302
0.00357257
0.00356131
0.00356108
0.00357299
0.00357404
0.00355945
0.00357595
0.00356135
0.00357345
0.00356213
0.00357595
0.00356135
0.00357345
0.00356213
0.00357379
0.00357595
0.00357381
0.00357594
0.00357458
0.00356224
0.00356224
0.00357469
0.00357469
0.00355961
0.00357575
0.00355962
0.00357572
0.00355303
0.00353318
0.00355306
0.00353316
0.00355524
0.00355525
0.00353398
0.00353455
0.00353454
0.00350769
0.00352674
0.00350769
0.00352672
0.00352713
0.00350877
0.00350877
0.00352808
0.00352807
0.0035351
0.00355414
0.00355552
0.00353363
0.00353371
0.00355425
0.00354973
0.00353763
0.00355307
0.00353424
0.00353745
0.00353371
0.00355424
0.00354973
0.00353763
0.00355307
0.00353424
0.00353745
0.00352856
0.0035081
0.00352724
0.00350921
0.00352856
0.0035081
0.00352724
0.00350921
0.00352715
0.00352466
0.00350858
0.00351135
0.00352777
0.00352454
0.00350803
0.00352715
0.00352466
0.00350858
0.00351135
0.00352777
0.00352454
0.00350803
0.00355524
0.00355525
0.00353398
0.00353455
0.00353455
0.00355305
0.00353317
0.00350769
0.00352674
0.00352713
0.00350877
0.00350877
0.00352808
0.00352807
0.00350769
0.00352674
0.00353371
0.00355426
0.00354973
0.00353763
0.00355307
0.00353424
0.00353745
0.0035351
0.00355415
0.00355553
0.00353363
0.00353371
0.00354973
0.00355425
0.00353764
0.00355307
0.00353745
0.00353424
0.00352856
0.0035081
0.00352723
0.00350921
0.00352715
0.00352465
0.00350858
0.00351135
0.00352777
0.00352454
0.00350803
0.00352856
0.0035081
0.00352724
0.00350921
0.00352716
0.00352466
0.00351135
0.00350858
0.00352454
0.00352777
0.00350803
0.0035351
0.00355415
0.00355553
0.00353362
0.00353371
0.00354973
0.00355425
0.00353764
0.00355307
0.00353746
0.00353424
0.0035351
0.00355415
0.00355553
0.00353363
0.00352715
0.00352466
0.00350858
0.00351135
0.00352777
0.00352454
0.00350803
0.00352856
0.0035081
0.00352723
0.00350921
0.00352715
0.00352466
0.00351135
0.00350858
0.00352454
0.00352777
0.00350803
0.00352856
0.0035081
0.00352724
0.00350921
0.00355525
0.00355525
0.00353398
0.00353455
0.00353455
0.00355305
0.00353317
0.00350769
0.00352674
0.00352713
0.00350877
0.00350877
0.00352808
0.00352807
0.00350769
0.00352674
0.00353371
0.00354973
0.00355425
0.00353763
0.00355307
0.00353745
0.00353424
0.0035351
0.00355415
0.00355552
0.00353363
0.0035351
0.00355415
0.00355552
0.00353362
0.00352715
0.00352466
0.00351135
0.00350858
0.00352454
0.00352777
0.00350803
0.00352715
0.00352466
0.00351135
0.00350858
0.00352454
0.00352777
0.00350803
0.00352856
0.0035081
0.00352724
0.00350921
0.00352856
0.0035081
0.00352723
0.00350921
0.00355304
0.00353317
0.00355304
0.00353317
0.00352713
0.00350877
0.00350877
0.00352807
0.00352807
0.00350769
0.00352674
0.00350769
0.00352674
0.00350114
0.00348138
0.00350115
0.00348138
0.00350215
0.00350215
0.00348176
0.00348221
0.00348221
0.00345517
0.00347476
0.00345517
0.00347476
0.00347482
0.00345585
0.00345585
0.00347556
0.00347556
0.00348269
0.00350151
0.00350258
0.00348166
0.00348178
0.00350191
0.00349815
0.00348513
0.00350134
0.00348215
0.00348502
0.00348178
0.00350191
0.00349815
0.00348513
0.00350134
0.00348215
0.00348502
0.00347602
0.00345539
0.00347502
0.00345629
0.00347602
0.00345539
0.00347502
0.00345629
0.00347507
0.00347204
0.00345587
0.00345894
0.00347545
0.00347196
0.00345561
0.00347507
0.00347204
0.00345587
0.00345894
0.00347545
0.00347196
0.00345561
0.00350215
0.00350215
0.00348176
0.00348221
0.00348221
0.00350115
0.00348138
0.00345517
0.00347476
0.00347482
0.00345585
0.00345585
0.00347556
0.00347556
0.00345517
0.00347476
0.00348178
0.00350191
0.00349815
0.00348513
0.00350134
0.00348215
0.00348502
0.00348269
0.00350151
0.00350258
0.00348166
0.00348178
0.00349815
0.00350191
0.00348513
0.00350134
0.00348502
0.00348215
0.00347602
0.00345539
0.00347502
0.00345629
0.00347507
0.00347204
0.00345587
0.00345894
0.00347545
0.00347196
0.00345561
0.00347602
0.00345539
0.00347502
0.00345629
0.00347507
0.00347204
0.00345894
0.00345587
0.00347196
0.00347545
0.00345561
0.00348269
0.00350151
0.00350258
0.00348166
0.00348178
0.00349815
0.00350191
0.00348513
0.00350134
0.00348502
0.00348215
0.00348269
0.00350151
0.00350258
0.00348166
0.00347507
0.00347204
0.00345587
0.00345894
0.00347545
0.00347196
0.00345561
0.00347602
0.00345539
0.00347502
0.00345629
0.00347507
0.00347204
0.00345894
0.00345587
0.00347196
0.00347545
0.00345561
0.00347602
0.00345539
0.00347502
0.00345629
0.00350215
0.00350215
0.00348176
0.00348221
0.00348221
0.00350115
0.00348138
0.00345517
0.00347476
0.00347482
0.00345585
0.00345585
0.00347556
0.00347556
0.00345517
0.00347476
0.00348178
0.00349815
0.00350191
0.00348513
0.00350134
0.00348502
0.00348215
0.00348269
0.00350151
0.00350258
0.00348166
0.00348269
0.00350151
0.00350258
0.00348166
0.00347507
0.00347204
0.00345894
0.00345587
0.00347196
0.00347545
0.00345561
0.00347507
0.00347204
0.00345894
0.00345587
0.00347196
0.00347545
0.00345561
0.00347602
0.00345539
0.00347502
0.00345629
0.00347602
0.00345539
0.00347502
0.00345629
0.00350115
0.00348138
0.00350115
0.00348138
0.00347482
0.00345585
0.00345585
0.00347556
0.00347556
0.00345517
0.00347476
0.00345517
0.00347476
0.00344864
0.00342925
0.00344864
0.00342925
0.00344929
0.00344929
0.00342973
0.00342981
0.00342981
0.00340359
0.00342277
0.00340359
0.00342277
0.00342293
0.00340408
0.00340408
0.00342332
0.00342332
0.00343019
0.00344884
0.0034497
0.00342942
0.00342968
0.00344925
0.00344596
0.00343306
0.00344897
0.00342987
0.00343302
0.00342968
0.00344925
0.00344596
0.00343306
0.00344897
0.00342987
0.00343302
0.00342368
0.00340375
0.00342294
0.0034044
0.00342368
0.00340375
0.00342294
0.0034044
0.0034231
0.00342017
0.00340417
0.00340733
0.00342332
0.00342013
0.00340403
0.0034231
0.00342017
0.00340417
0.00340733
0.00342332
0.00342013
0.00340403
0.00344929
0.00344929
0.00342973
0.00342981
0.00342981
0.00344864
0.00342925
0.0034036
0.00342277
0.00342293
0.00340408
0.00340408
0.00342332
0.00342332
0.0034036
0.00342277
0.00342968
0.00344925
0.00344596
0.00343305
0.00344897
0.00342987
0.00343302
0.00343019
0.00344884
0.0034497
0.00342943
0.00342968
0.00344596
0.00344925
0.00343305
0.00344897
0.00343302
0.00342987
0.00342368
0.00340375
0.00342294
0.0034044
0.0034231
0.00342017
0.00340417
0.00340733
0.00342332
0.00342013
0.00340403
0.00342368
0.00340375
0.00342294
0.0034044
0.0034231
0.00342017
0.00340732
0.00340417
0.00342013
0.00342332
0.00340403
0.00343019
0.00344884
0.0034497
0.00342943
0.00342968
0.00344596
0.00344925
0.00343305
0.00344897
0.00343302
0.00342987
0.00343019
0.00344884
0.0034497
0.00342943
0.0034231
0.00342017
0.00340417
0.00340732
0.00342332
0.00342014
0.00340403
0.00342368
0.00340375
0.00342294
0.0034044
0.0034231
0.00342017
0.00340733
0.00340417
0.00342013
0.00342332
0.00340403
0.00342368
0.00340375
0.00342294
0.0034044
0.00344929
0.00344929
0.00342973
0.00342981
0.00342981
0.00344864
0.00342925
0.00340359
0.00342277
0.00342293
0.00340408
0.00340408
0.00342332
0.00342332
0.0034036
0.00342277
0.00342968
0.00344596
0.00344925
0.00343306
0.00344896
0.00343302
0.00342987
0.00343019
0.00344884
0.0034497
0.00342942
0.00343019
0.00344884
0.0034497
0.00342942
0.0034231
0.00342017
0.00340733
0.00340417
0.00342013
0.00342332
0.00340403
0.0034231
0.00342017
0.00340733
0.00340417
0.00342013
0.00342332
0.00340403
0.00342368
0.00340375
0.00342294
0.0034044
0.00342368
0.00340375
0.00342294
0.0034044
0.00344864
0.00342925
0.00344864
0.00342925
0.00342293
0.00340408
0.00340409
0.00342332
0.00342332
0.0034036
0.00342277
0.0034036
0.00342277
0.0033972
0.0033783
0.0033972
0.0033783
0.00339768
0.00339768
0.0033788
0.00337874
0.00337874
0.00335338
0.003372
0.00335338
0.003372
0.0033722
0.00335379
0.00335379
0.00337244
0.00337244
0.00337899
0.00339735
0.00339798
0.00337844
0.00337872
0.0033977
0.0033946
0.003382
0.00339753
0.00337883
0.00338197
0.00337872
0.0033977
0.0033946
0.003382
0.00339753
0.00337883
0.00338197
0.00337267
0.00335351
0.00337213
0.00335398
0.00337267
0.00335351
0.00337213
0.00335398
0.00337232
0.00336946
0.00335388
0.00335699
0.00337246
0.00336943
0.00335379
0.00337232
0.00336946
0.00335388
0.00335699
0.00337246
0.00336943
0.00335379
0.00339769
0.00339769
0.0033788
0.00337874
0.00337874
0.0033972
0.00337831
0.00335339
0.003372
0.0033722
0.00335379
0.00335379
0.00337244
0.00337245
0.00335339
0.003372
0.00337872
0.0033977
0.0033946
0.003382
0.00339753
0.00337883
0.00338197
0.00337899
0.00339735
0.00339798
0.00337844
0.00337872
0.0033946
0.0033977
0.003382
0.00339753
0.00338197
0.00337883
0.00337267
0.00335351
0.00337213
0.00335398
0.00337232
0.00336946
0.00335388
0.00335699
0.00337246
0.00336943
0.00335379
0.00337267
0.00335351
0.00337213
0.00335398
0.00337232
0.00336946
0.00335699
0.00335388
0.00336943
0.00337246
0.00335379
0.00337899
0.00339735
0.00339798
0.00337844
0.00337872
0.0033946
0.0033977
0.003382
0.00339753
0.00338197
0.00337883
0.00337899
0.00339735
0.00339798
0.00337844
0.00337232
0.00336946
0.00335388
0.00335699
0.00337246
0.00336943
0.00335379
0.00337267
0.00335351
0.00337213
0.00335398
0.00337232
0.00336946
0.00335699
0.00335388
0.00336943
0.00337246
0.00335379
0.00337267
0.00335351
0.00337213
0.00335398
0.00339768
0.00339768
0.0033788
0.00337874
0.00337874
0.0033972
0.0033783
0.00335339
0.003372
0.0033722
0.00335378
0.00335378
0.00337244
0.00337244
0.00335339
0.003372
0.00337872
0.0033946
0.0033977
0.003382
0.00339753
0.00338197
0.00337883
0.00337899
0.00339735
0.00339798
0.00337844
0.00337899
0.00339735
0.00339798
0.00337844
0.00337232
0.00336946
0.00335699
0.00335388
0.00336943
0.00337246
0.00335379
0.00337232
0.00336946
0.00335699
0.00335388
0.00336943
0.00337246
0.00335379
0.00337267
0.00335351
0.00337213
0.00335398
0.00337267
0.00335351
0.00337213
0.00335398
0.0033972
0.0033783
0.0033972
0.0033783
0.0033722
0.00335379
0.00335379
0.00337244
0.00337244
0.00335338
0.003372
0.00335338
0.003372
0.00334718
0.00332885
0.00334718
0.00332885
0.00334758
0.00334758
0.00332933
0.00332922
0.00332921
0.00330467
0.00332273
0.00330466
0.00332273
0.00332293
0.00330501
0.00330501
0.00332311
0.00332311
0.00332935
0.0033473
0.00334775
0.00332896
0.00332923
0.0033476
0.00334464
0.0033324
0.00334748
0.0033293
0.00333237
0.00332923
0.0033476
0.00334464
0.0033324
0.00334748
0.0033293
0.00333237
0.00332322
0.00330476
0.00332284
0.00330509
0.00332322
0.00330476
0.00332284
0.00330509
0.00332301
0.00332023
0.00330509
0.00330812
0.00332312
0.0033202
0.00330503
0.00332301
0.00332023
0.00330509
0.00330812
0.00332312
0.0033202