/*--------------------------------*- C++ -*----------------------------------*\
| =========                 |                                                 |
| \\      /  F ield         | OpenFOAM: The Open Source CFD Toolbox           |
|  \\    /   O peration     | Version:  2312                                  |
|   \\  /    A nd           | Website:  www.openfoam.com                      |
|    \\/     M anipulation  |                                                 |
\*---------------------------------------------------------------------------*/
FoamFile
{
    version     2.0;
    format      ascii;
    arch        "LSB;label=32;scalar=64";
    class       volScalarField;
    location    "150";
    object      k;
}
// * * * * * * * * * * * * * * * * * * * * * * * * * * * * * * * * * * * * * //

dimensions      [0 2 -2 0 0 0 0];

internalField   nonuniform List<scalar> 
43008
(
1.57095e-05
1.61175e-05
1.52902e-05
1.60685e-05
1.60698e-05
1.76148e-05
1.72612e-05
1.75383e-05
1.61167e-05
1.61171e-05
1.60702e-05
1.60707e-05
1.75238e-05
1.61169e-05
1.61177e-05
1.60705e-05
1.60713e-05
1.60698e-05
1.60702e-05
1.72604e-05
1.75412e-05
1.61183e-05
1.6071e-05
1.60719e-05
1.75361e-05
1.76109e-05
1.60692e-05
1.60696e-05
1.76207e-05
1.60694e-05
1.60703e-05
1.60693e-05
1.76141e-05
1.60708e-05
5.00986e-05
6.99077e-05
4.93389e-05
6.99369e-05
6.97744e-05
5.01002e-05
6.99083e-05
4.93369e-05
6.99376e-05
1.57095e-05
1.57102e-05
1.57093e-05
1.53917e-05
1.53913e-05
1.5392e-05
1.53917e-05
2.60196e-05
1.6094e-05
4.29396e-05
1.5355e-05
6.97983e-05
6.97747e-05
2.60234e-05
1.54391e-05
4.24492e-05
1.60953e-05
2.55022e-05
1.53562e-05
4.29345e-05
1.73448e-05
5.77565e-05
5.77644e-05
5.19431e-05
6.99778e-05
5.12789e-05
7.00046e-05
6.97129e-05
6.96905e-05
5.19445e-05
6.99785e-05
5.1277e-05
7.00054e-05
1.52902e-05
1.52908e-05
1.52902e-05
2.76621e-05
4.38821e-05
1.51282e-05
1.60712e-05
2.71181e-05
4.43232e-05
1.50625e-05
6.97133e-05
6.96908e-05
2.76649e-05
1.51293e-05
4.38767e-05
1.60725e-05
2.7119e-05
1.50635e-05
4.43285e-05
5.83058e-05
5.83147e-05
1.77432e-05
5.85604e-05
5.85685e-05
6.97962e-05
6.97722e-05
6.97984e-05
6.97749e-05
5.74637e-05
5.74785e-05
1.73576e-05
5.77554e-05
5.77696e-05
6.97298e-05
6.97528e-05
6.97325e-05
6.97554e-05
1.74188e-05
5.81728e-05
5.81854e-05
5.79004e-05
5.79135e-05
5.00977e-05
6.9904e-05
4.93389e-05
6.99331e-05
2.60243e-05
4.2453e-05
1.54381e-05
1.60944e-05
2.54965e-05
4.293e-05
1.53556e-05
2.60252e-05
4.24581e-05
1.54382e-05
1.60948e-05
2.54982e-05
4.29348e-05
1.53555e-05
5.03433e-05
6.99717e-05
6.99436e-05
5.10567e-05
5.03429e-05
6.99681e-05
6.99398e-05
5.10555e-05
2.6296e-05
1.60814e-05
4.36458e-05
1.52009e-05
4.31809e-05
1.52748e-05
2.68384e-05
2.62955e-05
1.60818e-05
4.36444e-05
1.52009e-05
4.3186e-05
1.52749e-05
2.68364e-05
1.73501e-05
5.77638e-05
5.77607e-05
6.97733e-05
6.97321e-05
6.9755e-05
1.74209e-05
5.81801e-05
5.81764e-05
5.7907e-05
5.7903e-05
6.9731e-05
6.97536e-05
2.60201e-05
4.24564e-05
1.54381e-05
1.60946e-05
2.55017e-05
4.2937e-05
1.53556e-05
5.0099e-05
6.99022e-05
4.93366e-05
6.99346e-05
2.60223e-05
1.54383e-05
4.24526e-05
1.60955e-05
2.55017e-05
1.53558e-05
4.29397e-05
5.03413e-05
6.99723e-05
6.99442e-05
5.10582e-05
2.63e-05
1.60816e-05
4.36453e-05
1.52009e-05
4.31852e-05
1.52748e-05
2.68339e-05
5.03409e-05
6.99681e-05
6.994e-05
5.10571e-05
2.62993e-05
1.60824e-05
1.52011e-05
4.36485e-05
1.5275e-05
4.31839e-05
2.68343e-05
5.00851e-05
6.99379e-05
2.6022e-05
1.6094e-05
1.53549e-05
4.29349e-05
5.00945e-05
6.99347e-05
2.62981e-05
1.60809e-05
4.36414e-05
1.52004e-05
4.31775e-05
1.52747e-05
2.68314e-05
5.03497e-05
6.99708e-05
6.99403e-05
5.10441e-05
2.62986e-05
1.60813e-05
1.52005e-05
4.36478e-05
1.52744e-05
4.31785e-05
2.68341e-05
5.03447e-05
6.99695e-05
6.99372e-05
5.10527e-05
5.74718e-05
5.7466e-05
1.73591e-05
5.77657e-05
5.7758e-05
6.97962e-05
6.97725e-05
6.97323e-05
6.97553e-05
1.74212e-05
5.81821e-05
5.8174e-05
5.79081e-05
5.7902e-05
6.97304e-05
6.97532e-05
2.60274e-05
1.54389e-05
4.24534e-05
1.6096e-05
2.54988e-05
1.53564e-05
4.29393e-05
5.00933e-05
6.99054e-05
4.93438e-05
6.99372e-05
5.00925e-05
6.99017e-05
4.93431e-05
6.99352e-05
2.62996e-05
1.60821e-05
1.52015e-05
4.36479e-05
1.52758e-05
4.31771e-05
2.68357e-05
2.62962e-05
1.6083e-05
1.52018e-05
4.36498e-05
1.52757e-05
4.31812e-05
2.68336e-05
5.03489e-05
6.99722e-05
6.99398e-05
5.1051e-05
5.03483e-05
6.99699e-05
6.99375e-05
5.10502e-05
6.97733e-05
6.97743e-05
1.7429e-05
5.81734e-05
5.81811e-05
5.78996e-05
5.79088e-05
6.97308e-05
6.97536e-05
6.97319e-05
6.97548e-05
6.97107e-05
6.96885e-05
6.97133e-05
6.9691e-05
5.83065e-05
5.83195e-05
1.77515e-05
5.85608e-05
5.85719e-05
5.19416e-05
6.99742e-05
5.12787e-05
7.00011e-05
2.76676e-05
4.38775e-05
1.51283e-05
1.60714e-05
2.71145e-05
4.43294e-05
1.5063e-05
2.76685e-05
4.3886e-05
1.51283e-05
1.60719e-05
2.71151e-05
4.43284e-05
1.5063e-05
5.83127e-05
5.83095e-05
1.7746e-05
5.85673e-05
5.85644e-05
6.97117e-05
6.96896e-05
2.76652e-05
4.38865e-05
1.51284e-05
1.60722e-05
2.71188e-05
4.4328e-05
1.50631e-05
5.19438e-05
6.99746e-05
5.12765e-05
7.00012e-05
2.7667e-05
1.51285e-05
4.38859e-05
1.6073e-05
2.7119e-05
1.50631e-05
4.43295e-05
5.19319e-05
6.99767e-05
5.12848e-05
7.00033e-05
2.76638e-05
1.51281e-05
4.38796e-05
1.60715e-05
2.71181e-05
1.50628e-05
4.43239e-05
5.19396e-05
6.99716e-05
5.12802e-05
7.00024e-05
5.83146e-05
5.83087e-05
1.77543e-05
5.85684e-05
5.85623e-05
6.97114e-05
6.96891e-05
2.76634e-05
1.51292e-05
4.38818e-05
1.60735e-05
2.71191e-05
1.50639e-05
4.4333e-05
5.19373e-05
6.99744e-05
5.1285e-05
7.00055e-05
5.19364e-05
6.99721e-05
5.12851e-05
7.00031e-05
6.97115e-05
6.96894e-05
6.97128e-05
6.96905e-05
6.97487e-05
4.98495e-05
6.90379e-05
5.70642e-05
6.903e-05
5.68471e-05
6.97599e-05
7.11559e-05
7.29935e-05
6.9919e-05
7.11518e-05
7.31038e-05
6.97481e-05
4.95933e-05
6.90234e-05
5.64649e-05
6.97375e-05
6.90298e-05
5.66876e-05
7.1132e-05
7.32514e-05
6.99259e-05
7.31476e-05
7.1136e-05
6.97961e-05
6.97765e-05
6.97483e-05
4.98474e-05
5.7064e-05
6.9038e-05
5.68448e-05
6.90301e-05
6.97595e-05
7.11551e-05
7.29912e-05
6.99196e-05
7.11509e-05
7.31012e-05
6.97477e-05
4.9595e-05
5.64625e-05
6.90234e-05
6.97371e-05
5.66876e-05
6.90299e-05
7.11311e-05
7.32494e-05
6.99264e-05
7.31423e-05
7.11352e-05
6.97964e-05
6.97766e-05
8.65033e-05
7.26181e-05
7.26116e-05
7.26173e-05
7.26108e-05
8.66001e-05
5.44803e-05
5.75375e-05
3.58202e-05
6.84909e-05
5.45486e-05
5.75457e-05
3.58378e-05
6.85022e-05
8.64543e-05
7.26412e-05
7.26347e-05
5.47222e-05
6.85387e-05
5.76855e-05
3.62494e-05
3.61082e-05
6.85079e-05
5.48336e-05
5.47916e-05
6.8551e-05
5.76946e-05
3.62679e-05
3.61303e-05
6.85164e-05
5.49012e-05
6.97993e-05
5.17202e-05
6.9098e-05
5.84212e-05
6.90837e-05
5.82257e-05
6.98111e-05
7.10751e-05
7.35621e-05
6.99883e-05
7.10716e-05
7.36519e-05
6.97982e-05
5.1509e-05
6.90666e-05
5.79031e-05
6.97863e-05
6.90799e-05
5.81039e-05
7.10511e-05
7.37718e-05
6.99943e-05
7.36856e-05
7.10545e-05
6.97112e-05
6.96921e-05
6.97988e-05
5.17183e-05
5.84198e-05
6.9098e-05
5.8224e-05
6.90838e-05
6.98106e-05
7.10744e-05
7.3558e-05
6.99891e-05
7.10708e-05
7.36493e-05
6.97978e-05
5.15106e-05
5.79011e-05
6.90668e-05
6.97859e-05
5.81027e-05
6.90799e-05
7.10503e-05
7.3769e-05
6.99951e-05
7.36826e-05
7.10538e-05
6.97115e-05
6.96926e-05
8.70411e-05
7.25239e-05
7.25176e-05
7.25236e-05
7.25173e-05
8.712e-05
5.583e-05
3.73729e-05
6.86421e-05
5.83698e-05
5.57295e-05
3.75038e-05
6.86731e-05
5.58992e-05
3.73923e-05
6.86556e-05
5.83784e-05
5.57989e-05
3.75251e-05
6.86832e-05
8.69982e-05
7.25472e-05
7.2541e-05
8.69162e-05
7.25477e-05
7.25413e-05
5.60451e-05
6.87127e-05
5.84993e-05
3.79134e-05
3.77828e-05
6.86861e-05
5.61417e-05
5.61138e-05
6.87241e-05
5.85077e-05
3.79316e-05
3.7802e-05
6.86979e-05
5.62115e-05
6.9794e-05
6.97743e-05
6.97964e-05
6.97769e-05
8.65077e-05
7.26185e-05
7.26123e-05
7.26176e-05
7.26114e-05
8.66036e-05
5.44834e-05
3.56771e-05
6.84569e-05
5.75356e-05
5.43642e-05
6.84919e-05
3.58175e-05
5.45469e-05
3.56955e-05
6.84713e-05
5.75506e-05
5.44349e-05
6.85033e-05
3.58401e-05
8.64576e-05
7.26406e-05
7.26343e-05
8.63592e-05
7.26417e-05
7.26354e-05
5.47213e-05
6.85396e-05
5.76857e-05
3.62489e-05
6.85061e-05
5.48326e-05
3.61088e-05
5.47918e-05
6.85518e-05
5.76996e-05
3.62691e-05
6.85199e-05
5.49007e-05
3.61256e-05
6.97316e-05
6.97509e-05
6.97342e-05
6.97535e-05
8.67435e-05
7.25945e-05
7.25883e-05
8.66507e-05
7.25952e-05
7.25891e-05
5.5405e-05
3.70933e-05
5.8107e-05
6.86307e-05
6.85987e-05
3.69542e-05
5.5508e-05
5.54743e-05
3.71126e-05
5.81198e-05
6.86438e-05
6.86114e-05
3.69736e-05
5.5576e-05
5.51761e-05
6.85533e-05
3.65335e-05
5.7968e-05
5.50694e-05
6.85861e-05
3.66727e-05
5.52425e-05
6.85654e-05
3.65517e-05
5.79807e-05
5.51385e-05
6.85991e-05
3.66922e-05
8.67885e-05
7.25719e-05
7.25657e-05
7.25712e-05
7.2565e-05
8.68764e-05
6.97475e-05
4.98493e-05
6.90375e-05
5.70609e-05
6.90296e-05
5.6842e-05
6.97586e-05
7.1154e-05
7.29794e-05
6.99152e-05
7.11501e-05
7.30782e-05
6.97468e-05
4.95925e-05
6.9023e-05
5.64599e-05
6.90294e-05
6.97363e-05
5.66841e-05
7.11302e-05
7.3226e-05
6.99222e-05
7.31314e-05
7.1134e-05
6.97724e-05
6.90392e-05
5.72141e-05
5.05865e-05
6.97608e-05
6.90494e-05
5.74257e-05
7.1092e-05
6.9961e-05
7.35253e-05
7.10956e-05
7.34322e-05
7.11159e-05
7.32922e-05
6.99546e-05
7.1112e-05
7.33924e-05
6.97734e-05
5.08198e-05
6.90636e-05
5.7772e-05
6.97852e-05
6.90516e-05
5.75662e-05
6.9771e-05
6.90389e-05
5.72087e-05
5.05854e-05
6.97595e-05
6.9049e-05
5.74223e-05
7.10902e-05
6.99574e-05
7.35019e-05
7.34142e-05
7.10937e-05
7.1114e-05
7.32758e-05
6.99509e-05
7.11102e-05
7.33672e-05
6.9772e-05
5.08196e-05
6.90632e-05
5.77683e-05
6.90512e-05
5.75607e-05
6.97839e-05
8.65072e-05
7.2613e-05
7.26183e-05
7.26121e-05
7.26174e-05
8.66034e-05
5.45509e-05
5.75447e-05
6.85019e-05
3.58408e-05
5.44828e-05
5.75417e-05
3.58186e-05
6.84936e-05
8.64573e-05
7.26361e-05
7.26414e-05
5.47867e-05
6.85498e-05
5.7693e-05
3.62692e-05
6.85184e-05
3.61249e-05
5.49052e-05
5.47212e-05
6.85417e-05
5.76886e-05
3.62479e-05
3.61086e-05
6.85072e-05
5.48333e-05
6.97949e-05
6.97749e-05
6.97338e-05
6.97532e-05
8.67428e-05
7.2589e-05
7.25943e-05
8.66508e-05
7.25899e-05
7.25951e-05
5.547e-05
3.7112e-05
5.81133e-05
6.86412e-05
3.69732e-05
6.86115e-05
5.55789e-05
5.54051e-05
3.70931e-05
5.81093e-05
6.86308e-05
6.86021e-05
3.69544e-05
5.55088e-05
5.52467e-05
6.85659e-05
3.6552e-05
5.79757e-05
3.66937e-05
5.51329e-05
6.85962e-05
5.51753e-05
6.85546e-05
3.65347e-05
5.79727e-05
5.50687e-05
6.85876e-05
3.66743e-05
8.67876e-05
7.25665e-05
7.25718e-05
7.25658e-05
7.25711e-05
8.68765e-05
6.97326e-05
6.9752e-05
6.97474e-05
4.98473e-05
6.90377e-05
5.70592e-05
6.90299e-05
5.68409e-05
6.97586e-05
7.11535e-05
7.29689e-05
6.99175e-05
7.11493e-05
7.308e-05
6.97468e-05
4.95938e-05
6.90232e-05
5.64586e-05
6.90296e-05
6.97362e-05
5.66828e-05
7.11295e-05
7.32256e-05
6.99214e-05
7.31245e-05
7.11334e-05
6.97719e-05
5.72118e-05
6.90394e-05
5.05881e-05
6.97604e-05
5.74251e-05
6.90494e-05
7.1091e-05
6.99615e-05
7.35229e-05
7.10948e-05
7.34265e-05
7.11151e-05
7.32879e-05
6.99552e-05
7.11111e-05
7.33902e-05
6.9773e-05
5.0818e-05
5.77712e-05
6.90635e-05
6.97848e-05
5.75637e-05
6.90518e-05
6.9771e-05
6.90392e-05
5.7208e-05
5.05869e-05
6.97594e-05
6.90491e-05
5.74203e-05
7.10894e-05
6.99576e-05
7.34969e-05
7.34107e-05
7.1093e-05
7.11133e-05
7.32711e-05
6.9951e-05
7.11095e-05
7.33634e-05
6.9772e-05
5.08176e-05
6.90633e-05
5.77665e-05
6.90516e-05
5.75603e-05
6.97838e-05
6.97469e-05
4.98563e-05
5.70448e-05
6.90371e-05
5.68543e-05
6.90294e-05
6.9758e-05
7.11288e-05
7.32414e-05
6.99224e-05
7.31361e-05
7.11335e-05
6.9747e-05
4.98509e-05
6.90374e-05
5.70574e-05
6.90295e-05
5.68429e-05
6.97581e-05
7.11295e-05
7.32274e-05
6.99193e-05
7.31217e-05
7.11335e-05
6.97705e-05
5.72203e-05
6.90387e-05
5.05733e-05
6.9759e-05
5.74071e-05
6.90485e-05
7.10888e-05
6.99593e-05
7.3515e-05
7.34196e-05
7.10932e-05
7.11135e-05
7.32829e-05
6.9955e-05
7.11089e-05
7.33819e-05
6.97716e-05
5.0826e-05
5.77542e-05
6.90627e-05
5.75713e-05
6.90511e-05
6.97833e-05
6.97705e-05
6.90387e-05
5.72096e-05
5.05825e-05
6.9759e-05
6.90488e-05
5.74188e-05
7.10894e-05
6.99546e-05
7.34973e-05
7.34078e-05
7.10931e-05
7.11134e-05
7.32685e-05
6.99525e-05
7.11096e-05
7.33676e-05
6.97716e-05
5.08211e-05
6.90629e-05
5.77651e-05
6.90511e-05
5.75614e-05
6.97834e-05
8.65045e-05
7.26122e-05
7.26179e-05
7.26114e-05
7.2617e-05
8.6599e-05
5.45476e-05
3.57e-05
6.84674e-05
5.75463e-05
6.85032e-05
5.44353e-05
3.58372e-05
5.44778e-05
3.56746e-05
6.8459e-05
5.7539e-05
3.58216e-05
5.43654e-05
6.84906e-05
8.64538e-05
7.26343e-05
7.26399e-05
7.26353e-05
8.63532e-05
7.26409e-05
5.47927e-05
6.85512e-05
5.76935e-05
3.62669e-05
6.85165e-05
3.61307e-05
5.49009e-05
5.47224e-05
6.85388e-05
5.76878e-05
3.62493e-05
3.61043e-05
6.85079e-05
5.48319e-05
6.9794e-05
6.97746e-05
6.97342e-05
6.97533e-05
8.67376e-05
7.25883e-05
7.2594e-05
8.66482e-05
7.2589e-05
7.25947e-05
5.54704e-05
3.71147e-05
5.81151e-05
6.86408e-05
3.69757e-05
6.8611e-05
5.55806e-05
5.54045e-05
3.70918e-05
5.8109e-05
6.8631e-05
6.85991e-05
3.69528e-05
5.55093e-05
5.52475e-05
6.85639e-05
3.65559e-05
5.79772e-05
3.66942e-05
5.51379e-05
6.85972e-05
5.51752e-05
6.85553e-05
3.65315e-05
5.79698e-05
5.5069e-05
6.85857e-05
3.66735e-05
8.67846e-05
7.25657e-05
7.25714e-05
7.25651e-05
7.25707e-05
8.68717e-05
6.97322e-05
6.97513e-05
6.97476e-05
4.98547e-05
5.70602e-05
6.90378e-05
5.6847e-05
6.90299e-05
6.97587e-05
7.11537e-05
7.29874e-05
6.99186e-05
7.30959e-05
7.11497e-05
6.97469e-05
4.95883e-05
5.64644e-05
6.90233e-05
5.66838e-05
6.97364e-05
6.90297e-05
7.11299e-05
7.32434e-05
6.99217e-05
7.31403e-05
7.11338e-05
6.97473e-05
4.98538e-05
5.70586e-05
6.90377e-05
5.68418e-05
6.90299e-05
6.97585e-05
7.11538e-05
7.29692e-05
6.99173e-05
7.11496e-05
7.30801e-05
6.97467e-05
4.95874e-05
5.64593e-05
6.90232e-05
6.97362e-05
5.66822e-05
6.90296e-05
7.11299e-05
7.32285e-05
6.99199e-05
7.31239e-05
7.11338e-05
6.97712e-05
5.7214e-05
6.90391e-05
5.05811e-05
6.97596e-05
5.74216e-05
6.90492e-05
7.10899e-05
6.99572e-05
7.3519e-05
7.34232e-05
7.10936e-05
7.11138e-05
7.32843e-05
6.9955e-05
7.11099e-05
7.3385e-05
6.97722e-05
5.08258e-05
5.7768e-05
6.90634e-05
5.75659e-05
6.90515e-05
6.9784e-05
6.97709e-05
5.7209e-05
6.90391e-05
5.05801e-05
6.97593e-05
5.74199e-05
6.90491e-05
7.10898e-05
6.9955e-05
7.35028e-05
7.34055e-05
7.10936e-05
7.11137e-05
7.32668e-05
6.99528e-05
7.11099e-05
7.33682e-05
6.97719e-05
5.08256e-05
5.77663e-05
6.90633e-05
5.75611e-05
6.90514e-05
6.97837e-05
6.97949e-05
6.97751e-05
6.97959e-05
6.97762e-05
8.67387e-05
7.25941e-05
7.25877e-05
8.66474e-05
7.25948e-05
7.25884e-05
5.54043e-05
3.70913e-05
5.81064e-05
6.86306e-05
5.55081e-05
3.69569e-05
6.85982e-05
5.54737e-05
3.71114e-05
5.81153e-05
6.86416e-05
5.55767e-05
3.69769e-05
6.86096e-05
5.51761e-05
6.8555e-05
3.65351e-05
5.79683e-05
5.50686e-05
3.66741e-05
6.85852e-05
5.52435e-05
6.85639e-05
3.65565e-05
5.79762e-05
5.51381e-05
3.66914e-05
6.85974e-05
8.67845e-05
7.25713e-05
7.25649e-05
8.68714e-05
7.25707e-05
7.25644e-05
6.97324e-05
6.97519e-05
6.97337e-05
6.97529e-05
6.97091e-05
6.96901e-05
6.97117e-05
6.96926e-05
8.7044e-05
7.25248e-05
7.25187e-05
7.25243e-05
7.25182e-05
8.71271e-05
5.58291e-05
3.73688e-05
6.86426e-05
5.83705e-05
5.57304e-05
6.86736e-05
3.75063e-05
5.59011e-05
3.7389e-05
6.86553e-05
5.83821e-05
5.57986e-05
6.86868e-05
3.7526e-05
8.70031e-05
7.25478e-05
7.25417e-05
8.69199e-05
7.25484e-05
7.25422e-05
5.60463e-05
6.87146e-05
5.84988e-05
3.79132e-05
6.86847e-05
5.61424e-05
3.77785e-05
5.61115e-05
6.8727e-05
5.8512e-05
3.79306e-05
6.86978e-05
5.6213e-05
3.77983e-05
6.97979e-05
5.17199e-05
6.90978e-05
5.84171e-05
6.90831e-05
5.82206e-05
6.98097e-05
7.10733e-05
7.35423e-05
6.99849e-05
7.10699e-05
7.36297e-05
6.97968e-05
5.15077e-05
6.90661e-05
5.78979e-05
6.90796e-05
6.97849e-05
5.81e-05
7.10493e-05
7.37491e-05
6.9991e-05
7.3665e-05
7.10526e-05
8.70415e-05
7.25192e-05
7.25245e-05
7.25187e-05
7.25241e-05
8.71266e-05
5.59003e-05
3.73895e-05
6.86532e-05
5.83768e-05
6.86847e-05
5.57957e-05
3.75254e-05
5.58317e-05
3.73707e-05
6.86461e-05
5.83733e-05
3.7507e-05
5.57301e-05
6.86735e-05
8.70037e-05
7.25424e-05
7.25477e-05
7.25429e-05
8.69184e-05
7.25482e-05
5.61119e-05
6.87259e-05
5.85058e-05
3.79316e-05
6.86958e-05
3.77994e-05
5.62136e-05
5.60461e-05
6.87149e-05
5.85022e-05
3.79109e-05
3.77807e-05
6.8688e-05
5.6143e-05
6.97102e-05
6.9691e-05
6.97978e-05
5.17177e-05
6.90977e-05
5.84155e-05
6.90836e-05
5.82204e-05
6.98096e-05
7.10725e-05
7.35424e-05
6.99849e-05
7.10691e-05
7.36233e-05
6.97968e-05
5.15095e-05
6.90666e-05
5.78976e-05
6.90796e-05
6.97849e-05
5.80983e-05
7.10486e-05
7.37442e-05
6.99912e-05
7.36652e-05
7.10519e-05
6.97974e-05
5.17257e-05
5.84052e-05
6.90971e-05
5.82299e-05
6.90833e-05
6.98091e-05
7.10728e-05
7.35523e-05
6.9987e-05
7.36413e-05
7.10686e-05
6.97962e-05
5.14972e-05
5.79078e-05
6.90661e-05
5.8087e-05
6.97845e-05
6.9079e-05
7.10481e-05
7.37604e-05
6.99933e-05
7.36771e-05
7.10522e-05
6.97974e-05
5.17215e-05
6.90974e-05
5.84144e-05
6.90831e-05
5.82211e-05
6.98092e-05
7.10726e-05
7.35408e-05
6.99863e-05
7.10691e-05
7.36231e-05
6.97963e-05
5.15053e-05
6.90661e-05
5.78983e-05
6.97845e-05
6.90793e-05
5.80971e-05
7.10487e-05
7.37418e-05
6.99883e-05
7.36667e-05
7.1052e-05
8.70411e-05
7.25185e-05
7.25242e-05
7.25182e-05
7.25239e-05
8.7121e-05
5.59015e-05
3.73905e-05
6.86554e-05
5.83788e-05
6.86835e-05
5.57957e-05
3.75281e-05
5.5832e-05
3.73694e-05
6.8643e-05
5.83721e-05
3.75046e-05
5.57276e-05
6.86742e-05
8.69996e-05
7.25417e-05
7.25474e-05
7.25422e-05
8.69151e-05
7.25479e-05
5.61121e-05
6.87249e-05
5.85074e-05
3.79343e-05
6.86967e-05
3.78e-05
5.62107e-05
5.6043e-05
6.87149e-05
5.85009e-05
3.79108e-05
3.77796e-05
6.86855e-05
5.61439e-05
6.97097e-05
6.96907e-05
6.97981e-05
5.17266e-05
5.84173e-05
6.90981e-05
5.82259e-05
6.90833e-05
6.98099e-05
7.10733e-05
7.35545e-05
6.99891e-05
7.36453e-05
7.10698e-05
6.9797e-05
5.15032e-05
5.7903e-05
6.90664e-05
5.80998e-05
6.97851e-05
6.90799e-05
7.10494e-05
7.37619e-05
6.99912e-05
7.36808e-05
7.10527e-05
6.97977e-05
5.17266e-05
5.84153e-05
6.90979e-05
5.82211e-05
6.90833e-05
6.98096e-05
7.10732e-05
7.35378e-05
6.99867e-05
7.10696e-05
7.36289e-05
6.97967e-05
5.15024e-05
5.78983e-05
6.90663e-05
6.97848e-05
5.80981e-05
6.90798e-05
7.10492e-05
7.37496e-05
6.99888e-05
7.36612e-05
7.10526e-05
6.971e-05
6.96909e-05
6.97111e-05
6.96922e-05
1.59851e-05
1.59854e-05
1.5601e-05
1.58592e-05
1.58595e-05
1.62833e-05
1.64154e-05
3.44435e-05
1.72668e-05
2.2636e-05
2.26459e-05
1.54941e-05
1.54944e-05
1.51944e-05
1.53778e-05
1.53781e-05
1.5773e-05
1.58978e-05
3.61876e-05
2.36756e-05
2.36921e-05
1.76399e-05
3.60619e-05
2.3777e-05
2.37669e-05
3.44482e-05
2.25565e-05
2.25663e-05
1.72752e-05
3.42955e-05
2.26508e-05
2.26512e-05
3.56263e-05
1.75101e-05
2.34877e-05
2.34745e-05
2.33841e-05
2.34035e-05
3.57615e-05
3.44425e-05
1.72734e-05
2.26569e-05
2.26576e-05
3.56198e-05
1.75183e-05
2.34927e-05
2.34825e-05
2.33884e-05
2.33863e-05
3.57683e-05
3.44356e-05
2.25762e-05
2.25561e-05
1.72789e-05
2.26515e-05
3.43017e-05
2.26405e-05
3.56265e-05
1.75132e-05
2.34864e-05
2.34878e-05
2.3391e-05
2.33855e-05
3.57596e-05
3.56287e-05
1.75211e-05
2.34823e-05
2.34772e-05
3.57609e-05
2.33885e-05
2.34031e-05
3.61918e-05
2.36744e-05
2.36937e-05
1.76405e-05
3.60556e-05
2.37765e-05
2.3764e-05
3.6201e-05
2.36792e-05
2.36803e-05
1.76267e-05
2.37706e-05
3.60548e-05
2.37806e-05
3.61885e-05
2.36807e-05
2.36745e-05
1.7644e-05
2.37789e-05
3.60594e-05
2.37795e-05
1.59851e-05
1.59852e-05
1.56007e-05
1.58591e-05
1.5859e-05
1.6283e-05
1.64154e-05
1.59854e-05
1.59858e-05
1.56014e-05
1.58593e-05
1.58596e-05
1.62832e-05
1.64155e-05
1.59847e-05
1.59854e-05
1.56009e-05
1.58587e-05
1.58594e-05
1.62829e-05
1.64153e-05
1.54938e-05
1.56138e-05
1.56141e-05
1.57349e-05
1.57352e-05
1.61529e-05
1.60245e-05
1.54938e-05
1.56136e-05
1.56136e-05
1.57349e-05
1.5735e-05
1.61529e-05
1.60243e-05
1.54945e-05
1.56139e-05
1.56142e-05
1.57351e-05
1.57355e-05
1.6153e-05
1.60244e-05
1.54937e-05
1.56133e-05
1.5614e-05
1.57346e-05
1.57353e-05
1.61528e-05
1.60242e-05
1.83083e-05
2.58951e-05
3.01513e-05
1.6999e-05
3.00247e-05
1.69842e-05
1.83248e-05
2.07075e-05
3.6951e-05
4.28164e-05
2.53651e-05
2.52637e-05
3.68086e-05
2.0774e-05
1.82985e-05
2.58978e-05
1.70085e-05
3.01594e-05
1.69775e-05
3.00267e-05
1.834e-05
2.05724e-05
2.49468e-05
3.6404e-05
4.25693e-05
2.0508e-05
2.50523e-05
3.65364e-05
1.82067e-05
2.56254e-05
1.68912e-05
2.96024e-05
1.81756e-05
1.69197e-05
2.97326e-05
2.07096e-05
3.69478e-05
4.28154e-05
2.53688e-05
2.52628e-05
3.68148e-05
2.07769e-05
3.47462e-05
1.73454e-05
2.29166e-05
2.2914e-05
2.28389e-05
2.28405e-05
3.48825e-05
1.54941e-05
1.54942e-05
1.5194e-05
1.53776e-05
1.53776e-05
1.57728e-05
1.58978e-05
1.54944e-05
1.54948e-05
1.51947e-05
1.53779e-05
1.53782e-05
1.57729e-05
1.58979e-05
1.54939e-05
1.54946e-05
1.51945e-05
1.53774e-05
1.53781e-05
1.57727e-05
1.58977e-05
1.89066e-05
2.75334e-05
3.18574e-05
1.74456e-05
3.17296e-05
1.74123e-05
1.89292e-05
2.14044e-05
2.62334e-05
3.80259e-05
4.39871e-05
2.13683e-05
2.63443e-05
3.81531e-05
1.87658e-05
2.7245e-05
3.13041e-05
1.72955e-05
1.87454e-05
3.14318e-05
1.73159e-05
2.16015e-05
3.85384e-05
4.42226e-05
2.66701e-05
2.65669e-05
3.84247e-05
2.16407e-05
1.88968e-05
2.75356e-05
1.74455e-05
3.18668e-05
1.74149e-05
3.17273e-05
1.89443e-05
2.14324e-05
2.62363e-05
3.80272e-05
4.3991e-05
2.13596e-05
2.63433e-05
3.81637e-05
1.87672e-05
2.72498e-05
1.72945e-05
3.13014e-05
1.8735e-05
1.73168e-05
3.14405e-05
2.15909e-05
3.8556e-05
4.42189e-05
2.66658e-05
2.65684e-05
3.84221e-05
2.16631e-05
3.64884e-05
1.77206e-05
2.4074e-05
2.40608e-05
2.39674e-05
2.39876e-05
3.6614e-05
3.47406e-05
1.73329e-05
2.29243e-05
2.29077e-05
3.48912e-05
2.28268e-05
2.2838e-05
3.5322e-05
1.74445e-05
2.3102e-05
2.31208e-05
3.51842e-05
2.32024e-05
2.31853e-05
1.83087e-05
2.58925e-05
3.0157e-05
1.69967e-05
3.00268e-05
1.6983e-05
1.8325e-05
2.05712e-05
2.49496e-05
3.64079e-05
4.25662e-05
3.65349e-05
2.05174e-05
2.50499e-05
1.81933e-05
2.56282e-05
2.9602e-05
1.68936e-05
2.97311e-05
1.81789e-05
1.6907e-05
2.07109e-05
3.69478e-05
4.28204e-05
2.53693e-05
3.6818e-05
2.52663e-05
2.07772e-05
1.83031e-05
2.58928e-05
3.01583e-05
1.69975e-05
3.00229e-05
1.69825e-05
1.83217e-05
2.05528e-05
2.49658e-05
3.64079e-05
4.25708e-05
2.05195e-05
3.65218e-05
2.50522e-05
1.81971e-05
2.56287e-05
2.95974e-05
1.68934e-05
1.81701e-05
2.97349e-05
1.69099e-05
2.07254e-05
3.6934e-05
4.28258e-05
2.53707e-05
3.68209e-05
2.07589e-05
2.52795e-05
1.84782e-05
3.04534e-05
1.70783e-05
2.64278e-05
1.84438e-05
3.05822e-05
1.70935e-05
2.11358e-05
2.60158e-05
4.35322e-05
3.77574e-05
2.59057e-05
3.76313e-05
2.12123e-05
2.09919e-05
3.72254e-05
2.55845e-05
4.32926e-05
2.5693e-05
2.09193e-05
3.73511e-05
1.85822e-05
2.67037e-05
3.1012e-05
1.71992e-05
3.08787e-05
1.71824e-05
1.86279e-05
1.8464e-05
3.0449e-05
1.7078e-05
2.6429e-05
1.84454e-05
3.05827e-05
1.70947e-05
2.11546e-05
2.60123e-05
4.35405e-05
3.77474e-05
3.76344e-05
2.59246e-05
2.11915e-05
2.09711e-05
3.72301e-05
2.56e-05
4.32954e-05
2.0937e-05
3.73424e-05
2.5689e-05
1.85915e-05
2.67027e-05
3.10087e-05
1.72012e-05
3.08774e-05
1.71822e-05
1.8612e-05
3.47433e-05
1.73323e-05
2.29303e-05
2.29256e-05
2.28247e-05
2.28307e-05
3.48921e-05
3.53341e-05
1.74268e-05
2.31074e-05
2.31032e-05
2.32103e-05
3.5183e-05
2.3202e-05
1.83083e-05
2.58981e-05
3.01569e-05
1.69996e-05
3.00262e-05
1.69847e-05
1.83242e-05
2.05756e-05
2.49537e-05
3.64029e-05
4.25724e-05
3.65427e-05
2.05111e-05
2.50635e-05
1.8193e-05
2.5624e-05
2.96015e-05
1.68982e-05
2.97329e-05
1.81787e-05
1.69109e-05
2.07162e-05
3.69509e-05
4.28237e-05
2.5376e-05
3.6814e-05
2.52672e-05
2.07589e-05
1.82972e-05
2.58974e-05
1.69996e-05
3.01614e-05
1.69846e-05
3.00207e-05
1.83404e-05
2.05745e-05
2.49585e-05
3.64012e-05
4.25785e-05
2.05111e-05
3.65354e-05
2.50569e-05
1.82085e-05
2.56241e-05
1.68979e-05
2.95946e-05
1.81681e-05
1.6911e-05
2.9736e-05
2.0716e-05
3.69472e-05
4.28212e-05
2.53653e-05
3.68151e-05
2.07708e-05
2.52782e-05
1.84644e-05
3.04524e-05
1.70793e-05
2.64251e-05
1.84462e-05
3.05831e-05
1.70961e-05
2.11514e-05
2.60238e-05
4.35396e-05
3.77489e-05
2.59107e-05
3.76317e-05
2.119e-05
2.0969e-05
3.72256e-05
2.55871e-05
4.32935e-05
2.56957e-05
2.09328e-05
3.7359e-05
1.85924e-05
2.67068e-05
3.10114e-05
1.72015e-05
3.0879e-05
1.71829e-05
1.86127e-05
1.84801e-05
1.70792e-05
3.0447e-05
2.64258e-05
1.84349e-05
1.70964e-05
3.05876e-05
2.11474e-05
2.60214e-05
4.35393e-05
3.77478e-05
3.76323e-05
2.59237e-05
2.12075e-05
2.09694e-05
3.72229e-05
2.55996e-05
4.32941e-05
2.09271e-05
3.73403e-05
2.56882e-05
1.85791e-05
2.67069e-05
1.721e-05
3.10146e-05
1.71804e-05
3.08732e-05
1.86273e-05
1.8307e-05
2.58971e-05
1.69996e-05
3.01578e-05
1.69848e-05
3.00265e-05
1.83351e-05
2.07227e-05
3.69472e-05
4.28151e-05
2.53707e-05
2.52632e-05
3.68062e-05
2.07796e-05
1.84648e-05
3.04505e-05
1.7079e-05
2.64213e-05
1.84468e-05
3.05798e-05
1.70956e-05
2.11374e-05
2.60168e-05
4.35326e-05
3.77582e-05
2.11815e-05
2.59072e-05
3.76235e-05
2.09796e-05
3.72183e-05
2.55851e-05
4.32957e-05
2.0919e-05
2.56888e-05
3.73548e-05
1.85915e-05
2.67056e-05
3.10057e-05
1.72011e-05
1.86111e-05
3.08766e-05
1.71829e-05
1.84794e-05
1.70796e-05
3.04492e-05
2.6426e-05
1.84364e-05
1.70967e-05
3.05879e-05
2.1139e-05
2.60048e-05
4.35323e-05
3.77523e-05
3.7622e-05
2.59113e-05
2.12096e-05
2.09913e-05
3.72159e-05
2.55859e-05
4.32956e-05
2.09228e-05
3.7353e-05
2.56919e-05
1.85803e-05
2.6706e-05
1.72028e-05
3.10141e-05
1.71836e-05
3.08727e-05
1.86284e-05
3.47472e-05
1.73362e-05
2.29145e-05
2.29228e-05
2.28267e-05
2.28457e-05
3.48826e-05
3.53234e-05
1.74467e-05
2.31158e-05
2.31031e-05
2.32045e-05
3.51892e-05
2.31986e-05
1.82985e-05
2.5893e-05
1.70092e-05
3.01593e-05
1.69788e-05
3.00211e-05
1.83421e-05
2.0559e-05
2.49649e-05
3.64074e-05
4.25714e-05
2.50491e-05
2.05247e-05
3.65255e-05
1.82101e-05
2.56301e-05
1.68924e-05
2.95976e-05
1.69206e-05
1.81697e-05
2.97362e-05
2.07269e-05
3.69344e-05
4.28215e-05
2.53631e-05
2.52802e-05
3.68198e-05
2.07625e-05
1.84803e-05
1.70742e-05
3.04496e-05
2.64265e-05
1.84337e-05
1.70956e-05
3.05868e-05
2.11351e-05
2.60144e-05
4.35295e-05
3.77625e-05
2.12057e-05
2.59064e-05
3.76288e-05
2.09882e-05
3.72235e-05
2.55821e-05
4.32957e-05
2.09183e-05
2.56878e-05
3.73543e-05
1.85803e-05
2.67069e-05
1.72015e-05
3.10148e-05
1.86239e-05
1.71815e-05
3.08752e-05
1.84824e-05
1.70755e-05
3.04495e-05
2.64309e-05
1.84367e-05
1.7098e-05
3.05851e-05
2.1154e-05
2.6012e-05
4.35345e-05
3.77477e-05
3.76338e-05
2.59219e-05
2.11933e-05
2.09741e-05
3.72282e-05
2.55993e-05
4.32981e-05
2.09368e-05
3.73429e-05
2.56859e-05
1.85816e-05
2.67046e-05
1.72021e-05
3.10082e-05
1.71815e-05
3.08756e-05
1.86297e-05
3.5324e-05
1.74325e-05
2.3107e-05
2.31213e-05
3.51914e-05
2.31944e-05
2.31925e-05
3.64831e-05
1.77194e-05
2.40714e-05
2.40694e-05
3.6618e-05
2.39701e-05
2.39855e-05
1.88984e-05
2.75302e-05
3.18654e-05
1.74358e-05
3.17292e-05
1.74148e-05
1.89261e-05
2.14398e-05
2.62346e-05
3.80299e-05
4.39931e-05
3.8158e-05
2.13593e-05
2.63451e-05
1.8783e-05
2.72507e-05
3.13029e-05
1.72944e-05
3.14382e-05
1.87336e-05
1.73131e-05
2.15896e-05
3.85549e-05
4.42163e-05
2.66773e-05
3.84248e-05
2.6567e-05
2.1671e-05
1.89044e-05
2.75301e-05
3.18611e-05
1.74365e-05
3.17296e-05
1.74159e-05
1.89459e-05
2.14182e-05
2.62518e-05
3.80334e-05
4.39923e-05
2.1377e-05
3.815e-05
2.63438e-05
1.87667e-05
2.72503e-05
3.13037e-05
1.72942e-05
1.87456e-05
3.14361e-05
1.73151e-05
2.16095e-05
3.85422e-05
4.42264e-05
2.66769e-05
3.84296e-05
2.16515e-05
2.65846e-05
3.6483e-05
1.77276e-05
2.40711e-05
2.40511e-05
2.39766e-05
2.39753e-05
3.66165e-05
1.89026e-05
2.75336e-05
3.18638e-05
1.74456e-05
3.17289e-05
1.74101e-05
1.8927e-05
2.14169e-05
2.62391e-05
3.80372e-05
4.39916e-05
3.81527e-05
2.13748e-05
2.6353e-05
1.87683e-05
2.72476e-05
3.1306e-05
1.7295e-05
3.14369e-05
1.87473e-05
1.73196e-05
2.16059e-05
3.85453e-05
4.42267e-05
2.66862e-05
3.84332e-05
2.65709e-05
2.16512e-05
1.88932e-05
2.7534e-05
1.7448e-05
3.18674e-05
1.74075e-05
3.17268e-05
1.8946e-05
2.14307e-05
2.62445e-05
3.80334e-05
4.39937e-05
2.13612e-05
3.81455e-05
2.63583e-05
1.87825e-05
2.72471e-05
1.72875e-05
3.12993e-05
1.87321e-05
1.73259e-05
3.14381e-05
2.15935e-05
3.85373e-05
4.42259e-05
2.66913e-05
3.84307e-05
2.16655e-05
2.65723e-05
1.88951e-05
2.75334e-05
1.74397e-05
3.18665e-05
1.74165e-05
3.17246e-05
1.89479e-05
2.14381e-05
2.62447e-05
3.80253e-05
4.39902e-05
2.63354e-05
2.13649e-05
3.81543e-05
1.87847e-05
2.72471e-05
1.72956e-05
3.12994e-05
1.73169e-05
1.87335e-05
3.14419e-05
2.15961e-05
3.85479e-05
4.4221e-05
2.66668e-05
2.65789e-05
3.84209e-05
2.16657e-05
3.64879e-05
1.77226e-05
2.40704e-05
2.40753e-05
2.39677e-05
2.39755e-05
3.66141e-05
1.88955e-05
2.75359e-05
1.74393e-05
3.18601e-05
1.74163e-05
3.17309e-05
1.89478e-05
2.14259e-05
2.62499e-05
3.80353e-05
4.39953e-05
2.63434e-05
2.1378e-05
3.81469e-05
1.87854e-05
2.72477e-05
1.72953e-05
3.13044e-05
1.73172e-05
1.8735e-05
3.14342e-05
2.15982e-05
3.85498e-05
4.42216e-05
2.66761e-05
2.65818e-05
3.84266e-05
2.16649e-05
3.60233e-05
3.60197e-05
3.60197e-05
3.60085e-05
3.39295e-05
3.38852e-05
3.38851e-05
3.39586e-05
3.21566e-05
3.20014e-05
3.20007e-05
3.1943e-05
3.05321e-05
3.02194e-05
3.0219e-05
2.99747e-05
2.90291e-05
2.85401e-05
2.85419e-05
2.81055e-05
2.76304e-05
2.69691e-05
2.6974e-05
2.63718e-05
2.63249e-05
2.55107e-05
2.55172e-05
2.47884e-05
2.51046e-05
2.41643e-05
2.41709e-05
2.33595e-05
2.39638e-05
2.29304e-05
2.29363e-05
2.20861e-05
2.2898e-05
2.18075e-05
2.18121e-05
2.09678e-05
2.19037e-05
2.07927e-05
2.0796e-05
1.9994e-05
2.09776e-05
1.98827e-05
1.98849e-05
1.91603e-05
2.01147e-05
1.90755e-05
1.9077e-05
1.84661e-05
1.93138e-05
1.8368e-05
1.83692e-05
1.79068e-05
1.85739e-05
1.77569e-05
1.7758e-05
1.74769e-05
1.78925e-05
1.72407e-05
1.7242e-05
1.7169e-05
1.72672e-05
1.6819e-05
1.68205e-05
1.69849e-05
1.6696e-05
1.64912e-05
1.64927e-05
1.69438e-05
1.61776e-05
1.6257e-05
1.62583e-05
1.70384e-05
1.61164e-05
1.72674e-05
3.62978e-05
3.62919e-05
3.62919e-05
3.62978e-05
3.62919e-05
3.62919e-05
3.62908e-05
3.62908e-05
3.62908e-05
3.62908e-05
3.62919e-05
3.62919e-05
3.62978e-05
3.62919e-05
3.62919e-05
3.62977e-05
3.60085e-05
3.4265e-05
3.60197e-05
3.60197e-05