/*--------------------------------*- C++ -*----------------------------------*\
| =========                 |                                                 |
| \\      /  F ield         | OpenFOAM: The Open Source CFD Toolbox           |
|  \\    /   O peration     | Version:  2312                                  |
|   \\  /    A nd           | Website:  www.openfoam.com                      |
|    \\/     M anipulation  |                                                 |
\*---------------------------------------------------------------------------*/
FoamFile
{
    version     2.0;
    format      ascii;
    arch        "LSB;label=32;scalar=64";
    class       volScalarField;
    location    "150";
    object      nut;
}
// * * * * * * * * * * * * * * * * * * * * * * * * * * * * * * * * * * * * * //

dimensions      [0 2 -1 0 0 0 0];

internalField   nonuniform List<scalar> 
43008
(
0.000158304
0.000108527
0.000154142
0.00010477
0.000104773
8.35203e-05
8.52502e-05
8.40613e-05
0.000108507
0.000108489
0.000105629
0.000105613
8.39662e-05
0.000108525
0.000108492
0.000105648
0.000105615
0.000105651
0.000105621
8.51322e-05
8.39882e-05
0.000108522
0.000105653
0.000105643
8.38796e-05
8.33502e-05
0.000104756
0.000104737
8.34048e-05
0.000104772
0.000104741
0.00010475
8.34075e-05
0.000104771
6.515e-05
4.95122e-05
6.39754e-05
4.9518e-05
2.36525e-05
6.51338e-05
4.95071e-05
6.39656e-05
4.95127e-05
0.000158301
0.000158301
0.000158289
0.00015521
0.000155201
0.000155202
0.000155195
6.16223e-05
0.000107534
6.23237e-05
0.000133384
2.36553e-05
2.36514e-05
6.16835e-05
0.000134443
6.16215e-05
0.000107537
6.08775e-05
0.000133383
6.23118e-05
8.45732e-05
5.93442e-05
5.93378e-05
6.77282e-05
4.95374e-05
6.6686e-05
4.95429e-05
2.3642e-05
2.36382e-05
6.77484e-05
4.95317e-05
6.66908e-05
4.95372e-05
0.000154138
0.000154137
0.000154129
6.41765e-05
6.37317e-05
0.000130126
0.000103909
6.33687e-05
6.44111e-05
0.000129111
2.36411e-05
2.36373e-05
6.42221e-05
0.000130119
6.37101e-05
0.000103915
6.33215e-05
0.000129108
6.44193e-05
6.00591e-05
6.00742e-05
8.31617e-05
6.04395e-05
6.04184e-05
2.36584e-05
2.36546e-05
2.36561e-05
2.36523e-05
5.89441e-05
5.89345e-05
8.48835e-05
5.935e-05
5.93475e-05
2.36475e-05
2.36514e-05
2.36451e-05
2.3649e-05
8.41597e-05
5.99097e-05
5.99107e-05
5.95125e-05
5.95132e-05
6.51453e-05
4.95067e-05
6.39733e-05
4.95122e-05
6.16418e-05
6.1634e-05
0.000134438
0.000107513
6.08307e-05
6.23025e-05
0.000133382
6.16387e-05
6.16035e-05
0.000134431
0.000107495
6.08546e-05
6.23369e-05
0.000133374
6.53671e-05
4.9531e-05
4.95249e-05
6.6486e-05
6.53669e-05
4.95244e-05
4.95188e-05
6.64875e-05
6.2076e-05
0.000106579
6.33637e-05
0.000131229
6.2699e-05
0.000132262
6.2899e-05
6.20787e-05
0.00010656
6.33822e-05
0.000131221
6.26671e-05
0.000132253
6.28865e-05
8.48005e-05
5.93424e-05
5.93327e-05
2.36536e-05
2.36452e-05
2.36492e-05
8.41532e-05
5.99043e-05
5.98957e-05
5.95039e-05
5.95291e-05
2.36467e-05
2.36503e-05
6.16159e-05
6.16311e-05
0.000134436
0.000107532
6.08894e-05
6.23086e-05
0.000133382
6.51343e-05
4.94978e-05
6.39678e-05
4.95115e-05
6.16492e-05
0.000134427
6.16141e-05
0.000107499
6.08964e-05
0.000133371
6.23118e-05
6.53741e-05
4.95253e-05
4.95196e-05
6.64764e-05
6.20996e-05
0.000106596
6.33848e-05
0.000131227
6.26835e-05
0.000132259
6.28753e-05
6.53721e-05
4.95213e-05
4.9516e-05
6.64744e-05
6.20776e-05
0.000106565
0.000131213
6.33521e-05
0.000132248
6.26915e-05
6.28827e-05
6.50999e-05
4.95189e-05
6.16231e-05
0.000107502
0.000133372
6.23439e-05
6.5137e-05
4.9515e-05
6.20864e-05
0.000106596
6.33447e-05
0.00013123
6.26784e-05
0.000132271
6.28436e-05
6.53949e-05
4.95275e-05
4.95155e-05
6.64442e-05
6.20836e-05
0.00010657
0.000131222
6.33997e-05
0.000132256
6.26527e-05
6.28521e-05
6.53695e-05
4.95274e-05
4.95114e-05
6.6462e-05
5.89239e-05
5.89474e-05
8.49038e-05
5.93254e-05
5.93277e-05
2.36575e-05
2.36534e-05
2.36443e-05
2.36482e-05
8.41996e-05
5.9888e-05
5.98901e-05
5.95215e-05
5.9528e-05
2.36463e-05
2.36502e-05
6.16704e-05
0.000134437
6.15911e-05
0.000107526
6.08883e-05
0.000133382
6.23475e-05
6.51323e-05
4.95054e-05
6.39799e-05
4.95182e-05
6.51222e-05
4.94965e-05
6.39927e-05
4.95133e-05
6.20524e-05
0.000106598
0.000131226
6.33703e-05
0.000132263
6.2688e-05
6.29083e-05
6.20612e-05
0.000106592
0.000131227
6.33644e-05
0.000132259
6.26537e-05
6.28587e-05
6.53768e-05
4.95309e-05
4.9515e-05
6.64684e-05
6.5384e-05
4.95253e-05
4.95093e-05
6.6471e-05
2.36524e-05
2.3651e-05
8.42909e-05
5.99081e-05
5.98863e-05
5.95067e-05
5.95104e-05
2.36453e-05
2.36489e-05
2.36438e-05
2.36476e-05
2.36441e-05
2.36404e-05
2.3642e-05
2.36382e-05
6.00626e-05
6.00646e-05
8.33646e-05
6.0443e-05
6.04427e-05
6.77372e-05
4.95307e-05
6.66822e-05
4.95365e-05
6.42488e-05
6.37255e-05
0.000130115
0.000103881
6.33384e-05
6.44348e-05
0.000129109
6.42598e-05
6.37038e-05
0.000130107
0.000103866
6.33347e-05
6.44087e-05
0.000129101
6.00555e-05
6.0081e-05
8.33025e-05
6.04372e-05
6.04545e-05
2.36435e-05
2.36399e-05
6.42256e-05
6.37042e-05
0.000130114
0.000103907
6.33405e-05
6.44071e-05
0.000129108
6.77333e-05
4.95282e-05
6.66893e-05
4.95332e-05
6.42324e-05
0.000130101
6.37344e-05
0.000103877
6.33369e-05
0.000129094
6.43696e-05
6.77085e-05
4.95334e-05
6.67071e-05
4.95384e-05
6.42145e-05
0.000130111
6.36916e-05
0.000103875
6.3368e-05
0.000129104
6.4403e-05
6.77383e-05
4.95237e-05
6.66981e-05
4.95389e-05
6.00744e-05
6.0081e-05
8.33979e-05
6.04182e-05
6.04244e-05
2.36432e-05
2.36395e-05
6.41895e-05
0.000130116
6.37165e-05
0.000103903
6.33566e-05
0.000129108
6.43831e-05
6.77251e-05
4.95273e-05
6.66967e-05
4.95427e-05
6.77255e-05
4.95218e-05
6.66961e-05
4.95371e-05
2.36418e-05
2.36383e-05
2.36406e-05
2.36369e-05
3.61713e-05
6.46815e-05
4.03064e-05
6.75476e-05
4.0304e-05
6.71547e-05
3.61741e-05
2.02413e-05
6.6749e-05
4.95115e-05
2.02406e-05
6.69321e-05
3.6171e-05
6.44448e-05
4.03021e-05
6.66392e-05
3.61683e-05
4.0304e-05
6.70385e-05
2.02378e-05
6.71481e-05
4.95186e-05
6.69708e-05
2.02385e-05
2.36562e-05
2.36528e-05
3.6171e-05
6.4676e-05
6.75453e-05
4.03058e-05
6.71492e-05
4.03034e-05
3.61739e-05
2.02415e-05
6.67467e-05
4.95062e-05
2.02409e-05
6.69286e-05
3.61708e-05
6.44493e-05
6.66326e-05
4.03015e-05
3.61681e-05
6.7039e-05
4.03034e-05
2.02381e-05
6.71457e-05
4.95133e-05
6.69629e-05
2.02387e-05
2.36552e-05
2.36517e-05
6.93112e-05
2.15793e-05
2.15761e-05
2.15792e-05
2.1576e-05
6.9469e-05
7.01657e-05
5.90517e-05
6.60752e-05
4.70391e-05
7.02138e-05
5.905e-05
6.60388e-05
4.70306e-05
6.92571e-05
2.15827e-05
2.15795e-05
7.05187e-05
4.70551e-05
5.92221e-05
6.67264e-05
6.64704e-05
4.70485e-05
7.06641e-05
7.05753e-05
4.70495e-05
5.92185e-05
6.66884e-05
6.6515e-05
4.7034e-05
7.0712e-05
3.61846e-05
6.73195e-05
4.03241e-05
6.94329e-05
4.03202e-05
6.90684e-05
3.61878e-05
2.023e-05
6.7592e-05
4.95369e-05
2.02294e-05
6.77548e-05
3.61843e-05
6.71145e-05
4.03148e-05
6.86126e-05
3.61812e-05
4.03189e-05
6.89863e-05
2.02265e-05
6.79424e-05
4.9543e-05
6.77839e-05
2.02271e-05
2.36417e-05
2.36384e-05
3.61844e-05
6.73113e-05
6.94417e-05
4.03236e-05
6.90593e-05
4.03197e-05
3.61876e-05
2.02301e-05
6.75861e-05
4.95312e-05
2.02295e-05
6.77527e-05
3.61841e-05
6.71148e-05
6.8607e-05
4.03146e-05
3.61809e-05
6.89928e-05
4.03181e-05
2.02267e-05
6.79395e-05
4.95376e-05
6.778e-05
2.02272e-05
2.36408e-05
2.36377e-05
7.01125e-05
2.15655e-05
2.15623e-05
2.15655e-05
2.15623e-05
7.02483e-05
7.20903e-05
6.84153e-05
4.70907e-05
6.01762e-05
7.19447e-05
6.86116e-05
4.71043e-05
7.21638e-05
6.84442e-05
4.70866e-05
6.01561e-05
7.19895e-05
6.86393e-05
4.7092e-05
7.00622e-05
2.15689e-05
2.15658e-05
6.99228e-05
2.1569e-05
2.15658e-05
7.24172e-05
4.71158e-05
6.03251e-05
6.92634e-05
6.90671e-05
4.71102e-05
7.25495e-05
7.24463e-05
4.7106e-05
6.03411e-05
6.9267e-05
6.90821e-05
4.71011e-05
7.26187e-05
2.36581e-05
2.36551e-05
2.36557e-05
2.36526e-05
6.93168e-05
2.15798e-05
2.15766e-05
2.15796e-05
2.15764e-05
6.94733e-05
7.01784e-05
6.58531e-05
4.70295e-05
5.9043e-05
7.00236e-05
4.70451e-05
6.6042e-05
7.02122e-05
6.58458e-05
4.70233e-05
5.90558e-05
7.0077e-05
4.70304e-05
6.60749e-05
6.92608e-05
2.15829e-05
2.15797e-05
6.91018e-05
2.15832e-05
2.158e-05
7.05239e-05
4.70616e-05
5.92344e-05
6.67048e-05
4.70462e-05
7.06665e-05
6.65036e-05
7.05788e-05
4.70481e-05
5.92269e-05
6.6721e-05
4.70393e-05
7.07092e-05
6.64907e-05
2.36478e-05
2.36511e-05
2.36455e-05
2.36487e-05
6.96795e-05
2.15762e-05
2.1573e-05
6.95259e-05
2.15766e-05
2.15732e-05
7.14758e-05
6.80187e-05
5.97919e-05
4.70933e-05
4.70783e-05
6.77753e-05
7.16554e-05
7.15463e-05
6.80082e-05
5.97938e-05
4.70825e-05
4.70674e-05
6.77881e-05
7.16703e-05
7.11849e-05
4.70625e-05
6.71386e-05
5.96307e-05
7.10093e-05
4.70777e-05
6.73416e-05
7.11947e-05
4.70513e-05
6.71383e-05
5.96315e-05
7.10675e-05
4.70668e-05
6.73555e-05
6.97304e-05
2.15734e-05
2.15697e-05
2.15732e-05
2.15696e-05
6.98776e-05
3.61697e-05
6.46803e-05
4.03063e-05
6.75425e-05
4.03039e-05
6.71464e-05
3.61726e-05
2.02404e-05
6.67311e-05
4.95058e-05
2.02399e-05
6.69123e-05
3.61695e-05
6.44447e-05
4.03019e-05
6.66292e-05
4.03039e-05
3.61668e-05
6.70327e-05
2.0237e-05
6.712e-05
4.95128e-05
6.69508e-05
2.02375e-05
3.61774e-05
4.03067e-05
6.76572e-05
6.58266e-05
3.61744e-05
4.03098e-05
6.80425e-05
2.02322e-05
4.95314e-05
6.75589e-05
2.02329e-05
6.73954e-05
2.02356e-05
6.71794e-05
4.95248e-05
2.0235e-05
6.7357e-05
3.61777e-05
6.60333e-05
4.03141e-05
6.85252e-05
3.61808e-05
4.03103e-05
6.81432e-05
3.61759e-05
4.03066e-05
6.76475e-05
6.58245e-05
3.61729e-05
4.03097e-05
6.80352e-05
2.02314e-05
4.9525e-05
6.75317e-05
6.73756e-05
2.0232e-05
2.02347e-05
6.71671e-05
4.95183e-05
2.02342e-05
6.73295e-05
3.61761e-05
6.60337e-05
4.03139e-05
6.8524e-05
4.03102e-05
6.81325e-05
3.61792e-05
6.93159e-05
2.15766e-05
2.15795e-05
2.15764e-05
2.15793e-05
6.94727e-05
7.02216e-05
5.90485e-05
4.70304e-05
6.60855e-05
7.01763e-05
5.90423e-05
6.6038e-05
4.7044e-05
6.92603e-05
2.15797e-05
2.15826e-05
7.05629e-05
4.70468e-05
5.92178e-05
6.67241e-05
4.70391e-05
6.64792e-05
7.07238e-05
7.05239e-05
4.70608e-05
5.92413e-05
6.66778e-05
6.65006e-05
4.70449e-05
7.06655e-05
2.36573e-05
2.36538e-05
2.36456e-05
2.36488e-05
6.96776e-05
2.1573e-05
2.15759e-05
6.95257e-05
2.15732e-05
2.15761e-05
7.15119e-05
6.80229e-05
5.97848e-05
4.70794e-05
6.77688e-05
4.70711e-05
7.17053e-05
7.14993e-05
6.79923e-05
5.9808e-05
4.7088e-05
4.70825e-05
6.77852e-05
7.16252e-05
7.12345e-05
4.70553e-05
6.7124e-05
5.96256e-05
6.73746e-05
7.10433e-05
4.70626e-05
7.11516e-05
4.70617e-05
6.71523e-05
5.96181e-05
7.10183e-05
4.70755e-05
6.73391e-05
6.97281e-05
2.15699e-05
2.15727e-05
2.15696e-05
2.15726e-05
6.9877e-05
2.3647e-05
2.36503e-05
3.61693e-05
6.46808e-05
4.03056e-05
6.75434e-05
4.03034e-05
6.71394e-05
3.61723e-05
2.02406e-05
6.67143e-05
4.95071e-05
2.02399e-05
6.69142e-05
3.61692e-05
6.44346e-05
4.03013e-05
6.66235e-05
4.03032e-05
3.61664e-05
6.70346e-05
2.02372e-05
6.713e-05
4.9507e-05
6.69429e-05
2.02377e-05
3.61772e-05
6.76533e-05
4.03063e-05
6.58121e-05
3.61742e-05
6.80385e-05
4.03091e-05
2.02324e-05
4.95257e-05
6.75571e-05
2.0233e-05
6.73871e-05
2.02359e-05
6.71735e-05
4.95193e-05
2.02352e-05
6.73549e-05
3.61775e-05
6.60434e-05
6.8522e-05
4.03133e-05
3.61806e-05
6.81391e-05
4.031e-05
3.61755e-05
4.03062e-05
6.76443e-05
6.58134e-05
3.61725e-05
4.0309e-05
6.8032e-05
2.02315e-05
4.95222e-05
6.7527e-05
6.7373e-05
2.0232e-05
2.02349e-05
6.71605e-05
4.95153e-05
2.02343e-05
6.73277e-05
3.61758e-05
6.60411e-05
4.03131e-05
6.85116e-05
4.03099e-05
6.81334e-05
3.61789e-05
3.61709e-05
6.47095e-05
6.75147e-05
4.03052e-05
6.7167e-05
4.0303e-05
3.61739e-05
2.02381e-05
6.71389e-05
4.95086e-05
6.69564e-05
2.02388e-05
3.61697e-05
6.46874e-05
4.0306e-05
6.7537e-05
4.03037e-05
6.71508e-05
3.61726e-05
2.02373e-05
6.7125e-05
4.95047e-05
6.69449e-05
2.02379e-05
3.61772e-05
6.76645e-05
4.03058e-05
6.57831e-05
3.61741e-05
6.8012e-05
4.03085e-05
2.02324e-05
4.9526e-05
6.75482e-05
6.73768e-05
2.02331e-05
2.0236e-05
6.71731e-05
4.95243e-05
2.02353e-05
6.73482e-05
3.61774e-05
6.60606e-05
6.84788e-05
4.03127e-05
6.81502e-05
4.03095e-05
3.61805e-05
3.61759e-05
4.03064e-05
6.76498e-05
6.58172e-05
3.61729e-05
4.03094e-05
6.80316e-05
2.02317e-05
4.95175e-05
6.75275e-05
6.73718e-05
2.02322e-05
2.02351e-05
6.71625e-05
4.95214e-05
2.02345e-05
6.73325e-05
3.61762e-05
6.60385e-05
4.03136e-05
6.85122e-05
4.031e-05
6.81346e-05
3.61793e-05
6.93151e-05
2.15768e-05
2.15799e-05
2.15767e-05
2.15798e-05
6.94695e-05
7.02137e-05
6.58642e-05
4.70185e-05
5.90505e-05
4.70343e-05
7.0077e-05
6.60489e-05
7.01997e-05
6.58314e-05
4.70344e-05
5.90363e-05
6.60723e-05
7.00221e-05
4.70409e-05
6.92583e-05
2.158e-05
2.15832e-05
2.15802e-05
6.90961e-05
2.15833e-05
7.05792e-05
4.70508e-05
5.92217e-05
6.6714e-05
4.70355e-05
6.65084e-05
7.07088e-05
7.05088e-05
4.70577e-05
5.92422e-05
6.671e-05
6.64727e-05
4.70508e-05
7.069e-05
2.3657e-05
2.36538e-05
2.36446e-05
2.36478e-05
6.96734e-05
2.15733e-05
2.15764e-05
6.95256e-05
2.15734e-05
2.15765e-05
7.1534e-05
6.80288e-05
5.98023e-05
4.70793e-05
6.77775e-05
4.70711e-05
7.16848e-05
7.1494e-05
6.8003e-05
5.98079e-05
4.70924e-05
4.70785e-05
6.77691e-05
7.16348e-05
7.12072e-05
4.70519e-05
6.71438e-05
5.96092e-05
6.73784e-05
7.10644e-05
4.7066e-05
7.11516e-05
4.70669e-05
6.7123e-05
5.96114e-05
7.10027e-05
4.70746e-05
6.7358e-05
6.97272e-05
2.15699e-05
2.15731e-05
2.15699e-05
2.1573e-05
6.98732e-05
2.36467e-05
2.36498e-05
3.61714e-05
6.46891e-05
6.75375e-05
4.03057e-05
6.71547e-05
4.03033e-05
3.61743e-05
2.0242e-05
6.67462e-05
4.95099e-05
6.69259e-05
2.02414e-05
3.61712e-05
6.44341e-05
6.66384e-05
4.03014e-05
6.70382e-05
3.61685e-05
4.03033e-05
2.02386e-05
6.71418e-05
4.95081e-05
6.69655e-05
2.02391e-05
3.61687e-05
6.46963e-05
6.75432e-05
4.03051e-05
6.71432e-05
4.03028e-05
3.61717e-05
2.02402e-05
6.67131e-05
4.95068e-05
2.02396e-05
6.69135e-05
3.61686e-05
6.44126e-05
6.66254e-05
4.03009e-05
3.61658e-05
6.70242e-05
4.03027e-05
2.02368e-05
6.71357e-05
4.9503e-05
6.69395e-05
2.02374e-05
3.61776e-05
6.766e-05
4.0306e-05
6.58106e-05
3.61746e-05
6.80299e-05
4.03091e-05
2.02329e-05
4.9521e-05
6.75546e-05
6.73878e-05
2.02335e-05
2.02363e-05
6.71729e-05
4.95247e-05
2.02357e-05
6.73515e-05
3.61779e-05
6.60482e-05
6.85122e-05
4.03134e-05
6.81468e-05
4.03096e-05
3.61809e-05
3.61749e-05
6.76424e-05
4.03055e-05
6.58113e-05
3.61719e-05
6.80369e-05
4.03086e-05
2.02311e-05
4.95155e-05
6.75362e-05
6.736e-05
2.02317e-05
2.02345e-05
6.7149e-05
4.95193e-05
2.0234e-05
6.73366e-05
3.61752e-05
6.60474e-05
6.85183e-05
4.03128e-05
6.81267e-05
4.03091e-05
3.61783e-05
2.3656e-05
2.36526e-05
2.36547e-05
2.36512e-05
6.96731e-05
2.15758e-05
2.15726e-05
6.95222e-05
2.15759e-05
2.15727e-05
7.14699e-05
6.80042e-05
5.9788e-05
4.70901e-05
7.16507e-05
6.77627e-05
4.70754e-05
7.15219e-05
6.79883e-05
5.97981e-05
4.70798e-05
7.16975e-05
6.78055e-05
4.70664e-05
7.11802e-05
4.70646e-05
6.71143e-05
5.9629e-05
7.10044e-05
6.73748e-05
4.70722e-05
7.12247e-05
4.70504e-05
6.71677e-05
5.96117e-05
7.10567e-05
6.73339e-05
4.70654e-05
6.97255e-05
2.15725e-05
2.15693e-05
6.98708e-05
2.15724e-05
2.15692e-05
2.36453e-05
2.36488e-05
2.36441e-05
2.36474e-05
2.36438e-05
2.36406e-05
2.36417e-05
2.36385e-05
7.01153e-05
2.15663e-05
2.15627e-05
2.15663e-05
2.15626e-05
7.02577e-05
7.20912e-05
6.84073e-05
4.70935e-05
6.01797e-05
7.19478e-05
4.71082e-05
6.86616e-05
7.21472e-05
6.84317e-05
4.70824e-05
6.01787e-05
7.20124e-05
4.70972e-05
6.86466e-05
7.00686e-05
2.15698e-05
2.15662e-05
6.99273e-05
2.15699e-05
2.15663e-05
7.24236e-05
4.71225e-05
6.03271e-05
6.92882e-05
4.71081e-05
7.25537e-05
6.9046e-05
7.24607e-05
4.71097e-05
6.03303e-05
6.9265e-05
4.70984e-05
7.26063e-05
6.9071e-05
3.6183e-05
6.73117e-05
4.03244e-05
6.94266e-05
4.03196e-05
6.9056e-05
3.61861e-05
2.02291e-05
6.7571e-05
4.95305e-05
2.02286e-05
6.77318e-05
3.61827e-05
6.71252e-05
4.03146e-05
6.85989e-05
4.03189e-05
3.61795e-05
6.89857e-05
2.02257e-05
6.79183e-05
4.95371e-05
6.77631e-05
2.02262e-05
7.01108e-05
2.15631e-05
2.15658e-05
2.1563e-05
2.15657e-05
7.02569e-05
7.21672e-05
6.84136e-05
4.7082e-05
6.01722e-05
4.70973e-05
7.19785e-05
6.86628e-05
7.20957e-05
6.84295e-05
4.70974e-05
6.0169e-05
6.8637e-05
7.19671e-05
4.71026e-05
7.00691e-05
2.15665e-05
2.15691e-05
2.15666e-05
6.99244e-05
2.15692e-05
7.24413e-05
4.7112e-05
6.03213e-05
6.92923e-05
4.70973e-05
6.90555e-05
7.26274e-05
7.24245e-05
4.7118e-05
6.03402e-05
6.92574e-05
6.90666e-05
4.71115e-05
7.25521e-05
2.36433e-05
2.36401e-05
3.61827e-05
6.7314e-05
4.03233e-05
6.94325e-05
4.03197e-05
6.90573e-05
3.61858e-05
2.02291e-05
6.75757e-05
4.95273e-05
2.02286e-05
6.77205e-05
3.61824e-05
6.71125e-05
4.03145e-05
6.86044e-05
4.03179e-05
3.61793e-05
6.8974e-05
2.02257e-05
6.79106e-05
4.9534e-05
6.77667e-05
2.02262e-05
3.61844e-05
6.73307e-05
6.94141e-05
4.03227e-05
6.90789e-05
4.03194e-05
3.61874e-05
2.02302e-05
6.75807e-05
4.95323e-05
6.77434e-05
2.02296e-05
3.6184e-05
6.70884e-05
6.86293e-05
4.03141e-05
6.8947e-05
3.61809e-05
4.03175e-05
2.02267e-05
6.79307e-05
4.9539e-05
6.77758e-05
2.02273e-05
3.61831e-05
6.73204e-05
4.03239e-05
6.94223e-05
4.03197e-05
6.90615e-05
3.61862e-05
2.02293e-05
6.75741e-05
4.95333e-05
2.02288e-05
6.77219e-05
3.61827e-05
6.71036e-05
4.03146e-05
6.86048e-05
3.61796e-05
4.03184e-05
6.89744e-05
2.0226e-05
6.79088e-05
4.95297e-05
6.7773e-05
2.02264e-05
7.01139e-05
2.15631e-05
2.15662e-05
2.1563e-05
2.15661e-05
7.02515e-05
7.2178e-05
6.84188e-05
4.70872e-05
6.01566e-05
4.70937e-05
7.19955e-05
6.86633e-05
7.21318e-05
6.8415e-05
4.70932e-05
6.01616e-05
6.86341e-05
7.1953e-05
4.71078e-05
7.00661e-05
2.15664e-05
2.15696e-05
2.15665e-05
6.99225e-05
2.15697e-05
7.24423e-05
4.71095e-05
6.03399e-05
6.9293e-05
4.70998e-05
6.90591e-05
7.26181e-05
7.23981e-05
4.71214e-05
6.03445e-05
6.9257e-05
6.90605e-05
4.71083e-05
7.25802e-05
2.36429e-05
2.36397e-05
3.61847e-05
6.73249e-05
6.94346e-05
4.0324e-05
6.90663e-05
4.03189e-05
3.61879e-05
2.02306e-05
6.75868e-05
4.9537e-05
6.77488e-05
2.023e-05
3.61844e-05
6.71075e-05
6.86137e-05
4.0314e-05
6.89856e-05
3.61813e-05
4.03185e-05
2.02272e-05
6.7931e-05
4.95333e-05
6.77838e-05
2.02277e-05
3.61821e-05
6.73233e-05
6.94292e-05
4.03233e-05
6.90543e-05
4.03185e-05
3.61853e-05
2.02288e-05
6.7565e-05
4.95313e-05
2.02283e-05
6.77316e-05
3.61818e-05
6.71079e-05
6.85974e-05
4.03134e-05
3.61786e-05
6.89823e-05
4.03179e-05
2.02254e-05
6.79223e-05
4.95277e-05
6.77585e-05
2.02259e-05
2.36417e-05
2.36384e-05
2.36403e-05
2.36372e-05
0.000179996
0.000180006
0.000157285
0.000179146
0.000179157
0.000197114
0.000197812
6.88596e-05
8.50785e-05
7.04218e-05
7.03295e-05
0.000176544
0.000176554
0.000153141
0.000175703
0.000175714
0.000194309
0.000195007
7.15098e-05
7.11906e-05
7.13339e-05
8.35427e-05
7.13068e-05
7.15192e-05
7.14475e-05
6.8872e-05
7.02785e-05
7.02606e-05
8.52376e-05
6.86793e-05
7.05576e-05
7.04751e-05
7.06646e-05
8.37613e-05
7.11104e-05
7.11313e-05
7.09689e-05
7.09961e-05
7.08317e-05
6.89024e-05
8.52711e-05
7.04242e-05
7.05153e-05
7.06456e-05
8.38155e-05
7.1219e-05
7.12123e-05
7.09069e-05
7.09638e-05
7.08312e-05
6.88694e-05
7.04071e-05
7.02214e-05
8.52957e-05
7.05212e-05
6.86883e-05
7.02874e-05
7.06235e-05
8.37505e-05
7.10771e-05
7.11261e-05
7.09976e-05
7.09343e-05
7.08725e-05
7.06613e-05
8.39252e-05
7.12002e-05
7.10181e-05
7.08201e-05
7.09196e-05
7.10759e-05
7.1491e-05
7.12904e-05
7.12778e-05
8.35888e-05
7.13083e-05
7.14028e-05
7.14247e-05
7.15115e-05
7.12045e-05
7.12422e-05
8.34563e-05
7.14548e-05
7.13144e-05
7.14823e-05
7.14742e-05
7.13023e-05
7.12791e-05
8.3683e-05
7.14125e-05
7.12891e-05
7.13942e-05
0.000179994
0.000180004
0.000157277
0.000179141
0.000179148
0.000197109
0.000197812
0.000179994
0.000180006
0.000157278
0.000179141
0.000179151
0.000197108
0.000197811
0.000179987
0.000179999
0.000157269
0.000179132
0.000179146
0.000197103
0.000197807
0.00015622
0.000177422
0.000177433
0.000178267
0.000178277
0.000196411
0.000195712
0.000156217
0.000177417
0.000177424
0.000178266
0.000178277
0.00019641
0.000195707
0.000156216
0.000177416
0.000177426
0.000178265
0.000178277
0.000196409
0.000195706
0.000156206
0.000177409
0.000177422
0.000178259
0.000178272
0.000196406
0.000195701
7.32677e-05
6.14508e-05
6.31691e-05
7.68671e-05
6.30262e-05
7.68583e-05
7.29765e-05
6.69132e-05
6.38206e-05
6.2135e-05
6.51524e-05
6.49854e-05
6.35751e-05
6.69911e-05
7.31151e-05
6.1458e-05
7.69202e-05
6.32223e-05
7.67731e-05
6.30306e-05
7.30804e-05
6.70198e-05
6.46022e-05
6.29455e-05
6.17775e-05
6.66981e-05
6.47082e-05
6.32e-05
7.32942e-05
6.10631e-05
7.72177e-05
6.23863e-05
7.33921e-05
7.73319e-05
6.25582e-05
6.67859e-05
6.38025e-05
6.21568e-05
6.52131e-05
6.50234e-05
6.35771e-05
6.71502e-05
6.93484e-05
8.47901e-05
7.06847e-05
7.05019e-05
7.04954e-05
7.05717e-05
6.95148e-05
0.000176542
0.000176554
0.000153131
0.000175696
0.000175705
0.000194304
0.000195007
0.000176541
0.000176553
0.000153132
0.000175696
0.000175707
0.000194302
0.000195006
0.000176537
0.000176549
0.000153127
0.00017569
0.000175703
0.000194298
0.000195003
7.25614e-05
6.40189e-05
6.58727e-05
7.56285e-05
6.57015e-05
7.57594e-05
7.26896e-05
6.7405e-05
6.64086e-05
6.54887e-05
6.38635e-05
6.7549e-05
6.65306e-05
6.56701e-05
7.27781e-05
6.35139e-05
6.5023e-05
7.60236e-05
7.26654e-05
6.52043e-05
7.57895e-05
6.78019e-05
6.6255e-05
6.42359e-05
6.69932e-05
6.69183e-05
6.6131e-05
6.76905e-05
7.26468e-05
6.39851e-05
7.57718e-05
6.59209e-05
7.56547e-05
6.56909e-05
7.26208e-05
6.75547e-05
6.63617e-05
6.54869e-05
6.39222e-05
6.74427e-05
6.663e-05
6.57263e-05
7.25798e-05
6.35688e-05
7.58807e-05
6.50201e-05
7.2713e-05
7.59389e-05
6.5219e-05
6.77241e-05
6.63265e-05
6.421e-05
6.70717e-05
6.68521e-05
6.61082e-05
6.78333e-05
7.19514e-05
8.3167e-05
7.1857e-05
7.17322e-05
7.14968e-05
7.1588e-05
7.21845e-05
6.9336e-05
8.46756e-05
7.07234e-05
7.05978e-05
6.95302e-05
7.04214e-05
7.04777e-05
7.01581e-05
8.4404e-05
7.06701e-05
7.0742e-05
6.99913e-05
7.0846e-05
7.08336e-05
7.32068e-05
6.14384e-05
6.31936e-05
7.66903e-05
6.3032e-05
7.6948e-05
7.29868e-05
6.69621e-05
6.46138e-05
6.29877e-05
6.17693e-05
6.3168e-05
6.67574e-05
6.47133e-05
7.31851e-05
6.10915e-05
6.2365e-05
7.72985e-05
6.25451e-05
7.34019e-05
7.70494e-05
6.68909e-05
6.38148e-05
6.21744e-05
6.51742e-05
6.36156e-05
6.50537e-05
6.70206e-05
7.3204e-05
6.14542e-05
6.32493e-05
7.68455e-05
6.30102e-05
7.68319e-05
7.29372e-05
6.67367e-05
6.46563e-05
6.2992e-05
6.18061e-05
6.6881e-05
6.31208e-05
6.47118e-05
7.32617e-05
6.10538e-05
6.23715e-05
7.7179e-05
7.32962e-05
6.25589e-05
7.72242e-05
6.70357e-05
6.37881e-05
6.21392e-05
6.51501e-05
6.36236e-05
6.68752e-05
6.50767e-05
7.29482e-05
6.37069e-05
7.66043e-05
6.22583e-05
7.30457e-05
6.38611e-05
7.63366e-05
6.72833e-05
6.60738e-05
6.32109e-05
6.50596e-05
6.59211e-05
6.48655e-05
6.7391e-05
6.72053e-05
6.4236e-05
6.54858e-05
6.28362e-05
6.56296e-05
6.70971e-05
6.44281e-05
7.27485e-05
6.27028e-05
6.45463e-05
7.60434e-05
6.43587e-05
7.62841e-05
7.28539e-05
7.27828e-05
6.36528e-05
7.64799e-05
6.226e-05
7.30378e-05
6.39044e-05
7.64965e-05
6.73814e-05
6.60189e-05
6.31944e-05
6.50667e-05
6.48691e-05
6.59834e-05
6.72345e-05
6.70456e-05
6.42444e-05
6.55257e-05
6.28685e-05
6.71965e-05
6.44364e-05
6.55709e-05
7.28904e-05
6.26987e-05
6.45726e-05
7.62077e-05
6.43206e-05
7.61778e-05
7.2663e-05
6.93159e-05
8.45801e-05
7.07352e-05
7.06201e-05
7.05073e-05
7.04278e-05
6.95427e-05
7.02052e-05
8.42949e-05
7.06492e-05
7.07412e-05
7.09764e-05
6.99832e-05
7.08395e-05
7.31962e-05
6.14804e-05
6.31946e-05
7.67114e-05
6.30236e-05
7.69665e-05
7.29794e-05
6.68874e-05
6.46031e-05
6.29324e-05
6.17687e-05
6.32213e-05
6.68286e-05
6.47585e-05
7.31731e-05
6.10492e-05
6.23783e-05
7.73462e-05
6.2561e-05
7.33968e-05
7.70796e-05
6.69735e-05
6.38202e-05
6.2168e-05
6.51754e-05
6.35572e-05
6.50311e-05
6.68747e-05
7.29192e-05
6.1473e-05
7.66927e-05
6.32217e-05
7.6919e-05
6.29888e-05
7.32588e-05
6.70342e-05
6.45601e-05
6.29772e-05
6.17898e-05
6.67156e-05
6.31569e-05
6.47724e-05
7.34642e-05
6.1056e-05
7.72601e-05
6.23213e-05
7.31706e-05
7.70657e-05
6.26123e-05
6.68408e-05
6.37927e-05
6.21573e-05
6.51664e-05
6.362e-05
6.71047e-05
6.50188e-05
7.28243e-05
6.36924e-05
7.6613e-05
6.22299e-05
7.30385e-05
6.38526e-05
7.63552e-05
6.73608e-05
6.61712e-05
6.31915e-05
6.50105e-05
6.5896e-05
6.4879e-05
6.7222e-05
6.70271e-05
6.42306e-05
6.54704e-05
6.28704e-05
6.56179e-05
6.71691e-05
6.4429e-05
7.29012e-05
6.27192e-05
6.45365e-05
7.61505e-05
6.43599e-05
7.62672e-05
7.26967e-05
7.30525e-05
7.6603e-05
6.36712e-05
6.22519e-05
7.2721e-05
7.63488e-05
6.38765e-05
6.7202e-05
6.61367e-05
6.3215e-05
6.50175e-05
6.48903e-05
6.5916e-05
6.75007e-05
6.71726e-05
6.42512e-05
6.54675e-05
6.28228e-05
6.7006e-05
6.43686e-05
6.56154e-05
7.2642e-05
6.27038e-05
7.61285e-05
6.45964e-05
7.62565e-05
6.43293e-05
7.27416e-05
7.32239e-05
6.1451e-05
7.68744e-05
6.32093e-05
7.68676e-05
6.30295e-05
7.30695e-05
6.68995e-05
6.38572e-05
6.21202e-05
6.51766e-05
6.50145e-05
6.35658e-05
6.71816e-05
7.27925e-05
6.36969e-05
7.65339e-05
6.222e-05
7.30506e-05
6.3853e-05
7.63677e-05
6.72959e-05
6.60581e-05
6.32078e-05
6.50703e-05
6.71822e-05
6.59368e-05
6.48509e-05
6.71219e-05
6.42197e-05
6.54771e-05
6.28375e-05
6.71048e-05
6.55761e-05
6.44392e-05
7.28328e-05
6.27196e-05
6.45354e-05
7.60554e-05
7.28145e-05
6.43526e-05
7.62906e-05
7.31767e-05
7.65014e-05
6.3681e-05
6.22355e-05
7.29254e-05
7.65191e-05
6.38809e-05
6.71669e-05
6.60193e-05
6.31771e-05
6.50799e-05
6.48302e-05
6.59414e-05
6.75262e-05
6.73312e-05
6.41897e-05
6.54779e-05
6.28763e-05
6.69931e-05
6.44745e-05
6.5628e-05
7.2654e-05
6.27172e-05
7.62235e-05
6.4585e-05
7.61979e-05
6.43295e-05
7.30292e-05
6.93285e-05
8.46447e-05
7.05211e-05
7.07332e-05
7.04348e-05
7.0612e-05
6.95703e-05
7.02162e-05
8.45392e-05
7.07988e-05
7.06547e-05
7.0822e-05
6.99706e-05
7.09482e-05
7.30952e-05
6.14574e-05
7.69304e-05
6.32006e-05
7.67873e-05
6.30196e-05
7.31123e-05
6.6772e-05
6.46314e-05
6.29977e-05
6.17978e-05
6.47756e-05
6.69169e-05
6.31201e-05
7.33088e-05
6.10488e-05
7.72404e-05
6.2384e-05
7.73474e-05
7.33019e-05
6.25618e-05
6.70433e-05
6.37665e-05
6.21281e-05
6.51755e-05
6.50221e-05
6.36309e-05
6.6894e-05
7.29636e-05
7.64139e-05
6.36766e-05
6.22764e-05
7.28414e-05
7.64796e-05
6.38687e-05
6.71763e-05
6.61417e-05
6.3202e-05
6.50818e-05
6.73087e-05
6.5886e-05
6.48704e-05
6.72921e-05
6.42393e-05
6.54466e-05
6.28394e-05
6.69259e-05
6.56749e-05
6.44228e-05
7.28151e-05
6.26767e-05
7.61773e-05
6.45367e-05
7.27147e-05
7.61466e-05
6.43441e-05
7.29803e-05
7.64304e-05
6.36885e-05
6.22815e-05
7.29335e-05
7.65045e-05
6.38681e-05
6.73732e-05
6.60514e-05
6.31833e-05
6.50558e-05
6.48746e-05
6.5952e-05
6.72406e-05
6.70601e-05
6.42516e-05
6.54701e-05
6.28782e-05
6.71914e-05
6.44344e-05
6.55733e-05
7.27643e-05
6.26877e-05
7.62043e-05
6.4551e-05
7.61558e-05
6.43394e-05
7.29966e-05
7.01831e-05
8.417e-05
7.0664e-05
7.08395e-05
7.00063e-05
7.0916e-05
7.07271e-05
7.19565e-05
8.30423e-05
7.17284e-05
7.18016e-05
7.21556e-05
7.16106e-05
7.15712e-05
7.27202e-05
6.39816e-05
6.59463e-05
7.57028e-05
6.56779e-05
7.56813e-05
7.24958e-05
6.76255e-05
6.64147e-05
6.54902e-05
6.38881e-05
6.57067e-05
6.74964e-05
6.65458e-05
7.27642e-05
6.35425e-05
6.50081e-05
7.59713e-05
6.52456e-05
7.26592e-05
7.59234e-05
6.77176e-05
6.63671e-05
6.42198e-05
6.70452e-05
6.61115e-05
6.68996e-05
6.78764e-05
7.27333e-05
6.39772e-05
6.58925e-05
7.57031e-05
6.568e-05
7.56757e-05
7.26675e-05
6.74671e-05
6.64567e-05
6.5484e-05
6.39028e-05
6.7589e-05
6.57065e-05
6.6526e-05
7.26031e-05
6.35547e-05
6.49921e-05
7.58963e-05
7.26933e-05
6.52462e-05
7.59368e-05
6.78228e-05
6.62875e-05
6.42158e-05
6.71121e-05
6.61211e-05
6.77458e-05
6.6939e-05
7.19654e-05
8.31143e-05
7.17689e-05
7.16923e-05
7.15629e-05
7.15373e-05
7.2133e-05
7.27077e-05
6.39794e-05
6.59098e-05
7.57922e-05
6.56889e-05
7.56361e-05
7.25343e-05
6.74579e-05
6.63421e-05
6.55308e-05
6.39018e-05
6.56642e-05
6.75762e-05
6.6661e-05
7.26103e-05
6.35659e-05
6.50318e-05
7.59566e-05
6.52083e-05
7.28148e-05
7.60045e-05
6.78044e-05
6.62796e-05
6.42157e-05
6.71489e-05
6.61525e-05
6.68333e-05
6.77313e-05
7.25742e-05
6.39823e-05
7.5786e-05
6.59426e-05
7.55875e-05
6.56623e-05
7.26218e-05
6.76216e-05
6.63437e-05
6.55244e-05
6.3869e-05
6.73575e-05
6.56505e-05
6.66757e-05
7.26396e-05
6.35627e-05
7.58906e-05
6.49807e-05
7.26352e-05
7.60456e-05
6.52378e-05
6.76992e-05
6.62719e-05
6.42423e-05
6.71732e-05
6.61488e-05
6.78619e-05
6.68231e-05
7.25156e-05
6.40059e-05
7.57306e-05
6.59513e-05
7.56822e-05
6.56524e-05
7.28685e-05
6.77426e-05
6.64512e-05
6.54673e-05
6.3905e-05
6.64786e-05
6.73809e-05
6.57147e-05
7.28579e-05
6.3509e-05
7.59132e-05
6.49818e-05
7.59497e-05
7.24742e-05
6.52826e-05
6.76377e-05
6.63412e-05
6.42065e-05
6.69578e-05
6.69584e-05
6.60909e-05
6.79665e-05
7.19807e-05
8.30943e-05
7.18074e-05
7.1743e-05
7.15944e-05
7.15849e-05
7.21365e-05
7.2482e-05
6.40172e-05
7.55607e-05
6.58835e-05
7.56957e-05
6.56836e-05
7.28369e-05
6.75176e-05
6.64291e-05
6.55018e-05
6.38774e-05
6.65341e-05
6.75894e-05
6.56862e-05
7.29562e-05
6.35113e-05
7.58885e-05
6.50038e-05
7.59431e-05
7.26139e-05
6.52393e-05
6.77484e-05
6.63458e-05
6.42282e-05
6.70292e-05
6.69247e-05
6.61075e-05
6.78212e-05
0.000233968
0.000233535
0.000233536
0.00023343
0.000232518
0.000227474
0.000227471
0.000223673
0.000230461
0.000220014
0.000219995
0.000208825
0.000227713
0.000211367
0.000211351
0.000193511
0.000224326
0.000202347
0.000202363
0.000179489
0.000220433
0.000193465
0.000193521
0.000167171
0.000216181
0.000184976
0.00018506
0.000156437
0.000211698
0.000176965
0.000177051
0.000147128
0.000207089
0.000169463
0.000169532
0.000138908
0.000202432
0.000162427
0.000162475
0.000131611
0.000197783
0.000155794
0.000155826
0.000125075
0.000193174
0.000149508
0.000149532
0.00011893
0.000188587
0.000143535
0.000143553
0.000113237
0.000184057
0.000137822
0.000137834
0.0001079
0.000179613
0.000132327
0.000132334
0.000102982
0.000175244
0.00012704
0.000127045
9.8339e-05
0.000170939
0.000121984
0.000121986
9.40808e-05
0.000166686
0.000117189
0.000117186
9.03891e-05
0.000162483
0.000112681
0.000112681
8.74928e-05
0.000108527
8.53039e-05
0.00023425
0.000234466
0.000234465
0.000234254
0.000234465
0.000234466
0.00023426
0.00023426
0.00023426
0.00023426
0.000234465
0.000234465
0.000234255
0.000234466
0.000234465
0.000234258
0.000233435
0.00022602
0.000233535
0.000233536