/*--------------------------------*- C++ -*----------------------------------*\
| =========                 |                                                 |
| \\      /  F ield         | OpenFOAM: The Open Source CFD Toolbox           |
|  \\    /   O peration     | Version:  2312                                  |
|   \\  /    A nd           | Website:  www.openfoam.com                      |
|    \\/     M anipulation  |                                                 |
\*---------------------------------------------------------------------------*/
FoamFile
{
    version     2.0;
    format      ascii;
    arch        "LSB;label=32;scalar=64";
    class       volVectorField;
    location    "150";
    object      U;
}
// * * * * * * * * * * * * * * * * * * * * * * * * * * * * * * * * * * * * * //

dimensions      [0 1 -1 0 0 0 0];

internalField   nonuniform List<vector> 
43008
(
(6.35193e-05 6.34862e-05 0.108289)
(5.91687e-05 -9.55788e-05 0.107556)
(6.23319e-05 6.22905e-05 0.108604)
(-9.37463e-05 5.8204e-05 0.10777)
(5.81772e-05 -9.37748e-05 0.10777)
(-0.000149811 -0.00014979 0.106583)
(0.000152488 0.000152453 0.106507)
(1.24699e-05 1.25352e-05 0.106724)
(5.93624e-05 9.54837e-05 0.107556)
(-5.94336e-05 9.56357e-05 0.107556)
(5.86403e-05 9.4181e-05 0.107718)
(-5.86624e-05 9.42757e-05 0.107718)
(-1.24738e-05 1.25351e-05 0.106724)
(9.56016e-05 5.92521e-05 0.107557)
(9.55689e-05 -5.94e-05 0.107556)
(9.42567e-05 5.85315e-05 0.107718)
(9.41718e-05 -5.86326e-05 0.107718)
(-9.41765e-05 5.8462e-05 0.107718)
(-9.41137e-05 -5.85742e-05 0.107718)
(0.000152476 -0.000152533 0.106507)
(1.24968e-05 -1.24764e-05 0.106724)
(-5.92592e-05 -9.55668e-05 0.107556)
(5.84139e-05 -9.41925e-05 0.107718)
(-5.84871e-05 -9.41926e-05 0.107718)
(-1.25495e-05 -1.24418e-05 0.106723)
(0.00014979 0.000149759 0.106583)
(5.84071e-05 9.37968e-05 0.10777)
(-5.84073e-05 9.38586e-05 0.107769)
(-0.000149765 0.000149759 0.106583)
(9.38562e-05 5.82855e-05 0.10777)
(9.37773e-05 -5.83745e-05 0.107769)
(-9.37063e-05 -5.83132e-05 0.10777)
(0.000149757 -0.000149811 0.106583)
(-5.82395e-05 -9.38017e-05 0.10777)
(2.08143e-06 2.06447e-05 0.0947536)
(-2.85314e-06 3.83969e-05 0.084094)
(2.79369e-06 7.04735e-05 0.0947944)
(-5.23857e-06 -1.35862e-06 0.0840842)
(6.02284e-06 -4.9007e-06 0.0725396)
(2.06465e-05 2.08595e-06 0.0947533)
(3.84079e-05 -2.82472e-06 0.0840936)
(7.0487e-05 2.81425e-06 0.0947941)
(-1.43333e-06 -5.3815e-06 0.0840839)
(-6.35234e-05 6.34728e-05 0.108289)
(6.34679e-05 -6.35512e-05 0.108289)
(-6.35423e-05 -6.35457e-05 0.108289)
(6.26156e-05 6.25744e-05 0.108526)
(-6.26067e-05 6.25601e-05 0.108526)
(6.25433e-05 -6.26209e-05 0.108525)
(-6.26148e-05 -6.26163e-05 0.108525)
(-6.19682e-05 6.36517e-06 0.103006)
(-9.5078e-05 5.89673e-05 0.107612)
(-3.0149e-05 2.07315e-06 0.0963733)
(-0.000104285 2.10842e-05 0.108126)
(1.64112e-05 -3.53622e-06 0.0725061)
(-4.835e-06 6.0006e-06 0.0725387)
(6.26459e-06 -6.19466e-05 0.103005)
(2.1256e-05 -0.000104771 0.108054)
(3.09213e-05 -7.53554e-05 0.0963589)
(5.89182e-05 -9.5096e-05 0.107611)
(7.54691e-06 -0.000126251 0.102966)
(2.11159e-05 -0.000104345 0.108126)
(2.06653e-06 -3.01135e-05 0.0963713)
(-1.40585e-05 -1.39129e-05 0.10668)
(-1.55856e-05 2.03435e-06 0.0899682)
(2.07871e-06 -1.55729e-05 0.0899644)
(1.5959e-06 1.51607e-05 0.0943881)
(-1.91346e-06 3.54024e-05 0.0838205)
(2.33204e-06 6.37742e-05 0.0944192)
(-4.59796e-06 -3.39336e-06 0.0838199)
(-3.47799e-06 1.57393e-05 0.0723235)
(5.76751e-06 -5.20725e-06 0.0723616)
(1.5163e-05 1.58314e-06 0.0943878)
(3.54266e-05 -2.00466e-06 0.0838203)
(6.37975e-05 2.29602e-06 0.094419)
(-3.39963e-06 -4.57867e-06 0.0838198)
(-6.23093e-05 6.22758e-05 0.108604)
(6.22609e-05 -6.23204e-05 0.108603)
(-6.23216e-05 -6.23177e-05 0.108603)
(-5.52821e-05 5.20858e-06 0.102756)
(-6.99169e-05 2.85198e-05 0.0960243)
(-0.000103186 2.06563e-05 0.108337)
(-9.32757e-05 5.79532e-05 0.107821)
(-0.00011866 6.51043e-06 0.102723)
(-2.55365e-05 7.07711e-07 0.0960443)
(-0.000102822 2.05218e-05 0.108405)
(1.56688e-05 -3.59641e-06 0.0723236)
(-5.22758e-06 5.81479e-06 0.0723609)
(5.08209e-06 -5.52768e-05 0.102755)
(2.06911e-05 -0.00010325 0.108336)
(2.85466e-05 -6.99785e-05 0.0960253)
(5.79028e-05 -9.32988e-05 0.107821)
(6.57909e-06 -0.000118758 0.102723)
(2.05461e-05 -0.000102858 0.108405)
(6.72564e-07 -2.54509e-05 0.0960422)
(-3.4357e-05 -1.84447e-05 0.0896682)
(-1.84321e-05 -3.43123e-05 0.0896669)
(-1.10814e-05 -1.09707e-05 0.10676)
(-1.30914e-05 2.63966e-06 0.0896702)
(2.61688e-06 -1.30404e-05 0.0896666)
(3.43935e-06 1.63685e-05 0.0725059)
(-6.15467e-06 -4.87099e-06 0.0725391)
(1.63527e-05 3.39916e-06 0.0725047)
(-5.03942e-06 -6.29912e-06 0.0725384)
(1.95464e-05 3.68829e-05 0.0899753)
(3.68823e-05 1.94471e-05 0.0899723)
(1.39321e-05 1.39938e-05 0.106681)
(-2.16749e-06 1.56158e-05 0.0899685)
(1.5364e-05 -2.19999e-06 0.0899658)
(-5.68561e-06 -5.04618e-06 0.0724482)
(3.55461e-06 1.60922e-05 0.0724125)
(-5.07557e-06 -5.94491e-06 0.0724477)
(1.59704e-05 3.40694e-06 0.0724111)
(0.000151174 0.000151148 0.106548)
(-2.34396e-06 1.43339e-05 0.089816)
(1.42333e-05 -2.43222e-06 0.0898136)
(1.89307e-05 3.56946e-05 0.0898186)
(3.55237e-05 1.88814e-05 0.0898153)
(-2.14897e-06 2.06349e-05 0.0947533)
(2.81419e-06 3.83352e-05 0.0840937)
(-2.911e-06 7.04606e-05 0.0947943)
(5.14352e-06 -1.37113e-06 0.0840839)
(6.33459e-06 6.18612e-05 0.103006)
(3.08966e-05 7.53633e-05 0.0963587)
(2.12905e-05 0.000104647 0.108055)
(5.9114e-05 9.50316e-05 0.107611)
(7.48003e-06 0.000126214 0.102967)
(2.03123e-06 3.01835e-05 0.0963718)
(2.11494e-05 0.000104236 0.108126)
(-6.35411e-06 6.18596e-05 0.103006)
(-3.08933e-05 7.53059e-05 0.0963574)
(-2.12847e-05 0.000104679 0.108055)
(-5.91908e-05 9.51661e-05 0.107611)
(-7.56921e-06 0.00012622 0.102967)
(-2.13144e-06 3.0144e-05 0.0963704)
(-2.11527e-05 0.000104261 0.108126)
(2.53847e-06 6.69703e-05 0.0946027)
(-4.69923e-06 -2.55807e-06 0.0839485)
(-2.27556e-06 3.68243e-05 0.0839538)
(1.82657e-06 1.77387e-05 0.0945667)
(-2.64534e-06 6.69641e-05 0.0946026)
(4.66846e-06 -2.42559e-06 0.0839481)
(2.29553e-06 3.68216e-05 0.0839537)
(-1.89128e-06 1.77508e-05 0.0945664)
(7.01714e-06 0.000122433 0.102848)
(5.88965e-05 9.46539e-05 0.107665)
(1.38893e-06 2.76542e-05 0.0962046)
(2.08695e-05 0.000103512 0.108267)
(2.9737e-05 7.26293e-05 0.0961894)
(2.10142e-05 0.000103905 0.108197)
(5.74473e-06 5.84616e-05 0.102883)
(-7.09479e-06 0.000122435 0.102847)
(-5.89207e-05 9.47505e-05 0.107665)
(-1.38667e-06 2.78058e-05 0.0962029)
(-2.08689e-05 0.000103529 0.108267)
(-2.97194e-05 7.26226e-05 0.0961884)
(-2.10061e-05 0.000103921 0.108197)
(-5.73946e-06 5.84737e-05 0.102883)
(-1.39652e-05 1.40025e-05 0.106681)
(2.07268e-06 1.55894e-05 0.0899663)
(-1.56241e-05 -2.12169e-06 0.0899698)
(4.83817e-06 -5.97746e-06 0.0725417)
(5.82713e-06 -4.86722e-06 0.0724485)
(-3.50147e-06 1.60266e-05 0.0724125)
(-0.000151191 0.000151166 0.106548)
(2.49394e-06 1.44962e-05 0.0898138)
(-1.42991e-05 -2.44145e-06 0.0898177)
(-1.88917e-05 3.56276e-05 0.0898157)
(-3.55482e-05 1.89358e-05 0.0898168)
(5.10393e-06 -5.87778e-06 0.0724512)
(-1.602e-05 3.53031e-06 0.0724101)
(6.18916e-05 6.35997e-06 0.103006)
(7.53412e-05 3.09291e-05 0.0963582)
(0.000104709 2.12648e-05 0.108055)
(9.51244e-05 5.90011e-05 0.107612)
(0.000126218 7.5294e-06 0.102967)
(3.00488e-05 1.97654e-06 0.0963709)
(0.000104286 2.11233e-05 0.108126)
(2.0619e-05 -2.16154e-06 0.0947532)
(3.83843e-05 2.67813e-06 0.0840941)
(7.04697e-05 -2.90129e-06 0.0947941)
(-1.34881e-06 5.1865e-06 0.0840839)
(6.18825e-05 -6.34724e-06 0.103006)
(0.000104707 -2.13072e-05 0.108054)
(7.53211e-05 -3.09899e-05 0.0963581)
(9.50683e-05 -5.91455e-05 0.107611)
(0.000126177 -7.5552e-06 0.102967)
(0.000104277 -2.11762e-05 0.108126)
(3.0155e-05 -2.02982e-06 0.0963695)
(6.69887e-05 2.53482e-06 0.0946024)
(-2.48394e-06 -4.84471e-06 0.0839484)
(3.68079e-05 -2.37461e-06 0.0839532)
(1.77575e-05 1.83884e-06 0.0945664)
(0.000122449 7.04671e-06 0.102847)
(9.47334e-05 5.87832e-05 0.107666)
(2.76747e-05 1.3322e-06 0.0962037)
(0.000103555 2.08546e-05 0.108267)
(7.25823e-05 2.96984e-05 0.0961886)
(0.000103949 2.0995e-05 0.108197)
(5.8533e-05 5.74441e-06 0.102883)
(6.69699e-05 -2.6639e-06 0.0946024)
(-2.42149e-06 4.87008e-06 0.0839482)
(3.68134e-05 2.29584e-06 0.0839537)
(1.7748e-05 -1.88881e-06 0.0945663)
(0.000122441 -7.10004e-06 0.102847)
(9.46569e-05 -5.89015e-05 0.107665)
(0.000103526 -2.08814e-05 0.108267)
(2.7741e-05 -1.27921e-06 0.0962022)
(0.000103922 -2.10266e-05 0.108197)
(7.25962e-05 -2.9754e-05 0.0961886)
(5.8528e-05 -5.72783e-06 0.102883)
(-2.07228e-05 2.18684e-06 0.0947544)
(1.37159e-06 -5.16995e-06 0.0840856)
(-6.19191e-05 -6.35825e-06 0.103006)
(-9.5043e-05 -5.90942e-05 0.107611)
(-0.000104265 -2.12102e-05 0.108126)
(-3.01814e-05 -2.14758e-06 0.0963719)
(-2.06989e-05 -2.09456e-06 0.0947531)
(1.38877e-06 5.12065e-06 0.0840841)
(-0.000122387 6.96394e-06 0.102848)
(-9.46457e-05 5.87109e-05 0.107666)
(-2.77355e-05 1.34598e-06 0.0962061)
(-0.000103529 2.07969e-05 0.108267)
(-7.24958e-05 2.96638e-05 0.0961884)
(-0.000103915 2.0941e-05 0.108197)
(-5.85843e-05 5.79213e-06 0.102884)
(-6.69373e-05 2.50191e-06 0.0946013)
(2.49001e-06 -4.86086e-06 0.0839502)
(-3.67824e-05 -2.28729e-06 0.0839522)
(-1.78426e-05 1.93598e-06 0.0945675)
(-0.000122411 -7.13925e-06 0.102848)
(-9.46119e-05 -5.88481e-05 0.107665)
(-0.000103522 -2.09226e-05 0.108267)
(-2.78239e-05 -1.4018e-06 0.0962046)
(-0.000103908 -2.10673e-05 0.108197)
(-7.2527e-05 -2.97838e-05 0.096189)
(-5.85194e-05 -5.73268e-06 0.102883)
(-6.69708e-05 -2.68181e-06 0.0946021)
(2.48706e-06 4.81683e-06 0.0839484)
(-3.68277e-05 2.28306e-06 0.0839536)
(-1.78157e-05 -1.82072e-06 0.0945662)
(3.69242e-05 -1.9544e-05 0.0899731)
(1.94915e-05 -3.69393e-05 0.0899748)
(1.39896e-05 -1.39753e-05 0.10668)
(1.56179e-05 2.06641e-06 0.0899643)
(-2.08124e-06 -1.56124e-05 0.089968)
(3.4564e-06 -1.6457e-05 0.0725055)
(-6.02381e-06 4.84412e-06 0.072539)
(-5.04759e-06 5.90636e-06 0.0724479)
(1.60176e-05 -3.57091e-06 0.0724128)
(0.000151149 -0.000151211 0.106548)
(1.43144e-05 2.38186e-06 0.0898119)
(-2.35797e-06 -1.42947e-05 0.0898157)
(3.55799e-05 -1.89517e-05 0.0898164)
(1.89156e-05 -3.55563e-05 0.089818)
(-5.89445e-06 5.07859e-06 0.0724482)
(3.53066e-06 -1.60631e-05 0.0724122)
(-6.41007e-06 -6.19393e-05 0.103006)
(-2.12952e-05 -0.000104708 0.108054)
(-3.10007e-05 -7.53652e-05 0.0963578)
(-5.89892e-05 -9.5089e-05 0.107611)
(-7.52847e-06 -0.0001262 0.102966)
(-2.11577e-05 -0.000104271 0.108126)
(-2.09984e-06 -3.00698e-05 0.0963699)
(2.06819e-06 -2.07296e-05 0.094753)
(-2.75482e-06 -3.84101e-05 0.0840937)
(2.85532e-06 -7.04867e-05 0.0947936)
(-5.17858e-06 1.37927e-06 0.0840834)
(-2.16665e-06 -2.0696e-05 0.0947536)
(2.67543e-06 -3.83726e-05 0.0840939)
(-2.88738e-06 -7.04706e-05 0.0947931)
(5.13552e-06 1.39786e-06 0.0840836)
(7.07621e-06 -0.000122473 0.102847)
(5.8677e-05 -9.46665e-05 0.107665)
(2.08266e-05 -0.000103581 0.108267)
(1.3376e-06 -2.76949e-05 0.096204)
(2.09733e-05 -0.00010398 0.108197)
(2.96846e-05 -7.25827e-05 0.0961894)
(5.67822e-06 -5.85833e-05 0.102882)
(-7.0821e-06 -0.000122424 0.102846)
(-5.87482e-05 -9.46711e-05 0.107665)
(-2.08773e-05 -0.000103525 0.108267)
(-1.35363e-06 -2.76179e-05 0.0962025)
(-2.10138e-05 -0.000103933 0.108197)
(-2.97826e-05 -7.2602e-05 0.0961885)
(-5.78624e-06 -5.85557e-05 0.102883)
(2.60719e-06 -6.69987e-05 0.0946018)
(-4.84621e-06 2.46478e-06 0.0839479)
(-2.34532e-06 -3.68274e-05 0.0839533)
(1.7903e-06 -1.78391e-05 0.0945661)
(-2.63612e-06 -6.69644e-05 0.0946014)
(4.8141e-06 2.4855e-06 0.083948)
(2.2856e-06 -3.67757e-05 0.0839536)
(-1.91076e-06 -1.78024e-05 0.0945667)
(4.87337e-06 5.94812e-06 0.0725396)
(6.0009e-06 4.85103e-06 0.0725382)
(-0.000151239 -0.000151202 0.106548)
(-1.42934e-05 2.3534e-06 0.0898157)
(2.36243e-06 -1.42471e-05 0.0898119)
(-3.55987e-05 -1.89991e-05 0.0898178)
(-1.89592e-05 -3.55962e-05 0.0898161)
(5.10003e-06 5.86248e-06 0.0724487)
(-1.60516e-05 -3.57061e-06 0.0724127)
(5.88478e-06 5.07429e-06 0.0724474)
(-3.58028e-06 -1.6017e-05 0.0724123)
(3.67407e-06 1.57702e-05 0.0723233)
(-5.79694e-06 -5.25978e-06 0.0723615)
(1.56826e-05 3.55919e-06 0.0723223)
(-5.28546e-06 -5.79528e-06 0.072361)
(1.84133e-05 3.44868e-05 0.0896695)
(3.43188e-05 1.84185e-05 0.0896661)
(1.10404e-05 1.1128e-05 0.106761)
(-2.60166e-06 1.30662e-05 0.0896705)
(1.30222e-05 -2.60986e-06 0.0896684)
(-1.62101e-06 1.51722e-05 0.0943878)
(2.02309e-06 3.54462e-05 0.0838207)
(-2.39722e-06 6.3774e-05 0.0944191)
(4.5515e-06 -3.38095e-06 0.0838195)
(5.15381e-06 5.51835e-05 0.102756)
(2.86295e-05 7.00638e-05 0.0960253)
(2.07301e-05 0.000103203 0.108336)
(5.81297e-05 9.33135e-05 0.10782)
(6.57423e-06 0.000118725 0.102723)
(6.82566e-07 2.54836e-05 0.0960426)
(2.05906e-05 0.000102819 0.108405)
(-5.11961e-06 5.51851e-05 0.102756)
(-2.85298e-05 7.00537e-05 0.0960245)
(-2.07234e-05 0.000103209 0.108336)
(-5.81356e-05 9.33567e-05 0.10782)
(-6.5992e-06 0.000118713 0.102723)
(-6.93196e-07 2.55231e-05 0.0960409)
(-2.05828e-05 0.000102829 0.108405)
(-1.81676e-05 3.43733e-05 0.0896665)
(-3.42903e-05 1.83882e-05 0.0896676)
(-1.10392e-05 1.10952e-05 0.106761)
(2.58708e-06 1.31306e-05 0.0896686)
(-1.30907e-05 -2.68154e-06 0.0896723)
(-1.56204e-05 3.54917e-06 0.072321)
(5.32519e-06 -5.78434e-06 0.0723643)
(5.52455e-05 5.12535e-06 0.102756)
(7.00404e-05 2.86103e-05 0.0960244)
(0.000103229 2.07166e-05 0.108336)
(9.33595e-05 5.80115e-05 0.107821)
(0.000118729 6.55442e-06 0.102723)
(2.54281e-05 6.94627e-07 0.0960418)
(0.00010284 2.05692e-05 0.108405)
(1.5152e-05 -1.63489e-06 0.0943877)
(3.54224e-05 1.99559e-06 0.0838206)
(6.37832e-05 -2.40415e-06 0.094419)
(-3.33377e-06 4.62754e-06 0.0838195)
(5.52374e-05 -5.11793e-06 0.102756)
(0.000103195 -2.07338e-05 0.108336)
(7.00232e-05 -2.86039e-05 0.0960245)
(9.32792e-05 -5.80848e-05 0.10782)
(0.000118712 -6.613e-06 0.102723)
(0.000102815 -2.0588e-05 0.108405)
(2.55083e-05 -6.11872e-07 0.0960402)
(-1.52423e-05 1.68805e-06 0.0943889)
(-3.53705e-05 -1.97051e-06 0.0838192)
(-6.37427e-05 2.25998e-06 0.0944179)
(3.41289e-06 -4.61002e-06 0.0838215)
(-5.52336e-05 -5.12086e-06 0.102755)
(-0.000103186 -2.07673e-05 0.108336)
(-6.99972e-05 -2.8639e-05 0.0960246)
(-9.31988e-05 -5.80325e-05 0.10782)
(-0.000118674 -6.64095e-06 0.102723)
(-0.000102811 -2.06222e-05 0.108405)
(-2.56098e-05 -7.08187e-07 0.0960426)
(-1.52389e-05 -1.56041e-06 0.0943876)
(-3.54368e-05 1.98371e-06 0.0838205)
(-6.37708e-05 -2.41901e-06 0.0944187)
(3.41028e-06 4.59196e-06 0.0838198)
(3.43447e-05 -1.84133e-05 0.0896671)
(1.84093e-05 -3.42955e-05 0.0896688)
(1.10155e-05 -1.09763e-05 0.10676)
(1.31143e-05 2.64233e-06 0.0896665)
(-2.61343e-06 -1.30821e-05 0.0896704)
(3.58998e-06 -1.56906e-05 0.0723232)
(-5.79431e-06 5.26911e-06 0.0723614)
(-5.20379e-06 -5.52845e-05 0.102756)
(-2.07338e-05 -0.00010322 0.108336)
(-2.86258e-05 -6.99848e-05 0.0960245)
(-5.79673e-05 -9.33038e-05 0.10782)
(-6.59394e-06 -0.000118701 0.102722)
(-2.0596e-05 -0.000102809 0.108405)
(-6.75223e-07 -2.5363e-05 0.0960406)
(1.52912e-06 -1.52498e-05 0.0943875)
(-2.00723e-06 -3.54454e-05 0.0838204)
(2.34355e-06 -6.37845e-05 0.0944183)
(-4.59294e-06 3.39274e-06 0.0838193)
(-1.66127e-06 -1.52019e-05 0.0943881)
(1.9585e-06 -3.53841e-05 0.0838205)
(-2.40463e-06 -6.37658e-05 0.0944178)
(4.58358e-06 3.38692e-06 0.0838193)
(-1.56859e-05 -3.59201e-06 0.0723235)
(5.2732e-06 5.77951e-06 0.0723617)
(-3.62269e-06 -1.56549e-05 0.0723232)
(5.79518e-06 5.25412e-06 0.0723605)
(-1.16225e-06 1.33986e-05 0.0780397)
(2.65016e-06 6.86787e-05 0.0946976)
(2.10837e-07 -1.03311e-05 0.0799162)
(4.16368e-06 1.37731e-05 0.092819)
(5.13203e-08 8.44331e-06 0.0798541)
(6.39539e-06 5.91725e-05 0.0927538)
(1.47813e-07 -6.20891e-06 0.0781125)
(2.28486e-06 -6.72237e-06 0.069424)
(5.29482e-06 3.92258e-05 0.0880756)
(-5.61759e-06 -7.55195e-07 0.0841547)
(8.15569e-07 1.25349e-05 0.0693268)
(3.65598e-06 3.55528e-06 0.0881467)
(-1.04321e-07 -6.31566e-06 0.078161)
(2.2122e-06 2.21899e-05 0.0948502)
(-3.21857e-08 8.20048e-06 0.0799028)
(6.61669e-06 6.067e-05 0.0928438)
(-1.4019e-06 1.33033e-05 0.0780885)
(1.29339e-07 -1.05746e-05 0.0799644)
(4.35503e-06 1.50441e-05 0.0929084)
(8.4748e-07 1.24414e-05 0.0692834)
(3.60189e-06 2.84053e-06 0.0880676)
(-2.5631e-06 3.76186e-05 0.0840229)
(5.23883e-06 3.83028e-05 0.0879958)
(2.34096e-06 -6.77107e-06 0.0693806)
(6.09404e-06 -4.78114e-06 0.0725867)
(-3.41355e-06 1.6224e-05 0.0724583)
(1.34074e-05 -1.10751e-06 0.0780395)
(6.8709e-05 2.67306e-06 0.0946972)
(1.37668e-05 4.1658e-06 0.0928185)
(-1.03345e-05 1.96503e-07 0.0799163)
(5.92019e-05 6.43804e-06 0.0927534)
(8.43644e-06 6.64937e-08 0.0798539)
(-6.22457e-06 1.10215e-07 0.0781125)
(-6.78456e-06 2.32817e-06 0.0694241)
(3.92328e-05 5.37447e-06 0.0880752)
(-7.69025e-07 -5.36267e-06 0.0841545)
(1.25785e-05 8.56545e-07 0.0693269)
(3.49222e-06 3.74998e-06 0.0881462)
(-6.32597e-06 -8.65751e-08 0.078161)
(2.21834e-05 2.24421e-06 0.0948499)
(6.06932e-05 6.65485e-06 0.0928434)
(8.20072e-06 -2.06982e-08 0.0799026)
(1.33213e-05 -1.36655e-06 0.0780883)
(1.50467e-05 4.41569e-06 0.092908)
(-1.05737e-05 1.31177e-07 0.0799644)
(1.24865e-05 9.12702e-07 0.0692836)
(2.76397e-06 3.56501e-06 0.0880671)
(3.7579e-05 -2.68491e-06 0.0840225)
(3.83481e-05 5.2111e-06 0.0879954)
(-6.84236e-06 2.31842e-06 0.0693807)
(-4.7064e-06 6.0484e-06 0.0725857)
(1.62056e-05 -3.55725e-06 0.0724589)
(-2.7595e-05 -2.75571e-05 0.0856515)
(-4.00249e-07 6.3565e-06 0.0695867)
(6.32413e-06 -3.84223e-07 0.0695798)
(-1.00603e-05 -1.20898e-05 0.0695017)
(-1.2094e-05 -1.00742e-05 0.0694952)
(-8.47452e-06 -8.42809e-06 0.0857068)
(-1.60556e-05 -2.08494e-05 0.0946936)
(-1.62777e-05 1.86645e-06 0.0900473)
(-3.2702e-05 -3.54333e-05 0.100011)
(-1.241e-05 7.01789e-06 0.0834797)
(-2.08471e-05 -1.5975e-05 0.0946845)
(1.90842e-06 -1.62969e-05 0.0900435)
(-3.53549e-05 -3.26932e-05 0.100006)
(7.00564e-06 -1.24253e-05 0.0834729)
(-8.95609e-06 -8.886e-06 0.0857793)
(-5.68835e-07 6.35274e-06 0.0696351)
(6.32014e-06 -5.44054e-07 0.0696282)
(-6.93089e-05 -4.42828e-05 0.0945368)
(-1.19496e-05 6.88653e-06 0.0834138)
(-3.62577e-05 -1.92732e-05 0.0898953)
(-3.15304e-05 -3.4183e-05 0.0999322)
(-9.96903e-05 -6.26922e-05 0.0998508)
(-3.07902e-05 -5.83847e-06 0.0833404)
(-1.52436e-05 -1.99463e-05 0.0946101)
(-4.43224e-05 -6.9258e-05 0.0945287)
(6.89234e-06 -1.19174e-05 0.0834071)
(-1.92384e-05 -3.62634e-05 0.0898934)
(-3.40903e-05 -3.15049e-05 0.0999275)
(-6.27061e-05 -9.96766e-05 0.0998471)
(-5.8456e-06 -3.08573e-05 0.0833356)
(-1.99215e-05 -1.51731e-05 0.094601)
(-3.41039e-07 1.37576e-05 0.0778577)
(2.21174e-06 6.22928e-05 0.0943306)
(3.72469e-07 -9.15355e-06 0.0797388)
(3.35519e-06 9.39457e-06 0.0924831)
(3.16992e-07 9.60374e-06 0.0796755)
(5.68707e-06 5.395e-05 0.0924162)
(7.04057e-07 -5.83332e-06 0.0779311)
(2.34393e-06 -7.03145e-06 0.0692564)
(4.89283e-06 3.59137e-05 0.0877694)
(-4.63271e-06 -2.91716e-06 0.0838834)
(9.47767e-07 1.21044e-05 0.0691597)
(3.15856e-06 9.07963e-07 0.0878427)
(6.55264e-07 -5.92566e-06 0.0779747)
(1.74068e-06 1.64252e-05 0.0944764)
(2.92424e-07 9.27752e-06 0.079718)
(5.86934e-06 5.51565e-05 0.0924973)
(-5.25284e-07 1.36612e-05 0.0779013)
(3.86207e-07 -9.4778e-06 0.0797811)
(3.5987e-06 1.03845e-05 0.0925639)
(1.04299e-06 1.21351e-05 0.0691208)
(2.94498e-06 3.58806e-07 0.0877719)
(-1.85417e-06 3.47934e-05 0.0837569)
(4.7409e-06 3.52955e-05 0.0876983)
(2.29462e-06 -7.05591e-06 0.0692171)
(5.85032e-06 -5.1177e-06 0.0724044)
(-3.66787e-06 1.56716e-05 0.0722801)
(1.3766e-05 -3.70588e-07 0.0778576)
(6.2295e-05 2.17991e-06 0.0943304)
(9.41523e-06 3.36252e-06 0.0924827)
(-9.14201e-06 3.67079e-07 0.0797388)
(5.39674e-05 5.66403e-06 0.0924157)
(9.60986e-06 2.78924e-07 0.0796753)
(-5.81592e-06 7.21181e-07 0.077931)
(-7.00404e-06 2.37645e-06 0.0692566)
(3.59747e-05 4.89978e-06 0.0877691)
(-2.95018e-06 -4.70526e-06 0.0838832)
(1.22391e-05 1.04113e-06 0.0691601)
(8.81791e-07 3.15583e-06 0.0878425)
(-5.92881e-06 6.26713e-07 0.0779746)
(1.64299e-05 1.7151e-06 0.0944761)
(5.51769e-05 5.84456e-06 0.0924969)
(9.28992e-06 2.48674e-07 0.0797178)
(1.36877e-05 -5.07037e-07 0.0779013)
(1.04039e-05 3.56735e-06 0.0925635)
(-9.47155e-06 3.46556e-07 0.0797811)
(1.21577e-05 1.05881e-06 0.0691209)
(3.366e-07 2.99259e-06 0.0877716)
(3.48046e-05 -1.86434e-06 0.0837564)
(3.52763e-05 4.76248e-06 0.0876978)
(-7.03975e-06 2.34467e-06 0.0692173)
(-5.13972e-06 5.86067e-06 0.0724039)
(1.55066e-05 -3.60963e-06 0.0722804)
(-2.56862e-05 -2.5665e-05 0.0853785)
(2.51864e-07 6.3034e-06 0.069403)
(6.28242e-06 2.73874e-07 0.0693963)
(-9.49164e-06 -1.18439e-05 0.0693179)
(-1.18336e-05 -9.50272e-06 0.0693116)
(-6.76673e-06 -6.72623e-06 0.0854358)
(-1.28956e-05 -1.74316e-05 0.0943706)
(-9.55618e-05 -5.90753e-05 0.0996195)
(-2.9437e-05 -6.1007e-06 0.0831505)
(-1.36801e-05 2.49763e-06 0.0897421)
(-6.63125e-05 -4.16362e-05 0.0942963)
(-2.82484e-05 -3.07428e-05 0.099701)
(-1.05292e-05 6.55219e-06 0.0832246)
(-1.7363e-05 -1.28048e-05 0.0943615)
(-5.90471e-05 -9.54888e-05 0.0996161)
(-6.11343e-06 -2.9478e-05 0.0831459)
(2.48903e-06 -1.36306e-05 0.0897384)
(-4.16252e-05 -6.62567e-05 0.0942883)
(-3.05682e-05 -2.8164e-05 0.0996962)
(6.53713e-06 -1.05019e-05 0.0832181)
(-7.1602e-06 -7.12364e-06 0.085501)
(-9.62546e-06 -1.19023e-05 0.0693624)
(-1.18881e-05 -9.64006e-06 0.069356)
(-2.61234e-05 -2.61055e-05 0.0854441)
(9.29755e-08 6.31681e-06 0.0694475)
(6.29994e-06 1.152e-07 0.0694407)
(-6.53607e-05 -4.07891e-05 0.0942198)
(-1.01094e-05 6.43534e-06 0.0831642)
(-3.37685e-05 -1.81871e-05 0.0895961)
(-2.72199e-05 -2.9642e-05 0.0996256)
(-9.42245e-05 -5.79188e-05 0.0995441)
(-2.90061e-05 -6.17095e-06 0.08309)
(-1.21727e-05 -1.66607e-05 0.0942942)
(-4.08073e-05 -6.53168e-05 0.0942118)
(6.42851e-06 -1.00578e-05 0.0831578)
(-1.81864e-05 -3.37294e-05 0.0895949)
(-2.94713e-05 -2.71407e-05 0.0996208)
(-5.78992e-05 -9.41643e-05 0.0995407)
(-6.18334e-06 -2.90363e-05 0.0830854)
(-1.65866e-05 -1.2074e-05 0.0942852)
(-6.37157e-06 -4.92928e-06 0.0725862)
(3.43132e-06 1.62038e-05 0.0724584)
(-4.59269e-06 -6.07545e-06 0.0725856)
(1.61956e-05 3.37176e-06 0.0724577)
(2.74515e-05 2.75708e-05 0.085651)
(-6.35973e-06 4.28246e-07 0.0695869)
(2.78125e-07 -6.2298e-06 0.06958)
(1.19713e-05 1.00675e-05 0.0695011)
(1.00236e-05 1.2093e-05 0.0694944)
(8.33275e-06 8.49353e-06 0.0857076)
(2.07493e-05 1.59209e-05 0.0946942)
(6.39988e-05 0.00010112 0.0999296)
(5.79641e-06 3.13221e-05 0.0834075)
(-2.06313e-06 1.61592e-05 0.0900475)
(4.51841e-05 7.03769e-05 0.0946206)
(-7.16815e-06 1.23633e-05 0.0834805)
(3.53104e-05 3.26299e-05 0.100011)
(1.60166e-05 2.07129e-05 0.094686)
(0.000101029 6.39042e-05 0.0999253)
(3.1223e-05 5.65861e-06 0.083401)
(1.6335e-05 -2.01045e-06 0.090045)
(7.02202e-05 4.52298e-05 0.0946118)
(1.23992e-05 -7.17475e-06 0.0834744)
(3.26532e-05 3.5288e-05 0.100008)
(8.74129e-06 8.72519e-06 0.0857801)
(1.22041e-05 1.04224e-05 0.0695501)
(1.01012e-05 1.22052e-05 0.0695432)
(2.79225e-05 2.81895e-05 0.0857241)
(-6.47466e-06 4.05684e-07 0.0696357)
(4.0718e-07 -6.60374e-06 0.0696286)
(4.42113e-05 6.92917e-05 0.0945366)
(-6.90074e-06 1.19561e-05 0.0834145)
(1.91575e-05 3.63029e-05 0.0898959)
(3.40881e-05 3.15167e-05 0.0999325)
(5.70982e-06 3.08323e-05 0.0833409)
(1.99176e-05 1.5228e-05 0.0946107)
(6.26623e-05 9.97245e-05 0.0998511)
(6.91696e-05 4.42714e-05 0.094528)
(1.18484e-05 -6.81088e-06 0.0834085)
(3.61431e-05 1.9168e-05 0.0898929)
(3.14243e-05 3.40572e-05 0.0999291)
(3.0773e-05 5.85879e-06 0.083335)
(1.51021e-05 1.99146e-05 0.0946025)
(9.95489e-05 6.26127e-05 0.0998468)
(3.60029e-06 1.58941e-05 0.0723673)
(-6.10135e-06 -5.01859e-06 0.0724933)
(1.58593e-05 3.51933e-06 0.0723663)
(-4.95383e-06 -6.02022e-06 0.0724925)
(7.9318e-06 7.99764e-06 0.0856373)
(1.19761e-05 9.99865e-06 0.0694539)
(9.8829e-06 1.2131e-05 0.0694471)
(2.69975e-05 2.71647e-05 0.0855801)
(-6.34262e-06 2.22279e-07 0.0695397)
(1.68321e-07 -6.33305e-06 0.0695327)
(4.24526e-05 6.73431e-05 0.0943749)
(3.17755e-05 2.9329e-05 0.0997776)
(1.86552e-05 3.50762e-05 0.0897431)
(-6.68982e-06 1.10727e-05 0.0832871)
(5.9822e-06 2.99688e-05 0.0832134)
(6.02398e-05 9.69708e-05 0.0996965)
(1.82002e-05 1.36927e-05 0.0944492)
(6.71931e-05 4.25318e-05 0.0943661)
(2.9257e-05 3.174e-05 0.0997743)
(3.49375e-05 1.86403e-05 0.0897399)
(1.09538e-05 -6.66038e-06 0.0832813)
(2.98919e-05 6.06902e-06 0.083207)
(9.68146e-05 6.02116e-05 0.099692)
(1.35693e-05 1.82022e-05 0.0944411)
(1.90559e-05 1.44228e-05 0.0945291)
(5.91809e-06 3.04124e-05 0.0832765)
(6.14395e-05 9.83402e-05 0.0997735)
(-2.31532e-06 1.48855e-05 0.0898913)
(4.33244e-05 6.83124e-05 0.0944548)
(-6.76402e-06 1.1472e-05 0.0833501)
(3.29013e-05 3.03858e-05 0.0998547)
(1.43814e-05 1.90375e-05 0.0945209)
(3.03139e-05 5.97128e-06 0.0832701)
(9.82066e-05 6.14152e-05 0.099769)
(1.4888e-05 -2.31347e-06 0.0898888)
(6.81578e-05 4.34175e-05 0.0944461)
(1.14274e-05 -6.77705e-06 0.0833442)
(3.03798e-05 3.28928e-05 0.0998513)
(2.6539e-05 2.66693e-05 0.0855111)
(-6.47424e-06 7.15268e-08 0.0694933)
(-2.30946e-08 -6.34187e-06 0.0694864)
(1.19253e-05 9.84052e-06 0.0694078)
(9.7861e-06 1.20405e-05 0.0694008)
(7.44888e-06 7.57448e-06 0.0855688)
(9.16302e-07 1.33916e-05 0.0780392)
(-2.79425e-06 6.86727e-05 0.0946974)
(-3.16728e-07 -1.03423e-05 0.079916)
(-4.19944e-06 1.37453e-05 0.0928178)
(-2.44595e-07 8.43188e-06 0.0798541)
(-6.52743e-06 5.91756e-05 0.0927541)
(-2.33494e-07 -6.23434e-06 0.0781115)
(-2.37833e-06 -6.78256e-06 0.0694254)
(-5.39121e-06 3.91947e-05 0.0880766)
(5.35471e-06 -7.60824e-07 0.0841544)
(-9.00141e-07 1.25089e-05 0.0693292)
(-3.80633e-06 3.52135e-06 0.0881462)
(-1.96529e-08 -6.3138e-06 0.07816)
(-2.28023e-06 2.2174e-05 0.0948499)
(-1.36292e-07 8.19328e-06 0.0799029)
(-6.70978e-06 6.06599e-05 0.0928441)
(-2.54278e-07 -1.05838e-05 0.0799642)
(1.25811e-06 1.3285e-05 0.0780881)
(-4.4311e-06 1.5031e-05 0.0929073)
(-1.03084e-06 1.2523e-05 0.0692858)
(-3.64659e-06 2.79258e-06 0.0880671)
(2.5086e-06 3.76169e-05 0.0840228)
(-5.34669e-06 3.8382e-05 0.0879968)
(-2.40767e-06 -6.81178e-06 0.0693822)
(3.42877e-07 -6.12676e-06 0.0780653)
(1.32133e-07 8.69929e-06 0.0798072)
(6.2031e-06 5.77671e-05 0.0926661)
(1.9512e-06 1.91638e-05 0.0946591)
(-9.56464e-07 1.34746e-05 0.0779923)
(2.59405e-07 -1.00755e-05 0.0798697)
(3.93986e-06 1.25609e-05 0.0927317)
(9.05765e-07 1.2245e-05 0.0692004)
(-2.00911e-06 3.60841e-05 0.0838865)
(3.27162e-06 1.24577e-06 0.0879155)
(2.10989e-06 -7.2618e-06 0.0692968)
(5.06344e-06 3.65789e-05 0.0878429)
(2.37422e-06 -6.79779e-06 0.0693383)
(5.15968e-06 3.74456e-05 0.0879183)
(-5.05359e-06 -1.94255e-06 0.0840155)
(8.84367e-07 1.22866e-05 0.0692412)
(3.46354e-06 2.193e-06 0.0879907)
(-7.86671e-07 1.35504e-05 0.0779462)
(2.41706e-06 6.53443e-05 0.09451)
(2.88958e-07 -9.79898e-06 0.0798247)
(3.69023e-06 1.13825e-05 0.0926467)
(2.75849e-07 -6.09665e-06 0.0780194)
(1.84821e-07 8.988e-06 0.0797619)
(5.97814e-06 5.63879e-05 0.0925807)
(-4.01572e-07 -6.14839e-06 0.0780643)
(-2.92383e-07 8.69564e-06 0.0798072)
(-6.29367e-06 5.77471e-05 0.0926664)
(-2.00793e-06 1.91663e-05 0.0946588)
(7.68499e-07 1.34628e-05 0.0779919)
(-3.65463e-07 -1.00787e-05 0.0798694)
(-3.98794e-06 1.25548e-05 0.0927306)
(-1.06632e-06 1.22778e-05 0.0692025)
(2.10987e-06 3.61316e-05 0.0838863)
(-3.42049e-06 1.47386e-06 0.0879152)
(-5.09632e-06 3.67064e-05 0.0878439)
(-2.44203e-06 -6.97443e-06 0.0692985)
(-2.41373e-06 -6.90285e-06 0.0693397)
(-5.20004e-06 3.749e-05 0.0879193)
(4.957e-06 -1.94121e-06 0.084015)
(-1.00609e-06 1.23648e-05 0.0692436)
(-3.49808e-06 2.11181e-06 0.0879901)
(5.63315e-07 1.35537e-05 0.0779458)
(-2.51667e-06 6.53398e-05 0.0945098)
(-4.24841e-07 -9.78861e-06 0.0798244)
(-3.80592e-06 1.14173e-05 0.0926456)
(-3.37556e-07 8.97896e-06 0.0797619)
(-6.10651e-06 5.64133e-05 0.0925809)
(-5.7541e-07 -6.04844e-06 0.0780185)
(-2.75588e-05 2.75985e-05 0.0856517)
(6.35201e-06 3.45937e-07 0.0695811)
(-4.02571e-07 -6.38084e-06 0.0695864)
(-1.20961e-05 1.01324e-05 0.0694955)
(-1.00182e-05 1.21212e-05 0.0695009)
(-8.45489e-06 8.38011e-06 0.0857076)
(-2.08374e-05 1.59807e-05 0.0946857)
(1.9208e-06 1.62792e-05 0.0900453)
(7.01204e-06 1.24244e-05 0.0834748)
(-3.53865e-05 3.26763e-05 0.100007)
(-1.60584e-05 2.08162e-05 0.0946945)
(-1.6314e-05 -1.96544e-06 0.0900487)
(-3.27434e-05 3.53168e-05 0.100012)
(-1.24198e-05 -7.08315e-06 0.0834804)
(-8.93821e-06 8.84795e-06 0.08578)
(6.32665e-06 5.14279e-07 0.0696294)
(-5.77893e-07 -6.38398e-06 0.0696348)
(-4.43047e-05 6.92507e-05 0.0945283)
(6.88341e-06 1.19697e-05 0.0834091)
(-1.91633e-05 3.62905e-05 0.089893)
(-3.41506e-05 3.15191e-05 0.0999286)
(-5.84216e-06 3.08556e-05 0.0833351)
(-6.26317e-05 9.96655e-05 0.0998468)
(-1.992e-05 1.51761e-05 0.0946023)
(-6.92731e-05 4.43187e-05 0.094537)
(-1.19418e-05 -6.95751e-06 0.0834146)
(-3.62003e-05 1.92282e-05 0.0898943)
(-3.15913e-05 3.40752e-05 0.0999333)
(-9.96213e-05 6.26816e-05 0.0998506)
(-3.07414e-05 5.87628e-06 0.0833404)
(-1.52138e-05 1.99065e-05 0.094611)
(4.71732e-06 -6.04108e-06 0.0725884)
(-1.62059e-05 3.51282e-06 0.0724564)
(-3.51374e-06 1.58994e-05 0.0723674)
(5.94276e-06 -4.98966e-06 0.0724933)
(-8.00586e-06 7.87073e-06 0.0856371)
(-1.20229e-05 9.99339e-06 0.0694481)
(-9.88294e-06 1.20425e-05 0.0694536)
(-2.7065e-05 2.71061e-05 0.0855808)
(6.39782e-06 1.25481e-07 0.0695338)
(-2.51811e-07 -6.40043e-06 0.0695391)
(-4.24651e-05 6.7209e-05 0.0943663)
(-3.17376e-05 2.92879e-05 0.0997738)
(-1.85808e-05 3.50383e-05 0.0897402)
(6.77196e-06 1.10815e-05 0.083282)
(-6.01482e-05 9.68889e-05 0.0996921)
(-5.95811e-06 2.99341e-05 0.0832071)
(-1.81367e-05 1.35491e-05 0.094441)
(-6.72376e-05 4.24824e-05 0.0943752)
(-2.93408e-05 3.17077e-05 0.0997785)
(-3.48954e-05 1.8646e-05 0.0897413)
(-1.10145e-05 -6.75234e-06 0.0832874)
(-2.98523e-05 6.02289e-06 0.0832126)
(-9.68312e-05 6.02155e-05 0.099696)
(-1.36284e-05 1.81515e-05 0.0944496)
(-1.90302e-05 1.43657e-05 0.0945207)
(-5.92788e-06 3.03982e-05 0.0832704)
(-6.13858e-05 9.82628e-05 0.0997691)
(2.26261e-06 1.49537e-05 0.089889)
(-3.29383e-05 3.03881e-05 0.0998509)
(-4.33622e-05 6.82086e-05 0.0944464)
(6.82248e-06 1.15015e-05 0.0833448)
(-1.44216e-05 1.90176e-05 0.0945293)
(-3.03044e-05 5.97399e-06 0.0832758)
(-9.82182e-05 6.14403e-05 0.0997729)
(-1.49475e-05 -2.27845e-06 0.089893)
(-6.82425e-05 4.33972e-05 0.0944552)