/*--------------------------------*- C++ -*----------------------------------*\
| =========                 |                                                 |
| \\      /  F ield         | OpenFOAM: The Open Source CFD Toolbox           |
|  \\    /   O peration     | Version:  2312                                  |
|   \\  /    A nd           | Website:  www.openfoam.com                      |
|    \\/     M anipulation  |                                                 |
\*---------------------------------------------------------------------------*/
FoamFile
{
    version     2.0;
    format      ascii;
    arch        "LSB;label=32;scalar=64";
    class       volScalarField;
    location    "250";
    object      epsilon;
}
// * * * * * * * * * * * * * * * * * * * * * * * * * * * * * * * * * * * * * //

dimensions      [0 2 -3 0 0 0 0];

internalField   nonuniform List<scalar> 
172512
(
5.04025e-07
1.08154e-06
1.08109e-06
1.32779e-06
1.3239e-06
1.08062e-06
1.08084e-06
1.32508e-06
1.08063e-06
1.08113e-06
1.0816e-06
1.08197e-06
1.32442e-06
1.08114e-06
1.08191e-06
1.32618e-06
1.32564e-06
1.08053e-06
1.08076e-06
1.3266e-06
1.08058e-06
1.08062e-06
1.08146e-06
1.32583e-06
1.08156e-06
9.29751e-06
4.18529e-06
9.30044e-06
5.04058e-07
5.03238e-07
5.04054e-07
5.04437e-07
1.85845e-05
1.08076e-06
3.58486e-06
4.18425e-06
9.29845e-06
4.18489e-06
9.299e-06
1.85848e-05
1.85874e-05
4.18455e-06
9.30041e-06
4.18504e-06
9.3008e-06
5.0313e-07
5.03579e-07
5.03958e-07
2.24281e-06
3.58586e-06
7.95218e-07
1.08136e-06
2.24375e-06
3.58552e-06
7.95091e-07
1.85839e-05
1.85868e-05
2.24459e-06
7.951e-07
3.58562e-06
1.08087e-06
2.24447e-06
7.94997e-07
3.58513e-06
5.55666e-06
5.55815e-06
1.32557e-06
5.55585e-06
5.55758e-06
1.85803e-05
1.85839e-05
1.32484e-06
5.55353e-06
5.55559e-06
1.85817e-05
1.85786e-05
1.85848e-05
1.8582e-05
1.32584e-06
5.55385e-06
5.55594e-06
5.55397e-06
5.55598e-06
1.0808e-06
3.58422e-06
4.18533e-06
9.29855e-06
9.29759e-06
4.18461e-06
4.18538e-06
9.3002e-06
9.29995e-06
4.18468e-06
2.24393e-06
1.08063e-06
3.58438e-06
7.95163e-07
3.58445e-06
7.95204e-07
2.24336e-06
2.24349e-06
1.08071e-06
3.58558e-06
7.95275e-07
3.58632e-06
7.95141e-07
2.24254e-06
1.85869e-05
1.85843e-05
1.32752e-06
5.55676e-06
5.55554e-06
5.55738e-06
1.85848e-05
2.24349e-06
1.08051e-06
3.58533e-06
7.95845e-07
4.18526e-06
9.29755e-06
2.24381e-06
1.08088e-06
7.95827e-07
3.58485e-06
4.18545e-06
9.30062e-06
9.30021e-06
4.18476e-06
2.24423e-06
1.08059e-06
3.58545e-06
7.96174e-07
3.58558e-06
7.96173e-07
2.24347e-06
4.18549e-06
9.2989e-06
9.29783e-06
4.18494e-06
2.24412e-06
1.08115e-06
7.96338e-07
3.58484e-06
7.96423e-07
3.58534e-06
2.24332e-06
3.58519e-06
7.95138e-07
2.24383e-06
9.30035e-06
4.18584e-06
7.96331e-07
3.58549e-06
2.24372e-06
9.29969e-06
4.18535e-06
1.32435e-06
5.55522e-06
5.55412e-06
1.85832e-05
1.85857e-05
1.85827e-05
1.32599e-06
5.55537e-06
5.55422e-06
5.55578e-06
5.55469e-06
1.85838e-05
1.85812e-05
9.30012e-06
2.24476e-06
1.08132e-06
7.94978e-07
3.58503e-06
7.94919e-07
3.58532e-06
2.24405e-06
2.2451e-06
1.08189e-06
7.96353e-07
3.5868e-06
7.96361e-07
3.5871e-06
2.24467e-06
4.18663e-06
9.30077e-06
9.30003e-06
4.18643e-06
4.18691e-06
9.30225e-06
9.30182e-06
4.18611e-06
1.3283e-06
5.55597e-06
5.55745e-06
5.55786e-06
1.85867e-05
1.85891e-05
1.85867e-05
1.85798e-05
1.85827e-05
1.85829e-05
1.85855e-05
5.55463e-06
5.55671e-06
1.3239e-06
5.55436e-06
5.55651e-06
1.85809e-05
1.85836e-05
1.32646e-06
5.5551e-06
5.55723e-06
4.18445e-06
9.2999e-06
4.18489e-06
9.30017e-06
2.24294e-06
3.585e-06
7.94956e-07
1.08054e-06
2.24321e-06
3.58476e-06
7.94983e-07
2.24288e-06
3.58604e-06
7.95161e-07
1.08078e-06
2.24321e-06
3.58556e-06
7.95159e-07
4.18447e-06
9.2988e-06
4.18475e-06
9.29992e-06
2.24325e-06
1.08064e-06
3.58532e-06
7.95065e-07
2.24313e-06
1.0808e-06
3.5861e-06
7.95056e-07
5.55743e-06
5.55619e-06
1.32498e-06
5.55689e-06
5.55555e-06
1.85827e-05
1.8585e-05
1.85853e-05
1.32662e-06
5.55759e-06
5.55613e-06
1.85829e-05
2.24334e-06
3.58605e-06
7.95576e-07
1.08055e-06
2.24341e-06
3.58582e-06
7.95568e-07
4.18472e-06
9.29885e-06
4.18514e-06
9.29968e-06
2.24334e-06
7.95845e-07
3.58523e-06
1.08062e-06
2.24359e-06
7.95693e-07
3.58491e-06
4.18486e-06
9.30061e-06
2.24344e-06
1.08058e-06
3.5864e-06
7.95616e-07
4.18503e-06
9.29961e-06
2.24351e-06
1.08063e-06
7.95694e-07
3.58544e-06
4.18538e-06
9.30014e-06
4.18605e-06
9.30061e-06
2.24284e-06
7.95679e-07
3.58581e-06
1.08144e-06
2.24347e-06
7.95683e-07
3.58531e-06
4.18479e-06
9.29942e-06
4.18547e-06
9.29982e-06
2.24349e-06
1.08134e-06
3.58595e-06
7.95177e-07
4.1857e-06
9.3004e-06
2.24312e-06
1.08137e-06
7.95596e-07
3.58576e-06
4.18502e-06
9.29965e-06
5.55596e-06
5.55481e-06
1.32404e-06
5.55562e-06
5.55432e-06
1.85818e-05
1.85841e-05
1.8585e-05
1.32567e-06
5.55632e-06
5.55502e-06
1.85822e-05
2.24373e-06
7.95749e-07
3.58725e-06
1.08154e-06
2.24433e-06
7.95706e-07
3.58691e-06
4.1863e-06
9.30063e-06
4.18673e-06
9.30118e-06
4.18574e-06
9.30202e-06
4.18637e-06
9.30237e-06
2.24409e-06
1.08081e-06
7.95081e-07
3.58558e-06
2.24364e-06
1.08143e-06
7.95595e-07
3.58744e-06
4.18662e-06
9.30099e-06
4.18611e-06
9.30212e-06
1.85846e-05
1.85866e-05
1.85871e-05
1.85894e-05
1.32804e-06
5.55632e-06
5.55816e-06
1.85845e-05
1.85874e-05
2.22016e-05
7.15031e-06
9.29687e-06
7.15096e-06
2.22062e-05
1.23196e-05
4.18572e-06
4.82964e-06
1.09361e-05
4.83012e-06
1.09357e-05
1.23203e-05
2.22041e-05
7.1527e-06
9.30016e-06
7.15364e-06
2.22082e-05
1.85822e-05
1.23188e-05
4.18468e-06
1.09361e-05
4.8281e-06
1.09356e-05
4.82858e-06
1.23195e-05
2.22077e-05
7.15213e-06
9.29882e-06
2.22034e-05
7.15125e-06
1.23195e-05
4.18435e-06
1.09355e-05
4.82879e-06
1.23188e-05
1.0936e-05
4.82821e-06
2.22036e-05
7.15128e-06
9.29867e-06
7.15221e-06
2.22078e-05
1.85872e-05
1.85851e-05
1.23198e-05
4.1849e-06
4.82926e-06
1.09365e-05
4.82968e-06
1.09359e-05
1.23206e-05
2.22081e-05
7.15355e-06
9.30069e-06
2.22039e-05
7.15254e-06
1.23205e-05
4.18453e-06
4.82979e-06
1.09357e-05
1.23197e-05
4.82926e-06
1.09363e-05
2.22038e-05
7.15249e-06
9.30049e-06
7.15345e-06
2.2208e-05
1.85862e-05
1.85844e-05
9.82676e-06
2.18758e-05
2.18754e-05
2.18719e-05
2.18715e-05
9.82535e-06
4.64446e-06
2.93209e-06
9.65367e-06
5.55589e-06
4.64511e-06
2.93174e-06
9.65412e-06
4.65033e-06
2.93265e-06
9.65826e-06
5.55748e-06
4.65098e-06
2.93236e-06
9.65871e-06
9.82524e-06
2.18717e-05
2.18713e-05
9.82655e-06
2.18756e-05
2.18751e-05
4.64516e-06
9.65418e-06
5.55653e-06
2.93179e-06
2.93205e-06
9.65373e-06
4.64452e-06
4.6509e-06
9.65879e-06
5.55817e-06
2.93258e-06
2.93277e-06
9.65833e-06
4.65025e-06
1.85778e-05
1.85817e-05
9.82464e-06
2.18701e-05
2.18694e-05
2.18661e-05
2.18654e-05
9.82327e-06
4.64441e-06
9.65066e-06
5.55407e-06
2.93014e-06
9.65012e-06
4.64357e-06
2.93044e-06
4.65011e-06
9.65596e-06
5.55611e-06
2.93124e-06
9.65541e-06
4.64938e-06
2.93154e-06
1.85792e-05
1.8581e-05
1.85824e-05
1.85843e-05
9.82341e-06
2.18665e-05
2.18658e-05
9.82478e-06
2.18705e-05
2.18698e-05
4.64439e-06
2.92995e-06
5.55434e-06
9.65126e-06
9.65067e-06
2.93013e-06
4.64356e-06
4.65024e-06
2.93112e-06
5.55636e-06
9.65648e-06
9.65591e-06
2.93129e-06
4.64943e-06
4.64356e-06
9.65035e-06
2.92994e-06
5.5535e-06
4.64433e-06
9.65093e-06
2.9296e-06
4.64946e-06
9.65565e-06
2.93104e-06
5.55553e-06
4.65018e-06
9.65621e-06
2.93081e-06
9.82477e-06
2.18709e-05
2.18701e-05
2.18669e-05
2.18662e-05
9.82342e-06
1.23196e-05
1.09355e-05
4.8291e-06
4.18474e-06
1.23189e-05
1.09359e-05
4.82848e-06
2.22031e-05
9.29809e-06
7.15106e-06
2.22075e-05
7.15179e-06
2.22069e-05
7.15127e-06
9.29809e-06
2.22024e-05
7.15058e-06
1.23188e-05
4.18505e-06
1.0936e-05
4.82843e-06
1.23195e-05
1.09355e-05
4.82888e-06
1.23213e-05
1.09357e-05
4.83021e-06
4.18472e-06
1.23206e-05
1.09361e-05
4.82958e-06
2.22065e-05
9.29995e-06
7.15135e-06
7.1522e-06
2.22107e-05
2.22107e-05
7.15227e-06
9.30022e-06
2.22065e-05
7.15124e-06
1.23205e-05
4.18507e-06
1.09361e-05
4.82958e-06
1.09356e-05
4.83001e-06
1.23212e-05
1.85846e-05
1.85867e-05
4.65078e-06
2.93222e-06
5.55741e-06
9.65768e-06
2.93239e-06
9.65719e-06
4.64991e-06
4.64463e-06
2.93053e-06
5.55614e-06
9.65333e-06
9.65289e-06
2.93073e-06
4.64376e-06
2.93233e-06
5.55656e-06
2.932e-06
9.82548e-06
2.18734e-05
2.18736e-05
2.18694e-05
2.18696e-05
9.82391e-06
1.85825e-05
1.2319e-05
4.18569e-06
1.09362e-05
4.82861e-06
1.09358e-05
4.82907e-06
1.23198e-05
2.22008e-05
7.14865e-06
9.29701e-06
7.14958e-06
2.22053e-05
1.23203e-05
4.82989e-06
1.09357e-05
4.185e-06
1.23196e-05
4.82945e-06
1.09361e-05
2.2204e-05
9.3003e-06
7.15265e-06
2.22082e-05
7.15358e-06
2.22082e-05
7.15353e-06
9.30052e-06
2.2204e-05
7.15262e-06
1.23196e-05
4.18525e-06
4.82939e-06
1.09361e-05
1.23204e-05
4.82984e-06
1.09357e-05
1.23199e-05
1.09358e-05
4.82889e-06
4.18507e-06
1.23191e-05
1.09363e-05
4.82842e-06
2.2202e-05
9.29843e-06
7.14874e-06
7.14962e-06
2.22065e-05
2.22059e-05
7.14952e-06
9.29844e-06
2.22014e-05
7.14865e-06
1.23193e-05
4.18537e-06
1.09364e-05
4.82836e-06
1.09359e-05
4.8288e-06
1.23201e-05
2.22023e-05
9.30002e-06
7.15157e-06
7.1526e-06
2.22069e-05
1.23219e-05
4.18636e-06
4.83034e-06
1.09381e-05
4.83087e-06
1.09377e-05
1.23227e-05
2.22013e-05
9.29947e-06
7.14964e-06
7.15062e-06
2.22055e-05
1.23193e-05
4.18586e-06
1.09369e-05
4.82894e-06
1.09366e-05
4.82945e-06
1.232e-05
9.82273e-06
2.18694e-05
2.18696e-05
2.18655e-05
2.18657e-05
9.82129e-06
4.64895e-06
9.65499e-06
5.55584e-06
2.93088e-06
9.65447e-06
2.93112e-06
4.64814e-06
4.64251e-06
9.65038e-06
5.55483e-06
2.92949e-06
2.92978e-06
9.64995e-06
4.64167e-06
1.8581e-05
1.85833e-05
1.85851e-05
9.82114e-06
2.18658e-05
2.1866e-05
9.82238e-06
2.18698e-05
2.18699e-05
4.64873e-06
2.93077e-06
5.55594e-06
9.65554e-06
2.93095e-06
9.65499e-06
4.64793e-06
4.642e-06
2.929e-06
5.55478e-06
9.6506e-06
9.65009e-06
2.92944e-06
4.64119e-06
4.64788e-06
9.65471e-06
2.93074e-06
5.55523e-06
2.93054e-06
4.64849e-06
9.65527e-06
4.64124e-06
9.64999e-06
2.92934e-06
5.55406e-06
4.6419e-06
9.65044e-06
2.92903e-06
9.82244e-06
2.18702e-05
2.18703e-05
2.18662e-05
2.18663e-05
9.82123e-06
1.85815e-05
1.85834e-05
9.29971e-06
1.23218e-05
4.83059e-06
1.09372e-05
4.1863e-06
1.2321e-05
4.83031e-06
1.09377e-05
2.22049e-05
9.30037e-06
7.15233e-06
7.15303e-06
2.22093e-05
2.22088e-05
7.1525e-06
9.30046e-06
2.22043e-05
7.15183e-06
1.23211e-05
4.18682e-06
4.83051e-06
1.09377e-05
4.83084e-06
1.09372e-05
1.23219e-05
1.2322e-05
4.83149e-06
1.09365e-05
4.18631e-06
1.23213e-05
4.83101e-06
1.09369e-05
2.22066e-05
9.30195e-06
7.15235e-06
7.15329e-06
2.22108e-05
2.22109e-05
7.15325e-06
9.30215e-06
2.22067e-05
7.15233e-06
1.23211e-05
4.18669e-06
4.83093e-06
1.09367e-05
4.83145e-06
1.09363e-05
1.23218e-05
9.82502e-06
2.18751e-05
2.18748e-05
4.6452e-06
2.93177e-06
5.55651e-06
9.65405e-06
4.64429e-06
2.932e-06
9.65355e-06
4.65117e-06
2.93228e-06
5.55803e-06
9.65865e-06
4.65025e-06
2.93249e-06
9.65821e-06
4.64438e-06
5.55577e-06
2.93169e-06
9.65388e-06
4.65039e-06
2.93234e-06
5.55729e-06
2.93212e-06
9.65856e-06
9.82622e-06
2.18753e-05
2.18749e-05
9.82497e-06
2.18715e-05
2.18711e-05
1.85844e-05
1.85864e-05
1.85869e-05
1.85889e-05
1.85822e-05
1.85804e-05
1.85852e-05
1.85832e-05
9.82504e-06
2.18716e-05
2.18706e-05
2.18676e-05
2.18667e-05
9.82359e-06
4.64377e-06
2.93048e-06
9.65099e-06
5.55408e-06
4.64445e-06
9.65157e-06
2.93027e-06
4.64956e-06
2.93176e-06
9.65617e-06
5.55623e-06
4.65024e-06
9.65672e-06
2.93152e-06
9.82355e-06
2.18673e-05
2.18665e-05
9.82493e-06
2.18713e-05
2.18704e-05
4.64447e-06
9.65186e-06
5.55489e-06
2.93057e-06
9.65129e-06
4.64377e-06
2.93079e-06
4.65022e-06
9.65691e-06
5.55703e-06
2.93186e-06
9.65641e-06
4.6495e-06
2.93201e-06
1.85832e-05
1.85858e-05
9.82365e-06
2.18679e-05
2.18669e-05
9.82506e-06
2.18718e-05
2.18708e-05
4.64391e-06
9.65156e-06
2.93095e-06
5.55454e-06
4.64462e-06
9.65209e-06
2.93068e-06
4.64954e-06
9.65656e-06
2.93186e-06
5.55672e-06
4.65028e-06
9.65704e-06
2.9316e-06
1.23205e-05
4.18485e-06
1.09362e-05
4.82949e-06
1.09357e-05
4.8299e-06
1.23212e-05
2.22108e-05
7.1522e-06
9.30015e-06
2.22066e-05
7.15135e-06
1.23212e-05
4.18449e-06
1.09356e-05
4.82988e-06
1.09361e-05
1.23205e-05
4.82948e-06
2.22067e-05
7.15141e-06
9.2999e-06
7.15228e-06
2.22109e-05
1.23197e-05
1.09357e-05
4.82834e-06
4.18409e-06
1.23189e-05
1.09362e-05
4.8279e-06
2.22078e-05
7.1521e-06
9.29911e-06
2.22036e-05
7.15116e-06
1.23213e-05
1.09358e-05
4.82984e-06
4.18437e-06
1.23205e-05
1.09363e-05
4.82945e-06
2.2211e-05
7.15226e-06
9.3002e-06
2.22068e-05
7.1514e-06
9.82544e-06
2.18737e-05
2.18736e-05
2.18697e-05
2.18697e-05
9.82393e-06
4.65003e-06
2.93209e-06
9.65734e-06
5.55676e-06
9.65785e-06
4.65067e-06
2.93182e-06
4.64368e-06
2.93094e-06
9.65285e-06
5.55555e-06
2.93072e-06
4.64447e-06
9.65322e-06
9.82398e-06
2.18695e-05
2.18696e-05
2.18734e-05
9.8254e-06
2.18734e-05
4.65065e-06
9.65802e-06
5.55755e-06
2.93202e-06
9.65752e-06
2.93221e-06
4.64997e-06
4.64429e-06
9.65321e-06
5.55623e-06
2.93084e-06
2.93112e-06
9.6528e-06
4.64354e-06
1.85849e-05
1.85828e-05
1.85876e-05
9.824e-06
2.18699e-05
2.18699e-05
9.82542e-06
2.18739e-05
2.18737e-05
4.65006e-06
9.65768e-06
2.93243e-06
5.55692e-06
2.93217e-06
4.65075e-06
9.65816e-06
4.64349e-06
9.65276e-06
2.93074e-06
5.55546e-06
4.64427e-06
9.65319e-06
2.9304e-06
1.85851e-05
1.23199e-05
4.18511e-06
1.09368e-05
4.82833e-06
1.09362e-05
4.82869e-06
1.23208e-05
2.22073e-05
7.1496e-06
9.2993e-06
2.22027e-05
7.14877e-06
1.23204e-05
4.18474e-06
1.0936e-05
4.82865e-06
1.09365e-05
1.23195e-05
4.82825e-06
2.22034e-05
7.14891e-06
9.29924e-06
7.14977e-06
2.2208e-05
1.23209e-05
4.82961e-06
1.09362e-05
4.18458e-06
1.232e-05
4.82928e-06
1.09368e-05
2.2208e-05
7.15331e-06
9.30093e-06
2.22038e-05
7.15238e-06
1.23213e-05
1.09365e-05
4.82876e-06
4.18469e-06
1.23203e-05
1.0937e-05
4.8285e-06
2.22089e-05
7.14986e-06
9.30007e-06
2.22042e-05
7.14908e-06
1.23219e-05
4.18588e-06
4.83042e-06
1.09379e-05
4.83096e-06
1.09374e-05
1.23227e-05
2.22072e-05
7.15282e-06
9.30048e-06
7.15182e-06
2.22026e-05
1.23227e-05
4.18553e-06
4.83089e-06
1.09376e-05
4.83036e-06
1.23219e-05
1.0938e-05
2.22029e-05
7.1521e-06
9.30029e-06
7.15309e-06
2.22075e-05
1.23194e-05
4.18526e-06
1.09368e-05
4.82864e-06
1.09363e-05
4.82909e-06
1.23201e-05
2.22057e-05
7.15039e-06
9.29969e-06
2.22014e-05
7.1494e-06
1.232e-05
4.18498e-06
1.09364e-05
4.82916e-06
1.23193e-05
1.09368e-05
4.8287e-06
2.22017e-05
7.14936e-06
9.29949e-06
7.15029e-06
2.22062e-05
1.23227e-05
4.83092e-06
1.09374e-05
4.18525e-06
1.23219e-05
4.83042e-06
1.09378e-05
2.22077e-05
7.15326e-06
9.30072e-06
2.22031e-05
7.15228e-06
1.23203e-05
1.09363e-05
4.82896e-06
4.18459e-06
1.23195e-05
1.09368e-05
4.82853e-06
2.22069e-05
7.15025e-06
9.30003e-06
2.22024e-05
7.1494e-06
9.82323e-06
2.1871e-05
2.18709e-05
2.1867e-05
2.1867e-05
9.82186e-06
4.64808e-06
2.93066e-06
9.65524e-06
5.55542e-06
9.65576e-06
4.64874e-06
2.93044e-06
4.6414e-06
2.92925e-06
9.6503e-06
5.5542e-06
2.929e-06
4.64204e-06
9.65077e-06
9.82163e-06
2.18666e-05
2.18667e-05
2.18706e-05
9.8229e-06
2.18706e-05
4.64876e-06
9.65602e-06
5.55616e-06
2.9306e-06
9.65548e-06
2.93079e-06
4.64813e-06
4.64208e-06
9.65091e-06
5.55493e-06
2.92931e-06
2.92951e-06
9.65042e-06
4.64146e-06
1.8584e-05
1.8582e-05
1.85873e-05
9.82207e-06
2.18674e-05
2.18673e-05
9.82343e-06
2.18714e-05
2.18711e-05
4.64835e-06
9.65574e-06
2.93094e-06
5.55583e-06
2.93072e-06
4.64897e-06
9.65629e-06
4.64168e-06
9.65057e-06
2.92983e-06
5.55445e-06
4.64228e-06
9.65108e-06
2.92959e-06
1.85844e-05
1.23211e-05
4.18675e-06
4.83062e-06
1.09375e-05
4.831e-06
1.09371e-05
1.23218e-05
2.22097e-05
7.15344e-06
9.30099e-06
7.15271e-06
2.22054e-05
1.23219e-05
4.1863e-06
4.8309e-06
1.09372e-05
4.83054e-06
1.23212e-05
1.09376e-05
2.22057e-05
7.153e-06
9.30082e-06
7.1538e-06
2.22099e-05
1.23207e-05
4.18626e-06
4.83065e-06
1.09364e-05
4.83118e-06
1.09359e-05
1.23214e-05
2.22106e-05
7.15319e-06
9.30231e-06
2.22065e-05
7.15224e-06
1.23216e-05
4.18582e-06
4.83125e-06
1.09361e-05
1.2321e-05
4.83073e-06
1.09365e-05
2.22063e-05
7.15219e-06
9.30207e-06
7.15316e-06
2.22104e-05
1.23218e-05
4.83098e-06
1.09369e-05
4.18614e-06
1.23211e-05
4.83055e-06
1.09374e-05
2.221e-05
7.15397e-06
9.30133e-06
2.22059e-05
7.1531e-06
1.23212e-05
4.83103e-06
1.09359e-05
4.1856e-06
1.23205e-05
4.8305e-06
1.09363e-05
2.22101e-05
7.15304e-06
9.30239e-06
2.2206e-05
7.15207e-06
1.85867e-05
1.85846e-05
1.85892e-05
1.85872e-05
9.82544e-06
2.18721e-05
2.18717e-05
9.82683e-06
2.1876e-05
2.18756e-05
4.6446e-06
9.65375e-06
2.9316e-06
5.55561e-06
4.6453e-06
2.93125e-06
9.65416e-06
4.65033e-06
9.65843e-06
2.93248e-06
5.55762e-06
4.65099e-06
2.93216e-06
9.65891e-06
1.85866e-05
1.85896e-05
5.04153e-07
2.92061e-07
2.92696e-07
2.92738e-07
5.04057e-07
2.92722e-07
2.92538e-07
1.26146e-07
1.26145e-07
2.78981e-06
1.91592e-06
1.91627e-06
1.32607e-06
2.79017e-06
1.91502e-06
1.91532e-06
2.78977e-06
1.32585e-06
1.91351e-06
1.91384e-06
1.91438e-06
1.91471e-06
2.78922e-06
2.79008e-06
1.32682e-06
1.91448e-06
1.91415e-06
1.91531e-06
1.91501e-06
2.78955e-06
2.78814e-06
1.32609e-06
1.91374e-06
1.91347e-06
1.91472e-06
1.91444e-06
2.78755e-06
2.79034e-06
1.32788e-06
1.91511e-06
1.91548e-06
2.78967e-06
1.91598e-06
1.91629e-06
2.78922e-06
1.91444e-06
1.91485e-06
1.32393e-06
2.78964e-06
1.91366e-06
1.91403e-06
2.78955e-06
1.91521e-06
1.91516e-06
1.325e-06
1.91435e-06
2.79e-06
1.91443e-06
2.78769e-06
1.91456e-06
1.91436e-06
1.32414e-06
1.91318e-06
2.78807e-06
1.91355e-06
5.03517e-07
2.92335e-07
5.04109e-07
2.92696e-07
2.92755e-07
2.92755e-07
2.9269e-07
1.26135e-07
1.26155e-07
5.03054e-07
2.91724e-07
2.92688e-07
2.91542e-07
2.92714e-07
1.26197e-07
1.26169e-07
5.03995e-07
2.92794e-07
2.92664e-07
2.92786e-07
2.92572e-07
1.2623e-07
1.26225e-07
5.04354e-07
2.92897e-07
2.92911e-07
2.92858e-07
2.92783e-07
1.26199e-07
1.26227e-07
3.58538e-06
2.17439e-06
2.17512e-06
2.9166e-07
2.92361e-07
5.03163e-07
2.91697e-07
2.92318e-07
1.26123e-07
1.26161e-07
2.92424e-07
2.92227e-07
5.03577e-07
2.92353e-07
2.92254e-07
1.26156e-07
1.26135e-07
2.92515e-07
2.92201e-07
5.03959e-07
2.92473e-07
2.92176e-07
1.26136e-07
1.26125e-07
5.04058e-07
2.92681e-07
2.92541e-07
1.26173e-07
5.0322e-07
2.91775e-07
2.92322e-07
1.26115e-07
5.03599e-07
2.92359e-07
2.92262e-07
1.2619e-07
5.03859e-07
2.92483e-07
2.92109e-07
1.26203e-07
1.59521e-06
2.24351e-06
2.49452e-06
1.46368e-06
2.49492e-06
1.46495e-06
1.59362e-06
1.77813e-06
2.17613e-06
2.97575e-06
3.58536e-06
1.77964e-06
2.17542e-06
2.97513e-06
1.59361e-06
2.24362e-06
2.49482e-06
1.46484e-06
1.59537e-06
2.49475e-06
1.46368e-06
1.77926e-06
2.97522e-06
3.58601e-06
2.17556e-06
2.1762e-06
2.97614e-06
1.77792e-06
1.59523e-06
2.24466e-06
1.46476e-06
2.49565e-06
1.466e-06
2.49538e-06
1.59395e-06
1.77707e-06
2.17482e-06
2.97655e-06
3.58501e-06
1.77821e-06
2.17405e-06
2.97606e-06
1.59313e-06
2.24459e-06
1.46591e-06
2.49565e-06
1.59506e-06
1.46481e-06
2.49542e-06
1.77844e-06
2.97612e-06
3.5856e-06
2.17434e-06
2.17488e-06
2.97648e-06
1.77717e-06
2.79014e-06
1.32802e-06
1.91498e-06
1.91522e-06
1.9159e-06
1.91618e-06
2.78979e-06
2.79009e-06
1.3269e-06
1.9145e-06
1.91471e-06
2.78952e-06
1.91586e-06
1.91596e-06
2.78938e-06
1.32419e-06
1.91486e-06
1.91483e-06
2.78989e-06
1.91355e-06
1.91372e-06
1.77882e-06
2.97538e-06
3.58468e-06
2.17388e-06
2.97557e-06
2.17458e-06
1.77635e-06
1.59419e-06
2.49531e-06
1.46489e-06
2.24372e-06
1.59592e-06
2.49506e-06
1.46356e-06
1.77877e-06
2.17397e-06
3.58478e-06
2.97499e-06
2.17451e-06
2.97539e-06
1.77739e-06
1.77663e-06
2.97527e-06
2.17428e-06
3.58403e-06
2.17361e-06
1.77888e-06
2.97481e-06
1.59615e-06
2.24343e-06
2.49463e-06
1.46355e-06
2.49485e-06
1.46467e-06
1.59386e-06
1.59465e-06
2.49518e-06
1.46509e-06
2.24334e-06
1.59637e-06
2.49506e-06
1.46363e-06
1.77946e-06
2.17569e-06
3.58616e-06
2.97541e-06
2.9759e-06
2.17628e-06
1.77808e-06
1.77823e-06
2.9761e-06
2.17635e-06
3.58551e-06
1.77959e-06
2.9755e-06
2.17545e-06
1.59592e-06
2.24323e-06
2.49462e-06
1.46365e-06
2.49485e-06
1.46473e-06
1.59432e-06
1.32509e-06
1.91574e-06
1.91448e-06
1.59614e-06
2.24378e-06
2.4951e-06
1.46436e-06
2.4954e-06
1.46585e-06
1.59466e-06
1.77964e-06
2.97611e-06
3.58581e-06
2.17474e-06
2.97665e-06
2.17548e-06
1.77714e-06
1.59564e-06
2.24367e-06
1.46471e-06
2.49459e-06
1.46577e-06
2.49456e-06
1.59426e-06
1.77888e-06
2.97446e-06
3.58535e-06
2.17435e-06
2.97521e-06
1.77679e-06
2.17507e-06
1.5934e-06
2.49555e-06
1.46647e-06
2.24417e-06
1.59574e-06
2.49548e-06
1.46476e-06
1.77857e-06
2.17454e-06
3.58585e-06
2.97611e-06
2.1751e-06
2.97707e-06
1.77705e-06
1.77736e-06
2.97668e-06
2.1751e-06
3.58518e-06
2.17429e-06
1.77957e-06
2.97621e-06
1.59509e-06
2.24397e-06
2.4946e-06
1.46402e-06
2.49534e-06
1.46611e-06
1.59216e-06
1.59196e-06
1.46626e-06
2.49456e-06
2.244e-06
1.59532e-06
1.46405e-06
2.4943e-06
1.77833e-06
2.17422e-06
3.58537e-06
2.97467e-06
2.9755e-06
2.17486e-06
1.77617e-06
1.77701e-06
2.97562e-06
2.17483e-06
3.58482e-06
1.77886e-06
2.97492e-06
2.17414e-06
1.59455e-06
2.24386e-06
1.46428e-06
2.49429e-06
1.4658e-06
2.49425e-06
1.59221e-06
1.77985e-06
2.17533e-06
3.58569e-06
2.97518e-06
1.77788e-06
2.17592e-06
2.97555e-06
1.59551e-06
2.2441e-06
2.49449e-06
1.46349e-06
1.5934e-06
2.49452e-06
1.46515e-06
1.77832e-06
2.17577e-06
3.58609e-06
2.9745e-06
2.9755e-06
2.17643e-06
1.77664e-06
1.59538e-06
2.24382e-06
1.46368e-06
2.49433e-06
1.46568e-06
2.49463e-06
1.59276e-06
2.78862e-06
1.32595e-06
1.91391e-06
1.91357e-06
1.91442e-06
1.91481e-06
2.78799e-06
2.78767e-06
1.3244e-06
1.91487e-06
1.91454e-06
1.91383e-06
2.78804e-06
1.91353e-06
1.59392e-06
1.46623e-06
2.49523e-06
2.2448e-06
1.59609e-06
1.46469e-06
2.49568e-06
1.7785e-06
2.17407e-06
3.5855e-06
2.97596e-06
1.77671e-06
2.17473e-06
2.97637e-06
1.77597e-06
2.97614e-06
2.17481e-06
3.58486e-06
1.77866e-06
2.17402e-06
2.97569e-06
1.59539e-06
2.24488e-06
1.46489e-06
2.4956e-06
1.59293e-06
1.46614e-06
2.49584e-06
1.59424e-06
1.46671e-06
2.49649e-06
2.24506e-06
1.59611e-06
1.46534e-06
2.49642e-06
1.7788e-06
2.17632e-06
3.58728e-06
2.97621e-06
2.9772e-06
2.17694e-06
1.77732e-06
1.77749e-06
2.97726e-06
2.17677e-06
3.58663e-06
1.77924e-06
2.97633e-06
2.17615e-06
1.59527e-06
2.24475e-06
1.46464e-06
2.49598e-06
1.46641e-06
2.49618e-06
1.59399e-06
2.78989e-06
1.32588e-06
1.91629e-06
1.9151e-06
1.91548e-06
2.7895e-06
1.3262e-06
1.91376e-06
1.91427e-06
2.78908e-06
1.91456e-06
1.91509e-06
2.78913e-06
1.32408e-06
1.91458e-06
1.91524e-06
2.78955e-06
1.91376e-06
1.91436e-06
1.59537e-06
2.24311e-06
2.4941e-06
1.46331e-06
2.49431e-06
1.46434e-06
1.59378e-06
1.77757e-06
2.17485e-06
2.97557e-06
3.58455e-06
2.9752e-06
1.77875e-06
2.17437e-06
1.59324e-06
2.24333e-06
2.49472e-06
1.46453e-06
2.49442e-06
1.59571e-06
1.46329e-06
1.77878e-06
2.9753e-06
3.58524e-06
2.17482e-06
2.97581e-06
2.17533e-06
1.77738e-06
1.59607e-06
2.24319e-06
2.49402e-06
1.46347e-06
2.49458e-06
1.46465e-06
1.59398e-06
1.7778e-06
2.17628e-06
2.97573e-06
3.58546e-06
1.77951e-06
2.97532e-06
2.17565e-06
1.59386e-06
2.24305e-06
2.49479e-06
1.4646e-06
1.59587e-06
2.49479e-06
1.46358e-06
1.77927e-06
2.97479e-06
3.58611e-06
2.17579e-06
2.97534e-06
1.77699e-06
2.17644e-06
1.59388e-06
2.49435e-06
1.46428e-06
2.24294e-06
1.59535e-06
2.49435e-06
1.4632e-06
1.77745e-06
2.97568e-06
2.17556e-06
3.58485e-06
2.17502e-06
1.77871e-06
2.97489e-06
1.59412e-06
2.49409e-06
1.4645e-06
2.24299e-06
1.59564e-06
2.49432e-06
1.46352e-06
1.77702e-06
2.97542e-06
2.17642e-06
3.58556e-06
1.7789e-06
2.97488e-06
2.17579e-06
2.78983e-06
1.32665e-06
1.91444e-06
1.91453e-06
1.91536e-06
1.91526e-06
2.78926e-06
2.78919e-06
1.32502e-06
1.91521e-06
1.91545e-06
1.91442e-06
2.78965e-06
1.91456e-06
1.59497e-06
2.24369e-06
2.49401e-06
1.46385e-06
2.49434e-06
1.46558e-06
1.59358e-06
1.7763e-06
2.17533e-06
2.97659e-06
3.5856e-06
2.97583e-06
1.77898e-06
2.17477e-06
1.59332e-06
2.24357e-06
2.49481e-06
1.46602e-06
2.49408e-06
1.59491e-06
1.46443e-06
1.77894e-06
2.97523e-06
3.58626e-06
2.17524e-06
2.97592e-06
2.17573e-06
1.77706e-06
1.59462e-06
2.24316e-06
1.46419e-06
2.49473e-06
1.46558e-06
2.49459e-06
1.59349e-06
1.77601e-06
2.17475e-06
2.97521e-06
3.58477e-06
1.77805e-06
2.97447e-06
2.1742e-06
1.59247e-06
2.24307e-06
1.46588e-06
2.49478e-06
1.59434e-06
1.46379e-06
2.49461e-06
1.778e-06
2.97414e-06
3.58538e-06
2.17451e-06
2.97462e-06
1.77546e-06
2.17506e-06
1.5936e-06
2.49463e-06
1.46575e-06
2.2435e-06
1.5955e-06
2.49416e-06
1.46421e-06
1.77731e-06
2.97617e-06
2.17601e-06
3.58598e-06
2.17549e-06
1.77854e-06
2.97576e-06
1.59355e-06
1.46602e-06
2.4949e-06
2.24379e-06
1.59508e-06
1.46405e-06
2.49492e-06
1.77628e-06
2.97496e-06
2.17522e-06
3.58501e-06
1.77779e-06
2.97445e-06
2.1747e-06
1.59473e-06
2.24268e-06
1.46356e-06
2.49398e-06
1.46479e-06
2.49418e-06
1.59323e-06
1.77649e-06
2.17628e-06
2.97493e-06
3.58526e-06
2.17563e-06
1.7786e-06
2.97427e-06
1.59313e-06
2.24283e-06
1.46518e-06
2.49438e-06
1.46352e-06
1.59481e-06
2.49435e-06
1.77872e-06
2.97387e-06
3.58584e-06
2.17571e-06
2.17638e-06
2.97444e-06
1.77634e-06
1.59356e-06
2.4947e-06
1.46459e-06
2.2433e-06
1.59553e-06
2.4948e-06
1.4636e-06
1.77763e-06
2.97594e-06
2.17609e-06
3.58544e-06
1.77907e-06
2.17546e-06
2.97508e-06
1.593e-06
1.46479e-06
2.49384e-06
2.24308e-06
1.59511e-06
1.46328e-06
2.4939e-06
1.77621e-06
2.9745e-06
2.1763e-06
3.58523e-06
1.77839e-06
2.97378e-06
2.17565e-06
2.78801e-06
1.32573e-06
1.91351e-06
1.91316e-06
1.91409e-06
1.91439e-06
2.78759e-06
2.78768e-06
1.32407e-06
1.91439e-06
1.91404e-06
1.91342e-06
2.78805e-06
1.91304e-06
1.59568e-06
2.24386e-06
1.46389e-06
2.49462e-06
1.46576e-06
2.49531e-06
1.59362e-06
1.77729e-06
2.17687e-06
2.9767e-06
3.58676e-06
2.17625e-06
1.77878e-06
2.97597e-06
1.5937e-06
2.24417e-06
1.4661e-06
2.49563e-06
1.46466e-06
1.59572e-06
2.49546e-06
1.77872e-06
2.97551e-06
3.58737e-06
2.17638e-06
2.17702e-06
2.97608e-06
1.77702e-06
1.59387e-06
1.46571e-06
2.49546e-06
2.24411e-06
1.59545e-06
1.46432e-06
2.49536e-06
1.7772e-06
2.9765e-06
2.17501e-06
3.58513e-06
1.77846e-06
2.17451e-06
2.97606e-06
1.59375e-06
1.46566e-06
2.49471e-06
2.24366e-06
1.59551e-06
1.46415e-06
2.49466e-06
1.77678e-06
2.97614e-06
2.177e-06
3.58695e-06
1.7791e-06
2.97575e-06
2.17635e-06
2.78984e-06
1.3256e-06
1.91593e-06
1.916e-06
2.79025e-06
1.91481e-06
1.91495e-06
5.03786e-07
1.081e-06
1.08062e-06
1.3274e-06
5.03827e-07
1.08098e-06
1.08068e-06
1.32692e-06
5.03838e-07
1.08089e-06
1.0807e-06
1.3267e-06
5.03797e-07
1.08079e-06
1.08074e-06
1.32674e-06
5.03809e-07
1.08071e-06
1.08078e-06
1.32621e-06
5.03818e-07
1.08068e-06
1.08094e-06
1.3261e-06
5.03828e-07
1.08068e-06
1.08112e-06
1.32616e-06
5.03908e-07
1.08074e-06
1.08125e-06
1.32587e-06
5.04003e-07
1.08067e-06
1.08139e-06
1.32615e-06
5.04102e-07
1.08071e-06
1.08144e-06
1.32637e-06
5.04227e-07
1.08078e-06
1.08145e-06
1.32682e-06
5.0434e-07
1.08086e-06
1.08146e-06
1.32681e-06
5.04429e-07
1.08089e-06
1.08144e-06
1.32708e-06
5.04393e-07
1.08093e-06
1.08143e-06
1.32747e-06
5.04285e-07
1.08103e-06
1.08149e-06
1.32721e-06
5.04192e-07
1.08121e-06
1.08161e-06
1.32768e-06
5.04117e-07
1.08138e-06
1.08172e-06
1.32773e-06
5.0406e-07
1.08144e-06
1.08181e-06
1.32777e-06
5.02776e-07
1.08119e-06
1.08164e-06
1.32677e-06
5.53092e-07
9.81653e-07
9.82018e-07
1.27569e-06
1.32409e-06
1.08063e-06
1.08081e-06
1.32504e-06
1.0806e-06
1.08064e-06
1.08109e-06
1.08135e-06
1.32408e-06
1.0807e-06
1.08132e-06
1.32581e-06
1.32678e-06
1.32473e-06
1.08067e-06
1.08073e-06
1.08075e-06
1.08057e-06
1.32672e-06
1.32531e-06
1.08063e-06
1.08062e-06
1.08058e-06
1.08041e-06
1.08138e-06
1.08102e-06
1.08132e-06
1.32569e-06
1.32423e-06
1.08115e-06
1.08068e-06
1.08088e-06
1.32532e-06
1.32721e-06
1.3247e-06
1.08086e-06
1.08078e-06
1.08094e-06
1.08067e-06
1.32695e-06
1.32522e-06
1.08074e-06
1.08061e-06
1.08076e-06
1.0805e-06
1.0815e-06
1.08094e-06
1.08132e-06
1.32586e-06
1.32405e-06
1.08123e-06
1.08071e-06
1.08099e-06
1.3244e-06
1.32746e-06
1.32519e-06
1.08104e-06
1.08084e-06
1.08103e-06
1.08064e-06
1.32677e-06
1.32485e-06
1.08093e-06
1.08059e-06
1.08087e-06
1.08049e-06
1.08139e-06
1.08085e-06
1.08125e-06
1.32653e-06
1.32444e-06
1.08112e-06
1.08071e-06
1.08096e-06
1.32445e-06
1.32675e-06
1.32444e-06
1.08114e-06
1.08071e-06
1.08104e-06
1.08064e-06
1.3264e-06
1.32451e-06
1.08104e-06
1.08057e-06
1.08089e-06
1.08056e-06
1.08135e-06
1.08073e-06
1.08118e-06
1.32607e-06
1.3244e-06
1.08108e-06
1.08075e-06
1.08092e-06
1.32391e-06
1.32725e-06
1.32478e-06
1.08117e-06
1.08078e-06
1.08102e-06
1.08065e-06
1.3261e-06
1.32396e-06
1.08102e-06
1.08064e-06
1.08091e-06
1.08059e-06
1.08126e-06
1.08069e-06
1.08112e-06
1.32602e-06
1.32445e-06
1.08108e-06
1.08092e-06
1.08098e-06
1.3238e-06
1.32633e-06
1.32412e-06
1.08117e-06
1.08077e-06
1.08106e-06
1.0807e-06
1.32631e-06
1.32364e-06
1.08108e-06
1.08066e-06
1.08099e-06
1.08068e-06
1.08122e-06
1.08065e-06
1.08109e-06
1.32667e-06
1.32435e-06
1.08107e-06
1.08103e-06
1.08096e-06
1.32391e-06
1.32692e-06
1.32499e-06
1.08115e-06
1.08087e-06
1.08112e-06
1.08077e-06
1.32617e-06
1.32347e-06
1.08104e-06
1.08078e-06
1.08108e-06
1.0808e-06
1.08121e-06
1.08073e-06
1.08111e-06
1.32691e-06
1.32441e-06
1.08105e-06
1.08124e-06
1.0809e-06
1.32423e-06
1.3266e-06
1.32506e-06
1.08123e-06
1.08095e-06
1.08116e-06
1.08084e-06
1.32604e-06
1.32341e-06
1.08134e-06
1.08096e-06
1.08138e-06
1.08095e-06
1.08125e-06
1.08063e-06
1.08118e-06
1.32699e-06
1.32429e-06
1.08107e-06
1.08139e-06
1.08092e-06
1.32449e-06
1.3276e-06
1.32528e-06
1.08136e-06
1.08095e-06
1.08133e-06
1.08089e-06
1.32597e-06
1.32368e-06
1.08154e-06
1.08096e-06
1.08163e-06
1.08112e-06
1.08134e-06
1.0807e-06
1.08126e-06
1.3268e-06
1.32414e-06
1.08107e-06
1.08143e-06
1.08102e-06
1.32446e-06
1.32792e-06
1.32546e-06
1.08144e-06
1.08099e-06
1.0814e-06
1.0809e-06
1.32623e-06
1.32405e-06
1.08168e-06
1.08122e-06
1.08175e-06
1.08128e-06
1.0814e-06
1.08076e-06
1.08143e-06
1.32668e-06
1.324e-06
1.08118e-06
1.08144e-06
1.08115e-06
1.32449e-06
1.32769e-06
1.32582e-06
1.08157e-06
1.08103e-06
1.08153e-06
1.08094e-06
1.32657e-06
1.32405e-06
1.08185e-06
1.08156e-06
1.08178e-06
1.08141e-06
1.08142e-06
1.08084e-06
1.08148e-06
1.32655e-06
1.32374e-06
1.08124e-06
1.08143e-06
1.08132e-06
1.32514e-06
1.32739e-06
1.32566e-06
1.08164e-06
1.0811e-06
1.08162e-06
1.08094e-06
1.32668e-06
1.32402e-06
1.08194e-06
1.08152e-06
1.08172e-06
1.08142e-06
1.08163e-06
1.08085e-06
1.08167e-06
1.32629e-06
1.32374e-06
1.08158e-06
1.08141e-06
1.08156e-06
1.32483e-06
1.32724e-06
1.32536e-06
1.08174e-06