/*--------------------------------*- C++ -*----------------------------------*\
| =========                 |                                                 |
| \\      /  F ield         | OpenFOAM: The Open Source CFD Toolbox           |
|  \\    /   O peration     | Version:  2312                                  |
|   \\  /    A nd           | Website:  www.openfoam.com                      |
|    \\/     M anipulation  |                                                 |
\*---------------------------------------------------------------------------*/
FoamFile
{
    version     2.0;
    format      ascii;
    arch        "LSB;label=32;scalar=64";
    class       volScalarField;
    location    "125";
    object      k;
}
// * * * * * * * * * * * * * * * * * * * * * * * * * * * * * * * * * * * * * //

dimensions      [0 2 -2 0 0 0 0];

internalField   nonuniform List<scalar> 
43496
(
5.77335e-05
6.91444e-05
1.82592e-05
5.06272e-05
3.7769e-05
1.46477e-05
5.77324e-05
6.99556e-05
3.77684e-05
1.82612e-05
1.46481e-05
5.06281e-05
2.3046e-05
6.1605e-05
6.16005e-05
6.91429e-05
6.99587e-05
6.97227e-05
5.77299e-05
6.247e-05
6.92887e-05
6.2465e-05
6.9287e-05
6.97251e-05
7.03037e-05
7.47553e-05
7.4749e-05
7.03119e-05
6.91393e-05
6.97213e-05
5.77288e-05
6.92882e-05
6.24659e-05
6.92866e-05
6.24609e-05
6.97237e-05
7.03016e-05
7.47356e-05
6.99543e-05
7.47295e-05
7.03098e-05
8.86293e-05
7.19442e-05
7.19495e-05
7.19379e-05
7.19432e-05
8.8632e-05
6.14347e-05
6.91913e-05
6.16036e-05
4.62124e-05
6.91898e-05
4.62104e-05
6.14367e-05
6.13715e-05
6.91806e-05
6.15989e-05
4.61972e-05
4.61952e-05
6.9179e-05
6.13736e-05
6.91377e-05
6.99574e-05
1.22141e-05
1.30784e-05
1.22144e-05
5.06268e-05
3.5706e-05
3.5718e-05
2.57369e-05
3.77684e-05
4.12746e-05
2.3523e-05
4.12739e-05
2.35432e-05
2.57054e-05
2.95486e-05
4.64354e-05
4.64386e-05
2.95203e-05
2.57366e-05
3.77677e-05
2.3523e-05
4.1273e-05
2.35432e-05
4.12717e-05
2.57054e-05
2.95489e-05
4.64312e-05
5.06278e-05
3.57121e-05
4.64335e-05
2.95215e-05
3.57242e-05
4.53533e-05
2.30794e-05
3.26343e-05
3.26293e-05
3.26449e-05
3.26498e-05
4.53494e-05
1.30778e-05
1.82574e-05
1.82593e-05
2.30766e-05
1.30778e-05
1.82573e-05
1.82593e-05
2.30812e-05
2.30737e-05
2.30302e-05
1.82592e-05
1.82587e-05
1.8259e-05
1.82586e-05
2.30706e-05
2.30299e-05
1.82582e-05
1.82613e-05
1.8258e-05
1.82611e-05
1.82606e-05
1.82572e-05
1.82607e-05
2.3074e-05
2.30321e-05
1.82597e-05
1.82592e-05
1.82599e-05
2.30442e-05
2.30694e-05
1.8259e-05
1.82586e-05
2.30678e-05
1.8258e-05
1.82611e-05
1.82611e-05
2.30704e-05
1.82598e-05
5.77337e-05
6.99573e-05
6.99586e-05
5.773e-05
6.91373e-05
6.91428e-05
5.77329e-05
6.99584e-05
6.99597e-05
5.77292e-05
1.30776e-05
1.30786e-05
1.30787e-05
1.30778e-05
1.30776e-05
1.30785e-05
1.30787e-05
3.77622e-05
5.06271e-05
1.46472e-05
1.82572e-05
5.06274e-05
1.46472e-05
3.77667e-05
6.91393e-05
6.91444e-05
3.77632e-05
1.46485e-05
5.0627e-05
1.82592e-05
1.46485e-05
5.06269e-05
3.77682e-05
6.15959e-05
6.16045e-05
2.30326e-05
6.15973e-05
6.1606e-05
6.99574e-05
5.77306e-05
6.91373e-05
6.99585e-05
5.77297e-05
1.30776e-05
1.30785e-05
1.30787e-05
3.77674e-05
5.0627e-05
1.46471e-05
3.77671e-05
1.46473e-05
6.91393e-05
3.77681e-05
1.46484e-05
5.06269e-05
3.77686e-05
1.46484e-05
6.1596e-05
6.16047e-05
2.30394e-05
6.15975e-05
6.16064e-05
6.91374e-05
6.91427e-05
6.91399e-05
6.91451e-05
6.15986e-05
6.16079e-05
2.30419e-05
6.16e-05
6.16095e-05
6.91427e-05
6.91374e-05
6.91451e-05
6.91399e-05
2.30731e-05
6.16001e-05
6.16097e-05
6.15985e-05
6.16079e-05
5.77324e-05
6.99529e-05
6.99542e-05
5.77287e-05
3.7764e-05
5.06271e-05
1.46474e-05
1.8259e-05
5.06273e-05
1.46473e-05
3.7768e-05
3.77631e-05
5.0625e-05
1.46471e-05
1.82586e-05
5.06246e-05
1.46471e-05
3.77669e-05
5.77301e-05
6.99587e-05
6.99574e-05
5.7734e-05
5.77288e-05
6.99543e-05
6.9953e-05
5.77326e-05
3.77696e-05
1.8259e-05
5.06269e-05
1.46473e-05
5.06269e-05
1.46473e-05
3.77639e-05
3.77686e-05
1.82586e-05
5.0624e-05
1.4647e-05
5.06257e-05
1.46471e-05
3.77628e-05
6.15986e-05
6.16002e-05
2.30422e-05
6.15997e-05
6.16017e-05
6.9138e-05
6.91433e-05
6.91428e-05
6.91373e-05
2.30746e-05
6.15999e-05
6.16019e-05
6.15986e-05
6.16002e-05
6.91432e-05
6.9138e-05
3.77642e-05
5.06292e-05
1.46479e-05
1.8258e-05
5.06294e-05
1.46478e-05
3.77678e-05
5.77319e-05
6.99541e-05
6.99554e-05
5.77281e-05
3.77636e-05
1.46483e-05
5.06277e-05
1.82612e-05
1.46482e-05
5.0628e-05
3.7767e-05
5.77293e-05
6.99598e-05
6.99584e-05
5.77332e-05
3.77699e-05
1.8258e-05
5.06294e-05
1.46478e-05
5.06289e-05
1.46478e-05
3.77639e-05
5.77282e-05
6.99555e-05
6.99542e-05
5.77321e-05
3.77694e-05
1.82611e-05
1.46481e-05
5.06279e-05
1.46482e-05
5.06275e-05
3.77631e-05
5.77315e-05
6.99565e-05
6.99578e-05
5.77282e-05
3.77635e-05
1.4648e-05
5.06262e-05
1.82606e-05
1.4648e-05
5.06262e-05
3.77676e-05
5.77325e-05
6.99535e-05
6.99548e-05
5.77289e-05
3.7768e-05
1.82572e-05
5.06269e-05
1.46471e-05
5.0627e-05
1.46471e-05
3.77625e-05
5.77283e-05
6.99579e-05
6.99566e-05
5.77318e-05
3.77688e-05
1.82606e-05
1.4648e-05
5.0626e-05
1.4648e-05
5.06258e-05
3.77631e-05
5.7729e-05
6.99548e-05
6.99535e-05
5.77328e-05
6.16033e-05
6.15987e-05
2.30447e-05
6.16047e-05
6.16001e-05
6.91377e-05
6.91429e-05
6.91444e-05
6.91393e-05
2.30766e-05
6.16049e-05
6.16002e-05
6.16032e-05
6.15986e-05
6.91429e-05
6.91377e-05
3.77617e-05
1.46485e-05
5.06283e-05
1.82597e-05
1.46484e-05
5.06285e-05
3.77662e-05
5.77311e-05
6.99573e-05
6.99586e-05
5.77278e-05
5.7728e-05
6.99547e-05
6.99559e-05
5.7725e-05
3.77687e-05
1.82592e-05
1.46484e-05
5.0627e-05
1.46485e-05
5.06264e-05
3.77638e-05
3.77673e-05
1.82597e-05
1.46484e-05
5.06285e-05
1.46484e-05
5.06281e-05
3.77616e-05
5.77278e-05
6.99586e-05
6.99573e-05
5.77314e-05
5.7725e-05
6.9956e-05
6.99547e-05
5.77283e-05
6.91377e-05
6.91429e-05
6.91398e-05
6.9145e-05
2.30685e-05
6.15974e-05
6.16061e-05
6.15958e-05
6.16045e-05
6.91429e-05
6.91377e-05
6.91449e-05
6.91398e-05
6.91374e-05
6.91399e-05
6.15987e-05
6.16081e-05
6.9953e-05
5.77291e-05
5.06266e-05
1.46473e-05
3.77675e-05
5.06244e-05
1.46471e-05
3.77664e-05
6.15987e-05
6.16004e-05
6.9138e-05
5.0629e-05
1.46478e-05
3.77682e-05
6.99542e-05
5.77285e-05
1.46481e-05
5.06275e-05
3.77674e-05
5.77318e-05
6.99566e-05
5.77285e-05
3.77681e-05
1.4648e-05
5.06256e-05
1.82599e-05
3.7768e-05
1.46479e-05
5.06263e-05
5.77331e-05
6.99536e-05
5.77293e-05
6.99549e-05
6.16034e-05
6.15988e-05
6.91377e-05
3.77663e-05
1.46484e-05
5.06281e-05
1.82597e-05
3.77664e-05
1.46488e-05
5.06289e-05
5.77315e-05
6.99574e-05
5.77281e-05
5.77284e-05
6.99548e-05
5.77253e-05
6.99561e-05
6.91377e-05
6.91428e-05
6.91398e-05
6.91449e-05
6.9723e-05
6.92888e-05
6.24712e-05
5.77301e-05
6.92871e-05
6.24661e-05
6.97254e-05
7.03122e-05
6.99586e-05
7.47511e-05
7.47573e-05
7.0304e-05
7.0304e-05
7.47575e-05
6.99573e-05
7.47512e-05
7.03122e-05
6.97254e-05
5.77335e-05
6.92871e-05
6.24661e-05
6.92888e-05
6.2471e-05
6.9723e-05
6.91428e-05
6.91373e-05
6.97227e-05
6.24695e-05
6.92887e-05
5.77292e-05
6.24644e-05
6.9287e-05
6.97251e-05
7.03119e-05
6.99597e-05
7.47485e-05
7.47546e-05
7.03036e-05
7.03037e-05
7.47548e-05
6.99584e-05
7.47486e-05
7.03119e-05
6.97251e-05
5.77327e-05
6.24643e-05
6.9287e-05
6.24692e-05
6.92887e-05
6.97227e-05
6.91444e-05
6.91393e-05
8.86305e-05
7.19499e-05
7.1944e-05
7.19436e-05
7.19377e-05
8.86334e-05
6.1374e-05
4.61957e-05
6.15972e-05
6.9178e-05
4.61974e-05
6.91796e-05
6.13714e-05
6.14359e-05
4.62106e-05
6.16059e-05
6.91902e-05
4.62124e-05
6.91917e-05
6.14332e-05
6.13714e-05
6.91796e-05
6.15958e-05
4.61977e-05
4.61956e-05
6.9178e-05
6.1374e-05
6.14332e-05
6.91917e-05
6.16045e-05
4.62127e-05
4.62105e-05
6.91902e-05
6.14359e-05
8.86334e-05
7.19436e-05
7.19377e-05
7.19499e-05
7.1944e-05
8.86305e-05
7.03122e-05
7.47516e-05
6.99587e-05
7.0304e-05
7.47577e-05
6.97254e-05
5.77339e-05
6.92872e-05
6.24666e-05
6.9723e-05
6.92888e-05
6.24715e-05
6.91428e-05
7.03119e-05
7.4749e-05
6.99598e-05
7.03037e-05
7.47552e-05
6.97251e-05
5.77333e-05
6.24649e-05
6.9287e-05
6.97227e-05
6.24698e-05
6.92887e-05
6.91444e-05
8.86303e-05
7.19498e-05
7.19439e-05
7.19435e-05
7.19376e-05
8.86331e-05
6.13741e-05
4.61959e-05
6.91781e-05
6.15974e-05
6.13716e-05
4.61976e-05
6.91796e-05
6.1436e-05
4.62108e-05
6.91902e-05
6.16062e-05
6.14334e-05
4.62127e-05
6.91917e-05
8.86333e-05
7.19435e-05
7.19376e-05
8.86304e-05
7.19499e-05
7.19439e-05
6.13717e-05
6.91797e-05
6.1596e-05
4.61976e-05
4.61958e-05
6.91781e-05
6.13741e-05
6.14335e-05
6.91918e-05
6.16048e-05
4.62127e-05
4.62108e-05
6.91902e-05
6.1436e-05
6.91427e-05
6.91374e-05
6.91451e-05
6.91399e-05
8.86343e-05
7.19506e-05
7.19444e-05
7.19441e-05
7.1938e-05
8.86373e-05
6.13745e-05
4.61947e-05
6.15999e-05
6.91791e-05
6.91806e-05
4.61964e-05
6.13723e-05
6.14351e-05
4.62094e-05
6.16094e-05
6.9191e-05
6.91926e-05
4.62111e-05
6.14327e-05
6.13722e-05
6.91807e-05
6.15985e-05
4.61966e-05
6.91791e-05
6.13745e-05
4.61946e-05
6.14326e-05
6.91926e-05
6.16079e-05
4.62113e-05
6.9191e-05
6.14351e-05
4.62092e-05
8.86373e-05
7.19441e-05
7.1938e-05
7.19506e-05
7.19444e-05
8.86343e-05
6.91374e-05
6.91427e-05
6.91399e-05
6.91451e-05
8.86373e-05
7.19441e-05
7.1938e-05
8.86343e-05
7.19505e-05
7.19444e-05
6.13726e-05
4.61968e-05
6.15986e-05
6.91807e-05
6.91791e-05
4.61947e-05
6.13747e-05
6.1433e-05
4.62115e-05
6.16081e-05
6.91926e-05
6.91911e-05
4.62094e-05
6.14353e-05
6.13747e-05
6.91791e-05
4.61945e-05
6.16e-05
6.13724e-05
6.91807e-05
4.61965e-05
6.14353e-05
6.9191e-05
4.62091e-05
6.16095e-05
6.14328e-05
6.91926e-05
4.62112e-05
8.86342e-05
7.19505e-05
7.19444e-05
7.19441e-05
7.1938e-05
8.86373e-05
6.97216e-05
6.92883e-05
6.24666e-05
5.77287e-05
6.92867e-05
6.24615e-05
6.97241e-05
7.03108e-05
6.99542e-05
7.47321e-05
7.47383e-05
7.03026e-05
7.03026e-05
7.47385e-05
6.9953e-05
7.47321e-05
7.03108e-05
6.9724e-05
5.77321e-05
6.92867e-05
6.24614e-05
6.92883e-05
6.24664e-05
6.97216e-05
6.97254e-05
6.92871e-05
6.24662e-05
5.77337e-05
6.9723e-05
6.92888e-05
6.24713e-05
7.0304e-05
6.99574e-05
7.47577e-05
7.03123e-05
7.47515e-05
7.03123e-05
7.47513e-05
6.99586e-05
7.0304e-05
7.47576e-05
6.9723e-05
5.77303e-05
6.92888e-05
6.24715e-05
6.97254e-05
6.92872e-05
6.24664e-05
6.97241e-05
6.92867e-05
6.24615e-05
5.77324e-05
6.97216e-05
6.92883e-05
6.24666e-05
7.03026e-05
6.9953e-05
7.47387e-05
7.47324e-05
7.03109e-05
7.03108e-05
7.47323e-05
6.99542e-05
7.03026e-05
7.47386e-05
6.97217e-05
5.7729e-05
6.92883e-05
6.24669e-05
6.92867e-05
6.24618e-05
6.97241e-05
8.86324e-05
7.19446e-05
7.195e-05
7.19382e-05
7.19435e-05
8.86352e-05
6.14358e-05
4.62075e-05
6.15996e-05
6.91888e-05
6.91903e-05
4.62092e-05
6.14333e-05
6.13745e-05
4.61956e-05
6.16017e-05
6.91797e-05
4.61973e-05
6.91813e-05
6.13721e-05
6.14332e-05
6.91904e-05
6.15986e-05
4.62093e-05
6.91888e-05
4.62073e-05
6.14357e-05
6.1372e-05
6.91813e-05
6.16002e-05
4.61974e-05
4.61954e-05
6.91797e-05
6.13744e-05
8.86353e-05
7.19382e-05
7.19435e-05
7.19446e-05
7.195e-05
8.86323e-05
6.91433e-05
6.9138e-05
6.91373e-05
6.91428e-05
8.86352e-05
7.19381e-05
7.19435e-05
8.86323e-05
7.19446e-05
7.19499e-05
6.14336e-05
4.62095e-05
6.15987e-05
6.91904e-05
4.62075e-05
6.91888e-05
6.14359e-05
6.13724e-05
4.61976e-05
6.16003e-05
6.91813e-05
6.91797e-05
4.61955e-05
6.13746e-05
6.14359e-05
6.91888e-05
4.62072e-05
6.15997e-05
4.62092e-05
6.14334e-05
6.91904e-05
6.13746e-05
6.91797e-05
4.61953e-05
6.16017e-05
6.13722e-05
6.91813e-05
4.61973e-05
8.86323e-05
7.19446e-05
7.19499e-05
7.19381e-05
7.19435e-05
8.86352e-05
6.9138e-05
6.91433e-05
6.97212e-05
6.92882e-05
6.24652e-05
5.77282e-05
6.92865e-05
6.24602e-05
6.97237e-05
7.03097e-05
6.99554e-05
7.47284e-05
7.47344e-05
7.03015e-05
7.03015e-05
7.47347e-05
6.99541e-05
7.47285e-05
7.03097e-05
6.97237e-05
5.77316e-05
6.92866e-05
6.24602e-05
6.92882e-05
6.2465e-05
6.97212e-05
6.97251e-05
6.24645e-05
6.9287e-05
5.77329e-05
6.97227e-05
6.24695e-05
6.92887e-05
7.03037e-05
6.99585e-05
7.47551e-05
7.03119e-05
7.47489e-05
7.03119e-05
7.47487e-05
6.99597e-05
7.03037e-05
7.4755e-05
6.97227e-05
5.77295e-05
6.24698e-05
6.92887e-05
6.97251e-05
6.24647e-05
6.9287e-05
6.97237e-05
6.92865e-05
6.24603e-05
5.77319e-05
6.97212e-05
6.92882e-05
6.24653e-05
7.03015e-05
6.99542e-05
7.47352e-05
7.47291e-05
7.03098e-05
7.03097e-05
7.47288e-05
6.99554e-05
7.03015e-05
7.47349e-05
6.97212e-05
5.77284e-05
6.92882e-05
6.24656e-05
6.92866e-05
6.24605e-05
6.97237e-05
6.97202e-05
6.24655e-05
6.92872e-05
5.77282e-05
6.24611e-05
6.92855e-05
6.97228e-05
7.03103e-05
6.99578e-05
7.47436e-05
7.4749e-05
7.03014e-05
7.03014e-05
7.47492e-05
6.99565e-05
7.47437e-05
7.03103e-05
6.97228e-05
5.77313e-05
6.24611e-05
6.92855e-05
6.24653e-05
6.92872e-05
6.97202e-05
6.97208e-05
6.92876e-05
6.24658e-05
5.77289e-05
6.92859e-05
6.24608e-05
6.97232e-05
7.03096e-05
6.99547e-05
7.47274e-05
7.47336e-05
7.03014e-05
7.03014e-05
7.47337e-05
6.99535e-05
7.47275e-05
7.03096e-05
6.97232e-05
5.77323e-05
6.92859e-05
6.24608e-05
6.92876e-05
6.24656e-05
6.97208e-05
6.97229e-05
6.24612e-05
6.92855e-05
5.77316e-05
6.97202e-05
6.24656e-05
6.92872e-05
7.03014e-05
6.99566e-05
7.47493e-05
7.47439e-05
7.03103e-05
7.03103e-05
7.47438e-05
6.99578e-05
7.03014e-05
7.47492e-05
6.97202e-05
5.77285e-05
6.24657e-05
6.92873e-05
6.24613e-05
6.92855e-05
6.97228e-05
6.97233e-05
6.92859e-05
6.24609e-05
5.77326e-05
6.97208e-05
6.92876e-05
6.24659e-05
7.03014e-05
6.99535e-05
7.4734e-05
7.47277e-05
7.03097e-05
7.03097e-05
7.47276e-05
6.99548e-05
7.03014e-05
7.47338e-05
6.97208e-05
5.77292e-05
6.92876e-05
6.24661e-05
6.9286e-05
6.24611e-05
6.97233e-05
8.86293e-05
7.19442e-05
7.19496e-05
7.19379e-05
7.19432e-05
8.86321e-05
6.14366e-05
4.62101e-05
6.16046e-05
6.91897e-05
6.91912e-05
4.62121e-05
6.14342e-05
6.13736e-05
4.61951e-05
6.16e-05
6.9179e-05
4.61969e-05
6.91805e-05
6.13711e-05
6.14341e-05
6.91913e-05
6.16032e-05
4.62123e-05
6.91897e-05
4.621e-05
6.14366e-05
6.1371e-05
6.91805e-05
6.15986e-05
4.6197e-05
4.61949e-05
6.9179e-05
6.13735e-05
8.86321e-05
7.19379e-05
7.19432e-05
7.19442e-05
7.19496e-05
8.86293e-05
6.91429e-05
6.91377e-05
6.91393e-05
6.91444e-05
8.86321e-05
7.19379e-05
7.19432e-05
8.86293e-05
7.19442e-05
7.19496e-05
6.14345e-05
4.62125e-05
6.16034e-05
6.91913e-05
4.62101e-05
6.91898e-05
6.14368e-05
6.13714e-05
4.61972e-05
6.15987e-05
6.91806e-05
6.9179e-05
4.61951e-05
6.13737e-05
6.14368e-05
6.91898e-05
4.62099e-05
6.16047e-05
4.62122e-05
6.14343e-05
6.91913e-05
6.13737e-05
6.9179e-05
4.61948e-05
6.16001e-05
6.13712e-05
6.91805e-05
4.61969e-05
8.86292e-05
7.19442e-05
7.19495e-05
7.19379e-05
7.19432e-05
8.8632e-05
6.91377e-05
6.91429e-05
6.97218e-05
6.24696e-05
6.92871e-05
5.77278e-05
6.24645e-05
6.92853e-05
6.97242e-05
7.03116e-05
6.99585e-05
7.47468e-05
7.47529e-05
7.03034e-05
7.03034e-05
7.4753e-05
6.99573e-05
7.47468e-05
7.03116e-05
6.97242e-05
5.77309e-05
6.24645e-05
6.92854e-05
6.24694e-05
6.92871e-05
6.97218e-05
6.97198e-05
6.24628e-05
6.9286e-05
5.7725e-05
6.24581e-05
6.92842e-05
6.97224e-05
7.03102e-05
6.99559e-05
7.47291e-05
7.47352e-05
7.03019e-05
7.03019e-05
7.47353e-05
6.99547e-05
7.47292e-05
7.03102e-05
6.97224e-05
5.77278e-05
6.24581e-05
6.92842e-05
6.24627e-05
6.9286e-05
6.97199e-05
6.97242e-05
6.24646e-05
6.92853e-05
5.77312e-05
6.97218e-05
6.24697e-05
6.92871e-05
7.03034e-05
6.99574e-05
7.47532e-05
7.47471e-05
7.03116e-05
7.03116e-05
7.47469e-05
6.99586e-05
7.03034e-05
7.47531e-05
6.97218e-05
5.7728e-05
6.24699e-05
6.92871e-05
6.24648e-05
6.92853e-05
6.97242e-05
6.97224e-05
6.24582e-05
6.92842e-05
5.77281e-05
6.97198e-05
6.24629e-05
6.92859e-05
7.03019e-05
6.99547e-05
7.47356e-05
7.47294e-05
7.03102e-05
7.03102e-05
7.47293e-05
6.9956e-05
7.03019e-05
7.47354e-05
6.97198e-05
5.77252e-05
6.24631e-05
6.92859e-05
6.24584e-05
6.92842e-05
6.97224e-05
6.91429e-05
6.91377e-05
6.9145e-05
6.91398e-05
8.86334e-05
7.19436e-05
7.19377e-05
8.86304e-05
7.19499e-05
7.1944e-05
6.13717e-05
4.61978e-05
6.15959e-05
6.91796e-05
6.13741e-05
4.61956e-05
6.9178e-05
6.14336e-05
4.62128e-05
6.16046e-05
6.91917e-05
6.1436e-05
4.62107e-05
6.91902e-05
6.13742e-05
6.9178e-05
4.61955e-05
6.15973e-05
6.13716e-05
4.61976e-05
6.91796e-05
6.14361e-05
6.91902e-05
4.62104e-05
6.1606e-05
6.14334e-05
4.62126e-05
6.91917e-05
8.86304e-05
7.19499e-05
7.19439e-05
8.86334e-05
7.19435e-05
7.19376e-05
6.91377e-05
6.91429e-05
6.91398e-05
6.9145e-05
6.91426e-05
6.91451e-05
6.13747e-05
4.61948e-05
6.91791e-05
6.16001e-05
6.13726e-05
6.91807e-05
4.61964e-05
6.14353e-05
4.62094e-05
6.91911e-05
6.16096e-05
6.1433e-05
6.91926e-05
4.62112e-05
8.86373e-05
7.19441e-05
7.1938e-05
8.86343e-05
7.19505e-05
7.19444e-05
7.03108e-05
7.47325e-05
6.99543e-05
7.03026e-05
7.47388e-05
6.97241e-05
5.77326e-05
6.92867e-05
6.24618e-05
6.92883e-05
6.97217e-05
6.24669e-05
6.14359e-05
4.62074e-05
6.91889e-05
6.15998e-05
6.91904e-05
6.14336e-05
4.62092e-05
6.13745e-05
4.61955e-05
6.91798e-05
6.16019e-05
4.61973e-05
6.13724e-05
6.91814e-05
8.86352e-05
7.19381e-05
7.19434e-05
7.19446e-05
8.86323e-05
7.19499e-05
7.03098e-05
7.47292e-05
6.99555e-05
7.03015e-05
7.47354e-05
6.97237e-05
5.77322e-05
6.92866e-05
6.24606e-05
6.92882e-05
6.97212e-05
6.24657e-05
6.97201e-05
5.77288e-05
6.92872e-05
6.24615e-05
6.92855e-05
7.03103e-05
7.47439e-05
6.99579e-05
7.47493e-05
7.03014e-05
6.97228e-05
5.77318e-05
6.24614e-05
6.92855e-05
6.24658e-05
6.97202e-05
6.92873e-05
7.03013e-05
6.97208e-05
5.77296e-05
6.92876e-05
6.24663e-05
6.92859e-05
6.24614e-05
6.97232e-05
7.03096e-05
7.47278e-05
6.99549e-05
7.03014e-05
7.4734e-05
6.97233e-05
5.77329e-05
6.92859e-05
6.24612e-05
6.97208e-05
6.92876e-05
6.24662e-05
7.03014e-05
7.47341e-05
6.99536e-05
7.47279e-05
7.03096e-05
6.1437e-05
4.62101e-05
6.91898e-05
6.16049e-05
6.91913e-05
6.14345e-05
4.62124e-05
6.13739e-05
4.6195e-05
6.9179e-05
6.16003e-05
4.61972e-05
6.13713e-05
6.91806e-05
8.86321e-05
7.19379e-05
7.19432e-05
7.19442e-05
8.86292e-05
7.19495e-05
6.91429e-05
6.97218e-05
5.77284e-05
6.24702e-05
6.9287e-05
6.24651e-05
6.92853e-05
6.97242e-05
7.03116e-05
7.47472e-05
6.99587e-05
7.47533e-05
7.03034e-05
6.97242e-05
5.77314e-05
6.24649e-05
6.92853e-05
6.247e-05
6.97218e-05
6.9287e-05
7.03034e-05
7.47535e-05
7.47473e-05
7.03116e-05
6.97198e-05
5.77255e-05
6.24634e-05
6.92859e-05
6.24587e-05
6.92841e-05
6.97223e-05
7.03102e-05
7.47295e-05
6.9956e-05
7.03019e-05
7.47356e-05
6.97224e-05
5.77283e-05
6.24585e-05
6.92841e-05
6.97198e-05
6.24632e-05
6.92859e-05
7.03019e-05
7.47358e-05
6.99548e-05
7.47296e-05
7.03102e-05
6.91429e-05
6.91377e-05
6.91449e-05
6.91398e-05
1.22142e-05
1.22143e-05
1.30778e-05
1.22142e-05
1.22142e-05
1.19892e-05
1.19892e-05
4.53483e-05
3.26442e-05
3.26506e-05
2.30367e-05
3.26283e-05
3.26347e-05
4.53523e-05
1.22142e-05
1.22141e-05
1.19892e-05
1.19891e-05
4.53486e-05
3.26447e-05
3.2651e-05
2.30462e-05
4.53529e-05
3.26287e-05
3.26352e-05
4.53479e-05
3.26429e-05
3.26491e-05
2.30414e-05
3.26274e-05
3.26334e-05
4.53519e-05
4.53515e-05
2.30656e-05
3.26275e-05
3.26336e-05
3.26426e-05
3.26488e-05
4.5348e-05
4.53482e-05
3.26473e-05
3.26436e-05
2.3039e-05
3.26279e-05
3.26315e-05
4.53525e-05
4.53521e-05
2.30662e-05
3.26318e-05
3.2628e-05
3.26471e-05
3.26433e-05
4.53484e-05
4.53489e-05
3.26496e-05
3.26448e-05
2.30423e-05
3.26291e-05
3.2634e-05
4.5353e-05
4.53527e-05
2.30682e-05
3.26342e-05
3.26293e-05
3.26494e-05
3.26445e-05
4.53492e-05
4.53532e-05
2.30766e-05
3.26292e-05
3.26357e-05
4.53494e-05
3.26444e-05
3.26509e-05
4.53518e-05
3.26428e-05
3.26489e-05
2.30388e-05
4.53522e-05
3.26275e-05
3.26336e-05
4.53518e-05
3.26472e-05
3.26434e-05
2.30374e-05
3.2628e-05
4.53526e-05
3.26318e-05
4.53495e-05
3.26494e-05
3.26445e-05
2.30395e-05
3.26293e-05
4.53533e-05
3.26342e-05
1.22141e-05
1.22142e-05
1.30776e-05
1.22141e-05
1.22142e-05
1.19892e-05
1.19892e-05
1.22145e-05
1.22145e-05
1.30785e-05
1.22145e-05
1.22145e-05
1.19892e-05
1.19893e-05
1.22145e-05
1.22146e-05
1.30787e-05
1.22145e-05
1.22146e-05
1.19893e-05
1.19893e-05
1.30778e-05
1.22142e-05
1.22142e-05
1.22142e-05
1.22142e-05
1.19892e-05
1.19892e-05
1.30776e-05
1.22141e-05
1.22141e-05
1.22141e-05
1.22141e-05
1.19892e-05
1.19891e-05
1.30785e-05
1.22144e-05
1.22145e-05
1.22144e-05
1.22145e-05
1.19892e-05
1.19892e-05
1.30787e-05
1.22145e-05
1.22145e-05
1.22145e-05
1.22145e-05
1.19893e-05
1.19892e-05
2.57348e-05
4.12664e-05
2.35216e-05
3.77667e-05
4.12718e-05
2.35418e-05
2.57038e-05
2.95196e-05
3.57171e-05
5.06271e-05
4.64383e-05
3.57046e-05
4.64316e-05
2.95466e-05
2.95454e-05
4.64311e-05
5.06275e-05
3.57048e-05
3.57169e-05
4.6437e-05
2.95184e-05
2.57038e-05
3.77613e-05
4.1273e-05
2.3542e-05
4.12661e-05
2.35214e-05
2.57347e-05
2.57374e-05
2.35233e-05
4.12696e-05
3.77681e-05
2.35435e-05
4.12758e-05
2.57063e-05
2.95217e-05
3.57181e-05
5.0627e-05
4.64397e-05
3.57057e-05
4.64335e-05
2.95486e-05
2.95475e-05
4.64328e-05
5.06267e-05
3.57059e-05
3.57178e-05
4.64385e-05
2.95207e-05
2.57065e-05
3.77629e-05
2.35437e-05
4.1277e-05
2.35231e-05
4.12707e-05
2.57373e-05
4.53523e-05
2.30691e-05
3.26286e-05
3.2635e-05
3.26439e-05
3.26503e-05
4.53486e-05
1.22141e-05
1.22141e-05
1.22141e-05
1.19891e-05
1.19891e-05
1.22144e-05
1.22145e-05
1.22145e-05
1.19892e-05
1.19892e-05
1.22145e-05
1.22145e-05
1.30782e-05
1.22145e-05
1.22146e-05
1.19892e-05
1.19892e-05
2.57347e-05
3.77671e-05
4.12721e-05
2.35217e-05
4.12708e-05
2.3542e-05
2.57034e-05
2.95197e-05
3.57172e-05
4.64391e-05
5.06272e-05
2.9547e-05
3.57046e-05
4.64336e-05
2.5704e-05
3.77616e-05
4.12736e-05
2.3542e-05
2.57348e-05
4.12667e-05
2.35214e-05
2.57375e-05
3.7768e-05
2.35234e-05
4.12752e-05
2.35436e-05
4.12736e-05
2.57063e-05
2.95222e-05
3.57181e-05
4.64406e-05
5.0627e-05
2.95492e-05
3.57059e-05
4.64339e-05
2.57065e-05
3.77631e-05
2.35437e-05
4.12776e-05
2.57374e-05
2.35232e-05
4.12709e-05
2.95478e-05
4.64358e-05
4.64367e-05
2.95207e-05
4.53519e-05
2.308e-05
3.26285e-05
3.26348e-05
3.26442e-05
3.26506e-05
4.5352e-05
4.53514e-05
2.30785e-05
3.26274e-05
3.26334e-05
4.53473e-05
3.26427e-05
3.26488e-05
4.53473e-05
2.30326e-05
3.26423e-05
3.26485e-05
4.53511e-05
3.26271e-05
3.26331e-05
2.57364e-05
4.12699e-05
2.35224e-05
3.77685e-05
4.12757e-05
2.35427e-05
2.57052e-05
2.9521e-05
3.5718e-05
5.06271e-05
4.6441e-05
4.64339e-05
3.57057e-05
2.95485e-05
2.9547e-05
4.64334e-05
5.06272e-05
3.57059e-05
4.64392e-05
3.57178e-05
2.95202e-05
2.57053e-05
3.77629e-05
4.12763e-05
2.35428e-05
4.12699e-05
2.35222e-05
2.57362e-05
2.57347e-05
4.1267e-05
2.35218e-05
3.77675e-05
4.12726e-05
2.3542e-05
2.57033e-05
2.95192e-05
3.57205e-05
5.06239e-05
4.64339e-05
4.64276e-05
3.5708e-05
2.95464e-05
2.95453e-05
4.64272e-05
5.06254e-05
3.57082e-05
4.64329e-05
2.9518e-05
3.57202e-05
2.57035e-05
3.77619e-05
4.12727e-05
2.35421e-05
4.12668e-05
2.35215e-05
2.57345e-05
2.57055e-05
4.12763e-05
2.35425e-05
3.77645e-05
2.57363e-05
4.12709e-05
2.35222e-05
2.95492e-05
3.5706e-05
5.06268e-05
4.64378e-05
3.57179e-05
4.64433e-05
2.95228e-05
2.95217e-05
4.64404e-05
3.57177e-05
5.0627e-05
3.57058e-05
2.95474e-05
4.6436e-05
2.57362e-05
3.77695e-05
4.12721e-05
2.35224e-05
4.12774e-05
2.35426e-05
2.57054e-05
2.57037e-05
4.1273e-05
2.35419e-05
3.77635e-05
2.57345e-05
4.12677e-05
2.35216e-05
2.95467e-05
3.57082e-05
5.06251e-05
4.64303e-05
4.64355e-05
3.57203e-05
2.95203e-05
2.95188e-05
4.64334e-05
3.57201e-05
5.06247e-05
2.95449e-05
4.64288e-05
3.57081e-05
2.57345e-05
3.77684e-05
4.12686e-05
2.35217e-05
4.12738e-05
2.3542e-05
2.57036e-05
4.53517e-05
2.30772e-05
3.26316e-05
3.2628e-05
3.26434e-05
3.26472e-05
4.53472e-05
4.53475e-05
2.30339e-05
3.26469e-05
3.26431e-05
3.26314e-05
4.53512e-05
3.26277e-05
2.57367e-05
4.12694e-05
2.35229e-05
3.77685e-05
4.12752e-05
2.35432e-05
2.57053e-05
2.95217e-05
3.57225e-05
5.06293e-05
4.64414e-05
4.64344e-05
3.57102e-05
2.95494e-05
2.95477e-05
4.6433e-05
5.06291e-05
3.57103e-05
4.64392e-05
3.57223e-05
2.95205e-05
2.57055e-05
3.77625e-05
4.12758e-05
2.35432e-05
4.12694e-05
2.35225e-05
2.57366e-05
2.57364e-05
2.35228e-05
4.12677e-05
3.77678e-05
2.3543e-05
4.12731e-05
2.57052e-05
2.95225e-05
3.57241e-05
5.06278e-05
4.64356e-05
4.64294e-05
3.5712e-05
2.95495e-05
2.95482e-05
4.64289e-05
5.06277e-05
3.57122e-05
4.64344e-05
2.95215e-05
3.57239e-05
2.57054e-05
3.77619e-05
2.35431e-05
4.12732e-05
2.35224e-05
4.12673e-05
2.57362e-05
2.57056e-05
4.12756e-05
2.3543e-05
3.77649e-05
2.57366e-05
4.12702e-05
2.35226e-05
2.95495e-05
3.57105e-05
5.0629e-05
4.64377e-05
3.57224e-05
4.64424e-05
2.95231e-05
2.95215e-05
4.64393e-05
3.57221e-05
5.06293e-05
3.57102e-05
2.95475e-05
4.6435e-05
2.57365e-05
3.77697e-05
4.1271e-05
2.35227e-05
4.12767e-05
2.3543e-05
2.57056e-05
2.57056e-05
2.35429e-05
4.12737e-05
3.77643e-05
2.57363e-05
2.35226e-05
4.12683e-05
2.95497e-05
3.57123e-05
5.06275e-05
4.6431e-05
4.64361e-05
3.5724e-05
2.95235e-05
2.95224e-05
4.64346e-05
3.57238e-05
5.06278e-05
2.95481e-05
4.64299e-05
3.5712e-05
2.57362e-05
3.7769e-05
2.35226e-05
4.12684e-05
2.3543e-05
4.12741e-05
2.57054e-05
2.57364e-05
2.35225e-05
4.12676e-05
3.7768e-05
2.35427e-05
4.12734e-05
2.57053e-05
2.9521e-05
3.5719e-05
5.06262e-05
4.64348e-05
3.57067e-05
4.6428e-05
2.95482e-05
2.95468e-05
4.64276e-05
5.06262e-05
3.57069e-05
3.57188e-05
4.64334e-05
2.952e-05
2.57055e-05
3.77626e-05
2.35428e-05
4.12738e-05
2.35223e-05
4.12676e-05
2.57363e-05
2.5704e-05
4.12734e-05
2.35417e-05
3.77631e-05
2.57348e-05
4.12685e-05
2.35214e-05
2.95469e-05
3.57049e-05
5.06267e-05
4.6434e-05
2.95205e-05
3.57169e-05
4.64397e-05
2.95194e-05
4.64377e-05
3.57167e-05
5.06269e-05
2.95453e-05
3.57047e-05
4.64328e-05
2.57347e-05
3.77682e-05
4.12686e-05
2.35215e-05
2.57038e-05
4.12749e-05
2.35418e-05
2.57056e-05
2.35425e-05
4.12737e-05
3.77637e-05
2.57363e-05
2.35223e-05
4.12683e-05
2.95485e-05
3.57069e-05
5.06257e-05
4.64309e-05
4.64364e-05
3.57188e-05
2.95222e-05
2.95211e-05
4.64342e-05
3.57186e-05
5.06259e-05
2.95468e-05
4.64294e-05
3.57068e-05
2.57362e-05
3.77686e-05
2.35224e-05
4.12688e-05
2.35427e-05
4.12746e-05
2.57054e-05
4.53523e-05
2.30801e-05
3.26341e-05
3.26292e-05
3.26446e-05
3.26494e-05
4.53481e-05
4.53484e-05
2.30358e-05
3.26491e-05
3.26443e-05
3.26338e-05
4.5352e-05
3.26289e-05
2.57365e-05
2.35226e-05
4.12663e-05
3.77664e-05
2.35429e-05
4.12721e-05
2.57052e-05
2.9522e-05
3.57237e-05
5.06284e-05
4.64353e-05
3.57113e-05
4.6429e-05
2.95489e-05
2.95479e-05
4.64286e-05
5.06282e-05
3.57115e-05
3.57235e-05
4.64343e-05
2.9521e-05
2.57054e-05
3.77609e-05
2.3543e-05
4.12724e-05
2.35224e-05
4.12662e-05
2.57364e-05
2.57066e-05
2.35434e-05
4.12755e-05
3.77638e-05
2.57373e-05
2.35231e-05
4.12705e-05
2.9549e-05
3.5706e-05
5.06266e-05
4.64355e-05
2.95227e-05
3.57179e-05
4.64406e-05
2.95216e-05
4.64387e-05
3.57176e-05
5.06267e-05
2.95473e-05
3.57057e-05
4.64341e-05
2.57372e-05
3.77691e-05
2.35233e-05
4.12721e-05
2.57065e-05
2.35435e-05
4.12773e-05
2.57055e-05
2.35427e-05
4.12724e-05
3.77621e-05
2.57363e-05
2.35224e-05
4.12667e-05
2.95491e-05
3.57117e-05
5.06281e-05
4.64311e-05
4.64363e-05
3.57236e-05
2.95229e-05
2.95216e-05
4.64346e-05
3.57233e-05
5.06283e-05
2.95475e-05
4.64297e-05
3.57114e-05
2.57362e-05
3.77671e-05
2.35225e-05
4.12672e-05
2.35428e-05
4.1273e-05
2.57054e-05
4.53493e-05
2.30366e-05
3.26439e-05
3.26504e-05
4.53529e-05
3.26288e-05
3.26352e-05
2.95219e-05
3.57178e-05
4.64425e-05
5.06269e-05
4.64367e-05
2.95493e-05
3.57056e-05
2.57054e-05
3.77674e-05
4.12749e-05
2.35425e-05
4.1275e-05
2.57364e-05
2.35222e-05
2.95198e-05
3.57202e-05
4.64347e-05
5.06245e-05
2.95471e-05
4.643e-05
3.5708e-05
2.57037e-05
3.77663e-05
4.12712e-05
2.35418e-05
2.57347e-05
4.12719e-05
2.35216e-05
2.95228e-05
3.57223e-05
4.64435e-05
5.06293e-05
4.64365e-05
2.955e-05
3.57102e-05
2.57057e-05
3.7763e-05
4.12769e-05
2.35428e-05
4.12707e-05
2.57367e-05
2.35226e-05
2.95231e-05
3.57239e-05
4.64362e-05
5.06279e-05
2.95499e-05
4.643e-05
3.57121e-05
2.57057e-05
3.77621e-05
2.35428e-05
4.12737e-05
2.57364e-05
2.35226e-05
4.12679e-05
2.57364e-05
3.77685e-05
2.35225e-05
4.12727e-05
2.35429e-05
4.1272e-05
2.57052e-05
2.95215e-05
3.57186e-05
4.64362e-05
5.06259e-05
3.57067e-05
2.95485e-05
4.64292e-05
2.57056e-05
3.77629e-05
2.35425e-05
4.12747e-05
2.35223e-05
2.57364e-05
4.12684e-05
2.9547e-05
4.64301e-05
5.0626e-05
3.57065e-05
3.57188e-05
4.64325e-05
2.95199e-05
2.57366e-05
3.77668e-05
2.35227e-05
4.12712e-05
2.3543e-05
4.12707e-05
2.57053e-05
2.95224e-05
3.57235e-05
4.64366e-05
5.06285e-05
3.57116e-05
2.95494e-05
4.64299e-05
2.57055e-05
3.77612e-05
2.35427e-05
4.1273e-05
2.35225e-05
2.57364e-05
4.12668e-05
2.95482e-05
4.6431e-05
5.06285e-05
3.57118e-05
3.57238e-05
4.64337e-05
2.95211e-05
1.82554e-05
2.30382e-05
1.82528e-05
6.99541e-05
5.06193e-05
6.91431e-05
6.15968e-05
6.15931e-05
6.91413e-05
5.06178e-05
6.99561e-05
7.03029e-05
6.99529e-05
7.47371e-05
7.47308e-05
7.0311e-05
6.91377e-05
6.14286e-05
4.62031e-05
6.15957e-05
6.91898e-05
4.6201e-05
6.91883e-05
6.14312e-05
6.13676e-05
4.6189e-05
6.1592e-05
6.91792e-05
6.91776e-05
4.6187e-05
6.13699e-05
8.86304e-05
7.19446e-05
7.19497e-05
7.19384e-05
7.19434e-05
8.86333e-05
6.91359e-05
7.03015e-05
6.99548e-05
7.47478e-05
7.47424e-05
7.03104e-05
4.53534e-05
2.3077e-05
3.26244e-05
3.26197e-05
3.26432e-05
3.26384e-05
4.53483e-05
2.95445e-05
3.57014e-05
5.06204e-05
4.64291e-05
4.64359e-05
3.57148e-05
2.9514e-05
2.9542e-05
3.56948e-05
5.0619e-05
4.64316e-05
3.57082e-05
4.64392e-05
2.95117e-05
1.30777e-05
1.82529e-05
1.82555e-05
2.30727e-05
1.30779e-05
1.82541e-05
1.82567e-05
2.30777e-05
1.30781e-05
1.82552e-05
1.82578e-05
2.30751e-05
1.30781e-05
1.82555e-05
1.8258e-05
2.30684e-05
1.30771e-05
1.82548e-05
1.82575e-05
2.30639e-05
1.30767e-05
1.82542e-05
1.82569e-05
2.30655e-05
1.30767e-05
1.82543e-05
1.8257e-05
2.30717e-05
1.30768e-05
1.82547e-05
1.82574e-05
2.30785e-05
1.3077e-05
1.82553e-05
1.82579e-05
2.30794e-05
1.30772e-05
1.82559e-05
1.82585e-05
2.30769e-05
1.30773e-05
1.82561e-05
1.82587e-05
2.30696e-05
1.30774e-05
1.82563e-05
1.82588e-05
2.30689e-05
1.30775e-05
1.82565e-05
1.8259e-05
2.30708e-05
1.30776e-05
1.82565e-05
1.8259e-05
2.30707e-05
1.30776e-05
1.82567e-05
1.8259e-05
2.30759e-05
1.30777e-05
1.8257e-05
1.8259e-05
2.30794e-05
1.30778e-05
1.82571e-05
1.82591e-05
2.30804e-05
1.30778e-05
1.82573e-05
1.82593e-05
2.30807e-05
1.30779e-05
1.82574e-05
1.82595e-05
2.30762e-05
1.30779e-05
1.82574e-05
1.82595e-05
2.30697e-05
1.3078e-05
1.82574e-05
1.82595e-05
2.30711e-05
1.3078e-05
1.82574e-05
1.82594e-05
2.30741e-05
1.3078e-05
1.82574e-05
1.82594e-05
2.30811e-05
1.3078e-05
1.82575e-05