/*--------------------------------*- C++ -*----------------------------------*\
| =========                 |                                                 |
| \\      /  F ield         | OpenFOAM: The Open Source CFD Toolbox           |
|  \\    /   O peration     | Version:  2312                                  |
|   \\  /    A nd           | Website:  www.openfoam.com                      |
|    \\/     M anipulation  |                                                 |
\*---------------------------------------------------------------------------*/
FoamFile
{
    version     2.0;
    format      ascii;
    arch        "LSB;label=32;scalar=64";
    class       volScalarField;
    location    "125";
    object      nut;
}
// * * * * * * * * * * * * * * * * * * * * * * * * * * * * * * * * * * * * * //

dimensions      [0 2 -1 0 0 0 0];

internalField   nonuniform List<scalar> 
43120
(
0.000150128
0.0001017
0.000101697
8.25718e-05
0.000146055
9.88891e-05
9.88874e-05
8.2092e-05
0.000142058
9.66056e-05
9.66047e-05
8.21815e-05
0.00013816
9.49138e-05
9.49129e-05
8.28174e-05
0.00013479
9.40086e-05
9.40085e-05
8.40588e-05
0.000131479
9.37661e-05
9.37694e-05
8.59986e-05
0.000129921
9.5033e-05
9.50336e-05
8.85467e-05
0.000129184
9.61018e-05
9.61033e-05
9.01727e-05
0.000126866
9.57003e-05
9.57038e-05
9.04709e-05
0.000124983
9.53376e-05
9.53431e-05
9.03275e-05
0.000124486
9.53783e-05
9.53861e-05
9.04743e-05
0.000124538
9.56279e-05
9.56359e-05
9.06264e-05
0.000124662
9.57456e-05
9.57532e-05
9.07245e-05
0.000124708
9.57792e-05
9.57873e-05
9.07422e-05
0.000124721
9.57896e-05
9.57976e-05
9.07354e-05
0.000124726
9.57953e-05
9.58025e-05
9.07458e-05
0.000124727
9.57946e-05
9.58019e-05
9.07465e-05
0.000124728
9.57939e-05
9.58008e-05
9.07305e-05
0.000124727
9.57935e-05
9.58009e-05
9.07382e-05
0.000124728
9.57939e-05
9.58022e-05
9.07657e-05
0.000124729
9.57937e-05
9.58021e-05
9.07517e-05
0.00012473
9.57942e-05
9.58023e-05
9.07522e-05
0.00012473
9.57942e-05
9.58022e-05
9.07525e-05
0.000124732
9.57953e-05
9.58036e-05
9.07778e-05
0.000124733
9.57946e-05
9.58018e-05
9.07012e-05
0.000124731
9.57919e-05
9.58001e-05
9.06868e-05
9.58011e-05
8.28565e-05
0.000102454
0.00010244
8.28534e-05
0.000102475
0.00010244
0.000102481
0.000102456
8.28498e-05
0.00010248
0.000102468
8.28459e-05
8.25812e-05
8.22578e-05
0.000101672
0.000101658
9.95036e-05
9.94914e-05
8.25786e-05
8.22553e-05
0.000101693
0.000101659
9.95242e-05
9.94919e-05
0.000101675
9.95309e-05
9.95072e-05
8.2575e-05
8.2252e-05
0.000101686
9.95302e-05
9.95183e-05
8.22485e-05
8.21003e-05
8.22403e-05
9.88612e-05
9.88495e-05
9.71138e-05
9.71035e-05
8.20982e-05
8.2238e-05
9.88817e-05
9.88497e-05
9.71339e-05
9.71031e-05
9.88652e-05
9.71408e-05
9.71188e-05
8.20949e-05
8.2235e-05
9.88759e-05
9.71402e-05
9.71286e-05
8.22322e-05
8.21887e-05
8.27479e-05
9.65781e-05
9.65683e-05
9.52247e-05
9.52156e-05
8.21868e-05
8.27459e-05
9.65982e-05
9.65685e-05
9.5244e-05
9.52149e-05
9.65834e-05
9.52502e-05
9.52307e-05
8.21838e-05
8.27433e-05
9.65929e-05
9.52497e-05
9.52396e-05
8.27413e-05
8.28233e-05
8.38826e-05
9.4888e-05
9.48793e-05
9.4163e-05
9.41554e-05
8.28212e-05
8.38815e-05
9.49073e-05
9.48786e-05
9.41817e-05
9.41558e-05
9.48945e-05
9.41891e-05
9.41698e-05
8.28187e-05
8.38788e-05
9.49028e-05
9.41895e-05
9.41778e-05
8.38768e-05
8.4064e-05
8.5655e-05
9.39834e-05
9.39758e-05
9.36927e-05
9.36855e-05
8.40631e-05
8.56517e-05
9.40015e-05
9.39761e-05
9.37103e-05
9.36866e-05
9.39901e-05
9.37155e-05
9.37007e-05
8.40606e-05
8.56515e-05
9.39978e-05
9.37178e-05
9.37072e-05
8.56491e-05
8.6004e-05
8.81203e-05
9.37435e-05
9.37367e-05
9.45789e-05
9.4573e-05
8.60011e-05
8.81198e-05
9.37612e-05
9.37387e-05
9.45958e-05
9.45751e-05
9.3752e-05
9.46028e-05
9.45876e-05
8.60009e-05
8.81186e-05
9.37587e-05
9.46049e-05
9.4594e-05
8.81174e-05
8.85491e-05
9.0012e-05
9.50086e-05
9.50028e-05
9.59705e-05
9.59643e-05
8.85494e-05
9.00104e-05
9.50248e-05
9.50038e-05
9.59852e-05
9.5964e-05
9.50173e-05
9.5993e-05
9.59795e-05
8.85472e-05
9.00093e-05
9.50226e-05
9.59943e-05
9.59832e-05
9.00086e-05
9.01759e-05
9.0487e-05
9.60798e-05
9.60735e-05
9.59311e-05
9.5925e-05
9.01742e-05
9.04846e-05
9.60946e-05
9.60731e-05
9.59466e-05
9.59249e-05
9.6089e-05
9.59537e-05
9.5941e-05
9.01735e-05
9.04856e-05
9.60924e-05
9.59557e-05
9.59435e-05
9.04834e-05
9.04747e-05
9.03629e-05
9.56774e-05
9.56716e-05
9.53685e-05
9.53635e-05
9.04721e-05
9.03613e-05
9.5693e-05
9.56731e-05
9.53843e-05
9.53668e-05
9.56882e-05
9.53902e-05
9.53807e-05
9.04738e-05
9.03657e-05
9.56907e-05
9.53963e-05
9.53835e-05
9.03622e-05
9.0328e-05
9.04563e-05
9.53169e-05
9.53115e-05
9.52749e-05
9.52701e-05
9.03265e-05
9.0454e-05
9.53322e-05
9.53148e-05
9.52905e-05
9.52746e-05
9.53288e-05
9.52956e-05
9.52881e-05
9.03307e-05
9.0459e-05
9.53316e-05
9.53035e-05
9.52915e-05
9.04569e-05
9.0473e-05
9.06239e-05
9.53572e-05
9.53523e-05
9.55578e-05
9.55531e-05
9.04707e-05
9.06212e-05
9.53728e-05
9.53571e-05
9.55736e-05
9.55578e-05
9.53703e-05
9.55786e-05
9.55704e-05
9.04756e-05
9.06263e-05
9.53737e-05
9.55867e-05
9.55739e-05
9.06228e-05
9.06265e-05
9.07339e-05
9.56062e-05
9.5602e-05
9.5705e-05
9.57006e-05
9.0624e-05
9.07316e-05
9.56224e-05
9.56066e-05
9.5721e-05
9.5705e-05
9.56192e-05
9.57262e-05
9.57177e-05
9.06288e-05
9.07362e-05
9.56225e-05
9.57339e-05
9.57208e-05
9.07324e-05
9.07257e-05
9.07596e-05
9.57237e-05
9.572e-05
9.57531e-05
9.57476e-05
9.07235e-05
9.07567e-05
9.57399e-05
9.57239e-05
9.57688e-05
9.57524e-05
9.57367e-05
9.57738e-05
9.57655e-05
9.07279e-05
9.07614e-05
9.57396e-05
9.57816e-05
9.57691e-05
9.07585e-05
9.07429e-05
9.07518e-05
9.5758e-05
9.57523e-05
9.57669e-05
9.57615e-05
9.074e-05
9.07481e-05
9.57742e-05
9.57576e-05
9.57827e-05
9.57665e-05
9.57709e-05
9.57882e-05
9.57795e-05
9.07447e-05
9.07534e-05
9.57744e-05
9.57962e-05
9.57831e-05
9.07508e-05
9.07361e-05
9.07626e-05
9.57687e-05
9.5764e-05
9.57728e-05
9.57687e-05
9.07326e-05
9.07602e-05
9.57848e-05
9.57687e-05
9.57889e-05
9.57733e-05
9.57816e-05
9.57946e-05
9.57857e-05
9.07377e-05
9.07654e-05
9.5785e-05
9.5802e-05
9.57893e-05
9.07617e-05
9.07464e-05
9.07605e-05
9.57738e-05
9.57702e-05
9.57734e-05
9.57698e-05
9.07443e-05
9.07583e-05
9.579e-05
9.57738e-05
9.57895e-05
9.57732e-05
9.57868e-05
9.57947e-05
9.57862e-05
9.07493e-05
9.07607e-05
9.57897e-05
9.5802e-05
9.57892e-05
9.0759e-05
9.07478e-05
9.07471e-05
9.5773e-05
9.57695e-05
9.57722e-05
9.57686e-05
9.07456e-05
9.07454e-05
9.57891e-05
9.57726e-05
9.57882e-05
9.57718e-05
9.5786e-05
9.57937e-05
9.5785e-05
9.07482e-05
9.07509e-05
9.57889e-05
9.58008e-05
9.57881e-05
9.0746e-05
9.07317e-05
9.07668e-05
9.57722e-05
9.57686e-05
9.57722e-05
9.57684e-05
9.07302e-05
9.07637e-05
9.57882e-05
9.57718e-05
9.57882e-05
9.57721e-05
9.5785e-05
9.57938e-05
9.57851e-05
9.07327e-05
9.0778e-05
9.57881e-05
9.5801e-05
9.57881e-05
9.07662e-05
9.07386e-05
9.07796e-05
9.57719e-05
9.5768e-05
9.57723e-05
9.57684e-05
9.07355e-05
9.07784e-05
9.57879e-05
9.57717e-05
9.57884e-05
9.57725e-05
9.57849e-05
9.57939e-05
9.57862e-05
9.07525e-05
9.07724e-05
9.57879e-05
9.58017e-05
9.57895e-05
9.07797e-05
9.07644e-05
9.07644e-05
9.57726e-05
9.57685e-05
9.57736e-05
9.57681e-05
9.07627e-05
9.07605e-05
9.57887e-05
9.57727e-05
9.57892e-05
9.57727e-05
9.57863e-05
9.57937e-05
9.57867e-05
9.07703e-05
9.07331e-05
9.57896e-05
9.5802e-05
9.579e-05
9.07607e-05
9.07532e-05
9.07655e-05
9.57737e-05
9.5768e-05
9.57747e-05
9.57677e-05
9.07509e-05
9.07588e-05
9.57893e-05
9.5773e-05
9.57897e-05
9.57734e-05
9.57867e-05
9.5794e-05
9.57867e-05
9.07231e-05
9.0758e-05
9.57899e-05
9.58024e-05
9.579e-05
9.07595e-05
9.07592e-05
9.07583e-05
9.5775e-05
9.57676e-05
9.57755e-05
9.57674e-05
9.07513e-05
9.07603e-05
9.57898e-05
9.57735e-05
9.57898e-05
9.57738e-05
9.57869e-05
9.57945e-05
9.57869e-05
9.07313e-05
9.07799e-05
9.57901e-05
9.5803e-05
9.57901e-05
9.07604e-05
9.07538e-05
9.07535e-05
9.57759e-05
9.5767e-05
9.57771e-05
9.57679e-05
9.07532e-05
9.07566e-05
9.57897e-05
9.57736e-05
9.57903e-05
9.57742e-05
9.57866e-05
9.57947e-05
9.57874e-05
9.0756e-05
9.07647e-05
9.57899e-05
9.58029e-05
9.57905e-05
9.07601e-05
9.07687e-05
9.06928e-05
9.57777e-05
9.57683e-05
9.57769e-05
9.57657e-05
9.0774e-05
9.06872e-05
9.57907e-05
9.57744e-05
9.57893e-05
9.57724e-05
9.57877e-05
9.57932e-05
9.57861e-05
9.07752e-05
9.06915e-05
9.57908e-05
9.58009e-05
9.57891e-05
9.06902e-05
9.06921e-05
9.07494e-05
9.57782e-05
9.57663e-05
9.57775e-05
9.57641e-05
9.06916e-05
9.07422e-05
9.57903e-05
9.57731e-05
9.57889e-05
9.57728e-05
9.57871e-05
9.57926e-05
9.57851e-05
9.06842e-05
9.07702e-05
9.57902e-05
9.58011e-05
9.57882e-05
9.07393e-05
9.06945e-05
9.08491e-05
9.57771e-05
9.57634e-05
9.57793e-05
9.57647e-05
9.06875e-05
9.0844e-05
9.57883e-05
9.57719e-05
9.57903e-05
9.57732e-05
9.57845e-05
9.57932e-05
9.57862e-05
9.07119e-05
9.08503e-05
9.57876e-05
9.58019e-05
9.57893e-05
9.08439e-05
9.57727e-05
9.0816e-05
0.000151165
0.00015116
0.000151156
0.000151155
2.36358e-05
0.000104136
6.44797e-05
7.00605e-05
4.95557e-05
6.90837e-05
4.95652e-05
2.36273e-05
2.36237e-05
7.0058e-05
4.95503e-05
6.9082e-05
4.95598e-05
0.000150124
0.000150119
0.000150119
0.000147046
0.000147041
0.000147037
0.000147036
6.71041e-05
6.58007e-05
0.000126165
0.000100942
6.61425e-05
6.64548e-05
0.000125148
2.36264e-05
2.36229e-05
6.71051e-05
0.000126153
6.57914e-05
0.000100941
6.61432e-05
0.000125144
6.64676e-05
6.1069e-05
6.10682e-05
8.24739e-05
6.15098e-05
6.1508e-05
7.20763e-05
4.9576e-05
7.11923e-05
4.95845e-05
2.36149e-05
2.36116e-05
7.20734e-05
4.95706e-05
7.11904e-05
4.95791e-05
0.00014605
0.000146046
0.000146045
0.000143079
0.000143075
0.00014307
0.00014307
7.00401e-05
6.77034e-05
0.000122223
9.82821e-05
6.90342e-05
6.83464e-05
0.000121286
2.3614e-05
2.36108e-05
7.00408e-05
0.000122212
6.76916e-05
9.8281e-05
6.9035e-05
0.000121284
6.83584e-05
6.20236e-05
6.2022e-05
8.21742e-05
6.24363e-05
6.24348e-05
7.37911e-05
4.95957e-05
7.3072e-05
4.96002e-05
2.36036e-05
2.36003e-05
7.37882e-05
4.95903e-05
7.307e-05
4.95948e-05
0.000142055
0.00014205
0.00014205
0.000139071
0.000139067
0.000139062
0.000139063
7.3048e-05
6.94957e-05
0.000118565
9.61021e-05
7.20509e-05
7.01243e-05
0.000117647
2.36028e-05
2.35995e-05
7.30487e-05
0.000118553
6.94857e-05
9.61021e-05
7.20523e-05
0.000117644
7.01329e-05
6.28924e-05
6.28907e-05
8.24054e-05
6.32623e-05
6.32605e-05
7.54255e-05
4.96034e-05
7.47033e-05
4.96094e-05
2.3593e-05
2.35914e-05
7.54222e-05
4.9598e-05
7.4701e-05
4.9604e-05
0.000138156
0.000138151
0.000138152
0.000135633
0.00013563
0.000135626
0.000135625
7.61006e-05
7.12224e-05
0.000115218
9.46332e-05
7.50471e-05
7.18413e-05
0.000114482
2.35922e-05
2.35906e-05
7.61082e-05
0.000115207
7.12162e-05
9.46333e-05
7.50457e-05
0.000114479
7.18477e-05
6.3707e-05
6.37063e-05
8.32444e-05
6.40595e-05
6.40567e-05
7.67393e-05
4.96176e-05
7.62226e-05
4.96185e-05
2.35854e-05
2.35824e-05
7.67364e-05
4.96123e-05
7.62201e-05
4.96131e-05
0.000134786
0.000134782
0.000134782
0.000132219
0.000132215
0.000132211
0.000132212
7.92352e-05
7.28499e-05
0.000112536
9.38595e-05
7.8193e-05
7.34066e-05
0.000111916
2.35845e-05
2.35816e-05
7.92419e-05
0.000112527
7.2843e-05
9.38599e-05
7.81897e-05
0.000111912
7.34132e-05
6.44797e-05
6.44782e-05
8.46544e-05
6.47429e-05
6.47411e-05
7.76128e-05
4.96113e-05
7.7293e-05
4.96053e-05
2.35748e-05
2.35719e-05
7.76103e-05
4.96059e-05
7.72899e-05
4.96e-05
0.000131475
0.000131472
0.000131472
0.000130075
0.000130072
0.00013007
0.000130069
8.2108e-05
7.42938e-05
0.000110346
9.39308e-05
8.12021e-05
7.47597e-05
0.000110079
2.3574e-05
2.35711e-05
8.21105e-05
0.00011034
7.42914e-05
9.39351e-05
8.12001e-05
0.000110076
7.47636e-05
6.50712e-05
6.5068e-05
8.68323e-05
6.52761e-05
6.52725e-05
7.80461e-05
4.95885e-05
7.79173e-05
4.95785e-05
2.3564e-05
2.3561e-05
7.8043e-05
4.95831e-05
7.79143e-05
4.95732e-05
0.000129919
0.000129916
0.000129915
0.000129505
0.000129502
0.000129498
0.000129498
8.41407e-05
7.54292e-05
0.000110091
9.54409e-05
8.35875e-05
7.56436e-05
0.000110183
2.35632e-05
2.35602e-05
8.414e-05
0.000110084
7.54283e-05
9.54414e-05
8.35872e-05
0.000110177
7.56508e-05
6.54717e-05
6.54674e-05
8.92259e-05
6.55436e-05
6.55398e-05
7.81792e-05
4.95591e-05
7.8133e-05
4.95513e-05
2.35539e-05
2.35519e-05
7.8176e-05
4.95537e-05
7.81306e-05
4.9546e-05
0.000129182
0.000129177
0.000129178
0.000127507
0.000127506
0.0001275
0.000127501
8.48969e-05
7.57742e-05
0.000110279
9.6123e-05
8.47876e-05
7.5812e-05
0.000110067
2.35531e-05
2.35511e-05
8.49056e-05
0.00011027
7.5781e-05
9.61244e-05
8.47943e-05
0.000110063
7.58223e-05
6.55702e-05
6.5567e-05
9.03846e-05
6.5571e-05
6.55675e-05
7.81226e-05
4.95394e-05
7.81309e-05
4.9536e-05
2.35475e-05
2.3547e-05
7.81196e-05
4.9534e-05
7.81287e-05
4.95305e-05
0.000126865
0.00012686
0.000126861
0.000125329
0.000125328
0.000125324
0.000125325
8.50419e-05
7.57862e-05
0.000108829
9.55342e-05
8.50133e-05
7.57801e-05
0.000108438
2.35467e-05
2.35462e-05
8.50458e-05
0.000108823
7.57889e-05
9.55394e-05
8.50185e-05
0.000108433
7.57912e-05
6.55268e-05
6.55234e-05
9.04421e-05
6.55211e-05
6.55183e-05
7.80722e-05
4.95309e-05
7.80691e-05
4.953e-05
2.35448e-05
2.35453e-05
7.80692e-05
4.95255e-05
7.80666e-05
4.95245e-05
0.000124981
0.000124978
0.000124979
0.000124504
0.000124502
0.0001245
0.000124501
8.50501e-05
7.57552e-05
0.000107779
9.5294e-05
8.50393e-05
7.57581e-05
0.000107722
2.3544e-05
2.35444e-05
8.50574e-05
0.000107776
7.57603e-05
9.53002e-05
8.50456e-05
0.000107721
7.57665e-05
6.54931e-05
6.54907e-05
9.0364e-05
6.54959e-05
6.54928e-05
7.80508e-05
4.95282e-05
7.80458e-05
4.95284e-05
2.35441e-05
2.35449e-05
7.8048e-05
4.95228e-05
7.80431e-05
4.9523e-05
0.000124484
0.000124483
0.000124483
0.000124494
0.000124493
0.000124492
0.000124492
8.50988e-05
7.57458e-05
0.00010761
9.54534e-05
8.50885e-05
7.576e-05
0.000107662
2.35433e-05
2.35441e-05
8.51037e-05
0.000107605
7.57537e-05
9.54615e-05
8.50953e-05
0.000107663
7.577e-05
6.5487e-05
6.54841e-05
9.05469e-05
6.54925e-05
6.54895e-05
7.80454e-05
4.95279e-05
7.80355e-05
4.95284e-05
2.35441e-05
2.3545e-05
7.80424e-05
4.95225e-05
7.80325e-05
4.95229e-05
0.000124537
0.000124535
0.000124535
0.000124639
0.000124638
0.000124637
0.000124636
8.51192e-05
7.57609e-05
0.000107858
9.5668e-05
8.51103e-05
7.57712e-05
0.000107902
2.35433e-05
2.35442e-05
8.51238e-05
0.000107856
7.57663e-05
9.56759e-05
8.51148e-05
0.000107902
7.57797e-05
6.54885e-05
6.54854e-05
9.06878e-05
6.54948e-05
6.54916e-05
7.80447e-05
4.9528e-05
7.80334e-05
4.95285e-05
2.35442e-05
2.35451e-05
7.80416e-05
4.95226e-05
7.80304e-05
4.95231e-05
0.000124661
0.00012466
0.000124659
0.000124702
0.000124701
0.000124699
0.000124699
8.51233e-05
7.57655e-05
0.00010799
9.57581e-05
8.51155e-05
7.57763e-05
0.000108006
2.35433e-05
2.35442e-05
8.51288e-05
0.000107989
7.57714e-05
9.57657e-05
8.51206e-05
0.000108005
7.57843e-05
6.54907e-05
6.54876e-05
9.07546e-05
6.54964e-05
6.54933e-05
7.8045e-05
4.95281e-05
7.80337e-05
4.95286e-05
2.35442e-05
2.35451e-05
7.80419e-05
4.95227e-05
7.80306e-05
4.95231e-05
0.000124707
0.000124706
0.000124706
0.000124719
0.000124718
0.000124717
0.000124717
8.51261e-05
7.5767e-05
0.000108032
9.57827e-05
8.51223e-05
7.57772e-05
0.000108037
2.35434e-05
2.35442e-05
8.51314e-05
0.000108032
7.57734e-05
9.57907e-05
8.51274e-05
0.000108035
7.57851e-05
6.54912e-05
6.54883e-05
9.07542e-05
6.54965e-05
6.54936e-05
7.8045e-05
4.95282e-05
7.80339e-05
4.95286e-05
2.35442e-05
2.35451e-05
7.80419e-05
4.95227e-05
7.80308e-05
4.95232e-05
0.00012472
0.000124719
0.000124719
0.000124725
0.000124724
0.000124723
0.000124722
8.51262e-05
7.57661e-05
0.000108046
9.57917e-05
8.51241e-05
7.57769e-05
0.000108048
2.35434e-05
2.35443e-05
8.51315e-05
0.000108046
7.57734e-05
9.57994e-05
8.51302e-05
0.000108048
7.57853e-05
6.54911e-05
6.54883e-05
9.0755e-05
6.54965e-05
6.54936e-05
7.80449e-05
4.95282e-05
7.80338e-05
4.95286e-05
2.35442e-05
2.35451e-05
7.80418e-05
4.95227e-05
7.80307e-05
4.95232e-05
0.000124725
0.000124724
0.000124723
0.000124727
0.000124727
0.000124725
0.000124724
8.51282e-05
7.57674e-05
0.00010805
9.57953e-05
8.51271e-05
7.57755e-05
0.00010805
2.35434e-05
2.35443e-05
8.51327e-05
0.000108051
7.57734e-05
9.58029e-05
8.51312e-05
0.000108052
7.57855e-05
6.54913e-05
6.54883e-05
9.07563e-05
6.54967e-05
6.54935e-05
7.80447e-05
4.95282e-05
7.80337e-05
4.95286e-05
2.35442e-05
2.35451e-05
7.80416e-05
4.95228e-05
7.80305e-05
4.95232e-05
0.000124727
0.000124725
0.000124725
0.000124727
0.000124727
0.000124725
0.000124725
8.51289e-05
7.57677e-05
0.000108051
9.57942e-05
8.51281e-05
7.5775e-05
0.000108052
2.35434e-05
2.35443e-05
8.51334e-05
0.000108053
7.57732e-05
9.58014e-05
8.51318e-05
0.000108054
7.57855e-05
6.54913e-05
6.54881e-05
9.07645e-05
6.54966e-05
6.54934e-05
7.80445e-05
4.95282e-05
7.80335e-05
4.95286e-05
2.35442e-05
2.35451e-05
7.80414e-05
4.95227e-05
7.80304e-05
4.95232e-05
0.000124727
0.000124725
0.000124725
0.000124728
0.000124727
0.000124725
0.000124725
8.51289e-05
7.57673e-05
0.000108053
9.5794e-05
8.51284e-05
7.57752e-05
0.000108053
2.35434e-05
2.35443e-05
8.51331e-05
0.000108053
7.57729e-05
9.58008e-05
8.51312e-05
0.000108053
7.57854e-05
6.54911e-05
6.5488e-05
9.07681e-05
6.54964e-05
6.54932e-05
7.80444e-05
4.95282e-05
7.80333e-05
4.95287e-05
2.35442e-05
2.35452e-05
7.80412e-05
4.95227e-05
7.80301e-05
4.95232e-05
0.000124728
0.000124725
0.000124725
0.000124728
0.000124728
0.000124726
0.000124726
8.51285e-05
7.57668e-05
0.000108054
9.57936e-05
8.51288e-05
7.57747e-05
0.000108054
2.35434e-05
2.35443e-05
8.51328e-05
0.000108053
7.5773e-05
9.58008e-05
8.51313e-05
0.000108053
7.57852e-05
6.5491e-05
6.54879e-05
9.07372e-05
6.54963e-05
6.54932e-05
7.8044e-05
4.95279e-05
7.80331e-05
4.95282e-05
2.35444e-05
2.35454e-05
7.80409e-05
4.95227e-05
7.80299e-05
4.95231e-05
0.000124728
0.000124727
0.000124726
0.000124729
0.000124729
0.000124727
0.000124727
8.51277e-05
7.5767e-05
0.000108055
9.57937e-05
8.5129e-05
7.57747e-05
0.000108055
2.35434e-05
2.35443e-05
8.51318e-05
0.000108053
7.57732e-05
9.58023e-05
8.51324e-05
0.000108053
7.5785e-05
6.54908e-05
6.54878e-05
9.07551e-05
6.54961e-05
6.5493e-05
7.80436e-05
4.95278e-05
7.80326e-05
4.95282e-05
2.35445e-05
2.35454e-05
7.80405e-05
4.95227e-05
7.80295e-05
4.95231e-05
0.000124729
0.000124727
0.000124727
0.00012473
0.000124729
0.000124727
0.000124727
8.51257e-05
7.57667e-05
0.000108056
9.57937e-05
8.5129e-05
7.5775e-05
0.000108056
2.35434e-05
2.35443e-05
8.51297e-05
0.000108053
7.57728e-05
9.58024e-05
8.51328e-05
0.000108054
7.57845e-05
6.54906e-05
6.54876e-05
9.07591e-05
6.54959e-05
6.54929e-05
7.8043e-05
4.95278e-05
7.80322e-05
4.95282e-05
2.35444e-05
2.35453e-05
7.804e-05
4.95227e-05
7.8029e-05
4.95231e-05
0.000124729
0.000124728
0.000124727
0.00012473
0.00012473
0.000124728
0.000124728
8.51252e-05
7.5766e-05
0.000108057
9.57943e-05
8.51303e-05
7.57759e-05
0.000108056
2.35434e-05
2.35443e-05
8.51292e-05
0.000108054
7.57728e-05
9.58027e-05
8.51342e-05
0.000108055
7.57841e-05
6.54905e-05
6.54875e-05
9.07658e-05
6.54958e-05
6.54927e-05
7.80428e-05
4.95277e-05
7.80319e-05
4.95282e-05
2.35444e-05
2.35453e-05
7.80397e-05
4.95227e-05
7.80287e-05
4.95231e-05
0.00012473
0.000124728
0.000124728
0.000124731
0.000124731
0.000124729
0.000124729
8.51269e-05
7.57645e-05
0.000108057
9.57941e-05
8.51287e-05
7.57762e-05
0.000108057
2.35434e-05
2.35443e-05
8.51312e-05
0.000108055
7.57723e-05
9.58022e-05
8.5133e-05
0.000108056
7.57839e-05
6.54903e-05
6.54872e-05
9.07517e-05
6.54957e-05
6.54925e-05
7.80426e-05
4.95277e-05
7.80314e-05
4.95282e-05
2.35443e-05
2.35452e-05
7.80395e-05
4.95226e-05
7.80283e-05
4.95231e-05
0.000124731
0.000124729
0.000124729
0.000124733
0.000124731
0.000124729
0.00012473
8.51256e-05
7.57649e-05
0.000108058
9.57941e-05
8.51259e-05
7.57747e-05
0.000108058
2.35434e-05
2.35443e-05
8.51308e-05
0.000108056
7.57722e-05
9.58022e-05
8.51305e-05
0.000108057
7.5783e-05
6.54902e-05
6.5487e-05
9.07951e-05
6.54954e-05
6.54921e-05
7.80418e-05
4.95277e-05
7.80311e-05
4.95282e-05
2.35443e-05
2.35452e-05
7.80387e-05
4.95226e-05
7.80278e-05
4.95231e-05
0.000124732
0.000124729
0.00012473
0.000124732
0.000124729
0.000124727
0.000124728
8.51219e-05
7.57652e-05
0.000108058
9.57953e-05
8.51263e-05
7.57746e-05
0.000108058
2.35434e-05
2.35442e-05
8.51278e-05
0.000108056
7.57723e-05
9.58032e-05
8.51304e-05
0.000108056
7.57827e-05
6.54898e-05
6.54866e-05
9.0822e-05
6.54949e-05
6.54919e-05
7.80417e-05
4.95277e-05
7.80307e-05
4.95282e-05
2.35442e-05
2.35452e-05
7.80389e-05
4.95226e-05
7.80279e-05
4.95231e-05
0.000124728
0.000124726
0.000124727
0.00012473
0.000124726
0.000124725
0.000124725
8.51203e-05
7.57635e-05
0.000108056
9.57923e-05
8.5126e-05
7.57759e-05
0.000108055
2.35434e-05
2.35442e-05
8.51274e-05
0.000108054
7.57718e-05
9.58002e-05
8.51299e-05
0.000108053
7.57826e-05
6.54895e-05
6.54867e-05
9.07108e-05
6.54948e-05
6.54921e-05
0.000124725
2.35434e-05
7.57708e-05
2.36323e-05
2.36301e-05
6.10313e-05
6.10306e-05
4.95541e-05
6.89579e-05
4.9548e-05
6.89556e-05
6.5497e-05
0.00012716
6.56801e-05
6.54901e-05
0.000127153
6.56788e-05
2.363e-05
6.10233e-05
6.10339e-05
2.36316e-05
4.95334e-05
0.000104096
6.44809e-05
6.7898e-05
4.95487e-05
6.89552e-05
6.47466e-05
6.54939e-05
0.000127157
0.000128186
6.56792e-05
6.78964e-05
4.95447e-05
4.9535e-05
6.89536e-05
6.47459e-05
0.000103246
0.000127145
6.54908e-05
0.000128174
6.47952e-05
6.56784e-05
6.54828e-05
0.00012717
6.56795e-05
4.955e-05
6.89643e-05
0.000127161
6.54852e-05
6.56787e-05
4.95456e-05
6.89564e-05
8.33725e-05
6.05098e-05
6.0515e-05
2.3638e-05
2.36292e-05
2.36329e-05
8.30371e-05
6.1024e-05
6.10293e-05
6.0558e-05
6.05628e-05
2.36313e-05
2.36351e-05
4.95384e-05
6.47475e-05
0.000103286
0.000127162
6.54903e-05
0.000128191
6.4802e-05
6.56803e-05
6.47459e-05
0.000127155
6.54937e-05
0.000128185
6.56789e-05
6.78949e-05
4.95498e-05
4.954e-05
6.8962e-05
6.7893e-05
4.9544e-05
6.89599e-05
6.10256e-05
6.10237e-05
2.363e-05
2.36288e-05
2.36295e-05
2.3626e-05
2.36274e-05
2.36239e-05
6.10753e-05
6.10745e-05
8.24838e-05
6.15159e-05
6.15149e-05
2.36198e-05
2.36233e-05
2.36176e-05
2.36211e-05
8.22656e-05
6.19878e-05
6.19862e-05
6.15581e-05
6.15571e-05
7.00582e-05
4.95496e-05
6.90816e-05
4.95591e-05
6.71049e-05
6.57899e-05
0.000126152
0.000100915
6.61432e-05
6.64741e-05
0.00012514
6.71035e-05
6.57879e-05
0.000126145
0.000100902
6.61418e-05
6.6467e-05
0.000125134
7.0172e-05
4.95748e-05
4.95666e-05
7.10802e-05
7.01699e-05
4.95687e-05
4.95605e-05
7.10779e-05
6.75773e-05
0.000100189
6.74303e-05
0.000123163
6.67477e-05
0.00012414
6.85518e-05
6.75758e-05
0.000100176
6.7423e-05
0.000123157
6.67454e-05
0.000124134
6.85503e-05
6.10666e-05
6.10729e-05
8.2481e-05
6.15076e-05
6.15167e-05
2.36289e-05
2.36254e-05
2.36175e-05
2.3621e-05
8.22632e-05
6.1979e-05
6.19878e-05
6.15492e-05
6.15567e-05
2.36192e-05
2.36227e-05
6.7104e-05
6.57884e-05
0.000126149
0.000100936
6.61423e-05
6.6471e-05
0.000125137
7.00564e-05
4.95463e-05
6.90803e-05
4.95558e-05
6.7103e-05
0.000126137
6.57843e-05
0.000100902
6.61414e-05
0.000125126
6.64676e-05
7.01703e-05
4.95693e-05
4.95611e-05
7.10776e-05
6.75765e-05
0.000100209
6.74271e-05
0.000123161
6.67462e-05
0.000124138
6.85508e-05
7.01686e-05
4.95654e-05
4.95572e-05
7.10759e-05
6.75755e-05
0.000100176
0.000123149
6.74233e-05
0.000124126
6.67422e-05
6.85498e-05
7.00662e-05
4.95516e-05
6.90745e-05
4.95611e-05
6.71033e-05
0.000126154
6.57884e-05
0.000100918
6.61418e-05
0.000125142
6.64625e-05
7.00583e-05
4.95472e-05
6.90801e-05
4.95567e-05
6.75764e-05
0.000100217
6.74109e-05
0.000123171
6.67618e-05
0.000124154
6.85512e-05
7.01624e-05
4.95706e-05
4.95625e-05
7.10864e-05
6.75756e-05
0.000100192
0.000123166
6.74191e-05
0.000124143
6.6746e-05
6.85503e-05
7.01679e-05
4.95663e-05
4.95581e-05
7.10784e-05
6.10676e-05
6.10725e-05
8.24775e-05
6.15082e-05
6.15138e-05
2.36286e-05
2.36251e-05
2.36167e-05
2.36202e-05
8.22598e-05
6.19794e-05
6.1985e-05
6.15503e-05
6.15555e-05
2.36188e-05
2.36224e-05
6.71035e-05
0.000126147
6.57809e-05
0.000100929
6.61415e-05
0.000125138
6.64703e-05
7.00658e-05
4.95514e-05
6.90768e-05
4.95608e-05
7.00636e-05
4.95456e-05
6.90748e-05
4.95551e-05
6.75775e-05
0.000100215
0.000123168
6.74238e-05
0.000124142
6.67493e-05
6.85521e-05
6.75757e-05
0.000100203
0.000123161
6.74259e-05
0.000124135
6.67389e-05
6.85504e-05
7.01633e-05
4.95704e-05
4.95622e-05
7.10853e-05
7.01612e-05
4.95647e-05
4.95565e-05
7.1083e-05
2.36273e-05
2.36238e-05
2.36261e-05
2.36226e-05
8.22567e-05
6.19811e-05
6.19796e-05
6.15517e-05
6.15508e-05
2.36176e-05
2.36211e-05
2.36164e-05
2.36199e-05
2.36171e-05
2.36139e-05
2.3615e-05
2.36117e-05
6.20302e-05
6.20287e-05
8.21829e-05
6.24435e-05
6.24416e-05
2.36084e-05
2.36114e-05
2.36062e-05
2.36093e-05
8.20845e-05
6.28608e-05
6.28585e-05
6.24825e-05
6.24806e-05
7.20739e-05
4.95699e-05
7.11901e-05
4.95784e-05
7.00405e-05
6.76904e-05
0.000122209
9.82551e-05
6.90347e-05
6.83643e-05
0.000121278
7.00389e-05
6.76879e-05
0.000122203
9.82438e-05
6.90331e-05
6.83569e-05
0.000121273
7.21848e-05
4.95948e-05
4.9586e-05
7.29824e-05
7.21825e-05
4.95886e-05
4.95799e-05
7.29799e-05
7.05396e-05
9.76745e-05
6.92587e-05
0.000119443
6.86048e-05
0.00012036
7.15567e-05
7.05379e-05
9.76636e-05
6.92509e-05
0.000119438
6.86018e-05
0.000120355
7.15549e-05
6.20213e-05
6.20288e-05
8.21805e-05
6.24345e-05
6.24429e-05
2.36165e-05
2.36133e-05
2.36061e-05
2.36091e-05
8.20824e-05
6.28516e-05
6.28607e-05
6.24733e-05
6.24803e-05
2.36077e-05
2.36108e-05
7.00394e-05
6.76888e-05
0.000122207
9.82755e-05
6.90337e-05
6.8361e-05
0.000121276
7.20717e-05
4.95667e-05
7.11886e-05
4.95752e-05
7.00382e-05
0.000122195
6.76845e-05
9.82433e-05
6.90326e-05
0.000121264
6.8357e-05
7.21827e-05
4.95893e-05
4.95805e-05
7.29795e-05
7.05386e-05
9.76947e-05
6.92552e-05
0.000119442
6.86029e-05
0.000120359
7.15555e-05
7.21809e-05
4.95854e-05
4.95766e-05
7.29777e-05
7.05374e-05
9.76628e-05
0.00011943
6.92514e-05
0.000120347
6.85984e-05
7.15542e-05
7.20817e-05
4.95719e-05
7.11834e-05
4.95802e-05
7.00391e-05
0.000122212
6.76886e-05
9.82595e-05
6.90332e-05
0.000121281
6.83531e-05
7.2074e-05
4.95676e-05
7.11886e-05
4.95761e-05
7.05389e-05
9.7702e-05
6.92417e-05
0.000119453
6.86167e-05
0.000120376
7.15556e-05
7.21753e-05
4.95905e-05
4.95817e-05
7.29872e-05
7.0538e-05
9.76792e-05
0.000119447
6.92476e-05
0.000120365
6.86024e-05
7.15548e-05
7.21806e-05
4.95863e-05
4.95775e-05
7.29799e-05
6.20219e-05
6.20272e-05
8.21773e-05
6.24345e-05
6.24403e-05
2.36162e-05
2.3613e-05
2.36053e-05
2.36083e-05
8.20792e-05
6.28518e-05
6.28577e-05
6.24735e-05
6.24791e-05
2.36074e-05
2.36105e-05
7.00389e-05
0.000122205
6.76814e-05
9.82698e-05
6.90329e-05
0.000121277
6.83593e-05
7.20813e-05
4.95717e-05
7.11838e-05
4.95802e-05
7.2079e-05
4.9566e-05
7.11816e-05
4.95745e-05
7.05401e-05
9.77e-05
0.00011945
6.92533e-05
0.000120364
6.86057e-05
7.15569e-05
7.05379e-05
9.7689e-05
0.000119443
6.92531e-05
0.000120357
6.85954e-05
7.15549e-05
7.21765e-05
4.95904e-05
4.95816e-05
7.29868e-05
7.21742e-05
4.95847e-05
4.95759e-05
7.29844e-05
2.36149e-05
2.36117e-05
2.36137e-05
2.36105e-05
8.20767e-05
6.28535e-05
6.28519e-05
6.24753e-05
6.24737e-05
2.36061e-05
2.36092e-05
2.36049e-05
2.3608e-05
2.36059e-05
2.36026e-05
2.36037e-05
2.36004e-05
6.28997e-05
6.28973e-05
8.24128e-05
6.32698e-05
6.32672e-05
2.35973e-05
2.36e-05
2.35951e-05
2.35978e-05
8.24186e-05
6.36748e-05
6.36718e-05
6.33141e-05
6.33115e-05
7.37886e-05
4.95896e-05
7.30697e-05
4.95941e-05
7.30485e-05
6.94845e-05
0.000118549
9.60752e-05
7.20519e-05
7.01393e-05
0.000117636
7.30465e-05
6.94809e-05
0.000118544
9.60657e-05
7.20501e-05
7.01314e-05
0.000117632
7.38772e-05
4.96029e-05
4.96002e-05
7.46049e-05
7.38749e-05
4.95968e-05
4.95941e-05
7.46024e-05
7.35359e-05
9.5622e-05
7.10104e-05
0.000115949
7.03586e-05
0.000116784
7.45426e-05
7.3534e-05
9.56127e-05
7.10021e-05
0.000115945
7.03547e-05
0.000116779
7.45406e-05
6.28903e-05
6.28982e-05
8.24111e-05
6.32605e-05
6.32702e-05
2.36052e-05
2.36018e-05
2.3595e-05
2.35977e-05
8.24172e-05
6.36649e-05
6.36659e-05
6.33045e-05
6.33127e-05
2.35967e-05
2.35992e-05
7.30473e-05
6.94823e-05
0.000118547
9.60952e-05
7.20509e-05
7.01359e-05
0.000117635
7.37865e-05
4.95864e-05
7.30681e-05
4.95909e-05
7.3046e-05
0.000118536
6.94784e-05
9.60661e-05
7.20496e-05
0.000117624
7.01308e-05
7.38751e-05
4.95975e-05
4.95948e-05
7.46019e-05
7.35349e-05
9.56416e-05
7.10066e-05
0.000115948
7.03562e-05
0.000116782
7.45414e-05
7.38732e-05
4.95936e-05
4.95909e-05
7.46e-05
7.35335e-05
9.56126e-05
0.000115937
7.10015e-05
0.000116771
7.03512e-05
7.45399e-05
7.37959e-05
4.95916e-05
7.30628e-05
4.95959e-05
7.30469e-05
0.000118553
6.94817e-05
9.60807e-05
7.20501e-05
0.000117641
7.01284e-05
7.37889e-05
4.95873e-05
7.30679e-05
4.95918e-05
7.35356e-05
9.56486e-05
7.09932e-05
0.00011596
7.03687e-05
0.000116801
7.45421e-05
7.38687e-05
4.95987e-05
4.9596e-05
7.46082e-05
7.35344e-05
9.56277e-05
0.000115955
7.09998e-05
0.000116789
7.03553e-05
7.4541e-05
7.38734e-05
4.95945e-05
4.95918e-05
7.46022e-05
6.28907e-05
6.28962e-05
8.24081e-05
6.32604e-05
6.3266e-05
2.36049e-05
2.36016e-05
2.35942e-05
2.35969e-05
8.24142e-05
6.36644e-05
6.36709e-05
6.33047e-05
6.33101e-05
2.35964e-05
2.35991e-05
7.30465e-05
0.000118546
6.9475e-05
9.60903e-05
7.205e-05
0.000117637
7.01332e-05
7.3795e-05
4.95914e-05
7.30637e-05
4.95959e-05
7.37924e-05
4.95857e-05
7.30613e-05
4.95902e-05
7.35363e-05
9.56476e-05
0.000115957
7.10047e-05
0.000116788
7.03583e-05
7.45428e-05
7.35339e-05
9.56369e-05
0.00011595
7.10037e-05
0.000116781
7.03487e-05
7.45407e-05
7.38691e-05
4.95986e-05
4.95959e-05
7.46084e-05
7.38666e-05
4.95929e-05
4.95902e-05
7.46059e-05
2.36036e-05
2.36003e-05
2.36024e-05
2.35991e-05
8.24119e-05
6.36666e-05
6.36657e-05
6.33066e-05
6.33048e-05
2.3595e-05
2.35977e-05
2.35939e-05
2.35966e-05
2.35953e-05
2.35937e-05
2.35932e-05
2.35915e-05
6.37153e-05
6.37124e-05
8.32507e-05
6.4067e-05
6.40638e-05
2.35899e-05
2.3592e-05
2.35878e-05
2.35898e-05
8.3381e-05
6.44511e-05
6.44471e-05
6.4112e-05
6.4108e-05
7.5423e-05
4.95973e-05
7.4701e-05
4.96033e-05
7.61043e-05
7.12157e-05
0.000115201
9.46073e-05
7.50477e-05
7.18514e-05
0.000114471
7.61028e-05
7.12112e-05
0.000115197
9.45991e-05
7.50454e-05
7.18435e-05
0.000114467
7.55193e-05
4.96175e-05
4.96106e-05
7.61399e-05
7.5517e-05
4.96114e-05
4.96045e-05
7.61374e-05
7.66206e-05
9.43698e-05