/*--------------------------------*- C++ -*----------------------------------*\
| =========                 |                                                 |
| \\      /  F ield         | OpenFOAM: The Open Source CFD Toolbox           |
|  \\    /   O peration     | Version:  2312                                  |
|   \\  /    A nd           | Website:  www.openfoam.com                      |
|    \\/     M anipulation  |                                                 |
\*---------------------------------------------------------------------------*/
FoamFile
{
    version     2.0;
    format      ascii;
    arch        "LSB;label=32;scalar=64";
    class       volScalarField;
    location    "125";
    object      p;
}
// * * * * * * * * * * * * * * * * * * * * * * * * * * * * * * * * * * * * * //

dimensions      [0 2 -2 0 0 0 0];

internalField   nonuniform List<scalar> 
43120
(
0.00263136
0.00263132
0.00263132
0.00263377
0.00259148
0.00259143
0.00259143
0.00259387
0.00255187
0.00255181
0.00255181
0.00255424
0.00251257
0.00251249
0.00251249
0.00251489
0.00247371
0.00247362
0.00247362
0.002476
0.00243533
0.00243524
0.00243524
0.00243755
0.00239763
0.00239753
0.00239753
0.00239978
0.00236061
0.00236054
0.00236054
0.00236272
0.00232416
0.00232411
0.00232411
0.00232627
0.00228807
0.00228801
0.00228801
0.00229015
0.00225218
0.00225212
0.00225212
0.00225424
0.00221636
0.00221631
0.00221631
0.00221843
0.00218057
0.00218052
0.00218052
0.00218264
0.00214479
0.00214473
0.00214473
0.00214685
0.002109
0.00210895
0.00210895
0.00211107
0.00207322
0.00207316
0.00207316
0.00207528
0.00203743
0.00203737
0.00203737
0.00203949
0.00200164
0.00200159
0.00200159
0.00200371
0.00196585
0.0019658
0.0019658
0.00196792
0.00193007
0.00193001
0.00193001
0.00193213
0.00189428
0.00189422
0.00189422
0.00189634
0.00185849
0.00185844
0.00185844
0.00186056
0.0018227
0.00182265
0.00182265
0.00182477
0.00178691
0.00178686
0.00178686
0.00178898
0.00175113
0.00175107
0.00175107
0.00175319
0.00171534
0.00171528
0.00171528
0.0017174
0.00167949
0.00263899
0.00264133
0.00264133
0.00263899
0.00264133
0.00264133
0.00264133
0.00264133
0.00263899
0.00264133
0.00264133
0.00263899
0.00263377
0.00259907
0.00263132
0.00263132
0.00260138
0.00260138
0.00263377
0.00259907
0.00263132
0.00263132
0.00260138
0.00260138
0.00263132
0.00260138
0.00260138
0.00263377
0.00259907
0.00263132
0.00260138
0.00260138
0.00259907
0.00259387
0.0025594
0.00259143
0.00259143
0.00256169
0.00256169
0.00259387
0.0025594
0.00259143
0.00259143
0.00256169
0.00256169
0.00259143
0.00256169
0.00256169
0.00259387
0.0025594
0.00259143
0.00256169
0.00256169
0.0025594
0.00255424
0.00252001
0.00255181
0.00255181
0.00252228
0.00252228
0.00255424
0.00252001
0.00255181
0.00255181
0.00252228
0.00252228
0.00255181
0.00252228
0.00252228
0.00255424
0.00252001
0.00255181
0.00252228
0.00252228
0.00252001
0.00251489
0.00248106
0.00251249
0.00251249
0.0024833
0.0024833
0.00251489
0.00248106
0.00251249
0.00251249
0.0024833
0.0024833
0.00251249
0.0024833
0.0024833
0.00251489
0.00248106
0.00251249
0.0024833
0.0024833
0.00248106
0.002476
0.00244256
0.00247362
0.00247362
0.00244478
0.00244478
0.002476
0.00244256
0.00247362
0.00247362
0.00244478
0.00244478
0.00247362
0.00244478
0.00244478
0.002476
0.00244256
0.00247362
0.00244478
0.00244478
0.00244256
0.00243756
0.0024047
0.00243524
0.00243524
0.00240689
0.00240689
0.00243756
0.00240469
0.00243524
0.00243524
0.00240689
0.00240689
0.00243524
0.00240689
0.00240689
0.00243755
0.00240469
0.00243524
0.00240689
0.00240689
0.00240469
0.00239978
0.00236755
0.00239753
0.00239753
0.00236972
0.00236972
0.00239978
0.00236755
0.00239753
0.00239753
0.00236972
0.00236972
0.00239753
0.00236972
0.00236972
0.00239978
0.00236755
0.00239753
0.00236972
0.00236972
0.00236755
0.00236272
0.00233103
0.00236054
0.00236054
0.00233317
0.00233317
0.00236272
0.00233103
0.00236054
0.00236054
0.00233317
0.00233317
0.00236054
0.00233317
0.00233318
0.00236272
0.00233103
0.00236054
0.00233317
0.00233317
0.00233103
0.00232626
0.00229488
0.00232411
0.00232411
0.00229701
0.00229701
0.00232627
0.00229488
0.00232411
0.00232411
0.00229701
0.00229701
0.00232411
0.00229702
0.00229702
0.00232627
0.00229488
0.00232411
0.00229702
0.00229702
0.00229488
0.00229015
0.00225896
0.00228801
0.00228801
0.00226108
0.00226108
0.00229015
0.00225896
0.00228801
0.00228801
0.00226108
0.00226108
0.00228802
0.00226108
0.00226108
0.00229015
0.00225896
0.00228802
0.00226108
0.00226108
0.00225896
0.00225424
0.00222314
0.00225212
0.00225212
0.00222526
0.00222526
0.00225424
0.00222314
0.00225212
0.00225212
0.00222526
0.00222526
0.00225212
0.00222526
0.00222526
0.00225424
0.00222314
0.00225212
0.00222526
0.00222526
0.00222314
0.00221843
0.00218734
0.00221631
0.00221631
0.00218947
0.00218947
0.00221843
0.00218734
0.00221631
0.00221631
0.00218947
0.00218947
0.00221631
0.00218947
0.00218947
0.00221843
0.00218734
0.00221631
0.00218947
0.00218947
0.00218734
0.00218264
0.00215156
0.00218052
0.00218052
0.00215368
0.00215368
0.00218264
0.00215156
0.00218052
0.00218052
0.00215368
0.00215368
0.00218052
0.00215368
0.00215368
0.00218264
0.00215156
0.00218052
0.00215368
0.00215368
0.00215156
0.00214685
0.00211577
0.00214473
0.00214473
0.00211789
0.00211789
0.00214685
0.00211577
0.00214473
0.00214473
0.00211789
0.00211789
0.00214473
0.00211789
0.00211789
0.00214685
0.00211577
0.00214473
0.00211789
0.00211789
0.00211577
0.00211107
0.00207999
0.00210895
0.00210895
0.00208211
0.00208211
0.00211107
0.00207999
0.00210895
0.00210895
0.00208211
0.00208211
0.00210895
0.00208211
0.00208211
0.00211107
0.00207999
0.00210895
0.00208211
0.00208211
0.00207999
0.00207528
0.0020442
0.00207316
0.00207316
0.00204632
0.00204632
0.00207528
0.0020442
0.00207316
0.00207316
0.00204632
0.00204632
0.00207316
0.00204632
0.00204632
0.00207528
0.0020442
0.00207316
0.00204632
0.00204632
0.0020442
0.00203949
0.00200841
0.00203737
0.00203737
0.00201053
0.00201053
0.00203949
0.00200841
0.00203737
0.00203737
0.00201053
0.00201053
0.00203737
0.00201053
0.00201053
0.00203949
0.00200841
0.00203737
0.00201053
0.00201053
0.00200841
0.00200371
0.00197262
0.00200158
0.00200159
0.00197474
0.00197474
0.00200371
0.00197262
0.00200158
0.00200159
0.00197474
0.00197474
0.00200159
0.00197474
0.00197475
0.00200371
0.00197262
0.00200159
0.00197474
0.00197475
0.00197262
0.00196792
0.00193684
0.0019658
0.0019658
0.00193896
0.00193896
0.00196792
0.00193684
0.0019658
0.0019658
0.00193896
0.00193896
0.0019658
0.00193896
0.00193896
0.00196792
0.00193684
0.0019658
0.00193896
0.00193896
0.00193684
0.00193213
0.00190105
0.00193001
0.00193001
0.00190317
0.00190317
0.00193213
0.00190105
0.00193001
0.00193001
0.00190317
0.00190317
0.00193001
0.00190317
0.00190317
0.00193213
0.00190105
0.00193001
0.00190317
0.00190317
0.00190105
0.00189634
0.00186526
0.00189422
0.00189422
0.00186738
0.00186738
0.00189634
0.00186526
0.00189422
0.00189422
0.00186738
0.00186738
0.00189422
0.00186738
0.00186738
0.00189634
0.00186526
0.00189422
0.00186738
0.00186738
0.00186526
0.00186056
0.00182947
0.00185844
0.00185844
0.0018316
0.00183159
0.00186056
0.00182947
0.00185844
0.00185844
0.00183159
0.00183159
0.00185844
0.00183159
0.00183159
0.00186056
0.00182947
0.00185843
0.00183159
0.00183159
0.00182947
0.00182477
0.00179369
0.00182265
0.00182265
0.00179581
0.00179581
0.00182477
0.00179369
0.00182265
0.00182265
0.00179581
0.00179581
0.00182265
0.00179581
0.00179581
0.00182477
0.00179369
0.00182265
0.00179581
0.00179581
0.00179369
0.00178898
0.0017579
0.00178686
0.00178686
0.00176002
0.00176002
0.00178898
0.0017579
0.00178686
0.00178686
0.00176002
0.00176002
0.00178686
0.00176002
0.00176002
0.00178898
0.0017579
0.00178686
0.00176002
0.00176002
0.0017579
0.00175319
0.00172211
0.00175107
0.00175107
0.00172423
0.00172423
0.00175319
0.00172211
0.00175107
0.00175107
0.00172423
0.00172423
0.00175107
0.00172423
0.00172423
0.00175319
0.00172211
0.00175107
0.00172423
0.00172423
0.00172211
0.0017174
0.00168632
0.00171528
0.00171528
0.00168844
0.00168844
0.0017174
0.00168632
0.00171528
0.00171528
0.00168844
0.00168844
0.00171528
0.00168844
0.00168844
0.0017174
0.00168632
0.00171528
0.00168844
0.00168844
0.00168632
0.00167949
0.00168161
0.00264137
0.00264137
0.00264137
0.00264137
0.00265868
0.0026614
0.0026589
0.00261874
0.00263361
0.00263369
0.00261865
0.00263358
0.00261863
0.00261874
0.00263361
0.00263369
0.00261865
0.00263136
0.00263136
0.00263136
0.00260143
0.00260143
0.00260143
0.00260143
0.002619
0.00263368
0.00263135
0.00262133
0.00263381
0.00261883
0.00262135
0.00263358
0.00261863
0.002619
0.00263135
0.00263368
0.00262132
0.00263381
0.00262135
0.00261883
0.00263367
0.00263367
0.002619
0.0026187
0.0026187
0.00257892
0.0025937
0.00259377
0.00257884
0.00259368
0.00257882
0.00257892
0.0025937
0.00259377
0.00257884
0.00259148
0.00259148
0.00259148
0.00256175
0.00256175
0.00256175
0.00256175
0.00257917
0.00259376
0.00259146
0.0025815
0.00259388
0.002579
0.00258153
0.00259368
0.00257882
0.00257917
0.00259146
0.00259377
0.0025815
0.00259388
0.00258153
0.00257901
0.00259375
0.00259375
0.0025792
0.00257889
0.00257889
0.00253938
0.00255408
0.00255415
0.00253931
0.00255406
0.00253929
0.00253938
0.00255408
0.00255415
0.00253931
0.00255187
0.00255187
0.00255187
0.00252235
0.00252235
0.00252235
0.00252235
0.00253962
0.00255413
0.00255183
0.00254195
0.00255423
0.00253945
0.00254197
0.00255406
0.00253929
0.00253962
0.00255183
0.00255413
0.00254195
0.00255423
0.00254197
0.00253945
0.00255413
0.00255413
0.00253967
0.00253934
0.00253934
0.00250017
0.00251471
0.00251477
0.00250011
0.00251469
0.00250009
0.00250017
0.00251471
0.00251477
0.00250011
0.00251257
0.00251257
0.00251257
0.00248338
0.00248338
0.00248338
0.00248338
0.0025004
0.00251475
0.00251251
0.00250273
0.00251486
0.00250023
0.00250275
0.00251469
0.00250009
0.0025004
0.00251251
0.00251475
0.00250273
0.00251486
0.00250275
0.00250023
0.00251474
0.00251474
0.00250048
0.00250014
0.00250014
0.00246146
0.00247583
0.00247589
0.0024614
0.00247583
0.00246139
0.00246146
0.00247583
0.00247589
0.0024614
0.00247371
0.00247371
0.00247371
0.00244487
0.00244487
0.00244487
0.00244487
0.00246165
0.00247585
0.00247364
0.00246398
0.00247595
0.00246151
0.002464
0.00247583
0.00246139
0.00246165
0.00247364
0.00247585
0.00246398
0.00247595
0.002464
0.00246151
0.00247587
0.00247587
0.00246175
0.00246142
0.00246142
0.00242324
0.00243742
0.00243745
0.00242321
0.0024374
0.0024232
0.00242324
0.00243742
0.00243745
0.00242321
0.00243533
0.00243533
0.00243533
0.00240699
0.00240699
0.00240699
0.00240699
0.0024234
0.00243741
0.00243526
0.00242574
0.00243748
0.00242329
0.00242576
0.0024374
0.0024232
0.0024234
0.00243526
0.00243741
0.00242574
0.00243748
0.00242576
0.00242329
0.00243743
0.00243743
0.00242353
0.00242322
0.00242322
0.00238584
0.00239971
0.00239973
0.00238582
0.0023997
0.00238581
0.00238584
0.00239971
0.00239973
0.00238582
0.00239763
0.00239763
0.00239763
0.00236981
0.00236981
0.00236981
0.00236981
0.00238595
0.00239968
0.00239756
0.00238822
0.00239971
0.00238587
0.00238825
0.0023997
0.00238581
0.00238595
0.00239756
0.00239968
0.00238822
0.00239971
0.00238825
0.00238587
0.00239972
0.00239972
0.00238604
0.00238581
0.00238581
0.00234911
0.00236277
0.00236278
0.0023491
0.00236277
0.0023491
0.00234911
0.00236277
0.00236278
0.0023491
0.00236061
0.00236061
0.00236061
0.00233323
0.00233323
0.00233323
0.00233323
0.0023492
0.00236274
0.00236056
0.00235139
0.00236273
0.00234915
0.00235141
0.00236277
0.0023491
0.0023492
0.00236056
0.00236274
0.00235139
0.00236273
0.00235141
0.00234915
0.00236278
0.00236278
0.00234923
0.0023491
0.0023491
0.00231283
0.00232636
0.00232636
0.00231282
0.00232636
0.00231283
0.00231283
0.00232636
0.00232636
0.00231282
0.00232416
0.00232416
0.00232416
0.00229707
0.00229707
0.00229707
0.00229707
0.00231291
0.00232632
0.00232412
0.00231506
0.0023263
0.00231287
0.00231507
0.00232636
0.00231283
0.00231291
0.00232412
0.00232632
0.00231506
0.0023263
0.00231507
0.00231287
0.00232637
0.00232637
0.00231292
0.00231283
0.00231283
0.00227682
0.00229026
0.00229026
0.00227681
0.00229026
0.00227681
0.00227682
0.00229026
0.00229026
0.00227681
0.00228807
0.00228807
0.00228807
0.00226114
0.00226114
0.00226114
0.00226114
0.00227689
0.00229022
0.00228803
0.00227903
0.0022902
0.00227685
0.00227904
0.00229026
0.00227681
0.00227689
0.00228803
0.00229022
0.00227903
0.0022902
0.00227904
0.00227685
0.00229027
0.00229027
0.0022769
0.00227681
0.00227681
0.00224096
0.00225435
0.00225435
0.00224095
0.00225435
0.00224096
0.00224096
0.00225435
0.00225435
0.00224095
0.00225218
0.00225218
0.00225218
0.00222531
0.00222531
0.00222531
0.00222531
0.00224103
0.00225431
0.00225214
0.00224316
0.00225429
0.002241
0.00224318
0.00225435
0.00224096
0.00224103
0.00225214
0.00225431
0.00224316
0.00225429
0.00224318
0.002241
0.00225436
0.00225436
0.00224104
0.00224095
0.00224095
0.00220516
0.00221855
0.00221854
0.00220516
0.00221855
0.00220516
0.00220516
0.00221855
0.00221854
0.00220516
0.00221636
0.00221636
0.00221636
0.00218952
0.00218952
0.00218952
0.00218952
0.00220524
0.00221851
0.00221633
0.00220736
0.00221848
0.0022052
0.00220738
0.00221855
0.00220516
0.00220524
0.00221633
0.00221851
0.00220736
0.00221848
0.00220738
0.0022052
0.00221855
0.00221855
0.00220524
0.00220516
0.00220516
0.00216938
0.00218276
0.00218276
0.00216937
0.00218276
0.00216937
0.00216938
0.00218276
0.00218276
0.00216937
0.00218057
0.00218057
0.00218057
0.00215373
0.00215373
0.00215373
0.00215373
0.00216945
0.00218272
0.00218053
0.00217157
0.0021827
0.00216941
0.00217159
0.00218276
0.00216937
0.00216945
0.00218053
0.00218272
0.00217157
0.0021827
0.00217159
0.00216941
0.00218277
0.00218277
0.00216945
0.00216937
0.00216937
0.00213359
0.00214697
0.00214697
0.00213359
0.00214697
0.00213359
0.00213359
0.00214697
0.00214697
0.00213359
0.00214479
0.00214479
0.00214479
0.00211795
0.00211795
0.00211795
0.00211795
0.00213367
0.00214693
0.00214475
0.00213579
0.00214691
0.00213363
0.0021358
0.00214697
0.00213359
0.00213367
0.00214475
0.00214693
0.00213579
0.00214691
0.0021358
0.00213363
0.00214698
0.00214698
0.00213366
0.00213359
0.00213359
0.00209781
0.00211119
0.00211119
0.0020978
0.00211119
0.0020978
0.00209781
0.00211119
0.00211119
0.0020978
0.002109
0.002109
0.002109
0.00208216
0.00208216
0.00208216
0.00208216
0.00209788
0.00211115
0.00210896
0.0021
0.00211112
0.00209784
0.00210001
0.00211119
0.0020978
0.00209788
0.00210896
0.00211115
0.0021
0.00211112
0.00210001
0.00209784
0.00211119
0.00211119
0.00209788
0.0020978
0.0020978
0.00206202
0.0020754
0.0020754
0.00206202
0.0020754
0.00206202
0.00206202
0.0020754
0.0020754
0.00206202
0.00207322
0.00207322
0.00207322
0.00204638
0.00204637
0.00204638
0.00204637
0.00206209
0.00207536
0.00207318
0.00206421
0.00207534
0.00206206
0.00206423
0.0020754
0.00206202
0.00206209
0.00207318
0.00207536
0.00206421
0.00207534
0.00206423
0.00206206
0.00207541
0.00207541
0.00206209
0.00206201
0.00206201
0.00202623
0.00203962
0.00203961
0.00202623
0.00203961
0.00202623
0.00202623
0.00203962
0.00203961
0.00202623
0.00203743
0.00203743
0.00203743
0.00201059
0.00201059
0.00201059
0.00201059
0.00202631
0.00203957
0.00203739
0.00202843
0.00203955
0.00202627
0.00202844
0.00203962
0.00202623
0.00202631
0.00203739
0.00203958
0.00202843
0.00203955
0.00202844
0.00202627
0.00203962
0.00203962
0.00202631
0.00202623
0.00202623
0.00199045
0.00200383
0.00200383
0.00199044
0.00200383
0.00199044
0.00199045
0.00200383
0.00200383
0.00199044
0.00200164
0.00200164
0.00200164
0.0019748
0.0019748
0.0019748
0.0019748
0.00199052
0.00200379
0.0020016
0.00199264
0.00200376
0.00199048
0.00199265
0.00200383
0.00199044
0.00199052
0.0020016
0.00200379
0.00199264
0.00200376
0.00199265
0.00199048
0.00200383
0.00200384
0.00199052
0.00199044
0.00199044
0.00195466
0.00196804
0.00196804
0.00195465
0.00196804
0.00195465
0.00195466
0.00196804
0.00196804
0.00195465
0.00196585
0.00196585
0.00196585
0.00193901
0.00193901
0.00193901
0.00193901
0.00195473
0.001968
0.00196581
0.00195685
0.00196798
0.0019547
0.00195687
0.00196804
0.00195465
0.00195473
0.00196581
0.001968
0.00195685
0.00196798
0.00195687
0.0019547
0.00196805
0.00196805
0.00195473
0.00195465
0.00195465
0.00191887
0.00193225
0.00193225
0.00191886
0.00193226
0.00191887
0.00191887
0.00193225
0.00193225
0.00191887
0.00193007
0.00193007
0.00193007
0.00190323
0.00190323
0.00190322
0.00190322
0.00191894
0.00193221
0.00193003
0.00192106
0.00193219
0.00191891
0.00192108
0.00193225
0.00191887
0.00191894
0.00193003
0.00193221
0.00192106
0.00193219
0.00192108
0.00191891
0.00193226
0.00193226
0.00191894
0.00191886
0.00191886
0.00188308
0.00189647
0.00189646
0.00188308
0.00189647
0.00188308
0.00188308
0.00189647
0.00189646
0.00188308
0.00189428
0.00189428
0.00189428
0.00186744
0.00186744
0.00186744
0.00186744
0.00188316
0.00189642
0.00189424
0.00188528
0.0018964
0.00188312
0.00188529
0.00189646
0.00188308
0.00188316
0.00189424
0.00189642
0.00188528
0.0018964
0.00188529
0.00188312
0.00189647
0.00189647
0.00188316
0.00188308
0.00188308
0.0018473
0.00186068
0.00186068
0.00184729
0.00186068
0.00184729
0.0018473
0.00186068
0.00186068
0.00184729
0.00185849
0.00185849
0.00185849
0.00183165
0.00183165
0.00183165
0.00183165
0.00184737
0.00186064
0.00185845
0.00184949
0.00186061
0.00184733
0.0018495
0.00186068
0.00184729
0.00184737
0.00185845
0.00186064
0.00184949
0.00186061
0.0018495
0.00184733
0.00186068
0.00186068
0.00184737
0.00184729
0.00184729
0.00181151
0.00182489
0.00182489
0.0018115
0.00182489
0.0018115
0.00181151
0.00182489
0.00182489
0.0018115
0.0018227
0.0018227
0.0018227
0.00179586
0.00179586
0.00179586
0.00179586
0.00181158
0.00182485
0.00182266
0.0018137
0.00182483
0.00181154
0.00181372
0.00182489
0.0018115
0.00181158
0.00182266
0.00182485
0.0018137
0.00182483
0.00181371
0.00181154
0.0018249
0.0018249
0.00181158
0.0018115
0.0018115
0.00177572
0.0017891
0.0017891
0.00177571
0.0017891
0.00177572
0.00177572
0.0017891
0.0017891
0.00177571
0.00178691
0.00178691
0.00178691
0.00176007
0.00176007
0.00176007
0.00176007
0.00177579
0.00178906
0.00178687
0.00177791
0.00178904
0.00177576
0.00177793
0.0017891
0.00177572
0.00177579
0.00178687
0.00178906
0.00177791
0.00178904
0.00177793
0.00177576
0.00178911
0.00178911
0.00177579
0.00177571
0.00177571
0.00173993
0.00175331
0.00175331
0.00173992
0.00175331
0.00173993
0.00173993
0.00175331
0.00175331
0.00173993
0.00175113
0.00175113
0.00175113
0.00172428
0.00172428
0.00172428
0.00172428
0.00174
0.00175327
0.00175109
0.00174212
0.00175325
0.00173997
0.00174214
0.00175331
0.00173993
0.00174
0.00175109
0.00175327
0.00174212
0.00175325
0.00174214
0.00173997
0.00175332
0.00175332
0.00174
0.00173992
0.00173992
0.00170414
0.00171753
0.00171752
0.00170414
0.00171752
0.00170414
0.00170414
0.00171753
0.00171752
0.00170414
0.00171534
0.00171534
0.00171534
0.0016885
0.0016885
0.0016885
0.0016885
0.00170422
0.00171748
0.0017153
0.00170634
0.00171746
0.00170418
0.00170635
0.00171752
0.00170414
0.00170422
0.0017153
0.00171748
0.00170634
0.00171746
0.00170635
0.00170418
0.00171753
0.00171753
0.00170422
0.00170414
0.00170414
0.00167955
0.00168174
0.00168169
0.00263862
0.00263862
0.0026387
0.0026387
0.00263865
0.00263873
0.00263865
0.00263873
0.00263883
0.00264136
0.002639
0.00263883
0.00264136
0.002639
0.00263862
0.0026387
0.0026387
0.00263862
0.00265871
0.0026614
0.0026589
0.00265374
0.00263865
0.00263873
0.00265386
0.00263883
0.00264136
0.00265139
0.002639
0.00265374
0.00263865
0.00265365
0.00263873
0.00265386
0.00265136
0.00264136
0.00263883
0.00265139
0.00265373
0.002639
0.00263883
0.00264136
0.002639
0.00263865
0.00263873
0.00264136
0.00263883
0.002639
0.00263865
0.00263873
0.00265905
0.00265876
0.00265876
0.00265868
0.00263862
0.00265362
0.00265381
0.0026387
0.0026387
0.00265371
0.00265371
0.00263862
0.00265362
0.00265871
0.00265386
0.00265136
0.00264136
0.00263883
0.00265139
0.00265373
0.002639
0.00265386
0.00264136
0.00263883
0.00265139
0.002639
0.00265374
0.00263865
0.00265365
0.00263873
0.00265374
0.00263865
0.00263873
0.0026387
0.0026387
0.00263862
0.00263862
0.00263358
0.00261863
0.00263358
0.00261863
0.00263367
0.00263367
0.002619
0.0026187
0.0026187
0.00259869
0.0026136
0.00259869
0.0026136
0.00261379
0.00259875
0.00259875
0.00261368
0.00261368
0.00261874
0.00263361
0.00263369
0.00261865
0.002619
0.00263368
0.00263135
0.00262132
0.00263381
0.00261883
0.00262135
0.002619
0.00263368
0.00263135
0.00262132
0.00263381
0.00261883
0.00262135
0.00261371
0.00259871
0.00261363
0.00259879
0.00261371
0.00259871
0.00261363
0.00259879
0.00261382
0.00261134
0.00259888
0.00260141
0.0026137
0.00261137
0.00259905
0.00261382
0.00261134
0.00259888
0.00260141
0.0026137
0.00261137
0.00259905
0.00263367
0.00263367
0.002619
0.0026187
0.0026187
0.00263358
0.00261863
0.00259869
0.0026136
0.00261379
0.00259876
0.00259875
0.00261368
0.00261368
0.00259869
0.0026136
0.002619
0.00263368
0.00263135
0.00262132
0.00263381
0.00261883
0.00262135
0.00261874
0.00263361
0.00263369
0.00261865
0.002619
0.00263135
0.00263368
0.00262132
0.00263381
0.00262135
0.00261883
0.00261371
0.00259871
0.00261363
0.00259879
0.00261382
0.00261134
0.00259888
0.00260141
0.0026137
0.00261137
0.00259905
0.00261371
0.00259871
0.00261363
0.00259879
0.00261382
0.00261134
0.00260141
0.00259888
0.00261137
0.0026137
0.00259905
0.00261874
0.00263361
0.00263369
0.00261865
0.002619
0.00263135
0.00263368
0.00262133
0.00263381
0.00262135
0.00261883
0.00261874
0.00263361
0.00263369
0.00261865
0.00261382
0.00261134
0.00259888
0.00260141
0.0026137
0.00261137
0.00259905
0.00261371
0.00259871
0.00261363
0.00259879
0.00261382
0.00261134
0.00260141
0.00259888
0.00261137
0.0026137
0.00259905
0.00261371
0.00259871
0.00261363
0.00259879
0.00263367
0.00263367
0.002619
0.0026187
0.0026187
0.00263358
0.00261863
0.00259869
0.0026136
0.00261379
0.00259875
0.00259876
0.00261368
0.00261368
0.00259869
0.0026136
0.002619
0.00263135
0.00263368
0.00262132
0.00263381
0.00262135
0.00261883
0.00261874
0.00263361
0.00263369
0.00261865
0.00261874
0.00263361
0.00263369
0.00261865
0.00261382
0.00261134
0.00260141
0.00259888
0.00261137
0.0026137
0.00259905
0.00261382
0.00261134
0.00260141
0.00259888
0.00261137
0.0026137
0.00259905
0.00261371
0.00259871
0.00261363
0.00259879
0.00261371
0.00259871
0.00261363
0.00259879
0.00263358
0.00261863
0.00263358
0.00261863
0.00261379
0.00259875
0.00259876
0.00261368
0.00261368
0.00259869
0.0026136
0.00259869
0.0026136
0.00259368
0.00257882
0.00259368
0.00257882
0.00259375
0.00259375
0.0025792
0.00257889
0.00257889
0.00255903
0.00257383
0.00255903
0.00257384
0.00257402
0.00255909
0.00255909
0.00257391
0.00257391
0.00257892
0.0025937
0.00259377
0.00257884
0.00257917
0.00259377
0.00259146
0.0025815
0.00259388
0.002579
0.00258153
0.00257917
0.00259377
0.00259146
0.0025815
0.00259388
0.002579
0.00258153
0.00257392
0.00255905
0.00257385
0.00255913
0.00257392
0.00255905
0.00257385
0.00255913
0.00257402
0.00257159
0.0025592
0.00256171
0.00257391
0.00257161
0.00255936
0.00257402
0.00257159
0.0025592
0.00256171
0.00257391
0.00257161
0.00255936
0.00259375
0.00259375
0.0025792
0.00257889
0.00257889
0.00259368
0.00257882
0.00255903
0.00257384
0.00257402
0.0025591
0.0025591
0.00257391
0.00257391
0.00255904
0.00257384
0.00257917
0.00259377
0.00259146
0.0025815
0.00259388
0.002579
0.00258152
0.00257892
0.0025937
0.00259377
0.00257884
0.00257917
0.00259146
0.00259377
0.0025815
0.00259388
0.00258152
0.00257901
0.00257392
0.00255905
0.00257385
0.00255913
0.00257402
0.00257159
0.0025592
0.00256171
0.00257391
0.00257161
0.00255936
0.00257392
0.00255905
0.00257385
0.00255913
0.00257402
0.00257159
0.00256171
0.0025592
0.00257161
0.00257391
0.00255936
0.00257892
0.0025937
0.00259377
0.00257884
0.00257917
0.00259146
0.00259377
0.0025815
0.00259388
0.00258153
0.002579
0.00257892
0.0025937
0.00259377
0.00257884
0.00257402
0.00257159
0.0025592
0.00256171
0.00257391
0.00257161
0.00255936
0.00257392
0.00255905
0.00257386
0.00255913
0.00257402
0.00257159
0.00256171
0.0025592
0.00257161
0.00257391
0.00255936
0.00257392
0.00255905
0.00257386
0.00255913
0.00259375
0.00259375
0.0025792
0.00257889
0.00257889
0.00259368
0.00257882
0.00255904
0.00257384
0.00257402
0.0025591
0.0025591
0.00257391
0.00257391
0.00255904
0.00257384
0.00257917
0.00259146
0.00259377
0.0025815
0.00259388
0.00258153
0.00257901
0.00257892
0.0025937
0.00259377
0.00257884
0.00257892
0.0025937
0.00259377
0.00257884
0.00257402
0.00257159
0.00256171
0.0025592
0.00257161
0.00257391
0.00255936
0.00257402
0.00257159
0.00256171
0.0025592
0.00257161
0.00257391
0.00255936
0.00257392
0.00255905
0.00257386
0.00255913
0.00257392
0.00255905
0.00257386
0.00255913
0.00259368
0.00257882
0.00259368
0.00257882
0.00257402
0.0025591
0.0025591
0.00257391
0.00257391
0.00255904
0.00257384
0.00255904
0.00257384
0.00255406
0.00253929
0.00255406
0.00253929
0.00255413
0.00255413
0.00253967
0.00253934
0.00253934
0.00251962
0.00253432
0.00251962
0.00253432
0.00253452
0.00251967
0.00251967
0.00253439
0.00253439
0.00253938
0.00255408
0.00255415
0.00253931
0.00253962
0.00255412
0.00255183
0.00254195
0.00255423
0.00253945
0.00254197
0.00253962
0.00255413
0.00255183
0.00254195
0.00255423
0.00253945
0.00254197
0.00253442
0.00251965
0.00253435
0.00251971
0.00253442
0.00251964
0.00253435
0.00251971
0.0025345
0.0025321
0.00251978
0.0025223
0.00253439
0.00253212
0.00251995
0.0025345
0.0025321
0.00251978
0.0025223
0.00253439
0.00253212
0.00251995
0.00255413
0.00255413
0.00253967
0.00253934
0.00253934
0.00255406
0.00253929
0.00251962
0.00253432
0.00253452
0.00251967
0.00251967
0.00253438
0.00253438
0.00251962
0.00253432
0.00253962
0.00255412
0.00255183
0.00254195
0.00255423
0.00253945
0.00254197
0.00253938
0.00255408
0.00255415
0.00253931
0.00253962
0.00255183
0.00255413
0.00254195
0.00255423
0.00254197
0.00253945
0.00253442
0.00251965
0.00253435
0.00251971
0.0025345
0.0025321
0.00251978
0.0025223
0.00253439
0.00253212
0.00251995
0.00253442
0.00251964
0.00253435
0.00251971
0.0025345
0.0025321
0.0025223
0.00251978
0.00253212
0.00253439
0.00251994
0.00253938
0.00255408
0.00255415
0.00253931
0.00253962
0.00255183
0.00255413
0.00254195
0.00255423
0.00254197
0.00253945
0.00253938
0.00255408
0.00255415
0.00253931
0.0025345
0.0025321
0.00251978
0.0025223
0.00253439
0.00253212
0.00251995
0.00253442
0.00251965
0.00253435
0.00251971
0.0025345
0.0025321
0.0025223
0.00251978
0.00253212
0.00253439
0.00251995
0.00253442
0.00251965
0.00253435
0.00251971
0.00255413
0.00255413
0.00253967
0.00253934
0.00253934
0.00255406
0.00253929
0.00251962
0.00253432
0.00253452
0.00251967
0.00251967
0.00253438
0.00253438
0.00251962
0.00253432
0.00253962
0.00255183
0.00255413
0.00254195
0.00255423
0.00254197
0.00253945
0.00253938
0.00255408
0.00255415
0.00253931
0.00253938
0.00255408
0.00255415
0.00253931
0.0025345
0.0025321
0.0025223
0.00251978
0.00253212
0.00253439
0.00251995
0.0025345
0.0025321
0.0025223
0.00251978
0.00253212
0.00253439
0.00251995
0.00253442
0.00251965
0.00253435
0.00251971
0.00253442
0.00251965
0.00253435
0.00251971
0.00255406
0.00253929
0.00255406
0.00253929
0.00253452
0.00251967
0.00251967
0.00253438
0.00253438
0.00251962
0.00253432
0.00251962
0.00253432
0.00251469
0.00250009
0.00251469
0.00250009
0.00251474
0.00251474
0.00250048
0.00250014
0.00250014
0.0024807
0.0024952
0.0024807
0.0024952
0.00249538
0.00248073
0.00248073
0.00249525
0.00249525
0.00250017
0.00251471
0.00251477
0.00250011
0.0025004
0.00251475
0.00251251
0.00250273
0.00251486
0.00250023
0.00250275
0.0025004
0.00251475
0.00251251
0.00250273
0.00251486
0.00250023
0.00250275
0.00249527
0.0024807
0.00249521
0.00248077
0.00249527
0.0024807
0.00249521
0.00248077
0.00249534
0.002493
0.00248082
0.00248332
0.00249524
0.00249302
0.00248097
0.00249534
0.002493
0.00248082
0.00248332
0.00249524
0.00249302
0.00248097
0.00251474
0.00251474
0.00250048
0.00250014
0.00250014
0.00251469
0.00250009
0.0024807
0.0024952
0.00249538
0.00248073
0.00248073
0.00249525
0.00249525
0.0024807
0.0024952
0.0025004
0.00251475
0.00251251
0.00250273
0.00251486
0.00250023
0.00250275
0.00250017
0.00251471
0.00251477
0.00250011
0.0025004
0.00251251
0.00251475
0.00250273
0.00251486
0.00250275
0.00250023
0.00249527
0.0024807
0.00249521
0.00248077
0.00249534
0.002493
0.00248082
0.00248332
0.00249524
0.00249302
0.00248097
0.00249527
0.0024807
0.00249521
0.00248077
0.00249534
0.002493
0.00248332
0.00248082
0.00249302
0.00249524
0.00248097
0.00250017
0.00251471
0.00251477
0.00250011
0.0025004
0.00251251
0.00251475
0.00250273
0.00251486
0.00250275
0.00250023
0.00250017
0.00251471
0.00251477
0.00250011
0.00249534
0.002493
0.00248082
0.00248332
0.00249524
0.00249302
0.00248097
0.00249527
0.0024807
0.00249521
0.00248077
0.00249534
0.002493
0.00248332
0.00248082
0.00249302
0.00249524
0.00248097
0.00249527
0.0024807
0.00249521
0.00248077
0.00251474
0.00251474
0.00250048
0.00250014
0.00250014
0.00251469
0.00250009
0.0024807
0.0024952
0.00249538
0.00248073
0.00248073
0.00249525
0.00249525
0.0024807
0.0024952
0.0025004
0.00251251
0.00251475
0.00250273
0.00251486
0.00250275
0.00250023
0.00250017
0.00251471
0.00251477
0.00250011
0.00250017
0.00251471
0.00251477
0.00250011
0.00249534
0.002493
0.00248332
0.00248082
0.00249302
0.00249524
0.00248097
0.00249534
0.002493
0.00248332
0.00248082
0.00249302
0.00249524
0.00248097
0.00249527
0.0024807
0.00249521
0.00248077
0.00249527
0.0024807
0.00249521
0.00248077
0.00251469
0.00250009
0.00251469
0.00250009
0.00249539
0.00248073
0.00248073
0.00249525
0.00249525
0.00248069
0.0024952
0.00248069
0.0024952
0.00247583
0.00246139
0.00247583
0.00246139
0.00247587
0.00247587
0.00246175
0.00246142
0.00246142
0.00244221
0.00245655
0.00244221
0.00245655
0.00245671
0.00244223
0.00244223
0.00245658
0.00245658
0.00246146
0.00247583
0.00247589
0.0024614
0.00246165
0.00247585
0.00247364
0.00246398
0.00247595
0.0024615
0.002464
0.00246165
0.00247585
0.00247364
0.00246398
0.00247595
0.00246151
0.002464
0.00245661
0.00244222
0.00245656
0.00244227
0.00245661
0.00244222
0.00245656
0.00244227
0.00245665
0.00245436
0.00244231
0.0024448
0.00245657
0.00245438
0.00244244
0.00245665
0.00245436
0.00244231
0.0024448
0.00245657
0.00245438
0.00244244
0.00247587
0.00247587