/*--------------------------------*- C++ -*----------------------------------*\
| =========                 |                                                 |
| \\      /  F ield         | OpenFOAM: The Open Source CFD Toolbox           |
|  \\    /   O peration     | Version:  2312                                  |
|   \\  /    A nd           | Website:  www.openfoam.com                      |
|    \\/     M anipulation  |                                                 |
\*---------------------------------------------------------------------------*/
FoamFile
{
    version     2.0;
    format      ascii;
    arch        "LSB;label=32;scalar=64";
    class       volScalarField;
    location    "125";
    object      p;
}
// * * * * * * * * * * * * * * * * * * * * * * * * * * * * * * * * * * * * * //

dimensions      [0 2 -2 0 0 0 0];

internalField   nonuniform List<scalar> 
43496
(
0.000737814
0.000737811
0.000740007
0.000737851
0.000737888
0.000740022
0.000737814
0.000737809
0.000737888
0.000740007
0.000740022
0.000737851
0.000737886
0.000737808
0.000737808
0.000737811
0.000737809
0.000742258
0.000742248
0.000737813
0.000737809
0.000742249
0.000742259
0.000737809
0.000742249
0.000737808
0.000742255
0.000737819
0.00074225
0.000742258
0.000742248
0.000737809
0.000737813
0.000742259
0.000742249
0.000737809
0.000742249
0.000737808
0.000742251
0.000742255
0.000737819
0.000742257
0.000737811
0.000737811
0.000742251
0.000742251
0.000737803
0.000742241
0.00073781
0.000742257
0.000737808
0.000742252
0.000742244
0.00073782
0.000742241
0.00073781
0.000742257
0.000737809
0.000742244
0.000742252
0.00073782
0.00074225
0.000742251
0.00074004
0.000740061
0.00074004
0.000742209
0.000737809
0.00074223
0.000742192
0.000742186
0.000737887
0.000737842
0.000742188
0.000742194
0.000737848
0.000742203
0.000737877
0.000742196
0.000737846
0.000742192
0.000742186
0.000737842
0.000737887
0.000742194
0.000742188
0.000737848
0.000742204
0.000737876
0.000742209
0.000737809
0.000742196
0.000737846
0.00074223
0.000742133
0.000742128
0.000737893
0.000737893
0.000742174
0.000742173
0.000737931
0.000784802
0.000784747
0.000784747
0.000786868
0.00074901
0.000748957
0.000748955
0.00075108
0.000786868
0.000755783
0.000784747
0.000784747
0.000757903
0.000757904
0.000786868
0.000755784
0.000784747
0.000784747
0.000757903
0.000757904
0.000784746
0.000757904
0.000757906
0.000786868
0.000755783
0.000784746
0.000757903
0.000757905
0.000755785
0.000751077
0.000748956
0.000748957
0.000751078
0.000748955
0.000748956
0.000748959
0.000751077
0.000748957
0.000773606
0.00078699
0.0007736
0.000786989
0.000786989
0.000773603
0.000773606
0.00078699
0.000773601
0.000786988
0.000784802
0.000784801
0.000784801
0.000757958
0.000757954
0.000757956
0.00075795
0.00077368
0.000786949
0.000784762
0.000775799
0.000773643
0.000775814
0.000786925
0.000786989
0.000773602
0.00077368
0.000784761
0.000786949
0.000775798
0.000775814
0.000773643
0.000786925
0.000786996
0.000786997
0.000773679
0.0007736
0.0007736
0.000751199
0.000751197
0.000751198
0.000751199
0.000751197
0.000749002
0.000749008
0.000748997
0.000737888
0.000751158
0.00074897
0.000751134
0.000740021
0.000751197
0.000737888
0.00074897
0.000751157
0.000751134
0.000740021
0.000751205
0.000751205
0.000737886
0.000737808
0.000737808
0.000786989
0.000773603
0.000786989
0.000773603
0.000786996
0.000786996
0.000773678
0.0007736
0.0007736
0.000755707
0.000769094
0.000755707
0.000769094
0.000768972
0.000755704
0.000755704
0.000769101
0.000769101
0.000773606
0.00078699
0.000773601
0.000786989
0.00077368
0.000786949
0.000784762
0.000775799
0.000773643
0.000775814
0.000786926
0.00077368
0.000786949
0.000784762
0.000775799
0.000773643
0.000775814
0.000786926
0.000769093
0.000755705
0.000769094
0.000755711
0.000769093
0.000755705
0.000769095
0.000755711
0.00076903
0.000766851
0.000755747
0.000757918
0.000769053
0.000766866
0.000755784
0.00076903
0.000766851
0.000755748
0.000757918
0.000769053
0.000766866
0.000755784
0.000786996
0.000786996
0.000773679
0.0007736
0.0007736
0.000786989
0.000773603
0.000755707
0.000769094
0.000768972
0.000755705
0.000755704
0.000769101
0.000769101
0.000755707
0.000769094
0.00077368
0.000786949
0.000784761
0.000775799
0.000773643
0.000775814
0.000786925
0.000773606
0.00078699
0.0007736
0.000786988
0.00077368
0.000784761
0.000786949
0.000775799
0.000775814
0.000773643
0.000786925
0.000769093
0.000755705
0.000769094
0.000755711
0.00076903
0.000766851
0.000755747
0.000757917
0.000769053
0.000766866
0.000755784
0.000769092
0.000755704
0.000769094
0.000755711
0.00076903
0.000766851
0.000757918
0.000755747
0.000766866
0.000769053
0.000755784
0.000773607
0.00078699
0.000773601
0.000786988
0.00077368
0.000784762
0.000786949
0.000775799
0.000775814
0.000773643
0.000786925
0.000773606
0.00078699
0.000773601
0.000786988
0.00076903
0.000766851
0.000755748
0.000757918
0.000769053
0.000766866
0.000755784
0.000769093
0.000755705
0.000769095
0.000755711
0.00076903
0.000766853
0.000757918
0.000755748
0.000766866
0.000769053
0.000755784
0.000769093
0.000755705
0.000769095
0.000755711
0.000786996
0.000786996
0.000773678
0.0007736
0.0007736
0.000786989
0.000773603
0.000755706
0.000769094
0.000768972
0.000755704
0.000755704
0.000769101
0.000769101
0.000755706
0.000769094
0.00077368
0.000784761
0.000786949
0.000775799
0.000775813
0.000773643
0.000786925
0.000773607
0.00078699
0.0007736
0.000786988
0.000773607
0.00078699
0.000773601
0.000786988
0.00076903
0.00076685
0.000757918
0.000755747
0.000766866
0.000769053
0.000755784
0.00076903
0.000766852
0.000757917
0.000755747
0.000766865
0.000769053
0.000755784
0.000769092
0.000755704
0.000769094
0.000755711
0.000769092
0.000755705
0.000769094
0.000755711
0.000786989
0.000773603
0.000786989
0.000773603
0.000768974
0.000755704
0.000755704
0.000769101
0.000769101
0.000755707
0.000769094
0.000755707
0.000769094
0.000751198
0.000751198
0.000751205
0.000751205
0.000751199
0.000751197
0.000751158
0.00074897
0.000751134
0.000751158
0.00074897
0.000751134
0.000751205
0.000751205
0.000751198
0.000751158
0.00074897
0.000751134
0.000751198
0.000751197
0.00074897
0.000751157
0.000751134
0.000737814
0.000751199
0.000751197
0.000737888
0.000748971
0.000751158
0.000740011
0.000751134
0.000740023
0.000737851
0.000737814
0.000751199
0.000751197
0.000737809
0.000751204
0.000751204
0.000751198
0.000737888
0.000748969
0.000751157
0.000740009
0.000751133
0.000740021
0.000737851
0.000737814
0.000751199
0.000751197
0.000737814
0.000751199
0.000751196
0.000737808
0.000751198
0.000737811
0.000751198
0.000737811
0.00077805
0.000773601
0.000773606
0.00077804
0.000778051
0.000778041
0.000773601
0.000782559
0.000782548
0.000786995
0.000782549
0.000786989
0.000778041
0.0007736
0.000778042
0.000778047
0.000773611
0.000782549
0.000782554
0.000786999
0.000786989
0.000782548
0.000782554
0.000786998
0.00078255
0.000778042
0.00077805
0.000773605
0.0007736
0.00077804
0.000778041
0.000778051
0.000773601
0.000782559
0.000782548
0.000786995
0.000782549
0.000786988
0.000778041
0.0007736
0.000778042
0.000778047
0.000773611
0.000782549
0.000782554
0.000786989
0.000786999
0.000782553
0.000782548
0.000786998
0.00078255
0.000778041
0.000778049
0.000773602
0.000773602
0.000778042
0.000778042
0.000773595
0.000782561
0.000786985
0.000782548
0.000786992
0.00078255
0.00078255
0.000786981
0.00078256
0.000786985
0.000782548
0.000786992
0.000782549
0.00078255
0.000786981
0.000778033
0.000773602
0.000778049
0.000773602
0.000778037
0.000778044
0.000773612
0.000778033
0.000773602
0.000778049
0.000773601
0.000778037
0.000778044
0.000773612
0.000782543
0.00078699
0.00078699
0.00078255
0.00078255
0.000786997
0.000746768
0.000751203
0.000746757
0.000751197
0.000746757
0.000746757
0.000746762
0.000751208
0.000751197
0.000751206
0.000746757
0.000746761
0.000746759
0.000746768
0.000751203
0.000746757
0.000751197
0.000746757
0.000746757
0.000746763
0.000751197
0.000751207
0.000751206
0.000746762
0.000746757
0.000746758
0.000742258
0.000737811
0.000737811
0.000742251
0.000742251
0.000737803
0.000746769
0.000751193
0.0007512
0.000746756
0.000751189
0.000746758
0.000746758
0.000746768
0.000751193
0.0007512
0.000746756
0.000751189
0.000746757
0.000746758
0.000746751
0.000751199
0.000751199
0.000751206
0.000746759
0.000746759
0.000742242
0.00073781
0.000742257
0.00073781
0.000742245
0.000742252
0.000737821
0.000742241
0.00073781
0.000742257
0.000737808
0.000742244
0.000742252
0.000737819
0.00078255
0.000778041
0.00078255
0.000778042
0.000778049
0.000773602
0.000773602
0.000778042
0.000778042
0.000773595
0.00078256
0.000786984
0.000782548
0.000786991
0.000782549
0.000782549
0.00078698
0.00078256
0.000786984
0.000782547
0.000786991
0.00078255
0.000782549
0.00078698
0.000778033
0.000773602
0.000778048
0.000773602
0.000778044
0.000773613
0.000778037
0.000778033
0.000773602
0.000778049
0.000773602
0.000778044
0.000773613
0.000778037
0.000782542
0.00078699
0.00078699
0.00078255
0.00078255
0.000786997
0.000760146
0.000764655
0.000760146
0.000764655
0.000764647
0.000769095
0.000769095
0.000769102
0.000764654
0.000764655
0.000760137
0.000755706
0.000760153
0.000755706
0.000760148
0.000760141
0.000755716
0.000760137
0.000755705
0.000760153
0.000755706
0.000760148
0.000760141
0.000755716
0.000764665
0.000769096
0.000769089
0.000764652
0.000769085
0.000764654
0.000764654
0.000764665
0.000769096
0.000769089
0.000764652
0.000769085
0.000764654
0.000764654
0.000760154
0.000755706
0.000755706
0.000760147
0.000760147
0.000755699
0.00077805
0.000773601
0.000773606
0.000778041
0.000778051
0.000778041
0.000773601
0.000782559
0.000782549
0.000786995
0.000782548
0.000786988
0.000778041
0.0007736
0.000778042
0.000778047
0.000773611
0.000782549
0.000782554
0.000786999
0.000786989
0.000782548
0.000782553
0.000786998
0.000764653
0.000769103
0.000769093
0.000764659
0.000769102
0.000764653
0.000764658
0.000760145
0.000760147
0.000755705
0.000755715
0.000760151
0.000764663
0.000769098
0.000764653
0.000769092
0.000764652
0.000760154
0.000760145
0.000755705
0.00075571
0.000755705
0.000760156
0.000760145
0.000764653
0.000769103
0.000769093
0.000764659
0.000769102
0.000764653
0.000764658
0.000760145
0.000760147
0.000755705
0.000760151
0.000755715
0.000764663
0.000769099
0.000764653
0.000769093
0.000764652
0.000760154
0.000760145
0.000755705
0.00075571
0.000760156
0.000760145
0.000755705
0.000778049
0.000773603
0.000773603
0.000778042
0.000778042
0.000773595
0.00078256
0.000786984
0.000782548
0.000786991
0.00078255
0.000782549
0.00078698
0.00078256
0.000786984
0.000782548
0.000786991
0.000782549
0.00078255
0.00078698
0.000778033
0.000773602
0.000778048
0.000773602
0.000778044
0.000778037
0.000773613
0.000778033
0.000773602
0.000778049
0.000773602
0.000778037
0.000778044
0.000773613
0.000782542
0.00078699
0.00078699
0.00078255
0.00078255
0.000786997
0.000782551
0.000778042
0.000760146
0.000764655
0.000764647
0.000769095
0.000769095
0.000769102
0.000764655
0.000764655
0.000760137
0.000755706
0.000760153
0.000755706
0.000760141
0.000760148
0.000755717
0.000760137
0.000755706
0.000760153
0.000755706
0.000760148
0.000760141
0.000755717
0.000764665
0.000769096
0.000769089
0.000764653
0.000764654
0.000769086
0.000764654
0.000764665
0.000769096
0.000769089
0.000764653
0.000769085
0.000764654
0.000764654
0.000760154
0.000755707
0.000755707
0.000760147
0.000760147
0.000755699
0.000760146
0.000764655
0.00077805
0.0007736
0.000773605
0.00077804
0.000778051
0.000778041
0.000773601
0.000782559
0.000782548
0.000786994
0.000782548
0.000786988
0.00077804
0.0007736
0.000778042
0.000778046
0.000773611
0.000782549
0.000782554
0.000786999
0.000786989
0.000782548
0.000782553
0.000786998
0.000764653
0.000769093
0.000769103
0.000764659
0.000769102
0.000764657
0.000764653
0.000760144
0.000760147
0.000755704
0.000755715
0.00076015
0.000764663
0.000769098
0.000764653
0.000769092
0.000764652
0.000760154
0.000760145
0.00075571
0.000755705
0.000755705
0.000760145
0.000760155
0.000764653
0.000769103
0.000769093
0.000764659
0.000769102
0.000764653
0.000764657
0.000760144
0.000760146
0.000755704
0.000760151
0.000755715
0.000764663
0.000769098
0.000764652
0.000769092
0.000764652
0.000760154
0.000760145
0.000755705
0.00075571
0.000760155
0.000760145
0.000755705
0.00077805
0.000773606
0.000773601
0.00077804
0.00077804
0.000778051
0.000773601
0.000782559
0.000782548
0.000786994
0.000782549
0.000786989
0.000778041
0.000773601
0.000778043
0.000778047
0.000773611
0.000782549
0.000782555
0.000786989
0.000786999
0.000782554
0.000782549
0.000786998
0.00077805
0.000773601
0.000773606
0.000778041
0.000778051
0.000778041
0.000773601
0.000782559
0.000782548
0.000786995
0.000782549
0.000786988
0.000778041
0.0007736
0.000778042
0.000778047
0.000773611
0.000782549
0.000782554
0.000786999
0.000786989
0.000782548
0.000782554
0.000786998
0.000764653
0.000769092
0.000769103
0.000764659
0.000769102
0.000764658
0.000764653
0.000760145
0.000760147
0.000755705
0.000760151
0.000755715
0.000764663
0.000769098
0.000764653
0.000769093
0.000764653
0.000760154
0.000760145
0.000755711
0.000755705
0.000760145
0.000760156
0.000755706
0.000764653
0.000769103
0.000769093
0.000764659
0.000769102
0.000764653
0.000764658
0.000760145
0.000760147
0.000755705
0.000760151
0.000755715
0.000764663
0.000769099
0.000764653
0.000769092
0.000764652
0.000760154
0.000760145
0.000755705
0.00075571
0.000760156
0.000760145
0.000755705
0.000778049
0.000773602
0.000773602
0.000778042
0.000778042
0.000773595
0.00078256
0.000786984
0.000782547
0.000786991
0.000782549
0.000782548
0.00078698
0.00078256
0.000786984
0.000782547
0.000786991
0.000782549
0.000782549
0.00078698
0.000778033
0.000773602
0.000778048
0.000773601
0.000778044
0.000778037
0.000773612
0.000778033
0.000773602
0.000778048
0.000773601
0.000778036
0.000778044
0.000773612
0.000782542
0.00078699
0.00078699
0.00078255
0.00078255
0.000786997
0.00078255
0.000778041
0.000760145
0.000764655
0.000764647
0.000769094
0.000769095
0.000769101
0.000764654
0.000764654
0.000760137
0.000755705
0.000760153
0.000755706
0.000760141
0.000760148
0.000755716
0.000760137
0.000755705
0.000760153
0.000755706
0.000760148
0.000760141
0.000755716
0.000764664
0.000769096
0.000769089
0.000764652
0.000764653
0.000769085
0.000764654
0.000764664
0.000769096
0.000769089
0.000764652
0.000769085
0.000764654
0.000764654
0.000760153
0.000755706
0.000755706
0.000760146
0.000760146
0.000755698
0.000760146
0.000764655
0.00077805
0.000773605
0.0007736
0.00077804
0.000778041
0.000778051
0.000773601
0.000782559
0.000782548
0.000786994
0.000782548
0.000786988
0.00077804
0.0007736
0.000778042
0.000778047
0.000773611
0.000782549
0.000782555
0.000786989
0.000786999
0.000782553
0.000782548
0.000786998
0.00077805
0.000773606
0.0007736
0.00077804
0.000778041
0.000778051
0.000773601
0.000782559
0.000782548
0.000786994
0.000782548
0.000786988
0.000778041
0.0007736
0.000778042
0.000778047
0.000773611
0.000782549
0.000782555
0.000786988
0.000786999
0.000782554
0.000782548
0.000786998
0.000764653
0.000769093
0.000769103
0.000764659
0.000769102
0.000764657
0.000764652
0.000760144
0.000760146
0.000755704
0.00076015
0.000755715
0.000764663
0.000769098
0.000764652
0.000769092
0.000764652
0.000760154
0.000760144
0.000755709
0.000755705
0.000760145
0.000760155
0.000755705
0.000764653
0.000769093
0.000769103
0.000764659
0.000769102
0.000764658
0.000764653
0.000760145
0.000760147
0.000755705
0.000760151
0.000755715
0.000764663
0.000769099
0.000764653
0.000769093
0.000764652
0.000760154
0.000760144
0.00075571
0.000755705
0.000760145
0.000760155
0.000755705
0.000782551
0.000778042
0.000782551
0.000778042
0.000764647
0.000769094
0.000769094
0.000769101
0.000764654
0.000764654
0.000760137
0.000755706
0.000760153
0.000755706
0.000755717
0.000760141
0.000760148
0.000760137
0.000755706
0.000760153
0.000755706
0.000755716
0.000760141
0.000760148
0.000764664
0.000769096
0.000769089
0.000764652
0.000769085
0.000764654
0.000764654
0.000764664
0.000769096
0.000769089
0.000764652
0.000769085
0.000764654
0.000764654
0.000760153
0.000755706
0.000755706
0.000755699
0.000760146
0.000760146
0.000760146
0.000764655
0.000760146
0.000764655
0.000746759
0.000746759
0.000746768
0.000751192
0.0007512
0.000746756
0.000751188
0.000746758
0.000746757
0.000746768
0.000751192
0.0007512
0.000746756
0.000751188
0.000746758
0.000746757
0.000746751
0.000751199
0.000751199
0.000751205
0.000746758
0.000746759
0.000746768
0.000751203
0.000746757
0.000751197
0.000746757
0.000746757
0.000746762
0.000751208
0.000751197
0.000746757
0.000751207
0.000746761
0.000746768
0.000751193
0.0007512
0.000746756
0.000746759
0.000751189
0.000746757
0.000746768
0.000751193
0.000751201
0.000746757
0.000746757
0.000751189
0.000746759
0.000746751
0.000751199
0.000751199
0.000746759
0.000751206
0.000746759
0.000746767
0.000751203
0.000746757
0.000751197
0.000746757
0.000746757
0.000746762
0.000751207
0.000751197
0.000746757
0.000751206
0.000746762
0.000742258
0.000742248
0.000737809
0.000742248
0.000742259
0.000746768
0.000751203
0.000746757
0.000746757
0.000751198
0.000746758
0.000746763
0.000751197
0.000751208
0.000746763
0.000751207
0.000746757
0.000742249
0.000742258
0.000742248
0.000737809
0.000737813
0.000742259
0.000742249
0.000737809
0.000746768
0.000751203
0.000746757
0.000751197
0.000746757
0.000746757
0.000746763
0.000751208
0.000751197
0.000751206
0.000746757
0.000746762
0.000742249
0.000737808
0.000742251
0.000742255
0.000737819
0.000746768
0.000751193
0.0007512
0.000746756
0.000746758
0.000751189
0.000746757
0.000746768
0.000751192
0.0007512
0.000746756
0.000746757
0.000751189
0.000746758
0.000746751
0.000751198
0.000751198
0.000746758
0.000751205
0.000746758
0.000746759
0.000742258
0.000742248
0.000737813
0.000737809
0.000742249
0.000742259
0.000737809
0.000746767
0.000751203
0.000746757
0.000746757
0.000751197
0.000746757
0.000746763
0.000751197
0.000751207
0.000746762
0.000751206
0.000746757
0.000742249
0.000737808
0.000742255
0.000737819
0.000742258
0.000742248
0.000737813
0.000737809
0.000742248
0.000742259
0.000737809
0.000746767
0.000751203
0.000746757
0.000751197
0.000746757
0.000746757
0.000746763
0.000751197
0.000751207
0.000751206
0.000746762
0.000746757
0.000742248
0.000737808
0.00074225
0.000742255
0.000737819
0.000746759
0.00074225
0.000746759
0.00074225
0.000784781
0.00078478
0.000775854
0.000775833
0.000775832
0.000775823
0.000784771
0.000782672
0.000786916
0.000786916
0.000782626
0.000782635
0.000782634
0.000786873
0.000748987
0.000748988
0.000740031
0.00074898
0.000746881
0.000751122
0.000751126
0.000746838
0.000751081
0.00074684
0.000746844
0.000782672
0.000786914
0.000786914
0.000782626
0.000782633
0.000782632
0.000786872
0.00076003
0.000760025
0.000755789
0.000755789
0.000760072
0.000760072
0.000755828
0.000782672
0.000786914
0.000786914
0.000782627
0.000782632
0.000782632
0.000786873
0.00076003
0.000760025
0.00075579
0.00075579
0.000760072
0.000760073
0.000755829
0.000782671
0.000786913
0.000786914
0.000782626
0.000782632
0.000782632
0.000786872
0.00076003
0.000760025
0.000755789
0.000755789
0.000760072
0.000760072
0.000755828
0.000760029
0.000760026
0.000755789
0.000755791
0.000755828
0.000760071
0.000760072
0.000746879
0.000751122
0.000751122
0.000746835
0.000751081
0.00074684
0.00074684
0.00074688
0.000751122
0.000751123
0.000746836
0.000746841
0.000751081
0.00074684
0.000746879
0.000751121
0.000751122
0.000746835
0.00074684
0.000751081
0.000746839
0.00078478
0.00078478
0.000775853
0.000775832
0.000775832
0.000775823
0.000784771
0.00078478
0.00078478
0.000775853
0.000775832
0.000775833
0.000775823
0.000784771
0.00078478
0.00078478
0.000775852
0.000775832
0.000775832
0.000775823
0.000784771
0.000766906
0.000757936
0.000757936
0.000766885
0.000766884
0.000766876
0.000757929
0.000766904
0.000757935
0.000757936
0.000766884
0.000766884
0.000766876
0.000757929
0.000766904
0.000757936
0.000757937
0.000766884
0.000766885
0.000766876
0.000757929
0.000766901
0.000757936
0.000757935
0.000766884
0.000766884
0.000766876
0.000757929
0.000777984
0.000773679
0.000773634
0.000777978
0.00077798
0.000777986
0.00077364
0.000782585
0.00078697
0.000782591
0.000786936
0.00078255
0.000782616
0.000786944
0.000777996
0.000773669
0.000778001
0.000773602
0.000778022
0.000777988
0.000773638
0.000782588
0.000782628
0.000786927
0.000786934
0.000782626
0.000782582
0.000786932
0.000777984
0.000773634
0.000773678
0.000777977
0.000777986
0.00077798
0.00077364
0.000782585
0.00078697
0.000782591
0.000786936
0.00078255
0.000782616
0.000786944
0.000777996
0.000773668
0.000778001
0.000773602
0.000778022
0.000777988
0.000773638
0.000782587
0.000782628
0.000786934
0.000786927
0.000782582
0.000782626
0.000786931
0.000777926
0.000777921
0.000773686
0.000773686
0.000777968
0.000777968
0.000773724
0.000748987
0.000748988
0.000740039
0.000740033
0.000748981
0.000748988
0.000748989
0.00074004
0.000740032
0.000748981
0.000748988
0.000748987
0.000740049
0.00074004
0.000740039
0.000740034
0.000748982
0.000742193
0.000742186
0.000737886
0.000737842
0.000742188
0.000742195
0.000737849
0.000746794
0.000751178
0.000751145
0.0007468
0.000751152
0.000746758
0.000746825
0.000746796
0.000746836
0.000751136
0.000751143
0.00075114
0.000746835
0.000746791
0.000742192
0.000742185
0.000737842
0.000737886
0.000742194
0.000742188
0.000737848
0.000746793
0.000751178
0.000751144
0.000746799
0.000751152
0.000746758
0.000746824
0.000746795
0.000746836
0.000751142
0.000751136
0.00075114
0.00074679
0.000746834
0.000742204
0.000737876
0.000742196
0.000737846
0.000742135
0.000742131
0.000737893
0.000737893
0.000742173
0.000742177
0.000737933
0.000777925
0.00077792
0.000773687
0.000773687
0.000773724
0.000777967
0.000777968
0.000764777
0.000764731
0.000769021
0.000769021
0.000768978
0.000764739
0.000764739
0.000777984
0.000773679
0.000773634
0.000777978
0.00077798
0.000777986
0.00077364
0.000782585
0.00078697
0.000782591
0.000786936
0.000782616
0.00078255
0.000786944
0.000777996
0.000773668
0.000778001
0.000773602
0.000777988
0.000778022
0.000773638
0.000782587
0.000782628
0.000786928
0.000786934
0.000782626
0.000782582
0.000786931
0.000777984
0.000773679
0.000773634
0.000777978
0.00077798
0.000777986
0.00077364
0.000782586
0.00078697
0.000782591
0.000786936
0.000782617
0.00078255
0.000786943
0.000777996
0.000773669
0.000778001
0.000773602
0.000777989
0.000773638
0.000778022
0.000782588
0.000782628
0.000786928
0.000786934
0.000782626
0.000782582
0.000786931
0.000764692
0.000769032
0.000769038
0.000764732
0.000769036
0.000764731
0.000764686
0.000760101
0.000755706
0.000760105
0.000755773
0.000760126
0.000760092
0.000755742
0.00076469
0.00076904
0.000769074
0.000764695
0.000764654
0.000769049
0.00076472
0.000760088
0.000760082
0.000755783
0.000755738
0.000760084
0.00076009
0.000755744
0.000764692
0.000769032
0.000769038
0.000764732
0.000769036
0.000764731
0.000764686
0.0007601
0.000755706
0.000760105
0.000755773
0.000760093
0.000760126
0.000755742
0.00076469
0.00076904
0.000769074
0.000764695
0.000769048
0.00076472
0.000764654
0.000760088
0.000760082
0.000755783
0.000755738
0.000760084
0.00076009
0.000755744
0.000777925
0.00077792
0.000773687
0.000773687
0.000777967
0.000777967
0.000773724
0.000764777
0.000764731
0.000769021
0.000769021
0.000764739
0.000768978
0.00076474
0.000777984
0.000773678
0.000773634
0.000777978
0.00077798
0.000777986
0.00077364
0.000782585
0.00078697
0.000782591
0.000786936
0.000782616
0.00078255
0.000786943
0.000777996
0.000773668
0.000778001
0.000773602
0.000777988
0.000778022
0.000773638
0.000782588
0.000782628
0.000786927
0.000786933
0.000782626
0.000782582
0.000786931
0.000777984
0.000773634
0.000773678
0.000777977
0.000777986
0.00077798
0.00077364
0.000782585
0.00078697
0.000782591
0.000786936
0.000782616
0.000782549
0.000786944
0.000777996
0.000773668
0.000778001
0.000773601
0.000777988
0.000773638
0.000778022
0.000782587
0.000782627
0.000786933
0.000786927
0.000782582
0.000782626
0.000786931
0.000764692
0.000769032
0.000769038
0.000764732
0.000769036
0.000764731
0.000764686
0.0007601
0.000755706
0.000760105
0.000755773
0.000760126
0.000760092
0.000755742
0.00076469
0.00076904
0.000769074
0.000764695
0.000764654
0.000769048
0.00076472
0.000760088
0.000760082
0.000755783
0.000755738
0.000760084
0.00076009
0.000755744
0.000764692
0.000769038
0.000769032
0.000764732
0.000769036
0.000764686
0.000764731
0.0007601
0.000755705
0.000760105
0.000755772
0.000760092
0.000760126
0.000755741
0.00076469
0.00076904
0.000769074
0.000764695
0.000769048
0.00076472
0.000764653
0.000760088
0.000760082
0.000755738
0.000755783
0.00076009
0.000760084
0.000755744
0.000777984
0.000773634
0.000773679
0.000777978
0.000777986
0.00077798
0.00077364
0.000782585
0.00078697
0.000782591
0.000786936
0.00078255
0.000782616
0.000786944
0.000777996
0.000773668
0.000778001
0.000773602
0.000778022
0.000777988
0.000773638
0.000782587
0.000782628
0.000786934
0.000786928
0.000782582
0.000782626
0.000786932
0.000764692
0.000769032
0.000769039
0.000764733
0.000769037
0.000764731
0.000764686
0.000760101
0.000755706
0.000760106
0.000755773
0.000755742
0.000760126
0.000760093
0.00076469
0.00076904
0.000769074
0.000764695
0.000769049
0.000764654
0.000764721
0.000760089
0.000760082
0.000755783
0.000755738
0.000755744
0.000760084
0.000760091
0.000764692
0.000769039
0.000769032
0.000764732
0.000769036
0.000764686
0.000764731
0.000760101
0.000755706
0.000760105
0.000755773
0.000760092
0.000760127
0.000755742
0.00076469
0.00076904
0.000769074
0.000764695
0.000769049
0.00076472
0.000764654
0.000760089
0.000760082
0.000755739
0.000755783
0.000760091
0.000760084
0.000755744
0.000777925
0.00077792
0.000773686
0.000773686
0.000777967
0.000777967
0.000773724
0.000764776
0.000764731
0.000769021
0.000769021
0.000764739
0.000768978
0.000764739
0.000777984
0.000773634
0.000773678
0.000777977
0.000777986
0.00077798
0.00077364
0.000782585
0.00078697
0.000782591
0.000786936
0.00078255
0.000782616
0.000786944
0.000777996
0.000773668
0.000778001
0.000773602
0.000778022
0.000777988
0.000773638
0.000782588
0.000782628
0.000786934
0.000786927
0.000782582
0.000782626
0.000786932
0.000764692
0.000769038
0.000769032
0.000764732
0.000769036
0.000764686
0.00076473
0.0007601
0.000755706
0.000760105
0.000755772
0.000755741
0.000760126
0.000760092
0.00076469
0.00076904
0.000769074
0.000764695
0.000769048
0.000764654
0.00076472
0.000760088
0.000760082
0.000755738
0.000755782
0.000755744
0.00076009
0.000760084
0.000764692
0.000769038
0.000769032
0.000764732
0.000769036
0.000764686
0.000764731
0.0007601
0.000755706
0.000760105
0.000755773
0.000760092
0.000760126
0.000755742
0.00076469
0.00076904
0.000769074
0.000764695
0.000769048
0.00076472
0.000764654
0.000760088
0.000760082
0.000755738
0.000755782
0.00076009
0.000760084
0.000755744
0.000764776
0.000764732
0.000769019
0.00076902
0.000768977
0.000764737
0.000764737
0.000746794
0.000751178
0.000751145
0.000746799
0.000746825
0.000751152
0.000746758
0.000746796
0.000746836
0.000751136
0.000751142
0.000746835
0.000751139
0.00074679
0.000746794
0.000751178
0.000751145
0.0007468
0.000751152
0.000746825
0.000746758
0.000746796
0.000746836
0.000751136
0.000751142
0.00075114
0.000746835
0.00074679
0.000746793
0.000751178
0.000751145
0.000746799
0.000746825
0.000751152
0.000746758
0.000746796
0.000746836
0.000751136
0.000751142
0.000746834
0.00075114
0.00074679
0.000746793
0.000751178
0.000751145
0.000746799
0.000751152
0.000746824
0.000746758
0.000746796
0.000746836
0.000751142
0.000751136
0.00075114
0.00074679
0.000746834
0.000742192
0.000742186
0.000737842
0.000737887
0.000742194
0.000742188
0.000737847
0.000746794
0.000751179
0.000751145
0.0007468
0.000746758
0.000751153
0.000746825
0.000746796
0.000746836
0.000751143
0.000751136
0.000746791
0.00075114
0.000746835
0.000742204
0.000737876
0.00074221
0.000737809
0.00074223
0.000742196
0.000737844
0.000742192
0.000742185
0.000737841
0.000737886
0.000742194
0.000742187
0.000737847
0.000746793
0.000751178
0.000751145
0.000746799
0.000746757
0.000751152
0.000746825
0.000746796
0.000746836
0.000751142
0.000751135
0.00074679
0.00075114
0.000746834
0.000742203
0.000737876
0.000742209
0.000737808
0.000742229
0.000742196
0.000737844
0.00168845
0.00168633
0.00168845
0.00168626
0.0016863
0.00168626
0.00168626
0.00168626
0.00168626
0.0016863
0.00168626
0.0016907
0.0016907
0.00168626
0.0016907
0.00168627
0.0016907
0.00169069
0.00168626
0.00169071
0.00168626
0.00169069
0.0016907
0.00168627
0.00169069
0.00168626
0.00169071
0.00168626
0.0016907
0.00169069
0.00168627
0.00169071
0.00168626
0.00168626
0.0016907
0.0016907
0.00168625
0.0016907
0.0016907
0.0016907
0.00168626
0.0016907
0.00168627
0.00169058
0.00169058
0.00168634
0.00168634
0.00169062
0.00169062
0.00168638
0.00169065
0.00168626
0.00169066
0.00168633
0.00169064
0.00169068
0.00168629
0.00169065
0.00168626
0.00169066
0.00168633
0.00169068
0.00169064
0.00168629
0.00167956
0.00167951
0.00167951
0.00168163
0.00164377
0.00164371
0.00164371
0.00164584
0.00160798
0.00160792
0.00160792
0.00161005
0.00157219
0.00157213
0.00157213
0.00157426
0.0015364
0.00153634
0.00153635
0.00153847
0.00150061
0.00150055
0.00150055
0.00150268
0.00146482
0.00146476
0.00146476
0.00146689
0.00142903
0.00142898
0.00142898
0.0014311
0.00139324
0.00139319
0.00139319
0.00139531
0.00135745
0.0013574
0.0013574
0.00135952
0.00132166
0.00132161
0.00132161
0.00132373
0.00128587
0.00128582
0.00128582
0.00128794
0.00125008
0.00125003
0.00125003
0.00125215
0.00121429
0.00121424
0.00121424
0.00121636
0.0011785
0.00117845
0.00117845
0.00118057
0.00114271
0.00114266
0.00114266
0.00114478
0.00110692
0.00110687
0.00110687
0.00110899
0.00107113
0.00107108
0.00107108
0.0010732
0.00103534
0.00103529
0.00103529
0.00103741
0.000999549
0.000999495
0.000999495
0.00100162
0.000963758
0.000963703
0.000963703
0.000965825
0.000927967
0.000927911
0.000927911
0.000930033
0.000892175
0.00089212
0.00089212
0.000894241
0.000856384
0.000856329
0.000856329
0.00085845
0.000820593
0.000820538
0.000820538
0.00082266
0.00168163
0.00165054
0.00167951
0.00167951
0.00165266
0.00165266
0.00168163
0.00165054
0.00167951
0.00167951
0.00165266
0.00165266