/*--------------------------------*- C++ -*----------------------------------*\
| =========                 |                                                 |
| \\      /  F ield         | OpenFOAM: The Open Source CFD Toolbox           |
|  \\    /   O peration     | Version:  2312                                  |
|   \\  /    A nd           | Website:  www.openfoam.com                      |
|    \\/     M anipulation  |                                                 |
\*---------------------------------------------------------------------------*/
FoamFile
{
    version     2.0;
    format      ascii;
    arch        "LSB;label=32;scalar=64";
    class       surfaceScalarField;
    location    "125";
    object      phi;
}
// * * * * * * * * * * * * * * * * * * * * * * * * * * * * * * * * * * * * * //

dimensions      [0 3 -1 0 0 0 0];

oriented        oriented;

internalField   nonuniform List<scalar> 
124457
(
-8.43596e-07
-8.44049e-07
-0.00114634
4.464e-07
4.47089e-07
0.00114714
-0.00113699
-1.50972e-06
8.43948e-07
4.09819e-07
0.00113749
-4.9611e-07
1.12462e-06
1.25784e-07
7.23732e-07
-5.3745e-07
-1.23811e-06
5.60498e-08
-0.00113686
-1.50686e-06
8.43863e-07
4.15433e-07
0.00113735
-4.93431e-07
1.12185e-06
1.22895e-07
7.23717e-07
-5.37377e-07
-1.23808e-06
5.6209e-08
-0.00027639
1.53887e-06
1.50163e-06
-4.91155e-07
-4.94124e-07
0.000274335
-8.23893e-07
-8.24263e-07
-0.00114949
4.38123e-07
4.38829e-07
0.00115026
-0.00113888
-1.5011e-06
8.24161e-07
4.01778e-07
0.00113933
-4.82932e-07
1.13029e-06
1.30738e-07
7.30256e-07
-5.20942e-07
-1.22057e-06
6.2145e-08
-0.00113875
-1.4984e-06
8.2411e-07
4.07387e-07
0.00113919
-4.8012e-07
1.1274e-06
1.27931e-07
7.30209e-07
-5.20748e-07
-1.22052e-06
6.22386e-08
-0.00027647
1.53029e-06
1.49302e-06
-4.77406e-07
-4.80341e-07
0.000274405
-7.94152e-07
-7.94435e-07
-0.00115252
4.24021e-07
4.24696e-07
0.00115326
-0.00114057
-1.49012e-06
7.94467e-07
3.90431e-07
0.00114096
-4.67806e-07
1.13635e-06
1.3703e-07
7.37827e-07
-5.02629e-07
-1.20107e-06
7.00431e-08
-0.00114044
-1.4874e-06
7.94409e-07
3.96117e-07
0.00114083
-4.65001e-07
1.13347e-06
1.34201e-07
7.37839e-07
-5.02586e-07
-1.201e-06
7.01254e-08
-0.000276482
1.51935e-06
1.482e-06
-4.62167e-07
-4.65081e-07
0.000274408
-7.52648e-07
-7.52921e-07
-0.00115543
4.04296e-07
4.04937e-07
0.00115613
-0.00114204
-1.4749e-06
7.5308e-07
3.71162e-07
0.00114237
-4.49738e-07
1.14545e-06
1.46733e-07
7.51333e-07
-4.80565e-07
-1.17622e-06
8.32418e-08
-0.00114191
-1.47214e-06
7.52913e-07
3.76773e-07
0.00114223
-4.46904e-07
1.14262e-06
1.43935e-07
7.51373e-07
-4.80504e-07
-1.17614e-06
8.3373e-08
-0.000276431
1.5041e-06
1.46674e-06
-4.42961e-07
-4.45852e-07
0.000274349
-6.79885e-07
-6.80046e-07
-0.00115811
3.66511e-07
3.67149e-07
0.00115874
-0.00114322
-1.45239e-06
6.80118e-07
3.40026e-07
0.00114348
-4.26053e-07
1.16005e-06
1.61873e-07
7.71418e-07
-4.50588e-07
-1.14438e-06
1.04162e-07
-0.00114309
-1.44964e-06
6.79955e-07
3.45739e-07
0.00114334
-4.2324e-07
1.1572e-06
1.59074e-07
7.71437e-07
-4.50551e-07
-1.14431e-06
1.04254e-07
-0.000276314
1.48166e-06
1.44428e-06
-4.17636e-07
-4.2052e-07
0.000274227
-5.73471e-07
-5.73327e-07
-0.00116048
3.1323e-07
3.13888e-07
0.001161
-0.0011441
-1.42002e-06
5.73661e-07
2.88673e-07
0.00114426
-3.94461e-07
1.18569e-06
1.86964e-07
8.03016e-07
-4.15669e-07
-1.10397e-06
1.32914e-07
-0.00114397
-1.41722e-06
5.73422e-07
2.94166e-07
0.00114413
-3.91588e-07
1.18289e-06
1.84262e-07
8.03021e-07
-4.15607e-07
-1.10389e-06
1.33011e-07
-0.000276148
1.44922e-06
1.41184e-06
-3.84288e-07
-3.87101e-07
0.000274058
-3.94615e-07
-3.94498e-07
-0.00116231
2.20569e-07
2.20946e-07
0.00116266
-0.00114457
-1.37395e-06
3.94241e-07
2.03469e-07
0.00114464
-3.54711e-07
1.22472e-06
2.20996e-07
8.52378e-07
-3.66262e-07
-1.04684e-06
1.77049e-07
-0.00114444
-1.37116e-06
3.94291e-07
2.09195e-07
0.0011445
-3.51901e-07
1.2219e-06
2.18199e-07
8.52287e-07
-3.66238e-07
-1.04683e-06
1.77076e-07
-0.00027596
1.40327e-06
1.36581e-06
-3.4051e-07
-3.43346e-07
0.000273875
-2.14532e-07
-2.14593e-07
-0.00116344
1.2024e-07
1.20226e-07
0.00116363
-0.00114477
-1.33446e-06
2.14273e-07
1.13263e-07
0.0011448
-3.22822e-07
1.2589e-06
2.49013e-07
8.9315e-07
-3.24265e-07
-9.99912e-07
2.15372e-07
-0.00114464
-1.33173e-06
2.14537e-07
1.19185e-07
0.00114467
-3.20054e-07
1.25603e-06
2.46185e-07
8.93079e-07
-3.24288e-07
-9.99915e-07
2.15364e-07
-0.000275824
1.36387e-06
1.32626e-06
-3.07214e-07
-3.10146e-07
0.000273751
-1.22522e-07
-1.22337e-07
-0.00116405
7.13291e-08
7.11998e-08
0.00116415
-0.00114485
-1.31346e-06
1.22016e-07
6.67565e-08
0.00114486
-3.05344e-07
1.27685e-06
2.64231e-07
9.16588e-07
-3.00336e-07
-9.73221e-07
2.37064e-07
-0.00114472
-1.31073e-06
1.22317e-07
7.26583e-08
0.00114472
-3.02549e-07
1.27398e-06
2.61425e-07
9.16453e-07
-3.00359e-07
-9.73245e-07
2.3705e-07
-0.000275755
1.34286e-06
1.30528e-06
-2.88543e-07
-2.91397e-07
0.000273686
-6.54946e-08
-6.5115e-08
-0.00116437
4.13644e-08
4.12851e-08
0.00116442
-0.00114483
-1.30068e-06
6.49721e-08
3.80643e-08
0.00114482
-2.9475e-07
1.28798e-06
2.73678e-07
9.31353e-07
-2.85209e-07
-9.56686e-07
2.50955e-07
-0.0011447
-1.29792e-06
6.51333e-08
4.37849e-08
0.00114468
-2.91957e-07
1.28513e-06
2.70876e-07
9.31251e-07
-2.85201e-07
-9.56693e-07
2.50981e-07
-0.000275704
1.33005e-06
1.2925e-06
-2.76838e-07
-2.79638e-07
0.000273638
-2.21583e-08
-2.16905e-08
-0.00116451
9.28278e-09
1.51624e-08
0.00116453
-0.00114476
-1.29265e-06
2.16851e-08
1.7498e-08
0.00114475
-2.88215e-07
1.29479e-06
2.79388e-07
9.40112e-07
-2.75959e-07
-9.46731e-07
2.59362e-07
-0.00114463
-1.28989e-06
2.16348e-08
2.31278e-08
0.00114462
-2.85418e-07
1.29194e-06
2.76592e-07
9.40075e-07
-2.75913e-07
-9.46668e-07
2.59419e-07
-0.000275669
1.322e-06
1.2845e-06
-2.70305e-07
-2.73055e-07
0.000273606
-1.67284e-09
-1.10548e-09
-0.00116454
-4.9803e-09
3.55964e-10
0.00116454
-0.00114472
-1.28997e-06
1.06369e-09
8.42435e-09
0.00114472
-2.86088e-07
1.29685e-06
2.8118e-07
9.43213e-07
-2.72556e-07
-9.43096e-07
2.62364e-07
-0.00114459
-1.28722e-06
1.09521e-09
1.40073e-08
0.00114458
-2.83289e-07
1.294e-06
2.78381e-07
9.43138e-07
-2.72525e-07
-9.43069e-07
2.62404e-07
-0.000275654
1.31933e-06
1.28183e-06
-2.68591e-07
-2.71355e-07
0.000273593
4.2502e-09
4.8801e-09
-0.00116454
-9.81375e-09
-4.3809e-09
0.00116454
-0.0011447
-1.28948e-06
-4.95233e-09
6.22262e-09
0.0011447
-2.85692e-07
1.29721e-06
2.81501e-07
9.43606e-07
-2.72035e-07
-9.42588e-07
2.6281e-07
-0.00114457
-1.28674e-06
-4.89894e-09
1.18111e-08
0.00114456
-2.82898e-07
1.29434e-06
2.78704e-07
9.43531e-07
-2.72016e-07
-9.42562e-07
2.6284e-07
-0.000275649
1.31889e-06
1.28135e-06
-2.68479e-07
-2.71279e-07
0.000273589
5.45153e-09
6.01162e-09
-0.00116454
-1.10385e-08
-5.6064e-09
0.00116454
-0.00114469
-1.28951e-06
-6.03914e-09
5.96162e-09
0.0011447
-2.85734e-07
1.29717e-06
2.81464e-07
9.4357e-07
-2.72059e-07
-9.42615e-07
2.62783e-07
-0.00114456
-1.28676e-06
-6.02685e-09
1.15041e-08
0.00114456
-2.82932e-07
1.29432e-06
2.7867e-07
9.43501e-07
-2.72033e-07
-9.42583e-07
2.62825e-07
-0.000275648
1.31889e-06
1.28137e-06
-2.68616e-07
-2.71388e-07
0.000273588
5.63406e-09
6.21351e-09
-0.00116454
-1.13003e-08
-5.83059e-09
0.00116454
-0.00114469
-1.28952e-06
-6.04494e-09
5.94507e-09
0.0011447
-2.85726e-07
1.29716e-06
2.81476e-07
9.43511e-07
-2.72123e-07
-9.42672e-07
2.62725e-07
-0.00114456
-1.28678e-06
-6.21225e-09
1.15007e-08
0.00114456
-2.82943e-07
1.2943e-06
2.78663e-07
9.43493e-07
-2.72047e-07
-9.42592e-07
2.62813e-07
-0.000275648
1.31888e-06
1.2814e-06
-2.68655e-07
-2.71394e-07
0.000273588
5.59906e-09
6.17768e-09
-0.00116454
-1.12969e-08
-5.82841e-09
0.00116454
-0.00114469
-1.28952e-06
-6.04659e-09
5.96545e-09
0.0011447
-2.85746e-07
1.29715e-06
2.8145e-07
9.43503e-07
-2.72139e-07
-9.42686e-07
2.62712e-07
-0.00114456
-1.28679e-06
-6.1781e-09
1.15252e-08
0.00114456
-2.82959e-07
1.29429e-06
2.78645e-07
9.43466e-07
-2.72075e-07
-9.4262e-07
2.62786e-07
-0.000275648
1.31889e-06
1.2814e-06
-2.68658e-07
-2.71416e-07
0.000273588
5.57621e-09
6.10873e-09
-0.00116454
-1.12417e-08
-5.80996e-09
0.00116454
-0.00114469
-1.28955e-06
-6.14092e-09
5.99073e-09
0.0011447
-2.85765e-07
1.29713e-06
2.81432e-07
9.43524e-07
-2.72123e-07
-9.42666e-07
2.62726e-07
-0.00114456
-1.28681e-06
-6.15951e-09
1.15638e-08
0.00114456
-2.82972e-07
1.29427e-06
2.78634e-07
9.43462e-07
-2.72082e-07
-9.42625e-07
2.62779e-07
-0.000275648
1.31893e-06
1.28141e-06
-2.68664e-07
-2.71446e-07
0.000273588
5.57319e-09
6.09298e-09
-0.00116454
-1.12083e-08
-5.79845e-09
0.00116454
-0.00114469
-1.28956e-06
-6.19128e-09
5.95925e-09
0.0011447
-2.8576e-07
1.29711e-06
2.8144e-07
9.43538e-07
-2.72107e-07
-9.42652e-07
2.62742e-07
-0.00114456
-1.28681e-06
-6.13794e-09
1.1559e-08
0.00114456
-2.82966e-07
1.29426e-06
2.78643e-07
9.43462e-07
-2.72084e-07
-9.42626e-07
2.62778e-07
-0.000275648
1.31896e-06
1.28142e-06
-2.68662e-07
-2.71466e-07
0.000273588
5.61745e-09
6.13092e-09
-0.00116454
-5.77421e-09
-5.8157e-09
0.00116454
-0.00114469
-1.28953e-06
-6.26517e-09
5.93872e-09
0.0011447
-2.85767e-07
1.29713e-06
2.81434e-07
9.43553e-07
-2.72092e-07
-9.42643e-07
2.62758e-07
-0.00114456
-1.28677e-06
-6.15109e-09
1.1527e-08
0.00114456
-2.82968e-07
1.2943e-06
2.78638e-07
9.43453e-07
-2.72091e-07
-9.42638e-07
2.62774e-07
-0.000275648
1.31894e-06
1.28139e-06
-2.68649e-07
-2.71462e-07
0.000273588
5.55581e-09
6.19865e-09
-0.00116454
-5.84658e-09
-5.85004e-09
0.00116454
-0.00114469
-1.2895e-06
-6.282e-09
5.93887e-09
0.0011447
-2.85767e-07
1.29717e-06
2.81432e-07
9.43537e-07
-2.721e-07
-9.42654e-07
2.6275e-07
-0.00114456
-1.28679e-06
-6.17868e-09
1.15411e-08
0.00114456
-2.82958e-07
1.29429e-06
2.78645e-07
9.43459e-07
-2.72078e-07
-9.42627e-07
2.62784e-07
-0.000275648
1.31891e-06
1.28138e-06
-2.68645e-07
-2.71438e-07
0.000273587
5.61241e-09
6.19596e-09
-0.00116454
-5.85695e-09
-5.85254e-09
0.00116454
-0.00114469
-1.28954e-06
-6.23183e-09
5.98111e-09
0.0011447
-2.85765e-07
1.29715e-06
2.81441e-07
9.43537e-07
-2.72106e-07
-9.42656e-07
2.62749e-07
-0.00114456
-1.28682e-06
-6.22554e-09
1.15492e-08
0.00114456
-2.82958e-07
1.29426e-06
2.78654e-07
9.4349e-07
-2.72065e-07
-9.42602e-07
2.62802e-07
-0.000275648
1.31891e-06
1.2814e-06
-2.68659e-07
-2.71434e-07
0.000273587
5.57494e-09
6.17878e-09
-0.00116454
-5.85885e-09
-5.82481e-09
0.00116454
-0.00114469
-1.28954e-06
-6.14932e-09
6.01918e-09
0.00114469
-2.85772e-07
1.29714e-06
2.81436e-07
9.43517e-07
-2.72119e-07
-9.42676e-07
2.62738e-07
-0.00114456
-1.2868e-06
-6.20445e-09
1.155e-08
0.00114456
-2.8297e-07
1.29427e-06
2.78645e-07
9.43476e-07
-2.72077e-07
-9.42619e-07
2.62795e-07
-0.000275648
1.31892e-06
1.28141e-06
-2.6867e-07
-2.7144e-07
0.000273587
5.59543e-09
6.16179e-09
-0.00116453
-5.84428e-09
-5.83994e-09
0.00116453
-0.00114469
-1.28953e-06
-6.17362e-09
5.98122e-09
0.00114469
-2.85771e-07
1.29717e-06
2.81438e-07
9.43525e-07
-2.72124e-07
-9.4267e-07
2.62737e-07
-0.00114456
-1.28678e-06
-6.19214e-09
1.1555e-08
0.00114456
-2.82983e-07
1.2943e-06
2.78629e-07
9.43474e-07
-2.72093e-07
-9.42623e-07
2.62782e-07
-0.000275648
1.31892e-06
1.2814e-06
-2.68668e-07
-2.71447e-07
0.000273587
5.59238e-09
6.1554e-09
-0.00116453
-5.83604e-09
-5.83476e-09
0.00116453
-0.00114469
-1.28955e-06
-6.19103e-09
5.95351e-09
0.00114469
-2.85759e-07
1.29718e-06
2.8145e-07
9.4353e-07
-2.72124e-07
-9.42676e-07
2.62738e-07
-0.00114456
-1.28682e-06
-6.20918e-09
1.15465e-08
0.00114456
-2.82972e-07
1.2943e-06
2.78638e-07
9.43478e-07
-2.72088e-07
-9.42624e-07
2.62783e-07
-0.000275647
1.31894e-06
1.28142e-06
-2.68675e-07
-2.7146e-07
0.000273587
5.59009e-09
6.03739e-09
-0.00116453
-5.74413e-09
-5.84516e-09
0.00116453
-0.00114469
-1.28962e-06
-6.15145e-09
5.95754e-09
0.00114469
-2.85752e-07
1.29708e-06
2.81479e-07
9.43539e-07
-2.72109e-07
-9.42681e-07
2.62763e-07
-0.00114456
-1.28691e-06
-6.02243e-09
1.1688e-08
0.00114456
-2.82989e-07
1.29418e-06
2.78644e-07
9.43469e-07
-2.72097e-07
-9.42646e-07
2.62784e-07
-0.000275647
1.31903e-06
1.28148e-06
-2.6868e-07
-2.71501e-07
0.000273587
5.43157e-09
5.90139e-09
-0.00116453
-5.65959e-09
-5.74714e-09
0.00116453
-0.00114469
-1.28958e-06
-5.99723e-09
6.0504e-09
0.00114469
-2.85833e-07
1.29707e-06
2.81412e-07
9.43488e-07
-2.72171e-07
-9.42747e-07
2.62731e-07
-0.00114456
-1.28686e-06
-5.86857e-09
1.18005e-08
0.00114456
-2.83086e-07
1.29418e-06
2.78556e-07
9.434e-07
-2.72176e-07
-9.42731e-07
2.62732e-07
-0.000275648
1.31898e-06
1.28144e-06
-2.68702e-07
-2.71505e-07
0.000273587
-0.00114456
-1.28684e-06
-5.7323e-09
-2.83134e-07
1.29425e-06
2.78499e-07
-2.72281e-07
2.62632e-07
-1.16353e-06
-1.123e-06
0.000276465
-0.000274366
9.06586e-08
9.6002e-08
0.00113645
8.50045e-07
4.1947e-07
-1.55227e-06
1.3008e-07
-5.05011e-07
-1.24835e-06
5.41826e-08
-5.4211e-07
7.27457e-07
1.16088e-06
0.00113652
8.49923e-07
4.19318e-07
-1.54964e-06
1.29974e-07
-5.0506e-07
-1.24805e-06
5.14488e-08
-5.39235e-07
7.27449e-07
-1.12285e-06
0.000276446
-0.000274346
9.07995e-08
9.32981e-08
0.00113744
8.50474e-07
4.18264e-07
-1.51218e-06
1.2446e-07
-4.99575e-07
-1.24808e-06
5.45105e-08
-5.41962e-07
7.27542e-07
1.15535e-06
0.0011364
8.49849e-07
-0.0011359
4.19314e-07
-1.54405e-06
1.29946e-07
-5.05124e-07
-1.24804e-06
5.15517e-08
-5.39165e-07
7.27442e-07
8.50343e-07
4.23756e-07
-1.51185e-06
1.24533e-07
-4.99397e-07
-1.24254e-06
5.43212e-08
7.22012e-07
-5.4191e-07
1.15238e-06
0.00113602
8.49705e-07
4.1935e-07
-1.54098e-06
1.27314e-07
-5.02019e-07
-1.23967e-06
4.85061e-08
-5.36449e-07
7.19081e-07
-1.12012e-06
0.000276421
-0.000274332
9.09365e-08
9.59384e-08
8.50258e-07
-0.00113636
4.18308e-07
-1.50901e-06
1.21596e-07
-4.96701e-07
-1.24255e-06
5.44766e-08
7.21956e-07
-5.41844e-07
1.11451e-06
0.00113701
8.50287e-07
4.18114e-07
-1.50375e-06
1.24412e-07
-4.99501e-07
-1.24489e-06
5.46311e-08
-5.41767e-07
7.24641e-07
-0.000274308
9.06162e-08
9.34192e-08
1.55015e-06
1.51004e-06
-4.9122e-07
-4.96774e-07
0.000274393
-1.16959e-06
-1.12906e-06
0.000276545
-0.000274452
9.99365e-08
1.05266e-07
4.16543e-07
0.00113694
-5.0172e-07
1.1653e-06
1.31325e-07
7.29217e-07
-5.37624e-07
-1.24388e-06
5.59298e-08
-1.54754e-06
8.43488e-07
4.16437e-07
0.00113701
-5.01778e-07
1.16264e-06
1.31218e-07
7.29216e-07
-5.34753e-07
-1.24358e-06
5.32e-08
0.00113834
8.29835e-07
-0.00113788
4.10899e-07
-1.54386e-06
1.34938e-07
-4.9201e-07
-1.23106e-06
6.01431e-08
-5.25419e-07
7.33772e-07
1.16693e-06
0.00113841
8.29714e-07
-0.00113796
4.1081e-07
-1.54124e-06
1.34857e-07
-4.92039e-07
-1.23075e-06
5.7425e-08
-5.22549e-07
7.33772e-07
-4.91545e-07
-4.93742e-07
0.000274374
-1.12891e-06
0.000276526
-0.000274433
1.00072e-07
1.02561e-07
4.15347e-07
0.00113794
-4.96277e-07
1.12476e-06
1.25709e-07
7.29305e-07
-5.37483e-07
-1.24361e-06
5.62474e-08
-1.54195e-06
8.43451e-07
4.16401e-07
0.0011369
-5.01901e-07
1.1571e-06
1.31225e-07
7.29193e-07
-5.347e-07
-1.24358e-06
5.32826e-08
0.00113934
8.30183e-07
-0.00113888
4.09581e-07
-1.5037e-06
1.29366e-07
-4.86535e-07
-1.23077e-06
6.04691e-08
-5.25279e-07
7.33875e-07
1.16135e-06
0.00113829
8.2949e-07
-0.00113784
4.10763e-07
-1.53567e-06
1.34951e-07
-4.91987e-07
-1.23077e-06
5.75261e-08
-5.22473e-07
7.33742e-07
8.43282e-07
4.16465e-07
0.00113651
-4.98747e-07
1.15414e-06
1.28557e-07
7.2085e-07
-5.31978e-07
5.02521e-08
-1.2352e-06
8.29934e-07
-0.00113843
4.15182e-07
-1.50338e-06
1.29432e-07
-4.8637e-07
-1.22522e-06
6.02727e-08
7.28371e-07
-5.25214e-07
1.15843e-06
0.00113791
8.2935e-07
-0.00113746
4.10869e-07
-1.53256e-06
1.32192e-07
-4.89014e-07
-1.22235e-06
5.44699e-08
-5.19768e-07
7.25429e-07
-4.91534e-07
-4.9635e-07
0.00027436
-1.12602e-06
0.000276501
-0.000274419
1.00048e-07
1.05162e-07
8.43911e-07
4.15216e-07
0.0011375
-4.96224e-07
1.11627e-06
1.25657e-07
7.26399e-07
-5.37293e-07
5.63644e-08
-1.24043e-06
8.30077e-07
-0.0011383
4.09807e-07
-1.50067e-06
1.26608e-07
-4.83571e-07
-1.22525e-06
6.04248e-08
7.28289e-07
-5.25174e-07
1.12054e-06
0.0011389
8.30059e-07
-0.00113844
4.0955e-07
-1.4953e-06
1.29303e-07
-4.86487e-07
-1.22759e-06
6.06056e-08
-5.25065e-07
7.30973e-07
-0.000274394
9.98613e-08
1.02681e-07
1.54158e-06
1.5014e-06
-4.7744e-07
-4.83001e-07
0.000274463
-1.17586e-06
-1.13531e-06
0.000276557
-0.000274471
1.09654e-07
1.14988e-07
4.08466e-07
0.00113878
-4.88564e-07
1.17097e-06
1.3624e-07
7.35685e-07
-5.20981e-07
-1.22633e-06
6.19719e-08
-1.53897e-06
8.23781e-07
4.08403e-07
0.00113885
-4.88597e-07
1.16829e-06
1.3615e-07
7.3568e-07
-5.1812e-07
-1.22603e-06
5.92506e-08
0.00114002
8.00111e-07
-0.00113962
3.9882e-07
-1.53325e-06
1.41278e-07
-4.76981e-07
-1.21149e-06
6.82518e-08
-5.07001e-07
7.41564e-07
1.17315e-06
0.0011401
7.99996e-07
-0.00113969
3.98864e-07
-1.53068e-06
1.41157e-07
-4.7705e-07
-1.21119e-06
6.55437e-08
-5.04144e-07
7.41559e-07
-4.77764e-07
-4.79981e-07
0.000274444
-1.13513e-06
0.000276538
-0.000274451
1.09773e-07
1.12201e-07
4.07194e-07
0.00113978
-4.83085e-07
1.13045e-06
1.30673e-07
7.35794e-07
-5.20856e-07
-1.22605e-06
6.22904e-08
-1.5334e-06
8.23724e-07
4.08366e-07
0.00113873
-4.88538e-07
1.16273e-06
1.36268e-07
7.35647e-07
-5.18089e-07
-1.22607e-06
5.93547e-08
0.00114103
8.00417e-07
-0.00114062
3.97667e-07
-1.49307e-06
1.35703e-07
-4.71519e-07
-1.21119e-06
6.85535e-08
-5.06877e-07
7.41676e-07
1.1676e-06
0.00113998
7.99886e-07
-0.00113958
3.99048e-07
-1.5251e-06
1.41266e-07
-4.76986e-07
-1.21121e-06
6.54884e-08
-5.04179e-07
7.41527e-07
8.2353e-07
4.08471e-07
0.00113835
-4.85574e-07
1.15981e-06
1.33495e-07
7.27337e-07
-5.15489e-07
5.63526e-08
-1.21768e-06
8.00469e-07
-0.00114017
4.03134e-07
-1.4928e-06
1.35736e-07
-4.71395e-07
-1.20572e-06
6.84157e-08
7.36096e-07
-5.0683e-07
1.16465e-06
0.0011396
7.99873e-07
-0.0011392
3.98731e-07
-1.52199e-06
1.38494e-07
-4.7402e-07
-1.20284e-06
6.26763e-08
-5.01363e-07
7.3317e-07
-4.77883e-07
-4.82631e-07
0.00027443
-1.13228e-06
0.000276513
-0.000274437
1.09776e-07
1.14861e-07
8.24246e-07
4.07165e-07
0.00113934
-4.83037e-07
1.1219e-06
1.30608e-07
7.32881e-07
-5.20663e-07
6.2443e-08
-1.22289e-06
8.00401e-07
-0.00114004
3.97747e-07
-1.49006e-06
1.32948e-07
-4.68559e-07
-1.20569e-06
6.84972e-08
7.36076e-07
-5.06791e-07
1.1268e-06
0.00114058
8.00402e-07
-0.00114018
3.9768e-07
-1.48467e-06
1.35658e-07
-4.71461e-07
-1.20805e-06
6.85712e-08
-5.06745e-07
7.38752e-07
-0.000274412
1.09555e-07
1.12397e-07
1.5306e-06
1.49041e-06
-4.62186e-07
-4.67721e-07
0.000274466
-1.18276e-06
-1.14222e-06
0.000276506
-0.000274429
1.20964e-07
1.26304e-07
3.97222e-07
0.00114041
-4.73406e-07
1.17706e-06
1.42558e-07
7.43308e-07
-5.02807e-07
-1.20681e-06
6.98546e-08
-1.52802e-06
7.94048e-07
3.9725e-07
0.00114049
-4.73472e-07
1.17436e-06
1.42441e-07
7.43296e-07
-4.99951e-07
-1.20651e-06
6.71264e-08
0.00114149
7.68254e-07
-0.00114115
3.85808e-07
-1.52043e-06
1.48623e-07
-4.60897e-07
-1.18953e-06
7.81884e-08
-4.87834e-07
7.52095e-07
1.18007e-06
0.00114156
7.68162e-07
-0.00114122
3.85888e-07
-1.51781e-06
1.48534e-07
-4.60934e-07
-1.18925e-06
7.54419e-08
-4.85007e-07
7.52081e-07
-4.62511e-07
-4.6478e-07
0.000274447
-1.14203e-06
0.000276487
-0.000274409
1.21099e-07
1.23548e-07
3.96056e-07
0.00114142
-4.67941e-07
1.13651e-06
1.3699e-07
7.43435e-07
-5.02678e-07
-1.2065e-06
7.01696e-08
-1.52243e-06
7.93886e-07
3.97419e-07
0.00114037
-4.7342e-07
1.16879e-06
1.42516e-07
7.43294e-07
-4.99981e-07
-1.20652e-06
6.71187e-08
0.00114249
7.68577e-07
-0.00114215
3.84679e-07
-1.48023e-06
1.43069e-07
-4.55436e-07
-1.18924e-06
7.84756e-08
-4.87716e-07
7.52205e-07
1.17449e-06
0.00114145
7.68039e-07
-0.0011411
3.86006e-07
-1.51226e-06
1.48629e-07
-4.60876e-07
-1.18924e-06
7.54602e-08
-4.85002e-07
7.52064e-07
7.93955e-07
3.97166e-07
0.00113999
-4.70471e-07
1.16583e-06
1.39732e-07
7.34908e-07
-4.97181e-07
6.42833e-08
-1.19818e-06
7.68678e-07
-0.0011417
3.90169e-07
-1.47994e-06
1.4311e-07
-4.55301e-07
-1.18376e-06
7.8356e-08
7.46618e-07
-4.87615e-07
1.17158e-06
0.00114106
7.68094e-07
-0.00114072
3.85713e-07
-1.50915e-06
1.45891e-07
-4.57906e-07
-1.18092e-06
7.2626e-08
-4.82204e-07
7.43671e-07
-4.62613e-07
-4.67393e-07
0.000274433
-1.13922e-06
0.000276462
-0.000274395
1.21126e-07
1.26171e-07
7.94396e-07
3.9608e-07
0.00114097
-4.67894e-07
1.12799e-06
1.36913e-07
7.40505e-07
-5.02557e-07
7.0182e-08
-1.20336e-06
7.68571e-07
-0.00114157
3.84739e-07
-1.47717e-06
1.40346e-07
-4.52442e-07
-1.18375e-06
7.84151e-08
7.46589e-07
-4.87627e-07
1.13374e-06
0.00114205
7.68458e-07
-0.00114171
3.84591e-07
-1.47178e-06
1.4308e-07
-4.55318e-07
-1.18607e-06
7.85207e-08
-4.8757e-07
7.49297e-07
-0.00027437
1.20903e-07
1.23746e-07
1.51539e-06
1.47519e-06
-4.43016e-07
-4.48535e-07
0.000274407
-1.19708e-06
-1.15654e-06
0.00027639
-0.000274321
1.39491e-07
1.44858e-07
3.7782e-07
0.00114182
-4.55351e-07
1.18617e-06
1.52226e-07
7.56876e-07
-4.80701e-07
-1.18191e-06
8.31486e-08
-1.51283e-06
7.52558e-07
3.7793e-07
0.00114189
-4.55395e-07
1.18343e-06
1.52128e-07
7.56867e-07
-4.7789e-07
-1.18162e-06
8.03988e-08
0.00114268
6.98042e-07
-0.00114241
3.54209e-07
-1.49853e-06
1.63566e-07
-4.37359e-07
-1.15789e-06
9.91008e-08
-4.57983e-07
7.71857e-07
1.19442e-06
0.00114275
6.97907e-07
-0.00114248
3.54157e-07
-1.4959e-06
1.63482e-07
-4.37394e-07
-1.15758e-06
9.64052e-08
-4.55145e-07
7.71853e-07
-4.43309e-07
-4.45628e-07
0.000274388
-1.1564e-06
0.000276371
-0.000274302
1.39657e-07
1.42149e-07
3.76704e-07
0.00114282
-4.49883e-07
1.14563e-06
1.46681e-07
7.56992e-07
-4.80588e-07
-1.18162e-06
8.34438e-08
-1.50723e-06
7.52444e-07
3.78021e-07
0.00114177
-4.55339e-07
1.17788e-06
1.52212e-07
7.56833e-07
-4.77879e-07
-1.18163e-06
8.04193e-08
0.00114368
6.98149e-07
-0.00114341
3.53155e-07
-1.45833e-06
1.58036e-07
-4.31902e-07
-1.15756e-06
9.9423e-08
-4.57827e-07
7.72001e-07
1.18882e-06
0.00114263
6.97691e-07
-0.00114236
3.54263e-07
-1.49034e-06
1.63561e-07
-4.37357e-07
-1.15755e-06
9.64425e-08
-4.55108e-07
7.7186e-07
7.52463e-07
3.77691e-07
0.00114139
-4.5236e-07
1.17497e-06
1.49463e-07
7.48444e-07
-4.7509e-07
7.75963e-08
-1.17333e-06
6.98142e-07
-0.00114296
3.58472e-07
-1.45799e-06
1.58085e-07
-4.31746e-07
-1.15206e-06
9.93519e-08
7.66468e-07
-4.57723e-07
1.18586e-06
0.00114225
6.9786e-07
-0.00114198
3.54111e-07
-1.48727e-06
1.60793e-07
-4.3441e-07
-1.14929e-06
9.35801e-08
-4.52366e-07
7.63442e-07
-4.43397e-07
-4.48214e-07
0.000274374
-1.15355e-06
0.000276345
-0.000274287
1.39667e-07
1.44743e-07
7.52831e-07
3.7662e-07
0.00114238
-4.49782e-07
1.13713e-06
1.46648e-07
7.54079e-07
-4.80439e-07
8.34916e-08
-1.17846e-06
6.98023e-07
-0.00114283
3.53058e-07
-1.45526e-06
1.55288e-07
-4.28941e-07
-1.15202e-06
9.94047e-08
7.66439e-07
-4.57692e-07
1.14804e-06
0.00114324
6.98051e-07
-0.00114297
3.53096e-07
-1.44989e-06
1.57983e-07
-4.31837e-07
-1.15439e-06
9.94648e-08
-4.57688e-07
7.69094e-07
-0.000274262
1.39417e-07
1.42254e-07
1.49293e-06
1.45271e-06
-4.17681e-07
-4.23163e-07
0.000274285
-1.21797e-06
-1.17748e-06
0.000276224
-0.000274162
1.64282e-07
1.69681e-07
3.46825e-07
0.00114293
-4.31671e-07
1.20071e-06
1.67329e-07
7.769e-07
-4.50787e-07
-1.15013e-06
1.04019e-07
-1.4903e-06
6.79738e-07
3.4682e-07
0.001143
-4.31716e-07
1.19803e-06
1.67238e-07
7.76885e-07
-4.47959e-07
-1.14984e-06
1.01317e-07
0.00114355
6.07399e-07
-0.00114337
3.12215e-07
-1.47055e-06
1.84769e-07
-4.09297e-07
-1.1221e-06
1.23331e-07
-4.26544e-07
7.98107e-07
1.21523e-06
0.00114362
6.07372e-07
-0.00114344
3.12418e-07
-1.46801e-06
1.84639e-07
-4.09387e-07
-1.12184e-06
1.20648e-07
-4.23723e-07
7.98057e-07
-4.17952e-07
-4.20169e-07
0.000274266
-1.17732e-06
0.000276204
-0.000274143
1.6447e-07
1.66821e-07
3.45788e-07
0.00114393
-4.26203e-07
1.1602e-06
1.61817e-07
7.77027e-07
-4.5066e-07
-1.14982e-06
1.04311e-07
-1.48474e-06
6.79591e-07
3.46931e-07
0.00114288
-4.31659e-07
1.19245e-06
1.67327e-07
7.76875e-07
-4.47945e-07
-1.14983e-06
1.01324e-07
0.00114456
6.07423e-07
-0.00114437
3.11239e-07
-1.43032e-06
1.79262e-07
-4.03833e-07
-1.12178e-06
1.23653e-07
-4.26406e-07
7.98252e-07
1.20968e-06
0.0011435
6.0716e-07
-0.00114332
3.12442e-07
-1.4624e-06
1.84746e-07
-4.09314e-07
-1.12181e-06
1.20658e-07
-4.23724e-07
7.98075e-07
6.79777e-07
3.46747e-07
0.0011425
-4.28722e-07
1.1895e-06
1.64559e-07
7.68457e-07
-4.45213e-07
9.84667e-08
-1.14157e-06
6.07626e-07
-0.00114392
3.16805e-07
-1.43002e-06
1.79288e-07
-4.03691e-07
-1.11636e-06
1.2348e-07
7.92669e-07
-4.26433e-07
1.20679e-06
0.00114312
6.07212e-07
-0.00114294
3.1204e-07
-1.45927e-06
1.82048e-07
-4.06317e-07
-1.11354e-06
1.17825e-07
-4.20973e-07
7.8968e-07
-4.1803e-07
-4.22826e-07
0.000274252
-1.17449e-06
0.000276179
-0.000274129
1.6449e-07
1.69486e-07
6.79941e-07
3.45745e-07
0.00114349
-4.26151e-07
1.15168e-06
1.61754e-07
7.7411e-07
-4.50516e-07
1.04357e-07
-1.14667e-06
6.07538e-07
-0.00114379
3.11307e-07
-1.42727e-06
1.76526e-07
-4.00874e-07
-1.11634e-06
1.23556e-07
7.92603e-07
-4.26361e-07
1.169e-06
0.00114411
6.07404e-07
-0.00114393
3.11199e-07
-1.42188e-06
1.79263e-07
-4.03742e-07
-1.11874e-06
1.23652e-07
-4.263e-07
7.95331e-07
-0.000274103
1.64216e-07
1.67098e-07
1.46052e-06
1.4203e-06
-3.84361e-07
-3.8977e-07
0.000274117
-1.25553e-06
-1.21511e-06
0.000276036
-0.000273978
2.03406e-07
2.0881e-07
2.95079e-07
0.00114371
-4.00029e-07
1.22638e-06
1.92469e-07
8.08492e-07
-4.15839e-07
-1.10968e-06
1.32743e-07
-1.45798e-06
5.73412e-07
2.95293e-07
0.00114378
-4.0011e-07
1.22362e-06
1.92359e-07
8.08439e-07
-4.13012e-07
-1.10942e-06
1.30065e-07
0.00114402
4.44464e-07
-0.00114394
2.33823e-07
-1.42598e-06
2.18157e-07
-3.69944e-07
-1.06735e-06
1.65795e-07
-3.78788e-07
8.44875e-07
1.2529e-06
0.00114409
4.44301e-07
-0.00114401
2.33611e-07
-1.42334e-06
2.18179e-07
-3.69904e-07
-1.0671e-06
1.63083e-07
-3.76014e-07
8.44802e-07
-3.84609e-07
-3.86935e-07
0.000274098
-1.21496e-06
0.000276017
-0.000273958
2.03616e-07
2.0603e-07
2.94188e-07
0.00114471
-3.94579e-07
1.18588e-06
1.86958e-07
8.08663e-07
-4.15667e-07
-1.10934e-06
1.33099e-07
-1.45236e-06
5.73139e-07
2.95229e-07
0.00114366
-4.00014e-07
1.21809e-06
1.92491e-07
8.08484e-07
-4.12992e-07
-1.10938e-06
1.30093e-07
0.00114502
4.44286e-07
-0.00114495
2.32958e-07
-1.38574e-06
2.12723e-07
-3.64458e-07
-1.06701e-06
1.6608e-07
-3.78652e-07
8.45021e-07
1.24733e-06
0.00114397
4.44049e-07
-0.00114389
2.33596e-07
-1.41774e-06
2.18186e-07
-3.69896e-07
-1.06704e-06
1.63167e-07
-3.75934e-07
8.44839e-07
5.73221e-07
2.94865e-07
0.00114328
-3.97033e-07
1.21519e-06
1.89752e-07
8.00073e-07
-4.10259e-07
1.27255e-07
-1.10112e-06
4.44269e-07
-0.00114449
2.38314e-07
-1.38543e-06
2.12745e-07
-3.64325e-07
-1.06155e-06
1.65978e-07
8.39503e-07
-3.78604e-07
1.24436e-06
0.00114359
4.44198e-07
-0.00114351
2.33579e-07
-1.41468e-06
2.15414e-07
-3.66982e-07
-1.0588e-06
1.60337e-07
-3.73207e-07
8.3645e-07
-3.84655e-07
-3.8951e-07
0.000274083
-1.21219e-06
0.000275991
-0.000273944
2.03676e-07
2.08663e-07
5.73256e-07
2.9407e-07
0.00114427
-3.94444e-07
1.17741e-06
1.86994e-07
8.05745e-07
-4.15566e-07
1.331e-07
-1.10631e-06
4.44083e-07
-0.00114436
2.32738e-07
-1.38261e-06
2.09981e-07
-3.61478e-07
-1.06151e-06
1.66058e-07
8.39428e-07
-3.78539e-07
1.20665e-06
0.00114458
4.44043e-07
-0.0011445
2.32704e-07
-1.37726e-06
2.12713e-07
-3.64352e-07
-1.06395e-06
1.66152e-07
-3.78495e-07
8.42136e-07
-0.000273919
2.03346e-07
2.06222e-07
1.41455e-06
1.37427e-06
-3.40579e-07
-3.45994e-07
0.000273934
-1.29232e-06
-1.25208e-06
0.0002759
-0.000273833
2.36101e-07
2.41383e-07
2.10271e-07
0.00114408
-3.60378e-07
1.26524e-06
2.26361e-07
8.57762e-07
-3.66473e-07
-1.05262e-06
1.76824e-07
-1.41185e-06
3.94439e-07
2.09869e-07
0.00114415
-3.60281e-07
1.26267e-06
2.26434e-07
8.5767e-07
-3.63694e-07
-1.0524e-06
1.7412e-07
0.00114422
2.52154e-07
-0.00114418
1.38841e-07
-1.38337e-06
2.4852e-07
-3.35127e-07
-1.01534e-06
2.07174e-07
-3.33325e-07
8.90007e-07
1.28976e-06
0.00114429
2.52145e-07
-0.00114425
1.38495e-07
-1.38063e-06
2.48567e-07
-3.35035e-07
-1.01513e-06
2.04428e-07
-3.30593e-07
8.89907e-07
-3.40784e-07
-3.43043e-07
0.000273915
-1.25183e-06
0.00027588
-0.000273814
2.36234e-07
2.38664e-07
2.09336e-07
0.00114509
-3.54842e-07
1.22486e-06
2.20984e-07
8.57865e-07
-3.66389e-07
-1.05233e-06
1.77065e-07
-1.40631e-06
3.94313e-07
2.10074e-07
0.00114403
-3.60325e-07
1.25703e-06
2.26391e-07
8.57696e-07
-3.63636e-07
-1.05236e-06
1.74169e-07
0.00114522
2.52242e-07
-0.00114518
1.37848e-07
-1.34299e-06
2.43219e-07
-3.29508e-07
-1.01512e-06
2.07329e-07
-3.33336e-07
8.90055e-07
1.28404e-06
0.00114417
2.52315e-07
-0.00114413
1.39007e-07
-1.3752e-06
2.4848e-07
-3.35134e-07
-1.01513e-06
2.0442e-07
-3.30606e-07
8.89888e-07
3.94364e-07
2.10111e-07
0.00114365
-3.57437e-07
1.25404e-06
2.23591e-07
8.49341e-07
-3.60896e-07
1.71376e-07
-1.04408e-06
2.51814e-07
-0.00114473
1.43318e-07
-1.34276e-06
2.43147e-07
-3.29464e-07
-1.00952e-06
2.07353e-07
8.84668e-07
-3.33124e-07
1.28104e-06
0.00114379
2.52035e-07
-0.00114375
1.39003e-07
-1.37219e-06
2.45675e-07
-3.32274e-07
-1.00681e-06
2.01713e-07
-3.27771e-07
8.81586e-07
-3.40826e-07
-3.45693e-07
0.0002739
-1.24896e-06
0.000275855
-0.000273799
2.36236e-07
2.41175e-07
3.94343e-07
2.0915e-07
0.00114464
-3.54755e-07
1.21639e-06
2.20955e-07
8.54964e-07
-3.6623e-07
1.77116e-07
-1.04928e-06
2.52147e-07
-0.0011446
1.3816e-07
-1.34004e-06
2.40314e-07
-3.26698e-07
-1.00958e-06
2.07327e-07
8.84515e-07
-3.33183e-07
1.24355e-06
0.00114478
2.52254e-07
-0.00114474
1.37833e-07
-1.33458e-06
2.43139e-07
-3.29472e-07
-1.01209e-06
2.07335e-07
-3.33235e-07
8.87134e-07
-0.000273774
2.35979e-07
2.38722e-07
1.37505e-06
1.33465e-06
-3.07221e-07
-3.12738e-07
0.00027381
-1.31386e-06
-1.27362e-06
0.000275831
-0.000273759
2.55406e-07
2.60779e-07
1.19727e-07
0.00114425
-3.28465e-07
1.29939e-06
2.54404e-07
8.98575e-07
-3.24416e-07
-1.00567e-06
2.15225e-07
-1.37235e-06
2.14593e-07
1.1951e-07
0.00114432
-3.28406e-07
1.2968e-06
2.54419e-07
8.98458e-07
-3.21698e-07
-1.00548e-06
2.12465e-07
0.0011443
1.38873e-07
-0.00114429
8.14236e-08
-1.35802e-06
2.66732e-07
-3.14248e-07
-9.84173e-07
2.32573e-07
-3.05197e-07
9.17396e-07
1.31126e-06
0.00114437
1.3899e-07
-0.00114436
8.1251e-08
-1.35534e-06
2.66739e-07
-3.1421e-07
-9.83996e-07
2.29815e-07
-3.02488e-07
9.17268e-07
-3.07507e-07
-3.09785e-07
0.000273791
-1.27337e-06
0.000275811
-0.00027374
2.55564e-07
2.57997e-07
1.18768e-07
0.00114525
-3.22844e-07
1.25917e-06
2.49103e-07
8.98627e-07
-3.24434e-07
-1.00544e-06
2.15374e-07
-1.3669e-06
2.14775e-07
1.19989e-07
0.0011442
-3.28491e-07