/*--------------------------------*- C++ -*----------------------------------*\
| =========                 |                                                 |
| \\      /  F ield         | OpenFOAM: The Open Source CFD Toolbox           |
|  \\    /   O peration     | Version:  2312                                  |
|   \\  /    A nd           | Website:  www.openfoam.com                      |
|    \\/     M anipulation  |                                                 |
\*---------------------------------------------------------------------------*/
FoamFile
{
    version     2.0;
    format      ascii;
    arch        "LSB;label=32;scalar=64";
    class       volVectorField;
    location    "125";
    object      U;
}
// * * * * * * * * * * * * * * * * * * * * * * * * * * * * * * * * * * * * * //

dimensions      [0 1 -1 0 0 0 0];

internalField   nonuniform List<vector> 
43120
(
(6.07414e-05 6.07527e-05 0.108929)
(-9.71782e-05 5.97288e-05 0.107975)
(5.97349e-05 -9.71862e-05 0.107975)
(-0.000158023 -0.000158001 0.106622)
(5.93951e-05 5.94025e-05 0.109226)
(-9.49204e-05 5.88101e-05 0.108152)
(5.88121e-05 -9.49177e-05 0.108152)
(-0.000153327 -0.000153293 0.106645)
(5.72704e-05 5.72858e-05 0.109513)
(-9.16667e-05 5.72783e-05 0.10831)
(5.72828e-05 -9.16527e-05 0.10831)
(-0.000147764 -0.000147752 0.106643)
(5.43318e-05 5.43454e-05 0.109787)
(-8.69314e-05 5.46708e-05 0.108446)
(5.4657e-05 -8.69071e-05 0.108446)
(-0.000140544 -0.000140528 0.106618)
(4.88701e-05 4.88888e-05 0.110038)
(-7.88041e-05 5.04404e-05 0.108555)
(5.04401e-05 -7.87867e-05 0.108555)
(-0.000130415 -0.000130399 0.10657)
(4.12633e-05 4.12927e-05 0.110259)
(-6.63707e-05 4.28013e-05 0.108634)
(4.27793e-05 -6.63419e-05 0.108634)
(-0.000116716 -0.00011669 0.106503)
(2.83101e-05 2.83274e-05 0.110425)
(-4.58116e-05 3.05525e-05 0.108674)
(3.05428e-05 -4.58132e-05 0.108674)
(-9.81769e-05 -9.81604e-05 0.106431)
(1.46578e-05 1.4652e-05 0.110525)
(-2.58297e-05 1.78119e-05 0.108691)
(1.78242e-05 -2.58426e-05 0.108691)
(-8.34904e-05 -8.35321e-05 0.10638)
(8.04072e-06 8.03002e-06 0.110578)
(-1.51536e-05 1.12252e-05 0.108698)
(1.12378e-05 -1.51776e-05 0.108698)
(-7.5609e-05 -7.563e-05 0.106354)
(3.93653e-06 3.93258e-06 0.110606)
(-8.53136e-06 7.28454e-06 0.108695)
(7.28435e-06 -8.54235e-06 0.108694)
(-7.07543e-05 -7.07595e-05 0.106335)
(3.51971e-07 3.54267e-07 0.110617)
(-3.92362e-06 4.46701e-06 0.108689)
(4.46997e-06 -3.91186e-06 0.108688)
(-6.79015e-05 -6.7884e-05 0.106322)
(-1.6058e-06 -1.58274e-06 0.110619)
(-1.85046e-06 3.23799e-06 0.108685)
(3.23977e-06 -1.85059e-06 0.108684)
(-6.71068e-05 -6.70922e-05 0.106316)
(-2.24046e-06 -2.2307e-06 0.110619)
(-1.46247e-06 2.93287e-06 0.108683)
(2.93664e-06 -1.46196e-06 0.108682)
(-6.70149e-05 -6.70145e-05 0.106315)
(-2.39355e-06 -2.38901e-06 0.110619)
(-1.4249e-06 2.89891e-06 0.108683)
(2.89862e-06 -1.42254e-06 0.108682)
(-6.70537e-05 -6.70441e-05 0.106314)
(-2.42307e-06 -2.4162e-06 0.110619)
(-1.43673e-06 2.89045e-06 0.108683)
(2.89443e-06 -1.41677e-06 0.108682)
(-6.70705e-05 -6.70472e-05 0.106314)
(-2.42276e-06 -2.41598e-06 0.110619)
(-1.44017e-06 2.89441e-06 0.108683)
(2.89865e-06 -1.42331e-06 0.108682)
(-6.70701e-05 -6.70532e-05 0.106314)
(-2.41701e-06 -2.41535e-06 0.110619)
(-1.4325e-06 2.90048e-06 0.108682)
(2.90346e-06 -1.42272e-06 0.108682)
(-6.70754e-05 -6.7068e-05 0.106314)
(-2.41328e-06 -2.4137e-06 0.110619)
(-1.42709e-06 2.89532e-06 0.108682)
(2.90004e-06 -1.42301e-06 0.108682)
(-6.70797e-05 -6.70797e-05 0.106314)
(-2.41585e-06 -2.41665e-06 0.110619)
(-1.41995e-06 2.89581e-06 0.108682)
(2.90045e-06 -1.42288e-06 0.108682)
(-6.7064e-05 -6.70689e-05 0.106314)
(-2.42561e-06 -2.41705e-06 0.110619)
(-1.4205e-06 2.89579e-06 0.108682)
(2.90011e-06 -1.42091e-06 0.108682)
(-6.70603e-05 -6.7059e-05 0.106314)
(-2.42576e-06 -2.41671e-06 0.110619)
(-1.42295e-06 2.89861e-06 0.108682)
(2.89709e-06 -1.41652e-06 0.108682)
(-6.70707e-05 -6.70614e-05 0.106314)
(-2.42426e-06 -2.41193e-06 0.110619)
(-1.42907e-06 2.90175e-06 0.108682)
(2.89888e-06 -1.41794e-06 0.108682)
(-6.70756e-05 -6.70637e-05 0.106314)
(-2.42297e-06 -2.41338e-06 0.110619)
(-1.42818e-06 2.89938e-06 0.108682)
(2.90332e-06 -1.42126e-06 0.108682)
(-6.70711e-05 -6.70623e-05 0.106314)
(-2.42359e-06 -2.41376e-06 0.110619)
(-1.42902e-06 2.90037e-06 0.108682)
(2.90477e-06 -1.42189e-06 0.108682)
(-6.70784e-05 -6.70731e-05 0.106314)
(-2.4084e-06 -2.40794e-06 0.110619)
(-1.4269e-06 2.88887e-06 0.108682)
(2.90437e-06 -1.42897e-06 0.108682)
(-6.71104e-05 -6.7117e-05 0.106314)
(-2.39743e-06 -2.39456e-06 0.110619)
(-1.44112e-06 2.90342e-06 0.108682)
(2.92628e-06 -1.4465e-06 0.108682)
(-6.70892e-05 -6.70922e-05 0.106314)
(2.94599e-06 -1.47387e-06 0.108682)
(-5.31771e-06 -5.26029e-06 0.106777)
(6.02177e-05 9.79881e-05 0.107927)
(-6.02272e-05 9.79847e-05 0.107927)
(5.33536e-06 -5.26571e-06 0.106777)
(9.79087e-05 6.01408e-05 0.107927)
(9.79719e-05 -6.01898e-05 0.107927)
(-9.78826e-05 6.0105e-05 0.107927)
(-9.79109e-05 -6.01643e-05 0.107927)
(-5.31144e-06 5.35927e-06 0.106777)
(6.01032e-05 -9.78871e-05 0.107927)
(-6.01178e-05 -9.79182e-05 0.107927)
(5.24956e-06 5.33601e-06 0.106776)
(0.000157986 0.00015797 0.106622)
(-7.75766e-06 -7.71415e-06 0.106815)
(5.98424e-05 9.72816e-05 0.107974)
(-5.98566e-05 9.72769e-05 0.107974)
(5.92038e-05 9.57159e-05 0.108109)
(-5.92141e-05 9.57061e-05 0.108109)
(-0.000158004 0.00015795 0.106622)
(7.77647e-06 -7.71674e-06 0.106815)
(9.72042e-05 5.97674e-05 0.107975)
(9.72744e-05 -5.98345e-05 0.107974)
(9.56239e-05 5.9112e-05 0.10811)
(9.5697e-05 -5.92054e-05 0.108109)
(-9.72001e-05 -5.97936e-05 0.107974)
(-9.5567e-05 5.9082e-05 0.10811)
(-9.56019e-05 -5.91521e-05 0.108109)
(0.000157916 -0.000158009 0.106622)
(-7.67024e-06 7.78399e-06 0.106815)
(-5.97488e-05 -9.72193e-05 0.107974)
(5.9088e-05 -9.56165e-05 0.10811)
(-5.91028e-05 -9.56423e-05 0.108109)
(7.6867e-06 7.77991e-06 0.106814)
(0.000153285 0.000153259 0.106645)
(-1.01707e-05 -1.0125e-05 0.106826)
(5.89267e-05 9.50167e-05 0.108152)
(-5.89424e-05 9.50103e-05 0.108151)
(5.7603e-05 9.23854e-05 0.108272)
(-5.76286e-05 9.23786e-05 0.108271)
(-0.000153302 0.000153241 0.106645)
(1.01677e-05 -1.01145e-05 0.106826)
(9.49323e-05 5.88342e-05 0.108152)
(9.50297e-05 -5.89283e-05 0.108151)
(9.23041e-05 5.75273e-05 0.108272)
(9.23583e-05 -5.76284e-05 0.108271)
(-9.49478e-05 -5.88809e-05 0.108151)
(-9.23097e-05 5.74953e-05 0.108272)
(-9.23368e-05 -5.75628e-05 0.108271)
(0.000153296 -0.00015332 0.106645)
(-1.00862e-05 1.01908e-05 0.106825)
(-5.88277e-05 -9.49675e-05 0.108152)
(5.7494e-05 -9.22919e-05 0.108272)
(-5.75139e-05 -9.22971e-05 0.108272)
(1.01054e-05 1.01766e-05 0.106825)
(0.000147723 0.000147705 0.106644)
(-1.30872e-05 -1.30417e-05 0.106812)
(5.73965e-05 9.17514e-05 0.108309)
(-5.74198e-05 9.17446e-05 0.108309)
(5.58584e-05 8.87828e-05 0.108414)
(-5.58837e-05 8.87712e-05 0.108414)
(-0.000147759 0.000147699 0.106644)
(1.30932e-05 -1.30353e-05 0.106812)
(9.16637e-05 5.73191e-05 0.10831)
(9.17164e-05 -5.74177e-05 0.108309)
(8.87031e-05 5.57833e-05 0.108415)
(8.87575e-05 -5.58758e-05 0.108413)
(-9.17033e-05 -5.73585e-05 0.108309)
(-8.87184e-05 5.57543e-05 0.108415)
(-8.87401e-05 -5.581e-05 0.108414)
(0.000147741 -0.000147767 0.106643)
(-1.30218e-05 1.31034e-05 0.106811)
(-5.73076e-05 -9.1656e-05 0.108309)
(5.57417e-05 -8.87003e-05 0.108415)
(-5.57572e-05 -8.86877e-05 0.108414)
(1.30377e-05 1.31043e-05 0.106811)
(0.000140518 0.000140502 0.106619)
(-1.89709e-05 -1.89245e-05 0.106771)
(5.4769e-05 8.69932e-05 0.108446)
(-5.47999e-05 8.69792e-05 0.108445)
(5.16064e-05 8.08912e-05 0.10853)
(-5.16193e-05 8.08783e-05 0.10853)
(-0.000140556 0.000140489 0.106619)
(1.89912e-05 -1.89306e-05 0.106771)
(8.69095e-05 5.46948e-05 0.108446)
(8.697e-05 -5.47899e-05 0.108445)
(8.07949e-05 5.15363e-05 0.108531)
(8.0852e-05 -5.16111e-05 0.108529)
(-8.69471e-05 -5.47207e-05 0.108445)
(-8.07911e-05 5.14858e-05 0.108531)
(-8.08469e-05 -5.15584e-05 0.10853)
(0.000140516 -0.000140561 0.106619)
(-1.89043e-05 1.89927e-05 0.10677)
(-5.46732e-05 -8.69011e-05 0.108446)
(5.14816e-05 -8.07827e-05 0.108531)
(-5.15151e-05 -8.07891e-05 0.10853)
(1.89105e-05 1.89743e-05 0.10677)
(0.000130377 0.000130367 0.10657)
(-2.76764e-05 -2.76339e-05 0.10671)
(5.05573e-05 7.88793e-05 0.108555)
(-5.05773e-05 7.88655e-05 0.108554)
(4.54361e-05 7.04586e-05 0.108617)
(-4.54763e-05 7.04531e-05 0.108617)
(-0.000130389 0.000130348 0.10657)
(2.76596e-05 -2.76379e-05 0.106709)
(7.87939e-05 5.04885e-05 0.108555)
(7.8849e-05 -5.05685e-05 0.108554)
(7.0364e-05 4.53684e-05 0.108618)
(7.04289e-05 -4.54576e-05 0.108617)
(-7.88453e-05 -5.05133e-05 0.108554)
(-7.0387e-05 4.53442e-05 0.108618)
(-7.04168e-05 -4.53813e-05 0.108617)
(0.000130378 -0.00013041 0.10657)
(-2.76211e-05 2.76821e-05 0.106709)
(-5.04713e-05 -7.87859e-05 0.108555)
(4.53312e-05 -7.03791e-05 0.108618)
(-4.53454e-05 -7.03649e-05 0.108617)
(2.76264e-05 2.7692e-05 0.106708)
(0.000116682 0.000116682 0.106504)
(-4.29241e-05 -4.28888e-05 0.106638)
(4.28827e-05 6.6438e-05 0.108634)
(-4.29248e-05 6.64266e-05 0.108633)
(3.40037e-05 5.15194e-05 0.108667)
(-3.39926e-05 5.14972e-05 0.108666)
(-0.000116732 0.000116668 0.106504)
(4.29442e-05 -4.28962e-05 0.106638)
(6.63277e-05 4.28224e-05 0.108634)
(6.63993e-05 -4.28997e-05 0.108633)
(5.1427e-05 3.39359e-05 0.108667)
(5.14753e-05 -3.3975e-05 0.108666)
(-6.63904e-05 -4.28256e-05 0.108633)
(-5.14256e-05 3.38972e-05 0.108667)
(-5.14742e-05 -3.39434e-05 0.108666)
(0.000116681 -0.000116728 0.106503)
(-4.29026e-05 4.2957e-05 0.106637)
(-4.27903e-05 -6.63232e-05 0.108634)
(3.38688e-05 -5.14041e-05 0.108667)
(-3.3893e-05 -5.14051e-05 0.108667)
(4.28834e-05 4.2946e-05 0.106637)
(9.81541e-05 9.81448e-05 0.106431)
(-5.65624e-05 -5.65802e-05 0.106584)
(3.06779e-05 4.59202e-05 0.108673)
(-3.06464e-05 4.58985e-05 0.108673)
(2.05964e-05 3.01044e-05 0.108687)
(-2.05736e-05 3.01052e-05 0.108686)
(-9.81493e-05 9.81187e-05 0.106431)
(5.66149e-05 -5.65544e-05 0.106584)
(4.58389e-05 3.05987e-05 0.108674)
(4.58865e-05 -3.06534e-05 0.108672)
(3.00669e-05 2.05032e-05 0.108688)
(3.01181e-05 -2.06089e-05 0.108686)
(-4.58739e-05 -3.06281e-05 0.108673)
(-3.00214e-05 2.04902e-05 0.108688)
(-3.00739e-05 -2.05812e-05 0.108686)
(9.81239e-05 -9.81732e-05 0.106431)
(-5.65242e-05 5.65695e-05 0.106583)
(-3.05669e-05 -4.58269e-05 0.108673)
(2.05031e-05 -3.00444e-05 0.108688)
(-2.04865e-05 -3.0064e-05 0.108687)
(5.65537e-05 5.65436e-05 0.106583)
(8.34931e-05 8.34372e-05 0.10638)
(-6.44429e-05 -6.44391e-05 0.106557)
(1.79067e-05 2.58998e-05 0.10869)
(-1.78981e-05 2.59066e-05 0.10869)
(1.24826e-05 1.71926e-05 0.108696)
(-1.24725e-05 1.7201e-05 0.108696)
(-8.3477e-05 8.34506e-05 0.10638)
(6.4478e-05 -6.44155e-05 0.106557)
(2.58638e-05 1.78132e-05 0.108691)
(2.592e-05 -1.79269e-05 0.108689)
(1.7131e-05 1.23812e-05 0.108697)
(1.72142e-05 -1.24945e-05 0.108696)
(-2.58733e-05 -1.78935e-05 0.10869)
(-1.70992e-05 1.23835e-05 0.108697)
(-1.71655e-05 -1.24661e-05 0.108696)
(8.34837e-05 -8.35376e-05 0.10638)
(-6.43852e-05 6.44451e-05 0.106556)
(-1.78005e-05 -2.58545e-05 0.10869)
(1.23957e-05 -1.71198e-05 0.108697)
(-1.23848e-05 -1.71254e-05 0.108697)
(6.44151e-05 6.44221e-05 0.106555)
(7.55863e-05 7.55603e-05 0.106354)
(-6.91901e-05 -6.91673e-05 0.106537)
(1.13249e-05 1.5258e-05 0.108697)
(-1.13127e-05 1.52621e-05 0.108697)
(8.30779e-06 1.01747e-05 0.108695)
(-8.29944e-06 1.01766e-05 0.108695)
(-7.558e-05 7.55665e-05 0.106354)
(6.92105e-05 -6.91583e-05 0.106537)
(1.51888e-05 1.12261e-05 0.108698)
(1.52745e-05 -1.1336e-05 0.108696)
(1.00889e-05 8.21781e-06 0.108696)
(1.01772e-05 -8.30968e-06 0.108694)
(-1.52262e-05 -1.1313e-05 0.108696)
(-1.00678e-05 8.21867e-06 0.108696)
(-1.01379e-05 -8.28749e-06 0.108695)
(7.55954e-05 -7.56323e-05 0.106354)
(-6.91336e-05 6.91796e-05 0.106536)
(-1.12328e-05 -1.51861e-05 0.108697)
(8.21772e-06 -1.00878e-05 0.108696)
(-8.20933e-06 -1.00934e-05 0.108695)
(6.91494e-05 6.91686e-05 0.106536)
(7.07222e-05 7.07126e-05 0.106335)
(-7.20595e-05 -7.20331e-05 0.106523)
(7.37391e-06 8.63108e-06 0.108694)
(-7.37102e-06 8.63511e-06 0.108693)
(5.12291e-06 4.92868e-06 0.108689)
(-5.12677e-06 4.92465e-06 0.108689)
(-7.07339e-05 7.07046e-05 0.106335)
(7.20676e-05 -7.20364e-05 0.106523)
(8.54315e-06 7.2889e-06 0.108695)
(8.63275e-06 -7.3737e-06 0.108693)
(4.83658e-06 5.04384e-06 0.10869)
(4.92352e-06 -5.11252e-06 0.108688)
(-8.59731e-06 -7.34917e-06 0.108693)
(-4.83534e-06 5.02778e-06 0.10869)
(-4.9012e-06 -5.0838e-06 0.108688)
(7.07282e-05 -7.07789e-05 0.106335)
(-7.20128e-05 7.2054e-05 0.106522)
(-7.27585e-06 -8.54629e-06 0.108694)
(5.02916e-06 -4.82995e-06 0.10869)
(-5.02396e-06 -4.83472e-06 0.108689)
(7.20127e-05 7.20581e-05 0.106522)
(6.78616e-05 6.78561e-05 0.106322)
(-7.29512e-05 -7.29216e-05 0.106517)
(4.5613e-06 4.0119e-06 0.108688)
(-4.56888e-06 4.00642e-06 0.108687)
(3.5156e-06 2.26508e-06 0.108684)
(-3.52064e-06 2.25153e-06 0.108684)
(-6.78839e-05 6.78373e-05 0.106322)
(7.29613e-05 -7.29232e-05 0.106517)
(3.92011e-06 4.48527e-06 0.108688)
(4.00507e-06 -4.55293e-06 0.108687)
(2.17111e-06 3.44029e-06 0.108685)
(2.25038e-06 -3.50591e-06 0.108683)
(-3.98594e-06 -4.52412e-06 0.108687)
(-2.16171e-06 3.42386e-06 0.108685)
(-2.22951e-06 -3.48025e-06 0.108684)
(6.78608e-05 -6.79145e-05 0.106322)
(-7.28998e-05 7.29425e-05 0.106516)
(-4.46787e-06 -3.91497e-06 0.108688)
(3.4208e-06 -2.15996e-06 0.108685)
(-3.42246e-06 -2.16193e-06 0.108684)
(7.28997e-05 7.29432e-05 0.106515)
(6.70633e-05 6.70617e-05 0.106317)
(-7.30414e-05 -7.30135e-05 0.106515)
(3.33372e-06 1.96531e-06 0.108684)
(-3.33592e-06 1.93869e-06 0.108683)
(3.07174e-06 1.60415e-06 0.108682)
(-3.0652e-06 1.59072e-06 0.108682)
(-6.7081e-05 6.70441e-05 0.106317)
(7.30594e-05 -7.3026e-05 0.106515)
(1.86913e-06 3.25968e-06 0.108684)
(1.94228e-06 -3.32606e-06 0.108682)
(1.50559e-06 2.99419e-06 0.108683)
(1.59254e-06 -3.06214e-06 0.108681)
(-1.91922e-06 -3.30232e-06 0.108683)
(-1.49794e-06 2.96899e-06 0.108683)
(-1.56972e-06 -3.04143e-06 0.108681)
(6.70683e-05 -6.71189e-05 0.106316)
(-7.29939e-05 7.30328e-05 0.106514)
(-3.24413e-06 -1.85443e-06 0.108684)
(2.97181e-06 -1.49948e-06 0.108683)
(-2.9788e-06 -1.51095e-06 0.108682)
(7.29963e-05 7.30252e-05 0.106513)
(6.69788e-05 6.69741e-05 0.106315)
(-7.30058e-05 -7.29795e-05 0.106514)
(3.03529e-06 1.56466e-06 0.108682)
(-3.03143e-06 1.55192e-06 0.108681)
(2.99742e-06 1.51564e-06 0.108681)
(-3.0012e-06 1.51644e-06 0.108681)
(-6.69909e-05 6.69468e-05 0.106315)
(7.30174e-05 -7.29836e-05 0.106514)
(1.46735e-06 2.95852e-06 0.108683)
(1.55348e-06 -3.02652e-06 0.108681)
(1.42289e-06 2.91985e-06 0.108682)
(1.51444e-06 -2.99083e-06 0.10868)
(-1.5293e-06 -3.00742e-06 0.108681)
(-1.42376e-06 2.90466e-06 0.108683)
(-1.49288e-06 -2.96806e-06 0.108681)
(6.69775e-05 -6.70341e-05 0.106315)
(-7.29595e-05 7.29952e-05 0.106513)
(-2.94545e-06 -1.47253e-06 0.108682)
(2.9023e-06 -1.42477e-06 0.108682)
(-2.90624e-06 -1.43519e-06 0.108682)
(7.29579e-05 7.29935e-05 0.106513)
(6.70141e-05 6.70067e-05 0.106315)
(-7.29949e-05 -7.29674e-05 0.106514)
(2.99002e-06 1.51549e-06 0.108681)
(-3.00158e-06 1.51402e-06 0.108681)
(2.98463e-06 1.5059e-06 0.108681)
(-3.00763e-06 1.50734e-06 0.108681)
(-6.70339e-05 6.69891e-05 0.106315)
(7.29893e-05 -7.29741e-05 0.106514)
(1.4245e-06 2.91428e-06 0.108682)
(1.51327e-06 -2.98699e-06 0.10868)
(1.41411e-06 2.90967e-06 0.108682)
(1.50713e-06 -2.9854e-06 0.10868)
(-1.49057e-06 -2.96136e-06 0.108681)
(-1.42946e-06 2.89447e-06 0.108683)
(-1.49369e-06 -2.94867e-06 0.108681)
(6.70129e-05 -6.70718e-05 0.106314)
(-7.29427e-05 7.29812e-05 0.106513)
(-2.90274e-06 -1.42934e-06 0.108682)
(2.89557e-06 -1.41486e-06 0.108682)
(-2.90103e-06 -1.41981e-06 0.108681)
(7.29385e-05 7.29895e-05 0.106513)
(6.70225e-05 6.7017e-05 0.106315)
(-7.29886e-05 -7.29618e-05 0.106514)
(2.9818e-06 1.51072e-06 0.108681)
(-3.00913e-06 1.50656e-06 0.108681)
(2.98832e-06 1.51113e-06 0.108681)
(-3.01004e-06 1.50906e-06 0.108681)
(-6.70592e-05 6.6994e-05 0.106315)
(7.29822e-05 -7.29703e-05 0.106514)
(1.41866e-06 2.90865e-06 0.108682)
(1.51032e-06 -2.98415e-06 0.10868)
(1.41925e-06 2.91427e-06 0.108682)
(1.50977e-06 -2.98922e-06 0.10868)
(-1.49634e-06 -2.9462e-06 0.108681)
(-1.43896e-06 2.8967e-06 0.108682)
(-1.49945e-06 -2.95073e-06 0.108681)
(6.70267e-05 -6.70834e-05 0.106314)
(-7.29384e-05 7.2975e-05 0.106513)
(-2.90214e-06 -1.41938e-06 0.108681)
(2.89839e-06 -1.41998e-06 0.108682)
(-2.90239e-06 -1.42526e-06 0.108681)
(7.29362e-05 7.29831e-05 0.106513)
(6.7028e-05 6.70213e-05 0.106314)
(-7.29745e-05 -7.29504e-05 0.106514)
(2.9888e-06 1.51649e-06 0.108681)
(-3.00791e-06 1.51047e-06 0.108681)
(2.99633e-06 1.51559e-06 0.108681)
(-3.00302e-06 1.51412e-06 0.108681)
(-6.70612e-05 6.69969e-05 0.106315)
(7.29831e-05 -7.29565e-05 0.106514)
(1.4245e-06 2.91488e-06 0.108682)
(1.51334e-06 -2.98909e-06 0.10868)
(1.42601e-06 2.91867e-06 0.108682)
(1.50923e-06 -2.98903e-06 0.10868)
(-1.49865e-06 -2.95256e-06 0.108681)
(-1.43159e-06 2.90173e-06 0.108682)
(-1.49567e-06 -2.96155e-06 0.108681)
(6.70298e-05 -6.70881e-05 0.106314)
(-7.29269e-05 7.29653e-05 0.106513)
(-2.90308e-06 -1.42688e-06 0.108681)
(2.9022e-06 -1.41917e-06 0.108682)
(-2.90294e-06 -1.43181e-06 0.108681)
(7.29299e-05 7.29663e-05 0.106513)
(6.70406e-05 6.70306e-05 0.106314)
(-7.29716e-05 -7.29478e-05 0.106514)
(2.99764e-06 1.51971e-06 0.108681)
(-3.0027e-06 1.51586e-06 0.108681)
(2.99853e-06 1.51708e-06 0.108681)
(-2.99653e-06 1.51509e-06 0.108681)
(-6.706e-05 6.70088e-05 0.106315)
(7.29876e-05 -7.2954e-05 0.106514)
(1.43064e-06 2.92005e-06 0.108682)
(1.51504e-06 -2.98922e-06 0.10868)
(1.42754e-06 2.91929e-06 0.108682)
(1.51039e-06 -2.98998e-06 0.10868)
(-1.49529e-06 -2.96496e-06 0.108681)
(-1.4268e-06 2.8999e-06 0.108682)
(-1.49341e-06 -2.96975e-06 0.108681)
(6.70396e-05 -6.70962e-05 0.106314)
(-7.29286e-05 7.2966e-05 0.106513)
(-2.90618e-06 -1.43265e-06 0.108681)
(2.90316e-06 -1.42032e-06 0.108682)
(-2.90554e-06 -1.43559e-06 0.108681)
(7.29284e-05 7.29578e-05 0.106513)
(6.70463e-05 6.70364e-05 0.106314)
(-7.2989e-05 -7.29663e-05 0.106514)
(2.99668e-06 1.51855e-06 0.108681)
(-2.99466e-06 1.51588e-06 0.108681)
(2.99898e-06 1.51463e-06 0.108681)
(-2.99551e-06 1.51529e-06 0.108681)
(-6.70592e-05 6.70134e-05 0.106315)
(7.30068e-05 -7.2968e-05 0.106514)
(1.42957e-06 2.91727e-06 0.108682)
(1.51286e-06 -2.98834e-06 0.10868)
(1.42634e-06 2.91946e-06 0.108682)
(1.50883e-06 -2.99428e-06 0.10868)
(-1.49157e-06 -2.96972e-06 0.108681)
(-1.41995e-06 2.90125e-06 0.108682)
(-1.48915e-06 -2.97683e-06 0.108681)
(6.70416e-05 -6.71001e-05 0.106314)
(-7.29444e-05 7.29785e-05 0.106513)
(-2.9043e-06 -1.43664e-06 0.108681)
(2.9032e-06 -1.42298e-06 0.108682)
(-2.90571e-06 -1.43996e-06 0.108681)
(7.29469e-05 7.29698e-05 0.106513)
(6.70311e-05 6.70203e-05 0.106315)
(-7.29963e-05 -7.29726e-05 0.106514)
(2.99489e-06 1.51292e-06 0.108681)
(-2.99281e-06 1.51556e-06 0.108681)
(2.98513e-06 1.51897e-06 0.108681)
(-2.98746e-06 1.50812e-06 0.108681)
(-6.70433e-05 6.70019e-05 0.106315)
(7.29981e-05 -7.29751e-05 0.106514)
(1.42562e-06 2.9157e-06 0.108682)
(1.50967e-06 -2.99215e-06 0.10868)
(1.42469e-06 2.90898e-06 0.108682)
(1.50835e-06 -2.98549e-06 0.10868)
(-1.48745e-06 -2.9735e-06 0.108681)
(-1.41733e-06 2.89597e-06 0.108682)
(-1.48723e-06 -2.96765e-06 0.108681)
(6.70243e-05 -6.70849e-05 0.106314)
(-7.29264e-05 7.29622e-05 0.106513)
(-2.90374e-06 -1.4387e-06 0.108681)
(2.896e-06 -1.42026e-06 0.108682)
(-2.89862e-06 -1.43636e-06 0.108681)
(7.2941e-05 7.29695e-05 0.106513)
(6.70197e-05 6.7007e-05 0.106315)
(-7.29814e-05 -7.29551e-05 0.106514)
(2.98666e-06 1.52413e-06 0.108681)
(-2.98865e-06 1.50512e-06 0.108681)
(2.99615e-06 1.51619e-06 0.108681)
(-2.99595e-06 1.51073e-06 0.108681)
(-6.70454e-05 6.69872e-05 0.106314)
(7.29925e-05 -7.29614e-05 0.106514)
(1.42398e-06 2.91296e-06 0.108682)
(1.51101e-06 -2.98952e-06 0.10868)
(1.42767e-06 2.92321e-06 0.108682)
(1.50974e-06 -2.98624e-06 0.10868)
(-1.48644e-06 -2.96628e-06 0.108681)
(-1.41946e-06 2.90077e-06 0.108682)
(-1.48903e-06 -2.9614e-06 0.108681)
(6.70319e-05 -6.70904e-05 0.106314)
(-7.29248e-05 7.29626e-05 0.106513)
(-2.9006e-06 -1.43336e-06 0.108681)
(2.89801e-06 -1.41729e-06 0.108682)
(-2.90133e-06 -1.42985e-06 0.108681)
(7.2933e-05 7.29696e-05 0.106513)
(6.70334e-05 6.70269e-05 0.106315)
(-7.29833e-05 -7.29502e-05 0.106514)
(2.99171e-06 1.51414e-06 0.108681)
(-2.99723e-06 1.51059e-06 0.108681)
(2.99044e-06 1.51472e-06 0.108681)
(-3.00045e-06 1.51291e-06 0.108681)
(-6.70529e-05 6.70027e-05 0.106314)
(7.29852e-05 -7.29596e-05 0.106514)
(1.42405e-06 2.91834e-06 0.108682)
(1.50963e-06 -2.98582e-06 0.10868)
(1.42559e-06 2.91928e-06 0.108682)
(1.51187e-06 -2.99186e-06 0.10868)
(-1.48856e-06 -2.96003e-06 0.108681)
(-1.42448e-06 2.90271e-06 0.108682)
(-1.49174e-06 -2.95976e-06 0.10868)
(6.70464e-05 -6.71035e-05 0.106314)
(-7.29386e-05 7.29756e-05 0.106513)
(-2.90153e-06 -1.42756e-06 0.108681)
(2.90185e-06 -1.42005e-06 0.108682)
(-2.90333e-06 -1.42877e-06 0.108681)
(7.29298e-05 7.29688e-05 0.106513)
(6.70321e-05 6.70324e-05 0.106315)
(-7.29825e-05 -7.29479e-05 0.106514)
(2.99234e-06 1.51565e-06 0.108681)
(-3.00284e-06 1.51361e-06 0.108681)
(2.99333e-06 1.5143e-06 0.108681)
(-3.00121e-06 1.51297e-06 0.108681)
(-6.70598e-05 6.70051e-05 0.106314)
(7.29885e-05 -7.29644e-05 0.106514)
(1.42586e-06 2.92245e-06 0.108682)
(1.5104e-06 -2.98981e-06 0.10868)
(1.42612e-06 2.92131e-06 0.108682)
(1.51289e-06 -2.99408e-06 0.10868)
(-1.49313e-06 -2.96201e-06 0.10868)
(-1.42501e-06 2.90368e-06 0.108682)
(-1.49256e-06 -2.96494e-06 0.10868)
(6.70381e-05 -6.70962e-05 0.106314)
(-7.29446e-05 7.29812e-05 0.106513)
(-2.90749e-06 -1.42808e-06 0.108681)
(2.90352e-06 -1.42122e-06 0.108682)
(-2.90647e-06 -1.43077e-06 0.108681)
(7.29328e-05 7.29692e-05 0.106513)
(6.70332e-05 6.70339e-05 0.106315)
(-7.29645e-05 -7.29318e-05 0.106514)
(2.99337e-06 1.51365e-06 0.108681)
(-2.99974e-06 1.5127e-06 0.108681)
(2.99078e-06 1.51368e-06 0.108681)
(-2.99264e-06 1.51129e-06 0.108681)
(-6.70554e-05 6.69987e-05 0.106314)
(7.29711e-05 -7.2947e-05 0.106514)
(1.42753e-06 2.92021e-06 0.108682)
(1.51334e-06 -2.99441e-06 0.10868)
(1.42692e-06 2.91778e-06 0.108682)
(1.51232e-06 -2.98684e-06 0.10868)
(-1.49166e-06 -2.96481e-06 0.10868)
(-1.42498e-06 2.89689e-06 0.108682)
(-1.49214e-06 -2.9628e-06 0.10868)
(6.70265e-05 -6.70851e-05 0.106314)
(-7.29132e-05 7.29502e-05 0.106513)
(-2.90611e-06 -1.43021e-06 0.108681)
(2.89632e-06 -1.42085e-06 0.108682)
(-2.90205e-06 -1.43265e-06 0.108681)
(7.29165e-05 7.29487e-05 0.106513)
(6.70457e-05 6.70447e-05 0.106314)
(-7.29535e-05 -7.29318e-05 0.106514)
(2.99693e-06 1.51401e-06 0.108681)
(-2.9988e-06 1.51248e-06 0.108681)
(2.99216e-06 1.50883e-06 0.108681)
(-2.98724e-06 1.50955e-06 0.108681)
(-6.7065e-05 6.70079e-05 0.106314)
(7.29644e-05 -7.29395e-05 0.106514)
(1.42868e-06 2.92236e-06 0.108682)
(1.514e-06 -2.99555e-06 0.10868)
(1.43143e-06 2.90911e-06 0.108682)
(1.5164e-06 -2.99491e-06 0.10868)
(-1.49254e-06 -2.97069e-06 0.10868)
(-1.42207e-06 2.89291e-06 0.108682)
(-1.4865e-06 -2.96406e-06 0.10868)
(6.70458e-05 -6.7104e-05 0.106314)
(-7.29041e-05 7.29424e-05 0.106513)
(-2.9091e-06 -1.43192e-06 0.108681)
(2.90512e-06 -1.42554e-06 0.108682)
(-2.89225e-06 -1.43727e-06 0.108681)
(7.29101e-05 7.29302e-05 0.106513)
(6.70834e-05 6.70712e-05 0.106315)
(-7.30103e-05 -7.29848e-05 0.106514)
(2.99073e-06 1.50793e-06 0.108681)
(-2.98528e-06 1.5098e-06 0.108681)
(3.01167e-06 1.52362e-06 0.108681)
(-3.00853e-06 1.52685e-06 0.108681)
(-6.71001e-05 6.70447e-05 0.106314)
(7.30198e-05 -7.29927e-05 0.106514)
(1.43323e-06 2.9045e-06 0.108682)
(1.5207e-06 -2.99418e-06 0.10868)
(1.44745e-06 2.92522e-06 0.108682)
(1.53944e-06 -3.02301e-06 0.10868)
(-1.48605e-06 -2.96395e-06 0.10868)
(-1.43694e-06 2.91694e-06 0.108682)
(-1.4996e-06 -2.98462e-06 0.10868)
(6.70865e-05 -6.71436e-05 0.106314)
(-7.29523e-05 7.29931e-05 0.106513)
(-2.89009e-06 -1.43616e-06 0.108681)
(2.93441e-06 -1.44677e-06 0.108682)
(-2.90867e-06 -1.45279e-06 0.108681)
(7.29654e-05 7.29877e-05 0.106513)
(6.70534e-05 6.70471e-05 0.106315)
(-7.30001e-05 -7.29591e-05 0.106514)
(2.9983e-06 1.52351e-06 0.108681)
(-2.99844e-06 1.52806e-06 0.108681)
(3.0246e-06 1.55339e-06 0.108681)
(-3.02993e-06 1.55728e-06 0.108681)
(-6.70762e-05 6.70234e-05 0.106315)
(7.30046e-05 -7.29754e-05 0.106514)
(1.44754e-06 2.91478e-06 0.108682)
(1.53999e-06 -3.01573e-06 0.10868)
(1.47394e-06 2.95266e-06 0.108682)
(1.56014e-06 -3.03107e-06 0.10868)
(-1.50023e-06 -2.97271e-06 0.10868)
(-1.46465e-06 2.9395e-06 0.108682)
(-1.52976e-06 -3.00104e-06 0.10868)
(6.70603e-05 -6.71146e-05 0.106314)
(-7.29375e-05 7.29791e-05 0.106513)
(-2.89939e-06 -1.44956e-06 0.108681)
(2.94364e-06 -1.46693e-06 0.108682)
(-2.9369e-06 -1.47788e-06 0.108681)
(7.29444e-05 7.29814e-05 0.106513)
(1.56602e-06 -3.03297e-06 0.10868)
(6.7043e-05 -6.70962e-05 0.106314)
(6.12019e-05 6.12151e-05 0.108853)
(-6.12218e-05 6.12004e-05 0.108853)
(6.12106e-05 -6.12175e-05 0.108853)
(-6.12364e-05 -6.11948e-05 0.108853)
(-1.61133e-06 3.72146e-06 0.0723396)
(6.07065e-05 -9.9115e-05 0.10783)
(6.06178e-06 -3.28942e-05 0.0960231)
(1.78774e-06 2.11478e-05 0.0940172)
(-1.58678e-06 1.96484e-05 0.0835887)
(1.91383e-06 4.40714e-05 0.0940762)
(-4.26895e-06 1.95907e-07 0.0835684)
(-1.90061e-06 6.87969e-06 0.0721722)
(4.0156e-06 -1.53556e-06 0.0721793)
(2.10985e-05 1.80623e-06 0.094017)
(1.96304e-05 -1.58046e-06 0.0835887)
(4.40498e-05 1.93141e-06 0.0940759)
(1.72241e-07 -4.26198e-06 0.0835685)
(-6.07644e-05 6.07403e-05 0.108928)
(6.07506e-05 -6.07586e-05 0.108928)
(-6.07788e-05 -6.07382e-05 0.108928)
(5.97893e-05 5.97981e-05 0.109152)
(-5.98109e-05 5.9789e-05 0.109152)
(5.97907e-05 -5.98091e-05 0.109152)
(-5.98265e-05 -5.97832e-05 0.109152)
(-6.13586e-05 4.35772e-06 0.102462)
(-6.0657e-05 1.63564e-05 0.0957181)
(-0.000100878 1.86411e-05 0.108621)
(-9.65663e-05 5.94213e-05 0.108021)
(-0.000105079 4.66794e-06 0.102454)
(-2.86321e-05 4.64791e-06 0.095717)
(-0.000100495 1.8501e-05 0.108686)
(6.87355e-06 -1.91609e-06 0.0721723)
(-1.53343e-06 4.00836e-06 0.0721786)
(4.29569e-06 -6.13566e-05 0.102461)
(1.86489e-05 -0.000100884 0.10862)
(1.6358e-05 -6.06746e-05 0.0957196)
(5.94305e-05 -9.65747e-05 0.108021)
(4.66391e-06 -0.00010511 0.102454)
(1.8507e-05 -0.000100509 0.108686)
(4.62949e-06 -2.8533e-05 0.0957153)
(-2.89245e-05 -1.26015e-05 0.0893981)
(-1.26005e-05 -2.89093e-05 0.0893971)
(6.5731e-06 6.66319e-06 0.106799)
(-1.83301e-05 -4.28046e-07 0.0893675)
(-4.36378e-07 -1.83087e-05 0.0893643)
(1.55858e-06 1.69647e-05 0.0937167)
(-4.98041e-07 1.79831e-05 0.083366)
(1.50881e-06 3.97476e-05 0.0937656)
(-3.16684e-06 -2.05647e-06 0.083353)
(-2.05375e-06 6.37259e-06 0.0720212)
(2.96344e-06 -2.26205e-06 0.0720318)
(1.69856e-05 1.5741e-06 0.0937166)
(1.79499e-05 -4.81265e-07 0.083366)
(3.97622e-05 1.53631e-06 0.0937653)
(-2.07977e-06 -3.16054e-06 0.0833531)
(-5.94201e-05 5.93939e-05 0.109226)
(5.93949e-05 -5.94124e-05 0.109226)
(-5.94356e-05 -5.93896e-05 0.109226)
(5.77138e-05 5.77303e-05 0.109442)
(-5.77422e-05 5.77274e-05 0.109442)
(5.77249e-05 -5.77451e-05 0.109442)
(-5.77564e-05 -5.77282e-05 0.109442)
(-5.43753e-05 3.43791e-06 0.10219)
(-5.64417e-05 1.46899e-05 0.0954269)
(-9.97938e-05 1.80839e-05 0.108878)
(-9.40591e-05 5.83641e-05 0.108193)
(-9.77675e-05 3.77476e-06 0.102184)
(-2.44298e-05 3.44903e-06 0.0954312)
(-9.92848e-05 1.78784e-05 0.10894)
(6.37731e-06 -2.06689e-06 0.0720213)
(-2.25818e-06 2.99084e-06 0.0720312)
(3.44715e-06 -5.43962e-05 0.102189)
(1.80807e-05 -9.98136e-05 0.108877)
(1.46845e-05 -5.64354e-05 0.0954282)
(5.83603e-05 -9.40422e-05 0.108193)
(3.80719e-06 -9.77542e-05 0.102185)
(1.78832e-05 -9.93015e-05 0.10894)
(3.41227e-06 -2.44201e-05 0.0954296)
(-2.66957e-05 -1.17327e-05 0.0891464)
(-1.17649e-05 -2.66848e-05 0.0891454)
(8.85622e-06 8.95626e-06 0.106823)
(-1.56903e-05 -2.08503e-07 0.0891236)
(-1.54095e-07 -1.57055e-05 0.0891204)
(8.55282e-07 1.37358e-05 0.0934505)
(-2.37124e-06 1.75301e-05 0.0831661)
(1.21373e-06 3.50752e-05 0.0934877)
(-4.27483e-06 -1.41306e-06 0.0831624)
(-8.69041e-07 7.21585e-06 0.0718846)
(5.08821e-06 -1.42415e-06 0.0719009)
(1.37543e-05 8.66894e-07 0.0934504)
(1.75168e-05 -2.35846e-06 0.0831661)
(3.5092e-05 1.22779e-06 0.0934874)
(-1.4379e-06 -4.25773e-06 0.0831625)
(-5.7296e-05 5.72839e-05 0.109513)
(5.72846e-05 -5.72999e-05 0.109513)
(-5.73148e-05 -5.72887e-05 0.109513)
(5.54448e-05 5.54559e-05 0.10972)
(-5.54714e-05 5.54588e-05 0.10972)
(5.54603e-05 -5.54738e-05 0.10972)
(-5.5487e-05 -5.5461e-05 0.10972)
(-4.71957e-05 2.88364e-06 0.10192)
(-5.17064e-05 1.33454e-05 0.0951563)
(-9.76241e-05 1.74406e-05 0.10912)
(-9.10092e-05 5.70536e-05 0.108346)
(-8.93036e-05 3.14464e-06 0.101912)
(-2.11467e-05 2.03846e-06 0.0951668)
(-9.72767e-05 1.73237e-05 0.109179)
(7.21392e-06 -8.70417e-07 0.0718847)
(-1.44142e-06 5.07592e-06 0.0719003)
(2.88093e-06 -4.72107e-05 0.101918)
(1.74549e-05 -9.76217e-05 0.10912)
(1.336e-05 -5.17465e-05 0.0951578)
(5.70552e-05 -9.10033e-05 0.108346)
(3.16623e-06 -8.93393e-05 0.101913)
(1.73423e-05 -9.72865e-05 0.109179)
(2.01782e-06 -2.11454e-05 0.0951653)
(-2.45856e-05 -1.02583e-05 0.0889168)
(-1.02025e-05 -2.45898e-05 0.0889159)
(1.11896e-05 1.125e-05 0.106821)
(-1.43938e-05 1.35334e-06 0.0889032)
(1.40972e-06 -1.43994e-05 0.0889)
(8.84791e-07 9.02092e-06 0.0932065)
(4.30515e-07 1.4065e-05 0.0829878)
(6.8083e-07 3.19544e-05 0.0932335)
(-1.54129e-06 -6.08366e-06 0.0829939)
(-2.4943e-06 5.31544e-06 0.0717634)
(2.0732e-06 -3.44453e-06 0.0717862)
(9.03328e-06 9.02075e-07 0.0932063)
(1.40573e-05 4.43198e-07 0.0829879)
(3.19668e-05 7.01841e-07 0.0932333)
(-6.10869e-06 -1.51418e-06 0.082994)
(-5.43617e-05 5.43518e-05 0.109787)
(5.43506e-05 -5.43609e-05 0.109787)
(-5.43761e-05 -5.43485e-05 0.109787)
(5.02628e-05 5.02843e-05 0.109978)
(-5.02835e-05 5.02817e-05 0.109978)
(5.02754e-05 -5.02786e-05 0.109978)
(-5.03118e-05 -5.02744e-05 0.109978)
(-3.75515e-05 1.78227e-06 0.101652)
(-4.71194e-05 1.14357e-05 0.09491)
(-9.44889e-05 1.64035e-05 0.109346)
(-8.48754e-05 5.35274e-05 0.108476)
(-8.05692e-05 2.20355e-06 0.101645)
(-1.48489e-05 7.06651e-07 0.0949282)
(-9.27657e-05 1.59349e-05 0.109399)
(5.30187e-06 -2.52439e-06 0.0717635)
(-3.45743e-06 2.06716e-06 0.0717855)
(1.76529e-06 -3.75627e-05 0.10165)