/*--------------------------------*- C++ -*----------------------------------*\
| =========                 |                                                 |
| \\      /  F ield         | OpenFOAM: The Open Source CFD Toolbox           |
|  \\    /   O peration     | Version:  2312                                  |
|   \\  /    A nd           | Website:  www.openfoam.com                      |
|    \\/     M anipulation  |                                                 |
\*---------------------------------------------------------------------------*/
FoamFile
{
    version     2.0;
    format      ascii;
    arch        "LSB;label=32;scalar=64";
    class       volScalarField;
    location    "50";
    object      epsilon;
}
// * * * * * * * * * * * * * * * * * * * * * * * * * * * * * * * * * * * * * //

dimensions      [0 2 -3 0 0 0 0];

internalField   nonuniform List<scalar> 
42840
(
1.99109e-07
2.32923e-07
2.32897e-07
2.72834e-07
1.99137e-07
2.33011e-07
2.32928e-07
2.72831e-07
1.99242e-07
2.33093e-07
2.33037e-07
2.72876e-07
1.99417e-07
2.33161e-07
2.3314e-07
2.72864e-07
1.99374e-07
2.33084e-07
2.33089e-07
2.72871e-07
1.99312e-07
2.33e-07
2.33011e-07
2.72775e-07
1.99254e-07
2.3294e-07
2.3294e-07
2.72785e-07
1.99192e-07
2.32884e-07
2.32897e-07
2.72744e-07
1.99164e-07
2.32876e-07
2.32877e-07
2.72713e-07
1.99149e-07
2.32875e-07
2.3287e-07
2.72718e-07
1.99145e-07
2.32871e-07
2.32869e-07
2.72748e-07
1.99141e-07
2.32871e-07
2.32873e-07
2.72691e-07
1.9914e-07
2.32867e-07
2.32882e-07
2.72709e-07
1.99147e-07
2.32874e-07
2.32885e-07
2.72763e-07
1.99148e-07
2.32872e-07
2.32897e-07
2.72747e-07
1.99147e-07
2.32867e-07
2.32902e-07
2.72747e-07
1.99144e-07
2.32865e-07
2.32894e-07
2.72741e-07
1.99145e-07
2.32869e-07
2.32893e-07
2.7274e-07
1.99145e-07
2.32868e-07
2.32901e-07
2.72743e-07
1.99141e-07
2.3287e-07
2.32892e-07
2.72744e-07
1.99145e-07
2.32867e-07
2.32897e-07
2.72746e-07
1.99146e-07
2.32865e-07
2.32898e-07
2.72742e-07
1.99146e-07
2.32867e-07
2.32898e-07
2.72743e-07
1.99145e-07
2.32865e-07
2.32897e-07
2.7274e-07
1.99146e-07
2.32874e-07
2.32899e-07
2.72729e-07
2.72747e-07
2.72425e-07
2.32929e-07
2.32939e-07
2.32971e-07
2.32997e-07
2.72916e-07
2.72578e-07
2.32887e-07
2.32928e-07
2.32945e-07
2.32962e-07
2.32946e-07
2.32997e-07
2.32995e-07
2.72725e-07
2.72382e-07
2.32917e-07
2.32915e-07
2.32974e-07
2.72524e-07
2.72791e-07
2.72527e-07
2.32995e-07
2.3303e-07
2.33075e-07
2.33099e-07
2.72898e-07
2.72587e-07
2.32959e-07
2.32973e-07
2.33047e-07
2.33056e-07
2.33021e-07
2.33076e-07
2.33106e-07
2.72703e-07
2.72427e-07
2.32984e-07
2.33011e-07
2.33083e-07
2.72568e-07
2.72858e-07
2.72605e-07
2.33144e-07
2.33162e-07
2.33192e-07
2.33202e-07
2.72907e-07
2.72581e-07
2.33117e-07
2.33129e-07
2.33159e-07
2.33186e-07
2.33178e-07
2.33169e-07
2.33212e-07
2.72749e-07
2.72487e-07
2.33161e-07
2.33148e-07
2.33192e-07
2.72554e-07
2.72917e-07
2.72501e-07
2.33189e-07
2.33204e-07
2.33124e-07
2.33133e-07
2.72898e-07
2.72554e-07
2.33163e-07
2.33191e-07
2.33096e-07
2.33123e-07
2.33205e-07
2.33127e-07
2.33138e-07
2.72817e-07
2.72561e-07
2.33186e-07
2.33124e-07
2.33118e-07
2.72558e-07
2.7282e-07
2.72461e-07
2.33128e-07
2.33127e-07
2.33051e-07
2.33049e-07
2.72871e-07
2.7255e-07
2.33094e-07
2.33148e-07
2.33022e-07
2.33052e-07
2.3316e-07
2.33042e-07
2.33058e-07
2.72938e-07
2.72476e-07
2.33114e-07
2.3305e-07
2.33024e-07
2.72477e-07
2.72782e-07
2.72379e-07
2.33043e-07
2.33046e-07
2.32973e-07
2.32983e-07
2.72857e-07
2.72482e-07
2.33018e-07
2.33053e-07
2.32954e-07
2.32986e-07
2.33054e-07
2.32963e-07
2.32981e-07
2.72786e-07
2.72449e-07
2.33041e-07
2.32968e-07
2.32947e-07
2.72454e-07
2.72683e-07
2.72377e-07
2.32976e-07
2.32995e-07
2.32925e-07
2.32943e-07
2.72796e-07
2.72419e-07
2.32956e-07
2.32986e-07
2.32903e-07
2.32931e-07
2.32987e-07
2.32904e-07
2.32933e-07
2.72766e-07
2.72387e-07
2.32992e-07
2.32907e-07
2.32922e-07
2.72426e-07
2.72711e-07
2.7239e-07
2.32931e-07
2.32946e-07
2.32902e-07
2.32909e-07
2.72764e-07
2.7246e-07
2.32917e-07
2.3294e-07
2.3288e-07
2.32896e-07
2.32936e-07
2.32881e-07
2.32902e-07
2.72704e-07
2.72355e-07
2.32927e-07
2.32889e-07
2.32894e-07
2.72403e-07
2.72754e-07
2.72431e-07
2.32908e-07
2.32923e-07
2.32901e-07
2.32897e-07
2.72799e-07
2.72479e-07
2.32885e-07
2.32911e-07
2.32867e-07
2.3289e-07
2.32917e-07
2.32878e-07
2.32886e-07
2.7271e-07
2.72433e-07
2.329e-07
2.32872e-07
2.32886e-07
2.7241e-07
2.7276e-07
2.72462e-07
2.32903e-07
2.329e-07
2.32905e-07
2.32905e-07
2.7284e-07
2.72494e-07
2.32879e-07
2.32891e-07
2.32869e-07
2.32899e-07
2.32895e-07
2.32874e-07
2.32898e-07
2.72757e-07
2.72422e-07
2.32889e-07
2.32873e-07
2.32878e-07
2.72439e-07
2.72772e-07
2.72394e-07
2.32907e-07
2.32907e-07
2.32902e-07
2.32921e-07
2.7282e-07
2.72516e-07
2.32879e-07
2.32902e-07
2.32879e-07
2.32909e-07
2.32908e-07
2.3287e-07
2.32898e-07
2.72754e-07
2.72466e-07
2.32887e-07
2.32872e-07
2.32881e-07
2.72391e-07
2.72707e-07
2.72386e-07
2.329e-07
2.32929e-07
2.329e-07
2.32914e-07
2.72829e-07
2.7241e-07
2.32879e-07
2.32928e-07
2.32885e-07
2.32923e-07
2.32902e-07
2.32868e-07
2.32911e-07
2.72792e-07
2.7245e-07
2.32896e-07
2.32882e-07
2.32884e-07
2.72396e-07
2.72749e-07
2.72509e-07
2.32902e-07
2.32925e-07
2.32917e-07
2.32912e-07
2.72754e-07
2.72397e-07
2.32893e-07
2.32933e-07
2.32895e-07
2.32929e-07
2.32913e-07
2.32874e-07
2.32915e-07
2.72789e-07
2.72513e-07
2.32901e-07
2.32884e-07
2.32894e-07
2.72446e-07
2.72846e-07
2.72528e-07
2.3292e-07
2.32912e-07
2.3292e-07
2.32915e-07
2.72721e-07
2.72444e-07
2.32893e-07
2.32938e-07
2.32888e-07
2.3293e-07
2.32916e-07
2.32876e-07
2.32913e-07
2.72855e-07
2.72559e-07
2.32901e-07
2.32896e-07
2.32898e-07
2.72437e-07
2.72875e-07
2.72473e-07
2.32939e-07
2.32918e-07
2.32924e-07
2.32909e-07
2.72758e-07
2.72412e-07
2.32911e-07
2.3295e-07
2.32896e-07
2.32939e-07
2.32914e-07
2.32867e-07
2.32909e-07
2.72888e-07
2.7252e-07
2.32897e-07
2.32904e-07
2.32893e-07
2.72435e-07
2.72824e-07
2.72478e-07
2.3293e-07
2.32922e-07
2.32922e-07
2.32907e-07
2.72734e-07
2.72407e-07
2.32893e-07
2.32939e-07
2.32887e-07
2.32937e-07
2.32914e-07
2.32868e-07
2.32906e-07
2.72879e-07
2.7254e-07
2.32901e-07
2.32898e-07
2.32895e-07
2.72432e-07
2.72828e-07
2.72452e-07
2.32921e-07
2.32925e-07
2.32917e-07
2.32917e-07
2.72752e-07
2.72429e-07
2.32894e-07
2.32939e-07
2.32891e-07
2.32934e-07
2.32914e-07
2.32869e-07
2.32907e-07
2.72844e-07
2.72495e-07
2.32894e-07
2.32892e-07
2.32894e-07
2.7243e-07
2.72781e-07
2.72452e-07
2.32918e-07
2.32917e-07
2.32914e-07
2.32917e-07
2.72756e-07
2.72427e-07
2.32898e-07
2.32937e-07
2.32883e-07
2.32935e-07
2.32916e-07
2.3287e-07
2.32904e-07
2.72856e-07
2.7253e-07
2.32901e-07
2.32904e-07
2.32895e-07
2.72432e-07
2.72804e-07
2.72568e-07
2.32917e-07
2.3292e-07
2.32928e-07
2.32915e-07
2.72756e-07
2.72469e-07
2.32901e-07
2.32939e-07
2.32895e-07
2.3294e-07
2.32904e-07
2.32872e-07
2.32907e-07
2.7289e-07
2.72534e-07
2.32907e-07
2.32892e-07
2.32896e-07
2.72435e-07
2.72918e-07
2.72541e-07
2.3293e-07
2.32921e-07
2.32926e-07
2.32919e-07
2.72788e-07
2.72428e-07
2.32896e-07
2.32943e-07
2.32897e-07
2.32931e-07
2.3291e-07
2.32871e-07
2.32913e-07
2.72852e-07
2.72519e-07
2.32911e-07
2.32896e-07
2.32896e-07
2.72435e-07
2.72866e-07
2.72484e-07
2.3292e-07
2.32924e-07
2.32903e-07
2.32917e-07
2.72734e-07
2.72423e-07
2.32894e-07
2.32946e-07
2.32889e-07
2.32931e-07
2.32915e-07
2.32862e-07
2.32912e-07
2.72871e-07
2.72537e-07
2.32901e-07
2.32901e-07
2.32898e-07
2.72432e-07
2.72802e-07
2.72474e-07
2.32922e-07
2.32934e-07
2.32909e-07
2.32929e-07
2.7279e-07
2.72489e-07
2.3289e-07
2.32947e-07
2.3289e-07
2.32932e-07
2.32912e-07
2.32868e-07
2.3291e-07
2.72853e-07
2.72532e-07
2.32901e-07
2.32898e-07
2.32896e-07
2.72431e-07
2.72806e-07
2.72474e-07
2.32914e-07
2.32929e-07
2.3291e-07
2.32929e-07
2.72813e-07
2.72494e-07
2.32895e-07
2.32931e-07
2.32883e-07
2.32938e-07
2.32914e-07
2.32865e-07
2.32907e-07
2.72862e-07
2.72545e-07
2.32897e-07
2.32899e-07
2.32895e-07
2.72431e-07
2.72787e-07
2.72461e-07
2.3292e-07
2.32932e-07
2.32905e-07
2.32924e-07
2.72828e-07
2.72426e-07
2.3289e-07
2.32937e-07
2.32885e-07
2.32936e-07
2.3292e-07
2.32873e-07
2.32912e-07
2.72864e-07
2.72561e-07
2.32895e-07
2.32901e-07
2.32895e-07
2.72417e-07
2.72793e-07
2.3292e-07
2.32929e-07
2.72741e-07
2.32889e-07
2.32935e-07
2.3292e-07
2.72888e-07
2.32913e-07
2.01708e-06
8.71079e-06
8.70827e-06
2.01827e-06
1.97097e-05
1.97106e-05
2.01729e-06
8.71107e-06
8.70956e-06
2.01846e-06
1.99128e-07
1.99102e-07
1.9913e-07
1.99127e-07
1.99165e-07
1.99122e-07
1.99151e-07
5.33944e-07
1.63815e-06
2.10383e-07
2.32975e-07
1.63679e-06
2.10431e-07
5.34074e-07
1.97133e-05
1.97112e-05
5.33645e-07
2.10374e-07
1.63822e-06
2.32914e-07
2.10396e-07
1.6369e-06
5.33614e-07
3.73919e-06
3.73889e-06
2.7253e-07
3.73637e-06
3.73882e-06
2.01689e-06
8.70731e-06
2.01782e-06
8.70712e-06
1.97094e-05
1.97097e-05
2.01693e-06
8.70853e-06
2.01797e-06
8.70844e-06
1.99181e-07
1.99146e-07
1.99167e-07
1.99204e-07
1.99272e-07
1.99245e-07
1.99272e-07
5.34138e-07
1.63801e-06
2.10442e-07
2.33056e-07
5.34343e-07
1.63685e-06
2.1049e-07
1.97082e-05
1.97097e-05
5.34184e-07
2.10409e-07
1.6377e-06
2.32973e-07
5.34257e-07
2.10457e-07
1.63632e-06
3.73547e-06
3.73712e-06
2.72533e-07
3.73434e-06
3.73705e-06
2.01705e-06
8.70808e-06
2.01794e-06
8.70901e-06
1.97108e-05
1.97126e-05
2.01701e-06
8.71016e-06
2.01798e-06
8.71096e-06
1.99364e-07
1.99341e-07
1.99365e-07
1.99413e-07
1.99468e-07
1.99457e-07
1.99475e-07
5.34128e-07
1.63827e-06
2.10553e-07
2.33153e-07
5.34448e-07
1.63723e-06
2.10646e-07
1.97119e-05
1.97135e-05
5.34213e-07
2.10533e-07
1.63774e-06
2.33115e-07
5.34554e-07
2.10627e-07
1.63675e-06
3.73601e-06
3.73624e-06
2.72527e-07
3.73491e-06
3.73653e-06
2.0173e-06
8.71066e-06
2.01817e-06
8.71071e-06
1.97149e-05
1.97167e-05
2.01739e-06
8.71232e-06
2.0182e-06
8.71243e-06
1.99483e-07
1.99479e-07
1.99488e-07
1.994e-07
1.99446e-07
1.99436e-07
1.99462e-07
5.3395e-07
1.639e-06
2.10665e-07
2.33157e-07
5.34271e-07
1.63801e-06
2.10663e-07
1.97163e-05
1.97187e-05
5.34118e-07
2.10649e-07
1.63838e-06
2.33139e-07
5.34421e-07
2.10661e-07
1.63735e-06
3.7385e-06
3.73711e-06
2.72547e-07
3.7402e-06
3.7381e-06
2.01761e-06
8.71123e-06
2.01851e-06
8.71118e-06
1.97175e-05
1.97191e-05
2.01769e-06
8.7136e-06
2.01859e-06
8.71338e-06
1.99443e-07
1.99437e-07
1.99452e-07
1.99355e-07
1.99372e-07
1.99366e-07
1.99378e-07
5.33789e-07
1.63966e-06
2.10587e-07
2.33082e-07
5.34112e-07
1.63854e-06
2.10599e-07
1.972e-05
1.97211e-05
5.33856e-07
2.10581e-07
1.63888e-06
2.33087e-07
5.34209e-07
2.10602e-07
1.63788e-06
3.74116e-06
3.74365e-06
2.72481e-07
3.74714e-06
3.74351e-06
2.01768e-06
8.71195e-06
2.01868e-06
8.71151e-06
1.97199e-05
1.97218e-05
2.0178e-06
8.71307e-06
2.01876e-06
8.71291e-06
1.99367e-07
1.99374e-07
1.99382e-07
1.99274e-07
1.99303e-07
1.99297e-07
1.99298e-07
5.33835e-07
1.63987e-06
2.10537e-07
2.33003e-07
5.34041e-07
1.63857e-06
2.10529e-07
1.97221e-05
1.97232e-05
5.33858e-07
2.10526e-07
1.63946e-06
2.33005e-07
5.34127e-07
2.10523e-07
1.63843e-06
3.74777e-06
3.74591e-06
2.72429e-07
3.74458e-06
3.74307e-06
2.0177e-06
8.71236e-06
2.01867e-06
8.71218e-06
1.97216e-05
1.97221e-05
2.01773e-06
8.71313e-06
2.0188e-06
8.71284e-06
1.99297e-07
1.99302e-07
1.99316e-07
1.99218e-07
1.9923e-07
1.99229e-07
1.99236e-07
5.3396e-07
1.63986e-06
2.10477e-07
2.32955e-07
5.3427e-07
1.63862e-06
2.10476e-07
1.97228e-05
1.97232e-05
5.33998e-07
2.10476e-07
1.63979e-06
2.32953e-07
5.34168e-07
2.10475e-07
1.63861e-06
3.73926e-06
3.74306e-06
2.72422e-07
3.74768e-06
3.74259e-06
2.01771e-06
8.71204e-06
2.01869e-06
8.71164e-06
1.9721e-05
1.97214e-05
2.01784e-06
8.71364e-06
2.0188e-06
8.71326e-06
1.99247e-07
1.99226e-07
1.9924e-07
1.99163e-07
1.99183e-07
1.99181e-07
1.99187e-07
5.33546e-07
1.63991e-06
2.10425e-07
2.32917e-07
5.34011e-07
1.63862e-06
2.10422e-07
1.97218e-05
1.9722e-05
5.33893e-07
2.10414e-07
1.6399e-06
2.32897e-07
5.34287e-07
2.10415e-07
1.63864e-06
3.74989e-06
3.74422e-06
2.72425e-07
3.74383e-06
3.74356e-06
2.01757e-06
8.71153e-06
2.01862e-06
8.71108e-06
1.972e-05
1.97207e-05
2.01767e-06
8.71281e-06
2.01871e-06
8.7123e-06
1.99201e-07
1.99196e-07
1.99198e-07
1.9916e-07
1.99163e-07
1.99162e-07
1.99167e-07
5.33514e-07
1.63981e-06
2.10385e-07
2.32884e-07
5.33676e-07
1.63847e-06
2.10386e-07
1.9721e-05
1.97217e-05
5.33726e-07
2.10399e-07
1.63978e-06
2.32874e-07
5.33961e-07
2.10397e-07
1.63854e-06
3.7395e-06
3.74353e-06
2.72368e-07
3.74097e-06
3.74187e-06
2.01732e-06
8.7108e-06
2.01835e-06
8.71069e-06
1.97205e-05
1.97214e-05
2.01747e-06
8.71205e-06
2.01848e-06
8.71148e-06
1.99167e-07
1.99168e-07
1.99168e-07
1.99148e-07
1.99153e-07
1.99159e-07
1.99158e-07
5.33863e-07
1.6397e-06
2.10381e-07
2.32876e-07
5.33993e-07
1.63844e-06
2.10385e-07
1.97212e-05
1.97219e-05
5.33907e-07
2.10377e-07
1.63979e-06
2.32872e-07
5.34127e-07
2.10378e-07
1.63853e-06
3.74897e-06
3.74578e-06
2.72413e-07
3.75044e-06
3.74354e-06
2.01737e-06
8.71099e-06
2.0183e-06
8.71049e-06
1.97211e-05
1.97219e-05
2.01751e-06
8.71139e-06
2.01848e-06
8.71162e-06
1.99173e-07
1.99165e-07
1.99173e-07
1.99143e-07
1.9916e-07
1.99158e-07
1.99161e-07
5.33758e-07
1.63981e-06
2.10382e-07
2.32871e-07
5.341e-07
1.63859e-06
2.10385e-07
1.97211e-05
1.97219e-05
5.33864e-07
2.10371e-07
1.6397e-06
2.32871e-07
5.34129e-07
2.10378e-07
1.63846e-06
3.75785e-06
3.74434e-06
2.72416e-07
3.75794e-06
3.74204e-06
2.01753e-06
8.71039e-06
2.01847e-06
8.71051e-06
1.97213e-05
1.97221e-05
2.01759e-06
8.71177e-06
2.01856e-06
8.71182e-06
1.99163e-07
1.99168e-07
1.9918e-07
1.9914e-07
1.99162e-07
1.99163e-07
1.99166e-07
5.33673e-07
1.63996e-06
2.10379e-07
2.32872e-07
5.33943e-07
1.63874e-06
2.10381e-07
1.97215e-05
1.97224e-05
5.34011e-07
2.1038e-07
1.63977e-06
2.32878e-07
5.34292e-07
2.1039e-07
1.6386e-06
3.75936e-06
3.74359e-06
2.7234e-07
3.75833e-06
3.74174e-06
2.01754e-06
8.71101e-06
2.01856e-06
8.7105e-06
1.97213e-05
1.97216e-05
2.0176e-06
8.71227e-06
2.01861e-06
8.71207e-06
1.99162e-07
1.99174e-07
1.99174e-07
1.99146e-07
1.99163e-07
1.99165e-07
1.99167e-07
5.33728e-07
1.64006e-06
2.10384e-07
2.32883e-07
5.34021e-07
1.63881e-06
2.1039e-07
1.9722e-05
1.97228e-05
5.33596e-07
2.1037e-07
1.63994e-06
2.32885e-07
5.34055e-07
2.10417e-07
1.63877e-06
3.75941e-06
3.74354e-06
2.72413e-07
3.75836e-06
3.74174e-06
2.01752e-06
8.71036e-06
2.01853e-06
8.71052e-06
1.97205e-05
1.97213e-05
2.01762e-06
8.71241e-06
2.01861e-06
8.71217e-06
1.99163e-07
1.99164e-07
1.99164e-07
1.99149e-07
1.99163e-07
1.99163e-07
1.99169e-07
5.33605e-07
1.64009e-06
2.10377e-07
2.32879e-07
5.33904e-07
1.63882e-06
2.10379e-07
1.97222e-05
1.9723e-05
5.33184e-07
2.10366e-07
1.64009e-06
2.32891e-07
5.336e-07
2.10382e-07
1.63882e-06
3.75941e-06
3.74351e-06
2.72405e-07
3.75835e-06
3.7417e-06
2.01755e-06
8.71107e-06
2.01854e-06
8.71051e-06
1.97208e-05
1.97215e-05
2.01761e-06
8.71234e-06
2.01861e-06
8.71172e-06
1.99164e-07
1.9917e-07
1.99173e-07
1.99149e-07
1.9916e-07
1.9917e-07
1.99169e-07
5.33453e-07
1.64009e-06
2.10377e-07
2.3287e-07
5.33857e-07
1.63882e-06
2.1038e-07
1.97224e-05
1.97231e-05
5.33044e-07
2.10376e-07
1.63988e-06
2.32902e-07
5.33326e-07
2.10379e-07
1.63861e-06
3.7594e-06
3.74347e-06
2.72398e-07
3.75836e-06
3.74169e-06
2.0175e-06
8.71051e-06
2.01851e-06
8.71024e-06
1.97206e-05
1.97214e-05
2.01763e-06
8.71158e-06
2.01863e-06
8.71172e-06
1.99162e-07
1.99168e-07
1.99172e-07
1.99145e-07
1.99157e-07
1.99165e-07
1.99167e-07
5.33234e-07
1.64009e-06
2.10372e-07
2.32869e-07
5.33534e-07
1.63881e-06
2.10374e-07
1.97223e-05
1.97229e-05
5.32831e-07
2.10379e-07
1.63987e-06
2.32904e-07
5.33186e-07
2.10383e-07
1.63869e-06
3.75664e-06
3.74351e-06
2.72398e-07
3.75179e-06
3.74172e-06
2.01751e-06
8.71049e-06
2.01852e-06
8.71022e-06
1.97209e-05
1.97218e-05
2.01761e-06
8.71219e-06
2.01861e-06
8.71204e-06
1.99164e-07
1.99167e-07
1.99172e-07
1.99146e-07
1.99161e-07
1.99163e-07
1.99165e-07
5.33668e-07
1.64009e-06
2.10366e-07
2.32867e-07
5.3368e-07
1.63881e-06
2.10369e-07
1.9722e-05
1.97227e-05
5.3251e-07
2.10378e-07
1.64002e-06
2.32897e-07
5.32873e-07
2.1038e-07
1.63883e-06
3.7481e-06
3.74352e-06
2.72394e-07
3.74491e-06
3.74172e-06
2.0175e-06
8.71034e-06
2.01849e-06
8.71041e-06
1.97214e-05
1.97223e-05
2.01761e-06
8.71223e-06
2.01859e-06
8.71167e-06
1.99163e-07
1.99171e-07
1.99172e-07
1.99142e-07
1.99163e-07
1.99161e-07
1.99169e-07
5.33814e-07
1.64009e-06
2.10375e-07
2.32869e-07
5.3414e-07
1.63881e-06
2.1038e-07
1.97222e-05
1.97229e-05
5.32296e-07
2.10372e-07
1.64006e-06
2.32898e-07
5.3265e-07
2.10377e-07
1.63876e-06
3.7428e-06
3.74349e-06
2.72394e-07
3.74308e-06
3.74169e-06
2.01747e-06
8.71078e-06
2.01854e-06
8.71082e-06
1.97213e-05
1.97217e-05
2.01758e-06
8.71152e-06
2.01857e-06
8.71169e-06
1.99167e-07
1.99176e-07
1.99171e-07
1.9914e-07
1.99163e-07
1.99156e-07
1.99164e-07
5.33687e-07
1.64009e-06
2.10382e-07
2.32869e-07
5.33963e-07
1.63882e-06
2.10385e-07
1.97223e-05
1.9723e-05
5.32043e-07
2.10375e-07
1.63982e-06
2.32903e-07
5.32375e-07
2.10377e-07
1.63856e-06
3.75013e-06
3.74347e-06
2.72398e-07
3.75277e-06
3.74168e-06
2.01757e-06
8.71136e-06
2.01854e-06
8.7111e-06
1.97206e-05
1.97209e-05
2.01762e-06
8.71225e-06
2.01862e-06
8.7116e-06
1.99165e-07
1.99177e-07
1.99168e-07
1.99144e-07
1.99164e-07
1.99165e-07
1.99162e-07
5.33659e-07
1.64009e-06
2.1038e-07
2.32873e-07
5.33854e-07
1.63881e-06
2.10383e-07
1.97223e-05
1.9723e-05
5.32011e-07
2.10373e-07
1.63981e-06
2.32894e-07
5.3227e-07
2.10374e-07
1.63864e-06
3.75814e-06
3.74348e-06
2.72399e-07
3.75802e-06
3.7417e-06
2.01741e-06
8.71108e-06
2.01845e-06
8.7108e-06
1.97197e-05
1.97203e-05
2.0176e-06
8.71171e-06
2.01861e-06
8.71165e-06
1.99164e-07
1.99167e-07
1.9917e-07
1.99147e-07
1.99162e-07
1.99166e-07
1.99159e-07
5.33879e-07
1.64009e-06
2.10371e-07
2.32871e-07
5.34062e-07
1.63881e-06
2.10387e-07
1.9722e-05
1.97223e-05
5.3203e-07
2.10366e-07
1.63996e-06
2.329e-07
5.32285e-07
2.10372e-07
1.63878e-06
3.75663e-06
3.74354e-06
2.72398e-07
3.7518e-06
3.74174e-06
2.0175e-06
8.71077e-06
2.01846e-06
8.71073e-06
1.97197e-05
1.97205e-05
2.01758e-06
8.71182e-06
2.01858e-06
8.71156e-06
1.99162e-07
1.99168e-07
1.99177e-07
1.99147e-07
1.99161e-07
1.99164e-07
1.99164e-07
5.33887e-07
1.64009e-06
2.10377e-07
2.32871e-07
5.34196e-07
1.6388e-06
2.10387e-07
1.97212e-05
1.9722e-05
5.32034e-07
2.10367e-07
1.64008e-06
2.32894e-07
5.32292e-07
2.10371e-07
1.63887e-06
3.74811e-06
3.74351e-06
2.72395e-07
3.74491e-06
3.74171e-06
2.01753e-06
8.71093e-06
2.01854e-06
8.71059e-06
1.972e-05
1.97207e-05
2.01758e-06
8.71169e-06
2.01857e-06
8.71139e-06
1.99164e-07
1.99168e-07
1.99183e-07
1.99145e-07
1.99163e-07
1.99163e-07
1.99166e-07
5.33708e-07
1.64008e-06
2.10381e-07
2.3287e-07
5.34053e-07
1.6388e-06
2.10383e-07
1.97216e-05
1.97225e-05
5.32028e-07
2.10375e-07
1.64001e-06
2.329e-07
5.32289e-07
2.10377e-07
1.63875e-06
3.74278e-06
3.74348e-06
2.72394e-07
3.74306e-06
3.74051e-06
2.01754e-06
8.71114e-06
2.01854e-06
8.71073e-06
1.97201e-05
1.97208e-05
2.01758e-06
8.71182e-06
2.01858e-06
8.71177e-06
1.99166e-07
1.99171e-07
1.99168e-07
1.99147e-07
1.99158e-07
1.99165e-07
1.99167e-07
5.33469e-07
1.64008e-06
2.10377e-07
2.3287e-07
5.33864e-07
1.63881e-06
2.10379e-07
1.9722e-05
1.97228e-05
5.3203e-07
2.10375e-07
1.63998e-06
2.329e-07
5.32288e-07
2.10375e-07
1.63878e-06
3.75013e-06
3.74213e-06
2.724e-07
3.75268e-06
3.74165e-06
2.01754e-06
8.71095e-06
2.01855e-06
8.71048e-06
1.97201e-05
1.97208e-05
2.01764e-06
8.71275e-06
2.01862e-06
8.71154e-06
1.99168e-07
1.99171e-07
1.99171e-07
5.33176e-07
1.64009e-06
2.10374e-07
2.32876e-07
5.33613e-07
1.63879e-06
2.10373e-07
1.97222e-05
1.9723e-05
5.32042e-07
2.10374e-07
1.64008e-06
2.32899e-07
5.32294e-07
2.10378e-07
1.63889e-06
3.74415e-06
3.74241e-06
2.72371e-07
3.7433e-06
3.74204e-06
1.97084e-05
1.97089e-05
1.97114e-05
1.97109e-05
3.73688e-06
3.74089e-06
2.72422e-07
3.73728e-06
3.73886e-06
1.97083e-05
1.97082e-05
1.97088e-05
1.97095e-05
2.72739e-07
3.73807e-06
3.73626e-06
3.73895e-06
3.73869e-06
2.01696e-06
8.7092e-06
8.70848e-06
2.01777e-06
5.33541e-07
1.63812e-06
2.10376e-07
2.3296e-07
1.63687e-06
2.10409e-07
5.33597e-07
5.33518e-07
1.63831e-06
2.10372e-07
2.32983e-07
1.63706e-06
2.10397e-07
5.33589e-07
2.01788e-06
8.70694e-06
8.70794e-06
2.01687e-06
2.01784e-06
8.70711e-06
8.70925e-06
2.01704e-06
5.33892e-07
2.32959e-07
1.63679e-06
2.10417e-07
1.63798e-06
2.10405e-07
5.33895e-07
5.33862e-07
2.32983e-07
1.63706e-06
2.10408e-07
1.63819e-06
2.10402e-07
5.33808e-07
3.73682e-06
3.73622e-06
2.72603e-07
3.73586e-06
3.73553e-06
1.97068e-05
1.97075e-05
1.97102e-05
1.971e-05
2.72924e-07
3.73782e-06
3.73377e-06
3.73858e-06
3.73642e-06
1.97069e-05
1.97067e-05
5.33564e-07
1.63869e-06
2.10366e-07
2.32931e-07
1.63732e-06
2.10401e-07
5.33606e-07
2.0172e-06
8.71031e-06
8.70968e-06
2.01816e-06
5.33536e-07
2.10365e-07
1.63885e-06
2.32958e-07
2.10404e-07
1.63736e-06
5.33593e-07
2.01808e-06
8.70819e-06
8.70935e-06
2.01703e-06
5.33921e-07
2.32938e-07
1.63696e-06
2.10399e-07
1.63834e-06
2.1038e-07
5.33926e-07
2.01804e-06
8.70884e-06
8.70983e-06
2.01717e-06
5.33825e-07
2.32958e-07
2.10408e-07
1.637e-06
2.10393e-07
1.63837e-06
5.33683e-07
2.01763e-06
8.71109e-06
8.70967e-06
2.01863e-06
5.33598e-07
2.10393e-07
1.63856e-06
2.3297e-07
2.10419e-07
1.63713e-06
5.336e-07
2.01708e-06
8.71352e-06
8.71171e-06
2.0182e-06
5.34222e-07
2.32989e-07
1.63671e-06
2.10434e-07
1.63793e-06
2.10431e-07
5.3404e-07
2.01854e-06
8.70895e-06
8.70983e-06
2.01765e-06
5.33902e-07
2.32976e-07
2.10429e-07
1.63685e-06
2.10421e-07
1.63818e-06
5.3379e-07
2.01788e-06
8.71098e-06
8.71204e-06
2.01696e-06
3.74481e-06
3.73933e-06
2.72384e-07
3.73713e-06
3.73736e-06
1.97095e-05
1.97093e-05
1.97088e-05
1.97097e-05
2.72741e-07
3.73369e-06
3.73492e-06
3.73728e-06
3.73811e-06
1.97069e-05
1.9708e-05
5.3363e-07
2.10377e-07
1.6386e-06
2.32958e-07
2.10408e-07
1.63725e-06
5.33588e-07
2.01705e-06
8.70883e-06
8.70828e-06
2.01819e-06
2.0173e-06
8.70942e-06
8.70746e-06
2.01838e-06
5.33961e-07
2.32912e-07
2.10398e-07
1.63657e-06
2.10394e-07
1.63796e-06
5.33929e-07
5.33975e-07
2.32966e-07
2.10412e-07
1.63695e-06
2.10408e-07
1.63829e-06
5.3389e-07
2.0179e-06
8.70571e-06
8.70758e-06
2.0169e-06
2.01818e-06
8.70664e-06
8.70743e-06
2.01718e-06
1.97114e-05
1.97103e-05
1.97119e-05
1.97112e-05
2.72874e-07
3.73443e-06
3.73653e-06
3.73698e-06
3.7391e-06
1.97087e-05
1.97093e-05
1.97093e-05
1.97099e-05
1.97075e-05
1.9708e-05
1.9708e-05
1.97082e-05
3.73911e-06
3.73704e-06
2.72513e-07
3.73815e-06
3.73498e-06
1.97085e-05
1.97076e-05
1.97095e-05
1.97075e-05
2.72864e-07
3.73752e-06
3.73632e-06
3.73902e-06
3.73578e-06
2.01717e-06
8.7071e-06
2.01788e-06
8.70586e-06
5.34018e-07
1.63783e-06
2.10445e-07
2.33052e-07
5.34185e-07
1.63668e-06
2.1051e-07
5.3395e-07
1.63809e-06
2.10422e-07
2.33079e-07
5.34101e-07
1.63697e-06
2.10492e-07
2.01776e-06
8.70749e-06
8.70775e-06
2.01695e-06
2.01807e-06
8.70632e-06
8.7062e-06
2.01717e-06
5.34281e-07
2.33062e-07
1.63666e-06
2.10531e-07
1.6378e-06
2.10488e-07
5.34102e-07
5.3424e-07
2.33089e-07
1.63707e-06
2.10529e-07
1.6381e-06
2.10483e-07
5.34149e-07
3.73863e-06
3.73497e-06
2.72572e-07
3.73707e-06
3.73613e-06
1.97064e-05
1.97086e-05
1.97112e-05
1.97094e-05
2.72911e-07
3.73783e-06
3.73579e-06
3.73826e-06
3.73758e-06
1.97101e-05
1.97082e-05
5.34048e-07
1.63797e-06
2.1043e-07
2.33026e-07
5.34226e-07
1.63674e-06
2.10485e-07
2.01716e-06
8.70903e-06
2.01798e-06
8.70825e-06
5.33949e-07
2.10432e-07
1.638e-06
2.33029e-07
5.33984e-07
2.1049e-07
1.63681e-06
2.01781e-06
8.70945e-06
8.70904e-06
2.01701e-06
5.34324e-07
2.33035e-07
1.63681e-06
2.10515e-07
1.63785e-06
2.1047e-07
5.34114e-07
2.01803e-06
8.708e-06
8.70856e-06
2.01712e-06
5.34274e-07
2.33016e-07
2.10527e-07
1.637e-06
2.10479e-07
1.63792e-06
5.34131e-07
2.01768e-06
8.70998e-06
2.01853e-06
8.70725e-06
5.3398e-07
2.10435e-07
1.63787e-06
2.3308e-07
5.34076e-07
2.10527e-07
1.63669e-06
2.01698e-06
8.71144e-06
2.01779e-06
8.71011e-06
5.34388e-07
2.33059e-07
1.63696e-06
2.10522e-07
1.63804e-06
2.1051e-07
5.34183e-07
2.01862e-06
8.70453e-06
8.70616e-06
2.01767e-06
5.34259e-07
2.33094e-07
2.10552e-07
1.63668e-06
2.10499e-07
1.63781e-06
5.34101e-07
2.01788e-06
8.70729e-06
8.70928e-06
2.01703e-06
3.73432e-06
3.73533e-06
2.7237e-07
3.72615e-06
3.73216e-06
1.9706e-05
1.9706e-05
1.97121e-05
1.97096e-05
2.72712e-07
3.73544e-06
3.73447e-06
3.72872e-06
3.73326e-06
1.97081e-05
1.97055e-05
5.34118e-07
2.1042e-07
1.63793e-06
2.3305e-07
5.34179e-07
2.10487e-07
1.63681e-06
2.01696e-06
8.70613e-06
2.01775e-06
8.70601e-06
2.01715e-06
8.70708e-06
2.01802e-06
8.7067e-06
5.34479e-07
2.33001e-07
2.10501e-07
1.63644e-06
2.10487e-07
1.63743e-06
5.34297e-07
5.34432e-07
2.33036e-07
2.10532e-07
1.63689e-06
2.10485e-07
1.63794e-06
5.34248e-07
2.0179e-06
8.708e-06
8.70767e-06
2.01717e-06
2.01812e-06
8.70756e-06
8.70706e-06
2.01733e-06
1.97079e-05
1.97087e-05
1.97084e-05
1.97099e-05
2.72869e-07
3.73506e-06
3.73434e-06
3.73588e-06
3.7379e-06
1.97098e-05
1.97084e-05
1.97113e-05
1.97096e-05
1.9708e-05
1.97098e-05
1.97091e-05
1.97107e-05
3.73837e-06
3.73716e-06
2.72562e-07
3.73526e-06
3.73585e-06
1.9711e-05
1.97095e-05
1.97127e-05
1.97105e-05
2.7292e-07
3.73294e-06
3.73147e-06
3.73579e-06
3.7367e-06
2.01706e-06
8.70761e-06
2.018e-06
8.70851e-06
5.34059e-07
1.63779e-06
2.10613e-07
2.3319e-07
5.34351e-07
1.63674e-06
2.10665e-07
5.34138e-07
1.63819e-06
2.10614e-07
2.33199e-07
5.34423e-07
1.63716e-06
2.10672e-07
2.01793e-06
8.70995e-06
8.70978e-06
2.01716e-06
2.01788e-06
8.70863e-06
8.70913e-06
2.01708e-06
5.34294e-07
2.332e-07
1.63692e-06
2.10683e-07
1.6379e-06
2.10681e-07
5.33981e-07
5.34338e-07
2.33206e-07
1.63741e-06
2.10687e-07
1.63832e-06
2.10692e-07
5.33967e-07
3.73823e-06
3.73459e-06
2.72543e-07
3.7355e-06
3.739e-06
1.97098e-05
1.97121e-05
1.97147e-05
1.97124e-05
2.72895e-07
3.73632e-06
3.74479e-06
3.73463e-06
3.74169e-06
1.97147e-05
1.97121e-05
5.34046e-07
1.63796e-06
2.10599e-07
2.33159e-07
5.34346e-07
1.63694e-06
2.10655e-07
2.01705e-06
8.70856e-06
2.01796e-06
8.7091e-06
5.34093e-07
2.10616e-07
1.63819e-06
2.33175e-07
5.34381e-07
2.10676e-07
1.63727e-06
2.0179e-06
8.71186e-06
8.71156e-06
2.01718e-06
5.34287e-07
2.33166e-07
1.63714e-06
2.10677e-07
1.63811e-06
2.10676e-07
5.33987e-07
2.0179e-06
8.71073e-06
8.70982e-06
2.01711e-06
5.34312e-07
2.33192e-07
2.10692e-07
1.63763e-06
2.10697e-07
1.63846e-06
5.33943e-07
2.01764e-06
8.70516e-06
2.01858e-06
8.70582e-06
5.34133e-07
2.10642e-07
1.6378e-06
2.33211e-07
5.34354e-07
2.10693e-07
1.63679e-06
2.01695e-06
8.70744e-06
2.01789e-06
8.70738e-06
5.3435e-07
2.33167e-07
1.63764e-06
2.10675e-07
1.63848e-06
2.1067e-07
5.34016e-07
2.01854e-06
8.70844e-06
8.70692e-06
2.01766e-06
5.3437e-07
2.33218e-07
2.10703e-07
1.63711e-06
2.1071e-07
1.63799e-06
5.33992e-07
2.01779e-06
8.71008e-06
8.70908e-06
2.01699e-06
3.73774e-06
3.7362e-06
2.72447e-07
3.73871e-06
3.7359e-06
1.97082e-05
1.97107e-05
1.97161e-05
1.97131e-05
2.72775e-07
3.73464e-06
3.73555e-06
3.7401e-06
3.73681e-06
1.9713e-05
1.97104e-05
5.34158e-07
2.10617e-07
1.63805e-06
2.33196e-07
5.3448e-07
2.10673e-07
1.63714e-06
2.01727e-06
8.7088e-06
2.01811e-06
8.70946e-06
2.01735e-06
8.70946e-06
2.01827e-06
8.70959e-06
5.34423e-07
2.33143e-07
2.10664e-07
1.63708e-06
2.10657e-07
1.63794e-06
5.34165e-07
5.34378e-07
2.33201e-07
2.10688e-07
1.63743e-06
2.10694e-07
1.63834e-06
5.34032e-07
2.01822e-06
8.70977e-06
8.71012e-06
2.01743e-06
2.01825e-06
8.70991e-06
8.71023e-06
2.0174e-06
1.97092e-05
1.97116e-05
1.97111e-05
1.97134e-05
2.72886e-07
3.73195e-06
3.73357e-06
3.73637e-06
3.73826e-06
1.97141e-05
1.97116e-05
1.97151e-05
1.97131e-05
1.97113e-05
1.97142e-05
1.97124e-05
1.97146e-05
3.73503e-06
3.73416e-06
2.72549e-07
3.73756e-06
3.73482e-06
1.97156e-05
1.97141e-05
1.97162e-05
1.97141e-05
2.72868e-07
3.74025e-06
3.73417e-06
3.74031e-06
3.73373e-06
2.01726e-06
8.70886e-06
2.01798e-06
8.70833e-06
5.33767e-07
1.63813e-06
2.10685e-07
2.33183e-07
5.34189e-07
1.63729e-06
2.10674e-07
5.33772e-07
1.63862e-06
2.10691e-07
2.33195e-07
5.34173e-07
1.63774e-06
2.10694e-07
2.01823e-06
8.71082e-06
8.71115e-06
2.01751e-06
2.01815e-06
8.70883e-06
8.70899e-06
2.01745e-06
5.33964e-07
2.33157e-07
1.63759e-06
2.10611e-07
1.63852e-06
2.10658e-07
5.33625e-07
5.33981e-07
2.33174e-07
1.63794e-06
2.10614e-07
1.63892e-06
2.10642e-07
5.33642e-07
3.73634e-06
3.74688e-06
2.72572e-07
3.74115e-06
3.74788e-06
1.97144e-05
1.97164e-05
1.97178e-05
1.97164e-05
2.72905e-07
3.74209e-06
3.75155e-06
3.74271e-06
3.75006e-06
1.97177e-05
1.97161e-05
5.338e-07
1.63832e-06
2.10686e-07
2.33154e-07
5.34201e-07
1.63738e-06
2.10683e-07
2.01731e-06
8.71148e-06
2.01801e-06
8.71157e-06
5.33799e-07
2.10699e-07
1.63886e-06
2.33193e-07
5.34137e-07
2.10701e-07
1.63808e-06
2.01834e-06
8.71311e-06
8.71289e-06
2.0176e-06
5.33999e-07
2.33136e-07
1.63766e-06
2.10619e-07
1.63857e-06
2.10657e-07
5.33652e-07
2.01822e-06
8.71134e-06
8.71195e-06
2.01756e-06
5.34006e-07
2.33147e-07
2.10619e-07
1.63837e-06
2.10646e-07
1.63929e-06
5.33636e-07
2.01777e-06
8.70949e-06
2.0186e-06
8.71046e-06
5.33845e-07
2.1071e-07
1.63833e-06
2.33207e-07
5.34199e-07
2.10703e-07
1.63749e-06
2.0172e-06
8.71075e-06
2.01788e-06
8.71188e-06
5.34182e-07
2.33141e-07
1.63833e-06
2.10616e-07
1.63928e-06
2.10647e-07
5.3386e-07
2.01871e-06
8.7105e-06
8.71101e-06
2.01785e-06
5.34029e-07
2.33167e-07
2.1063e-07
1.63783e-06
2.10661e-07
1.63872e-06
5.33656e-07
2.01813e-06
8.71291e-06
8.71258e-06
2.01751e-06
3.74098e-06
3.73753e-06
2.72515e-07
3.74357e-06
3.73744e-06
1.97126e-05
1.97145e-05
1.97204e-05
1.97186e-05
2.72859e-07
3.74599e-06
3.74055e-06
3.74565e-06
3.73534e-06
1.97156e-05
1.9714e-05
5.33937e-07
2.10694e-07
1.63861e-06
2.33182e-07
5.34248e-07
2.10694e-07
1.63766e-06
2.01766e-06
8.71005e-06
2.01838e-06
8.71003e-06
2.01753e-06
8.71014e-06
2.01835e-06
8.70975e-06
5.34327e-07
2.33136e-07
2.106e-07
1.63758e-06
2.10617e-07
1.6385e-06
5.33994e-07
5.34149e-07
2.33151e-07
2.10616e-07
1.63795e-06
2.10642e-07
1.63886e-06
5.33758e-07
2.01862e-06
8.71049e-06
8.71044e-06
2.01791e-06
2.01848e-06
8.7104e-06
8.71022e-06
2.01772e-06
1.9714e-05
1.9716e-05
1.9715e-05
1.97166e-05
2.72909e-07
3.74142e-06
3.73851e-06
3.74171e-06
3.74062e-06
1.97177e-05
1.97155e-05
1.97188e-05
1.97166e-05
1.97153e-05
1.97171e-05
1.97161e-05
1.97182e-05
3.73814e-06
3.74036e-06
2.7249e-07
3.74085e-06
3.74203e-06
1.97183e-05
1.97166e-05
1.97192e-05
1.97177e-05
2.72806e-07
3.74801e-06
3.74672e-06
3.74064e-06
3.74367e-06
2.01756e-06
8.70908e-06