/*--------------------------------*- C++ -*----------------------------------*\
| =========                 |                                                 |
| \\      /  F ield         | OpenFOAM: The Open Source CFD Toolbox           |
|  \\    /   O peration     | Version:  2312                                  |
|   \\  /    A nd           | Website:  www.openfoam.com                      |
|    \\/     M anipulation  |                                                 |
\*---------------------------------------------------------------------------*/
FoamFile
{
    version     2.0;
    format      ascii;
    arch        "LSB;label=32;scalar=64";
    class       volScalarField;
    location    "50";
    object      k;
}
// * * * * * * * * * * * * * * * * * * * * * * * * * * * * * * * * * * * * * //

dimensions      [0 2 -2 0 0 0 0];

internalField   nonuniform List<scalar> 
42840
(
2.08782e-05
2.00874e-05
2.00796e-05
1.96985e-05
2.08771e-05
2.00879e-05
2.00794e-05
1.96988e-05
2.0873e-05
2.00829e-05
2.00781e-05
1.96546e-05
2.08676e-05
2.00752e-05
2.00739e-05
1.96408e-05
2.08637e-05
2.00706e-05
2.00716e-05
1.96517e-05
2.08616e-05
2.00677e-05
2.0069e-05
1.96796e-05
2.08599e-05
2.0066e-05
2.00654e-05
1.96657e-05
2.08587e-05
2.00627e-05
2.00627e-05
1.96386e-05
2.08634e-05
2.00678e-05
2.00667e-05
1.96612e-05
2.08682e-05
2.00719e-05
2.0071e-05
1.96357e-05
2.08727e-05
2.00744e-05
2.00733e-05
1.96384e-05
2.08745e-05
2.0075e-05
2.00755e-05
1.96463e-05
2.08753e-05
2.00751e-05
2.00759e-05
1.96539e-05
2.08759e-05
2.00747e-05
2.00776e-05
1.96668e-05
2.08762e-05
2.00744e-05
2.00788e-05
1.96781e-05
2.0876e-05
2.00736e-05
2.00789e-05
1.96787e-05
2.0876e-05
2.00739e-05
2.00784e-05
1.96788e-05
2.0876e-05
2.00744e-05
2.00785e-05
1.96786e-05
2.08759e-05
2.00742e-05
2.0079e-05
1.96788e-05
2.08763e-05
2.00753e-05
2.00782e-05
1.96791e-05
2.08761e-05
2.00744e-05
2.00786e-05
1.9679e-05
2.08759e-05
2.00741e-05
2.00783e-05
1.96788e-05
2.08759e-05
2.00751e-05
2.0079e-05
1.96792e-05
2.0876e-05
2.00757e-05
2.00784e-05
1.96621e-05
2.08758e-05
2.00754e-05
2.00793e-05
1.96804e-05
1.96538e-05
1.96682e-05
2.00825e-05
2.00816e-05
2.00825e-05
2.00834e-05
1.96768e-05
1.96755e-05
2.00816e-05
2.00799e-05
2.00822e-05
2.00801e-05
2.00828e-05
2.00881e-05
2.00828e-05
1.96469e-05
1.96647e-05
2.00841e-05
2.00795e-05
2.00839e-05
1.96815e-05
1.96638e-05
1.96706e-05
2.00826e-05
2.00834e-05
2.00814e-05
2.00806e-05
1.96724e-05
1.96618e-05
2.00827e-05
2.00802e-05
2.00824e-05
2.0078e-05
2.00826e-05
2.00845e-05
2.00817e-05
1.96833e-05
1.96245e-05
2.00837e-05
2.00784e-05
2.00826e-05
1.96887e-05
1.96588e-05
1.96968e-05
2.008e-05
2.0079e-05
2.00762e-05
2.00738e-05
1.96512e-05
1.96976e-05
2.00808e-05
2.00771e-05
2.00761e-05
2.0072e-05
2.00796e-05
2.00759e-05
2.00732e-05
1.96579e-05
1.96447e-05
2.00818e-05
2.00747e-05
2.00752e-05
1.96646e-05
1.96658e-05
1.96466e-05
2.00738e-05
2.00717e-05
2.00696e-05
2.00686e-05
1.96674e-05
1.96786e-05
2.00743e-05
2.00705e-05
2.00703e-05
2.00681e-05
2.00716e-05
2.00712e-05
2.00682e-05
1.96465e-05
1.96713e-05
2.0073e-05
2.00717e-05
2.00692e-05
1.96658e-05
1.96482e-05
1.96636e-05
2.00674e-05
2.00669e-05
2.00663e-05
2.00651e-05
1.96629e-05
1.9684e-05
2.0068e-05
2.00678e-05
2.00659e-05
2.00659e-05
2.00676e-05
2.00681e-05
2.00643e-05
1.96756e-05
1.96438e-05
2.00678e-05
2.007e-05
2.00646e-05
1.96645e-05
1.96623e-05
1.96901e-05
2.00659e-05
2.00638e-05
2.00635e-05
2.00638e-05
1.97029e-05
1.96652e-05
2.0066e-05
2.00641e-05
2.00654e-05
2.00627e-05
2.00633e-05
2.00666e-05
2.00611e-05
1.96404e-05
1.96962e-05
2.0064e-05
2.00661e-05
2.00635e-05
1.96369e-05
1.96466e-05
1.96417e-05
2.00612e-05
2.00631e-05
2.00607e-05
2.0062e-05
1.96906e-05
1.96391e-05
2.00629e-05
2.00621e-05
2.00627e-05
2.00612e-05
2.00602e-05
2.00625e-05
2.00602e-05
1.96557e-05
1.96799e-05
2.00625e-05
2.00631e-05
2.00624e-05
1.964e-05
1.9645e-05
1.96697e-05
2.00619e-05
2.00625e-05
2.00653e-05
2.00654e-05
1.96702e-05
1.96588e-05
2.00631e-05
2.006e-05
2.00661e-05
2.00608e-05
2.00611e-05
2.00661e-05
2.00641e-05
1.96409e-05
1.96639e-05
2.00633e-05
2.00643e-05
2.00653e-05
1.96714e-05
1.96697e-05
1.9672e-05
2.00653e-05
2.00655e-05
2.00687e-05
2.00689e-05
1.96592e-05
1.9685e-05
2.00661e-05
2.00634e-05
2.00693e-05
2.00673e-05
2.0064e-05
2.00703e-05
2.00669e-05
1.96553e-05
1.96698e-05
2.0066e-05
2.00697e-05
2.00693e-05
1.96445e-05
1.96568e-05
1.96665e-05
2.00696e-05
2.00691e-05
2.00725e-05
2.00717e-05
1.96999e-05
1.96725e-05
2.0069e-05
2.00663e-05
2.00719e-05
2.00706e-05
2.00677e-05
2.00738e-05
2.0071e-05
1.96933e-05
1.96628e-05
2.00698e-05
2.00724e-05
2.00721e-05
1.96373e-05
1.96889e-05
1.96877e-05
2.00724e-05
2.00723e-05
2.00733e-05
2.0075e-05
1.96966e-05
1.97018e-05
2.00723e-05
2.00711e-05
2.00741e-05
2.00732e-05
2.00705e-05
2.00748e-05
2.00722e-05
1.96933e-05
1.96978e-05
2.00719e-05
2.00744e-05
2.0073e-05
1.96636e-05
1.96433e-05
1.96833e-05
2.0073e-05
2.00753e-05
2.00731e-05
2.00748e-05
1.97177e-05
1.9667e-05
2.00738e-05
2.00742e-05
2.00749e-05
2.00748e-05
2.00719e-05
2.00745e-05
2.00735e-05
1.96933e-05
1.9674e-05
2.00728e-05
2.00759e-05
2.00741e-05
1.96891e-05
1.96685e-05
1.97186e-05
2.00746e-05
2.00745e-05
2.00771e-05
2.00739e-05
1.97029e-05
1.96694e-05
2.00758e-05
2.00748e-05
2.00775e-05
2.00768e-05
2.0074e-05
2.00748e-05
2.00749e-05
1.96615e-05
1.96822e-05
2.0074e-05
2.00771e-05
2.00752e-05
1.96725e-05
1.96792e-05
1.97255e-05
2.00771e-05
2.0074e-05
2.00779e-05
2.0075e-05
1.96598e-05
1.96659e-05
2.00774e-05
2.00769e-05
2.0078e-05
2.00778e-05
2.00742e-05
2.00746e-05
2.00746e-05
1.96733e-05
1.97265e-05
2.0075e-05
2.00786e-05
2.00753e-05
1.96562e-05
1.97276e-05
1.96612e-05
2.00782e-05
2.00747e-05
2.00774e-05
2.00743e-05
1.96839e-05
1.965e-05
2.00782e-05
2.00777e-05
2.00774e-05
2.00774e-05
2.00745e-05
2.00736e-05
2.00741e-05
1.96915e-05
1.96658e-05
2.0075e-05
2.00788e-05
2.00751e-05
1.96581e-05
1.96524e-05
1.9665e-05
2.00763e-05
2.00742e-05
2.00766e-05
2.00743e-05
1.96529e-05
1.96774e-05
2.00774e-05
2.00775e-05
2.00769e-05
2.00779e-05
2.00739e-05
2.00735e-05
2.00742e-05
1.966e-05
1.97082e-05
2.00751e-05
2.00787e-05
2.00756e-05
1.96583e-05
1.96686e-05
1.96665e-05
2.0077e-05
2.00747e-05
2.00768e-05
2.00744e-05
1.96829e-05
1.96519e-05
2.0077e-05
2.00777e-05
2.00769e-05
2.00766e-05
2.0074e-05
2.0074e-05
2.00741e-05
1.96988e-05
1.96425e-05
2.00753e-05
2.00777e-05
2.00755e-05
1.96581e-05
1.96733e-05
1.96784e-05
2.00766e-05
2.00745e-05
2.00753e-05
2.00745e-05
1.96929e-05
1.96664e-05
2.0077e-05
2.00768e-05
2.0077e-05
2.00771e-05
2.0074e-05
2.00742e-05
2.00738e-05
1.96557e-05
1.96727e-05
2.00754e-05
2.00792e-05
2.00758e-05
1.96582e-05
1.97068e-05
1.96875e-05
2.00761e-05
2.00746e-05
2.00786e-05
2.00752e-05
1.96597e-05
1.96871e-05
2.00774e-05
2.00773e-05
2.00782e-05
2.00775e-05
2.00733e-05
2.00752e-05
2.00736e-05
1.96652e-05
1.96667e-05
2.00756e-05
2.00782e-05
2.00757e-05
1.96586e-05
1.97129e-05
1.96924e-05
2.00787e-05
2.00748e-05
2.00787e-05
2.0075e-05
1.97063e-05
1.96723e-05
2.00783e-05
2.00775e-05
2.00786e-05
2.00777e-05
2.00736e-05
2.00746e-05
2.00743e-05
1.96979e-05
1.96809e-05
2.00753e-05
2.00785e-05
2.00757e-05
1.96585e-05
1.96801e-05
1.96962e-05
2.00778e-05
2.00751e-05
2.0077e-05
2.00744e-05
1.96751e-05
1.97201e-05
2.00783e-05
2.00776e-05
2.00775e-05
2.00777e-05
2.00743e-05
2.00734e-05
2.00745e-05
1.9671e-05
1.96771e-05
2.00754e-05
2.00783e-05
2.00755e-05
1.96583e-05
1.97198e-05
1.96803e-05
2.00765e-05
2.00753e-05
2.0076e-05
2.00759e-05
1.96917e-05
1.96837e-05
2.00772e-05
2.00777e-05
2.0077e-05
2.00775e-05
2.00744e-05
2.00752e-05
2.00743e-05
1.96974e-05
1.96934e-05
2.00754e-05
2.00789e-05
2.00759e-05
1.96586e-05
1.96729e-05
1.9702e-05
2.00764e-05
2.00763e-05
2.00768e-05
2.00765e-05
1.96829e-05
1.97369e-05
2.00773e-05
2.00776e-05
2.00771e-05
2.00779e-05
2.00743e-05
2.00757e-05
2.00748e-05
1.97066e-05
1.96746e-05
2.00757e-05
2.00785e-05
2.00759e-05
1.97068e-05
1.96766e-05
1.97029e-05
2.00769e-05
2.00766e-05
2.00764e-05
2.0076e-05
1.97093e-05
1.96852e-05
2.00764e-05
2.00776e-05
2.00762e-05
2.00777e-05
2.00747e-05
2.00755e-05
2.00747e-05
1.96815e-05
1.97245e-05
2.00757e-05
2.00794e-05
2.0075e-05
1.96754e-05
1.97165e-05
2.00757e-05
2.0075e-05
1.96558e-05
2.00762e-05
2.00774e-05
2.00746e-05
1.96926e-05
2.0075e-05
2.99094e-05
6.89569e-05
6.89504e-05
2.99176e-05
7.25569e-05
7.2558e-05
2.99124e-05
6.89582e-05
6.8952e-05
2.99213e-05
2.08772e-05
2.08768e-05
2.08761e-05
2.08773e-05
2.08766e-05
2.0876e-05
2.08759e-05
1.99522e-05
2.89699e-05
2.04338e-05
2.00876e-05
2.89622e-05
2.04345e-05
1.99368e-05
7.25645e-05
7.25606e-05
1.99393e-05
2.04311e-05
2.89706e-05
2.00794e-05
2.04311e-05
2.89632e-05
1.99133e-05
4.17278e-05
4.16648e-05
1.9704e-05
4.17467e-05
4.17497e-05
2.99132e-05
6.89392e-05
2.99158e-05
6.89382e-05
7.25561e-05
7.25561e-05
2.99139e-05
6.89399e-05
2.99181e-05
6.89381e-05
2.08765e-05
2.08756e-05
2.08755e-05
2.08738e-05
2.08736e-05
2.08729e-05
2.08729e-05
1.99651e-05
2.89735e-05
2.04365e-05
2.00865e-05
1.9962e-05
2.89671e-05
2.04355e-05
7.25506e-05
7.25525e-05
1.99562e-05
2.04323e-05
2.89685e-05
2.00787e-05
1.99522e-05
2.04325e-05
2.89582e-05
4.16515e-05
4.16938e-05
1.96955e-05
4.16757e-05
4.17156e-05
2.99182e-05
6.89418e-05
2.99217e-05
6.89441e-05
7.25573e-05
7.25613e-05
2.99162e-05
6.89483e-05
2.99212e-05
6.89518e-05
2.08715e-05
2.08713e-05
2.08719e-05
2.0868e-05
2.0867e-05
2.0867e-05
2.08664e-05
1.99372e-05
2.89795e-05
2.04327e-05
2.0079e-05
1.99459e-05
2.89729e-05
2.04294e-05
7.25582e-05
7.25623e-05
1.996e-05
2.04315e-05
2.89718e-05
2.00765e-05
1.99681e-05
2.04298e-05
2.89676e-05
4.16948e-05
4.17714e-05
1.96369e-05
4.16535e-05
4.17825e-05
2.99198e-05
6.89556e-05
2.99241e-05
6.89559e-05
7.25664e-05
7.2573e-05
2.99201e-05
6.89602e-05
2.99239e-05
6.89612e-05
2.08649e-05
2.08649e-05
2.08651e-05
2.08641e-05
2.08624e-05
2.08626e-05
2.08619e-05
1.99236e-05
2.89873e-05
2.04245e-05
2.0073e-05
1.9941e-05
2.89808e-05
2.04213e-05
7.25683e-05
7.25751e-05
1.99348e-05
2.04255e-05
2.89808e-05
2.00718e-05
1.99344e-05
2.04218e-05
2.89728e-05
4.17768e-05
4.18075e-05
1.96691e-05
4.17998e-05
4.18153e-05
2.99225e-05
6.89596e-05
2.99267e-05
6.89595e-05
7.2575e-05
7.25786e-05
2.99225e-05
6.89668e-05
2.99269e-05
6.89667e-05
2.08621e-05
2.08626e-05
2.08612e-05
2.08619e-05
2.08601e-05
2.08611e-05
2.0859e-05
1.99075e-05
2.8993e-05
2.04178e-05
2.00682e-05
1.99125e-05
2.89852e-05
2.0416e-05
7.25794e-05
7.25826e-05
1.99103e-05
2.0419e-05
2.89834e-05
2.00714e-05
1.99429e-05
2.04188e-05
2.89766e-05
4.18804e-05
4.17564e-05
1.96483e-05
4.19063e-05
4.17407e-05
2.99227e-05
6.89652e-05
2.99279e-05
6.89627e-05
7.25818e-05
7.25857e-05
2.99237e-05
6.89647e-05
2.99287e-05
6.89642e-05
2.08593e-05
2.08594e-05
2.08581e-05
2.08601e-05
2.08585e-05
2.08586e-05
2.0857e-05
1.99207e-05
2.8994e-05
2.04159e-05
2.00669e-05
1.99238e-05
2.89832e-05
2.04154e-05
7.25849e-05
7.25898e-05
1.99065e-05
2.04169e-05
2.89895e-05
2.00666e-05
1.99113e-05
2.04156e-05
2.89822e-05
4.18673e-05
4.17725e-05
1.96449e-05
4.18468e-05
4.17643e-05
2.99197e-05
6.89669e-05
2.99254e-05
6.89657e-05
7.25878e-05
7.25898e-05
2.99229e-05
6.8966e-05
2.99275e-05
6.89644e-05
2.08581e-05
2.08581e-05
2.08567e-05
2.08584e-05
2.08576e-05
2.08574e-05
2.08568e-05
1.9949e-05
2.89892e-05
2.04142e-05
2.00638e-05
1.99501e-05
2.89787e-05
2.04144e-05
7.25898e-05
7.25913e-05
1.99288e-05
2.0415e-05
2.89917e-05
2.00632e-05
1.99338e-05
2.04146e-05
2.89826e-05
4.1847e-05
4.18412e-05
1.96468e-05
4.18333e-05
4.17388e-05
2.99192e-05
6.89655e-05
2.99249e-05
6.89622e-05
7.25873e-05
7.25885e-05
2.99204e-05
6.89683e-05
2.99272e-05
6.89673e-05
2.08577e-05
2.08575e-05
2.08571e-05
2.08613e-05
2.08613e-05
2.08606e-05
2.08609e-05
1.99093e-05
2.89859e-05
2.04156e-05
2.00632e-05
1.99207e-05
2.89756e-05
2.04153e-05
7.2588e-05
7.25887e-05
1.99209e-05
2.04152e-05
2.89899e-05
2.00626e-05
1.99396e-05
2.04149e-05
2.89801e-05
4.19248e-05
4.17733e-05
1.96486e-05
4.17566e-05
4.17857e-05
2.99146e-05
6.89644e-05
2.9922e-05
6.89611e-05
7.25847e-05
7.25863e-05
2.99154e-05
6.89652e-05
2.99224e-05
6.89631e-05
2.08617e-05
2.08616e-05
2.08615e-05
2.08659e-05
2.08666e-05
2.08665e-05
2.08664e-05
1.99145e-05
2.89835e-05
2.04171e-05
2.00679e-05
1.99185e-05
2.89738e-05
2.04175e-05
7.25854e-05
7.25872e-05
1.99282e-05
2.04201e-05
2.89867e-05
2.00669e-05
1.99307e-05
2.04197e-05
2.89776e-05
4.18351e-05
4.1766e-05
1.96386e-05
4.1806e-05
4.17645e-05
2.99091e-05
6.89594e-05
2.99145e-05
6.89583e-05
7.25855e-05
7.25881e-05
2.99108e-05
6.89605e-05
2.99162e-05
6.89575e-05
2.0867e-05
2.08664e-05
2.08668e-05
2.08709e-05
2.08711e-05
2.0871e-05
2.08708e-05
1.99396e-05
2.89828e-05
2.04248e-05
2.00718e-05
1.99343e-05
2.89741e-05
2.04244e-05
7.25857e-05
7.25877e-05
1.99335e-05
2.04235e-05
2.89864e-05
2.00701e-05
1.99291e-05
2.04229e-05
2.89775e-05
4.19198e-05
4.18892e-05
1.96347e-05
4.19195e-05
4.17976e-05
2.99177e-05
6.89592e-05
2.99186e-05
6.89578e-05
7.25874e-05
7.25897e-05
2.99166e-05
6.89547e-05
2.99187e-05
6.89563e-05
2.0871e-05
2.0871e-05
2.08708e-05
2.08738e-05
2.08734e-05
2.08733e-05
2.0873e-05
1.99155e-05
2.89844e-05
2.04274e-05
2.00744e-05
1.99411e-05
2.89759e-05
2.04273e-05
7.25858e-05
7.25876e-05
1.99179e-05
2.04262e-05
2.89857e-05
2.00731e-05
1.99385e-05
2.04261e-05
2.89768e-05
4.19724e-05
4.1791e-05
1.96949e-05
4.20471e-05
4.17529e-05
2.99219e-05
6.89552e-05
2.99268e-05
6.89553e-05
7.2588e-05
7.25901e-05
2.99209e-05
6.89565e-05
2.99257e-05
6.89577e-05
2.08736e-05
2.08734e-05
2.0873e-05
2.08747e-05
2.08744e-05
2.08745e-05
2.08741e-05
1.99096e-05
2.89859e-05
2.04278e-05
2.00751e-05
1.99283e-05
2.89774e-05
2.04274e-05
7.25865e-05
7.25888e-05
1.99469e-05
2.04279e-05
2.89863e-05
2.00756e-05
1.99605e-05
2.04279e-05
2.89783e-05
4.20809e-05
4.17785e-05
1.96413e-05
4.20786e-05
4.17534e-05
2.99204e-05
6.89592e-05
2.99257e-05
6.89578e-05
7.25882e-05
7.25892e-05
2.99205e-05
6.89608e-05
2.99256e-05
6.89583e-05
2.08743e-05
2.08743e-05
2.0874e-05
2.08758e-05
2.08746e-05
2.0875e-05
2.08745e-05
1.99259e-05
2.89874e-05
2.04285e-05
2.00753e-05
1.99428e-05
2.89788e-05
2.04283e-05
7.25879e-05
7.25901e-05
1.99137e-05
2.04285e-05
2.89883e-05
2.00761e-05
1.99287e-05
2.04283e-05
2.89802e-05
4.20837e-05
4.17786e-05
1.96852e-05
4.20792e-05
4.17537e-05
2.99191e-05
6.89548e-05
2.99244e-05
6.8956e-05
7.2586e-05
7.25879e-05
2.9921e-05
6.89604e-05
2.99261e-05
6.89608e-05
2.08746e-05
2.08749e-05
2.08743e-05
2.08761e-05
2.08748e-05
2.08753e-05
2.08746e-05
1.98955e-05
2.89882e-05
2.04286e-05
2.00746e-05
1.99003e-05
2.89791e-05
2.04282e-05
7.25888e-05
7.25909e-05
1.98854e-05
2.04275e-05
2.899e-05
2.00777e-05
1.9891e-05
2.04274e-05
2.8981e-05
4.20835e-05
4.17785e-05
1.96573e-05
4.20791e-05
4.17536e-05
2.99191e-05
6.89595e-05
2.99241e-05
6.89577e-05
7.25866e-05
7.25886e-05
2.99198e-05
6.8961e-05
2.99252e-05
6.8958e-05
2.08748e-05
2.08753e-05
2.08746e-05
2.08759e-05
2.08748e-05
2.08755e-05
2.08746e-05
1.9904e-05
2.89879e-05
2.04279e-05
2.0074e-05
1.99217e-05
2.89786e-05
2.0428e-05
7.25893e-05
7.25912e-05
1.98661e-05
2.04279e-05
2.89884e-05
2.00787e-05
1.98688e-05
2.0428e-05
2.89792e-05
4.20834e-05
4.17785e-05
1.96767e-05
4.20791e-05
4.17536e-05
2.99196e-05
6.89566e-05
2.99242e-05
6.89549e-05
7.25862e-05
7.25882e-05
2.99192e-05
6.89561e-05
2.99245e-05
6.89571e-05
2.08747e-05
2.08752e-05
2.08745e-05
2.0876e-05
2.08748e-05
2.08755e-05
2.08748e-05
1.98789e-05
2.89876e-05
2.04277e-05
2.00735e-05
1.9908e-05
2.89784e-05
2.04271e-05
7.25893e-05
7.25908e-05
1.98633e-05
2.0428e-05
2.89882e-05
2.00787e-05
1.98632e-05
2.04279e-05
2.89799e-05
4.2001e-05
4.17784e-05
1.96813e-05
4.1871e-05
4.17535e-05
2.99191e-05
6.89562e-05
2.99241e-05
6.89547e-05
7.25868e-05
7.25893e-05
2.992e-05
6.89594e-05
2.99248e-05
6.896e-05
2.08746e-05
2.08751e-05
2.08743e-05
2.0876e-05
2.08749e-05
2.08753e-05
2.08747e-05
1.99346e-05
2.89875e-05
2.04271e-05
2.00739e-05
1.99037e-05
2.89784e-05
2.04271e-05
7.25883e-05
7.259e-05
1.98479e-05
2.04278e-05
2.89897e-05
2.00778e-05
1.98477e-05
2.04279e-05
2.89814e-05
4.1875e-05
4.17785e-05
1.96805e-05
4.18436e-05
4.17536e-05
2.992e-05
6.89549e-05
2.99251e-05
6.8956e-05
7.25881e-05
7.25907e-05
2.9921e-05
6.89604e-05
2.99263e-05
6.89585e-05
2.08744e-05
2.08749e-05
2.08742e-05
2.08759e-05
2.08746e-05
2.08754e-05
2.08744e-05
1.99376e-05
2.89877e-05
2.04274e-05
2.00744e-05
1.99418e-05
2.89786e-05
2.04274e-05
7.25886e-05
7.25907e-05
1.98258e-05
2.04278e-05
2.89902e-05
2.00791e-05
1.9829e-05
2.04277e-05
2.89809e-05
4.1875e-05
4.17786e-05
1.96792e-05
4.18058e-05
4.17536e-05
2.99189e-05
6.89576e-05
2.99241e-05
6.89573e-05
7.25886e-05
7.25901e-05
2.99211e-05
6.89557e-05
2.99262e-05
6.89568e-05
2.08747e-05
2.08752e-05
2.08744e-05
2.08761e-05
2.0875e-05
2.08755e-05
2.08744e-05
1.99382e-05
2.89877e-05
2.04285e-05
2.00747e-05
1.99273e-05
2.89786e-05
2.04286e-05
7.25891e-05
7.2591e-05
1.97891e-05
2.04277e-05
2.8988e-05
2.00785e-05
1.98162e-05
2.04278e-05
2.89787e-05
4.18499e-05
4.17785e-05
1.96815e-05
4.1926e-05
4.17536e-05
2.99171e-05
6.89618e-05
2.99233e-05
6.89585e-05
7.25872e-05
7.25882e-05
2.99193e-05
6.89604e-05
2.99252e-05
6.89573e-05
2.08748e-05
2.08753e-05
2.08744e-05
2.08761e-05
2.08748e-05
2.08753e-05
2.08744e-05
1.99158e-05
2.89877e-05
2.04287e-05
2.00749e-05
1.99217e-05
2.89786e-05
2.04284e-05
7.25891e-05
7.2591e-05
1.97759e-05
2.04278e-05
2.89874e-05
2.00784e-05
1.97777e-05
2.04279e-05
2.89793e-05
4.19742e-05
4.17784e-05
1.96812e-05
4.2049e-05
4.17536e-05
2.99151e-05
6.8961e-05
2.99194e-05
6.89588e-05
7.25847e-05
7.25863e-05
2.99199e-05
6.8957e-05
2.99244e-05
6.8957e-05
2.08747e-05
2.08751e-05
2.08744e-05
2.08759e-05
2.08748e-05
2.08753e-05
2.08745e-05
1.99482e-05
2.89878e-05
2.04273e-05
2.00732e-05
1.99457e-05
2.89787e-05
2.04266e-05
7.25885e-05
7.25893e-05
1.97747e-05
2.04277e-05
2.8989e-05
2.00784e-05
1.9776e-05
2.04276e-05
2.89809e-05
4.19993e-05
4.17786e-05
1.96806e-05
4.18708e-05
4.17536e-05
2.99195e-05
6.89574e-05
2.99234e-05
6.89577e-05
7.25844e-05
7.25867e-05
2.99201e-05
6.8957e-05
2.99249e-05
6.89573e-05
2.08747e-05
2.08751e-05
2.08745e-05
2.08758e-05
2.0875e-05
2.0875e-05
2.08747e-05
1.99269e-05
2.89877e-05
2.04281e-05
2.00749e-05
1.99316e-05
2.89785e-05
2.04277e-05
7.2586e-05
7.25878e-05
1.97743e-05
2.04275e-05
2.89904e-05
2.00784e-05
1.97758e-05
2.04277e-05
2.8982e-05
4.1875e-05
4.17785e-05
1.9681e-05
4.18436e-05
4.17536e-05
2.99197e-05
6.89581e-05
2.99246e-05
6.89566e-05
7.25852e-05
7.25874e-05
2.99202e-05
6.89575e-05
2.99249e-05
6.89555e-05
2.08748e-05
2.08753e-05
2.08744e-05
2.08759e-05
2.08751e-05
2.08756e-05
2.08746e-05
1.99222e-05
2.89875e-05
2.04282e-05
2.00753e-05
1.99341e-05
2.89783e-05
2.04282e-05
7.25868e-05
7.25893e-05
1.97741e-05
2.04277e-05
2.899e-05
2.00786e-05
1.97756e-05
2.04275e-05
2.89808e-05
4.18749e-05
4.17784e-05
1.9685e-05
4.18058e-05
4.16587e-05
2.99192e-05
6.896e-05
2.99244e-05
6.89564e-05
7.25858e-05
7.25878e-05
2.99203e-05
6.89571e-05
2.9925e-05
6.89567e-05
2.08747e-05
2.08751e-05
2.08743e-05
2.08759e-05
2.08752e-05
2.08754e-05
2.08746e-05
1.99004e-05
2.89874e-05
2.04283e-05
2.00755e-05
1.99325e-05
2.89784e-05
2.04276e-05
7.2588e-05
7.25901e-05
1.97742e-05
2.04275e-05
2.89894e-05
2.00786e-05
1.97758e-05
2.04274e-05
2.8981e-05
4.18497e-05
4.17335e-05
1.96448e-05
4.19221e-05
4.17276e-05
2.99193e-05
6.89591e-05
2.99242e-05
6.89571e-05
7.2586e-05
7.25879e-05
2.99198e-05
6.89635e-05
2.9925e-05
6.89571e-05
2.08747e-05
2.08749e-05
2.08743e-05
1.99067e-05
2.89876e-05
2.04276e-05
2.00753e-05
1.98999e-05
2.89777e-05
2.04274e-05
7.25887e-05
7.25909e-05
1.97748e-05
2.04276e-05
2.89905e-05
2.00787e-05
1.97763e-05
2.04274e-05
2.89821e-05
4.18782e-05
4.17511e-05
1.96561e-05
4.18497e-05
4.17487e-05
7.25594e-05
7.25598e-05
7.25628e-05
7.25598e-05
4.17282e-05
4.17309e-05
1.96538e-05
4.17408e-05
4.17162e-05
7.2558e-05
7.2558e-05
7.25528e-05
7.25558e-05
1.966e-05
4.16976e-05
4.16068e-05
4.17612e-05
4.16656e-05
2.99088e-05
6.89448e-05
6.89407e-05
2.99101e-05
1.99363e-05
2.89707e-05
2.04327e-05
2.0082e-05
2.8964e-05
2.04315e-05
1.99157e-05
1.99467e-05
2.89691e-05
2.04314e-05
2.00819e-05
2.89639e-05
2.04312e-05
1.99185e-05
2.99138e-05
6.89375e-05
6.89542e-05
2.99097e-05
2.99154e-05
6.89421e-05
6.89431e-05
2.99148e-05
1.99593e-05
2.00825e-05
2.89661e-05
2.04327e-05
2.89737e-05
2.04327e-05
1.9967e-05
1.99556e-05
2.00832e-05
2.89686e-05
2.04326e-05
2.89741e-05
2.04323e-05
1.99464e-05
4.17195e-05
4.16584e-05
1.96812e-05
4.17571e-05
4.16872e-05
7.25531e-05
7.25539e-05
7.25588e-05
7.2557e-05
1.96738e-05
4.1694e-05
4.16445e-05
4.17625e-05
4.16972e-05
7.2553e-05
7.2552e-05
1.99317e-05
2.89757e-05
2.04322e-05
2.00817e-05
2.89669e-05
2.04323e-05
1.99178e-05
2.99116e-05
6.89476e-05
6.89451e-05
2.99143e-05
1.9924e-05
2.04325e-05
2.89775e-05
2.00795e-05
2.04326e-05
2.89666e-05
1.99129e-05
2.99168e-05
6.89381e-05
6.89495e-05
2.99121e-05
1.99621e-05
2.0082e-05
2.89643e-05
2.04333e-05
2.89748e-05
2.04326e-05
1.99652e-05
2.99173e-05
6.89414e-05
6.89463e-05
2.99143e-05
1.99264e-05
2.00798e-05
2.04334e-05
2.89641e-05
2.04333e-05
2.89743e-05
1.99196e-05
2.9921e-05
6.89616e-05
6.89495e-05
2.99255e-05
1.99405e-05
2.04331e-05
2.89752e-05
2.00826e-05
2.0433e-05
2.89658e-05
1.99208e-05
2.99097e-05
6.89668e-05
6.89593e-05
2.99157e-05
1.99681e-05
2.00879e-05
2.89639e-05
2.04365e-05
2.89718e-05
2.04363e-05
1.995e-05
2.9927e-05
6.89454e-05
6.89508e-05
2.99228e-05
1.99571e-05
2.00829e-05
2.04341e-05
2.8964e-05
2.04339e-05
2.89742e-05
1.99512e-05
2.99148e-05
6.89539e-05
6.89602e-05
2.99112e-05
4.18182e-05
4.1725e-05
1.96674e-05
4.17012e-05
4.17532e-05
7.25594e-05
7.25589e-05
7.25529e-05
7.25562e-05
1.96656e-05
4.16709e-05
4.16714e-05
4.17003e-05
4.17586e-05
7.25533e-05
7.25561e-05
1.99496e-05
2.04325e-05
2.89734e-05
2.0084e-05
2.04326e-05
2.89658e-05
1.99205e-05
2.9906e-05
6.89444e-05
6.89374e-05
2.99114e-05
2.99111e-05
6.89409e-05
6.89393e-05
2.99145e-05
1.99384e-05
2.00795e-05
2.04323e-05
2.89605e-05
2.04316e-05
2.89717e-05
1.99343e-05
1.99538e-05
2.00842e-05
2.0433e-05
2.8964e-05
2.0433e-05
2.89739e-05
1.99396e-05
2.99109e-05
6.8929e-05
6.89418e-05
2.99068e-05
2.99172e-05
6.89271e-05
6.89361e-05
2.99137e-05
7.25628e-05
7.25598e-05
7.25588e-05
7.25582e-05
1.9703e-05
4.16941e-05
4.16982e-05
4.17559e-05
4.16863e-05
7.25552e-05
7.25568e-05
7.25532e-05
7.25548e-05
7.25554e-05
7.25571e-05
7.25508e-05
7.25517e-05
4.17088e-05
4.16837e-05
1.96797e-05
4.1744e-05
4.1618e-05
7.25583e-05
7.25557e-05
7.25535e-05
7.25499e-05
1.96818e-05
4.17714e-05
4.17006e-05
4.17599e-05
4.16377e-05
2.99192e-05
6.8939e-05
2.99216e-05
6.89291e-05
1.99496e-05
2.89748e-05
2.04326e-05
2.00821e-05
1.99708e-05
2.8967e-05
2.04324e-05
1.99444e-05
2.89774e-05
2.04323e-05
2.00824e-05
1.99491e-05
2.89694e-05
2.04317e-05
2.99188e-05
6.89395e-05
6.89411e-05
2.99158e-05
2.99247e-05
6.89282e-05
6.89295e-05
2.99199e-05
1.99455e-05
2.00823e-05
2.89673e-05
2.04317e-05
2.89756e-05
2.04323e-05
1.99539e-05
1.99425e-05
2.00822e-05
2.89715e-05
2.0431e-05
2.89781e-05
2.04315e-05
1.99537e-05
4.17109e-05
4.1652e-05
1.96721e-05
4.16927e-05
4.16941e-05
7.25511e-05
7.25552e-05
7.25588e-05
7.25543e-05
1.96851e-05
4.17436e-05
4.1737e-05
4.16711e-05
4.17181e-05
7.25593e-05
7.25545e-05
1.99517e-05
2.89727e-05
2.04335e-05
2.00825e-05
1.99757e-05
2.89634e-05
2.04328e-05
2.99172e-05
6.89424e-05
2.99206e-05
6.89383e-05
1.9938e-05
2.04335e-05
2.89727e-05
2.00791e-05
1.99271e-05
2.0433e-05
2.89655e-05
2.99194e-05
6.89445e-05
6.89415e-05
2.99158e-05
1.99516e-05
2.00828e-05
2.8965e-05
2.04318e-05
2.89718e-05
2.04326e-05
1.99598e-05
2.99226e-05
6.89357e-05
6.89398e-05
2.9917e-05
1.99486e-05
2.00785e-05
2.0432e-05
2.89693e-05
2.04324e-05
2.89749e-05
1.99517e-05
2.99242e-05
6.89476e-05
2.99287e-05
6.89391e-05
1.99474e-05
2.0434e-05
2.89721e-05
2.00823e-05
1.99439e-05
2.04328e-05
2.89644e-05
2.99138e-05
6.89539e-05
2.99173e-05
6.89531e-05
1.99496e-05
2.00853e-05
2.897e-05
2.0434e-05
2.89769e-05
2.04345e-05
1.99569e-05
2.99296e-05
6.89217e-05
6.89429e-05
2.99241e-05
1.99611e-05
2.00827e-05
2.0432e-05
2.89657e-05
2.04325e-05
2.89735e-05
1.99412e-05
2.99195e-05
6.89367e-05
6.89543e-05
2.99148e-05
4.16857e-05
4.16799e-05
1.96478e-05
4.16348e-05
4.16197e-05
7.25505e-05
7.255e-05
7.25585e-05
7.25519e-05
1.96453e-05
4.17376e-05
4.16068e-05
4.16915e-05
4.15935e-05
7.25516e-05
7.25478e-05
1.99739e-05
2.04338e-05
2.89722e-05
2.00831e-05
1.99399e-05
2.04337e-05
2.89652e-05
2.99136e-05
6.89294e-05
2.99139e-05
6.89273e-05
2.99161e-05
6.89281e-05
2.99197e-05
6.89267e-05
1.99585e-05
2.00785e-05
2.04319e-05
2.89612e-05
2.04321e-05
2.89667e-05
1.99721e-05
1.9979e-05
2.0083e-05
2.04331e-05
2.89685e-05
2.04335e-05
2.89744e-05
1.99773e-05
2.99208e-05
6.89369e-05
6.89318e-05
2.99186e-05
2.99226e-05
6.89303e-05
6.89287e-05
2.99196e-05
7.25521e-05
7.25543e-05
7.25507e-05
7.25525e-05
1.96636e-05
4.16626e-05
4.1751e-05
4.17007e-05
4.17378e-05
7.2556e-05
7.25529e-05
7.25562e-05
7.25519e-05
7.2557e-05
7.25608e-05
7.2553e-05
7.25569e-05
4.17801e-05
4.17329e-05
1.96784e-05
4.17617e-05
4.16966e-05
7.25646e-05
7.25599e-05
7.25612e-05
7.25566e-05
1.96721e-05
4.17472e-05
4.17288e-05
4.17683e-05
4.17035e-05
2.99191e-05
6.89329e-05
2.99247e-05
6.89405e-05
1.99381e-05
2.89761e-05
2.04306e-05
2.00771e-05
1.99452e-05
2.89678e-05
2.04273e-05
1.99499e-05
2.898e-05
2.04299e-05
2.00757e-05
1.9955e-05
2.8972e-05
2.04274e-05
2.99236e-05
6.89522e-05
6.89488e-05
2.99185e-05
2.99242e-05
6.89422e-05
6.89439e-05
2.99186e-05
1.99474e-05
2.00774e-05
2.89694e-05
2.04248e-05
2.89767e-05
2.04259e-05
1.99449e-05
1.99593e-05
2.00753e-05
2.89742e-05
2.04248e-05
2.89811e-05
2.04259e-05
1.99481e-05
4.16872e-05
4.17268e-05
1.96655e-05
4.16978e-05
4.17535e-05
7.25582e-05
7.25643e-05
7.25662e-05
7.25611e-05
1.96541e-05
4.17374e-05
4.18212e-05
4.17598e-05
4.17512e-05
7.25706e-05
7.25636e-05
1.99315e-05
2.89742e-05
2.04303e-05
2.00769e-05
1.99462e-05
2.89662e-05
2.04275e-05
2.99174e-05
6.8938e-05
2.99222e-05
6.89395e-05
1.99614e-05
2.04311e-05
2.89785e-05
2.00738e-05
1.99655e-05
2.0428e-05
2.89708e-05
2.99214e-05
6.89576e-05
6.89594e-05
2.9918e-05
1.99473e-05
2.00774e-05
2.89681e-05
2.0425e-05
2.89753e-05
2.0427e-05
1.99464e-05
2.99227e-05
6.89494e-05
6.89488e-05
2.9918e-05
1.99481e-05
2.00727e-05
2.04254e-05
2.89756e-05
2.04272e-05
2.89799e-05
1.99443e-05
2.99236e-05
6.89229e-05
2.99294e-05
6.89239e-05
1.99411e-05
2.04308e-05
2.89744e-05
2.00753e-05
1.99406e-05
2.04264e-05
2.89666e-05
2.99154e-05
6.89363e-05
2.99199e-05
6.89317e-05
1.99496e-05
2.00768e-05
2.89773e-05
2.04258e-05
2.89828e-05
2.04269e-05
1.99308e-05
2.9929e-05
6.89376e-05
6.89336e-05
2.99234e-05
1.99477e-05
2.00742e-05
2.04244e-05
2.89704e-05
2.04253e-05
2.89762e-05
1.99405e-05
2.99211e-05
6.89438e-05
6.89372e-05
2.99172e-05
4.17478e-05
4.17041e-05
1.96312e-05
4.17226e-05
4.17502e-05
7.25523e-05
7.25594e-05
7.25675e-05
7.25618e-05
1.9624e-05
4.17524e-05
4.17808e-05
4.17273e-05
4.17546e-05
7.25652e-05
7.25595e-05
1.99407e-05
2.0432e-05
2.89782e-05
2.00774e-05
1.99583e-05
2.04283e-05
2.89719e-05
2.99195e-05
6.8941e-05
2.99243e-05
6.89457e-05
2.99192e-05
6.89366e-05
2.99251e-05
6.89413e-05
1.99677e-05
2.00756e-05
2.04268e-05
2.89715e-05
2.04282e-05
2.89773e-05
1.99352e-05
1.99524e-05
2.00765e-05
2.04257e-05
2.89735e-05
2.04273e-05
2.89808e-05
1.99311e-05
2.99256e-05
6.8947e-05
6.89496e-05
2.99212e-05
2.99248e-05
6.89444e-05
6.89451e-05
2.99194e-05
7.25546e-05
7.25581e-05
7.25558e-05
7.25618e-05
1.96605e-05
4.17681e-05
4.17436e-05
4.17365e-05
4.17413e-05
7.25662e-05
7.25583e-05
7.25655e-05
7.25606e-05
7.2563e-05
7.25699e-05
7.25604e-05
7.25662e-05
4.17806e-05
4.16925e-05
1.96737e-05
4.17475e-05
4.1764e-05
7.25754e-05
7.25698e-05
7.2571e-05
7.25658e-05
1.9663e-05
4.18458e-05
4.17758e-05
4.18251e-05
4.17659e-05
2.99178e-05
6.89434e-05
2.99239e-05
6.894e-05
1.99314e-05
2.89788e-05
2.04224e-05
2.00699e-05
1.99426e-05
2.89728e-05
2.04188e-05
1.99166e-05
2.89839e-05
2.04226e-05
2.00693e-05
1.99338e-05
2.89769e-05
2.04193e-05
2.99249e-05
6.8957e-05
6.89587e-05
2.9921e-05
2.99228e-05
6.89414e-05
6.89423e-05
2.99178e-05
1.99175e-05
2.00707e-05
2.89756e-05
2.04183e-05
2.89826e-05
2.04195e-05
1.99096e-05
1.99131e-05
2.00689e-05
2.89768e-05
2.04173e-05
2.89857e-05
2.0418e-05
1.99154e-05
4.18212e-05
4.1838e-05
1.96541e-05
4.18424e-05
4.1844e-05
7.25704e-05
7.25757e-05
7.25762e-05
7.25722e-05
1.96484e-05
4.18563e-05
4.18849e-05
4.18621e-05
4.18209e-05
7.25799e-05
7.25745e-05
1.99339e-05
2.89771e-05
2.04229e-05
2.0071e-05
1.99449e-05
2.89703e-05
2.04204e-05
2.9918e-05
6.89523e-05
2.99236e-05
6.89544e-05
1.99268e-05
2.04234e-05
2.89862e-05
2.00684e-05
1.99488e-05
2.04193e-05
2.89817e-05
2.99254e-05
6.89637e-05
6.89634e-05
2.99213e-05
1.9918e-05
2.00717e-05
2.89724e-05
2.04185e-05
2.89794e-05
2.04197e-05
1.99234e-05
2.99232e-05
6.89549e-05
6.89567e-05
2.99183e-05
1.99316e-05
2.00682e-05
2.04178e-05
2.89847e-05
2.04185e-05
2.89917e-05
1.99085e-05
2.99237e-05
6.89485e-05
2.9929e-05
6.89503e-05
1.9929e-05
2.04227e-05
2.89798e-05
2.00687e-05
1.99361e-05
2.04186e-05
2.89738e-05
2.99178e-05
6.89483e-05
2.99229e-05
6.89548e-05
1.99215e-05
2.00718e-05
2.89837e-05
2.04184e-05
2.89904e-05
2.04192e-05
1.99141e-05
2.99291e-05
6.89532e-05
6.89544e-05
2.99232e-05
1.99331e-05
2.00685e-05
2.04172e-05
2.89777e-05
2.04179e-05
2.89832e-05
1.99059e-05
2.99232e-05
6.89625e-05
6.89634e-05
2.99183e-05
4.18342e-05
4.17869e-05
1.96838e-05
4.18092e-05
4.17603e-05
7.25651e-05
7.25702e-05
7.258e-05
7.25753e-05
1.96683e-05
4.184e-05
4.17435e-05
4.1896e-05
4.17757e-05
7.25723e-05
7.2569e-05
1.9945e-05
2.04229e-05
2.89826e-05
2.00699e-05
1.99318e-05
2.04189e-05
2.89748e-05
2.99231e-05
6.89486e-05
2.99273e-05
6.89478e-05
2.99187e-05
6.89458e-05
2.9925e-05
6.89429e-05
1.99476e-05
2.00717e-05
2.04192e-05
2.89739e-05
2.04208e-05
2.89816e-05
1.99305e-05
1.9935e-05
2.00695e-05
2.04179e-05
2.89765e-05
2.0419e-05
2.89839e-05
1.99218e-05
2.99289e-05
6.89506e-05
6.89504e-05
2.99243e-05
2.9924e-05
6.89458e-05
6.8945e-05
2.99183e-05
7.25662e-05
7.25709e-05
7.2565e-05
7.25702e-05
1.96711e-05
4.18317e-05
4.18294e-05
4.17627e-05
4.18413e-05
7.25759e-05
7.25699e-05
7.25754e-05
7.25695e-05
7.25747e-05
7.2579e-05
7.25702e-05
7.25755e-05
4.18576e-05
4.17607e-05
1.96419e-05
4.18608e-05
4.17702e-05
7.25831e-05
7.25783e-05
7.25801e-05
7.25748e-05
1.96316e-05
4.19033e-05
4.18423e-05
4.18655e-05
4.18061e-05
2.99183e-05
6.89432e-05