/*--------------------------------*- C++ -*----------------------------------*\
| =========                 |                                                 |
| \\      /  F ield         | OpenFOAM: The Open Source CFD Toolbox           |
|  \\    /   O peration     | Version:  2312                                  |
|   \\  /    A nd           | Website:  www.openfoam.com                      |
|    \\/     M anipulation  |                                                 |
\*---------------------------------------------------------------------------*/
FoamFile
{
    version     2.0;
    format      ascii;
    arch        "LSB;label=32;scalar=64";
    class       surfaceScalarField;
    location    "750";
    object      phi;
}
// * * * * * * * * * * * * * * * * * * * * * * * * * * * * * * * * * * * * * //

dimensions      [0 3 -1 0 0 0 0];

oriented        oriented;

internalField   nonuniform List<scalar> 
123680
(
-8.18429e-07
-8.19341e-07
4.333e-07
4.34027e-07
0.00115006
-0.00114929
-1.50278e-06
8.19558e-07
3.99218e-07
0.00113925
-4.98841e-07
1.12942e-06
1.47175e-07
7.47146e-07
-5.44907e-07
8.45209e-08
-1.22947e-06
-0.0011388
-1.50004e-06
8.19289e-07
4.05063e-07
0.00113912
-4.96131e-07
1.12667e-06
1.44169e-07
7.47254e-07
-5.44918e-07
8.47511e-08
-1.22952e-06
-0.00113868
1.53178e-06
1.49475e-06
-4.76277e-07
-4.79312e-07
0.000274438
-0.000276509
-7.98882e-07
-7.99627e-07
-0.00115233
4.25661e-07
4.26437e-07
0.00115308
-0.0011405
-1.49427e-06
7.99517e-07
3.90093e-07
0.0011409
-4.8734e-07
1.13504e-06
1.53561e-07
7.5457e-07
-5.30117e-07
-1.21365e-06
9.27678e-08
-0.00114038
-1.49149e-06
7.99413e-07
3.95842e-07
0.00114077
-4.84619e-07
1.13233e-06
1.50657e-07
7.54614e-07
-5.3013e-07
-1.21374e-06
9.29347e-08
-0.000276524
1.52317e-06
1.48616e-06
-4.63572e-07
-4.66528e-07
0.000274444
-7.79233e-07
-7.79751e-07
-0.00115528
4.18236e-07
4.18993e-07
0.00115601
-0.00114201
-1.48487e-06
7.79599e-07
3.80586e-07
0.00114236
-4.7591e-07
1.1404e-06
1.59844e-07
7.61834e-07
-5.15407e-07
-1.1976e-06
1.00967e-07
-0.00114188
-1.4821e-06
7.79483e-07
3.86197e-07
0.00114222
-4.73061e-07
1.13767e-06
1.57036e-07
7.61908e-07
-5.15423e-07
-1.19763e-06
1.01063e-07
-0.000276478
1.51366e-06
1.47663e-06
-4.50488e-07
-4.53421e-07
0.000274392
-7.58527e-07
-7.58921e-07
-0.00115813
4.10122e-07
4.10883e-07
0.00115883
-0.00114331
-1.47468e-06
7.58546e-07
3.71558e-07
0.00114361
-4.64332e-07
1.14558e-06
1.66027e-07
7.69134e-07
-5.01063e-07
-1.18137e-06
1.09095e-07
-0.00114318
-1.47192e-06
7.5856e-07
3.77146e-07
0.00114348
-4.61487e-07
1.14286e-06
1.63225e-07
7.69197e-07
-5.01101e-07
-1.18144e-06
1.09207e-07
-0.000276378
1.50343e-06
1.46642e-06
-4.37383e-07
-4.40256e-07
0.000274286
-7.37185e-07
-7.37582e-07
-0.00116088
4.01857e-07
4.02557e-07
0.00116155
-0.00114442
-1.46379e-06
7.37256e-07
3.621e-07
0.00114468
-4.52933e-07
1.15073e-06
1.71941e-07
7.7635e-07
-4.86857e-07
-1.16511e-06
1.17096e-07
-0.00114429
-1.46098e-06
7.3714e-07
3.67736e-07
0.00114454
-4.50052e-07
1.14811e-06
1.69196e-07
7.76426e-07
-4.86922e-07
-1.16516e-06
1.17195e-07
-0.000276232
1.49255e-06
1.4555e-06
-4.24238e-07
-4.2715e-07
0.000274135
-7.15025e-07
-7.15398e-07
-0.00116352
3.93164e-07
3.93778e-07
0.00116417
-0.00114534
-1.45224e-06
7.15101e-07
3.52397e-07
0.00114555
-4.41676e-07
1.15606e-06
1.77841e-07
7.83433e-07
-4.73006e-07
-1.14904e-06
1.24904e-07
-0.00114521
-1.44942e-06
7.15128e-07
3.57972e-07
0.00114541
-4.38812e-07
1.15335e-06
1.75039e-07
7.83496e-07
-4.73053e-07
-1.14909e-06
1.25018e-07
-0.000276047
1.48104e-06
1.44395e-06
-4.1119e-07
-4.14107e-07
0.000273947
-6.9226e-07
-6.92723e-07
-0.00116605
3.84329e-07
3.8485e-07
0.00116667
-0.00114608
-1.44017e-06
6.9243e-07
3.41631e-07
0.00114624
-4.30675e-07
1.16147e-06
1.8376e-07
7.90436e-07
-4.59458e-07
-1.1332e-06
1.32617e-07
-0.00114595
-1.43738e-06
6.92572e-07
3.47373e-07
0.0011461
-4.27843e-07
1.15874e-06
1.80913e-07
7.90472e-07
-4.59534e-07
-1.13327e-06
1.32693e-07
-0.000275831
1.46907e-06
1.43194e-06
-3.98278e-07
-4.01269e-07
0.000273729
-6.68819e-07
-6.69367e-07
-0.00116848
3.75236e-07
3.75653e-07
0.00116906
-0.00114663
-1.42789e-06
6.69094e-07
3.30052e-07
0.00114675
-4.19827e-07
1.16681e-06
1.89528e-07
7.97356e-07
-4.46254e-07
-1.11765e-06
1.40215e-07
-0.0011465
-1.42509e-06
6.69334e-07
3.35828e-07
0.00114661
-4.16997e-07
1.16412e-06
1.86729e-07
7.97222e-07
-4.46316e-07
-1.11773e-06
1.40298e-07
-0.000275592
1.45685e-06
1.41967e-06
-3.85724e-07
-3.88731e-07
0.00027349
-6.44874e-07
-6.45391e-07
-0.00117078
3.65955e-07
3.66283e-07
0.00117134
-0.00114702
-1.41549e-06
6.45203e-07
3.18064e-07
0.0011471
-4.09246e-07
1.17215e-06
1.95197e-07
8.03924e-07
-4.33363e-07
-1.10255e-06
1.47701e-07
-0.00114689
-1.41272e-06
6.45526e-07
3.23737e-07
0.00114696
-4.06439e-07
1.16945e-06
1.92371e-07
8.03857e-07
-4.33474e-07
-1.1027e-06
1.47765e-07
-0.000275336
1.44454e-06
1.40731e-06
-3.73572e-07
-3.76595e-07
0.000273235
-6.20266e-07
-6.2091e-07
-0.00117297
3.50726e-07
3.56723e-07
0.0011735
-0.00114726
-1.4032e-06
6.2069e-07
3.05169e-07
0.0011473
-3.98952e-07
1.17743e-06
2.00718e-07
8.10431e-07
-4.20922e-07
-1.08788e-06
1.54985e-07
-0.00114713
-1.40042e-06
6.20959e-07
3.10755e-07
0.00114716
-3.96174e-07
1.17472e-06
1.97895e-07
8.10486e-07
-4.20994e-07
-1.08803e-06
1.55056e-07
-0.000275071
1.43218e-06
1.39499e-06
-3.61866e-07
-3.64859e-07
0.000272971
-5.95332e-07
-5.95971e-07
-0.00117503
3.41171e-07
3.47182e-07
0.00117554
-0.00114735
-1.39104e-06
5.95828e-07
2.91568e-07
0.00114736
-3.88965e-07
1.18256e-06
2.06126e-07
8.16611e-07
-4.0892e-07
-1.07382e-06
1.62031e-07
-0.00114722
-1.38831e-06
5.96017e-07
2.97158e-07
0.00114722
-3.8618e-07
1.17984e-06
2.0328e-07
8.16677e-07
-4.08968e-07
-1.07391e-06
1.62137e-07
-0.000274801
1.42006e-06
1.38294e-06
-3.50734e-07
-3.53655e-07
0.000272703
-5.70239e-07
-5.70766e-07
-0.00117698
3.31658e-07
3.37784e-07
0.00117745
-0.00114731
-1.37919e-06
5.70722e-07
2.77189e-07
0.00114729
-3.79333e-07
1.1875e-06
2.11335e-07
8.22607e-07
-3.97349e-07
-1.0604e-06
1.68844e-07
-0.00114718
-1.37646e-06
5.70723e-07
2.82709e-07
0.00114715
-3.76567e-07
1.18477e-06
2.08502e-07
8.22683e-07
-3.97368e-07
-1.06039e-06
1.68981e-07
-0.000274531
1.40806e-06
1.37104e-06
-3.40039e-07
-3.42866e-07
0.000272434
-5.44953e-07
-5.45341e-07
-0.00117879
3.2222e-07
3.28433e-07
0.00117923
-0.00114716
-1.36769e-06
5.45378e-07
2.62088e-07
0.00114711
-3.70006e-07
1.19216e-06
2.16405e-07
8.28291e-07
-3.86247e-07
-1.0474e-06
1.75404e-07
-0.00114703
-1.36494e-06
5.45218e-07
2.67573e-07
0.00114698
-3.67247e-07
1.18947e-06
2.13579e-07
8.28431e-07
-3.86228e-07
-1.04749e-06
1.7557e-07
-0.000274262
1.39655e-06
1.35959e-06
-3.29949e-07
-3.32699e-07
0.000272169
-5.19469e-07
-5.19749e-07
-0.00118048
3.12769e-07
3.191e-07
0.00118089
-0.00114691
-1.35657e-06
5.19813e-07
2.46414e-07
0.00114684
-3.61038e-07
1.19662e-06
2.21276e-07
8.33739e-07
-3.7561e-07
-1.03512e-06
1.81689e-07
-0.00114678
-1.35384e-06
5.19589e-07
2.51754e-07
0.0011467
-3.5828e-07
1.19391e-06
2.18461e-07
8.33965e-07
-3.7559e-07
-1.03504e-06
1.81885e-07
-0.000273999
1.38542e-06
1.34853e-06
-3.20352e-07
-3.23057e-07
0.000271908
-4.93865e-07
-4.94084e-07
-0.00118204
3.03329e-07
3.09754e-07
0.00118241
-0.00114657
-1.34592e-06
4.94091e-07
2.3023e-07
0.00114648
-3.52423e-07
1.20082e-06
2.25925e-07
8.39028e-07
-3.6546e-07
-1.02333e-06
1.87673e-07
-0.00114644
-1.34308e-06
4.938e-07
2.35668e-07
0.00114634
-3.49671e-07
1.1981e-06
2.23143e-07
8.39189e-07
-3.65438e-07
-1.0233e-06
1.87881e-07
-0.000273742
1.37468e-06
1.33782e-06
-3.11203e-07
-3.13915e-07
0.000271654
-4.68092e-07
-4.6827e-07
-0.00118346
2.93752e-07
3.00217e-07
0.00118381
-0.00114616
-1.33564e-06
4.68279e-07
2.13734e-07
0.00114605
-3.44205e-07
1.20472e-06
2.30379e-07
8.44135e-07
-3.55773e-07
-1.0121e-06
1.93358e-07
-0.00114603
-1.33284e-06
4.67937e-07
2.19333e-07
0.00114592
-3.41444e-07
1.20202e-06
2.27596e-07
8.44201e-07
-3.55776e-07
-1.0121e-06
1.93549e-07
-0.000273493
1.36443e-06
1.32757e-06
-3.02565e-07
-3.05322e-07
0.000271408
-4.42106e-07
-4.42345e-07
-0.00118476
2.83967e-07
2.90426e-07
0.00118507
-0.00114569
-1.32579e-06
4.42318e-07
1.97272e-07
0.00114557
-3.36401e-07
1.20838e-06
2.3453e-07
8.48824e-07
-3.4655e-07
-1.00147e-06
1.98746e-07
-0.00114556
-1.32309e-06
4.42018e-07
2.02882e-07
0.00114543
-3.33608e-07
1.20573e-06
2.31775e-07
8.48885e-07
-3.46552e-07
-1.00148e-06
1.98937e-07
-0.000273252
1.35465e-06
1.31776e-06
-2.94408e-07
-2.9721e-07
0.000271171
-4.16152e-07
-4.16341e-07
-0.00118593
2.79757e-07
2.80366e-07
0.0011862
-0.00114517
-1.31654e-06
4.16315e-07
1.80823e-07
0.00114504
-3.28907e-07
1.2118e-06
2.38462e-07
8.53267e-07
-3.37743e-07
-9.91377e-07
2.03905e-07
-0.00114504
-1.31379e-06
4.16099e-07
1.86547e-07
0.00114491
-3.26182e-07
1.20914e-06
2.35719e-07
8.53283e-07
-3.37779e-07
-9.91428e-07
2.04046e-07
-0.00027302
1.34541e-06
1.3085e-06
-2.86786e-07
-2.8964e-07
0.000270943
-3.90366e-07
-3.90247e-07
-0.00118697
2.69466e-07
2.70026e-07
0.00118721
-0.00114462
-1.30769e-06
3.90257e-07
1.64747e-07
0.00114448
-3.21897e-07
1.21497e-06
2.42117e-07
8.57451e-07
-3.29397e-07
-9.81852e-07
2.08767e-07
-0.00114449
-1.30494e-06
3.90218e-07
1.70436e-07
0.00114434
-3.19105e-07
1.2123e-06
2.39434e-07
8.575e-07
-3.29433e-07
-9.81863e-07
2.08898e-07
-0.000272798
1.33655e-06
1.29962e-06
-2.79588e-07
-2.82422e-07
0.000270724
-3.64232e-07
-3.64382e-07
-0.00118789
2.58796e-07
2.59245e-07
0.0011881
-0.00114404
-1.29938e-06
3.64317e-07
1.48995e-07
0.00114389
-3.15232e-07
1.21785e-06
2.45554e-07
8.61479e-07
-3.21396e-07
-9.72744e-07
2.13442e-07
-0.0011439
-1.29661e-06
3.64287e-07
1.54743e-07
0.00114376
-3.12436e-07
1.21517e-06
2.42839e-07
8.61512e-07
-3.21442e-07
-9.72782e-07
2.13532e-07
-0.000272586
1.32823e-06
1.2913e-06
-2.72867e-07
-2.75732e-07
0.000270515
-3.38372e-07
-3.38595e-07
-0.00118869
2.47705e-07
2.48105e-07
0.00118887
-0.00114344
-1.29149e-06
3.38445e-07
1.3379e-07
0.00114329
-3.08917e-07
1.22048e-06
2.48756e-07
8.65287e-07
-3.13815e-07
-9.64145e-07
2.178e-07
-0.0011433
-1.28873e-06
3.38462e-07
1.39547e-07
0.00114315
-3.06178e-07
1.21776e-06
2.45984e-07
8.65292e-07
-3.13874e-07
-9.64188e-07
2.17902e-07
-0.000272383
1.32032e-06
1.28341e-06
-2.66596e-07
-2.69429e-07
0.000270316
-3.12724e-07
-3.12963e-07
-0.00118937
2.36245e-07
2.36591e-07
0.00118952
-0.00114283
-1.28405e-06
3.12753e-07
1.19303e-07
0.00114268
-3.03042e-07
1.2229e-06
2.51654e-07
8.68867e-07
-3.06607e-07
-9.55997e-07
2.21944e-07
-0.00114269
-1.28132e-06
3.1278e-07
1.25069e-07
0.00114254
-3.00306e-07
1.22018e-06
2.48898e-07
8.68871e-07
-3.06681e-07
-9.5604e-07
2.22021e-07
-0.000272191
1.31289e-06
1.27602e-06
-2.6076e-07
-2.63564e-07
0.000270126
-2.87319e-07
-2.8754e-07
-0.00118994
2.24305e-07
2.24609e-07
0.00119007
-0.00114221
-1.27708e-06
2.87282e-07
1.05451e-07
0.00114207
-2.97539e-07
1.22504e-06
2.54294e-07
8.72251e-07
-2.99752e-07
-9.48283e-07
2.25875e-07
-0.00114208
-1.27439e-06
2.87345e-07
1.11221e-07
0.00114193
-2.94786e-07
1.22235e-06
2.51528e-07
8.72277e-07
-2.99868e-07
-9.48305e-07
2.25942e-07
-0.000272008
1.30588e-06
1.26902e-06
-2.55292e-07
-2.58085e-07
0.000269946
-2.62194e-07
-2.6242e-07
-0.00119041
2.11882e-07
2.12119e-07
0.00119051
-0.0011416
-1.27059e-06
2.62145e-07
9.25754e-08
0.00114146
-2.92398e-07
1.22699e-06
2.56702e-07
8.75446e-07
-2.93334e-07
-9.40989e-07
2.2952e-07
-0.00114147
-1.26786e-06
2.62179e-07
9.8208e-08
0.00114132
-2.89657e-07
1.22429e-06
2.53954e-07
8.75456e-07
-2.93355e-07
-9.41018e-07
2.29611e-07
-0.000271835
1.29932e-06
1.2625e-06
-2.50235e-07
-2.53034e-07
0.000269776
-2.37434e-07
-2.37605e-07
-0.00119077
1.98956e-07
1.99207e-07
0.00119085
-0.001141
-1.26446e-06
2.37359e-07
8.05087e-08
0.00114086
-2.87621e-07
1.22876e-06
2.58884e-07
8.78419e-07
-2.8721e-07
-9.34113e-07
2.32969e-07
-0.00114086
-1.2617e-06
2.37356e-07
8.61795e-08
0.00114071
-2.84898e-07
1.22607e-06
2.56129e-07
8.78434e-07
-2.87265e-07
-9.34152e-07
2.33032e-07
-0.000271671
1.29319e-06
1.25636e-06
-2.45554e-07
-2.48355e-07
0.000269615
1.54297e-06
1.50313e-06
-4.76432e-07
-4.82041e-07
0.000274497
-0.000276584
-1.17392e-06
-1.1338e-06
0.000276599
-0.000274507
1.05225e-07
1.10676e-07
4.06231e-07
0.0011387
-5.0458e-07
1.16958e-06
1.52812e-07
7.52761e-07
-5.45025e-07
8.45823e-08
-1.23508e-06
-0.00113826
-1.54048e-06
8.18493e-07
4.06853e-07
0.00113878
-5.04752e-07
1.16683e-06
1.52628e-07
7.52786e-07
-5.42142e-07
8.15071e-08
-1.23482e-06
-0.00113833
0.00113996
8.03826e-07
-0.00113955
3.99214e-07
-1.53661e-06
1.57674e-07
-4.95866e-07
-1.22338e-06
9.06752e-08
-5.3395e-07
7.58198e-07
1.17117e-06
0.00114003
8.03945e-07
-0.00113962
3.99627e-07
-1.53411e-06
1.57495e-07
-4.96007e-07
-1.2231e-06
8.76209e-08
-5.3108e-07
7.58232e-07
-4.76701e-07
-4.79056e-07
0.000274478
-0.000276565
-1.13368e-06
0.00027658
-0.000274488
1.05347e-07
1.07805e-07
4.05188e-07
0.0011397
-4.99143e-07
1.12948e-06
1.47014e-07
7.5272e-07
-5.44986e-07
8.4785e-08
-1.23492e-06
-0.00113926
-1.53482e-06
8.18114e-07
4.06463e-07
0.00113866
-5.04623e-07
1.16154e-06
1.5289e-07
7.52797e-07
-5.42164e-07
8.15868e-08
-1.23482e-06
-0.00113821
0.00114096
8.04568e-07
-0.00114055
3.98212e-07
-1.49675e-06
1.51903e-07
-4.90421e-07
-1.22319e-06
9.09705e-08
-5.339e-07
7.58195e-07
1.16586e-06
0.00113991
8.03684e-07
-0.00113951
3.99251e-07
-1.52852e-06
1.57756e-07
-4.95943e-07
-1.22309e-06
8.77596e-08
-5.31001e-07
7.58237e-07
8.18327e-07
4.06586e-07
0.00113828
-5.0156e-07
1.15859e-06
1.49961e-07
7.44541e-07
-5.3921e-07
7.83438e-08
-1.22638e-06
-0.00113783
8.04451e-07
-0.0011401
4.03384e-07
-1.49647e-06
1.51924e-07
-4.90213e-07
-1.21759e-06
9.06994e-08
7.52732e-07
-5.33756e-07
1.16291e-06
0.00113953
8.03271e-07
-0.00113913
3.99424e-07
-1.52549e-06
1.54851e-07
-4.92872e-07
-1.21461e-06
8.45339e-08
-5.28155e-07
7.50063e-07
-4.76779e-07
-4.81623e-07
0.000274463
-0.00027654
-1.13096e-06
0.000276555
-0.000274474
1.05451e-07
1.10709e-07
8.19261e-07
4.05145e-07
0.00113926
-4.99034e-07
1.12113e-06
1.47001e-07
7.49766e-07
-5.44892e-07
8.48603e-08
-1.23187e-06
-0.00113882
8.04414e-07
-0.00113997
3.98054e-07
-1.49371e-06
1.49026e-07
-4.8743e-07
-1.21778e-06
9.08942e-08
7.52742e-07
-5.33823e-07
1.12542e-06
0.00114052
8.04791e-07
-0.00114011
3.97878e-07
-1.48848e-06
1.51847e-07
-4.90389e-07
-1.22015e-06
9.09702e-08
-5.33782e-07
7.55248e-07
-0.000274449
1.05188e-07
1.08082e-07
1.53439e-06
1.49454e-06
-4.63702e-07
-4.69286e-07
0.000274503
-1.1794e-06
-1.13927e-06
0.000276554
-0.000274469
1.14235e-07
1.1969e-07
3.96888e-07
0.00114035
-4.92934e-07
1.17533e-06
1.59293e-07
7.60039e-07
-5.30241e-07
-1.21934e-06
9.27552e-08
-1.53187e-06
7.99034e-07
3.97353e-07
0.00114042
-4.93105e-07
1.17259e-06
1.59136e-07
7.60051e-07
-5.27452e-07
-1.21913e-06
8.96523e-08
0.00114146
7.84265e-07
-0.0011411
3.89498e-07
-1.52733e-06
1.64047e-07
-4.84384e-07
-1.20739e-06
9.87914e-08
-5.19274e-07
7.65438e-07
1.17677e-06
0.00114153
7.84304e-07
-0.00114118
3.8975e-07
-1.52475e-06
1.63954e-07
-4.84447e-07
-1.20712e-06
9.57355e-08
-5.16434e-07
7.65438e-07
-4.64051e-07
-4.66285e-07
0.000274484
-1.13911e-06
0.000276534
-0.00027445
1.14305e-07
1.16926e-07
3.95823e-07
0.00114135
-4.87505e-07
1.13521e-06
1.5351e-07
7.60035e-07
-5.30165e-07
-1.21914e-06
9.29817e-08
-1.52631e-06
7.98807e-07
3.96821e-07
0.00114031
-4.93064e-07
1.16725e-06
1.5935e-07
7.60056e-07
-5.27376e-07
-1.2191e-06
8.9761e-08
0.00114246
7.84827e-07
-0.0011421
3.88501e-07
-1.48746e-06
1.58288e-07
-4.78953e-07
-1.20716e-06
9.90778e-08
-5.19179e-07
7.6547e-07
1.17134e-06
0.00114141
7.8393e-07
-0.00114106
3.89423e-07
-1.5192e-06
1.64205e-07
-4.8437e-07
-1.20709e-06
9.58302e-08
-5.16365e-07
7.65494e-07
7.98261e-07
3.97136e-07
0.00113992
-4.8995e-07
1.16432e-06
1.56478e-07
7.51884e-07
-5.24441e-07
8.66233e-08
-1.21061e-06
7.84606e-07
-0.00114165
3.93942e-07
-1.48725e-06
1.58266e-07
-4.78835e-07
-1.20162e-06
9.89332e-08
7.60025e-07
-5.18981e-07
1.16842e-06
0.00114103
7.83408e-07
-0.00114068
3.89497e-07
-1.51616e-06
1.6128e-07
-4.8135e-07
-1.19859e-06
9.28286e-08
-5.13432e-07
7.57328e-07
-4.64074e-07
-4.68939e-07
0.00027447
-1.13634e-06
0.000276509
-0.000274436
1.14334e-07
1.19734e-07
7.99723e-07
3.95678e-07
0.00114091
-4.87463e-07
1.12682e-06
1.53468e-07
7.57092e-07
-5.30047e-07
9.30499e-08
-1.21612e-06
7.84535e-07
-0.00114152
3.88447e-07
-1.48448e-06
1.55433e-07
-4.75912e-07
-1.20171e-06
9.90876e-08
7.60041e-07
-5.19049e-07
1.13093e-06
0.00114202
7.84796e-07
-0.00114166
3.88161e-07
-1.47913e-06
1.58278e-07
-4.78883e-07
-1.20407e-06
9.91471e-08
-5.1904e-07
7.62579e-07
-0.00027441
1.14211e-07
1.1714e-07
1.52494e-06
1.48508e-06
-4.50684e-07
-4.56232e-07
0.00027445
-1.18463e-06
-1.1445e-06
0.000276454
-0.000274376
1.22816e-07
1.28267e-07
3.8717e-07
0.0011418
-4.81457e-07
1.18073e-06
1.65623e-07
7.67273e-07
-5.15658e-07
-1.20335e-06
1.00831e-07
-1.52234e-06
7.79275e-07
3.87384e-07
0.00114188
-4.81516e-07
1.17809e-06
1.65569e-07
7.67241e-07
-5.12831e-07
-1.2031e-06
9.77395e-08
0.00114276
7.6379e-07
-0.00114246
3.80366e-07
-1.51736e-06
1.70296e-07
-4.72748e-07
-1.19126e-06
1.06793e-07
-5.04876e-07
7.7269e-07
1.18203e-06
0.00114284
7.63967e-07
-0.00114253
3.80366e-07
-1.51471e-06
1.70265e-07
-4.72756e-07
-1.19103e-06
1.03779e-07
-5.02097e-07
7.72647e-07
-4.51069e-07
-4.53165e-07
0.000274431
-1.1443e-06
0.000276435
-0.000274357
1.22856e-07
1.25539e-07
3.86175e-07
0.00114281
-4.76043e-07
1.1406e-06
1.59863e-07
7.67302e-07
-5.15515e-07
-1.2031e-06
1.01073e-07
-1.51682e-06
7.78905e-07
3.8713e-07
0.00114176
-4.81428e-07
1.17267e-06
1.65767e-07
7.67289e-07
-5.12741e-07
-1.20307e-06
9.78418e-08
0.00114377
7.64217e-07
-0.00114346
3.79329e-07
-1.4775e-06
1.64553e-07
-4.67328e-07
-1.19099e-06
1.07135e-07
-5.048e-07
7.72759e-07
1.17657e-06
0.00114272
7.63502e-07
-0.00114241
3.80145e-07
-1.50923e-06
1.70474e-07
-4.72701e-07
-1.19093e-06
1.03904e-07
-5.01963e-07
7.72761e-07
7.78355e-07
3.87143e-07
0.00114138
-4.78379e-07
1.16974e-06
1.62886e-07
7.59153e-07
-5.09765e-07
9.48821e-08
-1.19455e-06
7.6378e-07
-0.00114301
3.84955e-07
-1.47728e-06
1.64522e-07
-4.67212e-07
-1.18543e-06
1.07084e-07
7.6734e-07
-5.04606e-07
1.1737e-06
0.00114234
7.62645e-07
-0.00114203
3.80121e-07
-1.50611e-06
1.67584e-07
-4.69671e-07
-1.18242e-06
1.01016e-07
-4.99028e-07
7.64639e-07
-4.51112e-07
-4.55849e-07
0.000274417
-1.14158e-06
0.00027641
-0.000274343
1.22928e-07
1.28341e-07
7.79659e-07
3.85874e-07
0.00114237
-4.7592e-07
1.13223e-06
1.5988e-07
7.6437e-07
-5.15359e-07
1.0119e-07
-1.20001e-06
7.63852e-07
-0.00114288
3.79371e-07
-1.47452e-06
1.61759e-07
-4.64361e-07
-1.18554e-06
1.07176e-07
7.67324e-07
-5.04611e-07
1.13617e-06
0.00114333
7.64269e-07
-0.00114302
3.78853e-07
-1.46911e-06
1.6457e-07
-4.67244e-07
-1.18786e-06
1.07248e-07
-5.04544e-07
7.69776e-07
-0.000274317
1.22788e-07
1.25767e-07
1.51475e-06
1.47489e-06
-4.37593e-07
-4.43106e-07
0.000274345
-1.18979e-06
-1.14968e-06
0.000276308
-0.000274236
1.31099e-07
1.36542e-07
3.78077e-07
0.00114306
-4.69839e-07
1.1859e-06
1.71816e-07
7.74524e-07
-5.01362e-07
-1.18715e-06
1.08827e-07
-1.51209e-06
7.58667e-07
3.78072e-07
0.00114313
-4.6985e-07
1.18332e-06
1.71801e-07
7.74462e-07
-4.98567e-07
-1.18695e-06
1.05787e-07
0.00114387
7.42571e-07
-0.00114361
3.71057e-07
-1.5066e-06
1.76289e-07
-4.61272e-07
-1.17496e-06
1.14863e-07
-4.90702e-07
7.79924e-07
1.18724e-06
0.00114394
7.42669e-07
-0.00114369
3.70912e-07
-1.50393e-06
1.76329e-07
-4.61211e-07
-1.17475e-06
1.11838e-07
-4.87916e-07
7.79888e-07
-4.37954e-07
-4.4002e-07
0.000274326
-1.14947e-06
0.000276289
-0.000274217
1.31157e-07
1.33818e-07
3.77036e-07
0.00114406
-4.6442e-07
1.14577e-06
1.66089e-07
7.74591e-07
-5.01207e-07
-1.18688e-06
1.0912e-07
-1.50663e-06
7.58238e-07
3.77898e-07
0.00114301
-4.69814e-07
1.17784e-06
1.71964e-07
7.74575e-07
-4.98429e-07
-1.18686e-06
1.05927e-07
0.00114488
7.4297e-07
-0.00114462
3.69993e-07
-1.46673e-06
1.7059e-07
-4.55844e-07
-1.17469e-06
1.15147e-07
-4.90593e-07
7.80007e-07
1.18174e-06
0.00114383
7.42173e-07
-0.00114357
3.7093e-07
-1.49846e-06
1.76444e-07
-4.61239e-07
-1.17463e-06
1.11924e-07
-4.87848e-07
7.80008e-07
7.57362e-07
3.77846e-07
0.00114263
-4.66727e-07
1.17497e-06
1.69108e-07
7.66447e-07
-4.95474e-07
1.03037e-07
-1.17836e-06
7.42559e-07
-0.00114417
3.75686e-07
-1.46656e-06
1.7052e-07
-4.55762e-07
-1.16915e-06
1.15115e-07
7.74575e-07
-4.90322e-07
1.17887e-06
0.00114344
7.41471e-07
-0.00114318
3.7067e-07
-1.49532e-06
1.73566e-07
-4.58213e-07
-1.16616e-06
1.09108e-07
-4.84804e-07
7.71872e-07
-4.38e-07
-4.42744e-07
0.000274312
-1.14677e-06
0.000276263
-0.000274203
1.31237e-07
1.3659e-07
7.58851e-07
3.76641e-07
0.00114362
-4.64306e-07
1.13745e-06
1.66115e-07
7.71663e-07
-5.00994e-07
1.09249e-07
-1.18381e-06
7.4251e-07
-0.00114403
3.7006e-07
-1.46374e-06
1.67753e-07
-4.52891e-07
-1.16926e-06
1.15209e-07
7.7458e-07
-4.90388e-07
1.1414e-06
0.00114444
7.427e-07
-0.00114418
3.69494e-07
-1.45827e-06
1.70601e-07
-4.55766e-07
-1.17161e-06
1.1526e-07
-4.90369e-07
7.77199e-07
-0.000274177
1.31104e-07
1.34028e-07
1.50384e-06
1.46395e-06
-4.24458e-07
-4.29975e-07
0.000274194
-1.19508e-06
-1.15499e-06
0.000276123
-0.000274056
1.39115e-07
1.44612e-07
3.68705e-07
0.00114412
-4.5844e-07
1.19114e-06
1.7772e-07
7.81719e-07
-4.87185e-07
-1.17089e-06
1.1686e-07
-1.50116e-06
7.37265e-07
3.68517e-07
0.00114419
-4.58398e-07
1.1885e-06
1.77781e-07
7.81686e-07
-4.84392e-07
-1.17068e-06
1.13855e-07
0.00114479
7.20681e-07
-0.00114458
3.61445e-07
-1.49524e-06
1.82043e-07
-4.50068e-07
-1.15878e-06
1.22796e-07
-4.7668e-07
7.87074e-07
1.19245e-06
0.00114486
7.20784e-07
-0.00114465
3.61161e-07
-1.49257e-06
1.82064e-07
-4.50016e-07
-1.15856e-06
1.19837e-07
-4.73877e-07
7.87042e-07
-4.24822e-07
-4.26906e-07
0.000274175
-1.15471e-06
0.000276103
-0.000274037
1.39146e-07
1.41834e-07
3.67518e-07
0.00114513
-4.5301e-07
1.15102e-06
1.72018e-07
7.81797e-07
-4.87022e-07
-1.1706e-06
1.17147e-07
-1.49571e-06
7.36734e-07
3.68568e-07
0.00114407
-4.58414e-07
1.18307e-06
1.7786e-07
7.81809e-07
-4.84267e-07
-1.17054e-06
1.13977e-07
0.0011458
7.20994e-07
-0.00114559
3.60379e-07
-1.45534e-06
1.7643e-07
-4.44623e-07
-1.15852e-06
1.23059e-07
-4.76575e-07
7.87129e-07
1.18697e-06
0.00114474
7.20336e-07
-0.00114453
3.61201e-07
-1.48713e-06
1.82121e-07
-4.50052e-07
-1.15843e-06
1.19943e-07
-4.73767e-07
7.8719e-07
7.36084e-07
3.68341e-07
0.00114369
-4.55318e-07
1.18013e-06
1.7503e-07
7.73663e-07
-4.81306e-07
1.11118e-07
-1.1621e-06
7.2065e-07
-0.00114513
3.66079e-07
-1.45518e-06
1.76351e-07
-4.44485e-07
-1.15303e-06
1.2297e-07
7.81696e-07
-4.76385e-07
1.18407e-06
0.00114436
7.19655e-07
-0.00114415
3.61036e-07
-1.48402e-06
1.79307e-07
-4.46977e-07
-1.15e-06
1.17097e-07
-4.70807e-07
7.79014e-07
-4.24842e-07
-4.2961e-07
0.000274161
-1.15206e-06
0.000276078
-0.000274023
1.39235e-07
1.44573e-07
7.37274e-07
3.67141e-07
0.00114468
-4.52868e-07
1.14266e-06
1.72048e-07
7.78997e-07
-4.86832e-07
1.17269e-07
-1.16753e-06
7.20695e-07
-0.001145
3.60327e-07
-1.45233e-06
1.73564e-07
-4.41609e-07
-1.15312e-06
1.23089e-07
7.8171e-07
-4.76431e-07
1.14665e-06
0.00114535
7.20689e-07
-0.00114514
3.5995e-07
-1.44693e-06
1.76456e-07
-4.44463e-07
-1.15547e-06
1.23183e-07
-4.76406e-07
7.84337e-07
-0.000273997
1.39093e-07
1.42026e-07
1.49232e-06
1.45241e-06
-4.11392e-07
-4.169e-07
0.000274006
-1.20038e-06
-1.16038e-06
0.000275907
-0.000273845
1.46979e-07
1.52367e-07
3.59042e-07
0.00114499
-4.47257e-07
1.19638e-06
1.83537e-07
7.88832e-07
-4.73273e-07
-1.15478e-06
1.24737e-07
-1.48962e-06
7.1509e-07
3.58737e-07
0.00114506
-4.47196e-07
1.19379e-06
1.83557e-07
7.88806e-07
-4.70464e-07
-1.15456e-06
1.21795e-07
0.00114552
6.98011e-07
-0.00114536
3.51115e-07
-1.48333e-06
1.87883e-07
-4.39025e-07
-1.14282e-06
1.30581e-07
-4.63008e-07
7.94121e-07
1.19776e-06
0.00114559
6.9807e-07
-0.00114543
3.50816e-07
-1.48065e-06
1.87914e-07
-4.39022e-07
-1.1426e-06
1.27663e-07
-4.60204e-07
7.94105e-07
-4.11732e-07
-4.13846e-07
0.000273987
-1.16011e-06
0.000275888
-0.000273826
1.47033e-07
1.49588e-07
3.57834e-07
0.001146
-4.41785e-07
1.15631e-06
1.77938e-07
7.88881e-07
-4.73141e-07
-1.15451e-06
1.24995e-07
-1.48422e-06
7.14694e-07
3.58839e-07
0.00114494
-4.47269e-07
1.18824e-06
1.83556e-07
7.88952e-07
-4.70334e-07
-1.1544e-06
1.21927e-07
0.00114653
6.98445e-07
-0.00114636
3.49784e-07
-1.44339e-06
1.82338e-07
-4.33513e-07
-1.14258e-06
1.30827e-07
-4.62918e-07
7.94161e-07
1.19222e-06
0.00114548
6.97607e-07
-0.00114531
3.5114e-07
-1.47526e-06
1.87932e-07
-4.39057e-07
-1.14248e-06
1.27806e-07
-4.60117e-07
7.94236e-07
7.13999e-07
3.58662e-07
0.00114456
-4.44196e-07
1.18538e-06
1.80796e-07
7.80769e-07
-4.674e-07
1.1905e-07
-1.14602e-06
6.98128e-07
-0.00114591
3.55592e-07
-1.44321e-06
1.82257e-07
-4.33443e-07
-1.13712e-06
1.30699e-07
7.88724e-07
-4.62773e-07
1.18938e-06
0.00114509
6.97034e-07
-0.00114493
3.50783e-07
-1.47208e-06
1.85155e-07
-4.36024e-07
-1.1341e-06
1.24913e-07
-4.57169e-07
7.86045e-07
-4.11762e-07
-4.16578e-07
0.000273973
-1.1574e-06
0.000275862
-0.000273812
1.47089e-07
1.5228e-07
7.15112e-07
3.57541e-07
0.00114555
-4.41667e-07
1.14796e-06
1.77927e-07
7.86087e-07
-4.72977e-07
1.2511e-07
-1.15146e-06
6.98269e-07
-0.00114578
3.50053e-07
-1.44043e-06
1.79459e-07
-4.30577e-07
-1.13724e-06
1.30786e-07
7.88703e-07
-4.62851e-07
1.15203e-06
0.00114609
6.98233e-07
-0.00114592
3.4957e-07
-1.43495e-06
1.8235e-07
-4.33473e-07
-1.13958e-06
1.30851e-07
-4.62755e-07
7.9133e-07
-0.000273786
1.46966e-07
1.49747e-07
1.4803e-06
1.44036e-06
-3.98469e-07
-4.04017e-07
0.000273788
-1.20564e-06
-1.1657e-06
0.000275667
-0.00027361
1.54439e-07
1.59771e-07
3.48376e-07
0.00114568
-4.36283e-07
1.20172e-06
1.89341e-07
7.95875e-07
-4.59672e-07
-1.13887e-06
1.32505e-07
-1.47761e-06
6.92284e-07
3.4802e-07
0.00114575
-4.36248e-07
1.19912e-06
1.89406e-07
7.95845e-07
-4.56861e-07
-1.13866e-06
1.29599e-07
0.00114608
6.74763e-07
-0.00114596
3.39868e-07
-1.47111e-06
1.9365e-07
-4.28147e-07
-1.12715e-06
1.38248e-07
-4.4968e-07
8.01105e-07
1.20306e-06
0.00114615
6.74805e-07
-0.00114603
3.39599e-07
-1.46845e-06
1.9368e-07
-4.28116e-07
-1.12697e-06
1.35382e-07
-4.46867e-07
8.0105e-07
-3.98786e-07
-4.00975e-07
0.00027377
-1.16546e-06
0.000275649
-0.000273592
1.54506e-07
1.5699e-07
3.47101e-07
0.00114669
-4.30771e-07
1.16171e-06
1.83812e-07
7.95887e-07
-4.5956e-07
-1.13865e-06
1.32731e-07
-1.47222e-06
6.91865e-07
3.48478e-07
0.00114563
-4.36337e-07
1.19354e-06
1.8937e-07
7.95952e-07
-4.56756e-07
-1.13853e-06
1.29712e-07
0.00114709
6.75293e-07
-0.00114696
3.38538e-07
-1.43115e-06
1.88176e-07
-4.22595e-07
-1.12698e-06
1.38481e-07
-4.49613e-07
8.0109e-07
1.19755e-06
0.00114603
6.74362e-07
-0.00114591
3.40027e-07
-1.46303e-06
1.93671e-07
-4.2823e-07
-1.12687e-06
1.35488e-07
-4.46792e-07
8.01157e-07
6.91308e-07
3.48101e-07
0.00114525
-4.33259e-07
1.19068e-06
1.8662e-07
7.87802e-07
-4.53828e-07
1.26857e-07
-1.13017e-06
6.74944e-07
-0.00114652
3.44202e-07
-1.43097e-06
1.88082e-07
-4.22512e-07
-1.12151e-06
1.38331e-07
7.95754e-07
-4.49494e-07
1.19465e-06
0.00114565
6.73857e-07
-0.00114553
3.39727e-07
-1.45994e-06
1.90906e-07
-4.25137e-07
-1.1185e-06
1.3262e-07
-4.43857e-07
7.92965e-07
-3.9881e-07
-4.03749e-07
0.000273755
-1.16281e-06
0.000275623
-0.000273577
1.54583e-07
1.59739e-07
6.9252e-07
3.46868e-07
0.00114624
-4.30676e-07
1.15335e-06
1.8383e-07
7.9309e-07
-4.59439e-07
1.32794e-07
-1.13564e-06
6.75208e-07
-0.00114638
3.38714e-07
-1.42817e-06
1.85279e-07
-4.19698e-07
-1.12165e-06
1.38401e-07
7.95655e-07
-4.49575e-07
1.15737e-06
0.00114664
6.75133e-07
-0.00114652
3.38324e-07
-1.42276e-06
1.88164e-07
-4.22538e-07
-1.12387e-06
1.38527e-07
-4.49468e-07
7.98249e-07
-0.000273551
1.54415e-07
1.57165e-07
1.46804e-06
1.42807e-06
-3.85886e-07
-3.9145e-07
0.000273549
-1.21092e-06
-1.17103e-06
0.000275412
-0.000273359
1.61556e-07
1.66837e-07
3.36998e-07
0.00114619
-4.25467e-07
1.20697e-06
1.95063e-07
8.02784e-07
-4.46442e-07
-1.12333e-06
1.40131e-07
-1.46538e-06
6.68842e-07
3.36703e-07
0.00114626
-4.25441e-07
1.20439e-06
1.95115e-07
8.0271e-07
-4.43601e-07
-1.12302e-06
1.37289e-07
0.00114647
6.50954e-07
-0.00114638
3.28159e-07
-1.45876e-06
1.99307e-07
-4.17538e-07
-1.112e-06
1.45804e-07
-4.36695e-07
8.07719e-07
1.20836e-06
0.00114654
6.5084e-07
-0.00114646
3.27856e-07
-1.45607e-06
1.99312e-07
-4.17518e-07
-1.11182e-06
1.42968e-07
-4.33861e-07
8.07731e-07
-3.86182e-07
-3.88446e-07
0.00027353
-1.17082e-06
0.000275393
-0.00027334
1.6163e-07
1.64092e-07
3.35658e-07
0.0011472
-4.19909e-07
1.16704e-06
1.89608e-07
8.02748e-07
-4.46359e-07
-1.12316e-06
1.40319e-07
-1.45996e-06
6.68397e-07
3.37205e-07
0.00114614
-4.25537e-07
1.19884e-06
1.95099e-07
8.02866e-07
-4.43522e-07
-1.12303e-06
1.37345e-07
0.00114748
6.51442e-07
-0.0011474
3.26567e-07
-1.41878e-06
1.93867e-07
-4.11951e-07
-1.11182e-06
1.45978e-07
-4.3668e-07
8.07852e-07
1.20281e-06
0.00114642
6.50519e-07
-0.00114634
3.28247e-07
-1.45069e-06
1.99334e-07
-4.17599e-07
-1.11165e-06
1.43032e-07
-4.33842e-07
8.07859e-07
6.67911e-07
3.36904e-07
0.00114576
-4.22488e-07
1.19597e-06
1.92327e-07
7.94667e-07
-4.40614e-07
1.34512e-07
-1.1147e-06
6.51272e-07
-0.00114695
3.32397e-07
-1.41858e-06
1.93741e-07
-4.11849e-07
-1.10643e-06
1.45845e-07
8.02331e-07
-4.36523e-07
1.19989e-06
0.00114604
6.50015e-07
-0.00114595
3.27996e-07
-1.44761e-06
1.96527e-07
-4.14565e-07
-1.10331e-06
1.40183e-07
-4.30901e-07
7.9965e-07
-3.86245e-07
-3.91174e-07
0.000273515
-1.16815e-06
0.000275367
-0.000273325
1.61747e-07
1.66767e-07
6.69181e-07
3.35486e-07
0.00114676
-4.19819e-07
1.15871e-06
1.89616e-07
7.99862e-07
-4.46189e-07
1.40417e-07
-1.12007e-06
6.51507e-07
-0.00114681
3.26795e-07
-1.4158e-06
1.90974e-07
-4.09053e-07
-1.10643e-06
1.45881e-07
8.0236e-07
-4.36674e-07
1.16271e-06
0.00114703
6.51389e-07
-0.00114695
3.26481e-07
-1.41038e-06
1.93858e-07
-4.11902e-07
-1.10876e-06
1.46021e-07
-4.36574e-07
8.04996e-07
-0.0002733
1.61524e-07
1.64241e-07
1.45566e-06
1.41571e-06
-3.73722e-07
-3.79283e-07
0.000273294
-1.21613e-06
-1.17626e-06
0.000275147
-0.000273096
1.68291e-07
1.73595e-07
3.25078e-07
0.00114654
-4.14921e-07
1.21224e-06
2.00711e-07
8.09412e-07
-4.33512e-07
-1.10828e-06
1.47672e-07
-1.45299e-06
6.44709e-07
3.24773e-07
0.00114661
-4.14888e-07
1.20965e-06
2.00723e-07
8.09403e-07
-4.30719e-07
-1.10794e-06
1.44815e-07
0.0011467
6.26431e-07
-0.00114666
3.21153e-07
-1.44642e-06