/*--------------------------------*- C++ -*----------------------------------*\
| =========                 |                                                 |
| \\      /  F ield         | OpenFOAM: The Open Source CFD Toolbox           |
|  \\    /   O peration     | Version:  2312                                  |
|   \\  /    A nd           | Website:  www.openfoam.com                      |
|    \\/     M anipulation  |                                                 |
\*---------------------------------------------------------------------------*/
FoamFile
{
    version     2.0;
    format      ascii;
    arch        "LSB;label=32;scalar=64";
    class       volVectorField;
    location    "750";
    object      U;
}
// * * * * * * * * * * * * * * * * * * * * * * * * * * * * * * * * * * * * * //

dimensions      [0 1 -1 0 0 0 0];

internalField   nonuniform List<vector> 
42840
(
(5.97953e-05 5.97849e-05 0.109207)
(-8.96683e-05 5.57679e-05 0.108145)
(5.57522e-05 -8.96912e-05 0.108144)
(-0.000142288 -0.000142295 0.106657)
(5.8543e-05 5.8538e-05 0.109495)
(-8.74061e-05 5.45612e-05 0.108304)
(5.45298e-05 -8.74093e-05 0.108303)
(-0.000137993 -0.000137983 0.106656)
(5.73004e-05 5.73053e-05 0.109774)
(-8.50066e-05 5.33207e-05 0.108444)
(5.32834e-05 -8.50088e-05 0.108444)
(-0.000133342 -0.000133331 0.106632)
(5.5993e-05 5.60022e-05 0.110044)
(-8.24641e-05 5.20171e-05 0.108566)
(5.19706e-05 -8.24492e-05 0.108565)
(-0.000128488 -0.000128465 0.106589)
(5.46378e-05 5.4645e-05 0.110303)
(-7.97945e-05 5.06052e-05 0.108669)
(5.0551e-05 -7.97754e-05 0.108669)
(-0.000123412 -0.000123416 0.106528)
(5.32236e-05 5.32255e-05 0.110553)
(-7.69636e-05 4.90532e-05 0.108754)
(4.90182e-05 -7.69518e-05 0.108754)
(-0.000118195 -0.000118201 0.106454)
(5.17929e-05 5.1784e-05 0.110792)
(-7.40011e-05 4.73337e-05 0.108822)
(4.73013e-05 -7.39996e-05 0.108821)
(-0.000112875 -0.000112911 0.106368)
(5.03386e-05 5.03192e-05 0.111021)
(-7.09144e-05 4.55228e-05 0.108872)
(4.54854e-05 -7.0917e-05 0.108872)
(-0.000107582 -0.000107633 0.106274)
(4.8859e-05 4.88401e-05 0.111239)
(-6.77278e-05 4.3597e-05 0.108908)
(4.35667e-05 -6.77433e-05 0.108907)
(-0.000102372 -0.000102443 0.106175)
(4.7377e-05 4.73471e-05 0.111445)
(-6.44776e-05 4.15836e-05 0.108928)
(4.15435e-05 -6.44893e-05 0.108927)
(-9.72621e-05 -9.73254e-05 0.106073)
(4.5892e-05 4.58614e-05 0.11164)
(-6.11953e-05 3.9498e-05 0.108935)
(3.9461e-05 -6.11989e-05 0.108934)
(-9.23775e-05 -9.24182e-05 0.105969)
(4.44151e-05 4.43954e-05 0.111823)
(-5.79028e-05 3.73423e-05 0.10893)
(3.73068e-05 -5.78904e-05 0.108929)
(-8.7629e-05 -8.76324e-05 0.105865)
(4.29502e-05 4.29389e-05 0.111993)
(-5.46169e-05 3.51289e-05 0.108915)
(3.50953e-05 -5.45887e-05 0.108914)
(-8.31608e-05 -8.31463e-05 0.105763)
(4.14894e-05 4.14849e-05 0.112152)
(-5.13536e-05 3.28847e-05 0.10889)
(3.28467e-05 -5.13168e-05 0.108889)
(-7.89192e-05 -7.88848e-05 0.105663)
(4.00359e-05 4.00368e-05 0.112299)
(-4.81216e-05 3.06311e-05 0.108857)
(3.05986e-05 -4.80792e-05 0.108856)
(-7.48679e-05 -7.48303e-05 0.105565)
(3.85632e-05 3.85709e-05 0.112433)
(-4.49295e-05 2.83859e-05 0.108817)
(2.8362e-05 -4.48983e-05 0.108816)
(-7.10469e-05 -7.10236e-05 0.105471)
(3.70713e-05 3.70839e-05 0.112554)
(-4.18101e-05 2.61838e-05 0.108772)
(2.61569e-05 -4.17783e-05 0.108771)
(-6.74397e-05 -6.74359e-05 0.10538)
(3.55598e-05 3.55678e-05 0.112664)
(-3.87399e-05 2.4018e-05 0.108722)
(2.39982e-05 -3.8726e-05 0.108721)
(-6.40963e-05 -6.41096e-05 0.105293)
(3.40205e-05 3.4032e-05 0.112761)
(-3.57456e-05 2.19287e-05 0.108669)
(2.19018e-05 -3.57375e-05 0.108668)
(-6.09119e-05 -6.09332e-05 0.10521)
(3.24489e-05 3.24517e-05 0.112847)
(-3.28146e-05 1.99136e-05 0.108613)
(1.98872e-05 -3.28181e-05 0.108612)
(-5.79793e-05 -5.80078e-05 0.10513)
(3.08392e-05 3.08409e-05 0.112922)
(-2.9971e-05 1.79769e-05 0.108556)
(1.79635e-05 -2.99797e-05 0.108555)
(-5.5212e-05 -5.52412e-05 0.105054)
(2.92006e-05 2.91992e-05 0.112985)
(-2.72135e-05 1.61411e-05 0.108498)
(1.61353e-05 -2.7222e-05 0.108497)
(-5.26514e-05 -5.26739e-05 0.104982)
(2.75294e-05 2.75238e-05 0.113038)
(-2.4545e-05 1.44143e-05 0.10844)
(1.44036e-05 -2.45512e-05 0.108439)
(-5.02427e-05 -5.02637e-05 0.104913)
(2.58128e-05 2.58043e-05 0.113081)
(-2.19759e-05 1.27819e-05 0.108382)
(1.27783e-05 -2.1977e-05 0.108381)
(-4.80194e-05 -4.80339e-05 0.104848)
(2.40696e-05 2.4064e-05 0.113115)
(-1.95044e-05 1.12574e-05 0.108325)
(1.12535e-05 -1.95137e-05 0.108324)
(-4.59356e-05 -4.5958e-05 0.104787)
(0.00014229 0.000142253 0.106657)
(4.34447e-06 4.39656e-06 0.106843)
(5.59604e-05 8.97464e-05 0.108144)
(-5.6013e-05 8.97135e-05 0.108144)
(5.50379e-05 8.80481e-05 0.108265)
(-5.5095e-05 8.8017e-05 0.108265)
(-0.00014233 0.000142233 0.106657)
(-4.37232e-06 4.38678e-06 0.106843)
(8.97273e-05 5.58477e-05 0.108144)
(8.97002e-05 -5.59468e-05 0.108143)
(8.80154e-05 5.49242e-05 0.108265)
(8.80004e-05 -5.50275e-05 0.108265)
(-8.953e-05 -5.58831e-05 0.108144)
(-8.7978e-05 5.4875e-05 0.108266)
(-8.78356e-05 -5.49627e-05 0.108265)
(0.000142255 -0.000142298 0.106657)
(4.37484e-06 -4.27431e-06 0.106842)
(-5.57949e-05 -8.97396e-05 0.108144)
(5.48404e-05 -8.79843e-05 0.108265)
(-5.4878e-05 -8.80348e-05 0.108265)
(-4.40504e-06 -4.3183e-06 0.106841)
(0.000137993 0.000137966 0.106656)
(1.79795e-06 1.85373e-06 0.106831)
(5.47194e-05 8.74725e-05 0.108303)
(-5.47737e-05 8.74458e-05 0.108303)
(5.37781e-05 8.57182e-05 0.10841)
(-5.38089e-05 8.56812e-05 0.10841)
(-0.00013802 0.000137972 0.106656)
(-1.77621e-06 1.85011e-06 0.106831)
(8.74364e-05 5.46033e-05 0.108303)
(8.74213e-05 -5.47132e-05 0.108302)
(8.56693e-05 5.36616e-05 0.10841)
(8.56471e-05 -5.37711e-05 0.108409)
(-8.72651e-05 -5.46485e-05 0.108303)
(-8.56214e-05 5.36382e-05 0.108411)
(-8.54849e-05 -5.36849e-05 0.10841)
(0.000137975 -0.000138028 0.106656)
(1.88579e-06 -1.72542e-06 0.106831)
(-5.45708e-05 -8.74575e-05 0.108303)
(5.35948e-05 -8.56211e-05 0.108411)
(-5.36098e-05 -8.56597e-05 0.10841)
(-1.84563e-06 -1.75949e-06 0.10683)
(0.00013336 0.000133342 0.106632)
(-6.73584e-07 -6.21055e-07 0.106798)
(5.34617e-05 8.51071e-05 0.108443)
(-5.34875e-05 8.50746e-05 0.108443)
(5.24852e-05 8.32103e-05 0.108536)
(-5.24927e-05 8.31811e-05 0.108536)
(-0.000133358 0.000133372 0.106633)
(7.02251e-07 -6.05026e-07 0.106798)
(8.50551e-05 5.33477e-05 0.108444)
(8.50371e-05 -5.34567e-05 0.108443)
(8.31476e-05 5.23717e-05 0.108537)
(8.31335e-05 -5.24711e-05 0.108536)
(-8.48751e-05 -5.33672e-05 0.108443)
(-8.31055e-05 5.23577e-05 0.108537)
(-8.29824e-05 -5.23687e-05 0.108536)
(0.000133394 -0.000133387 0.106633)
(-5.95285e-07 7.4405e-07 0.106797)
(-5.3296e-05 -8.50474e-05 0.108443)
(5.23061e-05 -8.30955e-05 0.108537)
(-5.2315e-05 -8.31246e-05 0.108536)
(6.3323e-07 7.26463e-07 0.106796)
(0.00012851 0.000128498 0.106589)
(-3.14466e-06 -3.10059e-06 0.106746)
(5.21436e-05 8.25659e-05 0.108565)
(-5.21511e-05 8.2536e-05 0.108564)
(5.10881e-05 8.05805e-05 0.108644)
(-5.10832e-05 8.05498e-05 0.108643)
(-0.000128484 0.000128523 0.106589)
(3.19174e-06 -3.08017e-06 0.106745)
(8.25021e-05 5.20328e-05 0.108565)
(8.24786e-05 -5.2134e-05 0.108564)
(8.05068e-05 5.09804e-05 0.108644)
(8.0478e-05 -5.10735e-05 0.108643)
(-8.23423e-05 -5.20321e-05 0.108564)
(-8.04766e-05 5.0976e-05 0.108645)
(-8.03599e-05 -5.09732e-05 0.108643)
(0.000128545 -0.000128534 0.106589)
(-3.08563e-06 3.22238e-06 0.106745)
(-5.19814e-05 -8.24679e-05 0.108565)
(5.09105e-05 -8.04524e-05 0.108645)
(-5.09228e-05 -8.04594e-05 0.108644)
(3.13719e-06 3.19996e-06 0.106744)
(0.000123441 0.000123421 0.106528)
(-5.7067e-06 -5.64836e-06 0.106677)
(5.07273e-05 7.98967e-05 0.108668)
(-5.07158e-05 7.98649e-05 0.108667)
(4.95903e-05 7.77836e-05 0.108733)
(-4.95768e-05 7.77466e-05 0.108733)
(-0.000123411 0.000123463 0.106529)
(5.7113e-06 -5.59439e-06 0.106677)
(7.98232e-05 5.06186e-05 0.108669)
(7.97954e-05 -5.07115e-05 0.108667)
(7.77091e-05 4.94733e-05 0.108734)
(7.76773e-05 -4.95868e-05 0.108733)
(-7.96787e-05 -5.06128e-05 0.108667)
(-7.76835e-05 4.94687e-05 0.108734)
(-7.75684e-05 -4.94817e-05 0.108733)
(0.000123467 -0.000123463 0.106528)
(-5.618e-06 5.73732e-06 0.106676)
(-5.0565e-05 -7.97761e-05 0.108668)
(4.942e-05 -7.76646e-05 0.108734)
(-4.94224e-05 -7.76649e-05 0.108733)
(5.64864e-06 5.71104e-06 0.106675)
(0.000118231 0.000118211 0.106454)
(-8.25048e-06 -8.22444e-06 0.106596)
(4.91813e-05 7.70599e-05 0.108753)
(-4.91713e-05 7.70238e-05 0.108752)
(4.79199e-05 7.48367e-05 0.108805)
(-4.79028e-05 7.47983e-05 0.108804)
(-0.0001182 0.000118247 0.106454)
(8.25974e-06 -8.18148e-06 0.106596)
(7.69869e-05 4.90576e-05 0.108753)
(7.69507e-05 -4.91928e-05 0.108752)
(7.47736e-05 4.77831e-05 0.108806)
(7.47329e-05 -4.79235e-05 0.108804)
(-7.68487e-05 -4.90776e-05 0.108752)
(-7.47519e-05 4.77767e-05 0.108806)
(-7.46374e-05 -4.78172e-05 0.108804)
(0.000118239 -0.000118264 0.106454)
(-8.18094e-06 8.26267e-06 0.106595)
(-4.90165e-05 -7.69474e-05 0.108753)
(4.774e-05 -7.47445e-05 0.108806)
(-4.77423e-05 -7.47413e-05 0.108805)
(8.23299e-06 8.25824e-06 0.106594)
(0.000112921 0.000112883 0.106368)
(-1.07443e-05 -1.07403e-05 0.106505)
(4.748e-05 7.40807e-05 0.10882)
(-4.7454e-05 7.40405e-05 0.10882)
(4.6134e-05 7.17647e-05 0.10886)
(-4.61153e-05 7.17266e-05 0.108859)
(-0.000112888 0.000112904 0.106369)
(1.07622e-05 -1.07114e-05 0.106505)
(7.40212e-05 4.73483e-05 0.108821)
(7.39805e-05 -4.74914e-05 0.108819)
(7.17127e-05 4.59923e-05 0.108861)
(7.16687e-05 -4.61521e-05 0.108859)
(-7.38807e-05 -4.73828e-05 0.10882)
(-7.16936e-05 4.59911e-05 0.108861)
(-7.15776e-05 -4.60438e-05 0.108859)
(0.000112916 -0.000112962 0.106368)
(-1.07395e-05 1.07996e-05 0.106505)
(-4.73164e-05 -7.39886e-05 0.10882)
(4.59528e-05 -7.16912e-05 0.108861)
(-4.5962e-05 -7.16812e-05 0.10886)
(1.07569e-05 1.07625e-05 0.106504)
(0.000107638 0.000107585 0.106275)
(-1.32144e-05 -1.32213e-05 0.106408)
(4.56679e-05 7.09795e-05 0.108871)
(-4.56531e-05 7.09383e-05 0.10887)
(4.42457e-05 6.85953e-05 0.108899)
(-4.42275e-05 6.8549e-05 0.108898)
(-0.000107616 0.000107608 0.106275)
(1.32576e-05 -1.32145e-05 0.106407)
(7.09328e-05 4.5533e-05 0.108872)
(7.0886e-05 -4.56881e-05 0.10887)
(6.85553e-05 4.4088e-05 0.1089)
(6.85045e-05 -4.42568e-05 0.108898)
(-7.07958e-05 -4.55865e-05 0.10887)
(-6.85302e-05 4.40946e-05 0.1089)
(-6.84138e-05 -4.41647e-05 0.108898)
(0.000107607 -0.000107664 0.106274)
(-1.32333e-05 1.32561e-05 0.106407)
(-4.55016e-05 -7.08991e-05 0.108871)
(4.40538e-05 -6.85474e-05 0.1089)
(-4.40597e-05 -6.85323e-05 0.108899)
(1.32408e-05 1.32215e-05 0.106406)
(0.000102414 0.00010236 0.106175)
(-1.56378e-05 -1.56455e-05 0.106305)
(4.37487e-05 6.77847e-05 0.108906)
(-4.37385e-05 6.77444e-05 0.108905)
(4.22461e-05 6.5345e-05 0.108922)
(-4.22465e-05 6.53076e-05 0.108922)
(-0.000102388 0.000102371 0.106176)
(1.56565e-05 -1.56415e-05 0.106305)
(6.77537e-05 4.36033e-05 0.108907)
(6.7692e-05 -4.37675e-05 0.108905)
(6.53129e-05 4.20993e-05 0.108924)
(6.52633e-05 -4.22576e-05 0.108922)
(-6.76123e-05 -4.36758e-05 0.108905)
(-6.52902e-05 4.20992e-05 0.108924)
(-6.51781e-05 -4.21749e-05 0.108922)
(0.000102382 -0.000102462 0.106175)
(-1.56667e-05 1.5677e-05 0.106304)
(-4.35682e-05 -6.77291e-05 0.108906)
(4.20515e-05 -6.53084e-05 0.108924)
(-4.20703e-05 -6.52995e-05 0.108923)
(1.56977e-05 1.56772e-05 0.106304)
(9.73288e-05 9.72724e-05 0.106073)
(-1.80139e-05 -1.80218e-05 0.106201)
(4.17363e-05 6.45278e-05 0.108926)
(-4.17359e-05 6.44833e-05 0.108926)
(4.01733e-05 6.20589e-05 0.108933)
(-4.01791e-05 6.2017e-05 0.108932)
(-9.73256e-05 9.72872e-05 0.106073)
(1.8027e-05 -1.80234e-05 0.106201)
(6.44932e-05 4.15809e-05 0.108927)
(6.4442e-05 -4.1747e-05 0.108925)
(6.20259e-05 4.00315e-05 0.108934)
(6.19789e-05 -4.01862e-05 0.108932)
(-6.43652e-05 -4.16739e-05 0.108926)
(-6.20116e-05 4.0031e-05 0.108934)
(-6.19073e-05 -4.01005e-05 0.108932)
(9.72906e-05 -9.73775e-05 0.106073)
(-1.8029e-05 1.80501e-05 0.1062)
(-4.15766e-05 -6.44839e-05 0.108927)
(3.9992e-05 -6.20224e-05 0.108934)
(-4.00131e-05 -6.20156e-05 0.108933)
(1.80372e-05 1.80357e-05 0.106199)
(9.23965e-05 9.23436e-05 0.105969)
(-2.02691e-05 -2.02621e-05 0.106095)
(3.96424e-05 6.1237e-05 0.108933)
(-3.96472e-05 6.11917e-05 0.108933)
(3.80221e-05 5.87572e-05 0.108931)
(-3.80346e-05 5.87175e-05 0.10893)
(-9.23989e-05 9.23518e-05 0.105969)
(2.02702e-05 -2.02742e-05 0.106095)
(6.12016e-05 3.95012e-05 0.108934)
(6.11558e-05 -3.96549e-05 0.108932)
(5.87234e-05 3.78954e-05 0.108932)
(5.86866e-05 -3.80356e-05 0.10893)
(-6.10859e-05 -3.95656e-05 0.108933)
(-5.87179e-05 3.78948e-05 0.108932)
(-5.8616e-05 -3.79477e-05 0.10893)
(9.23825e-05 -9.2459e-05 0.105969)
(-2.02824e-05 2.03109e-05 0.106095)
(-3.94838e-05 -6.11894e-05 0.108934)
(3.78541e-05 -5.8716e-05 0.108932)
(-3.7882e-05 -5.87062e-05 0.108931)
(2.02729e-05 2.0306e-05 0.106094)
(8.76711e-05 8.76345e-05 0.105865)
(-2.23676e-05 -2.23507e-05 0.105991)
(3.74758e-05 5.79336e-05 0.108928)
(-3.74899e-05 5.78941e-05 0.108928)
(3.58081e-05 5.54683e-05 0.108918)
(-3.58269e-05 5.5423e-05 0.108917)
(-8.76871e-05 8.76343e-05 0.105866)
(2.23605e-05 -2.23615e-05 0.105991)
(5.79004e-05 3.73529e-05 0.10893)
(5.7862e-05 -3.74811e-05 0.108927)
(5.54288e-05 3.5703e-05 0.108919)
(5.53968e-05 -3.58157e-05 0.108917)
(-5.77965e-05 -3.7389e-05 0.108928)
(-5.54303e-05 3.56949e-05 0.108919)
(-5.53427e-05 -3.57264e-05 0.108917)
(8.76676e-05 -8.7731e-05 0.105865)
(-2.23839e-05 2.2423e-05 0.10599)
(-3.73379e-05 -5.78839e-05 0.108929)
(3.5652e-05 -5.54139e-05 0.108919)
(-3.56919e-05 -5.54118e-05 0.108918)
(2.23354e-05 2.23861e-05 0.105989)
(8.3173e-05 8.31515e-05 0.105763)
(-2.4347e-05 -2.43211e-05 0.105888)
(3.52454e-05 5.46494e-05 0.108913)
(-3.52635e-05 5.46025e-05 0.108912)
(3.35633e-05 5.22015e-05 0.108895)
(-3.35835e-05 5.21564e-05 0.108894)
(-8.3189e-05 8.31406e-05 0.105763)
(2.43312e-05 -2.43349e-05 0.105888)
(5.46075e-05 3.51432e-05 0.108914)
(5.45717e-05 -3.52509e-05 0.108912)
(5.21583e-05 3.34745e-05 0.108896)
(5.21205e-05 -3.35527e-05 0.108894)
(-5.4523e-05 -3.51598e-05 0.108912)
(-5.21599e-05 3.34524e-05 0.108897)
(-5.20785e-05 -3.34667e-05 0.108894)
(8.31629e-05 -8.32142e-05 0.105763)
(-2.43388e-05 2.43839e-05 0.105887)
(-3.51338e-05 -5.45891e-05 0.108913)
(3.34118e-05 -5.21308e-05 0.108896)
(-3.3447e-05 -5.21291e-05 0.108895)
(2.4289e-05 2.43613e-05 0.105886)
(7.88654e-05 7.8852e-05 0.105663)
(-2.61794e-05 -2.61494e-05 0.105787)
(3.29924e-05 5.13908e-05 0.108888)
(-3.30148e-05 5.13454e-05 0.108887)
(3.12994e-05 4.89611e-05 0.108863)
(-3.13088e-05 4.89159e-05 0.108863)
(-7.892e-05 7.88721e-05 0.105663)
(2.6165e-05 -2.61593e-05 0.105787)
(5.13488e-05 3.29087e-05 0.108889)
(5.13088e-05 -3.29873e-05 0.108887)
(4.89216e-05 3.12205e-05 0.108865)
(4.88794e-05 -3.12822e-05 0.108862)
(-5.12674e-05 -3.29007e-05 0.108887)
(-4.89358e-05 3.12016e-05 0.108865)
(-4.88465e-05 -3.12077e-05 0.108863)
(7.88982e-05 -7.89441e-05 0.105663)
(-2.61773e-05 2.6231e-05 0.105786)
(-3.2886e-05 -5.13131e-05 0.108888)
(3.11617e-05 -4.88843e-05 0.108865)
(-3.12042e-05 -4.88838e-05 0.108864)
(2.61614e-05 2.6236e-05 0.105785)
(7.48347e-05 7.48268e-05 0.105565)
(-2.78439e-05 -2.78111e-05 0.105689)
(3.07323e-05 4.81615e-05 0.108855)
(-3.07409e-05 4.81168e-05 0.108854)
(2.90435e-05 4.57675e-05 0.108825)
(-2.90572e-05 4.57253e-05 0.108825)
(-7.48989e-05 7.48589e-05 0.105566)
(2.78633e-05 -2.78538e-05 0.105689)
(4.81201e-05 3.06561e-05 0.108856)
(4.80782e-05 -3.0717e-05 0.108854)
(4.57272e-05 2.89761e-05 0.108827)
(4.56883e-05 -2.90313e-05 0.108824)
(-4.80437e-05 -3.06405e-05 0.108854)
(-4.57409e-05 2.89535e-05 0.108827)
(-4.56505e-05 -2.89642e-05 0.108825)
(7.48233e-05 -7.48562e-05 0.105565)
(-2.78689e-05 2.79141e-05 0.105688)
(-3.06398e-05 -4.80793e-05 0.108855)
(2.89214e-05 -4.56884e-05 0.108827)
(-2.89616e-05 -4.56862e-05 0.108826)
(2.78367e-05 2.78944e-05 0.105687)
(7.10723e-05 7.10684e-05 0.105471)
(-2.9417e-05 -2.93868e-05 0.105594)
(2.84844e-05 4.49763e-05 0.108815)
(-2.84893e-05 4.49318e-05 0.108814)
(2.68225e-05 4.26256e-05 0.108781)
(-2.68307e-05 4.25842e-05 0.108781)
(-7.10587e-05 7.10236e-05 0.105471)
(2.93994e-05 -2.93818e-05 0.105594)
(4.49342e-05 2.84198e-05 0.108816)
(4.48976e-05 -2.8466e-05 0.108814)
(4.25846e-05 2.67679e-05 0.108783)
(4.25444e-05 -2.68085e-05 0.10878)
(-4.48586e-05 -2.8403e-05 0.108814)
(-4.25963e-05 2.67263e-05 0.108783)
(-4.25125e-05 -2.67445e-05 0.10878)
(7.10087e-05 -7.10494e-05 0.105471)
(-2.943e-05 2.9467e-05 0.105593)
(-2.84056e-05 -4.48965e-05 0.108815)
(2.67049e-05 -4.25497e-05 0.108783)
(-2.67346e-05 -4.25485e-05 0.108782)
(2.93826e-05 2.94198e-05 0.105592)
(6.74161e-05 6.74081e-05 0.10538)
(-3.08468e-05 -3.08307e-05 0.105502)
(2.62787e-05 4.18568e-05 0.108769)
(-2.62832e-05 4.18101e-05 0.108769)
(2.46511e-05 3.95385e-05 0.108732)
(-2.46499e-05 3.94995e-05 0.108732)
(-6.74329e-05 6.73981e-05 0.10538)
(3.08395e-05 -3.08234e-05 0.105502)
(4.18085e-05 2.62176e-05 0.108771)
(4.17702e-05 -2.62608e-05 0.108768)
(3.94988e-05 2.45874e-05 0.108734)
(3.94635e-05 -2.46318e-05 0.108731)
(-4.17393e-05 -2.62009e-05 0.108769)
(-3.95047e-05 2.45565e-05 0.108734)
(-3.94323e-05 -2.45918e-05 0.108732)
(6.74379e-05 -6.74853e-05 0.10538)
(-3.08576e-05 3.08789e-05 0.105502)
(-2.61889e-05 -4.17793e-05 0.10877)
(2.45361e-05 -3.94818e-05 0.108734)
(-2.45632e-05 -3.94756e-05 0.108733)
(3.08133e-05 3.08311e-05 0.105501)
(6.40966e-05 6.40807e-05 0.105293)
(-3.21551e-05 -3.21498e-05 0.105414)
(2.41116e-05 3.87761e-05 0.10872)
(-2.4117e-05 3.87429e-05 0.108719)
(2.25382e-05 3.65252e-05 0.10868)
(-2.25357e-05 3.64865e-05 0.108679)
(-6.41103e-05 6.40659e-05 0.105293)
(3.21553e-05 -3.21643e-05 0.105415)
(3.8734e-05 2.40484e-05 0.108721)
(3.87032e-05 -2.41033e-05 0.108719)
(3.64857e-05 2.24701e-05 0.108682)
(3.64491e-05 -2.2531e-05 0.108679)
(-3.86688e-05 -2.40602e-05 0.108719)
(-3.64881e-05 2.24384e-05 0.108682)
(-3.64126e-05 -2.24963e-05 0.108679)
(6.40702e-05 -6.41307e-05 0.105293)
(-3.21792e-05 3.21898e-05 0.105414)
(-2.40268e-05 -3.87145e-05 0.10872)
(2.24219e-05 -3.64769e-05 0.108682)
(-2.24472e-05 -3.64604e-05 0.108681)
(3.21263e-05 3.21319e-05 0.105413)
(6.09201e-05 6.09106e-05 0.10521)
(-3.33413e-05 -3.33515e-05 0.10533)
(2.20124e-05 3.57837e-05 0.108666)
(-2.20175e-05 3.57555e-05 0.108666)
(2.04995e-05 3.35747e-05 0.108625)
(-2.04936e-05 3.35564e-05 0.108624)
(-6.09551e-05 6.08901e-05 0.10521)
(3.33484e-05 -3.33355e-05 0.105331)
(3.57353e-05 2.19464e-05 0.108668)
(3.57071e-05 -2.20129e-05 0.108665)
(3.35461e-05 2.04285e-05 0.108627)
(3.3514e-05 -2.04864e-05 0.108624)
(-3.56712e-05 -2.19812e-05 0.108666)
(-3.35455e-05 2.04116e-05 0.108627)
(-3.34744e-05 -2.04617e-05 0.108624)
(6.08978e-05 -6.09668e-05 0.10521)
(-3.33599e-05 3.33649e-05 0.10533)
(-2.19282e-05 -3.5722e-05 0.108667)
(2.03823e-05 -3.3541e-05 0.108627)
(-2.04034e-05 -3.35268e-05 0.108626)
(3.33227e-05 3.33189e-05 0.105329)
(5.79809e-05 5.79629e-05 0.10513)
(-3.44158e-05 -3.44283e-05 0.10525)
(2.00045e-05 3.285e-05 0.108611)
(-1.99968e-05 3.28341e-05 0.10861)
(1.85478e-05 3.07068e-05 0.108568)
(-1.85404e-05 3.0705e-05 0.108568)
(-5.80021e-05 5.79579e-05 0.10513)
(3.44119e-05 -3.44055e-05 0.10525)
(3.28212e-05 1.99329e-05 0.108612)
(3.27894e-05 -1.9989e-05 0.10861)
(3.0684e-05 1.84752e-05 0.10857)
(3.06572e-05 -1.85338e-05 0.108567)
(-3.27519e-05 -1.99617e-05 0.10861)
(-3.06784e-05 1.84546e-05 0.10857)
(-3.06181e-05 -1.85111e-05 0.108567)
(5.79528e-05 -5.80243e-05 0.10513)
(-3.44497e-05 3.44552e-05 0.10525)
(-1.99074e-05 -3.28044e-05 0.108612)
(1.84396e-05 -3.06804e-05 0.10857)
(-1.84554e-05 -3.0665e-05 0.108569)
(3.43898e-05 3.43831e-05 0.105249)
(5.52315e-05 5.52156e-05 0.105054)
(-3.53993e-05 -3.54155e-05 0.105173)
(1.80691e-05 3.00041e-05 0.108554)
(-1.80633e-05 3.00027e-05 0.108553)
(1.66777e-05 2.79282e-05 0.10851)
(-1.66824e-05 2.79327e-05 0.10851)
(-5.52485e-05 5.51993e-05 0.105054)
(3.54039e-05 -3.53998e-05 0.105174)
(2.99832e-05 1.79977e-05 0.108555)
(2.99565e-05 -1.80576e-05 0.108553)
(2.79101e-05 1.66074e-05 0.108512)
(2.78913e-05 -1.66746e-05 0.108509)
(-2.99197e-05 -1.80338e-05 0.108553)
(-2.78976e-05 1.65958e-05 0.108513)
(-2.78488e-05 -1.66494e-05 0.10851)
(5.51969e-05 -5.5264e-05 0.105054)
(-3.53994e-05 3.5407e-05 0.105173)
(-1.7985e-05 -2.99636e-05 0.108554)
(1.65832e-05 -2.79046e-05 0.108512)
(-1.65969e-05 -2.78846e-05 0.108511)
(3.5385e-05 3.53816e-05 0.105172)
(5.26885e-05 5.26691e-05 0.104982)
(-3.62775e-05 -3.62955e-05 0.105101)
(1.62322e-05 2.72469e-05 0.108496)
(-1.62314e-05 2.72513e-05 0.108495)
(1.49211e-05 2.52411e-05 0.108452)
(-1.49242e-05 2.52481e-05 0.108451)
(-5.26665e-05 5.26188e-05 0.104982)
(3.62781e-05 -3.62766e-05 0.105101)
(2.72275e-05 1.61637e-05 0.108497)
(2.72077e-05 -1.6224e-05 0.108495)
(2.52236e-05 1.48516e-05 0.108454)
(2.52025e-05 -1.4908e-05 0.108451)
(-2.71698e-05 -1.61953e-05 0.108495)
(-2.52093e-05 1.48399e-05 0.108454)
(-2.51673e-05 -1.48949e-05 0.108451)
(5.2626e-05 -5.26886e-05 0.104982)
(-3.62791e-05 3.62881e-05 0.105101)
(-1.61467e-05 -2.72048e-05 0.108496)
(1.48222e-05 -2.52084e-05 0.108454)
(-1.48423e-05 -2.51939e-05 0.108453)
(3.62864e-05 3.62831e-05 0.1051)
(5.0285e-05 5.02664e-05 0.104913)
(-3.70306e-05 -3.70465e-05 0.105032)
(1.45003e-05 2.4583e-05 0.108437)
(-1.4496e-05 2.45865e-05 0.108437)
(1.32626e-05 2.26487e-05 0.108394)
(-1.32621e-05 2.26532e-05 0.108393)
(-5.02687e-05 5.02225e-05 0.104914)
(3.70708e-05 -3.7062e-05 0.105033)
(2.45653e-05 1.44324e-05 0.108439)
(2.45463e-05 -1.44871e-05 0.108436)
(2.26298e-05 1.31974e-05 0.108396)
(2.26116e-05 -1.3255e-05 0.108393)
(-2.45096e-05 -1.44642e-05 0.108437)
(-2.2611e-05 1.31838e-05 0.108396)
(-2.25768e-05 -1.32303e-05 0.108393)
(5.02507e-05 -5.03102e-05 0.104913)
(-3.70727e-05 3.70841e-05 0.105032)
(-1.44166e-05 -2.4537e-05 0.108438)
(1.31784e-05 -2.26134e-05 0.108395)
(-1.31851e-05 -2.25993e-05 0.108395)
(3.70587e-05 3.70596e-05 0.105031)
(4.80455e-05 4.8029e-05 0.104849)
(-3.77438e-05 -3.77577e-05 0.104967)
(1.28646e-05 2.20136e-05 0.108379)
(-1.28631e-05 2.202e-05 0.108379)
(1.17075e-05 2.01591e-05 0.108336)
(-1.17066e-05 2.01578e-05 0.108336)
(-4.80613e-05 4.80209e-05 0.104849)
(3.77698e-05 -3.77639e-05 0.104967)
(2.1993e-05 1.27974e-05 0.108381)
(2.19771e-05 -1.28528e-05 0.108378)
(2.0138e-05 1.16421e-05 0.108338)
(2.01253e-05 -1.17049e-05 0.108335)
(-2.19449e-05 -1.28348e-05 0.108379)
(-2.01148e-05 1.16368e-05 0.108339)
(-2.01001e-05 -1.1683e-05 0.108336)
(4.80251e-05 -4.80806e-05 0.104849)
(-3.77849e-05 3.7795e-05 0.104967)
(-1.27845e-05 -2.19667e-05 0.10838)
(1.16246e-05 -2.01209e-05 0.108338)
(-1.16371e-05 -2.01152e-05 0.108337)
(3.77519e-05 3.77424e-05 0.104966)
(4.59623e-05 4.59496e-05 0.104788)
(1.13324e-05 1.95492e-05 0.108322)
(-1.13286e-05 1.9548e-05 0.108322)
(-4.59795e-05 4.5937e-05 0.104788)
(1.95283e-05 1.12693e-05 0.108324)
(1.95164e-05 -1.1331e-05 0.108321)
(-1.94897e-05 -1.13085e-05 0.108321)
(4.59304e-05 -4.59857e-05 0.104788)
(-1.12514e-05 -1.95009e-05 0.108323)
(8.25592e-07 6.97608e-06 0.0937516)
(-1.25676e-06 3.06924e-05 0.0833544)
(-3.98861e-06 -6.02779e-06 0.0833637)
(1.49753e-06 5.2844e-05 0.093768)
(-3.48774e-06 1.42432e-05 0.0720084)
(5.43503e-06 -5.74295e-06 0.0720491)
(6.95502e-06 8.97995e-07 0.0937513)
(3.06843e-05 -1.24308e-06 0.0833543)
(-6.04409e-06 -3.97004e-06 0.0833637)
(5.28293e-05 1.58078e-06 0.0937677)
(-5.98392e-05 5.97696e-05 0.109207)
(5.9763e-05 -5.98211e-05 0.109207)
(-5.97926e-05 -5.98238e-05 0.109207)
(5.88531e-05 5.88457e-05 0.109424)
(-5.8898e-05 5.88386e-05 0.109424)
(5.88199e-05 -5.88795e-05 0.109424)
(-5.88505e-05 -5.88784e-05 0.109424)
(-4.27783e-05 2.91008e-06 0.102218)
(-6.06671e-05 2.42165e-05 0.0954235)
(-0.000100216 1.95029e-05 0.108864)
(-8.91052e-05 5.54801e-05 0.108186)
(-1.79608e-05 -1.48722e-06 0.0954471)
(-9.98146e-05 1.93757e-05 0.108926)
(-0.000103785 4.72612e-06 0.102195)
(1.42175e-05 -3.51302e-06 0.0720085)
(-5.70197e-06 5.44393e-06 0.0720485)
(2.91546e-06 -4.27658e-05 0.102216)
(1.95471e-05 -0.00010024 0.108863)
(2.42785e-05 -6.06516e-05 0.0954246)
(5.54503e-05 -8.91251e-05 0.108186)
(1.94084e-05 -9.98496e-05 0.108926)
(-1.41702e-06 -1.78668e-05 0.0954453)
(4.85276e-06 -0.000103839 0.102196)
(-2.98316e-05 -1.63023e-05 0.0891388)
(-1.63174e-05 -2.97958e-05 0.0891381)
(-5.71722e-06 -5.63599e-06 0.106838)
(-8.8726e-06 3.65548e-06 0.08915)
(3.57973e-06 -8.83854e-06 0.089147)
(5.92765e-07 4.21333e-06 0.0934797)
(-1.12757e-06 2.89272e-05 0.083155)
(1.26571e-06 4.86744e-05 0.0934885)
(-3.84138e-06 -6.7647e-06 0.0831698)
(-3.43369e-06 1.36812e-05 0.0718716)
(5.25113e-06 -5.72158e-06 0.0719151)
(4.24001e-06 6.40549e-07 0.0934794)
(2.89034e-05 -1.10487e-06 0.0831549)
(4.866e-05 1.31647e-06 0.0934881)
(-6.79613e-06 -3.81412e-06 0.0831696)
(-5.8584e-05 5.85344e-05 0.109495)
(5.85122e-05 -5.85677e-05 0.109495)
(-5.85374e-05 -5.85624e-05 0.109495)
(5.76151e-05 5.76162e-05 0.109705)
(-5.76347e-05 5.76151e-05 0.109705)
(5.7588e-05 -5.76241e-05 0.109705)
(-5.75907e-05 -5.76176e-05 0.109705)
(-3.66271e-05 2.26657e-06 0.101945)
(-5.68199e-05 2.24703e-05 0.0951543)
(-9.8641e-05 1.89946e-05 0.109108)
(-8.68196e-05 5.42533e-05 0.10834)
(-9.68141e-05 4.00996e-06 0.101924)
(-1.46461e-05 -2.30537e-06 0.0951814)
(-9.82305e-05 1.88678e-05 0.109166)
(1.36461e-05 -3.4781e-06 0.0718719)
(-5.70042e-06 5.25497e-06 0.0719146)
(2.27314e-06 -3.6656e-05 0.101944)
(1.9023e-05 -9.86694e-05 0.109107)
(2.25261e-05 -5.68547e-05 0.0951553)
(5.42144e-05 -8.68223e-05 0.10834)
(4.14607e-06 -9.68617e-05 0.101925)
(1.88893e-05 -9.82588e-05 0.109166)
(-2.24e-06 -1.46167e-05 0.0951796)
(-2.78995e-05 -1.53865e-05 0.0889098)
(-1.5417e-05 -2.78633e-05 0.0889091)
(-3.11817e-06 -3.03112e-06 0.106839)
(-7.13777e-06 4.01148e-06 0.088926)
(3.9615e-06 -7.10775e-06 0.0889231)
(4.04352e-07 2.22562e-06 0.0932338)
(-1.03692e-06 2.74911e-05 0.0829749)
(1.05794e-06 4.52572e-05 0.0932361)
(-3.75925e-06 -7.22031e-06 0.0829943)
(-3.42274e-06 1.32209e-05 0.0717476)
(5.04553e-06 -5.68566e-06 0.0717934)
(2.24558e-06 4.20767e-07 0.0932336)
(2.74606e-05 -1.00345e-06 0.0829747)
(4.52643e-05 1.07388e-06 0.0932357)
(-7.25281e-06 -3.73304e-06 0.0829942)
(-5.73182e-05 5.73052e-05 0.109774)
(5.72762e-05 -5.73091e-05 0.109774)
(-5.72751e-05 -5.72998e-05 0.109774)
(5.63254e-05 5.63297e-05 0.109977)
(-5.63338e-05 5.63385e-05 0.109977)
(5.63003e-05 -5.63213e-05 0.109977)
(-5.62953e-05 -5.63091e-05 0.109977)
(-3.07209e-05 1.88742e-06 0.101678)
(-5.33451e-05 2.08834e-05 0.0949052)
(-9.70355e-05 1.84968e-05 0.109338)
(-8.4375e-05 5.30059e-05 0.108476)
(-9.0032e-05 3.48116e-06 0.101657)
(-1.17551e-05 -2.96389e-06 0.0949356)
(-9.66045e-05 1.837e-05 0.109393)
(1.3172e-05 -3.5e-06 0.0717479)
(-5.68168e-06 5.05271e-06 0.0717929)
(1.87912e-06 -3.07456e-05 0.101677)
(1.85098e-05 -9.70466e-05 0.109338)
(2.09524e-05 -5.33872e-05 0.0949062)
(5.29584e-05 -8.43822e-05 0.108476)
(3.61009e-06 -9.0098e-05 0.101657)
(1.83807e-05 -9.66277e-05 0.109393)
(-2.93043e-06 -1.17184e-05 0.0949338)
(-2.61139e-05 -1.458e-05 0.0887015)
(-1.46311e-05 -2.60635e-05 0.0887009)
(-6.15019e-07 -5.24663e-07 0.106816)
(-5.53926e-06 4.29783e-06 0.0887221)
(4.25763e-06 -5.50058e-06 0.0887194)
(2.10896e-07 6.62807e-07 0.0930111)
(-1.07842e-06 2.62691e-05 0.0828119)
(8.46131e-07 4.24366e-05 0.0930077)
(-3.81508e-06 -7.31553e-06 0.0828354)
(-3.45835e-06 1.27708e-05 0.0716351)
(4.91277e-06 -5.62804e-06 0.071683)
(6.7548e-07 2.01709e-07 0.093011)
(2.62408e-05 -1.05028e-06 0.0828118)
(4.2449e-05 8.3257e-07 0.0930074)
(-7.33396e-06 -3.78915e-06 0.0828354)
(-5.60026e-05 5.60114e-05 0.110044)
(5.597e-05 -5.59918e-05 0.110044)
(-5.59651e-05 -5.59762e-05 0.110043)
(5.49802e-05 5.49868e-05 0.110239)
(-5.49752e-05 5.50054e-05 0.110239)
(5.49579e-05 -5.49715e-05 0.110239)
(-5.49419e-05 -5.49612e-05 0.110239)
(-2.54052e-05 1.52919e-06 0.10142)
(-5.02984e-05 1.94711e-05 0.0946752)
(-9.52641e-05 1.80017e-05 0.109554)
(-8.18106e-05 5.16783e-05 0.108593)
(-8.36683e-05 3.05647e-06 0.101398)
(-9.22122e-06 -3.46981e-06 0.0947086)
(-9.47811e-05 1.78721e-05 0.109606)
(1.27311e-05 -3.52562e-06 0.0716354)
(-5.61678e-06 4.91869e-06 0.0716824)
(1.5042e-06 -2.54145e-05 0.101419)
(1.80124e-05 -9.52733e-05 0.109554)
(1.95076e-05 -5.03396e-05 0.0946763)
(5.16211e-05 -8.17907e-05 0.108593)
(3.18158e-06 -8.37288e-05 0.101398)
(1.78848e-05 -9.47979e-05 0.109606)
(-3.44108e-06 -9.17704e-06 0.0947069)
(-2.44584e-05 -1.38343e-05 0.088512)
(-1.38673e-05 -2.4408e-05 0.0885114)
(1.86773e-06 1.94687e-06 0.106772)
(-4.12429e-06 4.42765e-06 0.0885364)
(4.44245e-06 -4.09849e-06 0.0885338)
(1.82082e-09 -6.26648e-07 0.0928089)
(-1.13763e-06 2.53262e-05 0.0826643)
(6.39073e-07 4.00031e-05 0.0928006)
(-3.85739e-06 -7.2106e-06 0.0826914)
(-3.46085e-06 1.24063e-05 0.0715331)
(4.83701e-06 -5.53349e-06 0.0715827)
(-6.20519e-07 -1.81551e-08 0.092809)
(2.53143e-05 -1.13142e-06 0.0826643)
(4.00013e-05 6.15621e-07 0.0928005)
(-7.2234e-06 -3.84407e-06 0.0826916)
(-5.46318e-05 5.46615e-05 0.110303)
(5.46171e-05 -5.46286e-05 0.110303)
(-5.46004e-05 -5.46173e-05 0.110303)
(5.35793e-05 5.35853e-05 0.110492)
(-5.35707e-05 5.36047e-05 0.110492)
(5.35643e-05 -5.35781e-05 0.110491)
(-5.35428e-05 -5.35641e-05 0.110491)
(-2.06092e-05 1.2178e-06 0.101174)
(-4.75499e-05 1.81828e-05 0.0944632)
(-9.3271e-05 1.74937e-05 0.109756)
(-7.90985e-05 5.02449e-05 0.108692)
(-7.78218e-05 2.66522e-06 0.101149)
(-7.01786e-06 -3.9615e-06 0.0944995)
(-9.27277e-05 1.7364e-05 0.109803)
(1.23513e-05 -3.53003e-06 0.0715333)
(-5.52413e-06 4.84791e-06 0.0715821)
(1.18651e-06 -2.06259e-05 0.101173)
(1.75038e-05 -9.32814e-05 0.109755)
(1.82241e-05 -4.75952e-05 0.0944641)
(5.01759e-05 -7.90799e-05 0.108692)
(2.77802e-06 -7.78741e-05 0.101149)
(1.73738e-05 -9.27476e-05 0.109803)
(-3.92275e-06 -6.98794e-06 0.0944977)
(-2.29521e-05 -1.31923e-05 0.0883393)
(-1.31943e-05 -2.2928e-05 0.0883388)
(4.37187e-06 4.42278e-06 0.106711)
(-2.89667e-06 4.5019e-06 0.0883672)
(4.54135e-06 -2.88813e-06 0.0883647)
(-1.43075e-07 -1.71083e-06 0.0926248)
(-1.21506e-06 2.45107e-05 0.0825307)
(4.22192e-07 3.78109e-05 0.0926124)
(-3.92471e-06 -7.16364e-06 0.0825609)
(-3.45035e-06 1.20422e-05 0.0714406)
(4.71986e-06 -5.50224e-06 0.0714916)
(-1.70129e-06 -1.74113e-07 0.092625)
(2.45058e-05 -1.21804e-06 0.0825308)
(3.78163e-05 3.88726e-07 0.0926124)
(-7.16665e-06 -3.92376e-06 0.0825612)