/*--------------------------------*- C++ -*----------------------------------*\
| =========                 |                                                 |
| \\      /  F ield         | OpenFOAM: The Open Source CFD Toolbox           |
|  \\    /   O peration     | Version:                                        |
|   \\  /    A nd           | Website:  www.openfoam.com                      |
|    \\/     M anipulation  |                                                 |
\*---------------------------------------------------------------------------*/
FoamFile
{
    version     2.0;
    format      ascii;
    class       volScalarField;
    location    "10.5";
    object      p;
}
// * * * * * * * * * * * * * * * * * * * * * * * * * * * * * * * * * * * * * //

dimensions      [0 2 -2 0 0 0 0];


internalField   nonuniform List<scalar> 
247096
(
1.58157e-06
1.58174e-06
1.58166e-06
1.58153e-06
1.58146e-06
1.58155e-06
1.58167e-06
1.58172e-06
1.58174e-06
1.58173e-06
1.58147e-06
1.58119e-06
1.58108e-06
1.58122e-06
1.58151e-06
1.58174e-06
1.58166e-06
1.58147e-06
1.58102e-06
1.58065e-06
1.58051e-06
1.58068e-06
1.58108e-06
1.58152e-06
1.58165e-06
1.58153e-06
1.58119e-06
1.58065e-06
1.58022e-06
1.58008e-06
1.58026e-06
1.58071e-06
1.58125e-06
1.58154e-06
1.58157e-06
1.58147e-06
1.58108e-06
1.58051e-06
1.58008e-06
1.57993e-06
1.58012e-06
1.58058e-06
1.58115e-06
1.58148e-06
1.58155e-06
1.58122e-06
1.58068e-06
1.58026e-06
1.58012e-06
1.5803e-06
1.58075e-06
1.58128e-06
1.58156e-06
1.58167e-06
1.58152e-06
1.58108e-06
1.58071e-06
1.58058e-06
1.58075e-06
1.58114e-06
1.58156e-06
1.58166e-06
1.58172e-06
1.58174e-06
1.58152e-06
1.58125e-06
1.58115e-06
1.58128e-06
1.58156e-06
1.58175e-06
1.58165e-06
1.58154e-06
1.58148e-06
1.58156e-06
1.58166e-06
1.55714e-06
1.55668e-06
1.55625e-06
1.55475e-06
1.55472e-06
1.55466e-06
1.55474e-06
1.55623e-06
1.55639e-06
1.55625e-06
1.55414e-06
1.55183e-06
1.55186e-06
1.55186e-06
1.55183e-06
1.55443e-06
1.55502e-06
1.55475e-06
1.55183e-06
1.55182e-06
1.55191e-06
1.55191e-06
1.55182e-06
1.55183e-06
1.55512e-06
1.55669e-06
1.55714e-06
1.55473e-06
1.55186e-06
1.55191e-06
1.55199e-06
1.55199e-06
1.55191e-06
1.55186e-06
1.55518e-06
1.55654e-06
1.55668e-06
1.55466e-06
1.55186e-06
1.55191e-06
1.55199e-06
1.55199e-06
1.55191e-06
1.55186e-06
1.55517e-06
1.55527e-06
1.55474e-06
1.55183e-06
1.55182e-06
1.55191e-06
1.55191e-06
1.55182e-06
1.55183e-06
1.55516e-06
1.55666e-06
1.55623e-06
1.55443e-06
1.55183e-06
1.55186e-06
1.55186e-06
1.55183e-06
1.55482e-06
1.5551e-06
1.55661e-06
1.5564e-06
1.55502e-06
1.55512e-06
1.55518e-06
1.55517e-06
1.55516e-06
1.5551e-06
1.55637e-06
1.55669e-06
1.55654e-06
1.55527e-06
1.55666e-06
1.55661e-06
1.54034e-06
1.54021e-06
1.54004e-06
1.53839e-06
1.53829e-06
1.53824e-06
1.53837e-06
1.54e-06
1.5402e-06
1.54004e-06
1.53781e-06
1.53528e-06
1.53529e-06
1.53529e-06
1.53528e-06
1.53805e-06
1.53874e-06
1.53839e-06
1.53528e-06
1.53527e-06
1.53529e-06
1.53529e-06
1.53527e-06
1.53528e-06
1.53875e-06
1.54034e-06
1.54034e-06
1.53829e-06
1.53529e-06
1.53529e-06
1.53531e-06
1.53531e-06
1.53529e-06
1.53529e-06
1.53877e-06
1.54012e-06
1.54021e-06
1.53824e-06
1.53529e-06
1.53529e-06
1.53531e-06
1.53531e-06
1.53529e-06
1.53529e-06
1.53874e-06
1.53889e-06
1.53837e-06
1.53528e-06
1.53527e-06
1.53529e-06
1.53529e-06
1.53527e-06
1.53528e-06
1.53877e-06
1.5404e-06
1.54e-06
1.53805e-06
1.53528e-06
1.53529e-06
1.53529e-06
1.53528e-06
1.53842e-06
1.53879e-06
1.54039e-06
1.5402e-06
1.53874e-06
1.53875e-06
1.53877e-06
1.53874e-06
1.53877e-06
1.53879e-06
1.54019e-06
1.54034e-06
1.54012e-06
1.53889e-06
1.5404e-06
1.54039e-06
1.52383e-06
1.5237e-06
1.52353e-06
1.52188e-06
1.52177e-06
1.52172e-06
1.52185e-06
1.52349e-06
1.52368e-06
1.52353e-06
1.5213e-06
1.51875e-06
1.51875e-06
1.51875e-06
1.51875e-06
1.52151e-06
1.52222e-06
1.52188e-06
1.51875e-06
1.51874e-06
1.51875e-06
1.51875e-06
1.51874e-06
1.51875e-06
1.52222e-06
1.52383e-06
1.52383e-06
1.52177e-06
1.51875e-06
1.51875e-06
1.51876e-06
1.51876e-06
1.51875e-06
1.51875e-06
1.52224e-06
1.52361e-06
1.5237e-06
1.52172e-06
1.51875e-06
1.51875e-06
1.51876e-06
1.51876e-06
1.51875e-06
1.51875e-06
1.52221e-06
1.52238e-06
1.52185e-06
1.51875e-06
1.51875e-06
1.51875e-06
1.51875e-06
1.51874e-06
1.51875e-06
1.52224e-06
1.52389e-06
1.52349e-06
1.52151e-06
1.51875e-06
1.51875e-06
1.51875e-06
1.51875e-06
1.52191e-06
1.52228e-06
1.52387e-06
1.52368e-06
1.52222e-06
1.52222e-06
1.52224e-06
1.52221e-06
1.52224e-06
1.52228e-06
1.52367e-06
1.52383e-06
1.52361e-06
1.52238e-06
1.52389e-06
1.52387e-06
1.5073e-06
1.50717e-06
1.507e-06
1.50535e-06
1.50524e-06
1.50519e-06
1.50533e-06
1.50696e-06
1.50715e-06
1.507e-06
1.50477e-06
1.50222e-06
1.50222e-06
1.50222e-06
1.50222e-06
1.50498e-06
1.50569e-06
1.50535e-06
1.50222e-06
1.50222e-06
1.50222e-06
1.50222e-06
1.50222e-06
1.50222e-06
1.50569e-06
1.5073e-06
1.5073e-06
1.50524e-06
1.50222e-06
1.50222e-06
1.50222e-06
1.50222e-06
1.50222e-06
1.50222e-06
1.5057e-06
1.50708e-06
1.50717e-06
1.50519e-06
1.50222e-06
1.50222e-06
1.50222e-06
1.50222e-06
1.50222e-06
1.50222e-06
1.50567e-06
1.50585e-06
1.50533e-06
1.50222e-06
1.50222e-06
1.50222e-06
1.50222e-06
1.50222e-06
1.50222e-06
1.50571e-06
1.50736e-06
1.50696e-06
1.50498e-06
1.50222e-06
1.50222e-06
1.50222e-06
1.50222e-06
1.50537e-06
1.50575e-06
1.50735e-06
1.50716e-06
1.50569e-06
1.50569e-06
1.5057e-06
1.50567e-06
1.50571e-06
1.50575e-06
1.50715e-06
1.5073e-06
1.50708e-06
1.50585e-06
1.50736e-06
1.50735e-06
1.49077e-06
1.49064e-06
1.49047e-06
1.48882e-06
1.48871e-06
1.48867e-06
1.4888e-06
1.49043e-06
1.49063e-06
1.49047e-06
1.48824e-06
1.48569e-06
1.48569e-06
1.48569e-06
1.48569e-06
1.48846e-06
1.48916e-06
1.48882e-06
1.48569e-06
1.48569e-06
1.48569e-06
1.48569e-06
1.48569e-06
1.48569e-06
1.48916e-06
1.49078e-06
1.49077e-06
1.48871e-06
1.48569e-06
1.48569e-06
1.48569e-06
1.48569e-06
1.48569e-06
1.48569e-06
1.48918e-06
1.49055e-06
1.49064e-06
1.48867e-06
1.48569e-06
1.48569e-06
1.48569e-06
1.48569e-06
1.48569e-06
1.48569e-06
1.48915e-06
1.48932e-06
1.4888e-06
1.48569e-06
1.48569e-06
1.48569e-06
1.48569e-06
1.48569e-06
1.48569e-06
1.48919e-06
1.49083e-06
1.49043e-06
1.48846e-06
1.48569e-06
1.48569e-06
1.48569e-06
1.48569e-06
1.48885e-06
1.48922e-06
1.49082e-06
1.49063e-06
1.48916e-06
1.48916e-06
1.48918e-06
1.48914e-06
1.48919e-06
1.48922e-06
1.49062e-06
1.49078e-06
1.49055e-06
1.48932e-06
1.49083e-06
1.49082e-06
1.47424e-06
1.47411e-06
1.47394e-06
1.47229e-06
1.47219e-06
1.47214e-06
1.47227e-06
1.4739e-06
1.4741e-06
1.47394e-06
1.47172e-06
1.46916e-06
1.46916e-06
1.46917e-06
1.46916e-06
1.47193e-06
1.47264e-06
1.47229e-06
1.46916e-06
1.46916e-06
1.46917e-06
1.46917e-06
1.46917e-06
1.46916e-06
1.47263e-06
1.47425e-06
1.47424e-06
1.47219e-06
1.46917e-06
1.46917e-06
1.46917e-06
1.46917e-06
1.46917e-06
1.46917e-06
1.47265e-06
1.47402e-06
1.47411e-06
1.47214e-06
1.46916e-06
1.46917e-06
1.46917e-06
1.46917e-06
1.46917e-06
1.46916e-06
1.47262e-06
1.47279e-06
1.47227e-06
1.46916e-06
1.46917e-06
1.46917e-06
1.46917e-06
1.46916e-06
1.46916e-06
1.47266e-06
1.47431e-06
1.4739e-06
1.47193e-06
1.46916e-06
1.46916e-06
1.46916e-06
1.46916e-06
1.47232e-06
1.4727e-06
1.47429e-06
1.4741e-06
1.47264e-06
1.47263e-06
1.47265e-06
1.47262e-06
1.47266e-06
1.4727e-06
1.47409e-06
1.47425e-06
1.47402e-06
1.47279e-06
1.47431e-06
1.47429e-06
1.45772e-06
1.45759e-06
1.45742e-06
1.45577e-06
1.45566e-06
1.45561e-06
1.45575e-06
1.45738e-06
1.45757e-06
1.45742e-06
1.45519e-06
1.45264e-06
1.45264e-06
1.45264e-06
1.45264e-06
1.4554e-06
1.45611e-06
1.45577e-06
1.45264e-06
1.45264e-06
1.45264e-06
1.45264e-06
1.45264e-06
1.45264e-06
1.45611e-06
1.45772e-06
1.45772e-06
1.45566e-06
1.45264e-06
1.45264e-06
1.45264e-06
1.45264e-06
1.45264e-06
1.45264e-06
1.45612e-06
1.4575e-06
1.45759e-06
1.45561e-06
1.45264e-06
1.45264e-06
1.45264e-06
1.45264e-06
1.45264e-06
1.45264e-06
1.45609e-06
1.45627e-06
1.45575e-06
1.45264e-06
1.45264e-06
1.45264e-06
1.45264e-06
1.45264e-06
1.45264e-06
1.45613e-06
1.45778e-06
1.45738e-06
1.4554e-06
1.45264e-06
1.45264e-06
1.45264e-06
1.45264e-06
1.45579e-06
1.45617e-06
1.45777e-06
1.45757e-06
1.45611e-06
1.45611e-06
1.45612e-06
1.45609e-06
1.45613e-06
1.45617e-06
1.45756e-06
1.45772e-06
1.4575e-06
1.45627e-06
1.45778e-06
1.45777e-06
1.44119e-06
1.44106e-06
1.44089e-06
1.43924e-06
1.43913e-06
1.43909e-06
1.43922e-06
1.44085e-06
1.44105e-06
1.44089e-06
1.43866e-06
1.43611e-06
1.43611e-06
1.43611e-06
1.43611e-06
1.43888e-06
1.43958e-06
1.43924e-06
1.43611e-06
1.43611e-06
1.43611e-06
1.43611e-06
1.43611e-06
1.43611e-06
1.43958e-06
1.4412e-06
1.44119e-06
1.43913e-06
1.43611e-06
1.43611e-06
1.43611e-06
1.43611e-06
1.43611e-06
1.43611e-06
1.4396e-06
1.44097e-06
1.44106e-06
1.43909e-06
1.43611e-06
1.43611e-06
1.43611e-06
1.43611e-06
1.43611e-06
1.43611e-06
1.43957e-06
1.43974e-06
1.43922e-06
1.43611e-06
1.43611e-06
1.43611e-06
1.43611e-06
1.43611e-06
1.43611e-06
1.43961e-06
1.44126e-06
1.44085e-06
1.43888e-06
1.43611e-06
1.43611e-06
1.43611e-06
1.43611e-06
1.43927e-06
1.43965e-06
1.44124e-06
1.44105e-06
1.43958e-06
1.43958e-06
1.4396e-06
1.43957e-06
1.43961e-06
1.43965e-06
1.44104e-06
1.4412e-06
1.44097e-06
1.43974e-06
1.44126e-06
1.44124e-06
1.42467e-06
1.42454e-06
1.42437e-06
1.42272e-06
1.42261e-06
1.42256e-06
1.42269e-06
1.42433e-06
1.42452e-06
1.42437e-06
1.42214e-06
1.41959e-06
1.41959e-06
1.41959e-06
1.41959e-06
1.42235e-06
1.42306e-06
1.42272e-06
1.41959e-06
1.41959e-06
1.41959e-06
1.41959e-06
1.41959e-06
1.41959e-06
1.42306e-06
1.42467e-06
1.42467e-06
1.42261e-06
1.41959e-06
1.41959e-06
1.41959e-06
1.41959e-06
1.41959e-06
1.41959e-06
1.42307e-06
1.42445e-06
1.42454e-06
1.42256e-06
1.41959e-06
1.41959e-06
1.41959e-06
1.41959e-06
1.41959e-06
1.41959e-06
1.42304e-06
1.42322e-06
1.42269e-06
1.41959e-06
1.41959e-06
1.41959e-06
1.41959e-06
1.41959e-06
1.41959e-06
1.42308e-06
1.42473e-06
1.42433e-06
1.42235e-06
1.41959e-06
1.41959e-06
1.41959e-06
1.41959e-06
1.42274e-06
1.42312e-06
1.42471e-06
1.42452e-06
1.42306e-06
1.42306e-06
1.42307e-06
1.42304e-06
1.42308e-06
1.42312e-06
1.42451e-06
1.42467e-06
1.42445e-06
1.42322e-06
1.42473e-06
1.42471e-06
1.40814e-06
1.40801e-06
1.40784e-06
1.40619e-06
1.40608e-06
1.40604e-06
1.40617e-06
1.4078e-06
1.408e-06
1.40784e-06
1.40561e-06
1.40306e-06
1.40306e-06
1.40306e-06
1.40306e-06
1.40583e-06
1.40653e-06
1.40619e-06
1.40306e-06
1.40306e-06
1.40306e-06
1.40306e-06
1.40306e-06
1.40306e-06
1.40653e-06
1.40815e-06
1.40814e-06
1.40608e-06
1.40306e-06
1.40306e-06
1.40306e-06
1.40306e-06
1.40306e-06
1.40306e-06
1.40655e-06
1.40792e-06
1.40801e-06
1.40604e-06
1.40306e-06
1.40306e-06
1.40306e-06
1.40306e-06
1.40306e-06
1.40306e-06
1.40652e-06
1.40669e-06
1.40617e-06
1.40306e-06
1.40306e-06
1.40306e-06
1.40306e-06
1.40306e-06
1.40306e-06
1.40656e-06
1.40821e-06
1.4078e-06
1.40583e-06
1.40306e-06
1.40306e-06
1.40306e-06
1.40306e-06
1.40622e-06
1.4066e-06
1.40819e-06
1.408e-06
1.40653e-06
1.40653e-06
1.40655e-06
1.40652e-06
1.40656e-06
1.4066e-06
1.40799e-06
1.40815e-06
1.40792e-06
1.40669e-06
1.40821e-06
1.40819e-06
1.39162e-06
1.39149e-06
1.39132e-06
1.38967e-06
1.38956e-06
1.38951e-06
1.38965e-06
1.39128e-06
1.39147e-06
1.39132e-06
1.38909e-06
1.38654e-06
1.38654e-06
1.38654e-06
1.38654e-06
1.3893e-06
1.39001e-06
1.38967e-06
1.38654e-06
1.38654e-06
1.38654e-06
1.38654e-06
1.38654e-06
1.38654e-06
1.39001e-06
1.39162e-06
1.39162e-06
1.38956e-06
1.38654e-06
1.38654e-06
1.38654e-06
1.38654e-06
1.38654e-06
1.38654e-06
1.39002e-06
1.3914e-06
1.39149e-06
1.38951e-06
1.38654e-06
1.38654e-06
1.38654e-06
1.38654e-06
1.38654e-06
1.38654e-06
1.38999e-06
1.39017e-06
1.38965e-06
1.38654e-06
1.38654e-06
1.38654e-06
1.38654e-06
1.38654e-06
1.38654e-06
1.39003e-06
1.39168e-06
1.39128e-06
1.3893e-06
1.38654e-06
1.38654e-06
1.38654e-06
1.38654e-06
1.38969e-06
1.39007e-06
1.39167e-06
1.39147e-06
1.39001e-06
1.39001e-06
1.39002e-06
1.38999e-06
1.39003e-06
1.39007e-06
1.39146e-06
1.39162e-06
1.3914e-06
1.39017e-06
1.39168e-06
1.39167e-06
1.37509e-06
1.37496e-06
1.37479e-06
1.37314e-06
1.37304e-06
1.37299e-06
1.37312e-06
1.37475e-06
1.37495e-06
1.37479e-06
1.37256e-06
1.37001e-06
1.37001e-06
1.37001e-06
1.37001e-06
1.37278e-06
1.37349e-06
1.37314e-06
1.37001e-06
1.37001e-06
1.37001e-06
1.37001e-06
1.37001e-06
1.37001e-06
1.37348e-06
1.3751e-06
1.37509e-06
1.37304e-06
1.37001e-06
1.37001e-06
1.37001e-06
1.37001e-06
1.37001e-06
1.37001e-06
1.3735e-06
1.37487e-06
1.37496e-06
1.37299e-06
1.37001e-06
1.37001e-06
1.37001e-06
1.37001e-06
1.37001e-06
1.37001e-06
1.37347e-06
1.37364e-06
1.37312e-06
1.37001e-06
1.37001e-06
1.37001e-06
1.37001e-06
1.37001e-06
1.37001e-06
1.37351e-06
1.37516e-06
1.37475e-06
1.37278e-06
1.37001e-06
1.37001e-06
1.37001e-06
1.37001e-06
1.37317e-06
1.37355e-06
1.37514e-06
1.37495e-06
1.37349e-06
1.37348e-06
1.3735e-06
1.37347e-06
1.37351e-06
1.37355e-06
1.37494e-06
1.3751e-06
1.37487e-06
1.37364e-06
1.37516e-06
1.37514e-06
1.35857e-06
1.35844e-06
1.35827e-06
1.35662e-06
1.35651e-06
1.35646e-06
1.3566e-06
1.35823e-06
1.35843e-06
1.35827e-06
1.35604e-06
1.35349e-06
1.35349e-06
1.35349e-06
1.35349e-06
1.35625e-06
1.35696e-06
1.35662e-06
1.35349e-06
1.35349e-06
1.35349e-06
1.35349e-06
1.35349e-06
1.35349e-06
1.35696e-06
1.35857e-06
1.35857e-06
1.35651e-06
1.35349e-06
1.35349e-06
1.35349e-06
1.35349e-06
1.35349e-06
1.35349e-06
1.35697e-06
1.35835e-06
1.35844e-06
1.35646e-06
1.35349e-06
1.35349e-06
1.35349e-06
1.35349e-06
1.35349e-06
1.35349e-06
1.35694e-06
1.35712e-06
1.3566e-06
1.35349e-06
1.35349e-06
1.35349e-06
1.35349e-06
1.35349e-06
1.35349e-06
1.35698e-06
1.35863e-06
1.35823e-06
1.35625e-06
1.35349e-06
1.35349e-06
1.35349e-06
1.35349e-06
1.35664e-06
1.35702e-06
1.35862e-06
1.35843e-06
1.35696e-06
1.35696e-06
1.35697e-06
1.35694e-06
1.35698e-06
1.35702e-06
1.35842e-06
1.35857e-06
1.35835e-06
1.35712e-06
1.35863e-06
1.35862e-06
1.34205e-06
1.34191e-06
1.34174e-06
1.3401e-06
1.33999e-06
1.33994e-06
1.34007e-06
1.34171e-06
1.3419e-06
1.34174e-06
1.33952e-06
1.33697e-06
1.33697e-06
1.33697e-06
1.33697e-06
1.33973e-06
1.34044e-06
1.34009e-06
1.33697e-06
1.33697e-06
1.33697e-06
1.33697e-06
1.33697e-06
1.33697e-06
1.34043e-06
1.34205e-06
1.34205e-06
1.33999e-06
1.33697e-06
1.33697e-06
1.33697e-06
1.33697e-06
1.33697e-06
1.33697e-06
1.34045e-06
1.34182e-06
1.34191e-06
1.33994e-06
1.33697e-06
1.33697e-06
1.33697e-06
1.33697e-06
1.33697e-06
1.33697e-06
1.34042e-06
1.34059e-06
1.34007e-06
1.33697e-06
1.33697e-06
1.33697e-06
1.33697e-06
1.33697e-06
1.33697e-06
1.34046e-06
1.34211e-06
1.34171e-06
1.33973e-06
1.33697e-06
1.33697e-06
1.33697e-06
1.33697e-06
1.34012e-06
1.3405e-06
1.34209e-06
1.3419e-06
1.34044e-06
1.34043e-06
1.34045e-06
1.34042e-06
1.34046e-06
1.3405e-06
1.34189e-06
1.34205e-06
1.34182e-06
1.34059e-06
1.34211e-06
1.34209e-06
1.32552e-06
1.32539e-06
1.32522e-06
1.32357e-06
1.32346e-06
1.32341e-06
1.32355e-06
1.32518e-06
1.32538e-06
1.32522e-06
1.32299e-06
1.32044e-06
1.32044e-06
1.32044e-06
1.32044e-06
1.32321e-06
1.32391e-06
1.32357e-06
1.32044e-06
1.32044e-06
1.32044e-06
1.32044e-06
1.32044e-06
1.32044e-06
1.32391e-06
1.32552e-06
1.32552e-06
1.32346e-06
1.32044e-06
1.32044e-06
1.32044e-06
1.32044e-06
1.32044e-06
1.32044e-06
1.32392e-06
1.3253e-06
1.32539e-06
1.32341e-06
1.32044e-06
1.32044e-06
1.32044e-06
1.32044e-06
1.32044e-06
1.32044e-06
1.32389e-06
1.32407e-06
1.32355e-06
1.32044e-06
1.32044e-06
1.32044e-06
1.32044e-06
1.32044e-06
1.32044e-06
1.32393e-06
1.32558e-06
1.32518e-06
1.32321e-06
1.32044e-06
1.32044e-06
1.32044e-06
1.32044e-06
1.3236e-06
1.32397e-06
1.32557e-06
1.32538e-06
1.32391e-06
1.32391e-06
1.32392e-06
1.32389e-06
1.32393e-06
1.32397e-06
1.32537e-06
1.32552e-06
1.3253e-06
1.32407e-06
1.32558e-06
1.32557e-06
1.309e-06
1.30886e-06
1.30869e-06
1.30705e-06
1.30694e-06
1.30689e-06
1.30702e-06
1.30866e-06
1.30885e-06
1.30869e-06
1.30647e-06
1.30392e-06
1.30392e-06
1.30392e-06
1.30392e-06
1.30668e-06
1.30739e-06
1.30705e-06
1.30392e-06
1.30392e-06
1.30392e-06
1.30392e-06
1.30392e-06
1.30392e-06
1.30739e-06
1.309e-06
1.309e-06
1.30694e-06
1.30392e-06
1.30392e-06
1.30392e-06
1.30392e-06
1.30392e-06
1.30392e-06
1.3074e-06
1.30877e-06
1.30886e-06
1.30689e-06
1.30392e-06
1.30392e-06
1.30392e-06
1.30392e-06
1.30392e-06
1.30392e-06
1.30737e-06
1.30754e-06
1.30702e-06
1.30392e-06
1.30392e-06
1.30392e-06
1.30392e-06
1.30392e-06
1.30392e-06
1.30741e-06
1.30906e-06
1.30866e-06
1.30668e-06
1.30392e-06
1.30392e-06
1.30392e-06
1.30392e-06
1.30707e-06
1.30745e-06
1.30904e-06
1.30885e-06
1.30739e-06
1.30739e-06
1.3074e-06
1.30737e-06
1.30741e-06
1.30745e-06
1.30884e-06
1.309e-06
1.30877e-06
1.30754e-06
1.30906e-06
1.30904e-06
1.29247e-06
1.29234e-06
1.29217e-06
1.29052e-06
1.29041e-06
1.29037e-06
1.2905e-06
1.29213e-06
1.29233e-06
1.29217e-06
1.28994e-06
1.28739e-06
1.28739e-06
1.28739e-06
1.28739e-06
1.29016e-06
1.29086e-06
1.29052e-06
1.28739e-06
1.28739e-06
1.28739e-06
1.28739e-06
1.28739e-06
1.28739e-06
1.29086e-06
1.29248e-06
1.29247e-06
1.29041e-06
1.28739e-06
1.28739e-06
1.28739e-06
1.28739e-06
1.28739e-06
1.28739e-06
1.29088e-06
1.29225e-06
1.29234e-06
1.29037e-06
1.28739e-06
1.28739e-06
1.28739e-06
1.28739e-06
1.28739e-06
1.28739e-06
1.29085e-06
1.29102e-06
1.2905e-06
1.28739e-06
1.28739e-06
1.28739e-06
1.28739e-06
1.28739e-06
1.28739e-06
1.29089e-06
1.29254e-06
1.29213e-06
1.29016e-06
1.28739e-06
1.28739e-06
1.28739e-06
1.28739e-06
1.29055e-06
1.29093e-06
1.29252e-06
1.29233e-06
1.29086e-06
1.29086e-06
1.29088e-06
1.29085e-06
1.29089e-06
1.29093e-06
1.29232e-06
1.29248e-06
1.29225e-06
1.29102e-06
1.29254e-06
1.29252e-06
1.27595e-06
1.27582e-06
1.27565e-06
1.274e-06
1.27389e-06
1.27384e-06
1.27398e-06
1.27561e-06
1.2758e-06
1.27565e-06
1.27342e-06
1.27087e-06
1.27087e-06
1.27087e-06
1.27087e-06
1.27363e-06
1.27434e-06
1.274e-06
1.27087e-06
1.27087e-06
1.27087e-06
1.27087e-06
1.27087e-06
1.27087e-06
1.27434e-06
1.27595e-06
1.27595e-06
1.27389e-06
1.27087e-06
1.27087e-06
1.27087e-06
1.27087e-06
1.27087e-06
1.27087e-06
1.27435e-06
1.27573e-06
1.27582e-06
1.27384e-06
1.27087e-06
1.27087e-06
1.27087e-06
1.27087e-06
1.27087e-06
1.27087e-06
1.27432e-06
1.2745e-06
1.27398e-06
1.27087e-06
1.27087e-06
1.27087e-06
1.27087e-06
1.27087e-06
1.27087e-06
1.27436e-06
1.27601e-06
1.27561e-06
1.27363e-06
1.27087e-06
1.27087e-06
1.27087e-06
1.27087e-06
1.27402e-06
1.2744e-06
1.27599e-06
1.2758e-06
1.27434e-06
1.27434e-06
1.27435e-06
1.27432e-06
1.27436e-06
1.2744e-06
1.27579e-06
1.27595e-06
1.27573e-06
1.2745e-06
1.27601e-06
1.27599e-06
1.25942e-06
1.25929e-06
1.25912e-06
1.25747e-06
1.25736e-06
1.25732e-06
1.25745e-06
1.25908e-06
1.25928e-06
1.25912e-06
1.25689e-06
1.25434e-06
1.25434e-06
1.25434e-06
1.25434e-06
1.25711e-06
1.25781e-06
1.25747e-06
1.25434e-06
1.25434e-06
1.25434e-06
1.25434e-06
1.25434e-06
1.25434e-06
1.25781e-06
1.25943e-06
1.25942e-06
1.25736e-06
1.25434e-06
1.25434e-06
1.25434e-06
1.25434e-06
1.25434e-06
1.25434e-06
1.25783e-06
1.2592e-06
1.25929e-06
1.25732e-06
1.25434e-06
1.25434e-06
1.25434e-06
1.25434e-06
1.25434e-06
1.25434e-06
1.2578e-06
1.25797e-06
1.25745e-06
1.25434e-06
1.25434e-06
1.25434e-06
1.25434e-06
1.25434e-06
1.25434e-06
1.25784e-06
1.25949e-06
1.25908e-06
1.25711e-06
1.25434e-06
1.25434e-06
1.25434e-06
1.25434e-06
1.2575e-06
1.25788e-06
1.25947e-06
1.25928e-06
1.25781e-06
1.25781e-06
1.25783e-06
1.2578e-06
1.25784e-06
1.25788e-06
1.25927e-06
1.25943e-06
1.2592e-06
1.25797e-06
1.25949e-06
1.25947e-06
1.2429e-06
1.24277e-06
1.2426e-06
1.24095e-06
1.24084e-06
1.24079e-06
1.24093e-06
1.24256e-06
1.24275e-06
1.2426e-06
1.24037e-06
1.23782e-06
1.23782e-06
1.23782e-06
1.23782e-06
1.24058e-06
1.24129e-06
1.24095e-06
1.23782e-06
1.23782e-06
1.23782e-06
1.23782e-06
1.23782e-06
1.23782e-06
1.24129e-06
1.2429e-06
1.2429e-06
1.24084e-06
1.23782e-06
1.23782e-06
1.23782e-06
1.23782e-06
1.23782e-06
1.23782e-06
1.2413e-06
1.24268e-06
1.24277e-06
1.24079e-06
1.23782e-06
1.23782e-06
1.23782e-06
1.23782e-06
1.23782e-06
1.23782e-06
1.24127e-06
1.24145e-06
1.24093e-06
1.23782e-06
1.23782e-06
1.23782e-06
1.23782e-06
1.23782e-06
1.23782e-06
1.24131e-06
1.24296e-06
1.24256e-06
1.24058e-06
1.23782e-06
1.23782e-06
1.23782e-06
1.23782e-06
1.24097e-06
1.24135e-06
1.24294e-06
1.24275e-06
1.24129e-06
1.24129e-06
1.2413e-06
1.24127e-06
1.24131e-06
1.24135e-06
1.24274e-06
1.2429e-06
1.24268e-06
1.24145e-06
1.24296e-06
1.24294e-06
1.22637e-06
1.22624e-06
1.22607e-06
1.22442e-06
1.22431e-06
1.22427e-06
1.2244e-06
1.22603e-06
1.22623e-06
1.22607e-06
1.22384e-06
1.22129e-06
1.22129e-06
1.22129e-06
1.22129e-06
1.22406e-06
1.22476e-06
1.22442e-06
1.22129e-06
1.22129e-06
1.22129e-06
1.22129e-06
1.22129e-06
1.22129e-06
1.22476e-06
1.22638e-06
1.22637e-06
1.22431e-06
1.22129e-06
1.22129e-06
1.22129e-06
1.22129e-06
1.22129e-06
1.22129e-06
1.22478e-06
1.22615e-06
1.22624e-06
1.22427e-06
1.22129e-06
1.22129e-06
1.22129e-06
1.22129e-06
1.22129e-06
1.22129e-06
1.22475e-06
1.22492e-06
1.2244e-06
1.22129e-06
1.22129e-06
1.22129e-06
1.22129e-06
1.22129e-06
1.22129e-06
1.22479e-06
1.22644e-06
1.22603e-06
1.22406e-06
1.22129e-06
1.22129e-06
1.22129e-06
1.22129e-06
1.22445e-06
1.22483e-06
1.22642e-06
1.22623e-06
1.22476e-06
1.22476e-06
1.22478e-06
1.22475e-06
1.22479e-06
1.22483e-06
1.22622e-06
1.22638e-06
1.22615e-06
1.22492e-06
1.22644e-06
1.22642e-06
1.20985e-06
1.20972e-06
1.20955e-06
1.2079e-06
1.20779e-06
1.20774e-06
1.20787e-06
1.20951e-06
1.2097e-06
1.20955e-06
1.20732e-06
1.20477e-06
1.20477e-06
1.20477e-06
1.20477e-06
1.20753e-06
1.20824e-06
1.2079e-06
1.20477e-06
1.20477e-06
1.20477e-06
1.20477e-06
1.20477e-06
1.20477e-06
1.20824e-06
1.20985e-06
1.20985e-06
1.20779e-06
1.20477e-06
1.20477e-06
1.20477e-06
1.20477e-06
1.20477e-06
1.20477e-06
1.20825e-06
1.20963e-06
1.20972e-06
1.20774e-06
1.20477e-06
1.20477e-06
1.20477e-06
1.20477e-06
1.20477e-06
1.20477e-06
1.20822e-06
1.2084e-06
1.20787e-06
1.20477e-06
1.20477e-06
1.20477e-06
1.20477e-06
1.20477e-06
1.20477e-06
1.20826e-06
1.20991e-06
1.20951e-06
1.20753e-06
1.20477e-06
1.20477e-06
1.20477e-06
1.20477e-06
1.20792e-06
1.2083e-06
1.20989e-06
1.2097e-06
1.20824e-06
1.20824e-06
1.20825e-06
1.20822e-06
1.20826e-06
1.2083e-06
1.20969e-06
1.20985e-06
1.20963e-06
1.2084e-06
1.20991e-06
1.20989e-06
1.19332e-06
1.19319e-06
1.19302e-06
1.19137e-06
1.19126e-06
1.19122e-06
1.19135e-06
1.19298e-06
1.19318e-06
1.19302e-06
1.19079e-06
1.18824e-06
1.18824e-06
1.18824e-06
1.18824e-06
1.19101e-06
1.19171e-06
1.19137e-06
1.18824e-06
1.18824e-06
1.18824e-06
1.18824e-06
1.18824e-06
1.18824e-06
1.19171e-06
1.19333e-06
1.19332e-06
1.19126e-06
1.18824e-06
1.18824e-06
1.18824e-06
1.18824e-06
1.18824e-06
1.18824e-06
1.19173e-06
1.1931e-06
1.19319e-06
1.19122e-06
1.18824e-06
1.18824e-06
1.18824e-06
1.18824e-06
1.18824e-06
1.18824e-06
1.1917e-06
1.19187e-06
1.19135e-06
1.18824e-06
1.18824e-06
1.18824e-06
1.18824e-06
1.18824e-06
1.18824e-06
1.19174e-06
1.19339e-06
1.19298e-06
1.19101e-06
1.18824e-06
1.18824e-06
1.18824e-06
1.18824e-06
1.1914e-06
1.19178e-06
1.19337e-06
1.19318e-06
1.19171e-06
1.19171e-06
1.19173e-06
1.1917e-06
1.19174e-06
1.19178e-06
1.19317e-06
1.19333e-06
1.1931e-06
1.19187e-06
1.19339e-06
1.19337e-06
1.1768e-06
1.17667e-06
1.1765e-06
1.17485e-06
1.17474e-06
1.17469e-06
1.17482e-06
1.17646e-06
1.17665e-06
1.1765e-06
1.17427e-06
1.17172e-06
1.17172e-06
1.17172e-06
1.17172e-06
1.17448e-06
1.17519e-06
1.17485e-06
1.17172e-06
1.17172e-06
1.17172e-06
1.17172e-06
1.17172e-06
1.17172e-06
1.17519e-06
1.1768e-06
1.1768e-06
1.17474e-06
1.17172e-06
1.17172e-06
1.17172e-06
1.17172e-06
1.17172e-06
1.17172e-06
1.1752e-06
1.17658e-06
1.17667e-06
1.17469e-06
1.17172e-06
1.17172e-06
1.17172e-06
1.17172e-06
1.17172e-06
1.17172e-06
1.17517e-06
1.17535e-06
1.17482e-06
1.17172e-06
1.17172e-06
1.17172e-06
1.17172e-06
1.17172e-06
1.17172e-06
1.17521e-06
1.17686e-06
1.17646e-06
1.17448e-06
1.17172e-06
1.17172e-06
1.17172e-06
1.17172e-06
1.17487e-06
1.17525e-06
1.17684e-06
1.17665e-06
1.17519e-06
1.17519e-06
1.1752e-06
1.17517e-06
1.17521e-06
1.17525e-06
1.17664e-06
1.1768e-06
1.17658e-06
1.17535e-06
1.17686e-06
1.17684e-06
1.16027e-06
1.16014e-06
1.15997e-06
1.15832e-06
1.15821e-06
1.15817e-06
1.1583e-06
1.15993e-06
1.16013e-06
1.15997e-06
1.15774e-06
1.15519e-06
1.15519e-06
1.15519e-06
1.15519e-06
1.15796e-06
1.15866e-06
1.15832e-06
1.15519e-06
1.15519e-06
1.15519e-06
1.15519e-06
1.15519e-06
1.15519e-06
1.15866e-06
1.16028e-06
1.16027e-06
1.15821e-06
1.15519e-06
1.15519e-06
1.15519e-06
1.15519e-06
1.15519e-06
1.15519e-06
1.15868e-06
1.16005e-06
1.16014e-06
1.15817e-06
1.15519e-06
1.15519e-06
1.15519e-06
1.15519e-06
1.15519e-06
1.15519e-06
1.15865e-06
1.15882e-06
1.1583e-06
1.15519e-06
1.15519e-06
1.15519e-06
1.15519e-06
1.15519e-06
1.15519e-06
1.15869e-06
1.16034e-06
1.15993e-06
1.15796e-06
1.15519e-06
1.15519e-06
1.15519e-06
1.15519e-06
1.15835e-06
1.15873e-06
1.16032e-06
1.16013e-06
1.15866e-06
1.15866e-06
1.15868e-06
1.15865e-06
1.15869e-06
1.15873e-06
1.16012e-06
1.16028e-06
1.16005e-06
1.15882e-06
1.16034e-06
1.16032e-06
1.14375e-06
1.14361e-06
1.14345e-06
1.1418e-06
1.14169e-06
1.14164e-06
1.14177e-06
1.14341e-06
1.1436e-06
1.14345e-06
1.14122e-06
1.13867e-06
1.13867e-06
1.13867e-06
1.13867e-06
1.14143e-06
1.14214e-06
1.1418e-06
1.13867e-06
1.13867e-06
1.13867e-06
1.13867e-06
1.13867e-06
1.13867e-06
1.14214e-06
1.14375e-06
1.14375e-06
1.14169e-06
1.13867e-06
1.13867e-06
1.13867e-06
1.13867e-06
1.13867e-06
1.13867e-06
1.14215e-06
1.14353e-06
1.14361e-06
1.14164e-06
1.13867e-06
1.13867e-06
1.13867e-06
1.13867e-06
1.13867e-06
1.13867e-06
1.14212e-06
1.1423e-06
1.14177e-06
1.13867e-06
1.13867e-06
1.13867e-06
1.13867e-06
1.13867e-06
1.13867e-06
1.14216e-06
1.14381e-06
1.14341e-06
1.14143e-06
1.13867e-06
1.13867e-06
1.13867e-06
1.13867e-06
1.14182e-06
1.1422e-06
1.14379e-06
1.1436e-06
1.14214e-06
1.14214e-06
1.14215e-06
1.14212e-06
1.14216e-06
1.1422e-06
1.14359e-06
1.14375e-06
1.14353e-06
1.1423e-06
1.14381e-06
1.14379e-06
1.12722e-06
1.12709e-06
1.12692e-06
1.12527e-06
1.12516e-06
1.12512e-06
1.12525e-06
1.12688e-06
1.12708e-06
1.12692e-06
1.12469e-06
1.12214e-06
1.12214e-06
1.12214e-06
1.12214e-06
1.12491e-06
1.12561e-06
1.12527e-06
1.12214e-06
1.12214e-06
1.12214e-06
1.12214e-06
1.12214e-06
1.12214e-06
1.12561e-06
1.12723e-06
1.12722e-06
1.12516e-06
1.12214e-06
1.12214e-06
1.12214e-06
1.12214e-06
1.12214e-06
1.12214e-06
1.12563e-06
1.127e-06
1.12709e-06
1.12512e-06
1.12214e-06
1.12214e-06
1.12214e-06
1.12214e-06
1.12214e-06
1.12214e-06
1.12559e-06
1.12577e-06
1.12525e-06
1.12214e-06
1.12214e-06
1.12214e-06
1.12214e-06
1.12214e-06
1.12214e-06
1.12564e-06
1.12729e-06
1.12688e-06
1.12491e-06
1.12214e-06
1.12214e-06
1.12214e-06
1.12214e-06
1.1253e-06
1.12568e-06
1.12727e-06
1.12708e-06
1.12561e-06
1.12561e-06
1.12563e-06
1.12559e-06
1.12564e-06
1.12568e-06
1.12707e-06
1.12723e-06
1.127e-06
1.12577e-06
1.12729e-06
1.12727e-06
1.1107e-06
1.11056e-06
1.1104e-06
1.10875e-06
1.10864e-06
1.10859e-06
1.10872e-06
1.11036e-06
1.11055e-06
1.11039e-06
1.10817e-06
1.10562e-06
1.10562e-06
1.10562e-06
1.10562e-06
1.10838e-06
1.10909e-06
1.10875e-06
1.10562e-06
1.10562e-06
1.10562e-06
1.10562e-06
1.10562e-06
1.10562e-06
1.10909e-06
1.1107e-06
1.1107e-06
1.10864e-06
1.10562e-06
1.10562e-06
1.10562e-06
1.10562e-06
1.10562e-06
1.10562e-06
1.1091e-06
1.11047e-06
1.11056e-06
1.10859e-06
1.10562e-06
1.10562e-06
1.10562e-06
1.10562e-06
1.10562e-06
1.10562e-06
1.10907e-06
1.10924e-06
1.10872e-06
1.10562e-06
1.10562e-06
1.10562e-06
1.10562e-06
1.10562e-06
1.10562e-06
1.10911e-06
1.11076e-06
1.11036e-06
1.10838e-06
1.10562e-06
1.10562e-06
1.10562e-06
1.10562e-06
1.10877e-06
1.10915e-06
1.11074e-06
1.11055e-06
1.10909e-06
1.10909e-06
1.1091e-06
1.10907e-06
1.10911e-06
1.10915e-06
1.11054e-06
1.1107e-06
1.11047e-06
1.10924e-06
1.11076e-06
1.11074e-06
1.09417e-06
1.09404e-06
1.09387e-06
1.09222e-06
1.09211e-06
1.09206e-06
1.0922e-06
1.09383e-06
1.09403e-06
1.09387e-06
1.09164e-06
1.08909e-06
1.08909e-06
1.08909e-06
1.08909e-06
1.09186e-06
1.09256e-06
1.09222e-06
1.08909e-06
1.08909e-06
1.08909e-06
1.08909e-06
1.08909e-06
1.08909e-06
1.09256e-06
1.09417e-06
1.09417e-06
1.09211e-06
1.08909e-06
1.08909e-06
1.08909e-06
1.08909e-06
1.08909e-06
1.08909e-06
1.09257e-06
1.09395e-06
1.09404e-06
1.09206e-06
1.08909e-06
1.08909e-06
1.08909e-06
1.08909e-06
1.08909e-06
1.08909e-06
1.09254e-06
1.09272e-06
1.0922e-06
1.08909e-06
1.08909e-06
1.08909e-06
1.08909e-06
1.08909e-06
1.08909e-06
1.09258e-06
1.09423e-06
1.09383e-06
1.09186e-06
1.08909e-06
1.08909e-06
1.08909e-06
1.08909e-06
1.09224e-06
1.09262e-06
1.09422e-06
1.09403e-06
1.09256e-06
1.09256e-06
1.09257e-06
1.09254e-06
1.09258e-06
1.09262e-06
1.09402e-06
1.09417e-06
1.09395e-06
1.09272e-06
1.09423e-06
1.09422e-06
1.07764e-06
1.07751e-06
1.07734e-06
1.07569e-06
1.07559e-06
1.07554e-06
1.07567e-06
1.0773e-06
1.0775e-06
1.07734e-06
1.07511e-06
1.07256e-06
1.07256e-06
1.07256e-06
1.07256e-06
1.07533e-06
1.07604e-06
1.07569e-06
1.07256e-06
1.07256e-06
1.07256e-06
1.07256e-06
1.07256e-06
1.07256e-06
1.07603e-06
1.07765e-06
1.07764e-06
1.07559e-06
1.07256e-06
1.07256e-06
1.07256e-06
1.07256e-06
1.07256e-06
1.07256e-06
1.07605e-06
1.07742e-06
1.07751e-06
1.07554e-06
1.07256e-06
1.07256e-06
1.07256e-06
1.07256e-06
1.07256e-06
1.07256e-06
1.07602e-06
1.07619e-06
1.07567e-06
1.07256e-06
1.07256e-06
1.07256e-06
1.07256e-06
1.07256e-06
1.07256e-06
1.07606e-06
1.07771e-06
1.0773e-06
1.07533e-06
1.07256e-06
1.07256e-06
1.07256e-06
1.07256e-06
1.07572e-06
1.0761e-06
1.07769e-06
1.0775e-06
1.07604e-06
1.07603e-06
1.07605e-06
1.07602e-06
1.07606e-06
1.0761e-06
1.07749e-06
1.07765e-06
1.07742e-06
1.07619e-06
1.07771e-06
1.07769e-06
1.06112e-06
1.06099e-06
1.06082e-06
1.05917e-06
1.05906e-06
1.05901e-06
1.05914e-06
1.06078e-06
1.06097e-06
1.06082e-06
1.05859e-06
1.05604e-06
1.05604e-06
1.05604e-06
1.05604e-06
1.0588e-06
1.05951e-06
1.05917e-06
1.05604e-06
1.05604e-06
1.05604e-06
1.05604e-06
1.05604e-06
1.05604e-06
1.05951e-06
1.06112e-06
1.06112e-06
1.05906e-06
1.05604e-06
1.05604e-06
1.05604e-06
1.05604e-06
1.05604e-06
1.05604e-06
1.05952e-06
1.0609e-06
1.06099e-06
1.05901e-06
1.05604e-06
1.05604e-06
1.05604e-06
1.05604e-06
1.05604e-06
1.05604e-06
1.05949e-06
1.05967e-06
1.05914e-06
1.05604e-06
1.05604e-06
1.05604e-06
1.05604e-06
1.05604e-06
1.05604e-06
1.05953e-06
1.06118e-06
1.06078e-06