/*--------------------------------*- C++ -*----------------------------------*\
| =========                 |                                                 |
| \\      /  F ield         | OpenFOAM: The Open Source CFD Toolbox           |
|  \\    /   O peration     | Version:  2312                                  |
|   \\  /    A nd           | Website:  www.openfoam.com                      |
|    \\/     M anipulation  |                                                 |
\*---------------------------------------------------------------------------*/
FoamFile
{
    version     2.0;
    format      ascii;
    arch        "LSB;label=32;scalar=64";
    class       volScalarField;
    location    "700";
    object      epsilon;
}
// * * * * * * * * * * * * * * * * * * * * * * * * * * * * * * * * * * * * * //

dimensions      [0 2 -3 0 0 0 0];

internalField   nonuniform List<scalar> 
172512
(
6.63565e-07
1.18845e-06
1.18855e-06
1.42056e-06
1.41842e-06
1.18796e-06
1.18785e-06
1.41835e-06
1.18778e-06
1.18795e-06
1.18786e-06
1.18799e-06
1.41851e-06
1.18796e-06
1.18783e-06
1.41849e-06
1.4205e-06
1.18855e-06
1.18845e-06
1.42048e-06
1.18837e-06
1.18854e-06
1.18857e-06
1.42058e-06
1.18842e-06
9.56625e-06
4.23894e-06
9.56751e-06
6.62222e-07
6.62235e-07
6.62343e-07
6.62325e-07
1.90948e-05
1.1867e-06
3.64746e-06
4.24112e-06
9.57241e-06
4.24065e-06
9.57717e-06
1.91046e-05
1.91147e-05
4.24117e-06
9.57403e-06
4.24069e-06
9.5784e-06
6.6357e-07
6.63688e-07
6.63657e-07
2.29664e-06
3.6493e-06
9.37711e-07
1.18898e-06
2.29655e-06
3.64956e-06
9.38516e-07
1.91062e-05
1.91161e-05
2.29666e-06
9.37802e-07
3.6493e-06
1.18909e-06
2.29662e-06
9.38589e-07
3.64957e-06
5.65372e-06
5.65549e-06
1.4196e-06
5.65465e-06
5.65641e-06
1.90911e-05
1.90943e-05
1.41722e-06
5.65056e-06
5.65236e-06
1.91018e-05
1.90917e-05
1.9105e-05
1.9095e-05
1.41932e-06
5.6526e-06
5.6544e-06
5.65166e-06
5.65342e-06
1.18671e-06
3.64724e-06
4.23952e-06
9.57179e-06
9.56692e-06
4.24003e-06
4.23945e-06
9.57199e-06
9.56715e-06
4.23997e-06
2.29596e-06
1.18735e-06
3.64835e-06
9.3683e-07
3.64802e-06
9.35964e-07
2.29609e-06
2.2959e-06
1.18717e-06
3.64872e-06
9.36767e-07
3.64844e-06
9.35887e-07
2.29603e-06
1.91041e-05
1.9094e-05
1.41932e-06
5.65407e-06
5.6529e-06
5.65322e-06
1.91031e-05
2.2955e-06
1.18652e-06
3.64782e-06
9.3501e-07
4.23886e-06
9.56711e-06
2.29543e-06
1.18669e-06
9.35045e-07
3.64771e-06
4.23956e-06
9.57304e-06
9.56853e-06
4.24009e-06
2.29596e-06
1.18718e-06
3.64892e-06
9.36804e-07
3.64857e-06
9.35938e-07
2.2961e-06
4.23951e-06
9.57265e-06
9.56819e-06
4.24001e-06
2.29592e-06
1.18735e-06
9.36844e-07
3.64882e-06
9.35975e-07
3.64848e-06
2.29603e-06
3.64856e-06
9.36869e-07
2.29613e-06
9.5726e-06
4.24017e-06
9.36885e-07
3.64844e-06
2.29608e-06
9.57233e-06
4.24006e-06
1.41729e-06
5.65218e-06
5.65075e-06
1.90924e-05
1.91055e-05
1.90955e-05
1.4194e-06
5.65422e-06
5.65278e-06
5.65324e-06
5.65181e-06
1.91031e-05
1.9093e-05
9.56731e-06
2.29605e-06
1.18735e-06
9.36951e-07
3.64856e-06
9.3609e-07
3.64822e-06
2.29615e-06
2.29598e-06
1.18723e-06
9.36893e-07
3.64896e-06
9.36029e-07
3.64863e-06
2.29607e-06
4.23976e-06
9.57279e-06
9.56793e-06
4.24019e-06
4.23978e-06
9.57307e-06
9.56864e-06
4.24015e-06
1.41935e-06
5.65268e-06
5.65444e-06
5.65348e-06
1.9104e-05
1.91063e-05
1.90963e-05
1.91023e-05
1.91123e-05
1.91056e-05
1.91156e-05
5.65367e-06
5.65543e-06
1.41951e-06
5.65457e-06
5.65636e-06
1.91128e-05
1.91161e-05
1.42157e-06
5.65562e-06
5.65738e-06
4.24105e-06
9.57262e-06
4.24057e-06
9.57739e-06
2.2966e-06
3.6491e-06
9.37678e-07
1.18908e-06
2.29652e-06
3.64937e-06
9.38466e-07
2.29654e-06
3.64951e-06
9.37618e-07
1.18897e-06
2.29646e-06
3.64974e-06
9.38406e-07
4.24169e-06
9.57778e-06
4.24163e-06
9.57798e-06
2.297e-06
1.18961e-06
3.65011e-06
9.3924e-07
2.29694e-06
1.1895e-06
3.65051e-06
9.3918e-07
5.65522e-06
5.65393e-06
1.41948e-06
5.65603e-06
5.65479e-06
1.91037e-05
1.91136e-05
1.91151e-05
1.42154e-06
5.65716e-06
5.65581e-06
1.91142e-05
2.2966e-06
3.64965e-06
9.37654e-07
1.1889e-06
2.29653e-06
3.64994e-06
9.38444e-07
4.2411e-06
9.57363e-06
4.24063e-06
9.57804e-06
2.29654e-06
9.3769e-07
3.64956e-06
1.18908e-06
2.29649e-06
9.38481e-07
3.64984e-06
4.24175e-06
9.57939e-06
2.29703e-06
1.18943e-06
3.65066e-06
9.3922e-07
4.24168e-06
9.57902e-06
2.29698e-06
1.18961e-06
9.39256e-07
3.65057e-06
4.24124e-06
9.57324e-06
4.24084e-06
9.57799e-06
2.2966e-06
9.37731e-07
3.64919e-06
1.18911e-06
2.29652e-06
9.38523e-07
3.64947e-06
4.24114e-06
9.57331e-06
4.24066e-06
9.57772e-06
2.29704e-06
1.1895e-06
3.65029e-06
9.39269e-07
4.24189e-06
9.57859e-06
2.297e-06
1.18964e-06
9.39296e-07
3.65021e-06
4.24172e-06
9.5787e-06
5.65526e-06
5.65384e-06
1.41961e-06
5.65619e-06
5.65475e-06
1.91037e-05
1.91136e-05
1.91167e-05
1.42165e-06
5.6572e-06
5.65581e-06
1.91141e-05
2.29659e-06
9.37741e-07
3.64971e-06
1.18895e-06
2.29655e-06
9.38528e-07
3.64998e-06
4.24127e-06
9.57342e-06
4.24088e-06
9.57818e-06
4.24123e-06
9.57406e-06
4.24091e-06
9.57846e-06
2.2971e-06
1.18961e-06
9.39364e-07
3.6503e-06
2.29703e-06
1.18948e-06
9.39301e-07
3.65071e-06
4.24194e-06
9.57878e-06
4.24197e-06
9.57944e-06
1.91046e-05
1.91145e-05
1.91069e-05
1.91168e-05
1.42163e-06
5.65568e-06
5.65744e-06
1.91151e-05
1.91174e-05
2.27632e-05
7.24528e-06
9.56406e-06
7.24549e-06
2.277e-05
1.26552e-05
4.23898e-06
4.88465e-06
1.12478e-05
4.8847e-06
1.12449e-05
1.26591e-05
2.27629e-05
7.24531e-06
9.56578e-06
7.24553e-06
2.27698e-05
1.90901e-05
1.26705e-05
4.24118e-06
1.12609e-05
4.88717e-06
1.12581e-05
4.8873e-06
1.26728e-05
2.27885e-05
7.24911e-06
9.57451e-06
2.27818e-05
7.24887e-06
1.26693e-05
4.24059e-06
1.12551e-05
4.88668e-06
1.26669e-05
1.12575e-05
4.88656e-06
2.27879e-05
7.25004e-06
9.57512e-06
7.25029e-06
2.27946e-05
1.91094e-05
1.91099e-05
1.267e-05
4.24123e-06
4.88719e-06
1.12611e-05
4.88728e-06
1.12583e-05
1.26735e-05
2.27883e-05
7.24915e-06
9.57574e-06
2.27815e-05
7.2489e-06
1.26699e-05
4.24064e-06
4.88666e-06
1.12551e-05
1.26663e-05
4.88658e-06
1.12578e-05
2.27876e-05
7.25007e-06
9.57671e-06
7.25032e-06
2.27943e-05
1.91108e-05
1.91114e-05
9.97157e-06
2.24193e-05
2.24185e-05
2.24132e-05
2.24125e-05
9.97119e-06
4.70582e-06
2.976e-06
9.93696e-06
5.65366e-06
4.7062e-06
2.97579e-06
9.93934e-06
4.71161e-06
2.97718e-06
9.94208e-06
5.65543e-06
4.71198e-06
2.97697e-06
9.94381e-06
9.96951e-06
2.24076e-05
2.2407e-05
9.96988e-06
2.24137e-05
2.2413e-05
4.70679e-06
9.94201e-06
5.65472e-06
2.97605e-06
2.97628e-06
9.93964e-06
4.70639e-06
4.71255e-06
9.94646e-06
5.65647e-06
2.97724e-06
2.97745e-06
9.94475e-06
4.71217e-06
1.90863e-05
1.90896e-05
9.96477e-06
2.23964e-05
2.23956e-05
2.23902e-05
2.23895e-05
9.96441e-06
4.70426e-06
9.93067e-06
5.65062e-06
2.97482e-06
9.92816e-06
4.70385e-06
2.97503e-06
4.71003e-06
9.93573e-06
5.65238e-06
2.97597e-06
9.93314e-06
4.70964e-06
2.97617e-06
1.9097e-05
1.90964e-05
1.91003e-05
1.90997e-05
9.96614e-06
2.23958e-05
2.23951e-05
9.96651e-06
2.2402e-05
2.24013e-05
4.70551e-06
2.97544e-06
5.65267e-06
9.93619e-06
9.93374e-06
2.97566e-06
4.70508e-06
4.71128e-06
2.97659e-06
5.65443e-06
9.94128e-06
9.93883e-06
2.9768e-06
4.71087e-06
4.70448e-06
9.93103e-06
2.97535e-06
5.65159e-06
4.70489e-06
9.93344e-06
2.97513e-06
4.71026e-06
9.93612e-06
2.9765e-06
5.65339e-06
4.71066e-06
9.93853e-06
2.97629e-06
9.96823e-06
2.24076e-05
2.24069e-05
2.24015e-05
2.24008e-05
9.96785e-06
1.26619e-05
1.12485e-05
4.8854e-06
4.23946e-06
1.26595e-05
1.12507e-05
4.88528e-06
2.27756e-05
9.56966e-06
7.24769e-06
2.27824e-05
7.24792e-06
2.27762e-05
7.24671e-06
9.56902e-06
2.27694e-05
7.24649e-06
1.26632e-05
4.24009e-06
1.1254e-05
4.88593e-06
1.26657e-05
1.12518e-05
4.88604e-06
1.26621e-05
1.1248e-05
4.88525e-06
4.23941e-06
1.26597e-05
1.12509e-05
4.88517e-06
2.2776e-05
9.56987e-06
7.24641e-06
7.24662e-06
2.27828e-05
2.27766e-05
7.24541e-06
9.56925e-06
2.27698e-05
7.24521e-06
1.26634e-05
4.24002e-06
1.12542e-05
4.88581e-06
1.12514e-05
4.8859e-06
1.26658e-05
1.90993e-05
1.90988e-05
4.71139e-06
2.97653e-06
5.65423e-06
9.94094e-06
2.97673e-06
9.93851e-06
4.71097e-06
4.70559e-06
2.97552e-06
5.65297e-06
9.9365e-06
9.93476e-06
2.97572e-06
4.70516e-06
2.97643e-06
5.65306e-06
2.97623e-06
9.96844e-06
2.24075e-05
2.24084e-05
2.24014e-05
2.24021e-05
9.96796e-06
1.90982e-05
1.26561e-05
4.23892e-06
1.12477e-05
4.88446e-06
1.12448e-05
4.88455e-06
1.26589e-05
2.27629e-05
7.24369e-06
9.56538e-06
7.24391e-06
2.27697e-05
1.26626e-05
4.88537e-06
1.12483e-05
4.23952e-06
1.2659e-05
4.88531e-06
1.12511e-05
2.27754e-05
9.5713e-06
7.24772e-06
2.27821e-05
7.24796e-06
2.2776e-05
7.24675e-06
9.57032e-06
2.27692e-05
7.24652e-06
1.26629e-05
4.24014e-06
4.88595e-06
1.12545e-05
1.26661e-05
4.88602e-06
1.12517e-05
1.26621e-05
1.12482e-05
4.88522e-06
4.23945e-06
1.26598e-05
1.1251e-05
4.88512e-06
2.27754e-05
9.57092e-06
7.2461e-06
7.24633e-06
2.27821e-05
2.27759e-05
7.24513e-06
9.56992e-06
2.27692e-05
7.2449e-06
1.26635e-05
4.24008e-06
1.12544e-05
4.88577e-06
1.12516e-05
4.88587e-06
1.26659e-05
2.27742e-05
9.57045e-06
7.24735e-06
7.24778e-06
2.27812e-05
1.26625e-05
4.24029e-06
4.88591e-06
1.12543e-05
4.88616e-06
1.12515e-05
1.26656e-05
2.27753e-05
9.5706e-06
7.24591e-06
7.24615e-06
2.27821e-05
1.26627e-05
4.24011e-06
1.12542e-05
4.88575e-06
1.12513e-05
4.88583e-06
1.26662e-05
9.96435e-06
2.23956e-05
2.2396e-05
2.23894e-05
2.23898e-05
9.96397e-06
4.71006e-06
9.93543e-06
5.6522e-06
2.97599e-06
9.93292e-06
2.97616e-06
4.7097e-06
4.70412e-06
9.9304e-06
5.65079e-06
2.97487e-06
2.97505e-06
9.92852e-06
4.70377e-06
1.90876e-05
1.91009e-05
1.91002e-05
9.9657e-06
2.23951e-05
2.23955e-05
9.96608e-06
2.24012e-05
2.24016e-05
4.7113e-06
2.97662e-06
5.65426e-06
9.9409e-06
2.97679e-06
9.93849e-06
4.71093e-06
4.70536e-06
2.97548e-06
5.65283e-06
9.93616e-06
9.9337e-06
2.97568e-06
4.705e-06
4.71032e-06
9.93576e-06
2.97648e-06
5.65321e-06
2.97631e-06
4.71069e-06
9.93815e-06
4.7044e-06
9.93108e-06
2.97538e-06
5.65176e-06
4.70475e-06
9.93332e-06
2.97519e-06
9.9678e-06
2.24068e-05
2.24072e-05
2.24007e-05
2.24011e-05
9.96741e-06
1.90983e-05
1.90977e-05
9.56513e-06
1.26617e-05
4.88542e-06
1.12485e-05
4.23962e-06
1.26593e-05
4.88532e-06
1.12506e-05
2.27747e-05
9.57067e-06
7.24735e-06
7.24758e-06
2.27814e-05
2.27753e-05
7.24638e-06
9.57005e-06
2.27685e-05
7.24616e-06
1.26631e-05
4.24033e-06
4.88596e-06
1.12539e-05
4.88606e-06
1.12518e-05
1.26655e-05
1.26625e-05
4.88539e-06
1.12484e-05
4.23958e-06
1.26596e-05
4.88521e-06
1.12504e-05
2.27763e-05
9.57134e-06
7.24639e-06
7.24665e-06
2.2783e-05
2.27769e-05
7.24544e-06
9.57035e-06
2.27701e-05
7.2452e-06
1.26628e-05
4.24035e-06
4.88585e-06
1.12538e-05
4.88603e-06
1.12516e-05
1.26663e-05
9.96609e-06
2.24026e-05
2.24019e-05
4.7056e-06
2.97551e-06
5.65272e-06
9.93665e-06
4.70522e-06
2.97571e-06
9.93419e-06
4.71139e-06
2.97669e-06
5.65449e-06
9.94109e-06
4.71103e-06
2.97689e-06
9.93931e-06
4.7046e-06
5.65163e-06
2.97519e-06
9.93382e-06
4.71041e-06
2.97659e-06
5.65343e-06
2.9764e-06
9.93833e-06
9.96818e-06
2.24082e-05
2.24075e-05
9.96782e-06
2.24021e-05
2.24014e-05
1.90993e-05
1.90987e-05
1.91016e-05
1.9101e-05
1.91071e-05
1.91076e-05
1.91103e-05
1.91109e-05
9.97162e-06
2.24187e-05
2.2418e-05
2.24126e-05
2.24119e-05
9.97122e-06
4.70567e-06
2.97594e-06
9.93654e-06
5.65359e-06
4.7061e-06
9.93894e-06
2.97572e-06
4.71145e-06
2.97709e-06
9.94163e-06
5.65539e-06
4.71187e-06
9.94403e-06
2.97687e-06
9.96955e-06
2.24071e-05
2.24063e-05
9.96994e-06
2.24132e-05
2.24125e-05
4.70668e-06
9.94163e-06
5.65466e-06
2.97598e-06
9.93923e-06
4.70623e-06
2.97621e-06
4.71245e-06
9.94672e-06
5.65641e-06
2.97712e-06
9.94433e-06
4.71202e-06
2.97735e-06
1.91175e-05
1.91208e-05
9.97287e-06
2.24181e-05
2.24174e-05
9.97328e-06
2.24242e-05
2.24235e-05
4.70678e-06
9.94192e-06
2.97645e-06
5.65553e-06
4.70724e-06
9.94429e-06
2.97622e-06
4.71257e-06
9.94701e-06
2.97759e-06
5.65732e-06
4.713e-06
9.94938e-06
2.97737e-06
1.26707e-05
4.24111e-06
1.12608e-05
4.88706e-06
1.1258e-05
4.88714e-06
1.26731e-05
2.27889e-05
7.2478e-06
9.57471e-06
2.27822e-05
7.24759e-06
1.26695e-05
4.24052e-06
1.12548e-05
4.88652e-06
1.12575e-05
1.2667e-05
4.88644e-06
2.27883e-05
7.24876e-06
9.57532e-06
7.24898e-06
2.2795e-05
1.26764e-05
1.12614e-05
4.8879e-06
4.24163e-06
1.26741e-05
1.12641e-05
4.88777e-06
2.28006e-05
7.25145e-06
9.57982e-06
2.27939e-05
7.2512e-06
1.26766e-05
1.12613e-05
4.88774e-06
4.24157e-06
1.26743e-05
1.12641e-05
4.88765e-06
2.2801e-05
7.25014e-06
9.58003e-06
2.27943e-05
7.24991e-06
9.97163e-06
2.24183e-05
2.2419e-05
2.24123e-05
2.2413e-05
9.97121e-06
4.71155e-06
2.97702e-06
9.94129e-06
5.65506e-06
9.94367e-06
4.71192e-06
2.97681e-06
4.70571e-06
2.976e-06
9.93742e-06
5.65385e-06
2.97578e-06
4.70613e-06
9.93915e-06
9.96958e-06
2.24068e-05
2.24075e-05
2.24128e-05
9.97e-06
2.24136e-05
4.7125e-06
9.94635e-06
5.6562e-06
2.97707e-06
9.94399e-06
2.97729e-06
4.71211e-06
4.70672e-06
9.94182e-06
5.65488e-06
2.97603e-06
2.97627e-06
9.9401e-06
4.70628e-06
1.91084e-05
1.9109e-05
1.91198e-05
9.97284e-06
2.24177e-05
2.24184e-05
9.97326e-06
2.24238e-05
2.24245e-05
4.71265e-06
9.94666e-06
2.97753e-06
5.65699e-06
2.97731e-06
4.71305e-06
9.949e-06
4.70683e-06
9.94278e-06
2.97651e-06
5.65573e-06
4.70728e-06
9.94448e-06
2.97627e-06
1.91188e-05
1.26708e-05
4.24117e-06
1.1261e-05
4.88701e-06
1.12582e-05
4.88712e-06
1.26731e-05
2.27882e-05
7.24752e-06
9.57538e-06
2.27815e-05
7.24729e-06
1.26696e-05
4.24056e-06
1.12549e-05
4.8865e-06
1.12577e-05
1.26671e-05
4.8864e-06
2.27876e-05
7.24846e-06
9.57634e-06
7.2487e-06
2.27943e-05
1.2677e-05
4.88787e-06
1.12616e-05
4.24167e-06
1.26736e-05
4.88779e-06
1.12643e-05
2.28003e-05
7.25148e-06
9.58108e-06
2.27937e-05
7.25122e-06
1.26767e-05
1.12615e-05
4.88772e-06
4.24161e-06
1.26743e-05
1.12643e-05
4.8876e-06
2.28003e-05
7.24986e-06
9.5807e-06
2.27937e-05
7.24961e-06
1.26696e-05
4.24137e-06
4.88714e-06
1.12609e-05
4.88739e-06
1.12581e-05
1.26728e-05
2.27873e-05
7.24897e-06
9.57532e-06
7.24853e-06
2.27803e-05
1.26692e-05
4.24071e-06
4.88678e-06
1.12549e-05
4.88652e-06
1.26661e-05
1.12577e-05
2.27864e-05
7.24969e-06
9.57593e-06
7.25013e-06
2.27934e-05
1.267e-05
4.2412e-06
1.12608e-05
4.887e-06
1.1258e-05
4.88708e-06
1.26735e-05
2.27882e-05
7.24733e-06
9.57505e-06
2.27814e-05
7.24709e-06
1.26699e-05
4.24061e-06
1.12547e-05
4.88646e-06
1.26665e-05
1.12575e-05
4.88638e-06
2.27875e-05
7.24826e-06
9.57602e-06
7.24851e-06
2.27942e-05
1.26763e-05
4.88799e-06
1.12614e-05
4.24176e-06
1.26734e-05
4.88774e-06
1.12642e-05
2.27994e-05
7.25129e-06
9.58063e-06
2.27925e-05
7.25084e-06
1.2677e-05
1.12613e-05
4.88769e-06
4.24165e-06
1.26736e-05
1.12641e-05
4.8876e-06
2.28003e-05
7.24968e-06
9.58038e-06
2.27936e-05
7.24942e-06
9.97118e-06
2.24179e-05
2.24183e-05
2.24118e-05
2.24122e-05
9.97077e-06
4.71151e-06
2.97707e-06
9.94128e-06
5.65522e-06
9.94365e-06
4.7119e-06
2.9769e-06
4.70558e-06
2.97598e-06
9.93657e-06
5.65377e-06
2.97576e-06
4.70597e-06
9.93896e-06
9.9691e-06
2.24063e-05
2.24067e-05
2.24124e-05
9.9695e-06
2.24128e-05
4.71247e-06
9.94635e-06
5.65624e-06
2.97716e-06
9.94398e-06
2.97734e-06
4.71208e-06
4.70655e-06
9.94165e-06
5.65484e-06
2.97602e-06
2.97624e-06
9.93928e-06
4.70615e-06
1.91083e-05
1.91089e-05
1.91213e-05
9.97243e-06
2.24173e-05
2.24177e-05
9.97285e-06
2.24234e-05
2.24238e-05
4.71263e-06
9.94667e-06
2.97759e-06
5.65715e-06
2.9774e-06
4.71303e-06
9.949e-06
4.7067e-06
9.94197e-06
2.97649e-06
5.65572e-06
4.70711e-06
9.94431e-06
2.97626e-06
1.91188e-05
1.26704e-05
4.24142e-06
4.8872e-06
1.12606e-05
4.88731e-06
1.12585e-05
1.26727e-05
2.27876e-05
7.24877e-06
9.57551e-06
7.24853e-06
2.27809e-05
1.26691e-05
4.24074e-06
4.88669e-06
1.12552e-05
4.88659e-06
1.26667e-05
1.12573e-05
2.27869e-05
7.2497e-06
9.57612e-06
7.24994e-06
2.27936e-05
1.26703e-05
4.24145e-06
4.8871e-06
1.12604e-05
4.88729e-06
1.12583e-05
1.26734e-05
2.27892e-05
7.24784e-06
9.5758e-06
2.27824e-05
7.24758e-06
1.26699e-05
4.2407e-06
4.88667e-06
1.1255e-05
1.26667e-05
4.88648e-06
1.12571e-05
2.27885e-05
7.24874e-06
9.57677e-06
7.24901e-06
2.27952e-05
1.26762e-05
4.88791e-06
1.12617e-05
4.24178e-06
1.26739e-05
4.8878e-06
1.12638e-05
2.27996e-05
7.2511e-06
9.58082e-06
2.2793e-05
7.25085e-06
1.26768e-05
4.88789e-06
1.12616e-05
4.24175e-06
1.26741e-05
4.88769e-06
1.12637e-05
2.28012e-05
7.25018e-06
9.58113e-06
2.27945e-05
7.2499e-06
1.91093e-05
1.91099e-05
1.91116e-05
1.91122e-05
9.97285e-06
2.24187e-05
2.2418e-05
9.97323e-06
2.24247e-05
2.2424e-05
4.70694e-06
9.94232e-06
2.97652e-06
5.65561e-06
4.70735e-06
2.97629e-06
9.94466e-06
4.71272e-06
9.94745e-06
2.9777e-06
5.65737e-06
4.71311e-06
2.97748e-06
9.94915e-06
1.91197e-05
1.9122e-05
6.59449e-07
4.5083e-07
4.55976e-07
4.55906e-07
6.64849e-07
4.57581e-07
4.57515e-07
2.50598e-07
2.4879e-07
2.82924e-06
1.96982e-06
1.97005e-06
1.41906e-06
2.82958e-06
1.96909e-06
1.96932e-06
2.82928e-06
1.41992e-06
1.96883e-06
1.96903e-06
1.96955e-06
1.96976e-06
2.82894e-06
2.82933e-06
1.41988e-06
1.96892e-06
1.96885e-06
1.96966e-06
1.96959e-06
2.82896e-06
2.82928e-06
1.42e-06
1.969e-06
1.9689e-06
1.96972e-06
1.96963e-06
2.82894e-06
2.82936e-06
1.41998e-06
1.96884e-06
1.96907e-06
2.82902e-06
1.96957e-06
1.9698e-06
2.82916e-06
1.9698e-06
1.97001e-06
1.41898e-06
2.82951e-06
1.96907e-06
1.96927e-06
2.82918e-06
1.96992e-06
1.96985e-06
1.41894e-06
1.9691e-06
2.82954e-06
1.96917e-06
2.82917e-06
1.96997e-06
1.96988e-06
1.41908e-06
1.96914e-06
2.82951e-06
1.96924e-06
6.59561e-07
4.50961e-07
6.60863e-07
4.54314e-07
4.54242e-07
4.5264e-07
4.52562e-07
2.45109e-07
2.46951e-07
6.60873e-07
4.54307e-07
4.54293e-07
4.52632e-07
4.52613e-07
2.4512e-07
2.46962e-07
6.60982e-07
4.5438e-07
4.54371e-07
4.52697e-07
4.52697e-07
2.45182e-07
2.47024e-07
6.60966e-07
4.54419e-07
4.54351e-07
4.52728e-07
4.52681e-07
2.45196e-07
2.47038e-07
3.64765e-06
2.22354e-06
2.22408e-06
4.55967e-07
4.5595e-07
6.64846e-07
4.57571e-07
4.5756e-07
2.5061e-07
2.48801e-07
4.56044e-07
4.56031e-07
6.64974e-07
4.57654e-07
4.57639e-07
2.5067e-07
2.48862e-07
4.56072e-07
4.56012e-07
6.64943e-07
4.57684e-07
4.57617e-07
2.50683e-07
2.48876e-07
6.6612e-07
4.59176e-07
4.59112e-07
2.52404e-07
6.66115e-07
4.59166e-07
4.59147e-07
2.52415e-07
6.66242e-07
4.5925e-07
4.59232e-07
2.52476e-07
6.66214e-07
4.59274e-07
4.59214e-07
2.52489e-07
1.66779e-06
2.29681e-06
2.54196e-06
1.54513e-06
2.54218e-06
1.54606e-06
1.66564e-06
1.84497e-06
2.22475e-06
3.02426e-06
3.64907e-06
1.84662e-06
2.22417e-06
3.02383e-06
1.66538e-06
2.29639e-06
2.54196e-06
1.54571e-06
1.66756e-06
2.54171e-06
1.54478e-06
1.84652e-06
3.02415e-06
3.64981e-06
2.22433e-06
2.22492e-06
3.02456e-06
1.84539e-06
1.668e-06
2.29687e-06
1.54504e-06
2.542e-06
1.5462e-06
2.54239e-06
1.66574e-06
1.84472e-06
2.22477e-06
3.0243e-06
3.64907e-06
1.84662e-06
2.22419e-06
3.02388e-06
1.66553e-06
2.29641e-06
1.54581e-06
2.54206e-06
1.66776e-06
1.54474e-06
2.54178e-06
1.84692e-06
3.0242e-06
3.64981e-06
2.22436e-06
2.22495e-06
3.02462e-06
1.84504e-06
2.82979e-06
1.42111e-06
1.96931e-06
1.96954e-06
1.97005e-06
1.97028e-06
2.82944e-06
2.82877e-06
1.4187e-06
1.96828e-06
1.96848e-06
2.82845e-06
1.96899e-06
1.9692e-06
2.8287e-06
1.41784e-06
1.96927e-06
1.96949e-06
2.82904e-06
1.96856e-06
1.96877e-06
1.8453e-06
3.02277e-06
3.64745e-06
2.22345e-06
3.02321e-06
2.22399e-06
1.84368e-06
1.66475e-06
2.54148e-06
1.54494e-06
2.2958e-06
1.66709e-06
2.54122e-06
1.54397e-06
1.8462e-06
2.22392e-06
3.64857e-06
3.02352e-06
2.22448e-06
3.02397e-06
1.84448e-06
1.844e-06
3.0236e-06
2.22424e-06
3.6478e-06
2.2237e-06
1.84595e-06
3.02317e-06
1.66746e-06
2.29625e-06
2.54149e-06
1.54434e-06
2.54176e-06
1.54533e-06
1.66513e-06
1.66474e-06
2.5413e-06
1.54489e-06
2.29574e-06
1.66687e-06
2.54108e-06
1.54391e-06
1.84617e-06
2.22411e-06
3.64899e-06
3.02324e-06
3.02363e-06
2.22468e-06
1.84425e-06
1.84394e-06
3.02327e-06
2.22445e-06
3.64817e-06
1.84576e-06
3.0229e-06
2.22389e-06
1.66719e-06
2.29619e-06
2.54134e-06
1.54428e-06
2.54158e-06
1.54527e-06
1.66504e-06
1.41774e-06
1.96941e-06
1.96865e-06
1.66613e-06
2.29564e-06
2.54094e-06
1.54357e-06
2.54117e-06
1.54444e-06
1.66479e-06
1.845e-06
3.02293e-06
3.648e-06
2.22379e-06
3.02329e-06
2.22432e-06
1.84399e-06
1.66675e-06
2.2956e-06
1.54344e-06
2.54078e-06
1.54446e-06
2.54101e-06
1.66407e-06
1.84555e-06
3.02246e-06
3.64791e-06
2.22372e-06
3.02288e-06
1.8433e-06
2.22426e-06
1.66519e-06
2.54146e-06
1.54486e-06
2.29581e-06
1.6664e-06
2.54122e-06
1.54398e-06
1.84574e-06
2.22424e-06
3.64912e-06
3.02366e-06
2.22479e-06
3.02403e-06
1.84472e-06
1.84436e-06
3.02366e-06
2.22457e-06
3.64837e-06
2.22402e-06
1.84535e-06
3.0233e-06
1.66668e-06
2.29626e-06
2.54151e-06
1.54439e-06
2.54174e-06
1.54527e-06
1.6655e-06
1.66476e-06
1.54491e-06
2.54131e-06
2.29574e-06
1.6671e-06
1.54391e-06
2.54109e-06
1.84621e-06
2.2242e-06
3.64903e-06
3.02322e-06
3.02363e-06
2.22475e-06
1.84421e-06
1.84386e-06
3.02327e-06
2.22452e-06
3.64827e-06
1.84598e-06
3.02286e-06
2.22398e-06
1.66719e-06
2.29622e-06
1.54429e-06
2.54134e-06
1.54531e-06
2.54158e-06
1.66514e-06
1.84619e-06
2.22398e-06
3.64878e-06
3.02349e-06
1.84434e-06
2.22454e-06
3.02391e-06
1.66722e-06
2.29628e-06
2.54146e-06
1.54441e-06
1.66518e-06
2.54172e-06
1.54534e-06
1.84564e-06
2.22392e-06
3.64866e-06
3.02313e-06
3.02351e-06
2.22446e-06
1.84459e-06
1.66666e-06
2.29624e-06
1.5444e-06
2.54135e-06
1.54528e-06
2.54159e-06
1.66543e-06
2.82877e-06
1.41877e-06
1.96843e-06
1.96834e-06
1.96906e-06
1.96915e-06
2.82844e-06
2.82871e-06
1.41791e-06
1.96945e-06
1.96935e-06
1.96872e-06
2.82903e-06
1.96863e-06
1.66479e-06
1.54503e-06
2.54152e-06
2.29586e-06
1.6672e-06
1.544e-06
2.54127e-06
1.84632e-06
2.224e-06
3.64877e-06
3.02354e-06
1.84448e-06
2.22456e-06
3.02396e-06
1.84406e-06
3.0236e-06
2.22433e-06
3.64802e-06
1.84592e-06
2.22379e-06
3.0232e-06
1.66753e-06
2.29634e-06
1.54439e-06
2.54154e-06
1.66522e-06
1.54543e-06
2.5418e-06
1.66459e-06
1.54496e-06
2.54137e-06
2.29578e-06
1.6672e-06
1.54394e-06
2.5411e-06
1.84612e-06
2.22427e-06
3.64918e-06
3.0233e-06
3.02374e-06
2.22483e-06
1.84442e-06
1.844e-06
3.02338e-06
2.2246e-06
3.64842e-06
1.84565e-06
3.02296e-06
2.22405e-06
1.66741e-06
2.29627e-06
1.54433e-06
2.54136e-06
1.54536e-06
2.54164e-06
1.66507e-06
2.82879e-06
1.41789e-06
1.96953e-06
1.96857e-06
1.96881e-06
2.82971e-06
1.42105e-06
1.96929e-06
1.96949e-06
2.82936e-06
1.97002e-06
1.97024e-06
2.82954e-06
1.42003e-06
1.97023e-06
1.97045e-06
2.8299e-06
1.96949e-06
1.96969e-06
1.66782e-06
2.29677e-06
2.54196e-06
1.54505e-06
2.54236e-06
1.54605e-06
1.66568e-06
1.84476e-06
2.22469e-06
3.02431e-06
3.64887e-06
3.02387e-06
1.84645e-06
2.22412e-06
1.66543e-06
2.29636e-06
2.54203e-06
1.5457e-06
2.54173e-06
1.66758e-06
1.54471e-06
1.84679e-06
3.02418e-06
3.64961e-06
2.22429e-06
3.02464e-06
2.22487e-06
1.84506e-06
1.66776e-06
2.29671e-06
2.54186e-06
1.54499e-06
2.54206e-06
1.54599e-06
1.66554e-06
1.84448e-06
2.22488e-06
3.02397e-06
3.64924e-06
1.84647e-06
3.02359e-06
2.22431e-06
1.66527e-06
2.2963e-06
2.54182e-06
1.54564e-06
1.66748e-06
2.5416e-06
1.54466e-06
1.84685e-06
3.02391e-06
3.65002e-06
2.22448e-06
3.0243e-06
1.84487e-06
2.22507e-06
1.66585e-06
2.54257e-06
1.54637e-06
2.29682e-06
1.66807e-06
2.54214e-06
1.54534e-06
1.8453e-06
3.02495e-06
2.22503e-06
3.64985e-06
2.22444e-06
1.84716e-06
3.02448e-06
1.6657e-06
2.54227e-06
1.54632e-06
2.29676e-06
1.66796e-06
2.5421e-06
1.54528e-06
1.84512e-06
3.0246e-06
2.22523e-06
3.65022e-06
1.84708e-06
3.02421e-06
2.22463e-06
2.82975e-06
1.42103e-06
1.96939e-06
1.96932e-06
1.97008e-06
1.97015e-06
2.82938e-06
2.82955e-06
1.41999e-06
1.97035e-06
1.97028e-06
1.96958e-06
2.82993e-06
1.96951e-06
1.66735e-06
2.29679e-06
2.54207e-06
1.54507e-06
2.54224e-06
1.54601e-06
1.66608e-06
1.84504e-06
2.225e-06
3.02437e-06
3.64944e-06
3.02399e-06
1.84606e-06
2.22444e-06
1.66581e-06
2.29636e-06
2.542e-06
1.54565e-06
2.54179e-06
1.66706e-06
1.54474e-06
1.84638e-06
3.02432e-06
3.65017e-06
2.22461e-06
3.0247e-06
2.22519e-06
1.84534e-06
1.66777e-06
2.29674e-06
1.54496e-06
2.54181e-06
1.54606e-06
2.54212e-06
1.66556e-06
1.84441e-06
2.22495e-06
3.02396e-06
3.64934e-06
1.84657e-06
3.02356e-06
2.2244e-06
1.66532e-06
2.2963e-06
1.54569e-06
2.54184e-06
1.66748e-06
1.54466e-06
2.54158e-06
1.84696e-06
3.02388e-06
3.65007e-06
2.22457e-06
3.02429e-06
1.84486e-06
2.22514e-06
1.66628e-06
2.54242e-06
1.54634e-06
2.29682e-06
1.66759e-06
2.54225e-06
1.54536e-06
1.84564e-06
3.025e-06
2.22535e-06
3.65042e-06
2.22476e-06
1.84671e-06
3.02462e-06
1.66576e-06
1.54644e-06
2.54238e-06
2.29677e-06
1.66795e-06
1.54523e-06
2.54198e-06
1.84513e-06
3.02459e-06
2.22529e-06
3.65032e-06
1.8471e-06
3.02417e-06
2.22471e-06
1.66723e-06
2.29677e-06
1.54515e-06
2.5419e-06
1.54601e-06
2.54208e-06
1.66595e-06
1.8449e-06
2.22468e-06
3.02386e-06
3.64897e-06
2.22412e-06
1.84593e-06
3.02347e-06
1.66569e-06
2.29636e-06
1.54565e-06
2.54185e-06
1.54478e-06
1.66694e-06
2.54164e-06
1.84625e-06
3.02379e-06
3.64971e-06
2.22429e-06
2.22487e-06
3.02419e-06
1.84521e-06
1.66601e-06
2.54239e-06
1.54637e-06
2.29686e-06
1.66794e-06
2.5422e-06
1.5455e-06
1.84561e-06
3.02486e-06
2.22507e-06
3.65003e-06
1.84671e-06
2.22448e-06
3.02445e-06
1.66619e-06
1.54633e-06
2.54229e-06
2.29684e-06
1.66748e-06
1.5455e-06
2.54212e-06
1.8455e-06
3.02449e-06
2.22503e-06
3.64995e-06
1.84658e-06
3.02409e-06
2.22444e-06
2.82971e-06
1.42112e-06
1.96947e-06
1.96937e-06
1.9701e-06
1.9702e-06
2.82937e-06
2.82955e-06
1.42012e-06
1.97041e-06
1.97031e-06
1.96967e-06
2.8299e-06
1.96957e-06
1.66777e-06
2.2968e-06
1.54499e-06
2.54183e-06
1.54612e-06
2.54221e-06
1.66558e-06
1.84464e-06
2.22504e-06
3.02408e-06
3.64948e-06
2.22447e-06
1.84633e-06
3.02365e-06
1.66533e-06
2.29634e-06
1.54575e-06
2.54189e-06
1.54469e-06
1.66751e-06
2.5416e-06
1.84671e-06
3.02396e-06
3.65022e-06
2.22464e-06
2.22522e-06
3.02441e-06
1.84495e-06
1.66591e-06
1.54659e-06
2.54258e-06
2.29689e-06
1.66815e-06
1.54532e-06
2.54219e-06
1.8453e-06
3.02493e-06
2.2251e-06
3.65005e-06
1.84719e-06
2.22451e-06
3.0245e-06
1.66576e-06
1.5465e-06
2.54245e-06
2.29681e-06
1.668e-06
1.54527e-06
2.542e-06
1.8452e-06
3.02471e-06
2.22538e-06
3.65047e-06
1.84706e-06
3.02426e-06
2.22478e-06
2.82962e-06
1.42011e-06
1.97026e-06
1.97049e-06
2.82998e-06
1.96951e-06
1.96974e-06
6.68529e-07
1.19043e-06
1.19055e-06
1.4226e-06
6.72924e-07
1.19193e-06
1.19205e-06
1.42422e-06
6.76769e-07
1.19296e-06
1.19309e-06
1.42561e-06
6.80083e-07
1.19353e-06
1.19366e-06
1.42656e-06
6.82891e-07
1.19367e-06
1.1938e-06
1.42703e-06
6.85215e-07
1.19344e-06
1.19356e-06
1.42713e-06
6.87077e-07
1.19281e-06
1.19294e-06
1.42689e-06
6.88501e-07
1.19183e-06
1.19195e-06
1.42632e-06
6.89509e-07
1.1905e-06
1.19062e-06
1.42544e-06
6.9012e-07
1.18886e-06
1.18898e-06
1.42427e-06
6.90365e-07
1.18693e-06
1.18705e-06
1.42284e-06
6.90282e-07
1.18474e-06
1.18485e-06
1.42115e-06
6.89903e-07
1.18229e-06
1.1824e-06
1.41917e-06
6.89234e-07
1.17963e-06
1.17974e-06
1.41686e-06
6.88302e-07
1.17676e-06
1.17687e-06
1.41447e-06
6.87126e-07
1.17372e-06
1.17383e-06
1.41193e-06
6.85732e-07
1.17053e-06
1.17063e-06
1.40923e-06
6.84153e-07
1.16719e-06
1.16729e-06
1.40637e-06
6.81243e-07
1.16249e-06
1.16259e-06
1.40281e-06
7.37737e-07
1.07607e-06
1.07614e-06
1.35243e-06
1.42052e-06
1.19008e-06
1.18997e-06
1.42048e-06
1.1899e-06
1.19008e-06
1.18997e-06
1.1901e-06
1.42061e-06
1.19008e-06
1.18995e-06
1.4206e-06
1.42254e-06
1.42222e-06
1.19055e-06
1.19043e-06
1.19171e-06
1.19159e-06
1.4225e-06
1.42216e-06
1.19037e-06
1.19055e-06
1.19153e-06
1.1917e-06
1.19057e-06
1.19159e-06
1.19172e-06
1.42262e-06
1.4223e-06
1.19041e-06
1.1917e-06
1.19157e-06
1.42228e-06
1.42416e-06
1.4236e-06
1.19206e-06
1.19193e-06
1.19285e-06
1.19273e-06
1.42411e-06
1.42339e-06
1.19188e-06
1.19205e-06
1.19268e-06
1.19285e-06
1.19207e-06
1.19273e-06
1.19287e-06
1.42423e-06
1.42368e-06
1.19192e-06
1.19285e-06
1.19271e-06
1.4235e-06
1.42538e-06
1.42454e-06
1.19309e-06
1.19296e-06
1.19355e-06
1.19342e-06
1.42547e-06
1.42448e-06
1.19291e-06
1.19309e-06
1.19337e-06
1.19355e-06
1.1931e-06
1.19341e-06
1.19356e-06
1.42545e-06
1.42461e-06
1.19295e-06
1.19354e-06
1.19341e-06
1.42433e-06
1.4262e-06
1.42504e-06
1.19367e-06
1.19354e-06
1.19381e-06
1.19368e-06
1.42613e-06
1.42499e-06
1.19349e-06
1.19367e-06
1.19363e-06
1.19381e-06
1.19368e-06
1.19367e-06
1.19382e-06
1.42627e-06
1.42512e-06
1.19353e-06
1.1938e-06
1.19367e-06
1.42483e-06
1.42666e-06
1.42519e-06
1.1938e-06
1.19368e-06
1.19364e-06
1.19352e-06
1.42661e-06
1.42514e-06
1.19363e-06
1.19381e-06
1.19346e-06
1.19365e-06
1.19382e-06
1.19351e-06
1.19366e-06
1.42673e-06
1.42526e-06
1.19367e-06
1.19363e-06
1.19351e-06
1.42498e-06
1.42676e-06
1.42499e-06
1.19357e-06
1.19345e-06
1.19308e-06
1.19296e-06
1.42671e-06
1.42494e-06
1.1934e-06
1.19357e-06
1.19291e-06
1.19309e-06
1.19358e-06
1.19295e-06
1.1931e-06
1.42683e-06
1.42506e-06
1.19343e-06
1.19307e-06
1.19295e-06
1.42478e-06
1.42652e-06
1.42446e-06
1.19294e-06
1.19283e-06
1.19215e-06
1.19203e-06
1.42647e-06
1.42442e-06
1.19277e-06
1.19295e-06
1.19198e-06
1.19216e-06
1.19296e-06
1.19202e-06
1.19217e-06
1.42659e-06
1.42453e-06
1.19281e-06
1.19214e-06
1.19202e-06
1.42425e-06
1.42595e-06
1.42362e-06
1.19196e-06
1.19184e-06
1.19088e-06
1.19077e-06
1.42591e-06
1.42358e-06
1.19179e-06
1.19197e-06
1.19071e-06
1.19089e-06
1.19198e-06
1.19076e-06
1.19091e-06
1.42602e-06
1.42369e-06
1.19183e-06
1.19088e-06
1.19076e-06
1.42341e-06
1.42507e-06
1.42248e-06
1.19063e-06
1.19052e-06
1.1893e-06
1.18919e-06
1.42504e-06
1.42245e-06
1.19046e-06
1.19064e-06
1.18913e-06
1.18931e-06
1.19065e-06
1.18917e-06
1.18932e-06
1.42514e-06
1.42255e-06
1.1905e-06
1.18929e-06
1.18917e-06
1.42228e-06
1.4239e-06
1.42108e-06
1.18899e-06
1.18888e-06
1.18741e-06
1.1873e-06
1.42387e-06
1.42105e-06
1.18882e-06
1.189e-06
1.18724e-06
1.18742e-06
1.18901e-06
1.18729e-06
1.18744e-06
1.42397e-06
1.42115e-06
1.18886e-06
1.1874e-06
1.18729e-06
1.42088e-06
1.42247e-06
1.41942e-06
1.18706e-06
1.18695e-06
1.18525e-06
1.18514e-06
1.42244e-06
1.41939e-06
1.18689e-06
1.18707e-06
1.18508e-06
1.18526e-06
1.18708e-06
1.18513e-06
1.18528e-06
1.42254e-06
1.41949e-06
1.18693e-06
1.18524e-06
1.18513e-06
1.41922e-06
1.4208e-06
1.41748e-06
1.18486e-06
1.18475e-06
1.18284e-06
1.18273e-06
1.42078e-06
1.41745e-06
1.18469e-06
1.18487e-06
1.18267e-06
1.18285e-06
1.18488e-06
1.18272e-06
1.18287e-06
1.42087e-06
1.41755e-06
1.18474e-06
1.18283e-06
1.18272e-06
1.41733e-06
1.41895e-06
1.41525e-06
1.18241e-06
1.18231e-06
1.1802e-06
1.18009e-06