/*--------------------------------*- C++ -*----------------------------------*\
| =========                 |                                                 |
| \\      /  F ield         | OpenFOAM: The Open Source CFD Toolbox           |
|  \\    /   O peration     | Version:  2312                                  |
|   \\  /    A nd           | Website:  www.openfoam.com                      |
|    \\/     M anipulation  |                                                 |
\*---------------------------------------------------------------------------*/
FoamFile
{
    version     2.0;
    format      ascii;
    arch        "LSB;label=32;scalar=64";
    class       volScalarField;
    location    "700";
    object      nut;
}
// * * * * * * * * * * * * * * * * * * * * * * * * * * * * * * * * * * * * * //

dimensions      [0 2 -1 0 0 0 0];

internalField   nonuniform List<scalar> 
172512
(
0.000208364
0.000201477
0.000201486
0.000182487
0.000182387
0.000201137
0.000201118
0.000182427
0.000201148
0.000201126
0.000201151
0.000201129
0.000182399
0.000201161
0.000201137
0.000182383
0.000182489
0.000201462
0.000201442
0.000182452
0.000201473
0.000201451
0.000201453
0.000182523
0.000201462
5.07453e-05
9.98385e-05
5.07423e-05
0.000207771
0.000207765
0.000207778
0.000207769
2.38911e-05
0.000200501
0.0001036
9.99462e-05
5.07586e-05
9.98973e-05
5.07643e-05
2.38967e-05
2.39008e-05
9.99427e-05
5.07512e-05
9.98926e-05
5.07616e-05
0.000208357
0.000208371
0.000208361
0.000144485
0.000103664
0.000211329
0.000201791
0.000144325
0.000103734
0.000211744
2.38957e-05
2.38999e-05
0.000144493
0.000211333
0.000103666
0.000201801
0.000144313
0.000211752
0.000103735
7.79284e-05
7.79225e-05
0.000182824
7.79509e-05
7.79458e-05
2.3894e-05
2.3892e-05
0.000181949
7.7906e-05
7.78998e-05
2.38984e-05
2.38943e-05
2.38965e-05
2.38922e-05
0.000182081
7.79333e-05
7.79271e-05
7.79115e-05
7.79054e-05
0.000200477
0.000103599
9.98451e-05
5.07548e-05
5.07487e-05
9.98972e-05
9.98416e-05
5.07492e-05
5.07433e-05
9.98928e-05
0.00014414
0.000200812
0.00010367
0.000210895
0.000103596
0.000210464
0.000144309
0.000144136
0.000200793
0.000103645
0.000210888
0.000103571
0.000210457
0.000144304
2.38964e-05
2.38923e-05
0.000182016
7.7912e-05
7.79334e-05
7.78904e-05
2.38978e-05
0.000144112
0.000200488
0.00010359
0.000210021
9.98399e-05
5.07387e-05
0.00014412
0.000200465
0.000210019
0.000103581
9.98409e-05
5.07521e-05
5.07415e-05
9.98923e-05
0.000144138
0.000200823
0.000103661
0.000210894
0.000103588
0.000210463
0.000144304
9.98327e-05
5.07482e-05
5.07374e-05
9.98923e-05
0.00014412
0.0002008
0.000210891
0.000103651
0.00021046
0.000103576
0.00014431
0.000103668
0.000210896
0.000144304
5.07511e-05
9.98852e-05
0.000210895
0.000103657
0.000144305
5.07492e-05
9.98899e-05
0.000181932
7.78923e-05
7.79051e-05
2.38933e-05
2.38956e-05
2.38913e-05
0.000182101
7.79195e-05
7.79331e-05
7.78954e-05
7.79099e-05
2.38977e-05
2.38935e-05
5.07413e-05
0.000144122
0.000200835
0.000210903
0.000103669
0.000210472
0.000103595
0.000144312
0.000144114
0.000200811
0.000210894
0.000103652
0.000210462
0.000103576
0.000144304
9.98271e-05
5.07513e-05
5.07456e-05
9.9887e-05
9.98168e-05
5.07477e-05
5.07368e-05
9.98771e-05
0.000182084
7.7925e-05
7.792e-05
7.78952e-05
2.38964e-05
2.38953e-05
2.3891e-05
2.38987e-05
2.39028e-05
2.38967e-05
2.39008e-05
7.79385e-05
7.79322e-05
0.000182848
7.79591e-05
7.79529e-05
2.39031e-05
2.39011e-05
0.000182894
7.79639e-05
7.79576e-05
9.99427e-05
5.0753e-05
9.98938e-05
5.07587e-05
0.000144491
0.000103666
0.000211325
0.000201777
0.00014433
0.000103736
0.000211744
0.000144486
0.000103641
0.000211318
0.000201757
0.000144325
0.000103711
0.000211736
9.99461e-05
5.07681e-05
9.99425e-05
5.07626e-05
0.00014451
0.000202092
0.000103732
0.000212163
0.000144505
0.000202072
0.000103707
0.000212156
7.79172e-05
7.79364e-05
0.000182849
7.79375e-05
7.79595e-05
2.3898e-05
2.39022e-05
2.39011e-05
0.000182879
7.79424e-05
7.79616e-05
2.39024e-05
0.000144493
0.000103657
0.000211325
0.000201788
0.000144325
0.000103727
0.000211743
9.99421e-05
5.07474e-05
9.98856e-05
5.07577e-05
0.000144493
0.000211322
0.000103646
0.000201766
0.000144311
0.000211741
0.000103717
9.99375e-05
5.07607e-05
0.000144494
0.000202104
0.000103722
0.000212163
9.9935e-05
5.07568e-05
0.000144493
0.000202081
0.00021216
0.000103712
9.99349e-05
5.07546e-05
9.9884e-05
5.07606e-05
0.000144487
0.000211325
0.000103654
0.000201768
0.000144325
0.000211744
0.000103724
9.99397e-05
5.07485e-05
9.98903e-05
5.07588e-05
0.000144505
0.000202107
0.000103729
0.000212167
9.99333e-05
5.07643e-05
0.000144506
0.000202083
0.000212163
0.000103719
9.99396e-05
5.07579e-05
7.79228e-05
7.79369e-05
0.000182841
7.79453e-05
7.7959e-05
2.3898e-05
2.39021e-05
2.39001e-05
0.000182917
7.79481e-05
7.79618e-05
2.39024e-05
0.000144486
0.000211324
0.000103647
0.000201778
0.000144305
0.000211743
0.000103718
9.99367e-05
5.07549e-05
9.98799e-05
5.07608e-05
9.9927e-05
5.0747e-05
9.98696e-05
5.07573e-05
0.000144494
0.000202117
0.00021217
0.000103732
0.000144487
0.000202093
0.000212162
0.000103712
9.99294e-05
5.07645e-05
9.99192e-05
5.07563e-05
2.38966e-05
2.39008e-05
2.38955e-05
2.38997e-05
0.000182899
7.79534e-05
7.79478e-05
2.39009e-05
2.38999e-05
2.0316e-05
7.90828e-05
5.07445e-05
7.90651e-05
2.03181e-05
3.67141e-05
9.98126e-05
9.44559e-05
4.10537e-05
9.44339e-05
4.10542e-05
3.67136e-05
2.03164e-05
7.90783e-05
5.07361e-05
7.90608e-05
2.03185e-05
2.38891e-05
3.67241e-05
9.99223e-05
4.10712e-05
9.45462e-05
4.1071e-05
9.45163e-05
3.67308e-05
2.03236e-05
7.90959e-05
5.07596e-05
2.03216e-05
7.91132e-05
3.67273e-05
9.99225e-05
4.10648e-05
9.44978e-05
3.67205e-05
4.10686e-05
9.45275e-05
2.03234e-05
7.91226e-05
5.07632e-05
7.91055e-05
2.03254e-05
2.38986e-05
2.38989e-05
3.67281e-05
9.99154e-05
9.45367e-05
4.10703e-05
9.45163e-05
4.10704e-05
3.67269e-05
2.0324e-05
7.90918e-05
5.07569e-05
2.0322e-05
7.91084e-05
3.67236e-05
9.9918e-05
9.44972e-05
4.10662e-05
3.67245e-05
9.45183e-05
4.10665e-05
2.03238e-05
7.91177e-05
5.07561e-05
7.91013e-05
2.03258e-05
2.38978e-05
2.38979e-05
8.15159e-05
2.17176e-05
2.17143e-05
2.17156e-05
2.17123e-05
8.15223e-05
0.000105293
0.000128909
4.86664e-05
7.79383e-05
0.000105275
0.000128962
4.86661e-05
0.000105298
0.00012889
4.86522e-05
7.79329e-05
0.000105281
0.000128945
4.86591e-05
8.1514e-05
2.17138e-05
2.17106e-05
8.15076e-05
2.17158e-05
2.17125e-05
0.000105301
4.86704e-05
7.79412e-05
0.000129022
0.00012897
4.86707e-05
0.000105319
0.000105307
4.86636e-05
7.79356e-05
0.000129004
0.000128951
4.86567e-05
0.000105325
2.38921e-05
2.389e-05
8.14876e-05
2.17107e-05
2.17074e-05
2.17087e-05
2.17054e-05
8.14936e-05
0.000105199
4.86555e-05
7.78973e-05
0.00012878
4.86565e-05
0.000105217
0.000128728
0.0001052
4.86434e-05
7.78911e-05
0.000128762
4.86446e-05
0.000105219
0.000128705
2.38965e-05
2.38962e-05
2.38945e-05
2.38942e-05
8.15027e-05
2.17106e-05
2.17072e-05
8.14966e-05
2.17125e-05
2.17092e-05
0.000105255
0.000128908
7.79252e-05
4.86645e-05
4.86651e-05
0.000128859
0.000105273
0.000105256
0.00012889
7.7919e-05
4.8652e-05
4.86525e-05
0.000128835
0.000105275
0.000105245
4.86604e-05
0.000128794
7.79197e-05
0.000105227
4.86604e-05
0.000128845
0.000105247
4.86475e-05
0.000128771
7.79136e-05
0.000105228
4.86478e-05
0.000128827
8.15055e-05
2.17143e-05
2.1711e-05
2.17124e-05
2.17091e-05
8.15115e-05
3.67201e-05
4.10559e-05
9.44562e-05
9.98713e-05
3.67133e-05
4.10613e-05
9.44872e-05
2.03197e-05
5.07538e-05
7.91035e-05
2.03218e-05
7.90859e-05
2.03199e-05
7.90756e-05
5.07503e-05
2.03179e-05
7.90933e-05
3.67175e-05
9.9871e-05
4.10655e-05
9.45086e-05
3.67234e-05
4.10601e-05
9.44769e-05
3.67186e-05
4.10586e-05
9.44478e-05
9.98674e-05
3.67119e-05
4.10587e-05
9.44707e-05
2.03191e-05
5.07483e-05
7.90806e-05
7.90642e-05
2.03211e-05
2.03193e-05
7.90539e-05
5.07445e-05
2.03172e-05
7.90705e-05
3.67159e-05
9.98676e-05
4.10627e-05
9.44908e-05
4.10625e-05
9.44684e-05
3.67221e-05
2.38945e-05
2.38942e-05
0.000105253
0.000128876
7.79041e-05
4.86515e-05
0.000128824
4.8652e-05
0.000105275
0.00010525
0.00012891
7.79227e-05
4.86664e-05
4.86589e-05
0.000128857
0.000105273
0.00012876
7.78986e-05
0.000128813
8.14995e-05
2.17108e-05
2.17139e-05
2.17089e-05
2.17119e-05
8.15068e-05
2.38961e-05
3.67086e-05
9.98052e-05
4.10536e-05
9.44509e-05
4.10539e-05
9.44184e-05
3.6714e-05
2.03155e-05
7.90582e-05
5.07325e-05
7.90401e-05
2.03175e-05
3.6716e-05
9.44564e-05
4.10586e-05
9.98665e-05
3.67173e-05
9.44779e-05
4.10584e-05
2.03201e-05
5.07462e-05
7.90986e-05
2.03222e-05
7.90819e-05
2.03203e-05
7.90716e-05
5.07469e-05
2.03183e-05
7.90887e-05
3.67207e-05
9.98663e-05
9.44985e-05
4.10622e-05
3.67207e-05
9.44761e-05
4.1062e-05
3.67177e-05
4.10582e-05
9.44402e-05
9.98665e-05
3.67132e-05
4.10581e-05
9.44717e-05
2.03192e-05
5.07424e-05
7.90785e-05
7.90611e-05
2.03212e-05
2.03194e-05
7.90509e-05
5.07432e-05
2.03173e-05
7.90685e-05
3.67151e-05
9.98597e-05
4.10621e-05
9.4492e-05
4.10618e-05
9.44615e-05
3.67217e-05
2.03203e-05
5.07504e-05
7.90885e-05
7.90782e-05
2.03223e-05
3.672e-05
9.98586e-05
9.44881e-05
4.10616e-05
9.44637e-05
4.10618e-05
3.67209e-05
2.03194e-05
5.07434e-05
7.90785e-05
7.90618e-05
2.03214e-05
3.67197e-05
9.98649e-05
4.10625e-05
9.44899e-05
4.10626e-05
9.44685e-05
3.6719e-05
8.14838e-05
2.17077e-05
2.17109e-05
2.17057e-05
2.17089e-05
8.14901e-05
0.000105202
4.86427e-05
7.7882e-05
0.000128755
4.86436e-05
0.000128697
0.000105219
0.000105198
4.86586e-05
7.78952e-05
0.000128785
0.000128728
4.86519e-05
0.000105216
2.38913e-05
2.38935e-05
2.38933e-05
8.14992e-05
2.17075e-05
2.17108e-05
8.14929e-05
2.17095e-05
2.17127e-05
0.000105259
0.000128884
7.79095e-05
4.86521e-05
0.000128829
4.86525e-05
0.000105276
0.000105256
0.000128913
7.79236e-05
4.86648e-05
4.86653e-05
0.00012886
0.000105274
0.000105248
4.86483e-05
0.000128763
7.79058e-05
0.000128821
0.000105231
4.86479e-05
0.000105246
4.86596e-05
0.000128794
7.79196e-05
0.000105228
4.86616e-05
0.00012885
8.15018e-05
2.17113e-05
2.17145e-05
2.17093e-05
2.17126e-05
8.15079e-05
2.38958e-05
2.38955e-05
5.07406e-05
3.672e-05
9.44514e-05
4.1054e-05
9.98612e-05
3.67156e-05
9.44829e-05
4.10605e-05
2.03208e-05
5.07503e-05
7.90998e-05
7.90824e-05
2.03228e-05
2.0321e-05
7.90723e-05
5.07466e-05
2.0319e-05
7.90897e-05
3.67174e-05
9.98541e-05
9.45032e-05
4.10646e-05
9.44726e-05
4.10585e-05
3.67241e-05
3.67153e-05
9.44316e-05
4.10533e-05
9.98513e-05
3.6714e-05
9.44629e-05
4.106e-05
2.03189e-05
5.07419e-05
7.90769e-05
7.90594e-05
2.03209e-05
2.03191e-05
7.90494e-05
5.07427e-05
2.03171e-05
7.90668e-05
3.67183e-05
9.98438e-05
9.44833e-05
4.10641e-05
9.4453e-05
4.10579e-05
3.67179e-05
8.14968e-05
2.17122e-05
2.17089e-05
0.000105248
0.0001289
7.79151e-05
4.86616e-05
0.000105267
0.000128846
4.8662e-05
0.000105254
0.000128883
7.79093e-05
4.86548e-05
0.000105272
0.000128827
4.86477e-05
0.000105239
7.79118e-05
0.000128837
4.86574e-05
0.000105244
0.000128762
7.79059e-05
0.000128819
4.86502e-05
8.1499e-05
2.1714e-05
2.17107e-05
8.15055e-05
2.1712e-05
2.17088e-05
2.38944e-05
2.38942e-05
2.38933e-05
2.38931e-05
2.39006e-05
2.39009e-05
2.38987e-05
2.38989e-05
8.15221e-05
2.17179e-05
2.17146e-05
2.1716e-05
2.17127e-05
8.15282e-05
0.0001053
0.000128921
4.86691e-05
7.79463e-05
0.000105283
4.8669e-05
0.000128969
0.000105302
0.000128897
4.86566e-05
7.79401e-05
0.000105283
4.86564e-05
0.000128951
8.152e-05
2.17142e-05
2.17109e-05
8.1514e-05
2.17161e-05
2.17128e-05
0.000105309
4.86732e-05
7.79515e-05
0.000129029
4.86738e-05
0.000105326
0.000128982
0.00010531
4.86607e-05
7.79451e-05
0.000129011
4.86612e-05
0.000105328
0.000128958
2.3905e-05
2.3903e-05
8.15361e-05
2.17177e-05
2.17144e-05
8.153e-05
2.17197e-05
2.17164e-05
0.000105351
4.86782e-05
0.000129042
7.79713e-05
0.000105334
4.86777e-05
0.000129088
0.000105353
4.86656e-05
0.000129018
7.79649e-05
0.000105335
4.86652e-05
0.00012907
3.67229e-05
9.99189e-05
4.10708e-05
9.45295e-05
4.10709e-05
9.45088e-05
3.67291e-05
2.03229e-05
7.90741e-05
5.07541e-05
2.03209e-05
7.90903e-05
3.67259e-05
9.99189e-05
4.10667e-05
9.44894e-05
4.10671e-05
3.67196e-05
9.45111e-05
2.03227e-05
7.90995e-05
5.07578e-05
7.90837e-05
2.03247e-05
3.67342e-05
4.10747e-05
9.45357e-05
9.997e-05
3.67277e-05
4.1075e-05
9.45647e-05
2.03272e-05
7.91147e-05
5.07692e-05
2.03252e-05
7.91316e-05
3.67327e-05
4.10745e-05
9.45274e-05
9.99663e-05
3.67264e-05
4.10748e-05
9.45482e-05
2.03265e-05
7.90931e-05
5.07635e-05
2.03245e-05
7.91086e-05
8.15167e-05
2.17146e-05
2.17177e-05
2.17126e-05
2.17157e-05
8.15237e-05
0.000105302
0.000128887
4.86561e-05
7.7925e-05
4.8656e-05
0.000105281
0.000128938
0.0001053
0.00012892
4.86641e-05
7.79466e-05
0.000128972
0.000105278
4.86713e-05
8.15153e-05
2.17109e-05
2.1714e-05
2.17128e-05
8.15082e-05
2.17159e-05
0.000105306
4.86603e-05
7.793e-05
0.000128997
4.86606e-05
0.000128948
0.000105327
0.000105304
4.86757e-05
7.79492e-05
0.000129032
0.000128981
4.86685e-05
0.000105326
2.39e-05
2.39002e-05
2.39029e-05
8.15318e-05
2.17144e-05
2.17175e-05
8.15249e-05
2.17164e-05
2.17194e-05
0.000105353
4.86651e-05
0.000129007
7.79497e-05
0.000129056
0.000105332
4.86648e-05
0.000105351
4.86729e-05
0.00012904
7.79716e-05
0.000105329
4.86799e-05
0.00012909
2.39043e-05
3.67224e-05
9.99103e-05
4.10702e-05
9.45308e-05
4.10702e-05
9.4501e-05
3.67289e-05
2.0323e-05
7.90712e-05
5.07529e-05
2.0321e-05
7.90882e-05
3.67254e-05
9.99177e-05
4.1066e-05
9.4482e-05
4.10664e-05
3.67193e-05
9.45118e-05
2.03228e-05
7.90977e-05
5.07521e-05
7.90807e-05
2.03248e-05
3.67304e-05
9.45349e-05
4.10741e-05
9.99674e-05
3.67314e-05
9.45554e-05
4.10744e-05
2.03276e-05
7.91106e-05
5.07661e-05
2.03256e-05
7.91267e-05
3.67324e-05
4.10739e-05
9.45206e-05
9.99659e-05
3.67258e-05
4.10742e-05
9.45498e-05
2.03266e-05
7.90899e-05
5.07623e-05
2.03246e-05
7.91066e-05
3.67273e-05
9.99096e-05
9.45268e-05
4.10697e-05
9.45036e-05
4.10699e-05
3.67277e-05
2.03242e-05
7.9088e-05
5.07559e-05
7.90982e-05
2.03221e-05
3.67245e-05
9.99109e-05
9.44836e-05
4.10655e-05
9.45083e-05
3.67232e-05
4.10659e-05
2.03239e-05
7.91077e-05
5.07595e-05
7.90975e-05
2.0326e-05
3.67267e-05
9.99158e-05
4.10705e-05
9.45289e-05
4.10706e-05
9.45084e-05
3.67258e-05
2.03232e-05
7.90716e-05
5.0754e-05
2.03212e-05
7.90883e-05
3.67224e-05
9.99158e-05
4.10662e-05
9.44885e-05
3.67229e-05
4.10668e-05
9.45104e-05
2.0323e-05
7.90976e-05
5.07532e-05
7.90812e-05
2.0325e-05
3.67315e-05
9.4522e-05
4.10736e-05
9.99587e-05
3.673e-05
9.45453e-05
4.10737e-05
2.03278e-05
7.91067e-05
5.07653e-05
2.03257e-05
7.91166e-05
3.67291e-05
4.10743e-05
9.4527e-05
9.99635e-05
3.67301e-05
4.10745e-05
9.45476e-05
2.03268e-05
7.90906e-05
5.07634e-05
2.03248e-05
7.91067e-05
8.15185e-05
2.17149e-05
2.17181e-05
2.17129e-05
2.17162e-05
8.15246e-05
0.000105303
0.000128892
4.86567e-05
7.79325e-05
4.86567e-05
0.000105286
0.000128945
0.0001053
0.000128922
4.8669e-05
7.79466e-05
0.000128975
0.000105283
4.86689e-05
8.15163e-05
2.17111e-05
2.17144e-05
2.17131e-05
8.15103e-05
2.17163e-05
0.000105312
4.86609e-05
7.79357e-05
0.000129005
4.86613e-05
0.000128953
0.000105329
0.000105309
4.86732e-05
7.79495e-05
0.000129035
0.000128983
4.86736e-05
0.000105327
2.38999e-05
2.39002e-05
2.39021e-05
8.15325e-05
2.17147e-05
2.17179e-05
8.15264e-05
2.17166e-05
2.17199e-05
0.000105355
4.86657e-05
0.000129013
7.79575e-05
0.000129064
0.000105338
4.86654e-05
0.000105352
4.8678e-05
0.000129043
7.79713e-05
0.000105335
4.86777e-05
0.000129093
2.39043e-05
3.67247e-05
9.99047e-05
9.45417e-05
4.10726e-05
9.4512e-05
4.10663e-05
3.67312e-05
2.03247e-05
7.90924e-05
5.07561e-05
7.91094e-05
2.03227e-05
3.67278e-05
9.99123e-05
9.44931e-05
4.10626e-05
9.45229e-05
3.67215e-05
4.10684e-05
2.03245e-05
7.91187e-05
5.07598e-05
7.9102e-05
2.03265e-05
3.67245e-05
9.98947e-05
9.45222e-05
4.10721e-05
9.44926e-05
4.10657e-05
3.67256e-05
2.03227e-05
7.90695e-05
5.07525e-05
2.03207e-05
7.90866e-05
3.67218e-05
9.99024e-05
9.44734e-05
4.10619e-05
3.6721e-05
9.45031e-05
4.10679e-05
2.03225e-05
7.9096e-05
5.07517e-05
7.90791e-05
2.03245e-05
3.67347e-05
9.45315e-05
4.10707e-05
9.99603e-05
3.67281e-05
9.45604e-05
4.10766e-05
2.03282e-05
7.91112e-05
5.07655e-05
2.03263e-05
7.91278e-05
3.67298e-05
9.4512e-05
4.107e-05
9.99506e-05
3.67268e-05
9.45409e-05
4.10761e-05
2.03263e-05
7.90883e-05
5.07619e-05
2.03243e-05
7.9105e-05
2.38986e-05
2.38988e-05
2.38975e-05
2.38977e-05
8.15303e-05
2.17174e-05
2.17141e-05
8.15239e-05
2.17193e-05
2.17161e-05
0.000105344
4.86752e-05
0.000129029
7.79629e-05
0.000105326
0.00012908
4.8675e-05
0.00010535
4.86609e-05
0.000129011
7.79576e-05
0.000105332
0.000129062
4.86676e-05
2.39029e-05
2.39019e-05
0.00020657
0.000203206
0.000205527
0.000205527
0.000208946
0.000206285
0.000206285
0.000197396
0.000196401
0.000138544
0.000162126
0.000162116
0.000182615
0.000138512
0.000162174
0.000162162
0.000138446
0.000182304
0.000162043
0.000162028
0.000161994
0.00016198
0.000138478
0.000138437
0.00018224
0.000162032
0.000162057
0.000161955
0.000161978
0.00013848
0.000138446
0.000182322
0.000162026
0.000162049
0.000161985
0.000162008
0.000138479
0.000138437
0.000182298
0.000162029
0.000162019
0.000138471
0.000161987
0.000161977
0.000138556
0.00016213
0.000162115
0.000182631
0.000138519
0.00016219
0.000162176
0.000138554
0.000162097
0.00016212
0.000182639
0.000162196
0.000138512
0.00016217
0.000138553
0.000162125
0.000162148
0.000182612
0.00016219
0.000138521
0.000162167
0.000206576
0.000203212
0.000207175
0.000204759
0.000204758
0.000203988
0.000203986
0.000194397
0.000195401
0.000207174
0.000204757
0.000204759
0.000203986
0.00020399
0.000194397
0.000195401
0.000207182
0.000204766
0.000204769
0.000203994
0.000203998
0.000194405
0.000195409
0.000207173
0.000204765
0.000204766
0.000203994
0.000203995
0.000194405
0.000195408
0.000103559
0.000147561
0.000147502
0.000205524
0.000205527
0.000208939
0.000206282
0.000206284
0.000197396
0.000196401
0.000205534
0.000205537
0.000208953
0.000206292
0.000206295
0.000197404
0.000196409
0.000205533
0.000205534
0.000208944
0.000206291
0.000206292
0.000197403
0.000196409
0.000209526
0.00020704
0.00020704
0.000198388
0.000209518
0.000207037
0.000207039
0.000198388
0.000209532
0.000207047
0.00020705
0.000198395
0.000209523
0.000207045
0.000207047
0.000198395
0.000171903
0.000144417
0.000137882
0.000177253
0.000137823
0.000177242
0.000172057
0.000161168
0.000147825
0.000122855
0.000103701
0.00016109
0.00014787
0.000122909
0.00017188
0.000144396
0.000137745
0.000177047
0.000171721
0.000137808
0.00017706
0.000161259
0.000122963
0.000103697
0.000147973
0.000147931
0.000122911
0.000161295
0.000171879
0.000144404
0.000177313
0.000137903
0.000177166
0.000137811
0.000172071
0.000161217
0.000147835
0.000122857
0.000103703
0.000161057
0.000147878
0.000122919
0.000171887
0.000144403
0.000176973
0.000137741
0.000171698
0.000177109
0.000137828
0.000161199
0.000122973
0.0001037
0.000147978
0.000147933
0.000122912
0.000161355
0.000138585
0.000182688
0.000162311
0.000162298
0.00016226
0.00016225
0.000138619
0.00013829
0.00018187
0.000161749
0.000161736
0.000138325
0.000161706
0.000161693
0.000138402
0.000182165
0.000161851
0.000161838
0.000138369
0.000161899
0.000161885
0.000160626
0.000122745
0.000103559
0.000147539
0.00012268
0.000147507
0.000160783
0.000171533
0.000137581
0.000176574
0.000144216
0.000171332
0.00013767
0.000176674
0.000160904
0.000147758
0.000103631
0.000122861
0.000147726
0.000122798
0.000161052
0.000160933
0.00012274
0.000147616
0.000103635
0.00014765
0.000160753
0.000122803
0.00017151
0.000144235
0.00013775
0.000176892
0.000137662
0.000176786
0.000171707
0.000171505
0.000137576
0.000176568
0.000144211
0.000171328
0.000137645
0.00017667
0.000160875
0.000147733
0.000103606
0.000122837
0.000122784
0.000147683
0.000161041
0.000160906
0.000122726
0.00014758
0.000103611
0.000160737
0.00012278
0.000147621
0.000171511
0.00014423
0.000137724
0.000176886
0.000137657
0.00017678
0.000171687
0.000182209
0.000161809
0.000161886
0.000171212
0.000144038
0.000137567
0.000176438
0.000137501
0.000176443
0.000171276
0.000160693
0.000122732
0.00010355
0.000147523
0.000122678
0.000147489
0.000160696
0.000171117
0.000144021
0.00017651
0.000137571
0.000176375
0.000137477
0.000171362
0.000160579
0.000122728
0.00010354
0.000147527
0.000122661
0.000160786
0.000147467
0.000171464
0.000137587
0.00017665
0.000144212
0.000171416
0.000137653
0.000176663
0.000160959
0.000147747
0.000103622
0.000122849
0.000147705
0.000122797
0.000161015
0.000160856
0.000122739
0.000147599
0.000103626
0.000147638
0.000160836
0.000122793
0.000171604
0.000144231
0.000137731
0.000176856
0.000137667
0.000176838
0.000171649
0.00017151
0.000176578
0.000137561
0.000144216
0.000171299
0.000176712
0.000137652
0.000160871
0.000147744
0.000103612
0.000122842
0.000122778
0.000147684
0.000161053
0.000160913
0.00012272
0.000147576
0.000103616
0.000160711
0.000122784
0.000147636
0.000171505
0.000144217
0.000176912
0.000137733
0.000176779
0.000137644
0.000171685
0.00016095
0.000147767
0.000103629
0.000122854
0.000161047
0.000147716
0.000122797
0.000171546
0.000144231
0.000137731
0.000176864
0.000171693
0.000137664
0.000176853
0.000160962
0.000147743
0.000103619
0.000122844
0.000122791
0.000147707
0.000161027
0.000171599
0.000144232
0.000176866
0.000137728
0.000176857
0.000137663
0.00017166
0.000138288
0.00018188
0.000161727
0.000161748
0.000161708
0.000161685
0.00013832
0.000138402
0.000182179
0.000161839
0.000161862
0.000161884
0.000138368
0.000161906
0.000171545
0.000176576
0.000137578
0.000144217
0.000171328
0.000176716
0.000137668
0.000160907
0.000147765
0.000103632
0.000122863
0.00016106
0.000147721
0.0001228
0.000160943
0.000122742
0.000147603
0.000103635
0.00016077
0.000147666
0.000122805
0.000171507
0.000144219
0.000176915
0.000137751
0.00017171
0.00017678
0.00013766
0.000171533
0.000176579
0.000137558
0.00014421
0.000171295
0.000176716
0.000137648
0.000160887
0.000147746
0.000103612
0.000122841
0.000122778
0.000147689
0.000161027
0.000160909
0.000122721
0.000147574
0.000103617
0.000160755
0.000122783
0.000147639
0.000171488
0.000144211
0.000176915
0.000137728
0.00017678
0.000137641
0.000171695
0.000138394
0.000182165
0.000161833
0.000161886
0.000161877
0.000138591
0.000182689
0.000162331
0.000162323
0.00013863
0.000162264
0.00016225
0.000138702
0.000183062
0.000162403
0.000162389
0.000138663
0.000162472
0.000162459
0.000171889
0.000144421
0.000137905
0.000177281
0.000137813
0.000177183
0.000172063
0.000161203
0.00014783
0.000122855
0.000103703
0.000122916
0.000161062
0.000147866
0.000171884
0.000144403
0.000137742
0.000176986
0.000137829
0.000171709
0.000177087
0.000161199
0.000122971
0.000103699
0.000147968
0.000122911
0.000147932
0.000161343
0.000171868
0.000144417
0.000137876
0.000177275
0.000137817
0.000177177
0.000172046
0.000161192
0.000147788
0.000122841
0.000103679
0.000161024
0.000122893
0.000147834
0.000171871
0.000144398
0.00013774
0.000176979
0.000171692
0.000137803
0.000177081
0.000161158
0.000122947
0.000103674
0.000147937
0.000122896
0.000161324
0.000147891
0.000172241
0.00013789
0.000177375
0.000144579
0.000172062
0.000137981
0.000177472
0.000161482
0.000122964
0.000148034
0.000103768
0.000148072
0.000161332
0.000123023
0.000172225
0.000137892
0.000177369
0.000144574
0.000172046
0.000137949
0.000177467
0.000161462
0.000122951
0.000147993
0.000103743
0.000161303
0.000123
0.00014804
0.000138585
0.000182668
0.000162309
0.000162335
0.000162259
0.000162238
0.000138626
0.000138697
0.000183057
0.000162375
0.000162396
0.000162445
0.000138657
0.00016247
0.000171941
0.000144404
0.000137881
0.000177286
0.000137824
0.000177202
0.000172004
0.000161155
0.000147806
0.000122853
0.000103694
0.000122905
0.000161096
0.000147846
0.00017183
0.000144399
0.000137748
0.00017702
0.000137809
0.000171771
0.000177079
0.000161238
0.000122959
0.00010369
0.000147954
0.000122908
0.000147915
0.000161298
0.000171868
0.000144402
0.000177308
0.000137888
0.000177169
0.000137799
0.000172057
0.000161209
0.000147789
0.000122836
0.000103685
0.00016101
0.000122897
0.000147847
0.000171876
0.000144403
0.000176971
0.000137725
0.00017169
0.000177104
0.000137812
0.000161143
0.000122951
0.00010368
0.000147951
0.000122891
0.000161335
0.000147893
0.000172184
0.0001379
0.000177386
0.000144582
0.000172113
0.000137957
0.000177494
0.000161436
0.000122962
0.000148015
0.000103759
0.000148056
0.00016137
0.000123012
0.000172231
0.000177353
0.000137874
0.000144581
0.000172049
0.0001775
0.000137965
0.000161464
0.000122946
0.000147995
0.000103749
0.000161292
0.000123004
0.000148052
0.00017195
0.000144419
0.000177252
0.000137879
0.000177242
0.000137821
0.000172015
0.000161161
0.000147817
0.000122847
0.000103691
0.000147855
0.000161098
0.0001229
0.00017184
0.000144398
0.000177042
0.000137742
0.000177058
0.000171776
0.000137805
0.00016124
0.000122954
0.000103687
0.000147965
0.000147919
0.000122903
0.000161303
0.000172217
0.000137899
0.000177422
0.000144574
0.000172084
0.000137956
0.000177436
0.000161447
0.000122964
0.00014803
0.000103766
0.000161388
0.00014807
0.000123016
0.00017219
0.000177409
0.000137896
0.000144575
0.000172122
0.000177453
0.000137953
0.00016144
0.000122957
0.000148014
0.000103755
0.000161373
0.000123007
0.000148058
0.000138595
0.00018271
0.000162305
0.000162328
0.000162285
0.000162262
0.000138627
0.000138698
0.000183057
0.000162399
0.000162422
0.000162443
0.000138668
0.000162466
0.000171872
0.000144397
0.000177309
0.000137884
0.000177167
0.000137794
0.000172058
0.000161186
0.000147788
0.000122836
0.000103686
0.000147853
0.000161045
0.000122897
0.000171877
0.000144396
0.00017697
0.000137721
0.000177107
0.000171692
0.000137808
0.000161181
0.000122951
0.00010368
0.000147957
0.000147897
0.000122891
0.000161327
0.000172247
0.000177342
0.000137889
0.000144581
0.000172061
0.000177499
0.000137978
0.000161492
0.000122966
0.000148036
0.000103767
0.00016134
0.00014808
0.000123025
0.000172233
0.000177345
0.000137869
0.000144574
0.000172048
0.000177486
0.00013796
0.000161466
0.000122945
0.000148001
0.00010375
0.000161314
0.000123004
0.000148055
0.000138692
0.000183038
0.000162397
0.000162387
0.000138655
0.000162449
0.000162436
0.00021066
0.000202718
0.000202728
0.000183298
0.000212848
0.000203882
0.000203892
0.000184059
0.000214926
0.000204968
0.000204979
0.000184747
0.000216895
0.000205979
0.00020599
0.000185385
0.000218754
0.000206915
0.000206927
0.000185984
0.000220504
0.000207772
0.000207783
0.000186528
0.000222148
0.000208557
0.000208568
0.000187017
0.000223686
0.000209271
0.000209282
0.000187452
0.000225123
0.000209915
0.000209926
0.000187836
0.00022646
0.000210491
0.000210501
0.000188171
0.000227697
0.000210998
0.000211008
0.000188465
0.000228831
0.000211438
0.000211448
0.000188711
0.000229859
0.000211826
0.000211836
0.000188899
0.00023079
0.000212156
0.000212166
0.000189054
0.000231633
0.000212428
0.000212439
0.000189178
0.000232394
0.000212645
0.000212658
0.000189246
0.000233075
0.00021281
0.000212824
0.00018928
0.000233661
0.000212934
0.000212946
0.000189278
0.000234284
0.000213178
0.000213187
0.000189238
0.000233958
0.000213723
0.000213736
0.000193751
0.000183269
0.000202397
0.000202377
0.00018326
0.000202409
0.000202386
0.000202412
0.000202388
0.000183264
0.000202422
0.000202398
0.000183247
0.000183297
0.000184054
0.000202703
0.000202683
0.00020358
0.000203558
0.000183287
0.000184044
0.000202715
0.000202692
0.000203592
0.000203569
0.000202694
0.000203593
0.00020357
0.000183318
0.000184051
0.000202704
0.000203604
0.00020358
0.000184039
0.000184074
0.000184766
0.000203868
0.000203846
0.000204685
0.000204662
0.000184061
0.000184776
0.00020388
0.000203857
0.000204698
0.000204673
0.000203858
0.000204697
0.000204673
0.000184081
0.000184765
0.000203868
0.000204709
0.000204685
0.000184777
0.000184792
0.000185429
0.000204956
0.000204932
0.000205712
0.000205688
0.000184757
0.000185418
0.000204968
0.000204944
0.000205724
0.0002057
0.000204944
0.000205724
0.0002057
0.000184793
0.000185428
0.000204955
0.000205735
0.000205711
0.000185453
0.000185447
0.000186042
0.000205966
0.000205943
0.000206661
0.000206638
0.000185437
0.000186031
0.000205979
0.000205954
0.000206675
0.00020665
0.000205955
0.000206674
0.000206649
0.000185446
0.000186041
0.000205966
0.000206686
0.000206662
0.000186066
0.000186043
0.0001866
0.000206903
0.000206879
0.00020754
0.000207517
0.000186032
0.000186589
0.000206916
0.000206891
0.000207555
0.000207529
0.000206891
0.000207553
0.000207528
0.000186041
0.000186598
0.000206903
0.000207566
0.000207541
0.000186623
0.000186585
0.000187103
0.00020776
0.000207736
0.000208347
0.000208324
0.000186574
0.000187092
0.000207773
0.000207748
0.000208361
0.000208335
0.000207749
0.00020836
0.000208335
0.000186583
0.0001871
0.000207761
0.000208372
0.000208348
0.000187126
0.000187073
0.000187552
0.000208545
0.00020852
0.000209081
0.000209058
0.000187062
0.000187541
0.000208558
0.000208532
0.000209096
0.000209069
0.000208533
0.000209094
0.000209069
0.00018707
0.000187549
0.000208546
0.000209106
0.000209082
0.000187575
0.000187508
0.000187949
0.000209258
0.000209234
0.000209745
0.000209722
0.000187497
0.000187939
0.000209272
0.000209246
0.00020976
0.000209733
0.000209247
0.000209758
0.000209733
0.000187505
0.000187946
0.00020926
0.000209769
0.000209747
0.000187972
0.000187892
0.000188295
0.000209902
0.000209878
0.000210342
0.000210319
0.000187881
0.000188285
0.000209917
0.000209889
0.000210357
0.000210329
0.00020989
0.000210355
0.00021033
0.000187888
0.000188291
0.000209904
0.000210366
0.000210344
0.000188321
0.000188229
0.00018858
0.000210477
0.000210454
0.000210876
0.000210852
0.000188218
0.00018857
0.000210492
0.000210464
0.000210891
0.000210863
0.000210465
0.000210889
0.000210864
0.000188225
0.000188589
0.000210479
0.0002109
0.000210877
0.000188637
0.000188564
0.000188818
0.000210984
0.000210961
0.000211348
0.000211325
0.000188553
0.000188813
0.000211
0.000210971
0.000211364
0.000211335
0.000210972
0.000211362
0.000211336
0.000188544
0.000188846
0.000210986
0.000211372
0.00021135
0.000188886
0.000188804
0.00018904
0.000211424
0.0002114
0.00021175
0.000211727
0.000188794
0.000189019
0.00021144
0.00021141
0.000211766
0.000211737
0.000211412
0.000211765
0.000211738
0.000188776
0.000189036
0.000211426
0.000211775
0.000211752
0.000189076
0.000188959
0.000189189
0.000211812
0.000211788
0.00021209