/*--------------------------------*- C++ -*----------------------------------*\
| =========                 |                                                 |
| \\      /  F ield         | OpenFOAM: The Open Source CFD Toolbox           |
|  \\    /   O peration     | Version:  2312                                  |
|   \\  /    A nd           | Website:  www.openfoam.com                      |
|    \\/     M anipulation  |                                                 |
\*---------------------------------------------------------------------------*/
FoamFile
{
    version     2.0;
    format      ascii;
    arch        "LSB;label=32;scalar=64";
    class       volScalarField;
    location    "700";
    object      p;
}
// * * * * * * * * * * * * * * * * * * * * * * * * * * * * * * * * * * * * * //

dimensions      [0 2 -2 0 0 0 0];

internalField   nonuniform List<scalar> 
172512
(
0.00071085
0.000710798
0.000710798
0.000712374
0.000718022
0.000719633
0.000719633
0.000718021
0.000719633
0.000719633
0.000719633
0.000719633
0.000718022
0.000719634
0.000719633
0.000718022
0.000712374
0.000710798
0.000710798
0.000712374
0.000710798
0.000710798
0.000710798
0.000712374
0.000710798
0.000735138
0.000735136
0.000735138
0.000719686
0.000719686
0.000719686
0.000719686
0.000735137
0.000737299
0.000735174
0.0006998
0.000712942
0.00071293
0.000699802
0.000712949
0.000699801
0.0006998
0.000712942
0.00071293
0.000699802
0.00071085
0.00071085
0.00071085
0.000699882
0.000712894
0.000710818
0.000701961
0.000712845
0.000699838
0.000701981
0.000712949
0.000699801
0.000699882
0.000710818
0.000712894
0.000701961
0.000712845
0.00070198
0.000699838
0.000712941
0.000712941
0.000700349
0.000699796
0.000699796
0.000735137
0.000735138
0.000735688
0.000735132
0.000735132
0.000717472
0.000730615
0.000717473
0.000730615
0.000730042
0.000717467
0.000717467
0.000730607
0.000730608
0.000737299
0.000735174
0.000730596
0.000717473
0.000730608
0.000717471
0.000730596
0.000717474
0.000730608
0.000717471
0.000730512
0.000728467
0.000717509
0.000719653
0.000730561
0.000728487
0.000717553
0.000730512
0.000728468
0.000717509
0.000719653
0.00073056
0.000728488
0.000717553
0.000717472
0.000730615
0.000730041
0.000717467
0.000717467
0.000730607
0.000717473
0.000735219
0.000737299
0.000735174
0.00073732
0.000735136
0.000735138
0.000735219
0.0007373
0.00073732
0.000735174
0.000730596
0.000717473
0.000730608
0.000717471
0.000730512
0.000728467
0.000717509
0.000719653
0.000730561
0.000728487
0.000717553
0.000730596
0.000717473
0.000730608
0.000717471
0.000730512
0.000728467
0.000719653
0.000717509
0.000728487
0.000730561
0.000717553
0.000717509
0.000719653
0.000717553
0.000717474
0.000717471
0.000719653
0.000717508
0.000717553
0.000717473
0.000717471
0.000735688
0.000735131
0.000735132
0.000735137
0.000717472
0.000730615
0.000730042
0.000717467
0.000717467
0.000730608
0.000730608
0.000717472
0.000730615
0.000735138
0.000730512
0.000728467
0.000719654
0.000717509
0.000728488
0.000730561
0.000717553
0.000730512
0.000728467
0.000719653
0.000717509
0.000728487
0.000730561
0.000717553
0.000730595
0.000717474
0.000730608
0.000717472
0.000730595
0.000717473
0.000730608
0.000717472
0.000730041
0.000717467
0.000717467
0.000730608
0.000717472
0.000717472
0.000730615
0.000712949
0.000699801
0.000712949
0.000699801
0.000712941
0.000712941
0.00070035
0.000699796
0.000699796
0.000695276
0.000695276
0.0006947
0.000695268
0.000695269
0.0006998
0.000712941
0.000712929
0.000699803
0.000699881
0.000712894
0.000710818
0.000701961
0.000712845
0.000699837
0.000701981
0.000699881
0.000712894
0.000710817
0.000701961
0.000712845
0.000699838
0.000701981
0.000695257
0.000695269
0.000695257
0.000695269
0.000695172
0.000693123
0.000695221
0.000693142
0.000695172
0.000693123
0.000695221
0.000693142
0.000712941
0.000712941
0.00070035
0.000699796
0.000699796
0.000712949
0.000699802
0.000695276
0.0006947
0.000695268
0.000695268
0.000695276
0.000699881
0.000712894
0.000710818
0.000701962
0.000712845
0.000699837
0.000701981
0.0006998
0.000712942
0.000712929
0.000699802
0.000699881
0.000710818
0.000712894
0.000701961
0.000712845
0.000701981
0.000699837
0.000695257
0.000695269
0.000695172
0.000693123
0.000695221
0.000693142
0.000695257
0.000695269
0.000695172
0.000693123
0.000693142
0.000695221
0.000699801
0.000712941
0.000712929
0.000699803
0.000699881
0.000710818
0.000712894
0.000701961
0.000712845
0.000701981
0.000699838
0.0006998
0.000712942
0.000712929
0.000699802
0.000695172
0.000693123
0.000695221
0.000693142
0.000695256
0.000695269
0.000695172
0.000693123
0.000693142
0.000695222
0.000695257
0.000695269
0.000712941
0.000712941
0.00070035
0.000699796
0.000699796
0.000712949
0.000699802
0.000695276
0.0006947
0.000695269
0.000695269
0.000695276
0.000699882
0.000710818
0.000712894
0.000701961
0.000712845
0.00070198
0.000699838
0.000699801
0.000712942
0.000712929
0.000699803
0.000699801
0.000712942
0.000712929
0.000699803
0.000695172
0.000693123
0.000693142
0.000695222
0.000695172
0.000693123
0.000693142
0.000695222
0.000695256
0.000695269
0.000695256
0.000695269
0.000712949
0.000699802
0.000712949
0.000699802
0.0006947
0.000695269
0.000695269
0.000695276
0.000695276
0.00073945
0.000735126
0.000739439
0.000739443
0.000735134
0.000739449
0.000739427
0.000735135
0.00073513
0.00073943
0.000739447
0.00073513
0.00073945
0.000735126
0.000739439
0.000739443
0.000735135
0.000739446
0.000704116
0.000704094
0.000699794
0.000699799
0.000704114
0.000704097
0.000699795
0.000708635
0.000712946
0.000708639
0.000712953
0.000708626
0.000708631
0.000708636
0.00071295
0.000712933
0.000712952
0.000708631
0.000708635
0.000704118
0.00069979
0.000704106
0.00070411
0.000699799
0.000708638
0.000704113
0.000704116
0.000704094
0.000699799
0.000699794
0.000704097
0.000704114
0.000699794
0.000708635
0.000712946
0.000708639
0.000712953
0.000708626
0.000708631
0.000708636
0.000712933
0.00071295
0.000712952
0.000708635
0.000708631
0.000704118
0.00069979
0.000704106
0.00070411
0.000699799
0.000708638
0.000704113
0.00070412
0.000699797
0.000699797
0.000704123
0.000704123
0.000699787
0.000708655
0.000712884
0.000712944
0.000708632
0.000712918
0.000708685
0.00070864
0.000708655
0.000712884
0.000712945
0.000708632
0.000712918
0.000708685
0.00070864
0.000708624
0.000712959
0.000712959
0.000712955
0.000708633
0.000708633
0.000704082
0.000699804
0.000704106
0.000699848
0.000704048
0.000704109
0.000699819
0.000704082
0.000699804
0.000704106
0.000699848
0.000704048
0.000704109
0.000699819
0.000739446
0.000739446
0.000739453
0.000735133
0.000735133
0.000739456
0.000739456
0.000735123
0.000739415
0.00073514
0.000739438
0.000735185
0.000739442
0.000735155
0.000739381
0.000739415
0.00073514
0.000739439
0.000735185
0.000739442
0.000735155
0.000739382
0.000721783
0.000726306
0.000721783
0.000726306
0.000726292
0.000730625
0.000730625
0.000730622
0.000726301
0.000726301
0.000721751
0.00071752
0.000721775
0.000717475
0.000721778
0.000721718
0.00071749
0.000721751
0.00071752
0.000721775
0.000717475
0.000721778
0.000721718
0.00071749
0.000726323
0.000730611
0.00073055
0.0007263
0.000730584
0.000726308
0.000726353
0.000726323
0.000730611
0.000730551
0.0007263
0.000730584
0.000726308
0.000726353
0.000721789
0.000717468
0.000717468
0.000721793
0.000721793
0.000717459
0.000726299
0.000730616
0.000730599
0.000726304
0.000730618
0.000726299
0.000726303
0.000721787
0.000721776
0.000717461
0.00071747
0.00072178
0.000726303
0.000730612
0.000726307
0.00073062
0.000726294
0.000721786
0.000721764
0.000717466
0.00071747
0.000717466
0.000721784
0.000721767
0.000726299
0.000730616
0.000730599
0.000726304
0.000730618
0.000726298
0.000726303
0.000721787
0.000721775
0.000717461
0.00072178
0.00071747
0.000726303
0.000730612
0.000726307
0.00073062
0.000726294
0.000721786
0.000721764
0.000717466
0.00071747
0.000721784
0.000721767
0.000717466
0.000721783
0.000726305
0.000721751
0.00071752
0.000721775
0.000717475
0.000721718
0.000721778
0.00071749
0.000721751
0.000717519
0.000721775
0.000717475
0.000721778
0.000721717
0.00071749
0.00073055
0.0007263
0.000726353
0.000721789
0.000717468
0.000717468
0.000721792
0.000721793
0.000717459
0.000721783
0.000739449
0.000739427
0.00073513
0.000735135
0.000739447
0.00073943
0.00073513
0.00073945
0.000735125
0.000739439
0.000739443
0.000735134
0.000726299
0.000730599
0.000730616
0.000726304
0.000730618
0.000726303
0.000726299
0.000721787
0.000721776
0.000717461
0.00071747
0.00072178
0.000726303
0.000730612
0.000726307
0.00073062
0.000726294
0.000721786
0.000721764
0.00071747
0.000717465
0.000717466
0.000721767
0.000721784
0.000726299
0.000730616
0.000730599
0.000726304
0.000730618
0.000726299
0.000726303
0.000721787
0.000721776
0.000717461
0.00072178
0.000717469
0.000726303
0.000730612
0.000726306
0.00073062
0.000726294
0.000721786
0.000721764
0.000717465
0.00071747
0.000721784
0.000721767
0.000717465
0.000721787
0.000721776
0.000717461
0.000721779
0.000717469
0.000721785
0.000721763
0.00071747
0.000717465
0.000721766
0.000721783
0.000717466
0.000721787
0.000721775
0.00071746
0.00072178
0.000717469
0.000721786
0.000721763
0.000717465
0.00071747
0.000721783
0.000721766
0.000717465
0.000739452
0.000735132
0.000735133
0.000739456
0.000739456
0.000735123
0.000739415
0.00073514
0.000739438
0.000735184
0.000739442
0.000739382
0.000735155
0.000739415
0.00073514
0.000739438
0.000735185
0.000739382
0.000739442
0.000735154
0.000739446
0.000721783
0.000726305
0.000726292
0.000730625
0.000730625
0.000730622
0.000726301
0.000726301
0.000721752
0.000717519
0.000721775
0.000717475
0.000721718
0.000721778
0.00071749
0.000721752
0.00071752
0.000721775
0.000717475
0.000721778
0.000721718
0.00071749
0.000726323
0.000730611
0.000730551
0.0007263
0.000726353
0.000730584
0.000726308
0.000726323
0.000730611
0.000730551
0.0007263
0.000730584
0.000726308
0.000726353
0.000721789
0.000717468
0.000717468
0.000721793
0.000721793
0.000717459
0.000721783
0.000726306
0.000739439
0.000726299
0.000730599
0.000730616
0.000726305
0.000730618
0.000726303
0.000726299
0.000721787
0.000721776
0.000717461
0.00072178
0.00071747
0.000726303
0.000730612
0.000726307
0.00073062
0.000726294
0.000721786
0.000721763
0.00071747
0.000717466
0.000721767
0.000721784
0.000717466
0.000726299
0.000730599
0.000730616
0.000726305
0.000730618
0.000726303
0.000726299
0.000721787
0.000721776
0.000717461
0.00072178
0.000717469
0.000726303
0.000730612
0.000726307
0.00073062
0.000726294
0.000721786
0.000721763
0.00071747
0.000717466
0.000721766
0.000721784
0.000717465
0.000726292
0.000726301
0.000726301
0.000721751
0.000717519
0.000721775
0.000717475
0.00071749
0.000721718
0.000721778
0.000721752
0.00071752
0.000721775
0.000717475
0.00071749
0.000721718
0.000721778
0.000726323
0.0007263
0.000726353
0.000726308
0.000726323
0.00073055
0.0007263
0.000726353
0.000726308
0.000721789
0.000717468
0.000717468
0.000717458
0.000721793
0.000721793
0.000721783
0.000726306
0.000721783
0.000726306
0.000708638
0.000704113
0.000708638
0.000704113
0.00070412
0.000699797
0.000699797
0.000704123
0.000704123
0.000699787
0.000708655
0.000712884
0.000712944
0.000708632
0.000712917
0.00070864
0.000708685
0.000708655
0.000712884
0.000712944
0.000708632
0.000712917
0.00070864
0.000708685
0.000708624
0.000712959
0.000712959
0.000712955
0.000708633
0.000708633
0.000704082
0.000699804
0.000704105
0.000699848
0.000704109
0.000699819
0.000704048
0.000704082
0.000699804
0.000704106
0.000699848
0.000704109
0.000699819
0.000704048
0.000690963
0.000690963
0.000690949
0.000695286
0.000695286
0.000695283
0.000690959
0.000690959
0.000690981
0.000695272
0.000695211
0.000690958
0.000695244
0.000690966
0.00069101
0.000690981
0.000695272
0.000695211
0.000690958
0.000695244
0.000690966
0.00069101
0.000704116
0.000704094
0.000699794
0.000699799
0.000704114
0.000704097
0.000699794
0.000708635
0.000712946
0.000708639
0.000712953
0.000708626
0.000708631
0.000708636
0.00071295
0.000712933
0.000708631
0.000712952
0.000708635
0.000704118
0.00069979
0.000704106
0.00070411
0.000699799
0.000690957
0.000695277
0.00069526
0.000690962
0.000695279
0.000690956
0.000690961
0.000690961
0.000695273
0.000690964
0.000695281
0.000690952
0.000690957
0.000695277
0.00069526
0.000690962
0.000695279
0.000690956
0.000690961
0.000690961
0.000695273
0.000690965
0.000695281
0.000690952
0.00070412
0.000699797
0.000699797
0.000704123
0.000704123
0.000699788
0.000708655
0.000712884
0.000712944
0.000708632
0.00070864
0.000712917
0.000708685
0.000708655
0.000712883
0.000712944
0.000708632
0.000708685
0.000712917
0.00070864
0.000708624
0.000712958
0.000712958
0.000708633
0.000712955
0.000708633
0.000704082
0.000699804
0.000704105
0.000699848
0.000704109
0.000704048
0.000699819
0.000704082
0.000699804
0.000704106
0.000699849
0.000704048
0.000704109
0.000699819
0.000708638
0.000704113
0.000690963
0.00069095
0.000695286
0.000695286
0.000695283
0.000690959
0.000690959
0.000690981
0.000695272
0.000695211
0.000690958
0.00069101
0.000695245
0.000690966
0.000690981
0.000695272
0.000695211
0.000690958
0.000695244
0.000690966
0.00069101
0.000690964
0.000704116
0.000704094
0.000699794
0.000699799
0.000704114
0.000704097
0.000699795
0.000708635
0.000712946
0.000708639
0.000712953
0.000708626
0.000708631
0.000708636
0.00071295
0.000712933
0.000708631
0.000712952
0.000708635
0.000704118
0.00069979
0.000704106
0.00070411
0.000699799
0.000690957
0.00069526
0.000695277
0.000690962
0.000695279
0.000690961
0.000690956
0.000690961
0.000695273
0.000690964
0.000695281
0.000690952
0.000690957
0.000695277
0.00069526
0.000690962
0.000695279
0.000690956
0.000690961
0.000690961
0.000695273
0.000690964
0.000695281
0.000690952
0.000704116
0.000704094
0.0006998
0.000699795
0.000704096
0.000704114
0.000699795
0.000708635
0.000712945
0.000708639
0.000708627
0.000712953
0.000708631
0.000708637
0.000712932
0.00071295
0.000708636
0.000712951
0.000708631
0.000704118
0.00069979
0.000704106
0.00070411
0.000699798
0.000704116
0.000704094
0.000699794
0.000699799
0.000704114
0.000704097
0.000699795
0.000708635
0.000712946
0.000708639
0.000712953
0.000708626
0.000708631
0.000708636
0.00071295
0.000712932
0.000712952
0.000708631
0.000708635
0.000704118
0.00069979
0.000704106
0.00070411
0.000699799
0.000690957
0.000695259
0.000695277
0.000690963
0.000695279
0.000690962
0.000690957
0.000690961
0.000695273
0.000690965
0.000695281
0.000690952
0.000690957
0.000695277
0.00069526
0.000690962
0.000695279
0.000690957
0.000690961
0.000690961
0.000695273
0.000690965
0.000695281
0.000690952
0.00070412
0.000699797
0.000699797
0.000704123
0.000704123
0.000699787
0.000708655
0.000712885
0.000712945
0.000708632
0.00070864
0.000712918
0.000708684
0.000708655
0.000712884
0.000712945
0.000708632
0.000708685
0.000712918
0.00070864
0.000708624
0.000712959
0.000712959
0.000708633
0.000712955
0.000708633
0.000704082
0.000699804
0.000704106
0.000699848
0.000704109
0.000704049
0.000699818
0.000704082
0.000699804
0.000704106
0.000699848
0.000704048
0.000704109
0.000699819
0.000708638
0.000704114
0.000690963
0.000690949
0.000695286
0.000695286
0.000695283
0.000690959
0.000690959
0.00069098
0.000695272
0.000695211
0.000690958
0.00069101
0.000695245
0.000690966
0.000690981
0.000695272
0.000695211
0.000690958
0.000695245
0.000690966
0.00069101
0.000690964
0.000704117
0.000704094
0.000699799
0.000699795
0.000704097
0.000704114
0.000699795
0.000708635
0.000712946
0.000708639
0.000708626
0.000712954
0.000708631
0.000708637
0.000712933
0.00071295
0.000708635
0.000712952
0.000708631
0.000704118
0.00069979
0.000704106
0.000704111
0.000699799
0.000704116
0.000704093
0.000699799
0.000699795
0.000704097
0.000704114
0.000699795
0.000708635
0.000712946
0.000708639
0.000712953
0.000708626
0.000708631
0.000708637
0.000712932
0.00071295
0.000712952
0.000708636
0.000708631
0.000704118
0.00069979
0.000704106
0.00070411
0.000699799
0.000690957
0.00069526
0.000695277
0.000690963
0.000695279
0.000690961
0.000690957
0.000690961
0.000695273
0.000690965
0.000695281
0.000690952
0.000690957
0.00069526
0.000695277
0.000690963
0.000695279
0.000690961
0.000690957
0.000690961
0.000695273
0.000690965
0.000695281
0.000690952
0.000708638
0.000704113
0.000708638
0.000704114
0.000690949
0.000695286
0.000695286
0.000695283
0.000690959
0.000690959
0.000690981
0.000695272
0.000695211
0.000690958
0.000695245
0.00069101
0.000690966
0.00069098
0.000695272
0.000695211
0.000690958
0.000695245
0.00069101
0.000690966
0.000690964
0.000690964
0.000737353
0.000737386
0.000710882
0.000710882
0.000702013
0.000702044
0.000702044
0.000702089
0.000710927
0.000708756
0.000712653
0.000712654
0.000709186
0.000712816
0.000708929
0.000708928
0.000721649
0.000721208
0.000717764
0.000717763
0.000721487
0.000721488
0.000717591
0.000721649
0.000721207
0.000717765
0.000717763
0.000721489
0.000721486
0.000717591
0.00072165
0.000721209
0.000717764
0.000717764
0.000721487
0.000721488
0.000717591
0.00072165
0.000721209
0.000717764
0.000717764
0.000717591
0.000721488
0.000721488
0.000708756
0.000712654
0.000712654
0.000709187
0.000712815
0.000708929
0.000708928
0.000708756
0.000712653
0.000712653
0.000709187
0.000708929
0.000712815
0.000708929
0.000708756
0.000712653
0.000712654
0.000709187
0.000708929
0.000712816
0.000708929
0.000737353
0.000737386
0.00072852
0.000719718
0.000719718
0.000728553
0.000728553
0.0007286
0.000719764
0.00072852
0.000719718
0.000719719
0.000728553
0.000728551
0.0007286
0.000719764
0.000728521
0.000719718
0.000719719
0.000728553
0.000728554
0.0007286
0.000719764
0.00072852
0.000719718
0.000719718
0.000728552
0.000728553
0.000728601
0.000719764
0.000739391
0.000735335
0.000739243
0.000710882
0.000710882
0.000702012
0.000702044
0.000702044
0.000702089
0.000710927
0.000710882
0.000710882
0.000702012
0.000702044
0.000702044
0.000702089
0.000710927
0.000710882
0.000710882
0.000702012
0.000702044
0.000702044
0.000702089
0.000710927
0.000693173
0.000693204
0.000693205
0.000693249
0.000693173
0.000693204
0.000693204
0.000693249
0.000693173
0.000693205
0.000693204
0.000693249
0.000693173
0.000693205
0.000693204
0.000693249
0.000703777
0.000704009
0.000699879
0.000700117
0.000704014
0.000703779
0.000700122
0.00070892
0.000712745
0.000712863
0.000708674
0.000712641
0.000708835
0.000708701
0.000708958
0.000708718
0.000712849
0.000712615
0.000712613
0.000708715
0.000708953
0.000703805
0.000699864
0.000704059
0.000699998
0.000703909
0.000704029
0.000700083
0.000703777
0.000704009
0.000700117
0.000699878
0.000703779
0.000704014
0.000700122
0.000708919
0.000712746
0.000712865
0.000708674
0.000712641
0.000708835
0.0007087
0.000708959
0.000708718
0.000712615
0.00071285
0.000712613
0.000708954
0.000708715
0.000703805
0.000699863
0.000704059
0.000699998
0.00070391
0.000704029
0.000700083
0.00070398
0.000703538
0.000700092
0.000700092
0.000703817
0.000703818
0.000699919
0.000739313
0.000738873
0.00073543
0.000735429
0.000735257
0.000739152
0.000739152
0.000726424
0.000726856
0.000730321
0.000730321
0.000730482
0.000726598
0.000726597
0.00073914
0.000735201
0.000739392
0.000735335
0.000739362
0.000739243
0.000735421
0.000726628
0.000730516
0.000730283
0.000726387
0.000730281
0.000726384
0.000726623
0.000721475
0.000717669
0.000721728
0.000717535
0.00072158
0.000721698
0.000717755
0.000726588
0.000730531
0.000730412
0.000726342
0.000726503
0.000730308
0.000726369
0.000721448
0.00072168
0.00071755
0.000717789
0.000721684
0.00072145
0.000717794
0.000726628
0.000730516
0.000730282
0.000726387
0.00073028
0.000726383
0.000726623
0.000721475
0.000717669
0.000721728
0.000717535
0.000721698
0.000721579
0.000717755
0.000726588
0.00073053
0.000730412
0.000726342
0.000730308
0.000726368
0.000726503
0.000721447
0.00072168
0.00071755
0.000717789
0.000721684
0.000721449
0.000717794
0.000726857
0.000730318
0.000726598
0.000739111
0.000739343
0.000735216
0.000735455
0.000739347
0.000739114
0.00073546
0.000739139
0.000735201
0.000739392
0.000735335
0.000739362
0.000739243
0.000735421
0.000739112
0.000739343
0.000735455
0.000735215
0.000739114
0.000739347
0.00073546
0.00073914
0.0007352
0.000739391
0.000735335
0.000739362
0.000735421
0.000739243
0.000726628
0.000730517
0.000730283
0.000726387
0.00073028
0.000726383
0.000726623
0.000721475
0.000717669
0.000721728
0.000717535
0.000721579
0.000721698
0.000717755
0.000726589
0.000730531
0.000730412
0.000726342
0.000726503
0.000730308
0.000726368
0.000721447
0.000721679
0.00071755
0.000717789
0.000721684
0.00072145
0.000717794
0.000726628
0.000730283
0.000730516
0.000726387
0.000730281
0.000726623
0.000726383
0.000721475
0.000717669
0.000721728
0.000717535
0.000721699
0.00072158
0.000717754
0.000726588
0.000730531
0.000730412
0.000726342
0.000730308
0.000726368
0.000726503
0.000721448
0.000721679
0.000717789
0.00071755
0.00072145
0.000721684
0.000717794
0.000721475
0.000717669
0.000721728
0.000717535
0.000717754
0.000721578
0.000721698
0.000721447
0.000721679
0.00071755
0.000717788
0.000717793
0.000721683
0.000721449
0.000721475
0.000717669
0.000721728
0.000717535
0.000721698
0.000721579
0.000717754
0.000721447
0.000721679
0.000717788
0.00071755
0.000721449
0.000721683
0.000717793
0.000739313
0.000738873
0.00073543
0.00073543
0.000739152
0.000739151
0.000735256
0.000726424
0.000726856
0.00073032
0.00073032
0.000726598
0.000730482
0.000726597
0.000726628
0.000730283
0.000730516
0.000726387
0.000730281
0.000726623
0.000726383
0.000721476
0.00071767
0.000721728
0.000717535
0.000717755
0.00072158
0.000721698
0.000726588
0.000730531
0.000730412
0.000726342
0.000730309
0.000726503
0.000726368
0.000721448
0.000721679
0.000717789
0.00071755
0.000717794
0.00072145
0.000721684
0.000726628
0.000730283
0.000730516
0.000726387
0.00073028
0.000726623
0.000726383
0.000721475
0.00071767
0.000721728
0.000717535
0.000721698
0.000721579
0.000717755
0.000726588
0.000730531
0.000730412
0.000726342
0.000730308
0.000726368
0.000726503
0.000721447
0.000721679
0.000717789
0.00071755
0.00072145
0.000721683
0.000717794
0.000726425
0.000726855
0.000730317
0.0007266
0.000726596
0.00070398
0.000703538
0.000700092
0.000700091
0.000699919
0.000703817
0.000703818
0.000691081
0.000691511
0.00069498
0.000694981
0.000695142
0.000691253
0.000691253
0.000703777
0.000704009
0.000699878
0.000700117
0.000704014
0.000703779
0.000700122
0.00070892
0.000712745
0.000712864
0.000708674
0.0007087
0.000712641
0.000708834
0.000708959
0.000708718
0.000712849
0.000712615
0.000708715
0.000712613
0.000708953
0.000703805
0.000699864
0.000704059
0.000699998
0.000704028
0.00070391
0.000700083
0.000703777
0.000704009
0.000699878
0.000700117
0.000704014
0.000703779
0.000700122
0.00070892
0.000712744
0.000712864
0.000708674
0.00071264
0.0007087
0.000708835
0.000708959
0.000708718
0.000712849
0.000712615
0.000712613
0.000708715
0.000708953
0.000703804
0.000699863
0.000704058
0.000699998
0.000704028
0.000700083
0.000703909
0.000691284
0.000695176
0.000694941
0.000691043
0.00069494
0.00069104
0.000691278
0.000691244
0.000695191
0.000695072
0.000690999
0.00069116
0.000694967
0.000691025
0.000691284
0.000695176
0.000694941
0.000691043
0.000694939
0.00069104
0.000691278
0.000691245
0.000695191
0.000695071
0.000691
0.000694967
0.000691025
0.00069116
0.00070398
0.000703538
0.000700092
0.000700092
0.000703818
0.000703817
0.00069992
0.000691081
0.000691511
0.000694979
0.00069498
0.000691254
0.000695142
0.000691254
0.000703777
0.000704009
0.000699878
0.000700117
0.000704014
0.000703779
0.000700122
0.00070892
0.000712745
0.000712864
0.000708674
0.0007087
0.000712641
0.000708834
0.000708959
0.000708718
0.000712849
0.000712615
0.000708715
0.000712613
0.000708954
0.000703805
0.000699864
0.000704058
0.000699998
0.000704028
0.000703909
0.000700083
0.000703777
0.000704009
0.000700117
0.000699878
0.000703779
0.000704014
0.000700122
0.000708919
0.000712746
0.000712865
0.000708674
0.000712641
0.0007087
0.000708834
0.000708959
0.000708718
0.000712615
0.00071285
0.000712613
0.000708954
0.000708715
0.000703805
0.000699863
0.000704059
0.000699997
0.000704029
0.000700083
0.00070391
0.000691284
0.000695176
0.000694941
0.000691043
0.000694939
0.00069104
0.000691279
0.000691245
0.000695191
0.000695072
0.000690999
0.00069116
0.000694967
0.000691025
0.000691284
0.000694941
0.000695177
0.000691043
0.00069494
0.000691278
0.00069104
0.000691244
0.000695191
0.000695073
0.000690999
0.000694968
0.000691025
0.000691159
0.000703778
0.000704009
0.000700117
0.000699879
0.000703779
0.000704014
0.000700122
0.000708919
0.000712746
0.000712864
0.000708674
0.000708834
0.000712641
0.0007087
0.000708958
0.000708718
0.000712615
0.000712849
0.000708953
0.000712613
0.000708715
0.000703805
0.000699864
0.000704059
0.000699998
0.00070391
0.000704029
0.000700083
0.000691284
0.000695176
0.000694942
0.000691044
0.00069494
0.000691041
0.000691278
0.000691245
0.000695191
0.000695072
0.000690999
0.000694967
0.00069116
0.000691026
0.000691283
0.000694942
0.000695177
0.000691043
0.00069494
0.000691278
0.00069104
0.000691244
0.000695191
0.000695073
0.000690999
0.000694968
0.000691025
0.000691159
0.00070398
0.000703538
0.000700092
0.000700092
0.000703818
0.000703817
0.000699919
0.000691081
0.000691511
0.00069498
0.00069498
0.000691254
0.000695143
0.000691253
0.000703777
0.000704009
0.000700117
0.000699879
0.000703779
0.000704014
0.000700122
0.00070892
0.000712745
0.000712864
0.000708674
0.000708835
0.000712641
0.0007087
0.000708959
0.000708718
0.000712615
0.000712849
0.000708954
0.000712613
0.000708715
0.000703805
0.000699864
0.000704059
0.000699998
0.00070391
0.000704029
0.000700083
0.000691284
0.000694942
0.000695177
0.000691043
0.00069494
0.000691278
0.00069104
0.000691244
0.000695192
0.000695072
0.000690999
0.000694968
0.00069116
0.000691025
0.000691284
0.000694941
0.000695176
0.000691043
0.000694939
0.000691278
0.00069104
0.000691245
0.000695191
0.000695072
0.000690999
0.000694968
0.000691025
0.00069116
0.000691081
0.000691511
0.00069498
0.00069498
0.000695143
0.000691254
0.000691253
0.00067549
0.000675441
0.000675441
0.00067702
0.000640103
0.000640057
0.000640057
0.000641638
0.000604688
0.000604644
0.000604644
0.000606228
0.000569242
0.000569201
0.000569201
0.000570788
0.000533764
0.000533726
0.000533726
0.000535315
0.000498254
0.000498218
0.000498218
0.00049981
0.00046271
0.000462677
0.000462677
0.000464272
0.000427132
0.000427101
0.0004271
0.000428698
0.000391518
0.000391489
0.00039149
0.00039309
0.000355869
0.000355842
0.000355843
0.000357446
0.000320184
0.000320159
0.000320159
0.000321766
0.000284463
0.00028444
0.00028444
0.000286049
0.000248706
0.000248685
0.000248685
0.000250296
0.000212912
0.000212893
0.000212893
0.000214507
0.000177082
0.000177064
0.000177064
0.00017868
0.000141213
0.000141197
0.000141197
0.000142817
0.000105304
0.000105289
0.000105288
0.000106912
6.93649e-05
6.93356e-05
6.9335e-05
7.09587e-05
3.40292e-05
3.34894e-05
3.34862e-05
3.49302e-05
1.09742e-05
7.25586e-06
7.25344e-06
5.71949e-06
0.000682671
0.000684283
0.000684283
0.000682671
0.000684283
0.000684283
0.000684283
0.000684283
0.000682671
0.000684283
0.000684283
0.000682671
0.00067702
0.000647293
0.000675441
0.000675441
0.000648906
0.000648906
0.000677019
0.000647294
0.000675441
0.000675441
0.000648906
0.000648906
0.000675441
0.000648906
0.000648906
0.00067702
0.000647293
0.000675441
0.000648906
0.000648906
0.000647293
0.000641638
0.000611887
0.000640057
0.000640057
0.0006135
0.0006135
0.000641638
0.000611887
0.000640057
0.000640057
0.0006135
0.0006135
0.000640057
0.0006135
0.0006135
0.000641638
0.000611887
0.000640057
0.0006135
0.0006135
0.000611887
0.000606228
0.000576451
0.000604644
0.000604644
0.000578065
0.000578065
0.000606228
0.000576451
0.000604644
0.000604644
0.000578065
0.000578065
0.000604644
0.000578065
0.000578065
0.000606228
0.000576451
0.000604644
0.000578065
0.000578065
0.000576451
0.000570787
0.000540983
0.000569201
0.000569201
0.000542598
0.000542598
0.000570787
0.000540983
0.000569201
0.000569201
0.000542598
0.000542598
0.000569201
0.000542598
0.000542598
0.000570787
0.000540983
0.000569201
0.000542598
0.000542598
0.000540983
0.000535315
0.000505483
0.000533726
0.000533726
0.000507098
0.000507098
0.000535315
0.000505483
0.000533726
0.000533726
0.000507098
0.000507098
0.000533726
0.000507098
0.000507098
0.000535315
0.000505483
0.000533726
0.000507098
0.000507098
0.000505483
0.00049981
0.000469949
0.000498218
0.000498218
0.000471565
0.000471565
0.00049981
0.000469949
0.000498218
0.000498218
0.000471565
0.000471565
0.000498218
0.000471565
0.000471565
0.00049981
0.000469949
0.000498218
0.000471565
0.000471565
0.000469949
0.000464271
0.000434381
0.000462677
0.000462677
0.000435998
0.000435998
0.000464271
0.000434381
0.000462677
0.000462677
0.000435998
0.000435997
0.000462677
0.000435998
0.000435997
0.000464271
0.00043438
0.000462677
0.000435997
0.000435997
0.00043438
0.000428698
0.000398777
0.000427101
0.000427101
0.000400395
0.000400395
0.000428698
0.000398777
0.000427101
0.0004271
0.000400395
0.000400395
0.0004271
0.000400395
0.000400395
0.000428698
0.000398777
0.0004271
0.000400395
0.000400395
0.000398777
0.00039309
0.000363138
0.000391489
0.000391489
0.000364757
0.000364757
0.000393089
0.000363138
0.000391489
0.000391489
0.000364757
0.000364757
0.000391489
0.000364757
0.000364757
0.00039309
0.000363138
0.00039149
0.000364757
0.000364757
0.000363138
0.000357445
0.000327463
0.000355842
0.000355842
0.000329083
0.000329083
0.000357445
0.000327463
0.000355842
0.000355842
0.000329083
0.000329083
0.000355842
0.000329083
0.000329083
0.000357446
0.000327463
0.000355843
0.000329083
0.000329083
0.000327463
0.000321765
0.000291752
0.000320159
0.000320159
0.000293372
0.000293372
0.000321765
0.000291752
0.000320159
0.000320159
0.000293372
0.000293372
0.000320159
0.000293372
0.000293372
0.000321765
0.000291752
0.000320159
0.000293372
0.000293372
0.000291752
0.000286049
0.000256005
0.00028444
0.00028444
0.000257626
0.000257626
0.000286048
0.000256005
0.00028444
0.00028444
0.000257626
0.000257626
0.00028444
0.000257626
0.000257626
0.000286049
0.000256005
0.00028444
0.000257626
0.000257626
0.000256005
0.000250296
0.000220222
0.000248685
0.000248685
0.000221843
0.000221843
0.000250295
0.000220222
0.000248685