/*--------------------------------*- C++ -*----------------------------------*\
| =========                 |                                                 |
| \\      /  F ield         | OpenFOAM: The Open Source CFD Toolbox           |
|  \\    /   O peration     | Version:                                        |
|   \\  /    A nd           | Website:  www.openfoam.com                      |
|    \\/     M anipulation  |                                                 |
\*---------------------------------------------------------------------------*/
FoamFile
{
    version     2.0;
    format      ascii;
    class       volScalarField;
    location    "16350.5";
    object      p;
}
// * * * * * * * * * * * * * * * * * * * * * * * * * * * * * * * * * * * * * //

dimensions      [0 2 -2 0 0 0 0];


internalField   nonuniform List<scalar> 
247096
(
1.20093e-07
1.20095e-07
1.20239e-07
1.20325e-07
1.20358e-07
1.20316e-07
1.20226e-07
1.20071e-07
1.20095e-07
1.20294e-07
1.20471e-07
1.20564e-07
1.20587e-07
1.20557e-07
1.20453e-07
1.2027e-07
1.20239e-07
1.20471e-07
1.20611e-07
1.20653e-07
1.2066e-07
1.20651e-07
1.20601e-07
1.20444e-07
1.20212e-07
1.20325e-07
1.20564e-07
1.20653e-07
1.20665e-07
1.20664e-07
1.20665e-07
1.20648e-07
1.20542e-07
1.20292e-07
1.20093e-07
1.20358e-07
1.20587e-07
1.2066e-07
1.20664e-07
1.20661e-07
1.20665e-07
1.20657e-07
1.20567e-07
1.20323e-07
1.20316e-07
1.20557e-07
1.20651e-07
1.20665e-07
1.20665e-07
1.20665e-07
1.20646e-07
1.20534e-07
1.20284e-07
1.20226e-07
1.20453e-07
1.20601e-07
1.20648e-07
1.20657e-07
1.20646e-07
1.20589e-07
1.20425e-07
1.202e-07
1.20071e-07
1.2027e-07
1.20444e-07
1.20542e-07
1.20567e-07
1.20534e-07
1.20425e-07
1.20247e-07
1.20212e-07
1.20292e-07
1.20323e-07
1.20284e-07
1.202e-07
1.17275e-07
1.17251e-07
1.1726e-07
1.17112e-07
1.17125e-07
1.17144e-07
1.17124e-07
1.17308e-07
1.17246e-07
1.1726e-07
1.17133e-07
1.16926e-07
1.16945e-07
1.16945e-07
1.16926e-07
1.17188e-07
1.17135e-07
1.17112e-07
1.16926e-07
1.16966e-07
1.16988e-07
1.16988e-07
1.16966e-07
1.16926e-07
1.17251e-07
1.17297e-07
1.17275e-07
1.17125e-07
1.16945e-07
1.16988e-07
1.17012e-07
1.17012e-07
1.16988e-07
1.16945e-07
1.17278e-07
1.17315e-07
1.17251e-07
1.17144e-07
1.16945e-07
1.16988e-07
1.17012e-07
1.17012e-07
1.16988e-07
1.16945e-07
1.17281e-07
1.1714e-07
1.17124e-07
1.16926e-07
1.16966e-07
1.16988e-07
1.16988e-07
1.16966e-07
1.16926e-07
1.17275e-07
1.17324e-07
1.17308e-07
1.17188e-07
1.16926e-07
1.16945e-07
1.16945e-07
1.16926e-07
1.17268e-07
1.17194e-07
1.17307e-07
1.17246e-07
1.17135e-07
1.17251e-07
1.17278e-07
1.17281e-07
1.17275e-07
1.17194e-07
1.17317e-07
1.17297e-07
1.17315e-07
1.1714e-07
1.17324e-07
1.17307e-07
1.15503e-07
1.15495e-07
1.15503e-07
1.15373e-07
1.15372e-07
1.15381e-07
1.15374e-07
1.15537e-07
1.15494e-07
1.15503e-07
1.15366e-07
1.15132e-07
1.15141e-07
1.15141e-07
1.15132e-07
1.15389e-07
1.15385e-07
1.15373e-07
1.15132e-07
1.15153e-07
1.15165e-07
1.15165e-07
1.15153e-07
1.15132e-07
1.15433e-07
1.15527e-07
1.15503e-07
1.15372e-07
1.15141e-07
1.15165e-07
1.15179e-07
1.15179e-07
1.15165e-07
1.15141e-07
1.15437e-07
1.15524e-07
1.15495e-07
1.15381e-07
1.15141e-07
1.15165e-07
1.15179e-07
1.15179e-07
1.15165e-07
1.15141e-07
1.15436e-07
1.15392e-07
1.15374e-07
1.15132e-07
1.15153e-07
1.15165e-07
1.15165e-07
1.15153e-07
1.15132e-07
1.1544e-07
1.15532e-07
1.15537e-07
1.15389e-07
1.15132e-07
1.15141e-07
1.1514e-07
1.15132e-07
1.15421e-07
1.15413e-07
1.15537e-07
1.15494e-07
1.15385e-07
1.15433e-07
1.15437e-07
1.15436e-07
1.1544e-07
1.15413e-07
1.1554e-07
1.15527e-07
1.15524e-07
1.15392e-07
1.15532e-07
1.15537e-07
1.1394e-07
1.13931e-07
1.13939e-07
1.13816e-07
1.13814e-07
1.13821e-07
1.13816e-07
1.13968e-07
1.13933e-07
1.13939e-07
1.1381e-07
1.1361e-07
1.13615e-07
1.13615e-07
1.1361e-07
1.13834e-07
1.1383e-07
1.13816e-07
1.1361e-07
1.13622e-07
1.13628e-07
1.13628e-07
1.13622e-07
1.1361e-07
1.13874e-07
1.13963e-07
1.1394e-07
1.13814e-07
1.13615e-07
1.13628e-07
1.13635e-07
1.13635e-07
1.13628e-07
1.13615e-07
1.13877e-07
1.13961e-07
1.13931e-07
1.13821e-07
1.13615e-07
1.13628e-07
1.13635e-07
1.13635e-07
1.13628e-07
1.13615e-07
1.13876e-07
1.13835e-07
1.13816e-07
1.1361e-07
1.13622e-07
1.13628e-07
1.13628e-07
1.13622e-07
1.1361e-07
1.13879e-07
1.13967e-07
1.13968e-07
1.13834e-07
1.1361e-07
1.13615e-07
1.13615e-07
1.1361e-07
1.1386e-07
1.13854e-07
1.13969e-07
1.13933e-07
1.1383e-07
1.13874e-07
1.13878e-07
1.13877e-07
1.13879e-07
1.13854e-07
1.13974e-07
1.13963e-07
1.13961e-07
1.13835e-07
1.13967e-07
1.1397e-07
1.12558e-07
1.12549e-07
1.12557e-07
1.1244e-07
1.12436e-07
1.12441e-07
1.12438e-07
1.12582e-07
1.12553e-07
1.12557e-07
1.12434e-07
1.12255e-07
1.12258e-07
1.12258e-07
1.12255e-07
1.12457e-07
1.12455e-07
1.1244e-07
1.12255e-07
1.12262e-07
1.12264e-07
1.12264e-07
1.12262e-07
1.12255e-07
1.12497e-07
1.12581e-07
1.12558e-07
1.12436e-07
1.12258e-07
1.12264e-07
1.12267e-07
1.12267e-07
1.12264e-07
1.12258e-07
1.12498e-07
1.12578e-07
1.12549e-07
1.12441e-07
1.12258e-07
1.12264e-07
1.12267e-07
1.12267e-07
1.12264e-07
1.12258e-07
1.12496e-07
1.12459e-07
1.12438e-07
1.12255e-07
1.12262e-07
1.12264e-07
1.12264e-07
1.12262e-07
1.12255e-07
1.12499e-07
1.12584e-07
1.12582e-07
1.12457e-07
1.12255e-07
1.12258e-07
1.12258e-07
1.12255e-07
1.12483e-07
1.12477e-07
1.12585e-07
1.12553e-07
1.12455e-07
1.12497e-07
1.12498e-07
1.12496e-07
1.12499e-07
1.12477e-07
1.12592e-07
1.12581e-07
1.12578e-07
1.12459e-07
1.12584e-07
1.12585e-07
1.11272e-07
1.11262e-07
1.11271e-07
1.11156e-07
1.11152e-07
1.11157e-07
1.11154e-07
1.11295e-07
1.11268e-07
1.11271e-07
1.1115e-07
1.10982e-07
1.10983e-07
1.10983e-07
1.10982e-07
1.11175e-07
1.11172e-07
1.11156e-07
1.10982e-07
1.10986e-07
1.10986e-07
1.10986e-07
1.10986e-07
1.10982e-07
1.11215e-07
1.11295e-07
1.11272e-07
1.11152e-07
1.10983e-07
1.10986e-07
1.10987e-07
1.10987e-07
1.10986e-07
1.10983e-07
1.11215e-07
1.11292e-07
1.11262e-07
1.11157e-07
1.10983e-07
1.10986e-07
1.10987e-07
1.10987e-07
1.10986e-07
1.10983e-07
1.11213e-07
1.11176e-07
1.11154e-07
1.10982e-07
1.10986e-07
1.10986e-07
1.10986e-07
1.10986e-07
1.10982e-07
1.11215e-07
1.11297e-07
1.11295e-07
1.11175e-07
1.10982e-07
1.10983e-07
1.10983e-07
1.10982e-07
1.11201e-07
1.11193e-07
1.11298e-07
1.11268e-07
1.11172e-07
1.11215e-07
1.11215e-07
1.11213e-07
1.11215e-07
1.11193e-07
1.11306e-07
1.11295e-07
1.11292e-07
1.11176e-07
1.11297e-07
1.11298e-07
1.1002e-07
1.1001e-07
1.10019e-07
1.09905e-07
1.09901e-07
1.09905e-07
1.09903e-07
1.10042e-07
1.10016e-07
1.10019e-07
1.09899e-07
1.09733e-07
1.09734e-07
1.09734e-07
1.09733e-07
1.09924e-07
1.09921e-07
1.09905e-07
1.09733e-07
1.09737e-07
1.09736e-07
1.09736e-07
1.09737e-07
1.09733e-07
1.09965e-07
1.10043e-07
1.1002e-07
1.09901e-07
1.09734e-07
1.09736e-07
1.09736e-07
1.09736e-07
1.09736e-07
1.09734e-07
1.09965e-07
1.1004e-07
1.1001e-07
1.09905e-07
1.09734e-07
1.09736e-07
1.09736e-07
1.09736e-07
1.09736e-07
1.09734e-07
1.09962e-07
1.09925e-07
1.09903e-07
1.09733e-07
1.09737e-07
1.09736e-07
1.09736e-07
1.09737e-07
1.09733e-07
1.09964e-07
1.10045e-07
1.10042e-07
1.09924e-07
1.09733e-07
1.09734e-07
1.09734e-07
1.09734e-07
1.0995e-07
1.09942e-07
1.10046e-07
1.10016e-07
1.09921e-07
1.09965e-07
1.09965e-07
1.09962e-07
1.09964e-07
1.09942e-07
1.10054e-07
1.10043e-07
1.1004e-07
1.09925e-07
1.10045e-07
1.10046e-07
1.08775e-07
1.08765e-07
1.08774e-07
1.08661e-07
1.08656e-07
1.08661e-07
1.08658e-07
1.08797e-07
1.08771e-07
1.08774e-07
1.08654e-07
1.08489e-07
1.0849e-07
1.0849e-07
1.08489e-07
1.08679e-07
1.08677e-07
1.08661e-07
1.08489e-07
1.08493e-07
1.08491e-07
1.08491e-07
1.08493e-07
1.08489e-07
1.0872e-07
1.08798e-07
1.08775e-07
1.08656e-07
1.0849e-07
1.08491e-07
1.08491e-07
1.08491e-07
1.08491e-07
1.0849e-07
1.0872e-07
1.08796e-07
1.08765e-07
1.08661e-07
1.0849e-07
1.08491e-07
1.08491e-07
1.08491e-07
1.08491e-07
1.0849e-07
1.08718e-07
1.08681e-07
1.08658e-07
1.08489e-07
1.08493e-07
1.08491e-07
1.08491e-07
1.08493e-07
1.08489e-07
1.0872e-07
1.088e-07
1.08797e-07
1.08679e-07
1.08489e-07
1.0849e-07
1.0849e-07
1.08489e-07
1.08705e-07
1.08698e-07
1.08801e-07
1.08771e-07
1.08677e-07
1.0872e-07
1.0872e-07
1.08718e-07
1.0872e-07
1.08698e-07
1.08809e-07
1.08798e-07
1.08796e-07
1.08681e-07
1.088e-07
1.08801e-07
1.07531e-07
1.07521e-07
1.07529e-07
1.07416e-07
1.07411e-07
1.07416e-07
1.07413e-07
1.07553e-07
1.07526e-07
1.07529e-07
1.0741e-07
1.07244e-07
1.07245e-07
1.07245e-07
1.07244e-07
1.07434e-07
1.07432e-07
1.07416e-07
1.07244e-07
1.07248e-07
1.07246e-07
1.07246e-07
1.07248e-07
1.07244e-07
1.07476e-07
1.07554e-07
1.07531e-07
1.07411e-07
1.07245e-07
1.07246e-07
1.07246e-07
1.07246e-07
1.07246e-07
1.07245e-07
1.07476e-07
1.07551e-07
1.07521e-07
1.07416e-07
1.07245e-07
1.07246e-07
1.07246e-07
1.07246e-07
1.07246e-07
1.07245e-07
1.07473e-07
1.07436e-07
1.07413e-07
1.07244e-07
1.07248e-07
1.07246e-07
1.07246e-07
1.07248e-07
1.07244e-07
1.07475e-07
1.07556e-07
1.07553e-07
1.07434e-07
1.07244e-07
1.07245e-07
1.07245e-07
1.07244e-07
1.0746e-07
1.07453e-07
1.07556e-07
1.07526e-07
1.07432e-07
1.07476e-07
1.07476e-07
1.07473e-07
1.07475e-07
1.07453e-07
1.07565e-07
1.07554e-07
1.07551e-07
1.07436e-07
1.07556e-07
1.07556e-07
1.06285e-07
1.06276e-07
1.06284e-07
1.06171e-07
1.06166e-07
1.06171e-07
1.06168e-07
1.06308e-07
1.06281e-07
1.06284e-07
1.06165e-07
1.05999e-07
1.06e-07
1.06e-07
1.05999e-07
1.06189e-07
1.06187e-07
1.06171e-07
1.05999e-07
1.06003e-07
1.06001e-07
1.06001e-07
1.06003e-07
1.05999e-07
1.06231e-07
1.06309e-07
1.06285e-07
1.06166e-07
1.06e-07
1.06001e-07
1.06e-07
1.06e-07
1.06001e-07
1.06e-07
1.0623e-07
1.06306e-07
1.06276e-07
1.06171e-07
1.06e-07
1.06001e-07
1.06e-07
1.06e-07
1.06001e-07
1.06e-07
1.06228e-07
1.06191e-07
1.06168e-07
1.05999e-07
1.06003e-07
1.06001e-07
1.06001e-07
1.06003e-07
1.05999e-07
1.0623e-07
1.0631e-07
1.06308e-07
1.06189e-07
1.05999e-07
1.06e-07
1.06e-07
1.05999e-07
1.06215e-07
1.06208e-07
1.06311e-07
1.06281e-07
1.06187e-07
1.06231e-07
1.0623e-07
1.06228e-07
1.0623e-07
1.06208e-07
1.0632e-07
1.06309e-07
1.06306e-07
1.06191e-07
1.0631e-07
1.06311e-07
1.0504e-07
1.05031e-07
1.05039e-07
1.04926e-07
1.04921e-07
1.04926e-07
1.04923e-07
1.05062e-07
1.05036e-07
1.05039e-07
1.04919e-07
1.04754e-07
1.04754e-07
1.04754e-07
1.04754e-07
1.04944e-07
1.04942e-07
1.04926e-07
1.04754e-07
1.04757e-07
1.04756e-07
1.04756e-07
1.04757e-07
1.04754e-07
1.04985e-07
1.05064e-07
1.0504e-07
1.04921e-07
1.04754e-07
1.04756e-07
1.04755e-07
1.04755e-07
1.04756e-07
1.04754e-07
1.04985e-07
1.05061e-07
1.05031e-07
1.04926e-07
1.04754e-07
1.04756e-07
1.04755e-07
1.04755e-07
1.04756e-07
1.04754e-07
1.04983e-07
1.04946e-07
1.04923e-07
1.04754e-07
1.04757e-07
1.04756e-07
1.04756e-07
1.04757e-07
1.04754e-07
1.04985e-07
1.05065e-07
1.05062e-07
1.04944e-07
1.04754e-07
1.04754e-07
1.04754e-07
1.04754e-07
1.0497e-07
1.04963e-07
1.05066e-07
1.05036e-07
1.04942e-07
1.04985e-07
1.04985e-07
1.04983e-07
1.04985e-07
1.04963e-07
1.05074e-07
1.05064e-07
1.05061e-07
1.04946e-07
1.05065e-07
1.05066e-07
1.03795e-07
1.03785e-07
1.03794e-07
1.0368e-07
1.03676e-07
1.0368e-07
1.03678e-07
1.03817e-07
1.03791e-07
1.03794e-07
1.03674e-07
1.03509e-07
1.03509e-07
1.03509e-07
1.03509e-07
1.03699e-07
1.03697e-07
1.0368e-07
1.03509e-07
1.03512e-07
1.03511e-07
1.03511e-07
1.03512e-07
1.03509e-07
1.0374e-07
1.03818e-07
1.03795e-07
1.03676e-07
1.03509e-07
1.03511e-07
1.0351e-07
1.0351e-07
1.03511e-07
1.03509e-07
1.0374e-07
1.03816e-07
1.03785e-07
1.0368e-07
1.03509e-07
1.03511e-07
1.0351e-07
1.0351e-07
1.03511e-07
1.03509e-07
1.03738e-07
1.037e-07
1.03678e-07
1.03509e-07
1.03512e-07
1.03511e-07
1.03511e-07
1.03512e-07
1.03509e-07
1.03739e-07
1.0382e-07
1.03817e-07
1.03699e-07
1.03509e-07
1.03509e-07
1.03509e-07
1.03509e-07
1.03725e-07
1.03717e-07
1.03821e-07
1.03791e-07
1.03697e-07
1.0374e-07
1.0374e-07
1.03738e-07
1.03739e-07
1.03718e-07
1.03829e-07
1.03818e-07
1.03816e-07
1.037e-07
1.0382e-07
1.03821e-07
1.0255e-07
1.0254e-07
1.02548e-07
1.02435e-07
1.02431e-07
1.02435e-07
1.02432e-07
1.02572e-07
1.02546e-07
1.02548e-07
1.02429e-07
1.02263e-07
1.02264e-07
1.02264e-07
1.02263e-07
1.02454e-07
1.02451e-07
1.02435e-07
1.02263e-07
1.02267e-07
1.02265e-07
1.02265e-07
1.02267e-07
1.02263e-07
1.02495e-07
1.02573e-07
1.0255e-07
1.02431e-07
1.02264e-07
1.02265e-07
1.02265e-07
1.02265e-07
1.02265e-07
1.02264e-07
1.02495e-07
1.0257e-07
1.0254e-07
1.02435e-07
1.02264e-07
1.02265e-07
1.02265e-07
1.02265e-07
1.02265e-07
1.02264e-07
1.02492e-07
1.02455e-07
1.02432e-07
1.02263e-07
1.02267e-07
1.02265e-07
1.02265e-07
1.02267e-07
1.02263e-07
1.02494e-07
1.02575e-07
1.02572e-07
1.02454e-07
1.02263e-07
1.02264e-07
1.02264e-07
1.02263e-07
1.02479e-07
1.02472e-07
1.02576e-07
1.02546e-07
1.02451e-07
1.02495e-07
1.02495e-07
1.02492e-07
1.02494e-07
1.02472e-07
1.02584e-07
1.02573e-07
1.0257e-07
1.02455e-07
1.02575e-07
1.02576e-07
1.01305e-07
1.01295e-07
1.01303e-07
1.0119e-07
1.01185e-07
1.0119e-07
1.01187e-07
1.01327e-07
1.013e-07
1.01303e-07
1.01184e-07
1.01018e-07
1.01019e-07
1.01019e-07
1.01018e-07
1.01208e-07
1.01206e-07
1.0119e-07
1.01018e-07
1.01022e-07
1.0102e-07
1.0102e-07
1.01022e-07
1.01018e-07
1.0125e-07
1.01328e-07
1.01305e-07
1.01185e-07
1.01019e-07
1.0102e-07
1.01019e-07
1.01019e-07
1.0102e-07
1.01019e-07
1.01249e-07
1.01325e-07
1.01295e-07
1.0119e-07
1.01019e-07
1.0102e-07
1.01019e-07
1.01019e-07
1.0102e-07
1.01019e-07
1.01247e-07
1.0121e-07
1.01187e-07
1.01018e-07
1.01022e-07
1.0102e-07
1.0102e-07
1.01022e-07
1.01018e-07
1.01249e-07
1.01329e-07
1.01327e-07
1.01208e-07
1.01018e-07
1.01019e-07
1.01019e-07
1.01018e-07
1.01234e-07
1.01227e-07
1.0133e-07
1.013e-07
1.01206e-07
1.0125e-07
1.01249e-07
1.01247e-07
1.01249e-07
1.01227e-07
1.01339e-07
1.01328e-07
1.01325e-07
1.0121e-07
1.01329e-07
1.0133e-07
1.00059e-07
1.0005e-07
1.00058e-07
9.99446e-08
9.99402e-08
9.99446e-08
9.99419e-08
1.00081e-07
1.00055e-07
1.00058e-07
9.99384e-08
9.97729e-08
9.97734e-08
9.97734e-08
9.97729e-08
9.99632e-08
9.99608e-08
9.99446e-08
9.97729e-08
9.97764e-08
9.9775e-08
9.9775e-08
9.97764e-08
9.97729e-08
1.00004e-07
1.00083e-07
1.00059e-07
9.99401e-08
9.97734e-08
9.9775e-08
9.97742e-08
9.97742e-08
9.9775e-08
9.97734e-08
1.00004e-07
1.0008e-07
1.0005e-07
9.99446e-08
9.97734e-08
9.9775e-08
9.97742e-08
9.97742e-08
9.9775e-08
9.97734e-08
1.00002e-07
9.99647e-08
9.99418e-08
9.97729e-08
9.97764e-08
9.9775e-08
9.9775e-08
9.97764e-08
9.97729e-08
1.00004e-07
1.00084e-07
1.00081e-07
9.99632e-08
9.97729e-08
9.97734e-08
9.97734e-08
9.97729e-08
9.9989e-08
9.99818e-08
1.00085e-07
1.00055e-07
9.99608e-08
1.00004e-07
1.00004e-07
1.00002e-07
1.00004e-07
9.99818e-08
1.00093e-07
1.00083e-07
1.0008e-07
9.99646e-08
1.00084e-07
1.00085e-07
9.8814e-08
9.88043e-08
9.88126e-08
9.86993e-08
9.86949e-08
9.86993e-08
9.86966e-08
9.88362e-08
9.88098e-08
9.88126e-08
9.86932e-08
9.85276e-08
9.85281e-08
9.85281e-08
9.85276e-08
9.87179e-08
9.87155e-08
9.86993e-08
9.85276e-08
9.85311e-08
9.85297e-08
9.85297e-08
9.85311e-08
9.85276e-08
9.87592e-08
9.88373e-08
9.8814e-08
9.86949e-08
9.85281e-08
9.85297e-08
9.85289e-08
9.85289e-08
9.85297e-08
9.85281e-08
9.87589e-08
9.88345e-08
9.88042e-08
9.86993e-08
9.85281e-08
9.85297e-08
9.85289e-08
9.85289e-08
9.85297e-08
9.85281e-08
9.87566e-08
9.87194e-08
9.86966e-08
9.85276e-08
9.85311e-08
9.85297e-08
9.85297e-08
9.85311e-08
9.85276e-08
9.87583e-08
9.8839e-08
9.88362e-08
9.87179e-08
9.85276e-08
9.85281e-08
9.85281e-08
9.85276e-08
9.87437e-08
9.87365e-08
9.88398e-08
9.88098e-08
9.87155e-08
9.87592e-08
9.87589e-08
9.87566e-08
9.87583e-08
9.87365e-08
9.88481e-08
9.88373e-08
9.88345e-08
9.87194e-08
9.8839e-08
9.88398e-08
9.75687e-08
9.7559e-08
9.75674e-08
9.7454e-08
9.74496e-08
9.7454e-08
9.74513e-08
9.75909e-08
9.75645e-08
9.75674e-08
9.74479e-08
9.72824e-08
9.72829e-08
9.72829e-08
9.72824e-08
9.74726e-08
9.74702e-08
9.7454e-08
9.72824e-08
9.72859e-08
9.72845e-08
9.72845e-08
9.72859e-08
9.72824e-08
9.75139e-08
9.7592e-08
9.75687e-08
9.74496e-08
9.72829e-08
9.72845e-08
9.72837e-08
9.72837e-08
9.72845e-08
9.72829e-08
9.75137e-08
9.75893e-08
9.7559e-08
9.7454e-08
9.72829e-08
9.72845e-08
9.72837e-08
9.72837e-08
9.72845e-08
9.72829e-08
9.75113e-08
9.74741e-08
9.74513e-08
9.72824e-08
9.72859e-08
9.72845e-08
9.72845e-08
9.72859e-08
9.72824e-08
9.75131e-08
9.75937e-08
9.75909e-08
9.74726e-08
9.72824e-08
9.72829e-08
9.72829e-08
9.72824e-08
9.74985e-08
9.74912e-08
9.75945e-08
9.75645e-08
9.74702e-08
9.75139e-08
9.75137e-08
9.75113e-08
9.75131e-08
9.74912e-08
9.76028e-08
9.7592e-08
9.75893e-08
9.74741e-08
9.75937e-08
9.75945e-08
9.63235e-08
9.63137e-08
9.63221e-08
9.62088e-08
9.62044e-08
9.62088e-08
9.62061e-08
9.63457e-08
9.63193e-08
9.63221e-08
9.62026e-08
9.60371e-08
9.60376e-08
9.60376e-08
9.60371e-08
9.62274e-08
9.6225e-08
9.62088e-08
9.60371e-08
9.60406e-08
9.60392e-08
9.60392e-08
9.60406e-08
9.60371e-08
9.62686e-08
9.63467e-08
9.63235e-08
9.62043e-08
9.60376e-08
9.60392e-08
9.60384e-08
9.60384e-08
9.60392e-08
9.60376e-08
9.62684e-08
9.6344e-08
9.63137e-08
9.62088e-08
9.60376e-08
9.60392e-08
9.60384e-08
9.60384e-08
9.60392e-08
9.60376e-08
9.62661e-08
9.62289e-08
9.6206e-08
9.60371e-08
9.60406e-08
9.60392e-08
9.60392e-08
9.60406e-08
9.60371e-08
9.62678e-08
9.63484e-08
9.63457e-08
9.62274e-08
9.60371e-08
9.60376e-08
9.60376e-08
9.60371e-08
9.62532e-08
9.6246e-08
9.63493e-08
9.63193e-08
9.6225e-08
9.62686e-08
9.62684e-08
9.62661e-08
9.62678e-08
9.6246e-08
9.63576e-08
9.63467e-08
9.6344e-08
9.62289e-08
9.63484e-08
9.63493e-08
9.50782e-08
9.50685e-08
9.50769e-08
9.49636e-08
9.49591e-08
9.49636e-08
9.49608e-08
9.51004e-08
9.5074e-08
9.50769e-08
9.49574e-08
9.47919e-08
9.47924e-08
9.47924e-08
9.47919e-08
9.49821e-08
9.49798e-08
9.49636e-08
9.47919e-08
9.47954e-08
9.4794e-08
9.4794e-08
9.47954e-08
9.47919e-08
9.50234e-08
9.51015e-08
9.50782e-08
9.49591e-08
9.47924e-08
9.4794e-08
9.47932e-08
9.47932e-08
9.4794e-08
9.47924e-08
9.50232e-08
9.50988e-08
9.50685e-08
9.49635e-08
9.47924e-08
9.4794e-08
9.47932e-08
9.47932e-08
9.4794e-08
9.47924e-08
9.50208e-08
9.49836e-08
9.49608e-08
9.47919e-08
9.47954e-08
9.4794e-08
9.4794e-08
9.47954e-08
9.47919e-08
9.50226e-08
9.51032e-08
9.51004e-08
9.49821e-08
9.47919e-08
9.47924e-08
9.47924e-08
9.47919e-08
9.5008e-08
9.50007e-08
9.5104e-08
9.5074e-08
9.49798e-08
9.50234e-08
9.50232e-08
9.50208e-08
9.50226e-08
9.50008e-08
9.51123e-08
9.51015e-08
9.50988e-08
9.49836e-08
9.51032e-08
9.5104e-08
9.3833e-08
9.38233e-08
9.38316e-08
9.37183e-08
9.37139e-08
9.37183e-08
9.37156e-08
9.38552e-08
9.38288e-08
9.38316e-08
9.37122e-08
9.35466e-08
9.35472e-08
9.35471e-08
9.35466e-08
9.37369e-08
9.37345e-08
9.37183e-08
9.35466e-08
9.35501e-08
9.35487e-08
9.35487e-08
9.35501e-08
9.35466e-08
9.37782e-08
9.38563e-08
9.3833e-08
9.37139e-08
9.35472e-08
9.35487e-08
9.35479e-08
9.35479e-08
9.35487e-08
9.35472e-08
9.37779e-08
9.38535e-08
9.38233e-08
9.37183e-08
9.35472e-08
9.35487e-08
9.35479e-08
9.35479e-08
9.35487e-08
9.35472e-08
9.37756e-08
9.37384e-08
9.37156e-08
9.35466e-08
9.35501e-08
9.35487e-08
9.35487e-08
9.35501e-08
9.35466e-08
9.37774e-08
9.3858e-08
9.38552e-08
9.37369e-08
9.35466e-08
9.35472e-08
9.35472e-08
9.35466e-08
9.37627e-08
9.37555e-08
9.38588e-08
9.38288e-08
9.37345e-08
9.37782e-08
9.37779e-08
9.37756e-08
9.37774e-08
9.37555e-08
9.38671e-08
9.38563e-08
9.38535e-08
9.37384e-08
9.3858e-08
9.38588e-08
9.25877e-08
9.2578e-08
9.25864e-08
9.24731e-08
9.24686e-08
9.24731e-08
9.24703e-08
9.26099e-08
9.25835e-08
9.25864e-08
9.24669e-08
9.23014e-08
9.23019e-08
9.23019e-08
9.23014e-08
9.24917e-08
9.24893e-08
9.24731e-08
9.23014e-08
9.23049e-08
9.23035e-08
9.23035e-08
9.23049e-08
9.23014e-08
9.25329e-08
9.2611e-08
9.25877e-08
9.24686e-08
9.23019e-08
9.23035e-08
9.23027e-08
9.23027e-08
9.23035e-08
9.23019e-08
9.25327e-08
9.26083e-08
9.2578e-08
9.24731e-08
9.23019e-08
9.23035e-08
9.23027e-08
9.23027e-08
9.23035e-08
9.23019e-08
9.25303e-08
9.24931e-08
9.24703e-08
9.23014e-08
9.23049e-08
9.23035e-08
9.23035e-08
9.23049e-08
9.23014e-08
9.25321e-08
9.26127e-08
9.26099e-08
9.24917e-08
9.23014e-08
9.23019e-08
9.23019e-08
9.23014e-08
9.25175e-08
9.25103e-08
9.26135e-08
9.25835e-08
9.24893e-08
9.25329e-08
9.25327e-08
9.25303e-08
9.25321e-08
9.25103e-08
9.26219e-08
9.2611e-08
9.26083e-08
9.24931e-08
9.26127e-08
9.26136e-08
9.13425e-08
9.13328e-08
9.13411e-08
9.12278e-08
9.12234e-08
9.12278e-08
9.12251e-08
9.13647e-08
9.13383e-08
9.13411e-08
9.12217e-08
9.10561e-08
9.10566e-08
9.10566e-08
9.10561e-08
9.12464e-08
9.1244e-08
9.12278e-08
9.10561e-08
9.10596e-08
9.10582e-08
9.10582e-08
9.10596e-08
9.10561e-08
9.12877e-08
9.13658e-08
9.13425e-08
9.12234e-08
9.10566e-08
9.10582e-08
9.10574e-08
9.10574e-08
9.10582e-08
9.10566e-08
9.12874e-08
9.1363e-08
9.13328e-08
9.12278e-08
9.10566e-08
9.10582e-08
9.10574e-08
9.10574e-08
9.10582e-08
9.10566e-08
9.12851e-08
9.12479e-08
9.12251e-08
9.10561e-08
9.10596e-08
9.10582e-08
9.10582e-08
9.10596e-08
9.10561e-08
9.12868e-08
9.13675e-08
9.13647e-08
9.12464e-08
9.10561e-08
9.10567e-08
9.10566e-08
9.10561e-08
9.12722e-08
9.1265e-08
9.13683e-08
9.13383e-08
9.1244e-08
9.12877e-08
9.12874e-08
9.12851e-08
9.12869e-08
9.1265e-08
9.13766e-08
9.13658e-08
9.1363e-08
9.12479e-08
9.13675e-08
9.13683e-08
9.00972e-08
9.00875e-08
9.00959e-08
8.99825e-08
8.99781e-08
8.99825e-08
8.99798e-08
9.01194e-08
9.0093e-08
9.00959e-08
8.99764e-08
8.98109e-08
8.98114e-08
8.98114e-08
8.98109e-08
9.00011e-08
8.99988e-08
8.99826e-08
8.98109e-08
8.98144e-08
8.9813e-08
8.9813e-08
8.98144e-08
8.98109e-08
9.00424e-08
9.01205e-08
9.00972e-08
8.99781e-08
8.98114e-08
8.9813e-08
8.98122e-08
8.98122e-08
8.9813e-08
8.98114e-08
9.00422e-08
9.01178e-08
9.00875e-08
8.99825e-08
8.98114e-08
8.9813e-08
8.98122e-08
8.98122e-08
8.9813e-08
8.98114e-08
9.00398e-08
9.00026e-08
8.99798e-08
8.98109e-08
8.98144e-08
8.9813e-08
8.9813e-08
8.98144e-08
8.98109e-08
9.00416e-08
9.01222e-08
9.01194e-08
9.00011e-08
8.98109e-08
8.98114e-08
8.98114e-08
8.98109e-08
9.0027e-08
9.00197e-08
9.0123e-08
9.0093e-08
8.99988e-08
9.00424e-08
9.00422e-08
9.00398e-08
9.00416e-08
9.00198e-08
9.01313e-08
9.01205e-08
9.01178e-08
9.00026e-08
9.01222e-08
9.0123e-08
8.8852e-08
8.88423e-08
8.88506e-08
8.87373e-08
8.87329e-08
8.87373e-08
8.87346e-08
8.88742e-08
8.88478e-08
8.88507e-08
8.87312e-08
8.85657e-08
8.85662e-08
8.85662e-08
8.85657e-08
8.87559e-08
8.87535e-08
8.87373e-08
8.85657e-08
8.85692e-08
8.85677e-08
8.85677e-08
8.85692e-08
8.85657e-08
8.87972e-08
8.88753e-08
8.8852e-08
8.87329e-08
8.85662e-08
8.85677e-08
8.8567e-08
8.8567e-08
8.85677e-08
8.85662e-08
8.87969e-08
8.88725e-08
8.88423e-08
8.87373e-08
8.85662e-08
8.85677e-08
8.8567e-08
8.8567e-08
8.85677e-08
8.85662e-08
8.87946e-08
8.87574e-08
8.87346e-08
8.85657e-08
8.85692e-08
8.85677e-08
8.85677e-08
8.85692e-08
8.85657e-08
8.87964e-08
8.8877e-08
8.88742e-08
8.87559e-08
8.85657e-08
8.85662e-08
8.85662e-08
8.85657e-08
8.87817e-08
8.87745e-08
8.88778e-08
8.88478e-08
8.87535e-08
8.87972e-08
8.8797e-08
8.87946e-08
8.87964e-08
8.87745e-08
8.88861e-08
8.88753e-08
8.88725e-08
8.87574e-08
8.8877e-08
8.88778e-08
8.76068e-08
8.75971e-08
8.76054e-08
8.74921e-08
8.74877e-08
8.74921e-08
8.74894e-08
8.7629e-08
8.76026e-08
8.76054e-08
8.7486e-08
8.73204e-08
8.73209e-08
8.73209e-08
8.73204e-08
8.75107e-08
8.75083e-08
8.74921e-08
8.73204e-08
8.73239e-08
8.73225e-08
8.73225e-08
8.73239e-08
8.73204e-08
8.7552e-08
8.76301e-08
8.76068e-08
8.74877e-08
8.73209e-08
8.73225e-08
8.73217e-08
8.73217e-08
8.73225e-08
8.73209e-08
8.75517e-08
8.76273e-08
8.7597e-08
8.74921e-08
8.73209e-08
8.73225e-08
8.73217e-08
8.73217e-08
8.73225e-08
8.73209e-08
8.75494e-08
8.75122e-08
8.74894e-08
8.73204e-08
8.73239e-08
8.73225e-08
8.73225e-08
8.73239e-08
8.73204e-08
8.75511e-08
8.76317e-08
8.7629e-08
8.75107e-08
8.73204e-08
8.73209e-08
8.73209e-08
8.73204e-08
8.75365e-08
8.75293e-08
8.76326e-08
8.76026e-08
8.75083e-08
8.7552e-08
8.75517e-08
8.75494e-08
8.75511e-08
8.75293e-08
8.76409e-08
8.76301e-08
8.76273e-08
8.75122e-08
8.76318e-08
8.76326e-08
8.63615e-08
8.63518e-08
8.63602e-08
8.62469e-08
8.62424e-08
8.62469e-08
8.62441e-08
8.63837e-08
8.63573e-08
8.63602e-08
8.62407e-08
8.60752e-08
8.60757e-08
8.60757e-08
8.60752e-08
8.62655e-08
8.62631e-08
8.62469e-08
8.60752e-08
8.60787e-08
8.60773e-08
8.60773e-08
8.60787e-08
8.60752e-08
8.63067e-08
8.63848e-08
8.63615e-08
8.62424e-08
8.60757e-08
8.60773e-08
8.60765e-08
8.60765e-08
8.60773e-08
8.60757e-08
8.63065e-08
8.63821e-08
8.63518e-08
8.62469e-08
8.60757e-08
8.60773e-08
8.60765e-08
8.60765e-08
8.60773e-08
8.60757e-08
8.63041e-08
8.62669e-08
8.62441e-08
8.60752e-08
8.60787e-08
8.60773e-08
8.60773e-08
8.60787e-08
8.60752e-08
8.63059e-08
8.63865e-08
8.63837e-08
8.62654e-08
8.60752e-08
8.60757e-08
8.60757e-08
8.60752e-08
8.62913e-08
8.6284e-08
8.63873e-08
8.63573e-08
8.62631e-08
8.63067e-08
8.63065e-08
8.63041e-08
8.63059e-08
8.62841e-08
8.63956e-08
8.63848e-08
8.63821e-08
8.62669e-08
8.63865e-08
8.63874e-08
8.51163e-08
8.51065e-08
8.51149e-08
8.50016e-08
8.49972e-08
8.50016e-08
8.49989e-08
8.51385e-08
8.51121e-08
8.51149e-08
8.49954e-08
8.48299e-08
8.48304e-08
8.48304e-08
8.48299e-08
8.50202e-08
8.50178e-08
8.50016e-08
8.48299e-08
8.48334e-08
8.4832e-08
8.4832e-08
8.48334e-08
8.48299e-08
8.50614e-08
8.51395e-08
8.51163e-08
8.49972e-08
8.48304e-08
8.4832e-08
8.48312e-08
8.48312e-08
8.4832e-08
8.48304e-08
8.50612e-08
8.51368e-08
8.51065e-08
8.50016e-08
8.48304e-08
8.4832e-08
8.48312e-08
8.48312e-08
8.4832e-08
8.48304e-08
8.50589e-08
8.50217e-08
8.49988e-08
8.48299e-08
8.48334e-08
8.4832e-08
8.4832e-08
8.48334e-08
8.48299e-08
8.50606e-08
8.51412e-08
8.51385e-08
8.50202e-08
8.48299e-08
8.48304e-08
8.48304e-08
8.48299e-08
8.5046e-08
8.50388e-08
8.51421e-08
8.51121e-08
8.50178e-08
8.50614e-08
8.50612e-08
8.50589e-08
8.50606e-08
8.50388e-08
8.51504e-08
8.51396e-08
8.51368e-08
8.50217e-08
8.51412e-08
8.51421e-08
8.3871e-08
8.38613e-08
8.38697e-08
8.37563e-08
8.37519e-08
8.37563e-08
8.37536e-08
8.38932e-08
8.38668e-08
8.38697e-08
8.37502e-08
8.35847e-08
8.35852e-08
8.35852e-08
8.35847e-08
8.37749e-08
8.37725e-08
8.37563e-08
8.35847e-08
8.35882e-08
8.35868e-08
8.35868e-08
8.35882e-08
8.35847e-08
8.38162e-08
8.38943e-08
8.3871e-08
8.37519e-08
8.35852e-08
8.35868e-08
8.3586e-08
8.3586e-08
8.35868e-08
8.35852e-08
8.3816e-08
8.38916e-08
8.38613e-08
8.37563e-08
8.35852e-08
8.35868e-08
8.3586e-08
8.3586e-08
8.35868e-08
8.35852e-08
8.38136e-08
8.37764e-08
8.37536e-08
8.35847e-08
8.35882e-08
8.35868e-08
8.35868e-08
8.35882e-08
8.35847e-08
8.38154e-08
8.3896e-08
8.38932e-08
8.37749e-08
8.35847e-08
8.35852e-08
8.35852e-08
8.35847e-08
8.38008e-08
8.37935e-08
8.38968e-08
8.38668e-08
8.37725e-08
8.38162e-08
8.3816e-08
8.38136e-08
8.38154e-08
8.37935e-08
8.39051e-08
8.38943e-08
8.38916e-08
8.37764e-08
8.3896e-08
8.38968e-08
8.26258e-08
8.26161e-08
8.26245e-08
8.25111e-08
8.25067e-08
8.25111e-08
8.25084e-08
8.2648e-08
8.26216e-08
8.26244e-08
8.2505e-08
8.23394e-08
8.234e-08
8.234e-08
8.23394e-08
8.25297e-08
8.25273e-08
8.25111e-08
8.23394e-08
8.23429e-08
8.23415e-08
8.23415e-08
8.23429e-08
8.23394e-08
8.2571e-08
8.26491e-08
8.26258e-08
8.25067e-08
8.234e-08
8.23415e-08
8.23407e-08
8.23407e-08
8.23415e-08
8.234e-08
8.25707e-08
8.26463e-08
8.2616e-08
8.25111e-08
8.23399e-08
8.23415e-08
8.23407e-08
8.23407e-08
8.23415e-08
8.234e-08
8.25684e-08
8.25312e-08
8.25084e-08
8.23394e-08
8.23429e-08
8.23415e-08
8.23415e-08
8.23429e-08
8.23394e-08
8.25702e-08
8.26508e-08
8.2648e-08
8.25297e-08
8.23394e-08
8.234e-08
8.23399e-08
8.23394e-08
8.25555e-08
8.25483e-08
8.26516e-08
8.26216e-08
8.25273e-08
8.2571e-08
8.25707e-08
8.25684e-08
8.25701e-08
8.25483e-08
8.26599e-08
8.26491e-08
8.26463e-08
8.25312e-08
8.26508e-08
8.26516e-08
8.13805e-08
8.13708e-08
8.13792e-08
8.12659e-08
8.12614e-08
8.12659e-08
8.12631e-08
8.14027e-08
8.13763e-08
8.13792e-08
8.12597e-08
8.10942e-08
8.10947e-08
8.10947e-08
8.10942e-08
8.12845e-08
8.12821e-08
8.12659e-08
8.10942e-08
8.10977e-08
8.10963e-08
8.10963e-08
8.10977e-08
8.10942e-08
8.13257e-08
8.14038e-08
8.13805e-08
8.12614e-08
8.10947e-08
8.10963e-08
8.10955e-08
8.10955e-08
8.10963e-08
8.10947e-08
8.13255e-08
8.14011e-08
8.13708e-08
8.12659e-08
8.10947e-08
8.10963e-08
8.10955e-08
8.10955e-08
8.10963e-08
8.10947e-08
8.13231e-08
8.12859e-08
8.12631e-08
8.10942e-08
8.10977e-08
8.10963e-08
8.10963e-08
8.10977e-08
8.10942e-08
8.13249e-08
8.14055e-08
8.14027e-08
8.12845e-08
8.10942e-08
8.10947e-08
8.10947e-08
8.10942e-08
8.13103e-08
8.1303e-08
8.14063e-08
8.13763e-08
8.12821e-08
8.13257e-08
8.13255e-08
8.13231e-08
8.13249e-08
8.13031e-08
8.14146e-08
8.14038e-08
8.14011e-08
8.12859e-08
8.14055e-08
8.14064e-08
8.01353e-08
8.01256e-08
8.01339e-08
8.00206e-08
8.00162e-08
8.00206e-08
8.00179e-08
8.01575e-08
8.01311e-08
8.01339e-08
8.00145e-08
7.98489e-08
7.98495e-08
7.98495e-08
7.98489e-08
8.00392e-08
8.00368e-08
8.00206e-08
7.98489e-08
7.98524e-08
7.9851e-08
7.9851e-08
7.98524e-08
7.98489e-08
8.00805e-08
8.01586e-08
8.01353e-08
8.00162e-08
7.98495e-08
7.9851e-08
7.98502e-08
7.98502e-08
7.9851e-08
7.98495e-08
8.00802e-08
8.01558e-08
8.01255e-08
8.00206e-08
7.98495e-08
7.9851e-08
7.98502e-08
7.98502e-08
7.9851e-08
7.98495e-08
8.00779e-08
8.00407e-08
8.00179e-08
7.98489e-08
7.98524e-08
7.9851e-08
7.9851e-08
7.98524e-08
7.98489e-08
8.00797e-08
8.01602e-08
8.01575e-08
8.00392e-08
7.98489e-08
7.98495e-08
7.98495e-08
7.98489e-08
8.0065e-08
8.00578e-08
8.01611e-08
8.01311e-08
8.00368e-08
8.00805e-08
8.00802e-08
8.00779e-08
8.00797e-08
8.00578e-08
8.01694e-08
8.01586e-08
8.01558e-08
8.00407e-08
8.01603e-08
8.01611e-08
7.88901e-08
7.88803e-08
7.88887e-08
7.87754e-08
7.87709e-08
7.87754e-08
7.87726e-08
7.89122e-08
7.88859e-08
7.88887e-08
7.87692e-08
7.86037e-08
7.86042e-08
7.86042e-08
7.86037e-08
7.8794e-08
7.87916e-08
7.87754e-08
7.86037e-08
7.86072e-08
7.86058e-08
7.86058e-08
7.86072e-08
7.86037e-08
7.88352e-08
7.89133e-08
7.88901e-08
7.87709e-08
7.86042e-08
7.86058e-08
7.8605e-08
7.8605e-08
7.86058e-08
7.86042e-08
7.8835e-08
7.89106e-08
7.88803e-08
7.87754e-08
7.86042e-08
7.86058e-08
7.8605e-08
7.8605e-08
7.86058e-08
7.86042e-08
7.88327e-08
7.87955e-08
7.87726e-08
7.86037e-08
7.86072e-08
7.86058e-08
7.86058e-08
7.86072e-08
7.86037e-08
7.88344e-08
7.8915e-08
7.89122e-08
7.8794e-08
7.86037e-08
7.86042e-08
7.86042e-08
7.86037e-08
7.88198e-08
7.88126e-08
7.89159e-08
7.88859e-08
7.87916e-08
7.88352e-08