/*--------------------------------*- C++ -*----------------------------------*\
| =========                 |                                                 |
| \\      /  F ield         | OpenFOAM: The Open Source CFD Toolbox           |
|  \\    /   O peration     | Version:  2312                                  |
|   \\  /    A nd           | Website:  www.openfoam.com                      |
|    \\/     M anipulation  |                                                 |
\*---------------------------------------------------------------------------*/
FoamFile
{
    version     2.0;
    format      ascii;
    arch        "LSB;label=32;scalar=64";
    class       volScalarField;
    location    "875";
    object      k;
}
// * * * * * * * * * * * * * * * * * * * * * * * * * * * * * * * * * * * * * //

dimensions      [0 2 -2 0 0 0 0];

internalField   nonuniform List<scalar> 
172512
(
3.60232e-05
3.60198e-05
3.60198e-05
3.60083e-05
3.39295e-05
3.38866e-05
3.38866e-05
3.39612e-05
3.21573e-05
3.20055e-05
3.20055e-05
3.19506e-05
3.05338e-05
3.02267e-05
3.02267e-05
2.99864e-05
2.90318e-05
2.85515e-05
2.85515e-05
2.81202e-05
2.76341e-05
2.69848e-05
2.69847e-05
2.6388e-05
2.63294e-05
2.55287e-05
2.55286e-05
2.48046e-05
2.51097e-05
2.41827e-05
2.41826e-05
2.33756e-05
2.39694e-05
2.29484e-05
2.29483e-05
2.21017e-05
2.29042e-05
2.18248e-05
2.18246e-05
2.09838e-05
2.19105e-05
2.08094e-05
2.0809e-05
2.00114e-05
2.0985e-05
1.98994e-05
1.98992e-05
1.91798e-05
2.01226e-05
1.9093e-05
1.90928e-05
1.84873e-05
1.93224e-05
1.83859e-05
1.83869e-05
1.79319e-05
1.8583e-05
1.77814e-05
1.77785e-05
1.75239e-05
1.79028e-05
1.72668e-05
1.72647e-05
1.71803e-05
1.72785e-05
1.6838e-05
1.6848e-05
1.69843e-05
1.67087e-05
1.65251e-05
1.65073e-05
1.70168e-05
1.61906e-05
1.62583e-05
1.62851e-05
1.69724e-05
1.57238e-05
1.61887e-05
1.61508e-05
1.75312e-05
1.53086e-05
1.609e-05
1.61054e-05
1.74529e-05
1.49273e-05
1.6163e-05
1.61668e-05
1.82649e-05
1.46269e-05
1.63125e-05
1.62443e-05
1.87481e-05
1.434e-05
1.65046e-05
1.66152e-05
1.93285e-05
1.41063e-05
1.68946e-05
1.68175e-05
2.05234e-05
1.39185e-05
1.7196e-05
1.72064e-05
2.09744e-05
1.37807e-05
1.77112e-05
1.76992e-05
2.2009e-05
1.36882e-05
1.82464e-05
1.82827e-05
2.29436e-05
1.36398e-05
1.8904e-05
1.88928e-05
2.40785e-05
1.36368e-05
1.95868e-05
1.95911e-05
2.51089e-05
1.36797e-05
2.037e-05
2.0364e-05
2.6183e-05
1.37678e-05
2.11619e-05
2.11724e-05
2.73247e-05
1.39025e-05
2.20341e-05
2.20289e-05
2.8328e-05
1.40847e-05
2.29317e-05
2.29373e-05
2.94307e-05
1.43115e-05
2.38851e-05
2.38893e-05
3.0491e-05
1.45858e-05
2.48578e-05
2.48561e-05
3.1522e-05
1.49066e-05
2.58535e-05
2.58591e-05
3.25379e-05
1.52738e-05
2.68699e-05
2.68738e-05
3.35355e-05
1.56876e-05
2.79024e-05
2.79012e-05
3.45029e-05
1.61436e-05
2.89268e-05
2.89322e-05
3.54475e-05
1.66453e-05
2.99723e-05
2.99769e-05
3.63769e-05
1.71881e-05
3.09989e-05
3.10014e-05
3.72704e-05
1.77711e-05
3.20229e-05
3.20266e-05
3.81458e-05
1.83924e-05
3.30379e-05
3.30419e-05
3.8984e-05
1.90483e-05
3.40318e-05
3.40362e-05
3.98132e-05
1.97369e-05
3.5011e-05
3.50145e-05
4.06077e-05
2.0454e-05
3.59663e-05
3.59718e-05
4.13796e-05
2.11976e-05
3.69012e-05
3.69044e-05
4.21299e-05
2.19621e-05
3.78083e-05
3.78125e-05
4.28491e-05
2.27439e-05
3.86884e-05
3.86937e-05
4.35508e-05
2.35401e-05
3.95432e-05
3.95466e-05
4.42182e-05
2.43478e-05
4.03695e-05
4.03749e-05
4.48766e-05
2.51589e-05
4.11661e-05
4.11697e-05
4.54948e-05
2.59741e-05
4.19329e-05
4.19372e-05
4.60976e-05
2.67898e-05
4.26755e-05
4.26803e-05
4.66808e-05
2.75989e-05
4.3384e-05
4.33887e-05
4.72356e-05
2.84013e-05
4.40658e-05
4.40692e-05
4.77645e-05
2.91921e-05
4.47155e-05
4.47202e-05
4.82713e-05
2.99705e-05
4.53445e-05
4.53496e-05
4.87744e-05
3.07452e-05
4.59511e-05
4.59527e-05
4.92451e-05
3.1475e-05
4.64924e-05
4.65011e-05
4.96566e-05
3.22063e-05
4.70506e-05
4.70501e-05
5.01048e-05
3.29253e-05
4.75714e-05
4.75752e-05
5.05146e-05
3.35923e-05
4.80461e-05
4.8054e-05
5.08892e-05
3.42625e-05
4.8518e-05
4.85185e-05
5.12532e-05
3.48973e-05
4.89484e-05
4.89529e-05
5.15976e-05
3.54993e-05
4.93541e-05
4.93582e-05
5.1919e-05
3.60874e-05
4.97533e-05
4.97566e-05
5.22341e-05
3.66421e-05
5.00873e-05
5.00904e-05
5.24806e-05
3.71607e-05
5.04415e-05
5.04436e-05
5.27867e-05
3.76761e-05
5.0759e-05
5.07665e-05
5.30297e-05
3.8143e-05
5.10397e-05
5.10407e-05
5.32523e-05
3.85855e-05
5.13125e-05
5.13157e-05
5.34692e-05
3.89984e-05
5.15357e-05
5.15388e-05
5.3626e-05
3.93807e-05
5.17674e-05
5.17725e-05
5.38522e-05
3.97589e-05
5.19901e-05
5.19955e-05
5.39989e-05
4.0075e-05
5.21304e-05
5.21266e-05
5.4106e-05
4.03898e-05
5.23154e-05
5.23293e-05
5.42835e-05
4.06603e-05
5.24366e-05
5.24294e-05
5.4333e-05
4.09252e-05
5.25864e-05
5.25854e-05
5.45131e-05
4.11578e-05
5.26453e-05
5.26708e-05
5.45086e-05
4.13307e-05
5.27316e-05
5.27099e-05
5.45877e-05
4.15348e-05
5.28097e-05
5.28269e-05
5.46479e-05
4.17043e-05
5.28607e-05
5.28496e-05
5.47308e-05
4.18608e-05
5.29808e-05
5.29683e-05
5.48446e-05
4.19299e-05
5.2759e-05
5.28286e-05
5.44904e-05
4.20219e-05
5.29301e-05
5.28768e-05
5.48778e-05
4.21701e-05
5.30747e-05
5.29848e-05
5.4856e-05
4.21593e-05
5.27127e-05
5.28619e-05
5.4439e-05
4.22423e-05
5.27631e-05
5.27849e-05
5.46852e-05
4.22836e-05
5.30476e-05
5.2869e-05
5.49164e-05
4.23124e-05
5.29467e-05
5.29942e-05
5.47225e-05
4.22352e-05
5.21049e-05
5.21983e-05
5.36567e-05
4.21031e-05
5.29023e-05
5.26185e-05
5.49165e-05
4.39265e-05
5.10329e-05
5.09201e-05
5.41446e-05
3.62984e-05
3.62919e-05
3.62919e-05
3.62984e-05
3.62919e-05
3.62919e-05
3.62908e-05
3.62908e-05
3.62908e-05
3.62908e-05
3.62919e-05
3.62919e-05
3.62984e-05
3.62919e-05
3.62919e-05
3.62984e-05
3.60083e-05
3.42676e-05
3.60198e-05
3.60198e-05
3.43745e-05
3.43744e-05
3.60083e-05
3.42677e-05
3.60198e-05
3.60198e-05
3.43745e-05
3.43744e-05
3.60198e-05
3.43745e-05
3.43745e-05
3.60083e-05
3.42677e-05
3.60198e-05
3.43745e-05
3.43745e-05
3.42676e-05
3.39612e-05
3.22619e-05
3.38865e-05
3.38865e-05
3.24658e-05
3.24657e-05
3.39612e-05
3.22619e-05
3.38865e-05
3.38865e-05
3.24659e-05
3.24657e-05
3.38865e-05
3.2466e-05
3.24658e-05
3.39612e-05
3.22619e-05
3.38865e-05
3.24659e-05
3.24659e-05
3.22618e-05
3.19506e-05
3.02973e-05
3.20054e-05
3.20053e-05
3.06617e-05
3.06616e-05
3.19507e-05
3.02973e-05
3.20054e-05
3.20052e-05
3.06618e-05
3.06615e-05
3.20053e-05
3.0662e-05
3.06617e-05
3.19506e-05
3.02972e-05
3.20054e-05
3.06619e-05
3.06618e-05
3.02971e-05
2.99865e-05
2.8423e-05
3.02264e-05
3.02263e-05
2.89599e-05
2.89597e-05
2.99865e-05
2.8423e-05
3.02266e-05
3.02262e-05
2.89601e-05
2.89596e-05
3.02264e-05
2.89603e-05
2.89598e-05
2.99864e-05
2.8423e-05
3.02265e-05
2.89602e-05
2.896e-05
2.84228e-05
2.81204e-05
2.66716e-05
2.85511e-05
2.85509e-05
2.73656e-05
2.73653e-05
2.81203e-05
2.66716e-05
2.85513e-05
2.85508e-05
2.73659e-05
2.73652e-05
2.8551e-05
2.73661e-05
2.73655e-05
2.81202e-05
2.66714e-05
2.85513e-05
2.7366e-05
2.73658e-05
2.66712e-05
2.63884e-05
2.50638e-05
2.69842e-05
2.6984e-05
2.58817e-05
2.58815e-05
2.63883e-05
2.50637e-05
2.69846e-05
2.69839e-05
2.58822e-05
2.58813e-05
2.69841e-05
2.58824e-05
2.58816e-05
2.63882e-05
2.50635e-05
2.69844e-05
2.58823e-05
2.5882e-05
2.50634e-05
2.48049e-05
2.361e-05
2.5528e-05
2.55277e-05
2.4508e-05
2.45077e-05
2.4805e-05
2.36099e-05
2.55285e-05
2.55276e-05
2.45085e-05
2.45075e-05
2.55279e-05
2.45087e-05
2.45079e-05
2.48048e-05
2.36097e-05
2.55283e-05
2.45086e-05
2.45084e-05
2.36095e-05
2.3376e-05
2.23099e-05
2.41819e-05
2.41816e-05
2.32456e-05
2.32453e-05
2.33758e-05
2.23101e-05
2.41824e-05
2.41815e-05
2.32463e-05
2.32451e-05
2.41818e-05
2.32465e-05
2.32455e-05
2.33755e-05
2.23097e-05
2.41823e-05
2.32464e-05
2.32461e-05
2.23092e-05
2.21026e-05
2.11662e-05
2.29475e-05
2.29472e-05
2.20944e-05
2.20941e-05
2.21021e-05
2.11653e-05
2.29482e-05
2.2947e-05
2.20951e-05
2.20939e-05
2.29474e-05
2.20953e-05
2.20943e-05
2.21021e-05
2.11652e-05
2.2948e-05
2.20952e-05
2.2095e-05
2.11653e-05
2.09841e-05
2.01683e-05
2.18237e-05
2.18234e-05
2.1052e-05
2.10517e-05
2.0984e-05
2.01683e-05
2.18244e-05
2.18232e-05
2.10529e-05
2.10516e-05
2.18236e-05
2.10531e-05
2.1052e-05
2.09838e-05
2.01687e-05
2.18243e-05
2.1053e-05
2.10528e-05
2.01681e-05
2.0011e-05
1.93137e-05
2.08083e-05
2.0808e-05
2.01162e-05
2.01157e-05
2.00114e-05
1.93124e-05
2.08091e-05
2.08077e-05
2.01171e-05
2.01156e-05
2.08083e-05
2.01171e-05
2.01158e-05
2.00111e-05
1.93124e-05
2.08091e-05
2.0117e-05
2.01166e-05
1.93112e-05
1.91815e-05
1.85892e-05
1.98984e-05
1.9898e-05
1.92836e-05
1.92835e-05
1.91816e-05
1.85915e-05
1.98992e-05
1.98978e-05
1.92846e-05
1.92835e-05
1.98982e-05
1.92849e-05
1.92837e-05
1.91791e-05
1.85905e-05
1.98989e-05
1.92849e-05
1.92845e-05
1.85879e-05
1.84884e-05
1.79968e-05
1.90918e-05
1.90915e-05
1.85528e-05
1.8553e-05
1.84896e-05
1.79988e-05
1.90927e-05
1.90914e-05
1.85537e-05
1.85524e-05
1.90917e-05
1.85543e-05
1.85532e-05
1.84902e-05
1.79964e-05
1.90926e-05
1.85537e-05
1.85541e-05
1.79966e-05
1.79353e-05
1.75376e-05
1.83855e-05
1.83847e-05
1.79189e-05
1.79239e-05
1.7931e-05
1.75631e-05
1.83864e-05
1.83857e-05
1.79198e-05
1.79196e-05
1.83855e-05
1.7925e-05
1.79232e-05
1.79357e-05
1.75395e-05
1.83863e-05
1.79209e-05
1.7924e-05
1.75555e-05
1.75082e-05
1.72429e-05
1.77757e-05
1.77803e-05
1.73868e-05
1.7381e-05
1.75305e-05
1.72059e-05
1.77767e-05
1.77773e-05
1.73876e-05
1.73825e-05
1.77809e-05
1.73821e-05
1.73774e-05
1.75113e-05
1.7218e-05
1.77818e-05
1.73836e-05
1.73782e-05
1.7183e-05
1.7222e-05
1.70364e-05
1.72642e-05
1.72657e-05
1.69432e-05
1.69306e-05
1.71958e-05
1.69717e-05
1.72651e-05
1.72636e-05
1.69441e-05
1.69439e-05
1.72658e-05
1.69315e-05
1.69356e-05
1.72007e-05
1.70446e-05
1.72666e-05
1.69448e-05
1.69365e-05
1.70012e-05
1.70384e-05
1.69522e-05
1.68485e-05
1.68371e-05
1.6591e-05
1.65967e-05
1.69702e-05
1.70112e-05
1.68493e-05
1.68472e-05
1.65917e-05
1.65621e-05
1.68358e-05
1.65973e-05
1.65983e-05
1.70331e-05
1.68541e-05
1.68365e-05
1.6563e-05
1.65991e-05
1.70047e-05
1.69736e-05
1.69935e-05
1.65242e-05
1.65243e-05
1.63215e-05
1.63235e-05
1.70185e-05
1.69872e-05
1.65249e-05
1.65066e-05
1.63221e-05
1.63451e-05
1.65273e-05
1.63239e-05
1.6312e-05
1.68784e-05
1.71478e-05
1.65281e-05
1.63456e-05
1.63127e-05
1.69568e-05
1.70113e-05
1.72635e-05
1.62814e-05
1.62579e-05
1.6179e-05
1.62064e-05
1.69974e-05
1.73869e-05
1.62822e-05
1.62847e-05
1.61796e-05
1.62132e-05
1.62598e-05
1.62067e-05
1.62174e-05
1.71598e-05
1.73354e-05
1.62606e-05
1.62136e-05
1.62182e-05
1.74666e-05
1.73031e-05
1.7616e-05
1.61472e-05
1.61882e-05
1.61175e-05
1.60899e-05
1.74779e-05
1.74822e-05
1.61477e-05
1.61501e-05
1.61179e-05
1.60775e-05
1.62015e-05
1.60896e-05
1.60745e-05
1.73513e-05
1.73822e-05
1.62022e-05
1.60776e-05
1.60749e-05
1.74386e-05
1.77108e-05
1.77867e-05
1.61203e-05
1.60903e-05
1.60916e-05
1.61378e-05
1.75406e-05
1.80405e-05
1.61207e-05
1.61057e-05
1.6092e-05
1.61595e-05
1.60681e-05
1.61376e-05
1.61498e-05
1.75834e-05
1.8149e-05
1.60685e-05
1.61593e-05
1.61505e-05
1.81257e-05
1.78109e-05
1.89536e-05
1.60945e-05
1.61628e-05
1.6307e-05
1.62506e-05
1.81615e-05
1.86023e-05
1.6095e-05
1.61666e-05
1.63071e-05
1.62111e-05
1.61758e-05
1.62507e-05
1.6239e-05
1.81997e-05
1.84108e-05
1.61767e-05
1.62112e-05
1.62395e-05
1.8563e-05
1.92147e-05
1.94036e-05
1.6396e-05
1.63128e-05
1.64876e-05
1.64379e-05
1.87586e-05
1.92591e-05
1.63958e-05
1.62445e-05
1.64877e-05
1.65399e-05
1.63092e-05
1.64368e-05
1.64358e-05
1.85207e-05
1.96667e-05
1.63093e-05
1.65384e-05
1.64359e-05
1.92434e-05
1.94571e-05
2.00585e-05
1.65272e-05
1.65057e-05
1.67499e-05
1.68138e-05
1.93879e-05
2.03128e-05
1.65279e-05
1.66169e-05
1.67501e-05
1.67505e-05
1.64841e-05
1.68131e-05
1.68223e-05
1.98655e-05
2.00436e-05
1.64849e-05
1.67499e-05
1.6823e-05
2.03449e-05
2.02342e-05
2.08323e-05
1.68414e-05
1.6895e-05
1.71076e-05
1.71064e-05
2.04856e-05
2.07939e-05
1.6841e-05
1.68179e-05
1.71072e-05
1.71055e-05
1.68999e-05
1.71054e-05
1.7112e-05
2.01275e-05
2.08084e-05
1.68998e-05
1.71045e-05
1.71118e-05
2.08047e-05
2.09991e-05
2.17837e-05
1.72157e-05
1.71971e-05
1.75703e-05
1.75682e-05
2.0932e-05
2.17769e-05
1.72154e-05
1.72078e-05
1.75699e-05
1.75579e-05
1.72126e-05
1.7567e-05
1.75812e-05
2.09892e-05
2.17267e-05
1.72124e-05
1.75566e-05
1.75811e-05
2.18008e-05
2.19897e-05
2.28103e-05
1.77045e-05
1.77125e-05
1.81233e-05
1.81112e-05
2.20147e-05
2.27724e-05
1.77038e-05
1.77006e-05
1.81226e-05
1.81374e-05
1.77115e-05
1.81096e-05
1.81005e-05
2.19629e-05
2.28649e-05
1.7711e-05
1.81358e-05
1.81e-05
2.27226e-05
2.3015e-05
2.38257e-05
1.82676e-05
1.82482e-05
1.87349e-05
1.87388e-05
2.29539e-05
2.38522e-05
1.82671e-05
1.82846e-05
1.87342e-05
1.87329e-05
1.82556e-05
1.87369e-05
1.87406e-05
2.30694e-05
2.38189e-05
1.82551e-05
1.87311e-05
1.874e-05
2.38603e-05
2.40485e-05
2.48775e-05
1.88992e-05
1.89057e-05
1.9413e-05
1.94165e-05
2.40911e-05
2.48814e-05
1.88982e-05
1.88945e-05
1.94115e-05
1.94155e-05
1.89085e-05
1.94144e-05
1.94115e-05
2.40301e-05
2.48923e-05
1.89076e-05
1.94134e-05
1.94101e-05
2.4884e-05
2.51101e-05
2.59594e-05
1.95975e-05
1.95888e-05
2.01569e-05
2.01752e-05
2.51038e-05
2.59905e-05
1.9596e-05
1.95933e-05
2.01555e-05
2.0179e-05
1.95936e-05
2.01731e-05
2.01676e-05
2.51225e-05
2.59942e-05
1.9592e-05
2.01772e-05
2.01664e-05
2.59724e-05
2.6187e-05
2.70499e-05
2.03544e-05
2.03723e-05
2.09582e-05
2.09459e-05
2.62346e-05
2.7e-05
2.03528e-05
2.03662e-05
2.0956e-05
2.09448e-05
2.03448e-05
2.09435e-05
2.09658e-05
2.6221e-05
2.70015e-05
2.03431e-05
2.09425e-05
2.09635e-05
2.70531e-05
2.72827e-05
2.81337e-05
2.11669e-05
2.11641e-05
2.18209e-05
2.18196e-05
2.72409e-05
2.81515e-05
2.11648e-05
2.11746e-05
2.18188e-05
2.18251e-05
2.1192e-05
2.18171e-05
2.18115e-05
2.72666e-05
2.81609e-05
2.11897e-05
2.18229e-05
2.18093e-05
2.81148e-05
2.8358e-05
2.91896e-05
2.20298e-05
2.20365e-05
2.27103e-05
2.27079e-05
2.83736e-05
2.91832e-05
2.20277e-05
2.20312e-05
2.27075e-05
2.2709e-05
2.20284e-05
2.27054e-05
2.27095e-05
2.83617e-05
2.91826e-05
2.20258e-05
2.27069e-05
2.27066e-05
2.91963e-05
2.94412e-05
3.02451e-05
2.29491e-05
2.29343e-05
2.3643e-05
2.3648e-05
2.94154e-05
3.0254e-05
2.29464e-05
2.29397e-05
2.364e-05
2.36505e-05
2.29389e-05
2.36456e-05
2.3652e-05
2.94271e-05
3.0258e-05
2.29357e-05
2.36483e-05
2.36488e-05
3.02596e-05
3.04719e-05
3.12934e-05
2.3882e-05
2.38876e-05
2.46141e-05
2.46115e-05
3.04897e-05
3.12866e-05
2.38792e-05
2.38914e-05
2.46109e-05
2.4612e-05
2.38893e-05
2.4609e-05
2.46148e-05
3.04923e-05
3.12837e-05
2.38859e-05
2.46099e-05
2.46111e-05
3.12898e-05
3.15192e-05
3.23079e-05
2.48575e-05
2.48602e-05
2.56052e-05
2.56053e-05
3.15186e-05
3.23096e-05
2.48543e-05
2.48581e-05
2.56016e-05
2.56098e-05
2.48629e-05
2.56028e-05
2.56087e-05
3.15123e-05
3.23181e-05
2.48589e-05
2.56078e-05
2.56047e-05
3.23134e-05
3.25353e-05
3.33062e-05
2.58572e-05
2.5856e-05
2.6617e-05
2.66181e-05
3.25327e-05
3.33088e-05
2.58539e-05
2.5861e-05
2.66132e-05
2.66199e-05
2.58603e-05
2.66158e-05
2.66231e-05
3.2543e-05
3.33099e-05
2.5856e-05
2.66182e-05
2.66187e-05
3.33156e-05
3.35293e-05
3.42922e-05
2.6873e-05
2.68722e-05
2.76472e-05
2.76444e-05
3.35289e-05
3.42898e-05
2.68694e-05
2.68754e-05
2.76433e-05
2.76454e-05
2.68777e-05
2.76422e-05
2.76467e-05
3.35317e-05
3.42865e-05
2.68731e-05
2.76438e-05
2.76421e-05
3.42865e-05
3.45072e-05
3.52305e-05
2.79046e-05
2.79045e-05
2.86737e-05
2.86722e-05
3.45091e-05
3.52266e-05
2.79007e-05
2.79027e-05
2.86696e-05
2.86761e-05
2.79053e-05
2.86701e-05
2.86753e-05
3.45019e-05
3.52338e-05
2.79004e-05
2.86747e-05
2.86704e-05
3.52331e-05
3.54442e-05
3.61675e-05
2.89333e-05
2.89288e-05
2.97135e-05
2.97161e-05
3.54362e-05
3.6176e-05
2.89293e-05
2.89335e-05
2.97093e-05
2.97187e-05
2.89361e-05
2.97143e-05
2.97203e-05
3.54451e-05
3.61778e-05
2.89311e-05
2.97177e-05
2.97152e-05
3.61764e-05
3.63707e-05
3.70674e-05
2.99704e-05
2.9974e-05
3.07455e-05
3.07406e-05
3.63812e-05
3.70587e-05
2.99662e-05
2.99778e-05
3.07411e-05
3.07428e-05
2.99752e-05
3.0739e-05
3.07481e-05
3.63843e-05
3.70601e-05
2.99699e-05
3.07421e-05
3.0743e-05
3.70674e-05
3.72696e-05
3.79431e-05
3.10034e-05
3.10005e-05
3.17709e-05
3.17693e-05
3.72634e-05
3.79429e-05
3.0999e-05
3.10021e-05
3.17665e-05
3.1774e-05
3.10064e-05
3.17679e-05
3.17741e-05
3.7264e-05
3.79479e-05
3.1001e-05
3.17735e-05
3.17688e-05
3.7947e-05
3.81406e-05
3.87968e-05
3.20276e-05
3.20242e-05
3.27885e-05
3.2789e-05
3.8137e-05
3.88023e-05
3.20232e-05
3.2027e-05
3.27839e-05
3.27896e-05
3.20321e-05
3.27879e-05
3.27922e-05
3.81393e-05
3.88021e-05
3.20267e-05
3.27895e-05
3.27868e-05
3.87994e-05
3.89832e-05
3.96262e-05
3.30383e-05
3.30389e-05
3.37883e-05
3.37838e-05
3.89892e-05
3.96195e-05
3.30336e-05
3.3042e-05
3.37838e-05
3.3789e-05
3.30413e-05
3.37829e-05
3.37904e-05
3.89932e-05
3.96246e-05
3.30357e-05
3.37891e-05
3.37852e-05
3.96274e-05
3.98118e-05
4.04264e-05
3.40367e-05
3.40326e-05
3.47712e-05
3.47696e-05
3.98068e-05
4.04277e-05
3.40321e-05
3.40362e-05
3.47664e-05
3.47717e-05
3.40389e-05
3.47691e-05
3.47752e-05
3.98087e-05
4.04288e-05
3.40335e-05
3.47721e-05
3.47699e-05
4.04306e-05
4.0605e-05
4.12023e-05
3.50139e-05
3.50113e-05
3.57319e-05
3.5729e-05
4.06044e-05
4.12024e-05
3.50091e-05
3.5014e-05
3.57272e-05
3.57334e-05
3.50172e-05
3.57288e-05
3.57341e-05
4.06067e-05
4.12075e-05
3.50117e-05
3.5734e-05
3.57289e-05
4.12049e-05
4.13744e-05
4.19628e-05
3.59683e-05
3.59664e-05
3.66737e-05
3.66698e-05
4.13764e-05
4.1959e-05
3.59636e-05
3.59712e-05
3.66691e-05
3.66736e-05
3.59721e-05
3.667e-05
3.66779e-05
4.13819e-05
4.19608e-05
3.59668e-05
3.66746e-05
3.66729e-05
4.19659e-05
4.21302e-05
4.26862e-05
3.69051e-05
3.69008e-05
3.75866e-05
3.75835e-05
4.2126e-05
4.2687e-05
3.69005e-05
3.69035e-05
3.75818e-05
3.7586e-05
3.69075e-05
3.75839e-05
3.75866e-05
4.2126e-05
4.26893e-05
3.69023e-05
3.75871e-05
3.75815e-05
4.2685e-05
4.28487e-05
4.33879e-05
3.78111e-05
3.78079e-05
3.84739e-05
3.84701e-05
4.28487e-05
4.33872e-05
3.78063e-05
3.78115e-05
3.84693e-05
3.84756e-05
3.7812e-05
3.84709e-05
3.84788e-05
4.28527e-05
4.33926e-05
3.78068e-05
3.8477e-05
3.8474e-05
4.33962e-05
4.35423e-05
4.40705e-05
3.86908e-05
3.86874e-05
3.9334e-05
3.93306e-05
4.35428e-05
4.40691e-05
3.86862e-05
3.86922e-05
3.93294e-05
3.93333e-05
3.86963e-05
3.93317e-05
3.93353e-05
4.35467e-05
4.407e-05
3.86914e-05
3.9335e-05
3.93306e-05
4.40676e-05
4.42235e-05
4.47275e-05
3.95463e-05
3.9542e-05
4.01705e-05
4.01646e-05
4.42207e-05
4.4724e-05
3.95417e-05
3.95449e-05
4.01659e-05
4.01695e-05
3.95458e-05
4.01657e-05
4.0171e-05
4.42224e-05
4.47292e-05
3.95409e-05
4.01712e-05
4.01664e-05
4.47303e-05
4.48711e-05
4.53523e-05
4.03733e-05
4.03682e-05
4.09706e-05
4.09682e-05
4.48691e-05
4.53547e-05
4.03688e-05
4.03732e-05
4.09661e-05
4.09717e-05
4.03759e-05
4.09698e-05
4.09749e-05
4.4874e-05
4.53563e-05
4.03713e-05
4.09738e-05
4.09705e-05
4.53568e-05
4.54923e-05
4.59611e-05
4.11668e-05
4.11643e-05
4.17465e-05
4.17417e-05
4.54942e-05
4.59586e-05
4.11624e-05
4.11675e-05
4.1742e-05
4.17455e-05
4.117e-05
4.17433e-05
4.1747e-05
4.54956e-05
4.59617e-05
4.11655e-05
4.17477e-05
4.17427e-05
4.59614e-05
4.60971e-05
4.65514e-05
4.19364e-05
4.19312e-05
4.24963e-05
4.24907e-05
4.60944e-05
4.65481e-05
4.1932e-05
4.19352e-05
4.24919e-05
4.2495e-05
4.19371e-05
4.24926e-05
4.2497e-05
4.60974e-05
4.65519e-05
4.19326e-05
4.24974e-05
4.24928e-05
4.6551e-05
4.66816e-05
4.71056e-05
4.2679e-05
4.26735e-05
4.32122e-05
4.32078e-05
4.66782e-05
4.71064e-05
4.26747e-05
4.26779e-05
4.3208e-05
4.32124e-05
4.26795e-05
4.32097e-05
4.32142e-05
4.66822e-05
4.71102e-05
4.26753e-05
4.32148e-05
4.32102e-05
4.71109e-05
4.72287e-05
4.76486e-05
4.33853e-05
4.33819e-05
4.39002e-05
4.38956e-05
4.72307e-05
4.76444e-05
4.33812e-05
4.33863e-05
4.38961e-05
4.38989e-05
4.33888e-05
4.38981e-05
4.39017e-05
4.72342e-05
4.76458e-05
4.33848e-05
4.39018e-05
4.38977e-05
4.76459e-05
4.77714e-05
4.81543e-05
4.40697e-05
4.40632e-05
4.456e-05
4.45537e-05
4.77645e-05
4.81543e-05
4.40655e-05
4.40663e-05
4.45559e-05
4.45574e-05
4.40684e-05
4.45557e-05
4.45578e-05
4.77656e-05
4.81578e-05
4.40644e-05
4.45598e-05
4.4554e-05
4.81558e-05
4.82636e-05
4.86496e-05
4.4717e-05
4.47136e-05
4.51842e-05
4.5185e-05
4.82683e-05
4.86544e-05
4.47129e-05
4.47178e-05
4.51804e-05
4.51905e-05
4.47187e-05
4.51882e-05
4.51935e-05
4.82727e-05
4.86593e-05
4.47148e-05
4.51939e-05
4.51899e-05
4.86606e-05
4.8771e-05
4.91657e-05
4.53437e-05
4.53409e-05
4.58186e-05
4.58026e-05
4.87695e-05
4.91452e-05
4.53399e-05
4.53458e-05
4.58147e-05
4.58039e-05
4.53492e-05
4.58049e-05
4.58055e-05
4.8773e-05
4.9143e-05
4.53457e-05
4.58064e-05
4.58019e-05
4.91424e-05
4.92637e-05
4.95239e-05
4.59635e-05
4.59495e-05
4.635e-05
4.63569e-05
4.9248e-05
4.95494e-05
4.59595e-05
4.59508e-05
4.6346e-05
4.63644e-05
4.59514e-05
4.63597e-05
4.6365e-05
4.92466e-05
4.95608e-05
4.59476e-05
4.63673e-05
4.63615e-05
4.95589e-05
4.96191e-05
5.00226e-05
4.64791e-05
4.64885e-05
4.69131e-05
4.69041e-05
4.96457e-05
5.00045e-05
4.64754e-05
4.64972e-05
4.69097e-05
4.69066e-05
4.64989e-05
4.69084e-05
4.69102e-05
4.96578e-05
5.00005e-05
4.64956e-05
4.6911e-05
4.69071e-05
5.00018e-05
5.01375e-05
5.04362e-05
4.70634e-05
4.70473e-05
4.74631e-05
4.74491e-05
5.01116e-05
5.04261e-05
4.70598e-05
4.70466e-05
4.74589e-05
4.74493e-05
4.70495e-05
4.74502e-05
4.74483e-05
5.01042e-05
5.04265e-05
4.70461e-05
4.74506e-05
4.74446e-05
5.04241e-05
5.05121e-05
5.0767e-05
4.75765e-05
4.75697e-05
4.79132e-05
4.79204e-05
5.05115e-05
5.07879e-05
4.75725e-05
4.75735e-05
4.79101e-05
4.79301e-05
4.75729e-05
4.79256e-05
4.79344e-05
5.05165e-05
5.0799e-05
4.75693e-05
4.7935e-05
4.79318e-05
5.08015e-05
5.08623e-05
5.11892e-05
4.80351e-05
4.80406e-05
4.84099e-05
4.84006e-05
5.0879e-05
5.11764e-05
4.80322e-05
4.80486e-05
4.84064e-05
4.84016e-05
4.80532e-05
4.8404e-05
4.8401e-05
5.08874e-05
5.1173e-05
4.80506e-05
4.8405e-05
4.8398e-05
5.1168e-05
5.12772e-05
5.15218e-05
4.85276e-05
4.85154e-05
4.88506e-05
4.88411e-05
5.12619e-05
5.15142e-05
4.85239e-05
4.85159e-05
4.88471e-05
4.88447e-05
4.85143e-05
4.8844e-05
4.88461e-05
5.12585e-05
5.1518e-05
4.8511e-05
4.88474e-05
4.8843e-05
5.15191e-05
5.15954e-05
5.18252e-05
4.89523e-05
4.8945e-05
4.92496e-05
4.92484e-05
5.15907e-05
5.18345e-05
4.8949e-05
4.89496e-05
4.92465e-05
4.92535e-05
4.89524e-05
4.92525e-05
4.92564e-05
5.15953e-05
5.18384e-05
4.89494e-05
4.92574e-05
4.92539e-05
5.18401e-05
5.19037e-05
5.2169e-05
4.93491e-05
4.93498e-05
4.96558e-05
4.96537e-05
5.19152e-05
5.21673e-05
4.93459e-05
4.93541e-05
4.96525e-05
4.96567e-05
4.93568e-05
4.96582e-05
4.96577e-05
5.19182e-05
5.21693e-05
4.93541e-05
4.9661e-05
4.96547e-05
5.2165e-05
5.22454e-05
5.24321e-05
4.9756e-05
4.97491e-05
5.00193e-05
5.0004e-05
5.22364e-05
5.24161e-05
4.97528e-05
4.97526e-05
5.00166e-05
5.00083e-05
4.97525e-05
5.00065e-05
5.00067e-05
5.22391e-05
5.24182e-05
4.97496e-05
5.00107e-05
5.00045e-05
5.24165e-05
5.24907e-05
5.26911e-05
5.00966e-05
5.00847e-05
5.03408e-05
5.03452e-05
5.248e-05
5.27093e-05
5.00937e-05
5.0088e-05
5.03373e-05
5.03464e-05
5.00879e-05
5.03502e-05
5.03518e-05
5.2481e-05
5.27086e-05
5.00856e-05
5.0351e-05
5.03487e-05
5.27125e-05
5.27657e-05
5.29856e-05
5.04311e-05
5.04359e-05
5.06923e-05
5.06835e-05
5.27828e-05
5.29727e-05
5.04277e-05
5.04384e-05
5.069e-05
5.06908e-05
5.04436e-05
5.06875e-05
5.06896e-05
5.27841e-05
5.29813e-05
5.04405e-05
5.06951e-05
5.06878e-05
5.29752e-05
5.30438e-05
5.31905e-05
5.0768e-05
5.07559e-05
5.09717e-05
5.09646e-05
5.30283e-05
5.319e-05
5.07658e-05
5.07631e-05
5.09689e-05
5.09676e-05
5.07605e-05
5.09678e-05
5.09682e-05
5.30358e-05
5.31901e-05
5.07589e-05
5.09702e-05
5.09655e-05
5.31918e-05
5.32452e-05
5.3417e-05
5.10386e-05
5.10354e-05
5.12443e-05
5.12427e-05
5.32492e-05
5.34195e-05
5.10356e-05
5.10373e-05
5.12413e-05
5.1245e-05
5.10407e-05
5.12483e-05
5.12496e-05
5.32489e-05
5.342e-05
5.10376e-05
5.12506e-05
5.12472e-05
5.342e-05
5.34729e-05
5.35937e-05
5.13118e-05
5.13076e-05
5.14901e-05
5.14812e-05
5.34717e-05
5.35864e-05
5.13088e-05
5.13104e-05
5.14876e-05
5.14845e-05
5.1312e-05
5.14839e-05
5.14791e-05
5.34727e-05
5.35891e-05
5.13099e-05
5.14868e-05
5.14767e-05
5.35801e-05
5.36343e-05
5.37726e-05
5.15404e-05
5.15327e-05
5.16998e-05
5.16974e-05
5.3629e-05
5.37764e-05
5.15383e-05
5.15368e-05
5.16975e-05
5.17019e-05
5.15332e-05
5.17027e-05
5.17105e-05
5.36317e-05
5.37794e-05
5.15306e-05
5.17068e-05
5.17084e-05
5.3792e-05
5.3834e-05
5.39795e-05
5.1765e-05
5.1762e-05
5.1948e-05
5.19408e-05
5.38364e-05
5.39744e-05
5.17621e-05
5.17666e-05
5.19454e-05
5.19467e-05
5.1776e-05
5.19451e-05
5.19447e-05
5.38407e-05
5.39802e-05
5.17741e-05
5.19514e-05
5.19432e-05
5.39696e-05
5.40126e-05
5.40625e-05
5.19934e-05
5.19862e-05
5.20882e-05
5.20878e-05
5.40089e-05
5.40687e-05
5.19915e-05
5.1992e-05
5.20857e-05
5.20847e-05
5.19857e-05
5.20912e-05
5.20829e-05
5.40124e-05
5.40597e-05
5.1984e-05
5.2087e-05
5.20797e-05
5.40589e-05
5.41035e-05
5.42484e-05
5.21278e-05
5.21268e-05
5.22799e-05
5.22661e-05
5.41078e-05
5.42287e-05
5.21242e-05
5.21229e-05
5.22776e-05
5.22768e-05
5.21277e-05
5.22708e-05
5.2283e-05
5.41005e-05
5.4247e-05
5.21245e-05
5.22826e-05
5.22821e-05
5.42504e-05
5.42847e-05
5.43021e-05
5.23257e-05
5.23104e-05
5.2399e-05
5.24021e-05
5.42657e-05
5.43222e-05
5.23244e-05
5.23244e-05
5.23979e-05
5.24056e-05
5.23262e-05
5.24075e-05
5.23987e-05
5.42853e-05
5.43159e-05
5.23254e-05
5.24077e-05
5.23953e-05
5.43038e-05
5.43269e-05
5.44737e-05
5.24201e-05
5.24315e-05
5.25472e-05
5.25451e-05
5.4355e-05
5.44666e-05
5.24179e-05
5.24266e-05
5.25417e-05
5.25351e-05
5.24238e-05
5.25482e-05
5.25482e-05
5.43406e-05
5.44538e-05
5.24198e-05
5.25418e-05
5.25466e-05
5.44728e-05
5.45204e-05
5.45161e-05
5.25952e-05
5.25835e-05
5.26589e-05
5.26365e-05
5.45002e-05
5.44894e-05
5.25896e-05
5.25788e-05
5.26606e-05
5.26638e-05
5.25913e-05
5.26406e-05
5.26489e-05
5.44982e-05
5.45322e-05
5.25901e-05
5.26658e-05
5.26482e-05
5.45001e-05
5.45229e-05
5.45192e-05
5.26588e-05
5.264e-05
5.26751e-05
5.26899e-05
5.44998e-05
5.45528e-05
5.26615e-05
5.26701e-05
5.2675e-05
5.26812e-05
5.26507e-05
5.26961e-05
5.26885e-05
5.4542e-05
5.45174e-05
5.26497e-05
5.26839e-05
5.26846e-05
5.45415e-05
5.45624e-05
5.46327e-05
5.27107e-05
5.27269e-05
5.27995e-05
5.27978e-05
5.4595e-05
5.46319e-05
5.27056e-05
5.2704e-05
5.27946e-05
5.28043e-05
5.27263e-05
5.2801e-05
5.28023e-05
5.45581e-05
5.46522e-05
5.27223e-05
5.28126e-05
5.2803e-05
5.46358e-05
5.46536e-05
5.47097e-05
5.28133e-05
5.28055e-05
5.28625e-05
5.28255e-05
5.46441e-05
5.46526e-05
5.28107e-05
5.28194e-05
5.28616e-05
5.28328e-05
5.28108e-05
5.28304e-05
5.28392e-05
5.46691e-05
5.46412e-05
5.2812e-05
5.28363e-05
5.28356e-05
5.46758e-05
5.47426e-05
5.47756e-05
5.28829e-05
5.28557e-05
5.2935e-05
5.29729e-05
5.46995e-05
5.48869e-05
5.28827e-05
5.28496e-05
5.29326e-05
5.29605e-05
5.28787e-05
5.29802e-05
5.29573e-05
5.4679e-05
5.48477e-05
5.28713e-05
5.29641e-05
5.29519e-05
5.48387e-05
5.47906e-05
5.45885e-05
5.29364e-05
5.29741e-05
5.28797e-05
5.28305e-05
5.49062e-05
5.44252e-05
5.29334e-05
5.29637e-05
5.28762e-05
5.28752e-05
5.29546e-05
5.28255e-05
5.28293e-05
5.48674e-05
5.4555e-05
5.29496e-05
5.2879e-05
5.28346e-05
5.44897e-05
5.45703e-05
5.46174e-05
5.283e-05
5.2763e-05
5.2824e-05
5.27867e-05
5.43888e-05
5.46563e-05
5.28306e-05
5.28239e-05
5.28261e-05
5.28148e-05
5.27974e-05
5.2791e-05
5.28392e-05
5.45425e-05
5.46271e-05
5.28065e-05
5.28224e-05
5.28471e-05
5.47422e-05
5.47782e-05
5.50141e-05
5.28971e-05
5.29152e-05
5.30531e-05
5.30963e-05
5.48786e-05
5.50733e-05
5.28957e-05
5.28674e-05
5.30393e-05
5.2995e-05
5.29422e-05
5.31061e-05
5.30407e-05
5.47445e-05
5.48632e-05
5.2939e-05
5.29924e-05
5.3017e-05
5.48941e-05
5.49339e-05
5.42993e-05
5.30231e-05
5.30673e-05
5.27421e-05
5.27434e-05
5.49975e-05
5.43516e-05
5.30097e-05
5.29871e-05
5.27515e-05
5.286e-05
5.30174e-05
5.27461e-05
5.27701e-05
5.48426e-05
5.46126e-05
5.29947e-05
5.28747e-05
5.27875e-05
5.44321e-05
5.43509e-05
5.48898e-05
5.27431e-05
5.27125e-05
5.29099e-05
5.27307e-05
5.43626e-05
5.45123e-05
5.27542e-05
5.28475e-05
5.29178e-05
5.28079e-05
5.2741e-05
5.27258e-05
5.27621e-05
5.46314e-05
5.45559e-05
5.27639e-05
5.27993e-05
5.27792e-05
5.45849e-05
5.49108e-05
5.45846e-05
5.29294e-05
5.27734e-05
5.28668e-05
5.29971e-05
5.45722e-05
5.49966e-05
5.29304e-05
5.27935e-05
5.28417e-05
5.28012e-05
5.28262e-05
5.30121e-05
5.29737e-05
5.45536e-05
5.46025e-05
5.28299e-05
5.28026e-05
5.2948e-05
5.49099e-05
5.45827e-05
5.46681e-05
5.28264e-05
5.30284e-05
5.28028e-05
5.29937e-05
5.50669e-05
5.49645e-05
5.28019e-05
5.28505e-05
5.27958e-05
5.298e-05
5.29726e-05
5.30141e-05
5.28813e-05
5.47134e-05
5.51156e-05
5.29468e-05
5.29985e-05
5.28746e-05
5.47178e-05
5.47429e-05
5.44888e-05
5.28138e-05
5.29256e-05
5.27237e-05
5.22177e-05
5.4913e-05
5.33734e-05
5.28187e-05
5.29771e-05
5.27519e-05
5.24531e-05
5.28554e-05
5.22062e-05
5.23993e-05
5.51317e-05
5.36601e-05
5.28547e-05
5.2439e-05
5.24292e-05
5.38242e-05
5.42875e-05
5.37664e-05
5.25214e-05
5.21294e-05
5.22912e-05
5.23782e-05
5.32924e-05
5.47181e-05
5.25566e-05
5.22131e-05
5.22747e-05
5.22224e-05
5.22424e-05
5.2349e-05
5.23031e-05
5.34432e-05
5.41353e-05
5.22603e-05
5.22178e-05
5.23033e-05
5.42758e-05
5.39389e-05
5.44289e-05
5.23563e-05
5.29041e-05
5.13346e-05
5.17884e-05
5.54438e-05
5.53922e-05
5.23268e-05
5.25999e-05
5.13097e-05
5.16323e-05
5.26832e-05
5.18234e-05
5.16598e-05
5.48363e-05
5.52242e-05
5.26661e-05
5.16666e-05
5.16342e-05
5.51287e-05
5.39708e-05
5.07264e-05
5.10036e-05
5.42894e-05
5.07087e-05
5.08942e-05
4.41214e-05
4.40075e-05
4.40214e-05
5.09092e-05
5.42309e-05
5.08876e-05
3.73769e-05
3.73764e-05
3.73767e-05
3.73767e-05
3.73694e-05
3.73756e-05
3.73043e-05
3.73764e-05
3.73695e-05
3.73756e-05
3.73764e-05
3.73043e-05
3.73714e-05
3.72959e-05
3.72959e-05
3.58828e-05
4.08679e-05
3.6601e-05
4.5138e-05
5.51099e-05
6.48882e-05
3.58834e-05
4.08675e-05
3.66009e-05
4.51408e-05
3.60232e-05
3.60232e-05
3.60232e-05
3.44005e-05
3.44005e-05
3.44005e-05
3.44005e-05
3.52763e-05
3.56384e-05
3.60241e-05
3.53761e-05
3.60479e-05
3.42425e-05
3.53827e-05
5.51119e-05
6.48899e-05
3.52764e-05
3.60241e-05
3.56379e-05
3.53761e-05
3.60478e-05
3.53827e-05
3.42432e-05
3.65941e-05
3.65948e-05
3.52782e-05
3.40673e-05
3.40665e-05
3.39695e-05
5.13499e-05
3.46836e-05
5.46185e-05
7.65444e-05
8.08617e-05
3.39704e-05
5.13504e-05
3.46829e-05
5.46219e-05
3.39295e-05
3.39295e-05
3.39295e-05