/*--------------------------------*- C++ -*----------------------------------*\
| =========                 |                                                 |
| \\      /  F ield         | OpenFOAM: The Open Source CFD Toolbox           |
|  \\    /   O peration     | Version:  2312                                  |
|   \\  /    A nd           | Website:  www.openfoam.com                      |
|    \\/     M anipulation  |                                                 |
\*---------------------------------------------------------------------------*/
FoamFile
{
    version     2.0;
    format      ascii;
    arch        "LSB;label=32;scalar=64";
    class       volScalarField;
    location    "875";
    object      nut;
}
// * * * * * * * * * * * * * * * * * * * * * * * * * * * * * * * * * * * * * //

dimensions      [0 2 -1 0 0 0 0];

internalField   nonuniform List<scalar> 
172512
(
0.000233969
0.000233549
0.000233549
0.00023345
0.000232529
0.000227583
0.000227583
0.000223835
0.000230489
0.000220163
0.000220162
0.00020903
0.00022776
0.000211546
0.000211544
0.0001937
0.00022439
0.000202555
0.000202552
0.00017963
0.000220508
0.000193694
0.000193691
0.000167269
0.000216261
0.00018521
0.000185206
0.000156525
0.000211779
0.000177178
0.000177173
0.000147154
0.000207168
0.00016964
0.000169635
0.000138899
0.000202509
0.000162569
0.000162564
0.000131577
0.000197856
0.000155912
0.000155905
0.000124922
0.000193245
0.000149615
0.000149608
0.00011879
0.000188655
0.000143638
0.000143631
0.000113137
0.000184125
0.000137913
0.000137927
0.000107913
0.000179677
0.000132493
0.00013245
0.000103262
0.000175317
0.000127207
0.000127167
9.82038e-05
0.000171017
0.000122024
0.000122168
9.38113e-05
0.000166776
0.000117423
0.000117166
9.10257e-05
0.000162564
0.000112449
0.000112822
8.66351e-05
0.000158397
0.000109257
0.000108746
8.76467e-05
0.000154304
0.000104805
0.000104998
8.17593e-05
0.000149957
0.000101832
0.000101876
8.37784e-05
0.000146327
9.91476e-05
9.8312e-05
8.22712e-05
0.000142098
9.64005e-05
9.76945e-05
8.1305e-05
0.0001381
9.5458e-05
9.45806e-05
8.5178e-05
0.000134215
9.30909e-05
9.31981e-05
8.27071e-05
0.000130576
9.27029e-05
9.25679e-05
8.48014e-05
0.000127125
9.21997e-05
9.25589e-05
8.60421e-05
0.000123873
9.2659e-05
9.25383e-05
8.87272e-05
0.000120875
9.31281e-05
9.31603e-05
9.06602e-05
0.000118173
9.43563e-05
9.42901e-05
9.29705e-05
0.00011577
9.55003e-05
9.55835e-05
9.58457e-05
0.000113712
9.72416e-05
9.71835e-05
9.78686e-05
0.000112023
9.91051e-05
9.91407e-05
0.000100718
0.000110662
0.000101378
0.0001014
0.000103418
0.000109684
0.000103768
0.00010374
0.000106079
0.000109073
0.000106333
0.000106364
0.000108793
0.000108829
0.000109073
0.000109088
0.000111539
0.000108958
0.000111974
0.000111948
0.000114239
0.0001094
0.000114863
0.000114889
0.000116937
0.000110208
0.000117991
0.000118009
0.000119684
0.000111323
0.000121061
0.000121061
0.000122338
0.000112745
0.000124216
0.000124225
0.000125014
0.000114456
0.000127423
0.000127432
0.000127579
0.000116426
0.000130597
0.000130611
0.000130217
0.000118646
0.000133802
0.000133807
0.000132753
0.000121083
0.000136974
0.000136994
0.000135262
0.000123735
0.000140146
0.00014015
0.000137751
0.000126556
0.000143268
0.000143278
0.000140148
0.000129529
0.000146347
0.000146365
0.000142545
0.000132644
0.000149399
0.000149403
0.000144825
0.00013589
0.000152398
0.000152417
0.000147152
0.000139199
0.000155332
0.000155337
0.000149316
0.000142602
0.0001582
0.00015821
0.000151479
0.000146083
0.000161045
0.000161058
0.000153612
0.000149581
0.000163786
0.000163799
0.00015565
0.000153107
0.000166471
0.000166476
0.000157604
0.000156643
0.000169072
0.000169084
0.000159507
0.000160177
0.000171655
0.000171672
0.00016147
0.00016382
0.000174213
0.000174204
0.000163302
0.00016715
0.000176415
0.00017646
0.000164824
0.000170663
0.000178877
0.000178853
0.000166669
0.000174223
0.000181188
0.000181196
0.000168336
0.000177422
0.000183275
0.000183316
0.000169844
0.00018084
0.000185459
0.000185442
0.000171347
0.000184081
0.000187455
0.00018747
0.000172804
0.000187176
0.000189374
0.000189387
0.000174169
0.000190318
0.000191359
0.000191366
0.000175565
0.00019331
0.000192953
0.000192958
0.000176562
0.000196117
0.000194805
0.000194802
0.000178021
0.000199093
0.000196487
0.000196528
0.000179134
0.000201756
0.000197983
0.000197971
0.000180157
0.000204352
0.00019951
0.000199517
0.000181206
0.000206833
0.000200757
0.000200763
0.000181913
0.000209172
0.000202154
0.000202172
0.000183137
0.000211665
0.00020358
0.000203605
0.000183901
0.000213664
0.000204428
0.00020438
0.00018441
0.000215828
0.000205722
0.000205812
0.000185478
0.000217691
0.000206587
0.000206515
0.000185704
0.000219678
0.000207785
0.000207749
0.000186925
0.000221455
0.000208322
0.000208503
0.000186887
0.000222717
0.000209048
0.000208885
0.000187406
0.0002245
0.00020995
0.000210036
0.000187996
0.000226036
0.000210588
0.000210477
0.000188648
0.000227555
0.000211789
0.000211711
0.000189548
0.000228286
0.000210443
0.000210961
0.000187373
0.000229307
0.000212301
0.000211813
0.000190364
0.000231014
0.000213757
0.00021306
0.000190424
0.000231206
0.000211319
0.000212524
0.000187645
0.000232579
0.000212553
0.000212635
0.000189969
0.000232821
0.000214624
0.000213104
0.000191139
0.000233623
0.000214766
0.000215247
0.000190625
0.000235469
0.000211064
0.000211866
0.00018676
0.000233634
0.000214249
0.000211224
0.000189114
0.000230553
0.000213987
0.000212765
0.000189005
0.000234257
0.000234459
0.00023446
0.000234257
0.000234459
0.000234459
0.000234259
0.000234259
0.000234259
0.000234259
0.000234459
0.000234459
0.000234257
0.000234458
0.000234459
0.000234257
0.00023345
0.00022618
0.000233549
0.000233548
0.000229126
0.000229122
0.00023345
0.00022618
0.000233548
0.000233548
0.000229124
0.000229121
0.000233549
0.000229129
0.000229127
0.00023345
0.000226179
0.000233548
0.000229129
0.000229124
0.000226178
0.000223836
0.000212153
0.00022758
0.000227575
0.000222162
0.000222156
0.000223835
0.000212153
0.000227578
0.000227574
0.000222162
0.000222155
0.000227579
0.000222168
0.000222161
0.000223836
0.00021215
0.000227578
0.000222167
0.000222161
0.000212146
0.000209034
0.000196981
0.000220156
0.00022015
0.000213753
0.000213746
0.000209032
0.000196979
0.000220157
0.000220148
0.000213758
0.000213744
0.000220154
0.000213762
0.00021375
0.000209031
0.000196975
0.000220156
0.000213761
0.000213754
0.00019697
0.000193708
0.000182804
0.000211535
0.000211528
0.000204791
0.000204784
0.000193707
0.000182802
0.000211541
0.000211526
0.0002048
0.000204781
0.000211531
0.000204804
0.000204786
0.000193704
0.000182799
0.000211537
0.000204802
0.000204795
0.000182792
0.000179642
0.000170206
0.000202541
0.000202534
0.000195864
0.000195857
0.000179638
0.000170204
0.000202551
0.000202531
0.000195876
0.000195853
0.000202536
0.000195879
0.000195858
0.000179635
0.000170199
0.000202545
0.000195877
0.00019587
0.000170191
0.000167283
0.000159191
0.000193677
0.00019367
0.000187271
0.000187264
0.00016728
0.000159187
0.00019369
0.000193666
0.000187287
0.00018726
0.000193671
0.000187289
0.000187265
0.000167275
0.000159181
0.000193684
0.000187286
0.000187279
0.000159175
0.000156539
0.000149569
0.00018519
0.000185183
0.000179118
0.000179111
0.000156538
0.000149564
0.000185207
0.000185179
0.000179137
0.000179106
0.000185183
0.000179139
0.000179111
0.000156532
0.00014956
0.000185198
0.000179135
0.000179129
0.000149551
0.000147169
0.000141069
0.000177155
0.000177148
0.000171454
0.000171447
0.000147163
0.000141069
0.000177175
0.000177144
0.000171476
0.000171442
0.000177148
0.000171477
0.000171447
0.000147157
0.00014106
0.000177166
0.000171474
0.000171466
0.000141049
0.000138921
0.000133522
0.000169615
0.000169607
0.000164269
0.000164261
0.000138913
0.000133508
0.000169637
0.000169603
0.000164293
0.000164256
0.000169608
0.000164294
0.000164262
0.000138908
0.000133503
0.000169628
0.00016429
0.000164284
0.000133499
0.000131592
0.000126657
0.000162541
0.000162534
0.000157511
0.000157504
0.000131586
0.000126654
0.000162565
0.00016253
0.000157538
0.0001575
0.000162535
0.000157539
0.000157506
0.000131581
0.000126655
0.000162557
0.000157536
0.000157529
0.000126643
0.00012493
0.000120355
0.000155883
0.000155876
0.00015113
0.00015112
0.00012493
0.000120338
0.000155911
0.000155869
0.000151159
0.000151115
0.000155878
0.000151157
0.00015112
0.000124923
0.000120333
0.000155902
0.000151153
0.000151144
0.000120311
0.000118825
0.000114417
0.000149584
0.000149577
0.00014507
0.000145064
0.000118822
0.000114441
0.000149613
0.000149571
0.0001451
0.000145061
0.000149577
0.000145103
0.000145067
0.000118787
0.000114423
0.000149601
0.000145101
0.000145092
0.000114387
0.000113164
0.000108835
0.000143605
0.000143596
0.000139298
0.000139296
0.000113172
0.000108846
0.000143635
0.000143592
0.000139329
0.000139286
0.000143599
0.000139336
0.000139298
0.000113175
0.000108817
0.000143625
0.000139325
0.000139325
0.000108809
0.000107973
0.000103692
0.000137891
0.000137873
0.000133747
0.000133812
0.000107908
0.000103979
0.000137922
0.000137888
0.000133778
0.000133748
0.000137885
0.000133852
0.000133804
0.000107968
0.0001037
0.000137911
0.000133791
0.00013383
0.000103883
0.000103091
9.94277e-05
0.000132392
0.000132453
0.0001285
0.000128404
0.000103342
9.89967e-05
0.000132423
0.000132409
0.000128529
0.00012842
0.000132465
0.000128448
0.000128356
0.000103118
9.91107e-05
0.000132492
0.000128462
0.00012838
9.87209e-05
9.86993e-05
9.51032e-05
0.000127153
0.000127163
0.000123385
0.000123188
9.8387e-05
9.43804e-05
0.000127182
0.000127125
0.000123412
0.000123384
0.000127171
0.000123231
0.000123267
9.84169e-05
9.51924e-05
0.000127194
0.000123426
0.000123289
9.46857e-05
9.44218e-05
9.11878e-05
0.000122156
0.00012198
0.000118465
0.000118539
9.36659e-05
9.18511e-05
0.000122182
0.000122127
0.000118489
0.000118044
0.00012197
0.000118582
0.000118574
9.43657e-05
9.015e-05
0.000121989
0.000118086
0.000118594
9.17712e-05
9.05558e-05
8.78971e-05
0.000117386
0.000117377
0.00011373
0.000113728
9.10438e-05
8.77881e-05
0.000117411
0.000117124
0.000113753
0.000114028
0.000117433
0.000113772
0.000113584
8.95474e-05
8.94453e-05
0.000117452
0.000114069
0.0001136
8.74676e-05
8.70805e-05
8.61248e-05
0.000112761
0.000112406
0.00010976
0.000110107
8.68887e-05
8.73446e-05
0.000112787
0.000112782
0.00010978
0.00011021
0.000112449
0.000110151
0.000110271
8.85633e-05
8.68548e-05
0.000112467
0.000110251
0.000110287
8.81313e-05
8.5399e-05
8.45139e-05
0.000108676
0.000109209
0.000106004
0.000105622
8.71261e-05
8.32393e-05
0.000108695
0.0001087
0.000106022
0.000105454
0.000109405
0.000105662
0.000105436
8.58844e-05
8.22693e-05
0.000109421
0.000105495
0.000105447
8.28113e-05
8.42083e-05
8.06923e-05
0.000105175
0.000104766
0.000101942
0.000102508
8.25973e-05
8.30032e-05
0.000105195
0.000104963
0.000101963
0.000102784
0.000104492
0.00010255
0.000102679
8.2984e-05
8.40039e-05
0.000104502
0.000102823
0.000102693
8.37799e-05
7.9681e-05
8.5454e-05
0.000100947
0.000101786
0.000100239
9.95313e-05
8.284e-05
8.2319e-05
0.000100969
0.000101831
0.000100257
9.90414e-05
0.000101967
9.95766e-05
9.94052e-05
8.31852e-05
8.0617e-05
0.000101982
9.90853e-05
9.94148e-05
8.19567e-05
8.64319e-05
8.3308e-05
0.000100134
9.91057e-05
9.7471e-05
9.68676e-05
8.23794e-05
8.20627e-05
0.000100149
9.82707e-05
9.74918e-05
9.80701e-05
9.9075e-05
9.68982e-05
9.68573e-05
8.02888e-05
8.55731e-05
9.90815e-05
9.80973e-05
9.6863e-05
8.19152e-05
8.24084e-05
8.27265e-05
9.6637e-05
9.63687e-05
9.51749e-05
9.58877e-05
8.18144e-05
8.48353e-05
9.66641e-05
9.76689e-05
9.51967e-05
9.51591e-05
9.61324e-05
9.59238e-05
9.59979e-05
8.58943e-05
8.25885e-05
9.61474e-05
9.51972e-05
9.60112e-05
8.50864e-05
8.28102e-05
8.29457e-05
9.48271e-05
9.54171e-05
9.3538e-05
9.35108e-05
8.48786e-05
8.2637e-05
9.48427e-05
9.454e-05
9.35541e-05
9.34939e-05
9.5486e-05
9.35437e-05
9.3584e-05
8.19247e-05
8.27456e-05
9.54915e-05
9.35284e-05
9.35885e-05
8.27068e-05
8.29202e-05
8.44269e-05
9.32739e-05
9.30584e-05
9.26723e-05
9.26403e-05
8.2387e-05
8.43775e-05
9.32921e-05
9.31665e-05
9.26895e-05
9.25211e-05
9.32373e-05
9.26713e-05
9.27849e-05
8.28324e-05
8.39761e-05
9.32435e-05
9.25535e-05
9.27918e-05
8.45391e-05
8.46725e-05
8.63784e-05
9.25986e-05
9.26711e-05
9.2425e-05
9.22899e-05
8.4869e-05
8.60868e-05
9.26134e-05
9.25366e-05
9.24411e-05
9.25477e-05
9.26674e-05
9.23173e-05
9.21916e-05
8.44561e-05
8.67804e-05
9.26713e-05
9.25768e-05
9.21963e-05
8.56999e-05
8.65893e-05
8.81933e-05
9.23793e-05
9.21721e-05
9.24884e-05
9.25158e-05
8.61294e-05
8.83885e-05
9.23968e-05
9.25321e-05
9.25058e-05
9.24468e-05
9.22571e-05
9.25409e-05
9.25389e-05
8.6992e-05
8.813e-05
9.22635e-05
9.24742e-05
9.25448e-05
8.84258e-05
8.85258e-05
9.0289e-05
9.25763e-05
9.26307e-05
9.29676e-05
9.29901e-05
8.88399e-05
9.03128e-05
9.25914e-05
9.251e-05
9.29787e-05
9.29692e-05
9.26643e-05
9.30125e-05
9.2947e-05
8.83776e-05
9.0382e-05
9.26682e-05
9.29942e-05
9.29467e-05
9.03125e-05
9.06915e-05
9.26474e-05
9.31988e-05
9.31039e-05
9.38706e-05
9.4033e-05
9.06407e-05
9.28702e-05
9.32098e-05
9.31359e-05
9.3885e-05
9.40581e-05
9.31536e-05
9.40569e-05
9.39657e-05
9.07669e-05
9.28856e-05
9.31534e-05
9.40848e-05
9.39694e-05
9.27199e-05
9.3018e-05
9.51532e-05
9.41781e-05
9.43347e-05
9.51395e-05
9.50207e-05
9.33563e-05
9.4801e-05
9.41902e-05
9.42667e-05
9.51483e-05
9.49987e-05
9.40818e-05
9.50408e-05
9.52021e-05
9.32495e-05
9.48004e-05
9.40829e-05
9.50203e-05
9.51992e-05
9.5154e-05
9.55699e-05
9.77206e-05
9.55117e-05
9.54783e-05
9.68241e-05
9.68067e-05
9.52775e-05
9.78435e-05
9.55208e-05
9.55607e-05
9.6836e-05
9.68444e-05
9.57302e-05
9.68259e-05
9.67343e-05
9.5446e-05
9.78983e-05
9.57286e-05
9.68661e-05
9.67343e-05
9.7568e-05
9.80952e-05
0.000100226
9.71694e-05
9.72211e-05
9.86376e-05
9.86108e-05
9.82025e-05
0.00010018
9.71796e-05
9.71623e-05
9.86442e-05
9.86082e-05
9.71487e-05
9.86292e-05
9.86228e-05
9.81102e-05
0.000100166
9.71463e-05
9.86297e-05
9.86189e-05
0.000100251
0.000100808
0.000102873
9.92218e-05
9.90874e-05
0.000100748
0.000100787
0.000100631
0.000102932
9.92287e-05
9.91217e-05
0.000100755
0.000100795
9.91234e-05
0.000100805
0.000100816
0.000100701
0.000102948
9.91187e-05
0.000100815
0.000100811
0.000102949
0.000103309
0.000105622
0.000101318
0.00010136
0.000103134
0.000103109
0.000103429
0.000105574
0.000101325
0.000101379
0.00010314
0.000103099
0.000101369
0.000103126
0.000103129
0.000103436
0.000105544
0.000101364
0.000103119
0.000103124
0.000105576
0.00010608
0.000108297
0.000103732
0.00010375
0.000105662
0.000105661
0.000106075
0.000108308
0.000103737
0.00010372
0.000105667
0.000105684
0.000103765
0.000105677
0.000105681
0.000106022
0.000108354
0.000103758
0.000105703
0.000105674
0.000108312
0.000108795
0.000111017
0.000106329
0.000106317
0.000108361
0.000108369
0.000108778
0.000111033
0.000106334
0.000106345
0.000108365
0.000108369
0.000106342
0.000108385
0.000108399
0.000108836
0.000111029
0.000106335
0.000108389
0.000108391
0.000111059
0.000111517
0.000113809
0.000109065
0.000109056
0.000111234
0.000111212
0.000111514
0.000113792
0.000109069
0.000109069
0.000111238
0.000111205
0.00010909
0.000111228
0.000111218
0.000111522
0.000113759
0.000109082
0.000111224
0.00011121
0.000113751
0.000114286
0.000116435
0.000111959
0.000111957
0.000114125
0.000114114
0.000114298
0.00011641
0.000111962
0.000111929
0.000114127
0.000114129
0.000111951
0.000114129
0.000114125
0.000114239
0.000116445
0.000111942
0.000114148
0.000114116
0.000116432
0.000116933
0.000119202
0.000114881
0.000114847
0.000117188
0.000117211
0.000116881
0.000119258
0.000114884
0.000114869
0.00011719
0.000117216
0.00011489
0.000117228
0.000117229
0.000116929
0.000119258
0.000114881
0.000117236
0.00011722
0.00011924
0.000119662
0.000121868
0.000117943
0.000117974
0.000120277
0.000120242
0.000119731
0.000121811
0.000117946
0.000117989
0.000120278
0.000120243
0.000117967
0.000120258
0.000120283
0.00011974
0.000121808
0.000117958
0.000120263
0.000120274
0.000121848
0.000122351
0.000124515
0.000121064
0.000121044
0.000123416
0.000123407
0.000122311
0.000124515
0.000121065
0.000121041
0.000123417
0.000123428
0.000121072
0.000123424
0.000123426
0.000122303
0.000124536
0.000121063
0.000123448
0.000123417
0.000124522
0.000124998
0.000127155
0.000124222
0.000124198
0.000126612
0.00012662
0.000124975
0.000127192
0.000124222
0.000124205
0.000126611
0.000126608
0.000124241
0.000126638
0.000126626
0.000124977
0.000127178
0.000124233
0.000126629
0.000126616
0.000127153
0.000127593
0.000129766
0.000127395
0.000127404
0.000129799
0.000129769
0.000127632
0.000129723
0.000127394
0.000127411
0.000129799
0.000129793
0.000127402
0.000129787
0.000129799
0.000127646
0.000129744
0.000127392
0.000129814
0.000129792
0.000129755
0.000130225
0.000132312
0.000130605
0.000130579
0.000132996
0.00013299
0.000130193
0.000132322
0.000130605
0.00013059
0.000132994
0.000132989
0.000130606
0.000133009
0.000133011
0.000130194
0.000132316
0.000130599
0.000133011
0.000133003
0.000132321
0.000132752
0.000134823
0.000133795
0.000133782
0.000136172
0.000136157
0.000132749
0.000134824
0.000133793
0.000133785
0.00013617
0.000136173
0.000133805
0.000136176
0.000136173
0.000132752
0.000134845
0.000133796
0.000136194
0.000136166
0.00013482
0.000135247
0.000137352
0.000136961
0.000136954
0.000139359
0.000139337
0.00013526
0.000137328
0.000136959
0.000136973
0.000139357
0.000139348
0.000136974
0.000139358
0.000139375
0.000135283
0.000137327
0.000136967
0.000139371
0.00013937
0.000137354
0.000137769
0.000139753
0.000140149
0.000140125
0.000142483
0.000142471
0.000137743
0.00013976
0.000140148
0.000140127
0.000142481
0.000142471
0.000140152
0.00014249
0.000142469
0.00013773
0.000139761
0.000140146
0.000142493
0.000142463
0.000139727
0.000140163
0.000142125
0.000143262
0.000143248
0.000145577
0.00014556
0.000140164
0.000142122
0.00014326
0.000143257
0.000145576
0.000145582
0.000143254
0.000145581
0.0001456
0.000140177
0.000142144
0.000143248
0.000145605
0.000145595
0.000142162
0.000142506
0.000144483
0.000146339
0.000146325
0.000148629
0.000148615
0.000142511
0.000144475
0.000146338
0.000146342
0.000148628
0.000148617
0.000146366
0.000148637
0.000148625
0.000142523
0.000144468
0.000146362
0.00014864
0.000148621
0.000144446
0.000144877
0.000146778
0.000149397
0.000149377
0.000151665
0.000151634
0.00014486
0.000146756
0.000149395
0.000149379
0.000151664
0.000151651
0.000149378
0.000151654
0.000151655
0.000144858
0.000146778
0.000149374
0.000151673
0.000151652
0.000146779
0.000147132
0.000148965
0.000152401
0.000152376
0.000154586
0.000154582
0.00014712
0.000148982
0.000152401
0.000152395
0.000154586
0.000154588
0.000152407
0.000154605
0.000154605
0.00014714
0.000148979
0.000152404
0.000154613
0.000154603
0.000148977
0.000149317
0.000151145
0.000155313
0.000155308
0.000157482
0.000157462
0.00014933
0.000151131
0.000155313
0.000155312
0.000157482
0.000157471
0.000155323
0.000157483
0.000157474
0.000149327
0.000151139
0.000155321
0.000157494
0.000157472
0.000151131
0.00015149
0.000153305
0.0001582
0.000158177
0.000160342
0.000160316
0.000151475
0.000153286
0.0001582
0.000158187
0.000160342
0.000160328
0.000158194
0.000160339
0.000160336
0.000151483
0.000153297
0.000158192
0.000160353
0.000160335
0.000153286
0.000153634
0.000155324
0.000161047
0.000161021
0.000163104
0.000163086
0.000153613
0.00015533
0.000161048
0.000161034
0.000163106
0.000163101
0.000161038
0.000163108
0.000163106
0.000153627
0.000155341
0.000161037
0.000163124
0.000163106
0.00015534
0.000155622
0.000157343
0.000163772
0.000163762
0.000165795
0.000165779
0.000155636
0.000157322
0.000163774
0.000163775
0.000165797
0.000165785
0.000163786
0.000165805
0.000165798
0.000155646
0.00015732
0.000163786
0.000165812
0.000165799
0.000157315
0.000157659
0.00015923
0.000166474
0.000166444
0.000168438
0.000168406
0.00015762
0.000159229
0.000166476
0.000166448
0.00016844
0.000168413
0.000166456
0.000168426
0.000168408
0.000157616
0.000159238
0.000166457
0.000168436
0.000168409
0.00015922
0.000159476
0.000161121
0.000169062
0.000169051
0.000170951
0.000170974
0.000159506
0.000161155
0.000169063
0.000169062
0.000170954
0.000170995
0.00016906
0.000171002
0.000171009
0.000159521
0.000161175
0.000169061
0.000171025
0.000171012
0.000161178
0.00016146
0.000163233
0.000171625
0.000171622
0.000173679
0.000173578
0.000161454
0.000163102
0.000171629
0.00017164
0.000173683
0.000173569
0.000171657
0.0001736
0.000173573
0.000161465
0.000163075
0.000171661
0.000173592
0.000173576
0.000163067
0.000163437
0.000164391
0.000174283
0.000174195
0.000175776
0.000175846
0.000163337
0.000164561
0.000174285
0.000174186
0.000175779
0.000175883
0.000174182
0.000175871
0.000175879
0.000163316
0.000164624
0.000174184
0.000175908
0.000175882
0.000164606
0.000164591
0.000166553
0.000176292
0.000176381
0.000178243
0.000178193
0.000164769
0.000166434
0.000176297
0.000176427
0.00017825
0.000178192
0.000176431
0.000178228
0.000178212
0.000164837
0.000166396
0.000176436
0.000178228
0.000178218
0.0001664
0.000166899
0.000168227
0.000178953
0.000178848
0.000180741
0.000180655
0.000166729
0.000168164
0.000178958
0.000178824
0.000180742
0.000180637
0.000178838
0.000180665
0.000180622
0.000166668
0.000168155
0.000178842
0.000180649
0.000180622
0.000168135
0.00016833
0.000169433
0.000181204
0.000181172
0.000182613
0.000182687
0.00016833
0.000169574
0.000181206
0.000181181
0.000182622
0.000182741
0.000181169
0.000182727
0.000182766
0.000168352
0.000169637
0.000181171
0.000182781
0.000182775
0.000169649
0.000169679
0.000171312
0.000183171
0.000183231
0.000184956
0.000184903
0.000169791
0.000171226
0.000183181
0.000183272
0.000184962
0.000184891
0.000183299
0.00018493
0.000184879
0.000169836
0.000171192
0.000183309
0.000184919
0.000184884
0.000171154
0.000171521
0.000172669
0.000185511
0.000185437
0.000186997
0.000186945
0.00017142
0.000172623
0.000185515
0.000185421
0.000187003
0.000186953
0.000185401
0.000186968
0.000186957
0.000171386
0.000172636
0.000185405
0.000186976
0.000186961
0.00017264
0.000172799
0.000173907
0.000187462
0.000187427
0.000188841
0.00018885
0.000172772
0.00017397
0.000187469
0.000187443
0.00018885
0.00018887
0.000187457
0.000188881
0.000188884
0.000172792
0.000173985
0.000187463
0.000188902
0.000188894
0.000173992
0.000174081
0.000175477
0.000189316
0.00018934
0.000190849
0.000190852
0.000174158
0.000175469
0.000189324
0.000189354
0.000190855
0.000190856
0.000189366
0.000190887
0.000190857
0.000174168
0.000175471
0.000189375
0.000190891
0.000190862
0.000175438
0.000175651
0.000176578
0.000191358
0.000191326
0.000192645
0.000192546
0.000175593
0.000176473
0.000191366
0.000191333
0.000192655
0.000192559
0.000191326
0.000192565
0.00019254
0.000175601
0.000176475
0.000191332
0.000192579
0.000192551
0.000176459
0.000176643
0.000177707
0.000193005
0.000192933
0.000194219
0.000194271
0.000176573
0.000177832
0.000193015
0.000192938
0.000194223
0.000194262
0.00019293
0.000194309
0.000194296
0.000176569
0.000177816
0.00019294
0.000194298
0.000194299
0.000177837
0.000177892
0.000179148
0.000194704
0.00019476
0.000196133
0.000196085
0.000178009
0.000179064
0.00019471
0.000194761
0.000196147
0.000196123
0.000194794
0.000196116
0.000196108
0.000178007
0.000179112
0.000194798
0.000196158
0.000196123
0.000179069
0.000179238
0.000180051
0.000196537
0.000196462
0.000197599
0.000197563
0.000179136
0.000180049
0.000196552
0.000196499
0.000197609
0.000197568
0.000196473
0.000197588
0.000197564
0.000179177
0.000180039
0.000196489
0.000197589
0.000197571
0.000180045
0.000180123
0.000181146
0.000197954
0.000197949
0.000199099
0.000199105
0.000180153
0.000181167
0.000197962
0.000197944
0.000199106
0.000199103
0.000197961
0.000199148
0.000199132
0.000180139
0.000181157
0.000197966
0.000199148
0.000199142
0.000181155
0.000181242
0.000181982
0.000199485
0.000199472
0.0002005
0.000200448
0.000181236
0.000181932
0.000199493
0.000199474
0.000200512
0.000200456
0.000199481
0.000200468
0.000200408
0.000181231
0.000181943
0.000199493
0.000200475
0.000200417
0.000181877
0.000181982
0.00018287
0.000200774
0.000200732
0.000201697
0.000201701
0.000181945
0.000182904
0.000200789
0.000200746
0.00020171
0.000201715
0.000200711
0.000201742
0.000201775
0.000181956
0.000182909
0.000200719
0.000201754
0.000201785
0.000182991
0.000183023
0.000184037
0.000202111
0.000202111
0.000203307
0.000203268
0.000183048
0.000184002
0.000202119
0.000202124
0.000203317
0.000203292
0.000202192
0.000203301
0.000203274
0.000183061
0.000184028
0.000202205
0.000203332
0.00020329
0.000183956
0.000184008
0.000184379
0.000203591
0.00020355
0.000204135
0.000204149
0.00018398
0.00018442
0.000203607
0.000203576
0.000204148
0.00020411
0.000203521
0.000204176
0.000204086
0.000183994
0.000184354
0.000203536
0.000204129
0.000204089
0.000184339
0.000184406
0.000185485
0.000204386
0.000204398
0.000205456
0.000205369
0.000184436
0.00018536
0.00020439
0.00020435
0.000205468
0.00020543
0.000204379
0.000205406
0.000205475
0.00018438
0.000185467
0.000204381
0.000205478
0.000205496
0.000185492
0.000185493
0.000185743
0.000205782
0.000205683
0.000206288
0.000206329
0.000185372
0.000185879
0.000205802
0.000205772
0.00020631
0.000206341
0.00020578
0.000206372
0.000206279
0.00018549
0.000185832
0.000205802
0.000206361
0.000206281
0.000185741
0.000185677
0.000186891
0.000206442
0.000206546
0.000207446
0.000207445
0.000185866
0.000186842
0.000206455
0.000206491
0.000207434
0.000207342
0.000206461
0.00020747
0.000207446
0.000185761
0.000186733
0.000206459
0.000207395
0.000207459
0.000186872
0.000186984
0.000187179
0.000207832
0.00020776
0.000208381
0.000208236
0.000186848
0.000187024
0.000207819
0.000207696
0.000208425
0.000208428
0.000207797
0.000208271
0.000208303
0.000186814
0.000187296
0.000207813
0.000208447
0.000208323
0.000187063
0.000186997
0.000187181
0.000208398
0.000208278
0.000208588
0.000208702
0.000186861
0.000187379
0.000208448
0.000208494
0.00020862
0.000208637
0.000208329
0.000208748
0.000208673
0.000187132
0.000187165
0.000208347
0.000208659
0.000208675
0.000187311
0.000187249
0.000188099
0.000208888
0.000209013
0.00020977
0.000209779
0.000187437
0.000188106
0.000208881
0.000208835
0.000209761
0.000209797
0.000208998
0.000209808
0.000209795
0.000187216
0.000188199
0.000209
0.000209866
0.000209827
0.000188115
0.000188042
0.000188736
0.00020995
0.000209913
0.000210522
0.000210267
0.000187992
0.000188372
0.000209957
0.000209975
0.000210542
0.000210284
0.000209922
0.000210308
0.000210338
0.00018811
0.000188257
0.000209954
0.000210315
0.000210333
0.000188494
0.000188722
0.000189303
0.000210722
0.000210545
0.000211357
0.000211668
0.00018846
0.000190056
0.00021075
0.000210472
0.000211373
0.000211583
0.000210697
0.000211726
0.00021152
0.000188298
0.000189833
0.000210664
0.000211616
0.000211512
0.000189717
0.000189206
0.000188299
0.000211447
0.000211736
0.000211327
0.00021091
0.000189977
0.000187116
0.000211459
0.000211672
0.00021133
0.000211249
0.000211559
0.000210867
0.000210885
0.000189759
0.000187986
0.000211555
0.000211276
0.000210956
0.000187565
0.000187967
0.00018871
0.00021101
0.000210475
0.00021127
0.000211047
0.000186669
0.00018909
0.000211043
0.000210925
0.00021131
0.000211205
0.000210733
0.000211086
0.000211424
0.000187698
0.000188805
0.000210832
0.000211273
0.000211509
0.000189628
0.000189616
0.000191753
0.000211932
0.000212173
0.00021352
0.000213882
0.000190432
0.00019217
0.000211944
0.000211728
0.000213441
0.000213083
0.000212334
0.00021397
0.000213416
0.000189423
0.000190766
0.000212329
0.000213068
0.000213254
0.00019091
0.00019099
0.000186992
0.000213355
0.00021369
0.000211496
0.000211408
0.000191392
0.000187179
0.000213283
0.000213073
0.000211608
0.00021237
0.000213284
0.000211422
0.000211644
0.000190393
0.000189017
0.000213134
0.000212487
0.000211821
0.000187798
0.000187144
0.000191416
0.000211616
0.000211326
0.000213459
0.00021215
0.000187061
0.000189042
0.000211739
0.000212407
0.000213541
0.000212688
0.000211554
0.000212107
0.000212329
0.000188941
0.000189236
0.000211773
0.000212624
0.00021249
0.00018945
0.000191366
0.000189294
0.000213719
0.000212635
0.000213313
0.000214409
0.000189287
0.000192187
0.000213742
0.000212696
0.00021313
0.000212731
0.000212973
0.000214529
0.00021414
0.000189044
0.000189344
0.000213021
0.000212739
0.000213945
0.000191504
0.00018898
0.000190578
0.000212934
0.000214476
0.000213195
0.000214466
0.000192239
0.000192198
0.000212761
0.000212966
0.000213187
0.000214401
0.000213969
0.000214627
0.000213606
0.000189694
0.000193317
0.000213777
0.000214539
0.000213597
0.000190597
0.000191051
0.000192448
0.000213854
0.000214589
0.000215528
0.000211593
0.000191823
0.000185005
0.000213945
0.000215104
0.000215803
0.000213656
0.000214094
0.000211526
0.000213089
0.000193445
0.000187272
0.00021414
0.000213568
0.000213373
0.000188156
0.000190793
0.000183366
0.000214161
0.000211243
0.000210657
0.00021148
0.000184272
0.000190108
0.00021448
0.000211967
0.000210489
0.000209684
0.000212081
0.000211205
0.000210455
0.000185543
0.000185378
0.000212249
0.000209605
0.000210404
0.000186517
0.000182949
0.000187219
0.000209919
0.000214331
0.000211479
0.000214902
0.000193379
0.000193348
0.000209622
0.000211136
0.000211227
0.000213122
0.000212047
0.000215093
0.000213697
0.000188247
0.000191589
0.00021184
0.000213372
0.000213504
0.000191578
0.000188109
0.000211823
0.000213828
0.000189824
0.000211648
0.000212575
0.000232329
0.000230595
0.000231092
0.000212999
0.000189039
0.000212852
0.000234728
0.000234779
0.000234733
0.000234733
0.00023511
0.000234805
0.000234701
0.000234742
0.000235111
0.000234806
0.000234742
0.000234701
0.000234859
0.000233567
0.000233568
0.000104728
3.87617e-05
0.000129352
3.98353e-05
2.16916e-05
2.28358e-05
0.00010469
3.87577e-05
0.000129384
3.98321e-05
0.000233969
0.000233969
0.000233969
0.000232943
0.000232943
0.000232943
0.000232943
0.000206272
9.38651e-05
0.000233996
0.00023175
0.000222759
8.73162e-05
0.000233595
2.16909e-05
2.28351e-05
0.000206271
0.000233996
9.38633e-05
0.00023175
0.000222758
0.000233595
8.73207e-05
4.78466e-05
4.78372e-05
0.000231405
4.40454e-05
4.40308e-05
7.2548e-05
4.24354e-05
8.13598e-05
4.37627e-05
2.47743e-05
2.54622e-05
7.25338e-05
4.24305e-05
8.13689e-05
4.37591e-05
0.000232529