/*--------------------------------*- C++ -*----------------------------------*\
| =========                 |                                                 |
| \\      /  F ield         | OpenFOAM: The Open Source CFD Toolbox           |
|  \\    /   O peration     | Version:  2312                                  |
|   \\  /    A nd           | Website:  www.openfoam.com                      |
|    \\/     M anipulation  |                                                 |
\*---------------------------------------------------------------------------*/
FoamFile
{
    version     2.0;
    format      ascii;
    arch        "LSB;label=32;scalar=64";
    class       volScalarField;
    location    "875";
    object      p;
}
// * * * * * * * * * * * * * * * * * * * * * * * * * * * * * * * * * * * * * //

dimensions      [0 2 -2 0 0 0 0];

internalField   nonuniform List<scalar> 
172512
(
0.00360899
0.0036094
0.0036094
0.0036093
0.00355114
0.00355129
0.00355129
0.00355397
0.00349955
0.00349956
0.00349956
0.00350234
0.0034473
0.0034473
0.0034473
0.00345007
0.00339592
0.00339593
0.00339593
0.00339869
0.00334595
0.00334596
0.00334596
0.00334868
0.00329743
0.00329745
0.00329743
0.00330013
0.0032502
0.00325023
0.00325024
0.00325287
0.00320408
0.00320413
0.0032041
0.00320672
0.00315885
0.00315889
0.00315885
0.00316146
0.00311435
0.00311438
0.00311438
0.0031169
0.00307043
0.00307041
0.00307045
0.00307302
0.00302704
0.00302709
0.00302705
0.00302957
0.0029841
0.00298409
0.00298411
0.00298661
0.00294163
0.00294159
0.00294164
0.002944
0.00289949
0.00289951
0.00289955
0.00290214
0.00285775
0.00285794
0.00285761
0.00286033
0.00281646
0.00281631
0.0028167
0.00281878
0.00277551
0.00277548
0.00277541
0.00277821
0.00273476
0.00273455
0.00273444
0.00273691
0.00269417
0.00269432
0.00269443
0.00269684
0.00265441
0.00265419
0.00265402
0.00265652
0.00261435
0.0026143
0.00261461
0.00261676
0.00257472
0.0025748
0.00257456
0.00257728
0.00253518
0.00253504
0.00253514
0.00253742
0.00249598
0.00249592
0.00249589
0.00249833
0.002457
0.00245692
0.00245699
0.00245929
0.00241819
0.00241816
0.00241813
0.00242058
0.00237958
0.00237951
0.00237954
0.00238189
0.00234116
0.00234112
0.00234113
0.00234346
0.00230292
0.00230286
0.00230285
0.00230516
0.00226486
0.00226485
0.00226485
0.0022671
0.00222694
0.00222691
0.00222691
0.0022292
0.0021892
0.00218919
0.00218919
0.00219143
0.00215162
0.0021516
0.0021516
0.00215382
0.00211419
0.00211418
0.00211418
0.00211638
0.00207691
0.0020769
0.00207689
0.00207909
0.00203977
0.00203975
0.00203975
0.00204192
0.00200276
0.00200273
0.00200274
0.00200489
0.00196589
0.00196587
0.00196587
0.00196801
0.00192913
0.00192909
0.00192909
0.00193123
0.00189249
0.00189245
0.00189246
0.00189457
0.00185597
0.00185592
0.00185592
0.00185803
0.00181955
0.00181949
0.00181949
0.0018216
0.00178323
0.00178316
0.00178316
0.00178526
0.001747
0.00174693
0.00174693
0.00174901
0.00171086
0.00171078
0.00171078
0.00171287
0.0016748
0.00167471
0.00167471
0.00167678
0.00163882
0.00163872
0.00163873
0.0016408
0.00160291
0.00160281
0.0016028
0.00160486
0.00156706
0.00156695
0.00156696
0.00156901
0.00153127
0.00153116
0.00153116
0.00153321
0.00149554
0.00149542
0.00149542
0.00149747
0.00145986
0.00145975
0.00145975
0.00146178
0.00142423
0.00142411
0.00142411
0.00142614
0.00138864
0.00138851
0.00138851
0.00139054
0.00135308
0.00135295
0.00135295
0.00135498
0.00131757
0.00131744
0.00131744
0.00131946
0.0012821
0.00128196
0.00128196
0.00128398
0.00124656
0.00124645
0.00124646
0.00124847
0.00121117
0.00121104
0.00121103
0.00121305
0.00117575
0.00117563
0.00117563
0.00117763
0.00114029
0.00114018
0.00114019
0.0011422
0.00110492
0.00110481
0.0011048
0.0011068
0.00106951
0.0010694
0.0010694
0.00107141
0.00103409
0.001034
0.001034
0.001036
0.000998723
0.000998628
0.000998627
0.00100063
0.000963291
0.000963183
0.000963183
0.000965186
0.000927879
0.000927805
0.000927802
0.000929814
0.0008925
0.0008924
0.000892406
0.000894406
0.000857028
0.000856944
0.000856939
0.000858949
0.000821587
0.000821511
0.000821512
0.000823523
0.000786094
0.000786006
0.000786007
0.00078801
0.000750595
0.000750527
0.000750526
0.000752549
0.000715133
0.000715059
0.000715062
0.000717069
0.000679504
0.000679433
0.000679422
0.000681438
0.000643995
0.000643929
0.000643945
0.000645973
0.000608335
0.000608275
0.000608261
0.000610268
0.000572753
0.0005727
0.000572692
0.000574737
0.000537045
0.000536963
0.000536997
0.000538994
0.000501275
0.000501245
0.000501206
0.000503259
0.000465625
0.000465565
0.000465603
0.00046761
0.00042985
0.000429768
0.000429745
0.000431787
0.000394092
0.000394142
0.000394125
0.000396179
0.000358045
0.000357889
0.000357942
0.000359902
0.000322152
0.000322154
0.000322142
0.000324232
0.00028668
0.000286724
0.000286562
0.00028865
0.000249974
0.000249841
0.000250097
0.000252011
0.000214561
0.000214364
0.000214321
0.000216362
0.000178436
0.000178692
0.000178445
0.000180745
0.000142396
0.000142417
0.000142644
0.000144388
0.000105738
0.000105161
0.000105382
0.000107594
6.94451e-05
6.97544e-05
6.94127e-05
7.14538e-05
3.56251e-05
3.58885e-05
3.59578e-05
3.83903e-05
8.97543e-06
3.26612e-06
3.34214e-06
1.45474e-06
0.00361916
0.00361824
0.00361823
0.00361916
0.00361824
0.00361823
0.00361714
0.00361714
0.00361714
0.00361714
0.00361823
0.00361823
0.00361916
0.00361824
0.00361823
0.00361916
0.0036093
0.00356036
0.0036094
0.0036094
0.00356273
0.00356273
0.0036093
0.00356036
0.0036094
0.0036094
0.00356273
0.00356273
0.0036094
0.00356273
0.00356273
0.0036093
0.00356036
0.0036094
0.00356273
0.00356274
0.00356036
0.00355397
0.00350929
0.00355129
0.00355128
0.00351275
0.00351275
0.00355397
0.00350929
0.00355129
0.00355129
0.00351275
0.00351275
0.00355129
0.00351275
0.00351275
0.00355397
0.00350929
0.00355129
0.00351275
0.00351275
0.00350929
0.00350234
0.00345694
0.00349956
0.00349956
0.0034603
0.0034603
0.00350234
0.00345694
0.00349956
0.00349956
0.0034603
0.0034603
0.00349956
0.0034603
0.0034603
0.00350234
0.00345694
0.00349956
0.0034603
0.0034603
0.00345694
0.00345007
0.00340539
0.00344731
0.0034473
0.00340866
0.00340866
0.00345006
0.00340539
0.0034473
0.0034473
0.00340866
0.00340866
0.0034473
0.00340866
0.00340866
0.00345006
0.00340539
0.0034473
0.00340866
0.00340865
0.00340539
0.00339869
0.00335518
0.00339593
0.00339594
0.00335833
0.00335832
0.00339869
0.00335518
0.00339593
0.00339593
0.00335833
0.00335832
0.00339593
0.00335832
0.00335832
0.00339868
0.00335518
0.00339594
0.00335832
0.00335832
0.00335519
0.00334868
0.00330643
0.00334596
0.00334596
0.00330945
0.00330946
0.00334869
0.00330643
0.00334595
0.00334596
0.00330945
0.00330946
0.00334596
0.00330944
0.00330945
0.00334868
0.00330644
0.00334596
0.00330946
0.00330945
0.00330643
0.00330013
0.00325901
0.00329745
0.00329743
0.00326193
0.00326194
0.00330012
0.00325901
0.00329744
0.00329744
0.00326193
0.0032619
0.00329744
0.00326192
0.00326194
0.00330012
0.00325902
0.00329744
0.00326192
0.00326194
0.00325899
0.00325288
0.00321273
0.00325021
0.00325021
0.00321556
0.00321553
0.00325286
0.00321272
0.00325022
0.00325024
0.00321557
0.00321553
0.00325021
0.00321551
0.00321555
0.00325288
0.00321271
0.0032502
0.00321554
0.00321556
0.00321273
0.00320671
0.00316734
0.00320409
0.00320411
0.00317009
0.00317013
0.00320674
0.00316735
0.00320409
0.0032041
0.0031701
0.00317015
0.0032041
0.0031701
0.00317011
0.00320674
0.00316734
0.00320411
0.00317015
0.00317011
0.00316735
0.00316147
0.00312274
0.00315887
0.00315886
0.00312545
0.00312546
0.00316147
0.00312273
0.00315886
0.00315885
0.00312545
0.0031254
0.00315888
0.00312546
0.00312547
0.00316144
0.00312271
0.00315887
0.0031254
0.00312548
0.00312271
0.00311694
0.0030787
0.00311439
0.00311438
0.0030814
0.00308144
0.0031169
0.00307869
0.00311439
0.00311437
0.0030814
0.00308141
0.00311435
0.00308144
0.0030814
0.00311694
0.00307868
0.00311435
0.0030814
0.0030814
0.00307872
0.003073
0.00303523
0.00307043
0.00307041
0.00303788
0.00303784
0.00307298
0.00303522
0.00307043
0.00307044
0.00303788
0.00303786
0.00307046
0.00303785
0.00303787
0.00307297
0.00303518
0.00307046
0.00303787
0.00303787
0.00303523
0.00302954
0.00299212
0.00302709
0.00302709
0.00299486
0.00299481
0.00302959
0.00299213
0.00302709
0.00302705
0.00299487
0.00299488
0.0030271
0.00299481
0.00299487
0.00302951
0.00299215
0.00302709
0.00299488
0.00299487
0.00299218
0.00298658
0.00294966
0.00298409
0.00298409
0.00295229
0.00295225
0.00298658
0.0029496
0.00298409
0.00298411
0.00295229
0.00295225
0.00298417
0.00295224
0.00295228
0.00298661
0.00294967
0.00298417
0.00295225
0.00295228
0.00294956
0.00294413
0.00290741
0.00294159
0.00294159
0.00290997
0.00291004
0.00294404
0.00290747
0.0029416
0.00294164
0.00290997
0.00291002
0.0029416
0.00291004
0.00291013
0.00294415
0.00290753
0.00294161
0.00291003
0.00291013
0.00290765
0.00290194
0.00286566
0.00289947
0.00289951
0.00286822
0.00286821
0.00290197
0.00286582
0.00289948
0.00289955
0.0028682
0.00286803
0.00289959
0.00286821
0.00286814
0.00290207
0.00286548
0.0028996
0.00286802
0.00286812
0.0028657
0.00286021
0.00282436
0.00285779
0.00285794
0.00282679
0.00282673
0.00286047
0.00282419
0.00285777
0.00285761
0.00282681
0.00282682
0.00285782
0.00282672
0.00282668
0.00286006
0.00282468
0.0028578
0.00282683
0.00282669
0.00282419
0.00281897
0.00278331
0.0028165
0.00281632
0.00278566
0.00278564
0.00281877
0.00278318
0.00281653
0.0028167
0.00278567
0.00278562
0.00281631
0.00278564
0.00278566
0.00281936
0.00278327
0.00281633
0.00278563
0.00278567
0.00278343
0.00277802
0.00274252
0.00277555
0.00277547
0.0027449
0.00274491
0.00277796
0.00274235
0.00277556
0.0027754
0.00274488
0.00274462
0.00277566
0.00274491
0.00274485
0.00277794
0.00274205
0.00277566
0.00274461
0.00274482
0.00274234
0.00273724
0.00270181
0.00273478
0.00273457
0.00270425
0.00270438
0.00273698
0.00270199
0.00273477
0.00273445
0.00270427
0.00270459
0.0027345
0.00270438
0.00270425
0.00273686
0.0027023
0.00273449
0.00270459
0.00270427
0.00270201
0.00269646
0.00266202
0.00269406
0.0026943
0.00266415
0.00266422
0.00269677
0.00266184
0.00269407
0.00269441
0.00266415
0.00266403
0.00269437
0.00266422
0.00266418
0.002697
0.00266164
0.00269438
0.00266404
0.00266417
0.00266174
0.00265693
0.00262201
0.00265442
0.00265421
0.00262439
0.00262431
0.00265664
0.00262197
0.00265443
0.00265404
0.00262439
0.00262438
0.00265413
0.00262429
0.00262434
0.0026564
0.0026223
0.00265411
0.00262436
0.00262434
0.002622
0.00261668
0.00258224
0.00261425
0.00261431
0.00258452
0.00258461
0.00261676
0.00258244
0.00261427
0.00261462
0.00258452
0.00258454
0.00261432
0.00258463
0.0025846
0.00261719
0.0025822
0.00261434
0.00258455
0.00258461
0.00258242
0.00257709
0.00254272
0.00257471
0.00257478
0.00254499
0.00254495
0.0025773
0.00254262
0.00257469
0.00257455
0.00254498
0.00254492
0.00257482
0.00254495
0.00254497
0.00257696
0.00254265
0.00257481
0.00254492
0.00254496
0.00254261
0.00253755
0.00250346
0.00253513
0.00253504
0.00250567
0.00250563
0.00253744
0.0025034
0.00253513
0.00253514
0.00250567
0.00250566
0.00253506
0.00250563
0.00250571
0.00253753
0.00250338
0.00253505
0.00250566
0.00250571
0.00250345
0.00249835
0.00246447
0.00249594
0.00249592
0.00246667
0.00246668
0.00249833
0.00246445
0.00249594
0.00249589
0.00246667
0.00246673
0.00249593
0.00246667
0.00246666
0.00249828
0.00246453
0.00249593
0.00246672
0.00246666
0.0024644
0.00245937
0.00242559
0.00245697
0.00245692
0.0024278
0.00242779
0.00245932
0.00242558
0.00245697
0.00245699
0.00242781
0.0024278
0.00245692
0.00242779
0.00242785
0.00245942
0.00242557
0.00245692
0.0024278
0.00242785
0.00242566
0.00242052
0.00238695
0.00241815
0.00241816
0.00238917
0.00238918
0.00242053
0.00238692
0.00241815
0.00241813
0.00238917
0.00238916
0.00241819
0.00238918
0.00238916
0.00242049
0.00238695
0.00241819
0.00238916
0.00238916
0.00238695
0.00238189
0.00234851
0.00237954
0.00237951
0.00235071
0.00235071
0.00238185
0.00234848
0.00237954
0.00237954
0.00235071
0.00235071
0.00237954
0.00235071
0.00235071
0.00238189
0.00234849
0.00237954
0.00235071
0.00235071
0.00234851
0.00234347
0.00231022
0.00234113
0.00234112
0.00231242
0.00231242
0.00234345
0.00231018
0.00234113
0.00234113
0.00231242
0.0023124
0.00234113
0.00231241
0.0023124
0.00234345
0.00231016
0.00234113
0.0023124
0.0023124
0.00231016
0.0023052
0.00227212
0.00230288
0.00230286
0.00227432
0.00227435
0.00230515
0.00227217
0.00230288
0.00230286
0.00227432
0.00227437
0.00230286
0.00227435
0.00227435
0.00230514
0.00227219
0.00230286
0.00227437
0.00227435
0.00227213
0.00226711
0.00223414
0.00226482
0.00226485
0.00223636
0.00223636
0.00226715
0.00223416
0.00226482
0.00226485
0.00223636
0.00223634
0.00226481
0.00223636
0.00223637
0.00226715
0.00223414
0.00226481
0.00223634
0.00223636
0.00223418
0.00222916
0.00219641
0.0022269
0.00222691
0.00219862
0.0021986
0.00222917
0.0021964
0.0022269
0.00222691
0.00219862
0.00219861
0.00222693
0.0021986
0.0021986
0.00222916
0.0021964
0.00222693
0.00219861
0.0021986
0.00219641
0.00219142
0.00215881
0.00218918
0.00218919
0.00216099
0.00216099
0.00219143
0.00215878
0.00218918
0.00218919
0.00216099
0.00216099
0.00218919
0.00216099
0.00216098
0.00219143
0.00215878
0.00218919
0.00216099
0.00216098
0.00215878
0.00215384
0.00212133
0.00215161
0.0021516
0.00212352
0.00212353
0.00215382
0.00212134
0.00215161
0.0021516
0.00212352
0.00212353
0.0021516
0.00212353
0.00212353
0.00215382
0.00212134
0.0021516
0.00212353
0.00212353
0.00212133
0.00211638
0.00208401
0.00211418
0.00211418
0.0020862
0.0020862
0.00211638
0.00208402
0.00211418
0.00211418
0.0020862
0.0020862
0.00211418
0.0020862
0.00208621
0.00211639
0.00208402
0.00211418
0.0020862
0.00208621
0.00208402
0.00207908
0.00204685
0.00207689
0.0020769
0.00204903
0.00204902
0.00207909
0.00204685
0.00207689
0.00207689
0.00204903
0.00204903
0.0020769
0.00204902
0.00204902
0.00207908
0.00204685
0.0020769
0.00204903
0.00204902
0.00204684
0.00204193
0.0020098
0.00203976
0.00203975
0.00201198
0.00201198
0.00204193
0.0020098
0.00203976
0.00203975
0.00201198
0.00201198
0.00203975
0.00201198
0.00201198
0.00204193
0.00200981
0.00203975
0.00201198
0.00201198
0.0020098
0.00200489
0.00197291
0.00200273
0.00200273
0.00197507
0.00197507
0.00200489
0.00197292
0.00200273
0.00200274
0.00197507
0.00197507
0.00200274
0.00197507
0.00197508
0.00200489
0.00197291
0.00200274
0.00197507
0.00197508
0.00197292
0.00196801
0.00193612
0.00196586
0.00196587
0.00193827
0.00193827
0.00196802
0.0019361
0.00196586
0.00196587
0.00193827
0.00193827
0.00196587
0.00193827
0.00193827
0.00196801
0.0019361
0.00196587
0.00193827
0.00193827
0.00193611
0.00193123
0.00189945
0.0019291
0.00192909
0.0019016
0.00190161
0.00193122
0.00189946
0.0019291
0.00192909
0.0019016
0.00190161
0.00192909
0.00190161
0.0019016
0.00193122
0.00189947
0.00192909
0.00190161
0.0019016
0.00189945
0.00189457
0.00186291
0.00189245
0.00189245
0.00186505
0.00186505
0.00189458
0.00186291
0.00189245
0.00189246
0.00186505
0.00186504
0.00189245
0.00186505
0.00186505
0.00189458
0.0018629
0.00189245
0.00186504
0.00186505
0.00186291
0.00185804
0.00182646
0.00185592
0.00185592
0.00182859
0.00182858
0.00185804
0.00182645
0.00185592
0.00185592
0.00182859
0.00182859
0.00185592
0.00182858
0.00182858
0.00185804
0.00182645
0.00185592
0.00182859
0.00182858
0.00182646
0.0018216
0.00179011
0.00181949
0.00181949
0.00179224
0.00179224
0.00182159
0.00179012
0.00181949
0.00181949
0.00179223
0.00179224
0.00181949
0.00179224
0.00179224
0.00182159
0.00179011
0.00181949
0.00179224
0.00179224
0.00179011
0.00178526
0.00175386
0.00178316
0.00178316
0.00175598
0.00175597
0.00178526
0.00175386
0.00178316
0.00178316
0.00175598
0.00175598
0.00178316
0.00175597
0.00175597
0.00178526
0.00175386
0.00178316
0.00175598
0.00175597
0.00175386
0.00174901
0.0017177
0.00174693
0.00174693
0.00171981
0.00171981
0.00174901
0.0017177
0.00174693
0.00174693
0.00171981
0.00171981
0.00174692
0.00171981
0.00171982
0.00174901
0.0017177
0.00174692
0.00171981
0.00171982
0.00171771
0.00171287
0.00168161
0.00171078
0.00171078
0.00168372
0.00168372
0.00171286
0.00168162
0.00171078
0.00171078
0.00168372
0.00168372
0.00171079
0.00168372
0.00168372
0.00171286
0.00168162
0.00171078
0.00168372
0.00168372
0.00168161
0.00167678
0.00164562
0.00167471
0.00167471
0.00164772
0.00164772
0.00167679
0.00164562
0.00167471
0.00167471
0.00164772
0.00164772
0.00167471
0.00164772
0.00164772
0.00167679
0.00164562
0.00167471
0.00164772
0.00164772
0.00164562
0.00164079
0.00160968
0.00163872
0.00163872
0.00161178
0.00161178
0.00164079
0.00160969
0.00163872
0.00163873
0.00161178
0.00161178
0.00163873
0.00161178
0.00161178
0.00164079
0.00160968
0.00163873
0.00161178
0.00161178
0.00160968
0.00160487
0.00157383
0.00160281
0.00160281
0.00157592
0.00157591
0.00160487
0.00157382
0.00160281
0.0016028
0.00157592
0.00157591
0.0016028
0.00157591
0.00157591
0.00160486
0.00157383
0.0016028
0.00157591
0.00157591
0.00157383
0.00156901
0.00153802
0.00156696
0.00156695
0.0015401
0.0015401
0.00156901
0.00153802
0.00156696
0.00156696
0.0015401
0.0015401
0.00156696
0.00154011
0.00154011
0.00156901
0.00153802
0.00156696
0.0015401
0.00154011
0.00153802
0.00153321
0.00150227
0.00153116
0.00153116
0.00150435
0.00150435
0.00153321
0.00150227
0.00153116
0.00153116
0.00150435
0.00150435
0.00153116
0.00150435
0.00150435
0.00153321
0.00150227
0.00153116
0.00150435
0.00150435
0.00150227
0.00149747
0.00146659
0.00149543
0.00149542
0.00146866
0.00146866
0.00149747
0.00146659
0.00149543
0.00149542
0.00146866
0.00146866
0.00149542
0.00146866
0.00146866
0.00149747
0.00146659
0.00149542
0.00146866
0.00146866
0.00146659
0.00146179
0.00143094
0.00145975
0.00145975
0.00143301
0.00143301
0.00146179
0.00143094
0.00145975
0.00145975
0.00143301
0.00143301
0.00145975
0.00143301
0.00143301
0.00146179
0.00143094
0.00145975
0.00143301
0.00143301
0.00143094
0.00142614
0.00139534
0.0014241
0.00142411
0.0013974
0.00139741
0.00142614
0.00139534
0.0014241
0.00142411
0.0013974
0.0013974
0.00142411
0.00139741
0.00139741
0.00142614
0.00139534
0.00142411
0.00139741
0.00139741
0.00139534
0.00139054
0.00135978
0.00138851
0.00138851
0.00136184
0.00136184
0.00139054
0.00135977
0.00138851
0.00138851
0.00136184
0.00136184
0.00138851
0.00136184
0.00136184
0.00139054
0.00135977
0.00138851
0.00136184
0.00136184
0.00135977
0.00135498
0.00132424
0.00135295
0.00135295
0.0013263
0.00132631
0.00135498
0.00132425
0.00135295
0.00135295
0.0013263
0.00132631
0.00135295
0.00132631
0.00132631
0.00135498
0.00132425
0.00135295
0.00132631
0.00132631
0.00132425
0.00131945
0.0012888
0.00131743
0.00131743
0.00129085
0.00129084
0.00131946
0.00128878
0.00131743
0.00131744
0.00129085
0.00129083
0.00131744
0.00129084
0.00129083
0.00131946
0.00128877
0.00131744
0.00129083
0.00129083
0.00128877
0.001284
0.00125324
0.00128198
0.00128197
0.00125531
0.00125533
0.00128399
0.00125326
0.00128198
0.00128196
0.00125531
0.00125533
0.00128196
0.00125533
0.00125533
0.00128398
0.00125327
0.00128196
0.00125533
0.00125533
0.00125327
0.00124844
0.00121785
0.00124643
0.00124645
0.00121989
0.00121988
0.00124846
0.00121783
0.00124643
0.00124645
0.00121989
0.00121988
0.00124646
0.00121988
0.00121988
0.00124847
0.00121783
0.00124646
0.00121988
0.00121988
0.00121783
0.00121308
0.00118244
0.00121106
0.00121104
0.0011845
0.0011845
0.00121305
0.00118243
0.00121106
0.00121104
0.0011845
0.00118449
0.00121104
0.00118449
0.00118448
0.00121305
0.00118243
0.00121104
0.00118449
0.00118448
0.00118243
0.00117763
0.00114696
0.00117563
0.00117563
0.00114902
0.00114903
0.00117764
0.00114698
0.00117563
0.00117563
0.00114902
0.00114904
0.00117562
0.00114904
0.00114905
0.00117764
0.00114699
0.00117562
0.00114904
0.00114905
0.00114699
0.00114217
0.00111162
0.00114017
0.00114018
0.00111367
0.00111366
0.00114219
0.00111161
0.00114017
0.00114019
0.00111366
0.00111365
0.00114019
0.00111365
0.00111365
0.0011422
0.0011116
0.00114019
0.00111365
0.00111364
0.00111159
0.00110683
0.0010762
0.00110482
0.00110481
0.00107826
0.00107826
0.00110681
0.0010762
0.00110482
0.0011048
0.00107826
0.00107826
0.0011048
0.00107825
0.00107826
0.00110681
0.00107621
0.0011048
0.00107826
0.00107826
0.00107621
0.00107141
0.00104079
0.0010694
0.0010694
0.00104284
0.00104284
0.00107141
0.00104079
0.0010694
0.0010694
0.00104284
0.00104284
0.00106941
0.00104284
0.00104285
0.00107141
0.00104079
0.00106941
0.00104284
0.00104285
0.00104079
0.00103599
0.00100543
0.00103399
0.00103399
0.00100747
0.00100747
0.001036
0.00100543
0.00103399
0.00103399
0.00100747
0.00100747
0.001034
0.00100747
0.00100747
0.001036
0.00100543
0.001034
0.00100747
0.00100747
0.00100543
0.00100064
0.000970006
0.00099863
0.000998628
0.000972061
0.000972049
0.00100064
0.000969992
0.00099863
0.000998627
0.000972061
0.000972051
0.000998625
0.000972046
0.000972046
0.00100063
0.000969993
0.000998625
0.000972048
0.000972046
0.00096999
0.000965196
0.000934583
0.000963192
0.000963185
0.000936624
0.000936637
0.000965186
0.000934605
0.000963192
0.000963185
0.000936623
0.000936633
0.000963183
0.00093664
0.000936641
0.000965187
0.000934599
0.000963183
0.000936635
0.00093664
0.000934606
0.000929791
0.00089923
0.000927787
0.000927802
0.000901271
0.000901265
0.000929811
0.000899216
0.000927787
0.000927799
0.000901272
0.00090127
0.000927807
0.000901264
0.000901266
0.000929808
0.000899223
0.000927806
0.00090127
0.000901267
0.000899217
0.000894422
0.000863757
0.000892414
0.000892402
0.000865806
0.000865804
0.000894406
0.000863759
0.000892415
0.000892408
0.000865805
0.000865801
0.0008924
0.000865802
0.0008658
0.000894412
0.000863754
0.000892401
0.0008658
0.0008658
0.000863755
0.000858944
0.000828326
0.000856939
0.000856944
0.000830365
0.000830371
0.000858951
0.000828332
0.000856938
0.00085694
0.000830364
0.00083037
0.000856943
0.000830374
0.000830377
0.000858945
0.000828332
0.000856942
0.000830373
0.000830377
0.000828336
0.000823519
0.000792851
0.000821508
0.00082151
0.000794899
0.000794892
0.000823521
0.000792842
0.000821508
0.00082151
0.000794899
0.000794893
0.000821512
0.000794889
0.000794882
0.000823521
0.000792843
0.000821512
0.00079489
0.000794883
0.000792831
0.000788024
0.000757335
0.000786014
0.000786009
0.000759377
0.000759382
0.000788017
0.000757344
0.000786014
0.00078601
0.000759378
0.000759382
0.000786002
0.000759385
0.000759392
0.000788018
0.000757342
0.000786002
0.000759384
0.000759391
0.000757356
0.000752526
0.000721916
0.000750518
0.000750524
0.000723952
0.000723948
0.000752534
0.000721907
0.000750518
0.000750523
0.000723952
0.00072395
0.000750537
0.000723947
0.000723946
0.000752533
0.000721913
0.000750537
0.000723951
0.000723946
0.000721902
0.000717085
0.000686268
0.000715066
0.000715061
0.000688327
0.000688332
0.000717076
0.000686277
0.000715066
0.000715064
0.000688326
0.000688324
0.000715053
0.00068833
0.000688321
0.000717082
0.000686264
0.000715053
0.000688322
0.00068832
0.000686265
0.000681434
0.000650788
0.000679426
0.000679433
0.000652811
0.000652804
0.000681444
0.000650774
0.000679424
0.000679423
0.00065281
0.000652811
0.000679429
0.000652805
0.000652822
0.000681431
0.000650789
0.000679427
0.000652814
0.000652823
0.000650799
0.000645967
0.000615126
0.000643941
0.000643927
0.000617192
0.000617197
0.000645949
0.000615139
0.000643942
0.000643943
0.000617194
0.000617199
0.000643944
0.000617197
0.000617185
0.000645969
0.000615132
0.000643947
0.000617195
0.000617184
0.000615118
0.00061027
0.000579546
0.000608258
0.000608275
0.000581572
0.000581582
0.000610291
0.000579554
0.000608257
0.000608264
0.000581567
0.000581562
0.000608258
0.000581583
0.000581581
0.000610278
0.000579535
0.000608254
0.000581566
0.000581579
0.000579557
0.000574729
0.000543893
0.000572705
0.000572701
0.000545955
0.000545931
0.000574727
0.000543862
0.000572701
0.000572688
0.00054596
0.000545961
0.000572708
0.000545929
0.000545939
0.000574713
0.000543903
0.000572709
0.000545957
0.000545942
0.000543872
0.00053901
0.000508072
0.00053698
0.000536964
0.000510118
0.000510139
0.000538987
0.000508105
0.000536987
0.000537002
0.000510118
0.000510121
0.000536968
0.000510143
0.000510132
0.00053903
0.000508066
0.000536972
0.000510121
0.000510129
0.000508089
0.00050324
0.000472478
0.00050122
0.000501242
0.000474523
0.000474522
0.000503271
0.000472471
0.000501214
0.000501203
0.000474518
0.000474524
0.000501236
0.000474521
0.000474529
0.000503223
0.0004725
0.000501231
0.000474529
0.00047453
0.000472484
0.00046761
0.000436674
0.000465576
0.000465567
0.00043872
0.000438693
0.000467598
0.000436635
0.000465578
0.0004656
0.000438724
0.000438697
0.000465573
0.000438691
0.00043869
0.000467643
0.00043662
0.000465579
0.000438691
0.00043869
0.000436628
0.000431825
0.000400959
0.000429796
0.00042977
0.00040301
0.000403057
0.000431787
0.000401044
0.000429796
0.000429751
0.000403006
0.000403038
0.00042977
0.000403064
0.000403071
0.000431759
0.000401029
0.000429765
0.000403043
0.000403066
0.000401048
0.000396086
0.000364996
0.00039405
0.000394132
0.000367061
0.000367038
0.000396194
0.000364923
0.000394047
0.000394116
0.000367059
0.000367044
0.000394122
0.000367029
0.000366986
0.000396179
0.000364937
0.000394119
0.000367038
0.000366987
0.000364856
0.000360064
0.000328843
0.000358005
0.000357909
0.000330893
0.000330868
0.000359936
0.000328855
0.000358009
0.000357955
0.000330912
0.000330956
0.000357879
0.000330878
0.000330988
0.000359985
0.000328934
0.000357887
0.000330966
0.00033101
0.000329002
0.000324069
0.000293817
0.000322073
0.000322131
0.000295788
0.000295856
0.000324144
0.000293862
0.000322081
0.000322124
0.000295748
0.000295627
0.000322201
0.000295858
0.000295685
0.000324151
0.000293597
0.000322206
0.000295611
0.000295632
0.000293609
0.000288856
0.00025663
0.000286746
0.000286743
0.000258878
0.000258904
0.000288851
0.000256701
0.000286712
0.000286589
0.000258907
0.000259101
0.000286599
0.000258908
0.000259026
0.000288656
0.000256987
0.000286556
0.00025912
0.000259066
0.000256912
0.000251734
0.000221605
0.000249777
0.000249822
0.00022348
0.000223293
0.000251809
0.000221286
0.00024982
0.000250059
0.000223495
0.000223353
0.000249969
0.00022327
0.000223238
0.000252099
0.000221315
0.000250028
0.000223326
0.000223254
0.000221211
0.000216771
0.00018528
0.000214629
0.000214402
0.00018743
0.000187578
0.000216436
0.000185574
0.000214629
0.000214371
0.00018739
0.000187341
0.000214333
0.000187597
0.000187649
0.000216403
0.000185272
0.000214324
0.000187353
0.000187599
0.000185634
0.000180363
0.000149292
0.000178373
0.000178647
0.000151328
0.000151499
0.000180737
0.000149455
0.00017833
0.000178405
0.00015133
0.00015158
0.000178677
0.000151511
0.000151374
0.000180443
0.000149644
0.000178628
0.000151606
0.000151384
0.000149279
0.000144455
0.000113023
0.000142373
0.000142417
0.000115085
0.000114676
0.000144512
0.000112332
0.000142402
0.000142639
0.000115146
0.000114966
0.000142324
0.000114657
0.000114865
0.000144778
0.000112666
0.00014236
0.000114932
0.000114912
0.000112737
0.000107899
7.57878e-05
0.000105729
0.000105196
7.80244e-05
7.8219e-05
0.000107162
7.62194e-05
0.000105772
0.000105427
7.79738e-05
7.78938e-05
0.00010547
7.81768e-05
7.79961e-05
0.000107452
7.58405e-05
0.000105496
7.78809e-05
7.79606e-05
7.59099e-05
7.11551e-05
4.23796e-05
6.92492e-05
6.97484e-05
4.40302e-05
4.49158e-05
7.17897e-05
4.35198e-05
6.91792e-05
6.9389e-05
4.39838e-05
4.47629e-05
6.95228e-05
4.50688e-05
4.49442e-05
7.13853e-05
4.35026e-05
6.94692e-05
4.49033e-05
4.49044e-05
4.35016e-05
3.76958e-05
4.51111e-06
3.53864e-05
3.57413e-05
6.45908e-06
4.92679e-06
3.83102e-05
2.70817e-06
3.53612e-05
3.58215e-05
6.48962e-06
5.06431e-06
3.59194e-05
4.87212e-06
4.97911e-06
3.84061e-05
2.82222e-06
3.59083e-05
4.99441e-06
4.99553e-06
2.83064e-06
2.87788e-06
4.61142e-06
3.32821e-06
1.43113e-06
4.63336e-06
3.41624e-06
7.86506e-06
7.94267e-06
7.86336e-06
3.31886e-06
1.46953e-06
3.32886e-06
0.00362718
0.00363743
0.00363192
0.00363192
0.00365452
0.00364143
0.00366989
0.00363534
0.00365452
0.00364143
0.00363534
0.00366988
0.00364595
0.0036736
0.0036736
0.0035816
0.00360128
0.00361041
0.00357373
0.00357497
0.00357727
0.00358158
0.0036013
0.0036104
0.00357372
0.00360899
0.00360899
0.00360899
0.00356254
0.00356254
0.00356254
0.00356254
0.00357907
0.00360548
0.00360885
0.0035866
0.0036083
0.00357796
0.00358753
0.00357504
0.00357725
0.00357907
0.00360885
0.00360549
0.0035866
0.0036083
0.00358753
0.00357795
0.00361134
0.00361134
0.00358189
0.00357767
0.00357767
0.00353639
0.00355543
0.00355682
0.00353492
0.00355433
0.00353447
0.00353639
0.00355544
0.00355682
0.00353491
0.00355114
0.00355114
0.00355114
0.00351283
0.00351283
0.00351283
0.00351283
0.003535
0.00355555
0.00355102
0.00353893
0.00355436
0.00353553
0.00353875
0.00355434
0.00353447
0.003535
0.00355102
0.00355555
0.00353893
0.00355436
0.00353875
0.00353553
0.00355654
0.00355654
0.00353527
0.00353584
0.00353584
0.00348398
0.0035028
0.00350388
0.00348296
0.00350244
0.00348268
0.00348398
0.0035028
0.00350388
0.00348296
0.00349956
0.00349956
0.00349955
0.00346029
0.00346029
0.00346029
0.00346029
0.00348308
0.00350321
0.00349944
0.00348642
0.00350264
0.00348344
0.00348632
0.00350244
0.00348268
0.00348308
0.00349944
0.00350321
0.00348642
0.00350264
0.00348632
0.00348344
0.00350344
0.00350344
0.00348306
0.00348351
0.00348351
0.00343149
0.00345014
0.003451
0.00343072
0.00344993
0.00343054
0.00343149
0.00345014
0.003451
0.00343072
0.0034473
0.0034473
0.0034473
0.00340865
0.00340865
0.00340865
0.00340865
0.00343099
0.00345055
0.00344726
0.00343436
0.00345026
0.00343117
0.00343432
0.00344993
0.00343054
0.00343098
0.00344726
0.00345055
0.00343435
0.00345026
0.00343431
0.00343117
0.00345059
0.00345059
0.00343103
0.00343111
0.00343111
0.0033803
0.00339865
0.00339928
0.00337974
0.00339851
0.00337961
0.0033803
0.00339865
0.00339928
0.00337974
0.00339592
0.00339592
0.00339592
0.00335831
0.00335831
0.00335831
0.00335831
0.00338002
0.003399
0.0033959
0.00338331
0.00339883
0.00338013
0.00338328
0.0033985
0.00337961
0.00338003
0.00339591
0.003399
0.0033833
0.00339883
0.00338327
0.00338013
0.00339899
0.00339899
0.0033801
0.00338005
0.00338005
0.00333066
0.0033486
0.00334906
0.00333025
0.00334848
0.00333014
0.00333066
0.0033486
0.00334905
0.00333025
0.00334595
0.00334595
0.00334595
0.00330944
0.00330943
0.00330944
0.00330944
0.00333054
0.0033489
0.00334594
0.00333371