/*--------------------------------*- C++ -*----------------------------------*\
| =========                 |                                                 |
| \\      /  F ield         | OpenFOAM: The Open Source CFD Toolbox           |
|  \\    /   O peration     | Version:  2312                                  |
|   \\  /    A nd           | Website:  www.openfoam.com                      |
|    \\/     M anipulation  |                                                 |
\*---------------------------------------------------------------------------*/
FoamFile
{
    version     2.0;
    format      ascii;
    arch        "LSB;label=32;scalar=64";
    class       volScalarField;
    location    "500";
    object      nut;
}
// * * * * * * * * * * * * * * * * * * * * * * * * * * * * * * * * * * * * * //

dimensions      [0 2 -1 0 0 0 0];

internalField   nonuniform List<scalar> 
43168
(
0.000208363
0.000201475
0.000201485
0.000182484
0.000182389
0.000201135
0.000201116
0.000182459
0.000201146
0.000201124
0.000201148
0.000201126
0.000182397
0.00020116
0.000201136
0.000182381
0.000182491
0.00020146
0.00020144
0.00018245
0.000201471
0.000201448
0.000201451
0.000182521
0.000201461
5.07451e-05
5.07423e-05
0.00020777
0.000207764
0.000207778
0.000207769
9.9945e-05
5.07586e-05
9.98962e-05
5.07643e-05
2.38967e-05
2.39008e-05
9.99448e-05
5.07512e-05
9.98887e-05
5.07617e-05
0.000208356
0.00020837
0.000208362
0.000144492
0.000103663
0.000211326
0.000201789
0.000144311
0.000103733
0.000211741
2.38957e-05
2.38999e-05
0.000144482
0.000211332
0.000103665
0.0002018
0.000144321
0.00021175
0.000103735
7.79277e-05
7.79223e-05
0.000182822
7.79504e-05
7.79444e-05
2.3894e-05
2.3892e-05
0.000181947
7.79057e-05
7.78991e-05
2.38985e-05
2.38943e-05
2.38965e-05
2.38923e-05
0.000182079
7.79331e-05
7.79265e-05
7.79113e-05
7.79051e-05
0.000200475
0.000103599
9.98434e-05
5.07549e-05
5.07488e-05
9.98956e-05
9.984e-05
5.07492e-05
5.07432e-05
9.98918e-05
0.000144139
0.00020081
0.000103669
0.000210893
0.000103595
0.000210462
0.000144307
0.000144135
0.000200791
0.000103645
0.000210885
0.000103571
0.000210455
0.000144302
2.38964e-05
2.38922e-05
0.000182037
7.79119e-05
7.79323e-05
7.78903e-05
2.38977e-05
0.000200486
0.00010359
9.98353e-05
5.07521e-05
5.07415e-05
9.98962e-05
0.000144122
0.00020082
0.00010366
0.000210892
0.000103585
0.000210461
0.000144313
9.98324e-05
5.07481e-05
5.07371e-05
9.98925e-05
0.000144119
0.000200797
0.00021089
0.00010365
0.000210458
0.000103575
0.00014431
0.000103666
0.000210892
0.00014431
5.0751e-05
9.98863e-05
0.000210891
0.000103657
0.000144311
5.07474e-05
9.98917e-05
2.38955e-05
2.38912e-05
0.000182099
7.79191e-05
7.79329e-05
7.7895e-05
7.79091e-05
2.38977e-05
2.38935e-05
0.000144135
0.000200834
0.000210902
0.000103669
0.000210471
0.000103596
0.0001443
0.000144126
0.000200809
0.000210893
0.000103649
0.000210462
0.000103576
0.000144292
9.98306e-05
5.07513e-05
5.07456e-05
9.98831e-05
9.98192e-05
5.07455e-05
5.074e-05
9.98735e-05
0.000182081
7.79244e-05
7.79185e-05
7.78953e-05
2.38964e-05
2.38953e-05
2.38911e-05
2.38988e-05
2.39029e-05
2.38967e-05
2.39009e-05
7.79383e-05
7.7932e-05
0.000182842
7.79589e-05
7.79523e-05
2.39032e-05
2.39011e-05
0.000182908
7.79638e-05
7.79573e-05
9.99419e-05
5.07529e-05
9.98928e-05
5.07587e-05
0.00014449
0.000103665
0.000211323
0.000201776
0.000144329
0.000103736
0.000211742
0.000144485
0.000103641
0.000211315
0.000201756
0.000144324
0.000103711
0.000211734
9.9945e-05
5.07681e-05
9.99417e-05
5.07625e-05
0.000144509
0.000202091
0.000103732
0.000212161
0.000144505
0.000202071
0.000103707
0.000212153
7.79171e-05
7.7936e-05
0.000182852
7.79375e-05
7.79587e-05
2.3898e-05
2.39021e-05
2.39011e-05
0.000182873
7.79423e-05
7.79614e-05
2.39023e-05
0.000144496
0.000103655
0.000211322
0.000201786
0.000144313
0.000103727
0.000211741
9.99423e-05
5.07473e-05
9.98854e-05
5.07577e-05
0.000144493
0.00021132
0.000103645
0.000201764
0.00014431
0.000211739
0.000103716
9.99377e-05
5.07607e-05
0.000144496
0.000202102
0.000103721
0.000212161
9.99349e-05
5.07567e-05
0.000144493
0.000202079
0.000212158
0.000103711
9.99361e-05
5.07545e-05
9.98799e-05
5.07604e-05
0.000144494
0.000211322
0.000103652
0.000201765
0.000144312
0.000211741
0.000103723
9.99416e-05
5.07508e-05
9.98852e-05
5.07565e-05
0.000144493
0.000202105
0.000103728
0.000212164
9.99293e-05
5.07642e-05
0.000144494
0.000202081
0.000212161
0.000103717
9.99347e-05
5.07603e-05
7.79223e-05
7.79363e-05
0.000182839
7.79449e-05
7.79589e-05
2.3898e-05
2.39021e-05
2.39001e-05
0.000182915
7.79476e-05
7.79613e-05
2.39023e-05
0.000144476
0.000211323
0.000103646
0.000201776
0.000144314
0.000211742
0.000103715
9.99329e-05
5.07549e-05
9.98824e-05
5.07607e-05
9.99236e-05
5.07491e-05
9.98713e-05
5.07549e-05
0.000144502
0.000202115
0.000212169
0.000103731
0.000144495
0.000202091
0.000212161
0.000103712
9.99313e-05
5.07645e-05
9.99205e-05
5.07588e-05
2.38966e-05
2.39007e-05
2.38955e-05
2.38997e-05
0.000182897
7.79528e-05
7.79476e-05
2.3901e-05
2.38999e-05
2.0316e-05
7.90826e-05
5.07444e-05
7.90647e-05
2.03181e-05
5.07361e-05
3.67242e-05
9.99213e-05
4.10709e-05
9.45407e-05
4.10709e-05
9.45196e-05
3.67307e-05
2.03236e-05
7.90959e-05
5.07596e-05
2.03216e-05
7.91126e-05
3.67272e-05
9.99212e-05
4.10667e-05
9.45e-05
3.67206e-05
4.1067e-05
9.45221e-05
2.03234e-05
7.91219e-05
5.07632e-05
7.91055e-05
2.03254e-05
2.38986e-05
2.38989e-05
3.6724e-05
9.99129e-05
9.45403e-05
4.10731e-05
9.45102e-05
4.10671e-05
3.67308e-05
2.0324e-05
7.9091e-05
5.07569e-05
2.0322e-05
7.91083e-05
3.6727e-05
9.99207e-05
9.44917e-05
4.10634e-05
3.67207e-05
9.45215e-05
4.1069e-05
2.03238e-05
7.91176e-05
5.07561e-05
7.91007e-05
2.03258e-05
2.38977e-05
2.38979e-05
8.15156e-05
2.17175e-05
2.17143e-05
2.17156e-05
2.17123e-05
8.15218e-05
0.000105292
0.000128908
4.86638e-05
7.79378e-05
0.000105274
0.00012896
4.86682e-05
0.000105297
0.000128888
4.86558e-05
7.79318e-05
0.00010528
0.000128942
4.86556e-05
8.15135e-05
2.17138e-05
2.17106e-05
8.15073e-05
2.17158e-05
2.17125e-05
0.0001053
4.86736e-05
7.79404e-05
0.00012902
0.000128969
4.86668e-05
0.000105318
0.000105306
4.86599e-05
7.79351e-05
0.000129002
0.00012895
4.86601e-05
0.000105323
2.38921e-05
2.389e-05
8.14877e-05
2.17107e-05
2.17074e-05
2.17087e-05
2.17054e-05
8.14934e-05
0.000105199
4.86554e-05
7.7897e-05
0.000128779
4.86562e-05
0.000105217
0.000128728
0.000105199
4.86429e-05
7.78908e-05
0.000128761
4.86436e-05
0.000105218
0.000128704
2.38966e-05
2.38962e-05
2.38945e-05
2.38942e-05
8.15025e-05
2.17106e-05
2.17073e-05
8.14967e-05
2.17126e-05
2.17093e-05
0.000105255
0.000128907
7.79251e-05
4.86645e-05
4.86651e-05
0.000128858
0.000105273
0.000105256
0.000128889
7.79188e-05
4.8652e-05
4.86526e-05
0.000128834
0.000105274
0.000105245
4.86605e-05
0.000128794
7.79195e-05
0.000105227
4.86604e-05
0.000128844
0.000105247
4.86479e-05
0.00012877
7.79131e-05
0.000105228
4.86479e-05
0.000128825
8.15055e-05
2.17144e-05
2.17111e-05
2.17124e-05
2.17091e-05
8.15113e-05
3.67201e-05
4.10586e-05
9.44564e-05
9.987e-05
3.67133e-05
4.10589e-05
9.4484e-05
2.03198e-05
5.07539e-05
7.9103e-05
2.03218e-05
7.90857e-05
2.03199e-05
7.90754e-05
5.07504e-05
2.03179e-05
7.90928e-05
3.67175e-05
9.98697e-05
4.10627e-05
9.45028e-05
3.67234e-05
4.10624e-05
9.4479e-05
3.67185e-05
4.10585e-05
9.44474e-05
9.98665e-05
3.67119e-05
4.10586e-05
9.44704e-05
2.03191e-05
5.07483e-05
7.90804e-05
7.90634e-05
2.03211e-05
2.03192e-05
7.90531e-05
5.07445e-05
2.03172e-05
7.90703e-05
3.67158e-05
9.98665e-05
4.10626e-05
9.44906e-05
4.10624e-05
9.44682e-05
3.6722e-05
2.38945e-05
2.38942e-05
0.000105253
0.000128877
7.7904e-05
4.86514e-05
0.000128824
4.86519e-05
0.000105275
0.00010525
0.000128909
7.79224e-05
4.86662e-05
4.86588e-05
0.000128856
0.000105272
0.00012876
7.78985e-05
0.000128813
8.14993e-05
2.17108e-05
2.17139e-05
2.17088e-05
2.17119e-05
8.15067e-05
2.3896e-05
3.67195e-05
9.44494e-05
4.10547e-05
9.98694e-05
3.67148e-05
9.44812e-05
4.10609e-05
2.03202e-05
5.07462e-05
7.90986e-05
2.03222e-05
7.9081e-05
2.03203e-05
7.90709e-05
5.07469e-05
2.03183e-05
7.90885e-05
3.6717e-05
9.98625e-05
9.45025e-05
4.10653e-05
3.67233e-05
9.44708e-05
4.10594e-05
3.67177e-05
4.10545e-05
9.44396e-05
9.98667e-05
3.67131e-05
4.10607e-05
9.44711e-05
2.03192e-05
5.07423e-05
7.90781e-05
7.90607e-05
2.03212e-05
2.03193e-05
7.90504e-05
5.0743e-05
2.03173e-05
7.9068e-05
3.67151e-05
9.98595e-05
4.10649e-05
9.44915e-05
4.1059e-05
9.44609e-05
3.67217e-05
2.03202e-05
5.07503e-05
7.90874e-05
7.90778e-05
2.03223e-05
3.67208e-05
9.98536e-05
9.44891e-05
4.10616e-05
9.44593e-05
4.10617e-05
3.672e-05
2.03194e-05
5.07457e-05
7.90783e-05
7.90608e-05
2.03214e-05
3.6719e-05
9.98588e-05
4.10652e-05
9.44888e-05
4.10592e-05
9.44668e-05
3.67193e-05
2.38935e-05
2.38933e-05
8.14987e-05
2.17075e-05
2.17108e-05
8.14928e-05
2.17095e-05
2.17127e-05
0.000105258
0.000128883
7.7909e-05
4.86521e-05
0.000128828
4.86525e-05
0.000105276
0.000105255
0.000128913
7.7923e-05
4.86646e-05
4.8665e-05
0.000128859
0.000105273
0.000105248
4.86482e-05
0.000128762
7.79053e-05
0.000128819
0.00010523
4.86478e-05
0.000105245
4.86608e-05
0.000128794
7.79192e-05
0.000105227
4.86603e-05
0.000128849
8.15017e-05
2.17113e-05
2.17145e-05
2.17093e-05
2.17126e-05
8.15075e-05
2.38958e-05
2.38955e-05
3.67166e-05
9.44567e-05
4.1058e-05
9.98577e-05
3.67178e-05
9.44781e-05
4.10576e-05
2.03208e-05
5.07502e-05
7.90992e-05
7.90823e-05
2.03228e-05
2.0321e-05
7.90719e-05
5.07466e-05
2.0319e-05
7.90893e-05
3.67214e-05
9.98563e-05
9.44981e-05
4.10615e-05
9.44765e-05
4.10616e-05
3.6721e-05
3.67154e-05
9.44353e-05
4.10575e-05
9.9848e-05
3.67142e-05
9.44585e-05
4.1057e-05
2.03189e-05
5.07445e-05
7.90761e-05
7.90591e-05
2.03209e-05
2.03191e-05
7.9049e-05
5.07408e-05
2.03171e-05
7.9066e-05
3.6718e-05
9.98451e-05
9.44785e-05
4.10609e-05
9.44556e-05
4.10611e-05
3.67177e-05
8.14962e-05
2.17122e-05
2.17089e-05
0.000105247
0.000128898
7.79143e-05
4.86622e-05
0.000105265
0.000128845
4.86616e-05
0.000105253
0.00012888
7.79089e-05
4.8651e-05
0.000105271
0.000128825
4.86514e-05
0.000105237
7.79113e-05
0.000128835
4.86574e-05
0.000105242
0.00012876
7.7905e-05
0.000128817
4.86467e-05
8.14988e-05
2.1714e-05
2.17107e-05
8.1505e-05
2.1712e-05
2.17088e-05
2.38944e-05
2.38942e-05
2.38933e-05
2.38931e-05
2.39007e-05
2.3901e-05
2.38987e-05
2.38989e-05
8.15221e-05
2.17179e-05
2.17146e-05
2.1716e-05
2.17127e-05
8.1528e-05
0.0001053
0.000128921
4.86692e-05
7.79461e-05
0.000105282
4.8669e-05
0.000128969
0.000105301
0.000128897
4.86566e-05
7.79396e-05
0.000105283
4.86565e-05
0.000128951
8.15198e-05
2.17142e-05
2.17109e-05
8.15139e-05
2.17162e-05
2.17129e-05
0.000105309
4.86733e-05
7.79513e-05
0.00012903
4.86738e-05
0.000105326
0.000128983
0.000105309
4.86607e-05
7.79449e-05
0.000129011
4.86612e-05
0.000105327
0.000128958
2.3905e-05
2.3903e-05
8.1536e-05
2.17178e-05
2.17145e-05
8.15299e-05
2.17197e-05
2.17164e-05
0.000105351
4.86782e-05
0.000129042
7.79711e-05
0.000105334
4.86777e-05
0.000129088
0.000105353
4.86656e-05
0.000129017
7.79646e-05
0.000105335
4.86652e-05
0.000129069
3.67228e-05
9.9918e-05
4.10707e-05
9.45294e-05
4.10708e-05
9.45086e-05
3.67291e-05
2.03229e-05
7.90734e-05
5.0754e-05
2.03209e-05
7.90901e-05
3.67259e-05
9.9918e-05
4.10666e-05
9.44892e-05
4.1067e-05
3.67195e-05
9.45109e-05
2.03227e-05
7.90996e-05
5.07577e-05
7.9083e-05
2.03247e-05
3.67342e-05
4.10746e-05
9.45385e-05
9.9969e-05
3.67278e-05
4.1075e-05
9.45596e-05
2.03272e-05
7.91149e-05
5.07692e-05
2.03252e-05
7.9131e-05
3.67327e-05
4.10745e-05
9.45272e-05
9.99656e-05
3.67263e-05
4.10748e-05
9.45481e-05
2.03265e-05
7.90924e-05
5.07634e-05
2.03245e-05
7.91086e-05
8.15166e-05
2.17146e-05
2.17177e-05
2.17126e-05
2.17157e-05
8.15236e-05
0.000105301
0.000128887
4.8656e-05
7.79248e-05
4.86559e-05
0.000105281
0.000128938
0.0001053
0.000128919
4.8664e-05
7.79459e-05
0.000128971
0.000105278
4.86711e-05
8.15152e-05
2.17108e-05
2.17139e-05
2.17128e-05
8.15081e-05
2.17159e-05
0.000105307
4.86602e-05
7.79299e-05
0.000128998
4.86606e-05
0.000128948
0.000105328
0.000105304
4.86756e-05
7.79488e-05
0.000129031
0.00012898
4.86684e-05
0.000105326
2.38999e-05
2.39002e-05
2.39029e-05
8.15318e-05
2.17144e-05
2.17175e-05
8.15249e-05
2.17163e-05
2.17194e-05
0.000105353
4.86651e-05
0.000129008
7.79497e-05
0.000129057
0.000105332
4.86647e-05
0.000105351
4.86728e-05
0.00012904
7.7971e-05
0.000105329
4.86798e-05
0.00012909
2.39043e-05
3.67223e-05
9.99101e-05
4.10729e-05
9.45304e-05
4.10668e-05
9.45005e-05
3.67289e-05
2.0323e-05
7.90708e-05
5.07529e-05
2.0321e-05
7.90878e-05
3.67255e-05
9.99178e-05
4.10631e-05
9.44815e-05
4.10686e-05
3.67191e-05
9.45114e-05
2.03228e-05
7.90972e-05
5.07521e-05
7.90805e-05
2.03248e-05
3.67341e-05
9.45297e-05
4.10714e-05
9.99686e-05
3.67276e-05
9.45589e-05
4.1077e-05
2.03276e-05
7.91098e-05
5.07661e-05
2.03256e-05
7.91267e-05
3.67324e-05
4.10712e-05
9.45202e-05
9.9966e-05
3.67258e-05
4.10769e-05
9.45495e-05
2.03266e-05
7.90898e-05
5.07623e-05
2.03246e-05
7.91062e-05
3.67278e-05
9.99047e-05
9.45281e-05
4.10697e-05
9.44992e-05
4.10699e-05
3.67272e-05
2.03241e-05
7.90875e-05
5.07558e-05
7.90974e-05
2.03221e-05
3.67236e-05
9.99116e-05
9.44798e-05
4.10654e-05
9.45091e-05
3.67239e-05
4.10659e-05
2.03239e-05
7.91068e-05
5.07594e-05
7.9097e-05
2.03259e-05
3.67267e-05
9.99099e-05
4.10732e-05
9.45296e-05
4.10673e-05
9.45046e-05
3.67259e-05
2.03232e-05
7.90709e-05
5.0752e-05
2.03212e-05
7.9088e-05
3.67223e-05
9.9917e-05
4.10636e-05
9.44868e-05
3.67227e-05
4.10691e-05
9.45096e-05
2.0323e-05
7.90974e-05
5.07555e-05
7.90805e-05
2.0325e-05
3.67315e-05
9.45184e-05
4.10735e-05
9.99598e-05
3.67311e-05
9.45466e-05
4.10737e-05
2.03277e-05
7.91062e-05
5.07652e-05
2.03257e-05
7.9116e-05
3.67291e-05
4.10715e-05
9.45215e-05
9.99654e-05
3.67299e-05
4.10772e-05
9.45491e-05
2.03268e-05
7.90898e-05
5.07613e-05
2.03248e-05
7.91064e-05
8.15182e-05
2.17149e-05
2.17181e-05
2.17129e-05
2.17162e-05
8.15242e-05
0.000105303
0.000128891
4.86566e-05
7.7932e-05
4.86566e-05
0.000105285
0.000128944
0.0001053
0.000128921
4.8669e-05
7.79463e-05
0.000128974
0.000105282
4.86689e-05
8.1516e-05
2.17111e-05
2.17144e-05
2.17131e-05
8.151e-05
2.17163e-05
0.000105311
4.86609e-05
7.79352e-05
0.000129004
4.86612e-05
0.000128952
0.000105329
0.000105309
4.86732e-05
7.7949e-05
0.000129034
0.000128983
4.86735e-05
0.000105326
2.38999e-05
2.39002e-05
2.39021e-05
8.15322e-05
2.17147e-05
2.17179e-05
8.15261e-05
2.17166e-05
2.17199e-05
0.000105354
4.86656e-05
0.000129011
7.79571e-05
0.000129063
0.000105337
4.86654e-05
0.000105352
4.8678e-05
0.000129042
7.7971e-05
0.000105335
4.86776e-05
0.000129093
2.39043e-05
3.67286e-05
9.99076e-05
9.45367e-05
4.10696e-05
9.45165e-05
4.10699e-05
3.67276e-05
2.03246e-05
7.90922e-05
5.07561e-05
7.91088e-05
2.03227e-05
3.6724e-05
9.9909e-05
9.44971e-05
4.10657e-05
9.45184e-05
3.67248e-05
4.10659e-05
2.03245e-05
7.91179e-05
5.07597e-05
7.91018e-05
2.03264e-05
3.67255e-05
9.98966e-05
9.45177e-05
4.1069e-05
9.44958e-05
4.10694e-05
3.67246e-05
2.03227e-05
7.9069e-05
5.07503e-05
2.03207e-05
7.90858e-05
3.67211e-05
9.98995e-05
9.44761e-05
4.10652e-05
3.67217e-05
9.44991e-05
4.10653e-05
2.03225e-05
7.90952e-05
5.0754e-05
7.90787e-05
2.03245e-05
3.67309e-05
9.4535e-05
4.10735e-05
9.99566e-05
3.6732e-05
9.45554e-05
4.10736e-05
2.03282e-05
7.91111e-05
5.07655e-05
2.03263e-05
7.9127e-05
3.67278e-05
9.45145e-05
4.10731e-05
9.99472e-05
3.67289e-05
9.45364e-05
4.1073e-05
2.03263e-05
7.9088e-05
5.07597e-05
2.03243e-05
7.91043e-05
2.38986e-05
2.38988e-05
2.38975e-05
2.38977e-05
8.15299e-05
2.17173e-05
2.17141e-05
8.15235e-05
2.17193e-05
2.17161e-05
0.000105343
4.86711e-05
0.000129028
7.79625e-05
0.000105325
0.000129079
4.8678e-05
0.000105349
4.86646e-05
0.000129009
7.79567e-05
0.000105332
0.00012906
4.86645e-05
2.39029e-05
2.39018e-05
0.000206568
0.000205527
0.000205527
0.000208945
0.000206285
0.000206285
0.0001974
0.000196405
0.000138542
0.000162124
0.000162115
0.000182612
0.00013851
0.000162171
0.000162159
0.000138445
0.000182304
0.000162042
0.000162026
0.000161995
0.000161981
0.000138478
0.000138438
0.000182247
0.000162034
0.00016206
0.000161959
0.00016198
0.000138479
0.000138445
0.00018232
0.000162025
0.000162047
0.000161983
0.000162006
0.000138479
0.000138436
0.000182295
0.000162026
0.000162016
0.000138469
0.000161984
0.000161974
0.000138553
0.000162133
0.000162119
0.000182625
0.00013852
0.000162187
0.000162171
0.000138552
0.000162098
0.000162121
0.000182662
0.0001622
0.000138512
0.000162175
0.000138554
0.000162123
0.000162146
0.00018261
0.000162188
0.000138519
0.000162166
0.000207174
0.000204759
0.000204759
0.000203988
0.000203987
0.000194402
0.000195405
0.000207172
0.000204758
0.00020476
0.000203987
0.000203991
0.000194403
0.000195406
0.000207182
0.000204766
0.000204772
0.000203995
0.000204001
0.000194411
0.000195414
0.000207174
0.000204767
0.000204769
0.000203996
0.000203998
0.000194411
0.000195415
0.000205525
0.000205528
0.000208938
0.000206283
0.000206285
0.000197401
0.000196407
0.000205534
0.000205539
0.000208952
0.000206293
0.000206297
0.000197409
0.000196414
0.000205535
0.000205537
0.000208944
0.000206293
0.000206294
0.00019741
0.000196415
0.000209524
0.00020704
0.00020704
0.000198392
0.000209517
0.000207037
0.00020704
0.000198392
0.000209532
0.000207047
0.000207052
0.0001984
0.000209523
0.000207047
0.000207049
0.000198401
0.000171938
0.000144402
0.000137892
0.000177304
0.000137806
0.000177178
0.000172018
0.000161156
0.000147831
0.000122853
0.0001037
0.000161124
0.000147863
0.000122906
0.000171839
0.000144402
0.000137734
0.000176985
0.000171763
0.000137812
0.000177107
0.000161248
0.00012296
0.000103696
0.000147967
0.000147932
0.000122909
0.000161303
0.000171947
0.000144414
0.000177237
0.000137886
0.000177237
0.000137829
0.000172002
0.000161156
0.000147837
0.000122862
0.000103703
0.000161132
0.000147871
0.000122912
0.00017183
0.000144393
0.000177035
0.000137752
0.000171778
0.000177043
0.000137812
0.000161267
0.000122966
0.000103699
0.000147974
0.000147938
0.000122917
0.000161298
0.000138583
0.000182685
0.000162307
0.000162294
0.00016226
0.00016225
0.000138615
0.00013829
0.000181868
0.000161749
0.000161734
0.000138324
0.000161705
0.00016169
0.000138402
0.000182164
0.00016185
0.000161836
0.000138368
0.000161899
0.000161883
0.000160616
0.000122741
0.000103559
0.000147551
0.000122684
0.000147486
0.000160782
0.000171473
0.00013759
0.000176639
0.000144216
0.000171404
0.000137657
0.00017666
0.000160913
0.000147754
0.000103631
0.000122855
0.000147716
0.000122801
0.00016105
0.000160921
0.000122742
0.000147599
0.000103634
0.00014765
0.000160759
0.000122798
0.000171588
0.000144235
0.000137737
0.000176841
0.000137671
0.00017683
0.000171654
0.000171445
0.000137577
0.000176632
0.000144211
0.00017139
0.000137644
0.000176651
0.000160955
0.000147723
0.000103606
0.000122836
0.000122784
0.000147681
0.000160982
0.000160835
0.000122725
0.000147574
0.000103611
0.000160813
0.00012278
0.000147619
0.000171576
0.00014423
0.000137723
0.000176833
0.000137659
0.000176824
0.000171632
0.000182245
0.000161815
0.000161889
0.000103548
0.000147537
0.000147473
0.000171514
0.000137568
0.00017658
0.000144219
0.00017131
0.000137659
0.000176716
0.000160882
0.000147754
0.00010362
0.000122852
0.000147688
0.000122788
0.00016106
0.000160918
0.00012273
0.00014758
0.000103625
0.000147642
0.000160719
0.000122794
0.000171511
0.000144219
0.00013774
0.000176916
0.000137651
0.00017678
0.000171692
0.000171506
0.000176578
0.00013756
0.000144216
0.000171311
0.000176715
0.00013765
0.000160878
0.000147742
0.000103611
0.00012284
0.000122777
0.000147683
0.000161046
0.000160906
0.000122719
0.000147574
0.000103615
0.000160711
0.000122782
0.000147634
0.000171508
0.000144216
0.000176914
0.000137731
0.000176779
0.000137643
0.000171687
0.00016098
0.000147754
0.000103629
0.000122851
0.00016101
0.000147723
0.000122797
0.000171585
0.000144217
0.000137729
0.000176918
0.000171661
0.00013766
0.000176792
0.000160901
0.000147757
0.000103617
0.000122846
0.000122783
0.000147697
0.000161055
0.000171521
0.000144217
0.00017692
0.000137735
0.000176785
0.000137646
0.000171697
0.000138402
0.000182177
0.000161838
0.000161859
0.000161883
0.000138367
0.000161905
0.000171467
0.000176652
0.000137592
0.000144208
0.000171422
0.000176659
0.000137656
0.000160988
0.000147764
0.000103631
0.000122857
0.000161018
0.000147732
0.000122805
0.000160865
0.000122748
0.000147626
0.000103634
0.000160847
0.00014766
0.000122801
0.000171611
0.000144227
0.000176842
0.000137737
0.000171653
0.000176841
0.000137671
0.000171457
0.00017665
0.000137571
0.0001442
0.000171407
0.000176656
0.000137637
0.000160963
0.00014773
0.000103612
0.000122835
0.000122783
0.000147699
0.000160993
0.000160841
0.000122725
0.000147591
0.000103615
0.000160818
0.000122779
0.000147623
0.000171597
0.00014422
0.000176849
0.000137715
0.000176843
0.00013765
0.000171641
0.000138391
0.000182162
0.00016183
0.000161883
0.000161874
0.000138594
0.0001827
0.000162325
0.000162309
0.000138626
0.00016227
0.000162257
0.000138697
0.000183055
0.000162407
0.000162395
0.000138666
0.000162463
0.000162446
0.000171945
0.000144422
0.000137887
0.00017724
0.00013783
0.000177237
0.000172007
0.000161193
0.00014783
0.000122858
0.000103703
0.000122912
0.000161084
0.000147865
0.000171834
0.000144401
0.000137753
0.000177029
0.000137815
0.000171767
0.000177045
0.000161225
0.000122966
0.000103699
0.000147979
0.000122914
0.000147935
0.000161324
0.000171928
0.000144417
0.000137875
0.000177231
0.000137817
0.000177229
0.000171986
0.000161123
0.000147789
0.00012284
0.000103678
0.000161095
0.000122892
0.00014783
0.000171814
0.000144396
0.000137739
0.000177023
0.000171752
0.000137802
0.000177038
0.000161236
0.000122946
0.000103674
0.000147927
0.000122896
0.000161262
0.000147893
0.000172186
0.000137905
0.00017742
0.000144577
0.000172121
0.000137962
0.000177423
0.000161454
0.000122969
0.000148032
0.000103768
0.000148077
0.000161374
0.000123019
0.000172166
0.000137892
0.000177414
0.000144573
0.000172102
0.000137948
0.000177416
0.000161399
0.00012295
0.000148
0.000103743
0.000161369
0.000122999
0.000148039
0.000138587
0.000182654
0.000162314
0.000162338
0.00016226
0.000162237
0.000138627
0.000138698
0.000183064
0.000162373
0.000162396
0.000162451
0.000138658
0.000162475
0.000171871
0.000144405
0.000137896
0.000177315
0.000137802
0.000177169
0.000172063
0.000161216
0.000147797
0.000122845
0.000103694
0.000122907
0.00016102
0.000147859
0.000171882
0.000144405
0.000137731
0.00017697
0.00013782
0.000171695
0.000177109
0.000161155
0.000122962
0.000103688
0.000147963
0.000122901
0.000147901
0.000161343
0.000171867
0.000144402
0.000177312
0.000137887
0.000177166
0.000137798
0.000172057
0.000161201
0.000147787
0.000122835
0.000103684
0.000161016
0.000122896
0.000147845
0.000171875
0.000144402
0.000176968
0.000137724
0.000171691
0.000177106
0.000137811
0.000161152
0.00012295
0.000103679
0.000147949
0.00012289
0.000161331
0.000147891
0.000172238
0.000137881
0.000177351
0.000144584
0.000172052
0.000137973
0.000177505
0.000161481
0.000122955
0.000148004
0.000103758
0.000148064
0.000161308
0.000123015
0.000172232
0.000177349
0.000137873
0.000144581
0.000172045
0.000177502
0.000137964
0.000161458
0.000122945
0.000147989
0.000103748
0.000161296
0.000123003
0.000148054
0.000171889
0.000144403
0.000177313
0.000137892
0.000177174
0.0001378
0.000172063
0.000161209
0.000147801
0.000122842
0.00010369
0.00014786
0.000161043
0.000122902
0.000171893
0.000144403
0.000176976
0.000137728
0.000177109
0.000171703
0.000137815
0.000161178
0.000122957
0.000103685
0.000147964
0.000147906
0.000122897
0.000161345
0.000172194
0.000137879
0.000177364
0.000144579
0.000172112
0.000137967
0.00017749
0.000161444
0.000122962
0.000148033
0.000103765
0.000161382
0.000148071
0.000123014
0.000172243
0.000177361
0.000137877
0.000144582
0.000172062
0.000177506
0.000137968
0.000161485
0.000122951
0.000148008
0.000103755
0.000161316
0.00012301
0.000148066
0.000138593
0.000182708
0.000162304
0.000162326
0.000162283
0.000162261
0.000138626
0.000138698
0.000183055
0.000162398
0.00016242
0.000162442
0.000138666
0.000162464
0.000171938
0.000144407
0.000177237
0.000137866
0.000177239
0.000137808
0.000171992
0.000161128
0.000147802
0.000122839
0.000103683
0.000147836
0.000161101
0.000122891
0.000171821
0.000144386
0.000177035
0.000137732
0.000177047
0.000171765
0.000137795
0.000161243
0.000122945
0.00010368
0.000147938
0.000147905
0.000122895
0.000161268
0.000172183
0.000177418
0.000137903
0.00014457
0.00017212
0.000177419
0.00013796
0.000161445
0.000122971
0.000148039
0.000103767
0.00016139
0.000148083
0.000123019
0.000172171
0.00017742
0.000137885
0.000144563
0.000172111
0.000177419
0.000137942
0.000161403
0.000122949
0.000148006
0.000103747
0.000161381
0.000122997
0.000148043
0.000138687
0.000183035
0.000162398
0.000162387
0.000138656
0.000162445
0.000162432
0.000210659
0.000202716
0.000202726
0.000183297
0.000212846
0.000203879
0.00020389
0.000184063
0.000214924
0.000204966
0.000204977
0.00018475
0.000216893
0.000205977
0.000205987
0.000185383
0.000218752
0.000206914
0.000206924
0.000185982
0.000220502
0.000207772
0.000207781
0.000186526
0.000222146
0.000208557
0.000208565
0.000187016
0.000223685
0.000209271
0.000209279
0.000187496
0.000225121
0.000209915
0.000209923
0.000187877
0.000226458
0.00021049
0.000210498
0.000188214
0.000227696
0.000210997
0.000211005
0.000188551
0.00022883
0.000211437
0.000211445
0.000188794
0.000229858
0.000211826
0.000211834
0.000188963
0.00023079
0.000212156
0.000212165
0.000189081
0.000231632
0.000212427
0.000212441
0.000189176
0.000232394
0.000212642
0.000212662
0.000189243
0.000233074
0.000212806
0.000212831
0.000189275
0.00023366
0.000212929
0.000212947
0.000189273
0.000234284
0.000213171
0.000213182
0.00018923
0.000233957
0.000213717
0.00021373
0.000193727
0.000183262
0.000202397
0.000202376
0.000183267
0.000202407
0.000202384
0.000202409
0.000202386
0.000183262
0.000202421
0.000202396
0.000183244
0.00018331
0.000184048
0.000202703
0.000202682
0.000203579
0.000203557
0.000183286
0.000184047
0.000202713
0.00020269
0.00020359
0.000203567
0.000202692
0.000203591
0.000203568
0.000183316
0.00018405
0.000202702
0.000203602
0.000203579
0.000184032
0.000184077
0.000184786
0.000203867
0.000203844
0.000204683
0.00020466
0.000184061
0.000184783
0.000203878
0.000203854
0.000204694
0.000204671
0.000203856
0.000204695
0.000204671
0.00018408
0.000184763
0.000203866
0.000204707
0.000204683
0.000184771
0.000184768
0.000185469
0.000204954
0.000204931
0.000205709
0.000205687
0.000184753
0.000185457
0.000204965
0.000204941
0.000205721
0.000205697
0.000204942
0.000205722
0.000205698
0.000184791
0.000185426
0.000204953
0.000205733
0.000205709
0.00018545
0.000185403
0.000186081
0.000205964
0.000205942
0.00020666
0.000206637
0.000185396
0.000186061
0.000205977
0.000205952
0.000206672
0.000206647
0.000205953
0.000206673
0.000206648
0.000185444
0.000186039
0.000205964
0.000206683
0.00020666
0.000186063
0.000186002
0.000186638
0.000206901
0.000206878
0.000207539
0.000207517
0.000186018
0.000186591
0.000206914
0.000206889
0.000207552
0.000207526
0.00020689
0.000207553
0.000207527
0.000186039
0.000186596
0.000206901
0.000207563
0.00020754
0.000186621
0.000186545
0.00018714
0.000207758
0.000207735
0.000208346
0.000208323
0.000186575
0.000187092
0.000207772
0.000207746
0.000208358
0.000208332
0.000207747
0.000208359
0.000208333
0.000186581
0.000187098
0.000207758
0.000208369
0.000208346
0.000187124
0.000187034
0.000187589
0.000208543
0.00020852
0.00020908
0.000209057
0.000187062
0.000187541
0.000208557
0.00020853
0.000209093
0.000209067
0.000208532
0.000209094
0.000209068
0.000187068
0.000187547
0.000208544
0.000209103
0.000209081
0.000187538
0.00018747
0.000187987
0.000209256
0.000209233
0.000209744
0.000209721
0.000187497
0.000187938
0.000209271
0.000209244
0.000209758
0.00020973
0.000209245
0.000209757
0.000209732
0.000187503
0.000187944
0.000209258
0.000209767
0.000209745
0.000187934
0.000187853
0.000188335
0.000209901
0.000209877
0.000210341
0.000210318
0.00018788
0.000188285
0.000209915
0.000209887
0.000210355
0.000210327
0.000209889
0.000210354
0.000210329
0.000187886
0.000188292
0.000209902
0.000210364
0.000210342
0.000188279
0.000188188
0.000188651
0.000210476
0.000210453
0.000210875
0.000210851
0.000188215
0.000188601
0.000210491
0.000210462
0.00021089
0.000210861
0.000210464
0.000210888
0.000210863
0.00018822
0.000188606
0.000210477
0.000210898
0.000210876
0.000188564
0.000188483
0.000188905
0.000210983
0.000210959
0.000211347
0.000211323
0.000188508
0.000188871
0.000210998
0.000210969
0.000211362
0.000211333
0.000210971
0.000211361
0.000211335
0.000188514
0.0001889
0.000210984
0.00021137
0.000211349
0.000188798
0.000188731
0.000189079
0.000211423
0.000211399
0.00021175
0.000211726
0.000188721
0.000189069
0.000211438
0.000211408
0.000211765
0.000211735
0.00021141
0.000211764
0.000211737
0.000188727
0.000189079
0.000211424
0.000211772
0.000211751
0.000188996
0.000188932
0.000189185
0.000211811
0.000211787
0.00021209
0.000212066
0.000188924
0.000189212
0.000211827
0.000211796
0.000212105
0.000212075
0.000211798
0.000212105
0.000212077
0.000188925
0.000189216
0.000211811
0.000212112
0.000212091
0.000189162
0.000189097
0.000189311
0.00021214
0.000212118
0.000212374
0.000212347
0.000189065
0.000189323
0.000212157
0.000212127
0.000212387
0.000212354
0.000212127
0.000212389
0.00021236
0.000189069
0.000189326
0.000212141
0.000212392
0.000212374
0.000189287
0.000189193
0.000189394
0.00021241
0.000212391
0.000212602
0.000212572
0.000189181
0.000189389
0.000212429
0.000212404
0.000212614
0.000212577
0.000212398
0.000212616
0.000212587
0.000189184
0.000189393
0.000212412
0.000212616
0.000212601
0.00018937
0.000189262
0.000189431
0.000212626
0.000212608
0.000212778
0.000212746
0.000189252
0.000189423
0.000212646
0.000212624
0.000212789
0.000212748
0.000212614
0.000212792
0.000212762
0.000189257
0.000189427
0.000212628
0.000212787
0.000212777
0.000189409
0.000189294
0.000189432
0.000212793
0.000212774
0.000212901
0.000212871
0.000189285
0.000189422
0.000212813
0.000212793
0.000212914
0.000212873
0.000212778
0.000212919
0.000212889
0.00018929
0.000189427
0.000212792
0.000212913
0.000212904
0.000189411
0.000189291
0.000189429