/*--------------------------------*- C++ -*----------------------------------*\
| =========                 |                                                 |
| \\      /  F ield         | OpenFOAM: The Open Source CFD Toolbox           |
|  \\    /   O peration     | Version:  2312                                  |
|   \\  /    A nd           | Website:  www.openfoam.com                      |
|    \\/     M anipulation  |                                                 |
\*---------------------------------------------------------------------------*/
FoamFile
{
    version     2.0;
    format      ascii;
    arch        "LSB;label=32;scalar=64";
    class       surfaceScalarField;
    location    "500";
    object      phi;
}
// * * * * * * * * * * * * * * * * * * * * * * * * * * * * * * * * * * * * * //

dimensions      [0 3 -1 0 0 0 0];

oriented        oriented;

internalField   nonuniform List<scalar> 
125280
(
1.24138e-07
1.18772e-07
-0.00118379
-7.7057e-08
-7.71033e-08
0.0011837
-0.00113203
-1.19883e-06
-1.13214e-07
-8.98352e-08
0.00113205
-2.39367e-07
1.23827e-06
2.74654e-07
9.11162e-07
-2.1496e-07
-8.55071e-07
2.6901e-07
-0.00113194
-1.19349e-06
-1.24518e-07
-4.49954e-08
0.00113191
-2.36683e-07
1.2355e-06
2.74627e-07
9.11243e-07
-2.1499e-07
-8.52428e-07
2.69003e-07
-0.000270075
1.22479e-06
1.18819e-06
-1.97902e-07
-2.00639e-07
0.00026806
-1.28036e-06
-1.23847e-06
0.000270144
-0.000268111
2.38942e-07
2.46795e-07
0.00113153
-1.23619e-07
-0.00113155
-4.46713e-08
-1.23571e-06
2.77277e-07
-2.42189e-07
-8.55288e-07
2.66216e-07
-2.12335e-07
9.13963e-07
1.27779e-06
0.0011316
5.84639e-08
-0.00113178
-6.72947e-08
-1.23083e-06
2.8003e-07
-2.39699e-07
-8.60432e-07
2.63572e-07
-2.15008e-07
9.13737e-07
-1.2167e-06
0.000270124
-0.00026811
2.33928e-07
2.46593e-07
0.00113253
-1.23967e-07
-0.00113255
-5.03804e-08
-1.1938e-06
2.74792e-07
-2.3684e-07
-8.5778e-07
2.69111e-07
-2.15074e-07
9.1659e-07
1.27238e-06
0.00113147
-1.1783e-07
-0.00113149
-5.59179e-08
-1.22776e-06
2.80116e-07
-2.42313e-07
-8.57807e-07
2.66255e-07
-2.15075e-07
9.16487e-07
-6.70094e-08
-2.22302e-07
-1.25773e-06
2.71978e-07
-2.44992e-07
-8.57955e-07
2.66327e-07
9.08572e-07
-2.17714e-07
-0.00113182
1.27213e-06
0.0011311
-1.00859e-07
-5.0246e-08
-1.22216e-06
2.79985e-07
-2.39508e-07
-8.55075e-07
2.66242e-07
-2.14969e-07
9.08426e-07
-0.00113114
-1.23821e-06
0.000270105
-0.000268083
2.4172e-07
2.46629e-07
-1.24046e-07
-0.00113198
-3.34698e-08
-1.19357e-06
2.74667e-07
-2.36723e-07
-8.52431e-07
2.69037e-07
9.11268e-07
-2.1503e-07
1.23028e-06
0.00113207
-1.23838e-07
-0.00113204
-8.40029e-08
-1.19363e-06
2.74781e-07
-2.39531e-07
-8.54956e-07
2.69038e-07
-2.14998e-07
9.13782e-07
-0.000268058
2.38894e-07
2.46783e-07
1.23564e-06
1.19372e-06
-1.95418e-07
-2.03207e-07
0.000268114
-5.05353e-08
0.00113151
-2.394e-07
1.28033e-06
2.77241e-07
9.13889e-07
-2.1228e-07
-8.55238e-07
2.6618e-07
-1.23307e-06
-1.12886e-07
-5.06376e-08
0.00113157
-2.42338e-07
1.27769e-06
2.80047e-07
9.16401e-07
-2.14989e-07
-8.5768e-07
2.6891e-07
-2.03243e-07
-2.00573e-07
0.000268096
-5.06169e-08
0.0011325
-2.36808e-07
1.23843e-06
2.74755e-07
9.16565e-07
-2.15038e-07
-8.57735e-07
2.69077e-07
-1.22769e-06
-1.18398e-07
-5.05458e-08
0.00113144
-2.4226e-07
1.27233e-06
2.80072e-07
9.16463e-07
-2.12323e-07
-8.57772e-07
2.66225e-07
-1.24374e-07
-5.04845e-08
0.00113108
-2.39425e-07
1.26941e-06
2.77199e-07
9.08392e-07
-2.12229e-07
2.63507e-07
-8.49656e-07
-1.98166e-07
-2.03118e-07
0.000268086
-1.24376e-07
-6.75297e-08
0.00113206
-2.3674e-07
1.23293e-06
2.74714e-07
9.13694e-07
-2.14972e-07
2.68997e-07
-8.54892e-07
6.86617e-09
-4.35851e-08
0.000193706
3.29139e-09
-0.000193672
6.89034e-09
-4.3628e-08
0.000193689
-0.000193655
-0.00118389
-7.05528e-08
-7.6449e-08
0.00118345
-0.00118305
-1.57952e-07
-2.56292e-07
0.00118335
-0.00118345
-8.80525e-08
-5.31698e-08
0.00118328
-0.00118331
-9.95605e-08
-9.9954e-08
-1.20317e-10
-7.00563e-08
0.000229498
-0.000229459
2.98534e-08
1.9882e-09
-0.000193745
-4.87559e-09
2.2651e-08
-4.03251e-09
0.000193731
-0.000229459
7.02471e-11
2.85795e-08
0.00022944
-1.1113e-08
1.24397e-09
6.94616e-09
-4.34173e-08
0.000193784
3.18047e-09
-0.000193751
-9.80694e-05
4.9378e-09
1.36856e-08
9.80508e-05
-6.91946e-09
-2.19151e-08
9.80898e-05
-9.8061e-05
-7.0093e-08
-1.60227e-10
0.000229486
-0.000229447
2.15458e-09
2.98716e-08
-0.000193728
-4.91152e-09
2.26351e-08
-3.97249e-09
0.000193714
-0.000229446
2.86125e-08
1.70592e-10
0.000229428
9.73253e-10
-1.11362e-08
6.97204e-09
-4.34451e-08
0.000193767
3.18988e-09
-0.000193734
-8.87285e-08
-1.23649e-07
0.00118344
-7.70811e-08
-6.54411e-08
0.00118324
-8.29695e-08
-9.47564e-08
0.00118321
6.99274e-08
-1.72673e-09
0.000250298
-0.000250178
4.04263e-09
-1.93035e-07
-0.000245595
-1.20159e-08
-2.26321e-08
6.64182e-08
3.9335e-09
0.000245559
0.00115197
-0.00115206
-1.27928e-08
-1.336e-07
1.00603e-06
-7.5334e-07
-9.35429e-07
8.28439e-07
-5.65483e-08
1.24092e-06
0.00113203
-1.24934e-07
-8.52301e-07
2.68942e-07
-2.14946e-07
9.11166e-07
-1.19609e-06
2.74615e-07
-2.36592e-07
-0.000250274
-2.84723e-08
9.26371e-10
0.000250167
2.75906e-09
1.31797e-07
2.33048e-08
4.33941e-08
0.000245633
-1.67715e-08
-0.000245578
-1.04712e-07
-9.73399e-09
0.00115193
-1.51974e-07
-9.32499e-07
8.25761e-07
-7.53154e-07
1.00337e-06
-9.80626e-05
4.94214e-09
1.13618e-08
9.80463e-05
-6.98305e-09
-1.95363e-08
9.80831e-05
-9.80566e-05
-6.96426e-10
6.99288e-08
0.000250288
-0.000250169
-1.93038e-07
3.88064e-09
0.0011518
-0.00115185
1.34785e-08
-1.50884e-07
1.00611e-06
-7.56064e-07
-9.32711e-07
8.28471e-07
-0.000245584
-1.20014e-08
-2.26208e-08
6.40166e-08
3.95539e-09
0.000245551
-5.07192e-08
1.23545e-06
0.00113189
-1.24853e-07
-8.52382e-07
2.68949e-07
-2.14971e-07
9.11203e-07
-1.19074e-06
2.74581e-07
-2.36662e-07
-0.000250261
1.21533e-09
-2.84999e-08
0.000250155
1.31819e-07
1.89105e-09
-2.59625e-11
0.00115175
-1.51813e-07
-9.32563e-07
8.28485e-07
-7.53202e-07
1.0061e-06
2.31805e-08
4.3418e-08
0.000245623
-1.67226e-08
-0.00024557
-1.02304e-07
-0.000278333
1.21696e-08
-1.13992e-08
2.27025e-08
-6.82102e-09
0.000278316
-0.000278255
1.20764e-08
-1.14085e-08
2.2724e-08
-7.23365e-09
0.000278239
-1.26937e-06
-1.23287e-06
0.000270079
-0.000268063
2.41314e-07
2.4403e-07
-2.31513e-08
1.96311e-08
0.000278383
1.00849e-08
-0.000278339
-5.05714e-08
-2.3262e-08
1.95249e-08
0.000278305
1.07298e-08
-0.000278264
-4.82385e-08
-1.98333e-08
9.80693e-05
-9.80426e-05
-1.97936e-08
9.80583e-05
-9.80316e-05
0.00027014
-1.28043e-06
-1.24125e-06
-0.000268104
2.39075e-07
2.46943e-07
0.000278329
-2.31485e-08
1.2579e-08
-0.000278288
-5.07851e-08
0.000278261
-2.08566e-08
1.00691e-08
-0.00027822
-5.07878e-08
-1.97295e-08
-6.90755e-09
9.80899e-05
-9.80632e-05
1.14138e-08
4.92601e-09
9.80529e-05
-1.96867e-08
-6.93269e-09
9.80789e-05
-9.80523e-05
1.13618e-08
4.96756e-09
9.8042e-05
1.23576e-06
1.19655e-06
0.000268106
-1.95469e-07
-2.03252e-07
-2.31536e-08
0.000278379
-5.0655e-08
-0.000278338
1.26234e-08
-2.08594e-08
0.000278312
-5.06636e-08
-0.00027827
1.01139e-08
1.20588e-08
-9.36881e-09
2.49755e-08
0.000278313
9.72323e-09
-6.74316e-09
2.49181e-08
0.000278245
0.00113157
-1.22561e-07
-1.23585e-06
2.77384e-07
-2.39537e-07
-8.55428e-07
2.68971e-07
-2.15153e-07
9.14012e-07
-4.42334e-08
0.000245558
-1.67186e-08
-0.000245503
-1.04886e-07
2.46097e-11
2.86101e-08
-1.11113e-08
1.01519e-09
0.000229401
-0.000229419
-4.35047e-08
-0.000193712
3.23752e-09
2.26067e-08
-3.97352e-09
0.000193692
-1.09792e-10
-7.01392e-08
-0.00022942
2.99157e-08
1.99188e-09
2.86074e-08
-1.11062e-08
9.33092e-10
0.000229361
-0.000229379
-4.57248e-08
6.88945e-09
0.000193683
-0.000193648
3.42143e-09
2.47677e-08
-4.98864e-09
-3.99605e-09
0.000193628
-0.000193644
-7.01483e-08
0.000229418
-0.00022938
2.99214e-08
2.11699e-09
7.96233e-10
2.70534e-09
1.3202e-07
0.000250151
-0.000250258
-5.57217e-08
-1.23149e-07
1.28039e-06
-2.39473e-07
2.80063e-07
9.13957e-07
-2.1236e-07
2.66274e-07
-8.5538e-07
0.000245596
-1.04769e-07
-0.000245542
-1.67165e-08
-0.00115235
1.30502e-09
0.00115231
-1.49617e-07
-9.35712e-07
8.3125e-07
-7.56287e-07
1.00899e-06
3.97152e-09
6.64152e-08
0.000245522
4.20757e-10
-1.5427e-07
1.00891e-06
-7.56477e-07
-9.35922e-07
8.31187e-07
-0.0011524
-8.44614e-10
0.000250285
-0.000250164
3.13434e-09
-1.93166e-07
1.4343e-09
1.32027e-07
0.000250126
-0.00025023
-3.30862e-08
-1.2386e-06
-3.1058e-07
9.19149e-07
-2.09665e-07
-8.55135e-07
2.68942e-07
1.28085e-06
-2.45025e-07
2.80222e-07
-0.00113164
2.30591e-08
0.000245492
-1.04745e-07
-0.000245437
-1.90117e-08
-0.00115232
0.00115224
-1.26447e-07
-9.43677e-07
8.31221e-07
-7.58995e-07
1.01145e-06
-1.20881e-08
6.40235e-09
6.63627e-08
0.000245418
-0.000245454
-1.83354e-07
1.01689e-06
-7.56446e-07
-9.38366e-07
8.33911e-07
-0.00115233
0.000250257
-0.00025014
4.72648e-09
-1.93179e-07
-2.20086e-08
-9.80405e-05
1.36213e-08
9.80302e-05
-9.80488e-05
0.000268108
-1.87887e-07
-0.000270125
1.17195e-06
-2.05769e-07
0.000278251
-4.83384e-08
-0.000278212
1.06038e-08
1.96227e-08
-2.33037e-08
0.000278394
-4.8358e-08
-0.000278352
1.071e-08
2.26114e-08
0.000278187
-0.000278201
-7.45427e-09
-7.02692e-09
9.80854e-05
-9.80588e-05
0.00113257
-1.22875e-07
-1.19665e-06
2.74871e-07
-2.3692e-07
2.69178e-07
-2.15155e-07
0.000245524
-0.000245467
-1.0259e-07
2.86458e-08
1.70111e-10
9.6328e-10
-1.11328e-08
0.000229389
-4.35372e-08
-0.000193695
3.24959e-09
2.2591e-08
-3.904e-09
0.000193675
-7.01592e-08
-1.56663e-10
-0.000229408
2.15372e-09
2.9931e-08
1.6743e-09
1.94251e-09
1.32039e-07
0.000250144
-5.02042e-08
-1.23482e-07
1.24122e-06
-2.36877e-07
2.74832e-07
9.16609e-07
-2.15102e-07
2.69149e-07
-8.57848e-07
0.000245562
-1.02481e-07
-0.000245505
-1.92058e-08
-0.00115219
-3.94617e-09
0.00115215
-1.4962e-07
-9.38244e-07
8.31209e-07
-7.56258e-07
1.01149e-06
6.48579e-09
6.40367e-08
0.000245486
3.62465e-09
-1.42626e-07
1.01145e-06
-7.56464e-07
-9.38437e-07
8.31151e-07
-1.67998e-09
0.000250278
-0.000250158
4.05376e-09
-1.9318e-07
2.86471e-08
-1.1129e-08
9.43663e-10
0.000229349
-4.34532e-08
6.94524e-09
0.00019367
-0.000193637
3.19929e-09
2.25597e-08
-4.98799e-09
-3.89587e-09
0.000193617
-7.01404e-08
0.000229407
-0.000229369
2.99188e-08
2.19558e-09
1.32062e-07
1.64501e-09
0.000250117
-5.01144e-08
-1.22783e-06
-1.17294e-07
9.16499e-07
-2.15134e-07
-8.57881e-07
2.68984e-07
1.27242e-06
-2.42348e-07
2.80183e-07
-0.00115214
0.00115207
-1.43716e-07
-9.38273e-07
8.31212e-07
-7.56298e-07
1.0115e-06
2.32316e-08
0.000245476
-9.9935e-08
-0.000245426
-1.67567e-08
-1.36685e-07
1.01147e-06
-7.56506e-07
-9.38451e-07
8.31152e-07
-1.21711e-08
4.00961e-09
6.4047e-08
0.000245407
0.000250248
-0.000250131
-1.93166e-07
4.338e-09
4.34743e-08
-1.02382e-07
-0.000245542
-1.68138e-08
-3.9497e-08
-7.95055e-08
-9.41148e-07
8.28375e-07
1.006e-06
-7.58992e-07
-0.00115229
6.99873e-08
-2.03767e-09
-0.000250153
4.50867e-09
-1.93054e-07
0.000193732
-0.000193698
3.05925e-09
-2.33592e-10
0.000229442
-0.000229405
2.11377e-09
3.19556e-08
0.00115195
-1.26581e-07
-9.35511e-07
8.25676e-07
-7.5625e-07
1.00328e-06
-0.00115205
4.35059e-08
2.31916e-08
0.000245516
-9.99392e-08
-0.000245466
-1.66909e-08
7.00463e-08
0.000250244
-0.000250125
-1.9567e-07
4.03274e-09
6.88079e-09
0.000193675
-0.000193642
3.29923e-09
0.000229404
-0.000229366
2.98648e-08
1.95354e-09
-1.9634e-08
-9.8036e-05
1.12985e-08
9.80257e-05
1.19634e-06
0.000268081
-1.98225e-07
-2.03188e-07
0.00027825
-4.60533e-08
-0.000278211
1.05467e-08
1.9672e-08
-2.31923e-08
0.000278386
-4.8336e-08
-0.000278345
1.05955e-08
-7.33571e-09
2.03935e-08
0.000278186
-1.13727e-08
9.67215e-09
-7.24586e-09
2.26186e-08
0.000278322
-6.93773e-09
9.80854e-05
-9.80588e-05
4.93346e-09
9.80485e-05
1.64358e-09
-2.85444e-08
1.31992e-07
1.87375e-09
0.000250128
-4.4524e-08
-1.23562e-07
1.23825e-06
-2.39519e-07
2.74711e-07
9.11299e-07
-2.15066e-07
-8.52555e-07
2.69073e-07
-0.00115191
2.25218e-08
-1.4983e-07
-9.32796e-07
8.28446e-07
1.00608e-06
-7.50757e-07
4.35119e-08
-1.02432e-07
-0.000245532
-1.67347e-08
5.78122e-08
-1.43013e-07
1.006e-06
-7.53684e-07
-9.32994e-07
8.25639e-07
-2.25826e-08
3.98728e-09
6.40369e-08
0.000245511
-2.9661e-10
7.00124e-08
-0.000250141
-1.93091e-07
3.39626e-09
-2.84851e-08
1.31983e-07
2.157e-09
0.000250103
-2.49543e-07
-1.26847e-06
-1.01012e-07
9.11021e-07
-2.15039e-07
-8.55092e-07
2.69112e-07
1.20327e-06
-2.53323e-07
2.72069e-07
-0.00115183
0.00115177
-1.43915e-07
-9.35346e-07
8.28358e-07
-7.50762e-07
1.0085e-06
4.3506e-08
2.32684e-08
0.000245482
-1.02444e-07
-0.000245429
-1.67838e-08
-1.01481e-07
1.0057e-06
-7.53715e-07
-9.35629e-07
8.25546e-07
-2.25632e-08
-1.21122e-08
4.03929e-09
6.40063e-08
0.00024541
6.99405e-08
0.000250234
-0.000250117
-1.93046e-07
5.73943e-09
3.02272e-10
8.42036e-10
-1.31917e-08
0.000229378
0.000193727
-0.000193694
3.23574e-09
-3.94175e-09
0.000193674
9.94354e-12
0.000229434
-0.000229398
1.8514e-09
3.19602e-08
1.11452e-09
-1.52765e-08
0.000229341
6.98212e-09
0.000193668
-0.000193634
3.17527e-09
-4.98265e-09
-3.85489e-09
0.000193615
0.000229394
-0.00022936
2.42774e-09
3.40462e-08
0.000268069
-2.03341e-07
1.22543e-06
-2.1093e-07
1.97333e-08
-4.83853e-08
-0.000278291
1.00379e-08
1.96306e-08
-4.83558e-08
-0.000278214
1.06827e-08
-1.13413e-08
2.2661e-08
0.000278188
-7.29097e-09
9.80653e-05
-9.80387e-05
9.80615e-05
-9.80349e-05
9.80246e-05
1.14749e-08
9.80735e-05
-1.96269e-08
9.81103e-05
-9.80838e-05
1.14281e-08
9.80626e-05
-1.95831e-08
9.80994e-05
-9.80728e-05
1.20267e-08
2.50303e-08
-9.31246e-09
0.000278363
9.68557e-09
2.49799e-08
-6.6818e-09
0.000278295
0.000270149
-1.28027e-06
-1.23838e-06
-0.000268116
2.38792e-07
2.4665e-07
0.00027843
-2.31444e-08
1.26615e-08
-0.000278388
-5.05368e-08
0.000278362
-2.08568e-08
1.01555e-08
-0.00027832
-5.05412e-08
1.15412e-08
4.82536e-09
9.8094e-05
1.14944e-08
4.86127e-09
9.8083e-05
1.23554e-06
1.19361e-06
0.000268119
-1.95395e-07
-2.03184e-07
1.20009e-08
-9.25871e-09
2.50962e-08
0.000278413
9.6545e-09
-6.62468e-09
2.50474e-08
0.000278346
-7.0062e-08
0.000229457
-0.000229419
2.98544e-08
2.1121e-09
2.48129e-08
-4.06259e-09
0.000193668
2.85795e-08
0.0002294
-1.11088e-08
9.40938e-10
-4.56284e-08
0.000193722
3.37152e-09
-0.000193687
-8.67086e-10
0.000250313
-0.000250192
3.13048e-09
-1.9312e-07
6.64183e-08
3.94587e-09
0.000245561
0.00115225
7.40884e-09
-1.50749e-07
1.00898e-06
-7.56137e-07
-9.35604e-07
8.31267e-07
-4.50603e-08
0.00113148
-1.24525e-07
-1.23559e-06
2.77191e-07
-2.3937e-07
-8.55184e-07
2.66142e-07
-2.1226e-07
9.13864e-07
9.28182e-10
0.000250178
2.72079e-09
1.31857e-07
0.000245635
-1.67019e-08
-0.00024558
-1.04655e-07
-1.74006e-09
0.00115221
-1.51694e-07
-9.3546e-07
8.31296e-07
-7.56001e-07
1.00901e-06
0.000250285
-0.000250167
4.71948e-09
-1.9313e-07
-1.20563e-08
6.64006e-08
3.92008e-09
0.000245458
0.0011522
-1.4509e-07
1.01147e-06
-7.56111e-07
-9.38076e-07
8.31242e-07
-5.63243e-08
0.00113155
1.27768e-06
-1.24587e-07
-8.60284e-07
2.68859e-07
9.19041e-07
-2.14976e-07
-1.23034e-06
2.80002e-07
-2.39557e-07
0.000250153
1.45126e-09
1.31859e-07
0.00024553
2.30498e-08
-1.65576e-08
-0.000245477
-1.04665e-07
0.00115214
-1.51752e-07
-9.40656e-07
8.31271e-07
-7.55973e-07
1.0142e-06
5.0438e-11
2.85723e-08
-1.11252e-08
1.24968e-09
0.000229479
2.26961e-08
-4.09362e-09
0.00019377
2.85727e-08
-1.1123e-08
9.48532e-10
0.000229439
2.48583e-08
-4.8918e-09
-4.12054e-09
0.000193707
8.48975e-10
2.96818e-09
1.31738e-07
0.000250206
-5.08961e-08
-1.24975e-07
1.28023e-06
-2.39349e-07
2.77146e-07
9.13866e-07
-2.12238e-07
2.66101e-07
-8.5514e-07
0.00113146
3.92073e-09
6.64366e-08
0.000245599
4.50078e-09
-1.52738e-07
1.00901e-06
-7.55868e-07
-9.35361e-07
8.31314e-07
0.00115216
1.21261e-09
1.3174e-07
0.000250181
-5.08526e-08
-1.23299e-06
-1.25017e-07
9.1902e-07
-2.14945e-07
-8.60252e-07
2.6883e-07
1.27764e-06
-2.42251e-07
2.79967e-07
0.00113153
-1.20323e-08
3.90286e-09
6.64156e-08
0.000245497
-1.52776e-07
1.01422e-06
-7.55833e-07
-9.40543e-07
8.31299e-07
0.0011521
2.26613e-08
-7.41001e-09
0.000278237
-1.14972e-08
2.27708e-08
-7.15709e-09
0.000278378
0.000270134
-0.000268101
2.41576e-07
2.4388e-07
0.000278301
1.06388e-08
-0.000278263
-4.82364e-08
1.9532e-08
0.000278447
1.02539e-08
-0.000278403
-5.05497e-08
4.90477e-09
9.8069e-05
9.81059e-05
-7.06026e-09
-9.80793e-05
1.37434e-08
9.80712e-05
1.19605e-06
0.000268104
-1.98024e-07
-2.00511e-07
-7.356e-09
2.27156e-08
0.000278288
-1.15425e-08
1.19968e-08
-6.60222e-09
2.51171e-08
0.000278428
4.86041e-09
9.80895e-05
-1.69085e-09
0.000250306
-0.000250185
4.05965e-09
-1.93142e-07
6.40419e-08
6.44754e-09
0.000245524
0.00115209
3.28112e-09
-1.44959e-07
1.01151e-06
-7.56102e-07
-9.3813e-07
8.31233e-07
-5.07462e-08
0.00113248
-1.2486e-07
-1.19366e-06
2.74709e-07
-2.3678e-07
-8.57697e-07
2.69035e-07
-2.15016e-07
9.16536e-07
1.66983e-09
0.000250171
1.95321e-09
1.31872e-07
0.000245601
-1.91944e-08
-0.000245543
-1.02365e-07
-3.98214e-09
0.00115204
-1.45929e-07
-9.37983e-07
8.31274e-07
-7.55959e-07
1.01154e-06
-7.00751e-08
0.000229446
-0.000229408
2.98604e-08
2.19027e-09
2.26022e-08
-3.94907e-09
0.000193656
2.86137e-08
0.000229388
-1.11342e-08
9.56856e-10
-4.33669e-08
0.000193709
3.13823e-09
-0.000193676
0.000250276
-0.000250159
-1.9313e-07
4.33301e-09
0.00115203
-1.50712e-07
1.01152e-06
-7.56142e-07
-9.38147e-07
8.31234e-07
-1.2146e-08
6.16296e-08
4.02166e-09
0.000245446
-5.07086e-08
0.00113142
1.27228e-06
-1.24483e-07
-8.57737e-07
2.66175e-07
9.16431e-07
-2.12298e-07
-1.22762e-06
2.80024e-07
-2.4224e-07
0.000250145
1.31894e-07
1.66068e-09
0.00115197
-1.45845e-07
-9.38009e-07
8.31274e-07
-7.55997e-07
1.01154e-06
0.000245515
2.32287e-08
-1.67517e-08
-0.000245465
-9.98297e-08
2.86006e-08
1.72232e-10
9.82804e-10
-1.11425e-08
0.000229467
2.26853e-08
-4.03535e-09
0.000193753
1.67628e-09
1.96489e-09
1.34344e-07
0.000250197
-5.09599e-08
-1.2531e-07
1.23834e-06
-2.36755e-07
2.74668e-07
9.16507e-07
-2.1499e-07
2.68996e-07
-8.57658e-07
0.00113246
6.42486e-09
6.40607e-08
0.000245563
3.41904e-09
-1.528e-07
1.01153e-06
-7.55821e-07
-9.37886e-07
8.31289e-07
0.00115199
2.86057e-08
-1.1141e-08
9.69575e-10
0.000229428
2.26507e-08
-4.89249e-09
-4.00296e-09
0.000193695
1.34371e-07
1.67897e-09
0.00025017
-5.0885e-08
-1.22758e-06
-1.24919e-07
9.16394e-07
-2.12282e-07
-8.57692e-07
2.66132e-07
1.27223e-06
-2.42217e-07
2.79982e-07
0.0011314
-1.52716e-07
1.01154e-06
-7.55863e-07
-9.379e-07
8.31287e-07
0.00115193
-1.21224e-08
4.00654e-09
6.16511e-08
0.000245484
-1.41016e-10
0.000229481
-0.000229445
2.11749e-09
3.19016e-08
-3.92969e-09
0.000193718
-1.58575e-10
0.000229425
1.32451e-09
-1.31828e-08
0.000193771
3.01419e-09
-0.000193737
6.99811e-08
0.000250269
-0.000250152
-1.93059e-07
4.03567e-09
0.00115189
-1.45232e-07
1.00332e-06
-7.50599e-07
8.2573e-07
-9.29928e-07
-2.25979e-08
6.3979e-08
4.01913e-09
0.000245483
-4.50539e-08
0.00113105
-1.19011e-07
-1.22473e-06
2.77157e-07
-2.39365e-07
-8.49618e-07
2.63452e-07
-2.09467e-07
9.08362e-07
-2.85345e-08
0.000250138
1.344e-07
1.17799e-09
0.00115183
-1.46082e-07
-9.32486e-07
8.28508e-07
-7.53181e-07
1.00606e-06
4.34108e-08
0.000245555
-1.66591e-08
-0.0002455
-1.04646e-07
0.000229444
-0.000229406
2.98136e-08
1.95431e-09
-4.94332e-09
-3.91143e-09
0.000193661
0.000229386
-1.11006e-08
8.76877e-10
0.000193714
6.91831e-09
3.2399e-09
-0.000193681
-2.84509e-08
1.39156e-09
2.28588e-09
1.31643e-07
0.000250192
-5.67869e-08
-1.25348e-07
1.24087e-06
-2.36571e-07
2.74569e-07
9.11142e-07
-2.14935e-07
-8.52336e-07
2.68893e-07
0.00113202
-2.26742e-08
3.90389e-09
6.64344e-08
0.000245597
1.47436e-09
-1.5293e-07
1.00606e-06
-7.50278e-07
-9.29715e-07
8.28508e-07
0.00115187
-3.57346e-11
1.33521e-09
-1.3189e-08
0.000229464
-3.98316e-09
0.000193757
-2.85042e-08
1.31675e-07
1.67293e-09
0.000250166
-5.08368e-08
-1.22468e-06
-1.3082e-07
9.08335e-07
-2.0945e-07
-8.4959e-07
2.63412e-07
1.26933e-06
-2.3934e-07
2.77121e-07
0.00113103
-1.58711e-07
1.00607e-06
-7.5304e-07
-9.32368e-07
8.28529e-07
0.00115179
-2.26322e-08
-1.21046e-08
4.00417e-09
6.63618e-08
0.000245519
-1.11038e-08
8.86021e-10
0.000229425
-4.8935e-09
-3.97082e-09
0.0001937
2.04324e-08
-7.2788e-09
0.000278236
-1.14506e-08
2.27315e-08
-9.78786e-09
0.000278372
0.000270108
-0.000268088
2.41573e-07
2.4649e-07
0.0002783
1.05857e-08
-0.000278261
-4.59353e-08
1.95671e-08
0.000278436
1.32458e-08
-0.000278398
-4.82423e-08
4.87755e-09
9.80691e-05
9.81059e-05
-6.97468e-09
-9.80793e-05
1.14273e-08
9.80668e-05
1.1907e-06
0.000268091
-1.98142e-07
-2.03103e-07
-7.22437e-09
2.04985e-08
0.000278286
-1.15135e-08
1.19739e-08
-9.72472e-09
2.27911e-08
0.000278423
4.82905e-09
9.80895e-05
6.98598e-08
0.000250261
-0.000250144
-1.93005e-07
5.25961e-09
0.00115172
-1.50877e-07
1.0085e-06
-7.56046e-07
8.284e-07
-9.35181e-07
-2.26058e-08
6.40037e-08
4.01782e-09
0.000245448
-5.0877e-08
0.00113204
-1.24817e-07
-1.18815e-06
2.74665e-07
-2.36721e-07
-8.54815e-07
2.68938e-07
-2.14963e-07
9.13658e-07
-2.84466e-08
0.00025013
1.31811e-07
1.21951e-09
0.00115167
-1.51809e-07
-9.35008e-07
8.2843e-07
-7.53166e-07
1.00852e-06
4.34105e-08
0.00024552
-1.6771e-08
-0.000245467
-1.02315e-07
-1.19066e-10
0.000229473
-0.000229437
2.28837e-09
3.18993e-08
-4.00332e-09
0.000193714
2.82451e-10
0.000229418
8.52125e-10
-1.3194e-08
0.000193766
3.18012e-09
-0.000193733
0.000229433
-0.0002294
2.43705e-09
3.39807e-08
-4.93053e-09
-3.91885e-09
0.000193654
0.00022938
9.14143e-10
-1.52824e-08
0.000193707
7.02088e-09
3.11609e-09
-0.000193673
8.57393e-10
-2.84913e-08
1.31701e-07
2.14647e-09
0.000250182
-5.0893e-08
-1.25298e-07
1.2354e-06
-2.36636e-07
2.74539e-07
9.11168e-07
-2.1495e-07
-8.5234e-07
2.68918e-07
0.00113188
5.02856e-09
-1.52869e-07
1.0061e-06
-7.53063e-07
-9.32472e-07
8.28498e-07
0.0011517
-2.26687e-08
3.93073e-09
6.4039e-08
0.000245589
-2.84381e-08
1.31688e-07
7.4995e-10
0.000250158
-5.10341e-08
-1.1881e-06
-1.25271e-07
9.1357e-07
-2.14946e-07
-8.54791e-07
2.68915e-07
1.23282e-06
-2.367e-07
2.7462e-07
0.00113202
-1.52861e-07
1.00853e-06
-7.53029e-07
-9.34897e-07
8.28451e-07
0.00115163
-2.26593e-08
-1.205e-08
3.98928e-09
6.40378e-08
0.000245487
1.80529e-10
8.59574e-10
-1.32089e-08
0.000229457
-4.06285e-09
0.000193753
7.05447e-10
-1.52952e-08
0.000229419
-4.87794e-09
-3.98417e-09
0.000193693
9.8049e-05
9.80857e-05
-9.80592e-05
9.80451e-05
9.80819e-05
-9.80554e-05
0.000268065
-1.9789e-07
-2.00617e-07
-1.14581e-08
-6.76694e-09
2.50601e-08
0.000278364
-1.14777e-08
-7.1735e-09
2.27872e-08
0.000278289
9.80694e-05
9.80656e-05
1.70561e-08
7.92964e-05
1.39123e-11
-0.000263321
2.42261e-08
0.000263366
-6.15532e-08
-4.41918e-09
-3.94609e-09
-4.95096e-09
2.25971e-08
3.32297e-08
-9.50837e-10
7.93221e-05
-1.50359e-09
-4.99483e-09
2.25761e-08
-8.66621e-10
1.23973e-08
0.000143482
-0.000143493
7.94383e-11
-1.11157e-08
1.02122e-09
-0.000229478
-8.82698e-11
2.85769e-08
-0.0001712
-2.69259e-10
-3.61978e-11
0.00017123
-0.000223511
2.87658e-08
4.44824e-09
0.000223552
-7.15615e-08
-0.000171212
-2.76776e-11
-0.000223532
1.00111e-09
3.29524e-08
1.55195e-09
0.000143509
-7.93223e-05
-2.40877e-08
-1.54154e-09
7.93479e-05
-1.71304e-08
0.000263399
-9.88224e-10
-0.000263418
3.33018e-08
3.20843e-09
0.000193765
6.92417e-09
-4.34584e-08
-5.73453e-11
-7.93394e-05
-4.44371e-09
0.000263443
-6.13782e-08
-0.000143466
2.72845e-10
-2.87891e-08
2.98878e-08
2.20972e-09
3.6894e-11
-7.01009e-08
8.59186e-10
0.000171182
-0.000171194
-1.89797e-11
-1.23979e-08
0.000223491
-0.000223512
3.2968e-08
-0.000143478
-2.74738e-11
-7.15947e-08
1.71552e-08
7.93308e-05
-0.000263424
2.40471e-08
0.000263469
-6.13239e-08
-4.06437e-09
-4.8513e-09
2.26716e-08
3.33214e-08
7.93564e-05
9.80796e-05
-6.90156e-09
-2.19629e-08
4.91566e-09
1.37112e-08
1.24186e-08
-8.26756e-10
0.000143481
-0.000143492
2.61258e-11
7.51181e-10
-1.11375e-08
-0.000229466
2.28656e-11
2.86088e-08
-0.000223502
2.87784e-08
4.4078e-09
0.000223542
-7.15833e-08
-0.000171198
-3.12873e-10
1.46631e-11
0.000171228
-0.000223523
9.50371e-10
3.29814e-08
-0.000171209
2.90954e-12
1.52245e-09
0.000143507
-7.9324e-05
-2.41232e-08
-1.50895e-09
7.93497e-05
-1.7086e-08
0.000263395
-9.33098e-10
-0.000263414
3.32775e-08
3.22094e-09
0.000193748
6.95107e-09
-4.34914e-08
-3.96382e-12
-7.93411e-05
-4.4004e-09
0.000263439
-6.14333e-08
-0.000143465
-2.88026e-08
3.21331e-10
2.37525e-09
2.98998e-08
-1.07478e-11
-7.0127e-08
-1.24127e-08
0.000223482
-0.000223502
3.29963e-08
8.17386e-10
0.000171179
-0.000171191
1.14157e-11
-0.000143477
-7.16128e-08
2.37854e-11
1.71127e-08
7.93326e-05
-0.00026342
2.4079e-08
0.000263465
-6.13741e-08
-4.00491e-09
-4.88626e-09
2.26576e-08
3.33057e-08
7.93582e-05
9.80729e-05
-6.96131e-09
-1.9588e-08
4.91807e-09
1.13926e-08
-6.99787e-09
-7.09151e-09
0.000213851
-0.000213858
1.01764e-08
1.01052e-08
-8.05861e-05
-1.2171e-08
-1.20145e-08
8.06103e-05
-8.05746e-05
-1.21077e-08
-1.20925e-08
8.05988e-05
-8.06025e-05
9.40346e-09
-8.0591e-05
9.32693e-09
-2.46956e-08
-2.48214e-08
0.000213877
-0.000221985
-3.59323e-08
3.2989e-08
2.47333e-08
0.000222021
-5.70494e-08
-1.58234e-08
0.000250743
-0.000250798
6.11838e-08
3.19311e-08
1.63238e-08
0.000183126
-9.41667e-09
-0.000183139
-4.83301e-08
1.00602e-08
0.000278358
1.96877e-08
-2.31862e-08
-1.01596e-08
-0.000222004
2.89041e-08
0.000250811
-9.70657e-08
-5.48377e-08
1.20094e-08
0.000183157
-0.000221917
-3.60617e-08
3.09944e-08
2.48553e-08
0.000221957
-5.94484e-08
-1.57979e-08
0.00025063
-0.000250687
6.3633e-08
3.19127e-08
1.44062e-08
0.000183074
-9.33727e-09
-0.000183086
-4.82988e-08
1.07079e-08
0.00027828
1.95759e-08
-2.32656e-08
-1.00878e-08
-0.00022194
3.13307e-08
0.000250703
-1.01937e-07
-5.49794e-08
1.20921e-08
0.000183103
-0.000213832
1.22004e-08
1.21344e-08
6.98526e-09
8.05783e-05
-8.05947e-05
7.08165e-09
8.05668e-05
-8.05832e-05
-0.000213839
1.58274e-08
-1.63543e-08
0.000222
3.12464e-08
-0.000183143
-3.29426e-08
0.000183174
2.50277e-08
-6.78934e-09
-1.14259e-08
1.21133e-08
-0.000250759
3.58985e-08
0.000250826
-9.94642e-08
-5.48268e-08
6.12039e-08
3.18994e-08
0.000222038
-5.9295e-08
1.58055e-08
-1.44375e-08
0.000221934
3.13702e-08
-0.000183091
-3.09398e-08
0.000183121
2.27545e-08
-7.20264e-09
-1.1444e-08
1.20621e-08
-0.000250646
3.60379e-08
0.000250719
-1.01865e-07
-5.49661e-08
6.36543e-08
3.19081e-08
0.000221974
-5.9374e-08
1.13831e-08
1.13266e-08
-7.01897e-09
-7.07443e-09
0.0002138
1.22737e-08
1.01796e-08
-8.05624e-05
-1.22904e-08
-1.19887e-08
8.05866e-05
-8.05489e-05
-1.22345e-08
-1.20763e-08
8.05732e-05
9.38117e-09
9.36189e-09
-2.70093e-08
-2.50547e-08
0.000213827
-1.64909e-08
0.000221965
1.82161e-08
2.89674e-08
-0.000183087
-3.33473e-08
0.000183121
-9.40247e-09
2.49581e-08
1.20868e-08
3.84382e-08
-0.000250746
0.000250808
-9.9649e-08
-5.23484e-08
0.000222001
-5.73589e-08
6.1118e-08
2.94094e-08
-1.62982e-08
0.0002219
1.57463e-08
3.35082e-08
-0.000183034
-3.31427e-08
0.000183065
-6.7737e-09
2.4898e-08
9.73932e-09
3.60685e-08
-0.000250638
0.000250706
-1.02163e-07
-5.24224e-08
0.000221939
-6.1931e-08
6.35685e-08
2.93968e-08
-9.80796e-05
1.14393e-08
4.90168e-09
-1.97835e-08
-6.8872e-09
-9.80686e-05
1.13953e-08
4.93637e-09
-1.97434e-08
-6.90945e-09
-0.000213819
1.22706e-08
1.22156e-08
-2.69814e-08
-2.50234e-08
0.000213846
7.0269e-09
8.05702e-05
9.37465e-09
7.07991e-09
8.05568e-05
9.35451e-09
1.22811e-08
1.01899e-08
-1.19888e-08
8.05945e-05
-1.20768e-08
8.05811e-05
-1.65431e-08
1.8213e-08
0.000221999
-0.000222018
-1.22938e-08
2.90151e-08
-0.000250779
3.83949e-08
0.000250839
-9.70337e-08
-5.23373e-08
-9.33885e-09
2.50014e-08
-0.000278354
1.20391e-08
-0.000183122
-3.32448e-08
1.19851e-08
0.000183156
-0.000183139
-9.36092e-09
-0.000250826
5.87357e-08
3.19026e-08
2.69457e-08
0.000222035
-5.72134e-08
-1.63511e-08
1.57513e-08
0.000221934
-0.000221956
-1.01997e-08
3.35525e-08
-0.000250669
3.60248e-08
0.000250737
-1.02021e-07
-5.24145e-08
-6.71118e-09
2.49502e-08
-0.000278287
9.70312e-09
-0.000183069
-3.3038e-08
1.20742e-08
0.0001831
-0.000183083
-9.33907e-09
-0.000250721
6.35845e-08
2.93685e-08
2.49906e-08
0.000221973
-6.17837e-08
-0.000221982
3.33029e-08
-3.84215e-08
-5.72913e-08
1.65152e-08
0.000183105
-1.82051e-08
0.000250764
5.86453e-08
2.93776e-08
1.26032e-08
-5.07243e-08
-2.31533e-08
2.89883e-08
-9.71848e-08
-5.48866e-08
-0.000221917
3.30976e-08
-3.60468e-08
-6.18625e-08
1.63239e-08
0.000183052
-1.57489e-08
0.000250653
6.35642e-08
2.93887e-08
1.00919e-08
-5.07307e-08
-2.0857e-08
3.35307e-08
-1.02096e-07
-5.24183e-08
-7.03427e-09
-7.08969e-09
0.000213838
-8.05781e-05
-1.22474e-08
8.06023e-05
-8.05646e-05
-1.21895e-08
8.05889e-05
0.000213865
-0.000143436
2.86138e-10
-2.88471e-08
1.51813e-09
0.000143463
8.40386e-10
0.000171145
-2.91942e-11
-0.000171157
-1.23998e-08
0.000223451
9.60947e-10
3.29816e-08
-0.000223472
2.99402e-08
2.21307e-09
0.000229439
6.83354e-12
-7.01708e-08
7.25074e-12
-0.000143447
0.000171176
-3.44656e-11
4.42478e-09
0.000223492
-7.16675e-08
7.93137e-05
1.71004e-08
-7.93308e-05
-3.11646e-11
-4.00265e-09
-0.000193725
2.26269e-08
2.41411e-08
-0.000263373
-4.43664e-09
-6.14369e-08
-1.5261e-09
-0.000263392
-9.74447e-10
3.32676e-08
-7.93051e-05
-2.41803e-08
-1.70812e-08
0.000263347
3.32408e-08
3.26712e-09
-4.35517e-08
-6.14955e-08
0.000143451
-8.48299e-10
1.23969e-08
-1.11093e-08
1.01839e-09
-8.79706e-11
2.85894e-08
-2.78289e-10
-0.000171164
-3.89909e-11
2.8817e-08
-0.000223471
-7.1639e-08
-3.15484e-11
3.29672e-08
-0.000143366
3.52971e-10
-2.88346e-08
1.44752e-09
0.000143393
7.80969e-10
0.000171111
-0.000171123
-1.2371e-08
0.000223352
-1.16372e-09
3.04958e-08
-0.000223369
2.99445e-08
2.11761e-09
0.000229399
-7.01767e-08
-2.41829e-11
-0.000143377
0.000171141
6.38905e-09
0.000223389
-6.91975e-08
1.70564e-08
7.92718e-05
-7.92888e-05
6.1898e-12
-4.0347e-09
-0.000193664
-4.95398e-09
2.47803e-08
-0.00026324
2.41872e-08
-6.39733e-09
0.000263284
-5.89636e-08
-0.000263259
1.14423e-09
3.07315e-08
-1.46184e-09
7.92974e-05
-7.92631e-05
-2.42276e-08
-1.7039e-08
0.000263214
3.07121e-08
-0.000263233
3.44572e-09
6.8744e-09
-4.57656e-08
-7.92802e-05
-5.90126e-08
-7.95359e-10
1.23719e-08
0.000143381
-1.11035e-08
9.37535e-10
2.85851e-08
-0.000171129
-3.42042e-10
0.000171159
-0.000223373
2.88098e-08
0.000223409
-6.91695e-08
3.0479e-08
0.000143408
-9.80591e-05
1.36566e-08
-2.20466e-08
1.58955e-08
-1.4603e-08
0.000221909
-1.46125e-08
3.37193e-08
-0.00022193
-0.000250615
3.84517e-08
0.00025068
-9.72019e-08
-5.48507e-08
2.26413e-08
-7.4354e-09
-0.000278226
1.20768e-08
-0.000183052