/*--------------------------------*- C++ -*----------------------------------*\
| =========                 |                                                 |
| \\      /  F ield         | OpenFOAM: The Open Source CFD Toolbox           |
|  \\    /   O peration     | Version:  2312                                  |
|   \\  /    A nd           | Website:  www.openfoam.com                      |
|    \\/     M anipulation  |                                                 |
\*---------------------------------------------------------------------------*/
FoamFile
{
    version     2.0;
    format      ascii;
    arch        "LSB;label=32;scalar=64";
    class       volScalarField;
    location    "300";
    object      k;
}
// * * * * * * * * * * * * * * * * * * * * * * * * * * * * * * * * * * * * * //

dimensions      [0 2 -2 0 0 0 0];

internalField   nonuniform List<scalar> 
43008
(
1.571e-05
1.61156e-05
1.52903e-05
1.60664e-05
1.60668e-05
1.76155e-05
1.7259e-05
1.75173e-05
1.61152e-05
1.61154e-05
1.6068e-05
1.60682e-05
1.75184e-05
1.61155e-05
1.61154e-05
1.60682e-05
1.60682e-05
1.60679e-05
1.60675e-05
1.72594e-05
1.75178e-05
1.61153e-05
1.60683e-05
1.60681e-05
1.75192e-05
1.76132e-05
1.60666e-05
1.60668e-05
1.76131e-05
1.60666e-05
1.60667e-05
1.60662e-05
1.76135e-05
1.60668e-05
5.00993e-05
6.99082e-05
4.93392e-05
6.99376e-05
6.97736e-05
5.01003e-05
6.99089e-05
4.93378e-05
6.99383e-05
1.57098e-05
1.57099e-05
1.57095e-05
1.53906e-05
1.53904e-05
1.53905e-05
1.53902e-05
2.60147e-05
1.60926e-05
4.29317e-05
1.53538e-05
6.97969e-05
6.97734e-05
2.60195e-05
1.54376e-05
4.24509e-05
1.6093e-05
2.54915e-05
1.53535e-05
4.29434e-05
1.73382e-05
5.77596e-05
5.77695e-05
5.19483e-05
6.99791e-05
5.12838e-05
7.00062e-05
6.97131e-05
6.9691e-05
5.19492e-05
6.99801e-05
5.12829e-05
7.00074e-05
1.52902e-05
1.52902e-05
1.529e-05
2.76625e-05
4.38857e-05
1.51276e-05
1.60687e-05
2.71054e-05
4.43323e-05
1.50601e-05
6.97127e-05
6.9691e-05
2.76649e-05
1.51275e-05
4.38828e-05
1.60692e-05
2.7107e-05
1.506e-05
4.43373e-05
5.83107e-05
5.83213e-05
1.77311e-05
5.85682e-05
5.85775e-05
6.97962e-05
6.9772e-05
6.97982e-05
6.97745e-05
5.74679e-05
5.74813e-05
1.73376e-05
5.776e-05
5.77731e-05
6.97298e-05
6.97529e-05
6.97324e-05
6.97553e-05
1.74165e-05
5.81782e-05
5.8191e-05
5.79048e-05
5.79178e-05
5.00995e-05
6.99044e-05
4.93386e-05
6.99338e-05
2.60157e-05
4.24557e-05
1.54379e-05
1.60925e-05
2.54952e-05
4.29373e-05
1.53538e-05
2.60136e-05
4.24611e-05
1.54378e-05
1.60928e-05
2.54961e-05
4.29417e-05
1.53537e-05
5.03453e-05
6.99727e-05
6.99444e-05
5.10583e-05
5.03448e-05
6.99688e-05
6.99406e-05
5.10584e-05
2.62916e-05
1.60793e-05
4.36464e-05
1.51987e-05
4.31838e-05
1.52745e-05
2.68289e-05
2.62937e-05
1.60796e-05
4.36533e-05
1.51986e-05
4.31869e-05
1.52744e-05
2.6827e-05
1.73384e-05
5.77689e-05
5.7761e-05
6.97721e-05
6.97317e-05
6.97546e-05
1.74203e-05
5.81861e-05
5.81788e-05
5.79131e-05
5.79064e-05
6.97299e-05
6.97528e-05
2.60149e-05
4.24601e-05
1.54377e-05
1.60928e-05
2.54935e-05
4.29383e-05
1.53535e-05
5.01003e-05
6.99018e-05
4.93387e-05
6.99355e-05
2.60129e-05
1.54376e-05
4.24533e-05
1.60927e-05
2.54947e-05
1.53535e-05
4.29439e-05
5.03443e-05
6.99735e-05
6.99451e-05
5.10594e-05
2.62906e-05
1.60795e-05
4.36511e-05
1.51983e-05
4.31891e-05
1.52742e-05
2.68256e-05
5.0345e-05
6.99706e-05
6.99382e-05
5.10593e-05
2.62923e-05
1.60795e-05
1.51983e-05
4.36564e-05
1.52741e-05
4.31825e-05
2.6828e-05
5.00841e-05
6.9936e-05
2.60133e-05
1.6092e-05
1.53536e-05
4.29408e-05
5.00936e-05
6.99353e-05
2.62871e-05
1.60793e-05
4.36445e-05
1.51986e-05
4.31829e-05
1.52744e-05
2.68307e-05
5.0353e-05
6.99708e-05
6.99427e-05
5.10446e-05
2.62915e-05
1.60789e-05
1.51984e-05
4.36534e-05
1.52743e-05
4.31774e-05
2.68269e-05
5.03478e-05
6.99701e-05
6.99378e-05
5.10532e-05
5.74761e-05
5.74695e-05
1.73379e-05
5.77702e-05
5.77631e-05
6.97962e-05
6.97723e-05
6.97315e-05
6.97541e-05
1.74172e-05
5.81885e-05
5.81801e-05
5.79132e-05
5.79056e-05
6.973e-05
6.9753e-05
2.60147e-05
1.54373e-05
4.24591e-05
1.60926e-05
2.54951e-05
1.53531e-05
4.29379e-05
5.00941e-05
6.99054e-05
4.93474e-05
6.9939e-05
5.00935e-05
6.99055e-05
4.93468e-05
6.99352e-05
2.62884e-05
1.60796e-05
1.51983e-05
4.36514e-05
1.52741e-05
4.31784e-05
2.68338e-05
2.62921e-05
1.60795e-05
1.5198e-05
4.36496e-05
1.52738e-05
4.3188e-05
2.68281e-05
5.03535e-05
6.99738e-05
6.99415e-05
5.10523e-05
5.0353e-05
6.99705e-05
6.9942e-05
5.10519e-05
6.97721e-05
6.97748e-05
1.74213e-05
5.81771e-05
5.81863e-05
5.79018e-05
5.79123e-05
6.973e-05
6.97527e-05
6.97328e-05
6.97556e-05
6.97112e-05
6.96892e-05
6.97138e-05
6.96919e-05
5.83136e-05
5.83262e-05
1.7729e-05
5.857e-05
5.85833e-05
5.1948e-05
6.99752e-05
5.12833e-05
7.00026e-05
2.76587e-05
4.38871e-05
1.51277e-05
1.6069e-05
2.71125e-05
4.43345e-05
1.50603e-05
2.76589e-05
4.38896e-05
1.51277e-05
1.60693e-05
2.71136e-05
4.434e-05
1.50602e-05
5.83213e-05
5.83147e-05
1.77306e-05
5.85774e-05
5.85701e-05
6.97113e-05
6.96894e-05
2.7659e-05
4.38929e-05
1.51274e-05
1.6069e-05
2.71116e-05
4.43373e-05
1.50599e-05
5.1949e-05
6.99732e-05
5.12833e-05
7.00044e-05
2.76594e-05
1.51274e-05
4.3888e-05
1.60691e-05
2.71106e-05
1.50599e-05
4.43356e-05
5.1936e-05
6.99774e-05
5.12907e-05
7.00046e-05
2.76578e-05
1.51276e-05
4.38812e-05
1.60686e-05
2.71113e-05
1.50601e-05
4.4339e-05
5.19436e-05
6.99725e-05
5.12859e-05
7.00038e-05
5.83219e-05
5.8314e-05
1.77301e-05
5.85795e-05
5.8571e-05
6.97113e-05
6.96894e-05
2.76602e-05
1.51272e-05
4.38906e-05
1.60692e-05
2.71118e-05
1.50597e-05
4.43373e-05
5.19418e-05
6.99763e-05
5.12919e-05
7.00074e-05
5.19415e-05
6.99769e-05
5.12916e-05
7.00044e-05
6.97111e-05
6.96893e-05
6.97142e-05
6.96923e-05
6.97455e-05
4.98506e-05
6.90335e-05
5.70707e-05
6.90257e-05
5.68517e-05
6.97567e-05
7.11553e-05
7.30061e-05
6.99196e-05
7.11515e-05
7.31061e-05
6.97448e-05
4.9594e-05
6.90192e-05
5.64684e-05
6.97342e-05
6.90254e-05
5.66934e-05
7.11318e-05
7.32558e-05
6.99264e-05
7.31582e-05
7.11355e-05
6.97953e-05
6.9776e-05
6.97448e-05
4.98494e-05
5.70694e-05
6.90332e-05
5.68493e-05
6.90254e-05
6.97561e-05
7.11545e-05
7.30044e-05
6.99203e-05
7.11507e-05
7.31017e-05
6.97441e-05
4.95949e-05
5.64658e-05
6.90188e-05
6.97335e-05
5.66921e-05
6.90251e-05
7.11311e-05
7.32503e-05
6.99272e-05
7.31572e-05
7.11348e-05
6.97949e-05
6.97754e-05
8.65092e-05
7.26174e-05
7.26113e-05
7.26166e-05
7.26105e-05
8.66109e-05
5.4483e-05
5.75399e-05
3.58145e-05
6.84901e-05
5.45507e-05
5.755e-05
3.58344e-05
6.85021e-05
8.64643e-05
7.26401e-05
7.26339e-05
5.47218e-05
6.85382e-05
5.76871e-05
3.62467e-05
3.61025e-05
6.85039e-05
5.4838e-05
5.47915e-05
6.85502e-05
5.76976e-05
3.62635e-05
3.61225e-05
6.85154e-05
5.49054e-05
6.97973e-05
5.17276e-05
6.90955e-05
5.84331e-05
6.90796e-05
5.82365e-05
6.98096e-05
7.10755e-05
7.35761e-05
6.99896e-05
7.10722e-05
7.36578e-05
6.97959e-05
5.1512e-05
6.90624e-05
5.79119e-05
6.97837e-05
6.90764e-05
5.81137e-05
7.10522e-05
7.37781e-05
6.99959e-05
7.37014e-05
7.10555e-05
6.97112e-05
6.96928e-05
6.97971e-05
5.17266e-05
5.8432e-05
6.90955e-05
5.82344e-05
6.90798e-05
6.98095e-05
7.10753e-05
7.35749e-05
6.99905e-05
7.10719e-05
7.36531e-05
6.97957e-05
5.15129e-05
5.79097e-05
6.90625e-05
6.97834e-05
5.81125e-05
6.90762e-05
7.1052e-05
7.37752e-05
6.9997e-05
7.36977e-05
7.10553e-05
6.97111e-05
6.96926e-05
8.70523e-05
7.25267e-05
7.25207e-05
7.25261e-05
7.25201e-05
8.71382e-05
5.58389e-05
3.73692e-05
6.86422e-05
5.8376e-05
5.57334e-05
3.75055e-05
6.86736e-05
5.59075e-05
3.73884e-05
6.86542e-05
5.8385e-05
5.58019e-05
3.75261e-05
6.86856e-05
8.70144e-05
7.25487e-05
7.25426e-05
8.69251e-05
7.25493e-05
7.25432e-05
5.60521e-05
6.87157e-05
5.85048e-05
3.79155e-05
3.77806e-05
6.86853e-05
5.61545e-05
5.61198e-05
6.87279e-05
5.85157e-05
3.79351e-05
3.77993e-05
6.86974e-05
5.62238e-05
6.97937e-05
6.97744e-05
6.97959e-05
6.97767e-05
8.65137e-05
7.26187e-05
7.26124e-05
7.26178e-05
7.26116e-05
8.66155e-05
5.4485e-05
3.56726e-05
6.84549e-05
5.75405e-05
5.43628e-05
6.8491e-05
3.58121e-05
5.45493e-05
3.56927e-05
6.84694e-05
5.7554e-05
5.44342e-05
6.85023e-05
3.58312e-05
8.64689e-05
7.26404e-05
7.26342e-05
8.63645e-05
7.26415e-05
7.26352e-05
5.47205e-05
6.85391e-05
5.769e-05
3.62417e-05
6.85043e-05
5.48395e-05
3.61033e-05
5.47917e-05
6.85514e-05
5.77032e-05
3.62599e-05
6.85171e-05
5.49037e-05
3.6124e-05
6.97319e-05
6.97507e-05
6.97343e-05
6.97532e-05
8.67558e-05
7.25951e-05
7.25888e-05
8.66576e-05
7.25959e-05
7.25896e-05
5.54047e-05
3.70856e-05
5.81127e-05
6.8631e-05
6.8598e-05
3.69524e-05
5.55148e-05
5.54773e-05
3.7109e-05
5.81256e-05
6.86439e-05
6.86109e-05
3.697e-05
5.55806e-05
5.51828e-05
6.8552e-05
3.65301e-05
5.79727e-05
5.50677e-05
6.85859e-05
3.66662e-05
5.52478e-05
6.85645e-05
3.65492e-05
5.79857e-05
5.51393e-05
6.85986e-05
3.66883e-05
8.67965e-05
7.25731e-05
7.25669e-05
7.25724e-05
7.25662e-05
8.68902e-05
6.97441e-05
4.98502e-05
6.90331e-05
5.70683e-05
6.90253e-05
5.68466e-05
6.97552e-05
7.1153e-05
7.29787e-05
6.99156e-05
7.11492e-05
7.30907e-05
6.97433e-05
4.95942e-05
6.90187e-05
5.64633e-05
6.9025e-05
6.97328e-05
5.66912e-05
7.11294e-05
7.32388e-05
6.99226e-05
7.31308e-05
7.11332e-05
6.97693e-05
6.90349e-05
5.72198e-05
5.05876e-05
6.97576e-05
6.9045e-05
5.74329e-05
7.10923e-05
6.99619e-05
7.3531e-05
7.10957e-05
7.34437e-05
7.11157e-05
7.33043e-05
6.99555e-05
7.11121e-05
7.33976e-05
6.97704e-05
5.08232e-05
6.90594e-05
5.77803e-05
6.97825e-05
6.90473e-05
5.75731e-05
6.97679e-05
6.90345e-05
5.72147e-05
5.05874e-05
6.97562e-05
6.90446e-05
5.74302e-05
7.10897e-05
6.9958e-05
7.35131e-05
7.34155e-05
7.10932e-05
7.11132e-05
7.32774e-05
6.99516e-05
7.11096e-05
7.33798e-05
6.97691e-05
5.08226e-05
6.9059e-05
5.77774e-05
6.9047e-05
5.75678e-05
6.9781e-05
8.65168e-05
7.26127e-05
7.2618e-05
7.26118e-05
7.26172e-05
8.6613e-05
5.45491e-05
5.75499e-05
6.85e-05
3.58321e-05
5.44809e-05
5.75417e-05
3.58108e-05
6.84892e-05
8.64666e-05
7.26353e-05
7.26407e-05
5.47934e-05
6.85488e-05
5.76984e-05
3.62622e-05
6.8517e-05
3.61246e-05
5.49032e-05
5.47232e-05
6.85375e-05
5.76916e-05
3.62396e-05
3.61045e-05
6.85074e-05
5.48346e-05
6.97937e-05
6.97741e-05
6.97336e-05
6.97525e-05
8.67541e-05
7.25892e-05
7.25945e-05
8.66597e-05
7.259e-05
7.25953e-05
5.54784e-05
3.71074e-05
5.81206e-05
6.86419e-05
3.69732e-05
6.86089e-05
5.55802e-05
5.54089e-05
3.70856e-05
5.8114e-05
6.86296e-05
6.86007e-05
3.69534e-05
5.55108e-05
5.52458e-05
6.85635e-05
3.65512e-05
5.79813e-05
3.66866e-05
5.51413e-05
6.85963e-05
5.51777e-05
6.85547e-05
3.65314e-05
5.79735e-05
5.50707e-05
6.85843e-05
3.66638e-05
8.67981e-05
7.25674e-05
7.25725e-05
7.25666e-05
7.25718e-05
8.68885e-05
6.97319e-05
6.97508e-05
6.97436e-05
4.98501e-05
6.90329e-05
5.70665e-05
6.9025e-05
5.68477e-05
6.97547e-05
7.1152e-05
7.29772e-05
6.99174e-05
7.11481e-05
7.30866e-05
6.97428e-05
4.9595e-05
6.90185e-05
5.64641e-05
6.90247e-05
6.97323e-05
5.66894e-05
7.11284e-05
7.32352e-05
6.99202e-05
7.31311e-05
7.11322e-05
6.97688e-05
5.72175e-05
6.90347e-05
5.05885e-05
6.97571e-05
5.74315e-05
6.90447e-05
7.10917e-05
6.99628e-05
7.35273e-05
7.10952e-05
7.34413e-05
7.1115e-05
7.33034e-05
6.99561e-05
7.11114e-05
7.33919e-05
6.977e-05
5.08222e-05
5.77792e-05
6.90592e-05
6.97821e-05
5.75708e-05
6.90473e-05
6.97674e-05
6.90343e-05
5.7216e-05
5.05885e-05
6.97558e-05
6.90444e-05
5.74286e-05
7.10889e-05
6.99557e-05
7.35113e-05
7.34145e-05
7.10924e-05
7.11124e-05
7.32784e-05
6.99532e-05
7.11087e-05
7.3378e-05
6.97686e-05
5.08227e-05
6.90589e-05
5.77759e-05
6.90468e-05
5.75694e-05
6.97806e-05
6.97436e-05
4.98585e-05
5.70487e-05
6.90326e-05
5.68599e-05
6.9025e-05
6.97546e-05
7.11286e-05
7.32403e-05
6.9925e-05
7.31498e-05
7.11329e-05
6.97434e-05
4.98532e-05
6.90326e-05
5.70636e-05
6.90249e-05
5.68477e-05
6.97546e-05
7.11285e-05
7.32342e-05
6.99198e-05
7.31273e-05
7.11323e-05
6.97673e-05
5.72272e-05
6.90343e-05
5.0573e-05
6.97558e-05
5.74117e-05
6.9044e-05
7.10888e-05
6.99603e-05
7.35168e-05
7.34328e-05
7.10929e-05
7.11129e-05
7.32932e-05
6.99535e-05
7.11087e-05
7.3382e-05
6.97687e-05
5.08305e-05
5.776e-05
6.90584e-05
5.75796e-05
6.90468e-05
6.97804e-05
6.97672e-05
6.90341e-05
5.72156e-05
5.0582e-05
6.97556e-05
6.9044e-05
5.74258e-05
7.10888e-05
6.99552e-05
7.35081e-05
7.34115e-05
7.10923e-05
7.11123e-05
7.32739e-05
6.9953e-05
7.11087e-05
7.33756e-05
6.97684e-05
5.08254e-05
6.90583e-05
5.77734e-05
6.90467e-05
5.75686e-05
6.97804e-05
8.65148e-05
7.26118e-05
7.26175e-05
7.26111e-05
7.26168e-05
8.66091e-05
5.45482e-05
3.56924e-05
6.84648e-05
5.75503e-05
6.85012e-05
5.44356e-05
3.58297e-05
5.44849e-05
3.56703e-05
6.84568e-05
5.75431e-05
3.58153e-05
5.43652e-05
6.84896e-05
8.6464e-05
7.26337e-05
7.26394e-05
7.26345e-05
8.63624e-05
7.26403e-05
5.4793e-05
6.85496e-05
5.76984e-05
3.62618e-05
6.85144e-05
3.61236e-05
5.49041e-05
5.47223e-05
6.85377e-05
5.76916e-05
3.62435e-05
3.61019e-05
6.8506e-05
5.48349e-05
6.97939e-05
6.97744e-05
6.97333e-05
6.97522e-05
8.67498e-05
7.25884e-05
7.25941e-05
8.66572e-05
7.25891e-05
7.25948e-05
5.54775e-05
3.71064e-05
5.81213e-05
6.86417e-05
3.6973e-05
6.86084e-05
5.55813e-05
5.54092e-05
3.70898e-05
5.81131e-05
6.86291e-05
6.86001e-05
3.69505e-05
5.55121e-05
5.52482e-05
6.85622e-05
3.65504e-05
5.79823e-05
3.66867e-05
5.514e-05
6.85964e-05
5.51788e-05
6.85538e-05
3.65296e-05
5.79751e-05
5.50711e-05
6.85841e-05
3.66697e-05
8.67952e-05
7.25664e-05
7.2572e-05
7.25658e-05
7.25714e-05
8.68845e-05
6.9732e-05
6.9751e-05
6.97443e-05
4.98588e-05
5.70674e-05
6.9033e-05
5.68532e-05
6.90252e-05
6.97555e-05
7.11539e-05
7.29926e-05
6.99211e-05
7.31046e-05
7.11501e-05
6.97436e-05
4.9589e-05
5.64701e-05
6.90187e-05
5.66904e-05
6.97331e-05
6.90249e-05
7.11303e-05
7.32528e-05
6.99236e-05
7.31459e-05
7.1134e-05
6.97448e-05
4.98583e-05
5.70661e-05
6.90333e-05
5.68479e-05
6.90254e-05
6.9756e-05
7.11545e-05
7.29754e-05
6.99169e-05
7.11505e-05
7.30865e-05
6.9744e-05
4.95884e-05
5.64645e-05
6.90189e-05
6.97334e-05
5.66889e-05
6.90251e-05
7.1131e-05
7.32363e-05
6.99239e-05
7.31304e-05
7.11348e-05
6.97682e-05
5.72209e-05
6.90345e-05
5.05818e-05
6.97565e-05
5.74293e-05
6.90446e-05
7.10906e-05
6.99589e-05
7.35274e-05
7.34302e-05
7.10941e-05
7.1114e-05
7.32925e-05
6.99566e-05
7.11105e-05
7.33945e-05
6.97694e-05
5.08313e-05
5.77766e-05
6.9059e-05
5.75736e-05
6.9047e-05
6.97813e-05
6.97687e-05
5.72158e-05
6.90347e-05
5.05813e-05
6.9757e-05
5.74282e-05
6.90448e-05
7.10916e-05
6.99597e-05
7.3512e-05
7.3417e-05
7.10951e-05
7.1115e-05
7.32748e-05
6.9953e-05
7.11113e-05
7.33764e-05
6.97699e-05
5.08309e-05
5.77756e-05
6.90592e-05
5.75691e-05
6.90472e-05
6.97819e-05
6.97937e-05
6.9774e-05
6.97963e-05
6.97769e-05
8.67506e-05
7.25939e-05
7.25879e-05
8.66537e-05
7.25947e-05
7.25886e-05
5.5406e-05
3.70897e-05
5.81099e-05
6.86299e-05
5.55152e-05
3.69517e-05
6.85977e-05
5.54753e-05
3.71101e-05
5.81201e-05
6.8642e-05
5.5584e-05
3.69728e-05
6.86096e-05
5.51823e-05
6.85516e-05
3.65285e-05
5.79716e-05
5.50687e-05
3.66701e-05
6.85848e-05
5.52504e-05
6.85633e-05
3.65499e-05
5.79815e-05
5.51387e-05
3.66873e-05
6.85969e-05
8.67933e-05
7.2572e-05
7.25659e-05
8.68851e-05
7.25713e-05
7.25652e-05
6.97317e-05
6.97508e-05
6.97348e-05
6.97536e-05
6.97093e-05
6.9691e-05
6.9712e-05
6.96936e-05
8.70581e-05
7.25279e-05
7.25218e-05
7.25272e-05
7.25211e-05
8.71435e-05
5.58398e-05
3.737e-05
6.86427e-05
5.83773e-05
5.57327e-05
6.86747e-05
3.75005e-05
5.59045e-05
3.73865e-05
6.86557e-05
5.83902e-05
5.58048e-05
6.86876e-05
3.75244e-05
8.70188e-05
7.25498e-05
7.25436e-05
8.693e-05
7.25505e-05
7.25442e-05
5.60502e-05
6.87169e-05
5.85083e-05
3.79106e-05
6.86858e-05
5.61546e-05
3.77818e-05
5.61232e-05
6.87298e-05
5.85202e-05
3.79337e-05
6.86989e-05
5.62196e-05
3.77985e-05
6.97959e-05
5.17271e-05
6.90944e-05
5.84296e-05
6.908e-05
5.82313e-05
6.98082e-05
7.10732e-05
7.35484e-05
6.9986e-05
7.10698e-05
7.36411e-05
6.97946e-05
5.15116e-05
6.90622e-05
5.79066e-05
6.90758e-05
6.97824e-05
5.81103e-05
7.10498e-05
7.37615e-05
6.99922e-05
7.36728e-05
7.10531e-05
8.70591e-05
7.2522e-05
7.25273e-05
7.25214e-05
7.25266e-05
8.71406e-05
5.59038e-05
3.73899e-05
6.86539e-05
5.83847e-05
6.86854e-05
5.58056e-05
3.75231e-05
5.5836e-05
3.73698e-05
6.8645e-05
5.83777e-05
3.75013e-05
5.5737e-05
6.86733e-05
8.7017e-05
7.2544e-05
7.25492e-05
7.25446e-05
8.69314e-05
7.25498e-05
5.61236e-05
6.87277e-05
5.85158e-05
3.79328e-05
6.8697e-05
3.78019e-05
5.62193e-05
5.60553e-05
6.87156e-05
5.8509e-05
3.79116e-05
3.77812e-05
6.86881e-05
5.61517e-05
6.97095e-05
6.9691e-05
6.97955e-05
5.17269e-05
6.90954e-05
5.84283e-05
6.90789e-05
5.82329e-05
6.98078e-05
7.10724e-05
7.35494e-05
6.99877e-05
7.1069e-05
7.36399e-05
6.97941e-05
5.15127e-05
6.90618e-05
5.79083e-05
6.9076e-05
6.97819e-05
5.8109e-05
7.1049e-05
7.37599e-05
6.99901e-05
7.36717e-05
7.10523e-05
6.97955e-05
5.17339e-05
5.84143e-05
6.90937e-05
5.82415e-05
6.90802e-05
6.98076e-05
7.10729e-05
7.35639e-05
6.99879e-05
7.36447e-05
7.10689e-05
6.9794e-05
5.14988e-05
5.79176e-05
6.90623e-05
5.80939e-05
6.9782e-05
6.90751e-05
7.10489e-05
7.37661e-05
6.99943e-05
7.36889e-05
7.10528e-05
6.97952e-05
5.17293e-05
6.90936e-05
5.84258e-05
6.908e-05
5.82319e-05
6.98075e-05
7.10722e-05
7.35432e-05
6.99872e-05
7.10688e-05
7.36364e-05
6.97938e-05
5.15069e-05
6.90621e-05
5.79071e-05
6.97817e-05
6.9075e-05
5.81066e-05
7.10487e-05
7.37569e-05
6.99894e-05
7.36687e-05
7.10521e-05
8.70556e-05
7.25212e-05
7.25268e-05
7.25206e-05
7.25262e-05
8.71367e-05
5.59052e-05
3.73904e-05
6.86533e-05
5.83872e-05
6.86855e-05
5.5805e-05
3.75217e-05
5.5836e-05
3.73675e-05
6.86445e-05
5.83787e-05
3.75042e-05
5.57364e-05
6.86726e-05
8.70131e-05
7.25432e-05
7.25488e-05
7.25438e-05
8.69279e-05
7.25494e-05
5.61231e-05
6.87276e-05
5.85163e-05
3.79326e-05
6.86965e-05
3.78022e-05
5.62204e-05
5.60542e-05
6.87148e-05
5.85084e-05
3.79137e-05
3.77798e-05
6.86876e-05
5.61523e-05
6.97095e-05
6.9691e-05
6.97962e-05
5.17355e-05
5.8429e-05
6.90944e-05
5.82363e-05
6.90802e-05
6.98085e-05
7.1074e-05
7.35648e-05
6.99909e-05
7.36557e-05
7.10707e-05
6.97948e-05
5.15055e-05
5.79119e-05
6.90623e-05
5.81098e-05
6.97826e-05
6.90758e-05
7.10506e-05
7.37759e-05
6.99931e-05
7.36877e-05
7.10539e-05
6.97968e-05
5.17351e-05
5.84283e-05
6.90946e-05
5.82325e-05
6.90804e-05
6.9809e-05
7.10751e-05
7.35454e-05
6.99877e-05
7.10717e-05
7.36388e-05
6.97954e-05
5.15052e-05
5.79078e-05
6.90626e-05
6.97832e-05
5.81089e-05
6.9076e-05
7.10518e-05
7.37593e-05
6.99939e-05
7.36729e-05
7.1055e-05
6.97095e-05
6.96909e-05
6.97124e-05
6.9694e-05
1.59856e-05
1.59858e-05
1.56003e-05
1.58591e-05
1.58593e-05
1.62835e-05
1.64158e-05
3.44392e-05
1.72574e-05
2.2641e-05
2.26508e-05
1.54943e-05
1.54945e-05
1.51928e-05
1.53772e-05
1.53775e-05
1.5773e-05
1.5898e-05
3.61957e-05
2.3681e-05
2.36698e-05
1.76215e-05
3.60473e-05
2.37489e-05
2.37774e-05
3.44257e-05
2.25608e-05
2.25671e-05
1.72614e-05
3.42942e-05
2.26293e-05
2.26322e-05
3.56221e-05
1.75121e-05
2.34579e-05
2.34776e-05
2.33905e-05
2.33833e-05
3.57534e-05
3.44253e-05
1.72607e-05
2.26313e-05
2.26317e-05
3.56211e-05
1.75136e-05
2.34698e-05
2.34626e-05
2.33934e-05
2.33912e-05
3.57527e-05
3.44304e-05
2.25652e-05
2.25625e-05
1.72618e-05
2.26311e-05
3.42938e-05
2.26299e-05
3.56223e-05
1.75125e-05
2.34747e-05
2.34639e-05
2.33937e-05
2.33894e-05
3.57519e-05
3.56158e-05
1.75146e-05
2.34555e-05
2.3486e-05
3.57642e-05
2.33883e-05
2.33807e-05
3.61881e-05
2.36801e-05
2.367e-05
1.76195e-05
3.60546e-05
2.37498e-05
2.37714e-05
3.61835e-05
2.36823e-05
2.36802e-05
1.76203e-05
2.37528e-05
3.60563e-05
2.37616e-05
3.61834e-05
2.36742e-05
2.36781e-05
1.76205e-05
2.37563e-05
3.60572e-05
2.37655e-05
1.59854e-05
1.59857e-05
1.56002e-05
1.5859e-05
1.58592e-05
1.62834e-05
1.64157e-05
1.59855e-05
1.59856e-05
1.56002e-05
1.5859e-05
1.58591e-05
1.62833e-05
1.64156e-05
1.59853e-05
1.59854e-05
1.55999e-05
1.58588e-05
1.58589e-05
1.62833e-05
1.64155e-05
1.54941e-05
1.56135e-05
1.56137e-05
1.57352e-05
1.57354e-05
1.61532e-05
1.60246e-05
1.5494e-05
1.56134e-05
1.56136e-05
1.57351e-05
1.57354e-05
1.61531e-05
1.60246e-05
1.5494e-05
1.56133e-05
1.56135e-05
1.57351e-05
1.57352e-05
1.6153e-05
1.60245e-05
1.54937e-05
1.56132e-05
1.56133e-05
1.5735e-05
1.5735e-05
1.6153e-05
1.60244e-05
1.82896e-05
2.58834e-05
3.01505e-05
1.7e-05
3.00178e-05
1.69715e-05
1.83336e-05
2.07057e-05
3.69356e-05
4.28216e-05
2.53551e-05
2.52592e-05
3.68169e-05
2.07724e-05
1.8302e-05
2.58873e-05
1.69918e-05
3.01583e-05
1.69792e-05
3.00169e-05
1.8318e-05
2.05495e-05
2.49429e-05
3.64006e-05
4.25774e-05
2.05207e-05
2.50512e-05
3.65369e-05
1.81873e-05
2.56206e-05
1.68924e-05
2.95921e-05
1.81728e-05
1.69037e-05
2.97309e-05
2.07218e-05
3.69502e-05
4.28179e-05
2.5369e-05
2.52558e-05
3.68122e-05
2.07529e-05
3.47336e-05
1.73362e-05
2.29073e-05
2.29239e-05
2.28227e-05
2.28228e-05
3.4883e-05
1.54942e-05
1.54945e-05
1.51927e-05
1.53771e-05
1.53774e-05
1.5773e-05
1.58979e-05
1.54942e-05
1.54943e-05
1.51927e-05
1.53771e-05
1.53773e-05
1.57729e-05
1.58978e-05
1.54941e-05
1.54942e-05
1.51925e-05
1.5377e-05
1.53771e-05
1.57728e-05
1.58977e-05
1.88859e-05
2.75219e-05
3.18603e-05
1.7439e-05
3.1723e-05
1.74017e-05
1.89384e-05
2.14243e-05
2.62376e-05
3.80326e-05
4.39929e-05
2.13575e-05
2.63283e-05
3.81486e-05
1.87758e-05
2.7244e-05
3.12933e-05
1.72812e-05
1.87256e-05
3.14332e-05
1.7316e-05
2.15909e-05
3.8546e-05
4.42269e-05
2.66604e-05
2.65723e-05
3.84295e-05
2.16409e-05
1.88994e-05
2.75239e-05
1.7434e-05
3.18667e-05
1.74088e-05
3.17252e-05
1.89229e-05
2.14106e-05
2.62304e-05
3.80271e-05
4.39987e-05
2.13735e-05
2.63379e-05
3.8163e-05
1.87603e-05
2.72472e-05
1.72887e-05
3.12981e-05
1.87391e-05
1.73094e-05
3.14396e-05
2.16044e-05
3.85576e-05
4.42243e-05
2.66621e-05
2.6567e-05
3.8425e-05
2.16443e-05
3.6478e-05
1.77242e-05
2.4047e-05
2.40722e-05
2.39756e-05
2.39671e-05
3.66222e-05
3.47409e-05
1.73349e-05
2.28995e-05
2.29031e-05
3.48716e-05
2.28306e-05
2.28381e-05
3.53161e-05
1.74217e-05
2.31064e-05
2.31086e-05
3.51835e-05
2.31749e-05
2.31909e-05
1.83041e-05
2.58906e-05
3.01524e-05
1.6994e-05
3.00228e-05
1.69788e-05
1.83208e-05
2.05546e-05
2.49532e-05
3.64154e-05
4.25704e-05
3.65248e-05
2.05217e-05
2.50414e-05
1.81904e-05
2.56172e-05
2.95982e-05
1.68926e-05
2.97254e-05
1.81753e-05
1.69055e-05
2.07228e-05
3.69377e-05
4.28223e-05
2.53564e-05
3.68273e-05
2.52659e-05
2.07577e-05
1.82937e-05
2.58921e-05
3.01513e-05
1.69937e-05
3.00199e-05
1.69791e-05
1.83374e-05
2.05725e-05
2.49604e-05
3.63959e-05
4.25746e-05
2.05076e-05
3.65367e-05
2.50547e-05
1.82052e-05
2.5616e-05
2.95948e-05
1.68927e-05
1.81644e-05
2.97277e-05
1.69054e-05
2.07095e-05
3.69488e-05
4.28285e-05
2.5369e-05
3.68083e-05
2.07763e-05
2.5267e-05
1.84608e-05
3.04481e-05
1.7073e-05
2.64212e-05
1.84425e-05
3.05797e-05
1.70907e-05
2.11503e-05
2.60005e-05
4.35391e-05
3.77528e-05
2.59113e-05
3.76395e-05
2.11883e-05
2.09689e-05
3.72359e-05
2.55863e-05
4.32942e-05
2.5676e-05
2.09329e-05
3.73483e-05
1.85878e-05
2.66994e-05
3.1006e-05
1.71965e-05
3.08753e-05
1.71768e-05
1.86078e-05
1.84775e-05
3.04462e-05
1.70734e-05
2.64173e-05
1.84318e-05
3.05784e-05
1.70902e-05
2.11364e-05
2.60236e-05
4.35398e-05
3.77615e-05
3.76212e-05
2.59085e-05
2.12074e-05
2.09889e-05
3.72168e-05
2.55864e-05
4.33031e-05
2.09191e-05
3.73586e-05
2.56953e-05
1.85765e-05
2.67009e-05
3.10054e-05
1.7196e-05
3.0874e-05
1.71771e-05
1.86246e-05
3.47401e-05
1.73342e-05
2.29059e-05
2.29018e-05
2.2831e-05
2.28357e-05
3.48717e-05
3.53145e-05
1.74258e-05
2.311e-05
2.31066e-05
2.31856e-05
3.51827e-05
2.31807e-05
1.83023e-05
2.58886e-05
3.01504e-05
1.69993e-05
3.00207e-05
1.69706e-05
1.83187e-05
2.05575e-05
2.49593e-05
3.64127e-05
4.25742e-05
3.65256e-05
2.05183e-05
2.50463e-05
1.81885e-05
2.56158e-05
2.95959e-05
1.68846e-05
2.97248e-05
1.81728e-05
1.69107e-05
2.07196e-05
3.69379e-05
4.28277e-05
2.53608e-05
3.68254e-05
2.52736e-05
2.07598e-05
1.83037e-05
2.58907e-05
1.69998e-05
3.01509e-05
1.69713e-05
3.002e-05
1.83196e-05
2.05512e-05
2.49579e-05
3.63945e-05
4.25789e-05
2.05222e-05
3.65346e-05
2.50468e-05
1.81891e-05
2.5616e-05
1.68853e-05
2.9595e-05
1.81742e-05
1.69113e-05
2.97248e-05
2.07236e-05
3.69471e-05
4.28206e-05
2.53641e-05
3.68074e-05
2.07545e-05
2.52718e-05
1.84589e-05
3.04472e-05
1.70652e-05
2.64173e-05
1.84402e-05
3.05767e-05
1.70959e-05
2.1148e-05
2.60212e-05
4.35442e-05
3.7751e-05
2.59069e-05
3.764e-05
2.11887e-05
2.097e-05
3.72332e-05
2.55913e-05
4.32977e-05
2.56922e-05
2.09301e-05
3.73497e-05
1.85857e-05
2.66988e-05
3.10076e-05
1.72015e-05
3.0874e-05
1.71686e-05
1.86057e-05
1.84591e-05
1.70659e-05
3.04464e-05
2.64166e-05
1.84415e-05
1.70963e-05
3.05767e-05
2.11505e-05
2.60092e-05
4.35387e-05
3.77578e-05
3.76231e-05
2.59166e-05
2.11862e-05
2.09653e-05
3.72167e-05
2.55911e-05
4.3302e-05
2.09335e-05
3.73524e-05
2.5685e-05
1.85871e-05
2.6699e-05
1.72021e-05
3.10038e-05
1.71692e-05
3.08745e-05
1.86061e-05
1.82904e-05
2.58897e-05
1.70006e-05
3.01569e-05
1.69716e-05
3.00122e-05
1.83347e-05
2.07028e-05
3.69459e-05
4.28152e-05
2.5365e-05
2.52562e-05
3.68095e-05
2.07762e-05
1.84737e-05
3.04408e-05
1.70662e-05
2.64199e-05
1.84278e-05
3.05816e-05
1.70966e-05
2.11324e-05
2.59999e-05
4.3538e-05
3.77475e-05
2.12023e-05
2.59071e-05
3.76318e-05
2.0985e-05
3.72261e-05
2.55809e-05
4.32906e-05
2.09149e-05
2.56727e-05
3.73422e-05
1.85726e-05
2.66942e-05
3.10081e-05
1.72022e-05
1.862e-05
3.08652e-05
1.71693e-05
1.8475e-05
1.70666e-05
3.04395e-05
2.64169e-05
1.84284e-05
1.70975e-05
3.05817e-05
2.11291e-05
2.60102e-05
4.35316e-05
3.77607e-05
3.7618e-05
2.59006e-05
2.12054e-05
2.09887e-05
3.72159e-05
2.55761e-05
4.3302e-05
2.09118e-05
3.73595e-05
2.56879e-05
1.85731e-05
2.6699e-05
1.72028e-05
3.101e-05
1.71699e-05
3.08686e-05
1.8622e-05
3.474e-05
1.73357e-05
2.29026e-05
2.29034e-05
2.28308e-05
2.28355e-05
3.4875e-05
3.53153e-05
1.7422e-05
2.31135e-05
2.31063e-05
2.31773e-05
3.51832e-05
2.31807e-05
1.83019e-05
2.58905e-05
1.6992e-05
3.0149e-05
1.69788e-05
3.00193e-05
1.83188e-05
2.05571e-05
2.49613e-05
3.64044e-05
4.25725e-05
2.50441e-05
2.05189e-05
3.65228e-05
1.81879e-05
2.56152e-05
1.68922e-05
2.95935e-05
1.69038e-05
1.81729e-05
2.97246e-05
2.07194e-05
3.69352e-05
4.28266e-05
2.53627e-05
2.52744e-05
3.68146e-05
2.07616e-05
1.84579e-05
1.70737e-05
3.04428e-05
2.64248e-05
1.84403e-05
1.70882e-05
3.05832e-05
2.11485e-05
2.60128e-05
4.35348e-05
3.77612e-05
2.11849e-05
2.58989e-05
3.76245e-05
2.09642e-05
3.722e-05
2.55746e-05
4.32981e-05
2.09317e-05
2.5688e-05
3.73587e-05
1.85853e-05
2.66948e-05
1.71938e-05
3.10119e-05
1.86049e-05
1.71771e-05
3.0871e-05
1.84579e-05
1.70734e-05
3.04462e-05
2.64184e-05
1.84397e-05
1.70883e-05
3.05751e-05
2.11461e-05
2.60074e-05
4.3543e-05
3.77439e-05
3.76317e-05
2.59194e-05
2.11923e-05
2.09732e-05
3.72254e-05
2.55929e-05
4.32961e-05
2.0929e-05
3.73392e-05
2.56864e-05
1.85852e-05
2.66994e-05
1.71941e-05
3.10029e-05
1.71772e-05
3.08739e-05
1.86053e-05
3.53246e-05
1.74246e-05
2.31001e-05
2.30984e-05
3.51763e-05
2.31739e-05
2.32003e-05
3.64848e-05
1.77216e-05
2.40492e-05
2.40694e-05
3.66149e-05
2.39751e-05
2.3965e-05
1.89028e-05
2.75301e-05
3.18628e-05
1.74327e-05
3.17312e-05
1.74096e-05
1.89268e-05
2.14146e-05
2.62409e-05
3.80407e-05
4.39939e-05
3.81513e-05
2.13733e-05
2.63284e-05
1.87632e-05
2.72405e-05
3.13035e-05
1.72884e-05
3.14342e-05
1.87406e-05
1.73101e-05
2.16059e-05
3.85493e-05
4.42288e-05
2.66638e-05
3.84392e-05
2.6575e-05
2.16497e-05
1.88901e-05
2.75302e-05
3.18609e-05
1.74327e-05
3.17297e-05
1.74101e-05
1.89426e-05
2.1435e-05
2.62352e-05
3.80246e-05
4.40016e-05
2.1361e-05
3.816e-05
2.63568e-05
1.87801e-05
2.72401e-05
3.13017e-05
1.7289e-05
1.87296e-05
3.14327e-05
1.731e-05
2.15912e-05
3.85522e-05
4.42303e-05
2.66887e-05
3.84236e-05
2.16665e-05
2.65674e-05
3.64871e-05
1.77219e-05
2.40564e-05
2.40478e-05
2.39768e-05
2.39798e-05
3.6611e-05
1.89009e-05
2.7528e-05
3.18594e-05
1.74398e-05
3.17303e-05
1.74006e-05
1.8924e-05
2.14129e-05
2.62336e-05
3.80413e-05
4.39973e-05
3.81491e-05
2.13733e-05
2.63512e-05
1.87608e-05
2.72398e-05
3.13023e-05
1.72805e-05
3.14321e-05
1.87393e-05
1.73161e-05
2.16063e-05
3.85493e-05
4.42344e-05
2.66821e-05
3.84378e-05
2.65668e-05
2.16456e-05
1.89019e-05
2.75274e-05
1.74413e-05
3.18614e-05
1.74012e-05
3.173e-05
1.89244e-05
2.14105e-05
2.62469e-05
3.80281e-05
4.39965e-05
2.1374e-05
3.81478e-05
2.6336e-05
1.8761e-05
2.72431e-05
1.72811e-05
3.13023e-05
1.87406e-05
1.7317e-05
3.14321e-05
2.16058e-05
3.85446e-05
4.42332e-05
2.66708e-05
3.84298e-05
2.16457e-05
2.65801e-05
1.88877e-05
2.75285e-05
1.744e-05
3.18654e-05
1.74021e-05
3.1723e-05
1.89412e-05
2.1432e-05
2.62318e-05
3.80212e-05
4.39993e-05
2.63441e-05
2.13543e-05
3.81601e-05
1.8778e-05
2.72404e-05
1.72819e-05
3.12962e-05
1.73171e-05
1.87268e-05
3.14389e-05
2.15857e-05
3.85511e-05
4.42236e-05
2.66818e-05
2.65635e-05
3.84202e-05
2.16643e-05
3.64869e-05
1.7722e-05
2.40627e-05
2.40504e-05
2.39763e-05
2.3968e-05
3.66134e-05
1.88997e-05
2.75287e-05
1.7434e-05
3.18616e-05
1.74088e-05
3.17279e-05
1.89234e-05
2.14173e-05
2.62482e-05
3.80342e-05
4.39968e-05
2.63355e-05
2.13704e-05
3.81435e-05
1.87604e-05
2.72421e-05
1.72885e-05
3.13001e-05
1.73096e-05
1.87385e-05
3.14339e-05
2.16029e-05
3.85407e-05
4.42321e-05
2.66725e-05
2.65803e-05
3.84323e-05
2.16499e-05
3.60233e-05
3.60197e-05
3.60197e-05
3.60086e-05
3.39295e-05
3.38852e-05
3.38853e-05
3.39591e-05
3.21567e-05
3.20014e-05
3.20013e-05
3.19443e-05
3.05322e-05
3.02197e-05
3.02199e-05
2.99768e-05
2.90292e-05
2.85426e-05
2.85428e-05
2.81085e-05
2.76304e-05
2.69748e-05
2.69747e-05
2.6375e-05
2.63248e-05
2.5518e-05
2.55178e-05
2.47911e-05
2.51043e-05
2.41714e-05
2.41711e-05
2.33627e-05
2.39634e-05
2.29364e-05
2.29361e-05
2.20888e-05
2.28977e-05
2.18121e-05
2.18118e-05
2.09705e-05
2.19036e-05
2.0796e-05
2.07957e-05
1.99966e-05
2.09778e-05
1.9885e-05
1.98847e-05
1.91632e-05
2.01151e-05
1.90772e-05
1.9077e-05
1.84688e-05
1.93144e-05
1.83693e-05
1.83693e-05
1.79088e-05
1.85747e-05
1.77582e-05
1.77582e-05
1.7478e-05
1.78934e-05
1.72422e-05
1.72423e-05
1.71668e-05
1.72681e-05
1.68205e-05
1.68206e-05
1.69825e-05
1.66969e-05
1.64921e-05
1.64923e-05
1.694e-05
1.61783e-05
1.6257e-05
1.62573e-05
1.70333e-05
1.61153e-05
1.72555e-05
3.62977e-05
3.62919e-05
3.62919e-05
3.62977e-05
3.62919e-05
3.62919e-05
3.62908e-05
3.62908e-05
3.62908e-05
3.62908e-05
3.62919e-05
3.62919e-05
3.62977e-05
3.62919e-05
3.62919e-05
3.62977e-05
3.60086e-05
3.42651e-05
3.60197e-05
3.60197e-05
3.43733e-05