/*--------------------------------*- C++ -*----------------------------------*\
| =========                 |                                                 |
| \\      /  F ield         | OpenFOAM: The Open Source CFD Toolbox           |
|  \\    /   O peration     | Version:  2312                                  |
|   \\  /    A nd           | Website:  www.openfoam.com                      |
|    \\/     M anipulation  |                                                 |
\*---------------------------------------------------------------------------*/
FoamFile
{
    version     2.0;
    format      ascii;
    arch        "LSB;label=32;scalar=64";
    class       surfaceScalarField;
    location    "300";
    object      phi;
}
// * * * * * * * * * * * * * * * * * * * * * * * * * * * * * * * * * * * * * //

dimensions      [0 3 -1 0 0 0 0];

oriented        oriented;

internalField   nonuniform List<scalar> 
124832
(
-8.75669e-07
-8.82495e-07
4.55918e-07
4.56759e-07
0.00114044
-0.00113959
-1.51898e-06
8.76951e-07
4.45277e-07
0.00113302
-5.32573e-07
1.10753e-06
1.27592e-07
7.24796e-07
-5.90675e-07
-1.27326e-06
5.85093e-08
-0.00113244
-8.56505e-07
-8.57635e-07
-0.00114291
4.4264e-07
4.43227e-07
0.00114374
-0.00113482
-1.51671e-06
8.57307e-07
4.18897e-07
0.00113536
-5.21488e-07
1.11692e-06
1.34253e-07
7.32428e-07
-5.75128e-07
-1.25932e-06
6.76489e-08
-0.00113469
-1.51394e-06
8.57477e-07
4.24503e-07
0.00113523
-5.21547e-07
1.1143e-06
1.34175e-07
7.32375e-07
-5.7528e-07
-1.25939e-06
6.7902e-08
-0.000276279
1.5456e-06
1.50866e-06
-4.99873e-07
-5.02913e-07
0.000274228
1.56153e-06
1.52202e-06
-5.07799e-07
-5.15945e-07
0.000274071
-0.00027613
-1.15832e-06
-1.11541e-06
0.000276354
-0.000274237
7.57899e-08
8.12988e-08
4.35871e-07
0.0011326
-5.35202e-07
1.15055e-06
1.30684e-07
7.3023e-07
-5.9074e-07
-1.27876e-06
5.83592e-08
-0.00113202
8.7085e-07
4.36206e-07
0.00113267
1.14771e-06
1.33246e-07
7.30026e-07
-5.9075e-07
-1.27863e-06
5.82839e-08
-0.00113208
-1.55647e-06
-5.35667e-07
0.00113427
8.61327e-07
-0.00113374
4.38942e-07
-1.55801e-06
1.4151e-07
-5.29951e-07
-1.26853e-06
6.54179e-08
-5.79308e-07
7.36067e-07
1.15281e-06
0.00113435
8.61739e-07
-0.0011338
4.28381e-07
-1.5555e-06
1.38277e-07
-5.27369e-07
-1.26842e-06
6.53058e-08
-5.79151e-07
7.35847e-07
-1.11529e-06
0.000276335
-0.000274221
7.58625e-08
7.84386e-08
4.34639e-07
0.00113359
-5.3277e-07
1.1104e-06
1.27602e-07
7.3024e-07
-5.90686e-07
-1.2786e-06
5.86603e-08
-0.00113301
-1.55367e-06
8.76068e-07
4.36169e-07
0.00113256
-5.3826e-07
1.14234e-06
1.33425e-07
7.3027e-07
-5.90752e-07
-1.27851e-06
5.49764e-08
-0.00113197
0.00113527
8.62363e-07
-0.00113472
4.27154e-07
-1.5184e-06
1.32479e-07
-5.24591e-07
-1.26839e-06
6.56785e-08
-5.79193e-07
7.36008e-07
1.14744e-06
0.00113424
8.61207e-07
-0.00113369
4.28616e-07
-1.54999e-06
1.38438e-07
-5.30035e-07
-1.26828e-06
6.22022e-08
-5.76379e-07
7.36037e-07
8.62195e-07
-0.00113427
4.32484e-07
-1.51804e-06
1.32573e-07
-5.24335e-07
-1.26286e-06
6.54136e-08
7.30492e-07
-5.78976e-07
1.14453e-06
0.00113386
8.61622e-07
-0.00113331
4.28694e-07
-1.54697e-06
1.35547e-07
-5.27006e-07
-1.25993e-06
5.87303e-08
-5.734e-07
7.2775e-07
-5.10929e-07
-5.15655e-07
0.000274046
-0.000276092
-1.10989e-06
0.00027631
-0.00027421
7.60957e-08
8.11936e-08
7.76187e-07
2.55346e-07
0.00113309
1.06636e-06
1.15351e-07
7.2725e-07
-5.87844e-07
5.86316e-08
-1.27574e-06
-1.58662e-06
-0.00113209
-5.43563e-07
8.62209e-07
-0.00113414
4.26951e-07
-1.51255e-06
1.32577e-07
-5.2433e-07
-1.26301e-06
6.56426e-08
7.30572e-07
-5.79111e-07
1.10709e-06
0.00113484
8.62155e-07
-0.00113429
4.27142e-07
-1.51006e-06
1.32526e-07
-5.24514e-07
-1.26534e-06
6.57501e-08
-5.79049e-07
7.33121e-07
-0.000274182
7.57882e-08
7.8692e-08
1.55944e-06
1.51702e-06
-5.0009e-07
-5.05565e-07
0.000274283
4.14543e-07
0.00113482
-5.30008e-07
1.15993e-06
1.4302e-07
7.3784e-07
-5.75481e-07
-1.26498e-06
6.75346e-08
-1.55413e-06
8.57214e-07
4.25916e-07
0.00113489
-5.27278e-07
1.15449e-06
1.39927e-07
7.37867e-07
-5.75296e-07
-1.26477e-06
6.43248e-08
-5.00352e-07
-5.02447e-07
0.000274267
4.24716e-07
0.00113581
-5.2186e-07
1.11705e-06
1.34045e-07
7.37874e-07
-5.75364e-07
-1.2648e-06
6.78862e-08
-1.54863e-06
8.56416e-07
4.26144e-07
0.00113478
-5.27195e-07
1.14908e-06
1.40046e-07
7.37958e-07
-5.72542e-07
-1.26474e-06
6.44851e-08
8.56761e-07
4.2614e-07
0.0011344
-5.24148e-07
1.1462e-06
1.37185e-07
7.29675e-07
-5.69515e-07
6.09819e-08
-1.25634e-06
-5.00375e-07
-5.05204e-07
0.000274253
8.5742e-07
4.24585e-07
0.00113538
-5.21718e-07
1.10876e-06
1.34161e-07
7.34975e-07
-5.75183e-07
6.8016e-08
-1.2617e-06
-1.25038e-10
9.36047e-08
0.000237627
-0.000237701
-1.06034e-08
-8.39012e-09
-3.74967e-09
1.51371e-07
-2.07474e-08
0.00019805
-0.000198177
-6.5829e-12
2.76856e-07
0.000237944
-9.49576e-08
-1.30665e-08
-0.000238113
1.50232e-08
3.10907e-08
0.000197841
-5.50274e-09
-0.000197881
-1.49475e-08
5.46989e-09
9.92817e-05
-9.92722e-05
9.35602e-08
-3.00412e-10
0.000237613
-0.000237688
-8.32212e-09
-1.05505e-08
-3.93781e-09
1.51295e-07
-2.08284e-08
0.00019803
-0.000198157
2.76811e-07
6.75871e-11
0.00023793
-1.32923e-08
-9.4936e-08
-0.000238099
1.53678e-08
3.08564e-08
0.000197823
-5.84516e-09
-0.000197863
4.6209e-07
4.35062e-07
0.0011402
-8.77039e-07
-0.00113935
4.56602e-07
4.84144e-07
0.00114001
-0.0011392
4.06644e-07
4.29275e-07
0.00113995
-1.04328e-06
-0.00113896
-0.00114209
4.55598e-07
4.50727e-07
0.0011427
-0.00114188
4.50488e-07
4.50787e-07
0.00114249
-0.00114167
4.50376e-07
4.50543e-07
0.00114245
-0.00114163
4.50463e-07
4.50899e-07
-9.37977e-08
-1.88113e-09
0.000261357
-0.000261286
-2.73908e-08
5.21559e-08
4.26696e-07
1.1119e-06
0.00113371
8.72025e-07
-1.26971e-06
6.08079e-08
-5.86765e-07
7.26546e-07
-1.52056e-06
1.29234e-07
-5.2986e-07
-0.00113313
4.75669e-09
-3.11418e-08
0.000254113
2.0209e-08
-0.000254148
4.04638e-08
-1.80046e-08
0.00113384
9.24272e-07
-1.38034e-06
5.74466e-07
-1.20854e-06
7.71337e-07
-0.00113308
4.23674e-09
6.75856e-08
9.93314e-05
-9.94033e-05
-1.48988e-08
7.81666e-09
9.9274e-05
-9.92669e-05
-3.33292e-10
-9.37716e-08
0.000261344
-0.000261277
5.49196e-08
-2.81129e-08
0.00113295
5.29233e-08
9.28288e-07
7.71624e-07
-1.2109e-06
-1.38323e-06
5.72064e-07
-0.00113223
-7.06629e-08
-1.51199e-07
3.37634e-07
7.63548e-08
0.000254362
-0.000254554
4.42891e-07
1.10656e-06
0.00113358
8.71954e-07
-1.26986e-06
6.09915e-08
-5.86804e-07
7.26718e-07
-1.5178e-06
1.2928e-07
-5.29848e-07
1.85276e-09
-2.76835e-07
0.000261428
5.31038e-07
-3.54249e-08
-0.000261648
1.87393e-08
0.00113368
9.24037e-07
-1.38055e-06
5.77216e-07
-1.20596e-06
7.74168e-07
4.43942e-09
-3.09549e-08
0.000254102
2.02989e-08
-0.000254139
4.28885e-08
-1.14665e-06
-1.09825e-06
0.000276178
-0.000274075
6.54385e-08
7.61504e-08
-4.70469e-09
-7.83686e-09
0.000285614
2.27307e-08
-0.000285685
6.07516e-08
-4.612e-09
-7.71296e-09
0.000285533
2.29905e-08
-0.000285604
6.05053e-08
-1.7296e-11
7.70817e-08
-0.000236782
-5.79303e-09
-6.73522e-09
-0.000197528
-3.39682e-09
1.40517e-07
-1.76547e-08
0.000197409
-0.000237161
8.68786e-11
2.57406e-07
0.000237004
-8.82585e-08
-1.14051e-08
1.39694e-08
2.26432e-08
-3.66832e-09
-0.000197258
-9.91573e-05
4.84779e-09
6.37244e-08
9.90887e-05
-1.40087e-08
4.61423e-09
-9.90287e-05
7.70018e-08
-1.93511e-10
-0.000236769
-6.6564e-09
-5.74656e-09
-0.000197507
-4.95585e-09
1.40266e-07
-1.79727e-08
0.000197389
-0.000237148
2.57354e-07
1.13246e-10
0.000236991
-1.15305e-08
-8.82793e-08
1.39289e-08
2.2531e-08
-3.56267e-09
-0.000197239
4.48575e-07
4.48929e-07
0.00114352
4.48439e-07
4.48621e-07
0.00114331
4.48537e-07
4.48924e-07
0.00114327
-7.72482e-08
-1.52661e-09
-0.000260653
-2.27812e-08
3.60327e-08
-0.000253673
-6.78013e-08
-1.42447e-07
3.22969e-07
6.89203e-08
0.000253492
0.00113603
-0.00113532
2.4514e-09
9.10802e-07
7.81143e-07
-1.19889e-06
-1.3695e-06
5.8419e-07
4.27566e-07
1.11852e-06
8.5245e-07
-1.2557e-06
6.98799e-08
-5.71261e-07
7.34392e-07
-1.51527e-06
1.35846e-07
-5.18741e-07
-0.000261043
-2.57244e-07
1.49271e-09
0.000260815
-3.0226e-08
5.13986e-07
7.72349e-09
-2.04967e-08
1.46665e-08
-0.00025328
2.84726e-08
-4.47863e-09
9.06426e-07
-1.36917e-06
5.83675e-07
-1.19912e-06
7.80626e-07
-9.91507e-05
4.96567e-09
6.34307e-08
9.90823e-05
-1.4039e-08
4.6034e-09
-9.90236e-05
-7.89031e-10
-7.73253e-08
-0.000260643
3.62024e-08
-2.27339e-08
0.00113587
-0.00113515
4.49586e-09
9.111e-07
7.81144e-07
-1.20196e-06
-1.37248e-06
5.8122e-07
-0.000253665
-6.79884e-08
-1.40283e-07
3.20535e-07
6.91378e-08
0.000253483
4.22159e-07
1.11593e-06
8.52637e-07
-1.25578e-06
7.01411e-08
-5.71493e-07
7.34295e-07
-1.51247e-06
1.32828e-07
-5.1868e-07
-0.000261033
1.00151e-09
-2.57456e-07
0.000260805
5.14294e-07
-3.0619e-08
-3.26364e-09
9.0675e-07
-1.36945e-06
5.86345e-07
-1.19665e-06
7.8337e-07
7.57525e-09
-2.26412e-08
1.46746e-08
-0.000253272
3.10183e-08
-0.000285134
6.79612e-08
-6.35786e-08
1.79798e-07
-1.34569e-08
0.000284963
-0.000285053
6.81076e-08
-6.33547e-08
1.74813e-07
-1.40822e-08
0.000284888
-1.14786e-06
-1.11043e-06
-0.000274269
8.09015e-08
8.37496e-08
-7.73135e-09
-4.6285e-09
2.13379e-08
-0.000284735
4.90214e-08
-7.60041e-09
-4.51097e-09
2.1646e-08
-0.00028466
5.3445e-08
6.93668e-08
9.93597e-05
-9.94329e-05
7.8258e-09
9.93044e-05
-9.92972e-05
6.74601e-08
9.93486e-05
-9.942e-05
7.37684e-09
9.9291e-05
-9.9283e-05
7.29686e-08
1.88783e-07
-1.32231e-08
0.000285991
-0.00028617
7.02923e-08
1.90814e-07
-1.30033e-08
0.000285913
-0.000286094
0.00027625
-1.15229e-06
-1.11213e-06
-0.00027413
6.81264e-08
7.6234e-08
0.000285668
-1.93815e-09
2.5218e-08
-0.000285742
5.82422e-08
0.000285592
-2.10682e-09
2.24917e-08
-0.000285663
5.78545e-08
6.09354e-09
-1.40013e-08
9.91789e-05
-9.9171e-05
6.56708e-08
4.7701e-09
9.9234e-05
6.03058e-09
-1.44054e-08
9.91676e-05
-9.91593e-05
6.55347e-08
4.61288e-09
9.92208e-05
1.55926e-06
1.51969e-06
0.000274184
-5.02748e-07
-5.10801e-07
-6.06645e-09
0.000285189
5.34967e-08
-0.000285252
2.18305e-08
-3.56622e-09
0.000285113
5.33114e-08
-0.000285179
2.18619e-08
6.79907e-08
-1.59365e-08
1.85551e-07
0.000285496
6.79503e-08
-1.33579e-08
1.85084e-07
0.000285418
9.35906e-08
0.000237584
-0.000237659
-1.0591e-08
-8.24701e-09
1.53574e-07
-2.06005e-08
0.000197982
-4.07701e-09
-0.000198111
2.768e-07
0.000237902
-9.49233e-08
-1.34753e-08
-0.00023807
2.88298e-08
0.000197779
-5.35227e-09
-0.000197818
-8.99947e-10
0.000261372
-0.000261301
-2.77744e-08
5.1912e-08
3.40344e-07
7.60307e-08
0.000254376
-0.000254569
0.00113337
3.77471e-09
9.28836e-07
7.77613e-07
-1.21629e-06
-1.38863e-06
5.80697e-07
-0.00113262
4.32716e-07
0.00113317
8.70743e-07
-1.56041e-06
1.35305e-07
-5.32559e-07
-1.27542e-06
6.07155e-08
-5.86918e-07
7.32128e-07
8.24798e-10
0.000261452
-3.404e-08
5.30989e-07
-0.000261673
0.000254114
2.01713e-08
-0.000254146
4.05016e-08
-3.46041e-09
0.00113412
9.18675e-07
-1.38615e-06
5.83026e-07
-1.21416e-06
7.79898e-07
0.000261342
-0.000261275
-2.65317e-08
5.19012e-08
3.40166e-07
7.61489e-08
0.000254266
-0.000254456
-7.29705e-08
0.00113331
9.2332e-07
7.7736e-07
-1.21626e-06
-1.38829e-06
5.80651e-07
-0.00113255
4.33696e-07
0.00113324
1.14939e-06
8.71555e-07
-1.27532e-06
6.06981e-08
7.31915e-07
-5.86958e-07
-1.55801e-06
1.3493e-07
-5.35678e-07
0.000261425
-3.57407e-08
5.30946e-07
-0.000261643
0.000254004
4.45493e-09
2.03095e-08
-0.00025404
4.03838e-08
0.00113406
9.18878e-07
-1.38584e-06
5.8299e-07
-1.21413e-06
7.79715e-07
2.12075e-11
2.66945e-07
-9.14173e-08
-1.21572e-08
0.000237463
2.65253e-08
-0.000197565
-3.97676e-09
1.45696e-07
-2.15656e-08
0.000197721
-1.37246e-10
8.50915e-08
-0.000237231
-7.93733e-09
-7.44504e-09
2.66896e-07
-9.14016e-08
-1.25166e-08
0.000237421
2.68105e-08
1.41456e-08
0.000197456
-0.000197493
-4.02882e-09
1.47983e-07
-4.71403e-09
-1.90923e-08
0.000197655
8.50941e-08
0.000237119
-0.000237188
-7.98953e-09
-7.55462e-09
8.61695e-10
-3.19097e-08
5.22699e-07
0.000261147
4.2494e-07
8.66268e-07
1.15391e-06
-5.32673e-07
1.36842e-07
7.34035e-07
-5.83123e-07
6.29966e-08
-1.27211e-06
0.000253676
3.41467e-08
-0.000253708
1.74389e-08
-0.00113485
-3.50451e-09
0.0011356
9.15399e-07
-1.38077e-06
5.84842e-07
-1.20689e-06
7.84644e-07
7.00142e-08
3.31741e-07
0.000253926
3.69442e-09
9.19897e-07
7.82257e-07
-1.20922e-06
-1.38355e-06
5.82522e-07
-8.66683e-10
0.000261058
-0.00026099
-2.56621e-08
4.38891e-08
-3.37676e-08
5.22637e-07
0.000261121
4.31322e-07
-1.55685e-06
8.66615e-07
7.33903e-07
-5.8302e-07
-1.2719e-06
6.30129e-08
1.15112e-06
-5.30125e-07
1.3361e-07
3.52202e-09
0.000253566
3.4384e-08
-0.000253595
1.74479e-08
-0.0011348
0.00113553
9.15541e-07
-1.38048e-06
5.84806e-07
-1.20687e-06
7.84483e-07
-7.04249e-08
7.25202e-08
3.31603e-07
0.000253818
9.20053e-07
7.82133e-07
-1.20917e-06
-1.3832e-06
5.82486e-07
0.000261028
-0.000260963
-2.41254e-08
4.38759e-08
0.000276233
-0.000274116
7.07549e-08
7.32888e-08
0.000285528
2.30329e-08
-0.000285602
6.07141e-08
-7.89705e-09
0.000285681
2.2871e-08
-0.000285749
5.84756e-08
9.92977e-05
-1.49085e-08
-9.92907e-05
6.64544e-09
-9.91498e-05
6.80007e-08
9.92089e-05
1.51943e-06
0.000274171
-5.05742e-07
-5.07906e-07
0.000285054
5.36773e-08
-0.00028512
2.23554e-08
-3.97389e-09
-6.31663e-09
0.000285199
5.36505e-08
-0.000285264
2.22674e-08
-1.32909e-08
1.85334e-07
0.000285354
-6.54494e-08
7.03252e-08
-1.33336e-08
1.85297e-07
0.000285504
-1.45749e-08
9.91767e-05
-9.91661e-05
4.55013e-09
9.92277e-05
-1.82351e-09
0.000261365
-0.000261294
-2.72361e-08
5.1951e-08
3.37624e-07
7.60548e-08
0.000254336
-0.000254528
0.00113322
2.78355e-09
9.33759e-07
7.77354e-07
-1.21348e-06
-1.3885e-06
5.77824e-07
-0.00113247
4.31804e-07
0.00113416
8.71907e-07
-1.52082e-06
1.29239e-07
-5.29987e-07
-1.27527e-06
6.10895e-08
-5.86773e-07
7.32174e-07
1.67661e-09
0.000261444
-3.5079e-08
5.30949e-07
-0.000261665
0.000254076
1.99329e-08
-0.00025411
4.28371e-08
-4.46975e-09
0.00113397
9.2361e-07
-1.38585e-06
5.80166e-07
-1.21131e-06
7.79688e-07
9.35325e-08
0.000237571
-0.000237646
-1.05471e-08
-8.76148e-09
1.51354e-07
-2.05318e-08
0.00019797
-0.000198096
2.76765e-07
0.000237889
-9.49026e-08
-1.32799e-08
-0.000238057
3.12246e-08
0.000197762
-5.50557e-09
-0.000197803
0.000261333
-0.000261266
5.19549e-08
-2.71457e-08
0.00113317
9.2815e-07
7.77434e-07
-1.21347e-06
-1.38835e-06
5.77863e-07
-0.00113242
-7.31251e-08
3.35214e-07
7.61766e-08
0.000254254
-0.000254441
4.33765e-07
0.00113312
1.14408e-06
8.82051e-07
-1.27518e-06
5.7473e-08
7.3219e-07
-5.84111e-07
-1.55252e-06
1.351e-07
-5.35543e-07
0.000261417
5.30885e-07
-3.55201e-08
-0.000261633
0.00113391
9.29488e-07
-1.38567e-06
5.80213e-07
-1.21128e-06
7.80048e-07
0.000253989
4.73289e-09
1.98643e-08
-0.000254028
4.59291e-08
2.66888e-07
3.74013e-11
-1.23249e-08
-9.13933e-08
0.00023745
2.65438e-08
-0.000197543
-4.38854e-09
1.45622e-07
-1.92412e-08
0.000197701
8.50513e-08
-2.35987e-10
-0.000237218
-7.45696e-09
-7.97213e-09
1.65497e-09
-3.29099e-08
5.22627e-07
0.00026114
4.29392e-07
8.67118e-07
1.11375e-06
-5.2735e-07
1.30809e-07
7.34034e-07
-5.82999e-07
6.33162e-08
-1.27188e-06
0.000253639
3.68168e-08
-0.00025367
1.72424e-08
-0.0011347
-4.21351e-09
0.00113543
9.15077e-07
-1.38062e-06
5.8481e-07
-1.20679e-06
7.84345e-07
7.25206e-08
3.29006e-07
0.000253888
2.82348e-09
9.24817e-07
7.82054e-07
-1.20913e-06
-1.38336e-06
5.82437e-07
-1.79858e-09
0.000261051
-0.00026098
-2.45863e-08
4.10911e-08
2.66855e-07
-9.13722e-08
-1.23478e-08
0.000237408
2.68302e-08
1.44297e-08
0.000197446
-0.000197482
-4.5862e-09
1.45658e-07
-4.64403e-09
-1.91664e-08
0.000197641
8.5039e-08
0.000237107
-0.000237176
-7.98063e-09
-7.77245e-09
5.22609e-07
-3.33948e-08
0.000261112
4.25751e-07
-1.55128e-06
8.66115e-07
7.34068e-07
-5.80248e-07
-1.27179e-06
5.98431e-08
1.14574e-06
-5.32786e-07
1.36719e-07
-0.00113464
0.00113537
9.15227e-07
-1.38039e-06
5.84829e-07
-1.20679e-06
7.84605e-07
6.29495e-09
0.000253551
3.98272e-08
-0.000253588
1.69827e-08
9.25043e-07
7.8226e-07
-1.20912e-06
-1.38314e-06
5.82463e-07
-7.0514e-08
7.25409e-08
3.26524e-07
0.000253806
0.000261019
-0.000260953
4.10985e-08
-2.44246e-08
-1.01057e-10
0.000237608
-0.000237685
-8.59361e-09
-8.53221e-09
0.000197827
-5.42723e-09
-0.000197868
-9.36348e-08
0.000261326
-0.000261258
5.19935e-08
-2.73881e-08
4.49832e-07
0.00113275
8.76766e-07
-1.54942e-06
1.35262e-07
-5.32682e-07
-1.26959e-06
5.73685e-08
-5.86659e-07
7.23867e-07
-0.0011322
0.00113376
9.23958e-07
-1.38026e-06
5.77376e-07
-1.20854e-06
7.74216e-07
-0.00113302
-3.12222e-08
0.000254031
2.00093e-08
-0.00025407
4.59821e-08
0.000237569
-0.000237644
-1.0615e-08
-8.85314e-09
0.000197768
1.49267e-08
-5.51552e-09
-0.000197809
-2.66783e-07
1.26266e-09
-3.25501e-08
5.22601e-07
0.000261132
4.24116e-07
8.67115e-07
1.11359e-06
-5.2714e-07
1.30926e-07
7.28483e-07
-5.82843e-07
-1.26637e-06
6.3074e-08
-2.45187e-08
3.43666e-08
-0.000253707
1.7315e-08
-0.00113457
-5.69971e-09
9.15287e-07
-1.37504e-06
5.79085e-07
7.76042e-07
-1.20403e-06
-1.45487e-07
7.23719e-08
3.31389e-07
0.000253926
-1.44545e-09
9.19766e-07
7.76434e-07
-1.2036e-06
-1.37504e-06
5.79548e-07
-8.53153e-08
-1.62428e-09
-0.000260975
-2.5012e-08
4.40919e-08
-7.50516e-11
-1.23523e-08
-9.34868e-08
0.000237448
0.000197513
-0.000197547
-4.5532e-09
-1.9095e-08
0.000197705
-8.36136e-12
0.000237144
-0.000237215
-7.87884e-09
-5.95798e-09
-2.66823e-07
5.22567e-07
-3.36445e-08
0.000261105
4.36534e-07
-1.55098e-06
8.66561e-07
7.25774e-07
-5.79948e-07
-1.26342e-06
5.63324e-08
1.14555e-06
-5.32576e-07
1.36902e-07
-0.0011345
0.00113523
9.15349e-07
-1.37488e-06
5.81999e-07
-1.20401e-06
7.789e-07
-2.683e-08
6.3079e-09
0.000253593
3.45567e-08
-0.000253624
1.72491e-08
9.19661e-07
7.76565e-07
-1.20632e-06
-1.37755e-06
5.79643e-07
-1.45617e-07
-7.04648e-08
7.24855e-08
3.2891e-07
0.000253846
-8.51902e-08
0.000261009
-0.000260947
4.6787e-08
-2.4463e-08
-9.13679e-08
-1.2584e-08
0.000237406
1.44635e-08
0.000197451
-0.000197488
-4.61836e-09
-4.5398e-09
-1.92163e-08
0.000197646
0.000237104
-0.000237174
-8.03954e-09
-7.42103e-09
1.86402e-07
-1.36164e-08
0.000285853
-0.000286031
-6.75484e-08
1.88613e-07
-1.37868e-08
0.000285995
-0.000286173
0.000276208
-0.000274105
7.09803e-08
7.61181e-08
0.000285527
2.30774e-08
-0.000285601
6.31155e-08
-7.69354e-09
0.00028567
2.29137e-08
-0.000285741
6.06612e-08
4.30268e-09
9.93552e-05
-9.94271e-05
9.92977e-05
-1.47644e-08
-9.92906e-05
6.13853e-09
-9.91424e-05
6.54378e-08
9.92039e-05
1.51384e-06
0.000274159
-5.05744e-07
-5.1053e-07
0.000285048
5.82518e-08
-0.000285116
2.23469e-08
-6.05576e-09
-6.06454e-09
0.00028519
5.58029e-08
-0.000285259
2.49468e-08
-1.38612e-08
1.80582e-07
0.000285356
-6.54715e-08
7.05065e-08
-1.65061e-08
1.82874e-07
0.000285498
-1.43439e-08
9.91742e-05
-9.91659e-05
4.68586e-09
9.92275e-05
-9.11743e-08
0.000261313
-0.000261248
5.21243e-08
-2.55053e-08
0.00113287
9.57399e-07
7.74284e-07
-1.2108e-06
5.72015e-07
-1.38559e-06
-0.00113227
-1.5126e-07
3.40095e-07
7.62339e-08
0.000254254
-7.31267e-08
-0.000254446
3.94029e-07
0.00113372
8.66563e-07
-1.51533e-06
1.23081e-07
-5.32782e-07
-1.27234e-06
6.10572e-08
-5.84055e-07
7.2933e-07
-2.7928e-07
0.000261399
5.33659e-07
-3.53459e-08
-0.000261616
0.0011336
9.24241e-07
-1.38303e-06
5.77179e-07
-1.20587e-06
7.76746e-07
-3.09686e-08
0.000253995
2.00471e-08
-0.000254031
4.28072e-08
2.12959e-10
0.000237602
-0.000237677
-8.61374e-09
-1.06904e-08
-2.02706e-08
0.00019803
-0.000198156
4.78295e-10
0.00023792
-1.37356e-08
-9.49075e-08
-0.000238088
0.000197822
-5.11583e-09
-0.000197863
0.000237563
-0.000237635
-8.06714e-09
-1.06244e-08
-2.04512e-08
0.000197968
-0.000198095
-4.32647e-09
0.000237878
-1.32836e-08
-9.48789e-08
-0.000238049
0.000197761
1.48266e-08
-5.33216e-09
-0.000197802
1.32381e-09
-2.66935e-07
5.20117e-07
-3.30215e-08
0.000261122
4.35044e-07
8.67146e-07
1.10821e-06
-5.27113e-07
1.30906e-07
7.28613e-07
-5.82932e-07
-1.26649e-06
6.3296e-08
-0.00113442
-9.80099e-10
9.15425e-07
-1.37527e-06
5.81777e-07
7.78853e-07
-1.20153e-06
-2.66165e-08
3.68354e-08
-0.000253698
1.73627e-08
1.13035e-08
9.19976e-07
7.76586e-07
-1.20657e-06
-1.37791e-06
5.76674e-07
-1.45577e-07
7.26783e-08
3.28915e-07
0.000253917
-7.03628e-10
-8.53169e-08
-0.000260965
4.41947e-08
-2.53011e-08
-2.69393e-07
5.22647e-07
-3.3691e-08
0.000261094
4.24176e-07
-1.51138e-06
8.67186e-07
7.31216e-07
-5.82876e-07
-1.26884e-06
6.34158e-08
1.10539e-06
-5.27288e-07
1.30812e-07
-0.00113434
0.00113507
9.15196e-07
-1.37763e-06
5.81796e-07
-1.20134e-06
7.81314e-07
-2.66226e-08
6.17523e-09
0.000253557
3.9443e-08
-0.000253594
1.71778e-08
9.19654e-07
7.78943e-07
-1.20644e-06
-1.38033e-06
5.76639e-07
-1.45528e-07
-7.05174e-08
7.25684e-08
3.28878e-07
0.000253809
-8.27016e-08
0.000261001
-0.000260937
4.12796e-08
-2.33165e-08
4.085e-10
-1.27821e-08
-9.13843e-08
0.000237439
0.000197505
-0.000197542
-4.29849e-09
-1.90016e-08
0.0001977
8.12497e-12
0.000237137
-0.000237207
-7.59709e-09
-8.15177e-09
-1.24013e-08
-9.1357e-08
0.000237398
1.43227e-08
0.000197445
-0.000197482
-4.3724e-09
-4.70248e-09
-1.90748e-08
0.00019764
0.000237098
-0.000237166
-7.1806e-09
-8.07912e-09
9.92769e-05
-9.92698e-05
9.92733e-05
-9.92662e-05
0.000274129
-5.05343e-07
-5.08249e-07
-6.16144e-09
5.35931e-08
-0.000285197
2.20012e-08
-6.0284e-09
5.80079e-08
-0.000285122
2.22796e-08
-6.56016e-08
-1.32392e-08
1.83015e-07
0.000285439
-6.53695e-08
-1.38994e-08
1.828e-07
0.000285359
9.91535e-05
-9.91452e-05
9.92068e-05
9.915e-05
-9.91417e-05
9.92032e-05
6.38602e-08
9.91116e-05
4.43362e-09
-9.90525e-05
6.34219e-08
9.90993e-05
4.37492e-09
-9.90406e-05
6.80978e-08
1.79947e-07
-1.35895e-08
0.000285018
6.80292e-08
1.79615e-07
-1.37252e-08
0.000284943
-1.15883e-06
-1.11864e-06
-0.000274327
8.07889e-08
8.63129e-08
-7.46499e-09
2.07085e-08
-0.00028479
5.12763e-08
-7.45714e-09
2.07841e-08
-0.000284715
4.88159e-08
7.70592e-08
-0.00023674
-5.78361e-09
-6.6056e-09
1.40377e-07
-1.81251e-08
0.000197339
2.57386e-07
0.000236961
-8.82897e-08
-1.16056e-08
2.26755e-08
-3.6666e-09
-0.000197191
-8.23962e-10
-0.000260667
-2.26894e-08
3.58733e-08
3.23319e-07
6.91767e-08
0.000253493
0.0011363
3.7492e-09
9.11016e-07
7.8685e-07
-1.20729e-06
-1.37808e-06
5.89913e-07
4.28917e-07
8.51811e-07
-1.55523e-06
1.41689e-07
-5.24363e-07
-1.26141e-06
6.98347e-08
-5.71673e-07
7.39822e-07
9.0202e-10
0.00026083
-2.98586e-08
5.14083e-07
1.46938e-08
-0.000253281
3.11728e-08
-3.49307e-09
9.06912e-07
-1.37499e-06
5.92192e-07
-1.20481e-06
7.89191e-07
-0.000260641
-2.15634e-08
3.58322e-08
-6.51705e-08
3.23178e-07
6.88696e-08
0.00025338
0.00113626
9.11124e-07
7.86827e-07
-1.20726e-06
-1.37767e-06
5.89875e-07
4.23509e-07
1.1561e-06
8.52369e-07
-1.26124e-06
6.66056e-08
7.39766e-07
-5.68796e-07
-1.55269e-06
1.41523e-07
-5.24469e-07
0.000260804
-3.13391e-08
5.14061e-07
4.88518e-09
1.46099e-08
-0.000253171
3.12413e-08
9.06937e-07
-1.37466e-06
5.9217e-07
-1.20478e-06
7.89081e-07
1.79689e-07
-1.29913e-08
0.000284886
-6.57991e-08
1.79657e-07
-1.34318e-08
0.00028503
-0.000274308
8.08995e-08
8.35069e-08
2.36677e-08
-0.000284656
4.8941e-08
-2.47471e-09
2.15672e-08
-0.000284802
4.91012e-08
4.94354e-09
9.9106e-05
-1.42044e-08
-9.90473e-05
-1.79168e-09
-0.000260658
-2.21102e-08
3.30319e-08
3.20569e-07
6.90987e-08
0.000253457
0.00113615
3.11582e-09
9.1072e-07
7.86679e-07
-1.20441e-06
-1.37784e-06
5.87077e-07
4.22304e-07
8.52706e-07
-1.51558e-06
1.35687e-07
-5.19014e-07
-1.26113e-06
7.01488e-08
-5.71497e-07
7.39788e-07
1.6881e-09
0.000260821
-3.08075e-08
5.16737e-07
1.46639e-08
-0.000253246
3.09435e-08
-4.05421e-09
9.06384e-07
-1.37477e-06
5.89321e-07
-1.20195e-06
7.88997e-07
7.70029e-08
-0.000236727
-5.75356e-09
-6.90113e-09
1.40335e-07
-1.80245e-08
0.000197328
2.57339e-07
0.000236949
-8.82668e-08
-1.14368e-08
2.28216e-08
-3.86994e-09
-0.000197178
-0.00026063
3.30377e-08
-2.18958e-08
0.0011361
9.1083e-07
7.8692e-07
-1.20443e-06
-1.37761e-06
5.87089e-07
-6.80805e-08
3.1809e-07
6.91203e-08
0.000253372
4.23621e-07
1.15073e-06
8.51541e-07
-1.26115e-06
6.67498e-08
7.39829e-07
-5.68725e-07
-1.54719e-06
1.41704e-07
-5.24388e-07
0.000260793
5.1676e-07
-3.12376e-08
9.06511e-07
-1.37458e-06
5.89342e-07
-1.20196e-06
7.89193e-07
7.68031e-09
1.43646e-08
-0.000253161
3.39917e-08
3.73708e-11
-0.000236766
-7.04725e-09
-3.70683e-09
-1.79894e-08
0.000197393
-2.20952e-12
0.000236988
-1.12358e-08
-9.03822e-08
-3.83127e-09
-0.000197243
-7.71473e-08
-0.000260625
3.88032e-08
-2.16924e-08
0.00113596
9.10856e-07
7.81226e-07
-1.20162e-06
5.84273e-07
-1.37204e-06
-1.40325e-07
3.23079e-07
6.90753e-08
0.000253409
4.23667e-07
8.51871e-07
-1.54413e-06
1.38824e-07
-5.21358e-07
-1.25282e-06
6.32973e-08
-5.65707e-07
7.31522e-07
-2.57292e-07
0.000260788
5.11241e-07
-3.14529e-08
9.06544e-07
-1.369e-06
5.86526e-07
-1.19916e-06
7.83464e-07
-2.28362e-08
1.46231e-08
-0.000253198
2.86743e-08
-0.000236725
-5.81129e-09
-6.53583e-09
-4.86845e-09
-1.81025e-08
0.000197334
0.000236947
-8.8264e-08
-1.16575e-08
1.408e-08
-3.90559e-09
-0.000197184
1.74961e-07
-1.40559e-08
0.000284882
-6.35166e-08
1.77301e-07
-1.65922e-08
0.000285025
-0.000274294
8.11893e-08
8.62996e-08
2.16274e-08
-0.000284654
5.36926e-08
-4.58738e-09
2.43693e-08
-0.000284797
5.12976e-08
4.94254e-09
9.91058e-05
-1.4025e-08
-9.9047e-05
-7.47e-08
-0.000260615
3.32715e-08
-2.10949e-08
0.0011358
9.1089e-07
7.83594e-07
-1.20175e-06
5.81163e-07
-1.37486e-06
-1.40185e-07
3.17881e-07
6.91022e-08
0.000253379
4.22064e-07
8.52623e-07
-1.50719e-06
1.35746e-07
-5.18938e-07
-1.25812e-06
7.02842e-08
-5.7142e-07
7.36934e-07
-2.59862e-07
0.000260777
5.16785e-07
-3.18001e-08
9.0659e-07
-1.37182e-06
5.86317e-07
-1.19646e-06
7.85898e-07
-2.25881e-08
1.45367e-08
-0.000253167
3.3585e-08
-1.24276e-10
-0.000236758
-6.64471e-09
-5.95427e-09
-1.79581e-08
0.000197388
2.12752e-10
0.00023698
-1.1825e-08
-8.82831e-08
-3.69165e-09
-0.000197238
-0.000236717
-6.65852e-09
-5.86985e-09
-5.03205e-09
-1.78876e-08
0.000197328
0.000236939
-1.16086e-08
-8.82452e-08
1.3948e-08
-3.59987e-09
-0.000197178
9.90851e-05
-9.90263e-05
9.90816e-05
-9.90229e-05
-3.91836e-10
8.64095e-08
0.000145584
-0.000145666
-3.75592e-09
-9.31341e-08
-1.27964e-08
-0.000237867
-1.86693e-10
2.71841e-07
-0.000173727
-2.67696e-10
-5.83507e-11
0.000173717
-0.000230529
-7.29549e-09
-8.65306e-09
0.000230466
6.99234e-08
-0.000173821
-1.35845e-10
-0.000230687
-1.72195e-08
2.48854e-07
-2.19332e-10
0.000145577
-8.0366e-05
-1.38983e-08
-9.08461e-11
8.038e-05
-6.15661e-08
0.000270221
1.76526e-08
1.98965e-07
-0.000270397
-6.56628e-09
0.000198005
1.7413e-08
3.35656e-08
3.49343e-09
-8.04311e-05
8.93418e-09
0.000270149
4.25345e-08
-0.000145675
-1.56558e-10
8.60509e-09
-1.20621e-08
-8.83157e-09
9.33069e-12
9.80156e-08
7.20362e-10
0.000173833
-1.00842e-10
-0.000173928
-8.80299e-08
0.000230752
2.53391e-07
-0.000230913
-0.000145759
-6.62126e-11
7.38677e-08
6.04288e-08
8.03158e-05
-0.000269977
1.47484e-08
0.000269908
3.95547e-08
-1.99113e-08
-4.45432e-09
1.48592e-07
1.95394e-07
8.03304e-05
9.93457e-05
-1.53688e-08
6.37882e-09
-9.93367e-05
4.47306e-09
6.90065e-08
8.64426e-08
-3.48257e-10
0.000145582
-0.000145664
-3.83526e-09
-1.30278e-08
-9.31098e-08
-0.000237853
-9.86717e-11
2.71799e-07
-0.000230518
-7.28434e-09
-8.50423e-09
0.000230455
6.985e-08
-0.000173723
-1.56319e-10
-1.18378e-10
0.000173713
-0.000230676
-1.72217e-08
2.48817e-07
-0.000173817
-1.09121e-10
-1.25902e-10
0.000145574
-8.03669e-05
-1.41686e-08
-8.15816e-11
8.03812e-05
-6.16128e-08
0.000270214
1.77055e-08
1.98901e-07
-0.00027039
-5.98906e-09
0.000197988
1.53939e-08
3.32247e-08
3.55302e-09
-8.04321e-05
9.09597e-09
0.000270143
4.23281e-08
-0.000145672
8.55704e-09
-1.8107e-10
-8.62098e-09
-1.20076e-08
-1.10581e-10
9.79656e-08
-8.80245e-08
0.000230741
2.53398e-07
-0.000230902
6.97333e-10
0.000173829
-9.36771e-11
-0.000173924
-0.000145756
7.38456e-08
-8.65064e-11
6.05213e-08
8.03168e-05
-0.000269971
1.48162e-08
0.000269902
3.93644e-08
-2.00427e-08
-3.80734e-09
1.48295e-07
1.9538e-07
8.03315e-05
9.93379e-05
-1.51678e-08
8.73857e-09
4.45891e-09
6.64894e-08
-4.10122e-08
-4.08901e-08
0.000218974
-0.000219099
1.02326e-07
1.04813e-07
-8.19489e-05
8.47942e-09
-1.72564e-08
8.19576e-05
-8.19368e-05
8.28982e-09
-1.70996e-08
8.19456e-05
-8.20141e-05
2.42019e-08
-8.2002e-05
2.43178e-08
3.84514e-08
3.86397e-08
0.000218914
7.0299e-08
-3.85872e-08
-4.02169e-08
0.000229021
5.74852e-08
-0.00022907
6.33358e-08
2.35808e-08
0.000285865
-8.74879e-09
-0.000285939
-3.80459e-09
0.000260212
7.79117e-08
-0.000260235
7.9262e-08
1.74146e-08
0.00018719
-0.000187222
7.28893e-08
-3.83505e-08
-3.83661e-08
0.000228944
5.73865e-08
-0.000228998
6.30421e-08
2.33213e-08
0.000285781
-8.61108e-09
-3.72964e-09
-0.000285855
0.000260089
7.31209e-08
8.41189e-08
-0.000260111
1.72309e-08
0.000187135
-0.000187167
-9.19131e-09
-8.97092e-09
-0.00021916
-8.20059e-05
-8.19938e-05
1.46295e-07
-1.28243e-07
0.00022887
2.35312e-07
-0.000187072
3.48342e-08
0.000187043
1.8829e-07
-1.31578e-08
-6.66414e-08
7.17439e-08
-0.000260028
-6.98958e-08
0.000260008
7.24085e-08
7.86252e-08
3.28239e-07
1.89624e-07
0.000228816
5.73216e-08
1.46412e-07
-1.26096e-07
0.000228798
2.30873e-07
-0.000187019
3.66381e-08
0.000186988
1.85699e-07
-1.38456e-08
-6.64163e-08
7.18196e-08
-0.000259909
-7.23351e-08
0.000259891
6.98239e-08
8.09794e-08
3.22876e-07
1.89642e-07
0.000228746
5.49499e-08
1.02998e-09
8.06527e-08
0.000145246
-0.000145323
-4.87041e-09
-8.68636e-08
-1.1271e-08
-0.000236936
-1.44227e-11
2.52816e-07
-0.000173341
-1.30296e-09
3.41815e-11
-0.000229692
-2.80953e-09
-7.00967e-09
5.52353e-08
-0.000173426
5.52464e-11
-0.000229839
-1.57933e-08
2.31652e-07
-8.31207e-10
-8.0173e-05
-1.67978e-08
8.01915e-10
8.0189e-05
-5.74584e-08
0.000269284
1.63014e-08
-0.000269446
1.85198e-07
-3.78235e-09
0.000197374
1.40439e-08
2.47212e-08
4.69679e-09
-8.02351e-05
7.56668e-09
0.000269225
3.1209e-08
-0.000145327
1.15879e-09
3.88397e-09
-6.85371e-09
-7.20127e-09
1.58634e-10
8.10484e-08
-6.87941e-10
0.000173432
-0.00017352
-1.29871e-11
-8.19883e-08
0.000229893
-0.000230042
2.35886e-07
-0.000145405
8.45094e-11
5.88212e-08
5.66421e-08
8.01275e-05
-0.000269066
1.74503e-08
2.85057e-08
-1.75093e-08
-5.10191e-09
1.37813e-07
1.81982e-07
9.90968e-05
-1.39568e-08
5.91539e-09
5.21309e-09
6.28211e-08
8.06564e-08
9.48827e-10
0.000145244
-0.000145321
-4.84659e-09
-1.13807e-08
-8.68345e-08
-0.000236923
-3.01438e-11
2.52735e-07
-0.000229681
-2.77708e-09
-7.0012e-09
5.51902e-08
-0.000173337
-1.28604e-09
1.22897e-11
-0.000229828