/*--------------------------------*- C++ -*----------------------------------*\
| =========                 |                                                 |
| \\      /  F ield         | OpenFOAM: The Open Source CFD Toolbox           |
|  \\    /   O peration     | Version:  2312                                  |
|   \\  /    A nd           | Website:  www.openfoam.com                      |
|    \\/     M anipulation  |                                                 |
\*---------------------------------------------------------------------------*/
FoamFile
{
    version     2.0;
    format      ascii;
    arch        "LSB;label=32;scalar=64";
    class       volVectorField;
    location    "300";
    object      U;
}
// * * * * * * * * * * * * * * * * * * * * * * * * * * * * * * * * * * * * * //

dimensions      [0 1 -1 0 0 0 0];

internalField   nonuniform List<vector> 
43008
(
(6.34772e-05 6.35011e-05 0.108289)
(5.91517e-05 -9.55347e-05 0.107557)
(6.22601e-05 6.22591e-05 0.108604)
(-9.36667e-05 5.81497e-05 0.107771)
(5.81187e-05 -9.36884e-05 0.107771)
(-0.000149579 -0.000149574 0.106585)
(0.00015234 0.000152374 0.106508)
(1.25684e-05 1.26806e-05 0.106725)
(5.93025e-05 9.54892e-05 0.107557)
(-5.94241e-05 9.56365e-05 0.107557)
(5.85709e-05 9.41645e-05 0.107719)
(-5.86246e-05 9.42564e-05 0.107718)
(-1.26097e-05 1.26719e-05 0.106725)
(9.5529e-05 5.92211e-05 0.107557)
(9.55512e-05 -5.93587e-05 0.107557)
(9.41715e-05 5.84812e-05 0.107719)
(9.41414e-05 -5.85771e-05 0.107718)
(-9.41299e-05 5.84262e-05 0.107719)
(-9.40568e-05 -5.85346e-05 0.107719)
(0.000152406 -0.000152421 0.106508)
(1.2614e-05 -1.25627e-05 0.106725)
(-5.92116e-05 -9.55409e-05 0.107557)
(5.83802e-05 -9.41345e-05 0.107719)
(-5.84229e-05 -9.41579e-05 0.107719)
(-1.26639e-05 -1.25654e-05 0.106725)
(0.000149542 0.000149545 0.106585)
(5.83205e-05 9.3718e-05 0.10777)
(-5.83539e-05 9.37843e-05 0.10777)
(-0.00014954 0.000149536 0.106585)
(9.37188e-05 5.82128e-05 0.107771)
(9.36897e-05 -5.83069e-05 0.10777)
(-9.35867e-05 -5.8257e-05 0.10777)
(0.000149546 -0.000149583 0.106585)
(-5.81552e-05 -9.37099e-05 0.107771)
(2.11222e-06 2.08552e-05 0.0947505)
(-2.83604e-06 3.82908e-05 0.0840944)
(2.81988e-06 7.04728e-05 0.0947938)
(-5.1958e-06 -1.23816e-06 0.0840815)
(5.95438e-06 -4.83528e-06 0.0725365)
(2.0829e-05 2.08354e-06 0.0947503)
(3.82997e-05 -2.8169e-06 0.0840943)
(7.04617e-05 2.80813e-06 0.0947935)
(-1.30813e-06 -5.36343e-06 0.0840815)
(-6.35442e-05 6.34988e-05 0.108289)
(6.34668e-05 -6.35277e-05 0.108289)
(-6.35216e-05 -6.35402e-05 0.108289)
(6.25601e-05 6.25658e-05 0.108526)
(-6.25944e-05 6.25592e-05 0.108526)
(6.25302e-05 -6.25912e-05 0.108526)
(-6.25738e-05 -6.26005e-05 0.108526)
(-6.215e-05 6.36524e-06 0.103006)
(-9.50666e-05 5.89603e-05 0.107612)
(-3.03008e-05 2.16069e-06 0.0963713)
(-0.000104309 2.1103e-05 0.108127)
(1.63644e-05 -3.45387e-06 0.0725063)
(-4.77202e-06 5.93084e-06 0.0725353)
(6.32868e-06 -6.21122e-05 0.103005)
(2.12511e-05 -0.000104778 0.108055)
(3.09516e-05 -7.52796e-05 0.0963599)
(5.8895e-05 -9.50587e-05 0.107612)
(7.63679e-06 -0.000126251 0.102968)
(2.11142e-05 -0.000104365 0.108127)
(2.21681e-06 -3.01781e-05 0.0963692)
(-1.41569e-05 -1.40112e-05 0.106681)
(-1.56524e-05 2.03398e-06 0.0899648)
(1.99596e-06 -1.55758e-05 0.089962)
(1.66711e-06 1.52977e-05 0.0943846)
(-1.859e-06 3.51778e-05 0.0838208)
(2.3794e-06 6.36293e-05 0.0944187)
(-4.53472e-06 -3.33522e-06 0.0838167)
(-3.3978e-06 1.56346e-05 0.0723244)
(5.68832e-06 -5.16505e-06 0.0723585)
(1.52615e-05 1.63162e-06 0.0943846)
(3.5178e-05 -1.95955e-06 0.0838211)
(6.36296e-05 2.3279e-06 0.0944185)
(-3.3501e-06 -4.51158e-06 0.083817)
(-6.22855e-05 6.22533e-05 0.108604)
(6.22239e-05 -6.22851e-05 0.108604)
(-6.22661e-05 -6.22939e-05 0.108604)
(-5.53716e-05 5.21298e-06 0.102755)
(-6.98178e-05 2.83913e-05 0.0960253)
(-0.00010314 2.06602e-05 0.108337)
(-9.31893e-05 5.78853e-05 0.107822)
(-0.00011854 6.5212e-06 0.102725)
(-2.55746e-05 7.17196e-07 0.0960416)
(-0.000102757 2.05164e-05 0.108405)
(1.55535e-05 -3.52676e-06 0.0723242)
(-5.19189e-06 5.72217e-06 0.0723574)
(5.14591e-06 -5.54132e-05 0.102754)
(2.06879e-05 -0.00010322 0.108337)
(2.84527e-05 -6.98497e-05 0.0960264)
(5.78321e-05 -9.32137e-05 0.107822)
(6.6668e-06 -0.000118647 0.102725)
(2.05427e-05 -0.000102822 0.108406)
(7.46025e-07 -2.54942e-05 0.0960395)
(-3.43423e-05 -1.82702e-05 0.0896681)
(-1.83019e-05 -3.42634e-05 0.0896677)
(-1.1193e-05 -1.11104e-05 0.106761)
(-1.3096e-05 2.65545e-06 0.0896667)
(2.58582e-06 -1.30054e-05 0.0896641)
(3.40536e-06 1.63029e-05 0.0725069)
(-6.05635e-06 -4.8144e-06 0.0725364)
(1.62961e-05 3.34067e-06 0.0725058)
(-4.98066e-06 -6.23107e-06 0.0725357)
(1.95128e-05 3.692e-05 0.0899753)
(3.69047e-05 1.93742e-05 0.0899725)
(1.39948e-05 1.41139e-05 0.106682)
(-2.08523e-06 1.56238e-05 0.0899656)
(1.53886e-05 -2.14283e-06 0.0899632)
(-5.57795e-06 -5.00174e-06 0.0724452)
(3.51684e-06 1.60078e-05 0.0724136)
(-5.02575e-06 -5.86008e-06 0.0724448)
(1.58796e-05 3.34471e-06 0.0724123)
(0.000151007 0.000151034 0.10655)
(-2.25867e-06 1.43246e-05 0.089813)
(1.4227e-05 -2.38402e-06 0.0898108)
(1.88667e-05 3.56853e-05 0.0898187)
(3.55286e-05 1.8785e-05 0.0898157)
(-2.15224e-06 2.08472e-05 0.0947502)
(2.78987e-06 3.82376e-05 0.0840936)
(-2.91514e-06 7.04619e-05 0.0947937)
(5.1296e-06 -1.23203e-06 0.0840809)
(6.3333e-06 6.20579e-05 0.103005)
(3.08502e-05 7.53747e-05 0.0963593)
(2.12599e-05 0.0001047 0.108055)
(5.90587e-05 9.50548e-05 0.107612)
(7.49851e-06 0.000126256 0.102968)
(2.09728e-06 3.03055e-05 0.0963694)
(2.11199e-05 0.000104302 0.108127)
(-6.36157e-06 6.20629e-05 0.103005)
(-3.08849e-05 7.52936e-05 0.0963578)
(-2.13027e-05 0.000104731 0.108055)
(-5.91735e-05 9.51824e-05 0.107612)
(-7.59478e-06 0.000126248 0.102968)
(-2.22464e-06 3.02623e-05 0.0963677)
(-2.11676e-05 0.000104329 0.108127)
(2.5726e-06 6.6921e-05 0.0946021)
(-4.64251e-06 -2.45514e-06 0.0839455)
(-2.23098e-06 3.66733e-05 0.083954)
(1.86741e-06 1.79277e-05 0.0945634)
(-2.64418e-06 6.69174e-05 0.0946021)
(4.65363e-06 -2.30477e-06 0.0839449)
(2.28642e-06 3.66921e-05 0.0839536)
(-1.89343e-06 1.79402e-05 0.0945631)
(7.04659e-06 0.000122436 0.102849)
(5.88285e-05 9.46289e-05 0.107666)
(1.47155e-06 2.77448e-05 0.0962019)
(2.08424e-05 0.000103539 0.108268)
(2.96527e-05 7.25787e-05 0.09619)
(2.09825e-05 0.000103923 0.108198)
(5.74542e-06 5.86428e-05 0.102882)
(-7.10712e-06 0.000122423 0.102849)
(-5.88949e-05 9.47203e-05 0.107666)
(-1.47325e-06 2.79134e-05 0.0961999)
(-2.08765e-05 0.000103558 0.108268)
(-2.96592e-05 7.25668e-05 0.0961888)
(-2.10208e-05 0.000103944 0.108197)
(-5.74308e-06 5.86432e-05 0.102882)
(-1.40914e-05 1.41387e-05 0.106682)
(1.99065e-06 1.56145e-05 0.089963)
(-1.56813e-05 -2.08204e-06 0.0899669)
(4.75302e-06 -5.93895e-06 0.0725387)
(5.75513e-06 -4.80197e-06 0.0724452)
(-3.43467e-06 1.59492e-05 0.0724132)
(-0.000151063 0.00015104 0.10655)
(2.42999e-06 1.44929e-05 0.0898103)
(-1.43286e-05 -2.41226e-06 0.0898145)
(-1.88288e-05 3.56316e-05 0.0898152)
(-3.55925e-05 1.88333e-05 0.0898168)
(5.01711e-06 -5.84102e-06 0.0724479)
(-1.59528e-05 3.42953e-06 0.0724108)
(6.20556e-05 6.31764e-06 0.103005)
(7.5307e-05 3.08435e-05 0.096359)
(0.000104697 2.12412e-05 0.108055)
(9.50703e-05 5.89706e-05 0.107612)
(0.000126235 7.50127e-06 0.102968)
(3.01353e-05 2.01775e-06 0.0963687)
(0.000104287 2.11014e-05 0.108127)
(2.08235e-05 -2.18255e-06 0.09475)
(3.8297e-05 2.70739e-06 0.0840936)
(7.0461e-05 -2.91841e-06 0.0947933)
(-1.1893e-06 5.17727e-06 0.0840803)
(6.20591e-05 -6.37531e-06 0.103005)
(0.00010472 -2.13128e-05 0.108055)
(7.53466e-05 -3.09264e-05 0.0963586)
(9.50702e-05 -5.91059e-05 0.107612)
(0.000126219 -7.60186e-06 0.102968)
(0.000104299 -2.11769e-05 0.108127)
(3.03069e-05 -2.08788e-06 0.0963672)
(6.69137e-05 2.54053e-06 0.0946018)
(-2.39087e-06 -4.80147e-06 0.0839458)
(3.66418e-05 -2.34886e-06 0.0839539)
(1.79217e-05 1.85082e-06 0.0945632)
(0.000122402 7.02542e-06 0.102849)
(9.46357e-05 5.87357e-05 0.107666)
(2.77507e-05 1.4019e-06 0.0962013)
(0.000103519 2.08235e-05 0.108268)
(7.25285e-05 2.96094e-05 0.0961895)
(0.000103908 2.09656e-05 0.108198)
(5.86583e-05 5.71958e-06 0.102882)
(6.69134e-05 -2.6693e-06 0.0946016)
(-2.29561e-06 4.85602e-06 0.0839444)
(3.66801e-05 2.30586e-06 0.0839532)
(1.79205e-05 -1.90016e-06 0.0945629)
(0.000122402 -7.14051e-06 0.102848)
(9.46101e-05 -5.88523e-05 0.107666)
(0.000103518 -2.08946e-05 0.108268)
(2.78483e-05 -1.34792e-06 0.0961996)
(0.000103904 -2.1037e-05 0.108197)
(7.2563e-05 -2.9655e-05 0.0961891)
(5.8663e-05 -5.75599e-06 0.102882)
(-2.09128e-05 2.20208e-06 0.0947517)
(1.2176e-06 -5.16874e-06 0.0840832)
(-6.20875e-05 -6.3623e-06 0.103005)
(-9.50182e-05 -5.90684e-05 0.107612)
(-0.000104278 -2.11897e-05 0.108127)
(-3.03144e-05 -2.14138e-06 0.0963692)
(-2.08641e-05 -2.09975e-06 0.0947504)
(1.21137e-06 5.17553e-06 0.0840811)
(-0.000122374 6.97421e-06 0.102849)
(-9.46056e-05 5.86927e-05 0.107666)
(-2.78649e-05 1.41089e-06 0.0962038)
(-0.000103516 2.08065e-05 0.108268)
(-7.24683e-05 2.95858e-05 0.0961894)
(-0.000103909 2.09536e-05 0.108198)
(-5.87268e-05 5.77805e-06 0.102883)
(-6.68782e-05 2.52164e-06 0.094601)
(2.3441e-06 -4.86302e-06 0.0839474)
(-3.6643e-05 -2.29374e-06 0.0839527)
(-1.80136e-05 1.95004e-06 0.0945645)
(-0.000122386 -7.15901e-06 0.102849)
(-9.45428e-05 -5.88168e-05 0.107666)
(-0.000103497 -2.09043e-05 0.108268)
(-2.79498e-05 -1.40319e-06 0.0962016)
(-0.000103881 -2.1047e-05 0.108197)
(-7.24938e-05 -2.96396e-05 0.0961894)
(-5.86601e-05 -5.74148e-06 0.102882)
(-6.6901e-05 -2.67801e-06 0.0946016)
(2.31999e-06 4.85773e-06 0.0839452)
(-3.67223e-05 2.3323e-06 0.0839535)
(-1.79806e-05 -1.82442e-06 0.0945632)
(3.69753e-05 -1.94715e-05 0.0899727)
(1.94946e-05 -3.6916e-05 0.0899748)
(1.40665e-05 -1.40095e-05 0.106681)
(1.565e-05 1.99779e-06 0.089961)
(-1.95876e-06 -1.55991e-05 0.0899652)
(3.46807e-06 -1.63764e-05 0.0725066)
(-5.90157e-06 4.79793e-06 0.0725363)
(-4.99667e-06 5.82284e-06 0.0724442)
(1.59434e-05 -3.49831e-06 0.0724131)
(0.000151027 -0.000151053 0.10655)
(1.43129e-05 2.3118e-06 0.0898084)
(-2.27752e-06 -1.42897e-05 0.0898126)
(3.56029e-05 -1.88737e-05 0.089816)
(1.88696e-05 -3.55415e-05 0.089818)
(-5.80933e-06 5.01421e-06 0.0724452)
(3.49089e-06 -1.59753e-05 0.0724133)
(-6.36168e-06 -6.21191e-05 0.103006)
(-2.12834e-05 -0.000104729 0.108055)
(-3.09474e-05 -7.53209e-05 0.0963593)
(-5.89387e-05 -9.50825e-05 0.107612)
(-7.49688e-06 -0.000126222 0.102967)
(-2.11367e-05 -0.000104305 0.108127)
(-2.15309e-06 -3.01651e-05 0.0963685)
(2.18143e-06 -2.09064e-05 0.0947501)
(-2.65055e-06 -3.82597e-05 0.0840946)
(2.97042e-06 -7.04551e-05 0.0947931)
(-5.0839e-06 1.27556e-06 0.0840813)
(-2.08683e-06 -2.087e-05 0.0947509)
(2.67162e-06 -3.82678e-05 0.0840949)
(-2.79632e-06 -7.04515e-05 0.0947928)
(5.12177e-06 1.25113e-06 0.0840818)
(7.14109e-06 -0.000122441 0.102849)
(5.86436e-05 -9.46053e-05 0.107666)
(2.08309e-05 -0.000103573 0.108268)
(1.45927e-06 -2.77568e-05 0.0962017)
(2.09726e-05 -0.000103982 0.108197)
(2.96727e-05 -7.24959e-05 0.0961905)
(5.74589e-06 -5.8738e-05 0.102882)
(-7.04419e-06 -0.000122405 0.102848)
(-5.86938e-05 -9.4624e-05 0.107666)
(-2.08589e-05 -0.000103534 0.108268)
(-1.42429e-06 -2.77212e-05 0.0962009)
(-2.09958e-05 -0.000103939 0.108197)
(-2.96758e-05 -7.25113e-05 0.0961902)
(-5.74083e-06 -5.8725e-05 0.102883)
(2.70989e-06 -6.69177e-05 0.0946014)
(-4.78247e-06 2.35169e-06 0.0839453)
(-2.26922e-06 -3.66594e-05 0.0839542)
(1.89096e-06 -1.80192e-05 0.094563)
(-2.55792e-06 -6.69082e-05 0.0946011)
(4.78969e-06 2.35117e-06 0.0839461)
(2.2735e-06 -3.66351e-05 0.0839548)
(-1.85167e-06 -1.79859e-05 0.0945639)
(4.77016e-06 5.95485e-06 0.0725364)
(5.90898e-06 4.7884e-06 0.0725361)
(-0.000151085 -0.00015105 0.10655)
(-1.43331e-05 2.36655e-06 0.0898122)
(2.30321e-06 -1.42336e-05 0.0898094)
(-3.56386e-05 -1.88533e-05 0.0898174)
(-1.88786e-05 -3.55618e-05 0.0898166)
(4.99873e-06 5.85229e-06 0.0724453)
(-1.5995e-05 -3.44202e-06 0.0724132)
(5.79283e-06 5.01013e-06 0.0724451)
(-3.52179e-06 -1.59296e-05 0.0724139)
(3.63122e-06 1.56396e-05 0.0723246)
(-5.68522e-06 -5.23377e-06 0.0723585)
(1.55586e-05 3.48435e-06 0.0723237)
(-5.25988e-06 -5.69768e-06 0.0723581)
(1.83216e-05 3.44355e-05 0.0896697)
(3.42747e-05 1.82822e-05 0.0896666)
(1.11453e-05 1.1258e-05 0.106762)
(-2.53343e-06 1.30291e-05 0.0896674)
(1.2992e-05 -2.56322e-06 0.0896655)
(-1.62662e-06 1.52955e-05 0.0943844)
(2.00874e-06 3.52558e-05 0.0838207)
(-2.38596e-06 6.36355e-05 0.0944187)
(4.51917e-06 -3.29846e-06 0.083816)
(5.16176e-06 5.53077e-05 0.102754)
(2.85118e-05 6.99447e-05 0.096026)
(2.07039e-05 0.000103175 0.108337)
(5.80415e-05 9.32547e-05 0.107821)
(6.60446e-06 0.000118595 0.102724)
(7.63589e-07 2.5515e-05 0.0960395)
(2.05621e-05 0.0001028 0.108406)
(-5.13327e-06 5.52968e-05 0.102754)
(-2.84015e-05 6.99158e-05 0.096025)
(-2.07269e-05 0.000103186 0.108337)
(-5.80764e-05 9.32996e-05 0.107821)
(-6.62128e-06 0.000118607 0.102724)
(-7.35267e-07 2.55642e-05 0.0960377)
(-2.05783e-05 0.000102805 0.108405)
(-1.80691e-05 3.43347e-05 0.0896661)
(-3.42841e-05 1.82339e-05 0.0896677)
(-1.11834e-05 1.12508e-05 0.106761)
(2.54719e-06 1.30962e-05 0.089665)
(-1.30933e-05 -2.68796e-06 0.0896691)
(-1.55256e-05 3.44016e-06 0.0723219)
(5.23708e-06 -5.74601e-06 0.072361)
(5.53101e-05 5.12612e-06 0.102755)
(6.98651e-05 2.84596e-05 0.0960255)
(0.000103148 2.06844e-05 0.108337)
(9.32455e-05 5.79344e-05 0.107822)
(0.000118578 6.56663e-06 0.102724)
(2.54464e-05 7.54931e-07 0.0960392)
(0.000102765 2.05365e-05 0.108406)
(1.52597e-05 -1.65054e-06 0.0943842)
(3.52149e-05 1.97837e-06 0.0838202)
(6.36303e-05 -2.40347e-06 0.0944182)
(-3.24635e-06 4.5948e-06 0.0838155)
(5.53197e-05 -5.15825e-06 0.102755)
(0.000103141 -2.07399e-05 0.108337)
(6.99102e-05 -2.84673e-05 0.096025)
(9.32152e-05 -5.80177e-05 0.107821)
(0.000118594 -6.65792e-06 0.102724)
(0.000102764 -2.05974e-05 0.108405)
(2.55531e-05 -6.67816e-07 0.0960373)
(-1.53484e-05 1.72303e-06 0.0943857)
(-3.51693e-05 -1.97758e-06 0.0838197)
(-6.35963e-05 2.28013e-06 0.0944177)
(3.31332e-06 -4.60606e-06 0.0838185)
(-5.53048e-05 -5.13951e-06 0.102754)
(-0.000103116 -2.07542e-05 0.108337)
(-6.98846e-05 -2.84466e-05 0.0960251)
(-9.31048e-05 -5.79788e-05 0.107821)
(-0.000118544 -6.65893e-06 0.102725)
(-0.000102746 -2.06162e-05 0.108405)
(-2.56753e-05 -7.09124e-07 0.0960393)
(-1.53263e-05 -1.57573e-06 0.0943845)
(-3.52554e-05 2.00527e-06 0.0838204)
(-6.36257e-05 -2.42101e-06 0.0944183)
(3.29186e-06 4.59732e-06 0.0838162)
(3.42974e-05 -1.8296e-05 0.0896668)
(1.82735e-05 -3.42642e-05 0.0896689)
(1.11607e-05 -1.11148e-05 0.106761)
(1.30694e-05 2.58386e-06 0.089663)
(-2.5916e-06 -1.30835e-05 0.0896672)
(3.49445e-06 -1.55943e-05 0.0723243)
(-5.73446e-06 5.19963e-06 0.0723582)
(-5.15991e-06 -5.54027e-05 0.102755)
(-2.07118e-05 -0.000103189 0.108337)
(-2.84708e-05 -6.98317e-05 0.0960264)
(-5.78818e-05 -9.32366e-05 0.107821)
(-6.56146e-06 -0.000118595 0.102724)
(-2.05686e-05 -0.000102786 0.108406)
(-7.21975e-07 -2.54094e-05 0.0960388)
(1.61257e-06 -1.53828e-05 0.0943844)
(-1.96741e-06 -3.52217e-05 0.0838212)
(2.43062e-06 -6.36393e-05 0.094418)
(-4.55187e-06 3.29847e-06 0.0838165)
(-1.65614e-06 -1.53377e-05 0.0943852)
(1.93663e-06 -3.51726e-05 0.0838219)
(-2.35151e-06 -6.36255e-05 0.0944177)
(4.52851e-06 3.30004e-06 0.0838172)
(-1.55953e-05 -3.47187e-06 0.0723242)
(5.19989e-06 5.74781e-06 0.0723584)
(-3.54701e-06 -1.55391e-05 0.072325)
(5.69971e-06 5.20483e-06 0.0723582)
(-1.11377e-06 1.333e-05 0.0780382)
(2.68511e-06 6.86578e-05 0.0946969)
(2.5968e-07 -1.02709e-05 0.079912)
(4.20041e-06 1.39395e-05 0.0928156)
(1.22059e-07 8.39683e-06 0.0798524)
(6.42153e-06 5.91518e-05 0.092753)
(2.04963e-07 -6.15651e-06 0.0781086)
(2.33815e-06 -6.69065e-06 0.0694214)
(5.33358e-06 3.9186e-05 0.0880753)
(-5.59111e-06 -6.41269e-07 0.0841522)
(8.81755e-07 1.24602e-05 0.0693269)
(3.70732e-06 3.65462e-06 0.088144)
(-6.84387e-08 -6.2517e-06 0.0781573)
(2.23684e-06 2.24018e-05 0.0948472)
(1.9838e-08 8.17386e-06 0.0799012)
(6.639e-06 6.06756e-05 0.0928431)
(-1.363e-06 1.32497e-05 0.078087)
(1.77598e-07 -1.05007e-05 0.0799604)
(4.38907e-06 1.52186e-05 0.0929053)
(9.11906e-07 1.23439e-05 0.0692836)
(3.66725e-06 2.91602e-06 0.0880647)
(-2.53218e-06 3.74933e-05 0.0840232)
(5.28795e-06 3.82443e-05 0.0879955)
(2.42649e-06 -6.72742e-06 0.0693779)
(6.02554e-06 -4.72067e-06 0.0725838)
(-3.36484e-06 1.61566e-05 0.0724589)
(1.33297e-05 -1.06961e-06 0.0780381)
(6.86561e-05 2.67251e-06 0.0946967)
(1.39172e-05 4.16856e-06 0.0928155)
(-1.0287e-05 2.37768e-07 0.0799119)
(5.91502e-05 6.43168e-06 0.0927529)
(8.38134e-06 1.1666e-07 0.0798521)
(-6.17407e-06 1.46514e-07 0.0781087)
(-6.74582e-06 2.36097e-06 0.0694217)
(3.91735e-05 5.38624e-06 0.0880751)
(-6.46108e-07 -5.35113e-06 0.0841522)
(1.25036e-05 9.16428e-07 0.069327)
(3.57012e-06 3.77044e-06 0.0881438)
(-6.26939e-06 -7.60734e-08 0.0781573)
(2.23785e-05 2.23199e-06 0.094847)
(6.06729e-05 6.63787e-06 0.0928428)
(8.16561e-06 1.93612e-08 0.0799008)
(1.32619e-05 -1.33961e-06 0.0780868)
(1.52142e-05 4.40014e-06 0.0929051)
(-1.05165e-05 1.61891e-07 0.0799603)
(1.23871e-05 9.83234e-07 0.0692838)
(2.84461e-06 3.60345e-06 0.0880645)
(3.74434e-05 -2.66285e-06 0.0840232)
(3.82691e-05 5.24258e-06 0.0879954)
(-6.80283e-06 2.37994e-06 0.0693782)
(-4.64429e-06 5.99547e-06 0.0725824)
(1.61503e-05 -3.48109e-06 0.0724592)
(-2.75688e-05 -2.74902e-05 0.085651)
(-4.23677e-07 6.31596e-06 0.0695839)
(6.24452e-06 -3.634e-07 0.0695772)
(-1.00668e-05 -1.19779e-05 0.0695015)
(-1.20161e-05 -1.00432e-05 0.0694952)
(-8.52644e-06 -8.43398e-06 0.0857043)
(-1.6189e-05 -2.08487e-05 0.0946919)
(-1.63481e-05 1.86821e-06 0.090044)
(-3.28593e-05 -3.544e-05 0.10001)
(-1.24637e-05 7.03232e-06 0.0834764)
(-2.08954e-05 -1.60431e-05 0.094683)
(1.82724e-06 -1.62954e-05 0.0900411)
(-3.53776e-05 -3.2796e-05 0.100006)
(6.96984e-06 -1.23709e-05 0.0834701)
(-9.01653e-06 -8.89782e-06 0.0857768)
(-5.91435e-07 6.3174e-06 0.0696323)
(6.23495e-06 -5.19791e-07 0.0696256)
(-6.92498e-05 -4.42338e-05 0.0945372)
(-1.19916e-05 6.91051e-06 0.0834104)
(-3.63093e-05 -1.91531e-05 0.0898948)
(-3.16747e-05 -3.41723e-05 0.0999314)
(-9.96291e-05 -6.26704e-05 0.099852)
(-3.08068e-05 -5.74013e-06 0.08334)
(-1.53658e-05 -1.9935e-05 0.0946083)
(-4.43127e-05 -6.91474e-05 0.0945293)
(6.85297e-06 -1.18867e-05 0.0834042)
(-1.91888e-05 -3.62438e-05 0.0898939)
(-3.40971e-05 -3.16072e-05 0.0999271)
(-6.26972e-05 -9.95746e-05 0.0998488)
(-5.8052e-06 -3.08005e-05 0.0833356)
(-1.99424e-05 -1.52311e-05 0.0945994)
(-1.97018e-07 1.35724e-05 0.0778567)
(2.27571e-06 6.20971e-05 0.0943302)
(4.65941e-07 -9.14689e-06 0.0797346)
(3.47286e-06 9.4856e-06 0.0924793)
(4.12944e-07 9.43489e-06 0.0796743)
(5.7579e-06 5.37327e-05 0.0924155)
(8.69537e-07 -5.82967e-06 0.0779272)
(2.50988e-06 -7.00424e-06 0.0692536)
(4.97889e-06 3.57592e-05 0.0877691)
(-4.56886e-06 -2.82954e-06 0.0838802)
(1.10656e-06 1.19736e-05 0.0691601)
(3.27616e-06 9.61234e-07 0.0878395)
(7.75388e-07 -5.8976e-06 0.0779706)
(1.79458e-06 1.65893e-05 0.0944729)
(3.68696e-07 9.15322e-06 0.0797165)
(5.91949e-06 5.50052e-05 0.0924965)
(-4.23054e-07 1.35119e-05 0.0779)
(4.66511e-07 -9.44787e-06 0.0797767)
(3.68384e-06 1.05265e-05 0.0925601)
(1.24603e-06 1.19841e-05 0.0691214)
(3.0789e-06 3.88047e-07 0.0877686)
(-1.80066e-06 3.4525e-05 0.0837571)
(4.83931e-06 3.50978e-05 0.087698)
(2.50706e-06 -7.04287e-06 0.0692144)
(5.77881e-06 -5.06318e-06 0.0724011)
(-3.58502e-06 1.55364e-05 0.0722813)
(1.35705e-05 -2.35512e-07 0.0778568)
(6.207e-05 2.22123e-06 0.09433)
(9.46171e-06 3.4411e-06 0.0924794)
(-9.1465e-06 4.49449e-07 0.0797346)
(5.37303e-05 5.71411e-06 0.0924155)
(9.43412e-06 3.70264e-07 0.0796742)
(-5.82896e-06 8.55016e-07 0.0779274)
(-6.97162e-06 2.51889e-06 0.0692542)
(3.57855e-05 4.97664e-06 0.0877693)
(-2.87314e-06 -4.64531e-06 0.0838805)
(1.21038e-05 1.20679e-06 0.0691608)
(9.27632e-07 3.25052e-06 0.0878396)
(-5.9158e-06 7.18313e-07 0.0779709)
(1.65717e-05 1.73887e-06 0.0944728)
(5.50001e-05 5.88205e-06 0.0924966)
(9.15809e-06 3.25289e-07 0.0797164)
(1.35263e-05 -4.00096e-07 0.0779002)
(1.04948e-05 3.61292e-06 0.0925602)
(-9.45397e-06 4.10163e-07 0.0797768)
(1.19977e-05 1.26433e-06 0.0691219)
(3.51048e-07 3.11195e-06 0.0877687)
(3.45133e-05 -1.80761e-06 0.0837572)
(3.50558e-05 4.86203e-06 0.0876981)
(-7.02108e-06 2.53763e-06 0.0692149)
(-5.09494e-06 5.77171e-06 0.0724003)
(1.5366e-05 -3.53193e-06 0.0722814)
(-2.55885e-05 -2.55437e-05 0.0853787)
(2.42946e-07 6.24924e-06 0.069401)
(6.21033e-06 2.7769e-07 0.0693943)
(-9.4572e-06 -1.16929e-05 0.0693189)
(-1.16861e-05 -9.46134e-06 0.0693127)
(-6.78145e-06 -6.71621e-06 0.0854337)
(-1.30063e-05 -1.73872e-05 0.0943687)
(-9.53526e-05 -5.89471e-05 0.099621)
(-2.93949e-05 -5.96324e-06 0.0831506)
(-1.36931e-05 2.51991e-06 0.0897386)
(-6.6111e-05 -4.14724e-05 0.0942971)
(-2.83675e-05 -3.06672e-05 0.0997)
(-1.05543e-05 6.56685e-06 0.0832213)
(-1.73369e-05 -1.28641e-05 0.0943599)
(-5.89477e-05 -9.52613e-05 0.0996182)
(-6.0092e-06 -2.93904e-05 0.0831464)
(2.45031e-06 -1.36086e-05 0.0897359)
(-4.15241e-05 -6.60368e-05 0.0942893)
(-3.05077e-05 -2.82483e-05 0.0996957)
(6.52953e-06 -1.04537e-05 0.0832153)
(-7.18788e-06 -7.1195e-06 0.0854986)
(-9.60807e-06 -1.17593e-05 0.069363)
(-1.1763e-05 -9.60534e-06 0.0693567)
(-2.60586e-05 -2.60094e-05 0.085444)
(8.2166e-08 6.26669e-06 0.0694451)
(6.22409e-06 1.23013e-07 0.0694385)
(-6.51365e-05 -4.06249e-05 0.0942206)
(-1.00872e-05 6.47031e-06 0.0831612)
(-3.37297e-05 -1.79985e-05 0.0895962)
(-2.72974e-05 -2.95396e-05 0.0996244)
(-9.39729e-05 -5.7764e-05 0.0995456)
(-2.89255e-05 -6.02729e-06 0.0830904)
(-1.22397e-05 -1.65627e-05 0.0942924)
(-4.06568e-05 -6.50461e-05 0.0942129)
(6.43513e-06 -9.99185e-06 0.0831552)
(-1.80327e-05 -3.36448e-05 0.0895959)
(-2.93778e-05 -2.71823e-05 0.0996203)
(-5.7757e-05 -9.3885e-05 0.0995428)
(-6.06947e-06 -2.89297e-05 0.0830862)
(-1.6545e-05 -1.21297e-05 0.0942836)
(-6.27791e-06 -4.87982e-06 0.0725837)
(3.40226e-06 1.61291e-05 0.0724594)
(-4.53635e-06 -6.01001e-06 0.0725831)
(1.61188e-05 3.31726e-06 0.0724588)
(2.74403e-05 2.75069e-05 0.0856507)
(-6.26596e-06 4.03769e-07 0.0695845)
(2.99017e-07 -6.18223e-06 0.0695777)
(1.19163e-05 1.00293e-05 0.0695013)
(1.00349e-05 1.19725e-05 0.0694947)
(8.38581e-06 8.49806e-06 0.0857054)
(2.07826e-05 1.60229e-05 0.0946928)
(6.39955e-05 0.000101086 0.0999309)
(5.76517e-06 3.13038e-05 0.0834073)
(-1.98267e-06 1.6178e-05 0.0900448)
(4.5165e-05 7.03141e-05 0.0946212)
(-7.11586e-06 1.23553e-05 0.0834776)
(3.53188e-05 3.27663e-05 0.100011)
(1.60911e-05 2.07281e-05 0.0946847)
(0.000100953 6.39059e-05 0.0999267)
(3.12183e-05 5.58649e-06 0.0834011)
(1.63596e-05 -1.95672e-06 0.0900425)
(7.0137e-05 4.52001e-05 0.0946125)
(1.24235e-05 -7.14795e-06 0.0834717)
(3.27418e-05 3.52914e-05 0.100007)
(8.78803e-06 8.74035e-06 0.0857779)
(1.21584e-05 1.03922e-05 0.0695502)
(1.01186e-05 1.21016e-05 0.0695434)
(2.79166e-05 2.81468e-05 0.0857238)
(-6.38116e-06 3.8442e-07 0.0696333)
(4.22847e-07 -6.55702e-06 0.0696263)
(4.41862e-05 6.9203e-05 0.0945372)
(-6.84918e-06 1.19398e-05 0.0834115)
(1.9114e-05 3.63139e-05 0.0898959)
(3.40917e-05 3.16469e-05 0.0999319)
(5.67565e-06 3.08026e-05 0.0833408)
(1.99428e-05 1.53162e-05 0.0946092)
(6.26483e-05 9.96734e-05 0.0998525)
(6.90761e-05 4.4227e-05 0.0945287)
(1.18372e-05 -6.81553e-06 0.0834058)
(3.61535e-05 1.9084e-05 0.0898932)
(3.15272e-05 3.40613e-05 0.0999286)
(3.07702e-05 5.7739e-06 0.0833351)
(1.51951e-05 1.99213e-05 0.0946011)
(9.94307e-05 6.25788e-05 0.0998484)
(3.56e-06 1.57882e-05 0.0723684)
(-5.99811e-06 -4.97231e-06 0.0724904)
(1.57477e-05 3.45091e-06 0.0723677)
(-4.90866e-06 -5.94405e-06 0.0724897)
(7.98857e-06 7.9993e-06 0.0856351)
(1.19079e-05 9.9614e-06 0.0694542)
(9.89328e-06 1.20014e-05 0.0694475)
(2.69715e-05 2.70843e-05 0.0855799)
(-6.24164e-06 1.98955e-07 0.0695374)
(1.86129e-07 -6.28402e-06 0.0695304)
(4.23988e-05 6.71833e-05 0.0943757)
(3.17553e-05 2.94285e-05 0.0997769)
(1.85833e-05 3.50401e-05 0.0897432)
(-6.63477e-06 1.10321e-05 0.0832841)
(5.93723e-06 2.99006e-05 0.0832135)
(6.01958e-05 9.68357e-05 0.0996981)
(1.82191e-05 1.37703e-05 0.0944477)
(6.70459e-05 4.24287e-05 0.094367)
(2.93549e-05 3.17101e-05 0.0997736)
(3.49121e-05 1.85236e-05 0.0897403)
(1.09447e-05 -6.65121e-06 0.0832785)
(2.98574e-05 5.96378e-06 0.0832075)
(9.66322e-05 6.01367e-05 0.0996937)
(1.36641e-05 1.81721e-05 0.0944396)
(1.90694e-05 1.44929e-05 0.0945275)
(5.86724e-06 3.03615e-05 0.0832764)
(6.14105e-05 9.82352e-05 0.0997749)
(-2.22317e-06 1.48933e-05 0.0898883)
(4.32929e-05 6.82013e-05 0.0944555)
(-6.7096e-06 1.14435e-05 0.0833471)
(3.2895e-05 3.05032e-05 0.099854)
(1.44705e-05 1.9022e-05 0.0945194)
(3.03008e-05 5.88108e-06 0.0832704)
(9.80651e-05 6.13701e-05 0.0997706)
(1.49073e-05 -2.26053e-06 0.0898861)
(6.80381e-05 4.33451e-05 0.0944469)
(1.14307e-05 -6.76936e-06 0.0833414)
(3.04726e-05 3.28721e-05 0.0998507)
(2.65091e-05 2.65715e-05 0.0855111)
(-6.37084e-06 4.6161e-08 0.0694911)
(-7.67016e-09 -6.28753e-06 0.0694842)
(1.18517e-05 9.79245e-06 0.0694083)
(9.78739e-06 1.19009e-05 0.0694014)
(7.50234e-06 7.5687e-06 0.0855666)
(9.14274e-07 1.3337e-05 0.0780376)
(-2.79466e-06 6.86604e-05 0.0946969)
(-3.03439e-07 -1.02719e-05 0.0799119)
(-4.22807e-06 1.39307e-05 0.0928146)
(-2.30183e-07 8.39283e-06 0.0798523)
(-6.53933e-06 5.91654e-05 0.0927533)
(-2.37748e-07 -6.16697e-06 0.0781077)
(-2.4176e-06 -6.72943e-06 0.0694226)
(-5.42592e-06 3.91524e-05 0.088076)
(5.3444e-06 -6.30688e-07 0.0841517)
(-9.39686e-07 1.24515e-05 0.069329)
(-3.84081e-06 3.61706e-06 0.0881432)
(-2.35594e-08 -6.24865e-06 0.0781564)
(-2.29661e-06 2.23986e-05 0.0948469)
(-1.25642e-07 8.17268e-06 0.0799011)
(-6.71992e-06 6.06597e-05 0.0928433)
(-2.43859e-07 -1.05079e-05 0.0799602)
(1.26477e-06 1.32453e-05 0.0780863)
(-4.46061e-06 1.52215e-05 0.0929042)
(-1.08467e-06 1.24521e-05 0.0692856)
(-3.69398e-06 2.90057e-06 0.088064)
(2.48979e-06 3.75008e-05 0.0840227)
(-5.38751e-06 3.83275e-05 0.0879962)
(-2.45918e-06 -6.75807e-06 0.0693792)
(4.10697e-07 -6.07298e-06 0.0780613)
(1.99928e-07 8.63293e-06 0.0798055)
(6.23698e-06 5.7697e-05 0.0926653)
(1.98423e-06 1.93669e-05 0.0946559)
(-8.79985e-07 1.33824e-05 0.0779908)
(3.15044e-07 -1.00113e-05 0.0798653)
(3.98919e-06 1.27067e-05 0.0927283)
(1.02765e-06 1.21323e-05 0.0692007)
(-1.96322e-06 3.58978e-05 0.0838867)
(3.36413e-06 1.31971e-06 0.0879124)
(2.24287e-06 -7.22168e-06 0.069294)
(5.13726e-06 3.64693e-05 0.0878426)
(2.47232e-06 -6.75483e-06 0.0693356)
(5.22487e-06 3.73434e-05 0.0879179)
(-5.00454e-06 -1.83055e-06 0.0840126)
(9.92657e-07 1.21983e-05 0.0692415)
(3.53979e-06 2.2629e-06 0.0879876)
(-7.11352e-07 1.3437e-05 0.0779448)
(2.45514e-06 6.52414e-05 0.0945094)
(3.49729e-07 -9.74715e-06 0.0798203)
(3.75457e-06 1.15319e-05 0.0926431)
(3.60422e-07 -6.05836e-06 0.0780153)
(2.55156e-07 8.90045e-06 0.0797603)
(6.01521e-06 5.62792e-05 0.0925799)
(-4.16543e-07 -6.08385e-06 0.0780604)
(-2.77626e-07 8.63478e-06 0.0798054)
(-6.30238e-06 5.7703e-05 0.0926656)
(-2.01646e-06 1.93681e-05 0.0946556)
(7.53251e-07 1.33909e-05 0.0779902)
(-3.53786e-07 -1.00118e-05 0.0798652)
(-4.01555e-06 1.27083e-05 0.0927272)
(-1.14565e-06 1.2191e-05 0.0692024)
(2.09968e-06 3.59625e-05 0.0838862)
(-3.46799e-06 1.55655e-06 0.0879118)
(-5.13315e-06 3.66052e-05 0.0878433)
(-2.51023e-06 -6.92074e-06 0.0692953)
(-2.47452e-06 -6.84402e-06 0.0693366)
(-5.24278e-06 3.74105e-05 0.0879187)
(4.95007e-06 -1.80749e-06 0.0840118)
(-1.08509e-06 1.22909e-05 0.0692435)
(-3.54283e-06 2.19996e-06 0.0879868)
(5.48443e-07 1.34598e-05 0.0779442)
(-2.51023e-06 6.52495e-05 0.0945093)
(-4.10716e-07 -9.73885e-06 0.0798202)
(-3.83005e-06 1.15691e-05 0.0926422)
(-3.17289e-07 8.90185e-06 0.0797602)
(-6.11551e-06 5.63232e-05 0.0925801)
(-5.94098e-07 -5.99356e-06 0.0780145)
(-2.75513e-05 2.75333e-05 0.085651)
(6.2633e-06 3.2526e-07 0.0695783)
(-4.25409e-07 -6.34216e-06 0.0695838)
(-1.20389e-05 1.00945e-05 0.0694953)
(-1.00337e-05 1.19978e-05 0.0695009)
(-8.51388e-06 8.38647e-06 0.085705)
(-2.08908e-05 1.60834e-05 0.0946839)
(1.82901e-06 1.63069e-05 0.0900422)
(6.96158e-06 1.24232e-05 0.0834715)
(-3.54449e-05 3.28197e-05 0.100006)
(-1.61803e-05 2.08363e-05 0.0946929)
(-1.63815e-05 -1.90591e-06 0.0900459)
(-3.29025e-05 3.53501e-05 0.100011)
(-1.24573e-05 -7.07589e-06 0.0834775)
(-8.99947e-06 8.86043e-06 0.0857775)
(6.23659e-06 4.92902e-07 0.0696267)
(-6.00035e-07 -6.34249e-06 0.0696322)
(-4.43025e-05 6.91658e-05 0.0945285)
(6.83327e-06 1.19797e-05 0.0834057)
(-1.91239e-05 3.62953e-05 0.0898925)
(-3.4194e-05 3.16554e-05 0.0999278)
(-5.79671e-06 3.0817e-05 0.0833346)
(-6.26614e-05 9.95989e-05 0.099848)
(-1.99543e-05 1.52665e-05 0.0946004)
(-6.92144e-05 4.42755e-05 0.0945374)
(-1.1982e-05 -6.95643e-06 0.0834116)
(-3.62525e-05 1.91566e-05 0.0898943)
(-3.17421e-05 3.41005e-05 0.0999327)
(-9.95616e-05 6.26825e-05 0.0998521)
(-3.07561e-05 5.78295e-06 0.0833402)
(-1.53544e-05 1.99219e-05 0.0946093)
(4.63036e-06 -6.00344e-06 0.0725856)
(-1.61549e-05 3.42752e-06 0.0724571)
(-3.44335e-06 1.58023e-05 0.0723682)
(5.8799e-06 -4.9271e-06 0.0724901)
(-8.06127e-06 7.87559e-06 0.0856345)
(-1.19526e-05 9.95713e-06 0.0694481)
(-9.89758e-06 1.19081e-05 0.0694537)
(-2.70449e-05 2.70306e-05 0.0855802)
(6.3018e-06 1.12736e-07 0.0695311)
(-2.75617e-07 -6.35465e-06 0.0695365)
(-4.24112e-05 6.70543e-05 0.0943666)
(-3.1738e-05 2.94083e-05 0.0997728)
(-1.84984e-05 3.50108e-05 0.0897398)
(6.75023e-06 1.10314e-05 0.0832786)
(-6.01134e-05 9.6739e-05 0.0996933)
(-5.90348e-06 2.98848e-05 0.0832067)
(-1.81478e-05 1.36366e-05 0.0944389)
(-6.7102e-05 4.23726e-05 0.0943757)
(-2.94781e-05 3.16814e-05 0.0997778)
(-3.49066e-05 1.85245e-05 0.0897414)
(-1.10217e-05 -6.76107e-06 0.0832841)
(-2.98356e-05 5.90956e-06 0.0832126)
(-9.67026e-05 6.016e-05 0.0996975)
(-1.37659e-05 1.8143e-05 0.0944477)
(-1.9047e-05 1.44469e-05 0.0945187)
(-5.86182e-06 3.03497e-05 0.0832699)
(-6.13895e-05 9.81623e-05 0.0997703)
(2.18651e-06 1.49768e-05 0.0898856)
(-3.29612e-05 3.05301e-05 0.0998499)
(-4.33511e-05 6.811e-05 0.0944466)
(6.78827e-06 1.14896e-05 0.0833414)
(-1.45582e-05 1.90149e-05 0.0945275)
(-3.02997e-05 5.8585e-06 0.0832756)
(-9.81299e-05 6.14178e-05 0.0997744)
(-1.49902e-05 -2.2519e-06 0.0898899)