/*--------------------------------*- C++ -*----------------------------------*\
| =========                 |                                                 |
| \\      /  F ield         | OpenFOAM: The Open Source CFD Toolbox           |
|  \\    /   O peration     | Version:  2312                                  |
|   \\  /    A nd           | Website:  www.openfoam.com                      |
|    \\/     M anipulation  |                                                 |
\*---------------------------------------------------------------------------*/
FoamFile
{
    version     2.0;
    format      ascii;
    arch        "LSB;label=32;scalar=64";
    class       volScalarField;
    location    "300";
    object      epsilon;
}
// * * * * * * * * * * * * * * * * * * * * * * * * * * * * * * * * * * * * * //

dimensions      [0 2 -3 0 0 0 0];

internalField   nonuniform List<scalar> 
42840
(
1.31329e-07
2.40757e-07
2.40777e-07
3.83342e-07
1.29949e-07
2.53405e-07
2.53425e-07
4.12771e-07
1.29349e-07
2.68082e-07
2.68107e-07
4.44261e-07
1.29535e-07
2.84728e-07
2.84757e-07
4.78319e-07
1.30477e-07
3.03251e-07
3.03284e-07
5.12983e-07
1.32181e-07
3.23544e-07
3.23581e-07
5.49567e-07
1.34645e-07
3.45488e-07
3.4553e-07
5.86903e-07
1.3787e-07
3.68949e-07
3.68995e-07
6.24232e-07
1.41856e-07
3.93779e-07
3.93834e-07
6.61639e-07
1.46611e-07
4.19826e-07
4.19879e-07
6.98704e-07
1.52137e-07
4.46915e-07
4.46975e-07
7.35134e-07
1.58442e-07
4.74884e-07
4.74951e-07
7.70901e-07
1.65529e-07
5.03561e-07
5.0364e-07
8.05752e-07
1.734e-07
5.32777e-07
5.32868e-07
8.39472e-07
1.82055e-07
5.6236e-07
5.6246e-07
8.72068e-07
1.91492e-07
5.92132e-07
5.92238e-07
9.03463e-07
2.01702e-07
6.21922e-07
6.22042e-07
9.33752e-07
2.1267e-07
6.51576e-07
6.51702e-07
9.62713e-07
2.24375e-07
6.8094e-07
6.81065e-07
9.90508e-07
2.3679e-07
7.09884e-07
7.10007e-07
1.01714e-06
2.49881e-07
7.38293e-07
7.3841e-07
1.04264e-06
2.63607e-07
7.66058e-07
7.66178e-07
1.06702e-06
2.77919e-07
7.93081e-07
7.93202e-07
1.09031e-06
2.9276e-07
8.19282e-07
8.19405e-07
1.11256e-06
3.08068e-07
8.44605e-07
8.44736e-07
1.13392e-06
3.8349e-07
4.05956e-07
2.40841e-07
2.40876e-07
2.50135e-07
2.50173e-07
3.83459e-07
4.05996e-07
2.40786e-07
2.4087e-07
2.50076e-07
2.50168e-07
2.40838e-07
2.50049e-07
2.50136e-07
3.83481e-07
4.05834e-07
2.40818e-07
2.5007e-07
2.50118e-07
4.05186e-07
4.12065e-07
4.36807e-07
2.53498e-07
2.53533e-07
2.64321e-07
2.64355e-07
4.12037e-07
4.3679e-07
2.53438e-07
2.53528e-07
2.64256e-07
2.64356e-07
2.53495e-07
2.64224e-07
2.64321e-07
4.11868e-07
4.36956e-07
2.53474e-07
2.64247e-07
2.64304e-07
4.36328e-07
4.43741e-07
4.70053e-07
2.68189e-07
2.68219e-07
2.8049e-07
2.80525e-07
4.43696e-07
4.7011e-07
2.68121e-07
2.68217e-07
2.80417e-07
2.80527e-07
2.68183e-07
2.80384e-07
2.80487e-07
4.43675e-07
4.70067e-07
2.68161e-07
2.80411e-07
2.80468e-07
4.68993e-07
4.77041e-07
5.04943e-07
2.84841e-07
2.84873e-07
2.98564e-07
2.98598e-07
4.77202e-07
5.05164e-07
2.84763e-07
2.84875e-07
2.98476e-07
2.98601e-07
2.84835e-07
2.98445e-07
2.98557e-07
4.77274e-07
5.04843e-07
2.84811e-07
2.98477e-07
2.98532e-07
5.03944e-07
5.12274e-07
5.40283e-07
3.03369e-07
3.03406e-07
3.1843e-07
3.1847e-07
5.12308e-07
5.4121e-07
3.03283e-07
3.03413e-07
3.18335e-07
3.18482e-07
3.0336e-07
3.18306e-07
3.18418e-07
5.12547e-07
5.40979e-07
3.03337e-07
3.1834e-07
3.18397e-07
5.39918e-07
5.49212e-07
5.77547e-07
3.23672e-07
3.23712e-07
3.39985e-07
3.40027e-07
5.48823e-07
5.77866e-07
3.23579e-07
3.23727e-07
3.39885e-07
3.40048e-07
3.23661e-07
3.39848e-07
3.39969e-07
5.48939e-07
5.78006e-07
3.23635e-07
3.39888e-07
3.39946e-07
5.768e-07
5.86621e-07
6.14598e-07
3.45628e-07
3.45669e-07
3.6309e-07
3.63136e-07
5.85735e-07
6.15384e-07
3.4553e-07
3.45696e-07
3.62981e-07
3.63166e-07
3.45616e-07
3.62943e-07
3.63078e-07
5.86064e-07
6.15483e-07
3.45585e-07
3.62986e-07
3.63046e-07
6.14849e-07
6.24178e-07
6.52208e-07
3.69098e-07
3.69142e-07
3.87604e-07
3.87648e-07
6.23782e-07
6.52933e-07
3.68992e-07
3.69178e-07
3.87488e-07
3.87695e-07
3.6909e-07
3.87442e-07
3.87602e-07
6.23651e-07
6.53138e-07
3.6905e-07
3.87496e-07
3.87555e-07
6.53099e-07
6.61727e-07
6.89263e-07
3.93936e-07
3.93985e-07
4.13367e-07
4.13416e-07
6.61353e-07
6.90233e-07
3.93828e-07
3.9403e-07
4.1324e-07
4.13465e-07
3.93942e-07
4.13202e-07
4.13376e-07
6.61498e-07
6.90309e-07
3.9389e-07
4.13256e-07
4.13325e-07
6.90366e-07
6.99206e-07
7.25689e-07
4.1999e-07
4.20038e-07
4.40225e-07
4.40265e-07
6.98717e-07
7.27147e-07
4.19869e-07
4.20086e-07
4.40089e-07
4.40324e-07
4.20005e-07
4.40042e-07
4.40251e-07
6.98566e-07
7.26889e-07
4.19945e-07
4.40102e-07
4.4018e-07
7.2745e-07
7.36446e-07
7.6178e-07
4.47093e-07
4.47135e-07
4.68006e-07
4.68037e-07
7.35052e-07
7.62455e-07
4.46966e-07
4.47192e-07
4.67865e-07
4.681e-07
4.47126e-07
4.67806e-07
4.68042e-07
7.35475e-07
7.63226e-07
4.47046e-07
4.67869e-07
4.67957e-07
7.63464e-07
7.72525e-07
7.96826e-07
4.7508e-07
4.75109e-07
4.96537e-07
4.96562e-07
7.70952e-07
7.96453e-07
4.74945e-07
4.7517e-07
4.96387e-07
4.9663e-07
4.75125e-07
4.96321e-07
4.96587e-07
7.70935e-07
7.9843e-07
4.75028e-07
4.96393e-07
4.96491e-07
7.98477e-07
8.07424e-07
8.3076e-07
5.03773e-07
5.03791e-07
5.25647e-07
5.25662e-07
8.07072e-07
8.30657e-07
5.03626e-07
5.03859e-07
5.25481e-07
5.25741e-07
5.03824e-07
5.25417e-07
5.25701e-07
8.05748e-07
8.32485e-07
5.03721e-07
5.25507e-07
5.2559e-07
8.32389e-07
8.41187e-07
8.63528e-07
5.32997e-07
5.33007e-07
5.55152e-07
5.55169e-07
8.411e-07
8.63519e-07
5.32837e-07
5.33081e-07
5.54975e-07
5.55251e-07
5.33056e-07
5.54925e-07
5.55215e-07
8.3961e-07
8.65308e-07
5.32936e-07
5.55022e-07
5.55091e-07
8.65167e-07
8.73792e-07
8.95098e-07
5.62576e-07
5.62588e-07
5.84886e-07
5.84907e-07
8.73773e-07
8.95132e-07
5.62406e-07
5.62661e-07
5.84705e-07
5.84984e-07
5.62644e-07
5.84664e-07
5.84957e-07
8.72238e-07
8.96982e-07
5.62512e-07
5.84771e-07
5.8482e-07
8.9671e-07
9.05119e-07
9.25486e-07
5.92343e-07
5.92356e-07
6.14682e-07
6.14706e-07
9.05189e-07
9.25545e-07
5.92167e-07
5.92424e-07
6.14495e-07
6.1478e-07
5.92414e-07
6.14464e-07
6.14758e-07
9.03723e-07
9.27376e-07
5.92269e-07
6.14584e-07
6.14613e-07
9.27165e-07
9.3531e-07
9.54773e-07
6.22127e-07
6.22145e-07
6.44383e-07
6.44406e-07
9.35397e-07
9.54763e-07
6.21945e-07
6.22211e-07
6.44189e-07
6.44474e-07
6.22207e-07
6.44166e-07
6.44459e-07
9.33943e-07
9.56565e-07
6.22056e-07
6.44293e-07
6.4431e-07
9.56299e-07
9.64356e-07
9.82784e-07
6.51781e-07
6.51792e-07
6.73835e-07
6.73844e-07
9.64353e-07
9.82756e-07
6.51592e-07
6.5186e-07
6.73637e-07
6.73912e-07
6.51858e-07
6.73615e-07
6.73911e-07
9.62943e-07
9.84459e-07
6.51702e-07
6.73742e-07
6.73751e-07
9.8431e-07
9.92073e-07
1.0096e-06
6.81152e-07
6.8115e-07
7.02895e-07
7.02893e-07
9.92074e-07
1.00956e-06
6.80955e-07
6.81214e-07
7.02694e-07
7.02965e-07
6.81224e-07
7.02676e-07
7.02975e-07
9.90667e-07
1.01126e-06
6.81059e-07
7.02803e-07
7.02806e-07
1.01113e-06
1.01862e-06
1.03528e-06
7.10092e-07
7.1008e-07
7.31442e-07
7.31435e-07
1.01861e-06
1.03526e-06
7.09894e-07
7.10153e-07
7.31242e-07
7.31506e-07
7.10175e-07
7.31231e-07
7.31533e-07
1.01726e-06
1.03689e-06
7.09997e-07
7.31353e-07
7.31349e-07
1.03682e-06
1.04406e-06
1.06063e-06
7.38494e-07
7.38478e-07
7.59363e-07
7.59357e-07
1.04408e-06
1.0599e-06
7.38294e-07
7.38549e-07
7.59164e-07
7.59427e-07
7.38587e-07
7.59167e-07
7.59468e-07
1.0427e-06
1.06148e-06
7.38396e-07
7.59291e-07
7.59277e-07
1.06139e-06
1.06736e-06
1.08409e-06
7.66244e-07
7.6623e-07
7.86565e-07
7.86558e-07
1.06845e-06
1.08405e-06
7.66042e-07
7.66305e-07
7.86362e-07
7.86634e-07
7.6635e-07
7.86385e-07
7.86679e-07
1.06708e-06
1.08431e-06
7.66153e-07
7.86509e-07
7.86486e-07
1.08485e-06
1.09034e-06
1.10654e-06
7.93251e-07
7.93239e-07
8.12967e-07
8.12955e-07
1.09064e-06
1.1065e-06
7.93048e-07
7.93313e-07
8.1276e-07
8.1303e-07
7.93368e-07
8.12796e-07
8.13087e-07
1.09046e-06
1.10659e-06
7.9317e-07
8.12922e-07
8.12895e-07
1.10733e-06
1.11256e-06
1.12801e-06
8.19447e-07
8.19425e-07
8.38503e-07
8.38485e-07
1.1127e-06
1.12796e-06
8.1924e-07
8.195e-07
8.38297e-07
8.38566e-07
8.19566e-07
8.38342e-07
8.38627e-07
1.11273e-06
1.12802e-06
8.19369e-07
8.38471e-07
8.38438e-07
1.12831e-06
1.13378e-06
8.44762e-07
8.44731e-07
1.13395e-06
8.44553e-07
8.44817e-07
8.44879e-07
1.13408e-06
8.44687e-07
3.75833e-06
8.92059e-06
8.92548e-06
3.73555e-06
1.84405e-05
1.84333e-05
3.75818e-06
8.92194e-06
8.92685e-06
3.73573e-06
1.31333e-07
1.31336e-07
1.31338e-07
1.30229e-07
1.30233e-07
1.30236e-07
1.3024e-07
1.24143e-06
2.8694e-06
1.59583e-07
2.43732e-07
2.88875e-06
1.60135e-07
1.21468e-06
1.84411e-05
1.84339e-05
1.24192e-06
1.59611e-07
2.86812e-06
2.4375e-07
1.60139e-07
2.89029e-06
1.2144e-06
5.17009e-06
5.17306e-06
3.91789e-07
5.17996e-06
5.18061e-06
3.81803e-06
8.93076e-06
3.80071e-06
8.93447e-06
1.84138e-05
1.84074e-05
3.81813e-06
8.93187e-06
3.80091e-06
8.93602e-06
1.29953e-07
1.29956e-07
1.2996e-07
1.29442e-07
1.29445e-07
1.29448e-07
1.29454e-07
1.32197e-06
2.93118e-06
1.62236e-07
2.56888e-07
1.29667e-06
2.94804e-06
1.63125e-07
1.84145e-05
1.8408e-05
1.32263e-06
1.6227e-07
2.92994e-06
2.56909e-07
1.29642e-06
1.63131e-07
2.94943e-06
5.19869e-06
5.20143e-06
4.20384e-07
5.20641e-06
5.20781e-06
3.86455e-06
8.93941e-06
3.85044e-06
8.94266e-06
1.83895e-05
1.83838e-05
3.86401e-06
8.94087e-06
3.85106e-06
8.94406e-06
1.29353e-07
1.29356e-07
1.29362e-07
1.29417e-07
1.29421e-07
1.29424e-07
1.29433e-07
1.39845e-06
2.9856e-06
1.66234e-07
2.72062e-07
1.37397e-06
3.00021e-06
1.67464e-07
1.83902e-05
1.83846e-05
1.39892e-06
1.66271e-07
2.98445e-06
2.72089e-07
1.37396e-06
1.67473e-07
3.00158e-06
5.22251e-06
5.22499e-06
4.52446e-07
5.22884e-06
5.22994e-06
3.89934e-06
8.94691e-06
3.88853e-06
8.94976e-06
1.83675e-05
1.83625e-05
3.89884e-06
8.9484e-06
3.88924e-06
8.95123e-06
1.29539e-07
1.29542e-07
1.29548e-07
1.30166e-07
1.30169e-07
1.30173e-07
1.30181e-07
1.46886e-06
3.03351e-06
1.71592e-07
2.89185e-07
1.44654e-06
3.04617e-06
1.73163e-07
1.83683e-05
1.83634e-05
1.46925e-06
1.71638e-07
3.03239e-06
2.89214e-07
1.44653e-06
1.7318e-07
3.0475e-06
5.24243e-06
5.24442e-06
4.86435e-07
5.24784e-06
5.24882e-06
3.92575e-06
8.9534e-06
3.91748e-06
8.95598e-06
1.83476e-05
1.83433e-05
3.92528e-06
8.95485e-06
3.91818e-06
8.95751e-06
1.30481e-07
1.30486e-07
1.30492e-07
1.31678e-07
1.31682e-07
1.31688e-07
1.31695e-07
1.53333e-06
3.07582e-06
1.78317e-07
3.08159e-07
1.51296e-06
3.08681e-06
1.80231e-07
1.83485e-05
1.83443e-05
1.53356e-06
1.78374e-07
3.0747e-06
3.08192e-07
1.51296e-06
1.80257e-07
3.08802e-06
5.25943e-06
5.26139e-06
5.21879e-07
5.26395e-06
5.2654e-06
3.94593e-06
8.95918e-06
3.93956e-06
8.96179e-06
1.83298e-05
1.83263e-05
3.94545e-06
8.96067e-06
3.94023e-06
8.96313e-06
1.32185e-07
1.32192e-07
1.32197e-07
1.33951e-07
1.33955e-07
1.33964e-07
1.33969e-07
1.5913e-06
3.11303e-06
1.86415e-07
3.28877e-07
1.57337e-06
3.12372e-06
1.88671e-07
1.83308e-05
1.83274e-05
1.5916e-06
1.86479e-07
3.11215e-06
3.28914e-07
1.57349e-06
1.88701e-07
3.12393e-06
5.27408e-06
5.276e-06
5.58327e-07
5.2779e-06
5.27946e-06
3.96141e-06
8.96465e-06
3.95662e-06
8.9672e-06
1.83142e-05
1.83116e-05
3.96107e-06
8.96614e-06
3.95723e-06
8.96851e-06
1.34649e-07
1.34658e-07
1.34662e-07
1.36983e-07
1.36988e-07
1.36999e-07
1.37003e-07
1.64371e-06
3.14547e-06
1.9587e-07
3.51211e-07
1.62759e-06
3.15591e-06
1.98467e-07
1.83153e-05
1.83126e-05
1.64387e-06
1.95944e-07
3.14544e-06
3.51255e-07
1.62769e-06
1.98504e-07
3.15592e-06
5.28685e-06
5.28862e-06
5.9591e-07
5.29014e-06
5.29182e-06
3.97374e-06
8.96999e-06
3.96995e-06
8.97267e-06
1.83009e-05
1.82991e-05
3.97348e-06
8.97147e-06
3.97055e-06
8.97389e-06
1.37874e-07
1.37887e-07
1.37889e-07
1.40779e-07
1.40783e-07
1.40798e-07
1.40801e-07
1.69049e-06
3.17528e-06
2.06666e-07
3.75027e-07
1.67616e-06
3.18466e-06
2.09595e-07
1.83019e-05
1.83e-05
1.69065e-06
2.06749e-07
3.17586e-06
3.75079e-07
1.67624e-06
2.09639e-07
3.18366e-06
5.29825e-06
5.29998e-06
6.33319e-07
5.30114e-06
5.3028e-06
3.98374e-06
8.97545e-06
3.98087e-06
8.97811e-06
1.829e-05
1.8289e-05
3.98378e-06
8.97683e-06
3.981e-06
8.97943e-06
1.41861e-07
1.41877e-07
1.41878e-07
1.45339e-07
1.45344e-07
1.45362e-07
1.45366e-07
1.73266e-06
3.20219e-06
2.18781e-07
4.0018e-07
1.71932e-06
3.21069e-06
2.22035e-07
1.82909e-05
1.82898e-05
1.73252e-06
2.18869e-07
3.20307e-06
4.00233e-07
1.71959e-06
2.22082e-07
3.20978e-06
5.30864e-06
5.31035e-06
6.71739e-07
5.31125e-06
5.31294e-06
3.9921e-06
8.98136e-06
3.98974e-06
8.98387e-06
1.82814e-05
1.82813e-05
3.99215e-06
8.98242e-06
3.98984e-06
8.9854e-06
1.46616e-07
1.46634e-07
1.46637e-07
1.50671e-07
1.50675e-07
1.50697e-07
1.50703e-07
1.77005e-06
3.2267e-06
2.32181e-07
4.26498e-07
1.75831e-06
3.23444e-06
2.35747e-07
1.82822e-05
1.82821e-05
1.77003e-06
2.3227e-07
3.22758e-06
4.26555e-07
1.75848e-06
2.35795e-07
3.2336e-06
5.31834e-06
5.32004e-06
7.09071e-07
5.32079e-06
5.32246e-06
3.99936e-06
8.98755e-06
3.99741e-06
8.99027e-06
1.82752e-05
1.82759e-05
3.99939e-06
8.98858e-06
3.99744e-06
8.99185e-06
1.52142e-07
1.52163e-07
1.52168e-07
1.56779e-07
1.56783e-07
1.56807e-07
1.56817e-07
1.80392e-06
3.24936e-06
2.46815e-07
4.53821e-07
1.79328e-06
3.2561e-06
2.50688e-07
1.8276e-05
1.82767e-05
1.80393e-06
2.46909e-07
3.25006e-06
4.53882e-07
1.79348e-06
2.50735e-07
3.25553e-06
5.32756e-06
5.32927e-06
7.45544e-07
5.32989e-06
5.3316e-06
4.00579e-06
8.99397e-06
4.00411e-06
8.99745e-06
1.82714e-05
1.8273e-05
4.00582e-06
8.99539e-06
4.00413e-06
8.99886e-06
1.58446e-07
1.5847e-07
1.58478e-07
1.63668e-07
1.63672e-07
1.637e-07
1.63714e-07
1.8347e-06
3.27032e-06
2.62635e-07
4.81981e-07
1.82505e-06
3.27607e-06
2.66797e-07
1.82722e-05
1.82738e-05
1.83467e-06
2.62736e-07
3.27099e-06
4.82047e-07
1.82517e-06
2.66849e-07
3.2758e-06
5.33654e-06
5.33822e-06
7.81045e-07
5.3388e-06
5.3405e-06
4.01168e-06
9.0014e-06
4.01015e-06
9.00515e-06
1.82699e-05
1.82724e-05
4.01176e-06
9.00277e-06
4.0102e-06
9.0065e-06
1.6553e-07
1.65558e-07
1.65571e-07
1.71342e-07
1.71344e-07
1.71379e-07
1.71395e-07
1.86292e-06
3.29002e-06
2.79581e-07
5.10803e-07
1.85392e-06
3.29533e-06
2.84015e-07
1.82708e-05
1.82732e-05
1.86281e-06
2.79687e-07
3.29001e-06
5.10887e-07
1.85413e-06
2.84071e-07
3.29499e-06
5.34536e-06
5.34702e-06
8.155e-07
5.34763e-06
5.34932e-06
4.0173e-06
9.0095e-06
4.01589e-06
9.01334e-06
1.82708e-05
1.82741e-05
4.01739e-06
9.01084e-06
4.01588e-06
9.01487e-06
1.73398e-07
1.73432e-07
1.73448e-07
1.798e-07
1.79802e-07
1.79844e-07
1.79861e-07
1.88891e-06
3.30863e-06
2.97587e-07
5.40126e-07
1.88059e-06
3.31342e-06
3.02275e-07
1.82716e-05
1.82749e-05
1.88884e-06
2.97701e-07
3.30854e-06
5.40223e-07
1.88075e-06
3.02337e-07
3.31328e-06
5.35414e-06
5.35578e-06
8.48859e-07
5.35645e-06
5.35812e-06
4.02281e-06
9.01861e-06
4.0214e-06
9.02242e-06
1.8274e-05
1.82781e-05
4.02284e-06
9.01967e-06
4.02142e-06
9.02402e-06
1.82052e-07
1.82093e-07
1.82109e-07
1.8904e-07
1.89043e-07
1.89092e-07
1.89108e-07
1.91304e-06
3.32609e-06
3.16582e-07
5.69774e-07
1.90546e-06
3.33062e-06
3.21504e-07
1.82748e-05
1.82788e-05
1.91308e-06
3.16695e-07
3.32613e-06
5.69876e-07
1.90556e-06
3.21565e-07
3.33108e-06
5.36295e-06
5.3646e-06
8.80987e-07
5.36533e-06
5.36695e-06
4.02837e-06
9.02825e-06
4.02697e-06
9.03239e-06
1.82794e-05
1.82843e-05
4.02843e-06
9.02931e-06
4.02698e-06
9.03397e-06
1.91488e-07
1.91535e-07
1.91549e-07
1.99056e-07
1.9906e-07
1.99114e-07
1.99129e-07
1.93588e-06
3.34236e-06
3.36475e-07
5.99564e-07
1.92868e-06
3.34735e-06
3.4161e-07
1.82801e-05
1.82848e-05
1.93583e-06
3.36597e-07
3.34221e-06
5.99676e-07
1.92877e-06
3.4168e-07
3.34733e-06
5.37181e-06
5.37349e-06
9.12055e-07
5.37424e-06
5.37589e-06
4.03417e-06
9.03869e-06
4.03266e-06
9.04314e-06
1.82869e-05
1.82925e-05
4.03425e-06
9.03974e-06
4.03259e-06
9.04473e-06
2.01696e-07
2.01749e-07
2.01762e-07
2.09834e-07
2.09839e-07
2.09898e-07
2.09913e-07
1.95741e-06
3.35818e-06
3.57185e-07
6.29334e-07
1.95059e-06
3.36269e-06
3.62512e-07
1.82875e-05
1.8293e-05
1.95739e-06
3.57317e-07
3.35823e-06
6.29459e-07
1.95068e-06
3.62593e-07
3.36289e-06
5.38078e-06
5.38244e-06
9.41878e-07
5.38329e-06
5.38495e-06
4.04012e-06
9.04989e-06
4.03854e-06
9.05483e-06
1.82963e-05
1.83026e-05
4.04011e-06
9.05097e-06
4.03856e-06
9.05627e-06
2.12662e-07
2.12721e-07
2.12733e-07
2.21356e-07
2.2136e-07
2.21423e-07
2.2144e-07
1.97791e-06
3.37375e-06
3.78625e-07
6.58927e-07
1.9714e-06
3.3775e-06
3.84123e-07
1.82969e-05
1.83031e-05
1.97787e-06
3.78764e-07
3.37351e-06
6.5906e-07
1.97146e-06
3.84209e-07
3.37756e-06
5.38984e-06
5.39151e-06
9.70408e-07
5.3924e-06
5.39405e-06
4.04659e-06
9.06166e-06
4.04468e-06
9.06726e-06
1.83074e-05
1.83143e-05
4.0464e-06
9.06321e-06
4.04481e-06
9.06829e-06
2.24365e-07
2.24428e-07
2.24441e-07
2.33597e-07
2.33599e-07
2.33666e-07
2.33685e-07
1.9975e-06
3.38859e-06
4.00704e-07
6.88198e-07
1.9913e-06
3.39213e-06
4.06345e-07
1.83082e-05
1.83151e-05
1.99747e-06
4.00846e-07
3.38842e-06
6.88328e-07
1.99133e-06
4.06434e-07
3.39201e-06
5.39901e-06
5.40069e-06
9.97819e-07
5.4016e-06
5.40322e-06
4.05319e-06
9.07438e-06
4.05107e-06
9.08024e-06
1.83203e-05
1.83279e-05
4.05307e-06
9.07592e-06
4.05133e-06
9.08128e-06
2.36777e-07
2.36846e-07
2.3686e-07
2.46523e-07
2.46525e-07
2.46596e-07
2.46617e-07
2.01627e-06
3.40243e-06
4.23318e-07
7.17021e-07
2.01035e-06
3.40659e-06
4.29076e-07
1.83213e-05
1.83287e-05
2.01628e-06
4.23463e-07
3.40266e-06
7.17148e-07
2.01037e-06
4.29166e-07
3.40606e-06
5.40823e-06
5.40996e-06
1.02405e-06
5.41091e-06
5.41244e-06
4.06012e-06
9.08785e-06
4.05794e-06
9.09368e-06
1.8335e-05
1.83431e-05
4.05999e-06
9.0893e-06
4.05814e-06
9.09491e-06
2.49867e-07
2.4994e-07
2.49956e-07
2.60095e-07
2.60098e-07
2.60173e-07
2.60197e-07
2.03434e-06
3.41598e-06
4.46356e-07
7.45279e-07
2.02862e-06
3.42007e-06
4.52205e-07
1.8336e-05
1.8344e-05
2.03436e-06
4.46507e-07
3.41582e-06
7.45405e-07
2.02868e-06
4.52302e-07
3.42022e-06
5.41751e-06
5.4193e-06
1.0492e-06
5.42027e-06
5.42173e-06
4.06707e-06
9.10203e-06
4.06515e-06
9.1079e-06
1.83511e-05
1.83597e-05
4.06719e-06
9.10329e-06
4.0653e-06
9.10913e-06
2.63594e-07
2.63671e-07
2.63689e-07
2.74266e-07
2.74272e-07
2.74351e-07
2.74377e-07
2.05165e-06
3.42912e-06
4.69719e-07
7.72869e-07
2.04618e-06
3.43306e-06
4.75631e-07
1.83522e-05
1.83607e-05
2.05175e-06
4.69873e-07
3.42912e-06
7.72997e-07
2.04627e-06
4.75734e-07
3.43315e-06
5.42686e-06
5.42869e-06
1.07322e-06
5.42965e-06
5.43095e-06
4.07458e-06
9.11657e-06
4.07267e-06
9.12266e-06
1.83686e-05
1.83777e-05
4.07461e-06
9.1178e-06
4.07267e-06
9.12391e-06
2.77908e-07
2.77988e-07
2.78008e-07
2.88982e-07
2.88992e-07
2.89073e-07
2.89102e-07
2.06831e-06
3.44179e-06
4.93294e-07
7.99696e-07
2.06309e-06
3.44547e-06
4.99244e-07
1.83697e-05
1.83788e-05
2.0684e-06
4.93453e-07
3.44184e-06
7.9982e-07
2.06317e-06
4.99349e-07
3.44559e-06
5.43618e-06
5.43809e-06
1.09618e-06
5.43898e-06
5.44048e-06
4.08212e-06
9.13161e-06
4.08024e-06
9.13788e-06
1.83874e-05
1.8397e-05
4.08217e-06
9.13256e-06
4.08013e-06
9.1393e-06
2.92752e-07
2.92836e-07
2.92858e-07
3.04181e-07
3.04194e-07
3.04278e-07
3.04308e-07
2.08433e-06
3.45401e-06
5.16972e-07
8.25682e-07
2.07929e-06
3.4577e-06
5.22932e-07
1.83886e-05
1.83982e-05
2.08439e-06
5.17134e-07
3.45407e-06
8.25808e-07
2.07939e-06
5.23038e-07
3.45768e-06
5.44564e-06
5.44743e-06
1.11781e-06
5.44814e-06
5.44985e-06
4.08976e-06
9.14709e-06
4.08786e-06
9.15355e-06
1.84074e-05
1.84176e-05
4.08993e-06
9.14806e-06
4.08794e-06
9.15498e-06
3.08062e-07
3.08149e-07
3.08171e-07
2.09965e-06
3.46589e-06
5.40643e-07
8.50774e-07
2.0948e-06
3.46931e-06
5.46579e-07
1.84088e-05
1.84189e-05
2.09968e-06
5.40806e-07
3.46629e-06
8.50908e-07
2.09492e-06
5.4669e-07
3.46925e-06
5.45513e-06
5.45683e-06
1.13855e-06
5.45751e-06
5.4592e-06
1.84377e-05
1.84305e-05
1.84408e-05
1.84336e-05
5.16995e-06
5.17198e-06
3.91447e-07
5.17979e-06
5.18206e-06
1.84172e-05
1.84241e-05
1.84204e-05
1.84272e-05
3.97216e-07
5.19374e-06
5.19596e-06
5.18456e-06
5.18687e-06
3.75885e-06
8.92121e-06
8.92541e-06
3.7351e-06
1.24134e-06
2.86809e-06
1.59605e-07
2.43812e-07
2.89012e-06
1.60141e-07
1.21458e-06
1.24145e-06
2.86979e-06
1.59612e-07
2.4385e-07
2.88937e-06
1.60148e-07
1.21468e-06
3.77018e-06
8.93019e-06
8.92572e-06
3.79e-06
3.76969e-06
8.93028e-06
8.92636e-06
3.78976e-06
1.25605e-06
2.46913e-07
2.92055e-06
1.6147e-07
2.90004e-06
1.60768e-07
1.28229e-06
1.25596e-06
2.46948e-07
2.91989e-06
1.61477e-07
2.90175e-06
1.60776e-07
1.28235e-06
5.17176e-06
5.17163e-06
3.91365e-07
5.18155e-06
5.17959e-06
1.84383e-05
1.84311e-05
1.842e-05
1.84269e-05
3.96961e-07
5.19564e-06
5.19366e-06
5.18642e-06
5.18563e-06
1.84179e-05
1.84247e-05
1.2415e-06
2.86889e-06
1.59599e-07
2.43757e-07
2.88902e-06
1.60134e-07
1.21473e-06
3.75813e-06
8.92179e-06
8.92623e-06
3.73583e-06
1.24129e-06
1.59612e-07
2.87001e-06
2.43847e-07
1.60148e-07
2.88948e-06
1.21472e-06
3.7704e-06
8.9317e-06
8.92708e-06
3.79e-06
1.2559e-06
2.46855e-07
2.91984e-06
1.61464e-07
2.90153e-06
1.60762e-07
1.28256e-06
3.7704e-06
8.93123e-06
8.92654e-06
3.79004e-06
1.25617e-06
2.46941e-07
1.61477e-07
2.92e-06
1.60777e-07
2.90188e-06
1.28213e-06
3.75817e-06
8.92109e-06
8.92598e-06
3.73581e-06
1.24141e-06
1.59604e-07
2.86828e-06
2.43816e-07
1.6014e-07
2.89034e-06
1.21463e-06
3.75877e-06
8.92142e-06
8.92563e-06
3.73519e-06
1.2561e-06
2.46824e-07
2.91921e-06
1.61462e-07
2.90127e-06
1.60744e-07
1.2821e-06
3.77051e-06
8.93081e-06
8.92621e-06
3.78999e-06
1.25612e-06
2.46909e-07
1.61466e-07
2.92075e-06
1.60765e-07
2.90024e-06
1.28217e-06
3.76996e-06
8.9305e-06
8.92656e-06
3.78997e-06
5.17299e-06
5.17152e-06
3.91444e-07
5.18045e-06
5.17975e-06
1.84387e-05
1.84315e-05
1.84206e-05
1.84275e-05
3.97207e-07
5.19522e-06
5.19383e-06
5.18767e-06
5.18575e-06
1.84183e-05
1.84251e-05
1.2416e-06
1.59611e-07
2.86996e-06
2.43794e-07
1.60141e-07
2.88948e-06
1.21474e-06
3.75841e-06
8.92131e-06
8.92626e-06
3.73599e-06
3.7585e-06
8.92187e-06
8.92674e-06
3.73602e-06
1.25587e-06
2.46844e-07
1.61468e-07
2.92069e-06
1.60774e-07
2.90012e-06
1.28274e-06
1.2562e-06
2.46889e-07
1.61472e-07
2.92e-06
1.60777e-07
2.90184e-06
1.28236e-06
3.77068e-06
8.93111e-06
8.92646e-06
3.79019e-06
3.77073e-06
8.9315e-06
8.92696e-06
3.79024e-06
1.84394e-05
1.84322e-05
1.84417e-05
1.84345e-05
3.9717e-07
5.19383e-06
5.19457e-06
5.18471e-06
5.1878e-06
1.8419e-05
1.84258e-05
1.84211e-05
1.84281e-05
1.8411e-05
1.84045e-05
1.84142e-05
1.84077e-05
5.19827e-06
5.201e-06
4.2141e-07
5.20665e-06
5.20826e-06
1.83925e-05
1.83985e-05
1.83956e-05
1.84017e-05
4.27505e-07
5.21832e-06
5.22031e-06
5.21092e-06
5.21256e-06
3.81794e-06
8.93116e-06
3.80068e-06
8.93485e-06
1.3222e-06
2.93e-06
1.62264e-07
2.5698e-07
1.29655e-06
2.94925e-06
1.63134e-07
1.32218e-06
2.93159e-06
1.62271e-07
2.57016e-07
1.29651e-06
2.94853e-06
1.63141e-07
3.82756e-06
8.93871e-06
8.93525e-06
3.84307e-06
3.82744e-06
8.9391e-06
8.93567e-06
3.84312e-06
1.33599e-06
2.6059e-07
2.97619e-06
1.65138e-07
2.95808e-06
1.64098e-07
1.36081e-06
1.33598e-06
2.60626e-07
2.97548e-06
1.65143e-07
2.9597e-06
1.64103e-07
1.36076e-06
5.20019e-06
5.19921e-06
4.21332e-07
5.20824e-06
5.20609e-06
1.84116e-05
1.84052e-05
1.83953e-05
1.84014e-05
4.27464e-07
5.21979e-06
5.21775e-06
5.21262e-06
5.21164e-06
1.8393e-05
1.83991e-05
1.32242e-06
2.93161e-06
1.62259e-07
2.56919e-07
1.2963e-06
2.94854e-06
1.63128e-07
3.81802e-06
8.93141e-06
3.80091e-06
8.93582e-06
1.32197e-06
1.62274e-07
2.93171e-06
2.57012e-07
1.29667e-06
1.63142e-07
2.94865e-06
3.82769e-06
8.94014e-06
8.93668e-06
3.84251e-06
1.33575e-06
2.60529e-07
2.97548e-06
1.65132e-07
2.95967e-06
1.64093e-07
1.36062e-06
3.82757e-06
8.94007e-06
8.93595e-06
3.84323e-06
1.33609e-06
2.60621e-07
1.65146e-07
2.97558e-06
1.64107e-07
2.95976e-06
1.36071e-06
3.81797e-06
8.93098e-06
3.80105e-06
8.93535e-06
1.32205e-06
1.6226e-07
2.93023e-06
2.5698e-07
1.29669e-06
1.63128e-07
2.94948e-06
3.81795e-06
8.93135e-06
3.80087e-06
8.93507e-06
1.33616e-06
2.60494e-07
2.97485e-06
1.65125e-07
2.95924e-06
1.64067e-07
1.36113e-06
3.8278e-06
8.93952e-06
8.93543e-06
3.84321e-06
1.33613e-06
2.60588e-07
1.6513e-07
2.97629e-06
1.64092e-07
2.95828e-06
1.36069e-06
3.82762e-06
8.9393e-06
8.93585e-06
3.84311e-06
5.20067e-06
5.1993e-06
4.21113e-07
5.20805e-06
5.20658e-06
1.84121e-05
1.84056e-05
1.8396e-05
1.84021e-05
4.27306e-07
5.21979e-06
5.21846e-06
5.21294e-06
5.2116e-06
1.83936e-05
1.83996e-05
1.32226e-06
1.62273e-07
2.93166e-06
2.56963e-07
1.29674e-06
1.63137e-07
2.94866e-06
3.81817e-06
8.93127e-06
3.8012e-06
8.93566e-06
3.81819e-06
8.93176e-06
3.80124e-06
8.93578e-06
1.33591e-06
2.60515e-07
1.65132e-07
2.97627e-06
1.64102e-07
2.95819e-06
1.36161e-06
1.33615e-06
2.60571e-07
1.65141e-07
2.97563e-06
1.64108e-07
2.95975e-06
1.36097e-06
3.82793e-06
8.93987e-06
8.93576e-06
3.84264e-06
3.82796e-06
8.93985e-06
8.93643e-06
3.84265e-06
1.84128e-05
1.84063e-05
1.84149e-05
1.84084e-05
4.28253e-07
5.2182e-06
5.219e-06
5.21064e-06
5.21332e-06
1.83943e-05
1.84004e-05
1.83962e-05
1.84024e-05
1.83867e-05
1.8381e-05
1.83898e-05
1.8384e-05
5.22275e-06
5.2242e-06
4.53044e-07
5.22878e-06
5.23087e-06
1.83701e-05
1.83754e-05
1.83731e-05
1.83785e-05
4.59958e-07
5.23892e-06
5.24056e-06
5.23251e-06
5.23456e-06
3.86448e-06
8.93984e-06
3.85041e-06
8.94315e-06
1.39818e-06
2.98445e-06
1.66268e-07
2.72164e-07
1.37429e-06
3.00138e-06
1.67478e-07
1.3982e-06
2.986e-06
1.66273e-07
2.72198e-07
1.3743e-06
3.0007e-06
1.67482e-07
3.87085e-06
8.94633e-06
8.9433e-06
3.88312e-06
3.87079e-06
8.94676e-06
8.94367e-06
3.88308e-06
1.41125e-06
2.76272e-07
3.02508e-06
1.70162e-07
3.00914e-06
1.68782e-07
1.43449e-06
1.41119e-06
2.76307e-07
3.02446e-06
1.70163e-07
3.01069e-06
1.68785e-07
1.43443e-06
5.22412e-06
5.22303e-06
4.53075e-07
5.23056e-06
5.2286e-06
1.83871e-05
1.83815e-05
1.83729e-05
1.83782e-05
4.59726e-07
5.24044e-06
5.23838e-06
5.23426e-06
5.23321e-06
1.83705e-05
1.83758e-05
1.39821e-06
2.986e-06
1.66264e-07
2.72095e-07
1.37425e-06
3.00185e-06
1.67473e-07
3.86458e-06
8.94019e-06
3.85055e-06
8.94392e-06
1.39807e-06
1.66278e-07
2.98601e-06
2.72198e-07
1.37437e-06
1.67486e-07
3.00197e-06
3.8715e-06
8.9478e-06
8.94474e-06
3.88247e-06
1.41126e-06
2.76201e-07
3.02561e-06
1.70157e-07
3.00977e-06
1.68777e-07
1.43406e-06
3.87094e-06
8.94773e-06
8.94423e-06
3.88319e-06
1.4113e-06
2.76305e-07
1.7017e-07
3.02574e-06
1.68792e-07
3.00981e-06
1.43407e-06
3.86463e-06
8.93958e-06
3.85067e-06
8.94342e-06
1.39815e-06
1.6626e-07
2.9849e-06
2.72167e-07
1.37438e-06
1.6747e-07
3.00011e-06
3.86452e-06
8.93995e-06
3.85054e-06
8.94339e-06
1.41098e-06
2.76164e-07
3.02381e-06
1.70143e-07
3.01026e-06
1.68745e-07
1.43431e-06
3.87095e-06
8.94696e-06
8.94348e-06
3.88319e-06
1.41117e-06
2.76269e-07
1.70152e-07
3.02404e-06
1.68772e-07
3.01027e-06
1.43422e-06
3.87082e-06
8.94713e-06
8.9436e-06
3.8831e-06
5.22434e-06
5.22294e-06
4.53074e-07
5.23014e-06
5.22879e-06
1.83878e-05
1.83821e-05
1.83737e-05
1.8379e-05
4.59809e-07
5.24003e-06
5.23891e-06
5.23483e-06
5.23326e-06
1.83711e-05
1.83765e-05
1.3983e-06
1.66281e-07
2.98607e-06
2.72145e-07
1.37444e-06
1.67482e-07
3.00077e-06
3.86401e-06
8.93993e-06
3.85134e-06
8.94381e-06
3.86396e-06
8.94057e-06
3.85136e-06
8.9438e-06
1.41095e-06
2.76191e-07
1.70155e-07
3.02519e-06
1.68786e-07
3.00927e-06
1.43476e-06
1.41133e-06
2.76248e-07
1.70167e-07
3.02455e-06
1.68795e-07
3.01079e-06
1.43468e-06
3.87172e-06
8.94734e-06
8.94398e-06
3.88259e-06
3.87165e-06
8.94746e-06
8.94444e-06
3.88329e-06
1.83885e-05
1.83828e-05
1.83904e-05
1.83846e-05
4.60605e-07
5.23881e-06
5.24046e-06
5.23276e-06
5.23505e-06
1.83719e-05
1.83772e-05
1.83738e-05
1.83791e-05
1.83647e-05
1.83598e-05
1.83677e-05
1.83628e-05
5.2424e-06
5.24405e-06
4.87199e-07
5.24792e-06
5.24966e-06
1.835e-05
1.83545e-05
1.8353e-05
1.83576e-05
4.94407e-07
5.2563e-06
5.25805e-06
5.25119e-06
5.25302e-06
3.89927e-06
8.94725e-06
3.88855e-06
8.95014e-06
1.46895e-06
3.03238e-06
1.71633e-07
2.89296e-07
1.44644e-06
3.04729e-06
1.73184e-07
1.46909e-06
3.03385e-06
1.71635e-07
2.89332e-07
1.44639e-06
3.04662e-06
1.73183e-07
3.90407e-06
8.95294e-06
8.95029e-06
3.91339e-06
3.90404e-06
8.95328e-06
8.95068e-06
3.91337e-06
1.48046e-06
2.93877e-07
3.06823e-06
1.76551e-07
3.05415e-06
1.74828e-07
1.50194e-06
1.4803e-06
2.93912e-07
3.06761e-06
1.76549e-07
3.05563e-06
1.7483e-07
1.50205e-06
5.24395e-06
5.24292e-06
4.8747e-07
5.24946e-06
5.2475e-06
1.8365e-05
1.83601e-05
1.83527e-05
1.83572e-05
4.9475e-07
5.2578e-06
5.25594e-06
5.25278e-06
5.2517e-06
1.83502e-05
1.83547e-05
1.46865e-06
3.03288e-06
1.7163e-07
2.89217e-07
1.44683e-06
3.04782e-06
1.73181e-07
3.8994e-06
8.9477e-06
3.88871e-06
8.95114e-06
1.46863e-06
1.71646e-07
3.03302e-06
2.89334e-07
1.44681e-06
1.73194e-07
3.04673e-06
3.90475e-06
8.95442e-06
8.95175e-06
3.91279e-06
1.48079e-06
2.93795e-07
3.06877e-06
1.76549e-07
3.05467e-06
1.74827e-07
1.50173e-06
3.9042e-06
8.95431e-06
8.95118e-06
3.9135e-06
1.4808e-06
2.93914e-07
1.76564e-07
3.06777e-06
1.74844e-07
3.05548e-06
1.502e-06
3.89937e-06
8.94709e-06
3.88869e-06
8.95032e-06
1.46873e-06
1.71624e-07
3.03354e-06
2.89295e-07
1.44668e-06
1.73174e-07
3.04625e-06
3.89928e-06
8.9472e-06
3.88857e-06
8.9506e-06
1.48052e-06
2.93761e-07
3.06704e-06
1.76526e-07
3.05527e-06
1.74785e-07
1.50184e-06
3.90419e-06
8.95346e-06
8.95045e-06
3.91345e-06
1.48064e-06
2.93871e-07
1.7654e-07
3.06725e-06
1.74818e-07
3.05531e-06
1.50167e-06
3.90405e-06
8.95378e-06
8.95064e-06
3.91337e-06
5.24443e-06
5.24291e-06
4.8719e-07
5.24896e-06
5.24769e-06
1.83657e-05
1.83608e-05
1.83536e-05
1.83582e-05
4.9449e-07
5.25762e-06
5.25617e-06
5.25329e-06
5.25182e-06
1.83509e-05
1.83555e-05
1.46905e-06
1.7165e-07
3.03395e-06
2.89272e-07
1.4465e-06
1.73191e-07
3.04673e-06
3.8988e-06
8.94748e-06
3.88947e-06
8.95085e-06
3.89949e-06
8.94803e-06
3.88885e-06
8.95091e-06
1.48053e-06
2.93791e-07
1.76547e-07
3.06833e-06
1.74837e-07
3.05422e-06
1.50222e-06
1.48057e-06
2.93847e-07
1.76561e-07
3.06773e-06
1.74847e-07
3.05569e-06
1.50203e-06
3.90493e-06
8.95394e-06
8.95083e-06
3.91286e-06
3.90431e-06
8.9541e-06
8.95144e-06
3.91356e-06
1.83665e-05
1.83616e-05
1.83684e-05
1.83634e-05
4.95168e-07
5.25622e-06
5.25772e-06
5.25125e-06
5.25326e-06
1.83518e-05
1.83563e-05
1.83537e-05
1.83582e-05
1.83449e-05
1.83407e-05
1.83479e-05
1.83437e-05
5.2594e-06
5.26122e-06
5.22682e-07
5.26399e-06
5.2658e-06
1.8332e-05
1.83358e-05
1.8335e-05
1.83388e-05
5.30172e-07
5.27119e-06
5.27302e-06
5.26699e-06
5.2688e-06
3.9257e-06
8.95381e-06
3.91751e-06