/*--------------------------------*- C++ -*----------------------------------*\
| =========                 |                                                 |
| \\      /  F ield         | OpenFOAM: The Open Source CFD Toolbox           |
|  \\    /   O peration     | Version:  2312                                  |
|   \\  /    A nd           | Website:  www.openfoam.com                      |
|    \\/     M anipulation  |                                                 |
\*---------------------------------------------------------------------------*/
FoamFile
{
    version     2.0;
    format      ascii;
    arch        "LSB;label=32;scalar=64";
    class       surfaceScalarField;
    location    "300";
    object      phi;
}
// * * * * * * * * * * * * * * * * * * * * * * * * * * * * * * * * * * * * * //

dimensions      [0 3 -1 0 0 0 0];

oriented        oriented;

internalField   nonuniform List<scalar> 
123680
(
-8.1836e-07
-8.19189e-07
4.33286e-07
4.33908e-07
0.00115006
-0.00114929
-1.50281e-06
8.19053e-07
3.9933e-07
0.00113925
-4.98879e-07
1.12939e-06
1.47142e-07
7.47299e-07
-5.44751e-07
8.46437e-08
-1.22932e-06
-0.0011388
-1.49994e-06
8.19475e-07
4.04733e-07
0.00113912
-4.95957e-07
1.12678e-06
1.44275e-07
7.47158e-07
-5.44986e-07
8.46599e-08
-1.22957e-06
-0.00113868
1.53176e-06
1.49477e-06
-4.7632e-07
-4.79294e-07
0.000274438
-0.000276509
-7.98751e-07
-7.99454e-07
-0.00115234
4.25635e-07
4.26245e-07
0.00115308
-0.0011405
-1.49421e-06
7.99216e-07
3.90067e-07
0.0011409
-4.87281e-07
1.1351e-06
1.53607e-07
7.5458e-07
-5.30026e-07
-1.21358e-06
9.28083e-08
-0.00114038
-1.49132e-06
7.99765e-07
3.95206e-07
0.00114077
-4.84339e-07
1.13249e-06
1.50917e-07
7.54461e-07
-5.3025e-07
-1.21383e-06
9.28041e-08
-0.000276524
1.52324e-06
1.48622e-06
-4.63633e-07
-4.66584e-07
0.000274445
-7.79015e-07
-7.79512e-07
-0.00115529
4.1816e-07
4.1874e-07
0.00115601
-0.00114201
-1.48472e-06
7.79406e-07
3.80305e-07
0.00114236
-4.75788e-07
1.14051e-06
1.59979e-07
7.61898e-07
-5.15378e-07
-1.19753e-06
1.00971e-07
-0.00114188
-1.48185e-06
7.79879e-07
3.85397e-07
0.00114222
-4.72792e-07
1.13788e-06
1.5733e-07
7.61727e-07
-5.15541e-07
-1.19772e-06
1.00932e-07
-0.000276478
1.51373e-06
1.47671e-06
-4.50551e-07
-4.53484e-07
0.000274392
-7.58296e-07
-7.58712e-07
-0.00115813
4.10035e-07
4.10656e-07
0.00115883
-0.00114331
-1.47458e-06
7.58462e-07
3.71298e-07
0.00114361
-4.64197e-07
1.14569e-06
1.66157e-07
7.69164e-07
-5.01042e-07
-1.18132e-06
1.09062e-07
-0.00114318
-1.47168e-06
7.58911e-07
3.76424e-07
0.00114348
-4.6125e-07
1.14309e-06
1.63451e-07
7.69086e-07
-5.01141e-07
-1.18141e-06
1.08989e-07
-0.000276378
1.5035e-06
1.46645e-06
-4.3738e-07
-4.40327e-07
0.000274286
-7.36986e-07
-7.37393e-07
-0.00116088
4.01778e-07
4.02321e-07
0.00116155
-0.00114442
-1.46371e-06
7.37189e-07
3.61874e-07
0.00114467
-4.52819e-07
1.15082e-06
1.72046e-07
7.76378e-07
-4.86816e-07
-1.16504e-06
1.17116e-07
-0.00114429
-1.46092e-06
7.37392e-07
3.67223e-07
0.00114454
-4.5e-07
1.14821e-06
1.69308e-07
7.76415e-07
-4.86896e-07
-1.16516e-06
1.17171e-07
-0.000276232
1.49257e-06
1.45546e-06
-4.24194e-07
-4.27183e-07
0.000274135
-7.14852e-07
-7.15273e-07
-0.00116352
3.93106e-07
3.93619e-07
0.00116417
-0.00114534
-1.4522e-06
7.15062e-07
3.52238e-07
0.00114555
-4.41613e-07
1.15608e-06
1.77893e-07
7.83483e-07
-4.72938e-07
-1.14894e-06
1.24942e-07
-0.00114521
-1.44951e-06
7.15158e-07
3.57875e-07
0.00114541
-4.38866e-07
1.15328e-06
1.74953e-07
7.83481e-07
-4.72924e-07
-1.14895e-06
1.25144e-07
-0.000276047
1.48106e-06
1.44395e-06
-4.1118e-07
-4.14136e-07
0.000273947
-6.92224e-07
-6.9271e-07
-0.00116606
3.8429e-07
3.84831e-07
0.00116667
-0.00114607
-1.44012e-06
6.92368e-07
3.41628e-07
0.00114623
-4.30651e-07
1.16153e-06
1.83767e-07
7.90442e-07
-4.59404e-07
-1.13314e-06
1.32637e-07
-0.00114594
-1.43749e-06
6.92237e-07
3.47621e-07
0.0011461
-4.28018e-07
1.15864e-06
1.80761e-07
7.90577e-07
-4.59345e-07
-1.13309e-06
1.32884e-07
-0.000275831
1.46901e-06
1.43191e-06
-3.98277e-07
-4.01197e-07
0.000273729
-6.68801e-07
-6.69365e-07
-0.00116848
3.75183e-07
3.75726e-07
0.00116906
-0.00114663
-1.42789e-06
6.69134e-07
3.30162e-07
0.00114675
-4.19826e-07
1.16682e-06
1.89551e-07
7.97328e-07
-4.46247e-07
-1.1176e-06
1.4022e-07
-0.0011465
-1.42523e-06
6.68767e-07
3.36194e-07
0.00114661
-4.17184e-07
1.164e-06
1.86538e-07
7.97546e-07
-4.46104e-07
-1.11755e-06
1.40495e-07
-0.000275591
1.45675e-06
1.41967e-06
-3.85738e-07
-3.8865e-07
0.000273489
-6.44949e-07
-6.45312e-07
-0.00117078
3.65841e-07
3.66467e-07
0.00117134
-0.00114702
-1.41548e-06
6.45183e-07
3.17911e-07
0.0011471
-4.09226e-07
1.17224e-06
1.95221e-07
8.03944e-07
-4.33387e-07
-1.10248e-06
1.47668e-07
-0.00114689
-1.41294e-06
6.44834e-07
3.23981e-07
0.00114696
-4.06562e-07
1.16938e-06
1.92231e-07
8.04195e-07
-4.33297e-07
-1.10237e-06
1.47966e-07
-0.000275336
1.44434e-06
1.40726e-06
-3.73555e-07
-3.76434e-07
0.000273235
-6.20336e-07
-6.20689e-07
-0.00117297
3.50485e-07
3.569e-07
0.0011735
-0.00114725
-1.40319e-06
6.20748e-07
3.05103e-07
0.0011473
-3.98929e-07
1.17747e-06
2.00764e-07
8.10315e-07
-4.2094e-07
-1.0879e-06
1.54935e-07
-0.00114712
-1.40043e-06
6.20356e-07
3.10948e-07
0.00114716
-3.96247e-07
1.17464e-06
1.97835e-07
8.10581e-07
-4.20863e-07
-1.08794e-06
1.55168e-07
-0.000275071
1.43217e-06
1.39508e-06
-3.61923e-07
-3.64821e-07
0.000272971
-5.9535e-07
-5.95691e-07
-0.00117503
3.40903e-07
3.47276e-07
0.00117554
-0.00114735
-1.39099e-06
5.9589e-07
2.913e-07
0.00114736
-3.8891e-07
1.18258e-06
2.0618e-07
8.16607e-07
-4.08911e-07
-1.07385e-06
1.62012e-07
-0.00114722
-1.3883e-06
5.95532e-07
2.97071e-07
0.00114722
-3.8619e-07
1.17992e-06
2.03288e-07
8.16747e-07
-4.08871e-07
-1.07386e-06
1.62207e-07
-0.000274801
1.42004e-06
1.38294e-06
-3.50722e-07
-3.53625e-07
0.000272702
-5.70119e-07
-5.70455e-07
-0.00117698
3.31391e-07
3.37714e-07
0.00117745
-0.00114731
-1.37913e-06
5.70799e-07
2.76736e-07
0.00114729
-3.79212e-07
1.18749e-06
2.11441e-07
8.22628e-07
-3.97353e-07
-1.06038e-06
1.68821e-07
-0.00114718
-1.37646e-06
5.7052e-07
2.82558e-07
0.00114715
-3.7646e-07
1.18472e-06
2.08577e-07
8.22826e-07
-3.97299e-07
-1.06033e-06
1.69046e-07
-0.00027453
1.4082e-06
1.37112e-06
-3.40065e-07
-3.4298e-07
0.000272434
-5.4474e-07
-5.45134e-07
-0.00117879
3.22008e-07
3.28286e-07
0.00117923
-0.00114716
-1.36758e-06
5.45365e-07
2.61597e-07
0.00114711
-3.69908e-07
1.19225e-06
2.16492e-07
8.28296e-07
-3.86261e-07
-1.04744e-06
1.75397e-07
-0.00114703
-1.36489e-06
5.45197e-07
2.67437e-07
0.00114697
-3.67147e-07
1.1895e-06
2.13654e-07
8.28469e-07
-3.86229e-07
-1.04742e-06
1.75587e-07
-0.000274261
1.39665e-06
1.35955e-06
-3.29856e-07
-3.3283e-07
0.000272168
-5.1924e-07
-5.19625e-07
-0.00118048
3.1265e-07
3.18902e-07
0.00118089
-0.00114691
-1.35643e-06
5.19699e-07
2.4582e-07
0.00114684
-3.60977e-07
1.19676e-06
2.21363e-07
8.33779e-07
-3.75601e-07
-1.0351e-06
1.81695e-07
-0.00114678
-1.35373e-06
5.19609e-07
2.51726e-07
0.0011467
-3.58203e-07
1.19395e-06
2.18542e-07
8.33963e-07
-3.75628e-07
-1.03506e-06
1.81846e-07
-0.000273998
1.38554e-06
1.34841e-06
-3.20207e-07
-3.23209e-07
0.000271907
-4.93603e-07
-4.94051e-07
-0.00118204
3.03302e-07
3.09494e-07
0.00118241
-0.00114657
-1.34582e-06
4.9393e-07
2.29721e-07
0.00114648
-3.52361e-07
1.20091e-06
2.25977e-07
8.39166e-07
-3.65449e-07
-1.02332e-06
1.8773e-07
-0.00114644
-1.34311e-06
4.93991e-07
2.35695e-07
0.00114634
-3.49607e-07
1.19811e-06
2.23179e-07
8.39182e-07
-3.65449e-07
-1.0233e-06
1.87869e-07
-0.000273741
1.37479e-06
1.33765e-06
-3.11057e-07
-3.1406e-07
0.000271653
-4.67871e-07
-4.68287e-07
-0.00118346
2.93778e-07
2.99993e-07
0.00118381
-0.00114616
-1.33562e-06
4.68135e-07
2.13569e-07
0.00114605
-3.44167e-07
1.20479e-06
2.30374e-07
8.44152e-07
-3.55781e-07
-1.0121e-06
1.93366e-07
-0.00114603
-1.33283e-06
4.68067e-07
2.19408e-07
0.00114591
-3.41427e-07
1.2021e-06
2.27516e-07
8.44198e-07
-3.55776e-07
-1.01207e-06
1.93573e-07
-0.000273491
1.36456e-06
1.32742e-06
-3.02461e-07
-3.05456e-07
0.000271407
-4.41958e-07
-4.42335e-07
-0.00118476
2.83971e-07
2.90259e-07
0.00118507
-0.00114569
-1.32586e-06
4.4221e-07
1.97013e-07
0.00114557
-3.36344e-07
1.20843e-06
2.34565e-07
8.48902e-07
-3.46532e-07
-1.00142e-06
1.98797e-07
-0.00114556
-1.32312e-06
4.42117e-07
2.0309e-07
0.00114543
-3.33682e-07
1.20568e-06
2.31685e-07
8.48921e-07
-3.46546e-07
-1.00146e-06
1.98961e-07
-0.000273251
1.35475e-06
1.31768e-06
-2.94347e-07
-2.97308e-07
0.00027117
-4.16056e-07
-4.16307e-07
-0.00118593
2.79817e-07
2.80237e-07
0.0011862
-0.00114517
-1.3165e-06
4.16167e-07
1.80693e-07
0.00114504
-3.28908e-07
1.21185e-06
2.38457e-07
8.53319e-07
-3.37725e-07
-9.91338e-07
2.03939e-07
-0.00114504
-1.31387e-06
4.16076e-07
1.86802e-07
0.0011449
-3.26235e-07
1.20903e-06
2.35617e-07
8.53331e-07
-3.37741e-07
-9.91387e-07
2.04095e-07
-0.000273019
1.34543e-06
1.30841e-06
-2.86729e-07
-2.89642e-07
0.000270942
-3.90281e-07
-3.90305e-07
-0.00118697
2.69497e-07
2.7e-07
0.00118721
-0.00114462
-1.30765e-06
3.90122e-07
1.64723e-07
0.00114448
-3.21909e-07
1.215e-06
2.42123e-07
8.57496e-07
-3.29369e-07
-9.81791e-07
2.088e-07
-0.00114448
-1.3051e-06
3.90043e-07
1.70792e-07
0.00114434
-3.19166e-07
1.21214e-06
2.39319e-07
8.57539e-07
-3.29373e-07
-9.81822e-07
2.08971e-07
-0.000272797
1.33648e-06
1.2995e-06
-2.79499e-07
-2.82357e-07
0.000270723
-3.64263e-07
-3.64393e-07
-0.00118789
2.58817e-07
2.59317e-07
0.0011881
-0.00114404
-1.29938e-06
3.6426e-07
1.4909e-07
0.00114389
-3.15237e-07
1.21785e-06
2.45576e-07
8.61521e-07
-3.21394e-07
-9.72722e-07
2.13454e-07
-0.0011439
-1.2967e-06
3.64104e-07
1.55062e-07
0.00114375
-3.12555e-07
1.2151e-06
2.42724e-07
8.61545e-07
-3.21431e-07
-9.72736e-07
2.13567e-07
-0.000272585
1.32812e-06
1.2912e-06
-2.72815e-07
-2.75667e-07
0.000270514
-3.38461e-07
-3.38546e-07
-0.00118869
2.47716e-07
2.48177e-07
0.00118887
-0.00114344
-1.29147e-06
3.38464e-07
1.34035e-07
0.00114329
-3.0902e-07
1.22045e-06
2.48706e-07
8.65254e-07
-3.13874e-07
-9.64185e-07
2.17769e-07
-0.0011433
-1.28885e-06
3.38243e-07
1.39931e-07
0.00114315
-3.06262e-07
1.2177e-06
2.45893e-07
8.65337e-07
-3.13869e-07
-9.64211e-07
2.17959e-07
-0.000272383
1.32025e-06
1.28338e-06
-2.6658e-07
-2.69381e-07
0.000270315
-3.12806e-07
-3.12925e-07
-0.00118937
2.36142e-07
2.36661e-07
0.00118952
-0.00114283
-1.28406e-06
3.12875e-07
1.19493e-07
0.00114268
-3.03106e-07
1.22286e-06
2.51602e-07
8.68823e-07
-3.06675e-07
-9.56052e-07
2.21888e-07
-0.00114269
-1.2814e-06
3.12649e-07
1.25347e-07
0.00114254
-3.00416e-07
1.22005e-06
2.48807e-07
8.68871e-07
-3.06683e-07
-9.56045e-07
2.22022e-07
-0.00027219
1.31283e-06
1.27599e-06
-2.60752e-07
-2.63536e-07
0.000270126
-2.87473e-07
-2.87577e-07
-0.00118994
2.24211e-07
2.24691e-07
0.00119007
-0.00114221
-1.27713e-06
2.87542e-07
1.05646e-07
0.00114207
-2.97574e-07
1.22504e-06
2.54273e-07
8.72177e-07
-2.99909e-07
-9.48373e-07
2.25786e-07
-0.00114208
-1.27445e-06
2.87339e-07
1.11461e-07
0.00114192
-2.94893e-07
1.22227e-06
2.51451e-07
8.72251e-07
-2.99895e-07
-9.48334e-07
2.25897e-07
-0.000272008
1.30591e-06
1.26907e-06
-2.55356e-07
-2.5813e-07
0.000269946
-2.62396e-07
-2.62488e-07
-0.00119041
2.11822e-07
2.12232e-07
0.00119051
-0.0011416
-1.27058e-06
2.6254e-07
9.27528e-08
0.00114146
-2.92471e-07
1.22695e-06
2.56689e-07
8.75336e-07
-2.93476e-07
-9.4113e-07
2.29384e-07
-0.00114147
-1.26793e-06
2.62351e-07
9.86045e-08
0.00114131
-2.89779e-07
1.22418e-06
2.5386e-07
8.75382e-07
-2.93485e-07
-9.41124e-07
2.29511e-07
-0.000271835
1.29934e-06
1.26251e-06
-2.50298e-07
-2.53079e-07
0.000269777
-2.37743e-07
-2.3784e-07
-0.00119077
1.98992e-07
1.99346e-07
0.00119085
-0.001141
-1.26455e-06
2.37801e-07
8.0739e-08
0.00114086
-2.87711e-07
1.2287e-06
2.58833e-07
8.78305e-07
-2.87399e-07
-9.34316e-07
2.32799e-07
-0.00114086
-1.26189e-06
2.37692e-07
8.64903e-08
0.00114071
-2.85011e-07
1.22594e-06
2.56022e-07
8.78333e-07
-2.8738e-07
-9.34295e-07
2.32924e-07
-0.000271672
1.29328e-06
1.25646e-06
-2.45671e-07
-2.48459e-07
0.000269616
1.54296e-06
1.50314e-06
-4.76445e-07
-4.82001e-07
0.000274497
-0.000276584
-1.17395e-06
-1.13382e-06
0.000276599
-0.000274507
1.05254e-07
1.1074e-07
4.06274e-07
0.0011387
-5.04546e-07
1.16963e-06
1.52861e-07
7.52762e-07
-5.45007e-07
8.45823e-08
-1.23504e-06
-0.00113826
-1.54035e-06
8.18577e-07
4.06366e-07
0.00113878
-5.04616e-07
1.16694e-06
1.5274e-07
7.52799e-07
-5.42148e-07
8.14548e-08
-1.23478e-06
-0.00113833
0.00113996
8.03737e-07
-0.00113955
3.99323e-07
-1.53663e-06
1.57713e-07
-4.95823e-07
-1.22331e-06
9.07131e-08
-5.3397e-07
7.58216e-07
1.17126e-06
0.00114003
8.03874e-07
-0.00113963
3.99283e-07
-1.53403e-06
1.57555e-07
-4.95936e-07
-1.22307e-06
8.76784e-08
-5.31076e-07
7.58265e-07
-4.76702e-07
-4.78925e-07
0.000274477
-0.000276565
-1.13371e-06
0.00027658
-0.000274488
1.05412e-07
1.07858e-07
4.05029e-07
0.0011397
-4.99128e-07
1.12951e-06
1.47045e-07
7.52742e-07
-5.4491e-07
8.48708e-08
-1.23484e-06
-0.00113926
-1.53488e-06
8.17848e-07
4.06552e-07
0.00113866
-5.04637e-07
1.16148e-06
1.52847e-07
7.52833e-07
-5.42107e-07
8.16776e-08
-1.23471e-06
-0.00113822
0.00114096
8.04416e-07
-0.00114055
3.98081e-07
-1.49678e-06
1.51909e-07
-4.904e-07
-1.22303e-06
9.10119e-08
-5.33825e-07
7.58262e-07
1.16576e-06
0.00113991
8.03295e-07
-0.00113951
3.99441e-07
-1.52857e-06
1.57684e-07
-4.96021e-07
-1.22296e-06
8.78607e-08
-5.3088e-07
7.58324e-07
8.18198e-07
4.06513e-07
0.00113828
-5.0154e-07
1.15863e-06
1.50024e-07
7.44562e-07
-5.39169e-07
7.83158e-08
-1.22629e-06
-0.00113783
8.04126e-07
-0.0011401
4.03403e-07
-1.49645e-06
1.51983e-07
-4.90168e-07
-1.21757e-06
9.07639e-08
7.52771e-07
-5.33654e-07
1.16297e-06
0.00113953
8.03214e-07
-0.00113913
3.99384e-07
-1.52546e-06
1.54834e-07
-4.92864e-07
-1.21451e-06
8.45911e-08
-5.28181e-07
7.50057e-07
-4.76678e-07
-4.81661e-07
0.000274463
-0.00027654
-1.13112e-06
0.000276555
-0.000274474
1.05618e-07
1.10591e-07
8.19354e-07
4.05202e-07
0.00113926
-4.99053e-07
1.12114e-06
1.46958e-07
7.49738e-07
-5.44849e-07
8.48515e-08
-1.23186e-06
-0.00113882
8.04709e-07
-0.00113997
3.97523e-07
-1.49352e-06
1.49244e-07
-4.87251e-07
-1.21785e-06
9.07613e-08
7.52623e-07
-5.33929e-07
1.12547e-06
0.00114052
8.04883e-07
-0.00114011
3.97973e-07
-1.48846e-06
1.51819e-07
-4.90395e-07
-1.22016e-06
9.0977e-08
-5.33786e-07
7.55241e-07
-0.000274449
1.0522e-07
1.08121e-07
1.53437e-06
1.49452e-06
-4.63695e-07
-4.69236e-07
0.000274503
-1.17941e-06
-1.13925e-06
0.000276553
-0.000274469
1.14253e-07
1.19744e-07
3.96947e-07
0.00114035
-4.92903e-07
1.17534e-06
1.59341e-07
7.60041e-07
-5.30207e-07
-1.21928e-06
9.27629e-08
-1.5318e-06
7.98882e-07
3.97008e-07
0.00114043
-4.93049e-07
1.17264e-06
1.59161e-07
7.60104e-07
-5.27348e-07
-1.21902e-06
8.97078e-08
0.00114146
7.84102e-07
-0.0011411
3.89525e-07
-1.52734e-06
1.64086e-07
-4.84344e-07
-1.20733e-06
9.88505e-08
-5.19246e-07
7.65478e-07
1.17673e-06
0.00114153
7.84057e-07
-0.00114118
3.89503e-07
-1.52476e-06
1.6393e-07
-4.84424e-07
-1.20701e-06
9.58888e-08
-5.16319e-07
7.65543e-07
-4.63964e-07
-4.66251e-07
0.000274484
-1.13917e-06
0.000276534
-0.000274449
1.1444e-07
1.1688e-07
3.95642e-07
0.00114135
-4.87495e-07
1.13522e-06
1.53534e-07
7.60101e-07
-5.30026e-07
-1.21903e-06
9.3038e-08
-1.5264e-06
7.98378e-07
3.96978e-07
0.00114031
-4.93145e-07
1.16714e-06
1.59297e-07
7.60172e-07
-5.27206e-07
-1.21891e-06
8.98822e-08
0.00114246
7.8464e-07
-0.00114211
3.88334e-07
-1.48751e-06
1.5826e-07
-4.78902e-07
-1.20703e-06
9.91921e-08
-5.1905e-07
7.6557e-07
1.17121e-06
0.00114142
7.83413e-07
-0.00114106
3.89677e-07
-1.51934e-06
1.64072e-07
-4.84444e-07
-1.20687e-06
9.60487e-08
-5.16172e-07
7.65571e-07
7.98259e-07
3.97121e-07
0.00113993
-4.89973e-07
1.16435e-06
1.56446e-07
7.51841e-07
-5.24469e-07
8.66587e-08
-1.21052e-06
7.84424e-07
-0.00114165
3.93718e-07
-1.48718e-06
1.58347e-07
-4.78701e-07
-1.2015e-06
9.89294e-08
7.60096e-07
-5.18953e-07
1.16843e-06
0.00114103
7.83371e-07
-0.00114068
3.89611e-07
-1.51617e-06
1.61251e-07
-4.81374e-07
-1.19856e-06
9.2808e-08
-5.13377e-07
7.57332e-07
-4.63914e-07
-4.69012e-07
0.00027447
-1.13656e-06
0.00027651
-0.000274436
1.1456e-07
1.19623e-07
7.99882e-07
3.95825e-07
0.00114091
-4.87496e-07
1.12685e-06
1.53475e-07
7.57013e-07
-5.30079e-07
9.29694e-08
-1.21614e-06
7.84972e-07
-0.00114152
3.87741e-07
-1.48429e-06
1.55734e-07
-4.75721e-07
-1.20181e-06
9.89069e-08
7.59903e-07
-5.19206e-07
1.13092e-06
0.00114202
7.85029e-07
-0.00114166
3.88437e-07
-1.47915e-06
1.58272e-07
-4.78872e-07
-1.20413e-06
9.91026e-08
-5.19035e-07
7.62425e-07
-0.00027441
1.14213e-07
1.17134e-07
1.52486e-06
1.48503e-06
-4.50667e-07
-4.56146e-07
0.00027445
-1.18474e-06
-1.14457e-06
0.000276454
-0.000274376
1.22849e-07
1.28404e-07
3.87185e-07
0.0011418
-4.81434e-07
1.18079e-06
1.65666e-07
7.67277e-07
-5.15549e-07
-1.20327e-06
1.00808e-07
-1.5223e-06
7.78959e-07
3.87172e-07
0.00114188
-4.81507e-07
1.17807e-06
1.65545e-07
7.67353e-07
-5.12668e-07
-1.20292e-06
9.78883e-08
0.00114276
7.63582e-07
-0.00114246
3.8027e-07
-1.51731e-06
1.70341e-07
-4.72689e-07
-1.19115e-06
1.0684e-07
-5.04857e-07
7.72741e-07
1.18204e-06
0.00114284
7.63595e-07
-0.00114253
3.80242e-07
-1.51476e-06
1.70218e-07
-4.72759e-07
-1.19088e-06
1.03956e-07
-5.0195e-07
7.72775e-07
-4.50882e-07
-4.53164e-07
0.000274431
-1.14445e-06
0.000276434
-0.000274356
1.23033e-07
1.25509e-07
3.86013e-07
0.00114281
-4.76052e-07
1.14064e-06
1.59856e-07
7.67383e-07
-5.15434e-07
-1.20297e-06
1.0116e-07
-1.5169e-06
7.78339e-07
3.87346e-07
0.00114176
-4.81524e-07
1.17254e-06
1.65663e-07
7.67392e-07
-5.12563e-07
-1.2028e-06
9.80413e-08
0.00114377
7.64025e-07
-0.00114346
3.7917e-07
-1.4775e-06
1.64595e-07
-4.67326e-07
-1.19087e-06
1.0719e-07
-5.04708e-07
7.72815e-07
1.17648e-06
0.00114272
7.62974e-07
-0.00114241
3.80374e-07
-1.50931e-06
1.70366e-07
-4.72782e-07
-1.19072e-06
1.04083e-07
-5.01768e-07
7.72858e-07
7.78331e-07
3.87203e-07
0.00114138
-4.78435e-07
1.16973e-06
1.62872e-07
7.59188e-07
-5.09744e-07
9.49272e-08
-1.19448e-06
7.63699e-07
-0.00114301
3.84725e-07
-1.47721e-06
1.64644e-07
-4.67082e-07
-1.18542e-06
1.07049e-07
7.67337e-07
-5.04564e-07
1.1737e-06
0.00114234
7.62633e-07
-0.00114203
3.80274e-07
-1.50613e-06
1.67501e-07
-4.69662e-07
-1.18241e-06
1.01059e-07
-4.98992e-07
7.64612e-07
-4.5085e-07
-4.55951e-07
0.000274418
-1.14179e-06
0.00027641
-0.000274343
1.23154e-07
1.28234e-07
7.79914e-07
3.86164e-07
0.00114237
-4.75934e-07
1.13223e-06
1.59907e-07
7.64263e-07
-5.15419e-07
1.01079e-07
-1.20005e-06
7.64301e-07
-0.00114288
3.78654e-07
-1.47431e-06
1.6194e-07
-4.64131e-07
-1.18562e-06
1.06994e-07
7.67182e-07
-5.04739e-07
1.13621e-06
0.00114333
7.64468e-07
-0.00114302
3.79066e-07
-1.46909e-06
1.64563e-07
-4.67207e-07
-1.18786e-06
1.07153e-07
-5.04619e-07
7.69744e-07
-0.000274317
1.22828e-07
1.25755e-07
1.51474e-06
1.47492e-06
-4.37594e-07
-4.43082e-07
0.000274345
-1.18988e-06
-1.14976e-06
0.000276307
-0.000274236
1.31158e-07
1.36631e-07
3.78021e-07
0.00114306
-4.69765e-07
1.18603e-06
1.71828e-07
7.74552e-07
-5.01255e-07
-1.18704e-06
1.08851e-07
-1.51212e-06
7.58263e-07
3.78015e-07
0.00114313
-4.69886e-07
1.1833e-06
1.71741e-07
7.74599e-07
-4.98384e-07
-1.18678e-06
1.05973e-07
0.00114387
7.42373e-07
-0.00114361
3.70969e-07
-1.50656e-06
1.76337e-07
-4.61227e-07
-1.17486e-06
1.14885e-07
-4.90652e-07
7.79957e-07
1.18721e-06
0.00114394
7.42292e-07
-0.00114369
3.70973e-07
-1.50393e-06
1.7628e-07
-4.61337e-07
-1.17461e-06
1.12007e-07
-4.87748e-07
7.79984e-07
-4.37819e-07
-4.40067e-07
0.000274326
-1.14957e-06
0.000276288
-0.000274216
1.31286e-07
1.33767e-07
3.76886e-07
0.00114406
-4.64452e-07
1.14587e-06
1.66128e-07
7.74644e-07
-5.01087e-07
-1.18675e-06
1.09199e-07
-1.50667e-06
7.57711e-07
3.781e-07
0.00114302
-4.69878e-07
1.17781e-06
1.71901e-07
7.74665e-07
-4.98231e-07
-1.18664e-06
1.06054e-07
0.00114488
7.42778e-07
-0.00114462
3.69835e-07
-1.4667e-06
1.70616e-07
-4.55806e-07
-1.17468e-06
1.15266e-07
-4.90486e-07
7.80115e-07
1.18178e-06
0.00114383
7.41754e-07
-0.00114357
3.71045e-07
-1.49854e-06
1.76412e-07
-4.6125e-07
-1.1745e-06
1.12061e-07
-4.87698e-07
7.80056e-07
7.57354e-07
3.77989e-07
0.00114263
-4.66776e-07
1.17495e-06
1.69035e-07
7.66453e-07
-4.95411e-07
1.03072e-07
-1.17829e-06
7.42523e-07
-0.00114417
3.75485e-07
-1.46643e-06
1.70607e-07
-4.55675e-07
-1.16912e-06
1.15106e-07
7.74574e-07
-4.90315e-07
1.17887e-06
0.00114344
7.41407e-07
-0.00114318
3.70806e-07
-1.49534e-06
1.7355e-07
-4.58189e-07
-1.16625e-06
1.09176e-07
-4.84742e-07
7.71879e-07
-4.37783e-07
-4.42786e-07
0.000274312
-1.14695e-06
0.000276264
-0.000274203
1.31374e-07
1.3661e-07
7.59109e-07
3.76834e-07
0.00114362
-4.64306e-07
1.13747e-06
1.66147e-07
7.71581e-07
-5.01068e-07
1.09137e-07
-1.18384e-06
7.4285e-07
-0.00114403
3.6954e-07
-1.46366e-06
1.67842e-07
-4.52781e-07
-1.16934e-06
1.15144e-07
7.74593e-07
-4.90439e-07
1.14144e-06
0.00114443
7.42952e-07
-0.00114418
3.6968e-07
-1.45826e-06
1.70603e-07
-4.55703e-07
-1.17165e-06
1.15229e-07
-4.90417e-07
7.77102e-07
-0.000274177
1.31172e-07
1.34012e-07
1.50381e-06
1.46393e-06
-4.24425e-07
-4.29925e-07
0.000274194
-1.19514e-06
-1.15505e-06
0.000276122
-0.000274056
1.3916e-07
1.4467e-07
3.68545e-07
0.00114412
-4.58348e-07
1.19114e-06
1.77782e-07
7.81752e-07
-4.871e-07
-1.17078e-06
1.16879e-07
-1.5012e-06
7.36882e-07
3.68561e-07
0.00114419
-4.58447e-07
1.18848e-06
1.77728e-07
7.81781e-07
-4.84208e-07
-1.17051e-06
1.14006e-07
0.00114479
7.20504e-07
-0.00114458
3.61287e-07
-1.49517e-06
1.821e-07
-4.5002e-07
-1.15866e-06
1.22828e-07
-4.76658e-07
7.87115e-07
1.19245e-06
0.00114486
7.20436e-07
-0.00114465
3.61299e-07
-1.49255e-06
1.82044e-07
-4.50007e-07
-1.15845e-06
1.1994e-07
-4.73751e-07
7.87103e-07
-4.24732e-07
-4.26943e-07
0.000274175
-1.1548e-06
0.000276103
-0.000274037
1.39237e-07
1.4184e-07
3.67287e-07
0.00114513
-4.52962e-07
1.15102e-06
1.72049e-07
7.81891e-07
-4.86933e-07
-1.17046e-06
1.1724e-07
-1.49577e-06
7.36379e-07
3.68676e-07
0.00114407
-4.58391e-07
1.18307e-06
1.77885e-07
7.81849e-07
-4.84184e-07
-1.17041e-06
1.14064e-07
0.0011458
7.20889e-07
-0.00114559
3.60269e-07
-1.45527e-06
1.76481e-07
-4.44574e-07
-1.15844e-06
1.23061e-07
-4.76502e-07
7.87147e-07
1.18699e-06
0.00114474
7.20283e-07
-0.00114453
3.61194e-07
-1.48712e-06
1.82204e-07
-4.49952e-07
-1.1584e-06
1.19965e-07
-4.73757e-07
7.87129e-07
7.35948e-07
3.68377e-07
0.00114369
-4.55347e-07
1.18014e-06
1.75011e-07
7.73677e-07
-4.81278e-07
1.1116e-07
-1.16203e-06
7.20601e-07
-0.00114513
3.65908e-07
-1.45507e-06
1.76438e-07
-4.44401e-07
-1.15297e-06
1.22997e-07
7.81709e-07
-4.76344e-07
1.1841e-06
0.00114436
7.19524e-07
-0.00114415
3.61043e-07
-1.48398e-06
1.79331e-07
-4.46944e-07
-1.14996e-06
1.1709e-07
-4.70798e-07
7.78992e-07
-4.2477e-07
-4.29658e-07
0.000274161
-1.15201e-06
0.000276078
-0.000274023
1.39175e-07
1.44666e-07
7.37502e-07
3.67206e-07
0.00114468
-4.52866e-07
1.14273e-06
1.72091e-07
7.78928e-07
-4.86889e-07
1.17212e-07
-1.16754e-06
7.20817e-07
-0.001145
3.60248e-07
-1.45237e-06
1.73523e-07
-4.41624e-07
-1.15304e-06
1.23179e-07
7.81734e-07
-4.76362e-07
1.14669e-06
0.00114535
7.20825e-07
-0.00114514
3.60003e-07
-1.44687e-06
1.76498e-07
-4.44411e-07
-1.15547e-06
1.23116e-07
-4.76434e-07
7.84267e-07
-0.000273997
1.39121e-07
1.42054e-07
1.49227e-06
1.45237e-06
-4.11354e-07
-4.1686e-07
0.000274006
-1.20041e-06
-1.16037e-06
0.000275906
-0.000273845
1.46966e-07
1.52402e-07
3.58783e-07
0.00114499
-4.47189e-07
1.1964e-06
1.83568e-07
7.88876e-07
-4.73258e-07
-1.15466e-06
1.24774e-07
-1.48966e-06
7.14825e-07
3.58829e-07
0.00114506
-4.47218e-07
1.19375e-06
1.83514e-07
7.88867e-07
-4.70313e-07
-1.1544e-06
1.21889e-07
0.00114552
6.97992e-07
-0.00114535
3.50916e-07
-1.48333e-06
1.87942e-07
-4.38979e-07
-1.14277e-06
1.30589e-07
-4.6299e-07
7.94125e-07
1.19783e-06
0.00114559
6.97881e-07
-0.00114543
3.5093e-07
-1.48057e-06
1.87917e-07
-4.39039e-07
-1.14251e-06
1.27712e-07
-4.60144e-07
7.94128e-07
-4.1168e-07
-4.13865e-07
0.000273987
-1.16021e-06
0.000275887
-0.000273825
1.47118e-07
1.49631e-07
3.57692e-07
0.001146
-4.41749e-07
1.15633e-06
1.7799e-07
7.88924e-07
-4.73093e-07
-1.1544e-06
1.25005e-07
-1.48421e-06
7.14681e-07
3.58693e-07
0.00114494
-4.47165e-07
1.1883e-06
1.8365e-07
7.88916e-07
-4.70326e-07
-1.15434e-06
1.21896e-07
0.00114653
6.98479e-07
-0.00114636
3.49912e-07
-1.44341e-06
1.82389e-07
-4.33491e-07
-1.14255e-06
1.30791e-07
-4.62951e-07
7.94105e-07
1.19237e-06
0.00114548
6.97816e-07
-0.00114531
3.50969e-07
-1.47517e-06
1.88084e-07
-4.38892e-07
-1.14251e-06
1.27653e-07
-4.60204e-07
7.9412e-07
7.13863e-07
3.58594e-07
0.00114456
-4.44167e-07
1.1854e-06
1.80842e-07
7.80797e-07
-4.67378e-07
1.19048e-07
-1.14592e-06
6.98088e-07
-0.00114591
3.55502e-07
-1.44309e-06
1.82299e-07
-4.33444e-07
-1.13707e-06
1.30729e-07
7.88721e-07
-4.62728e-07
1.18952e-06
0.00114509
6.96931e-07
-0.00114493
3.50633e-07
-1.47213e-06
1.85227e-07
-4.35951e-07
-1.13404e-06
1.24901e-07
-4.57137e-07
7.8604e-07
-4.11852e-07
-4.16488e-07
0.000273973
-1.1573e-06
0.000275862
-0.000273812
1.46958e-07
1.52488e-07
7.15223e-07
3.57458e-07
0.00114555
-4.41668e-07
1.14801e-06
1.77959e-07
7.86056e-07
-4.72954e-07
1.25086e-07
-1.15141e-06
6.98051e-07
-0.00114578
3.50265e-07
-1.44059e-06
1.79283e-07
-4.30713e-07
-1.13708e-06
1.30974e-07
7.88803e-07
-4.62678e-07
1.15214e-06
0.00114608
6.98249e-07
-0.00114592
3.49467e-07
-1.43504e-06
1.8235e-07
-4.33493e-07
-1.13948e-06
1.30918e-07
-4.62723e-07
7.9134e-07
-0.000273786
1.47048e-07
1.49882e-07
1.48027e-06
1.44038e-06
-3.98477e-07
-4.0399e-07
0.000273788
-1.20576e-06
-1.16575e-06
0.000275667
-0.00027361
1.5447e-07
1.59845e-07
3.48132e-07
0.00114568
-4.36222e-07
1.20173e-06
1.89399e-07
7.95832e-07
-4.59617e-07
-1.13881e-06
1.32511e-07
-1.4776e-06
6.92132e-07
3.48198e-07
0.00114575
-4.36263e-07
1.19914e-06
1.89371e-07
7.95878e-07
-4.56786e-07
-1.13855e-06
1.29624e-07
0.00114608
6.74746e-07
-0.00114595
3.39621e-07
-1.47104e-06
1.93731e-07
-4.28098e-07
-1.12712e-06
1.38229e-07
-4.49677e-07
8.01003e-07
1.20307e-06
0.00114615
6.74787e-07
-0.00114603
3.39816e-07
-1.46847e-06
1.93703e-07
-4.2812e-07
-1.12699e-06
1.35392e-07
-4.46861e-07
8.01129e-07
-3.98744e-07
-4.00966e-07
0.000273769
-1.16551e-06
0.000275648
-0.000273591
1.54561e-07
1.57011e-07
3.47081e-07
0.00114669
-4.30755e-07
1.16167e-06
1.8382e-07
7.95866e-07
-4.59533e-07
-1.13855e-06
1.3274e-07
-1.47206e-06
6.92101e-07
3.48205e-07
0.00114563
-4.3618e-07
1.19372e-06
1.89554e-07
7.9586e-07
-4.56855e-07
-1.13855e-06
1.29561e-07
0.00114709
6.75295e-07
-0.00114696
3.38607e-07
-1.43114e-06
1.88174e-07
-4.22615e-07
-1.12697e-06
1.38459e-07
-4.49574e-07
8.01022e-07
1.19773e-06
0.00114603
6.74723e-07
-0.00114591
3.39635e-07
-1.46288e-06
1.93846e-07
-4.27975e-07
-1.12693e-06
1.3529e-07
-4.46878e-07
8.00984e-07
6.91167e-07
3.47906e-07
0.00114525
-4.33236e-07
1.19079e-06
1.86734e-07
7.87771e-07
-4.53849e-07
1.26822e-07
-1.13008e-06
6.74999e-07
-0.00114651
3.4432e-07
-1.43097e-06
1.8814e-07
-4.22481e-07
-1.12157e-06
1.38322e-07
7.95706e-07
-4.49477e-07
1.19474e-06
0.00114565
6.73827e-07
-0.00114552
3.39485e-07
-1.45984e-06
1.91002e-07
-4.25051e-07
-1.1185e-06
1.32582e-07
-4.43856e-07
7.92928e-07
-3.98959e-07
-4.03552e-07
0.000273755
-1.16264e-06
0.000275623
-0.000273577
1.5439e-07
1.59976e-07
6.92423e-07
3.46704e-07
0.00114624
-4.30703e-07
1.15342e-06
1.83828e-07
7.9309e-07
-4.59375e-07
1.32856e-07
-1.13553e-06
6.74755e-07
-0.00114638
3.39109e-07
-1.42836e-06
1.8509e-07
-4.19871e-07
-1.12142e-06
1.38612e-07
7.95785e-07
-4.49351e-07
1.15737e-06
0.00114664
6.74929e-07
-0.00114652
3.38322e-07
-1.42275e-06
1.8814e-07
-4.22544e-07
-1.12394e-06
1.386e-07
-4.49399e-07
7.98351e-07
-0.000273551
1.54392e-07
1.57263e-07
1.46798e-06
1.42807e-06
-3.85896e-07
-3.91407e-07
0.000273548
-1.2111e-06
-1.1711e-06
0.000275412
-0.000273358
1.61599e-07
1.66996e-07
3.36723e-07
0.00114619
-4.25392e-07
1.20702e-06
1.95154e-07
8.02783e-07
-4.46439e-07
-1.12316e-06
1.40103e-07
-1.46539e-06
6.68842e-07
3.36854e-07
0.00114626
-4.25447e-07
1.20438e-06
1.95089e-07
8.02746e-07
-4.43571e-07
-1.12308e-06
1.37331e-07
0.00114646
6.51072e-07
-0.00114638
3.27814e-07
-1.4588e-06
1.99349e-07
-4.17456e-07
-1.11194e-06
1.45794e-07
-4.36707e-07
8.07706e-07
1.20832e-06
0.00114654
6.5093e-07
-0.00114645
3.28037e-07
-1.45607e-06
1.99255e-07
-4.17591e-07
-1.11159e-06
1.42928e-07
-4.33877e-07
8.07736e-07
-3.86173e-07
-3.88482e-07
0.000273529
-1.17082e-06
0.000275392
-0.000273339
1.61636e-07
1.64103e-07
3.35741e-07
0.0011472
-4.19915e-07
1.16704e-06
1.89618e-07
8.02738e-07
-4.46312e-07
-1.12312e-06
1.40338e-07
-1.45975e-06
6.68767e-07
3.3677e-07
0.00114614
-4.25319e-07
1.19907e-06
1.95305e-07
8.02718e-07
-4.43652e-07
-1.12306e-06
1.37186e-07
0.00114748
6.51456e-07
-0.00114739
3.26748e-07
-1.41892e-06
1.93824e-07
-4.11984e-07
-1.11166e-06
1.45999e-07
-4.36629e-07
8.07755e-07
1.20306e-06
0.00114642
6.50933e-07
-0.00114633
3.27796e-07
-1.45049e-06
1.99551e-07
-4.17426e-07
-1.11171e-06
1.4292e-07
-4.33899e-07
8.07647e-07
6.67893e-07
3.36559e-07
0.00114576
-4.22387e-07
1.19608e-06
1.92417e-07
7.94614e-07
-4.40601e-07
1.34452e-07
-1.11463e-06
6.51277e-07
-0.00114694
3.32356e-07
-1.41854e-06
1.93811e-07
-4.11864e-07
-1.10633e-06
1.45801e-07
8.02357e-07
-4.36549e-07
1.19999e-06
0.00114604
6.50071e-07
-0.00114595
3.277e-07
-1.4476e-06
1.96629e-07
-4.14425e-07
-1.10324e-06
1.40126e-07
-4.30931e-07
7.99632e-07
-3.86405e-07
-3.90954e-07
0.000273515
-1.16807e-06
0.000275367
-0.000273325
1.61661e-07
1.67016e-07
6.68874e-07
3.35401e-07
0.00114675
-4.19873e-07
1.15871e-06
1.89564e-07
7.99996e-07
-4.4613e-07
1.40452e-07
-1.11999e-06
6.50916e-07
-0.00114681
3.27116e-07
-1.41593e-06
1.90831e-07
-4.09233e-07
-1.10626e-06
1.46101e-07
8.02458e-07
-4.36422e-07
1.16267e-06
0.00114703
6.51229e-07
-0.00114695
3.26481e-07
-1.41051e-06
1.93811e-07
-4.11892e-07
-1.1087e-06
1.4608e-07
-4.36423e-07
8.04944e-07
-0.000273299
1.61479e-07
1.64357e-07
1.45552e-06
1.41566e-06
-3.73696e-07
-3.79179e-07
0.000273293
-1.21626e-06
-1.17629e-06
0.000275147
-0.000273096
1.68303e-07
1.73703e-07
3.24702e-07
0.00114654
-4.14839e-07
1.21236e-06
2.00781e-07
8.09399e-07
-4.33515e-07
-1.10828e-06
1.47601e-07
-1.45301e-06
6.44849e-07
3.24988e-07
0.00114661
-4.14939e-07
1.20972e-06
2.00678e-07
8.09314e-07
-4.30673e-07
-1.10793e-06
1.4479e-07
0.0011467
6.26534e-07
-0.00114666
3.20739e-07