/*--------------------------------*- C++ -*----------------------------------*\
| =========                 |                                                 |
| \\      /  F ield         | OpenFOAM: The Open Source CFD Toolbox           |
|  \\    /   O peration     | Version:  2312                                  |
|   \\  /    A nd           | Website:  www.openfoam.com                      |
|    \\/     M anipulation  |                                                 |
\*---------------------------------------------------------------------------*/
FoamFile
{
    version     2.0;
    format      ascii;
    arch        "LSB;label=32;scalar=64";
    class       volScalarField;
    location    "300";
    object      k;
}
// * * * * * * * * * * * * * * * * * * * * * * * * * * * * * * * * * * * * * //

dimensions      [0 2 -2 0 0 0 0];

internalField   nonuniform List<scalar> 
42840
(
1.45936e-05
1.62415e-05
1.62421e-05
1.86728e-05
1.43149e-05
1.64642e-05
1.64649e-05
1.93709e-05
1.40821e-05
1.67738e-05
1.67747e-05
2.01607e-05
1.38947e-05
1.71676e-05
1.71687e-05
2.10342e-05
1.37525e-05
1.76417e-05
1.7643e-05
2.19752e-05
1.36553e-05
1.81923e-05
1.81938e-05
2.29694e-05
1.36031e-05
1.88148e-05
1.88164e-05
2.40241e-05
1.35966e-05
1.9504e-05
1.95059e-05
2.50929e-05
1.36348e-05
2.02547e-05
2.0257e-05
2.61761e-05
1.37188e-05
2.10611e-05
2.10635e-05
2.72549e-05
1.38487e-05
2.19173e-05
2.19195e-05
2.83162e-05
1.40248e-05
2.28166e-05
2.28188e-05
2.93614e-05
1.42471e-05
2.37525e-05
2.37552e-05
3.04152e-05
1.45157e-05
2.47189e-05
2.47221e-05
3.14293e-05
1.48305e-05
2.57099e-05
2.57135e-05
3.24427e-05
1.51912e-05
2.67188e-05
2.6723e-05
3.3415e-05
1.55973e-05
2.77394e-05
2.77442e-05
3.44e-05
1.60479e-05
2.87662e-05
2.87713e-05
3.53083e-05
1.65418e-05
2.97942e-05
2.9799e-05
3.62256e-05
1.70775e-05
3.08194e-05
3.08243e-05
3.71126e-05
1.76532e-05
3.18376e-05
3.18424e-05
3.79987e-05
1.82667e-05
3.28446e-05
3.28494e-05
3.88326e-05
1.89154e-05
3.38366e-05
3.38413e-05
3.96511e-05
1.95966e-05
3.48102e-05
3.4815e-05
4.04449e-05
2.0307e-05
3.57633e-05
3.57681e-05
4.12099e-05
1.86869e-05
1.92193e-05
1.62419e-05
1.62425e-05
1.64007e-05
1.64012e-05
1.86889e-05
1.92398e-05
1.62419e-05
1.62423e-05
1.64007e-05
1.64009e-05
1.62421e-05
1.63998e-05
1.6401e-05
1.86875e-05
1.92173e-05
1.62423e-05
1.64007e-05
1.64013e-05
1.92388e-05
1.93869e-05
1.99908e-05
1.64648e-05
1.64654e-05
1.66893e-05
1.66895e-05
1.93721e-05
2.00143e-05
1.64648e-05
1.64652e-05
1.66892e-05
1.66894e-05
1.64652e-05
1.6688e-05
1.66895e-05
1.9387e-05
1.99908e-05
1.64654e-05
1.6689e-05
1.66897e-05
2.00129e-05
2.01756e-05
2.08691e-05
1.67749e-05
1.67753e-05
1.70625e-05
1.70628e-05
2.0163e-05
2.08396e-05
1.67748e-05
1.67751e-05
1.70621e-05
1.70628e-05
1.67753e-05
1.70611e-05
1.70629e-05
2.01804e-05
2.08676e-05
1.67753e-05
1.70623e-05
1.70629e-05
2.08717e-05
2.1041e-05
2.1769e-05
1.7169e-05
1.71693e-05
1.75173e-05
1.75174e-05
2.10518e-05
2.17704e-05
1.71684e-05
1.71693e-05
1.75164e-05
1.75177e-05
1.71694e-05
1.75154e-05
1.75179e-05
2.10379e-05
2.17924e-05
1.71693e-05
1.75168e-05
1.75177e-05
2.1802e-05
2.19953e-05
2.27818e-05
1.76435e-05
1.76437e-05
1.80494e-05
1.80496e-05
2.19952e-05
2.27532e-05
1.76426e-05
1.7644e-05
1.80484e-05
1.80501e-05
1.76442e-05
1.80472e-05
1.80501e-05
2.19811e-05
2.27543e-05
1.7644e-05
1.80487e-05
1.80499e-05
2.27876e-05
2.29675e-05
2.38075e-05
1.81944e-05
1.81947e-05
1.86544e-05
1.86549e-05
2.29923e-05
2.38079e-05
1.81933e-05
1.81953e-05
1.86532e-05
1.86558e-05
1.81952e-05
1.86521e-05
1.86554e-05
2.29917e-05
2.3811e-05
1.81949e-05
1.86539e-05
1.86552e-05
2.37803e-05
2.39991e-05
2.48653e-05
1.88169e-05
1.88175e-05
1.93277e-05
1.93282e-05
2.40024e-05
2.48641e-05
1.88157e-05
1.88185e-05
1.93262e-05
1.93295e-05
1.88181e-05
1.93251e-05
1.9329e-05
2.40003e-05
2.48667e-05
1.88177e-05
1.93271e-05
1.93286e-05
2.48348e-05
2.50605e-05
2.59394e-05
1.95064e-05
1.95072e-05
2.00639e-05
2.00646e-05
2.50607e-05
2.59299e-05
1.95051e-05
1.95086e-05
2.00624e-05
2.00662e-05
1.95079e-05
2.0061e-05
2.00655e-05
2.50624e-05
2.59321e-05
1.95073e-05
2.00634e-05
2.00647e-05
2.59086e-05
2.61365e-05
2.70047e-05
2.02576e-05
2.02584e-05
2.08575e-05
2.08582e-05
2.61518e-05
2.70022e-05
2.0256e-05
2.026e-05
2.08557e-05
2.08598e-05
2.02594e-05
2.08542e-05
2.08595e-05
2.61326e-05
2.70118e-05
2.02584e-05
2.08566e-05
2.08584e-05
2.69733e-05
2.72249e-05
2.8072e-05
2.10646e-05
2.10654e-05
2.17022e-05
2.17026e-05
2.72155e-05
2.80319e-05
2.10628e-05
2.1067e-05
2.17e-05
2.17045e-05
2.10669e-05
2.16981e-05
2.17046e-05
2.72108e-05
2.80688e-05
2.10656e-05
2.17007e-05
2.17032e-05
2.80433e-05
2.82812e-05
2.91299e-05
2.19211e-05
2.19218e-05
2.25917e-05
2.25919e-05
2.83101e-05
2.90927e-05
2.19191e-05
2.19236e-05
2.25894e-05
2.25938e-05
2.19238e-05
2.25873e-05
2.25943e-05
2.82731e-05
2.90977e-05
2.19222e-05
2.25895e-05
2.25925e-05
2.91166e-05
2.93505e-05
3.0174e-05
2.28207e-05
2.28214e-05
2.35193e-05
2.35197e-05
2.93565e-05
3.01698e-05
2.28186e-05
2.28232e-05
2.35168e-05
2.35218e-05
2.28238e-05
2.35147e-05
2.35228e-05
2.93593e-05
3.01517e-05
2.28217e-05
2.35174e-05
2.35202e-05
3.01508e-05
3.03775e-05
3.11986e-05
2.37569e-05
2.37575e-05
2.44788e-05
2.44791e-05
3.03839e-05
3.12028e-05
2.37545e-05
2.37597e-05
2.44758e-05
2.44817e-05
2.37609e-05
2.44739e-05
2.44829e-05
3.04019e-05
3.11998e-05
2.37579e-05
2.44773e-05
2.44796e-05
3.11702e-05
3.14128e-05
3.22006e-05
2.47235e-05
2.4724e-05
2.54639e-05
2.54644e-05
3.14081e-05
3.22016e-05
2.47206e-05
2.47264e-05
2.54607e-05
2.54671e-05
2.4728e-05
2.54593e-05
2.54688e-05
3.14126e-05
3.22042e-05
2.47244e-05
2.5463e-05
2.54649e-05
3.21751e-05
3.24059e-05
3.31703e-05
2.57143e-05
2.57149e-05
2.64688e-05
2.64693e-05
3.24032e-05
3.31892e-05
2.57112e-05
2.57173e-05
2.64653e-05
2.64722e-05
2.57193e-05
2.64643e-05
2.64737e-05
3.24173e-05
3.3191e-05
2.57152e-05
2.64687e-05
2.64698e-05
3.31862e-05
3.34072e-05
3.41334e-05
2.6723e-05
2.67236e-05
2.74871e-05
2.74874e-05
3.33875e-05
3.41548e-05
2.67196e-05
2.67261e-05
2.74834e-05
2.74903e-05
2.6728e-05
2.74825e-05
2.7492e-05
3.34199e-05
3.41547e-05
2.67238e-05
2.74875e-05
2.7488e-05
3.4136e-05
3.43628e-05
3.51077e-05
2.77436e-05
2.7744e-05
2.8513e-05
2.85131e-05
3.43557e-05
3.51019e-05
2.774e-05
2.77467e-05
2.85092e-05
2.85158e-05
2.7749e-05
2.85083e-05
2.8518e-05
3.43805e-05
3.50805e-05
2.77447e-05
2.85136e-05
2.85138e-05
3.51059e-05
3.5295e-05
3.60094e-05
2.87708e-05
2.87707e-05
2.95412e-05
2.95407e-05
3.53021e-05
3.60201e-05
2.8767e-05
2.87733e-05
2.95371e-05
2.95434e-05
2.87758e-05
2.95363e-05
2.95464e-05
3.53183e-05
3.60197e-05
2.87714e-05
2.95414e-05
2.9542e-05
3.60325e-05
3.62239e-05
3.68906e-05
2.97991e-05
2.97982e-05
3.05679e-05
3.05665e-05
3.62137e-05
3.68976e-05
2.9795e-05
2.98007e-05
3.05637e-05
3.05695e-05
2.9804e-05
3.05626e-05
3.05732e-05
3.62141e-05
3.69199e-05
2.97995e-05
3.05676e-05
3.05685e-05
3.6928e-05
3.71152e-05
3.77584e-05
3.08248e-05
3.0823e-05
3.15884e-05
3.15867e-05
3.7113e-05
3.77707e-05
3.08206e-05
3.0826e-05
3.15841e-05
3.15894e-05
3.08298e-05
3.15831e-05
3.15937e-05
3.71116e-05
3.77635e-05
3.08249e-05
3.15879e-05
3.15886e-05
3.77729e-05
3.79896e-05
3.86065e-05
3.18431e-05
3.18408e-05
3.25983e-05
3.25964e-05
3.79804e-05
3.86361e-05
3.18388e-05
3.18435e-05
3.25939e-05
3.25992e-05
3.18481e-05
3.25932e-05
3.2604e-05
3.79851e-05
3.86238e-05
3.18428e-05
3.25983e-05
3.25986e-05
3.86269e-05
3.88366e-05
3.94433e-05
3.28497e-05
3.28473e-05
3.35939e-05
3.35919e-05
3.88154e-05
3.94561e-05
3.28454e-05
3.28501e-05
3.35895e-05
3.35947e-05
3.28549e-05
3.35893e-05
3.35995e-05
3.88258e-05
3.94321e-05
3.28493e-05
3.35942e-05
3.35942e-05
3.9447e-05
3.96418e-05
4.02326e-05
3.38411e-05
3.38388e-05
3.45722e-05
3.457e-05
3.96243e-05
4.02565e-05
3.38366e-05
3.38415e-05
3.45676e-05
3.45728e-05
3.38463e-05
3.45679e-05
3.45777e-05
3.96562e-05
4.02612e-05
3.38409e-05
3.45728e-05
3.45726e-05
4.0258e-05
4.04435e-05
4.1018e-05
3.48147e-05
3.4812e-05
3.55302e-05
3.5528e-05
4.04252e-05
4.10326e-05
3.481e-05
3.48146e-05
3.55255e-05
3.55307e-05
3.48194e-05
3.55265e-05
3.55352e-05
4.04284e-05
4.10385e-05
3.48142e-05
3.55313e-05
3.55303e-05
4.1024e-05
4.12045e-05
3.57672e-05
3.57645e-05
4.11893e-05
3.57624e-05
3.57672e-05
3.57716e-05
4.11948e-05
3.57666e-05
5.48459e-05
7.01025e-05
7.01246e-05
5.4367e-05
6.95615e-05
6.95433e-05
5.48472e-05
7.01043e-05
7.01262e-05
5.4366e-05
1.45935e-05
1.45935e-05
1.45935e-05
1.43801e-05
1.43801e-05
1.43801e-05
1.43802e-05
3.10587e-05
4.64316e-05
1.47093e-05
1.62884e-05
4.6807e-05
1.46752e-05
3.04976e-05
6.95613e-05
6.95432e-05
3.10595e-05
1.47094e-05
4.64319e-05
1.62893e-05
1.46754e-05
4.68093e-05
3.05019e-05
5.97074e-05
5.97182e-05
1.88868e-05
5.99082e-05
5.99189e-05
5.59479e-05
7.01531e-05
5.55439e-05
7.01748e-05
6.94944e-05
6.94782e-05
5.59488e-05
7.01561e-05
5.55432e-05
7.01762e-05
1.43149e-05
1.43149e-05
1.4315e-05
1.4136e-05
1.4136e-05
1.41359e-05
1.41361e-05
3.27317e-05
4.75495e-05
1.46026e-05
1.65331e-05
3.21835e-05
4.78926e-05
1.45855e-05
6.94944e-05
6.94781e-05
3.27308e-05
1.4603e-05
4.755e-05
1.6534e-05
3.21882e-05
1.45859e-05
4.78947e-05
6.02898e-05
6.02997e-05
1.96158e-05
6.047e-05
6.04796e-05
5.68652e-05
7.01974e-05
5.6523e-05
7.02177e-05
6.94332e-05
6.94188e-05
5.68662e-05
7.01995e-05
5.65222e-05
7.02191e-05
1.4082e-05
1.4082e-05
1.40823e-05
1.39373e-05
1.39373e-05
1.39373e-05
1.39376e-05
3.43392e-05
4.85716e-05
1.45652e-05
1.68641e-05
3.38138e-05
4.88854e-05
1.4567e-05
6.94334e-05
6.9419e-05
3.43401e-05
1.45659e-05
4.8573e-05
1.68652e-05
3.38202e-05
1.45676e-05
4.8888e-05
6.08118e-05
6.0821e-05
2.04341e-05
6.09732e-05
6.09822e-05
5.76343e-05
7.02369e-05
5.73408e-05
7.02548e-05
6.93777e-05
6.93652e-05
5.76355e-05
7.0239e-05
5.73405e-05
7.02568e-05
1.38947e-05
1.38947e-05
1.3895e-05
1.37839e-05
1.37839e-05
1.3784e-05
1.37843e-05
3.58609e-05
4.95028e-05
1.4596e-05
1.72783e-05
3.53705e-05
4.97986e-05
1.46142e-05
6.93782e-05
6.93658e-05
3.58641e-05
1.45971e-05
4.95082e-05
1.72796e-05
3.5375e-05
1.46153e-05
4.97973e-05
6.12815e-05
6.12899e-05
2.13296e-05
6.14269e-05
6.14363e-05
5.82871e-05
7.02715e-05
5.80322e-05
7.02865e-05
6.93276e-05
6.9317e-05
5.82881e-05
7.0274e-05
5.80323e-05
7.02884e-05
1.37525e-05
1.37526e-05
1.37529e-05
1.36756e-05
1.36755e-05
1.36757e-05
1.36761e-05
3.72908e-05
5.03599e-05
1.46959e-05
1.77719e-05
3.68293e-05
5.06296e-05
1.47312e-05
6.93284e-05
6.93178e-05
3.72939e-05
1.46975e-05
5.03648e-05
1.77732e-05
3.68357e-05
1.47327e-05
5.06329e-05
6.17057e-05
6.17146e-05
2.22899e-05
6.18381e-05
6.18476e-05
5.88494e-05
7.03029e-05
5.86257e-05
7.03157e-05
6.92829e-05
6.92742e-05
5.88495e-05
7.03049e-05
5.86258e-05
7.0318e-05
1.36553e-05
1.36555e-05
1.36559e-05
1.36122e-05
1.36122e-05
1.36125e-05
1.36128e-05
3.86182e-05
5.11477e-05
1.48642e-05
1.83408e-05
3.81921e-05
5.13959e-05
1.49163e-05
6.92839e-05
6.92751e-05
3.8622e-05
1.48661e-05
5.11503e-05
1.83425e-05
3.81966e-05
1.49181e-05
5.13987e-05
6.20928e-05
6.21019e-05
2.32975e-05
6.22139e-05
6.22235e-05
5.93417e-05
7.0332e-05
5.91441e-05
7.03443e-05
6.92436e-05
6.9237e-05
5.93414e-05
7.03333e-05
5.91438e-05
7.03461e-05
1.36031e-05
1.36035e-05
1.36038e-05
1.35944e-05
1.35945e-05
1.35949e-05
1.35953e-05
3.98464e-05
5.18754e-05
1.51002e-05
1.89804e-05
3.94535e-05
5.21035e-05
1.5169e-05
6.92446e-05
6.92378e-05
3.98509e-05
1.51022e-05
5.18773e-05
1.89823e-05
3.94577e-05
1.51708e-05
5.2105e-05
6.24487e-05
6.2458e-05
2.43046e-05
6.25607e-05
6.25699e-05
5.97807e-05
7.03603e-05
5.96039e-05
7.03722e-05
6.92101e-05
6.92055e-05
5.97795e-05
7.03614e-05
5.9603e-05
7.0374e-05
1.35967e-05
1.35972e-05
1.35975e-05
1.36203e-05
1.36204e-05
1.3621e-05
1.36214e-05
4.09851e-05
5.25472e-05
1.54023e-05
1.96855e-05
4.0621e-05
5.27581e-05
1.54874e-05
6.92109e-05
6.92062e-05
4.09908e-05
1.54046e-05
5.2551e-05
1.96877e-05
4.06222e-05
1.54895e-05
5.27628e-05
6.27788e-05
6.27878e-05
2.53709e-05
6.2883e-05
6.28928e-05
6.01784e-05
7.03887e-05
6.00174e-05
7.04012e-05
6.91825e-05
6.91801e-05
6.01765e-05
7.039e-05
6.00165e-05
7.04025e-05
1.36348e-05
1.36354e-05
1.36358e-05
1.36927e-05
1.36928e-05
1.36936e-05
1.3694e-05
4.20425e-05
5.3174e-05
1.57695e-05
2.04508e-05
4.16963e-05
5.3371e-05
1.58707e-05
6.91831e-05
6.91805e-05
4.20477e-05
1.5772e-05
5.31771e-05
2.04533e-05
4.16968e-05
1.58726e-05
5.33739e-05
6.30876e-05
6.30965e-05
2.64535e-05
6.31859e-05
6.31953e-05
6.05429e-05
7.04174e-05
6.03944e-05
7.04328e-05
6.91609e-05
6.91605e-05
6.0541e-05
7.04199e-05
6.0394e-05
7.04329e-05
1.37188e-05
1.37196e-05
1.372e-05
1.38109e-05
1.3811e-05
1.38119e-05
1.38125e-05
4.30246e-05
5.37597e-05
1.62001e-05
2.127e-05
4.2694e-05
5.39443e-05
1.63166e-05
6.91613e-05
6.91609e-05
4.3029e-05
1.62026e-05
5.37623e-05
2.12726e-05
4.26941e-05
1.63185e-05
5.39478e-05
6.33791e-05
6.33878e-05
2.75075e-05
6.34722e-05
6.34813e-05
6.08805e-05
7.04495e-05
6.07421e-05
7.04661e-05
6.91452e-05
6.9147e-05
6.08785e-05
7.04523e-05
6.07416e-05
7.04665e-05
1.38486e-05
1.38495e-05
1.38501e-05
1.39752e-05
1.39753e-05
1.39763e-05
1.39771e-05
4.39393e-05
5.43097e-05
1.66914e-05
2.21376e-05
4.36222e-05
5.44849e-05
1.68227e-05
6.91457e-05
6.91475e-05
4.39437e-05
1.6694e-05
5.43133e-05
2.21399e-05
4.36226e-05
1.68248e-05
5.44886e-05
6.36559e-05
6.36645e-05
2.85714e-05
6.3745e-05
6.37537e-05
6.11951e-05
7.0486e-05
6.10672e-05
7.05013e-05
6.91355e-05
6.91395e-05
6.11947e-05
7.04879e-05
6.10665e-05
7.05032e-05
1.40246e-05
1.40256e-05
1.40264e-05
1.41857e-05
1.41858e-05
1.4187e-05
1.41879e-05
4.47967e-05
5.48322e-05
1.72411e-05
2.30467e-05
4.4491e-05
5.4998e-05
1.73864e-05
6.9136e-05
6.914e-05
4.48012e-05
1.7244e-05
5.48329e-05
2.3049e-05
4.44916e-05
1.73888e-05
5.50014e-05
6.39206e-05
6.39289e-05
2.9624e-05
6.40065e-05
6.40148e-05
6.14956e-05
7.05248e-05
6.13724e-05
7.05416e-05
6.91319e-05
6.9138e-05
6.14934e-05
7.05265e-05
6.13719e-05
7.05431e-05
1.42468e-05
1.42481e-05
1.4249e-05
1.44425e-05
1.44425e-05
1.4444e-05
1.44451e-05
4.56048e-05
5.5327e-05
1.78463e-05
2.39907e-05
4.53087e-05
5.54858e-05
1.80049e-05
6.91324e-05
6.91384e-05
4.56093e-05
1.78495e-05
5.53276e-05
2.39937e-05
4.53093e-05
1.80074e-05
5.54916e-05
6.41754e-05
6.41834e-05
3.06683e-05
6.42582e-05
6.42662e-05
6.17819e-05
7.05672e-05
6.16631e-05
7.05862e-05
6.91342e-05
6.91424e-05
6.17793e-05
7.05686e-05
6.16631e-05
7.05868e-05
1.45153e-05
1.45169e-05
1.45179e-05
1.47455e-05
1.47456e-05
1.47475e-05
1.47486e-05
4.63707e-05
5.57999e-05
1.85039e-05
2.49637e-05
4.60829e-05
5.59528e-05
1.8675e-05
6.91346e-05
6.91427e-05
4.63743e-05
1.85075e-05
5.57979e-05
2.49673e-05
4.60838e-05
1.86779e-05
5.59586e-05
6.44216e-05
6.44293e-05
3.17015e-05
6.45018e-05
6.45102e-05
6.20579e-05
7.06118e-05
6.19423e-05
7.06344e-05
6.91422e-05
6.91525e-05
6.20565e-05
7.06146e-05
6.19411e-05
7.06346e-05
1.483e-05
1.48319e-05
1.48329e-05
1.50946e-05
1.50947e-05
1.5097e-05
1.5098e-05
4.70994e-05
5.62506e-05
1.92106e-05
2.59598e-05
4.68197e-05
5.63998e-05
1.93935e-05
6.91425e-05
6.91526e-05
4.71032e-05
1.92143e-05
5.62489e-05
2.59637e-05
4.682e-05
1.93964e-05
5.64065e-05
6.46604e-05
6.46675e-05
3.27081e-05
6.47383e-05
6.47472e-05
6.23265e-05
7.06621e-05
6.22139e-05
7.06864e-05
6.91558e-05
6.91681e-05
6.23247e-05
7.06649e-05
6.22122e-05
7.06865e-05
1.51907e-05
1.51929e-05
1.51938e-05
1.54892e-05
1.54894e-05
1.5492e-05
1.5493e-05
4.77967e-05
5.66827e-05
1.99624e-05
2.69722e-05
4.75237e-05
5.68288e-05
2.0156e-05
6.91558e-05
6.91679e-05
4.78002e-05
1.99666e-05
5.66802e-05
2.69767e-05
4.7524e-05
2.01594e-05
5.68344e-05
6.48924e-05
6.48993e-05
3.36691e-05
6.49686e-05
6.49777e-05
6.25907e-05
7.07166e-05
6.24796e-05
7.07425e-05
6.91746e-05
6.91888e-05
6.25876e-05
7.07193e-05
6.24789e-05
7.07426e-05
1.55967e-05
1.55992e-05
1.56001e-05
1.59285e-05
1.59288e-05
1.59316e-05
1.59326e-05
4.84667e-05
5.70968e-05
2.07556e-05
2.79949e-05
4.81998e-05
5.72404e-05
2.0959e-05
6.91745e-05
6.91884e-05
4.84694e-05
2.07602e-05
5.70937e-05
2.79999e-05
4.81999e-05
2.09627e-05
5.72449e-05
6.51181e-05
6.51252e-05
3.46269e-05
6.51932e-05
6.52023e-05
6.28506e-05
7.07751e-05
6.27409e-05
7.08019e-05
6.91984e-05
6.92143e-05
6.28489e-05
7.07779e-05
6.27386e-05
7.08028e-05
1.60472e-05
1.605e-05
1.60507e-05
1.64115e-05
1.64117e-05
1.64148e-05
1.64159e-05
4.91124e-05
5.74954e-05
2.15864e-05
2.90222e-05
4.88516e-05
5.76358e-05
2.17986e-05
6.91983e-05
6.9214e-05
4.91138e-05
2.15912e-05
5.74926e-05
2.90277e-05
4.88515e-05
2.18024e-05
5.76408e-05
6.53384e-05
6.53456e-05
3.55753e-05
6.54123e-05
6.54213e-05
6.31061e-05
7.08389e-05
6.29997e-05
7.08653e-05
6.92267e-05
6.92444e-05
6.31059e-05
7.08387e-05
6.29972e-05
7.0868e-05
1.65408e-05
1.65439e-05
1.65447e-05
1.69368e-05
1.69369e-05
1.69401e-05
1.69414e-05
4.97353e-05
5.78794e-05
2.24506e-05
3.00498e-05
4.94816e-05
5.80168e-05
2.26704e-05
6.92268e-05
6.92441e-05
4.97357e-05
2.24554e-05
5.78761e-05
3.00549e-05
4.9482e-05
2.26743e-05
5.80213e-05
6.55536e-05
6.55608e-05
3.64814e-05
6.56261e-05
6.56349e-05
6.33609e-05
7.0905e-05
6.32566e-05
7.0933e-05
6.92596e-05
6.92787e-05
6.336e-05
7.09051e-05
6.32531e-05
7.09356e-05
1.70762e-05
1.70796e-05
1.70805e-05
1.75025e-05
1.75025e-05
1.7506e-05
1.75075e-05
5.0336e-05
5.82497e-05
2.33433e-05
3.10738e-05
5.00912e-05
5.83843e-05
2.35695e-05
6.92597e-05
6.92786e-05
5.03366e-05
2.33483e-05
5.82475e-05
3.10788e-05
5.00916e-05
2.35736e-05
5.83894e-05
6.57638e-05
6.5771e-05
3.7355e-05
6.58346e-05
6.58434e-05
6.36141e-05
7.09744e-05
6.351e-05
7.10052e-05
6.92964e-05
6.93169e-05
6.36124e-05
7.09748e-05
6.35093e-05
7.10066e-05
1.76517e-05
1.76552e-05
1.76564e-05
1.81067e-05
1.81067e-05
1.81104e-05
1.8112e-05
5.09175e-05
5.86072e-05
2.42602e-05
3.20896e-05
5.06805e-05
5.87384e-05
2.44921e-05
6.92968e-05
6.9317e-05
5.09193e-05
2.42654e-05
5.86059e-05
3.20945e-05
5.06818e-05
2.44964e-05
5.8744e-05
6.5969e-05
6.59763e-05
3.82037e-05
6.60382e-05
6.6047e-05
6.38663e-05
7.10463e-05
6.37599e-05
7.10794e-05
6.9337e-05
6.93588e-05
6.38633e-05
7.10476e-05
6.37605e-05
7.10806e-05
1.82651e-05
1.82689e-05
1.82701e-05
1.87468e-05
1.8747e-05
1.87508e-05
1.87526e-05
5.14796e-05
5.89521e-05
2.51985e-05
3.30932e-05
5.12503e-05
5.90801e-05
2.54351e-05
6.93376e-05
6.93591e-05
5.14831e-05
2.52039e-05
5.89516e-05
3.30981e-05
5.12524e-05
2.54398e-05
5.90861e-05
6.61695e-05
6.61768e-05
3.90401e-05
6.6237e-05
6.62458e-05
6.41138e-05
7.1122e-05
6.40095e-05
7.11562e-05
6.93811e-05
6.94041e-05
6.41115e-05
7.11232e-05
6.40096e-05
7.11572e-05
1.89139e-05
1.89178e-05
1.89192e-05
1.94201e-05
1.94205e-05
1.94244e-05
1.94263e-05
5.20233e-05
5.92853e-05
2.61545e-05
3.40809e-05
5.18018e-05
5.94102e-05
2.63949e-05
6.93818e-05
6.94047e-05
5.20265e-05
2.61601e-05
5.92854e-05
3.40858e-05
5.18038e-05
2.63997e-05
5.94163e-05
6.63652e-05
6.63727e-05
3.98512e-05
6.64307e-05
6.64398e-05
6.43578e-05
7.12002e-05
6.42542e-05
7.12353e-05
6.94284e-05
6.94527e-05
6.43561e-05
7.12025e-05
6.42534e-05
7.12351e-05
1.95951e-05
1.95991e-05
1.96006e-05
2.01234e-05
2.0124e-05
2.0128e-05
2.01299e-05
5.2546e-05
5.96071e-05
2.71235e-05
3.50498e-05
5.23332e-05
5.97287e-05
2.73664e-05
6.94294e-05
6.94537e-05
5.25499e-05
2.71292e-05
5.96074e-05
3.50547e-05
5.23351e-05
2.73711e-05
5.97345e-05
6.65561e-05
6.65636e-05
4.06354e-05
6.66199e-05
6.66292e-05
6.45968e-05
7.12807e-05
6.44957e-05
7.13166e-05
6.94789e-05
6.95044e-05
6.45953e-05
7.1283e-05
6.44946e-05
7.13165e-05
2.03055e-05
2.03096e-05
2.03111e-05
5.3049e-05
5.99178e-05
2.81002e-05
3.59974e-05
5.28455e-05
6.00368e-05
2.83441e-05
6.94802e-05
6.95056e-05
5.30522e-05
2.81058e-05
5.99178e-05
3.60024e-05
5.28467e-05
2.83491e-05
6.00412e-05
6.67425e-05
6.67502e-05
4.14217e-05
6.68045e-05
6.68137e-05
6.95595e-05
6.95413e-05
6.95625e-05
6.95443e-05
5.97108e-05
5.97231e-05
1.88694e-05
5.99123e-05
5.99234e-05
6.95079e-05
6.95252e-05
6.95109e-05
6.95282e-05
1.90247e-05
6.02003e-05
6.02114e-05
6.00106e-05
6.00217e-05
5.48457e-05
7.00972e-05
7.0123e-05
5.43658e-05
3.10587e-05
4.643e-05
1.47096e-05
1.62892e-05
4.68143e-05
1.46757e-05
3.05011e-05
3.10604e-05
4.6433e-05
1.47096e-05
1.62897e-05
4.68149e-05
1.46757e-05
3.05016e-05
5.49825e-05
7.015e-05
7.01292e-05
5.54223e-05
5.49809e-05
7.01485e-05
7.01242e-05
5.54218e-05
3.13496e-05
1.63423e-05
4.73674e-05
1.46223e-05
4.7e-05
1.46478e-05
3.19003e-05
3.13467e-05
1.63429e-05
4.73695e-05
1.46223e-05
4.70057e-05
1.46478e-05
3.19027e-05
5.97175e-05
5.97108e-05
1.88688e-05
5.9918e-05
5.99112e-05
6.95597e-05
6.95416e-05
6.951e-05
6.95272e-05
1.90243e-05
6.02066e-05
6.01997e-05
6.00168e-05
6.00112e-05
6.95082e-05
6.95253e-05
3.10613e-05
4.64363e-05
1.47094e-05
1.62892e-05
4.68136e-05
1.46754e-05
3.04971e-05
5.48469e-05
7.00975e-05
7.0122e-05
5.43657e-05
3.10578e-05
1.47094e-05
4.64364e-05
1.62895e-05
1.46754e-05
4.68118e-05
3.05009e-05
5.49816e-05
7.01516e-05
7.0131e-05
5.54233e-05
3.13448e-05
1.63423e-05
4.73692e-05
1.46221e-05
4.70086e-05
1.46476e-05
3.19011e-05
5.49809e-05
7.01469e-05
7.0126e-05
5.5423e-05
3.13475e-05
1.63427e-05
1.4622e-05
4.73672e-05
1.46476e-05
4.7008e-05
3.19041e-05
5.4837e-05
7.01013e-05
7.01233e-05
5.43709e-05
3.10627e-05
1.47097e-05
4.64278e-05
1.62894e-05
1.46757e-05
4.68132e-05
3.0497e-05
5.48424e-05
7.00964e-05
7.01222e-05
5.43679e-05
3.13461e-05
1.63418e-05
4.73619e-05
1.46217e-05
4.7003e-05
1.46473e-05
3.19007e-05
5.49857e-05
7.01487e-05
7.01282e-05
5.54134e-05
3.13449e-05
1.63427e-05
1.46223e-05
4.73673e-05
1.46479e-05
4.69993e-05
3.1903e-05
5.49831e-05
7.01477e-05
7.01233e-05
5.54184e-05
5.97173e-05
5.97114e-05
1.88675e-05
5.99174e-05
5.99107e-05
6.95599e-05
6.95418e-05
6.95099e-05
6.95271e-05
1.90255e-05
6.02053e-05
6.01999e-05
6.00164e-05
6.00111e-05
6.95086e-05
6.95258e-05
3.10581e-05
1.47095e-05
4.64368e-05
1.62897e-05
1.46755e-05
4.6813e-05
3.04998e-05
5.48401e-05
7.01024e-05
7.01243e-05
5.43732e-05
5.48398e-05
7.01007e-05
7.01226e-05
5.43729e-05
3.13499e-05
1.63425e-05
1.4622e-05
4.73636e-05
1.46476e-05
4.70027e-05
3.19002e-05
3.13489e-05
1.63429e-05
1.46221e-05
4.73698e-05
1.46477e-05
4.70069e-05
3.19018e-05
5.49878e-05
7.01498e-05
7.01293e-05
5.54162e-05
5.49875e-05
7.01478e-05
7.01274e-05
5.54158e-05
6.95594e-05
6.95412e-05
6.95623e-05
6.9544e-05
1.90102e-05
6.01967e-05
6.02082e-05
6.0007e-05
6.00173e-05
6.95079e-05
6.9525e-05
6.95105e-05
6.95279e-05
6.94924e-05
6.9476e-05
6.94953e-05
6.9479e-05
6.02945e-05
6.03041e-05
1.95947e-05
6.04729e-05
6.04848e-05
6.94456e-05
6.94609e-05
6.94486e-05
6.94639e-05
1.97736e-05
6.07323e-05
6.07422e-05
6.05622e-05
6.05725e-05
5.59471e-05
7.01494e-05
5.55426e-05
7.01724e-05
3.27318e-05
4.75468e-05
1.46032e-05
1.65341e-05
3.21871e-05
4.7898e-05
1.45862e-05
3.27343e-05
4.75514e-05
1.46031e-05
1.65346e-05
3.21842e-05
4.79014e-05
1.45861e-05
5.60557e-05
7.01971e-05
7.01755e-05
5.64273e-05
5.60545e-05
7.01946e-05
7.01729e-05
5.64263e-05
3.30098e-05
1.66092e-05
4.84031e-05
1.45675e-05
4.80706e-05
1.4576e-05
3.35457e-05
3.3007e-05
1.66096e-05
4.84088e-05
1.45673e-05
4.80724e-05
1.45758e-05
3.3546e-05
6.02995e-05
6.02943e-05
1.96158e-05
6.04793e-05
6.0472e-05
6.94925e-05
6.94762e-05
6.94478e-05
6.94631e-05
1.97563e-05
6.07376e-05
6.07302e-05
6.05674e-05
6.0562e-05
6.94457e-05
6.9461e-05
3.27323e-05
4.75552e-05
1.4603e-05
1.65341e-05
3.21851e-05
4.78996e-05
1.4586e-05
5.59484e-05
7.01514e-05
5.55421e-05
7.01709e-05
3.27323e-05
1.4603e-05
4.75539e-05
1.65344e-05
3.21825e-05
1.4586e-05
4.78974e-05
5.60551e-05
7.01991e-05
7.01777e-05
5.64283e-05
3.3009e-05
1.66091e-05
4.84085e-05
1.45673e-05
4.80767e-05
1.45758e-05
3.35458e-05
5.60542e-05
7.01932e-05
7.01751e-05
5.64276e-05
3.30081e-05
1.66094e-05
1.45672e-05
4.84061e-05
1.45758e-05
4.80755e-05
3.35461e-05
5.59389e-05
7.01531e-05
5.55464e-05
7.01724e-05
3.27323e-05
1.46033e-05
4.75469e-05
1.65345e-05
3.21839e-05
1.45862e-05
4.78931e-05
5.59438e-05
7.01485e-05
5.55443e-05
7.01715e-05
3.30059e-05
1.66083e-05
4.83998e-05
1.45667e-05
4.8072e-05
1.45752e-05
3.3545e-05
5.60575e-05
7.01944e-05
7.01766e-05
5.6418e-05
3.30085e-05
1.66095e-05
1.45674e-05
4.84016e-05
1.4576e-05
4.80715e-05
3.35448e-05
5.60556e-05
7.01935e-05
7.01721e-05
5.64229e-05
6.02993e-05
6.02945e-05
1.95944e-05
6.04778e-05
6.04734e-05
6.94931e-05
6.94768e-05
6.94478e-05
6.94632e-05
1.9773e-05
6.0736e-05
6.07321e-05
6.05677e-05
6.05631e-05
6.94465e-05
6.94618e-05
3.27303e-05
1.46031e-05
4.75504e-05
1.65347e-05
3.21867e-05
1.45861e-05
4.79002e-05
5.59416e-05
7.01544e-05
5.55485e-05
7.01737e-05
5.59411e-05
7.0152e-05
5.5548e-05
7.01721e-05
3.30123e-05
1.6609e-05
1.45672e-05
4.84019e-05
1.45757e-05
4.8072e-05
3.35443e-05
3.30116e-05
1.66096e-05
1.45675e-05
4.84085e-05
1.4576e-05
4.80725e-05
3.35434e-05
5.60598e-05
7.01958e-05
7.01779e-05
5.64211e-05
5.6059e-05
7.01947e-05
7.01735e-05
5.64203e-05
6.94923e-05
6.94761e-05
6.94948e-05
6.94783e-05
1.97556e-05
6.07284e-05
6.07382e-05
6.05585e-05
6.0567e-05
6.94458e-05
6.9461e-05
6.94478e-05
6.94632e-05
6.94311e-05
6.94167e-05
6.9434e-05
6.94195e-05
6.08162e-05
6.08254e-05
2.04326e-05
6.09776e-05
6.09866e-05
6.93893e-05
6.94027e-05
6.9392e-05
6.94054e-05
2.05885e-05
6.12097e-05
6.12188e-05
6.10574e-05
6.10658e-05
5.68641e-05
7.01949e-05
5.65216e-05
7.02153e-05
3.43409e-05
4.85719e-05
1.45661e-05
1.68655e-05
3.38175e-05
4.88879e-05
1.45678e-05
3.43391e-05
4.85718e-05
1.45659e-05
1.68658e-05
3.38157e-05
4.88924e-05
1.45676e-05
5.69497e-05
7.02368e-05
7.02179e-05
5.72661e-05
5.69484e-05
7.02338e-05
7.02162e-05
5.72651e-05
3.4605e-05
1.69616e-05
4.93542e-05
1.45824e-05
4.90506e-05
1.45727e-05
3.51139e-05
3.46052e-05
1.6962e-05
4.93557e-05
1.45822e-05
4.90512e-05
1.45725e-05
3.51147e-05
6.0821e-05
6.08147e-05
2.0435e-05
6.09822e-05
6.09749e-05
6.94309e-05
6.94167e-05
6.93913e-05
6.94048e-05
2.05914e-05
6.12144e-05
6.12068e-05
6.10619e-05
6.10555e-05
6.93891e-05
6.94023e-05
3.4341e-05
4.85749e-05
1.45659e-05
1.68652e-05
3.38173e-05
4.88945e-05
1.45677e-05
5.68655e-05
7.0197e-05
5.65214e-05
7.02145e-05
3.43403e-05
1.45658e-05
4.85749e-05
1.68657e-05
3.38163e-05
1.45676e-05
4.88913e-05
5.69491e-05
7.0239e-05
7.02194e-05
5.72673e-05
3.46049e-05
1.69613e-05
4.93572e-05
1.45823e-05
4.90521e-05
1.45725e-05
3.51163e-05
5.69484e-05
7.0234e-05
7.02173e-05
5.72664e-05
3.46054e-05
1.69619e-05
1.45822e-05
4.9356e-05
1.45725e-05
4.90529e-05
3.51123e-05
5.68559e-05
7.01981e-05
5.65243e-05
7.02149e-05
3.43419e-05
1.45661e-05
4.85709e-05
1.68659e-05
3.38162e-05
1.45678e-05
4.88907e-05
5.68608e-05
7.01944e-05
5.65226e-05
7.02132e-05
3.46029e-05
1.69605e-05
4.93539e-05
1.45814e-05
4.90487e-05
1.45717e-05
3.51096e-05
5.69504e-05
7.02339e-05
7.02183e-05
5.72569e-05
3.46022e-05
1.69621e-05
1.45824e-05
4.93552e-05
1.45728e-05
4.90463e-05
3.51145e-05
5.6949e-05
7.02318e-05
7.02158e-05
5.72618e-05
6.08206e-05
6.08169e-05
2.04104e-05
6.09818e-05
6.09775e-05
6.9432e-05
6.94175e-05
6.93917e-05
6.94051e-05
2.06096e-05
6.12145e-05
6.12104e-05
6.10615e-05
6.10582e-05
6.93901e-05
6.94035e-05
3.43389e-05
1.45662e-05
4.85709e-05
1.68659e-05
3.38199e-05
1.4568e-05
4.88935e-05
5.68592e-05
7.01997e-05
5.65264e-05
7.02166e-05
5.68583e-05
7.01949e-05
5.65253e-05
7.02153e-05
3.46087e-05
1.69614e-05
1.45822e-05
4.93526e-05
1.45726e-05
4.90507e-05
3.51126e-05
3.46071e-05
1.6962e-05
1.45827e-05
4.93561e-05
1.4573e-05
4.90484e-05
3.51119e-05
5.69528e-05
7.02358e-05
7.02201e-05
5.72603e-05
5.69515e-05
7.0234e-05
7.02154e-05
5.72591e-05
6.94312e-05
6.94168e-05
6.94331e-05
6.94186e-05
2.05894e-05
6.12058e-05
6.12148e-05
6.10525e-05
6.10615e-05
6.93895e-05
6.94028e-05
6.93911e-05
6.94046e-05
6.93758e-05
6.93633e-05
6.93784e-05
6.9366e-05
6.12859e-05
6.12942e-05
2.1299e-05
6.14312e-05
6.14397e-05
6.93386e-05
6.93501e-05
6.93413e-05
6.93528e-05
2.15165e-05
6.16417e-05
6.165e-05
6.15033e-05
6.15114e-05
5.76332e-05
7.02347e-05
5.73394e-05
7.02521e-05
3.58676e-05
4.95062e-05
1.45971e-05
1.72799e-05
3.5372e-05
4.97994e-05
1.46153e-05
3.58652e-05
4.95089e-05
1.45969e-05
1.72802e-05
3.53704e-05
4.98011e-05
1.46151e-05
5.77003e-05
7.0271e-05
7.02548e-05
5.79736e-05
5.7699e-05
7.0268e-05
7.02523e-05
5.79724e-05
3.61132e-05
1.73965e-05
5.02262e-05
1.46653e-05
4.9944e-05
1.46386e-05
3.65925e-05
3.61136e-05
1.73967e-05
5.02273e-05
1.46652e-05
4.99457e-05
1.46384e-05
3.65905e-05
6.129e-05
6.12833e-05
2.12994e-05
6.14355e-05
6.14273e-05
6.93751e-05
6.93629e-05
6.93405e-05
6.9352e-05
2.15162e-05
6.16462e-05
6.16374e-05
6.15076e-05
6.15006e-05
6.9338e-05
6.93493e-05
3.58646e-05
4.95102e-05
1.4597e-05
1.72793e-05
3.53707e-05
4.98027e-05
1.46152e-05
5.76345e-05
7.0236e-05
5.73396e-05
7.02512e-05
3.58639e-05
1.4597e-05
4.951e-05
1.72803e-05
3.53726e-05
1.46152e-05
4.98002e-05
5.77002e-05
7.0273e-05
7.0257e-05
5.79747e-05
3.61161e-05
1.73957e-05
5.02271e-05
1.46653e-05
4.99477e-05
1.46385e-05
3.65922e-05
5.76993e-05
7.02682e-05
7.02542e-05
5.79736e-05
3.61162e-05
1.73969e-05
1.46654e-05
5.02264e-05
1.46386e-05
4.99488e-05
3.65914e-05
5.76252e-05
7.02368e-05
5.73409e-05
7.02516e-05
3.58643e-05
1.45972e-05
4.95037e-05
1.72805e-05
3.53689e-05
1.46154e-05
4.97982e-05
5.763e-05
7.02348e-05
5.73398e-05
7.02499e-05
3.61132e-05
1.73949e-05
5.02234e-05
1.46641e-05
4.99403e-05
1.46374e-05
3.65893e-05
5.76998e-05
7.02682e-05
7.02542e-05
5.79648e-05
3.61122e-05
1.7397e-05
1.46654e-05
5.02226e-05
1.46388e-05
4.99426e-05
3.65903e-05
5.7699e-05
7.02667e-05
7.02526e-05
5.79694e-05
6.12903e-05
6.12865e-05
2.1329e-05
6.14357e-05
6.14316e-05
6.93765e-05
6.9364e-05
6.93411e-05
6.93527e-05
2.14968e-05
6.16465e-05
6.16417e-05
6.15083e-05
6.15041e-05
6.93392e-05
6.93508e-05
3.58635e-05
1.45976e-05
4.95068e-05
1.72803e-05
3.53737e-05
1.46157e-05
4.97992e-05
5.76286e-05
7.02386e-05
5.73433e-05
7.02539e-05
5.76276e-05
7.02344e-05
5.73421e-05
7.02518e-05
3.61176e-05
1.7396e-05
1.46654e-05
5.02227e-05
1.46387e-05
4.99458e-05
3.65912e-05
3.6116e-05
1.73968e-05
1.4666e-05
5.02249e-05
1.46392e-05
4.99459e-05
3.65909e-05
5.77022e-05
7.02702e-05
7.02558e-05
5.7968e-05
5.7701e-05
7.02683e-05
7.02525e-05
5.79669e-05
6.93759e-05
6.93634e-05
6.93776e-05
6.93651e-05
2.14983e-05
6.16372e-05
6.16462e-05
6.14987e-05
6.15077e-05
6.93387e-05
6.93502e-05
6.93405e-05
6.9352e-05
6.93258e-05
6.93152e-05
6.93284e-05
6.93179e-05
6.17099e-05
6.17185e-05
2.22553e-05
6.18427e-05
6.18509e-05
6.92933e-05
6.93029e-05
6.92959e-05
6.93055e-05
2.24893e-05
6.20346e-05
6.20427e-05
6.19078e-05
6.19167e-05
5.8286e-05
7.02681e-05
5.80308e-05
7.02845e-05