/*--------------------------------*- C++ -*----------------------------------*\
| =========                 |                                                 |
| \\      /  F ield         | OpenFOAM: The Open Source CFD Toolbox           |
|  \\    /   O peration     | Version:  2312                                  |
|   \\  /    A nd           | Website:  www.openfoam.com                      |
|    \\/     M anipulation  |                                                 |
\*---------------------------------------------------------------------------*/
FoamFile
{
    version     2.0;
    format      ascii;
    arch        "LSB;label=32;scalar=64";
    class       volScalarField;
    location    "300";
    object      nut;
}
// * * * * * * * * * * * * * * * * * * * * * * * * * * * * * * * * * * * * * //

dimensions      [0 2 -1 0 0 0 0];

internalField   nonuniform List<scalar> 
42840
(
0.00014595
9.86081e-05
9.86077e-05
8.18605e-05
0.00014192
9.62737e-05
9.62744e-05
8.18154e-05
0.000137978
9.44579e-05
9.44588e-05
8.23406e-05
0.000134138
9.31605e-05
9.31629e-05
8.32483e-05
0.000130458
9.23683e-05
9.23714e-05
8.47236e-05
0.000126963
9.20633e-05
9.20671e-05
8.64016e-05
0.000123689
9.22162e-05
9.22208e-05
8.85059e-05
0.00012068
9.27944e-05
9.28017e-05
9.07814e-05
0.000117948
9.37648e-05
9.37733e-05
9.32034e-05
0.000115534
9.50904e-05
9.51001e-05
9.56838e-05
0.000113455
9.67363e-05
9.67437e-05
9.81627e-05
0.000111728
9.86639e-05
9.86689e-05
0.000100647
0.000110362
0.000100835
0.000100841
0.000103329
0.000109364
0.000103218
0.000103227
0.000105903
0.000108731
0.000105786
0.000105797
0.000108624
0.000108462
0.000108507
0.000108522
0.000111228
0.000108551
0.000111352
0.00011137
0.000114059
0.000108987
0.000114299
0.000114317
0.000116546
0.000109757
0.000117326
0.000117343
0.000119238
0.000110848
0.000120421
0.000120439
0.000121873
0.000112242
0.000123565
0.000123582
0.000124637
0.000113921
0.000126738
0.000126756
0.000127193
0.000115866
0.000129927
0.000129943
0.000129778
0.000118057
0.000133114
0.00013313
0.000132326
0.000120472
0.00013629
0.000136305
0.000134791
8.19529e-05
8.18915e-05
9.85798e-05
9.85719e-05
9.67814e-05
9.67728e-05
8.19768e-05
8.20585e-05
9.86024e-05
9.85723e-05
9.68043e-05
9.67716e-05
9.85825e-05
9.68047e-05
9.67848e-05
8.19602e-05
8.18988e-05
9.85935e-05
9.68066e-05
9.67948e-05
8.2214e-05
8.20907e-05
8.23405e-05
9.62461e-05
9.62395e-05
9.48388e-05
9.48295e-05
8.19704e-05
8.25372e-05
9.62684e-05
9.62387e-05
9.48606e-05
9.48275e-05
9.62519e-05
9.48594e-05
9.48413e-05
8.21305e-05
8.23122e-05
9.62616e-05
9.48623e-05
9.48495e-05
8.26131e-05
8.25596e-05
8.33879e-05
9.4433e-05
9.44262e-05
9.34138e-05
9.34054e-05
8.24643e-05
8.31421e-05
9.44548e-05
9.44251e-05
9.34334e-05
9.34047e-05
9.44389e-05
9.34336e-05
9.34195e-05
8.26109e-05
8.33734e-05
9.44466e-05
9.34376e-05
9.34255e-05
8.35974e-05
8.35252e-05
8.44654e-05
9.31393e-05
9.31311e-05
9.24991e-05
9.24902e-05
8.35833e-05
8.4439e-05
9.31579e-05
9.31309e-05
9.25175e-05
9.2492e-05
9.31455e-05
9.2516e-05
9.25077e-05
8.34601e-05
8.46631e-05
9.31519e-05
9.25213e-05
9.2513e-05
8.4889e-05
8.49966e-05
8.64568e-05
9.23511e-05
9.23419e-05
9.20781e-05
9.20682e-05
8.49901e-05
8.6092e-05
9.23675e-05
9.23432e-05
9.20946e-05
9.20696e-05
9.23606e-05
9.20911e-05
9.20883e-05
8.48412e-05
8.61366e-05
9.23655e-05
9.20963e-05
9.20926e-05
8.6559e-05
8.64427e-05
8.8325e-05
9.20478e-05
9.20391e-05
9.21184e-05
9.2112e-05
8.66915e-05
8.82786e-05
9.20633e-05
9.20416e-05
9.21334e-05
9.2115e-05
9.20587e-05
9.2133e-05
9.21324e-05
8.66681e-05
8.82808e-05
9.20633e-05
9.21394e-05
9.21367e-05
8.82371e-05
8.83636e-05
9.05396e-05
9.21999e-05
9.2195e-05
9.25955e-05
9.25886e-05
8.85219e-05
9.0415e-05
9.22143e-05
9.21975e-05
9.2609e-05
9.25934e-05
9.22144e-05
9.26078e-05
9.26104e-05
8.8457e-05
9.04198e-05
9.22188e-05
9.26164e-05
9.26148e-05
9.02806e-05
9.0555e-05
9.28491e-05
9.27803e-05
9.2777e-05
9.34725e-05
9.34684e-05
9.06143e-05
9.26779e-05
9.27941e-05
9.27807e-05
9.34869e-05
9.3472e-05
9.27968e-05
9.34846e-05
9.34879e-05
9.06453e-05
9.26645e-05
9.28009e-05
9.34939e-05
9.34925e-05
9.25017e-05
9.29093e-05
9.52221e-05
9.37543e-05
9.37507e-05
9.47174e-05
9.47132e-05
9.30707e-05
9.507e-05
9.37659e-05
9.37548e-05
9.47301e-05
9.47164e-05
9.37703e-05
9.4725e-05
9.47339e-05
9.29133e-05
9.51274e-05
9.37733e-05
9.47351e-05
9.47357e-05
9.48485e-05
9.54049e-05
9.77326e-05
9.50842e-05
9.50808e-05
9.62892e-05
9.62836e-05
9.54058e-05
9.72577e-05
9.50952e-05
9.5084e-05
9.62993e-05
9.62876e-05
9.51022e-05
9.62925e-05
9.63044e-05
9.53933e-05
9.75486e-05
9.51036e-05
9.63025e-05
9.63071e-05
9.72967e-05
9.77459e-05
0.000100252
9.67319e-05
9.6729e-05
9.81494e-05
9.81451e-05
9.81311e-05
9.99071e-05
9.67416e-05
9.67328e-05
9.81595e-05
9.81482e-05
9.67488e-05
9.81531e-05
9.81645e-05
9.78188e-05
9.98407e-05
9.67512e-05
9.81597e-05
9.81669e-05
9.99391e-05
0.00010036
0.000102836
9.86584e-05
9.86581e-05
0.000100263
0.000100261
0.000100606
0.000102856
9.86678e-05
9.86617e-05
0.000100271
0.000100266
9.86756e-05
0.000100268
0.000100282
0.000100627
0.000102477
9.86775e-05
0.000100275
0.000100279
0.000102465
0.00010286
0.000105448
0.00010083
0.000100831
0.000102595
0.000102595
0.000102948
0.000105489
0.000100838
0.000100836
0.000102602
0.000102602
0.000100853
0.0001026
0.00010262
0.00010324
0.000105237
0.000100849
0.00010261
0.000102613
0.00010505
0.000105575
0.000108067
0.000103214
0.000103216
0.000105119
0.00010512
0.000105555
0.000108075
0.000103221
0.000103222
0.000105126
0.000105127
0.00010324
0.000105124
0.000105147
0.000105773
0.000107869
0.000103233
0.000105136
0.000105138
0.000107691
0.000108164
0.000110629
0.000105781
0.000105784
0.000107805
0.000107805
0.000108148
0.000110751
0.000105788
0.00010579
0.00010781
0.000107815
0.00010581
0.00010781
0.000107832
0.000108433
0.000110535
0.000105801
0.000107825
0.000107825
0.000110536
0.000110973
0.0001133
0.000108503
0.000108505
0.000110624
0.000110622
0.000110834
0.000113435
0.000108507
0.000108513
0.000110628
0.000110632
0.00010853
0.000110626
0.00011065
0.000111229
0.000113211
0.000108523
0.000110645
0.000110644
0.000113113
0.000113622
0.000116184
0.00011135
0.00011135
0.000113549
0.000113546
0.000113565
0.000116147
0.000111353
0.000111359
0.000113553
0.000113556
0.000111379
0.00011355
0.000113576
0.000113906
0.000115787
0.000111371
0.00011357
0.000113569
0.000115987
0.00011626
0.000118745
0.0001143
0.000114297
0.000116559
0.000116553
0.000116307
0.000118819
0.000114302
0.000114306
0.000116561
0.000116563
0.000114326
0.000116558
0.000116586
0.000116585
0.000118611
0.000114318
0.000116576
0.00011658
0.000118714
0.000119039
0.000121318
0.000117329
0.000117322
0.000119642
0.000119631
0.000118972
0.000121369
0.000117331
0.000117331
0.000119643
0.000119643
0.000117355
0.000119637
0.00011967
0.000119143
0.000121312
0.000117348
0.000119655
0.000119662
0.000121381
0.000121712
0.00012394
0.000120428
0.000120416
0.000122777
0.000122765
0.0001217
0.000124023
0.000120429
0.000120427
0.000122777
0.000122774
0.000120453
0.000122772
0.000122803
0.000121852
0.000123782
0.000120445
0.000122788
0.000122794
0.000123852
0.000124408
0.000126473
0.000123574
0.000123558
0.000125946
0.000125932
0.000124345
0.000126755
0.000123574
0.000123568
0.000125945
0.000125942
0.000123597
0.000125939
0.000125972
0.00012454
0.000126485
0.000123588
0.000125957
0.000125962
0.000126517
0.000127178
0.000129159
0.000126747
0.000126731
0.000129131
0.000129117
0.00012691
0.000129247
0.000126747
0.00012674
0.00012913
0.000129125
0.00012677
0.000129124
0.000129155
0.000127141
0.000129059
0.000126759
0.000129142
0.000129146
0.000129092
0.000129714
0.000131653
0.000129934
0.000129918
0.000132319
0.000132305
0.000129564
0.000131814
0.000129932
0.000129927
0.000132318
0.000132314
0.000129954
0.000132315
0.000132342
0.000129794
0.000131835
0.000129945
0.000132332
0.000132334
0.000131726
0.000132318
0.00013424
0.000133121
0.000133104
0.000135498
0.000135484
0.000132181
0.000134341
0.000133119
0.000133112
0.000135495
0.000135491
0.000133138
0.000135496
0.000135516
0.000132198
0.000134372
0.00013313
0.000135512
0.00013551
0.000134242
0.000134773
0.000136294
0.000136279
0.000134654
0.000136292
0.000136286
0.000136309
0.000134674
0.000136302
7.20338e-05
4.95811e-05
4.95851e-05
7.1213e-05
2.36161e-05
2.3613e-05
7.204e-05
4.95761e-05
4.95798e-05
7.1207e-05
0.000145945
0.000145942
0.000145939
0.000142909
0.000142904
0.000142901
0.000142899
6.99337e-05
6.76204e-05
0.000122022
9.79692e-05
6.82581e-05
0.000121039
6.89148e-05
2.36152e-05
2.36121e-05
6.99094e-05
0.000122003
6.76516e-05
9.79717e-05
0.000121039
6.82285e-05
6.89496e-05
6.20585e-05
6.20453e-05
8.19421e-05
6.23575e-05
6.23718e-05
7.37854e-05
4.95961e-05
7.30552e-05
4.96062e-05
2.36047e-05
2.3602e-05
7.37858e-05
4.95941e-05
7.30494e-05
4.95996e-05
0.000141916
0.000141913
0.000141911
0.000138938
0.000138933
0.00013893
0.000138928
7.29386e-05
6.9421e-05
0.000118292
9.57655e-05
7.18916e-05
7.00238e-05
0.000117373
2.36038e-05
2.3601e-05
7.28984e-05
0.000118273
6.94519e-05
9.57682e-05
7.19268e-05
0.000117374
6.9997e-05
6.29268e-05
6.29145e-05
8.23775e-05
6.32098e-05
6.32129e-05
7.53072e-05
4.96107e-05
7.46762e-05
4.96215e-05
2.35943e-05
2.35919e-05
7.53205e-05
4.96057e-05
7.46622e-05
4.96156e-05
0.000137974
0.000137971
0.000137969
0.000135086
0.000135082
0.000135078
0.000135074
7.58882e-05
7.11174e-05
0.000114856
9.40811e-05
7.48948e-05
7.16886e-05
0.000114041
2.35935e-05
2.3591e-05
7.58673e-05
0.000114842
7.11491e-05
9.4084e-05
7.4924e-05
0.000114044
7.16635e-05
6.37292e-05
6.37183e-05
8.30591e-05
6.39905e-05
6.3996e-05
7.66679e-05
4.9625e-05
7.61001e-05
4.96344e-05
2.35849e-05
2.35828e-05
7.66808e-05
4.96197e-05
7.60855e-05
4.96291e-05
0.000134134
0.00013413
0.000134131
0.000131369
0.000131365
0.000131361
0.00013136
7.87961e-05
7.27037e-05
0.000111741
9.29114e-05
7.78382e-05
7.32695e-05
0.000111004
2.35841e-05
2.3582e-05
7.8789e-05
0.000111728
7.27464e-05
9.29161e-05
7.78592e-05
0.000111009
7.32336e-05
6.44717e-05
6.44649e-05
8.41748e-05
6.47112e-05
6.47188e-05
7.78871e-05
4.96378e-05
7.73703e-05
4.96448e-05
2.35764e-05
2.35746e-05
7.7899e-05
4.96333e-05
7.73567e-05
4.96389e-05
0.000130454
0.000130451
0.000130451
0.000127826
0.000127822
0.000127818
0.000127819
8.16228e-05
7.42081e-05
0.000109004
9.22432e-05
8.06866e-05
7.47382e-05
0.000108364
2.35757e-05
2.35738e-05
8.16242e-05
0.000108993
7.42495e-05
9.22475e-05
8.07148e-05
0.000108371
7.47184e-05
6.51559e-05
6.51506e-05
8.56816e-05
6.53797e-05
6.53817e-05
7.89909e-05
4.96501e-05
7.85184e-05
4.96538e-05
2.35688e-05
2.35673e-05
7.90009e-05
4.96448e-05
7.85053e-05
4.96495e-05
0.000126959
0.000126956
0.000126958
0.000124495
0.000124491
0.000124488
0.00012449
8.43481e-05
7.56331e-05
0.00010667
9.20551e-05
8.34372e-05
7.61072e-05
0.000106136
2.35681e-05
2.35666e-05
8.43489e-05
0.000106662
7.56621e-05
9.2061e-05
8.34504e-05
0.000106144
7.61107e-05
6.57929e-05
6.57881e-05
8.74925e-05
6.60019e-05
6.60027e-05
8.0004e-05
4.9661e-05
7.95686e-05
4.96642e-05
2.35621e-05
2.35609e-05
8.00102e-05
4.96545e-05
7.95554e-05
4.96595e-05
0.000123685
0.000123682
0.000123686
0.000121422
0.000121418
0.000121416
0.000121419
8.6935e-05
7.6998e-05
0.000104771
9.23176e-05
8.60732e-05
7.742e-05
0.000104343
2.35614e-05
2.35603e-05
8.69464e-05
0.000104758
7.70045e-05
9.23246e-05
8.60867e-05
0.000104349
7.74239e-05
6.63884e-05
6.6386e-05
8.92149e-05
6.65852e-05
6.65837e-05
8.09401e-05
4.96713e-05
8.05392e-05
4.96733e-05
2.35564e-05
2.35556e-05
8.09425e-05
4.96646e-05
8.05246e-05
4.96691e-05
0.000120678
0.000120675
0.000120678
0.000118599
0.000118597
0.000118594
0.000118599
8.94298e-05
7.82635e-05
0.000103311
9.29976e-05
8.85986e-05
7.86608e-05
0.000102996
2.35557e-05
2.35549e-05
8.94458e-05
0.0001033
7.82606e-05
9.30058e-05
8.85999e-05
0.000103002
7.86994e-05
6.69478e-05
6.69451e-05
9.14727e-05
6.71335e-05
6.71334e-05
8.1815e-05
4.96813e-05
8.14366e-05
4.96842e-05
2.35517e-05
2.35513e-05
8.18088e-05
4.96753e-05
8.14313e-05
4.96787e-05
0.000117945
0.000117942
0.000117947
0.000116102
0.0001161
0.000116098
0.000116103
9.18134e-05
7.94683e-05
0.000102298
9.40608e-05
9.10083e-05
7.98463e-05
0.000102097
2.35509e-05
2.35505e-05
9.18435e-05
0.00010229
7.94557e-05
9.40708e-05
9.09961e-05
0.0001021
7.98774e-05
6.74756e-05
6.7473e-05
9.37582e-05
6.76528e-05
6.76514e-05
8.26356e-05
4.9689e-05
8.22795e-05
4.96969e-05
2.3548e-05
2.35479e-05
8.26294e-05
4.96867e-05
8.22763e-05
4.96886e-05
0.00011553
0.000115528
0.000115533
0.000113936
0.000113933
0.000113932
0.000113938
9.41216e-05
8.06116e-05
0.00010173
9.5469e-05
9.32997e-05
8.09718e-05
0.000101638
2.35472e-05
2.35472e-05
9.41422e-05
0.000101723
8.05976e-05
9.54794e-05
9.32909e-05
0.000101641
8.10034e-05
6.79764e-05
6.79735e-05
9.60403e-05
6.81449e-05
6.81431e-05
8.34081e-05
4.97001e-05
8.30697e-05
4.97085e-05
2.35453e-05
2.35456e-05
8.34019e-05
4.96984e-05
8.3068e-05
4.97003e-05
0.000113451
0.00011345
0.000113455
0.000112117
0.000112115
0.000112114
0.00011212
9.63234e-05
8.16957e-05
0.000101592
9.71893e-05
9.55014e-05
8.20535e-05
0.000101602
2.35446e-05
2.35449e-05
9.63419e-05
0.000101585
8.16888e-05
9.71963e-05
9.54927e-05
0.000101607
8.2079e-05
6.84528e-05
6.84492e-05
9.85446e-05
6.86147e-05
6.86114e-05
8.41373e-05
4.97161e-05
8.38209e-05
4.97185e-05
2.35437e-05
2.35443e-05
8.41353e-05
4.97109e-05
8.38186e-05
4.97133e-05
0.000111723
0.000111723
0.000111728
0.000110657
0.000110655
0.000110655
0.000110661
9.84396e-05
8.27415e-05
0.000101864
9.91814e-05
9.76142e-05
8.30965e-05
0.000101972
2.35429e-05
2.35436e-05
9.84605e-05
0.000101859
8.27267e-05
9.91876e-05
9.76103e-05
0.00010198
8.31136e-05
6.89071e-05
6.89034e-05
0.000101124
6.90633e-05
6.90591e-05
8.48408e-05
4.97297e-05
8.45335e-05
4.97327e-05
2.3543e-05
2.35441e-05
8.48331e-05
4.97245e-05
8.45311e-05
4.97274e-05
0.000110358
0.000110358
0.000110364
0.000109563
0.000109562
0.000109562
0.000109569
0.000100477
8.3737e-05
0.000102525
0.000101409
9.96587e-05
8.4083e-05
0.000102726
2.35423e-05
2.35433e-05
0.000100503
0.000102523
8.37392e-05
0.000101417
9.965e-05
0.000102735
8.41089e-05
6.93431e-05
6.93388e-05
0.0001038
6.94926e-05
6.94879e-05
8.55126e-05
4.97447e-05
8.5214e-05
4.97503e-05
2.35434e-05
2.35448e-05
8.55036e-05
4.97393e-05
8.52144e-05
4.97427e-05
0.000109359
0.00010936
0.000109366
0.000108836
0.000108836
0.000108838
0.000108845
0.000102452
8.46958e-05
0.000103551
0.00010384
0.000101631
8.50372e-05
0.000103839
2.35427e-05
2.35441e-05
0.000102471
0.000103552
8.46919e-05
0.000103851
0.000101627
0.00010385
8.50584e-05
6.97616e-05
6.97568e-05
0.000106553
6.99051e-05
6.99016e-05
8.61603e-05
4.97573e-05
8.58697e-05
4.97682e-05
2.35448e-05
2.35466e-05
8.61558e-05
4.97555e-05
8.58659e-05
4.97596e-05
0.000108725
0.000108729
0.000108734
0.000108475
0.000108476
0.00010848
0.000108486
0.000104364
8.56173e-05
0.000104915
0.00010645
0.000103538
8.59553e-05
0.000105285
2.3544e-05
2.35457e-05
0.000104378
0.000104918
8.56115e-05
0.000106462
0.000103534
0.000105297
8.59639e-05
7.01643e-05
7.0158e-05
0.000109291
7.03022e-05
7.03003e-05
8.67877e-05
4.97751e-05
8.65046e-05
4.97865e-05
2.35471e-05
2.35492e-05
8.67814e-05
4.97732e-05
8.64996e-05
4.97779e-05
0.000108457
0.000108462
0.000108467
0.000108474
0.000108475
0.000108481
0.000108487
0.000106209
8.65147e-05
0.00010659
0.000109204
0.000105391
8.68318e-05
0.000107034
2.35463e-05
2.35484e-05
0.000106227
0.000106596
8.65112e-05
0.00010922
0.000105387
0.000107048
8.68492e-05
7.0552e-05
7.0545e-05
0.000111862
7.06858e-05
7.06839e-05
8.73992e-05
4.97943e-05
8.7122e-05
4.98063e-05
2.35503e-05
2.35527e-05
8.73888e-05
4.97924e-05
8.71215e-05
4.97977e-05
0.000108545
0.000108552
0.000108556
0.000108822
0.000108824
0.000108832
0.000108837
0.000108006
8.73701e-05
0.000108547
0.000112077
0.000107193
8.7692e-05
0.000109059
2.35495e-05
2.35518e-05
0.000108019
0.000108556
8.73593e-05
0.000112095
0.000107189
0.000109073
8.77006e-05
7.09252e-05
7.09188e-05
0.000114571
7.10558e-05
7.10538e-05
8.79968e-05
4.9815e-05
8.77243e-05
4.98256e-05
2.35544e-05
2.35571e-05
8.79922e-05
4.9813e-05
8.77174e-05
4.98189e-05
0.00010898
0.000108989
0.000108993
0.000109508
0.00010951
0.000109519
0.000109526
0.000109753
8.81851e-05
0.000110763
0.000115045
0.00010895
8.8518e-05
0.000111334
2.35535e-05
2.35562e-05
0.000109762
0.000110771
8.81828e-05
0.000115064
0.000108946
0.000111349
8.85319e-05
7.12859e-05
7.12796e-05
0.000117377
7.14133e-05
7.14111e-05
8.8572e-05
4.98401e-05
8.83153e-05
4.98464e-05
2.35593e-05
2.35625e-05
8.85754e-05
4.98312e-05
8.83055e-05
4.98445e-05
0.000109749
0.000109759
0.000109764
0.000110519
0.000110519
0.00011053
0.000110537
0.000111451
8.89756e-05
0.000113207
0.00011809
0.000110661
8.93053e-05
0.000113832
2.35584e-05
2.35613e-05
0.000111455
0.000113216
8.89699e-05
0.000118108
0.000110661
0.000113846
8.93222e-05
7.16344e-05
7.16279e-05
0.000120042
7.17584e-05
7.17561e-05
8.91431e-05
4.98631e-05
8.88964e-05
4.98702e-05
2.35651e-05
2.35683e-05
8.91433e-05
4.98548e-05
8.88808e-05
4.98683e-05
0.000110837
0.000110848
0.000110854
0.000111837
0.000111837
0.000111849
0.000111858
0.000113097
8.97515e-05
0.000115851
0.000121199
0.000112329
9.00564e-05
0.000116522
2.3564e-05
2.35672e-05
0.000113099
0.000115861
8.97385e-05
0.000121217
0.00011233
0.000116538
9.0086e-05
7.19715e-05
7.19642e-05
0.000122637
7.2091e-05
7.20898e-05
8.97037e-05
4.98867e-05
8.94584e-05
4.9898e-05
2.35713e-05
2.35748e-05
8.97017e-05
4.98793e-05
8.9452e-05
4.98933e-05
0.000112229
0.000112242
0.000112249
0.000113446
0.000113445
0.000113458
0.000113468
0.000114697
9.04959e-05
0.000118673
0.000124351
0.000113952
9.0793e-05
0.000119387
2.35703e-05
2.35737e-05
0.000114704
0.000118683
9.04962e-05
0.000124369
0.000113955
0.000119404
9.08062e-05
7.22975e-05
7.22895e-05
0.000125197
7.24123e-05
7.24122e-05
9.02618e-05
4.991e-05
9.00038e-05
4.99243e-05
2.35783e-05
2.35819e-05
9.02507e-05
4.99049e-05
9.00021e-05
4.99192e-05
0.000113907
0.000113921
0.000113929
0.000115325
0.000115325
0.000115339
0.00011535
0.000116255
9.12133e-05
0.000121662
0.000127531
0.000115529
9.15047e-05
0.000122416
2.35772e-05
2.35809e-05
0.000116265
0.000121674
9.12119e-05
0.000127548
0.000115534
0.000122435
9.15208e-05
7.26122e-05
7.26037e-05
0.000127813
7.2723e-05
7.2725e-05
9.07953e-05
4.99366e-05
9.05425e-05
4.99512e-05
2.35858e-05
2.35897e-05
9.07878e-05
4.99316e-05
9.05427e-05
4.99458e-05
0.000115852
0.000115866
0.000115875
0.000117456
0.000117456
0.000117471
0.000117482
0.000117766
9.19077e-05
0.000124804
0.00013072
0.000117062
9.21969e-05
0.000125594
2.35848e-05
2.35887e-05
0.000117776
0.000124817
9.19065e-05
0.000130737
0.000117066
0.000125614
9.22125e-05
7.2917e-05
7.2908e-05
0.00013039
7.30236e-05
7.30234e-05
9.13187e-05
4.99641e-05
9.10668e-05
4.9979e-05
2.35938e-05
2.35979e-05
9.13126e-05
4.99621e-05
9.1067e-05
4.99709e-05
0.000118043
0.000118057
0.000118066
0.000119816
0.000119817
0.000119832
0.000119843
0.000119222
9.25796e-05
0.000128076
0.000133906
0.000118545
9.28584e-05
0.000128894
2.35928e-05
2.3597e-05
0.000119236
0.000128089
9.2579e-05
0.000133923
0.000118548
0.000128913
9.2877e-05
7.32098e-05
7.32024e-05
0.000132948
7.33165e-05
7.33141e-05
9.1826e-05
4.99923e-05
9.15817e-05
5.00074e-05
2.36024e-05
2.36067e-05
9.18182e-05
4.99903e-05
9.15767e-05
4.99994e-05
0.000120457
0.000120472
0.000120481
0.000120629
9.32266e-05
0.000131447
0.000137079
0.000119982
9.35051e-05
0.000132286
2.36015e-05
2.36058e-05
0.000120641
0.00013146
9.32157e-05
0.000137095
0.000119981
0.000132306
9.35203e-05
7.34924e-05
7.34865e-05
0.000135627
7.35969e-05
7.35944e-05
2.36183e-05
2.36152e-05
2.36163e-05
2.36132e-05
6.20673e-05
6.20683e-05
8.18628e-05
6.2368e-05
6.23639e-05
2.36095e-05
2.36125e-05
2.36075e-05
2.36105e-05
8.20068e-05
6.28e-05
6.27964e-05
6.25154e-05
6.25105e-05
7.20233e-05
4.95701e-05
4.95833e-05
7.12183e-05
6.99391e-05
6.76467e-05
0.000122011
9.79463e-05
6.82469e-05
0.000121042
6.89362e-05
6.99401e-05
6.76156e-05
0.000122006
9.79369e-05
6.82666e-05
0.000121037
6.89329e-05
7.21654e-05
4.9595e-05
4.95904e-05
7.29412e-05
7.21707e-05
4.95923e-05
4.95797e-05
7.29443e-05
7.04206e-05
9.73478e-05
6.91411e-05
0.000119174
6.85542e-05
0.000120112
7.1424e-05
7.0413e-05
9.73413e-05
6.91629e-05
0.000119168
6.85303e-05
0.000120106
7.14315e-05
6.20593e-05
6.2047e-05
8.18745e-05
6.23588e-05
6.23681e-05
2.36176e-05
2.36146e-05
2.36074e-05
2.36102e-05
8.20561e-05
6.27902e-05
6.27996e-05
6.25057e-05
6.25037e-05
2.36089e-05
2.36118e-05
6.99416e-05
6.7646e-05
0.000122012
9.79682e-05
6.82711e-05
0.000121043
6.89098e-05
7.20401e-05
4.95673e-05
4.95774e-05
7.12041e-05
6.99373e-05
0.000122003
6.76202e-05
9.79354e-05
0.000121033
6.82549e-05
6.89272e-05
7.21589e-05
4.95888e-05
4.95853e-05
7.29437e-05
7.04072e-05
9.73703e-05
6.9163e-05
0.000119175
6.85442e-05
0.000120113
7.14125e-05
7.21571e-05
4.95847e-05
4.95813e-05
7.29421e-05
7.04045e-05
9.73414e-05
0.000119165
6.91537e-05
0.000120103
6.85341e-05
7.14501e-05
7.20133e-05
4.95766e-05
4.95806e-05
7.12181e-05
6.99525e-05
0.000122014
6.76359e-05
9.79466e-05
0.000121044
6.82386e-05
6.89146e-05
7.2016e-05
4.95678e-05
4.9581e-05
7.12221e-05
7.04021e-05
9.73766e-05
6.91569e-05
0.000119171
6.85338e-05
0.000120122
7.14364e-05
7.21676e-05
4.95896e-05
4.95861e-05
7.29179e-05
7.0396e-05
9.73534e-05
0.000119178
6.91361e-05
0.000120116
6.85476e-05
7.14432e-05
7.2171e-05
4.95899e-05
4.95774e-05
7.29315e-05
6.20441e-05
6.20496e-05
8.18466e-05
6.23707e-05
6.23652e-05
2.36174e-05
2.36143e-05
2.36065e-05
2.36094e-05
8.20155e-05
6.27926e-05
6.27981e-05
6.249e-05
6.25021e-05
2.36086e-05
2.36116e-05
6.99213e-05
0.000122004
6.76225e-05
9.79592e-05
0.000121039
6.82584e-05
6.89208e-05
7.20171e-05
4.95769e-05
4.95805e-05
7.12208e-05
7.20144e-05
4.95715e-05
4.95754e-05
7.12193e-05
7.0432e-05
9.73765e-05
0.000119171
6.91269e-05
0.000120103
6.85601e-05
7.13992e-05
7.04089e-05
9.73635e-05
0.00011917
6.91614e-05
0.000120104
6.85318e-05
7.14269e-05
7.21699e-05
4.95896e-05
4.95864e-05
7.29212e-05
7.2168e-05
4.95845e-05
4.95809e-05
7.29193e-05
2.3616e-05
2.36129e-05
2.3615e-05
2.36119e-05
8.1892e-05
6.27915e-05
6.28065e-05
6.25061e-05
6.24903e-05
2.36073e-05
2.36101e-05
2.36062e-05
2.36092e-05
2.36069e-05
2.36041e-05
2.36049e-05
2.36021e-05
6.29417e-05
6.29287e-05
8.19999e-05
6.3213e-05
6.32183e-05
2.35989e-05
2.36015e-05
2.35969e-05
2.35995e-05
8.23137e-05
6.36138e-05
6.36103e-05
6.33477e-05
6.33493e-05
7.37852e-05
4.95887e-05
7.30522e-05
4.96007e-05
7.29265e-05
6.94413e-05
0.000118281
9.57429e-05
7.19149e-05
7.0011e-05
0.000117377
7.29388e-05
6.9417e-05
0.000118275
9.57345e-05
7.19041e-05
7.0038e-05
0.000117371
7.38856e-05
4.96143e-05
4.9603e-05
7.45663e-05
7.38849e-05
4.96085e-05
4.95969e-05
7.45626e-05
7.34051e-05
9.52756e-05
7.0848e-05
0.000115655
7.03059e-05
0.000116524
7.44252e-05
7.33932e-05
9.52673e-05
7.08817e-05
0.000115649
7.02728e-05
0.000116518
7.44294e-05
6.29289e-05
6.293e-05
8.21924e-05
6.32069e-05
6.32177e-05
2.36062e-05
2.36034e-05
2.35968e-05
2.35993e-05
8.21777e-05
6.3607e-05
6.36163e-05
6.33379e-05
6.33385e-05
2.35983e-05
2.36009e-05
7.29166e-05
6.94275e-05
0.000118282
9.57653e-05
7.19197e-05
7.00325e-05
0.000117378
7.37869e-05
4.95901e-05
7.30467e-05
4.95932e-05
7.29415e-05
0.000118271
6.94216e-05
9.5734e-05
7.18873e-05
0.000117367
7.00234e-05
7.38815e-05
4.96091e-05
4.95981e-05
7.45799e-05
7.34142e-05
9.52974e-05
7.08807e-05
0.000115656
7.02858e-05
0.000116525
7.44358e-05
7.38815e-05
4.96012e-05
4.95984e-05
7.45641e-05
7.33919e-05
9.52673e-05
0.000115645
7.08714e-05
0.000116514
7.02803e-05
7.44319e-05
7.37627e-05
4.95949e-05
7.30551e-05
4.95979e-05
7.29368e-05
0.000118285
6.94359e-05
9.57466e-05
7.18926e-05
0.000117381
6.99911e-05
7.3776e-05
4.95864e-05
7.30531e-05
4.95982e-05
7.33784e-05
9.53006e-05
7.08705e-05
0.000115651
7.02823e-05
0.000116533
7.44044e-05
7.38857e-05
4.96058e-05
4.96034e-05
7.45392e-05
7.33915e-05
9.52801e-05
0.000115659
7.08413e-05
0.000116528
7.03037e-05
7.44276e-05
7.38843e-05
4.96058e-05
4.95948e-05
7.45541e-05
6.29228e-05
6.29293e-05
8.20557e-05
6.32062e-05
6.32149e-05
2.3606e-05
2.36032e-05
2.35959e-05
2.35985e-05
8.23473e-05
6.36036e-05
6.36117e-05
6.33347e-05
6.33415e-05
2.35981e-05
2.36007e-05
7.29165e-05
0.000118274
6.94124e-05
9.57555e-05
7.19023e-05
0.000117373
7.00315e-05
7.3766e-05
4.95951e-05
7.30576e-05
4.95981e-05
7.37643e-05
4.95891e-05
7.30555e-05
4.95951e-05
7.34205e-05
9.53009e-05
0.000115655
7.08426e-05
0.000116516
7.03075e-05
7.43747e-05
7.34039e-05
9.52878e-05
0.000115654
7.08773e-05
0.000116517
7.02716e-05
7.44059e-05
7.38894e-05
4.96059e-05
4.96035e-05
7.45583e-05
7.38867e-05
4.96045e-05
4.95935e-05
7.45559e-05
2.36046e-05
2.36018e-05
2.36036e-05
2.36008e-05
8.20207e-05
6.36072e-05
6.36178e-05
6.33434e-05
6.33287e-05
2.35967e-05
2.35993e-05
2.35956e-05
2.35982e-05
2.35965e-05
2.3594e-05
2.35944e-05
2.3592e-05
6.37355e-05
6.37372e-05
8.29371e-05
6.40004e-05
6.39938e-05
2.35894e-05
2.35916e-05
2.35873e-05
2.35896e-05
8.29414e-05
6.43637e-05
6.43627e-05
6.41223e-05
6.41147e-05
7.53058e-05
4.96048e-05
7.46732e-05
4.96152e-05
7.59105e-05
7.11455e-05
0.000114846
9.40608e-05
7.48941e-05
7.1668e-05
0.000114044
7.59014e-05
7.11084e-05
0.00011484
9.40523e-05
7.48852e-05
7.16974e-05
0.000114039
7.54083e-05
4.9628e-05
4.96181e-05
7.60077e-05
7.5406e-05
4.96214e-05
4.96137e-05
7.60056e-05
7.63687e-05
9.37221e-05
7.24694e-05
0.00011247
7.19596e-05
0.000113239
7.73573e-05
7.63731e-05
9.37139e-05
7.24885e-05
0.000112466
7.19243e-05
0.000113233
7.73644e-05
6.3729e-05
6.3729e-05
8.29512e-05
6.39883e-05
6.3997e-05
2.35958e-05
2.35933e-05
2.35872e-05
2.35895e-05
8.30071e-05
6.4355e-05
6.43642e-05
6.41103e-05
6.41097e-05
2.35887e-05
2.35909e-05
7.59099e-05
7.11174e-05
0.000114847
9.40819e-05
7.48952e-05
7.16761e-05
0.000114045
7.53073e-05
4.96059e-05
7.46698e-05
4.96099e-05
7.59138e-05
0.000114836
7.11174e-05
9.40513e-05
7.48842e-05
0.000114035
7.16635e-05
7.53942e-05
4.9623e-05
4.96123e-05
7.60236e-05
7.63679e-05
9.37419e-05
7.24654e-05
0.000112471
7.19491e-05
0.00011324
7.73913e-05
7.54029e-05
4.96163e-05
4.96122e-05
7.60069e-05
7.63678e-05
9.37139e-05
0.000112462
7.24589e-05
0.00011323
7.19506e-05
7.73734e-05
7.5281e-05
4.96107e-05
7.46751e-05
4.96133e-05
7.59168e-05
0.000114852
7.1132e-05
9.40645e-05
7.48836e-05
0.00011405
7.17063e-05
7.52961e-05
4.96034e-05
7.46734e-05
4.9611e-05
7.63741e-05
9.37454e-05
7.24987e-05
0.000112467
7.19273e-05
0.000113249
7.73482e-05
7.54083e-05
4.96204e-05
4.96177e-05
7.59818e-05
7.63607e-05
9.37277e-05
0.000112477
7.24972e-05
0.000113247
7.192e-05
7.73746e-05
7.54071e-05
4.96166e-05
4.96135e-05
7.59967e-05
6.37254e-05
6.37347e-05
8.27513e-05
6.39926e-05
6.40001e-05
2.35957e-05
2.35932e-05
2.35864e-05
2.35887e-05
8.31385e-05
6.43602e-05
6.43654e-05
6.41023e-05
6.41147e-05
2.35885e-05
2.35908e-05
7.58954e-05
0.000114841
7.11041e-05
9.40719e-05
7.48965e-05
0.000114044
7.16987e-05
7.53019e-05
4.96111e-05
7.46677e-05
4.96134e-05
7.53003e-05
4.96008e-05
7.46645e-05
4.96117e-05
7.64014e-05
9.37465e-05
0.000112472
7.24619e-05
0.000113235
7.19568e-05
7.73371e-05
7.63739e-05
9.37343e-05
0.000112472
7.24876e-05
0.000113235
7.19137e-05
7.73387e-05
7.53994e-05
4.96209e-05
4.96175e-05
7.60026e-05
7.53974e-05
4.96177e-05
4.96083e-05
7.59858e-05
2.35942e-05
2.35918e-05
2.3593e-05
2.35906e-05
8.28329e-05
6.43569e-05
6.43555e-05
6.41089e-05
6.40997e-05
2.35871e-05
2.35894e-05
2.35859e-05
2.35882e-05
2.35871e-05
2.35849e-05
2.3585e-05
2.35829e-05
6.44812e-05
6.44784e-05
8.3802e-05
6.47192e-05
6.47157e-05
2.35807e-05
2.35827e-05
2.35787e-05
2.35806e-05
8.42757e-05
6.50596e-05
6.50554e-05
6.48308e-05
6.48254e-05
7.66663e-05
4.96199e-05
7.6096e-05
4.96286e-05
7.88208e-05
7.27407e-05
0.000111731
9.28934e-05
7.78507e-05
7.32448e-05
0.000111006
7.88029e-05
7.27134e-05
0.000111727
9.28842e-05
7.78466e-05
7.32659e-05
0.000111004
7.67504e-05
4.96397e-05
4.96315e-05
7.72947e-05
7.67476e-05
4.96336e-05
4.96257e-05
7.72919e-05
7.92826e-05
9.26832e-05
7.39971e-05
0.000109637
7.35053e-05
0.000110314
8.02368e-05
7.92932e-05
9.26739e-05
7.40154e-05
0.000109635
7.34748e-05
0.00011031
8.02221e-05
6.44709e-05
6.44694e-05
8.37584e-05
6.47093e-05
6.47162e-05
2.35863e-05
2.35842e-05
2.35786e-05
2.35805e-05
8.42144e-05
6.50505e-05
6.5055e-05
6.48202e-05
6.48187e-05
2.358e-05
2.35819e-05
7.88237e-05
7.27405e-05
0.000111731
9.29118e-05
7.78234e-05
7.32419e-05
0.000111008
7.66673e-05
4.96193e-05
7.60932e-05
4.96217e-05
7.88219e-05
0.000111721
7.27367e-05
9.2885e-05
7.78332e-05
0.000110999
7.32607e-05
7.6737e-05
4.96344e-05
4.96266e-05
7.73096e-05
7.92778e-05
9.27003e-05
7.39866e-05
0.000109638
7.35036e-05
0.000110314
8.02471e-05
7.67453e-05
4.96282e-05
4.96258e-05
7.72927e-05
7.92773e-05
9.26751e-05
0.000109629
7.40087e-05
0.000110304
7.34875e-05
8.02287e-05
7.66431e-05
4.96238e-05
7.60972e-05
4.96268e-05
7.88182e-05
0.000111739
7.27056e-05
9.28992e-05
7.78242e-05
0.000111015
7.32663e-05
7.66577e-05
4.96203e-05
7.60965e-05
4.96228e-05
7.92791e-05
9.27022e-05
7.40176e-05
0.000109634
7.34673e-05
0.000110324
8.02283e-05
7.6747e-05
4.96329e-05
4.96298e-05
7.72701e-05
7.92685e-05
9.26904e-05
0.000109645
7.40102e-05
0.000110323
7.34734e-05
8.02414e-05
7.67473e-05
4.9629e-05
4.96265e-05
7.72839e-05
6.44656e-05
6.44763e-05
8.40397e-05
6.4716e-05
6.47229e-05
2.35862e-05
2.35841e-05
2.35778e-05
2.35798e-05
8.41073e-05
6.50534e-05
6.50613e-05
6.48156e-05
6.48247e-05
2.35799e-05
2.35819e-05
7.8797e-05
0.000111727
7.27049e-05
9.2905e-05
7.78548e-05
0.000111009
7.32576e-05
7.66634e-05
4.96242e-05
7.60882e-05
4.96272e-05
7.66469e-05
4.96152e-05
7.60972e-05
4.96238e-05
7.92978e-05
9.2705e-05
0.000109641
7.39846e-05
0.00011031
7.35089e-05
8.02163e-05
7.92892e-05
9.26955e-05
0.00010964
7.40055e-05
0.000110312
7.34738e-05
8.02254e-05
7.67385e-05
4.9633e-05
4.963e-05
7.72903e-05
7.67475e-05
4.96294e-05
4.96218e-05
7.72735e-05
2.35848e-05
2.35827e-05
2.35836e-05
2.35815e-05
8.40033e-05
6.50511e-05
6.50516e-05
6.48203e-05
6.48145e-05
2.35785e-05
2.35805e-05
2.35773e-05
2.35792e-05
2.35786e-05
2.35768e-05
2.35765e-05
2.35747e-05
6.51653e-05
6.51608e-05
8.5285e-05
6.53889e-05
6.53838e-05
2.3573e-05
2.35747e-05
2.3571e-05
2.35726e-05
8.58577e-05
6.57055e-05
6.56999e-05
6.54895e-05
6.54857e-05