/*--------------------------------*- C++ -*----------------------------------*\
| =========                 |                                                 |
| \\      /  F ield         | OpenFOAM: The Open Source CFD Toolbox           |
|  \\    /   O peration     | Version:                                        |
|   \\  /    A nd           | Website:  www.openfoam.com                      |
|    \\/     M anipulation  |                                                 |
\*---------------------------------------------------------------------------*/
FoamFile
{
    version     2.0;
    format      ascii;
    class       volScalarField;
    location    "31600.5";
    object      p;
}
// * * * * * * * * * * * * * * * * * * * * * * * * * * * * * * * * * * * * * //

dimensions      [0 2 -2 0 0 0 0];


internalField   nonuniform List<scalar> 
247096
(
1.09471e-07
1.09474e-07
1.09617e-07
1.09704e-07
1.09736e-07
1.09695e-07
1.09604e-07
1.0945e-07
1.09474e-07
1.09672e-07
1.09849e-07
1.09942e-07
1.09965e-07
1.09935e-07
1.09831e-07
1.09648e-07
1.09617e-07
1.09849e-07
1.0999e-07
1.10031e-07
1.10038e-07
1.10029e-07
1.09979e-07
1.09822e-07
1.0959e-07
1.09704e-07
1.09942e-07
1.10031e-07
1.10043e-07
1.10042e-07
1.10043e-07
1.10026e-07
1.0992e-07
1.09671e-07
1.09471e-07
1.09736e-07
1.09965e-07
1.10038e-07
1.10042e-07
1.10038e-07
1.10042e-07
1.10035e-07
1.09945e-07
1.09702e-07
1.09695e-07
1.09935e-07
1.10029e-07
1.10043e-07
1.10042e-07
1.10043e-07
1.10024e-07
1.09912e-07
1.09662e-07
1.09604e-07
1.09831e-07
1.09979e-07
1.10026e-07
1.10035e-07
1.10024e-07
1.09967e-07
1.09803e-07
1.09578e-07
1.0945e-07
1.09648e-07
1.09822e-07
1.0992e-07
1.09945e-07
1.09912e-07
1.09803e-07
1.09626e-07
1.0959e-07
1.09671e-07
1.09702e-07
1.09662e-07
1.09578e-07
1.06658e-07
1.06633e-07
1.06642e-07
1.06493e-07
1.06506e-07
1.06525e-07
1.06505e-07
1.06691e-07
1.06629e-07
1.06642e-07
1.06513e-07
1.0631e-07
1.06327e-07
1.06327e-07
1.0631e-07
1.0657e-07
1.06516e-07
1.06493e-07
1.0631e-07
1.06347e-07
1.06368e-07
1.06368e-07
1.06347e-07
1.0631e-07
1.06633e-07
1.0668e-07
1.06658e-07
1.06506e-07
1.06327e-07
1.06368e-07
1.06391e-07
1.06391e-07
1.06368e-07
1.06327e-07
1.06662e-07
1.06697e-07
1.06633e-07
1.06524e-07
1.06327e-07
1.06368e-07
1.06391e-07
1.06391e-07
1.06368e-07
1.06327e-07
1.06664e-07
1.06521e-07
1.06505e-07
1.0631e-07
1.06347e-07
1.06368e-07
1.06368e-07
1.06347e-07
1.0631e-07
1.06658e-07
1.06707e-07
1.06691e-07
1.0657e-07
1.0631e-07
1.06327e-07
1.06327e-07
1.0631e-07
1.06652e-07
1.06575e-07
1.0669e-07
1.06629e-07
1.06516e-07
1.06633e-07
1.06661e-07
1.06664e-07
1.06658e-07
1.06575e-07
1.067e-07
1.0668e-07
1.06697e-07
1.06521e-07
1.06707e-07
1.0669e-07
1.04881e-07
1.04872e-07
1.04881e-07
1.0475e-07
1.0475e-07
1.0476e-07
1.04752e-07
1.04915e-07
1.04872e-07
1.04881e-07
1.04745e-07
1.04511e-07
1.0452e-07
1.0452e-07
1.04511e-07
1.04768e-07
1.04762e-07
1.0475e-07
1.04512e-07
1.04531e-07
1.04543e-07
1.04543e-07
1.04531e-07
1.04511e-07
1.04813e-07
1.04905e-07
1.04881e-07
1.0475e-07
1.0452e-07
1.04543e-07
1.04556e-07
1.04556e-07
1.04543e-07
1.0452e-07
1.04817e-07
1.04902e-07
1.04872e-07
1.0476e-07
1.0452e-07
1.04543e-07
1.04556e-07
1.04556e-07
1.04543e-07
1.0452e-07
1.04816e-07
1.04769e-07
1.04752e-07
1.04511e-07
1.04531e-07
1.04543e-07
1.04543e-07
1.04531e-07
1.04511e-07
1.0482e-07
1.0491e-07
1.04915e-07
1.04768e-07
1.04511e-07
1.0452e-07
1.0452e-07
1.04511e-07
1.04801e-07
1.04791e-07
1.04915e-07
1.04872e-07
1.04762e-07
1.04813e-07
1.04817e-07
1.04816e-07
1.0482e-07
1.04791e-07
1.04918e-07
1.04905e-07
1.04902e-07
1.04769e-07
1.0491e-07
1.04915e-07
1.03282e-07
1.03273e-07
1.03282e-07
1.03158e-07
1.03157e-07
1.03165e-07
1.03159e-07
1.03312e-07
1.03275e-07
1.03282e-07
1.03154e-07
1.02946e-07
1.02951e-07
1.02951e-07
1.02946e-07
1.03178e-07
1.03171e-07
1.03158e-07
1.02946e-07
1.02957e-07
1.02963e-07
1.02963e-07
1.02957e-07
1.02946e-07
1.03218e-07
1.03305e-07
1.03282e-07
1.03157e-07
1.02951e-07
1.02963e-07
1.02971e-07
1.02971e-07
1.02963e-07
1.02951e-07
1.03223e-07
1.03303e-07
1.03273e-07
1.03165e-07
1.02951e-07
1.02963e-07
1.02971e-07
1.02971e-07
1.02963e-07
1.02951e-07
1.03222e-07
1.03177e-07
1.03159e-07
1.02946e-07
1.02957e-07
1.02963e-07
1.02963e-07
1.02957e-07
1.02946e-07
1.03224e-07
1.0331e-07
1.03312e-07
1.03178e-07
1.02946e-07
1.02951e-07
1.02951e-07
1.02946e-07
1.03206e-07
1.03198e-07
1.03313e-07
1.03275e-07
1.03171e-07
1.03218e-07
1.03223e-07
1.03222e-07
1.03224e-07
1.03198e-07
1.03318e-07
1.03305e-07
1.03303e-07
1.03177e-07
1.0331e-07
1.03313e-07
1.01818e-07
1.0181e-07
1.01818e-07
1.017e-07
1.01698e-07
1.01705e-07
1.017e-07
1.01846e-07
1.01812e-07
1.01818e-07
1.01696e-07
1.01504e-07
1.01507e-07
1.01507e-07
1.01504e-07
1.01719e-07
1.01714e-07
1.017e-07
1.01504e-07
1.01512e-07
1.01515e-07
1.01515e-07
1.01512e-07
1.01504e-07
1.01758e-07
1.01841e-07
1.01818e-07
1.01698e-07
1.01507e-07
1.01515e-07
1.01519e-07
1.01519e-07
1.01515e-07
1.01507e-07
1.0176e-07
1.01839e-07
1.0181e-07
1.01705e-07
1.01507e-07
1.01515e-07
1.01519e-07
1.01519e-07
1.01515e-07
1.01507e-07
1.01759e-07
1.01719e-07
1.017e-07
1.01504e-07
1.01512e-07
1.01515e-07
1.01515e-07
1.01512e-07
1.01504e-07
1.01762e-07
1.01845e-07
1.01846e-07
1.01719e-07
1.01504e-07
1.01507e-07
1.01507e-07
1.01504e-07
1.01745e-07
1.01738e-07
1.01847e-07
1.01812e-07
1.01714e-07
1.01758e-07
1.0176e-07
1.01759e-07
1.01762e-07
1.01738e-07
1.01852e-07
1.01841e-07
1.01839e-07
1.01719e-07
1.01845e-07
1.01847e-07
1.00449e-07
1.0044e-07
1.00448e-07
1.00335e-07
1.00332e-07
1.00338e-07
1.00334e-07
1.00473e-07
1.00443e-07
1.00448e-07
1.0033e-07
1.00149e-07
1.00151e-07
1.00151e-07
1.00149e-07
1.00353e-07
1.00349e-07
1.00335e-07
1.00149e-07
1.00154e-07
1.00156e-07
1.00156e-07
1.00154e-07
1.00149e-07
1.0039e-07
1.00471e-07
1.00449e-07
1.00332e-07
1.00151e-07
1.00156e-07
1.00159e-07
1.00159e-07
1.00156e-07
1.00151e-07
1.00391e-07
1.00469e-07
1.0044e-07
1.00338e-07
1.00151e-07
1.00156e-07
1.00159e-07
1.00159e-07
1.00156e-07
1.00151e-07
1.0039e-07
1.00353e-07
1.00334e-07
1.00149e-07
1.00154e-07
1.00156e-07
1.00156e-07
1.00154e-07
1.00149e-07
1.00393e-07
1.00474e-07
1.00473e-07
1.00353e-07
1.00149e-07
1.00151e-07
1.00151e-07
1.00149e-07
1.00377e-07
1.00372e-07
1.00476e-07
1.00443e-07
1.00349e-07
1.0039e-07
1.00391e-07
1.0039e-07
1.00393e-07
1.00372e-07
1.00481e-07
1.00471e-07
1.00469e-07
1.00353e-07
1.00474e-07
1.00476e-07
9.91502e-08
9.91418e-08
9.91493e-08
9.90401e-08
9.90371e-08
9.90424e-08
9.9039e-08
9.91734e-08
9.91451e-08
9.91493e-08
9.90348e-08
9.88628e-08
9.88644e-08
9.88644e-08
9.88628e-08
9.90568e-08
9.90543e-08
9.90401e-08
9.88628e-08
9.88667e-08
9.88678e-08
9.88678e-08
9.88667e-08
9.88628e-08
9.90935e-08
9.9172e-08
9.91502e-08
9.90371e-08
9.88644e-08
9.88678e-08
9.88696e-08
9.88696e-08
9.88678e-08
9.88644e-08
9.90942e-08
9.917e-08
9.91417e-08
9.90424e-08
9.88644e-08
9.88678e-08
9.88696e-08
9.88696e-08
9.88678e-08
9.88644e-08
9.90924e-08
9.90583e-08
9.9039e-08
9.88628e-08
9.88667e-08
9.88678e-08
9.88678e-08
9.88667e-08
9.88628e-08
9.90955e-08
9.91749e-08
9.91734e-08
9.90568e-08
9.88628e-08
9.88644e-08
9.88644e-08
9.88628e-08
9.90804e-08
9.90754e-08
9.9176e-08
9.91451e-08
9.90543e-08
9.90935e-08
9.90942e-08
9.90924e-08
9.90955e-08
9.90754e-08
9.91815e-08
9.9172e-08
9.917e-08
9.90583e-08
9.91749e-08
9.9176e-08
9.79116e-08
9.79033e-08
9.79105e-08
9.78043e-08
9.78009e-08
9.78056e-08
9.78027e-08
9.79335e-08
9.79069e-08
9.79105e-08
9.77985e-08
9.76345e-08
9.76356e-08
9.76356e-08
9.76345e-08
9.78203e-08
9.78185e-08
9.78043e-08
9.76345e-08
9.76376e-08
9.76382e-08
9.76382e-08
9.76376e-08
9.76345e-08
9.78566e-08
9.7933e-08
9.79116e-08
9.78009e-08
9.76356e-08
9.76382e-08
9.76394e-08
9.76394e-08
9.76382e-08
9.76356e-08
9.78569e-08
9.79311e-08
9.79033e-08
9.78056e-08
9.76356e-08
9.76382e-08
9.76394e-08
9.76394e-08
9.76382e-08
9.76356e-08
9.78551e-08
9.78223e-08
9.78027e-08
9.76345e-08
9.76376e-08
9.76382e-08
9.76382e-08
9.76376e-08
9.76345e-08
9.78578e-08
9.79356e-08
9.79335e-08
9.78203e-08
9.76345e-08
9.76356e-08
9.76356e-08
9.76345e-08
9.78433e-08
9.78385e-08
9.79363e-08
9.79069e-08
9.78185e-08
9.78566e-08
9.78569e-08
9.78551e-08
9.78578e-08
9.78385e-08
9.79422e-08
9.7933e-08
9.79311e-08
9.78223e-08
9.79356e-08
9.79363e-08
9.67214e-08
9.67131e-08
9.67203e-08
9.66163e-08
9.66125e-08
9.66168e-08
9.66142e-08
9.67424e-08
9.67171e-08
9.67203e-08
9.66102e-08
9.64525e-08
9.64533e-08
9.64533e-08
9.64525e-08
9.66319e-08
9.66305e-08
9.66163e-08
9.64525e-08
9.64553e-08
9.64553e-08
9.64553e-08
9.64553e-08
9.64525e-08
9.66682e-08
9.67427e-08
9.67214e-08
9.66125e-08
9.64533e-08
9.64553e-08
9.64559e-08
9.64559e-08
9.64553e-08
9.64533e-08
9.6668e-08
9.67407e-08
9.67131e-08
9.66168e-08
9.64533e-08
9.64553e-08
9.64559e-08
9.64559e-08
9.64553e-08
9.64533e-08
9.66662e-08
9.66341e-08
9.66142e-08
9.64525e-08
9.64553e-08
9.64553e-08
9.64553e-08
9.64553e-08
9.64525e-08
9.66686e-08
9.67449e-08
9.67424e-08
9.66319e-08
9.64525e-08
9.64533e-08
9.64533e-08
9.64525e-08
9.66547e-08
9.66497e-08
9.67453e-08
9.67171e-08
9.66305e-08
9.66682e-08
9.6668e-08
9.66662e-08
9.66686e-08
9.66498e-08
9.67516e-08
9.67426e-08
9.67407e-08
9.66341e-08
9.67449e-08
9.67453e-08
9.55653e-08
9.55569e-08
9.55641e-08
9.54616e-08
9.54576e-08
9.54615e-08
9.54592e-08
9.55857e-08
9.55612e-08
9.55641e-08
9.54553e-08
9.53019e-08
9.53025e-08
9.53025e-08
9.53019e-08
9.54771e-08
9.54758e-08
9.54615e-08
9.53019e-08
9.53045e-08
9.53041e-08
9.53041e-08
9.53045e-08
9.53019e-08
9.55135e-08
9.55864e-08
9.55653e-08
9.54576e-08
9.53025e-08
9.53041e-08
9.53042e-08
9.53042e-08
9.53041e-08
9.53025e-08
9.55132e-08
9.55845e-08
9.55569e-08
9.54615e-08
9.53025e-08
9.53041e-08
9.53042e-08
9.53042e-08
9.53041e-08
9.53025e-08
9.55113e-08
9.54793e-08
9.54591e-08
9.53019e-08
9.53045e-08
9.53041e-08
9.53041e-08
9.53045e-08
9.53019e-08
9.55133e-08
9.55885e-08
9.55856e-08
9.54771e-08
9.53018e-08
9.53025e-08
9.53025e-08
9.53019e-08
9.54998e-08
9.54946e-08
9.55887e-08
9.55612e-08
9.54757e-08
9.55135e-08
9.55131e-08
9.55112e-08
9.55133e-08
9.54946e-08
9.55953e-08
9.55864e-08
9.55844e-08
9.54792e-08
9.55884e-08
9.55887e-08
9.44291e-08
9.44206e-08
9.4428e-08
9.43262e-08
9.43221e-08
9.43258e-08
9.43235e-08
9.4449e-08
9.4425e-08
9.44277e-08
9.43197e-08
9.41687e-08
9.41692e-08
9.41692e-08
9.41687e-08
9.43416e-08
9.4341e-08
9.4326e-08
9.41687e-08
9.41713e-08
9.41706e-08
9.41706e-08
9.41714e-08
9.41687e-08
9.43784e-08
9.44503e-08
9.4429e-08
9.4322e-08
9.41692e-08
9.41706e-08
9.41703e-08
9.41703e-08
9.41706e-08
9.41693e-08
9.43779e-08
9.44483e-08
9.44206e-08
9.43258e-08
9.41692e-08
9.41705e-08
9.41703e-08
9.41703e-08
9.41706e-08
9.41692e-08
9.43759e-08
9.43438e-08
9.43235e-08
9.41687e-08
9.41713e-08
9.41705e-08
9.41705e-08
9.41713e-08
9.41687e-08
9.43777e-08
9.44522e-08
9.44492e-08
9.43417e-08
9.41686e-08
9.41692e-08
9.41692e-08
9.41686e-08
9.43643e-08
9.43592e-08
9.44524e-08
9.44252e-08
9.43397e-08
9.43781e-08
9.43777e-08
9.43757e-08
9.43775e-08
9.43587e-08
9.4459e-08
9.445e-08
9.44481e-08
9.43437e-08
9.4452e-08
9.44521e-08
9.33026e-08
9.32941e-08
9.33014e-08
9.32e-08
9.31958e-08
9.31995e-08
9.31973e-08
9.33226e-08
9.32987e-08
9.33011e-08
9.31935e-08
9.30435e-08
9.3044e-08
9.3044e-08
9.30435e-08
9.32156e-08
9.32136e-08
9.31998e-08
9.30435e-08
9.30463e-08
9.30453e-08
9.30453e-08
9.30463e-08
9.30435e-08
9.32521e-08
9.33236e-08
9.33024e-08
9.31957e-08
9.3044e-08
9.30452e-08
9.30448e-08
9.30448e-08
9.30452e-08
9.3044e-08
9.32517e-08
9.33217e-08
9.3294e-08
9.31994e-08
9.3044e-08
9.30452e-08
9.30448e-08
9.30448e-08
9.30452e-08
9.3044e-08
9.32497e-08
9.32176e-08
9.31973e-08
9.30435e-08
9.30462e-08
9.30452e-08
9.30452e-08
9.30463e-08
9.30435e-08
9.32515e-08
9.33255e-08
9.33225e-08
9.32155e-08
9.30434e-08
9.30439e-08
9.30439e-08
9.30434e-08
9.32382e-08
9.32329e-08
9.33257e-08
9.32987e-08
9.32136e-08
9.32521e-08
9.32516e-08
9.32496e-08
9.32513e-08
9.32324e-08
9.33325e-08
9.33235e-08
9.33215e-08
9.32174e-08
9.33254e-08
9.33254e-08
9.218e-08
9.21716e-08
9.21788e-08
9.20776e-08
9.20734e-08
9.2077e-08
9.20749e-08
9.22e-08
9.21762e-08
9.21785e-08
9.2071e-08
9.19215e-08
9.19219e-08
9.19219e-08
9.19215e-08
9.20931e-08
9.20912e-08
9.20774e-08
9.19214e-08
9.19243e-08
9.19232e-08
9.19232e-08
9.19243e-08
9.19214e-08
9.21298e-08
9.2201e-08
9.21799e-08
9.20733e-08
9.19219e-08
9.19231e-08
9.19226e-08
9.19226e-08
9.19231e-08
9.19219e-08
9.21294e-08
9.21991e-08
9.21715e-08
9.2077e-08
9.19219e-08
9.19231e-08
9.19226e-08
9.19226e-08
9.19231e-08
9.19219e-08
9.21274e-08
9.20951e-08
9.20748e-08
9.19214e-08
9.19242e-08
9.19231e-08
9.19231e-08
9.19242e-08
9.19214e-08
9.21291e-08
9.2203e-08
9.21999e-08
9.20931e-08
9.19213e-08
9.19218e-08
9.19218e-08
9.19214e-08
9.21157e-08
9.21105e-08
9.22031e-08
9.21761e-08
9.20911e-08
9.21297e-08
9.21293e-08
9.21272e-08
9.21289e-08
9.211e-08
9.22099e-08
9.22009e-08
9.2199e-08
9.2095e-08
9.22028e-08
9.22028e-08
9.10588e-08
9.10504e-08
9.10576e-08
9.09564e-08
9.09522e-08
9.09559e-08
9.09536e-08
9.10786e-08
9.10548e-08
9.10574e-08
9.09499e-08
9.08005e-08
9.08009e-08
9.08009e-08
9.08005e-08
9.09719e-08
9.09712e-08
9.09563e-08
9.08004e-08
9.08034e-08
9.08022e-08
9.08022e-08
9.08034e-08
9.08005e-08
9.10089e-08
9.108e-08
9.10587e-08
9.09521e-08
9.08009e-08
9.08022e-08
9.08016e-08
9.08016e-08
9.08022e-08
9.08009e-08
9.10084e-08
9.1078e-08
9.10503e-08
9.09558e-08
9.08009e-08
9.08021e-08
9.08016e-08
9.08016e-08
9.08022e-08
9.08009e-08
9.10063e-08
9.09741e-08
9.09537e-08
9.08004e-08
9.08033e-08
9.08021e-08
9.08021e-08
9.08033e-08
9.08005e-08
9.1008e-08
9.10818e-08
9.10787e-08
9.09719e-08
9.08004e-08
9.08008e-08
9.08008e-08
9.08004e-08
9.09946e-08
9.09893e-08
9.10819e-08
9.10549e-08
9.097e-08
9.10086e-08
9.10082e-08
9.10061e-08
9.10078e-08
9.09889e-08
9.10887e-08
9.10797e-08
9.10778e-08
9.09739e-08
9.10816e-08
9.10817e-08
8.99381e-08
8.99297e-08
8.9937e-08
8.98358e-08
8.98316e-08
8.98352e-08
8.98331e-08
8.99581e-08
8.99343e-08
8.99367e-08
8.98292e-08
8.96799e-08
8.96803e-08
8.96803e-08
8.96799e-08
8.98514e-08
8.98494e-08
8.98356e-08
8.96798e-08
8.96827e-08
8.96816e-08
8.96816e-08
8.96827e-08
8.96798e-08
8.98881e-08
8.99591e-08
8.9938e-08
8.98314e-08
8.96802e-08
8.96815e-08
8.96809e-08
8.96809e-08
8.96815e-08
8.96802e-08
8.98876e-08
8.99572e-08
8.99296e-08
8.98351e-08
8.96802e-08
8.96815e-08
8.96809e-08
8.96809e-08
8.96815e-08
8.96802e-08
8.98856e-08
8.98534e-08
8.9833e-08
8.96798e-08
8.96826e-08
8.96815e-08
8.96815e-08
8.96827e-08
8.96798e-08
8.98873e-08
8.99611e-08
8.9958e-08
8.98513e-08
8.96798e-08
8.96802e-08
8.96802e-08
8.96798e-08
8.9874e-08
8.98687e-08
8.99612e-08
8.99342e-08
8.98493e-08
8.9888e-08
8.98875e-08
8.98855e-08
8.98871e-08
8.98682e-08
8.9968e-08
8.9959e-08
8.99571e-08
8.98532e-08
8.99609e-08
8.9961e-08
8.88176e-08
8.88092e-08
8.88164e-08
8.87153e-08
8.8711e-08
8.87147e-08
8.87125e-08
8.88376e-08
8.88138e-08
8.88161e-08
8.87087e-08
8.85594e-08
8.85598e-08
8.85598e-08
8.85594e-08
8.87308e-08
8.87289e-08
8.8715e-08
8.85593e-08
8.85622e-08
8.8561e-08
8.85611e-08
8.85622e-08
8.85593e-08
8.87675e-08
8.88386e-08
8.88174e-08
8.87109e-08
8.85597e-08
8.8561e-08
8.85604e-08
8.85604e-08
8.8561e-08
8.85597e-08
8.87671e-08
8.88367e-08
8.8809e-08
8.87146e-08
8.85597e-08
8.8561e-08
8.85604e-08
8.85604e-08
8.8561e-08
8.85597e-08
8.87651e-08
8.87328e-08
8.87124e-08
8.85593e-08
8.85621e-08
8.8561e-08
8.8561e-08
8.85621e-08
8.85593e-08
8.87667e-08
8.88405e-08
8.88375e-08
8.87307e-08
8.85593e-08
8.85597e-08
8.85597e-08
8.85593e-08
8.87534e-08
8.87481e-08
8.88407e-08
8.88137e-08
8.87288e-08
8.87675e-08
8.8767e-08
8.8765e-08
8.87666e-08
8.87477e-08
8.88475e-08
8.88385e-08
8.88366e-08
8.87327e-08
8.88404e-08
8.88404e-08
8.76971e-08
8.76886e-08
8.76959e-08
8.75947e-08
8.75905e-08
8.75942e-08
8.75919e-08
8.77169e-08
8.76931e-08
8.76956e-08
8.75882e-08
8.74389e-08
8.74393e-08
8.74393e-08
8.74389e-08
8.76102e-08
8.76095e-08
8.75945e-08
8.74388e-08
8.74417e-08
8.74406e-08
8.74406e-08
8.74417e-08
8.74389e-08
8.76473e-08
8.77183e-08
8.76969e-08
8.75904e-08
8.74392e-08
8.74405e-08
8.74399e-08
8.74399e-08
8.74406e-08
8.74393e-08
8.76467e-08
8.77163e-08
8.76885e-08
8.75941e-08
8.74392e-08
8.74405e-08
8.74399e-08
8.74399e-08
8.74406e-08
8.74393e-08
8.76446e-08
8.76124e-08
8.75918e-08
8.74388e-08
8.74417e-08
8.74406e-08
8.74406e-08
8.74417e-08
8.74389e-08
8.76462e-08
8.772e-08
8.77168e-08
8.76101e-08
8.74389e-08
8.74393e-08
8.74393e-08
8.74389e-08
8.7633e-08
8.76272e-08
8.772e-08
8.7693e-08
8.76094e-08
8.76472e-08
8.76467e-08
8.76446e-08
8.76463e-08
8.76277e-08
8.7727e-08
8.77182e-08
8.77163e-08
8.76123e-08
8.77201e-08
8.77202e-08
8.65766e-08
8.65682e-08
8.65754e-08
8.64743e-08
8.64701e-08
8.64737e-08
8.64715e-08
8.65964e-08
8.65726e-08
8.65752e-08
8.64678e-08
8.63184e-08
8.63188e-08
8.63188e-08
8.63184e-08
8.64898e-08
8.64891e-08
8.64741e-08
8.63184e-08
8.63212e-08
8.63201e-08
8.63201e-08
8.63213e-08
8.63185e-08
8.65268e-08
8.65978e-08
8.65765e-08
8.647e-08
8.63188e-08
8.63201e-08
8.63195e-08
8.63195e-08
8.63201e-08
8.63189e-08
8.65263e-08
8.65959e-08
8.65681e-08
8.64736e-08
8.63188e-08
8.63201e-08
8.63195e-08
8.63195e-08
8.63201e-08
8.63189e-08
8.65242e-08
8.6492e-08
8.64714e-08
8.63184e-08
8.63212e-08
8.63201e-08
8.63201e-08
8.63213e-08
8.63185e-08
8.65259e-08
8.65997e-08
8.65963e-08
8.64897e-08
8.63184e-08
8.63188e-08
8.63188e-08
8.63184e-08
8.65126e-08
8.65072e-08
8.65998e-08
8.65726e-08
8.6489e-08
8.65268e-08
8.65262e-08
8.65241e-08
8.65257e-08
8.65068e-08
8.66066e-08
8.65978e-08
8.65958e-08
8.64919e-08
8.65995e-08
8.65996e-08
8.54562e-08
8.54477e-08
8.5455e-08
8.53539e-08
8.53497e-08
8.53533e-08
8.53511e-08
8.5476e-08
8.54522e-08
8.54548e-08
8.53473e-08
8.5198e-08
8.51984e-08
8.51984e-08
8.5198e-08
8.53693e-08
8.53686e-08
8.53537e-08
8.51979e-08
8.52008e-08
8.51997e-08
8.51997e-08
8.52008e-08
8.5198e-08
8.54064e-08
8.54774e-08
8.54561e-08
8.53496e-08
8.51984e-08
8.51997e-08
8.5199e-08
8.5199e-08
8.51997e-08
8.51984e-08
8.54058e-08
8.54754e-08
8.54477e-08
8.53532e-08
8.51984e-08
8.51997e-08
8.5199e-08
8.5199e-08
8.51997e-08
8.51984e-08
8.54038e-08
8.53715e-08
8.53511e-08
8.5198e-08
8.52008e-08
8.51997e-08
8.51997e-08
8.52008e-08
8.5198e-08
8.54054e-08
8.54792e-08
8.54761e-08
8.53694e-08
8.51979e-08
8.51983e-08
8.51983e-08
8.51979e-08
8.53921e-08
8.53868e-08
8.54793e-08
8.54523e-08
8.53675e-08
8.54061e-08
8.54057e-08
8.54036e-08
8.54053e-08
8.53863e-08
8.54862e-08
8.54772e-08
8.54753e-08
8.53714e-08
8.54791e-08
8.54791e-08
8.43358e-08
8.43274e-08
8.43346e-08
8.42335e-08
8.42292e-08
8.42329e-08
8.42307e-08
8.43558e-08
8.4332e-08
8.43343e-08
8.42269e-08
8.40776e-08
8.4078e-08
8.4078e-08
8.40776e-08
8.4249e-08
8.42471e-08
8.42333e-08
8.40775e-08
8.40804e-08
8.40793e-08
8.40793e-08
8.40804e-08
8.40776e-08
8.42858e-08
8.43568e-08
8.43357e-08
8.42291e-08
8.40779e-08
8.40793e-08
8.40786e-08
8.40786e-08
8.40793e-08
8.4078e-08
8.42853e-08
8.43549e-08
8.43273e-08
8.42328e-08
8.40779e-08
8.40792e-08
8.40786e-08
8.40786e-08
8.40793e-08
8.4078e-08
8.42833e-08
8.42511e-08
8.42307e-08
8.40775e-08
8.40804e-08
8.40792e-08
8.40792e-08
8.40804e-08
8.40776e-08
8.4285e-08
8.43588e-08
8.43557e-08
8.4249e-08
8.40775e-08
8.40779e-08
8.40779e-08
8.40775e-08
8.42717e-08
8.42664e-08
8.43589e-08
8.43319e-08
8.4247e-08
8.42857e-08
8.42852e-08
8.42832e-08
8.42848e-08
8.42659e-08
8.43657e-08
8.43567e-08
8.43548e-08
8.42509e-08
8.43586e-08
8.43586e-08
8.32153e-08
8.32069e-08
8.32142e-08
8.3113e-08
8.31088e-08
8.31124e-08
8.31102e-08
8.32351e-08
8.32114e-08
8.32139e-08
8.31065e-08
8.29571e-08
8.29575e-08
8.29575e-08
8.29571e-08
8.31285e-08
8.31278e-08
8.31128e-08
8.29571e-08
8.296e-08
8.29588e-08
8.29588e-08
8.296e-08
8.29572e-08
8.31655e-08
8.32366e-08
8.32152e-08
8.31087e-08
8.29575e-08
8.29588e-08
8.29582e-08
8.29582e-08
8.29588e-08
8.29576e-08
8.3165e-08
8.32346e-08
8.32068e-08
8.31124e-08
8.29575e-08
8.29588e-08
8.29582e-08
8.29582e-08
8.29588e-08
8.29576e-08
8.31629e-08
8.31307e-08
8.31102e-08
8.29571e-08
8.29599e-08
8.29588e-08
8.29588e-08
8.29599e-08
8.29571e-08
8.31646e-08
8.32384e-08
8.32353e-08
8.31285e-08
8.29571e-08
8.29575e-08
8.29575e-08
8.29571e-08
8.31512e-08
8.31459e-08
8.32385e-08
8.32115e-08
8.31266e-08
8.31652e-08
8.31648e-08
8.31628e-08
8.31644e-08
8.31455e-08
8.32453e-08
8.32363e-08
8.32344e-08
8.31305e-08
8.32382e-08
8.32382e-08
8.20949e-08
8.20864e-08
8.20937e-08
8.19926e-08
8.19883e-08
8.1992e-08
8.19897e-08
8.21147e-08
8.20909e-08
8.20935e-08
8.19861e-08
8.18367e-08
8.18371e-08
8.18371e-08
8.18367e-08
8.2008e-08
8.20073e-08
8.19924e-08
8.18367e-08
8.18395e-08
8.18384e-08
8.18384e-08
8.18395e-08
8.18367e-08
8.20451e-08
8.21161e-08
8.20948e-08
8.19883e-08
8.18371e-08
8.18384e-08
8.18377e-08
8.18377e-08
8.18384e-08
8.18371e-08
8.20446e-08
8.21142e-08
8.20864e-08
8.1992e-08
8.18371e-08
8.18384e-08
8.18377e-08
8.18377e-08
8.18384e-08
8.18371e-08
8.20425e-08
8.20103e-08
8.19898e-08
8.18367e-08
8.18395e-08
8.18384e-08
8.18384e-08
8.18395e-08
8.18367e-08
8.20442e-08
8.2118e-08
8.21148e-08
8.20081e-08
8.18366e-08
8.1837e-08
8.1837e-08
8.18366e-08
8.20308e-08
8.20255e-08
8.21181e-08
8.2091e-08
8.20062e-08
8.20448e-08
8.20444e-08
8.20423e-08
8.20439e-08
8.2025e-08
8.21249e-08
8.21159e-08
8.21139e-08
8.20101e-08
8.21178e-08
8.21178e-08
8.09744e-08
8.0966e-08
8.09733e-08
8.08721e-08
8.08679e-08
8.08715e-08
8.08693e-08
8.09942e-08
8.09705e-08
8.0973e-08
8.08656e-08
8.07163e-08
8.07166e-08
8.07166e-08
8.07162e-08
8.08876e-08
8.08869e-08
8.0872e-08
8.07162e-08
8.07191e-08
8.0718e-08
8.0718e-08
8.07191e-08
8.07163e-08
8.09247e-08
8.09957e-08
8.09744e-08
8.08679e-08
8.07166e-08
8.07179e-08
8.07173e-08
8.07173e-08
8.0718e-08
8.07167e-08
8.09241e-08
8.09937e-08
8.0966e-08
8.08715e-08
8.07166e-08
8.07179e-08
8.07173e-08
8.07173e-08
8.0718e-08
8.07167e-08
8.09221e-08
8.08898e-08
8.08694e-08
8.07162e-08
8.07191e-08
8.07179e-08
8.07179e-08
8.07191e-08
8.07163e-08
8.09237e-08
8.09975e-08
8.09944e-08
8.08877e-08
8.07162e-08
8.07166e-08
8.07166e-08
8.07162e-08
8.09104e-08
8.09051e-08
8.09976e-08
8.09706e-08
8.08858e-08
8.09244e-08
8.09239e-08
8.09219e-08
8.09235e-08
8.09046e-08
8.10044e-08
8.09954e-08
8.09935e-08
8.08896e-08
8.09973e-08
8.09974e-08
7.98539e-08
7.98455e-08
7.98526e-08
7.97515e-08
7.97474e-08
7.97511e-08
7.97488e-08
7.98738e-08
7.985e-08
7.98529e-08
7.97452e-08
7.95958e-08
7.95962e-08
7.95962e-08
7.95958e-08
7.97671e-08
7.97665e-08
7.97517e-08
7.95958e-08
7.95986e-08
7.95975e-08
7.95975e-08
7.95987e-08
7.95959e-08
7.98042e-08
7.98753e-08
7.9854e-08
7.97475e-08
7.95962e-08
7.95975e-08
7.95969e-08
7.95969e-08
7.95975e-08
7.95963e-08
7.98037e-08
7.98733e-08
7.98456e-08
7.97511e-08
7.95962e-08
7.95975e-08
7.95969e-08
7.95969e-08
7.95975e-08
7.95963e-08
7.98016e-08
7.97694e-08
7.97489e-08
7.95958e-08
7.95986e-08
7.95975e-08
7.95975e-08
7.95986e-08
7.95958e-08
7.98033e-08
7.98771e-08
7.9874e-08
7.97672e-08
7.95958e-08
7.95962e-08
7.95962e-08
7.95958e-08
7.979e-08
7.97846e-08
7.98772e-08
7.98502e-08
7.97653e-08
7.9804e-08
7.98035e-08
7.98015e-08
7.98031e-08
7.97842e-08
7.9884e-08
7.9875e-08
7.98731e-08
7.97692e-08
7.98769e-08
7.98769e-08
7.87336e-08
7.87251e-08
7.87324e-08
7.86312e-08
7.8627e-08
7.86307e-08
7.86284e-08
7.87533e-08
7.87296e-08
7.87321e-08
7.86247e-08
7.84754e-08
7.84758e-08
7.84758e-08
7.84754e-08
7.86467e-08
7.8646e-08
7.86311e-08
7.84753e-08
7.84782e-08
7.84771e-08
7.84771e-08
7.84782e-08
7.84754e-08
7.86838e-08
7.87548e-08
7.87335e-08
7.86269e-08
7.84757e-08
7.84771e-08
7.84764e-08
7.84764e-08
7.84771e-08
7.84758e-08
7.86832e-08
7.87528e-08
7.8725e-08
7.86306e-08
7.84757e-08
7.84771e-08
7.84764e-08
7.84764e-08
7.84771e-08
7.84758e-08
7.86812e-08
7.86489e-08
7.86284e-08
7.84753e-08
7.84782e-08
7.84771e-08
7.84771e-08
7.84782e-08
7.84754e-08
7.86828e-08
7.87566e-08
7.87533e-08
7.86467e-08
7.84754e-08
7.84758e-08
7.84758e-08
7.84754e-08
7.86695e-08
7.86642e-08
7.87567e-08
7.87296e-08
7.8646e-08
7.86838e-08
7.86832e-08
7.86811e-08
7.86827e-08
7.86638e-08
7.87636e-08
7.87547e-08
7.87528e-08
7.86488e-08
7.87565e-08
7.87565e-08
7.76132e-08
7.76047e-08
7.7612e-08
7.75108e-08
7.75066e-08
7.75103e-08
7.7508e-08
7.76329e-08
7.76092e-08
7.76117e-08
7.75043e-08
7.7355e-08
7.73554e-08
7.73554e-08
7.7355e-08
7.75263e-08
7.75256e-08
7.75106e-08
7.73549e-08
7.73578e-08
7.73567e-08
7.73567e-08
7.73578e-08
7.7355e-08
7.75633e-08
7.76343e-08
7.7613e-08
7.75065e-08
7.73553e-08
7.73567e-08
7.7356e-08
7.7356e-08
7.73567e-08
7.73554e-08
7.75628e-08
7.76324e-08
7.76046e-08
7.75102e-08
7.73553e-08
7.73567e-08
7.7356e-08
7.7356e-08
7.73567e-08
7.73554e-08
7.75607e-08
7.75284e-08
7.7508e-08
7.73549e-08
7.73578e-08
7.73567e-08
7.73567e-08
7.73578e-08
7.7355e-08
7.75623e-08
7.76361e-08
7.76329e-08
7.75263e-08
7.7355e-08
7.73554e-08
7.73554e-08
7.7355e-08
7.75491e-08
7.75433e-08
7.76361e-08
7.76091e-08
7.75256e-08
7.75634e-08
7.75628e-08
7.75607e-08
7.75624e-08
7.75438e-08
7.76432e-08
7.76344e-08
7.76324e-08
7.75285e-08
7.76362e-08
7.76363e-08
7.64928e-08
7.64844e-08
7.64916e-08
7.63905e-08
7.63863e-08
7.63899e-08
7.63877e-08
7.65128e-08
7.6489e-08
7.64913e-08
7.63839e-08
7.62346e-08
7.6235e-08
7.6235e-08
7.62346e-08
7.6406e-08
7.64041e-08
7.63903e-08
7.62345e-08
7.62374e-08
7.62363e-08
7.62363e-08
7.62374e-08
7.62345e-08
7.64427e-08
7.65138e-08
7.64927e-08
7.63861e-08
7.6235e-08
7.62363e-08
7.62356e-08
7.62356e-08
7.62363e-08
7.6235e-08
7.64423e-08
7.65119e-08
7.64843e-08
7.63898e-08
7.6235e-08
7.62363e-08
7.62356e-08
7.62356e-08
7.62363e-08
7.62349e-08
7.64402e-08
7.6408e-08
7.63877e-08
7.62346e-08
7.62374e-08
7.62363e-08
7.62363e-08
7.62374e-08
7.62345e-08
7.64419e-08
7.65157e-08
7.65127e-08
7.6406e-08
7.62345e-08
7.6235e-08
7.6235e-08
7.62346e-08
7.64287e-08
7.64229e-08
7.65157e-08
7.64889e-08
7.64041e-08
7.64427e-08
7.64423e-08
7.64403e-08
7.6442e-08
7.64234e-08
7.65227e-08
7.65138e-08
7.65119e-08
7.6408e-08
7.65158e-08
7.65159e-08
7.53724e-08
7.5364e-08
7.53712e-08
7.52701e-08
7.52659e-08
7.52695e-08
7.52674e-08
7.53924e-08
7.53686e-08
7.5371e-08
7.52636e-08
7.51142e-08
7.51146e-08
7.51146e-08
7.51142e-08
7.52857e-08
7.52837e-08
7.52699e-08
7.51142e-08
7.5117e-08
7.51159e-08
7.51159e-08
7.5117e-08
7.51142e-08
7.53224e-08
7.53934e-08
7.53723e-08
7.52658e-08
7.51146e-08
7.51159e-08
7.51152e-08
7.51152e-08
7.51159e-08
7.51146e-08
7.53219e-08
7.53915e-08
7.53639e-08
7.52695e-08
7.51146e-08
7.51159e-08
7.51152e-08
7.51152e-08
7.51159e-08
7.51146e-08
7.53199e-08
7.52876e-08
7.52673e-08
7.51142e-08
7.5117e-08
7.51159e-08
7.51159e-08
7.5117e-08
7.51142e-08
7.53216e-08
7.53954e-08
7.53923e-08
7.52856e-08
7.51141e-08
7.51145e-08
7.51145e-08
7.51141e-08
7.53083e-08
7.5303e-08
7.53955e-08
7.53685e-08
7.52837e-08
7.53223e-08
7.53219e-08
7.53198e-08
7.53215e-08
7.53025e-08
7.54023e-08
7.53934e-08
7.53915e-08
7.52876e-08
7.53953e-08
7.53953e-08
7.4252e-08
7.42435e-08
7.42508e-08
7.41497e-08
7.41454e-08
7.41491e-08
7.41468e-08
7.42718e-08
7.4248e-08
7.42506e-08
7.41431e-08
7.39938e-08
7.39942e-08
7.39942e-08
7.39938e-08
7.41651e-08
7.41644e-08
7.41495e-08
7.39938e-08
7.39966e-08
7.39955e-08
7.39955e-08
7.39966e-08
7.39938e-08
7.42022e-08
7.42732e-08
7.42519e-08
7.41454e-08
7.39942e-08
7.39955e-08
7.39948e-08
7.39948e-08
7.39955e-08
7.39942e-08
7.42016e-08
7.42712e-08
7.42435e-08
7.41491e-08
7.39942e-08
7.39955e-08
7.39948e-08
7.39948e-08
7.39955e-08
7.39942e-08
7.41995e-08
7.41673e-08
7.41469e-08
7.39938e-08
7.39966e-08
7.39955e-08
7.39955e-08
7.39966e-08
7.39938e-08
7.42012e-08
7.4275e-08
7.4272e-08
7.41652e-08
7.39938e-08
7.39942e-08
7.39942e-08
7.39938e-08
7.41879e-08
7.41826e-08
7.42751e-08
7.42482e-08
7.41633e-08
7.42019e-08
7.42015e-08
7.41995e-08
7.42011e-08
7.41822e-08
7.4282e-08
7.4273e-08
7.42711e-08
7.41672e-08
7.42749e-08
7.42749e-08
7.31315e-08
7.3123e-08
7.31301e-08
7.30291e-08
7.30249e-08
7.30286e-08
7.30264e-08
7.31513e-08
7.31276e-08
7.31304e-08
7.30227e-08
7.28733e-08
7.28737e-08
7.28737e-08
7.28733e-08
7.30447e-08
7.3044e-08
7.30292e-08
7.28734e-08
7.28762e-08
7.28751e-08
7.28751e-08
7.28762e-08
7.28734e-08
7.30818e-08
7.31528e-08
7.31316e-08
7.3025e-08
7.28738e-08
7.28751e-08
7.28744e-08
7.28744e-08
7.28751e-08
7.28738e-08
7.30812e-08
7.31508e-08
7.31231e-08
7.30287e-08
7.28738e-08
7.28751e-08
7.28744e-08
7.28744e-08
7.28751e-08
7.28738e-08
7.30791e-08
7.30469e-08
7.30264e-08
7.28734e-08
7.28762e-08
7.28751e-08
7.28751e-08
7.28762e-08
7.28734e-08
7.30807e-08
7.31545e-08
7.31513e-08
7.30447e-08
7.28734e-08
7.28738e-08
7.28738e-08
7.28734e-08
7.30675e-08
7.30618e-08
7.31545e-08
7.31276e-08
7.3044e-08
7.30818e-08
7.30812e-08
7.30792e-08
7.30808e-08
7.30622e-08
7.31616e-08
7.31528e-08
7.31508e-08
7.30469e-08
7.31546e-08
7.31547e-08
7.20111e-08
7.20026e-08
7.20097e-08
7.19087e-08
7.19045e-08
7.19082e-08
7.1906e-08
7.20309e-08
7.20072e-08
7.201e-08
7.19023e-08
7.17529e-08
7.17534e-08
7.17533e-08
7.17529e-08
7.19243e-08
7.19236e-08
7.19088e-08
7.1753e-08
7.17558e-08
7.17547e-08
7.17547e-08
7.17558e-08
7.1753e-08
7.19613e-08
7.20323e-08
7.20111e-08
7.19046e-08
7.17534e-08
7.17547e-08
7.1754e-08
7.1754e-08
7.17547e-08
7.17534e-08
7.19608e-08
7.20304e-08
7.20027e-08
7.19082e-08
7.17534e-08
7.17547e-08
7.1754e-08
7.1754e-08
7.17547e-08
7.17534e-08
7.19587e-08
7.19264e-08
7.1906e-08
7.1753e-08
7.17558e-08
7.17547e-08
7.17547e-08
7.17558e-08
7.1753e-08
7.19603e-08
7.20341e-08
7.20309e-08
7.19243e-08
7.1753e-08
7.17534e-08
7.17534e-08
7.1753e-08
7.19471e-08
7.19413e-08
7.20341e-08
7.20072e-08
7.19236e-08
7.19614e-08
7.19608e-08
7.19587e-08
7.19604e-08
7.19418e-08
7.20412e-08
7.20324e-08
7.20304e-08
7.19265e-08
7.20342e-08
7.20343e-08
7.08908e-08
7.08823e-08
7.08896e-08
7.07884e-08
7.07842e-08
7.07879e-08
7.07857e-08
7.09107e-08
7.0887e-08
7.08893e-08
7.07819e-08
7.06326e-08
7.0633e-08
7.0633e-08
7.06326e-08
7.0804e-08
7.08021e-08
7.07883e-08
7.06325e-08
7.06354e-08
7.06343e-08
7.06343e-08
7.06354e-08
7.06326e-08
7.08408e-08
7.09118e-08
7.08907e-08
7.07841e-08
7.06329e-08
7.06343e-08
7.06336e-08
7.06336e-08
7.06343e-08
7.0633e-08
7.08403e-08
7.09099e-08
7.08823e-08
7.07878e-08
7.0633e-08
7.06343e-08
7.06336e-08
7.06336e-08
7.06343e-08
7.0633e-08
7.08383e-08
7.0806e-08
7.07857e-08
7.06326e-08
7.06354e-08
7.06342e-08
7.06342e-08
7.06354e-08
7.06326e-08
7.084e-08
7.09138e-08
7.09107e-08
7.0804e-08
7.06325e-08
7.06329e-08
7.06329e-08
7.06325e-08
7.08267e-08
7.08214e-08
7.09139e-08
7.08869e-08