/*--------------------------------*- C++ -*----------------------------------*\
| =========                 |                                                 |
| \\      /  F ield         | OpenFOAM: The Open Source CFD Toolbox           |
|  \\    /   O peration     | Version:  2312                                  |
|   \\  /    A nd           | Website:  www.openfoam.com                      |
|    \\/     M anipulation  |                                                 |
\*---------------------------------------------------------------------------*/
FoamFile
{
    version     2.0;
    format      ascii;
    arch        "LSB;label=32;scalar=64";
    class       volScalarField;
    location    "625";
    object      epsilon;
}
// * * * * * * * * * * * * * * * * * * * * * * * * * * * * * * * * * * * * * //

dimensions      [0 2 -3 0 0 0 0];

internalField   nonuniform List<scalar> 
172512
(
4.9917e-07
4.99974e-07
4.99974e-07
4.99867e-07
4.45574e-07
4.54107e-07
4.54107e-07
4.63745e-07
4.03788e-07
4.18744e-07
4.18746e-07
4.39534e-07
3.68405e-07
3.88705e-07
3.88708e-07
4.17793e-07
3.38054e-07
3.62209e-07
3.62212e-07
3.96187e-07
3.11679e-07
3.38348e-07
3.38352e-07
3.74663e-07
2.885e-07
3.16691e-07
3.16695e-07
3.53771e-07
2.67943e-07
2.97059e-07
2.97064e-07
3.34192e-07
2.49595e-07
2.79396e-07
2.794e-07
3.16514e-07
2.33147e-07
2.63696e-07
2.637e-07
3.01181e-07
2.18372e-07
2.49965e-07
2.49969e-07
2.88504e-07
2.05093e-07
2.38204e-07
2.38208e-07
2.787e-07
1.93172e-07
2.28412e-07
2.28416e-07
2.71875e-07
1.82496e-07
2.20598e-07
2.20603e-07
2.6816e-07
1.72975e-07
2.14769e-07
2.14774e-07
2.67638e-07
1.64535e-07
2.10934e-07
2.10939e-07
2.70488e-07
1.57114e-07
2.09104e-07
2.09109e-07
2.76692e-07
1.50659e-07
2.09294e-07
2.093e-07
2.86278e-07
1.45126e-07
2.11549e-07
2.11557e-07
2.99234e-07
1.40479e-07
2.15887e-07
2.15896e-07
3.15617e-07
1.3669e-07
2.22329e-07
2.22339e-07
3.35377e-07
1.33734e-07
2.30891e-07
2.30902e-07
3.58416e-07
1.3159e-07
2.41557e-07
2.41569e-07
3.84552e-07
1.30243e-07
2.54309e-07
2.54326e-07
4.13548e-07
1.29679e-07
2.69104e-07
2.69123e-07
4.45063e-07
1.29906e-07
2.85884e-07
2.85902e-07
4.78716e-07
1.30896e-07
3.0455e-07
3.04573e-07
5.14089e-07
1.3265e-07
3.25001e-07
3.25029e-07
5.50682e-07
1.35171e-07
3.47111e-07
3.47147e-07
5.88089e-07
1.38462e-07
3.70752e-07
3.70794e-07
6.25861e-07
1.42528e-07
3.95804e-07
3.95835e-07
6.63689e-07
1.47354e-07
4.2205e-07
4.22108e-07
7.01124e-07
1.52971e-07
4.49314e-07
4.49401e-07
7.37955e-07
1.5939e-07
4.77591e-07
4.77622e-07
7.7406e-07
1.66551e-07
5.06433e-07
5.06475e-07
8.09043e-07
1.74511e-07
5.35821e-07
5.35927e-07
8.42807e-07
1.83354e-07
5.65563e-07
5.65644e-07
8.75646e-07
1.92909e-07
5.95821e-07
5.95829e-07
9.0751e-07
2.03344e-07
6.25969e-07
6.2612e-07
9.38025e-07
2.1454e-07
6.55604e-07
6.55739e-07
9.66898e-07
2.26026e-07
6.84988e-07
6.84916e-07
9.94424e-07
2.38338e-07
7.13051e-07
7.12888e-07
1.01997e-06
2.52331e-07
7.42372e-07
7.42239e-07
1.0461e-06
2.66498e-07
7.73176e-07
7.73602e-07
1.06952e-06
2.74723e-07
7.83033e-07
7.81689e-07
1.07238e-06
2.85872e-07
8.04366e-07
7.98902e-07
1.0972e-06
3.29726e-07
8.9424e-07
9.03118e-07
1.20386e-06
3.73113e-07
9.44023e-07
9.409e-07
1.25093e-06
3.60852e-07
8.9337e-07
8.83309e-07
1.16053e-06
3.07542e-07
8.30938e-07
8.5467e-07
1.1014e-06
3.01514e-07
8.50748e-07
9.02439e-07
1.17208e-06
4.03175e-07
1.01383e-06
9.79406e-07
1.26667e-06
4.67216e-07
1.05034e-06
9.95624e-07
1.27973e-06
4.27902e-07
9.63643e-07
9.7013e-07
1.23781e-06
4.02227e-07
9.64387e-07
1.00766e-06
1.238e-06
4.54777e-07
1.0378e-06
1.08167e-06
1.32597e-06
5.16739e-07
1.07897e-06
1.08179e-06
1.33235e-06
5.12797e-07
1.08763e-06
1.03091e-06
1.27972e-06
4.79567e-07
1.07485e-06
1.04202e-06
1.31841e-06
5.03565e-07
1.0699e-06
1.11404e-06
1.37057e-06
5.52925e-07
1.09676e-06
1.12791e-06
1.37607e-06
5.52319e-07
1.11983e-06
1.10434e-06
1.34735e-06
5.45395e-07
1.12218e-06
1.11008e-06
1.33307e-06
5.66333e-07
1.12596e-06
1.13838e-06
1.35911e-06
5.90659e-07
1.14077e-06
1.14779e-06
1.38159e-06
5.9824e-07
1.15507e-06
1.14535e-06
1.38897e-06
6.01462e-07
1.15847e-06
1.15196e-06
1.3998e-06
6.09694e-07
1.16062e-06
1.16629e-06
1.40647e-06
6.2396e-07
1.1664e-06
1.1707e-06
1.40009e-06
6.35948e-07
1.17417e-06
1.17249e-06
1.39971e-06
6.41669e-07
1.18229e-06
1.18105e-06
1.41247e-06
6.49017e-07
1.18649e-06
1.18545e-06
1.4202e-06
6.56658e-07
1.18666e-06
1.18635e-06
1.4197e-06
6.61913e-07
1.1897e-06
1.19147e-06
1.42271e-06
6.67716e-07
1.19526e-06
1.19507e-06
1.42661e-06
6.72794e-07
1.19501e-06
1.19511e-06
1.42759e-06
6.75984e-07
1.19455e-06
1.19489e-06
1.42796e-06
6.78558e-07
1.19795e-06
1.19753e-06
1.42846e-06
6.8369e-07
1.19926e-06
1.19802e-06
1.4313e-06
6.87562e-07
1.19694e-06
1.19805e-06
1.43226e-06
6.88117e-07
1.19562e-06
1.19848e-06
1.43034e-06
6.89847e-07
1.19718e-06
1.19561e-06
1.42845e-06
6.92139e-07
1.19796e-06
1.19536e-06
1.43114e-06
6.92447e-07
1.19444e-06
1.1963e-06
1.432e-06
6.92329e-07
1.18986e-06
1.19142e-06
1.42585e-06
6.92626e-07
1.19022e-06
1.18991e-06
1.42423e-06
6.94365e-07
1.19136e-06
1.19151e-06
1.42812e-06
6.94627e-07
1.18885e-06
1.18453e-06
1.42414e-06
6.89268e-07
1.17753e-06
1.18147e-06
1.41947e-06
6.87443e-07
1.17891e-06
1.18041e-06
1.41565e-06
6.94044e-07
1.17982e-06
1.17606e-06
1.40965e-06
6.8809e-07
1.1716e-06
1.17537e-06
1.41309e-06
6.86221e-07
1.17638e-06
1.17675e-06
1.42486e-06
6.84575e-07
1.15935e-06
1.15966e-06
1.40385e-06
7.29378e-07
1.05674e-06
1.05713e-06
1.32035e-06
5.06203e-07
5.05587e-07
5.05586e-07
5.06203e-07
5.05586e-07
5.05586e-07
5.05987e-07
5.05987e-07
5.05987e-07
5.05987e-07
5.05588e-07
5.05588e-07
5.06203e-07
5.05588e-07
5.05587e-07
5.06204e-07
4.99868e-07
4.67259e-07
4.99975e-07
4.99976e-07
4.6413e-07
4.64138e-07
4.99868e-07
4.67258e-07
4.99976e-07
4.99976e-07
4.64134e-07
4.64139e-07
4.99974e-07
4.64124e-07
4.64129e-07
4.99867e-07
4.67261e-07
4.99976e-07
4.64125e-07
4.64134e-07
4.67263e-07
4.63745e-07
4.41544e-07
4.54112e-07
4.5412e-07
4.26998e-07
4.27007e-07
4.63745e-07
4.41543e-07
4.54116e-07
4.54123e-07
4.26998e-07
4.27009e-07
4.54113e-07
4.2699e-07
4.27e-07
4.63745e-07
4.41549e-07
4.54116e-07
4.26992e-07
4.27001e-07
4.41556e-07
4.39527e-07
4.19399e-07
4.18753e-07
4.18761e-07
3.95843e-07
3.95852e-07
4.3953e-07
4.19402e-07
4.18752e-07
4.18764e-07
3.95838e-07
3.95855e-07
4.18757e-07
3.95833e-07
3.95848e-07
4.39531e-07
4.19407e-07
4.18755e-07
3.95835e-07
3.95843e-07
4.19415e-07
4.17778e-07
3.97737e-07
3.88717e-07
3.88725e-07
3.68574e-07
3.68582e-07
4.17781e-07
3.97742e-07
3.8871e-07
3.88728e-07
3.68564e-07
3.68585e-07
3.88722e-07
3.68561e-07
3.68581e-07
4.17786e-07
3.97748e-07
3.88716e-07
3.68564e-07
3.68571e-07
3.97758e-07
3.96168e-07
3.76152e-07
3.62222e-07
3.6223e-07
3.4411e-07
3.44117e-07
3.96173e-07
3.76158e-07
3.62212e-07
3.62234e-07
3.44097e-07
3.44121e-07
3.6223e-07
3.44096e-07
3.44118e-07
3.96178e-07
3.76165e-07
3.62219e-07
3.44099e-07
3.44106e-07
3.76175e-07
3.74642e-07
3.55156e-07
3.38363e-07
3.3837e-07
3.21928e-07
3.21933e-07
3.74648e-07
3.55161e-07
3.38349e-07
3.38374e-07
3.21912e-07
3.21937e-07
3.38371e-07
3.21912e-07
3.21936e-07
3.74654e-07
3.55169e-07
3.38358e-07
3.21915e-07
3.21921e-07
3.5518e-07
3.53749e-07
3.35422e-07
3.16708e-07
3.16714e-07
3.01799e-07
3.01804e-07
3.53755e-07
3.35428e-07
3.16691e-07
3.16717e-07
3.01781e-07
3.01808e-07
3.16716e-07
3.01783e-07
3.01807e-07
3.53761e-07
3.35435e-07
3.16701e-07
3.01786e-07
3.01791e-07
3.35447e-07
3.34168e-07
3.17546e-07
2.97077e-07
2.97082e-07
2.83646e-07
2.83651e-07
3.34175e-07
3.17552e-07
2.97058e-07
2.97085e-07
2.83626e-07
2.83655e-07
2.97085e-07
2.83629e-07
2.83654e-07
3.34182e-07
3.17559e-07
2.97068e-07
2.83632e-07
2.83637e-07
3.17571e-07
3.1649e-07
3.01977e-07
2.79415e-07
2.79419e-07
2.67455e-07
2.6746e-07
3.16498e-07
3.01982e-07
2.79394e-07
2.79422e-07
2.67434e-07
2.67463e-07
2.79423e-07
2.67437e-07
2.67463e-07
3.16505e-07
3.0199e-07
2.79405e-07
2.6744e-07
2.67445e-07
3.02002e-07
3.01156e-07
2.89033e-07
2.63715e-07
2.6372e-07
2.53232e-07
2.53237e-07
3.01164e-07
2.89038e-07
2.63693e-07
2.63723e-07
2.5321e-07
2.53241e-07
2.63723e-07
2.53213e-07
2.5324e-07
3.01171e-07
2.89047e-07
2.63704e-07
2.53216e-07
2.53221e-07
2.89059e-07
2.88478e-07
2.78935e-07
2.49986e-07
2.4999e-07
2.4098e-07
2.40985e-07
2.88486e-07
2.7894e-07
2.49962e-07
2.49993e-07
2.40956e-07
2.40988e-07
2.49993e-07
2.40959e-07
2.40987e-07
2.88493e-07
2.78949e-07
2.49973e-07
2.40962e-07
2.40967e-07
2.78962e-07
2.78673e-07
2.71807e-07
2.38226e-07
2.38231e-07
2.30696e-07
2.30702e-07
2.78682e-07
2.71816e-07
2.38201e-07
2.38234e-07
2.3067e-07
2.30706e-07
2.38233e-07
2.30673e-07
2.30703e-07
2.78688e-07
2.71825e-07
2.38213e-07
2.30677e-07
2.30683e-07
2.71837e-07
2.71847e-07
2.67835e-07
2.28436e-07
2.28443e-07
2.22388e-07
2.22397e-07
2.71858e-07
2.67846e-07
2.2841e-07
2.28445e-07
2.22362e-07
2.224e-07
2.28444e-07
2.22364e-07
2.22396e-07
2.71865e-07
2.67855e-07
2.28423e-07
2.22367e-07
2.22375e-07
2.67869e-07
2.68127e-07
2.6695e-07
2.20625e-07
2.20633e-07
2.16063e-07
2.16073e-07
2.68141e-07
2.6696e-07
2.20597e-07
2.20636e-07
2.16035e-07
2.16077e-07
2.20632e-07
2.16035e-07
2.16071e-07
2.68148e-07
2.66971e-07
2.20611e-07
2.16039e-07
2.16049e-07
2.66986e-07
2.67601e-07
2.69119e-07
2.14798e-07
2.14809e-07
2.11727e-07
2.11743e-07
2.67615e-07
2.69133e-07
2.14769e-07
2.14811e-07
2.117e-07
2.11745e-07
2.14806e-07
2.11698e-07
2.11736e-07
2.67623e-07
2.69144e-07
2.14783e-07
2.11703e-07
2.11715e-07
2.69162e-07
2.70445e-07
2.74623e-07
2.10963e-07
2.1098e-07
2.0939e-07
2.09414e-07
2.70463e-07
2.7464e-07
2.10936e-07
2.10982e-07
2.09365e-07
2.09415e-07
2.10972e-07
2.09361e-07
2.09399e-07
2.70473e-07
2.74652e-07
2.10952e-07
2.09366e-07
2.09382e-07
2.74671e-07
2.76644e-07
2.83504e-07
2.09132e-07
2.09157e-07
2.091e-07
2.09129e-07
2.76666e-07
2.83525e-07
2.09108e-07
2.09158e-07
2.09076e-07
2.09129e-07
2.09142e-07
2.09069e-07
2.0911e-07
2.76675e-07
2.83536e-07
2.09125e-07
2.09075e-07
2.09095e-07
2.83558e-07
2.86225e-07
2.95771e-07
2.09327e-07
2.09356e-07
2.10821e-07
2.10855e-07
2.86254e-07
2.95796e-07
2.09302e-07
2.09357e-07
2.10795e-07
2.10855e-07
2.09336e-07
2.10786e-07
2.10829e-07
2.86261e-07
2.95808e-07
2.09321e-07
2.10792e-07
2.10817e-07
2.95832e-07
2.99174e-07
3.11458e-07
2.11587e-07
2.11622e-07
2.1464e-07
2.14683e-07
2.99203e-07
3.11484e-07
2.11561e-07
2.11622e-07
2.14614e-07
2.14682e-07
2.11596e-07
2.14602e-07
2.1465e-07
2.99214e-07
3.11499e-07
2.11583e-07
2.14609e-07
2.1464e-07
3.11526e-07
3.15553e-07
3.30525e-07
2.15928e-07
2.15969e-07
2.20564e-07
2.20609e-07
3.15579e-07
3.30547e-07
2.15902e-07
2.15971e-07
2.20536e-07
2.20611e-07
2.15938e-07
2.2052e-07
2.20574e-07
3.15595e-07
3.30568e-07
2.15927e-07
2.20529e-07
2.20564e-07
3.30598e-07
3.35312e-07
3.52884e-07
2.22379e-07
2.22421e-07
2.2861e-07
2.28652e-07
3.35329e-07
3.52902e-07
2.22347e-07
2.22424e-07
2.28574e-07
2.28656e-07
2.22386e-07
2.28555e-07
2.28615e-07
3.35352e-07
3.52928e-07
2.22376e-07
2.28564e-07
2.28606e-07
3.52963e-07
3.58345e-07
3.78372e-07
2.30951e-07
2.30992e-07
2.38761e-07
2.38801e-07
3.58358e-07
3.78388e-07
2.30913e-07
2.30997e-07
2.38719e-07
2.3881e-07
2.30956e-07
2.38696e-07
2.38764e-07
3.58386e-07
3.7842e-07
2.30945e-07
2.38706e-07
2.38753e-07
3.78455e-07
3.84479e-07
4.06755e-07
2.41626e-07
2.41667e-07
2.51005e-07
2.51045e-07
3.84489e-07
4.06771e-07
2.41583e-07
2.41677e-07
2.50957e-07
2.51059e-07
2.41629e-07
2.50931e-07
2.51008e-07
3.84522e-07
4.06808e-07
2.41617e-07
2.50945e-07
2.50996e-07
4.06849e-07
4.13464e-07
4.3772e-07
2.54389e-07
2.54429e-07
2.65304e-07
2.65342e-07
4.13475e-07
4.3773e-07
2.54339e-07
2.54445e-07
2.6525e-07
2.65364e-07
2.54392e-07
2.6522e-07
2.65308e-07
4.13514e-07
4.37776e-07
2.54378e-07
2.65237e-07
2.65293e-07
4.37823e-07
4.4497e-07
4.70884e-07
2.69192e-07
2.69231e-07
2.81598e-07
2.81642e-07
4.44976e-07
4.70904e-07
2.69135e-07
2.69254e-07
2.81535e-07
2.81666e-07
2.69198e-07
2.8151e-07
2.81605e-07
4.45023e-07
4.70954e-07
2.69179e-07
2.81528e-07
2.81586e-07
4.71e-07
4.78611e-07
5.0586e-07
2.85977e-07
2.86021e-07
2.99818e-07
2.99859e-07
4.78627e-07
5.05873e-07
2.85913e-07
2.86043e-07
2.99747e-07
2.99885e-07
2.85984e-07
2.99716e-07
2.99825e-07
4.78677e-07
5.05925e-07
2.85962e-07
2.99737e-07
2.99801e-07
5.05981e-07
5.13981e-07
5.42141e-07
3.04659e-07
3.04697e-07
3.19843e-07
3.19882e-07
5.13986e-07
5.42155e-07
3.04587e-07
3.04725e-07
3.19763e-07
3.19918e-07
3.04667e-07
3.19732e-07
3.19854e-07
5.1404e-07
5.42216e-07
3.04636e-07
3.19759e-07
3.19816e-07
5.42268e-07
5.5057e-07
5.79309e-07
3.25116e-07
3.25157e-07
3.41566e-07
3.41605e-07
5.5058e-07
5.79321e-07
3.25035e-07
3.25193e-07
3.41474e-07
3.41641e-07
3.25129e-07
3.41442e-07
3.41577e-07
5.50641e-07
5.79384e-07
3.25087e-07
3.41472e-07
3.41536e-07
5.79445e-07
5.87968e-07
6.16928e-07
3.4724e-07
3.47282e-07
3.64845e-07
3.64879e-07
5.87971e-07
6.16934e-07
3.47148e-07
3.47321e-07
3.64743e-07
3.64924e-07
3.47257e-07
3.64707e-07
3.64859e-07
5.88036e-07
6.17012e-07
3.47212e-07
3.64752e-07
3.64807e-07
6.17071e-07
6.25734e-07
6.5466e-07
3.70891e-07
3.70928e-07
3.89559e-07
3.89588e-07
6.25735e-07
6.54661e-07
3.7079e-07
3.70971e-07
3.89447e-07
3.89633e-07
3.70908e-07
3.89415e-07
3.89585e-07
6.25812e-07
6.54729e-07
3.70852e-07
3.89451e-07
3.89522e-07
6.54813e-07
6.63548e-07
6.92091e-07
3.95943e-07
3.9598e-07
4.1552e-07
4.1557e-07
6.63544e-07
6.92134e-07
3.95834e-07
3.96023e-07
4.15394e-07
4.15618e-07
3.95976e-07
4.15388e-07
4.15559e-07
6.63609e-07
6.922e-07
3.95905e-07
4.1543e-07
4.15475e-07
6.92263e-07
7.00969e-07
7.28969e-07
4.22175e-07
4.22239e-07
4.42601e-07
4.42611e-07
7.01011e-07
7.28977e-07
4.22053e-07
4.22298e-07
4.42462e-07
4.42673e-07
4.22227e-07
4.4241e-07
4.42613e-07
7.01085e-07
7.29079e-07
4.22136e-07
4.42488e-07
4.42526e-07
7.29124e-07
7.37817e-07
7.65159e-07
4.49505e-07
4.49519e-07
4.70618e-07
4.7064e-07
7.37804e-07
7.65145e-07
4.49372e-07
4.49593e-07
4.70472e-07
4.70709e-07
4.49538e-07
4.70453e-07
4.70662e-07
7.37911e-07
7.65245e-07
4.49452e-07
4.70506e-07
4.70568e-07
7.65325e-07
7.73923e-07
8.00302e-07
4.77752e-07
4.77777e-07
4.99352e-07
4.99377e-07
7.73903e-07
8.00308e-07
4.7761e-07
4.7783e-07
4.9918e-07
4.99397e-07
4.77788e-07
4.99192e-07
4.99398e-07
7.73986e-07
8.00355e-07
4.77679e-07
4.99211e-07
4.9927e-07
8.00473e-07
8.08889e-07
8.34206e-07
5.06592e-07
5.06621e-07
5.28562e-07
5.28627e-07
8.08895e-07
8.34283e-07
5.06427e-07
5.06651e-07
5.28399e-07
5.28719e-07
5.06665e-07
5.2844e-07
5.28632e-07
8.08941e-07
8.34385e-07
5.06529e-07
5.2856e-07
5.2851e-07
8.34412e-07
8.42621e-07
8.673e-07
5.35949e-07
5.3601e-07
5.58369e-07
5.58273e-07
8.42687e-07
8.67247e-07
5.35787e-07
5.36081e-07
5.58203e-07
5.58361e-07
5.35998e-07
5.58081e-07
5.58365e-07
8.428e-07
8.67313e-07
5.35875e-07
5.58166e-07
5.58227e-07
8.67406e-07
8.75543e-07
8.9923e-07
5.65855e-07
5.65774e-07
5.88335e-07
5.88455e-07
8.7548e-07
8.99284e-07
5.65696e-07
5.65846e-07
5.88123e-07
5.88446e-07
5.6588e-07
5.88219e-07
5.88476e-07
8.75517e-07
8.99319e-07
5.65739e-07
5.88262e-07
5.88335e-07
8.9949e-07
9.0728e-07
9.30092e-07
5.95899e-07
5.96045e-07
6.18627e-07
6.187e-07
9.07347e-07
9.30221e-07
5.95691e-07
5.96018e-07
6.18414e-07
6.18887e-07
5.96045e-07
6.18543e-07
6.18701e-07
9.0739e-07
9.303e-07
5.95883e-07
6.18638e-07
6.18522e-07
9.30276e-07
9.37885e-07
9.59492e-07
6.26125e-07
6.26082e-07
6.48532e-07
6.48247e-07
9.37953e-07
9.59176e-07
6.25917e-07
6.26338e-07
6.48377e-07
6.48424e-07
6.26175e-07
6.48167e-07
6.48495e-07
9.38081e-07
9.59414e-07
6.25992e-07
6.48286e-07
6.48337e-07
9.59437e-07
9.66927e-07
9.86798e-07
6.55934e-07
6.55726e-07
6.77659e-07
6.77887e-07
9.66658e-07
9.87268e-07
6.5578e-07
6.55861e-07
6.77514e-07
6.77702e-07
6.55888e-07
6.776e-07
6.77893e-07
9.6681e-07
9.87036e-07
6.55724e-07
6.77627e-07
6.77719e-07
9.87315e-07
9.93823e-07
1.01263e-06
6.84743e-07
6.85306e-07
7.06049e-07
7.06748e-07
9.94446e-07
1.01329e-06
6.84573e-07
6.84993e-07
7.05725e-07
7.06401e-07
6.85263e-07
7.06535e-07
7.06503e-07
9.94164e-07
1.01275e-06
6.85077e-07
7.06265e-07
7.06238e-07
1.01316e-06
1.01965e-06
1.03951e-06
7.13245e-07
7.1325e-07
7.35743e-07
7.34322e-07
1.02002e-06
1.03842e-06
7.1293e-07
7.1307e-07
7.35557e-07
7.34295e-07
7.13124e-07
7.34033e-07
7.34801e-07
1.0195e-06
1.03836e-06
7.12881e-07
7.33961e-07
7.34841e-07
1.03888e-06
1.04661e-06
1.06262e-06
7.43637e-07
7.42646e-07
7.64993e-07
7.67059e-07
1.04568e-06
1.06517e-06
7.43445e-07
7.42606e-07
7.64591e-07
7.6776e-07
7.4306e-07
7.67068e-07
7.6655e-07
1.04567e-06
1.06551e-06
7.43088e-07
7.67446e-07
7.66175e-07
1.06442e-06
1.06728e-06
1.07017e-06
7.70088e-07
7.73009e-07
7.79495e-07
7.81561e-07
1.0707e-06
1.07235e-06
7.69798e-07
7.73839e-07
7.80231e-07
7.81293e-07
7.72275e-07
7.82034e-07
7.80924e-07
1.07115e-06
1.0698e-06
7.71782e-07
7.81305e-07
7.80268e-07
1.07054e-06
1.07297e-06
1.08552e-06
7.8191e-07
7.82595e-07
7.96369e-07
7.92857e-07
1.07411e-06
1.08298e-06
7.82569e-07
7.81625e-07
7.94697e-07
7.86748e-07
7.82101e-07
7.91862e-07
7.93681e-07
1.07115e-06
1.07384e-06
7.81423e-07
7.86949e-07
7.93058e-07
1.08465e-06
1.0963e-06
1.16934e-06
8.07232e-07
8.06105e-07
8.66484e-07
8.70427e-07
1.09446e-06
1.17497e-06
8.05126e-07
7.98593e-07
8.65575e-07
8.76826e-07
8.07372e-07
8.69911e-07
8.73668e-07
1.08632e-06
1.18447e-06
8.07531e-07
8.78103e-07
8.75831e-07
1.18173e-06
1.19097e-06
1.25419e-06
8.91198e-07
8.94292e-07
9.44976e-07
9.40094e-07
1.19696e-06
1.24838e-06
8.90976e-07
9.01805e-07
9.45822e-07
9.40915e-07
8.97957e-07
9.41139e-07
9.40654e-07
1.20891e-06
1.25034e-06
9.00193e-07
9.41176e-07
9.40909e-07
1.24953e-06
1.26041e-06
1.20348e-06
9.50705e-07
9.43166e-07
9.28621e-07
9.15589e-07
1.25182e-06
1.1883e-06
9.51249e-07
9.41012e-07
9.26844e-07
9.01206e-07
9.41936e-07
9.13819e-07
9.00567e-07
1.25016e-06
1.17058e-06
9.41589e-07
8.98423e-07
8.96917e-07
1.16751e-06
1.19505e-06
1.08817e-06
9.02155e-07
8.94921e-07
8.38683e-07
8.40502e-07
1.18143e-06
1.09114e-06
9.00728e-07
8.85964e-07
8.38821e-07
8.56287e-07
8.81054e-07
8.40776e-07
8.45525e-07
1.1653e-06
1.11675e-06
8.77785e-07
8.55838e-07
8.44679e-07
1.09913e-06
1.08562e-06
1.09088e-06
8.27193e-07
8.2991e-07
8.27395e-07
8.28016e-07
1.08896e-06
1.08673e-06
8.28024e-07
8.54308e-07
8.30593e-07
8.76392e-07
8.43876e-07
8.30542e-07
8.76161e-07
1.11867e-06
1.1549e-06
8.43858e-07
8.82816e-07
8.83732e-07
1.15262e-06
1.11066e-06
1.25311e-06
8.48772e-07
8.46339e-07
9.67896e-07
9.76364e-07
1.10602e-06
1.26474e-06
8.54752e-07
8.95576e-07
9.68683e-07
9.60504e-07
8.9764e-07
9.77117e-07
9.67516e-07
1.17151e-06
1.24423e-06
9.06032e-07
9.64008e-07
9.7104e-07
1.25292e-06
1.28449e-06
1.34028e-06
1.00545e-06
1.01512e-06
1.05721e-06
1.06231e-06
1.29801e-06
1.34988e-06
1.00365e-06
9.78825e-07
1.05006e-06
1.00133e-06
9.86726e-07
1.05653e-06
1.01316e-06
1.25741e-06
1.26292e-06
9.86505e-07
9.9686e-07
1.00742e-06
1.27933e-06
1.33792e-06
1.22911e-06
1.05446e-06
1.05638e-06
9.8218e-07
9.78103e-07
1.34498e-06
1.22722e-06
1.0475e-06
1.00016e-06
9.81674e-07
9.7307e-07
1.01359e-06
9.7924e-07
9.92436e-07
1.26119e-06
1.20617e-06
1.00807e-06
9.74072e-07
9.92169e-07
1.23876e-06
1.22205e-06
1.19247e-06
9.62982e-07
9.60591e-07
9.45136e-07
9.48274e-07
1.2205e-06
1.1985e-06
9.63907e-07
9.67719e-07
9.47461e-07
9.80106e-07
9.83869e-07
9.52608e-07
9.73686e-07
1.20593e-06
1.23979e-06
9.84607e-07
9.84563e-07
9.75693e-07
1.22824e-06
1.20611e-06
1.28997e-06
9.5442e-07
9.6151e-07
1.02842e-06
1.02067e-06
1.21242e-06
1.27949e-06
9.56632e-07
1.00449e-06
1.03076e-06
1.06675e-06
9.77859e-07
1.02153e-06
1.03961e-06
1.26135e-06
1.35049e-06
9.80228e-07
1.0683e-06
1.04304e-06
1.30997e-06
1.3089e-06
1.35765e-06
1.0508e-06
1.03654e-06
1.09506e-06
1.07282e-06
1.29327e-06
1.32495e-06
1.05337e-06
1.08032e-06
1.09703e-06
1.0895e-06
1.05721e-06
1.07268e-06
1.07599e-06
1.36339e-06
1.35808e-06
1.06082e-06
1.09006e-06
1.07903e-06
1.33507e-06
1.36365e-06
1.34028e-06
1.09917e-06
1.08088e-06
1.08803e-06
1.09336e-06
1.33127e-06
1.34385e-06
1.10053e-06
1.08298e-06
1.08403e-06
1.04494e-06
1.07099e-06
1.08744e-06
1.04774e-06
1.35479e-06
1.27707e-06
1.07321e-06
1.04008e-06
1.04424e-06
1.27948e-06
1.33633e-06
1.27387e-06
1.07262e-06
1.09358e-06
1.0407e-06
1.07771e-06
1.34743e-06
1.33619e-06
1.06738e-06
1.03501e-06
1.03535e-06
1.0268e-06
1.04629e-06
1.07899e-06
1.06715e-06
1.27374e-06
1.25832e-06
1.0414e-06
1.02817e-06
1.05955e-06
1.30512e-06
1.27406e-06
1.31148e-06
1.03786e-06
1.07112e-06
1.06812e-06
1.06354e-06
1.33656e-06
1.31731e-06
1.0335e-06
1.03388e-06
1.07313e-06
1.09303e-06
1.07897e-06
1.06949e-06
1.105e-06
1.27016e-06
1.34483e-06
1.07394e-06
1.09954e-06
1.10787e-06
1.36295e-06
1.32856e-06
1.37939e-06
1.08745e-06
1.06517e-06
1.12497e-06
1.0918e-06
1.31868e-06
1.32571e-06
1.0939e-06
1.1096e-06
1.13177e-06
1.13211e-06
1.11028e-06
1.08858e-06
1.11666e-06
1.36126e-06
1.38371e-06
1.11545e-06
1.13011e-06
1.12263e-06
1.37508e-06
1.38362e-06
1.35561e-06
1.12834e-06
1.1005e-06
1.11525e-06
1.11874e-06
1.33104e-06
1.34787e-06
1.13385e-06
1.13096e-06
1.11354e-06
1.10874e-06
1.11677e-06
1.11616e-06
1.10896e-06
1.38397e-06
1.34655e-06
1.12158e-06
1.10811e-06
1.10685e-06
1.3478e-06
1.35487e-06
1.33665e-06
1.10925e-06
1.12141e-06
1.10277e-06
1.12197e-06
1.35347e-06
1.36241e-06
1.10656e-06
1.10405e-06
1.09972e-06
1.10232e-06
1.10552e-06
1.12234e-06
1.10079e-06
1.34631e-06
1.34102e-06
1.10248e-06
1.10371e-06
1.09741e-06
1.33018e-06
1.34048e-06
1.36236e-06
1.10416e-06
1.12153e-06
1.12553e-06
1.12327e-06
1.36551e-06
1.36788e-06
1.10202e-06
1.10867e-06
1.12751e-06
1.1326e-06
1.10165e-06
1.12358e-06
1.11934e-06
1.34775e-06
1.37347e-06
1.09887e-06
1.13238e-06
1.1203e-06
1.35163e-06
1.36986e-06
1.38692e-06
1.13237e-06
1.12592e-06
1.14761e-06
1.13701e-06
1.37041e-06
1.37374e-06
1.13489e-06
1.1388e-06
1.14957e-06
1.14808e-06
1.12597e-06
1.13649e-06
1.14165e-06
1.38011e-06
1.38735e-06
1.1277e-06
1.14756e-06
1.14412e-06
1.37742e-06
1.3906e-06
1.38956e-06
1.15001e-06
1.14141e-06
1.15232e-06
1.15285e-06
1.37727e-06
1.38592e-06
1.15119e-06
1.14826e-06
1.1514e-06
1.14573e-06
1.14446e-06
1.15242e-06
1.1502e-06
1.38867e-06
1.37884e-06
1.1465e-06
1.14562e-06
1.14971e-06
1.38597e-06
1.39104e-06
1.3854e-06
1.15237e-06
1.15515e-06
1.1524e-06
1.15731e-06
1.38987e-06
1.39286e-06
1.15106e-06
1.14537e-06
1.15112e-06
1.1476e-06
1.15246e-06
1.15825e-06
1.16099e-06
1.38007e-06
1.37964e-06
1.15109e-06
1.14826e-06
1.15866e-06
1.39583e-06
1.38693e-06
1.38766e-06
1.15262e-06
1.15734e-06
1.15636e-06
1.15801e-06
1.39474e-06
1.39193e-06
1.1518e-06
1.15099e-06
1.15697e-06
1.16184e-06
1.16356e-06
1.15969e-06
1.16733e-06
1.38334e-06
1.39374e-06
1.1616e-06
1.16321e-06
1.16747e-06
1.40464e-06
1.39063e-06
1.3975e-06
1.15841e-06
1.15931e-06
1.16674e-06
1.16514e-06
1.39378e-06
1.39572e-06
1.1592e-06
1.16509e-06
1.16714e-06
1.1705e-06
1.16742e-06
1.16473e-06
1.16572e-06
1.39813e-06
1.40311e-06
1.16792e-06
1.17049e-06
1.16638e-06
1.3989e-06
1.40134e-06
1.4076e-06
1.16969e-06
1.16744e-06
1.17617e-06
1.17397e-06
1.39876e-06
1.40442e-06
1.16974e-06
1.17103e-06
1.17542e-06
1.17266e-06
1.16539e-06
1.17213e-06
1.16655e-06
1.40525e-06
1.4051e-06
1.16583e-06
1.17128e-06
1.16632e-06
1.39659e-06
1.41038e-06
1.41097e-06
1.17724e-06
1.17568e-06
1.17878e-06
1.18011e-06
1.40766e-06
1.4122e-06
1.17644e-06
1.17387e-06
1.17826e-06
1.17905e-06
1.16924e-06
1.18042e-06
1.17885e-06
1.4076e-06
1.41106e-06
1.16855e-06
1.17894e-06
1.17831e-06
1.40818e-06
1.41303e-06
1.41433e-06
1.17945e-06
1.18152e-06
1.1832e-06
1.18514e-06
1.41511e-06
1.41721e-06
1.17909e-06
1.18083e-06
1.18303e-06
1.18432e-06
1.18182e-06
1.18599e-06
1.18692e-06
1.41403e-06
1.41582e-06
1.18131e-06
1.18504e-06
1.18662e-06
1.41804e-06
1.41689e-06
1.41882e-06
1.18479e-06
1.18591e-06
1.18827e-06
1.18679e-06
1.41929e-06
1.41739e-06
1.18453e-06
1.18486e-06
1.1879e-06
1.18615e-06
1.18732e-06
1.18672e-06
1.18731e-06
1.41774e-06
1.4161e-06
1.18705e-06
1.18591e-06
1.18704e-06
1.41799e-06
1.42101e-06
1.42123e-06
1.18885e-06
1.18685e-06
1.19017e-06
1.18838e-06
1.41896e-06
1.41871e-06
1.1886e-06
1.18686e-06
1.19035e-06
1.19032e-06
1.1873e-06
1.18803e-06
1.18915e-06
1.41833e-06
1.4204e-06
1.18706e-06
1.19003e-06
1.1893e-06
1.42024e-06
1.42339e-06
1.4242e-06
1.19083e-06
1.18987e-06
1.1936e-06
1.19439e-06
1.42133e-06
1.42502e-06
1.19103e-06
1.19163e-06
1.19338e-06
1.19458e-06
1.19039e-06
1.19439e-06
1.19376e-06
1.4232e-06
1.42556e-06
1.19052e-06
1.19464e-06
1.19354e-06
1.42451e-06
1.42635e-06
1.42592e-06
1.19441e-06
1.19524e-06
1.19564e-06
1.19548e-06
1.42755e-06
1.42579e-06
1.19408e-06
1.19503e-06
1.19539e-06
1.19526e-06
1.19448e-06
1.19549e-06
1.19571e-06
1.42766e-06
1.42585e-06
1.19416e-06
1.19528e-06
1.19547e-06
1.42577e-06
1.4277e-06
1.42601e-06
1.19574e-06
1.195e-06
1.19566e-06
1.1944e-06
1.42729e-06
1.42406e-06
1.19558e-06
1.19509e-06
1.19557e-06
1.19475e-06
1.19587e-06
1.19441e-06
1.1958e-06
1.4274e-06
1.42463e-06
1.19571e-06
1.19477e-06
1.19572e-06
1.42634e-06
1.42776e-06
1.42568e-06
1.19556e-06
1.19455e-06
1.19543e-06
1.19705e-06
1.42606e-06
1.42759e-06
1.19542e-06
1.19489e-06
1.19523e-06
1.19693e-06
1.19561e-06
1.19707e-06
1.19563e-06
1.42649e-06
1.42729e-06
1.1955e-06
1.19693e-06
1.19547e-06
1.42633e-06
1.42755e-06
1.42817e-06
1.1956e-06
1.19791e-06
1.19795e-06
1.1992e-06
1.43015e-06
1.43121e-06
1.19538e-06
1.1975e-06
1.19758e-06
1.19804e-06
1.1962e-06
1.19928e-06
1.19855e-06
1.42959e-06
1.42943e-06
1.19601e-06
1.19811e-06
1.19822e-06
1.42915e-06
1.43047e-06
1.43085e-06
1.19871e-06
1.1992e-06
1.19945e-06
1.19767e-06
1.43307e-06
1.42878e-06
1.19832e-06
1.19796e-06
1.19916e-06
1.19789e-06
1.19906e-06
1.19761e-06
1.19931e-06
1.4311e-06
1.42872e-06
1.19869e-06
1.19783e-06
1.19898e-06
1.43067e-06
1.43263e-06
1.42896e-06
1.19924e-06
1.197e-06
1.19718e-06
1.19568e-06
1.43019e-06
1.4259e-06
1.19906e-06
1.19818e-06
1.19739e-06
1.19859e-06
1.19895e-06
1.19568e-06
1.19705e-06
1.43069e-06
1.43027e-06
1.19878e-06
1.19856e-06
1.19735e-06
1.42884e-06
1.43048e-06
1.42817e-06
1.19674e-06
1.1956e-06
1.19646e-06
1.1968e-06
1.42759e-06
1.42841e-06
1.19693e-06
1.19848e-06
1.19635e-06
1.19634e-06
1.19653e-06
1.19668e-06
1.19558e-06
1.4321e-06
1.42825e-06
1.19683e-06
1.19628e-06
1.19548e-06
1.42683e-06
1.43023e-06
1.42989e-06
1.19678e-06
1.19737e-06
1.1972e-06
1.19813e-06
1.43081e-06
1.43148e-06
1.19639e-06
1.19573e-06
1.19655e-06
1.19515e-06
1.19557e-06
1.19797e-06
1.19692e-06
1.42974e-06
1.42697e-06
1.1953e-06
1.19501e-06
1.19612e-06
1.42881e-06
1.4317e-06
1.4274e-06
1.19712e-06
1.19807e-06
1.19494e-06
1.19543e-06
1.43335e-06
1.42844e-06
1.19649e-06
1.19541e-06
1.19484e-06
1.19614e-06
1.19739e-06
1.19584e-06
1.19748e-06
1.42916e-06
1.42929e-06
1.19674e-06
1.19637e-06
1.19722e-06
1.43068e-06
1.42881e-06
1.42392e-06
1.19408e-06
1.19409e-06
1.19163e-06
1.19054e-06
1.42972e-06
1.4227e-06
1.19414e-06
1.19604e-06
1.19179e-06
1.19261e-06
1.19658e-06
1.19058e-06
1.19175e-06
1.43112e-06
1.42555e-06
1.19672e-06
1.19266e-06
1.19194e-06
1.42461e-06
1.42542e-06
1.4241e-06
1.19107e-06
1.18995e-06
1.19034e-06
1.19009e-06
1.42412e-06
1.42331e-06
1.19112e-06
1.19148e-06
1.18998e-06
1.18996e-06
1.19046e-06
1.18969e-06
1.18875e-06
1.4269e-06
1.42324e-06
1.19057e-06
1.18976e-06
1.18854e-06
1.42188e-06
1.42608e-06
1.42556e-06
1.19036e-06
1.19054e-06
1.19051e-06
1.19108e-06
1.4256e-06
1.42632e-06
1.18996e-06
1.1901e-06
1.19044e-06
1.19139e-06
1.18893e-06
1.19115e-06
1.19109e-06
1.42557e-06
1.42703e-06
1.18867e-06
1.19151e-06
1.19108e-06
1.42598e-06
1.42733e-06
1.42355e-06
1.19051e-06
1.1912e-06
1.18971e-06
1.1908e-06
1.42834e-06
1.42561e-06
1.19048e-06
1.19138e-06
1.18887e-06
1.1868e-06
1.19129e-06
1.19073e-06
1.18893e-06
1.42907e-06
1.42104e-06
1.19126e-06
1.18656e-06
1.188e-06
1.42291e-06
1.4249e-06
1.41463e-06
1.18866e-06
1.18949e-06
1.18026e-06
1.17927e-06
1.42685e-06
1.4135e-06
1.18748e-06
1.18483e-06
1.1805e-06
1.18102e-06
1.18748e-06
1.17956e-06
1.18318e-06
1.42203e-06
1.41432e-06
1.18637e-06
1.18149e-06
1.18341e-06
1.41797e-06
1.41555e-06
1.40946e-06
1.17766e-06
1.1769e-06
1.17485e-06
1.17597e-06
1.41431e-06
1.41049e-06
1.17832e-06
1.18071e-06
1.17557e-06
1.18029e-06
1.18203e-06
1.17683e-06
1.17752e-06
1.41617e-06
1.41665e-06
1.1829e-06
1.18124e-06
1.17815e-06
1.41439e-06
1.41287e-06
1.42118e-06
1.17638e-06
1.17882e-06
1.18435e-06
1.18247e-06
1.41432e-06
1.42024e-06
1.17637e-06
1.18013e-06
1.18299e-06
1.17884e-06
1.17648e-06
1.18073e-06
1.17448e-06
1.41851e-06
1.41471e-06
1.17641e-06
1.17644e-06
1.17339e-06
1.40826e-06
1.42393e-06
1.41167e-06
1.18463e-06
1.18184e-06
1.17404e-06
1.17135e-06
1.42185e-06
1.40832e-06
1.1834e-06
1.17826e-06
1.17475e-06
1.17476e-06
1.17443e-06
1.17215e-06
1.17434e-06
1.41627e-06
1.41173e-06
1.17342e-06
1.17534e-06
1.17495e-06
1.40979e-06
1.41247e-06
1.4103e-06
1.17102e-06
1.17012e-06
1.17073e-06
1.17333e-06
1.40936e-06
1.41192e-06
1.17186e-06
1.17422e-06
1.17088e-06
1.17455e-06
1.17477e-06
1.17508e-06
1.17917e-06
1.41318e-06
1.41363e-06
1.17607e-06
1.17648e-06
1.1794e-06
1.42163e-06
1.41404e-06
1.40591e-06
1.17375e-06
1.17534e-06
1.17305e-06
1.17148e-06
1.4158e-06
1.40537e-06
1.1733e-06
1.17516e-06
1.17239e-06
1.17068e-06
1.18006e-06
1.17097e-06
1.17253e-06
1.41643e-06
1.40563e-06
1.18e-06
1.17054e-06
1.17194e-06
1.40656e-06
1.40407e-06
1.34523e-06
1.16359e-06
1.16016e-06
1.08167e-06
1.08021e-06
1.4033e-06
1.34338e-06
1.1633e-06
1.1602e-06
1.08195e-06
1.08101e-06
1.15973e-06
1.07984e-06
1.07713e-06
1.40388e-06
1.34446e-06
1.15946e-06
1.08051e-06
1.07727e-06
1.33969e-06
1.32582e-06
1.05821e-06
1.05701e-06
1.32419e-06
1.05847e-06
1.05755e-06
7.27814e-07
7.2798e-07
7.25443e-07
1.05384e-06
1.32472e-06
1.05396e-06
5.35653e-07
5.35523e-07
5.35636e-07
5.35636e-07
5.34569e-07
5.35438e-07
5.33635e-07
5.35608e-07
5.34569e-07
5.35438e-07
5.35608e-07
5.33635e-07
5.35198e-07
5.35984e-07
5.35983e-07
1.10651e-06
3.87795e-06
9.32087e-07
4.60326e-06
1.26012e-05
1.65943e-05
1.10694e-06
3.87827e-06
9.31846e-07
4.60419e-06
4.9917e-07
4.9917e-07
4.9917e-07
4.57217e-07
4.57217e-07
4.57217e-07
4.57217e-07
5.4296e-07
1.2178e-06
4.99137e-07
4.86008e-07
5.2501e-07
1.20859e-06
4.82348e-07
1.26025e-05
1.65956e-05
5.42967e-07
4.99137e-07
1.21778e-06
4.86008e-07
5.25009e-07
4.82348e-07
1.20857e-06
2.51892e-06
2.51951e-06
4.84042e-07
2.37148e-06
2.37214e-06
1.43151e-06
5.59224e-06
1.3307e-06
6.13521e-06
2.12846e-05
2.31118e-05
1.43187e-06
5.593e-06
1.3305e-06
6.13646e-06
4.45574e-07
4.45574e-07