/*--------------------------------*- C++ -*----------------------------------*\
| =========                 |                                                 |
| \\      /  F ield         | OpenFOAM: The Open Source CFD Toolbox           |
|  \\    /   O peration     | Version:  2312                                  |
|   \\  /    A nd           | Website:  www.openfoam.com                      |
|    \\/     M anipulation  |                                                 |
\*---------------------------------------------------------------------------*/
FoamFile
{
    version     2.0;
    format      ascii;
    arch        "LSB;label=32;scalar=64";
    class       volScalarField;
    location    "625";
    object      k;
}
// * * * * * * * * * * * * * * * * * * * * * * * * * * * * * * * * * * * * * //

dimensions      [0 2 -2 0 0 0 0];

internalField   nonuniform List<scalar> 
172512
(
3.60232e-05
3.60198e-05
3.60198e-05
3.60083e-05
3.39295e-05
3.38866e-05
3.38866e-05
3.39612e-05
3.21573e-05
3.20055e-05
3.20055e-05
3.19506e-05
3.05338e-05
3.02267e-05
3.02267e-05
2.99864e-05
2.90318e-05
2.85515e-05
2.85515e-05
2.81202e-05
2.76341e-05
2.69848e-05
2.69847e-05
2.6388e-05
2.63294e-05
2.55287e-05
2.55286e-05
2.48046e-05
2.51097e-05
2.41827e-05
2.41826e-05
2.33754e-05
2.39694e-05
2.29484e-05
2.29483e-05
2.21019e-05
2.29042e-05
2.18247e-05
2.18245e-05
2.09833e-05
2.19105e-05
2.08092e-05
2.08091e-05
2.00107e-05
2.09849e-05
1.98992e-05
1.98991e-05
1.91788e-05
2.01226e-05
1.90927e-05
1.90925e-05
1.8487e-05
1.93223e-05
1.83865e-05
1.83863e-05
1.79305e-05
1.85832e-05
1.77774e-05
1.77773e-05
1.7504e-05
1.79027e-05
1.72637e-05
1.72637e-05
1.7198e-05
1.72783e-05
1.68447e-05
1.68447e-05
1.70206e-05
1.67082e-05
1.65194e-05
1.65194e-05
1.698e-05
1.61908e-05
1.62878e-05
1.62878e-05
1.70772e-05
1.57239e-05
1.61501e-05
1.61502e-05
1.73025e-05
1.53059e-05
1.61057e-05
1.61059e-05
1.76557e-05
1.49359e-05
1.61519e-05
1.61522e-05
1.8133e-05
1.4613e-05
1.62907e-05
1.62909e-05
1.87282e-05
1.43367e-05
1.65186e-05
1.65188e-05
1.94272e-05
1.41065e-05
1.68339e-05
1.68345e-05
2.02205e-05
1.39217e-05
1.72333e-05
1.72341e-05
2.10938e-05
1.37826e-05
1.77144e-05
1.77151e-05
2.20355e-05
1.36893e-05
1.82717e-05
1.82729e-05
2.30315e-05
1.36411e-05
1.89013e-05
1.89024e-05
2.40654e-05
1.36375e-05
1.9597e-05
1.95984e-05
2.51271e-05
1.36799e-05
2.03543e-05
2.0356e-05
2.62015e-05
1.37699e-05
2.11709e-05
2.11704e-05
2.72873e-05
1.39025e-05
2.20342e-05
2.20366e-05
2.83612e-05
1.40838e-05
2.29364e-05
2.29421e-05
2.94312e-05
1.43141e-05
2.38885e-05
2.38894e-05
3.04893e-05
1.45833e-05
2.48489e-05
2.48516e-05
3.15182e-05
1.48993e-05
2.58513e-05
2.58515e-05
3.25266e-05
1.52773e-05
2.68552e-05
2.68625e-05
3.35287e-05
1.56846e-05
2.79118e-05
2.79007e-05
3.45098e-05
1.61485e-05
2.89366e-05
2.89428e-05
3.54584e-05
1.66609e-05
2.99645e-05
2.99798e-05
3.63708e-05
1.71714e-05
3.10252e-05
3.1014e-05
3.72692e-05
1.76955e-05
3.18717e-05
3.18608e-05
3.79976e-05
1.84498e-05
3.30909e-05
3.30909e-05
3.91019e-05
1.91503e-05
3.43002e-05
3.43091e-05
3.98886e-05
1.92224e-05
3.42407e-05
3.41515e-05
3.9335e-05
1.91483e-05
3.40164e-05
3.38015e-05
3.97934e-05
2.29144e-05
3.98931e-05
4.04664e-05
4.58428e-05
2.58576e-05
4.21453e-05
4.20921e-05
4.76618e-05
2.52984e-05
3.85625e-05
3.76499e-05
4.15104e-05
1.97475e-05
3.45098e-05
3.56317e-05
3.93234e-05
1.83491e-05
3.44477e-05
3.84248e-05
4.37855e-05
2.65342e-05
4.52737e-05
4.28563e-05
4.80313e-05
3.08192e-05
4.68861e-05
4.29837e-05
4.7513e-05
2.76215e-05
4.06986e-05
4.04184e-05
4.50835e-05
2.44859e-05
3.98756e-05
4.26425e-05
4.52791e-05
2.75937e-05
4.45346e-05
4.76086e-05
5.0291e-05
3.25681e-05
4.63919e-05
4.74945e-05
4.95353e-05
3.25195e-05
4.68078e-05
4.31327e-05
4.64139e-05
2.90845e-05
4.63118e-05
4.29452e-05
4.91919e-05
2.94138e-05
4.562e-05
4.81877e-05
5.17271e-05
3.37108e-05
4.61021e-05
4.89687e-05
5.16554e-05
3.38019e-05
4.77661e-05
4.71097e-05
4.96337e-05
3.27367e-05
4.81796e-05
4.68958e-05
4.91436e-05
3.33916e-05
4.82921e-05
4.88908e-05
5.10052e-05
3.54471e-05
4.87118e-05
4.93601e-05
5.18311e-05
3.59046e-05
4.96489e-05
4.90833e-05
5.19282e-05
3.58564e-05
4.98922e-05
4.91445e-05
5.26681e-05
3.59642e-05
4.98864e-05
5.02796e-05
5.29269e-05
3.7023e-05
5.01827e-05
5.05549e-05
5.24816e-05
3.78628e-05
5.06538e-05
5.05575e-05
5.24369e-05
3.8187e-05
5.11921e-05
5.11239e-05
5.33888e-05
3.86181e-05
5.14816e-05
5.13725e-05
5.36487e-05
3.90577e-05
5.14717e-05
5.14101e-05
5.36021e-05
3.9382e-05
5.16828e-05
5.18268e-05
5.38579e-05
3.97961e-05
5.21253e-05
5.21042e-05
5.40439e-05
4.01355e-05
5.21554e-05
5.21575e-05
5.41584e-05
4.03516e-05
5.21426e-05
5.21708e-05
5.42081e-05
4.05159e-05
5.25e-05
5.24698e-05
5.42932e-05
4.09244e-05
5.26787e-05
5.25675e-05
5.45149e-05
4.12571e-05
5.26165e-05
5.26716e-05
5.46035e-05
4.13308e-05
5.25722e-05
5.28034e-05
5.4564e-05
4.14947e-05
5.28383e-05
5.27511e-05
5.45079e-05
4.17537e-05
5.30202e-05
5.28018e-05
5.48082e-05
4.18548e-05
5.29505e-05
5.30007e-05
5.48797e-05
4.1857e-05
5.27205e-05
5.28514e-05
5.4578e-05
4.19814e-05
5.28485e-05
5.28292e-05
5.46077e-05
4.22434e-05
5.31137e-05
5.31157e-05
5.49149e-05
4.23599e-05
5.31361e-05
5.28067e-05
5.4737e-05
4.20474e-05
5.25051e-05
5.27128e-05
5.46448e-05
4.19475e-05
5.26862e-05
5.2813e-05
5.45663e-05
4.25961e-05
5.29856e-05
5.27749e-05
5.41787e-05
4.23778e-05
5.25495e-05
5.26632e-05
5.45858e-05
4.23259e-05
5.30848e-05
5.31468e-05
5.54884e-05
4.40505e-05
5.0637e-05
5.06663e-05
5.36762e-05
3.62984e-05
3.62919e-05
3.62919e-05
3.62984e-05
3.62919e-05
3.62919e-05
3.62908e-05
3.62908e-05
3.62908e-05
3.62908e-05
3.62919e-05
3.62919e-05
3.62984e-05
3.62919e-05
3.62919e-05
3.62984e-05
3.60083e-05
3.42676e-05
3.60198e-05
3.60198e-05
3.43745e-05
3.43744e-05
3.60083e-05
3.42677e-05
3.60198e-05
3.60198e-05
3.43745e-05
3.43744e-05
3.60198e-05
3.43745e-05
3.43745e-05
3.60083e-05
3.42677e-05
3.60198e-05
3.43745e-05
3.43745e-05
3.42676e-05
3.39612e-05
3.22619e-05
3.38865e-05
3.38865e-05
3.24658e-05
3.24657e-05
3.39612e-05
3.22619e-05
3.38865e-05
3.38865e-05
3.24659e-05
3.24657e-05
3.38865e-05
3.2466e-05
3.24658e-05
3.39612e-05
3.22619e-05
3.38865e-05
3.24659e-05
3.24659e-05
3.22618e-05
3.19506e-05
3.02973e-05
3.20054e-05
3.20053e-05
3.06617e-05
3.06616e-05
3.19506e-05
3.02973e-05
3.20054e-05
3.20052e-05
3.06618e-05
3.06615e-05
3.20053e-05
3.0662e-05
3.06617e-05
3.19506e-05
3.02972e-05
3.20054e-05
3.06619e-05
3.06618e-05
3.02971e-05
2.99865e-05
2.84231e-05
3.02264e-05
3.02263e-05
2.89599e-05
2.89597e-05
2.99865e-05
2.8423e-05
3.02266e-05
3.02262e-05
2.89601e-05
2.89596e-05
3.02264e-05
2.89603e-05
2.89598e-05
2.99864e-05
2.84229e-05
3.02265e-05
2.89602e-05
2.896e-05
2.84228e-05
2.81204e-05
2.66716e-05
2.85511e-05
2.85509e-05
2.73656e-05
2.73653e-05
2.81204e-05
2.66715e-05
2.85514e-05
2.85508e-05
2.73659e-05
2.73652e-05
2.8551e-05
2.73661e-05
2.73655e-05
2.81203e-05
2.66714e-05
2.85513e-05
2.7366e-05
2.73658e-05
2.66712e-05
2.63884e-05
2.50638e-05
2.69842e-05
2.6984e-05
2.58817e-05
2.58815e-05
2.63883e-05
2.50638e-05
2.69846e-05
2.69839e-05
2.58822e-05
2.58813e-05
2.69841e-05
2.58824e-05
2.58816e-05
2.63882e-05
2.50636e-05
2.69844e-05
2.58823e-05
2.5882e-05
2.50634e-05
2.4805e-05
2.361e-05
2.5528e-05
2.55277e-05
2.45079e-05
2.45077e-05
2.4805e-05
2.36099e-05
2.55285e-05
2.55276e-05
2.45085e-05
2.45075e-05
2.55279e-05
2.45087e-05
2.45078e-05
2.48048e-05
2.36097e-05
2.55283e-05
2.45086e-05
2.45083e-05
2.36095e-05
2.33759e-05
2.231e-05
2.41819e-05
2.41816e-05
2.32456e-05
2.32453e-05
2.33758e-05
2.23099e-05
2.41824e-05
2.41814e-05
2.32462e-05
2.32451e-05
2.41817e-05
2.32465e-05
2.32455e-05
2.33756e-05
2.23096e-05
2.41823e-05
2.32464e-05
2.32461e-05
2.23094e-05
2.21024e-05
2.11657e-05
2.29475e-05
2.29472e-05
2.20943e-05
2.2094e-05
2.21024e-05
2.11656e-05
2.29481e-05
2.2947e-05
2.20951e-05
2.20939e-05
2.29473e-05
2.20953e-05
2.20942e-05
2.21021e-05
2.11653e-05
2.2948e-05
2.20952e-05
2.20949e-05
2.1165e-05
2.09839e-05
2.01684e-05
2.18237e-05
2.18234e-05
2.1052e-05
2.10517e-05
2.09838e-05
2.01683e-05
2.18244e-05
2.18232e-05
2.10528e-05
2.10515e-05
2.18236e-05
2.1053e-05
2.10519e-05
2.09835e-05
2.01679e-05
2.18242e-05
2.10529e-05
2.10527e-05
2.01677e-05
2.00113e-05
1.93123e-05
2.08081e-05
2.08078e-05
2.01158e-05
2.01156e-05
2.00112e-05
1.93122e-05
2.0809e-05
2.08077e-05
2.01167e-05
2.01154e-05
2.08081e-05
2.01169e-05
2.01158e-05
2.00109e-05
1.93119e-05
2.08088e-05
2.01168e-05
2.01166e-05
1.93116e-05
1.91793e-05
1.85882e-05
1.98981e-05
1.98978e-05
1.92834e-05
1.92832e-05
1.91793e-05
1.8588e-05
1.9899e-05
1.98977e-05
1.92843e-05
1.9283e-05
1.9898e-05
1.92845e-05
1.92834e-05
1.9179e-05
1.85877e-05
1.98988e-05
1.92844e-05
1.92842e-05
1.85874e-05
1.84874e-05
1.79956e-05
1.90915e-05
1.90913e-05
1.85524e-05
1.85522e-05
1.84875e-05
1.79955e-05
1.90925e-05
1.90912e-05
1.85533e-05
1.85521e-05
1.90915e-05
1.85535e-05
1.85524e-05
1.84871e-05
1.79953e-05
1.90923e-05
1.85534e-05
1.85532e-05
1.7995e-05
1.7931e-05
1.75371e-05
1.83854e-05
1.83852e-05
1.79193e-05
1.79192e-05
1.7931e-05
1.7537e-05
1.83863e-05
1.8385e-05
1.79202e-05
1.7919e-05
1.83853e-05
1.79203e-05
1.79193e-05
1.79307e-05
1.75368e-05
1.83862e-05
1.79203e-05
1.79202e-05
1.75367e-05
1.75042e-05
1.72155e-05
1.77763e-05
1.77762e-05
1.73818e-05
1.73817e-05
1.75044e-05
1.72156e-05
1.77772e-05
1.77761e-05
1.73826e-05
1.73816e-05
1.77763e-05
1.73827e-05
1.73818e-05
1.75041e-05
1.72154e-05
1.77772e-05
1.73827e-05
1.73826e-05
1.72153e-05
1.71982e-05
1.70239e-05
1.72628e-05
1.72627e-05
1.69391e-05
1.69391e-05
1.71983e-05
1.70241e-05
1.72636e-05
1.72626e-05
1.69399e-05
1.6939e-05
1.72628e-05
1.694e-05
1.69392e-05
1.71981e-05
1.70239e-05
1.72636e-05
1.69399e-05
1.694e-05
1.70239e-05
1.70205e-05
1.69705e-05
1.68438e-05
1.68439e-05
1.65901e-05
1.65902e-05
1.70208e-05
1.69707e-05
1.68446e-05
1.68438e-05
1.65909e-05
1.65902e-05
1.68439e-05
1.65909e-05
1.65903e-05
1.70205e-05
1.69705e-05
1.68447e-05
1.65909e-05
1.6591e-05
1.69706e-05
1.69798e-05
1.70414e-05
1.65186e-05
1.65188e-05
1.63349e-05
1.63351e-05
1.69801e-05
1.70416e-05
1.65194e-05
1.65187e-05
1.63355e-05
1.6335e-05
1.65188e-05
1.63355e-05
1.6335e-05
1.69799e-05
1.70415e-05
1.65195e-05
1.63355e-05
1.63358e-05
1.70416e-05
1.70768e-05
1.72416e-05
1.62872e-05
1.62874e-05
1.61734e-05
1.61737e-05
1.70772e-05
1.72419e-05
1.62878e-05
1.62874e-05
1.6174e-05
1.61737e-05
1.62874e-05
1.61739e-05
1.61737e-05
1.7077e-05
1.72419e-05
1.62881e-05
1.6174e-05
1.61743e-05
1.72422e-05
1.73019e-05
1.75702e-05
1.61496e-05
1.61499e-05
1.61053e-05
1.61056e-05
1.73022e-05
1.75705e-05
1.61502e-05
1.61499e-05
1.61058e-05
1.61057e-05
1.61499e-05
1.61056e-05
1.61056e-05
1.73023e-05
1.75706e-05
1.61505e-05
1.61058e-05
1.61062e-05
1.7571e-05
1.76551e-05
1.80237e-05
1.61054e-05
1.61058e-05
1.61312e-05
1.61315e-05
1.76553e-05
1.80238e-05
1.61059e-05
1.61059e-05
1.61315e-05
1.61317e-05
1.61057e-05
1.61313e-05
1.61314e-05
1.76554e-05
1.80241e-05
1.61064e-05
1.61315e-05
1.6132e-05
1.80245e-05
1.81322e-05
1.85961e-05
1.61517e-05
1.61521e-05
1.62475e-05
1.62478e-05
1.81323e-05
1.85961e-05
1.61521e-05
1.61524e-05
1.62477e-05
1.62481e-05
1.61521e-05
1.62474e-05
1.62478e-05
1.81326e-05
1.85965e-05
1.61526e-05
1.62477e-05
1.62484e-05
1.85971e-05
1.87274e-05
1.92746e-05
1.62907e-05
1.62911e-05
1.64534e-05
1.6454e-05
1.87272e-05
1.92747e-05
1.62909e-05
1.62914e-05
1.64536e-05
1.64546e-05
1.62912e-05
1.64534e-05
1.6454e-05
1.87277e-05
1.92753e-05
1.62916e-05
1.64539e-05
1.64545e-05
1.92757e-05
1.94263e-05
2.00483e-05
1.65189e-05
1.65193e-05
1.67476e-05
1.67483e-05
1.94263e-05
2.00486e-05
1.6519e-05
1.65196e-05
1.67475e-05
1.67487e-05
1.65193e-05
1.67474e-05
1.67484e-05
1.94269e-05
2.00491e-05
1.65197e-05
1.67479e-05
1.67487e-05
2.005e-05
2.0219e-05
2.09052e-05
1.68346e-05
1.68348e-05
1.71266e-05
1.71268e-05
2.02191e-05
2.09048e-05
1.68345e-05
1.68354e-05
1.71266e-05
1.71276e-05
1.6835e-05
1.71258e-05
1.71275e-05
2.02198e-05
2.09057e-05
1.68353e-05
1.71264e-05
1.71274e-05
2.09068e-05
2.10922e-05
2.18318e-05
1.7234e-05
1.72344e-05
1.75872e-05
1.75879e-05
2.10918e-05
2.18325e-05
1.72339e-05
1.72354e-05
1.75868e-05
1.75885e-05
1.72351e-05
1.75866e-05
1.75882e-05
2.10928e-05
2.18335e-05
1.7235e-05
1.75871e-05
1.7588e-05
2.18341e-05
2.20334e-05
2.28169e-05
1.7715e-05
1.77158e-05
1.81264e-05
1.81268e-05
2.2034e-05
2.28166e-05
1.77145e-05
1.77167e-05
1.81257e-05
1.81274e-05
1.77163e-05
1.81252e-05
1.81274e-05
2.20349e-05
2.28174e-05
1.77161e-05
1.81259e-05
1.81272e-05
2.28191e-05
2.30295e-05
2.3842e-05
1.8273e-05
1.82732e-05
1.87382e-05
1.87389e-05
2.30291e-05
2.38422e-05
1.82722e-05
1.82744e-05
1.87373e-05
1.874e-05
1.82744e-05
1.87371e-05
1.87397e-05
2.30301e-05
2.38434e-05
1.82738e-05
1.87381e-05
1.87384e-05
2.38441e-05
2.40634e-05
2.48967e-05
1.89024e-05
1.8903e-05
1.94185e-05
1.94195e-05
2.40638e-05
2.48965e-05
1.89014e-05
1.89043e-05
1.9417e-05
1.94204e-05
1.89038e-05
1.94171e-05
1.94203e-05
2.40648e-05
2.48978e-05
1.89026e-05
1.94182e-05
1.94194e-05
2.48995e-05
2.51245e-05
2.59674e-05
1.95987e-05
1.95996e-05
2.01617e-05
2.01619e-05
2.51241e-05
2.59671e-05
1.9597e-05
1.96005e-05
2.016e-05
2.01638e-05
1.96007e-05
2.01595e-05
2.01628e-05
2.51254e-05
2.59693e-05
1.95994e-05
2.01618e-05
2.01613e-05
2.59698e-05
2.61994e-05
2.70491e-05
2.03559e-05
2.03568e-05
2.09642e-05
2.09636e-05
2.6199e-05
2.70481e-05
2.03541e-05
2.03579e-05
2.09624e-05
2.09653e-05
2.03577e-05
2.09618e-05
2.09659e-05
2.62013e-05
2.70486e-05
2.03562e-05
2.0963e-05
2.09641e-05
2.70522e-05
2.72844e-05
2.81235e-05
2.11739e-05
2.11728e-05
2.18121e-05
2.18158e-05
2.72832e-05
2.81266e-05
2.11718e-05
2.1173e-05
2.18099e-05
2.18185e-05
2.1175e-05
2.18139e-05
2.1817e-05
2.72835e-05
2.81281e-05
2.11727e-05
2.18161e-05
2.18141e-05
2.81275e-05
2.83578e-05
2.91933e-05
2.20324e-05
2.20358e-05
2.27121e-05
2.27096e-05
2.83616e-05
2.91909e-05
2.20307e-05
2.20391e-05
2.2709e-05
2.2711e-05
2.20371e-05
2.27051e-05
2.27118e-05
2.83628e-05
2.91948e-05
2.20334e-05
2.27098e-05
2.27098e-05
2.91961e-05
2.9429e-05
3.02508e-05
2.29412e-05
2.29401e-05
2.36464e-05
2.36461e-05
2.94255e-05
3.02517e-05
2.29386e-05
2.29439e-05
2.36444e-05
2.36509e-05
2.2944e-05
2.36439e-05
2.36502e-05
2.94294e-05
3.02548e-05
2.29422e-05
2.36466e-05
2.36474e-05
3.02565e-05
3.04837e-05
3.12932e-05
2.38895e-05
2.38912e-05
2.4612e-05
2.46084e-05
3.04853e-05
3.12899e-05
2.38865e-05
2.38928e-05
2.46065e-05
2.46052e-05
2.38902e-05
2.46071e-05
2.46146e-05
3.04878e-05
3.12861e-05
2.38878e-05
2.4603e-05
2.46081e-05
3.12916e-05
3.15171e-05
3.22979e-05
2.48539e-05
2.48507e-05
2.55967e-05
2.56051e-05
3.15143e-05
3.23057e-05
2.48503e-05
2.48542e-05
2.55926e-05
2.5605e-05
2.48612e-05
2.56019e-05
2.55984e-05
3.15121e-05
3.2313e-05
2.4855e-05
2.56076e-05
2.55972e-05
3.23048e-05
3.25263e-05
3.3304e-05
2.58476e-05
2.58535e-05
2.66187e-05
2.66008e-05
3.25319e-05
3.32926e-05
2.58426e-05
2.58487e-05
2.66185e-05
2.66108e-05
2.58467e-05
2.66e-05
2.66145e-05
3.25363e-05
3.32941e-05
2.58443e-05
2.66056e-05
2.66086e-05
3.33038e-05
3.35258e-05
3.42789e-05
2.68713e-05
2.68587e-05
2.76356e-05
2.76508e-05
3.35139e-05
3.42924e-05
2.68724e-05
2.68668e-05
2.7627e-05
2.76335e-05
2.6869e-05
2.76431e-05
2.76492e-05
3.35174e-05
3.42845e-05
2.68663e-05
2.76357e-05
2.76457e-05
3.42911e-05
3.44966e-05
3.52544e-05
2.78991e-05
2.79176e-05
2.86917e-05
2.86862e-05
3.4516e-05
3.5249e-05
2.78937e-05
2.79023e-05
2.86871e-05
2.87079e-05
2.79131e-05
2.8687e-05
2.86853e-05
3.45047e-05
3.52647e-05
2.79064e-05
2.86991e-05
2.86795e-05
3.52491e-05
3.54684e-05
3.61716e-05
2.89499e-05
2.89339e-05
2.97222e-05
2.97082e-05
3.54533e-05
3.61556e-05
2.89444e-05
2.89461e-05
2.97191e-05
2.9726e-05
2.89455e-05
2.97179e-05
2.97256e-05
3.54731e-05
3.61616e-05
2.89424e-05
2.97268e-05
2.97188e-05
3.61693e-05
3.63779e-05
3.70391e-05
2.99826e-05
2.99567e-05
3.07294e-05
3.07474e-05
3.6361e-05
3.70681e-05
2.9983e-05
2.99794e-05
3.07304e-05
3.07192e-05
2.99637e-05
3.07301e-05
3.07487e-05
3.63676e-05
3.70505e-05
2.99558e-05
3.07256e-05
3.07512e-05
3.70623e-05
3.72188e-05
3.78233e-05
3.09675e-05
3.10429e-05
3.16698e-05
3.17166e-05
3.72774e-05
3.78619e-05
3.0962e-05
3.10067e-05
3.16564e-05
3.17043e-05
3.10368e-05
3.17204e-05
3.16903e-05
3.72505e-05
3.7843e-05
3.1036e-05
3.17045e-05
3.16695e-05
3.78396e-05
3.8028e-05
3.88903e-05
3.1914e-05
3.18696e-05
3.28339e-05
3.2698e-05
3.80124e-05
3.8742e-05
3.19075e-05
3.18653e-05
3.28257e-05
3.26833e-05
3.18655e-05
3.26779e-05
3.27452e-05
3.79991e-05
3.87311e-05
3.18528e-05
3.267e-05
3.27649e-05
3.88159e-05
3.91305e-05
3.96756e-05
3.31727e-05
3.3109e-05
3.39766e-05
3.41162e-05
3.90326e-05
3.98858e-05
3.31624e-05
3.3105e-05
3.3958e-05
3.41714e-05
3.31401e-05
3.41319e-05
3.40804e-05
3.90251e-05
3.99634e-05
3.31555e-05
3.41652e-05
3.40634e-05
3.98094e-05
3.97511e-05
3.93576e-05
3.41057e-05
3.42748e-05
3.41067e-05
3.43043e-05
3.99824e-05
3.95311e-05
3.40942e-05
3.43116e-05
3.41246e-05
3.43069e-05
3.42322e-05
3.43443e-05
3.42522e-05
4.00695e-05
3.94784e-05
3.42053e-05
3.43059e-05
3.42133e-05
3.93874e-05
3.93402e-05
3.94732e-05
3.39969e-05
3.4184e-05
3.38983e-05
3.38567e-05
3.94797e-05
3.91067e-05
3.40359e-05
3.4155e-05
3.38933e-05
3.36003e-05
3.41197e-05
3.38648e-05
3.38288e-05
3.93876e-05
3.84173e-05
3.40669e-05
3.36014e-05
3.37774e-05
3.92045e-05
3.99192e-05
4.42101e-05
3.41937e-05
3.40516e-05
3.82863e-05
3.85151e-05
3.95948e-05
4.46473e-05
3.41234e-05
3.3785e-05
3.82569e-05
3.89301e-05
3.40791e-05
3.84626e-05
3.87709e-05
3.88929e-05
4.54784e-05
3.40721e-05
3.90477e-05
3.89555e-05
4.50246e-05
4.51204e-05
4.77699e-05
3.96743e-05
3.98728e-05
4.2124e-05
4.19673e-05
4.54992e-05
4.75884e-05
3.96977e-05
4.03573e-05
4.21623e-05
4.21141e-05
4.01059e-05
4.20296e-05
4.20352e-05
4.63324e-05
4.7767e-05
4.02627e-05
4.21328e-05
4.20533e-05
4.77021e-05
4.79633e-05
4.4712e-05
4.24171e-05
4.21045e-05
4.15305e-05
4.05784e-05
4.76281e-05
4.3611e-05
4.24365e-05
4.20932e-05
4.14902e-05
3.90663e-05
4.20579e-05
4.04621e-05
3.91525e-05
4.75069e-05
4.21901e-05
4.20516e-05
3.884e-05
3.88615e-05
4.21249e-05
4.37591e-05
3.87452e-05
3.9443e-05
3.86572e-05
3.51774e-05
3.52168e-05
4.29409e-05
3.91454e-05
3.93792e-05
3.78156e-05
3.51992e-05
3.58562e-05
3.76141e-05
3.52573e-05
3.52556e-05
4.17813e-05
4.02004e-05
3.73919e-05
3.5803e-05
3.51643e-05
3.92735e-05
3.84732e-05
3.85352e-05
3.43797e-05
3.44563e-05
3.36316e-05
3.36383e-05
3.88787e-05
3.80601e-05
3.44111e-05
3.56297e-05
3.37782e-05
3.62542e-05
3.50462e-05
3.377e-05
3.60597e-05
4.02311e-05
4.25614e-05
3.50218e-05
3.67384e-05
3.67491e-05
4.2654e-05
3.96753e-05
4.85599e-05
3.41823e-05
3.42408e-05
4.27903e-05
4.336e-05
3.92513e-05
4.93196e-05
3.44315e-05
3.77948e-05
4.2718e-05
4.20878e-05
3.79165e-05
4.3352e-05
4.25216e-05
4.35763e-05
4.72835e-05
3.86415e-05
4.21868e-05
4.25514e-05
4.76727e-05
4.95934e-05
5.16454e-05
4.48228e-05
4.54521e-05
4.70359e-05
4.74797e-05
5.04263e-05
5.22553e-05
4.45496e-05
4.2931e-05
4.65858e-05
4.35237e-05
4.33919e-05
4.70887e-05
4.41764e-05
4.76809e-05
4.69619e-05
4.32294e-05
4.32697e-05
4.38493e-05
4.76895e-05
5.13045e-05
4.42606e-05
4.69127e-05
4.72695e-05
4.21911e-05
4.19443e-05
5.15955e-05
4.39588e-05
4.6477e-05
4.32636e-05
4.21109e-05
4.07904e-05
4.41012e-05
4.19761e-05
4.21382e-05
4.6555e-05
4.32952e-05
4.37743e-05
4.08027e-05
4.20346e-05
4.51979e-05
4.36593e-05
4.3092e-05
4.07461e-05
4.0549e-05
3.94149e-05
3.95177e-05
4.3407e-05
4.35145e-05
4.07633e-05
4.03476e-05
3.95106e-05
4.08117e-05
4.15613e-05
3.96845e-05
4.09074e-05
4.31609e-05
4.60538e-05
4.15251e-05
4.09483e-05
4.09542e-05
4.47971e-05
4.37522e-05
4.85994e-05
3.95331e-05
3.97448e-05
4.38785e-05
4.34883e-05
4.42703e-05
4.80907e-05
3.96427e-05
4.24684e-05
4.41369e-05
4.67748e-05
4.10736e-05
4.3602e-05
4.49625e-05
4.72988e-05
5.1677e-05
4.11713e-05
4.68979e-05
4.52626e-05
4.97378e-05
4.93233e-05
5.13593e-05
4.52879e-05
4.43591e-05
4.75467e-05
4.61573e-05
4.851e-05
4.92962e-05
4.55197e-05
4.74703e-05
4.77084e-05
4.79166e-05
4.59477e-05
4.61088e-05
4.65242e-05
5.20352e-05
5.12528e-05
4.62275e-05
4.79847e-05
4.67812e-05
5.00454e-05
5.16447e-05
5.01957e-05
4.78772e-05
4.65676e-05
4.75928e-05
4.71535e-05
4.9496e-05
5.0323e-05
4.79833e-05
4.7574e-05
4.73873e-05
4.415e-05
4.62149e-05
4.678e-05
4.4296e-05
5.07142e-05
4.62318e-05
4.64259e-05
4.38672e-05
4.40788e-05
4.64745e-05
4.95173e-05
4.60829e-05
4.65226e-05
4.71674e-05
4.38408e-05
4.65105e-05
5.04432e-05
4.99848e-05
4.60782e-05
4.33652e-05
4.34891e-05
4.25651e-05
4.41042e-05
4.66481e-05
4.46753e-05
4.58898e-05
4.55649e-05
4.37899e-05
4.2592e-05
4.41182e-05
4.84249e-05
4.59967e-05
4.90614e-05
4.35952e-05
4.60082e-05
4.45819e-05
4.53694e-05
4.98172e-05
4.86827e-05
4.33088e-05
4.27423e-05
4.48606e-05
4.68743e-05
4.5676e-05
4.56756e-05
4.76509e-05
4.6276e-05
5.11782e-05
4.51585e-05
4.72687e-05
4.78871e-05
5.14896e-05
4.99691e-05
5.22607e-05
4.60697e-05
4.53545e-05
4.85356e-05
4.57693e-05
4.86701e-05
4.87536e-05
4.65347e-05
4.79919e-05
4.89212e-05
4.91082e-05
4.79948e-05
4.57293e-05
4.83721e-05
5.17311e-05
5.23098e-05
4.83496e-05
4.90312e-05
4.87731e-05
5.1756e-05
5.22935e-05
5.0375e-05
4.8668e-05
4.64027e-05
4.8056e-05
4.767e-05
4.90688e-05
5.04474e-05
4.89949e-05
4.90595e-05
4.80483e-05
4.75511e-05
4.8332e-05
4.75131e-05
4.72508e-05
5.20984e-05
4.97544e-05
4.87047e-05
4.74897e-05
4.72468e-05
4.97447e-05
5.01629e-05
4.93756e-05
4.75693e-05
4.78759e-05
4.68998e-05
4.81419e-05
5.06541e-05
5.11493e-05
4.74805e-05
4.71349e-05
4.67542e-05
4.68169e-05
4.69383e-05
4.81238e-05
4.6489e-05
4.9628e-05
4.96733e-05
4.68673e-05
4.68111e-05
4.63407e-05
4.90544e-05
4.94637e-05
5.10605e-05
4.68974e-05
4.81764e-05
4.78888e-05
4.82507e-05
5.12139e-05
5.11285e-05
4.67566e-05
4.69013e-05
4.79571e-05
4.84933e-05
4.64982e-05
4.82816e-05
4.76247e-05
4.99643e-05
5.16916e-05
4.63457e-05
4.8474e-05
4.75963e-05
5.06645e-05
5.14216e-05
5.21945e-05
4.84282e-05
4.8265e-05
4.93988e-05
4.85119e-05
5.11308e-05
5.11419e-05
4.85583e-05
4.89163e-05
4.94983e-05
4.93808e-05
4.81216e-05
4.84506e-05
4.9019e-05
5.192e-05
5.20389e-05
4.81847e-05
4.9358e-05
4.91763e-05
5.17643e-05
5.22585e-05
5.21065e-05
4.95335e-05
4.87967e-05
4.96172e-05
4.95074e-05
5.13231e-05
5.20937e-05
4.95926e-05
4.93817e-05
4.96087e-05
4.91698e-05
4.91409e-05
4.94876e-05
4.93491e-05
5.20206e-05
5.1504e-05
4.93059e-05
4.91614e-05
4.93917e-05
5.1877e-05
5.20971e-05
5.18288e-05
4.95963e-05
4.96389e-05
4.94381e-05
4.97938e-05
5.22036e-05
5.2329e-05
4.95435e-05
4.90871e-05
4.9369e-05
4.9026e-05
4.9475e-05
4.98779e-05
5.0018e-05
5.14982e-05
5.15092e-05
4.94074e-05
4.90455e-05
4.98225e-05
5.25128e-05
5.18386e-05
5.19825e-05
4.94161e-05
4.97943e-05
4.94838e-05
4.97653e-05
5.23413e-05
5.21862e-05
4.93546e-05
4.90873e-05
4.95155e-05
4.99523e-05
5.01759e-05
4.98849e-05
5.03985e-05
5.16578e-05
5.25262e-05
5.00458e-05
5.00793e-05
5.04211e-05
5.29192e-05
5.20922e-05
5.26184e-05
4.96364e-05
4.97678e-05
5.02143e-05
5.00845e-05
5.21989e-05
5.2454e-05
4.97008e-05
5.01811e-05
5.02589e-05
5.05293e-05
5.04004e-05
5.00816e-05
5.02557e-05
5.26593e-05
5.28538e-05
5.04357e-05
5.05467e-05
5.03234e-05
5.24978e-05
5.27603e-05
5.31251e-05
5.04113e-05
5.02542e-05
5.085e-05
5.06575e-05
5.25648e-05
5.29178e-05
5.04392e-05
5.05567e-05
5.08254e-05
5.06036e-05
5.018e-05
5.05175e-05
5.0105e-05
5.28783e-05
5.28652e-05
5.02427e-05
5.05428e-05
5.01419e-05
5.23387e-05
5.31763e-05
5.3215e-05
5.09236e-05
5.07658e-05
5.09929e-05
5.1058e-05
5.30087e-05
5.33202e-05
5.08887e-05
5.06742e-05
5.09739e-05
5.10095e-05
5.01512e-05
5.10714e-05
5.09378e-05
5.29202e-05
5.32741e-05
5.01667e-05
5.09787e-05
5.08956e-05
5.32451e-05
5.32426e-05
5.34161e-05
5.10211e-05
5.11492e-05
5.12586e-05
5.13889e-05
5.33974e-05
5.3563e-05
5.10165e-05
5.11087e-05
5.12506e-05
5.13039e-05
5.11523e-05
5.14428e-05
5.14889e-05
5.33529e-05
5.34672e-05
5.11249e-05
5.13563e-05
5.14759e-05
5.3621e-05
5.34897e-05
5.36447e-05
5.13517e-05
5.14419e-05
5.15453e-05
5.14782e-05
5.35986e-05
5.35495e-05
5.13341e-05
5.13269e-05
5.1522e-05
5.13802e-05
5.15241e-05
5.1488e-05
5.15238e-05
5.34868e-05
5.34729e-05
5.15096e-05
5.13818e-05
5.15076e-05
5.35887e-05
5.36868e-05
5.3807e-05
5.15805e-05
5.14708e-05
5.17005e-05
5.15491e-05
5.35568e-05
5.3657e-05
5.15709e-05
5.14397e-05
5.17289e-05
5.17253e-05
5.1519e-05
5.15304e-05
5.16433e-05
5.35195e-05
5.38201e-05
5.15062e-05
5.172e-05
5.16755e-05
5.37773e-05
5.38599e-05
5.40053e-05
5.17666e-05
5.1697e-05
5.19873e-05
5.20568e-05
5.37693e-05
5.41021e-05
5.17919e-05
5.18245e-05
5.19798e-05
5.20511e-05
5.17562e-05
5.20622e-05
5.19842e-05
5.39043e-05
5.40793e-05
5.17812e-05
5.20571e-05
5.19766e-05
5.40079e-05
5.40476e-05
5.4121e-05
5.20457e-05
5.21201e-05
5.21533e-05
5.21581e-05
5.41471e-05
5.41131e-05
5.20321e-05
5.20994e-05
5.21499e-05
5.21525e-05
5.20338e-05
5.21633e-05
5.21626e-05
5.41176e-05
5.41271e-05
5.20207e-05
5.21586e-05
5.21595e-05
5.41231e-05
5.4151e-05
5.41944e-05
5.21786e-05
5.21498e-05
5.22435e-05
5.21224e-05
5.41187e-05
5.40486e-05
5.21802e-05
5.21511e-05
5.22423e-05
5.21429e-05
5.21946e-05
5.21283e-05
5.22361e-05
5.41351e-05
5.40792e-05
5.21957e-05
5.21494e-05
5.22353e-05
5.41915e-05
5.42151e-05
5.42147e-05
5.22561e-05
5.21376e-05
5.22798e-05
5.24059e-05
5.40897e-05
5.43701e-05
5.2253e-05
5.21659e-05
5.22784e-05
5.23999e-05
5.22406e-05
5.24129e-05
5.23093e-05
5.41208e-05
5.43506e-05
5.2239e-05
5.24056e-05
5.23101e-05
5.42464e-05
5.42446e-05
5.44363e-05
5.23128e-05
5.24905e-05
5.25462e-05
5.26555e-05
5.4443e-05
5.4581e-05
5.23127e-05
5.24611e-05
5.25266e-05
5.25492e-05
5.23683e-05
5.26647e-05
5.25798e-05
5.44017e-05
5.44598e-05
5.23677e-05
5.25622e-05
5.2563e-05
5.44686e-05
5.45009e-05
5.46067e-05
5.26209e-05
5.26718e-05
5.27357e-05
5.26513e-05
5.46023e-05
5.44734e-05
5.25971e-05
5.25558e-05
5.27323e-05
5.26283e-05
5.26379e-05
5.26519e-05
5.27192e-05
5.44746e-05
5.44853e-05
5.26166e-05
5.26204e-05
5.27095e-05
5.45837e-05
5.46267e-05
5.45521e-05
5.27387e-05
5.26165e-05
5.27037e-05
5.25621e-05
5.44742e-05
5.43788e-05
5.27445e-05
5.26766e-05
5.27317e-05
5.27896e-05
5.27212e-05
5.25667e-05
5.2696e-05
5.45315e-05
5.46461e-05
5.27228e-05
5.27943e-05
5.2725e-05
5.45569e-05
5.45589e-05
5.45892e-05
5.26897e-05
5.25665e-05
5.27207e-05
5.27747e-05
5.44147e-05
5.46501e-05
5.27189e-05
5.2798e-05
5.27305e-05
5.27749e-05
5.26803e-05
5.27666e-05
5.26602e-05
5.46698e-05
5.45954e-05
5.2717e-05
5.27764e-05
5.26795e-05
5.44857e-05
5.46461e-05
5.47693e-05
5.27953e-05
5.28501e-05
5.2939e-05
5.2997e-05
5.47131e-05
5.48454e-05
5.27783e-05
5.2754e-05
5.2904e-05
5.27556e-05
5.26742e-05
5.29945e-05
5.29059e-05
5.45994e-05
5.45866e-05
5.26803e-05
5.27489e-05
5.28557e-05
5.47404e-05
5.47909e-05
5.46871e-05
5.29506e-05
5.30155e-05
5.29283e-05
5.29878e-05
5.48744e-05
5.47582e-05
5.29205e-05
5.28078e-05
5.2917e-05
5.29734e-05
5.29739e-05
5.30089e-05
5.30464e-05
5.46479e-05
5.481e-05
5.29378e-05
5.29947e-05
5.30419e-05
5.48783e-05
5.46883e-05
5.45719e-05
5.28849e-05
5.29139e-05
5.27859e-05
5.27298e-05
5.47434e-05
5.44854e-05
5.28946e-05
5.29775e-05
5.281e-05
5.28921e-05
5.30393e-05
5.27454e-05
5.28327e-05
5.48277e-05
5.46554e-05
5.30389e-05
5.29099e-05
5.28618e-05
5.45809e-05
5.45881e-05
5.47005e-05
5.27803e-05
5.27142e-05
5.28505e-05
5.27853e-05
5.44925e-05
5.46485e-05
5.27995e-05
5.28439e-05
5.28345e-05
5.28092e-05
5.27718e-05
5.27537e-05
5.27288e-05
5.46519e-05
5.45995e-05
5.2793e-05
5.28029e-05
5.27347e-05
5.45455e-05
5.47459e-05
5.48239e-05
5.29082e-05
5.2877e-05
5.30116e-05
5.30502e-05
5.47227e-05
5.48789e-05
5.28991e-05
5.28402e-05
5.30209e-05
5.30861e-05
5.27575e-05
5.30601e-05
5.30358e-05
5.46686e-05
5.49777e-05
5.27588e-05
5.30959e-05
5.30444e-05
5.488e-05
5.48478e-05
5.48775e-05
5.3037e-05
5.30967e-05
5.30891e-05
5.31647e-05
5.49203e-05
5.50133e-05
5.30443e-05
5.31055e-05
5.30653e-05
5.29564e-05
5.30785e-05
5.31678e-05
5.30711e-05
5.50111e-05
5.45922e-05
5.30776e-05
5.29344e-05
5.30207e-05
5.47501e-05
5.48875e-05
5.43684e-05
5.30825e-05
5.31425e-05
5.26686e-05
5.25901e-05
5.50138e-05
5.42416e-05
5.30492e-05
5.28258e-05
5.26705e-05
5.26596e-05
5.30208e-05
5.26134e-05
5.28345e-05
5.45509e-05
5.44128e-05
5.29438e-05
5.26985e-05
5.28456e-05
5.46131e-05
5.43259e-05
5.41712e-05
5.25086e-05
5.24526e-05
5.24074e-05
5.2446e-05
5.41831e-05
5.42923e-05
5.2549e-05
5.26589e-05
5.24532e-05
5.27453e-05
5.28043e-05
5.25114e-05
5.26734e-05
5.44751e-05
5.46356e-05
5.28417e-05
5.28076e-05
5.27354e-05
5.45919e-05
5.43214e-05
5.50773e-05
5.25117e-05
5.26507e-05
5.31702e-05
5.31155e-05
5.45265e-05
5.509e-05
5.253e-05
5.28056e-05
5.3114e-05
5.2896e-05
5.26442e-05
5.30003e-05
5.25455e-05
5.46679e-05
5.46802e-05
5.26599e-05
5.27939e-05
5.25023e-05
5.41792e-05
5.51069e-05
5.44082e-05
5.31891e-05
5.31029e-05
5.27388e-05
5.25533e-05
5.50802e-05
5.41245e-05
5.31378e-05
5.28915e-05
5.27676e-05
5.26705e-05
5.2528e-05
5.25758e-05
5.25678e-05
5.46824e-05
5.43643e-05
5.24877e-05
5.26614e-05
5.25914e-05
5.44298e-05
5.43648e-05
5.46778e-05
5.26076e-05
5.24939e-05
5.26968e-05
5.27788e-05
5.411e-05
5.48892e-05
5.26463e-05
5.26495e-05
5.27077e-05
5.28602e-05
5.27267e-05
5.28843e-05
5.32676e-05
5.43655e-05
5.49157e-05
5.27866e-05
5.29918e-05
5.3283e-05
5.53815e-05
5.4823e-05
5.4379e-05
5.28778e-05
5.30002e-05
5.1387e-05
5.14454e-05
5.50764e-05
5.44696e-05
5.28703e-05
5.30311e-05
5.13805e-05
5.14615e-05
5.33944e-05
5.1465e-05
5.14927e-05
5.5075e-05
5.44997e-05
5.3403e-05
5.14998e-05
5.14909e-05
5.43671e-05
5.38063e-05
5.06148e-05
5.0632e-05
5.37952e-05
5.06108e-05
5.06485e-05
4.41236e-05
4.41588e-05
4.41941e-05
5.06036e-05
5.38331e-05
5.0601e-05
3.73769e-05
3.73764e-05
3.73767e-05
3.73767e-05
3.73694e-05
3.73756e-05
3.73043e-05
3.73764e-05
3.73695e-05
3.73756e-05
3.73764e-05
3.73043e-05
3.73714e-05
3.72959e-05
3.72959e-05
3.58829e-05
4.08677e-05
3.6601e-05
4.51385e-05
5.51099e-05
6.48883e-05
3.58835e-05
4.08674e-05
3.66009e-05
4.51411e-05
3.60232e-05
3.60232e-05
3.60232e-05
3.44005e-05
3.44005e-05
3.44005e-05
3.44005e-05
3.52763e-05
3.56382e-05
3.60241e-05
3.53761e-05
3.60479e-05
3.42427e-05
3.53827e-05
5.51119e-05
6.48899e-05
3.52764e-05
3.60241e-05
3.56379e-05
3.53761e-05
3.60478e-05
3.53827e-05
3.42432e-05
3.65942e-05
3.65949e-05
3.52782e-05
3.40673e-05
3.40664e-05
3.39695e-05
5.13493e-05
3.46835e-05
5.46194e-05
7.65443e-05
8.08619e-05
3.39704e-05
5.13498e-05
3.46829e-05
5.46228e-05
3.39295e-05