/*--------------------------------*- C++ -*----------------------------------*\
| =========                 |                                                 |
| \\      /  F ield         | OpenFOAM: The Open Source CFD Toolbox           |
|  \\    /   O peration     | Version:  2312                                  |
|   \\  /    A nd           | Website:  www.openfoam.com                      |
|    \\/     M anipulation  |                                                 |
\*---------------------------------------------------------------------------*/
FoamFile
{
    version     2.0;
    format      ascii;
    arch        "LSB;label=32;scalar=64";
    class       volScalarField;
    location    "625";
    object      nut;
}
// * * * * * * * * * * * * * * * * * * * * * * * * * * * * * * * * * * * * * //

dimensions      [0 2 -1 0 0 0 0];

internalField   nonuniform List<scalar> 
172512
(
0.000233969
0.000233549
0.000233549
0.00023345
0.000232529
0.000227583
0.000227583
0.000223835
0.000230489
0.000220163
0.000220162
0.00020903
0.00022776
0.000211546
0.000211544
0.0001937
0.00022439
0.000202555
0.000202552
0.00017963
0.000220508
0.000193694
0.000193691
0.000167269
0.000216261
0.00018521
0.000185206
0.000156525
0.000211779
0.000177178
0.000177173
0.000147151
0.000207168
0.000169639
0.000169635
0.000138902
0.000202509
0.000162568
0.000162563
0.000131572
0.000197856
0.000155911
0.000155906
0.000124915
0.000193244
0.000149612
0.000149607
0.000118782
0.000188654
0.000143634
0.000143629
0.000113137
0.000184123
0.000137923
0.000137918
0.000107904
0.000179681
0.000132436
0.000132432
0.000103031
0.000175315
0.000127164
0.00012716
9.84126e-05
0.000171014
0.000122127
0.000122122
9.42308e-05
0.000166765
0.000117348
0.000117344
9.06419e-05
0.000162569
0.000112865
0.00011286
8.77128e-05
0.000158399
0.000108734
0.000108731
8.53688e-05
0.000154249
0.000105005
0.000105002
8.36525e-05
0.000150129
0.000101691
0.000101689
8.25645e-05
0.000146049
9.88786e-05
9.88763e-05
8.20882e-05
0.000142031
9.6567e-05
9.65626e-05
8.21369e-05
0.000138105
9.47744e-05
9.47742e-05
8.26809e-05
0.000134277
9.34952e-05
9.34976e-05
8.36517e-05
0.00013061
9.27338e-05
9.27342e-05
8.50059e-05
0.000127144
9.24515e-05
9.24558e-05
8.66935e-05
0.000123896
9.2631e-05
9.26323e-05
8.86307e-05
0.000120889
9.32259e-05
9.32286e-05
9.07922e-05
0.000118169
9.42055e-05
9.42136e-05
9.30956e-05
0.000115809
9.55777e-05
9.55602e-05
9.55807e-05
0.000113715
9.72495e-05
9.72514e-05
9.80986e-05
0.000112
9.91376e-05
9.91798e-05
0.000100712
0.000110719
0.000101414
0.000101413
0.000103411
0.00010968
0.000103714
0.000103716
0.000106081
0.000108964
0.000106347
0.000106334
0.00010874
0.000108889
0.000108939
0.000108997
0.000111487
0.000108883
0.000112012
0.000111896
0.000114265
0.000109395
0.000114947
0.000114972
0.000117031
0.00011053
0.000117971
0.000118103
0.000119723
0.000111342
0.000121493
0.000121433
0.000122563
0.000111686
0.00012315
0.000123087
0.000124217
0.000114956
0.000127462
0.000127392
0.000128661
0.000120143
0.000135224
0.000135528
0.000133534
0.000116328
0.000131182
0.000131392
0.000126915
0.000100081
0.000116457
0.000113859
0.000118383
0.000126654
0.000151724
0.000156635
0.0001512
0.000166759
0.000178941
0.000180523
0.000176167
0.000187294
0.000161066
0.000149269
0.000140803
0.000116401
0.000125987
0.000126618
0.000118737
7.51585e-05
0.000105341
0.000135676
0.00013622
0.000135624
0.000175633
0.000166026
0.000162246
0.000199775
0.000205312
0.000171404
0.00016414
0.000170713
0.000154579
0.000145911
0.00014776
0.000118653
0.000137893
0.000151298
0.000139157
0.000132614
0.000165435
0.000188569
0.000170846
0.000186158
0.000178093
0.000196928
0.000172567
0.000198463
0.000183456
0.000160686
0.000147058
0.000151186
0.000180418
0.000148994
0.000158902
0.000140825
0.000170783
0.000185286
0.000175
0.000185179
0.000170817
0.000195423
0.000178235
0.000188544
0.000182987
0.000179932
0.000166319
0.00017031
0.000185543
0.00017387
0.000159927
0.000169895
0.000183991
0.000187428
0.000169469
0.000189028
0.000184886
0.000191451
0.000174072
0.000192901
0.000191503
0.000188223
0.000173373
0.000189785
0.000193027
0.000186375
0.000177504
0.000186563
0.000192025
0.000194348
0.000180069
0.000193984
0.000193028
0.000196183
0.0001771
0.000201074
0.000195318
0.000194781
0.000175201
0.000202217
0.000198786
0.000198429
0.000180632
0.000204402
0.000201011
0.000200213
0.000182458
0.000207421
0.000200421
0.000199644
0.000181756
0.000209048
0.000201128
0.000202282
0.000182994
0.000211856
0.000204629
0.000204446
0.000184134
0.000214469
0.000204945
0.000204903
0.000184866
0.000215962
0.000204262
0.000204556
0.000185141
0.00021609
0.000206846
0.000206821
0.000185355
0.000219227
0.000208661
0.000207588
0.000186747
0.000222627
0.000208398
0.000208337
0.000187605
0.000222862
0.000207775
0.000209882
0.000187582
0.00022389
0.000209749
0.000209511
0.000186844
0.000226593
0.000211818
0.00020975
0.000188795
0.00022773
0.000212073
0.000212198
0.000190104
0.000227656
0.000210171
0.000211272
0.000188234
0.000228438
0.000210991
0.00021081
0.000187925
0.000231211
0.000213565
0.00021436
0.000190576
0.000234296
0.000215799
0.000212422
0.000189967
0.000231464
0.000210457
0.000211856
0.000189838
0.000228175
0.000211749
0.000213449
0.000190099
0.000237322
0.000215664
0.000213267
0.000186952
0.000235535
0.000211267
0.000212115
0.000188205
0.000235523
0.000218761
0.000219213
0.000197391
0.000239437
0.00021838
0.000218551
0.00019639
0.000234257
0.000234459
0.00023446
0.000234257
0.000234459
0.000234459
0.000234259
0.000234259
0.000234259
0.000234259
0.000234458
0.000234459
0.000234257
0.000234458
0.000234459
0.000234257
0.00023345
0.00022618
0.000233549
0.000233548
0.000229126
0.000229122
0.00023345
0.00022618
0.000233548
0.000233548
0.000229124
0.000229121
0.000233549
0.000229129
0.000229127
0.00023345
0.000226179
0.000233548
0.000229129
0.000229124
0.000226178
0.000223836
0.000212153
0.00022758
0.000227575
0.000222162
0.000222156
0.000223835
0.000212153
0.000227578
0.000227574
0.000222162
0.000222155
0.000227579
0.000222168
0.000222161
0.000223836
0.00021215
0.000227578
0.000222167
0.000222161
0.000212146
0.000209033
0.000196981
0.000220156
0.00022015
0.000213753
0.000213746
0.000209032
0.000196979
0.000220157
0.000220148
0.000213758
0.000213744
0.000220154
0.000213762
0.00021375
0.000209031
0.000196976
0.000220156
0.000213761
0.000213754
0.00019697
0.000193708
0.000182805
0.000211535
0.000211528
0.000204791
0.000204784
0.000193707
0.000182802
0.000211541
0.000211526
0.0002048
0.000204781
0.000211531
0.000204804
0.000204786
0.000193704
0.000182798
0.000211537
0.000204802
0.000204795
0.000182792
0.000179642
0.000170207
0.000202541
0.000202534
0.000195864
0.000195857
0.000179639
0.000170204
0.000202551
0.000202531
0.000195876
0.000195853
0.000202536
0.000195879
0.000195858
0.000179635
0.000170199
0.000202545
0.000195877
0.000195869
0.000170192
0.000167283
0.000159191
0.000193677
0.00019367
0.000187271
0.000187264
0.00016728
0.000159188
0.000193691
0.000193666
0.000187287
0.00018726
0.000193671
0.000187289
0.000187264
0.000167275
0.000159182
0.000193684
0.000187286
0.000187279
0.000159174
0.00015654
0.00014957
0.00018519
0.000185183
0.000179118
0.000179111
0.000156537
0.000149566
0.000185207
0.000185179
0.000179137
0.000179106
0.000185183
0.000179139
0.000179111
0.000156532
0.00014956
0.000185198
0.000179135
0.000179128
0.000149552
0.000147168
0.00014107
0.000177155
0.000177148
0.000171454
0.000171447
0.000147164
0.000141066
0.000177175
0.000177144
0.000171475
0.000171442
0.000177148
0.000171477
0.000171447
0.000147158
0.000141059
0.000177166
0.000171473
0.000171466
0.000141051
0.000138919
0.000133516
0.000169614
0.000169607
0.000164268
0.000164261
0.000138915
0.000133512
0.000169637
0.000169603
0.000164292
0.000164256
0.000169608
0.000164294
0.000164262
0.000138909
0.000133505
0.000169628
0.00016429
0.000164283
0.000133496
0.00013159
0.000126659
0.000162541
0.000162534
0.000157511
0.000157503
0.000131585
0.000126656
0.000162566
0.000162529
0.000157537
0.000157498
0.000162534
0.000157538
0.000157504
0.000131579
0.000126648
0.000162556
0.000157535
0.000157528
0.000126639
0.000124934
0.000120339
0.000155881
0.000155874
0.000151126
0.000151118
0.000124929
0.000120336
0.000155909
0.00015587
0.000151154
0.000151114
0.000155875
0.000151155
0.00015112
0.000124922
0.000120328
0.000155899
0.000151152
0.000151145
0.000120319
0.000118799
0.000114408
0.000149581
0.000149573
0.000145068
0.00014506
0.000118796
0.000114402
0.00014961
0.00014957
0.000145098
0.000145056
0.000149575
0.000145099
0.000145062
0.000118788
0.000114395
0.0001496
0.000145095
0.000145088
0.000114386
0.000113155
0.00010882
0.000143602
0.000143594
0.000139294
0.000139285
0.00011315
0.000108814
0.000143632
0.00014359
0.000139324
0.000139281
0.000143596
0.000139325
0.000139289
0.000113143
0.000108808
0.000143622
0.000139322
0.000139315
0.000108799
0.000107922
0.000103688
0.00013789
0.000137882
0.000133753
0.000133745
0.000107917
0.000103683
0.000137921
0.000137878
0.000133784
0.000133741
0.000137885
0.000133786
0.000133749
0.000107911
0.000103676
0.000137911
0.000133783
0.000133775
0.000103669
0.000103048
9.9115e-05
0.000132402
0.000132394
0.000128426
0.000128416
0.000103045
9.91104e-05
0.000132433
0.000132391
0.000128456
0.000128413
0.000132398
0.000128458
0.000128422
0.000103038
9.9104e-05
0.000132424
0.000128455
0.000128447
9.90965e-05
9.84305e-05
9.49782e-05
0.000127133
0.000127121
0.000123329
0.000123315
9.84251e-05
9.4974e-05
0.000127162
0.000127119
0.000123356
0.000123314
0.000127128
0.000123359
0.000123325
9.8419e-05
9.49678e-05
0.000127152
0.000123356
0.000123347
9.49615e-05
9.4247e-05
9.14262e-05
0.000122097
0.000122083
0.000118464
0.00011845
9.4242e-05
9.14218e-05
0.000122122
0.000122081
0.000118489
0.000118449
0.000122092
0.000118493
0.000118461
9.42366e-05
9.14163e-05
0.000122113
0.00011849
0.00011848
9.14103e-05
9.06569e-05
8.8368e-05
0.000117318
0.000117303
0.00011391
0.000113894
9.06506e-05
8.83631e-05
0.000117343
0.000117302
0.000113933
0.000113893
0.000117315
0.000113937
0.000113908
9.06464e-05
8.83583e-05
0.000117334
0.000113935
0.000113924
8.83529e-05
8.77271e-05
8.59011e-05
0.000112836
0.00011282
0.000109682
0.000109664
8.77219e-05
8.58968e-05
0.000112859
0.000112819
0.000109703
0.000109665
0.000112834
0.000109708
0.00010968
8.77174e-05
8.58924e-05
0.00011285
0.000109705
0.000109695
8.58879e-05
8.53805e-05
8.40608e-05
0.000108706
0.00010869
0.000105839
0.000105822
8.53767e-05
8.40573e-05
0.000108727
0.00010869
0.000105859
0.000105822
0.000108705
0.000105864
0.000105838
8.53725e-05
8.40534e-05
0.00010872
0.000105862
0.000105851
8.40492e-05
8.36629e-05
8.28515e-05
0.000104977
0.000104962
0.000102442
0.000102428
8.36603e-05
8.28483e-05
0.000104998
0.000104962
0.000102463
0.000102428
0.000104977
0.000102469
0.000102443
8.36561e-05
8.28446e-05
0.00010499
0.000102467
0.000102455
8.28399e-05
8.25738e-05
8.2256e-05
0.000101662
0.000101649
9.95065e-05
9.94937e-05
8.25718e-05
8.22521e-05
0.000101684
0.000101651
9.95269e-05
9.94939e-05
0.000101665
9.95321e-05
9.95095e-05
8.25682e-05
8.22492e-05
0.000101676
9.95325e-05
9.95207e-05
8.22468e-05
8.20966e-05
8.22013e-05
9.88499e-05
9.88383e-05
9.70672e-05
9.70588e-05
8.2093e-05
8.21994e-05
9.88698e-05
9.88383e-05
9.70874e-05
9.70601e-05
9.88546e-05
9.70956e-05
9.70732e-05
8.20898e-05
8.2197e-05
9.8865e-05
9.70965e-05
9.70835e-05
8.21923e-05
8.21458e-05
8.26423e-05
9.65395e-05
9.6529e-05
9.51493e-05
9.51431e-05
8.2144e-05
8.26426e-05
9.65596e-05
9.65269e-05
9.51673e-05
9.514e-05
9.65437e-05
9.51764e-05
9.51562e-05
8.21411e-05
8.26381e-05
9.6553e-05
9.51762e-05
9.51651e-05
8.26367e-05
8.26857e-05
8.35288e-05
9.47511e-05
9.47401e-05
9.37465e-05
9.37345e-05
8.2686e-05
8.35219e-05
9.47699e-05
9.47384e-05
9.37676e-05
9.37352e-05
9.47545e-05
9.37668e-05
9.37537e-05
8.26825e-05
8.35209e-05
9.47637e-05
9.37673e-05
9.37598e-05
8.35214e-05
8.36569e-05
8.47994e-05
9.34729e-05
9.34621e-05
9.28494e-05
9.28441e-05
8.36513e-05
8.48024e-05
9.3492e-05
9.34662e-05
9.28666e-05
9.28418e-05
9.34822e-05
9.28748e-05
9.28574e-05
8.36503e-05
8.48013e-05
9.34886e-05
9.28733e-05
9.2863e-05
8.47967e-05
8.5008e-05
8.64259e-05
9.27066e-05
9.27037e-05
9.24548e-05
9.24472e-05
8.50113e-05
8.64209e-05
9.27229e-05
9.27042e-05
9.2471e-05
9.24431e-05
9.27179e-05
9.24743e-05
9.24619e-05
8.50096e-05
8.64177e-05
9.27251e-05
9.24739e-05
9.24705e-05
8.64222e-05
8.6696e-05
8.83114e-05
9.24326e-05
9.24225e-05
9.25176e-05
9.25138e-05
8.66914e-05
8.83109e-05
9.24469e-05
9.24246e-05
9.2533e-05
9.25147e-05
9.24422e-05
9.25406e-05
9.2529e-05
8.66893e-05
8.83103e-05
9.24485e-05
9.25425e-05
9.25277e-05
8.83066e-05
8.86343e-05
9.04258e-05
9.26077e-05
9.26018e-05
9.30176e-05
9.30187e-05
8.86368e-05
9.04232e-05
9.26224e-05
9.26048e-05
9.30297e-05
9.30161e-05
9.26171e-05
9.30398e-05
9.30312e-05
8.86346e-05
9.04216e-05
9.26176e-05
9.30383e-05
9.30361e-05
9.0425e-05
9.0792e-05
9.27007e-05
9.32073e-05
9.32067e-05
9.39128e-05
9.39075e-05
9.07891e-05
9.26984e-05
9.3217e-05
9.32048e-05
9.39241e-05
9.39146e-05
9.32224e-05
9.39267e-05
9.39164e-05
9.07872e-05
9.27049e-05
9.32244e-05
9.39395e-05
9.3918e-05
9.26963e-05
9.31009e-05
9.51444e-05
9.41869e-05
9.41866e-05
9.51933e-05
9.51763e-05
9.30983e-05
9.51322e-05
9.41959e-05
9.41861e-05
9.52063e-05
9.51813e-05
9.41953e-05
9.52024e-05
9.52e-05
9.31056e-05
9.51263e-05
9.41989e-05
9.52032e-05
9.52031e-05
9.5143e-05
9.55813e-05
9.76498e-05
9.55765e-05
9.55525e-05
9.67444e-05
9.67746e-05
9.55671e-05
9.76706e-05
9.55856e-05
9.55405e-05
9.67553e-05
9.67849e-05
9.55744e-05
9.68021e-05
9.67853e-05
9.55588e-05
9.76672e-05
9.55746e-05
9.68039e-05
9.67782e-05
9.76567e-05
9.80932e-05
0.000100244
9.71922e-05
9.72194e-05
9.8648e-05
9.86222e-05
9.81209e-05
0.000100229
9.72055e-05
9.72321e-05
9.86519e-05
9.86197e-05
9.7227e-05
9.86222e-05
9.86365e-05
9.81153e-05
0.000100243
9.72129e-05
9.86517e-05
9.86386e-05
0.000100241
0.000100716
0.000102911
9.91452e-05
9.9131e-05
0.000100778
0.00010077
0.000100694
0.000102917
9.91519e-05
9.91522e-05
0.000100796
0.000100807
9.91624e-05
0.000100789
0.000100801
0.00010071
0.000102932
9.91694e-05
0.000100808
0.000100803
0.000102928
0.000103392
0.00010565
0.000101391
0.0001014
0.000103143
0.0001031
0.000103402
0.000105618
0.000101399
0.000101407
0.000103129
0.000103055
0.000101383
0.000103126
0.000103151
0.000103414
0.000105579
0.000101389
0.000103069
0.00010312
0.000105613
0.000106097
0.000108249
0.000103731
0.000103692
0.000105606
0.000105693
0.00010607
0.000108307
0.000103732
0.000103708
0.000105604
0.000105676
0.000103782
0.000105704
0.000105621
0.000106041
0.000108348
0.000103754
0.000105734
0.000105637
0.000108281
0.000108752
0.000111011
0.000106262
0.000106325
0.000108391
0.000108223
0.000108797
0.000110928
0.000106251
0.000106272
0.000108428
0.000108306
0.00010625
0.000108259
0.000108331
0.000108822
0.000110934
0.000106257
0.000108297
0.000108308
0.000110977
0.000111496
0.000113703
0.000109055
0.000108926
0.00011111
0.000111219
0.000111409
0.000113776
0.000109102
0.000108998
0.000111079
0.000111046
0.00010901
0.000111185
0.000111206
0.000111427
0.000113714
0.000109018
0.000111108
0.00011121
0.000113761
0.000114195
0.000116581
0.000111882
0.000112038
0.000114242
0.000114247
0.000114315
0.000116584
0.000111876
0.00011187
0.000114232
0.000114389
0.000111986
0.000114269
0.000114197
0.000114225
0.000116659
0.000111964
0.000114343
0.000114179
0.000116553
0.000117093
0.00011933
0.000114994
0.000114904
0.000117326
0.000117176
0.000117026
0.000119168
0.000114978
0.000114977
0.000117327
0.000117348
0.000114967
0.000117302
0.000117312
0.000117138
0.000119235
0.000114972
0.000117368
0.000117288
0.000119252
0.000119842
0.000121931
0.000118156
0.000117854
0.000120369
0.000120391
0.000119655
0.000122042
0.000118188
0.000118087
0.000120432
0.000120229
0.000117917
0.000120292
0.000120443
0.000119733
0.000121991
0.000117887
0.000120303
0.000120508
0.000122019
0.000122269
0.00012386
0.000121009
0.000121597
0.00012269
0.000123291
0.00012261
0.000124243
0.000121019
0.000121344
0.000122616
0.000123199
0.000121572
0.000123369
0.000123006
0.000122496
0.000124127
0.000121606
0.000123257
0.000122838
0.000124042
0.000124356
0.0001281
0.000123266
0.000123088
0.000126832
0.000125446
0.000124363
0.00012682
0.000123248
0.000123061
0.000126836
0.000125219
0.000122987
0.00012529
0.000125892
0.000124278
0.000126709
0.000122885
0.000125168
0.000126105
0.000127394
0.00012912
0.000132385
0.000128606
0.00012763
0.000133287
0.00013403
0.000128064
0.000133519
0.000128576
0.000127462
0.000133016
0.00013451
0.000127991
0.000134072
0.000133858
0.000127961
0.000134358
0.000128191
0.000134459
0.000133837
0.000133232
0.000132543
0.000128429
0.000133888
0.0001351
0.000131464
0.000133581
0.000133947
0.000129868
0.000133685
0.000135558
0.000131879
0.000134638
0.00013485
0.000134061
0.000133037
0.000134902
0.000130623
0.000134755
0.000134597
0.00013284
0.000128726
0.000127054
0.000119924
0.000128861
0.000130466
0.000119354
0.000118522
0.000128171
0.000117144
0.000129495
0.000131469
0.000119445
0.000115882
0.000129772
0.000118649
0.000117888
0.000128529
0.000112143
0.000129344
0.000115721
0.00011724
0.000117057
0.000120422
0.000140256
0.000118076
0.000116691
0.000139607
0.000142015
0.00011788
0.00014371
0.00011762
0.000113914
0.000139269
0.000144965
0.000116402
0.00014147
0.000143821
0.000112613
0.000148876
0.000116066
0.000145802
0.000145155
0.000146014
0.00014537
0.000170653
0.00014901
0.000151708
0.000171974
0.000173127
0.000148836
0.000171522
0.0001491
0.000155773
0.000172618
0.000177122
0.000153687
0.000173978
0.000176584
0.000154542
0.000175428
0.000154948
0.000177829
0.000177456
0.000175412
0.000173251
0.000165346
0.000179491
0.000178285
0.000185088
0.000176317
0.000172807
0.000156875
0.00017994
0.00017999
0.000184699
0.000160408
0.00018069
0.000175251
0.000163168
0.000174308
0.000143453
0.000181309
0.000158639
0.000160913
0.000145302
0.000158745
0.000123851
0.000169269
0.000162058
0.000134604
0.000134804
0.000152396
0.000126906
0.000168552
0.00015065
0.000134252
0.00013203
0.000150892
0.000134703
0.000127678
0.000140445
0.000125939
0.000149117
0.000130681
0.000125929
0.000120436
0.000119944
0.000106652
0.00012533
0.000126251
0.000105174
0.000104303
0.000123
0.000103082
0.000124681
0.000127575
0.000106007
0.000123157
0.000123147
0.000105041
0.000120956
0.000124342
0.000131031
0.000121836
0.000126009
0.000125169
0.00013069
0.000110293
0.000158344
0.000104589
0.000103947
0.000155874
0.000159283
0.000106825
0.000162175
0.00010631
0.000131341
0.000156405
0.000159213
0.00013113
0.000160096
0.000160614
0.000135915
0.000159326
0.000136223
0.00016068
0.000161755
0.000159883
0.000165448
0.000195306
0.000171479
0.000176006
0.000202727
0.000207431
0.000170154
0.000200253
0.00017052
0.00016585
0.000198967
0.000175206
0.000167185
0.000203792
0.000176978
0.000162238
0.000164561
0.000166844
0.000172989
0.000174414
0.000165235
0.000193849
0.000147853
0.000205686
0.000209347
0.000169508
0.000166976
0.000196304
0.00014511
0.00020169
0.000174076
0.00016845
0.000152786
0.000177912
0.000166468
0.000164125
0.000161754
0.000136074
0.000175153
0.000152187
0.000162983
0.000149691
0.000142236
0.000129556
0.000156558
0.000153904
0.000135954
0.000137702
0.000139865
0.00013319
0.000156328
0.000145859
0.000136306
0.000140524
0.000158981
0.00013875
0.000144869
0.00013292
0.000141345
0.00015832
0.00014126
0.000144723
0.000137874
0.000131624
0.000156572
0.000133858
0.000137156
0.000158237
0.000158658
0.000136389
0.000157095
0.000134273
0.000150253
0.000159818
0.000180734
0.000143616
0.000159509
0.000169097
0.00014768
0.000176975
0.000143811
0.000181593
0.000170879
0.000166767
0.000160562
0.000177127
0.000167935
0.000163844
0.000187001
0.000175372
0.000159088
0.00016275
0.000169449
0.000187269
0.00018897
0.000197754
0.000177412
0.000175957
0.000185929
0.000179872
0.000185123
0.000179208
0.000199242
0.000188619
0.000176172
0.00017963
0.000178013
0.000192333
0.000178467
0.000195884
0.000185681
0.000163635
0.000170572
0.000194135
0.000196805
0.0001952
0.000170851
0.00018372
0.000182534
0.00016548
0.000181728
0.000152874
0.00018627
0.000168444
0.000165037
0.000148944
0.000173208
0.000145734
0.000187685
0.000186934
0.00016195
0.000183059
0.00017134
0.000170699
0.000184894
0.000163703
0.000158618
0.000149182
0.000162253
0.00018312
0.000162561
0.000149217
0.000138943
0.000160698
0.000148486
0.000158121
0.000154845
0.000143322
0.000157049
0.000157293
0.000178851
0.000159008
0.000169678
0.000169379
0.000160895
0.000154319
0.000148181
0.000160034
0.000174671
0.000169116
0.000172485
0.000183005
0.000141584
0.00017036
0.000164539
0.000177938
0.000183842
0.000173521
0.000162416
0.000181325
0.000169291
0.000168225
0.000190103
0.000168524
0.000160168
0.000158711
0.000171887
0.000183287
0.000193434
0.000195758
0.000185637
0.000168618
0.000189896
0.000174027
0.000182889
0.000187585
0.000195255
0.000193426
0.000178871
0.000181652
0.000170865
0.000192176
0.000172809
0.000188473
0.000182286
0.000160105
0.000168117
0.00019524
0.000196201
0.000188937
0.000184611
0.000190171
0.000181029
0.000182539
0.000181446
0.000166139
0.000193649
0.000183902
0.00018307
0.000167427
0.000168947
0.000161055
0.000184444
0.000183935
0.000175884
0.000185696
0.000169113
0.000172136
0.000184113
0.000180353
0.000174488
0.000174169
0.000179992
0.000185506
0.000173773
0.000164471
0.000161685
0.000179902
0.000174159
0.000172518
0.000160229
0.000160746
0.000169184
0.000174804
0.000185526
0.000179852
0.000184283
0.000172254
0.000171264
0.00017337
0.000173846
0.000180059
0.000184346
0.000172818
0.000184604
0.000178802
0.000162798
0.000173339
0.000171422
0.000184282
0.000178203
0.000167719
0.000171132
0.000176447
0.000183544
0.000183682
0.000190591
0.000183724
0.00017084
0.000169847
0.000184341
0.000187547
0.000191511
0.000191547
0.000182105
0.000183329
0.000188017
0.000174708
0.00017676
0.000182257
0.00019139
0.000189307
0.000174
0.000176692
0.000176381
0.000191623
0.000185518
0.000192267
0.000190605
0.000170567
0.00017535
0.0001923
0.000191615
0.000192415
0.000189604
0.000188582
0.000190298
0.000188787
0.000176478
0.000173045
0.000190077
0.000189432
0.000189495
0.000173525
0.000176123
0.000174221
0.000192068
0.000191614
0.000190227
0.000192699
0.000175852
0.000177056
0.000191796
0.000188411
0.000189595
0.000186187
0.000189333
0.000193071
0.000192886
0.000172543
0.00017133
0.000189134
0.000186116
0.000191358
0.000176688
0.000173914
0.000174022
0.000189722
0.000192487
0.000188884
0.000191302
0.000176904
0.000175612
0.000189121
0.000186132
0.000189061
0.000191858
0.000194092
0.00019229
0.000196102
0.000171778
0.000176971
0.000193003
0.000192837
0.000196168
0.00018017
0.000174279
0.000177027
0.000189571
0.000190943
0.000192943
0.000192306
0.000175317
0.000176321
0.000190056
0.000193533
0.000193408
0.000195956
0.000196173
0.000192585
0.000194855
0.000177599
0.000178932
0.000196374
0.000196322
0.000195418
0.000177605
0.000177632
0.000180021
0.000194281
0.000193329
0.00019742
0.000195707
0.000176659
0.000178464
0.000194631
0.000195966
0.000197317
0.000195466
0.000193821
0.000194577
0.000191667
0.000178779
0.000178254
0.000194419
0.000195016
0.000192037
0.000175078
0.000180105
0.000180202
0.00019788
0.00019631
0.000197789
0.00019797
0.00017871
0.000180548
0.000197668
0.000195717
0.000197671
0.000197731
0.000191537
0.000197932
0.000196745
0.000178249
0.000180412
0.000191739
0.000197373
0.000196468
0.000179934
0.000180063
0.000180992
0.000197744
0.000198549
0.000199004
0.000200267
0.000180806
0.000182172
0.00019775
0.000198411
0.000199003
0.000199712
0.000198338
0.000200699
0.000200959
0.000180702
0.000181687
0.000198171
0.00020016
0.000200902
0.00018249
0.000181211
0.000182236
0.000199629
0.000200669
0.000200915
0.000200694
0.000182213
0.000181912
0.000199534
0.000199771
0.000200702
0.000199605
0.000201235
0.000200829
0.000200919
0.000181535
0.000181175
0.000201163
0.000199666
0.000200769
0.000181982
0.000182244
0.000182956
0.000201077
0.000200384
0.000201545
0.000200235
0.000181625
0.000181834
0.000200969
0.000199847
0.000201805
0.000201574
0.000200672
0.000200089
0.000201073
0.000181134
0.000182872
0.000200551
0.000201523
0.000201361
0.000182716
0.000183041
0.000184085
0.000201924
0.000201242
0.000203441
0.000204011
0.000182272
0.000184763
0.000202178
0.000202272
0.000203423
0.000204004
0.000201831
0.000204052
0.000203405
0.000183175
0.000184599
0.000202081
0.000204049
0.000203385
0.000184123
0.000184144
0.000184864
0.00020388
0.00020459
0.000204738
0.000204991
0.000184876
0.000185063
0.000203802
0.000204411
0.000204727
0.000204887
0.000203764
0.00020503
0.000204787
0.00018466
0.000185085
0.000203689
0.000204932
0.000204776
0.000184836
0.000184842
0.000185408
0.000204955
0.0002049
0.000205486
0.000204257
0.000184841
0.000184166
0.00020499
0.000204853
0.000205512
0.00020444
0.000205071
0.000204301
0.000205393
0.000184898
0.000184413
0.000205099
0.00020449
0.000205415
0.000185305
0.000185307
0.000185224
0.000205555
0.00020423
0.000205339
0.000206115
0.000184115
0.000185892
0.000205568
0.000204521
0.000205391
0.000206269
0.000205331
0.000206158
0.000205468
0.0001844
0.000185989
0.000205352
0.000206301
0.000205532
0.000185314
0.000185131
0.000186391
0.000205468
0.000206782
0.000207178
0.000208351
0.000186149
0.000187654
0.000205533
0.000206764
0.000207073
0.000207471
0.000205844
0.000208432
0.000207467
0.000186123
0.00018683
0.000205902
0.000207584
0.000207391
0.000186637
0.000186601
0.000187808
0.000207805
0.000208596
0.00020907
0.000208664
0.000187616
0.000187294
0.000207646
0.000207472
0.000209007
0.000207974
0.000207989
0.000208667
0.000208963
0.000186675
0.000186803
0.00020785
0.000207917
0.000208833
0.000187666
0.000187746
0.000187537
0.000209172
0.000208402
0.000208942
0.000207763
0.000187078
0.000186316
0.000209185
0.000208376
0.000209184
0.000209645
0.000209069
0.00020782
0.000209035
0.00018688
0.000188173
0.000209028
0.000209694
0.000209282
0.000187746
0.000187313
0.000187565
0.000208776
0.000207698
0.000208948
0.000209213
0.000186248
0.000187776
0.000209076
0.000209818
0.000209139
0.000209737
0.000208913
0.000209178
0.000208518
0.00018814
0.000187992
0.000209251
0.000209773
0.00020881
0.000186997
0.000187719
0.000189135
0.000209553
0.000209822
0.000211081
0.000211456
0.000187964
0.000189522
0.00020953
0.000209524
0.00021082
0.000209409
0.000208547
0.000211364
0.000210369
0.000187732
0.000187627
0.000208708
0.000209316
0.000210016
0.000188503
0.000189097
0.000189028
0.000211324
0.000211842
0.000211582
0.000212252
0.000189553
0.000189683
0.000211074
0.000209842
0.000211463
0.000211768
0.000211069
0.000212413
0.000212505
0.000187808
0.000189662
0.000210757
0.00021193
0.000212434
0.00019026
0.000188837
0.000188209
0.000211334
0.000211765
0.000210671
0.000210268
0.000189392
0.000187716
0.000211403
0.000212001
0.000210929
0.000211587
0.000212677
0.000210464
0.000211329
0.000189605
0.000188899
0.000212656
0.000211767
0.000211599
0.000188565
0.000188059
0.000188903
0.000210624
0.000210065
0.000211158
0.000210538
0.000187464
0.000188444
0.000210848
0.000211178
0.000211043
0.000210672
0.00021081
0.000210271
0.000210084
0.000188566
0.000188012
0.000211024
0.000210601
0.000210134
0.000187778
0.000188982
0.000190024
0.000211619
0.000211248
0.00021259
0.000212705
0.000188689
0.000190132
0.000211552
0.000210921
0.000212816
0.000213712
0.000210278
0.000212798
0.000212924
0.00018822
0.00019143
0.000210294
0.000213833
0.00021316
0.000190499
0.00019001
0.000191597
0.000212981
0.000213313
0.00021492
0.000215713
0.000190253
0.000192699
0.000213251
0.000214222
0.000214684
0.000213708
0.000213528
0.000215686
0.000214245
0.000191529
0.000189652
0.00021372
0.000213446
0.000213796
0.000190259
0.000191542
0.000188748
0.000215341
0.000215967
0.000212502
0.000211668
0.000192593
0.000187732
0.000214951
0.000212713
0.000212388
0.000211451
0.000214046
0.000211699
0.000213358
0.000189118
0.000188097
0.000213267
0.000211593
0.000213334
0.000189788
0.000187999
0.000185836
0.000210939
0.000210053
0.000208711
0.000209352
0.000186819
0.000186791
0.000211265
0.000211473
0.000209317
0.000212401
0.000213303
0.000210183
0.000212608
0.000188281
0.0001899
0.000213617
0.000213337
0.000213306
0.000190465
0.000186508
0.000193399
0.000209494
0.000211102
0.000216718
0.000216769
0.000188194
0.000193949
0.000209858
0.000212992
0.00021613
0.000214357
0.000212382
0.000215683
0.000211602
0.000189915
0.000190612
0.000212691
0.000213426
0.000211145
0.000187392
0.000193498
0.000188912
0.000217432
0.000216895
0.000213819
0.000211846
0.000193736
0.000186733
0.000216858
0.000214419
0.000214025
0.000212573
0.000211383
0.000211714
0.000210914
0.000190432
0.000188162
0.000210825
0.00021215
0.000211062
0.000187555
0.000188112
0.000191385
0.000212209
0.000211006
0.000213057
0.000214007
0.000186122
0.000192941
0.000212603
0.000212292
0.000213264
0.000214814
0.000212031
0.000214956
0.000217794
0.0001878
0.000193092
0.000212524
0.000215911
0.000218028
0.000196252
0.000192654
0.000197838
0.000216266
0.000217912
0.000219713
0.00022051
0.000194546
0.00019877
0.000216259
0.000218159
0.0002196
0.000220483
0.000221248
0.000220753
0.000221547
0.000194456
0.000198831
0.00022137
0.000220914
0.000221504
0.000198568
0.000196529
0.000217883
0.00021828
0.000196689
0.000217797
0.000218311
0.000240749
0.000241078
0.000242308
0.000218691
0.000196887
0.000218643
0.000234728
0.000234779
0.000234733
0.000234733
0.000235111
0.000234805
0.000234701
0.000234742
0.000235111
0.000234806
0.000234742
0.000234701
0.000234859
0.000233567
0.000233568
0.000104728
3.87616e-05
0.000129351
3.98355e-05
2.16916e-05
2.28358e-05
0.000104691
3.87576e-05
0.000129384
3.98323e-05
0.000233969
0.000233969
0.000233969
0.000232943
0.000232943
0.000232943
0.000232943
0.000206273
9.38644e-05
0.000233996
0.00023175
0.000222758
8.7317e-05
0.000233595
2.16909e-05
2.28351e-05
0.000206271
0.000233996
9.38633e-05
0.00023175
0.000222758
0.000233595
8.73207e-05
4.78467e-05
4.78373e-05
0.000231405
4.40453e-05
4.40307e-05
7.2548e-05
4.24352e-05
8.13597e-05
4.37631e-05
2.47743e-05
2.54623e-05
7.25339e-05
4.24303e-05
8.13687e-05
4.37595e-05
0.000232529
0.000232529