/*--------------------------------*- C++ -*----------------------------------*\
| =========                 |                                                 |
| \\      /  F ield         | OpenFOAM: The Open Source CFD Toolbox           |
|  \\    /   O peration     | Version:  2312                                  |
|   \\  /    A nd           | Website:  www.openfoam.com                      |
|    \\/     M anipulation  |                                                 |
\*---------------------------------------------------------------------------*/
FoamFile
{
    version     2.0;
    format      ascii;
    arch        "LSB;label=32;scalar=64";
    class       volScalarField;
    location    "625";
    object      p;
}
// * * * * * * * * * * * * * * * * * * * * * * * * * * * * * * * * * * * * * //

dimensions      [0 2 -2 0 0 0 0];

internalField   nonuniform List<scalar> 
172512
(
0.00360753
0.00360794
0.00360794
0.00360784
0.00354967
0.00354982
0.00354982
0.00355251
0.00349808
0.00349808
0.00349809
0.00350086
0.00344581
0.00344582
0.00344582
0.00344858
0.00339443
0.00339444
0.00339444
0.00339719
0.00334445
0.00334446
0.00334446
0.00334718
0.00329592
0.00329593
0.00329593
0.00329862
0.00324868
0.00324872
0.0032487
0.00325135
0.00320254
0.00320257
0.00320256
0.00320519
0.00315731
0.00315733
0.00315732
0.00315992
0.00311279
0.00311281
0.00311281
0.00311538
0.00306887
0.00306889
0.00306889
0.00307144
0.00302547
0.00302549
0.00302549
0.003028
0.00298253
0.00298255
0.00298255
0.00298505
0.00294003
0.00294004
0.00294004
0.00294254
0.00289793
0.00289793
0.00289793
0.00290042
0.00285622
0.00285621
0.00285621
0.00285869
0.00281486
0.00281486
0.00281486
0.00281733
0.00277384
0.00277383
0.00277383
0.00277629
0.00273314
0.00273312
0.00273312
0.00273557
0.00269273
0.00269269
0.00269269
0.00269514
0.00265258
0.00265254
0.00265254
0.00265499
0.00261269
0.00261264
0.00261264
0.00261508
0.00257304
0.00257298
0.00257298
0.00257541
0.00253361
0.00253355
0.00253355
0.00253597
0.0024944
0.00249434
0.00249434
0.00249675
0.0024554
0.00245534
0.00245534
0.00245773
0.00241659
0.00241654
0.00241655
0.00241891
0.00237799
0.00237794
0.00237794
0.00238029
0.00233957
0.00233953
0.00233953
0.00234185
0.00230133
0.00230129
0.00230129
0.0023036
0.00226327
0.00226323
0.00226323
0.00226552
0.00222537
0.00222534
0.00222535
0.00222761
0.00218764
0.00218762
0.00218762
0.00218986
0.00215006
0.00215005
0.00215005
0.00215227
0.00211264
0.00211263
0.00211263
0.00211483
0.00207537
0.00207535
0.00207535
0.00207754
0.00203823
0.00203822
0.00203822
0.00204039
0.00200125
0.00200123
0.00200123
0.00200338
0.00196438
0.00196434
0.00196435
0.00196649
0.00192763
0.0019276
0.0019276
0.00192974
0.00189101
0.00189097
0.00189096
0.00189307
0.00185451
0.00185448
0.00185449
0.00185661
0.00181821
0.00181812
0.00181814
0.0018202
0.00178144
0.00178132
0.00178131
0.00178346
0.00174513
0.00174523
0.00174512
0.00174738
0.00171086
0.00171115
0.00171149
0.00171318
0.00167594
0.00167487
0.00167453
0.00167678
0.00163718
0.00163633
0.00163621
0.00163813
0.00159773
0.00159909
0.00159966
0.0016019
0.00156306
0.00156395
0.00156424
0.00156663
0.00153184
0.00153206
0.00153039
0.00153233
0.00149709
0.00149508
0.00149588
0.00149745
0.00145813
0.00145748
0.0014589
0.00146084
0.00142249
0.00142382
0.00142325
0.00142514
0.00138853
0.00138882
0.00138812
0.00139092
0.00135379
0.00135256
0.00135227
0.00135423
0.00131671
0.00131664
0.00131623
0.00131833
0.00127961
0.00128032
0.00128153
0.0012836
0.00124568
0.00124496
0.00124602
0.00124719
0.00121092
0.00121042
0.00120895
0.00121136
0.00117375
0.00117465
0.00117353
0.00117609
0.00113845
0.00113825
0.00113905
0.0011409
0.00110347
0.00110304
0.00110371
0.00110563
0.00106838
0.00106812
0.00106772
0.00106977
0.00103271
0.00103287
0.00103251
0.00103455
0.000997432
0.00099727
0.00099751
0.000999454
0.000962002
0.00096183
0.0009621
0.000963907
0.000926655
0.000926501
0.000926259
0.000928328
0.000891191
0.000891145
0.000891019
0.000893148
0.000855707
0.000855764
0.000855865
0.000857959
0.000820451
0.0008203
0.00082033
0.00082226
0.000785039
0.000784854
0.000784876
0.000786828
0.000749457
0.000749436
0.000749446
0.000751465
0.00071398
0.000713945
0.000713883
0.000715925
0.000678424
0.000678297
0.00067832
0.000680342
0.000642807
0.000642758
0.00064276
0.000644768
0.000607201
0.000607198
0.000607194
0.000609203
0.00057167
0.000571562
0.000571557
0.000573611
0.00053603
0.000535917
0.000535964
0.000537947
0.000500288
0.000500283
0.000500276
0.000502293
0.000464597
0.000464589
0.000464498
0.000466582
0.00042889
0.000428809
0.00042885
0.000430883
0.000393069
0.000392995
0.000393077
0.000395056
0.000357214
0.000357137
0.000357104
0.000359138
0.00032135
0.000321387
0.00032131
0.000323392
0.000285515
0.000285452
0.00028555
0.000287583
0.000249588
0.00024952
0.000249401
0.000251464
0.000213401
0.000213286
0.000213522
0.000215497
0.000177393
0.000177524
0.000177422
0.000179519
0.000141742
0.00014151
0.000141361
0.000143445
0.000105157
0.000105213
0.000105511
0.000107529
6.95105e-05
6.9582e-05
6.94074e-05
7.15308e-05
3.40211e-05
3.30419e-05
3.30464e-05
3.50076e-05
9.42565e-06
5.3528e-06
5.42915e-06
4.02648e-06
0.0036177
0.00361678
0.00361677
0.0036177
0.00361678
0.00361678
0.00361568
0.00361568
0.00361568
0.00361568
0.00361677
0.00361677
0.0036177
0.00361678
0.00361677
0.0036177
0.00360784
0.0035589
0.00360794
0.00360794
0.00356127
0.00356127
0.00360784
0.0035589
0.00360794
0.00360794
0.00356127
0.00356127
0.00360794
0.00356127
0.00356127
0.00360784
0.0035589
0.00360794
0.00356127
0.00356127
0.0035589
0.00355251
0.00350781
0.00354982
0.00354982
0.00351128
0.00351128
0.0035525
0.00350781
0.00354982
0.00354982
0.00351128
0.00351128
0.00354982
0.00351128
0.00351128
0.00355251
0.00350781
0.00354982
0.00351128
0.00351128
0.00350782
0.00350086
0.00345546
0.00349809
0.00349809
0.00345882
0.00345882
0.00350086
0.00345546
0.00349808
0.00349809
0.00345882
0.00345882
0.00349808
0.00345882
0.00345882
0.00350086
0.00345546
0.00349808
0.00345882
0.00345882
0.00345546
0.00344858
0.0034039
0.00344582
0.00344582
0.00340717
0.00340717
0.00344858
0.0034039
0.00344582
0.00344582
0.00340717
0.00340717
0.00344582
0.00340717
0.00340717
0.00344858
0.0034039
0.00344582
0.00340717
0.00340717
0.0034039
0.00339719
0.00335368
0.00339444
0.00339444
0.00335682
0.00335682
0.00339719
0.00335368
0.00339444
0.00339444
0.00335682
0.00335682
0.00339444
0.00335682
0.00335682
0.00339719
0.00335368
0.00339444
0.00335682
0.00335682
0.00335368
0.00334718
0.00330492
0.00334446
0.00334446
0.00330794
0.00330794
0.00334718
0.00330492
0.00334446
0.00334446
0.00330793
0.00330794
0.00334446
0.00330794
0.00330794
0.00334718
0.00330492
0.00334446
0.00330794
0.00330793
0.00330492
0.00329862
0.00325749
0.00329594
0.00329593
0.0032604
0.0032604
0.00329862
0.00325748
0.00329593
0.00329593
0.0032604
0.0032604
0.00329594
0.0032604
0.0032604
0.00329861
0.00325748
0.00329593
0.0032604
0.0032604
0.00325748
0.00325135
0.00321118
0.0032487
0.0032487
0.003214
0.003214
0.00325135
0.00321118
0.0032487
0.0032487
0.00321401
0.00321401
0.00324871
0.00321401
0.003214
0.00325135
0.00321118
0.00324871
0.00321401
0.003214
0.00321118
0.00320519
0.0031658
0.00320257
0.00320256
0.00316856
0.00316856
0.00320519
0.00316579
0.00320257
0.00320256
0.00316856
0.00316856
0.00320257
0.00316856
0.00316856
0.00320519
0.00316579
0.00320257
0.00316857
0.00316856
0.0031658
0.00315992
0.00312116
0.00315733
0.00315733
0.00312388
0.00312388
0.00315992
0.00312116
0.00315733
0.00315732
0.00312388
0.00312388
0.00315733
0.00312388
0.00312388
0.00315992
0.00312116
0.00315733
0.00312388
0.00312388
0.00312116
0.00311538
0.00307714
0.00311282
0.00311281
0.00307982
0.00307982
0.00311538
0.00307713
0.00311281
0.00311281
0.00307982
0.00307982
0.00311281
0.00307982
0.00307982
0.00311537
0.00307713
0.00311281
0.00307983
0.00307982
0.00307714
0.00307144
0.00303364
0.00306889
0.00306889
0.00303629
0.0030363
0.00307143
0.00303363
0.00306889
0.00306889
0.00303629
0.00303629
0.00306889
0.0030363
0.00303629
0.00307143
0.00303364
0.00306889
0.00303629
0.00303629
0.00303364
0.003028
0.00299061
0.00302548
0.00302549
0.00299324
0.00299324
0.003028
0.00299062
0.00302548
0.00302549
0.00299324
0.00299324
0.00302548
0.00299324
0.00299324
0.003028
0.00299062
0.00302548
0.00299324
0.00299324
0.00299061
0.00298505
0.00294805
0.00298255
0.00298255
0.00295062
0.00295063
0.00298506
0.00294805
0.00298255
0.00298255
0.00295063
0.00295063
0.00298255
0.00295063
0.00295063
0.00298506
0.00294805
0.00298255
0.00295063
0.00295063
0.00294805
0.00294254
0.00290589
0.00294004
0.00294004
0.00290843
0.00290842
0.00294254
0.00290589
0.00294004
0.00294004
0.00290842
0.00290842
0.00294004
0.00290842
0.00290843
0.00294254
0.00290589
0.00294004
0.00290842
0.00290842
0.00290589
0.00290043
0.00286411
0.00289794
0.00289793
0.00286661
0.00286661
0.00290042
0.00286411
0.00289793
0.00289793
0.00286661
0.00286661
0.00289794
0.00286661
0.00286661
0.00290042
0.00286411
0.00289793
0.00286661
0.00286661
0.00286411
0.00285869
0.0028227
0.00285621
0.00285621
0.00282516
0.00282516
0.00285869
0.0028227
0.00285621
0.00285621
0.00282516
0.00282516
0.00285621
0.00282516
0.00282516
0.00285869
0.0028227
0.00285621
0.00282516
0.00282516
0.0028227
0.00281733
0.00278162
0.00281486
0.00281486
0.00278406
0.00278406
0.00281733
0.00278163
0.00281486
0.00281486
0.00278406
0.00278406
0.00281486
0.00278406
0.00278406
0.00281733
0.00278163
0.00281486
0.00278406
0.00278406
0.00278163
0.00277629
0.00274087
0.00277383
0.00277383
0.00274327
0.00274327
0.00277629
0.00274087
0.00277383
0.00277383
0.00274327
0.00274327
0.00277383
0.00274327
0.00274327
0.00277629
0.00274087
0.00277383
0.00274327
0.00274327
0.00274087
0.00273557
0.00270041
0.00273312
0.00273312
0.00270277
0.00270277
0.00273557
0.0027004
0.00273312
0.00273312
0.00270277
0.00270277
0.00273312
0.00270277
0.00270277
0.00273557
0.0027004
0.00273312
0.00270277
0.00270277
0.0027004
0.00269515
0.00266021
0.00269269
0.00269269
0.00266255
0.00266255
0.00269514
0.00266021
0.00269269
0.00269269
0.00266255
0.00266255
0.00269269
0.00266255
0.00266255
0.00269514
0.00266021
0.00269269
0.00266255
0.00266255
0.00266021
0.00265499
0.00262028
0.00265254
0.00265254
0.00262259
0.00262259
0.00265499
0.00262028
0.00265254
0.00265254
0.00262259
0.00262259
0.00265254
0.00262259
0.00262259
0.00265499
0.00262028
0.00265254
0.00262259
0.00262259
0.00262028
0.00261508
0.00258058
0.00261264
0.00261264
0.00258287
0.00258287
0.00261508
0.00258058
0.00261264
0.00261264
0.00258287
0.00258287
0.00261264
0.00258287
0.00258287
0.00261508
0.00258058
0.00261264
0.00258287
0.00258287
0.00258058
0.00257541
0.00254112
0.00257298
0.00257298
0.00254339
0.00254339
0.00257541
0.00254112
0.00257298
0.00257298
0.00254339
0.00254339
0.00257298
0.00254339
0.00254339
0.00257541
0.00254112
0.00257298
0.00254339
0.00254339
0.00254112
0.00253597
0.00250187
0.00253355
0.00253355
0.00250412
0.00250413
0.00253597
0.00250187
0.00253355
0.00253355
0.00250412
0.00250413
0.00253355
0.00250413
0.00250413
0.00253597
0.00250187
0.00253355
0.00250413
0.00250413
0.00250187
0.00249675
0.00246283
0.00249434
0.00249434
0.00246507
0.00246507
0.00249675
0.00246283
0.00249434
0.00249434
0.00246507
0.00246507
0.00249434
0.00246507
0.00246507
0.00249675
0.00246283
0.00249434
0.00246507
0.00246507
0.00246283
0.00245773
0.00242399
0.00245534
0.00245534
0.00242623
0.00242623
0.00245773
0.00242399
0.00245534
0.00245534
0.00242623
0.00242623
0.00245534
0.00242623
0.00242623
0.00245773
0.00242399
0.00245534
0.00242623
0.00242623
0.00242399
0.00241891
0.00238535
0.00241654
0.00241654
0.00238758
0.00238758
0.00241891
0.00238535
0.00241654
0.00241654
0.00238758
0.00238758
0.00241655
0.00238758
0.00238758
0.00241891
0.00238535
0.00241654
0.00238758
0.00238758
0.00238535
0.00238029
0.0023469
0.00237794
0.00237794
0.00234911
0.00234911
0.00238029
0.0023469
0.00237794
0.00237794
0.00234911
0.00234911
0.00237794
0.00234911
0.00234911
0.00238029
0.0023469
0.00237794
0.00234911
0.00234911
0.0023469
0.00234185
0.00230862
0.00233953
0.00233953
0.00231084
0.00231084
0.00234185
0.00230862
0.00233953
0.00233953
0.00231084
0.00231084
0.00233953
0.00231084
0.00231084
0.00234185
0.00230862
0.00233953
0.00231084
0.00231084
0.00230862
0.0023036
0.00227053
0.00230129
0.00230129
0.00227273
0.00227273
0.0023036
0.00227053
0.00230129
0.00230129
0.00227273
0.00227273
0.0023013
0.00227273
0.00227273
0.0023036
0.00227053
0.0023013
0.00227273
0.00227273
0.00227053
0.00226552
0.0022326
0.00226323
0.00226323
0.0022348
0.0022348
0.00226552
0.0022326
0.00226323
0.00226324
0.0022348
0.0022348
0.00226323
0.0022348
0.0022348
0.00226552
0.0022326
0.00226323
0.0022348
0.0022348
0.0022326
0.00222761
0.00219484
0.00222534
0.00222534
0.00219704
0.00219704
0.00222761
0.00219484
0.00222534
0.00222535
0.00219704
0.00219704
0.00222535
0.00219704
0.00219704
0.00222761
0.00219484
0.00222535
0.00219704
0.00219704
0.00219484
0.00218986
0.00215723
0.00218762
0.00218762
0.00215943
0.00215943
0.00218986
0.00215723
0.00218762
0.00218762
0.00215943
0.00215943
0.00218762
0.00215943
0.00215943
0.00218986
0.00215723
0.00218762
0.00215943
0.00215943
0.00215723
0.00215227
0.00211977
0.00215005
0.00215005
0.00212196
0.00212197
0.00215227
0.00211978
0.00215005
0.00215005
0.00212196
0.00212197
0.00215005
0.00212197
0.00212197
0.00215227
0.00211978
0.00215005
0.00212197
0.00212197
0.00211978
0.00211483
0.00208248
0.00211262
0.00211263
0.00208466
0.00208465
0.00211483
0.00208247
0.00211262
0.00211263
0.00208466
0.00208466
0.00211263
0.00208465
0.00208465
0.00211483
0.00208247
0.00211263
0.00208465
0.00208465
0.00208247
0.00207754
0.00204531
0.00207535
0.00207535
0.00204749
0.00204749
0.00207754
0.00204531
0.00207535
0.00207535
0.00204749
0.00204749
0.00207535
0.00204749
0.00204749
0.00207754
0.00204531
0.00207535
0.00204749
0.00204749
0.00204531
0.00204039
0.00200829
0.00203822
0.00203822
0.00201047
0.00201047
0.00204039
0.00200829
0.00203822
0.00203822
0.00201046
0.00201047
0.00203822
0.00201047
0.00201047
0.00204039
0.00200829
0.00203822
0.00201047
0.00201047
0.00200829
0.00200338
0.00197139
0.00200123
0.00200123
0.00197356
0.00197354
0.00200338
0.00197139
0.00200122
0.00200123
0.00197356
0.00197355
0.00200123
0.00197355
0.00197355
0.00200338
0.00197139
0.00200123
0.00197355
0.00197355
0.00197138
0.00196649
0.00193462
0.00196435
0.00196434
0.00193677
0.00193678
0.00196649
0.00193463
0.00196435
0.00196434
0.00193677
0.00193678
0.00196434
0.00193678
0.00193678
0.0019665
0.00193462
0.00196434
0.00193678
0.00193678
0.00193463
0.00192973
0.00189796
0.00192759
0.0019276
0.00190011
0.00190011
0.00192974
0.00189795
0.00192759
0.0019276
0.00190011
0.00190011
0.0019276
0.00190012
0.00190011
0.00192973
0.00189795
0.0019276
0.00190012
0.00190011
0.00189795
0.00189309
0.00186147
0.00189097
0.00189096
0.0018636
0.00186357
0.00189307
0.00186146
0.00189097
0.00189096
0.0018636
0.00186358
0.00189096
0.00186356
0.00186357
0.00189307
0.00186147
0.00189096
0.00186358
0.00186358
0.00186147
0.00185661
0.00182504
0.00185449
0.00185448
0.00182721
0.00182725
0.00185661
0.00182508
0.00185449
0.00185449
0.0018272
0.00182725
0.00185448
0.00182726
0.00182724
0.00185661
0.00182506
0.00185449
0.00182725
0.00182723
0.00182507
0.00182017
0.0017884
0.00181808
0.00181812
0.00179054
0.00179052
0.0018202
0.00178837
0.00181807
0.00181814
0.00179056
0.00179055
0.00181811
0.00179052
0.00179052
0.0018202
0.00178842
0.0018181
0.00179055
0.00179052
0.00178837
0.0017835
0.00175216
0.00178137
0.00178132
0.00175418
0.00175411
0.00178346
0.0017521
0.00178138
0.00178132
0.00175414
0.00175396
0.00178133
0.00175409
0.00175411
0.00178349
0.00175195
0.00178132
0.00175394
0.00175409
0.0017521
0.00174741
0.00171749
0.0017453
0.00174526
0.0017194
0.00171959
0.00174738
0.00171771
0.00174525
0.00174512
0.00171943
0.00171986
0.00174525
0.00171962
0.00171961
0.00174725
0.00171802
0.00174525
0.00171991
0.00171968
0.00171776
0.00171292
0.00168188
0.00171089
0.00171109
0.00168436
0.00168416
0.00171312
0.00168175
0.00171096
0.00171144
0.00168437
0.00168394
0.00171114
0.00168417
0.00168417
0.00171346
0.00168155
0.0017112
0.00168389
0.00168411
0.00168174
0.00167691
0.00164381
0.00167511
0.0016749
0.00164634
0.00164625
0.00167682
0.00164373
0.00167507
0.00167459
0.00164624
0.00164592
0.00167488
0.00164614
0.00164596
0.00167661
0.00164342
0.00167481
0.00164582
0.00164586
0.00164344
0.00163852
0.00160598
0.0016364
0.00163642
0.00160743
0.00160784
0.00163841
0.00160632
0.00163635
0.00163626
0.00160754
0.00160854
0.00163608
0.001608
0.00160833
0.00163821
0.00160682
0.00163605
0.00160869
0.00160849
0.00160674
0.0016013
0.00157103
0.00159868
0.00159893
0.00157268
0.00157238
0.00160151
0.00157071
0.00159879
0.00159953
0.00157274
0.00157275
0.0015995
0.0015724
0.00157296
0.00160191
0.00157108
0.00159962
0.00157284
0.00157307
0.00157125
0.00156647
0.00153822
0.00156422
0.00156392
0.00154024
0.00154039
0.00156621
0.00153845
0.00156429
0.00156417
0.00154001
0.0015392
0.00156434
0.00154022
0.00153916
0.00156649
0.00153695
0.00156444
0.00153891
0.00153887
0.00153686
0.00153373
0.00150216
0.00153208
0.00153234
0.00150469
0.00150459
0.00153396
0.00150204
0.00153177
0.00153081
0.00150459
0.0015048
0.00153069
0.00150442
0.00150458
0.0015324
0.0015024
0.00153026
0.00150471
0.00150455
0.00150223
0.00149718
0.00146429
0.0014953
0.00149513
0.00146644
0.00146633
0.00149705
0.00146421
0.00149529
0.0014958
0.00146684
0.0014678
0.00149564
0.00146671
0.00146803
0.00149759
0.00146569
0.00149579
0.00146818
0.00146842
0.00146588
0.00145927
0.00143044
0.00145708
0.00145711
0.00143196
0.00143223
0.0014593
0.00143063
0.00145742
0.00145851
0.0014319
0.00143194
0.00145869
0.00143226
0.00143152
0.00146073
0.00143017
0.00145905
0.00143192
0.0014315
0.0014298
0.00142594
0.00139615
0.00142377
0.00142405
0.00139821
0.00139799
0.00142605
0.00139597
0.00142367
0.00142339
0.00139799
0.00139738
0.00142279
0.00139775
0.00139757
0.0014255
0.00139515
0.00142267
0.00139716
0.00139746
0.00139563
0.00139131
0.00135911
0.00138927
0.00138896
0.00136164
0.00136158
0.00139116
0.00135927
0.00138907
0.00138833
0.00136149
0.00136123
0.00138905
0.00136158
0.00136165
0.00139031
0.00135899
0.00138886
0.00136122
0.00136147
0.0013592
0.00135419
0.0013232
0.00135242
0.00135258
0.00132537
0.00132567
0.0013544
0.0013234
0.00135232
0.00135228
0.00132531
0.00132518
0.00135234
0.00132565
0.0013251
0.00135412
0.00132299
0.00135223
0.00132511
0.00132501
0.00132298
0.00131828
0.00128699
0.00131618
0.00131662
0.00128858
0.00128884
0.00131853
0.00128721
0.00131612
0.00131619
0.00128881
0.0012899
0.00131638
0.00128941
0.00129032
0.0013182
0.00128821
0.00131633
0.00129026
0.00129052
0.00128845
0.00128236
0.00125295
0.00127995
0.00127988
0.00125466
0.00125371
0.00128238
0.00125189
0.0012803
0.00128117
0.00125502
0.00125514
0.0012814
0.00125362
0.00125406
0.00128349
0.00125319
0.00128168
0.00125509
0.00125448
0.00125212
0.00124829
0.00121707
0.00124619
0.00124526
0.00121965
0.00121955
0.00124725
0.00121719
0.00124649
0.00124632
0.00121939
0.00121853
0.00124488
0.00121911
0.00121827
0.00124831
0.00121605
0.00124525
0.00121803
0.00121796
0.0012161
0.001212
0.0011802
0.00121026
0.00121071
0.00118249
0.0011836
0.0012124
0.00118135
0.00120981
0.00120926
0.00118206
0.00118206
0.00120958
0.00118379
0.00118323
0.00121112
0.00118005
0.00120914
0.00118228
0.0011828
0.00118089
0.00117537
0.00114539
0.00117349
0.00117439
0.0011472
0.00114703
0.00117639
0.00114515
0.00117316
0.00117328
0.00114733
0.00114756
0.0011743
0.0011472
0.00114763
0.00117531
0.00114574
0.00117398
0.0011477
0.00114774
0.00114568
0.00114069
0.00111053
0.00113856
0.00113814
0.0011124
0.00111183
0.00114037
0.00110993
0.00113879
0.00113896
0.00111267
0.00111268
0.00113876
0.00111179
0.00111225
0.00114106
0.0011107
0.00113896
0.00111263
0.00111252
0.0011104
0.00110574
0.00107461
0.00110358
0.0011031
0.00107682
0.0010769
0.00110519
0.0010748
0.00110379
0.00110376
0.00107674
0.00107669
0.00110345
0.00107685
0.00107676
0.00110586
0.00107454
0.00110367
0.00107668
0.00107674
0.0010746
0.00106977
0.00103927
0.00106787
0.00106815
0.00104137
0.00104172
0.00107003
0.00103959
0.00106762
0.00106773
0.00104122
0.00104124
0.00106785
0.00104174
0.00104139
0.00106969
0.00103917
0.0010677
0.00104125
0.00104123
0.00103929
0.00103452
0.0010042
0.00103259
0.00103284
0.00100621
0.00100611
0.00103479
0.0010041
0.00103248
0.0010325
0.00100624
0.00100628
0.00103262
0.00100615
0.00100625
0.00103443
0.00100428
0.0010325
0.00100628
0.00100628
0.00100423
0.000999419
0.00096888
0.000997387
0.000997265
0.000970852
0.000970721
0.00099931
0.000968685
0.000997453
0.000997504
0.000970951
0.000971039
0.000997424
0.000970676
0.000970739
0.000999527
0.000968988
0.000997494
0.00097102
0.000970866
0.00096874
0.000964074
0.000933336
0.000962001
0.000961883
0.000935438
0.000935389
0.000963881
0.000933324
0.000962077
0.000962148
0.000935395
0.000935239
0.000961832
0.000935331
0.000935208
0.000964145
0.000933123
0.000961917
0.000935163
0.00093515
0.000933136
0.00092851
0.000897815
0.000926558
0.000926546
0.000899913
0.000899957
0.000928526
0.000897923
0.000926486
0.00092631
0.000899853
0.000899767
0.000926366
0.000899987
0.000899961
0.000928298
0.000897775
0.000926289
0.000899793
0.0008999
0.000897916
0.000893005
0.00086242
0.000891024
0.000891081
0.000864426
0.000864511
0.000893123
0.000862523
0.00089099
0.000890972
0.000864454
0.000864589
0.000891174
0.000864617
0.000864778
0.00089301
0.000862617
0.00089113
0.000864685
0.000864798
0.000862758
0.000857638
0.00082718
0.000855606
0.000855676
0.000829205
0.000829193
0.000857722
0.000827124
0.00085564
0.000855774
0.000829222
0.00082924
0.000855934
0.000829168
0.000829159
0.000857824
0.000827158
0.000855974
0.00082922
0.00082918
0.000827087
0.000822386
0.000791775
0.000820392
0.000820351
0.000793833
0.000793768
0.000822316
0.000791696
0.000820401
0.000820378
0.000793834
0.000793786
0.000820256
0.000793715
0.000793661
0.000822341
0.000791716
0.000820266
0.000793731
0.000793661
0.000791629
0.000786948
0.00075624
0.000784942
0.000784893
0.000758268
0.000758278
0.000786883
0.000756256
0.000784946
0.000784917
0.000758275
0.000758303
0.000784815
0.000758284
0.000758284
0.000786905
0.000756273
0.000784817
0.00075831
0.00075829
0.000756271
0.000751421
0.000720739
0.000749394
0.000749421
0.000722794
0.000722837
0.000751448
0.000720785
0.000749395
0.000749428
0.000722773
0.000722773
0.000749437
0.000722851
0.000722829
0.000751455
0.000720724
0.000749439
0.000722784
0.000722807
0.000720758
0.000715914
0.000685177
0.000713915
0.000713939
0.000687233
0.000687198
0.000715945
0.000685147
0.000713895
0.000713879
0.000687237
0.000687207
0.000713929
0.000687197
0.00068723
0.000715893
0.000685161
0.00071391
0.000687206
0.000687235
0.000685174
0.000680343
0.000649607
0.000678335
0.000678298
0.000651643
0.000651643
0.000680316
0.000649605
0.000678343
0.00067832
0.000651647
0.000651654
0.000678334
0.00065164
0.000651639
0.000680335
0.000649613
0.000678342
0.000651652
0.000651642
0.000649601
0.000644774
0.000614029
0.000642746
0.000642761
0.000616058
0.000616094
0.000644777
0.00061406
0.000642746
0.000642764
0.000616057
0.000616088
0.000642738
0.000616094
0.00061606
0.000644781
0.000614052
0.000642738
0.000616088
0.000616059
0.000614032
0.000609198
0.000578451
0.000607167
0.000607197
0.000580503
0.000580474
0.000609224
0.000578424
0.000607166
0.000607192
0.000580501
0.000580464
0.000607174
0.000580475
0.000580508
0.000609216
0.000578419
0.000607173
0.000580464
0.000580506
0.000578453
0.000573612
0.000542805
0.000571609
0.000571564
0.000544859
0.000544831
0.000573585
0.000542782
0.000571607
0.000571558
0.000544869
0.000544866
0.000571604
0.000544828
0.000544844
0.000573582
0.000542819
0.000571602
0.000544862
0.000544853
0.000542792
0.000537954
0.000507121
0.000535924
0.000535919
0.000509156
0.000509189
0.000537937
0.000507147
0.00053594
0.000535966
0.000509158
0.000509211
0.000535921
0.000509194
0.000509173
0.000537979
0.000507156
0.000535934
0.000509217
0.000509178
0.000507139
0.000502275
0.000471451
0.000500242
0.000500278
0.000473503
0.000473524
0.000502301
0.000471488
0.000500237
0.00050027
0.00047348
0.000473433
0.000500259
0.000473521
0.000473491
0.000502296
0.000471394
0.000500255
0.00047343
0.000473466
0.000471437
0.000466598
0.000435716
0.000464583
0.000464595
0.000437767
0.000437752
0.000466635
0.000435698
0.000464559
0.000464504
0.000437771
0.000437754
0.000464564
0.000437756
0.000437779
0.000466544
0.000435719
0.000464538
0.000437754
0.00043778
0.000435735
0.000430852
0.000399912
0.000428813
0.000428801
0.000401953
0.000401949
0.000430835
0.000399894
0.000428828
0.000428843
0.000401979
0.000402046
0.000428847
0.000401957
0.000401984
0.000430874
0.000399984
0.000428861
0.000402057
0.000402014
0.000399933
0.000395045
0.000364088
0.000393003
0.000392993
0.000366142
0.000366105
0.000395023
0.000364054
0.000393025
0.000393072
0.000366142
0.000366107
0.000393012
0.000366087
0.000366079
0.000395101
0.000364041
0.000393035
0.000366088
0.000366078
0.000364015
0.000359215
0.000328261
0.000357188
0.00035716
0.000330305
0.000330343
0.000359194
0.000328302
0.000357173
0.000357124
0.000330275
0.000330243
0.00035711
0.000330335
0.000330278
0.000359161
0.000328208
0.0003571
0.000330235
0.000330247
0.000328245
0.000323393
0.000292365
0.00032134
0.000321385
0.000294416
0.000294416
0.000323429
0.000292365
0.000321318
0.00032131
0.000294443
0.000294499
0.000321345
0.000294449
0.00029452
0.000323352
0.00029246
0.000321321
0.000294526
0.000294543
0.000292471
0.000287486
0.000256429
0.000285443
0.000285423
0.00025852
0.000258535
0.000287482
0.000256444
0.000285473
0.000285522
0.000258494
0.000258454
0.000285539
0.000258518
0.00025846
0.000287577
0.000256364
0.00028557
0.000258436
0.000258433
0.000256364
0.000251537
0.000220352
0.000249532
0.000249549
0.000222402
0.00022236
0.000251547
0.000220292
0.000249497
0.000249431
0.000222434
0.000222453
0.000249435
0.000222358
0.000222413
0.000251459
0.000220421
0.0002494
0.00022246
0.000222448
0.000220375
0.00021543
0.000184362
0.000213328
0.00021326
0.000186352
0.000186415
0.000215365
0.000184386
0.00021339
0.000213492
0.000186371
0.000186477
0.000213426
0.000186434
0.000186428
0.00021555
0.000184428
0.000213494
0.000186496
0.00018644
0.00018442
0.000179519
0.000148638
0.000177461
0.000177541
0.000150767
0.000150709
0.00017954
0.000148592
0.000177428
0.000177444
0.000150677
0.0001504
0.000177419
0.000150608
0.000150422
0.000179505
0.000148319
0.00017738
0.000150309
0.000150339
0.000148313
0.000143705
0.000112045
0.00014172
0.000141582
0.000114095
0.000114109
0.000143648
0.00011208
0.000141673
0.000141422
0.000114185
0.000114396
0.000141458
0.000114221
0.000114471
0.000143465
0.000112374
0.000141422
0.000114504
0.000114543
0.000112416
0.000107141
7.63936e-05
0.000104998
0.000105073
7.83881e-05
7.85335e-05
0.000107181
7.64748e-05
0.000105088
0.000105375
7.83622e-05
7.84367e-05
0.000105447
7.85437e-05
7.84595e-05
0.00010747
7.63573e-05
0.000105528
7.84519e-05
7.84324e-05
7.63936e-05
7.16244e-05
4.02219e-05
6.95774e-05
6.96324e-05
4.25085e-05
4.23345e-05
7.16385e-05
4.00288e-05
6.95272e-05
6.94555e-05
4.24858e-05
4.22515e-05
6.94438e-05
4.22216e-05
4.21391e-05
7.15011e-05
3.99761e-05
6.93864e-05
4.21332e-05
4.21177e-05
3.98646e-05
3.53112e-05
5.09948e-06
3.33133e-05
3.31327e-05
6.83319e-06
6.80305e-06
3.5164e-05
5.17523e-06
3.33092e-05
3.31374e-05
6.88695e-06
6.90775e-06
3.30291e-05
6.93746e-06
6.91478e-06
3.51562e-05
5.25538e-06
3.30244e-05
7.03369e-06
6.96386e-06
5.23909e-06
3.8691e-06
5.25229e-06
5.26729e-06
3.95823e-06
5.28528e-06
5.3482e-06
9.35829e-06
9.42492e-06
9.34805e-06
5.35597e-06
4.02093e-06
5.38579e-06
0.00362573
0.00363597
0.00363046
0.00363046
0.00365306
0.00363997
0.00366843
0.00363388
0.00365306
0.00363997
0.00363388
0.00366843
0.00364449
0.00367215
0.00367215
0.00358014
0.00359982
0.00360895
0.00357227
0.00357351
0.00357581
0.00358012
0.00359984
0.00360894
0.00357226
0.00360753
0.00360753
0.00360753
0.00356107
0.00356107
0.00356107
0.00356107
0.00357761
0.00360402
0.00360739
0.00358514
0.00360684
0.0035765
0.00358607
0.00357358
0.00357579
0.00357761
0.00360739
0.00360403
0.00358514
0.00360684
0.00358607
0.00357649
0.00360988
0.00360988
0.00358043
0.00357621
0.00357621
0.00353492
0.00355397
0.00355535
0.00353345
0.00355286
0.003533
0.00353492
0.00355398
0.00355535
0.00353345
0.00354967
0.00354967
0.00354967
0.00351136
0.00351136
0.00351136
0.00351135
0.00353354
0.00355408
0.00354955
0.00353746
0.0035529
0.00353406
0.00353728
0.00355287
0.003533
0.00353354
0.00354955
0.00355408
0.00353746
0.0035529
0.00353728
0.00353406
0.00355507
0.00355507
0.00353381
0.00353437
0.00353437
0.00348251
0.00350133
0.00350241
0.00348148
0.00350097
0.0034812
0.00348251
0.00350133
0.00350241
0.00348148
0.00349808
0.00349808
0.00349808
0.0034588
0.0034588
0.0034588
0.0034588
0.0034816
0.00350173
0.00349797
0.00348495
0.00350116
0.00348197
0.00348484
0.00350097
0.0034812
0.0034816
0.00349797
0.00350173
0.00348495
0.00350116
0.00348484
0.00348197
0.00350197
0.00350197
0.00348158
0.00348203
0.00348203
0.00343001
0.00344866
0.00344952
0.00342924
0.00344845
0.00342906
0.00343001
0.00344866
0.00344952
0.00342924
0.00344581
0.00344581
0.00344581
0.00340716
0.00340716
0.00340716
0.00340716
0.0034295
0.00344907
0.00344577
0.00343287
0.00344878
0.00342968
0.00343283
0.00344845
0.00342906
0.0034295
0.00344577
0.00344907
0.00343287
0.00344878
0.00343283
0.00342968
0.0034491
0.0034491
0.00342954
0.00342962
0.00342962
0.0033788
0.00339716
0.00339779
0.00337824
0.00339701
0.00337811
0.0033788
0.00339716
0.00339779
0.00337824
0.00339443
0.00339443
0.00339443
0.00335681
0.00335681
0.00335681
0.00335681
0.00337853
0.00339751
0.00339441
0.00338181
0.00339733
0.00337864
0.00338178
0.00339701
0.00337811
0.00337853
0.00339441
0.00339751
0.0033818
0.00339734
0.00338178
0.00337864
0.00339749
0.00339749
0.00337861
0.00337854
0.00337854
0.00332915
0.0033471
0.00334756
0.00332875
0.00334698
0.00332864
0.00332915
0.0033471
0.00334755
0.00332875
0.00334445
0.00334445
0.00334445
0.00330792
0.00330792
0.00330792
0.00330792