/*--------------------------------*- C++ -*----------------------------------*\
| =========                 |                                                 |
| \\      /  F ield         | OpenFOAM: The Open Source CFD Toolbox           |
|  \\    /   O peration     | Version:  2312                                  |
|   \\  /    A nd           | Website:  www.openfoam.com                      |
|    \\/     M anipulation  |                                                 |
\*---------------------------------------------------------------------------*/
FoamFile
{
    version     2.0;
    format      ascii;
    arch        "LSB;label=32;scalar=64";
    class       volScalarField;
    location    "350";
    object      epsilon;
}
// * * * * * * * * * * * * * * * * * * * * * * * * * * * * * * * * * * * * * //

dimensions      [0 2 -3 0 0 0 0];

internalField   nonuniform List<scalar> 
172512
(
6.71808e-07
1.2018e-06
1.20183e-06
1.43475e-06
1.4322e-06
1.20079e-06
1.20066e-06
1.43215e-06
1.20042e-06
1.20049e-06
1.20067e-06
1.2008e-06
1.43215e-06
1.20068e-06
1.20059e-06
1.4323e-06
1.43465e-06
1.20195e-06
1.20185e-06
1.43462e-06
1.20159e-06
1.20175e-06
1.20205e-06
1.43464e-06
1.20184e-06
9.58503e-06
4.25363e-06
9.58677e-06
6.7014e-07
6.70201e-07
6.70093e-07
6.70225e-07
1.91155e-05
1.19853e-06
3.66249e-06
4.25814e-06
9.59171e-06
4.25696e-06
9.59635e-06
1.91243e-05
1.91335e-05
4.25795e-06
9.5931e-06
4.25689e-06
9.59775e-06
6.71917e-07
6.71872e-07
6.71984e-07
2.31445e-06
3.6653e-06
9.49614e-07
1.20278e-06
2.31366e-06
3.66614e-06
9.50857e-07
1.91257e-05
1.91346e-05
2.31497e-06
9.49691e-07
3.66566e-06
1.20287e-06
2.31429e-06
9.5093e-07
3.66658e-06
5.66882e-06
5.67045e-06
1.43439e-06
5.67016e-06
5.67183e-06
1.91124e-05
1.91159e-05
1.42998e-06
5.66503e-06
5.66671e-06
1.91223e-05
1.9113e-05
1.91258e-05
1.91165e-05
1.43254e-06
5.66784e-06
5.66955e-06
5.66653e-06
5.66819e-06
1.19853e-06
3.66242e-06
4.25487e-06
9.59071e-06
9.58613e-06
4.25606e-06
4.25475e-06
9.59091e-06
9.58587e-06
4.25594e-06
2.31237e-06
1.19973e-06
3.66453e-06
9.48319e-07
3.66365e-06
9.47058e-07
2.31334e-06
2.31227e-06
1.19955e-06
3.6646e-06
9.48268e-07
3.66369e-06
9.47002e-07
2.31324e-06
1.91239e-05
1.91144e-05
1.43245e-06
5.66874e-06
5.66754e-06
5.66745e-06
1.91231e-05
2.31123e-06
1.19814e-06
3.66275e-06
9.45364e-07
4.25367e-06
9.58588e-06
2.31123e-06
1.19832e-06
9.45369e-07
3.66266e-06
4.25473e-06
9.59248e-06
9.58745e-06
4.25582e-06
2.31195e-06
1.19936e-06
3.66487e-06
9.47947e-07
3.66396e-06
9.46697e-07
2.31293e-06
4.25476e-06
9.59145e-06
9.58693e-06
4.25585e-06
2.31195e-06
1.19946e-06
9.47962e-07
3.66472e-06
9.46714e-07
3.66379e-06
2.31293e-06
3.66423e-06
9.48304e-07
2.31286e-06
9.59103e-06
4.25556e-06
9.4826e-07
3.66438e-06
2.31289e-06
9.59077e-06
4.25564e-06
1.42997e-06
5.66653e-06
5.6652e-06
1.91132e-05
1.91253e-05
1.91161e-05
1.43242e-06
5.66924e-06
5.6679e-06
5.66785e-06
5.66649e-06
1.9123e-05
1.91137e-05
9.5861e-06
2.31242e-06
1.19957e-06
9.48362e-07
3.66457e-06
9.47053e-07
3.66362e-06
2.31331e-06
2.31247e-06
1.19958e-06
9.48259e-07
3.66483e-06
9.47019e-07
3.66391e-06
2.31333e-06
4.25518e-06
9.59166e-06
9.58675e-06
4.25615e-06
4.25509e-06
9.59172e-06
9.58716e-06
4.2561e-06
1.43261e-06
5.66752e-06
5.66914e-06
5.66771e-06
1.91231e-05
1.9125e-05
1.91156e-05
1.91228e-05
1.91318e-05
1.91263e-05
1.91352e-05
5.66918e-06
5.67084e-06
1.43428e-06
5.67046e-06
5.67213e-06
1.91321e-05
1.91356e-05
1.43671e-06
5.67178e-06
5.67342e-06
4.25809e-06
9.59155e-06
4.25692e-06
9.59621e-06
2.31519e-06
3.66563e-06
9.4968e-07
1.20294e-06
2.31419e-06
3.6665e-06
9.50859e-07
2.31507e-06
3.66575e-06
9.49639e-07
1.20281e-06
2.31406e-06
3.66655e-06
9.50809e-07
4.25905e-06
9.59694e-06
4.25903e-06
9.59713e-06
2.31588e-06
1.20407e-06
3.66759e-06
9.52163e-07
2.31582e-06
1.20393e-06
3.66768e-06
9.52118e-07
5.6702e-06
5.66882e-06
1.43422e-06
5.67138e-06
5.67005e-06
1.91236e-05
1.91327e-05
1.91338e-05
1.43663e-06
5.6728e-06
5.67131e-06
1.91331e-05
2.31477e-06
3.66595e-06
9.49383e-07
1.20259e-06
2.31381e-06
3.66684e-06
9.50571e-07
4.25793e-06
9.59247e-06
4.25688e-06
9.59681e-06
2.31475e-06
9.49407e-07
3.66584e-06
1.20273e-06
2.31381e-06
9.5059e-07
3.66671e-06
4.25891e-06
9.59844e-06
2.31554e-06
1.20373e-06
3.66791e-06
9.51894e-07
4.25891e-06
9.59774e-06
2.31551e-06
1.20388e-06
9.51921e-07
3.66778e-06
4.2576e-06
9.59203e-06
4.25661e-06
9.59665e-06
2.31461e-06
9.49699e-07
3.66551e-06
1.20301e-06
2.31375e-06
9.50866e-07
3.66637e-06
4.25773e-06
9.59181e-06
4.25664e-06
9.59623e-06
2.31524e-06
1.20387e-06
3.66723e-06
9.52106e-07
4.25861e-06
9.59727e-06
2.31538e-06
1.20413e-06
9.5218e-07
3.66745e-06
4.25864e-06
9.59717e-06
5.67053e-06
5.66921e-06
1.43427e-06
5.67184e-06
5.67051e-06
1.91233e-05
1.91323e-05
1.91349e-05
1.43669e-06
5.67306e-06
5.6718e-06
1.91326e-05
2.31489e-06
9.49705e-07
3.66597e-06
1.20279e-06
2.31414e-06
9.50871e-07
3.66684e-06
4.25822e-06
9.59228e-06
4.25724e-06
9.59703e-06
4.25816e-06
9.59275e-06
4.25723e-06
9.59712e-06
2.31576e-06
1.20398e-06
9.52212e-07
3.66768e-06
2.31569e-06
1.20393e-06
9.52191e-07
3.66792e-06
4.25924e-06
9.59758e-06
4.25923e-06
9.59805e-06
1.91236e-05
1.91327e-05
1.91255e-05
1.91346e-05
1.43682e-06
5.67142e-06
5.67311e-06
1.91331e-05
1.9135e-05
2.27847e-05
7.25767e-06
9.58317e-06
7.2578e-06
2.27913e-05
1.26705e-05
4.25372e-06
4.89857e-06
1.12604e-05
4.89879e-06
1.12578e-05
1.26728e-05
2.27847e-05
7.25779e-06
9.58459e-06
7.25793e-06
2.27913e-05
1.91111e-05
1.26834e-05
4.25801e-06
1.12722e-05
4.90359e-06
1.12696e-05
4.90348e-06
1.26864e-05
2.28082e-05
7.26227e-06
9.59355e-06
2.28017e-05
7.26214e-06
1.26832e-05
4.25711e-06
1.12665e-05
4.90235e-06
1.26798e-05
1.12692e-05
4.90248e-06
2.28072e-05
7.26362e-06
9.59422e-06
7.26376e-06
2.28136e-05
1.91288e-05
1.91291e-05
1.26842e-05
4.25794e-06
4.90323e-06
1.1273e-05
4.90321e-06
1.12704e-05
1.26868e-05
2.28082e-05
7.2624e-06
9.59517e-06
2.28017e-05
7.26225e-06
1.26834e-05
4.25685e-06
4.90218e-06
1.12673e-05
1.26809e-05
4.90206e-06
1.12699e-05
2.28072e-05
7.26369e-06
9.59601e-06
7.26386e-06
2.28137e-05
1.913e-05
1.91304e-05
9.98778e-06
2.24383e-05
2.24371e-05
2.24325e-05
2.24314e-05
9.98751e-06
4.72351e-06
2.99301e-06
9.95822e-06
5.66885e-06
4.72369e-06
2.99296e-06
9.96074e-06
4.72907e-06
2.99402e-06
9.96288e-06
5.6705e-06
4.72923e-06
2.99397e-06
9.96534e-06
9.98553e-06
2.24274e-05
2.24263e-05
9.98581e-06
2.24333e-05
2.24321e-05
4.72478e-06
9.96352e-06
5.67013e-06
2.99379e-06
2.99387e-06
9.96108e-06
4.72458e-06
4.73032e-06
9.96811e-06
5.67179e-06
2.99482e-06
2.99488e-06
9.9657e-06
4.73015e-06
1.91078e-05
1.91113e-05
9.9803e-06
2.24194e-05
2.24183e-05
2.24134e-05
2.24124e-05
9.9801e-06
4.72002e-06
9.95223e-06
5.66501e-06
2.99023e-06
9.95028e-06
4.71984e-06
2.99027e-06
4.72564e-06
9.95741e-06
5.66664e-06
2.99122e-06
9.95516e-06
4.72549e-06
2.99125e-06
1.91179e-05
1.91175e-05
1.91214e-05
1.9121e-05
9.98219e-06
2.24186e-05
2.24177e-05
9.98242e-06
2.24246e-05
2.24236e-05
4.72234e-06
2.99205e-06
5.66785e-06
9.95809e-06
9.95623e-06
2.99212e-06
4.72216e-06
4.72798e-06
2.99305e-06
5.66956e-06
9.96311e-06
9.96124e-06
2.99312e-06
4.72783e-06
4.72101e-06
9.95332e-06
2.99128e-06
5.66654e-06
4.7212e-06
9.95517e-06
2.99122e-06
4.72667e-06
9.95831e-06
2.99227e-06
5.66823e-06
4.72683e-06
9.96021e-06
2.99222e-06
9.98453e-06
2.24298e-05
2.24287e-05
2.24238e-05
2.24229e-05
9.98428e-06
1.26761e-05
1.126e-05
4.90007e-06
4.25501e-06
1.2673e-05
1.12628e-05
4.90018e-06
2.27961e-05
9.58895e-06
7.26067e-06
2.28027e-05
7.26081e-06
2.2797e-05
7.25934e-06
9.58789e-06
2.27904e-05
7.2592e-06
1.26762e-05
4.25595e-06
1.1266e-05
4.90135e-06
1.26797e-05
1.12633e-05
4.90123e-06
1.26758e-05
1.12599e-05
4.89977e-06
4.25488e-06
1.26734e-05
1.12627e-05
4.89971e-06
2.27954e-05
9.58874e-06
7.25928e-06
7.2594e-06
2.2802e-05
2.27963e-05
7.25787e-06
9.58809e-06
2.27897e-05
7.25777e-06
1.2677e-05
4.25586e-06
1.1266e-05
4.90089e-06
1.12632e-05
4.90101e-06
1.26793e-05
1.91194e-05
1.9119e-05
4.72762e-06
2.99279e-06
5.66885e-06
9.96221e-06
2.99286e-06
9.96033e-06
4.72745e-06
4.72192e-06
2.99178e-06
5.66756e-06
9.95809e-06
9.95621e-06
2.99184e-06
4.72174e-06
2.99195e-06
5.66737e-06
2.99191e-06
9.9837e-06
2.24284e-05
2.24295e-05
2.24225e-05
2.24233e-05
9.98335e-06
1.91184e-05
1.26706e-05
4.25378e-06
1.126e-05
4.89878e-06
1.12579e-05
4.89894e-06
1.26729e-05
2.27846e-05
7.25621e-06
9.58406e-06
7.25632e-06
2.27912e-05
1.26764e-05
4.89989e-06
1.12609e-05
4.25472e-06
1.2674e-05
4.89977e-06
1.12637e-05
2.27962e-05
9.59032e-06
7.26079e-06
2.28027e-05
7.26094e-06
2.2797e-05
7.25946e-06
9.58967e-06
2.27905e-05
7.25931e-06
1.26775e-05
4.25583e-06
4.90094e-06
1.12668e-05
1.26799e-05
4.90105e-06
1.12641e-05
1.26764e-05
1.12612e-05
4.89996e-06
4.25474e-06
1.26741e-05
1.12632e-05
4.89989e-06
2.27959e-05
9.58972e-06
7.25915e-06
7.25929e-06
2.28023e-05
2.27968e-05
7.25783e-06
9.58869e-06
2.27903e-05
7.2577e-06
1.26776e-05
4.25587e-06
1.12665e-05
4.90103e-06
1.12644e-05
4.90112e-06
1.26798e-05
2.27939e-05
9.58924e-06
7.25973e-06
7.26011e-06
2.28007e-05
1.26763e-05
4.25557e-06
4.90056e-06
1.12662e-05
4.90071e-06
1.12639e-05
1.26789e-05
2.27948e-05
9.58901e-06
7.25826e-06
7.2584e-06
2.28013e-05
1.26761e-05
4.2556e-06
1.12658e-05
4.90063e-06
1.12637e-05
4.90053e-06
1.26796e-05
9.98004e-06
2.24177e-05
2.24182e-05
2.24118e-05
2.24123e-05
9.97978e-06
4.72579e-06
9.95649e-06
5.6665e-06
2.99137e-06
9.95461e-06
2.99137e-06
4.72568e-06
4.7199e-06
9.95227e-06
5.66512e-06
2.99023e-06
2.99027e-06
9.94972e-06
4.71982e-06
1.91087e-05
1.91209e-05
1.91205e-05
9.98185e-06
2.2417e-05
2.24174e-05
9.98215e-06
2.24228e-05
2.24233e-05
4.72818e-06
2.99302e-06
5.66921e-06
9.96229e-06
2.99304e-06
9.96037e-06
4.72806e-06
4.72233e-06
2.99198e-06
5.66786e-06
9.95802e-06
9.95556e-06
2.99202e-06
4.72223e-06
4.72693e-06
9.95752e-06
2.99219e-06
5.66788e-06
2.99216e-06
4.7271e-06
9.95936e-06
4.72109e-06
9.95266e-06
2.99112e-06
5.66655e-06
4.72123e-06
9.95517e-06
2.99109e-06
9.98417e-06
2.24278e-05
2.24283e-05
2.2422e-05
2.24225e-05
9.98385e-06
1.91186e-05
1.91181e-05
9.5839e-06
1.26759e-05
4.90022e-06
1.12607e-05
4.25503e-06
1.26732e-05
4.90016e-06
1.12628e-05
2.27948e-05
9.58955e-06
7.26035e-06
7.26047e-06
2.28012e-05
2.27957e-05
7.259e-06
9.58892e-06
2.27892e-05
7.25889e-06
1.26766e-05
4.25629e-06
4.90132e-06
1.12659e-05
4.90141e-06
1.12639e-05
1.26789e-05
1.2676e-05
4.89999e-06
1.12604e-05
4.25503e-06
1.26736e-05
4.89992e-06
1.12629e-05
2.27953e-05
9.58997e-06
7.25934e-06
7.25951e-06
2.28018e-05
2.27962e-05
7.25804e-06
9.58893e-06
2.27897e-05
7.25787e-06
1.2677e-05
4.25617e-06
4.90104e-06
1.12662e-05
4.90111e-06
1.12634e-05
1.26795e-05
9.98149e-06
2.24231e-05
2.24219e-05
4.72256e-06
2.99211e-06
5.66748e-06
9.95779e-06
4.72245e-06
2.99216e-06
9.95559e-06
4.7281e-06
2.99313e-06
5.66909e-06
9.9625e-06
4.72801e-06
2.99318e-06
9.96004e-06
4.72128e-06
5.66609e-06
2.99124e-06
9.95471e-06
4.72684e-06
2.99232e-06
5.66776e-06
2.99229e-06
9.95963e-06
9.98382e-06
2.24282e-05
2.24271e-05
9.98355e-06
2.24223e-05
2.24212e-05
1.91187e-05
1.91182e-05
1.91206e-05
1.91201e-05
1.91271e-05
1.91275e-05
1.91306e-05
1.9131e-05
9.98857e-06
2.24397e-05
2.24387e-05
2.24339e-05
2.24329e-05
9.98828e-06
4.72329e-06
2.99297e-06
9.95913e-06
5.66915e-06
4.7235e-06
9.96088e-06
2.99289e-06
4.72896e-06
2.99397e-06
9.96412e-06
5.67083e-06
4.72915e-06
9.96589e-06
2.9939e-06
9.98629e-06
2.24289e-05
2.24279e-05
9.98657e-06
2.24348e-05
2.24338e-05
4.72463e-06
9.96364e-06
5.67049e-06
2.99371e-06
9.96189e-06
4.72441e-06
2.9938e-06
4.7303e-06
9.96865e-06
5.67217e-06
2.99473e-06
9.96689e-06
4.7301e-06
2.99481e-06
1.91363e-05
1.91398e-05
9.99023e-06
2.24388e-05
2.24378e-05
9.99055e-06
2.24446e-05
2.24436e-05
4.72547e-06
9.96461e-06
2.99461e-06
5.67174e-06
4.7257e-06
9.96631e-06
2.99452e-06
4.73117e-06
9.96962e-06
2.99562e-06
5.6734e-06
4.73138e-06
9.97132e-06
2.99554e-06
1.26838e-05
4.25806e-06
1.12722e-05
4.90312e-06
1.12695e-05
4.90322e-06
1.26862e-05
2.28075e-05
7.26088e-06
9.59363e-06
2.28011e-05
7.26076e-06
1.26828e-05
4.25699e-06
1.12664e-05
4.90204e-06
1.12691e-05
1.26804e-05
4.90201e-06
2.28066e-05
7.26221e-06
9.59452e-06
7.26234e-06
2.2813e-05
1.26897e-05
1.12726e-05
4.9046e-06
4.25917e-06
1.26868e-05
1.12752e-05
4.90469e-06
2.2819e-05
7.26524e-06
9.599e-06
2.28126e-05
7.2651e-06
1.26893e-05
1.12726e-05
4.90425e-06
4.25907e-06
1.26871e-05
1.12751e-05
4.90416e-06
2.28184e-05
7.26379e-06
9.59888e-06
2.2812e-05
7.26365e-06
9.98757e-06
2.24383e-05
2.24392e-05
2.24324e-05
2.24334e-05
9.98728e-06
4.72853e-06
2.9937e-06
9.96323e-06
5.67009e-06
9.96502e-06
4.72868e-06
2.99363e-06
4.72281e-06
2.99266e-06
9.95907e-06
5.66879e-06
2.99258e-06
4.723e-06
9.96082e-06
9.98531e-06
2.24274e-05
2.24284e-05
2.24332e-05
9.98561e-06
2.24342e-05
4.72981e-06
9.96781e-06
5.67151e-06
2.99444e-06
9.96603e-06
2.99452e-06
4.72964e-06
4.72414e-06
9.96361e-06
5.67006e-06
2.99338e-06
2.99348e-06
9.96183e-06
4.72394e-06
1.91279e-05
1.91283e-05
1.91381e-05
9.98923e-06
2.24374e-05
2.24383e-05
9.98954e-06
2.24432e-05
2.24442e-05
4.73069e-06
9.9688e-06
2.99531e-06
5.67267e-06
2.99523e-06
4.73087e-06
9.97053e-06
4.72499e-06
9.96459e-06
2.99426e-06
5.67131e-06
4.72521e-06
9.96633e-06
2.99417e-06
1.91373e-05
1.26844e-05
4.25796e-06
1.12728e-05
4.90319e-06
1.12702e-05
4.9033e-06
1.26866e-05
2.28077e-05
7.26075e-06
9.59415e-06
2.28013e-05
7.26061e-06
1.26833e-05
4.25691e-06
1.12671e-05
4.90218e-06
1.12698e-05
1.2681e-05
4.90213e-06
2.28067e-05
7.26201e-06
9.59515e-06
7.26216e-06
2.28131e-05
1.26902e-05
4.90425e-06
1.12734e-05
4.25896e-06
1.26873e-05
4.90431e-06
1.12759e-05
2.2819e-05
7.26528e-06
9.60038e-06
2.28126e-05
7.26511e-06
1.26898e-05
1.12732e-05
4.90429e-06
4.25888e-06
1.26876e-05
1.12757e-05
4.90417e-06
2.28183e-05
7.26356e-06
9.59945e-06
2.2812e-05
7.26338e-06
1.26831e-05
4.25761e-06
4.90268e-06
1.12725e-05
4.90284e-06
1.12698e-05
1.26857e-05
2.28063e-05
7.26153e-06
9.59386e-06
7.26115e-06
2.27995e-05
1.26823e-05
4.2566e-06
4.90179e-06
1.12667e-05
4.90162e-06
1.26797e-05
1.12694e-05
2.2805e-05
7.26256e-06
9.59451e-06
7.26293e-06
2.28118e-05
1.2683e-05
4.2577e-06
1.12722e-05
4.90285e-06
1.12696e-05
4.90275e-06
1.26864e-05
2.28069e-05
7.25988e-06
9.59352e-06
2.28004e-05
7.25973e-06
1.2683e-05
4.25669e-06
1.12666e-05
4.90164e-06
1.26796e-05
1.12691e-05
4.90172e-06
2.28059e-05
7.26116e-06
9.59453e-06
7.26132e-06
2.28123e-05
1.26889e-05
4.9039e-06
1.12729e-05
4.2586e-06
1.26864e-05
4.90374e-06
1.12755e-05
2.28172e-05
7.26434e-06
9.59925e-06
2.28105e-05
7.26397e-06
1.26896e-05
1.12726e-05
4.90381e-06
4.25864e-06
1.26864e-05
1.12752e-05
4.90387e-06
2.28177e-05
7.26275e-06
9.59892e-06
2.28113e-05
7.26259e-06
9.98802e-06
2.24375e-05
2.24381e-05
2.24318e-05
2.24323e-05
9.98769e-06
4.72911e-06
2.99392e-06
9.96289e-06
5.67056e-06
9.96519e-06
4.7293e-06
2.9939e-06
4.72329e-06
2.99293e-06
9.95839e-06
5.66923e-06
2.99287e-06
4.72347e-06
9.96081e-06
9.98577e-06
2.24269e-05
2.24275e-05
2.24327e-05
9.9861e-06
2.24332e-05
4.73037e-06
9.96796e-06
5.67181e-06
2.99471e-06
9.96556e-06
2.99475e-06
4.73018e-06
4.72456e-06
9.96352e-06
5.67051e-06
2.9937e-06
2.99377e-06
9.96114e-06
4.72437e-06
1.91277e-05
1.9128e-05
1.91391e-05
9.98957e-06
2.24366e-05
2.24371e-05
9.98993e-06
2.24423e-05
2.24428e-05
4.73119e-06
9.96829e-06
2.99555e-06
5.67309e-06
2.99552e-06
4.73139e-06
9.97061e-06
4.72539e-06
9.96382e-06
2.99459e-06
5.67179e-06
4.72559e-06
9.96615e-06
2.99452e-06
1.91368e-05
1.26835e-05
4.25824e-06
4.90352e-06
1.12723e-05
4.90363e-06
1.12696e-05
1.26857e-05
2.28066e-05
7.26194e-06
9.59436e-06
7.26181e-06
2.28002e-05
1.26824e-05
4.25722e-06
4.90249e-06
1.12668e-05
4.90244e-06
1.26801e-05
1.12691e-05
2.28056e-05
7.26323e-06
9.59497e-06
7.26336e-06
2.28119e-05
1.26837e-05
4.25824e-06
4.90321e-06
1.12722e-05
4.90329e-06
1.12695e-05
1.26861e-05
2.28073e-05
7.26098e-06
9.59444e-06
2.28008e-05
7.26081e-06
1.26829e-05
4.25716e-06
4.90223e-06
1.12664e-05
1.26804e-05
4.90214e-06
1.12692e-05
2.28062e-05
7.26223e-06
9.59544e-06
7.26241e-06
2.28127e-05
1.26889e-05
4.90464e-06
1.12726e-05
4.25922e-06
1.26867e-05
4.90456e-06
1.12752e-05
2.28172e-05
7.26477e-06
9.59961e-06
2.28109e-05
7.26464e-06
1.26893e-05
4.90436e-06
1.12724e-05
4.25915e-06
1.26869e-05
4.90427e-06
1.1275e-05
2.2818e-05
7.26383e-06
9.59978e-06
2.28116e-05
7.26364e-06
1.9128e-05
1.91284e-05
1.91299e-05
1.91303e-05
9.98946e-06
2.24374e-05
2.24363e-05
9.98975e-06
2.24432e-05
2.2442e-05
4.7256e-06
9.96381e-06
2.99469e-06
5.67144e-06
4.72581e-06
2.9946e-06
9.96621e-06
4.73118e-06
9.96844e-06
2.99571e-06
5.67314e-06
4.73135e-06
2.99565e-06
9.97081e-06
1.91373e-05
1.91392e-05
6.66715e-07
4.55719e-07
4.61596e-07
4.6142e-07
6.73397e-07
4.63398e-07
4.63244e-07
2.52885e-07
2.51048e-07
2.84675e-06
1.98611e-06
1.98629e-06
1.43335e-06
2.84695e-06
1.98555e-06
1.9857e-06
2.84579e-06
1.4336e-06
1.98465e-06
1.98474e-06
1.98521e-06
1.98532e-06
2.84561e-06
2.84558e-06
1.43354e-06
1.98458e-06
1.98451e-06
1.98517e-06
1.9851e-06
2.84537e-06
2.8459e-06
1.43353e-06
1.98464e-06
1.98459e-06
1.9852e-06
1.98515e-06
2.84574e-06
2.84609e-06
1.4337e-06
1.98472e-06
1.98488e-06
2.84593e-06
1.98529e-06
1.98548e-06
2.84645e-06
1.98604e-06
1.98614e-06
1.43325e-06
2.84664e-06
1.98547e-06
1.98556e-06
2.84619e-06
1.986e-06
1.98591e-06
1.43322e-06
1.98532e-06
2.84639e-06
1.9854e-06
2.84656e-06
1.98608e-06
1.98604e-06
1.43325e-06
1.98547e-06
2.84676e-06
1.98551e-06
6.66734e-07
4.55766e-07
6.68462e-07
4.59699e-07
4.59518e-07
4.57823e-07
4.57626e-07
2.47176e-07
2.49055e-07
6.68567e-07
4.5972e-07
4.59658e-07
4.57848e-07
4.57786e-07
2.47199e-07
2.49122e-07
6.68468e-07
4.5959e-07
4.59634e-07
4.57712e-07
4.57766e-07
2.4719e-07
2.49114e-07
6.68613e-07
4.59773e-07
4.59666e-07
4.57887e-07
4.57801e-07
2.47246e-07
2.49177e-07
3.66255e-06
2.23865e-06
2.23902e-06
4.61628e-07
4.61599e-07
6.73457e-07
4.63428e-07
4.63403e-07
2.5296e-07
2.51065e-07
4.61541e-07
4.61585e-07
6.73428e-07
4.63349e-07
4.63389e-07
2.52955e-07
2.5106e-07
4.61708e-07
4.6161e-07
6.73525e-07
4.63515e-07
4.63411e-07
2.53013e-07
2.51111e-07
6.75006e-07
4.65232e-07
4.65087e-07
2.54841e-07
6.75114e-07
4.65269e-07
4.65243e-07
2.54854e-07
6.75098e-07
4.65207e-07
4.65241e-07
2.54855e-07
6.75179e-07
4.65352e-07
4.65257e-07
2.54898e-07
1.68398e-06
2.31444e-06
2.55972e-06
1.56166e-06
2.5598e-06
1.56243e-06
1.68267e-06
1.86084e-06
2.24129e-06
3.0405e-06
3.66519e-06
1.86195e-06
2.24089e-06
3.04022e-06
1.68186e-06
2.31366e-06
2.559e-06
1.56152e-06
1.68316e-06
2.5589e-06
1.56077e-06
1.86284e-06
3.04103e-06
3.66626e-06
2.24161e-06
2.24202e-06
3.04131e-06
1.86172e-06
1.68432e-06
2.31499e-06
1.56188e-06
2.5603e-06
1.56274e-06
2.56034e-06
1.68301e-06
1.86118e-06
2.2415e-06
3.04085e-06
3.66559e-06
1.86232e-06
2.24114e-06
3.04062e-06
1.68217e-06
2.31416e-06
1.56183e-06
2.55953e-06
1.68348e-06
1.56096e-06
2.55944e-06
1.8632e-06
3.0415e-06
3.66668e-06
2.24192e-06
2.24232e-06
3.04174e-06
1.86206e-06
2.84774e-06
1.4358e-06
1.98634e-06
1.98649e-06
1.98693e-06
1.98709e-06
2.84753e-06
2.84404e-06
1.43135e-06
1.98288e-06
1.98299e-06
2.84388e-06
1.98343e-06
1.98355e-06
2.84475e-06
1.43116e-06
1.9844e-06
1.98452e-06
2.84493e-06
1.98385e-06
1.98395e-06
1.85953e-06
3.03805e-06
3.6625e-06
2.23877e-06
3.03827e-06
2.23914e-06
1.85841e-06
1.68033e-06
2.55788e-06
1.55995e-06
2.3125e-06
1.68163e-06
2.55788e-06
1.55914e-06
1.86142e-06
2.24041e-06
3.66463e-06
3.03988e-06
2.24079e-06
3.04014e-06
1.86027e-06
1.85936e-06
3.03928e-06
2.24006e-06
3.66355e-06
2.23967e-06
1.8605e-06
3.03903e-06
1.68256e-06
2.31329e-06
2.55875e-06
1.56013e-06
2.55879e-06
1.56097e-06
1.68126e-06
1.68021e-06
2.5577e-06
1.55989e-06
2.31236e-06
1.68152e-06
2.55766e-06
1.55907e-06
1.86114e-06
2.24038e-06
3.66475e-06
3.03944e-06
3.0397e-06
2.24078e-06
1.86008e-06
1.85918e-06
3.03876e-06
2.23995e-06
3.66357e-06
1.86026e-06
3.03852e-06
2.23959e-06
1.68243e-06
2.31319e-06
2.55849e-06
1.56006e-06
2.55852e-06
1.56091e-06
1.68112e-06
1.43103e-06
1.98431e-06
1.98372e-06
1.68031e-06
2.31122e-06
2.55647e-06
1.55771e-06
2.5566e-06
1.55855e-06
1.67904e-06
1.85921e-06
3.03787e-06
3.66281e-06
2.23884e-06
3.0381e-06
2.23919e-06
1.85822e-06
1.6803e-06
2.31122e-06
1.55768e-06
2.55651e-06
1.55853e-06
2.55664e-06
1.67897e-06
1.85917e-06
3.03748e-06
3.66275e-06
2.23876e-06
3.03773e-06
1.85801e-06
2.23914e-06
1.68003e-06
2.55737e-06
1.55947e-06
2.31206e-06
1.68127e-06
2.55734e-06
1.55866e-06
1.8611e-06
2.24053e-06
3.66495e-06
3.03966e-06
2.2409e-06
3.03989e-06
1.86011e-06
1.85921e-06
3.03896e-06
2.24013e-06
3.66389e-06
2.23977e-06
1.8602e-06
3.03876e-06
1.68222e-06
2.31287e-06
2.55823e-06
1.55963e-06
2.55827e-06
1.56046e-06
1.68096e-06
1.67998e-06
1.55947e-06
2.55732e-06
2.31206e-06
1.68127e-06
1.55865e-06
2.55732e-06
1.86105e-06
2.2404e-06
3.6648e-06
3.03928e-06
3.0395e-06
2.24076e-06
1.85994e-06
1.85903e-06
3.03858e-06
2.23997e-06
3.6637e-06
1.86018e-06
3.03836e-06
2.23959e-06
1.68222e-06
2.31287e-06
1.55961e-06
2.55825e-06
1.56045e-06
2.55834e-06
1.6809e-06
1.86107e-06
2.24016e-06
3.66435e-06
3.03938e-06
1.85997e-06
2.24056e-06
3.03965e-06
1.68226e-06
2.31284e-06
2.55809e-06
1.55985e-06
1.68099e-06
2.55815e-06
1.5606e-06
1.86117e-06
2.24038e-06
3.66448e-06
3.03915e-06
3.03941e-06
2.24074e-06
1.86017e-06
1.68231e-06
2.31291e-06
1.55987e-06
2.55817e-06
1.56061e-06
2.55823e-06
1.68107e-06
2.84411e-06
1.43133e-06
1.98293e-06
1.98286e-06
1.98343e-06
1.9835e-06
2.84394e-06
2.84493e-06
1.43106e-06
1.98435e-06
1.98429e-06
1.98378e-06
2.84511e-06
1.98373e-06
1.6804e-06
1.5599e-06
2.55772e-06
2.3123e-06
1.68167e-06
1.55908e-06
2.55768e-06
1.86134e-06
2.24032e-06
3.66465e-06
3.03973e-06
1.86023e-06
2.2407e-06
3.03995e-06
1.85935e-06
3.03903e-06
2.23988e-06
3.66356e-06
1.86042e-06
2.23952e-06
3.03882e-06
1.68263e-06
2.31345e-06
1.56003e-06
2.55867e-06
1.68134e-06
1.56088e-06
2.55876e-06
1.68032e-06
1.55985e-06
2.55766e-06
2.31239e-06
1.68163e-06
1.55901e-06
2.55761e-06
1.8613e-06
2.24056e-06
3.66493e-06
3.03956e-06
3.03981e-06
2.24094e-06
1.86019e-06
1.85927e-06
3.03889e-06
2.24015e-06
3.66382e-06
1.86041e-06
3.03863e-06
2.23978e-06
1.68257e-06
2.31344e-06
1.55997e-06
2.55849e-06
1.56083e-06
2.55855e-06
1.68124e-06
2.84511e-06
1.43123e-06
1.98464e-06
1.98389e-06
1.98406e-06
2.84749e-06
1.4357e-06
1.98627e-06
1.98635e-06
2.84729e-06
1.98684e-06
1.98694e-06
2.84807e-06
1.43529e-06
1.98763e-06
1.98774e-06
2.84827e-06
1.98705e-06
1.98714e-06
1.68428e-06
2.31517e-06
2.56041e-06
1.56192e-06
2.56046e-06
1.56276e-06
1.68296e-06
1.86116e-06
2.24156e-06
3.04101e-06
3.66553e-06
3.04074e-06
1.86231e-06
2.24117e-06
1.68212e-06
2.31426e-06
2.55962e-06
1.56188e-06
2.55958e-06
1.68343e-06
1.56103e-06
1.86321e-06
3.04161e-06
3.66662e-06
2.2419e-06
3.04189e-06
2.24229e-06
1.86205e-06
1.6841e-06
2.31506e-06
2.5601e-06
1.56184e-06
2.56013e-06
1.56269e-06
1.68279e-06
1.86096e-06
2.24156e-06
3.04055e-06
3.6656e-06
1.86203e-06
3.0403e-06
2.24116e-06
1.68196e-06
2.31421e-06
2.5593e-06
1.5618e-06
1.68327e-06
2.55928e-06
1.56095e-06
1.86288e-06
3.04114e-06
3.66672e-06
2.24189e-06
3.0414e-06
1.86183e-06
2.24229e-06
1.68377e-06
2.56124e-06
1.56363e-06
2.31589e-06
1.68509e-06
2.56119e-06
1.56279e-06
1.86289e-06
3.04273e-06
2.24304e-06
3.66748e-06
2.24265e-06
1.86405e-06
3.04245e-06
1.68359e-06
2.56091e-06
1.56355e-06
2.31581e-06
1.6849e-06
2.56088e-06
1.56271e-06
1.86265e-06
3.04221e-06
2.24303e-06
3.66751e-06
1.86371e-06
3.04195e-06
2.24263e-06
2.84722e-06
1.43564e-06
1.98617e-06
1.98609e-06
1.98669e-06
1.98677e-06
2.847e-06
2.84775e-06
1.43521e-06
1.98753e-06
1.98745e-06
1.98693e-06
2.84798e-06
1.98685e-06
1.68394e-06
2.31477e-06
2.55995e-06
1.56149e-06
2.56e-06
1.56235e-06
1.68265e-06
1.86102e-06
2.24169e-06
3.04081e-06
3.66587e-06
3.04058e-06
1.86205e-06
2.24131e-06
1.6818e-06
2.31393e-06
2.55914e-06
1.56143e-06
2.5591e-06
1.68308e-06
1.56059e-06
1.86293e-06
3.04144e-06
3.66694e-06
2.24206e-06
3.04169e-06
2.24244e-06
1.86189e-06
1.68392e-06
2.31476e-06
1.56147e-06
2.55991e-06
1.56234e-06
2.55995e-06
1.68257e-06
1.86085e-06
2.24159e-06
3.04042e-06
3.66575e-06
1.86201e-06
3.04019e-06
2.24122e-06
1.68175e-06
2.31392e-06
1.56142e-06
2.55913e-06
1.68307e-06
1.56056e-06
2.5591e-06
1.86286e-06
3.04104e-06
3.66681e-06
2.24196e-06
3.04128e-06
1.8617e-06
2.24234e-06
1.68345e-06
2.56081e-06
1.56325e-06
2.31552e-06
1.68474e-06
2.56076e-06
1.56239e-06
1.86273e-06
3.04253e-06
2.2432e-06
3.66782e-06
2.24282e-06
1.86377e-06
3.04228e-06
1.68338e-06
1.56324e-06
2.56073e-06
2.31549e-06
1.68472e-06
1.56237e-06
2.56069e-06
1.86254e-06
3.04212e-06
2.2431e-06
3.66768e-06
1.8637e-06
3.04187e-06
2.24272e-06
1.68405e-06
2.31462e-06
1.5617e-06
2.55986e-06
1.56246e-06
2.55991e-06
1.68278e-06
1.86109e-06
2.24156e-06
3.04032e-06
3.66541e-06
2.24119e-06
1.86213e-06
3.04005e-06
1.68196e-06
2.31378e-06
1.56157e-06
2.55909e-06
1.56082e-06
1.68323e-06
2.55903e-06
1.86297e-06
3.04089e-06
3.66649e-06
2.24191e-06
2.2423e-06
3.04118e-06
1.86193e-06
1.68347e-06
2.56061e-06
1.56333e-06
2.31525e-06
1.68479e-06
2.56052e-06
1.56255e-06
1.86252e-06
3.04215e-06
2.24277e-06
3.6671e-06
1.86367e-06
2.24236e-06
3.04186e-06
1.68358e-06
1.56335e-06
2.5607e-06
2.31537e-06
1.68485e-06
1.56257e-06
2.56065e-06
1.86275e-06
3.042e-06
2.24304e-06
3.66733e-06
1.86379e-06
3.04171e-06
2.24265e-06
2.84755e-06
1.43568e-06
1.98629e-06
1.98626e-06
1.98684e-06
1.98687e-06
2.84735e-06
2.8481e-06
1.43528e-06
1.98766e-06
1.98764e-06
1.98707e-06
2.8483e-06
1.98705e-06
1.68423e-06
2.31492e-06
1.56181e-06
2.56014e-06
1.56268e-06
2.56021e-06
1.68287e-06
1.8611e-06
2.24176e-06
3.04072e-06
3.66587e-06
2.24138e-06
1.86227e-06
3.04046e-06
1.68206e-06
2.31411e-06
1.56179e-06
2.55939e-06
1.56092e-06
1.6834e-06
2.55932e-06
1.8631e-06
3.0413e-06
3.66695e-06
2.24211e-06
2.2425e-06
3.04158e-06
1.86193e-06
1.68383e-06
1.56367e-06
2.56118e-06
2.31575e-06
1.68514e-06
1.5628e-06
2.56114e-06
1.8629e-06
3.04261e-06
2.24311e-06
3.66758e-06
1.86405e-06
2.24271e-06
3.04237e-06
1.68367e-06
1.56358e-06
2.561e-06
2.31568e-06
1.68502e-06
1.56271e-06
2.56093e-06
1.86276e-06
3.04241e-06
2.24327e-06
3.66781e-06
1.86393e-06
3.04213e-06
2.24287e-06
2.84826e-06
1.43541e-06
1.98772e-06
1.98788e-06
2.84847e-06
1.98713e-06
1.98728e-06
6.78142e-07
1.20592e-06
1.20609e-06
1.43875e-06
6.83804e-07
1.20946e-06
1.2097e-06
1.44224e-06
6.88833e-07
1.21243e-06
1.2127e-06
1.44523e-06
6.93209e-07
1.21483e-06
1.21509e-06
1.4477e-06
6.96935e-07
1.21667e-06
1.21687e-06
1.44966e-06
7.00038e-07
1.21799e-06
1.21811e-06
1.45136e-06
7.02561e-07
1.21885e-06
1.21886e-06
1.45238e-06
7.04569e-07
1.21932e-06
1.21926e-06
1.45313e-06
7.0614e-07
1.21952e-06
1.21939e-06
1.45354e-06
7.07365e-07
1.21955e-06
1.21939e-06
1.45371e-06
7.08332e-07
1.2195e-06
1.21936e-06
1.45363e-06
7.09097e-07
1.21944e-06
1.21934e-06
1.45374e-06
7.09722e-07
1.21942e-06
1.21934e-06
1.4539e-06
7.10226e-07
1.21944e-06
1.21936e-06
1.45423e-06
7.10626e-07
1.21945e-06
1.21941e-06
1.45457e-06
7.10936e-07
1.21943e-06
1.21945e-06
1.4546e-06
7.11166e-07
1.2194e-06
1.21948e-06
1.45464e-06
7.11325e-07
1.21937e-06
1.21949e-06
1.45483e-06
7.10266e-07
1.21849e-06
1.21863e-06
1.45435e-06
7.71882e-07
1.13086e-06
1.13098e-06
1.40788e-06
1.43627e-06
1.20499e-06
1.20484e-06
1.43617e-06
1.20466e-06
1.2048e-06
1.20481e-06
1.20504e-06
1.43627e-06
1.20495e-06
1.20484e-06
1.43637e-06
1.43866e-06
1.43991e-06
1.20607e-06
1.20592e-06
1.20877e-06
1.20857e-06
1.43854e-06
1.43974e-06
1.20576e-06
1.20591e-06
1.20848e-06
1.20863e-06
1.20612e-06
1.20849e-06
1.20877e-06
1.43866e-06
1.4399e-06
1.20593e-06
1.20872e-06
1.2086e-06
1.43996e-06
1.44223e-06
1.44307e-06
1.20964e-06
1.20944e-06
1.21191e-06
1.21167e-06
1.44204e-06
1.44284e-06
1.20935e-06
1.20951e-06
1.21164e-06
1.21177e-06
1.20963e-06
1.21161e-06
1.21182e-06
1.44221e-06
1.44302e-06
1.20947e-06
1.21188e-06
1.21169e-06
1.44304e-06
1.44529e-06
1.44571e-06
1.21265e-06
1.2124e-06
1.21448e-06
1.21421e-06
1.44505e-06
1.44546e-06
1.21238e-06
1.2125e-06
1.21423e-06
1.21431e-06
1.21255e-06
1.21417e-06
1.21431e-06
1.44522e-06
1.44559e-06
1.21242e-06
1.21443e-06
1.21421e-06
1.44561e-06
1.44783e-06
1.4478e-06
1.21508e-06
1.21482e-06
1.21649e-06
1.21622e-06
1.44757e-06
1.44757e-06
1.21483e-06
1.2149e-06
1.21624e-06
1.21627e-06
1.2149e-06
1.21617e-06
1.21625e-06
1.44769e-06
1.44763e-06
1.2148e-06
1.21639e-06
1.21616e-06
1.44765e-06
1.44983e-06
1.4495e-06
1.21694e-06
1.21669e-06
1.21794e-06
1.2177e-06
1.44958e-06
1.44933e-06
1.2167e-06
1.21672e-06
1.2177e-06
1.21768e-06
1.21669e-06
1.21764e-06
1.21767e-06
1.44963e-06
1.44925e-06
1.21661e-06
1.21777e-06
1.21758e-06
1.44905e-06
1.45133e-06
1.45061e-06
1.21826e-06
1.21803e-06
1.21889e-06
1.2187e-06
1.45108e-06
1.45045e-06
1.21801e-06
1.21799e-06
1.21866e-06
1.21861e-06
1.21798e-06
1.21862e-06
1.21862e-06
1.45107e-06
1.45032e-06
1.21789e-06
1.21866e-06
1.21852e-06
1.45012e-06
1.45232e-06
1.45134e-06
1.21908e-06
1.2189e-06
1.21943e-06
1.21928e-06
1.45217e-06
1.45091e-06
1.21884e-06
1.2188e-06
1.2192e-06
1.21915e-06
1.21881e-06
1.2192e-06
1.21918e-06
1.45202e-06
1.45103e-06
1.2187e-06
1.21915e-06
1.21906e-06
1.45082e-06
1.45297e-06
1.45148e-06
1.21951e-06
1.21939e-06
1.21964e-06
1.21957e-06
1.45319e-06
1.45146e-06
1.21929e-06
1.21924e-06
1.21944e-06
1.21939e-06
1.21928e-06
1.21948e-06
1.21946e-06
1.45269e-06
1.45148e-06
1.21916e-06
1.21936e-06
1.21932e-06
1.45134e-06
1.45364e-06
1.45204e-06
1.21965e-06
1.21959e-06
1.21964e-06
1.21963e-06
1.45363e-06
1.45178e-06
1.21945e-06
1.2194e-06
1.21945e-06
1.21941e-06
1.21948e-06
1.21954e-06
1.2195e-06
1.45312e-06
1.45145e-06
1.21934e-06
1.21938e-06
1.21936e-06
1.45162e-06
1.45365e-06
1.45223e-06
1.21965e-06
1.21964e-06
1.21958e-06
1.2196e-06
1.45393e-06
1.45225e-06
1.21945e-06
1.21942e-06
1.21939e-06
1.21936e-06
1.2195e-06
1.2195e-06
1.21943e-06
1.45368e-06
1.452e-06
1.21936e-06
1.21935e-06
1.21929e-06
1.45195e-06
1.45385e-06
1.45215e-06
1.21958e-06
1.21961e-06
1.21952e-06
1.21955e-06
1.45384e-06
1.45244e-06
1.21939e-06
1.21936e-06
1.21931e-06
1.2193e-06
1.21941e-06
1.21944e-06
1.21931e-06
1.45359e-06
1.45216e-06
1.21928e-06
1.21933e-06
1.2192e-06
1.45202e-06
1.45434e-06
1.45232e-06
1.21954e-06
1.21956e-06
1.21951e-06
1.21951e-06
1.45407e-06
1.45261e-06
1.21932e-06
1.21931e-06
1.21928e-06
1.21927e-06
1.2193e-06
1.2194e-06
1.21925e-06
1.45379e-06
1.45236e-06
1.21921e-06
1.21932e-06
1.21915e-06
1.45221e-06
1.45446e-06
1.45256e-06