/*--------------------------------*- C++ -*----------------------------------*\
| =========                 |                                                 |
| \\      /  F ield         | OpenFOAM: The Open Source CFD Toolbox           |
|  \\    /   O peration     | Version:                                        |
|   \\  /    A nd           | Website:  www.openfoam.com                      |
|    \\/     M anipulation  |                                                 |
\*---------------------------------------------------------------------------*/
FoamFile
{
    version     2.0;
    format      ascii;
    class       volScalarField;
    location    "12500";
    object      p;
}
// * * * * * * * * * * * * * * * * * * * * * * * * * * * * * * * * * * * * * //

dimensions      [0 2 -2 0 0 0 0];


internalField   nonuniform List<scalar> 
172512
(
1.45349e-07
1.45319e-07
1.45319e-07
1.45273e-07
1.42252e-07
1.42168e-07
1.42168e-07
1.42298e-07
1.40089e-07
1.40062e-07
1.40062e-07
1.40168e-07
1.38328e-07
1.38325e-07
1.38325e-07
1.38415e-07
1.36786e-07
1.36786e-07
1.36786e-07
1.36872e-07
1.35275e-07
1.35275e-07
1.35275e-07
1.35361e-07
1.33763e-07
1.33763e-07
1.33763e-07
1.33849e-07
1.32252e-07
1.32251e-07
1.32251e-07
1.32337e-07
1.3074e-07
1.3074e-07
1.3074e-07
1.30826e-07
1.29228e-07
1.29228e-07
1.29228e-07
1.29314e-07
1.27717e-07
1.27716e-07
1.27716e-07
1.27802e-07
1.26205e-07
1.26205e-07
1.26205e-07
1.26291e-07
1.24694e-07
1.24694e-07
1.24694e-07
1.2478e-07
1.23182e-07
1.23182e-07
1.23182e-07
1.23268e-07
1.21671e-07
1.21671e-07
1.21671e-07
1.21757e-07
1.2016e-07
1.20159e-07
1.20159e-07
1.20246e-07
1.18648e-07
1.18648e-07
1.18648e-07
1.18734e-07
1.17137e-07
1.17137e-07
1.17137e-07
1.17223e-07
1.15626e-07
1.15625e-07
1.15625e-07
1.15711e-07
1.14114e-07
1.14114e-07
1.14114e-07
1.142e-07
1.12603e-07
1.12603e-07
1.12603e-07
1.12689e-07
1.11091e-07
1.11091e-07
1.11091e-07
1.11177e-07
1.0958e-07
1.0958e-07
1.0958e-07
1.09666e-07
1.08069e-07
1.08068e-07
1.08068e-07
1.08154e-07
1.06557e-07
1.06557e-07
1.06557e-07
1.06643e-07
1.05046e-07
1.05046e-07
1.05046e-07
1.05132e-07
1.03534e-07
1.03534e-07
1.03534e-07
1.0362e-07
1.02023e-07
1.02023e-07
1.02023e-07
1.02109e-07
1.00512e-07
1.00512e-07
1.00512e-07
1.00598e-07
9.90007e-08
9.90004e-08
9.90004e-08
9.90865e-08
9.74895e-08
9.74892e-08
9.74892e-08
9.75753e-08
9.59782e-08
9.5978e-08
9.5978e-08
9.6064e-08
9.4467e-08
9.44667e-08
9.44667e-08
9.45528e-08
9.29558e-08
9.29555e-08
9.29555e-08
9.30416e-08
9.14446e-08
9.14443e-08
9.14443e-08
9.15304e-08
8.99334e-08
8.99331e-08
8.99331e-08
9.00192e-08
8.84223e-08
8.8422e-08
8.8422e-08
8.8508e-08
8.69112e-08
8.69109e-08
8.69109e-08
8.69969e-08
8.54001e-08
8.53998e-08
8.53998e-08
8.54859e-08
8.3889e-08
8.38887e-08
8.38887e-08
8.39748e-08
8.23779e-08
8.23776e-08
8.23776e-08
8.24636e-08
8.08667e-08
8.08664e-08
8.08664e-08
8.09525e-08
7.93556e-08
7.93553e-08
7.93553e-08
7.94413e-08
7.78444e-08
7.78441e-08
7.78441e-08
7.79302e-08
7.63333e-08
7.6333e-08
7.6333e-08
7.6419e-08
7.48221e-08
7.48219e-08
7.48219e-08
7.49079e-08
7.3311e-08
7.33107e-08
7.33107e-08
7.33968e-08
7.17998e-08
7.17995e-08
7.17995e-08
7.18856e-08
7.02885e-08
7.02882e-08
7.02882e-08
7.03743e-08
6.87772e-08
6.87769e-08
6.87769e-08
6.8863e-08
6.72659e-08
6.72656e-08
6.72656e-08
6.73517e-08
6.57545e-08
6.57543e-08
6.57543e-08
6.58403e-08
6.42432e-08
6.4243e-08
6.4243e-08
6.4329e-08
6.27319e-08
6.27317e-08
6.27317e-08
6.28177e-08
6.12207e-08
6.12204e-08
6.12204e-08
6.13064e-08
5.97093e-08
5.97091e-08
5.97091e-08
5.97951e-08
5.8198e-08
5.81977e-08
5.81977e-08
5.82838e-08
5.66866e-08
5.66864e-08
5.66864e-08
5.67724e-08
5.51753e-08
5.5175e-08
5.5175e-08
5.52611e-08
5.3664e-08
5.36637e-08
5.36637e-08
5.37497e-08
5.21526e-08
5.21524e-08
5.21524e-08
5.22384e-08
5.06414e-08
5.06411e-08
5.06411e-08
5.07272e-08
4.91301e-08
4.91298e-08
4.91298e-08
4.92159e-08
4.76189e-08
4.76186e-08
4.76186e-08
4.77047e-08
4.61076e-08
4.61074e-08
4.61074e-08
4.61934e-08
4.45964e-08
4.45962e-08
4.45962e-08
4.46822e-08
4.30852e-08
4.3085e-08
4.3085e-08
4.3171e-08
4.1574e-08
4.15737e-08
4.15737e-08
4.16598e-08
4.00628e-08
4.00625e-08
4.00625e-08
4.01486e-08
3.85516e-08
3.85513e-08
3.85513e-08
3.86374e-08
3.70404e-08
3.70401e-08
3.70401e-08
3.71262e-08
3.55292e-08
3.55289e-08
3.55289e-08
3.5615e-08
3.4018e-08
3.40177e-08
3.40177e-08
3.41038e-08
3.25068e-08
3.25066e-08
3.25066e-08
3.25926e-08
3.09957e-08
3.09954e-08
3.09954e-08
3.10815e-08
2.94845e-08
2.94842e-08
2.94842e-08
2.95702e-08
2.79732e-08
2.7973e-08
2.7973e-08
2.8059e-08
2.6462e-08
2.64617e-08
2.64617e-08
2.65478e-08
2.49507e-08
2.49504e-08
2.49504e-08
2.50365e-08
2.34395e-08
2.34392e-08
2.34392e-08
2.35253e-08
2.19283e-08
2.1928e-08
2.1928e-08
2.2014e-08
2.04171e-08
2.04168e-08
2.04168e-08
2.05029e-08
1.89059e-08
1.89056e-08
1.89056e-08
1.89917e-08
1.73947e-08
1.73944e-08
1.73944e-08
1.74805e-08
1.58835e-08
1.58832e-08
1.58832e-08
1.59693e-08
1.43723e-08
1.4372e-08
1.4372e-08
1.4458e-08
1.28611e-08
1.28608e-08
1.28608e-08
1.29468e-08
1.13499e-08
1.13496e-08
1.13496e-08
1.14357e-08
9.83875e-09
9.83848e-09
9.83848e-09
9.92453e-09
8.32762e-09
8.32735e-09
8.32735e-09
8.4134e-09
6.81651e-09
6.81623e-09
6.81623e-09
6.90227e-09
5.30547e-09
5.3052e-09
5.3052e-09
5.39116e-09
3.79475e-09
3.79436e-09
3.79436e-09
3.87997e-09
2.28882e-09
2.28836e-09
2.28835e-09
2.37282e-09
9.34797e-10
8.93023e-10
8.93008e-10
8.77233e-10
1.45752e-07
1.45776e-07
1.45776e-07
1.45752e-07
1.45776e-07
1.45776e-07
1.45782e-07
1.45782e-07
1.45782e-07
1.45782e-07
1.45776e-07
1.45776e-07
1.45752e-07
1.45776e-07
1.45776e-07
1.45752e-07
1.45273e-07
1.42638e-07
1.45319e-07
1.45319e-07
1.42783e-07
1.42783e-07
1.45273e-07
1.42638e-07
1.45319e-07
1.45319e-07
1.42783e-07
1.42783e-07
1.45319e-07
1.42783e-07
1.42783e-07
1.45273e-07
1.42638e-07
1.45319e-07
1.42783e-07
1.42783e-07
1.42638e-07
1.42298e-07
1.40438e-07
1.42168e-07
1.42168e-07
1.40549e-07
1.40549e-07
1.42298e-07
1.40438e-07
1.42168e-07
1.42168e-07
1.40549e-07
1.40549e-07
1.42168e-07
1.40549e-07
1.40549e-07
1.42298e-07
1.40438e-07
1.42168e-07
1.40549e-07
1.40549e-07
1.40438e-07
1.40168e-07
1.38634e-07
1.40062e-07
1.40062e-07
1.38731e-07
1.38731e-07
1.40168e-07
1.38634e-07
1.40062e-07
1.40062e-07
1.38731e-07
1.38731e-07
1.40062e-07
1.38731e-07
1.38731e-07
1.40168e-07
1.38634e-07
1.40062e-07
1.38731e-07
1.38731e-07
1.38634e-07
1.38415e-07
1.37078e-07
1.38325e-07
1.38325e-07
1.37164e-07
1.37164e-07
1.38415e-07
1.37078e-07
1.38325e-07
1.38325e-07
1.37164e-07
1.37164e-07
1.38325e-07
1.37164e-07
1.37164e-07
1.38415e-07
1.37078e-07
1.38325e-07
1.37164e-07
1.37164e-07
1.37078e-07
1.36872e-07
1.35567e-07
1.36786e-07
1.36786e-07
1.35653e-07
1.35653e-07
1.36872e-07
1.35567e-07
1.36786e-07
1.36786e-07
1.35653e-07
1.35653e-07
1.36786e-07
1.35653e-07
1.35653e-07
1.36872e-07
1.35567e-07
1.36786e-07
1.35653e-07
1.35653e-07
1.35567e-07
1.35361e-07
1.34055e-07
1.35275e-07
1.35275e-07
1.34141e-07
1.34141e-07
1.35361e-07
1.34055e-07
1.35275e-07
1.35275e-07
1.34141e-07
1.34141e-07
1.35275e-07
1.34141e-07
1.34141e-07
1.35361e-07
1.34055e-07
1.35275e-07
1.34141e-07
1.34141e-07
1.34055e-07
1.33849e-07
1.32543e-07
1.33763e-07
1.33763e-07
1.32629e-07
1.32629e-07
1.33849e-07
1.32543e-07
1.33763e-07
1.33763e-07
1.32629e-07
1.32629e-07
1.33763e-07
1.32629e-07
1.32629e-07
1.33849e-07
1.32543e-07
1.33763e-07
1.32629e-07
1.32629e-07
1.32543e-07
1.32337e-07
1.31031e-07
1.32251e-07
1.32251e-07
1.31117e-07
1.31117e-07
1.32337e-07
1.31031e-07
1.32251e-07
1.32251e-07
1.31117e-07
1.31117e-07
1.32251e-07
1.31117e-07
1.31117e-07
1.32337e-07
1.31031e-07
1.32251e-07
1.31117e-07
1.31117e-07
1.31031e-07
1.30826e-07
1.2952e-07
1.3074e-07
1.3074e-07
1.29606e-07
1.29606e-07
1.30826e-07
1.2952e-07
1.3074e-07
1.3074e-07
1.29606e-07
1.29606e-07
1.3074e-07
1.29606e-07
1.29606e-07
1.30826e-07
1.2952e-07
1.3074e-07
1.29606e-07
1.29606e-07
1.2952e-07
1.29314e-07
1.28008e-07
1.29228e-07
1.29228e-07
1.28094e-07
1.28094e-07
1.29314e-07
1.28008e-07
1.29228e-07
1.29228e-07
1.28094e-07
1.28094e-07
1.29228e-07
1.28094e-07
1.28094e-07
1.29314e-07
1.28008e-07
1.29228e-07
1.28094e-07
1.28094e-07
1.28008e-07
1.27802e-07
1.26497e-07
1.27716e-07
1.27716e-07
1.26583e-07
1.26583e-07
1.27802e-07
1.26497e-07
1.27716e-07
1.27716e-07
1.26583e-07
1.26583e-07
1.27716e-07
1.26583e-07
1.26583e-07
1.27802e-07
1.26497e-07
1.27716e-07
1.26583e-07
1.26583e-07
1.26497e-07
1.26291e-07
1.24985e-07
1.26205e-07
1.26205e-07
1.25071e-07
1.25071e-07
1.26291e-07
1.24985e-07
1.26205e-07
1.26205e-07
1.25071e-07
1.25071e-07
1.26205e-07
1.25071e-07
1.25071e-07
1.26291e-07
1.24985e-07
1.26205e-07
1.25071e-07
1.25071e-07
1.24985e-07
1.2478e-07
1.23474e-07
1.24694e-07
1.24694e-07
1.2356e-07
1.2356e-07
1.2478e-07
1.23474e-07
1.24694e-07
1.24694e-07
1.2356e-07
1.2356e-07
1.24694e-07
1.2356e-07
1.2356e-07
1.2478e-07
1.23474e-07
1.24694e-07
1.2356e-07
1.2356e-07
1.23474e-07
1.23268e-07
1.21963e-07
1.23182e-07
1.23182e-07
1.22049e-07
1.22049e-07
1.23268e-07
1.21963e-07
1.23182e-07
1.23182e-07
1.22049e-07
1.22049e-07
1.23182e-07
1.22049e-07
1.22049e-07
1.23268e-07
1.21963e-07
1.23182e-07
1.22049e-07
1.22049e-07
1.21963e-07
1.21757e-07
1.20451e-07
1.21671e-07
1.21671e-07
1.20537e-07
1.20537e-07
1.21757e-07
1.20451e-07
1.21671e-07
1.21671e-07
1.20537e-07
1.20537e-07
1.21671e-07
1.20537e-07
1.20537e-07
1.21757e-07
1.20451e-07
1.21671e-07
1.20537e-07
1.20537e-07
1.20451e-07
1.20246e-07
1.1894e-07
1.20159e-07
1.20159e-07
1.19026e-07
1.19026e-07
1.20246e-07
1.1894e-07
1.20159e-07
1.20159e-07
1.19026e-07
1.19026e-07
1.20159e-07
1.19026e-07
1.19026e-07
1.20246e-07
1.1894e-07
1.20159e-07
1.19026e-07
1.19026e-07
1.1894e-07
1.18734e-07
1.17429e-07
1.18648e-07
1.18648e-07
1.17515e-07
1.17515e-07
1.18734e-07
1.17429e-07
1.18648e-07
1.18648e-07
1.17515e-07
1.17515e-07
1.18648e-07
1.17515e-07
1.17515e-07
1.18734e-07
1.17429e-07
1.18648e-07
1.17515e-07
1.17515e-07
1.17429e-07
1.17223e-07
1.15917e-07
1.17137e-07
1.17137e-07
1.16003e-07
1.16003e-07
1.17223e-07
1.15917e-07
1.17137e-07
1.17137e-07
1.16003e-07
1.16003e-07
1.17137e-07
1.16003e-07
1.16003e-07
1.17223e-07
1.15917e-07
1.17137e-07
1.16003e-07
1.16003e-07
1.15917e-07
1.15711e-07
1.14406e-07
1.15625e-07
1.15625e-07
1.14492e-07
1.14492e-07
1.15711e-07
1.14406e-07
1.15625e-07
1.15625e-07
1.14492e-07
1.14492e-07
1.15625e-07
1.14492e-07
1.14492e-07
1.15711e-07
1.14406e-07
1.15625e-07
1.14492e-07
1.14492e-07
1.14406e-07
1.142e-07
1.12894e-07
1.14114e-07
1.14114e-07
1.1298e-07
1.1298e-07
1.142e-07
1.12894e-07
1.14114e-07
1.14114e-07
1.1298e-07
1.1298e-07
1.14114e-07
1.1298e-07
1.1298e-07
1.142e-07
1.12894e-07
1.14114e-07
1.1298e-07
1.1298e-07
1.12894e-07
1.12689e-07
1.11383e-07
1.12603e-07
1.12603e-07
1.11469e-07
1.11469e-07
1.12689e-07
1.11383e-07
1.12603e-07
1.12603e-07
1.11469e-07
1.11469e-07
1.12603e-07
1.11469e-07
1.11469e-07
1.12689e-07
1.11383e-07
1.12603e-07
1.11469e-07
1.11469e-07
1.11383e-07
1.11177e-07
1.09872e-07
1.11091e-07
1.11091e-07
1.09958e-07
1.09958e-07
1.11177e-07
1.09872e-07
1.11091e-07
1.11091e-07
1.09958e-07
1.09958e-07
1.11091e-07
1.09958e-07
1.09958e-07
1.11177e-07
1.09872e-07
1.11091e-07
1.09958e-07
1.09958e-07
1.09872e-07
1.09666e-07
1.0836e-07
1.0958e-07
1.0958e-07
1.08446e-07
1.08446e-07
1.09666e-07
1.0836e-07
1.0958e-07
1.0958e-07
1.08446e-07
1.08446e-07
1.0958e-07
1.08446e-07
1.08446e-07
1.09666e-07
1.0836e-07
1.0958e-07
1.08446e-07
1.08446e-07
1.0836e-07
1.08154e-07
1.06849e-07
1.08068e-07
1.08068e-07
1.06935e-07
1.06935e-07
1.08154e-07
1.06849e-07
1.08068e-07
1.08068e-07
1.06935e-07
1.06935e-07
1.08068e-07
1.06935e-07
1.06935e-07
1.08154e-07
1.06849e-07
1.08068e-07
1.06935e-07
1.06935e-07
1.06849e-07
1.06643e-07
1.05337e-07
1.06557e-07
1.06557e-07
1.05423e-07
1.05423e-07
1.06643e-07
1.05337e-07
1.06557e-07
1.06557e-07
1.05423e-07
1.05423e-07
1.06557e-07
1.05423e-07
1.05423e-07
1.06643e-07
1.05337e-07
1.06557e-07
1.05423e-07
1.05423e-07
1.05337e-07
1.05132e-07
1.03826e-07
1.05046e-07
1.05046e-07
1.03912e-07
1.03912e-07
1.05132e-07
1.03826e-07
1.05046e-07
1.05046e-07
1.03912e-07
1.03912e-07
1.05046e-07
1.03912e-07
1.03912e-07
1.05132e-07
1.03826e-07
1.05046e-07
1.03912e-07
1.03912e-07
1.03826e-07
1.0362e-07
1.02315e-07
1.03534e-07
1.03534e-07
1.02401e-07
1.02401e-07
1.0362e-07
1.02315e-07
1.03534e-07
1.03534e-07
1.02401e-07
1.02401e-07
1.03534e-07
1.02401e-07
1.02401e-07
1.0362e-07
1.02315e-07
1.03534e-07
1.02401e-07
1.02401e-07
1.02315e-07
1.02109e-07
1.00803e-07
1.02023e-07
1.02023e-07
1.00889e-07
1.00889e-07
1.02109e-07
1.00803e-07
1.02023e-07
1.02023e-07
1.00889e-07
1.00889e-07
1.02023e-07
1.00889e-07
1.00889e-07
1.02109e-07
1.00803e-07
1.02023e-07
1.00889e-07
1.00889e-07
1.00803e-07
1.00598e-07
9.92922e-08
1.00512e-07
1.00512e-07
9.93782e-08
9.93782e-08
1.00598e-07
9.92922e-08
1.00512e-07
1.00512e-07
9.93782e-08
9.93782e-08
1.00512e-07
9.93782e-08
9.93782e-08
1.00598e-07
9.92922e-08
1.00512e-07
9.93782e-08
9.93782e-08
9.92922e-08
9.90865e-08
9.7781e-08
9.90004e-08
9.90004e-08
9.7867e-08
9.7867e-08
9.90865e-08
9.7781e-08
9.90004e-08
9.90004e-08
9.7867e-08
9.7867e-08
9.90004e-08
9.7867e-08
9.7867e-08
9.90865e-08
9.7781e-08
9.90004e-08
9.7867e-08
9.7867e-08
9.7781e-08
9.75752e-08
9.62698e-08
9.74892e-08
9.74892e-08
9.63558e-08
9.63558e-08
9.75752e-08
9.62698e-08
9.74892e-08
9.74892e-08
9.63558e-08
9.63558e-08
9.74892e-08
9.63558e-08
9.63558e-08
9.75752e-08
9.62698e-08
9.74892e-08
9.63558e-08
9.63558e-08
9.62698e-08
9.6064e-08
9.47586e-08
9.5978e-08
9.5978e-08
9.48446e-08
9.48446e-08
9.6064e-08
9.47586e-08
9.5978e-08
9.5978e-08
9.48446e-08
9.48446e-08
9.5978e-08
9.48446e-08
9.48446e-08
9.6064e-08
9.47586e-08
9.5978e-08
9.48446e-08
9.48446e-08
9.47586e-08
9.45528e-08
9.32473e-08
9.44667e-08
9.44667e-08
9.33333e-08
9.33333e-08
9.45528e-08
9.32473e-08
9.44667e-08
9.44667e-08
9.33333e-08
9.33333e-08
9.44667e-08
9.33333e-08
9.33333e-08
9.45528e-08
9.32473e-08
9.44667e-08
9.33333e-08
9.33333e-08
9.32473e-08
9.30416e-08
9.17361e-08
9.29555e-08
9.29555e-08
9.18221e-08
9.18221e-08
9.30416e-08
9.17361e-08
9.29555e-08
9.29555e-08
9.18221e-08
9.18221e-08
9.29555e-08
9.18221e-08
9.18221e-08
9.30416e-08
9.17361e-08
9.29555e-08
9.18221e-08
9.18221e-08
9.17361e-08
9.15303e-08
9.02249e-08
9.14443e-08
9.14443e-08
9.03109e-08
9.03109e-08
9.15304e-08
9.02249e-08
9.14443e-08
9.14443e-08
9.03109e-08
9.03109e-08
9.14443e-08
9.03109e-08
9.03109e-08
9.15304e-08
9.02249e-08
9.14443e-08
9.03109e-08
9.03109e-08
9.02249e-08
9.00192e-08
8.87138e-08
8.99331e-08
8.99331e-08
8.87998e-08
8.87998e-08
9.00192e-08
8.87138e-08
8.99331e-08
8.99331e-08
8.87998e-08
8.87998e-08
8.99331e-08
8.87998e-08
8.87998e-08
9.00192e-08
8.87138e-08
8.99331e-08
8.87998e-08
8.87998e-08
8.87138e-08
8.8508e-08
8.72027e-08
8.8422e-08
8.8422e-08
8.72887e-08
8.72887e-08
8.8508e-08
8.72027e-08
8.8422e-08
8.8422e-08
8.72887e-08
8.72887e-08
8.8422e-08
8.72887e-08
8.72887e-08
8.8508e-08
8.72027e-08
8.8422e-08
8.72887e-08
8.72887e-08
8.72027e-08
8.69969e-08
8.56916e-08
8.69109e-08
8.69109e-08
8.57776e-08
8.57776e-08
8.69969e-08
8.56916e-08
8.69109e-08
8.69109e-08
8.57776e-08
8.57776e-08
8.69109e-08
8.57776e-08
8.57776e-08
8.69969e-08
8.56916e-08
8.69109e-08
8.57776e-08
8.57776e-08
8.56916e-08
8.54858e-08
8.41805e-08
8.53998e-08
8.53998e-08
8.42665e-08
8.42665e-08
8.54858e-08
8.41805e-08
8.53998e-08
8.53998e-08
8.42665e-08
8.42665e-08
8.53998e-08
8.42665e-08
8.42665e-08
8.54858e-08
8.41805e-08
8.53998e-08
8.42665e-08
8.42665e-08
8.41805e-08
8.39747e-08
8.26694e-08
8.38887e-08
8.38887e-08
8.27554e-08
8.27554e-08
8.39747e-08
8.26694e-08
8.38887e-08
8.38887e-08
8.27554e-08
8.27554e-08
8.38887e-08
8.27554e-08
8.27554e-08
8.39748e-08
8.26694e-08
8.38887e-08
8.27554e-08
8.27554e-08
8.26694e-08
8.24636e-08
8.11583e-08
8.23776e-08
8.23776e-08
8.12442e-08
8.12442e-08
8.24636e-08
8.11583e-08
8.23776e-08
8.23776e-08
8.12442e-08
8.12442e-08
8.23776e-08
8.12442e-08
8.12442e-08
8.24636e-08
8.11582e-08
8.23776e-08
8.12442e-08
8.12442e-08
8.11582e-08
8.09525e-08
7.96471e-08
8.08664e-08
8.08664e-08
7.97331e-08
7.97331e-08
8.09525e-08
7.96471e-08
8.08664e-08
8.08664e-08
7.97331e-08
7.97331e-08
8.08664e-08
7.97331e-08
7.97331e-08
8.09525e-08
7.96471e-08
8.08664e-08
7.97331e-08
7.97331e-08
7.96471e-08
7.94413e-08
7.81359e-08
7.93553e-08
7.93553e-08
7.82219e-08
7.82219e-08
7.94413e-08
7.81359e-08
7.93553e-08
7.93553e-08
7.82219e-08
7.82219e-08
7.93553e-08
7.82219e-08
7.82219e-08
7.94413e-08
7.81359e-08
7.93553e-08
7.82219e-08
7.82219e-08
7.81359e-08
7.79302e-08
7.66248e-08
7.78441e-08
7.78441e-08
7.67108e-08
7.67108e-08
7.79302e-08
7.66248e-08
7.78441e-08
7.78441e-08
7.67108e-08
7.67108e-08
7.78441e-08
7.67108e-08
7.67108e-08
7.79302e-08
7.66248e-08
7.78441e-08
7.67108e-08
7.67108e-08
7.66248e-08
7.6419e-08
7.51137e-08
7.6333e-08
7.6333e-08
7.51996e-08
7.51996e-08
7.6419e-08
7.51137e-08
7.6333e-08
7.6333e-08
7.51996e-08
7.51996e-08
7.6333e-08
7.51996e-08
7.51996e-08
7.6419e-08
7.51137e-08
7.6333e-08
7.51996e-08
7.51996e-08
7.51136e-08
7.49079e-08
7.36025e-08
7.48219e-08
7.48219e-08
7.36885e-08
7.36885e-08
7.49079e-08
7.36025e-08
7.48219e-08
7.48219e-08
7.36885e-08
7.36885e-08
7.48219e-08
7.36885e-08
7.36885e-08
7.49079e-08
7.36025e-08
7.48219e-08
7.36885e-08
7.36885e-08
7.36025e-08
7.33967e-08
7.20913e-08
7.33107e-08
7.33107e-08
7.21773e-08
7.21773e-08
7.33967e-08
7.20913e-08
7.33107e-08
7.33107e-08
7.21773e-08
7.21773e-08
7.33107e-08
7.21773e-08
7.21773e-08
7.33967e-08
7.20913e-08
7.33107e-08
7.21773e-08
7.21773e-08
7.20913e-08
7.18855e-08
7.05801e-08
7.17995e-08
7.17995e-08
7.06661e-08
7.06661e-08
7.18855e-08
7.05801e-08
7.17995e-08
7.17995e-08
7.06661e-08
7.06661e-08
7.17995e-08
7.06661e-08
7.06661e-08
7.18855e-08
7.05801e-08
7.17995e-08
7.06661e-08
7.06661e-08
7.05801e-08
7.03743e-08
6.90688e-08
7.02882e-08
7.02882e-08
6.91548e-08
6.91548e-08
7.03743e-08
6.90688e-08
7.02882e-08
7.02882e-08
6.91548e-08
6.91548e-08
7.02882e-08
6.91548e-08
6.91548e-08
7.03743e-08
6.90688e-08
7.02882e-08
6.91548e-08
6.91548e-08
6.90688e-08
6.8863e-08
6.75574e-08
6.87769e-08
6.87769e-08
6.76434e-08
6.76434e-08
6.8863e-08
6.75574e-08
6.87769e-08
6.87769e-08
6.76434e-08
6.76434e-08
6.87769e-08
6.76434e-08
6.76434e-08
6.8863e-08
6.75574e-08
6.87769e-08
6.76434e-08
6.76434e-08
6.75574e-08
6.73517e-08
6.60461e-08
6.72656e-08
6.72656e-08
6.61321e-08
6.61321e-08
6.73517e-08
6.60461e-08
6.72656e-08
6.72656e-08
6.61321e-08
6.61321e-08
6.72656e-08
6.61321e-08
6.61321e-08
6.73517e-08
6.60461e-08
6.72656e-08
6.61321e-08
6.61321e-08
6.60461e-08
6.58403e-08
6.45348e-08
6.57543e-08
6.57543e-08
6.46208e-08
6.46208e-08
6.58403e-08
6.45348e-08
6.57543e-08
6.57543e-08
6.46208e-08
6.46208e-08
6.57543e-08
6.46208e-08
6.46208e-08
6.58403e-08
6.45348e-08
6.57543e-08
6.46208e-08
6.46208e-08
6.45348e-08
6.4329e-08
6.30235e-08
6.4243e-08
6.4243e-08
6.31095e-08
6.31095e-08
6.4329e-08
6.30235e-08
6.4243e-08
6.4243e-08
6.31095e-08
6.31095e-08
6.4243e-08
6.31095e-08
6.31095e-08
6.4329e-08
6.30235e-08
6.4243e-08
6.31095e-08
6.31095e-08
6.30235e-08
6.28177e-08
6.15122e-08
6.27317e-08
6.27317e-08
6.15982e-08
6.15982e-08
6.28177e-08
6.15122e-08
6.27317e-08
6.27317e-08
6.15982e-08
6.15982e-08
6.27317e-08
6.15982e-08
6.15982e-08
6.28177e-08
6.15122e-08
6.27317e-08
6.15982e-08
6.15982e-08
6.15122e-08
6.13064e-08
6.00009e-08
6.12204e-08
6.12204e-08
6.00869e-08
6.00869e-08
6.13064e-08
6.00009e-08
6.12204e-08
6.12204e-08
6.00869e-08
6.00869e-08
6.12204e-08
6.00869e-08
6.00869e-08
6.13064e-08
6.00009e-08
6.12204e-08
6.00869e-08
6.00869e-08
6.00009e-08
5.97951e-08
5.84896e-08
5.97091e-08
5.97091e-08
5.85756e-08
5.85756e-08
5.97951e-08
5.84896e-08
5.97091e-08
5.97091e-08
5.85756e-08
5.85756e-08
5.97091e-08
5.85756e-08
5.85756e-08
5.97951e-08
5.84896e-08
5.97091e-08
5.85756e-08
5.85756e-08
5.84896e-08
5.82838e-08
5.69782e-08
5.81977e-08
5.81977e-08
5.70642e-08
5.70642e-08
5.82838e-08
5.69782e-08
5.81977e-08
5.81977e-08
5.70642e-08
5.70642e-08
5.81977e-08
5.70642e-08
5.70642e-08
5.82838e-08
5.69782e-08
5.81977e-08
5.70642e-08
5.70642e-08
5.69782e-08
5.67724e-08
5.54669e-08
5.66864e-08
5.66864e-08
5.55529e-08
5.55529e-08
5.67724e-08
5.54669e-08
5.66864e-08
5.66864e-08
5.55529e-08
5.55529e-08
5.66864e-08
5.55529e-08
5.55529e-08
5.67724e-08
5.54669e-08
5.66864e-08
5.55529e-08
5.55529e-08
5.54669e-08
5.52611e-08
5.39555e-08
5.5175e-08
5.5175e-08
5.40415e-08
5.40415e-08
5.52611e-08
5.39555e-08
5.5175e-08
5.5175e-08
5.40415e-08
5.40415e-08
5.5175e-08
5.40415e-08
5.40415e-08
5.52611e-08
5.39555e-08
5.5175e-08
5.40415e-08
5.40415e-08
5.39555e-08
5.37497e-08
5.24442e-08
5.36637e-08
5.36637e-08
5.25302e-08
5.25302e-08
5.37497e-08
5.24442e-08
5.36637e-08
5.36637e-08
5.25302e-08
5.25302e-08
5.36637e-08
5.25302e-08
5.25302e-08
5.37497e-08
5.24442e-08
5.36637e-08
5.25302e-08
5.25302e-08
5.24442e-08
5.22384e-08
5.09329e-08
5.21524e-08
5.21524e-08
5.10189e-08
5.10189e-08
5.22384e-08
5.09329e-08
5.21524e-08
5.21524e-08
5.10189e-08
5.10189e-08
5.21524e-08
5.10189e-08
5.10189e-08
5.22384e-08
5.09329e-08
5.21524e-08
5.10189e-08
5.10189e-08
5.09329e-08
5.07271e-08
4.94217e-08
5.06411e-08
5.06411e-08
4.95077e-08
4.95077e-08
5.07271e-08
4.94217e-08
5.06411e-08
5.06411e-08
4.95077e-08
4.95077e-08
5.06411e-08
4.95077e-08
4.95077e-08
5.07271e-08
4.94217e-08
5.06411e-08
4.95077e-08
4.95077e-08
4.94217e-08
4.92159e-08
4.79104e-08
4.91298e-08
4.91298e-08
4.79964e-08
4.79964e-08
4.92159e-08
4.79104e-08
4.91298e-08
4.91298e-08
4.79964e-08
4.79964e-08
4.91298e-08
4.79964e-08
4.79964e-08
4.92159e-08
4.79104e-08
4.91298e-08
4.79964e-08
4.79964e-08
4.79104e-08
4.77046e-08
4.63992e-08
4.76186e-08
4.76186e-08
4.64852e-08
4.64852e-08
4.77046e-08
4.63992e-08
4.76186e-08
4.76186e-08
4.64852e-08
4.64852e-08
4.76186e-08
4.64852e-08
4.64852e-08
4.77047e-08
4.63992e-08
4.76186e-08
4.64852e-08
4.64852e-08
4.63992e-08
4.61934e-08
4.4888e-08
4.61074e-08
4.61074e-08
4.4974e-08
4.4974e-08
4.61934e-08
4.4888e-08
4.61074e-08
4.61074e-08
4.4974e-08
4.4974e-08
4.61074e-08
4.4974e-08
4.4974e-08
4.61934e-08
4.4888e-08
4.61074e-08
4.4974e-08
4.4974e-08
4.4888e-08
4.46822e-08
4.33768e-08
4.45962e-08
4.45962e-08
4.34628e-08
4.34628e-08
4.46822e-08
4.33768e-08
4.45962e-08
4.45962e-08
4.34628e-08
4.34628e-08
4.45962e-08
4.34628e-08
4.34628e-08
4.46822e-08
4.33768e-08
4.45962e-08
4.34628e-08
4.34628e-08
4.33768e-08
4.3171e-08
4.18656e-08
4.3085e-08
4.3085e-08
4.19516e-08
4.19516e-08
4.3171e-08
4.18656e-08
4.3085e-08
4.3085e-08
4.19516e-08
4.19516e-08
4.3085e-08
4.19516e-08
4.19516e-08
4.3171e-08
4.18656e-08
4.3085e-08
4.19516e-08
4.19515e-08
4.18655e-08
4.16598e-08
4.03544e-08
4.15738e-08
4.15737e-08
4.04403e-08
4.04403e-08
4.16598e-08
4.03544e-08
4.15738e-08
4.15737e-08
4.04403e-08
4.04403e-08
4.15737e-08
4.04403e-08
4.04403e-08
4.16598e-08
4.03544e-08
4.15737e-08
4.04403e-08
4.04403e-08
4.03543e-08
4.01486e-08
3.88431e-08
4.00625e-08
4.00625e-08
3.89291e-08
3.89291e-08
4.01486e-08
3.88431e-08
4.00625e-08
4.00625e-08
3.89291e-08
3.89291e-08
4.00625e-08
3.89291e-08
3.89291e-08
4.01486e-08
3.88431e-08
4.00625e-08
3.89291e-08
3.89291e-08
3.88431e-08
3.86374e-08
3.73319e-08
3.85513e-08
3.85513e-08
3.74179e-08
3.74179e-08
3.86374e-08
3.73319e-08
3.85513e-08
3.85513e-08
3.74179e-08
3.74179e-08
3.85513e-08
3.74179e-08
3.74179e-08
3.86374e-08
3.73319e-08
3.85513e-08
3.74179e-08
3.74179e-08
3.73319e-08
3.71262e-08
3.58207e-08
3.70401e-08
3.70401e-08
3.59067e-08
3.59067e-08
3.71262e-08
3.58207e-08
3.70401e-08
3.70401e-08
3.59067e-08
3.59067e-08
3.70401e-08
3.59067e-08
3.59067e-08
3.71262e-08
3.58207e-08
3.70401e-08
3.59067e-08
3.59067e-08
3.58207e-08
3.5615e-08
3.43095e-08
3.55289e-08
3.55289e-08
3.43955e-08
3.43955e-08
3.5615e-08
3.43095e-08
3.55289e-08
3.55289e-08
3.43955e-08
3.43955e-08
3.55289e-08
3.43955e-08
3.43955e-08
3.5615e-08
3.43095e-08
3.55289e-08
3.43955e-08
3.43955e-08
3.43095e-08
3.41038e-08
3.27984e-08
3.40177e-08
3.40177e-08
3.28844e-08
3.28844e-08
3.41038e-08
3.27984e-08
3.40177e-08
3.40177e-08
3.28844e-08
3.28844e-08
3.40177e-08
3.28844e-08
3.28844e-08
3.41038e-08
3.27984e-08
3.40177e-08
3.28844e-08
3.28844e-08
3.27984e-08
3.25926e-08
3.12872e-08
3.25066e-08
3.25066e-08
3.13732e-08
3.13732e-08
3.25926e-08
3.12872e-08
3.25066e-08
3.25066e-08
3.13732e-08
3.13732e-08
3.25066e-08
3.13732e-08
3.13732e-08
3.25926e-08
3.12872e-08
3.25066e-08
3.13732e-08
3.13732e-08
3.12872e-08
3.10814e-08
2.9776e-08
3.09954e-08
3.09954e-08
2.9862e-08
2.9862e-08
3.10814e-08
2.9776e-08
3.09954e-08
3.09954e-08
2.9862e-08
2.9862e-08
3.09954e-08
2.9862e-08
2.9862e-08
3.10814e-08
2.9776e-08
3.09954e-08
2.9862e-08
2.9862e-08
2.9776e-08
2.95702e-08
2.82648e-08
2.94842e-08
2.94842e-08
2.83508e-08
2.83508e-08
2.95702e-08
2.82648e-08
2.94842e-08
2.94842e-08
2.83508e-08
2.83508e-08
2.94842e-08
2.83508e-08
2.83508e-08
2.95702e-08
2.82648e-08
2.94842e-08
2.83508e-08
2.83508e-08
2.82648e-08
2.8059e-08
2.67535e-08
2.7973e-08
2.7973e-08
2.68395e-08
2.68395e-08
2.8059e-08
2.67535e-08
2.7973e-08
2.7973e-08
2.68395e-08
2.68395e-08
2.7973e-08
2.68395e-08
2.68395e-08
2.8059e-08
2.67535e-08
2.7973e-08
2.68395e-08
2.68395e-08
2.67535e-08
2.65478e-08
2.52423e-08
2.64617e-08
2.64617e-08
2.53283e-08
2.53283e-08
2.65478e-08
2.52423e-08
2.64617e-08
2.64617e-08
2.53283e-08
2.53283e-08
2.64617e-08
2.53283e-08
2.53283e-08
2.65478e-08
2.52423e-08
2.64617e-08
2.53283e-08
2.53283e-08
2.52423e-08
2.50365e-08
2.3731e-08
2.49504e-08
2.49504e-08
2.3817e-08
2.3817e-08
2.50365e-08
2.3731e-08
2.49504e-08
2.49504e-08
2.3817e-08
2.3817e-08
2.49504e-08
2.3817e-08
2.3817e-08
2.50365e-08
2.3731e-08
2.49504e-08
2.3817e-08
2.3817e-08
2.3731e-08
2.35252e-08
2.22198e-08
2.34392e-08
2.34392e-08
2.23058e-08
2.23058e-08
2.35252e-08
2.22198e-08
2.34392e-08
2.34392e-08
2.23058e-08
2.23058e-08
2.34392e-08
2.23058e-08
2.23058e-08
2.35253e-08
2.22198e-08
2.34392e-08
2.23058e-08
2.23058e-08
2.22198e-08
2.2014e-08
2.07086e-08
2.1928e-08
2.1928e-08
2.07946e-08
2.07946e-08
2.2014e-08
2.07086e-08
2.1928e-08
2.1928e-08
2.07946e-08
2.07946e-08
2.1928e-08
2.07946e-08
2.07946e-08
2.2014e-08
2.07086e-08
2.1928e-08
2.07946e-08
2.07946e-08
2.07086e-08
2.05028e-08
1.91974e-08
2.04168e-08
2.04168e-08
1.92834e-08
1.92834e-08
2.05028e-08
1.91974e-08
2.04168e-08
2.04168e-08
1.92834e-08
1.92834e-08
2.04168e-08
1.92834e-08
1.92834e-08
2.05028e-08
1.91974e-08
2.04168e-08
1.92834e-08
1.92834e-08
1.91974e-08
1.89917e-08
1.76862e-08
1.89056e-08
1.89056e-08
1.77722e-08
1.77722e-08
1.89916e-08
1.76862e-08
1.89056e-08
1.89056e-08
1.77722e-08
1.77722e-08
1.89056e-08
1.77722e-08
1.77722e-08
1.89917e-08
1.76862e-08
1.89056e-08
1.77722e-08
1.77722e-08
1.76862e-08
1.74805e-08
1.6175e-08
1.73944e-08
1.73944e-08
1.6261e-08
1.6261e-08
1.74805e-08
1.6175e-08
1.73944e-08
1.73944e-08
1.6261e-08
1.6261e-08
1.73944e-08
1.6261e-08
1.6261e-08
1.74805e-08
1.6175e-08
1.73944e-08
1.6261e-08
1.6261e-08
1.6175e-08
1.59693e-08
1.46638e-08
1.58832e-08
1.58832e-08
1.47498e-08
1.47498e-08
1.59693e-08
1.46638e-08
1.58832e-08
1.58832e-08
1.47498e-08
1.47498e-08
1.58832e-08
1.47498e-08
1.47498e-08
1.59693e-08
1.46638e-08
1.58832e-08
1.47498e-08
1.47498e-08
1.46638e-08
1.4458e-08
1.31526e-08
1.4372e-08
1.4372e-08
1.32386e-08
1.32386e-08
1.4458e-08
1.31526e-08
1.4372e-08
1.4372e-08
1.32386e-08
1.32386e-08
1.4372e-08
1.32386e-08
1.32386e-08
1.4458e-08
1.31526e-08
1.4372e-08
1.32386e-08
1.32386e-08
1.31526e-08
1.29468e-08
1.16414e-08
1.28608e-08
1.28608e-08
1.17274e-08
1.17274e-08
1.29468e-08
1.16414e-08
1.28608e-08
1.28608e-08
1.17274e-08
1.17274e-08
1.28608e-08
1.17274e-08
1.17274e-08
1.29468e-08
1.16414e-08
1.28608e-08
1.17274e-08
1.17274e-08
1.16414e-08
1.14357e-08
1.01303e-08
1.13496e-08
1.13496e-08
1.02163e-08
1.02163e-08
1.14357e-08
1.01303e-08
1.13496e-08
1.13496e-08
1.02163e-08
1.02163e-08
1.13496e-08
1.02163e-08
1.02163e-08
1.14357e-08
1.01303e-08
1.13496e-08
1.02163e-08
1.02163e-08
1.01303e-08
9.92452e-09
8.61914e-09
9.83848e-09
9.83848e-09
8.70513e-09
8.70513e-09
9.92452e-09
8.61914e-09
9.83848e-09
9.83848e-09
8.70513e-09
8.70513e-09
9.83848e-09
8.70513e-09
8.70513e-09
9.92452e-09
8.61914e-09
9.83848e-09
8.70513e-09
8.70513e-09
8.61913e-09
8.41339e-09
7.10801e-09
8.32735e-09
8.32735e-09
7.19399e-09
7.19399e-09
8.41339e-09
7.10801e-09
8.32735e-09
8.32735e-09
7.19399e-09
7.19399e-09
8.32735e-09
7.19399e-09
7.19399e-09
8.41339e-09
7.10801e-09
8.32735e-09
7.19399e-09
7.19399e-09
7.108e-09
6.90226e-09
5.59688e-09
6.81624e-09
6.81623e-09
5.68286e-09
5.68286e-09
6.90226e-09
5.59688e-09
6.81624e-09
6.81623e-09
5.68286e-09
5.68286e-09
6.81623e-09
5.68286e-09
5.68286e-09
6.90226e-09
5.59687e-09
6.81623e-09
5.68286e-09
5.68286e-09
5.59686e-09
5.39115e-09
4.08559e-09
5.3052e-09
5.3052e-09
4.17159e-09
4.17159e-09
5.39115e-09
4.08558e-09
5.3052e-09
5.3052e-09
4.17159e-09
4.17158e-09
5.3052e-09
4.17158e-09
4.17159e-09
5.39115e-09
4.08558e-09
5.3052e-09
4.17159e-09
4.17158e-09
4.08557e-09
3.87996e-09
2.5754e-09
3.79437e-09
3.79436e-09
2.66046e-09
2.66046e-09
3.87995e-09
2.57539e-09
3.79436e-09
3.79436e-09
2.66047e-09
2.66045e-09
3.79436e-09
2.66047e-09
2.66045e-09
3.87996e-09
2.57538e-09
3.79436e-09
2.66046e-09
2.66045e-09
2.57538e-09
2.37281e-09
1.02286e-09
2.28834e-09
2.28833e-09
1.06257e-09
1.06255e-09
2.3728e-09
1.02286e-09
2.28837e-09
2.28832e-09
1.06259e-09
1.06253e-09
2.28831e-09
1.06257e-09
1.06252e-09
2.3728e-09
1.02286e-09
2.28835e-09
1.06255e-09
1.06254e-09
1.02285e-09
8.77261e-10
8.93027e-10
8.93004e-10
8.77251e-10
8.93042e-10
8.92987e-10
9.34781e-10
9.34772e-10
9.34753e-10
8.9296e-10
8.77232e-10
8.92992e-10
1.46482e-07
1.471e-07
1.46768e-07
1.46768e-07
1.48505e-07
1.47362e-07
1.49887e-07
1.46991e-07
1.48505e-07
1.47362e-07
1.46991e-07
1.49888e-07
1.47659e-07
1.50322e-07
1.50322e-07
1.43839e-07
1.45096e-07
1.45111e-07
1.43802e-07
1.45035e-07
1.43786e-07
1.43839e-07
1.45096e-07
1.45111e-07
1.43802e-07
1.45349e-07
1.45349e-07
1.45349e-07
1.42886e-07
1.42886e-07
1.42886e-07
1.42886e-07
1.43902e-07
1.45149e-07
1.45361e-07
1.44183e-07
1.45185e-07
1.43852e-07
1.44236e-07
1.45035e-07
1.43785e-07
1.43902e-07
1.45361e-07
1.45149e-07
1.44183e-07
1.45185e-07
1.44236e-07
1.43852e-07
1.45167e-07
1.45167e-07
1.44017e-07
1.43835e-07
1.43835e-07
1.41416e-07
1.4222e-07
1.4224e-07
1.41402e-07
1.42214e-07
1.41397e-07
1.41416e-07
1.4222e-07
1.4224e-07
1.41402e-07
1.42252e-07
1.42252e-07
1.42252e-07
1.40584e-07
1.40584e-07