/*--------------------------------*- C++ -*----------------------------------*\
| =========                 |                                                 |
| \\      /  F ield         | OpenFOAM: The Open Source CFD Toolbox           |
|  \\    /   O peration     | Version:  2312                                  |
|   \\  /    A nd           | Website:  www.openfoam.com                      |
|    \\/     M anipulation  |                                                 |
\*---------------------------------------------------------------------------*/
FoamFile
{
    version     2.0;
    format      ascii;
    arch        "LSB;label=32;scalar=64";
    class       volScalarField;
    location    "750";
    object      k;
}
// * * * * * * * * * * * * * * * * * * * * * * * * * * * * * * * * * * * * * //

dimensions      [0 2 -2 0 0 0 0];

internalField   nonuniform List<scalar> 
43120
(
1.49359e-05
1.6152e-05
1.61521e-05
1.81332e-05
1.46131e-05
1.62906e-05
1.62908e-05
1.87281e-05
1.43367e-05
1.65188e-05
1.65191e-05
1.94275e-05
1.41065e-05
1.68344e-05
1.68348e-05
2.02207e-05
1.3922e-05
1.72341e-05
1.72347e-05
2.10945e-05
1.37829e-05
1.77145e-05
1.77153e-05
2.20359e-05
1.36892e-05
1.82717e-05
1.82726e-05
2.30309e-05
1.36407e-05
1.89007e-05
1.89018e-05
2.40652e-05
1.36375e-05
1.95971e-05
1.95983e-05
2.51263e-05
1.36798e-05
2.03548e-05
2.03563e-05
2.62022e-05
1.37682e-05
2.11685e-05
2.11702e-05
2.72836e-05
1.39031e-05
2.2032e-05
2.20337e-05
2.83617e-05
1.40836e-05
2.29383e-05
2.29404e-05
2.94302e-05
1.43118e-05
2.38824e-05
2.38845e-05
3.04851e-05
1.4586e-05
2.48564e-05
2.48588e-05
3.1522e-05
1.49067e-05
2.58548e-05
2.58575e-05
3.25387e-05
1.52742e-05
2.68711e-05
2.68739e-05
3.35333e-05
1.56868e-05
2.78989e-05
2.7902e-05
3.45048e-05
1.61441e-05
2.89326e-05
2.89359e-05
3.54517e-05
1.66452e-05
2.99679e-05
2.99714e-05
3.63739e-05
1.7188e-05
3.09992e-05
3.10028e-05
3.72701e-05
1.77712e-05
3.20244e-05
3.20281e-05
3.81427e-05
1.83925e-05
3.30363e-05
3.30403e-05
3.89894e-05
1.90485e-05
3.4033e-05
3.4037e-05
3.98112e-05
1.97368e-05
3.50106e-05
3.50148e-05
4.06083e-05
2.04543e-05
3.59668e-05
3.5971e-05
4.13801e-05
3.69044e-05
1.80239e-05
1.61312e-05
1.61315e-05
1.8024e-05
1.61316e-05
1.61317e-05
1.61313e-05
1.61315e-05
1.80243e-05
1.61316e-05
1.61322e-05
1.80247e-05
1.81325e-05
1.85958e-05
1.61518e-05
1.61522e-05
1.62473e-05
1.62476e-05
1.81325e-05
1.8596e-05
1.61522e-05
1.61524e-05
1.62475e-05
1.6248e-05
1.61522e-05
1.62472e-05
1.62477e-05
1.81328e-05
1.85965e-05
1.61527e-05
1.62476e-05
1.62483e-05
1.85969e-05
1.87271e-05
1.92746e-05
1.62906e-05
1.6291e-05
1.64535e-05
1.64539e-05
1.87271e-05
1.92747e-05
1.62908e-05
1.62913e-05
1.64536e-05
1.64544e-05
1.62911e-05
1.64533e-05
1.6454e-05
1.87276e-05
1.92753e-05
1.62916e-05
1.64538e-05
1.64545e-05
1.92759e-05
1.94265e-05
2.00486e-05
1.6519e-05
1.65194e-05
1.67477e-05
1.67482e-05
1.94265e-05
2.00487e-05
1.65191e-05
1.65199e-05
1.67477e-05
1.67488e-05
1.65195e-05
1.67474e-05
1.67484e-05
1.94271e-05
2.00494e-05
1.65199e-05
1.67479e-05
1.67487e-05
2.00502e-05
2.02193e-05
2.09056e-05
1.68347e-05
1.68352e-05
1.71269e-05
1.71274e-05
2.02193e-05
2.09057e-05
1.68347e-05
1.68359e-05
1.71267e-05
1.71281e-05
1.68354e-05
1.71263e-05
1.71277e-05
2.022e-05
2.09066e-05
1.68356e-05
1.7127e-05
1.71278e-05
2.09075e-05
2.10928e-05
2.18329e-05
1.72347e-05
1.72352e-05
1.75878e-05
1.75884e-05
2.10928e-05
2.18329e-05
1.72344e-05
1.72359e-05
1.75874e-05
1.75892e-05
1.72356e-05
1.75871e-05
1.75888e-05
2.10937e-05
2.1834e-05
1.72355e-05
1.75879e-05
1.75887e-05
2.18349e-05
2.20342e-05
2.2816e-05
1.77154e-05
1.77159e-05
1.81263e-05
1.81269e-05
2.20341e-05
2.2816e-05
1.77149e-05
1.77168e-05
1.81256e-05
1.81279e-05
1.77164e-05
1.81253e-05
1.81275e-05
2.20351e-05
2.28172e-05
1.7716e-05
1.81263e-05
1.81271e-05
2.28184e-05
2.30287e-05
2.38414e-05
1.82727e-05
1.82733e-05
1.87382e-05
1.87387e-05
2.30287e-05
2.38415e-05
1.82719e-05
1.82743e-05
1.87372e-05
1.87399e-05
1.8274e-05
1.87369e-05
1.87395e-05
2.30298e-05
2.38428e-05
1.82733e-05
1.87381e-05
1.87388e-05
2.38439e-05
2.4063e-05
2.48956e-05
1.8902e-05
1.89025e-05
1.94184e-05
1.94189e-05
2.40629e-05
2.48958e-05
1.89009e-05
1.89037e-05
1.94171e-05
1.94202e-05
1.89034e-05
1.94169e-05
1.942e-05
2.40642e-05
2.48972e-05
1.89024e-05
1.94182e-05
1.94188e-05
2.48985e-05
2.51238e-05
2.59674e-05
1.95985e-05
1.95991e-05
2.01616e-05
2.0162e-05
2.51238e-05
2.59674e-05
1.95972e-05
1.96003e-05
2.01599e-05
2.01634e-05
1.96002e-05
2.01598e-05
2.01633e-05
2.51252e-05
2.5969e-05
1.95988e-05
2.01614e-05
2.01618e-05
2.59703e-05
2.61996e-05
2.70464e-05
2.03565e-05
2.0357e-05
2.09621e-05
2.09625e-05
2.61995e-05
2.70464e-05
2.03549e-05
2.03585e-05
2.09601e-05
2.0964e-05
2.03584e-05
2.09601e-05
2.09641e-05
2.62011e-05
2.70481e-05
2.03566e-05
2.09619e-05
2.09621e-05
2.70495e-05
2.72809e-05
2.8124e-05
2.11702e-05
2.11708e-05
2.18142e-05
2.18142e-05
2.72808e-05
2.81239e-05
2.11683e-05
2.11724e-05
2.18118e-05
2.18158e-05
2.11726e-05
2.18118e-05
2.18161e-05
2.72825e-05
2.81258e-05
2.11704e-05
2.18136e-05
2.18136e-05
2.81271e-05
2.83592e-05
2.91928e-05
2.20343e-05
2.20344e-05
2.271e-05
2.27104e-05
2.83589e-05
2.91931e-05
2.20321e-05
2.2036e-05
2.27073e-05
2.27122e-05
2.20363e-05
2.27079e-05
2.27127e-05
2.83606e-05
2.91951e-05
2.20336e-05
2.271e-05
2.27098e-05
2.91965e-05
2.94267e-05
3.02503e-05
2.294e-05
2.29407e-05
2.36458e-05
2.36457e-05
2.94271e-05
3.025e-05
2.29375e-05
2.29426e-05
2.36429e-05
2.36476e-05
2.29432e-05
2.36432e-05
2.36482e-05
2.94291e-05
3.02519e-05
2.29401e-05
2.36454e-05
2.36449e-05
3.02533e-05
3.04828e-05
3.129e-05
2.3885e-05
2.38849e-05
2.46132e-05
2.46129e-05
3.04822e-05
3.12899e-05
2.38822e-05
2.38867e-05
2.46099e-05
2.4615e-05
2.38875e-05
2.46104e-05
2.46157e-05
3.0484e-05
3.12918e-05
2.3884e-05
2.46129e-05
2.46121e-05
3.12933e-05
3.1519e-05
3.23095e-05
2.48588e-05
2.48589e-05
2.56055e-05
2.56055e-05
3.15189e-05
3.23097e-05
2.48556e-05
2.48609e-05
2.5602e-05
2.56078e-05
2.48618e-05
2.5603e-05
2.56089e-05
3.15209e-05
3.2312e-05
2.48579e-05
2.56059e-05
2.56049e-05
3.23134e-05
3.25353e-05
3.33094e-05
2.58571e-05
2.58572e-05
2.66187e-05
2.66181e-05
3.25353e-05
3.33091e-05
2.58537e-05
2.58593e-05
2.6615e-05
2.66204e-05
2.58607e-05
2.66158e-05
2.66215e-05
3.25375e-05
3.33111e-05
2.58564e-05
2.66186e-05
2.66172e-05
3.33123e-05
3.35309e-05
3.42849e-05
2.6874e-05
2.68734e-05
2.76439e-05
2.76432e-05
3.35304e-05
3.42847e-05
2.68704e-05
2.68756e-05
2.764e-05
2.76458e-05
2.6877e-05
2.7641e-05
2.76472e-05
3.35323e-05
3.4287e-05
2.68724e-05
2.76442e-05
2.76426e-05
3.42883e-05
3.45017e-05
3.52371e-05
2.79015e-05
2.7901e-05
2.86768e-05
2.86759e-05
3.45014e-05
3.52369e-05
2.78977e-05
2.79034e-05
2.86727e-05
2.86785e-05
2.79052e-05
2.86738e-05
2.86801e-05
3.45037e-05
3.52393e-05
2.79003e-05
2.86771e-05
2.86752e-05
3.52404e-05
3.54489e-05
3.61646e-05
2.89354e-05
2.89346e-05
2.9712e-05
2.9711e-05
3.54485e-05
3.61642e-05
2.89314e-05
2.89371e-05
2.97078e-05
2.97136e-05
2.89389e-05
2.97092e-05
2.97155e-05
3.54508e-05
3.61667e-05
2.89339e-05
2.97127e-05
2.97105e-05
3.61678e-05
3.63709e-05
3.70668e-05
2.99708e-05
2.99697e-05
3.07453e-05
3.07435e-05
3.63706e-05
3.7066e-05
2.99665e-05
2.99723e-05
3.07409e-05
3.07464e-05
2.99742e-05
3.07419e-05
3.07483e-05
3.6373e-05
3.70686e-05
2.9969e-05
3.07456e-05
3.07432e-05
3.70695e-05
3.72675e-05
3.79441e-05
3.10024e-05
3.10008e-05
3.17718e-05
3.17704e-05
3.72668e-05
3.79438e-05
3.0998e-05
3.10036e-05
3.17673e-05
3.17733e-05
3.10057e-05
3.1769e-05
3.17755e-05
3.72693e-05
3.79465e-05
3.10003e-05
3.17729e-05
3.17702e-05
3.79474e-05
3.81396e-05
3.87973e-05
3.20271e-05
3.20257e-05
3.2788e-05
3.27859e-05
3.81394e-05
3.87964e-05
3.20226e-05
3.20286e-05
3.27835e-05
3.27892e-05
3.20308e-05
3.27847e-05
3.27912e-05
3.8142e-05
3.87993e-05
3.20253e-05
3.27891e-05
3.2786e-05
3.88e-05
3.89869e-05
3.96245e-05
3.30397e-05
3.30374e-05
3.37885e-05
3.37861e-05
3.8986e-05
3.96237e-05
3.30351e-05
3.30405e-05
3.37839e-05
3.37894e-05
3.30427e-05
3.37853e-05
3.37916e-05
3.89889e-05
3.96265e-05
3.30373e-05
3.37895e-05
3.37863e-05
3.96272e-05
3.98086e-05
4.04274e-05
3.4036e-05
3.40337e-05
3.47712e-05
3.47686e-05
3.9808e-05
4.04267e-05
3.40313e-05
3.40369e-05
3.47665e-05
3.47721e-05
3.40392e-05
3.47681e-05
3.47743e-05
3.98107e-05
4.04296e-05
3.40338e-05
3.47725e-05
3.47691e-05
4.04302e-05
4.06058e-05
4.12051e-05
3.50137e-05
3.5011e-05
3.57332e-05
3.57302e-05
4.0605e-05
4.12042e-05
3.5009e-05
3.50144e-05
3.57284e-05
3.57336e-05
3.50167e-05
3.57299e-05
3.57358e-05
4.06079e-05
4.12071e-05
3.50114e-05
3.57342e-05
3.57305e-05
4.12075e-05
4.13779e-05
4.19582e-05
3.59699e-05
3.59669e-05
3.66719e-05
3.66688e-05
4.1377e-05
4.19573e-05
3.59652e-05
3.59704e-05
3.66672e-05
3.66725e-05
3.59727e-05
3.66689e-05
3.66749e-05
4.13799e-05
4.19604e-05
3.59673e-05
3.66734e-05
3.66698e-05
4.1961e-05
3.69034e-05
4.21277e-05
1.50238e-05
1.50238e-05
1.50238e-05
1.50239e-05
6.96829e-05
1.6109e-05
4.43449e-05
5.35412e-05
7.00368e-05
5.29185e-05
7.0063e-05
6.96279e-05
6.96067e-05
5.35409e-05
7.00378e-05
5.29182e-05
7.00641e-05
1.49359e-05
1.49359e-05
1.49359e-05
1.46892e-05
1.46892e-05
1.46892e-05
1.46893e-05
2.93899e-05
4.5212e-05
1.49104e-05
1.6178e-05
2.88256e-05
4.56349e-05
1.48602e-05
6.9628e-05
6.96068e-05
2.9391e-05
1.49104e-05
4.52064e-05
1.61783e-05
2.88266e-05
1.48603e-05
4.56418e-05
5.90068e-05
5.90161e-05
1.82965e-05
5.92928e-05
5.93022e-05
5.48586e-05
7.00958e-05
5.43369e-05
7.01192e-05
6.95555e-05
6.95362e-05
5.48583e-05
7.0097e-05
5.43367e-05
7.01204e-05
1.46131e-05
1.46131e-05
1.46132e-05
1.44013e-05
1.44013e-05
1.44014e-05
1.44015e-05
3.10945e-05
4.64299e-05
1.47387e-05
1.63391e-05
3.05314e-05
4.6826e-05
1.47053e-05
6.95557e-05
6.95363e-05
3.10994e-05
1.47388e-05
4.64247e-05
1.63395e-05
3.05292e-05
1.47055e-05
4.68325e-05
5.96671e-05
5.96763e-05
1.8924e-05
5.99205e-05
5.993e-05
5.59567e-05
7.0148e-05
5.5522e-05
7.01686e-05
6.94889e-05
6.94713e-05
5.59562e-05
7.01492e-05
5.55216e-05
7.01698e-05
1.43368e-05
1.43368e-05
1.43369e-05
1.41596e-05
1.41597e-05
1.41598e-05
1.41599e-05
3.27716e-05
4.75461e-05
1.4636e-05
1.65895e-05
3.22121e-05
4.79166e-05
1.46198e-05
6.94891e-05
6.94715e-05
3.27765e-05
1.46363e-05
4.75411e-05
1.659e-05
3.22097e-05
1.46201e-05
4.79228e-05
6.02533e-05
6.02624e-05
1.96518e-05
6.04799e-05
6.04892e-05
5.68723e-05
7.01935e-05
5.65089e-05
7.02116e-05
6.94279e-05
6.94122e-05
5.68717e-05
7.01948e-05
5.65084e-05
7.02129e-05
1.41066e-05
1.41067e-05
1.41068e-05
1.39636e-05
1.39637e-05
1.39639e-05
1.3964e-05
3.43864e-05
4.85676e-05
1.46033e-05
1.69264e-05
3.38397e-05
4.89141e-05
1.46058e-05
6.94281e-05
6.94123e-05
3.43912e-05
1.46037e-05
4.85628e-05
1.6927e-05
3.38376e-05
1.46061e-05
4.892e-05
6.07777e-05
6.07868e-05
2.04692e-05
6.09814e-05
6.09906e-05
5.76413e-05
7.02334e-05
5.73348e-05
7.02494e-05
6.93726e-05
6.93587e-05
5.76407e-05
7.02346e-05
5.73342e-05
7.02507e-05
1.3922e-05
1.39222e-05
1.39224e-05
1.38132e-05
1.38133e-05
1.38135e-05
1.38136e-05
3.59177e-05
4.95024e-05
1.46384e-05
1.73467e-05
3.53903e-05
4.98274e-05
1.46584e-05
6.93727e-05
6.93588e-05
3.59222e-05
1.46389e-05
4.94976e-05
1.73475e-05
3.53885e-05
1.46588e-05
4.98333e-05
6.12499e-05
6.12588e-05
2.13633e-05
6.14343e-05
6.14434e-05
5.82954e-05
7.02687e-05
5.80332e-05
7.02833e-05
6.9323e-05
6.93109e-05
5.82947e-05
7.02699e-05
5.80325e-05
7.02846e-05
1.3783e-05
1.37833e-05
1.37834e-05
1.3708e-05
1.37081e-05
1.37084e-05
1.37085e-05
3.73532e-05
5.03594e-05
1.47436e-05
1.78467e-05
3.68491e-05
5.06655e-05
1.47808e-05
6.93231e-05
6.9311e-05
3.73573e-05
1.47442e-05
5.03545e-05
1.78476e-05
3.68475e-05
1.47813e-05
5.06714e-05
6.16781e-05
6.1687e-05
2.23205e-05
6.18463e-05
6.18553e-05
5.88602e-05
7.03008e-05
5.86324e-05
7.03146e-05
6.9279e-05
6.92688e-05
5.88595e-05
7.03021e-05
5.86317e-05
7.03158e-05
1.36893e-05
1.36896e-05
1.36898e-05
1.3648e-05
1.36482e-05
1.36486e-05
1.36487e-05
3.86883e-05
5.11471e-05
1.49175e-05
1.84223e-05
3.82091e-05
5.14372e-05
1.49717e-05
6.92791e-05
6.92688e-05
3.86919e-05
1.49183e-05
5.11426e-05
1.84234e-05
3.82079e-05
1.49724e-05
5.14425e-05
6.20694e-05
6.20781e-05
2.33267e-05
6.2224e-05
6.22329e-05
5.93559e-05
7.03311e-05
5.91548e-05
7.03444e-05
6.92409e-05
6.92327e-05
5.93552e-05
7.03324e-05
5.9154e-05
7.03457e-05
1.36408e-05
1.36413e-05
1.36415e-05
1.36345e-05
1.36347e-05
1.36352e-05
1.36354e-05
3.99242e-05
5.18742e-05
1.51591e-05
1.90687e-05
3.94703e-05
5.21501e-05
1.52303e-05
6.92409e-05
6.92327e-05
3.99271e-05
1.51601e-05
5.18706e-05
1.90699e-05
3.94696e-05
1.52311e-05
5.21543e-05
6.24297e-05
6.24383e-05
2.43683e-05
6.2573e-05
6.25818e-05
5.97979e-05
7.03608e-05
5.96175e-05
7.03741e-05
6.92085e-05
6.92024e-05
5.97971e-05
7.03621e-05
5.96167e-05
7.03754e-05
1.36377e-05
1.36382e-05
1.36384e-05
1.3665e-05
1.36652e-05
1.36658e-05
1.3666e-05
4.10666e-05
5.25491e-05
1.54676e-05
1.97808e-05
4.06374e-05
5.28113e-05
1.55552e-05
6.92086e-05
6.92024e-05
4.10688e-05
1.54687e-05
5.25468e-05
1.97823e-05
4.06373e-05
1.55561e-05
5.28141e-05
6.27643e-05
6.27729e-05
2.5433e-05
6.28981e-05
6.29069e-05
6.01975e-05
7.03908e-05
6.00335e-05
7.04045e-05
6.9182e-05
6.91781e-05
6.01967e-05
7.03921e-05
6.00327e-05
7.04058e-05
1.36801e-05
1.36807e-05
1.36809e-05
1.3742e-05
1.37422e-05
1.37429e-05
1.37431e-05
4.21233e-05
5.31785e-05
1.5841e-05
2.05532e-05
4.17183e-05
5.34275e-05
1.59448e-05
6.9182e-05
6.91781e-05
4.21253e-05
1.58424e-05
5.31781e-05
2.05549e-05
4.17182e-05
1.59457e-05
5.34286e-05
6.30776e-05
6.30862e-05
2.65096e-05
6.32037e-05
6.32125e-05
6.05635e-05
7.0422e-05
6.04126e-05
7.04364e-05
6.91614e-05
6.91597e-05
6.05627e-05
7.04233e-05
6.04118e-05
7.04377e-05
1.37686e-05
1.37693e-05
1.37696e-05
1.38651e-05
1.38653e-05
1.38661e-05
1.38664e-05
4.31036e-05
5.3769e-05
1.62777e-05
2.13799e-05
4.27212e-05
5.40038e-05
1.63969e-05
6.91615e-05
6.91596e-05
4.31053e-05
1.62792e-05
5.37694e-05
2.13818e-05
4.27213e-05
1.6398e-05
5.40047e-05
6.33731e-05
6.33817e-05
2.75889e-05
6.34926e-05
6.35013e-05
6.09026e-05
7.04552e-05
6.07622e-05
7.04706e-05
6.91469e-05
6.91473e-05
6.09018e-05
7.04565e-05
6.07614e-05
7.04719e-05
1.39033e-05
1.39041e-05
1.39044e-05
1.40343e-05
1.40346e-05
1.40356e-05
1.40359e-05
4.4017e-05
5.4325e-05
1.67752e-05
2.22547e-05
4.36549e-05
5.45464e-05
1.69093e-05
6.91469e-05
6.91472e-05
4.40186e-05
1.67769e-05
5.43253e-05
2.22566e-05
4.36551e-05
1.69105e-05
5.45473e-05
6.36538e-05
6.36624e-05
2.86632e-05
6.37678e-05
6.37765e-05
6.12201e-05
7.0491e-05
6.1088e-05
7.05077e-05
6.91383e-05
6.91409e-05
6.12193e-05
7.04923e-05
6.10872e-05
7.0509e-05
1.40842e-05
1.40851e-05
1.40855e-05
1.42505e-05
1.42507e-05
1.42518e-05
1.42521e-05
4.48724e-05
5.48496e-05
1.73309e-05
2.3171e-05
4.45285e-05
5.50598e-05
1.74792e-05
6.91383e-05
6.91408e-05
4.48739e-05
1.73329e-05
5.48503e-05
2.31733e-05
4.4529e-05
1.74806e-05
5.5061e-05
6.39223e-05
6.39308e-05
2.97267e-05
6.4032e-05
6.40406e-05
6.15201e-05
7.053e-05
6.1395e-05
7.05479e-05
6.91356e-05
6.91403e-05
6.15194e-05
7.05313e-05
6.13942e-05
7.05492e-05
1.43121e-05
1.43132e-05
1.43135e-05
1.45133e-05
1.45136e-05
1.45148e-05
1.45151e-05
4.56776e-05
5.53476e-05
1.79424e-05
2.41233e-05
4.53514e-05
5.55473e-05
1.81041e-05
6.91356e-05
6.91402e-05
4.56789e-05
1.79445e-05
5.53488e-05
2.41256e-05
4.53523e-05
1.81056e-05
5.55491e-05
6.41806e-05
6.4189e-05
3.07757e-05
6.42862e-05
6.42948e-05
6.18065e-05
7.05723e-05
6.16865e-05
7.05919e-05
6.91387e-05
6.91454e-05
6.18057e-05
7.05736e-05
6.16857e-05
7.05932e-05
1.45865e-05
1.45877e-05
1.4588e-05
1.48222e-05
1.48227e-05
1.48242e-05
1.48245e-05
4.64402e-05
5.58212e-05
1.86061e-05
2.51038e-05
4.61305e-05
5.60119e-05
1.87803e-05
6.91386e-05
6.91453e-05
4.64416e-05
1.86084e-05
5.58231e-05
2.51065e-05
4.61316e-05
1.8782e-05
5.60143e-05
6.44292e-05
6.44376e-05
3.18056e-05
6.45314e-05
6.45399e-05
6.20827e-05
7.06186e-05
6.19667e-05
7.06397e-05
6.91473e-05
6.9156e-05
6.20819e-05
7.06199e-05
6.19658e-05
7.06411e-05
1.49074e-05
1.49088e-05
1.49093e-05
1.51782e-05
1.51786e-05
1.51801e-05
1.51804e-05
4.71671e-05
5.62739e-05
1.93187e-05
2.61075e-05
4.68714e-05
5.64567e-05
1.95048e-05
6.91472e-05
6.91559e-05
4.71685e-05
1.93213e-05
5.62762e-05
2.61103e-05
4.68725e-05
1.95066e-05
5.64595e-05
6.46703e-05
6.46787e-05
3.28158e-05
6.47692e-05
6.47777e-05
6.23513e-05
7.06688e-05
6.22382e-05
7.06916e-05
6.91612e-05
6.91719e-05
6.23505e-05
7.06701e-05
6.22374e-05
7.06929e-05
1.52747e-05
1.52761e-05
1.52766e-05
1.55794e-05
1.558e-05
1.55817e-05
1.55821e-05
4.78627e-05
5.67076e-05
2.00768e-05
2.7127e-05
4.75793e-05
5.68829e-05
2.02735e-05
6.91611e-05
6.91717e-05
4.7864e-05
2.00795e-05
5.67102e-05
2.713e-05
4.75804e-05
2.02754e-05
5.6886e-05
6.4904e-05
6.49123e-05
3.38031e-05
6.50004e-05
6.50089e-05
6.26146e-05
7.0723e-05
6.25035e-05
7.07475e-05
6.91803e-05
6.91929e-05
6.26138e-05
7.07244e-05
6.25026e-05
7.07489e-05
1.56874e-05
1.56891e-05
1.56896e-05
1.60257e-05
1.60263e-05
1.60282e-05
1.60285e-05
4.8531e-05
5.71242e-05
2.08762e-05
2.8157e-05
4.82583e-05
5.72931e-05
2.10828e-05
6.91803e-05
6.91927e-05
4.85324e-05
2.08791e-05
5.7127e-05
2.81603e-05
4.82594e-05
2.10849e-05
5.72963e-05
6.51319e-05
6.51403e-05
3.47676e-05
6.52258e-05
6.52343e-05
6.28741e-05
7.07814e-05
6.27645e-05
7.08076e-05
6.92044e-05
6.92189e-05
6.28734e-05
7.07828e-05
6.27637e-05
7.0809e-05
1.61446e-05
1.61465e-05
1.6147e-05
1.65159e-05
1.65167e-05
1.65187e-05
1.65191e-05
4.91751e-05
5.75252e-05
2.17129e-05
2.91914e-05
4.8912e-05
5.76881e-05
2.19282e-05
6.92044e-05
6.92186e-05
4.91764e-05
2.1716e-05
5.75282e-05
2.91949e-05
4.89131e-05
2.19305e-05
5.76915e-05
6.53539e-05
6.53623e-05
3.57071e-05
6.54459e-05
6.54544e-05
6.3131e-05
7.08438e-05
6.30224e-05
7.08716e-05
6.92332e-05
6.92494e-05
6.31303e-05
7.08452e-05
6.30216e-05
7.0873e-05
1.66458e-05
1.66479e-05
1.66484e-05
1.70486e-05
1.7049e-05
1.70513e-05
1.70517e-05
4.97973e-05
5.79123e-05
2.25831e-05
3.02262e-05
4.95429e-05
5.80694e-05
2.28059e-05
6.92333e-05
6.92491e-05
4.97987e-05
2.25863e-05
5.79153e-05
3.02299e-05
4.9544e-05
2.28083e-05
5.80728e-05
6.55711e-05
6.55795e-05
3.66219e-05
6.56606e-05
6.56691e-05
6.33859e-05
7.09101e-05
6.3278e-05
7.09395e-05
6.92665e-05
6.92843e-05
6.33851e-05
7.09115e-05
6.32772e-05
7.0941e-05
1.71884e-05
1.71908e-05
1.71912e-05
1.76215e-05
1.76223e-05
1.76249e-05
1.76253e-05
5.03992e-05
5.82856e-05
2.34815e-05
3.12562e-05
5.01527e-05
5.84379e-05
2.37106e-05
6.92666e-05
6.92843e-05
5.04005e-05
2.34848e-05
5.82887e-05
3.126e-05
5.01539e-05
2.37131e-05
5.84413e-05
6.57832e-05
6.57916e-05
3.75113e-05
6.58712e-05
6.58797e-05
6.3639e-05
7.09803e-05
6.3532e-05
7.10111e-05
6.93039e-05
6.93232e-05
6.36383e-05
7.09817e-05
6.35312e-05
7.10125e-05
1.7772e-05
1.77745e-05
1.7775e-05
1.82337e-05
1.82343e-05
1.82373e-05
1.82376e-05
5.09822e-05
5.86471e-05
2.44053e-05
3.22787e-05
5.07436e-05
5.87939e-05
2.46403e-05
6.93042e-05
6.93235e-05
5.09836e-05
2.44087e-05
5.86502e-05
3.22828e-05
5.07446e-05
2.46429e-05
5.87974e-05
6.59911e-05
6.59994e-05
3.83771e-05
6.60767e-05
6.60851e-05
6.38899e-05
7.10537e-05
6.37839e-05
7.10858e-05
6.93451e-05
6.93661e-05
6.38891e-05
7.10552e-05
6.37831e-05
7.10873e-05
1.83929e-05
1.83959e-05
1.83962e-05
1.88812e-05
1.88818e-05
1.88848e-05
1.88851e-05
5.15461e-05
5.89954e-05
2.535e-05
3.32868e-05
5.13151e-05
5.91373e-05
2.55895e-05
6.93458e-05
6.93667e-05
5.15474e-05
2.53537e-05
5.89986e-05
3.32909e-05
5.13162e-05
2.55924e-05
5.91407e-05
6.61934e-05
6.62018e-05
3.92165e-05
6.62772e-05
6.62856e-05
6.41384e-05
7.11303e-05
6.40335e-05
7.11636e-05
6.93901e-05
6.94125e-05
6.41377e-05
7.11318e-05
6.40327e-05
7.11651e-05
1.90491e-05
1.90522e-05
1.90525e-05
1.95619e-05
1.95626e-05
1.95658e-05
1.95662e-05
5.20914e-05
5.93324e-05
2.63124e-05
3.42794e-05
5.18681e-05
5.94694e-05
2.6556e-05
6.93911e-05
6.94133e-05
5.20926e-05
2.63161e-05
5.93354e-05
3.42836e-05
5.18691e-05
2.65589e-05
5.94728e-05
6.63915e-05
6.63998e-05
4.0032e-05
6.64731e-05
6.64815e-05
6.43831e-05
7.12095e-05
6.42799e-05
7.12438e-05
6.94384e-05
6.94621e-05
6.43824e-05
7.1211e-05
6.42792e-05
7.12453e-05
1.97373e-05
1.97407e-05
1.9741e-05
2.02726e-05
2.02731e-05
2.02765e-05
2.02767e-05
5.26163e-05
5.96571e-05
2.72876e-05
3.52518e-05
5.24015e-05
5.97892e-05
2.75335e-05
6.94396e-05
6.94632e-05
5.26176e-05
2.72915e-05
5.96602e-05
3.52562e-05
5.24026e-05
2.75368e-05
5.97925e-05
6.65841e-05
6.65924e-05
4.08218e-05
6.66635e-05
6.66719e-05
6.46231e-05
7.12911e-05
6.4522e-05
7.13262e-05
6.94899e-05
6.95148e-05
6.46225e-05
7.12926e-05
6.45213e-05
7.13277e-05
2.04548e-05
2.04582e-05
2.04584e-05
2.10092e-05
2.10095e-05
2.10134e-05
2.10137e-05
5.31217e-05
5.99704e-05
2.82705e-05
3.62022e-05
5.29148e-05
6.00979e-05
2.85172e-05
6.94913e-05
6.9516e-05
5.31228e-05
2.82742e-05
5.99734e-05
3.62068e-05
5.29158e-05
2.85205e-05
6.01013e-05
6.6772e-05
6.67804e-05
4.15873e-05
6.68495e-05
6.6858e-05
2.12013e-05
6.95456e-05
6.02756e-05
6.96425e-05
6.96446e-05
5.89513e-05
5.89624e-05
7.00324e-05
5.279e-05
7.0029e-05
5.27888e-05
4.50087e-05
1.4963e-05
2.85376e-05
4.50106e-05
1.4963e-05
2.85372e-05
6.96441e-05
5.89566e-05
5.89523e-05
6.96429e-05
6.99966e-05
1.61091e-05
4.43505e-05
5.21123e-05
7.00334e-05
5.27898e-05
2.79778e-05
4.50121e-05
1.49632e-05
1.50218e-05
2.85381e-05
5.21115e-05
7.00289e-05
7.00013e-05
5.2789e-05
2.79776e-05
1.6117e-05
1.4963e-05
4.50121e-05
1.50216e-05
4.45599e-05
2.85379e-05
4.49997e-05
1.49633e-05
2.85382e-05
7.00319e-05
5.279e-05
1.49631e-05
4.50056e-05
2.8538e-05
7.00281e-05
5.27891e-05
1.77823e-05
5.8592e-05
5.85855e-05
6.96814e-05
6.96441e-05
6.96662e-05
1.78791e-05
5.89579e-05
5.89515e-05
5.86533e-05
5.8647e-05
6.96426e-05
6.96647e-05
6.99998e-05
2.79787e-05
1.61168e-05
1.49634e-05
4.50067e-05
1.5022e-05
4.45578e-05
2.85392e-05
2.79785e-05
1.49634e-05
4.50135e-05
1.5022e-05
2.85386e-05
5.21133e-05
7.00321e-05
7.00045e-05
5.27907e-05
5.21125e-05
7.00294e-05
5.27897e-05
5.89492e-05
5.89587e-05
6.96428e-05
6.96444e-05
6.96262e-05
6.96051e-05
6.96284e-05
6.96073e-05
5.90088e-05
5.902e-05
1.82956e-05
5.9295e-05
5.93057e-05
6.95692e-05
6.95894e-05
6.95714e-05
6.95916e-05
1.84156e-05
5.96191e-05
5.96295e-05
5.93491e-05
5.93599e-05
5.35399e-05
7.00334e-05
5.29173e-05
7.00597e-05
2.93893e-05
4.52048e-05
1.49101e-05
1.61779e-05
2.8825e-05
4.56434e-05
1.48599e-05
2.93888e-05
4.52089e-05
1.49101e-05
1.61783e-05
2.88246e-05
4.56453e-05
1.48598e-05
5.36588e-05
7.0092e-05
7.00672e-05
5.42295e-05
5.36576e-05
7.00887e-05
7.00638e-05
5.42283e-05
2.9678e-05
1.62099e-05
4.62519e-05
1.47739e-05
4.5827e-05
1.48157e-05
3.02429e-05
2.96775e-05
1.62103e-05
4.62535e-05
1.47738e-05
4.58309e-05
1.48156e-05
3.02427e-05
5.90143e-05
5.90102e-05
1.82957e-05
5.93003e-05
5.92958e-05
6.96265e-05
6.96055e-05
6.95707e-05
6.9591e-05
1.84157e-05
5.96236e-05
5.96189e-05
5.93544e-05
5.93502e-05
6.95696e-05
6.95897e-05
2.93898e-05
4.52089e-05
1.49103e-05
1.61782e-05
2.88256e-05
4.56468e-05
1.48601e-05
5.354e-05
7.00333e-05
5.29174e-05
7.00597e-05
2.93895e-05
1.49101e-05
4.52084e-05
1.61785e-05
2.88254e-05
1.48599e-05
4.56469e-05
5.36585e-05
7.00931e-05
7.00683e-05
5.42293e-05
2.96786e-05
1.62101e-05
4.62552e-05
1.4774e-05
4.5831e-05
1.48158e-05
3.02431e-05
5.36576e-05
7.00887e-05
7.00638e-05
5.42283e-05
2.96783e-05
1.62106e-05
1.47739e-05
4.62549e-05
1.48157e-05
4.58305e-05
3.02428e-05
5.35412e-05
7.00365e-05
5.29186e-05
7.00625e-05
2.93897e-05
1.49103e-05
4.52065e-05
1.61783e-05
2.88253e-05
1.486e-05
4.56403e-05
5.35403e-05
7.00325e-05
5.29176e-05
7.00589e-05
2.96786e-05
1.621e-05
4.62435e-05
1.47741e-05
4.5834e-05
1.4816e-05
3.02432e-05
5.36589e-05
7.00914e-05
7.00668e-05
5.42294e-05
2.96783e-05
1.62103e-05
1.4774e-05
4.62488e-05
1.48158e-05
4.58286e-05
3.0243e-05
5.36579e-05
7.00879e-05
7.0063e-05
5.42285e-05
5.90153e-05
5.90092e-05
1.8296e-05
5.93016e-05
5.92953e-05
6.96264e-05
6.96053e-05
6.95708e-05
6.95911e-05
1.84161e-05
5.96247e-05
5.96186e-05
5.93555e-05
5.93494e-05
6.95693e-05
6.95896e-05
2.93903e-05
1.49105e-05
4.5207e-05
1.61789e-05
2.88263e-05
1.48603e-05
4.56481e-05
5.35418e-05
7.00365e-05
5.29191e-05
7.00628e-05
5.35407e-05
7.00338e-05
5.29183e-05
7.00601e-05
2.96792e-05
1.62102e-05
1.47743e-05
4.62501e-05
1.4816e-05
4.58286e-05
3.02462e-05
2.96792e-05
1.62108e-05
1.47743e-05
4.62563e-05
1.4816e-05
4.58291e-05
3.02435e-05
5.36595e-05
7.00918e-05
7.00669e-05
5.42299e-05
5.36586e-05
7.00892e-05
7.00643e-05
5.42289e-05
6.96265e-05
6.96054e-05
6.96283e-05
6.96071e-05
1.84164e-05
5.96163e-05
5.96257e-05
5.9347e-05
5.93562e-05
6.95694e-05
6.95897e-05
6.95712e-05
6.95915e-05
6.9554e-05
6.95347e-05
6.95562e-05
6.95368e-05
5.96698e-05
5.96802e-05
1.89228e-05
5.99235e-05
5.99335e-05
6.95016e-05
6.952e-05
6.95038e-05
6.95222e-05
1.90646e-05
6.02114e-05
6.02211e-05
5.99713e-05
5.99814e-05
5.48573e-05
7.00925e-05
5.43357e-05
7.0116e-05
3.10956e-05
4.64232e-05
1.47384e-05
1.63392e-05
3.05293e-05
4.68341e-05
1.47051e-05
3.10954e-05
4.64269e-05
1.47383e-05
1.63396e-05
3.05284e-05
4.68356e-05
1.4705e-05
5.49565e-05
7.01448e-05
7.01228e-05
5.54328e-05
5.49552e-05
7.01415e-05
7.01195e-05
5.54315e-05
3.13744e-05
1.63937e-05
4.73912e-05
1.46536e-05
4.69937e-05
1.46784e-05
3.19402e-05
3.13732e-05
1.63941e-05
4.73927e-05
1.46535e-05
4.69972e-05
1.46783e-05
3.19401e-05
5.96745e-05
5.96701e-05
1.89228e-05
5.99282e-05
5.99234e-05
6.95542e-05
6.9535e-05
6.9503e-05
6.95215e-05
1.90645e-05
6.02157e-05
6.02108e-05
5.99761e-05
5.99716e-05
6.95019e-05
6.95202e-05
3.10951e-05
4.64271e-05
1.47385e-05
1.63394e-05
3.05307e-05
4.68373e-05
1.47053e-05
5.48573e-05
7.00925e-05
5.43358e-05
7.0116e-05
3.10948e-05
1.47384e-05
4.64265e-05
1.63401e-05
3.05303e-05
1.47052e-05
4.6837e-05
5.49561e-05
7.0146e-05
7.01239e-05
5.54325e-05
3.13756e-05
1.63939e-05
4.73944e-05
1.46538e-05
4.69976e-05
1.46785e-05
3.19398e-05
5.49552e-05
7.01416e-05
7.01195e-05
5.54315e-05
3.13752e-05
1.63945e-05
1.46537e-05
4.7394e-05
1.46785e-05
4.6997e-05
3.19394e-05
5.48585e-05
7.00954e-05
5.4337e-05
7.01186e-05
3.10957e-05
1.47386e-05
4.64246e-05
1.63397e-05
3.05298e-05
1.47053e-05
4.6831e-05
5.48575e-05
7.00917e-05
5.43359e-05
7.01152e-05
3.13766e-05
1.63936e-05
4.73835e-05
1.46539e-05
4.70002e-05
1.46787e-05
3.19391e-05
5.49565e-05
7.01441e-05
7.01223e-05
5.54327e-05
3.13749e-05
1.63942e-05
1.46538e-05
4.73881e-05
1.46786e-05
4.6995e-05
3.19403e-05
5.49555e-05
7.01407e-05
7.01187e-05
5.54317e-05
5.96754e-05
5.96694e-05
1.89233e-05
5.99292e-05
5.99231e-05
6.95541e-05
6.95348e-05
6.95032e-05
6.95217e-05
1.9065e-05
6.02166e-05
6.02106e-05
5.9977e-05
5.99711e-05
6.95016e-05
6.95201e-05
3.10958e-05
1.47388e-05
4.64251e-05
1.63402e-05
3.05312e-05
1.47056e-05
4.68382e-05
5.48591e-05
7.00956e-05
5.43374e-05
7.01191e-05
5.4858e-05
7.0093e-05
5.43366e-05
7.01165e-05
3.13742e-05
1.63939e-05
1.46541e-05
4.73898e-05
1.46788e-05
4.69952e-05
3.19441e-05
3.13762e-05
1.63946e-05
1.46541e-05
4.73952e-05
1.46789e-05
4.69955e-05
3.19405e-05
5.49569e-05
7.01446e-05
7.01226e-05
5.54332e-05
5.4956e-05
7.01421e-05
7.012e-05
5.54321e-05
6.95542e-05
6.95349e-05
6.9556e-05
6.95367e-05
1.90656e-05
6.02081e-05
6.02174e-05
5.99684e-05
5.99776e-05
6.95017e-05
6.95202e-05
6.95036e-05
6.9522e-05
6.94875e-05
6.94699e-05
6.94896e-05
6.94721e-05
6.02565e-05
6.02663e-05
1.96504e-05
6.04833e-05
6.04927e-05
6.94396e-05
6.94563e-05
6.94418e-05
6.94584e-05
1.98119e-05
6.07409e-05
6.07501e-05
6.0526e-05
6.05355e-05
5.59554e-05
7.01447e-05
5.55207e-05
7.01654e-05
3.27727e-05
4.75397e-05
1.46357e-05
1.65898e-05
3.22098e-05
4.79242e-05
1.46195e-05
3.27725e-05
4.7543e-05
1.46357e-05
1.65902e-05
3.22085e-05
4.79255e-05
1.46194e-05
5.60379e-05
7.01909e-05
7.01716e-05
5.6435e-05
5.60366e-05
7.01876e-05
7.01683e-05
5.64337e-05
3.30319e-05
1.66661e-05
4.84338e-05
1.46029e-05
4.8062e-05
1.46106e-05
3.35895e-05
3.30306e-05
1.66665e-05
4.84351e-05
1.46028e-05
4.8065e-05
1.46105e-05
3.35892e-05
6.0261e-05
6.02564e-05
1.96505e-05
6.04876e-05
6.04827e-05
6.94875e-05
6.94701e-05
6.94411e-05
6.94577e-05
1.9812e-05
6.0745e-05
6.07401e-05
6.05303e-05
6.05257e-05
6.94398e-05
6.94563e-05
3.27722e-05
4.75434e-05
1.46359e-05
1.65898e-05
3.2211e-05
4.79273e-05
1.46197e-05
5.59553e-05
7.01448e-05
5.55206e-05
7.01654e-05
3.27718e-05
1.46359e-05
4.75428e-05
1.65908e-05
3.22105e-05
1.46197e-05
4.79266e-05
5.60374e-05
7.01921e-05
7.01728e-05
5.64345e-05
3.3033e-05
1.66661e-05
4.84369e-05
1.46031e-05
4.80656e-05
1.46108e-05
3.3589e-05
5.60364e-05
7.01877e-05
7.01684e-05
5.64335e-05
3.30325e-05
1.66671e-05
1.46031e-05
4.84361e-05
1.46108e-05
4.80647e-05
3.35885e-05
5.59565e-05
7.01474e-05
5.55219e-05
7.01678e-05
3.27728e-05
1.4636e-05
4.75409e-05
1.65904e-05
3.22103e-05
1.46198e-05
4.79211e-05
5.59556e-05
7.0144e-05
5.55209e-05
7.01646e-05
3.30342e-05
1.66658e-05
4.84266e-05
1.46032e-05
4.80681e-05
1.46109e-05
3.35883e-05
5.60378e-05
7.019e-05
7.01709e-05
5.64347e-05
3.30324e-05
1.66667e-05
1.46032e-05
4.84307e-05
1.46108e-05
4.80631e-05
3.35895e-05
5.60368e-05
7.01869e-05
7.01676e-05
5.64338e-05
6.02616e-05
6.02559e-05
1.96511e-05
6.04884e-05
6.04825e-05
6.94875e-05
6.94699e-05
6.94412e-05
6.94579e-05
1.98126e-05
6.07457e-05
6.07399e-05
6.05309e-05
6.05253e-05
6.94396e-05
6.94563e-05
3.2773e-05
1.46363e-05
4.75413e-05
1.65908e-05
3.22116e-05
1.46201e-05
4.79279e-05
5.59571e-05
7.01479e-05
5.55223e-05
7.01685e-05
5.59559e-05
7.01453e-05
5.55214e-05
7.0166e-05
3.3032e-05
1.66662e-05
1.46035e-05
4.84326e-05
1.46111e-05
4.80633e-05
3.35932e-05
3.30337e-05
1.6667e-05
1.46035e-05
4.84374e-05
1.46112e-05
4.80634e-05
3.35897e-05
5.60382e-05
7.01907e-05
7.01714e-05
5.64353e-05
5.60372e-05
7.01883e-05
7.01689e-05
5.64341e-05
6.94876e-05
6.947e-05
6.94895e-05
6.94719e-05
1.98132e-05
6.07373e-05
6.07465e-05
6.05227e-05
6.05317e-05
6.94397e-05
6.94563e-05
6.94416e-05
6.94583e-05
6.94265e-05
6.94108e-05
6.94286e-05
6.94129e-05
6.07813e-05
6.07905e-05
2.04676e-05
6.09851e-05
6.09941e-05
6.93834e-05
6.93981e-05
6.93854e-05
6.94002e-05
2.06467e-05
6.12172e-05
6.12261e-05
6.10234e-05
6.10325e-05
5.6871e-05
7.01903e-05
5.65076e-05
7.02084e-05
3.43876e-05
4.85615e-05
1.4603e-05
1.69269e-05
3.38373e-05
4.89213e-05
1.46054e-05
3.43873e-05
4.85644e-05
1.46029e-05
1.69274e-05
3.3836e-05
4.89224e-05
1.46054e-05
5.69398e-05
7.02311e-05
7.02141e-05
5.72729e-05
5.69385e-05
7.02279e-05
7.02109e-05
5.72716e-05
3.46234e-05
1.70244e-05