/*--------------------------------*- C++ -*----------------------------------*\
| =========                 |                                                 |
| \\      /  F ield         | OpenFOAM: The Open Source CFD Toolbox           |
|  \\    /   O peration     | Version:  2312                                  |
|   \\  /    A nd           | Website:  www.openfoam.com                      |
|    \\/     M anipulation  |                                                 |
\*---------------------------------------------------------------------------*/
FoamFile
{
    version     2.0;
    format      ascii;
    arch        "LSB;label=32;scalar=64";
    class       volScalarField;
    location    "750";
    object      nut;
}
// * * * * * * * * * * * * * * * * * * * * * * * * * * * * * * * * * * * * * //

dimensions      [0 2 -1 0 0 0 0];

internalField   nonuniform List<scalar> 
43120
(
0.000150129
0.000101693
0.000101689
8.2567e-05
0.00014605
9.88772e-05
9.88743e-05
8.20851e-05
0.000142032
9.65677e-05
9.65656e-05
8.21379e-05
0.000138104
9.47778e-05
9.47766e-05
8.26795e-05
0.000134281
9.35048e-05
9.35038e-05
8.36557e-05
0.000130619
9.27369e-05
9.27369e-05
8.50122e-05
0.000127143
9.2454e-05
9.24544e-05
8.66903e-05
0.000123889
9.26266e-05
9.26281e-05
8.8632e-05
0.000120889
9.32268e-05
9.32287e-05
9.07866e-05
0.000118175
9.42157e-05
9.42185e-05
9.31071e-05
0.000115777
9.556e-05
9.55636e-05
9.55573e-05
0.000113721
9.72226e-05
9.72261e-05
9.81017e-05
0.000112006
9.91625e-05
9.91677e-05
0.000100714
0.000110665
0.000101354
0.000101359
0.000103379
0.000109688
0.000103757
0.000103762
0.000106079
0.000109074
0.000106342
0.00010635
0.000108798
0.000108835
0.000109083
0.000109089
0.000111524
0.000108947
0.000111945
0.000111953
0.00011425
0.000109408
0.000114909
0.000114917
0.000116965
0.000110206
0.000117957
0.000117965
0.000119664
0.000111324
0.000121064
0.000121073
0.000122337
0.000112745
0.000124227
0.000124236
0.000124992
0.000114457
0.00012741
0.000127421
0.000127615
0.000116428
0.000130606
0.000130616
0.000130203
0.000118645
0.000133799
0.00013381
0.000132757
0.000121088
0.000136979
0.000136989
0.000135266
0.000140149
8.28528e-05
0.000102443
0.000102428
8.28493e-05
0.000102464
0.000102428
0.000102469
0.000102445
8.2846e-05
0.000102468
0.000102457
8.2842e-05
8.25771e-05
8.22526e-05
0.000101664
0.00010165
9.95033e-05
9.94912e-05
8.25732e-05
8.22512e-05
0.000101685
0.000101651
9.95239e-05
9.94917e-05
0.000101667
9.953e-05
9.95071e-05
8.25698e-05
8.22481e-05
0.000101678
9.953e-05
9.95182e-05
8.2244e-05
8.20927e-05
8.22003e-05
9.88488e-05
9.88368e-05
9.7067e-05
9.70568e-05
8.20911e-05
8.21978e-05
9.8869e-05
9.88365e-05
9.70872e-05
9.70568e-05
9.8853e-05
9.70934e-05
9.70721e-05
8.20883e-05
8.21946e-05
9.88633e-05
9.70936e-05
9.7082e-05
8.2192e-05
8.21453e-05
8.26422e-05
9.65397e-05
9.65296e-05
9.51489e-05
9.51399e-05
8.21436e-05
8.264e-05
9.65595e-05
9.65295e-05
9.51682e-05
9.51395e-05
9.65449e-05
9.51744e-05
9.51552e-05
8.21404e-05
8.26375e-05
9.65541e-05
9.5175e-05
9.51641e-05
8.26355e-05
8.26856e-05
8.35297e-05
9.47511e-05
9.47421e-05
9.3748e-05
9.37404e-05
8.26835e-05
8.35281e-05
9.47701e-05
9.47423e-05
9.37666e-05
9.37406e-05
9.47571e-05
9.37726e-05
9.37554e-05
8.2681e-05
8.35261e-05
9.47652e-05
9.37738e-05
9.37632e-05
8.35247e-05
8.36599e-05
8.481e-05
9.34788e-05
9.34715e-05
9.28577e-05
9.28512e-05
8.36587e-05
8.48082e-05
9.34966e-05
9.34711e-05
9.28751e-05
9.28512e-05
9.34866e-05
9.28812e-05
9.28656e-05
8.36564e-05
8.48068e-05
9.34935e-05
9.28828e-05
9.28721e-05
8.48052e-05
8.50166e-05
8.64216e-05
9.27131e-05
9.27059e-05
9.24563e-05
9.24505e-05
8.50149e-05
8.64199e-05
9.27299e-05
9.27065e-05
9.24725e-05
9.24511e-05
9.27203e-05
9.24783e-05
9.24655e-05
8.50135e-05
8.64193e-05
9.2726e-05
9.24806e-05
9.24707e-05
8.64188e-05
8.66926e-05
8.83098e-05
9.24308e-05
9.24251e-05
9.25207e-05
9.25154e-05
8.66911e-05
8.83084e-05
9.24462e-05
9.24256e-05
9.25357e-05
9.25165e-05
9.24401e-05
9.25413e-05
9.253e-05
8.66904e-05
8.83082e-05
9.24444e-05
9.25443e-05
9.25339e-05
8.83072e-05
8.86345e-05
9.04188e-05
9.26056e-05
9.26001e-05
9.30178e-05
9.30135e-05
8.86329e-05
9.0418e-05
9.26198e-05
9.26013e-05
9.30314e-05
9.30146e-05
9.26149e-05
9.30374e-05
9.30283e-05
8.86327e-05
9.04182e-05
9.2618e-05
9.30406e-05
9.30308e-05
9.04182e-05
9.07872e-05
9.27059e-05
9.32071e-05
9.32021e-05
9.39144e-05
9.39103e-05
9.07866e-05
9.27041e-05
9.32198e-05
9.32034e-05
9.39266e-05
9.39121e-05
9.3217e-05
9.39326e-05
9.39255e-05
9.07866e-05
9.2705e-05
9.32186e-05
9.39367e-05
9.39265e-05
9.27045e-05
9.3108e-05
9.51282e-05
9.41975e-05
9.41929e-05
9.51748e-05
9.51711e-05
9.31064e-05
9.51271e-05
9.4209e-05
9.41949e-05
9.51856e-05
9.51733e-05
9.4208e-05
9.51918e-05
9.51867e-05
9.31073e-05
9.51282e-05
9.42082e-05
9.51964e-05
9.51863e-05
9.51283e-05
9.55574e-05
9.76528e-05
9.55418e-05
9.55386e-05
9.6764e-05
9.6759e-05
9.55561e-05
9.76515e-05
9.55518e-05
9.55412e-05
9.67734e-05
9.67613e-05
9.55547e-05
9.67784e-05
9.67746e-05
9.55571e-05
9.76534e-05
9.55535e-05
9.67833e-05
9.67727e-05
9.76531e-05
9.81027e-05
0.00010025
9.72092e-05
9.72028e-05
9.86363e-05
9.86338e-05
9.81005e-05
0.00010025
9.7218e-05
9.7205e-05
9.86444e-05
9.86371e-05
9.72182e-05
9.86521e-05
9.86507e-05
9.81019e-05
0.000100252
9.72154e-05
9.8658e-05
9.86474e-05
0.000100252
0.000100711
0.000102906
9.91447e-05
9.91435e-05
0.000100771
0.000100766
0.000100712
0.000102904
9.91524e-05
9.91473e-05
0.000100778
0.00010077
9.91608e-05
0.000100784
0.000100783
0.000100714
0.000102906
9.91567e-05
0.00010079
0.000100779
0.000102906
0.00010338
0.0001056
0.000101342
0.000101336
0.000103127
0.000103121
0.000103377
0.000105597
0.000101349
0.000101339
0.000103132
0.000103124
0.000101353
0.000103138
0.000103138
0.000103379
0.000105599
0.000101348
0.000103144
0.000103132
0.000105599
0.000106079
0.000108308
0.000103744
0.00010374
0.000105665
0.000105662
0.000106078
0.000108308
0.00010375
0.000103743
0.00010567
0.000105667
0.000103757
0.000105678
0.000105682
0.00010608
0.000108312
0.00010375
0.000105687
0.000105675
0.000108312
0.000108795
0.000111038
0.000106328
0.000106325
0.000108374
0.000108369
0.000108795
0.000111035
0.000106333
0.00010633
0.000108378
0.000108373
0.000106345
0.000108385
0.000108386
0.000108798
0.000111038
0.000106338
0.000108392
0.000108379
0.000111037
0.000111527
0.000113761
0.000109072
0.000109066
0.000111208
0.000111202
0.000111524
0.000113758
0.000109076
0.00010907
0.000111211
0.000111207
0.000109084
0.000111218
0.000111222
0.000111526
0.000113762
0.000109076
0.000111227
0.000111213
0.000113762
0.000114249
0.000116479
0.000111934
0.000111929
0.000114149
0.000114143
0.000114247
0.000116477
0.000111937
0.000111934
0.000114152
0.000114148
0.000111949
0.000114159
0.000114163
0.000114251
0.000116481
0.00011194
0.000114168
0.000114154
0.00011648
0.000116965
0.000119182
0.000114899
0.000114892
0.000117177
0.000117171
0.000116962
0.00011918
0.000114901
0.000114898
0.000117179
0.000117176
0.000114912
0.000117187
0.000117191
0.000116966
0.000119184
0.000114903
0.000117196
0.000117182
0.000119183
0.000119663
0.000121865
0.000117946
0.00011794
0.000120276
0.000120266
0.000119661
0.00012186
0.000117948
0.000117946
0.000120277
0.000120272
0.00011796
0.000120282
0.000120286
0.000119665
0.000121865
0.00011795
0.000120292
0.000120277
0.000121863
0.000122339
0.000124523
0.000121058
0.000121047
0.000123423
0.000123415
0.000122334
0.000124521
0.000121058
0.000121054
0.000123423
0.000123422
0.000121068
0.000123432
0.000123436
0.000122339
0.000124526
0.000121059
0.000123442
0.000123427
0.000124524
0.000124991
0.000127158
0.000124218
0.000124209
0.000126608
0.000126596
0.000124989
0.000127153
0.000124217
0.000124216
0.000126607
0.000126605
0.00012423
0.000126613
0.000126617
0.000124994
0.000127159
0.000124221
0.000126626
0.000126609
0.000127157
0.000127616
0.000129755
0.000127405
0.000127392
0.0001298
0.000129787
0.000127611
0.000129751
0.000127405
0.000127401
0.000129799
0.000129796
0.000127414
0.000129806
0.000129809
0.000127618
0.000129756
0.000127405
0.000129817
0.000129801
0.000129754
0.000130204
0.000132319
0.0001306
0.000130587
0.000132997
0.000132983
0.000130201
0.000132315
0.000130599
0.000130595
0.000132995
0.000132992
0.000130609
0.000133002
0.000133005
0.000130206
0.000132321
0.0001306
0.000133014
0.000132997
0.000132318
0.000132758
0.000134841
0.000133794
0.00013378
0.000136182
0.000136167
0.000132754
0.000134836
0.000133792
0.000133789
0.00013618
0.000136175
0.000133801
0.000136186
0.000136187
0.00013276
0.000134843
0.000133794
0.000136197
0.00013618
0.000134839
0.000135269
0.000137321
0.000136974
0.000136959
0.000139345
0.00013933
0.000135264
0.000137316
0.000136972
0.000136968
0.000139343
0.000139339
0.000136979
0.000139349
0.000139352
0.00013527
0.000137324
0.000136972
0.000139361
0.000139345
0.00013732
0.000140126
0.00013774
0.000151149
0.000151144
0.000151139
0.000151139
2.36358e-05
0.000104132
6.44946e-05
7.00562e-05
4.95558e-05
6.90789e-05
4.95651e-05
2.36274e-05
2.36238e-05
7.00535e-05
4.95504e-05
6.90772e-05
4.95597e-05
0.000150124
0.000150119
0.000150119
0.000147054
0.00014705
0.000147046
0.000147045
6.70999e-05
6.57915e-05
0.000126168
0.000100939
6.614e-05
6.64673e-05
0.000125138
2.36265e-05
2.36229e-05
6.71007e-05
0.000126151
6.57752e-05
0.000100938
6.61408e-05
0.000125139
6.64846e-05
6.1069e-05
6.10681e-05
8.24693e-05
6.15134e-05
6.15115e-05
7.20549e-05
4.95767e-05
7.12024e-05
4.9585e-05
2.36151e-05
2.36118e-05
7.2052e-05
4.95713e-05
7.12007e-05
4.95796e-05
0.000146046
0.000146041
0.000146041
0.000143016
0.000143011
0.000143007
0.000143007
7.00402e-05
6.76878e-05
0.000122224
9.82475e-05
6.9038e-05
6.83507e-05
0.000121245
2.36143e-05
2.3611e-05
7.00571e-05
0.000122207
6.76724e-05
9.82478e-05
6.90253e-05
0.000121247
6.83666e-05
6.20233e-05
6.20221e-05
8.21548e-05
6.24302e-05
6.24288e-05
7.3803e-05
4.95952e-05
7.30575e-05
4.96025e-05
2.36038e-05
2.36008e-05
7.37999e-05
4.95898e-05
7.30556e-05
4.95971e-05
0.000142028
0.000142024
0.000142023
0.000139057
0.000139053
0.000139049
0.000139049
7.30556e-05
6.94795e-05
0.000118526
9.6069e-05
7.19954e-05
7.01277e-05
0.00011761
2.3603e-05
2.36e-05
7.30722e-05
0.000118509
6.94647e-05
9.60692e-05
7.19818e-05
0.000117613
7.01425e-05
6.28997e-05
6.28979e-05
8.23539e-05
6.32725e-05
6.32708e-05
7.53405e-05
4.96113e-05
7.46835e-05
4.96177e-05
2.35934e-05
2.35907e-05
7.53372e-05
4.96059e-05
7.46814e-05
4.96123e-05
0.0001381
0.000138096
0.000138096
0.000135219
0.000135216
0.000135211
0.000135211
7.60596e-05
7.117e-05
0.000115126
9.44092e-05
7.49629e-05
7.18021e-05
0.000114308
2.35926e-05
2.35899e-05
7.60751e-05
0.00011511
7.11556e-05
9.44102e-05
7.49502e-05
0.000114311
7.18163e-05
6.37067e-05
6.37048e-05
8.30277e-05
6.40493e-05
6.40473e-05
7.67055e-05
4.96253e-05
7.61199e-05
4.9631e-05
2.3584e-05
2.35816e-05
7.67021e-05
4.96199e-05
7.61176e-05
4.96256e-05
0.000134278
0.000134273
0.000134274
0.000131514
0.000131511
0.000131507
0.000131507
7.90031e-05
7.27636e-05
0.000112032
9.32642e-05
7.7887e-05
7.33799e-05
0.000111307
2.35832e-05
2.35808e-05
7.90172e-05
0.000112016
7.27492e-05
9.32656e-05
7.78753e-05
0.00011131
7.33942e-05
6.44524e-05
6.44503e-05
8.41198e-05
6.47689e-05
6.47667e-05
7.79308e-05
4.96378e-05
7.74027e-05
4.9643e-05
2.35756e-05
2.35735e-05
7.79274e-05
4.96324e-05
7.74002e-05
4.96376e-05
0.000130615
0.000130611
0.000130611
0.000127985
0.000127983
0.000127978
0.000127979
8.18539e-05
7.42659e-05
0.000109324
9.262e-05
8.07308e-05
7.4868e-05
0.000108698
2.35747e-05
2.35727e-05
8.18663e-05
0.00010931
7.42511e-05
9.26219e-05
8.07204e-05
0.000108701
7.48823e-05
6.51443e-05
6.51419e-05
8.55741e-05
6.54382e-05
6.54357e-05
7.90431e-05
4.96492e-05
7.85612e-05
4.9654e-05
2.35681e-05
2.35664e-05
7.90396e-05
4.96438e-05
7.85587e-05
4.96486e-05
0.00012714
0.000127136
0.000127136
0.00012467
0.000124668
0.000124664
0.000124664
8.45941e-05
7.56828e-05
0.000107021
9.2454e-05
8.34728e-05
7.62734e-05
0.000106499
2.35673e-05
2.35655e-05
8.46042e-05
0.000107007
7.56693e-05
9.24565e-05
8.34643e-05
0.000106502
7.6286e-05
6.57888e-05
6.57862e-05
8.73322e-05
6.6063e-05
6.60603e-05
8.0063e-05
4.96599e-05
7.9619e-05
4.96646e-05
2.35616e-05
2.35602e-05
8.00595e-05
4.96545e-05
7.96163e-05
4.96592e-05
0.000123886
0.000123883
0.000123883
0.00012162
0.000121619
0.000121615
0.000121616
8.72163e-05
7.70225e-05
0.000105143
9.27368e-05
8.6104e-05
7.76011e-05
0.000104732
2.35608e-05
2.35594e-05
8.72236e-05
0.000105131
7.70117e-05
9.274e-05
8.60977e-05
0.000104736
7.76108e-05
6.63919e-05
6.63891e-05
8.93377e-05
6.66491e-05
6.66462e-05
8.10058e-05
4.96703e-05
8.05941e-05
4.9675e-05
2.35561e-05
2.35551e-05
8.10026e-05
4.96649e-05
8.05912e-05
4.96696e-05
0.000120887
0.000120883
0.000120883
0.000118823
0.000118822
0.000118819
0.00011882
8.97211e-05
7.82934e-05
0.000103709
9.34375e-05
8.86244e-05
7.88574e-05
0.00010341
2.35553e-05
2.35542e-05
8.97195e-05
0.000103698
7.82863e-05
9.34411e-05
8.86243e-05
0.000103413
7.88627e-05
6.69589e-05
6.6956e-05
9.15425e-05
6.72012e-05
6.71983e-05
8.18837e-05
4.96809e-05
8.15007e-05
4.96858e-05
2.35516e-05
2.35509e-05
8.18806e-05
4.96755e-05
8.14976e-05
4.96804e-05
0.000118173
0.000118169
0.00011817
0.000116346
0.000116345
0.000116342
0.000116343
9.21062e-05
7.95018e-05
0.000102719
9.45194e-05
9.10432e-05
8.0048e-05
0.000102531
2.35508e-05
2.35501e-05
9.21041e-05
0.000102709
7.95002e-05
9.45235e-05
9.10457e-05
0.000102535
8.00485e-05
6.7494e-05
6.74911e-05
9.39016e-05
6.77238e-05
6.77207e-05
8.27077e-05
4.96919e-05
8.23488e-05
4.9697e-05
2.35481e-05
2.35478e-05
8.27045e-05
4.96865e-05
8.23456e-05
4.96916e-05
0.000115777
0.000115774
0.000115775
0.000114201
0.000114201
0.000114198
0.000114199
9.43875e-05
8.06551e-05
0.00010217
9.59462e-05
9.33629e-05
8.11773e-05
0.000102091
2.35472e-05
2.35469e-05
9.43851e-05
0.000102161
8.06558e-05
9.59513e-05
9.3366e-05
0.000102095
8.11773e-05
6.80012e-05
6.79981e-05
9.63798e-05
6.82198e-05
6.82166e-05
8.34854e-05
4.97037e-05
8.31466e-05
4.97091e-05
2.35456e-05
2.35457e-05
8.34822e-05
4.96983e-05
8.31434e-05
4.97037e-05
0.000113718
0.000113715
0.000113716
0.000112401
0.000112402
0.0001124
0.000112401
9.65743e-05
8.17561e-05
0.000102048
9.76819e-05
9.55865e-05
8.22534e-05
0.000102074
2.35448e-05
2.35448e-05
9.65719e-05
0.00010204
8.17571e-05
9.76869e-05
9.55904e-05
0.000102079
8.22544e-05
6.84838e-05
6.84807e-05
9.89451e-05
6.86925e-05
6.86891e-05
8.4222e-05
4.97163e-05
8.39008e-05
4.97222e-05
2.35441e-05
2.35446e-05
8.42188e-05
4.97109e-05
8.38976e-05
4.97168e-05
0.000112007
0.000112006
0.000112007
0.000110964
0.000110965
0.000110963
0.000110965
9.8675e-05
8.28057e-05
0.000102335
9.96873e-05
9.77235e-05
8.32816e-05
0.000102461
2.35433e-05
2.35437e-05
9.86724e-05
0.000102329
8.28088e-05
9.96938e-05
9.77282e-05
0.000102466
8.32843e-05
6.89444e-05
6.8941e-05
0.000101573
6.91447e-05
6.91412e-05
8.49236e-05
4.973e-05
8.46175e-05
4.97363e-05
2.35437e-05
2.35445e-05
8.49204e-05
4.97246e-05
8.46142e-05
4.97309e-05
0.000110664
0.000110663
0.000110664
0.000109898
0.000109898
0.000109896
0.000109898
0.000100697
8.38111e-05
0.000103013
0.000101936
9.97854e-05
8.42668e-05
0.000103234
2.35428e-05
2.35436e-05
0.000100694
0.000103008
8.38155e-05
0.000101941
9.97918e-05
0.000103238
8.4271e-05
6.93849e-05
6.93814e-05
0.000104249
6.95771e-05
6.95734e-05
8.55958e-05
4.97449e-05
8.53017e-05
4.97518e-05
2.35442e-05
2.35454e-05
8.55922e-05
4.97395e-05
8.52985e-05
4.97464e-05
0.000109687
0.000109686
0.000109687
0.000109191
0.000109193
0.000109194
0.000109196
0.000102649
8.47743e-05
0.000104055
0.000104386
0.000101779
8.5212e-05
0.000104362
2.35434e-05
2.35445e-05
0.000102646
0.00010405
8.47802e-05
0.000104393
0.000101786
0.000104367
8.52174e-05
6.98062e-05
6.98026e-05
0.000106952
6.9991e-05
6.99872e-05
8.62431e-05
4.97613e-05
8.596e-05
4.97687e-05
2.35457e-05
2.35472e-05
8.62395e-05
4.97559e-05
8.5957e-05
4.97633e-05
0.000109077
0.000109078
0.000109079
0.000108861
0.000108861
0.000108861
0.000108863
0.00010454
8.57001e-05
0.000105433
0.000107014
0.000103707
8.61218e-05
0.000105822
2.35448e-05
2.35463e-05
0.000104537
0.00010543
8.57068e-05
0.000107022
0.000103713
0.000105827
8.61277e-05
7.02115e-05
7.02078e-05
0.000109675
7.03894e-05
7.03855e-05
8.68699e-05
4.97789e-05
8.65965e-05
4.9787e-05
2.3548e-05
2.35499e-05
8.68662e-05
4.97735e-05
8.65936e-05
4.97816e-05
0.000108835
0.000108836
0.000108836
0.000108886
0.000108887
0.000108888
0.00010889
0.000106374
8.65911e-05
0.000107123
0.000109786
0.000105575
8.69972e-05
0.000107584
2.35472e-05
2.3549e-05
0.000106372
0.00010712
8.65982e-05
0.000109794
0.000105581
0.00010759
8.70037e-05
7.06008e-05
7.0597e-05
0.000112399
7.0773e-05
7.0769e-05
8.74796e-05
4.9798e-05
8.72143e-05
4.98067e-05
2.35513e-05
2.35534e-05
8.74759e-05
4.97927e-05
8.72114e-05
4.98013e-05
0.000108948
0.000108951
0.000108952
0.000109261
0.000109262
0.000109265
0.000109266
0.000108157
8.74494e-05
0.000109093
0.000112678
0.000107387
8.78422e-05
0.000109623
2.35505e-05
2.35526e-05
0.000108155
0.000109092
8.74572e-05
0.000112687
0.000107393
0.000109629
8.7849e-05
7.09768e-05
7.09729e-05
0.000115123
7.11434e-05
7.11393e-05
8.80748e-05
4.98186e-05
8.78167e-05
4.98278e-05
2.35554e-05
2.35579e-05
8.8071e-05
4.98132e-05
8.78137e-05
4.98224e-05
0.000109408
0.000109411
0.000109413
0.000109976
0.000109979
0.000109981
0.000109984
0.000109892
8.82782e-05
0.000111319
0.000115663
0.000109148
8.86579e-05
0.000111908
2.35546e-05
2.3557e-05
0.00010989
0.000111319
8.82861e-05
0.000115672
0.000109153
0.000111915
8.86649e-05
7.13393e-05
7.13354e-05
0.000117833
7.15011e-05
7.14969e-05
8.86572e-05
4.98403e-05
8.84053e-05
4.98499e-05
2.35604e-05
2.35633e-05
8.86535e-05
4.98352e-05
8.84024e-05
4.98449e-05
0.000110208
0.000110211
0.000110213
0.000111017
0.000111016
0.000111021
0.000111022
0.000111582
8.90795e-05
0.000113776
0.000118728
0.000110861
8.94467e-05
0.000114417
2.35595e-05
2.35622e-05
0.00011158
0.000113776
8.90876e-05
0.000118738
0.000110866
0.000114424
8.94539e-05
7.16903e-05
7.16863e-05
0.000120527
7.18466e-05
7.18423e-05
8.92278e-05
4.98635e-05
8.89815e-05
4.98738e-05
2.35662e-05
2.35693e-05
8.9224e-05
4.98585e-05
8.89785e-05
4.98688e-05
0.000111323
0.000111327
0.000111329
0.000112359
0.000112362
0.000112368
0.000112369
0.000113228
8.98531e-05
0.00011643
0.000121849
0.000112527
9.02097e-05
0.000117116
2.35651e-05
2.35681e-05
0.000113226
0.00011643
8.98614e-05
0.00012186
0.000112533
0.000117123
9.02168e-05
7.20291e-05
7.20251e-05
0.000123195
7.21815e-05
7.21772e-05
8.97876e-05
4.98881e-05
8.95468e-05
4.9899e-05
2.35726e-05
2.35759e-05
8.97839e-05
4.98832e-05
8.95438e-05
4.9894e-05
0.000112748
0.000112753
0.000112756
0.000114002
0.000114004
0.000114012
0.000114013
0.000114832
9.06033e-05
0.00011927
0.000125021
0.000114152
9.09479e-05
0.000120002
2.35715e-05
2.35748e-05
0.00011483
0.00011927
9.06117e-05
0.000125032
0.000114158
0.000120009
9.09553e-05
7.23579e-05
7.23537e-05
0.000125846
7.25051e-05
7.25008e-05
9.03358e-05
4.99139e-05
9.01005e-05
4.99252e-05
2.35796e-05
2.35832e-05
9.03319e-05
4.9909e-05
9.00975e-05
4.99202e-05
0.000114457
0.000114466
0.000114466
0.00011591
0.00011591
0.000115918
0.000115919
0.000116391
9.13267e-05
0.000122276
0.000128207
0.000115732
9.16604e-05
0.000123046
2.35786e-05
2.35822e-05
0.00011639
0.000122279
9.13354e-05
0.000128218
0.000115738
0.000123054
9.16677e-05
7.26747e-05
7.26705e-05
0.000128459
7.28175e-05
7.28131e-05
9.08725e-05
4.99408e-05
9.06425e-05
4.99525e-05
2.35873e-05
2.35911e-05
9.08686e-05
4.99359e-05
9.06394e-05
4.99475e-05
0.000116429
0.000116437
0.000116438
0.00011807
0.000118072
0.00011808
0.000118082
0.000117906
9.20271e-05
0.000125434
0.000131406
0.000117268
9.23503e-05
0.000126242
2.35863e-05
2.35901e-05
0.000117906
0.000125437
9.20355e-05
0.000131416
0.000117272
0.00012625
9.23575e-05
7.29815e-05
7.29773e-05
0.000131042
7.31199e-05
7.31154e-05
9.13954e-05
4.99686e-05
9.1172e-05
4.99806e-05
2.35955e-05
2.35995e-05
9.13917e-05
4.99637e-05
9.11689e-05
4.99757e-05
0.000118646
0.000118655
0.000118656
0.000120459
0.000120459
0.000120468
0.000120469
0.000119371
9.27029e-05
0.00012872
0.000134596
0.000118755
9.30149e-05
0.000129555
2.35946e-05
2.35986e-05
0.000119372
0.000128724
9.27116e-05
0.000134608
0.000118759
0.000129565
9.30223e-05
7.32772e-05
7.32729e-05
0.000133583
7.34111e-05
7.34064e-05
9.1904e-05
4.99972e-05
9.1687e-05
5.00095e-05
2.36042e-05
2.36084e-05
9.19004e-05
4.99923e-05
9.16839e-05
5.00046e-05
0.000121088
0.000121096
0.000121096
0.00012305
0.000123049
0.000123061
0.000123062
0.000120788
9.33556e-05
0.000132106
0.000137769
0.000120192
9.36576e-05
0.00013296
2.36033e-05
2.36075e-05
0.000120789
0.000132108
9.33641e-05
0.000137782
0.000120195
0.00013297
9.36649e-05
7.3563e-05
7.35585e-05
0.000136084
7.36927e-05
7.3688e-05
0.000123739
2.36126e-05
9.39946e-05
2.36324e-05
2.36302e-05
6.10294e-05
6.1029e-05
4.95543e-05
6.89518e-05
4.95481e-05
6.89496e-05
6.55105e-05
0.000127146
6.568e-05
6.55028e-05
0.000127139
6.56787e-05
2.36301e-05
6.10213e-05
6.10325e-05
2.36317e-05
4.95334e-05
0.000104092
6.44965e-05
6.79046e-05
4.95488e-05
6.89492e-05
6.4748e-05
6.55073e-05
0.000127143
0.000128181
6.56791e-05
6.7903e-05
4.95449e-05
4.95351e-05
6.89476e-05
6.47472e-05
0.000103239
0.000127131
6.55043e-05
0.00012817
6.47803e-05
6.56783e-05
6.5485e-05
0.000127155
6.56794e-05
4.95501e-05
6.89581e-05
0.000127147
6.54972e-05
6.56786e-05
4.95458e-05
6.895e-05
8.33721e-05
6.05094e-05
6.05145e-05
2.3638e-05
2.36293e-05
2.3633e-05
8.30362e-05
6.1022e-05
6.10274e-05
6.05578e-05
6.05626e-05
2.36314e-05
2.36352e-05
4.95385e-05
6.47489e-05
0.000103279
0.000127149
6.55029e-05
0.000128186
6.4788e-05
6.56802e-05
6.47472e-05
0.000127142
6.55079e-05
0.000128179
6.56788e-05
6.79014e-05
4.95499e-05
4.95401e-05
6.89561e-05
6.78995e-05
4.95442e-05
6.89538e-05
6.10237e-05
6.10218e-05
2.36301e-05
2.36289e-05
2.36296e-05
2.3626e-05
2.36274e-05
2.36239e-05
6.10751e-05
6.10745e-05
8.24799e-05
6.15192e-05
6.15182e-05
2.36199e-05
2.36234e-05
2.36178e-05
2.36212e-05
8.22615e-05
6.19893e-05
6.19878e-05
6.15625e-05
6.15613e-05
7.0054e-05
4.95497e-05
6.90767e-05
4.9559e-05
6.71006e-05
6.57729e-05
0.000126151
0.000100912
6.61408e-05
6.64915e-05
0.000125133
6.70991e-05
6.57718e-05
0.000126145
0.000100899
6.61394e-05
6.64838e-05
0.000125127
7.01762e-05
4.95754e-05
4.95666e-05
7.10894e-05
7.0174e-05
4.95693e-05
4.95605e-05
7.10871e-05
6.75746e-05
0.000100194
6.74461e-05
0.000123157
6.67346e-05
0.000124151
6.85565e-05
6.75731e-05
0.000100182
6.74379e-05
0.000123151
6.67331e-05
0.000124145
6.85567e-05
6.10664e-05
6.10726e-05
8.24765e-05
6.15114e-05
6.15212e-05
2.3629e-05
2.36254e-05
2.36177e-05
2.36211e-05
8.22597e-05
6.19801e-05
6.19888e-05
6.15539e-05
6.15608e-05
2.36193e-05
2.36227e-05
6.70996e-05
6.57717e-05
0.000126148
0.000100933
6.61399e-05
6.64882e-05
0.000125131
7.00519e-05
4.95464e-05
6.90755e-05
4.95557e-05
6.70987e-05
0.000126137
6.57674e-05
0.000100899
6.6139e-05
0.000125119
6.64854e-05
7.01746e-05
4.95699e-05
4.95611e-05
7.10866e-05
6.75737e-05
0.000100215
6.74427e-05
0.000123155
6.67332e-05
0.000124149
6.85544e-05
7.01728e-05
4.9566e-05
4.95572e-05
7.1085e-05
6.75727e-05
0.000100182
0.000123144
6.74392e-05
0.000124137
6.67291e-05
6.85534e-05
7.00625e-05
4.95517e-05
6.90692e-05
4.9561e-05
6.7099e-05
0.000126153
6.57731e-05
0.000100915
6.61392e-05
0.000125135
6.64784e-05
7.00544e-05
4.95473e-05
6.9075e-05
4.95567e-05
6.75738e-05
0.000100223
6.74226e-05
0.000123162
6.67527e-05
0.000124169
6.85549e-05
7.01667e-05
4.95712e-05
4.95625e-05
7.10954e-05
6.7573e-05
0.000100198
0.00012316
6.7433e-05
0.000124154
6.67345e-05
6.85541e-05
7.01723e-05
4.95669e-05
4.95581e-05
7.10874e-05
6.10675e-05
6.10725e-05
8.24726e-05
6.1512e-05
6.15175e-05
2.36287e-05
2.36251e-05
2.36168e-05
2.36203e-05
8.22558e-05
6.19806e-05
6.19862e-05
6.1555e-05
6.15601e-05
2.3619e-05
2.36224e-05
6.70992e-05
0.000126145
6.57633e-05
0.000100927
6.6139e-05
0.000125132
6.64887e-05
7.00621e-05
4.95515e-05
6.90715e-05
4.95608e-05
7.00596e-05
4.95457e-05
6.90696e-05
4.9555e-05
6.75735e-05
0.00010022
0.000123164
6.74391e-05
0.000124152
6.67369e-05
6.85646e-05
6.75729e-05
0.000100208
0.000123157
6.74427e-05
0.000124145
6.67248e-05
6.85539e-05
7.01671e-05
4.9571e-05
4.95622e-05
7.10951e-05
7.01652e-05
4.95653e-05
4.95565e-05
7.10925e-05
2.36274e-05
2.36238e-05
2.36262e-05
2.36226e-05
8.22526e-05
6.19824e-05
6.19807e-05
6.15563e-05
6.15552e-05
2.36177e-05
2.36211e-05
2.36165e-05
2.36199e-05
2.36173e-05
2.36141e-05
2.36152e-05
2.36119e-05
6.20303e-05
6.20287e-05
8.21633e-05
6.24373e-05
6.24352e-05
2.36084e-05
2.36116e-05
2.36063e-05
2.36094e-05
8.20569e-05
6.28676e-05
6.28652e-05
6.24775e-05
6.24754e-05
7.20526e-05
4.95706e-05
7.12001e-05
4.95789e-05
7.00482e-05
6.76705e-05
0.000122206
9.82213e-05
6.90324e-05
6.83734e-05
0.00012124
7.00488e-05
6.76685e-05
0.0001222
9.82098e-05
6.90291e-05
6.8365e-05
0.000121234
7.21611e-05
4.9594e-05
4.95863e-05
7.29579e-05
7.21587e-05
4.95879e-05
4.95801e-05
7.29555e-05
7.05055e-05
9.76299e-05
6.92742e-05
0.000119387
6.85797e-05
0.000120322
7.15538e-05
7.05015e-05
9.76187e-05
6.92657e-05
0.000119382
6.85772e-05
0.000120317
7.15544e-05
6.20209e-05
6.20281e-05
8.21602e-05
6.24284e-05
6.2437e-05
2.36167e-05
2.36134e-05
2.36062e-05
2.36093e-05
8.2054e-05
6.28581e-05
6.28668e-05
6.24683e-05
6.24757e-05
2.36078e-05
2.36109e-05
7.00431e-05
6.76689e-05
0.000122204
9.82418e-05
6.90351e-05
6.83699e-05
0.000121238
7.20503e-05
4.95674e-05
7.11989e-05
4.95757e-05
7.00423e-05
0.000122192
6.76645e-05
9.82102e-05
6.90337e-05
0.000121227
6.83661e-05
7.21592e-05
4.95886e-05
4.95808e-05
7.29549e-05
7.05078e-05
9.76499e-05
6.92705e-05
0.000119385
6.85779e-05
0.00012032
7.15489e-05
7.21574e-05
4.95847e-05
4.95769e-05
7.29531e-05
7.05064e-05
9.76183e-05
0.000119374
6.92665e-05
0.000120309
6.85736e-05
7.1548e-05
7.20609e-05
4.95726e-05
7.11928e-05
4.95808e-05
7.00457e-05
0.00012221
6.767e-05
9.82257e-05
6.90318e-05
0.000121243
6.83604e-05
7.20529e-05
4.95683e-05
7.11983e-05
4.95766e-05
7.05116e-05
9.76579e-05
6.92524e-05
0.000119393
6.85964e-05
0.000120341
7.15453e-05
7.21515e-05
4.95898e-05
4.95821e-05
7.29637e-05
7.05049e-05
9.76345e-05
0.000119391
6.92612e-05
0.000120327
6.85788e-05
7.1551e-05
7.2157e-05
4.95856e-05
4.95778e-05
7.29558e-05
6.20215e-05
6.20268e-05
8.21573e-05
6.24287e-05
6.24344e-05
2.36164e-05
2.36131e-05
2.36054e-05
2.36085e-05
8.20508e-05
6.28582e-05
6.28642e-05
6.24689e-05
6.24744e-05
2.36075e-05
2.36106e-05
7.00429e-05
0.0001222
6.76604e-05
9.82362e-05
6.90337e-05
0.00012124
6.83694e-05
7.20606e-05
4.95724e-05
7.11933e-05
4.95807e-05
7.20579e-05
4.95667e-05
7.11914e-05
4.9575e-05
7.0498e-05
9.76553e-05
0.000119395
6.92676e-05
0.000120324
6.85815e-05
7.15624e-05
7.05067e-05
9.76443e-05
0.000119388
6.92698e-05
0.000120317
6.85693e-05
7.15485e-05
7.2152e-05
4.95897e-05
4.95819e-05
7.29635e-05
7.215e-05
4.9584e-05
4.95762e-05
7.29607e-05
2.36151e-05
2.36118e-05
2.36139e-05
2.36106e-05
8.20491e-05
6.286e-05
6.28584e-05
6.24704e-05
6.24688e-05
2.36062e-05
2.36093e-05
2.3605e-05
2.36081e-05
2.3606e-05
2.36031e-05
2.36039e-05
2.36009e-05
6.29072e-05
6.29047e-05
8.23613e-05
6.32801e-05
6.32773e-05
2.35979e-05
2.36007e-05
2.35958e-05
2.35986e-05
8.23571e-05
6.36765e-05
6.36734e-05
6.3319e-05
6.33161e-05
7.38006e-05
4.95891e-05
7.30551e-05
4.95964e-05
7.30641e-05
6.9463e-05
0.000118507
9.60428e-05
7.19888e-05
7.0149e-05
0.000117604
7.30646e-05
6.94603e-05
0.000118502
9.60335e-05
7.19847e-05
7.01402e-05
0.000117599
7.38966e-05
4.96103e-05
4.96035e-05
7.45956e-05
7.38942e-05
4.96042e-05
4.95974e-05
7.45932e-05
7.34749e-05
9.55803e-05
7.09981e-05
0.000115898
7.03212e-05
0.000116765
7.45711e-05
7.34706e-05
9.55707e-05
7.09893e-05
0.000115893
7.03178e-05
0.00011676
7.45714e-05
6.28976e-05
6.2905e-05
8.23598e-05
6.32706e-05
6.32794e-05
2.36054e-05
2.36024e-05
2.35956e-05
2.35985e-05
8.23557e-05
6.36668e-05
6.36756e-05
6.33093e-05
6.33167e-05
2.35973e-05
2.36001e-05
7.30593e-05
6.9461e-05
0.000118505
9.60625e-05
7.19911e-05
7.01452e-05
0.000117603
7.37981e-05
4.95858e-05
7.30538e-05
4.95931e-05
7.30581e-05
0.000118494
6.94567e-05
9.60329e-05
7.19895e-05
0.000117592
7.01407e-05
7.38946e-05
4.96049e-05
4.95981e-05
7.45925e-05
7.34769e-05
9.55998e-05
7.09942e-05
0.000115897
7.03189e-05
0.000116764
7.45664e-05
7.38926e-05
4.9601e-05
4.95942e-05
7.45906e-05
7.34754e-05
9.55709e-05
0.000115886
7.09895e-05
0.000116752
7.03142e-05
7.45651e-05
7.38088e-05
4.9591e-05
7.30478e-05
4.95982e-05
7.30612e-05
0.000118511
6.94621e-05
9.60487e-05
7.19883e-05
0.000117609
7.0136e-05
7.3801e-05
4.95868e-05
7.30533e-05
4.95941e-05
7.34816e-05
9.56076e-05
7.09775e-05
0.000115904
7.0337e-05
0.000116785
7.45625e-05
7.38869e-05
4.9606e-05
4.95993e-05
7.46013e-05
7.34744e-05
9.55859e-05
0.000115903
7.09851e-05
0.00011677
7.03201e-05
7.4568e-05
7.38924e-05
4.96019e-05
4.95951e-05
7.45934e-05
6.28978e-05
6.29036e-05
8.23569e-05
6.32706e-05
6.32768e-05
2.36051e-05
2.36021e-05
2.35948e-05
2.35977e-05
8.23528e-05
6.36666e-05
6.36729e-05
6.33095e-05
6.33154e-05
2.3597e-05
2.35998e-05
7.30587e-05
0.000118502
6.94523e-05
9.60581e-05
7.19901e-05
0.000117606
7.01441e-05
7.38086e-05
4.95908e-05
7.30484e-05
4.95981e-05
7.38057e-05
4.95852e-05
7.30463e-05
4.95925e-05
7.34684e-05
9.5606e-05
0.000115907
7.0992e-05
0.000116768
7.03225e-05
7.45786e-05
7.34762e-05
9.55946e-05
0.0001159
7.09928e-05
0.000116761
7.03101e-05
7.45656e-05
7.38875e-05
4.9606e-05
4.95992e-05
7.46011e-05
7.38853e-05
4.96003e-05
4.95935e-05
7.45982e-05
2.36038e-05
2.36008e-05
2.36026e-05
2.35996e-05
8.23505e-05
6.36686e-05
6.36667e-05
6.33114e-05
6.33096e-05
2.35957e-05
2.35985e-05
2.35945e-05
2.35973e-05
2.35957e-05
2.3593e-05
2.35935e-05
2.35909e-05
6.37147e-05
6.37115e-05
8.3034e-05
6.40574e-05
6.4054e-05
2.35884e-05
2.35909e-05
2.35862e-05
2.35887e-05
8.31218e-05
6.44241e-05
6.44205e-05
6.40948e-05
6.40913e-05
7.53381e-05
4.96052e-05
7.4681e-05
4.96116e-05
7.60682e-05
7.11545e-05
0.000115106
9.43844e-05
7.49561e-05
7.18222e-05
0.000114301
7.60684e-05
7.11506e-05
0.000115101
9.43759e-05
7.49519e-05
7.18133e-05
0.000114297
7.5423e-05
4.96246e-05
4.96185e-05
7.60423e-05
7.54205e-05
4.96185e-05
4.96124e-05
7.60398e-05
7.64263e-05
9.40508e-05