/*--------------------------------*- C++ -*----------------------------------*\
| =========                 |                                                 |
| \\      /  F ield         | OpenFOAM: The Open Source CFD Toolbox           |
|  \\    /   O peration     | Version:  2312                                  |
|   \\  /    A nd           | Website:  www.openfoam.com                      |
|    \\/     M anipulation  |                                                 |
\*---------------------------------------------------------------------------*/
FoamFile
{
    version     2.0;
    format      ascii;
    arch        "LSB;label=32;scalar=64";
    class       surfaceScalarField;
    location    "750";
    object      phi;
}
// * * * * * * * * * * * * * * * * * * * * * * * * * * * * * * * * * * * * * //

dimensions      [0 3 -1 0 0 0 0];

oriented        oriented;

internalField   nonuniform List<scalar> 
124457
(
-8.45204e-07
-8.45648e-07
-0.00114634
4.47371e-07
4.48041e-07
0.00114714
-0.00113699
-1.51081e-06
8.45555e-07
4.10727e-07
0.00113748
-4.97115e-07
1.1255e-06
1.26236e-07
7.23975e-07
-5.38137e-07
-1.23893e-06
5.58926e-08
-0.00113686
-1.50798e-06
8.45505e-07
4.16401e-07
0.00113735
-4.94455e-07
1.12269e-06
1.23314e-07
7.23953e-07
-5.38072e-07
-1.23892e-06
5.60482e-08
-0.000276391
1.53995e-06
1.5027e-06
-4.92152e-07
-4.95126e-07
0.000274336
-8.24219e-07
-8.24585e-07
-0.00114949
4.38157e-07
4.38849e-07
0.00115026
-0.00113888
-1.50272e-06
8.24432e-07
4.02162e-07
0.00113933
-4.84295e-07
1.13154e-06
1.31376e-07
7.30326e-07
-5.21717e-07
-1.22167e-06
6.20096e-08
-0.00113875
-1.50002e-06
8.24483e-07
4.07831e-07
0.0011392
-4.81484e-07
1.12864e-06
1.2855e-07
7.30297e-07
-5.2158e-07
-1.22164e-06
6.21286e-08
-0.000276471
1.5319e-06
1.49463e-06
-4.78906e-07
-4.81847e-07
0.000274405
-8.0258e-07
-8.02897e-07
-0.00115254
4.28614e-07
4.29279e-07
0.00115329
-0.00114058
-1.49376e-06
8.02912e-07
3.94353e-07
0.00114098
-4.7118e-07
1.1368e-06
1.3628e-07
7.36585e-07
-5.05461e-07
-1.20392e-06
6.82907e-08
-0.00114045
-1.49103e-06
8.02875e-07
4.0008e-07
0.00114085
-4.68361e-07
1.13394e-06
1.33479e-07
7.36583e-07
-5.05445e-07
-1.20388e-06
6.8352e-08
-0.000276485
1.52298e-06
1.48564e-06
-4.65432e-07
-4.68354e-07
0.00027441
-7.80382e-07
-7.80701e-07
-0.00115549
4.18797e-07
4.1941e-07
0.00115622
-0.00114208
-1.48371e-06
7.80665e-07
3.86888e-07
0.00114243
-4.58291e-07
1.14174e-06
1.40909e-07
7.42863e-07
-4.89443e-07
-1.18585e-06
7.46787e-08
-0.00114195
-1.48098e-06
7.80608e-07
3.92595e-07
0.0011423
-4.55473e-07
1.13889e-06
1.38116e-07
7.42869e-07
-4.89429e-07
-1.18581e-06
7.47384e-08
-0.000276439
1.51296e-06
1.47557e-06
-4.51589e-07
-4.54522e-07
0.000274357
-7.5786e-07
-7.58131e-07
-0.00115835
4.08977e-07
4.09595e-07
0.00115904
-0.00114338
-1.47271e-06
7.5806e-07
3.79131e-07
0.00114368
-4.45624e-07
1.14649e-06
1.45417e-07
7.49184e-07
-4.73747e-07
-1.1677e-06
8.11802e-08
-0.00114325
-1.46998e-06
7.58024e-07
3.84885e-07
0.00114355
-4.42828e-07
1.14362e-06
1.42605e-07
7.4919e-07
-4.73735e-07
-1.16765e-06
8.1235e-08
-0.000276339
1.50196e-06
1.46455e-06
-4.37582e-07
-4.40509e-07
0.000274251
-7.35159e-07
-7.35389e-07
-0.0011611
3.99391e-07
3.99995e-07
0.00116177
-0.00114449
-1.46088e-06
7.35336e-07
3.70662e-07
0.00114474
-4.33193e-07
1.15119e-06
1.49885e-07
7.55507e-07
-4.58487e-07
-1.14969e-06
8.77218e-08
-0.00114436
-1.45814e-06
7.35297e-07
3.76431e-07
0.00114461
-4.30391e-07
1.14833e-06
1.4708e-07
7.55508e-07
-4.58477e-07
-1.14964e-06
8.77731e-08
-0.000276192
1.49015e-06
1.45272e-06
-4.23533e-07
-4.26449e-07
0.0002741
-7.12412e-07
-7.1261e-07
-0.00116374
3.90154e-07
3.90751e-07
0.00116439
-0.0011454
-1.44844e-06
7.12567e-07
3.61352e-07
0.00114561
-4.21049e-07
1.15587e-06
1.54352e-07
7.61811e-07
-4.43699e-07
-1.13198e-06
9.42793e-08
-0.00114527
-1.4457e-06
7.12522e-07
3.67133e-07
0.00114547
-4.18246e-07
1.15301e-06
1.5155e-07
7.61807e-07
-4.43688e-07
-1.13193e-06
9.43296e-08
-0.000276007
1.47769e-06
1.44026e-06
-4.09599e-07
-4.12502e-07
0.000273911
-6.89612e-07
-6.89767e-07
-0.00116628
3.81272e-07
3.81883e-07
0.00116689
-0.00114613
-1.43557e-06
6.89752e-07
3.50942e-07
0.00114629
-4.09179e-07
1.16056e-06
1.58856e-07
7.68039e-07
-4.29384e-07
-1.11472e-06
1.00855e-07
-0.001146
-1.43283e-06
6.89683e-07
3.56728e-07
0.00114616
-4.06375e-07
1.1577e-06
1.56061e-07
7.68044e-07
-4.29372e-07
-1.11466e-06
1.00903e-07
-0.000275791
1.46483e-06
1.4274e-06
-3.95947e-07
-3.9883e-07
0.000273694
-6.66762e-07
-6.66881e-07
-0.0011687
3.72779e-07
3.73389e-07
0.00116929
-0.00114668
-1.42248e-06
6.66834e-07
3.39329e-07
0.0011468
-3.97574e-07
1.16526e-06
1.63451e-07
7.7419e-07
-4.15547e-07
-1.09801e-06
1.07418e-07
-0.00114655
-1.41976e-06
6.66759e-07
3.45167e-07
0.00114666
-3.94788e-07
1.16239e-06
1.60648e-07
7.74189e-07
-4.15528e-07
-1.09792e-06
1.07478e-07
-0.000275552
1.45173e-06
1.41432e-06
-3.82685e-07
-3.85536e-07
0.000273454
-6.43756e-07
-6.43837e-07
-0.001171
3.64566e-07
3.65157e-07
0.00117156
-0.00114707
-1.4094e-06
6.43807e-07
3.26598e-07
0.00114714
-3.86328e-07
1.16986e-06
1.68031e-07
7.80272e-07
-4.02211e-07
-1.08183e-06
1.13918e-07
-0.00114694
-1.40666e-06
6.43776e-07
3.32406e-07
0.00114701
-3.8353e-07
1.167e-06
1.65249e-07
7.80219e-07
-4.02188e-07
-1.08181e-06
1.13991e-07
-0.000275297
1.43865e-06
1.40123e-06
-3.69923e-07
-3.72785e-07
0.0002732
-6.20343e-07
-6.20415e-07
-0.00117319
3.50443e-07
3.56785e-07
0.00117372
-0.0011473
-1.39643e-06
6.20397e-07
3.13259e-07
0.00114734
-3.75413e-07
1.17435e-06
1.72595e-07
7.862e-07
-3.89358e-07
-1.06628e-06
1.20356e-07
-0.00114717
-1.3937e-06
6.20356e-07
3.19058e-07
0.0011472
-3.72615e-07
1.17149e-06
1.69822e-07
7.86149e-07
-3.89323e-07
-1.06626e-06
1.20429e-07
-0.000275032
1.42568e-06
1.38826e-06
-3.5772e-07
-3.60571e-07
0.000272937
-5.963e-07
-5.96351e-07
-0.00117526
3.41855e-07
3.48192e-07
0.00117576
-0.00114738
-1.38367e-06
5.96374e-07
2.98645e-07
0.00114739
-3.64853e-07
1.17878e-06
1.77177e-07
7.92049e-07
-3.76942e-07
-1.05134e-06
1.26796e-07
-0.00114725
-1.38095e-06
5.96389e-07
3.04483e-07
0.00114726
-3.62059e-07
1.17592e-06
1.74399e-07
7.91994e-07
-3.76923e-07
-1.05131e-06
1.26824e-07
-0.000274762
1.41292e-06
1.3755e-06
-3.46072e-07
-3.48924e-07
0.000272669
-5.72673e-07
-5.72713e-07
-0.0011772
3.34006e-07
3.40359e-07
0.00117767
-0.00114734
-1.37127e-06
5.72624e-07
2.8295e-07
0.00114732
-3.54714e-07
1.183e-06
1.81733e-07
7.97667e-07
-3.65025e-07
-1.03709e-06
1.33069e-07
-0.00114721
-1.3685e-06
5.72577e-07
2.88746e-07
0.00114718
-3.51874e-07
1.18019e-06
1.78965e-07
7.97623e-07
-3.6503e-07
-1.03705e-06
1.33088e-07
-0.000274491
1.40048e-06
1.36309e-06
-3.35017e-07
-3.37847e-07
0.000272401
-5.48698e-07
-5.48782e-07
-0.00117901
3.26205e-07
3.3255e-07
0.00117945
-0.00114719
-1.35923e-06
5.48739e-07
2.66121e-07
0.00114714
-3.44659e-07
1.18709e-06
1.86477e-07
8.0299e-07
-3.53676e-07
-1.0236e-06
1.39112e-07
-0.00114706
-1.35647e-06
5.48734e-07
2.71927e-07
0.001147
-3.41888e-07
1.18427e-06
1.83673e-07
8.0295e-07
-3.5367e-07
-1.02356e-06
1.39138e-07
-0.000274223
1.38845e-06
1.35108e-06
-3.24552e-07
-3.27371e-07
0.000272135
-5.24498e-07
-5.2459e-07
-0.00118069
3.18185e-07
3.24513e-07
0.0011811
-0.00114693
-1.34766e-06
5.24591e-07
2.48839e-07
0.00114686
-3.35041e-07
1.19095e-06
1.91055e-07
8.08088e-07
-3.42867e-07
-1.0108e-06
1.44951e-07
-0.0011468
-1.3449e-06
5.24619e-07
2.54641e-07
0.00114672
-3.32263e-07
1.18814e-06
1.88259e-07
8.08031e-07
-3.42838e-07
-1.01076e-06
1.4498e-07
-0.000273959
1.37688e-06
1.33951e-06
-3.14674e-07
-3.17491e-07
0.000271875
-5.00239e-07
-5.0032e-07
-0.00118225
3.10311e-07
3.16664e-07
0.00118262
-0.00114659
-1.33658e-06
5.00246e-07
2.31299e-07
0.0011465
-3.25844e-07
1.19462e-06
1.95475e-07
8.1295e-07
-3.32524e-07
-9.98645e-07
1.50603e-07
-0.00114646
-1.33378e-06
5.00119e-07
2.37088e-07
0.00114636
-3.23066e-07
1.19183e-06
1.92682e-07
8.12907e-07
-3.32497e-07
-9.98601e-07
1.50631e-07
-0.000273702
1.36572e-06
1.32838e-06
-3.05305e-07
-3.0811e-07
0.000271621
-4.75508e-07
-4.75595e-07
-0.00118367
3.01932e-07
3.08242e-07
0.00118401
-0.00114618
-1.32594e-06
4.7556e-07
2.13392e-07
0.00114607
-3.17073e-07
1.1981e-06
1.99705e-07
8.17591e-07
-3.22644e-07
-9.87128e-07
1.56062e-07
-0.00114605
-1.32317e-06
4.75485e-07
2.1925e-07
0.00114593
-3.14307e-07
1.1953e-06
1.96909e-07
8.17549e-07
-3.22632e-07
-9.87079e-07
1.5608e-07
-0.000273453
1.35512e-06
1.31779e-06
-2.96529e-07
-2.99324e-07
0.000271376
-4.50665e-07
-4.50741e-07
-0.00118496
2.93288e-07
2.99603e-07
0.00118527
-0.0011457
-1.31583e-06
4.50722e-07
1.95472e-07
0.00114558
-3.08745e-07
1.20135e-06
2.0374e-07
8.22048e-07
-3.13213e-07
-9.76184e-07
1.61326e-07
-0.00114557
-1.31305e-06
4.50636e-07
2.01284e-07
0.00114545
-3.05975e-07
1.19856e-06
2.00952e-07
8.22004e-07
-3.13197e-07
-9.76138e-07
1.61348e-07
-0.000273212
1.34497e-06
1.30767e-06
-2.88233e-07
-2.91022e-07
0.000271139
-4.25381e-07
-4.25476e-07
-0.00118612
2.8989e-07
2.90353e-07
0.00118639
-0.00114518
-1.30624e-06
4.2545e-07
1.78005e-07
0.00114505
-3.00873e-07
1.20437e-06
2.0754e-07
8.26283e-07
-3.04229e-07
-9.65821e-07
1.66362e-07
-0.00114505
-1.30347e-06
4.25377e-07
1.83802e-07
0.00114491
-2.98104e-07
1.20157e-06
2.04755e-07
8.26245e-07
-3.04211e-07
-9.65769e-07
1.66387e-07
-0.000272981
1.33538e-06
1.29809e-06
-2.80491e-07
-2.83273e-07
0.000270911
-3.99879e-07
-3.9985e-07
-0.00118716
2.80059e-07
2.80521e-07
0.0011874
-0.00114462
-1.29717e-06
3.99813e-07
1.61081e-07
0.00114449
-2.93447e-07
1.20716e-06
2.111e-07
8.30344e-07
-2.95693e-07
-9.56006e-07
1.71179e-07
-0.00114449
-1.29441e-06
3.99741e-07
1.66858e-07
0.00114435
-2.90668e-07
1.20436e-06
2.08329e-07
8.30311e-07
-2.95667e-07
-9.55948e-07
1.7121e-07
-0.000272759
1.3263e-06
1.28903e-06
-2.73237e-07
-2.76017e-07
0.000270693
-3.7399e-07
-3.74025e-07
-0.00118807
2.69423e-07
2.6992e-07
0.00118828
-0.00114404
-1.28866e-06
3.74008e-07
1.44933e-07
0.0011439
-2.86478e-07
1.20968e-06
2.14411e-07
8.3425e-07
-2.87578e-07
-9.46689e-07
1.75774e-07
-0.00114391
-1.28589e-06
3.73943e-07
1.50682e-07
0.00114376
-2.83707e-07
1.20689e-06
2.11633e-07
8.34209e-07
-2.87554e-07
-9.46638e-07
1.75805e-07
-0.000272547
1.31776e-06
1.28051e-06
-2.665e-07
-2.69269e-07
0.000270484
-3.48067e-07
-3.4808e-07
-0.00118886
2.58348e-07
2.58842e-07
0.00118904
-0.00114344
-1.28061e-06
3.47904e-07
1.29425e-07
0.00114329
-2.79928e-07
1.21201e-06
2.17481e-07
8.37991e-07
-2.79852e-07
-9.37851e-07
1.80175e-07
-0.0011433
-1.27784e-06
3.47878e-07
1.35171e-07
0.00114315
-2.77155e-07
1.20922e-06
2.14707e-07
8.37937e-07
-2.79833e-07
-9.37818e-07
1.80201e-07
-0.000272345
1.30969e-06
1.27246e-06
-2.60202e-07
-2.6296e-07
0.000270286
-3.21993e-07
-3.21954e-07
-0.00118953
2.46359e-07
2.4685e-07
0.00118968
-0.00114283
-1.27309e-06
3.21839e-07
1.14891e-07
0.00114268
-2.73844e-07
1.21408e-06
2.2027e-07
8.41548e-07
-2.72537e-07
-9.29509e-07
1.84345e-07
-0.00114269
-1.27032e-06
3.21799e-07
1.20609e-07
0.00114254
-2.71074e-07
1.21129e-06
2.17498e-07
8.41491e-07
-2.72519e-07
-9.29476e-07
1.8437e-07
-0.000272153
1.30215e-06
1.26495e-06
-2.54392e-07
-2.57139e-07
0.000270097
-2.95937e-07
-2.95909e-07
-0.00119009
2.33729e-07
2.34145e-07
0.00119022
-0.00114221
-1.26602e-06
2.95859e-07
1.01219e-07
0.00114206
-2.68146e-07
1.21597e-06
2.22839e-07
8.44965e-07
-2.65577e-07
-9.21586e-07
1.88331e-07
-0.00114208
-1.26326e-06
2.95863e-07
1.0695e-07
0.00114192
-2.65379e-07
1.21317e-06
2.20066e-07
8.44895e-07
-2.65569e-07
-9.21563e-07
1.88346e-07
-0.00027197
1.29507e-06
1.25788e-06
-2.48979e-07
-2.51723e-07
0.000269918
-2.70061e-07
-2.70012e-07
-0.00119055
2.20533e-07
2.20928e-07
0.00119065
-0.0011416
-1.25941e-06
2.6989e-07
8.85025e-08
0.00114145
-2.62846e-07
1.21765e-06
2.25178e-07
8.48206e-07
-2.58978e-07
-9.14094e-07
1.92118e-07
-0.00114146
-1.25665e-06
2.69907e-07
9.42253e-08
0.00114131
-2.60082e-07
1.21486e-06
2.22402e-07
8.48144e-07
-2.5897e-07
-9.14064e-07
1.9213e-07
-0.000271798
1.28844e-06
1.25128e-06
-2.43985e-07
-2.4672e-07
0.000269749
-2.44483e-07
-2.44345e-07
-0.00119091
2.06645e-07
2.07054e-07
0.00119098
-0.001141
-1.25322e-06
2.44338e-07
7.67011e-08
0.00114085
-2.57906e-07
1.21917e-06
2.27317e-07
8.5131e-07
-2.52721e-07
-9.06994e-07
1.95733e-07
-0.00114086
-1.25046e-06
2.44349e-07
8.23845e-08
0.00114071
-2.55136e-07
1.21639e-06
2.24551e-07
8.51252e-07
-2.5272e-07
-9.06959e-07
1.95735e-07
-0.000271635
1.28224e-06
1.2451e-06
-2.39353e-07
-2.42082e-07
0.000269589
-0.00114027
-1.24469e-06
2.18879e-07
-2.50549e-07
1.21774e-06
2.26489e-07
-2.46788e-07
1.99158e-07
-1.16453e-06
-1.12399e-06
0.000276466
-0.000274366
9.14967e-08
9.68407e-08
0.00113645
8.50359e-07
4.19736e-07
-1.55311e-06
1.3071e-07
-5.05733e-07
-1.24894e-06
5.41978e-08
-5.42534e-07
7.27815e-07
1.16181e-06
0.00113652
8.50284e-07
4.19658e-07
-1.55052e-06
1.30494e-07
-5.05873e-07
-1.24865e-06
5.14877e-08
-5.39645e-07
7.27823e-07
-1.12378e-06
0.000276447
-0.000274347
9.15569e-08
9.4063e-08
0.00113744
8.50796e-07
4.1852e-07
-1.51301e-06
1.25087e-07
-5.00294e-07
-1.24867e-06
5.45231e-08
-5.42385e-07
7.27899e-07
1.15628e-06
0.0011364
8.5019e-07
-0.0011359
4.19659e-07
-1.54491e-06
1.30467e-07
-5.05936e-07
-1.24866e-06
5.15855e-08
-5.3959e-07
7.27802e-07
8.50685e-07
4.24072e-07
-1.51272e-06
1.25051e-07
-5.0021e-07
-1.24314e-06
5.43638e-08
7.22385e-07
-5.42314e-07
1.15334e-06
0.00113602
8.50037e-07
4.1966e-07
-1.54183e-06
1.27887e-07
-5.02778e-07
-1.24027e-06
4.85283e-08
-5.36865e-07
7.1944e-07
-1.12105e-06
0.000276422
-0.000274333
9.16982e-08
9.6721e-08
8.50646e-07
-0.00113636
4.18659e-07
-1.50986e-06
1.22122e-07
-4.975e-07
-1.24316e-06
5.45045e-08
7.22311e-07
-5.42266e-07
1.11548e-06
0.001137
8.50621e-07
4.18405e-07
-1.50459e-06
1.24985e-07
-5.00258e-07
-1.2455e-06
5.46587e-08
-5.42189e-07
7.25001e-07
-0.000274308
9.14177e-08
9.42208e-08
1.55119e-06
1.51108e-06
-4.92171e-07
-4.97732e-07
0.000274394
-1.17079e-06
-1.13027e-06
0.000276546
-0.000274452
1.00883e-07
1.06219e-07
4.17469e-07
0.00113694
-5.02661e-07
1.1662e-06
1.31777e-07
7.2942e-07
-5.3834e-07
-1.24474e-06
5.5756e-08
-1.54863e-06
8.45111e-07
4.17354e-07
0.00113701
-5.02782e-07
1.16352e-06
1.31671e-07
7.29454e-07
-5.35453e-07
-1.2444e-06
5.30335e-08
0.00113834
8.29592e-07
-0.00113788
4.11003e-07
-1.54531e-06
1.35595e-07
-4.93254e-07
-1.23179e-06
6.03389e-08
-5.2589e-07
7.34216e-07
1.16812e-06
0.00113841
8.2947e-07
-0.00113796
4.10911e-07
-1.54268e-06
1.35473e-07
-4.93293e-07
-1.2315e-06
5.76319e-08
-5.23019e-07
7.34225e-07
-4.92579e-07
-4.94773e-07
0.000274375
-1.1301e-06
0.000276527
-0.000274433
1.00998e-07
1.03476e-07
4.16233e-07
0.00113793
-4.9721e-07
1.12567e-06
1.26167e-07
7.29513e-07
-5.38197e-07
-1.24446e-06
5.60803e-08
-1.54306e-06
8.45074e-07
4.1738e-07
0.00113689
-5.02929e-07
1.15796e-06
1.31647e-07
7.29437e-07
-5.35398e-07
-1.24442e-06
5.31316e-08
0.00113934
8.29969e-07
-0.00113888
4.09699e-07
-1.50514e-06
1.30021e-07
-4.87776e-07
-1.23152e-06
6.06577e-08
-5.25757e-07
7.34315e-07
1.16256e-06
0.00113829
8.29281e-07
-0.00113784
4.10892e-07
-1.53709e-06
1.35598e-07
-4.93206e-07
-1.23153e-06
5.77114e-08
-5.22965e-07
7.34171e-07
8.44939e-07
4.17409e-07
0.00113651
-4.99731e-07
1.15501e-06
1.28989e-07
7.21063e-07
-5.3269e-07
5.00803e-08
-1.23605e-06
8.29812e-07
-0.00113843
4.15303e-07
-1.50482e-06
1.3005e-07
-4.87627e-07
-1.22598e-06
6.04738e-08
7.28805e-07
-5.25743e-07
1.15963e-06
0.00113791
8.29207e-07
-0.00113746
4.10982e-07
-1.53401e-06
1.32845e-07
-4.90253e-07
-1.22312e-06
5.46763e-08
-5.20296e-07
7.25861e-07
-4.92591e-07
-4.97386e-07
0.000274361
-1.12723e-06
0.000276502
-0.000274419
1.00991e-07
1.06114e-07
8.45514e-07
4.16151e-07
0.0011375
-4.97205e-07
1.11715e-06
1.2609e-07
7.26626e-07
-5.38002e-07
5.62059e-08
-1.24127e-06
8.29843e-07
-0.0011383
4.0989e-07
-1.5021e-06
1.27258e-07
-4.84787e-07
-1.22601e-06
6.0617e-08
7.28724e-07
-5.25656e-07
1.12174e-06
0.0011389
8.29824e-07
-0.00113844
4.09633e-07
-1.49674e-06
1.29959e-07
-4.87714e-07
-1.22834e-06
6.07949e-08
-5.25544e-07
7.31409e-07
-0.000274394
1.00803e-07
1.03627e-07
1.54319e-06
1.50301e-06
-4.78931e-07
-4.84497e-07
0.000274463
-1.17625e-06
-1.1357e-06
0.000276561
-0.000274473
1.09583e-07
1.14927e-07
4.08901e-07
0.00113878
-4.89893e-07
1.17223e-06
1.36905e-07
7.35766e-07
-5.21818e-07
-1.22746e-06
6.18512e-08
-1.54059e-06
8.24102e-07
4.08825e-07
0.00113885
-4.89962e-07
1.16955e-06
1.36794e-07
7.35782e-07
-5.18948e-07
-1.22714e-06
5.91418e-08
0.00114003
8.08041e-07
-0.00113963
4.03059e-07
-1.53657e-06
1.40605e-07
-4.8006e-07
-1.21417e-06
6.65193e-08
-5.09709e-07
7.40494e-07
1.17355e-06
0.00114011
8.07947e-07
-0.0011397
4.03057e-07
-1.53399e-06
1.40495e-07
-4.80116e-07
-1.21387e-06
6.38053e-08
-5.0686e-07
7.40497e-07
-4.79286e-07
-4.81514e-07
0.000274444
-1.13551e-06
0.000276541
-0.000274454
1.09693e-07
1.12156e-07
4.07629e-07
0.00113978
-4.84411e-07
1.1317e-06
1.31334e-07
7.35873e-07
-5.21691e-07
-1.22718e-06
6.21662e-08
-1.53503e-06
8.24009e-07
4.08852e-07
0.00113874
-4.89905e-07
1.16397e-06
1.3688e-07
7.35739e-07
-5.18877e-07
-1.22717e-06
5.92199e-08
0.00114104
8.08378e-07
-0.00114063
4.01868e-07
-1.49639e-06
1.35032e-07
-4.74586e-07
-1.21387e-06
6.68282e-08
-5.09582e-07
7.40608e-07
1.16797e-06
0.00113999
8.07792e-07
-0.00113958
4.03221e-07
-1.52843e-06
1.40584e-07
-4.80066e-07
-1.2139e-06
6.37733e-08
-5.06849e-07
7.40455e-07
8.23802e-07
4.08836e-07
0.00113836
-4.86907e-07
1.16107e-06
1.34157e-07
7.27417e-07
-5.16268e-07
5.62234e-08
-1.21879e-06
8.0836e-07
-0.00114018
4.07313e-07
-1.49611e-06
1.35069e-07
-4.74457e-07
-1.20835e-06
6.67257e-08
7.35076e-07
-5.09499e-07
1.16504e-06
0.00113961
8.07793e-07
-0.0011392
4.02973e-07
-1.52531e-06
1.37808e-07
-4.77106e-07
-1.20551e-06
6.09554e-08
-5.0406e-07
7.3212e-07
-4.79403e-07
-4.84155e-07
0.00027443
-1.13266e-06
0.000276516
-0.00027444
1.09702e-07
1.14774e-07
8.2451e-07
4.07538e-07
0.00113934
-4.84364e-07
1.12317e-06
1.31273e-07
7.32967e-07
-5.21457e-07
6.23049e-08
-1.22399e-06
8.08329e-07
-0.00114005
4.01965e-07
-1.49337e-06
1.32279e-07
-4.71629e-07
-1.20837e-06
6.678e-08
7.35016e-07
-5.09487e-07
1.12716e-06
0.0011406
8.08297e-07
-0.00114019
4.01825e-07
-1.488e-06
1.34961e-07
-4.74549e-07
-1.21072e-06
6.6864e-08
-5.09415e-07
7.37684e-07
-0.000274415
1.09471e-07
1.12321e-07
1.53423e-06
1.49404e-06
-4.65437e-07
-4.70984e-07
0.000274469
-1.18124e-06
-1.14068e-06
0.000276515
-0.000274434
1.17865e-07
1.23213e-07
4.01173e-07
0.00114043
-4.76778e-07
1.17753e-06
1.41815e-07
7.42062e-07
-5.05661e-07
-1.20969e-06
6.80972e-08
-1.53164e-06
8.02477e-07
4.01173e-07
0.0011405
-4.76836e-07
1.17484e-06
1.41704e-07
7.42052e-07
-5.02819e-07
-1.20939e-06
6.53787e-08
0.00114153
7.85958e-07
-0.00114118
3.95601e-07
-1.52682e-06
1.45259e-07
-4.67118e-07
-1.19615e-06
7.28497e-08
-4.93647e-07
7.46756e-07
1.17855e-06
0.00114161
7.85857e-07
-0.00114125
3.95584e-07
-1.52423e-06
1.45175e-07
-4.67156e-07
-1.19586e-06
7.01619e-08
-4.90778e-07
7.46757e-07
-4.65779e-07
-4.68014e-07
0.00027445
-1.14051e-06
0.000276495
-0.000274415
1.17993e-07
1.20456e-07
3.99997e-07
0.00114143
-4.71306e-07
1.13697e-06
1.36243e-07
7.42177e-07
-5.05533e-07
-1.20939e-06
6.84057e-08
-1.52609e-06
8.02341e-07
4.01376e-07
0.00114038
-4.76796e-07
1.16925e-06
1.41784e-07
7.42031e-07
-5.02836e-07
-1.20941e-06
6.53427e-08
0.00114254
7.8628e-07
-0.00114218
3.94401e-07
-1.48662e-06
1.39704e-07
-4.61641e-07
-1.19585e-06
7.31565e-08
-4.9352e-07
7.46876e-07
1.17297e-06
0.00114149
7.85731e-07
-0.00114113
3.95783e-07
-1.51866e-06
1.45258e-07
-4.67111e-07
-1.19585e-06
7.01244e-08
-4.90811e-07
7.46747e-07
8.02356e-07
4.01084e-07
0.00114
-4.73848e-07
1.16631e-06
1.39003e-07
7.33675e-07
-5.00019e-07
6.25313e-08
-1.20104e-06
7.8626e-07
-0.00114173
3.99854e-07
-1.48633e-06
1.39753e-07
-4.61508e-07
-1.19035e-06
7.30736e-08
7.41338e-07
-4.93414e-07
1.17003e-06
0.00114111
7.85755e-07
-0.00114075
3.95516e-07
-1.51556e-06
1.42489e-07
-4.64151e-07
-1.18753e-06
6.73147e-08
-4.87995e-07
7.38364e-07
-4.65875e-07
-4.70673e-07
0.000274436
-1.13766e-06
0.00027647
-0.000274401
1.17997e-07
1.23073e-07
8.02841e-07
3.9996e-07
0.00114099
-4.71274e-07
1.12845e-06
1.36175e-07
7.3926e-07
-5.05396e-07
6.84322e-08
-1.20624e-06
7.86231e-07
-0.0011416
3.94469e-07
-1.48359e-06
1.36959e-07
-4.58688e-07
-1.19035e-06
7.31261e-08
7.41294e-07
-4.93407e-07
1.1322e-06
0.00114209
7.86177e-07
-0.00114174
3.94334e-07
-1.47817e-06
1.3969e-07
-4.61545e-07
-1.19269e-06
7.32039e-08
-4.93371e-07
7.43974e-07
-0.000274375
1.17801e-07
1.20624e-07
1.52423e-06
1.48402e-06
-4.51648e-07
-4.57178e-07
0.000274415
-1.18599e-06
-1.14545e-06
0.000276415
-0.00027434
1.25837e-07
1.31185e-07
3.93762e-07
0.00114188
-4.63921e-07
1.18245e-06
1.46397e-07
7.48334e-07
-4.89672e-07
-1.19162e-06
7.44641e-08
-1.52161e-06
7.80267e-07
3.9369e-07
0.00114195
-4.63939e-07
1.17978e-06
1.46328e-07
7.48319e-07
-4.86805e-07
-1.19133e-06
7.17674e-08
0.00114283
7.63517e-07
-0.00114253
3.88034e-07
-1.51608e-06
1.49751e-07
-4.54417e-07
-1.17799e-06
7.93373e-08
-4.77853e-07
7.53066e-07
1.18333e-06
0.00114291
7.63408e-07
-0.0011426
3.8793e-07
-1.51347e-06
1.49699e-07
-4.54426e-07
-1.17771e-06
7.66196e-08
-4.75017e-07
7.5306e-07
-4.51955e-07
-4.54192e-07
0.000274396
-1.14529e-06
0.000276395
-0.000274321
1.25986e-07
1.28448e-07
3.9256e-07
0.00114288
-4.58442e-07
1.14189e-06
1.40848e-07
7.48454e-07
-4.89545e-07
-1.19132e-06
7.47705e-08
-1.51605e-06
7.80143e-07
3.93876e-07
0.00114183
-4.63894e-07
1.17419e-06
1.46412e-07
7.48317e-07
-4.86837e-07
-1.19131e-06
7.17386e-08
0.00114384
7.638e-07
-0.00114353
3.86839e-07
-1.47586e-06
1.44218e-07
-4.48933e-07
-1.17769e-06
7.96432e-08
-4.77725e-07
7.5319e-07
1.17773e-06
0.00114279
7.63279e-07
-0.00114248
3.88128e-07
-1.50791e-06
1.49752e-07
-4.54402e-07
-1.1777e-06
7.66167e-08
-4.7503e-07
7.5305e-07
7.80175e-07
3.93641e-07
0.00114145
-4.60963e-07
1.17123e-06
1.43614e-07
7.39937e-07
-4.8402e-07
6.89311e-08
-1.183e-06
7.63716e-07
-0.00114308
3.92256e-07
-1.47556e-06
1.44274e-07
-4.48789e-07
-1.17219e-06
7.95578e-08
7.47654e-07
-4.77626e-07
1.1748e-06
0.00114241
7.63271e-07
-0.0011421
3.87874e-07
-1.5048e-06
1.47008e-07
-4.51436e-07
-1.16939e-06
7.38089e-08
-4.72223e-07
7.44669e-07
-4.52047e-07
-4.56844e-07
0.000274382
-1.14243e-06
0.00027637
-0.000274307
1.25976e-07
1.31055e-07
7.80575e-07
3.92467e-07
0.00114244
-4.58354e-07
1.1334e-06
1.40819e-07
7.4555e-07
-4.8939e-07
7.48188e-08
-1.18815e-06
7.637e-07
-0.00114295
3.86879e-07
-1.47282e-06
1.41465e-07
-4.45982e-07
-1.17219e-06
7.96065e-08
7.47609e-07
-4.7762e-07
1.13698e-06
0.0011434
7.63645e-07
-0.00114309
3.86681e-07
-1.46739e-06
1.44225e-07
-4.48823e-07
-1.17453e-06
7.96853e-08
-4.77583e-07
7.50287e-07
-0.000274282
1.25795e-07
1.2861e-07
1.51326e-06
1.47303e-06
-4.37666e-07
-4.4318e-07
0.000274309
-1.1907e-06
-1.15017e-06
0.000276268
-0.0002742
1.33587e-07
1.38934e-07
3.86044e-07
0.00114313
-4.51269e-07
1.18717e-06
1.50874e-07
7.54647e-07
-4.7397e-07
-1.17346e-06
8.09656e-08
-1.51062e-06
7.57736e-07
3.85913e-07
0.0011432
-4.51259e-07
1.18453e-06
1.50841e-07
7.54631e-07
-4.71142e-07
-1.17318e-06
7.8241e-08
0.00114394
7.40827e-07
-0.00114368
3.79753e-07
-1.50444e-06
1.54234e-07
-4.419e-07
-1.15993e-06
8.58699e-08
-4.62481e-07
7.59375e-07
1.18804e-06
0.00114401
7.40717e-07
-0.00114375
3.79656e-07
-1.50182e-06
1.5418e-07
-4.41909e-07
-1.15965e-06
8.31448e-08
-4.59675e-07
7.59374e-07
-4.37948e-07
-4.40185e-07
0.00027429
-1.15e-06
0.000276249
-0.000274181
1.33732e-07
1.36188e-07
3.84853e-07
0.00114413
-4.45784e-07
1.14663e-06
1.45345e-07
7.54771e-07
-4.73843e-07
-1.17315e-06
8.12704e-08
-1.50507e-06
7.57619e-07
3.8612e-07
0.00114308
-4.51246e-07
1.17892e-06
1.5089e-07
7.54626e-07
-4.71148e-07
-1.17316e-06
7.82465e-08
0.00114494
7.41079e-07
-0.00114469
3.78556e-07
-1.4642e-06
1.48722e-07
-4.3641e-07
-1.15963e-06
8.61732e-08
-4.62354e-07
7.59502e-07
1.18244e-06
0.00114389
7.40598e-07
-0.00114363
3.79857e-07
-1.49626e-06
1.54236e-07
-4.41883e-07
-1.15964e-06
8.31556e-08
-4.59667e-07
7.59354e-07
7.57609e-07
3.85854e-07
0.0011427
-4.48286e-07
1.17598e-06
1.48127e-07
7.46246e-07
-4.68342e-07
7.54425e-08
-1.16486e-06
7.40999e-07
-0.00114423
3.83989e-07
-1.46391e-06
1.48757e-07
-4.36282e-07
-1.15413e-06
8.6092e-08
7.53974e-07
-4.62252e-07
1.17949e-06
0.00114351
7.40605e-07
-0.00114325
3.79638e-07
-1.49317e-06
1.51466e-07
-4.38951e-07
-1.15134e-06
8.03564e-08
-4.56862e-07
7.50985e-07
-4.38056e-07
-4.42845e-07
0.000274276
-1.14715e-06
0.000276223
-0.000274166
1.33726e-07
1.388e-07
7.57965e-07
3.84677e-07
0.00114369
-4.4567e-07
1.13816e-06
1.45348e-07
7.51865e-07
-4.73699e-07
8.13152e-08
-1.17e-06
7.40989e-07
-0.0011441
3.78615e-07
-1.46116e-06
1.45961e-07
-4.33468e-07
-1.15413e-06
8.61346e-08
7.53926e-07
-4.62251e-07
1.14168e-06
0.0011445
7.40942e-07
-0.00114424
3.78449e-07
-1.45575e-06
1.48701e-07
-4.36328e-07
-1.15653e-06
8.62164e-08
-4.62211e-07
7.56656e-07
-0.000274141
1.33526e-07
1.36336e-07
1.50142e-06
1.46118e-06
-4.236e-07
-4.29097e-07
0.000274158
-1.19536e-06
-1.15486e-06
0.000276083
-0.00027402
1.4105e-07
1.46395e-07
3.77569e-07
0.00114418
-4.38823e-07
1.19187e-06
1.5534e-07
7.60957e-07
-4.58708e-07
-1.15545e-06
8.75094e-08
-1.49879e-06
7.35032e-07
3.77454e-07
0.00114426
-4.38821e-07
1.18922e-06
1.55306e-07
7.60947e-07
-4.55903e-07
-1.15516e-06
8.47849e-08
0.00114485
7.1811e-07
-0.00114464
3.70668e-07
-1.49214e-06
1.58679e-07
-4.29688e-07
-1.14213e-06
9.24266e-08
-4.4757e-07
7.65678e-07
1.1927e-06
0.00114492
7.17994e-07
-0.00114471
3.70594e-07
-1.48951e-06
1.58627e-07
-4.29693e-07
-1.14185e-06
8.9712e-08
-4.44769e-07
7.6567e-07
-4.23883e-07
-4.26126e-07
0.000274139
-1.15468e-06
0.000276064
-0.000274001
1.41196e-07
1.43646e-07
3.76384e-07
0.00114519
-4.33332e-07
1.15134e-06
1.49833e-07
7.61085e-07
-4.58581e-07
-1.15514e-06
8.78124e-08
-1.49324e-06
7.34916e-07
3.77657e-07
0.00114414
-4.38804e-07
1.18361e-06
1.55352e-07
7.60933e-07
-4.55894e-07
-1.15516e-06
8.47964e-08
0.00114586
7.18312e-07
-0.00114565
3.6949e-07
-1.45189e-06
1.53186e-07
-4.24194e-07
-1.14182e-06
9.27289e-08
-4.47444e-07
7.65807e-07
1.18711e-06
0.0011448
7.17865e-07
-0.00114459
3.70775e-07
-1.48395e-06
1.58689e-07
-4.29662e-07
-1.14185e-06
8.97194e-08
-4.44763e-07
7.65651e-07
7.34938e-07
3.77441e-07
0.00114375
-4.35867e-07
1.18066e-06
1.52581e-07
7.52563e-07
-4.53096e-07
8.19947e-08
-1.14686e-06
7.18259e-07
-0.0011452
3.74957e-07
-1.4516e-06
1.5321e-07
-4.2407e-07
-1.13633e-06
9.26443e-08
7.60285e-07
-4.47347e-07
1.18417e-06
0.00114442
7.17863e-07
-0.00114421
3.70522e-07
-1.48085e-06
1.55928e-07
-4.26725e-07
-1.13355e-06
8.69253e-08
-4.41966e-07
7.57292e-07
-4.23984e-07
-4.28776e-07
0.000274125
-1.15183e-06
0.000276038
-0.000273987
1.41192e-07
1.4626e-07
7.35258e-07
3.76277e-07
0.00114475
-4.33243e-07
1.14286e-06
1.4982e-07
7.5823e-07
-4.58442e-07
8.78514e-08
-1.15205e-06
7.1824e-07
-0.00114506
3.69561e-07
-1.44886e-06
1.50422e-07
-4.21256e-07
-1.13633e-06
9.2686e-08
7.60232e-07
-4.47345e-07
1.14639e-06
0.00114541
7.18163e-07
-0.0011452
3.69366e-07
-1.44343e-06
1.5318e-07
-4.24095e-07
-1.13874e-06
9.27714e-08
-4.47305e-07
7.62949e-07
-0.000273961
1.41001e-07
1.43808e-07
1.48898e-06
1.44873e-06
-4.09678e-07
-4.15157e-07
0.00027397
-1.20005e-06
-1.15957e-06
0.000275867
-0.000273809
1.48254e-07
1.53595e-07
3.68246e-07
0.00114505
-4.26675e-07
1.19653e-06
1.59797e-07
7.67251e-07
-4.43916e-07
-1.13773e-06
9.40707e-08
-1.48635e-06
7.12279e-07
3.68124e-07
0.00114512
-4.26672e-07
1.19388e-06
1.59767e-07
7.67239e-07
-4.41114e-07
-1.13745e-06
9.13564e-08
0.00114558
6.95297e-07
-0.00114541
3.60492e-07
-1.47934e-06
1.63189e-07
-4.17723e-07
-1.12473e-06
9.9001e-08
-4.33136e-07
7.71923e-07
1.19739e-06
0.00114565
6.95175e-07
-0.00114549
3.60405e-07
-1.4767e-06
1.63139e-07
-4.17725e-07
-1.12446e-06
9.62934e-08
-4.3034e-07
7.71911e-07
-4.09956e-07
-4.12204e-07
0.000273951
-1.15939e-06
0.000275848
-0.00027379
1.48402e-07
1.50845e-07
3.67067e-07
0.00114606
-4.21181e-07
1.15603e-06
1.54309e-07
7.6738e-07
-4.4379e-07
-1.13742e-06
9.43726e-08
-1.48079e-06
7.12171e-07
3.68316e-07
0.001145
-4.26649e-07
1.18828e-06
1.59817e-07
7.67222e-07
-4.41109e-07
-1.13745e-06
9.1365e-08
0.00114659
6.95474e-07
-0.00114642
3.5932e-07
-1.43909e-06
1.57715e-07
-4.12226e-07
-1.12442e-06
9.9302e-08
-4.3301e-07
7.72052e-07
1.1918e-06
0.00114553
6.95058e-07
-0.00114537
3.60572e-07
-1.47114e-06
1.63203e-07
-4.17693e-07
-1.12446e-06
9.6301e-08
-4.30334e-07
7.71891e-07
7.12166e-07
3.68069e-07
0.00114462
-4.2371e-07
1.18534e-06
1.57049e-07
7.58861e-07
-4.38317e-07
8.85694e-08
-1.12916e-06
6.95411e-07
-0.00114597
3.64801e-07
-1.4388e-06
1.57729e-07
-4.12105e-07
-1.11895e-06
9.92183e-08
7.66533e-07
-4.32913e-07
1.18885e-06
0.00114515
6.95068e-07
-0.00114498
3.60374e-07
-1.46807e-06
1.60422e-07
-4.14783e-07
-1.11617e-06
9.3509e-08
-4.27544e-07
7.63543e-07
-4.10051e-07
-4.14845e-07
0.000273937
-1.15654e-06
0.000275822
-0.000273776
1.48393e-07
1.53457e-07
7.1245e-07
3.66932e-07
0.00114561
-4.21079e-07
1.14756e-06
1.54304e-07
7.64517e-07
-4.43652e-07
9.44126e-08
-1.13435e-06
6.95383e-07
-0.00114584
3.59407e-07
-1.43606e-06
1.5494e-07
-4.09299e-07
-1.11893e-06
9.92575e-08
7.66488e-07
-4.3291e-07
1.15108e-06
0.00114614
6.95318e-07
-0.00114598
3.59247e-07
-1.43065e-06
1.57686e-07
-4.1215e-07
-1.12135e-06
9.9343e-08
-4.32871e-07
7.69197e-07
-0.00027375
1.48186e-07
1.50995e-07
1.4761e-06
1.43585e-06
-3.9601e-07
-4.01473e-07
0.000273753
-1.20469e-06
-1.16424e-06
0.000275628
-0.000273575
1.55124e-07
1.60461e-07
3.57785e-07
0.00114573
-4.14791e-07
1.20121e-06
1.64307e-07
7.73474e-07
-4.296e-07
-1.12046e-06
1.00648e-07
-1.47347e-06
6.89486e-07
3.57708e-07
0.0011458
-4.14799e-07
1.19855e-06
1.64263e-07
7.73461e-07
-4.26805e-07
-1.12018e-06
9.79386e-08
0.00114613
6.72522e-07
-0.00114601
3.49249e-07
-1.46631e-06
1.67722e-07
-4.06085e-07
-1.10788e-06
1.05571e-07
-4.1918e-07
7.78077e-07
1.20205e-06
0.0011462
6.72359e-07
-0.00114608
3.49091e-07
-1.46366e-06
1.67704e-07
-4.06062e-07
-1.10759e-06
1.02868e-07
-4.16391e-07
7.78061e-07
-3.96286e-07
-3.9854e-07
0.000273734
-1.16408e-06
0.000275609
-0.000273556
1.55294e-07
1.5773e-07
3.56631e-07
0.00114674
-4.09294e-07
1.16073e-06
1.58836e-07
7.73603e-07
-4.29473e-07
-1.12015e-06
1.0095e-07
-1.46791e-06
6.89371e-07
3.57871e-07
0.00114568
-4.14765e-07
1.19296e-06
1.64325e-07
7.7344e-07
-4.26798e-07
-1.12019e-06