/*--------------------------------*- C++ -*----------------------------------*\
| =========                 |                                                 |
| \\      /  F ield         | OpenFOAM: The Open Source CFD Toolbox           |
|  \\    /   O peration     | Version:  2312                                  |
|   \\  /    A nd           | Website:  www.openfoam.com                      |
|    \\/     M anipulation  |                                                 |
\*---------------------------------------------------------------------------*/
FoamFile
{
    version     2.0;
    format      ascii;
    arch        "LSB;label=32;scalar=64";
    class       volVectorField;
    location    "750";
    object      U;
}
// * * * * * * * * * * * * * * * * * * * * * * * * * * * * * * * * * * * * * //

dimensions      [0 1 -1 0 0 0 0];

internalField   nonuniform List<vector> 
43120
(
(6.08512e-05 6.08611e-05 0.108928)
(-9.73677e-05 5.98574e-05 0.107975)
(5.98714e-05 -9.73775e-05 0.107975)
(-0.000158549 -0.00015853 0.106621)
(5.93942e-05 5.94028e-05 0.109226)
(-9.49775e-05 5.88501e-05 0.108152)
(5.88566e-05 -9.49885e-05 0.108152)
(-0.000154195 -0.000154165 0.106644)
(5.79046e-05 5.79186e-05 0.109515)
(-9.25568e-05 5.78329e-05 0.108311)
(5.78349e-05 -9.25413e-05 0.108311)
(-0.000149477 -0.000149463 0.106642)
(5.63927e-05 5.64025e-05 0.109794)
(-8.9926e-05 5.6755e-05 0.108451)
(5.67507e-05 -8.99114e-05 0.108451)
(-0.000144325 -0.000144325 0.106618)
(5.4925e-05 5.49364e-05 0.110064)
(-8.70995e-05 5.55474e-05 0.108572)
(5.55458e-05 -8.70896e-05 0.108572)
(-0.000138858 -0.000138859 0.106575)
(5.35314e-05 5.35435e-05 0.110324)
(-8.41132e-05 5.41644e-05 0.108675)
(5.41627e-05 -8.41048e-05 0.108675)
(-0.000133141 -0.000133144 0.106514)
(5.22218e-05 5.22346e-05 0.110574)
(-8.09864e-05 5.26036e-05 0.10876)
(5.26026e-05 -8.09796e-05 0.108759)
(-0.000127277 -0.000127281 0.106439)
(5.09852e-05 5.1e-05 0.110813)
(-7.77288e-05 5.085e-05 0.108827)
(5.08485e-05 -7.77209e-05 0.108826)
(-0.000121381 -0.000121382 0.106354)
(4.98099e-05 4.98255e-05 0.111042)
(-7.43414e-05 4.89001e-05 0.108877)
(4.89033e-05 -7.43327e-05 0.108877)
(-0.000115538 -0.000115532 0.10626)
(4.86504e-05 4.86652e-05 0.11126)
(-7.08465e-05 4.67881e-05 0.108912)
(4.67856e-05 -7.08378e-05 0.108911)
(-0.00010983 -0.000109835 0.106161)
(4.74393e-05 4.74548e-05 0.111466)
(-6.72203e-05 4.4534e-05 0.108932)
(4.45322e-05 -6.72127e-05 0.108931)
(-0.000104309 -0.000104314 0.106059)
(4.62486e-05 4.62649e-05 0.111661)
(-6.3561e-05 4.21903e-05 0.108939)
(4.2186e-05 -6.35579e-05 0.108938)
(-9.89905e-05 -9.90069e-05 0.105955)
(4.51995e-05 4.52188e-05 0.111844)
(-5.99799e-05 3.97693e-05 0.108933)
(3.97628e-05 -5.99699e-05 0.108933)
(-9.39336e-05 -9.39467e-05 0.105852)
(4.41687e-05 4.41875e-05 0.112014)
(-5.64564e-05 3.72693e-05 0.108917)
(3.72608e-05 -5.64522e-05 0.108917)
(-8.91362e-05 -8.91464e-05 0.10575)
(4.31038e-05 4.31209e-05 0.112173)
(-5.2983e-05 3.47509e-05 0.108892)
(3.47444e-05 -5.29757e-05 0.108891)
(-8.46001e-05 -8.46151e-05 0.105649)
(4.20145e-05 4.20326e-05 0.112319)
(-4.9559e-05 3.22483e-05 0.108859)
(3.22384e-05 -4.95309e-05 0.108858)
(-8.03072e-05 -8.03208e-05 0.105552)
(4.08348e-05 4.08503e-05 0.112452)
(-4.61781e-05 2.97685e-05 0.108818)
(2.97603e-05 -4.61537e-05 0.108818)
(-7.62829e-05 -7.62969e-05 0.105458)
(3.95948e-05 3.96109e-05 0.112573)
(-4.28524e-05 2.73568e-05 0.108773)
(2.73465e-05 -4.28282e-05 0.108772)
(-7.24849e-05 -7.24983e-05 0.105367)
(3.82507e-05 3.8265e-05 0.112682)
(-3.95892e-05 2.50101e-05 0.108723)
(2.50034e-05 -3.95657e-05 0.108722)
(-6.89377e-05 -6.89497e-05 0.10528)
(3.6793e-05 3.68126e-05 0.112779)
(-3.63981e-05 2.27433e-05 0.10867)
(2.27377e-05 -3.6373e-05 0.108669)
(-6.56174e-05 -6.56297e-05 0.105197)
(3.52205e-05 3.52434e-05 0.112864)
(-3.32919e-05 2.05934e-05 0.108614)
(2.0588e-05 -3.32695e-05 0.108613)
(-6.25258e-05 -6.25361e-05 0.105117)
(3.35586e-05 3.35842e-05 0.112938)
(-3.02592e-05 1.85443e-05 0.108556)
(1.85399e-05 -3.02434e-05 0.108555)
(-5.96262e-05 -5.9635e-05 0.105042)
(3.17797e-05 3.18078e-05 0.113)
(-2.73404e-05 1.66264e-05 0.108498)
(1.66228e-05 -2.73256e-05 0.108497)
(-5.694e-05 -5.69469e-05 0.10497)
(2.9923e-05 2.99454e-05 0.113052)
(-2.45215e-05 1.4825e-05 0.10844)
(1.48234e-05 -2.4513e-05 0.108439)
(-5.44266e-05 -5.44356e-05 0.104902)
(2.79961e-05 2.80168e-05 0.113095)
(-2.18126e-05 1.31416e-05 0.108382)
(1.31419e-05 -2.18087e-05 0.108381)
(-5.20942e-05 -5.21025e-05 0.104837)
(2.6018e-05 2.60413e-05 0.113128)
(-1.92322e-05 1.15712e-05 0.108325)
(1.15687e-05 -1.92375e-05 0.108324)
(-4.99195e-05 -4.99271e-05 0.104776)
(1.01126e-05 -1.67838e-05 0.108267)
(-5.86689e-06 -5.8087e-06 0.106779)
(6.02443e-05 9.80392e-05 0.107927)
(-6.02617e-05 9.80386e-05 0.107927)
(5.85248e-06 -5.78035e-06 0.106779)
(9.79609e-05 6.01678e-05 0.107927)
(9.80257e-05 -6.02304e-05 0.107927)
(-9.79348e-05 6.01386e-05 0.107927)
(-9.79638e-05 -6.01971e-05 0.107927)
(-5.82884e-06 5.88272e-06 0.106778)
(6.01424e-05 -9.79469e-05 0.107927)
(-6.01507e-05 -9.79693e-05 0.107927)
(5.78317e-06 5.86952e-06 0.106778)
(0.000158496 0.000158477 0.106621)
(-8.40881e-06 -8.36299e-06 0.106817)
(5.99775e-05 9.74743e-05 0.107974)
(-5.99868e-05 9.74673e-05 0.107974)
(5.92269e-05 9.57008e-05 0.108109)
(-5.92371e-05 9.56914e-05 0.108109)
(-0.000158544 0.00015849 0.106621)
(8.41738e-06 -8.35963e-06 0.106817)
(9.73933e-05 5.9898e-05 0.107975)
(9.74616e-05 -5.99731e-05 0.107974)
(9.56147e-05 5.91351e-05 0.10811)
(9.56922e-05 -5.92299e-05 0.108109)
(-9.73997e-05 -5.99292e-05 0.107974)
(-9.55772e-05 5.91074e-05 0.10811)
(-9.56072e-05 -5.91752e-05 0.108109)
(0.000158467 -0.000158554 0.106621)
(-8.31979e-06 8.43746e-06 0.106817)
(-5.98834e-05 -9.74068e-05 0.107974)
(5.91098e-05 -9.56041e-05 0.108109)
(-5.91231e-05 -9.56312e-05 0.108109)
(8.33493e-06 8.42957e-06 0.106816)
(0.000154155 0.000154126 0.106644)
(-1.06509e-05 -1.06019e-05 0.10683)
(5.89701e-05 9.50838e-05 0.108152)
(-5.89839e-05 9.50754e-05 0.108151)
(5.82075e-05 9.32603e-05 0.108273)
(-5.82282e-05 9.32539e-05 0.108272)
(-0.000154183 0.000154118 0.106644)
(1.0652e-05 -1.05891e-05 0.106829)
(9.50012e-05 5.88794e-05 0.108152)
(9.50907e-05 -5.89785e-05 0.108151)
(9.31791e-05 5.81265e-05 0.108273)
(9.32302e-05 -5.82272e-05 0.108272)
(-9.50033e-05 -5.89197e-05 0.108151)
(-9.31766e-05 5.80931e-05 0.108273)
(-9.32081e-05 -5.81635e-05 0.108272)
(0.000154171 -0.000154197 0.106644)
(-1.05595e-05 1.06586e-05 0.106829)
(-5.8867e-05 -9.50246e-05 0.108152)
(5.80917e-05 -9.3164e-05 0.108273)
(-5.81122e-05 -9.31665e-05 0.108273)
(1.0572e-05 1.06538e-05 0.106828)
(0.000149432 0.00014941 0.106643)
(-1.2765e-05 -1.27168e-05 0.106818)
(5.79492e-05 9.26352e-05 0.10831)
(-5.79728e-05 9.26304e-05 0.10831)
(5.71557e-05 9.06874e-05 0.108417)
(-5.71724e-05 9.06774e-05 0.108417)
(-0.00014946 0.000149406 0.106643)
(1.27709e-05 -1.27088e-05 0.106817)
(9.2553e-05 5.78707e-05 0.108311)
(9.26067e-05 -5.79733e-05 0.10831)
(9.06034e-05 5.70751e-05 0.108418)
(9.06553e-05 -5.71698e-05 0.108417)
(-9.25855e-05 -5.79069e-05 0.10831)
(-9.06004e-05 5.70372e-05 0.108418)
(-9.06372e-05 -5.71068e-05 0.108417)
(0.000149449 -0.000149486 0.106642)
(-1.26803e-05 1.27784e-05 0.106817)
(-5.78557e-05 -9.25413e-05 0.108311)
(5.70309e-05 -9.05894e-05 0.108418)
(-5.70502e-05 -9.05881e-05 0.108417)
(1.27091e-05 1.27701e-05 0.106816)
(0.000144304 0.000144283 0.106619)
(-1.48125e-05 -1.47672e-05 0.106784)
(5.68764e-05 9.00106e-05 0.10845)
(-5.68925e-05 9.0001e-05 0.10845)
(5.59919e-05 8.79124e-05 0.108543)
(-5.59991e-05 8.78982e-05 0.108543)
(-0.000144322 0.000144269 0.106619)
(1.4828e-05 -1.47651e-05 0.106784)
(8.9926e-05 5.67958e-05 0.108451)
(8.99787e-05 -5.68873e-05 0.10845)
(8.78247e-05 5.59102e-05 0.108544)
(8.78808e-05 -5.59991e-05 0.108542)
(-8.99613e-05 -5.68286e-05 0.10845)
(-8.7819e-05 5.58698e-05 0.108544)
(-8.78601e-05 -5.59348e-05 0.108543)
(0.000144308 -0.000144345 0.106619)
(-1.47348e-05 1.48296e-05 0.106783)
(-5.67727e-05 -8.99115e-05 0.108451)
(5.58645e-05 -8.78129e-05 0.108544)
(-5.58773e-05 -8.78093e-05 0.108543)
(1.47671e-05 1.48248e-05 0.106783)
(0.000138847 0.000138826 0.106575)
(-1.68614e-05 -1.68194e-05 0.106731)
(5.5673e-05 8.71891e-05 0.108572)
(-5.568e-05 8.7175e-05 0.108571)
(5.46514e-05 8.49636e-05 0.10865)
(-5.46583e-05 8.49464e-05 0.10865)
(-0.000138855 0.000138807 0.106575)
(1.68761e-05 -1.68132e-05 0.106731)
(8.71014e-05 5.55922e-05 0.108572)
(8.7158e-05 -5.56799e-05 0.108571)
(8.48741e-05 5.45686e-05 0.108651)
(8.49325e-05 -5.46597e-05 0.10865)
(-8.71376e-05 -5.56164e-05 0.108571)
(-8.48687e-05 5.45301e-05 0.108651)
(-8.49135e-05 -5.45994e-05 0.10865)
(0.000138848 -0.000138885 0.106575)
(-1.67844e-05 1.68794e-05 0.106731)
(-5.55601e-05 -8.70863e-05 0.108572)
(5.45248e-05 -8.4865e-05 0.108651)
(-5.45415e-05 -8.48615e-05 0.10865)
(1.68116e-05 1.68651e-05 0.10673)
(0.000133124 0.000133103 0.106514)
(-1.8893e-05 -1.88539e-05 0.106663)
(5.42885e-05 8.42035e-05 0.108674)
(-5.42962e-05 8.41869e-05 0.108674)
(5.31379e-05 8.18739e-05 0.108739)
(-5.31475e-05 8.1857e-05 0.108739)
(-0.000133135 0.000133089 0.106514)
(1.89076e-05 -1.88462e-05 0.106663)
(8.41134e-05 5.4207e-05 0.108675)
(8.41719e-05 -5.42968e-05 0.108674)
(8.17821e-05 5.30553e-05 0.10874)
(8.18413e-05 -5.31454e-05 0.108738)
(-8.41545e-05 -5.42382e-05 0.108674)
(-8.17791e-05 5.302e-05 0.10874)
(-8.18216e-05 -5.30812e-05 0.108739)
(0.000133128 -0.000133161 0.106514)
(-1.88189e-05 1.89124e-05 0.106662)
(-5.41818e-05 -8.41019e-05 0.108674)
(5.30128e-05 -8.17763e-05 0.10874)
(-5.30241e-05 -8.17686e-05 0.108739)
(1.88524e-05 1.89027e-05 0.106662)
(0.000127268 0.000127247 0.10644)
(-2.09155e-05 -2.08794e-05 0.106582)
(5.27271e-05 8.10777e-05 0.108759)
(-5.2734e-05 8.106e-05 0.108758)
(5.14238e-05 7.86448e-05 0.108811)
(-5.14341e-05 7.86285e-05 0.10881)
(-0.00012728 0.000127236 0.10644)
(2.0932e-05 -2.08728e-05 0.106582)
(8.09862e-05 5.26453e-05 0.10876)
(8.10451e-05 -5.27327e-05 0.108758)
(7.85523e-05 5.13408e-05 0.108811)
(7.86123e-05 -5.14289e-05 0.10881)
(-8.10265e-05 -5.26712e-05 0.108758)
(-7.85498e-05 5.13076e-05 0.108811)
(-7.85943e-05 -5.13719e-05 0.10881)
(0.000127272 -0.000127303 0.10644)
(-2.08423e-05 2.09357e-05 0.106581)
(-5.26158e-05 -8.09729e-05 0.108759)
(5.13016e-05 -7.85471e-05 0.108811)
(-5.13168e-05 -7.85395e-05 0.108811)
(2.08704e-05 2.09201e-05 0.10658)
(0.000121367 0.000121345 0.106354)
(-2.28865e-05 -2.28531e-05 0.106491)
(5.09671e-05 7.78186e-05 0.108826)
(-5.09798e-05 7.78029e-05 0.108825)
(4.95298e-05 7.52936e-05 0.108865)
(-4.95327e-05 7.52754e-05 0.108864)
(-0.000121379 0.000121337 0.106354)
(2.29125e-05 -2.2855e-05 0.106491)
(7.77258e-05 5.08862e-05 0.108827)
(7.77864e-05 -5.09736e-05 0.108825)
(7.52006e-05 4.94475e-05 0.108866)
(7.52586e-05 -4.95253e-05 0.108864)
(-7.77684e-05 -5.09152e-05 0.108825)
(-7.51949e-05 4.94087e-05 0.108866)
(-7.52403e-05 -4.94675e-05 0.108864)
(0.000121372 -0.000121399 0.106354)
(-2.28178e-05 2.29151e-05 0.10649)
(-5.0863e-05 -7.77122e-05 0.108826)
(4.94071e-05 -7.51913e-05 0.108866)
(-4.94178e-05 -7.51785e-05 0.108865)
(2.28504e-05 2.29048e-05 0.10649)
(0.000115529 0.000115507 0.106261)
(-2.48026e-05 -2.47724e-05 0.106394)
(4.90191e-05 7.44329e-05 0.108876)
(-4.90268e-05 7.44171e-05 0.108875)
(4.74533e-05 7.18263e-05 0.108903)
(-4.74597e-05 7.18032e-05 0.108903)
(-0.000115531 0.000115491 0.106261)
(2.48228e-05 -2.47674e-05 0.106393)
(7.434e-05 4.89384e-05 0.108877)
(7.44004e-05 -4.90194e-05 0.108875)
(7.17349e-05 4.73709e-05 0.108904)
(7.17886e-05 -4.74514e-05 0.108902)
(-7.4382e-05 -4.89628e-05 0.108875)
(-7.17286e-05 4.73363e-05 0.108904)
(-7.17717e-05 -4.73987e-05 0.108903)
(0.000115531 -0.000115552 0.10626)
(-2.47339e-05 2.48205e-05 0.106393)
(-4.89155e-05 -7.43195e-05 0.108876)
(4.73309e-05 -7.17252e-05 0.108904)
(-4.73445e-05 -7.17151e-05 0.108904)
(2.47678e-05 2.48091e-05 0.106392)
(0.000109826 0.000109803 0.106162)
(-2.66391e-05 -2.66102e-05 0.106291)
(4.6907e-05 7.09381e-05 0.108911)
(-4.69136e-05 7.09157e-05 0.10891)
(4.52193e-05 6.82223e-05 0.108927)
(-4.52279e-05 6.82017e-05 0.108926)
(-0.000109829 0.000109791 0.106162)
(2.66571e-05 -2.66003e-05 0.106291)
(7.08465e-05 4.68262e-05 0.108912)
(7.09009e-05 -4.69055e-05 0.10891)
(6.81319e-05 4.51356e-05 0.108928)
(6.81877e-05 -4.52239e-05 0.108926)
(-7.08829e-05 -4.68533e-05 0.10891)
(-6.81284e-05 4.51054e-05 0.108928)
(-6.81698e-05 -4.51715e-05 0.108926)
(0.000109826 -0.000109854 0.106161)
(-2.65627e-05 2.66451e-05 0.10629)
(-4.6799e-05 -7.08264e-05 0.108911)
(4.51026e-05 -6.81275e-05 0.108928)
(-4.51115e-05 -6.81144e-05 0.108927)
(2.66003e-05 2.66363e-05 0.10629)
(0.000104296 0.000104277 0.106059)
(-2.83794e-05 -2.83663e-05 0.106187)
(4.46547e-05 6.7312e-05 0.108931)
(-4.46574e-05 6.72883e-05 0.10893)
(4.28908e-05 6.45599e-05 0.108937)
(-4.2902e-05 6.45407e-05 0.108936)
(-0.000104303 0.000104271 0.106059)
(2.83963e-05 -2.83548e-05 0.106187)
(6.72214e-05 4.45734e-05 0.108932)
(6.72722e-05 -4.46499e-05 0.108929)
(6.44683e-05 4.28145e-05 0.108938)
(6.4526e-05 -4.28979e-05 0.108936)
(-6.72551e-05 -4.4601e-05 0.10893)
(-6.4465e-05 4.27883e-05 0.108938)
(-6.45082e-05 -4.28486e-05 0.108936)
(0.000104309 -0.000104337 0.106059)
(-2.83156e-05 2.83956e-05 0.106186)
(-4.45428e-05 -6.71998e-05 0.108931)
(4.27801e-05 -6.44682e-05 0.108938)
(-4.27935e-05 -6.4452e-05 0.108937)
(2.83545e-05 2.83773e-05 0.106185)
(9.89823e-05 9.89481e-05 0.105956)
(-2.99943e-05 -2.99839e-05 0.106082)
(4.22837e-05 6.36433e-05 0.108937)
(-4.23057e-05 6.36284e-05 0.108936)
(4.0495e-05 6.09534e-05 0.108934)
(-4.04909e-05 6.09292e-05 0.108933)
(-9.89959e-05 9.89512e-05 0.105956)
(3.00316e-05 -2.99927e-05 0.106081)
(6.35513e-05 4.22103e-05 0.108938)
(6.3616e-05 -4.23009e-05 0.108936)
(6.08668e-05 4.04249e-05 0.108935)
(6.09188e-05 -4.04839e-05 0.108933)
(-6.35991e-05 -4.22557e-05 0.108936)
(-6.08636e-05 4.03878e-05 0.108936)
(-6.08994e-05 -4.04377e-05 0.108933)
(9.89941e-05 -9.90208e-05 0.105955)
(-2.99796e-05 3.00359e-05 0.10608)
(-4.2204e-05 -6.35433e-05 0.108937)
(4.03783e-05 -6.086e-05 0.108935)
(-4.03868e-05 -6.08454e-05 0.108935)
(2.99957e-05 3.00174e-05 0.10608)
(9.39577e-05 9.39274e-05 0.105852)
(-3.15664e-05 -3.15422e-05 0.105977)
(3.98873e-05 6.00661e-05 0.108932)
(-3.98708e-05 6.00401e-05 0.108931)
(3.79991e-05 5.74073e-05 0.108921)
(-3.79991e-05 5.73933e-05 0.10892)
(-9.39421e-05 9.39016e-05 0.105852)
(3.15752e-05 -3.15357e-05 0.105976)
(5.99818e-05 3.98169e-05 0.108933)
(6.00275e-05 -3.98636e-05 0.108931)
(5.73303e-05 3.79252e-05 0.108922)
(5.73768e-05 -3.79921e-05 0.108919)
(-6.00096e-05 -3.98201e-05 0.108931)
(-5.73273e-05 3.79026e-05 0.108922)
(-5.73654e-05 -3.79562e-05 0.10892)
(9.39166e-05 -9.39604e-05 0.105852)
(-3.15211e-05 3.15853e-05 0.105976)
(-3.97709e-05 -5.99565e-05 0.108932)
(3.78892e-05 -5.73276e-05 0.108922)
(-3.79055e-05 -5.73148e-05 0.108921)
(3.15303e-05 3.15532e-05 0.105975)
(8.91153e-05 8.90993e-05 0.10575)
(-3.2976e-05 -3.29547e-05 0.105873)
(3.73636e-05 5.6527e-05 0.108916)
(-3.73703e-05 5.65167e-05 0.108915)
(3.54762e-05 5.39116e-05 0.108897)
(-3.54816e-05 5.39038e-05 0.108897)
(-8.91347e-05 8.90946e-05 0.10575)
(3.29906e-05 -3.29587e-05 0.105873)
(5.64497e-05 3.72898e-05 0.108917)
(5.64984e-05 -3.73658e-05 0.108914)
(5.38389e-05 3.54025e-05 0.108899)
(5.38838e-05 -3.5479e-05 0.108896)
(-5.64861e-05 -3.73258e-05 0.108915)
(-5.38369e-05 3.53824e-05 0.108899)
(-5.38728e-05 -3.54397e-05 0.108897)
(8.91122e-05 -8.91461e-05 0.10575)
(-3.29453e-05 3.30018e-05 0.105872)
(-3.72755e-05 -5.64367e-05 0.108916)
(3.53727e-05 -5.38421e-05 0.108898)
(-3.53878e-05 -5.38255e-05 0.108898)
(3.29576e-05 3.29752e-05 0.105872)
(8.45974e-05 8.45806e-05 0.10565)
(-3.43024e-05 -3.42822e-05 0.105773)
(3.48499e-05 5.30516e-05 0.10889)
(-3.4853e-05 5.30387e-05 0.10889)
(3.29729e-05 5.04808e-05 0.108866)
(-3.29705e-05 5.04521e-05 0.108865)
(-8.4606e-05 8.45635e-05 0.10565)
(3.43208e-05 -3.42791e-05 0.105772)
(5.29784e-05 3.47761e-05 0.108892)
(5.30218e-05 -3.48477e-05 0.108889)
(5.04106e-05 3.29028e-05 0.108867)
(5.04498e-05 -3.29576e-05 0.108865)
(-5.30125e-05 -3.48109e-05 0.108889)
(-5.04051e-05 3.28775e-05 0.108867)
(-5.04371e-05 -3.29185e-05 0.108865)
(8.4577e-05 -8.46157e-05 0.105649)
(-3.42788e-05 3.43292e-05 0.105772)
(-3.47614e-05 -5.29648e-05 0.108891)
(3.28648e-05 -5.03876e-05 0.108867)
(-3.28703e-05 -5.03904e-05 0.108866)
(3.42932e-05 3.43092e-05 0.105771)
(8.03117e-05 8.02954e-05 0.105552)
(-3.55364e-05 -3.55209e-05 0.105674)
(3.23445e-05 4.96275e-05 0.108857)
(-3.23407e-05 4.95956e-05 0.108856)
(3.047e-05 4.708e-05 0.108827)
(-3.04704e-05 4.70508e-05 0.108827)
(-8.03169e-05 8.02865e-05 0.105552)
(3.55519e-05 -3.55199e-05 0.105674)
(4.95573e-05 3.22745e-05 0.108858)
(4.9597e-05 -3.23293e-05 0.108856)
(4.70133e-05 3.04014e-05 0.108829)
(4.70563e-05 -3.04691e-05 0.108826)
(-4.9582e-05 -3.22894e-05 0.108856)
(-4.70099e-05 3.0385e-05 0.108829)
(-4.70414e-05 -3.04321e-05 0.108826)
(8.0288e-05 -8.03297e-05 0.105552)
(-3.55089e-05 3.55563e-05 0.105673)
(-3.22428e-05 -4.95354e-05 0.108857)
(3.03739e-05 -4.69938e-05 0.108828)
(-3.03825e-05 -4.69985e-05 0.108828)
(3.5517e-05 3.55309e-05 0.105673)
(7.62766e-05 7.62571e-05 0.105458)
(-3.66692e-05 -3.66565e-05 0.10558)
(2.98541e-05 4.62391e-05 0.108817)
(-2.9857e-05 4.6211e-05 0.108816)
(2.80367e-05 4.37348e-05 0.108783)
(-2.80401e-05 4.37087e-05 0.108782)
(-7.62861e-05 7.62464e-05 0.105458)
(3.66866e-05 -3.6657e-05 0.105579)
(4.61717e-05 2.97857e-05 0.108818)
(4.6216e-05 -2.9857e-05 0.108815)
(4.36712e-05 2.79714e-05 0.108784)
(4.37138e-05 -2.80373e-05 0.108781)
(-4.62016e-05 -2.98202e-05 0.108816)
(-4.36704e-05 2.79571e-05 0.108785)
(-4.36975e-05 -2.79995e-05 0.108782)
(7.62583e-05 -7.63011e-05 0.105458)
(-3.66496e-05 3.66889e-05 0.105579)
(-2.97718e-05 -4.61596e-05 0.108817)
(2.79433e-05 -4.36543e-05 0.108784)
(-2.79503e-05 -4.36591e-05 0.108783)
(3.66607e-05 3.6673e-05 0.105578)
(7.24892e-05 7.24692e-05 0.105367)
(-3.7711e-05 -3.77015e-05 0.105488)
(2.74409e-05 4.29107e-05 0.108771)
(-2.74415e-05 4.28841e-05 0.10877)
(2.56718e-05 4.04476e-05 0.108734)
(-2.56696e-05 4.04213e-05 0.108733)
(-7.24941e-05 7.24551e-05 0.105368)
(3.77276e-05 -3.76991e-05 0.105488)
(4.28469e-05 2.73755e-05 0.108772)
(4.28881e-05 -2.7439e-05 0.10877)
(4.03889e-05 2.56068e-05 0.108735)
(4.0428e-05 -2.5667e-05 0.108732)
(-4.28707e-05 -2.74003e-05 0.10877)
(-4.03866e-05 2.55921e-05 0.108736)
(-4.04127e-05 -2.56345e-05 0.108733)
(7.24641e-05 -7.25109e-05 0.105367)
(-3.76913e-05 3.7727e-05 0.105487)
(-2.73528e-05 -4.28334e-05 0.108771)
(2.55803e-05 -4.03709e-05 0.108735)
(-2.55856e-05 -4.03791e-05 0.108734)
(3.76988e-05 3.77112e-05 0.105487)
(6.89367e-05 6.89146e-05 0.10528)
(-3.86605e-05 -3.8654e-05 0.1054)
(2.50913e-05 3.9638e-05 0.108721)
(-2.50906e-05 3.96158e-05 0.10872)
(2.33758e-05 3.7239e-05 0.108681)
(-2.33754e-05 3.72074e-05 0.10868)
(-6.89434e-05 6.8904e-05 0.10528)
(3.86653e-05 -3.86549e-05 0.105401)
(3.95822e-05 2.50248e-05 0.108722)
(3.96229e-05 -2.50893e-05 0.10872)
(3.71776e-05 2.33164e-05 0.108683)
(3.72167e-05 -2.33749e-05 0.10868)
(-3.96058e-05 -2.50562e-05 0.10872)
(-3.71789e-05 2.33018e-05 0.108683)
(-3.71995e-05 -2.33458e-05 0.10868)
(6.89137e-05 -6.89614e-05 0.10528)
(-3.86397e-05 3.86693e-05 0.1054)
(-2.50079e-05 -3.95744e-05 0.108721)
(2.32921e-05 -3.71618e-05 0.108682)
(-2.32952e-05 -3.71738e-05 0.108682)
(3.86458e-05 3.86563e-05 0.105399)
(6.56176e-05 6.55925e-05 0.105197)
(-3.95004e-05 -3.94951e-05 0.105317)
(2.28191e-05 3.64503e-05 0.108667)
(-2.28175e-05 3.64155e-05 0.108667)
(2.11997e-05 3.41032e-05 0.108626)
(-2.11962e-05 3.40922e-05 0.108625)
(-6.56317e-05 6.55795e-05 0.105197)
(3.95165e-05 -3.94954e-05 0.105317)
(3.63863e-05 2.27609e-05 0.108669)
(3.64286e-05 -2.28195e-05 0.108666)
(3.40553e-05 2.11422e-05 0.108627)
(3.4091e-05 -2.11954e-05 0.108624)
(-3.64095e-05 -2.27894e-05 0.108667)
(-3.40544e-05 2.11232e-05 0.108628)
(-3.40747e-05 -2.11673e-05 0.108625)
(6.55927e-05 -6.56431e-05 0.105197)
(-3.94878e-05 3.95117e-05 0.105316)
(-2.274e-05 -3.6384e-05 0.108668)
(2.11153e-05 -3.40367e-05 0.108627)
(-2.11179e-05 -3.40459e-05 0.108626)
(3.94917e-05 3.9503e-05 0.105315)
(6.253e-05 6.25078e-05 0.105118)
(-4.02752e-05 -4.02714e-05 0.105236)
(2.06656e-05 3.33321e-05 0.108612)
(-2.06665e-05 3.33251e-05 0.108611)
(1.91207e-05 3.10575e-05 0.108569)
(-1.91097e-05 3.10514e-05 0.108568)
(-6.2535e-05 6.24949e-05 0.105118)
(4.02907e-05 -4.02721e-05 0.105237)
(3.32831e-05 2.06084e-05 0.108613)
(3.3323e-05 -2.06674e-05 0.10861)
(3.10165e-05 1.90669e-05 0.10857)
(3.1048e-05 -1.911e-05 0.108567)
(-3.33052e-05 -2.06378e-05 0.108611)
(-3.10132e-05 1.90488e-05 0.108571)
(-3.10279e-05 -1.90877e-05 0.108568)
(6.25006e-05 -6.25539e-05 0.105117)
(-4.02653e-05 4.02874e-05 0.105236)
(-2.05882e-05 -3.32761e-05 0.108612)
(1.90414e-05 -3.09928e-05 0.10857)
(-1.90366e-05 -3.09937e-05 0.108569)
(4.02704e-05 4.02808e-05 0.105235)
(5.96327e-05 5.9612e-05 0.105042)
(-4.09604e-05 -4.0958e-05 0.10516)
(1.86191e-05 3.03096e-05 0.108554)
(-1.86062e-05 3.03021e-05 0.108554)
(1.71632e-05 2.81076e-05 0.108511)
(-1.7157e-05 2.81012e-05 0.10851)
(-5.96365e-05 5.95961e-05 0.105042)
(4.09683e-05 -4.09554e-05 0.105161)
(3.02655e-05 1.8565e-05 0.108556)
(3.02972e-05 -1.86071e-05 0.108553)
(2.80656e-05 1.71111e-05 0.108512)
(2.80992e-05 -1.71578e-05 0.108509)
(-3.02788e-05 -1.85855e-05 0.108553)
(-2.80698e-05 1.70977e-05 0.108513)
(-2.80823e-05 -1.71355e-05 0.10851)
(5.96009e-05 -5.96534e-05 0.105041)
(-4.09447e-05 4.09658e-05 0.10516)
(-1.85354e-05 -3.02419e-05 0.108555)
(1.70936e-05 -2.80489e-05 0.108512)
(-1.7089e-05 -2.80485e-05 0.108511)
(4.09511e-05 4.09613e-05 0.105159)
(5.69412e-05 5.69212e-05 0.10497)
(-4.157e-05 -4.15725e-05 0.105088)
(1.66926e-05 2.73863e-05 0.108496)
(-1.66891e-05 2.73793e-05 0.108495)
(1.53311e-05 2.52576e-05 0.108452)
(-1.53285e-05 2.52573e-05 0.108452)
(-5.69526e-05 5.69081e-05 0.10497)
(4.15808e-05 -4.15693e-05 0.105088)
(2.73393e-05 1.66429e-05 0.108498)
(2.73748e-05 -1.66903e-05 0.108495)
(2.52159e-05 1.52792e-05 0.108454)
(2.52543e-05 -1.53316e-05 0.108451)
(-2.73614e-05 -1.66657e-05 0.108495)
(-2.52256e-05 1.52686e-05 0.108454)
(-2.5236e-05 -1.53067e-05 0.108451)
(5.69163e-05 -5.69689e-05 0.10497)
(-4.15593e-05 4.15762e-05 0.105087)
(-1.66222e-05 -2.73226e-05 0.108497)
(1.52643e-05 -2.52105e-05 0.108453)
(-1.52591e-05 -2.52041e-05 0.108453)
(4.15671e-05 4.15732e-05 0.105087)
(5.44332e-05 5.44097e-05 0.104902)
(-4.2111e-05 -4.21105e-05 0.105019)
(1.48919e-05 2.45632e-05 0.108438)
(-1.48848e-05 2.45607e-05 0.108437)
(1.3619e-05 2.25213e-05 0.108394)
(-1.36083e-05 2.25175e-05 0.108393)
(-5.44405e-05 5.43974e-05 0.104902)
(4.21217e-05 -4.21101e-05 0.10502)
(2.45187e-05 1.48411e-05 0.108439)
(2.45565e-05 -1.48884e-05 0.108436)
(2.2476e-05 1.35687e-05 0.108396)
(2.25122e-05 -1.36116e-05 0.108393)
(-2.45409e-05 -1.48646e-05 0.108437)
(-2.24773e-05 1.3554e-05 0.108396)
(-2.2496e-05 -1.35914e-05 0.108393)
(5.44053e-05 -5.44587e-05 0.104901)
(-4.20993e-05 4.21176e-05 0.105019)
(-1.48196e-05 -2.45035e-05 0.108438)
(1.35509e-05 -2.2469e-05 0.108395)
(-1.35446e-05 -2.24602e-05 0.108395)
(4.21065e-05 4.21119e-05 0.105018)
(5.20979e-05 5.2079e-05 0.104838)
(-4.25925e-05 -4.25872e-05 0.104955)
(1.32081e-05 2.18571e-05 0.10838)
(-1.31998e-05 2.18542e-05 0.108379)
(1.20176e-05 1.99099e-05 0.108336)
(-1.20133e-05 1.99057e-05 0.108336)
(-5.21068e-05 5.20638e-05 0.104838)
(4.25982e-05 -4.25897e-05 0.104955)
(2.18116e-05 1.31572e-05 0.108381)
(2.18481e-05 -1.32025e-05 0.108378)
(1.98581e-05 1.19728e-05 0.108338)
(1.99004e-05 -1.20182e-05 0.108335)
(-2.18337e-05 -1.3181e-05 0.108379)
(-1.98666e-05 1.19585e-05 0.108339)
(-1.98874e-05 -1.19958e-05 0.108336)
(5.20722e-05 -5.21241e-05 0.104837)
(-4.25791e-05 4.25906e-05 0.104954)
(-1.31368e-05 -2.1794e-05 0.10838)
(1.19544e-05 -1.9865e-05 0.108338)
(-1.19532e-05 -1.98453e-05 0.108337)
(4.25842e-05 4.25891e-05 0.104953)
(4.99197e-05 4.99077e-05 0.104777)
(-4.30252e-05 -4.30179e-05 0.104894)
(1.16322e-05 1.92777e-05 0.108322)
(-1.16276e-05 1.92754e-05 0.108322)
(1.05286e-05 1.74366e-05 0.10828)
(-1.05212e-05 1.74351e-05 0.10828)
(-4.99314e-05 4.98895e-05 0.104777)
(4.30327e-05 -4.30176e-05 0.104894)
(1.92274e-05 1.15865e-05 0.108324)
(1.92686e-05 -1.16344e-05 0.108321)
(1.73772e-05 1.0486e-05 0.108282)
(1.74257e-05 -1.05237e-05 0.108279)
(-1.92556e-05 -1.16119e-05 0.108321)
(-1.73868e-05 1.04745e-05 0.108282)
(-1.7414e-05 -1.05024e-05 0.108279)
(4.9896e-05 -4.9952e-05 0.104776)
(-4.3005e-05 4.30261e-05 0.104893)
(-1.15682e-05 -1.92141e-05 0.108323)
(1.0471e-05 -1.73878e-05 0.108281)
(-1.04646e-05 -1.73649e-05 0.108281)
(4.30132e-05 4.3023e-05 0.104892)
(1.68227e-05 -1.01617e-05 0.108265)
(4.7873e-05 -4.79154e-05 0.104719)
(6.12161e-05 6.12294e-05 0.108853)
(-6.12395e-05 6.12191e-05 0.108853)
(6.12274e-05 -6.12368e-05 0.108853)
(-6.12525e-05 -6.12127e-05 0.108852)
(-1.58966e-06 3.60276e-06 0.0723385)
(6.06677e-05 -9.90449e-05 0.107829)
(6.1129e-06 -3.2888e-05 0.096022)
(1.77388e-06 2.12975e-05 0.0940165)
(-1.44128e-06 1.9738e-05 0.0835903)
(1.91222e-06 4.4215e-05 0.0940768)
(-3.73232e-06 -2.21588e-08 0.0835669)
(-1.8494e-06 6.77656e-06 0.0721741)
(3.50402e-06 -1.75999e-06 0.0721777)
(2.12525e-05 1.79091e-06 0.0940163)
(1.97238e-05 -1.43733e-06 0.0835902)
(4.4189e-05 1.92906e-06 0.0940765)
(-4.87653e-08 -3.72357e-06 0.083567)
(-6.08744e-05 6.08522e-05 0.108928)
(6.08658e-05 -6.08723e-05 0.108928)
(-6.08896e-05 -6.08492e-05 0.108928)
(5.9762e-05 5.97699e-05 0.109153)
(-5.97841e-05 5.97607e-05 0.109153)
(5.97632e-05 -5.97804e-05 0.109153)
(-5.98004e-05 -5.97574e-05 0.109152)
(-6.14498e-05 4.3487e-06 0.102462)
(-6.07431e-05 1.63431e-05 0.0957196)
(-0.000101055 1.86832e-05 0.108621)
(-9.67833e-05 5.96019e-05 0.108021)
(-0.000105298 4.7133e-06 0.102454)
(-2.8805e-05 4.7662e-06 0.0957155)
(-0.000100747 1.85337e-05 0.108686)
(6.77465e-06 -1.85953e-06 0.0721742)
(-1.75949e-06 3.49767e-06 0.0721771)
(4.28489e-06 -6.14351e-05 0.102461)
(1.8694e-05 -0.000101065 0.10862)
(1.635e-05 -6.07454e-05 0.0957211)
(5.96099e-05 -9.67993e-05 0.108021)
(4.7106e-06 -0.000105336 0.102454)
(1.85425e-05 -0.000100762 0.108686)
(4.73199e-06 -2.87156e-05 0.0957138)
(-2.89662e-05 -1.26229e-05 0.0893994)
(-1.26166e-05 -2.89538e-05 0.0893984)
(7.11829e-06 7.20826e-06 0.1068)
(-1.82653e-05 -7.7928e-07 0.0893664)
(-7.84399e-07 -1.82445e-05 0.0893632)
(1.47142e-06 1.73986e-05 0.0937166)
(-1.1663e-06 1.81652e-05 0.0833676)
(1.59571e-06 3.95836e-05 0.0937663)
(-3.49671e-06 -1.17457e-06 0.0833518)
(-1.90567e-06 6.50711e-06 0.0720234)
(3.36801e-06 -1.88676e-06 0.0720309)
(1.74203e-05 1.48478e-06 0.0937164)
(1.81375e-05 -1.15386e-06 0.0833676)
(3.95973e-05 1.61726e-06 0.093766)
(-1.1999e-06 -3.48863e-06 0.0833519)
(-5.94183e-05 5.93944e-05 0.109226)
(5.93957e-05 -5.94156e-05 0.109226)
(-5.94337e-05 -5.93884e-05 0.109226)
(5.82831e-05 5.82944e-05 0.109444)
(-5.83074e-05 5.82937e-05 0.109443)
(5.82894e-05 -5.8312e-05 0.109443)
(-5.83243e-05 -5.82909e-05 0.109443)
(-5.49431e-05 3.49872e-06 0.102191)
(-5.62781e-05 1.48193e-05 0.0954285)
(-9.98216e-05 1.81116e-05 0.108878)
(-9.43852e-05 5.86024e-05 0.108194)
(-9.78248e-05 3.80295e-06 0.102184)
(-2.50685e-05 3.61489e-06 0.0954288)
(-9.95381e-05 1.79754e-05 0.10894)
(6.50987e-06 -1.92509e-06 0.0720235)
(-1.88177e-06 3.38008e-06 0.0720303)
(3.50983e-06 -5.4955e-05 0.102189)
(1.81139e-05 -9.98439e-05 0.108878)
(1.48318e-05 -5.62717e-05 0.0954298)
(5.86022e-05 -9.43787e-05 0.108194)
(3.83553e-06 -9.78122e-05 0.102185)
(1.79813e-05 -9.95611e-05 0.10894)
(3.58423e-06 -2.5064e-05 0.0954272)
(-2.65982e-05 -1.17807e-05 0.0891472)
(-1.18063e-05 -2.65889e-05 0.0891462)
(9.47633e-06 9.57775e-06 0.106825)
(-1.60369e-05 -2.39811e-07 0.0891214)
(-1.93012e-07 -1.60504e-05 0.0891183)
(1.15884e-06 1.4387e-05 0.0934457)
(-1.0833e-06 1.69851e-05 0.0831668)
(1.2946e-06 3.59744e-05 0.0934857)
(-3.45144e-06 -1.84156e-06 0.0831575)
(-2.03122e-06 6.30442e-06 0.0718865)
(3.22216e-06 -1.91569e-06 0.0718974)
(1.4407e-05 1.16972e-06 0.0934455)
(1.69697e-05 -1.07647e-06 0.0831668)
(3.59932e-05 1.3034e-06 0.0934855)
(-1.85961e-06 -3.44543e-06 0.0831576)
(-5.79291e-05 5.79159e-05 0.109515)
(5.79149e-05 -5.79351e-05 0.109515)
(-5.79483e-05 -5.79186e-05 0.109515)
(5.6767e-05 5.67776e-05 0.109725)
(-5.67876e-05 5.67792e-05 0.109725)
(5.6783e-05 -5.67956e-05 0.109725)
(-5.68066e-05 -5.6784e-05 0.109725)
(-4.85592e-05 2.92254e-06 0.101919)
(-5.20825e-05 1.35663e-05 0.0951583)
(-9.86885e-05 1.76099e-05 0.109122)
(-9.19171e-05 5.75778e-05 0.108348)
(-9.02539e-05 3.20159e-06 0.101913)
(-2.16615e-05 2.675e-06 0.0951629)
(-9.83689e-05 1.75024e-05 0.109181)
(6.29839e-06 -2.02644e-06 0.0718867)
(-1.92405e-06 3.22319e-06 0.0718968)
(2.92554e-06 -4.85824e-05 0.101917)
(1.76284e-05 -9.86908e-05 0.109122)
(1.35678e-05 -5.21463e-05 0.0951597)
(5.75748e-05 -9.19054e-05 0.108348)
(3.23518e-06 -9.02979e-05 0.101914)
(1.7523e-05 -9.83833e-05 0.109181)
(2.64825e-06 -2.16482e-05 0.0951613)
(-2.44172e-05 -1.11091e-05 0.0889179)
(-1.10517e-05 -2.44274e-05 0.0889169)
(1.16529e-05 1.17179e-05 0.106825)
(-1.40649e-05 1.62125e-07 0.0888986)
(2.33487e-07 -1.40685e-05 0.0888955)
(8.71564e-07 1.1942e-05 0.0932009)
(-1.08989e-06 1.62364e-05 0.0829855)
(1.00164e-06 3.30059e-05 0.0932324)
(-3.46132e-06 -2.21756e-06 0.0829818)
(-2.03672e-06 6.19328e-06 0.0717622)
(3.15117e-06 -1.89855e-06 0.0717761)
(1.19576e-05 8.84629e-07 0.0932008)
(1.62227e-05 -1.08213e-06 0.0829855)
(3.30207e-05 1.01216e-06 0.0932322)
(-2.23556e-06 -3.45436e-06 0.082982)
(-5.64095e-05 5.64025e-05 0.109794)
(5.64081e-05 -5.64166e-05 0.109794)
(-5.64313e-05 -5.64079e-05 0.109794)
(5.52865e-05 5.52968e-05 0.109998)
(-5.5298e-05 5.52982e-05 0.109997)
(5.5301e-05 -5.53062e-05 0.109997)
(-5.53204e-05 -5.52967e-05 0.109997)
(-4.25886e-05 2.44914e-06 0.101652)
(-4.84405e-05 1.24596e-05 0.0949084)
(-9.73683e-05 1.7214e-05 0.109353)
(-8.92344e-05 5.6474e-05 0.108483)
(-8.3119e-05 2.71211e-06 0.101645)
(-1.87481e-05 1.84913e-06 0.0949169)
(-9.69897e-05 1.71246e-05 0.109408)
(6.1921e-06 -2.04166e-06 0.0717623)
(-1.9118e-06 3.13963e-06 0.0717755)
(2.44612e-06 -4.26108e-05 0.10165)
(1.72366e-05 -9.73689e-05 0.109352)