/*--------------------------------*- C++ -*----------------------------------*\
| =========                 |                                                 |
| \\      /  F ield         | OpenFOAM: The Open Source CFD Toolbox           |
|  \\    /   O peration     | Version:  2312                                  |
|   \\  /    A nd           | Website:  www.openfoam.com                      |
|    \\/     M anipulation  |                                                 |
\*---------------------------------------------------------------------------*/
FoamFile
{
    version     2.0;
    format      ascii;
    arch        "LSB;label=32;scalar=64";
    class       volScalarField;
    location    "875";
    object      epsilon;
}
// * * * * * * * * * * * * * * * * * * * * * * * * * * * * * * * * * * * * * //

dimensions      [0 2 -3 0 0 0 0];

internalField   nonuniform List<scalar> 
43120
(
1.33734e-07
2.30887e-07
2.30898e-07
3.58381e-07
1.3159e-07
2.41548e-07
2.41566e-07
3.84512e-07
1.30243e-07
2.54315e-07
2.54323e-07
4.13542e-07
1.29681e-07
2.69108e-07
2.69129e-07
4.45057e-07
1.29906e-07
2.85883e-07
2.85902e-07
4.78715e-07
1.30894e-07
3.04541e-07
3.04571e-07
5.14093e-07
1.32649e-07
3.2499e-07
3.25014e-07
5.50624e-07
1.35171e-07
3.47107e-07
3.47146e-07
5.88092e-07
1.38461e-07
3.70755e-07
3.70793e-07
6.25865e-07
1.42521e-07
3.95779e-07
3.95823e-07
6.63647e-07
1.47358e-07
4.22032e-07
4.22083e-07
7.011e-07
1.52976e-07
4.49347e-07
4.49401e-07
7.37956e-07
1.5938e-07
4.77551e-07
4.77612e-07
7.73997e-07
1.66576e-07
5.06469e-07
5.06538e-07
8.09076e-07
1.74566e-07
5.35926e-07
5.35998e-07
8.43026e-07
1.83351e-07
5.65738e-07
5.65817e-07
8.75834e-07
1.92925e-07
5.95742e-07
5.95828e-07
9.07456e-07
2.0328e-07
6.25761e-07
6.25855e-07
9.37866e-07
2.144e-07
6.55639e-07
6.55738e-07
9.67084e-07
2.26263e-07
6.85225e-07
6.85331e-07
9.95081e-07
2.38842e-07
7.14384e-07
7.14497e-07
1.0219e-06
2.52102e-07
7.42994e-07
7.43111e-07
1.04756e-06
2.65999e-07
7.70943e-07
7.71067e-07
1.0721e-06
2.80483e-07
7.98138e-07
7.98265e-07
1.09555e-06
2.95494e-07
8.24498e-07
8.24628e-07
1.11793e-06
3.10967e-07
8.49954e-07
8.50088e-07
1.1393e-06
8.74596e-07
3.52858e-07
2.28605e-07
2.2865e-07
3.52896e-07
2.28569e-07
2.28651e-07
2.28553e-07
2.2861e-07
3.52897e-07
2.28558e-07
2.286e-07
3.52932e-07
3.58311e-07
3.78348e-07
2.30944e-07
2.30988e-07
2.38757e-07
2.38792e-07
3.58348e-07
3.78334e-07
2.30907e-07
2.30994e-07
2.38715e-07
2.38809e-07
2.30949e-07
2.38688e-07
2.38755e-07
3.58363e-07
3.78411e-07
2.30939e-07
2.38706e-07
2.38745e-07
3.78404e-07
3.84448e-07
4.06743e-07
2.41622e-07
2.41657e-07
2.51003e-07
2.51049e-07
3.84435e-07
4.06789e-07
2.41578e-07
2.41674e-07
2.50955e-07
2.51056e-07
2.41625e-07
2.50936e-07
2.5101e-07
3.84504e-07
4.0679e-07
2.41613e-07
2.50942e-07
2.50997e-07
4.06856e-07
4.13453e-07
4.37718e-07
2.54388e-07
2.54433e-07
2.65305e-07
2.65345e-07
4.13499e-07
4.37727e-07
2.54338e-07
2.54442e-07
2.6525e-07
2.65369e-07
2.54391e-07
2.65222e-07
2.65309e-07
4.135e-07
4.37798e-07
2.54377e-07
2.65243e-07
2.65294e-07
4.37817e-07
4.44969e-07
4.70895e-07
2.69195e-07
2.69237e-07
2.81601e-07
2.81642e-07
4.44981e-07
4.70912e-07
2.69138e-07
2.6926e-07
2.81539e-07
2.81664e-07
2.69197e-07
2.81509e-07
2.81608e-07
4.45049e-07
4.7095e-07
2.69179e-07
2.81527e-07
2.81588e-07
4.71003e-07
4.78613e-07
5.05855e-07
2.85976e-07
2.86022e-07
2.99814e-07
2.99846e-07
4.78634e-07
5.05834e-07
2.85912e-07
2.86043e-07
2.99744e-07
2.99878e-07
2.85985e-07
2.99703e-07
2.99821e-07
4.7867e-07
5.05909e-07
2.85962e-07
2.9973e-07
2.99795e-07
5.05976e-07
5.1397e-07
5.42123e-07
3.04651e-07
3.04689e-07
3.19836e-07
3.19878e-07
5.1395e-07
5.42154e-07
3.04579e-07
3.04723e-07
3.19756e-07
3.19909e-07
3.04667e-07
3.19725e-07
3.19838e-07
5.14031e-07
5.42199e-07
3.04637e-07
3.19751e-07
3.19805e-07
5.42222e-07
5.50556e-07
5.79292e-07
3.25111e-07
3.25148e-07
3.41555e-07
3.41594e-07
5.50558e-07
5.79301e-07
3.25029e-07
3.25177e-07
3.41464e-07
3.41634e-07
3.25113e-07
3.41432e-07
3.41573e-07
5.50598e-07
5.79379e-07
3.25075e-07
3.41467e-07
3.41531e-07
5.79451e-07
5.87963e-07
6.16908e-07
3.47238e-07
3.47274e-07
3.64837e-07
3.6488e-07
5.87958e-07
6.16941e-07
3.47147e-07
3.47317e-07
3.64735e-07
3.64921e-07
3.47253e-07
3.6471e-07
3.64861e-07
5.88046e-07
6.17005e-07
3.47205e-07
3.64746e-07
3.64808e-07
6.17073e-07
6.25707e-07
6.54633e-07
3.70882e-07
3.7093e-07
3.89548e-07
3.89579e-07
6.25746e-07
6.54631e-07
3.70781e-07
3.70972e-07
3.89433e-07
3.89625e-07
3.70911e-07
3.89402e-07
3.89567e-07
6.25808e-07
6.54704e-07
3.70852e-07
3.89444e-07
3.89503e-07
6.54776e-07
6.63511e-07
6.92069e-07
3.95921e-07
3.95961e-07
4.15518e-07
4.15549e-07
6.63509e-07
6.92081e-07
3.95809e-07
3.96008e-07
4.15391e-07
4.15601e-07
3.95951e-07
4.15366e-07
4.15544e-07
6.63582e-07
6.92165e-07
3.95881e-07
4.15415e-07
4.15468e-07
6.92228e-07
7.00963e-07
7.28969e-07
4.22182e-07
4.22219e-07
4.42591e-07
4.42618e-07
7.00963e-07
7.28979e-07
4.22061e-07
4.22272e-07
4.42452e-07
4.42672e-07
4.22217e-07
4.4243e-07
4.42622e-07
7.01046e-07
7.29057e-07
4.22134e-07
4.42483e-07
4.42532e-07
7.2913e-07
7.37815e-07
7.65102e-07
4.49504e-07
4.49539e-07
4.70595e-07
4.70619e-07
7.37817e-07
7.65113e-07
4.49371e-07
4.49593e-07
4.70446e-07
4.70679e-07
4.49545e-07
4.70429e-07
4.70631e-07
7.37894e-07
7.65195e-07
4.49448e-07
4.70489e-07
4.70529e-07
7.65264e-07
7.73851e-07
8.00296e-07
4.77713e-07
4.77745e-07
4.99356e-07
4.99376e-07
7.73856e-07
8.00305e-07
4.77569e-07
4.77804e-07
4.99195e-07
4.99442e-07
4.7776e-07
4.99183e-07
4.99403e-07
7.73937e-07
8.00397e-07
4.77651e-07
4.99251e-07
4.99288e-07
8.00474e-07
8.08918e-07
8.34438e-07
5.06636e-07
5.06664e-07
5.287e-07
5.28715e-07
8.08919e-07
8.34453e-07
5.06482e-07
5.06729e-07
5.2853e-07
5.28785e-07
5.06693e-07
5.28523e-07
5.28751e-07
8.09011e-07
8.34539e-07
5.06571e-07
5.28595e-07
5.28623e-07
8.34612e-07
8.42869e-07
8.67448e-07
5.36097e-07
5.36121e-07
5.58443e-07
5.58452e-07
8.42878e-07
8.6745e-07
5.35933e-07
5.36186e-07
5.58264e-07
5.58528e-07
5.36159e-07
5.5826e-07
5.58499e-07
8.42963e-07
8.6754e-07
5.36023e-07
5.58339e-07
5.58359e-07
8.67619e-07
8.75677e-07
8.99295e-07
5.65915e-07
5.65931e-07
5.8842e-07
5.88426e-07
8.75674e-07
8.99306e-07
5.65743e-07
5.65999e-07
5.88233e-07
5.88506e-07
5.65983e-07
5.88236e-07
5.88483e-07
8.75761e-07
8.99397e-07
5.65836e-07
5.88322e-07
5.88332e-07
8.99468e-07
9.073e-07
9.29943e-07
5.95921e-07
5.95933e-07
6.18452e-07
6.18452e-07
9.07302e-07
9.2995e-07
5.95741e-07
5.96006e-07
6.18259e-07
6.18536e-07
5.95995e-07
6.18265e-07
6.18521e-07
9.07391e-07
9.30043e-07
5.95836e-07
6.18358e-07
6.18359e-07
9.30112e-07
9.37715e-07
9.59393e-07
6.25944e-07
6.25948e-07
6.48381e-07
6.48375e-07
9.37716e-07
9.59391e-07
6.25756e-07
6.26028e-07
6.48183e-07
6.48462e-07
6.26021e-07
6.48191e-07
6.48456e-07
9.37811e-07
9.59487e-07
6.25851e-07
6.48292e-07
6.48285e-07
9.59562e-07
9.66929e-07
9.87637e-07
6.55826e-07
6.55821e-07
6.78056e-07
6.78042e-07
9.66923e-07
9.87639e-07
6.55631e-07
6.55904e-07
6.77851e-07
6.78132e-07
6.55908e-07
6.77865e-07
6.78134e-07
9.67015e-07
9.87737e-07
6.5573e-07
6.77972e-07
6.77955e-07
9.87804e-07
9.94926e-07
1.0147e-06
6.85415e-07
6.85403e-07
7.07331e-07
7.07314e-07
9.94925e-07
1.0147e-06
6.85211e-07
6.85491e-07
7.07124e-07
7.07406e-07
6.85497e-07
7.07141e-07
7.07415e-07
9.95024e-07
1.0148e-06
6.85311e-07
7.07256e-07
7.07229e-07
1.01486e-06
1.02175e-06
1.0406e-06
7.14574e-07
7.14557e-07
7.36087e-07
7.36068e-07
1.02175e-06
1.0406e-06
7.14366e-07
7.14649e-07
7.35879e-07
7.36161e-07
7.14661e-07
7.35901e-07
7.36176e-07
1.02184e-06
1.0407e-06
7.14469e-07
7.3602e-07
7.35985e-07
1.04076e-06
1.04741e-06
1.06537e-06
7.4318e-07
7.43161e-07
7.64205e-07
7.64183e-07
1.04741e-06
1.06536e-06
7.42973e-07
7.43254e-07
7.63997e-07
7.64281e-07
7.43271e-07
7.64023e-07
7.64299e-07
1.0475e-06
1.06547e-06
7.43074e-07
7.64149e-07
7.64104e-07
1.06553e-06
1.07194e-06
1.08905e-06
7.71125e-07
7.71102e-07
7.91595e-07
7.91565e-07
1.07194e-06
1.08904e-06
7.70916e-07
7.712e-07
7.91386e-07
7.91667e-07
7.71222e-07
7.91415e-07
7.91693e-07
1.07205e-06
1.08915e-06
7.71021e-07
7.91545e-07
7.91495e-07
1.08921e-06
1.09539e-06
1.11167e-06
7.98318e-07
7.98287e-07
8.18169e-07
8.1813e-07
1.09539e-06
1.11166e-06
7.98108e-07
7.98388e-07
8.17958e-07
8.18235e-07
7.98416e-07
8.17991e-07
8.18262e-07
1.09549e-06
1.11176e-06
7.98212e-07
8.18123e-07
8.18062e-07
1.11182e-06
1.11779e-06
1.13324e-06
8.24676e-07
8.24636e-07
8.43853e-07
8.43807e-07
1.11778e-06
1.13323e-06
8.24465e-07
8.24742e-07
8.43642e-07
8.43918e-07
8.24772e-07
8.43678e-07
8.43952e-07
1.11789e-06
1.13334e-06
8.24566e-07
8.43815e-07
8.43751e-07
1.1334e-06
1.13915e-06
1.15382e-06
8.50128e-07
8.50082e-07
8.68597e-07
8.68543e-07
1.13914e-06
1.15381e-06
8.49917e-07
8.50192e-07
8.68385e-07
8.68656e-07
8.50229e-07
8.68426e-07
8.68692e-07
1.13925e-06
1.15392e-06
8.50023e-07
8.68563e-07
8.6849e-07
1.15397e-06
8.74689e-07
1.15961e-06
1.34399e-07
1.34404e-07
1.34407e-07
1.34409e-07
1.8486e-05
2.24277e-07
2.74414e-06
3.68274e-06
8.90527e-06
3.64848e-06
8.9116e-06
1.84601e-05
1.84596e-05
3.68284e-06
8.90635e-06
3.64851e-06
8.91316e-06
1.33738e-07
1.33742e-07
1.33743e-07
1.32056e-07
1.3206e-07
1.32065e-07
1.32067e-07
1.15856e-06
2.7964e-06
1.58589e-07
2.33357e-07
1.13068e-06
2.81984e-06
1.58819e-07
1.84774e-05
1.84539e-05
1.15863e-06
1.58611e-07
2.7962e-06
2.33372e-07
1.13073e-06
1.5882e-07
2.82003e-06
5.13146e-06
5.13313e-06
3.65291e-07
5.14391e-06
5.14571e-06
3.75893e-06
8.92105e-06
3.73197e-06
8.92282e-06
1.84404e-05
1.84258e-05
3.75906e-06
8.92158e-06
3.73202e-06
8.92387e-06
1.31594e-07
1.31599e-07
1.31601e-07
1.30515e-07
1.3052e-07
1.30525e-07
1.30527e-07
1.24239e-06
2.86638e-06
1.59956e-07
2.44548e-07
1.2152e-06
2.88705e-06
1.6052e-07
1.84357e-05
1.84304e-05
1.24249e-06
1.59981e-07
2.86631e-06
2.44562e-07
1.21524e-06
1.60521e-07
2.88732e-06
5.16598e-06
5.16769e-06
3.92309e-07
5.17626e-06
5.17803e-06
3.81833e-06
8.92924e-06
3.79759e-06
8.93355e-06
1.84099e-05
1.84086e-05
3.81841e-06
8.93146e-06
3.79762e-06
8.93486e-06
1.30248e-07
1.30253e-07
1.30255e-07
1.29764e-07
1.29768e-07
1.29774e-07
1.29776e-07
1.32308e-06
2.92842e-06
1.62658e-07
2.57824e-07
1.29712e-06
2.94659e-06
1.63561e-07
1.84143e-05
1.84039e-05
1.32317e-06
1.62686e-07
2.92829e-06
2.57837e-07
1.29717e-06
1.63564e-07
2.94674e-06
5.19452e-06
5.19623e-06
4.22021e-07
5.20304e-06
5.20478e-06
3.8638e-06
8.94004e-06
3.84814e-06
8.9414e-06
1.83879e-05
1.83831e-05
3.86389e-06
8.94069e-06
3.84819e-06
8.94265e-06
1.29685e-07
1.29692e-07
1.29694e-07
1.29778e-07
1.29783e-07
1.2979e-07
1.29792e-07
1.39914e-06
2.98297e-06
1.66713e-07
2.73121e-07
1.37483e-06
2.99898e-06
1.67963e-07
1.83903e-05
1.8384e-05
1.39924e-06
1.66745e-07
2.98294e-06
2.7314e-07
1.3749e-06
1.67967e-07
2.9991e-06
5.2184e-06
5.2201e-06
4.54155e-07
5.22543e-06
5.22717e-06
3.89838e-06
8.94618e-06
3.88669e-06
8.94855e-06
1.83617e-05
1.83594e-05
3.89846e-06
8.94767e-06
3.88673e-06
8.94985e-06
1.2991e-07
1.29918e-07
1.2992e-07
1.30574e-07
1.30579e-07
1.30588e-07
1.30591e-07
1.46966e-06
3.03103e-06
1.72141e-07
2.90378e-07
1.44726e-06
3.0452e-06
1.73736e-07
1.83645e-05
1.83583e-05
1.46976e-06
1.72177e-07
3.03103e-06
2.90397e-07
1.44733e-06
1.73742e-07
3.04527e-06
5.2386e-06
5.2403e-06
4.88284e-07
5.24426e-06
5.24599e-06
3.92464e-06
8.9529e-06
3.91597e-06
8.95579e-06
1.83478e-05
1.83412e-05
3.92473e-06
8.95406e-06
3.916e-06
8.95707e-06
1.30899e-07
1.30909e-07
1.30911e-07
1.32138e-07
1.32143e-07
1.32153e-07
1.32156e-07
1.53412e-06
3.07325e-06
1.78949e-07
3.095e-07
1.51374e-06
3.08593e-06
1.80892e-07
1.83479e-05
1.83426e-05
1.53423e-06
1.78989e-07
3.07329e-06
3.09528e-07
1.51381e-06
1.80899e-07
3.08606e-06
5.25587e-06
5.25757e-06
5.23996e-07
5.2608e-06
5.26254e-06
3.94476e-06
8.95857e-06
3.93833e-06
8.9613e-06
1.83264e-05
1.83263e-05
3.94483e-06
8.96006e-06
3.93836e-06
8.96276e-06
1.32654e-07
1.32665e-07
1.32668e-07
1.3447e-07
1.34474e-07
1.34486e-07
1.34489e-07
1.59242e-06
3.11081e-06
1.87139e-07
3.30368e-07
1.5741e-06
3.1219e-06
1.89427e-07
1.83293e-05
1.83249e-05
1.59252e-06
1.87183e-07
3.1108e-06
3.30393e-07
1.57416e-06
1.89437e-07
3.12195e-06
5.2702e-06
5.27189e-06
5.60734e-07
5.27483e-06
5.27655e-06
3.96041e-06
8.96493e-06
3.95554e-06
8.96698e-06
1.8312e-05
1.83095e-05
3.96049e-06
8.966e-06
3.95557e-06
8.96823e-06
1.35176e-07
1.35189e-07
1.35193e-07
1.37568e-07
1.37573e-07
1.37587e-07
1.3759e-07
1.64482e-06
3.14431e-06
1.96701e-07
3.52881e-07
1.6284e-06
3.15411e-06
1.99334e-07
1.83131e-05
1.83109e-05
1.64492e-06
1.96751e-07
3.14439e-06
3.52921e-07
1.62847e-06
1.99346e-07
3.15424e-06
5.28324e-06
5.28493e-06
5.98218e-07
5.28711e-06
5.28883e-06
3.97282e-06
8.97049e-06
3.96905e-06
8.97288e-06
1.8299e-05
1.8299e-05
3.97287e-06
8.97184e-06
3.96908e-06
8.97423e-06
1.38467e-07
1.38482e-07
1.38486e-07
1.41437e-07
1.41442e-07
1.41457e-07
1.41461e-07
1.69171e-06
3.17435e-06
2.0762e-07
3.76889e-07
1.67704e-06
3.18311e-06
2.10589e-07
1.83006e-05
1.83002e-05
1.69192e-06
2.07675e-07
3.17437e-06
3.76928e-07
1.67703e-06
2.10603e-07
3.18323e-06
5.29493e-06
5.29661e-06
6.35935e-07
5.29826e-06
5.29997e-06
3.98292e-06
8.97609e-06
3.97986e-06
8.97889e-06
1.82894e-05
1.82845e-05
3.98297e-06
8.97734e-06
3.97991e-06
8.98006e-06
1.42529e-07
1.42545e-07
1.4255e-07
1.4608e-07
1.46085e-07
1.46103e-07
1.46107e-07
1.7338e-06
3.20139e-06
2.19866e-07
4.02237e-07
1.72047e-06
3.20941e-06
2.23163e-07
1.82878e-05
1.82852e-05
1.734e-06
2.19925e-07
3.20141e-06
4.02283e-07
1.72042e-06
2.2318e-07
3.20951e-06
5.30558e-06
5.30726e-06
6.73562e-07
5.30868e-06
5.31039e-06
3.99133e-06
8.98148e-06
3.98879e-06
8.9857e-06
1.82844e-05
1.82823e-05
3.99138e-06
8.98287e-06
3.98883e-06
8.98714e-06
1.47366e-07
1.47385e-07
1.4739e-07
1.51502e-07
1.51507e-07
1.51528e-07
1.51532e-07
1.77156e-06
3.22604e-06
2.33402e-07
4.28769e-07
1.75937e-06
3.23338e-06
2.37016e-07
1.82874e-05
1.82832e-05
1.77174e-06
2.33467e-07
3.22609e-06
4.28822e-07
1.75931e-06
2.37038e-07
3.23348e-06
5.31538e-06
5.31706e-06
7.10761e-07
5.31837e-06
5.32009e-06
3.99856e-06
8.98777e-06
3.99636e-06
8.99075e-06
1.82751e-05
1.82761e-05
3.99861e-06
8.989e-06
3.99641e-06
8.99191e-06
1.52985e-07
1.53006e-07
1.53011e-07
1.57709e-07
1.57715e-07
1.57739e-07
1.57743e-07
1.8056e-06
3.24878e-06
2.48184e-07
4.56324e-07
1.79437e-06
3.25552e-06
2.52103e-07
1.82737e-05
1.82771e-05
1.80578e-06
2.48254e-07
3.24878e-06
4.5638e-07
1.79432e-06
2.52127e-07
3.25559e-06
5.32479e-06
5.32647e-06
7.47305e-07
5.32766e-06
5.32938e-06
4.00502e-06
8.99587e-06
4.00303e-06
8.99793e-06
1.82714e-05
1.82742e-05
4.00507e-06
8.9973e-06
4.00308e-06
8.99926e-06
1.5939e-07
1.59413e-07
1.5942e-07
1.64707e-07
1.64714e-07
1.64741e-07
1.64746e-07
1.83651e-06
3.26988e-06
2.64157e-07
4.84722e-07
1.82608e-06
3.27613e-06
2.68366e-07
1.82727e-05
1.82743e-05
1.83668e-06
2.64233e-07
3.26984e-06
4.84785e-07
1.82604e-06
2.68394e-07
3.27616e-06
5.33391e-06
5.33559e-06
7.82993e-07
5.33678e-06
5.33849e-06
4.01096e-06
9.00278e-06
4.00911e-06
9.00633e-06
1.82713e-05
1.82725e-05
4.01101e-06
9.00407e-06
4.00916e-06
9.00769e-06
1.66587e-07
1.66613e-07
1.66621e-07
1.72498e-07
1.72507e-07
1.72538e-07
1.72542e-07
1.8648e-06
3.28956e-06
2.8126e-07
5.13791e-07
1.85505e-06
3.2954e-06
2.85743e-07
1.82723e-05
1.8273e-05
1.86497e-06
2.81342e-07
3.28955e-06
5.13863e-07
1.85501e-06
2.85776e-07
3.29548e-06
5.34294e-06
5.34462e-06
8.17688e-07
5.34577e-06
5.34748e-06
4.0166e-06
9.01054e-06
4.01482e-06
9.01459e-06
1.82734e-05
1.82752e-05
4.01666e-06
9.01181e-06
4.01487e-06
9.01588e-06
1.74578e-07
1.74607e-07
1.74615e-07
1.81084e-07
1.81093e-07
1.81128e-07
1.81132e-07
1.89094e-06
3.30814e-06
2.99427e-07
5.43353e-07
1.88175e-06
3.31363e-06
3.04164e-07
1.82735e-05
1.82764e-05
1.89111e-06
2.99514e-07
3.3081e-06
5.43428e-07
1.88171e-06
3.04202e-07
3.31372e-06
5.35203e-06
5.3537e-06
8.51252e-07
5.35466e-06
5.35637e-06
4.02216e-06
9.01965e-06
4.02032e-06
9.0236e-06
1.82758e-05
1.82797e-05
4.02222e-06
9.02103e-06
4.02036e-06
9.0249e-06
1.83362e-07
1.83395e-07
1.83404e-07
1.90461e-07
1.90471e-07
1.9051e-07
1.90515e-07
1.91531e-06
3.32561e-06
3.18582e-07
5.73231e-07
1.90655e-06
3.33092e-06
3.23555e-07
1.82766e-05
1.82799e-05
1.91546e-06
3.18675e-07
3.32561e-06
5.73313e-07
1.90652e-06
3.23597e-07
3.331e-06
5.36108e-06
5.36275e-06
8.83698e-07
5.36389e-06
5.3656e-06
4.02776e-06
9.02929e-06
4.02583e-06
9.03374e-06
1.82812e-05
1.82859e-05
4.02783e-06
9.0306e-06
4.02587e-06
9.03511e-06
1.92937e-07
1.92973e-07
1.92983e-07
2.0062e-07
2.00632e-07
2.00674e-07
2.0068e-07
1.9382e-06
3.34233e-06
3.38648e-07
6.03252e-07
1.92982e-06
3.34733e-06
3.43836e-07
1.82822e-05
1.82864e-05
1.93835e-06
3.38747e-07
3.34238e-06
6.03341e-07
1.9298e-06
3.43883e-07
3.34743e-06
5.36996e-06
5.37163e-06
9.14942e-07
5.37294e-06
5.37464e-06
4.03354e-06
9.03974e-06
4.03147e-06
9.04417e-06
1.82895e-05
1.82935e-05
4.03362e-06
9.04103e-06
4.0315e-06
9.04545e-06
2.03292e-07
2.03333e-07
2.03342e-07
2.1155e-07
2.11562e-07
2.11609e-07
2.11615e-07
1.95986e-06
3.35836e-06
3.59538e-07
6.3325e-07
1.9518e-06
3.36312e-06
3.64919e-07
1.82895e-05
1.82944e-05
1.96001e-06
3.59642e-07
3.3584e-06
6.33349e-07
1.95178e-06
3.6497e-07
3.36326e-06
5.37907e-06
5.38074e-06
9.44982e-07
5.38197e-06
5.38368e-06
4.03957e-06
9.05074e-06
4.03732e-06
9.05608e-06
1.82983e-05
1.83056e-05
4.03964e-06
9.05215e-06
4.03735e-06
9.05741e-06
2.14412e-07
2.14458e-07
2.14467e-07
2.23229e-07
2.23243e-07
2.23293e-07
2.233e-07
1.98046e-06
3.3737e-06
3.81161e-07
6.63071e-07
1.97269e-06
3.37832e-06
3.86711e-07
1.82993e-05
1.83057e-05
1.9806e-06
3.8127e-07
3.37373e-06
6.63173e-07
1.97267e-06
3.86767e-07
3.37842e-06
5.38842e-06
5.3901e-06
9.73836e-07
5.39133e-06
5.39304e-06
4.04589e-06
9.06288e-06
4.04347e-06
9.06804e-06
1.83097e-05
1.83148e-05
4.04596e-06
9.06416e-06
4.0435e-06
9.06937e-06
2.26276e-07
2.26327e-07
2.26336e-07
2.35632e-07
2.35646e-07
2.35701e-07
2.35709e-07
2.00014e-06
3.38849e-06
4.03423e-07
6.92559e-07
1.99264e-06
3.39291e-06
4.09117e-07
1.83109e-05
1.83158e-05
2.00028e-06
4.03537e-07
3.38854e-06
6.92671e-07
1.99262e-06
4.09178e-07
3.39305e-06
5.39767e-06
5.39934e-06
1.00148e-06
5.40066e-06
5.40237e-06
4.05254e-06
9.07569e-06
4.04994e-06
9.08128e-06
1.83241e-05
1.83305e-05
4.05261e-06
9.07691e-06
4.04998e-06
9.08257e-06
2.38855e-07
2.38912e-07
2.3892e-07
2.48726e-07
2.4874e-07
2.488e-07
2.48808e-07
2.01901e-06
3.40278e-06
4.2622e-07
7.21594e-07
2.01175e-06
3.40706e-06
4.32031e-07
1.83248e-05
1.83319e-05
2.01914e-06
4.26339e-07
3.40282e-06
7.21711e-07
2.01174e-06
4.32097e-07
3.40718e-06
5.40712e-06
5.4088e-06
1.02796e-06
5.41015e-06
5.41186e-06
4.0595e-06
9.08913e-06
4.05674e-06
9.0952e-06
1.83377e-05
1.83467e-05
4.05957e-06
9.09043e-06
4.05678e-06
9.0964e-06
2.52116e-07
2.52177e-07
2.52185e-07
2.62467e-07
2.62482e-07
2.62547e-07
2.62555e-07
2.03713e-06
3.41657e-06
4.49448e-07
7.50048e-07
2.03011e-06
3.42069e-06
4.55349e-07
1.83379e-05
1.83469e-05
2.03726e-06
4.4957e-07
3.41662e-06
7.50169e-07
2.0301e-06
4.55419e-07
3.42081e-06
5.4166e-06
5.41827e-06
1.05328e-06
5.4196e-06
5.42131e-06
4.06675e-06
9.10303e-06
4.06384e-06
9.10919e-06
1.83536e-05
1.83616e-05
4.06683e-06
9.10433e-06
4.06388e-06
9.11054e-06
2.66013e-07
2.6608e-07
2.66087e-07
2.7681e-07
2.76825e-07
2.76895e-07
2.76903e-07
2.05454e-06
3.4299e-06
4.72997e-07
7.77817e-07
2.04776e-06
3.43388e-06
4.78962e-07
1.83558e-05
1.83632e-05
2.05466e-06
4.73124e-07
3.42995e-06
7.77946e-07
2.04775e-06
4.79037e-07
3.43401e-06
5.42613e-06
5.4278e-06
1.07751e-06
5.42924e-06
5.43095e-06
4.07424e-06
9.1181e-06
4.07122e-06
9.12438e-06
1.83729e-05
1.83814e-05
4.07431e-06
9.11935e-06
4.07126e-06
9.12563e-06
2.80496e-07
2.80569e-07
2.80577e-07
2.91695e-07
2.9171e-07
2.91786e-07
2.91792e-07
2.07127e-06
3.44278e-06
4.96762e-07
8.04809e-07
2.06474e-06
3.4466e-06
5.02763e-07
1.83733e-05
1.83824e-05
2.07137e-06
4.96892e-07
3.44281e-06
8.04939e-07
2.06475e-06
5.02841e-07
3.44671e-06
5.43567e-06
5.43735e-06
1.10064e-06
5.43868e-06
5.4404e-06
4.0819e-06
9.13311e-06
4.0788e-06
9.13971e-06
1.83908e-05
1.84004e-05
4.08198e-06
9.13442e-06
4.07884e-06
9.14103e-06
2.95508e-07
2.95586e-07
2.95592e-07
3.0706e-07
3.07074e-07
3.07156e-07
3.07162e-07
2.08731e-06
3.45521e-06
5.2063e-07
8.3095e-07
2.08103e-06
3.45889e-06
5.26639e-07
1.83925e-05
1.8402e-05
2.0874e-06
5.20762e-07
3.45525e-06
8.31085e-07
2.08105e-06
5.2672e-07
3.45901e-06
5.44522e-06
5.4469e-06
1.12274e-06
5.44831e-06
5.45003e-06
4.08962e-06
9.14875e-06
4.08649e-06
9.15573e-06
1.84122e-05
1.8422e-05
4.0897e-06
9.15005e-06
4.08655e-06
9.15704e-06
3.10981e-07
3.11065e-07
3.11071e-07
3.22832e-07
3.22847e-07
3.22933e-07
3.22939e-07
2.10263e-06
3.46718e-06
5.44488e-07
8.56172e-07
2.09663e-06
3.4707e-06
5.50476e-07
1.84137e-05
1.84233e-05
2.1027e-06
5.44624e-07
3.46721e-06
8.56309e-07
2.09666e-06
5.5056e-07
3.47081e-06
5.45473e-06
5.45642e-06
1.14381e-06
5.45774e-06
5.45946e-06
3.26933e-07
1.84343e-05
3.47873e-06
1.84583e-05
1.84611e-05
5.12459e-06
5.12657e-06
8.90466e-06
3.63749e-06
8.90673e-06
3.63745e-06
2.78301e-06
1.58481e-07
1.11596e-06
2.78379e-06
1.58489e-07
1.11594e-06
1.8467e-05
5.12666e-06
5.12499e-06
1.84658e-05
8.90213e-06
2.24364e-07
2.74476e-06
3.59937e-06
8.90571e-06
3.63758e-06
1.08804e-06
2.78357e-06
1.58488e-07
1.58438e-07
1.11601e-06
3.59934e-06
8.90901e-06
8.90264e-06
3.63755e-06
1.08803e-06
2.2644e-07
1.58499e-07
2.78374e-06
1.58449e-07
2.75868e-06
1.116e-06
2.78317e-06
1.58475e-07
1.11601e-06
8.90813e-06
3.63716e-06
1.58483e-07
2.78314e-06
1.116e-06
8.90917e-06
3.63746e-06
3.41307e-07
5.10632e-06
5.10477e-06
1.84832e-05
1.84819e-05
1.84798e-05
3.4643e-07
5.12667e-06
5.1251e-06
5.11296e-06
5.11147e-06
1.84807e-05
1.84778e-05
8.90144e-06
1.08809e-06
2.2635e-07
1.58486e-07
2.78314e-06
1.58437e-07
2.75809e-06
1.11607e-06
1.08811e-06
1.58494e-07
2.78365e-06
1.58445e-07
1.11605e-06
3.59967e-06
8.90993e-06
8.90223e-06
3.63734e-06
3.59967e-06
8.90958e-06
3.63732e-06
5.12496e-06
5.12675e-06
1.84704e-05
1.84722e-05
1.84535e-05
1.84506e-05
1.84563e-05
1.84533e-05
5.13091e-06
5.13291e-06
3.65223e-07
5.14387e-06
5.14584e-06
1.84428e-05
1.84482e-05
1.84448e-05
1.84508e-05
3.7102e-07
5.16039e-06
5.16232e-06
5.14964e-06
5.1516e-06
3.68269e-06
8.90728e-06
3.64844e-06
8.91281e-06
1.1585e-06
2.79599e-06
1.58604e-07
2.33419e-07
1.13061e-06
2.81997e-06
1.58819e-07
1.15848e-06
2.79685e-06
1.58611e-07
2.33458e-07
1.1306e-06
2.82042e-06
1.58825e-07
3.69263e-06
8.9205e-06
8.91306e-06
3.72315e-06
3.69257e-06
8.92067e-06
8.914e-06
3.7231e-06
1.17309e-06
2.36023e-07
2.85458e-06
1.59504e-07
2.83247e-06
1.59123e-07
1.20072e-06
1.17307e-06
2.36059e-07
2.85526e-06
1.59509e-07
2.83284e-06
1.59129e-07
1.2007e-06
5.13281e-06
5.13159e-06
3.65232e-07
5.1452e-06
5.14356e-06
1.84587e-05
1.84578e-05
1.84444e-05
1.84544e-05
3.71005e-07
5.1622e-06
5.16068e-06
5.15113e-06
5.14983e-06
1.84418e-05
1.84523e-05
1.15855e-06
2.79655e-06
1.5861e-07
2.33379e-07
1.13067e-06
2.82053e-06
1.58825e-07
3.68281e-06
8.91029e-06
3.64848e-06
8.91447e-06
1.15854e-06
1.58622e-07
2.79677e-06
2.3347e-07
1.13066e-06
1.58837e-07
2.82063e-06
3.69268e-06
8.92118e-06
8.9146e-06
3.72327e-06
1.17315e-06
2.35983e-07
2.85513e-06
1.5951e-07
2.83303e-06
1.59129e-07
1.20078e-06
3.69265e-06
8.91778e-06
8.91453e-06
3.72322e-06
1.17314e-06
2.36075e-07
1.59522e-07
2.85529e-06
1.59142e-07
2.83305e-06
1.20077e-06
3.68243e-06
8.90875e-06
3.64902e-06
8.91346e-06
1.15856e-06
1.58604e-07
2.79636e-06
2.3342e-07
1.13066e-06
1.58819e-07
2.82026e-06
3.68273e-06
8.90921e-06
3.64857e-06
8.91146e-06
1.17315e-06
2.35954e-07
2.85466e-06
1.59503e-07
2.83238e-06
1.59106e-07
1.20077e-06
3.69315e-06
8.92043e-06
8.91443e-06
3.7228e-06
1.17314e-06
2.36021e-07
1.59504e-07
2.85461e-06
1.59123e-07
2.83259e-06
1.20077e-06
3.69272e-06
8.92235e-06
8.91284e-06
3.72309e-06
5.13283e-06
5.13133e-06
3.65292e-07
5.14549e-06
5.14394e-06
1.8476e-05
1.84517e-05
1.84374e-05
1.84413e-05
3.71083e-07
5.16222e-06
5.16068e-06
5.15126e-06
5.14978e-06
1.84343e-05
1.84387e-05
1.1586e-06
1.58619e-07
2.79683e-06
2.33411e-07
1.13074e-06
1.58828e-07
2.82079e-06
3.68253e-06
8.91127e-06
3.64894e-06
8.91468e-06
3.68252e-06
8.90968e-06
3.64893e-06
8.91232e-06
1.17321e-06
2.35973e-07
1.59504e-07
2.8547e-06
1.5913e-07
2.83248e-06
1.20084e-06
1.17321e-06
2.3601e-07
1.59514e-07
2.85513e-06
1.59139e-07
2.83305e-06
1.20081e-06
3.69321e-06
8.91704e-06
8.91449e-06
3.72289e-06
3.69319e-06
8.92247e-06
8.9137e-06
3.72288e-06
1.84588e-05
1.84552e-05
1.84606e-05
1.84569e-05
3.71064e-07
5.16048e-06
5.16226e-06
5.14954e-06
5.15122e-06
1.84552e-05
1.84556e-05
1.84569e-05
1.84573e-05
1.84322e-05
1.84207e-05
1.84341e-05
1.84238e-05
5.16575e-06
5.16769e-06
3.92193e-07
5.17612e-06
5.17803e-06
1.84177e-05
1.84184e-05
1.84212e-05
1.84218e-05
3.98614e-07
5.19e-06
5.19187e-06
5.18107e-06
5.18298e-06
3.75888e-06
8.92162e-06
3.73192e-06
8.92471e-06
1.24233e-06
2.86612e-06
1.59974e-07
2.44619e-07
1.21513e-06
2.88725e-06
1.60521e-07
1.24231e-06
2.86682e-06
1.5998e-07
2.44656e-07
1.21512e-06
2.88763e-06
1.60527e-07
3.76682e-06
8.92838e-06
8.92324e-06
3.79057e-06
3.76677e-06
8.92687e-06
8.92455e-06
3.79052e-06
1.25651e-06
2.47747e-07
2.91786e-06
1.61873e-07
2.89831e-06
1.61158e-07
1.28318e-06
1.25649e-06
2.47788e-07
2.91854e-06
1.61878e-07
2.89865e-06
1.61164e-07
1.28315e-06
5.16747e-06
5.16612e-06
3.92196e-07
5.17743e-06
5.17588e-06
1.84377e-05
1.84236e-05
1.84111e-05
1.84151e-05
3.98624e-07
5.19177e-06
5.19022e-06
5.18251e-06
5.18112e-06
1.84092e-05
1.8413e-05
1.24239e-06
2.86667e-06
1.5998e-07
2.44574e-07
1.2152e-06
2.8878e-06
1.60527e-07
3.75901e-06
8.91897e-06
3.73199e-06
8.92522e-06
1.24238e-06
1.59993e-07
2.86687e-06
2.44671e-07
1.21519e-06
1.6054e-07
2.8879e-06
3.76688e-06
8.93069e-06
8.92461e-06
3.79068e-06
1.25658e-06
2.477e-07
2.9184e-06
1.6188e-07
2.89886e-06
1.61164e-07
1.28323e-06
3.76685e-06
8.93006e-06
8.92585e-06
3.79064e-06
1.25657e-06
2.47798e-07
1.61893e-07
2.91855e-06
1.61178e-07
2.8989e-06
1.28321e-06
3.75861e-06
8.92145e-06
3.73246e-06
8.92491e-06
1.24239e-06
1.59973e-07
2.86632e-06
2.44627e-07
1.21518e-06
1.60521e-07
2.88749e-06
3.7589e-06
8.92317e-06
3.73202e-06
8.92429e-06
1.25658e-06
2.47674e-07
2.91796e-06
1.61871e-07
2.89821e-06
1.61139e-07
1.28324e-06
3.76733e-06
8.92679e-06
8.92477e-06
3.79026e-06
1.25657e-06
2.47756e-07
1.61873e-07
2.91801e-06
1.61157e-07
2.89852e-06
1.28324e-06
3.7669e-06
8.92724e-06
8.92408e-06
3.79054e-06
5.16756e-06
5.16608e-06
3.92241e-07
5.17775e-06
5.17622e-06
1.84326e-05
1.84277e-05
1.84183e-05
1.84226e-05
3.98653e-07
5.19173e-06
5.19021e-06
5.18269e-06
5.18122e-06
1.84155e-05
1.84199e-05
1.24245e-06
1.5999e-07
2.86679e-06
2.44617e-07
1.21525e-06
1.60531e-07
2.88801e-06
3.75872e-06
8.91828e-06
3.7325e-06
8.92496e-06
3.75872e-06
8.92316e-06
3.73247e-06
8.92453e-06
1.25664e-06
2.47686e-07
1.61873e-07
2.91798e-06
1.61165e-07
2.89835e-06
1.28334e-06
1.25664e-06
2.47743e-07
1.61884e-07
2.91852e-06
1.61175e-07
2.89899e-06
1.2833e-06
3.76737e-06
8.92947e-06
8.92558e-06
3.79035e-06
3.76736e-06
8.929e-06
8.92463e-06
3.79034e-06
1.84424e-05
1.84197e-05
1.8444e-05
1.84218e-05
3.98729e-07
5.18998e-06
5.19174e-06
5.18114e-06
5.18285e-06
1.84123e-05
1.84133e-05
1.8415e-05
1.84157e-05
1.84104e-05
1.84001e-05
1.84137e-05
1.84028e-05
5.19447e-06
5.19635e-06
4.21935e-07
5.20298e-06
5.20485e-06
1.83959e-05
1.83974e-05
1.83982e-05
1.84e-05
4.28926e-07
5.21457e-06
5.21641e-06
5.20716e-06
5.20904e-06
3.81827e-06
8.92804e-06
3.79754e-06
8.93496e-06
1.32301e-06
2.92812e-06
1.62678e-07
2.57902e-07
1.29704e-06
2.94671e-06
1.63563e-07
1.32299e-06
2.92885e-06
1.62684e-07
2.57942e-07
1.29702e-06
2.94714e-06
1.63569e-07
3.82456e-06
8.93963e-06
8.93435e-06
3.8426e-06
3.82451e-06
8.93806e-06
8.93551e-06
3.84255e-06
1.33651e-06
2.6154e-07
2.97363e-06
1.65594e-07
2.95647e-06
1.64537e-07
1.36169e-06
1.33648e-06
2.61579e-07
2.97423e-06
1.65598e-07
2.9568e-06
1.64542e-07
1.36166e-06
5.19624e-06
5.19485e-06
4.21959e-07
5.20429e-06
5.20273e-06
1.84079e-05
1.84066e-05
1.83914e-05
1.84011e-05
4.28929e-07
5.21626e-06
5.21468e-06
5.20848e-06
5.20708e-06
1.839e-05
1.83992e-05
1.32305e-06
2.92867e-06
1.62685e-07
2.5785e-07
1.2971e-06
2.94725e-06
1.63569e-07
3.81837e-06
8.93077e-06
3.79759e-06
8.93424e-06
1.32304e-06
1.62699e-07
2.92882e-06
2.57957e-07
1.29708e-06
1.63585e-07
2.94729e-06
3.82459e-06
8.94022e-06
8.93546e-06
3.84271e-06
1.33656e-06
2.61487e-07
2.97417e-06
1.656e-07
2.957e-06
1.64544e-07
1.36174e-06
3.82456e-06
8.93854e-06
8.93457e-06
3.84267e-06
1.33654e-06
2.616e-07
1.65616e-07
2.97435e-06
1.64559e-07
2.95701e-06
1.36173e-06
3.818e-06
8.92796e-06
3.7981e-06
8.9354e-06
1.32307e-06
1.62677e-07
2.92832e-06
2.57904e-07
1.2971e-06
1.63562e-07
2.94685e-06
3.81828e-06
8.92827e-06
3.79767e-06
8.93458e-06
1.33657e-06
2.61456e-07
2.97367e-06
1.65591e-07
2.95638e-06
1.64515e-07
1.36175e-06
3.82504e-06
8.93896e-06
8.93616e-06
3.84228e-06
1.33656e-06
2.61544e-07
1.65592e-07
2.97384e-06
1.64535e-07
2.95664e-06
1.36175e-06
3.82462e-06
8.93991e-06
8.93564e-06
3.84256e-06
5.19617e-06
5.1947e-06
4.21991e-07
5.20455e-06
5.20303e-06
1.84116e-05
1.84018e-05
1.83937e-05
1.8397e-05
4.28983e-07
5.21633e-06
5.21482e-06
5.20872e-06
5.20726e-06
1.83915e-05
1.8395e-05
1.32312e-06
1.62696e-07
2.92877e-06
2.5789e-07
1.29716e-06
1.63574e-07
2.94735e-06
3.81807e-06
8.93023e-06
3.79811e-06
8.9344e-06
3.81806e-06
8.92995e-06
3.79808e-06
8.93523e-06
1.33663e-06
2.61475e-07
1.65594e-07
2.97381e-06
1.64545e-07
2.95648e-06
1.36186e-06
1.33662e-06
2.61528e-07
1.65605e-07
2.97434e-06
1.64556e-07
2.95709e-06
1.36181e-06
3.82506e-06
8.93894e-06
8.93488e-06
3.84238e-06
3.82504e-06
8.93988e-06
8.93609e-06
3.84236e-06
1.84082e-05
1.84047e-05
1.84109e-05
1.84065e-05
4.29002e-07
5.21464e-06
5.21639e-06
5.20724e-06
5.20895e-06
1.83941e-05
1.84018e-05
1.83956e-05
1.84035e-05
1.83884e-05
1.83746e-05
1.83908e-05
1.83773e-05
5.21835e-06
5.22021e-06
4.5406e-07
5.22549e-06
5.22733e-06
1.83697e-05
1.837e-05
1.83725e-05
1.83729e-05
4.61563e-07
5.23524e-06
5.23705e-06
5.22906e-06
5.23091e-06
3.86375e-06
8.93861e-06
3.8481e-06
8.94269e-06
1.39908e-06
2.98271e-06
1.66737e-07
2.7321e-07
1.37476e-06
2.99906e-06
1.67966e-07
1.39905e-06
2.98339e-06
1.66741e-07
2.73249e-07
1.37473e-06
2.99952e-06
1.6797e-07
3.86875e-06
8.94558e-06
8.94161e-06
3.88228e-06
3.8687e-06
8.94489e-06
8.94298e-06
3.88222e-06
1.41169e-06
2.77347e-07