/*--------------------------------*- C++ -*----------------------------------*\
| =========                 |                                                 |
| \\      /  F ield         | OpenFOAM: The Open Source CFD Toolbox           |
|  \\    /   O peration     | Version:  2312                                  |
|   \\  /    A nd           | Website:  www.openfoam.com                      |
|    \\/     M anipulation  |                                                 |
\*---------------------------------------------------------------------------*/
FoamFile
{
    version     2.0;
    format      ascii;
    arch        "LSB;label=32;scalar=64";
    class       volScalarField;
    location    "875";
    object      k;
}
// * * * * * * * * * * * * * * * * * * * * * * * * * * * * * * * * * * * * * //

dimensions      [0 2 -2 0 0 0 0];

internalField   nonuniform List<scalar> 
43120
(
1.49273e-05
1.6163e-05
1.61668e-05
1.82649e-05
1.46269e-05
1.63125e-05
1.62443e-05
1.87481e-05
1.434e-05
1.65046e-05
1.66152e-05
1.93285e-05
1.41063e-05
1.68946e-05
1.68175e-05
2.05234e-05
1.39185e-05
1.7196e-05
1.72064e-05
2.09744e-05
1.37807e-05
1.77112e-05
1.76992e-05
2.2009e-05
1.36882e-05
1.82464e-05
1.82827e-05
2.29436e-05
1.36398e-05
1.8904e-05
1.88928e-05
2.40785e-05
1.36368e-05
1.95868e-05
1.95911e-05
2.51089e-05
1.36797e-05
2.037e-05
2.0364e-05
2.6183e-05
1.37678e-05
2.11619e-05
2.11724e-05
2.73247e-05
1.39025e-05
2.20341e-05
2.20289e-05
2.8328e-05
1.40847e-05
2.29317e-05
2.29373e-05
2.94307e-05
1.43115e-05
2.38851e-05
2.38893e-05
3.0491e-05
1.45858e-05
2.48578e-05
2.48561e-05
3.1522e-05
1.49066e-05
2.58535e-05
2.58591e-05
3.25379e-05
1.52738e-05
2.68699e-05
2.68738e-05
3.35355e-05
1.56876e-05
2.79024e-05
2.79012e-05
3.45029e-05
1.61436e-05
2.89268e-05
2.89322e-05
3.54475e-05
1.66453e-05
2.99723e-05
2.99769e-05
3.63769e-05
1.71881e-05
3.09989e-05
3.10014e-05
3.72704e-05
1.77711e-05
3.20229e-05
3.20266e-05
3.81458e-05
1.83924e-05
3.30379e-05
3.30419e-05
3.8984e-05
1.90483e-05
3.40318e-05
3.40362e-05
3.98132e-05
1.97369e-05
3.5011e-05
3.50145e-05
4.06077e-05
2.0454e-05
3.59663e-05
3.59718e-05
4.13796e-05
3.69044e-05
1.77867e-05
1.60916e-05
1.61378e-05
1.80405e-05
1.6092e-05
1.61595e-05
1.61376e-05
1.61498e-05
1.8149e-05
1.61593e-05
1.61505e-05
1.81257e-05
1.78109e-05
1.89536e-05
1.60945e-05
1.61628e-05
1.6307e-05
1.62506e-05
1.81615e-05
1.86023e-05
1.6095e-05
1.61666e-05
1.63071e-05
1.62111e-05
1.61758e-05
1.62507e-05
1.6239e-05
1.81997e-05
1.84108e-05
1.61767e-05
1.62112e-05
1.62395e-05
1.8563e-05
1.92147e-05
1.94036e-05
1.6396e-05
1.63128e-05
1.64876e-05
1.64379e-05
1.87586e-05
1.92591e-05
1.63958e-05
1.62445e-05
1.64877e-05
1.65399e-05
1.63092e-05
1.64368e-05
1.64358e-05
1.85207e-05
1.96667e-05
1.63093e-05
1.65384e-05
1.64359e-05
1.92434e-05
1.94571e-05
2.00585e-05
1.65272e-05
1.65057e-05
1.67499e-05
1.68138e-05
1.93879e-05
2.03128e-05
1.65279e-05
1.66169e-05
1.67501e-05
1.67505e-05
1.64841e-05
1.68131e-05
1.68223e-05
1.98655e-05
2.00436e-05
1.64849e-05
1.67499e-05
1.6823e-05
2.03449e-05
2.02342e-05
2.08323e-05
1.68414e-05
1.6895e-05
1.71076e-05
1.71064e-05
2.04856e-05
2.07939e-05
1.6841e-05
1.68179e-05
1.71072e-05
1.71055e-05
1.68999e-05
1.71054e-05
1.7112e-05
2.01275e-05
2.08084e-05
1.68998e-05
1.71045e-05
1.71118e-05
2.08047e-05
2.09991e-05
2.17837e-05
1.72157e-05
1.71971e-05
1.75703e-05
1.75682e-05
2.0932e-05
2.17769e-05
1.72154e-05
1.72078e-05
1.75699e-05
1.75579e-05
1.72126e-05
1.7567e-05
1.75812e-05
2.09892e-05
2.17267e-05
1.72124e-05
1.75566e-05
1.75811e-05
2.18008e-05
2.19897e-05
2.28103e-05
1.77045e-05
1.77125e-05
1.81233e-05
1.81112e-05
2.20147e-05
2.27724e-05
1.77038e-05
1.77006e-05
1.81226e-05
1.81374e-05
1.77115e-05
1.81096e-05
1.81005e-05
2.19629e-05
2.28649e-05
1.7711e-05
1.81358e-05
1.81e-05
2.27226e-05
2.3015e-05
2.38257e-05
1.82676e-05
1.82482e-05
1.87349e-05
1.87388e-05
2.29539e-05
2.38522e-05
1.82671e-05
1.82846e-05
1.87342e-05
1.87329e-05
1.82556e-05
1.87369e-05
1.87406e-05
2.30694e-05
2.38189e-05
1.82551e-05
1.87311e-05
1.874e-05
2.38603e-05
2.40485e-05
2.48775e-05
1.88992e-05
1.89057e-05
1.9413e-05
1.94165e-05
2.40911e-05
2.48814e-05
1.88982e-05
1.88945e-05
1.94115e-05
1.94155e-05
1.89085e-05
1.94144e-05
1.94115e-05
2.40301e-05
2.48923e-05
1.89076e-05
1.94134e-05
1.94101e-05
2.4884e-05
2.51101e-05
2.59594e-05
1.95975e-05
1.95888e-05
2.01569e-05
2.01752e-05
2.51038e-05
2.59905e-05
1.9596e-05
1.95933e-05
2.01555e-05
2.0179e-05
1.95936e-05
2.01731e-05
2.01676e-05
2.51225e-05
2.59942e-05
1.9592e-05
2.01772e-05
2.01664e-05
2.59724e-05
2.6187e-05
2.70499e-05
2.03544e-05
2.03723e-05
2.09582e-05
2.09459e-05
2.62346e-05
2.7e-05
2.03528e-05
2.03662e-05
2.0956e-05
2.09448e-05
2.03448e-05
2.09435e-05
2.09658e-05
2.6221e-05
2.70015e-05
2.03431e-05
2.09425e-05
2.09635e-05
2.70531e-05
2.72827e-05
2.81337e-05
2.11669e-05
2.11641e-05
2.18209e-05
2.18196e-05
2.72409e-05
2.81515e-05
2.11648e-05
2.11746e-05
2.18188e-05
2.18251e-05
2.1192e-05
2.18171e-05
2.18115e-05
2.72666e-05
2.81609e-05
2.11897e-05
2.18229e-05
2.18093e-05
2.81148e-05
2.8358e-05
2.91896e-05
2.20298e-05
2.20365e-05
2.27103e-05
2.27079e-05
2.83736e-05
2.91832e-05
2.20277e-05
2.20312e-05
2.27075e-05
2.2709e-05
2.20284e-05
2.27054e-05
2.27095e-05
2.83617e-05
2.91826e-05
2.20258e-05
2.27069e-05
2.27066e-05
2.91963e-05
2.94412e-05
3.02451e-05
2.29491e-05
2.29343e-05
2.3643e-05
2.3648e-05
2.94154e-05
3.0254e-05
2.29464e-05
2.29397e-05
2.364e-05
2.36505e-05
2.29389e-05
2.36456e-05
2.3652e-05
2.94271e-05
3.0258e-05
2.29357e-05
2.36483e-05
2.36488e-05
3.02596e-05
3.04719e-05
3.12934e-05
2.3882e-05
2.38876e-05
2.46141e-05
2.46115e-05
3.04897e-05
3.12866e-05
2.38792e-05
2.38914e-05
2.46109e-05
2.4612e-05
2.38893e-05
2.4609e-05
2.46148e-05
3.04923e-05
3.12837e-05
2.38859e-05
2.46099e-05
2.46111e-05
3.12898e-05
3.15192e-05
3.23079e-05
2.48575e-05
2.48602e-05
2.56052e-05
2.56053e-05
3.15186e-05
3.23096e-05
2.48543e-05
2.48581e-05
2.56016e-05
2.56098e-05
2.48629e-05
2.56028e-05
2.56087e-05
3.15123e-05
3.23181e-05
2.48589e-05
2.56078e-05
2.56047e-05
3.23134e-05
3.25353e-05
3.33062e-05
2.58572e-05
2.5856e-05
2.6617e-05
2.66181e-05
3.25327e-05
3.33088e-05
2.58539e-05
2.5861e-05
2.66132e-05
2.66199e-05
2.58603e-05
2.66158e-05
2.66231e-05
3.2543e-05
3.33099e-05
2.5856e-05
2.66182e-05
2.66187e-05
3.33156e-05
3.35293e-05
3.42922e-05
2.6873e-05
2.68722e-05
2.76472e-05
2.76444e-05
3.35289e-05
3.42898e-05
2.68694e-05
2.68754e-05
2.76433e-05
2.76454e-05
2.68777e-05
2.76422e-05
2.76467e-05
3.35317e-05
3.42865e-05
2.68731e-05
2.76438e-05
2.76421e-05
3.42865e-05
3.45072e-05
3.52305e-05
2.79046e-05
2.79045e-05
2.86737e-05
2.86722e-05
3.45091e-05
3.52266e-05
2.79007e-05
2.79027e-05
2.86696e-05
2.86761e-05
2.79053e-05
2.86701e-05
2.86753e-05
3.45019e-05
3.52338e-05
2.79004e-05
2.86747e-05
2.86704e-05
3.52331e-05
3.54442e-05
3.61675e-05
2.89333e-05
2.89288e-05
2.97135e-05
2.97161e-05
3.54362e-05
3.6176e-05
2.89293e-05
2.89335e-05
2.97093e-05
2.97187e-05
2.89361e-05
2.97143e-05
2.97203e-05
3.54451e-05
3.61778e-05
2.89311e-05
2.97177e-05
2.97152e-05
3.61764e-05
3.63707e-05
3.70674e-05
2.99704e-05
2.9974e-05
3.07455e-05
3.07406e-05
3.63812e-05
3.70587e-05
2.99662e-05
2.99778e-05
3.07411e-05
3.07428e-05
2.99752e-05
3.0739e-05
3.07481e-05
3.63843e-05
3.70601e-05
2.99699e-05
3.07421e-05
3.0743e-05
3.70674e-05
3.72696e-05
3.79431e-05
3.10034e-05
3.10005e-05
3.17709e-05
3.17693e-05
3.72634e-05
3.79429e-05
3.0999e-05
3.10021e-05
3.17665e-05
3.1774e-05
3.10064e-05
3.17679e-05
3.17741e-05
3.7264e-05
3.79479e-05
3.1001e-05
3.17735e-05
3.17688e-05
3.7947e-05
3.81406e-05
3.87968e-05
3.20276e-05
3.20242e-05
3.27885e-05
3.2789e-05
3.8137e-05
3.88023e-05
3.20232e-05
3.2027e-05
3.27839e-05
3.27896e-05
3.20321e-05
3.27879e-05
3.27922e-05
3.81393e-05
3.88021e-05
3.20267e-05
3.27895e-05
3.27868e-05
3.87994e-05
3.89832e-05
3.96262e-05
3.30383e-05
3.30389e-05
3.37883e-05
3.37838e-05
3.89892e-05
3.96195e-05
3.30336e-05
3.3042e-05
3.37838e-05
3.3789e-05
3.30413e-05
3.37829e-05
3.37904e-05
3.89932e-05
3.96246e-05
3.30357e-05
3.37891e-05
3.37852e-05
3.96274e-05
3.98118e-05
4.04264e-05
3.40367e-05
3.40326e-05
3.47712e-05
3.47696e-05
3.98068e-05
4.04277e-05
3.40321e-05
3.40362e-05
3.47664e-05
3.47717e-05
3.40389e-05
3.47691e-05
3.47752e-05
3.98087e-05
4.04288e-05
3.40335e-05
3.47721e-05
3.47699e-05
4.04306e-05
4.0605e-05
4.12023e-05
3.50139e-05
3.50113e-05
3.57319e-05
3.5729e-05
4.06044e-05
4.12024e-05
3.50091e-05
3.5014e-05
3.57272e-05
3.57334e-05
3.50172e-05
3.57288e-05
3.57341e-05
4.06067e-05
4.12075e-05
3.50117e-05
3.5734e-05
3.57289e-05
4.12049e-05
4.13744e-05
4.19628e-05
3.59683e-05
3.59664e-05
3.66737e-05
3.66698e-05
4.13764e-05
4.1959e-05
3.59636e-05
3.59712e-05
3.66691e-05
3.66736e-05
3.59721e-05
3.667e-05
3.66779e-05
4.13819e-05
4.19608e-05
3.59668e-05
3.66746e-05
3.66729e-05
4.19659e-05
3.69035e-05
4.2126e-05
1.50184e-05
1.50246e-05
1.50273e-05
1.50254e-05
6.96742e-05
1.6138e-05
4.43397e-05
5.3479e-05
7.00203e-05
5.29173e-05
7.00533e-05
6.96106e-05
6.96093e-05
5.35224e-05
7.00205e-05
5.28941e-05
7.00559e-05
1.49372e-05
1.4938e-05
1.49389e-05
1.46961e-05
1.46902e-05
1.46855e-05
1.4689e-05
2.93943e-05
4.5193e-05
1.49111e-05
1.61811e-05
2.88401e-05
4.55833e-05
1.48604e-05
6.96529e-05
6.95942e-05
2.93996e-05
1.49111e-05
4.52951e-05
1.61802e-05
2.88333e-05
1.48608e-05
4.57595e-05
5.89913e-05
5.90027e-05
1.83459e-05
5.90065e-05
5.9019e-05
5.48895e-05
7.01031e-05
5.4373e-05
7.01124e-05
6.95611e-05
6.9525e-05
5.48545e-05
7.01004e-05
5.43367e-05
7.01123e-05
1.46165e-05
1.46078e-05
1.4616e-05
1.44093e-05
1.43998e-05
1.44123e-05
1.4399e-05
3.11148e-05
4.64573e-05
1.47401e-05
1.63632e-05
3.05192e-05
4.68659e-05
1.47075e-05
6.95474e-05
6.95347e-05
3.10923e-05
1.47358e-05
4.62412e-05
1.63227e-05
3.05068e-05
1.47039e-05
4.6775e-05
5.99169e-05
5.99223e-05
1.90293e-05
5.9816e-05
5.98179e-05
5.59426e-05
7.01459e-05
5.54944e-05
7.01685e-05
6.94841e-05
6.94813e-05
5.59709e-05
7.0152e-05
5.55267e-05
7.01699e-05
1.43354e-05
1.43503e-05
1.43334e-05
1.41593e-05
1.41695e-05
1.4162e-05
1.41706e-05
3.27444e-05
4.73954e-05
1.46347e-05
1.66034e-05
3.21906e-05
4.79182e-05
1.46199e-05
6.9494e-05
6.9468e-05
3.2779e-05
1.46434e-05
4.75575e-05
1.66653e-05
3.22087e-05
1.46265e-05
4.79644e-05
6.01695e-05
6.01933e-05
1.96385e-05
6.0425e-05
6.04397e-05
5.68899e-05
7.02025e-05
5.65312e-05
7.02097e-05
6.94292e-05
6.94173e-05
5.68767e-05
7.02004e-05
5.65076e-05
7.02107e-05
1.41162e-05
1.41054e-05
1.4117e-05
1.39606e-05
1.39617e-05
1.39596e-05
1.39624e-05
3.44106e-05
4.85756e-05
1.46093e-05
1.69636e-05
3.38701e-05
4.89803e-05
1.4611e-05
6.94334e-05
6.94178e-05
3.44022e-05
1.4604e-05
4.85763e-05
1.69048e-05
3.38497e-05
1.46057e-05
4.89626e-05
6.08326e-05
6.08372e-05
2.06137e-05
6.08765e-05
6.0881e-05
5.76314e-05
7.02346e-05
5.73272e-05
7.02471e-05
6.93631e-05
6.93575e-05
5.76369e-05
7.02369e-05
5.73332e-05
7.02484e-05
1.39166e-05
1.3917e-05
1.39184e-05
1.381e-05
1.38087e-05
1.38078e-05
1.3811e-05
3.59083e-05
4.94681e-05
1.46358e-05
1.73046e-05
3.53846e-05
4.98198e-05
1.46541e-05
6.93686e-05
6.9353e-05
3.59204e-05
1.46362e-05
4.95225e-05
1.73113e-05
3.53862e-05
1.46555e-05
4.98216e-05
6.12743e-05
6.12861e-05
2.12841e-05
6.13556e-05
6.13648e-05
5.82988e-05
7.02697e-05
5.80294e-05
7.0285e-05
6.93282e-05
6.93118e-05
5.82932e-05
7.02703e-05
5.80236e-05
7.02861e-05
1.37811e-05
1.37795e-05
1.37813e-05
1.37073e-05
1.37059e-05
1.37098e-05
1.37042e-05
3.73591e-05
5.03668e-05
1.47416e-05
1.78521e-05
3.68444e-05
5.07178e-05
1.47801e-05
6.93266e-05
6.93135e-05
3.73606e-05
1.47414e-05
5.0351e-05
1.78457e-05
3.68391e-05
1.47798e-05
5.06894e-05
6.17475e-05
6.17551e-05
2.22782e-05
6.17779e-05
6.17856e-05
5.88509e-05
7.02994e-05
5.86339e-05
7.03137e-05
6.9274e-05
6.9274e-05
5.88586e-05
7.03017e-05
5.86352e-05
7.03159e-05
1.36857e-05
1.3691e-05
1.36858e-05
1.36473e-05
1.36465e-05
1.36474e-05
1.36487e-05
3.86786e-05
5.10929e-05
1.49157e-05
1.84014e-05
3.82049e-05
5.14366e-05
1.49693e-05
6.92798e-05
6.92688e-05
3.86906e-05
1.49189e-05
5.11424e-05
1.84308e-05
3.82042e-05
1.49728e-05
5.14575e-05
6.21021e-05
6.2113e-05
2.33014e-05
6.22429e-05
6.22552e-05
5.93595e-05
7.03327e-05
5.9158e-05
7.03435e-05
6.92381e-05
6.92318e-05
5.93537e-05
7.03328e-05
5.91536e-05
7.03445e-05
1.36412e-05
1.36409e-05
1.36428e-05
1.36337e-05
1.36343e-05
1.36339e-05
1.36348e-05
3.9926e-05
5.18745e-05
1.51593e-05
1.90729e-05
3.94746e-05
5.21433e-05
1.52309e-05
6.92391e-05
6.92336e-05
3.99252e-05
1.51598e-05
5.18547e-05
1.90642e-05
3.94698e-05
1.52305e-05
5.21574e-05
6.24376e-05
6.24431e-05
2.43736e-05
6.25848e-05
6.25929e-05
5.97972e-05
7.03618e-05
5.96151e-05
7.03743e-05
6.92053e-05
6.92052e-05
5.97976e-05
7.03633e-05
5.96155e-05
7.03759e-05
1.36368e-05
1.3637e-05
1.36378e-05
1.36645e-05
1.36667e-05
1.3668e-05
1.36666e-05
4.10624e-05
5.2537e-05
1.54669e-05
1.977e-05
4.0638e-05
5.27766e-05
1.55544e-05
6.92076e-05
6.92066e-05
4.10651e-05
1.54678e-05
5.25334e-05
1.97798e-05
4.06377e-05
1.55557e-05
5.28014e-05
6.27446e-05
6.27524e-05
2.54323e-05
6.29594e-05
6.29694e-05
6.02014e-05
7.0391e-05
6.00348e-05
7.04058e-05
6.91814e-05
6.91686e-05
6.01974e-05
7.03921e-05
6.00356e-05
7.04064e-05
1.3682e-05
1.3682e-05
1.36792e-05
1.3741e-05
1.374e-05
1.37396e-05
1.37423e-05
4.21278e-05
5.32352e-05
1.58423e-05
2.05553e-05
4.17246e-05
5.33919e-05
1.59455e-05
6.91755e-05
6.91687e-05
4.21271e-05
1.58436e-05
5.32184e-05
2.05428e-05
4.17267e-05
1.59455e-05
5.33704e-05
6.30103e-05
6.30193e-05
2.64496e-05
6.31281e-05
6.31331e-05
6.05628e-05
7.04192e-05
6.04053e-05
7.04413e-05
6.91682e-05
6.91632e-05
6.05657e-05
7.04209e-05
6.04034e-05
7.04433e-05
1.37671e-05
1.37687e-05
1.37714e-05
1.38662e-05
1.38662e-05
1.38683e-05
1.38668e-05
4.31097e-05
5.37814e-05
1.62759e-05
2.13849e-05
4.27107e-05
5.40403e-05
1.63964e-05
6.91743e-05
6.9164e-05
4.31143e-05
1.62774e-05
5.37998e-05
2.14027e-05
4.27092e-05
1.63987e-05
5.40661e-05
6.34762e-05
6.34859e-05
2.76534e-05
6.34834e-05
6.3494e-05
6.08971e-05
7.04522e-05
6.07688e-05
7.04676e-05
6.91448e-05
6.91476e-05
6.08924e-05
7.04531e-05
6.07689e-05
7.04681e-05
1.39041e-05
1.39045e-05
1.39039e-05
1.40339e-05
1.40344e-05
1.40346e-05
1.40349e-05
4.40133e-05
5.43046e-05
1.67761e-05
2.22566e-05
4.36548e-05
5.45578e-05
1.69098e-05
6.91397e-05
6.91484e-05
4.40111e-05
1.67781e-05
5.42817e-05
2.22472e-05
4.36561e-05
1.69102e-05
5.45411e-05
6.36409e-05
6.36476e-05
2.86346e-05
6.37962e-05
6.38039e-05
6.12221e-05
7.04945e-05
6.10885e-05
7.05052e-05
6.91356e-05
6.91428e-05
6.12234e-05
7.04965e-05
6.10883e-05
7.05067e-05
1.40832e-05
1.40841e-05
1.40843e-05
1.42505e-05
1.42507e-05
1.42521e-05
1.42527e-05
4.48684e-05
5.48324e-05
1.73303e-05
2.31646e-05
4.45288e-05
5.50532e-05
1.74781e-05
6.91372e-05
6.91412e-05
4.48716e-05
1.7332e-05
5.48519e-05
2.31699e-05
4.45303e-05
1.74797e-05
5.50454e-05
6.38891e-05
6.38982e-05
2.97258e-05
6.40541e-05
6.40628e-05
6.15211e-05
7.05305e-05
6.1394e-05
7.05492e-05
6.91353e-05
6.91385e-05
6.15208e-05
7.05317e-05
6.13924e-05
7.05507e-05
1.43124e-05
1.4314e-05
1.4314e-05
1.45134e-05
1.45133e-05
1.45145e-05
1.45149e-05
4.56786e-05
5.53592e-05
1.79428e-05
2.41232e-05
4.5355e-05
5.55361e-05
1.81045e-05
6.91364e-05
6.91381e-05
4.56807e-05
1.79452e-05
5.53641e-05
2.41286e-05
4.53553e-05
1.81064e-05
5.55465e-05
6.41784e-05
6.41873e-05
3.07736e-05
6.42644e-05
6.4273e-05
6.18066e-05
7.05711e-05
6.16858e-05
7.05922e-05
6.91406e-05
6.91453e-05
6.18045e-05
7.05721e-05
6.16847e-05
7.05934e-05
1.45866e-05
1.45872e-05
1.45882e-05
1.48219e-05
1.4823e-05
1.48245e-05
1.48246e-05
4.64418e-05
5.58276e-05
1.86061e-05
2.51067e-05
4.61289e-05
5.60198e-05
1.87807e-05
6.91393e-05
6.91466e-05
4.64417e-05
1.86081e-05
5.5817e-05
2.51057e-05
4.61297e-05
1.87818e-05
5.60196e-05
6.44444e-05
6.44526e-05
3.18097e-05
6.45308e-05
6.45389e-05
6.20825e-05
7.06186e-05
6.19669e-05
7.06393e-05
6.91467e-05
6.91567e-05
6.20822e-05
7.06203e-05
6.19671e-05
7.06405e-05
1.49073e-05
1.4909e-05
1.49092e-05
1.51777e-05
1.51786e-05
1.51802e-05
1.51807e-05
4.71662e-05
5.62667e-05
1.93186e-05
2.61069e-05
4.68711e-05
5.64585e-05
1.95046e-05
6.91471e-05
6.91554e-05
4.71684e-05
1.93214e-05
5.6278e-05
2.61111e-05
4.6873e-05
1.95068e-05
5.64582e-05
6.4668e-05
6.46768e-05
3.28172e-05
6.4776e-05
6.47849e-05
6.23507e-05
7.06689e-05
6.22379e-05
7.06922e-05
6.91604e-05
6.91722e-05
6.23506e-05
7.06702e-05
6.22363e-05
7.06938e-05
1.52743e-05
1.52761e-05
1.52767e-05
1.55801e-05
1.558e-05
1.55816e-05
1.55818e-05
4.78622e-05
5.67066e-05
2.00766e-05
2.71251e-05
4.75798e-05
5.68781e-05
2.02732e-05
6.91612e-05
6.91718e-05
4.78639e-05
2.00793e-05
5.67091e-05
2.71304e-05
4.75802e-05
2.02752e-05
5.68879e-05
6.49024e-05
6.49104e-05
3.38023e-05
6.49955e-05
6.50043e-05
6.2616e-05
7.07235e-05
6.25049e-05
7.07466e-05
6.91813e-05
6.91914e-05
6.26139e-05
7.07246e-05
6.2504e-05
7.07477e-05
1.56879e-05
1.5689e-05
1.56894e-05
1.60253e-05
1.60259e-05
1.60276e-05
1.60275e-05
4.85324e-05
5.71312e-05
2.08764e-05
2.81605e-05
4.82584e-05
5.72975e-05
2.10833e-05
6.91796e-05
6.9192e-05
4.85325e-05
2.0879e-05
5.71257e-05
2.81595e-05
4.82595e-05
2.10847e-05
5.72951e-05
6.51329e-05
6.51412e-05
3.4763e-05
6.52201e-05
6.52279e-05
6.28725e-05
7.07808e-05
6.27615e-05
7.08087e-05
6.92034e-05
6.92219e-05
6.28725e-05
7.07826e-05
6.27615e-05
7.081e-05
1.61436e-05
1.61457e-05
1.61461e-05
1.65161e-05
1.65172e-05
1.65194e-05
1.65203e-05
4.91726e-05
5.75125e-05
2.17122e-05
2.91878e-05
4.89103e-05
5.76873e-05
2.1927e-05
6.92044e-05
6.92205e-05
4.91749e-05
2.17153e-05
5.75235e-05
2.91923e-05
4.89117e-05
2.19296e-05
5.76898e-05
6.53487e-05
6.53576e-05
3.57143e-05
6.54723e-05
6.54807e-05
6.31311e-05
7.08439e-05
6.30259e-05
7.08706e-05
6.92326e-05
6.92457e-05
6.31307e-05
7.08452e-05
6.30245e-05
7.08723e-05
1.66468e-05
1.66492e-05
1.66493e-05
1.70484e-05
1.70486e-05
1.70511e-05
1.70515e-05
4.9799e-05
5.79256e-05
2.25841e-05
3.02265e-05
4.95461e-05
5.8061e-05
2.2807e-05
6.92336e-05
6.92459e-05
4.98004e-05
2.25874e-05
5.79282e-05
3.02321e-05
4.95469e-05
2.28096e-05
5.80692e-05
6.55624e-05
6.55705e-05
3.66154e-05
6.56361e-05
6.56449e-05
6.33869e-05
7.09104e-05
6.32762e-05
7.09396e-05
6.9269e-05
6.92853e-05
6.33857e-05
7.09116e-05
6.3275e-05
7.09411e-05
1.71882e-05
1.71905e-05
1.71913e-05
1.76215e-05
1.76222e-05
1.76251e-05
1.76249e-05
5.03993e-05
5.82827e-05
2.34811e-05
3.12576e-05
5.01504e-05
5.84464e-05
2.37106e-05
6.92684e-05
6.92864e-05
5.04002e-05
2.34845e-05
5.82811e-05
3.12615e-05
5.01514e-05
2.3713e-05
5.84512e-05
6.57975e-05
6.58057e-05
3.75108e-05
6.58641e-05
6.58724e-05
6.36393e-05
7.09804e-05
6.35313e-05
7.10121e-05
6.93032e-05
6.93259e-05
6.36379e-05
7.0982e-05
6.35316e-05
7.10131e-05
1.77715e-05
1.77743e-05
1.77748e-05
1.8234e-05
1.8235e-05
1.82369e-05
1.82381e-05
5.09822e-05
5.86416e-05
2.44048e-05
3.2279e-05
5.07433e-05
5.87963e-05
2.46399e-05
6.93017e-05
6.93242e-05
5.09833e-05
2.44086e-05
5.86467e-05
3.22805e-05
5.07451e-05
2.46427e-05
5.87913e-05
6.60005e-05
6.60093e-05
3.83857e-05
6.60951e-05
6.61034e-05
6.38882e-05
7.10528e-05
6.37854e-05
7.10848e-05
6.93433e-05
6.93635e-05
6.38887e-05
7.10544e-05
6.37838e-05
7.10867e-05
1.83936e-05
1.83959e-05
1.83963e-05
1.88809e-05
1.88813e-05
1.88849e-05
1.88846e-05
5.15456e-05
5.9e-05
2.53508e-05
3.3286e-05
5.13171e-05
5.91292e-05
2.55903e-05
6.93468e-05
6.93654e-05
5.15475e-05
2.53538e-05
5.90045e-05
3.32923e-05
5.1317e-05
2.55929e-05
5.91413e-05
6.61744e-05
6.61823e-05
3.92089e-05
6.62683e-05
6.62772e-05
6.41399e-05
7.11312e-05
6.40325e-05
7.11639e-05
6.93919e-05
6.94135e-05
6.41382e-05
7.11325e-05
6.40323e-05
7.11651e-05
1.90484e-05
1.9052e-05
1.9052e-05
1.9562e-05
1.95626e-05
1.95655e-05
1.95662e-05
5.20915e-05
5.9331e-05
2.63116e-05
3.42795e-05
5.1866e-05
5.9475e-05
2.65552e-05
6.93909e-05
6.94136e-05
5.20923e-05
2.6316e-05
5.93323e-05
3.42828e-05
5.18682e-05
2.65585e-05
5.94727e-05
6.64001e-05
6.64087e-05
4.00343e-05
6.64759e-05
6.64838e-05
6.43824e-05
7.12092e-05
6.42804e-05
7.12436e-05
6.94371e-05
6.94613e-05
6.43822e-05
7.12108e-05
6.42793e-05
7.12452e-05
1.97376e-05
1.97405e-05
1.97412e-05
2.02723e-05
2.02727e-05
2.02763e-05
2.02764e-05
5.26163e-05
5.9657e-05
2.72882e-05
3.52512e-05
5.24029e-05
5.97852e-05
2.75339e-05
6.94392e-05
6.94629e-05
5.26176e-05
2.72916e-05
5.96606e-05
3.52554e-05
5.24031e-05
2.75368e-05
5.97907e-05
6.65816e-05
6.65897e-05
4.08189e-05
6.66561e-05
6.66648e-05
6.4623e-05
7.12905e-05
6.45209e-05
7.13268e-05
6.94908e-05
6.95157e-05
6.46226e-05
7.1292e-05
6.45205e-05
7.13283e-05
2.04545e-05
2.04584e-05
2.04583e-05
2.10093e-05
2.10099e-05
2.10138e-05
2.10144e-05
5.31217e-05
5.99696e-05
2.82703e-05
3.62024e-05
5.29134e-05
6.01006e-05
2.85171e-05
6.94925e-05
6.95167e-05
5.31233e-05
2.82743e-05
5.9974e-05
3.62083e-05
5.29149e-05
2.85207e-05
6.01055e-05
6.67739e-05
6.67823e-05
4.15922e-05
6.68631e-05
6.68716e-05
2.12017e-05
6.95443e-05
6.02752e-05
6.96111e-05
6.96131e-05
5.87283e-05
5.87383e-05
7.00173e-05
5.28002e-05
7.00235e-05
5.28043e-05
4.49074e-05
1.49606e-05
2.85414e-05
4.50361e-05
1.49631e-05
2.85456e-05
6.96285e-05
5.88995e-05
5.88996e-05
6.96291e-05
6.99964e-05
1.61385e-05
4.43547e-05
5.21504e-05
7.00173e-05
5.2777e-05
2.79972e-05
4.49109e-05
1.4961e-05
1.50214e-05
2.85434e-05
5.21518e-05
7.0032e-05
6.99989e-05
5.27753e-05
2.79998e-05
1.61527e-05
1.49647e-05
4.50388e-05
1.50243e-05
4.45162e-05
2.85467e-05
4.50336e-05
1.49634e-05
2.85439e-05
7.00317e-05
5.28303e-05
1.49635e-05
4.51247e-05
2.85469e-05
7.00344e-05
5.28315e-05
1.79601e-05
5.8484e-05
5.84533e-05
6.9672e-05
6.96638e-05
6.96584e-05
1.80878e-05
5.91075e-05
5.91185e-05
5.85215e-05
5.84943e-05
6.96654e-05
6.96581e-05
6.99963e-05
2.79766e-05
1.61524e-05
1.49651e-05
4.50394e-05
1.50246e-05
4.45018e-05
2.85431e-05
2.79701e-05
1.4964e-05
4.51337e-05
1.50211e-05
2.85455e-05
5.21114e-05
7.00405e-05
7.00004e-05
5.27974e-05
5.21168e-05
7.00346e-05
5.28064e-05
5.89935e-05
5.90045e-05
6.96377e-05
6.96393e-05
6.95989e-05
6.95914e-05
6.96009e-05
6.95933e-05
5.87653e-05
5.87789e-05
1.80287e-05
5.90637e-05
5.90809e-05
6.95725e-05
6.95854e-05
6.95727e-05
6.95871e-05
1.8327e-05
5.96837e-05
5.96838e-05
5.92272e-05
5.92473e-05
5.34632e-05
7.00263e-05
5.29182e-05
7.00551e-05
2.93614e-05
4.50233e-05
1.49055e-05
1.61151e-05
2.88205e-05
4.54212e-05
1.48549e-05
2.93658e-05
4.51766e-05
1.49104e-05
1.61809e-05
2.88273e-05
4.55877e-05
1.48596e-05
5.36047e-05
7.01002e-05
7.0061e-05
5.4251e-05
5.35881e-05
7.00963e-05
7.00613e-05
5.42421e-05
2.96442e-05
1.61881e-05
4.62764e-05
1.47765e-05
4.56467e-05
1.48133e-05
3.02337e-05
2.96445e-05
1.62033e-05
4.62566e-05
1.47738e-05
4.57911e-05
1.48146e-05
3.02271e-05
5.88936e-05
5.88957e-05
1.83234e-05
5.92811e-05
5.92879e-05
6.96107e-05
6.96085e-05
6.95712e-05
6.95965e-05
1.84279e-05
5.96066e-05
5.95923e-05
5.93875e-05
5.93969e-05
6.95684e-05
6.95949e-05
2.93641e-05
4.50261e-05
1.49058e-05
1.61156e-05
2.88164e-05
4.54254e-05
1.48551e-05
5.35107e-05
7.00388e-05
5.28916e-05
7.00611e-05
2.93693e-05
1.49105e-05
4.52886e-05
1.61799e-05
2.88211e-05
1.48599e-05
4.57529e-05
5.36538e-05
7.00983e-05
7.00635e-05
5.42319e-05
2.96559e-05
1.61885e-05
4.62791e-05
1.47765e-05
4.56551e-05
1.48135e-05
3.02376e-05
5.36397e-05
7.00781e-05
7.00613e-05
5.42207e-05
2.96587e-05
1.61942e-05
1.4772e-05
4.60621e-05
1.4815e-05
4.58516e-05
3.02294e-05
5.35128e-05
7.00349e-05
5.29607e-05
7.00595e-05
2.93948e-05
1.49119e-05
4.52743e-05
1.61897e-05
2.88427e-05
1.48615e-05
4.54872e-05
5.35089e-05
7.00347e-05
5.29634e-05
7.00461e-05
2.96702e-05
1.62035e-05
4.62483e-05
1.47744e-05
4.57938e-05
1.48155e-05
3.02242e-05
5.362e-05
7.00959e-05
7.00645e-05
5.42191e-05
2.96689e-05
1.62051e-05
1.47735e-05
4.63452e-05
1.48156e-05
4.56475e-05
3.0221e-05
5.36151e-05
7.01031e-05
7.00532e-05
5.42198e-05
5.9282e-05
5.92944e-05
1.82563e-05
5.93521e-05
5.9362e-05
6.96542e-05
6.95933e-05
6.95515e-05
6.95622e-05
1.83253e-05
5.93176e-05
5.9309e-05
5.92965e-05
5.9302e-05
6.95485e-05
6.95602e-05
2.93994e-05
1.49122e-05
4.52787e-05
1.61905e-05
2.88385e-05
1.48618e-05
4.54864e-05
5.35542e-05
7.00476e-05
5.29338e-05
7.00659e-05
5.35479e-05
7.00352e-05
5.2939e-05
7.00486e-05
2.96843e-05
1.61944e-05
1.47727e-05
4.60573e-05
1.48159e-05
4.58596e-05
3.02295e-05
2.96812e-05
1.62058e-05
1.47737e-05
4.63599e-05
1.48159e-05
4.56497e-05
3.02283e-05
5.36646e-05
7.00779e-05
7.00649e-05
5.41924e-05
5.36582e-05
7.01018e-05
7.00558e-05
5.41946e-05
6.96082e-05
6.95985e-05
6.96099e-05
6.95998e-05
1.84031e-05
5.98934e-05
5.99003e-05
5.91612e-05
5.91737e-05
6.95994e-05
6.95993e-05
6.96005e-05
6.96007e-05
6.95461e-05
6.95165e-05
6.9546e-05
6.95193e-05
5.97134e-05
5.97081e-05
1.9371e-05
5.97348e-05
5.97297e-05
6.95092e-05
6.95106e-05
6.9513e-05
6.95141e-05
1.94149e-05
6.02861e-05
6.03039e-05
5.97966e-05
5.9801e-05
5.48937e-05
7.01013e-05
5.43673e-05
7.01178e-05
3.11247e-05
4.648e-05
1.47455e-05
1.64452e-05
3.05353e-05
4.67847e-05
1.47143e-05
3.11215e-05
4.64595e-05
1.47399e-05
1.63639e-05
3.05274e-05
4.68833e-05
1.47077e-05
5.49788e-05
7.01413e-05
7.01146e-05
5.54089e-05
5.4984e-05
7.01287e-05
7.01169e-05
5.54143e-05
3.14007e-05
1.64669e-05
4.73979e-05
1.46583e-05
4.69179e-05
1.46864e-05
3.19376e-05
3.13987e-05
1.6399e-05
4.7236e-05
1.46535e-05
4.6998e-05
1.46802e-05
3.19397e-05
5.97363e-05
5.97241e-05
1.89992e-05
5.99151e-05
5.99057e-05
6.95581e-05
6.9523e-05
6.94871e-05
6.94979e-05
1.913e-05
5.99508e-05
5.99436e-05
5.99092e-05
5.99006e-05
6.9486e-05
6.94961e-05
3.1101e-05
4.64774e-05
1.47453e-05
1.64446e-05
3.05303e-05
4.67769e-05
1.4714e-05
5.48673e-05
7.00842e-05
5.43284e-05
7.01171e-05
3.10924e-05
1.47357e-05
4.62542e-05
1.63234e-05
3.05187e-05
1.47041e-05
4.67829e-05
5.49545e-05
7.01479e-05
7.01161e-05
5.54367e-05
3.13819e-05
1.64664e-05
4.74063e-05
1.46587e-05
4.69152e-05
1.46863e-05
3.19426e-05
5.49692e-05
7.01424e-05
7.01204e-05
5.5445e-05
3.13782e-05
1.64362e-05
1.46597e-05
4.73816e-05
1.46811e-05
4.69488e-05
3.1951e-05
5.48976e-05
7.01013e-05
5.43541e-05
7.01198e-05
3.11187e-05
1.47395e-05
4.6575e-05
1.63722e-05
3.05173e-05
1.47079e-05
4.68725e-05
5.48956e-05
7.01076e-05
5.43562e-05
7.01137e-05
3.1398e-05
1.63981e-05
4.72333e-05
1.46531e-05
4.69972e-05
1.46798e-05
3.19319e-05
5.49872e-05
7.01292e-05
7.0119e-05
5.53967e-05
3.13986e-05
1.64096e-05
1.46526e-05
4.72746e-05
1.46804e-05
4.69413e-05
3.19302e-05
5.49842e-05
7.01287e-05
7.01126e-05
5.53939e-05
5.95072e-05
5.94887e-05
1.88986e-05
5.99034e-05
5.98974e-05
6.95444e-05
6.95326e-05
6.9504e-05
6.95149e-05
1.92044e-05
6.02079e-05
6.01935e-05
5.99336e-05
5.99279e-05
6.95017e-05
6.95129e-05
3.10952e-05
1.47394e-05
4.65853e-05
1.63721e-05
3.05119e-05
1.47078e-05
4.68582e-05
5.48753e-05
7.00843e-05
5.43051e-05
7.01195e-05
5.4867e-05
7.01056e-05
5.43079e-05
7.01129e-05
3.13751e-05
1.64351e-05
1.46592e-05
4.73739e-05
1.46807e-05
4.69463e-05
3.1947e-05
3.13805e-05
1.64095e-05
1.46531e-05
4.72921e-05
1.46804e-05
4.69214e-05
3.19358e-05
5.49757e-05
7.01431e-05
7.01227e-05
5.54266e-05
5.49653e-05
7.0136e-05
7.01134e-05
5.54215e-05
6.95676e-05
6.951e-05
6.95688e-05
6.95121e-05
1.91614e-05
6.0093e-05
6.01125e-05
5.98039e-05
5.98063e-05
6.94909e-05
6.94935e-05
6.94948e-05
6.94964e-05
6.94912e-05
6.94646e-05
6.94945e-05
6.94665e-05
6.03343e-05
6.03522e-05
1.96159e-05
6.0375e-05
6.03918e-05
6.94543e-05
6.94578e-05
6.94552e-05
6.94593e-05
1.97928e-05
6.0869e-05
6.08728e-05
6.04295e-05
6.04444e-05
5.59459e-05
7.01348e-05
5.5499e-05
7.01711e-05
3.27587e-05
4.75728e-05
1.46376e-05
1.65866e-05
3.2198e-05
4.78862e-05
1.46193e-05
3.27579e-05
4.73972e-05
1.4635e-05
1.66047e-05
3.21979e-05
4.79383e-05
1.462e-05
5.60315e-05
7.02003e-05
7.01726e-05
5.64563e-05
5.60346e-05
7.01875e-05
7.01741e-05
5.64553e-05
3.30231e-05
1.66621e-05
4.84957e-05
1.46031e-05
4.80118e-05
1.46102e-05
3.35979e-05
3.30233e-05
1.67147e-05
4.84314e-05
1.46089e-05
4.81039e-05
1.46131e-05
3.36027e-05
6.01057e-05
6.01015e-05
1.97063e-05
6.05724e-05
6.05621e-05
6.94826e-05
6.94799e-05
6.94379e-05
6.94627e-05
1.99584e-05
6.06933e-05
6.06945e-05
6.06148e-05
6.06039e-05
6.94381e-05
6.94615e-05
3.2783e-05
4.75838e-05
1.46385e-05
1.65875e-05
3.22135e-05
4.78971e-05
1.46205e-05
5.59647e-05
7.01462e-05
5.5532e-05
7.01644e-05
3.27863e-05
1.46436e-05
4.75645e-05
1.66667e-05
3.22222e-05
1.46267e-05
4.79708e-05
5.60521e-05
7.01979e-05
7.0173e-05
5.64357e-05
3.30451e-05
1.66628e-05
4.84945e-05
1.46033e-05
4.8021e-05
1.46113e-05
3.35916e-05
5.60456e-05
7.01868e-05
7.01662e-05
5.64311e-05
3.30466e-05
1.67046e-05
1.46049e-05
4.8419e-05
1.46157e-05
4.80765e-05
3.35893e-05
5.5936e-05
7.01353e-05
5.54783e-05
7.01743e-05
3.27457e-05
1.46336e-05
4.74387e-05
1.65888e-05
3.21859e-05
1.46189e-05
4.78502e-05
5.59369e-05
7.01341e-05
5.54763e-05
7.01671e-05
3.30191e-05
1.67137e-05
4.84327e-05
1.46097e-05
4.80995e-05
1.46133e-05
3.36126e-05
5.60355e-05
7.01931e-05
7.01784e-05
5.64768e-05
3.30173e-05
1.67144e-05
1.46101e-05
4.85162e-05
1.46133e-05
4.80331e-05
3.36147e-05
5.60357e-05
7.01953e-05
7.01727e-05
5.64767e-05
6.03057e-05
6.02909e-05
1.99662e-05
6.04927e-05
6.04876e-05
6.94918e-05
6.94675e-05
6.94419e-05
6.94504e-05
2.00189e-05
6.07145e-05
6.07164e-05
6.0511e-05
6.05082e-05
6.94412e-05
6.94502e-05
3.27709e-05
1.46345e-05
4.74531e-05
1.65903e-05
3.22016e-05
1.46202e-05
4.78651e-05
5.59563e-05
7.0147e-05
5.5511e-05
7.0169e-05
5.59673e-05
7.0141e-05
5.55091e-05
7.01687e-05
3.30387e-05
1.67034e-05
1.46057e-05
4.84225e-05
1.4616e-05
4.80759e-05
3.36052e-05
3.30391e-05
1.67156e-05
1.46106e-05
4.85205e-05
1.46145e-05
4.8038e-05
3.36092e-05
5.60442e-05
7.01926e-05
7.01715e-05
5.64548e-05
5.60555e-05
7.01932e-05
7.01732e-05
5.64579e-05
6.94806e-05
6.94719e-05
6.94845e-05
6.94734e-05
1.99277e-05
6.08219e-05
6.08276e-05
6.05526e-05
6.05637e-05
6.94456e-05
6.94647e-05
6.94463e-05
6.9466e-05
6.94359e-05
6.94006e-05
6.94368e-05
6.94026e-05
6.0919e-05
6.09214e-05
2.04728e-05
6.09326e-05
6.09363e-05
6.93881e-05
6.93889e-05
6.93904e-05
6.93914e-05
2.06337e-05
6.1251e-05
6.12632e-05
6.09373e-05
6.09429e-05
5.68835e-05
7.01903e-05
5.65287e-05
7.02117e-05
3.44066e-05
4.86561e-05
1.46034e-05
1.69278e-05
3.38499e-05
4.89294e-05
1.46059e-05
3.44035e-05
4.85615e-05
1.46082e-05
1.6964e-05
3.38515e-05
4.89883e-05
1.46098e-05
5.69544e-05
7.02314e-05
7.02108e-05
5.72683e-05
5.69488e-05
7.02232e-05
7.02133e-05
5.7267e-05
3.46409e-05