/*--------------------------------*- C++ -*----------------------------------*\
| =========                 |                                                 |
| \\      /  F ield         | OpenFOAM: The Open Source CFD Toolbox           |
|  \\    /   O peration     | Version:  2312                                  |
|   \\  /    A nd           | Website:  www.openfoam.com                      |
|    \\/     M anipulation  |                                                 |
\*---------------------------------------------------------------------------*/
FoamFile
{
    version     2.0;
    format      ascii;
    arch        "LSB;label=32;scalar=64";
    class       volScalarField;
    location    "875";
    object      nut;
}
// * * * * * * * * * * * * * * * * * * * * * * * * * * * * * * * * * * * * * //

dimensions      [0 2 -1 0 0 0 0];

internalField   nonuniform List<scalar> 
43120
(
0.000149957
0.000101832
0.000101876
8.37784e-05
0.000146327
9.91476e-05
9.8312e-05
8.22712e-05
0.000142098
9.64005e-05
9.76945e-05
8.1305e-05
0.0001381
9.5458e-05
9.45806e-05
8.5178e-05
0.000134215
9.30909e-05
9.31981e-05
8.27071e-05
0.000130576
9.27029e-05
9.25679e-05
8.48014e-05
0.000127125
9.21997e-05
9.25589e-05
8.60421e-05
0.000123873
9.2659e-05
9.25383e-05
8.87272e-05
0.000120875
9.31281e-05
9.31603e-05
9.06602e-05
0.000118173
9.43563e-05
9.42901e-05
9.29705e-05
0.00011577
9.55003e-05
9.55835e-05
9.58457e-05
0.000113712
9.72416e-05
9.71835e-05
9.78686e-05
0.000112023
9.91051e-05
9.91407e-05
0.000100718
0.000110662
0.000101378
0.0001014
0.000103418
0.000109684
0.000103768
0.00010374
0.000106079
0.000109073
0.000106333
0.000106364
0.000108793
0.000108829
0.000109073
0.000109088
0.000111539
0.000108958
0.000111974
0.000111948
0.000114239
0.0001094
0.000114863
0.000114889
0.000116937
0.000110208
0.000117991
0.000118009
0.000119684
0.000111323
0.000121061
0.000121061
0.000122338
0.000112745
0.000124216
0.000124225
0.000125014
0.000114456
0.000127423
0.000127432
0.000127579
0.000116426
0.000130597
0.000130611
0.000130217
0.000118646
0.000133802
0.000133807
0.000132753
0.000121083
0.000136974
0.000136994
0.000135262
0.00014015
8.06923e-05
0.000101942
0.000102508
8.30032e-05
0.000101963
0.000102784
0.00010255
0.000102679
8.40039e-05
0.000102823
0.000102693
8.37799e-05
7.9681e-05
8.5454e-05
0.000100947
0.000101786
0.000100239
9.95313e-05
8.284e-05
8.2319e-05
0.000100969
0.000101831
0.000100257
9.90414e-05
0.000101967
9.95766e-05
9.94052e-05
8.31852e-05
8.0617e-05
0.000101982
9.90853e-05
9.94148e-05
8.19567e-05
8.64319e-05
8.3308e-05
0.000100134
9.91057e-05
9.7471e-05
9.68676e-05
8.23794e-05
8.20627e-05
0.000100149
9.82707e-05
9.74918e-05
9.80701e-05
9.9075e-05
9.68982e-05
9.68573e-05
8.02888e-05
8.55731e-05
9.90815e-05
9.80973e-05
9.6863e-05
8.19152e-05
8.24084e-05
8.27265e-05
9.6637e-05
9.63687e-05
9.51749e-05
9.58877e-05
8.18144e-05
8.48353e-05
9.66641e-05
9.76689e-05
9.51967e-05
9.51591e-05
9.61324e-05
9.59238e-05
9.59979e-05
8.58943e-05
8.25885e-05
9.61474e-05
9.51972e-05
9.60112e-05
8.50864e-05
8.28102e-05
8.29457e-05
9.48271e-05
9.54171e-05
9.3538e-05
9.35108e-05
8.48786e-05
8.2637e-05
9.48427e-05
9.454e-05
9.35541e-05
9.34939e-05
9.5486e-05
9.35437e-05
9.3584e-05
8.19247e-05
8.27456e-05
9.54915e-05
9.35284e-05
9.35885e-05
8.27068e-05
8.29202e-05
8.44269e-05
9.32739e-05
9.30584e-05
9.26723e-05
9.26403e-05
8.2387e-05
8.43775e-05
9.32921e-05
9.31665e-05
9.26895e-05
9.25211e-05
9.32373e-05
9.26713e-05
9.27849e-05
8.28324e-05
8.39761e-05
9.32435e-05
9.25535e-05
9.27918e-05
8.45391e-05
8.46725e-05
8.63784e-05
9.25986e-05
9.26711e-05
9.2425e-05
9.22899e-05
8.4869e-05
8.60868e-05
9.26134e-05
9.25366e-05
9.24411e-05
9.25477e-05
9.26674e-05
9.23173e-05
9.21916e-05
8.44561e-05
8.67804e-05
9.26713e-05
9.25768e-05
9.21963e-05
8.56999e-05
8.65893e-05
8.81933e-05
9.23793e-05
9.21721e-05
9.24884e-05
9.25158e-05
8.61294e-05
8.83885e-05
9.23968e-05
9.25321e-05
9.25058e-05
9.24468e-05
9.22571e-05
9.25409e-05
9.25389e-05
8.6992e-05
8.813e-05
9.22635e-05
9.24742e-05
9.25448e-05
8.84258e-05
8.85258e-05
9.0289e-05
9.25763e-05
9.26307e-05
9.29676e-05
9.29901e-05
8.88399e-05
9.03128e-05
9.25914e-05
9.251e-05
9.29787e-05
9.29692e-05
9.26643e-05
9.30125e-05
9.2947e-05
8.83776e-05
9.0382e-05
9.26682e-05
9.29942e-05
9.29467e-05
9.03125e-05
9.06915e-05
9.26474e-05
9.31988e-05
9.31039e-05
9.38706e-05
9.4033e-05
9.06407e-05
9.28702e-05
9.32098e-05
9.31359e-05
9.3885e-05
9.40581e-05
9.31536e-05
9.40569e-05
9.39657e-05
9.07669e-05
9.28856e-05
9.31534e-05
9.40848e-05
9.39694e-05
9.27199e-05
9.3018e-05
9.51532e-05
9.41781e-05
9.43347e-05
9.51395e-05
9.50207e-05
9.33563e-05
9.4801e-05
9.41902e-05
9.42667e-05
9.51483e-05
9.49987e-05
9.40818e-05
9.50408e-05
9.52021e-05
9.32495e-05
9.48004e-05
9.40829e-05
9.50203e-05
9.51992e-05
9.5154e-05
9.55699e-05
9.77206e-05
9.55117e-05
9.54783e-05
9.68241e-05
9.68067e-05
9.52775e-05
9.78435e-05
9.55208e-05
9.55607e-05
9.6836e-05
9.68444e-05
9.57302e-05
9.68259e-05
9.67343e-05
9.5446e-05
9.78983e-05
9.57286e-05
9.68661e-05
9.67343e-05
9.7568e-05
9.80952e-05
0.000100226
9.71694e-05
9.72211e-05
9.86376e-05
9.86108e-05
9.82025e-05
0.00010018
9.71796e-05
9.71623e-05
9.86442e-05
9.86082e-05
9.71487e-05
9.86292e-05
9.86228e-05
9.81102e-05
0.000100166
9.71463e-05
9.86297e-05
9.86189e-05
0.000100251
0.000100808
0.000102873
9.92218e-05
9.90874e-05
0.000100748
0.000100787
0.000100631
0.000102932
9.92287e-05
9.91217e-05
0.000100755
0.000100795
9.91234e-05
0.000100805
0.000100816
0.000100701
0.000102948
9.91187e-05
0.000100815
0.000100811
0.000102949
0.000103309
0.000105622
0.000101318
0.00010136
0.000103134
0.000103109
0.000103429
0.000105574
0.000101325
0.000101379
0.00010314
0.000103099
0.000101369
0.000103126
0.000103129
0.000103436
0.000105544
0.000101364
0.000103119
0.000103124
0.000105576
0.00010608
0.000108297
0.000103732
0.00010375
0.000105662
0.000105661
0.000106075
0.000108308
0.000103737
0.00010372
0.000105667
0.000105684
0.000103765
0.000105677
0.000105681
0.000106022
0.000108354
0.000103758
0.000105703
0.000105674
0.000108312
0.000108795
0.000111017
0.000106329
0.000106317
0.000108361
0.000108369
0.000108778
0.000111033
0.000106334
0.000106345
0.000108365
0.000108369
0.000106342
0.000108385
0.000108399
0.000108836
0.000111029
0.000106335
0.000108389
0.000108391
0.000111059
0.000111517
0.000113809
0.000109065
0.000109056
0.000111234
0.000111212
0.000111514
0.000113792
0.000109069
0.000109069
0.000111238
0.000111205
0.00010909
0.000111228
0.000111218
0.000111522
0.000113759
0.000109082
0.000111224
0.00011121
0.000113751
0.000114286
0.000116435
0.000111959
0.000111957
0.000114125
0.000114114
0.000114298
0.00011641
0.000111962
0.000111929
0.000114127
0.000114129
0.000111951
0.000114129
0.000114125
0.000114239
0.000116445
0.000111942
0.000114148
0.000114116
0.000116432
0.000116933
0.000119202
0.000114881
0.000114847
0.000117188
0.000117211
0.000116881
0.000119258
0.000114884
0.000114869
0.00011719
0.000117216
0.00011489
0.000117228
0.000117229
0.000116929
0.000119258
0.000114881
0.000117236
0.00011722
0.00011924
0.000119662
0.000121868
0.000117943
0.000117974
0.000120277
0.000120242
0.000119731
0.000121811
0.000117946
0.000117989
0.000120278
0.000120243
0.000117967
0.000120258
0.000120283
0.00011974
0.000121808
0.000117958
0.000120263
0.000120274
0.000121848
0.000122351
0.000124515
0.000121064
0.000121044
0.000123416
0.000123407
0.000122311
0.000124515
0.000121065
0.000121041
0.000123417
0.000123428
0.000121072
0.000123424
0.000123426
0.000122303
0.000124536
0.000121063
0.000123448
0.000123417
0.000124522
0.000124998
0.000127155
0.000124222
0.000124198
0.000126612
0.00012662
0.000124975
0.000127192
0.000124222
0.000124205
0.000126611
0.000126608
0.000124241
0.000126638
0.000126626
0.000124977
0.000127178
0.000124233
0.000126629
0.000126616
0.000127153
0.000127593
0.000129766
0.000127395
0.000127404
0.000129799
0.000129769
0.000127632
0.000129723
0.000127394
0.000127411
0.000129799
0.000129793
0.000127402
0.000129787
0.000129799
0.000127646
0.000129744
0.000127392
0.000129814
0.000129792
0.000129755
0.000130225
0.000132312
0.000130605
0.000130579
0.000132996
0.00013299
0.000130193
0.000132322
0.000130605
0.00013059
0.000132994
0.000132989
0.000130606
0.000133009
0.000133011
0.000130194
0.000132316
0.000130599
0.000133011
0.000133003
0.000132321
0.000132752
0.000134823
0.000133795
0.000133782
0.000136172
0.000136157
0.000132749
0.000134824
0.000133793
0.000133785
0.00013617
0.000136173
0.000133805
0.000136176
0.000136173
0.000132752
0.000134845
0.000133796
0.000136194
0.000136166
0.00013482
0.000135247
0.000137352
0.000136961
0.000136954
0.000139359
0.000139337
0.00013526
0.000137328
0.000136959
0.000136973
0.000139357
0.000139348
0.000136974
0.000139358
0.000139375
0.000135283
0.000137327
0.000136967
0.000139371
0.00013937
0.000137354
0.000140127
0.00013773
0.000151041
0.000151161
0.000151209
0.00015117
2.36344e-05
0.00010451
6.44793e-05
6.98937e-05
4.95501e-05
6.90759e-05
4.95614e-05
2.36243e-05
2.36241e-05
7.00052e-05
4.95443e-05
6.90147e-05
4.95565e-05
0.000150151
0.000150161
0.000150178
0.000147193
0.000147071
0.000146972
0.00014704
6.71199e-05
6.57332e-05
0.000126179
0.00010098
6.6206e-05
6.63177e-05
0.000125142
2.36308e-05
2.36211e-05
6.71402e-05
0.000126162
6.60354e-05
0.000100963
6.61717e-05
0.000125148
6.68268e-05
6.10348e-05
6.10385e-05
8.29237e-05
6.09184e-05
6.09231e-05
7.21367e-05
4.95794e-05
7.12969e-05
4.95827e-05
2.3616e-05
2.36101e-05
7.20424e-05
4.95726e-05
7.12009e-05
4.95768e-05
0.000146113
0.000145935
0.000146096
0.000143175
0.000142982
0.000143224
0.000142957
7.01322e-05
6.7767e-05
0.000122248
9.85404e-05
6.89828e-05
6.84702e-05
0.000121281
2.36126e-05
2.36108e-05
7.00257e-05
0.000122159
6.71395e-05
9.80477e-05
6.89245e-05
0.00012122
6.81985e-05
6.25443e-05
6.2535e-05
8.30732e-05
6.221e-05
6.21929e-05
7.37658e-05
4.95943e-05
7.29847e-05
4.96024e-05
2.36027e-05
2.36025e-05
7.38388e-05
4.95907e-05
7.30692e-05
4.95971e-05
0.000142002
0.00014229
0.000141953
0.000139052
0.000139247
0.000139093
0.000139259
7.29345e-05
6.90369e-05
0.000118505
9.6231e-05
7.18989e-05
7.01333e-05
0.000117612
2.36038e-05
2.35995e-05
7.30834e-05
0.000118625
6.95132e-05
9.69445e-05
7.19768e-05
0.000117717
7.02651e-05
6.27264e-05
6.27554e-05
8.22481e-05
6.31566e-05
6.3166e-05
7.53872e-05
4.96145e-05
7.47426e-05
4.96171e-05
2.35935e-05
2.35917e-05
7.53506e-05
4.96079e-05
7.46792e-05
4.96116e-05
0.00013829
0.000138071
0.000138296
0.000135161
0.000135177
0.000135128
0.000135181
7.6167e-05
7.11918e-05
0.000115222
9.4825e-05
7.50976e-05
7.19965e-05
0.00011439
2.35934e-05
2.35909e-05
7.61241e-05
0.000115115
7.11944e-05
9.41624e-05
7.50038e-05
0.000114305
7.19417e-05
6.38231e-05
6.3812e-05
8.42072e-05
6.38293e-05
6.38174e-05
7.6679e-05
4.96257e-05
7.60997e-05
4.96303e-05
2.35823e-05
2.35814e-05
7.66923e-05
4.96207e-05
7.61149e-05
4.96249e-05
0.000134173
0.000134172
0.000134198
0.000131453
0.000131425
0.000131398
0.000131457
7.89616e-05
7.26612e-05
0.000111993
9.28121e-05
7.78617e-05
7.3355e-05
0.000111242
2.35825e-05
2.35798e-05
7.9009e-05
0.000111975
7.28212e-05
9.28777e-05
7.78654e-05
0.00011126
7.33587e-05
6.45035e-05
6.45075e-05
8.3499e-05
6.46051e-05
6.46031e-05
7.79403e-05
4.96381e-05
7.73926e-05
4.96437e-05
2.35764e-05
2.35737e-05
7.79236e-05
4.96324e-05
7.73765e-05
4.96382e-05
0.000130579
0.000130539
0.00013057
0.000127974
0.000127943
0.000128006
0.000127898
8.188e-05
7.42904e-05
0.000109295
9.26746e-05
8.07109e-05
7.50201e-05
0.000108687
2.35753e-05
2.35732e-05
8.18805e-05
0.000109268
7.42429e-05
9.25995e-05
8.06842e-05
0.000108678
7.49329e-05
6.52885e-05
6.52834e-05
8.52463e-05
6.52915e-05
6.52862e-05
7.90182e-05
4.96487e-05
7.85646e-05
4.96537e-05
2.35672e-05
2.35672e-05
7.90375e-05
4.96436e-05
7.85678e-05
4.96486e-05
0.000127074
0.000127162
0.000127063
0.000124655
0.000124637
0.000124642
0.000124664
8.45526e-05
7.55249e-05
0.000106995
9.22461e-05
8.34545e-05
7.62725e-05
0.000106464
2.35674e-05
2.35655e-05
8.45996e-05
0.000107016
7.56716e-05
9.25337e-05
8.34477e-05
0.000106509
7.63334e-05
6.58609e-05
6.5863e-05
8.71466e-05
6.61019e-05
6.61065e-05
8.00724e-05
4.96604e-05
7.96277e-05
4.96643e-05
2.35612e-05
2.356e-05
8.00551e-05
4.96546e-05
7.96152e-05
4.96588e-05
0.000123893
0.000123875
0.000123907
0.000121604
0.000121612
0.000121592
0.000121605
8.72242e-05
7.70238e-05
0.000105146
9.27782e-05
8.61224e-05
7.75823e-05
0.000104741
2.35604e-05
2.35595e-05
8.72149e-05
0.000105126
7.69629e-05
9.26833e-05
8.60981e-05
0.000104728
7.76212e-05
6.64102e-05
6.64007e-05
8.93763e-05
6.66749e-05
6.66704e-05
8.1004e-05
4.96706e-05
8.05876e-05
4.96752e-05
2.35555e-05
2.35555e-05
8.10039e-05
4.96653e-05
8.05881e-05
4.96699e-05
0.000120871
0.000120862
0.000120872
0.000118815
0.000118848
0.000118857
0.00011883
8.97026e-05
7.82563e-05
0.0001037
9.33344e-05
8.86265e-05
7.87543e-05
0.000103399
2.35551e-05
2.35549e-05
8.97033e-05
0.000103685
7.8245e-05
9.34171e-05
8.86257e-05
0.000103409
7.88251e-05
6.69168e-05
6.69122e-05
9.1538e-05
6.73333e-05
6.73331e-05
8.18943e-05
4.9681e-05
8.15042e-05
4.96863e-05
2.35516e-05
2.35493e-05
8.18826e-05
4.96755e-05
8.15056e-05
4.96806e-05
0.000118206
0.000118192
0.000118139
0.000116329
0.000116308
0.000116287
0.000116329
9.21256e-05
7.96712e-05
0.000102736
9.4538e-05
9.10709e-05
7.99407e-05
0.000102541
2.35497e-05
2.35484e-05
9.21121e-05
0.000102725
7.96207e-05
9.4413e-05
9.10828e-05
0.000102533
7.9874e-05
6.73493e-05
6.73473e-05
9.34765e-05
6.75619e-05
6.75506e-05
8.27059e-05
4.96909e-05
8.23288e-05
4.96987e-05
2.35492e-05
2.35484e-05
8.27126e-05
4.96856e-05
8.23226e-05
4.96936e-05
0.000115752
0.000115765
0.000115807
0.00011422
0.000114215
0.000114234
0.000114207
9.4414e-05
8.06931e-05
0.000102147
9.59915e-05
9.33166e-05
8.12871e-05
0.000102084
2.35494e-05
2.35478e-05
9.44244e-05
0.000102138
8.07471e-05
9.61398e-05
9.33132e-05
0.000102104
8.1362e-05
6.8223e-05
6.82222e-05
9.68316e-05
6.81999e-05
6.82007e-05
8.34704e-05
4.97027e-05
8.31647e-05
4.97079e-05
2.35452e-05
2.35457e-05
8.34565e-05
4.96972e-05
8.31639e-05
4.97022e-05
0.000113732
0.000113723
0.000113709
0.000112394
0.000112397
0.000112384
0.000112385
9.65582e-05
8.16948e-05
0.000102059
9.76981e-05
9.55862e-05
8.22878e-05
0.000102081
2.35435e-05
2.3545e-05
9.6539e-05
0.000102054
8.16262e-05
9.76038e-05
9.55948e-05
0.000102075
8.22358e-05
6.84562e-05
6.8449e-05
9.87478e-05
6.87536e-05
6.8748e-05
8.42277e-05
4.97176e-05
8.3902e-05
4.97214e-05
2.35437e-05
2.35449e-05
8.42302e-05
4.97124e-05
8.39004e-05
4.9716e-05
0.000111991
0.00011199
0.000111988
0.000110966
0.000110965
0.000110968
0.000110974
9.8658e-05
8.27533e-05
0.000102327
9.96318e-05
9.77248e-05
8.32621e-05
0.000102448
2.35431e-05
2.35438e-05
9.86628e-05
0.000102319
8.28132e-05
9.96651e-05
9.77335e-05
0.000102455
8.32377e-05
6.88733e-05
6.8871e-05
0.000101567
6.91922e-05
6.91887e-05
8.49264e-05
4.97301e-05
8.46148e-05
4.97368e-05
2.35437e-05
2.35442e-05
8.49246e-05
4.97247e-05
8.46095e-05
4.97315e-05
0.000110669
0.000110676
0.000110672
0.000109899
0.000109893
0.000109891
0.000109895
0.000100702
8.38465e-05
0.000103018
0.000101935
9.98014e-05
8.42334e-05
0.000103238
2.3543e-05
2.35433e-05
0.000100702
0.000103016
8.38614e-05
0.000101967
9.98046e-05
0.000103248
8.42632e-05
6.93809e-05
6.93784e-05
0.000104235
6.95302e-05
6.95266e-05
8.55959e-05
4.97445e-05
8.52996e-05
4.97519e-05
2.35445e-05
2.35454e-05
8.55888e-05
4.9739e-05
8.52955e-05
4.97465e-05
0.000109689
0.000109679
0.00010969
0.000109188
0.000109197
0.000109199
0.000109197
0.000102655
8.47925e-05
0.000104054
0.00010441
0.000101772
8.52358e-05
0.000104366
2.35435e-05
2.35447e-05
0.000102646
0.000104047
8.47611e-05
0.000104387
0.000101777
0.000104365
8.52327e-05
6.98385e-05
6.98344e-05
0.00010698
6.99913e-05
6.99866e-05
8.62425e-05
4.97613e-05
8.59609e-05
4.97685e-05
2.35456e-05
2.35473e-05
8.62405e-05
4.9756e-05
8.59607e-05
4.97631e-05
0.000109076
0.000109082
0.00010908
0.000108855
0.000108862
0.000108864
0.000108867
0.000104536
8.5679e-05
0.000105432
0.00010701
0.000103706
8.61266e-05
0.00010582
2.35448e-05
2.35462e-05
0.000104537
0.000105432
8.57134e-05
0.000107029
0.000103716
0.00010583
8.61237e-05
7.02052e-05
7.02023e-05
0.000109683
7.0403e-05
7.03998e-05
8.68683e-05
4.9779e-05
8.65957e-05
4.97872e-05
2.35479e-05
2.35499e-05
8.68665e-05
4.97736e-05
8.65905e-05
4.97819e-05
0.00010883
0.000108835
0.000108839
0.000108895
0.000108887
0.000108887
0.000108887
0.000106372
8.65884e-05
0.000107121
0.00010977
0.000105577
8.69831e-05
0.000107581
2.35472e-05
2.3549e-05
0.000106372
0.000107119
8.6595e-05
0.000109797
0.00010558
0.000107588
8.70103e-05
7.05981e-05
7.05935e-05
0.000112393
7.07616e-05
7.07582e-05
8.74836e-05
4.97982e-05
8.72184e-05
4.98063e-05
2.35515e-05
2.35532e-05
8.74761e-05
4.97928e-05
8.72151e-05
4.98009e-05
0.000108957
0.000108949
0.00010895
0.000109255
0.000109257
0.000109256
0.000109251
0.000108164
8.74705e-05
0.000109096
0.000112706
0.000107388
8.7856e-05
0.000109629
2.35503e-05
2.35524e-05
0.000108156
0.000109092
8.74528e-05
0.000112681
0.000107394
0.000109628
8.78451e-05
7.098e-05
7.09761e-05
0.000115094
7.11318e-05
7.11263e-05
8.80702e-05
4.98184e-05
8.78083e-05
4.98282e-05
2.35552e-05
2.35584e-05
8.80687e-05
4.98131e-05
8.78076e-05
4.98228e-05
0.000109394
0.0001094
0.000109399
0.000109979
0.000109986
0.000109991
0.00011
0.000109881
8.82392e-05
0.000111312
0.000115634
0.00010914
8.86548e-05
0.000111896
2.35546e-05
2.35573e-05
0.000109883
0.000111312
8.82721e-05
0.000115652
0.000109147
0.000111906
8.86599e-05
7.1327e-05
7.13244e-05
0.00011788
7.15585e-05
7.15542e-05
8.86573e-05
4.98404e-05
8.84151e-05
4.98496e-05
2.35604e-05
2.35627e-05
8.86547e-05
4.98352e-05
8.84103e-05
4.98447e-05
0.000110221
0.000110228
0.000110225
0.000111013
0.000111009
0.000111015
0.000111018
0.000111589
8.91205e-05
0.000113786
0.00011873
0.000110875
8.94209e-05
0.000114427
2.35596e-05
2.35616e-05
0.000111588
0.000113787
8.91272e-05
0.000118755
0.000110879
0.000114437
8.94426e-05
7.16714e-05
7.16669e-05
0.000120484
7.17928e-05
7.17895e-05
8.92308e-05
4.98636e-05
8.89763e-05
4.98739e-05
2.35666e-05
2.35695e-05
8.92257e-05
4.98585e-05
8.89722e-05
4.98689e-05
0.000111319
0.000111322
0.000111329
0.000112359
0.000112362
0.000112372
0.000112365
0.000113228
8.9844e-05
0.000116425
0.00012186
0.000112517
9.02357e-05
0.000117115
2.35654e-05
2.35685e-05
0.000113224
0.000116426
8.98376e-05
0.000121871
0.000112522
0.000117121
9.02475e-05
7.20602e-05
7.20558e-05
0.000123191
7.21656e-05
7.2161e-05
8.97885e-05
4.98882e-05
8.9545e-05
4.98993e-05
2.35725e-05
2.35763e-05
8.97829e-05
4.98833e-05
8.95449e-05
4.98942e-05
0.000112744
0.000112752
0.000112754
0.000114007
0.000114013
0.000114008
0.000114021
0.000114832
9.05865e-05
0.000119266
0.000125024
0.000114151
9.09556e-05
0.000119999
2.35711e-05
2.35749e-05
0.000114829
0.00011927
9.06012e-05
0.000125016
0.00011416
0.000120007
9.09369e-05
7.23786e-05
7.23756e-05
0.000125903
7.25462e-05
7.25413e-05
9.03309e-05
4.99136e-05
9.0105e-05
4.99248e-05
2.35793e-05
2.35827e-05
9.03306e-05
4.99087e-05
9.00995e-05
4.992e-05
0.000114465
0.000114464
0.000114467
0.000115907
0.000115905
0.00011592
0.000115913
0.000116389
9.13407e-05
0.000122284
0.0001282
0.000115741
9.1635e-05
0.000123053
2.35788e-05
2.35819e-05
0.00011639
0.00012228
9.13536e-05
0.000128228
0.000115741
0.000123059
9.16692e-05
7.26328e-05
7.26277e-05
0.000128408
7.27972e-05
7.27938e-05
9.08769e-05
4.99411e-05
9.06398e-05
4.99526e-05
2.35876e-05
2.35912e-05
9.08702e-05
4.99361e-05
9.06383e-05
4.99476e-05
0.000116422
0.000116435
0.000116432
0.00011807
0.000118071
0.000118075
0.000118082
0.000117907
9.2023e-05
0.000125427
0.000131407
0.000117258
9.23678e-05
0.000126235
2.35863e-05
2.35901e-05
0.000117905
0.000125435
9.20263e-05
0.000131411
0.000117268
0.000126247
9.23579e-05
7.30007e-05
7.29971e-05
0.000131058
7.31268e-05
7.31213e-05
9.13934e-05
4.99685e-05
9.11732e-05
4.99806e-05
2.35952e-05
2.35993e-05
9.13909e-05
4.99636e-05
9.11691e-05
4.99756e-05
0.000118648
0.000118652
0.000118658
0.000120455
0.000120454
0.000120465
0.000120464
0.00011937
9.27025e-05
0.000128725
0.000134591
0.000118762
9.30023e-05
0.000129558
2.35945e-05
2.35985e-05
0.000119371
0.000128724
9.27126e-05
0.000134601
0.000118761
0.000129565
9.3016e-05
7.32715e-05
7.32669e-05
0.000133563
7.3394e-05
7.33899e-05
9.19037e-05
4.9997e-05
9.16839e-05
5.00097e-05
2.36044e-05
2.36086e-05
9.19009e-05
4.99921e-05
9.16813e-05
5.00048e-05
0.000121084
0.000121097
0.000121094
0.000123052
0.000123053
0.000123066
0.000123071
0.000120788
9.33531e-05
0.000132103
0.000137771
0.000120186
9.36663e-05
0.000132958
2.36035e-05
2.36077e-05
0.000120791
0.000132109
9.3366e-05
0.000137794
0.000120191
0.000132971
9.36785e-05
7.35669e-05
7.35626e-05
0.000136117
7.3723e-05
7.37184e-05
0.000123744
2.36123e-05
9.39937e-05
2.3627e-05
2.36248e-05
6.05728e-05
6.05701e-05
4.95491e-05
6.89781e-05
4.95463e-05
6.89898e-05
6.52173e-05
0.000127104
6.5697e-05
6.55732e-05
0.000127141
6.57174e-05
2.36276e-05
6.09019e-05
6.09219e-05
2.36295e-05
4.95335e-05
0.000104476
6.45086e-05
6.80035e-05
4.95432e-05
6.89158e-05
6.48379e-05
6.52145e-05
0.000127106
0.000128175
6.57033e-05
6.80078e-05
4.95458e-05
4.95344e-05
6.89122e-05
6.48501e-05
0.000103701
0.000127161
6.55822e-05
0.000128216
6.46513e-05
6.57189e-05
6.55805e-05
0.000127157
6.57053e-05
4.95501e-05
6.90633e-05
0.000127154
6.58469e-05
6.57195e-05
4.95483e-05
6.90607e-05
8.50575e-05
6.02849e-05
6.024e-05
2.36364e-05
2.36325e-05
2.36316e-05
8.49963e-05
6.13327e-05
6.13744e-05
6.02838e-05
6.02455e-05
2.36352e-05
2.36339e-05
4.95373e-05
6.4739e-05
0.000103738
0.000127178
6.55982e-05
0.000128231
6.46231e-05
6.56981e-05
6.47077e-05
0.000127153
6.58613e-05
0.000128164
6.57106e-05
6.78961e-05
4.95527e-05
4.95387e-05
6.89738e-05
6.79103e-05
4.95462e-05
6.89976e-05
6.11168e-05
6.11184e-05
2.36295e-05
2.36282e-05
2.36248e-05
2.36235e-05
2.36226e-05
2.36213e-05
6.05746e-05
6.0579e-05
8.00963e-05
6.10371e-05
6.10492e-05
2.36206e-05
2.36225e-05
2.36181e-05
2.36203e-05
8.14762e-05
6.21257e-05
6.21027e-05
6.13067e-05
6.13249e-05
6.98534e-05
4.95473e-05
6.90789e-05
4.95572e-05
6.69734e-05
6.52502e-05
0.000126074
0.000100132
6.612e-05
6.58438e-05
0.000125049
6.69942e-05
6.56751e-05
0.000126151
0.000100935
6.61516e-05
6.63168e-05
0.000125123
7.00347e-05
4.95783e-05
4.95641e-05
7.11455e-05
6.99922e-05
4.95718e-05
4.95594e-05
7.11233e-05
6.74207e-05
9.99265e-05
6.7518e-05
0.000123201
6.62059e-05
0.000124113
6.85147e-05
6.7423e-05
0.000100099
6.74441e-05
0.000123153
6.66167e-05
0.000124129
6.84856e-05
6.08168e-05
6.08356e-05
8.27347e-05
6.14715e-05
6.15051e-05
2.36262e-05
2.36258e-05
2.36177e-05
2.36221e-05
8.23786e-05
6.19435e-05
6.19321e-05
6.16212e-05
6.16561e-05
2.36191e-05
2.36237e-05
6.69825e-05
6.52452e-05
0.000126073
0.000100155
6.60979e-05
6.58429e-05
0.000125048
6.99752e-05
4.95482e-05
6.90086e-05
4.95565e-05
6.70066e-05
0.000126143
6.60028e-05
0.000100917
6.61197e-05
0.000125119
6.67936e-05
7.01618e-05
4.95718e-05
4.95592e-05
7.10931e-05
6.74703e-05
9.99489e-05
6.7513e-05
0.000123197
6.6217e-05
0.00012411
6.85292e-05
7.01255e-05
4.95621e-05
4.95566e-05
7.10646e-05
6.74833e-05
9.99793e-05
0.000123112
6.68776e-05
0.000124125
6.67878e-05
6.84923e-05
6.9988e-05
4.95513e-05
6.91789e-05
4.95598e-05
6.7122e-05
0.000126182
6.59711e-05
0.00010106
6.62191e-05
0.000125159
6.60286e-05
6.99719e-05
4.95484e-05
6.91944e-05
4.9552e-05
6.75353e-05
0.000100146
6.74343e-05
0.000123168
6.66353e-05
0.000124162
6.84685e-05
7.00647e-05
4.95727e-05
4.95616e-05
7.10686e-05
6.753e-05
0.000100137
0.00012315
6.7718e-05
0.000124151
6.62055e-05
6.84543e-05
7.00601e-05
4.95722e-05
4.95544e-05
7.10649e-05
6.16214e-05
6.16652e-05
8.21159e-05
6.16153e-05
6.16544e-05
2.36335e-05
2.36234e-05
2.36133e-05
2.36155e-05
8.14465e-05
6.13441e-05
6.13447e-05
6.14309e-05
6.14599e-05
2.36152e-05
2.36176e-05
6.71409e-05
0.000126175
6.59726e-05
0.000101075
6.61952e-05
0.000125157
6.60138e-05
7.00945e-05
4.95553e-05
6.91101e-05
4.95622e-05
7.00782e-05
4.95465e-05
6.91241e-05
4.95509e-05
6.75963e-05
0.000100025
0.000123137
6.68774e-05
0.000124149
6.68245e-05
6.84885e-05
6.75814e-05
0.00010015
0.000123146
6.77488e-05
0.000124142
6.6201e-05
6.8485e-05
7.018e-05
4.95659e-05
4.95618e-05
7.09969e-05
7.01638e-05
4.95697e-05
4.95533e-05
7.10029e-05
2.36244e-05
2.36223e-05
2.36232e-05
2.36211e-05
8.2144e-05
6.25619e-05
6.25549e-05
6.11714e-05
6.11772e-05
2.3623e-05
2.36224e-05
2.36216e-05
2.36211e-05
2.36162e-05
2.36109e-05
2.36137e-05
2.36088e-05
6.21231e-05
6.20888e-05
8.61089e-05
6.20431e-05
6.20096e-05
2.36097e-05
2.36098e-05
2.36079e-05
2.36078e-05
8.51059e-05
6.30246e-05
6.30391e-05
6.21121e-05
6.20982e-05
7.21488e-05
4.95737e-05
7.12828e-05
4.95798e-05
7.018e-05
6.78393e-05
0.000122324
9.95022e-05
6.90592e-05
6.82286e-05
0.000121392
7.01671e-05
6.77627e-05
0.000122227
9.85057e-05
6.90248e-05
6.85074e-05
0.000121279
7.22201e-05
4.95927e-05
4.95834e-05
7.28947e-05
7.22348e-05
4.95832e-05
4.95795e-05
7.29099e-05
7.06244e-05
9.85046e-05
6.92942e-05
0.000119463
6.83558e-05
0.000120455
7.15419e-05
7.0617e-05
9.76785e-05
6.88055e-05
0.000119381
6.85813e-05
0.000120349
7.15527e-05
6.215e-05
6.2141e-05
8.2834e-05
6.24023e-05
6.24015e-05
2.36173e-05
2.36116e-05
2.36032e-05
2.36054e-05
8.26249e-05
6.23042e-05
6.23079e-05
6.23288e-05
6.23277e-05
2.36049e-05
2.36069e-05
7.00703e-05
6.78183e-05
0.000122317
9.95132e-05
6.9033e-05
6.81928e-05
0.000121383
7.20768e-05
4.95642e-05
7.11795e-05
4.9576e-05
7.00321e-05
0.000122146
6.7164e-05
9.80122e-05
6.89812e-05
0.000121209
6.8208e-05
7.21551e-05
4.95892e-05
4.9578e-05
7.2966e-05
7.05361e-05
9.85173e-05
6.9306e-05
0.000119465
6.83349e-05
0.000120448
7.15614e-05
7.21944e-05
4.9585e-05
4.95772e-05
7.29886e-05
7.05202e-05
9.81179e-05
0.000119471
6.92301e-05
0.000120352
6.84318e-05
7.15997e-05
7.21643e-05
4.95746e-05
7.1238e-05
4.95814e-05
7.01498e-05
0.000122225
6.81119e-05
9.86168e-05
6.89754e-05
0.000121287
6.84791e-05
7.21535e-05
4.95739e-05
7.1252e-05
4.95764e-05
7.06085e-05
9.77122e-05
6.88114e-05
0.000119379
6.85894e-05
0.000120361
7.1513e-05
7.22325e-05
4.95844e-05
4.95812e-05
7.28687e-05
7.06117e-05
9.78173e-05
0.000119371
6.89305e-05
0.000120356
6.84189e-05
7.15056e-05
7.22327e-05
4.95812e-05
4.95759e-05
7.28561e-05
6.16732e-05
6.16525e-05
8.19495e-05
6.23742e-05
6.238e-05
2.36145e-05
2.36128e-05
2.36054e-05
2.36074e-05
8.32622e-05
6.28401e-05
6.28285e-05
6.23775e-05
6.23834e-05
2.36074e-05
2.36095e-05
7.00406e-05
0.000122211
6.8131e-05
9.86202e-05
6.89469e-05
0.000121277
6.84249e-05
7.21036e-05
4.95682e-05
7.1109e-05
4.95808e-05
7.20817e-05
4.95712e-05
7.11168e-05
4.9574e-05
7.05022e-05
9.8149e-05
0.000119478
6.92209e-05
0.000120355
6.84377e-05
7.15752e-05
7.05259e-05
9.78205e-05
0.000119371
6.89696e-05
0.000120342
6.835e-05
7.15274e-05
7.22013e-05
4.95891e-05
4.9582e-05
7.29459e-05
7.21744e-05
4.95817e-05
4.9574e-05
7.29325e-05
2.36178e-05
2.36077e-05
2.36165e-05
2.36066e-05
8.28743e-05
6.26216e-05
6.2641e-05
6.21264e-05
6.21109e-05
2.36042e-05
2.36047e-05
2.36034e-05
2.36037e-05
2.36068e-05
2.36021e-05
2.36049e-05
2.35999e-05
6.30711e-05
6.30856e-05
8.20759e-05
6.30529e-05
6.30653e-05
2.36004e-05
2.36009e-05
2.35981e-05
2.35986e-05
8.22003e-05
6.39464e-05
6.39318e-05
6.31159e-05
6.31243e-05
7.37753e-05
4.95853e-05
7.29979e-05
4.95983e-05
7.30014e-05
6.95617e-05
0.000118537
9.60069e-05
7.19359e-05
7.00367e-05
0.000117601
7.29991e-05
6.90319e-05
0.000118491
9.62015e-05
7.19368e-05
7.01788e-05
0.000117608
7.38798e-05
4.96137e-05
4.96038e-05
7.46522e-05
7.38891e-05
4.96042e-05
4.95995e-05
7.46506e-05
7.34359e-05
9.55356e-05
7.11805e-05
0.000115902
7.01722e-05
0.00011676
7.46086e-05
7.34381e-05
9.6125e-05
7.0978e-05
0.00011599
7.04338e-05
0.000116802
7.46313e-05
6.25726e-05
6.25806e-05
8.2829e-05
6.345e-05
6.34473e-05
2.36043e-05
2.36041e-05
2.3595e-05
2.35995e-05
8.35812e-05
6.35573e-05
6.3579e-05
6.34876e-05
6.34819e-05
2.35969e-05
2.36011e-05
7.31074e-05
6.95809e-05
0.000118546
9.60364e-05
7.20025e-05
7.00556e-05
0.000117615
7.38232e-05
4.95863e-05
7.30838e-05
4.95929e-05
7.31231e-05
0.000118619
6.95209e-05
9.69159e-05
7.20416e-05
0.000117705
7.02705e-05
7.39335e-05
4.96069e-05
4.95982e-05
7.45957e-05
7.35305e-05
9.55627e-05
7.11643e-05
0.0001159
7.01865e-05
0.000116772
7.45778e-05
7.39169e-05
4.96006e-05
4.95935e-05
7.45842e-05
7.35382e-05
9.60007e-05
0.000115914
7.09384e-05
0.000116832
7.03487e-05
7.45683e-05
7.37548e-05
4.95865e-05
7.29327e-05
4.96003e-05
7.29404e-05
0.000118472
6.91656e-05
9.60315e-05
7.18791e-05
0.000117596
6.9928e-05
7.37517e-05
4.95831e-05
7.29357e-05
4.95948e-05
7.34142e-05
9.61589e-05
7.09949e-05
0.000116009
7.0431e-05
0.000116824
7.46706e-05
7.38809e-05
4.96072e-05
4.96019e-05
7.47127e-05
7.34071e-05
9.61346e-05
0.000116014
7.12356e-05
0.00011681
7.02302e-05
7.468e-05
7.38897e-05
4.96051e-05
4.95968e-05
7.47068e-05
6.29905e-05
6.29775e-05
8.50219e-05
6.32799e-05
6.32876e-05
2.36058e-05
2.36018e-05
2.35949e-05
2.35964e-05
8.40784e-05
6.36006e-05
6.36231e-05
6.32674e-05
6.32793e-05
2.35972e-05
2.35988e-05
7.30497e-05
0.000118474
6.91967e-05
9.60547e-05
7.19454e-05
0.000117607
6.99596e-05
7.38068e-05
4.95905e-05
7.30186e-05
4.95983e-05
7.38361e-05
4.95835e-05
7.30139e-05
4.95933e-05
7.34986e-05
9.60336e-05
0.000115943
7.09616e-05
0.000116846
7.03594e-05
7.4632e-05
7.35006e-05
9.61543e-05
0.000116012
7.12365e-05
0.000116814
7.0234e-05
7.46522e-05
7.39036e-05
4.96066e-05
4.95992e-05
7.46524e-05
7.39339e-05
4.96022e-05
4.95949e-05
7.46609e-05
2.36026e-05
2.3601e-05
2.36017e-05
2.35998e-05
8.33102e-05
6.38467e-05
6.38372e-05
6.33724e-05
6.3375e-05
2.35968e-05
2.35998e-05
2.35954e-05
2.35986e-05
2.35975e-05
2.35913e-05
2.35951e-05
2.35891e-05
6.4005e-05
6.39875e-05
8.30774e-05
6.39462e-05
6.39315e-05
2.35891e-05
2.35892e-05
2.3587e-05
2.35871e-05
8.30163e-05
6.44959e-05
6.44993e-05
6.39124e-05
6.39015e-05
7.53712e-05
4.96052e-05
7.47368e-05
4.96128e-05
7.61528e-05
7.14342e-05
0.000115111
9.43949e-05
7.50121e-05
7.18451e-05
0.000114308
7.61401e-05
7.11404e-05
0.000115185
9.47857e-05
7.50208e-05
7.20071e-05
0.000114367
7.54618e-05
4.96245e-05
4.96174e-05
7.603e-05
7.54479e-05
4.96168e-05
4.96133e-05
7.60276e-05
7.65035e-05