/*--------------------------------*- C++ -*----------------------------------*\
| =========                 |                                                 |
| \\      /  F ield         | OpenFOAM: The Open Source CFD Toolbox           |
|  \\    /   O peration     | Version:  2312                                  |
|   \\  /    A nd           | Website:  www.openfoam.com                      |
|    \\/     M anipulation  |                                                 |
\*---------------------------------------------------------------------------*/
FoamFile
{
    version     2.0;
    format      ascii;
    arch        "LSB;label=32;scalar=64";
    class       volVectorField;
    location    "875";
    object      U;
}
// * * * * * * * * * * * * * * * * * * * * * * * * * * * * * * * * * * * * * //

dimensions      [0 1 -1 0 0 0 0];

internalField   nonuniform List<vector> 
43120
(
(6.446e-05 6.57149e-05 0.10892)
(-9.67794e-05 5.86889e-05 0.107972)
(4.84461e-05 -9.15403e-05 0.107976)
(-0.000146517 -0.000145802 0.106615)
(5.95897e-05 5.79782e-05 0.109228)
(-9.2293e-05 5.4971e-05 0.108154)
(7.60799e-05 -9.99725e-05 0.108151)
(-0.000157303 -0.000157657 0.106641)
(5.6727e-05 5.74335e-05 0.109515)
(-9.62223e-05 6.65771e-05 0.108309)
(5.04891e-05 -9.14761e-05 0.108304)
(-0.000161182 -0.000161563 0.106647)
(5.57326e-05 5.61891e-05 0.109797)
(-8.96422e-05 5.22728e-05 0.108448)
(5.62935e-05 -9.02433e-05 0.108453)
(-0.000136122 -0.000135216 0.106595)
(5.51508e-05 5.51247e-05 0.110064)
(-8.65387e-05 5.53671e-05 0.108575)
(5.27027e-05 -8.55058e-05 0.108576)
(-0.000140209 -0.000140456 0.106585)
(5.44214e-05 5.41436e-05 0.110324)
(-8.415e-05 5.51117e-05 0.108677)
(5.71211e-05 -8.45984e-05 0.108677)
(-0.000131414 -0.000131566 0.106519)
(5.22803e-05 5.23148e-05 0.110574)
(-8.19805e-05 5.51075e-05 0.10876)
(5.16833e-05 -8.07969e-05 0.108759)
(-0.000131664 -0.000131863 0.106446)
(5.07289e-05 5.08625e-05 0.110814)
(-7.82024e-05 5.11674e-05 0.108826)
(5.21688e-05 -7.834e-05 0.108827)
(-0.000122474 -0.000122279 0.106352)
(4.99538e-05 4.98557e-05 0.111042)
(-7.45599e-05 4.95416e-05 0.108877)
(5.04756e-05 -7.50294e-05 0.108877)
(-0.000117781 -0.000117874 0.106261)
(4.89559e-05 4.9128e-05 0.11126)
(-6.93409e-05 4.35241e-05 0.108912)
(4.27025e-05 -6.8898e-05 0.108912)
(-0.00010632 -0.000106169 0.106164)
(4.80021e-05 4.78421e-05 0.111466)
(-6.76286e-05 4.57717e-05 0.108933)
(4.63314e-05 -6.79853e-05 0.108932)
(-0.000103833 -0.000104007 0.106056)
(4.55665e-05 4.56971e-05 0.11166)
(-6.38297e-05 4.25017e-05 0.108938)
(4.26843e-05 -6.38702e-05 0.108937)
(-0.000101195 -0.000101068 0.105957)
(4.51358e-05 4.51286e-05 0.111844)
(-6.0233e-05 4.04265e-05 0.108933)
(3.99627e-05 -6.00041e-05 0.108933)
(-9.42303e-05 -9.43008e-05 0.105852)
(4.44036e-05 4.4417e-05 0.112014)
(-5.62196e-05 3.67509e-05 0.108917)
(3.6693e-05 -5.62422e-05 0.108917)
(-8.84208e-05 -8.84389e-05 0.105749)
(4.30655e-05 4.30824e-05 0.112172)
(-5.29379e-05 3.45537e-05 0.108892)
(3.50078e-05 -5.3065e-05 0.108892)
(-8.44409e-05 -8.44358e-05 0.105649)
(4.19236e-05 4.19534e-05 0.112319)
(-4.9655e-05 3.24689e-05 0.108859)
(3.19584e-05 -4.9422e-05 0.108858)
(-8.05658e-05 -8.05933e-05 0.105552)
(4.09614e-05 4.09677e-05 0.112452)
(-4.60784e-05 2.9739e-05 0.108818)
(2.9754e-05 -4.61155e-05 0.108818)
(-7.60103e-05 -7.60312e-05 0.105458)
(3.94229e-05 3.9445e-05 0.112573)
(-4.2812e-05 2.70317e-05 0.108773)
(2.75338e-05 -4.29307e-05 0.108772)
(-7.23098e-05 -7.23003e-05 0.105367)
(3.84044e-05 3.84215e-05 0.112682)
(-3.9892e-05 2.59201e-05 0.108723)
(2.55288e-05 -3.9729e-05 0.108722)
(-6.99412e-05 -6.99639e-05 0.10528)
(3.67796e-05 3.67956e-05 0.112779)
(-3.61241e-05 2.20645e-05 0.108669)
(2.18906e-05 -3.60664e-05 0.108668)
(-6.53423e-05 -6.53597e-05 0.105197)
(3.51191e-05 3.5125e-05 0.112864)
(-3.32696e-05 2.04361e-05 0.108614)
(2.08289e-05 -3.33853e-05 0.108613)
(-6.18368e-05 -6.18505e-05 0.105117)
(3.3645e-05 3.37076e-05 0.112938)
(-3.04522e-05 1.90262e-05 0.108556)
(1.87631e-05 -3.02968e-05 0.108555)
(-5.99888e-05 -5.99717e-05 0.105041)
(3.17842e-05 3.17681e-05 0.113)
(-2.72209e-05 1.63886e-05 0.108498)
(1.64802e-05 -2.72919e-05 0.108497)
(-5.71544e-05 -5.71979e-05 0.10497)
(2.9866e-05 2.99125e-05 0.113052)
(-2.45887e-05 1.48956e-05 0.10844)
(1.48698e-05 -2.45361e-05 0.108439)
(-5.43265e-05 -5.43093e-05 0.104901)
(2.80193e-05 2.80351e-05 0.113095)
(-2.17585e-05 1.30899e-05 0.108382)
(1.30702e-05 -2.17531e-05 0.108381)
(-5.1931e-05 -5.19498e-05 0.104837)
(2.60768e-05 2.6087e-05 0.113128)
(-1.92586e-05 1.15818e-05 0.108325)
(1.15971e-05 -1.92877e-05 0.108323)
(-5.02544e-05 -5.02693e-05 0.104776)
(1.01241e-05 -1.67246e-05 0.108267)
(-1.01287e-05 -9.6409e-06 0.106802)
(5.66535e-05 9.67646e-05 0.107923)
(-5.89098e-05 9.57465e-05 0.107925)
(5.0118e-06 -6.1875e-06 0.106776)
(9.64468e-05 5.69817e-05 0.107924)
(9.67744e-05 -5.8611e-05 0.107924)
(-9.68617e-05 5.73933e-05 0.107927)
(-9.38217e-05 -5.24708e-05 0.10793)
(-9.37421e-06 8.15237e-06 0.106767)
(5.71022e-05 -9.79474e-05 0.107926)
(-5.2838e-05 -9.35965e-05 0.107931)
(1.34521e-05 1.40347e-05 0.106773)
(0.00016791 0.000168569 0.106647)
(-3.16946e-06 -2.93145e-06 0.106778)
(7.69841e-05 0.00010368 0.10797)
(-5.76791e-05 9.6801e-05 0.10797)
(6.53385e-05 9.73052e-05 0.108108)
(-5.93234e-05 9.66532e-05 0.10811)
(-0.000155435 0.000154983 0.106618)
(5.75912e-06 -3.9155e-06 0.106814)
(0.000103074 7.81752e-05 0.107971)
(9.15519e-05 -4.74413e-05 0.107974)
(9.6838e-05 6.54173e-05 0.108107)
(9.85766e-05 -6.38209e-05 0.108105)
(-9.54238e-05 -5.29233e-05 0.107972)
(-9.51469e-05 6.10913e-05 0.10811)
(-9.68397e-05 -6.41312e-05 0.10811)
(0.000151737 -0.000152226 0.106615)
(6.55838e-07 1.19763e-06 0.106828)
(-5.41366e-05 -9.48484e-05 0.107973)
(6.56074e-05 -9.71418e-05 0.108105)
(-6.42712e-05 -9.65e-05 0.108109)
(-2.05264e-06 -1.79317e-06 0.106814)
(0.000148824 0.000148456 0.106599)
(-9.88632e-06 -1.08031e-05 0.106816)
(5.33903e-05 9.27632e-05 0.108146)
(-5.3911e-05 9.33815e-05 0.108153)
(5.44854e-05 9.22289e-05 0.108266)
(-6.4321e-05 9.53158e-05 0.108269)
(-0.00015294 0.000154271 0.10664)
(3.95993e-06 -4.43888e-06 0.106827)
(9.31211e-05 5.16175e-05 0.108146)
(0.000100987 -7.50084e-05 0.10815)
(9.31046e-05 5.3409e-05 0.108267)
(9.44674e-05 -6.05313e-05 0.108267)
(-9.09974e-05 -5.37544e-05 0.108155)
(-9.53892e-05 6.34277e-05 0.108269)
(-9.43473e-05 -6.21545e-05 0.108269)
(0.000172233 -0.00017092 0.106655)
(-1.21378e-05 1.17211e-05 0.106787)
(-5.20152e-05 -9.14121e-05 0.108154)
(5.96675e-05 -9.45382e-05 0.108267)
(-6.11007e-05 -9.52862e-05 0.10827)
(6.36395e-06 5.45558e-06 0.10683)
(0.000152954 0.000152601 0.106636)
(-1.15768e-05 -1.03164e-05 0.106818)
(5.57181e-05 9.21761e-05 0.108309)
(-6.82812e-05 9.57236e-05 0.108308)
(5.65722e-05 9.11861e-05 0.108419)
(-5.58062e-05 9.08785e-05 0.108413)
(-0.000159989 0.000159148 0.10664)
(1.79086e-05 -1.84639e-05 0.106794)
(9.22312e-05 5.64513e-05 0.10831)
(9.09517e-05 -5.21361e-05 0.108304)
(9.01383e-05 5.78162e-05 0.10842)
(8.99428e-05 -5.36593e-05 0.108416)
(-9.65514e-05 -6.90218e-05 0.108309)
(-9.13891e-05 5.51521e-05 0.108415)
(-9.0229e-05 -5.26396e-05 0.108415)
(0.000143003 -0.000143841 0.1066)
(-1.48939e-05 1.43872e-05 0.10682)
(-6.97724e-05 -9.66427e-05 0.10831)
(5.30039e-05 -9.04642e-05 0.108417)
(-5.39134e-05 -8.92642e-05 0.108415)
(1.74512e-05 1.87508e-05 0.106791)
(0.000144896 0.000145754 0.106619)
(-1.20924e-05 -1.23971e-05 0.106791)
(5.37431e-05 8.89423e-05 0.108454)
(-5.23625e-05 8.95047e-05 0.108446)
(5.70709e-05 8.81149e-05 0.108544)
(-5.26704e-05 8.68373e-05 0.108544)
(-0.000138086 0.000137678 0.106596)
(1.81364e-05 -1.78498e-05 0.106795)
(8.82854e-05 5.41165e-05 0.108454)
(9.01105e-05 -5.63952e-05 0.108452)
(8.82382e-05 5.66135e-05 0.108545)
(8.6521e-05 -5.31568e-05 0.108547)
(-8.89592e-05 -5.00855e-05 0.108447)
(-8.66319e-05 5.28349e-05 0.108545)
(-8.70468e-05 -5.50026e-05 0.108544)
(0.000145827 -0.000146162 0.106626)
(-1.71837e-05 1.75105e-05 0.106797)
(-5.04988e-05 -8.8342e-05 0.108447)
(5.33165e-05 -8.63294e-05 0.108548)
(-5.45689e-05 -8.72122e-05 0.108545)
(1.24503e-05 1.21624e-05 0.106792)
(0.000142596 0.000142331 0.106583)
(-1.44074e-05 -1.44529e-05 0.106735)
(5.53653e-05 8.64696e-05 0.108574)
(-5.53428e-05 8.67395e-05 0.108573)
(5.64019e-05 8.55285e-05 0.108651)
(-5.82192e-05 8.63852e-05 0.108652)
(-0.000139077 0.000139202 0.106587)
(1.47833e-05 -1.45561e-05 0.106736)
(8.64935e-05 5.5237e-05 0.108575)
(8.57001e-05 -5.26816e-05 0.108575)
(8.54825e-05 5.62474e-05 0.108651)
(8.60929e-05 -5.86319e-05 0.108652)
(-8.68392e-05 -5.57389e-05 0.108573)
(-8.62283e-05 5.83754e-05 0.108653)
(-8.40349e-05 -5.31431e-05 0.108652)
(0.000136205 -0.000136049 0.106588)
(-1.15123e-05 1.17826e-05 0.106739)
(-5.56434e-05 -8.69201e-05 0.108574)
(5.87744e-05 -8.59408e-05 0.108653)
(-5.30102e-05 -8.40157e-05 0.108653)
(1.66211e-05 1.65953e-05 0.106734)
(0.000136371 0.000136184 0.106518)
(-1.85682e-05 -1.8833e-05 0.106664)
(5.53748e-05 8.43461e-05 0.108676)
(-5.47508e-05 8.43988e-05 0.108675)
(5.32177e-05 8.16649e-05 0.108739)
(-5.23833e-05 8.1709e-05 0.108739)
(-0.000134777 0.000134944 0.106517)
(2.12025e-05 -2.1161e-05 0.106668)
(8.43918e-05 5.4971e-05 0.108676)
(8.48272e-05 -5.67718e-05 0.108676)
(8.18461e-05 5.27224e-05 0.10874)
(8.22592e-05 -5.36095e-05 0.108737)
(-8.23762e-05 -5.03775e-05 0.108677)
(-8.15841e-05 5.21676e-05 0.10874)
(-8.23986e-05 -5.59711e-05 0.10874)
(0.000138061 -0.000137872 0.10652)
(-1.9128e-05 1.92172e-05 0.106658)
(-5.00018e-05 -8.24423e-05 0.108677)
(5.33901e-05 -8.2137e-05 0.108739)
(-5.5503e-05 -8.26246e-05 0.108741)
(1.44997e-05 1.42299e-05 0.106669)
(0.000128254 0.000128038 0.106441)
(-2.06088e-05 -2.02902e-05 0.106583)
(5.27035e-05 8.09447e-05 0.108759)
(-5.54448e-05 8.20026e-05 0.108758)
(5.09742e-05 7.85321e-05 0.108811)
(-5.14071e-05 7.85485e-05 0.108811)
(-0.000128289 0.000128151 0.106445)
(2.27878e-05 -2.2857e-05 0.106582)
(8.09905e-05 5.26438e-05 0.10876)
(8.07903e-05 -5.20154e-05 0.108757)
(7.82381e-05 5.11876e-05 0.108812)
(7.87909e-05 -5.17617e-05 0.10881)
(-8.10062e-05 -5.40676e-05 0.108761)
(-7.85708e-05 5.11035e-05 0.108813)
(-7.92869e-05 -5.23153e-05 0.108809)
(0.000127285 -0.000127399 0.106436)
(-2.10319e-05 2.09943e-05 0.106583)
(-5.40304e-05 -8.10818e-05 0.108761)
(5.1456e-05 -7.88104e-05 0.108811)
(-5.25517e-05 -7.9036e-05 0.10881)
(2.01291e-05 2.04517e-05 0.106579)
(0.000121393 0.000121567 0.106356)
(-2.11753e-05 -2.12242e-05 0.106492)
(4.98688e-05 7.73447e-05 0.108827)
(-5.1384e-05 7.82061e-05 0.108825)
(5.07373e-05 7.56672e-05 0.108865)
(-4.77559e-05 7.43367e-05 0.108865)
(-0.000119035 0.000118891 0.106354)
(2.45639e-05 -2.44684e-05 0.106493)
(7.71355e-05 4.99047e-05 0.108827)
(7.83391e-05 -5.23834e-05 0.108825)
(7.56231e-05 5.05087e-05 0.108866)
(7.48324e-05 -4.89242e-05 0.108865)
(-7.76359e-05 -5.04062e-05 0.108825)
(-7.4228e-05 4.76185e-05 0.108867)
(-7.5985e-05 -5.12609e-05 0.108864)
(0.000122351 -0.000122471 0.106356)
(-2.38211e-05 2.39408e-05 0.106491)
(-5.04642e-05 -7.74621e-05 0.108826)
(4.8796e-05 -7.47295e-05 0.108866)
(-5.10665e-05 -7.59699e-05 0.108865)
(2.17451e-05 2.17019e-05 0.106491)
(0.000117037 0.000116926 0.106261)
(-2.40578e-05 -2.38635e-05 0.106394)
(4.86665e-05 7.40513e-05 0.108877)
(-4.98008e-05 7.46485e-05 0.108875)
(4.85194e-05 7.25344e-05 0.108903)
(-4.62771e-05 7.14091e-05 0.108903)
(-0.000114377 0.000114347 0.106263)
(2.52347e-05 -2.49821e-05 0.106391)
(7.40326e-05 4.84617e-05 0.108878)
(7.51358e-05 -5.07265e-05 0.108875)
(7.23488e-05 4.86606e-05 0.108904)
(7.05892e-05 -4.42169e-05 0.108903)
(-7.56343e-05 -5.17849e-05 0.108875)
(-7.12396e-05 4.65486e-05 0.108905)
(-7.01446e-05 -4.32859e-05 0.108904)
(0.000115322 -0.00011533 0.106261)
(-2.71091e-05 2.7382e-05 0.106392)
(-5.16096e-05 -7.56358e-05 0.108876)
(4.44964e-05 -7.04623e-05 0.108905)
(-4.34543e-05 -7.00037e-05 0.108905)
(2.94354e-05 2.96258e-05 0.106395)
(0.000111307 0.000111447 0.106162)
(-2.67542e-05 -2.68906e-05 0.106291)
(4.76777e-05 7.12969e-05 0.108911)
(-4.33909e-05 6.95603e-05 0.10891)
(4.58914e-05 6.83878e-05 0.108926)
(-4.77647e-05 6.89749e-05 0.108926)
(-0.000107403 0.000107568 0.10616)
(2.3e-05 -2.31748e-05 0.106293)
(7.11187e-05 4.77786e-05 0.108912)
(6.91071e-05 -4.25616e-05 0.10891)
(6.83815e-05 4.55435e-05 0.108927)
(6.97375e-05 -4.96815e-05 0.108926)
(-7.05332e-05 -4.61644e-05 0.10891)
(-6.90953e-05 4.73476e-05 0.108928)
(-6.86041e-05 -4.6881e-05 0.108926)
(0.000105815 -0.000105654 0.106162)
(-2.16373e-05 2.14847e-05 0.106291)
(-4.62834e-05 -7.03741e-05 0.108911)
(4.92682e-05 -6.9872e-05 0.108928)
(-4.65568e-05 -6.86573e-05 0.108928)
(2.47922e-05 2.46443e-05 0.106287)
(0.000105147 0.000104983 0.106059)
(-3.11594e-05 -3.10273e-05 0.106188)
(4.63502e-05 6.81352e-05 0.10893)
(-4.59091e-05 6.75518e-05 0.108931)
(4.05751e-05 6.36193e-05 0.108937)
(-4.30674e-05 6.47972e-05 0.108935)
(-0.000107697 0.000107485 0.106061)
(2.89723e-05 -2.8892e-05 0.106185)
(6.81454e-05 4.60775e-05 0.108931)
(6.78783e-05 -4.64589e-05 0.10893)
(6.34539e-05 4.07071e-05 0.108938)
(6.42797e-05 -4.16866e-05 0.108934)
(-6.65224e-05 -4.28494e-05 0.10893)
(-6.46809e-05 4.28874e-05 0.108937)
(-6.49672e-05 -4.34861e-05 0.108935)
(0.0001082 -0.000108419 0.106058)
(-3.03062e-05 3.04207e-05 0.106185)
(-4.25963e-05 -6.65933e-05 0.108931)
(4.15157e-05 -6.41525e-05 0.108936)
(-4.36336e-05 -6.48116e-05 0.108936)
(2.68604e-05 2.70334e-05 0.106186)
(9.67519e-05 9.68398e-05 0.105957)
(-2.93465e-05 -2.94124e-05 0.106081)
(4.18023e-05 6.34336e-05 0.108937)
(-4.27081e-05 6.3851e-05 0.108936)
(4.10246e-05 6.10699e-05 0.108935)
(-4.00289e-05 6.0781e-05 0.108934)
(-9.92965e-05 9.92604e-05 0.105955)
(3.07739e-05 -3.06343e-05 0.106082)
(6.3237e-05 4.18484e-05 0.108938)
(6.38892e-05 -4.28928e-05 0.108935)
(6.10486e-05 4.08813e-05 0.108936)
(6.07387e-05 -4.00731e-05 0.108934)
(-6.38904e-05 -4.30123e-05 0.108937)
(-6.06168e-05 4.00569e-05 0.108936)
(-6.09325e-05 -4.06876e-05 0.108933)
(9.8838e-05 -9.88615e-05 0.105955)
(-3.07185e-05 3.08857e-05 0.106081)
(-4.30899e-05 -6.37397e-05 0.108938)
(4.00952e-05 -6.05875e-05 0.108936)
(-4.05597e-05 -6.09178e-05 0.108934)
(3.03112e-05 3.02638e-05 0.10608)
(9.33441e-05 9.32409e-05 0.105851)
(-3.04547e-05 -3.04293e-05 0.105977)
(3.88562e-05 5.95985e-05 0.108932)
(-4.05434e-05 6.03422e-05 0.108931)
(3.86665e-05 5.77073e-05 0.10892)
(-3.74232e-05 5.71181e-05 0.10892)
(-9.38688e-05 9.39092e-05 0.105853)
(3.23484e-05 -3.23455e-05 0.105976)
(5.9568e-05 3.87498e-05 0.108933)
(6.01345e-05 -4.00736e-05 0.108931)
(5.76279e-05 3.85707e-05 0.108922)
(5.72794e-05 -3.77586e-05 0.108919)
(-6.02766e-05 -4.05435e-05 0.108931)
(-5.70742e-05 3.7337e-05 0.108922)
(-5.71499e-05 -3.73721e-05 0.10892)
(9.32624e-05 -9.3208e-05 0.105852)
(-3.18399e-05 3.18608e-05 0.105975)
(-4.04583e-05 -6.02502e-05 0.108932)
(3.76679e-05 -5.72664e-05 0.108922)
(-3.72987e-05 -5.71113e-05 0.108921)
(3.24266e-05 3.24387e-05 0.105975)
(9.02806e-05 9.02639e-05 0.10575)
(-3.33475e-05 -3.32947e-05 0.105873)
(3.78644e-05 5.67239e-05 0.108916)
(-3.68016e-05 5.62964e-05 0.108915)
(3.5195e-05 5.38354e-05 0.108897)
(-3.5867e-05 5.4033e-05 0.108897)
(-8.81252e-05 8.80769e-05 0.10575)
(3.24094e-05 -3.24148e-05 0.105873)
(5.66513e-05 3.77953e-05 0.108917)
(5.63024e-05 -3.67471e-05 0.108914)
(5.37309e-05 3.51642e-05 0.108899)
(5.39309e-05 -3.57692e-05 0.108896)
(-5.64212e-05 -3.71277e-05 0.108915)
(-5.40028e-05 3.57112e-05 0.108899)
(-5.39315e-05 -3.55155e-05 0.108897)
(8.83827e-05 -8.84273e-05 0.105749)
(-3.24374e-05 3.24568e-05 0.105873)
(-3.708e-05 -5.63737e-05 0.108916)
(3.56116e-05 -5.39101e-05 0.108899)
(-3.55074e-05 -5.38576e-05 0.108898)
(3.28054e-05 3.28562e-05 0.105872)
(8.45833e-05 8.45874e-05 0.10565)
(-3.45579e-05 -3.45636e-05 0.105773)
(3.49996e-05 5.31165e-05 0.10889)
(-3.46762e-05 5.29512e-05 0.10889)
(3.27969e-05 5.03957e-05 0.108866)
(-3.3152e-05 5.05127e-05 0.108865)
(-8.47886e-05 8.47132e-05 0.10565)
(3.40214e-05 -3.39876e-05 0.105772)
(5.30239e-05 3.49178e-05 0.108892)
(5.30869e-05 -3.51321e-05 0.108889)
(5.03506e-05 3.27138e-05 0.108868)
(5.0405e-05 -3.28196e-05 0.108864)
(-5.29751e-05 -3.46348e-05 0.108889)
(-5.0454e-05 3.30418e-05 0.108867)
(-5.0442e-05 -3.30436e-05 0.108865)
(8.5029e-05 -8.51057e-05 0.10565)
(-3.44232e-05 3.44715e-05 0.105771)
(-3.45764e-05 -5.29141e-05 0.108891)
(3.27107e-05 -5.03319e-05 0.108867)
(-3.29822e-05 -5.04207e-05 0.108866)
(3.40519e-05 3.40438e-05 0.105771)
(7.99288e-05 7.98985e-05 0.105553)
(-3.52315e-05 -3.52246e-05 0.105674)
(3.21064e-05 4.95358e-05 0.108857)
(-3.26038e-05 4.96806e-05 0.108856)
(3.06555e-05 4.7094e-05 0.108827)
(-3.01846e-05 4.69364e-05 0.108826)
(-8.07618e-05 8.07146e-05 0.105553)
(3.58627e-05 -3.58028e-05 0.105674)
(4.94737e-05 3.20518e-05 0.108858)
(4.94742e-05 -3.20913e-05 0.108856)
(4.70286e-05 3.05567e-05 0.108829)
(4.71723e-05 -3.06956e-05 0.108826)
(-4.96867e-05 -3.253e-05 0.108856)
(-4.68864e-05 3.01436e-05 0.108829)
(-4.68884e-05 -3.01193e-05 0.108826)
(8.01119e-05 -8.01634e-05 0.105552)
(-3.51978e-05 3.52695e-05 0.105673)
(-3.24985e-05 -4.9649e-05 0.108857)
(3.06445e-05 -4.71011e-05 0.108828)
(-3.00375e-05 -4.68478e-05 0.108828)
(3.57712e-05 3.57764e-05 0.105673)
(7.65276e-05 7.6501e-05 0.105458)
(-3.69417e-05 -3.68921e-05 0.105579)
(3.0098e-05 4.63141e-05 0.108817)
(-2.97654e-05 4.61381e-05 0.108816)
(2.77216e-05 4.36874e-05 0.108783)
(-2.83757e-05 4.39402e-05 0.108782)
(-7.61584e-05 7.61589e-05 0.105458)
(3.64675e-05 -3.64285e-05 0.105579)
(4.6253e-05 3.00271e-05 0.108818)
(4.6203e-05 -2.97863e-05 0.108815)
(4.35938e-05 2.77043e-05 0.108784)
(4.3839e-05 -2.82193e-05 0.108781)
(-4.60949e-05 -2.96168e-05 0.108816)
(-4.38898e-05 2.83028e-05 0.108785)
(-4.37303e-05 -2.79103e-05 0.108782)
(7.65353e-05 -7.65418e-05 0.105458)
(-3.6587e-05 3.66367e-05 0.105579)
(-2.95644e-05 -4.60617e-05 0.108817)
(2.81348e-05 -4.37644e-05 0.108784)
(-2.79097e-05 -4.36597e-05 0.108784)
(3.65412e-05 3.65897e-05 0.105578)
(7.20584e-05 7.20628e-05 0.105367)
(-3.71013e-05 -3.71135e-05 0.105488)
(2.69188e-05 4.27328e-05 0.108771)
(-2.71091e-05 4.28387e-05 0.10877)
(2.62229e-05 4.05952e-05 0.108734)
(-2.59078e-05 4.03809e-05 0.108733)
(-7.24486e-05 7.2412e-05 0.105367)
(3.74081e-05 -3.73975e-05 0.105489)
(4.26487e-05 2.68486e-05 0.108772)
(4.29916e-05 -2.7621e-05 0.10877)
(4.05619e-05 2.6145e-05 0.108735)
(4.02847e-05 -2.55481e-05 0.108732)
(-4.26412e-05 -2.67818e-05 0.10877)
(-4.03502e-05 2.57818e-05 0.108735)
(-4.06842e-05 -2.65717e-05 0.108733)
(7.26712e-05 -7.27144e-05 0.105367)
(-3.79106e-05 3.79157e-05 0.105488)
(-2.67303e-05 -4.25814e-05 0.108772)
(2.54157e-05 -4.02388e-05 0.108735)
(-2.65067e-05 -4.06715e-05 0.108734)
(3.67954e-05 3.67875e-05 0.105487)
(6.95362e-05 6.94998e-05 0.10528)
(-3.90442e-05 -3.90434e-05 0.105401)
(2.54314e-05 3.9758e-05 0.108721)
(-2.60549e-05 3.9902e-05 0.10872)
(2.30871e-05 3.71467e-05 0.108681)
(-2.2557e-05 3.6984e-05 0.10868)
(-6.97153e-05 6.9652e-05 0.105281)
(3.9695e-05 -3.96784e-05 0.1054)
(3.97118e-05 2.53718e-05 0.108723)
(3.97687e-05 -2.56705e-05 0.108719)
(3.7089e-05 2.30096e-05 0.108683)
(3.70933e-05 -2.27989e-05 0.10868)
(-3.98738e-05 -2.5773e-05 0.10872)
(-3.69567e-05 2.25018e-05 0.108683)
(-3.70313e-05 -2.27941e-05 0.10868)
(6.90425e-05 -6.91201e-05 0.10528)
(-3.9289e-05 3.93314e-05 0.105399)
(-2.57294e-05 -3.98479e-05 0.108721)
(2.27376e-05 -3.70384e-05 0.108682)
(-2.2726e-05 -3.70039e-05 0.108682)
(3.94125e-05 3.94176e-05 0.105399)
(6.55346e-05 6.55054e-05 0.105197)
(-3.97719e-05 -3.97642e-05 0.105317)
(2.30126e-05 3.64995e-05 0.108667)
(-2.21153e-05 3.61638e-05 0.108667)
(2.0965e-05 3.40269e-05 0.108626)
(-2.16106e-05 3.42474e-05 0.108625)
(-6.45222e-05 6.44851e-05 0.105197)
(3.89266e-05 -3.89014e-05 0.105317)
(3.64433e-05 2.29555e-05 0.108669)
(3.6138e-05 -2.19447e-05 0.108666)
(3.39717e-05 2.09018e-05 0.108628)
(3.43161e-05 -2.18753e-05 0.108624)
(-3.64486e-05 -2.30031e-05 0.108666)
(-3.42107e-05 2.1556e-05 0.108628)
(-3.39435e-05 -2.0758e-05 0.108625)
(6.46163e-05 -6.46491e-05 0.105196)
(-3.86081e-05 3.86349e-05 0.105316)
(-2.29544e-05 -3.64325e-05 0.108668)
(2.18124e-05 -3.42598e-05 0.108627)
(-2.07018e-05 -3.39027e-05 0.108627)
(3.99471e-05 3.99588e-05 0.105315)
(6.20806e-05 6.20565e-05 0.105118)
(-3.98245e-05 -3.98004e-05 0.105236)
(2.03147e-05 3.3208e-05 0.108612)
(-2.05028e-05 3.32973e-05 0.108611)
(1.95016e-05 3.12015e-05 0.108569)
(-1.94144e-05 3.11107e-05 0.108568)
(-6.27382e-05 6.26983e-05 0.105118)
(3.99155e-05 -3.9914e-05 0.105237)
(3.31636e-05 2.02318e-05 0.108613)
(3.3439e-05 -2.09005e-05 0.10861)
(3.11548e-05 1.94917e-05 0.10857)
(3.09597e-05 -1.89504e-05 0.108567)
(-3.31427e-05 -2.01806e-05 0.108611)
(-3.10814e-05 1.93251e-05 0.10857)
(-3.12212e-05 -1.96008e-05 0.108568)
(6.3166e-05 -6.32183e-05 0.105117)
(-4.04215e-05 4.04259e-05 0.105236)
(-2.01061e-05 -3.31093e-05 0.108612)
(1.88539e-05 -3.09186e-05 0.10857)
(-1.95927e-05 -3.11849e-05 0.108569)
(3.96157e-05 3.96479e-05 0.105235)
(5.99612e-05 5.99655e-05 0.105042)
(-4.10931e-05 -4.11213e-05 0.10516)
(1.86926e-05 3.03867e-05 0.108554)
(-1.9103e-05 3.04768e-05 0.108554)
(1.70127e-05 2.8021e-05 0.108511)
(-1.67122e-05 2.79771e-05 0.10851)
(-6.02166e-05 6.01606e-05 0.105042)
(4.15681e-05 -4.15416e-05 0.10516)
(3.0323e-05 1.86874e-05 0.108556)
(3.03362e-05 -1.88465e-05 0.108553)
(2.79907e-05 1.6909e-05 0.108512)
(2.81054e-05 -1.7073e-05 0.108509)
(-3.03386e-05 -1.85487e-05 0.108553)
(-2.79359e-05 1.66632e-05 0.108513)
(-2.80153e-05 -1.70341e-05 0.10851)
(5.97722e-05 -5.98409e-05 0.105042)
(-4.11779e-05 4.12122e-05 0.105159)
(-1.85471e-05 -3.02807e-05 0.108555)
(1.70191e-05 -2.80468e-05 0.108512)
(-1.69366e-05 -2.79941e-05 0.108511)
(4.09969e-05 4.09761e-05 0.105159)
(5.70489e-05 5.69926e-05 0.10497)
(-4.1715e-05 -4.16943e-05 0.105088)
(1.68906e-05 2.73864e-05 0.108496)
(-1.64356e-05 2.72714e-05 0.108495)
(1.52389e-05 2.52578e-05 0.108452)
(-1.55512e-05 2.53311e-05 0.108452)
(-5.64793e-05 5.64497e-05 0.10497)
(4.13495e-05 -4.13411e-05 0.105088)
(2.73738e-05 1.67874e-05 0.108498)
(2.73515e-05 -1.65301e-05 0.108494)
(2.52036e-05 1.52153e-05 0.108454)
(2.52493e-05 -1.53638e-05 0.108451)
(-2.73577e-05 -1.68792e-05 0.108495)
(-2.52985e-05 1.54878e-05 0.108454)
(-2.52512e-05 -1.52943e-05 0.108451)
(5.6618e-05 -5.66559e-05 0.104969)
(-4.14693e-05 4.14848e-05 0.105087)
(-1.67835e-05 -2.73517e-05 0.108497)
(1.52934e-05 -2.52012e-05 0.108453)
(-1.52755e-05 -2.52068e-05 0.108453)
(4.16598e-05 4.16879e-05 0.105087)
(5.41652e-05 5.41698e-05 0.104902)
(-4.18854e-05 -4.18916e-05 0.105019)
(1.4651e-05 2.45091e-05 0.108438)
(-1.49764e-05 2.4623e-05 0.108437)
(1.3793e-05 2.25916e-05 0.108394)
(-1.34604e-05 2.24683e-05 0.108393)
(-5.45482e-05 5.44973e-05 0.104902)
(4.22402e-05 -4.2222e-05 0.10502)
(2.44414e-05 1.46319e-05 0.108439)
(2.45769e-05 -1.49558e-05 0.108436)
(2.25495e-05 1.37387e-05 0.108396)
(2.24679e-05 -1.34833e-05 0.108393)
(-2.45732e-05 -1.48408e-05 0.108437)
(-2.24314e-05 1.34237e-05 0.108396)
(-2.24645e-05 -1.34715e-05 0.108393)
(5.44712e-05 -5.45313e-05 0.104902)
(-4.22129e-05 4.22365e-05 0.105019)
(-1.48271e-05 -2.4514e-05 0.108438)
(1.34405e-05 -2.24274e-05 0.108395)
(-1.34222e-05 -2.24284e-05 0.108395)
(4.22075e-05 4.22071e-05 0.105018)
(5.22634e-05 5.22335e-05 0.104838)
(-4.25428e-05 -4.25496e-05 0.104955)
(1.31987e-05 2.18511e-05 0.10838)
(-1.31223e-05 2.18098e-05 0.108379)
(1.20576e-05 1.98792e-05 0.108336)
(-1.21193e-05 1.9915e-05 0.108336)
(-5.20272e-05 5.19953e-05 0.104838)
(4.24983e-05 -4.25139e-05 0.104955)
(2.18143e-05 1.31372e-05 0.108381)
(2.18025e-05 -1.31074e-05 0.108378)
(1.98388e-05 1.19898e-05 0.108338)
(1.99556e-05 -1.22197e-05 0.108335)
(-2.1731e-05 -1.29826e-05 0.108379)
(-1.9889e-05 1.2025e-05 0.108339)
(-1.99647e-05 -1.23141e-05 0.108336)
(5.19513e-05 -5.19933e-05 0.104837)
(-4.24015e-05 4.23919e-05 0.104954)
(-1.29273e-05 -2.16985e-05 0.10838)
(1.21191e-05 -1.99316e-05 0.108338)
(-1.2251e-05 -1.99342e-05 0.108337)
(4.22794e-05 4.22721e-05 0.104953)
(5.01232e-05 5.01026e-05 0.104777)
(-4.33003e-05 -4.32675e-05 0.104893)
(1.18952e-05 1.93372e-05 0.108322)
(-1.16725e-05 1.92806e-05 0.108322)
(1.03424e-05 1.74229e-05 0.10828)
(-1.04767e-05 1.7447e-05 0.108279)
(-4.99959e-05 4.99281e-05 0.104777)
(4.30731e-05 -4.30264e-05 0.104894)
(1.92941e-05 1.18383e-05 0.108324)
(1.93025e-05 -1.16922e-05 0.108321)
(1.73523e-05 1.03322e-05 0.108282)
(1.73815e-05 -1.03434e-05 0.108279)
(-1.9396e-05 -1.19422e-05 0.108321)
(-1.73822e-05 1.0473e-05 0.108282)
(-1.73208e-05 -1.01175e-05 0.108279)
(5.00071e-05 -5.0085e-05 0.104776)
(-4.31304e-05 4.31814e-05 0.104893)
(-1.18917e-05 -1.93569e-05 0.108323)
(1.03327e-05 -1.73244e-05 0.108281)
(-1.01117e-05 -1.72582e-05 0.108281)
(4.34276e-05 4.34621e-05 0.104892)
(1.67928e-05 -1.01297e-05 0.108265)
(4.78426e-05 -4.78529e-05 0.104719)
(5.69167e-05 5.72927e-05 0.108844)
(-6.13919e-05 6.04309e-05 0.108851)
(5.97168e-05 -6.06851e-05 0.108854)
(-6.02978e-05 -5.98842e-05 0.108854)
(-5.70949e-06 -2.69029e-06 0.0723362)
(6.28264e-05 -0.000102234 0.107828)
(1.11013e-05 -3.43193e-05 0.096027)
(6.69845e-06 2.01766e-05 0.0940155)
(-2.32285e-06 2.44911e-05 0.0835836)
(3.24984e-06 4.35197e-05 0.094071)
(-4.72443e-06 -4.83243e-07 0.0835685)
(-2.87648e-06 5.59203e-06 0.0721692)
(6.25116e-06 7.21615e-07 0.072179)
(2.03939e-05 9.42476e-06 0.0940137)
(2.41693e-05 -1.44021e-06 0.0835833)
(4.35248e-05 4.62352e-06 0.094072)
(-8.03126e-07 -4.12253e-06 0.0835678)
(-5.9326e-05 6.04291e-05 0.108925)
(5.72935e-05 -5.61891e-05 0.108929)
(-5.87441e-05 -5.74312e-05 0.108925)
(6.47229e-05 6.47414e-05 0.109156)
(-5.95989e-05 6.12653e-05 0.109154)
(6.04755e-05 -5.88219e-05 0.109147)
(-6.20766e-05 -6.20315e-05 0.109154)
(-6.06668e-05 4.9611e-06 0.102461)
(-6.18537e-05 1.79475e-05 0.0957202)
(-0.000100756 1.88392e-05 0.108618)
(-9.74992e-05 6.27614e-05 0.108017)
(-0.000106218 5.11298e-06 0.102453)
(-2.43913e-05 6.22972e-06 0.0957181)
(-0.000100522 1.88948e-05 0.108683)
(6.00082e-06 2.28671e-07 0.0721779)
(2.52994e-06 5.82203e-06 0.0721628)
(1.96923e-06 -6.17504e-05 0.102459)
(1.53207e-05 -9.91962e-05 0.108622)
(1.85638e-05 -7.05272e-05 0.0957156)
(4.43096e-05 -8.86572e-05 0.108021)
(4.00937e-06 -0.00010659 0.102455)
(1.16195e-05 -9.78186e-05 0.108683)
(-2.68925e-08 -3.41862e-05 0.0957045)
(-2.40989e-05 -1.57049e-05 0.0894049)
(-1.64066e-05 -2.36831e-05 0.0894041)
(7.03971e-06 8.23273e-06 0.106793)
(-7.83466e-06 -2.66168e-07 0.0893713)
(-7.79891e-07 -7.41855e-06 0.0893678)
(3.02937e-07 1.81217e-05 0.093717)
(1.11705e-06 1.74434e-05 0.0833667)
(2.43082e-06 3.97121e-05 0.0937695)
(-1.56829e-06 -2.82916e-06 0.0833471)
(-2.10552e-06 4.69138e-06 0.0720251)
(2.41528e-06 3.46322e-07 0.072022)
(1.78937e-05 -3.50204e-06 0.0937184)
(1.80446e-05 -5.48535e-08 0.0833659)
(3.95055e-05 1.57264e-07 0.0937673)
(-2.53005e-06 -2.7816e-06 0.0833481)
(-5.77295e-05 5.89054e-05 0.109228)
(6.56686e-05 -6.45055e-05 0.109224)
(-5.73107e-05 -5.88773e-05 0.109228)
(5.66066e-05 5.58188e-05 0.109442)
(-5.93424e-05 5.8614e-05 0.109441)
(6.00645e-05 -6.07931e-05 0.109446)
(-5.79397e-05 -5.87061e-05 0.10944)
(-5.57999e-05 3.34053e-06 0.102191)
(-6.1326e-05 1.51548e-05 0.0954284)
(-9.8875e-05 1.79819e-05 0.108881)
(-9.10402e-05 5.21954e-05 0.108193)
(-9.79909e-05 3.43546e-06 0.102186)
(-2.66139e-05 3.32015e-06 0.0954286)
(-9.81331e-05 1.70408e-05 0.10894)
(1.41947e-05 6.18855e-06 0.0720242)
(-3.19924e-06 2.38167e-06 0.0720333)
(8.55188e-06 -5.39802e-05 0.10219)
(2.57341e-05 -0.00010077 0.108876)
(5.88499e-06 -3.82061e-05 0.0954381)
(7.69116e-05 -9.98136e-05 0.108193)
(3.35258e-06 -9.49493e-05 0.102183)
(2.83329e-05 -0.00010105 0.10894)
(1.11523e-06 -1.9801e-05 0.0954372)
(-3.76158e-05 -9.97055e-06 0.0891449)
(-9.15825e-06 -3.81405e-05 0.0891431)
(2.4051e-05 2.23776e-05 0.106819)
(-1.37354e-05 -2.32629e-06 0.0891259)
(-1.11277e-06 -1.44342e-05 0.0891228)
(-5.08852e-07 1.42719e-05 0.0934478)
(-8.46055e-07 1.81043e-05 0.0831674)
(4.52647e-07 3.57397e-05 0.0934857)
(-3.22328e-06 -2.47142e-06 0.0831594)
(1.52979e-06 7.70139e-06 0.0718895)
(1.09027e-06 -4.12704e-06 0.0719026)
(1.47414e-05 2.22971e-06 0.0934471)
(1.77468e-05 -1.05044e-07 0.0831685)
(3.62368e-05 1.55646e-06 0.0934875)
(-2.73858e-06 -2.25322e-06 0.0831591)
(-6.19324e-05 6.05332e-05 0.109514)
(5.57146e-05 -5.71227e-05 0.109517)
(-6.21977e-05 -6.14721e-05 0.109514)
(5.64863e-05 5.76744e-05 0.109728)
(-5.71425e-05 5.65903e-05 0.109728)
(5.42919e-05 -5.48347e-05 0.109726)
(-5.74664e-05 -5.62492e-05 0.109728)
(-4.78564e-05 3.33594e-06 0.101921)
(-4.38536e-05 1.09048e-05 0.095165)
(-9.97186e-05 1.93811e-05 0.109121)
(-9.47691e-05 6.38559e-05 0.108347)
(-8.81983e-05 3.38587e-06 0.101912)
(-2.29839e-05 1.76781e-06 0.0951677)
(-9.99944e-05 1.93778e-05 0.109182)
(5.92707e-07 -7.95094e-06 0.0718903)
(-4.41076e-06 -1.24708e-06 0.0718947)
(-4.54094e-08 -5.00463e-05 0.101919)
(1.37575e-05 -9.91878e-05 0.109124)
(2.15854e-05 -6.137e-05 0.0951636)
(4.65877e-05 -8.99599e-05 0.108342)
(3.95358e-06 -9.08206e-05 0.101915)
(1.07552e-05 -9.86716e-05 0.109183)
(6.30203e-06 -2.7843e-05 0.0951611)
(-1.48236e-05 -1.77855e-06 0.0889273)
(-2.18761e-06 -1.45955e-05 0.0889272)
(-2.07548e-06 -7.19972e-07 0.106817)
(-1.95803e-05 -1.53041e-06 0.0889131)
(-2.56773e-06 -1.89698e-05 0.0889102)
(8.2701e-07 1.25451e-05 0.0932014)
(-5.61415e-07 1.69583e-05 0.0829873)
(1.44471e-06 3.336e-05 0.0932343)
(-1.7665e-06 -2.25424e-06 0.0829805)
(-5.28984e-06 2.72737e-06 0.0717647)
(1.8778e-06 -2.51584e-06 0.0717751)
(1.23475e-05 3.19662e-07 0.0932012)
(1.69549e-05 -5.37853e-07 0.0829865)
(3.30519e-05 1.3972e-06 0.0932332)
(-2.3141e-06 -1.94311e-06 0.0829806)
(-5.51479e-05 5.50303e-05 0.109796)
(5.57683e-05 -5.5884e-05 0.109795)
(-5.43573e-05 -5.38711e-05 0.109795)
(5.55187e-05 5.52672e-05 0.109998)
(-5.2917e-05 5.31635e-05 0.109997)
(5.44497e-05 -5.4206e-05 0.109998)
(-5.47448e-05 -5.49846e-05 0.109997)
(-4.39616e-05 2.91726e-06 0.101652)
(-5.36458e-05 1.87957e-05 0.0949109)
(-9.80558e-05 1.62511e-05 0.109356)
(-8.77021e-05 5.01745e-05 0.108482)
(-8.51249e-05 2.56705e-06 0.101647)
(-2.28307e-05 4.23971e-06 0.0949137)
(-9.69565e-05 1.53265e-05 0.109409)
(6.41208e-06 -1.23309e-06 0.0717642)
(-2.33567e-06 2.61862e-06 0.0717761)
(3.42408e-06 -4.32599e-05 0.10165)
(1.72163e-05 -9.76431e-05 0.109354)