/*--------------------------------*- C++ -*----------------------------------*\
| =========                 |                                                 |
| \\      /  F ield         | OpenFOAM: The Open Source CFD Toolbox           |
|  \\    /   O peration     | Version:                                        |
|   \\  /    A nd           | Website:  www.openfoam.com                      |
|    \\/     M anipulation  |                                                 |
\*---------------------------------------------------------------------------*/
FoamFile
{
    version     2.0;
    format      ascii;
    class       volScalarField;
    location    "5850.5";
    object      p;
}
// * * * * * * * * * * * * * * * * * * * * * * * * * * * * * * * * * * * * * //

dimensions      [0 2 -2 0 0 0 0];


internalField   nonuniform List<scalar> 
247096
(
1.57779e-07
1.57781e-07
1.57924e-07
1.58011e-07
1.58043e-07
1.58001e-07
1.5791e-07
1.57757e-07
1.57781e-07
1.57979e-07
1.58157e-07
1.58251e-07
1.58275e-07
1.58244e-07
1.58139e-07
1.57955e-07
1.57924e-07
1.58157e-07
1.583e-07
1.58344e-07
1.58351e-07
1.58341e-07
1.58289e-07
1.5813e-07
1.57897e-07
1.58011e-07
1.58251e-07
1.58344e-07
1.58357e-07
1.58356e-07
1.58357e-07
1.58338e-07
1.58229e-07
1.57977e-07
1.57779e-07
1.58043e-07
1.58275e-07
1.58351e-07
1.58356e-07
1.58352e-07
1.58356e-07
1.58347e-07
1.58255e-07
1.58009e-07
1.58001e-07
1.58244e-07
1.58341e-07
1.58357e-07
1.58356e-07
1.58356e-07
1.58336e-07
1.58221e-07
1.57969e-07
1.5791e-07
1.58139e-07
1.58289e-07
1.58338e-07
1.58347e-07
1.58336e-07
1.58278e-07
1.58111e-07
1.57884e-07
1.57757e-07
1.57955e-07
1.5813e-07
1.58229e-07
1.58255e-07
1.58221e-07
1.58111e-07
1.57932e-07
1.57897e-07
1.57977e-07
1.58009e-07
1.57969e-07
1.57884e-07
1.55113e-07
1.55084e-07
1.55095e-07
1.54941e-07
1.54948e-07
1.54963e-07
1.54947e-07
1.55134e-07
1.55087e-07
1.55095e-07
1.54958e-07
1.54785e-07
1.54801e-07
1.54801e-07
1.54785e-07
1.55027e-07
1.54971e-07
1.54941e-07
1.54785e-07
1.54813e-07
1.54827e-07
1.54827e-07
1.54813e-07
1.54785e-07
1.55101e-07
1.55133e-07
1.55113e-07
1.54948e-07
1.54801e-07
1.54827e-07
1.54841e-07
1.54841e-07
1.54827e-07
1.548e-07
1.55128e-07
1.55144e-07
1.55084e-07
1.54963e-07
1.54801e-07
1.54827e-07
1.54841e-07
1.54841e-07
1.54827e-07
1.548e-07
1.5513e-07
1.54975e-07
1.54947e-07
1.54785e-07
1.54813e-07
1.54827e-07
1.54827e-07
1.54813e-07
1.54785e-07
1.55119e-07
1.55151e-07
1.55134e-07
1.55027e-07
1.54785e-07
1.548e-07
1.548e-07
1.54785e-07
1.55123e-07
1.5503e-07
1.55137e-07
1.55087e-07
1.54971e-07
1.55101e-07
1.55128e-07
1.5513e-07
1.55119e-07
1.5503e-07
1.55153e-07
1.55133e-07
1.55144e-07
1.54974e-07
1.55151e-07
1.55137e-07
1.53415e-07
1.53403e-07
1.53414e-07
1.53275e-07
1.53272e-07
1.53281e-07
1.53274e-07
1.53439e-07
1.53408e-07
1.53414e-07
1.53273e-07
1.53053e-07
1.53058e-07
1.53058e-07
1.53053e-07
1.53306e-07
1.53297e-07
1.53275e-07
1.53053e-07
1.53069e-07
1.5307e-07
1.5307e-07
1.53069e-07
1.53053e-07
1.53361e-07
1.53439e-07
1.53415e-07
1.53272e-07
1.53058e-07
1.5307e-07
1.53073e-07
1.53073e-07
1.5307e-07
1.53058e-07
1.53364e-07
1.5343e-07
1.53403e-07
1.53281e-07
1.53058e-07
1.5307e-07
1.53073e-07
1.53073e-07
1.5307e-07
1.53058e-07
1.53361e-07
1.53302e-07
1.53274e-07
1.53053e-07
1.53069e-07
1.5307e-07
1.5307e-07
1.53069e-07
1.53053e-07
1.53362e-07
1.53437e-07
1.53439e-07
1.53306e-07
1.53053e-07
1.53058e-07
1.53058e-07
1.53053e-07
1.53343e-07
1.53327e-07
1.53446e-07
1.53408e-07
1.53297e-07
1.53361e-07
1.53364e-07
1.53361e-07
1.53362e-07
1.53327e-07
1.53453e-07
1.53439e-07
1.5343e-07
1.53302e-07
1.53437e-07
1.53446e-07
1.5176e-07
1.51748e-07
1.51759e-07
1.51619e-07
1.51616e-07
1.51625e-07
1.51619e-07
1.51784e-07
1.51753e-07
1.51759e-07
1.51619e-07
1.51406e-07
1.51407e-07
1.51407e-07
1.51406e-07
1.51654e-07
1.51642e-07
1.51619e-07
1.51406e-07
1.51413e-07
1.51411e-07
1.51411e-07
1.51413e-07
1.51406e-07
1.51709e-07
1.51785e-07
1.5176e-07
1.51616e-07
1.51407e-07
1.51411e-07
1.51411e-07
1.51411e-07
1.51411e-07
1.51407e-07
1.51711e-07
1.51776e-07
1.51748e-07
1.51625e-07
1.51407e-07
1.51411e-07
1.51411e-07
1.51411e-07
1.51411e-07
1.51407e-07
1.51707e-07
1.51647e-07
1.51619e-07
1.51406e-07
1.51413e-07
1.51411e-07
1.51411e-07
1.51413e-07
1.51406e-07
1.51709e-07
1.51783e-07
1.51784e-07
1.51654e-07
1.51406e-07
1.51407e-07
1.51407e-07
1.51406e-07
1.51692e-07
1.51673e-07
1.51791e-07
1.51753e-07
1.51642e-07
1.51709e-07
1.51711e-07
1.51707e-07
1.51709e-07
1.51673e-07
1.51799e-07
1.51785e-07
1.51776e-07
1.51647e-07
1.51783e-07
1.51791e-07
1.50106e-07
1.50094e-07
1.50105e-07
1.49965e-07
1.49962e-07
1.4997e-07
1.49964e-07
1.5013e-07
1.50099e-07
1.50105e-07
1.49965e-07
1.49751e-07
1.49752e-07
1.49752e-07
1.49751e-07
1.5e-07
1.49988e-07
1.49965e-07
1.49751e-07
1.49757e-07
1.49755e-07
1.49755e-07
1.49757e-07
1.49751e-07
1.50056e-07
1.50132e-07
1.50106e-07
1.49962e-07
1.49752e-07
1.49755e-07
1.49754e-07
1.49754e-07
1.49755e-07
1.49752e-07
1.50057e-07
1.50123e-07
1.50094e-07
1.4997e-07
1.49752e-07
1.49755e-07
1.49754e-07
1.49754e-07
1.49755e-07
1.49752e-07
1.50053e-07
1.49993e-07
1.49964e-07
1.49751e-07
1.49757e-07
1.49755e-07
1.49755e-07
1.49757e-07
1.49751e-07
1.50055e-07
1.5013e-07
1.5013e-07
1.5e-07
1.49751e-07
1.49752e-07
1.49752e-07
1.49751e-07
1.50038e-07
1.50019e-07
1.50138e-07
1.50099e-07
1.49988e-07
1.50056e-07
1.50057e-07
1.50053e-07
1.50055e-07
1.50019e-07
1.50145e-07
1.50132e-07
1.50122e-07
1.49993e-07
1.5013e-07
1.50138e-07
1.48448e-07
1.48436e-07
1.48447e-07
1.48306e-07
1.48303e-07
1.48312e-07
1.48306e-07
1.48472e-07
1.48441e-07
1.48447e-07
1.48306e-07
1.48091e-07
1.48092e-07
1.48092e-07
1.48091e-07
1.48341e-07
1.48329e-07
1.48306e-07
1.48091e-07
1.48098e-07
1.48095e-07
1.48095e-07
1.48098e-07
1.48091e-07
1.48397e-07
1.48473e-07
1.48448e-07
1.48303e-07
1.48092e-07
1.48095e-07
1.48094e-07
1.48094e-07
1.48095e-07
1.48092e-07
1.48398e-07
1.48464e-07
1.48436e-07
1.48312e-07
1.48092e-07
1.48095e-07
1.48094e-07
1.48094e-07
1.48095e-07
1.48092e-07
1.48395e-07
1.48335e-07
1.48306e-07
1.48091e-07
1.48097e-07
1.48095e-07
1.48095e-07
1.48097e-07
1.48091e-07
1.48397e-07
1.48471e-07
1.48472e-07
1.48341e-07
1.48091e-07
1.48092e-07
1.48092e-07
1.48091e-07
1.48379e-07
1.48361e-07
1.48479e-07
1.48441e-07
1.48329e-07
1.48397e-07
1.48398e-07
1.48395e-07
1.48397e-07
1.48361e-07
1.48487e-07
1.48473e-07
1.48464e-07
1.48335e-07
1.48471e-07
1.48479e-07
1.46788e-07
1.46777e-07
1.46787e-07
1.46647e-07
1.46643e-07
1.46652e-07
1.46646e-07
1.46813e-07
1.46781e-07
1.46787e-07
1.46647e-07
1.46432e-07
1.46433e-07
1.46433e-07
1.46432e-07
1.46681e-07
1.46669e-07
1.46647e-07
1.46432e-07
1.46438e-07
1.46435e-07
1.46435e-07
1.46438e-07
1.46432e-07
1.46737e-07
1.46814e-07
1.46788e-07
1.46643e-07
1.46433e-07
1.46435e-07
1.46434e-07
1.46434e-07
1.46435e-07
1.46433e-07
1.46738e-07
1.46805e-07
1.46777e-07
1.46652e-07
1.46433e-07
1.46435e-07
1.46434e-07
1.46434e-07
1.46435e-07
1.46433e-07
1.46735e-07
1.46675e-07
1.46646e-07
1.46432e-07
1.46438e-07
1.46435e-07
1.46435e-07
1.46438e-07
1.46432e-07
1.46737e-07
1.46812e-07
1.46813e-07
1.46681e-07
1.46432e-07
1.46433e-07
1.46433e-07
1.46432e-07
1.4672e-07
1.46701e-07
1.4682e-07
1.46781e-07
1.46669e-07
1.46737e-07
1.46738e-07
1.46735e-07
1.46737e-07
1.46701e-07
1.46827e-07
1.46814e-07
1.46805e-07
1.46675e-07
1.46812e-07
1.4682e-07
1.45128e-07
1.45117e-07
1.45127e-07
1.44987e-07
1.44983e-07
1.44992e-07
1.44986e-07
1.45153e-07
1.45121e-07
1.45127e-07
1.44987e-07
1.44772e-07
1.44773e-07
1.44773e-07
1.44772e-07
1.45022e-07
1.4501e-07
1.44987e-07
1.44772e-07
1.44778e-07
1.44775e-07
1.44775e-07
1.44778e-07
1.44772e-07
1.45078e-07
1.45154e-07
1.45128e-07
1.44983e-07
1.44773e-07
1.44775e-07
1.44774e-07
1.44774e-07
1.44775e-07
1.44773e-07
1.45079e-07
1.45145e-07
1.45117e-07
1.44992e-07
1.44773e-07
1.44775e-07
1.44774e-07
1.44774e-07
1.44775e-07
1.44773e-07
1.45075e-07
1.45015e-07
1.44986e-07
1.44772e-07
1.44778e-07
1.44775e-07
1.44775e-07
1.44778e-07
1.44772e-07
1.45077e-07
1.45152e-07
1.45153e-07
1.45022e-07
1.44772e-07
1.44773e-07
1.44773e-07
1.44772e-07
1.4506e-07
1.45041e-07
1.4516e-07
1.45121e-07
1.4501e-07
1.45078e-07
1.45079e-07
1.45075e-07
1.45077e-07
1.45041e-07
1.45167e-07
1.45154e-07
1.45145e-07
1.45015e-07
1.45152e-07
1.4516e-07
1.43469e-07
1.43457e-07
1.43468e-07
1.43327e-07
1.43324e-07
1.43332e-07
1.43327e-07
1.43493e-07
1.43462e-07
1.43468e-07
1.43327e-07
1.43112e-07
1.43113e-07
1.43113e-07
1.43112e-07
1.43362e-07
1.4335e-07
1.43327e-07
1.43112e-07
1.43118e-07
1.43115e-07
1.43115e-07
1.43118e-07
1.43112e-07
1.43418e-07
1.43494e-07
1.43469e-07
1.43324e-07
1.43113e-07
1.43115e-07
1.43114e-07
1.43114e-07
1.43115e-07
1.43113e-07
1.43419e-07
1.43485e-07
1.43457e-07
1.43332e-07
1.43113e-07
1.43115e-07
1.43114e-07
1.43114e-07
1.43115e-07
1.43113e-07
1.43415e-07
1.43356e-07
1.43327e-07
1.43112e-07
1.43118e-07
1.43115e-07
1.43115e-07
1.43118e-07
1.43112e-07
1.43417e-07
1.43492e-07
1.43493e-07
1.43362e-07
1.43112e-07
1.43113e-07
1.43113e-07
1.43112e-07
1.434e-07
1.43382e-07
1.435e-07
1.43462e-07
1.4335e-07
1.43418e-07
1.43419e-07
1.43415e-07
1.43417e-07
1.43382e-07
1.43508e-07
1.43494e-07
1.43485e-07
1.43356e-07
1.43492e-07
1.435e-07
1.41809e-07
1.41797e-07
1.41808e-07
1.41667e-07
1.41664e-07
1.41673e-07
1.41667e-07
1.41833e-07
1.41802e-07
1.41808e-07
1.41667e-07
1.41452e-07
1.41453e-07
1.41453e-07
1.41452e-07
1.41702e-07
1.4169e-07
1.41667e-07
1.41452e-07
1.41458e-07
1.41456e-07
1.41456e-07
1.41458e-07
1.41452e-07
1.41758e-07
1.41834e-07
1.41809e-07
1.41664e-07
1.41453e-07
1.41456e-07
1.41454e-07
1.41454e-07
1.41456e-07
1.41453e-07
1.41759e-07
1.41825e-07
1.41797e-07
1.41673e-07
1.41453e-07
1.41456e-07
1.41454e-07
1.41454e-07
1.41456e-07
1.41453e-07
1.41756e-07
1.41696e-07
1.41667e-07
1.41452e-07
1.41458e-07
1.41456e-07
1.41456e-07
1.41458e-07
1.41452e-07
1.41758e-07
1.41832e-07
1.41833e-07
1.41702e-07
1.41452e-07
1.41453e-07
1.41453e-07
1.41452e-07
1.4174e-07
1.41722e-07
1.41841e-07
1.41802e-07
1.4169e-07
1.41758e-07
1.41759e-07
1.41756e-07
1.41758e-07
1.41722e-07
1.41848e-07
1.41834e-07
1.41825e-07
1.41696e-07
1.41832e-07
1.41841e-07
1.40149e-07
1.40138e-07
1.40148e-07
1.40008e-07
1.40004e-07
1.40013e-07
1.40007e-07
1.40174e-07
1.40142e-07
1.40148e-07
1.40008e-07
1.39793e-07
1.39794e-07
1.39794e-07
1.39793e-07
1.40042e-07
1.4003e-07
1.40008e-07
1.39793e-07
1.39798e-07
1.39796e-07
1.39796e-07
1.39798e-07
1.39793e-07
1.40098e-07
1.40175e-07
1.40149e-07
1.40004e-07
1.39794e-07
1.39796e-07
1.39795e-07
1.39795e-07
1.39796e-07
1.39794e-07
1.40099e-07
1.40166e-07
1.40138e-07
1.40013e-07
1.39794e-07
1.39796e-07
1.39795e-07
1.39795e-07
1.39796e-07
1.39794e-07
1.40096e-07
1.40036e-07
1.40007e-07
1.39793e-07
1.39798e-07
1.39796e-07
1.39796e-07
1.39798e-07
1.39793e-07
1.40098e-07
1.40173e-07
1.40174e-07
1.40042e-07
1.39793e-07
1.39794e-07
1.39794e-07
1.39793e-07
1.40081e-07
1.40062e-07
1.40181e-07
1.40142e-07
1.4003e-07
1.40098e-07
1.40099e-07
1.40096e-07
1.40098e-07
1.40062e-07
1.40188e-07
1.40175e-07
1.40166e-07
1.40036e-07
1.40173e-07
1.40181e-07
1.38489e-07
1.38478e-07
1.38488e-07
1.38348e-07
1.38344e-07
1.38353e-07
1.38347e-07
1.38514e-07
1.38482e-07
1.38488e-07
1.38348e-07
1.38133e-07
1.38134e-07
1.38134e-07
1.38133e-07
1.38383e-07
1.38371e-07
1.38348e-07
1.38133e-07
1.38139e-07
1.38136e-07
1.38136e-07
1.38139e-07
1.38133e-07
1.38439e-07
1.38515e-07
1.38489e-07
1.38344e-07
1.38134e-07
1.38136e-07
1.38135e-07
1.38135e-07
1.38136e-07
1.38134e-07
1.38439e-07
1.38506e-07
1.38478e-07
1.38353e-07
1.38134e-07
1.38136e-07
1.38135e-07
1.38135e-07
1.38136e-07
1.38134e-07
1.38436e-07
1.38376e-07
1.38347e-07
1.38133e-07
1.38139e-07
1.38136e-07
1.38136e-07
1.38139e-07
1.38133e-07
1.38438e-07
1.38513e-07
1.38514e-07
1.38383e-07
1.38133e-07
1.38134e-07
1.38134e-07
1.38133e-07
1.38421e-07
1.38402e-07
1.38521e-07
1.38482e-07
1.38371e-07
1.38439e-07
1.38439e-07
1.38436e-07
1.38438e-07
1.38402e-07
1.38528e-07
1.38515e-07
1.38506e-07
1.38376e-07
1.38513e-07
1.38521e-07
1.3683e-07
1.36818e-07
1.36829e-07
1.36688e-07
1.36685e-07
1.36693e-07
1.36688e-07
1.36854e-07
1.36823e-07
1.36829e-07
1.36688e-07
1.36473e-07
1.36474e-07
1.36474e-07
1.36473e-07
1.36723e-07
1.36711e-07
1.36688e-07
1.36473e-07
1.36479e-07
1.36476e-07
1.36476e-07
1.36479e-07
1.36473e-07
1.36779e-07
1.36855e-07
1.3683e-07
1.36685e-07
1.36474e-07
1.36476e-07
1.36475e-07
1.36475e-07
1.36476e-07
1.36474e-07
1.3678e-07
1.36846e-07
1.36818e-07
1.36693e-07
1.36474e-07
1.36476e-07
1.36475e-07
1.36475e-07
1.36476e-07
1.36474e-07
1.36776e-07
1.36717e-07
1.36688e-07
1.36473e-07
1.36479e-07
1.36476e-07
1.36476e-07
1.36479e-07
1.36473e-07
1.36778e-07
1.36853e-07
1.36854e-07
1.36723e-07
1.36473e-07
1.36474e-07
1.36474e-07
1.36473e-07
1.36761e-07
1.36743e-07
1.36861e-07
1.36823e-07
1.36711e-07
1.36779e-07
1.3678e-07
1.36776e-07
1.36778e-07
1.36743e-07
1.36869e-07
1.36855e-07
1.36846e-07
1.36717e-07
1.36853e-07
1.36861e-07
1.3517e-07
1.35158e-07
1.35169e-07
1.35028e-07
1.35025e-07
1.35034e-07
1.35028e-07
1.35194e-07
1.35163e-07
1.35169e-07
1.35028e-07
1.34813e-07
1.34814e-07
1.34814e-07
1.34813e-07
1.35063e-07
1.35051e-07
1.35028e-07
1.34813e-07
1.34819e-07
1.34817e-07
1.34817e-07
1.34819e-07
1.34813e-07
1.35119e-07
1.35195e-07
1.3517e-07
1.35025e-07
1.34814e-07
1.34817e-07
1.34815e-07
1.34815e-07
1.34817e-07
1.34814e-07
1.3512e-07
1.35186e-07
1.35158e-07
1.35034e-07
1.34814e-07
1.34817e-07
1.34815e-07
1.34815e-07
1.34817e-07
1.34814e-07
1.35117e-07
1.35057e-07
1.35028e-07
1.34813e-07
1.34819e-07
1.34817e-07
1.34817e-07
1.34819e-07
1.34813e-07
1.35119e-07
1.35193e-07
1.35194e-07
1.35063e-07
1.34813e-07
1.34814e-07
1.34814e-07
1.34813e-07
1.35101e-07
1.35083e-07
1.35202e-07
1.35163e-07
1.35051e-07
1.35119e-07
1.3512e-07
1.35117e-07
1.35119e-07
1.35083e-07
1.35209e-07
1.35195e-07
1.35186e-07
1.35057e-07
1.35193e-07
1.35202e-07
1.3351e-07
1.33499e-07
1.33509e-07
1.33369e-07
1.33365e-07
1.33374e-07
1.33368e-07
1.33535e-07
1.33503e-07
1.33509e-07
1.33369e-07
1.33154e-07
1.33155e-07
1.33155e-07
1.33154e-07
1.33403e-07
1.33391e-07
1.33369e-07
1.33154e-07
1.33159e-07
1.33157e-07
1.33157e-07
1.33159e-07
1.33154e-07
1.33459e-07
1.33536e-07
1.3351e-07
1.33365e-07
1.33155e-07
1.33157e-07
1.33156e-07
1.33156e-07
1.33157e-07
1.33155e-07
1.3346e-07
1.33527e-07
1.33499e-07
1.33374e-07
1.33155e-07
1.33157e-07
1.33156e-07
1.33156e-07
1.33157e-07
1.33155e-07
1.33457e-07
1.33397e-07
1.33368e-07
1.33154e-07
1.33159e-07
1.33157e-07
1.33157e-07
1.33159e-07
1.33154e-07
1.33459e-07
1.33534e-07
1.33535e-07
1.33403e-07
1.33154e-07
1.33155e-07
1.33155e-07
1.33154e-07
1.33442e-07
1.33423e-07
1.33542e-07
1.33503e-07
1.33391e-07
1.33459e-07
1.3346e-07
1.33457e-07
1.33459e-07
1.33423e-07
1.33549e-07
1.33536e-07
1.33527e-07
1.33397e-07
1.33534e-07
1.33542e-07
1.3185e-07
1.31839e-07
1.31849e-07
1.31709e-07
1.31706e-07
1.31714e-07
1.31708e-07
1.31875e-07
1.31843e-07
1.31849e-07
1.31709e-07
1.31494e-07
1.31495e-07
1.31495e-07
1.31494e-07
1.31744e-07
1.31732e-07
1.31709e-07
1.31494e-07
1.315e-07
1.31497e-07
1.31497e-07
1.315e-07
1.31494e-07
1.318e-07
1.31876e-07
1.3185e-07
1.31706e-07
1.31495e-07
1.31497e-07
1.31496e-07
1.31496e-07
1.31497e-07
1.31495e-07
1.31801e-07
1.31867e-07
1.31839e-07
1.31714e-07
1.31495e-07
1.31497e-07
1.31496e-07
1.31496e-07
1.31497e-07
1.31495e-07
1.31797e-07
1.31737e-07
1.31708e-07
1.31494e-07
1.315e-07
1.31497e-07
1.31497e-07
1.315e-07
1.31494e-07
1.31799e-07
1.31874e-07
1.31875e-07
1.31744e-07
1.31494e-07
1.31495e-07
1.31495e-07
1.31494e-07
1.31782e-07
1.31763e-07
1.31882e-07
1.31843e-07
1.31732e-07
1.318e-07
1.31801e-07
1.31797e-07
1.31799e-07
1.31763e-07
1.31889e-07
1.31876e-07
1.31867e-07
1.31737e-07
1.31874e-07
1.31882e-07
1.30191e-07
1.30179e-07
1.3019e-07
1.30049e-07
1.30046e-07
1.30054e-07
1.30049e-07
1.30215e-07
1.30184e-07
1.3019e-07
1.30049e-07
1.29834e-07
1.29835e-07
1.29835e-07
1.29834e-07
1.30084e-07
1.30072e-07
1.30049e-07
1.29834e-07
1.2984e-07
1.29837e-07
1.29837e-07
1.2984e-07
1.29834e-07
1.3014e-07
1.30216e-07
1.30191e-07
1.30046e-07
1.29835e-07
1.29837e-07
1.29836e-07
1.29836e-07
1.29837e-07
1.29835e-07
1.30141e-07
1.30207e-07
1.30179e-07
1.30054e-07
1.29835e-07
1.29837e-07
1.29836e-07
1.29836e-07
1.29837e-07
1.29835e-07
1.30137e-07
1.30078e-07
1.30049e-07
1.29834e-07
1.2984e-07
1.29837e-07
1.29837e-07
1.2984e-07
1.29834e-07
1.30139e-07
1.30214e-07
1.30215e-07
1.30084e-07
1.29834e-07
1.29835e-07
1.29835e-07
1.29834e-07
1.30122e-07
1.30104e-07
1.30222e-07
1.30184e-07
1.30072e-07
1.3014e-07
1.30141e-07
1.30137e-07
1.30139e-07
1.30104e-07
1.3023e-07
1.30216e-07
1.30207e-07
1.30078e-07
1.30214e-07
1.30222e-07
1.28531e-07
1.28519e-07
1.2853e-07
1.28389e-07
1.28386e-07
1.28395e-07
1.28389e-07
1.28555e-07
1.28524e-07
1.2853e-07
1.28389e-07
1.28174e-07
1.28175e-07
1.28175e-07
1.28174e-07
1.28424e-07
1.28412e-07
1.28389e-07
1.28174e-07
1.2818e-07
1.28178e-07
1.28178e-07
1.2818e-07
1.28174e-07
1.2848e-07
1.28556e-07
1.28531e-07
1.28386e-07
1.28175e-07
1.28178e-07
1.28176e-07
1.28176e-07
1.28178e-07
1.28175e-07
1.28481e-07
1.28547e-07
1.28519e-07
1.28395e-07
1.28175e-07
1.28178e-07
1.28176e-07
1.28176e-07
1.28178e-07
1.28175e-07
1.28478e-07
1.28418e-07
1.28389e-07
1.28174e-07
1.2818e-07
1.28178e-07
1.28178e-07
1.2818e-07
1.28174e-07
1.2848e-07
1.28554e-07
1.28555e-07
1.28424e-07
1.28174e-07
1.28175e-07
1.28175e-07
1.28174e-07
1.28462e-07
1.28444e-07
1.28563e-07
1.28524e-07
1.28412e-07
1.2848e-07
1.28481e-07
1.28478e-07
1.2848e-07
1.28444e-07
1.2857e-07
1.28556e-07
1.28547e-07
1.28418e-07
1.28554e-07
1.28563e-07
1.26871e-07
1.2686e-07
1.2687e-07
1.2673e-07
1.26726e-07
1.26735e-07
1.26729e-07
1.26896e-07
1.26864e-07
1.2687e-07
1.2673e-07
1.26515e-07
1.26516e-07
1.26516e-07
1.26515e-07
1.26764e-07
1.26752e-07
1.2673e-07
1.26515e-07
1.2652e-07
1.26518e-07
1.26518e-07
1.2652e-07
1.26515e-07
1.2682e-07
1.26897e-07
1.26871e-07
1.26726e-07
1.26516e-07
1.26518e-07
1.26517e-07
1.26517e-07
1.26518e-07
1.26516e-07
1.26821e-07
1.26888e-07
1.26859e-07
1.26735e-07
1.26516e-07
1.26518e-07
1.26517e-07
1.26517e-07
1.26518e-07
1.26516e-07
1.26818e-07
1.26758e-07
1.26729e-07
1.26515e-07
1.2652e-07
1.26518e-07
1.26518e-07
1.2652e-07
1.26515e-07
1.2682e-07
1.26895e-07
1.26896e-07
1.26764e-07
1.26515e-07
1.26516e-07
1.26516e-07
1.26515e-07
1.26803e-07
1.26784e-07
1.26903e-07
1.26864e-07
1.26752e-07
1.2682e-07
1.26821e-07
1.26818e-07
1.2682e-07
1.26784e-07
1.2691e-07
1.26897e-07
1.26888e-07
1.26758e-07
1.26895e-07
1.26903e-07
1.25211e-07
1.252e-07
1.2521e-07
1.2507e-07
1.25066e-07
1.25075e-07
1.25069e-07
1.25236e-07
1.25204e-07
1.2521e-07
1.2507e-07
1.24855e-07
1.24856e-07
1.24856e-07
1.24855e-07
1.25105e-07
1.25093e-07
1.2507e-07
1.24855e-07
1.24861e-07
1.24858e-07
1.24858e-07
1.24861e-07
1.24855e-07
1.25161e-07
1.25237e-07
1.25211e-07
1.25066e-07
1.24856e-07
1.24858e-07
1.24857e-07
1.24857e-07
1.24858e-07
1.24856e-07
1.25161e-07
1.25228e-07
1.252e-07
1.25075e-07
1.24856e-07
1.24858e-07
1.24857e-07
1.24857e-07
1.24858e-07
1.24856e-07
1.25158e-07
1.25098e-07
1.25069e-07
1.24855e-07
1.24861e-07
1.24858e-07
1.24858e-07
1.24861e-07
1.24855e-07
1.2516e-07
1.25235e-07
1.25236e-07
1.25105e-07
1.24855e-07
1.24856e-07
1.24856e-07
1.24855e-07
1.25143e-07
1.25124e-07
1.25243e-07
1.25204e-07
1.25093e-07
1.25161e-07
1.25161e-07
1.25158e-07
1.2516e-07
1.25124e-07
1.2525e-07
1.25237e-07
1.25228e-07
1.25098e-07
1.25235e-07
1.25243e-07
1.23552e-07
1.2354e-07
1.23551e-07
1.2341e-07
1.23407e-07
1.23415e-07
1.2341e-07
1.23576e-07
1.23545e-07
1.23551e-07
1.2341e-07
1.23195e-07
1.23196e-07
1.23196e-07
1.23195e-07
1.23445e-07
1.23433e-07
1.2341e-07
1.23195e-07
1.23201e-07
1.23198e-07
1.23198e-07
1.23201e-07
1.23195e-07
1.23501e-07
1.23577e-07
1.23552e-07
1.23407e-07
1.23196e-07
1.23198e-07
1.23197e-07
1.23197e-07
1.23198e-07
1.23196e-07
1.23502e-07
1.23568e-07
1.2354e-07
1.23415e-07
1.23196e-07
1.23198e-07
1.23197e-07
1.23197e-07
1.23198e-07
1.23196e-07
1.23498e-07
1.23439e-07
1.2341e-07
1.23195e-07
1.23201e-07
1.23198e-07
1.23198e-07
1.23201e-07
1.23195e-07
1.235e-07
1.23575e-07
1.23576e-07
1.23445e-07
1.23195e-07
1.23196e-07
1.23196e-07
1.23195e-07
1.23483e-07
1.23465e-07
1.23583e-07
1.23545e-07
1.23433e-07
1.23501e-07
1.23502e-07
1.23498e-07
1.235e-07
1.23465e-07
1.23591e-07
1.23577e-07
1.23568e-07
1.23439e-07
1.23575e-07
1.23583e-07
1.21892e-07
1.2188e-07
1.21891e-07
1.2175e-07
1.21747e-07
1.21756e-07
1.2175e-07
1.21916e-07
1.21885e-07
1.21891e-07
1.2175e-07
1.21535e-07
1.21536e-07
1.21536e-07
1.21535e-07
1.21785e-07
1.21773e-07
1.2175e-07
1.21535e-07
1.21541e-07
1.21539e-07
1.21539e-07
1.21541e-07
1.21535e-07
1.21841e-07
1.21917e-07
1.21892e-07
1.21747e-07
1.21536e-07
1.21539e-07
1.21537e-07
1.21537e-07
1.21539e-07
1.21536e-07
1.21842e-07
1.21908e-07
1.2188e-07
1.21756e-07
1.21536e-07
1.21539e-07
1.21537e-07
1.21537e-07
1.21539e-07
1.21536e-07
1.21839e-07
1.21779e-07
1.2175e-07
1.21535e-07
1.21541e-07
1.21539e-07
1.21539e-07
1.21541e-07
1.21535e-07
1.21841e-07
1.21915e-07
1.21916e-07
1.21785e-07
1.21535e-07
1.21536e-07
1.21536e-07
1.21535e-07
1.21823e-07
1.21805e-07
1.21924e-07
1.21885e-07
1.21773e-07
1.21841e-07
1.21842e-07
1.21839e-07
1.21841e-07
1.21805e-07
1.21931e-07
1.21917e-07
1.21908e-07
1.21779e-07
1.21915e-07
1.21924e-07
1.20232e-07
1.2022e-07
1.20231e-07
1.20091e-07
1.20087e-07
1.20096e-07
1.2009e-07
1.20257e-07
1.20225e-07
1.20231e-07
1.20091e-07
1.19876e-07
1.19876e-07
1.19876e-07
1.19876e-07
1.20125e-07
1.20113e-07
1.20091e-07
1.19876e-07
1.19881e-07
1.19879e-07
1.19879e-07
1.19881e-07
1.19876e-07
1.20181e-07
1.20258e-07
1.20232e-07
1.20087e-07
1.19876e-07
1.19879e-07
1.19878e-07
1.19878e-07
1.19879e-07
1.19876e-07
1.20182e-07
1.20249e-07
1.2022e-07
1.20096e-07
1.19876e-07
1.19879e-07
1.19878e-07
1.19878e-07
1.19879e-07
1.19876e-07
1.20179e-07
1.20119e-07
1.2009e-07
1.19876e-07
1.19881e-07
1.19879e-07
1.19879e-07
1.19881e-07
1.19876e-07
1.20181e-07
1.20256e-07
1.20257e-07
1.20125e-07
1.19876e-07
1.19876e-07
1.19876e-07
1.19876e-07
1.20164e-07
1.20145e-07
1.20264e-07
1.20225e-07
1.20113e-07
1.20181e-07
1.20182e-07
1.20179e-07
1.20181e-07
1.20145e-07
1.20271e-07
1.20258e-07
1.20249e-07
1.20119e-07
1.20256e-07
1.20264e-07
1.18572e-07
1.18561e-07
1.18571e-07
1.18431e-07
1.18427e-07
1.18436e-07
1.1843e-07
1.18597e-07
1.18565e-07
1.18571e-07
1.18431e-07
1.18216e-07
1.18217e-07
1.18217e-07
1.18216e-07
1.18466e-07
1.18454e-07
1.18431e-07
1.18216e-07
1.18222e-07
1.18219e-07
1.18219e-07
1.18222e-07
1.18216e-07
1.18522e-07
1.18598e-07
1.18572e-07
1.18427e-07
1.18217e-07
1.18219e-07
1.18218e-07
1.18218e-07
1.18219e-07
1.18217e-07
1.18522e-07
1.18589e-07
1.18561e-07
1.18436e-07
1.18217e-07
1.18219e-07
1.18218e-07
1.18218e-07
1.18219e-07
1.18217e-07
1.18519e-07
1.18459e-07
1.1843e-07
1.18216e-07
1.18222e-07
1.18219e-07
1.18219e-07
1.18222e-07
1.18216e-07
1.18521e-07
1.18596e-07
1.18597e-07
1.18466e-07
1.18216e-07
1.18217e-07
1.18217e-07
1.18216e-07
1.18504e-07
1.18485e-07
1.18604e-07
1.18565e-07
1.18454e-07
1.18522e-07
1.18522e-07
1.18519e-07
1.18521e-07
1.18485e-07
1.18611e-07
1.18598e-07
1.18589e-07
1.18459e-07
1.18596e-07
1.18604e-07
1.16913e-07
1.16901e-07
1.16912e-07
1.16771e-07
1.16768e-07
1.16776e-07
1.16771e-07
1.16937e-07
1.16905e-07
1.16912e-07
1.16771e-07
1.16556e-07
1.16557e-07
1.16557e-07
1.16556e-07
1.16806e-07
1.16794e-07
1.16771e-07
1.16556e-07
1.16562e-07
1.16559e-07
1.16559e-07
1.16562e-07
1.16556e-07
1.16862e-07
1.16938e-07
1.16913e-07
1.16768e-07
1.16557e-07
1.16559e-07
1.16558e-07
1.16558e-07
1.16559e-07
1.16557e-07
1.16863e-07
1.16929e-07
1.16901e-07
1.16776e-07
1.16557e-07
1.16559e-07
1.16558e-07
1.16558e-07
1.16559e-07
1.16557e-07
1.16859e-07
1.16799e-07
1.16771e-07
1.16556e-07
1.16562e-07
1.16559e-07
1.16559e-07
1.16562e-07
1.16556e-07
1.16861e-07
1.16936e-07
1.16937e-07
1.16806e-07
1.16556e-07
1.16557e-07
1.16557e-07
1.16556e-07
1.16844e-07
1.16826e-07
1.16944e-07
1.16905e-07
1.16794e-07
1.16862e-07
1.16863e-07
1.16859e-07
1.16861e-07
1.16826e-07
1.16952e-07
1.16938e-07
1.16929e-07
1.16799e-07
1.16936e-07
1.16944e-07
1.15253e-07
1.15241e-07
1.15252e-07
1.15111e-07
1.15108e-07
1.15117e-07
1.15111e-07
1.15277e-07
1.15246e-07
1.15252e-07
1.15111e-07
1.14896e-07
1.14897e-07
1.14897e-07
1.14896e-07
1.15146e-07
1.15134e-07
1.15111e-07
1.14896e-07
1.14902e-07
1.14899e-07
1.14899e-07
1.14902e-07
1.14896e-07
1.15202e-07
1.15278e-07
1.15253e-07
1.15108e-07
1.14897e-07
1.14899e-07
1.14898e-07
1.14898e-07
1.14899e-07
1.14897e-07
1.15203e-07
1.15269e-07
1.15241e-07
1.15117e-07
1.14897e-07
1.14899e-07
1.14898e-07
1.14898e-07
1.14899e-07
1.14897e-07
1.152e-07
1.1514e-07
1.15111e-07
1.14896e-07
1.14902e-07
1.14899e-07
1.14899e-07
1.14902e-07
1.14896e-07
1.15202e-07
1.15276e-07
1.15277e-07
1.15146e-07
1.14896e-07
1.14897e-07
1.14897e-07
1.14896e-07
1.15184e-07
1.15166e-07
1.15284e-07
1.15246e-07
1.15134e-07
1.15202e-07
1.15203e-07
1.152e-07
1.15202e-07
1.15166e-07
1.15292e-07
1.15278e-07
1.15269e-07
1.1514e-07
1.15276e-07
1.15285e-07
1.13593e-07
1.13581e-07
1.13592e-07
1.13452e-07
1.13448e-07
1.13457e-07
1.13451e-07
1.13618e-07
1.13586e-07
1.13592e-07
1.13452e-07
1.13237e-07
1.13237e-07
1.13237e-07
1.13237e-07
1.13486e-07
1.13474e-07
1.13452e-07
1.13237e-07
1.13242e-07
1.1324e-07
1.1324e-07
1.13242e-07
1.13237e-07
1.13542e-07
1.13619e-07
1.13593e-07
1.13448e-07
1.13237e-07
1.1324e-07
1.13239e-07
1.13239e-07
1.1324e-07
1.13237e-07
1.13543e-07
1.1361e-07
1.13581e-07
1.13457e-07
1.13237e-07
1.1324e-07
1.13239e-07
1.13239e-07
1.1324e-07
1.13237e-07
1.1354e-07
1.1348e-07
1.13451e-07
1.13237e-07
1.13242e-07
1.1324e-07
1.1324e-07
1.13242e-07
1.13237e-07
1.13542e-07
1.13617e-07
1.13617e-07
1.13486e-07
1.13237e-07
1.13237e-07
1.13237e-07
1.13237e-07
1.13525e-07
1.13506e-07
1.13625e-07
1.13586e-07
1.13474e-07
1.13542e-07
1.13543e-07
1.1354e-07
1.13542e-07
1.13506e-07
1.13632e-07
1.13619e-07
1.1361e-07
1.1348e-07
1.13617e-07
1.13625e-07
1.11933e-07
1.11922e-07
1.11932e-07
1.11792e-07
1.11788e-07
1.11797e-07
1.11791e-07
1.11958e-07
1.11926e-07
1.11932e-07
1.11792e-07
1.11577e-07
1.11578e-07
1.11578e-07
1.11577e-07
1.11827e-07
1.11815e-07
1.11792e-07
1.11577e-07
1.11583e-07
1.1158e-07
1.1158e-07
1.11583e-07
1.11577e-07
1.11883e-07
1.11959e-07
1.11933e-07
1.11788e-07
1.11578e-07
1.1158e-07
1.11579e-07
1.11579e-07
1.1158e-07
1.11578e-07
1.11883e-07
1.1195e-07
1.11922e-07
1.11797e-07
1.11578e-07
1.1158e-07
1.11579e-07
1.11579e-07
1.1158e-07
1.11578e-07
1.1188e-07
1.1182e-07
1.11791e-07
1.11577e-07
1.11583e-07
1.1158e-07
1.1158e-07
1.11583e-07
1.11577e-07
1.11882e-07
1.11957e-07
1.11958e-07
1.11827e-07
1.11577e-07
1.11578e-07
1.11578e-07
1.11577e-07
1.11865e-07
1.11846e-07
1.11965e-07
1.11926e-07
1.11815e-07
1.11883e-07
1.11883e-07
1.1188e-07
1.11882e-07
1.11846e-07
1.11972e-07
1.11959e-07
1.1195e-07
1.1182e-07
1.11957e-07
1.11965e-07
1.10274e-07
1.10262e-07
1.10273e-07
1.10132e-07
1.10129e-07
1.10137e-07
1.10132e-07
1.10298e-07
1.10266e-07
1.10273e-07
1.10132e-07
1.09917e-07
1.09918e-07
1.09918e-07
1.09917e-07
1.10167e-07
1.10155e-07
1.10132e-07
1.09917e-07
1.09923e-07
1.0992e-07
1.0992e-07
1.09923e-07
1.09917e-07
1.10223e-07
1.10299e-07
1.10274e-07
1.10129e-07
1.09918e-07
1.0992e-07
1.09919e-07
1.09919e-07
1.0992e-07
1.09918e-07
1.10224e-07
1.1029e-07
1.10262e-07
1.10137e-07
1.09918e-07
1.0992e-07
1.09919e-07
1.09919e-07
1.0992e-07
1.09918e-07
1.1022e-07
1.1016e-07
1.10132e-07
1.09917e-07
1.09923e-07
1.0992e-07
1.0992e-07
1.09923e-07
1.09917e-07
1.10222e-07
1.10297e-07
1.10298e-07
1.10167e-07
1.09917e-07
1.09918e-07
1.09918e-07
1.09917e-07
1.10205e-07
1.10187e-07
1.10305e-07
1.10266e-07
1.10155e-07
1.10223e-07
1.10224e-07
1.1022e-07
1.10222e-07
1.10187e-07
1.10313e-07
1.10299e-07
1.1029e-07
1.1016e-07
1.10297e-07
1.10305e-07
1.08614e-07
1.08602e-07
1.08613e-07
1.08472e-07
1.08469e-07
1.08478e-07
1.08472e-07
1.08638e-07
1.08607e-07
1.08613e-07
1.08472e-07
1.08257e-07
1.08258e-07
1.08258e-07
1.08257e-07
1.08507e-07
1.08495e-07
1.08472e-07
1.08257e-07
1.08263e-07
1.08261e-07
1.0826e-07
1.08263e-07
1.08257e-07
1.08563e-07
1.08639e-07
1.08614e-07
1.08469e-07
1.08258e-07
1.0826e-07
1.08259e-07
1.08259e-07
1.08261e-07
1.08258e-07
1.08564e-07
1.0863e-07
1.08602e-07
1.08478e-07
1.08258e-07
1.0826e-07
1.08259e-07
1.08259e-07
1.08261e-07
1.08258e-07
1.08561e-07
1.08501e-07
1.08472e-07
1.08257e-07
1.08263e-07
1.08261e-07
1.0826e-07
1.08263e-07
1.08257e-07
1.08563e-07
1.08637e-07
1.08638e-07
1.08507e-07
1.08257e-07
1.08258e-07
1.08258e-07
1.08257e-07
1.08545e-07
1.08527e-07
1.08645e-07
1.08607e-07
1.08495e-07
1.08563e-07
1.08564e-07
1.08561e-07
1.08563e-07
1.08527e-07
1.08653e-07
1.08639e-07
1.0863e-07
1.08501e-07
1.08637e-07
1.08646e-07
1.06954e-07
1.06942e-07
1.06953e-07
1.06813e-07
1.06809e-07
1.06818e-07
1.06812e-07
1.06978e-07
1.06947e-07
1.06953e-07
1.06813e-07
1.06598e-07
1.06598e-07
1.06598e-07
1.06598e-07
1.06847e-07
1.06835e-07
1.06813e-07
1.06598e-07
1.06603e-07
1.06601e-07
1.06601e-07
1.06603e-07
1.06598e-07
1.06903e-07
1.0698e-07
1.06954e-07
1.06809e-07
1.06598e-07
1.06601e-07
1.066e-07
1.066e-07
1.06601e-07
1.06598e-07
1.06904e-07
1.06971e-07
1.06942e-07
1.06818e-07
1.06598e-07
1.06601e-07
1.066e-07
1.066e-07
1.06601e-07
1.06598e-07
1.06901e-07
1.06841e-07
1.06812e-07
1.06598e-07
1.06603e-07
1.06601e-07
1.06601e-07
1.06603e-07
1.06598e-07
1.06903e-07
1.06978e-07
1.06978e-07
1.06847e-07
1.06598e-07
1.06598e-07
1.06598e-07
1.06598e-07
1.06886e-07
1.06867e-07
1.06986e-07
1.06947e-07
1.06835e-07
1.06903e-07
1.06904e-07
1.06901e-07
1.06903e-07
1.06867e-07
1.06993e-07
1.0698e-07
1.06971e-07
1.06841e-07
1.06978e-07
1.06986e-07
1.05294e-07
1.05283e-07
1.05293e-07
1.05153e-07
1.05149e-07
1.05158e-07
1.05152e-07
1.05319e-07
1.05287e-07
1.05293e-07
1.05153e-07
1.04938e-07
1.04939e-07
1.04939e-07
1.04938e-07
1.05188e-07
1.05176e-07
1.05153e-07
1.04938e-07
1.04944e-07
1.04941e-07
1.04941e-07
1.04944e-07
1.04938e-07
1.05244e-07
1.0532e-07
1.05294e-07
1.05149e-07
1.04939e-07
1.04941e-07
1.0494e-07
1.0494e-07
1.04941e-07
1.04939e-07
1.05244e-07
1.05311e-07
1.05283e-07
1.05158e-07
1.04939e-07
1.04941e-07
1.0494e-07
1.0494e-07
1.04941e-07
1.04939e-07
1.05241e-07
1.05181e-07
1.05152e-07
1.04938e-07
1.04944e-07
1.04941e-07
1.04941e-07
1.04944e-07
1.04938e-07
1.05243e-07
1.05318e-07
1.05319e-07
1.05188e-07
1.04938e-07
1.04939e-07
1.04939e-07
1.04938e-07
1.05226e-07