/*--------------------------------*- C++ -*----------------------------------*\
| =========                 |                                                 |
| \\      /  F ield         | OpenFOAM: The Open Source CFD Toolbox           |
|  \\    /   O peration     | Version:                                        |
|   \\  /    A nd           | Website:  www.openfoam.com                      |
|    \\/     M anipulation  |                                                 |
\*---------------------------------------------------------------------------*/
FoamFile
{
    version     2.0;
    format      ascii;
    class       volScalarField;
    location    "4100.5";
    object      p;
}
// * * * * * * * * * * * * * * * * * * * * * * * * * * * * * * * * * * * * * //

dimensions      [0 2 -2 0 0 0 0];


internalField   nonuniform List<scalar> 
247096
(
1.7893e-07
1.78932e-07
1.79072e-07
1.79158e-07
1.79191e-07
1.79148e-07
1.79059e-07
1.78909e-07
1.78932e-07
1.79126e-07
1.79311e-07
1.7941e-07
1.79435e-07
1.79402e-07
1.79291e-07
1.79102e-07
1.79072e-07
1.79311e-07
1.79461e-07
1.79508e-07
1.79516e-07
1.79505e-07
1.7945e-07
1.79282e-07
1.79045e-07
1.79158e-07
1.7941e-07
1.79508e-07
1.79526e-07
1.79526e-07
1.79525e-07
1.79502e-07
1.79386e-07
1.79124e-07
1.78929e-07
1.79191e-07
1.79435e-07
1.79516e-07
1.79526e-07
1.79524e-07
1.79526e-07
1.79512e-07
1.79414e-07
1.79155e-07
1.79148e-07
1.79402e-07
1.79505e-07
1.79525e-07
1.79526e-07
1.79524e-07
1.79499e-07
1.79378e-07
1.79115e-07
1.79059e-07
1.79291e-07
1.7945e-07
1.79502e-07
1.79512e-07
1.79499e-07
1.79437e-07
1.79262e-07
1.79034e-07
1.78909e-07
1.79102e-07
1.79282e-07
1.79386e-07
1.79413e-07
1.79378e-07
1.79262e-07
1.79079e-07
1.79045e-07
1.79124e-07
1.79155e-07
1.79115e-07
1.79034e-07
1.76364e-07
1.76333e-07
1.76343e-07
1.76189e-07
1.76196e-07
1.76211e-07
1.76196e-07
1.76378e-07
1.76333e-07
1.76343e-07
1.7621e-07
1.76034e-07
1.76042e-07
1.76042e-07
1.76034e-07
1.76286e-07
1.76223e-07
1.76189e-07
1.76034e-07
1.76042e-07
1.7605e-07
1.7605e-07
1.76042e-07
1.76034e-07
1.76368e-07
1.7638e-07
1.76364e-07
1.76196e-07
1.76042e-07
1.7605e-07
1.76059e-07
1.76059e-07
1.7605e-07
1.76042e-07
1.76387e-07
1.76389e-07
1.76333e-07
1.76211e-07
1.76042e-07
1.7605e-07
1.76059e-07
1.76059e-07
1.7605e-07
1.76042e-07
1.76387e-07
1.76226e-07
1.76196e-07
1.76034e-07
1.76042e-07
1.7605e-07
1.7605e-07
1.76042e-07
1.76034e-07
1.76376e-07
1.76395e-07
1.76378e-07
1.76286e-07
1.76034e-07
1.76042e-07
1.76042e-07
1.76034e-07
1.76384e-07
1.76286e-07
1.76384e-07
1.76333e-07
1.76223e-07
1.76368e-07
1.76387e-07
1.76387e-07
1.76376e-07
1.76286e-07
1.76399e-07
1.7638e-07
1.76389e-07
1.76226e-07
1.76395e-07
1.76384e-07
1.74481e-07
1.74469e-07
1.7448e-07
1.74329e-07
1.74327e-07
1.74338e-07
1.74331e-07
1.74502e-07
1.74471e-07
1.7448e-07
1.74333e-07
1.74091e-07
1.74094e-07
1.74094e-07
1.74091e-07
1.74371e-07
1.74355e-07
1.74329e-07
1.74091e-07
1.74103e-07
1.74102e-07
1.74102e-07
1.74103e-07
1.7409e-07
1.74434e-07
1.74505e-07
1.74481e-07
1.74327e-07
1.74094e-07
1.74102e-07
1.74104e-07
1.74104e-07
1.74102e-07
1.74094e-07
1.74436e-07
1.74491e-07
1.74469e-07
1.74338e-07
1.74094e-07
1.74102e-07
1.74104e-07
1.74104e-07
1.74102e-07
1.74094e-07
1.74432e-07
1.74361e-07
1.74331e-07
1.74091e-07
1.74103e-07
1.74102e-07
1.74102e-07
1.74103e-07
1.7409e-07
1.74434e-07
1.74499e-07
1.74502e-07
1.74371e-07
1.7409e-07
1.74094e-07
1.74094e-07
1.7409e-07
1.74413e-07
1.74392e-07
1.74513e-07
1.74471e-07
1.74355e-07
1.74434e-07
1.74436e-07
1.74432e-07
1.74434e-07
1.74392e-07
1.74516e-07
1.74505e-07
1.74491e-07
1.74361e-07
1.74499e-07
1.74513e-07
1.72597e-07
1.72585e-07
1.72596e-07
1.72444e-07
1.72442e-07
1.72453e-07
1.72446e-07
1.7262e-07
1.72587e-07
1.72596e-07
1.72449e-07
1.7221e-07
1.72211e-07
1.72211e-07
1.7221e-07
1.7249e-07
1.72471e-07
1.72444e-07
1.7221e-07
1.72218e-07
1.72215e-07
1.72215e-07
1.72218e-07
1.7221e-07
1.72553e-07
1.72622e-07
1.72597e-07
1.72442e-07
1.72211e-07
1.72215e-07
1.72214e-07
1.72214e-07
1.72215e-07
1.72211e-07
1.72555e-07
1.72609e-07
1.72585e-07
1.72453e-07
1.72211e-07
1.72215e-07
1.72214e-07
1.72214e-07
1.72215e-07
1.72211e-07
1.72551e-07
1.72478e-07
1.72446e-07
1.7221e-07
1.72218e-07
1.72215e-07
1.72215e-07
1.72218e-07
1.7221e-07
1.72553e-07
1.72617e-07
1.7262e-07
1.7249e-07
1.7221e-07
1.72211e-07
1.72211e-07
1.7221e-07
1.72535e-07
1.72509e-07
1.7263e-07
1.72587e-07
1.72471e-07
1.72553e-07
1.72555e-07
1.72551e-07
1.72553e-07
1.72509e-07
1.72634e-07
1.72622e-07
1.72609e-07
1.72478e-07
1.72617e-07
1.7263e-07
1.70712e-07
1.707e-07
1.7071e-07
1.70559e-07
1.70557e-07
1.70568e-07
1.7056e-07
1.70734e-07
1.70701e-07
1.7071e-07
1.70563e-07
1.70324e-07
1.70325e-07
1.70325e-07
1.70324e-07
1.70604e-07
1.70585e-07
1.70559e-07
1.70324e-07
1.70332e-07
1.70329e-07
1.70329e-07
1.70332e-07
1.70324e-07
1.70668e-07
1.70736e-07
1.70712e-07
1.70557e-07
1.70325e-07
1.70329e-07
1.70327e-07
1.70327e-07
1.70329e-07
1.70325e-07
1.70669e-07
1.70723e-07
1.707e-07
1.70568e-07
1.70325e-07
1.70329e-07
1.70327e-07
1.70327e-07
1.70329e-07
1.70325e-07
1.70666e-07
1.70592e-07
1.7056e-07
1.70324e-07
1.70332e-07
1.70329e-07
1.70329e-07
1.70332e-07
1.70324e-07
1.70668e-07
1.70732e-07
1.70734e-07
1.70604e-07
1.70324e-07
1.70325e-07
1.70325e-07
1.70324e-07
1.7065e-07
1.70623e-07
1.70745e-07
1.70701e-07
1.70585e-07
1.70668e-07
1.70669e-07
1.70666e-07
1.70668e-07
1.70623e-07
1.70749e-07
1.70736e-07
1.70723e-07
1.70592e-07
1.70732e-07
1.70745e-07
1.68824e-07
1.68812e-07
1.68822e-07
1.68671e-07
1.68669e-07
1.6868e-07
1.68673e-07
1.68847e-07
1.68814e-07
1.68822e-07
1.68675e-07
1.68436e-07
1.68437e-07
1.68437e-07
1.68436e-07
1.68716e-07
1.68697e-07
1.68671e-07
1.68436e-07
1.68444e-07
1.6844e-07
1.6844e-07
1.68444e-07
1.68436e-07
1.6878e-07
1.68849e-07
1.68824e-07
1.68669e-07
1.68437e-07
1.6844e-07
1.68439e-07
1.68439e-07
1.6844e-07
1.68437e-07
1.68782e-07
1.68836e-07
1.68812e-07
1.6868e-07
1.68437e-07
1.6844e-07
1.68439e-07
1.68439e-07
1.6844e-07
1.68437e-07
1.68778e-07
1.68704e-07
1.68673e-07
1.68436e-07
1.68444e-07
1.6844e-07
1.6844e-07
1.68444e-07
1.68436e-07
1.6878e-07
1.68844e-07
1.68847e-07
1.68716e-07
1.68436e-07
1.68437e-07
1.68437e-07
1.68436e-07
1.68761e-07
1.68735e-07
1.68857e-07
1.68814e-07
1.68697e-07
1.6878e-07
1.68782e-07
1.68778e-07
1.6878e-07
1.68735e-07
1.68861e-07
1.68849e-07
1.68836e-07
1.68704e-07
1.68844e-07
1.68857e-07
1.66936e-07
1.66924e-07
1.66934e-07
1.66783e-07
1.66781e-07
1.66792e-07
1.66784e-07
1.66958e-07
1.66925e-07
1.66934e-07
1.66787e-07
1.66547e-07
1.66549e-07
1.66549e-07
1.66547e-07
1.66828e-07
1.66809e-07
1.66783e-07
1.66547e-07
1.66555e-07
1.66552e-07
1.66552e-07
1.66555e-07
1.66547e-07
1.66892e-07
1.6696e-07
1.66936e-07
1.66781e-07
1.66549e-07
1.66552e-07
1.6655e-07
1.6655e-07
1.66552e-07
1.66549e-07
1.66893e-07
1.66947e-07
1.66924e-07
1.66792e-07
1.66549e-07
1.66552e-07
1.6655e-07
1.6655e-07
1.66552e-07
1.66549e-07
1.6689e-07
1.66816e-07
1.66784e-07
1.66547e-07
1.66555e-07
1.66552e-07
1.66552e-07
1.66555e-07
1.66547e-07
1.66892e-07
1.66956e-07
1.66958e-07
1.66828e-07
1.66547e-07
1.66549e-07
1.66549e-07
1.66547e-07
1.66873e-07
1.66847e-07
1.66969e-07
1.66925e-07
1.66809e-07
1.66892e-07
1.66893e-07
1.6689e-07
1.66892e-07
1.66847e-07
1.66973e-07
1.6696e-07
1.66947e-07
1.66816e-07
1.66956e-07
1.66969e-07
1.65048e-07
1.65036e-07
1.65046e-07
1.64895e-07
1.64892e-07
1.64903e-07
1.64896e-07
1.6507e-07
1.65037e-07
1.65046e-07
1.64899e-07
1.64659e-07
1.6466e-07
1.6466e-07
1.64659e-07
1.64939e-07
1.64921e-07
1.64895e-07
1.64659e-07
1.64667e-07
1.64663e-07
1.64663e-07
1.64667e-07
1.64659e-07
1.65004e-07
1.65072e-07
1.65048e-07
1.64892e-07
1.6466e-07
1.64663e-07
1.64662e-07
1.64662e-07
1.64663e-07
1.6466e-07
1.65005e-07
1.65059e-07
1.65036e-07
1.64903e-07
1.6466e-07
1.64663e-07
1.64662e-07
1.64662e-07
1.64663e-07
1.6466e-07
1.65001e-07
1.64928e-07
1.64896e-07
1.64659e-07
1.64667e-07
1.64663e-07
1.64663e-07
1.64667e-07
1.64659e-07
1.65003e-07
1.65068e-07
1.6507e-07
1.64939e-07
1.64659e-07
1.6466e-07
1.6466e-07
1.64659e-07
1.64985e-07
1.64959e-07
1.65081e-07
1.65037e-07
1.64921e-07
1.65004e-07
1.65005e-07
1.65001e-07
1.65003e-07
1.64959e-07
1.65084e-07
1.65072e-07
1.65059e-07
1.64928e-07
1.65068e-07
1.65081e-07
1.63159e-07
1.63148e-07
1.63158e-07
1.63006e-07
1.63004e-07
1.63015e-07
1.63008e-07
1.63182e-07
1.63149e-07
1.63158e-07
1.6301e-07
1.62771e-07
1.62772e-07
1.62772e-07
1.62771e-07
1.63051e-07
1.63032e-07
1.63006e-07
1.62771e-07
1.62778e-07
1.62775e-07
1.62775e-07
1.62778e-07
1.62771e-07
1.63115e-07
1.63184e-07
1.63159e-07
1.63004e-07
1.62772e-07
1.62775e-07
1.62773e-07
1.62773e-07
1.62775e-07
1.62772e-07
1.63117e-07
1.63171e-07
1.63148e-07
1.63015e-07
1.62772e-07
1.62775e-07
1.62773e-07
1.62773e-07
1.62775e-07
1.62772e-07
1.63113e-07
1.6304e-07
1.63008e-07
1.62771e-07
1.62778e-07
1.62775e-07
1.62775e-07
1.62778e-07
1.62771e-07
1.63115e-07
1.63179e-07
1.63182e-07
1.63051e-07
1.62771e-07
1.62772e-07
1.62772e-07
1.62771e-07
1.63097e-07
1.63071e-07
1.63192e-07
1.63149e-07
1.63032e-07
1.63115e-07
1.63117e-07
1.63113e-07
1.63115e-07
1.63071e-07
1.63196e-07
1.63184e-07
1.63171e-07
1.6304e-07
1.63179e-07
1.63192e-07
1.61271e-07
1.61259e-07
1.61269e-07
1.61118e-07
1.61116e-07
1.61127e-07
1.61119e-07
1.61294e-07
1.61261e-07
1.61269e-07
1.61122e-07
1.60883e-07
1.60884e-07
1.60884e-07
1.60883e-07
1.61163e-07
1.61144e-07
1.61118e-07
1.60883e-07
1.6089e-07
1.60887e-07
1.60887e-07
1.6089e-07
1.60883e-07
1.61227e-07
1.61296e-07
1.61271e-07
1.61116e-07
1.60884e-07
1.60887e-07
1.60885e-07
1.60885e-07
1.60887e-07
1.60884e-07
1.61228e-07
1.61283e-07
1.61259e-07
1.61127e-07
1.60884e-07
1.60887e-07
1.60885e-07
1.60885e-07
1.60887e-07
1.60884e-07
1.61225e-07
1.61151e-07
1.61119e-07
1.60883e-07
1.6089e-07
1.60887e-07
1.60887e-07
1.6089e-07
1.60883e-07
1.61227e-07
1.61291e-07
1.61294e-07
1.61163e-07
1.60883e-07
1.60884e-07
1.60884e-07
1.60883e-07
1.61208e-07
1.61182e-07
1.61304e-07
1.61261e-07
1.61144e-07
1.61227e-07
1.61228e-07
1.61225e-07
1.61227e-07
1.61182e-07
1.61308e-07
1.61296e-07
1.61283e-07
1.61151e-07
1.61291e-07
1.61304e-07
1.59383e-07
1.59371e-07
1.59381e-07
1.5923e-07
1.59227e-07
1.59238e-07
1.59231e-07
1.59405e-07
1.59372e-07
1.59381e-07
1.59234e-07
1.58994e-07
1.58995e-07
1.58995e-07
1.58994e-07
1.59275e-07
1.59256e-07
1.5923e-07
1.58994e-07
1.59002e-07
1.58998e-07
1.58998e-07
1.59002e-07
1.58994e-07
1.59339e-07
1.59407e-07
1.59383e-07
1.59227e-07
1.58995e-07
1.58998e-07
1.58997e-07
1.58997e-07
1.58998e-07
1.58995e-07
1.5934e-07
1.59394e-07
1.59371e-07
1.59238e-07
1.58995e-07
1.58998e-07
1.58997e-07
1.58997e-07
1.58998e-07
1.58995e-07
1.59336e-07
1.59263e-07
1.59231e-07
1.58994e-07
1.59002e-07
1.58998e-07
1.58998e-07
1.59002e-07
1.58994e-07
1.59339e-07
1.59403e-07
1.59405e-07
1.59275e-07
1.58994e-07
1.58995e-07
1.58995e-07
1.58994e-07
1.5932e-07
1.59294e-07
1.59416e-07
1.59372e-07
1.59256e-07
1.59339e-07
1.5934e-07
1.59336e-07
1.59339e-07
1.59294e-07
1.5942e-07
1.59407e-07
1.59394e-07
1.59263e-07
1.59403e-07
1.59416e-07
1.57495e-07
1.57483e-07
1.57493e-07
1.57341e-07
1.57339e-07
1.5735e-07
1.57343e-07
1.57517e-07
1.57484e-07
1.57493e-07
1.57346e-07
1.57106e-07
1.57107e-07
1.57107e-07
1.57106e-07
1.57386e-07
1.57367e-07
1.57341e-07
1.57106e-07
1.57114e-07
1.5711e-07
1.5711e-07
1.57114e-07
1.57106e-07
1.57451e-07
1.57519e-07
1.57495e-07
1.57339e-07
1.57107e-07
1.5711e-07
1.57109e-07
1.57109e-07
1.5711e-07
1.57107e-07
1.57452e-07
1.57506e-07
1.57483e-07
1.5735e-07
1.57107e-07
1.5711e-07
1.57109e-07
1.57109e-07
1.5711e-07
1.57107e-07
1.57448e-07
1.57375e-07
1.57343e-07
1.57106e-07
1.57114e-07
1.5711e-07
1.5711e-07
1.57114e-07
1.57106e-07
1.5745e-07
1.57515e-07
1.57517e-07
1.57386e-07
1.57106e-07
1.57107e-07
1.57107e-07
1.57106e-07
1.57432e-07
1.57406e-07
1.57528e-07
1.57484e-07
1.57367e-07
1.57451e-07
1.57452e-07
1.57448e-07
1.5745e-07
1.57406e-07
1.57531e-07
1.57519e-07
1.57506e-07
1.57375e-07
1.57515e-07
1.57528e-07
1.55606e-07
1.55594e-07
1.55605e-07
1.55453e-07
1.55451e-07
1.55462e-07
1.55455e-07
1.55629e-07
1.55596e-07
1.55605e-07
1.55457e-07
1.55218e-07
1.55219e-07
1.55219e-07
1.55218e-07
1.55498e-07
1.55479e-07
1.55453e-07
1.55218e-07
1.55225e-07
1.55222e-07
1.55222e-07
1.55225e-07
1.55218e-07
1.55562e-07
1.55631e-07
1.55606e-07
1.55451e-07
1.55219e-07
1.55222e-07
1.5522e-07
1.5522e-07
1.55222e-07
1.55219e-07
1.55564e-07
1.55618e-07
1.55594e-07
1.55462e-07
1.55219e-07
1.55222e-07
1.5522e-07
1.5522e-07
1.55222e-07
1.55219e-07
1.5556e-07
1.55486e-07
1.55455e-07
1.55218e-07
1.55225e-07
1.55222e-07
1.55222e-07
1.55225e-07
1.55218e-07
1.55562e-07
1.55626e-07
1.55629e-07
1.55498e-07
1.55218e-07
1.55219e-07
1.55219e-07
1.55218e-07
1.55544e-07
1.55517e-07
1.55639e-07
1.55596e-07
1.55479e-07
1.55562e-07
1.55564e-07
1.5556e-07
1.55562e-07
1.55517e-07
1.55643e-07
1.55631e-07
1.55618e-07
1.55486e-07
1.55626e-07
1.55639e-07
1.53718e-07
1.53706e-07
1.53716e-07
1.53565e-07
1.53563e-07
1.53574e-07
1.53566e-07
1.53741e-07
1.53707e-07
1.53716e-07
1.53569e-07
1.53329e-07
1.53331e-07
1.53331e-07
1.53329e-07
1.5361e-07
1.53591e-07
1.53565e-07
1.53329e-07
1.53337e-07
1.53334e-07
1.53334e-07
1.53337e-07
1.53329e-07
1.53674e-07
1.53743e-07
1.53718e-07
1.53563e-07
1.53331e-07
1.53334e-07
1.53332e-07
1.53332e-07
1.53334e-07
1.53331e-07
1.53675e-07
1.5373e-07
1.53706e-07
1.53574e-07
1.53331e-07
1.53334e-07
1.53332e-07
1.53332e-07
1.53334e-07
1.53331e-07
1.53672e-07
1.53598e-07
1.53566e-07
1.53329e-07
1.53337e-07
1.53334e-07
1.53334e-07
1.53337e-07
1.53329e-07
1.53674e-07
1.53738e-07
1.53741e-07
1.5361e-07
1.53329e-07
1.53331e-07
1.53331e-07
1.53329e-07
1.53655e-07
1.53629e-07
1.53751e-07
1.53707e-07
1.53591e-07
1.53674e-07
1.53675e-07
1.53672e-07
1.53674e-07
1.53629e-07
1.53755e-07
1.53743e-07
1.5373e-07
1.53598e-07
1.53738e-07
1.53751e-07
1.5183e-07
1.51818e-07
1.51828e-07
1.51677e-07
1.51674e-07
1.51685e-07
1.51678e-07
1.51852e-07
1.51819e-07
1.51828e-07
1.51681e-07
1.51441e-07
1.51442e-07
1.51442e-07
1.51441e-07
1.51722e-07
1.51703e-07
1.51677e-07
1.51441e-07
1.51449e-07
1.51445e-07
1.51445e-07
1.51449e-07
1.51441e-07
1.51786e-07
1.51854e-07
1.5183e-07
1.51674e-07
1.51442e-07
1.51445e-07
1.51444e-07
1.51444e-07
1.51445e-07
1.51442e-07
1.51787e-07
1.51841e-07
1.51818e-07
1.51685e-07
1.51442e-07
1.51445e-07
1.51444e-07
1.51444e-07
1.51445e-07
1.51442e-07
1.51783e-07
1.5171e-07
1.51678e-07
1.51441e-07
1.51449e-07
1.51445e-07
1.51445e-07
1.51449e-07
1.51441e-07
1.51785e-07
1.5185e-07
1.51852e-07
1.51722e-07
1.51441e-07
1.51442e-07
1.51442e-07
1.51441e-07
1.51767e-07
1.51741e-07
1.51863e-07
1.51819e-07
1.51703e-07
1.51786e-07
1.51787e-07
1.51783e-07
1.51785e-07
1.51741e-07
1.51867e-07
1.51854e-07
1.51841e-07
1.5171e-07
1.5185e-07
1.51863e-07
1.49942e-07
1.4993e-07
1.4994e-07
1.49788e-07
1.49786e-07
1.49797e-07
1.4979e-07
1.49964e-07
1.49931e-07
1.4994e-07
1.49792e-07
1.49553e-07
1.49554e-07
1.49554e-07
1.49553e-07
1.49833e-07
1.49814e-07
1.49788e-07
1.49553e-07
1.49561e-07
1.49557e-07
1.49557e-07
1.49561e-07
1.49553e-07
1.49897e-07
1.49966e-07
1.49942e-07
1.49786e-07
1.49554e-07
1.49557e-07
1.49555e-07
1.49555e-07
1.49557e-07
1.49554e-07
1.49899e-07
1.49953e-07
1.4993e-07
1.49797e-07
1.49554e-07
1.49557e-07
1.49555e-07
1.49555e-07
1.49557e-07
1.49554e-07
1.49895e-07
1.49822e-07
1.4979e-07
1.49553e-07
1.49561e-07
1.49557e-07
1.49557e-07
1.49561e-07
1.49553e-07
1.49897e-07
1.49961e-07
1.49964e-07
1.49833e-07
1.49553e-07
1.49554e-07
1.49554e-07
1.49553e-07
1.49879e-07
1.49853e-07
1.49974e-07
1.49931e-07
1.49814e-07
1.49897e-07
1.49899e-07
1.49895e-07
1.49897e-07
1.49853e-07
1.49978e-07
1.49966e-07
1.49953e-07
1.49822e-07
1.49961e-07
1.49974e-07
1.48053e-07
1.48041e-07
1.48051e-07
1.479e-07
1.47898e-07
1.47909e-07
1.47902e-07
1.48076e-07
1.48043e-07
1.48051e-07
1.47904e-07
1.47665e-07
1.47666e-07
1.47666e-07
1.47665e-07
1.47945e-07
1.47926e-07
1.479e-07
1.47665e-07
1.47672e-07
1.47669e-07
1.47669e-07
1.47672e-07
1.47665e-07
1.48009e-07
1.48078e-07
1.48053e-07
1.47898e-07
1.47666e-07
1.47669e-07
1.47667e-07
1.47667e-07
1.47669e-07
1.47666e-07
1.48011e-07
1.48065e-07
1.48041e-07
1.47909e-07
1.47666e-07
1.47669e-07
1.47667e-07
1.47667e-07
1.47669e-07
1.47666e-07
1.48007e-07
1.47933e-07
1.47902e-07
1.47665e-07
1.47672e-07
1.47669e-07
1.47669e-07
1.47672e-07
1.47665e-07
1.48009e-07
1.48073e-07
1.48076e-07
1.47945e-07
1.47665e-07
1.47666e-07
1.47666e-07
1.47665e-07
1.4799e-07
1.47964e-07
1.48086e-07
1.48043e-07
1.47926e-07
1.48009e-07
1.48011e-07
1.48007e-07
1.48009e-07
1.47964e-07
1.4809e-07
1.48078e-07
1.48065e-07
1.47933e-07
1.48073e-07
1.48086e-07
1.46165e-07
1.46153e-07
1.46163e-07
1.46012e-07
1.4601e-07
1.46021e-07
1.46013e-07
1.46187e-07
1.46154e-07
1.46163e-07
1.46016e-07
1.45776e-07
1.45778e-07
1.45778e-07
1.45776e-07
1.46057e-07
1.46038e-07
1.46012e-07
1.45776e-07
1.45784e-07
1.4578e-07
1.4578e-07
1.45784e-07
1.45776e-07
1.46121e-07
1.46189e-07
1.46165e-07
1.4601e-07
1.45778e-07
1.4578e-07
1.45779e-07
1.45779e-07
1.4578e-07
1.45778e-07
1.46122e-07
1.46176e-07
1.46153e-07
1.46021e-07
1.45778e-07
1.4578e-07
1.45779e-07
1.45779e-07
1.4578e-07
1.45778e-07
1.46119e-07
1.46045e-07
1.46013e-07
1.45776e-07
1.45784e-07
1.4578e-07
1.4578e-07
1.45784e-07
1.45776e-07
1.46121e-07
1.46185e-07
1.46187e-07
1.46057e-07
1.45776e-07
1.45778e-07
1.45778e-07
1.45776e-07
1.46102e-07
1.46076e-07
1.46198e-07
1.46154e-07
1.46038e-07
1.46121e-07
1.46122e-07
1.46119e-07
1.46121e-07
1.46076e-07
1.46202e-07
1.46189e-07
1.46176e-07
1.46045e-07
1.46185e-07
1.46198e-07
1.44277e-07
1.44265e-07
1.44275e-07
1.44124e-07
1.44121e-07
1.44132e-07
1.44125e-07
1.44299e-07
1.44266e-07
1.44275e-07
1.44128e-07
1.43888e-07
1.43889e-07
1.43889e-07
1.43888e-07
1.44168e-07
1.4415e-07
1.44124e-07
1.43888e-07
1.43896e-07
1.43892e-07
1.43892e-07
1.43896e-07
1.43888e-07
1.44233e-07
1.44301e-07
1.44277e-07
1.44121e-07
1.43889e-07
1.43892e-07
1.43891e-07
1.43891e-07
1.43892e-07
1.43889e-07
1.44234e-07
1.44288e-07
1.44265e-07
1.44132e-07
1.43889e-07
1.43892e-07
1.43891e-07
1.43891e-07
1.43892e-07
1.43889e-07
1.4423e-07
1.44157e-07
1.44125e-07
1.43888e-07
1.43896e-07
1.43892e-07
1.43892e-07
1.43896e-07
1.43888e-07
1.44232e-07
1.44297e-07
1.44299e-07
1.44168e-07
1.43888e-07
1.43889e-07
1.43889e-07
1.43888e-07
1.44214e-07
1.44188e-07
1.4431e-07
1.44266e-07
1.4415e-07
1.44233e-07
1.44234e-07
1.4423e-07
1.44232e-07
1.44188e-07
1.44313e-07
1.44301e-07
1.44288e-07
1.44157e-07
1.44297e-07
1.4431e-07
1.42388e-07
1.42377e-07
1.42387e-07
1.42235e-07
1.42233e-07
1.42244e-07
1.42237e-07
1.42411e-07
1.42378e-07
1.42387e-07
1.42239e-07
1.42e-07
1.42001e-07
1.42001e-07
1.42e-07
1.4228e-07
1.42261e-07
1.42235e-07
1.42e-07
1.42007e-07
1.42004e-07
1.42004e-07
1.42007e-07
1.42e-07
1.42344e-07
1.42413e-07
1.42388e-07
1.42233e-07
1.42001e-07
1.42004e-07
1.42002e-07
1.42002e-07
1.42004e-07
1.42001e-07
1.42346e-07
1.424e-07
1.42377e-07
1.42244e-07
1.42001e-07
1.42004e-07
1.42002e-07
1.42002e-07
1.42004e-07
1.42001e-07
1.42342e-07
1.42269e-07
1.42237e-07
1.42e-07
1.42007e-07
1.42004e-07
1.42004e-07
1.42007e-07
1.42e-07
1.42344e-07
1.42408e-07
1.42411e-07
1.4228e-07
1.42e-07
1.42001e-07
1.42001e-07
1.42e-07
1.42326e-07
1.423e-07
1.42421e-07
1.42378e-07
1.42261e-07
1.42344e-07
1.42346e-07
1.42342e-07
1.42344e-07
1.423e-07
1.42425e-07
1.42413e-07
1.424e-07
1.42269e-07
1.42408e-07
1.42421e-07
1.405e-07
1.40488e-07
1.40498e-07
1.40347e-07
1.40345e-07
1.40356e-07
1.40348e-07
1.40523e-07
1.4049e-07
1.40498e-07
1.40351e-07
1.40112e-07
1.40113e-07
1.40113e-07
1.40112e-07
1.40392e-07
1.40373e-07
1.40347e-07
1.40112e-07
1.40119e-07
1.40116e-07
1.40116e-07
1.40119e-07
1.40112e-07
1.40456e-07
1.40525e-07
1.405e-07
1.40345e-07
1.40113e-07
1.40116e-07
1.40114e-07
1.40114e-07
1.40116e-07
1.40113e-07
1.40457e-07
1.40512e-07
1.40488e-07
1.40356e-07
1.40113e-07
1.40116e-07
1.40114e-07
1.40114e-07
1.40116e-07
1.40113e-07
1.40454e-07
1.4038e-07
1.40348e-07
1.40112e-07
1.40119e-07
1.40116e-07
1.40116e-07
1.40119e-07
1.40112e-07
1.40456e-07
1.4052e-07
1.40523e-07
1.40392e-07
1.40112e-07
1.40113e-07
1.40113e-07
1.40112e-07
1.40437e-07
1.40411e-07
1.40533e-07
1.4049e-07
1.40373e-07
1.40456e-07
1.40457e-07
1.40454e-07
1.40456e-07
1.40411e-07
1.40537e-07
1.40525e-07
1.40512e-07
1.4038e-07
1.4052e-07
1.40533e-07
1.38612e-07
1.386e-07
1.3861e-07
1.38459e-07
1.38456e-07
1.38467e-07
1.3846e-07
1.38634e-07
1.38601e-07
1.3861e-07
1.38463e-07
1.38223e-07
1.38224e-07
1.38224e-07
1.38223e-07
1.38504e-07
1.38485e-07
1.38459e-07
1.38223e-07
1.38231e-07
1.38227e-07
1.38227e-07
1.38231e-07
1.38223e-07
1.38568e-07
1.38636e-07
1.38612e-07
1.38456e-07
1.38224e-07
1.38227e-07
1.38226e-07
1.38226e-07
1.38227e-07
1.38224e-07
1.38569e-07
1.38623e-07
1.386e-07
1.38467e-07
1.38224e-07
1.38227e-07
1.38226e-07
1.38226e-07
1.38227e-07
1.38224e-07
1.38565e-07
1.38492e-07
1.3846e-07
1.38223e-07
1.38231e-07
1.38227e-07
1.38227e-07
1.38231e-07
1.38223e-07
1.38568e-07
1.38632e-07
1.38634e-07
1.38504e-07
1.38223e-07
1.38224e-07
1.38224e-07
1.38223e-07
1.38549e-07
1.38523e-07
1.38645e-07
1.38601e-07
1.38485e-07
1.38568e-07
1.38569e-07
1.38565e-07
1.38568e-07
1.38523e-07
1.38649e-07
1.38636e-07
1.38623e-07
1.38492e-07
1.38632e-07
1.38645e-07
1.36724e-07
1.36712e-07
1.36722e-07
1.3657e-07
1.36568e-07
1.36579e-07
1.36572e-07
1.36746e-07
1.36713e-07
1.36722e-07
1.36575e-07
1.36335e-07
1.36336e-07
1.36336e-07
1.36335e-07
1.36615e-07
1.36596e-07
1.3657e-07
1.36335e-07
1.36343e-07
1.36339e-07
1.36339e-07
1.36343e-07
1.36335e-07
1.3668e-07
1.36748e-07
1.36724e-07
1.36568e-07
1.36336e-07
1.36339e-07
1.36338e-07
1.36338e-07
1.36339e-07
1.36336e-07
1.36681e-07
1.36735e-07
1.36712e-07
1.36579e-07
1.36336e-07
1.36339e-07
1.36338e-07
1.36338e-07
1.36339e-07
1.36336e-07
1.36677e-07
1.36604e-07
1.36572e-07
1.36335e-07
1.36343e-07
1.36339e-07
1.36339e-07
1.36343e-07
1.36335e-07
1.36679e-07
1.36744e-07
1.36746e-07
1.36615e-07
1.36335e-07
1.36336e-07
1.36336e-07
1.36335e-07
1.36661e-07
1.36635e-07
1.36757e-07
1.36713e-07
1.36596e-07
1.3668e-07
1.36681e-07
1.36677e-07
1.36679e-07
1.36635e-07
1.3676e-07
1.36748e-07
1.36735e-07
1.36604e-07
1.36744e-07
1.36757e-07
1.34835e-07
1.34823e-07
1.34834e-07
1.34682e-07
1.3468e-07
1.34691e-07
1.34684e-07
1.34858e-07
1.34825e-07
1.34834e-07
1.34686e-07
1.34447e-07
1.34448e-07
1.34448e-07
1.34447e-07
1.34727e-07
1.34708e-07
1.34682e-07
1.34447e-07
1.34454e-07
1.34451e-07
1.34451e-07
1.34454e-07
1.34447e-07
1.34791e-07
1.3486e-07
1.34835e-07
1.3468e-07
1.34448e-07
1.34451e-07
1.34449e-07
1.34449e-07
1.34451e-07
1.34448e-07
1.34793e-07
1.34847e-07
1.34823e-07
1.34691e-07
1.34448e-07
1.34451e-07
1.34449e-07
1.34449e-07
1.34451e-07
1.34448e-07
1.34789e-07
1.34715e-07
1.34684e-07
1.34447e-07
1.34454e-07
1.34451e-07
1.34451e-07
1.34454e-07
1.34447e-07
1.34791e-07
1.34855e-07
1.34858e-07
1.34727e-07
1.34447e-07
1.34448e-07
1.34448e-07
1.34447e-07
1.34773e-07
1.34746e-07
1.34868e-07
1.34825e-07
1.34708e-07
1.34791e-07
1.34793e-07
1.34789e-07
1.34791e-07
1.34746e-07
1.34872e-07
1.3486e-07
1.34847e-07
1.34715e-07
1.34855e-07
1.34868e-07
1.32947e-07
1.32935e-07
1.32945e-07
1.32794e-07
1.32792e-07
1.32803e-07
1.32795e-07
1.3297e-07
1.32936e-07
1.32945e-07
1.32798e-07
1.32558e-07
1.3256e-07
1.3256e-07
1.32558e-07
1.32839e-07
1.3282e-07
1.32794e-07
1.32558e-07
1.32566e-07
1.32563e-07
1.32563e-07
1.32566e-07
1.32558e-07
1.32903e-07
1.32972e-07
1.32947e-07
1.32792e-07
1.3256e-07
1.32563e-07
1.32561e-07
1.32561e-07
1.32563e-07
1.3256e-07
1.32904e-07
1.32959e-07
1.32935e-07
1.32803e-07
1.3256e-07
1.32563e-07
1.32561e-07
1.32561e-07
1.32563e-07
1.3256e-07
1.32901e-07
1.32827e-07
1.32795e-07
1.32558e-07
1.32566e-07
1.32563e-07
1.32563e-07
1.32566e-07
1.32558e-07
1.32903e-07
1.32967e-07
1.3297e-07
1.32839e-07
1.32558e-07
1.3256e-07
1.3256e-07
1.32558e-07
1.32884e-07
1.32858e-07
1.3298e-07
1.32936e-07
1.3282e-07
1.32903e-07
1.32904e-07
1.32901e-07
1.32903e-07
1.32858e-07
1.32984e-07
1.32972e-07
1.32959e-07
1.32827e-07
1.32967e-07
1.3298e-07
1.31059e-07
1.31047e-07
1.31057e-07
1.30906e-07
1.30903e-07
1.30914e-07
1.30907e-07
1.31081e-07
1.31048e-07
1.31057e-07
1.3091e-07
1.3067e-07
1.30671e-07
1.30671e-07
1.3067e-07
1.30951e-07
1.30932e-07
1.30906e-07
1.3067e-07
1.30678e-07
1.30674e-07
1.30674e-07
1.30678e-07
1.3067e-07
1.31015e-07
1.31083e-07
1.31059e-07
1.30903e-07
1.30671e-07
1.30674e-07
1.30673e-07
1.30673e-07
1.30674e-07
1.30671e-07
1.31016e-07
1.3107e-07
1.31047e-07
1.30914e-07
1.30671e-07
1.30674e-07
1.30673e-07
1.30673e-07
1.30674e-07
1.30671e-07
1.31012e-07
1.30939e-07
1.30907e-07
1.3067e-07
1.30678e-07
1.30674e-07
1.30674e-07
1.30678e-07
1.3067e-07
1.31014e-07
1.31079e-07
1.31081e-07
1.30951e-07
1.3067e-07
1.30671e-07
1.30671e-07
1.3067e-07
1.30996e-07
1.3097e-07
1.31092e-07
1.31048e-07
1.30932e-07
1.31015e-07
1.31016e-07
1.31012e-07
1.31014e-07
1.3097e-07
1.31096e-07
1.31083e-07
1.3107e-07
1.30939e-07
1.31079e-07
1.31092e-07
1.29171e-07
1.29159e-07
1.29169e-07
1.29017e-07
1.29015e-07
1.29026e-07
1.29019e-07
1.29193e-07
1.2916e-07
1.29169e-07
1.29021e-07
1.28782e-07
1.28783e-07
1.28783e-07
1.28782e-07
1.29062e-07
1.29043e-07
1.29017e-07
1.28782e-07
1.2879e-07
1.28786e-07
1.28786e-07
1.2879e-07
1.28782e-07
1.29126e-07
1.29195e-07
1.29171e-07
1.29015e-07
1.28783e-07
1.28786e-07
1.28784e-07
1.28784e-07
1.28786e-07
1.28783e-07
1.29128e-07
1.29182e-07
1.29159e-07
1.29026e-07
1.28783e-07
1.28786e-07
1.28784e-07
1.28784e-07
1.28786e-07
1.28783e-07
1.29124e-07
1.29051e-07
1.29019e-07
1.28782e-07
1.2879e-07
1.28786e-07
1.28786e-07
1.2879e-07
1.28782e-07
1.29126e-07
1.2919e-07
1.29193e-07
1.29062e-07
1.28782e-07
1.28783e-07
1.28783e-07
1.28782e-07
1.29108e-07
1.29082e-07
1.29203e-07
1.2916e-07
1.29043e-07
1.29126e-07
1.29128e-07
1.29124e-07
1.29126e-07
1.29082e-07
1.29207e-07
1.29195e-07
1.29182e-07
1.29051e-07
1.2919e-07
1.29203e-07
1.27282e-07
1.2727e-07
1.2728e-07
1.27129e-07
1.27127e-07
1.27138e-07
1.27131e-07
1.27305e-07
1.27272e-07
1.2728e-07
1.27133e-07
1.26894e-07
1.26895e-07
1.26895e-07
1.26894e-07
1.27174e-07
1.27155e-07
1.27129e-07
1.26894e-07
1.26901e-07
1.26898e-07
1.26898e-07
1.26901e-07
1.26894e-07
1.27238e-07
1.27307e-07
1.27282e-07
1.27127e-07
1.26895e-07
1.26898e-07
1.26896e-07
1.26896e-07
1.26898e-07
1.26895e-07
1.2724e-07
1.27294e-07
1.2727e-07
1.27138e-07
1.26895e-07
1.26898e-07
1.26896e-07
1.26896e-07
1.26898e-07
1.26895e-07
1.27236e-07
1.27162e-07
1.27131e-07
1.26894e-07
1.26901e-07
1.26898e-07
1.26898e-07
1.26901e-07
1.26894e-07
1.27238e-07
1.27302e-07
1.27305e-07
1.27174e-07
1.26894e-07
1.26895e-07
1.26895e-07
1.26894e-07
1.27219e-07
1.27193e-07
1.27315e-07
1.27272e-07
1.27155e-07
1.27238e-07
1.2724e-07
1.27236e-07
1.27238e-07
1.27193e-07
1.27319e-07
1.27307e-07
1.27294e-07
1.27162e-07
1.27302e-07
1.27315e-07
1.25394e-07
1.25382e-07
1.25392e-07
1.25241e-07
1.25239e-07
1.2525e-07
1.25242e-07
1.25416e-07
1.25383e-07
1.25392e-07
1.25245e-07
1.25005e-07
1.25007e-07
1.25007e-07
1.25005e-07
1.25286e-07
1.25267e-07
1.25241e-07
1.25005e-07
1.25013e-07
1.25009e-07
1.25009e-07
1.25013e-07
1.25005e-07
1.2535e-07
1.25418e-07
1.25394e-07
1.25239e-07
1.25007e-07
1.25009e-07
1.25008e-07
1.25008e-07
1.25009e-07
1.25007e-07
1.25351e-07
1.25405e-07
1.25382e-07
1.2525e-07
1.25007e-07
1.25009e-07
1.25008e-07
1.25008e-07
1.25009e-07
1.25007e-07
1.25348e-07
1.25274e-07
1.25242e-07
1.25005e-07
1.25013e-07
1.25009e-07
1.25009e-07
1.25013e-07
1.25005e-07
1.2535e-07
1.25414e-07
1.25416e-07
1.25286e-07
1.25005e-07
1.25007e-07
1.25007e-07
1.25005e-07
1.25331e-07
1.25305e-07
1.25427e-07
1.25383e-07
1.25267e-07
1.2535e-07
1.25351e-07
1.25348e-07
1.2535e-07
1.25305e-07
1.25431e-07
1.25418e-07
1.25405e-07
1.25274e-07
1.25414e-07
1.25427e-07
1.23506e-07
1.23494e-07
1.23504e-07
1.23353e-07
1.2335e-07
1.23361e-07
1.23354e-07
1.23528e-07
1.23495e-07
1.23504e-07
1.23357e-07
1.23117e-07
1.23118e-07
1.23118e-07
1.23117e-07
1.23397e-07
1.23379e-07
1.23353e-07
1.23117e-07
1.23125e-07
1.23121e-07
1.23121e-07
1.23125e-07
1.23117e-07
1.23462e-07
1.2353e-07
1.23506e-07
1.2335e-07
1.23118e-07
1.23121e-07
1.2312e-07
1.2312e-07
1.23121e-07
1.23118e-07
1.23463e-07
1.23517e-07
1.23494e-07
1.23361e-07
1.23118e-07
1.23121e-07
1.2312e-07
1.2312e-07
1.23121e-07
1.23118e-07
1.23459e-07
1.23386e-07
1.23354e-07
1.23117e-07
1.23125e-07
1.23121e-07
1.23121e-07
1.23125e-07
1.23117e-07
1.23461e-07
1.23526e-07
1.23528e-07
1.23397e-07
1.23117e-07
1.23118e-07
1.23118e-07
1.23117e-07
1.23443e-07
1.23417e-07
1.23539e-07
1.23495e-07
1.23379e-07
1.23462e-07
1.23463e-07
1.23459e-07
1.23461e-07
1.23417e-07
1.23542e-07
1.2353e-07
1.23517e-07
1.23386e-07
1.23526e-07
1.23539e-07
1.21617e-07
1.21606e-07
1.21616e-07
1.21464e-07
1.21462e-07
1.21473e-07
1.21466e-07
1.2164e-07
1.21607e-07
1.21616e-07
1.21468e-07
1.21229e-07
1.2123e-07
1.2123e-07
1.21229e-07
1.21509e-07
1.2149e-07
1.21464e-07
1.21229e-07
1.21236e-07
1.21233e-07
1.21233e-07
1.21236e-07
1.21229e-07
1.21573e-07
1.21642e-07
1.21617e-07
1.21462e-07
1.2123e-07
1.21233e-07
1.21231e-07
1.21231e-07
1.21233e-07
1.2123e-07
1.21575e-07
1.21629e-07
1.21606e-07
1.21473e-07
1.2123e-07
1.21233e-07
1.21231e-07
1.21231e-07
1.21233e-07
1.2123e-07
1.21571e-07
1.21498e-07
1.21466e-07
1.21229e-07
1.21236e-07
1.21233e-07
1.21233e-07
1.21236e-07
1.21229e-07
1.21573e-07
1.21637e-07
1.2164e-07
1.21509e-07
1.21229e-07
1.2123e-07
1.2123e-07
1.21229e-07
1.21555e-07
1.21529e-07
1.2165e-07
1.21607e-07
1.2149e-07
1.21573e-07
1.21575e-07
1.21571e-07
1.21573e-07
1.21529e-07
1.21654e-07
1.21642e-07
1.21629e-07
1.21498e-07
1.21637e-07
1.2165e-07
1.19729e-07
1.19717e-07
1.19727e-07
1.19576e-07
1.19574e-07
1.19585e-07
1.19577e-07
1.19752e-07
1.19719e-07
1.19727e-07
1.1958e-07
1.19341e-07
1.19342e-07
1.19342e-07
1.19341e-07
1.19621e-07
1.19602e-07
1.19576e-07
1.19341e-07
1.19348e-07
1.19345e-07
1.19345e-07
1.19348e-07
1.19341e-07
1.19685e-07
1.19754e-07
1.19729e-07
1.19574e-07
1.19342e-07
1.19345e-07
1.19343e-07
1.19343e-07
1.19345e-07
1.19342e-07
1.19686e-07
1.19741e-07
1.19717e-07
1.19585e-07
1.19342e-07
1.19345e-07
1.19343e-07
1.19343e-07
1.19345e-07
1.19342e-07
1.19683e-07
1.19609e-07
1.19577e-07
1.19341e-07
1.19348e-07
1.19345e-07
1.19345e-07
1.19348e-07
1.19341e-07
1.19685e-07
1.19749e-07
1.19752e-07
1.19621e-07
1.19341e-07
1.19342e-07
1.19342e-07
1.19341e-07
1.19666e-07
1.1964e-07
1.19762e-07
1.19719e-07
1.19602e-07