/*--------------------------------*- C++ -*----------------------------------*\
| =========                 |                                                 |
| \\      /  F ield         | OpenFOAM: The Open Source CFD Toolbox           |
|  \\    /   O peration     | Version:                                        |
|   \\  /    A nd           | Website:  www.openfoam.com                      |
|    \\/     M anipulation  |                                                 |
\*---------------------------------------------------------------------------*/
FoamFile
{
    version     2.0;
    format      ascii;
    class       volScalarField;
    location    "19600.5";
    object      p;
}
// * * * * * * * * * * * * * * * * * * * * * * * * * * * * * * * * * * * * * //

dimensions      [0 2 -2 0 0 0 0];


internalField   nonuniform List<scalar> 
247096
(
1.16148e-07
1.1615e-07
1.16294e-07
1.1638e-07
1.16413e-07
1.16371e-07
1.1628e-07
1.16126e-07
1.1615e-07
1.16349e-07
1.16526e-07
1.16618e-07
1.16641e-07
1.16611e-07
1.16507e-07
1.16325e-07
1.16294e-07
1.16526e-07
1.16666e-07
1.16708e-07
1.16714e-07
1.16706e-07
1.16656e-07
1.16498e-07
1.16267e-07
1.1638e-07
1.16618e-07
1.16708e-07
1.1672e-07
1.16718e-07
1.1672e-07
1.16703e-07
1.16596e-07
1.16347e-07
1.16148e-07
1.16413e-07
1.16641e-07
1.16714e-07
1.16718e-07
1.16715e-07
1.16719e-07
1.16711e-07
1.16622e-07
1.16378e-07
1.16371e-07
1.16611e-07
1.16706e-07
1.1672e-07
1.16719e-07
1.1672e-07
1.167e-07
1.16589e-07
1.16338e-07
1.1628e-07
1.16507e-07
1.16656e-07
1.16703e-07
1.16711e-07
1.167e-07
1.16644e-07
1.1648e-07
1.16254e-07
1.16126e-07
1.16325e-07
1.16498e-07
1.16596e-07
1.16622e-07
1.16589e-07
1.1648e-07
1.16302e-07
1.16267e-07
1.16347e-07
1.16378e-07
1.16338e-07
1.16254e-07
1.13334e-07
1.13309e-07
1.13318e-07
1.1317e-07
1.13183e-07
1.13202e-07
1.13182e-07
1.13367e-07
1.13305e-07
1.13318e-07
1.13191e-07
1.12987e-07
1.13005e-07
1.13005e-07
1.12987e-07
1.13248e-07
1.13194e-07
1.1317e-07
1.12987e-07
1.13025e-07
1.13046e-07
1.13046e-07
1.13025e-07
1.12987e-07
1.13311e-07
1.13356e-07
1.13334e-07
1.13183e-07
1.13005e-07
1.13046e-07
1.1307e-07
1.1307e-07
1.13046e-07
1.13005e-07
1.13339e-07
1.13373e-07
1.13309e-07
1.13202e-07
1.13005e-07
1.13046e-07
1.1307e-07
1.1307e-07
1.13046e-07
1.13005e-07
1.13341e-07
1.13198e-07
1.13182e-07
1.12987e-07
1.13025e-07
1.13046e-07
1.13046e-07
1.13025e-07
1.12987e-07
1.13335e-07
1.13383e-07
1.13367e-07
1.13248e-07
1.12987e-07
1.13005e-07
1.13005e-07
1.12987e-07
1.13329e-07
1.13253e-07
1.13366e-07
1.13305e-07
1.13194e-07
1.1331e-07
1.13339e-07
1.13341e-07
1.13335e-07
1.13253e-07
1.13376e-07
1.13356e-07
1.13373e-07
1.13198e-07
1.13383e-07
1.13366e-07
1.11551e-07
1.11543e-07
1.11551e-07
1.11421e-07
1.11421e-07
1.11431e-07
1.11423e-07
1.11585e-07
1.11542e-07
1.11551e-07
1.11415e-07
1.11179e-07
1.11187e-07
1.11187e-07
1.11179e-07
1.11438e-07
1.11433e-07
1.11421e-07
1.11179e-07
1.11199e-07
1.11211e-07
1.11211e-07
1.11199e-07
1.11179e-07
1.11482e-07
1.11575e-07
1.11551e-07
1.11421e-07
1.11187e-07
1.11211e-07
1.11225e-07
1.11225e-07
1.11211e-07
1.11187e-07
1.11486e-07
1.11572e-07
1.11543e-07
1.11431e-07
1.11187e-07
1.11211e-07
1.11225e-07
1.11225e-07
1.11211e-07
1.11187e-07
1.11485e-07
1.1144e-07
1.11423e-07
1.11179e-07
1.11199e-07
1.11211e-07
1.11211e-07
1.11199e-07
1.11179e-07
1.11489e-07
1.1158e-07
1.11585e-07
1.11438e-07
1.11179e-07
1.11187e-07
1.11187e-07
1.11179e-07
1.1147e-07
1.11462e-07
1.11585e-07
1.11542e-07
1.11433e-07
1.11482e-07
1.11486e-07
1.11485e-07
1.11489e-07
1.11462e-07
1.11587e-07
1.11575e-07
1.11572e-07
1.1144e-07
1.1158e-07
1.11585e-07
1.09951e-07
1.09942e-07
1.0995e-07
1.09827e-07
1.09825e-07
1.09833e-07
1.09828e-07
1.09981e-07
1.09944e-07
1.0995e-07
1.09822e-07
1.09614e-07
1.09619e-07
1.09619e-07
1.09614e-07
1.09845e-07
1.09841e-07
1.09827e-07
1.09614e-07
1.09626e-07
1.09632e-07
1.09632e-07
1.09626e-07
1.09614e-07
1.09886e-07
1.09974e-07
1.09951e-07
1.09825e-07
1.09619e-07
1.09632e-07
1.0964e-07
1.0964e-07
1.09632e-07
1.09619e-07
1.09889e-07
1.09972e-07
1.09942e-07
1.09833e-07
1.09619e-07
1.09632e-07
1.0964e-07
1.0964e-07
1.09632e-07
1.09619e-07
1.09888e-07
1.09846e-07
1.09828e-07
1.09614e-07
1.09626e-07
1.09632e-07
1.09632e-07
1.09626e-07
1.09614e-07
1.09891e-07
1.09979e-07
1.09981e-07
1.09845e-07
1.09614e-07
1.09619e-07
1.09619e-07
1.09614e-07
1.09872e-07
1.09866e-07
1.09982e-07
1.09944e-07
1.09841e-07
1.09886e-07
1.09889e-07
1.09888e-07
1.09891e-07
1.09866e-07
1.09986e-07
1.09974e-07
1.09972e-07
1.09846e-07
1.09979e-07
1.09982e-07
1.08521e-07
1.08513e-07
1.0852e-07
1.08404e-07
1.084e-07
1.08406e-07
1.08403e-07
1.08547e-07
1.08516e-07
1.0852e-07
1.08398e-07
1.08212e-07
1.08215e-07
1.08215e-07
1.08212e-07
1.0842e-07
1.08418e-07
1.08404e-07
1.08212e-07
1.0822e-07
1.08223e-07
1.08223e-07
1.0822e-07
1.08212e-07
1.08459e-07
1.08544e-07
1.08521e-07
1.084e-07
1.08215e-07
1.08223e-07
1.08227e-07
1.08227e-07
1.08223e-07
1.08215e-07
1.0846e-07
1.08542e-07
1.08513e-07
1.08406e-07
1.08215e-07
1.08223e-07
1.08227e-07
1.08227e-07
1.08223e-07
1.08215e-07
1.08459e-07
1.08422e-07
1.08403e-07
1.08212e-07
1.0822e-07
1.08223e-07
1.08223e-07
1.0822e-07
1.08212e-07
1.08462e-07
1.08547e-07
1.08547e-07
1.0842e-07
1.08212e-07
1.08215e-07
1.08215e-07
1.08212e-07
1.08445e-07
1.0844e-07
1.08549e-07
1.08516e-07
1.08418e-07
1.08459e-07
1.0846e-07
1.08459e-07
1.08462e-07
1.0844e-07
1.08555e-07
1.08544e-07
1.08542e-07
1.08422e-07
1.08547e-07
1.08549e-07
1.07218e-07
1.07209e-07
1.07217e-07
1.07105e-07
1.07101e-07
1.07106e-07
1.07103e-07
1.07241e-07
1.07214e-07
1.07217e-07
1.07098e-07
1.06928e-07
1.0693e-07
1.0693e-07
1.06928e-07
1.07121e-07
1.0712e-07
1.07105e-07
1.06928e-07
1.06933e-07
1.06934e-07
1.06934e-07
1.06933e-07
1.06928e-07
1.0716e-07
1.07241e-07
1.07218e-07
1.07101e-07
1.0693e-07
1.06934e-07
1.06936e-07
1.06936e-07
1.06934e-07
1.0693e-07
1.0716e-07
1.07238e-07
1.07209e-07
1.07106e-07
1.0693e-07
1.06934e-07
1.06936e-07
1.06936e-07
1.06934e-07
1.0693e-07
1.07158e-07
1.07124e-07
1.07103e-07
1.06928e-07
1.06933e-07
1.06934e-07
1.06934e-07
1.06933e-07
1.06928e-07
1.07161e-07
1.07243e-07
1.07241e-07
1.07121e-07
1.06928e-07
1.0693e-07
1.0693e-07
1.06928e-07
1.07146e-07
1.0714e-07
1.07244e-07
1.07214e-07
1.0712e-07
1.0716e-07
1.0716e-07
1.07158e-07
1.07161e-07
1.0714e-07
1.07251e-07
1.07241e-07
1.07238e-07
1.07123e-07
1.07243e-07
1.07244e-07
1.05984e-07
1.05975e-07
1.05983e-07
1.05872e-07
1.05868e-07
1.05873e-07
1.0587e-07
1.06006e-07
1.0598e-07
1.05983e-07
1.05866e-07
1.05704e-07
1.05705e-07
1.05705e-07
1.05704e-07
1.0589e-07
1.05888e-07
1.05872e-07
1.05704e-07
1.05707e-07
1.05707e-07
1.05707e-07
1.05707e-07
1.05704e-07
1.05929e-07
1.06006e-07
1.05984e-07
1.05868e-07
1.05705e-07
1.05707e-07
1.05707e-07
1.05707e-07
1.05707e-07
1.05705e-07
1.05929e-07
1.06004e-07
1.05975e-07
1.05873e-07
1.05705e-07
1.05707e-07
1.05707e-07
1.05707e-07
1.05707e-07
1.05705e-07
1.05926e-07
1.05892e-07
1.0587e-07
1.05704e-07
1.05707e-07
1.05707e-07
1.05707e-07
1.05707e-07
1.05704e-07
1.05928e-07
1.06008e-07
1.06006e-07
1.0589e-07
1.05704e-07
1.05705e-07
1.05705e-07
1.05704e-07
1.05914e-07
1.05908e-07
1.06009e-07
1.0598e-07
1.05888e-07
1.05929e-07
1.05929e-07
1.05927e-07
1.05928e-07
1.05908e-07
1.06017e-07
1.06006e-07
1.06004e-07
1.05892e-07
1.06008e-07
1.06009e-07
1.04776e-07
1.04767e-07
1.04775e-07
1.04666e-07
1.04661e-07
1.04666e-07
1.04663e-07
1.04798e-07
1.04772e-07
1.04775e-07
1.04659e-07
1.04499e-07
1.045e-07
1.045e-07
1.04499e-07
1.04683e-07
1.04681e-07
1.04666e-07
1.04499e-07
1.04503e-07
1.04502e-07
1.04502e-07
1.04503e-07
1.04499e-07
1.04723e-07
1.04799e-07
1.04776e-07
1.04661e-07
1.045e-07
1.04502e-07
1.04501e-07
1.04501e-07
1.04502e-07
1.045e-07
1.04722e-07
1.04796e-07
1.04767e-07
1.04666e-07
1.045e-07
1.04502e-07
1.04501e-07
1.04501e-07
1.04502e-07
1.045e-07
1.0472e-07
1.04685e-07
1.04663e-07
1.04499e-07
1.04503e-07
1.04502e-07
1.04502e-07
1.04503e-07
1.04499e-07
1.04722e-07
1.04801e-07
1.04798e-07
1.04683e-07
1.04499e-07
1.045e-07
1.045e-07
1.04499e-07
1.04708e-07
1.04701e-07
1.04801e-07
1.04772e-07
1.04681e-07
1.04723e-07
1.04722e-07
1.0472e-07
1.04722e-07
1.04701e-07
1.04809e-07
1.04799e-07
1.04797e-07
1.04685e-07
1.04801e-07
1.04801e-07
1.03576e-07
1.03567e-07
1.03574e-07
1.03465e-07
1.03461e-07
1.03465e-07
1.03463e-07
1.03597e-07
1.03572e-07
1.03574e-07
1.03459e-07
1.03299e-07
1.033e-07
1.033e-07
1.03299e-07
1.03483e-07
1.03481e-07
1.03465e-07
1.03299e-07
1.03303e-07
1.03301e-07
1.03301e-07
1.03303e-07
1.03299e-07
1.03522e-07
1.03598e-07
1.03576e-07
1.03461e-07
1.033e-07
1.03301e-07
1.03301e-07
1.03301e-07
1.03301e-07
1.033e-07
1.03522e-07
1.03596e-07
1.03566e-07
1.03465e-07
1.033e-07
1.03301e-07
1.03301e-07
1.03301e-07
1.03301e-07
1.033e-07
1.0352e-07
1.03485e-07
1.03463e-07
1.03299e-07
1.03303e-07
1.03301e-07
1.03301e-07
1.03303e-07
1.03299e-07
1.03522e-07
1.036e-07
1.03597e-07
1.03483e-07
1.03299e-07
1.033e-07
1.033e-07
1.03299e-07
1.03508e-07
1.03501e-07
1.03601e-07
1.03572e-07
1.03481e-07
1.03522e-07
1.03522e-07
1.0352e-07
1.03522e-07
1.03501e-07
1.03609e-07
1.03598e-07
1.03596e-07
1.03485e-07
1.036e-07
1.03601e-07
1.02376e-07
1.02367e-07
1.02375e-07
1.02266e-07
1.02261e-07
1.02266e-07
1.02263e-07
1.02398e-07
1.02372e-07
1.02375e-07
1.02259e-07
1.021e-07
1.021e-07
1.021e-07
1.021e-07
1.02283e-07
1.02281e-07
1.02266e-07
1.021e-07
1.02103e-07
1.02102e-07
1.02102e-07
1.02103e-07
1.021e-07
1.02323e-07
1.02399e-07
1.02376e-07
1.02261e-07
1.021e-07
1.02102e-07
1.02101e-07
1.02101e-07
1.02102e-07
1.021e-07
1.02323e-07
1.02396e-07
1.02367e-07
1.02266e-07
1.021e-07
1.02102e-07
1.02101e-07
1.02101e-07
1.02102e-07
1.021e-07
1.0232e-07
1.02285e-07
1.02263e-07
1.021e-07
1.02103e-07
1.02102e-07
1.02102e-07
1.02103e-07
1.021e-07
1.02322e-07
1.02401e-07
1.02398e-07
1.02283e-07
1.021e-07
1.021e-07
1.021e-07
1.021e-07
1.02308e-07
1.02301e-07
1.02401e-07
1.02372e-07
1.02281e-07
1.02323e-07
1.02323e-07
1.0232e-07
1.02322e-07
1.02301e-07
1.02409e-07
1.02399e-07
1.02396e-07
1.02285e-07
1.02401e-07
1.02401e-07
1.01177e-07
1.01167e-07
1.01175e-07
1.01066e-07
1.01062e-07
1.01066e-07
1.01063e-07
1.01198e-07
1.01172e-07
1.01175e-07
1.0106e-07
1.009e-07
1.00901e-07
1.00901e-07
1.009e-07
1.01083e-07
1.01082e-07
1.01066e-07
1.009e-07
1.00903e-07
1.00902e-07
1.00902e-07
1.00903e-07
1.009e-07
1.01123e-07
1.01199e-07
1.01177e-07
1.01062e-07
1.00901e-07
1.00902e-07
1.00901e-07
1.00901e-07
1.00902e-07
1.00901e-07
1.01123e-07
1.01197e-07
1.01167e-07
1.01066e-07
1.00901e-07
1.00902e-07
1.00901e-07
1.00901e-07
1.00902e-07
1.00901e-07
1.01121e-07
1.01085e-07
1.01063e-07
1.009e-07
1.00903e-07
1.00902e-07
1.00902e-07
1.00903e-07
1.009e-07
1.01122e-07
1.01201e-07
1.01198e-07
1.01083e-07
1.009e-07
1.00901e-07
1.00901e-07
1.009e-07
1.01108e-07
1.01102e-07
1.01201e-07
1.01172e-07
1.01082e-07
1.01123e-07
1.01123e-07
1.01121e-07
1.01122e-07
1.01102e-07
1.01209e-07
1.01199e-07
1.01197e-07
1.01085e-07
1.01201e-07
1.01201e-07
9.99767e-08
9.99674e-08
9.99754e-08
9.98662e-08
9.98619e-08
9.9866e-08
9.98635e-08
9.99981e-08
9.99726e-08
9.99754e-08
9.98599e-08
9.97002e-08
9.97007e-08
9.97007e-08
9.97002e-08
9.98837e-08
9.98817e-08
9.98662e-08
9.97002e-08
9.97035e-08
9.97022e-08
9.97022e-08
9.97035e-08
9.97002e-08
9.99234e-08
9.99993e-08
9.99767e-08
9.98619e-08
9.97007e-08
9.97022e-08
9.97015e-08
9.97015e-08
9.97022e-08
9.97007e-08
9.9923e-08
9.99969e-08
9.99674e-08
9.9866e-08
9.97007e-08
9.97022e-08
9.97015e-08
9.97015e-08
9.97022e-08
9.97007e-08
9.99208e-08
9.98854e-08
9.98635e-08
9.97002e-08
9.97035e-08
9.97022e-08
9.97022e-08
9.97035e-08
9.97002e-08
9.99225e-08
1.00001e-07
9.99981e-08
9.98837e-08
9.97002e-08
9.97007e-08
9.97007e-08
9.97002e-08
9.99084e-08
9.99018e-08
1.00002e-07
9.99726e-08
9.98817e-08
9.99234e-08
9.9923e-08
9.99208e-08
9.99225e-08
9.99018e-08
1.00009e-07
9.99993e-08
9.99969e-08
9.98854e-08
1.00001e-07
1.00002e-07
9.87769e-08
9.87676e-08
9.87755e-08
9.86664e-08
9.8662e-08
9.86662e-08
9.86636e-08
9.87983e-08
9.87728e-08
9.87755e-08
9.86601e-08
9.85004e-08
9.85009e-08
9.85009e-08
9.85004e-08
9.86838e-08
9.86819e-08
9.86664e-08
9.85004e-08
9.85037e-08
9.85024e-08
9.85023e-08
9.85037e-08
9.85004e-08
9.87235e-08
9.87994e-08
9.87769e-08
9.8662e-08
9.85009e-08
9.85023e-08
9.85016e-08
9.85016e-08
9.85024e-08
9.85009e-08
9.87232e-08
9.87971e-08
9.87675e-08
9.86662e-08
9.85009e-08
9.85024e-08
9.85016e-08
9.85016e-08
9.85024e-08
9.85009e-08
9.87209e-08
9.86856e-08
9.86636e-08
9.85004e-08
9.85037e-08
9.85024e-08
9.85023e-08
9.85037e-08
9.85004e-08
9.87227e-08
9.88013e-08
9.87983e-08
9.86838e-08
9.85004e-08
9.85009e-08
9.85009e-08
9.85004e-08
9.87085e-08
9.8702e-08
9.88017e-08
9.87728e-08
9.86819e-08
9.87235e-08
9.87232e-08
9.87209e-08
9.87227e-08
9.8702e-08
9.88096e-08
9.87994e-08
9.87971e-08
9.86856e-08
9.88013e-08
9.88017e-08
9.7577e-08
9.75677e-08
9.75757e-08
9.74665e-08
9.74622e-08
9.74663e-08
9.74638e-08
9.75985e-08
9.75729e-08
9.75757e-08
9.74602e-08
9.73005e-08
9.7301e-08
9.7301e-08
9.73005e-08
9.7484e-08
9.7482e-08
9.74665e-08
9.73005e-08
9.73038e-08
9.73025e-08
9.73025e-08
9.73038e-08
9.73005e-08
9.75237e-08
9.75996e-08
9.7577e-08
9.74622e-08
9.7301e-08
9.73025e-08
9.73018e-08
9.73018e-08
9.73025e-08
9.7301e-08
9.75233e-08
9.75972e-08
9.75677e-08
9.74663e-08
9.7301e-08
9.73025e-08
9.73018e-08
9.73018e-08
9.73025e-08
9.7301e-08
9.75211e-08
9.74857e-08
9.74638e-08
9.73005e-08
9.73038e-08
9.73025e-08
9.73025e-08
9.73038e-08
9.73005e-08
9.75228e-08
9.76014e-08
9.75984e-08
9.7484e-08
9.73005e-08
9.7301e-08
9.7301e-08
9.73005e-08
9.75087e-08
9.75021e-08
9.76019e-08
9.75729e-08
9.7482e-08
9.75237e-08
9.75233e-08
9.75211e-08
9.75228e-08
9.75021e-08
9.76097e-08
9.75996e-08
9.75972e-08
9.74857e-08
9.76014e-08
9.76019e-08
9.63771e-08
9.63678e-08
9.63758e-08
9.62667e-08
9.62623e-08
9.62664e-08
9.62639e-08
9.63986e-08
9.63731e-08
9.63758e-08
9.62604e-08
9.61007e-08
9.61012e-08
9.61012e-08
9.61007e-08
9.62841e-08
9.62822e-08
9.62667e-08
9.61007e-08
9.61039e-08
9.61026e-08
9.61026e-08
9.61039e-08
9.61007e-08
9.63238e-08
9.63997e-08
9.63771e-08
9.62623e-08
9.61012e-08
9.61026e-08
9.61019e-08
9.61019e-08
9.61026e-08
9.61012e-08
9.63235e-08
9.63974e-08
9.63678e-08
9.62664e-08
9.61012e-08
9.61026e-08
9.61019e-08
9.61019e-08
9.61026e-08
9.61012e-08
9.63212e-08
9.62859e-08
9.62639e-08
9.61007e-08
9.61039e-08
9.61026e-08
9.61026e-08
9.61039e-08
9.61007e-08
9.63229e-08
9.64015e-08
9.63986e-08
9.62841e-08
9.61007e-08
9.61012e-08
9.61012e-08
9.61007e-08
9.63088e-08
9.63022e-08
9.6402e-08
9.63731e-08
9.62822e-08
9.63238e-08
9.63235e-08
9.63212e-08
9.63229e-08
9.63023e-08
9.64099e-08
9.63997e-08
9.63974e-08
9.62859e-08
9.64015e-08
9.6402e-08
9.51773e-08
9.5168e-08
9.51759e-08
9.50668e-08
9.50625e-08
9.50666e-08
9.50641e-08
9.51987e-08
9.51732e-08
9.51759e-08
9.50605e-08
9.49008e-08
9.49013e-08
9.49013e-08
9.49008e-08
9.50843e-08
9.50823e-08
9.50668e-08
9.49008e-08
9.49041e-08
9.49028e-08
9.49028e-08
9.49041e-08
9.49008e-08
9.51239e-08
9.51999e-08
9.51773e-08
9.50625e-08
9.49013e-08
9.49028e-08
9.49021e-08
9.49021e-08
9.49028e-08
9.49013e-08
9.51236e-08
9.51975e-08
9.5168e-08
9.50666e-08
9.49013e-08
9.49028e-08
9.49021e-08
9.49021e-08
9.49028e-08
9.49013e-08
9.51214e-08
9.5086e-08
9.50641e-08
9.49008e-08
9.49041e-08
9.49028e-08
9.49028e-08
9.49041e-08
9.49008e-08
9.51231e-08
9.52017e-08
9.51987e-08
9.50843e-08
9.49008e-08
9.49013e-08
9.49013e-08
9.49008e-08
9.5109e-08
9.51024e-08
9.52021e-08
9.51732e-08
9.50823e-08
9.51239e-08
9.51236e-08
9.51214e-08
9.51231e-08
9.51024e-08
9.521e-08
9.51999e-08
9.51975e-08
9.5086e-08
9.52017e-08
9.52022e-08
9.39775e-08
9.39681e-08
9.39761e-08
9.3867e-08
9.38626e-08
9.38668e-08
9.38642e-08
9.39989e-08
9.39734e-08
9.39761e-08
9.38607e-08
9.3701e-08
9.37015e-08
9.37015e-08
9.3701e-08
9.38844e-08
9.38825e-08
9.3867e-08
9.3701e-08
9.37043e-08
9.3703e-08
9.3703e-08
9.37043e-08
9.3701e-08
9.39241e-08
9.4e-08
9.39774e-08
9.38626e-08
9.37015e-08
9.3703e-08
9.37022e-08
9.37022e-08
9.3703e-08
9.37015e-08
9.39238e-08
9.39977e-08
9.39681e-08
9.38668e-08
9.37015e-08
9.3703e-08
9.37022e-08
9.37022e-08
9.3703e-08
9.37015e-08
9.39215e-08
9.38862e-08
9.38642e-08
9.3701e-08
9.37043e-08
9.3703e-08
9.3703e-08
9.37043e-08
9.3701e-08
9.39233e-08
9.40018e-08
9.39989e-08
9.38844e-08
9.3701e-08
9.37015e-08
9.37015e-08
9.3701e-08
9.39091e-08
9.39026e-08
9.40023e-08
9.39734e-08
9.38825e-08
9.39241e-08
9.39238e-08
9.39215e-08
9.39233e-08
9.39026e-08
9.40102e-08
9.4e-08
9.39977e-08
9.38862e-08
9.40019e-08
9.40023e-08
9.27776e-08
9.27683e-08
9.27763e-08
9.26672e-08
9.26628e-08
9.26669e-08
9.26644e-08
9.27991e-08
9.27736e-08
9.27763e-08
9.26609e-08
9.25012e-08
9.25017e-08
9.25017e-08
9.25012e-08
9.26846e-08
9.26827e-08
9.26672e-08
9.25012e-08
9.25045e-08
9.25032e-08
9.25032e-08
9.25045e-08
9.25012e-08
9.27243e-08
9.28002e-08
9.27776e-08
9.26628e-08
9.25017e-08
9.25032e-08
9.25024e-08
9.25024e-08
9.25032e-08
9.25017e-08
9.2724e-08
9.27979e-08
9.27683e-08
9.26669e-08
9.25017e-08
9.25032e-08
9.25024e-08
9.25024e-08
9.25032e-08
9.25017e-08
9.27217e-08
9.26864e-08
9.26644e-08
9.25012e-08
9.25045e-08
9.25032e-08
9.25032e-08
9.25045e-08
9.25012e-08
9.27234e-08
9.2802e-08
9.27991e-08
9.26846e-08
9.25012e-08
9.25017e-08
9.25017e-08
9.25012e-08
9.27093e-08
9.27027e-08
9.28025e-08
9.27736e-08
9.26827e-08
9.27243e-08
9.2724e-08
9.27217e-08
9.27234e-08
9.27028e-08
9.28104e-08
9.28002e-08
9.27979e-08
9.26864e-08
9.2802e-08
9.28025e-08
9.15779e-08
9.15685e-08
9.15765e-08
9.14674e-08
9.1463e-08
9.14672e-08
9.14646e-08
9.15993e-08
9.15738e-08
9.15765e-08
9.14611e-08
9.13014e-08
9.13019e-08
9.13019e-08
9.13014e-08
9.14848e-08
9.14829e-08
9.14674e-08
9.13014e-08
9.13047e-08
9.13034e-08
9.13034e-08
9.13047e-08
9.13014e-08
9.15245e-08
9.16004e-08
9.15778e-08
9.1463e-08
9.13019e-08
9.13034e-08
9.13026e-08
9.13026e-08
9.13034e-08
9.13019e-08
9.15242e-08
9.15981e-08
9.15685e-08
9.14672e-08
9.13019e-08
9.13034e-08
9.13026e-08
9.13026e-08
9.13034e-08
9.13019e-08
9.15219e-08
9.14866e-08
9.14646e-08
9.13014e-08
9.13047e-08
9.13034e-08
9.13034e-08
9.13047e-08
9.13014e-08
9.15237e-08
9.16022e-08
9.15993e-08
9.14848e-08
9.13014e-08
9.13019e-08
9.13019e-08
9.13014e-08
9.15095e-08
9.1503e-08
9.16027e-08
9.15738e-08
9.14829e-08
9.15245e-08
9.15242e-08
9.15219e-08
9.15237e-08
9.1503e-08
9.16106e-08
9.16004e-08
9.15981e-08
9.14866e-08
9.16023e-08
9.16027e-08
9.03781e-08
9.03688e-08
9.03767e-08
9.02676e-08
9.02632e-08
9.02674e-08
9.02648e-08
9.03995e-08
9.0374e-08
9.03767e-08
9.02613e-08
9.01016e-08
9.01021e-08
9.01021e-08
9.01016e-08
9.0285e-08
9.02831e-08
9.02676e-08
9.01016e-08
9.01049e-08
9.01036e-08
9.01036e-08
9.01049e-08
9.01016e-08
9.03247e-08
9.04006e-08
9.03781e-08
9.02632e-08
9.01021e-08
9.01036e-08
9.01028e-08
9.01028e-08
9.01036e-08
9.01021e-08
9.03244e-08
9.03983e-08
9.03687e-08
9.02674e-08
9.01021e-08
9.01036e-08
9.01028e-08
9.01028e-08
9.01036e-08
9.01021e-08
9.03221e-08
9.02868e-08
9.02648e-08
9.01016e-08
9.01049e-08
9.01036e-08
9.01036e-08
9.01049e-08
9.01016e-08
9.03239e-08
9.04025e-08
9.03995e-08
9.0285e-08
9.01016e-08
9.01021e-08
9.01021e-08
9.01016e-08
9.03097e-08
9.03032e-08
9.04029e-08
9.0374e-08
9.02831e-08
9.03247e-08
9.03244e-08
9.03221e-08
9.03239e-08
9.03032e-08
9.04108e-08
9.04007e-08
9.03983e-08
9.02868e-08
9.04025e-08
9.04029e-08
8.91782e-08
8.91689e-08
8.91769e-08
8.90678e-08
8.90634e-08
8.90675e-08
8.9065e-08
8.91997e-08
8.91742e-08
8.91769e-08
8.90615e-08
8.89018e-08
8.89023e-08
8.89023e-08
8.89018e-08
8.90852e-08
8.90833e-08
8.90678e-08
8.89018e-08
8.8905e-08
8.89037e-08
8.89037e-08
8.8905e-08
8.89018e-08
8.91249e-08
8.92008e-08
8.91782e-08
8.90634e-08
8.89023e-08
8.89037e-08
8.8903e-08
8.8903e-08
8.89037e-08
8.89023e-08
8.91246e-08
8.91985e-08
8.91689e-08
8.90675e-08
8.89023e-08
8.89037e-08
8.8903e-08
8.8903e-08
8.89037e-08
8.89023e-08
8.91223e-08
8.9087e-08
8.9065e-08
8.89018e-08
8.8905e-08
8.89037e-08
8.89037e-08
8.8905e-08
8.89018e-08
8.9124e-08
8.92026e-08
8.91997e-08
8.90852e-08
8.89018e-08
8.89023e-08
8.89023e-08
8.89018e-08
8.91099e-08
8.91033e-08
8.92031e-08
8.91742e-08
8.90833e-08
8.91249e-08
8.91246e-08
8.91223e-08
8.9124e-08
8.91034e-08
8.9211e-08
8.92008e-08
8.91985e-08
8.9087e-08
8.92026e-08
8.92031e-08
8.79784e-08
8.79691e-08
8.79771e-08
8.78679e-08
8.78636e-08
8.78677e-08
8.78652e-08
8.79998e-08
8.79743e-08
8.79771e-08
8.78616e-08
8.77019e-08
8.77024e-08
8.77024e-08
8.77019e-08
8.78854e-08
8.78834e-08
8.78679e-08
8.77019e-08
8.77052e-08
8.77039e-08
8.77039e-08
8.77052e-08
8.77019e-08
8.7925e-08
8.8001e-08
8.79784e-08
8.78636e-08
8.77024e-08
8.77039e-08
8.77031e-08
8.77031e-08
8.77039e-08
8.77024e-08
8.79247e-08
8.79986e-08
8.79691e-08
8.78677e-08
8.77024e-08
8.77039e-08
8.77031e-08
8.77031e-08
8.77039e-08
8.77024e-08
8.79225e-08
8.78871e-08
8.78652e-08
8.77019e-08
8.77052e-08
8.77039e-08
8.77039e-08
8.77052e-08
8.77019e-08
8.79242e-08
8.80028e-08
8.79998e-08
8.78854e-08
8.77019e-08
8.77024e-08
8.77024e-08
8.77019e-08
8.79101e-08
8.79035e-08
8.80033e-08
8.79743e-08
8.78834e-08
8.7925e-08
8.79247e-08
8.79225e-08
8.79242e-08
8.79035e-08
8.80111e-08
8.8001e-08
8.79986e-08
8.78871e-08
8.80028e-08
8.80033e-08
8.67785e-08
8.67692e-08
8.67772e-08
8.66681e-08
8.66637e-08
8.66678e-08
8.66653e-08
8.68e-08
8.67745e-08
8.67772e-08
8.66617e-08
8.65021e-08
8.65025e-08
8.65025e-08
8.65021e-08
8.66855e-08
8.66836e-08
8.66681e-08
8.65021e-08
8.65053e-08
8.6504e-08
8.6504e-08
8.65053e-08
8.65021e-08
8.67252e-08
8.68011e-08
8.67785e-08
8.66637e-08
8.65025e-08
8.6504e-08
8.65033e-08
8.65033e-08
8.6504e-08
8.65025e-08
8.67248e-08
8.67987e-08
8.67692e-08
8.66678e-08
8.65025e-08
8.6504e-08
8.65033e-08
8.65033e-08
8.6504e-08
8.65025e-08
8.67226e-08
8.66872e-08
8.66653e-08
8.65021e-08
8.65053e-08
8.6504e-08
8.6504e-08
8.65053e-08
8.65021e-08
8.67243e-08
8.68029e-08
8.68e-08
8.66855e-08
8.65021e-08
8.65025e-08
8.65025e-08
8.65021e-08
8.67102e-08
8.67036e-08
8.68034e-08
8.67745e-08
8.66836e-08
8.67252e-08
8.67248e-08
8.67226e-08
8.67243e-08
8.67036e-08
8.68113e-08
8.68011e-08
8.67987e-08
8.66872e-08
8.68029e-08
8.68034e-08
8.55787e-08
8.55694e-08
8.55773e-08
8.54682e-08
8.54639e-08
8.5468e-08
8.54655e-08
8.56001e-08
8.55746e-08
8.55773e-08
8.54619e-08
8.53022e-08
8.53027e-08
8.53027e-08
8.53022e-08
8.54857e-08
8.54837e-08
8.54682e-08
8.53022e-08
8.53055e-08
8.53042e-08
8.53042e-08
8.53055e-08
8.53022e-08
8.55253e-08
8.56013e-08
8.55787e-08
8.54639e-08
8.53027e-08
8.53042e-08
8.53035e-08
8.53035e-08
8.53042e-08
8.53027e-08
8.5525e-08
8.55989e-08
8.55694e-08
8.5468e-08
8.53027e-08
8.53042e-08
8.53035e-08
8.53035e-08
8.53042e-08
8.53027e-08
8.55228e-08
8.54874e-08
8.54655e-08
8.53022e-08
8.53055e-08
8.53042e-08
8.53042e-08
8.53055e-08
8.53022e-08
8.55245e-08
8.56031e-08
8.56001e-08
8.54857e-08
8.53022e-08
8.53027e-08
8.53027e-08
8.53022e-08
8.55104e-08
8.55038e-08
8.56035e-08
8.55746e-08
8.54837e-08
8.55253e-08
8.5525e-08
8.55228e-08
8.55245e-08
8.55038e-08
8.56114e-08
8.56013e-08
8.55989e-08
8.54874e-08
8.56031e-08
8.56036e-08
8.43789e-08
8.43696e-08
8.43775e-08
8.42684e-08
8.4264e-08
8.42682e-08
8.42657e-08
8.44003e-08
8.43748e-08
8.43775e-08
8.42621e-08
8.41024e-08
8.41029e-08
8.41029e-08
8.41024e-08
8.42859e-08
8.42839e-08
8.42684e-08
8.41024e-08
8.41057e-08
8.41044e-08
8.41044e-08
8.41057e-08
8.41024e-08
8.43255e-08
8.44015e-08
8.43789e-08
8.4264e-08
8.41029e-08
8.41044e-08
8.41036e-08
8.41036e-08
8.41044e-08
8.41029e-08
8.43252e-08
8.43991e-08
8.43696e-08
8.42682e-08
8.41029e-08
8.41044e-08
8.41036e-08
8.41036e-08
8.41044e-08
8.41029e-08
8.4323e-08
8.42876e-08
8.42656e-08
8.41024e-08
8.41057e-08
8.41044e-08
8.41044e-08
8.41057e-08
8.41024e-08
8.43247e-08
8.44033e-08
8.44003e-08
8.42859e-08
8.41024e-08
8.41029e-08
8.41029e-08
8.41024e-08
8.43106e-08
8.4304e-08
8.44037e-08
8.43748e-08
8.42839e-08
8.43255e-08
8.43252e-08
8.4323e-08
8.43247e-08
8.4304e-08
8.44116e-08
8.44015e-08
8.43991e-08
8.42876e-08
8.44033e-08
8.44037e-08
8.31791e-08
8.31698e-08
8.31777e-08
8.30686e-08
8.30642e-08
8.30684e-08
8.30658e-08
8.32005e-08
8.3175e-08
8.31777e-08
8.30623e-08
8.29026e-08
8.29031e-08
8.29031e-08
8.29026e-08
8.3086e-08
8.30841e-08
8.30686e-08
8.29026e-08
8.29059e-08
8.29046e-08
8.29046e-08
8.29059e-08
8.29026e-08
8.31257e-08
8.32017e-08
8.31791e-08
8.30642e-08
8.29031e-08
8.29046e-08
8.29038e-08
8.29038e-08
8.29046e-08
8.29031e-08
8.31254e-08
8.31993e-08
8.31698e-08
8.30684e-08
8.29031e-08
8.29046e-08
8.29038e-08
8.29038e-08
8.29046e-08
8.29031e-08
8.31231e-08
8.30878e-08
8.30658e-08
8.29026e-08
8.29059e-08
8.29046e-08
8.29046e-08
8.29059e-08
8.29026e-08
8.31249e-08
8.32035e-08
8.32005e-08
8.3086e-08
8.29026e-08
8.29031e-08
8.29031e-08
8.29026e-08
8.31108e-08
8.31042e-08
8.32039e-08
8.3175e-08
8.30841e-08
8.31257e-08
8.31254e-08
8.31232e-08
8.31249e-08
8.31042e-08
8.32118e-08
8.32017e-08
8.31993e-08
8.30878e-08
8.32035e-08
8.32039e-08
8.19793e-08
8.197e-08
8.19779e-08
8.18688e-08
8.18644e-08
8.18686e-08
8.1866e-08
8.20007e-08
8.19752e-08
8.19779e-08
8.18625e-08
8.17028e-08
8.17033e-08
8.17033e-08
8.17028e-08
8.18862e-08
8.18843e-08
8.18688e-08
8.17028e-08
8.17061e-08
8.17048e-08
8.17048e-08
8.17061e-08
8.17028e-08
8.19259e-08
8.20018e-08
8.19793e-08
8.18644e-08
8.17033e-08
8.17048e-08
8.1704e-08
8.1704e-08
8.17048e-08
8.17033e-08
8.19256e-08
8.19995e-08
8.19699e-08
8.18686e-08
8.17033e-08
8.17048e-08
8.1704e-08
8.1704e-08
8.17048e-08
8.17033e-08
8.19233e-08
8.1888e-08
8.1866e-08
8.17028e-08
8.17061e-08
8.17048e-08
8.17048e-08
8.17061e-08
8.17028e-08
8.19251e-08
8.20037e-08
8.20007e-08
8.18862e-08
8.17028e-08
8.17033e-08
8.17033e-08
8.17028e-08
8.19109e-08
8.19044e-08
8.20041e-08
8.19752e-08
8.18843e-08
8.19259e-08
8.19256e-08
8.19233e-08
8.19251e-08
8.19044e-08
8.2012e-08
8.20018e-08
8.19995e-08
8.1888e-08
8.20037e-08
8.20041e-08
8.07795e-08
8.07702e-08
8.07781e-08
8.0669e-08
8.06646e-08
8.06688e-08
8.06662e-08
8.08009e-08
8.07754e-08
8.07781e-08
8.06627e-08
8.0503e-08
8.05035e-08
8.05035e-08
8.0503e-08
8.06864e-08
8.06845e-08
8.0669e-08
8.0503e-08
8.05063e-08
8.0505e-08
8.0505e-08
8.05063e-08
8.0503e-08
8.07261e-08
8.0802e-08
8.07795e-08
8.06646e-08
8.05035e-08
8.0505e-08
8.05042e-08
8.05042e-08
8.0505e-08
8.05035e-08
8.07258e-08
8.07997e-08
8.07701e-08
8.06688e-08
8.05035e-08
8.0505e-08
8.05042e-08
8.05042e-08
8.0505e-08
8.05035e-08
8.07235e-08
8.06882e-08
8.06662e-08
8.0503e-08
8.05063e-08
8.0505e-08
8.0505e-08
8.05063e-08
8.0503e-08
8.07253e-08
8.08039e-08
8.08009e-08
8.06864e-08
8.0503e-08
8.05035e-08
8.05035e-08
8.0503e-08
8.07112e-08
8.07046e-08
8.08043e-08
8.07754e-08
8.06845e-08
8.07261e-08
8.07258e-08
8.07236e-08
8.07253e-08
8.07046e-08
8.08122e-08
8.08021e-08
8.07997e-08
8.06882e-08
8.08039e-08
8.08043e-08
7.95797e-08
7.95704e-08
7.95784e-08
7.94692e-08
7.94649e-08
7.9469e-08
7.94665e-08
7.96011e-08
7.95756e-08
7.95783e-08
7.94629e-08
7.93032e-08
7.93037e-08
7.93037e-08
7.93032e-08
7.94867e-08
7.94847e-08
7.94692e-08
7.93032e-08
7.93065e-08
7.93052e-08
7.93052e-08
7.93065e-08
7.93032e-08
7.95263e-08
7.96023e-08
7.95797e-08
7.94649e-08
7.93037e-08
7.93052e-08
7.93045e-08
7.93045e-08
7.93052e-08
7.93037e-08
7.9526e-08
7.95999e-08
7.95704e-08
7.9469e-08
7.93037e-08
7.93052e-08
7.93045e-08
7.93045e-08
7.93052e-08
7.93037e-08
7.95238e-08
7.94884e-08
7.94665e-08
7.93032e-08
7.93065e-08
7.93052e-08
7.93052e-08
7.93065e-08
7.93032e-08
7.95255e-08
7.96041e-08
7.96011e-08
7.94867e-08
7.93032e-08
7.93037e-08
7.93037e-08
7.93032e-08
7.95114e-08
7.95048e-08
7.96045e-08
7.95756e-08
7.94847e-08
7.95263e-08
7.9526e-08
7.95238e-08
7.95255e-08
7.95048e-08
7.96124e-08
7.96023e-08
7.95999e-08
7.94884e-08
7.96041e-08
7.96046e-08
7.83799e-08
7.83706e-08
7.83786e-08
7.82694e-08
7.82651e-08
7.82692e-08
7.82667e-08
7.84013e-08
7.83758e-08
7.83786e-08
7.82631e-08
7.81034e-08
7.81039e-08
7.81039e-08
7.81034e-08
7.82869e-08
7.82849e-08
7.82694e-08
7.81034e-08
7.81067e-08
7.81054e-08
7.81054e-08
7.81067e-08
7.81034e-08
7.83265e-08
7.84025e-08
7.83799e-08
7.82651e-08
7.81039e-08
7.81054e-08
7.81047e-08
7.81047e-08
7.81054e-08
7.81039e-08
7.83262e-08
7.84001e-08
7.83706e-08
7.82692e-08
7.81039e-08
7.81054e-08
7.81047e-08
7.81047e-08
7.81054e-08
7.81039e-08
7.8324e-08
7.82886e-08
7.82667e-08
7.81035e-08
7.81067e-08
7.81054e-08
7.81054e-08
7.81067e-08
7.81035e-08
7.83257e-08
7.84043e-08
7.84013e-08
7.82869e-08
7.81034e-08
7.81039e-08
7.81039e-08
7.81035e-08
7.83116e-08
7.8305e-08
7.84048e-08
7.83758e-08
7.82849e-08
7.83266e-08
7.83262e-08
7.8324e-08
7.83257e-08
7.8305e-08
7.84126e-08
7.84025e-08
7.84001e-08
7.82886e-08
7.84043e-08
7.84048e-08
7.71801e-08
7.71708e-08
7.71787e-08
7.70696e-08
7.70653e-08
7.70694e-08
7.70669e-08
7.72015e-08
7.7176e-08
7.71787e-08
7.70633e-08
7.69036e-08
7.69041e-08
7.69041e-08
7.69036e-08
7.70871e-08
7.70851e-08
7.70696e-08
7.69036e-08
7.69069e-08
7.69056e-08
7.69056e-08
7.69069e-08
7.69036e-08
7.71267e-08
7.72027e-08
7.71801e-08
7.70653e-08
7.69041e-08
7.69056e-08
7.69049e-08
7.69049e-08
7.69056e-08
7.69041e-08
7.71264e-08
7.72003e-08
7.71708e-08
7.70694e-08
7.69041e-08
7.69056e-08
7.69049e-08
7.69049e-08
7.69056e-08
7.69041e-08
7.71242e-08
7.70888e-08
7.70669e-08
7.69036e-08
7.69069e-08
7.69056e-08
7.69056e-08
7.69069e-08
7.69036e-08
7.71259e-08
7.72045e-08
7.72015e-08
7.70871e-08
7.69036e-08
7.69041e-08
7.69041e-08
7.69036e-08
7.71118e-08
7.71052e-08
7.72049e-08
7.7176e-08
7.70851e-08
7.71267e-08
7.71264e-08
7.71242e-08
7.71259e-08
7.71052e-08
7.72128e-08
7.72027e-08
7.72003e-08
7.70888e-08
7.72045e-08
7.7205e-08
7.59803e-08
7.5971e-08
7.59789e-08
7.58698e-08
7.58655e-08
7.58696e-08
7.58671e-08
7.60017e-08
7.59762e-08
7.59789e-08
7.58635e-08
7.57038e-08
7.57043e-08
7.57043e-08
7.57038e-08
7.58873e-08
7.58853e-08
7.58698e-08
7.57038e-08
7.57071e-08
7.57058e-08
7.57058e-08
7.57071e-08
7.57038e-08
7.59269e-08
7.60029e-08
7.59803e-08
7.58655e-08
7.57043e-08
7.57058e-08
7.57051e-08
7.57051e-08
7.57058e-08
7.57043e-08
7.59266e-08
7.60005e-08
7.5971e-08
7.58696e-08
7.57043e-08
7.57058e-08
7.57051e-08
7.57051e-08
7.57058e-08
7.57043e-08
7.59244e-08
7.5889e-08
7.58671e-08
7.57038e-08
7.57071e-08
7.57058e-08
7.57058e-08
7.57071e-08
7.57038e-08
7.59261e-08
7.60047e-08
7.60017e-08
7.58873e-08
7.57038e-08
7.57043e-08
7.57043e-08
7.57038e-08
7.5912e-08
7.59054e-08
7.60051e-08
7.59762e-08
7.58853e-08
7.59269e-08
7.59266e-08
7.59244e-08
7.59261e-08