/*--------------------------------*- C++ -*----------------------------------*\
| =========                 |                                                 |
| \\      /  F ield         | OpenFOAM: The Open Source CFD Toolbox           |
|  \\    /   O peration     | Version:  2312                                  |
|   \\  /    A nd           | Website:  www.openfoam.com                      |
|    \\/     M anipulation  |                                                 |
\*---------------------------------------------------------------------------*/
FoamFile
{
    version     2.0;
    format      ascii;
    arch        "LSB;label=32;scalar=64";
    class       volScalarField;
    location    "200";
    object      k;
}
// * * * * * * * * * * * * * * * * * * * * * * * * * * * * * * * * * * * * * //

dimensions      [0 2 -2 0 0 0 0];

internalField   nonuniform List<scalar> 
42840
(
1.45924e-05
1.62392e-05
1.62413e-05
1.8674e-05
1.43137e-05
1.64619e-05
1.6464e-05
1.93694e-05
1.40809e-05
1.67718e-05
1.67738e-05
2.01604e-05
1.38936e-05
1.7166e-05
1.71678e-05
2.10329e-05
1.37516e-05
1.76408e-05
1.76422e-05
2.19967e-05
1.36547e-05
1.81921e-05
1.81932e-05
2.29921e-05
1.36028e-05
1.88149e-05
1.88155e-05
2.40271e-05
1.35963e-05
1.95037e-05
1.95041e-05
2.50876e-05
1.36336e-05
2.02521e-05
2.02527e-05
2.61551e-05
1.37171e-05
2.10536e-05
2.10541e-05
2.7197e-05
1.38454e-05
2.19002e-05
2.19012e-05
2.82137e-05
1.40174e-05
2.27842e-05
2.2786e-05
2.92648e-05
1.42321e-05
2.36972e-05
2.36992e-05
3.02589e-05
1.44874e-05
2.463e-05
2.4633e-05
3.12199e-05
1.47804e-05
2.55743e-05
2.55785e-05
3.21481e-05
1.51067e-05
2.65182e-05
2.65252e-05
3.30536e-05
1.54601e-05
2.74479e-05
2.74587e-05
3.38815e-05
1.58325e-05
2.83474e-05
2.83595e-05
3.46597e-05
1.62135e-05
2.91982e-05
2.92108e-05
3.53833e-05
1.65928e-05
2.99883e-05
3.00083e-05
3.60102e-05
1.69614e-05
3.07098e-05
3.07501e-05
3.66182e-05
1.73133e-05
3.13605e-05
3.14227e-05
3.71967e-05
1.76449e-05
3.19324e-05
3.20142e-05
3.77185e-05
1.7946e-05
3.24223e-05
3.25057e-05
3.81287e-05
1.82133e-05
3.28385e-05
3.29107e-05
3.84775e-05
1.86873e-05
1.92402e-05
1.62396e-05
1.624e-05
1.64016e-05
1.64019e-05
1.86722e-05
1.92284e-05
1.62398e-05
1.62412e-05
1.64014e-05
1.64033e-05
1.62391e-05
1.63995e-05
1.64012e-05
1.86796e-05
1.92214e-05
1.62407e-05
1.64018e-05
1.64029e-05
1.9239e-05
1.93716e-05
1.9991e-05
1.64623e-05
1.64626e-05
1.66906e-05
1.66907e-05
1.93766e-05
1.99891e-05
1.6462e-05
1.6464e-05
1.669e-05
1.66921e-05
1.64618e-05
1.6688e-05
1.669e-05
1.93855e-05
2.00149e-05
1.64633e-05
1.66902e-05
1.66916e-05
2.00124e-05
2.01793e-05
2.08681e-05
1.67723e-05
1.67723e-05
1.70642e-05
1.70643e-05
2.01786e-05
2.08465e-05
1.67715e-05
1.67738e-05
1.70633e-05
1.7066e-05
1.67715e-05
1.70613e-05
1.70637e-05
2.01697e-05
2.08472e-05
1.67729e-05
1.70632e-05
1.70652e-05
2.08723e-05
2.10318e-05
2.1798e-05
1.71661e-05
1.71661e-05
1.75192e-05
1.75195e-05
2.10542e-05
2.17989e-05
1.7165e-05
1.71677e-05
1.75181e-05
1.75211e-05
1.71653e-05
1.75158e-05
1.7519e-05
2.10545e-05
2.18001e-05
1.71665e-05
1.75175e-05
1.75202e-05
2.17702e-05
2.19727e-05
2.27832e-05
1.76405e-05
1.76407e-05
1.80516e-05
1.80521e-05
2.19735e-05
2.27856e-05
1.76393e-05
1.76421e-05
1.80502e-05
1.80535e-05
1.76401e-05
1.80475e-05
1.80518e-05
2.19734e-05
2.2784e-05
1.7641e-05
1.8049e-05
1.80523e-05
2.27546e-05
2.29673e-05
2.38101e-05
1.81913e-05
1.81918e-05
1.86564e-05
1.86572e-05
2.29696e-05
2.38089e-05
1.81899e-05
1.81929e-05
1.8655e-05
1.86584e-05
1.81913e-05
1.86515e-05
1.86569e-05
2.29676e-05
2.38082e-05
1.81915e-05
1.86525e-05
1.8657e-05
2.37786e-05
2.4e-05
2.48604e-05
1.88135e-05
1.88143e-05
1.93285e-05
1.93292e-05
2.4007e-05
2.48235e-05
1.88121e-05
1.88152e-05
1.9327e-05
1.93302e-05
1.88138e-05
1.93224e-05
1.9329e-05
2.39988e-05
2.48559e-05
1.88136e-05
1.93232e-05
1.9329e-05
2.48253e-05
2.50746e-05
2.59175e-05
1.95018e-05
1.95022e-05
2.00614e-05
2.00622e-05
2.50817e-05
2.59094e-05
1.95004e-05
1.95031e-05
2.00599e-05
2.00631e-05
1.9502e-05
2.00542e-05
2.00625e-05
2.50593e-05
2.58787e-05
1.95019e-05
2.00549e-05
2.00623e-05
2.58795e-05
2.61301e-05
2.69656e-05
2.02495e-05
2.02498e-05
2.08486e-05
2.08489e-05
2.61207e-05
2.69583e-05
2.02479e-05
2.02509e-05
2.08466e-05
2.08502e-05
2.02504e-05
2.08398e-05
2.08498e-05
2.61461e-05
2.69684e-05
2.02498e-05
2.08408e-05
2.08494e-05
2.69557e-05
2.71701e-05
2.79977e-05
2.10499e-05
2.10501e-05
2.16824e-05
2.16829e-05
2.71756e-05
2.80079e-05
2.1048e-05
2.10512e-05
2.16801e-05
2.16845e-05
2.10513e-05
2.1672e-05
2.16843e-05
2.71755e-05
2.79733e-05
2.10503e-05
2.16737e-05
2.16831e-05
2.80094e-05
2.82142e-05
2.90142e-05
2.18958e-05
2.18956e-05
2.25559e-05
2.25563e-05
2.82098e-05
2.90258e-05
2.18933e-05
2.1897e-05
2.25529e-05
2.25583e-05
2.18973e-05
2.25434e-05
2.25577e-05
2.82454e-05
2.90075e-05
2.18954e-05
2.2546e-05
2.25557e-05
2.89945e-05
2.92585e-05
3.00393e-05
2.27788e-05
2.27789e-05
2.34603e-05
2.34606e-05
2.9237e-05
3.00057e-05
2.27758e-05
2.27805e-05
2.3457e-05
2.34631e-05
2.27803e-05
2.34466e-05
2.3462e-05
2.92567e-05
3.00422e-05
2.27776e-05
2.34493e-05
2.34592e-05
3.00136e-05
3.02498e-05
3.10054e-05
2.36908e-05
2.36906e-05
2.43875e-05
2.4387e-05
3.02558e-05
3.10155e-05
2.36874e-05
2.36929e-05
2.43838e-05
2.43911e-05
2.3692e-05
2.43725e-05
2.4388e-05
3.02467e-05
3.09898e-05
2.36887e-05
2.43759e-05
2.43852e-05
3.09962e-05
3.12248e-05
3.19517e-05
2.46231e-05
2.46221e-05
2.53289e-05
2.5328e-05
3.12076e-05
3.19592e-05
2.46192e-05
2.46263e-05
2.53242e-05
2.53344e-05
2.46229e-05
2.53127e-05
2.53278e-05
3.1247e-05
3.19853e-05
2.46198e-05
2.53175e-05
2.5326e-05
3.19595e-05
3.21726e-05
3.28476e-05
2.55664e-05
2.55656e-05
2.62726e-05
2.62733e-05
3.21767e-05
3.28508e-05
2.55617e-05
2.55718e-05
2.62669e-05
2.62824e-05
2.55649e-05
2.62573e-05
2.62703e-05
3.21847e-05
3.28939e-05
2.55627e-05
2.62639e-05
2.62699e-05
3.28412e-05
3.30619e-05
3.37056e-05
2.65088e-05
2.65094e-05
2.72055e-05
2.72077e-05
3.30689e-05
3.37049e-05
2.65031e-05
2.65189e-05
2.71993e-05
2.72223e-05
2.65056e-05
2.71919e-05
2.7202e-05
3.30811e-05
3.37431e-05
2.65052e-05
2.72031e-05
2.72039e-05
3.36717e-05
3.38894e-05
3.44857e-05
2.74355e-05
2.74384e-05
2.81118e-05
2.81153e-05
3.38892e-05
3.45024e-05
2.74293e-05
2.74535e-05
2.81056e-05
2.81366e-05
2.74321e-05
2.81021e-05
2.81069e-05
3.39489e-05
3.45367e-05
2.74342e-05
2.8115e-05
2.8113e-05
3.44681e-05
3.4658e-05
3.524e-05
2.83312e-05
2.83351e-05
2.89723e-05
2.89777e-05
3.46701e-05
3.52293e-05
2.8325e-05
2.83579e-05
2.89675e-05
2.90059e-05
2.83264e-05
2.89684e-05
2.89657e-05
3.47282e-05
3.52801e-05
2.83332e-05
2.8981e-05
2.89784e-05
3.51837e-05
3.53877e-05
3.58858e-05
2.91789e-05
2.9184e-05
2.9777e-05
2.97827e-05
3.54104e-05
3.59092e-05
2.91741e-05
2.92137e-05
2.97757e-05
2.9819e-05
2.91712e-05
2.97751e-05
2.97646e-05
3.54474e-05
3.59455e-05
2.91853e-05
2.97936e-05
2.97862e-05
3.58845e-05
3.60615e-05
3.65468e-05
2.9969e-05
2.9975e-05
3.05167e-05
3.05235e-05
3.60487e-05
3.64831e-05
2.9969e-05
3.00125e-05
3.05247e-05
3.05693e-05
2.99533e-05
3.05162e-05
3.04919e-05
3.61094e-05
3.66083e-05
2.99778e-05
3.05514e-05
3.05284e-05
3.64732e-05
3.67049e-05
3.71032e-05
3.06926e-05
3.06992e-05
3.1183e-05
3.11953e-05
3.66505e-05
3.70921e-05
3.07041e-05
3.07474e-05
3.12087e-05
3.12496e-05
3.06647e-05
3.1185e-05
3.11511e-05
3.67427e-05
3.71772e-05
3.07049e-05
3.12416e-05
3.12042e-05
3.70389e-05
3.72458e-05
3.76995e-05
3.13451e-05
3.1357e-05
3.17859e-05
3.17945e-05
3.7251e-05
3.76505e-05
3.13749e-05
3.14131e-05
3.18255e-05
3.18585e-05
3.13111e-05
3.17776e-05
3.17419e-05
3.73379e-05
3.77496e-05
3.13669e-05
3.18563e-05
3.18069e-05
3.7596e-05
3.78324e-05
3.81575e-05
3.19357e-05
3.19386e-05
3.23082e-05
3.2308e-05
3.77786e-05
3.80915e-05
3.19751e-05
3.20064e-05
3.23512e-05
3.23762e-05
3.18884e-05
3.22899e-05
3.22515e-05
3.78789e-05
3.81964e-05
3.19544e-05
3.23729e-05
3.23224e-05
3.80197e-05
3.82646e-05
3.84881e-05
3.24463e-05
3.24343e-05
3.27402e-05
3.2733e-05
3.8199e-05
3.84269e-05
3.24877e-05
3.25128e-05
3.27789e-05
3.28076e-05
3.23909e-05
3.27216e-05
3.2691e-05
3.83032e-05
3.85365e-05
3.246e-05
3.27889e-05
3.27523e-05
3.83783e-05
3.85751e-05
3.28682e-05
3.28413e-05
3.85182e-05
3.29044e-05
3.29354e-05
3.28252e-05
3.86282e-05
3.28812e-05
5.48458e-05
7.01005e-05
7.0126e-05
5.43682e-05
6.95606e-05
6.95425e-05
5.48465e-05
7.01016e-05
7.01272e-05
5.43668e-05
1.4592e-05
1.4593e-05
1.45923e-05
1.43808e-05
1.43801e-05
1.43811e-05
1.43808e-05
3.10584e-05
4.64306e-05
1.47079e-05
1.6288e-05
4.68127e-05
1.46739e-05
3.04998e-05
6.95614e-05
6.95434e-05
3.10596e-05
1.47098e-05
4.64311e-05
1.62903e-05
1.46759e-05
4.68086e-05
3.05035e-05
5.97092e-05
5.97177e-05
1.88876e-05
5.99098e-05
5.99187e-05
5.59472e-05
7.01523e-05
5.55453e-05
7.01751e-05
6.94934e-05
6.94773e-05
5.59479e-05
7.01534e-05
5.55442e-05
7.01763e-05
1.43134e-05
1.43143e-05
1.43136e-05
1.41366e-05
1.4136e-05
1.4137e-05
1.41366e-05
3.27292e-05
4.7547e-05
1.46016e-05
1.65329e-05
3.21858e-05
4.78969e-05
1.45846e-05
6.94944e-05
6.94782e-05
3.27331e-05
1.46036e-05
4.75499e-05
1.65351e-05
3.21855e-05
1.45866e-05
4.78944e-05
6.02928e-05
6.03012e-05
1.96156e-05
6.04718e-05
6.04812e-05
5.68635e-05
7.01972e-05
5.65235e-05
7.02173e-05
6.94324e-05
6.94183e-05
5.68643e-05
7.01988e-05
5.65225e-05
7.0219e-05
1.40807e-05
1.40816e-05
1.40808e-05
1.39378e-05
1.39374e-05
1.39383e-05
1.39379e-05
3.4339e-05
4.85719e-05
1.45649e-05
1.68643e-05
3.3816e-05
4.8891e-05
1.45668e-05
6.94333e-05
6.9419e-05
3.43411e-05
1.45666e-05
4.85716e-05
1.68663e-05
3.38171e-05
1.45684e-05
4.88879e-05
6.08145e-05
6.08234e-05
2.04341e-05
6.09751e-05
6.09841e-05
5.76315e-05
7.02366e-05
5.73404e-05
7.02534e-05
6.93773e-05
6.93651e-05
5.76322e-05
7.02395e-05
5.73394e-05
7.02546e-05
1.38935e-05
1.38944e-05
1.38936e-05
1.37843e-05
1.37839e-05
1.37848e-05
1.37844e-05
3.58632e-05
4.95049e-05
1.45947e-05
1.72787e-05
3.53697e-05
4.97997e-05
1.46157e-05
6.93779e-05
6.93655e-05
3.58641e-05
1.45964e-05
4.95058e-05
1.72804e-05
3.53735e-05
1.46173e-05
4.97977e-05
6.12836e-05
6.12921e-05
2.1328e-05
6.14284e-05
6.14367e-05
5.82827e-05
7.0272e-05
5.80301e-05
7.02852e-05
6.93275e-05
6.9317e-05
5.82831e-05
7.02734e-05
5.80294e-05
7.02866e-05
1.37516e-05
1.37525e-05
1.37517e-05
1.36757e-05
1.36755e-05
1.36763e-05
1.3676e-05
3.7288e-05
5.03593e-05
1.46949e-05
1.77722e-05
3.68301e-05
5.06295e-05
1.47327e-05
6.93278e-05
6.93172e-05
3.72923e-05
1.4697e-05
5.03626e-05
1.77739e-05
3.68331e-05
1.47346e-05
5.06286e-05
6.17077e-05
6.17157e-05
2.22595e-05
6.18385e-05
6.18473e-05
5.8842e-05
7.03022e-05
5.86206e-05
7.03143e-05
6.92824e-05
6.92736e-05
5.88412e-05
7.03036e-05
5.86199e-05
7.03157e-05
1.36548e-05
1.36556e-05
1.3655e-05
1.36121e-05
1.36121e-05
1.36129e-05
1.36125e-05
3.86119e-05
5.11463e-05
1.48635e-05
1.83408e-05
3.81903e-05
5.139e-05
1.49174e-05
6.92827e-05
6.92738e-05
3.8614e-05
1.4866e-05
5.11487e-05
1.83419e-05
3.81914e-05
1.49196e-05
5.13938e-05
6.20917e-05
6.21e-05
2.32633e-05
6.2211e-05
6.22203e-05
5.93287e-05
7.03295e-05
5.91343e-05
7.03416e-05
6.92419e-05
6.92347e-05
5.93275e-05
7.03311e-05
5.9133e-05
7.03424e-05
1.36029e-05
1.36037e-05
1.36032e-05
1.35942e-05
1.35943e-05
1.3595e-05
1.35947e-05
3.9834e-05
5.18693e-05
1.50995e-05
1.8979e-05
3.94448e-05
5.20937e-05
1.51687e-05
6.92421e-05
6.92348e-05
3.98362e-05
1.51023e-05
5.18698e-05
1.89798e-05
3.94461e-05
1.51711e-05
5.20972e-05
6.24432e-05
6.24512e-05
2.43015e-05
6.25527e-05
6.25621e-05
5.97606e-05
7.03549e-05
5.95866e-05
7.03672e-05
6.92058e-05
6.92001e-05
5.97595e-05
7.0357e-05
5.95856e-05
7.03678e-05
1.35965e-05
1.35972e-05
1.35968e-05
1.36206e-05
1.3621e-05
1.36217e-05
1.36225e-05
4.09604e-05
5.25348e-05
1.54019e-05
1.96811e-05
4.05991e-05
5.27437e-05
1.5485e-05
6.9206e-05
6.92002e-05
4.09645e-05
1.54046e-05
5.25361e-05
1.96819e-05
4.0598e-05
1.54873e-05
5.27455e-05
6.27663e-05
6.27752e-05
2.53694e-05
6.28693e-05
6.28775e-05
6.01502e-05
7.03807e-05
5.99916e-05
7.03921e-05
6.91739e-05
6.91696e-05
6.01502e-05
7.0382e-05
5.99926e-05
7.03928e-05
1.36334e-05
1.36341e-05
1.36329e-05
1.36913e-05
1.36918e-05
1.36926e-05
1.3694e-05
4.19995e-05
5.31525e-05
1.57681e-05
2.04406e-05
4.16566e-05
5.33459e-05
1.5864e-05
6.91741e-05
6.91698e-05
4.20023e-05
1.57707e-05
5.31519e-05
2.04415e-05
4.16552e-05
1.58662e-05
5.33474e-05
6.30679e-05
6.30766e-05
2.6411e-05
6.31635e-05
6.31718e-05
6.05088e-05
7.0406e-05
6.03623e-05
7.04174e-05
6.91458e-05
6.91428e-05
6.05103e-05
7.04071e-05
6.03641e-05
7.04181e-05
1.37167e-05
1.37174e-05
1.37162e-05
1.38065e-05
1.38072e-05
1.38081e-05
1.381e-05
4.29577e-05
5.37278e-05
1.61953e-05
2.12504e-05
4.26319e-05
5.39089e-05
1.63024e-05
6.91461e-05
6.9143e-05
4.29589e-05
1.61982e-05
5.37272e-05
2.12519e-05
4.26286e-05
1.63051e-05
5.39102e-05
6.33504e-05
6.3359e-05
2.74674e-05
6.34404e-05
6.34494e-05
6.08452e-05
7.04312e-05
6.07077e-05
7.04432e-05
6.91208e-05
6.91186e-05
6.08471e-05
7.04325e-05
6.07095e-05
7.04439e-05
1.38447e-05
1.38454e-05
1.38441e-05
1.39658e-05
1.39668e-05
1.39678e-05
1.397e-05
4.38455e-05
5.42657e-05
1.66799e-05
2.21033e-05
4.35336e-05
5.44357e-05
1.67972e-05
6.91215e-05
6.91194e-05
4.38441e-05
1.66826e-05
5.4265e-05
2.21055e-05
4.3528e-05
1.67992e-05
5.44356e-05
6.3618e-05
6.36268e-05
2.85277e-05
6.37035e-05
6.37134e-05
6.11677e-05
7.04571e-05
6.10337e-05
7.04694e-05
6.90979e-05
6.90962e-05
6.11677e-05
7.04583e-05
6.10352e-05
7.04699e-05
1.40165e-05
1.40174e-05
1.40158e-05
1.41681e-05
1.41695e-05
1.41706e-05
1.41729e-05
4.46706e-05
5.4772e-05
1.72176e-05
2.29916e-05
4.43713e-05
5.49335e-05
1.73436e-05
6.90993e-05
6.90979e-05
4.46697e-05
1.72195e-05
5.47711e-05
2.29943e-05
4.43659e-05
1.73446e-05
5.49329e-05
6.38724e-05
6.38836e-05
2.95309e-05
6.39552e-05
6.39674e-05
6.14779e-05
7.04831e-05
6.13484e-05
7.04947e-05
6.90761e-05
6.90745e-05
6.14749e-05
7.0484e-05
6.13474e-05
7.0495e-05
1.4231e-05
1.42319e-05
1.42301e-05
1.4412e-05
1.44137e-05
1.44151e-05
1.44173e-05
4.54402e-05
5.52509e-05
1.78017e-05
2.39071e-05
4.51527e-05
5.54043e-05
1.79352e-05
6.90787e-05
6.90776e-05
4.54434e-05
1.7803e-05
5.52484e-05
2.39101e-05
4.515e-05
1.79352e-05
5.54072e-05
6.41185e-05
6.41316e-05
3.0503e-05
6.41996e-05
6.42139e-05
6.17743e-05
7.05081e-05
6.16518e-05
7.05183e-05
6.9054e-05
6.90517e-05
6.17675e-05
7.05078e-05
6.1648e-05
7.05179e-05
1.44859e-05
1.4487e-05
1.44847e-05
1.46949e-05
1.4697e-05
1.46989e-05
1.47007e-05
4.61639e-05
5.57057e-05
1.84256e-05
2.48412e-05
4.58856e-05
5.58518e-05
1.85657e-05
6.90583e-05
6.90568e-05
4.61644e-05
1.8426e-05
5.57028e-05
2.48451e-05
4.58838e-05
1.85647e-05
5.58571e-05
6.43573e-05
6.43724e-05
3.14917e-05
6.44374e-05
6.44534e-05
6.20493e-05
7.05299e-05
6.19363e-05
7.05387e-05
6.90294e-05
6.90255e-05
6.2044e-05
7.05291e-05
6.19303e-05
7.05376e-05
1.47783e-05
1.47798e-05
1.47769e-05
1.5013e-05
1.50159e-05
1.50184e-05
1.50191e-05
4.68435e-05
5.61351e-05
1.90826e-05
2.57851e-05
4.65756e-05
5.62773e-05
1.9229e-05
6.90363e-05
6.90335e-05
4.6833e-05
1.90822e-05
5.61333e-05
2.57908e-05
4.6567e-05
1.92264e-05
5.62824e-05
6.45848e-05
6.46026e-05
3.24053e-05
6.4662e-05
6.46802e-05
6.2301e-05
7.05458e-05
6.21978e-05
7.05515e-05
6.9e-05
6.89942e-05
6.22964e-05
7.05458e-05
6.21942e-05
7.05521e-05
1.51043e-05
1.51067e-05
1.51024e-05
1.53605e-05
1.53644e-05
1.53685e-05
1.5367e-05
4.74782e-05
5.65401e-05
1.97662e-05
2.67264e-05
4.72236e-05
5.66753e-05
1.99177e-05
6.90106e-05
6.9006e-05
4.74511e-05
1.97631e-05
5.65369e-05
2.67355e-05
4.7202e-05
1.9912e-05
5.66765e-05
6.4797e-05
6.48174e-05
3.32473e-05
6.48683e-05
6.48893e-05
6.25222e-05
7.05539e-05
6.24351e-05
7.05565e-05
6.89658e-05
6.89586e-05
6.25236e-05
7.05562e-05
6.24316e-05
7.05605e-05
1.54579e-05
1.54619e-05
1.54554e-05
1.57292e-05
1.57349e-05
1.57411e-05
1.57362e-05
4.80604e-05
5.69119e-05
2.04662e-05
2.76505e-05
4.78261e-05
5.70328e-05
2.06213e-05
6.898e-05
6.89739e-05
4.80187e-05
2.04594e-05
5.69048e-05
2.76629e-05
4.77894e-05
2.06109e-05
5.70296e-05
6.49865e-05
6.5012e-05
3.40924e-05
6.50481e-05
6.50753e-05
6.27111e-05
7.05536e-05
6.2637e-05
7.05534e-05
6.89292e-05
6.89226e-05
6.27225e-05
7.05616e-05
6.26413e-05
7.05641e-05
1.58307e-05
1.58373e-05
1.58273e-05
1.61087e-05
1.61165e-05
1.61258e-05
1.61164e-05
4.85874e-05
5.72362e-05
2.11703e-05
2.85415e-05
4.83756e-05
5.73421e-05
2.13244e-05
6.89462e-05
6.89396e-05
4.8528e-05
2.1157e-05
5.72224e-05
2.85541e-05
4.83233e-05
2.13076e-05
5.73296e-05
6.51439e-05
6.518e-05
3.48316e-05
6.51939e-05
6.5233e-05
6.28729e-05
7.05482e-05
6.28129e-05
7.05481e-05
6.88964e-05
6.88932e-05
6.29005e-05
7.05633e-05
6.28246e-05
7.05658e-05
1.6212e-05
1.62219e-05
1.62079e-05
1.64885e-05
1.64971e-05
1.65113e-05
1.64957e-05
4.90634e-05
5.75152e-05
2.18622e-05
2.9379e-05
4.88743e-05
5.76081e-05
2.20117e-05
6.89126e-05
6.89071e-05
4.89796e-05
2.18404e-05
5.74973e-05
2.93931e-05
4.87976e-05
2.19862e-05
5.75957e-05
6.52752e-05
6.5323e-05
3.55556e-05
6.53201e-05
6.53715e-05
6.30156e-05
7.05447e-05
6.29629e-05
7.05462e-05
6.88747e-05
6.88766e-05
6.30631e-05
7.05669e-05
6.29925e-05
7.0571e-05
1.65904e-05
1.66058e-05
1.65855e-05
1.68599e-05
1.68662e-05
1.68887e-05
1.68638e-05
4.94922e-05
5.77578e-05
2.2532e-05
3.01545e-05
4.93177e-05
5.78384e-05
2.26746e-05
6.88844e-05
6.88831e-05
4.93887e-05
2.25013e-05
5.77508e-05
3.01786e-05
4.92213e-05
2.2641e-05
5.78444e-05
6.53933e-05
6.54547e-05
3.61854e-05
6.5434e-05
6.55002e-05
6.3147e-05
7.05466e-05
6.30906e-05
7.055e-05
6.88667e-05
6.88735e-05
6.32068e-05
7.0574e-05
6.31532e-05
7.05778e-05
1.69562e-05
1.69806e-05
1.69514e-05
1.72159e-05
1.72165e-05
1.72503e-05
1.72152e-05
4.9857e-05
5.79673e-05
2.31692e-05
3.08584e-05
4.9712e-05
5.80398e-05
2.33e-05
6.88693e-05
6.88734e-05
4.97381e-05
2.31354e-05
5.79874e-05
3.09044e-05
4.9603e-05
2.32663e-05
5.8069e-05
6.54961e-05
6.55773e-05
3.67154e-05
6.55352e-05
6.56191e-05
6.32602e-05
7.05531e-05
6.321e-05
7.05606e-05
6.88708e-05
6.88804e-05
6.3328e-05
7.05853e-05
6.32792e-05
7.05945e-05
1.73029e-05
1.73391e-05
1.73004e-05
1.75527e-05
1.75428e-05
1.75889e-05
1.7544e-05
5.01705e-05
5.81592e-05
2.37488e-05
3.14904e-05
5.00514e-05
5.82305e-05
2.3864e-05
6.88679e-05
6.88762e-05
5.00401e-05
2.3725e-05
5.81902e-05
3.15587e-05
4.99186e-05
2.38405e-05
5.82683e-05
6.55914e-05
6.5693e-05
3.73413e-05
6.56226e-05
6.57343e-05
6.33657e-05
7.05682e-05
6.33324e-05
7.0578e-05
6.88797e-05
6.88898e-05
6.34456e-05
7.06076e-05
6.33929e-05
7.06188e-05
1.76254e-05
1.76732e-05
1.76269e-05
1.78606e-05
1.78381e-05
1.78912e-05
1.78425e-05
5.04675e-05
5.83519e-05
2.42702e-05
3.20429e-05
5.03378e-05
5.84255e-05
2.43711e-05
6.88762e-05
6.88871e-05
5.03057e-05
2.42501e-05
5.8398e-05
3.21261e-05
5.01925e-05
2.43486e-05
5.8463e-05
6.56797e-05
6.58042e-05
3.78175e-05
6.5717e-05
6.58467e-05
6.34223e-05
7.05923e-05
6.33981e-05
7.06108e-05
6.88907e-05
6.8901e-05
6.35608e-05
7.06326e-05
6.35132e-05
7.0649e-05
1.79188e-05
1.7972e-05
1.79255e-05
1.81313e-05
1.80971e-05
1.81486e-05
1.81073e-05
5.07653e-05
5.84838e-05
2.47381e-05
3.25136e-05
5.06583e-05
5.84926e-05
2.48211e-05
6.88923e-05
6.89068e-05
5.05383e-05
2.47155e-05
5.8527e-05
3.25909e-05
5.04483e-05
2.47995e-05
5.8531e-05
6.57696e-05
6.5911e-05
3.82063e-05
6.58073e-05
6.59402e-05
6.35353e-05
7.0636e-05
6.34874e-05
7.06536e-05
6.89014e-05
6.89134e-05
6.36772e-05
7.06615e-05
6.36264e-05
7.06702e-05
1.81813e-05
1.8232e-05
1.81944e-05
5.09818e-05
5.85558e-05
2.51497e-05
3.29137e-05
5.09214e-05
5.86089e-05
2.52104e-05
6.89169e-05
6.89324e-05
5.07783e-05
2.51362e-05
5.8584e-05
3.29688e-05
5.06844e-05
2.51978e-05
5.86442e-05
6.58619e-05
6.59619e-05
3.85447e-05
6.58953e-05
6.59656e-05
6.95596e-05
6.95415e-05
6.95614e-05
6.95434e-05
5.97124e-05
5.9721e-05
1.8885e-05
5.99129e-05
5.9922e-05
6.95082e-05
6.95254e-05
6.95103e-05
6.95272e-05
1.90123e-05
6.0202e-05
6.02107e-05
6.00125e-05
6.00213e-05
5.48446e-05
7.00966e-05
7.01224e-05
5.43663e-05
3.10614e-05
4.64314e-05
1.47086e-05
1.62899e-05
4.6808e-05
1.46747e-05
3.04994e-05
3.10613e-05
4.6431e-05
1.47086e-05
1.62902e-05
4.68154e-05
1.46747e-05
3.04993e-05
5.49839e-05
7.01515e-05
7.01273e-05
5.54221e-05
5.49815e-05
7.01478e-05
7.01234e-05
5.54207e-05
3.13485e-05
1.634e-05
4.73658e-05
1.46213e-05
4.70033e-05
1.46469e-05
3.19014e-05
3.13476e-05
1.63403e-05
4.73702e-05
1.46215e-05
4.70015e-05
1.46468e-05
3.18998e-05
5.97158e-05
5.97146e-05
1.88868e-05
5.99174e-05
5.99144e-05
6.956e-05
6.95419e-05
6.95092e-05
6.95263e-05
1.90101e-05
6.02055e-05
6.02029e-05
6.00161e-05
6.00142e-05
6.95085e-05
6.95255e-05
3.1064e-05
4.64308e-05
1.47093e-05
1.62899e-05
4.6816e-05
1.46753e-05
3.04983e-05
5.48453e-05
7.00969e-05
7.01227e-05
5.43654e-05
3.10636e-05
1.47095e-05
4.64362e-05
1.62915e-05
1.46756e-05
4.68184e-05
3.0497e-05
5.49826e-05
7.01526e-05
7.01284e-05
5.54226e-05
3.13458e-05
1.63399e-05
4.73698e-05
1.4622e-05
4.70036e-05
1.46475e-05
3.19043e-05
5.49813e-05
7.01483e-05
7.01239e-05
5.54216e-05
3.13455e-05
1.63416e-05
1.46223e-05
4.73722e-05
1.46477e-05
4.7004e-05
3.19053e-05
5.48372e-05
7.01014e-05
7.01236e-05
5.43724e-05
3.10585e-05
1.47081e-05
4.64338e-05
1.62895e-05
1.46741e-05
4.68136e-05
3.05014e-05
5.48419e-05
7.00983e-05
7.01205e-05
5.43687e-05
3.13478e-05
1.63396e-05
4.73689e-05
1.46206e-05
4.70022e-05
1.46461e-05
3.18989e-05
5.49874e-05
7.015e-05
7.01267e-05
5.54137e-05
3.13492e-05
1.63395e-05
1.46207e-05
4.73668e-05
1.46462e-05
4.70011e-05
3.19032e-05
5.49841e-05
7.01459e-05
7.01251e-05
5.54181e-05
5.97185e-05
5.97119e-05
1.8868e-05
5.99191e-05
5.99127e-05
6.95599e-05
6.95417e-05
6.951e-05
6.95272e-05
1.90253e-05
6.02072e-05
6.02014e-05
6.00182e-05
6.00122e-05
6.95083e-05
6.95255e-05
3.10604e-05
1.47096e-05
4.64329e-05
1.62913e-05
1.46758e-05
4.68141e-05
3.05034e-05
5.48386e-05
7.01021e-05
7.01239e-05
5.43727e-05
5.48377e-05
7.00994e-05
7.01214e-05
5.43721e-05
3.13505e-05
1.63417e-05
1.46226e-05
4.73639e-05
1.46481e-05
4.70039e-05
3.19049e-05
3.13486e-05
1.6341e-05
1.46225e-05
4.73706e-05
1.46479e-05
4.70044e-05
3.19031e-05
5.49873e-05
7.01492e-05
7.01287e-05
5.54144e-05
5.49865e-05
7.01471e-05
7.01264e-05
5.54135e-05
6.95595e-05
6.95414e-05
6.95615e-05
6.95434e-05
1.90106e-05
6.0199e-05
6.02076e-05
6.00088e-05
6.00176e-05
6.95082e-05
6.95253e-05
6.95102e-05
6.95273e-05
6.94926e-05
6.94764e-05
6.94946e-05
6.94785e-05
6.02966e-05
6.03047e-05
1.95925e-05
6.04755e-05
6.04835e-05
6.9446e-05
6.94612e-05
6.94483e-05
6.94634e-05
1.97675e-05
6.07335e-05
6.07423e-05
6.05645e-05
6.05725e-05
5.59459e-05
7.01485e-05
5.55432e-05
7.01716e-05
3.27306e-05
4.75473e-05
1.46023e-05
1.65352e-05
3.21886e-05
4.78969e-05
1.45853e-05
3.27312e-05
4.75485e-05
1.46024e-05
1.65355e-05
3.21882e-05
4.79003e-05
1.45855e-05
5.60566e-05
7.0197e-05
7.01756e-05
5.64262e-05
5.60547e-05
7.01937e-05
7.0172e-05
5.64251e-05
3.30137e-05
1.66066e-05
4.84037e-05
1.45668e-05
4.80699e-05
1.45752e-05
3.35461e-05
3.30124e-05
1.66068e-05
4.8408e-05
1.45668e-05
4.80713e-05
1.45753e-05
3.35447e-05
6.02985e-05
6.02969e-05
1.95914e-05
6.04792e-05
6.04761e-05
6.94926e-05
6.94766e-05
6.9447e-05
6.94622e-05
1.97707e-05
6.07375e-05
6.07338e-05
6.05671e-05
6.05635e-05
6.94462e-05
6.94612e-05
3.27319e-05
4.75509e-05
1.46029e-05
1.65349e-05
3.21862e-05
4.79011e-05
1.45859e-05
5.5947e-05
7.01491e-05
5.55428e-05
7.01722e-05
3.27338e-05
1.46033e-05
4.75504e-05
1.65369e-05
3.21843e-05
1.45863e-05
4.7902e-05
5.60559e-05
7.01985e-05
7.01769e-05
5.6427e-05
3.30128e-05
1.66061e-05
4.84049e-05
1.45672e-05
4.8074e-05
1.45757e-05
3.35498e-05
5.60545e-05
7.01943e-05
7.01726e-05
5.64257e-05
3.30098e-05
1.66082e-05
1.45676e-05
4.84093e-05
1.45761e-05
4.80733e-05
3.35461e-05
5.59392e-05
7.01508e-05
5.55481e-05
7.01735e-05
3.27319e-05
1.46017e-05
4.75472e-05
1.65348e-05
3.2185e-05
1.45847e-05
4.78979e-05
5.59434e-05
7.015e-05
5.55455e-05
7.01706e-05
3.30109e-05
1.66062e-05
4.8405e-05
1.45661e-05
4.80721e-05
1.45745e-05
3.35446e-05
5.60591e-05
7.01943e-05
7.01747e-05
5.6418e-05
3.30103e-05
1.6606e-05
1.4566e-05
4.84035e-05
1.45745e-05
4.80688e-05
3.35455e-05
5.60569e-05
7.01935e-05
7.01717e-05
5.64225e-05
6.03015e-05
6.02965e-05
1.96161e-05
6.04807e-05
6.04747e-05
6.94928e-05
6.94766e-05
6.94479e-05
6.94631e-05
1.9758e-05
6.07381e-05
6.07335e-05
6.05694e-05
6.05637e-05
6.94462e-05
6.94615e-05
3.27311e-05
1.46035e-05
4.75494e-05
1.65364e-05
3.21864e-05
1.45865e-05
4.79011e-05
5.59396e-05
7.01537e-05
5.55478e-05
7.0173e-05
5.59386e-05
7.01514e-05
5.55469e-05
7.0171e-05
3.30102e-05
1.66082e-05
1.45679e-05
4.84012e-05
1.45764e-05
4.8072e-05
3.35477e-05
3.30117e-05
1.66074e-05
1.45678e-05
4.84065e-05
1.45763e-05
4.80717e-05
3.35432e-05
5.60587e-05
7.01951e-05
7.01771e-05
5.64186e-05
5.60578e-05
7.01932e-05
7.0175e-05
5.64175e-05
6.94926e-05
6.94766e-05
6.94947e-05
6.94786e-05
1.97547e-05
6.07298e-05
6.07403e-05
6.0561e-05
6.05703e-05
6.94464e-05
6.94615e-05
6.94484e-05
6.94636e-05
6.94314e-05
6.94172e-05
6.94337e-05
6.94196e-05
6.08182e-05
6.08266e-05
2.04054e-05
6.09788e-05
6.09872e-05
6.93899e-05
6.94031e-05
6.93923e-05
6.94054e-05
2.06034e-05
6.12114e-05
6.12202e-05
6.10594e-05
6.10666e-05
5.68626e-05
7.01939e-05
5.65216e-05
7.02144e-05
3.43397e-05
4.85701e-05
1.45656e-05
1.6867e-05
3.38206e-05
4.88904e-05
1.45671e-05
3.43399e-05
4.85705e-05
1.45655e-05
1.68671e-05
3.38197e-05
4.88934e-05
1.45674e-05
5.69496e-05
7.02362e-05
7.02181e-05
5.7264e-05
5.69479e-05
7.02331e-05
7.02145e-05
5.7263e-05
3.46079e-05
1.6959e-05
4.93526e-05
1.45835e-05
4.90486e-05
1.45727e-05
3.51128e-05
3.46072e-05
1.69588e-05
4.9358e-05
1.45838e-05
4.90499e-05
1.45715e-05
3.51131e-05
6.08199e-05
6.08165e-05
2.04089e-05
6.09823e-05
6.09784e-05
6.94313e-05
6.94173e-05
6.9391e-05
6.94042e-05
2.06077e-05
6.12141e-05
6.1209e-05
6.1061e-05
6.10562e-05
6.93896e-05
6.94027e-05
3.43431e-05
4.8575e-05
1.45659e-05
1.68662e-05
3.38171e-05
4.88917e-05
1.45678e-05
5.68629e-05
7.01944e-05
5.65212e-05
7.02149e-05
3.43428e-05
1.45662e-05
4.85727e-05
1.68686e-05
3.38185e-05
1.45681e-05
4.8893e-05
5.69488e-05
7.0237e-05
7.02196e-05
5.72649e-05
3.46062e-05
1.6958e-05
4.93556e-05
1.45842e-05
4.90529e-05
1.4572e-05
3.51158e-05
5.69473e-05
7.02334e-05
7.02148e-05
5.72632e-05
3.46047e-05
1.69605e-05
1.45845e-05
4.93572e-05
1.45722e-05
4.90506e-05
3.51156e-05
5.68557e-05
7.01976e-05
5.65251e-05
7.02144e-05
3.43411e-05
1.45647e-05
4.85703e-05
1.68664e-05
3.38179e-05
1.45666e-05
4.88867e-05
5.68602e-05
7.01936e-05
5.65235e-05
7.02144e-05
3.46044e-05
1.69587e-05
4.93559e-05
1.4583e-05
4.90495e-05
1.45711e-05
3.51129e-05
5.69511e-05
7.02335e-05
7.02178e-05
5.72564e-05
3.46059e-05
1.69581e-05
1.4583e-05
4.93529e-05
1.45708e-05
4.90503e-05
3.51116e-05
5.69497e-05
7.02333e-05
7.02144e-05
5.72608e-05
6.08235e-05
6.08171e-05
2.04079e-05
6.09839e-05
6.09779e-05
6.94316e-05
6.94173e-05
6.93916e-05
6.9405e-05
2.0608e-05
6.12154e-05
6.12104e-05
6.10633e-05
6.10573e-05
6.93899e-05
6.94032e-05
3.4339e-05
1.45665e-05
4.85733e-05
1.6868e-05
3.38188e-05
1.45679e-05
4.88935e-05
5.68563e-05
7.01989e-05
5.65246e-05
7.02161e-05
5.68552e-05
7.01969e-05
5.65234e-05
7.02143e-05
3.46063e-05
1.69605e-05
1.45845e-05
4.93533e-05
1.45728e-05
4.90485e-05
3.51123e-05
3.46068e-05
1.69594e-05
1.45844e-05
4.9355e-05
1.45736e-05
4.90499e-05
3.51118e-05
5.69506e-05
7.02349e-05
7.02189e-05
5.72569e-05
5.69498e-05
7.02326e-05
7.02165e-05
5.72559e-05
6.94318e-05
6.94178e-05
6.94338e-05
6.94195e-05
2.05888e-05
6.12076e-05
6.1216e-05
6.10553e-05
6.10638e-05
6.93907e-05
6.94038e-05
6.93921e-05
6.94055e-05
6.93761e-05
6.93638e-05
6.93785e-05
6.93663e-05
6.12872e-05
6.12952e-05
2.1326e-05
6.14317e-05
6.14405e-05
6.93391e-05
6.93505e-05
6.93415e-05
6.93529e-05
2.14948e-05
6.16421e-05
6.16509e-05
6.15043e-05
6.15123e-05
5.76304e-05
7.02338e-05
5.73388e-05
7.02504e-05
3.58642e-05
4.95065e-05
1.45949e-05
1.72818e-05
3.5374e-05
4.97976e-05
1.46176e-05
3.58631e-05
4.95067e-05
1.45946e-05
1.72819e-05
3.53725e-05
4.98021e-05
1.46175e-05
5.76989e-05
7.02695e-05
7.02553e-05
5.79702e-05
5.76975e-05
7.02666e-05
7.02523e-05
5.7969e-05
3.6115e-05
1.73935e-05
5.02221e-05
1.46678e-05
4.99446e-05
1.46357e-05
3.65886e-05
3.61151e-05
1.73936e-05
5.02243e-05
1.46675e-05
4.99457e-05
1.46354e-05
3.65883e-05
6.12895e-05
6.12838e-05
2.13018e-05
6.14354e-05
6.1429e-05
6.93755e-05
6.93633e-05
6.93405e-05
6.93518e-05
2.15101e-05
6.16458e-05
6.16381e-05
6.15067e-05
6.15002e-05
6.93384e-05
6.93496e-05
3.58652e-05
4.95103e-05
1.45951e-05
1.72808e-05
3.53735e-05
4.98004e-05
1.4618e-05
5.76305e-05
7.02343e-05
5.73378e-05
7.02507e-05
3.58651e-05
1.45952e-05
4.95075e-05
1.72835e-05
3.53711e-05
1.46182e-05
4.98012e-05
5.76982e-05
7.02713e-05
7.02571e-05
5.79707e-05
3.61165e-05
1.73924e-05
5.02258e-05
1.46681e-05
4.99481e-05
1.46359e-05
3.65899e-05
5.76965e-05
7.02677e-05
7.02507e-05
5.79689e-05
3.6114e-05
1.73951e-05
1.46684e-05
5.02243e-05
1.46362e-05
4.99445e-05
3.65894e-05
5.76242e-05
7.02366e-05
5.73412e-05
7.02514e-05
3.58632e-05
1.45939e-05
4.95084e-05
1.72814e-05
3.53729e-05
1.46165e-05
4.97986e-05
5.76286e-05
7.02337e-05
5.73401e-05
7.02516e-05
3.61123e-05
1.73936e-05
5.02241e-05
1.46657e-05
4.99413e-05
1.46361e-05
3.65895e-05
5.76995e-05
7.02679e-05
7.02541e-05
5.7963e-05
3.61159e-05
1.73929e-05
1.46667e-05
5.02225e-05
1.46351e-05
4.99463e-05
3.65901e-05
5.76987e-05
7.0268e-05
7.02518e-05
5.79675e-05
6.12908e-05
6.12856e-05
2.13257e-05
6.14364e-05
6.14307e-05
6.93762e-05
6.93638e-05
6.93407e-05
6.93522e-05
2.14966e-05
6.1646e-05
6.16408e-05
6.1507e-05
6.1503e-05
6.93389e-05
6.93504e-05
3.58621e-05
1.45958e-05
4.9509e-05
1.72827e-05
3.53732e-05
1.46182e-05
4.97988e-05
5.76251e-05
7.02381e-05
5.73409e-05
7.02532e-05
5.76237e-05
7.0236e-05
5.734e-05
7.02509e-05
3.61153e-05
1.73952e-05
1.46675e-05
5.02244e-05
1.46381e-05
4.99439e-05
3.65892e-05
3.61143e-05
1.7394e-05
1.46685e-05
5.02246e-05
1.46368e-05
4.99479e-05
3.65899e-05
5.76997e-05
7.02703e-05
7.02548e-05
5.7964e-05
5.76982e-05
7.02675e-05
7.02535e-05
5.79624e-05
6.9377e-05
6.93648e-05
6.93784e-05
6.9366e-05
2.15021e-05
6.1639e-05
6.16466e-05
6.1501e-05
6.15089e-05
6.93401e-05
6.93514e-05
6.93413e-05
6.93527e-05
6.93261e-05
6.93156e-05
6.93285e-05
6.93179e-05
6.17109e-05
6.17193e-05
2.22843e-05
6.18421e-05
6.18505e-05
6.92932e-05
6.93029e-05
6.92954e-05
6.93052e-05
2.24638e-05
6.20325e-05
6.20409e-05
6.19076e-05
6.19163e-05
5.82814e-05
7.0269e-05
5.80286e-05
7.02823e-05