/*--------------------------------*- C++ -*----------------------------------*\
| =========                 |                                                 |
| \\      /  F ield         | OpenFOAM: The Open Source CFD Toolbox           |
|  \\    /   O peration     | Version:  2312                                  |
|   \\  /    A nd           | Website:  www.openfoam.com                      |
|    \\/     M anipulation  |                                                 |
\*---------------------------------------------------------------------------*/
FoamFile
{
    version     2.0;
    format      ascii;
    arch        "LSB;label=32;scalar=64";
    class       volScalarField;
    location    "200";
    object      p;
}
// * * * * * * * * * * * * * * * * * * * * * * * * * * * * * * * * * * * * * //

dimensions      [0 2 -2 0 0 0 0];

internalField   nonuniform List<scalar> 
42840
(
0.00258292
0.00258292
0.00258292
0.00258478
0.00254348
0.00254347
0.00254347
0.00254532
0.00250426
0.00250425
0.00250425
0.00250608
0.00246525
0.00246524
0.00246524
0.00246706
0.00242645
0.00242644
0.00242644
0.00242824
0.00238785
0.00238784
0.00238783
0.00238962
0.00234944
0.00234942
0.00234942
0.00235119
0.0023112
0.00231118
0.00231118
0.00231294
0.00227314
0.00227312
0.00227312
0.00227486
0.00223523
0.00223521
0.00223521
0.00223693
0.00219746
0.00219743
0.00219743
0.00219914
0.0021598
0.00215978
0.00215978
0.00216148
0.00212225
0.00212223
0.00212223
0.00212391
0.00208478
0.00208475
0.00208475
0.00208642
0.00204737
0.00204734
0.00204734
0.00204901
0.00201003
0.00200999
0.00200999
0.00201165
0.00197277
0.00197274
0.00197273
0.00197439
0.00193564
0.0019356
0.0019356
0.00193724
0.00189869
0.00189865
0.00189865
0.00190028
0.00186198
0.00186194
0.00186194
0.00186355
0.00182556
0.00182551
0.00182552
0.00182712
0.00178943
0.00178938
0.00178939
0.00179098
0.00175357
0.00175353
0.00175353
0.00175511
0.00171795
0.00171791
0.0017179
0.00171948
0.00168252
0.00168249
0.00168249
0.00168406
0.00258477
0.00255155
0.00258292
0.00258292
0.00255331
0.00255331
0.00258477
0.00255155
0.00258292
0.00258292
0.00255331
0.00255331
0.00258292
0.00255331
0.00255331
0.00258477
0.00255155
0.00258292
0.00255331
0.00255331
0.00255155
0.00254531
0.00251229
0.00254347
0.00254347
0.00251404
0.00251403
0.00254531
0.00251229
0.00254347
0.00254347
0.00251404
0.00251404
0.00254347
0.00251403
0.00251404
0.00254532
0.00251229
0.00254347
0.00251404
0.00251404
0.00251229
0.00250608
0.00247324
0.00250425
0.00250425
0.00247497
0.00247497
0.00250608
0.00247324
0.00250425
0.00250425
0.00247497
0.00247497
0.00250425
0.00247497
0.00247497
0.00250608
0.00247324
0.00250425
0.00247497
0.00247497
0.00247324
0.00246706
0.0024344
0.00246524
0.00246524
0.00243612
0.00243612
0.00246706
0.0024344
0.00246524
0.00246524
0.00243612
0.00243612
0.00246524
0.00243612
0.00243612
0.00246706
0.0024344
0.00246524
0.00243612
0.00243612
0.0024344
0.00242824
0.00239576
0.00242644
0.00242644
0.00239747
0.00239747
0.00242824
0.00239576
0.00242644
0.00242644
0.00239747
0.00239747
0.00242644
0.00239747
0.00239747
0.00242824
0.00239576
0.00242644
0.00239747
0.00239747
0.00239576
0.00238962
0.0023573
0.00238784
0.00238784
0.00235901
0.00235901
0.00238962
0.0023573
0.00238784
0.00238784
0.00235901
0.00235901
0.00238784
0.00235901
0.00235901
0.00238962
0.0023573
0.00238784
0.00235901
0.00235901
0.0023573
0.00235119
0.00231903
0.00234942
0.00234942
0.00232073
0.00232073
0.00235119
0.00231903
0.00234942
0.00234942
0.00232073
0.00232073
0.00234942
0.00232073
0.00232073
0.00235119
0.00231903
0.00234942
0.00232073
0.00232073
0.00231903
0.00231294
0.00228092
0.00231118
0.00231118
0.00228262
0.00228262
0.00231294
0.00228092
0.00231119
0.00231118
0.00228262
0.00228262
0.00231118
0.00228262
0.00228262
0.00231294
0.00228092
0.00231118
0.00228262
0.00228262
0.00228092
0.00227486
0.00224298
0.00227312
0.00227312
0.00224467
0.00224467
0.00227486
0.00224298
0.00227312
0.00227312
0.00224467
0.00224467
0.00227312
0.00224467
0.00224467
0.00227486
0.00224298
0.00227312
0.00224467
0.00224467
0.00224298
0.00223693
0.00220517
0.00223521
0.00223521
0.00220686
0.00220686
0.00223693
0.00220517
0.00223521
0.00223521
0.00220686
0.00220686
0.00223521
0.00220686
0.00220687
0.00223693
0.00220517
0.00223521
0.00220686
0.00220687
0.00220517
0.00219914
0.00216749
0.00219743
0.00219743
0.00216918
0.00216918
0.00219914
0.00216749
0.00219743
0.00219743
0.00216918
0.00216918
0.00219743
0.00216918
0.00216918
0.00219914
0.00216749
0.00219743
0.00216918
0.00216918
0.00216749
0.00216148
0.00212991
0.00215978
0.00215978
0.00213161
0.00213161
0.00216148
0.00212991
0.00215978
0.00215978
0.00213161
0.00213161
0.00215978
0.00213161
0.00213161
0.00216147
0.00212991
0.00215978
0.00213161
0.00213161
0.00212991
0.00212391
0.00209242
0.00212223
0.00212223
0.00209411
0.00209411
0.00212391
0.00209242
0.00212223
0.00212223
0.00209411
0.00209411
0.00212223
0.00209411
0.00209411
0.00212391
0.00209242
0.00212223
0.00209411
0.00209411
0.00209242
0.00208642
0.00205499
0.00208475
0.00208475
0.00205669
0.00205669
0.00208643
0.00205499
0.00208475
0.00208475
0.00205668
0.00205668
0.00208475
0.00205669
0.00205669
0.00208642
0.00205499
0.00208475
0.00205668
0.00205669
0.00205499
0.002049
0.00201763
0.00204734
0.00204734
0.00201932
0.00201932
0.00204901
0.00201763
0.00204734
0.00204734
0.00201932
0.00201932
0.00204734
0.00201932
0.00201932
0.00204901
0.00201763
0.00204734
0.00201932
0.00201932
0.00201763
0.00201165
0.00198035
0.00200999
0.00200999
0.00198204
0.00198204
0.00201165
0.00198035
0.00200999
0.00200999
0.00198204
0.00198204
0.00200999
0.00198204
0.00198204
0.00201165
0.00198035
0.00200999
0.00198204
0.00198204
0.00198035
0.00197438
0.00194318
0.00197273
0.00197273
0.00194487
0.00194487
0.00197439
0.00194318
0.00197273
0.00197273
0.00194487
0.00194487
0.00197273
0.00194487
0.00194487
0.00197438
0.00194318
0.00197273
0.00194487
0.00194487
0.00194318
0.00193724
0.00190618
0.0019356
0.0019356
0.00190786
0.00190786
0.00193724
0.00190619
0.0019356
0.0019356
0.00190786
0.00190787
0.0019356
0.00190786
0.00190787
0.00193724
0.00190619
0.0019356
0.00190787
0.00190787
0.00190619
0.00190028
0.00186942
0.00189864
0.00189864
0.00187109
0.00187109
0.00190028
0.00186942
0.00189864
0.00189865
0.00187109
0.00187109
0.00189865
0.00187109
0.00187109
0.00190028
0.00186943
0.00189865
0.00187109
0.00187109
0.00186942
0.00186355
0.00183294
0.00186193
0.00186194
0.00183459
0.00183459
0.00186355
0.00183294
0.00186194
0.00186194
0.0018346
0.0018346
0.00186193
0.00183459
0.00183459
0.00186356
0.00183295
0.00186194
0.0018346
0.00183459
0.00183294
0.00182712
0.00179676
0.00182551
0.00182551
0.00179839
0.00179839
0.00182712
0.00179675
0.00182552
0.00182552
0.0017984
0.0017984
0.00182551
0.00179839
0.00179839
0.00182712
0.00179676
0.00182551
0.0017984
0.0017984
0.00179675
0.00179098
0.00176085
0.00178939
0.00178938
0.00176247
0.00176247
0.00179097
0.00176085
0.00178939
0.00178939
0.00176247
0.00176247
0.00178938
0.00176247
0.00176247
0.00179098
0.00176085
0.00178939
0.00176247
0.00176247
0.00176084
0.00175512
0.00172519
0.00175353
0.00175353
0.00172679
0.0017268
0.00175511
0.00172518
0.00175353
0.00175353
0.0017268
0.00172679
0.00175353
0.00172679
0.00172679
0.00175511
0.00172518
0.00175353
0.00172679
0.00172679
0.00172518
0.00171949
0.00168973
0.00171791
0.00171791
0.00169133
0.00169133
0.00171948
0.00168973
0.00171791
0.00171791
0.00169133
0.00169133
0.00171791
0.00169133
0.00169133
0.00171948
0.00168973
0.00171791
0.00169132
0.00169133
0.00168973
0.00168405
0.00168249
0.00168249
0.00168406
0.00168248
0.00168249
0.00168249
0.00168405
0.00168249
0.00257056
0.00258508
0.00257046
0.00258516
0.00258506
0.00257043
0.00257056
0.00258509
0.00257046
0.00258516
0.00258292
0.00258292
0.00258292
0.00255332
0.00255332
0.00255332
0.00255332
0.00257085
0.00258507
0.00258292
0.00257304
0.00257065
0.00257304
0.00258513
0.00258507
0.00257043
0.00257085
0.00258292
0.00258507
0.00257304
0.00257304
0.00257065
0.00258513
0.00258511
0.00258511
0.00257127
0.00257049
0.00257049
0.00253118
0.00254563
0.00254569
0.00253108
0.00254561
0.00253105
0.00253118
0.00254563
0.00254569
0.00253108
0.00254348
0.00254348
0.00254348
0.00251404
0.00251404
0.00251404
0.00251404
0.00253146
0.00254561
0.00254347
0.00253365
0.00254566
0.00253126
0.00253365
0.00254561
0.00253105
0.00253146
0.00254347
0.00254561
0.00253365
0.00254566
0.00253365
0.00253126
0.00254565
0.00254565
0.00253189
0.00253111
0.00253111
0.00249201
0.00250639
0.00250645
0.00249193
0.00250638
0.0024919
0.00249201
0.00250639
0.00250645
0.00249193
0.00250426
0.00250426
0.00250426
0.00247498
0.00247498
0.00247498
0.00247498
0.00249228
0.00250637
0.00250425
0.00249448
0.00250641
0.0024921
0.00249448
0.00250638
0.0024919
0.00249228
0.00250425
0.00250637
0.00249448
0.00250641
0.00249448
0.0024921
0.00250641
0.00250641
0.00249274
0.00249195
0.00249195
0.00245306
0.00246737
0.00246743
0.00245298
0.00246736
0.00245295
0.00245306
0.00246737
0.00246743
0.00245298
0.00246525
0.00246525
0.00246525
0.00243613
0.00243613
0.00243613
0.00243613
0.00245331
0.00246735
0.00246524
0.00245552
0.00246738
0.00245314
0.00245552
0.00246736
0.00245295
0.00245331
0.00246524
0.00246735
0.00245552
0.00246738
0.00245552
0.00245314
0.00246739
0.00246739
0.0024538
0.002453
0.002453
0.00241432
0.00242856
0.00242861
0.00241424
0.00242855
0.00241421
0.00241432
0.00242856
0.00242861
0.00241424
0.00242645
0.00242645
0.00242645
0.00239748
0.00239748
0.00239748
0.00239748
0.00241456
0.00242853
0.00242644
0.00241677
0.00242856
0.00241438
0.00241677
0.00242855
0.00241422
0.00241456
0.00242644
0.00242853
0.00241677
0.00242856
0.00241677
0.00241438
0.00242858
0.00242858
0.00241506
0.00241426
0.00241426
0.00237576
0.00238995
0.00238999
0.00237569
0.00238994
0.00237567
0.00237577
0.00238995
0.00238999
0.00237569
0.00238785
0.00238785
0.00238785
0.00235902
0.00235902
0.00235902
0.00235902
0.00237599
0.00238992
0.00238784
0.00237821
0.00238994
0.00237583
0.00237822
0.00238994
0.00237567
0.00237599
0.00238784
0.00238992
0.00237821
0.00238994
0.00237822
0.00237583
0.00238996
0.00238996
0.00237651
0.00237571
0.00237571
0.0023374
0.00235152
0.00235156
0.00233733
0.00235151
0.00233731
0.0023374
0.00235152
0.00235156
0.00233733
0.00234944
0.00234944
0.00234944
0.00232075
0.00232075
0.00232075
0.00232074
0.00233762
0.00235149
0.00234942
0.00233985
0.0023515
0.00233746
0.00233985
0.00235151
0.00233731
0.00233762
0.00234942
0.00235149
0.00233985
0.0023515
0.00233985
0.00233746
0.00235154
0.00235154
0.00233814
0.00233735
0.00233735
0.00229922
0.00231328
0.00231332
0.00229915
0.00231327
0.00229913
0.00229922
0.00231328
0.00231332
0.00229915
0.0023112
0.0023112
0.0023112
0.00228264
0.00228264
0.00228264
0.00228264
0.00229943
0.00231324
0.00231119
0.00230165
0.00231326
0.00229927
0.00230166
0.00231327
0.00229913
0.00229943
0.00231119
0.00231325
0.00230165
0.00231326
0.00230166
0.00229927
0.00231329
0.00231329
0.00229996
0.00229917
0.00229917
0.00226119
0.0022752
0.00227524
0.00226113
0.0022752
0.00226111
0.00226119
0.0022752
0.00227524
0.00226113
0.00227314
0.00227314
0.00227314
0.00224469
0.00224469
0.00224469
0.00224469
0.0022614
0.00227517
0.00227312
0.00226363
0.00227517
0.00226125
0.00226363
0.0022752
0.00226111
0.0022614
0.00227312
0.00227517
0.00226363
0.00227518
0.00226363
0.00226125
0.00227522
0.00227522
0.00226193
0.00226115
0.00226115
0.00222332
0.00223728
0.00223732
0.00222326
0.00223728
0.00222325
0.00222332
0.00223728
0.00223732
0.00222326
0.00223523
0.00223523
0.00223523
0.00220689
0.00220689
0.00220689
0.00220689
0.00222352
0.00223725
0.00223521
0.00222575
0.00223725
0.00222338
0.00222576
0.00223728
0.00222325
0.00222352
0.00223521
0.00223725
0.00222575
0.00223725
0.00222576
0.00222338
0.0022373
0.0022373
0.00222406
0.00222328
0.00222328
0.00218559
0.0021995
0.00219954
0.00218553
0.0021995
0.00218551
0.00218559
0.0021995
0.00219954
0.00218553
0.00219746
0.00219746
0.00219746
0.00216921
0.00216921
0.00216921
0.00216921
0.00218578
0.00219947
0.00219744
0.00218801
0.00219947
0.00218564
0.00218802
0.0021995
0.00218551
0.00218578
0.00219744
0.00219947
0.00218801
0.00219947
0.00218802
0.00218564
0.00219952
0.00219952
0.00218632
0.00218554
0.00218555
0.00214797
0.00216185
0.00216188
0.00214791
0.00216184
0.0021479
0.00214797
0.00216185
0.00216188
0.00214791
0.00215981
0.0021598
0.00215981
0.00213163
0.00213163
0.00213163
0.00213163
0.00214816
0.00216182
0.00215979
0.00215038
0.00216182
0.00214802
0.0021504
0.00216184
0.00214789
0.00214816
0.00215979
0.00216182
0.00215038
0.00216182
0.0021504
0.00214802
0.00216186
0.00216186
0.00214869
0.00214793
0.00214793
0.00211044
0.00212429
0.00212432
0.00211039
0.00212429
0.00211037
0.00211044
0.00212429
0.00212432
0.00211038
0.00212225
0.00212225
0.00212225
0.00209414
0.00209414
0.00209414
0.00209414
0.00211062
0.00212426
0.00212224
0.00211285
0.00212426
0.00211049
0.00211287
0.00212429
0.00211037
0.00211062
0.00212224
0.00212426
0.00211285
0.00212426
0.00211286
0.00211049
0.00212431
0.00212431
0.00211116
0.0021104
0.0021104
0.00207298
0.00208681
0.00208685
0.00207293
0.00208681
0.00207292
0.00207298
0.00208681
0.00208684
0.00207293
0.00208478
0.00208478
0.00208478
0.00205671
0.00205671
0.00205671
0.00205671
0.00207316
0.00208679
0.00208477
0.00207539
0.00208678
0.00207304
0.00207541
0.00208681
0.00207291
0.00207316
0.00208477
0.00208678
0.00207539
0.00208678
0.00207541
0.00207303
0.00208683
0.00208683
0.0020737
0.00207295
0.00207295
0.0020356
0.0020494
0.00204943
0.00203555
0.0020494
0.00203553
0.00203559
0.0020494
0.00204943
0.00203554
0.00204737
0.00204737
0.00204737
0.00201935
0.00201936
0.00201935
0.00201935
0.00203577
0.00204938
0.00204736
0.002038
0.00204937
0.00203565
0.00203802
0.0020494
0.00203553
0.00203577
0.00204736
0.00204937
0.00203799
0.00204937
0.00203801
0.00203564
0.00204942
0.00204942
0.0020363
0.00203556
0.00203556
0.00199828
0.00201206
0.00201209
0.00199823
0.00201206
0.00199821
0.00199827
0.00201206
0.00201209
0.00199823
0.00201003
0.00201003
0.00201003
0.00198207
0.00198208
0.00198207
0.00198207
0.00199845
0.00201203
0.00201002
0.00200067
0.00201202
0.00199833
0.00200069
0.00201206
0.00199821
0.00199845
0.00201001
0.00201203
0.00200067
0.00201202
0.00200069
0.00199832
0.00201208
0.00201208
0.00199897
0.00199824
0.00199824
0.00196106
0.00197481
0.00197483
0.00196101
0.0019748
0.001961
0.00196105
0.0019748
0.00197483
0.00196101
0.00197277
0.00197277
0.00197277
0.00194491
0.00194491
0.00194491
0.00194491
0.00196122
0.00197477
0.00197276
0.00196344
0.00197476
0.00196111
0.00196346
0.0019748
0.001961
0.00196122
0.00197275
0.00197478
0.00196343
0.00197476
0.00196346
0.00196111
0.00197482
0.00197482
0.00196174
0.00196103
0.00196102
0.00192398
0.00193767
0.0019377
0.00192393
0.00193767
0.00192392
0.00192398
0.00193767
0.00193769
0.00192393
0.00193564
0.00193564
0.00193564
0.00190791
0.00190791
0.00190791
0.00190791
0.00192414
0.00193764
0.00193563
0.00192634
0.00193763
0.00192403
0.00192637
0.00193767
0.00192393
0.00192414
0.00193562
0.00193764
0.00192634
0.00193763
0.00192637
0.00192403
0.00193769
0.00193769
0.00192466
0.00192395
0.00192395
0.0018871
0.00190071
0.00190074
0.00188706
0.00190073
0.00188705
0.0018871
0.00190072
0.00190074
0.00188706
0.00189869
0.00189869
0.00189869
0.00187114
0.00187114
0.00187114
0.00187114
0.00188725
0.00190069
0.00189867
0.00188944
0.00190066
0.00188715
0.00188947
0.00190072
0.00188705
0.00188725
0.00189867
0.00190069
0.00188944
0.00190067
0.00188947
0.00188715
0.00190073
0.00190073
0.00188777
0.00188707
0.00188707
0.00185048
0.001864
0.00186402
0.00185045
0.001864
0.00185044
0.00185048
0.001864
0.00186402
0.00185045
0.00186198
0.00186199
0.00186198
0.00183464
0.00183464
0.00183465
0.00183464
0.00185063
0.00186397
0.00186197
0.0018528
0.00186394
0.00185053
0.00185283
0.00186401
0.00185044
0.00185063
0.00186197
0.00186397
0.00185281
0.00186395
0.00185284
0.00185053
0.00186402
0.00186402
0.00185114
0.00185046
0.00185046
0.00181416
0.00182758
0.00182759
0.00181414
0.00182758
0.00181413
0.00181417
0.00182758
0.00182759
0.00181414
0.00182556
0.00182556
0.00182556
0.00179844
0.00179844
0.00179845
0.00179844
0.00181431
0.00182754
0.00182554
0.00181645
0.00182751
0.00181421
0.00181647
0.00182759
0.00181413
0.00181431
0.00182555
0.00182754
0.00181646
0.00182752
0.00181649
0.00181422
0.00182759
0.00182759
0.0018148
0.00181415
0.00181414
0.00177814
0.00179145
0.00179146
0.00177812
0.00179145
0.0017781
0.00177814
0.00179146
0.00179147
0.00177812
0.00178943
0.00178943
0.00178943
0.00176252
0.00176251
0.00176252
0.00176251
0.00177827
0.00179141
0.00178941
0.00178039
0.00179138
0.00177818
0.00178042
0.00179146
0.00177811
0.00177828
0.00178941
0.00179141
0.0017804
0.00179139
0.00178043
0.00177818
0.00179146
0.00179146
0.00177876
0.00177812
0.00177812
0.00174237
0.0017556
0.0017556
0.00174235
0.0017556
0.00174234
0.00174237
0.0017556
0.0017556
0.00174235
0.00175357
0.00175357
0.00175357
0.00172683
0.00172683
0.00172683
0.00172683
0.00174249
0.00175554
0.00175355
0.0017446
0.00175551
0.00174241
0.00174463
0.0017556
0.00174234
0.0017425
0.00175355
0.00175556
0.0017446
0.00175552
0.00174462
0.00174241
0.0017556
0.0017556
0.00174298
0.00174235
0.00174235
0.00170683
0.00171998
0.00171998
0.00170681
0.00171998
0.00170681
0.00170682
0.00171997
0.00171997
0.0017068
0.00171795
0.00171794
0.00171794
0.00169136
0.00169136
0.00169136
0.00169136
0.00170695
0.00171993
0.00171793
0.00170904
0.00171989
0.00170687
0.00170906
0.00171997
0.00170679
0.00170694
0.00171793
0.00171993
0.00170903
0.00171988
0.00170906
0.00170687
0.00171998
0.00171998
0.00170743
0.00170681
0.00170681
0.00167147
0.00168456
0.00168455
0.00167146
0.00168457
0.00167146
0.00167146
0.00168456
0.00168455
0.00167146
0.00168252
0.00168252
0.00168252
0.00167159
0.00168451
0.00168251
0.00167366
0.00168447
0.00167152
0.00167368
0.00168456
0.00167145
0.00167159
0.00168251
0.00168451
0.00167366
0.00168447
0.00167368
0.00167152
0.00168456
0.00168457
0.00167207
0.00167146
0.00167146
0.00258506
0.00257043
0.00258507
0.00257043
0.00258511
0.00258511
0.00257126
0.00257049
0.00257049
0.00255071
0.00256531
0.00255071
0.00256531
0.00256501
0.00255077
0.00255077
0.00256535
0.00256535
0.00257056
0.00258508
0.00257046
0.00258516
0.00257085
0.00258507
0.00258292
0.00257304
0.00257065
0.00257304
0.00258513
0.00257085
0.00258507
0.00258292
0.00257304
0.00257065
0.00257304
0.00258513
0.00256539
0.00255074
0.00256533
0.00255084
0.00256539
0.00255074
0.00256533
0.00255084
0.00256537
0.00256317
0.00255093
0.00255331
0.00256531
0.00256317
0.00255113
0.00256536
0.00256317
0.00255093
0.00255331
0.00256531
0.00256317
0.00255113
0.00258511
0.00258511
0.00257127
0.00257049
0.00257049
0.00258507
0.00257043
0.00255071
0.00256531
0.00256502
0.00255077
0.00255078
0.00256535
0.00256535
0.00255071
0.00256531
0.00257085
0.00258507
0.00258292
0.00257304
0.00257065
0.00257304
0.00258513
0.00257056
0.00258509
0.00257046
0.00258516
0.00257085
0.00258292
0.00258507
0.00257304
0.00257304
0.00257065
0.00258513
0.00256539
0.00255074
0.00256533
0.00255084
0.00256537
0.00256317
0.00255093
0.00255331
0.00256531
0.00256317
0.00255113
0.00256539
0.00255074
0.00256533
0.00255084
0.00256536
0.00256317
0.00255331
0.00255093
0.00256317
0.00256531
0.00255113
0.00257056
0.00258509
0.00257046
0.00258516
0.00257085
0.00258292
0.00258507
0.00257304
0.00257304
0.00257065
0.00258513
0.00257056
0.00258509
0.00257046
0.00258516
0.00256537
0.00256317
0.00255093
0.00255331
0.00256531
0.00256317
0.00255113
0.00256539
0.00255074
0.00256533
0.00255084
0.00256537
0.00256317
0.00255331
0.00255093
0.00256317
0.00256531
0.00255113
0.0025654
0.00255074
0.00256533
0.00255084
0.00258511
0.00258511
0.00257126
0.00257049
0.00257049
0.00258507
0.00257043
0.00255071
0.00256531
0.00256502
0.00255077
0.00255077
0.00256535
0.00256535
0.00255071
0.00256531
0.00257085
0.00258292
0.00258507
0.00257304
0.00257304
0.00257065
0.00258513
0.00257056
0.00258509
0.00257046
0.00258516
0.00257056
0.00258509
0.00257046
0.00258516
0.00256537
0.00256317
0.00255331
0.00255093
0.00256317
0.00256531
0.00255113
0.00256537
0.00256317
0.00255331
0.00255093
0.00256317
0.00256531
0.00255113
0.0025654
0.00255074
0.00256533
0.00255084
0.0025654
0.00255074
0.00256533
0.00255084
0.00258507
0.00257043
0.00258507
0.00257043
0.00256502
0.00255077
0.00255077
0.00256535
0.00256535
0.00255071
0.00256531
0.00255071
0.00256531
0.00254561
0.00253105
0.00254561
0.00253105
0.00254565
0.00254565
0.00253189
0.00253111
0.00253111
0.00251145
0.00252597
0.00251145
0.00252597
0.00252567
0.00251151
0.00251151
0.002526
0.002526
0.00253118
0.00254563
0.00254569
0.00253108
0.00253146
0.00254561
0.00254347
0.00253365
0.00254566
0.00253126
0.00253365
0.00253146
0.00254561
0.00254347
0.00253365
0.00254566
0.00253126
0.00253365
0.00252604
0.00251148
0.00252598
0.00251157
0.00252604
0.00251148
0.00252598
0.00251157
0.00252601
0.00252383
0.00251165
0.00251404
0.00252596
0.00252383
0.00251184
0.00252601
0.00252383
0.00251165
0.00251404
0.00252596
0.00252383
0.00251184
0.00254565
0.00254565
0.00253189
0.00253111
0.00253111
0.00254561
0.00253105
0.00251145
0.00252597
0.00252567
0.00251151
0.00251151
0.002526
0.002526
0.00251145
0.00252597
0.00253145
0.00254561
0.00254347
0.00253365
0.00254566
0.00253126
0.00253365
0.00253118
0.00254563
0.00254569
0.00253108
0.00253145
0.00254347
0.00254561
0.00253365
0.00254566
0.00253365
0.00253126
0.00252604
0.00251148
0.00252598
0.00251157
0.00252601
0.00252383
0.00251165
0.00251404
0.00252596
0.00252383
0.00251184
0.00252604
0.00251148
0.00252598
0.00251157
0.00252601
0.00252383
0.00251404
0.00251165
0.00252383
0.00252596
0.00251184
0.00253118
0.00254563
0.00254569
0.00253108
0.00253146
0.00254347
0.00254561
0.00253365
0.00254566
0.00253365
0.00253126
0.00253118
0.00254563
0.00254569
0.00253108
0.00252601
0.00252383
0.00251165
0.00251403
0.00252596
0.00252383
0.00251184
0.00252604
0.00251148
0.00252598
0.00251157
0.00252601
0.00252384
0.00251403
0.00251165
0.00252383
0.00252596
0.00251184
0.00252604
0.00251148
0.00252598
0.00251157
0.00254565
0.00254565
0.00253189
0.00253111
0.00253111
0.00254561
0.00253105
0.00251145
0.00252597
0.00252567
0.00251151
0.00251151
0.002526
0.002526
0.00251145
0.00252597
0.00253146
0.00254347
0.00254561
0.00253365
0.00254566
0.00253365
0.00253126
0.00253118
0.00254563
0.00254569
0.00253108
0.00253118
0.00254563
0.00254569
0.00253108
0.00252601
0.00252383
0.00251404
0.00251165
0.00252383
0.00252596
0.00251184
0.00252601
0.00252383
0.00251404
0.00251165
0.00252383
0.00252596
0.00251184
0.00252604
0.00251148
0.00252598
0.00251157
0.00252604
0.00251148
0.00252598
0.00251157
0.00254561
0.00253105
0.00254561
0.00253105
0.00252567
0.00251151
0.00251151
0.002526
0.002526
0.00251145
0.00252597
0.00251145
0.00252597
0.00250638
0.0024919
0.00250638
0.0024919
0.00250641
0.00250641
0.00249274
0.00249195
0.00249195
0.0024724
0.00248684
0.0024724
0.00248684
0.00248654
0.00247245
0.00247245
0.00248688
0.00248688
0.00249201
0.00250639
0.00250645
0.00249192
0.00249228
0.00250637
0.00250425
0.00249448
0.00250641
0.0024921
0.00249448
0.00249228
0.00250637
0.00250425
0.00249448
0.00250641
0.0024921
0.00249448
0.00248691
0.00247243
0.00248686
0.00247251
0.00248691
0.00247243
0.00248686
0.00247251
0.00248687
0.00248472
0.00247259
0.00247497
0.00248683
0.00248472
0.00247277
0.00248687
0.00248472
0.00247259
0.00247497
0.00248683
0.00248472
0.00247277
0.00250641
0.00250641
0.00249274
0.00249195
0.00249195
0.00250638
0.0024919
0.0024724
0.00248684
0.00248654
0.00247245
0.00247245
0.00248688
0.00248688
0.0024724
0.00248684
0.00249228
0.00250637
0.00250425
0.00249448
0.00250641
0.0024921
0.00249448
0.00249201
0.00250639
0.00250645
0.00249193
0.00249228
0.00250425
0.00250637
0.00249448
0.00250641
0.00249448
0.0024921
0.00248691
0.00247243
0.00248686
0.00247251
0.00248687
0.00248472
0.00247259
0.00247497
0.00248684
0.00248472
0.00247277
0.00248691
0.00247243
0.00248686
0.00247251
0.00248687
0.00248472
0.00247497
0.00247259
0.00248472
0.00248683
0.00247277
0.00249201
0.00250639
0.00250645
0.00249193
0.00249228
0.00250425
0.00250637
0.00249448
0.00250641
0.00249448
0.00249209
0.00249201
0.00250639
0.00250645
0.00249192
0.00248687
0.00248472
0.00247259
0.00247497
0.00248683
0.00248472
0.00247277
0.00248691
0.00247243
0.00248686
0.00247251
0.00248687
0.00248472
0.00247497
0.00247259
0.00248472
0.00248683
0.00247277
0.00248691
0.00247243
0.00248686
0.00247251
0.00250641
0.00250641
0.00249274
0.00249195
0.00249195
0.00250638
0.0024919
0.0024724
0.00248684
0.00248654
0.00247245
0.00247245
0.00248688
0.00248688
0.0024724
0.00248684
0.00249228
0.00250425
0.00250637
0.00249448
0.00250641
0.00249448
0.0024921
0.00249201
0.00250639
0.00250645
0.00249192
0.00249201
0.00250639
0.00250645
0.00249193
0.00248687
0.00248472
0.00247497
0.00247259
0.00248472
0.00248683
0.00247277
0.00248687
0.00248472
0.00247497
0.00247259
0.00248472
0.00248683
0.00247277
0.00248691
0.00247243
0.00248686
0.00247251
0.00248691
0.00247243
0.00248686
0.00247251
0.00250638
0.0024919
0.00250638
0.0024919
0.00248654
0.00247245
0.00247245
0.00248687
0.00248688
0.0024724
0.00248684
0.0024724
0.00248684
0.00246736
0.00245296
0.00246736
0.00245295
0.00246739
0.00246739
0.0024538
0.002453
0.002453
0.00243356
0.00244793
0.00243356
0.00244793
0.00244763
0.00243361
0.00243361
0.00244796
0.00244796
0.00245306
0.00246737
0.00246743
0.00245298
0.00245331
0.00246735
0.00246524
0.00245552
0.00246738
0.00245314
0.00245552
0.00245331
0.00246735
0.00246524
0.00245552
0.00246738
0.00245314
0.00245552
0.00244799
0.00243359
0.00244794
0.00243366
0.00244799
0.00243359
0.00244794
0.00243366
0.00244794
0.00244582
0.00243374
0.00243612
0.00244792
0.00244582
0.00243391
0.00244794
0.00244582
0.00243374
0.00243612
0.00244791
0.00244582
0.00243391
0.00246739
0.00246739
0.0024538
0.002453
0.002453
0.00246736
0.00245296
0.00243356
0.00244793
0.00244763
0.00243361
0.00243361
0.00244796
0.00244796
0.00243356
0.00244793
0.00245331
0.00246735
0.00246524
0.00245552
0.00246738
0.00245314
0.00245552
0.00245306
0.00246737
0.00246743
0.00245298
0.00245331
0.00246524
0.00246735
0.00245552
0.00246738
0.00245552
0.00245314
0.00244799
0.00243359
0.00244794
0.00243366
0.00244794
0.00244582
0.00243374
0.00243612
0.00244791
0.00244582
0.00243391
0.00244799
0.00243359
0.00244794
0.00243366
0.00244794
0.00244582
0.00243612
0.00243374
0.00244582
0.00244791
0.00243391
0.00245306
0.00246737
0.00246743
0.00245298
0.00245331
0.00246524
0.00246735
0.00245552
0.00246738
0.00245552
0.00245314
0.00245306
0.00246737
0.00246743
0.00245298
0.00244794
0.00244582
0.00243373
0.00243612
0.00244791
0.00244582
0.00243391
0.00244799
0.00243359
0.00244794
0.00243366
0.00244794
0.00244582
0.00243612
0.00243373
0.00244582
0.00244791
0.00243391
0.00244799
0.00243359
0.00244794
0.00243366
0.00246739
0.00246739
0.0024538
0.002453
0.002453
0.00246736
0.00245295
0.00243356
0.00244793
0.00244763
0.00243361
0.00243361
0.00244796
0.00244796
0.00243356
0.00244793
0.00245331
0.00246524
0.00246735
0.00245552
0.00246738
0.00245552
0.00245314
0.00245306
0.00246738
0.00246743
0.00245298
0.00245306
0.00246737
0.00246743
0.00245298
0.00244794
0.00244582
0.00243612
0.00243374
0.00244582
0.00244791
0.00243391
0.00244795
0.00244582
0.00243612
0.00243374
0.00244582
0.00244792
0.00243391
0.00244799
0.00243359
0.00244794
0.00243367
0.002448
0.00243359
0.00244794
0.00243367
0.00246736
0.00245295
0.00246736
0.00245296
0.00244763
0.00243361
0.00243361
0.00244796
0.00244796
0.00243356
0.00244793
0.00243356
0.00244793
0.00242855
0.00241422
0.00242855
0.00241422
0.00242858
0.00242858
0.00241506
0.00241426
0.00241426
0.00239492
0.00240922
0.00239492
0.00240922
0.00240891
0.00239496
0.00239496
0.00240925
0.00240925
0.00241432
0.00242856
0.00242861
0.00241424
0.00241456
0.00242853
0.00242644
0.00241677
0.00242856
0.00241438
0.00241677
0.00241456
0.00242853
0.00242644
0.00241677
0.00242856
0.00241438
0.00241677
0.00240928
0.00239494
0.00240923
0.00239502
0.00240928
0.00239494
0.00240923
0.00239502
0.00240922
0.00240711
0.00239508
0.00239747
0.0024092
0.00240712
0.00239525
0.00240922
0.00240711
0.00239508
0.00239747
0.0024092
0.00240712
0.00239525
0.00242858
0.00242858
0.00241506
0.00241426
0.00241426
0.00242855
0.00241421
0.00239492
0.00240922
0.00240891
0.00239496
0.00239496
0.00240924
0.00240924
0.00239492
0.00240922
0.00241456
0.00242853
0.00242644
0.00241677
0.00242856
0.00241438
0.00241677
0.00241432
0.00242856
0.00242861
0.00241424
0.00241456
0.00242644
0.00242853
0.00241677
0.00242856
0.00241677
0.00241438
0.00240928
0.00239494
0.00240923
0.00239502
0.00240922
0.00240711
0.00239508
0.00239747
0.0024092
0.00240711
0.00239525
0.00240928
0.00239494
0.00240923
0.00239502
0.00240922
0.00240711
0.00239747
0.00239508
0.00240711
0.0024092
0.00239525
0.00241432
0.00242856
0.00242861
0.00241424
0.00241456
0.00242644
0.00242853
0.00241677
0.00242856
0.00241677
0.00241438
0.00241432
0.00242856
0.00242861
0.00241424
0.00240922
0.00240711
0.00239508
0.00239747
0.0024092
0.00240712
0.00239525
0.00240928
0.00239494
0.00240923
0.00239502
0.00240922
0.00240711
0.00239747
0.00239508
0.00240712
0.0024092
0.00239525
0.00240928
0.00239494
0.00240923
0.00239502
0.00242858
0.00242858
0.00241506
0.00241426
0.00241426
0.00242855
0.00241421
0.00239492
0.00240922
0.00240891
0.00239496
0.00239496
0.00240925
0.00240924
0.00239492
0.00240922
0.00241456
0.00242644
0.00242853
0.00241677
0.00242856
0.00241677
0.00241438
0.00241432
0.00242856
0.00242861
0.00241424
0.00241432
0.00242856
0.00242861
0.00241424
0.00240922
0.00240711
0.00239747
0.00239508
0.00240712
0.0024092
0.00239525
0.00240922
0.00240711
0.00239747
0.00239508
0.00240712
0.0024092
0.00239525
0.00240928
0.00239494
0.00240923
0.00239502
0.00240928
0.00239494
0.00240923
0.00239502
0.00242855
0.00241421
0.00242855
0.00241422
0.00240891
0.00239496
0.00239496
0.00240924
0.00240925
0.00239492
0.00240922
0.00239492
0.00240922
0.00238994
0.00237567
0.00238994
0.00237567
0.00238996
0.00238996
0.00237651
0.00237571
0.00237571
0.00235647
0.0023707
0.00235647
0.0023707
0.00237038
0.00235651
0.00235651
0.00237073