/*--------------------------------*- C++ -*----------------------------------*\
| =========                 |                                                 |
| \\      /  F ield         | OpenFOAM: The Open Source CFD Toolbox           |
|  \\    /   O peration     | Version:  2312                                  |
|   \\  /    A nd           | Website:  www.openfoam.com                      |
|    \\/     M anipulation  |                                                 |
\*---------------------------------------------------------------------------*/
FoamFile
{
    version     2.0;
    format      ascii;
    arch        "LSB;label=32;scalar=64";
    class       volVectorField;
    location    "200";
    object      U;
}
// * * * * * * * * * * * * * * * * * * * * * * * * * * * * * * * * * * * * * //

dimensions      [0 1 -1 0 0 0 0];

internalField   nonuniform List<vector> 
42840
(
(5.97941e-05 5.97971e-05 0.109207)
(-8.96544e-05 5.58113e-05 0.108145)
(5.57739e-05 -8.96685e-05 0.108144)
(-0.00014232 -0.000142307 0.106657)
(5.85421e-05 5.85395e-05 0.109496)
(-8.74066e-05 5.45907e-05 0.108304)
(5.45474e-05 -8.73985e-05 0.108304)
(-0.000138051 -0.000138031 0.106656)
(5.72891e-05 5.72772e-05 0.109775)
(-8.50196e-05 5.33086e-05 0.108444)
(5.32904e-05 -8.50113e-05 0.108444)
(-0.000133376 -0.00013339 0.106632)
(5.59816e-05 5.59579e-05 0.110044)
(-8.24708e-05 5.19834e-05 0.108566)
(5.19634e-05 -8.2463e-05 0.108565)
(-0.0001285 -0.000128538 0.106589)
(5.46229e-05 5.45948e-05 0.110304)
(-7.97966e-05 5.05599e-05 0.108669)
(5.05374e-05 -7.98059e-05 0.108668)
(-0.000123458 -0.00012351 0.106528)
(5.32171e-05 5.31854e-05 0.110553)
(-7.69754e-05 4.90119e-05 0.108754)
(4.90045e-05 -7.69908e-05 0.108753)
(-0.000118319 -0.000118357 0.106453)
(5.18128e-05 5.17731e-05 0.110792)
(-7.40327e-05 4.73231e-05 0.108821)
(4.73077e-05 -7.40469e-05 0.108821)
(-0.000113049 -0.000113083 0.106368)
(5.04035e-05 5.03649e-05 0.111021)
(-7.10244e-05 4.55467e-05 0.108872)
(4.55276e-05 -7.1019e-05 0.108872)
(-0.000107908 -0.00010793 0.106274)
(4.89994e-05 4.89802e-05 0.111239)
(-6.79853e-05 4.37235e-05 0.108908)
(4.36855e-05 -6.79735e-05 0.108908)
(-0.000102975 -0.000102984 0.106176)
(4.76672e-05 4.76466e-05 0.111447)
(-6.49796e-05 4.18704e-05 0.108931)
(4.18174e-05 -6.49616e-05 0.10893)
(-9.82337e-05 -9.8241e-05 0.106075)
(4.64369e-05 4.64445e-05 0.111644)
(-6.20883e-05 4.00032e-05 0.108941)
(3.99516e-05 -6.20855e-05 0.10894)
(-9.38869e-05 -9.39026e-05 0.105974)
(4.53473e-05 4.53593e-05 0.111831)
(-5.94238e-05 3.81844e-05 0.108941)
(3.81189e-05 -5.94152e-05 0.10894)
(-8.99117e-05 -8.99329e-05 0.105875)
(4.44022e-05 4.44546e-05 0.112008)
(-5.70163e-05 3.64801e-05 0.108933)
(3.636e-05 -5.70061e-05 0.108933)
(-8.64124e-05 -8.6441e-05 0.105779)
(4.35535e-05 4.3655e-05 0.112177)
(-5.48376e-05 3.48567e-05 0.10892)
(3.46975e-05 -5.48186e-05 0.108919)
(-8.33447e-05 -8.338e-05 0.105688)
(4.26848e-05 4.28559e-05 0.112337)
(-5.2774e-05 3.3277e-05 0.108902)
(3.30712e-05 -5.27442e-05 0.108902)
(-8.05787e-05 -8.05838e-05 0.105603)
(4.1613e-05 4.18644e-05 0.112488)
(-5.06483e-05 3.1648e-05 0.108882)
(3.13881e-05 -5.05583e-05 0.108881)
(-7.79371e-05 -7.78725e-05 0.105523)
(4.0127e-05 4.04233e-05 0.11263)
(-4.81857e-05 2.9809e-05 0.108861)
(2.95785e-05 -4.80024e-05 0.10886)
(-7.52136e-05 -7.50526e-05 0.105449)
(3.79287e-05 3.82042e-05 0.11276)
(-4.50464e-05 2.76087e-05 0.108838)
(2.75254e-05 -4.47245e-05 0.108837)
(-7.21974e-05 -7.20575e-05 0.105381)
(3.50105e-05 3.50661e-05 0.112877)
(-4.09399e-05 2.49346e-05 0.108814)
(2.50926e-05 -4.04545e-05 0.108812)
(-6.85275e-05 -6.84941e-05 0.105317)
(3.16396e-05 3.11254e-05 0.112978)
(-3.59804e-05 2.15941e-05 0.108788)
(2.22105e-05 -3.53435e-05 0.108785)
(-6.40762e-05 -6.43725e-05 0.105258)
(2.8007e-05 2.67563e-05 0.113061)
(-3.04781e-05 1.8174e-05 0.108758)
(1.90251e-05 -2.99471e-05 0.108752)
(-5.92017e-05 -5.98064e-05 0.105203)
(2.4317e-05 2.25925e-05 0.113126)
(-2.46668e-05 1.49012e-05 0.108726)
(1.5978e-05 -2.4592e-05 0.108716)
(-5.47478e-05 -5.57025e-05 0.105153)
(2.04058e-05 1.89044e-05 0.113173)
(-1.88864e-05 1.18588e-05 0.108693)
(1.2985e-05 -1.96045e-05 0.108679)
(-5.0891e-05 -5.16235e-05 0.105107)
(1.60928e-05 1.55103e-05 0.113206)
(-1.4029e-05 9.39433e-06 0.10866)
(9.40355e-06 -1.47101e-05 0.108645)
(-4.78545e-05 -4.78592e-05 0.105065)
(1.19552e-05 1.26068e-05 0.113228)
(-1.05412e-05 7.21178e-06 0.108626)
(6.52707e-06 -1.10177e-05 0.108614)
(-4.57374e-05 -4.49411e-05 0.105027)
(0.000142295 0.000142285 0.106657)
(4.31885e-06 4.38444e-06 0.106843)
(5.5946e-05 8.97564e-05 0.108144)
(-5.59834e-05 8.97497e-05 0.108144)
(5.50269e-05 8.8053e-05 0.108265)
(-5.50678e-05 8.80333e-05 0.108265)
(-0.000142333 0.000142301 0.106657)
(-4.35241e-06 4.36984e-06 0.106843)
(8.97318e-05 5.58502e-05 0.108145)
(8.97197e-05 -5.59243e-05 0.108144)
(8.80138e-05 5.49135e-05 0.108266)
(8.80145e-05 -5.50111e-05 0.108264)
(-8.95242e-05 -5.58488e-05 0.108144)
(-8.79736e-05 5.49138e-05 0.108266)
(-8.78206e-05 -5.49289e-05 0.108265)
(0.000142331 -0.000142329 0.106657)
(4.3904e-06 -4.26963e-06 0.106842)
(-5.57934e-05 -8.972e-05 0.108144)
(5.48661e-05 -8.79735e-05 0.108265)
(-5.4876e-05 -8.80106e-05 0.108265)
(-4.37278e-06 -4.27132e-06 0.106842)
(0.000138004 0.000137987 0.106656)
(1.76165e-06 1.81683e-06 0.106832)
(5.47073e-05 8.74797e-05 0.108303)
(-5.47556e-05 8.74674e-05 0.108303)
(5.37711e-05 8.5701e-05 0.10841)
(-5.38036e-05 8.56683e-05 0.10841)
(-0.000138052 0.000138003 0.106656)
(-1.79478e-06 1.815e-06 0.106831)
(8.74412e-05 5.45928e-05 0.108304)
(8.7445e-05 -5.47071e-05 0.108303)
(8.56568e-05 5.36518e-05 0.108411)
(8.56456e-05 -5.37729e-05 0.108409)
(-8.72577e-05 -5.46161e-05 0.108303)
(-8.56283e-05 5.36371e-05 0.108411)
(-8.54614e-05 -5.36723e-05 0.10841)
(0.000137979 -0.000138013 0.106656)
(1.86197e-06 -1.71162e-06 0.106831)
(-5.45722e-05 -8.74473e-05 0.108303)
(5.35984e-05 -8.5614e-05 0.10841)
(-5.36102e-05 -8.56459e-05 0.10841)
(-1.79253e-06 -1.73194e-06 0.106831)
(0.000133376 0.000133355 0.106632)
(-7.20975e-07 -6.87104e-07 0.106798)
(5.34602e-05 8.50985e-05 0.108443)
(-5.34846e-05 8.50641e-05 0.108443)
(5.24781e-05 8.31765e-05 0.108536)
(-5.2497e-05 8.31327e-05 0.108536)
(-0.000133414 0.000133369 0.106633)
(7.01332e-07 -6.70698e-07 0.106798)
(8.50499e-05 5.33287e-05 0.108444)
(8.50494e-05 -5.34666e-05 0.108443)
(8.31324e-05 5.23472e-05 0.108537)
(8.31168e-05 -5.24962e-05 0.108535)
(-8.48632e-05 -5.33627e-05 0.108443)
(-8.31092e-05 5.233e-05 0.108537)
(-8.29581e-05 -5.23827e-05 0.108536)
(0.000133431 -0.000133435 0.106632)
(-6.47935e-07 7.54685e-07 0.106797)
(-5.33001e-05 -8.50512e-05 0.108444)
(5.22991e-05 -8.31059e-05 0.108537)
(-5.23096e-05 -8.31318e-05 0.108536)
(7.26127e-07 7.59565e-07 0.106797)
(0.000128564 0.00012853 0.106589)
(-3.24384e-06 -3.22545e-06 0.106746)
(5.21457e-05 8.25457e-05 0.108565)
(-5.21637e-05 8.25018e-05 0.108564)
(5.1097e-05 8.05351e-05 0.108644)
(-5.10991e-05 8.04903e-05 0.108643)
(-0.000128545 0.000128522 0.106589)
(3.22055e-06 -3.17622e-06 0.106745)
(8.25026e-05 5.20064e-05 0.108566)
(8.24719e-05 -5.21701e-05 0.108564)
(8.04925e-05 5.09599e-05 0.108644)
(8.04552e-05 -5.11161e-05 0.108643)
(-8.23311e-05 -5.20526e-05 0.108565)
(-8.04841e-05 5.09369e-05 0.108645)
(-8.03361e-05 -5.10023e-05 0.108644)
(0.000128548 -0.000128578 0.106589)
(-3.19907e-06 3.28504e-06 0.106745)
(-5.19754e-05 -8.24916e-05 0.108565)
(5.09099e-05 -8.04875e-05 0.108644)
(-5.09182e-05 -8.04765e-05 0.108644)
(3.2484e-06 3.25516e-06 0.106744)
(0.000123464 0.00012342 0.106528)
(-5.76609e-06 -5.74353e-06 0.106677)
(5.07372e-05 7.98692e-05 0.108668)
(-5.07361e-05 7.98236e-05 0.108667)
(4.95933e-05 7.77433e-05 0.108733)
(-4.96036e-05 7.76962e-05 0.108732)
(-0.000123461 0.000123448 0.106528)
(5.80271e-06 -5.74448e-06 0.106677)
(7.98284e-05 5.05922e-05 0.108669)
(7.97881e-05 -5.07451e-05 0.108667)
(7.77057e-05 4.94517e-05 0.108734)
(7.76605e-05 -4.9621e-05 0.108732)
(-7.96725e-05 -5.0653e-05 0.108668)
(-7.77001e-05 4.94338e-05 0.108734)
(-7.75635e-05 -4.9506e-05 0.108733)
(0.00012348 -0.000123523 0.106528)
(-5.72129e-06 5.80106e-06 0.106676)
(-5.05745e-05 -7.98147e-05 0.108668)
(4.94148e-05 -7.77075e-05 0.108734)
(-4.94323e-05 -7.76934e-05 0.108733)
(5.76445e-06 5.79441e-06 0.106676)
(0.000118329 0.000118272 0.106453)
(-8.32757e-06 -8.33571e-06 0.106596)
(4.91909e-05 7.70435e-05 0.108753)
(-4.91902e-05 7.69979e-05 0.108752)
(4.79503e-05 7.48322e-05 0.108805)
(-4.7938e-05 7.47771e-05 0.108804)
(-0.000118294 0.000118286 0.106453)
(8.40533e-06 -8.37419e-06 0.106596)
(7.70084e-05 4.90406e-05 0.108754)
(7.69582e-05 -4.92214e-05 0.108752)
(7.48035e-05 4.78069e-05 0.108806)
(7.47454e-05 -4.79645e-05 0.108804)
(-7.68711e-05 -4.91124e-05 0.108753)
(-7.47922e-05 4.77768e-05 0.108806)
(-7.46679e-05 -4.78592e-05 0.108805)
(0.000118331 -0.000118388 0.106453)
(-8.3125e-06 8.38428e-06 0.106596)
(-4.90243e-05 -7.69981e-05 0.108753)
(4.77596e-05 -7.48055e-05 0.108806)
(-4.77747e-05 -7.47774e-05 0.108805)
(8.35215e-06 8.37257e-06 0.106595)
(0.000113102 0.000113034 0.106368)
(-1.08534e-05 -1.08581e-05 0.106506)
(4.75078e-05 7.41041e-05 0.10882)
(-4.75064e-05 7.40472e-05 0.108819)
(4.62109e-05 7.18293e-05 0.10886)
(-4.61912e-05 7.1779e-05 0.108859)
(-0.0001131 0.000113076 0.106368)
(1.08953e-05 -1.08797e-05 0.106506)
(7.40824e-05 4.73658e-05 0.108821)
(7.40224e-05 -4.7533e-05 0.108819)
(7.18049e-05 4.60667e-05 0.108861)
(7.17435e-05 -4.62104e-05 0.108859)
(-7.3945e-05 -4.74315e-05 0.10882)
(-7.18074e-05 4.60343e-05 0.108861)
(-7.16864e-05 -4.613e-05 0.10886)
(0.000113078 -0.00011313 0.106367)
(-1.08774e-05 1.09437e-05 0.106505)
(-4.73442e-05 -7.4053e-05 0.10882)
(4.60162e-05 -7.18066e-05 0.108861)
(-4.60507e-05 -7.1764e-05 0.10886)
(1.08743e-05 1.0905e-05 0.106505)
(0.000107936 0.000107872 0.106274)
(-1.33561e-05 -1.3335e-05 0.10641)
(4.57403e-05 7.10861e-05 0.108871)
(-4.57349e-05 7.10355e-05 0.10887)
(4.43923e-05 6.88064e-05 0.108899)
(-4.43806e-05 6.87454e-05 0.108899)
(-0.000107926 0.000107891 0.106274)
(1.33694e-05 -1.33439e-05 0.106409)
(7.10636e-05 4.56067e-05 0.108872)
(7.1003e-05 -4.5747e-05 0.10887)
(6.8781e-05 4.42624e-05 0.1089)
(6.87109e-05 -4.43702e-05 0.108898)
(-7.09431e-05 -4.56676e-05 0.108871)
(-6.87875e-05 4.42335e-05 0.108901)
(-6.86732e-05 -4.43051e-05 0.108899)
(0.000107961 -0.00010801 0.106274)
(-1.33306e-05 1.33751e-05 0.106409)
(-4.55983e-05 -7.10231e-05 0.108871)
(4.42032e-05 -6.87704e-05 0.1089)
(-4.42453e-05 -6.87461e-05 0.108899)
(1.33193e-05 1.33704e-05 0.106408)
(0.000102968 0.00010294 0.106176)
(-1.57136e-05 -1.56849e-05 0.10631)
(4.3891e-05 6.80519e-05 0.108907)
(-4.38921e-05 6.80034e-05 0.108906)
(4.25282e-05 6.58116e-05 0.108924)
(-4.25181e-05 6.57469e-05 0.108924)
(-0.000102905 0.000102875 0.106176)
(1.57285e-05 -1.56747e-05 0.106309)
(6.8024e-05 4.37728e-05 0.108908)
(6.79646e-05 -4.38881e-05 0.108906)
(6.57642e-05 4.24209e-05 0.108925)
(6.56909e-05 -4.25157e-05 0.108924)
(-6.7929e-05 -4.38273e-05 0.108907)
(-6.57819e-05 4.2406e-05 0.108926)
(-6.56603e-05 -4.24539e-05 0.108924)
(0.000102936 -0.000102992 0.106176)
(-1.56735e-05 1.57249e-05 0.106309)
(-4.37637e-05 -6.79899e-05 0.108907)
(4.23519e-05 -6.57592e-05 0.108926)
(-4.23931e-05 -6.57254e-05 0.108925)
(1.56835e-05 1.57237e-05 0.106308)
(9.8216e-05 9.82006e-05 0.106075)
(-1.78269e-05 -1.77598e-05 0.106208)
(4.20243e-05 6.50746e-05 0.108929)
(-4.20141e-05 6.50177e-05 0.108928)
(4.06513e-05 6.29117e-05 0.108937)
(-4.06595e-05 6.28464e-05 0.108937)
(-9.82198e-05 9.82315e-05 0.106075)
(1.78838e-05 -1.78084e-05 0.106208)
(6.50242e-05 4.19148e-05 0.10893)
(6.49645e-05 -4.20147e-05 0.108928)
(6.2852e-05 4.05627e-05 0.108938)
(6.27892e-05 -4.06421e-05 0.108936)
(-6.49175e-05 -4.19478e-05 0.108929)
(-6.28637e-05 4.05621e-05 0.108939)
(-6.27537e-05 -4.05683e-05 0.108937)
(9.82169e-05 -9.82639e-05 0.106075)
(-1.77996e-05 1.78326e-05 0.106207)
(-4.18991e-05 -6.49857e-05 0.108929)
(4.05026e-05 -6.28658e-05 0.108939)
(-4.05175e-05 -6.28162e-05 0.108938)
(1.78052e-05 1.78371e-05 0.106207)
(9.3863e-05 9.38915e-05 0.105974)
(-1.96677e-05 -1.95847e-05 0.106108)
(4.01389e-05 6.22055e-05 0.108939)
(-4.01424e-05 6.21549e-05 0.108938)
(3.88218e-05 6.02082e-05 0.10894)
(-3.88109e-05 6.01494e-05 0.108939)
(-9.38187e-05 9.38493e-05 0.105974)
(1.96868e-05 -1.9592e-05 0.106108)
(6.21361e-05 4.0054e-05 0.10894)
(6.20932e-05 -4.01259e-05 0.108938)
(6.01227e-05 3.87445e-05 0.108941)
(6.00553e-05 -3.88102e-05 0.108939)
(-6.20484e-05 -4.0063e-05 0.108939)
(-6.01569e-05 3.87354e-05 0.108942)
(-6.00455e-05 -3.87391e-05 0.108939)
(9.38233e-05 -9.38905e-05 0.105974)
(-1.9656e-05 1.96757e-05 0.106107)
(-4.00193e-05 -6.2117e-05 0.108939)
(3.86707e-05 -6.01402e-05 0.108941)
(-3.86933e-05 -6.01036e-05 0.10894)
(1.9637e-05 1.96592e-05 0.106107)
(8.98981e-05 8.99366e-05 0.105875)
(-2.11579e-05 -2.10328e-05 0.106011)
(3.83088e-05 5.95582e-05 0.108939)
(-3.83019e-05 5.95078e-05 0.108938)
(3.70648e-05 5.77625e-05 0.108934)
(-3.70773e-05 5.77053e-05 0.108933)
(-8.98942e-05 8.99429e-05 0.105875)
(2.11348e-05 -2.10302e-05 0.10601)
(5.94652e-05 3.82352e-05 0.108941)
(5.94133e-05 -3.83036e-05 0.108938)
(5.76414e-05 3.70148e-05 0.108935)
(5.75727e-05 -3.70449e-05 0.108933)
(-5.9394e-05 -3.82354e-05 0.108939)
(-5.76933e-05 3.70188e-05 0.108936)
(-5.758e-05 -3.69873e-05 0.108933)
(8.98262e-05 -8.99042e-05 0.105875)
(-2.11553e-05 2.11602e-05 0.106009)
(-3.81935e-05 -5.94567e-05 0.10894)
(3.69116e-05 -5.76727e-05 0.108935)
(-3.69547e-05 -5.76415e-05 0.108934)
(2.11853e-05 2.11985e-05 0.106009)
(8.63675e-05 8.64586e-05 0.105779)
(-2.2404e-05 -2.22073e-05 0.105917)
(3.65504e-05 5.71709e-05 0.108932)
(-3.65657e-05 5.71188e-05 0.108931)
(3.53896e-05 5.55631e-05 0.108921)
(-3.54014e-05 5.54909e-05 0.108921)
(-8.63532e-05 8.64161e-05 0.10578)
(2.23393e-05 -2.21981e-05 0.105917)
(5.70366e-05 3.65208e-05 0.108933)
(5.69846e-05 -3.65426e-05 0.10893)
(5.53971e-05 3.5406e-05 0.108923)
(5.5305e-05 -3.53622e-05 0.10892)
(-5.69947e-05 -3.6494e-05 0.108931)
(-5.54607e-05 3.53868e-05 0.108923)
(-5.53522e-05 -3.53225e-05 0.108921)
(8.6351e-05 -8.64447e-05 0.105779)
(-2.23039e-05 2.22765e-05 0.105916)
(-3.6465e-05 -5.70578e-05 0.108932)
(3.52308e-05 -5.54385e-05 0.108923)
(-3.53119e-05 -5.54141e-05 0.108922)
(2.23148e-05 2.23209e-05 0.105916)
(8.3287e-05 8.34505e-05 0.105688)
(-2.34457e-05 -2.31509e-05 0.105829)
(3.48868e-05 5.5036e-05 0.108918)
(-3.49018e-05 5.49547e-05 0.108917)
(3.37732e-05 5.35177e-05 0.108905)
(-3.38005e-05 5.34296e-05 0.108904)
(-8.33079e-05 8.34077e-05 0.105688)
(2.33159e-05 -2.3154e-05 0.105828)
(5.48497e-05 3.49264e-05 0.108919)
(5.47634e-05 -3.4886e-05 0.108917)
(5.32865e-05 3.38788e-05 0.108906)
(5.31777e-05 -3.37515e-05 0.108903)
(-5.48199e-05 -3.48464e-05 0.108918)
(-5.33622e-05 3.37989e-05 0.108907)
(-5.32832e-05 -3.37335e-05 0.108905)
(8.31563e-05 -8.32803e-05 0.105688)
(-2.33446e-05 2.32596e-05 0.105827)
(-3.48292e-05 -5.48809e-05 0.108919)
(3.35826e-05 -5.3341e-05 0.108906)
(-3.37446e-05 -5.33487e-05 0.108906)
(2.33463e-05 2.33745e-05 0.105828)
(8.04087e-05 8.06704e-05 0.105602)
(-2.43051e-05 -2.39271e-05 0.105746)
(3.32625e-05 5.30232e-05 0.1089)
(-3.33188e-05 5.29277e-05 0.1089)
(3.21009e-05 5.14641e-05 0.108885)
(-3.22057e-05 5.1339e-05 0.108884)
(-8.04889e-05 8.06032e-05 0.105602)
(2.42006e-05 -2.40543e-05 0.105746)
(5.27666e-05 3.33819e-05 0.108902)
(5.26573e-05 -3.32676e-05 0.108899)
(5.1132e-05 3.22522e-05 0.108887)
(5.09895e-05 -3.21158e-05 0.108883)
(-5.27772e-05 -3.32375e-05 0.1089)
(-5.12519e-05 3.22045e-05 0.108888)
(-5.11856e-05 -3.20525e-05 0.108885)
(8.02987e-05 -8.04785e-05 0.105601)
(-2.43044e-05 2.41885e-05 0.105744)
(-3.32814e-05 -5.28401e-05 0.108901)
(3.19322e-05 -5.1194e-05 0.108887)
(-3.21649e-05 -5.12255e-05 0.108886)
(2.41379e-05 2.4223e-05 0.105746)
(7.77301e-05 7.80723e-05 0.105522)
(-2.53249e-05 -2.48862e-05 0.10567)
(3.15709e-05 5.09226e-05 0.108881)
(-3.16897e-05 5.08041e-05 0.108879)
(3.0285e-05 4.90625e-05 0.108864)
(-3.0495e-05 4.89371e-05 0.108863)
(-7.78172e-05 7.7902e-05 0.105522)
(2.50598e-05 -2.50271e-05 0.105669)
(5.05631e-05 3.17553e-05 0.108882)
(5.04334e-05 -3.15729e-05 0.108878)
(4.86579e-05 3.05123e-05 0.108866)
(4.8524e-05 -3.03184e-05 0.108862)
(-5.06483e-05 -3.15496e-05 0.108881)
(-4.89053e-05 3.03982e-05 0.108866)
(-4.88156e-05 -3.02386e-05 0.108865)
(7.75839e-05 -7.7785e-05 0.105521)
(-2.53604e-05 2.52262e-05 0.105667)
(-3.16964e-05 -5.06634e-05 0.108881)
(3.01353e-05 -4.87381e-05 0.108865)
(-3.04598e-05 -4.8776e-05 0.108865)
(2.50155e-05 2.5205e-05 0.105669)
(7.48896e-05 7.52776e-05 0.105449)
(-2.64841e-05 -2.61506e-05 0.105599)
(2.97072e-05 4.84019e-05 0.108859)
(-2.99785e-05 4.8276e-05 0.108858)
(2.82575e-05 4.59307e-05 0.108842)
(-2.8645e-05 4.58292e-05 0.108841)
(-7.5115e-05 7.50701e-05 0.105449)
(2.61236e-05 -2.63174e-05 0.105598)
(4.7983e-05 2.99142e-05 0.108861)
(4.78607e-05 -2.9775e-05 0.108856)
(4.55718e-05 2.84196e-05 0.108844)
(4.54501e-05 -2.83234e-05 0.108838)
(-4.81802e-05 -2.96773e-05 0.108859)
(-4.59554e-05 2.83222e-05 0.108844)
(-4.58278e-05 -2.82037e-05 0.108842)
(7.46732e-05 -7.48736e-05 0.105447)
(-2.65105e-05 2.6416e-05 0.105595)
(-2.99375e-05 -4.81075e-05 0.10886)
(2.81718e-05 -4.56591e-05 0.108843)
(-2.85623e-05 -4.57247e-05 0.108842)
(2.62167e-05 2.64049e-05 0.105598)
(7.18412e-05 7.20936e-05 0.10538)
(-2.80971e-05 -2.80784e-05 0.105532)
(2.76218e-05 4.50233e-05 0.108837)
(-2.80198e-05 4.49478e-05 0.108835)
(2.58601e-05 4.17371e-05 0.108819)
(-2.63605e-05 4.17367e-05 0.108817)
(-7.22576e-05 7.1983e-05 0.10538)
(2.77097e-05 -2.81212e-05 0.105532)
(4.47017e-05 2.77457e-05 0.108839)
(4.45918e-05 -2.77411e-05 0.108833)
(4.15954e-05 2.58212e-05 0.108821)
(4.14664e-05 -2.60366e-05 0.108814)
(-4.49777e-05 -2.75281e-05 0.108837)
(-4.21063e-05 2.57864e-05 0.10882)
(-4.18572e-05 -2.57296e-05 0.108819)
(7.16623e-05 -7.18369e-05 0.105378)
(-2.8098e-05 2.80141e-05 0.105528)
(-2.79233e-05 -4.48714e-05 0.108836)
(2.58362e-05 -4.16519e-05 0.108819)
(-2.61715e-05 -4.17964e-05 0.108818)
(2.79664e-05 2.80565e-05 0.105532)
(6.8393e-05 6.83267e-05 0.105316)
(-3.03187e-05 -3.09059e-05 0.105468)
(2.51216e-05 4.05604e-05 0.108813)
(-2.55964e-05 4.05842e-05 0.108811)
(2.31549e-05 3.65466e-05 0.108793)
(-2.34842e-05 3.67126e-05 0.108791)
(-6.87849e-05 6.82799e-05 0.105316)
(2.99636e-05 -3.05657e-05 0.105469)
(4.04935e-05 2.49698e-05 0.108815)
(4.03553e-05 -2.52673e-05 0.108807)
(3.68277e-05 2.25733e-05 0.108795)
(3.66586e-05 -2.31468e-05 0.108786)
(-4.07397e-05 -2.49419e-05 0.108813)
(-3.732e-05 2.25953e-05 0.108794)
(-3.69356e-05 -2.27086e-05 0.108794)
(6.81592e-05 -6.83033e-05 0.105313)
(-3.0469e-05 3.04585e-05 0.105463)
(-2.53606e-05 -4.0692e-05 0.108812)
(2.30715e-05 -3.66991e-05 0.108792)
(-2.2961e-05 -3.69616e-05 0.108792)
(3.06274e-05 3.04044e-05 0.10547)
(6.42879e-05 6.36013e-05 0.105256)
(-3.27791e-05 -3.41371e-05 0.105408)
(2.2318e-05 3.51624e-05 0.108787)
(-2.2573e-05 3.53819e-05 0.108785)
(2.02704e-05 3.08114e-05 0.108765)
(-2.02128e-05 3.11946e-05 0.108763)
(-6.47271e-05 6.40446e-05 0.105256)
(3.29256e-05 -3.36027e-05 0.105411)
(3.55707e-05 2.15312e-05 0.108788)
(3.54043e-05 -2.22244e-05 0.108779)
(3.16418e-05 1.87672e-05 0.108765)
(3.14455e-05 -1.97499e-05 0.108755)
(-3.56014e-05 -2.17526e-05 0.108788)
(-3.19496e-05 1.91231e-05 0.108766)
(-3.13679e-05 -1.93445e-05 0.108767)
(6.39737e-05 -6.40232e-05 0.105251)
(-3.32142e-05 3.33294e-05 0.105402)
(-2.19466e-05 -3.5669e-05 0.108785)
(1.99122e-05 -3.13621e-05 0.108761)
(-1.91608e-05 -3.16296e-05 0.108762)
(3.3806e-05 3.32691e-05 0.105412)
(6.01272e-05 5.86865e-05 0.105198)
(-3.52768e-05 -3.71105e-05 0.105351)
(1.95034e-05 2.93599e-05 0.108757)
(-1.92523e-05 2.9808e-05 0.108755)
(1.73272e-05 2.50547e-05 0.108733)
(-1.656e-05 2.55783e-05 0.108731)
(-6.00272e-05 5.93197e-05 0.105201)
(3.58977e-05 -3.62156e-05 0.105356)
(3.03328e-05 1.77614e-05 0.108757)
(3.01571e-05 -1.88604e-05 0.108746)
(2.64021e-05 1.54618e-05 0.10873)
(2.62277e-05 -1.65505e-05 0.10872)
(-2.99595e-05 -1.84418e-05 0.10876)
(-2.62119e-05 1.5888e-05 0.108734)
(-2.56357e-05 -1.62794e-05 0.108737)
(5.95664e-05 -5.95035e-05 0.105193)
(-3.57159e-05 3.60016e-05 0.105344)
(-1.80968e-05 -3.0297e-05 0.108754)
(1.68518e-05 -2.59611e-05 0.108725)
(-1.53955e-05 -2.62093e-05 0.108729)
(3.68127e-05 3.58772e-05 0.105359)
(5.61804e-05 5.44104e-05 0.105144)
(-3.82333e-05 -3.94324e-05 0.1053)
(1.63583e-05 2.36785e-05 0.108725)
(-1.54769e-05 2.42351e-05 0.108722)
(1.39789e-05 1.99257e-05 0.108698)
(-1.28379e-05 2.03325e-05 0.108697)
(-5.55138e-05 5.52356e-05 0.105149)
(3.93798e-05 -3.87963e-05 0.105307)
(2.5118e-05 1.45961e-05 0.108721)
(2.495e-05 -1.56239e-05 0.108711)
(2.12186e-05 1.25482e-05 0.108693)
(2.11541e-05 -1.33188e-05 0.108683)
(-2.42549e-05 -1.54388e-05 0.108729)
(-2.03265e-05 1.27163e-05 0.108702)
(-2.02314e-05 -1.33978e-05 0.108704)
(5.55803e-05 -5.53465e-05 0.105138)
(-3.81861e-05 3.8602e-05 0.105292)
(-1.44442e-05 -2.48646e-05 0.10872)
(1.39319e-05 -2.08705e-05 0.108688)
(-1.22094e-05 -2.09023e-05 0.108694)
(3.95595e-05 3.87638e-05 0.105311)
(5.19206e-05 5.09069e-05 0.105096)
(-4.11925e-05 -4.12004e-05 0.105255)
(1.29956e-05 1.88061e-05 0.108689)
(-1.18347e-05 1.91545e-05 0.108688)
(1.05302e-05 1.58478e-05 0.108662)
(-9.494e-06 1.57835e-05 0.108662)
(-5.09079e-05 5.14851e-05 0.105103)
(4.18456e-05 -4.10969e-05 0.105263)
(1.99126e-05 1.17877e-05 0.108684)
(1.99031e-05 -1.23273e-05 0.108673)
(1.60471e-05 9.83365e-06 0.108656)
(1.62049e-05 -9.94175e-06 0.108646)
(-1.8939e-05 -1.24875e-05 0.108695)
(-1.51983e-05 1.0136e-05 0.108668)
(-1.53872e-05 -1.02092e-05 0.108669)
(5.19538e-05 -5.1603e-05 0.105088)
(-4.07053e-05 4.1186e-05 0.105247)
(-1.13236e-05 -1.95709e-05 0.108685)
(1.04659e-05 -1.59332e-05 0.108653)
(-9.35791e-06 -1.57738e-05 0.108659)
(4.17103e-05 4.15561e-05 0.105267)
(4.80595e-05 4.82083e-05 0.105053)
(-4.37857e-05 -4.2844e-05 0.105217)
(9.44652e-06 1.4902e-05 0.108653)
(-8.56708e-06 1.4786e-05 0.108654)
(6.79963e-06 1.22258e-05 0.108627)
(-6.71256e-06 1.17126e-05 0.108629)
(-4.76257e-05 4.82578e-05 0.105061)
(4.35328e-05 -4.32471e-05 0.105225)
(1.47577e-05 9.03537e-06 0.108647)
(1.50475e-05 -8.9188e-06 0.108638)
(1.132e-05 7.39971e-06 0.108621)
(1.18152e-05 -6.92191e-06 0.108612)
(-1.43129e-05 -9.28825e-06 0.10866)
(-1.11829e-05 7.82482e-06 0.108634)
(-1.14226e-05 -7.39483e-06 0.108633)
(4.84783e-05 -4.80112e-05 0.105046)
(-4.29151e-05 4.34636e-05 0.105209)
(-8.59205e-06 -1.45114e-05 0.10865)
(7.25668e-06 -1.17497e-05 0.108621)
(-7.24264e-06 -1.11321e-05 0.108625)
(4.30688e-05 4.38456e-05 0.105226)
(4.49067e-05 4.59028e-05 0.105018)
(6.11176e-06 1.16432e-05 0.108619)
(-6.23781e-06 1.11023e-05 0.108621)
(-4.52637e-05 4.54278e-05 0.105025)
(1.05627e-05 6.91183e-06 0.108614)
(1.11717e-05 -6.43968e-06 0.108604)
(-1.08949e-05 -6.93261e-06 0.108624)
(4.56372e-05 -4.52299e-05 0.105011)
(-6.92904e-06 -1.04587e-05 0.108616)
(8.77678e-07 6.97099e-06 0.0937514)
(-1.26581e-06 3.07074e-05 0.0833535)
(-3.99413e-06 -6.03042e-06 0.0833636)
(1.56347e-06 5.28718e-05 0.0937672)
(-3.49904e-06 1.42255e-05 0.0720074)
(5.418e-06 -5.7666e-06 0.0720494)
(6.95492e-06 9.29005e-07 0.0937516)
(3.06978e-05 -1.26947e-06 0.0833535)
(-6.05149e-06 -3.99541e-06 0.0833637)
(5.28423e-05 1.62714e-06 0.0937673)
(-5.9819e-05 5.98083e-05 0.109207)
(5.97776e-05 -5.97878e-05 0.109207)
(-5.97638e-05 -5.97913e-05 0.109207)
(5.88494e-05 5.88467e-05 0.109424)
(-5.88853e-05 5.88665e-05 0.109424)
(5.88356e-05 -5.88651e-05 0.109424)
(-5.88295e-05 -5.88403e-05 0.109424)
(-4.27309e-05 2.99265e-06 0.102218)
(-6.06402e-05 2.42558e-05 0.095423)
(-0.000100194 1.95676e-05 0.108864)
(-8.90864e-05 5.55162e-05 0.108186)
(-1.7931e-05 -1.46729e-06 0.0954472)
(-9.9792e-05 1.94388e-05 0.108926)
(-0.000103767 4.83749e-06 0.102195)
(1.42256e-05 -3.49938e-06 0.072008)
(-5.71228e-06 5.46627e-06 0.072049)
(2.90262e-06 -4.27126e-05 0.102217)
(1.95544e-05 -0.000100208 0.108864)
(2.42838e-05 -6.06327e-05 0.0954242)
(5.54675e-05 -8.9088e-05 0.108186)
(1.94308e-05 -9.98099e-05 0.108926)
(-1.41686e-06 -1.78627e-05 0.0954455)
(4.88045e-06 -0.000103826 0.102195)
(-2.98047e-05 -1.62744e-05 0.0891383)
(-1.63408e-05 -2.97849e-05 0.0891378)
(-5.68109e-06 -5.58356e-06 0.106839)
(-8.87192e-06 3.66561e-06 0.0891503)
(3.58377e-06 -8.82417e-06 0.0891474)
(6.14812e-07 4.18758e-06 0.0934796)
(-1.11451e-06 2.89171e-05 0.0831539)
(1.29811e-06 4.86858e-05 0.0934876)
(-3.82425e-06 -6.7985e-06 0.0831696)
(-3.47934e-06 1.36645e-05 0.0718707)
(5.21266e-06 -5.7517e-06 0.0719156)
(4.21837e-06 6.2928e-07 0.0934797)
(2.89175e-05 -1.12527e-06 0.0831539)
(4.86662e-05 1.31912e-06 0.0934876)
(-6.80647e-06 -3.82867e-06 0.0831697)
(-5.85725e-05 5.85522e-05 0.109496)
(5.85218e-05 -5.85495e-05 0.109495)
(-5.85161e-05 -5.85276e-05 0.109495)
(5.76084e-05 5.7602e-05 0.109705)
(-5.76291e-05 5.76073e-05 0.109705)
(5.75968e-05 -5.76293e-05 0.109705)
(-5.75706e-05 -5.76034e-05 0.109705)
(-3.65531e-05 2.28885e-06 0.101946)
(-5.68187e-05 2.24783e-05 0.0951536)
(-9.86259e-05 1.90298e-05 0.109108)
(-8.68114e-05 5.42697e-05 0.108341)
(-9.68062e-05 4.09164e-06 0.101924)
(-1.4636e-05 -2.31072e-06 0.0951813)
(-9.82116e-05 1.89025e-05 0.109166)
(1.36372e-05 -3.48916e-06 0.0718714)
(-5.72285e-06 5.24053e-06 0.0719153)
(2.24214e-06 -3.6596e-05 0.101945)
(1.9031e-05 -9.86459e-05 0.109108)
(2.25198e-05 -5.68509e-05 0.095155)
(5.42265e-05 -8.68022e-05 0.10834)
(4.14724e-06 -9.6835e-05 0.101924)
(1.89097e-05 -9.82316e-05 0.109166)
(-2.26102e-06 -1.461e-05 0.0951799)
(-2.78837e-05 -1.5408e-05 0.0889094)
(-1.54177e-05 -2.78738e-05 0.0889088)
(-3.06934e-06 -2.98552e-06 0.106839)
(-7.10451e-06 3.99608e-06 0.0889265)
(4.00105e-06 -7.10883e-06 0.0889236)
(4.01942e-07 2.17249e-06 0.093234)
(-1.02519e-06 2.74828e-05 0.0829737)
(1.06566e-06 4.52532e-05 0.0932353)
(-3.74826e-06 -7.26628e-06 0.0829943)
(-3.48578e-06 1.32006e-05 0.0717468)
(5.00998e-06 -5.73091e-06 0.0717943)
(2.20937e-06 3.83388e-07 0.093234)
(2.74881e-05 -1.02099e-06 0.0829738)
(4.52755e-05 1.03678e-06 0.0932352)
(-7.28144e-06 -3.74402e-06 0.0829945)
(-5.73089e-05 5.72889e-05 0.109775)
(5.7286e-05 -5.73103e-05 0.109774)
(-5.72557e-05 -5.72868e-05 0.109774)
(5.63083e-05 5.62918e-05 0.109977)
(-5.63323e-05 5.63025e-05 0.109977)
(5.62973e-05 -5.63394e-05 0.109977)
(-5.62731e-05 -5.63118e-05 0.109977)
(-3.06467e-05 1.87711e-06 0.101679)
(-5.33474e-05 2.08743e-05 0.0949042)
(-9.70376e-05 1.85111e-05 0.109338)
(-8.43759e-05 5.29989e-05 0.108476)
(-9.00172e-05 3.49905e-06 0.101657)
(-1.17453e-05 -3.00135e-06 0.0949354)
(-9.65881e-05 1.83806e-05 0.109393)
(1.31629e-05 -3.52579e-06 0.0717474)
(-5.70383e-06 5.03402e-06 0.0717939)
(1.83917e-06 -3.06924e-05 0.101678)
(1.85221e-05 -9.70419e-05 0.109338)
(2.09215e-05 -5.34028e-05 0.0949058)
(5.29699e-05 -8.43792e-05 0.108476)
(3.58854e-06 -9.01057e-05 0.101657)
(1.83898e-05 -9.66048e-05 0.109393)
(-2.99561e-06 -1.17153e-05 0.0949341)
(-2.60715e-05 -1.46204e-05 0.0887013)
(-1.45949e-05 -2.60903e-05 0.0887005)
(-5.39712e-07 -4.9375e-07 0.106816)
(-5.49247e-06 4.27163e-06 0.088723)
(4.32458e-06 -5.51919e-06 0.0887199)
(1.83282e-07 5.8206e-07 0.0930118)
(-1.0613e-06 2.62801e-05 0.0828107)
(8.36185e-07 4.24284e-05 0.0930071)
(-3.80812e-06 -7.37297e-06 0.0828357)
(-3.5107e-06 1.27733e-05 0.0716344)
(4.9023e-06 -5.6724e-06 0.0716841)
(6.16884e-07 1.70483e-07 0.0930117)
(2.6273e-05 -1.06176e-06 0.082811)
(4.24613e-05 8.04048e-07 0.093007)
(-7.36472e-06 -3.78809e-06 0.0828361)
(-5.59949e-05 5.59737e-05 0.110044)
(5.5966e-05 -5.60099e-05 0.110044)
(-5.59423e-05 -5.59837e-05 0.110044)
(5.49665e-05 5.49407e-05 0.110239)
(-5.49703e-05 5.49504e-05 0.110239)
(5.49438e-05 -5.49923e-05 0.110239)
(-5.49298e-05 -5.49791e-05 0.110239)
(-2.53133e-05 1.50786e-06 0.101421)
(-5.03017e-05 1.9449e-05 0.0946742)
(-9.52572e-05 1.79838e-05 0.109554)
(-8.18148e-05 5.16581e-05 0.108593)
(-8.36792e-05 3.03173e-06 0.101397)
(-9.19789e-06 -3.52942e-06 0.0947086)
(-9.47663e-05 1.78527e-05 0.109606)
(1.2743e-05 -3.55985e-06 0.0716348)
(-5.64549e-06 4.91965e-06 0.0716836)
(1.45548e-06 -2.53478e-05 0.10142)
(1.80075e-05 -9.52715e-05 0.109554)
(1.9465e-05 -5.03387e-05 0.0946757)
(5.16185e-05 -8.18048e-05 0.108593)
(3.16224e-06 -8.37535e-05 0.101397)
(1.78822e-05 -9.47988e-05 0.109605)
(-3.48977e-06 -9.18438e-06 0.0947073)
(-2.44131e-05 -1.38888e-05 0.0885119)
(-1.384e-05 -2.44377e-05 0.0885109)
(1.98367e-06 2.00369e-06 0.106773)
(-4.07838e-06 4.4028e-06 0.0885377)
(4.50201e-06 -4.11216e-06 0.0885344)
(-4.78634e-08 -7.15608e-07 0.0928101)
(-1.1269e-06 2.53714e-05 0.0826633)
(6.08024e-07 4.00011e-05 0.0928004)
(-3.84753e-06 -7.26182e-06 0.0826922)
(-3.50871e-06 1.2434e-05 0.0715323)
(4.84599e-06 -5.57984e-06 0.0715841)
(-6.9766e-07 -3.24566e-08 0.09281)
(2.53631e-05 -1.11261e-06 0.0826636)
(4.00318e-05 6.01439e-07 0.0928002)
(-7.28268e-06 -3.82212e-06 0.0826925)
(-5.46237e-05 5.46065e-05 0.110303)
(5.46013e-05 -5.46432e-05 0.110303)
(-5.45927e-05 -5.46385e-05 0.110303)
(5.35643e-05 5.35372e-05 0.110491)
(-5.35715e-05 5.35504e-05 0.110491)
(5.35431e-05 -5.35998e-05 0.110491)
(-5.35304e-05 -5.35737e-05 0.110491)
(-2.05101e-05 1.17296e-06 0.101175)
(-4.75638e-05 1.81742e-05 0.0944622)
(-9.32545e-05 1.74486e-05 0.109756)
(-7.90975e-05 5.02134e-05 0.108692)
(-7.78347e-05 2.62373e-06 0.101149)
(-6.98799e-06 -4.02253e-06 0.0944998)
(-9.27073e-05 1.73259e-05 0.109803)
(1.23851e-05 -3.56467e-06 0.0715326)
(-5.55131e-06 4.87089e-06 0.0715835)
(1.11468e-06 -2.05449e-05 0.101174)
(1.74885e-05 -9.32854e-05 0.109755)
(1.82198e-05 -4.76387e-05 0.0944635)
(5.01662e-05 -7.91064e-05 0.108691)
(2.759e-06 -7.79229e-05 0.101149)
(1.73653e-05 -9.27548e-05 0.109803)
(-3.97107e-06 -6.98228e-06 0.0944982)
(-2.2929e-05 -1.32278e-05 0.0883394)
(-1.3197e-05 -2.29484e-05 0.0883382)
(4.51743e-06 4.52192e-06 0.106712)
(-2.86573e-06 4.50081e-06 0.0883687)
(4.56447e-06 -2.87609e-06 0.0883654)
(-1.96176e-07 -1.792e-06 0.0926265)
(-1.2131e-06 2.45967e-05 0.0825299)
(3.86201e-07 3.7854e-05 0.0926123)
(-3.92752e-06 -7.21085e-06 0.082562)
(-3.49578e-06 1.2099e-05 0.0714396)
(4.73873e-06 -5.54611e-06 0.071493)
(-1.77477e-06 -1.6812e-07 0.0926262)
(2.45766e-05 -1.18308e-06 0.0825301)
(3.78859e-05 4.01357e-07 0.0926121)