/*--------------------------------*- C++ -*----------------------------------*\
| =========                 |                                                 |
| \\      /  F ield         | OpenFOAM: The Open Source CFD Toolbox           |
|  \\    /   O peration     | Version:  2312                                  |
|   \\  /    A nd           | Website:  www.openfoam.com                      |
|    \\/     M anipulation  |                                                 |
\*---------------------------------------------------------------------------*/
FoamFile
{
    version     2.0;
    format      ascii;
    arch        "LSB;label=32;scalar=64";
    class       volScalarField;
    location    "500";
    object      epsilon;
}
// * * * * * * * * * * * * * * * * * * * * * * * * * * * * * * * * * * * * * //

dimensions      [0 2 -3 0 0 0 0];

internalField   nonuniform List<scalar> 
43008
(
1.40299e-07
2.15349e-07
1.36487e-07
2.21706e-07
2.21717e-07
3.3453e-07
3.14607e-07
3.29715e-07
2.15382e-07
2.15427e-07
2.1997e-07
2.20014e-07
3.29902e-07
2.15352e-07
2.15414e-07
2.19933e-07
2.20007e-07
2.19922e-07
2.19979e-07
3.14532e-07
3.29821e-07
2.15379e-07
2.19934e-07
2.19967e-07
3.29322e-07
3.34242e-07
2.2176e-07
2.21804e-07
3.34215e-07
2.21724e-07
2.21795e-07
2.21762e-07
3.34188e-07
2.21752e-07
3.46771e-06
8.88395e-06
3.42504e-06
8.88944e-06
1.85246e-05
3.46831e-06
8.88508e-06
3.42458e-06
8.89062e-06
1.40302e-07
1.40303e-07
1.40305e-07
1.37363e-07
1.37368e-07
1.37369e-07
1.3737e-07
9.87866e-07
2.16737e-07
2.66123e-06
1.59065e-07
1.85352e-05
1.85256e-05
9.87948e-07
1.59533e-07
2.63318e-06
2.16746e-07
9.61557e-07
1.59077e-07
2.66125e-06
3.19416e-07
5.05952e-06
5.06134e-06
3.58566e-06
8.89734e-06
3.54939e-06
8.90246e-06
1.85007e-05
1.8492e-05
3.58605e-06
8.89858e-06
3.54903e-06
8.90374e-06
1.3649e-07
1.36492e-07
1.36493e-07
1.07224e-06
2.72077e-06
1.58252e-07
2.23637e-07
1.04497e-06
2.74556e-06
1.58111e-07
1.85015e-05
1.84927e-05
1.07241e-06
1.58272e-07
2.72079e-06
2.23645e-07
1.04513e-06
1.58127e-07
2.74772e-06
5.09483e-06
5.0966e-06
3.40824e-07
5.10904e-06
5.10882e-06
1.85319e-05
1.8522e-05
1.85347e-05
1.8525e-05
5.04211e-06
5.04548e-06
3.19761e-07
5.06089e-06
5.06148e-06
1.85052e-05
1.85144e-05
1.85082e-05
1.85174e-05
3.23711e-07
5.08599e-06
5.08661e-06
5.06901e-06
5.07234e-06
3.46758e-06
8.88399e-06
3.42486e-06
8.88953e-06
9.88679e-07
2.63319e-06
1.59527e-07
2.16779e-07
9.60802e-07
2.66126e-06
1.59074e-07
9.87942e-07
2.63378e-06
1.59535e-07
2.16825e-07
9.61406e-07
2.66185e-06
1.5908e-07
3.48981e-06
8.89609e-06
8.89079e-06
3.52889e-06
3.48982e-06
8.89632e-06
8.89093e-06
3.52893e-06
1.00232e-06
2.1831e-07
2.70446e-06
1.58439e-07
2.67809e-06
1.58737e-07
1.0305e-06
1.00282e-06
2.18355e-07
2.70508e-06
1.58444e-07
2.6787e-06
1.58744e-07
1.02981e-06
3.19216e-07
5.06107e-06
5.05956e-06
1.8523e-05
1.85081e-05
1.85171e-05
3.24161e-07
5.08635e-06
5.08466e-06
5.07203e-06
5.07061e-06
1.8506e-05
1.85154e-05
9.87962e-07
2.63377e-06
1.59527e-07
2.16747e-07
9.61397e-07
2.66176e-06
1.59071e-07
3.46788e-06
8.88466e-06
3.42503e-06
8.89019e-06
9.88113e-07
1.59534e-07
2.63378e-06
2.16819e-07
9.61417e-07
1.59077e-07
2.66194e-06
3.48956e-06
8.89736e-06
8.89194e-06
3.52975e-06
1.00292e-06
2.18276e-07
2.70499e-06
1.58436e-07
2.67865e-06
1.58736e-07
1.0299e-06
3.48991e-06
8.89689e-06
8.89152e-06
3.52923e-06
1.00297e-06
2.18344e-07
1.58441e-07
2.70525e-06
1.58743e-07
2.67879e-06
1.02977e-06
3.46807e-06
8.88992e-06
9.8851e-07
2.1679e-07
1.59067e-07
2.66125e-06
3.46839e-06
8.88981e-06
1.00286e-06
2.18261e-07
2.70441e-06
1.58426e-07
2.67808e-06
1.58725e-07
1.02968e-06
3.48948e-06
8.89653e-06
8.89119e-06
3.52981e-06
1.00239e-06
2.18315e-07
1.58432e-07
2.70602e-06
1.58732e-07
2.67821e-06
1.03026e-06
3.48923e-06
8.89648e-06
8.89105e-06
3.52987e-06
5.04526e-06
5.04228e-06
3.19878e-07
5.06123e-06
5.06114e-06
1.85328e-05
1.85234e-05
1.85088e-05
1.8518e-05
3.23864e-07
5.0864e-06
5.08626e-06
5.0721e-06
5.06926e-06
1.85066e-05
1.85157e-05
9.88264e-07
1.5954e-07
2.63385e-06
2.16779e-07
9.61567e-07
1.59082e-07
2.66195e-06
3.46774e-06
8.88461e-06
3.42519e-06
8.89015e-06
3.46768e-06
8.88477e-06
3.42527e-06
8.89035e-06
1.00302e-06
2.18275e-07
1.58443e-07
2.70456e-06
1.58743e-07
2.67821e-06
1.02972e-06
1.00296e-06
2.18304e-07
1.58444e-07
2.70522e-06
1.58745e-07
2.67877e-06
1.02987e-06
3.49004e-06
8.89687e-06
8.8915e-06
3.52903e-06
3.49007e-06
8.89706e-06
8.89169e-06
3.52893e-06
1.8524e-05
1.85257e-05
3.24088e-07
5.08466e-06
5.08645e-06
5.07033e-06
5.07212e-06
1.85073e-05
1.85164e-05
1.8509e-05
1.85182e-05
1.84979e-05
1.84892e-05
1.85008e-05
1.84921e-05
5.09343e-06
5.09665e-06
3.40545e-07
5.10882e-06
5.11089e-06
3.58492e-06
8.89755e-06
3.5494e-06
8.90268e-06
1.07245e-06
2.72047e-06
1.58268e-07
2.23687e-07
1.0445e-06
2.74759e-06
1.58124e-07
1.07243e-06
2.72103e-06
1.58273e-07
2.23735e-07
1.04493e-06
2.74821e-06
1.58128e-07
5.09632e-06
5.09504e-06
3.40835e-07
5.11059e-06
5.10692e-06
1.84986e-05
1.84899e-05
1.07213e-06
2.72106e-06
1.58265e-07
2.23648e-07
1.04504e-06
2.74804e-06
1.5812e-07
3.58531e-06
8.8981e-06
3.54944e-06
8.90329e-06
1.07208e-06
1.58273e-07
2.72131e-06
2.23729e-07
1.04514e-06
1.58127e-07
2.74626e-06
3.58564e-06
8.89779e-06
3.5489e-06
8.90295e-06
1.07254e-06
1.5826e-07
2.71975e-06
2.23696e-07
1.04461e-06
1.58114e-07
2.74771e-06
3.58581e-06
8.89767e-06
3.54877e-06
8.90288e-06
5.09642e-06
5.09378e-06
3.40611e-07
5.1087e-06
5.10681e-06
1.84992e-05
1.84905e-05
1.073e-06
1.58275e-07
2.7213e-06
2.23683e-07
1.04515e-06
1.58129e-07
2.7462e-06
3.58566e-06
8.89808e-06
3.5496e-06
8.90329e-06
3.58581e-06
8.89829e-06
3.5496e-06
8.90345e-06
1.84999e-05
1.84911e-05
1.85016e-05
1.84928e-05
1.21037e-05
3.45811e-06
1.06414e-05
4.3391e-06
1.06396e-05
4.33176e-06
1.21066e-05
2.25123e-05
7.18607e-06
8.88605e-06
2.25105e-05
7.18583e-06
1.21035e-05
3.43506e-06
1.06381e-05
4.30675e-06
1.21008e-05
1.06396e-05
4.3146e-06
2.25011e-05
7.19241e-06
8.88737e-06
7.19215e-06
2.25029e-05
1.85332e-05
1.85256e-05
1.21038e-05
3.45783e-06
4.33913e-06
1.06417e-05
4.33183e-06
1.06399e-05
1.21067e-05
2.25119e-05
7.18476e-06
8.88724e-06
2.251e-05
7.18684e-06
1.21036e-05
3.43567e-06
4.30682e-06
1.06384e-05
1.21008e-05
4.31452e-06
1.06398e-05
2.25007e-05
7.19249e-06
8.88852e-06
7.19157e-06
2.25025e-05
1.85342e-05
1.85265e-05
9.71724e-06
2.19931e-05
2.19925e-05
2.19928e-05
2.19922e-05
9.71692e-06
3.80585e-06
5.04589e-06
1.74759e-06
8.97442e-06
3.81289e-06
5.04776e-06
1.74941e-06
8.97915e-06
9.71378e-06
2.20034e-05
2.20028e-05
3.82303e-06
8.98395e-06
5.05744e-06
1.77235e-06
1.76531e-06
8.97805e-06
3.82845e-06
3.82985e-06
8.98868e-06
5.05923e-06
1.774e-06
1.76683e-06
8.98274e-06
3.83545e-06
1.21172e-05
3.57693e-06
1.06555e-05
4.42443e-06
1.06524e-05
4.41887e-06
1.21204e-05
2.24742e-05
7.2066e-06
8.89931e-06
2.24726e-05
7.20643e-06
1.21168e-05
3.55773e-06
1.06482e-05
4.39893e-06
1.21137e-05
1.06512e-05
4.40499e-06
2.24631e-05
7.20991e-06
8.90047e-06
7.21008e-06
2.24646e-05
1.85e-05
1.84927e-05
1.21173e-05
3.57665e-06
4.42448e-06
1.06558e-05
4.41893e-06
1.06527e-05
1.21205e-05
2.2474e-05
7.20613e-06
8.90061e-06
2.24724e-05
7.20655e-06
1.21169e-05
3.55842e-06
4.39897e-06
1.06485e-05
1.21137e-05
4.40504e-06
1.06515e-05
2.2463e-05
7.20997e-06
8.90177e-06
7.20989e-06
2.24645e-05
1.85007e-05
1.84934e-05
9.72657e-06
2.1952e-05
2.19514e-05
2.19517e-05
2.19512e-05
9.72543e-06
3.89038e-06
1.83744e-06
9.00522e-06
5.09632e-06
3.88549e-06
1.84449e-06
9.01056e-06
3.89892e-06
1.8391e-06
9.00995e-06
5.098e-06
3.89193e-06
1.84591e-06
9.01537e-06
9.72384e-06
2.1962e-05
2.19614e-05
9.72479e-06
2.19622e-05
2.19617e-05
3.90538e-06
9.01874e-06
5.10569e-06
1.86748e-06
1.86055e-06
9.01368e-06
3.90934e-06
3.91113e-06
9.02359e-06
5.10792e-06
1.86974e-06
1.86192e-06
9.01843e-06
3.91812e-06
1.85308e-05
1.85229e-05
1.85337e-05
1.8526e-05
9.71752e-06
2.19933e-05
2.19927e-05
2.19929e-05
2.19923e-05
9.71718e-06
3.80575e-06
1.74004e-06
8.96777e-06
5.04735e-06
3.80004e-06
8.97424e-06
1.74744e-06
3.81257e-06
1.74171e-06
8.97306e-06
5.04779e-06
3.80711e-06
8.97945e-06
1.74913e-06
9.71409e-06
2.20033e-05
2.20027e-05
9.71429e-06
2.20036e-05
2.2003e-05
3.8228e-06
8.98365e-06
5.05607e-06
1.77219e-06
8.97753e-06
3.82815e-06
1.76508e-06
3.82975e-06
8.9889e-06
5.05937e-06
1.77392e-06
8.9828e-06
3.83515e-06
1.76661e-06
1.8506e-05
1.85135e-05
1.85091e-05
1.85165e-05
9.71982e-06
2.19826e-05
2.1982e-05
9.7204e-06
2.19827e-05
2.19823e-05
3.86565e-06
1.82039e-06
5.08149e-06
9.00169e-06
8.99595e-06
1.81377e-06
3.87032e-06
3.87263e-06
1.82214e-06
5.08505e-06
9.00697e-06
9.00142e-06
1.81528e-06
3.87751e-06
3.84955e-06
8.98681e-06
1.7896e-06
5.07348e-06
3.84463e-06
8.99293e-06
1.79648e-06
3.85661e-06
8.9922e-06
1.79117e-06
5.07439e-06
3.8516e-06
8.99816e-06
1.79831e-06
9.72288e-06
2.19721e-05
2.1972e-05
2.19718e-05
2.19717e-05
9.72211e-06
1.21038e-05
3.45807e-06
1.06413e-05
4.33904e-06
1.06395e-05
4.33139e-06
1.21067e-05
2.25121e-05
7.183e-06
8.88609e-06
2.25103e-05
7.18519e-06
1.21036e-05
3.43509e-06
1.0638e-05
4.30637e-06
1.06394e-05
1.21009e-05
4.31468e-06
2.2501e-05
7.19106e-06
8.88746e-06
7.18948e-06
2.25028e-05
1.21099e-05
1.06418e-05
4.35543e-06
3.49903e-06
1.21069e-05
1.06441e-05
4.36231e-06
2.24822e-05
8.89406e-06
7.20272e-06
2.24837e-05
7.20265e-06
2.24934e-05
7.19736e-06
8.89286e-06
2.24917e-05
7.19723e-06
1.21102e-05
3.52022e-06
1.06474e-05
4.38428e-06
1.21133e-05
1.06447e-05
4.37773e-06
1.211e-05
1.06416e-05
4.35513e-06
3.49887e-06
1.21069e-05
1.06439e-05
4.36235e-06
2.24822e-05
8.89432e-06
7.20091e-06
7.20008e-06
2.24837e-05
2.24933e-05
7.19511e-06
8.89305e-06
2.24917e-05
7.19624e-06
1.21103e-05
3.52033e-06
1.06473e-05
4.3843e-06
1.06445e-05
4.37746e-06
1.21134e-05
9.71761e-06
2.19932e-05
2.19934e-05
2.19928e-05
2.1993e-05
9.71733e-06
3.81412e-06
5.04734e-06
8.97955e-06
1.74913e-06
3.8069e-06
5.04583e-06
1.74806e-06
8.97501e-06
9.71417e-06
2.20037e-05
2.20039e-05
3.82881e-06
8.98906e-06
5.05922e-06
1.77386e-06
8.9821e-06
1.7668e-06
3.83653e-06
3.82163e-06
8.98445e-06
5.05761e-06
1.77302e-06
1.76445e-06
8.97753e-06
3.82934e-06
1.85316e-05
1.85238e-05
1.85088e-05
1.85163e-05
9.72005e-06
2.19825e-05
2.19827e-05
9.72054e-06
2.19829e-05
2.19831e-05
3.87169e-06
1.82227e-06
5.08474e-06
9.00708e-06
1.81551e-06
9.00066e-06
3.87896e-06
3.86452e-06
1.82124e-06
5.08342e-06
9.00248e-06
8.99598e-06
1.81287e-06
3.87156e-06
3.85832e-06
8.99157e-06
1.7914e-06
5.07409e-06
1.79836e-06
3.85072e-06
8.99826e-06
3.85106e-06
8.98693e-06
1.78888e-06
5.07235e-06
3.84346e-06
8.99359e-06
1.7971e-06
9.72303e-06
2.19725e-05
2.19727e-05
2.19722e-05
2.19724e-05
9.72231e-06
1.85068e-05
1.85144e-05
1.21039e-05
3.4582e-06
1.06416e-05
4.33937e-06
1.06398e-05
4.33135e-06
1.21069e-05
2.25114e-05
7.18392e-06
8.88678e-06
2.25096e-05
7.18372e-06
1.21038e-05
3.4353e-06
1.06383e-05
4.30636e-06
1.06397e-05
1.2101e-05
4.31476e-06
2.25003e-05
7.19052e-06
8.88808e-06
7.1901e-06
2.2502e-05
1.211e-05
4.35545e-06
1.0642e-05
3.49965e-06
1.21069e-05
4.36237e-06
1.06443e-05
2.24819e-05
8.89532e-06
7.20257e-06
2.24835e-05
7.20174e-06
2.2493e-05
7.19646e-06
8.89411e-06
2.24913e-05
7.19795e-06
1.21103e-05
3.51995e-06
4.38436e-06
1.06477e-05
1.21134e-05
4.37778e-06
1.06449e-05
1.21102e-05
1.06419e-05
4.35501e-06
3.49919e-06
1.21071e-05
1.06442e-05
4.36245e-06
2.24815e-05
8.89488e-06
7.20064e-06
7.2005e-06
2.24831e-05
2.24926e-05
7.19521e-06
8.89366e-06
2.24909e-05
7.19517e-06
1.21105e-05
3.52034e-06
1.06475e-05
4.3844e-06
1.06448e-05
4.37744e-06
1.21136e-05
1.21032e-05
3.45762e-06
4.33894e-06
1.06414e-05
4.33136e-06
1.06396e-05
1.2106e-05
2.24991e-05
7.19176e-06
8.88786e-06
7.19088e-06
2.25011e-05
1.21035e-05
3.45726e-06
1.06412e-05
4.3391e-06
1.06394e-05
4.33129e-06
1.21065e-05
2.25001e-05
7.18966e-06
8.8877e-06
7.19012e-06
2.25018e-05
1.21093e-05
4.35514e-06
1.06417e-05
3.49964e-06
1.21063e-05
4.36237e-06
1.06441e-05
2.24802e-05
8.89457e-06
7.20171e-06
7.20133e-06
2.24822e-05
2.24917e-05
7.19618e-06
8.89329e-06
2.24896e-05
7.19701e-06
1.21097e-05
3.51977e-06
4.38433e-06
1.06474e-05
4.37742e-06
1.06446e-05
1.21128e-05
1.21098e-05
1.06415e-05
4.355e-06
3.49977e-06
1.21067e-05
1.06439e-05
4.36231e-06
2.24813e-05
8.89444e-06
7.20007e-06
7.19997e-06
2.24829e-05
2.24924e-05
7.19553e-06
8.89322e-06
2.24907e-05
7.19578e-06
1.21101e-05
3.51961e-06
1.06472e-05
4.3844e-06
1.06444e-05
4.37735e-06
1.21132e-05
9.71721e-06
2.19926e-05
2.19928e-05
2.19923e-05
2.19925e-05
9.71685e-06
3.81277e-06
1.74188e-06
8.97283e-06
5.0476e-06
8.97898e-06
3.80719e-06
1.74917e-06
3.80583e-06
1.74016e-06
8.96788e-06
5.04754e-06
1.74739e-06
3.79991e-06
8.97435e-06
9.71373e-06
2.20025e-05
2.20028e-05
2.20029e-05
9.71383e-06
2.20032e-05
3.8299e-06
8.98848e-06
5.05908e-06
1.77396e-06
8.98246e-06
1.76685e-06
3.83527e-06
3.82266e-06
8.98378e-06
5.05629e-06
1.77216e-06
1.76515e-06
8.97757e-06
3.82815e-06
1.85319e-05
1.85242e-05
1.85097e-05
1.85171e-05
9.71952e-06
2.1982e-05
2.19822e-05
9.72012e-06
2.19823e-05
2.19825e-05
3.87277e-06
1.82237e-06
5.0848e-06
9.00658e-06
1.81544e-06
9.00102e-06
3.87769e-06
3.86563e-06
1.82048e-06
5.08179e-06
9.00186e-06
8.99622e-06
1.81385e-06
3.87046e-06
3.85684e-06
8.9919e-06
1.79132e-06
5.07415e-06
1.79857e-06
3.85171e-06
8.99771e-06
3.84961e-06
8.98697e-06
1.78968e-06
5.07373e-06
3.8445e-06
8.99307e-06
1.79655e-06
9.72262e-06
2.1972e-05
2.19722e-05
2.19717e-05
2.19719e-05
9.72182e-06
1.85074e-05
1.85149e-05
1.21036e-05
3.45838e-06
4.33903e-06
1.06416e-05
4.33178e-06
1.06398e-05
1.21064e-05
2.25111e-05
7.18484e-06
8.88675e-06
7.18523e-06
2.25093e-05
1.21034e-05
3.43512e-06
4.30677e-06
1.06383e-05
4.31441e-06
1.21006e-05
1.06397e-05
2.24999e-05
7.19077e-06
8.88803e-06
7.19095e-06
2.25017e-05
1.21041e-05
3.45842e-06
4.33928e-06
1.06417e-05
4.3313e-06
1.06399e-05
1.2107e-05
2.25119e-05
7.18396e-06
8.88693e-06
2.25101e-05
7.18394e-06
1.21039e-05
3.43505e-06
4.30633e-06
1.06384e-05
1.21012e-05
4.31473e-06
1.06398e-05
2.25008e-05
7.19074e-06
8.88821e-06
7.1901e-06
2.25025e-05
1.21097e-05
4.35538e-06
1.0642e-05
3.49907e-06
1.21067e-05
4.36228e-06
1.06443e-05
2.24811e-05
8.89485e-06
7.20163e-06
7.20149e-06
2.24827e-05
2.24922e-05
7.19684e-06
8.89362e-06
2.24906e-05
7.19722e-06
1.21101e-05
3.52054e-06
4.38419e-06
1.06476e-05
4.37777e-06
1.06449e-05
1.21132e-05
1.21103e-05
4.35499e-06
1.0642e-05
3.49909e-06
1.21073e-05
4.36251e-06
1.06443e-05
2.2482e-05
8.89503e-06
7.20047e-06
7.20056e-06
2.24837e-05
2.24931e-05
7.19527e-06
8.89381e-06
2.24914e-05
7.1953e-06
1.21106e-05
3.52053e-06
4.38446e-06
1.06477e-05
4.37736e-06
1.06449e-05
1.21137e-05
1.85326e-05
1.85249e-05
1.85343e-05
1.85267e-05
9.7196e-06
2.19825e-05
2.19819e-05
9.72014e-06
2.19828e-05
2.19822e-05
3.86489e-06
1.82079e-06
5.08309e-06
9.002e-06
3.8718e-06
1.81391e-06
8.99649e-06
3.87176e-06
1.82236e-06
5.08484e-06
9.00679e-06
3.87896e-06
1.81544e-06
9.00121e-06
3.8513e-06
8.98731e-06
1.78977e-06
5.07249e-06
3.84468e-06
1.79687e-06
8.99322e-06
3.85818e-06
8.992e-06
1.79137e-06
5.07432e-06
3.85154e-06
1.79851e-06
8.99798e-06
9.72264e-06
2.19725e-05
2.19719e-05
9.72191e-06
2.19722e-05
2.19717e-05
1.85081e-05
1.85156e-05
1.85098e-05
1.85173e-05
1.84972e-05
1.84899e-05
1.85001e-05
1.84928e-05
9.72676e-06
2.19517e-05
2.19517e-05
2.19514e-05
2.19513e-05
9.72566e-06
3.89018e-06
1.83727e-06
9.00465e-06
5.09754e-06
3.88571e-06
9.01027e-06
1.84396e-06
3.89726e-06
1.83889e-06
9.01011e-06
5.09819e-06
3.89275e-06
9.01557e-06
1.84566e-06
9.72405e-06
2.19615e-05
2.19614e-05
9.72499e-06
2.19618e-05
2.19617e-05
3.9053e-06
9.0185e-06
5.10459e-06
1.86677e-06
9.01318e-06
3.90884e-06
1.86051e-06
3.91237e-06
9.02379e-06
5.10761e-06
1.86878e-06
9.01867e-06
3.91596e-06
1.86205e-06
1.21173e-05
3.57722e-06
1.06559e-05
4.42455e-06
1.06519e-05
4.41847e-06
1.21205e-05
2.24742e-05
7.20451e-06
8.89959e-06
2.24726e-05
7.20482e-06
1.2117e-05
3.55764e-06
1.0648e-05
4.39858e-06
1.06512e-05
1.21138e-05
4.40499e-06
2.24631e-05
7.20814e-06
8.90074e-06
7.20814e-06
2.24646e-05
9.72692e-06
2.19517e-05
2.19522e-05
2.19514e-05
2.19519e-05
9.72583e-06
3.89895e-06
1.83903e-06
9.00937e-06
5.09787e-06
9.01551e-06
3.89191e-06
1.84612e-06
3.89002e-06
1.83666e-06
9.00481e-06
5.09608e-06
1.84469e-06
3.88516e-06
9.01105e-06
9.72423e-06
2.19617e-05
2.19621e-05
2.1962e-05
9.72512e-06
2.19624e-05
3.91095e-06
9.02384e-06
5.10731e-06
1.86913e-06
9.01778e-06
1.86186e-06
3.91859e-06
3.90508e-06
9.01935e-06
5.10649e-06
1.86795e-06
1.85974e-06
9.01327e-06
3.90903e-06
1.84979e-05
1.84906e-05
1.21174e-05
3.57713e-06
1.06557e-05
4.42458e-06
1.06526e-05
4.41851e-06
1.21206e-05
2.24736e-05
7.20432e-06
8.90015e-06
2.2472e-05
7.20434e-06
1.21171e-05
3.55798e-06
1.06484e-05
4.39863e-06
1.06514e-05
1.21139e-05
4.40505e-06
2.24626e-05
7.20783e-06
8.90134e-06
7.20795e-06
2.24641e-05
1.21167e-05
3.57652e-06
4.42462e-06
1.0656e-05
4.41838e-06
1.06519e-05
1.21199e-05
2.24727e-05
7.20566e-06
8.89981e-06
7.20573e-06
2.24707e-05
1.21163e-05
3.55826e-06
4.39857e-06
1.06481e-05
4.40494e-06
1.21131e-05
1.06514e-05
2.24612e-05
7.20923e-06
8.90103e-06
7.20931e-06
2.24631e-05
1.21171e-05
3.57639e-06
1.06559e-05
4.42497e-06
1.06517e-05
4.41813e-06
1.21203e-05
2.24734e-05
7.20416e-06
8.89975e-06
2.24718e-05
7.20414e-06
1.21167e-05
3.55832e-06
1.06479e-05
4.39845e-06
1.21135e-05
1.06513e-05
4.40513e-06
2.24623e-05
7.20753e-06
8.90091e-06
7.20772e-06
2.24638e-05
9.72648e-06
2.19514e-05
2.19516e-05
2.19511e-05
2.19513e-05
9.72533e-06
3.89755e-06
1.83895e-06
9.00974e-06
5.09786e-06
9.01516e-06
3.89287e-06
1.84604e-06
3.89167e-06
1.83733e-06
9.00491e-06
5.09767e-06
1.84406e-06
3.88535e-06
9.01051e-06
9.72374e-06
2.19614e-05
2.19616e-05
2.19617e-05
9.72473e-06
2.19619e-05
3.91238e-06
9.02338e-06
5.10785e-06
1.86896e-06
9.01827e-06
1.86217e-06
3.91635e-06
3.904e-06
9.01893e-06
5.10558e-06
1.86693e-06
1.86057e-06
9.01314e-06
3.91133e-06
1.84985e-05
1.84912e-05
1.2117e-05
3.57693e-06
4.42441e-06
1.06562e-05
4.41882e-06
1.06522e-05
1.21202e-05
2.24732e-05
7.20567e-06
8.90014e-06
7.20576e-06
2.24717e-05
1.21167e-05
3.55824e-06
4.39892e-06
1.06484e-05
4.40489e-06
1.21135e-05
1.06516e-05
2.24622e-05
7.2092e-06
8.90131e-06
7.2093e-06
2.24636e-05
1.21176e-05
3.57689e-06
4.42454e-06
1.06563e-05
4.41857e-06
1.06522e-05
1.21208e-05
2.24741e-05
7.20451e-06
8.90033e-06
2.24726e-05
7.20467e-06
1.21172e-05
3.55821e-06
4.39851e-06
1.06484e-05
1.21141e-05
4.40494e-06
1.06517e-05
2.24631e-05
7.20825e-06
8.90155e-06
7.20806e-06
2.24646e-05
1.84991e-05
1.84918e-05
1.85008e-05
1.84936e-05
1.27764e-07
1.2776e-07
1.39268e-07
1.26358e-07
1.26354e-07
1.21064e-07
1.22602e-07
1.54883e-06
3.14757e-07
6.54472e-07
6.54614e-07
1.22378e-07
1.22374e-07
1.35667e-07
1.21127e-07
1.21123e-07
1.15234e-07
1.16644e-07
1.64865e-06
7.08026e-07
7.08514e-07
3.344e-07
1.64103e-06
7.11245e-07
7.11367e-07
1.54857e-06
6.51578e-07
6.51883e-07
3.15103e-07
1.54241e-06
6.54111e-07
6.54579e-07
1.61733e-06
3.29062e-07
6.96242e-07
6.96782e-07
6.93886e-07
6.93968e-07
1.62338e-06
1.54937e-06
3.14688e-07
6.55277e-07
6.54711e-07
1.61658e-06
3.28931e-07
6.97687e-07
6.97321e-07
6.93749e-07
6.92866e-07
1.62449e-06
1.54904e-06
6.5109e-07
6.51844e-07
3.15178e-07
6.54185e-07
1.54215e-06
6.5558e-07
1.61724e-06
3.28998e-07
6.98099e-07
6.96307e-07
6.93111e-07
6.93998e-07
1.62377e-06
1.61654e-06
3.29449e-07
6.96845e-07
6.96846e-07
1.62462e-06
6.93678e-07
6.94147e-07
1.64742e-06
7.08108e-07
7.08204e-07
3.34959e-07
1.64152e-06
7.10691e-07
7.12134e-07
1.64847e-06
7.07619e-07
7.07406e-07
3.3517e-07
7.1176e-07
1.64081e-06
7.11975e-07
1.6481e-06
7.07689e-07
7.08144e-07
3.3502e-07
7.10865e-07
1.64134e-06
7.1099e-07
1.27765e-07
1.2776e-07
1.39272e-07
1.26359e-07
1.26355e-07
1.21064e-07
1.22602e-07
1.27764e-07
1.27763e-07
1.39273e-07
1.26358e-07
1.26356e-07
1.21065e-07
1.22603e-07
1.27764e-07
1.27764e-07
1.39274e-07
1.26358e-07
1.26357e-07
1.21065e-07
1.22603e-07
1.38288e-07
1.23666e-07
1.23661e-07
1.24993e-07
1.24989e-07
1.19559e-07
1.18086e-07
1.38291e-07
1.23667e-07
1.23662e-07
1.24994e-07
1.24989e-07
1.19559e-07
1.18086e-07
1.38293e-07
1.23666e-07
1.23664e-07
1.24994e-07
1.24992e-07
1.1956e-07
1.18086e-07
1.38293e-07
1.23666e-07
1.23665e-07
1.24993e-07
1.24993e-07
1.1956e-07
1.18087e-07
4.1198e-07
9.82146e-07
1.29506e-06
3.38293e-07
1.28682e-06
3.37726e-07
4.14198e-07
5.77422e-07
1.92553e-06
2.65611e-06
8.87741e-07
8.83845e-07
1.91752e-06
5.78325e-07
4.12955e-07
9.82269e-07
3.38328e-07
1.29434e-06
3.37795e-07
1.28781e-06
4.13102e-07
5.68269e-07
8.67577e-07
1.89481e-06
2.63845e-06
5.67452e-07
8.71312e-07
1.90081e-06
4.0606e-07
9.67371e-07
3.32538e-07
1.26464e-06
4.05887e-07
3.33095e-07
1.2711e-06
5.77435e-07
1.92465e-06
2.65609e-06
8.87482e-07
8.83903e-07
1.91869e-06
5.78309e-07
1.56772e-06
3.19434e-07
6.68509e-07
6.68662e-07
6.65602e-07
6.65907e-07
1.57428e-06
1.22379e-07
1.22373e-07
1.35672e-07
1.21128e-07
1.21124e-07
1.15234e-07
1.16645e-07
1.22379e-07
1.22377e-07
1.35674e-07
1.21128e-07
1.21126e-07
1.15234e-07
1.16645e-07
1.22378e-07
1.22378e-07
1.35674e-07
1.21128e-07
1.21126e-07
1.15235e-07
1.16645e-07
4.4318e-07
1.06616e-06
1.38644e-06
3.61224e-07
1.37927e-06
3.60547e-07
4.44988e-07
6.10239e-07
9.3319e-07
1.98714e-06
2.72529e-06
6.09324e-07
9.37216e-07
1.9946e-06
4.3682e-07
1.05106e-06
1.35652e-06
3.54321e-07
4.34476e-07
1.36357e-06
3.55112e-07
6.20445e-07
2.01672e-06
2.74136e-06
9.54204e-07
9.49925e-07
2.00984e-06
6.20888e-07
4.44155e-07
1.0663e-06
3.62102e-07
1.38596e-06
3.59975e-07
1.3799e-06
4.43638e-07
6.11386e-07
9.33087e-07
1.98829e-06
2.72548e-06
6.08214e-07
9.376e-07
1.99352e-06
4.35747e-07
1.05119e-06
3.53967e-07
1.35694e-06
4.35563e-07
3.55756e-07
1.3634e-06
6.19587e-07
2.01578e-06
2.74065e-06
9.54345e-07
9.49945e-07
2.01075e-06
6.20438e-07
1.66475e-06
3.39937e-07
7.26052e-07
7.27006e-07
7.22616e-07
7.22567e-07
1.67295e-06
1.5676e-06
3.19169e-07
6.68111e-07
6.6864e-07
1.57388e-06
6.65623e-07
6.65861e-07
1.59866e-06
3.24624e-07
6.79557e-07
6.7982e-07
1.59262e-06
6.8223e-07
6.82651e-07
4.11908e-07
9.81449e-07
1.29461e-06
3.38945e-07
1.28726e-06
3.37244e-07
4.14151e-07
5.69387e-07
8.67737e-07
1.89481e-06
2.63851e-06
1.90112e-06
5.66297e-07
8.71185e-07
4.07046e-07
9.67971e-07
1.26411e-06
3.32066e-07
1.27146e-06
4.04904e-07
3.33669e-07
5.76442e-07
1.92508e-06
2.656e-06
8.87532e-07
1.9188e-06
8.84009e-07
5.79408e-07
4.12445e-07
9.82132e-07
1.29438e-06
3.38894e-07
1.28761e-06
3.37242e-07
4.12706e-07
5.68383e-07
8.68116e-07
1.89449e-06
2.63909e-06
5.67568e-07
1.90086e-06
8.71863e-07
4.05939e-07
9.67349e-07
1.26444e-06
3.32061e-07
4.05088e-07
1.27105e-06
3.33633e-07
5.77503e-07
1.92494e-06
2.65666e-06
8.88272e-07
1.91851e-06
5.78434e-07
8.84342e-07
4.21579e-07
1.31052e-06
3.42548e-07
1.0095e-06
4.19373e-07
1.31795e-06
3.44268e-07
5.97323e-07
9.20358e-07
2.69967e-06
1.97157e-06
9.17042e-07
1.96543e-06
6.00369e-07
5.89942e-07
1.94243e-06
9.00355e-07
2.68321e-06
9.04117e-07
5.86756e-07
1.94833e-06
4.26715e-07
1.0233e-06
1.34085e-06
3.49945e-07
1.33346e-06
3.48077e-07
4.28923e-07
4.20249e-07
1.3108e-06
3.42528e-07
1.009e-06
4.2003e-07
1.31736e-06
3.44205e-07
5.98364e-07
9.21232e-07
2.70021e-06
1.97141e-06
1.96514e-06
9.17137e-07
5.9942e-07
5.88628e-07
1.94217e-06
9.00685e-07
2.68385e-06
5.87799e-07
1.94797e-06
9.04946e-07
4.27505e-07
1.02387e-06
1.34039e-06
3.49888e-07
1.33383e-06
3.48066e-07
4.27823e-07
1.56699e-06
3.19295e-07
6.68614e-07
6.69177e-07
6.6471e-07
6.65834e-07
1.57496e-06
1.5997e-06
3.24619e-07
6.79836e-07
6.78828e-07
6.82831e-07
1.59182e-06
6.83059e-07
4.12854e-07
9.82138e-07
1.29393e-06
3.3832e-07
1.28799e-06
3.37776e-07
4.12691e-07
5.69166e-07
8.68047e-07
1.89515e-06
2.63897e-06
1.9007e-06
5.66577e-07
8.71486e-07
4.05787e-07
9.67303e-07
1.26463e-06
3.32509e-07
1.27093e-06
4.05865e-07
3.33053e-07
5.76376e-07
1.92465e-06
2.65656e-06
8.87806e-07
1.91908e-06
8.84304e-07
5.79293e-07
4.11897e-07
9.82068e-07
3.38287e-07
1.2944e-06
3.37719e-07
1.28761e-06
4.1411e-07
5.69434e-07
8.67956e-07
1.89458e-06
2.63925e-06
5.66273e-07
1.90074e-06
8.72009e-07
4.07028e-07
9.67405e-07
3.32432e-07
1.26441e-06
4.04898e-07
3.33003e-07
1.27112e-06
5.76418e-07
1.92443e-06
2.65668e-06
8.88489e-07
1.91853e-06
5.79448e-07
8.84359e-07
4.20377e-07
1.31102e-06
3.4303e-07
1.00878e-06
4.20088e-07
1.31721e-06
3.43626e-07
5.9724e-07
9.20805e-07
2.70027e-06
1.97129e-06
9.17173e-07
1.96588e-06
6.00454e-07
5.8992e-07
1.94261e-06
9.00637e-07
2.68389e-06
9.04571e-07
5.86706e-07
1.94827e-06
4.27563e-07
1.02394e-06
1.34016e-06
3.49226e-07
1.33417e-06
3.48613e-07
4.2778e-07
4.21543e-07
3.43004e-07
1.31083e-06
1.00872e-06
4.19369e-07
3.43606e-07
1.3174e-06
5.97253e-07
9.21358e-07
2.70043e-06
1.9709e-06
1.96556e-06
9.1715e-07
6.00554e-07
5.89963e-07
1.94221e-06
9.00787e-07
2.68392e-06
5.8672e-07
1.94801e-06
9.04641e-07
4.26684e-07
1.02399e-06
3.49194e-07
1.34039e-06
3.48571e-07
1.33387e-06
4.28881e-07
4.12795e-07
9.81385e-07
3.38236e-07
1.294e-06
3.37717e-07
1.28792e-06
4.1276e-07
5.77431e-07
1.92414e-06
2.6563e-06
8.87642e-07
8.84187e-07
1.91866e-06
5.78227e-07
4.21551e-07
1.31017e-06
3.42967e-07
1.00881e-06
4.19409e-07
1.31774e-06
3.43622e-07
5.98339e-07
9.20545e-07
2.6998e-06
1.97221e-06
5.99401e-07
9.16651e-07
1.96433e-06
5.8853e-07
1.94133e-06
9.0016e-07
2.68315e-06
5.87734e-07
9.04186e-07
1.9487e-06
4.26784e-07
1.02383e-06
1.34059e-06
3.4914e-07
4.28799e-07
1.33338e-06
3.48496e-07
4.20361e-07
3.42969e-07
1.31085e-06
1.00926e-06
4.20051e-07
3.43599e-07
1.31719e-06
5.98418e-07
9.20681e-07
2.69936e-06
1.97065e-06
1.96525e-06
9.17009e-07
5.99328e-07
5.88555e-07
1.94182e-06
9.00351e-07
2.68361e-06
5.87743e-07
1.94802e-06
9.04213e-07
4.27479e-07
1.02345e-06
3.49213e-07
1.34008e-06
3.48575e-07
1.33394e-06
4.2778e-07
1.56755e-06
3.19123e-07
6.70083e-07
6.68123e-07
6.65714e-07
6.65179e-07
1.57426e-06
1.59933e-06
3.24593e-07
6.78874e-07
6.79654e-07
6.83285e-07
1.59237e-06
6.82397e-07
4.12433e-07
9.82127e-07
3.38335e-07
1.29462e-06
3.37789e-07
1.28748e-06
4.13699e-07
5.68333e-07
8.68077e-07
1.8945e-06
2.63932e-06
8.71815e-07
5.67548e-07
1.90096e-06
4.06256e-07
9.6753e-07
3.32559e-07
1.26409e-06
3.33112e-07
4.05765e-07
1.27149e-06
5.77503e-07
1.92495e-06
2.65668e-06
8.88051e-07
8.84474e-07
1.91848e-06
5.7839e-07
4.20592e-07
3.4306e-07
1.31095e-06
1.00882e-06
4.20349e-07
3.4367e-07
1.3175e-06
5.97403e-07
9.2071e-07
2.69979e-06
1.97089e-06
6.00278e-07
9.16659e-07
1.96559e-06
5.89682e-07
1.94226e-06
9.00192e-07
2.68324e-06
5.87569e-07
9.04498e-07
1.94838e-06
4.27701e-07
1.02401e-06
3.49825e-07
1.34046e-06
4.28109e-07
3.48515e-07
1.33393e-06
4.21289e-07
3.4307e-07
1.31062e-06
1.00899e-06
4.19151e-07
3.43746e-07
1.31775e-06
5.97678e-07
9.20992e-07
2.70043e-06
1.97121e-06
1.96525e-06
9.17426e-07
6.00052e-07
5.89328e-07
1.94214e-06
9.00869e-07
2.68404e-06
5.87689e-07
1.9481e-06
9.04564e-07
4.26661e-07
1.02399e-06
3.49844e-07
1.34075e-06
3.4835e-07
1.33368e-06
4.28786e-07
1.60027e-06
3.241e-07
6.79556e-07
6.79898e-07
1.59263e-06
6.82589e-07
6.8272e-07
1.66539e-06
3.39647e-07
7.25246e-07
7.26639e-07
1.67129e-06
7.22717e-07
7.22158e-07
4.43014e-07
1.06578e-06
1.38573e-06
3.62118e-07
1.37944e-06
3.59898e-07
4.44809e-07
6.09883e-07
9.33475e-07
1.98846e-06
2.72681e-06
1.99399e-06
6.08704e-07
9.37073e-07
4.36712e-07
1.05134e-06
1.35662e-06
3.53973e-07
1.36357e-06
4.34405e-07
3.55732e-07
6.20327e-07
2.01708e-06
2.73988e-06
9.53632e-07
2.01035e-06
9.50328e-07
6.20887e-07
4.43817e-07
1.06605e-06
1.38699e-06
3.62055e-07
1.37916e-06
3.59877e-07
4.43406e-07
6.10239e-07
9.33656e-07
1.98809e-06
2.72741e-06
6.09276e-07
1.99441e-06
9.38169e-07
4.35312e-07
1.05127e-06
1.35685e-06
3.5393e-07
4.35139e-07
1.36349e-06
3.55697e-07
6.20542e-07
2.01706e-06
2.74043e-06
9.54866e-07
2.0097e-06
6.20964e-07
9.50444e-07
1.66446e-06
3.39965e-07
7.26986e-07
7.26523e-07
7.2186e-07
7.2211e-07
1.67353e-06
4.43775e-07
1.06633e-06
1.38594e-06
3.62003e-07
1.37988e-06
3.60138e-07
4.43355e-07
6.11393e-07
9.33538e-07
1.9885e-06
2.72736e-06
1.99396e-06
6.08272e-07
9.38568e-07
4.3531e-07
1.0512e-06
1.35705e-06
3.54445e-07
1.36344e-06
4.35145e-07
3.55413e-07
6.19545e-07
2.01609e-06
2.74053e-06
9.55303e-07
2.01098e-06
9.4964e-07
6.20468e-07
4.42988e-07
1.06638e-06
3.62019e-07
1.3862e-06
3.60128e-07
1.37956e-06
4.4479e-07
6.11608e-07
9.33944e-07
1.9882e-06
2.72609e-06
6.08254e-07
1.99376e-06
9.37879e-07
4.36694e-07
1.05106e-06
3.54435e-07
1.35687e-06
4.3438e-07
3.55383e-07
1.36347e-06
6.18992e-07
2.01599e-06
2.74187e-06
9.55447e-07
2.01063e-06
6.23039e-07
9.50184e-07
4.43711e-07
1.06598e-06
3.61955e-07
1.38703e-06
3.60102e-07
1.37907e-06
4.43374e-07
6.10191e-07
9.3346e-07
1.98772e-06
2.72696e-06
9.37286e-07
6.09117e-07
1.99459e-06
4.35237e-07
1.05119e-06
3.54399e-07
1.35684e-06
3.55383e-07
4.35043e-07
1.36361e-06
6.19967e-07
2.0169e-06
2.74004e-06
9.53778e-07
9.50385e-07
2.00937e-06
6.23052e-07
1.66528e-06
3.39668e-07
7.25911e-07
7.25343e-07
7.22797e-07
7.22738e-07
1.67145e-06
4.42985e-07
1.06599e-06
3.60988e-07
1.3863e-06
3.60201e-07
1.37956e-06
4.44752e-07
6.09802e-07
9.33824e-07
1.98801e-06
2.72613e-06
9.3774e-07
6.08643e-07
1.99441e-06
4.36639e-07
1.0514e-06
3.54052e-07
1.35666e-06
3.55487e-07
4.34358e-07
1.3635e-06
6.20297e-07
2.01706e-06
2.74193e-06
9.54282e-07
9.50655e-07
2.00984e-06
6.20842e-07
4.99174e-07
4.99987e-07
4.99986e-07
4.99923e-07
4.45589e-07
4.54253e-07
4.54258e-07
4.63993e-07
4.03811e-07
4.18893e-07
4.18898e-07
4.39714e-07
3.68433e-07
3.88821e-07
3.88819e-07
4.17817e-07
3.38078e-07
3.62265e-07
3.62269e-07
3.96012e-07
3.11694e-07
3.38334e-07
3.38356e-07
3.74362e-07
2.885e-07
3.16592e-07
3.16648e-07
3.53362e-07
2.6793e-07
2.96889e-07
2.9697e-07
3.337e-07
2.49567e-07
2.79195e-07
2.79267e-07
3.15958e-07
2.33106e-07
2.63492e-07
2.63535e-07
3.00503e-07
2.18319e-07
2.4976e-07
2.49779e-07
2.87684e-07
2.05029e-07
2.37986e-07
2.37992e-07
2.77806e-07
1.93096e-07
2.28177e-07
2.28177e-07
2.71187e-07
1.82408e-07
2.20338e-07
2.20337e-07
2.67572e-07
1.72876e-07
2.14476e-07
2.14477e-07
2.67029e-07
1.64423e-07
2.10607e-07
2.10606e-07
2.69853e-07
1.56987e-07
2.08735e-07
2.08736e-07
2.76178e-07
1.50516e-07
2.08867e-07
2.08872e-07
2.85868e-07
1.44965e-07
2.11066e-07
2.11075e-07
2.98771e-07
2.15339e-07
3.14814e-07
5.06198e-07
5.0557e-07
5.05571e-07
5.062e-07
5.0557e-07
5.05573e-07
5.05986e-07
5.05985e-07
5.05986e-07
5.05984e-07
5.0557e-07
5.05561e-07
5.06199e-07
5.0557e-07
5.05564e-07
5.06192e-07