/*--------------------------------*- C++ -*----------------------------------*\
| =========                 |                                                 |
| \\      /  F ield         | OpenFOAM: The Open Source CFD Toolbox           |
|  \\    /   O peration     | Version:  2312                                  |
|   \\  /    A nd           | Website:  www.openfoam.com                      |
|    \\/     M anipulation  |                                                 |
\*---------------------------------------------------------------------------*/
FoamFile
{
    version     2.0;
    format      ascii;
    arch        "LSB;label=32;scalar=64";
    class       volScalarField;
    location    "500";
    object      nut;
}
// * * * * * * * * * * * * * * * * * * * * * * * * * * * * * * * * * * * * * //

dimensions      [0 2 -1 0 0 0 0];

internalField   nonuniform List<scalar> 
43008
(
0.000158325
0.00010854
0.000154168
0.000104788
0.000104784
8.33725e-05
8.52397e-05
8.37724e-05
0.000108515
0.000108498
0.000105629
0.000105614
8.37204e-05
0.000108538
0.000108501
0.000105653
0.000105614
0.000105659
0.000105623
8.52442e-05
8.37441e-05
0.000108525
0.000105653
0.000105639
8.39902e-05
8.35328e-05
0.000104757
0.000104743
8.35467e-05
0.00010478
0.000104745
0.000104755
8.35467e-05
0.000104771
6.51402e-05
4.95068e-05
6.39655e-05
4.9523e-05
2.36524e-05
6.51349e-05
4.95015e-05
6.39743e-05
4.95181e-05
0.000158321
0.000158318
0.000158313
0.0001552
0.000155196
0.000155192
0.000155188
6.16523e-05
0.000107541
6.23473e-05
0.000133379
2.36552e-05
2.36514e-05
6.16765e-05
0.000134455
6.1588e-05
0.000107538
6.08099e-05
0.000133375
6.23526e-05
8.47755e-05
5.93429e-05
5.93398e-05
6.77324e-05
4.95324e-05
6.66859e-05
4.95479e-05
2.36418e-05
2.36381e-05
6.77314e-05
4.95269e-05
6.66936e-05
4.95427e-05
0.000154164
0.000154159
0.000154156
6.42406e-05
6.36932e-05
0.000130144
0.000103914
6.32782e-05
6.44115e-05
0.0001291
2.36409e-05
2.36374e-05
6.42329e-05
0.000130134
6.3695e-05
0.000103911
6.32734e-05
0.000129092
6.43666e-05
6.00623e-05
6.00602e-05
8.31569e-05
6.04242e-05
6.04449e-05
2.36583e-05
2.36546e-05
2.36559e-05
2.36522e-05
5.89471e-05
5.89313e-05
8.46048e-05
5.93289e-05
5.93479e-05
2.36474e-05
2.36513e-05
2.36451e-05
2.36488e-05
8.43854e-05
5.98938e-05
5.99117e-05
5.95288e-05
5.95132e-05
6.51423e-05
4.95011e-05
6.39674e-05
4.95171e-05
6.15973e-05
6.15852e-05
0.000134455
0.000107513
6.08804e-05
6.23525e-05
0.000133372
6.16504e-05
6.15843e-05
0.000134448
0.000107496
6.08428e-05
6.23436e-05
0.000133368
6.53651e-05
4.95357e-05
4.952e-05
6.64849e-05
6.53629e-05
4.95289e-05
4.95138e-05
6.64828e-05
6.20684e-05
0.000106583
6.3401e-05
0.000131213
6.26504e-05
0.000132277
6.28467e-05
6.2033e-05
0.000106567
6.33952e-05
0.000131211
6.2651e-05
0.000132272
6.28973e-05
8.47647e-05
5.93429e-05
5.93484e-05
2.36535e-05
2.36451e-05
2.3649e-05
8.42623e-05
5.99047e-05
5.9912e-05
5.95089e-05
5.9513e-05
2.36466e-05
2.365e-05
6.16413e-05
6.15813e-05
0.000134453
0.000107536
6.08405e-05
6.23547e-05
0.000133373
6.51408e-05
4.94977e-05
6.39656e-05
4.95141e-05
6.16385e-05
0.000134441
6.15864e-05
0.000107496
6.08328e-05
0.000133361
6.2347e-05
6.53701e-05
4.95304e-05
4.95146e-05
6.64743e-05
6.20297e-05
0.000106607
6.34104e-05
0.000131214
6.26501e-05
0.000132276
6.28866e-05
6.53632e-05
4.95262e-05
4.95106e-05
6.64815e-05
6.20208e-05
0.000106569
0.000131204
6.33987e-05
0.000132265
6.26476e-05
6.28931e-05
6.50958e-05
4.95188e-05
6.16031e-05
0.000107505
0.000133374
6.23521e-05
6.5114e-05
4.95147e-05
6.20103e-05
0.000106614
6.34092e-05
0.000131223
6.26528e-05
0.000132287
6.29099e-05
6.53936e-05
4.95313e-05
4.95157e-05
6.6434e-05
6.20581e-05
0.000106579
0.000131216
6.33715e-05
0.000132278
6.26463e-05
6.28595e-05
6.53844e-05
4.95269e-05
4.95118e-05
6.64544e-05
5.89251e-05
5.89493e-05
8.46019e-05
5.93422e-05
5.93308e-05
2.36575e-05
2.36535e-05
2.36442e-05
2.36479e-05
8.43331e-05
5.99048e-05
5.98956e-05
5.95074e-05
5.95314e-05
2.36464e-05
2.36502e-05
6.16291e-05
0.000134447
6.15862e-05
0.000107521
6.08378e-05
0.000133369
6.23474e-05
6.51242e-05
4.95027e-05
6.39814e-05
4.95192e-05
6.51232e-05
4.94969e-05
6.39781e-05
4.95131e-05
6.20006e-05
0.000106607
0.000131216
6.34075e-05
0.000132278
6.26528e-05
6.29319e-05
6.20326e-05
0.000106595
0.000131213
6.33994e-05
0.000132274
6.26511e-05
6.28965e-05
6.538e-05
4.95314e-05
4.95156e-05
6.64665e-05
6.53774e-05
4.95254e-05
4.95098e-05
6.64657e-05
2.36522e-05
2.36509e-05
8.4172e-05
5.99058e-05
5.99036e-05
5.9509e-05
5.95079e-05
2.3645e-05
2.36487e-05
2.36438e-05
2.36474e-05
2.36441e-05
2.36402e-05
2.36417e-05
2.36381e-05
6.00831e-05
6.00685e-05
8.30487e-05
6.04303e-05
6.04319e-05
6.77456e-05
4.95261e-05
6.66836e-05
4.95417e-05
6.42038e-05
6.37083e-05
0.000130132
0.000103885
6.33354e-05
6.43718e-05
0.00012909
6.42088e-05
6.37035e-05
0.00013013
0.000103871
6.33015e-05
6.43746e-05
0.00012909
6.00635e-05
6.00669e-05
8.2986e-05
6.04228e-05
6.0456e-05
2.36433e-05
2.36397e-05
6.42473e-05
6.37008e-05
0.000130132
0.000103909
6.33001e-05
6.43818e-05
0.000129092
6.77417e-05
4.95232e-05
6.66852e-05
4.95387e-05
6.42397e-05
0.000130121
6.36955e-05
0.00010387
6.32955e-05
0.000129081
6.44136e-05
6.77034e-05
4.95281e-05
6.67158e-05
4.95436e-05
6.41823e-05
0.000130136
6.37173e-05
0.000103882
6.33239e-05
0.000129096
6.43651e-05
6.77184e-05
4.9524e-05
6.67061e-05
4.95393e-05
6.00629e-05
6.00842e-05
8.30543e-05
6.0449e-05
6.04604e-05
2.36432e-05
2.36396e-05
6.41617e-05
0.000130132
6.36963e-05
0.000103899
6.33001e-05
0.000129092
6.44451e-05
6.77163e-05
4.95283e-05
6.67022e-05
4.95436e-05
6.77105e-05
4.95223e-05
6.66999e-05
4.95381e-05
2.36417e-05
2.36381e-05
2.36404e-05
2.36369e-05
3.61704e-05
6.46748e-05
4.03051e-05
6.75561e-05
4.03028e-05
6.71522e-05
3.61733e-05
2.02412e-05
6.67451e-05
4.95168e-05
2.02406e-05
6.69459e-05
3.61703e-05
6.44395e-05
4.03009e-05
6.66344e-05
3.61675e-05
4.03028e-05
6.70445e-05
2.02378e-05
6.7155e-05
4.95134e-05
6.69675e-05
2.02383e-05
2.36561e-05
2.36526e-05
3.61703e-05
6.468e-05
6.75558e-05
4.03047e-05
6.71476e-05
4.03025e-05
3.61733e-05
2.02415e-05
6.67485e-05
4.95117e-05
2.02409e-05
6.69348e-05
3.61702e-05
6.44339e-05
6.66298e-05
4.03005e-05
3.61674e-05
6.70463e-05
4.03023e-05
2.02381e-05
6.71544e-05
4.95083e-05
6.69667e-05
2.02387e-05
2.3655e-05
2.36515e-05
6.93117e-05
2.15791e-05
2.15759e-05
2.15789e-05
2.15758e-05
6.9477e-05
7.01983e-05
5.90516e-05
6.60515e-05
4.70421e-05
7.02401e-05
5.90479e-05
6.60449e-05
4.70324e-05
6.92643e-05
2.15825e-05
2.15793e-05
7.04918e-05
4.70584e-05
5.92187e-05
6.6702e-05
6.64547e-05
4.70428e-05
7.06886e-05
7.05387e-05
4.7049e-05
5.92184e-05
6.67094e-05
6.64686e-05
4.70335e-05
7.07304e-05
3.61838e-05
6.73227e-05
4.03255e-05
6.9453e-05
4.03164e-05
6.90738e-05
3.61871e-05
2.02299e-05
6.7599e-05
4.95417e-05
2.02294e-05
6.7766e-05
3.61835e-05
6.71225e-05
4.03129e-05
6.86155e-05
3.61803e-05
4.03184e-05
6.89995e-05
2.02265e-05
6.79557e-05
4.95385e-05
6.779e-05
2.0227e-05
2.36416e-05
2.36383e-05
3.61837e-05
6.73278e-05
6.94525e-05
4.03249e-05
6.90702e-05
4.03163e-05
3.61871e-05
2.02302e-05
6.75942e-05
4.95362e-05
2.02296e-05
6.77604e-05
3.61835e-05
6.71155e-05
6.86122e-05
4.03128e-05
3.61802e-05
6.89986e-05
4.03177e-05
2.02268e-05
6.79515e-05
4.9533e-05
6.77891e-05
2.02273e-05
2.36408e-05
2.36375e-05
7.01199e-05
2.15656e-05
2.15624e-05
2.15655e-05
2.15624e-05
7.02644e-05
7.21376e-05
6.83987e-05
4.70903e-05
6.01772e-05
7.19486e-05
6.863e-05
4.71051e-05
7.21461e-05
6.84074e-05
4.70811e-05
6.01767e-05
7.20022e-05
6.86508e-05
4.70955e-05
7.0075e-05
2.15689e-05
2.15657e-05
6.9927e-05
2.1569e-05
2.15658e-05
7.23959e-05
4.71201e-05
6.03349e-05
6.92714e-05
6.90477e-05
4.7105e-05
7.26093e-05
7.24663e-05
4.71104e-05
6.03271e-05
6.92592e-05
6.90622e-05
4.70959e-05
7.26004e-05
2.36582e-05
2.3655e-05
2.36557e-05
2.36523e-05
6.93162e-05
2.15797e-05
2.15764e-05
2.15795e-05
2.15763e-05
6.94822e-05
7.01915e-05
6.58197e-05
4.70288e-05
5.9037e-05
6.9995e-05
4.70445e-05
6.60425e-05
7.02452e-05
6.58243e-05
4.70178e-05
5.90572e-05
7.00328e-05
4.70336e-05
6.60464e-05
6.92695e-05
2.15828e-05
2.15796e-05
6.90992e-05
2.15831e-05
2.15798e-05
7.04982e-05
4.70613e-05
5.92389e-05
6.66943e-05
4.70456e-05
7.06935e-05
6.64631e-05
7.05377e-05
4.70502e-05
5.92246e-05
6.66969e-05
4.70348e-05
7.07375e-05
6.64736e-05
2.36477e-05
2.3651e-05
2.36452e-05
2.36486e-05
6.96888e-05
2.15761e-05
2.15729e-05
6.95272e-05
2.15765e-05
2.1573e-05
7.14686e-05
6.79971e-05
5.98088e-05
4.70928e-05
4.70776e-05
6.77537e-05
7.16651e-05
7.15136e-05
6.80007e-05
5.97914e-05
4.70818e-05
4.70665e-05
6.77663e-05
7.17022e-05
7.11858e-05
4.70621e-05
6.71109e-05
5.96184e-05
7.0988e-05
4.70767e-05
6.73492e-05
7.12299e-05
4.70512e-05
6.712e-05
5.96323e-05
7.10319e-05
4.70656e-05
6.73497e-05
6.97318e-05
2.15733e-05
2.15697e-05
2.15732e-05
2.15695e-05
6.98885e-05
3.61688e-05
6.46734e-05
4.03049e-05
6.755e-05
4.03026e-05
6.71457e-05
3.61717e-05
2.02403e-05
6.67348e-05
4.95109e-05
2.02397e-05
6.69146e-05
3.61686e-05
6.44388e-05
4.03007e-05
6.66277e-05
4.03025e-05
3.61659e-05
6.7037e-05
2.02369e-05
6.71292e-05
4.95076e-05
6.6954e-05
2.02374e-05
3.61766e-05
4.03054e-05
6.76547e-05
6.5821e-05
3.61736e-05
4.03085e-05
6.80519e-05
2.02321e-05
4.95258e-05
6.75654e-05
2.02328e-05
6.73877e-05
2.02355e-05
6.71878e-05
4.95289e-05
2.02349e-05
6.73713e-05
3.61769e-05
6.60364e-05
4.03129e-05
6.85322e-05
3.618e-05
4.0309e-05
6.81438e-05
3.6175e-05
4.03052e-05
6.76468e-05
6.58235e-05
3.6172e-05
4.03083e-05
6.80439e-05
2.02313e-05
4.95192e-05
6.75419e-05
6.7376e-05
2.02319e-05
2.02346e-05
6.71682e-05
4.95226e-05
2.0234e-05
6.73403e-05
3.61753e-05
6.60318e-05
4.03124e-05
6.85238e-05
4.03089e-05
6.81353e-05
3.61783e-05
6.93226e-05
2.15764e-05
2.15794e-05
2.15763e-05
2.15793e-05
6.94784e-05
7.02066e-05
5.90534e-05
4.70283e-05
6.60726e-05
7.01586e-05
5.9058e-05
6.60205e-05
4.70382e-05
6.92635e-05
2.15796e-05
2.15825e-05
7.05688e-05
4.70451e-05
5.92178e-05
6.67198e-05
4.70397e-05
6.64571e-05
7.07096e-05
7.05239e-05
4.70551e-05
5.92242e-05
6.66639e-05
6.64832e-05
4.70498e-05
7.06642e-05
2.36572e-05
2.36536e-05
2.36454e-05
2.36487e-05
6.96824e-05
2.1573e-05
2.15759e-05
6.95338e-05
2.15731e-05
2.1576e-05
7.15411e-05
6.80058e-05
5.97869e-05
4.70774e-05
6.77538e-05
4.70717e-05
7.16767e-05
7.14948e-05
6.79626e-05
5.979e-05
4.70871e-05
4.70819e-05
6.77881e-05
7.16352e-05
7.11935e-05
4.70555e-05
6.71059e-05
5.96259e-05
6.7358e-05
7.10586e-05
4.70616e-05
7.11486e-05
4.70656e-05
6.71353e-05
5.9634e-05
7.10146e-05
4.70718e-05
6.73213e-05
6.97387e-05
2.15698e-05
2.15726e-05
2.15696e-05
2.15725e-05
6.98837e-05
2.36467e-05
2.36501e-05
3.61686e-05
6.46724e-05
4.03045e-05
6.75411e-05
4.03021e-05
6.71478e-05
3.61715e-05
2.02404e-05
6.67192e-05
4.95077e-05
2.02398e-05
6.6923e-05
3.61684e-05
6.44388e-05
4.03002e-05
6.66291e-05
4.03021e-05
3.61657e-05
6.70316e-05
2.0237e-05
6.71311e-05
4.95043e-05
6.69373e-05
2.02376e-05
3.61766e-05
6.76514e-05
4.03052e-05
6.58152e-05
3.61735e-05
6.80511e-05
4.0308e-05
2.02324e-05
4.95203e-05
6.75646e-05
2.0233e-05
6.73927e-05
2.02358e-05
6.71876e-05
4.95235e-05
2.02353e-05
6.73602e-05
3.61768e-05
6.60421e-05
6.85313e-05
4.03123e-05
3.618e-05
6.81402e-05
4.03087e-05
3.61747e-05
4.03048e-05
6.76508e-05
6.5822e-05
3.61717e-05
4.03079e-05
6.80382e-05
2.02314e-05
4.95162e-05
6.7541e-05
6.73611e-05
2.02319e-05
2.02348e-05
6.71595e-05
4.95197e-05
2.02342e-05
6.73456e-05
3.61751e-05
6.60341e-05
4.03123e-05
6.85185e-05
4.03083e-05
6.8138e-05
3.61781e-05
3.61702e-05
6.47069e-05
6.7509e-05
4.03037e-05
6.718e-05
4.03016e-05
3.6173e-05
2.02381e-05
6.71427e-05
4.95084e-05
6.69622e-05
2.02388e-05
3.61688e-05
6.46986e-05
4.03045e-05
6.75398e-05
4.03022e-05
6.71504e-05
3.61717e-05
2.02371e-05
6.71372e-05
4.95043e-05
6.69337e-05
2.02378e-05
3.61762e-05
6.7679e-05
4.03044e-05
6.5774e-05
3.61733e-05
6.80036e-05
4.03071e-05
2.02324e-05
4.95212e-05
6.75551e-05
6.73858e-05
2.02331e-05
2.02359e-05
6.71783e-05
4.95248e-05
2.02353e-05
6.73511e-05
3.61767e-05
6.6066e-05
6.84869e-05
4.03111e-05
6.81666e-05
4.03082e-05
3.61797e-05
3.6175e-05
4.0305e-05
6.76524e-05
6.57944e-05
3.6172e-05
4.03078e-05
6.80356e-05
2.02315e-05
4.95171e-05
6.75434e-05
6.73633e-05
2.02321e-05
2.02349e-05
6.71554e-05
4.95207e-05
2.02344e-05
6.73374e-05
3.61753e-05
6.60559e-05
4.03118e-05
6.85149e-05
4.03089e-05
6.814e-05
3.61784e-05
6.93159e-05
2.15767e-05
2.15799e-05
2.15766e-05
2.15797e-05
6.94792e-05
7.02469e-05
6.58234e-05
4.70179e-05
5.9051e-05
4.70336e-05
7.00323e-05
6.60546e-05
7.01906e-05
6.58034e-05
4.7029e-05
5.90389e-05
6.60605e-05
6.99958e-05
4.70448e-05
6.92668e-05
2.15799e-05
2.15831e-05
2.15801e-05
6.90985e-05
2.15832e-05
7.05379e-05
4.70499e-05
5.9219e-05
6.671e-05
4.70348e-05
6.6469e-05
7.07433e-05
7.05018e-05
4.70615e-05
5.9242e-05
6.67137e-05
6.64525e-05
4.70461e-05
7.06974e-05
2.36572e-05
2.36539e-05
2.36444e-05
2.36477e-05
6.96851e-05
2.15732e-05
2.15764e-05
6.9527e-05
2.15733e-05
2.15765e-05
7.15132e-05
6.80015e-05
5.97857e-05
4.70816e-05
6.77671e-05
4.70666e-05
7.1705e-05
7.14698e-05
6.80081e-05
5.98112e-05
4.70927e-05
4.70777e-05
6.77404e-05
7.1663e-05
7.12329e-05
4.70514e-05
6.71202e-05
5.96263e-05
6.7343e-05
7.10318e-05
4.70657e-05
7.11869e-05
4.70624e-05
6.70995e-05
5.96203e-05
7.09904e-05
4.70765e-05
6.73583e-05
6.97312e-05
2.157e-05
2.15731e-05
2.15698e-05
2.1573e-05
6.98852e-05
2.36467e-05
2.36499e-05
3.61708e-05
6.46881e-05
6.75481e-05
4.03045e-05
6.71546e-05
4.03022e-05
3.61738e-05
2.02421e-05
6.67391e-05
4.95128e-05
6.69417e-05
2.02415e-05
3.61707e-05
6.44229e-05
6.6637e-05
4.03003e-05
6.70388e-05
3.61679e-05
4.03022e-05
2.02388e-05
6.7162e-05
4.95095e-05
6.69645e-05
2.02393e-05
3.6168e-05
6.46856e-05
6.75398e-05
4.03039e-05
6.71479e-05
4.03016e-05
3.61708e-05
2.024e-05
6.67254e-05
4.95067e-05
2.02395e-05
6.69148e-05
3.61677e-05
6.44227e-05
6.66297e-05
4.02997e-05
3.6165e-05
6.70292e-05
4.03015e-05
2.02367e-05
6.71215e-05
4.95036e-05
6.6948e-05
2.02372e-05
3.6177e-05
6.76582e-05
4.03049e-05
6.58043e-05
3.6174e-05
6.80433e-05
4.03079e-05
2.02331e-05
4.95213e-05
6.75656e-05
6.73877e-05
2.02337e-05
2.02365e-05
6.71752e-05
4.95248e-05
2.02359e-05
6.73595e-05
3.61773e-05
6.60502e-05
6.85253e-05
4.03121e-05
6.81452e-05
4.03086e-05
3.61804e-05
3.61741e-05
6.76501e-05
4.03042e-05
6.58018e-05
3.61711e-05
6.80354e-05
4.03073e-05
2.02311e-05
4.95157e-05
6.75379e-05
6.73729e-05
2.02315e-05
2.02344e-05
6.71681e-05
4.95188e-05
2.02339e-05
6.73399e-05
3.61744e-05
6.60478e-05
6.85163e-05
4.03114e-05
6.8138e-05
4.0308e-05
3.61775e-05
2.36558e-05
2.36523e-05
2.36546e-05
2.3651e-05
6.96831e-05
2.15756e-05
2.15724e-05
6.95222e-05
2.15757e-05
2.15725e-05
7.14872e-05
6.79933e-05
5.97867e-05
4.70899e-05
7.16397e-05
6.77461e-05
4.70749e-05
7.15305e-05
6.80031e-05
5.9785e-05
4.70804e-05
7.16791e-05
6.77594e-05
4.70656e-05
7.11571e-05
4.70596e-05
6.71056e-05
5.96262e-05
7.0991e-05
6.73472e-05
4.70736e-05
7.12049e-05
4.70502e-05
6.71156e-05
5.96238e-05
7.1038e-05
6.73538e-05
4.70641e-05
6.97269e-05
2.15723e-05
2.15691e-05
6.98816e-05
2.15722e-05
2.1569e-05
2.36452e-05
2.36485e-05
2.36439e-05
2.36473e-05
2.36437e-05
2.36406e-05
2.36416e-05
2.36383e-05
7.0125e-05
2.15664e-05
2.15628e-05
2.15664e-05
2.15627e-05
7.02706e-05
7.2133e-05
6.84042e-05
4.70935e-05
6.01669e-05
7.19392e-05
4.71078e-05
6.8637e-05
7.21787e-05
6.84118e-05
4.70824e-05
6.01841e-05
7.19872e-05
4.70968e-05
6.86462e-05
7.00812e-05
2.15698e-05
2.15662e-05
6.99304e-05
2.15699e-05
2.15663e-05
7.23975e-05
4.71228e-05
6.03526e-05
6.92912e-05
4.71078e-05
7.25923e-05
6.90455e-05
7.24391e-05
4.7112e-05
6.03402e-05
6.92889e-05
4.70967e-05
7.26526e-05
6.90556e-05
3.61823e-05
6.73142e-05
4.0321e-05
6.94417e-05
4.03201e-05
6.90683e-05
3.61853e-05
2.02291e-05
6.75784e-05
4.95352e-05
2.02286e-05
6.77396e-05
3.61818e-05
6.71232e-05
4.03136e-05
6.86086e-05
4.03169e-05
3.61787e-05
6.89902e-05
2.02257e-05
6.79294e-05
4.95322e-05
6.77744e-05
2.02262e-05
7.01241e-05
2.15632e-05
2.15659e-05
2.15631e-05
2.15658e-05
7.02683e-05
7.21395e-05
6.84082e-05
4.70867e-05
6.01775e-05
4.7093e-05
7.20118e-05
6.86366e-05
7.21278e-05
6.84281e-05
4.70962e-05
6.01868e-05
6.86102e-05
7.19578e-05
4.71021e-05
7.00796e-05
2.15665e-05
2.15691e-05
2.15666e-05
6.99331e-05
2.15692e-05
7.24768e-05
4.71069e-05
6.03346e-05
6.92772e-05
4.71022e-05
6.90639e-05
7.26085e-05
7.24078e-05
4.71161e-05
6.03328e-05
6.92582e-05
6.9072e-05
4.71114e-05
7.2604e-05
2.36431e-05
2.36398e-05
3.6182e-05
6.73182e-05
4.0325e-05
6.94378e-05
4.03156e-05
6.90693e-05
3.61852e-05
2.02291e-05
6.75717e-05
4.95323e-05
2.02286e-05
6.77411e-05
3.61817e-05
6.71211e-05
4.03123e-05
6.86104e-05
4.03178e-05
3.61785e-05
6.89857e-05
2.02257e-05
6.79303e-05
4.95289e-05
6.77649e-05
2.02262e-05
3.61837e-05
6.735e-05
6.94093e-05
4.03195e-05
6.90965e-05
4.03199e-05
3.61866e-05
2.02302e-05
6.75867e-05
4.95373e-05
6.77508e-05
2.02296e-05
3.61832e-05
6.70801e-05
6.86375e-05
4.03131e-05
6.89568e-05
3.61801e-05
4.03155e-05
2.02268e-05
6.79358e-05
4.95339e-05
6.77866e-05
2.02273e-05
3.61823e-05
6.73406e-05
4.03201e-05
6.94287e-05
4.03207e-05
6.90747e-05
3.61854e-05
2.02292e-05
6.75692e-05
4.9533e-05
2.02287e-05
6.77392e-05
3.61819e-05
6.70994e-05
4.03139e-05
6.86129e-05
3.61788e-05
4.03162e-05
6.89811e-05
2.02258e-05
6.79297e-05
4.95298e-05
6.77638e-05
2.02264e-05
7.01204e-05
2.15632e-05
2.15664e-05
2.15631e-05
2.15663e-05
7.02677e-05
7.21749e-05
6.84179e-05
4.70826e-05
6.01803e-05
4.70967e-05
7.19887e-05
6.86365e-05
7.21072e-05
6.83954e-05
4.70936e-05
6.0172e-05
6.86493e-05
7.19486e-05
4.71072e-05
7.00797e-05
2.15665e-05
2.15696e-05
2.15666e-05
6.99294e-05
2.15697e-05
7.24473e-05
4.71116e-05
6.03281e-05
6.92865e-05
4.7097e-05
6.90593e-05
7.2627e-05
7.24224e-05
4.71198e-05
6.03448e-05
6.92986e-05
6.90355e-05
4.71105e-05
7.25683e-05
2.3643e-05
2.36398e-05
3.61843e-05
6.73437e-05
6.94452e-05
4.03204e-05
6.90763e-05
4.03202e-05
3.61874e-05
2.02308e-05
6.75918e-05
4.95374e-05
6.77599e-05
2.02303e-05
3.61839e-05
6.70959e-05
6.86174e-05
4.03133e-05
6.89924e-05
3.61807e-05
4.03165e-05
2.02274e-05
6.79508e-05
4.95342e-05
6.77868e-05
2.02279e-05
3.61814e-05
6.73419e-05
6.94379e-05
4.03197e-05
6.90675e-05
4.03196e-05
3.61844e-05
2.02287e-05
6.7578e-05
4.95315e-05
2.02282e-05
6.77307e-05
3.6181e-05
6.7094e-05
6.86106e-05
4.03127e-05
3.61779e-05
6.89862e-05
4.03158e-05
2.02254e-05
6.79198e-05
4.95279e-05
6.77727e-05
2.02258e-05
2.36415e-05
2.36383e-05
2.36403e-05
2.3637e-05
0.000180009
0.00018002
0.000157279
0.000179144
0.000179155
0.00019712
0.000197821
6.89234e-05
8.52564e-05
7.04813e-05
7.05319e-05
0.000176559
0.000176569
0.000153128
0.000175698
0.000175708
0.000194313
0.000195015
7.14992e-05
7.12316e-05
7.11776e-05
8.36922e-05
7.12778e-05
7.14408e-05
7.14544e-05
6.89187e-05
7.03142e-05
7.03031e-05
8.50988e-05
6.85738e-05
7.04323e-05
7.03953e-05
7.05762e-05
8.39018e-05
7.11313e-05
7.1114e-05
7.09629e-05
7.09816e-05
7.08826e-05
6.88384e-05
8.52263e-05
7.02947e-05
7.04954e-05
7.06385e-05
8.3939e-05
7.1123e-05
7.10274e-05
7.09121e-05
7.10888e-05
7.08146e-05
6.8894e-05
7.04042e-05
7.01928e-05
8.50878e-05
7.05416e-05
6.86001e-05
7.02853e-05
7.05847e-05
8.39088e-05
7.10069e-05
7.12608e-05
7.10614e-05
7.08611e-05
7.08714e-05
7.06196e-05
8.36948e-05
7.11162e-05
7.11869e-05
7.08357e-05
7.09179e-05
7.08788e-05
7.15389e-05
7.12598e-05
7.1279e-05
8.34082e-05
7.12462e-05
7.14194e-05
7.13092e-05
7.14744e-05
7.12671e-05
7.13469e-05
8.33625e-05
7.13141e-05
7.13026e-05
7.14261e-05
7.15144e-05
7.13348e-05
7.1183e-05
8.34046e-05
7.15167e-05
7.12618e-05
7.14341e-05
0.000180006
0.000180019
0.000157274
0.000179142
0.000179153
0.000197119
0.000197819
0.000180004
0.000180015
0.00015727
0.000179139
0.000179151
0.000197115
0.000197816
0.000180004
0.000180011
0.000157266
0.000179139
0.000179147
0.000197114
0.000197814
0.000156244
0.000177419
0.000177429
0.000178282
0.000178292
0.000196418
0.000195717
0.00015624
0.000177416
0.000177428
0.000178279
0.000178292
0.000196418
0.000195716
0.000156236
0.000177413
0.000177425
0.000178275
0.000178287
0.000196414
0.000195712
0.000156232
0.000177414
0.000177422
0.000178277
0.000178283
0.000196412
0.000195711
7.30627e-05
6.13923e-05
6.31752e-05
7.68804e-05
6.30161e-05
7.67482e-05
7.30216e-05
6.68257e-05
6.37904e-05
6.21128e-05
6.52106e-05
6.4948e-05
6.35971e-05
6.71292e-05
7.29949e-05
6.13864e-05
7.68122e-05
6.32307e-05
7.6817e-05
6.29631e-05
7.31057e-05
6.6915e-05
6.45201e-05
6.29155e-05
6.18277e-05
6.67464e-05
6.48044e-05
6.32087e-05
7.33196e-05
6.10714e-05
7.72213e-05
6.23119e-05
7.32294e-05
7.72059e-05
6.25816e-05
6.68786e-05
6.38396e-05
6.21177e-05
6.52644e-05
6.49548e-05
6.35604e-05
6.70454e-05
6.92498e-05
8.46248e-05
7.06296e-05
7.06842e-05
7.04135e-05
7.03877e-05
6.95474e-05
0.000176556
0.00017657
0.000153124
0.000175696
0.000175707
0.000194312
0.000195014
0.000176553
0.000176564
0.00015312
0.000175692
0.000175704
0.000194308
0.00019501
0.000176554
0.000176561
0.000153116
0.000175693
0.000175701
0.000194307
0.000195009
7.24e-05
6.39313e-05
6.59166e-05
7.58006e-05
6.56519e-05
7.55645e-05
7.25812e-05
6.7734e-05
6.63382e-05
6.54865e-05
6.39192e-05
6.73618e-05
6.66387e-05
6.56903e-05
7.26102e-05
6.35505e-05
6.49625e-05
7.58376e-05
7.26142e-05
6.52271e-05
7.59791e-05
6.75752e-05
6.62922e-05
6.42126e-05
6.71383e-05
6.68291e-05
6.61255e-05
6.80733e-05
7.2363e-05
6.39388e-05
7.55163e-05
6.59409e-05
7.57725e-05
6.5645e-05
7.2612e-05
6.75003e-05
6.6351e-05
6.54501e-05
6.3919e-05
6.75524e-05
6.65568e-05
6.57346e-05
7.26968e-05
6.35562e-05
7.59909e-05
6.49667e-05
7.25452e-05
7.57808e-05
6.5242e-05
6.77547e-05
6.63441e-05
6.42312e-05
6.7089e-05
6.68701e-05
6.6089e-05
6.79297e-05
7.19482e-05
8.30607e-05
7.17239e-05
7.16745e-05
7.15397e-05
7.15727e-05
7.21157e-05
6.92488e-05
8.47656e-05
7.06162e-05
7.06042e-05
6.95659e-05
7.04837e-05
7.04874e-05
7.02341e-05
8.41762e-05
7.07192e-05
7.07207e-05
6.99113e-05
7.08685e-05
7.08244e-05
7.31828e-05
6.14674e-05
6.3196e-05
7.66762e-05
6.30089e-05
7.69279e-05
7.29179e-05
6.67634e-05
6.45362e-05
6.29429e-05
6.18243e-05
6.31944e-05
6.69039e-05
6.48086e-05
7.31388e-05
6.10098e-05
6.23574e-05
7.73223e-05
6.25485e-05
7.34075e-05
7.70751e-05
6.70172e-05
6.3819e-05
6.21185e-05
6.52502e-05
6.35678e-05
6.49511e-05
6.69079e-05
7.30017e-05
6.14258e-05
6.32086e-05
7.66903e-05
6.29867e-05
7.69316e-05
7.33047e-05
6.69861e-05
6.45748e-05
6.29329e-05
6.18177e-05
6.66735e-05
6.31911e-05
6.47391e-05
7.34565e-05
6.10438e-05
6.23416e-05
7.7327e-05
7.3281e-05
6.25633e-05
7.70881e-05
6.68246e-05
6.38048e-05
6.2118e-05
6.51747e-05
6.35601e-05
6.71172e-05
6.49986e-05
7.27389e-05
6.36635e-05
7.65725e-05
6.22156e-05
7.29753e-05
6.38405e-05
7.63424e-05
6.73719e-05
6.6165e-05
6.31765e-05
6.5081e-05
6.58272e-05
6.48249e-05
6.72702e-05
6.70397e-05
6.42015e-05
6.53863e-05
6.2875e-05
6.56618e-05
6.71752e-05
6.44608e-05
7.28509e-05
6.26974e-05
6.4521e-05
7.60305e-05
6.43402e-05
7.62739e-05
7.26305e-05
7.31019e-05
6.36407e-05
7.65821e-05
6.22513e-05
7.27871e-05
6.38757e-05
7.63612e-05
6.71704e-05
6.6084e-05
6.31756e-05
6.50641e-05
6.48218e-05
6.59063e-05
6.74863e-05
6.73194e-05
6.41958e-05
6.54442e-05
6.28699e-05
6.69835e-05
6.44562e-05
6.55856e-05
7.26284e-05
6.26543e-05
6.45418e-05
7.6046e-05
6.43092e-05
7.62781e-05
7.29372e-05
6.93175e-05
8.46988e-05
7.06792e-05
7.05099e-05
7.06e-05
7.04072e-05
6.94878e-05
7.0151e-05
8.41948e-05
7.06486e-05
7.08052e-05
7.08936e-05
6.99826e-05
7.07739e-05
7.30116e-05
6.14227e-05
6.32565e-05
7.68816e-05
6.29466e-05
7.67392e-05
7.31781e-05
6.67916e-05
6.45753e-05
6.29261e-05
6.18272e-05
6.32255e-05
6.68779e-05
6.47633e-05
7.33632e-05
6.10481e-05
6.23078e-05
7.71607e-05
6.25912e-05
7.32291e-05
7.72768e-05
6.70329e-05
6.38465e-05
6.21193e-05
6.51913e-05
6.35507e-05
6.49973e-05
6.69312e-05
7.31781e-05
6.14185e-05
7.68891e-05
6.31975e-05
7.67534e-05
6.29898e-05
7.2921e-05
6.67674e-05
6.45366e-05
6.29214e-05
6.18143e-05
6.68916e-05
6.31913e-05
6.47817e-05
7.31358e-05
6.10508e-05
7.7178e-05
6.23421e-05
7.33992e-05
7.72884e-05
6.25536e-05
6.70055e-05
6.38185e-05
6.21171e-05
6.51835e-05
6.35574e-05
6.69068e-05
6.49504e-05
7.29443e-05
6.36123e-05
7.64044e-05
6.22602e-05
7.28474e-05
6.38977e-05
7.65511e-05
6.73804e-05
6.61032e-05
6.31763e-05
6.50998e-05
6.58963e-05
6.48068e-05
6.72804e-05
6.70615e-05
6.41881e-05
6.54395e-05
6.28725e-05
6.56156e-05
6.71848e-05
6.44659e-05
7.27038e-05
6.26561e-05
6.4575e-05
7.6259e-05
6.42826e-05
7.60877e-05
7.28295e-05
7.27415e-05
7.64109e-05
6.36425e-05
6.22638e-05
7.29698e-05
7.65568e-05
6.3867e-05
6.73657e-05
6.61075e-05
6.31682e-05
6.50784e-05
6.4813e-05
6.58474e-05
6.72518e-05
6.70351e-05
6.41887e-05
6.53949e-05
6.28724e-05
6.71663e-05
6.4441e-05
6.56602e-05
7.28517e-05
6.26522e-05
7.62672e-05
6.45383e-05
7.60974e-05
6.43143e-05
7.26353e-05
7.29177e-05
6.14639e-05
7.68963e-05
6.32384e-05
7.67434e-05
6.29361e-05
7.3274e-05
6.68087e-05
6.38346e-05
6.2106e-05
6.51906e-05
6.49697e-05
6.35292e-05
6.71505e-05
7.28568e-05
6.36545e-05
7.6422e-05
6.2265e-05
7.28723e-05
6.38641e-05
7.65423e-05
6.71717e-05
6.61424e-05
6.31706e-05
6.50615e-05
6.74917e-05
6.58456e-05
6.4845e-05
6.73511e-05
6.42324e-05
6.54062e-05
6.28751e-05
6.69968e-05
6.5657e-05
6.44432e-05
7.27339e-05
6.26332e-05
6.4563e-05
7.62673e-05
7.2735e-05
6.43074e-05
7.61149e-05
7.30649e-05
7.64235e-05
6.36125e-05
6.22221e-05
7.27628e-05
7.656e-05
6.38871e-05
6.7158e-05
6.61028e-05
6.31778e-05
6.51048e-05
6.4798e-05
6.58786e-05
6.74953e-05
6.73179e-05
6.41856e-05
6.54323e-05
6.28678e-05
6.6969e-05
6.44413e-05
6.56099e-05
7.26139e-05
6.26817e-05
7.62634e-05
6.45667e-05
7.61011e-05
6.42831e-05
7.29264e-05
6.92657e-05
8.47504e-05
7.04797e-05
7.07578e-05
7.04098e-05
7.05519e-05
6.95575e-05
7.02126e-05
8.41978e-05
7.08254e-05
7.06238e-05
7.07563e-05
6.99316e-05
7.09062e-05
7.31025e-05
6.1428e-05
7.68117e-05
6.32006e-05
7.68176e-05
6.29962e-05
7.3006e-05
6.68901e-05
6.45404e-05
6.29613e-05
6.18105e-05
6.48021e-05
6.67723e-05
6.31565e-05
7.32889e-05
6.10399e-05
7.7219e-05
6.23562e-05
7.72033e-05
7.32616e-05
6.25478e-05
6.69071e-05
6.37885e-05
6.21243e-05
6.5233e-05
6.49519e-05
6.35937e-05
6.70266e-05
7.29144e-05
7.6472e-05
6.36244e-05
6.22815e-05
7.28043e-05
7.64716e-05
6.38855e-05
6.73255e-05
6.61277e-05
6.31697e-05
6.51138e-05
6.7299e-05
6.58644e-05
6.48177e-05
6.70905e-05
6.41905e-05
6.53875e-05
6.2881e-05
6.70495e-05
6.56131e-05
6.44436e-05
7.26772e-05
6.26313e-05
7.60409e-05
6.45701e-05
7.27774e-05
7.61868e-05
6.42978e-05
7.28016e-05
7.64718e-05
6.36558e-05
6.22502e-05
7.30333e-05
7.64569e-05
6.38506e-05
6.73431e-05
6.61696e-05
6.31765e-05
6.50464e-05
6.48634e-05
6.58238e-05
6.73074e-05
6.71056e-05
6.42241e-05
6.53951e-05
6.28666e-05
6.70833e-05
6.44176e-05
6.56819e-05
7.2884e-05
6.26573e-05
7.60504e-05
6.45281e-05
7.62332e-05
6.43253e-05
7.26688e-05
7.01773e-05
8.43961e-05
7.06768e-05
7.0641e-05
6.99293e-05
7.08808e-05
7.09001e-05
7.19106e-05
8.32231e-05
7.17147e-05
7.16224e-05
7.21668e-05
7.15812e-05
7.16614e-05
7.25567e-05
6.39876e-05
6.59178e-05
7.54855e-05
6.569e-05
7.57819e-05
7.24168e-05
6.76412e-05
6.63269e-05
6.54581e-05
6.38871e-05
6.57366e-05
6.75214e-05
6.66437e-05
7.25223e-05
6.35261e-05
6.50038e-05
7.59838e-05
6.52122e-05
7.27333e-05
7.57894e-05
6.77114e-05
6.63286e-05
6.42445e-05
6.71571e-05
6.60944e-05
6.68064e-05
6.78767e-05
7.2322e-05
6.39642e-05
6.58585e-05
7.55062e-05
6.56912e-05
7.57914e-05
7.28494e-05
6.77463e-05
6.63913e-05
6.54648e-05
6.38851e-05
6.73847e-05
6.57057e-05
6.65709e-05
7.28848e-05
6.35331e-05
6.49825e-05
7.59983e-05
7.25338e-05
6.52102e-05
7.58022e-05
6.75633e-05
6.62783e-05
6.42381e-05
6.71435e-05
6.61155e-05
6.80769e-05
6.68333e-05
7.19651e-05
8.31531e-05
7.17097e-05
7.1592e-05
7.16801e-05
7.15754e-05
7.21381e-05
7.24299e-05
6.39439e-05
6.5935e-05
7.56165e-05
6.56421e-05
7.56432e-05
7.26655e-05
6.75146e-05
6.63839e-05
6.5458e-05
6.38837e-05
6.57208e-05
6.75663e-05
6.65281e-05
7.27582e-05
6.35433e-05
6.49623e-05
7.58175e-05
6.52313e-05
7.26064e-05
7.59177e-05
6.77907e-05
6.63565e-05
6.42408e-05
6.70233e-05
6.60893e-05
6.69263e-05
6.79541e-05
7.25565e-05
6.39462e-05
7.56141e-05
6.5886e-05
7.56456e-05
6.56809e-05
7.24145e-05
6.74338e-05
6.63334e-05
6.5457e-05
6.39109e-05
6.75689e-05
6.57123e-05
6.6602e-05
7.25195e-05
6.35475e-05
7.58205e-05
6.49877e-05
7.27327e-05
7.59261e-05
6.52132e-05
6.78507e-05
6.63543e-05
6.42084e-05
6.70353e-05
6.60771e-05
6.76388e-05
6.68611e-05
7.23251e-05
6.39772e-05
7.56313e-05
6.58727e-05
7.56577e-05
6.56734e-05
7.28351e-05
6.76901e-05
6.63697e-05
6.54455e-05
6.38776e-05
6.6589e-05
6.73823e-05
6.56822e-05
7.28757e-05
6.35269e-05
7.58352e-05
6.49618e-05
7.5928e-05
7.25335e-05
6.5209e-05
6.76279e-05
6.63245e-05
6.42411e-05
6.71123e-05
6.68451e-05
6.60977e-05
6.78138e-05
7.19223e-05
8.32219e-05
7.17517e-05
7.19092e-05
7.14719e-05
7.15893e-05
7.2165e-05
7.25893e-05
6.39898e-05
7.5731e-05
6.58907e-05
7.57437e-05
6.56819e-05
7.24411e-05
6.76491e-05
6.63322e-05
6.54904e-05
6.3915e-05
6.66433e-05
6.75413e-05
6.56728e-05
7.2549e-05
6.35168e-05
7.59855e-05
6.50002e-05
7.58495e-05
7.27671e-05
6.52112e-05
6.77275e-05
6.6287e-05
6.42013e-05
6.71949e-05
6.68073e-05
6.61326e-05
6.78923e-05
0.000233969
0.000233541
0.000233542
0.000233426
0.000232521
0.000227495
0.000227491
0.000223683
0.000230467
0.000220041
0.000220033
0.000208849
0.000227723
0.000211411
0.000211406
0.000193551
0.000224339
0.000202424
0.000202419
0.000179542
0.000220446
0.000193574
0.000193565
0.000167228
0.000216192
0.000185103
0.000185092
0.000156534
0.000211707
0.000177088
0.000177073
0.000147203
0.000207098
0.000169561
0.000169548
0.000138987
0.000202442
0.000162492
0.000162487
0.000131696
0.000197793
0.000155834
0.000155835
0.000125097
0.000193184
0.000149537
0.000149538
0.000118977
0.000188597
0.000143558
0.000143557
0.000113214
0.000184069
0.00013784
0.000137837
0.000107891
0.000179626
0.000132342
0.000132339
0.00010297
0.00017526
0.000127054
0.000127052
9.82998e-05
0.000170957
0.000121997
0.000121996
9.3995e-05
0.000166704
0.000117206
0.000117202
9.03489e-05
0.000162502
0.0001127
0.000112696
8.73963e-05
0.000108545
8.51099e-05
0.00023425
0.000234466
0.000234466
0.000234249
0.000234466
0.000234465
0.00023426
0.00023426
0.00023426
0.000234261
0.000234466
0.000234471
0.000234251
0.000234466
0.000234469
0.000234253
0.000233441
0.000226068