/*--------------------------------*- C++ -*----------------------------------*\
| =========                 |                                                 |
| \\      /  F ield         | OpenFOAM: The Open Source CFD Toolbox           |
|  \\    /   O peration     | Version:  2312                                  |
|   \\  /    A nd           | Website:  www.openfoam.com                      |
|    \\/     M anipulation  |                                                 |
\*---------------------------------------------------------------------------*/
FoamFile
{
    version     2.0;
    format      ascii;
    arch        "LSB;label=32;scalar=64";
    class       surfaceScalarField;
    location    "500";
    object      phi;
}
// * * * * * * * * * * * * * * * * * * * * * * * * * * * * * * * * * * * * * //

dimensions      [0 3 -1 0 0 0 0];

oriented        oriented;

internalField   nonuniform List<scalar> 
124832
(
-8.76041e-07
-8.82793e-07
4.56183e-07
4.571e-07
0.00114043
-0.00113959
-1.51904e-06
8.76708e-07
4.45423e-07
0.00113302
-5.32621e-07
1.1075e-06
1.27522e-07
7.24869e-07
-5.9065e-07
-1.27327e-06
5.85676e-08
-0.00113244
-8.56838e-07
-8.57971e-07
-0.00114291
4.42974e-07
4.43518e-07
0.00114374
-0.00113482
-1.51666e-06
8.57026e-07
4.18914e-07
0.00113536
-5.21503e-07
1.11696e-06
1.34257e-07
7.32397e-07
-5.7509e-07
-1.25925e-06
6.77046e-08
-0.00113469
-1.51398e-06
8.57207e-07
4.24694e-07
0.00113523
-5.21582e-07
1.11423e-06
1.34139e-07
7.3243e-07
-5.75244e-07
-1.25939e-06
6.79443e-08
-0.000276279
1.54565e-06
1.50859e-06
-4.9979e-07
-5.03022e-07
0.000274228
1.56161e-06
1.52211e-06
-5.07876e-07
-5.15994e-07
0.00027407
-0.00027613
-1.15822e-06
-1.11535e-06
0.000276353
-0.000274237
7.57507e-08
8.11952e-08
4.36153e-07
0.0011326
-5.35278e-07
1.15048e-06
1.30628e-07
7.30115e-07
-5.90808e-07
-1.27891e-06
5.82757e-08
-0.00113201
8.71126e-07
4.35755e-07
0.00113267
1.1478e-06
1.33392e-07
7.29953e-07
-5.90828e-07
-1.27876e-06
5.81754e-08
-0.00113208
-1.55634e-06
-5.35517e-07
0.00113427
8.61648e-07
-0.00113374
4.39256e-07
-1.55808e-06
1.4146e-07
-5.29995e-07
-1.26865e-06
6.5321e-08
-5.79413e-07
7.35973e-07
1.15291e-06
0.00113435
8.61921e-07
-0.0011338
4.27982e-07
-1.55542e-06
1.38313e-07
-5.27295e-07
-1.26849e-06
6.52971e-08
-5.79254e-07
7.35818e-07
-1.11528e-06
0.000276334
-0.00027422
7.58333e-08
7.85278e-08
4.35024e-07
0.00113358
-5.32803e-07
1.11033e-06
1.27558e-07
7.30095e-07
-5.90724e-07
-1.27879e-06
5.85734e-08
-0.001133
-1.55359e-06
8.76311e-07
4.35812e-07
0.00113256
-5.38135e-07
1.14242e-06
1.33529e-07
7.30189e-07
-5.90799e-07
-1.27865e-06
5.49323e-08
-0.00113197
0.00113527
8.62716e-07
-0.00113472
4.27478e-07
-1.51843e-06
1.32448e-07
-5.24643e-07
-1.26848e-06
6.55531e-08
-5.79336e-07
7.35916e-07
1.14751e-06
0.00113424
8.61553e-07
-0.00113369
4.28299e-07
-1.54992e-06
1.38455e-07
-5.29955e-07
-1.2684e-06
6.21468e-08
-5.7645e-07
7.35959e-07
8.61836e-07
-0.00113427
4.32541e-07
-1.51805e-06
1.32591e-07
-5.24345e-07
-1.26283e-06
6.54661e-08
7.30526e-07
-5.78931e-07
1.14448e-06
0.00113386
8.61385e-07
-0.00113331
4.28647e-07
-1.54699e-06
1.35466e-07
-5.27059e-07
-1.25989e-06
5.88365e-08
-5.7334e-07
7.27847e-07
-5.10963e-07
-5.1559e-07
0.000274045
-0.000276091
-1.10981e-06
0.000276309
-0.000274209
7.59873e-08
8.12922e-08
7.76221e-07
2.55177e-07
0.00113308
1.06641e-06
1.15462e-07
7.27207e-07
-5.87952e-07
5.85654e-08
-1.2758e-06
-1.58656e-06
-0.00113209
-5.43493e-07
8.61929e-07
-0.00113414
4.27128e-07
-1.51263e-06
1.32556e-07
-5.24413e-07
-1.26298e-06
6.57472e-08
7.30627e-07
-5.79044e-07
1.10716e-06
0.00113484
8.62214e-07
-0.00113429
4.27096e-07
-1.50997e-06
1.32618e-07
-5.24462e-07
-1.26544e-06
6.56678e-08
-5.79173e-07
7.3305e-07
-0.000274182
7.58652e-08
7.85913e-08
1.5595e-06
1.51706e-06
-5.00123e-07
-5.05646e-07
0.000274283
4.14843e-07
0.00113482
-5.30081e-07
1.15985e-06
1.4297e-07
7.37771e-07
-5.7557e-07
-1.26512e-06
6.74578e-08
-1.55402e-06
8.57334e-07
4.25547e-07
0.00113489
-5.27205e-07
1.15458e-06
1.39968e-07
7.37813e-07
-5.75277e-07
-1.26484e-06
6.42725e-08
-5.00311e-07
-5.02399e-07
0.000274266
4.25002e-07
0.00113581
-5.21914e-07
1.117e-06
1.34035e-07
7.37774e-07
-5.75492e-07
-1.26495e-06
6.77668e-08
-1.54853e-06
8.56756e-07
4.2583e-07
0.00113478
-5.27067e-07
1.14916e-06
1.40091e-07
7.37891e-07
-5.72628e-07
-1.26483e-06
6.44182e-08
8.56565e-07
4.26145e-07
0.0011344
-5.24263e-07
1.14617e-06
1.37117e-07
7.29709e-07
-5.6948e-07
6.11291e-08
-1.25632e-06
-5.00405e-07
-5.05109e-07
0.000274252
8.57488e-07
4.24574e-07
0.00113538
-5.21657e-07
1.10886e-06
1.34246e-07
7.34899e-07
-5.75306e-07
6.79162e-08
-1.26182e-06
-8.22791e-11
9.36779e-08
0.000237627
-0.000237701
-1.06207e-08
-8.47166e-09
-3.79683e-09
1.51397e-07
-2.06621e-08
0.00019805
-0.000198177
5.63265e-11
2.7694e-07
0.000237944
-9.49798e-08
-1.31529e-08
-0.000238113
1.49907e-08
3.11047e-08
0.00019784
-5.45495e-09
-0.000197881
-1.49012e-08
5.41769e-09
9.92819e-05
-9.92724e-05
9.35944e-08
-1.35391e-10
0.000237614
-0.000237689
-8.44832e-09
-1.05627e-08
-3.91869e-09
1.51356e-07
-2.08127e-08
0.000198031
-0.000198157
2.7683e-07
2.44723e-10
0.000237932
-1.34234e-08
-9.49335e-08
-0.000238101
1.54136e-08
3.09156e-08
0.000197823
-5.87664e-09
-0.000197864
4.61657e-07
4.35267e-07
0.0011402
-8.76583e-07
-0.00113934
4.5634e-07
4.84339e-07
0.00114001
-0.0011392
4.06537e-07
4.29082e-07
0.00113995
-1.04306e-06
-0.00113896
-0.00114209
4.5593e-07
4.51044e-07
0.0011427
-0.00114187
4.50123e-07
4.50936e-07
0.00114249
-0.00114167
4.50117e-07
4.50803e-07
0.00114245
-0.00114163
4.50384e-07
4.5073e-07
-9.37583e-08
-1.81232e-09
0.000261358
-0.000261287
-2.74807e-08
5.21069e-08
4.26852e-07
1.11187e-06
0.0011337
8.7162e-07
-1.26966e-06
6.08729e-08
-5.86658e-07
7.26595e-07
-1.52063e-06
1.29209e-07
-5.29895e-07
-0.00113312
4.75664e-09
-3.11185e-08
0.000254114
2.02143e-08
-0.000254148
4.03994e-08
-1.78906e-08
0.00113384
9.23942e-07
-1.38031e-06
5.74527e-07
-1.20851e-06
7.71471e-07
-0.00113308
4.18884e-09
6.76415e-08
9.93321e-05
-9.94039e-05
-1.49477e-08
7.87596e-09
9.92746e-05
-9.92676e-05
-3.40822e-10
-9.3721e-08
0.000261344
-0.000261277
5.48656e-08
-2.81236e-08
0.00113295
5.30019e-08
9.28112e-07
7.71672e-07
-1.21087e-06
-1.38322e-06
5.72112e-07
-0.00113223
-7.07095e-08
-1.51173e-07
3.37609e-07
7.6382e-08
0.000254363
-0.000254556
4.43032e-07
1.10647e-06
0.00113358
8.71709e-07
-1.26986e-06
6.10817e-08
-5.86784e-07
7.26819e-07
-1.51784e-06
1.2925e-07
-5.29908e-07
1.80755e-09
-2.76799e-07
0.000261428
5.31005e-07
-3.54018e-08
-0.000261649
1.88008e-08
0.00113368
9.2386e-07
-1.38052e-06
5.77261e-07
-1.20594e-06
7.74225e-07
4.39363e-09
-3.08969e-08
0.000254104
2.03345e-08
-0.00025414
4.28348e-08
-1.14661e-06
-1.0983e-06
0.000276178
-0.000274074
6.5506e-08
7.60638e-08
-4.56883e-09
-7.69868e-09
0.000285614
2.24927e-08
-0.000285685
6.06382e-08
-4.85456e-09
-7.95856e-09
0.000285531
2.33532e-08
-0.000285602
6.07022e-08
-2.22782e-11
7.71032e-08
-0.000236782
-5.8035e-09
-6.71103e-09
-0.000197528
-3.41421e-09
1.40568e-07
-1.76558e-08
0.000197408
-0.000237161
8.88996e-11
2.57471e-07
0.000237004
-8.82748e-08
-1.14373e-08
1.39729e-08
2.26859e-08
-3.67643e-09
-0.000197258
-9.91575e-05
4.96918e-09
6.35993e-08
9.9089e-05
-1.38863e-08
4.49834e-09
-9.9029e-05
7.70641e-08
-1.01258e-10
-0.00023677
-6.71009e-09
-5.77306e-09
-0.000197506
-4.93366e-09
1.40362e-07
-1.80157e-08
0.000197389
-0.000237149
2.57443e-07
2.46481e-10
0.000236991
-1.16263e-08
-8.83064e-08
1.39653e-08
2.2619e-08
-3.61359e-09
-0.000197239
4.48239e-07
4.49056e-07
0.00114351
4.48175e-07
4.48896e-07
0.00114331
4.48463e-07
4.48762e-07
0.00114327
-7.72585e-08
-1.50371e-09
-0.000260653
-2.27992e-08
3.60298e-08
-0.000253674
-6.77677e-08
-1.42445e-07
3.22956e-07
6.89054e-08
0.000253492
0.00113603
-0.00113532
2.55663e-09
9.10573e-07
7.81171e-07
-1.19887e-06
-1.36951e-06
5.84217e-07
4.27582e-07
1.11851e-06
8.5224e-07
-1.25563e-06
6.99161e-08
-5.7124e-07
7.3435e-07
-1.51526e-06
1.35868e-07
-5.18705e-07
-0.000261044
-2.57229e-07
1.54705e-09
0.000260816
-3.02796e-08
5.13965e-07
7.77544e-09
-2.05099e-08
1.46677e-08
-0.000253281
2.84792e-08
-4.36448e-09
9.06209e-07
-1.36916e-06
5.83683e-07
-1.1991e-06
7.80651e-07
-9.91513e-05
4.95549e-09
6.3443e-08
9.90829e-05
-1.40339e-08
4.61508e-09
-9.90242e-05
-6.98257e-10
-7.72353e-08
-0.000260643
3.60964e-08
-2.28271e-08
0.00113587
-0.00113515
4.5988e-09
9.10872e-07
7.81224e-07
-1.2019e-06
-1.37246e-06
5.81279e-07
-0.000253666
-6.80725e-08
-1.40216e-07
3.20509e-07
6.92092e-08
0.000253484
4.22362e-07
1.11585e-06
8.52388e-07
-1.25571e-06
7.01549e-08
-5.71372e-07
7.3431e-07
-1.51251e-06
1.32823e-07
-5.18731e-07
-0.000261033
1.04957e-09
-2.57385e-07
0.000260806
5.14219e-07
-3.06723e-08
-3.13441e-09
9.06537e-07
-1.36941e-06
5.86402e-07
-1.1966e-06
7.83418e-07
7.45803e-09
-2.25632e-08
1.47672e-08
-0.000253273
3.09743e-08
-0.000285134
6.81401e-08
-6.34299e-08
1.79684e-07
-1.37127e-08
0.000284964
-0.000285052
6.78896e-08
-6.36188e-08
1.7501e-07
-1.37512e-08
0.000284886
-1.14775e-06
-1.11044e-06
-0.000274269
8.09419e-08
8.36206e-08
-7.57741e-09
-4.49641e-09
2.11017e-08
-0.000284735
4.89274e-08
-7.86526e-09
-4.76224e-09
2.1994e-08
-0.000284658
5.3645e-08
6.93431e-08
9.93598e-05
-9.9433e-05
7.80946e-09
9.93045e-05
-9.92973e-05
6.75106e-08
9.93485e-05
-9.94199e-05
7.43545e-09
9.92908e-05
-9.92828e-05
7.30318e-08
1.88807e-07
-1.3296e-08
0.000285991
-0.00028617
7.02902e-08
1.90894e-07
-1.29397e-08
0.000285913
-0.000286094
0.000276249
-1.1522e-06
-1.11205e-06
-0.000274129
6.80657e-08
7.61563e-08
0.000285668
-1.87872e-09
2.51606e-08
-0.000285742
5.82649e-08
0.000285592
-2.12576e-09
2.25505e-08
-0.000285663
5.79476e-08
6.09753e-09
-1.39835e-08
9.91788e-05
-9.91709e-05
6.56563e-08
4.81109e-09
9.9234e-05
6.09642e-09
-1.44653e-08
9.91674e-05
-9.9159e-05
6.56057e-08
4.5669e-09
9.92206e-05
1.5593e-06
1.51971e-06
0.000274184
-5.02768e-07
-5.10878e-07
-6.01601e-09
0.000285189
5.35271e-08
-0.000285252
2.17982e-08
-3.59793e-09
0.000285113
5.34171e-08
-0.000285179
2.19151e-08
6.80576e-08
-1.60029e-08
1.85566e-07
0.000285497
6.79377e-08
-1.33e-08
1.85188e-07
0.000285418
9.36509e-08
0.000237584
-0.000237659
-1.0609e-08
-8.24618e-09
1.53608e-07
-2.05673e-08
0.000197982
-4.09934e-09
-0.000198111
2.76891e-07
0.000237901
-9.49575e-08
-1.34658e-08
-0.00023807
2.88015e-08
0.000197779
-5.2741e-09
-0.000197818
-8.17097e-10
0.000261372
-0.000261302
-2.78879e-08
5.2052e-08
3.40409e-07
7.61226e-08
0.000254377
-0.000254569
0.00113336
4.14013e-09
9.29306e-07
7.77476e-07
-1.21645e-06
-1.38885e-06
5.80576e-07
-0.00113261
4.33007e-07
0.00113317
8.71085e-07
-1.56046e-06
1.3523e-07
-5.32633e-07
-1.27556e-06
6.06202e-08
-5.8699e-07
7.32029e-07
8.9159e-10
0.000261452
-3.41249e-08
5.31136e-07
-0.000261673
0.000254114
2.02248e-08
-0.000254146
4.05646e-08
-3.11096e-09
0.00113412
9.19093e-07
-1.38631e-06
5.82898e-07
-1.21432e-06
7.79857e-07
0.000261342
-0.000261275
-2.6485e-08
5.20132e-08
3.40261e-07
7.61019e-08
0.000254267
-0.000254456
-7.29254e-08
0.00113331
9.23767e-07
7.77259e-07
-1.21642e-06
-1.38845e-06
5.80527e-07
-0.00113255
4.33244e-07
0.00113324
1.1495e-06
8.718e-07
-1.27543e-06
6.06618e-08
7.31876e-07
-5.87058e-07
-1.55793e-06
1.35043e-07
-5.3557e-07
0.000261425
-3.56955e-08
5.31103e-07
-0.000261643
0.000254005
4.4806e-09
2.02702e-08
-0.000254041
4.04139e-08
0.00113406
9.19269e-07
-1.38599e-06
5.82871e-07
-1.21429e-06
7.79632e-07
5.93002e-11
2.67019e-07
-9.14376e-08
-1.22223e-08
0.000237463
2.65692e-08
-0.000197564
-3.97929e-09
1.45743e-07
-2.15319e-08
0.000197721
-1.23048e-10
8.51446e-08
-0.000237231
-7.95229e-09
-7.49297e-09
2.66968e-07
-9.14264e-08
-1.2523e-08
0.000237421
2.67501e-08
1.40652e-08
0.000197456
-0.000197493
-3.87983e-09
1.47967e-07
-4.79384e-09
-1.89995e-08
0.000197655
8.51371e-08
0.000237119
-0.000237188
-7.99769e-09
-7.58582e-09
9.28506e-10
-3.2009e-08
5.22843e-07
0.000261147
4.25227e-07
8.66599e-07
1.15385e-06
-5.3275e-07
1.3682e-07
7.33958e-07
-5.83232e-07
6.29041e-08
-1.27225e-06
0.000253676
3.42231e-08
-0.000253708
1.74838e-08
-0.00113485
-3.15906e-09
0.00113559
9.15758e-07
-1.38094e-06
5.84741e-07
-1.20705e-06
7.84593e-07
7.01052e-08
3.3183e-07
0.000253926
4.03775e-09
9.20306e-07
7.82176e-07
-1.20939e-06
-1.38373e-06
5.82414e-07
-8.04532e-10
0.000261058
-0.00026099
-2.57521e-08
4.39902e-08
-3.37358e-08
5.22766e-07
0.000261121
4.30882e-07
-1.55673e-06
8.66841e-07
7.33871e-07
-5.83063e-07
-1.27199e-06
6.29644e-08
1.15124e-06
-5.30047e-07
1.33705e-07
3.45151e-09
0.000253567
3.43622e-08
-0.000253595
1.74624e-08
-0.0011348
0.00113553
9.15844e-07
-1.38061e-06
5.84726e-07
-1.207e-06
7.84432e-07
-7.0437e-08
7.25201e-08
3.31654e-07
0.000253819
9.20404e-07
7.82049e-07
-1.20931e-06
-1.38336e-06
5.82393e-07
0.000261028
-0.000260964
-2.4097e-08
4.39551e-08
0.000276233
-0.000274115
7.07288e-08
7.33993e-08
0.000285529
2.29741e-08
-0.000285603
6.07082e-08
-7.89945e-09
0.000285681
2.29162e-08
-0.00028575
5.84427e-08
9.92978e-05
-1.49114e-08
-9.92907e-05
6.56221e-09
-9.915e-05
6.79198e-08
9.92092e-05
1.51943e-06
0.00027417
-5.05764e-07
-5.07797e-07
0.000285055
5.36547e-08
-0.000285121
2.22091e-08
-4.00764e-09
-6.34093e-09
0.000285199
5.36593e-08
-0.000285265
2.23275e-08
-1.34007e-08
1.85317e-07
0.000285355
-6.54527e-08
7.03122e-08
-1.32798e-08
1.85265e-07
0.000285505
-1.45977e-08
9.91768e-05
-9.91662e-05
4.54312e-09
9.92278e-05
-1.68268e-09
0.000261366
-0.000261295
-2.73744e-08
5.20278e-08
3.377e-07
7.6158e-08
0.000254337
-0.000254529
0.00113322
3.12588e-09
9.34045e-07
7.77262e-07
-1.21357e-06
-1.38856e-06
5.77762e-07
-0.00113247
4.32105e-07
0.00113416
8.72206e-07
-1.52085e-06
1.29207e-07
-5.3006e-07
-1.27536e-06
6.10002e-08
-5.86885e-07
7.32091e-07
1.82055e-09
0.000261446
-3.52456e-08
5.31016e-07
-0.000261666
0.000254077
1.99707e-08
-0.000254111
4.29279e-08
-4.12775e-09
0.00113397
9.23951e-07
-1.38606e-06
5.80098e-07
-1.21142e-06
7.79664e-07
9.35907e-08
0.000237573
-0.000237648
-1.05749e-08
-8.59104e-09
1.5142e-07
-2.06529e-08
0.000197971
-0.000198098
2.76823e-07
0.000237891
-9.49272e-08
-1.30877e-08
-0.000238059
3.12919e-08
0.000197764
-5.6326e-09
-0.000197804
0.000261335
-0.000261268
5.20317e-08
-2.6974e-08
0.00113317
9.28448e-07
7.77372e-07
-1.21357e-06
-1.38849e-06
5.77782e-07
-0.00113242
-7.30135e-08
3.35269e-07
7.60558e-08
0.000254255
-0.000254441
4.33408e-07
0.00113312
1.14414e-06
8.82307e-07
-1.2753e-06
5.73853e-08
7.32126e-07
-5.84182e-07
-1.55242e-06
1.3519e-07
-5.35486e-07
0.000261418
5.30978e-07
-3.5366e-08
-0.000261635
0.00113391
9.29822e-07
-1.38581e-06
5.80134e-07
-1.21141e-06
7.79949e-07
0.00025399
4.84625e-09
1.97128e-08
-0.000254029
4.59954e-08
2.66953e-07
2.15233e-10
-1.24642e-08
-9.14185e-08
0.000237451
2.66091e-08
-0.000197543
-4.43559e-09
1.45709e-07
-1.92971e-08
0.000197701
8.51064e-08
-9.50453e-11
-0.000237219
-7.55797e-09
-7.99294e-09
1.82143e-09
-3.30645e-08
5.22755e-07
0.000261141
4.29692e-07
8.67449e-07
1.11372e-06
-5.27422e-07
1.30768e-07
7.33957e-07
-5.83129e-07
6.31857e-08
-1.27197e-06
0.000253639
3.69137e-08
-0.00025367
1.72242e-08
-0.0011347
-3.85351e-09
0.00113543
9.15422e-07
-1.38075e-06
5.84718e-07
-1.20692e-06
7.84292e-07
7.25348e-08
3.29138e-07
0.000253889
3.16024e-09
9.25155e-07
7.81931e-07
-1.20925e-06
-1.38341e-06
5.82353e-07
-1.67365e-09
0.000261052
-0.000260981
-2.47025e-08
4.11967e-08
2.66935e-07
-9.14133e-08
-1.2186e-08
0.00023741
2.68791e-08
1.44443e-08
0.000197447
-0.000197484
-4.65384e-09
1.45721e-07
-4.61634e-09
-1.92596e-08
0.000197642
8.51065e-08
0.000237108
-0.000237178
-8.00617e-09
-7.62082e-09
5.22765e-07
-3.32285e-08
0.000261114
4.25421e-07
-1.55118e-06
8.66378e-07
7.34003e-07
-5.80331e-07
-1.2719e-06
5.97819e-08
1.14584e-06
-5.32641e-07
1.36855e-07
-0.00113464
0.00113537
9.15591e-07
-1.38053e-06
5.8475e-07
-1.20692e-06
7.84557e-07
6.3748e-09
0.000253552
3.98897e-08
-0.000253588
1.68538e-08
9.25393e-07
7.82223e-07
-1.20926e-06
-1.38325e-06
5.82391e-07
-7.04337e-08
7.24196e-08
3.26592e-07
0.000253807
0.000261021
-0.000260954
4.11963e-08
-2.42656e-08
-5.55414e-11
0.000237608
-0.000237685
-8.62917e-09
-8.51819e-09
0.000197827
-5.41666e-09
-0.000197868
-9.36287e-08
0.000261326
-0.000261259
5.19674e-08
-2.73092e-08
4.49712e-07
0.00113275
8.76564e-07
-1.54946e-06
1.35173e-07
-5.3273e-07
-1.26957e-06
5.74837e-08
-5.86594e-07
7.23965e-07
-0.0011322
0.00113376
9.2373e-07
-1.38026e-06
5.77422e-07
-1.20851e-06
7.74265e-07
-0.00113302
-3.11332e-08
0.000254031
2.00524e-08
-0.00025407
4.5886e-08
0.000237569
-0.000237644
-1.06096e-08
-8.83008e-09
0.000197768
1.48051e-08
-5.36167e-09
-0.000197808
-2.66766e-07
1.34515e-09
-3.26315e-08
5.22572e-07
0.000261133
4.24222e-07
8.6673e-07
1.11359e-06
-5.2716e-07
1.3091e-07
7.28554e-07
-5.82758e-07
-1.2663e-06
6.31511e-08
-2.4521e-08
3.43312e-08
-0.000253707
1.73053e-08
-0.00113457
-5.61524e-09
9.14983e-07
-1.37502e-06
5.79136e-07
7.76135e-07
-1.204e-06
-1.45467e-07
7.23898e-08
3.31334e-07
0.000253926
-1.33641e-09
9.19429e-07
7.76506e-07
-1.20356e-06
-1.375e-06
5.79607e-07
-8.53005e-08
-1.5751e-09
-0.000260976
-2.5062e-08
4.40658e-08
-3.1705e-11
-1.23809e-08
-9.34856e-08
0.000237447
0.000197513
-0.000197547
-4.56931e-09
-1.91009e-08
0.000197705
6.19764e-12
0.000237144
-0.000237215
-7.90375e-09
-5.95175e-09
-2.66815e-07
5.22556e-07
-3.35667e-08
0.000261105
4.36425e-07
-1.55103e-06
8.66355e-07
7.25811e-07
-5.79863e-07
-1.26338e-06
5.64283e-08
1.14552e-06
-5.32618e-07
1.3684e-07
-0.0011345
0.00113523
9.15132e-07
-1.37487e-06
5.82034e-07
-1.204e-06
7.78991e-07
-2.67305e-08
6.14337e-09
0.000253593
3.4454e-08
-0.000253624
1.73318e-08
9.19434e-07
7.76616e-07
-1.20631e-06
-1.37756e-06
5.79682e-07
-1.45533e-07
-7.06126e-08
7.25642e-08
3.28837e-07
0.000253846
-8.51912e-08
0.000261009
-0.000260948
4.67839e-08
-2.442e-08
-9.13625e-08
-1.25694e-08
0.000237406
1.43321e-08
0.000197451
-0.000197488
-4.43354e-09
-4.67243e-09
-1.90589e-08
0.000197646
0.000237104
-0.000237174
-8.03947e-09
-7.45397e-09
1.86429e-07
-1.35142e-08
0.000285854
-0.000286032
-6.74849e-08
1.88565e-07
-1.38676e-08
0.000285997
-0.000286175
0.000276208
-0.000274105
7.09023e-08
7.61887e-08
0.000285529
2.31672e-08
-0.000285602
6.31606e-08
-7.61552e-09
0.000285672
2.28306e-08
-0.000285743
6.05903e-08
4.34014e-09
9.93559e-05
-9.94277e-05
9.92984e-05
-1.47152e-08
-9.92913e-05
6.16891e-09
-9.9143e-05
6.54741e-08
9.92046e-05
1.51389e-06
0.000274159
-5.05762e-07
-5.10464e-07
0.000285049
5.83079e-08
-0.000285118
2.23883e-08
-5.97135e-09
-6.01009e-09
0.000285192
5.57376e-08
-0.000285261
2.48556e-08
-1.37854e-08
1.80595e-07
0.000285357
-6.53899e-08
7.05628e-08
-1.66045e-08
1.82823e-07
0.0002855
-1.42804e-08
9.9175e-05
-9.91667e-05
4.73867e-09
9.92283e-05
-9.11522e-08
0.000261312
-0.000261248
5.20763e-08
-2.54914e-08
0.00113287
9.57285e-07
7.7429e-07
-1.21077e-06
5.72059e-07
-1.38568e-06
-0.00113227
-1.51434e-07
3.40245e-07
7.61631e-08
0.000254252
-7.29446e-08
-0.000254444
3.93878e-07
0.00113372
8.66614e-07
-1.51526e-06
1.2316e-07
-5.32754e-07
-1.27238e-06
6.09691e-08
-5.84139e-07
7.29307e-07
-2.79263e-07
0.000261398
5.33628e-07
-3.53581e-08
-0.000261615
0.00113359
9.24135e-07
-1.38302e-06
5.77213e-07
-1.20584e-06
7.76651e-07
-3.11446e-08
0.000253992
1.99305e-08
-0.000254029
4.29407e-08
2.25909e-10
0.000237603
-0.000237678
-8.61152e-09
-1.0651e-08
-2.02337e-08
0.000198031
-0.000198157
4.67283e-10
0.000237921
-1.37202e-08
-9.48781e-08
-0.000238089
0.000197823
-5.05041e-09
-0.000197864
0.000237563
-0.000237635
-8.02585e-09
-1.06126e-08
-2.07004e-08
0.000197966
-0.000198093
-4.14361e-09
0.000237878
-1.32792e-08
-9.4882e-08
-0.000238049
0.000197759
1.50556e-08
-5.65818e-09
-0.000197799
1.32677e-09
-2.66886e-07
5.20071e-07
-3.30192e-08
0.000261123
4.35243e-07
8.66922e-07
1.10818e-06
-5.27185e-07
1.30833e-07
7.28689e-07
-5.82895e-07
-1.2665e-06
6.33557e-08
-0.00113442
-9.03593e-10
9.15165e-07
-1.37523e-06
5.81848e-07
7.78942e-07
-1.20149e-06
-2.65294e-08
3.67589e-08
-0.0002537
1.74265e-08
1.14058e-08
9.19769e-07
7.76644e-07
-1.20653e-06
-1.37789e-06
5.76741e-07
-1.45522e-07
7.27091e-08
3.2887e-07
0.000253918
-6.64211e-10
-8.52624e-08
-0.000260966
4.41249e-08
-2.53369e-08
-2.69369e-07
5.22617e-07
-3.36893e-08
0.000261094
4.24052e-07
-1.51131e-06
8.67226e-07
7.31152e-07
-5.82955e-07
-1.26892e-06
6.3339e-08
1.10547e-06
-5.27217e-07
1.30916e-07
-0.00113434
0.00113507
9.15078e-07
-1.37758e-06
5.81808e-07
-1.20134e-06
7.81349e-07
-2.68019e-08
6.43313e-09
0.000253555
3.95602e-08
-0.000253591
1.70272e-08
9.19548e-07
7.78949e-07
-1.20642e-06
-1.38034e-06
5.7669e-07
-1.45715e-07
-7.03032e-08
7.24978e-08
3.29018e-07
0.000253807
-8.2674e-08
0.000261001
-0.000260937
4.1252e-08
-2.33097e-08
4.41976e-10
-1.27969e-08
-9.13594e-08
0.00023744
0.000197507
-0.000197543
-4.16657e-09
-1.89136e-08
0.000197702
1.23989e-10
0.000237138
-0.000237208
-7.67866e-09
-8.11009e-09
-1.2343e-08
-9.13536e-08
0.000237398
1.45879e-08
0.000197442
-0.000197479
-4.76104e-09
-4.48801e-09
-1.93887e-08
0.000197637
0.000237098
-0.000237166
-7.04817e-09
-8.05695e-09
9.92771e-05
-9.927e-05
9.92722e-05
-9.92651e-05
0.000274129
-5.05233e-07
-5.08363e-07
-6.01808e-09
5.34604e-08
-0.000285197
2.17647e-08
-6.28527e-09
5.82015e-08
-0.00028512
2.26472e-08
-6.54503e-08
-1.34783e-08
1.82883e-07
0.000285439
-6.56211e-08
-1.35679e-08
1.82989e-07
0.000285357
9.91537e-05
-9.91454e-05
9.9207e-05
9.91488e-05
-9.91405e-05
9.9202e-05
6.38671e-08
9.91115e-05
4.45658e-09
-9.90524e-05
6.34745e-08
9.9099e-05
4.43313e-09
-9.90403e-05
6.8151e-08
1.79979e-07
-1.36255e-08
0.000285018
6.80202e-08
1.79709e-07
-1.37003e-08
0.000284942
-1.15874e-06
-1.11858e-06
-0.000274327
8.07321e-08
8.62287e-08
-7.45052e-09
2.07176e-08
-0.00028479
5.13253e-08
-7.47142e-09
2.0814e-08
-0.000284714
4.89097e-08
7.70857e-08
-0.000236739
-5.78635e-09
-6.6486e-09
1.40321e-07
-1.7974e-08
0.000197339
2.57442e-07
0.000236961
-8.83096e-08
-1.16373e-08
2.26095e-08
-3.48062e-09
-0.000197191
-7.82823e-10
-0.000260668
-2.27582e-08
3.58997e-08
3.234e-07
6.92596e-08
0.000253492
0.0011363
4.08401e-09
9.11374e-07
7.86825e-07
-1.20744e-06
-1.37824e-06
5.8984e-07
4.29192e-07
8.52173e-07
-1.5553e-06
1.4161e-07
-5.24402e-07
-1.26153e-06
6.97831e-08
-5.71761e-07
7.39712e-07
9.45263e-10
0.00026083
-2.99471e-08
5.14218e-07
1.47121e-08
-0.000253281
3.12196e-08
-3.15012e-09
9.07244e-07
-1.37514e-06
5.92122e-07
-1.20493e-06
7.89125e-07
-0.000260641
-2.15645e-08
3.58828e-08
-6.52511e-08
3.23186e-07
6.89552e-08
0.00025338
0.00113626
9.11415e-07
7.86785e-07
-1.20738e-06
-1.37779e-06
5.89819e-07
4.23174e-07
1.15612e-06
8.52482e-07
-1.26124e-06
6.66285e-08
7.39762e-07
-5.68753e-07
-1.55264e-06
1.41566e-07
-5.24416e-07
0.000260804
-3.13385e-08
5.14167e-07
4.75539e-09
1.46927e-08
-0.000253171
3.12108e-08
9.07206e-07
-1.37474e-06
5.92108e-07
-1.20487e-06
7.89043e-07
1.79608e-07
-1.31434e-08
0.000284887
-6.58186e-08
1.79675e-07
-1.33888e-08
0.000285031
-0.000274308
8.09201e-08
8.35174e-08
2.35073e-08
-0.000284657
4.88674e-08
-2.50088e-09
2.16432e-08
-0.000284803
4.91331e-08
4.92418e-09
9.9106e-05
-1.42365e-08
-9.90474e-05
-1.69786e-09
-0.000260659
-2.2171e-08
3.31277e-08
3.20717e-07
6.91144e-08
0.000253457
0.00113615
3.44069e-09
9.11101e-07
7.86602e-07
-1.20457e-06
-1.37794e-06
5.86977e-07
4.22536e-07
8.53088e-07
-1.51562e-06
1.35664e-07
-5.1903e-07
-1.26123e-06
7.00194e-08
-5.71632e-07
7.39649e-07
1.83606e-09
0.000260821
-3.09443e-08
5.16888e-07
1.46735e-08
-0.000253246
3.10667e-08
-3.73155e-09
9.06799e-07
-1.37491e-06
5.89225e-07
-1.20207e-06
7.88847e-07
7.70712e-08
-0.000236729
-5.78382e-09
-6.78509e-09
1.40378e-07
-1.80893e-08
0.00019733
2.5742e-07
0.00023695
-8.829e-08
-1.12901e-08
2.28443e-08
-3.88227e-09
-0.00019718
-0.000260631
3.31261e-08
-2.17564e-08
0.0011361
9.11226e-07
7.86878e-07
-1.20458e-06
-1.37777e-06
5.87009e-07
-6.80231e-08
3.18166e-07
6.89989e-08
0.000253373
4.23337e-07
1.1508e-06
8.51884e-07
-1.26124e-06
6.67003e-08
7.39724e-07
-5.68794e-07
-1.54708e-06
1.4174e-07
-5.24316e-07
0.000260794
5.16897e-07
-3.10787e-08
9.06915e-07
-1.37472e-06
5.89261e-07
-1.20209e-06
7.89114e-07
7.72713e-09
1.42668e-08
-0.000253162
3.40314e-08
1.36983e-11
-0.000236766
-7.04825e-09
-3.71484e-09
-1.80066e-08
0.000197393
1.25382e-11
0.000236988
-1.12451e-08
-9.03806e-08
-3.87477e-09
-0.000197243
-7.71429e-08
-0.000260626
3.87778e-08
-2.16816e-08
0.00113596
9.10686e-07
7.81316e-07
-1.20162e-06
5.84305e-07
-1.37202e-06
-1.40245e-07
3.23031e-07
6.91661e-08
0.000253409
4.23668e-07
8.51711e-07
-1.54424e-06
1.38688e-07
-5.21415e-07
-1.25272e-06
6.34167e-08
-5.65686e-07
7.31618e-07
-2.57285e-07
0.000260788
5.11249e-07
-3.14289e-08
9.06368e-07
-1.36896e-06
5.86549e-07
-1.19914e-06
7.83543e-07
-2.27215e-08
1.471e-08
-0.000253198
2.85676e-08
-0.000236725
-5.80976e-09
-6.58321e-09
-5.00325e-09
-1.79364e-08
0.000197334
0.000236947
-8.82633e-08
-1.16828e-08
1.39595e-08
-3.71749e-09
-0.000197184
1.74985e-07
-1.40236e-08
0.000284884
-6.34129e-08
1.77219e-07
-1.67024e-08
0.000285027
-0.000274294
8.11039e-08
8.64018e-08
2.16465e-08
-0.000284656
5.37329e-08
-4.48332e-09
2.42379e-08
-0.000284799
5.12408e-08
5.02973e-09
9.91066e-05
-1.39087e-08
-9.90479e-05
-7.46525e-08
-0.000260614
3.32054e-08
-2.10071e-08
0.0011358
9.10793e-07
7.83637e-07
-1.20171e-06
5.812e-07
-1.37482e-06
-1.40404e-07
3.18057e-07
6.89915e-08
0.000253376
4.22012e-07
8.52738e-07
-1.50716e-06
1.35819e-07
-5.18817e-07
-1.25819e-06
7.01878e-08
-5.71502e-07
7.36827e-07
-2.59828e-07
0.000260777
5.16741e-07
-3.1774e-08
9.06493e-07
-1.3718e-06
5.86347e-07
-1.19642e-06
7.85912e-07
-2.27882e-08
1.43656e-08
-0.000253165
3.37336e-08
1.13056e-10
-0.000236759
-6.8225e-09
-5.90269e-09
-1.78192e-08
0.000197389
3.59334e-10
0.000236981
-1.19196e-08
-8.82467e-08
-3.46233e-09
-0.000197239
-0.000236717
-6.39918e-09
-5.85228e-09
-4.794e-09
-1.82649e-08
0.000197325
0.000236938
-1.14392e-08
-8.82329e-08
1.42168e-08
-4.05967e-09
-0.000197175
9.90853e-05
-9.90266e-05
9.90804e-05
-9.90217e-05
-3.67832e-10
8.644e-08
0.000145584
-0.000145666
-3.77975e-09
-9.3155e-08
-1.28774e-08
-0.000237867
-1.31787e-10
2.71926e-07
-0.000173727
-2.75466e-10
-6.00661e-11
0.000173717
-0.000230529
-7.29114e-09
-8.71941e-09
0.000230466
6.99487e-08
-0.00017382
-1.27775e-10
-0.000230687
-1.72998e-08
2.48926e-07
-2.08731e-10
0.000145576
-8.03658e-05
-1.3912e-08
-5.24585e-11
8.03798e-05
-6.1572e-08
0.000270221
1.77474e-08
1.99065e-07
-0.000270397
-6.49238e-09
0.000198005
1.73736e-08
3.3587e-08
3.53044e-09
-8.04309e-05
9.01697e-09
0.000270149
4.25756e-08
-0.000145675
-1.25721e-10
8.62597e-09
-1.2078e-08
-8.9202e-09
6.90182e-11
9.80987e-08
6.82235e-10
0.000173832
-6.70942e-11
-0.000173928
-8.80534e-08
0.000230752
2.53493e-07
-0.000230913
-0.000145758
-5.0566e-11
7.39446e-08
6.0429e-08
8.03156e-05
-0.000269977
1.47477e-08
0.000269908
3.96256e-08
-1.98465e-08
-4.49943e-09
1.48618e-07
1.95464e-07
8.03301e-05
9.93459e-05
-1.53469e-08
6.34872e-09
-9.93369e-05
4.51315e-09
6.89667e-08
8.64784e-08
-2.87619e-10
0.000145582
-0.000145665
-3.8444e-09
-1.31525e-08
-9.31248e-08
-0.000237855
6.44885e-11
2.71851e-07
-0.000230518
-7.28691e-09
-8.55183e-09
0.000230456
6.98719e-08
-0.000173724
-2.37066e-10
1.37897e-11
0.000173714
-0.000230677
-1.72885e-08
2.48909e-07
-0.000173817
1.30109e-11
-1.32244e-10
0.000145575
-8.03672e-05
-1.41371e-08
-7.34611e-11
8.03814e-05
-6.16249e-08
0.000270215
1.77897e-08
1.99e-07
-0.000270391
-6.01123e-09
0.000197988
1.54336e-08
3.32917e-08
3.57532e-09
-8.04324e-05
9.1617e-09
0.000270143
4.24151e-08
-0.000145673
8.55807e-09
-1.14278e-10
-8.75233e-09
-1.20142e-08
5.86164e-11
9.8011e-08
-8.8045e-08
0.000230742
2.53453e-07
-0.000230903
6.29795e-10
0.00017383
4.3443e-11
-0.000173925
-0.000145757
7.38919e-08
3.22947e-11
6.05565e-08
8.0317e-05
-0.000269971
1.47841e-08
0.000269902
3.9434e-08
-2.00681e-08
-3.76856e-09
1.48369e-07
1.95476e-07
8.03317e-05
9.93385e-05
-1.52278e-08
8.80101e-09
4.40498e-09
6.65552e-08
-4.08506e-08
-4.1081e-08
0.000218974
-0.000219099
1.0252e-07
1.04642e-07
-8.19488e-05
8.31745e-09
-1.71033e-08
8.19575e-05
-8.19368e-05
8.48497e-09
-1.72992e-08
8.19456e-05
-8.2014e-05
2.4365e-08
-8.2002e-05
2.41404e-08
3.8642e-08
3.84683e-08
0.000218914
7.04279e-08
-3.8449e-08
-4.03921e-08
0.00022902
5.73407e-08
-0.000229069
6.32034e-08
2.33369e-08
0.000285865
-8.6011e-09
-0.000285939
-3.68036e-09
0.000260211
7.77944e-08
-0.000260234
7.92991e-08
1.72534e-08
0.000187189
-0.000187222
7.27058e-08
-3.85133e-08
-3.81767e-08
0.000228944
5.75338e-08
-0.000228997
6.32343e-08
2.36553e-08
0.000285779
-8.84255e-09
-3.95713e-09
-0.000285854
0.000260088
7.3271e-08
8.40145e-08
-0.00026011
1.74206e-08
0.000187134
-0.000187167
-9.0174e-09
-9.15719e-09
-0.00021916
-8.20057e-05
-8.19937e-05
1.46439e-07
-1.28129e-07
0.000228869
2.35195e-07
-0.000187072
3.47043e-08
0.000187043
1.88167e-07
-1.33968e-08
-6.64914e-08
7.18709e-08
-0.000260028
-7.0054e-08
0.000260007
7.23083e-08
7.86772e-08
3.28107e-07
1.89694e-07
0.000228815
5.71966e-08
1.46242e-07
-1.26289e-07
0.000228797
2.31065e-07
-0.000187019
3.68143e-08
0.000186988
1.859e-07
-1.35099e-08
-6.66663e-08
7.16065e-08
-0.000259908
-7.21691e-08
0.00025989
6.99775e-08
8.08642e-08
3.23035e-07
1.8952e-07
0.000228745
5.51319e-08
9.59053e-10
8.06879e-08
0.000145246
-0.000145322
-4.82167e-09
-8.68716e-08
-1.12817e-08
-0.000236936
-2.61444e-11
2.52874e-07
-0.00017334
-1.22721e-09
-4.22283e-11
-0.000229692
-2.82125e-09
-6.98908e-09
5.52735e-08
-0.000173426
-1.70896e-11
-0.000229839
-1.57902e-08
2.31714e-07
-7.66324e-10
-8.01727e-05
-1.67576e-08
7.74602e-10
8.01887e-05
-5.74917e-08
0.000269284
1.63353e-08
-0.000269445
1.85262e-07
-3.80548e-09
0.000197373
1.40507e-08
2.4762e-08
4.67929e-09
-8.02348e-05
7.58341e-09
0.000269224
3.12412e-08
-0.000145327
1.11826e-09
3.89655e-09
-6.87819e-09
-7.22522e-09
1.62342e-10
8.11074e-08
-6.43845e-10
0.000173432
-0.000173519
-6.77244e-11
-8.2024e-08
0.000229893
-0.000230042
2.35963e-07
-0.000145405
2.18267e-11
5.88492e-08
5.67011e-08
8.01271e-05
-0.000269066
1.73709e-08
2.86043e-08
-1.75055e-08
-5.0988e-09
1.3786e-07
1.82075e-07
9.9097e-05
-1.38374e-08
5.80767e-09
5.32582e-09
6.26972e-08
8.06759e-08
9.75418e-10
0.000145244
-0.000145321
-4.83626e-09
-1.14502e-08
-8.68658e-08
-0.000236924
8.26198e-11
2.52833e-07
-0.000229681
-2.8147e-09
-7.00808e-09
5.52748e-08
-0.000173338
-1.29346e-09
4.14704e-11
-0.000229828
-1.57649e-08