/*--------------------------------*- C++ -*----------------------------------*\
| =========                 |                                                 |
| \\      /  F ield         | OpenFOAM: The Open Source CFD Toolbox           |
|  \\    /   O peration     | Version:                                        |
|   \\  /    A nd           | Website:  www.openfoam.com                      |
|    \\/     M anipulation  |                                                 |
\*---------------------------------------------------------------------------*/
FoamFile
{
    version     2.0;
    format      ascii;
    class       volScalarField;
    location    "11850.5";
    object      p;
}
// * * * * * * * * * * * * * * * * * * * * * * * * * * * * * * * * * * * * * //

dimensions      [0 2 -2 0 0 0 0];


internalField   nonuniform List<scalar> 
247096
(
1.29029e-07
1.29032e-07
1.29175e-07
1.29262e-07
1.29294e-07
1.29253e-07
1.29162e-07
1.29008e-07
1.29032e-07
1.2923e-07
1.29407e-07
1.295e-07
1.29523e-07
1.29493e-07
1.29389e-07
1.29206e-07
1.29175e-07
1.29407e-07
1.29547e-07
1.29589e-07
1.29595e-07
1.29586e-07
1.29537e-07
1.2938e-07
1.29148e-07
1.29262e-07
1.295e-07
1.29589e-07
1.296e-07
1.29599e-07
1.296e-07
1.29584e-07
1.29478e-07
1.29229e-07
1.29029e-07
1.29294e-07
1.29523e-07
1.29595e-07
1.29599e-07
1.29595e-07
1.29599e-07
1.29592e-07
1.29503e-07
1.2926e-07
1.29253e-07
1.29493e-07
1.29586e-07
1.296e-07
1.29599e-07
1.296e-07
1.29581e-07
1.2947e-07
1.2922e-07
1.29162e-07
1.29389e-07
1.29537e-07
1.29584e-07
1.29592e-07
1.29581e-07
1.29525e-07
1.29361e-07
1.29136e-07
1.29008e-07
1.29206e-07
1.2938e-07
1.29478e-07
1.29503e-07
1.2947e-07
1.29361e-07
1.29184e-07
1.29148e-07
1.29229e-07
1.2926e-07
1.2922e-07
1.29136e-07
1.26215e-07
1.2619e-07
1.26199e-07
1.26049e-07
1.2606e-07
1.26079e-07
1.26059e-07
1.26247e-07
1.26186e-07
1.26199e-07
1.26067e-07
1.2586e-07
1.25878e-07
1.25878e-07
1.25861e-07
1.26124e-07
1.26073e-07
1.26049e-07
1.25861e-07
1.25898e-07
1.25919e-07
1.25919e-07
1.25898e-07
1.2586e-07
1.26188e-07
1.26237e-07
1.26215e-07
1.2606e-07
1.25878e-07
1.25919e-07
1.25944e-07
1.25944e-07
1.25919e-07
1.25878e-07
1.26214e-07
1.26254e-07
1.2619e-07
1.26079e-07
1.25878e-07
1.25919e-07
1.25944e-07
1.25944e-07
1.25919e-07
1.25878e-07
1.26217e-07
1.26078e-07
1.26059e-07
1.2586e-07
1.25898e-07
1.25919e-07
1.25919e-07
1.25898e-07
1.2586e-07
1.26211e-07
1.26263e-07
1.26247e-07
1.26124e-07
1.2586e-07
1.25878e-07
1.25878e-07
1.2586e-07
1.26204e-07
1.26131e-07
1.26246e-07
1.26186e-07
1.26073e-07
1.26188e-07
1.26214e-07
1.26217e-07
1.26211e-07
1.26131e-07
1.26258e-07
1.26237e-07
1.26254e-07
1.26078e-07
1.26263e-07
1.26246e-07
1.24501e-07
1.24491e-07
1.245e-07
1.2437e-07
1.24367e-07
1.24375e-07
1.24369e-07
1.24531e-07
1.24493e-07
1.245e-07
1.24362e-07
1.24143e-07
1.24152e-07
1.24152e-07
1.24143e-07
1.24386e-07
1.24383e-07
1.2437e-07
1.24143e-07
1.24166e-07
1.24176e-07
1.24176e-07
1.24166e-07
1.24143e-07
1.24431e-07
1.24525e-07
1.24501e-07
1.24367e-07
1.24152e-07
1.24176e-07
1.24188e-07
1.24188e-07
1.24176e-07
1.24152e-07
1.24437e-07
1.24521e-07
1.24491e-07
1.24375e-07
1.24152e-07
1.24176e-07
1.24188e-07
1.24188e-07
1.24176e-07
1.24152e-07
1.24436e-07
1.24389e-07
1.24369e-07
1.24143e-07
1.24166e-07
1.24176e-07
1.24176e-07
1.24166e-07
1.24143e-07
1.24438e-07
1.24528e-07
1.24531e-07
1.24386e-07
1.24143e-07
1.24152e-07
1.24152e-07
1.24143e-07
1.24417e-07
1.24409e-07
1.24533e-07
1.24493e-07
1.24383e-07
1.24431e-07
1.24437e-07
1.24436e-07
1.24438e-07
1.24409e-07
1.24537e-07
1.24525e-07
1.24521e-07
1.24389e-07
1.24529e-07
1.24533e-07
1.23022e-07
1.23012e-07
1.2302e-07
1.22896e-07
1.22893e-07
1.22899e-07
1.22895e-07
1.23047e-07
1.23016e-07
1.2302e-07
1.22891e-07
1.22702e-07
1.22706e-07
1.22706e-07
1.22702e-07
1.22917e-07
1.22912e-07
1.22896e-07
1.22702e-07
1.22714e-07
1.22716e-07
1.22716e-07
1.22714e-07
1.22702e-07
1.22959e-07
1.23046e-07
1.23022e-07
1.22893e-07
1.22706e-07
1.22716e-07
1.2272e-07
1.2272e-07
1.22716e-07
1.22706e-07
1.22962e-07
1.23042e-07
1.23012e-07
1.22899e-07
1.22706e-07
1.22716e-07
1.2272e-07
1.2272e-07
1.22716e-07
1.22706e-07
1.2296e-07
1.22917e-07
1.22895e-07
1.22702e-07
1.22714e-07
1.22716e-07
1.22716e-07
1.22714e-07
1.22702e-07
1.22962e-07
1.23048e-07
1.23047e-07
1.22917e-07
1.22702e-07
1.22706e-07
1.22706e-07
1.22702e-07
1.22946e-07
1.22936e-07
1.2305e-07
1.23016e-07
1.22912e-07
1.22959e-07
1.22962e-07
1.2296e-07
1.22962e-07
1.22936e-07
1.23058e-07
1.23046e-07
1.23042e-07
1.22917e-07
1.23048e-07
1.2305e-07
1.21652e-07
1.21642e-07
1.21651e-07
1.21529e-07
1.21525e-07
1.2153e-07
1.21527e-07
1.21676e-07
1.21647e-07
1.21651e-07
1.21524e-07
1.21345e-07
1.21347e-07
1.21347e-07
1.21345e-07
1.21551e-07
1.21546e-07
1.21529e-07
1.21345e-07
1.21351e-07
1.21351e-07
1.21351e-07
1.21351e-07
1.21345e-07
1.21594e-07
1.21676e-07
1.21652e-07
1.21525e-07
1.21347e-07
1.21351e-07
1.21352e-07
1.21352e-07
1.21351e-07
1.21347e-07
1.21595e-07
1.21672e-07
1.21642e-07
1.2153e-07
1.21347e-07
1.21351e-07
1.21352e-07
1.21352e-07
1.21351e-07
1.21347e-07
1.21593e-07
1.21551e-07
1.21527e-07
1.21345e-07
1.21351e-07
1.21351e-07
1.21351e-07
1.21351e-07
1.21345e-07
1.21594e-07
1.21677e-07
1.21676e-07
1.21551e-07
1.21345e-07
1.21347e-07
1.21347e-07
1.21345e-07
1.21579e-07
1.2157e-07
1.2168e-07
1.21647e-07
1.21546e-07
1.21594e-07
1.21595e-07
1.21593e-07
1.21594e-07
1.2157e-07
1.21688e-07
1.21676e-07
1.21672e-07
1.21551e-07
1.21677e-07
1.2168e-07
1.20307e-07
1.20297e-07
1.20306e-07
1.20185e-07
1.2018e-07
1.20186e-07
1.20182e-07
1.20331e-07
1.20303e-07
1.20306e-07
1.20179e-07
1.20002e-07
1.20003e-07
1.20003e-07
1.20002e-07
1.20206e-07
1.20202e-07
1.20185e-07
1.20002e-07
1.20006e-07
1.20005e-07
1.20005e-07
1.20006e-07
1.20002e-07
1.20251e-07
1.20332e-07
1.20307e-07
1.2018e-07
1.20003e-07
1.20005e-07
1.20004e-07
1.20004e-07
1.20005e-07
1.20003e-07
1.20251e-07
1.20328e-07
1.20297e-07
1.20186e-07
1.20003e-07
1.20005e-07
1.20004e-07
1.20004e-07
1.20005e-07
1.20003e-07
1.20248e-07
1.20207e-07
1.20182e-07
1.20002e-07
1.20006e-07
1.20005e-07
1.20005e-07
1.20006e-07
1.20002e-07
1.2025e-07
1.20333e-07
1.20331e-07
1.20206e-07
1.20002e-07
1.20003e-07
1.20003e-07
1.20002e-07
1.20235e-07
1.20225e-07
1.20335e-07
1.20303e-07
1.20202e-07
1.20251e-07
1.20251e-07
1.20248e-07
1.2025e-07
1.20225e-07
1.20344e-07
1.20332e-07
1.20328e-07
1.20207e-07
1.20333e-07
1.20335e-07
1.18964e-07
1.18953e-07
1.18963e-07
1.18841e-07
1.18837e-07
1.18842e-07
1.18839e-07
1.18987e-07
1.18959e-07
1.18963e-07
1.18836e-07
1.18658e-07
1.18658e-07
1.18658e-07
1.18658e-07
1.18863e-07
1.18859e-07
1.18841e-07
1.18658e-07
1.18662e-07
1.1866e-07
1.1866e-07
1.18662e-07
1.18658e-07
1.18907e-07
1.18988e-07
1.18964e-07
1.18837e-07
1.18658e-07
1.1866e-07
1.18659e-07
1.18659e-07
1.1866e-07
1.18658e-07
1.18907e-07
1.18984e-07
1.18953e-07
1.18842e-07
1.18658e-07
1.1866e-07
1.18659e-07
1.18659e-07
1.1866e-07
1.18658e-07
1.18905e-07
1.18863e-07
1.18839e-07
1.18658e-07
1.18662e-07
1.1866e-07
1.1866e-07
1.18662e-07
1.18658e-07
1.18907e-07
1.18989e-07
1.18987e-07
1.18863e-07
1.18658e-07
1.18658e-07
1.18658e-07
1.18658e-07
1.18891e-07
1.18882e-07
1.18991e-07
1.18959e-07
1.18859e-07
1.18907e-07
1.18907e-07
1.18905e-07
1.18907e-07
1.18882e-07
1.19e-07
1.18988e-07
1.18984e-07
1.18863e-07
1.18989e-07
1.18991e-07
1.17619e-07
1.17608e-07
1.17618e-07
1.17496e-07
1.17492e-07
1.17497e-07
1.17494e-07
1.17642e-07
1.17614e-07
1.17618e-07
1.17491e-07
1.17312e-07
1.17313e-07
1.17313e-07
1.17312e-07
1.17518e-07
1.17514e-07
1.17496e-07
1.17312e-07
1.17316e-07
1.17315e-07
1.17315e-07
1.17316e-07
1.17312e-07
1.17562e-07
1.17643e-07
1.17619e-07
1.17492e-07
1.17313e-07
1.17315e-07
1.17314e-07
1.17314e-07
1.17315e-07
1.17313e-07
1.17562e-07
1.1764e-07
1.17608e-07
1.17497e-07
1.17313e-07
1.17315e-07
1.17314e-07
1.17314e-07
1.17315e-07
1.17313e-07
1.1756e-07
1.17518e-07
1.17494e-07
1.17312e-07
1.17316e-07
1.17315e-07
1.17315e-07
1.17316e-07
1.17312e-07
1.17562e-07
1.17645e-07
1.17642e-07
1.17518e-07
1.17312e-07
1.17313e-07
1.17313e-07
1.17312e-07
1.17546e-07
1.17537e-07
1.17647e-07
1.17614e-07
1.17514e-07
1.17562e-07
1.17562e-07
1.1756e-07
1.17562e-07
1.17537e-07
1.17655e-07
1.17643e-07
1.1764e-07
1.17518e-07
1.17645e-07
1.17647e-07
1.16273e-07
1.16263e-07
1.16272e-07
1.1615e-07
1.16146e-07
1.16151e-07
1.16148e-07
1.16297e-07
1.16269e-07
1.16272e-07
1.16145e-07
1.15967e-07
1.15967e-07
1.15967e-07
1.15967e-07
1.16172e-07
1.16168e-07
1.1615e-07
1.15967e-07
1.15971e-07
1.15969e-07
1.15969e-07
1.15971e-07
1.15967e-07
1.16217e-07
1.16298e-07
1.16273e-07
1.16146e-07
1.15967e-07
1.15969e-07
1.15968e-07
1.15968e-07
1.15969e-07
1.15967e-07
1.16217e-07
1.16294e-07
1.16263e-07
1.16151e-07
1.15967e-07
1.15969e-07
1.15968e-07
1.15968e-07
1.15969e-07
1.15967e-07
1.16214e-07
1.16173e-07
1.16148e-07
1.15967e-07
1.15971e-07
1.15969e-07
1.15969e-07
1.15971e-07
1.15967e-07
1.16216e-07
1.16299e-07
1.16297e-07
1.16172e-07
1.15967e-07
1.15967e-07
1.15967e-07
1.15967e-07
1.162e-07
1.16191e-07
1.16301e-07
1.16269e-07
1.16168e-07
1.16217e-07
1.16217e-07
1.16214e-07
1.16216e-07
1.16191e-07
1.1631e-07
1.16298e-07
1.16294e-07
1.16173e-07
1.16299e-07
1.16301e-07
1.14928e-07
1.14917e-07
1.14926e-07
1.14805e-07
1.148e-07
1.14806e-07
1.14802e-07
1.14951e-07
1.14923e-07
1.14926e-07
1.14799e-07
1.14621e-07
1.14622e-07
1.14622e-07
1.14621e-07
1.14826e-07
1.14823e-07
1.14805e-07
1.14621e-07
1.14625e-07
1.14623e-07
1.14623e-07
1.14625e-07
1.14621e-07
1.14871e-07
1.14952e-07
1.14928e-07
1.148e-07
1.14622e-07
1.14623e-07
1.14623e-07
1.14623e-07
1.14623e-07
1.14622e-07
1.14871e-07
1.14948e-07
1.14917e-07
1.14806e-07
1.14622e-07
1.14623e-07
1.14623e-07
1.14623e-07
1.14623e-07
1.14622e-07
1.14869e-07
1.14827e-07
1.14802e-07
1.14621e-07
1.14625e-07
1.14623e-07
1.14623e-07
1.14625e-07
1.14621e-07
1.1487e-07
1.14953e-07
1.14951e-07
1.14826e-07
1.14621e-07
1.14622e-07
1.14622e-07
1.14621e-07
1.14855e-07
1.14846e-07
1.14955e-07
1.14923e-07
1.14823e-07
1.14871e-07
1.14871e-07
1.14869e-07
1.1487e-07
1.14846e-07
1.14964e-07
1.14952e-07
1.14948e-07
1.14827e-07
1.14953e-07
1.14955e-07
1.13582e-07
1.13572e-07
1.13581e-07
1.13459e-07
1.13455e-07
1.1346e-07
1.13457e-07
1.13605e-07
1.13577e-07
1.13581e-07
1.13454e-07
1.13275e-07
1.13276e-07
1.13276e-07
1.13275e-07
1.13481e-07
1.13477e-07
1.13459e-07
1.13275e-07
1.13279e-07
1.13278e-07
1.13278e-07
1.13279e-07
1.13275e-07
1.13525e-07
1.13607e-07
1.13582e-07
1.13455e-07
1.13276e-07
1.13278e-07
1.13277e-07
1.13277e-07
1.13278e-07
1.13276e-07
1.13525e-07
1.13603e-07
1.13572e-07
1.1346e-07
1.13276e-07
1.13278e-07
1.13277e-07
1.13277e-07
1.13278e-07
1.13276e-07
1.13523e-07
1.13481e-07
1.13457e-07
1.13275e-07
1.13279e-07
1.13278e-07
1.13278e-07
1.13279e-07
1.13275e-07
1.13525e-07
1.13608e-07
1.13605e-07
1.13481e-07
1.13275e-07
1.13276e-07
1.13276e-07
1.13275e-07
1.13509e-07
1.135e-07
1.1361e-07
1.13577e-07
1.13477e-07
1.13525e-07
1.13525e-07
1.13523e-07
1.13525e-07
1.135e-07
1.13619e-07
1.13607e-07
1.13603e-07
1.13481e-07
1.13608e-07
1.1361e-07
1.12236e-07
1.12226e-07
1.12235e-07
1.12113e-07
1.12109e-07
1.12114e-07
1.12111e-07
1.1226e-07
1.12232e-07
1.12235e-07
1.12108e-07
1.1193e-07
1.1193e-07
1.1193e-07
1.1193e-07
1.12135e-07
1.12131e-07
1.12113e-07
1.1193e-07
1.11934e-07
1.11932e-07
1.11932e-07
1.11934e-07
1.1193e-07
1.1218e-07
1.12261e-07
1.12236e-07
1.12109e-07
1.1193e-07
1.11932e-07
1.11931e-07
1.11931e-07
1.11932e-07
1.1193e-07
1.1218e-07
1.12257e-07
1.12226e-07
1.12114e-07
1.1193e-07
1.11932e-07
1.11931e-07
1.11931e-07
1.11932e-07
1.1193e-07
1.12177e-07
1.12136e-07
1.12111e-07
1.1193e-07
1.11934e-07
1.11932e-07
1.11932e-07
1.11934e-07
1.1193e-07
1.12179e-07
1.12262e-07
1.1226e-07
1.12135e-07
1.1193e-07
1.1193e-07
1.1193e-07
1.1193e-07
1.12163e-07
1.12154e-07
1.12264e-07
1.12232e-07
1.12131e-07
1.1218e-07
1.1218e-07
1.12177e-07
1.12179e-07
1.12154e-07
1.12273e-07
1.12261e-07
1.12257e-07
1.12136e-07
1.12262e-07
1.12264e-07
1.10891e-07
1.1088e-07
1.10889e-07
1.10768e-07
1.10763e-07
1.10768e-07
1.10765e-07
1.10914e-07
1.10886e-07
1.10889e-07
1.10762e-07
1.10584e-07
1.10585e-07
1.10585e-07
1.10584e-07
1.10789e-07
1.10785e-07
1.10768e-07
1.10584e-07
1.10588e-07
1.10586e-07
1.10586e-07
1.10588e-07
1.10584e-07
1.10834e-07
1.10915e-07
1.10891e-07
1.10763e-07
1.10585e-07
1.10586e-07
1.10586e-07
1.10586e-07
1.10586e-07
1.10585e-07
1.10834e-07
1.10911e-07
1.1088e-07
1.10768e-07
1.10585e-07
1.10586e-07
1.10586e-07
1.10586e-07
1.10586e-07
1.10585e-07
1.10831e-07
1.1079e-07
1.10765e-07
1.10584e-07
1.10588e-07
1.10586e-07
1.10586e-07
1.10588e-07
1.10584e-07
1.10833e-07
1.10916e-07
1.10914e-07
1.10789e-07
1.10584e-07
1.10585e-07
1.10585e-07
1.10584e-07
1.10818e-07
1.10809e-07
1.10918e-07
1.10886e-07
1.10785e-07
1.10834e-07
1.10834e-07
1.10831e-07
1.10833e-07
1.10809e-07
1.10927e-07
1.10915e-07
1.10911e-07
1.1079e-07
1.10916e-07
1.10918e-07
1.09545e-07
1.09534e-07
1.09544e-07
1.09422e-07
1.09418e-07
1.09423e-07
1.0942e-07
1.09568e-07
1.0954e-07
1.09544e-07
1.09417e-07
1.09238e-07
1.09239e-07
1.09239e-07
1.09238e-07
1.09444e-07
1.0944e-07
1.09422e-07
1.09238e-07
1.09242e-07
1.09241e-07
1.09241e-07
1.09242e-07
1.09238e-07
1.09488e-07
1.09569e-07
1.09545e-07
1.09418e-07
1.09239e-07
1.09241e-07
1.0924e-07
1.0924e-07
1.09241e-07
1.09239e-07
1.09488e-07
1.09566e-07
1.09534e-07
1.09423e-07
1.09239e-07
1.09241e-07
1.0924e-07
1.0924e-07
1.09241e-07
1.09239e-07
1.09486e-07
1.09444e-07
1.0942e-07
1.09238e-07
1.09242e-07
1.09241e-07
1.09241e-07
1.09242e-07
1.09238e-07
1.09488e-07
1.09571e-07
1.09568e-07
1.09444e-07
1.09238e-07
1.09239e-07
1.09239e-07
1.09238e-07
1.09472e-07
1.09463e-07
1.09573e-07
1.0954e-07
1.0944e-07
1.09488e-07
1.09488e-07
1.09486e-07
1.09488e-07
1.09463e-07
1.09582e-07
1.09569e-07
1.09566e-07
1.09444e-07
1.09571e-07
1.09573e-07
1.08199e-07
1.08189e-07
1.08198e-07
1.08076e-07
1.08072e-07
1.08077e-07
1.08074e-07
1.08223e-07
1.08195e-07
1.08198e-07
1.08071e-07
1.07893e-07
1.07893e-07
1.07893e-07
1.07893e-07
1.08098e-07
1.08094e-07
1.08076e-07
1.07893e-07
1.07897e-07
1.07895e-07
1.07895e-07
1.07897e-07
1.07893e-07
1.08143e-07
1.08224e-07
1.08199e-07
1.08072e-07
1.07893e-07
1.07895e-07
1.07894e-07
1.07894e-07
1.07895e-07
1.07893e-07
1.08143e-07
1.0822e-07
1.08189e-07
1.08077e-07
1.07893e-07
1.07895e-07
1.07894e-07
1.07894e-07
1.07895e-07
1.07893e-07
1.0814e-07
1.08098e-07
1.08074e-07
1.07893e-07
1.07897e-07
1.07895e-07
1.07895e-07
1.07897e-07
1.07893e-07
1.08142e-07
1.08225e-07
1.08223e-07
1.08098e-07
1.07893e-07
1.07893e-07
1.07893e-07
1.07893e-07
1.08126e-07
1.08117e-07
1.08227e-07
1.08195e-07
1.08094e-07
1.08143e-07
1.08143e-07
1.0814e-07
1.08142e-07
1.08117e-07
1.08236e-07
1.08224e-07
1.0822e-07
1.08098e-07
1.08225e-07
1.08227e-07
1.06854e-07
1.06843e-07
1.06852e-07
1.06731e-07
1.06726e-07
1.06731e-07
1.06728e-07
1.06877e-07
1.06849e-07
1.06852e-07
1.06725e-07
1.06547e-07
1.06548e-07
1.06548e-07
1.06547e-07
1.06752e-07
1.06748e-07
1.06731e-07
1.06547e-07
1.06551e-07
1.06549e-07
1.06549e-07
1.06551e-07
1.06547e-07
1.06797e-07
1.06878e-07
1.06854e-07
1.06726e-07
1.06548e-07
1.06549e-07
1.06549e-07
1.06549e-07
1.06549e-07
1.06548e-07
1.06797e-07
1.06874e-07
1.06843e-07
1.06731e-07
1.06548e-07
1.06549e-07
1.06549e-07
1.06549e-07
1.06549e-07
1.06548e-07
1.06794e-07
1.06753e-07
1.06728e-07
1.06547e-07
1.06551e-07
1.06549e-07
1.06549e-07
1.06551e-07
1.06547e-07
1.06796e-07
1.06879e-07
1.06877e-07
1.06752e-07
1.06547e-07
1.06548e-07
1.06548e-07
1.06547e-07
1.06781e-07
1.06772e-07
1.06881e-07
1.06849e-07
1.06748e-07
1.06797e-07
1.06797e-07
1.06794e-07
1.06796e-07
1.06772e-07
1.0689e-07
1.06878e-07
1.06874e-07
1.06753e-07
1.06879e-07
1.06881e-07
1.05508e-07
1.05497e-07
1.05507e-07
1.05385e-07
1.05381e-07
1.05386e-07
1.05383e-07
1.05531e-07
1.05503e-07
1.05507e-07
1.0538e-07
1.05201e-07
1.05202e-07
1.05202e-07
1.05201e-07
1.05407e-07
1.05403e-07
1.05385e-07
1.05201e-07
1.05205e-07
1.05204e-07
1.05204e-07
1.05205e-07
1.05201e-07
1.05451e-07
1.05532e-07
1.05508e-07
1.05381e-07
1.05202e-07
1.05204e-07
1.05203e-07
1.05203e-07
1.05204e-07
1.05202e-07
1.05451e-07
1.05529e-07
1.05497e-07
1.05386e-07
1.05202e-07
1.05204e-07
1.05203e-07
1.05203e-07
1.05204e-07
1.05202e-07
1.05449e-07
1.05407e-07
1.05383e-07
1.05201e-07
1.05205e-07
1.05204e-07
1.05204e-07
1.05205e-07
1.05201e-07
1.05451e-07
1.05534e-07
1.05531e-07
1.05407e-07
1.05201e-07
1.05202e-07
1.05202e-07
1.05201e-07
1.05435e-07
1.05426e-07
1.05536e-07
1.05503e-07
1.05403e-07
1.05451e-07
1.05451e-07
1.05449e-07
1.05451e-07
1.05426e-07
1.05544e-07
1.05532e-07
1.05529e-07
1.05407e-07
1.05534e-07
1.05536e-07
1.04162e-07
1.04152e-07
1.04161e-07
1.04039e-07
1.04035e-07
1.0404e-07
1.04037e-07
1.04186e-07
1.04158e-07
1.04161e-07
1.04034e-07
1.03856e-07
1.03856e-07
1.03856e-07
1.03856e-07
1.04061e-07
1.04057e-07
1.04039e-07
1.03856e-07
1.0386e-07
1.03858e-07
1.03858e-07
1.0386e-07
1.03856e-07
1.04106e-07
1.04187e-07
1.04162e-07
1.04035e-07
1.03856e-07
1.03858e-07
1.03857e-07
1.03857e-07
1.03858e-07
1.03856e-07
1.04106e-07
1.04183e-07
1.04152e-07
1.0404e-07
1.03856e-07
1.03858e-07
1.03857e-07
1.03857e-07
1.03858e-07
1.03856e-07
1.04103e-07
1.04061e-07
1.04037e-07
1.03856e-07
1.0386e-07
1.03858e-07
1.03858e-07
1.0386e-07
1.03856e-07
1.04105e-07
1.04188e-07
1.04186e-07
1.04061e-07
1.03856e-07
1.03856e-07
1.03856e-07
1.03856e-07
1.04089e-07
1.0408e-07
1.0419e-07
1.04158e-07
1.04057e-07
1.04106e-07
1.04106e-07
1.04103e-07
1.04105e-07
1.0408e-07
1.04199e-07
1.04187e-07
1.04183e-07
1.04061e-07
1.04188e-07
1.0419e-07
1.02817e-07
1.02806e-07
1.02815e-07
1.02694e-07
1.02689e-07
1.02694e-07
1.02691e-07
1.0284e-07
1.02812e-07
1.02815e-07
1.02688e-07
1.0251e-07
1.02511e-07
1.02511e-07
1.0251e-07
1.02715e-07
1.02711e-07
1.02694e-07
1.0251e-07
1.02514e-07
1.02512e-07
1.02512e-07
1.02514e-07
1.0251e-07
1.0276e-07
1.02841e-07
1.02817e-07
1.02689e-07
1.02511e-07
1.02512e-07
1.02511e-07
1.02511e-07
1.02512e-07
1.02511e-07
1.0276e-07
1.02837e-07
1.02806e-07
1.02694e-07
1.02511e-07
1.02512e-07
1.02511e-07
1.02511e-07
1.02512e-07
1.02511e-07
1.02757e-07
1.02716e-07
1.02691e-07
1.0251e-07
1.02514e-07
1.02512e-07
1.02512e-07
1.02514e-07
1.0251e-07
1.02759e-07
1.02842e-07
1.0284e-07
1.02715e-07
1.0251e-07
1.02511e-07
1.02511e-07
1.0251e-07
1.02744e-07
1.02735e-07
1.02844e-07
1.02812e-07
1.02711e-07
1.0276e-07
1.0276e-07
1.02757e-07
1.02759e-07
1.02735e-07
1.02853e-07
1.02841e-07
1.02837e-07
1.02716e-07
1.02842e-07
1.02844e-07
1.01471e-07
1.0146e-07
1.0147e-07
1.01348e-07
1.01344e-07
1.01349e-07
1.01346e-07
1.01494e-07
1.01466e-07
1.0147e-07
1.01343e-07
1.01164e-07
1.01165e-07
1.01165e-07
1.01164e-07
1.0137e-07
1.01366e-07
1.01348e-07
1.01164e-07
1.01168e-07
1.01167e-07
1.01167e-07
1.01168e-07
1.01164e-07
1.01414e-07
1.01495e-07
1.01471e-07
1.01344e-07
1.01165e-07
1.01167e-07
1.01166e-07
1.01166e-07
1.01167e-07
1.01165e-07
1.01414e-07
1.01492e-07
1.0146e-07
1.01349e-07
1.01165e-07
1.01167e-07
1.01166e-07
1.01166e-07
1.01167e-07
1.01165e-07
1.01412e-07
1.0137e-07
1.01346e-07
1.01164e-07
1.01168e-07
1.01167e-07
1.01167e-07
1.01168e-07
1.01164e-07
1.01414e-07
1.01497e-07
1.01494e-07
1.0137e-07
1.01164e-07
1.01165e-07
1.01165e-07
1.01164e-07
1.01398e-07
1.01389e-07
1.01499e-07
1.01466e-07
1.01366e-07
1.01414e-07
1.01414e-07
1.01412e-07
1.01414e-07
1.01389e-07
1.01507e-07
1.01495e-07
1.01492e-07
1.0137e-07
1.01497e-07
1.01499e-07
1.00125e-07
1.00115e-07
1.00124e-07
1.00002e-07
9.9998e-08
1.00003e-07
9.99999e-08
1.00149e-07
1.00121e-07
1.00124e-07
9.9997e-08
9.98187e-08
9.98193e-08
9.98193e-08
9.98187e-08
1.00024e-07
1.0002e-07
1.00002e-07
9.98187e-08
9.98228e-08
9.98211e-08
9.98211e-08
9.98228e-08
9.98187e-08
1.00069e-07
1.0015e-07
1.00125e-07
9.9998e-08
9.98193e-08
9.98211e-08
9.98202e-08
9.98202e-08
9.98211e-08
9.98193e-08
1.00069e-07
1.00146e-07
1.00115e-07
1.00003e-07
9.98193e-08
9.98211e-08
9.98202e-08
9.98202e-08
9.98211e-08
9.98193e-08
1.00066e-07
1.00025e-07
9.99999e-08
9.98187e-08
9.98228e-08
9.98211e-08
9.98211e-08
9.98228e-08
9.98187e-08
1.00068e-07
1.00151e-07
1.00149e-07
1.00024e-07
9.98187e-08
9.98193e-08
9.98193e-08
9.98187e-08
1.00052e-07
1.00043e-07
1.00153e-07
1.00121e-07
1.0002e-07
1.00069e-07
1.00069e-07
1.00066e-07
1.00068e-07
1.00043e-07
1.00162e-07
1.0015e-07
1.00146e-07
1.00025e-07
1.00151e-07
1.00153e-07
9.87797e-08
9.87692e-08
9.87784e-08
9.86568e-08
9.86523e-08
9.86576e-08
9.86543e-08
9.88032e-08
9.87751e-08
9.87784e-08
9.86514e-08
9.84731e-08
9.84737e-08
9.84737e-08
9.84731e-08
9.86783e-08
9.86746e-08
9.86568e-08
9.84731e-08
9.84771e-08
9.84755e-08
9.84755e-08
9.84771e-08
9.84731e-08
9.87231e-08
9.88042e-08
9.87797e-08
9.86523e-08
9.84737e-08
9.84755e-08
9.84746e-08
9.84746e-08
9.84755e-08
9.84737e-08
9.87231e-08
9.88003e-08
9.87692e-08
9.86575e-08
9.84737e-08
9.84755e-08
9.84746e-08
9.84746e-08
9.84755e-08
9.84737e-08
9.87205e-08
9.86789e-08
9.86543e-08
9.84731e-08
9.84771e-08
9.84755e-08
9.84755e-08
9.84771e-08
9.84731e-08
9.87223e-08
9.88053e-08
9.88032e-08
9.86783e-08
9.84731e-08
9.84737e-08
9.84737e-08
9.84731e-08
9.87067e-08
9.86977e-08
9.88073e-08
9.87751e-08
9.86746e-08
9.87231e-08
9.87231e-08
9.87205e-08
9.87223e-08
9.86978e-08
9.88163e-08
9.88042e-08
9.88003e-08
9.86789e-08
9.88053e-08
9.88074e-08
9.74341e-08
9.74236e-08
9.74328e-08
9.73112e-08
9.73067e-08
9.73119e-08
9.73086e-08
9.74575e-08
9.74295e-08
9.74328e-08
9.73057e-08
9.71274e-08
9.7128e-08
9.7128e-08
9.71274e-08
9.73327e-08
9.73289e-08
9.73112e-08
9.71274e-08
9.71315e-08
9.71298e-08
9.71298e-08
9.71315e-08
9.71274e-08
9.73774e-08
9.74585e-08
9.7434e-08
9.73067e-08
9.7128e-08
9.71298e-08
9.71289e-08
9.71289e-08
9.71298e-08
9.7128e-08
9.73774e-08
9.74547e-08
9.74236e-08
9.73119e-08
9.7128e-08
9.71298e-08
9.71289e-08
9.71289e-08
9.71298e-08
9.7128e-08
9.73748e-08
9.73332e-08
9.73086e-08
9.71274e-08
9.71315e-08
9.71298e-08
9.71298e-08
9.71315e-08
9.71274e-08
9.73767e-08
9.74597e-08
9.74575e-08
9.73327e-08
9.71274e-08
9.7128e-08
9.7128e-08
9.71274e-08
9.73611e-08
9.73521e-08
9.74617e-08
9.74295e-08
9.73289e-08
9.73774e-08
9.73774e-08
9.73749e-08
9.73767e-08
9.73521e-08
9.74706e-08
9.74585e-08
9.74547e-08
9.73332e-08
9.74597e-08
9.74617e-08
9.60884e-08
9.60779e-08
9.60871e-08
9.59655e-08
9.5961e-08
9.59662e-08
9.5963e-08
9.61119e-08
9.60838e-08
9.60871e-08
9.59601e-08
9.57818e-08
9.57824e-08
9.57824e-08
9.57818e-08
9.5987e-08
9.59832e-08
9.59655e-08
9.57818e-08
9.57858e-08
9.57842e-08
9.57842e-08
9.57858e-08
9.57818e-08
9.60318e-08
9.61129e-08
9.60884e-08
9.5961e-08
9.57824e-08
9.57842e-08
9.57833e-08
9.57833e-08
9.57842e-08
9.57824e-08
9.60318e-08
9.6109e-08
9.60779e-08
9.59662e-08
9.57824e-08
9.57842e-08
9.57833e-08
9.57833e-08
9.57842e-08
9.57824e-08
9.60292e-08
9.59876e-08
9.5963e-08
9.57818e-08
9.57858e-08
9.57842e-08
9.57842e-08
9.57858e-08
9.57818e-08
9.6031e-08
9.6114e-08
9.61119e-08
9.5987e-08
9.57818e-08
9.57824e-08
9.57824e-08
9.57818e-08
9.60154e-08
9.60064e-08
9.6116e-08
9.60838e-08
9.59833e-08
9.60318e-08
9.60318e-08
9.60292e-08
9.6031e-08
9.60064e-08
9.61249e-08
9.61129e-08
9.6109e-08
9.59876e-08
9.6114e-08
9.6116e-08
9.47428e-08
9.47323e-08
9.47415e-08
9.46199e-08
9.46154e-08
9.46206e-08
9.46173e-08
9.47662e-08
9.47382e-08
9.47415e-08
9.46144e-08
9.44362e-08
9.44368e-08
9.44368e-08
9.44362e-08
9.46414e-08
9.46376e-08
9.46199e-08
9.44362e-08
9.44402e-08
9.44386e-08
9.44386e-08
9.44402e-08
9.44362e-08
9.46862e-08
9.47672e-08
9.47428e-08
9.46154e-08
9.44368e-08
9.44386e-08
9.44377e-08
9.44377e-08
9.44386e-08
9.44368e-08
9.46861e-08
9.47634e-08
9.47323e-08
9.46206e-08
9.44368e-08
9.44386e-08
9.44377e-08
9.44377e-08
9.44386e-08
9.44368e-08
9.46836e-08
9.46419e-08
9.46173e-08
9.44362e-08
9.44402e-08
9.44386e-08
9.44386e-08
9.44402e-08
9.44362e-08
9.46854e-08
9.47684e-08
9.47662e-08
9.46414e-08
9.44362e-08
9.44368e-08
9.44368e-08
9.44362e-08
9.46698e-08
9.46608e-08
9.47704e-08
9.47382e-08
9.46376e-08
9.46862e-08
9.46861e-08
9.46836e-08
9.46854e-08
9.46608e-08
9.47793e-08
9.47673e-08
9.47634e-08
9.46419e-08
9.47684e-08
9.47704e-08
9.33971e-08
9.33867e-08
9.33959e-08
9.32743e-08
9.32698e-08
9.3275e-08
9.32717e-08
9.34206e-08
9.33926e-08
9.33959e-08
9.32688e-08
9.30905e-08
9.30912e-08
9.30912e-08
9.30905e-08
9.32958e-08
9.3292e-08
9.32743e-08
9.30905e-08
9.30946e-08
9.30929e-08
9.30929e-08
9.30946e-08
9.30905e-08
9.33405e-08
9.34216e-08
9.33971e-08
9.32698e-08
9.30912e-08
9.30929e-08
9.3092e-08
9.3092e-08
9.30929e-08
9.30912e-08
9.33405e-08
9.34178e-08
9.33867e-08
9.3275e-08
9.30912e-08
9.30929e-08
9.3092e-08
9.3092e-08
9.30929e-08
9.30912e-08
9.3338e-08
9.32963e-08
9.32717e-08
9.30905e-08
9.30946e-08
9.30929e-08
9.30929e-08
9.30946e-08
9.30905e-08
9.33398e-08
9.34228e-08
9.34206e-08
9.32958e-08
9.30905e-08
9.30912e-08
9.30912e-08
9.30905e-08
9.33242e-08
9.33152e-08
9.34248e-08
9.33926e-08
9.3292e-08
9.33405e-08
9.33405e-08
9.3338e-08
9.33398e-08
9.33152e-08
9.34337e-08
9.34216e-08
9.34178e-08
9.32963e-08
9.34228e-08
9.34248e-08
9.20515e-08
9.2041e-08
9.20503e-08
9.19286e-08
9.19242e-08
9.19294e-08
9.19261e-08
9.2075e-08
9.2047e-08
9.20503e-08
9.19232e-08
9.17449e-08
9.17455e-08
9.17455e-08
9.17449e-08
9.19502e-08
9.19464e-08
9.19286e-08
9.17449e-08
9.1749e-08
9.17473e-08
9.17473e-08
9.1749e-08
9.17449e-08
9.19949e-08
9.2076e-08
9.20515e-08
9.19242e-08
9.17455e-08
9.17473e-08
9.17464e-08
9.17464e-08
9.17473e-08
9.17455e-08
9.19949e-08
9.20722e-08
9.2041e-08
9.19294e-08
9.17455e-08
9.17473e-08
9.17464e-08
9.17464e-08
9.17473e-08
9.17455e-08
9.19923e-08
9.19507e-08
9.19261e-08
9.17449e-08
9.1749e-08
9.17473e-08
9.17473e-08
9.1749e-08
9.17449e-08
9.19942e-08
9.20772e-08
9.2075e-08
9.19502e-08
9.17449e-08
9.17455e-08
9.17455e-08
9.17449e-08
9.19786e-08
9.19696e-08
9.20792e-08
9.2047e-08
9.19464e-08
9.19949e-08
9.19949e-08
9.19923e-08
9.19942e-08
9.19696e-08
9.20881e-08
9.2076e-08
9.20722e-08
9.19507e-08
9.20772e-08
9.20792e-08
9.07059e-08
9.06954e-08
9.07046e-08
9.0583e-08
9.05786e-08
9.05838e-08
9.05805e-08
9.07294e-08
9.07013e-08
9.07046e-08
9.05776e-08
9.03993e-08
9.03999e-08
9.03999e-08
9.03993e-08
9.06045e-08
9.06008e-08
9.0583e-08
9.03993e-08
9.04033e-08
9.04017e-08
9.04017e-08
9.04034e-08
9.03993e-08
9.06493e-08
9.07304e-08
9.07059e-08
9.05786e-08
9.03999e-08
9.04017e-08
9.04008e-08
9.04008e-08
9.04017e-08
9.03999e-08
9.06493e-08
9.07265e-08
9.06954e-08
9.05838e-08
9.03999e-08
9.04017e-08
9.04008e-08
9.04008e-08
9.04017e-08
9.03999e-08
9.06467e-08
9.06051e-08
9.05805e-08
9.03993e-08
9.04033e-08
9.04017e-08
9.04017e-08
9.04033e-08
9.03993e-08
9.06486e-08
9.07315e-08
9.07294e-08
9.06045e-08
9.03993e-08
9.03999e-08
9.03999e-08
9.03993e-08
9.06329e-08
9.06239e-08
9.07336e-08
9.07013e-08
9.06008e-08
9.06493e-08
9.06493e-08
9.06467e-08
9.06486e-08
9.0624e-08
9.07425e-08
9.07304e-08
9.07265e-08
9.06051e-08
9.07315e-08
9.07336e-08
8.93603e-08
8.93498e-08
8.9359e-08
8.92374e-08
8.92329e-08
8.92381e-08
8.92349e-08
8.93838e-08
8.93557e-08
8.9359e-08
8.9232e-08
8.90537e-08
8.90543e-08
8.90543e-08
8.90537e-08
8.92589e-08
8.92551e-08
8.92374e-08
8.90537e-08
8.90577e-08
8.90561e-08
8.90561e-08
8.90577e-08
8.90537e-08
8.93037e-08
8.93848e-08
8.93603e-08
8.92329e-08
8.90543e-08
8.90561e-08
8.90552e-08
8.90552e-08
8.90561e-08
8.90543e-08
8.93037e-08
8.93809e-08
8.93498e-08
8.92381e-08
8.90543e-08
8.90561e-08
8.90552e-08
8.90552e-08
8.90561e-08
8.90543e-08
8.93011e-08
8.92595e-08
8.92349e-08
8.90537e-08
8.90577e-08
8.90561e-08
8.90561e-08
8.90577e-08
8.90537e-08
8.93029e-08
8.93859e-08
8.93837e-08
8.92589e-08
8.90537e-08
8.90543e-08
8.90543e-08
8.90537e-08
8.92873e-08
8.92783e-08
8.93879e-08
8.93557e-08
8.92551e-08
8.93037e-08
8.93037e-08
8.93011e-08
8.93029e-08
8.92783e-08
8.93968e-08
8.93848e-08
8.93809e-08
8.92595e-08
8.93859e-08
8.93879e-08
8.80147e-08
8.80042e-08
8.80134e-08
8.78918e-08
8.78873e-08
8.78925e-08
8.78893e-08
8.80381e-08
8.80101e-08
8.80134e-08
8.78863e-08
8.77081e-08
8.77087e-08
8.77087e-08
8.77081e-08
8.79133e-08
8.79095e-08
8.78918e-08
8.77081e-08
8.77121e-08
8.77105e-08
8.77105e-08
8.77121e-08
8.77081e-08
8.79581e-08
8.80392e-08
8.80147e-08
8.78873e-08
8.77087e-08
8.77105e-08
8.77096e-08
8.77096e-08
8.77105e-08
8.77087e-08
8.79581e-08
8.80353e-08
8.80042e-08
8.78925e-08
8.77087e-08
8.77105e-08
8.77096e-08
8.77096e-08
8.77105e-08
8.77087e-08
8.79555e-08
8.79139e-08
8.78893e-08
8.77081e-08
8.77121e-08
8.77105e-08
8.77105e-08
8.77121e-08
8.77081e-08
8.79573e-08
8.80403e-08
8.80381e-08
8.79133e-08
8.77081e-08
8.77087e-08
8.77087e-08
8.77081e-08
8.79417e-08
8.79327e-08
8.80423e-08
8.80101e-08
8.79095e-08
8.79581e-08
8.79581e-08
8.79555e-08
8.79573e-08
8.79327e-08
8.80512e-08
8.80392e-08
8.80353e-08
8.79139e-08
8.80403e-08
8.80423e-08
8.66691e-08
8.66586e-08
8.66678e-08
8.65462e-08
8.65417e-08
8.65469e-08
8.65437e-08
8.66925e-08
8.66645e-08
8.66678e-08
8.65408e-08
8.63625e-08
8.63631e-08
8.63631e-08
8.63625e-08
8.65677e-08
8.65639e-08
8.65462e-08
8.63625e-08
8.63665e-08
8.63649e-08
8.63649e-08
8.63665e-08
8.63625e-08
8.66125e-08
8.66936e-08
8.66691e-08
8.65417e-08
8.63631e-08
8.63649e-08
8.6364e-08
8.6364e-08
8.63649e-08
8.63631e-08
8.66125e-08
8.66897e-08
8.66586e-08
8.65469e-08
8.63631e-08
8.63649e-08
8.6364e-08
8.6364e-08
8.63649e-08
8.63631e-08
8.66099e-08
8.65683e-08
8.65437e-08
8.63625e-08
8.63665e-08
8.63649e-08
8.63649e-08
8.63665e-08
8.63625e-08
8.66117e-08
8.66947e-08
8.66925e-08
8.65677e-08
8.63625e-08
8.63631e-08
8.63631e-08
8.63625e-08
8.65961e-08
8.65871e-08
8.66967e-08
8.66645e-08
8.65639e-08
8.66125e-08
8.66125e-08
8.66099e-08
8.66117e-08
8.65871e-08
8.67056e-08
8.66936e-08
8.66897e-08
8.65683e-08
8.66947e-08
8.66967e-08
8.53235e-08
8.5313e-08
8.53222e-08
8.52006e-08
8.51961e-08
8.52013e-08
8.51981e-08
8.5347e-08
8.53189e-08
8.53222e-08
8.51952e-08
8.50169e-08
8.50175e-08
8.50175e-08
8.50169e-08
8.52221e-08
8.52184e-08
8.52006e-08
8.50169e-08
8.50209e-08
8.50193e-08
8.50193e-08
8.50209e-08
8.50169e-08
8.52669e-08
8.5348e-08
8.53235e-08
8.51961e-08
8.50175e-08
8.50193e-08
8.50184e-08
8.50184e-08
8.50193e-08
8.50175e-08
8.52669e-08
8.53441e-08
8.5313e-08
8.52013e-08
8.50175e-08
8.50193e-08
8.50184e-08
8.50184e-08
8.50193e-08
8.50175e-08
8.52643e-08
8.52227e-08
8.51981e-08
8.50169e-08
8.50209e-08
8.50193e-08
8.50193e-08
8.50209e-08
8.50169e-08
8.52661e-08
8.53491e-08
8.5347e-08
8.52221e-08
8.50169e-08
8.50175e-08
8.50175e-08
8.50169e-08
8.52505e-08