/*--------------------------------*- C++ -*----------------------------------*\
| =========                 |                                                 |
| \\      /  F ield         | OpenFOAM: The Open Source CFD Toolbox           |
|  \\    /   O peration     | Version:  2312                                  |
|   \\  /    A nd           | Website:  www.openfoam.com                      |
|    \\/     M anipulation  |                                                 |
\*---------------------------------------------------------------------------*/
FoamFile
{
    version     2.0;
    format      ascii;
    arch        "LSB;label=32;scalar=64";
    class       volScalarField;
    location    "900";
    object      k;
}
// * * * * * * * * * * * * * * * * * * * * * * * * * * * * * * * * * * * * * //

dimensions      [0 2 -2 0 0 0 0];

internalField   nonuniform List<scalar> 
42840
(
1.45935e-05
1.62409e-05
1.62418e-05
1.86747e-05
1.43149e-05
1.64636e-05
1.64645e-05
1.93721e-05
1.40821e-05
1.67732e-05
1.67742e-05
2.01621e-05
1.38947e-05
1.71668e-05
1.7168e-05
2.10342e-05
1.37525e-05
1.76407e-05
1.7642e-05
2.19748e-05
1.36553e-05
1.8191e-05
1.81925e-05
2.29698e-05
1.3603e-05
1.88133e-05
1.88149e-05
2.40042e-05
1.35966e-05
1.95022e-05
1.95042e-05
2.50658e-05
1.36343e-05
2.02527e-05
2.02551e-05
2.61428e-05
1.37182e-05
2.10593e-05
2.10619e-05
2.72223e-05
1.38479e-05
2.19154e-05
2.19183e-05
2.82879e-05
1.40238e-05
2.28145e-05
2.28179e-05
2.93478e-05
1.4246e-05
2.37506e-05
2.37539e-05
3.03992e-05
1.45144e-05
2.47173e-05
2.47203e-05
3.14107e-05
1.48291e-05
2.57084e-05
2.57111e-05
3.24176e-05
1.51896e-05
2.67173e-05
2.67198e-05
3.34026e-05
1.55956e-05
2.77384e-05
2.77405e-05
3.43645e-05
1.6046e-05
2.87655e-05
2.87678e-05
3.53077e-05
1.65397e-05
2.97939e-05
2.97961e-05
3.62175e-05
1.70752e-05
3.08192e-05
3.0822e-05
3.71003e-05
1.76507e-05
3.18374e-05
3.18407e-05
3.79759e-05
1.82642e-05
3.28443e-05
3.2848e-05
3.88264e-05
1.89131e-05
3.38365e-05
3.38401e-05
3.96367e-05
1.95944e-05
3.48104e-05
3.48142e-05
4.04387e-05
2.0305e-05
3.57637e-05
3.57676e-05
4.12007e-05
1.86868e-05
1.92174e-05
1.62409e-05
1.62416e-05
1.63997e-05
1.64005e-05
1.86861e-05
1.92174e-05
1.62414e-05
1.62419e-05
1.64001e-05
1.64007e-05
1.62412e-05
1.63995e-05
1.64002e-05
1.86864e-05
1.92191e-05
1.62418e-05
1.64006e-05
1.64009e-05
1.92387e-05
1.93864e-05
1.9991e-05
1.64639e-05
1.64647e-05
1.66882e-05
1.66891e-05
1.93856e-05
1.99906e-05
1.64642e-05
1.64649e-05
1.66884e-05
1.66892e-05
1.64643e-05
1.66877e-05
1.66889e-05
1.93861e-05
1.99912e-05
1.64649e-05
1.66889e-05
1.66895e-05
2.00152e-05
2.01793e-05
2.08456e-05
1.67738e-05
1.67746e-05
1.70614e-05
1.70621e-05
2.01779e-05
2.08451e-05
1.6774e-05
1.67748e-05
1.70614e-05
1.70625e-05
1.67745e-05
1.70607e-05
1.70624e-05
2.01793e-05
2.08477e-05
1.6775e-05
1.7062e-05
1.7063e-05
2.08748e-05
2.10535e-05
2.17727e-05
1.71678e-05
1.71683e-05
1.7516e-05
1.75165e-05
2.10517e-05
2.17718e-05
1.71677e-05
1.71688e-05
1.75158e-05
1.75171e-05
1.71687e-05
1.75149e-05
1.75172e-05
2.10529e-05
2.17735e-05
1.71691e-05
1.75164e-05
1.75177e-05
2.1803e-05
2.19954e-05
2.27552e-05
1.76422e-05
1.76425e-05
1.80481e-05
1.80484e-05
2.19939e-05
2.2755e-05
1.76418e-05
1.76431e-05
1.80476e-05
1.80491e-05
1.76433e-05
1.80466e-05
1.80495e-05
2.19953e-05
2.27545e-05
1.76436e-05
1.80482e-05
1.80497e-05
2.27878e-05
2.29912e-05
2.37792e-05
1.81929e-05
1.8193e-05
1.86533e-05
1.86534e-05
2.299e-05
2.37794e-05
1.81923e-05
1.81938e-05
1.86523e-05
1.86541e-05
1.81943e-05
1.86514e-05
1.86549e-05
2.29914e-05
2.37793e-05
1.81943e-05
1.86531e-05
1.86549e-05
2.38145e-05
2.40273e-05
2.48341e-05
1.88156e-05
1.88155e-05
1.93267e-05
1.93266e-05
2.40259e-05
2.48334e-05
1.88145e-05
1.88164e-05
1.93254e-05
1.93275e-05
1.88171e-05
1.93241e-05
1.93285e-05
2.40273e-05
2.48342e-05
1.88169e-05
1.93262e-05
1.93281e-05
2.48703e-05
2.50903e-05
2.59047e-05
1.95052e-05
1.9505e-05
2.00631e-05
2.00627e-05
2.50888e-05
2.59046e-05
1.95038e-05
1.95059e-05
2.00614e-05
2.00637e-05
1.95069e-05
2.00598e-05
2.00649e-05
2.50902e-05
2.59059e-05
1.95064e-05
2.00622e-05
2.00643e-05
2.59424e-05
2.61675e-05
2.69971e-05
2.02563e-05
2.0256e-05
2.08567e-05
2.08562e-05
2.61661e-05
2.69961e-05
2.02546e-05
2.02571e-05
2.08546e-05
2.08574e-05
2.02584e-05
2.0853e-05
2.08587e-05
2.61676e-05
2.69834e-05
2.02575e-05
2.08556e-05
2.08576e-05
2.70206e-05
2.72423e-05
2.80453e-05
2.10633e-05
2.1063e-05
2.17016e-05
2.17009e-05
2.72413e-05
2.80443e-05
2.10613e-05
2.10643e-05
2.16991e-05
2.17022e-05
2.10654e-05
2.16972e-05
2.17033e-05
2.72537e-05
2.8059e-05
2.1064e-05
2.17e-05
2.17018e-05
2.80844e-05
2.83189e-05
2.91003e-05
2.192e-05
2.19195e-05
2.25911e-05
2.25904e-05
2.83173e-05
2.90978e-05
2.19176e-05
2.19209e-05
2.25885e-05
2.25917e-05
2.1922e-05
2.25862e-05
2.25929e-05
2.83077e-05
2.91053e-05
2.19203e-05
2.25895e-05
2.2591e-05
2.91353e-05
2.93709e-05
3.015e-05
2.28195e-05
2.28191e-05
2.35187e-05
2.35178e-05
2.93692e-05
3.01448e-05
2.28171e-05
2.28205e-05
2.3516e-05
2.35195e-05
2.28218e-05
2.35136e-05
2.35209e-05
2.93591e-05
3.01374e-05
2.28197e-05
2.3517e-05
2.35187e-05
3.01841e-05
3.0401e-05
3.11709e-05
2.37557e-05
2.37552e-05
2.44783e-05
2.44774e-05
3.04127e-05
3.11763e-05
2.37531e-05
2.37568e-05
2.44752e-05
2.4479e-05
2.37585e-05
2.44733e-05
2.44807e-05
3.04082e-05
3.11734e-05
2.3756e-05
2.44764e-05
2.4478e-05
3.12019e-05
3.14363e-05
3.21845e-05
2.47223e-05
2.47217e-05
2.54636e-05
2.54628e-05
3.14233e-05
3.21872e-05
2.47194e-05
2.47231e-05
2.54605e-05
2.54642e-05
2.47253e-05
2.54589e-05
2.54665e-05
3.14216e-05
3.2181e-05
2.47223e-05
2.54617e-05
2.54633e-05
3.22148e-05
3.24382e-05
3.31821e-05
2.57131e-05
2.57126e-05
2.64686e-05
2.64677e-05
3.24341e-05
3.31667e-05
2.57101e-05
2.57137e-05
2.64651e-05
2.64689e-05
2.57164e-05
2.64639e-05
2.64716e-05
3.24323e-05
3.31668e-05
2.57129e-05
2.64666e-05
2.6468e-05
3.31929e-05
3.34108e-05
3.41413e-05
2.6722e-05
2.67213e-05
2.74868e-05
2.74859e-05
3.34119e-05
3.41416e-05
2.67186e-05
2.67223e-05
2.74831e-05
2.74869e-05
2.67254e-05
2.74825e-05
2.74901e-05
3.34085e-05
3.41321e-05
2.67215e-05
2.74848e-05
2.74862e-05
3.4166e-05
3.43742e-05
3.50731e-05
2.77427e-05
2.7742e-05
2.85128e-05
2.85117e-05
3.4384e-05
3.50912e-05
2.7739e-05
2.77427e-05
2.85089e-05
2.85127e-05
2.77463e-05
2.85086e-05
2.8516e-05
3.43796e-05
3.50835e-05
2.77422e-05
2.8511e-05
2.85119e-05
3.51086e-05
3.53209e-05
3.60015e-05
2.87698e-05
2.87687e-05
2.95411e-05
2.95398e-05
3.53124e-05
3.60136e-05
2.87659e-05
2.87696e-05
2.95368e-05
2.95408e-05
2.87732e-05
2.9537e-05
2.95443e-05
3.53134e-05
3.60106e-05
2.87689e-05
2.95395e-05
2.95399e-05
3.60225e-05
3.62287e-05
3.68998e-05
2.9798e-05
2.97968e-05
3.05677e-05
3.0566e-05
3.6227e-05
3.69061e-05
2.97937e-05
2.97976e-05
3.05631e-05
3.05671e-05
2.98014e-05
3.05636e-05
3.05709e-05
3.62241e-05
3.68962e-05
2.97969e-05
3.05663e-05
3.05665e-05
3.69195e-05
3.71178e-05
3.77756e-05
3.08236e-05
3.08219e-05
3.15882e-05
3.1586e-05
3.71184e-05
3.77672e-05
3.0819e-05
3.0823e-05
3.15834e-05
3.15876e-05
3.0827e-05
3.15838e-05
3.15913e-05
3.71159e-05
3.77613e-05
3.08223e-05
3.15871e-05
3.15869e-05
3.77898e-05
3.79815e-05
3.86173e-05
3.18419e-05
3.18396e-05
3.25984e-05
3.25956e-05
3.79816e-05
3.86152e-05
3.18371e-05
3.18414e-05
3.25936e-05
3.25979e-05
3.18451e-05
3.25938e-05
3.26016e-05
3.79948e-05
3.86233e-05
3.18405e-05
3.25977e-05
3.25972e-05
3.86438e-05
3.88291e-05
3.9454e-05
3.28489e-05
3.2846e-05
3.35944e-05
3.35914e-05
3.88238e-05
3.94562e-05
3.28441e-05
3.28483e-05
3.35897e-05
3.35938e-05
3.28522e-05
3.359e-05
3.35977e-05
3.88245e-05
3.94427e-05
3.28476e-05
3.35939e-05
3.35933e-05
3.94671e-05
3.96458e-05
4.02415e-05
3.38408e-05
3.38377e-05
3.4573e-05
3.45696e-05
3.96434e-05
4.02496e-05
3.38361e-05
3.38401e-05
3.45683e-05
3.45722e-05
3.38441e-05
3.45687e-05
3.45762e-05
3.96442e-05
4.02461e-05
3.38396e-05
3.45727e-05
3.45718e-05
4.02682e-05
4.04471e-05
4.10181e-05
3.48148e-05
3.48112e-05
3.55316e-05
3.55279e-05
4.04348e-05
4.1017e-05
3.481e-05
3.48138e-05
3.55268e-05
3.55308e-05
3.48177e-05
3.55273e-05
3.55344e-05
4.0445e-05
4.10272e-05
3.48132e-05
3.55316e-05
3.55301e-05
4.10427e-05
4.12184e-05
3.57679e-05
3.57642e-05
4.12082e-05
3.57631e-05
3.57669e-05
3.57707e-05
4.12088e-05
3.57662e-05
5.48449e-05
7.01006e-05
7.01261e-05
5.43658e-05
6.9561e-05
6.95428e-05
5.48467e-05
7.01016e-05
7.0127e-05
5.43658e-05
1.45936e-05
1.45938e-05
1.45935e-05
1.43802e-05
1.43803e-05
1.43805e-05
1.43802e-05
3.10569e-05
4.64255e-05
1.47088e-05
1.62881e-05
4.68102e-05
1.46747e-05
3.04936e-05
6.95612e-05
6.95431e-05
3.10583e-05
1.47095e-05
4.64264e-05
1.62893e-05
1.46755e-05
4.68114e-05
3.0501e-05
5.97062e-05
5.97163e-05
1.889e-05
5.99065e-05
5.99168e-05
5.59472e-05
7.01524e-05
5.55432e-05
7.0175e-05
6.94937e-05
6.94775e-05
5.5948e-05
7.01532e-05
5.55427e-05
7.01758e-05
1.4315e-05
1.43151e-05
1.43149e-05
1.4136e-05
1.41361e-05
1.41363e-05
1.41362e-05
3.27284e-05
4.7544e-05
1.46021e-05
1.65328e-05
3.21797e-05
4.78935e-05
1.45851e-05
6.94941e-05
6.94778e-05
3.27288e-05
1.4603e-05
4.75463e-05
1.6534e-05
3.21866e-05
1.45859e-05
4.78955e-05
6.02884e-05
6.02988e-05
1.96193e-05
6.04684e-05
6.04774e-05
5.68648e-05
7.01974e-05
5.65227e-05
7.02177e-05
6.94324e-05
6.9418e-05
5.68651e-05
7.01982e-05
5.65214e-05
7.02184e-05
1.40822e-05
1.40824e-05
1.40822e-05
1.39374e-05
1.39375e-05
1.39377e-05
1.39377e-05
3.43382e-05
4.85676e-05
1.45648e-05
1.68638e-05
3.38109e-05
4.88869e-05
1.45666e-05
6.94329e-05
6.94184e-05
3.43378e-05
1.45657e-05
4.8567e-05
1.68651e-05
3.38185e-05
1.45674e-05
4.8889e-05
6.0811e-05
6.0821e-05
2.04384e-05
6.09725e-05
6.09816e-05
5.76341e-05
7.02368e-05
5.73407e-05
7.02545e-05
6.9377e-05
6.93645e-05
5.76339e-05
7.02376e-05
5.73392e-05
7.02552e-05
1.38948e-05
1.3895e-05
1.3895e-05
1.3784e-05
1.3784e-05
1.37843e-05
1.37844e-05
3.58602e-05
4.95009e-05
1.45954e-05
1.72779e-05
3.53681e-05
4.97958e-05
1.4614e-05
6.93775e-05
6.9365e-05
3.58626e-05
1.45966e-05
4.95032e-05
1.72793e-05
3.53724e-05
1.46151e-05
4.97974e-05
6.12802e-05
6.129e-05
2.13344e-05
6.14263e-05
6.14361e-05
5.82869e-05
7.02711e-05
5.8032e-05
7.02867e-05
6.9327e-05
6.93165e-05
5.82863e-05
7.02721e-05
5.80306e-05
7.02874e-05
1.37525e-05
1.37528e-05
1.37529e-05
1.36756e-05
1.36756e-05
1.36759e-05
1.36761e-05
3.7289e-05
5.03583e-05
1.46953e-05
1.77713e-05
3.68295e-05
5.06289e-05
1.4731e-05
6.93275e-05
6.93168e-05
3.72921e-05
1.46967e-05
5.03619e-05
1.77729e-05
3.68332e-05
1.47323e-05
5.063e-05
6.17054e-05
6.17145e-05
2.22924e-05
6.18378e-05
6.18467e-05
5.88487e-05
7.03019e-05
5.86252e-05
7.03161e-05
6.92824e-05
6.92738e-05
5.88479e-05
7.03031e-05
5.86241e-05
7.03168e-05
1.36553e-05
1.36556e-05
1.36559e-05
1.36121e-05
1.36121e-05
1.36125e-05
1.36128e-05
3.86178e-05
5.11467e-05
1.48634e-05
1.83401e-05
3.81907e-05
5.13945e-05
1.49161e-05
6.92828e-05
6.92741e-05
3.86199e-05
1.4865e-05
5.11489e-05
1.83418e-05
3.81934e-05
1.49176e-05
5.1397e-05
6.20923e-05
6.2101e-05
2.33008e-05
6.22137e-05
6.22225e-05
5.93404e-05
7.03307e-05
5.91433e-05
7.03442e-05
6.92433e-05
6.92366e-05
5.93401e-05
7.0332e-05
5.91425e-05
7.03449e-05
1.3603e-05
1.36034e-05
1.36038e-05
1.35943e-05
1.35943e-05
1.35948e-05
1.35952e-05
3.98474e-05
5.18719e-05
1.5099e-05
1.89796e-05
3.9451e-05
5.21023e-05
1.51684e-05
6.92436e-05
6.92369e-05
3.98496e-05
1.5101e-05
5.18757e-05
1.89815e-05
3.94551e-05
1.51702e-05
5.21038e-05
6.24483e-05
6.24567e-05
2.43437e-05
6.25602e-05
6.25692e-05
5.97792e-05
7.03587e-05
5.96027e-05
7.03721e-05
6.92098e-05
6.92052e-05
5.97786e-05
7.03602e-05
5.96012e-05
7.03728e-05
1.35965e-05
1.3597e-05
1.35975e-05
1.36206e-05
1.36205e-05
1.3621e-05
1.36216e-05
4.09843e-05
5.25441e-05
1.54009e-05
1.96844e-05
4.06182e-05
5.27579e-05
1.54866e-05
6.92102e-05
6.92055e-05
4.09894e-05
1.54033e-05
5.25481e-05
1.96867e-05
4.06199e-05
1.54888e-05
5.27604e-05
6.27781e-05
6.27868e-05
2.54096e-05
6.28825e-05
6.28916e-05
6.0176e-05
7.03869e-05
6.00159e-05
7.0401e-05
6.91822e-05
6.91797e-05
6.01764e-05
7.03888e-05
6.0015e-05
7.04014e-05
1.36342e-05
1.36348e-05
1.36354e-05
1.36931e-05
1.36928e-05
1.36935e-05
1.36942e-05
4.20415e-05
5.31701e-05
1.57678e-05
2.04495e-05
4.16942e-05
5.33692e-05
1.58696e-05
6.91825e-05
6.91799e-05
4.20463e-05
1.57706e-05
5.31745e-05
2.04522e-05
4.16949e-05
1.58719e-05
5.33722e-05
6.30866e-05
6.30955e-05
2.64774e-05
6.31849e-05
6.31943e-05
6.05405e-05
7.04164e-05
6.03932e-05
7.04318e-05
6.91604e-05
6.91601e-05
6.05406e-05
7.04188e-05
6.03923e-05
7.04317e-05
1.3718e-05
1.37187e-05
1.37195e-05
1.38113e-05
1.3811e-05
1.38118e-05
1.38126e-05
4.30227e-05
5.37558e-05
1.61979e-05
2.12692e-05
4.26915e-05
5.39424e-05
1.63152e-05
6.91607e-05
6.91602e-05
4.30275e-05
1.62008e-05
5.37599e-05
2.12719e-05
4.26921e-05
1.63176e-05
5.39462e-05
6.33774e-05
6.33867e-05
2.75528e-05
6.3471e-05
6.34802e-05
6.08774e-05
7.04484e-05
6.07412e-05
7.04651e-05
6.91447e-05
6.91466e-05
6.08779e-05
7.04509e-05
6.07394e-05
7.04649e-05
1.38477e-05
1.38486e-05
1.38494e-05
1.39757e-05
1.39753e-05
1.39763e-05
1.39771e-05
4.39374e-05
5.4308e-05
1.6689e-05
2.21365e-05
4.36199e-05
5.44831e-05
1.68212e-05
6.91448e-05
6.91466e-05
4.3942e-05
1.6692e-05
5.43113e-05
2.21396e-05
4.36205e-05
1.68237e-05
5.44868e-05
6.36543e-05
6.36636e-05
2.86049e-05
6.37432e-05
6.37528e-05
6.11934e-05
7.04835e-05
6.10652e-05
7.05013e-05
6.91351e-05
6.91391e-05
6.11936e-05
7.0486e-05
6.10632e-05
7.05012e-05
1.40235e-05
1.40245e-05
1.40254e-05
1.41863e-05
1.41858e-05
1.41869e-05
1.41878e-05
4.47945e-05
5.48293e-05
1.72383e-05
2.30454e-05
4.44885e-05
5.49978e-05
1.73847e-05
6.9135e-05
6.91389e-05
4.47991e-05
1.72419e-05
5.48317e-05
2.30489e-05
4.44892e-05
1.73877e-05
5.49997e-05
6.39188e-05
6.39284e-05
2.96568e-05
6.40045e-05
6.4014e-05
6.14918e-05
7.05218e-05
6.13707e-05
7.0541e-05
6.91314e-05
6.91375e-05
6.14921e-05
7.05245e-05
6.13687e-05
7.05411e-05
1.42456e-05
1.42468e-05
1.42478e-05
1.44431e-05
1.44426e-05
1.44439e-05
1.44449e-05
4.56025e-05
5.53259e-05
1.78435e-05
2.39897e-05
4.53062e-05
5.54854e-05
1.80033e-05
6.91313e-05
6.91373e-05
4.56069e-05
1.78473e-05
5.5326e-05
2.39931e-05
4.53069e-05
1.80064e-05
5.54894e-05
6.41736e-05
6.41831e-05
3.06902e-05
6.42563e-05
6.4266e-05
6.17777e-05
7.05638e-05
6.1661e-05
7.05847e-05
6.91336e-05
6.91418e-05
6.1778e-05
7.05667e-05
6.16593e-05
7.05849e-05
1.4514e-05
1.45153e-05
1.45164e-05
1.47462e-05
1.47457e-05
1.47471e-05
1.47482e-05
4.63685e-05
5.57991e-05
1.85011e-05
2.49632e-05
4.60803e-05
5.59523e-05
1.86736e-05
6.91335e-05
6.91416e-05
4.63723e-05
1.85049e-05
5.57963e-05
2.49663e-05
4.60809e-05
1.86766e-05
5.59579e-05
6.44199e-05
6.44284e-05
3.17076e-05
6.45002e-05
6.45104e-05
6.20535e-05
7.061e-05
6.19409e-05
7.06325e-05
6.91415e-05
6.91517e-05
6.20539e-05
7.06129e-05
6.19389e-05
7.06327e-05
1.48287e-05
1.483e-05
1.48313e-05
1.50953e-05
1.50949e-05
1.50963e-05
1.50975e-05
4.70977e-05
5.62496e-05
1.92079e-05
2.59593e-05
4.68168e-05
5.63997e-05
1.93921e-05
6.91414e-05
6.91516e-05
4.71014e-05
1.92115e-05
5.62466e-05
2.59621e-05
4.68177e-05
1.9395e-05
5.64051e-05
6.46587e-05
6.46667e-05
3.27126e-05
6.47373e-05
6.47476e-05
6.23222e-05
7.06604e-05
6.22126e-05
7.06846e-05
6.91549e-05
6.91671e-05
6.23227e-05
7.0663e-05
6.22102e-05
7.06851e-05
1.51893e-05
1.51906e-05
1.5192e-05
1.549e-05
1.54896e-05
1.5491e-05
1.54924e-05
4.77954e-05
5.6681e-05
1.996e-05
2.69719e-05
4.7521e-05
5.68284e-05
2.01551e-05
6.9155e-05
6.91671e-05
4.77988e-05
1.99636e-05
5.66788e-05
2.69745e-05
4.75223e-05
2.01579e-05
5.68336e-05
6.48907e-05
6.48985e-05
3.36805e-05
6.49683e-05
6.49782e-05
6.25869e-05
7.07149e-05
6.24777e-05
7.07407e-05
6.91736e-05
6.91878e-05
6.25867e-05
7.07161e-05
6.24754e-05
7.07419e-05
1.55952e-05
1.55966e-05
1.55982e-05
1.59293e-05
1.5929e-05
1.59304e-05
1.5932e-05
4.84658e-05
5.70957e-05
2.07537e-05
2.79948e-05
4.81976e-05
5.724e-05
2.09586e-05
6.91738e-05
6.91878e-05
4.8469e-05
2.07573e-05
5.7094e-05
2.79972e-05
4.81992e-05
2.09614e-05
5.72457e-05
6.51168e-05
6.51244e-05
3.4637e-05
6.51933e-05
6.52029e-05
6.28469e-05
7.07735e-05
6.27392e-05
7.08009e-05
6.91974e-05
6.92134e-05
6.28471e-05
7.07746e-05
6.27369e-05
7.08021e-05
1.60457e-05
1.60471e-05
1.60488e-05
1.64123e-05
1.64121e-05
1.64135e-05
1.64152e-05
4.91116e-05
5.74946e-05
2.15849e-05
2.90228e-05
4.88501e-05
5.76359e-05
2.17987e-05
6.91977e-05
6.92135e-05
4.91142e-05
2.15887e-05
5.7493e-05
2.90253e-05
4.88518e-05
2.18014e-05
5.76413e-05
6.53374e-05
6.53448e-05
3.55668e-05
6.54127e-05
6.54219e-05
6.31039e-05
7.0836e-05
6.29987e-05
7.0865e-05
6.9226e-05
6.92437e-05
6.31048e-05
7.08371e-05
6.2996e-05
7.08662e-05
1.65395e-05
1.65409e-05
1.65427e-05
1.69375e-05
1.69373e-05
1.69389e-05
1.69407e-05
4.97345e-05
5.78789e-05
2.24493e-05
3.00508e-05
4.94805e-05
5.80173e-05
2.26706e-05
6.92264e-05
6.92438e-05
4.9737e-05
2.2453e-05
5.78769e-05
3.00532e-05
4.94828e-05
2.26734e-05
5.80232e-05
6.55526e-05
6.55599e-05
3.64814e-05
6.56264e-05
6.56357e-05
6.33597e-05
7.09024e-05
6.32545e-05
7.09329e-05
6.92591e-05
6.92783e-05
6.33607e-05
7.09035e-05
6.32529e-05
7.09341e-05
1.7075e-05
1.70767e-05
1.70785e-05
1.75032e-05
1.7503e-05
1.75049e-05
1.75067e-05
5.03368e-05
5.82497e-05
2.33422e-05
3.10747e-05
5.0091e-05
5.83851e-05
2.357e-05
6.92595e-05
6.92784e-05
5.03395e-05
2.33461e-05
5.82483e-05
3.10777e-05
5.00934e-05
2.3573e-05
5.83911e-05
6.57626e-05
6.57701e-05
3.73633e-05
6.5835e-05
6.58444e-05
6.36135e-05
7.09724e-05
6.35087e-05
7.10043e-05
6.92961e-05
6.93167e-05
6.36146e-05
7.09735e-05
6.35078e-05
7.10054e-05
1.76505e-05
1.76525e-05
1.76543e-05
1.81074e-05
1.81071e-05
1.81094e-05
1.81113e-05
5.09195e-05
5.86078e-05
2.42594e-05
3.20904e-05
5.06818e-05
5.87401e-05
2.44928e-05
6.92968e-05
6.93171e-05
5.09221e-05
2.42637e-05
5.86064e-05
3.2094e-05
5.06838e-05
2.44962e-05
5.87459e-05
6.59678e-05
6.59755e-05
3.82174e-05
6.60388e-05
6.6048e-05
6.3865e-05
7.10468e-05
6.37613e-05
7.10775e-05
6.9337e-05
6.93588e-05
6.38664e-05
7.10467e-05
6.37594e-05
7.10799e-05
1.82639e-05
1.82663e-05
1.82681e-05
1.87477e-05
1.87473e-05
1.87499e-05
1.87518e-05
5.14831e-05
5.89536e-05
2.5198e-05
3.30938e-05
5.12527e-05
5.90825e-05
2.54361e-05
6.93379e-05
6.93596e-05
5.14853e-05
2.52026e-05
5.89525e-05
3.30977e-05
5.12553e-05
2.54399e-05
5.90881e-05
6.61684e-05
6.6176e-05
3.90556e-05
6.62379e-05
6.62468e-05
6.41135e-05
7.11229e-05
6.40106e-05
7.11545e-05
6.93813e-05
6.94045e-05
6.41147e-05
7.11229e-05
6.40094e-05
7.11572e-05
1.89127e-05
1.89153e-05
1.89173e-05
1.94212e-05
1.94207e-05
1.94236e-05
1.94256e-05
5.20276e-05
5.92874e-05
2.61543e-05
3.40817e-05
5.18043e-05
5.94132e-05
2.63962e-05
6.93825e-05
6.94055e-05
5.2029e-05
2.61592e-05
5.92862e-05
3.40856e-05
5.18073e-05
2.64002e-05
5.94182e-05
6.63642e-05
6.63718e-05
3.98751e-05
6.6432e-05
6.6441e-05
6.43572e-05
7.12014e-05
6.42576e-05
7.1234e-05
6.9429e-05
6.94535e-05
6.43592e-05
7.12029e-05
6.42556e-05
7.12357e-05
1.95939e-05
1.95969e-05
1.95988e-05
2.01248e-05
2.01243e-05
2.01275e-05
2.01293e-05
5.25501e-05
5.96095e-05
2.71237e-05
3.50507e-05
5.23376e-05
5.97318e-05
2.73679e-05
6.94304e-05
6.94547e-05
5.25534e-05
2.71288e-05
5.96085e-05
3.50548e-05
5.23392e-05
2.73723e-05
5.97365e-05
6.65554e-05
6.65627e-05
4.06551e-05
6.66211e-05
6.66303e-05
6.45975e-05
7.12821e-05
6.44991e-05
7.13163e-05
6.94798e-05
6.95055e-05
6.45979e-05
7.12839e-05
6.4498e-05
7.13173e-05
2.03045e-05
2.03077e-05
2.03095e-05
5.30536e-05
5.99201e-05
2.81011e-05
3.59984e-05
5.28502e-05
6.00391e-05
2.83464e-05
6.94814e-05
6.95068e-05
5.30559e-05
2.81062e-05
5.99193e-05
3.60026e-05
5.2852e-05
2.83509e-05
6.00435e-05
6.67418e-05
6.6749e-05
4.14188e-05
6.68053e-05
6.68146e-05
6.95596e-05
6.95415e-05
6.95618e-05
6.95436e-05
5.97095e-05
5.97215e-05
1.88687e-05
5.99109e-05
5.99219e-05
6.95081e-05
6.95253e-05
6.95102e-05
6.95275e-05
1.90258e-05
6.01994e-05
6.02099e-05
6.00094e-05
6.00208e-05
5.48444e-05
7.0097e-05
7.01224e-05
5.43653e-05
3.10568e-05
4.64256e-05
1.47089e-05
1.62882e-05
4.6812e-05
1.46748e-05
3.04992e-05
3.10556e-05
4.64286e-05
1.47091e-05
1.6289e-05
4.68135e-05
1.4675e-05
3.04993e-05
5.49815e-05
7.01515e-05
7.01275e-05
5.54216e-05
5.49808e-05
7.01477e-05
7.01238e-05
5.54208e-05
3.13461e-05
1.63414e-05
4.73645e-05
1.46214e-05
4.69971e-05
1.4647e-05
3.18989e-05
3.13471e-05
1.63421e-05
4.73666e-05
1.46216e-05
4.70005e-05
1.46471e-05
3.18971e-05
5.97144e-05
5.97103e-05
1.88685e-05
5.99155e-05
5.99094e-05
6.95597e-05
6.95416e-05
6.95094e-05
6.95266e-05
1.90247e-05
6.02042e-05
6.01985e-05
6.00138e-05
6.00098e-05
6.95082e-05
6.95253e-05
3.10598e-05
4.6434e-05
1.47094e-05
1.62886e-05
4.6811e-05
1.46754e-05
3.04976e-05
5.48457e-05
7.00971e-05
7.01226e-05
5.43649e-05
3.10599e-05
1.4709e-05
4.64337e-05
1.62892e-05
1.46749e-05
4.68099e-05
3.04974e-05
5.49812e-05
7.01523e-05
7.01284e-05
5.54229e-05
3.13455e-05
1.63418e-05
4.73655e-05
1.4622e-05
4.70057e-05
1.46475e-05
3.19032e-05
5.49805e-05
7.01479e-05
7.0124e-05
5.54219e-05
3.13448e-05
1.63424e-05
1.46215e-05
4.73639e-05
1.46471e-05
4.7004e-05
3.1901e-05
5.48356e-05
7.00994e-05
7.0125e-05
5.43696e-05
3.10595e-05
1.4709e-05
4.64254e-05
1.62887e-05
1.46749e-05
4.6811e-05
3.04947e-05
5.48405e-05
7.00958e-05
7.01215e-05
5.43668e-05
3.1342e-05
1.63412e-05
4.73632e-05
1.46213e-05
4.69963e-05
1.46469e-05
3.18994e-05
5.49845e-05
7.01501e-05
7.01262e-05
5.54123e-05
3.1342e-05
1.63417e-05
1.46215e-05
4.73653e-05
1.46471e-05
4.69966e-05
3.19016e-05
5.49821e-05
7.01468e-05
7.01227e-05
5.54169e-05
5.97157e-05
5.97101e-05
1.88704e-05
5.99161e-05
5.99108e-05
6.95599e-05
6.95417e-05
6.95097e-05
6.95269e-05
1.90253e-05
6.02042e-05
6.01993e-05
6.00151e-05
6.00101e-05
6.95083e-05
6.95255e-05
3.10566e-05
1.47097e-05
4.64335e-05
1.62894e-05
1.46757e-05
4.68111e-05
3.05006e-05
5.48389e-05
7.01001e-05
7.01256e-05
5.43719e-05
5.4838e-05
7.00975e-05
7.0123e-05
5.43713e-05
3.13488e-05
1.63421e-05
1.46221e-05
4.73648e-05
1.46476e-05
4.69988e-05
3.18989e-05
3.13484e-05
1.63424e-05
1.46223e-05
4.73655e-05
1.46478e-05
4.70046e-05
3.18987e-05
5.49867e-05
7.01509e-05
7.0127e-05
5.5415e-05
5.49861e-05
7.01483e-05
7.01244e-05
5.54142e-05
6.9559e-05
6.95408e-05
6.95614e-05
6.95433e-05
1.90138e-05
6.01955e-05
6.02047e-05
6.0006e-05
6.0016e-05
6.95075e-05
6.95246e-05
6.95099e-05
6.95271e-05
6.94924e-05
6.94761e-05
6.94945e-05
6.94782e-05
6.02924e-05
6.03035e-05
1.95933e-05
6.04725e-05
6.04823e-05
6.94457e-05
6.9461e-05
6.94476e-05
6.9463e-05
1.97731e-05
6.0731e-05
6.07406e-05
6.05609e-05
6.05711e-05
5.59464e-05
7.01489e-05
5.55423e-05
7.01716e-05
3.27287e-05
4.75454e-05
1.46023e-05
1.65331e-05
3.2184e-05
4.78952e-05
1.45853e-05
3.27277e-05
4.75486e-05
1.46025e-05
1.6534e-05
3.2185e-05
4.7898e-05
1.45854e-05
5.60551e-05
7.01972e-05
7.01759e-05
5.64269e-05
5.60543e-05
7.01935e-05
7.01724e-05
5.6426e-05
3.30092e-05
1.66082e-05
4.84038e-05
1.45665e-05
4.80685e-05
1.45749e-05
3.35406e-05
3.30088e-05
1.6609e-05
4.84053e-05
1.45666e-05
4.80706e-05
1.45751e-05
3.35413e-05
6.02972e-05
6.02928e-05
1.95929e-05
6.04771e-05
6.04712e-05
6.94924e-05
6.94762e-05
6.9447e-05
6.94623e-05
1.97716e-05
6.07351e-05
6.07294e-05
6.05656e-05
6.05604e-05
6.94458e-05
6.94609e-05
3.27327e-05
4.75515e-05
1.46029e-05
1.65335e-05
3.21828e-05
4.78963e-05
1.45859e-05
5.59472e-05
7.0149e-05
5.55417e-05
7.01717e-05
3.27322e-05
1.46024e-05
4.75503e-05
1.65342e-05
3.21834e-05
1.45854e-05
4.78954e-05
5.60544e-05
7.01979e-05
7.01767e-05
5.64274e-05
3.30071e-05
1.66084e-05
4.84054e-05
1.45672e-05
4.80743e-05
1.45756e-05
3.35457e-05
5.60535e-05
7.01937e-05
7.01725e-05
5.64264e-05
3.30063e-05
1.66092e-05
1.45666e-05
4.84028e-05
1.45751e-05
4.80728e-05
3.35458e-05
5.5938e-05
7.01512e-05
5.55454e-05
7.01739e-05
3.27303e-05
1.46025e-05
4.75435e-05
1.65338e-05
3.21801e-05
1.45854e-05
4.78952e-05
5.59425e-05
7.01479e-05
5.55433e-05
7.01707e-05
3.30047e-05
1.66077e-05
4.84009e-05
1.45663e-05
4.80679e-05
1.45748e-05
3.35436e-05
5.60568e-05
7.01957e-05
7.01746e-05
5.64174e-05
3.30054e-05
1.66087e-05
1.45667e-05
4.84019e-05
1.45752e-05
4.80666e-05
3.35442e-05
5.6055e-05
7.01927e-05
7.01714e-05
5.64221e-05
6.02985e-05
6.02932e-05
1.95941e-05
6.04777e-05
6.04719e-05
6.94926e-05
6.94763e-05
6.94474e-05
6.94628e-05
1.97726e-05
6.07361e-05
6.07306e-05
6.05668e-05
6.05617e-05
6.94459e-05
6.94612e-05
3.27287e-05
1.46032e-05
4.75507e-05
1.65345e-05
3.2186e-05
1.45862e-05
4.78958e-05
5.59404e-05
7.0152e-05
5.55474e-05
7.01747e-05
5.59396e-05
7.01494e-05
5.55467e-05
7.01721e-05
3.30114e-05
1.66087e-05
1.45671e-05
4.84046e-05
1.45756e-05
4.80691e-05
3.35422e-05
3.301e-05
1.66093e-05
1.45675e-05
4.84032e-05
1.4576e-05
4.80734e-05
3.35425e-05
5.60586e-05
7.01966e-05
7.01755e-05
5.64197e-05
5.60578e-05
7.01942e-05
7.0173e-05
5.64189e-05
6.94918e-05
6.94755e-05
6.94943e-05
6.94779e-05
1.97597e-05
6.0727e-05
6.07366e-05
6.05577e-05
6.05666e-05
6.94451e-05
6.94604e-05
6.94475e-05
6.94628e-05
6.94311e-05
6.94166e-05
6.9433e-05
6.94186e-05
6.08144e-05
6.08242e-05
2.04083e-05
6.09761e-05
6.09858e-05
6.93892e-05
6.94026e-05
6.93911e-05
6.94045e-05
2.06079e-05
6.12087e-05
6.12178e-05
6.10555e-05
6.10651e-05
5.68639e-05
7.01941e-05
5.65214e-05
7.02143e-05
3.43379e-05
4.85673e-05
1.4565e-05
1.68644e-05
3.38174e-05
4.88885e-05
1.45667e-05
3.43363e-05
4.85701e-05
1.45651e-05
1.68653e-05
3.38169e-05
4.88909e-05
1.45668e-05
5.69494e-05
7.02366e-05
7.0218e-05
5.72659e-05
5.69482e-05
7.02331e-05
7.02146e-05
5.72649e-05
3.46047e-05
1.69606e-05
4.93525e-05
1.45813e-05
4.90459e-05
1.45716e-05
3.51121e-05
3.46044e-05
1.69612e-05
4.93557e-05
1.45814e-05
4.90479e-05
1.45716e-05
3.51106e-05
6.08193e-05
6.08135e-05
2.04075e-05
6.09803e-05
6.09737e-05
6.9431e-05
6.94168e-05
6.93906e-05
6.9404e-05
2.06061e-05
6.12132e-05
6.12053e-05
6.106e-05
6.10546e-05
6.93892e-05
6.94024e-05
3.4341e-05
4.85722e-05
1.45657e-05
1.68645e-05
3.38151e-05
4.88887e-05
1.45674e-05
5.68641e-05
7.01941e-05
5.65203e-05
7.02144e-05
3.43387e-05
1.45651e-05
4.85718e-05
1.68655e-05
3.3814e-05
1.45668e-05
4.88889e-05
5.69481e-05
7.02373e-05
7.02188e-05
5.7266e-05
3.46029e-05
1.69606e-05
4.93538e-05
1.45821e-05
4.90509e-05
1.45723e-05
3.51137e-05
5.6947e-05
7.02333e-05
7.02146e-05
5.72648e-05
3.46032e-05
1.69616e-05
1.45814e-05
4.93521e-05
1.45717e-05
4.90499e-05
3.51125e-05
5.68554e-05
7.01962e-05
5.65236e-05
7.02164e-05
3.43392e-05
1.45652e-05
4.85671e-05
1.68653e-05
3.3813e-05
1.4567e-05
4.88879e-05
5.68603e-05
7.01932e-05
5.65219e-05
7.02134e-05
3.45997e-05
1.69598e-05
4.93521e-05
1.45812e-05
4.90454e-05
1.45712e-05
3.51092e-05
5.695e-05
7.02349e-05
7.02165e-05
5.72566e-05
3.46011e-05
1.69613e-05
1.45816e-05
4.9351e-05
1.45718e-05
4.90451e-05
3.51127e-05
5.69487e-05
7.02317e-05
7.02137e-05
5.72616e-05
6.08202e-05
6.08159e-05
2.041e-05
6.09812e-05
6.09765e-05
6.94314e-05
6.9417e-05
6.9391e-05
6.94044e-05
2.06076e-05
6.12134e-05
6.12091e-05
6.1061e-05
6.10566e-05
6.93896e-05
6.9403e-05
3.43371e-05
1.45661e-05
4.85732e-05
1.6866e-05
3.38174e-05
1.45678e-05
4.88897e-05
5.68577e-05
7.01972e-05
5.6525e-05
7.02174e-05
5.68568e-05
7.01947e-05
5.65242e-05
7.02149e-05
3.46061e-05
1.69608e-05
1.45822e-05
4.93539e-05
1.45724e-05
4.90462e-05
3.51104e-05
3.46052e-05
1.69618e-05
1.45826e-05
4.93528e-05
1.45727e-05
4.90509e-05
3.51104e-05
5.69512e-05
7.02362e-05
7.02176e-05
5.72588e-05
5.69503e-05
7.02338e-05
7.02152e-05
5.72579e-05
6.94305e-05
6.94161e-05
6.9433e-05
6.94186e-05
2.05927e-05
6.12054e-05
6.12139e-05
6.10518e-05
6.10616e-05
6.93887e-05
6.94021e-05
6.93911e-05
6.94046e-05
6.93757e-05
6.93632e-05
6.93775e-05
6.9365e-05
6.12843e-05
6.12932e-05
2.13008e-05
6.14302e-05
6.1439e-05
6.93385e-05
6.935e-05
6.93402e-05
6.93517e-05
2.15177e-05
6.16408e-05
6.16488e-05
6.15021e-05
6.15107e-05
5.7633e-05
7.02343e-05
5.73393e-05
7.0251e-05
3.58623e-05
4.95038e-05
1.45958e-05
1.72788e-05
3.53714e-05
4.97968e-05
1.46141e-05
3.58612e-05
4.95048e-05
1.45959e-05
1.72794e-05
3.53708e-05
4.97999e-05
1.46142e-05
5.77001e-05
7.02709e-05
7.02546e-05
5.79733e-05
5.76988e-05
7.02675e-05
7.02512e-05
5.79721e-05
3.61145e-05
1.73952e-05
5.0222e-05
1.46642e-05
4.99422e-05
1.46373e-05
3.65895e-05
3.61137e-05
1.73956e-05
5.02253e-05
1.46642e-05
4.99431e-05
1.46373e-05
3.65883e-05
6.12885e-05
6.12822e-05
2.13003e-05
6.14345e-05
6.14261e-05
6.93752e-05
6.93629e-05
6.93398e-05
6.93513e-05
2.15157e-05
6.1645e-05
6.16361e-05
6.15061e-05
6.14991e-05
6.9338e-05
6.93493e-05
3.5864e-05
4.95081e-05
1.45966e-05
1.72787e-05
3.53694e-05
4.97987e-05
1.4615e-05
5.76328e-05
7.02337e-05
5.7338e-05
7.02509e-05
3.58633e-05
1.45959e-05
4.95077e-05
1.72799e-05
3.53692e-05
1.46143e-05
4.97964e-05
5.76987e-05
7.02716e-05
7.02554e-05
5.7973e-05
3.61127e-05
1.7395e-05
5.02241e-05
1.4665e-05
4.99462e-05
1.46381e-05
3.65916e-05
5.76975e-05
7.02673e-05
7.02516e-05
5.79717e-05
3.61115e-05
1.73962e-05
1.46643e-05
5.02221e-05
1.46374e-05
4.99457e-05
3.65891e-05
5.76251e-05
7.02354e-05
5.73407e-05
7.02528e-05
3.58624e-05
1.45962e-05
4.95038e-05
1.728e-05
3.53678e-05
1.46145e-05
4.97959e-05
5.763e-05
7.02323e-05
5.73396e-05
7.02504e-05
3.61109e-05
1.7394e-05
5.02212e-05
1.46639e-05
4.99396e-05
1.46368e-05
3.65864e-05
5.76997e-05
7.02689e-05
7.02529e-05
5.79646e-05
3.61117e-05
1.73962e-05
1.46646e-05
5.02217e-05
1.46377e-05
4.99416e-05
3.65897e-05
5.76989e-05
7.02666e-05
7.02504e-05
5.79694e-05
6.12896e-05
6.12854e-05
2.13017e-05
6.14352e-05
6.14301e-05
6.9376e-05
6.93635e-05
6.93402e-05
6.93518e-05
2.15173e-05
6.16453e-05
6.16403e-05
6.15072e-05
6.15029e-05
6.93387e-05
6.93503e-05
3.58618e-05
1.45971e-05
4.95083e-05
1.72805e-05
3.53717e-05
1.46155e-05
4.97973e-05
5.76273e-05
7.02367e-05
5.73417e-05
7.02542e-05
5.76263e-05
7.02342e-05
5.73408e-05
7.02517e-05
3.61149e-05
1.73952e-05
1.46652e-05
5.02222e-05
1.46381e-05
4.99421e-05
3.65887e-05
3.61141e-05
1.73965e-05
1.46656e-05
5.02236e-05
1.46387e-05
4.99459e-05
3.65888e-05
5.77007e-05
7.02704e-05
7.02544e-05
5.79668e-05
5.76998e-05
7.0268e-05
7.02521e-05
5.79659e-05
6.93751e-05
6.93626e-05
6.93776e-05
6.93651e-05
2.15002e-05
6.16371e-05
6.1646e-05
6.14978e-05
6.15074e-05
6.93379e-05
6.93494e-05
6.93403e-05
6.93519e-05
6.93257e-05
6.93151e-05
6.93274e-05
6.93168e-05
6.17089e-05
6.17178e-05
2.2257e-05
6.18418e-05
6.18498e-05
6.92931e-05
6.93027e-05
6.92948e-05
6.93044e-05
2.24881e-05
6.2034e-05
6.20416e-05
6.19071e-05
6.19157e-05
5.82855e-05
7.02681e-05