/*--------------------------------*- C++ -*----------------------------------*\
| =========                 |                                                 |
| \\      /  F ield         | OpenFOAM: The Open Source CFD Toolbox           |
|  \\    /   O peration     | Version:  2312                                  |
|   \\  /    A nd           | Website:  www.openfoam.com                      |
|    \\/     M anipulation  |                                                 |
\*---------------------------------------------------------------------------*/
FoamFile
{
    version     2.0;
    format      ascii;
    arch        "LSB;label=32;scalar=64";
    class       surfaceScalarField;
    location    "900";
    object      phi;
}
// * * * * * * * * * * * * * * * * * * * * * * * * * * * * * * * * * * * * * //

dimensions      [0 3 -1 0 0 0 0];

oriented        oriented;

internalField   nonuniform List<scalar> 
123680
(
-8.18223e-07
-8.19623e-07
4.33571e-07
4.33797e-07
0.00115006
-0.00114929
-1.50286e-06
8.19056e-07
3.99618e-07
0.00113925
-4.98994e-07
1.12932e-06
1.47058e-07
7.47259e-07
-5.44735e-07
8.46356e-08
-1.22938e-06
-0.0011388
-1.5002e-06
8.19208e-07
4.05378e-07
0.00113912
-4.96197e-07
1.12655e-06
1.44065e-07
7.47245e-07
-5.44865e-07
8.47843e-08
-1.22949e-06
-0.00113867
1.53175e-06
1.49472e-06
-4.76268e-07
-4.793e-07
0.000274438
-0.000276509
-7.98749e-07
-7.99745e-07
-0.00115233
4.25781e-07
4.2625e-07
0.00115308
-0.0011405
-1.49433e-06
7.99311e-07
3.90283e-07
0.0011409
-4.87363e-07
1.13504e-06
1.53555e-07
7.54568e-07
-5.3003e-07
-1.21364e-06
9.28002e-08
-0.00114037
-1.49155e-06
7.99391e-07
3.95976e-07
0.00114077
-4.84603e-07
1.13228e-06
1.50656e-07
7.54576e-07
-5.3014e-07
-1.21375e-06
9.29632e-08
-0.000276524
1.52317e-06
1.48619e-06
-4.63603e-07
-4.66538e-07
0.000274444
-7.79099e-07
-7.79723e-07
-0.00115528
4.18214e-07
4.18818e-07
0.00115601
-0.00114201
-1.4848e-06
7.79593e-07
3.805e-07
0.00114236
-4.75871e-07
1.14047e-06
1.59927e-07
7.61841e-07
-5.15421e-07
-1.1976e-06
1.00925e-07
-0.00114188
-1.48208e-06
7.79535e-07
3.86064e-07
0.00114222
-4.73001e-07
1.13768e-06
1.57129e-07
7.61842e-07
-5.15466e-07
-1.19768e-06
1.0108e-07
-0.000276478
1.51367e-06
1.4767e-06
-4.50569e-07
-4.53422e-07
0.000274392
-7.58416e-07
-7.58821e-07
-0.00115813
4.10031e-07
4.10721e-07
0.00115883
-0.00114331
-1.47462e-06
7.58673e-07
3.71307e-07
0.00114361
-4.64241e-07
1.14567e-06
1.66131e-07
7.69115e-07
-5.01067e-07
-1.1814e-06
1.09047e-07
-0.00114318
-1.47186e-06
7.58698e-07
3.7686e-07
0.00114348
-4.61345e-07
1.14296e-06
1.6336e-07
7.69104e-07
-5.01125e-07
-1.18149e-06
1.09104e-07
-0.000276378
1.50343e-06
1.46646e-06
-4.37437e-07
-4.4029e-07
0.000274286
-7.37084e-07
-7.37464e-07
-0.00116088
4.01737e-07
4.0241e-07
0.00116155
-0.00114442
-1.46369e-06
7.37361e-07
3.61752e-07
0.00114468
-4.5285e-07
1.15085e-06
1.72032e-07
7.76331e-07
-4.86848e-07
-1.16513e-06
1.17063e-07
-0.00114429
-1.46087e-06
7.37363e-07
3.67307e-07
0.00114454
-4.49932e-07
1.14818e-06
1.69328e-07
7.76322e-07
-4.86986e-07
-1.16522e-06
1.17123e-07
-0.000276232
1.49258e-06
1.45555e-06
-4.24304e-07
-4.27199e-07
0.000274135
-7.15011e-07
-7.15293e-07
-0.00116352
3.93063e-07
3.93715e-07
0.00116417
-0.00114534
-1.45217e-06
7.15161e-07
3.52114e-07
0.00114555
-4.41646e-07
1.15612e-06
1.77883e-07
7.83453e-07
-4.72967e-07
-1.14903e-06
1.24906e-07
-0.00114521
-1.44936e-06
7.1532e-07
3.57473e-07
0.00114541
-4.38682e-07
1.15344e-06
1.75153e-07
7.83452e-07
-4.73077e-07
-1.1491e-06
1.24997e-07
-0.000276046
1.48108e-06
1.44403e-06
-4.11265e-07
-4.14145e-07
0.000273947
-6.92298e-07
-6.92658e-07
-0.00116606
3.84257e-07
3.84859e-07
0.00116667
-0.00114608
-1.44013e-06
6.92392e-07
3.41455e-07
0.00114624
-4.30666e-07
1.16151e-06
1.83759e-07
7.90549e-07
-4.59386e-07
-1.13322e-06
1.32626e-07
-0.00114595
-1.43734e-06
6.92587e-07
3.46956e-07
0.0011461
-4.27778e-07
1.15884e-06
1.80992e-07
7.90461e-07
-4.59515e-07
-1.13328e-06
1.32709e-07
-0.00027583
1.46906e-06
1.43198e-06
-3.98358e-07
-4.01252e-07
0.000273729
-6.68947e-07
-6.69345e-07
-0.00116848
3.75245e-07
3.75751e-07
0.00116906
-0.00114663
-1.42792e-06
6.6906e-07
3.30065e-07
0.00114675
-4.19823e-07
1.16683e-06
1.89499e-07
7.97342e-07
-4.46183e-07
-1.11767e-06
1.40263e-07
-0.0011465
-1.42506e-06
6.69258e-07
3.35588e-07
0.00114662
-4.16956e-07
1.16417e-06
1.86766e-07
7.9732e-07
-4.46261e-07
-1.11777e-06
1.40356e-07
-0.000275591
1.4568e-06
1.41972e-06
-3.8579e-07
-3.887e-07
0.000273489
-6.44936e-07
-6.455e-07
-0.00117078
3.66012e-07
3.66415e-07
0.00117134
-0.00114702
-1.41551e-06
6.45051e-07
3.18016e-07
0.0011471
-4.09231e-07
1.17213e-06
1.95188e-07
8.03927e-07
-4.33301e-07
-1.10254e-06
1.47784e-07
-0.00114689
-1.41271e-06
6.45293e-07
3.23628e-07
0.00114696
-4.06429e-07
1.16946e-06
1.92378e-07
8.03978e-07
-4.33419e-07
-1.10255e-06
1.47837e-07
-0.000275336
1.44448e-06
1.40738e-06
-3.73636e-07
-3.76551e-07
0.000273234
-6.20374e-07
-6.20985e-07
-0.00117297
3.50849e-07
3.56844e-07
0.0011735
-0.00114726
-1.40321e-06
6.20461e-07
3.05124e-07
0.0011473
-3.98943e-07
1.17743e-06
2.00721e-07
8.10514e-07
-4.20839e-07
-1.08788e-06
1.55071e-07
-0.00114713
-1.40046e-06
6.20766e-07
3.10831e-07
0.00114716
-3.96196e-07
1.17472e-06
1.97859e-07
8.10521e-07
-4.2092e-07
-1.08801e-06
1.55143e-07
-0.000275071
1.43213e-06
1.39503e-06
-3.61928e-07
-3.64824e-07
0.00027297
-5.95372e-07
-5.96138e-07
-0.00117503
3.41343e-07
3.47316e-07
0.00117554
-0.00114735
-1.39107e-06
5.95553e-07
2.9147e-07
0.00114736
-3.88973e-07
1.18255e-06
2.06095e-07
8.1677e-07
-4.08843e-07
-1.07378e-06
1.62089e-07
-0.00114722
-1.38835e-06
5.95782e-07
2.97337e-07
0.00114722
-3.86239e-07
1.17983e-06
2.03245e-07
8.16736e-07
-4.08861e-07
-1.0739e-06
1.62244e-07
-0.000274801
1.42002e-06
1.38295e-06
-3.50756e-07
-3.5363e-07
0.000272702
-5.70292e-07
-5.70886e-07
-0.00117698
3.31863e-07
3.37831e-07
0.00117745
-0.00114731
-1.37918e-06
5.70445e-07
2.77057e-07
0.00114729
-3.79329e-07
1.18747e-06
2.11332e-07
8.22649e-07
-3.97261e-07
-1.0603e-06
1.68924e-07
-0.00114718
-1.37652e-06
5.70496e-07
2.82934e-07
0.00114715
-3.766e-07
1.18477e-06
2.08448e-07
8.22744e-07
-3.9733e-07
-1.06026e-06
1.69042e-07
-0.00027453
1.40813e-06
1.37111e-06
-3.40098e-07
-3.42916e-07
0.000272434
-5.44906e-07
-5.45503e-07
-0.00117879
3.22426e-07
3.28418e-07
0.00117923
-0.00114716
-1.36766e-06
5.45139e-07
2.6197e-07
0.00114712
-3.69981e-07
1.19216e-06
2.16443e-07
8.28351e-07
-3.8616e-07
-1.04744e-06
1.75497e-07
-0.00114703
-1.36498e-06
5.45111e-07
2.6774e-07
0.00114698
-3.67274e-07
1.18942e-06
2.1357e-07
8.28448e-07
-3.8624e-07
-1.04737e-06
1.75597e-07
-0.000274262
1.39655e-06
1.35959e-06
-3.29947e-07
-3.32711e-07
0.000272168
-5.19417e-07
-5.19892e-07
-0.00118048
3.12947e-07
3.1904e-07
0.00118088
-0.00114691
-1.35655e-06
5.19632e-07
2.46273e-07
0.00114684
-3.61015e-07
1.1966e-06
2.21315e-07
8.3379e-07
-3.75561e-07
-1.0351e-06
1.81746e-07
-0.00114678
-1.35385e-06
5.19578e-07
2.51908e-07
0.0011467
-3.58278e-07
1.19393e-06
2.18484e-07
8.33936e-07
-3.75616e-07
-1.03508e-06
1.81864e-07
-0.000273999
1.3854e-06
1.34851e-06
-3.20345e-07
-3.23057e-07
0.000271908
-4.93809e-07
-4.94161e-07
-0.00118204
3.0342e-07
3.09667e-07
0.00118241
-0.00114657
-1.34585e-06
4.93997e-07
2.30108e-07
0.00114648
-3.52452e-07
1.20084e-06
2.25944e-07
8.39062e-07
-3.65446e-07
-1.02332e-06
1.87707e-07
-0.00114644
-1.34313e-06
4.93869e-07
2.35699e-07
0.00114634
-3.49652e-07
1.19812e-06
2.23173e-07
8.39159e-07
-3.65475e-07
-1.02332e-06
1.87848e-07
-0.000273741
1.37464e-06
1.3378e-06
-3.11211e-07
-3.13899e-07
0.000271654
-4.68018e-07
-4.68293e-07
-0.00118346
2.93748e-07
3.00139e-07
0.00118381
-0.00114616
-1.33564e-06
4.68275e-07
2.13806e-07
0.00114606
-3.44222e-07
1.20469e-06
2.30378e-07
8.44145e-07
-3.55776e-07
-1.0121e-06
1.93376e-07
-0.00114603
-1.33288e-06
4.68027e-07
2.19223e-07
0.00114592
-3.41404e-07
1.20206e-06
2.27627e-07
8.44184e-07
-3.55803e-07
-1.01211e-06
1.93532e-07
-0.000273492
1.36441e-06
1.32762e-06
-3.02626e-07
-3.05294e-07
0.000271408
-4.42112e-07
-4.42299e-07
-0.00118476
2.83908e-07
2.90356e-07
0.00118507
-0.00114569
-1.32585e-06
4.4236e-07
1.97351e-07
0.00114557
-3.3641e-07
1.20841e-06
2.34507e-07
8.48858e-07
-3.46538e-07
-1.00145e-06
1.98772e-07
-0.00114556
-1.32309e-06
4.42096e-07
2.02777e-07
0.00114543
-3.33588e-07
1.20572e-06
2.31802e-07
8.48879e-07
-3.46555e-07
-1.00149e-06
1.98939e-07
-0.000273252
1.35457e-06
1.31777e-06
-2.94448e-07
-2.97139e-07
0.000271171
-4.1617e-07
-4.16302e-07
-0.00118593
2.79726e-07
2.80324e-07
0.0011862
-0.00114517
-1.31657e-06
4.16329e-07
1.81024e-07
0.00114504
-3.28969e-07
1.21177e-06
2.38431e-07
8.53319e-07
-3.37722e-07
-9.91359e-07
2.03949e-07
-0.00114504
-1.3138e-06
4.16137e-07
1.86463e-07
0.00114491
-3.26096e-07
1.20914e-06
2.35721e-07
8.53287e-07
-3.37765e-07
-9.91401e-07
2.04088e-07
-0.00027302
1.3453e-06
1.30849e-06
-2.86801e-07
-2.89532e-07
0.000270943
-3.90368e-07
-3.90259e-07
-0.00118697
2.69408e-07
2.7001e-07
0.00118721
-0.00114462
-1.30772e-06
3.90283e-07
1.64969e-07
0.00114448
-3.2195e-07
1.21497e-06
2.42087e-07
8.5751e-07
-3.29366e-07
-9.81811e-07
2.08814e-07
-0.00114449
-1.30496e-06
3.90219e-07
1.70348e-07
0.00114434
-3.19079e-07
1.21226e-06
2.39423e-07
8.57497e-07
-3.2941e-07
-9.81846e-07
2.08922e-07
-0.000272798
1.33653e-06
1.29967e-06
-2.79608e-07
-2.82415e-07
0.000270724
-3.64287e-07
-3.64355e-07
-0.00118789
2.58753e-07
2.59253e-07
0.0011881
-0.00114404
-1.2994e-06
3.64278e-07
1.49212e-07
0.00114389
-3.1525e-07
1.21781e-06
2.4553e-07
8.61498e-07
-3.21384e-07
-9.72741e-07
2.13444e-07
-0.0011439
-1.29663e-06
3.64263e-07
1.54652e-07
0.00114376
-3.1243e-07
1.21518e-06
2.42833e-07
8.61512e-07
-3.21437e-07
-9.72765e-07
2.13549e-07
-0.000272586
1.32822e-06
1.29134e-06
-2.72896e-07
-2.75717e-07
0.000270515
-3.38427e-07
-3.38537e-07
-0.00118869
2.47658e-07
2.48103e-07
0.00118887
-0.00114344
-1.29151e-06
3.38446e-07
1.34025e-07
0.00114329
-3.08977e-07
1.22041e-06
2.48714e-07
8.65283e-07
-3.13799e-07
-9.64143e-07
2.17824e-07
-0.0011433
-1.28875e-06
3.38459e-07
1.39457e-07
0.00114315
-3.0619e-07
1.2178e-06
2.45983e-07
8.65302e-07
-3.13833e-07
-9.64152e-07
2.17943e-07
-0.000272383
1.3203e-06
1.2834e-06
-2.66595e-07
-2.6939e-07
0.000270316
-3.12799e-07
-3.12876e-07
-0.00118937
2.36189e-07
2.36575e-07
0.00118952
-0.00114283
-1.28408e-06
3.12755e-07
1.19426e-07
0.00114268
-3.0305e-07
1.22282e-06
2.51651e-07
8.68858e-07
-3.06616e-07
-9.56007e-07
2.21931e-07
-0.00114269
-1.28132e-06
3.12814e-07
1.25009e-07
0.00114254
-3.00311e-07
1.22021e-06
2.48888e-07
8.68862e-07
-3.06668e-07
-9.56031e-07
2.22029e-07
-0.000272191
1.31283e-06
1.27594e-06
-2.60694e-07
-2.63519e-07
0.000270126
-2.87372e-07
-2.87476e-07
-0.00118994
2.24255e-07
2.24572e-07
0.00119007
-0.00114221
-1.27708e-06
2.87307e-07
1.05589e-07
0.00114207
-2.97552e-07
1.22508e-06
2.54289e-07
8.72238e-07
-2.99772e-07
-9.48292e-07
2.2581e-07
-0.00114208
-1.27436e-06
2.87374e-07
1.11226e-07
0.00114193
-2.94795e-07
1.22232e-06
2.51543e-07
8.72249e-07
-2.99875e-07
-9.48322e-07
2.25946e-07
-0.000272008
1.30588e-06
1.269e-06
-2.5528e-07
-2.58102e-07
0.000269946
-2.62254e-07
-2.62299e-07
-0.00119041
2.11811e-07
2.12109e-07
0.00119051
-0.0011416
-1.27053e-06
2.62156e-07
9.26357e-08
0.00114146
-2.92398e-07
1.22697e-06
2.56718e-07
8.75427e-07
-2.93333e-07
-9.41009e-07
2.29495e-07
-0.00114147
-1.26783e-06
2.62195e-07
9.82902e-08
0.00114132
-2.89672e-07
1.22429e-06
2.53937e-07
8.75446e-07
-2.93352e-07
-9.4101e-07
2.29595e-07
-0.000271835
1.29932e-06
1.26245e-06
-2.50204e-07
-2.53044e-07
0.000269776
-2.37472e-07
-2.37525e-07
-0.00119077
1.98927e-07
1.99214e-07
0.00119085
-0.001141
-1.26444e-06
2.37406e-07
8.04985e-08
0.00114085
-2.87632e-07
1.22875e-06
2.58909e-07
8.7844e-07
-2.872e-07
-9.34111e-07
2.32967e-07
-0.00114086
-1.26174e-06
2.37365e-07
8.62682e-08
0.00114071
-2.84906e-07
1.22604e-06
2.56137e-07
8.78442e-07
-2.87268e-07
-9.34139e-07
2.3307e-07
-0.000271671
1.29321e-06
1.25636e-06
-2.4555e-07
-2.48367e-07
0.000269616
1.543e-06
1.5031e-06
-4.76395e-07
-4.82056e-07
0.000274497
-0.000276584
-1.17391e-06
-1.13382e-06
0.000276599
-0.000274508
1.05227e-07
1.10698e-07
4.06387e-07
0.0011387
-5.04555e-07
1.16959e-06
1.52828e-07
7.52779e-07
-5.45007e-07
8.46304e-08
-1.23509e-06
-0.00113826
-1.5403e-06
8.18818e-07
4.06447e-07
0.00113878
-5.04616e-07
1.16697e-06
1.52756e-07
7.52696e-07
-5.42257e-07
8.13484e-08
-1.23491e-06
-0.00113833
0.00113996
8.0364e-07
-0.00113955
3.99294e-07
-1.53661e-06
1.57709e-07
-4.95832e-07
-1.22334e-06
9.07254e-08
-5.33935e-07
7.58213e-07
1.17124e-06
0.00114003
8.0415e-07
-0.00113962
3.99371e-07
-1.53402e-06
1.57574e-07
-4.95948e-07
-1.22317e-06
8.75843e-08
-5.31169e-07
7.58189e-07
-4.76798e-07
-4.78929e-07
0.000274477
-0.000276565
-1.13364e-06
0.00027658
-0.000274488
1.05328e-07
1.07862e-07
4.04945e-07
0.0011397
-4.99125e-07
1.12954e-06
1.47044e-07
7.52652e-07
-5.45006e-07
8.47684e-08
-1.23501e-06
-0.00113926
-1.53481e-06
8.18652e-07
4.06317e-07
0.00113866
-5.04527e-07
1.1616e-06
1.52957e-07
7.52636e-07
-5.42333e-07
8.14128e-08
-1.23498e-06
-0.00113821
0.00114096
8.04734e-07
-0.00114055
3.98072e-07
-1.49674e-06
1.51917e-07
-4.90403e-07
-1.22322e-06
9.09289e-08
-5.33941e-07
7.58169e-07
1.16586e-06
0.00113991
8.04099e-07
-0.00113951
3.99182e-07
-1.52853e-06
1.5776e-07
-4.95928e-07
-1.22321e-06
8.76103e-08
-5.31121e-07
7.58124e-07
8.18166e-07
4.06464e-07
0.00113828
-5.01547e-07
1.15859e-06
1.49989e-07
7.44574e-07
-5.39211e-07
7.83186e-08
-1.22636e-06
-0.00113783
8.04196e-07
-0.0011401
4.03629e-07
-1.4965e-06
1.5194e-07
-4.90237e-07
-1.2176e-06
9.07636e-08
7.52743e-07
-5.33695e-07
1.16291e-06
0.00113953
8.03224e-07
-0.00113913
3.99294e-07
-1.52541e-06
1.5486e-07
-4.92828e-07
-1.21463e-06
8.4557e-08
-5.28197e-07
7.50041e-07
-4.76919e-07
-4.81579e-07
0.000274463
-0.00027654
-1.13087e-06
0.000276555
-0.000274474
1.05348e-07
1.10713e-07
8.19338e-07
4.05038e-07
0.00113926
-4.99042e-07
1.12114e-06
1.47012e-07
7.4976e-07
-5.44903e-07
8.48396e-08
-1.2319e-06
-0.00113882
8.04376e-07
-0.00113997
3.98247e-07
-1.49382e-06
1.48998e-07
-4.8751e-07
-1.21776e-06
9.08911e-08
7.52753e-07
-5.338e-07
1.12538e-06
0.00114052
8.04823e-07
-0.00114011
3.97883e-07
-1.48843e-06
1.51798e-07
-4.90379e-07
-1.22014e-06
9.10065e-08
-5.33806e-07
7.55264e-07
-0.000274448
1.05147e-07
1.08074e-07
1.53442e-06
1.49456e-06
-4.63731e-07
-4.69278e-07
0.000274503
-1.17944e-06
-1.13927e-06
0.000276554
-0.000274469
1.1421e-07
1.19748e-07
3.96955e-07
0.00114035
-4.9292e-07
1.17534e-06
1.5935e-07
7.60056e-07
-5.30248e-07
-1.21936e-06
9.27567e-08
-1.53185e-06
7.99167e-07
3.97134e-07
0.00114042
-4.93053e-07
1.17264e-06
1.59182e-07
7.60032e-07
-5.2746e-07
-1.21913e-06
8.96175e-08
0.00114146
7.84122e-07
-0.0011411
3.89483e-07
-1.52735e-06
1.64058e-07
-4.84335e-07
-1.20736e-06
9.88466e-08
-5.19267e-07
7.65462e-07
1.17673e-06
0.00114153
7.84274e-07
-0.00114118
3.8966e-07
-1.52478e-06
1.63958e-07
-4.8447e-07
-1.20713e-06
9.57902e-08
-5.1643e-07
7.65468e-07
-4.64057e-07
-4.66276e-07
0.000274484
-1.13913e-06
0.000276534
-0.00027445
1.14376e-07
1.16859e-07
3.95704e-07
0.00114135
-4.87525e-07
1.13521e-06
1.53532e-07
7.60012e-07
-5.3013e-07
-1.21919e-06
9.30333e-08
-1.5263e-06
7.99141e-07
3.96732e-07
0.00114031
-4.93025e-07
1.16725e-06
1.59376e-07
7.59984e-07
-5.27466e-07
-1.2192e-06
8.96921e-08
0.00114246
7.84826e-07
-0.0011421
3.88487e-07
-1.48753e-06
1.58246e-07
-4.78979e-07
-1.20714e-06
9.90839e-08
-5.19151e-07
7.65491e-07
1.17131e-06
0.00114141
7.84105e-07
-0.00114106
3.89449e-07
-1.51928e-06
1.64155e-07
-4.84418e-07
-1.20711e-06
9.5827e-08
-5.16396e-07
7.65463e-07
7.98256e-07
3.97038e-07
0.00113993
-4.89926e-07
1.16434e-06
1.56495e-07
7.51852e-07
-5.24473e-07
8.65903e-08
-1.21064e-06
7.84579e-07
-0.00114165
3.93917e-07
-1.48723e-06
1.58323e-07
-4.78762e-07
-1.20162e-06
9.89006e-08
7.59997e-07
-5.19014e-07
1.16842e-06
0.00114103
7.83531e-07
-0.00114068
3.89466e-07
-1.5161e-06
1.61298e-07
-4.81334e-07
-1.19866e-06
9.28098e-08
-5.13477e-07
7.57281e-07
-4.64134e-07
-4.68931e-07
0.00027447
-1.13635e-06
0.000276509
-0.000274436
1.14349e-07
1.19728e-07
7.998e-07
3.95737e-07
0.00114091
-4.87514e-07
1.1268e-06
1.53444e-07
7.57081e-07
-5.3003e-07
9.29946e-08
-1.21615e-06
7.84595e-07
-0.00114152
3.8839e-07
-1.48454e-06
1.55532e-07
-4.75992e-07
-1.20171e-06
9.90334e-08
7.60038e-07
-5.19056e-07
1.13086e-06
0.00114202
7.84877e-07
-0.00114166
3.88342e-07
-1.47913e-06
1.58206e-07
-4.78901e-07
-1.20407e-06
9.91479e-08
-5.19055e-07
7.62561e-07
-0.00027441
1.14152e-07
1.17124e-07
1.52492e-06
1.48511e-06
-4.50735e-07
-4.5619e-07
0.000274451
-1.18465e-06
-1.14447e-06
0.000276454
-0.000274376
1.2278e-07
1.28317e-07
3.87169e-07
0.00114181
-4.81461e-07
1.18075e-06
1.65655e-07
7.67285e-07
-5.15676e-07
-1.20335e-06
1.00859e-07
-1.52236e-06
7.79168e-07
3.87341e-07
0.00114188
-4.8155e-07
1.17806e-06
1.65529e-07
7.67286e-07
-5.12763e-07
-1.20304e-06
9.77998e-08
0.00114276
7.63665e-07
-0.00114246
3.80301e-07
-1.5173e-06
1.70322e-07
-4.72706e-07
-1.19122e-06
1.06856e-07
-5.04905e-07
7.72714e-07
1.18194e-06
0.00114284
7.63728e-07
-0.00114253
3.80414e-07
-1.51478e-06
1.70224e-07
-4.72807e-07
-1.19098e-06
1.03888e-07
-5.02044e-07
7.72731e-07
-4.50981e-07
-4.53228e-07
0.000274431
-1.14436e-06
0.000276435
-0.000274357
1.2296e-07
1.25428e-07
3.86169e-07
0.00114281
-4.76092e-07
1.14057e-06
1.5984e-07
7.67334e-07
-5.15488e-07
-1.20311e-06
1.01173e-07
-1.51685e-06
7.78997e-07
3.87143e-07
0.00114176
-4.81471e-07
1.17261e-06
1.65736e-07
7.67309e-07
-5.12746e-07
-1.20308e-06
9.78724e-08
0.00114377
7.64108e-07
-0.00114346
3.79361e-07
-1.4775e-06
1.64531e-07
-4.67362e-07
-1.19093e-06
1.07162e-07
-5.04754e-07
7.72795e-07
1.1765e-06
0.00114272
7.63427e-07
-0.00114241
3.803e-07
-1.50931e-06
1.70362e-07
-4.72789e-07
-1.19089e-06
1.03956e-07
-5.01911e-07
7.7279e-07
7.78522e-07
3.87171e-07
0.00114138
-4.78398e-07
1.16973e-06
1.629e-07
7.59104e-07
-5.09826e-07
9.48283e-08
-1.19461e-06
7.63908e-07
-0.00114301
3.84756e-07
-1.47722e-06
1.64604e-07
-4.67116e-07
-1.18547e-06
1.07041e-07
7.67309e-07
-5.04669e-07
1.17366e-06
0.00114234
7.62885e-07
-0.00114203
3.8023e-07
-1.50606e-06
1.67571e-07
-4.69659e-07
-1.18252e-06
1.00953e-07
-4.99125e-07
7.64574e-07
-4.51068e-07
-4.55888e-07
0.000274417
-1.14165e-06
0.00027641
-0.000274343
1.23009e-07
1.28245e-07
7.79781e-07
3.86092e-07
0.00114236
-4.75981e-07
1.13217e-06
1.5984e-07
7.64364e-07
-5.15356e-07
1.01129e-07
-1.2e-06
7.64014e-07
-0.00114288
3.79151e-07
-1.47447e-06
1.61826e-07
-4.64274e-07
-1.18558e-06
1.07069e-07
7.67291e-07
-5.04731e-07
1.13609e-06
0.00114333
7.6439e-07
-0.00114302
3.79114e-07
-1.46911e-06
1.64469e-07
-4.67284e-07
-1.18789e-06
1.07206e-07
-5.04572e-07
7.69827e-07
-0.000274317
1.22729e-07
1.25722e-07
1.51475e-06
1.47494e-06
-4.37634e-07
-4.43077e-07
0.000274345
-1.18981e-06
-1.14966e-06
0.000276308
-0.000274236
1.31095e-07
1.36561e-07
3.78067e-07
0.00114306
-4.69818e-07
1.18595e-06
1.71846e-07
7.74544e-07
-5.01375e-07
-1.18715e-06
1.08844e-07
-1.51218e-06
7.5839e-07
3.78159e-07
0.00114313
-4.69908e-07
1.18326e-06
1.71739e-07
7.74552e-07
-4.98459e-07
-1.18687e-06
1.05887e-07
0.00114387
7.42467e-07
-0.00114361
3.71009e-07
-1.50659e-06
1.76307e-07
-4.61232e-07
-1.17494e-06
1.14851e-07
-4.90695e-07
7.79938e-07
1.18716e-06
0.00114395
7.42352e-07
-0.00114369
3.71022e-07
-1.50403e-06
1.76253e-07
-4.61296e-07
-1.1747e-06
1.11958e-07
-4.87832e-07
7.79977e-07
-4.37864e-07
-4.40113e-07
0.000274326
-1.14954e-06
0.000276289
-0.000274217
1.31252e-07
1.33728e-07
3.77092e-07
0.00114406
-4.6446e-07
1.14578e-06
1.6607e-07
7.74636e-07
-5.01185e-07
-1.18686e-06
1.09198e-07
-1.50672e-06
7.58101e-07
3.78028e-07
0.00114301
-4.69879e-07
1.17779e-06
1.71873e-07
7.74642e-07
-4.98374e-07
-1.18681e-06
1.05988e-07
0.00114488
7.42846e-07
-0.00114462
3.70032e-07
-1.46676e-06
1.70536e-07
-4.5587e-07
-1.17464e-06
1.15189e-07
-4.9053e-07
7.80048e-07
1.18167e-06
0.00114383
7.41933e-07
-0.00114357
3.71112e-07
-1.49859e-06
1.76328e-07
-4.61334e-07
-1.17455e-06
1.12036e-07
-4.87757e-07
7.80087e-07
7.576e-07
3.77982e-07
0.00114263
-4.66793e-07
1.17496e-06
1.69092e-07
7.66387e-07
-4.95533e-07
1.02951e-07
-1.17842e-06
7.4271e-07
-0.00114417
3.75344e-07
-1.46651e-06
1.70566e-07
-4.55676e-07
-1.16918e-06
1.15106e-07
7.74557e-07
-4.90366e-07
1.17884e-06
0.00114344
7.41722e-07
-0.00114319
3.70898e-07
-1.49538e-06
1.7353e-07
-4.58209e-07
-1.16626e-06
1.09062e-07
-4.84905e-07
7.71815e-07
-4.37925e-07
-4.42819e-07
0.000274312
-1.14687e-06
0.000276263
-0.000274203
1.31338e-07
1.36499e-07
7.59028e-07
3.76926e-07
0.00114362
-4.64431e-07
1.13741e-06
1.66056e-07
7.71644e-07
-5.01022e-07
1.09189e-07
-1.18384e-06
7.42744e-07
-0.00114403
3.69692e-07
-1.4637e-06
1.67846e-07
-4.52788e-07
-1.1693e-06
1.15129e-07
7.74547e-07
-4.90496e-07
1.14133e-06
0.00114443
7.42955e-07
-0.00114418
3.69864e-07
-1.45837e-06
1.70489e-07
-4.55803e-07
-1.17166e-06
1.15229e-07
-4.90415e-07
7.77159e-07
-0.000274177
1.31055e-07
1.33982e-07
1.50386e-06
1.46402e-06
-4.245e-07
-4.29975e-07
0.000274194
-1.19502e-06
-1.15491e-06
0.000276123
-0.000274056
1.39063e-07
1.4459e-07
3.68637e-07
0.00114412
-4.58428e-07
1.19114e-06
1.77748e-07
7.81732e-07
-4.87165e-07
-1.17087e-06
1.16864e-07
-1.5012e-06
7.36911e-07
3.68635e-07
0.00114419
-4.58499e-07
1.18848e-06
1.77716e-07
7.81776e-07
-4.84294e-07
-1.17061e-06
1.13941e-07
0.00114479
7.20647e-07
-0.00114458
3.61453e-07
-1.49526e-06
1.82081e-07
-4.50025e-07
-1.15877e-06
1.22782e-07
-4.76701e-07
7.87075e-07
1.1924e-06
0.00114486
7.20454e-07
-0.00114465
3.61326e-07
-1.49268e-06
1.82032e-07
-4.50013e-07
-1.15851e-06
1.19933e-07
-4.7383e-07
7.87137e-07
-4.24749e-07
-4.26936e-07
0.000274176
-1.15476e-06
0.000276104
-0.000274037
1.39193e-07
1.41805e-07
3.67555e-07
0.00114513
-4.53043e-07
1.15099e-06
1.71986e-07
7.81848e-07
-4.86988e-07
-1.17057e-06
1.17214e-07
-1.49577e-06
7.36457e-07
3.68713e-07
0.00114407
-4.58493e-07
1.18297e-06
1.77792e-07
7.81901e-07
-4.842e-07
-1.17049e-06
1.14069e-07
0.0011458
7.20868e-07
-0.00114559
3.6047e-07
-1.45538e-06
1.76446e-07
-4.44587e-07
-1.15849e-06
1.23079e-07
-4.76567e-07
7.87162e-07
1.18686e-06
0.00114474
7.20008e-07
-0.00114453
3.6131e-07
-1.48719e-06
1.82046e-07
-4.50128e-07
-1.15835e-06
1.20065e-07
-4.7371e-07
7.87261e-07
7.36334e-07
3.68597e-07
0.00114369
-4.55398e-07
1.18012e-06
1.74996e-07
7.73596e-07
-4.81379e-07
1.11005e-07
-1.16218e-06
7.20732e-07
-0.00114514
3.65772e-07
-1.45518e-06
1.76421e-07
-4.44388e-07
-1.15301e-06
1.23023e-07
7.81704e-07
-4.76373e-07
1.18404e-06
0.00114436
7.19906e-07
-0.00114415
3.6123e-07
-1.48401e-06
1.79302e-07
-4.46993e-07
-1.1501e-06
1.17027e-07
-4.70892e-07
7.78948e-07
-4.24738e-07
-4.29687e-07
0.000274161
-1.15212e-06
0.000276078
-0.000274023
1.39296e-07
1.44475e-07
7.37529e-07
3.67481e-07
0.00114468
-4.52998e-07
1.14262e-06
1.71985e-07
7.78947e-07
-4.86871e-07
1.17226e-07
-1.16759e-06
7.20897e-07
-0.001145
3.59886e-07
-1.45223e-06
1.73663e-07
-4.41529e-07
-1.15314e-06
1.23038e-07
7.81689e-07
-4.76509e-07
1.14659e-06
0.00114535
7.2092e-07
-0.00114514
3.60293e-07
-1.44695e-06
1.76348e-07
-4.44519e-07
-1.15554e-06
1.23155e-07
-4.76424e-07
7.84252e-07
-0.000273997
1.39049e-07
1.41982e-07
1.49232e-06
1.45244e-06
-4.11403e-07
-4.169e-07
0.000274006
-1.20036e-06
-1.1603e-06
0.000275907
-0.000273845
1.46909e-07
1.52349e-07
3.58951e-07
0.00114499
-4.47237e-07
1.19638e-06
1.83561e-07
7.88851e-07
-4.73256e-07
-1.15475e-06
1.24747e-07
-1.48964e-06
7.14817e-07
3.58822e-07
0.00114506
-4.47256e-07
1.19377e-06
1.83516e-07
7.88863e-07
-4.70386e-07
-1.15448e-06
1.2185e-07
0.00114552
6.98021e-07
-0.00114536
3.51057e-07
-1.48329e-06
1.87899e-07
-4.39012e-07
-1.14283e-06
1.30538e-07
-4.63006e-07
7.94124e-07
1.19775e-06
0.0011456
6.9789e-07
-0.00114543
3.50768e-07
-1.48066e-06
1.87879e-07
-4.39002e-07
-1.14257e-06
1.27732e-07
-4.6017e-07
7.94175e-07
-4.11687e-07
-4.13852e-07
0.000273987
-1.16013e-06
0.000275888
-0.000273826
1.47044e-07
1.49592e-07
3.57855e-07
0.001146
-4.41817e-07
1.15627e-06
1.77929e-07
7.8892e-07
-4.73114e-07
-1.15448e-06
1.25045e-07
-1.4843e-06
7.1437e-07
3.58901e-07
0.00114494
-4.47294e-07
1.18818e-06
1.83522e-07
7.89036e-07
-4.7025e-07
-1.15433e-06
1.22047e-07
0.00114653
6.98386e-07
-0.00114637
3.49932e-07
-1.44339e-06
1.82317e-07
-4.3356e-07
-1.14257e-06
1.30794e-07
-4.62904e-07
7.94171e-07
1.1922e-06
0.00114548
6.97324e-07
-0.00114531
3.51118e-07
-1.47528e-06
1.87911e-07
-4.39094e-07
-1.1424e-06
1.27862e-07
-4.60062e-07
7.94303e-07
7.14286e-07
3.58892e-07
0.00114456
-4.44225e-07
1.18534e-06
1.80761e-07
7.80697e-07
-4.6747e-07
1.18959e-07
-1.14608e-06
6.98111e-07
-0.00114591
3.55342e-07
-1.44318e-06
1.82257e-07
-4.33402e-07
-1.13711e-06
1.30758e-07
7.88791e-07
-4.62725e-07
1.18938e-06
0.00114509
6.9729e-07
-0.00114493
3.50927e-07
-1.47208e-06
1.85169e-07
-4.36024e-07
-1.13418e-06
1.24803e-07
-4.57263e-07
7.8596e-07
-4.11685e-07
-4.16648e-07
0.000273973
-1.15749e-06
0.000275862
-0.000273812
1.47163e-07
1.52264e-07
7.15304e-07
3.57881e-07
0.00114555
-4.41758e-07
1.14789e-06
1.77849e-07
7.86034e-07
-4.72977e-07
1.25096e-07
-1.15149e-06
6.98321e-07
-0.00114578
3.49675e-07
-1.44034e-06
1.7954e-07
-4.30507e-07
-1.13723e-06
1.30772e-07
7.88718e-07
-4.62878e-07
1.15198e-06
0.00114609
6.9836e-07
-0.00114592
3.4987e-07
-1.43501e-06
1.82235e-07
-4.33529e-07
-1.13958e-06
1.3086e-07
-4.62836e-07
7.91311e-07
-0.000273786
1.46918e-07
1.49747e-07
1.4803e-06
1.4404e-06
-3.98495e-07
-4.04015e-07
0.000273788
-1.20565e-06
-1.16566e-06
0.000275667
-0.00027361
1.54403e-07
1.59765e-07
3.48314e-07
0.00114568
-4.36246e-07
1.2017e-06
1.89364e-07
7.95857e-07
-4.59663e-07
-1.13887e-06
1.32499e-07
-1.4776e-06
6.9212e-07
3.48074e-07
0.00114575
-4.36266e-07
1.19913e-06
1.89391e-07
7.9588e-07
-4.56798e-07
-1.13861e-06
1.2963e-07
0.00114608
6.74847e-07
-0.00114596
3.39915e-07
-1.4711e-06
1.93669e-07
-4.28124e-07
-1.12721e-06
1.38238e-07
-4.49694e-07
8.01061e-07
1.20307e-06
0.00114615
6.74621e-07
-0.00114603
3.39622e-07
-1.46844e-06
1.93732e-07
-4.28083e-07
-1.12694e-06
1.35433e-07
-4.4684e-07
8.01063e-07
-3.98762e-07
-4.00951e-07
0.00027377
-1.16545e-06
0.000275649
-0.000273592
1.545e-07
1.57017e-07
3.47202e-07
0.00114669
-4.30783e-07
1.16166e-06
1.83807e-07
7.95925e-07
-4.59565e-07
-1.13862e-06
1.32747e-07
-1.47227e-06
6.91584e-07
3.48385e-07
0.00114563
-4.36361e-07
1.19355e-06
1.89354e-07
7.96044e-07
-4.56682e-07
-1.13846e-06
1.29815e-07
0.00114709
6.75284e-07
-0.00114697
3.38683e-07
-1.43119e-06
1.88126e-07
-4.22656e-07
-1.12696e-06
1.38475e-07
-4.49611e-07
8.01074e-07
1.19753e-06
0.00114603
6.74112e-07
-0.00114591
3.40005e-07
-1.46305e-06
1.93712e-07
-4.28178e-07
-1.12679e-06
1.35537e-07
-4.46735e-07
8.01189e-07
6.91579e-07
3.48253e-07
0.00114525
-4.33276e-07
1.19069e-06
1.86597e-07
7.87709e-07
-4.53903e-07
1.2674e-07
-1.13024e-06
6.74954e-07
-0.00114652
3.44163e-07
-1.43099e-06
1.88097e-07
-4.22515e-07
-1.12146e-06
1.38396e-07
7.95685e-07
-4.49431e-07
1.19468e-06
0.00114565
6.74117e-07
-0.00114553
3.39697e-07
-1.45989e-06
1.9092e-07
-4.2514e-07
-1.11857e-06
1.32543e-07
-4.43956e-07
7.92918e-07
-3.98765e-07
-4.03782e-07
0.000273755
-1.16281e-06
0.000275623
-0.000273577
1.5461e-07
1.59743e-07
6.9259e-07
3.47179e-07
0.00114624
-4.30772e-07
1.15329e-06
1.83746e-07
7.93052e-07
-4.59434e-07
1.32802e-07
-1.13565e-06
6.75213e-07
-0.00114638
3.38397e-07
-1.42816e-06
1.85328e-07
-4.19642e-07
-1.12163e-06
1.38454e-07
7.95627e-07
-4.49521e-07
1.15731e-06
0.00114664
6.75181e-07
-0.00114652
3.38583e-07
-1.42281e-06
1.88065e-07
-4.22619e-07
-1.12391e-06
1.3853e-07
-4.49482e-07
7.98321e-07
-0.000273551
1.54334e-07
1.57201e-07
1.46802e-06
1.42809e-06
-3.8591e-07
-3.91429e-07
0.000273549
-1.21089e-06
-1.17096e-06
0.000275412
-0.000273359
1.61502e-07
1.66816e-07
3.37028e-07
0.00114619
-4.25468e-07
1.207e-06
1.95075e-07
8.02777e-07
-4.46434e-07
-1.12336e-06
1.40113e-07
-1.46537e-06
6.68723e-07
3.36692e-07
0.00114626
-4.25413e-07
1.20442e-06
1.95113e-07
8.02763e-07
-4.43569e-07
-1.12308e-06
1.37298e-07
0.00114647
6.51028e-07
-0.00114639
3.28199e-07
-1.45877e-06
1.99292e-07
-4.17513e-07
-1.11203e-06
1.4576e-07
-4.36742e-07
8.07794e-07
1.20834e-06
0.00114654
6.50816e-07
-0.00114646
3.27733e-07
-1.4561e-06
1.99368e-07
-4.17471e-07
-1.11168e-06
1.42959e-07
-4.339e-07
8.07827e-07
-3.86203e-07
-3.88421e-07
0.00027353
-1.17077e-06
0.000275393
-0.00027334
1.61595e-07
1.64101e-07
3.35766e-07
0.0011472
-4.19953e-07
1.16701e-06
1.8957e-07
8.02775e-07
-4.46356e-07
-1.12312e-06
1.40344e-07
-1.45995e-06
6.68162e-07
3.37088e-07
0.00114614
-4.2551e-07
1.19887e-06
1.95129e-07
8.02894e-07
-4.43472e-07
-1.12296e-06
1.37421e-07
0.00114748
6.51539e-07
-0.0011474
3.26796e-07
-1.41883e-06
1.93787e-07
-4.11988e-07
-1.11173e-06
1.45961e-07
-4.36686e-07
8.07829e-07
1.2028e-06
0.00114642
6.50406e-07
-0.00114634
3.28186e-07
-1.45068e-06
1.99379e-07
-4.1754e-07
-1.11162e-06
1.43066e-07
-4.33801e-07
8.07794e-07
6.68137e-07
3.36899e-07
0.00114576
-4.2244e-07
1.19602e-06
1.92342e-07
7.94571e-07
-4.40691e-07
1.34415e-07
-1.11473e-06
6.51108e-07
-0.00114695
3.32327e-07
-1.41863e-06
1.93757e-07
-4.11903e-07
-1.10622e-06
1.45914e-07
8.02389e-07
-4.36467e-07
1.19999e-06
0.00114604
6.50305e-07
-0.00114595
3.2801e-07
-1.44757e-06
1.96561e-07
-4.14522e-07
-1.10337e-06
1.40126e-07
-4.30982e-07
7.9951e-07
-3.86214e-07
-3.9115e-07
0.000273515
-1.16813e-06
0.000275368
-0.000273325
1.61738e-07
1.66785e-07
6.69188e-07
3.35763e-07
0.00114675
-4.19934e-07
1.15865e-06
1.89516e-07
7.99877e-07
-4.46182e-07
1.40425e-07
-1.12014e-06
6.51366e-07
-0.00114681
3.26689e-07
-1.41579e-06
1.90976e-07
-4.09045e-07
-1.10645e-06
1.45972e-07
8.02314e-07
-4.36589e-07
1.16269e-06
0.00114703
6.51387e-07
-0.00114695
3.26807e-07
-1.41045e-06
1.93775e-07
-4.11956e-07
-1.10883e-06
1.46011e-07
-4.36551e-07
8.04882e-07
-0.000273299
1.61476e-07
1.6432e-07
1.45567e-06
1.41573e-06
-3.73764e-07
-3.79244e-07
0.000273294
-1.21612e-06
-1.17627e-06
0.000275147
-0.000273096
1.68286e-07
1.73585e-07
3.25094e-07
0.00114654
-4.14928e-07
1.21222e-06
2.00676e-07
8.09364e-07
-4.33532e-07
-1.10818e-06
1.47617e-07
-1.45297e-06
6.44749e-07
3.24682e-07
0.00114661
-4.14837e-07
1.20969e-06
2.00768e-07
8.09373e-07
-4.30693e-07
-1.10798e-06
1.44809e-07
0.0011467
6.26547e-07
-0.00114666
3.21209e-07
-1.44643e-06