/*--------------------------------*- C++ -*----------------------------------*\
| =========                 |                                                 |
| \\      /  F ield         | OpenFOAM: The Open Source CFD Toolbox           |
|  \\    /   O peration     | Version:  2312                                  |
|   \\  /    A nd           | Website:  www.openfoam.com                      |
|    \\/     M anipulation  |                                                 |
\*---------------------------------------------------------------------------*/
FoamFile
{
    version     2.0;
    format      ascii;
    arch        "LSB;label=32;scalar=64";
    class       volScalarField;
    location    "450";
    object      epsilon;
}
// * * * * * * * * * * * * * * * * * * * * * * * * * * * * * * * * * * * * * //

dimensions      [0 2 -3 0 0 0 0];

internalField   nonuniform List<scalar> 
43168
(
6.63547e-07
1.18841e-06
1.18852e-06
1.42052e-06
1.41837e-06
1.18794e-06
1.18782e-06
1.41834e-06
1.18775e-06
1.18793e-06
1.18782e-06
1.18795e-06
1.41844e-06
1.18793e-06
1.1878e-06
1.41845e-06
1.42048e-06
1.18852e-06
1.18842e-06
1.42043e-06
1.18834e-06
1.18852e-06
1.18854e-06
1.42057e-06
1.18838e-06
9.56619e-06
9.56774e-06
6.62203e-07
6.62208e-07
6.62326e-07
6.62309e-07
4.24112e-06
9.57272e-06
4.24066e-06
9.57711e-06
1.91048e-05
1.91148e-05
4.24118e-06
9.57409e-06
4.24069e-06
9.57846e-06
6.63544e-07
6.6367e-07
6.6364e-07
2.29662e-06
3.64928e-06
9.37669e-07
1.18894e-06
2.29653e-06
3.64953e-06
9.38474e-07
1.91061e-05
1.91161e-05
2.29663e-06
9.37771e-07
3.64925e-06
1.18906e-06
2.29659e-06
9.38559e-07
3.64953e-06
5.6537e-06
5.65545e-06
1.41957e-06
5.65463e-06
5.65638e-06
1.90912e-05
1.90944e-05
1.41716e-06
5.65056e-06
5.65234e-06
1.91019e-05
1.90919e-05
1.91051e-05
1.90951e-05
1.41934e-06
5.65259e-06
5.65437e-06
5.65168e-06
5.65341e-06
1.18669e-06
3.64725e-06
4.23952e-06
9.57173e-06
9.56722e-06
4.24003e-06
4.23946e-06
9.57188e-06
9.5674e-06
4.23996e-06
2.29596e-06
1.18733e-06
3.64835e-06
9.36806e-07
3.64803e-06
9.35939e-07
2.29607e-06
2.2959e-06
1.18714e-06
3.64873e-06
9.3674e-07
3.64844e-06
9.35858e-07
2.29601e-06
1.91042e-05
1.90941e-05
1.41927e-06
5.65405e-06
5.65289e-06
5.65323e-06
1.91032e-05
1.1865e-06
3.6478e-06
4.23956e-06
9.57316e-06
9.56839e-06
4.24009e-06
2.29595e-06
1.18715e-06
3.6489e-06
9.36781e-07
3.64856e-06
9.35917e-07
2.2961e-06
4.23949e-06
9.57284e-06
9.56797e-06
4.24002e-06
2.29589e-06
1.18733e-06
9.36821e-07
3.64881e-06
9.35952e-07
3.64847e-06
2.29604e-06
3.64853e-06
9.36825e-07
2.2961e-06
9.57257e-06
4.24015e-06
9.36853e-07
3.64844e-06
2.29607e-06
9.57253e-06
4.24006e-06
1.91056e-05
1.90955e-05
1.4194e-06
5.6542e-06
5.65273e-06
5.65321e-06
5.65175e-06
1.9103e-05
1.90929e-05
2.29602e-06
1.18732e-06
9.3692e-07
3.64851e-06
9.36058e-07
3.64817e-06
2.29612e-06
2.29596e-06
1.1872e-06
9.36869e-07
3.64894e-06
9.36005e-07
3.64861e-06
2.29605e-06
4.23972e-06
9.57256e-06
9.56812e-06
4.24017e-06
4.23975e-06
9.57312e-06
9.56869e-06
4.24013e-06
1.41933e-06
5.65267e-06
5.65441e-06
5.65343e-06
1.91042e-05
1.91064e-05
1.90964e-05
1.91025e-05
1.91125e-05
1.91057e-05
1.91157e-05
5.65369e-06
5.65542e-06
1.41949e-06
5.65455e-06
5.65634e-06
1.9113e-05
1.91162e-05
1.42153e-06
5.65562e-06
5.65735e-06
4.24105e-06
9.57289e-06
4.24059e-06
9.57727e-06
2.29659e-06
3.64911e-06
9.37655e-07
1.18906e-06
2.29653e-06
3.64937e-06
9.38445e-07
2.29653e-06
3.64952e-06
9.37592e-07
1.18895e-06
2.29647e-06
3.64974e-06
9.38381e-07
4.24172e-06
9.57809e-06
4.24165e-06
9.57827e-06
2.29702e-06
1.18959e-06
3.65011e-06
9.39219e-07
2.29695e-06
1.18948e-06
3.65051e-06
9.39156e-07
5.65524e-06
5.6539e-06
1.41945e-06
5.65601e-06
5.65478e-06
1.91037e-05
1.91137e-05
1.91153e-05
1.42149e-06
5.65717e-06
5.65578e-06
1.91142e-05
2.29661e-06
3.64964e-06
9.37634e-07
1.18888e-06
2.29652e-06
3.64992e-06
9.38424e-07
4.24111e-06
9.57347e-06
4.24062e-06
9.57825e-06
2.29655e-06
9.37671e-07
3.64955e-06
1.18906e-06
2.29646e-06
9.38461e-07
3.64983e-06
4.24175e-06
9.57945e-06
2.29702e-06
1.1894e-06
3.65064e-06
9.39202e-07
4.24168e-06
9.57884e-06
2.29696e-06
1.18958e-06
9.3924e-07
3.65055e-06
4.24123e-06
9.5732e-06
4.24083e-06
9.57799e-06
2.29659e-06
9.37701e-07
3.64919e-06
1.18908e-06
2.2965e-06
9.38493e-07
3.64946e-06
4.24114e-06
9.57319e-06
4.24066e-06
9.578e-06
2.29702e-06
1.18946e-06
3.65026e-06
9.39231e-07
4.24189e-06
9.57859e-06
2.29699e-06
1.1896e-06
9.39268e-07
3.65019e-06
4.24172e-06
9.57859e-06
5.65522e-06
5.65378e-06
1.41956e-06
5.65616e-06
5.6547e-06
1.91036e-05
1.91135e-05
1.91166e-05
1.42161e-06
5.65717e-06
5.65575e-06
1.91141e-05
2.29656e-06
9.37717e-07
3.64968e-06
1.18892e-06
2.29652e-06
9.38504e-07
3.64996e-06
4.24125e-06
9.57355e-06
4.24085e-06
9.57796e-06
4.24122e-06
9.57412e-06
4.24088e-06
9.57853e-06
2.29707e-06
1.18958e-06
9.39333e-07
3.65026e-06
2.297e-06
1.18944e-06
9.39276e-07
3.65069e-06
4.2419e-06
9.57894e-06
4.24194e-06
9.57951e-06
1.91047e-05
1.91147e-05
1.9107e-05
1.9117e-05
1.42159e-06
5.65566e-06
5.65739e-06
1.91152e-05
1.91176e-05
2.27634e-05
7.24532e-06
9.56447e-06
7.24554e-06
2.27702e-05
9.56557e-06
1.26706e-05
4.2412e-06
1.12607e-05
4.88719e-06
1.12586e-05
4.88732e-06
1.2673e-05
2.27888e-05
7.24916e-06
9.57444e-06
2.2782e-05
7.24892e-06
1.26694e-05
4.24059e-06
1.12553e-05
4.8867e-06
1.2667e-05
1.12574e-05
4.88658e-06
2.27882e-05
7.25008e-06
9.5754e-06
7.25034e-06
2.27949e-05
1.91095e-05
1.911e-05
1.26701e-05
4.24123e-06
4.88719e-06
1.12611e-05
4.88727e-06
1.12583e-05
1.26736e-05
2.27884e-05
7.24915e-06
9.57583e-06
2.27817e-05
7.24891e-06
1.26699e-05
4.24064e-06
4.88666e-06
1.12551e-05
1.26665e-05
4.88658e-06
1.12578e-05
2.27878e-05
7.25007e-06
9.57678e-06
7.25033e-06
2.27945e-05
1.91108e-05
1.91114e-05
9.9715e-06
2.24193e-05
2.24186e-05
2.24133e-05
2.24126e-05
9.97112e-06
4.70575e-06
2.97595e-06
9.937e-06
5.65364e-06
4.70614e-06
2.97574e-06
9.93932e-06
4.71154e-06
2.97712e-06
9.94177e-06
5.65541e-06
4.71191e-06
2.97692e-06
9.94412e-06
9.96945e-06
2.24077e-05
2.2407e-05
9.96982e-06
2.24138e-05
2.24131e-05
4.70672e-06
9.94189e-06
5.6547e-06
2.976e-06
2.97623e-06
9.93986e-06
4.70631e-06
4.71248e-06
9.9468e-06
5.65643e-06
2.97718e-06
2.97739e-06
9.94446e-06
4.7121e-06
1.90865e-05
1.90897e-05
9.96475e-06
2.23965e-05
2.23958e-05
2.23903e-05
2.23896e-05
9.96438e-06
4.70425e-06
9.93042e-06
5.65065e-06
2.9748e-06
9.92869e-06
4.70383e-06
2.97501e-06
4.71001e-06
9.9355e-06
5.65238e-06
2.97594e-06
9.93376e-06
4.70961e-06
2.97614e-06
1.90972e-05
1.90966e-05
1.91004e-05
1.90998e-05
9.9661e-06
2.2396e-05
2.23952e-05
9.96648e-06
2.24021e-05
2.24014e-05
4.70548e-06
2.97541e-06
5.65269e-06
9.93595e-06
9.93421e-06
2.97563e-06
4.70504e-06
4.71124e-06
2.97655e-06
5.65443e-06
9.94103e-06
9.93929e-06
2.97676e-06
4.71082e-06
4.70444e-06
9.93146e-06
2.97533e-06
5.65158e-06
4.70487e-06
9.93326e-06
2.97511e-06
4.71023e-06
9.93654e-06
2.97646e-06
5.65336e-06
4.71064e-06
9.93834e-06
2.97625e-06
9.96819e-06
2.24077e-05
2.2407e-05
2.24016e-05
2.24009e-05
9.96781e-06
1.2662e-05
1.12486e-05
4.88541e-06
4.23946e-06
1.26596e-05
1.12507e-05
4.8853e-06
2.27759e-05
9.56999e-06
7.24773e-06
2.27826e-05
7.24797e-06
2.27765e-05
7.24676e-06
9.56901e-06
2.27697e-05
7.24654e-06
1.26633e-05
4.2401e-06
1.12541e-05
4.88595e-06
1.26658e-05
1.12519e-05
4.88606e-06
1.26627e-05
1.12485e-05
4.88527e-06
4.2394e-06
1.26592e-05
1.12506e-05
4.88518e-06
2.27762e-05
9.57016e-06
7.24642e-06
7.24663e-06
2.2783e-05
2.27768e-05
7.24543e-06
9.56915e-06
2.277e-05
7.24522e-06
1.2663e-05
4.24004e-06
1.12539e-05
4.88582e-06
1.12518e-05
4.88592e-06
1.26664e-05
1.90995e-05
1.90989e-05
4.71137e-06
2.97651e-06
5.65424e-06
9.94068e-06
2.97672e-06
9.93893e-06
4.71095e-06
4.70556e-06
2.97548e-06
5.65293e-06
9.93682e-06
9.93438e-06
2.97569e-06
4.70513e-06
2.97642e-06
5.65305e-06
2.97621e-06
9.96841e-06
2.24076e-05
2.24085e-05
2.24015e-05
2.24022e-05
9.96792e-06
1.90982e-05
1.26624e-05
4.88538e-06
1.12483e-05
4.23952e-06
1.26594e-05
4.88531e-06
1.12511e-05
2.27755e-05
9.57125e-06
7.24773e-06
2.27823e-05
7.24797e-06
2.27761e-05
7.24676e-06
9.5705e-06
2.27693e-05
7.24653e-06
1.26628e-05
4.24013e-06
4.88595e-06
1.12546e-05
1.26663e-05
4.88602e-06
1.12517e-05
1.26626e-05
1.12482e-05
4.8852e-06
4.23945e-06
1.26596e-05
1.12511e-05
4.88515e-06
2.27754e-05
9.57072e-06
7.2461e-06
7.24633e-06
2.27822e-05
2.2776e-05
7.24513e-06
9.57009e-06
2.27692e-05
7.24491e-06
1.2663e-05
4.24007e-06
1.12544e-05
4.88579e-06
1.12516e-05
4.88585e-06
1.26665e-05
2.27742e-05
9.5705e-06
7.24733e-06
7.24777e-06
2.27813e-05
1.26628e-05
4.24028e-06
4.88588e-06
1.12541e-05
4.88613e-06
1.12519e-05
1.26652e-05
2.27756e-05
9.57056e-06
7.24594e-06
7.24618e-06
2.27823e-05
1.26634e-05
4.24011e-06
1.12543e-05
4.88575e-06
1.12514e-05
4.88584e-06
1.26659e-05
1.91008e-05
1.91002e-05
9.96561e-06
2.2395e-05
2.23955e-05
9.966e-06
2.24012e-05
2.24016e-05
4.71125e-06
2.97658e-06
5.65423e-06
9.94088e-06
2.97675e-06
9.93848e-06
4.71086e-06
4.70531e-06
2.97543e-06
5.65277e-06
9.93613e-06
9.93371e-06
2.97563e-06
4.70494e-06
4.71027e-06
9.93573e-06
2.97645e-06
5.65319e-06
2.97628e-06
4.71064e-06
9.93813e-06
4.70434e-06
9.93096e-06
2.97533e-06
5.65171e-06
4.7047e-06
9.93338e-06
2.97514e-06
9.96771e-06
2.24068e-05
2.24072e-05
2.24007e-05
2.24011e-05
9.96731e-06
1.90983e-05
1.90977e-05
1.26619e-05
4.88537e-06
1.1248e-05
4.2396e-06
1.26595e-05
4.88528e-06
1.1251e-05
2.27747e-05
9.57084e-06
7.2473e-06
7.24752e-06
2.27814e-05
2.27752e-05
7.24632e-06
9.56984e-06
2.27685e-05
7.2461e-06
1.2663e-05
4.2403e-06
4.88592e-06
1.12543e-05
4.88602e-06
1.12515e-05
1.26655e-05
1.26629e-05
4.88536e-06
1.12478e-05
4.23957e-06
1.26593e-05
4.88519e-06
1.12508e-05
2.27764e-05
9.5714e-06
7.24639e-06
7.24665e-06
2.27832e-05
2.2777e-05
7.24544e-06
9.57041e-06
2.27702e-05
7.2452e-06
1.2663e-05
4.24033e-06
4.88583e-06
1.12542e-05
4.88601e-06
1.12513e-05
1.26663e-05
9.96603e-06
2.24027e-05
2.24019e-05
4.70554e-06
2.97546e-06
5.6527e-06
9.93667e-06
4.70516e-06
2.97566e-06
9.93423e-06
4.71133e-06
2.97664e-06
5.65445e-06
9.94143e-06
4.71097e-06
2.97684e-06
9.93899e-06
4.70454e-06
5.65162e-06
2.97515e-06
9.93384e-06
4.71035e-06
2.97654e-06
5.6534e-06
2.97635e-06
9.93864e-06
9.96812e-06
2.24083e-05
2.24075e-05
9.96776e-06
2.24021e-05
2.24014e-05
1.90994e-05
1.90988e-05
1.91017e-05
1.91011e-05
1.91072e-05
1.91078e-05
1.91104e-05
1.9111e-05
9.97156e-06
2.24188e-05
2.24181e-05
2.24127e-05
2.2412e-05
9.97115e-06
4.70562e-06
2.97591e-06
9.93692e-06
5.65358e-06
4.70607e-06
9.93869e-06
2.97569e-06
4.7114e-06
2.97705e-06
9.94199e-06
5.65536e-06
4.71183e-06
9.94377e-06
2.97682e-06
9.96949e-06
2.24072e-05
2.24064e-05
9.96989e-06
2.24133e-05
2.24125e-05
4.70664e-06
9.94136e-06
5.65466e-06
2.97594e-06
9.93964e-06
4.70618e-06
2.97617e-06
4.7124e-06
9.94644e-06
5.65639e-06
2.97708e-06
9.94471e-06
4.71196e-06
2.97731e-06
1.91177e-05
1.91209e-05
9.9728e-06
2.24182e-05
2.24175e-05
9.97321e-06
2.24243e-05
2.24235e-05
4.70672e-06
9.94233e-06
2.97641e-06
5.65551e-06
4.70719e-06
9.94403e-06
2.97618e-06
4.7125e-06
9.94739e-06
2.97755e-06
5.65729e-06
4.71295e-06
9.94911e-06
2.97731e-06
1.26703e-05
4.24113e-06
1.12606e-05
4.88707e-06
1.12585e-05
4.88716e-06
1.26737e-05
2.27891e-05
7.24782e-06
9.5746e-06
2.27824e-05
7.2476e-06
1.26702e-05
4.24052e-06
1.12552e-05
4.88654e-06
1.12573e-05
1.26667e-05
4.88646e-06
2.27885e-05
7.24876e-06
9.57559e-06
7.24899e-06
2.27952e-05
1.26765e-05
1.12618e-05
4.88792e-06
4.24163e-06
1.26742e-05
1.1264e-05
4.88778e-06
2.28009e-05
7.25149e-06
9.5798e-06
2.27942e-05
7.25123e-06
1.26773e-05
1.12617e-05
4.88776e-06
4.24156e-06
1.26739e-05
1.12639e-05
4.88766e-06
2.28012e-05
7.25015e-06
9.57993e-06
2.27945e-05
7.24991e-06
9.97159e-06
2.24184e-05
2.24191e-05
2.24123e-05
2.2413e-05
9.97117e-06
4.71152e-06
2.977e-06
9.94164e-06
5.65504e-06
9.94341e-06
4.7119e-06
2.97679e-06
4.70568e-06
2.97597e-06
9.93713e-06
5.65383e-06
2.97574e-06
4.7061e-06
9.93948e-06
9.96954e-06
2.24068e-05
2.24076e-05
2.24129e-05
9.96996e-06
2.24137e-05
4.71247e-06
9.94607e-06
5.65621e-06
2.97705e-06
9.94436e-06
2.97727e-06
4.71207e-06
4.70667e-06
9.94216e-06
5.65485e-06
2.976e-06
2.97623e-06
9.93977e-06
4.70625e-06
1.91084e-05
1.9109e-05
1.912e-05
9.9728e-06
2.24178e-05
2.24185e-05
9.97322e-06
2.24239e-05
2.24245e-05
4.71261e-06
9.94704e-06
2.97751e-06
5.65696e-06
2.97728e-06
4.71302e-06
9.94874e-06
4.70679e-06
9.94244e-06
2.97647e-06
5.65571e-06
4.70723e-06
9.9448e-06
2.97624e-06
1.91189e-05
1.26703e-05
4.24116e-06
1.1261e-05
4.88704e-06
1.12582e-05
4.8871e-06
1.26737e-05
2.27883e-05
7.24752e-06
9.57557e-06
2.27816e-05
7.24728e-06
1.26702e-05
4.24057e-06
1.1255e-05
4.88648e-06
1.12577e-05
1.26667e-05
4.88642e-06
2.27877e-05
7.24845e-06
9.57617e-06
7.2487e-06
2.27944e-05
1.26771e-05
4.88787e-06
1.12617e-05
4.24169e-06
1.26737e-05
4.88778e-06
1.12644e-05
2.28005e-05
7.25148e-06
9.58113e-06
2.27938e-05
7.25122e-06
1.26773e-05
1.12616e-05
4.8877e-06
4.24162e-06
1.26738e-05
1.12643e-05
4.88762e-06
2.28004e-05
7.24986e-06
9.58089e-06
2.27937e-05
7.24961e-06
1.267e-05
4.24137e-06
4.88712e-06
1.12607e-05
4.88738e-06
1.12586e-05
1.26726e-05
2.27874e-05
7.24896e-06
9.57532e-06
7.24851e-06
2.27804e-05
1.2669e-05
4.2407e-06
4.88676e-06
1.12553e-05
4.88649e-06
1.26664e-05
1.12574e-05
2.27865e-05
7.24967e-06
9.57592e-06
7.25012e-06
2.27935e-05
1.26707e-05
4.2412e-06
1.12609e-05
4.88699e-06
1.12581e-05
4.88709e-06
1.26731e-05
2.27885e-05
7.24736e-06
9.57531e-06
2.27817e-05
7.24712e-06
1.26696e-05
4.24061e-06
1.12548e-05
4.88647e-06
1.26671e-05
1.12576e-05
4.88638e-06
2.27878e-05
7.24829e-06
9.57592e-06
7.24854e-06
2.27945e-05
1.26761e-05
4.88798e-06
1.12619e-05
4.24175e-06
1.26736e-05
4.88771e-06
1.1264e-05
2.27995e-05
7.25127e-06
9.58063e-06
2.27925e-05
7.25082e-06
1.26767e-05
1.12615e-05
4.88769e-06
4.24166e-06
1.26743e-05
1.12642e-05
4.88759e-06
2.28006e-05
7.2497e-06
9.58065e-06
2.27939e-05
7.24944e-06
9.97108e-06
2.24179e-05
2.24183e-05
2.24118e-05
2.24122e-05
9.97066e-06
4.71145e-06
2.97704e-06
9.94126e-06
5.65519e-06
9.94362e-06
4.71184e-06
2.97686e-06
4.70552e-06
2.97592e-06
9.93654e-06
5.65372e-06
2.97571e-06
4.70591e-06
9.93893e-06
9.969e-06
2.24062e-05
2.24066e-05
2.24123e-05
9.9694e-06
2.24127e-05
4.71241e-06
9.94633e-06
5.6562e-06
2.97712e-06
9.94399e-06
2.9773e-06
4.71201e-06
4.70648e-06
9.94162e-06
5.65478e-06
2.97597e-06
2.97619e-06
9.93925e-06
4.70608e-06
1.91083e-05
1.91089e-05
1.91213e-05
9.97231e-06
2.24173e-05
2.24177e-05
9.97273e-06
2.24233e-05
2.24237e-05
4.71255e-06
9.94673e-06
2.97754e-06
5.65711e-06
2.97736e-06
4.71296e-06
9.94885e-06
4.70662e-06
9.94194e-06
2.97643e-06
5.65566e-06
4.70703e-06
9.94426e-06
2.97621e-06
1.91187e-05
1.26704e-05
4.24139e-06
4.88716e-06
1.12609e-05
4.88727e-06
1.12581e-05
1.26727e-05
2.27875e-05
7.24871e-06
9.57529e-06
7.24848e-06
2.27808e-05
1.26692e-05
4.24072e-06
4.88665e-06
1.12548e-05
4.88655e-06
1.26667e-05
1.12576e-05
2.27869e-05
7.24964e-06
9.57626e-06
7.24988e-06
2.27936e-05
1.26708e-05
4.24142e-06
4.88707e-06
1.12608e-05
4.88727e-06
1.12579e-05
1.26732e-05
2.27893e-05
7.24784e-06
9.57586e-06
2.27826e-05
7.24757e-06
1.26697e-05
4.24068e-06
4.88665e-06
1.12547e-05
1.2667e-05
4.88646e-06
1.12575e-05
2.27887e-05
7.24874e-06
9.57683e-06
7.24901e-06
2.27954e-05
1.26762e-05
4.88787e-06
1.12614e-05
4.24176e-06
1.26739e-05
4.88775e-06
1.12642e-05
2.27996e-05
7.25104e-06
9.58065e-06
2.2793e-05
7.25079e-06
1.26767e-05
4.88787e-06
1.12613e-05
4.24173e-06
1.26743e-05
4.88766e-06
1.12641e-05
2.28014e-05
7.25017e-06
9.58119e-06
2.27947e-05
7.24989e-06
1.91095e-05
1.911e-05
1.91117e-05
1.91123e-05
9.97277e-06
2.24188e-05
2.24181e-05
9.97316e-06
2.24248e-05
2.24241e-05
4.70686e-06
9.9426e-06
2.97647e-06
5.65558e-06
4.70728e-06
2.97624e-06
9.9444e-06
4.71265e-06
9.94714e-06
2.97763e-06
5.65733e-06
4.71304e-06
2.97742e-06
9.94943e-06
1.91199e-05
1.91222e-05
6.5943e-07
4.5596e-07
4.55893e-07
6.64831e-07
4.57565e-07
4.57503e-07
2.50594e-07
2.48784e-07
2.82917e-06
1.96977e-06
1.97e-06
1.41902e-06
2.82951e-06
1.96904e-06
1.96926e-06
2.82925e-06
1.41992e-06
1.9688e-06
1.96899e-06
1.96952e-06
1.96973e-06
2.8289e-06
2.8293e-06
1.41983e-06
1.96889e-06
1.96881e-06
1.96962e-06
1.96955e-06
2.82893e-06
2.82924e-06
1.42e-06
1.96895e-06
1.96885e-06
1.96969e-06
1.96959e-06
2.8289e-06
2.82929e-06
1.41995e-06
1.96879e-06
1.96902e-06
2.82896e-06
1.96952e-06
1.96975e-06
2.82912e-06
1.96976e-06
1.96998e-06
1.41894e-06
2.82947e-06
1.96903e-06
1.96923e-06
2.82915e-06
1.96988e-06
1.96981e-06
1.41892e-06
1.96907e-06
2.82951e-06
1.96914e-06
2.82911e-06
1.96994e-06
1.96984e-06
1.41902e-06
1.96909e-06
2.82946e-06
1.9692e-06
6.60844e-07
4.54298e-07
4.54229e-07
4.52622e-07
4.52549e-07
2.45104e-07
2.46947e-07
6.60846e-07
4.54287e-07
4.54273e-07
4.52612e-07
4.52593e-07
2.45114e-07
2.46957e-07
6.60965e-07
4.54368e-07
4.54358e-07
4.52684e-07
4.52684e-07
2.45179e-07
2.47022e-07
6.6095e-07
4.54406e-07
4.54342e-07
4.52716e-07
4.52672e-07
2.45196e-07
2.47039e-07
4.55948e-07
4.5593e-07
6.64821e-07
4.57552e-07
4.57541e-07
2.50605e-07
2.48795e-07
4.56033e-07
4.56019e-07
6.64957e-07
4.57642e-07
4.57626e-07
2.50669e-07
2.4886e-07
4.5606e-07
4.56004e-07
6.64926e-07
4.57672e-07
4.57609e-07
2.50684e-07
2.48876e-07
6.66102e-07
4.5916e-07
4.591e-07
2.52398e-07
6.66091e-07
4.59148e-07
4.59128e-07
2.52409e-07
6.66225e-07
4.59239e-07
4.5922e-07
2.52474e-07
6.66198e-07
4.59262e-07
4.59205e-07
2.52488e-07
1.66725e-06
2.29679e-06
2.54196e-06
1.54514e-06
2.54215e-06
1.54599e-06
1.66599e-06
1.84499e-06
2.2247e-06
3.02421e-06
3.64904e-06
1.84603e-06
2.22413e-06
3.0238e-06
1.66571e-06
2.29637e-06
2.54192e-06
1.54564e-06
1.66693e-06
2.54172e-06
1.54477e-06
1.84634e-06
3.02412e-06
3.64978e-06
2.22429e-06
2.22488e-06
3.02453e-06
1.8453e-06
1.66798e-06
2.29684e-06
1.54501e-06
2.54198e-06
1.54617e-06
2.54234e-06
1.6657e-06
1.84465e-06
2.22473e-06
3.02425e-06
3.64903e-06
1.84658e-06
2.22415e-06
3.02383e-06
1.66554e-06
2.29639e-06
1.54578e-06
2.54204e-06
1.66768e-06
1.54471e-06
2.54174e-06
1.84697e-06
3.02415e-06
3.64976e-06
2.22432e-06
2.22491e-06
3.02458e-06
1.84502e-06
2.82972e-06
1.42107e-06
1.96926e-06
1.96948e-06
1.97e-06
1.97023e-06
2.82937e-06
2.82875e-06
1.4187e-06
1.96824e-06
1.96844e-06
2.82841e-06
1.96897e-06
1.96917e-06
2.82867e-06
1.41778e-06
1.96926e-06
1.96947e-06
2.82901e-06
1.96853e-06
1.96873e-06
1.84567e-06
3.02279e-06
3.64746e-06
2.22345e-06
3.02322e-06
2.22399e-06
1.84369e-06
1.66482e-06
2.54148e-06
1.54493e-06
2.29577e-06
1.667e-06
2.54122e-06
1.54394e-06
1.84627e-06
2.22391e-06
3.64858e-06
3.02353e-06
2.22447e-06
3.02398e-06
1.8444e-06
1.84402e-06
3.02361e-06
2.22424e-06
3.64782e-06
2.22369e-06
1.84591e-06
3.02318e-06
1.66738e-06
2.29626e-06
2.54149e-06
1.54431e-06
2.54176e-06
1.54533e-06
1.66514e-06
1.66468e-06
2.54131e-06
1.54487e-06
2.29571e-06
1.6669e-06
2.54107e-06
1.54388e-06
1.84618e-06
2.2241e-06
3.64899e-06
3.02322e-06
3.02364e-06
2.22467e-06
1.84427e-06
1.84392e-06
3.02329e-06
2.22445e-06
3.64818e-06
1.84582e-06
3.02288e-06
2.22388e-06
1.66727e-06
2.29619e-06
2.54134e-06
1.54425e-06
2.54159e-06
1.54526e-06
1.665e-06
1.41771e-06
1.96937e-06
1.96862e-06
3.64799e-06
2.22377e-06
2.2243e-06
1.66518e-06
2.54145e-06
1.54484e-06
2.2958e-06
1.66641e-06
2.54121e-06
1.54397e-06
1.84577e-06
2.22421e-06
3.64911e-06
3.02364e-06
2.22477e-06
3.02402e-06
1.84466e-06
1.84436e-06
3.02365e-06
2.22455e-06
3.64836e-06
2.224e-06
1.84541e-06
3.02328e-06
1.66665e-06
2.29625e-06
2.5415e-06
1.54439e-06
2.54173e-06
1.54526e-06
1.66548e-06
1.66507e-06
1.54481e-06
2.54129e-06
2.29574e-06
1.66635e-06
1.54394e-06
2.54107e-06
1.84562e-06
2.22418e-06
3.64902e-06
3.02325e-06
3.02358e-06
2.22472e-06
1.84459e-06
1.84425e-06
3.02322e-06
2.2245e-06
3.64826e-06
1.84529e-06
3.02288e-06
2.22395e-06
1.66664e-06
2.29619e-06
1.54435e-06
2.54135e-06
1.54522e-06
2.54157e-06
1.6654e-06
1.84569e-06
2.22393e-06
3.64875e-06
3.02346e-06
1.84468e-06
2.22448e-06
3.02386e-06
1.66664e-06
2.29625e-06
2.54143e-06
1.54439e-06
1.66541e-06
2.54166e-06
1.54525e-06
1.84564e-06
2.22389e-06
3.64865e-06
3.02313e-06
3.02351e-06
2.22444e-06
1.8446e-06
1.66664e-06
2.29623e-06
1.54438e-06
2.54135e-06
1.54526e-06
2.54159e-06
1.6654e-06
2.82866e-06
1.41785e-06
1.96942e-06
1.96932e-06
1.96868e-06
2.82899e-06
1.96858e-06
1.66482e-06
1.54501e-06
2.54149e-06
2.29583e-06
1.66725e-06
1.54398e-06
2.54124e-06
1.84622e-06
2.22396e-06
3.64872e-06
3.0235e-06
1.84445e-06
2.22452e-06
3.02391e-06
1.84408e-06
3.02355e-06
2.22429e-06
3.64797e-06
1.84588e-06
2.22375e-06
3.02315e-06
1.66742e-06
2.29631e-06
1.54436e-06
2.54151e-06
1.66529e-06
1.5454e-06
2.54176e-06
1.66459e-06
1.54494e-06
2.54135e-06
2.29576e-06
1.66723e-06
1.54392e-06
2.54108e-06
1.84613e-06
2.22424e-06
3.64915e-06
3.02329e-06
3.02372e-06
2.2248e-06
1.84436e-06
1.84397e-06
3.02336e-06
2.22457e-06
3.6484e-06
1.84571e-06
3.02294e-06
2.22402e-06
1.66739e-06
2.29625e-06
1.5443e-06
2.54135e-06
1.54534e-06
2.54162e-06
1.66508e-06
2.82873e-06
1.41784e-06
1.96948e-06
1.96852e-06
1.96876e-06
2.82966e-06
1.42102e-06
1.96925e-06
1.96945e-06
2.82931e-06
1.96998e-06
1.9702e-06
2.82948e-06
1.42001e-06
1.97019e-06
1.9704e-06
2.82984e-06
1.96945e-06
1.96965e-06
1.66789e-06
2.29679e-06
2.54196e-06
1.545e-06
2.54238e-06
1.54608e-06
1.66565e-06
1.84463e-06
2.22468e-06
3.02432e-06
3.64887e-06
3.02388e-06
1.84659e-06
2.2241e-06
1.66541e-06
2.29634e-06
2.54205e-06
1.54571e-06
2.54173e-06
1.6676e-06
1.54468e-06
1.847e-06
3.02419e-06
3.64962e-06
2.22427e-06
3.02464e-06
2.22486e-06
1.845e-06
1.66777e-06
2.29673e-06
2.5418e-06
1.54493e-06
2.54218e-06
1.54602e-06
1.66552e-06
1.84448e-06
2.22488e-06
3.02398e-06
3.64924e-06
1.84645e-06
3.02357e-06
2.2243e-06
1.66527e-06
2.29628e-06
2.54186e-06
1.54565e-06
1.66748e-06
2.54158e-06
1.54462e-06
1.84686e-06
3.02389e-06
3.65002e-06
2.22447e-06
3.02431e-06
1.84486e-06
2.22506e-06
1.66581e-06
2.54256e-06
1.54644e-06
2.29681e-06
1.66811e-06
2.54212e-06
1.54526e-06
1.84528e-06
3.02494e-06
2.22502e-06
3.64985e-06
2.22442e-06
1.84721e-06
3.02449e-06
1.66568e-06
2.54237e-06
1.54639e-06
2.29675e-06
1.66799e-06
2.54197e-06
1.54519e-06
1.84513e-06
3.02461e-06
2.22522e-06
3.65022e-06
1.84708e-06
3.02418e-06
2.22462e-06
2.82971e-06
1.42097e-06
1.96936e-06
1.96928e-06
1.97003e-06
1.97011e-06
2.82935e-06
2.82952e-06
1.41996e-06
1.97031e-06
1.97023e-06
1.96956e-06
2.82989e-06
1.96948e-06
1.66734e-06
2.29678e-06
2.54206e-06
1.54514e-06
2.54224e-06
1.54599e-06
1.66609e-06
1.84499e-06
2.22497e-06
3.02436e-06
3.64942e-06
3.02397e-06
1.84609e-06
2.22441e-06
1.66579e-06
2.29636e-06
2.54199e-06
1.54564e-06
2.54179e-06
1.66705e-06
1.54477e-06
1.84644e-06
3.0243e-06
3.65015e-06
2.22458e-06
3.02468e-06
2.22516e-06
1.84536e-06
1.66724e-06
2.29672e-06
1.54511e-06
2.5419e-06
1.54596e-06
2.54206e-06
1.666e-06
1.8449e-06
2.22493e-06
3.02392e-06
3.64933e-06
1.84592e-06
3.02358e-06
2.22438e-06
1.6657e-06
2.2963e-06
1.5456e-06
2.54182e-06
1.66696e-06
1.54473e-06
2.54161e-06
1.84626e-06
3.0239e-06
3.65006e-06
2.22455e-06
3.02425e-06
1.84523e-06
2.22511e-06
1.66627e-06
2.54241e-06
1.54632e-06
2.29684e-06
1.66758e-06
2.54223e-06
1.54549e-06
1.84562e-06
3.02499e-06
2.22532e-06
3.6504e-06
2.22473e-06
1.84671e-06
3.02459e-06
1.66619e-06
1.54628e-06
2.54226e-06
2.29678e-06
1.6675e-06
1.54545e-06
2.54209e-06
1.8455e-06
3.02455e-06
2.22527e-06
3.65031e-06
1.84657e-06
3.02419e-06
2.2247e-06
1.66723e-06
2.29676e-06
1.54514e-06
2.54191e-06
1.54599e-06
2.54208e-06
1.66597e-06
1.84489e-06
2.22465e-06
3.02386e-06
3.64896e-06
2.22409e-06
1.84592e-06
3.02346e-06
1.66568e-06
2.29634e-06
1.54563e-06
2.54185e-06
1.54477e-06
1.66691e-06
2.54164e-06
1.84626e-06
3.02378e-06
3.6497e-06
2.22426e-06
2.22484e-06
3.02418e-06
1.84521e-06
1.6662e-06
2.54236e-06
1.54631e-06
2.29685e-06
1.6675e-06
2.54217e-06
1.5455e-06
1.84557e-06
3.02483e-06
2.22504e-06
3.65e-06
1.84664e-06
2.22444e-06
3.02442e-06
1.66617e-06
1.5463e-06
2.54227e-06
2.29682e-06
1.66748e-06
1.54549e-06
2.54209e-06
1.84547e-06
3.02448e-06
2.225e-06
3.64994e-06
1.84656e-06
3.02408e-06
2.22441e-06
2.82966e-06
1.4211e-06
1.96942e-06
1.96931e-06
1.97006e-06
1.97017e-06
2.82931e-06
2.82948e-06
1.42007e-06
1.97036e-06
1.97026e-06
1.96961e-06
2.82984e-06
1.9695e-06
1.6678e-06
2.29678e-06
1.54496e-06
2.54178e-06
1.54611e-06
2.54223e-06
1.66554e-06
1.84455e-06
2.225e-06
3.02406e-06
3.64946e-06
2.22443e-06
1.84637e-06
3.02363e-06
1.66533e-06
2.29631e-06
1.54572e-06
2.54189e-06
1.54466e-06
1.66753e-06
2.54158e-06
1.84681e-06
3.02394e-06
3.65019e-06
2.22459e-06
2.22518e-06
3.02438e-06
1.84491e-06
1.66585e-06
1.54657e-06
2.54254e-06
2.29686e-06
1.66815e-06
1.54529e-06
2.54215e-06
1.84528e-06
3.02488e-06
2.22507e-06
3.65001e-06
1.84718e-06
2.22447e-06
3.02445e-06
1.66571e-06
1.54649e-06
2.54241e-06
2.29679e-06
1.66801e-06
1.54523e-06
2.54197e-06
1.84517e-06
3.02469e-06
2.22534e-06
3.65044e-06
1.84707e-06
3.02424e-06
2.22474e-06
2.82955e-06
1.42008e-06
1.9702e-06
1.97043e-06
2.82991e-06
1.96946e-06
1.96968e-06
6.68512e-07
1.1904e-06
1.19052e-06
1.42255e-06
6.72908e-07
1.1919e-06
1.19202e-06
1.42417e-06
6.76755e-07
1.19293e-06
1.19305e-06
1.42554e-06
6.80071e-07
1.1935e-06
1.19362e-06
1.42651e-06
6.8288e-07
1.19363e-06
1.19375e-06
1.42696e-06
6.85204e-07
1.19338e-06
1.1935e-06
1.42703e-06
6.87065e-07
1.19273e-06
1.19286e-06
1.42676e-06
6.88486e-07
1.19171e-06
1.19184e-06
1.42615e-06
6.89488e-07
1.19034e-06
1.19046e-06
1.42522e-06
6.90093e-07
1.18864e-06
1.18876e-06
1.42398e-06
6.90328e-07
1.18664e-06
1.18675e-06
1.42247e-06
6.90236e-07
1.18437e-06
1.18447e-06
1.42066e-06
6.89856e-07
1.18184e-06
1.18193e-06
1.41852e-06
6.89191e-07
1.17909e-06
1.17916e-06
1.41618e-06
6.88271e-07
1.17615e-06
1.17621e-06
1.41371e-06
6.87133e-07
1.17305e-06
1.17312e-06
1.41111e-06
6.8581e-07
1.16984e-06
1.16992e-06
1.40839e-06
6.84306e-07
1.16658e-06
1.16663e-06
1.40557e-06
6.81525e-07
1.16196e-06
1.16203e-06
1.40214e-06
7.38252e-07
1.07613e-06
1.07623e-06
1.35144e-06
1.42049e-06
1.19006e-06
1.18995e-06
1.42045e-06
1.18987e-06
1.19006e-06
1.18994e-06
1.19007e-06
1.42055e-06
1.19005e-06
1.18991e-06
1.42056e-06
1.42249e-06
1.42218e-06
1.19052e-06
1.19041e-06
1.19168e-06
1.19156e-06
1.42246e-06
1.42213e-06
1.19034e-06
1.19052e-06
1.1915e-06
1.19168e-06
1.19054e-06
1.19156e-06
1.19169e-06
1.42257e-06
1.42224e-06
1.19038e-06
1.19167e-06
1.19153e-06
1.42224e-06
1.42412e-06
1.42356e-06
1.19203e-06
1.19191e-06
1.19282e-06
1.19271e-06
1.42408e-06
1.42334e-06
1.19185e-06
1.19203e-06
1.19265e-06
1.19282e-06
1.19204e-06
1.1927e-06
1.19283e-06
1.42418e-06
1.42344e-06
1.19188e-06
1.19281e-06
1.19268e-06
1.42345e-06
1.42533e-06
1.42448e-06
1.19306e-06
1.19294e-06
1.19351e-06
1.19339e-06
1.42547e-06
1.42416e-06
1.19288e-06
1.19306e-06
1.19333e-06
1.19351e-06
1.19307e-06
1.19338e-06
1.19352e-06
1.42558e-06
1.42427e-06
1.19291e-06
1.1935e-06
1.19337e-06
1.42427e-06
1.42614e-06
1.42497e-06
1.19363e-06
1.19351e-06
1.19376e-06
1.19365e-06
1.42638e-06
1.42465e-06
1.19345e-06
1.19364e-06
1.19359e-06
1.19377e-06
1.19364e-06
1.19363e-06
1.19377e-06
1.42648e-06
1.42476e-06
1.19349e-06
1.19376e-06
1.19362e-06
1.42476e-06
1.42658e-06
1.42509e-06
1.19376e-06
1.19364e-06
1.19358e-06
1.19347e-06
1.42682e-06
1.42485e-06
1.19358e-06
1.19377e-06
1.19341e-06
1.19359e-06
1.19377e-06
1.19345e-06
1.19359e-06
1.42692e-06
1.42517e-06
1.19362e-06
1.19358e-06
1.19345e-06
1.42489e-06
1.42666e-06
1.42486e-06
1.1935e-06
1.19339e-06
1.193e-06
1.19289e-06
1.42666e-06
1.42482e-06
1.19333e-06
1.19352e-06
1.19283e-06
1.19302e-06
1.19352e-06
1.19287e-06
1.19301e-06
1.42671e-06
1.42493e-06
1.19337e-06
1.193e-06
1.19287e-06
1.42466e-06
1.42638e-06
1.42429e-06
1.19286e-06
1.19275e-06
1.19205e-06
1.19194e-06
1.42635e-06
1.42426e-06
1.19269e-06
1.19287e-06
1.19187e-06
1.19206e-06
1.19288e-06
1.19192e-06
1.19206e-06
1.42645e-06
1.42436e-06
1.19273e-06
1.19204e-06
1.19192e-06
1.42409e-06
1.42577e-06
1.42339e-06
1.19184e-06
1.19174e-06
1.19074e-06
1.19063e-06
1.42574e-06
1.42336e-06
1.19167e-06
1.19185e-06
1.19057e-06
1.19075e-06
1.19186e-06
1.19061e-06
1.19076e-06
1.42584e-06
1.42345e-06
1.19172e-06
1.19073e-06
1.19062e-06
1.4232e-06
1.42484e-06
1.42219e-06
1.19047e-06
1.19037e-06
1.18911e-06
1.189e-06
1.42481e-06
1.42216e-06
1.1903e-06
1.19048e-06
1.18893e-06
1.1891e-06
1.19049e-06
1.18897e-06
1.18912e-06
1.4249e-06
1.42224e-06
1.19035e-06
1.18909e-06
1.18898e-06
1.422e-06
1.4236e-06
1.42052e-06
1.18878e-06
1.18868e-06
1.18716e-06
1.18706e-06
1.42357e-06
1.42067e-06
1.1886e-06
1.18877e-06
1.18698e-06
1.18713e-06
1.1888e-06
1.18702e-06
1.18718e-06
1.42365e-06
1.42074e-06
1.18866e-06
1.18713e-06
1.18704e-06
1.42051e-06
1.42235e-06
1.41866e-06
1.18679e-06
1.18669e-06
1.18493e-06
1.18483e-06
1.42205e-06
1.41891e-06
1.1866e-06
1.18676e-06
1.18473e-06
1.18488e-06
1.18681e-06
1.18478e-06
1.18494e-06
1.42212e-06
1.41896e-06
1.18667e-06
1.18488e-06
1.18481e-06
1.41877e-06
1.42051e-06
1.41676e-06
1.18452e-06
1.18442e-06
1.18244e-06
1.18234e-06
1.4203e-06
1.41683e-06
1.18432e-06
1.18447e-06
1.18223e-06
1.18236e-06
1.18454e-06
1.18229e-06
1.18245e-06
1.42034e-06
1.41686e-06
1.1844e-06
1.18237e-06
1.18232e-06
1.41681e-06
1.41834e-06
1.4145e-06
1.182e-06
1.1819e-06
1.17971e-06
1.17963e-06
1.41833e-06
1.41452e-06
1.18179e-06
1.18192e-06
1.17949e-06
1.17962e-06
1.18201e-06
1.17957e-06
1.17974e-06
1.41835e-06
1.41452e-06
1.18188e-06
1.17963e-06
1.1796e-06
1.41462e-06
1.41604e-06
1.41205e-06
1.17925e-06
1.17916e-06
1.17679e-06
1.17671e-06
1.41603e-06
1.41206e-06
1.17902e-06
1.17915e-06
1.17655e-06
1.17668e-06
1.17926e-06
1.17666e-06
1.17683e-06
1.41603e-06
1.41205e-06
1.17912e-06
1.17669e-06
1.17669e-06
1.41218e-06
1.41356e-06
1.40943e-06
1.17631e-06
1.17623e-06
1.1737e-06
1.17363e-06
1.41357e-06
1.40946e-06
1.17607e-06
1.1762e-06
1.17345e-06
1.17358e-06
1.17632e-06
1.17359e-06
1.17377e-06
1.41356e-06
1.40944e-06
1.17618e-06
1.1736e-06
1.17363e-06
1.4096e-06
1.41094e-06
1.40671e-06
1.17321e-06
1.17315e-06
1.17049e-06
1.17043e-06
1.41096e-06
1.40675e-06
1.17296e-06
1.1731e-06
1.17023e-06
1.17037e-06
1.17324e-06
1.1704e-06
1.17059e-06
1.41095e-06
1.40674e-06
1.17309e-06
1.17039e-06
1.17044e-06
1.4069e-06
1.4082e-06
1.40391e-06
1.17001e-06
1.16995e-06
1.16718e-06
1.16715e-06
1.40823e-06
1.40395e-06
1.16975e-06
1.1699e-06
1.16693e-06
1.16709e-06
1.17004e-06
1.16711e-06
1.16731e-06
1.40822e-06
1.40397e-06
1.16989e-06
1.16712e-06
1.16717e-06
1.40413e-06