/*--------------------------------*- C++ -*----------------------------------*\
| =========                 |                                                 |
| \\      /  F ield         | OpenFOAM: The Open Source CFD Toolbox           |
|  \\    /   O peration     | Version:  2312                                  |
|   \\  /    A nd           | Website:  www.openfoam.com                      |
|    \\/     M anipulation  |                                                 |
\*---------------------------------------------------------------------------*/
FoamFile
{
    version     2.0;
    format      ascii;
    arch        "LSB;label=32;scalar=64";
    class       volScalarField;
    location    "450";
    object      p;
}
// * * * * * * * * * * * * * * * * * * * * * * * * * * * * * * * * * * * * * //

dimensions      [0 2 -2 0 0 0 0];

internalField   nonuniform List<scalar> 
43168
(
0.00071067
0.000710618
0.000710618
0.000712194
0.000717842
0.000719453
0.000719453
0.000717841
0.000719453
0.000719453
0.000719453
0.000719453
0.000717842
0.000719453
0.000719453
0.000717842
0.000712194
0.000710618
0.000710618
0.000712194
0.000710618
0.000710618
0.000710618
0.000712194
0.000710618
0.000734958
0.000734958
0.000719506
0.000719506
0.000719506
0.000719506
0.00069962
0.000712762
0.000712749
0.000699623
0.000712769
0.000699622
0.00069962
0.000712762
0.000712749
0.000699622
0.00071067
0.00071067
0.00071067
0.000699702
0.000712714
0.000710638
0.000701781
0.000712665
0.000699658
0.000701801
0.000712769
0.000699621
0.000699702
0.000710638
0.000712714
0.000701781
0.000712665
0.000701801
0.000699658
0.000712761
0.000712761
0.00070017
0.000699616
0.000699616
0.000734957
0.000734957
0.000735508
0.000734952
0.000734952
0.000717293
0.000730435
0.000717292
0.000730435
0.000729862
0.000717287
0.000717287
0.000730427
0.000730428
0.000737119
0.000734994
0.000730416
0.000717294
0.000730428
0.000717291
0.000730416
0.000717294
0.000730428
0.000717291
0.000730332
0.000728287
0.000717329
0.000719473
0.000730381
0.000728307
0.000717373
0.000730332
0.000728287
0.000717329
0.000719473
0.00073038
0.000728307
0.000717373
0.000717292
0.000730435
0.00072986
0.000717287
0.000717287
0.000730427
0.000717293
0.000737119
0.000734994
0.000730416
0.000717293
0.000730428
0.000717291
0.000730332
0.000728287
0.000717328
0.000719473
0.000730381
0.000728307
0.000717373
0.000730416
0.000717293
0.000730428
0.000717291
0.000730332
0.000728287
0.000719473
0.000717328
0.000728307
0.000730381
0.000717373
0.000717328
0.000719473
0.000717373
0.000717293
0.000717291
0.000719473
0.000717328
0.000717373
0.000717293
0.000717291
0.000717292
0.000730435
0.000729862
0.000717287
0.000717287
0.000730428
0.000730427
0.000717292
0.000730435
0.000730332
0.000728287
0.000719473
0.000717329
0.000728308
0.00073038
0.000717373
0.000730331
0.000728287
0.000719473
0.000717329
0.000728307
0.00073038
0.000717373
0.000730415
0.000717294
0.000730428
0.000717292
0.000730415
0.000717293
0.000730428
0.000717292
0.00072986
0.000717287
0.000717287
0.000730427
0.000717292
0.000717292
0.000730435
0.000712769
0.000699622
0.000712769
0.000699622
0.000712761
0.000712761
0.00070017
0.000699616
0.000699616
0.000695096
0.000695096
0.00069452
0.000695088
0.000695089
0.00069962
0.000712761
0.000712749
0.000699623
0.000699701
0.000712714
0.000710638
0.000701782
0.000712665
0.000699658
0.000701801
0.000699701
0.000712714
0.000710637
0.000701781
0.000712665
0.000699658
0.000701801
0.000695077
0.000695089
0.000695077
0.000695089
0.000694992
0.000692943
0.000695042
0.000692962
0.000694992
0.000692943
0.000695041
0.000692962
0.000712761
0.000712761
0.00070017
0.000699616
0.000699616
0.000712769
0.000699622
0.000695096
0.00069452
0.000695088
0.000695089
0.000695096
0.000699702
0.000712714
0.000710638
0.000701782
0.000712665
0.000699657
0.000701801
0.00069962
0.000712762
0.000712749
0.000699622
0.000699702
0.000710638
0.000712714
0.000701781
0.000712665
0.000701801
0.000699657
0.000695077
0.000695089
0.000694992
0.000692943
0.000695041
0.000692962
0.000695077
0.000695089
0.000694992
0.000692943
0.000692962
0.000695042
0.000699621
0.000712761
0.000712749
0.000699623
0.000699702
0.000710638
0.000712714
0.000701781
0.000712665
0.000701801
0.000699658
0.00069962
0.000712762
0.000712749
0.000699623
0.000694992
0.000692943
0.000695041
0.000692962
0.000695076
0.000695089
0.000694992
0.000692943
0.000692962
0.000695042
0.000695077
0.000695089
0.000712761
0.000712761
0.00070017
0.000699616
0.000699616
0.000712769
0.000699622
0.000695097
0.00069452
0.000695089
0.000695089
0.000695097
0.000699702
0.000710637
0.000712714
0.000701781
0.000712665
0.000701801
0.000699658
0.000699621
0.000712762
0.000712749
0.000699623
0.000699621
0.000712762
0.000712749
0.000699623
0.000694992
0.000692943
0.000692962
0.000695042
0.000694992
0.000692943
0.000692962
0.000695042
0.000695077
0.000695089
0.000695076
0.000695089
0.000712769
0.000699622
0.000712769
0.000699622
0.000694521
0.000695089
0.000695089
0.000695097
0.000695097
0.00073927
0.000734945
0.000739259
0.000739263
0.000734954
0.000739259
0.000703936
0.000703914
0.000699615
0.000699619
0.000703934
0.000703917
0.000699615
0.000708455
0.000712766
0.000708459
0.000712773
0.000708446
0.000708451
0.000708456
0.00071277
0.000712753
0.000712772
0.000708451
0.000708455
0.000703938
0.00069961
0.000703926
0.00070393
0.000699619
0.000708458
0.000703933
0.000703936
0.000703914
0.000699619
0.000699614
0.000703917
0.000703934
0.000699615
0.000708455
0.000712766
0.000708459
0.000712773
0.000708446
0.000708451
0.000708456
0.000712753
0.00071277
0.000712772
0.000708455
0.000708451
0.000703938
0.00069961
0.000703926
0.00070393
0.000699619
0.000708458
0.000703934
0.00070394
0.000699617
0.000699617
0.000703943
0.000703943
0.000699608
0.000708475
0.000712704
0.000712764
0.000708452
0.000712737
0.000708505
0.00070846
0.000708475
0.000712704
0.000712765
0.000708452
0.000712738
0.000708505
0.00070846
0.000708444
0.000712779
0.000712779
0.000712775
0.000708453
0.000708453
0.000703902
0.000699624
0.000703926
0.000699669
0.000703868
0.000703929
0.000699639
0.000703902
0.000699624
0.000703926
0.000699668
0.000703868
0.000703929
0.000699639
0.000739266
0.000739266
0.000739272
0.000734953
0.000734953
0.000739276
0.000739276
0.000734943
0.000739235
0.00073496
0.000739258
0.000735005
0.000739262
0.000734975
0.000739201
0.000739235
0.00073496
0.000739258
0.000735005
0.000739262
0.000734975
0.000739201
0.000721603
0.000726126
0.000721603
0.000726125
0.000726112
0.000730445
0.000730445
0.000730442
0.000726121
0.000726121
0.000721571
0.00071734
0.000721595
0.000717295
0.000721598
0.000721537
0.00071731
0.000721571
0.00071734
0.000721595
0.000717295
0.000721598
0.000721538
0.00071731
0.000726143
0.000730431
0.00073037
0.00072612
0.000730404
0.000726128
0.000726173
0.000726143
0.000730431
0.00073037
0.00072612
0.000730404
0.000726128
0.000726173
0.000721609
0.000717288
0.000717288
0.000721613
0.000721613
0.000717279
0.000726119
0.000730436
0.000730419
0.000726124
0.000730438
0.000726118
0.000726123
0.000721607
0.000721596
0.000717281
0.00071729
0.0007216
0.000726123
0.000730432
0.000726126
0.00073044
0.000726114
0.000721606
0.000721584
0.000717285
0.00071729
0.000717285
0.000721604
0.000721587
0.000726118
0.000730436
0.000730419
0.000726124
0.000730438
0.000726118
0.000726123
0.000721607
0.000721595
0.000717281
0.0007216
0.000717289
0.000726123
0.000730432
0.000726127
0.000730439
0.000726114
0.000721606
0.000721584
0.000717285
0.00071729
0.000721604
0.000721587
0.000717285
0.000721603
0.000726125
0.000721571
0.00071734
0.000721595
0.000717295
0.000721538
0.000721598
0.00071731
0.000721571
0.000717339
0.000721595
0.000717295
0.000721598
0.000721537
0.00071731
0.00073037
0.00072612
0.000726173
0.000721609
0.000717288
0.000717287
0.000721612
0.000721612
0.000717279
0.000721603
0.000726119
0.000730419
0.000730436
0.000726124
0.000730438
0.000726123
0.000726118
0.000721607
0.000721596
0.000717281
0.000717289
0.0007216
0.000726123
0.000730432
0.000726126
0.00073044
0.000726114
0.000721605
0.000721583
0.00071729
0.000717285
0.000717285
0.000721586
0.000721603
0.000726119
0.000730436
0.000730419
0.000726124
0.000730438
0.000726118
0.000726123
0.000721607
0.000721595
0.00071728
0.0007216
0.000717289
0.000726123
0.000730432
0.000726126
0.00073044
0.000726114
0.000721606
0.000721583
0.000717285
0.000717289
0.000721604
0.000721587
0.000717285
0.000721607
0.000721595
0.000717281
0.000721599
0.000717289
0.000721605
0.000721583
0.00071729
0.000717285
0.000721585
0.000721603
0.000717286
0.000721607
0.000721595
0.00071728
0.000721599
0.000717289
0.000721605
0.000721583
0.000717285
0.000717289
0.000721603
0.000721586
0.000717285
0.000721603
0.000726125
0.000726112
0.000730445
0.000730445
0.000730442
0.000726121
0.000726121
0.000721572
0.000717339
0.000721595
0.000717295
0.000721538
0.000721598
0.00071731
0.000721572
0.00071734
0.000721595
0.000717295
0.000721598
0.000721538
0.00071731
0.000726143
0.000730431
0.000730371
0.00072612
0.000726172
0.000730404
0.000726128
0.000726143
0.000730431
0.00073037
0.00072612
0.000730404
0.000726128
0.000726173
0.000721609
0.000717288
0.000717288
0.000721613
0.000721613
0.000717278
0.000721603
0.000726125
0.000726118
0.000730419
0.000730436
0.000726125
0.000730438
0.000726123
0.000726118
0.000721607
0.000721596
0.000717281
0.0007216
0.00071729
0.000726123
0.000730432
0.000726127
0.000730439
0.000726114
0.000721606
0.000721583
0.00071729
0.000717285
0.000721587
0.000721604
0.000717286
0.000726118
0.000730418
0.000730436
0.000726125
0.000730438
0.000726123
0.000726118
0.000721607
0.000721596
0.000717281
0.0007216
0.000717289
0.000726122
0.000730432
0.000726126
0.00073044
0.000726114
0.000721606
0.000721583
0.00071729
0.000717286
0.000721586
0.000721603
0.000717285
0.000726111
0.000726121
0.000726121
0.000721571
0.000717339
0.000721595
0.000717295
0.00071731
0.000721538
0.000721598
0.000721572
0.00071734
0.000721595
0.000717295
0.00071731
0.000721538
0.000721598
0.000726143
0.00072612
0.000726173
0.000726128
0.000726143
0.00073037
0.00072612
0.000726173
0.000726128
0.000721609
0.000717288
0.000717288
0.000717278
0.000721613
0.000721613
0.000721603
0.000726126
0.000721603
0.000726125
0.000708458
0.000703933
0.000708458
0.000703933
0.00070394
0.000699617
0.000699617
0.000703943
0.000703943
0.000699608
0.000708475
0.000712704
0.000712765
0.000708452
0.000712737
0.00070846
0.000708505
0.000708475
0.000712704
0.000712764
0.000708452
0.000712737
0.00070846
0.000708505
0.000708444
0.000712779
0.000712779
0.000712775
0.000708453
0.000708453
0.000703902
0.000699624
0.000703925
0.000699668
0.000703929
0.000699639
0.000703868
0.000703902
0.000699624
0.000703926
0.000699668
0.000703929
0.000699639
0.000703868
0.000690784
0.000690784
0.00069077
0.000695106
0.000695106
0.000695103
0.000690779
0.000690779
0.000690801
0.000695092
0.000695031
0.000690778
0.000695065
0.000690786
0.00069083
0.000690801
0.000695092
0.000695031
0.000690778
0.000695065
0.000690786
0.00069083
0.000703936
0.000703914
0.000699615
0.000699619
0.000703934
0.000703917
0.000699615
0.000708455
0.000712766
0.000708459
0.000712773
0.000708446
0.000708451
0.000708456
0.00071277
0.000712753
0.000708451
0.000712772
0.000708455
0.000703938
0.00069961
0.000703926
0.00070393
0.000699619
0.000690777
0.000695097
0.00069508
0.000690782
0.000695099
0.000690777
0.000690781
0.000690781
0.000695093
0.000690785
0.000695101
0.000690772
0.000690777
0.000695097
0.00069508
0.000690782
0.000695099
0.000690777
0.000690781
0.000690781
0.000695093
0.000690785
0.000695101
0.000690772
0.00070394
0.000699617
0.000699617
0.000703943
0.000703943
0.000699608
0.000708475
0.000712704
0.000712764
0.000708453
0.00070846
0.000712738
0.000708505
0.000708475
0.000712704
0.000712764
0.000708452
0.000708505
0.000712737
0.00070846
0.000708444
0.000712778
0.000712778
0.000708453
0.000712775
0.000708453
0.000703902
0.000699624
0.000703925
0.000699668
0.000703929
0.000703868
0.000699639
0.000703902
0.000699624
0.000703926
0.000699669
0.000703868
0.000703929
0.000699639
0.000708458
0.000703933
0.000690784
0.00069077
0.000695106
0.000695106
0.000695103
0.000690779
0.000690779
0.000690801
0.000695092
0.000695031
0.000690778
0.00069083
0.000695065
0.000690786
0.000690801
0.000695092
0.000695031
0.000690778
0.000695065
0.000690786
0.000690831
0.000690784
0.000703936
0.000703914
0.000699614
0.000699619
0.000703934
0.000703917
0.000699615
0.000708455
0.000712766
0.000708459
0.000712773
0.000708446
0.000708451
0.000708456
0.00071277
0.000712753
0.000708451
0.000712772
0.000708455
0.000703938
0.00069961
0.000703926
0.00070393
0.000699619
0.000690777
0.00069508
0.000695097
0.000690782
0.000695099
0.000690781
0.000690777
0.000690781
0.000695093
0.000690785
0.000695101
0.000690772
0.000690777
0.000695097
0.00069508
0.000690782
0.000695099
0.000690777
0.000690781
0.000690781
0.000695093
0.000690785
0.000695101
0.000690772
0.000703936
0.000703914
0.00069962
0.000699615
0.000703916
0.000703934
0.000699615
0.000708455
0.000712765
0.000708459
0.000708447
0.000712773
0.000708451
0.000708457
0.000712752
0.000712769
0.000708456
0.000712771
0.000708451
0.000703938
0.00069961
0.000703926
0.00070393
0.000699619
0.000703936
0.000703914
0.000699615
0.000699619
0.000703934
0.000703917
0.000699615
0.000708455
0.000712766
0.000708459
0.000712773
0.000708446
0.000708451
0.000708456
0.00071277
0.000712752
0.000712772
0.000708451
0.000708455
0.000703938
0.00069961
0.000703926
0.00070393
0.000699619
0.000690777
0.000695079
0.000695097
0.000690783
0.000695099
0.000690782
0.000690777
0.000690781
0.000695093
0.000690785
0.000695101
0.000690773
0.000690777
0.000695097
0.00069508
0.000690782
0.000695099
0.000690777
0.000690781
0.000690781
0.000695093
0.000690785
0.000695101
0.000690772
0.00070394
0.000699617
0.000699617
0.000703943
0.000703944
0.000699608
0.000708475
0.000712705
0.000712765
0.000708452
0.00070846
0.000712738
0.000708504
0.000708475
0.000712704
0.000712765
0.000708452
0.000708505
0.000712738
0.00070846
0.000708444
0.000712779
0.000712779
0.000708453
0.000712775
0.000708453
0.000703902
0.000699624
0.000703926
0.000699668
0.000703929
0.000703869
0.000699639
0.000703902
0.000699624
0.000703926
0.000699669
0.000703868
0.000703929
0.000699639
0.000708458
0.000703934
0.000690784
0.00069077
0.000695106
0.000695106
0.000695103
0.000690779
0.000690779
0.000690801
0.000695092
0.000695032
0.000690778
0.00069083
0.000695065
0.000690786
0.000690801
0.000695092
0.000695031
0.000690778
0.000695065
0.000690786
0.00069083
0.000690784
0.000703937
0.000703914
0.000699619
0.000699615
0.000703918
0.000703934
0.000699615
0.000708455
0.000712766
0.000708459
0.000708446
0.000712774
0.000708451
0.000708457
0.000712753
0.00071277
0.000708455
0.000712772
0.000708451
0.000703938
0.00069961
0.000703926
0.000703931
0.000699619
0.000703936
0.000703913
0.000699619
0.000699615
0.000703917
0.000703934
0.000699615
0.000708455
0.000712766
0.000708459
0.000712773
0.000708446
0.000708451
0.000708457
0.000712752
0.00071277
0.000712772
0.000708456
0.000708451
0.000703938
0.00069961
0.000703926
0.00070393
0.000699619
0.000690777
0.00069508
0.000695097
0.000690783
0.000695099
0.000690781
0.000690777
0.000690781
0.000695094
0.000690785
0.000695101
0.000690772
0.000690777
0.00069508
0.000695097
0.000690783
0.000695099
0.000690781
0.000690777
0.000690781
0.000695093
0.000690785
0.000695101
0.000690772
0.000708458
0.000703934
0.000708458
0.000703934
0.00069077
0.000695107
0.000695106
0.000695103
0.000690779
0.000690779
0.000690801
0.000695092
0.000695031
0.000690778
0.000695065
0.000690831
0.000690786
0.000690801
0.000695092
0.000695031
0.000690778
0.000695065
0.00069083
0.000690786
0.000690784
0.000690784
0.000737173
0.000710702
0.000710702
0.000701833
0.000701864
0.000701864
0.000701909
0.000710747
0.000708576
0.000712473
0.000712474
0.000709006
0.000712636
0.000708749
0.000708748
0.000721469
0.000721028
0.000717584
0.000717584
0.000721307
0.000721308
0.000717411
0.000721468
0.000721027
0.000717584
0.000717583
0.000721308
0.000721305
0.000717411
0.00072147
0.000721029
0.000717584
0.000717584
0.000721307
0.000721308
0.000717411
0.00072147
0.000721029
0.000717584
0.000717584
0.000717411
0.000721308
0.000721308
0.000708576
0.000712473
0.000712474
0.000709007
0.000712635
0.000708749
0.000708748
0.000708576
0.000712473
0.000712473
0.000709007
0.000708749
0.000712636
0.000708749
0.000708576
0.000712473
0.000712474
0.000709007
0.000708749
0.000712636
0.000708749
0.00072834
0.000719538
0.000719538
0.000728373
0.000728373
0.00072842
0.000719584
0.00072834
0.000719538
0.000719539
0.000728373
0.000728371
0.00072842
0.000719584
0.000728341
0.000719538
0.000719539
0.000728373
0.000728374
0.00072842
0.000719584
0.00072834
0.000719538
0.000719538
0.000728371
0.000728373
0.00072842
0.000719584
0.000710702
0.000710702
0.000701832
0.000701864
0.000701864
0.000701909
0.000710747
0.000710702
0.000710702
0.000701832
0.000701864
0.000701864
0.000701909
0.000710747
0.000710702
0.000710702
0.000701832
0.000701864
0.000701864
0.000701909
0.000710747
0.000692994
0.000693025
0.000693025
0.00069307
0.000692993
0.000693025
0.000693025
0.000693069
0.000692994
0.000693025
0.000693025
0.00069307
0.000692994
0.000693025
0.000693025
0.000693069
0.000703597
0.000703829
0.000699699
0.000699937
0.000703834
0.000703599
0.000699942
0.00070874
0.000712565
0.000712684
0.000708494
0.000712461
0.000708655
0.00070852
0.000708779
0.000708538
0.000712669
0.000712435
0.000712433
0.000708535
0.000708773
0.000703625
0.000699684
0.000703879
0.000699818
0.000703729
0.000703849
0.000699903
0.000703597
0.000703829
0.000699937
0.000699698
0.000703599
0.000703834
0.000699942
0.000708739
0.000712565
0.000712685
0.000708494
0.000712461
0.000708655
0.00070852
0.000708779
0.000708538
0.000712435
0.00071267
0.000712433
0.000708774
0.000708535
0.000703625
0.000699684
0.000703879
0.000699818
0.00070373
0.000703849
0.000699903
0.0007038
0.000703358
0.000699912
0.000699912
0.000703637
0.000703638
0.000699739
0.000739133
0.000738693
0.00073525
0.000735249
0.000735076
0.000738971
0.000738972
0.000726244
0.000726676
0.00073014
0.000730141
0.000730302
0.000726418
0.000726417
0.000738959
0.00073502
0.000739212
0.000735155
0.000739181
0.000739063
0.00073524
0.000726448
0.000730336
0.000730102
0.000726207
0.0007301
0.000726203
0.000726443
0.000721295
0.000717489
0.000721548
0.000717355
0.0007214
0.000721518
0.000717575
0.000726408
0.000730351
0.000730232
0.000726162
0.000726323
0.000730128
0.000726188
0.000721268
0.000721499
0.00071737
0.000717609
0.000721504
0.00072127
0.000717614
0.000726448
0.000730336
0.000730102
0.000726207
0.0007301
0.000726203
0.000726443
0.000721295
0.000717489
0.000721548
0.000717355
0.000721518
0.000721398
0.000717575
0.000726408
0.00073035
0.000730232
0.000726162
0.000730127
0.000726188
0.000726323
0.000721267
0.000721499
0.00071737
0.000717609
0.000721504
0.000721269
0.000717614
0.000726677
0.000730138
0.000726418
0.000739211
0.000735155
0.000739063
0.000726448
0.000730336
0.000730102
0.000726206
0.0007301
0.000726203
0.000726443
0.000721295
0.000717489
0.000721548
0.000717355
0.000721399
0.000721518
0.000717575
0.000726408
0.000730351
0.000730232
0.000726162
0.000726323
0.000730128
0.000726188
0.000721267
0.000721499
0.00071737
0.000717609
0.000721503
0.000721269
0.000717614
0.000726447
0.000730102
0.000730337
0.000726206
0.0007301
0.000726442
0.000726203
0.000721295
0.000717489
0.000721548
0.000717354
0.000721519
0.000721399
0.000717574
0.000726408
0.000730351
0.000730232
0.000726161
0.000730128
0.000726187
0.000726322
0.000721268
0.000721499
0.000717609
0.000717369
0.000721269
0.000721504
0.000717614
0.000721295
0.000717489
0.000721547
0.000717355
0.000717574
0.000721398
0.000721518
0.000721267
0.000721499
0.00071737
0.000717608
0.000717613
0.000721503
0.000721269
0.000721295
0.000717489
0.000721548
0.000717355
0.000721518
0.000721399
0.000717574
0.000721267
0.000721499
0.000717608
0.00071737
0.000721269
0.000721503
0.000717613
0.000726244
0.000726676
0.00073014
0.00073014
0.000726417
0.000730302
0.000726417
0.000726448
0.000730103
0.000730336
0.000726207
0.000730101
0.000726443
0.000726203
0.000721296
0.00071749
0.000721548
0.000717355
0.000717575
0.0007214
0.000721518
0.000726408
0.000730351
0.000730232
0.000726162
0.000730128
0.000726323
0.000726188
0.000721268
0.000721499
0.000717609
0.00071737
0.000717614
0.00072127
0.000721504
0.000726448
0.000730103
0.000730336
0.000726207
0.0007301
0.000726443
0.000726203
0.000721295
0.00071749
0.000721548
0.000717355
0.000721518
0.000721399
0.000717575
0.000726408
0.000730351
0.000730232
0.000726162
0.000730128
0.000726188
0.000726323
0.000721267
0.000721499
0.000717609
0.00071737
0.00072127
0.000721503
0.000717614
0.000726244
0.000726675
0.000730137
0.00072642
0.000726416
0.000703799
0.000703358
0.000699912
0.000699912
0.000699739
0.000703637
0.000703638
0.000690901
0.000691332
0.0006948
0.000694801
0.000694962
0.000691074
0.000691073
0.000703597
0.000703829
0.000699699
0.000699937
0.000703834
0.000703599
0.000699942
0.00070874
0.000712565
0.000712684
0.000708494
0.00070852
0.000712461
0.000708654
0.000708779
0.000708538
0.000712669
0.000712435
0.000708535
0.000712433
0.000708773
0.000703625
0.000699684
0.000703879
0.000699818
0.000703848
0.00070373
0.000699903
0.000703597
0.000703829
0.000699698
0.000699937
0.000703834
0.000703599
0.000699942
0.00070874
0.000712564
0.000712684
0.000708494
0.00071246
0.00070852
0.000708655
0.000708779
0.000708538
0.000712669
0.000712435
0.000712433
0.000708535
0.000708773
0.000703624
0.000699684
0.000703878
0.000699818
0.000703849
0.000699903
0.000703729
0.000691104
0.000694997
0.000694762
0.000690863
0.00069476
0.00069086
0.000691098
0.000691065
0.000695011
0.000694892
0.00069082
0.00069098
0.000694788
0.000690846
0.000691104
0.000694997
0.000694762
0.000690863
0.000694759
0.00069086
0.000691098
0.000691065
0.000695011
0.000694892
0.00069082
0.000694787
0.000690846
0.00069098
0.0007038
0.000703358
0.000699912
0.000699912
0.000703638
0.000703638
0.00069974
0.000690901
0.000691332
0.000694799
0.0006948
0.000691074
0.000694962
0.000691074
0.000703597
0.000703829
0.000699698
0.000699937
0.000703834
0.000703599
0.000699942
0.00070874
0.000712565
0.000712684
0.000708494
0.00070852
0.000712461
0.000708655
0.000708779
0.000708538
0.000712669
0.000712435
0.000708535
0.000712433
0.000708774
0.000703625
0.000699683
0.000703879
0.000699818
0.000703849
0.000703729
0.000699903
0.000703597
0.000703829
0.000699937
0.000699698
0.000703599
0.000703834
0.000699942
0.000708739
0.000712566
0.000712684
0.000708494
0.000712461
0.00070852
0.000708654
0.000708779
0.000708538
0.000712435
0.00071267
0.000712433
0.000708774
0.000708535
0.000703625
0.000699683
0.000703879
0.000699817
0.000703849
0.000699903
0.000703731
0.000691104
0.000694996
0.000694761
0.000690864
0.000694759
0.000690861
0.000691099
0.000691065
0.000695011
0.000694892
0.000690819
0.00069098
0.000694787
0.000690846
0.000691104
0.000694761
0.000694997
0.000690864
0.00069476
0.000691099
0.000690861
0.000691064
0.000695012
0.000694893
0.000690819
0.000694788
0.000690845
0.000690979
0.000703598
0.000703829
0.000699937
0.000699699
0.000703599
0.000703834
0.000699942
0.000708739
0.000712566
0.000712684
0.000708494
0.000708654
0.000712461
0.00070852
0.000708778
0.000708538
0.000712435
0.000712669
0.000708773
0.000712433
0.000708535
0.000703625
0.000699684
0.000703879
0.000699818
0.00070373
0.000703849
0.000699903
0.000691104
0.000694996
0.000694762
0.000690864
0.00069476
0.000690861
0.000691098
0.000691065
0.000695011
0.000694892
0.00069082
0.000694788
0.00069098
0.000690846
0.000691104
0.000694762
0.000694997
0.000690863
0.00069476
0.000691098
0.000690861
0.000691064
0.000695011
0.000694893
0.00069082
0.000694788
0.000690846
0.00069098
0.0007038
0.000703358
0.000699912
0.000699912
0.000703638
0.000703637
0.000699739
0.000690901
0.000691331
0.0006948
0.0006948
0.000691074
0.000694963
0.000691074
0.000703597
0.000703829
0.000699937
0.000699699
0.000703599
0.000703834
0.000699942
0.00070874
0.000712565
0.000712684
0.000708494
0.000708655
0.000712461
0.00070852
0.000708779
0.000708538
0.000712435
0.000712669
0.000708774
0.000712433
0.000708535
0.000703625
0.000699684
0.000703879
0.000699818
0.00070373
0.000703849
0.000699903
0.000691104
0.000694762
0.000694997
0.000690863
0.00069476
0.000691098
0.00069086
0.000691065
0.000695012
0.000694892
0.000690819
0.000694788
0.00069098
0.000690845
0.000691104
0.000694762
0.000694996
0.000690864
0.00069476
0.000691098
0.00069086
0.000691065
0.000695011
0.000694892
0.00069082
0.000694788
0.000690845
0.00069098
0.000690901
0.000691331
0.0006948
0.000694801
0.000694963
0.000691074
0.000691074
0.000675311
0.000675262
0.000675262
0.00067684
0.000639924
0.000639878
0.000639878
0.000641459
0.00060451
0.000604466
0.000604466
0.00060605
0.000569065
0.000569024
0.000569024
0.000570611
0.00053359
0.000533551
0.000533551
0.00053514
0.000498082
0.000498046
0.000498046
0.000499638
0.000462542
0.000462508
0.000462508
0.000464103
0.000426969
0.000426937
0.000426937
0.000428535
0.000391362
0.000391333
0.000391333
0.000392933
0.000355721
0.000355694
0.000355694
0.000357296
0.000320045
0.00032002
0.00032002
0.000321626
0.000284335
0.000284312
0.000284312
0.00028592
0.000248591
0.00024857
0.000248569
0.00025018
0.000212811
0.000212792
0.000212792
0.000214405
0.000176997
0.000176979
0.000176979
0.000178594
0.000141145
0.000141129
0.000141129
0.000142747
0.000105253
0.000105237
0.000105237
0.00010686
6.93305e-05
6.93e-05
6.92999e-05
7.09221e-05
3.40101e-05
3.34685e-05
3.34659e-05
3.49077e-05
1.09653e-05
7.24157e-06
7.23962e-06
5.70525e-06
0.000682491
0.000684103
0.000684103
0.000682492
0.000684103
0.000684103
0.000684103
0.000684103
0.000682491
0.000684103
0.000684103
0.000682491
0.00067684
0.000647114
0.000675262
0.000675262
0.000648727
0.000648727
0.00067684
0.000647115
0.000675262
0.000675262
0.000648727
0.000648727
0.000675262
0.000648727
0.000648727
0.00067684
0.000647114
0.000675262
0.000648727
0.000648727
0.000647114
0.000641459
0.000611709
0.000639878
0.000639878
0.000613322
0.000613322
0.000641459
0.000611709
0.000639878
0.000639878
0.000613322
0.000613322
0.000639878
0.000613322
0.000613322
0.000641459
0.000611709
0.000639878
0.000613322
0.000613322
0.000611709
0.00060605
0.000576274
0.000604466
0.000604466
0.000577887
0.000577888
0.00060605
0.000576274
0.000604466
0.000604466
0.000577888
0.000577888
0.000604466
0.000577887
0.000577888
0.00060605
0.000576274
0.000604466
0.000577888
0.000577888
0.000576274
0.00057061
0.000540808
0.000569024
0.000569024
0.000542422
0.000542422
0.00057061
0.000540808
0.000569024
0.000569024
0.000542422
0.000542422
0.000569024
0.000542422
0.000542422
0.00057061
0.000540808
0.000569024
0.000542422
0.000542422
0.000540808
0.00053514
0.00050531
0.000533551
0.000533551
0.000506925
0.000506925
0.00053514
0.000505311
0.000533551
0.000533551
0.000506925
0.000506925
0.000533551
0.000506925
0.000506925
0.00053514
0.00050531
0.000533551
0.000506925
0.000506925
0.00050531
0.000499638
0.00046978
0.000498046
0.000498046
0.000471396
0.000471396
0.000499638
0.00046978
0.000498046
0.000498046
0.000471396
0.000471396
0.000498046
0.000471396
0.000471396
0.000499638
0.000469779
0.000498046
0.000471396
0.000471396
0.000469779
0.000464103
0.000434216
0.000462508
0.000462508
0.000435833
0.000435833
0.000464102
0.000434216
0.000462508
0.000462508
0.000435833
0.000435833
0.000462508
0.000435833
0.000435833
0.000464103
0.000434216
0.000462508
0.000435832
0.000435833
0.000434216
0.000428534
0.000398619
0.000426937
0.000426937
0.000400237
0.000400236
0.000428534
0.000398619
0.000426937
0.000426937
0.000400236
0.000400237
0.000426937
0.000400236
0.000400237
0.000428534
0.000398619
0.000426937
0.000400237
0.000400237
0.000398619
0.000392932
0.000362988
0.000391333
0.000391333
0.000364606
0.000364606
0.000392932
0.000362988
0.000391333
0.000391333
0.000364606
0.000364606
0.000391333
0.000364606
0.000364606
0.000392933
0.000362987
0.000391333
0.000364606
0.000364606
0.000362987
0.000357296
0.000327322
0.000355694
0.000355694
0.000328941
0.000328941
0.000357296
0.000327322
0.000355694
0.000355694
0.000328941
0.000328941
0.000355694
0.000328941
0.000328941
0.000357296
0.000327322
0.000355694
0.000328941
0.000328941
0.000327322
0.000321625
0.000291622
0.00032002
0.00032002
0.000293242
0.000293242
0.000321625
0.000291622
0.00032002
0.00032002
0.000293241
0.000293241
0.00032002
0.000293242
0.000293242
0.000321625
0.000291621
0.00032002
0.000293241
0.000293241
0.000291621
0.00028592
0.000255887
0.000284312
0.000284312
0.000257507
0.000257507
0.00028592
0.000255887
0.000284312
0.000284312
0.000257507
0.000257507
0.000284312
0.000257507
0.000257507
0.00028592
0.000255887
0.000284312
0.000257507
0.000257507
0.000255887
0.00025018
0.000220117
0.000248569
0.00024857
0.000221738
0.000221738
0.00025018
0.000220118
0.000248569
0.000248569
0.000221738
0.000221738
0.000248569
0.000221738
0.000221738
0.00025018
0.000220117
0.000248569
0.000221738
0.000221738
0.000220117
0.000214405
0.000184313
0.000212792
0.000212792
0.000185934
0.000185934
0.000214404
0.000184314
0.000212792
0.000212792
0.000185934
0.000185934
0.000212792
0.000185934
0.000185934
0.000214405
0.000184313
0.000212792
0.000185934
0.000185934
0.000184313
0.000178594
0.000148473
0.000176979
0.000176979
0.000150094
0.000150094
0.000178594
0.000148474
0.000176979
0.000176979
0.000150094
0.000150094
0.000176979
0.000150094
0.000150094
0.000178594
0.000148473
0.000176979
0.000150094
0.000150094
0.000148473
0.000142747
0.000112594
0.000141129
0.000141129
0.000114215
0.000114215
0.000142747
0.000112594
0.000141128
0.000141129
0.000114215
0.000114215
0.000141129
0.000114215
0.000114215
0.000142747
0.000112594
0.000141129
0.000114215
0.000114215
0.000112594
0.000106859
7.6669e-05
0.000105237
0.000105237
7.82929e-05
7.82933e-05
0.000106859
7.66691e-05
0.000105237
0.000105237
7.82933e-05
7.82931e-05
0.000105237
7.82933e-05
7.82927e-05
0.00010686
7.66691e-05
0.000105237
7.82933e-05
7.82928e-05
7.66683e-05
7.09217e-05
4.06802e-05