/*--------------------------------*- C++ -*----------------------------------*\
| =========                 |                                                 |
| \\      /  F ield         | OpenFOAM: The Open Source CFD Toolbox           |
|  \\    /   O peration     | Version:  2312                                  |
|   \\  /    A nd           | Website:  www.openfoam.com                      |
|    \\/     M anipulation  |                                                 |
\*---------------------------------------------------------------------------*/
FoamFile
{
    version     2.0;
    format      ascii;
    arch        "LSB;label=32;scalar=64";
    class       volScalarField;
    location    "750";
    object      epsilon;
}
// * * * * * * * * * * * * * * * * * * * * * * * * * * * * * * * * * * * * * //

dimensions      [0 2 -3 0 0 0 0];

internalField   nonuniform List<scalar> 
42840
(
1.3133e-07
2.40749e-07
2.4077e-07
3.83138e-07
1.2995e-07
2.53393e-07
2.53415e-07
4.12261e-07
1.29351e-07
2.68067e-07
2.68092e-07
4.43651e-07
1.29534e-07
2.84702e-07
2.84732e-07
4.77386e-07
1.30475e-07
3.03215e-07
3.03251e-07
5.1235e-07
1.32178e-07
3.235e-07
3.23547e-07
5.48802e-07
1.3464e-07
3.4544e-07
3.45494e-07
5.86047e-07
1.37863e-07
3.68896e-07
3.68962e-07
6.23606e-07
1.41848e-07
3.93722e-07
3.93802e-07
6.61173e-07
1.46601e-07
4.19762e-07
4.19851e-07
6.98452e-07
1.52125e-07
4.46859e-07
4.4695e-07
7.3515e-07
1.58428e-07
4.74839e-07
4.74931e-07
7.70985e-07
1.65512e-07
5.03532e-07
5.03617e-07
8.05789e-07
1.73381e-07
5.32761e-07
5.32837e-07
8.39508e-07
1.82036e-07
5.62345e-07
5.62416e-07
8.72085e-07
1.91472e-07
5.92115e-07
5.92185e-07
9.03493e-07
2.01681e-07
6.21906e-07
6.21979e-07
9.33699e-07
2.12648e-07
6.51558e-07
6.51639e-07
9.62711e-07
2.24352e-07
6.80922e-07
6.81013e-07
9.90517e-07
2.36766e-07
7.09869e-07
7.09966e-07
1.01714e-06
2.49857e-07
7.38273e-07
7.38385e-07
1.04262e-06
2.63585e-07
7.66042e-07
7.66159e-07
1.06701e-06
2.77901e-07
7.9307e-07
7.93198e-07
1.09032e-06
2.92749e-07
8.19285e-07
8.19418e-07
1.1126e-06
3.08063e-07
8.44616e-07
8.44752e-07
1.13386e-06
3.84058e-07
4.04861e-07
2.4082e-07
2.40851e-07
2.50116e-07
2.50152e-07
3.83816e-07
4.04987e-07
2.40776e-07
2.4086e-07
2.5007e-07
2.50161e-07
2.40817e-07
2.50046e-07
2.50119e-07
3.84045e-07
4.04925e-07
2.408e-07
2.50066e-07
2.50105e-07
4.0613e-07
4.12708e-07
4.35796e-07
2.5347e-07
2.53509e-07
2.64297e-07
2.64339e-07
4.12729e-07
4.35597e-07
2.53426e-07
2.5352e-07
2.64246e-07
2.64349e-07
2.53469e-07
2.64217e-07
2.64303e-07
4.12829e-07
4.35963e-07
2.53449e-07
2.64239e-07
2.64284e-07
4.36909e-07
4.44174e-07
4.6929e-07
2.68155e-07
2.68199e-07
2.80461e-07
2.80508e-07
4.44598e-07
4.6875e-07
2.68104e-07
2.68211e-07
2.80403e-07
2.80519e-07
2.68152e-07
2.80369e-07
2.80469e-07
4.44268e-07
4.69362e-07
2.6813e-07
2.80396e-07
2.80443e-07
4.7027e-07
4.77756e-07
5.03926e-07
2.84806e-07
2.8485e-07
2.98528e-07
2.98577e-07
4.77984e-07
5.03983e-07
2.84747e-07
2.84865e-07
2.98462e-07
2.98591e-07
2.84803e-07
2.98421e-07
2.98537e-07
4.77855e-07
5.03993e-07
2.84774e-07
2.98455e-07
2.98503e-07
5.04659e-07
5.13052e-07
5.3937e-07
3.03334e-07
3.0338e-07
3.184e-07
3.18447e-07
5.12884e-07
5.40179e-07
3.03265e-07
3.03396e-07
3.18322e-07
3.18461e-07
3.03333e-07
3.18274e-07
3.18408e-07
5.13133e-07
5.40092e-07
3.03295e-07
3.18317e-07
3.18365e-07
5.40922e-07
5.49884e-07
5.76424e-07
3.23637e-07
3.2368e-07
3.39954e-07
3.39998e-07
5.4954e-07
5.76877e-07
3.23555e-07
3.23699e-07
3.39864e-07
3.40017e-07
3.23636e-07
3.39812e-07
3.39964e-07
5.49395e-07
5.77087e-07
3.2359e-07
3.39864e-07
3.39912e-07
5.77936e-07
5.87017e-07
6.14633e-07
3.4559e-07
3.45631e-07
3.6306e-07
3.631e-07
5.86833e-07
6.14805e-07
3.45498e-07
3.45656e-07
3.62961e-07
3.63124e-07
3.45595e-07
3.62903e-07
3.63073e-07
5.86564e-07
6.14491e-07
3.45542e-07
3.62963e-07
3.63015e-07
6.15337e-07
6.24411e-07
6.52331e-07
3.69059e-07
3.691e-07
3.87573e-07
3.87608e-07
6.24336e-07
6.5218e-07
3.6896e-07
3.69131e-07
3.87465e-07
3.87642e-07
3.69069e-07
3.87395e-07
3.87589e-07
6.24301e-07
6.52097e-07
3.69012e-07
3.87473e-07
3.87527e-07
6.53163e-07
6.61899e-07
6.89715e-07
3.93899e-07
3.93933e-07
4.13335e-07
4.13369e-07
6.61734e-07
6.8953e-07
3.93792e-07
3.93977e-07
4.13215e-07
4.13407e-07
3.93911e-07
4.13146e-07
4.13357e-07
6.61871e-07
6.8935e-07
3.93848e-07
4.13235e-07
4.13291e-07
6.90791e-07
6.98993e-07
7.26449e-07
4.19946e-07
4.19985e-07
4.40189e-07
4.40221e-07
6.98958e-07
7.25846e-07
4.1983e-07
4.20027e-07
4.40057e-07
4.40266e-07
4.1997e-07
4.39994e-07
4.40218e-07
6.99343e-07
7.25537e-07
4.19901e-07
4.40086e-07
4.40146e-07
7.27609e-07
7.3566e-07
7.61803e-07
4.47048e-07
4.47085e-07
4.67966e-07
4.67996e-07
7.36092e-07
7.61292e-07
4.46923e-07
4.47133e-07
4.67825e-07
4.68047e-07
4.47077e-07
4.6777e-07
4.68005e-07
7.36683e-07
7.61486e-07
4.47002e-07
4.67861e-07
4.67923e-07
7.63599e-07
7.71835e-07
7.96299e-07
4.75031e-07
4.75062e-07
4.96495e-07
4.96524e-07
7.72689e-07
7.9644e-07
4.74895e-07
4.75121e-07
4.96345e-07
4.9658e-07
4.75066e-07
4.963e-07
4.96537e-07
7.72876e-07
7.96545e-07
4.74982e-07
4.96389e-07
4.96449e-07
7.98568e-07
8.07334e-07
8.30305e-07
5.03722e-07
5.03752e-07
5.25602e-07
5.25627e-07
8.07718e-07
8.30455e-07
5.03576e-07
5.03809e-07
5.25442e-07
5.25686e-07
5.0376e-07
5.25411e-07
5.25646e-07
8.07803e-07
8.30505e-07
5.03666e-07
5.25491e-07
5.25541e-07
8.32453e-07
8.41332e-07
8.632e-07
5.32945e-07
5.32974e-07
5.55117e-07
5.55135e-07
8.41549e-07
8.6325e-07
5.32791e-07
5.33029e-07
5.54946e-07
5.55195e-07
5.32986e-07
5.54922e-07
5.55157e-07
8.41594e-07
8.63298e-07
5.32877e-07
5.54998e-07
5.55041e-07
8.65214e-07
8.7402e-07
8.94816e-07
5.62535e-07
5.62554e-07
5.84861e-07
5.84871e-07
8.74164e-07
8.94854e-07
5.62369e-07
5.62605e-07
5.84678e-07
5.84928e-07
5.62573e-07
5.84663e-07
5.84903e-07
8.74183e-07
8.94891e-07
5.62452e-07
5.84735e-07
5.84774e-07
8.9677e-07
9.05457e-07
9.25268e-07
5.92311e-07
5.92319e-07
6.14666e-07
6.14666e-07
9.0551e-07
9.25248e-07
5.92134e-07
5.92368e-07
6.14474e-07
6.14721e-07
5.92348e-07
6.14463e-07
6.14705e-07
9.05574e-07
9.25318e-07
5.92212e-07
6.14537e-07
6.14569e-07
9.2715e-07
9.35661e-07
9.54482e-07
6.22105e-07
6.22102e-07
6.44371e-07
6.44359e-07
9.35701e-07
9.54473e-07
6.21919e-07
6.22152e-07
6.44173e-07
6.44415e-07
6.22143e-07
6.44162e-07
6.44413e-07
9.35783e-07
9.54537e-07
6.21998e-07
6.44243e-07
6.44264e-07
9.56326e-07
9.64641e-07
9.82497e-07
6.51763e-07
6.51744e-07
6.73826e-07
6.73793e-07
9.647e-07
9.82475e-07
6.5157e-07
6.51798e-07
6.7362e-07
6.73858e-07
6.51803e-07
6.73611e-07
6.73868e-07
9.64759e-07
9.82562e-07
6.51644e-07
6.73702e-07
6.73709e-07
9.84329e-07
9.92401e-07
1.00937e-06
6.81137e-07
6.811e-07
7.02885e-07
7.02852e-07
9.92441e-07
1.00931e-06
6.80932e-07
6.8116e-07
7.02681e-07
7.02914e-07
6.81174e-07
7.02672e-07
7.02934e-07
9.92502e-07
1.00939e-06
6.81005e-07
7.0277e-07
7.02763e-07
1.01113e-06
1.01893e-06
1.03506e-06
7.10078e-07
7.10041e-07
7.31428e-07
7.31399e-07
1.01899e-06
1.03498e-06
7.09877e-07
7.10103e-07
7.31231e-07
7.31464e-07
7.10124e-07
7.31222e-07
7.31492e-07
1.01901e-06
1.0351e-06
7.09945e-07
7.31334e-07
7.31311e-07
1.0368e-06
1.04434e-06
1.06011e-06
7.38481e-07
7.38445e-07
7.59363e-07
7.59329e-07
1.04442e-06
1.05961e-06
7.38282e-07
7.38507e-07
7.59162e-07
7.59394e-07
7.38537e-07
7.59161e-07
7.59427e-07
1.04442e-06
1.05968e-06
7.38347e-07
7.59279e-07
7.59239e-07
1.06137e-06
1.06757e-06
1.0849e-06
7.6624e-07
7.66204e-07
7.86577e-07
7.86539e-07
1.06873e-06
1.08312e-06
7.6604e-07
7.66267e-07
7.86372e-07
7.86608e-07
7.66302e-07
7.86383e-07
7.86645e-07
1.06876e-06
1.08323e-06
7.66105e-07
7.86511e-07
7.86452e-07
1.08487e-06
1.09028e-06
1.10733e-06
7.93267e-07
7.93224e-07
8.12998e-07
8.12955e-07
1.09196e-06
1.10589e-06
7.93063e-07
7.93292e-07
8.12789e-07
8.13025e-07
7.93331e-07
8.12809e-07
8.13069e-07
1.09208e-06
1.10599e-06
7.93129e-07
8.12943e-07
8.12869e-07
1.10733e-06
1.11256e-06
1.12842e-06
8.19476e-07
8.19426e-07
8.38554e-07
8.38503e-07
1.1135e-06
1.12807e-06
8.19268e-07
8.19498e-07
8.38344e-07
8.38574e-07
8.19543e-07
8.38367e-07
8.38629e-07
1.11358e-06
1.12819e-06
8.19339e-07
8.38505e-07
8.38424e-07
1.1288e-06
1.1338e-06
8.44803e-07
8.44749e-07
1.13432e-06
8.44593e-07
8.44819e-07
8.44878e-07
1.13435e-06
8.44671e-07
3.75903e-06
8.92055e-06
8.92543e-06
3.73469e-06
1.84403e-05
1.8433e-05
3.75872e-06
8.92181e-06
8.92668e-06
3.73504e-06
1.31333e-07
1.31337e-07
1.31336e-07
1.30231e-07
1.30234e-07
1.30239e-07
1.30238e-07
1.24177e-06
2.86812e-06
1.59582e-07
2.43728e-07
2.88991e-06
1.60134e-07
1.21411e-06
1.8441e-05
1.84338e-05
1.24176e-06
1.59607e-07
2.86925e-06
2.4374e-07
1.60136e-07
2.88869e-06
1.21436e-06
5.1712e-06
5.17166e-06
3.91697e-07
5.17853e-06
5.18187e-06
3.81868e-06
8.93049e-06
3.80001e-06
8.93482e-06
1.84135e-05
1.8407e-05
3.81873e-06
8.9317e-06
3.80021e-06
8.93604e-06
1.29953e-07
1.29958e-07
1.29957e-07
1.29443e-07
1.29447e-07
1.29452e-07
1.29452e-07
1.32284e-06
2.9299e-06
1.62232e-07
2.56881e-07
1.29592e-06
2.94915e-06
1.63122e-07
1.84143e-05
1.84078e-05
1.32292e-06
1.62263e-07
2.93104e-06
2.56897e-07
1.29618e-06
1.63127e-07
2.94793e-06
5.19901e-06
5.19999e-06
4.21283e-07
5.20523e-06
5.20809e-06
3.86377e-06
8.93912e-06
3.85094e-06
8.94297e-06
1.83891e-05
1.83834e-05
3.8646e-06
8.94032e-06
3.85039e-06
8.94419e-06
1.29354e-07
1.29359e-07
1.29359e-07
1.2942e-07
1.29423e-07
1.29429e-07
1.29428e-07
1.39808e-06
2.98437e-06
1.66228e-07
2.72054e-07
1.37419e-06
3.00124e-06
1.67461e-07
1.83899e-05
1.83842e-05
1.39889e-06
1.66263e-07
2.98544e-06
2.72073e-07
1.37374e-06
1.67467e-07
3.0001e-06
5.22281e-06
5.22374e-06
4.53339e-07
5.22803e-06
5.23046e-06
3.89857e-06
8.94662e-06
3.88921e-06
8.94999e-06
1.83672e-05
1.83622e-05
3.89942e-06
8.94786e-06
3.88856e-06
8.95121e-06
1.29537e-07
1.29543e-07
1.29544e-07
1.30168e-07
1.30172e-07
1.30179e-07
1.3018e-07
1.46848e-06
3.03234e-06
1.71586e-07
2.89166e-07
1.44671e-06
3.04722e-06
1.73161e-07
1.83679e-05
1.83629e-05
1.46858e-06
1.71624e-07
3.03334e-06
2.89198e-07
1.44667e-06
1.73167e-07
3.04607e-06
5.24274e-06
5.24406e-06
4.87071e-07
5.24711e-06
5.24943e-06
3.92499e-06
8.95314e-06
3.91814e-06
8.95611e-06
1.83474e-05
1.83432e-05
3.9258e-06
8.95444e-06
3.91752e-06
8.95737e-06
1.30478e-07
1.30486e-07
1.30486e-07
1.31681e-07
1.31684e-07
1.31693e-07
1.31694e-07
1.53307e-06
3.07465e-06
1.7831e-07
3.08131e-07
1.51314e-06
3.08777e-06
1.80231e-07
1.83481e-05
1.83438e-05
1.53308e-06
1.78351e-07
3.07563e-06
3.08172e-07
1.51331e-06
1.80238e-07
3.0867e-06
5.25978e-06
5.26111e-06
5.22641e-07
5.26373e-06
5.26563e-06
3.94516e-06
8.959e-06
3.94019e-06
8.96171e-06
1.83297e-05
1.83263e-05
3.94595e-06
8.96036e-06
3.93962e-06
8.96299e-06
1.3218e-07
1.3219e-07
1.32191e-07
1.33954e-07
1.33956e-07
1.33967e-07
1.33968e-07
1.59176e-06
3.1121e-06
1.86403e-07
3.2884e-07
1.57306e-06
3.12374e-06
1.88668e-07
1.83304e-05
1.83269e-05
1.59174e-06
1.86453e-07
3.11306e-06
3.28891e-07
1.57317e-06
1.88681e-07
3.12271e-06
5.27428e-06
5.27568e-06
5.59196e-07
5.27779e-06
5.27959e-06
3.96078e-06
8.96448e-06
3.95721e-06
8.96707e-06
1.83142e-05
1.83115e-05
3.96159e-06
8.9659e-06
3.95666e-06
8.96835e-06
1.34642e-07
1.34654e-07
1.34656e-07
1.36987e-07
1.36987e-07
1.37001e-07
1.37004e-07
1.64412e-06
3.1454e-06
1.95857e-07
3.51171e-07
1.62717e-06
3.15576e-06
1.98462e-07
1.83149e-05
1.83122e-05
1.64398e-06
1.95916e-07
3.14633e-06
3.51231e-07
1.62748e-06
1.98484e-07
3.1548e-06
5.28694e-06
5.28852e-06
5.96576e-07
5.29008e-06
5.29184e-06
3.97341e-06
8.96984e-06
3.97038e-06
8.97243e-06
1.83009e-05
1.8299e-05
3.97372e-06
8.97129e-06
3.97016e-06
8.97368e-06
1.37865e-07
1.37879e-07
1.37882e-07
1.40783e-07
1.40781e-07
1.40798e-07
1.40802e-07
1.69089e-06
3.17522e-06
2.06651e-07
3.74982e-07
1.67582e-06
3.1845e-06
2.09589e-07
1.83016e-05
1.82997e-05
1.69079e-06
2.06719e-07
3.17611e-06
3.75056e-07
1.67597e-06
2.09622e-07
3.1836e-06
5.29826e-06
5.29992e-06
6.34197e-07
5.30108e-06
5.30285e-06
3.98336e-06
8.97527e-06
3.98096e-06
8.97796e-06
1.82899e-05
1.82889e-05
3.98371e-06
8.9767e-06
3.98082e-06
8.97923e-06
1.41849e-07
1.41867e-07
1.4187e-07
1.45343e-07
1.45341e-07
1.45362e-07
1.45366e-07
1.73226e-06
3.20213e-06
2.18759e-07
4.00125e-07
1.7196e-06
3.21052e-06
2.22025e-07
1.82906e-05
1.82896e-05
1.73272e-06
2.18842e-07
3.20299e-06
4.00212e-07
1.71947e-06
2.22065e-07
3.20966e-06
5.30861e-06
5.3103e-06
6.72014e-07
5.3112e-06
5.31297e-06
3.99188e-06
8.98092e-06
3.98985e-06
8.98384e-06
1.82813e-05
1.82811e-05
3.9921e-06
8.9823e-06
3.98991e-06
8.98517e-06
1.46601e-07
1.46622e-07
1.46627e-07
1.50675e-07
1.50672e-07
1.50696e-07
1.50701e-07
1.76982e-06
3.22679e-06
2.3215e-07
4.26445e-07
1.75853e-06
3.2341e-06
2.3573e-07
1.8282e-05
1.82818e-05
1.77032e-06
2.32243e-07
3.22746e-06
4.26537e-07
1.75822e-06
2.35779e-07
3.23346e-06
5.31827e-06
5.31997e-06
7.09163e-07
5.3207e-06
5.32247e-06
3.99918e-06
8.98702e-06
3.99737e-06
8.99021e-06
1.8275e-05
1.82757e-05
3.99931e-06
8.98836e-06
3.9974e-06
8.99156e-06
1.52126e-07
1.52149e-07
1.52156e-07
1.56782e-07
1.5678e-07
1.56806e-07
1.56813e-07
1.80371e-06
3.2492e-06
2.46782e-07
4.53778e-07
1.79351e-06
3.25598e-06
2.50665e-07
1.82757e-05
1.82764e-05
1.80395e-06
2.46879e-07
3.24995e-06
4.53871e-07
1.7933e-06
2.50717e-07
3.25543e-06
5.32749e-06
5.32918e-06
7.45595e-07
5.32984e-06
5.33159e-06
4.00561e-06
8.99373e-06
4.00403e-06
8.99715e-06
1.82712e-05
1.82727e-05
4.00577e-06
8.99509e-06
4.00405e-06
8.99851e-06
1.58428e-07
1.58454e-07
1.58463e-07
1.63671e-07
1.63669e-07
1.63698e-07
1.63706e-07
1.83456e-06
3.27014e-06
2.62598e-07
4.81953e-07
1.82517e-06
3.27617e-06
2.66772e-07
1.82719e-05
1.82734e-05
1.83475e-06
2.62701e-07
3.27051e-06
4.82046e-07
1.82506e-06
2.66826e-07
3.27584e-06
5.33645e-06
5.33813e-06
7.81097e-07
5.33877e-06
5.3405e-06
4.01154e-06
9.00108e-06
4.01008e-06
9.00478e-06
1.82697e-05
1.82721e-05
4.01164e-06
9.00244e-06
4.0101e-06
9.00615e-06
1.65513e-07
1.65541e-07
1.65552e-07
1.71343e-07
1.71343e-07
1.71374e-07
1.71383e-07
1.86272e-06
3.28965e-06
2.79544e-07
5.10797e-07
1.85408e-06
3.29556e-06
2.83992e-07
1.82704e-05
1.82728e-05
1.86282e-06
2.79649e-07
3.29021e-06
5.10882e-07
1.85404e-06
2.84046e-07
3.2949e-06
5.34528e-06
5.34695e-06
8.15519e-07
5.3476e-06
5.34932e-06
4.01717e-06
9.00915e-06
4.01575e-06
9.01317e-06
1.82705e-05
1.82738e-05
4.01726e-06
9.01052e-06
4.01578e-06
9.01452e-06
1.73384e-07
1.73412e-07
1.73425e-07
1.79802e-07
1.79802e-07
1.79834e-07
1.79845e-07
1.88875e-06
3.30812e-06
2.97551e-07
5.4013e-07
1.88073e-06
3.31355e-06
3.02252e-07
1.82712e-05
1.82745e-05
1.88884e-06
2.97655e-07
3.30838e-06
5.40209e-07
1.88071e-06
3.02306e-07
3.31295e-06
5.35408e-06
5.35574e-06
8.48857e-07
5.35642e-06
5.35814e-06
4.02268e-06
9.01803e-06
4.0213e-06
9.02235e-06
1.82737e-05
1.82777e-05
4.0228e-06
9.01937e-06
4.02128e-06
9.02369e-06
1.82038e-07
1.82067e-07
1.82083e-07
1.89042e-07
1.89043e-07
1.89077e-07
1.89091e-07
1.91295e-06
3.32564e-06
3.16541e-07
5.69778e-07
1.90551e-06
3.33072e-06
3.21476e-07
1.82744e-05
1.82784e-05
1.91308e-06
3.16648e-07
3.32586e-06
5.69853e-07
1.90546e-06
3.21532e-07
3.33017e-06
5.36291e-06
5.36456e-06
8.81056e-07
5.36529e-06
5.36702e-06
4.02825e-06
9.02786e-06
4.02683e-06
9.03209e-06
1.8279e-05
1.82838e-05
4.0284e-06
9.02901e-06
4.02685e-06
9.03365e-06
1.91474e-07
1.91504e-07
1.91523e-07
1.99058e-07
1.99059e-07
1.99094e-07
1.99111e-07
1.93573e-06
3.34224e-06
3.36434e-07
5.99569e-07
1.92869e-06
3.3473e-06
3.41584e-07
1.82797e-05
1.82845e-05
1.93585e-06
3.36543e-07
3.34242e-06
5.99642e-07
1.92868e-06
3.4164e-07
3.3467e-06
5.3718e-06
5.37346e-06
9.12038e-07
5.37423e-06
5.37597e-06
4.03404e-06
9.03841e-06
4.03253e-06
9.04285e-06
1.82864e-05
1.8292e-05
4.03419e-06
9.03955e-06
4.03254e-06
9.04422e-06
2.01682e-07
2.01714e-07
2.01736e-07
2.09836e-07
2.09836e-07
2.09873e-07
2.09894e-07
1.95729e-06
3.35803e-06
3.57149e-07
6.29337e-07
1.9506e-06
3.36299e-06
3.6249e-07
1.82872e-05
1.82928e-05
1.95743e-06
3.57259e-07
3.35858e-06
6.29416e-07
1.95061e-06
3.6255e-07
3.36247e-06
5.38078e-06
5.38243e-06
9.41832e-07
5.38325e-06
5.385e-06
4.03999e-06
9.04964e-06
4.03847e-06
9.05439e-06
1.82959e-05
1.83022e-05
4.04023e-06
9.05099e-06
4.03847e-06
9.05575e-06
2.12647e-07
2.12682e-07
2.12706e-07
2.21358e-07
2.21356e-07
2.21395e-07
2.2142e-07
1.9778e-06
3.37351e-06
3.78594e-07
6.5893e-07
1.97144e-06
3.37795e-06
3.84102e-07
1.82967e-05
1.83029e-05
1.97793e-06
3.78707e-07
3.37364e-06
6.59016e-07
1.97143e-06
3.84165e-07
3.37763e-06
5.38988e-06
5.39147e-06
9.70427e-07
5.39232e-06
5.39412e-06
4.04636e-06
9.06168e-06
4.04468e-06
9.06677e-06
1.83071e-05
1.8314e-05
4.04659e-06
9.06301e-06
4.04466e-06
9.06808e-06
2.24348e-07
2.24388e-07
2.24414e-07
2.33597e-07
2.33593e-07
2.33636e-07
2.33664e-07
1.99741e-06
3.38817e-06
4.00671e-07
6.88201e-07
1.99133e-06
3.39251e-06
4.06325e-07
1.83081e-05
1.8315e-05
1.99753e-06
4.00792e-07
3.38859e-06
6.88294e-07
1.99133e-06
4.06393e-07
3.39216e-06
5.39905e-06
5.4006e-06
9.97816e-07
5.40152e-06
5.40332e-06
4.05307e-06
9.07444e-06
4.05119e-06
9.07979e-06
1.83201e-05
1.83277e-05
4.05324e-06
9.07576e-06
4.05123e-06
9.0811e-06
2.3676e-07
2.36806e-07
2.36833e-07
2.46522e-07
2.46517e-07
2.46566e-07
2.46593e-07
2.01623e-06
3.40249e-06
4.23282e-07
7.17022e-07
2.01039e-06
3.40652e-06
4.29048e-07
1.83212e-05
1.83288e-05
2.01632e-06
4.23412e-07
3.40253e-06
7.17125e-07
2.01041e-06
4.29131e-07
3.40614e-06
5.40827e-06
5.40979e-06
1.02406e-06
5.41077e-06
5.41259e-06
4.06012e-06
9.08786e-06
4.05794e-06
9.09348e-06
1.83348e-05
1.8343e-05
4.06021e-06
9.08916e-06
4.05801e-06
9.09478e-06
2.49849e-07
2.49901e-07
2.49928e-07
2.60095e-07
2.60088e-07
2.60143e-07
2.6017e-07
2.0343e-06
3.41601e-06
4.46325e-07
7.45278e-07
2.02871e-06
3.42008e-06
4.52184e-07
1.8336e-05
1.83441e-05
2.0344e-06
4.46463e-07
3.41642e-06
7.45393e-07
2.02872e-06
4.52271e-07
3.41984e-06
5.41758e-06
5.41906e-06
1.04915e-06
5.42006e-06
5.42185e-06
4.06738e-06
9.10191e-06
4.06507e-06
9.10777e-06
1.83511e-05
1.83598e-05
4.06744e-06
9.10319e-06
4.06513e-06
9.10906e-06
2.63576e-07
2.63633e-07
2.63659e-07
2.74269e-07
2.74261e-07
2.74322e-07
2.74346e-07
2.05168e-06
3.42899e-06
4.6969e-07
7.72872e-07
2.04629e-06
3.43303e-06
4.75612e-07
1.83524e-05
1.83609e-05
2.05177e-06
4.69835e-07
3.4294e-06
7.72993e-07
2.04632e-06
4.75708e-07
3.43276e-06
5.42694e-06
5.4284e-06
1.0732e-06
5.42939e-06
5.43123e-06
4.07481e-06
9.11652e-06
4.07247e-06
9.12262e-06
1.83687e-05
1.83779e-05
4.0749e-06
9.11778e-06
4.07248e-06
9.12388e-06
2.77891e-07
2.77954e-07
2.77978e-07
2.88989e-07
2.88981e-07
2.89047e-07
2.8907e-07
2.06837e-06
3.44182e-06
4.93274e-07
7.99704e-07
2.0632e-06
3.44564e-06
4.99235e-07
1.837e-05
1.83791e-05
2.06846e-06
4.93425e-07
3.44212e-06
7.99834e-07
2.06323e-06
4.99335e-07
3.44523e-06
5.43626e-06
5.43773e-06
1.09614e-06
5.43891e-06
5.44059e-06
4.08243e-06
9.13136e-06
4.07992e-06
9.13812e-06
1.83877e-05
1.83974e-05
4.08216e-06
9.13289e-06
4.08015e-06
9.13917e-06
2.92737e-07
2.92806e-07
2.92829e-07
3.04193e-07
3.04184e-07
3.04256e-07
3.04279e-07
2.08434e-06
3.45429e-06
5.16968e-07
8.25704e-07
2.07943e-06
3.45782e-06
5.22936e-07
1.8389e-05
1.83986e-05
2.08445e-06
5.17122e-07
3.45436e-06
8.25838e-07
2.07948e-06
5.23042e-07
3.45751e-06
5.44553e-06
5.44731e-06
1.11811e-06
5.44835e-06
5.45001e-06
4.0901e-06
9.14694e-06
4.08753e-06
9.15384e-06
1.84079e-05
1.8418e-05
4.08996e-06
9.14843e-06
4.08789e-06
9.15487e-06
3.08051e-07
3.08126e-07
3.08149e-07
2.09964e-06
3.46609e-06
5.40652e-07
8.50807e-07
2.09495e-06
3.46945e-06
5.46602e-07
1.84092e-05
1.84193e-05
2.09976e-06
5.40814e-07
3.46636e-06
8.50942e-07
2.09502e-06
5.46712e-07
3.46947e-06
5.45484e-06
5.4565e-06
1.13878e-06
5.45756e-06
5.45929e-06
1.84378e-05
1.84306e-05
1.84405e-05
1.84333e-05
5.17108e-06
5.17308e-06
3.90816e-07
5.17863e-06
5.18037e-06
1.84173e-05
1.84242e-05
1.84201e-05
1.84269e-05
3.97813e-07
5.19249e-06
5.19508e-06
5.18599e-06
5.18769e-06
3.75794e-06
8.92081e-06
8.92565e-06
3.73555e-06
1.24209e-06
2.86912e-06
1.59602e-07
2.43791e-07
2.88853e-06
1.60137e-07
1.21409e-06
1.24184e-06
2.86965e-06
1.59606e-07
2.43828e-07
2.88915e-06
1.6014e-07
1.21394e-06
3.76943e-06
8.93032e-06
8.92571e-06
3.79068e-06
3.77028e-06
8.93047e-06
8.92593e-06
3.78984e-06
1.25541e-06
2.46891e-07
2.91893e-06
1.61466e-07
2.90119e-06
1.60764e-07
1.28271e-06
1.2555e-06
2.46926e-07
2.91953e-06
1.6147e-07
2.90176e-06
1.60767e-07
1.28261e-06
5.17282e-06
5.17042e-06
3.90629e-07
5.18024e-06
5.17988e-06
1.84382e-05
1.8431e-05
1.84197e-05
1.84266e-05
3.97914e-07
5.19494e-06
5.19378e-06
5.18759e-06
5.18498e-06
1.84177e-05
1.84245e-05
1.24195e-06
2.86965e-06
1.59605e-07
2.43751e-07
2.88913e-06
1.60139e-07
1.21396e-06
3.75883e-06
8.92138e-06
8.92626e-06
3.73513e-06
1.24196e-06
1.59614e-07
2.86864e-06
2.43838e-07
1.60149e-07
2.89057e-06
1.21418e-06
3.76976e-06
8.93153e-06
8.92695e-06
3.79063e-06
1.25555e-06
2.46847e-07
2.91949e-06
1.61469e-07
2.90174e-06
1.60766e-07
1.28261e-06
3.76967e-06
8.9311e-06
8.92653e-06
3.7907e-06
1.25551e-06
2.46935e-07
1.6148e-07
2.92131e-06
1.60778e-07
2.90054e-06
1.28268e-06
3.75889e-06
8.92097e-06
8.92584e-06
3.73515e-06
1.24194e-06
1.59599e-07
2.86935e-06
2.43786e-07
1.60134e-07
2.88878e-06
1.2142e-06
3.75796e-06
8.92092e-06
8.92581e-06
3.73577e-06
1.25557e-06
2.46817e-07
2.92064e-06
1.61461e-07
2.9e-06
1.6074e-07
1.28273e-06
3.76977e-06
8.93067e-06
8.9261e-06
3.79078e-06
1.25553e-06
2.4689e-07
1.61464e-07
2.91913e-06
1.6076e-07
2.90144e-06
1.28281e-06
3.77035e-06
8.93064e-06
8.92605e-06
3.78985e-06
5.1716e-06
5.1703e-06
3.90998e-07
5.1814e-06
5.18007e-06
1.84387e-05
1.84315e-05
1.84205e-05
1.84274e-05
3.9779e-07
5.19536e-06
5.19417e-06
5.18619e-06
5.18493e-06
1.84181e-05
1.8425e-05
1.24163e-06
1.59608e-07
2.86865e-06
2.4377e-07
1.60136e-07
2.8906e-06
1.21439e-06
3.75906e-06
8.92128e-06
8.92615e-06
3.73531e-06
3.759e-06
8.9216e-06
8.92648e-06
3.73535e-06
1.25585e-06
2.46837e-07
1.61465e-07
2.91912e-06
1.60768e-07
2.90139e-06
1.2828e-06
1.25587e-06
2.46872e-07
1.61469e-07
2.92137e-06
1.60774e-07
2.90057e-06
1.28278e-06
3.76991e-06
8.93096e-06
8.9264e-06
3.79093e-06
3.76995e-06
8.93131e-06
8.92673e-06
3.79089e-06
1.84393e-05
1.84321e-05
1.84414e-05
1.84341e-05
3.97345e-07
5.19346e-06
5.19555e-06
5.18582e-06
5.18649e-06
1.84188e-05
1.84256e-05
1.84209e-05
1.84277e-05
1.84111e-05
1.84046e-05
1.84138e-05
1.84074e-05
5.19941e-06
5.20094e-06
4.20595e-07
5.20595e-06
5.20802e-06
1.83926e-05
1.83987e-05
1.83953e-05
1.84014e-05
4.28077e-07
5.21781e-06
5.21943e-06
5.21136e-06
5.21327e-06
3.81777e-06
8.93069e-06
3.80083e-06
8.93501e-06
1.32277e-06
2.93102e-06
1.6226e-07
2.56956e-07
1.29598e-06
2.94771e-06
1.63128e-07
1.32257e-06
2.93161e-06
1.62263e-07
2.56996e-07
1.29607e-06
2.94831e-06
1.63133e-07
3.82693e-06
8.93906e-06
8.93499e-06
3.84223e-06
3.82757e-06
8.9392e-06
8.93516e-06
3.84233e-06
1.33542e-06
2.60565e-07
2.9746e-06
1.65131e-07
2.95915e-06
1.6409e-07
1.36128e-06
1.33549e-06
2.60605e-07
2.97518e-06
1.65136e-07
2.95973e-06
1.64094e-07
1.36133e-06
5.20074e-06
5.19852e-06
4.20162e-07
5.20779e-06
5.20646e-06
1.84115e-05
1.8405e-05
1.83949e-05
1.8401e-05
4.28115e-07
5.21946e-06
5.21815e-06
5.21302e-06
5.21088e-06
1.83929e-05
1.8399e-05
1.32248e-06
2.93159e-06
1.62262e-07
2.56911e-07
1.29623e-06
2.94824e-06
1.63133e-07
3.81879e-06
8.93131e-06
3.80015e-06
8.93565e-06
1.32271e-06
1.62274e-07
2.93036e-06
2.57006e-07
1.29609e-06
1.63143e-07
2.9498e-06
3.82704e-06
8.94026e-06
8.9362e-06
3.84315e-06
1.33566e-06
2.60517e-07
2.97511e-06
1.65136e-07
2.95973e-06
1.64094e-07
1.36108e-06
3.8269e-06
8.93984e-06
8.9358e-06
3.84318e-06
1.33547e-06
2.60615e-07
1.65145e-07
2.97679e-06
1.64105e-07
2.95849e-06
1.36136e-06
3.81882e-06
8.93087e-06
3.80026e-06
8.93523e-06
1.32249e-06
1.62255e-07
2.93132e-06
2.56955e-07
1.29603e-06
1.63127e-07
2.94792e-06
3.81781e-06
8.93085e-06
3.80089e-06
8.9352e-06
1.33544e-06
2.60482e-07
2.97619e-06
1.65123e-07
2.95803e-06
1.64061e-07
1.36069e-06
3.82705e-06
8.93941e-06
8.93535e-06
3.84205e-06
1.33566e-06
2.60566e-07
1.65129e-07
2.9748e-06
1.64086e-07
2.95944e-06
1.36114e-06
3.82761e-06
8.9394e-06
8.93535e-06
3.84234e-06
5.19982e-06
5.19874e-06
4.202e-07
5.20803e-06
5.20681e-06
1.84119e-05
1.84054e-05
1.83957e-05
1.84018e-05
4.28243e-07
5.21994e-06
5.21836e-06
5.21221e-06
5.21113e-06
1.83933e-05
1.83994e-05
1.32268e-06
1.62266e-07
2.93037e-06
2.56937e-07
1.29619e-06
1.63132e-07
2.94985e-06
3.81897e-06
8.93118e-06
3.80037e-06
8.9355e-06
3.81891e-06
8.9315e-06
3.80039e-06
8.93586e-06
1.33556e-06
2.60504e-07
1.65129e-07
2.97478e-06
1.64094e-07
2.95937e-06
1.36151e-06
1.3356e-06
2.60545e-07
1.65135e-07
2.97684e-06
1.641e-07
2.95851e-06
1.3612e-06
3.82707e-06
8.93968e-06
8.93565e-06
3.84332e-06
3.8271e-06
8.94007e-06
8.936e-06
3.84329e-06
1.84126e-05
1.84061e-05
1.84147e-05
1.84082e-05
4.27404e-07
5.21763e-06
5.21981e-06
5.21165e-06
5.21226e-06
1.8394e-05
1.84001e-05
1.83961e-05
1.84022e-05
1.83868e-05
1.83811e-05
1.83895e-05
1.83837e-05
5.22268e-06
5.2247e-06
4.52462e-07
5.22843e-06
5.23029e-06
1.83701e-05
1.83755e-05
1.83729e-05
1.83782e-05
4.60731e-07
5.23815e-06
5.24029e-06
5.23311e-06
5.23483e-06
3.86365e-06
8.93931e-06
3.85101e-06
8.94317e-06
1.39877e-06
2.98547e-06
1.66261e-07
2.7214e-07
1.37377e-06
2.99991e-06
1.6747e-07
1.39879e-06
2.98603e-06
1.66265e-07
2.72185e-07
1.37374e-06
3.0005e-06
1.67476e-07
3.87149e-06
8.94659e-06
8.94304e-06
3.88244e-06
3.8714e-06
8.94676e-06
8.94323e-06
3.88232e-06
1.41067e-06
2.76241e-07
3.0236e-06
1.70152e-07
3.01022e-06
1.68771e-07
1.43464e-06
1.41066e-06
2.76286e-07
3.02417e-06
1.70158e-07
3.01074e-06
1.68775e-07
1.43463e-06
5.22437e-06
5.22229e-06
4.52743e-07
5.22991e-06
5.22885e-06
1.83871e-05
1.83814e-05
1.83726e-05
1.83778e-05
4.60753e-07
5.23984e-06
5.2387e-06
5.23474e-06
5.23298e-06
1.83705e-05
1.83757e-05
1.39852e-06
2.98603e-06
1.66266e-07
2.72087e-07
1.37399e-06
3.00045e-06
1.67477e-07
3.86462e-06
8.93993e-06
3.85035e-06
8.9438e-06
1.39881e-06
1.66278e-07
2.98487e-06
2.72195e-07
1.37373e-06
1.67485e-07
3.00192e-06
3.87085e-06
8.94779e-06
8.94425e-06
3.88316e-06
1.41086e-06
2.76186e-07
3.02413e-06
1.70159e-07
3.01074e-06
1.68776e-07
1.43464e-06
3.87074e-06
8.9474e-06
8.94385e-06
3.88314e-06
1.41064e-06
2.76297e-07
1.70168e-07
3.02571e-06
1.68787e-07
3.0096e-06
1.43471e-06
3.8637e-06
8.93949e-06
3.85126e-06
8.94334e-06
1.39862e-06
1.66257e-07
2.9857e-06
2.72138e-07
1.37396e-06
1.67469e-07
3.0001e-06
3.86368e-06
8.9395e-06
3.85106e-06
8.94336e-06
1.41123e-06
2.76147e-07
3.02508e-06
1.70142e-07
3.00914e-06
1.68736e-07
1.4341e-06
3.87167e-06
8.94689e-06
8.94339e-06
3.88231e-06
1.41078e-06
2.76244e-07
1.7015e-07
3.02377e-06
1.68767e-07
3.01042e-06
1.43451e-06
3.87144e-06
8.94699e-06
8.94342e-06
3.88233e-06
5.22396e-06
5.22226e-06
4.52515e-07
5.23053e-06
5.22908e-06
1.83875e-05
1.83818e-05
1.83733e-05
1.83786e-05
4.60893e-07
5.24031e-06
5.23899e-06
5.23438e-06
5.2329e-06
1.83708e-05
1.83762e-05
1.39861e-06
1.66271e-07
2.98486e-06
2.72117e-07
1.37393e-06
1.67476e-07
3.00191e-06
3.86474e-06
8.93978e-06
3.85049e-06
8.94363e-06
3.86469e-06
8.94016e-06
3.85051e-06
8.94404e-06
1.41079e-06
2.76172e-07
1.70148e-07
3.02374e-06
1.68773e-07
3.01038e-06
1.43427e-06
1.41084e-06
2.76218e-07
1.70158e-07
3.02568e-06
1.68783e-07
3.00959e-06
1.43447e-06
3.87087e-06
8.94721e-06
8.9437e-06
3.88322e-06
3.87088e-06
8.94766e-06
8.9441e-06
3.8832e-06
1.83882e-05
1.83825e-05
1.83903e-05
1.83845e-05
4.59891e-07
5.2384e-06
5.24049e-06
5.23318e-06
5.23447e-06
1.83717e-05
1.8377e-05
1.83737e-05
1.8379e-05
1.83648e-05
1.83598e-05
1.83674e-05
1.83625e-05
5.24278e-06
5.2445e-06
4.86119e-07
5.24731e-06
5.24915e-06
1.835e-05
1.83546e-05
1.83527e-05
1.83573e-05
4.95108e-07
5.25581e-06
5.2577e-06
5.25158e-06
5.25333e-06
3.89849e-06
8.947e-06
3.88919e-06
8.95019e-06
1.46923e-06
3.03341e-06
1.71624e-07
2.89268e-07
1.44624e-06
3.04591e-06
1.73174e-07
1.46913e-06
3.03392e-06
1.71629e-07
2.89313e-07
1.44622e-06
3.04645e-06
1.7318e-07
3.90473e-06
8.95311e-06
8.95001e-06
3.91274e-06
3.90465e-06
8.95333e-06
8.95024e-06
3.91263e-06
1.48022e-06
2.93842e-07
3.0668e-06
1.76542e-07
3.05519e-06
1.74817e-07
1.50216e-06
1.48023e-06
2.93888e-07
3.06736e-06
1.76546e-07
3.05571e-06
1.74821e-07
1.50212e-06
5.24429e-06
5.24256e-06
4.86073e-07
5.24915e-06
5.24774e-06
1.83649e-05
1.83601e-05
1.83524e-05
1.8357e-05
4.95359e-07
5.25724e-06
5.25612e-06
5.25302e-06
5.25132e-06
1.83502e-05
1.83547e-05
1.46936e-06
3.03391e-06
1.71629e-07
2.89205e-07
1.44623e-06
3.04642e-06
1.73181e-07
3.89939e-06
8.9476e-06
3.88855e-06
8.95083e-06
1.46925e-06
1.71642e-07
3.03282e-06
2.89325e-07
1.44616e-06
1.73189e-07
3.04782e-06
3.90411e-06
8.95434e-06
8.95125e-06
3.91345e-06
1.48014e-06
2.93777e-07
3.06732e-06
1.76548e-07
3.05571e-06
1.74822e-07
1.50223e-06
3.90402e-06
8.95394e-06
8.95104e-06
3.91342e-06
1.48016e-06
2.93901e-07
1.76557e-07
3.06883e-06
1.74834e-07
3.0546e-06
1.50216e-06
3.89849e-06
8.94699e-06
3.88945e-06
8.95032e-06
1.46903e-06
1.71619e-07
3.0336e-06
2.89269e-07
1.44633e-06
1.73172e-07
3.04609e-06
3.89852e-06
8.9471e-06
3.88924e-06
8.95038e-06
1.48072e-06
2.93732e-07
3.06825e-06
1.76526e-07
3.05416e-06
1.74777e-07
1.50176e-06
3.90491e-06
8.95343e-06
8.95035e-06
3.91264e-06
1.48034e-06
2.93844e-07
1.76537e-07
3.06701e-06
1.74811e-07
3.05539e-06
1.50207e-06
3.9047e-06
8.95356e-06
8.95043e-06
3.91266e-06
5.24375e-06
5.24248e-06
4.86167e-07
5.24944e-06
5.24801e-06
1.83654e-05
1.83604e-05
1.83531e-05
1.83577e-05
4.95178e-07
5.25783e-06
5.25637e-06
5.25277e-06
5.25132e-06
1.83506e-05
1.83552e-05
1.46897e-06
1.71636e-07
3.03279e-06
2.89238e-07
1.4464e-06
1.73179e-07
3.04778e-06
3.89948e-06
8.94745e-06
3.88867e-06
8.95065e-06
3.89946e-06
8.94775e-06
3.88868e-06
8.95111e-06
1.48087e-06
2.93764e-07
1.76533e-07
3.06694e-06
1.74816e-07
3.05536e-06
1.50162e-06
1.48041e-06
2.93811e-07
1.76545e-07
3.06878e-06
1.74829e-07
3.05458e-06
1.5019e-06
3.90416e-06
8.95378e-06
8.95068e-06
3.91351e-06
3.90416e-06
8.95426e-06
8.95118e-06
3.9135e-06
1.83663e-05
1.83613e-05
1.83683e-05
1.83634e-05
4.94459e-07
5.2558e-06
5.25784e-06
5.25162e-06
5.25286e-06
1.83516e-05
1.83561e-05
1.83536e-05
1.83581e-05
1.83449e-05
1.83407e-05
1.83476e-05
1.83434e-05
5.25969e-06
5.26146e-06
5.22194e-07
5.26371e-06
5.26538e-06
1.83319e-05
1.83357e-05
1.83346e-05
1.83385e-05
5.31085e-07
5.27095e-06
5.27269e-06
5.26716e-06
5.26899e-06
3.92492e-06