/*--------------------------------*- C++ -*----------------------------------*\
| =========                 |                                                 |
| \\      /  F ield         | OpenFOAM: The Open Source CFD Toolbox           |
|  \\    /   O peration     | Version:  2312                                  |
|   \\  /    A nd           | Website:  www.openfoam.com                      |
|    \\/     M anipulation  |                                                 |
\*---------------------------------------------------------------------------*/
FoamFile
{
    version     2.0;
    format      ascii;
    arch        "LSB;label=32;scalar=64";
    class       volScalarField;
    location    "750";
    object      k;
}
// * * * * * * * * * * * * * * * * * * * * * * * * * * * * * * * * * * * * * //

dimensions      [0 2 -2 0 0 0 0];

internalField   nonuniform List<scalar> 
42840
(
1.45939e-05
1.62412e-05
1.62416e-05
1.86871e-05
1.43152e-05
1.64639e-05
1.64643e-05
1.93867e-05
1.40824e-05
1.67734e-05
1.6774e-05
2.01802e-05
1.3895e-05
1.71669e-05
1.71677e-05
2.10547e-05
1.37528e-05
1.76407e-05
1.76418e-05
2.19981e-05
1.36556e-05
1.81909e-05
1.81924e-05
2.29948e-05
1.36034e-05
1.88131e-05
1.88149e-05
2.40306e-05
1.35969e-05
1.95021e-05
1.95043e-05
2.50938e-05
1.36347e-05
2.02526e-05
2.02552e-05
2.61817e-05
1.37185e-05
2.10593e-05
2.10622e-05
2.72431e-05
1.38482e-05
2.19157e-05
2.19186e-05
2.83078e-05
1.40241e-05
2.28152e-05
2.28181e-05
2.93653e-05
1.42462e-05
2.37516e-05
2.37541e-05
3.04167e-05
1.45146e-05
2.47186e-05
2.47206e-05
3.14275e-05
1.48293e-05
2.57096e-05
2.57114e-05
3.24333e-05
1.51899e-05
2.67184e-05
2.67202e-05
3.34152e-05
1.55959e-05
2.77391e-05
2.7741e-05
3.43863e-05
1.60464e-05
2.87659e-05
2.8768e-05
3.53203e-05
1.65401e-05
2.97937e-05
2.97962e-05
3.62389e-05
1.70756e-05
3.08189e-05
3.08219e-05
3.71245e-05
1.76511e-05
3.1837e-05
3.18404e-05
3.79966e-05
1.82646e-05
3.2844e-05
3.28476e-05
3.88354e-05
1.89135e-05
3.3836e-05
3.38401e-05
3.96483e-05
1.95948e-05
3.48098e-05
3.48142e-05
4.04463e-05
2.03054e-05
3.57632e-05
3.57675e-05
4.12202e-05
1.86731e-05
1.92375e-05
1.62414e-05
1.62417e-05
1.64001e-05
1.64006e-05
1.8672e-05
1.92379e-05
1.62418e-05
1.62419e-05
1.64005e-05
1.64008e-05
1.62413e-05
1.63998e-05
1.64004e-05
1.86718e-05
1.92389e-05
1.62417e-05
1.64004e-05
1.64008e-05
1.92217e-05
1.9373e-05
2.00132e-05
1.64643e-05
1.64647e-05
1.66885e-05
1.66891e-05
1.93717e-05
2.00136e-05
1.64647e-05
1.6465e-05
1.66888e-05
1.66893e-05
1.64645e-05
1.6688e-05
1.66892e-05
1.93719e-05
2.00141e-05
1.64648e-05
1.66886e-05
1.66893e-05
1.9994e-05
2.01639e-05
2.087e-05
1.67742e-05
1.67747e-05
1.70617e-05
1.70623e-05
2.01621e-05
2.0871e-05
1.67744e-05
1.67749e-05
1.70618e-05
1.70625e-05
1.67747e-05
1.70608e-05
1.70627e-05
2.01622e-05
2.08715e-05
1.67747e-05
1.70616e-05
1.70626e-05
2.08494e-05
2.10364e-05
2.1799e-05
1.7168e-05
1.71686e-05
1.75163e-05
1.75169e-05
2.10344e-05
2.17987e-05
1.71681e-05
1.71689e-05
1.75161e-05
1.75172e-05
1.71689e-05
1.75149e-05
1.75176e-05
2.10347e-05
2.17986e-05
1.71687e-05
1.75161e-05
1.75172e-05
2.17745e-05
2.19765e-05
2.27847e-05
1.76424e-05
1.76429e-05
1.80484e-05
1.8049e-05
2.19746e-05
2.27827e-05
1.76422e-05
1.76433e-05
1.80479e-05
1.80494e-05
1.76435e-05
1.80466e-05
1.80499e-05
2.19762e-05
2.27842e-05
1.7643e-05
1.8048e-05
1.80492e-05
2.27573e-05
2.29699e-05
2.38113e-05
1.81932e-05
1.81937e-05
1.86536e-05
1.8654e-05
2.2969e-05
2.38093e-05
1.81927e-05
1.81942e-05
1.86528e-05
1.86547e-05
1.81946e-05
1.86512e-05
1.86552e-05
2.29701e-05
2.38112e-05
1.81938e-05
1.8653e-05
1.86543e-05
2.37818e-05
2.40044e-05
2.48665e-05
1.88159e-05
1.88162e-05
1.9327e-05
1.93272e-05
2.4003e-05
2.48654e-05
1.8815e-05
1.8817e-05
1.93259e-05
1.93281e-05
1.88175e-05
1.93241e-05
1.93288e-05
2.40047e-05
2.48684e-05
1.88164e-05
1.93263e-05
1.93276e-05
2.48366e-05
2.50654e-05
2.59392e-05
1.95054e-05
1.95057e-05
2.0063e-05
2.00633e-05
2.50639e-05
2.59389e-05
1.95044e-05
1.95066e-05
2.00619e-05
2.00644e-05
1.95072e-05
2.00597e-05
2.00652e-05
2.50654e-05
2.5942e-05
1.95059e-05
2.00624e-05
2.00639e-05
2.59066e-05
2.61406e-05
2.70088e-05
2.02563e-05
2.02566e-05
2.08567e-05
2.08567e-05
2.614e-05
2.7008e-05
2.02549e-05
2.02578e-05
2.08549e-05
2.0858e-05
2.02584e-05
2.0853e-05
2.08589e-05
2.61417e-05
2.70199e-05
2.0257e-05
2.08559e-05
2.08575e-05
2.69923e-05
2.72306e-05
2.80816e-05
2.10633e-05
2.10635e-05
2.17014e-05
2.17013e-05
2.72296e-05
2.80805e-05
2.10616e-05
2.10649e-05
2.16993e-05
2.17028e-05
2.10655e-05
2.16975e-05
2.17034e-05
2.72266e-05
2.80756e-05
2.1064e-05
2.17004e-05
2.17019e-05
2.80534e-05
2.82904e-05
2.91364e-05
2.19198e-05
2.19199e-05
2.25908e-05
2.25908e-05
2.82896e-05
2.91338e-05
2.19179e-05
2.19215e-05
2.25886e-05
2.25923e-05
2.1922e-05
2.25869e-05
2.25931e-05
2.82946e-05
2.91278e-05
2.19203e-05
2.25898e-05
2.25913e-05
2.91173e-05
2.93428e-05
3.01717e-05
2.28194e-05
2.28194e-05
2.35186e-05
2.35184e-05
2.93408e-05
3.01813e-05
2.28173e-05
2.28211e-05
2.35162e-05
2.352e-05
2.28217e-05
2.35145e-05
2.3521e-05
2.93436e-05
3.01757e-05
2.28197e-05
2.35173e-05
2.35188e-05
3.01411e-05
3.03851e-05
3.11973e-05
2.37558e-05
2.37558e-05
2.44784e-05
2.4478e-05
3.03863e-05
3.12085e-05
2.37534e-05
2.37573e-05
2.44756e-05
2.44795e-05
2.37582e-05
2.44743e-05
2.44806e-05
3.03824e-05
3.12065e-05
2.37558e-05
2.44767e-05
2.44781e-05
3.11773e-05
3.14154e-05
3.22111e-05
2.47225e-05
2.47225e-05
2.54641e-05
2.54634e-05
3.14106e-05
3.22078e-05
2.47198e-05
2.47238e-05
2.54609e-05
2.54649e-05
2.4725e-05
2.546e-05
2.54662e-05
3.14078e-05
3.22048e-05
2.47222e-05
2.54621e-05
2.54634e-05
3.21942e-05
3.24192e-05
3.31954e-05
2.57137e-05
2.57134e-05
2.64691e-05
2.64683e-05
3.24085e-05
3.31786e-05
2.57106e-05
2.57144e-05
2.64657e-05
2.64696e-05
2.57161e-05
2.64651e-05
2.64714e-05
3.24155e-05
3.31936e-05
2.5713e-05
2.6467e-05
2.64683e-05
3.31848e-05
3.33928e-05
3.41685e-05
2.67226e-05
2.67218e-05
2.74876e-05
2.74864e-05
3.34125e-05
3.41351e-05
2.67193e-05
2.67229e-05
2.74839e-05
2.74876e-05
2.67252e-05
2.74833e-05
2.749e-05
3.3403e-05
3.41614e-05
2.67217e-05
2.74854e-05
2.74864e-05
3.41404e-05
3.4372e-05
3.51038e-05
2.77434e-05
2.77424e-05
2.85135e-05
2.8512e-05
3.43791e-05
3.51022e-05
2.77399e-05
2.77434e-05
2.85097e-05
2.85132e-05
2.77461e-05
2.8509e-05
2.85158e-05
3.4357e-05
3.51078e-05
2.77422e-05
2.85113e-05
2.85119e-05
3.50803e-05
3.52998e-05
3.60223e-05
2.87704e-05
2.87689e-05
2.95415e-05
2.95395e-05
3.52946e-05
3.60194e-05
2.87666e-05
2.87701e-05
2.95377e-05
2.95409e-05
2.8773e-05
2.9537e-05
2.95441e-05
3.52983e-05
3.60224e-05
2.87688e-05
2.95395e-05
2.95397e-05
3.59938e-05
3.62181e-05
3.69212e-05
2.97985e-05
2.97964e-05
3.0568e-05
3.05656e-05
3.62153e-05
3.69146e-05
2.97946e-05
2.97979e-05
3.05639e-05
3.05672e-05
2.98011e-05
3.05632e-05
3.05706e-05
3.62165e-05
3.69062e-05
2.97965e-05
3.05661e-05
3.05658e-05
3.68978e-05
3.71083e-05
3.77883e-05
3.08239e-05
3.08214e-05
3.15882e-05
3.15856e-05
3.71012e-05
3.77874e-05
3.08198e-05
3.08232e-05
3.15841e-05
3.15875e-05
3.08265e-05
3.15833e-05
3.15911e-05
3.71143e-05
3.77707e-05
3.08215e-05
3.15869e-05
3.1586e-05
3.77721e-05
3.79665e-05
3.86403e-05
3.1842e-05
3.18393e-05
3.25984e-05
3.25955e-05
3.79694e-05
3.86364e-05
3.18377e-05
3.18412e-05
3.2594e-05
3.25973e-05
3.18449e-05
3.25935e-05
3.26011e-05
3.79809e-05
3.86355e-05
3.18395e-05
3.25973e-05
3.25958e-05
3.86183e-05
3.88153e-05
3.94631e-05
3.28489e-05
3.2846e-05
3.35945e-05
3.35912e-05
3.88113e-05
3.94576e-05
3.28445e-05
3.28477e-05
3.35899e-05
3.35931e-05
3.28515e-05
3.35896e-05
3.3597e-05
3.88159e-05
3.9462e-05
3.28461e-05
3.35936e-05
3.35916e-05
3.94557e-05
3.96272e-05
4.02418e-05
3.38411e-05
3.38376e-05
3.4573e-05
3.45696e-05
3.96268e-05
4.02594e-05
3.38365e-05
3.38396e-05
3.45683e-05
3.45716e-05
3.38435e-05
3.45683e-05
3.45757e-05
3.96291e-05
4.02657e-05
3.38379e-05
3.45727e-05
3.45701e-05
4.02432e-05
4.04419e-05
4.10129e-05
3.48148e-05
3.48111e-05
3.55315e-05
3.5528e-05
4.04221e-05
4.10351e-05
3.48101e-05
3.48133e-05
3.55268e-05
3.553e-05
3.48173e-05
3.55269e-05
3.55343e-05
4.04272e-05
4.1039e-05
3.48116e-05
3.55314e-05
3.55288e-05
4.10203e-05
4.12174e-05
3.57679e-05
3.57642e-05
4.11902e-05
3.57632e-05
3.57662e-05
3.57704e-05
4.11999e-05
3.57649e-05
5.48445e-05
7.01023e-05
7.01242e-05
5.43655e-05
6.95611e-05
6.95428e-05
5.48455e-05
7.01034e-05
7.01253e-05
5.43648e-05
1.45938e-05
1.45937e-05
1.45935e-05
1.43805e-05
1.43804e-05
1.43804e-05
1.43803e-05
3.10545e-05
4.64296e-05
1.47093e-05
1.62885e-05
4.68034e-05
1.46752e-05
3.04981e-05
6.95613e-05
6.9543e-05
3.10606e-05
1.47092e-05
4.64302e-05
1.6289e-05
1.46752e-05
4.68091e-05
3.04984e-05
5.97061e-05
5.97159e-05
1.88729e-05
5.99069e-05
5.99162e-05
5.59468e-05
7.01543e-05
5.55429e-05
7.01735e-05
6.94937e-05
6.94773e-05
5.59474e-05
7.01552e-05
5.5542e-05
7.01744e-05
1.43151e-05
1.43151e-05
1.4315e-05
1.41363e-05
1.41363e-05
1.41363e-05
1.41362e-05
3.27265e-05
4.75457e-05
1.46026e-05
1.65331e-05
3.21833e-05
4.78907e-05
1.45856e-05
6.94941e-05
6.94776e-05
3.27327e-05
1.46027e-05
4.75487e-05
1.65337e-05
3.21832e-05
1.45857e-05
4.78916e-05
6.02895e-05
6.0298e-05
1.95994e-05
6.04686e-05
6.04768e-05
5.68647e-05
7.01995e-05
5.65224e-05
7.02162e-05
6.94323e-05
6.94179e-05
5.68648e-05
7.02002e-05
5.65211e-05
7.02171e-05
1.40823e-05
1.40824e-05
1.40823e-05
1.39377e-05
1.39376e-05
1.39377e-05
1.39377e-05
3.43343e-05
4.85686e-05
1.45653e-05
1.6864e-05
3.38161e-05
4.88827e-05
1.45669e-05
6.94327e-05
6.94182e-05
3.43379e-05
1.45654e-05
4.85696e-05
1.68648e-05
3.38159e-05
1.45672e-05
4.88855e-05
6.0811e-05
6.08192e-05
2.04151e-05
6.0972e-05
6.09794e-05
5.7634e-05
7.02385e-05
5.73405e-05
7.02533e-05
6.93769e-05
6.93645e-05
5.76338e-05
7.02393e-05
5.73391e-05
7.02542e-05
1.38949e-05
1.3895e-05
1.3895e-05
1.37842e-05
1.37842e-05
1.37843e-05
1.37844e-05
3.58589e-05
4.95041e-05
1.45959e-05
1.7278e-05
3.53701e-05
4.97918e-05
1.46145e-05
6.93772e-05
6.93647e-05
3.58646e-05
1.45963e-05
4.95055e-05
1.72789e-05
3.53698e-05
1.46147e-05
4.97942e-05
6.12808e-05
6.12883e-05
2.13082e-05
6.14264e-05
6.14341e-05
5.82867e-05
7.02724e-05
5.80318e-05
7.02856e-05
6.93271e-05
6.93165e-05
5.82863e-05
7.02734e-05
5.80306e-05
7.02868e-05
1.37527e-05
1.37529e-05
1.3753e-05
1.36759e-05
1.36758e-05
1.3676e-05
1.36762e-05
3.72887e-05
5.03601e-05
1.46958e-05
1.77714e-05
3.68309e-05
5.06247e-05
1.47315e-05
6.93272e-05
6.93166e-05
3.72921e-05
1.46965e-05
5.03628e-05
1.77727e-05
3.68301e-05
1.47321e-05
5.06284e-05
6.17062e-05
6.17131e-05
2.22638e-05
6.1838e-05
6.18457e-05
5.88486e-05
7.03027e-05
5.86249e-05
7.03151e-05
6.92826e-05
6.92739e-05
5.8848e-05
7.03039e-05
5.86242e-05
7.03166e-05
1.36554e-05
1.36557e-05
1.3656e-05
1.36125e-05
1.36123e-05
1.36127e-05
1.36129e-05
3.86161e-05
5.11478e-05
1.48639e-05
1.83401e-05
3.81918e-05
5.13915e-05
1.49165e-05
6.92827e-05
6.9274e-05
3.86217e-05
1.48649e-05
5.11506e-05
1.83417e-05
3.81921e-05
1.49174e-05
5.13948e-05
6.20931e-05
6.21008e-05
2.32694e-05
6.2214e-05
6.22222e-05
5.93404e-05
7.03312e-05
5.91428e-05
7.03432e-05
6.92435e-05
6.92368e-05
5.93401e-05
7.03325e-05
5.91426e-05
7.0345e-05
1.36032e-05
1.36036e-05
1.36039e-05
1.35947e-05
1.35945e-05
1.3595e-05
1.35954e-05
3.98457e-05
5.1873e-05
1.50994e-05
1.89795e-05
3.94536e-05
5.20992e-05
1.51687e-05
6.92436e-05
6.92368e-05
3.98501e-05
1.51008e-05
5.18766e-05
1.89815e-05
3.94536e-05
1.517e-05
5.21031e-05
6.24487e-05
6.2457e-05
2.43101e-05
6.25602e-05
6.25688e-05
5.97791e-05
7.03592e-05
5.96017e-05
7.03713e-05
6.921e-05
6.92053e-05
5.97788e-05
7.03604e-05
5.96017e-05
7.03731e-05
1.35967e-05
1.35972e-05
1.35976e-05
1.3621e-05
1.36207e-05
1.36213e-05
1.36217e-05
4.09845e-05
5.25456e-05
1.54012e-05
1.96844e-05
4.06203e-05
5.27549e-05
1.54869e-05
6.92101e-05
6.92055e-05
4.09898e-05
1.54031e-05
5.25492e-05
1.96868e-05
4.062e-05
1.54885e-05
5.27601e-05
6.27783e-05
6.2787e-05
2.53754e-05
6.28824e-05
6.28916e-05
6.01767e-05
7.03876e-05
6.00154e-05
7.04e-05
6.91823e-05
6.91798e-05
6.0176e-05
7.03889e-05
6.00153e-05
7.04017e-05
1.36344e-05
1.36351e-05
1.36356e-05
1.36934e-05
1.36931e-05
1.36938e-05
1.36944e-05
4.20416e-05
5.31712e-05
1.57681e-05
2.04496e-05
4.1695e-05
5.33675e-05
1.58699e-05
6.91825e-05
6.91799e-05
4.20469e-05
1.57703e-05
5.3175e-05
2.04523e-05
4.16949e-05
1.58717e-05
5.33725e-05
6.30867e-05
6.30959e-05
2.64485e-05
6.31848e-05
6.31943e-05
6.05409e-05
7.04175e-05
6.03924e-05
7.04305e-05
6.91605e-05
6.91601e-05
6.05402e-05
7.0419e-05
6.03923e-05
7.0432e-05
1.37183e-05
1.3719e-05
1.37197e-05
1.38117e-05
1.38113e-05
1.38122e-05
1.38128e-05
4.3023e-05
5.37565e-05
1.61982e-05
2.12693e-05
4.26922e-05
5.39421e-05
1.63155e-05
6.91607e-05
6.91602e-05
4.30281e-05
1.62007e-05
5.37605e-05
2.12722e-05
4.26921e-05
1.63176e-05
5.39463e-05
6.33776e-05
6.33871e-05
2.75081e-05
6.34706e-05
6.34804e-05
6.08782e-05
7.04496e-05
6.07402e-05
7.04636e-05
6.91447e-05
6.91465e-05
6.08772e-05
7.04511e-05
6.07403e-05
7.04651e-05
1.3848e-05
1.38489e-05
1.38496e-05
1.39759e-05
1.39756e-05
1.39766e-05
1.39773e-05
4.39377e-05
5.43092e-05
1.66893e-05
2.2137e-05
4.36206e-05
5.44843e-05
1.68216e-05
6.91449e-05
6.91466e-05
4.39425e-05
1.66922e-05
5.43114e-05
2.214e-05
4.36205e-05
1.68238e-05
5.4487e-05
6.36544e-05
6.36637e-05
2.85813e-05
6.37432e-05
6.37528e-05
6.11941e-05
7.04847e-05
6.10641e-05
7.04998e-05
6.9135e-05
6.9139e-05
6.1193e-05
7.04863e-05
6.10641e-05
7.05014e-05
1.40238e-05
1.40249e-05
1.40256e-05
1.41865e-05
1.41861e-05
1.41873e-05
1.4188e-05
4.47949e-05
5.48313e-05
1.72389e-05
2.30463e-05
4.44895e-05
5.49983e-05
1.73854e-05
6.91352e-05
6.9139e-05
4.47994e-05
1.7242e-05
5.48317e-05
2.30493e-05
4.4489e-05
1.73878e-05
5.49995e-05
6.39193e-05
6.39285e-05
2.96445e-05
6.40046e-05
6.40141e-05
6.14934e-05
7.05231e-05
6.13694e-05
7.05397e-05
6.91313e-05
6.91374e-05
6.14918e-05
7.05247e-05
6.13696e-05
7.05413e-05
1.4246e-05
1.42471e-05
1.42479e-05
1.44433e-05
1.4443e-05
1.44442e-05
1.4445e-05
4.56029e-05
5.53283e-05
1.78441e-05
2.39908e-05
4.53072e-05
5.54864e-05
1.80041e-05
6.91314e-05
6.91374e-05
4.5607e-05
1.78473e-05
5.5326e-05
2.39934e-05
4.53065e-05
1.80065e-05
5.54901e-05
6.41741e-05
6.41832e-05
3.06802e-05
6.42567e-05
6.4266e-05
6.17794e-05
7.05653e-05
6.16601e-05
7.05835e-05
6.91335e-05
6.91417e-05
6.17777e-05
7.05668e-05
6.16603e-05
7.0585e-05
1.45144e-05
1.45156e-05
1.45165e-05
1.47464e-05
1.47462e-05
1.47474e-05
1.47483e-05
4.63685e-05
5.58003e-05
1.85018e-05
2.49644e-05
4.6081e-05
5.59533e-05
1.86744e-05
6.91336e-05
6.91417e-05
4.63724e-05
1.85049e-05
5.57962e-05
2.49666e-05
4.60805e-05
1.86767e-05
5.59575e-05
6.44205e-05
6.44286e-05
3.16816e-05
6.45006e-05
6.45105e-05
6.20554e-05
7.06116e-05
6.194e-05
7.06314e-05
6.91413e-05
6.91516e-05
6.20535e-05
7.0613e-05
6.19404e-05
7.06328e-05
1.48291e-05
1.48303e-05
1.48314e-05
1.50956e-05
1.50953e-05
1.50967e-05
1.50977e-05
4.70976e-05
5.62502e-05
1.92084e-05
2.59605e-05
4.68173e-05
5.64002e-05
1.93928e-05
6.91415e-05
6.91517e-05
4.71014e-05
1.92116e-05
5.62466e-05
2.59626e-05
4.68172e-05
1.93951e-05
5.64046e-05
6.46593e-05
6.46669e-05
3.26817e-05
6.47379e-05
6.47476e-05
6.23245e-05
7.06612e-05
6.22114e-05
7.06847e-05
6.91548e-05
6.9167e-05
6.2322e-05
7.06633e-05
6.22121e-05
7.06849e-05
1.51897e-05
1.51909e-05
1.51922e-05
1.54903e-05
1.549e-05
1.54914e-05
1.54926e-05
4.77953e-05
5.66818e-05
1.99604e-05
2.6973e-05
4.75213e-05
5.68286e-05
2.01556e-05
6.9155e-05
6.91671e-05
4.77986e-05
1.99636e-05
5.66786e-05
2.6975e-05
4.75216e-05
2.01579e-05
5.68337e-05
6.48912e-05
6.48986e-05
3.36589e-05
6.49688e-05
6.49782e-05
6.25882e-05
7.07151e-05
6.2477e-05
7.0741e-05
6.91736e-05
6.91877e-05
6.2586e-05
7.07175e-05
6.24781e-05
7.07421e-05
1.55956e-05
1.55969e-05
1.55984e-05
1.59296e-05
1.59293e-05
1.59308e-05
1.59322e-05
4.84656e-05
5.70962e-05
2.07541e-05
2.79956e-05
4.8198e-05
5.72402e-05
2.0959e-05
6.91738e-05
6.91878e-05
4.84682e-05
2.07572e-05
5.70934e-05
2.79977e-05
4.81981e-05
2.09612e-05
5.72454e-05
6.51171e-05
6.51244e-05
3.46288e-05
6.51935e-05
6.52027e-05
6.28485e-05
7.07737e-05
6.27385e-05
7.08012e-05
6.91974e-05
6.92134e-05
6.28466e-05
7.07752e-05
6.27397e-05
7.08027e-05
1.6046e-05
1.60474e-05
1.6049e-05
1.64126e-05
1.64122e-05
1.64138e-05
1.64154e-05
4.91108e-05
5.7495e-05
2.1585e-05
2.9023e-05
4.88498e-05
5.76361e-05
2.17987e-05
6.91977e-05
6.92135e-05
4.91131e-05
2.15882e-05
5.74926e-05
2.90254e-05
4.88503e-05
2.18009e-05
5.76414e-05
6.53374e-05
6.53445e-05
3.55461e-05
6.54126e-05
6.54215e-05
6.31058e-05
7.08362e-05
6.29971e-05
7.08653e-05
6.92259e-05
6.92436e-05
6.31041e-05
7.08378e-05
6.29984e-05
7.08669e-05
1.65396e-05
1.65411e-05
1.65429e-05
1.69378e-05
1.69373e-05
1.6939e-05
1.69408e-05
4.97336e-05
5.78795e-05
2.24489e-05
3.00506e-05
4.94796e-05
5.80176e-05
2.26703e-05
6.92264e-05
6.92439e-05
4.97356e-05
2.24523e-05
5.78774e-05
3.00533e-05
4.94809e-05
2.26727e-05
5.8023e-05
6.55525e-05
6.55594e-05
3.64647e-05
6.56264e-05
6.5635e-05
6.33604e-05
7.09026e-05
6.32535e-05
7.09331e-05
6.9259e-05
6.92782e-05
6.33597e-05
7.09042e-05
6.32549e-05
7.09347e-05
1.7075e-05
1.70768e-05
1.70785e-05
1.75035e-05
1.75029e-05
1.75049e-05
1.75067e-05
5.03355e-05
5.825e-05
2.33414e-05
3.10744e-05
5.00893e-05
5.83847e-05
2.35691e-05
6.92596e-05
6.92786e-05
5.03374e-05
2.33453e-05
5.82486e-05
3.10775e-05
5.00909e-05
2.35721e-05
5.8391e-05
6.57626e-05
6.57693e-05
3.73316e-05
6.5835e-05
6.58433e-05
6.3613e-05
7.09725e-05
6.35094e-05
7.10043e-05
6.92961e-05
6.93166e-05
6.36132e-05
7.09741e-05
6.35096e-05
7.10059e-05
1.76504e-05
1.76525e-05
1.76542e-05
1.81077e-05
1.8107e-05
1.81093e-05
1.8111e-05
5.09184e-05
5.86076e-05
2.42583e-05
3.20899e-05
5.06793e-05
5.87396e-05
2.44917e-05
6.9297e-05
6.93173e-05
5.09201e-05
2.42626e-05
5.86067e-05
3.20937e-05
5.06816e-05
2.44951e-05
5.8746e-05
6.59678e-05
6.59744e-05
3.82037e-05
6.60387e-05
6.60467e-05
6.38648e-05
7.10456e-05
6.37619e-05
7.10787e-05
6.9337e-05
6.93589e-05
6.3864e-05
7.10471e-05
6.37617e-05
7.10802e-05
1.82638e-05
1.82661e-05
1.82678e-05
1.8748e-05
1.87472e-05
1.87497e-05
1.87513e-05
5.14807e-05
5.89533e-05
2.51969e-05
3.30936e-05
5.12513e-05
5.90821e-05
2.54349e-05
6.93381e-05
6.93597e-05
5.14837e-05
2.52013e-05
5.89528e-05
3.30974e-05
5.12529e-05
2.54386e-05
5.90883e-05
6.61682e-05
6.61749e-05
3.90301e-05
6.62375e-05
6.62454e-05
6.41135e-05
7.11217e-05
6.40108e-05
7.11559e-05
6.93814e-05
6.94045e-05
6.41129e-05
7.1123e-05
6.40104e-05
7.11573e-05
1.89125e-05
1.89152e-05
1.89167e-05
1.94215e-05
1.94206e-05
1.94234e-05
1.94249e-05
5.2025e-05
5.92872e-05
2.61532e-05
3.40813e-05
5.18044e-05
5.94127e-05
2.63951e-05
6.93825e-05
6.94055e-05
5.20281e-05
2.61578e-05
5.92863e-05
3.40856e-05
5.18054e-05
2.63989e-05
5.94185e-05
6.6364e-05
6.63706e-05
3.98511e-05
6.64316e-05
6.64398e-05
6.43575e-05
7.12015e-05
6.42577e-05
7.12342e-05
6.94291e-05
6.94536e-05
6.43581e-05
7.12016e-05
6.42549e-05
7.12367e-05
1.95938e-05
1.95967e-05
1.95982e-05
2.01251e-05
2.01242e-05
2.01272e-05
2.01287e-05
5.25497e-05
5.96093e-05
2.71227e-05
3.50502e-05
5.23363e-05
5.97312e-05
2.73669e-05
6.94304e-05
6.94546e-05
5.25527e-05
2.71274e-05
5.96088e-05
3.50547e-05
5.23379e-05
2.73711e-05
5.97369e-05
6.65552e-05
6.65617e-05
4.06351e-05
6.6621e-05
6.66295e-05
6.45964e-05
7.12823e-05
6.44998e-05
7.13158e-05
6.948e-05
6.95055e-05
6.4597e-05
7.12824e-05
6.44965e-05
7.13183e-05
2.03043e-05
2.03074e-05
2.03089e-05
5.30532e-05
5.99197e-05
2.81e-05
3.59981e-05
5.28481e-05
6.00385e-05
2.83453e-05
6.94812e-05
6.95066e-05
5.30565e-05
2.81049e-05
5.99193e-05
3.60024e-05
5.285e-05
2.83496e-05
6.00437e-05
6.67416e-05
6.67482e-05
4.13984e-05
6.68053e-05
6.68141e-05
6.95596e-05
6.95415e-05
6.95617e-05
6.95435e-05
5.97098e-05
5.97201e-05
1.88873e-05
5.99101e-05
5.99208e-05
6.95082e-05
6.95254e-05
6.95101e-05
6.95274e-05
1.90115e-05
6.01994e-05
6.02092e-05
6.0009e-05
6.00193e-05
5.48442e-05
7.0099e-05
7.01207e-05
5.43651e-05
3.10584e-05
4.64307e-05
1.47094e-05
1.62887e-05
4.68061e-05
1.46753e-05
3.0498e-05
3.10586e-05
4.64331e-05
1.47095e-05
1.62891e-05
4.68083e-05
1.46754e-05
3.04977e-05
5.49811e-05
7.01499e-05
7.01292e-05
5.54212e-05
5.49805e-05
7.01461e-05
7.01257e-05
5.54205e-05
3.13457e-05
1.63418e-05
4.7361e-05
1.46219e-05
4.70015e-05
1.46474e-05
3.19003e-05
3.1345e-05
1.63422e-05
4.73637e-05
1.4622e-05
4.70042e-05
1.46476e-05
3.19009e-05
5.97147e-05
5.97094e-05
1.88878e-05
5.99149e-05
5.99107e-05
6.95595e-05
6.95413e-05
6.95093e-05
6.95266e-05
1.90104e-05
6.02034e-05
6.01986e-05
6.00148e-05
6.00095e-05
6.95079e-05
6.95251e-05
3.10569e-05
4.64343e-05
1.471e-05
1.62892e-05
4.68122e-05
1.4676e-05
3.04995e-05
5.48447e-05
7.0099e-05
7.01208e-05
5.43642e-05
3.10567e-05
1.47094e-05
4.643e-05
1.62893e-05
1.46754e-05
4.68147e-05
3.04986e-05
5.49803e-05
7.01508e-05
7.01302e-05
5.54219e-05
3.13478e-05
1.63422e-05
4.73674e-05
1.46226e-05
4.70032e-05
1.46481e-05
3.18988e-05
5.49796e-05
7.01463e-05
7.01259e-05
5.5421e-05
3.13464e-05
1.63424e-05
1.4622e-05
4.7368e-05
1.46476e-05
4.69997e-05
3.18982e-05
5.48356e-05
7.01009e-05
7.01225e-05
5.43696e-05
3.10558e-05
1.47095e-05
4.64294e-05
1.62889e-05
1.46755e-05
4.68076e-05
3.0499e-05
5.48407e-05
7.00978e-05
7.01196e-05
5.43669e-05
3.13456e-05
1.63416e-05
4.73606e-05
1.46218e-05
4.70006e-05
1.46473e-05
3.1898e-05
5.49844e-05
7.01479e-05
7.01277e-05
5.54121e-05
3.13472e-05
1.63419e-05
1.46221e-05
4.73615e-05
1.46476e-05
4.7001e-05
3.18982e-05
5.49822e-05
7.0145e-05
7.01246e-05
5.5417e-05
5.97156e-05
5.97109e-05
1.88885e-05
5.99161e-05
5.99115e-05
6.95601e-05
6.95418e-05
6.95096e-05
6.9527e-05
1.90103e-05
6.02043e-05
6.01998e-05
6.00149e-05
6.00107e-05
6.95083e-05
6.95257e-05
3.1062e-05
1.47095e-05
4.64337e-05
1.62893e-05
1.46755e-05
4.68095e-05
3.04968e-05
5.4839e-05
7.01021e-05
7.0124e-05
5.43721e-05
5.48381e-05
7.00993e-05
7.01211e-05
5.43714e-05
3.13463e-05
1.63419e-05
1.46218e-05
4.73618e-05
1.46473e-05
4.70019e-05
3.19037e-05
3.1344e-05
1.63422e-05
1.46222e-05
4.73649e-05
1.46477e-05
4.70045e-05
3.19024e-05
5.49867e-05
7.01493e-05
7.0129e-05
5.54148e-05
5.49859e-05
7.01465e-05
7.01262e-05
5.54139e-05
6.9559e-05
6.95408e-05
6.95613e-05
6.9543e-05
1.90259e-05
6.01957e-05
6.02045e-05
6.00057e-05
6.00154e-05
6.95074e-05
6.95247e-05
6.95096e-05
6.9527e-05
6.94926e-05
6.94762e-05
6.94945e-05
6.94782e-05
6.02922e-05
6.0302e-05
1.96144e-05
6.04713e-05
6.04814e-05
6.94459e-05
6.94612e-05
6.94478e-05
6.94631e-05
1.97578e-05
6.07307e-05
6.07401e-05
6.05608e-05
6.05707e-05
5.5946e-05
7.01505e-05
5.55419e-05
7.01698e-05
3.27295e-05
4.75474e-05
1.46028e-05
1.65335e-05
3.2184e-05
4.78914e-05
1.45857e-05
3.27298e-05
4.75507e-05
1.46029e-05
1.65341e-05
3.21829e-05
4.78949e-05
1.45858e-05
5.60548e-05
7.01957e-05
7.01778e-05
5.64265e-05
5.60539e-05
7.01919e-05
7.0174e-05
5.64256e-05
3.30089e-05
1.66085e-05
4.84003e-05
1.45669e-05
4.80704e-05
1.45754e-05
3.35463e-05
3.3008e-05
1.6609e-05
4.84035e-05
1.4567e-05
4.80733e-05
1.45755e-05
3.35433e-05
6.02977e-05
6.02918e-05
1.9615e-05
6.04763e-05
6.04714e-05
6.94921e-05
6.94759e-05
6.94469e-05
6.94623e-05
1.97564e-05
6.07349e-05
6.07294e-05
6.0566e-05
6.05601e-05
6.94455e-05
6.94607e-05
3.27284e-05
4.75488e-05
1.46035e-05
1.65339e-05
3.21855e-05
4.78984e-05
1.45865e-05
5.59464e-05
7.01507e-05
5.5541e-05
7.01701e-05
3.27276e-05
1.46029e-05
4.75466e-05
1.65343e-05
3.21851e-05
1.45859e-05
4.78988e-05
5.60538e-05
7.01966e-05
7.01786e-05
5.64269e-05
3.30094e-05
1.66089e-05
4.84065e-05
1.45677e-05
4.80711e-05
1.45762e-05
3.35425e-05
5.60528e-05
7.01921e-05
7.01743e-05
5.64258e-05
3.30094e-05
1.66093e-05
1.45671e-05
4.84047e-05
1.45756e-05
4.80693e-05
3.35414e-05
5.59377e-05
7.01525e-05
5.55453e-05
7.01717e-05
3.27279e-05
1.4603e-05
4.75478e-05
1.65341e-05
3.21853e-05
1.4586e-05
4.78919e-05
5.59426e-05
7.01494e-05
5.55434e-05
7.01688e-05
3.30082e-05
1.6608e-05
4.83985e-05
1.45668e-05
4.80691e-05
1.45753e-05
3.35389e-05
5.60567e-05
7.01937e-05
7.01761e-05
5.64174e-05
3.30101e-05
1.6609e-05
1.45673e-05
4.83992e-05
1.45757e-05
4.80702e-05
3.35421e-05
5.60552e-05
7.01909e-05
7.01731e-05
5.64222e-05
6.02978e-05
6.02933e-05
1.96159e-05
6.04771e-05
6.04729e-05
6.94928e-05
6.94764e-05
6.94472e-05
6.94627e-05
1.97561e-05
6.07356e-05
6.07312e-05
6.05657e-05
6.05611e-05
6.94459e-05
6.94613e-05
3.27317e-05
1.46032e-05
4.75499e-05
1.65343e-05
3.21824e-05
1.45862e-05
4.78955e-05
5.59399e-05
7.01537e-05
5.55472e-05
7.0173e-05
5.59389e-05
7.0151e-05
5.55463e-05
7.01703e-05
3.30074e-05
1.66085e-05
1.45669e-05
4.84013e-05
1.45754e-05
4.80708e-05
3.35445e-05
3.30067e-05
1.66091e-05
1.45676e-05
4.84023e-05
1.4576e-05
4.80722e-05
3.35448e-05
5.60581e-05
7.0195e-05
7.01772e-05
5.6419e-05
5.60571e-05
7.01924e-05
7.01745e-05
5.64181e-05
6.94919e-05
6.94755e-05
6.94942e-05
6.94777e-05
1.97742e-05
6.07272e-05
6.07348e-05
6.05575e-05
6.05657e-05
6.94451e-05
6.94605e-05
6.94472e-05
6.94627e-05
6.94314e-05
6.94169e-05
6.94332e-05
6.94187e-05
6.08151e-05
6.08235e-05
2.04327e-05
6.09754e-05
6.09848e-05
6.93894e-05
6.94029e-05
6.93913e-05
6.94047e-05
2.05907e-05
6.12087e-05
6.12173e-05
6.10556e-05
6.1065e-05
5.68637e-05
7.01956e-05
5.6521e-05
7.02126e-05
3.43399e-05
4.857e-05
1.45654e-05
1.68647e-05
3.38146e-05
4.88858e-05
1.45672e-05
3.43378e-05
4.85721e-05
1.45655e-05
1.68654e-05
3.38164e-05
4.88891e-05
1.45673e-05
5.69492e-05
7.02355e-05
7.02198e-05
5.72657e-05
5.6948e-05
7.02318e-05
7.02161e-05
5.72647e-05
3.46039e-05
1.69608e-05
4.93505e-05
1.45817e-05
4.90482e-05
1.4572e-05
3.51141e-05
3.46047e-05
1.69614e-05
4.93531e-05
1.45819e-05
4.90502e-05
1.45721e-05
3.51122e-05
6.08195e-05
6.08132e-05
2.04324e-05
6.09798e-05
6.09733e-05
6.94307e-05
6.94165e-05
6.93905e-05
6.94039e-05
2.05886e-05
6.1213e-05
6.1206e-05
6.10599e-05
6.10532e-05
6.9389e-05
6.94021e-05
3.43376e-05
4.85702e-05
1.45663e-05
1.6865e-05
3.3817e-05
4.8891e-05
1.4568e-05
5.68636e-05
7.01958e-05
5.65199e-05
7.02128e-05
3.43367e-05
1.45657e-05
4.857e-05
1.68656e-05
3.38168e-05
1.45674e-05
4.88917e-05
5.69478e-05
7.02364e-05
7.02207e-05
5.72658e-05
3.46048e-05
1.6961e-05
4.93541e-05
1.45826e-05
4.90488e-05
1.45728e-05
3.51113e-05
5.69468e-05
7.0232e-05
7.02164e-05
5.72646e-05
3.46046e-05
1.69616e-05
1.4582e-05
4.93558e-05
1.45722e-05
4.90473e-05
3.51095e-05
5.68554e-05
7.01976e-05
5.65236e-05
7.02144e-05
3.43377e-05
1.45658e-05
4.857e-05
1.68656e-05
3.38169e-05
1.45675e-05
4.88847e-05
5.68605e-05
7.01947e-05
5.65221e-05
7.02116e-05
3.46041e-05
1.69599e-05
4.93472e-05
1.45816e-05
4.90473e-05
1.45718e-05
3.51076e-05
5.695e-05
7.02333e-05
7.02179e-05
5.72566e-05
3.46043e-05
1.69616e-05
1.45823e-05
4.93496e-05
1.45724e-05
4.9048e-05
3.51105e-05
5.69489e-05
7.02309e-05
7.02152e-05
5.72617e-05
6.0819e-05
6.08149e-05
2.04335e-05
6.09807e-05
6.09758e-05
6.94314e-05
6.94168e-05
6.93908e-05
6.94042e-05
2.05887e-05
6.12134e-05
6.12083e-05
6.10599e-05
6.10552e-05
6.93893e-05
6.94028e-05
3.43385e-05
1.45662e-05
4.85717e-05
1.68656e-05
3.38143e-05
1.4568e-05
4.88896e-05
5.68569e-05
7.01987e-05
5.65243e-05
7.02156e-05
5.68559e-05
7.01962e-05
5.65233e-05
7.02132e-05
3.46046e-05
1.69606e-05
1.45819e-05
4.935e-05
1.4572e-05
4.90481e-05
3.51128e-05
3.46024e-05
1.69614e-05
1.45828e-05
4.93542e-05
1.45728e-05
4.90474e-05
3.51118e-05
5.69505e-05
7.02348e-05
7.02192e-05
5.72582e-05
5.69495e-05
7.02325e-05
7.02167e-05
5.72572e-05
6.94306e-05
6.94162e-05
6.94328e-05
6.94183e-05
2.06098e-05
6.12049e-05
6.12124e-05
6.1052e-05
6.10598e-05
6.93888e-05
6.94022e-05
6.93909e-05
6.94043e-05
6.93759e-05
6.93634e-05
6.93777e-05
6.93653e-05
6.12847e-05
6.12932e-05
2.13282e-05
6.14299e-05
6.14385e-05
6.93386e-05
6.93502e-05
6.93405e-05
6.9352e-05
2.14983e-05
6.16405e-05
6.16492e-05
6.15025e-05
6.15106e-05
5.76329e-05
7.02347e-05
5.73391e-05
7.02497e-05
3.58642e-05
4.95057e-05
1.45963e-05
1.72791e-05
3.53706e-05
4.97949e-05
1.46146e-05
3.58631e-05
4.9508e-05
1.45964e-05
1.72797e-05
3.53708e-05
4.97974e-05
1.46147e-05
5.77e-05
7.02699e-05
7.02562e-05
5.79731e-05
5.76986e-05
7.02665e-05
7.02526e-05
5.79719e-05
3.61139e-05
1.73954e-05
5.02209e-05
1.46647e-05
4.99439e-05
1.46378e-05
3.65901e-05
3.61137e-05
1.73959e-05
5.02237e-05
1.46648e-05
4.9946e-05
1.46379e-05
3.65896e-05
6.12889e-05
6.12812e-05
2.1327e-05
6.1434e-05
6.14265e-05
6.9375e-05
6.93627e-05
6.93399e-05
6.93513e-05
2.14965e-05
6.16448e-05
6.16366e-05
6.15068e-05
6.14981e-05
6.93379e-05
6.93491e-05
3.58622e-05
4.95073e-05
1.45971e-05
1.7279e-05
3.53711e-05
4.97992e-05
1.46155e-05
5.76326e-05
7.0235e-05
5.7338e-05
7.02501e-05
3.58605e-05
1.45966e-05
4.95045e-05
1.72799e-05
3.53714e-05
1.46149e-05
4.97998e-05
5.76986e-05
7.0271e-05
7.02571e-05
5.79729e-05
3.61136e-05
1.73953e-05
5.02257e-05
1.46655e-05
4.99447e-05
1.46386e-05
3.65887e-05
5.76975e-05
7.02664e-05
7.02528e-05
5.79716e-05
3.61139e-05
1.73962e-05
1.4665e-05
5.02239e-05
1.4638e-05
4.99427e-05
3.6588e-05
5.76252e-05
7.02365e-05
5.73406e-05
7.02512e-05
3.58605e-05
1.45968e-05
4.95048e-05
1.72803e-05
3.53713e-05
1.46151e-05
4.97954e-05
5.76301e-05
7.0234e-05
5.73398e-05
7.0249e-05
3.6113e-05
1.7394e-05
5.0218e-05
1.46644e-05
4.99415e-05
1.46373e-05
3.65852e-05
5.76997e-05
7.02677e-05
7.02541e-05
5.79647e-05
3.61143e-05
1.73964e-05
1.46652e-05
5.02204e-05
1.46383e-05
4.99427e-05
3.65875e-05
5.76991e-05
7.02656e-05
7.02518e-05
5.79695e-05
6.12887e-05
6.1284e-05
2.13279e-05
6.14344e-05
6.14294e-05
6.93757e-05
6.93632e-05
6.93399e-05
6.93515e-05
2.14977e-05
6.16447e-05
6.164e-05
6.15058e-05
6.15013e-05
6.93384e-05
6.935e-05
3.58627e-05
1.45973e-05
4.95041e-05
1.728e-05
3.53688e-05
1.46157e-05
4.97988e-05
5.76266e-05
7.02377e-05
5.73411e-05
7.02527e-05
5.76257e-05
7.02355e-05
5.73401e-05
7.02506e-05
3.61121e-05
1.73949e-05
1.46649e-05
5.0221e-05
1.46378e-05
4.99435e-05
3.65916e-05
3.61114e-05
1.73961e-05
1.46659e-05
5.02238e-05
1.46389e-05
4.99418e-05
3.659e-05
5.77001e-05
7.02693e-05
7.02556e-05
5.79664e-05
5.76992e-05
7.02675e-05
7.02534e-05
5.79654e-05
6.93752e-05
6.93628e-05
6.93774e-05
6.93649e-05
2.15204e-05
6.16369e-05
6.16445e-05
6.14989e-05
6.15062e-05
6.93382e-05
6.93496e-05
6.93403e-05
6.93518e-05
6.93258e-05
6.93152e-05
6.93277e-05
6.93171e-05
6.17096e-05
6.17176e-05
2.22856e-05
6.18413e-05
6.18503e-05
6.92931e-05
6.93028e-05
6.92951e-05
6.93047e-05
2.2467e-05
6.20335e-05
6.20421e-05
6.19074e-05
6.19156e-05
5.82853e-05
7.02689e-05
5.80302e-05
7.02825e-05