/*--------------------------------*- C++ -*----------------------------------*\
| =========                 |                                                 |
| \\      /  F ield         | OpenFOAM: The Open Source CFD Toolbox           |
|  \\    /   O peration     | Version:  2312                                  |
|   \\  /    A nd           | Website:  www.openfoam.com                      |
|    \\/     M anipulation  |                                                 |
\*---------------------------------------------------------------------------*/
FoamFile
{
    version     2.0;
    format      ascii;
    arch        "LSB;label=32;scalar=64";
    class       volScalarField;
    location    "750";
    object      nut;
}
// * * * * * * * * * * * * * * * * * * * * * * * * * * * * * * * * * * * * * //

dimensions      [0 2 -1 0 0 0 0];

internalField   nonuniform List<scalar> 
42840
(
0.000145955
9.86089e-05
9.86044e-05
8.203e-05
0.000141926
9.62745e-05
9.62714e-05
8.20498e-05
0.000137983
9.44587e-05
9.44563e-05
8.26135e-05
0.000134146
9.31612e-05
9.31598e-05
8.35741e-05
0.000130466
9.23684e-05
9.23691e-05
8.50049e-05
0.000126971
9.20615e-05
9.20635e-05
8.67135e-05
0.000123698
9.22127e-05
9.22162e-05
8.8683e-05
0.000120691
9.27897e-05
9.27943e-05
9.08791e-05
0.000117953
9.37595e-05
9.37649e-05
9.33087e-05
0.000115537
9.50885e-05
9.50941e-05
9.56354e-05
0.000113457
9.67346e-05
9.67408e-05
9.8102e-05
0.000111728
9.86606e-05
9.86671e-05
0.000100662
0.00011036
0.000100832
0.000100837
0.000103334
0.000109359
0.000103218
0.000103221
0.000105886
0.000108725
0.000105786
0.000105788
0.000108559
0.000108455
0.000108506
0.000108508
0.000111226
0.000108542
0.000111353
0.000111355
0.000113974
0.000108977
0.0001143
0.000114303
0.000116626
0.000109746
0.000117326
0.00011733
0.000119325
0.000110834
0.00012042
0.000120427
0.00012195
0.000112226
0.000123564
0.000123571
0.000124625
0.000113905
0.000126736
0.000126745
0.000127213
0.00011585
0.000129924
0.000129934
0.000129759
0.00011804
0.00013311
0.000133122
0.000132331
0.000120455
0.000136288
0.000136298
0.000134866
8.17107e-05
8.22681e-05
9.85823e-05
9.85728e-05
9.67814e-05
9.67735e-05
8.17529e-05
8.22465e-05
9.86054e-05
9.85714e-05
9.68046e-05
9.67724e-05
9.85825e-05
9.68061e-05
9.67845e-05
8.17021e-05
8.22674e-05
9.85936e-05
9.68046e-05
9.67942e-05
8.18769e-05
8.18449e-05
8.27165e-05
9.62501e-05
9.62406e-05
9.48381e-05
9.48302e-05
8.183e-05
8.27575e-05
9.62718e-05
9.62392e-05
9.48603e-05
9.48291e-05
9.62533e-05
9.48614e-05
9.48441e-05
8.1812e-05
8.26925e-05
9.62639e-05
9.48608e-05
9.48527e-05
8.23474e-05
8.23831e-05
8.35309e-05
9.4436e-05
9.44264e-05
9.34144e-05
9.34059e-05
8.22903e-05
8.36351e-05
9.4457e-05
9.44253e-05
9.3435e-05
9.34044e-05
9.44435e-05
9.34354e-05
9.34228e-05
8.23521e-05
8.35301e-05
9.44516e-05
9.34356e-05
9.34299e-05
8.31923e-05
8.33637e-05
8.48687e-05
9.31397e-05
9.31313e-05
9.24998e-05
9.24915e-05
8.33085e-05
8.48569e-05
9.31596e-05
9.31294e-05
9.25184e-05
9.24899e-05
9.31502e-05
9.25188e-05
9.25106e-05
8.33337e-05
8.48549e-05
9.3157e-05
9.25202e-05
9.2517e-05
8.45557e-05
8.47227e-05
8.66245e-05
9.23501e-05
9.23414e-05
9.20764e-05
9.20687e-05
8.47352e-05
8.64797e-05
9.23687e-05
9.23405e-05
9.20932e-05
9.20686e-05
9.23623e-05
9.20938e-05
9.20892e-05
8.47068e-05
8.65052e-05
9.23684e-05
9.20966e-05
9.20946e-05
8.61689e-05
8.63556e-05
8.85253e-05
9.2046e-05
9.20379e-05
9.21191e-05
9.21109e-05
8.64025e-05
8.84408e-05
9.20634e-05
9.20379e-05
9.21347e-05
9.21124e-05
9.20595e-05
9.21337e-05
9.21323e-05
8.6434e-05
8.84228e-05
9.20645e-05
9.21377e-05
9.2137e-05
8.80749e-05
8.83432e-05
9.05434e-05
9.22002e-05
9.21923e-05
9.25959e-05
9.2588e-05
8.83606e-05
9.05096e-05
9.22161e-05
9.21934e-05
9.26106e-05
9.259e-05
9.22139e-05
9.26086e-05
9.26098e-05
8.84135e-05
9.05783e-05
9.22178e-05
9.26139e-05
9.26137e-05
9.02223e-05
9.05569e-05
9.28301e-05
9.27802e-05
9.27727e-05
9.3472e-05
9.34664e-05
9.05571e-05
9.28494e-05
9.27956e-05
9.27741e-05
9.34876e-05
9.34681e-05
9.27953e-05
9.34842e-05
9.34885e-05
9.05728e-05
9.28832e-05
9.27969e-05
9.34899e-05
9.34913e-05
9.24789e-05
9.2914e-05
9.51883e-05
9.3751e-05
9.37464e-05
9.47176e-05
9.47096e-05
9.29328e-05
9.5208e-05
9.37643e-05
9.37464e-05
9.4729e-05
9.47127e-05
9.37682e-05
9.47272e-05
9.47324e-05
9.29256e-05
9.53169e-05
9.37701e-05
9.47331e-05
9.47356e-05
9.49236e-05
9.54735e-05
9.7697e-05
9.5083e-05
9.50756e-05
9.62892e-05
9.62821e-05
9.54718e-05
9.77709e-05
9.50939e-05
9.50785e-05
9.63e-05
9.62847e-05
9.50971e-05
9.62972e-05
9.6301e-05
9.53978e-05
9.7778e-05
9.50991e-05
9.63034e-05
9.6303e-05
9.73454e-05
9.79136e-05
0.000100293
9.67303e-05
9.67233e-05
9.81505e-05
9.81439e-05
9.78506e-05
0.000100343
9.67402e-05
9.67267e-05
9.8161e-05
9.81463e-05
9.67431e-05
9.81571e-05
9.81623e-05
9.78069e-05
0.000100276
9.67441e-05
9.81637e-05
9.8164e-05
9.99263e-05
0.000100397
0.000102888
9.86573e-05
9.86511e-05
0.000100265
0.000100258
0.000100273
0.000102936
9.86672e-05
9.86534e-05
0.000100275
0.00010026
9.867e-05
0.00010027
0.000100277
0.000100268
0.000102884
9.86701e-05
0.000100276
0.000100276
0.000102388
0.000102923
0.000105497
0.00010083
0.000100824
0.000102601
0.000102593
0.000102882
0.000105553
0.000100839
0.000100825
0.000102608
0.000102594
0.000100843
0.000102604
0.000102611
0.000102845
0.000105533
0.000100842
0.000102609
0.00010261
0.00010509
0.000105575
0.000108179
0.000103215
0.00010321
0.000105127
0.000105118
0.000105515
0.000108151
0.000103223
0.00010321
0.000105133
0.000105119
0.000103228
0.00010513
0.000105137
0.000105491
0.000108124
0.000103227
0.000105133
0.000105136
0.000107814
0.000108224
0.000110832
0.000105784
0.000105778
0.000107812
0.000107804
0.000108135
0.000110715
0.00010579
0.000105777
0.000107819
0.000107804
0.000105797
0.000107816
0.000107823
0.00010818
0.000110811
0.000105795
0.000107819
0.000107821
0.00011052
0.000110836
0.00011356
0.000108505
0.000108497
0.000110631
0.000110621
0.000110961
0.000113341
0.000108511
0.000108497
0.000110636
0.000110621
0.000108519
0.000110633
0.000110643
0.000110889
0.000113507
0.000108516
0.000110636
0.000110639
0.000113143
0.000113641
0.000116194
0.000111352
0.000111345
0.000113555
0.000113545
0.000113683
0.000116184
0.000111357
0.000111344
0.00011356
0.000113545
0.000111367
0.000113557
0.000113567
0.000113527
0.000116213
0.000111362
0.00011356
0.000113562
0.000115815
0.000116258
0.000118865
0.000114299
0.000114291
0.000116563
0.000116553
0.000116216
0.000118848
0.000114304
0.000114291
0.000116568
0.000116553
0.000114313
0.000116564
0.000116576
0.000116234
0.000118858
0.000114308
0.000116568
0.000116569
0.000118456
0.000118962
0.000121547
0.000117327
0.000117317
0.000119644
0.000119631
0.000118938
0.000121511
0.000117331
0.000117318
0.000119647
0.000119633
0.000117341
0.000119643
0.000119657
0.000118939
0.000121446
0.000117333
0.000119649
0.000119648
0.000121182
0.00012163
0.000124162
0.000120424
0.00012041
0.000122778
0.000122762
0.000121576
0.000124166
0.000120426
0.000120414
0.000122779
0.000122766
0.000120436
0.000122775
0.00012279
0.00012166
0.000124043
0.000120427
0.000122784
0.00012278
0.000123848
0.000124223
0.000126756
0.000123567
0.000123553
0.000125946
0.00012593
0.000124232
0.000126792
0.000123567
0.000123557
0.000125945
0.000125933
0.00012358
0.000125942
0.000125956
0.000124308
0.000126777
0.000123571
0.000125952
0.000125947
0.000126463
0.000127015
0.000129192
0.000126742
0.000126725
0.000129133
0.000129114
0.000126849
0.000129368
0.000126741
0.000126728
0.000129131
0.000129117
0.000126752
0.000129127
0.000129141
0.000126877
0.000129384
0.000126742
0.000129137
0.000129132
0.000129147
0.000129625
0.000131619
0.00012993
0.000129911
0.000132321
0.000132302
0.000129424
0.000131906
0.000129929
0.000129915
0.000132319
0.000132306
0.000129938
0.000132315
0.000132329
0.000129425
0.000131935
0.000129929
0.000132327
0.00013232
0.000131629
0.000132307
0.000134157
0.000133117
0.000133097
0.0001355
0.000135481
0.000132066
0.000134344
0.000133115
0.000133102
0.000135498
0.000135486
0.000133125
0.000135495
0.000135509
0.000132089
0.000134355
0.000133115
0.000135507
0.0001355
0.00013416
0.000134855
0.000136293
0.000136273
0.000134615
0.000136291
0.000136277
0.0001363
0.000134675
0.000136291
7.20167e-05
4.9581e-05
4.95849e-05
7.12255e-05
2.3616e-05
2.36129e-05
7.20252e-05
4.95756e-05
4.95795e-05
7.12169e-05
0.00014595
0.000145945
0.000145941
0.000142915
0.00014291
0.000142905
0.000142902
6.98958e-05
6.76447e-05
0.000122023
9.7972e-05
6.82203e-05
0.000121039
6.89494e-05
2.36153e-05
2.36121e-05
6.99235e-05
0.000122002
6.76202e-05
9.79724e-05
0.000121038
6.82655e-05
6.89365e-05
6.20424e-05
6.20572e-05
8.1841e-05
6.2372e-05
6.23512e-05
7.377e-05
4.95993e-05
7.30659e-05
4.96024e-05
2.36046e-05
2.36018e-05
7.37706e-05
4.95938e-05
7.30598e-05
4.95969e-05
0.00014192
0.000141916
0.000141913
0.000138943
0.000138939
0.000138934
0.000138932
7.28678e-05
6.94405e-05
0.000118296
9.57682e-05
7.19324e-05
6.99918e-05
0.000117376
2.36038e-05
2.3601e-05
7.28909e-05
0.000118274
6.94223e-05
9.5769e-05
7.19177e-05
0.000117373
7.00235e-05
6.29225e-05
6.29283e-05
8.20644e-05
6.32212e-05
6.32035e-05
7.53209e-05
4.96153e-05
7.46649e-05
4.96176e-05
2.35942e-05
2.35917e-05
7.53051e-05
4.96097e-05
7.46721e-05
4.9612e-05
0.000137978
0.000137974
0.000137972
0.00013509
0.000135086
0.000135081
0.000135081
7.5887e-05
7.11378e-05
0.000114862
9.40829e-05
7.48935e-05
7.16559e-05
0.000114042
2.35934e-05
2.35909e-05
7.58589e-05
0.00011484
7.11154e-05
9.40843e-05
7.49166e-05
0.000114042
7.16914e-05
6.37239e-05
6.37298e-05
8.27414e-05
6.39979e-05
6.39837e-05
7.66821e-05
4.96288e-05
7.60859e-05
4.9631e-05
2.35847e-05
2.35826e-05
7.66651e-05
4.96232e-05
7.60951e-05
4.96256e-05
0.000134141
0.000134136
0.000134136
0.000131372
0.000131367
0.000131363
0.000131364
7.88077e-05
7.27356e-05
0.000111744
9.29138e-05
7.78276e-05
7.32242e-05
0.000111009
2.3584e-05
2.35818e-05
7.88275e-05
0.000111724
7.27158e-05
9.29142e-05
7.78284e-05
0.00011101
7.32589e-05
6.44663e-05
6.44658e-05
8.38963e-05
6.47192e-05
6.47067e-05
7.79009e-05
4.96405e-05
7.7356e-05
4.96427e-05
2.35763e-05
2.35745e-05
7.7884e-05
4.96347e-05
7.73651e-05
4.96375e-05
0.000130461
0.000130456
0.000130458
0.000127828
0.000127824
0.00012782
0.000127822
8.1627e-05
7.4237e-05
0.000109007
9.22463e-05
8.06844e-05
7.47005e-05
0.000108369
2.35754e-05
2.35736e-05
8.16414e-05
0.000108991
7.42212e-05
9.22473e-05
8.06714e-05
0.000108373
7.4737e-05
6.51526e-05
6.51508e-05
8.53568e-05
6.53822e-05
6.53748e-05
7.90041e-05
4.96509e-05
7.85036e-05
4.96533e-05
2.35687e-05
2.35672e-05
7.89867e-05
4.96451e-05
7.85131e-05
4.96484e-05
0.000126966
0.000126962
0.000126965
0.000124498
0.000124493
0.000124489
0.000124493
8.43141e-05
7.56557e-05
0.000106673
9.2058e-05
8.34523e-05
7.60941e-05
0.00010614
2.35679e-05
2.35664e-05
8.43399e-05
0.000106659
7.56409e-05
9.20596e-05
8.34474e-05
0.000106146
7.61287e-05
6.57909e-05
6.57898e-05
8.71465e-05
6.60034e-05
6.59983e-05
8.00134e-05
4.96608e-05
7.95532e-05
4.96634e-05
2.3562e-05
2.35609e-05
7.99963e-05
4.96547e-05
7.95635e-05
4.96588e-05
0.000123693
0.000123689
0.000123693
0.000121424
0.00012142
0.000121416
0.00012142
8.69104e-05
7.69926e-05
0.000104766
9.23193e-05
8.60963e-05
7.74107e-05
0.000104342
2.35612e-05
2.35601e-05
8.69373e-05
0.000104755
7.69806e-05
9.23229e-05
8.60797e-05
0.000104348
7.74458e-05
6.63874e-05
6.63851e-05
8.91562e-05
6.6585e-05
6.65813e-05
8.09427e-05
4.96706e-05
8.05245e-05
4.96733e-05
2.35563e-05
2.35556e-05
8.09354e-05
4.96643e-05
8.05289e-05
4.96689e-05
0.000120686
0.000120682
0.000120686
0.000118607
0.000118603
0.000118599
0.000118604
8.9406e-05
7.82602e-05
0.000103303
9.29987e-05
8.86136e-05
7.86551e-05
0.000102992
2.35555e-05
2.35547e-05
8.94343e-05
0.000103294
7.8249e-05
9.30033e-05
8.86047e-05
0.000102998
7.86931e-05
6.69466e-05
6.69442e-05
9.13785e-05
6.7133e-05
6.71304e-05
8.18183e-05
4.96807e-05
8.14292e-05
4.96833e-05
2.35516e-05
2.35512e-05
8.18091e-05
4.96745e-05
8.14316e-05
4.96787e-05
0.000117948
0.000117944
0.00011795
0.00011611
0.000116107
0.000116103
0.000116108
9.18311e-05
7.94616e-05
0.00010229
9.40622e-05
9.09878e-05
7.984e-05
0.000102091
2.35508e-05
2.35504e-05
9.18297e-05
0.00010228
7.94514e-05
9.40672e-05
9.09945e-05
0.000102096
7.98766e-05
6.74741e-05
6.74722e-05
9.36844e-05
6.76511e-05
6.7649e-05
8.26346e-05
4.96916e-05
8.22719e-05
4.96937e-05
2.35479e-05
2.35479e-05
8.26284e-05
4.9686e-05
8.22703e-05
4.96886e-05
0.000115533
0.000115529
0.000115535
0.000113945
0.000113941
0.000113937
0.000113943
9.41271e-05
8.05996e-05
0.00010172
9.5474e-05
9.32805e-05
8.09739e-05
0.000101632
2.35471e-05
2.3547e-05
9.41229e-05
0.000101711
8.0595e-05
9.548e-05
9.32965e-05
0.000101637
8.10025e-05
6.79742e-05
6.79727e-05
9.60325e-05
6.81427e-05
6.8141e-05
8.34057e-05
4.97032e-05
8.30654e-05
4.97052e-05
2.35452e-05
2.35455e-05
8.33999e-05
4.96979e-05
8.30652e-05
4.96999e-05
0.000113452
0.000113449
0.000113455
0.000112126
0.000112122
0.00011212
0.000112125
9.63273e-05
8.16982e-05
0.000101579
9.71935e-05
9.54826e-05
8.20547e-05
0.000101597
2.35444e-05
2.35447e-05
9.63357e-05
0.000101574
8.16859e-05
9.71994e-05
9.54924e-05
0.000101603
8.20767e-05
6.84504e-05
6.84488e-05
9.86064e-05
6.86114e-05
6.86095e-05
8.4138e-05
4.97156e-05
8.38141e-05
4.9718e-05
2.35436e-05
2.35443e-05
8.41318e-05
4.97103e-05
8.38138e-05
4.97127e-05
0.000111723
0.000111721
0.000111727
0.000110667
0.000110663
0.000110661
0.000110667
9.84393e-05
8.27436e-05
0.000101853
9.91839e-05
9.7601e-05
8.30949e-05
0.00010197
2.35428e-05
2.35434e-05
9.84489e-05
0.000101848
8.27354e-05
9.91901e-05
9.76046e-05
0.000101977
8.31068e-05
6.89054e-05
6.89036e-05
0.000101257
6.90596e-05
6.90576e-05
8.48376e-05
4.97291e-05
8.45265e-05
4.97321e-05
2.3543e-05
2.3544e-05
8.48313e-05
4.97238e-05
8.45266e-05
4.97268e-05
0.000110355
0.000110354
0.00011036
0.000109574
0.00010957
0.000109569
0.000109575
0.00010048
8.37504e-05
0.000102514
0.000101411
9.96432e-05
8.40787e-05
0.000102725
2.35421e-05
2.35432e-05
0.000100493
0.000102512
8.37293e-05
0.000101416
9.96427e-05
0.000102733
8.41068e-05
6.93413e-05
6.93392e-05
0.000103879
6.94897e-05
6.94875e-05
8.55085e-05
4.9744e-05
8.52086e-05
4.97475e-05
2.35433e-05
2.35447e-05
8.55021e-05
4.97387e-05
8.52086e-05
4.97422e-05
0.000109354
0.000109354
0.00010936
0.000108849
0.000108844
0.000108844
0.00010885
0.00010245
8.471e-05
0.00010354
0.000103846
0.000101615
8.50355e-05
0.00010384
2.35425e-05
2.35439e-05
0.000102463
0.000103539
8.46908e-05
0.000103848
0.000101614
0.000103847
8.50635e-05
6.976e-05
6.97559e-05
0.000106419
6.99029e-05
6.99019e-05
8.61562e-05
4.97603e-05
8.58655e-05
4.97644e-05
2.35447e-05
2.35464e-05
8.61483e-05
4.97549e-05
8.5867e-05
4.9759e-05
0.00010872
0.00010872
0.000108727
0.000108488
0.000108484
0.000108484
0.000108491
0.00010436
8.56281e-05
0.000104905
0.000106454
0.000103525
8.59538e-05
0.000105287
2.35438e-05
2.35456e-05
0.00010437
0.000104904
8.56114e-05
0.000106457
0.000103527
0.000105294
8.59817e-05
7.01624e-05
7.01571e-05
0.000109106
7.03018e-05
7.03003e-05
8.67848e-05
4.9776e-05
8.65006e-05
4.97857e-05
2.3547e-05
2.3549e-05
8.67748e-05
4.97726e-05
8.65023e-05
4.97774e-05
0.000108451
0.000108451
0.000108458
0.000108488
0.000108483
0.000108484
0.000108492
0.00010621
8.6515e-05
0.000106581
0.00010921
0.00010538
8.68324e-05
0.000107038
2.35461e-05
2.35482e-05
0.000106219
0.000106581
8.65007e-05
0.000109212
0.000105382
0.000107044
8.68636e-05
7.05495e-05
7.05439e-05
0.000111797
7.06863e-05
7.06841e-05
8.73953e-05
4.97938e-05
8.71174e-05
4.98057e-05
2.35502e-05
2.35525e-05
8.73857e-05
4.97908e-05
8.71203e-05
4.97998e-05
0.000108538
0.000108539
0.000108547
0.000108837
0.000108832
0.000108833
0.000108842
0.000108008
8.73721e-05
0.000108543
0.000112082
0.000107185
8.76837e-05
0.000109066
2.35493e-05
2.35517e-05
0.000108012
0.000108542
8.73491e-05
0.000112086
0.000107185
0.000109071
8.77134e-05
7.0923e-05
7.09171e-05
0.000114589
7.1057e-05
7.10539e-05
8.79939e-05
4.98144e-05
8.77189e-05
4.98269e-05
2.35542e-05
2.35569e-05
8.79834e-05
4.9809e-05
8.77225e-05
4.98216e-05
0.000108973
0.000108973
0.000108983
0.000109523
0.000109518
0.000109519
0.000109529
0.000109753
8.81904e-05
0.000110758
0.000115051
0.00010894
8.85071e-05
0.000111341
2.35534e-05
2.35561e-05
0.000109756
0.000110757
8.81794e-05
0.000115054
0.000108942
0.000111346
8.85317e-05
7.12833e-05
7.12776e-05
0.000117183
7.14151e-05
7.14108e-05
8.8576e-05
4.98361e-05
8.83079e-05
4.9849e-05
2.35592e-05
2.35623e-05
8.85661e-05
4.98311e-05
8.8312e-05
4.98442e-05
0.000109741
0.000109742
0.000109752
0.000110533
0.000110528
0.00011053
0.00011054
0.000111449
8.8987e-05
0.0001132
0.000118095
0.00011065
8.92979e-05
0.000113837
2.35583e-05
2.35613e-05
0.000111451
0.0001132
8.89694e-05
0.000118101
0.000110656
0.000113842
8.93238e-05
7.16316e-05
7.1626e-05
0.000119932
7.17602e-05
7.17552e-05
8.91443e-05
4.98594e-05
8.88851e-05
4.98729e-05
2.3565e-05
2.35682e-05
8.91387e-05
4.98545e-05
8.88882e-05
4.9868e-05
0.000110829
0.000110831
0.000110841
0.000111851
0.000111845
0.000111848
0.000111858
0.000113097
8.97508e-05
0.000115842
0.000121204
0.000112319
9.00597e-05
0.000116526
2.3564e-05
2.35672e-05
0.000113101
0.000115845
8.97453e-05
0.000121211
0.000112325
0.000116533
9.00889e-05
7.19685e-05
7.19628e-05
0.000122482
7.20936e-05
7.20877e-05
8.97007e-05
4.9884e-05
8.94568e-05
4.98979e-05
2.35713e-05
2.35748e-05
8.96991e-05
4.9879e-05
8.94555e-05
4.9893e-05
0.000112221
0.000112224
0.000112234
0.000113459
0.000113453
0.000113457
0.000113467
0.000114704
9.04964e-05
0.000118662
0.000124355
0.000113942
9.07962e-05
0.000119389
2.35703e-05
2.35738e-05
0.000114706
0.000118667
9.04827e-05
0.000124364
0.000113952
0.000119399
9.08225e-05
7.22938e-05
7.22885e-05
0.000125203
7.24161e-05
7.24099e-05
9.02509e-05
4.99097e-05
9.00113e-05
4.9924e-05
2.35782e-05
2.35819e-05
9.02471e-05
4.99047e-05
9.00094e-05
4.99191e-05
0.000113898
0.000113903
0.000113912
0.000115339
0.000115333
0.000115338
0.000115347
0.000116258
9.12204e-05
0.000121654
0.000127533
0.000115527
9.15119e-05
0.000122419
2.35773e-05
2.3581e-05
0.000116266
0.000121658
9.12079e-05
0.000127542
0.000115533
0.00012243
9.15382e-05
7.26084e-05
7.26034e-05
0.00012775
7.27277e-05
7.27204e-05
9.07893e-05
4.99364e-05
9.05508e-05
4.99511e-05
2.35858e-05
2.35897e-05
9.07854e-05
4.99314e-05
9.05493e-05
4.99461e-05
0.000115843
0.000115848
0.000115857
0.00011747
0.000117463
0.00011747
0.000117478
0.000117771
9.19127e-05
0.000124797
0.000130721
0.000117067
9.22001e-05
0.000125598
2.35848e-05
2.35888e-05
0.00011778
0.000124803
9.19023e-05
0.000130733
0.00011707
0.000125609
9.22291e-05
7.29134e-05
7.29083e-05
0.000130393
7.30265e-05
7.30219e-05
9.13109e-05
4.99672e-05
9.10838e-05
4.99761e-05
2.35939e-05
2.3598e-05
9.13186e-05
4.9959e-05
9.10708e-05
4.9974e-05
0.000118033
0.000118039
0.000118048
0.000119831
0.000119824
0.000119831
0.00011984
0.000119238
9.25789e-05
0.00012807
0.000133906
0.000118551
9.28631e-05
0.000128898
2.3593e-05
2.35971e-05
0.000119245
0.000128076
9.25754e-05
0.000133918
0.000118555
0.000128911
9.28891e-05
7.32092e-05
7.31997e-05
0.000132912
7.33162e-05
7.33125e-05
9.18176e-05
4.99954e-05
9.16005e-05
5.00046e-05
2.36025e-05
2.36068e-05
9.18223e-05
4.99874e-05
9.15832e-05
5.00026e-05
0.000120447
0.000120455
0.000120463
0.000120648
9.32271e-05
0.000131443
0.000137079
0.000119985
9.35063e-05
0.000132292
2.36016e-05
2.36059e-05
0.000120657
0.000131449
9.32184e-05
0.00013709
0.00011999
0.000132306
9.35218e-05
7.34943e-05
7.34865e-05
0.000135447
7.35978e-05
7.35939e-05
2.36183e-05
2.36152e-05
2.36161e-05
2.3613e-05
6.20515e-05
6.2049e-05
8.21509e-05
6.23776e-05
6.23788e-05
2.36096e-05
2.36125e-05
2.36074e-05
2.36103e-05
8.17705e-05
6.28132e-05
6.28023e-05
6.24948e-05
6.24957e-05
7.20366e-05
4.95749e-05
4.95788e-05
7.12078e-05
6.98955e-05
6.76247e-05
0.000122009
9.79487e-05
6.82606e-05
0.000121039
6.89499e-05
6.99103e-05
6.76192e-05
0.000122008
9.79382e-05
6.82526e-05
0.000121039
6.89572e-05
7.21763e-05
4.9594e-05
4.95904e-05
7.29252e-05
7.21584e-05
4.95879e-05
4.95842e-05
7.29394e-05
7.04392e-05
9.73505e-05
6.9161e-05
0.00011917
6.85314e-05
0.000120109
7.14009e-05
7.04307e-05
9.73413e-05
6.91546e-05
0.000119169
6.8526e-05
0.000120109
7.14089e-05
6.20408e-05
6.20587e-05
8.21946e-05
6.23682e-05
6.23636e-05
2.36176e-05
2.36145e-05
2.36072e-05
2.36102e-05
8.17402e-05
6.27919e-05
6.27959e-05
6.24875e-05
6.2508e-05
2.36088e-05
2.36118e-05
6.98959e-05
6.76224e-05
0.000122016
9.797e-05
6.82643e-05
0.000121048
6.89645e-05
7.20209e-05
4.95717e-05
4.95755e-05
7.12136e-05
6.98949e-05
0.000122001
6.76338e-05
9.79365e-05
0.000121031
6.82377e-05
6.89477e-05
7.21678e-05
4.95886e-05
4.9585e-05
7.2928e-05
7.04405e-05
9.73729e-05
6.91662e-05
0.000119179
6.85234e-05
0.000120119
7.13999e-05
7.21676e-05
4.95846e-05
4.95811e-05
7.29242e-05
7.04366e-05
9.73399e-05
0.000119162
6.91252e-05
0.000120101
6.85417e-05
7.13929e-05
7.19958e-05
4.95767e-05
4.95801e-05
7.12273e-05
6.98923e-05
0.000122014
6.76153e-05
9.79523e-05
0.000121043
6.82592e-05
6.89485e-05
7.2027e-05
4.95725e-05
4.95762e-05
7.12085e-05
7.04294e-05
9.73767e-05
6.91193e-05
0.000119172
6.85567e-05
0.000120125
7.13893e-05
7.21783e-05
4.95892e-05
4.95861e-05
7.28991e-05
7.04391e-05
9.73517e-05
0.000119175
6.91575e-05
0.000120116
6.8524e-05
7.13855e-05
7.21616e-05
4.95854e-05
4.9582e-05
7.29299e-05
6.20575e-05
6.20631e-05
8.21228e-05
6.23567e-05
6.2363e-05
2.36175e-05
2.36143e-05
2.36064e-05
2.36094e-05
8.17647e-05
6.27888e-05
6.27937e-05
6.25047e-05
6.25111e-05
2.36086e-05
2.36116e-05
6.99374e-05
0.000122006
6.76445e-05
9.79638e-05
0.000121043
6.82216e-05
6.8928e-05
7.20018e-05
4.95767e-05
4.95805e-05
7.12309e-05
7.20003e-05
4.9571e-05
4.95747e-05
7.12282e-05
7.0417e-05
9.73732e-05
0.00011917
6.91588e-05
0.000120105
6.85279e-05
7.14112e-05
7.04055e-05
9.73623e-05
0.000119174
6.91144e-05
0.000120107
6.85548e-05
7.14062e-05
7.21817e-05
4.95896e-05
4.95862e-05
7.29036e-05
7.21788e-05
4.95838e-05
4.95805e-05
7.29019e-05
2.3616e-05
2.36128e-05
2.36149e-05
2.36117e-05
8.19904e-05
6.27938e-05
6.2787e-05
6.24899e-05
6.25021e-05
2.36071e-05
2.36101e-05
2.3606e-05
2.3609e-05
2.36069e-05
2.36041e-05
2.36047e-05
2.36019e-05
6.29232e-05
6.29252e-05
8.23243e-05
6.32182e-05
6.32139e-05
2.3599e-05
2.36016e-05
2.35968e-05
2.35994e-05
8.20723e-05
6.36166e-05
6.36165e-05
6.33395e-05
6.3337e-05
7.37855e-05
4.95928e-05
7.30475e-05
4.95962e-05
7.28847e-05
6.94187e-05
0.000118277
9.57443e-05
7.19324e-05
7.00283e-05
0.000117373
7.28973e-05
6.94145e-05
0.000118277
9.57362e-05
7.19225e-05
7.00243e-05
0.000117371
7.38954e-05
4.96103e-05
4.96075e-05
7.45806e-05
7.38808e-05
4.96041e-05
4.96013e-05
7.45763e-05
7.34321e-05
9.52767e-05
7.08776e-05
0.000115651
7.02799e-05
0.00011652
7.44018e-05
7.34245e-05
9.5268e-05
7.08731e-05
0.000115649
7.02744e-05
0.00011652
7.43859e-05
6.29186e-05
6.29333e-05
8.2414e-05
6.32061e-05
6.3212e-05
2.36062e-05
2.36034e-05
2.35966e-05
2.35993e-05
8.20536e-05
6.36054e-05
6.36097e-05
6.33302e-05
6.33438e-05
2.35982e-05
2.36008e-05
7.28955e-05
6.94094e-05
0.000118288
9.57661e-05
7.19251e-05
7.00361e-05
0.000117382
7.37669e-05
4.95897e-05
7.30581e-05
4.9593e-05
7.28793e-05
0.000118269
6.94321e-05
9.57352e-05
7.19314e-05
0.000117365
7.00001e-05
7.38907e-05
4.96049e-05
4.9602e-05
7.45637e-05
7.34211e-05
9.52985e-05
7.08837e-05
0.00011566
7.02681e-05
0.00011653
7.43962e-05
7.38908e-05
4.96008e-05
4.95981e-05
7.45603e-05
7.34318e-05
9.5267e-05
0.000115644
7.08387e-05
0.000116513
7.02923e-05
7.43756e-05
7.37433e-05
4.95946e-05
7.30675e-05
4.95976e-05
7.28928e-05
0.000118285
6.9413e-05
9.57515e-05
7.19354e-05
0.000117378
7.00246e-05
7.37758e-05
4.95904e-05
7.30503e-05
4.95937e-05
7.34281e-05
9.53012e-05
7.08347e-05
0.000115654
7.03027e-05
0.000116539
7.44013e-05
7.3898e-05
4.96055e-05
4.96032e-05
7.45599e-05
7.34242e-05
9.52816e-05
0.000115657
7.087e-05
0.000116528
7.02726e-05
7.43909e-05
7.38834e-05
4.96016e-05
4.95989e-05
7.4567e-05
6.29299e-05
6.29337e-05
8.24146e-05
6.3205e-05
6.3211e-05
2.3606e-05
2.36032e-05
2.35958e-05
2.35985e-05
8.20264e-05
6.36009e-05
6.3611e-05
6.33393e-05
6.33429e-05
2.3598e-05
2.36007e-05
7.28993e-05
0.00011828
6.94416e-05
9.57609e-05
7.19137e-05
0.000117378
6.99894e-05
7.3746e-05
4.95946e-05
7.30703e-05
4.9598e-05
7.37447e-05
4.9589e-05
7.30676e-05
4.95922e-05
7.34181e-05
9.52988e-05
0.000115651
7.08764e-05
0.000116517
7.02758e-05
7.43816e-05
7.34127e-05
9.52908e-05
0.000115658
7.08302e-05
0.000116523
7.03003e-05
7.43997e-05
7.39014e-05
4.96058e-05
4.96031e-05
7.45396e-05
7.38983e-05
4.96e-05
4.95974e-05
7.45379e-05
2.36045e-05
2.36017e-05
2.36035e-05
2.36006e-05
8.23381e-05
6.36114e-05
6.36008e-05
6.33291e-05
6.33388e-05
2.35966e-05
2.35992e-05
2.35954e-05
2.35981e-05
2.35965e-05
2.3594e-05
2.35943e-05
2.35918e-05
6.37342e-05
6.37272e-05
8.30445e-05
6.4e-05
6.39972e-05
2.35894e-05
2.35917e-05
2.35872e-05
2.35895e-05
8.28208e-05
6.43711e-05
6.43629e-05
6.41112e-05
6.41099e-05
7.53207e-05
4.96087e-05
7.46599e-05
4.96113e-05
7.5874e-05
7.11158e-05
0.000114841
9.40609e-05
7.49098e-05
7.16967e-05
0.00011404
7.58636e-05
7.11084e-05
0.00011484
9.40525e-05
7.49194e-05
7.16923e-05
0.000114037
7.53945e-05
4.96248e-05
4.96223e-05
7.60199e-05
7.53932e-05
4.96186e-05
4.9616e-05
7.60196e-05
7.63952e-05
9.37229e-05
7.24939e-05
0.000112467
7.19268e-05
0.000113235
7.73506e-05
7.63997e-05
9.37141e-05
7.24878e-05
0.000112465
7.19201e-05
0.000113234
7.73425e-05
6.37227e-05
6.3735e-05
8.29904e-05
6.39913e-05
6.39905e-05
2.35957e-05
2.35933e-05
2.3587e-05
2.35893e-05
8.27996e-05
6.43594e-05
6.43586e-05
6.41001e-05
6.41078e-05
2.35886e-05
2.35909e-05
7.58773e-05
7.11032e-05
0.000114852
9.40819e-05
7.49083e-05
7.16992e-05
0.000114048
7.53018e-05
4.96057e-05
7.46698e-05
4.96081e-05
7.58579e-05
0.000114834
7.11303e-05
9.40515e-05
7.49216e-05
0.000114032
7.16661e-05
7.54031e-05
4.96193e-05
4.96167e-05
7.60061e-05
7.63889e-05
9.37438e-05
7.24917e-05
0.000112476
7.19162e-05
0.000113245
7.73378e-05
7.54027e-05
4.96153e-05
4.96129e-05
7.60033e-05
7.64001e-05
9.37132e-05
0.00011246
7.24589e-05
0.000113228
7.19389e-05
7.73264e-05
7.52978e-05
4.96105e-05
7.46621e-05
4.96129e-05
7.58725e-05
0.000114851
7.11102e-05
9.40717e-05
7.49095e-05
0.000114046
7.16891e-05
7.53118e-05
4.96064e-05
7.46617e-05
4.96089e-05
7.6366e-05
9.3745e-05
7.24486e-05
0.000112472
7.19499e-05
0.000113256
7.73508e-05
7.5393e-05
4.962e-05
4.96177e-05
7.59982e-05
7.63908e-05
9.37308e-05
0.000112476
7.24871e-05
0.000113245
7.19214e-05
7.73415e-05
7.53946e-05
4.96161e-05
4.96137e-05
7.60114e-05
6.37266e-05
6.37389e-05
8.30413e-05
6.39856e-05
6.39929e-05
2.35956e-05
2.35931e-05
2.35862e-05
2.35885e-05
8.27755e-05
6.43544e-05
6.436e-05
6.41047e-05
6.41128e-05
2.35884e-05
2.35907e-05
7.58769e-05
0.000114847
7.11353e-05
9.40791e-05
7.48993e-05
0.000114048
7.166e-05
7.52816e-05
4.96105e-05
7.46788e-05
4.96131e-05
7.52799e-05
4.96049e-05
7.46758e-05
4.96075e-05
7.63919e-05
9.37438e-05
0.000112471
7.2489e-05
0.000113234
7.19227e-05
7.73647e-05
7.63795e-05
9.37381e-05
0.000112479
7.24548e-05
0.000113241
7.19394e-05
7.73496e-05
7.541e-05
4.96204e-05
4.96178e-05
7.59845e-05
7.54071e-05
4.96146e-05
4.96121e-05
7.59824e-05
2.35941e-05
2.35917e-05
2.3593e-05
2.35905e-05
8.31255e-05
6.436e-05
6.43501e-05
6.41029e-05
6.41032e-05
2.3587e-05
2.35893e-05
2.35859e-05
2.35882e-05
2.35871e-05
2.3585e-05
2.35849e-05
2.35828e-05
6.44741e-05
6.44708e-05
8.42185e-05
6.4724e-05
6.47193e-05
2.35808e-05
2.35827e-05
2.35786e-05
2.35805e-05
8.40142e-05
6.50631e-05
6.50581e-05
6.48243e-05
6.48199e-05
7.66808e-05
4.96214e-05
7.60826e-05
4.96248e-05
7.87906e-05
7.27146e-05
0.000111725
9.2893e-05
7.78547e-05
7.32648e-05
0.000111003
7.87913e-05
7.27091e-05
0.000111723
9.28855e-05
7.78573e-05
7.32592e-05
0.000111001
7.67367e-05
4.96372e-05
4.9635e-05
7.73062e-05
7.67347e-05
4.96312e-05
4.96287e-05
7.73051e-05
7.92988e-05
9.26825e-05
7.4016e-05
0.000109633
7.34799e-05
0.000110309
8.02145e-05
7.92972e-05
9.26734e-05
7.40108e-05
0.000109632
7.34738e-05
0.000110308
8.02143e-05
6.44644e-05
6.44694e-05
8.42169e-05
6.47099e-05
6.47116e-05
2.35862e-05
2.35842e-05
2.35784e-05
2.35804e-05
8.39572e-05
6.50546e-05
6.5051e-05
6.48157e-05
6.48183e-05
2.35799e-05
2.35819e-05
7.87749e-05
7.27072e-05
0.000111734
9.29129e-05
7.78577e-05
7.32653e-05
0.000111011
7.66623e-05
4.96184e-05
7.6092e-05
4.96219e-05
7.87737e-05
0.000111718
7.27254e-05
9.2884e-05
7.78632e-05
0.000110997
7.32331e-05
7.67452e-05
4.96319e-05
4.96294e-05
7.72918e-05
7.93013e-05
9.27016e-05
7.40174e-05
0.000109642
7.34699e-05
0.000110318
8.02046e-05
7.67438e-05
4.96276e-05
4.96246e-05
7.72889e-05
7.93019e-05
9.26726e-05
0.000109628
7.39758e-05
0.000110302
7.34907e-05
8.02055e-05
7.66605e-05
4.96239e-05
7.60816e-05
4.96263e-05
7.87853e-05
0.000111736
7.27075e-05
9.29056e-05
7.78534e-05
0.000111013
7.32618e-05
7.6673e-05
4.96198e-05
7.60833e-05
4.96228e-05
7.92676e-05
9.27019e-05
7.39725e-05
0.000109639
7.34978e-05
0.000110327
8.02143e-05
7.67323e-05
4.96323e-05
4.96302e-05
7.72856e-05
7.92938e-05
9.26928e-05
0.000109644
7.40095e-05
0.00011032
7.34718e-05
8.0208e-05
7.6735e-05
4.96287e-05
4.96264e-05
7.72982e-05
6.44705e-05
6.44763e-05
8.42082e-05
6.47073e-05
6.47144e-05
2.35861e-05
2.3584e-05
2.35776e-05
2.35796e-05
8.3997e-05
6.5047e-05
6.50553e-05
6.48167e-05
6.48251e-05
2.35798e-05
2.35817e-05
7.8798e-05
0.000111733
7.27247e-05
9.29127e-05
7.78383e-05
0.000111016
7.32313e-05
7.66447e-05
4.96231e-05
7.60979e-05
4.96265e-05
7.66425e-05
4.96183e-05
7.60952e-05
4.96211e-05
7.92558e-05
9.2702e-05
0.000109641
7.4013e-05
0.00011031
7.34748e-05
8.02502e-05
7.92773e-05
9.26994e-05
0.000109649
7.39768e-05
0.000110318
7.34885e-05
8.0228e-05
7.67483e-05
4.96327e-05
4.96304e-05
7.72731e-05
7.67456e-05
4.96274e-05
4.96246e-05
7.72709e-05
2.35847e-05
2.35826e-05
2.35836e-05
2.35814e-05
8.42969e-05
6.50556e-05
6.50465e-05
6.48163e-05
6.48163e-05
2.35784e-05
2.35804e-05
2.35773e-05
2.35792e-05
2.35786e-05
2.35768e-05
2.35764e-05
2.35746e-05
6.5161e-05
6.51561e-05
8.55968e-05
6.53895e-05
6.53877e-05
2.3573e-05
2.35747e-05
2.35708e-05
2.35725e-05
8.55403e-05
6.5706e-05
6.57026e-05
6.54864e-05
6.54809e-05
7.78987e-05
4.96334e-05
7.73523e-05
4.96371e-05