/*--------------------------------*- C++ -*----------------------------------*\
| =========                 |                                                 |
| \\      /  F ield         | OpenFOAM: The Open Source CFD Toolbox           |
|  \\    /   O peration     | Version:  2312                                  |
|   \\  /    A nd           | Website:  www.openfoam.com                      |
|    \\/     M anipulation  |                                                 |
\*---------------------------------------------------------------------------*/
FoamFile
{
    version     2.0;
    format      ascii;
    arch        "LSB;label=32;scalar=64";
    class       volVectorField;
    location    "500";
    object      U;
}
// * * * * * * * * * * * * * * * * * * * * * * * * * * * * * * * * * * * * * //

dimensions      [0 1 -1 0 0 0 0];

internalField   nonuniform List<vector> 
43168
(
(-1.0273e-05 -1.02653e-05 0.112443)
(1.14043e-05 -6.20742e-06 0.107483)
(-6.19803e-06 1.13993e-05 0.107482)
(-2.37535e-05 -2.37611e-05 0.104205)
(-4.15594e-05 -4.15607e-05 0.104319)
(-6.15362e-06 -1.13381e-05 0.107483)
(6.15427e-06 -1.13473e-05 0.107483)
(4.15666e-05 -4.15688e-05 0.10432)
(-1.13663e-05 -6.17045e-06 0.107485)
(-1.13368e-05 6.15852e-06 0.107482)
(1.13689e-05 -6.17687e-06 0.107485)
(1.13556e-05 6.13977e-06 0.107483)
(-4.15488e-05 4.15608e-05 0.104318)
(-6.17037e-06 1.13716e-05 0.107484)
(6.18337e-06 1.13659e-05 0.107484)
(4.1564e-05 4.15586e-05 0.104318)
(2.37522e-05 2.3762e-05 0.104205)
(-6.17759e-06 -1.13678e-05 0.107481)
(6.17825e-06 -1.13807e-05 0.107481)
(-2.37645e-05 2.37214e-05 0.104206)
(-1.13956e-05 -6.1962e-06 0.107483)
(-1.13649e-05 6.18287e-06 0.10748)
(1.13846e-05 6.16906e-06 0.107481)
(2.37561e-05 -2.37746e-05 0.104205)
(6.2068e-06 1.13953e-05 0.107482)
(-1.2119e-06 -1.20468e-05 0.0822859)
(-1.20515e-05 -1.21655e-06 0.0822867)
(-1.01992e-05 -1.01915e-05 0.112452)
(1.0217e-05 -1.01749e-05 0.112452)
(-1.01904e-05 1.02061e-05 0.112451)
(1.02111e-05 1.01721e-05 0.112451)
(-3.07034e-07 -1.65421e-05 0.0914582)
(5.796e-07 7.21427e-06 0.0822598)
(-2.70179e-07 5.00768e-06 0.0914069)
(-1.24065e-06 -1.19859e-05 0.0823192)
(-2.48915e-06 4.31431e-06 0.071571)
(3.32941e-06 -5.78761e-06 0.0716358)
(-1.65506e-05 -2.82471e-07 0.0914585)
(7.20119e-06 5.95114e-07 0.0822608)
(5.02115e-06 -2.53125e-07 0.0914071)
(-1.19852e-05 -1.24496e-06 0.08232)
(1.02847e-05 -1.02684e-05 0.112443)
(-1.02651e-05 1.02786e-05 0.112442)
(1.02883e-05 1.02557e-05 0.112442)
(2.72178e-05 -6.7932e-07 0.0986029)
(-8.81992e-06 3.07777e-06 0.0930333)
(1.46383e-05 -2.65629e-06 0.109894)
(1.14135e-05 -6.22323e-06 0.107481)
(-7.97469e-06 -4.59242e-07 0.0985415)
(2.03431e-05 -7.81168e-06 0.0930974)
(1.46999e-05 -2.67805e-06 0.109889)
(4.34886e-06 -2.53707e-06 0.0715732)
(-5.8038e-06 3.4008e-06 0.0716336)
(-7.14447e-07 2.72205e-05 0.0986025)
(-2.64693e-06 1.46416e-05 0.109893)
(3.07277e-06 -8.80337e-06 0.0930335)
(-6.21204e-06 1.14106e-05 0.10748)
(-4.05425e-07 -7.98952e-06 0.0985411)
(-2.66055e-06 1.46958e-05 0.109888)
(-7.77421e-06 2.03451e-05 0.0930967)
(-3.62955e-06 -3.46569e-06 0.087582)
(-3.44082e-06 -3.6354e-06 0.0875811)
(4.14949e-05 4.14887e-05 0.10432)
(9.81794e-06 6.93387e-06 0.0876396)
(6.97452e-06 9.79761e-06 0.0876379)
(-3.33833e-06 -5.88873e-06 0.0716038)
(-5.87025e-06 -3.35648e-06 0.0716036)
(-4.16227e-05 -4.16195e-05 0.104318)
(-6.91178e-06 -9.86742e-06 0.0876082)
(-9.89604e-06 -6.94657e-06 0.0876062)
(-3.36049e-06 -5.86212e-06 0.0716189)
(2.53356e-06 4.37334e-06 0.0715573)
(-5.84281e-06 -3.38026e-06 0.0716186)
(4.35155e-06 2.54984e-06 0.0715576)
(2.3793e-05 2.38023e-05 0.104203)
(-6.91913e-06 -9.82781e-06 0.087624)
(-9.85691e-06 -6.95424e-06 0.087622)
(3.43794e-06 3.5974e-06 0.0875657)
(3.6194e-06 3.45169e-06 0.0875647)
(-6.10563e-06 -1.12828e-05 0.107487)
(-7.77801e-06 -2.03957e-05 0.0930673)
(-2.70926e-07 5.00756e-06 0.0913912)
(-1.22665e-06 -1.20169e-05 0.0823026)
(5.96868e-07 7.19695e-06 0.0822431)
(-3.10326e-07 -1.65759e-05 0.0914426)
(2.36204e-07 5.00596e-06 0.0913914)
(1.17393e-06 -1.20065e-05 0.0823038)
(-5.83825e-07 7.15816e-06 0.0822428)
(2.76767e-07 -1.65811e-05 0.0914427)
(-4.4012e-07 8.03667e-06 0.0985301)
(-6.1286e-06 -1.13158e-05 0.107485)
(-7.77748e-06 -2.03666e-05 0.0930817)
(-2.636e-06 -1.45488e-05 0.109898)
(3.09478e-06 8.79369e-06 0.0930178)
(-2.61572e-06 -1.44766e-05 0.109903)
(-7.10789e-07 -2.72764e-05 0.0985914)
(4.12804e-07 8.03844e-06 0.0985303)
(6.12823e-06 -1.12758e-05 0.107486)
(7.73211e-06 -2.03682e-05 0.0930823)
(2.63531e-06 -1.45538e-05 0.109898)
(-3.09227e-06 8.77742e-06 0.0930175)
(2.63485e-06 -1.44757e-05 0.109903)
(6.76409e-07 -2.72837e-05 0.0985916)
(3.31262e-06 -5.81102e-06 0.0716208)
(-2.51861e-06 4.30029e-06 0.0715559)
(-2.38377e-05 2.37841e-05 0.104203)
(6.91815e-06 -9.83223e-06 0.0876231)
(9.83777e-06 -6.9846e-06 0.0876241)
(-3.47653e-06 3.58111e-06 0.0875641)
(5.83422e-06 -3.41991e-06 0.0716193)
(-1.1311e-05 -6.12038e-06 0.107489)
(-2.04289e-05 -7.79796e-06 0.0930674)
(5.01818e-06 -2.53947e-07 0.0913914)
(-1.20188e-05 -1.23032e-06 0.0823034)
(7.18505e-06 6.15718e-07 0.0822441)
(-1.65809e-05 -2.84212e-07 0.0914429)
(8.0472e-06 -4.29782e-07 0.0985302)
(-1.13456e-05 -6.1487e-06 0.107487)
(-2.03983e-05 -7.79571e-06 0.0930818)
(-1.45546e-05 -2.63982e-06 0.109898)
(8.79999e-06 3.10872e-06 0.0930186)
(-1.44864e-05 -2.62306e-06 0.109903)
(-2.72879e-05 -6.88488e-07 0.0985918)
(5.01901e-06 2.46529e-07 0.0913914)
(-1.20013e-05 1.24134e-06 0.0823029)
(7.18132e-06 -6.23311e-07 0.0822439)
(-1.65772e-05 3.03509e-07 0.0914428)
(8.04941e-06 4.08739e-07 0.0985302)
(-1.13082e-05 6.13878e-06 0.107484)
(-1.45471e-05 2.63389e-06 0.109897)
(-2.03512e-05 7.78689e-06 0.0930808)
(-1.44778e-05 2.61847e-06 0.109902)
(8.78514e-06 -3.11266e-06 0.0930181)
(-2.72824e-05 7.09542e-07 0.0985916)
(2.03683e-05 -7.8159e-06 0.0930829)
(1.45518e-05 -2.6416e-06 0.109898)
(2.72305e-05 -6.74794e-07 0.0985921)
(1.19899e-05 -1.28899e-06 0.0823037)
(1.65229e-05 -2.53761e-07 0.0914436)
(1.45436e-05 2.61091e-06 0.109898)
(2.03613e-05 7.76415e-06 0.0930822)
(2.72438e-05 6.99354e-07 0.0985919)
(1.20218e-05 1.20988e-06 0.0823034)
(1.65449e-05 3.13907e-07 0.091443)
(-5.82869e-06 3.37989e-06 0.0716186)
(4.33844e-06 -2.56158e-06 0.0715582)
(2.38021e-05 -2.38184e-05 0.104203)
(-9.83002e-06 6.93355e-06 0.0876209)
(-6.93635e-06 9.82211e-06 0.0876238)
(3.59478e-06 -3.46727e-06 0.0875649)
(3.4363e-06 -3.60475e-06 0.0875664)
(-3.38019e-06 5.84931e-06 0.0716191)
(2.53692e-06 -4.36062e-06 0.071558)
(-4.03485e-07 -8.02088e-06 0.0985302)
(-6.14595e-06 1.13486e-05 0.107486)
(-2.62866e-06 1.45658e-05 0.109897)
(-7.77958e-06 2.03816e-05 0.0930822)
(-2.61565e-06 1.44938e-05 0.109902)
(3.08679e-06 -8.79086e-06 0.093019)
(-7.15535e-07 2.7243e-05 0.0985917)
(4.25529e-07 -8.00878e-06 0.0985304)
(6.16648e-06 1.1344e-05 0.107486)
(2.63466e-06 1.4567e-05 0.109897)
(7.80394e-06 2.03875e-05 0.0930822)
(2.61412e-06 1.44893e-05 0.109902)
(-3.10614e-06 -8.79152e-06 0.0930189)
(6.8818e-07 2.72307e-05 0.0985921)
(-2.06511e-07 -4.98352e-06 0.0913908)
(-1.23038e-06 1.2014e-05 0.0823033)
(5.99776e-07 -7.18488e-06 0.0822442)
(-3.41288e-07 1.65287e-05 0.0914433)
(2.58034e-07 -4.96187e-06 0.0913904)
(1.24933e-06 1.20106e-05 0.0823039)
(-6.23418e-07 -7.17762e-06 0.0822445)
(2.8187e-07 1.65047e-05 0.0914439)
(-2.37621e-05 -2.37709e-05 0.104204)
(9.85667e-06 6.93349e-06 0.0876237)
(6.96971e-06 9.83621e-06 0.0876221)
(-3.45624e-06 -3.61757e-06 0.0875652)
(5.85568e-06 3.3582e-06 0.0716194)
(3.40334e-06 5.83266e-06 0.0716193)
(-2.55753e-06 -4.35021e-06 0.0715584)
(2.50831e-06 4.38559e-06 0.0715724)
(-3.38266e-06 -5.8363e-06 0.0716338)
(4.36467e-06 2.52248e-06 0.0715726)
(-5.81694e-06 -3.40237e-06 0.0716336)
(3.42423e-06 3.62318e-06 0.0875816)
(3.64624e-06 3.43626e-06 0.0875806)
(-4.14948e-05 -4.14947e-05 0.104321)
(-6.92305e-06 -9.78979e-06 0.0876398)
(-9.81762e-06 -6.95894e-06 0.0876378)
(2.48235e-06 4.39854e-06 0.0715874)
(4.37737e-06 2.49671e-06 0.0715876)
(2.37234e-05 2.37335e-05 0.104208)
(3.41146e-06 3.65001e-06 0.0875974)
(3.67358e-06 3.4231e-06 0.0875965)
(2.72736e-07 -1.65454e-05 0.0914583)
(-5.65366e-07 7.17847e-06 0.0822595)
(2.37587e-07 5.00763e-06 0.0914071)
(1.18464e-06 -1.19767e-05 0.0823204)
(-7.08117e-07 -2.72557e-05 0.0986022)
(3.08567e-06 8.80975e-06 0.0930323)
(-2.65009e-06 -1.46227e-05 0.109894)
(-6.19386e-06 -1.1381e-05 0.107479)
(-4.42096e-07 8.01101e-06 0.0985409)
(-7.76854e-06 -2.03319e-05 0.0930962)
(-2.66275e-06 -1.46804e-05 0.109889)
(6.74121e-07 -2.72631e-05 0.0986024)
(-3.08311e-06 8.80823e-06 0.0930321)
(2.65629e-06 -1.46299e-05 0.109894)
(6.18591e-06 -1.1393e-05 0.107479)
(4.13372e-07 8.01375e-06 0.0985411)
(7.72312e-06 -2.03392e-05 0.0930967)
(2.67277e-06 -1.4685e-05 0.109889)
(-2.67564e-07 5.01669e-06 0.0914226)
(5.62177e-07 7.23013e-06 0.0822765)
(2.3459e-07 5.01656e-06 0.0914227)
(-5.49978e-07 7.19582e-06 0.0822761)
(-4.40114e-07 7.99394e-06 0.0985519)
(-6.21765e-06 -1.14042e-05 0.107478)
(3.07889e-06 8.8303e-06 0.0930469)
(-2.68211e-06 -1.47467e-05 0.109885)
(4.12121e-07 7.99702e-06 0.098552)
(6.21182e-06 -1.14161e-05 0.107477)
(-3.07723e-06 8.82382e-06 0.0930466)
(2.68677e-06 -1.47511e-05 0.109885)
(-3.46051e-06 3.60397e-06 0.08758)
(-3.66177e-06 3.41958e-06 0.0875822)
(4.14885e-05 -4.15022e-05 0.104321)
(6.91983e-06 -9.79521e-06 0.0876389)
(9.80339e-06 -6.99191e-06 0.08764)
(-4.37915e-06 2.50853e-06 0.0715728)
(5.80735e-06 -3.43602e-06 0.0716342)
(-2.46716e-06 4.32533e-06 0.0715859)
(-2.37408e-05 2.36926e-05 0.104208)
(-3.45028e-06 3.62926e-06 0.0875959)
(-3.68434e-06 3.40934e-06 0.0875981)
(-4.38963e-06 2.48808e-06 0.0715878)
(-2.7269e-05 -6.89476e-07 0.0986027)
(8.81548e-06 3.09556e-06 0.0930331)
(-1.46284e-05 -2.65823e-06 0.109894)
(-1.14088e-05 -6.21135e-06 0.107481)
(8.02281e-06 -4.29483e-07 0.098541)
(-2.0364e-05 -7.79043e-06 0.0930963)
(-1.46863e-05 -2.67151e-06 0.109889)
(-1.65473e-05 3.00309e-07 0.0914584)
(7.19324e-06 -6.07104e-07 0.0822606)
(5.02197e-06 2.48054e-07 0.091407)
(-1.19684e-05 1.25588e-06 0.0823195)
(-2.72648e-05 7.05527e-07 0.0986025)
(-1.46205e-05 2.6495e-06 0.109893)
(8.79175e-06 -3.10741e-06 0.0930327)
(-1.13756e-05 6.19799e-06 0.107478)
(8.02531e-06 4.10644e-07 0.098541)
(-1.46767e-05 2.6651e-06 0.109888)
(-2.03226e-05 7.78247e-06 0.0930953)
(5.02653e-06 -2.51852e-07 0.0914227)
(7.22044e-06 5.77583e-07 0.0822774)
(8.00708e-06 -4.30199e-07 0.0985519)
(-1.14328e-05 -6.23634e-06 0.107479)
(8.83603e-06 3.08745e-06 0.0930476)
(-1.47518e-05 -2.68833e-06 0.109885)
(5.0276e-06 2.48309e-07 0.0914227)
(7.2125e-06 -5.91069e-07 0.0822772)
(8.01178e-06 4.13592e-07 0.0985518)
(-1.13978e-05 6.22096e-06 0.107476)
(-1.47422e-05 2.6811e-06 0.109884)
(8.8096e-06 -3.10247e-06 0.0930472)
(1.64945e-05 -2.53212e-07 0.0914592)
(-7.2006e-06 6.10016e-07 0.0822604)
(-4.97584e-06 -3.19609e-07 0.0914066)
(1.19658e-05 -1.29957e-06 0.0823203)
(2.723e-05 7.00369e-07 0.0986026)
(1.46272e-05 2.63334e-06 0.109893)
(-8.78957e-06 -3.11569e-06 0.0930331)
(1.13975e-05 6.19168e-06 0.107479)
(-7.99023e-06 3.95779e-07 0.0985415)
(1.4688e-05 2.6521e-06 0.109888)
(2.03311e-05 7.76057e-06 0.0930967)
(1.65177e-05 3.11848e-07 0.0914585)
(-7.19604e-06 -6.11737e-07 0.0822607)
(-4.99978e-06 2.00409e-07 0.0914071)
(1.19895e-05 1.2246e-06 0.08232)
(-7.95414e-06 -4.63304e-07 0.0985525)
(1.14376e-05 -6.24979e-06 0.10748)
(-8.83508e-06 3.07003e-06 0.0930478)
(1.47645e-05 -2.69734e-06 0.109885)
(-4.97884e-06 -3.19989e-07 0.0914223)
(-7.21428e-06 5.94358e-07 0.082277)
(-7.9669e-06 3.96053e-07 0.0985525)
(1.14188e-05 6.21792e-06 0.107477)
(1.47575e-05 2.67089e-06 0.109884)
(-8.80463e-06 -3.10873e-06 0.0930476)
(-5.00138e-06 1.98945e-07 0.0914228)
(-7.20745e-06 -5.93653e-07 0.0822773)
(3.61691e-06 -3.45322e-06 0.0875808)
(3.41227e-06 -3.61905e-06 0.0875822)
(-4.1486e-05 4.14986e-05 0.10432)
(-9.79449e-06 6.9387e-06 0.0876367)
(-6.93986e-06 9.77997e-06 0.0876396)
(2.50692e-06 -4.37474e-06 0.0715731)
(-3.40187e-06 5.82077e-06 0.071634)
(4.36221e-06 -2.51174e-06 0.0715882)
(2.37257e-05 -2.37489e-05 0.104207)
(3.64287e-06 -3.44044e-06 0.0875966)
(3.39911e-06 -3.64454e-06 0.087598)
(2.48212e-06 -4.38781e-06 0.071588)
(6.88802e-07 2.72077e-05 0.0986029)
(2.65582e-06 1.46433e-05 0.109893)
(-3.09492e-06 -8.80604e-06 0.0930334)
(6.2223e-06 1.14098e-05 0.10748)
(4.32443e-07 -7.98099e-06 0.0985413)
(2.67316e-06 1.46969e-05 0.109888)
(7.79768e-06 2.03528e-05 0.0930967)
(-3.36651e-07 1.64945e-05 0.0914589)
(5.80572e-07 -7.20073e-06 0.0822609)
(-2.05532e-07 -4.98287e-06 0.0914064)
(-1.24375e-06 1.19815e-05 0.0823199)
(2.83951e-07 1.64709e-05 0.0914595)
(-6.0478e-07 -7.19344e-06 0.0822612)
(2.61351e-07 -4.96319e-06 0.091406)
(1.26405e-06 1.19789e-05 0.0823205)
(-4.05554e-07 -7.97542e-06 0.098552)
(-6.23398e-06 1.14327e-05 0.107479)
(-2.67858e-06 1.47602e-05 0.109884)
(3.06503e-06 -8.82419e-06 0.093048)
(4.32271e-07 -7.96629e-06 0.0985522)
(6.24408e-06 1.14315e-05 0.107478)
(2.69017e-06 1.47615e-05 0.109884)
(-3.08747e-06 -8.82721e-06 0.0930479)
(-2.02462e-07 -4.98998e-06 0.0914221)
(5.63716e-07 -7.21811e-06 0.0822775)
(2.62506e-07 -4.96977e-06 0.0914217)
(-5.85921e-07 -7.21171e-06 0.0822779)
(-4.36403e-06 -2.53537e-06 0.0715733)
(5.83212e-06 3.37725e-06 0.0716344)
(-2.52905e-06 -4.36051e-06 0.0715734)
(3.42485e-06 5.80579e-06 0.0716342)
(-2.37311e-05 -2.37347e-05 0.104208)
(-3.6553e-06 -3.4522e-06 0.0875978)
(-3.42815e-06 -3.66251e-06 0.0875969)
(-4.37321e-06 -2.51241e-06 0.0715882)
(-2.50304e-06 -4.37429e-06 0.0715884)
(-9.27675e-07 4.92559e-06 0.068413)
(-1.40233e-06 -1.22902e-05 0.0858851)
(6.04997e-07 7.19037e-06 0.0822347)
(-7.91702e-07 5.87963e-06 0.085829)
(1.4715e-07 -6.0766e-06 0.0684738)
(7.18008e-06 6.24966e-07 0.0822357)
(-7.67338e-07 4.26074e-06 0.0769181)
(-2.68952e-07 5.01069e-06 0.0914147)
(1.2217e-07 -7.40372e-06 0.078736)
(-1.1685e-06 -1.59366e-05 0.0899817)
(-2.0299e-07 3.8696e-06 0.0786958)
(-5.94526e-07 5.53061e-06 0.0899323)
(4.88169e-07 -7.41753e-06 0.0769647)
(1.12587e-07 -6.04699e-06 0.0684961)
(-8.15303e-07 5.90847e-06 0.0858543)
(-1.23286e-06 -1.19997e-05 0.0823109)
(-9.69587e-07 4.93162e-06 0.0684354)
(-1.41792e-06 -1.22337e-05 0.0859103)
(4.9312e-07 -7.42263e-06 0.0769565)
(-3.09733e-07 -1.65614e-05 0.0914504)
(-2.02715e-07 3.86793e-06 0.0786874)
(-5.91006e-07 5.5279e-06 0.0899242)
(-7.60051e-07 4.26005e-06 0.0769098)
(1.20727e-07 -7.41527e-06 0.0787277)
(-1.16772e-06 -1.5953e-05 0.0899737)
(-9.82654e-07 4.93363e-06 0.0684428)
(-1.42259e-06 -1.22152e-05 0.0859187)
(5.7111e-07 7.22306e-06 0.0822682)
(-8.22776e-07 5.92069e-06 0.0858627)
(1.02711e-07 -6.03901e-06 0.0685034)
(3.32013e-06 -5.80003e-06 0.0716283)
(-2.47877e-06 4.31937e-06 0.0715785)
(4.26566e-06 -7.45732e-07 0.0769187)
(5.02299e-06 -2.52549e-07 0.0914149)
(-1.59424e-05 -1.14927e-06 0.0899821)
(-7.41289e-06 1.4549e-07 0.0787364)
(5.54148e-06 -5.73003e-07 0.0899326)
(3.87357e-06 -1.88105e-07 0.0786961)
(-7.42199e-06 5.08575e-07 0.0769653)
(-6.05294e-06 1.28316e-07 0.0684969)
(5.89855e-06 -7.91597e-07 0.0858549)
(-1.20017e-05 -1.23729e-06 0.0823117)
(4.92562e-06 -9.43348e-07 0.0684362)
(-1.22446e-05 -1.4058e-06 0.0859109)
(-7.42752e-06 5.1541e-07 0.0769571)
(-1.65689e-05 -2.84606e-07 0.0914507)
(5.5402e-06 -5.6801e-07 0.0899246)
(3.87461e-06 -1.8732e-07 0.0786877)
(4.25978e-06 -7.38368e-07 0.0769104)
(-1.59581e-05 -1.14774e-06 0.0899741)
(-7.4173e-06 1.45629e-07 0.078728)
(4.92857e-06 -9.5675e-07 0.0684436)
(-1.22248e-05 -1.41173e-06 0.0859192)
(7.20973e-06 5.85707e-07 0.0822691)
(5.91045e-06 -8.00051e-07 0.0858633)
(-6.04398e-06 1.16814e-07 0.0685042)
(-5.8174e-06 3.3894e-06 0.0716261)
(4.35524e-06 -2.5247e-06 0.0715807)
(-3.13578e-06 -3.18051e-06 0.0836479)
(3.55434e-06 5.12079e-06 0.0684073)
(5.14514e-06 3.53456e-06 0.0684011)
(-2.63244e-06 -4.08619e-06 0.0683518)
(-4.04143e-06 -2.66649e-06 0.0683458)
(7.20065e-06 7.17466e-06 0.0836934)
(1.66923e-05 1.02261e-05 0.0917484)
(-1.10401e-05 -5.53667e-06 0.0962972)
(-3.87773e-06 -3.00525e-06 0.0815857)
(9.83757e-06 6.93227e-06 0.0876317)
(-7.83665e-06 -3.8326e-06 0.0917008)
(2.39075e-05 1.4174e-05 0.0963461)
(8.00231e-06 4.01862e-06 0.0816377)
(1.02745e-05 1.6685e-05 0.0917416)
(-5.53054e-06 -1.10459e-05 0.0962947)
(-2.98657e-06 -3.91959e-06 0.0815814)
(6.97222e-06 9.81683e-06 0.08763)
(-3.82069e-06 -7.87058e-06 0.0916945)
(1.4227e-05 2.38917e-05 0.0963435)
(4.06758e-06 8.00275e-06 0.0816321)
(7.21372e-06 7.18808e-06 0.0836859)
(-2.62937e-06 -4.08818e-06 0.0683452)
(-4.04503e-06 -2.66489e-06 0.0683392)
(-3.12894e-06 -3.17328e-06 0.0836404)
(3.56408e-06 5.12331e-06 0.0684007)
(5.14707e-06 3.54196e-06 0.0683945)
(-7.85064e-06 -3.83921e-06 0.0917078)
(7.99074e-06 4.02566e-06 0.0816454)
(-3.6425e-06 -3.45714e-06 0.0875899)
(2.38788e-05 1.4171e-05 0.096352)
(-1.10553e-05 -5.53522e-06 0.0963031)
(-3.88857e-06 -2.99579e-06 0.0815935)
(1.66652e-05 1.02118e-05 0.0917554)
(-3.82568e-06 -7.88535e-06 0.0917016)
(4.07095e-06 7.98623e-06 0.0816398)
(-3.43421e-06 -3.64938e-06 0.087589)
(1.42208e-05 2.38654e-05 0.0963495)
(-5.53136e-06 -1.10558e-05 0.0963007)
(-2.97965e-06 -3.93122e-06 0.0815892)
(1.02631e-05 1.6658e-05 0.0917486)
(2.54661e-06 4.36866e-06 0.0715498)
(4.34503e-06 2.56389e-06 0.07155)
(3.15611e-06 3.13548e-06 0.0836171)
(-5.12887e-06 -3.5967e-06 0.0683807)
(-3.58176e-06 -5.15675e-06 0.0683743)
(4.07983e-06 2.64442e-06 0.0683243)
(2.66658e-06 4.06091e-06 0.0683182)
(-7.22932e-06 -7.25414e-06 0.0836638)
(3.8087e-06 7.80773e-06 0.0916791)
(-3.99623e-06 -8.02218e-06 0.0816153)
(3.44815e-06 3.58907e-06 0.0875577)
(-1.41957e-05 -2.3958e-05 0.0963281)
(2.98794e-06 3.83513e-06 0.0815622)
(-1.02556e-05 -1.6751e-05 0.0917274)
(5.54053e-06 1.10261e-05 0.096279)
(7.81277e-06 3.79969e-06 0.0916727)
(-8.05577e-06 -4.03454e-06 0.0816093)
(3.60863e-06 3.46007e-06 0.0875568)
(-2.39741e-05 -1.42247e-05 0.0963257)
(3.88194e-06 2.98375e-06 0.0815573)
(-1.67469e-05 -1.02947e-05 0.0917209)
(1.10071e-05 5.53039e-06 0.0962765)
(2.521e-06 4.37906e-06 0.0715649)
(-3.34951e-06 -5.87541e-06 0.0716114)
(4.35786e-06 2.53529e-06 0.0715651)
(-5.85733e-06 -3.36835e-06 0.0716111)
(-7.21931e-06 -7.24326e-06 0.0836713)
(4.07809e-06 2.64609e-06 0.068331)
(2.66762e-06 4.0587e-06 0.0683249)
(3.15959e-06 3.13988e-06 0.0836247)
(-5.1254e-06 -3.5888e-06 0.0683873)
(-3.57399e-06 -5.15314e-06 0.0683809)
(3.81426e-06 7.83025e-06 0.0916932)
(-1.41868e-05 -2.39026e-05 0.0963399)
(3.4297e-06 3.61078e-06 0.0875737)
(-4.00071e-06 -7.98803e-06 0.0816308)
(2.97488e-06 3.85726e-06 0.0815777)
(5.5257e-06 1.10392e-05 0.096291)
(-1.02314e-05 -1.66994e-05 0.0917414)
(7.83573e-06 3.80689e-06 0.0916868)
(-2.39209e-05 -1.42159e-05 0.0963376)
(3.63288e-06 3.44287e-06 0.0875727)
(-8.02083e-06 -4.03947e-06 0.0816248)
(3.90455e-06 2.97088e-06 0.0815728)
(1.10216e-05 5.52393e-06 0.0962884)
(-1.66947e-05 -1.02718e-05 0.091735)
(-1.02466e-05 -1.67273e-05 0.0917344)
(2.98143e-06 3.84524e-06 0.0815699)
(5.52859e-06 1.10331e-05 0.096285)
(-6.91629e-06 -9.84966e-06 0.0876161)
(3.81016e-06 7.8185e-06 0.0916861)
(-4.00038e-06 -8.00817e-06 0.081623)
(-1.41913e-05 -2.39365e-05 0.096334)
(-1.67233e-05 -1.02842e-05 0.091728)
(3.89254e-06 2.97807e-06 0.081565)
(1.10124e-05 5.52764e-06 0.0962824)
(-9.87826e-06 -6.95074e-06 0.0876141)
(7.82335e-06 3.80388e-06 0.0916797)
(-8.04092e-06 -4.0384e-06 0.0816171)
(-2.39502e-05 -1.42205e-05 0.0963316)
(3.16563e-06 3.14463e-06 0.0836322)
(-5.12296e-06 -3.58126e-06 0.068394)
(-3.56574e-06 -5.15154e-06 0.0683876)
(4.07483e-06 2.64834e-06 0.0683377)
(2.67065e-06 4.05504e-06 0.0683315)
(-7.20715e-06 -7.23258e-06 0.0836788)
(5.03814e-07 -7.44259e-06 0.07694)
(-2.02806e-07 3.86995e-06 0.0786705)
(-5.82064e-07 5.52675e-06 0.089908)
(-3.11293e-07 -1.65892e-05 0.0914348)
(-7.45605e-07 4.25985e-06 0.0768933)
(1.20985e-07 -7.42786e-06 0.0787109)
(-1.1638e-06 -1.59839e-05 0.0899576)
(-9.55418e-07 4.92957e-06 0.068428)
(5.8868e-07 7.20521e-06 0.0822515)
(-1.41295e-06 -1.22559e-05 0.0859019)
(1.24068e-07 -6.05748e-06 0.0684887)
(-8.06856e-07 5.89646e-06 0.0858459)
(1.35626e-07 -6.06571e-06 0.0684813)
(-7.99412e-07 5.88691e-06 0.0858374)
(-1.21966e-06 -1.20358e-05 0.0822943)
(-9.41461e-07 4.92674e-06 0.0684205)
(-1.40629e-06 -1.22733e-05 0.0858935)
(-7.51716e-07 4.26262e-06 0.0769016)
(-2.7087e-07 5.0063e-06 0.0913991)
(1.20927e-07 -7.4206e-06 0.0787193)
(-1.16604e-06 -1.59697e-05 0.0899656)
(4.99151e-07 -7.42782e-06 0.0769482)
(-2.01771e-07 3.86967e-06 0.078679)
(-5.86501e-07 5.52565e-06 0.0899161)
(-5.36562e-07 -7.44181e-06 0.0769397)
(1.74921e-07 3.86882e-06 0.0786707)
(5.50236e-07 5.52487e-06 0.0899086)
(2.77876e-07 -1.65938e-05 0.0914349)
(7.14295e-07 4.24833e-06 0.0768933)
(-1.50649e-07 -7.43063e-06 0.078711)
(1.12673e-06 -1.59863e-05 0.0899576)
(9.41498e-07 4.91992e-06 0.0684307)
(-5.71941e-07 7.17134e-06 0.0822511)
(1.35654e-06 -1.22702e-05 0.0859026)
(8.06552e-07 5.89255e-06 0.0858472)
(-1.63051e-07 -6.06217e-06 0.0684911)
(-1.76004e-07 -6.06868e-06 0.0684837)
(7.98975e-07 5.88184e-06 0.0858388)
(1.16826e-06 -1.20241e-05 0.0822954)
(9.26926e-07 4.92096e-06 0.0684233)
(1.35254e-06 -1.22845e-05 0.0858943)
(7.24187e-07 4.25151e-06 0.0769016)
(2.3715e-07 5.00571e-06 0.0913992)
(-1.49613e-07 -7.42596e-06 0.0787194)
(1.12891e-06 -1.5976e-05 0.0899656)
(1.77335e-07 3.86603e-06 0.0786791)
(5.55361e-07 5.52423e-06 0.0899167)
(-5.29047e-07 -7.43127e-06 0.076948)
(-2.50118e-06 4.30861e-06 0.0715635)
(3.29989e-06 -5.82286e-06 0.0716133)
(-3.864e-06 7.84899e-06 0.0916871)
(1.41927e-05 -2.39332e-05 0.0963377)
(-3.47175e-06 3.58969e-06 0.0875721)
(4.05108e-06 -8.04642e-06 0.0816247)
(-5.57746e-06 1.10363e-05 0.0962886)
(-3.05377e-06 3.8808e-06 0.0815731)
(1.02578e-05 -1.67284e-05 0.0917349)
(-7.86942e-06 3.79547e-06 0.0916936)
(2.39068e-05 -1.42392e-05 0.0963408)
(-3.63907e-06 3.42742e-06 0.0875743)
(8.00605e-06 -4.06607e-06 0.0816305)
(-3.92852e-06 2.97139e-06 0.0815783)
(-1.10456e-05 5.5009e-06 0.0962914)
(1.66872e-05 -1.02769e-05 0.091742)
(-5.56917e-06 1.10418e-05 0.0962826)
(6.91368e-06 -9.84535e-06 0.0876152)
(1.42069e-05 -2.39383e-05 0.0963318)
(-3.15908e-06 3.13316e-06 0.0836322)
(5.11478e-06 -3.57957e-06 0.0683883)
(3.54052e-06 -5.15692e-06 0.0683938)
(-4.08625e-06 2.63849e-06 0.0683322)
(-2.66681e-06 4.04929e-06 0.0683375)
(7.18974e-06 -7.23415e-06 0.0836791)
(-4.3631e-06 2.51744e-06 0.0715654)
(-7.44401e-06 5.2731e-07 0.0769406)
(5.53721e-06 -5.57129e-07 0.0899084)
(3.87636e-06 -1.85888e-07 0.0786709)
(-1.65935e-05 -2.84254e-07 0.0914351)
(4.25388e-06 -7.2194e-07 0.0768938)
(-1.59857e-05 -1.14077e-06 0.089958)
(-7.43586e-06 1.45988e-07 0.0787113)
(4.924e-06 -9.27568e-07 0.0684288)
(7.19057e-06 6.03447e-07 0.0822524)
(-1.22647e-05 -1.40084e-06 0.0859025)
(-6.06295e-06 1.40798e-07 0.0684895)
(5.88744e-06 -7.8424e-07 0.0858465)
(-6.07128e-06 1.5194e-07 0.0684821)
(5.87952e-06 -7.72688e-07 0.0858381)
(-1.20342e-05 -1.22067e-06 0.0822951)
(4.92424e-06 -9.13902e-07 0.0684213)
(-1.22822e-05 -1.39276e-06 0.0858941)
(4.2762e-06 -7.27907e-07 0.0769021)
(5.01858e-06 -2.52983e-07 0.0913992)
(-1.59729e-05 -1.14456e-06 0.0899661)
(-7.42631e-06 1.42598e-07 0.0787197)
(-7.43503e-06 5.20356e-07 0.0769488)
(5.53503e-06 -5.63371e-07 0.0899165)
(3.86908e-06 -1.89084e-07 0.0786793)
(-7.43704e-06 -5.00412e-07 0.0769398)
(3.87576e-06 1.81947e-07 0.0786707)
(5.52152e-06 5.49985e-07 0.0899085)
(-1.65898e-05 3.07355e-07 0.091435)
(4.24217e-06 7.21377e-07 0.0768932)
(-7.43379e-06 -1.19927e-07 0.0787111)
(-1.5974e-05 1.16324e-06 0.0899575)
(4.91355e-06 9.30523e-07 0.0684306)
(7.18535e-06 -6.13995e-07 0.0822522)
(-1.22431e-05 1.41859e-06 0.0859025)
(5.87759e-06 7.83004e-07 0.0858472)
(-6.04883e-06 -1.12117e-07 0.0684911)
(-6.05523e-06 -1.27294e-07 0.0684837)
(5.86863e-06 7.75254e-07 0.0858388)
(-1.20138e-05 1.23171e-06 0.0822946)
(4.91255e-06 9.20706e-07 0.0684232)
(-1.22581e-05 1.41088e-06 0.0858941)
(4.26477e-06 7.25782e-07 0.0769015)
(5.02019e-06 2.45501e-07 0.0913992)
(-7.42561e-06 -1.23336e-07 0.0787195)
(-1.59611e-05 1.1651e-06 0.0899656)
(3.87104e-06 1.86809e-07 0.0786792)
(5.52136e-06 5.55398e-07 0.0899165)
(-7.42981e-06 -4.93646e-07 0.0769481)
(-4.8724e-06 -9.81477e-07 0.068426)
(-7.19191e-06 6.13757e-07 0.0822521)
(1.2209e-05 -1.43053e-06 0.0859038)
(-5.86236e-06 -7.93998e-07 0.0858454)
(6.00659e-06 1.47466e-07 0.0684916)
(-4.18959e-06 -7.80942e-07 0.0768988)
(-4.97429e-06 -3.21369e-07 0.0913988)
(1.5889e-05 -1.13943e-06 0.0899674)
(7.37964e-06 1.66207e-07 0.0787204)
(-5.46737e-06 -6.04978e-07 0.0899153)
(-3.82999e-06 -2.53431e-07 0.0786775)
(7.34431e-06 5.28697e-07 0.0769507)
(-4.91611e-06 9.10947e-07 0.0684311)
(-7.19379e-06 -6.20552e-07 0.0822524)
(1.22544e-05 1.38798e-06 0.0859032)
(-5.88607e-06 7.63673e-07 0.0858473)
(6.05848e-06 -1.47163e-07 0.0684917)
(-4.25475e-06 7.02471e-07 0.0769015)
(-5.00184e-06 2.00309e-07 0.0913993)
(7.41595e-06 -1.21386e-07 0.0787195)
(1.59514e-05 1.1447e-06 0.089966)
(-3.86457e-06 1.42477e-07 0.0786789)
(-5.51696e-06 5.35021e-07 0.0899166)
(7.4427e-06 -5.14116e-07 0.0769481)
(4.34411e-06 -2.5484e-06 0.0715657)
(-5.84232e-06 3.3669e-06 0.0716111)
(-7.23642e-06 7.20304e-06 0.0836714)
(2.642e-06 -4.06801e-06 0.0683262)
(4.05793e-06 -2.65393e-06 0.0683317)
(3.13322e-06 -3.13797e-06 0.0836252)
(-3.59134e-06 5.11305e-06 0.0683817)
(-5.14513e-06 3.56558e-06 0.0683874)
(7.84764e-06 -3.81872e-06 0.0916871)
(-2.39334e-05 1.41834e-05 0.0963363)
(3.60604e-06 -3.45911e-06 0.0875728)
(-8.03743e-06 4.02011e-06 0.0816239)
(1.10648e-05 -5.53185e-06 0.0962886)
(3.88908e-06 -3.00394e-06 0.0815734)
(-1.67196e-05 1.02339e-05 0.0917342)
(3.80614e-06 -7.84851e-06 0.0916938)
(-1.42225e-05 2.39143e-05 0.0963401)
(3.42256e-06 -3.613e-06 0.0875743)
(-4.03421e-06 7.99627e-06 0.0816302)
(2.97617e-06 -3.88259e-06 0.0815786)
(5.51914e-06 -1.10351e-05 0.0962913)
(-1.02724e-05 1.67094e-05 0.0917413)
(-1.67439e-05 1.02452e-05 0.0917271)
(3.87607e-06 -3.00949e-06 0.0815657)
(1.10585e-05 -5.53772e-06 0.0962826)
(-9.85018e-06 6.92698e-06 0.087613)
(-2.3959e-05 1.41958e-05 0.0963304)
(7.83604e-06 -3.81493e-06 0.0916801)
(-8.05537e-06 4.01736e-06 0.0816162)
(-1.02833e-05 1.67335e-05 0.0917342)
(2.98523e-06 -3.8753e-06 0.0815709)
(5.52577e-06 -1.10287e-05 0.0962854)
(-6.93529e-06 9.84559e-06 0.0876159)
(3.80321e-06 -7.83561e-06 0.0916868)
(-4.03862e-06 8.0202e-06 0.0816224)
(-1.42274e-05 2.39398e-05 0.0963341)
(3.13837e-06 -3.1445e-06 0.0836327)
(-3.58322e-06 5.11013e-06 0.0683883)
(-5.13913e-06 3.55723e-06 0.0683941)
(2.64513e-06 -4.06591e-06 0.0683329)
(4.05477e-06 -2.65761e-06 0.0683383)
(-7.22549e-06 7.19203e-06 0.0836789)
(2.5208e-06 -4.36816e-06 0.0715655)
(-3.36663e-06 5.86173e-06 0.0716116)
(4.83442e-07 7.40969e-06 0.0769403)
(-5.20133e-07 -5.51718e-06 0.0899086)
(-1.57081e-07 -3.83182e-06 0.078669)
(-3.40635e-07 1.65395e-05 0.0914355)
(-6.91523e-07 -4.24823e-06 0.0768935)
(-1.18629e-06 1.59607e-05 0.0899576)
(9.34358e-08 7.38365e-06 0.0787118)
(-9.22045e-07 -4.91128e-06 0.0684297)
(5.89805e-07 -7.19251e-06 0.0822526)
(-1.40971e-06 1.22436e-05 0.0859021)
(-7.87165e-07 -5.87891e-06 0.0858471)
(1.21533e-07 6.04317e-06 0.0684899)
(1.35103e-07 6.05336e-06 0.0684825)
(-7.78216e-07 -5.87121e-06 0.0858387)
(-1.22064e-06 1.20305e-05 0.082295)
(-9.09009e-07 -4.91115e-06 0.0684222)
(-1.4041e-06 1.22625e-05 0.0858937)
(-6.98858e-07 -4.24661e-06 0.0769018)
(-2.0486e-07 -4.98329e-06 0.0913986)
(-1.18905e-06 1.59465e-05 0.0899656)
(9.72795e-08 7.37953e-06 0.0787202)
(-5.24748e-07 -5.51804e-06 0.0899166)
(-1.56602e-07 -3.8353e-06 0.0786774)
(4.75004e-07 7.42537e-06 0.0769486)
(-5.07535e-07 7.42085e-06 0.076941)
(5.17572e-07 -5.50027e-06 0.0899078)
(1.98244e-07 -3.80071e-06 0.0786678)
(2.83544e-07 1.65168e-05 0.0914361)
(7.00293e-07 -4.23374e-06 0.0768914)
(1.17179e-06 1.59344e-05 0.0899588)
(-1.5159e-07 7.35439e-06 0.0787126)
(9.03714e-07 -4.9209e-06 0.0684308)
(-6.12995e-07 -7.18686e-06 0.0822529)
(1.42901e-06 1.22534e-05 0.0859037)
(7.53039e-07 -5.87978e-06 0.0858475)
(-1.20495e-07 6.05768e-06 0.0684919)
(-1.30623e-07 6.06408e-06 0.0684845)
(7.43595e-07 -5.86918e-06 0.0858391)
(1.24077e-06 1.20244e-05 0.0822956)
(8.87268e-07 -4.91889e-06 0.0684233)
(1.42023e-06 1.22656e-05 0.0858953)
(7.08687e-07 -4.23707e-06 0.0768997)
(2.60896e-07 -4.96167e-06 0.0913982)
(1.17653e-06 1.59281e-05 0.0899669)
(-1.47557e-07 7.34961e-06 0.078721)
(5.25178e-07 -5.50416e-06 0.0899159)
(1.99234e-07 -3.80326e-06 0.0786762)
(-5.04543e-07 7.38648e-06 0.0769493)
(7.22735e-06 7.21791e-06 0.0836711)
(3.57817e-06 5.13217e-06 0.0683875)
(5.14733e-06 3.55716e-06 0.0683812)
(-7.828e-06 -3.82309e-06 0.0916938)
(2.39374e-05 1.41799e-05 0.0963401)
(-3.61411e-06 -3.47245e-06 0.0875741)
(8.01216e-06 4.01089e-06 0.08163)
(1.67189e-05 1.02408e-05 0.0917413)
(-1.10306e-05 -5.54199e-06 0.0962913)
(-3.86023e-06 -3.00809e-06 0.081578)
(-3.8242e-06 -7.85974e-06 0.0916875)
(1.42352e-05 2.39156e-05 0.0963376)
(-3.44778e-06 -3.62747e-06 0.0875731)
(4.06252e-06 8.01793e-06 0.0816244)
(1.02854e-05 1.67121e-05 0.0917345)
(-5.52936e-06 -1.10467e-05 0.0962888)
(-2.99583e-06 -3.91216e-06 0.0815737)
(1.67348e-05 1.02536e-05 0.0917343)
(9.87441e-06 6.92959e-06 0.0876158)
(2.39566e-05 1.4184e-05 0.0963342)
(8.03928e-06 4.01464e-06 0.0816222)
(1.02887e-05 1.67334e-05 0.0917275)
(-5.52929e-06 -1.10338e-05 0.0962828)
(6.96686e-06 9.84781e-06 0.0876142)
(1.42458e-05 2.39309e-05 0.0963316)
(4.05974e-06 8.02891e-06 0.0816167)
(-3.12602e-06 -3.16092e-06 0.0836329)
(3.57145e-06 5.12668e-06 0.0683941)
(5.14654e-06 3.54833e-06 0.0683878)
(7.22419e-06 7.20155e-06 0.0836785)
(-2.62682e-06 -4.08925e-06 0.0683385)
(-4.05134e-06 -2.66151e-06 0.0683325)
(-4.36021e-06 -2.5451e-06 0.0715657)
(5.86552e-06 3.35245e-06 0.0716119)
(-2.54137e-06 -4.35511e-06 0.0715659)
(3.39048e-06 5.84334e-06 0.0716118)
(-3.37074e-06 -5.84931e-06 0.0716264)
(2.49567e-06 4.39191e-06 0.0715799)
(-5.82993e-06 -3.39094e-06 0.0716261)
(4.37096e-06 2.50982e-06 0.0715801)
(3.17664e-06 3.15486e-06 0.0836471)
(-5.11748e-06 -3.56565e-06 0.0684072)
(-3.54952e-06 -5.14688e-06 0.0684008)
(4.07013e-06 2.65308e-06 0.068351)
(2.67615e-06 4.04907e-06 0.0683448)
(-7.1845e-06 -7.21069e-06 0.0836937)
(-1.02197e-05 -1.66749e-05 0.0917485)
(5.52713e-06 1.10484e-05 0.096297)
(2.96924e-06 3.86727e-06 0.0815855)
(-6.91979e-06 -9.80961e-06 0.0876319)