/*--------------------------------*- C++ -*----------------------------------*\
| =========                 |                                                 |
| \\      /  F ield         | OpenFOAM: The Open Source CFD Toolbox           |
|  \\    /   O peration     | Version:  2312                                  |
|   \\  /    A nd           | Website:  www.openfoam.com                      |
|    \\/     M anipulation  |                                                 |
\*---------------------------------------------------------------------------*/
FoamFile
{
    version     2.0;
    format      ascii;
    arch        "LSB;label=32;scalar=64";
    class       volScalarField;
    location    "500";
    object      k;
}
// * * * * * * * * * * * * * * * * * * * * * * * * * * * * * * * * * * * * * //

dimensions      [0 2 -2 0 0 0 0];

internalField   nonuniform List<scalar> 
43496
(
6.85749e-05
7.11957e-05
5.14162e-05
6.4796e-05
6.0629e-05
4.67098e-05
6.85733e-05
7.34407e-05
6.06276e-05
5.14114e-05
4.67105e-05
6.47925e-05
5.35252e-05
6.9941e-05
6.9938e-05
7.11944e-05
7.34435e-05
7.18486e-05
6.85633e-05
7.1601e-05
7.16307e-05
7.15893e-05
7.16183e-05
7.18622e-05
7.16832e-05
7.97876e-05
7.978e-05
7.16975e-05
7.11839e-05
7.18473e-05
6.85617e-05
7.16301e-05
7.15958e-05
7.16177e-05
7.15841e-05
7.18608e-05
7.16812e-05
7.97683e-05
7.34295e-05
7.97603e-05
7.16955e-05
9.49813e-05
7.34964e-05
7.35026e-05
7.3483e-05
7.34891e-05
9.49829e-05
7.41993e-05
7.32791e-05
6.99365e-05
6.52488e-05
7.32704e-05
6.52361e-05
7.4203e-05
7.41516e-05
7.3271e-05
6.99338e-05
6.5244e-05
6.52317e-05
7.32624e-05
7.41554e-05
7.11826e-05
7.34346e-05
3.1904e-05
3.89081e-05
3.19092e-05
6.47855e-05
6.03749e-05
6.03761e-05
5.62954e-05
6.06105e-05
6.23228e-05
5.50192e-05
6.23047e-05
5.50162e-05
5.62903e-05
5.73861e-05
6.42059e-05
6.4193e-05
5.73878e-05
5.62929e-05
6.06091e-05
5.50182e-05
6.2319e-05
5.50151e-05
6.23007e-05
5.6288e-05
5.73826e-05
6.41985e-05
6.47812e-05
6.03739e-05
6.41855e-05
5.73845e-05
6.0369e-05
6.59271e-05
5.35454e-05
5.94737e-05
5.94773e-05
5.94803e-05
5.9477e-05
6.59322e-05
3.83865e-05
5.11095e-05
5.11129e-05
5.32982e-05
3.88042e-05
5.13553e-05
5.13586e-05
5.34947e-05
5.33015e-05
5.34324e-05
5.11095e-05
5.11047e-05
5.12958e-05
5.12915e-05
5.33003e-05
5.34324e-05
5.1107e-05
5.1108e-05
5.12933e-05
5.12942e-05
5.11091e-05
5.1295e-05
5.12935e-05
5.33025e-05
5.34346e-05
5.11063e-05
5.12991e-05
5.12932e-05
5.34314e-05
5.34974e-05
5.13553e-05
5.13498e-05
5.34906e-05
5.13529e-05
5.13538e-05
5.13559e-05
5.34963e-05
5.13521e-05
6.85138e-05
7.33593e-05
7.33839e-05
6.84861e-05
7.11138e-05
7.11401e-05
6.85144e-05
7.33602e-05
7.33868e-05
6.84858e-05
3.8386e-05
3.83914e-05
3.83901e-05
3.87021e-05
3.8702e-05
3.87066e-05
3.87052e-05
6.05213e-05
6.46949e-05
4.63283e-05
5.11722e-05
6.47255e-05
4.64083e-05
6.04763e-05
7.11153e-05
7.11412e-05
6.05222e-05
4.63322e-05
6.4696e-05
5.11762e-05
4.64119e-05
6.47265e-05
6.04772e-05
6.98613e-05
6.98695e-05
5.33337e-05
6.98793e-05
6.98878e-05
7.34189e-05
6.85504e-05
7.11689e-05
7.34196e-05
6.85489e-05
3.88037e-05
3.88089e-05
3.88077e-05
6.06278e-05
6.47678e-05
4.66381e-05
6.05841e-05
4.67115e-05
7.11704e-05
6.06267e-05
4.66422e-05
6.47685e-05
6.05872e-05
4.67148e-05
6.99165e-05
6.99249e-05
5.35205e-05
6.99336e-05
6.99418e-05
7.11127e-05
7.11388e-05
7.11158e-05
7.11419e-05
6.98653e-05
6.98734e-05
5.33352e-05
6.98836e-05
6.98918e-05
7.11662e-05
7.11405e-05
7.11694e-05
7.11436e-05
5.33998e-05
6.9911e-05
6.99193e-05
6.98937e-05
6.99017e-05
6.8512e-05
7.33561e-05
7.33805e-05
6.84856e-05
6.0522e-05
6.46934e-05
4.63273e-05
5.11729e-05
6.47248e-05
4.64072e-05
6.04768e-05
6.05204e-05
6.469e-05
4.6325e-05
5.11684e-05
6.47206e-05
4.64052e-05
6.04754e-05
6.85195e-05
7.34136e-05
7.33893e-05
6.85447e-05
6.85179e-05
7.34101e-05
7.33861e-05
6.8543e-05
6.05336e-05
5.12352e-05
6.47606e-05
4.65621e-05
6.47308e-05
4.64858e-05
6.05759e-05
6.05322e-05
5.12301e-05
6.47564e-05
4.65602e-05
6.47273e-05
4.64833e-05
6.05743e-05
6.98648e-05
6.98667e-05
5.33338e-05
6.9884e-05
6.98847e-05
7.1114e-05
7.114e-05
7.11675e-05
7.11415e-05
5.33984e-05
6.99113e-05
6.99121e-05
6.98931e-05
6.98949e-05
7.11674e-05
7.11417e-05
6.05235e-05
6.46957e-05
4.63268e-05
5.11704e-05
6.47272e-05
4.64066e-05
6.04745e-05
6.85128e-05
7.33568e-05
7.33813e-05
6.84842e-05
6.0522e-05
4.63276e-05
6.46917e-05
5.11713e-05
4.64073e-05
6.47229e-05
6.04731e-05
6.8518e-05
7.34162e-05
7.33903e-05
6.85457e-05
6.05313e-05
5.12328e-05
6.47629e-05
4.65615e-05
6.4733e-05
4.64853e-05
6.05775e-05
6.85164e-05
7.3411e-05
7.33868e-05
6.85439e-05
6.05298e-05
5.12337e-05
4.65622e-05
6.47588e-05
4.6486e-05
6.4729e-05
6.05761e-05
6.85114e-05
7.33596e-05
7.33841e-05
6.84852e-05
6.0521e-05
4.63291e-05
6.46903e-05
5.11714e-05
4.64083e-05
6.47214e-05
6.0476e-05
6.85121e-05
7.33564e-05
7.33818e-05
6.84859e-05
6.05329e-05
5.12352e-05
6.47613e-05
4.65632e-05
6.47322e-05
4.64867e-05
6.05756e-05
6.85173e-05
7.34137e-05
7.33896e-05
6.85423e-05
6.05312e-05
5.12352e-05
4.6563e-05
6.47571e-05
4.64875e-05
6.47276e-05
6.05761e-05
6.8518e-05
7.34115e-05
7.33855e-05
6.8543e-05
6.98683e-05
6.98657e-05
5.33362e-05
6.98867e-05
6.9884e-05
7.11139e-05
7.114e-05
7.11687e-05
7.1143e-05
5.34009e-05
6.99141e-05
6.99114e-05
6.98967e-05
6.9894e-05
7.11674e-05
7.11417e-05
6.0519e-05
4.63292e-05
6.46933e-05
5.11703e-05
4.64086e-05
6.47237e-05
6.04741e-05
6.85114e-05
7.33596e-05
7.33855e-05
6.84853e-05
6.85075e-05
7.33583e-05
7.33827e-05
6.84814e-05
6.05338e-05
5.12386e-05
4.65667e-05
6.47624e-05
4.64906e-05
6.47332e-05
6.05759e-05
6.05307e-05
5.12319e-05
4.65634e-05
6.47596e-05
4.64876e-05
6.47304e-05
6.05729e-05
6.85174e-05
7.34148e-05
7.33904e-05
6.85423e-05
6.85135e-05
7.34123e-05
7.33882e-05
6.85384e-05
7.11137e-05
7.11398e-05
7.11165e-05
7.11425e-05
5.33978e-05
6.99067e-05
6.99152e-05
6.98896e-05
6.98979e-05
7.11672e-05
7.11415e-05
7.11699e-05
7.11443e-05
7.11678e-05
7.1171e-05
6.99206e-05
6.99287e-05
7.34156e-05
6.85489e-05
6.47665e-05
4.66375e-05
6.05877e-05
6.47626e-05
4.66349e-05
6.05862e-05
6.99205e-05
6.99217e-05
7.11691e-05
6.47684e-05
4.6637e-05
6.05848e-05
7.34159e-05
6.85471e-05
4.66377e-05
6.47644e-05
6.05834e-05
6.85721e-05
7.34191e-05
6.85478e-05
6.06278e-05
4.66391e-05
6.4763e-05
5.14097e-05
6.05836e-05
4.6711e-05
6.47909e-05
6.8573e-05
7.3415e-05
6.85484e-05
7.34404e-05
6.99237e-05
6.9921e-05
7.1169e-05
6.06239e-05
4.66393e-05
6.47656e-05
5.14108e-05
6.05843e-05
4.67116e-05
6.47932e-05
6.85713e-05
7.342e-05
6.8548e-05
6.85676e-05
7.34176e-05
6.85441e-05
7.3441e-05
7.11688e-05
7.11942e-05
7.11716e-05
7.11969e-05
7.17907e-05
7.15712e-05
7.15467e-05
6.85035e-05
7.15588e-05
7.15344e-05
7.18045e-05
7.16304e-05
7.3369e-05
7.97177e-05
7.97263e-05
7.16159e-05
7.16294e-05
7.97394e-05
7.33743e-05
7.97309e-05
7.1644e-05
7.17899e-05
6.84986e-05
7.15442e-05
7.15198e-05
7.15564e-05
7.15321e-05
7.17758e-05
7.11262e-05
7.11277e-05
7.1791e-05
7.15455e-05
7.15716e-05
6.85019e-05
7.15332e-05
7.15592e-05
7.18049e-05
7.16309e-05
7.33718e-05
7.97159e-05
7.97246e-05
7.16163e-05
7.16299e-05
7.97377e-05
7.33753e-05
7.97292e-05
7.16444e-05
7.17902e-05
6.84984e-05
7.15186e-05
7.15445e-05
7.1531e-05
7.15568e-05
7.17761e-05
7.11274e-05
7.11292e-05
9.49253e-05
7.34531e-05
7.34464e-05
7.34394e-05
7.34328e-05
9.49278e-05
7.40729e-05
6.51177e-05
6.98652e-05
7.31899e-05
6.51317e-05
7.31993e-05
7.40684e-05
7.41208e-05
6.51257e-05
6.9874e-05
7.31982e-05
6.51402e-05
7.32104e-05
7.41163e-05
7.40856e-05
7.32137e-05
6.98756e-05
6.51547e-05
6.5141e-05
7.32044e-05
7.40899e-05
7.41335e-05
7.32243e-05
6.98839e-05
6.51632e-05
6.5149e-05
7.32135e-05
7.41379e-05
9.49132e-05
7.34266e-05
7.342e-05
7.34403e-05
7.34337e-05
9.49106e-05
7.1684e-05
7.97694e-05
7.34278e-05
7.16696e-05
7.97776e-05
7.18478e-05
6.85592e-05
7.16038e-05
7.15773e-05
7.18336e-05
7.16154e-05
7.15895e-05
7.1181e-05
7.16844e-05
7.97677e-05
7.3431e-05
7.167e-05
7.97754e-05
7.18475e-05
6.85603e-05
7.15763e-05
7.16041e-05
7.18341e-05
7.15876e-05
7.1616e-05
7.11822e-05
9.49818e-05
7.35032e-05
7.34965e-05
7.34897e-05
7.34831e-05
9.49836e-05
7.41385e-05
6.52076e-05
7.32474e-05
6.99201e-05
7.41348e-05
6.52199e-05
7.32563e-05
7.41861e-05
6.52154e-05
7.32571e-05
6.99285e-05
7.41826e-05
6.52283e-05
7.3266e-05
9.49702e-05
7.34773e-05
7.34706e-05
9.49681e-05
7.34908e-05
7.34841e-05
7.41504e-05
7.32699e-05
6.99293e-05
6.52404e-05
6.52285e-05
7.32613e-05
7.41538e-05
7.41981e-05
7.32796e-05
6.99378e-05
6.52487e-05
6.52364e-05
7.3271e-05
7.42014e-05
7.11249e-05
7.11266e-05
7.11281e-05
7.11298e-05
9.49288e-05
7.34528e-05
7.3446e-05
7.34391e-05
7.34323e-05
9.49312e-05
7.40748e-05
6.51207e-05
6.98694e-05
7.31909e-05
7.32003e-05
6.51332e-05
7.4071e-05
7.41212e-05
6.51274e-05
6.98775e-05
7.32003e-05
7.32097e-05
6.51413e-05
7.4117e-05
7.40882e-05
7.32147e-05
6.98797e-05
6.51564e-05
7.32054e-05
7.4092e-05
6.51441e-05
7.41341e-05
7.32241e-05
6.98877e-05
6.51645e-05
7.32148e-05
7.41384e-05
6.51508e-05
9.49166e-05
7.34263e-05
7.34196e-05
7.344e-05
7.34333e-05
9.4914e-05
7.11542e-05
7.11525e-05
7.11573e-05
7.11557e-05
9.49456e-05
7.34518e-05
7.34451e-05
9.49434e-05
7.34655e-05
7.34587e-05
7.41213e-05
6.52006e-05
6.99073e-05
7.32434e-05
7.32343e-05
6.51892e-05
7.41249e-05
7.41672e-05
6.52086e-05
6.99153e-05
7.32528e-05
7.32437e-05
6.51957e-05
7.41714e-05
7.41086e-05
7.322e-05
6.51669e-05
6.98974e-05
7.41049e-05
7.32293e-05
6.51787e-05
7.41551e-05
7.32294e-05
6.51735e-05
6.99056e-05
7.41509e-05
7.32387e-05
6.51868e-05
9.49578e-05
7.34781e-05
7.34713e-05
7.34645e-05
7.34577e-05
9.49598e-05
7.1791e-05
7.15709e-05
7.15398e-05
6.8502e-05
7.15585e-05
7.15308e-05
7.18027e-05
7.16298e-05
7.33656e-05
7.96995e-05
7.97078e-05
7.16153e-05
7.16288e-05
7.97208e-05
7.33711e-05
7.97128e-05
7.16433e-05
7.17874e-05
6.8496e-05
7.15438e-05
7.15161e-05
7.1556e-05
7.15254e-05
7.17772e-05
7.18189e-05
7.1574e-05
7.15492e-05
6.85295e-05
7.18053e-05
7.15862e-05
7.15612e-05
7.16563e-05
7.34041e-05
7.97651e-05
7.16707e-05
7.97568e-05
7.16574e-05
7.9744e-05
7.3399e-05
7.16429e-05
7.97524e-05
7.18198e-05
6.8535e-05
7.16013e-05
7.15754e-05
7.18333e-05
7.15888e-05
7.15636e-05
7.18176e-05
7.15736e-05
7.15452e-05
6.85278e-05
7.18047e-05
7.15859e-05
7.15542e-05
7.16557e-05
7.34009e-05
7.97464e-05
7.97385e-05
7.167e-05
7.16567e-05
7.97258e-05
7.33955e-05
7.16423e-05
7.97337e-05
7.18185e-05
6.85334e-05
7.16006e-05
7.15682e-05
7.15883e-05
7.15593e-05
7.18323e-05
9.4927e-05
7.34467e-05
7.34527e-05
7.34329e-05
7.3439e-05
9.49299e-05
7.41218e-05
6.51246e-05
6.98698e-05
7.31968e-05
7.32094e-05
6.51375e-05
7.41163e-05
7.40745e-05
6.51211e-05
6.98705e-05
7.31915e-05
6.51344e-05
7.32013e-05
7.40703e-05
7.41336e-05
7.32238e-05
6.98792e-05
6.51605e-05
7.32115e-05
6.51479e-05
7.4139e-05
7.40875e-05
7.32154e-05
6.98809e-05
6.51576e-05
6.51444e-05
7.32062e-05
7.40916e-05
9.49152e-05
7.34201e-05
7.34262e-05
7.34339e-05
7.344e-05
9.49122e-05
7.11262e-05
7.11279e-05
7.11553e-05
7.11538e-05
9.49443e-05
7.34456e-05
7.34517e-05
9.49416e-05
7.34594e-05
7.34654e-05
7.41665e-05
6.52048e-05
6.99067e-05
7.32521e-05
6.51928e-05
7.324e-05
7.4172e-05
7.41207e-05
6.52018e-05
6.99086e-05
7.32442e-05
7.32348e-05
6.51894e-05
7.41247e-05
7.41559e-05
7.3226e-05
6.51706e-05
6.98977e-05
6.51829e-05
7.41503e-05
7.3238e-05
7.41082e-05
7.32206e-05
6.51671e-05
6.98986e-05
7.41043e-05
7.323e-05
6.518e-05
9.49559e-05
7.3472e-05
7.3478e-05
7.34583e-05
7.34643e-05
9.49585e-05
7.11554e-05
7.11538e-05
7.17894e-05
7.15711e-05
7.15401e-05
6.85003e-05
7.15587e-05
7.15277e-05
7.18032e-05
7.16288e-05
7.33664e-05
7.96962e-05
7.97048e-05
7.16143e-05
7.16279e-05
7.97179e-05
7.33718e-05
7.97094e-05
7.16423e-05
7.17884e-05
6.84968e-05
7.1544e-05
7.15132e-05
7.15562e-05
7.15254e-05
7.17756e-05
7.18192e-05
7.1548e-05
7.15744e-05
6.85302e-05
7.18056e-05
7.156e-05
7.15866e-05
7.16567e-05
7.3405e-05
7.97631e-05
7.16712e-05
7.97551e-05
7.16578e-05
7.97422e-05
7.34015e-05
7.16434e-05
7.97505e-05
7.18203e-05
6.85336e-05
7.15743e-05
7.16017e-05
7.18333e-05
7.15622e-05
7.15892e-05
7.18176e-05
7.15738e-05
7.15425e-05
6.85286e-05
7.1804e-05
7.15861e-05
7.15547e-05
7.16547e-05
7.34016e-05
7.97436e-05
7.97354e-05
7.16691e-05
7.16558e-05
7.97225e-05
7.33964e-05
7.16413e-05
7.97309e-05
7.18186e-05
6.8532e-05
7.16008e-05
7.15687e-05
7.15886e-05
7.15568e-05
7.18319e-05
7.17915e-05
7.15397e-05
7.15694e-05
6.85015e-05
7.15309e-05
7.156e-05
7.1801e-05
7.16295e-05
7.33692e-05
7.97132e-05
7.97164e-05
7.16144e-05
7.16279e-05
7.97294e-05
7.33746e-05
7.97264e-05
7.1643e-05
7.17866e-05
6.84955e-05
7.1516e-05
7.15451e-05
7.15252e-05
7.15546e-05
7.17769e-05
7.17902e-05
7.15697e-05
7.15393e-05
6.85022e-05
7.15602e-05
7.15303e-05
7.18028e-05
7.16294e-05
7.33664e-05
7.96957e-05
7.97042e-05
7.16148e-05
7.16284e-05
7.97172e-05
7.33705e-05
7.9709e-05
7.16429e-05
7.17885e-05
6.84962e-05
7.15453e-05
7.15155e-05
7.15549e-05
7.15248e-05
7.17752e-05
7.18154e-05
7.15453e-05
7.15748e-05
6.85271e-05
7.18059e-05
7.15542e-05
7.15844e-05
7.16548e-05
7.34044e-05
7.9755e-05
7.97521e-05
7.16697e-05
7.16564e-05
7.97394e-05
7.33991e-05
7.16414e-05
7.97425e-05
7.18205e-05
6.85328e-05
7.15681e-05
7.1599e-05
7.15595e-05
7.15897e-05
7.18299e-05
7.18166e-05
7.15751e-05
7.15448e-05
6.85278e-05
7.18058e-05
7.15848e-05
7.15539e-05
7.16552e-05
7.34002e-05
7.97427e-05
7.97348e-05
7.16696e-05
7.16563e-05
7.9722e-05
7.33968e-05
7.16419e-05
7.97301e-05
7.18204e-05
6.85334e-05
7.16e-05
7.15678e-05
7.15893e-05
7.15591e-05
7.18304e-05
9.49246e-05
7.34462e-05
7.34524e-05
7.34326e-05
7.34387e-05
9.49267e-05
7.41221e-05
6.51251e-05
6.98725e-05
7.31986e-05
7.32088e-05
6.514e-05
7.41174e-05
7.40745e-05
6.5121e-05
6.98698e-05
7.3191e-05
6.51351e-05
7.32003e-05
7.40698e-05
7.41346e-05
7.32228e-05
6.98826e-05
6.5163e-05
7.32135e-05
6.51486e-05
7.4139e-05
7.40869e-05
7.32147e-05
6.988e-05
6.51583e-05
6.51443e-05
7.32055e-05
7.40915e-05
9.4912e-05
7.34198e-05
7.34259e-05
7.34335e-05
7.34396e-05
9.49099e-05
7.11261e-05
7.11279e-05
7.11567e-05
7.1155e-05
9.49412e-05
7.34453e-05
7.34515e-05
9.49391e-05
7.34589e-05
7.34651e-05
7.41678e-05
6.52072e-05
6.99103e-05
7.32513e-05
6.51936e-05
7.32423e-05
7.41719e-05
7.41201e-05
6.52025e-05
6.99077e-05
7.32433e-05
7.32343e-05
6.51892e-05
7.41243e-05
7.41557e-05
7.3228e-05
6.51713e-05
6.99005e-05
6.51854e-05
7.41514e-05
7.32373e-05
7.41081e-05
7.32201e-05
6.5167e-05
6.98978e-05
7.41037e-05
7.32293e-05
6.51807e-05
9.49534e-05
7.34715e-05
7.34776e-05
7.34579e-05
7.34641e-05
9.49554e-05
7.11554e-05
7.11537e-05
7.17931e-05
7.15447e-05
7.15693e-05
6.85016e-05
7.15357e-05
7.15599e-05
7.18025e-05
7.16309e-05
7.33711e-05
7.97143e-05
7.97228e-05
7.16164e-05
7.16299e-05
7.9736e-05
7.33753e-05
7.97275e-05
7.16444e-05
7.1788e-05
6.84955e-05
7.15209e-05
7.1545e-05
7.15302e-05
7.15545e-05
7.17785e-05
7.1791e-05
7.15359e-05
7.15682e-05
6.84977e-05
7.15269e-05
7.15588e-05
7.18005e-05
7.16301e-05
7.33678e-05
7.96974e-05
7.97057e-05
7.16155e-05
7.1629e-05
7.97188e-05
7.33732e-05
7.97106e-05
7.16436e-05
7.17861e-05
6.84915e-05
7.15119e-05
7.15439e-05
7.15215e-05
7.15534e-05
7.17764e-05
7.18169e-05
7.15502e-05
7.15747e-05
6.85272e-05
7.18075e-05
7.15593e-05
7.15843e-05
7.16568e-05
7.34055e-05
7.97615e-05
7.97534e-05
7.16711e-05
7.16578e-05
7.97406e-05
7.34002e-05
7.16434e-05
7.97489e-05
7.18221e-05
6.85329e-05
7.15731e-05
7.15989e-05
7.15645e-05
7.15896e-05
7.18314e-05
7.18149e-05
7.15414e-05
7.15737e-05
6.85233e-05
7.18054e-05
7.15504e-05
7.15832e-05
7.16558e-05
7.34031e-05
7.97443e-05
7.97365e-05
7.16703e-05
7.1657e-05
7.97237e-05
7.33978e-05
7.16425e-05
7.97316e-05
7.182e-05
6.8529e-05
7.15643e-05
7.15978e-05
7.15558e-05
7.15885e-05
7.18293e-05
7.11259e-05
7.11276e-05
7.11287e-05
7.11304e-05
9.49422e-05
7.34521e-05
7.34455e-05
9.49398e-05
7.34657e-05
7.34591e-05
7.41187e-05
6.51988e-05
6.99032e-05
7.32423e-05
7.41228e-05
6.51859e-05
7.32332e-05
7.41665e-05
6.52073e-05
6.99116e-05
7.3252e-05
7.41707e-05
6.51939e-05
7.32428e-05
7.41064e-05
7.3219e-05
6.51637e-05
6.98933e-05
7.41024e-05
6.51771e-05
7.32283e-05
7.41544e-05
7.32283e-05
6.51717e-05
6.99018e-05
7.41502e-05
6.51855e-05
7.3238e-05
9.4954e-05
7.34783e-05
7.34716e-05
9.49564e-05
7.34647e-05
7.34581e-05
7.11552e-05
7.11535e-05
7.11579e-05
7.11563e-05
7.11797e-05
7.11829e-05
7.41407e-05
6.52109e-05
7.32485e-05
6.99243e-05
7.41373e-05
7.32572e-05
6.52219e-05
7.41871e-05
6.52172e-05
7.32579e-05
6.99324e-05
7.41832e-05
7.32666e-05
6.52298e-05
9.49736e-05
7.3477e-05
7.34703e-05
9.49719e-05
7.34906e-05
7.34838e-05
7.16833e-05
7.97511e-05
7.34244e-05
7.16689e-05
7.97587e-05
7.18468e-05
6.85576e-05
7.16032e-05
7.15735e-05
7.16148e-05
7.18328e-05
7.15817e-05
7.41878e-05
6.52142e-05
7.32553e-05
6.99234e-05
7.32653e-05
7.41824e-05
6.5226e-05
7.41412e-05
6.52108e-05
7.32481e-05
6.99259e-05
6.52231e-05
7.41362e-05
7.32591e-05
9.49726e-05
7.34708e-05
7.34769e-05
7.34845e-05
9.497e-05
7.34905e-05
7.16824e-05
7.97481e-05
7.34259e-05
7.1668e-05
7.97561e-05
7.18464e-05
6.85587e-05
7.16034e-05
7.15708e-05
7.16154e-05
7.1833e-05
7.15823e-05
7.18489e-05
6.85613e-05
7.16279e-05
7.15856e-05
7.1619e-05
7.16829e-05
7.97646e-05
7.34279e-05
7.97672e-05
7.1668e-05
7.18443e-05
6.85574e-05
7.15733e-05
7.16044e-05
7.15821e-05
7.18346e-05
7.16138e-05
7.16812e-05
7.18492e-05
6.85619e-05
7.16299e-05
7.15945e-05
7.16175e-05
7.15864e-05
7.18599e-05
7.16828e-05
7.97473e-05
7.3426e-05
7.16685e-05
7.97552e-05
7.18446e-05
6.85581e-05
7.16029e-05
7.15729e-05
7.18348e-05
7.16152e-05
7.15815e-05
7.16817e-05
7.97674e-05
7.34294e-05
7.97595e-05
7.1696e-05
7.41878e-05
6.52151e-05
7.32563e-05
6.99275e-05
7.32655e-05
7.41838e-05
6.52283e-05
7.41402e-05
6.52106e-05
7.32483e-05
6.99247e-05
6.52236e-05
7.4136e-05
7.32575e-05
9.49694e-05
7.34705e-05
7.34766e-05
7.3484e-05
9.49674e-05
7.34901e-05
7.11809e-05
7.18506e-05
6.85627e-05
7.15997e-05
7.16278e-05
7.15917e-05
7.16189e-05
7.18611e-05
7.16844e-05
7.9766e-05
7.34294e-05
7.97738e-05
7.16701e-05
7.18458e-05
6.85572e-05
7.15783e-05
7.16043e-05
7.15869e-05
7.18363e-05
7.16137e-05
7.16833e-05
7.9786e-05
7.97782e-05
7.16975e-05
7.18482e-05
6.85589e-05
7.15912e-05
7.16267e-05
7.15833e-05
7.16178e-05
7.18584e-05
7.16835e-05
7.9749e-05
7.34268e-05
7.16691e-05
7.97566e-05
7.1844e-05
6.85534e-05
7.15697e-05
7.16032e-05
7.1834e-05
7.15782e-05
7.16126e-05
7.16823e-05
7.97687e-05
7.34321e-05
7.97613e-05
7.16966e-05
7.11807e-05
7.11823e-05
7.11834e-05
7.11851e-05
3.12707e-05
3.12685e-05
3.84933e-05
3.14012e-05
3.13986e-05
2.22642e-05
2.21129e-05
6.58118e-05
5.93051e-05
5.93046e-05
5.32834e-05
5.9305e-05
5.93043e-05
6.58065e-05
3.17832e-05
3.17808e-05
2.2862e-05
2.27142e-05
6.59075e-05
5.94423e-05
5.94434e-05
5.34779e-05
6.59031e-05
5.94411e-05
5.9442e-05
6.58139e-05
5.9307e-05
5.93064e-05
5.32856e-05
5.93063e-05
5.93064e-05
6.58087e-05
6.58821e-05
5.34497e-05
5.94124e-05
5.94117e-05
5.94125e-05
5.9412e-05
6.58874e-05
6.58135e-05
5.93039e-05
5.93067e-05
5.32843e-05
5.9306e-05
5.93035e-05
6.58081e-05
6.58816e-05
5.34478e-05
5.94094e-05
5.94113e-05
5.94089e-05
5.94123e-05
6.58865e-05
6.5814e-05
5.93053e-05
5.93077e-05
5.32866e-05
5.93076e-05
5.93049e-05
6.58078e-05
6.58814e-05
5.34512e-05
5.94111e-05
5.94127e-05
5.94115e-05
5.94133e-05
6.58868e-05
6.58798e-05
5.34481e-05
5.94087e-05
5.94105e-05
6.58849e-05
5.94086e-05
5.94106e-05
6.59102e-05
5.94456e-05
5.94459e-05
5.34771e-05
6.59053e-05
5.94431e-05
5.94431e-05
6.59105e-05
5.94403e-05
5.94445e-05
5.34837e-05
5.94482e-05
6.59043e-05
5.94439e-05
6.59099e-05
5.94435e-05
5.94457e-05
5.34808e-05
5.94452e-05
6.59046e-05
5.94435e-05
3.12702e-05
3.127e-05
3.84932e-05
3.1401e-05
3.13998e-05
2.22648e-05
2.21135e-05
3.12742e-05
3.12743e-05
3.8498e-05
3.14043e-05
3.14048e-05
2.22684e-05
2.21171e-05
3.12757e-05
3.12728e-05
3.84965e-05
3.14048e-05
3.14045e-05
2.22691e-05
2.21173e-05
3.85988e-05
3.16574e-05
3.16548e-05
3.15303e-05
3.15282e-05
2.24152e-05
2.25649e-05
3.85982e-05
3.16572e-05
3.16559e-05
3.15298e-05
3.15298e-05
2.24158e-05
2.25654e-05
3.86037e-05
3.16603e-05
3.1661e-05
3.15339e-05
3.15339e-05
2.24194e-05
2.2569e-05
3.86024e-05
3.16607e-05
3.16609e-05
3.15355e-05
3.15322e-05
2.24196e-05
2.25698e-05
5.6142e-05
6.22234e-05
5.48422e-05
6.05053e-05
6.22093e-05
5.48549e-05
5.6132e-05
5.72082e-05
6.02292e-05
6.4707e-05
6.40856e-05
6.02301e-05
6.40979e-05
5.72188e-05
5.72548e-05
6.41201e-05
6.47138e-05
6.02607e-05
6.02599e-05
6.41084e-05
5.72445e-05
5.60906e-05
6.04931e-05
6.21834e-05
5.48079e-05
6.2198e-05
5.47963e-05
5.61002e-05
5.61451e-05
5.48439e-05
6.22265e-05
6.05061e-05
5.48568e-05
6.22123e-05
5.61332e-05
5.72113e-05
6.02311e-05
6.47079e-05
6.40886e-05
6.02322e-05
6.4101e-05
5.72217e-05
5.72576e-05
6.41232e-05
6.47149e-05
6.02627e-05
6.02616e-05
6.41111e-05
5.72475e-05
5.60917e-05
6.0494e-05
5.48097e-05
6.21865e-05
5.4798e-05
6.2201e-05
5.61037e-05
6.58316e-05
5.33493e-05
5.93395e-05
5.93397e-05
5.93391e-05
5.93404e-05
6.58369e-05
3.17826e-05
3.17827e-05
3.19051e-05
2.28626e-05
2.27148e-05
3.17866e-05
3.17867e-05
3.19104e-05
2.28661e-05
2.27183e-05
3.17884e-05
3.17846e-05
3.89076e-05
3.19095e-05
3.19112e-05
2.28669e-05
2.27184e-05
5.62981e-05
6.06096e-05
6.23191e-05
5.50204e-05
6.23068e-05
5.50188e-05
5.62887e-05
5.73493e-05
6.03485e-05
6.4173e-05
6.47782e-05
5.73621e-05
6.03474e-05
6.41836e-05
5.62514e-05
6.06021e-05
6.22837e-05
5.49771e-05
5.62608e-05
6.22966e-05
5.49761e-05
5.63014e-05
6.06131e-05
5.50101e-05
6.2322e-05
5.50269e-05
6.23098e-05
5.62889e-05
5.73523e-05
6.03482e-05
6.41759e-05
6.47795e-05
5.73641e-05
6.03483e-05
6.41868e-05
5.62532e-05
6.0602e-05
5.49837e-05
6.22868e-05
5.62641e-05
5.49708e-05
6.22996e-05
5.73982e-05
6.42062e-05
6.41961e-05
5.73829e-05
6.59258e-05
5.35408e-05
5.94715e-05
5.94728e-05
5.94759e-05
5.94768e-05
6.59299e-05
6.58338e-05
5.33511e-05
5.93421e-05
5.93425e-05
6.58392e-05
5.9343e-05
5.93429e-05
6.58636e-05
5.3385e-05
5.93782e-05
5.93777e-05
6.58583e-05
5.93777e-05
5.93781e-05
5.61403e-05
6.22273e-05
5.4842e-05
6.05057e-05
6.22079e-05
5.48548e-05
5.61327e-05
5.72143e-05
6.02245e-05
6.47061e-05
6.40857e-05
6.41e-05
6.02335e-05
5.72107e-05
5.72476e-05
6.41225e-05
6.47123e-05
6.02639e-05
6.41083e-05
6.02553e-05
5.72508e-05
5.60907e-05
6.04937e-05
6.21822e-05
5.48078e-05
6.22015e-05
5.47964e-05
5.60981e-05
5.61379e-05
6.22201e-05
5.48402e-05
6.05043e-05
6.22059e-05
5.48533e-05
5.6125e-05
5.72018e-05
6.02249e-05
6.4702e-05
6.40792e-05
6.40915e-05
6.02258e-05
5.72124e-05
5.72482e-05
6.41137e-05
6.47089e-05
6.02562e-05
6.41018e-05
5.72379e-05
6.02554e-05
5.60834e-05
6.04922e-05
6.21802e-05
5.48066e-05
6.21946e-05
5.47948e-05
5.60964e-05
5.61736e-05
6.22338e-05
5.48977e-05
6.05495e-05
5.61815e-05
6.22526e-05
5.48852e-05
5.73196e-05
6.03222e-05
6.47488e-05
6.41661e-05
6.03141e-05
6.41525e-05
5.73226e-05
5.72872e-05
6.41307e-05
6.02849e-05
6.47428e-05
6.02928e-05
5.72843e-05
6.41444e-05
5.62216e-05
6.05608e-05
6.2277e-05
5.49263e-05
6.22589e-05
5.49408e-05
5.62135e-05
5.61669e-05
6.22314e-05
5.48961e-05
6.05479e-05
5.61788e-05
6.22455e-05
5.48833e-05
5.73197e-05
6.03141e-05
6.47452e-05
6.41569e-05
6.41456e-05
6.03145e-05
5.73088e-05
5.72731e-05
6.41238e-05
6.02847e-05
6.47387e-05
5.72843e-05
6.41358e-05
6.02857e-05
5.62189e-05
6.05592e-05
6.22699e-05
5.49244e-05
6.22562e-05
5.49389e-05
5.62072e-05
6.58333e-05
5.33498e-05
5.93383e-05
5.93419e-05
5.93427e-05
5.93392e-05
6.58383e-05
6.58627e-05
5.33838e-05
5.93748e-05
5.93785e-05
5.93744e-05
6.58578e-05
5.93777e-05
5.61368e-05
6.22263e-05
5.485e-05
6.05032e-05
6.22068e-05
5.48454e-05
5.61327e-05
5.7213e-05
6.0226e-05
6.47086e-05
6.40852e-05
6.41e-05
6.0235e-05
5.72093e-05
5.7246e-05
6.41223e-05
6.47146e-05
6.02652e-05
6.41079e-05
6.02567e-05
5.72492e-05
5.60902e-05
6.0495e-05
6.21811e-05
5.47991e-05
6.22006e-05
5.48039e-05
5.60939e-05
5.61342e-05
5.48488e-05
6.22225e-05
6.05018e-05
5.48443e-05
6.22028e-05
5.61303e-05
5.72094e-05
6.02226e-05
6.47043e-05
6.4078e-05
6.40927e-05
6.02316e-05
5.72056e-05
5.72423e-05
6.4115e-05
6.47106e-05
6.02619e-05
6.41004e-05
5.72457e-05
6.02533e-05
5.60877e-05
6.04936e-05
5.4798e-05
6.21771e-05
5.48029e-05
6.21968e-05
5.60913e-05
5.61733e-05
6.22326e-05
5.48886e-05
6.05509e-05
5.61782e-05
6.22516e-05
5.48928e-05
5.73173e-05
6.03222e-05
6.4751e-05
6.41655e-05
6.0317e-05
6.41517e-05
5.73202e-05
5.72854e-05
6.41299e-05
6.02862e-05
6.47451e-05
6.02938e-05
5.72824e-05
6.4144e-05
5.62182e-05
6.05585e-05
6.2276e-05
5.49359e-05
6.22574e-05
5.49319e-05
5.62131e-05
5.6171e-05
5.48874e-05
6.22285e-05
6.05495e-05
5.61757e-05
5.48917e-05
6.22478e-05
5.73138e-05
6.03201e-05
6.47468e-05
6.41582e-05
6.41442e-05
6.03119e-05
5.73168e-05
5.72818e-05
6.41226e-05
6.02828e-05
6.4741e-05
5.72788e-05
6.41367e-05
6.02907e-05
5.62157e-05
6.0557e-05
5.49347e-05
6.22722e-05
5.49308e-05
6.22534e-05
5.62107e-05
5.6139e-05
5.48408e-05
6.22214e-05
6.05046e-05
5.48533e-05
6.22067e-05
5.613e-05
5.72042e-05
6.02216e-05
6.47029e-05
6.40793e-05
6.02301e-05
6.40921e-05
5.72146e-05
5.72507e-05
6.41142e-05
6.47092e-05
6.02603e-05
6.02522e-05
6.41021e-05
5.7241e-05
5.60881e-05
6.04928e-05
5.4807e-05
6.2181e-05
5.47961e-05
6.21957e-05
5.60969e-05
5.61728e-05
6.22346e-05
5.48972e-05
6.05489e-05
5.61828e-05
6.22487e-05
5.48857e-05
5.73261e-05
6.03188e-05
6.47501e-05
6.41634e-05
5.73155e-05
6.03188e-05
6.4152e-05
5.72796e-05
6.41304e-05
6.02891e-05
6.47437e-05
5.7291e-05
6.02904e-05
6.41421e-05
5.62226e-05
6.05595e-05
6.22731e-05
5.49297e-05
5.62129e-05
6.22594e-05
5.49383e-05
5.61714e-05
5.4895e-05
6.22316e-05
6.05489e-05
5.61797e-05
5.48878e-05
6.2247e-05
5.73186e-05
6.03187e-05
6.47455e-05
6.41577e-05
6.41447e-05
6.03106e-05
5.73192e-05
5.72817e-05
6.41236e-05
6.02814e-05
6.47394e-05
5.72847e-05
6.41363e-05
6.02894e-05
5.62192e-05
6.0557e-05
5.4935e-05
6.2272e-05
5.4935e-05
6.22544e-05
5.62116e-05
6.58329e-05
5.33521e-05
5.93404e-05
5.93434e-05
5.93438e-05
5.93411e-05
6.58389e-05
6.58631e-05
5.33858e-05
5.93766e-05
5.93788e-05
5.93759e-05
6.58576e-05
5.93789e-05
5.6137e-05
5.48407e-05
6.22191e-05
6.05029e-05
5.48536e-05
6.22046e-05
5.6129e-05
5.72082e-05
6.02264e-05
6.47052e-05
6.40787e-05
6.02279e-05
6.40924e-05
5.72059e-05
5.72428e-05
6.4114e-05
6.47121e-05
6.02583e-05
6.0257e-05
6.41018e-05
5.72413e-05
5.60875e-05
6.04908e-05
5.48067e-05
6.21782e-05
5.47955e-05
6.21941e-05
5.60947e-05
5.61746e-05
5.48993e-05
6.22377e-05
6.05496e-05
5.6186e-05
5.48869e-05
6.22518e-05
5.73285e-05
6.03206e-05
6.4751e-05
6.41664e-05
5.73184e-05
6.03203e-05
6.41549e-05
5.72825e-05
6.41331e-05
6.02908e-05
6.47447e-05
5.72936e-05
6.02921e-05
6.41452e-05
5.62258e-05
6.05608e-05
5.49282e-05
6.22762e-05
5.62148e-05
5.49422e-05
6.22624e-05
5.61694e-05
5.48969e-05
6.22301e-05
6.05464e-05
5.61782e-05
5.48839e-05
6.22442e-05
5.73209e-05
6.03168e-05
6.47481e-05
6.41572e-05
6.41458e-05
6.03164e-05
5.7311e-05
5.72757e-05
6.41243e-05
6.02868e-05
6.47418e-05
5.72836e-05
6.41359e-05
6.02879e-05
5.62184e-05
6.05578e-05
5.49264e-05
6.22685e-05
5.494e-05
6.2255e-05
5.62089e-05
6.58612e-05
5.33835e-05
5.93741e-05
5.9376e-05
6.58562e-05
5.93749e-05
5.93755e-05
5.73572e-05
6.03441e-05
6.41737e-05
6.47778e-05
6.41863e-05
5.73546e-05
6.03491e-05
5.62516e-05
6.06016e-05
6.2284e-05
5.49854e-05
6.22992e-05
5.62606e-05
5.49668e-05
5.73419e-05
6.03427e-05
6.41666e-05
6.47735e-05
5.73548e-05
6.41771e-05
6.03439e-05
5.62451e-05
6.05999e-05
6.22807e-05
5.49835e-05
5.62575e-05
6.22933e-05
5.49648e-05
5.73544e-05
6.03431e-05
6.41727e-05
6.478e-05
6.41857e-05
5.73521e-05
6.03503e-05
5.62515e-05
6.06035e-05
6.22817e-05
5.49742e-05
6.22996e-05
5.62573e-05
5.49776e-05
5.73509e-05
6.03402e-05
6.41653e-05
6.47758e-05
5.73485e-05
6.41784e-05
6.03472e-05
5.62492e-05
6.06021e-05
5.49731e-05
6.22776e-05
5.62549e-05
5.49765e-05
6.22958e-05
5.62948e-05
6.06094e-05
5.50188e-05
6.23197e-05
5.50162e-05
6.23016e-05
5.6289e-05
5.73535e-05
6.03406e-05
6.41658e-05
6.47742e-05
6.03454e-05
5.73518e-05
6.41783e-05
5.62504e-05
6.06022e-05
5.49753e-05
6.22781e-05
5.49771e-05
5.62575e-05
6.22963e-05
5.73843e-05
6.41984e-05
6.478e-05
6.03724e-05
6.03672e-05
6.41861e-05
5.73863e-05
5.62952e-05
6.06103e-05
5.50082e-05
6.23149e-05
5.50252e-05
6.23028e-05
5.62836e-05
5.73442e-05
6.03443e-05
6.41667e-05
6.47765e-05
6.0344e-05
5.73559e-05
6.41777e-05
5.62477e-05
6.05992e-05
5.49819e-05
6.22793e-05
5.49694e-05
5.62574e-05
6.22925e-05
5.73914e-05
6.41974e-05
6.47826e-05
6.03707e-05
6.03724e-05
6.41873e-05
5.73763e-05
3.64655e-05
4.17851e-05
3.64645e-05
7.13547e-05
6.01869e-05
6.9533e-05
6.68971e-05
6.68936e-05
6.95307e-05
6.01871e-05
7.13556e-05
7.01874e-05
7.13417e-05
7.73918e-05
7.73701e-05
7.02014e-05
6.95204e-05
7.00875e-05
5.93334e-05
6.68824e-05
7.11464e-05
5.92831e-05
7.11283e-05
7.011e-05
7.00366e-05
5.93253e-05
6.6879e-05
7.11357e-05
7.1121e-05
5.92771e-05
7.00576e-05
9.23412e-05
7.20315e-05
7.20369e-05
7.20175e-05
7.20229e-05
9.23535e-05
6.95181e-05
7.01846e-05
7.13428e-05
7.73992e-05
7.73814e-05
7.01993e-05
5.95221e-05
4.17603e-05
5.05174e-05
5.05172e-05
5.04701e-05
5.04697e-05
5.95556e-05
4.8062e-05
5.25174e-05
6.01429e-05
5.85149e-05
5.84575e-05
5.24872e-05
4.80749e-05
4.80619e-05
5.25165e-05
6.01447e-05
5.8517e-05
5.24872e-05
5.84611e-05
4.80749e-05
2.10419e-05
3.66948e-05
3.66994e-05
4.19434e-05
2.18003e-05
3.76003e-05
3.76048e-05
4.26695e-05
2.2577e-05
3.84799e-05
3.8484e-05
4.33671e-05
2.33681e-05
3.93323e-05
3.93363e-05
4.40406e-05
2.41697e-05
4.0157e-05
4.01608e-05
4.46874e-05
2.49782e-05
4.09534e-05
4.09572e-05
4.53256e-05
2.57895e-05
4.17211e-05
4.17247e-05
4.59303e-05
2.66002e-05
4.24598e-05
4.24632e-05
4.6503e-05
2.74069e-05
4.31698e-05
4.31732e-05
4.70601e-05
2.82065e-05
4.38509e-05
4.38544e-05
4.75818e-05
2.89961e-05
4.45034e-05
4.45071e-05
4.80877e-05
2.97731e-05
4.5128e-05
4.51316e-05
4.85787e-05
3.05352e-05
4.57248e-05
4.57284e-05
4.90455e-05
3.128e-05
4.62938e-05
4.62975e-05
4.94908e-05
3.20059e-05
4.68358e-05
4.68394e-05
4.99184e-05
3.27111e-05
4.7351e-05
4.73545e-05
5.03256e-05
3.3394e-05
4.78396e-05
4.7843e-05
5.07099e-05
3.40534e-05
4.8302e-05
4.83056e-05
5.10712e-05
3.46883e-05
4.87387e-05
4.87422e-05
5.14147e-05
3.52977e-05
4.91501e-05
4.91535e-05
5.17381e-05
3.58809e-05
4.95365e-05
4.95399e-05
5.20421e-05
3.64372e-05
4.98983e-05
4.99017e-05
5.233e-05
3.69661e-05
5.02361e-05
5.02395e-05
5.25948e-05
3.74674e-05
5.05502e-05
5.05536e-05
5.28439e-05