/*--------------------------------*- C++ -*----------------------------------*\
| =========                 |                                                 |
| \\      /  F ield         | OpenFOAM: The Open Source CFD Toolbox           |
|  \\    /   O peration     | Version:  2312                                  |
|   \\  /    A nd           | Website:  www.openfoam.com                      |
|    \\/     M anipulation  |                                                 |
\*---------------------------------------------------------------------------*/
FoamFile
{
    version     2.0;
    format      ascii;
    arch        "LSB;label=32;scalar=64";
    class       volScalarField;
    location    "500";
    object      nut;
}
// * * * * * * * * * * * * * * * * * * * * * * * * * * * * * * * * * * * * * //

dimensions      [0 2 -1 0 0 0 0];

internalField   nonuniform List<scalar> 
43496
(
9.98431e-05
2.38911e-05
0.000200499
0.000103598
0.000144123
0.000210019
9.98401e-05
5.07385e-05
0.00014412
0.000200463
0.000210017
0.00010358
0.000181931
7.78918e-05
7.79048e-05
2.38932e-05
5.07413e-05
3.67102e-05
9.98078e-05
9.44607e-05
4.10573e-05
9.44277e-05
4.10507e-05
3.6716e-05
2.03165e-05
7.90781e-05
7.90605e-05
2.03185e-05
2.3889e-05
3.67084e-05
9.98049e-05
4.1057e-05
9.44503e-05
4.10504e-05
9.44177e-05
3.67141e-05
2.03155e-05
7.90578e-05
5.07323e-05
7.90396e-05
2.03175e-05
8.14837e-05
2.17077e-05
2.17109e-05
2.17057e-05
2.17089e-05
8.14896e-05
0.000105201
4.86426e-05
7.78815e-05
0.000128754
4.86435e-05
0.000128696
0.000105219
0.000105198
4.86551e-05
7.78952e-05
0.000128783
0.000128727
4.86561e-05
0.000105217
2.38913e-05
5.07405e-05
0.000203206
0.000206576
0.000203213
0.000103559
0.000147542
0.000147513
0.000171126
0.000144024
0.000137578
0.000176515
0.000137485
0.000176378
0.00017136
0.000160586
0.000122737
0.00012267
0.000160792
0.000171125
0.000144021
0.000176513
0.000137569
0.000176375
0.000137476
0.000171348
0.000160579
0.000122726
0.000103538
0.000147525
0.000122659
0.000160784
0.000147465
0.000138286
0.000181879
0.000161725
0.000161753
0.00016171
0.000161684
0.000138322
0.000203449
0.000198753
0.000198761
0.000180659
0.000205959
0.000200155
0.000200162
0.000181621
0.000180689
0.00018148
0.000198737
0.00019872
0.000199794
0.000199772
0.000180683
0.000181483
0.000198748
0.000198725
0.000199805
0.000199782
0.000198724
0.000199806
0.000199786
0.000180687
0.000181487
0.000198737
0.000199819
0.000199795
0.000181466
0.000181645
0.000200138
0.00020012
0.000181602
0.000200149
0.000200126
0.000200126
0.000181629
0.000200137
9.97266e-05
5.07183e-05
5.07248e-05
9.96607e-05
2.38784e-05
2.38828e-05
9.9727e-05
5.0711e-05
5.07222e-05
9.96574e-05
0.000203446
0.000203458
0.00020345
0.00020534
0.000205333
0.000205348
0.000205345
0.000143702
0.000103359
0.000207743
0.000199106
0.000103443
0.000208207
0.000143508
2.38776e-05
2.38819e-05
0.000143704
0.00020775
0.000103362
0.000199118
0.000208217
0.000103445
0.00014351
7.78098e-05
7.78038e-05
0.000180986
7.78347e-05
7.78294e-05
5.0739e-05
9.97867e-05
2.38877e-05
5.07314e-05
9.97802e-05
0.000205956
0.000205967
0.000205958
0.000144117
0.00010352
0.00020958
0.000143921
0.000210021
2.38868e-05
0.000144108
0.000209587
0.000103521
0.000143933
0.00021003
7.78728e-05
7.78672e-05
0.00018191
7.78971e-05
7.7891e-05
2.38805e-05
2.38848e-05
2.38785e-05
2.38829e-05
7.78193e-05
7.78132e-05
0.000181005
7.78451e-05
7.78386e-05
2.38895e-05
2.38852e-05
2.38875e-05
2.38831e-05
0.000181163
7.78762e-05
7.787e-05
7.78517e-05
7.78457e-05
9.97224e-05
5.07128e-05
5.07191e-05
9.96609e-05
0.000143708
0.000103359
0.000207738
0.000199093
0.000103446
0.000208206
0.000143514
0.000143704
0.000103336
0.000207733
0.000199072
0.000103422
0.000208198
0.000143511
9.97268e-05
5.07353e-05
5.07287e-05
9.9786e-05
9.97235e-05
5.07294e-05
5.07231e-05
9.97822e-05
0.000143731
0.000199448
0.000103525
0.000209124
0.000103442
0.00020867
0.000143916
0.000143728
0.00019943
0.0001035
0.000209117
0.000103418
0.000208663
0.000143911
7.77966e-05
7.78198e-05
0.000180997
7.78262e-05
7.78448e-05
2.38798e-05
2.38841e-05
2.38874e-05
2.38831e-05
0.000181155
7.78568e-05
7.78761e-05
7.7829e-05
7.78521e-05
2.38887e-05
2.38845e-05
0.000143714
0.000103351
0.000207738
0.000199104
0.000103437
0.000208205
0.000143499
9.9724e-05
5.07094e-05
5.07159e-05
9.96543e-05
0.000143711
0.000207736
0.000103341
0.000199082
0.000208203
0.000103426
0.000143496
9.97197e-05
5.07321e-05
5.07214e-05
9.97872e-05
0.000143716
0.000199458
0.000103516
0.000209123
0.000103433
0.000208668
0.000143922
9.97166e-05
5.07263e-05
5.07198e-05
9.97836e-05
0.000143713
0.000199435
0.000209121
0.000103505
0.000208666
0.000103423
0.000143919
9.97154e-05
5.07145e-05
5.0721e-05
9.96531e-05
0.000143703
0.000207739
0.000103347
0.000199087
0.000208205
0.000103433
0.00014351
9.97202e-05
5.07103e-05
5.0719e-05
9.96596e-05
0.000143725
0.000199464
0.000103522
0.000209126
0.000103441
0.000208673
0.000143911
9.97153e-05
5.07312e-05
5.07248e-05
9.97751e-05
0.000143719
0.000199434
0.000209123
0.000103511
0.000208669
0.000103429
0.000143918
9.97216e-05
5.07295e-05
5.07185e-05
9.97799e-05
7.78043e-05
7.78176e-05
0.000181003
7.78297e-05
7.78435e-05
2.38798e-05
2.38841e-05
2.38865e-05
2.38822e-05
0.000181162
7.78608e-05
7.78744e-05
7.78369e-05
7.78501e-05
2.38887e-05
2.38844e-05
0.000143694
0.00020774
0.000103342
0.000199095
0.000208207
0.000103425
0.000143501
9.97148e-05
5.07124e-05
5.07221e-05
9.96526e-05
9.97048e-05
5.07091e-05
5.07155e-05
9.9641e-05
0.000143726
0.000199472
0.000209136
0.000103524
0.00020868
0.000103444
0.00014391
0.000143717
0.000199447
0.000209125
0.000103504
0.000208671
0.000103424
0.000143901
9.97147e-05
5.07316e-05
5.0725e-05
9.97743e-05
9.97033e-05
5.07258e-05
5.07195e-05
9.97644e-05
2.38784e-05
2.38828e-05
2.38773e-05
2.38817e-05
0.000181142
7.78658e-05
7.78606e-05
7.78422e-05
7.78367e-05
2.38874e-05
2.38831e-05
2.38863e-05
2.3882e-05
2.38898e-05
2.38877e-05
7.7882e-05
7.7876e-05
5.07335e-05
9.97838e-05
0.00010352
0.000209577
0.000143941
0.000103496
0.00020957
0.000143937
7.78603e-05
7.78822e-05
2.3889e-05
0.000103511
0.000209576
0.000143923
5.07293e-05
9.97768e-05
0.000209574
0.000103501
0.00014392
9.98334e-05
5.07352e-05
9.97742e-05
0.00014412
0.000209577
0.000103507
0.000200467
0.00014392
0.00021002
0.000103586
9.98388e-05
5.07288e-05
9.97803e-05
5.07397e-05
7.78675e-05
7.78808e-05
2.3889e-05
0.0001441
0.000209578
0.000103501
0.000200477
0.000143924
0.000210021
0.000103578
9.98301e-05
5.07351e-05
9.97741e-05
9.98203e-05
5.07295e-05
9.97626e-05
5.07354e-05
2.38876e-05
2.38919e-05
2.38866e-05
2.38908e-05
3.66952e-05
4.10405e-05
9.43724e-05
9.96958e-05
4.10343e-05
9.43381e-05
3.67022e-05
2.03086e-05
5.07197e-05
7.90063e-05
7.90253e-05
2.03066e-05
2.03085e-05
7.90374e-05
5.07234e-05
7.90185e-05
2.03105e-05
3.66983e-05
9.96983e-05
4.10303e-05
9.43141e-05
4.10361e-05
9.43484e-05
3.66913e-05
2.38805e-05
2.38807e-05
3.66952e-05
9.43688e-05
4.104e-05
9.96883e-05
9.43343e-05
4.10338e-05
3.67022e-05
2.0309e-05
5.0717e-05
7.90022e-05
7.90214e-05
2.0307e-05
2.03089e-05
7.90334e-05
5.07163e-05
7.90146e-05
2.0311e-05
3.66983e-05
9.96961e-05
9.43103e-05
4.10298e-05
9.43448e-05
4.10357e-05
3.66913e-05
2.38795e-05
2.38799e-05
8.14423e-05
2.17029e-05
2.16997e-05
2.17009e-05
2.16977e-05
8.14491e-05
0.000105053
0.000128358
7.78186e-05
4.8629e-05
0.000128421
4.86289e-05
0.000105033
0.000105059
0.000128339
7.78143e-05
4.86148e-05
0.000128403
4.86216e-05
0.00010504
0.000105065
4.86336e-05
7.78263e-05
0.000128494
0.000128432
4.86337e-05
0.000105085
0.000105072
4.86252e-05
7.78206e-05
0.000128476
0.000128413
4.86216e-05
0.000105092
8.14387e-05
2.1699e-05
2.16958e-05
2.1701e-05
2.16978e-05
8.14319e-05
2.03162e-05
7.90535e-05
5.07395e-05
2.03142e-05
7.9072e-05
3.67136e-05
9.98135e-05
4.10476e-05
9.44096e-05
3.67059e-05
4.10524e-05
9.44439e-05
2.38897e-05
2.03166e-05
7.90496e-05
5.07379e-05
2.03146e-05
7.90674e-05
3.67127e-05
9.98149e-05
9.44065e-05
4.10469e-05
3.67062e-05
9.44384e-05
4.10527e-05
2.38888e-05
8.14813e-05
2.17103e-05
2.17071e-05
2.17084e-05
2.17051e-05
8.14874e-05
0.000105178
0.000128646
4.86481e-05
7.78809e-05
0.000105159
0.000128703
4.86477e-05
0.000105184
0.000128626
4.86376e-05
7.78756e-05
0.000105166
0.000128685
4.86373e-05
8.14785e-05
2.17065e-05
2.17033e-05
8.1472e-05
2.17085e-05
2.17053e-05
0.00010519
4.8652e-05
7.7887e-05
0.000128769
0.000128714
4.8653e-05
0.000105207
0.000105196
4.86413e-05
7.78815e-05
0.000128751
0.000128694
4.86423e-05
0.000105213
2.38825e-05
2.38829e-05
2.38805e-05
2.38808e-05
8.14481e-05
2.17033e-05
2.17e-05
2.17013e-05
2.1698e-05
8.14549e-05
0.000105061
0.000128373
7.78288e-05
4.8632e-05
4.86318e-05
0.000128429
0.000105042
0.000105063
0.000128349
7.78222e-05
4.86195e-05
4.86193e-05
0.000128412
0.000105043
0.000105075
4.86366e-05
7.78357e-05
0.000128503
4.86367e-05
0.000105094
0.000128447
0.000105076
4.86241e-05
7.78296e-05
0.000128485
4.86242e-05
0.000105096
0.000128424
8.14445e-05
2.16994e-05
2.16961e-05
2.17014e-05
2.16981e-05
8.14376e-05
2.38875e-05
2.38872e-05
2.38854e-05
2.38852e-05
8.14649e-05
2.17032e-05
2.16999e-05
8.14584e-05
2.17052e-05
2.17019e-05
0.000105138
0.000128644
7.78671e-05
4.86461e-05
4.86465e-05
0.000128591
0.000105157
0.000105139
0.000128626
7.78609e-05
4.86336e-05
4.8634e-05
0.000128567
0.000105159
0.000105126
4.86416e-05
0.000128519
7.78607e-05
0.000105107
4.86418e-05
0.000128574
0.000105128
4.86291e-05
0.000128496
7.78545e-05
0.000105108
4.86293e-05
0.000128556
8.14684e-05
2.1707e-05
2.17037e-05
2.1705e-05
2.17017e-05
8.14747e-05
3.66952e-05
4.10404e-05
9.43559e-05
9.96928e-05
4.10343e-05
9.43316e-05
3.66992e-05
2.03079e-05
5.0714e-05
7.89847e-05
7.90028e-05
2.03059e-05
2.03078e-05
7.90146e-05
5.07179e-05
7.89969e-05
2.03099e-05
3.66943e-05
9.96918e-05
4.10303e-05
9.43073e-05
4.1036e-05
9.43322e-05
3.66932e-05
3.67058e-05
4.1039e-05
9.4363e-05
9.97568e-05
3.66991e-05
4.10447e-05
9.43965e-05
2.03123e-05
5.07338e-05
7.90608e-05
2.03143e-05
7.90421e-05
2.03124e-05
7.90305e-05
5.07303e-05
2.03104e-05
7.90492e-05
3.67027e-05
9.97568e-05
4.10493e-05
9.44201e-05
3.67092e-05
4.10431e-05
9.4387e-05
3.67038e-05
4.10388e-05
9.43555e-05
9.97531e-05
3.6698e-05
4.10446e-05
9.43802e-05
2.03116e-05
5.07283e-05
7.90379e-05
7.90204e-05
2.03137e-05
2.03118e-05
7.90089e-05
5.07246e-05
2.03097e-05
7.90265e-05
3.6701e-05
9.97536e-05
4.10488e-05
9.44035e-05
4.10429e-05
9.4379e-05
3.67079e-05
8.14448e-05
2.17e-05
2.1703e-05
2.1698e-05
2.1701e-05
8.14526e-05
0.000105063
0.00012834
7.78099e-05
4.8615e-05
4.86225e-05
0.000128399
0.00010504
0.000105059
0.000128371
7.78286e-05
4.86304e-05
0.000128432
4.86312e-05
0.000105039
0.000105073
4.86272e-05
7.78132e-05
0.000128472
4.862e-05
0.000128414
0.000105096
0.000105072
4.86354e-05
7.78362e-05
0.000128505
0.000128445
4.86355e-05
0.000105091
8.14422e-05
2.16961e-05
2.16991e-05
2.16981e-05
2.17012e-05
8.14342e-05
2.38818e-05
2.38821e-05
2.38854e-05
2.38851e-05
8.14626e-05
2.16998e-05
2.17029e-05
8.14551e-05
2.17019e-05
2.17049e-05
0.000105136
0.000128613
7.78444e-05
4.86361e-05
0.000128557
4.86294e-05
0.000105159
0.000105135
0.000128646
7.78677e-05
4.86454e-05
4.8645e-05
0.000128588
0.000105155
0.000105128
4.86248e-05
0.000128486
7.78414e-05
0.000128543
0.000105105
4.86315e-05
0.000105123
4.86401e-05
0.000128517
7.78609e-05
0.000105104
4.86406e-05
0.000128576
8.1465e-05
2.17037e-05
2.17068e-05
2.17017e-05
2.17047e-05
8.14724e-05
2.38867e-05
2.38864e-05
3.66933e-05
4.10398e-05
9.43578e-05
9.96853e-05
4.10336e-05
9.43236e-05
3.67001e-05
2.0308e-05
5.07108e-05
7.89812e-05
7.90003e-05
2.0306e-05
2.03079e-05
7.90124e-05
5.07145e-05
7.89935e-05
2.031e-05
3.66959e-05
9.96929e-05
4.10296e-05
9.42995e-05
4.10354e-05
9.43331e-05
3.66905e-05
3.67057e-05
9.43591e-05
4.10384e-05
9.97574e-05
3.6699e-05
9.43928e-05
4.10442e-05
2.03127e-05
5.07265e-05
7.90564e-05
2.03148e-05
7.90382e-05
2.03129e-05
7.90264e-05
5.07269e-05
2.03108e-05
7.9045e-05
3.67029e-05
9.97506e-05
9.44167e-05
4.10488e-05
3.67089e-05
9.43828e-05
4.10427e-05
3.67039e-05
4.10381e-05
9.43486e-05
9.97546e-05
3.66971e-05
4.10441e-05
9.43822e-05
2.03117e-05
5.0725e-05
7.90358e-05
7.90173e-05
2.03137e-05
2.03119e-05
7.90056e-05
5.07214e-05
2.03098e-05
7.90243e-05
3.67009e-05
9.97474e-05
4.10483e-05
9.44054e-05
4.10423e-05
9.43724e-05
3.67073e-05
3.66993e-05
9.43538e-05
4.10366e-05
9.96848e-05
9.43265e-05
4.10367e-05
3.6698e-05
2.03092e-05
5.07159e-05
7.89993e-05
7.90098e-05
2.03071e-05
2.0309e-05
7.90218e-05
5.07196e-05
7.90115e-05
2.03111e-05
3.66945e-05
9.96849e-05
9.43015e-05
4.10322e-05
9.43297e-05
4.10325e-05
3.66956e-05
3.66947e-05
4.10374e-05
9.43559e-05
9.9691e-05
4.10373e-05
9.43309e-05
3.66997e-05
2.03083e-05
5.07125e-05
7.8982e-05
7.9001e-05
2.03062e-05
2.03081e-05
7.90128e-05
5.07133e-05
7.89944e-05
2.03102e-05
3.66965e-05
9.96896e-05
4.10329e-05
9.43062e-05
4.10333e-05
9.43319e-05
3.66904e-05
3.67017e-05
9.43506e-05
4.10407e-05
9.9746e-05
3.67029e-05
9.4378e-05
4.10409e-05
2.03128e-05
5.07301e-05
7.90451e-05
7.90349e-05
2.03149e-05
2.0313e-05
7.90234e-05
5.07265e-05
2.03109e-05
7.90339e-05
3.67066e-05
9.97452e-05
9.44011e-05
4.10451e-05
9.43744e-05
4.10451e-05
3.67056e-05
3.67023e-05
4.10415e-05
9.43554e-05
9.97507e-05
3.67002e-05
4.1042e-05
9.43803e-05
2.0312e-05
5.07235e-05
7.90359e-05
7.9018e-05
2.0314e-05
2.03121e-05
7.90064e-05
5.07242e-05
2.03101e-05
7.90246e-05
3.67045e-05
9.97514e-05
4.10475e-05
9.44031e-05
4.10442e-05
9.43791e-05
3.67051e-05
8.14447e-05
2.17002e-05
2.17035e-05
2.16982e-05
2.17015e-05
8.1451e-05
0.000105065
0.000128341
7.78134e-05
4.86187e-05
4.86206e-05
0.000128405
0.000105045
0.000105062
0.000128372
7.78272e-05
4.86318e-05
0.000128435
4.86317e-05
0.000105042
0.000105078
4.86244e-05
7.78209e-05
0.000128478
4.86245e-05
0.000128416
0.000105097
0.000105075
4.86365e-05
7.78341e-05
0.000128508
0.000128446
4.86365e-05
0.000105095
8.14406e-05
2.16964e-05
2.16996e-05
2.16984e-05
2.17016e-05
8.14342e-05
2.38818e-05
2.38821e-05
2.38845e-05
2.38842e-05
8.14611e-05
2.17001e-05
2.17034e-05
8.14547e-05
2.17021e-05
2.17054e-05
0.000105141
0.000128619
7.78525e-05
4.86338e-05
0.000128559
4.86341e-05
0.00010516
0.000105138
0.00012865
7.78655e-05
4.86461e-05
4.86465e-05
0.000128589
0.000105157
0.000105129
4.86291e-05
0.000128488
7.78453e-05
0.00012855
0.000105109
4.86294e-05
0.000105126
4.86415e-05
0.000128518
7.7859e-05
0.000105107
4.86417e-05
0.00012858
8.14647e-05
2.1704e-05
2.17072e-05
2.1702e-05
2.17052e-05
8.1471e-05
2.38867e-05
2.38864e-05
3.66998e-05
9.43655e-05
4.10366e-05
9.96842e-05
9.43412e-05
4.10367e-05
3.66988e-05
2.03097e-05
5.07181e-05
7.90034e-05
7.90222e-05
2.03076e-05
2.03096e-05
7.90342e-05
5.07193e-05
7.90156e-05
2.03116e-05
3.66951e-05
9.96842e-05
9.43167e-05
4.10322e-05
9.43416e-05
4.10324e-05
3.66962e-05
3.66968e-05
9.43452e-05
4.10359e-05
9.96727e-05
9.43191e-05
4.10362e-05
3.66956e-05
2.03078e-05
5.07104e-05
7.89802e-05
7.8999e-05
2.03058e-05
2.03077e-05
7.90109e-05
5.07142e-05
7.89925e-05
2.03097e-05
3.6692e-05
9.9674e-05
9.42938e-05
4.10317e-05
9.43215e-05
4.10318e-05
3.66932e-05
3.67025e-05
9.43653e-05
4.10407e-05
9.97454e-05
3.67033e-05
9.43898e-05
4.10409e-05
2.03134e-05
5.07304e-05
7.90573e-05
7.90393e-05
2.03154e-05
2.03135e-05
7.90275e-05
5.07267e-05
2.03115e-05
7.90459e-05
3.67071e-05
9.97447e-05
9.44126e-05
4.1045e-05
9.43891e-05
4.10451e-05
3.67064e-05
3.66993e-05
9.43432e-05
4.10402e-05
9.97353e-05
3.67003e-05
9.43694e-05
4.10403e-05
2.03115e-05
5.07247e-05
7.90339e-05
7.90161e-05
2.03135e-05
2.03116e-05
7.90044e-05
5.0721e-05
2.03096e-05
7.90226e-05
3.67041e-05
9.97333e-05
9.43924e-05
4.10444e-05
9.43672e-05
4.10446e-05
3.67033e-05
2.38804e-05
2.38807e-05
2.38794e-05
2.38797e-05
8.14592e-05
2.17028e-05
2.16996e-05
8.14524e-05
2.17048e-05
2.17016e-05
0.000105129
0.000128634
7.78578e-05
4.86432e-05
0.000105148
0.000128576
4.86435e-05
0.000105135
0.000128617
7.78522e-05
4.86328e-05
0.000105155
0.000128556
4.86329e-05
0.000105117
4.86385e-05
0.000128504
7.78506e-05
0.000105097
0.000128565
4.86389e-05
0.000105123
4.86275e-05
0.000128485
7.78455e-05
0.000105104
0.000128547
4.86286e-05
8.14622e-05
2.17067e-05
2.17034e-05
8.1469e-05
2.17047e-05
2.17014e-05
2.38854e-05
2.38851e-05
2.38843e-05
2.3884e-05
2.38917e-05
2.38897e-05
0.000105187
0.00012866
4.86513e-05
7.78911e-05
0.000105168
4.86502e-05
0.000128712
0.000105189
0.000128636
4.86387e-05
7.78844e-05
0.000105169
4.86377e-05
0.000128694
8.14839e-05
2.17069e-05
2.17036e-05
8.14782e-05
2.17089e-05
2.17056e-05
2.03155e-05
7.90317e-05
5.07338e-05
2.03135e-05
7.90487e-05
3.6712e-05
9.981e-05
4.10474e-05
9.4403e-05
4.10521e-05
3.67047e-05
9.44256e-05
0.000105189
0.000128626
4.86366e-05
7.78689e-05
4.86387e-05
0.000105166
0.000128681
0.000105187
0.000128657
4.86472e-05
7.7892e-05
0.000128714
0.000105164
4.86519e-05
8.14822e-05
2.17036e-05
2.17066e-05
2.17056e-05
8.14747e-05
2.17086e-05
2.03156e-05
7.90288e-05
5.07322e-05
2.03136e-05
7.90469e-05
3.67112e-05
9.98119e-05
4.10466e-05
9.43959e-05
4.10523e-05
3.67048e-05
9.44278e-05
3.67135e-05
9.97994e-05
4.1053e-05
9.4416e-05
4.10537e-05
2.03168e-05
7.9046e-05
5.07358e-05
7.90557e-05
2.03147e-05
3.67093e-05
9.98046e-05
9.43971e-05
4.10492e-05
9.44247e-05
3.67099e-05
4.10495e-05
2.03166e-05
3.67128e-05
9.98052e-05
4.10574e-05
9.44472e-05
4.10509e-05
9.44246e-05
3.67124e-05
2.03159e-05
7.90291e-05
5.07345e-05
2.03138e-05
7.90471e-05
3.67083e-05
9.98096e-05
4.10469e-05
9.44022e-05
3.67084e-05
4.10527e-05
9.44261e-05
2.03157e-05
7.90579e-05
5.07337e-05
7.90399e-05
2.03177e-05
0.00010519
0.000128628
4.86383e-05
7.78761e-05
4.86387e-05
0.000105171
0.000128687
0.000105188
0.000128658
4.86508e-05
7.78892e-05
0.000128717
0.000105168
4.86512e-05
8.14806e-05
2.17038e-05
2.17071e-05
2.17058e-05
8.14743e-05
2.17091e-05
2.3891e-05
3.67147e-05
9.98027e-05
9.44563e-05
4.1053e-05
9.44344e-05
4.10537e-05
3.67143e-05
2.03173e-05
7.90505e-05
5.07367e-05
7.90683e-05
2.03153e-05
3.671e-05
9.98032e-05
9.44121e-05
4.10492e-05
9.44355e-05
3.67106e-05
4.10495e-05
2.03171e-05
7.9079e-05
7.90612e-05
2.03191e-05
3.67095e-05
9.97913e-05
9.44366e-05
4.10524e-05
9.44129e-05
4.10532e-05
3.67118e-05
2.03154e-05
7.90272e-05
5.07308e-05
2.03133e-05
7.9045e-05
3.67073e-05
9.97933e-05
9.43904e-05
4.10487e-05
3.6707e-05
9.44156e-05
4.10489e-05
2.03152e-05
7.90555e-05
5.07347e-05
7.90382e-05
2.03172e-05
2.38896e-05
2.38899e-05
2.38885e-05
2.38889e-05
0.000199217
0.000199217
0.000204085
0.000200027
0.000200026
0.000189329
0.000188306
0.000137892
0.000160913
0.000160891
0.000180743
0.000160968
0.000160946
0.000137855
0.000202423
0.000202422
0.000193393
0.000192382
0.000138232
0.000161535
0.000161522
0.000181694
0.000138196
0.000161587
0.000161573
0.000137904
0.000160924
0.000160903
0.000180766
0.000160975
0.00016096
0.000137867
0.000138124
0.00018141
0.000161457
0.000161437
0.000161401
0.00016138
0.000138162
0.000137901
0.000160896
0.000160917
0.000180759
0.00016097
0.000160951
0.000137862
0.00013812
0.000181399
0.000161432
0.000161448
0.000161372
0.000161395
0.000138158
0.000137904
0.000160901
0.000160922
0.000180764
0.000160977
0.000160955
0.000137864
0.000138122
0.000181411
0.000161437
0.000161454
0.000161382
0.0001614
0.00013816
0.000138113
0.000181391
0.000161438
0.000161428
0.000138149
0.00016138
0.000161371
0.000138243
0.000161552
0.000161537
0.000181696
0.000138207
0.000161596
0.00016158
0.000138244
0.000161514
0.000161542
0.000181747
0.000161622
0.000138201
0.000161593
0.000138243
0.000161528
0.000161548
0.000181714
0.000161604
0.000138205
0.000161587
0.000199216
0.00019922
0.000204079
0.000200025
0.000200027
0.00018933
0.000188307
0.000199225
0.000199231
0.000204094
0.000200035
0.000200041
0.000189338
0.000188316
0.000199228
0.000199227
0.00020409
0.000200036
0.00020004
0.000189339
0.000188318
0.000204717
0.000201629
0.000201629
0.000200832
0.000200832
0.000190349
0.000191367
0.000204714
0.000201628
0.000201629
0.000200831
0.000200835
0.000190351
0.000191368
0.000204725
0.000201637
0.000201643
0.00020084
0.000200845
0.000190359
0.000191377
0.000204717
0.000201637
0.000201643
0.000200843
0.000200841
0.000190361
0.000191378
0.000170443
0.000137216
0.000175598
0.000143619
0.000137142
0.000175582
0.000170515
0.000159949
0.000146904
0.000103403
0.000122356
0.000146941
0.000122418
0.000159911
0.000160069
0.000122484
0.000103401
0.000147067
0.00014703
0.000122424
0.000160106
0.000170319
0.000143595
0.000137049
0.000175348
0.000137125
0.00017537
0.00017024
0.000170455
0.000175601
0.000137224
0.000143621
0.000175588
0.000137151
0.000170502
0.000159955
0.000146911
0.000103405
0.000122366
0.000146948
0.000122426
0.000159921
0.000160077
0.000122491
0.000103403
0.000147073
0.000147036
0.000122432
0.00016011
0.0001703
0.000143596
0.000175353
0.000137058
0.000175372
0.000137133
0.000170256
0.000137943
0.000180907
0.000161122
0.000161105
0.000161063
0.000161052
0.00013798
0.000202421
0.000202425
0.000203206
0.000193394
0.000192383
0.00020243
0.000202435
0.000203221
0.000193403
0.000192392
0.000202434
0.00020243
0.000206575
0.000203213
0.000203223
0.000193404
0.000192393
0.00017121
0.000144021
0.000137563
0.000176515
0.000137497
0.0001764
0.000171292
0.000160568
0.000147398
0.000122617
0.000103559
0.000160547
0.000147428
0.000122673
0.000171097
0.000144015
0.000137412
0.000176187
0.000171029
0.000137481
0.000176283
0.000171216
0.000144035
0.000176436
0.000137571
0.000176447
0.000137506
0.000171278
0.000160571
0.000147395
0.000122626
0.000103562
0.000160551
0.00014743
0.000122681
0.000171096
0.000144012
0.000176223
0.000137421
0.000171036
0.000176236
0.000137489
0.000160707
0.000122739
0.000122687
0.000160708
0.000138278
0.000181852
0.000161728
0.000161717
0.000161692
0.000161678
0.000138311
0.000137954
0.000180927
0.000161136
0.000161122
0.000137992
0.000161085
0.000161067
0.000138078
0.000181249
0.000161244
0.000161225
0.000138041
0.000161298
0.000161284
0.000170432
0.000137232
0.000175601
0.000143624
0.000137135
0.000175585
0.00017053
0.000159988
0.000146884
0.000103405
0.000122355
0.000122425
0.000146961
0.00015986
0.00016002
0.000122492
0.000103401
0.000147085
0.000122421
0.000147011
0.000160149
0.000170325
0.000143601
0.000137043
0.00017535
0.00013714
0.000175374
0.000170227
0.000170432
0.000137207
0.000175593
0.000143621
0.000137135
0.000175582
0.000170473
0.00015992
0.000146872
0.000103381
0.000122343
0.000122403
0.000146909
0.000159886
0.000160042
0.000122469
0.000103378
0.000147034
0.00012241
0.000160073
0.000146997
0.000170272
0.000143597
0.000137043
0.000175349
0.000137116
0.000175368
0.000170232
0.000170729
0.000137228
0.000175797
0.000143814
0.000170633
0.000137323
0.000175815
0.000160329
0.000147327
0.000103481
0.000122622
0.000147253
0.000122553
0.00016048
0.000160315
0.000122488
0.000147132
0.000103485
0.000147204
0.00016018
0.000122557
0.000170832
0.000143836
0.000137412
0.00017602
0.00013732
0.000176013
0.000170918
0.000170683
0.000137226
0.000175794
0.00014381
0.000170632
0.000137299
0.000175808
0.000160357
0.000147273
0.000103458
0.000122598
0.000122541
0.000147241
0.000160385
0.000160225
0.000122475
0.000147117
0.000103462
0.000160201
0.000122535
0.000147155
0.000170829
0.000143832
0.000137388
0.000176012
0.000137316
0.000176008
0.000170882
0.00013795
0.00018092
0.000161107
0.000161132
0.000161079
0.000161054
0.000137987
0.000138073
0.000181243
0.000161216
0.000161242
0.000161272
0.000138036
0.000161295
0.000170369
0.000137226
0.000175658
0.000143608
0.000137128
0.000175517
0.000170554
0.000159985
0.00014687
0.000103396
0.000122348
0.00012242
0.000146946
0.000159847
0.000160001
0.000122486
0.000103392
0.00014707
0.000122415
0.000146996
0.000160148
0.000170343
0.000143606
0.000137037
0.000175288
0.000137135
0.00017543
0.000170176
0.000170366
0.000175655
0.000137217
0.000143605
0.000175514
0.000137119
0.000170547
0.000159972
0.000146857
0.000103385
0.000122337
0.000122408
0.000146933
0.000159838
0.000159994
0.000122474
0.000103382
0.000147057
0.000122404
0.000160135
0.000146983
0.000170334
0.000143603
0.000175285
0.000137028
0.000175427
0.000137125
0.000170173
0.000170759
0.000137221
0.00017573
0.000143819
0.000170569
0.000137318
0.000175869
0.000160292
0.000147305
0.000103473
0.000122615
0.000147246
0.000122546
0.00016047
0.000160315
0.000122481
0.000147117
0.000103476
0.000147188
0.000160152
0.000122551
0.000170756
0.000143821
0.000137406
0.000176086
0.000137311
0.000175948
0.000170949
0.000170751
0.000175727
0.000137213
0.000143816
0.000170564
0.000175866
0.000137308
0.000160289
0.000147298
0.000103462
0.000122603
0.000122535
0.000147225
0.000160459
0.000160301
0.00012247
0.000147104
0.000103466
0.000160148
0.000122539
0.000147176
0.000170752
0.000143818
0.000176083
0.000137397
0.000175944
0.000137303
0.000170942
0.000170432
0.000175593
0.000137213
0.000143618
0.000175575
0.000137137
0.000170516
0.000159936
0.000146871
0.000103392
0.000122347
0.000146945
0.000122411
0.000159897
0.000160054
0.000122476
0.000103388
0.000147069
0.000146997
0.000122415
0.000160099
0.000170313
0.000143596
0.000175344
0.000137045
0.000175371
0.000137121
0.000170227
0.000170709
0.000137233
0.000175791
0.000143808
0.000170644
0.000137307
0.000175815
0.000160385
0.000147308
0.000103481
0.000122613
0.000160413
0.000147273
0.000122554
0.000160257
0.000122489
0.00014715
0.000103483
0.000160229
0.000147189
0.000122549
0.000170842
0.000143827
0.000137396
0.00017604
0.000170905
0.000137323
0.000175995
0.000170719
0.00017578
0.000137226
0.000143811
0.000170631
0.000175834
0.000137306
0.00016035
0.000147311
0.000103468
0.000122607
0.000122541
0.000147238
0.000160462
0.000160288
0.000122478
0.000147116
0.000103472
0.000160202
0.000122543
0.000147189
0.000170828
0.000143817
0.00017608
0.000137398
0.000175975
0.000137307
0.00017093
0.000137952
0.000180925
0.000161114
0.000161139
0.000161084
0.000161062
0.000137991
0.000138077
0.000181246
0.000161223
0.000161242
0.000161276
0.000138038
0.0001613
0.000170418
0.000175592
0.000137203
0.000143611
0.000175576
0.000137127
0.000170513
0.000159959
0.000146873
0.000103385
0.000122338
0.000146911
0.000122404
0.00015984
0.000160003
0.000122468
0.000103383
0.000147036
0.000146998
0.000122407
0.000160098
0.000170312
0.000143587
0.000175342
0.000137032
0.000175367
0.000137113
0.000170211
0.000170709
0.000175798
0.000137242
0.000143809
0.000170655
0.000175815
0.000137315
0.000160391
0.000147314
0.000103483
0.00012262
0.00016042
0.000147278
0.000122563
0.000160259
0.000122498
0.000147156
0.000103485
0.000160236
0.000147195
0.000122557
0.000170853
0.00014383
0.00017602
0.000137404
0.000170906
0.000176013
0.000137332
0.000170704
0.000175791
0.000137219
0.000143799
0.000170621
0.000175806
0.000137294
0.00016036
0.000147279
0.000103462
0.000122597
0.000122538
0.000147244
0.0001604
0.000160247
0.000122474
0.000147121
0.000103465
0.00016019
0.000122533
0.000147159
0.000170821
0.000143822
0.000176019
0.000137381
0.000176008
0.000137309
0.000170891
0.000138066
0.000181231
0.000161222
0.000161213
0.000138029
0.000161283
0.000161269
0.000160639
0.00014738
0.000122617
0.000103562
0.000122681
0.000160475
0.000147439
0.000171099
0.000144015
0.000137412
0.000176243
0.000137492
0.000171027
0.000176221
0.000160535
0.000147359
0.000122604
0.000103538
0.000160513
0.000122657
0.0001474
0.000171072
0.00014401
0.000137406
0.000176236
0.000171016
0.000137473
0.000176213
0.000160631
0.000147353
0.000122609
0.000103553
0.000122675
0.000160446
0.000147423
0.000171147
0.000144023
0.0001374
0.000176162
0.000137492
0.000170951
0.000176297
0.00016062
0.000147343
0.000122598
0.000103543
0.000160439
0.000122663
0.000147412
0.000171139
0.00014402
0.000176159
0.000137392
0.000170947
0.000176294
0.000137483
0.000171149
0.000144021
0.000176517
0.000137574
0.000176383
0.00013748
0.000171377
0.000160626
0.000147365
0.000122605
0.000103549
0.000147424
0.000160489
0.000122669
0.000171142
0.00014402
0.000176175
0.000137394
0.000176297
0.000171
0.000137487
0.000160618
0.000122731
0.000103545
0.000147539
0.000147477
0.000122666
0.000160783
0.000171201
0.000144027
0.000176433
0.000137551
0.000176445
0.000137485
0.00017127
0.000160542
0.00014736
0.000122601
0.000103541
0.000147393
0.000160518
0.000122659
0.000171085
0.000144004
0.000176221
0.000137398
0.000176239
0.000171017
0.00013747
0.00016068
0.000122717
0.000103539
0.000147506
0.000147479
0.000122664
0.000160691
0.000138651
0.000136834
0.000138664
5.00143e-05
9.38124e-05
2.36115e-05
7.37213e-05
7.37305e-05
2.36127e-05
9.38266e-05
5.0015e-05
2.01024e-05
5.00128e-05
7.6044e-05
7.59977e-05
2.01044e-05
2.36094e-05
9.72742e-05
0.000112653
7.36897e-05
4.79325e-05
0.000112501
4.7923e-05
9.7335e-05
9.72633e-05
0.000112667
7.37024e-05
4.79395e-05
4.7938e-05
0.000112523
9.73199e-05
7.88201e-05
2.14899e-05
2.14929e-05
2.14878e-05
2.14908e-05
7.88442e-05
2.36106e-05
2.01033e-05
5.00135e-05
7.60504e-05
7.60099e-05
2.01054e-05
0.000119522
0.000136525
0.000129931
0.000129938
0.000129655
0.000129659
0.000119616
0.000128557
0.00012212
9.36894e-05
0.000107741
0.000107538
0.000122033
0.000128593
0.000128558
0.000122139
9.37001e-05
0.000107731
0.000122041
0.00010755
0.000128595
0.000123074
0.00013945
0.000139462
0.000137167
0.000125873
0.000142574
0.000142585
0.000139607
0.000128831
0.000145662
0.000145671
0.000141981
0.000131926
0.000148704
0.000148713
0.000144307
0.000135139
0.0001517
0.000151707
0.000146567
0.000138449
0.000154638
0.000154646
0.000148881
0.000141837
0.000157516
0.000157524
0.000151058
0.000145285
0.000160331
0.000160338
0.000153121
0.000148776
0.000163083
0.00016309
0.000155173
0.000152294
0.000165768
0.000165776
0.000157081
0.000155826
0.000168385
0.000168393
0.000158968
0.000159359
0.000170934
0.000170942
0.000160847
0.000162878
0.000173413
0.00017342
0.000162651
0.000166373
0.000175819
0.000175827
0.000164394
0.000169834
0.000178152
0.00017816
0.000166102
0.000173251
0.000180412
0.00018042
0.000167748
0.000176616
0.000182595
0.000182604
0.000169314
0.000179921
0.000184703
0.000184711
0.000170801
0.000183158
0.000186733
0.000186741
0.000172238
0.000186322
0.000188685
0.000188694
0.000173609
0.000189405
0.00019056
0.000190568
0.00017492
0.000192402
0.000192356
0.000192364
0.000176189
0.000195309
0.000194073
0.000194081
0.000177365
0.000198121