/*--------------------------------*- C++ -*----------------------------------*\
| =========                 |                                                 |
| \\      /  F ield         | OpenFOAM: The Open Source CFD Toolbox           |
|  \\    /   O peration     | Version:  2312                                  |
|   \\  /    A nd           | Website:  www.openfoam.com                      |
|    \\/     M anipulation  |                                                 |
\*---------------------------------------------------------------------------*/
FoamFile
{
    version     2.0;
    format      ascii;
    arch        "LSB;label=32;scalar=64";
    class       volScalarField;
    location    "500";
    object      p;
}
// * * * * * * * * * * * * * * * * * * * * * * * * * * * * * * * * * * * * * //

dimensions      [0 2 -2 0 0 0 0];

internalField   nonuniform List<scalar> 
43496
(
0.000735127
0.000735128
0.000737291
0.000735165
0.00073521
0.000737311
0.000735127
0.000735129
0.00073521
0.000737291
0.000737311
0.000735165
0.000735679
0.000735123
0.000735123
0.000735128
0.00073513
0.00073944
0.000739418
0.000735126
0.000735122
0.000739421
0.000739438
0.000735122
0.000739442
0.000735117
0.000739434
0.000735126
0.000739437
0.00073944
0.000739418
0.000735122
0.000735126
0.000739438
0.000739421
0.000735121
0.000739442
0.000735117
0.00073943
0.000739434
0.000735125
0.000739444
0.000735124
0.000735124
0.000739447
0.000739447
0.000735115
0.000739406
0.000735131
0.00073943
0.000735176
0.000739433
0.000739373
0.000735146
0.000739406
0.000735131
0.00073943
0.000735176
0.000739373
0.000739433
0.000735146
0.000739437
0.00073943
0.000737378
0.000737345
0.000737378
0.000739383
0.000735326
0.000739235
0.000739103
0.000739334
0.000735207
0.000735446
0.000739338
0.000739105
0.000735452
0.000739131
0.000735192
0.000739353
0.000735412
0.000739103
0.000739334
0.000735446
0.000735206
0.000739105
0.000739339
0.000735451
0.000739131
0.000735191
0.000739382
0.000735326
0.000739353
0.000735412
0.000739235
0.000739304
0.000738865
0.000735421
0.000735421
0.000739143
0.000739142
0.000735247
0.000781488
0.00078143
0.00078143
0.000783002
0.000746176
0.000746121
0.000746121
0.000747696
0.000783001
0.000753339
0.00078143
0.00078143
0.000754951
0.00075495
0.000783001
0.000753339
0.00078143
0.00078143
0.000754951
0.000754951
0.00078143
0.00075495
0.000754951
0.000783001
0.000753339
0.00078143
0.000754951
0.000754951
0.00075334
0.000747695
0.000746122
0.000746121
0.000747693
0.000746122
0.000746122
0.000746121
0.000747695
0.000746121
0.00077044
0.000783563
0.000770441
0.000783551
0.00078357
0.00077044
0.00077044
0.000783563
0.000770441
0.000783551
0.000781488
0.000781488
0.000781488
0.000755006
0.000755006
0.000755006
0.000755006
0.000770523
0.000783516
0.000781452
0.000772605
0.000770478
0.000772626
0.000783468
0.00078357
0.00077044
0.000770523
0.000781452
0.000783516
0.000772605
0.000772627
0.000770477
0.000783468
0.000783563
0.000783563
0.000770994
0.000770435
0.000770435
0.000748259
0.000748247
0.000748266
0.00074826
0.000748248
0.000746176
0.000746176
0.000746176
0.00073521
0.000748212
0.000746142
0.000748164
0.000737311
0.000748267
0.00073521
0.000746142
0.000748212
0.000748164
0.000737311
0.000748259
0.000748259
0.00073568
0.000735123
0.000735123
0.00078357
0.00077044
0.00078357
0.00077044
0.000783562
0.000783563
0.000770994
0.000770435
0.000770435
0.000752787
0.000765921
0.000752787
0.000765921
0.00076535
0.000752782
0.000752782
0.000765913
0.000765914
0.00077044
0.000783563
0.000770442
0.000783551
0.000770523
0.000783516
0.000781452
0.000772605
0.000770477
0.000772627
0.000783468
0.000770523
0.000783515
0.000781452
0.000772605
0.000770478
0.000772626
0.000783468
0.000765902
0.000752788
0.000765914
0.000752786
0.000765902
0.000752788
0.000765914
0.000752786
0.000765819
0.000763779
0.000752824
0.000754972
0.000765867
0.0007638
0.000752869
0.000765819
0.000763779
0.000752824
0.000754971
0.000765866
0.0007638
0.000752869
0.000783562
0.000783563
0.000770994
0.000770435
0.000770435
0.00078357
0.00077044
0.000752787
0.000765921
0.00076535
0.000752782
0.000752782
0.000765913
0.000765913
0.000752787
0.000765921
0.000770523
0.000783516
0.000781452
0.000772605
0.000770477
0.000772627
0.000783468
0.00077044
0.000783563
0.000770441
0.000783551
0.000770523
0.000781452
0.000783516
0.000772605
0.000772627
0.000770477
0.000783468
0.000765902
0.000752788
0.000765914
0.000752786
0.000765819
0.000763779
0.000752824
0.000754972
0.000765867
0.0007638
0.000752869
0.000765902
0.000752788
0.000765914
0.000752786
0.000765819
0.000763779
0.000754972
0.000752824
0.0007638
0.000765867
0.000752869
0.00077044
0.000783563
0.000770442
0.000783551
0.000770523
0.000781452
0.000783516
0.000772605
0.000772626
0.000770477
0.000783468
0.00077044
0.000783563
0.000770441
0.000783551
0.000765819
0.000763778
0.000752824
0.000754971
0.000765867
0.0007638
0.000752869
0.000765902
0.000752788
0.000765914
0.000752787
0.000765819
0.000763778
0.000754972
0.000752824
0.0007638
0.000765867
0.000752869
0.000765902
0.000752788
0.000765914
0.000752786
0.000783563
0.000783563
0.000770994
0.000770435
0.000770435
0.00078357
0.00077044
0.000752787
0.000765921
0.000765351
0.000752782
0.000752782
0.000765914
0.000765914
0.000752787
0.000765921
0.000770524
0.000781452
0.000783516
0.000772605
0.000772627
0.000770477
0.000783468
0.00077044
0.000783563
0.000770441
0.000783551
0.000770441
0.000783563
0.000770442
0.000783551
0.000765819
0.000763779
0.000754971
0.000752824
0.0007638
0.000765867
0.00075287
0.000765819
0.000763778
0.000754972
0.000752824
0.0007638
0.000765867
0.00075287
0.000765902
0.000752788
0.000765914
0.000752787
0.000765901
0.000752788
0.000765914
0.000752787
0.00078357
0.00077044
0.00078357
0.00077044
0.000765351
0.000752782
0.000752782
0.000765914
0.000765914
0.000752787
0.000765921
0.000752787
0.000765921
0.000748267
0.000748267
0.000748259
0.000748259
0.000748259
0.000748247
0.000748212
0.000746142
0.000748164
0.000748211
0.000746142
0.000748164
0.000748258
0.000748259
0.000748267
0.000748212
0.000746142
0.000748164
0.00074826
0.000748248
0.000746142
0.000748212
0.000748164
0.000735128
0.000748259
0.000748247
0.000735209
0.000746142
0.000748212
0.000737291
0.000748164
0.000737311
0.000735165
0.000735127
0.000748259
0.000748247
0.000735129
0.000748259
0.000748259
0.000748267
0.00073521
0.000746142
0.000748212
0.000737292
0.000748164
0.000737311
0.000735165
0.000735128
0.00074826
0.000748247
0.000735128
0.00074826
0.000748247
0.00073513
0.000748267
0.000735128
0.000748267
0.000735129
0.000774749
0.000770433
0.000770438
0.000774727
0.000774747
0.00077473
0.000770433
0.000779262
0.000779266
0.000783567
0.000779253
0.000783575
0.000774751
0.000770429
0.000774739
0.000774743
0.000770437
0.000779258
0.000779264
0.000783571
0.000783554
0.000779258
0.000779263
0.000783573
0.000779265
0.000774746
0.000774749
0.000770438
0.000770433
0.000774727
0.00077473
0.000774747
0.000770433
0.000779262
0.000779266
0.000783567
0.000779253
0.000783575
0.000774751
0.000770429
0.000774739
0.000774744
0.000770438
0.000779258
0.000779264
0.000783554
0.000783571
0.000779263
0.000779258
0.000783573
0.000779265
0.000774746
0.000774753
0.000770436
0.000770436
0.000774756
0.000774756
0.000770427
0.000779283
0.000783507
0.00077926
0.000783566
0.000779314
0.000779268
0.00078354
0.000779283
0.000783507
0.000779259
0.000783566
0.000779314
0.000779268
0.00078354
0.000774716
0.000770443
0.000774739
0.000770489
0.000774682
0.000774742
0.000770459
0.000774716
0.000770443
0.000774739
0.000770489
0.000774682
0.000774742
0.000770458
0.000779251
0.00078358
0.00078358
0.00077926
0.000779261
0.000783577
0.000743956
0.000748264
0.00074396
0.000748271
0.000743947
0.000743952
0.000743957
0.000748267
0.00074825
0.00074827
0.000743952
0.000743956
0.000743958
0.000743956
0.000748264
0.00074396
0.000748271
0.000743947
0.000743952
0.000743957
0.000748251
0.000748268
0.00074827
0.000743956
0.000743951
0.000743958
0.000739444
0.000735124
0.000735124
0.000739447
0.000739447
0.000735114
0.000743976
0.000748202
0.000748262
0.000743953
0.000748236
0.000744006
0.000743961
0.000743976
0.000748203
0.000748262
0.000743953
0.000748236
0.000744006
0.000743961
0.000743945
0.000748276
0.000748277
0.000748273
0.000743954
0.000743954
0.000739406
0.000735131
0.000739429
0.000735176
0.000739372
0.000739433
0.000735146
0.000739406
0.000735131
0.00073943
0.000735176
0.000739373
0.000739433
0.000735146
0.000779265
0.000774746
0.000779265
0.000774746
0.000774753
0.000770436
0.000770436
0.000774756
0.000774756
0.000770427
0.000779283
0.000783506
0.00077926
0.000783566
0.000779267
0.000779314
0.000783539
0.000779283
0.000783506
0.00077926
0.000783566
0.000779268
0.000779314
0.000783539
0.000774715
0.000770443
0.000774739
0.000770489
0.000774742
0.000770459
0.000774682
0.000774715
0.000770443
0.000774739
0.000770489
0.000774742
0.000770459
0.000774682
0.000779251
0.00078358
0.00078358
0.00077926
0.00077926
0.000783577
0.000757095
0.000761614
0.000757095
0.000761614
0.000761601
0.000765931
0.000765931
0.000765928
0.00076161
0.00076161
0.000757063
0.000752835
0.000757087
0.00075279
0.00075709
0.00075703
0.000752805
0.000757063
0.000752835
0.000757087
0.00075279
0.00075709
0.00075703
0.000752805
0.000761633
0.000765917
0.000765857
0.000761609
0.00076589
0.000761617
0.000761663
0.000761633
0.000765917
0.000765857
0.000761609
0.00076589
0.000761617
0.000761663
0.000757101
0.000752783
0.000752783
0.000757104
0.000757105
0.000752773
0.000774749
0.000770433
0.000770438
0.000774727
0.000774747
0.00077473
0.000770433
0.000779262
0.000779266
0.000783567
0.000779253
0.000783575
0.000774751
0.000770429
0.000774739
0.000774743
0.000770437
0.000779258
0.000779264
0.000783571
0.000783554
0.000779258
0.000779263
0.000783573
0.000761607
0.000765922
0.000765905
0.000761614
0.000765924
0.000761607
0.000761612
0.000757099
0.000757087
0.000752776
0.000752784
0.000757092
0.000761611
0.000765918
0.000761615
0.000765925
0.000761603
0.000757097
0.000757075
0.00075278
0.000752785
0.00075278
0.000757095
0.000757079
0.000761607
0.000765922
0.000765905
0.000761614
0.000765924
0.000761607
0.000761612
0.000757099
0.000757087
0.000752775
0.000757092
0.000752784
0.000761611
0.000765918
0.000761616
0.000765926
0.000761603
0.000757097
0.000757076
0.00075278
0.000752785
0.000757095
0.000757079
0.00075278
0.000774753
0.000770436
0.000770436
0.000774756
0.000774756
0.000770427
0.000779283
0.000783506
0.00077926
0.000783566
0.000779268
0.000779314
0.000783539
0.000779283
0.000783506
0.00077926
0.000783566
0.000779314
0.000779268
0.000783539
0.000774715
0.000770443
0.000774738
0.000770489
0.000774742
0.000774682
0.000770458
0.000774715
0.000770443
0.000774739
0.000770489
0.000774682
0.000774742
0.000770459
0.000779251
0.00078358
0.00078358
0.00077926
0.00077926
0.000783577
0.000779265
0.000774746
0.000757094
0.000761614
0.000761601
0.000765931
0.000765931
0.000765928
0.00076161
0.00076161
0.000757064
0.000752835
0.000757087
0.00075279
0.00075703
0.00075709
0.000752805
0.000757063
0.000752835
0.000757087
0.00075279
0.00075709
0.00075703
0.000752805
0.000761632
0.000765917
0.000765857
0.000761609
0.000761663
0.00076589
0.000761617
0.000761633
0.000765917
0.000765857
0.000761609
0.00076589
0.000761617
0.000761663
0.000757101
0.000752783
0.000752782
0.000757104
0.000757104
0.000752773
0.000757095
0.000761615
0.000774749
0.000770433
0.000770438
0.000774727
0.000774747
0.000774731
0.000770433
0.000779262
0.000779266
0.000783567
0.000779253
0.000783575
0.000774751
0.000770429
0.000774739
0.000774744
0.000770437
0.000779258
0.000779264
0.000783571
0.000783554
0.000779258
0.000779263
0.000783573
0.000761607
0.000765905
0.000765922
0.000761614
0.000765924
0.000761612
0.000761607
0.000757099
0.000757087
0.000752776
0.000752784
0.000757092
0.000761612
0.000765918
0.000761615
0.000765926
0.000761603
0.000757097
0.000757076
0.000752785
0.00075278
0.00075278
0.000757079
0.000757096
0.000761607
0.000765922
0.000765905
0.000761614
0.000765924
0.000761607
0.000761612
0.000757099
0.000757087
0.000752775
0.000757092
0.000752784
0.000761611
0.000765918
0.000761615
0.000765926
0.000761603
0.000757097
0.000757076
0.00075278
0.000752785
0.000757095
0.000757079
0.00075278
0.000774749
0.000770439
0.000770433
0.000774727
0.00077473
0.000774747
0.000770434
0.000779262
0.000779266
0.000783567
0.000779254
0.000783575
0.000774751
0.000770429
0.000774739
0.000774743
0.000770437
0.000779258
0.000779265
0.000783553
0.000783571
0.000779264
0.000779258
0.000783573
0.000774749
0.000770433
0.000770438
0.000774727
0.000774747
0.00077473
0.000770434
0.000779262
0.000779266
0.000783567
0.000779253
0.000783575
0.000774751
0.000770429
0.000774739
0.000774744
0.000770438
0.000779258
0.000779264
0.000783571
0.000783554
0.000779258
0.000779263
0.000783573
0.000761608
0.000765904
0.000765922
0.000761614
0.000765924
0.000761613
0.000761607
0.000757099
0.000757087
0.000752776
0.000757091
0.000752784
0.000761612
0.000765918
0.000761616
0.000765926
0.000761603
0.000757097
0.000757075
0.000752786
0.00075278
0.000757078
0.000757095
0.00075278
0.000761607
0.000765922
0.000765905
0.000761614
0.000765924
0.000761607
0.000761612
0.000757099
0.000757087
0.000752775
0.000757092
0.000752784
0.000761612
0.000765918
0.000761615
0.000765926
0.000761603
0.000757097
0.000757075
0.00075278
0.000752785
0.000757096
0.000757079
0.00075278
0.000774753
0.000770436
0.000770436
0.000774756
0.000774757
0.000770427
0.000779283
0.000783507
0.000779259
0.000783566
0.000779267
0.000779313
0.00078354
0.000779283
0.000783507
0.00077926
0.000783566
0.000779314
0.000779267
0.00078354
0.000774716
0.000770443
0.000774739
0.000770489
0.000774742
0.000774683
0.000770458
0.000774716
0.000770443
0.000774739
0.000770489
0.000774682
0.000774742
0.000770458
0.000779251
0.00078358
0.00078358
0.00077926
0.00077926
0.000783577
0.000779265
0.000774746
0.000757095
0.000761614
0.000761601
0.000765931
0.000765931
0.000765928
0.00076161
0.00076161
0.000757064
0.000752835
0.000757087
0.00075279
0.000757031
0.00075709
0.000752805
0.000757064
0.000752835
0.000757087
0.00075279
0.00075709
0.00075703
0.000752805
0.000761632
0.000765917
0.000765858
0.000761609
0.000761662
0.000765891
0.000761617
0.000761632
0.000765917
0.000765857
0.000761609
0.000765891
0.000761617
0.000761663
0.000757101
0.000752782
0.000752782
0.000757105
0.000757105
0.000752773
0.000757095
0.000761614
0.000774749
0.000770438
0.000770433
0.000774727
0.000774731
0.000774747
0.000770433
0.000779262
0.000779266
0.000783567
0.000779253
0.000783575
0.000774751
0.000770429
0.000774739
0.000774744
0.000770437
0.000779258
0.000779265
0.000783554
0.000783571
0.000779263
0.000779258
0.000783573
0.000774749
0.000770439
0.000770433
0.000774727
0.00077473
0.000774747
0.000770433
0.000779262
0.000779266
0.000783567
0.000779253
0.000783575
0.000774751
0.000770429
0.000774739
0.000774743
0.000770437
0.000779258
0.000779265
0.000783554
0.000783571
0.000779263
0.000779258
0.000783573
0.000761608
0.000765905
0.000765922
0.000761614
0.000765924
0.000761612
0.000761608
0.000757099
0.000757088
0.000752775
0.000757092
0.000752784
0.000761612
0.000765918
0.000761616
0.000765926
0.000761603
0.000757098
0.000757075
0.000752785
0.00075278
0.000757079
0.000757095
0.00075278
0.000761608
0.000765905
0.000765922
0.000761615
0.000765924
0.000761613
0.000761608
0.000757099
0.000757087
0.000752776
0.000757092
0.000752785
0.000761612
0.000765918
0.000761616
0.000765926
0.000761603
0.000757098
0.000757075
0.000752786
0.000752781
0.000757078
0.000757095
0.000752781
0.000779265
0.000774747
0.000779265
0.000774746
0.000761601
0.000765931
0.000765931
0.000765928
0.00076161
0.00076161
0.000757063
0.000752835
0.000757087
0.00075279
0.000752805
0.00075703
0.00075709
0.000757064
0.000752836
0.000757087
0.00075279
0.000752805
0.00075703
0.00075709
0.000761632
0.000765917
0.000765857
0.000761609
0.00076589
0.000761663
0.000761617
0.000761632
0.000765917
0.000765857
0.000761609
0.000765891
0.000761663
0.000761617
0.000757101
0.000752783
0.000752783
0.000752773
0.000757104
0.000757104
0.000757095
0.000761614
0.000757095
0.000761615
0.000743959
0.000743959
0.000743977
0.000748202
0.000748262
0.000743953
0.000748235
0.000743961
0.000744007
0.000743977
0.000748202
0.000748262
0.000743953
0.000748235
0.000743961
0.000744007
0.000743945
0.000748276
0.000748276
0.000748273
0.000743954
0.000743954
0.000743956
0.000748264
0.00074396
0.000748271
0.000743947
0.000743952
0.000743957
0.000748267
0.00074825
0.000743952
0.000748269
0.000743956
0.000743976
0.000748202
0.000748262
0.000743953
0.000743961
0.000748236
0.000744006
0.000743977
0.000748202
0.000748262
0.000743953
0.000744007
0.000748235
0.000743961
0.000743945
0.000748276
0.000748277
0.000743954
0.000748273
0.000743954
0.000743955
0.000748264
0.000743959
0.000748271
0.000743947
0.000743951
0.000743957
0.000748267
0.000748251
0.000743951
0.00074827
0.000743956
0.00073944
0.000739417
0.000735121
0.00073942
0.000739438
0.000743955
0.000748263
0.00074396
0.000743947
0.000748271
0.000743952
0.000743958
0.00074825
0.000748267
0.000743957
0.000748269
0.000743951
0.000739442
0.00073944
0.000739418
0.000735121
0.000735126
0.000739438
0.000739421
0.000735121
0.000743956
0.000748264
0.000743959
0.000748271
0.000743947
0.000743952
0.000743957
0.000748267
0.000748251
0.000748269
0.000743951
0.000743956
0.000739441
0.000735117
0.00073943
0.000739434
0.000735125
0.000743976
0.000748203
0.000748262
0.000743953
0.000743961
0.000748236
0.000744006
0.000743976
0.000748202
0.000748262
0.000743953
0.000744006
0.000748236
0.000743961
0.000743945
0.000748277
0.000748277
0.000743954
0.000748273
0.000743954
0.000743958
0.00073944
0.000739418
0.000735126
0.000735122
0.000739421
0.000739438
0.000735122
0.000743956
0.000748264
0.00074396
0.000743947
0.000748271
0.000743952
0.000743958
0.000748251
0.000748268
0.000743956
0.00074827
0.000743952
0.000739442
0.000735117
0.000739434
0.000735126
0.00073944
0.000739417
0.000735126
0.000735122
0.000739421
0.000739438
0.000735122
0.000743955
0.000748264
0.00074396
0.000748271
0.000743947
0.000743951
0.000743958
0.00074825
0.000748267
0.000748269
0.000743957
0.000743952
0.000739442
0.000735117
0.00073943
0.000739434
0.000735126
0.000743958
0.000739437
0.000743959
0.000739437
0.000781522
0.000781522
0.000772662
0.000772696
0.000772696
0.000772744
0.00078157
0.000779386
0.000783278
0.000783279
0.000779819
0.00077956
0.000779559
0.000783438
0.000746209
0.000746209
0.000737424
0.000746256
0.000744078
0.000747972
0.000747975
0.00074451
0.000748134
0.000744251
0.000744252
0.000779386
0.000783278
0.000783279
0.000779819
0.00077956
0.000779559
0.000783438
0.000756962
0.000756523
0.000753081
0.00075308
0.000756801
0.000756802
0.000752907
0.000779386
0.000783277
0.000783278
0.000779819
0.00077956
0.00077956
0.000783438
0.000756962
0.000756523
0.00075308
0.00075308
0.000756801
0.000756801
0.000752907
0.000779386
0.000783278
0.000783279
0.000779819
0.00077956
0.00077956
0.000783439
0.000756962
0.000756523
0.000753081
0.00075308
0.000756801
0.000756801
0.000752907
0.000756962
0.000756523
0.000753081
0.000753081
0.000752907
0.0007568
0.000756801
0.000744078
0.000747972
0.000747973
0.00074451
0.000748134
0.000744252
0.000744251
0.000744078
0.000747972
0.000747972
0.00074451
0.000744251
0.000748133
0.000744251
0.000744078
0.000747972
0.000747973
0.00074451
0.000744251
0.000748134
0.000744252
0.000781522
0.000781522
0.000772662
0.000772696
0.000772696
0.000772744
0.00078157
0.000781522
0.000781522
0.000772662
0.000772696
0.000772696
0.000772744
0.00078157
0.000781522
0.000781522
0.000772662
0.000772696
0.000772696
0.000772744
0.00078157
0.000763835
0.00075504
0.00075504
0.000763868
0.000763869
0.000763916
0.000755087
0.000763835
0.000755039
0.00075504
0.000763868
0.000763868
0.000763916
0.000755087
0.000763835
0.00075504
0.000755039
0.000763869
0.000763868
0.000763916
0.000755087
0.000763834
0.00075504
0.000755039
0.000763868
0.000763869
0.000763916
0.000755087
0.000774414
0.00077052
0.00077076
0.000774644
0.000774648
0.000774417
0.000770765
0.000779551
0.000783368
0.000779302
0.000783486
0.000779464
0.000779329
0.000783266
0.000774442
0.000770505
0.000774692
0.000770639
0.000774544
0.000774662
0.000770726
0.00077959
0.000779348
0.000783472
0.000783242
0.000779345
0.000779586
0.000783239
0.000774414
0.000770761
0.00077052
0.000774644
0.000774417
0.000774648
0.000770765
0.00077955
0.000783369
0.000779302
0.000783487
0.000779464
0.000779329
0.000783266
0.000774442
0.000770504
0.000774692
0.000770639
0.000774545
0.000774663
0.000770725
0.00077959
0.000779348
0.000783241
0.000783472
0.000779586
0.000779345
0.000783239
0.000774614
0.000774177
0.000770735
0.000770734
0.000774453
0.000774454
0.000770561
0.000746209
0.000746209
0.000737377
0.000737425
0.000746256
0.000746209
0.000746209
0.000737377
0.000737424
0.000746256
0.000746209
0.00074621
0.000737345
0.000737376
0.000737378
0.000737424
0.000746256
0.000739103
0.000739334
0.000735207
0.000735446
0.000739338
0.000739105
0.000735451
0.000744242
0.000748063
0.000748182
0.000743995
0.00074796
0.000744157
0.000744022
0.000744281
0.00074404
0.000748168
0.000747935
0.000747933
0.000744037
0.000744277
0.000739103
0.000739334
0.000735446
0.000735207
0.000739105
0.000739338
0.000735451
0.000744242
0.000748064
0.000748183
0.000743995
0.000747961
0.000744156
0.000744021
0.000744282
0.00074404
0.000747935
0.000748168
0.000747933
0.000744277
0.000744037
0.000739131
0.000735191
0.000739353
0.000735411
0.000739304
0.000738864
0.00073542
0.000735421
0.00073914
0.000739145
0.000735248
0.000774614
0.000774177
0.000770735
0.000770734
0.000770561
0.000774454
0.000774454
0.000761735
0.000762167
0.000765628
0.000765629
0.000765789
0.000761908
0.000761908
0.000774414
0.00077052
0.00077076
0.000774644
0.000774648
0.000774417
0.000770765
0.000779551
0.000783369
0.000779302
0.000783486
0.000779329
0.000779464
0.000783266
0.000774442
0.000770504
0.000774692
0.000770639
0.000774663
0.000774545
0.000770726
0.00077959
0.000779348
0.000783472
0.000783241
0.000779345
0.000779586
0.000783239
0.000774414
0.00077052
0.000770761
0.000774644
0.000774648
0.000774417
0.000770765
0.000779551
0.000783368
0.000779303
0.000783486
0.000779329
0.000779464
0.000783265
0.000774441
0.000770504
0.000774692
0.000770639
0.000774663
0.000770726
0.000774544
0.00077959
0.000779348
0.000783472
0.000783241
0.000779345
0.000779586
0.000783238
0.000761939
0.000765823
0.000765591
0.000761697
0.000765589
0.000761694
0.000761934
0.000756789
0.000752985
0.00075704
0.000752851
0.000756893
0.00075701
0.000753071
0.000761899
0.000765837
0.000765719
0.000761651
0.000761813
0.000765616
0.000761678
0.000756761
0.000756992
0.000752866
0.000753106
0.000756996
0.000756764
0.000753111
0.000761939
0.000765823
0.000765591
0.000761697
0.000765588
0.000761694
0.000761934
0.000756789
0.000752986
0.00075704
0.000752851
0.000757011
0.000756892
0.000753072
0.0007619
0.000765837
0.000765718
0.000761652
0.000765615
0.000761678
0.000761813
0.000756761
0.000756992
0.000752866
0.000753106
0.000756996
0.000756764
0.000753111
0.000774614
0.000774177
0.000770735
0.000770735
0.000774454
0.000774453
0.000770561
0.000761735
0.000762167
0.000765627
0.000765628
0.000761909
0.000765788
0.000761908
0.000774414
0.00077052
0.000770761
0.000774644
0.000774648
0.000774417
0.000770766
0.000779551
0.000783369
0.000779302
0.000783487
0.000779329
0.000779464
0.000783266
0.000774442
0.000770504
0.000774692
0.000770639
0.000774663
0.000774545
0.000770726
0.000779591
0.000779348
0.000783472
0.000783241
0.000779345
0.000779586
0.000783238
0.000774414
0.000770761
0.00077052
0.000774644
0.000774417
0.000774649
0.000770765
0.00077955
0.00078337
0.000779302
0.000783487
0.000779329
0.000779463
0.000783267
0.000774442
0.000770504
0.000774692
0.000770639
0.000774663
0.000770725
0.000774546
0.00077959
0.000779348
0.000783241
0.000783472
0.000779586
0.000779344
0.000783239
0.000761939
0.000765823
0.000765591
0.000761697
0.000765588
0.000761694
0.000761934
0.000756789
0.000752985
0.00075704
0.000752851
0.000756892
0.000757011
0.000753072
0.0007619
0.000765837
0.000765719
0.000761651
0.000761813
0.000765616
0.000761678
0.000756761
0.000756992
0.000752866
0.000753106
0.000756996
0.000756764
0.000753111
0.000761939
0.000765591
0.000765823
0.000761697
0.000765589
0.000761934
0.000761693
0.000756789
0.000752985
0.00075704
0.00075285
0.000757011
0.000756893
0.000753071
0.000761899
0.000765838
0.00076572
0.000761651
0.000765617
0.000761678
0.000761812
0.000756762
0.000756992
0.000753106
0.000752866
0.000756764
0.000756997
0.000753111
0.000774415
0.00077076
0.00077052
0.000774644
0.000774417
0.000774648
0.000770765
0.00077955
0.00078337
0.000779302
0.000783487
0.000779463
0.000779329
0.000783267
0.000774442
0.000770504
0.000774692
0.000770639
0.000774545
0.000774663
0.000770725
0.00077959
0.000779348
0.000783242
0.000783472
0.000779585
0.000779345
0.000783239
0.000761939
0.000765823
0.000765591
0.000761697
0.000765589
0.000761694
0.000761934
0.000756789
0.000752986
0.00075704
0.000752851
0.000753071
0.000756892
0.000757011
0.000761899
0.000765837
0.000765719
0.000761651
0.000765616
0.000761813
0.000761679
0.000756762
0.000756992
0.000752866
0.000753106
0.000753111
0.000756996
0.000756764
0.000761938
0.000765591
0.000765823
0.000761697
0.000765589
0.000761934
0.000761694
0.000756789
0.000752985
0.00075704
0.000752851
0.00075701
0.000756893
0.000753071
0.000761899
0.000765838
0.000765721
0.000761651
0.000765617
0.000761678
0.000761812
0.000756762
0.000756992
0.000753106
0.000752866
0.000756764
0.000756996
0.000753111
0.000774614
0.000774177
0.000770735
0.000770735
0.000774454
0.000774453
0.000770561
0.000761734
0.000762167
0.000765628
0.000765628
0.000761908
0.000765789
0.000761908
0.000774414
0.000770761
0.00077052
0.000774644
0.000774417
0.000774648
0.000770765
0.000779551
0.000783369
0.000779302
0.000783487
0.000779464
0.000779329
0.000783266
0.000774442
0.000770504
0.000774692
0.000770639
0.000774545
0.000774662
0.000770725
0.00077959
0.000779348
0.000783241
0.000783472
0.000779586
0.000779345
0.000783238
0.000761939
0.000765591
0.000765823
0.000761697
0.000765589
0.000761934
0.000761694
0.000756789
0.000752985
0.00075704
0.000752851
0.000753071
0.000756893
0.000757011
0.000761899
0.000765838
0.000765719
0.000761651
0.000765616
0.000761813
0.000761678
0.000756761
0.000756992
0.000753106
0.000752866
0.000753111
0.000756764
0.000756996
0.000761939
0.000765591
0.000765823
0.000761697
0.000765588
0.000761934
0.000761694
0.000756789
0.000752986
0.00075704
0.000752851
0.000757011
0.000756892
0.000753072
0.000761899
0.000765837
0.000765719
0.000761651
0.000765616
0.000761678
0.000761813
0.000756761
0.000756992
0.000753106
0.000752867
0.000756764
0.000756996
0.000753111
0.000761734
0.000762167
0.000765628
0.000765629
0.000765789
0.000761908
0.000761908
0.000744242
0.000748064
0.000748182
0.000743996
0.000744022
0.00074796
0.000744157
0.000744282
0.00074404
0.000748168
0.000747935
0.000744037
0.000747933
0.000744277
0.000744243
0.000748063
0.000748182
0.000743996
0.00074796
0.000744022
0.000744157
0.000744282
0.00074404
0.000748168
0.000747935
0.000747932
0.000744037
0.000744277
0.000744243
0.000748064
0.000748183
0.000743995
0.000744022
0.000747961
0.000744157
0.000744282
0.00074404
0.000748168
0.000747935
0.000744037
0.000747933
0.000744277
0.000744242
0.000748065
0.000748183
0.000743995
0.000747961
0.000744021
0.000744156
0.000744282
0.00074404
0.000747935
0.000748168
0.000747933
0.000744277
0.000744037
0.000739103
0.000739334
0.000735446
0.000735206
0.000739105
0.000739338
0.000735451
0.000744242
0.000748066
0.000748183
0.000743995
0.000744157
0.000747962
0.000744021
0.000744282
0.00074404
0.000747936
0.000748168
0.000744277
0.000747934
0.000744037
0.000739131
0.000735191
0.000739382
0.000735326
0.000739235
0.000739352
0.000735411
0.000739103
0.000739334
0.000735446
0.000735207
0.000739105
0.000739338
0.000735451
0.000744243
0.000748065
0.000748183
0.000743995
0.000744157
0.000747961
0.000744022
0.000744282
0.00074404
0.000747935
0.000748168
0.000744277
0.000747933
0.000744038
0.000739131
0.000735192
0.000739383
0.000735326
0.000739234
0.000739353
0.000735412
0.00167478
0.00167313
0.00167478
0.00167244
0.00167251
0.00167244
0.00167245
0.00167245
0.00167244
0.00167251
0.00167244
0.00167681
0.0016768
0.00167244
0.00167681
0.00167243
0.0016768
0.00167679
0.00167253
0.0016768
0.00167245
0.00167677
0.0016768
0.00167248
0.00167679
0.00167253
0.0016768
0.00167245
0.0016768
0.00167677
0.00167248
0.00167682
0.00167243
0.00167243
0.00167681
0.00167681
0.00167243
0.0016768
0.00167681
0.0016768
0.00167244
0.00167681
0.00167243
0.00167669
0.00167635
0.00167283
0.00167283
0.00167656
0.00167656
0.00167264
0.00167657
0.00167268
0.00167676
0.00167256
0.00167675
0.00167663
0.00167281
0.00167657
0.00167268
0.00167676
0.00167256
0.00167663
0.00167675
0.00167281
0.00166589
0.00166582
0.00166582
0.00166739
0.00163008
0.00163
0.00163
0.00163157
0.00159434
0.00159426
0.00159426
0.00159582
0.00155866
0.00155858
0.00155858
0.00156014
0.00152304
0.00152295
0.00152295
0.00152452
0.00148748
0.00148739
0.00148739
0.00148895
0.00145197
0.00145187
0.00145187
0.00145343
0.0014165
0.00141641
0.00141641
0.00141796
0.00138108
0.00138098
0.00138098
0.00138254
0.00134569
0.00134559
0.00134559
0.00134715
0.00131034
0.00131023
0.00131023
0.00131179
0.00127502
0.00127491
0.00127491
0.00127647
0.00123971
0.00123961
0.00123961
0.00124117
0.00120443
0.00120434
0.00120434
0.0012059
0.00116918
0.00116908
0.00116908
0.00117064
0.00113393
0.00113384
0.00113384
0.0011354
0.00109869
0.00109861
0.00109861
0.00110017
0.00106347
0.00106339
0.00106339
0.00106494
0.00102824
0.00102816
0.00102816
0.00102972
0.000993018
0.000992943
0.000992943
0.000994503
0.00095779
0.000957717
0.000957717
0.000959279
0.000922555
0.000922485
0.000922485
0.000924048
0.00088731
0.000887244
0.000887244
0.000888808
0.000852052
0.000851989
0.000851989
0.000853556
0.000816779
0.000816719
0.000816719
0.000818288
0.00166739
0.0016373
0.00166582
0.00166582
0.00163895
0.00163895
0.00166739
0.0016373