/*--------------------------------*- C++ -*----------------------------------*\
| =========                 |                                                 |
| \\      /  F ield         | OpenFOAM: The Open Source CFD Toolbox           |
|  \\    /   O peration     | Version:  2312                                  |
|   \\  /    A nd           | Website:  www.openfoam.com                      |
|    \\/     M anipulation  |                                                 |
\*---------------------------------------------------------------------------*/
FoamFile
{
    version     2.0;
    format      ascii;
    arch        "LSB;label=32;scalar=64";
    class       volScalarField;
    location    "250";
    object      epsilon;
}
// * * * * * * * * * * * * * * * * * * * * * * * * * * * * * * * * * * * * * //

dimensions      [0 2 -3 0 0 0 0];

internalField   nonuniform List<scalar> 
42840
(
1.31327e-07
2.40757e-07
2.40787e-07
3.83411e-07
1.29948e-07
2.53409e-07
2.53441e-07
4.12515e-07
1.29349e-07
2.68088e-07
2.68129e-07
4.43627e-07
1.29534e-07
2.8473e-07
2.84775e-07
4.77318e-07
1.30478e-07
3.03246e-07
3.03301e-07
5.12312e-07
1.32183e-07
3.2354e-07
3.23606e-07
5.48573e-07
1.34649e-07
3.45491e-07
3.45567e-07
5.86072e-07
1.37877e-07
3.6896e-07
3.69045e-07
6.24415e-07
1.41866e-07
3.93797e-07
3.93887e-07
6.61909e-07
1.46623e-07
4.19848e-07
4.19944e-07
6.99447e-07
1.52152e-07
4.46947e-07
4.47037e-07
7.36445e-07
1.58458e-07
4.74927e-07
4.75008e-07
7.72519e-07
1.65546e-07
5.03614e-07
5.03692e-07
8.07202e-07
1.73416e-07
5.32828e-07
5.32906e-07
8.41051e-07
1.8207e-07
5.62385e-07
5.62473e-07
8.73731e-07
1.91502e-07
5.92119e-07
5.92213e-07
9.05014e-07
2.01699e-07
6.21852e-07
6.21957e-07
9.35175e-07
2.12645e-07
6.51445e-07
6.51557e-07
9.6412e-07
2.24316e-07
6.80751e-07
6.80872e-07
9.91967e-07
2.36686e-07
7.0967e-07
7.09798e-07
1.01842e-06
2.49727e-07
7.38125e-07
7.38257e-07
1.04292e-06
2.63405e-07
7.66048e-07
7.66191e-07
1.06758e-06
2.77678e-07
7.93402e-07
7.93546e-07
1.09131e-06
2.92494e-07
8.20152e-07
8.20286e-07
1.11434e-06
3.07789e-07
8.46249e-07
8.46356e-07
1.1367e-06
3.84218e-07
4.05113e-07
2.40835e-07
2.40875e-07
2.50126e-07
2.50168e-07
3.84093e-07
4.04978e-07
2.40793e-07
2.40891e-07
2.50081e-07
2.50198e-07
2.40832e-07
2.50033e-07
2.50133e-07
3.84336e-07
4.05138e-07
2.40819e-07
2.50064e-07
2.50119e-07
4.06279e-07
4.12601e-07
4.36501e-07
2.53492e-07
2.53532e-07
2.6431e-07
2.64354e-07
4.1291e-07
4.36509e-07
2.53447e-07
2.53558e-07
2.64259e-07
2.64391e-07
2.53494e-07
2.64205e-07
2.64316e-07
4.13094e-07
4.36616e-07
2.53481e-07
2.64245e-07
2.64305e-07
4.3688e-07
4.44146e-07
4.68763e-07
2.68179e-07
2.68221e-07
2.80482e-07
2.80523e-07
4.44105e-07
4.68952e-07
2.68127e-07
2.68257e-07
2.8042e-07
2.80565e-07
2.68184e-07
2.80358e-07
2.80485e-07
4.4426e-07
4.6914e-07
2.68168e-07
2.80402e-07
2.80467e-07
4.70129e-07
4.77787e-07
5.05259e-07
2.84835e-07
2.84875e-07
2.9855e-07
2.98598e-07
4.7792e-07
5.03887e-07
2.84773e-07
2.84916e-07
2.98489e-07
2.98641e-07
2.84836e-07
2.98412e-07
2.98551e-07
4.77793e-07
5.03894e-07
2.84817e-07
2.98464e-07
2.9853e-07
5.04775e-07
5.1236e-07
5.41027e-07
3.03367e-07
3.0341e-07
3.18423e-07
3.18468e-07
5.13091e-07
5.40136e-07
3.03303e-07
3.03451e-07
3.18351e-07
3.18515e-07
3.03367e-07
3.18265e-07
3.18426e-07
5.13195e-07
5.40385e-07
3.03345e-07
3.18329e-07
3.184e-07
5.41041e-07
5.48892e-07
5.78026e-07
3.23675e-07
3.23715e-07
3.39979e-07
3.40024e-07
5.4928e-07
5.7727e-07
3.23601e-07
3.23759e-07
3.39895e-07
3.40073e-07
3.23672e-07
3.39804e-07
3.3998e-07
5.49494e-07
5.7762e-07
3.23641e-07
3.39883e-07
3.3995e-07
5.77795e-07
5.85841e-07
6.15435e-07
3.45634e-07
3.45671e-07
3.6309e-07
3.63125e-07
5.8678e-07
6.14297e-07
3.45546e-07
3.45721e-07
3.62993e-07
3.63182e-07
3.45629e-07
3.629e-07
3.6309e-07
5.86674e-07
6.148e-07
3.45591e-07
3.62986e-07
3.63053e-07
6.15101e-07
6.23809e-07
6.52889e-07
3.6911e-07
3.69139e-07
3.87599e-07
3.87641e-07
6.24388e-07
6.5227e-07
3.69014e-07
3.69197e-07
3.87497e-07
3.87703e-07
3.69108e-07
3.87405e-07
3.87605e-07
6.24203e-07
6.52513e-07
3.69065e-07
3.87496e-07
3.87557e-07
6.52222e-07
6.61346e-07
6.90318e-07
3.93948e-07
3.9398e-07
4.13363e-07
4.13399e-07
6.61714e-07
6.89505e-07
3.93848e-07
3.94045e-07
4.13249e-07
4.1347e-07
3.93952e-07
4.13159e-07
4.13374e-07
6.61841e-07
6.89947e-07
3.93898e-07
4.13254e-07
4.13316e-07
6.89272e-07
6.98438e-07
7.27287e-07
4.20002e-07
4.20033e-07
4.40211e-07
4.40252e-07
6.98852e-07
7.27102e-07
4.19889e-07
4.20103e-07
4.40086e-07
4.40321e-07
4.20014e-07
4.4e-07
4.40234e-07
6.9914e-07
7.26591e-07
4.19949e-07
4.40094e-07
4.40164e-07
7.25762e-07
7.34966e-07
7.63389e-07
4.47103e-07
4.47136e-07
4.67995e-07
4.68027e-07
7.35316e-07
7.63366e-07
4.4698e-07
4.47205e-07
4.6785e-07
4.68093e-07
4.47128e-07
4.67767e-07
4.68014e-07
7.35634e-07
7.62293e-07
4.47052e-07
4.6785e-07
4.67936e-07
7.61518e-07
7.70851e-07
7.98489e-07
4.75093e-07
4.75117e-07
4.96519e-07
4.96554e-07
7.70851e-07
7.98504e-07
4.74952e-07
4.75182e-07
4.96363e-07
4.96613e-07
4.75119e-07
4.96289e-07
4.96542e-07
7.71364e-07
7.96499e-07
4.75031e-07
4.96367e-07
4.96451e-07
7.9644e-07
8.05776e-07
8.3239e-07
5.03779e-07
5.03804e-07
5.25613e-07
5.25648e-07
8.05791e-07
8.32461e-07
5.03631e-07
5.03863e-07
5.25456e-07
5.25707e-07
5.03809e-07
5.25387e-07
5.25636e-07
8.07181e-07
8.30752e-07
5.03707e-07
5.25464e-07
5.25529e-07
8.30311e-07
8.39558e-07
8.65217e-07
5.32992e-07
5.33017e-07
5.55103e-07
5.55133e-07
8.39566e-07
8.65207e-07
5.3284e-07
5.33074e-07
5.54942e-07
5.5519e-07
5.33021e-07
5.54873e-07
5.55127e-07
8.4119e-07
8.63544e-07
5.32906e-07
5.54958e-07
5.55013e-07
8.63221e-07
8.72116e-07
8.96759e-07
5.62557e-07
5.62576e-07
5.84814e-07
5.84835e-07
8.72113e-07
8.9672e-07
5.624e-07
5.62629e-07
5.84644e-07
5.84893e-07
5.62587e-07
5.84576e-07
5.84839e-07
8.73784e-07
8.95098e-07
5.62465e-07
5.8467e-07
5.84717e-07
8.94748e-07
9.03483e-07
9.27071e-07
5.92297e-07
5.92307e-07
6.14567e-07
6.14582e-07
9.03457e-07
9.26987e-07
5.9213e-07
5.92362e-07
6.14391e-07
6.14639e-07
5.92328e-07
6.14324e-07
6.14601e-07
9.05123e-07
9.25428e-07
5.92202e-07
6.14428e-07
6.14474e-07
9.25132e-07
9.33635e-07
9.561e-07
6.22042e-07
6.22039e-07
6.44212e-07
6.44215e-07
9.33543e-07
9.56109e-07
6.21869e-07
6.22098e-07
6.44035e-07
6.44278e-07
6.22083e-07
6.43965e-07
6.44255e-07
9.35208e-07
9.54626e-07
6.2195e-07
6.44077e-07
6.44118e-07
9.54273e-07
9.62441e-07
9.83084e-07
6.51636e-07
6.51621e-07
6.73603e-07
6.73595e-07
9.62458e-07
9.83259e-07
6.51454e-07
6.51692e-07
6.73417e-07
6.73663e-07
6.51689e-07
6.73352e-07
6.73663e-07
9.64055e-07
9.8334e-07
6.51542e-07
6.73475e-07
6.7351e-07
9.82353e-07
9.90412e-07
1.00995e-06
6.80943e-07
6.80916e-07
7.02622e-07
7.02608e-07
9.9033e-07
1.01007e-06
6.80749e-07
6.80988e-07
7.0243e-07
7.02684e-07
6.81015e-07
7.0237e-07
7.02703e-07
9.90629e-07
1.01004e-06
6.80849e-07
7.02502e-07
7.02538e-07
1.0092e-06
1.017e-06
1.03582e-06
7.09849e-07
7.09815e-07
7.31197e-07
7.31181e-07
1.01695e-06
1.03582e-06
7.09652e-07
7.09903e-07
7.31001e-07
7.31265e-07
7.0994e-07
7.30945e-07
7.31285e-07
1.01724e-06
1.03588e-06
7.09767e-07
7.31079e-07
7.31121e-07
1.03591e-06
1.04263e-06
1.06067e-06
7.3829e-07
7.38249e-07
7.59264e-07
7.59241e-07
1.04261e-06
1.06073e-06
7.38087e-07
7.38346e-07
7.59058e-07
7.59329e-07
7.3838e-07
7.59007e-07
7.59346e-07
1.04286e-06
1.06089e-06
7.38209e-07
7.5915e-07
7.59189e-07
1.06087e-06
1.06734e-06
1.08472e-06
7.66203e-07
7.66155e-07
7.8678e-07
7.86749e-07
1.06733e-06
1.08479e-06
7.65992e-07
7.66256e-07
7.86563e-07
7.86829e-07
7.66286e-07
7.86519e-07
7.86839e-07
1.06748e-06
1.08488e-06
7.66124e-07
7.86665e-07
7.86692e-07
1.08494e-06
1.09125e-06
1.10796e-06
7.93548e-07
7.93493e-07
8.13705e-07
8.13675e-07
1.09121e-06
1.10789e-06
7.93325e-07
7.9358e-07
8.13475e-07
8.13726e-07
7.93605e-07
8.13452e-07
8.13734e-07
1.09136e-06
1.10819e-06
7.93455e-07
8.1359e-07
8.13603e-07
1.10816e-06
1.1143e-06
1.1304e-06
8.20281e-07
8.20234e-07
8.39998e-07
8.39966e-07
1.11437e-06
1.13037e-06
8.20047e-07
8.20289e-07
8.39752e-07
8.39982e-07
8.20312e-07
8.39759e-07
8.40005e-07
1.11437e-06
1.1305e-06
8.20177e-07
8.3988e-07
8.39885e-07
1.13062e-06
1.13661e-06
8.4636e-07
8.46325e-07
1.13672e-06
8.46114e-07
8.46334e-07
8.46373e-07
1.13675e-06
8.4625e-07
3.75856e-06
8.92063e-06
8.92552e-06
3.73517e-06
1.84404e-05
1.84332e-05
3.75904e-06
8.92194e-06
8.92687e-06
3.73498e-06
1.3133e-07
1.31336e-07
1.31336e-07
1.30228e-07
1.30228e-07
1.30236e-07
1.30238e-07
1.24179e-06
2.86819e-06
1.5958e-07
2.43712e-07
2.89024e-06
1.60125e-07
1.21435e-06
1.84412e-05
1.84339e-05
1.2416e-06
1.59609e-07
2.86937e-06
2.4374e-07
1.6013e-07
2.88881e-06
1.21473e-06
5.17137e-06
5.17167e-06
3.91511e-07
5.17883e-06
5.18152e-06
3.81862e-06
8.93049e-06
3.80025e-06
8.93483e-06
1.84137e-05
1.84072e-05
3.81875e-06
8.93181e-06
3.80016e-06
8.93618e-06
1.2995e-07
1.29958e-07
1.29959e-07
1.29441e-07
1.29441e-07
1.29452e-07
1.29454e-07
1.32265e-06
2.92997e-06
1.62236e-07
2.56869e-07
1.29631e-06
2.94943e-06
1.63113e-07
1.84144e-05
1.84079e-05
1.32236e-06
1.6227e-07
2.93108e-06
2.56901e-07
1.29667e-06
1.63121e-07
2.94811e-06
5.19931e-06
5.20038e-06
4.21212e-07
5.20634e-06
5.2081e-06
3.86389e-06
8.93908e-06
3.85093e-06
8.94296e-06
1.83893e-05
1.83836e-05
3.86458e-06
8.94047e-06
3.85036e-06
8.94416e-06
1.2935e-07
1.29361e-07
1.29362e-07
1.29419e-07
1.2942e-07
1.29434e-07
1.29432e-07
1.3983e-06
2.98443e-06
1.66235e-07
2.72042e-07
1.37426e-06
3.00158e-06
1.67448e-07
1.83901e-05
1.83844e-05
1.39844e-06
1.66279e-07
2.98558e-06
2.7208e-07
1.37439e-06
1.67464e-07
3.0003e-06
5.22295e-06
5.22443e-06
4.53551e-07
5.2286e-06
5.23069e-06
3.8987e-06
8.94664e-06
3.88911e-06
8.95e-06
1.83674e-05
1.83625e-05
3.89937e-06
8.948e-06
3.88855e-06
8.95136e-06
1.29536e-07
1.2955e-07
1.2955e-07
1.30166e-07
1.30162e-07
1.30179e-07
1.30183e-07
1.46876e-06
3.03278e-06
1.71594e-07
2.89155e-07
1.44668e-06
3.04599e-06
1.73142e-07
1.83681e-05
1.83631e-05
1.46889e-06
1.71651e-07
3.03353e-06
2.89202e-07
1.44679e-06
1.7317e-07
3.0463e-06
5.24281e-06
5.24387e-06
4.87182e-07
5.24779e-06
5.24945e-06
3.92514e-06
8.9532e-06
3.91805e-06
8.95615e-06
1.83476e-05
1.83434e-05
3.9258e-06
8.9546e-06
3.91754e-06
8.95755e-06
1.30479e-07
1.30496e-07
1.30493e-07
1.3168e-07
1.31673e-07
1.31694e-07
1.31699e-07
1.53311e-06
3.07583e-06
1.78318e-07
3.0812e-07
1.51315e-06
3.08681e-06
1.80205e-07
1.83482e-05
1.8344e-05
1.53335e-06
1.78389e-07
3.07578e-06
3.08178e-07
1.51326e-06
1.80245e-07
3.08686e-06
5.25985e-06
5.26107e-06
5.22708e-07
5.26374e-06
5.26561e-06
3.94534e-06
8.95914e-06
3.94013e-06
8.9618e-06
1.83299e-05
1.83264e-05
3.94523e-06
8.96058e-06
3.93975e-06
8.9631e-06
1.32182e-07
1.32204e-07
1.32199e-07
1.33953e-07
1.33944e-07
1.33969e-07
1.33973e-07
1.59166e-06
3.11325e-06
1.86413e-07
3.28833e-07
1.5731e-06
3.12281e-06
1.88641e-07
1.83305e-05
1.83271e-05
1.59194e-06
1.86499e-07
3.11228e-06
3.28904e-07
1.57326e-06
1.88691e-07
3.12394e-06
5.27438e-06
5.27569e-06
5.59514e-07
5.27774e-06
5.27958e-06
3.96104e-06
8.96478e-06
3.95718e-06
8.96714e-06
1.83143e-05
1.83117e-05
3.96107e-06
8.96616e-06
3.95723e-06
8.96843e-06
1.34647e-07
1.34672e-07
1.34665e-07
1.36984e-07
1.36974e-07
1.37003e-07
1.37006e-07
1.64389e-06
3.14653e-06
1.95871e-07
3.51166e-07
1.62741e-06
3.15488e-06
1.98433e-07
1.8315e-05
1.83123e-05
1.64401e-06
1.95971e-07
3.14549e-06
3.51251e-07
1.62744e-06
1.98495e-07
3.15604e-06
5.28704e-06
5.28849e-06
5.9579e-07
5.2901e-06
5.29177e-06
3.9736e-06
8.97017e-06
3.97057e-06
8.97247e-06
1.8301e-05
1.82992e-05
3.9735e-06
8.97153e-06
3.97037e-06
8.97383e-06
1.37874e-07
1.37902e-07
1.37892e-07
1.40777e-07
1.40767e-07
1.40799e-07
1.40801e-07
1.69056e-06
3.17631e-06
2.06676e-07
3.74987e-07
1.6762e-06
3.18367e-06
2.09563e-07
1.83017e-05
1.82999e-05
1.69061e-06
2.06784e-07
3.17535e-06
3.75076e-07
1.6762e-06
2.09634e-07
3.1848e-06
5.29831e-06
5.29989e-06
6.33541e-07
5.30108e-06
5.30281e-06
3.9837e-06
8.97562e-06
3.98102e-06
8.97803e-06
1.829e-05
1.8289e-05
3.98362e-06
8.97702e-06
3.98112e-06
8.97942e-06
1.41863e-07
1.41896e-07
1.41882e-07
1.45335e-07
1.45325e-07
1.45361e-07
1.45361e-07
1.73246e-06
3.20293e-06
2.18801e-07
4.00136e-07
1.71962e-06
3.21056e-06
2.22004e-07
1.82907e-05
1.82897e-05
1.73279e-06
2.18916e-07
3.20225e-06
4.00233e-07
1.71938e-06
2.22079e-07
3.2108e-06
5.30864e-06
5.31027e-06
6.70836e-07
5.31121e-06
5.31294e-06
3.99204e-06
8.98137e-06
3.98993e-06
8.98397e-06
1.82814e-05
1.82812e-05
3.99203e-06
8.98275e-06
3.98994e-06
8.98532e-06
1.46621e-07
1.46657e-07
1.46641e-07
1.50662e-07
1.50654e-07
1.50692e-07
1.50692e-07
1.77003e-06
3.22676e-06
2.32204e-07
4.26453e-07
1.75847e-06
3.23449e-06
2.35714e-07
1.82822e-05
1.8282e-05
1.77025e-06
2.32329e-07
3.22673e-06
4.2655e-07
1.75828e-06
2.35792e-07
3.2345e-06
5.31828e-06
5.31995e-06
7.07508e-07
5.32074e-06
5.32246e-06
3.99929e-06
8.98737e-06
3.99749e-06
8.99051e-06
1.82751e-05
1.82758e-05
3.99932e-06
8.98895e-06
3.99759e-06
8.99162e-06
1.52152e-07
1.52189e-07
1.52174e-07
1.56764e-07
1.5676e-07
1.56798e-07
1.56801e-07
1.80381e-06
3.24951e-06
2.4685e-07
4.5378e-07
1.79347e-06
3.25593e-06
2.50648e-07
1.82759e-05
1.82767e-05
1.80408e-06
2.46973e-07
3.24922e-06
4.5387e-07
1.79326e-06
2.50725e-07
3.2564e-06
5.3275e-06
5.32918e-06
7.4373e-07
5.32986e-06
5.33156e-06
4.00572e-06
8.99401e-06
4.00409e-06
8.99744e-06
1.82712e-05
1.82728e-05
4.00575e-06
8.99565e-06
4.00419e-06
8.99853e-06
1.5846e-07
1.58499e-07
1.58486e-07
1.63649e-07
1.63647e-07
1.63686e-07
1.63691e-07
1.83445e-06
3.26987e-06
2.6268e-07
4.81945e-07
1.82516e-06
3.27619e-06
2.66758e-07
1.82721e-05
1.82736e-05
1.83471e-06
2.628e-07
3.27014e-06
4.82025e-07
1.82495e-06
2.66826e-07
3.27596e-06
5.33646e-06
5.33813e-06
7.79169e-07
5.33877e-06
5.34046e-06
4.0116e-06
9.00129e-06
4.01007e-06
9.00498e-06
1.82697e-05
1.82721e-05
4.01163e-06
9.00294e-06
4.01016e-06
9.00611e-06
1.65549e-07
1.65589e-07
1.65579e-07
1.71319e-07
1.71319e-07
1.71359e-07
1.71365e-07
1.86257e-06
3.29018e-06
2.79632e-07
5.10775e-07
1.85401e-06
3.29478e-06
2.83975e-07
1.82704e-05
1.82728e-05
1.86284e-06
2.79747e-07
3.28998e-06
5.10852e-07
1.85384e-06
2.84039e-07
3.29541e-06
5.34527e-06
5.34689e-06
8.13542e-07
5.34752e-06
5.34924e-06
4.01716e-06
9.00926e-06
4.01571e-06
9.01324e-06
1.82704e-05
1.82736e-05
4.01718e-06
9.01094e-06
4.01573e-06
9.01438e-06
1.7342e-07
1.73461e-07
1.73453e-07
1.79774e-07
1.79774e-07
1.79816e-07
1.79824e-07
1.88849e-06
3.30837e-06
2.97631e-07
5.40089e-07
1.88057e-06
3.31366e-06
3.02223e-07
1.8271e-05
1.82742e-05
1.88871e-06
2.97745e-07
3.30863e-06
5.40168e-07
1.88047e-06
3.02283e-07
3.31303e-06
5.354e-06
5.35562e-06
8.46924e-07
5.35628e-06
5.35799e-06
4.02262e-06
9.01796e-06
4.02114e-06
9.02224e-06
1.82733e-05
1.82773e-05
4.02258e-06
9.01961e-06
4.02119e-06
9.02334e-06
1.82075e-07
1.82115e-07
1.8211e-07
1.89009e-07
1.8901e-07
1.89053e-07
1.89063e-07
1.91268e-06
3.32551e-06
3.16607e-07
5.69705e-07
1.90524e-06
3.33073e-06
3.21432e-07
1.82738e-05
1.82777e-05
1.91275e-06
3.1672e-07
3.32589e-06
5.69795e-07
1.90528e-06
3.2149e-07
3.3309e-06
5.36278e-06
5.36441e-06
8.79141e-07
5.36507e-06
5.36676e-06
4.02819e-06
9.0275e-06
4.02663e-06
9.03175e-06
1.82782e-05
1.82829e-05
4.02819e-06
9.02901e-06
4.02668e-06
9.03304e-06
1.91506e-07
1.91548e-07
1.91545e-07
1.99017e-07
1.99017e-07
1.99062e-07
1.99075e-07
1.93539e-06
3.34202e-06
3.36474e-07
5.99454e-07
1.92836e-06
3.34686e-06
3.41509e-07
1.82787e-05
1.82834e-05
1.93548e-06
3.36587e-07
3.34196e-06
5.99553e-07
1.92832e-06
3.4157e-07
3.34705e-06
5.3716e-06
5.37324e-06
9.10143e-07
5.37393e-06
5.37565e-06
4.03389e-06
9.03787e-06
4.03236e-06
9.0422e-06
1.82851e-05
1.82905e-05
4.03402e-06
9.03884e-06
4.03233e-06
9.04373e-06
2.01702e-07
2.01745e-07
2.01747e-07
2.09782e-07
2.09782e-07
2.09828e-07
2.09848e-07
1.95687e-06
3.35812e-06
3.57138e-07
6.29167e-07
1.95018e-06
3.36199e-06
3.62362e-07
1.82856e-05
1.8291e-05
1.95702e-06
3.57259e-07
3.35779e-06
6.29273e-07
1.95015e-06
3.6243e-07
3.36266e-06
5.38051e-06
5.38215e-06
9.39903e-07
5.3829e-06
5.38463e-06
4.0401e-06
9.04881e-06
4.03847e-06
9.05346e-06
1.82938e-05
1.82998e-05
4.04023e-06
9.04979e-06
4.03838e-06
9.05498e-06
2.12647e-07
2.12692e-07
2.12698e-07
2.21284e-07
2.21285e-07
2.21332e-07
2.21359e-07
1.97741e-06
3.3734e-06
3.78516e-07
6.58703e-07
1.97102e-06
3.37733e-06
3.83906e-07
1.82944e-05
1.83004e-05
1.97749e-06
3.7864e-07
3.37319e-06
6.58817e-07
1.97105e-06
3.8398e-07
3.37724e-06
5.38955e-06
5.39116e-06
9.68445e-07
5.39198e-06
5.39373e-06
4.04683e-06
9.06053e-06
4.04497e-06
9.06581e-06
1.8304e-05
1.83106e-05
4.04689e-06
9.0615e-06
4.04488e-06
9.06701e-06
2.24317e-07
2.24366e-07
2.24374e-07
2.33498e-07
2.33498e-07
2.3355e-07
2.33583e-07
1.99723e-06
3.38817e-06
4.0051e-07
6.87915e-07
1.99105e-06
3.39202e-06
4.06045e-07
1.8305e-05
1.83116e-05
1.99739e-06
4.00639e-07
3.3885e-06
6.88042e-07
1.99106e-06
4.06124e-07
3.39197e-06
5.39876e-06
5.40038e-06
9.95918e-07
5.40124e-06
5.40304e-06
4.05416e-06
9.07286e-06
4.05189e-06
9.07868e-06
1.8316e-05
1.83233e-05
4.05413e-06
9.0741e-06
4.05182e-06
9.07959e-06
2.36688e-07
2.36743e-07
2.36751e-07
2.46395e-07
2.46397e-07
2.46455e-07
2.46493e-07
2.01648e-06
3.4028e-06
4.23031e-07
7.16721e-07
2.01045e-06
3.40624e-06
4.28689e-07
1.83173e-05
1.83245e-05
2.01664e-06
4.23164e-07
3.40261e-06
7.16855e-07
2.01049e-06
4.28772e-07
3.40636e-06
5.40821e-06
5.4098e-06
1.02225e-06
5.41074e-06
5.41263e-06
4.06215e-06
9.08613e-06
4.05947e-06
9.09223e-06
1.83296e-05
1.83374e-05
4.06203e-06
9.08718e-06
4.05954e-06
9.09331e-06
2.4973e-07
2.49792e-07
2.498e-07
2.59946e-07
2.59948e-07
2.60014e-07
2.60054e-07
2.03535e-06
3.41701e-06
4.4599e-07
7.45045e-07
2.02945e-06
3.42026e-06
4.51757e-07
1.83311e-05
1.83389e-05
2.03546e-06
4.46119e-07
3.41701e-06
7.45182e-07
2.02952e-06
4.51832e-07
3.42061e-06
5.41796e-06
5.41954e-06
1.04848e-06
5.42064e-06
5.42254e-06
4.07063e-06
9.10006e-06
4.06793e-06
9.10638e-06
1.83445e-05
1.83527e-05
4.07046e-06
9.1013e-06
4.06779e-06
9.10724e-06
2.63409e-07
2.63478e-07
2.63484e-07
2.74112e-07
2.74113e-07
2.74185e-07
2.74223e-07
2.05395e-06
3.43098e-06
4.69296e-07
7.72831e-07
2.0481e-06
3.43444e-06
4.75158e-07
1.83464e-05
1.83545e-05
2.05406e-06
4.69425e-07
3.43084e-06
7.72976e-07
2.0482e-06
4.75234e-07
3.43525e-06
5.42789e-06
5.42959e-06
1.073e-06
5.43094e-06
5.43272e-06
4.07977e-06
9.11442e-06
4.07679e-06
9.12082e-06
1.83603e-05
1.83685e-05
4.07984e-06
9.11583e-06
4.07657e-06
9.12175e-06
2.77686e-07
2.7776e-07
2.7776e-07
2.88845e-07
2.88849e-07
2.88924e-07
2.88953e-07
2.07233e-06
3.44505e-06
4.92879e-07
8.00053e-07
2.06658e-06
3.44868e-06
4.98828e-07
1.83625e-05
1.83709e-05
2.07241e-06
4.93006e-07
3.44471e-06
8.00196e-07
2.06662e-06
4.98899e-07
3.44871e-06
5.43817e-06
5.43993e-06
1.09668e-06
5.44137e-06
5.44308e-06
4.08921e-06
9.12909e-06
4.08666e-06
9.13482e-06
1.83761e-05
1.83841e-05
4.08895e-06
9.13039e-06
4.08631e-06
9.13629e-06
2.92513e-07
2.9259e-07
2.92579e-07
3.04083e-07
3.04094e-07
3.04169e-07
3.04187e-07
2.0904e-06
3.45899e-06
5.16664e-07
8.26675e-07
2.08477e-06
3.4624e-06
5.2269e-07
1.83788e-05
1.8387e-05
2.09044e-06
5.16784e-07
3.45907e-06
8.26807e-07
2.0848e-06
5.22753e-07
3.46245e-06
5.44883e-06
5.45053e-06
1.11943e-06
5.45184e-06
5.45355e-06
4.09896e-06
9.14301e-06
4.09633e-06
9.14848e-06
1.83912e-05
1.83988e-05
4.09869e-06
9.1443e-06
4.09614e-06
9.15041e-06
3.07824e-07
3.07901e-07
3.07879e-07
2.1079e-06
3.47294e-06
5.40541e-07
8.52647e-07
2.10249e-06
3.4762e-06
5.46627e-07
1.83946e-05
1.84023e-05
2.1079e-06
5.40633e-07
3.47272e-06
8.52753e-07
2.10246e-06
5.46661e-07
3.47603e-06
5.45949e-06
5.46116e-06
1.14162e-06
5.46251e-06
5.464e-06
1.8438e-05
1.84307e-05
1.84408e-05
1.84336e-05
5.1713e-06
5.17315e-06
3.90757e-07
5.17958e-06
5.1806e-06
1.84174e-05
1.84243e-05
1.84203e-05
1.84271e-05
3.97831e-07
5.19288e-06
5.19462e-06
5.18553e-06
5.18789e-06
3.75797e-06
8.92083e-06
8.92573e-06
3.73558e-06
1.24185e-06
2.86932e-06
1.59606e-07
2.43802e-07
2.88875e-06
1.60142e-07
1.21418e-06
1.24201e-06
2.86881e-06
1.59612e-07
2.43845e-07
2.89071e-06
1.60149e-07
1.21409e-06
3.76981e-06
8.93033e-06
8.92576e-06
3.79056e-06
3.77011e-06
8.93056e-06
8.92594e-06
3.79055e-06
1.25564e-06
2.46908e-07
2.9193e-06
1.6147e-07
2.9012e-06
1.60769e-07
1.28252e-06
1.25554e-06
2.46947e-07
2.92111e-06
1.61476e-07
2.90053e-06
1.60776e-07
1.28276e-06
5.17291e-06
5.17006e-06
3.90701e-07
5.18033e-06
5.18002e-06
1.84381e-05
1.84309e-05
1.84199e-05
1.84267e-05
3.97728e-07
5.19443e-06
5.19415e-06
5.18744e-06
5.18525e-06
1.84177e-05
1.84245e-05
1.24151e-06
2.86859e-06
1.59609e-07
2.43758e-07
2.89071e-06
1.60145e-07
1.21466e-06
3.75875e-06
8.92186e-06
8.92607e-06
3.7356e-06
1.24171e-06
1.59622e-07
2.86873e-06
2.43866e-07
1.60158e-07
2.89081e-06
1.21429e-06
3.76964e-06
8.93168e-06
8.92707e-06
3.79086e-06
1.25608e-06
2.46865e-07
2.92101e-06
1.61475e-07
2.90055e-06
1.60774e-07
1.28211e-06
3.76978e-06
8.93093e-06
8.927e-06
3.79066e-06
1.25579e-06
2.46968e-07
1.6149e-07
2.92122e-06
1.60788e-07
2.90067e-06
1.28262e-06
3.75889e-06
8.92134e-06
8.92552e-06
3.73521e-06
1.24196e-06
1.59598e-07
2.86955e-06
2.43806e-07
1.60131e-07
2.88894e-06
1.21431e-06
3.75804e-06
8.92117e-06
8.92576e-06
3.73558e-06
1.25574e-06
2.46828e-07
2.92066e-06
1.61452e-07
2.90019e-06
1.60743e-07
1.28258e-06
3.76982e-06
8.93037e-06
8.92647e-06
3.79076e-06
1.2556e-06
2.46909e-07
1.6146e-07
2.91937e-06
1.60762e-07
2.90139e-06
1.28286e-06
3.77018e-06
8.9305e-06
8.92658e-06
3.79068e-06
5.17163e-06
5.17033e-06
3.90777e-07
5.18144e-06
5.18016e-06
1.84389e-05
1.84317e-05
1.84206e-05
1.84275e-05
3.97928e-07
5.19538e-06
5.19406e-06
5.18621e-06
5.18492e-06
1.84183e-05
1.84252e-05
1.2418e-06
1.59612e-07
2.8687e-06
2.43797e-07
1.60139e-07
2.89083e-06
1.21433e-06
3.75906e-06
8.92177e-06
8.92595e-06
3.7354e-06
3.75897e-06
8.92176e-06
8.92667e-06
3.73541e-06
1.25613e-06
2.46859e-07
1.61457e-07
2.91932e-06
1.60775e-07
2.90121e-06
1.28237e-06
1.25583e-06
2.46892e-07
1.6147e-07
2.92128e-06
1.60779e-07
2.90068e-06
1.2828e-06
3.76998e-06
8.9308e-06
8.9269e-06
3.79092e-06
3.77e-06
8.93151e-06
8.92689e-06
3.79087e-06
1.84397e-05
1.84324e-05
1.84415e-05
1.84343e-05
3.97352e-07
5.19314e-06
5.19554e-06
5.18584e-06
5.18626e-06
1.84191e-05
1.8426e-05
1.8421e-05
1.84278e-05
1.84112e-05
1.84047e-05
1.8414e-05
1.84076e-05
5.19945e-06
5.20138e-06
4.20005e-07
5.20596e-06
5.20737e-06
1.83926e-05
1.83987e-05
1.83955e-05
1.84016e-05
4.28321e-07
5.21801e-06
5.21998e-06
5.21148e-06
5.21356e-06
3.81847e-06
8.93072e-06
3.8002e-06
8.9351e-06
1.32233e-06
2.93103e-06
1.62265e-07
2.56967e-07
1.29631e-06
2.94791e-06
1.63133e-07
1.32247e-06
2.9305e-06
1.6227e-07
2.57012e-07
1.29617e-06
2.94981e-06
1.63138e-07
3.82705e-06
8.93904e-06
8.93495e-06
3.84221e-06
3.82712e-06
8.93932e-06
8.93519e-06
3.84238e-06
1.33579e-06
2.60585e-07
2.97487e-06
1.65136e-07
2.9591e-06
1.64098e-07
1.36114e-06
1.33575e-06
2.60626e-07
2.9767e-06
1.65141e-07
2.95854e-06
1.64103e-07
1.36074e-06
5.20101e-06
5.19892e-06
4.20181e-07
5.20709e-06
5.20668e-06
1.84114e-05
1.8405e-05
1.83951e-05
1.84012e-05
4.28377e-07
5.21956e-06
5.21833e-06
5.21323e-06
5.21133e-06
1.83929e-05
1.8399e-05
1.32267e-06
2.93076e-06
1.62272e-07
2.56921e-07
1.29659e-06
2.94825e-06
1.63139e-07
3.81854e-06
8.93178e-06
3.80026e-06
8.93546e-06
1.32269e-06
1.62286e-07
2.93071e-06
2.57045e-07
1.29629e-06
1.63156e-07
2.9483e-06
3.827e-06
8.94038e-06
8.93629e-06
3.84322e-06
1.33556e-06
2.60535e-07
2.97542e-06
1.65143e-07
2.95948e-06
1.64106e-07
1.36133e-06
3.82719e-06
8.93969e-06
8.93627e-06
3.84241e-06
1.33557e-06
2.60657e-07
1.65162e-07
2.97552e-06
1.64122e-07
2.95958e-06
1.36134e-06
3.81873e-06
8.93123e-06
3.80034e-06
8.93493e-06
1.32267e-06
1.62261e-07
2.93111e-06
2.56977e-07
1.2961e-06
1.63124e-07
2.94939e-06
3.81863e-06
8.93137e-06
3.80022e-06
8.93506e-06
1.33568e-06
2.60499e-07
2.97627e-06
1.6511e-07
2.95818e-06
1.64069e-07
1.36065e-06
3.82715e-06
8.93916e-06
8.93573e-06
3.84221e-06
1.33558e-06
2.60587e-07
1.65125e-07
2.97631e-06
1.64093e-07
2.95825e-06
1.36137e-06
3.82701e-06
8.93928e-06
8.93582e-06
3.8422e-06
5.19991e-06
5.19877e-06
4.20708e-07
5.20818e-06
5.20676e-06
1.84121e-05
1.84056e-05
1.83959e-05
1.8402e-05
4.28188e-07
5.21978e-06
5.21845e-06
5.21259e-06
5.21112e-06
1.83935e-05
1.83996e-05
1.32252e-06
1.62278e-07
2.93065e-06
2.56966e-07
1.29631e-06
1.63137e-07
2.94995e-06
3.81888e-06
8.93167e-06
3.80049e-06
8.93534e-06
3.81882e-06
8.93167e-06
3.8005e-06
8.93604e-06
1.33615e-06
2.60536e-07
1.65123e-07
2.97492e-06
1.64107e-07
2.95919e-06
1.36097e-06
1.33582e-06
2.60571e-07
1.65142e-07
2.97686e-06
1.64115e-07
2.95872e-06
1.36118e-06
3.82724e-06
8.93955e-06
8.93615e-06
3.84337e-06
3.82724e-06
8.94011e-06
8.93617e-06
3.84333e-06
1.84129e-05
1.84064e-05
1.84148e-05
1.84083e-05
4.27448e-07
5.21759e-06
5.21997e-06
5.21121e-06
5.21229e-06
1.83943e-05
1.84004e-05
1.83962e-05
1.84023e-05
1.83868e-05
1.8381e-05
1.83897e-05
1.8384e-05
5.22267e-06
5.22454e-06
4.52227e-07
5.22835e-06
5.23037e-06
1.83702e-05
1.83755e-05
1.83731e-05
1.83784e-05
4.60752e-07
5.23843e-06
5.24004e-06
5.23322e-06
5.23486e-06
3.86378e-06
8.93938e-06
3.8509e-06
8.94327e-06
1.39803e-06
2.98541e-06
1.66269e-07
2.72152e-07
1.37404e-06
3.0001e-06
1.67476e-07
1.39827e-06
2.98494e-06
1.66273e-07
2.72197e-07
1.37419e-06
3.00194e-06
1.67481e-07
3.87138e-06
8.9466e-06
8.943e-06
3.88234e-06
3.8713e-06
8.94685e-06
8.94343e-06
3.88238e-06
1.41114e-06
2.76267e-07
3.02389e-06
1.70159e-07
3.01011e-06
1.6878e-07
1.43416e-06
1.4111e-06
2.76306e-07
3.02561e-06
1.70162e-07
3.00962e-06
1.68785e-07
1.43422e-06
5.22428e-06
5.22247e-06
4.52422e-07
5.22994e-06
5.22907e-06
1.83871e-05
1.83814e-05
1.83728e-05
1.83781e-05
4.60584e-07
5.23968e-06
5.23879e-06
5.2348e-06
5.23303e-06
1.83705e-05
1.83757e-05
1.3987e-06
2.98593e-06
1.66277e-07
2.72096e-07
1.37384e-06
3.00065e-06
1.67483e-07
3.86382e-06
8.94041e-06
3.85094e-06
8.94377e-06
1.39869e-06
1.66295e-07
2.98596e-06
2.72235e-07
1.37382e-06
1.67504e-07
3.00195e-06
3.87083e-06
8.94795e-06
8.94423e-06
3.88314e-06
1.41077e-06
2.76209e-07
3.02445e-06
1.70167e-07
3.01065e-06
1.68791e-07
1.43464e-06
3.87134e-06
8.94755e-06
8.94398e-06
3.88243e-06
1.41082e-06
2.76346e-07
1.70189e-07
3.02568e-06
1.6881e-07
3.00977e-06
1.43401e-06
3.86383e-06
8.93987e-06
3.85108e-06
8.94311e-06
1.39874e-06
1.66263e-07
2.98461e-06
2.72162e-07
1.37384e-06
1.67464e-07
3.00156e-06
3.86379e-06
8.93998e-06
3.85089e-06
8.94324e-06
1.41118e-06
2.7617e-07
3.02477e-06
1.70124e-07
3.00923e-06
1.68749e-07
1.43419e-06
3.87156e-06
8.94673e-06
8.94374e-06
3.88238e-06
1.41077e-06
2.76268e-07
1.70148e-07
3.02527e-06
1.68777e-07
3.00932e-06
1.43471e-06
3.87137e-06
8.94694e-06
8.94385e-06
3.88237e-06
5.22376e-06
5.22261e-06
4.52491e-07
5.23061e-06
5.22919e-06
1.83877e-05
1.8382e-05
1.83735e-05
1.83788e-05
4.60622e-07
5.24051e-06
5.23903e-06
5.23437e-06
5.23292e-06
1.83711e-05
1.83764e-05
1.39859e-06
1.6629e-07
2.9851e-06
2.72151e-07
1.37416e-06
1.67483e-07
3.00206e-06
3.86469e-06
8.94029e-06
3.85063e-06
8.94361e-06
3.86367e-06
8.9406e-06
3.85068e-06
8.94386e-06
1.41131e-06
2.76211e-07
1.70145e-07
3.02394e-06
1.68796e-07
3.01029e-06
1.43441e-06
1.41111e-06
2.7625e-07
1.70167e-07
3.02574e-06
1.68804e-07
3.00978e-06
1.43409e-06
3.87103e-06
8.9471e-06
8.94405e-06
3.88329e-06
3.87162e-06
8.94753e-06
8.94448e-06
3.88249e-06
1.83885e-05
1.83828e-05
1.83904e-05
1.83847e-05
4.59914e-07
5.23837e-06
5.24044e-06
5.23314e-06
5.23439e-06
1.83719e-05
1.83772e-05
1.83738e-05
1.83791e-05
1.83648e-05
1.83598e-05
1.83677e-05
1.83628e-05
5.24275e-06
5.24467e-06
4.87434e-07
5.24728e-06
5.24933e-06
1.83501e-05
1.83546e-05
1.8353e-05
1.83575e-05
4.94726e-07
5.25587e-06
5.25782e-06
5.25163e-06
5.25342e-06
3.8986e-06
8.94689e-06
3.88909e-06
8.95039e-06
1.46857e-06
3.03332e-06
1.71634e-07
2.89285e-07
1.44675e-06
3.04608e-06
1.73182e-07
1.46862e-06
3.03294e-06
1.71638e-07
2.8933e-07
1.44666e-06
3.04639e-06
1.73183e-07
3.90462e-06
8.95316e-06
8.95004e-06
3.91264e-06
3.90458e-06
8.95351e-06
8.95039e-06
3.91328e-06
1.48076e-06
2.93872e-07
3.06711e-06
1.76551e-07
3.05511e-06
1.7483e-07
1.50154e-06
1.4807e-06
2.93915e-07
3.06758e-06
1.76551e-07
3.05545e-06
1.74832e-07
1.50192e-06
5.24443e-06
5.24274e-06
4.86197e-07
5.2489e-06
5.24776e-06
1.83649e-05
1.83601e-05
1.83527e-05
1.83572e-05
4.95342e-07
5.25745e-06
5.2562e-06
5.2532e-06
5.25134e-06
1.83502e-05
1.83546e-05
1.46897e-06
3.03387e-06
1.71643e-07
2.89224e-07
1.44629e-06
3.04666e-06
1.73189e-07
3.89866e-06
8.94759e-06
3.88912e-06
8.95092e-06
1.46869e-06
1.71666e-07
3.03301e-06
2.89373e-07
1.44662e-06
1.73213e-07
3.04794e-06
3.90411e-06
8.95454e-06
8.95141e-06
3.91343e-06
1.48039e-06
2.9381e-07
3.06765e-06
1.76557e-07
3.05566e-06
1.74837e-07
1.50189e-06
3.9046e-06
8.95404e-06
8.95117e-06
3.91275e-06
1.48065e-06
2.93958e-07
1.7658e-07
3.06887e-06
1.74861e-07
3.05477e-06
1.5016e-06
3.89862e-06
8.9473e-06
3.88931e-06
8.9501e-06
1.46911e-06
1.71628e-07
3.03259e-06
2.89293e-07
1.44627e-06
1.73168e-07
3.04746e-06
3.89861e-06
8.94736e-06
3.88913e-06
8.95051e-06
1.4807e-06
2.93762e-07
3.06702e-06
1.76501e-07
3.05512e-06
1.74786e-07
1.50166e-06
3.90479e-06
8.95327e-06
8.95063e-06
3.91268e-06
1.48029e-06
2.9387e-07
1.76534e-07
3.06711e-06
1.74822e-07
3.0544e-06
1.50206e-06
3.90461e-06
8.95374e-06
8.95062e-06
3.9127e-06
5.24399e-06
5.24263e-06
4.86191e-07
5.24951e-06
5.24806e-06
1.83657e-05
1.83607e-05
1.83533e-05
1.83579e-05
4.95388e-07
5.2579e-06
5.25641e-06
5.25283e-06
5.25145e-06
1.83509e-05
1.83554e-05
1.46874e-06
1.71659e-07
3.03302e-06
2.89275e-07
1.44688e-06
1.73191e-07
3.04791e-06
3.89948e-06
8.94774e-06
3.88879e-06
8.95058e-06
3.89872e-06
8.94811e-06
3.88943e-06
8.95097e-06
1.4808e-06
2.93813e-07
1.76535e-07
3.06717e-06
1.7485e-07
3.05526e-06
1.50182e-06
1.4808e-06
2.93848e-07
1.76561e-07
3.06787e-06
1.74857e-07
3.05478e-06
1.50182e-06
3.90428e-06
8.95377e-06
8.95111e-06
3.91345e-06
3.90488e-06
8.95415e-06
8.95149e-06
3.91279e-06
1.83665e-05
1.83616e-05
1.83684e-05
1.83634e-05
4.94072e-07
5.25583e-06
5.25789e-06
5.25146e-06
5.25287e-06
1.83518e-05
1.83563e-05
1.83536e-05
1.83582e-05
1.8345e-05
1.83408e-05
1.83479e-05
1.83437e-05
5.25978e-06
5.26155e-06
5.22873e-07
5.2637e-06
5.26553e-06
1.83321e-05
1.83359e-05
1.8335e-05
1.83388e-05
5.30267e-07
5.27102e-06
5.27279e-06
5.26729e-06
5.26913e-06
3.92565e-06
8.95363e-06
3.91763e-06