/*--------------------------------*- C++ -*----------------------------------*\
| =========                 |                                                 |
| \\      /  F ield         | OpenFOAM: The Open Source CFD Toolbox           |
|  \\    /   O peration     | Version:  2312                                  |
|   \\  /    A nd           | Website:  www.openfoam.com                      |
|    \\/     M anipulation  |                                                 |
\*---------------------------------------------------------------------------*/
FoamFile
{
    version     2.0;
    format      ascii;
    arch        "LSB;label=32;scalar=64";
    class       volScalarField;
    location    "250";
    object      nut;
}
// * * * * * * * * * * * * * * * * * * * * * * * * * * * * * * * * * * * * * //

dimensions      [0 2 -1 0 0 0 0];

internalField   nonuniform List<scalar> 
42840
(
0.000145948
9.86049e-05
9.8605e-05
8.19523e-05
0.00014192
9.62744e-05
9.62734e-05
8.1987e-05
0.000137978
9.44605e-05
9.44613e-05
8.26083e-05
0.00013414
9.31626e-05
9.31683e-05
8.35923e-05
0.000130459
9.23722e-05
9.23783e-05
8.50207e-05
0.000126963
9.20669e-05
9.20748e-05
8.65533e-05
0.000123689
9.2219e-05
9.22313e-05
8.84753e-05
0.000120682
9.28003e-05
9.28147e-05
9.05388e-05
0.000117968
9.37727e-05
9.37893e-05
9.30345e-05
0.000115555
9.51019e-05
9.51194e-05
9.52692e-05
0.000113478
9.67488e-05
9.6767e-05
9.77803e-05
0.000111754
9.86783e-05
9.86949e-05
0.000100298
0.000110392
0.000100851
0.000100868
0.000103129
0.000109398
0.000103237
0.000103252
0.000105611
0.000108771
0.000105805
0.000105816
0.000108271
0.000108509
0.000108524
0.000108532
0.000111078
0.000108601
0.000111363
0.000111371
0.000113718
0.000109037
0.000114301
0.00011431
0.00011635
0.000109804
0.000117316
0.000117323
0.000118941
0.000110887
0.000120395
0.000120402
0.000121593
0.000112267
0.000123512
0.000123522
0.00012442
0.000113923
0.000126652
0.000126665
0.000126898
0.000115831
0.000129798
0.000129809
0.000129501
0.000117966
0.000132931
0.000132946
0.000132088
0.000120302
0.00013604
0.000136053
0.000134461
8.16759e-05
8.22162e-05
9.85781e-05
9.8566e-05
9.67767e-05
9.67654e-05
8.1802e-05
8.20823e-05
9.86008e-05
9.85674e-05
9.67998e-05
9.67682e-05
9.85798e-05
9.67967e-05
9.67781e-05
8.1663e-05
8.22416e-05
9.85915e-05
9.68e-05
9.67873e-05
8.18228e-05
8.19066e-05
8.24031e-05
9.62459e-05
9.62353e-05
9.48333e-05
9.48228e-05
8.1926e-05
8.25689e-05
9.62682e-05
9.624e-05
9.48554e-05
9.48299e-05
9.62503e-05
9.48525e-05
9.48386e-05
8.17688e-05
8.24808e-05
9.6257e-05
9.48559e-05
9.48439e-05
8.23263e-05
8.25043e-05
8.36411e-05
9.44334e-05
9.44233e-05
9.34082e-05
9.34001e-05
8.23946e-05
8.35874e-05
9.44548e-05
9.44318e-05
9.3429e-05
9.3409e-05
9.44406e-05
9.34259e-05
9.34184e-05
8.24382e-05
8.33933e-05
9.44451e-05
9.34321e-05
9.34216e-05
8.32074e-05
8.33422e-05
8.43951e-05
9.3139e-05
9.31295e-05
9.24957e-05
9.24871e-05
8.33092e-05
8.48757e-05
9.31584e-05
9.31406e-05
9.25132e-05
9.24954e-05
9.31498e-05
9.2508e-05
9.25076e-05
8.34808e-05
8.48777e-05
9.31514e-05
9.25144e-05
9.25108e-05
8.45419e-05
8.4977e-05
8.61185e-05
9.23511e-05
9.23442e-05
9.20724e-05
9.20681e-05
8.47054e-05
8.6239e-05
9.237e-05
9.23519e-05
9.20923e-05
9.20735e-05
9.23636e-05
9.20819e-05
9.20861e-05
8.47118e-05
8.62133e-05
9.2366e-05
9.209e-05
9.20885e-05
8.63552e-05
8.66738e-05
8.80453e-05
9.20477e-05
9.20434e-05
9.21167e-05
9.21106e-05
8.66056e-05
8.81375e-05
9.20673e-05
9.20495e-05
9.21355e-05
9.21174e-05
9.20621e-05
9.21208e-05
9.21278e-05
8.65829e-05
8.81058e-05
9.20642e-05
9.21319e-05
9.21296e-05
8.83182e-05
8.87071e-05
9.01943e-05
9.22059e-05
9.21991e-05
9.25938e-05
9.25879e-05
8.8543e-05
9.03412e-05
9.22239e-05
9.22064e-05
9.2612e-05
9.25954e-05
9.22161e-05
9.25951e-05
9.26016e-05
8.85801e-05
9.02826e-05
9.22188e-05
9.26089e-05
9.26045e-05
9.04779e-05
9.08546e-05
9.24453e-05
9.27895e-05
9.27815e-05
9.3474e-05
9.34634e-05
9.0731e-05
9.28298e-05
9.28064e-05
9.27894e-05
9.3489e-05
9.34726e-05
9.27954e-05
9.347e-05
9.34776e-05
9.07842e-05
9.25651e-05
9.2798e-05
9.34862e-05
9.3482e-05
9.2862e-05
9.31724e-05
9.48134e-05
9.37637e-05
9.37545e-05
9.47126e-05
9.47065e-05
9.29019e-05
9.51866e-05
9.37781e-05
9.37635e-05
9.47276e-05
9.47165e-05
9.37695e-05
9.47099e-05
9.47206e-05
9.31293e-05
9.51325e-05
9.37727e-05
9.47283e-05
9.4724e-05
9.52399e-05
9.56139e-05
9.73701e-05
9.5091e-05
9.5085e-05
9.62812e-05
9.62776e-05
9.53518e-05
9.73693e-05
9.51048e-05
9.50963e-05
9.62928e-05
9.62862e-05
9.50999e-05
9.62776e-05
9.62912e-05
9.54166e-05
9.75595e-05
9.51023e-05
9.62962e-05
9.62931e-05
9.77944e-05
9.80399e-05
9.99067e-05
9.67381e-05
9.67347e-05
9.81389e-05
9.81376e-05
9.80112e-05
9.98279e-05
9.6748e-05
9.67428e-05
9.81484e-05
9.81434e-05
9.67492e-05
9.81364e-05
9.81551e-05
9.78583e-05
9.98874e-05
9.67493e-05
9.81534e-05
9.81519e-05
0.000100327
0.000100602
0.000102416
9.86659e-05
9.86636e-05
0.000100251
0.000100251
0.00010065
0.000102422
9.86746e-05
9.86699e-05
0.00010026
0.000100258
9.86827e-05
0.000100249
0.000100275
0.000100577
0.000102885
9.8679e-05
0.000100267
0.000100269
0.00010268
0.00010318
0.000105231
0.000100839
0.000100836
0.000102584
0.000102586
0.000103271
0.000104959
0.000100847
0.000100843
0.000102593
0.000102592
0.000100861
0.000102582
0.00010261
0.000102922
0.000105509
0.000100855
0.000102599
0.000102605
0.000105525
0.000105736
0.000107755
0.000103224
0.000103223
0.000105109
0.000105108
0.000105918
0.00010762
0.000103233
0.000103228
0.000105117
0.000105112
0.000103247
0.000105104
0.000105134
0.000105556
0.000108059
0.000103241
0.000105118
0.000105129
0.000108224
0.000108501
0.000110479
0.000105793
0.00010579
0.000107792
0.00010779
0.000108581
0.000110403
0.0001058
0.000105793
0.000107798
0.000107791
0.000105816
0.000107785
0.000107814
0.000108181
0.000110744
0.00010581
0.000107796
0.000107809
0.000110625
0.000111119
0.00011328
0.000108513
0.000108509
0.000110602
0.000110598
0.000111238
0.000113149
0.000108518
0.000108509
0.000110606
0.000110598
0.000108533
0.000110595
0.000110625
0.000110898
0.000113283
0.000108527
0.000110604
0.00011062
0.000113461
0.00011377
0.000115926
0.000111355
0.000111346
0.000113516
0.000113509
0.000113824
0.0001159
0.000111358
0.000111346
0.000113518
0.00011351
0.000111373
0.000113508
0.000113537
0.000113659
0.000115961
0.000111368
0.000113518
0.000113534
0.000116003
0.000116412
0.000118658
0.000114293
0.00011428
0.00011651
0.000116502
0.00011643
0.000118555
0.000114295
0.000114281
0.000116511
0.000116503
0.000114308
0.000116501
0.000116529
0.000116335
0.000118701
0.000114304
0.00011651
0.000116526
0.000118872
0.000119061
0.000121336
0.000117305
0.000117291
0.000119571
0.000119562
0.00011917
0.000121138
0.000117306
0.000117292
0.000119571
0.000119567
0.00011732
0.000119561
0.000119589
0.000119052
0.000121348
0.000117315
0.000119572
0.000119585
0.000121465
0.000121707
0.000123989
0.000120381
0.000120365
0.000122678
0.000122668
0.000121883
0.000123748
0.00012038
0.00012037
0.000122677
0.000122677
0.000120392
0.000122666
0.000122698
0.000121714
0.000123953
0.000120388
0.000122679
0.000122695
0.00012403
0.000124339
0.000126585
0.000123499
0.000123481
0.000125809
0.0001258
0.000124471
0.000126432
0.000123497
0.000123488
0.000125809
0.00012581
0.000123513
0.000125795
0.00012583
0.000124347
0.00012645
0.000123508
0.00012581
0.000125825
0.000126565
0.00012694
0.000129124
0.000126637
0.000126617
0.000128948
0.00012894
0.000126998
0.000128991
0.000126636
0.000126628
0.000128948
0.000128951
0.000126649
0.000128932
0.000128964
0.000127075
0.00012911
0.000126643
0.000128947
0.00012896
0.000129082
0.000129473
0.000131649
0.000129779
0.00012976
0.000132079
0.000132073
0.000129604
0.000131639
0.000129778
0.00012977
0.000132079
0.000132086
0.000129785
0.000132061
0.000132092
0.000129535
0.000131549
0.000129779
0.000132078
0.000132087
0.000131451
0.000132025
0.000134068
0.000132908
0.000132889
0.000135183
0.000135181
0.000131977
0.000134093
0.000132908
0.000132904
0.000135184
0.000135196
0.00013291
0.000135168
0.000135194
0.000132088
0.000134125
0.000132905
0.000135184
0.000135191
0.000134032
0.000134365
0.000136006
0.00013599
0.000134422
0.000136006
0.000136007
0.000136006
0.000134464
0.000136003
7.20275e-05
4.95813e-05
4.95852e-05
7.12196e-05
2.36161e-05
2.3613e-05
7.20207e-05
4.95761e-05
4.95796e-05
7.12208e-05
0.000145943
0.00014594
0.000145939
0.000142904
0.000142896
0.000142894
0.000142893
6.99071e-05
6.76407e-05
0.000122012
9.79621e-05
6.82361e-05
0.000121035
6.89405e-05
2.36152e-05
2.36122e-05
6.99462e-05
0.000121999
6.76093e-05
9.7966e-05
0.000121041
6.82716e-05
6.89112e-05
6.20438e-05
6.20586e-05
8.18381e-05
6.23699e-05
6.23574e-05
7.37724e-05
4.95993e-05
7.30641e-05
4.96025e-05
2.36047e-05
2.36018e-05
7.37702e-05
4.95942e-05
7.30617e-05
4.95971e-05
0.000141916
0.000141913
0.00014191
0.000138933
0.000138925
0.000138923
0.000138921
7.28829e-05
6.94421e-05
0.00011828
9.57588e-05
7.1922e-05
6.9991e-05
0.000117371
2.36038e-05
2.36011e-05
7.29262e-05
0.000118269
6.94185e-05
9.5763e-05
7.19e-05
0.000117379
7.00319e-05
6.29195e-05
6.29245e-05
8.20397e-05
6.32087e-05
6.32074e-05
7.53188e-05
4.96152e-05
7.46675e-05
4.96176e-05
2.35942e-05
2.35918e-05
7.53049e-05
4.96097e-05
7.46731e-05
4.96136e-05
0.000137975
0.000137973
0.000137969
0.000135079
0.000135071
0.000135069
0.000135071
7.58904e-05
7.11422e-05
0.000114843
9.40741e-05
7.4881e-05
7.16597e-05
0.000114039
2.35934e-05
2.3591e-05
7.59098e-05
0.000114835
7.11102e-05
9.40794e-05
7.48815e-05
0.00011405
7.17005e-05
6.37245e-05
6.37224e-05
8.26623e-05
6.39926e-05
6.39842e-05
7.66799e-05
4.96287e-05
7.60893e-05
4.96312e-05
2.35848e-05
2.35827e-05
7.66659e-05
4.96234e-05
7.60955e-05
4.96259e-05
0.000134134
0.000134132
0.00013413
0.000131365
0.000131362
0.00013136
0.000131355
7.87981e-05
7.27304e-05
0.000111743
9.29034e-05
7.78275e-05
7.32607e-05
0.00011099
2.3584e-05
2.35819e-05
7.88179e-05
0.000111734
7.27135e-05
9.29101e-05
7.7836e-05
0.000111
7.32626e-05
6.44677e-05
6.44715e-05
8.38521e-05
6.4712e-05
6.47082e-05
7.78992e-05
4.96405e-05
7.73595e-05
4.9643e-05
2.35764e-05
2.35746e-05
7.78851e-05
4.96352e-05
7.73659e-05
4.96378e-05
0.000130452
0.00013045
0.000130452
0.000127823
0.00012782
0.000127818
0.000127814
8.16254e-05
7.42187e-05
0.00010901
9.22347e-05
8.0683e-05
7.47352e-05
0.000108352
2.35755e-05
2.35737e-05
8.16418e-05
0.000109
7.42241e-05
9.22422e-05
8.06879e-05
0.00010836
7.47411e-05
6.51527e-05
6.51531e-05
8.53032e-05
6.53829e-05
6.53775e-05
7.9003e-05
4.96508e-05
7.85076e-05
4.96539e-05
2.35688e-05
2.35673e-05
7.90049e-05
4.96451e-05
7.8513e-05
4.96495e-05
0.000126956
0.000126955
0.000126958
0.000124495
0.000124492
0.000124491
0.000124487
8.43304e-05
7.56347e-05
0.000106678
9.20447e-05
8.34501e-05
7.61272e-05
0.000106121
2.3568e-05
2.35665e-05
8.43351e-05
0.00010667
7.56662e-05
9.20539e-05
8.34597e-05
0.00010613
7.61166e-05
6.57909e-05
6.57907e-05
8.72828e-05
6.60064e-05
6.59994e-05
8.00125e-05
4.96598e-05
7.9558e-05
4.96652e-05
2.35621e-05
2.3561e-05
8.00106e-05
4.96535e-05
7.95565e-05
4.96603e-05
0.00012368
0.00012368
0.000123684
0.000121425
0.000121423
0.000121423
0.000121416
8.69352e-05
7.69749e-05
0.000104774
9.23051e-05
8.60786e-05
7.74468e-05
0.000104322
2.35613e-05
2.35601e-05
8.69472e-05
0.000104769
7.70071e-05
9.23175e-05
8.60929e-05
0.000104334
7.74229e-05
6.63877e-05
6.63863e-05
8.94835e-05
6.65877e-05
6.65832e-05
8.09428e-05
4.96689e-05
8.0527e-05
4.96753e-05
2.35564e-05
2.35556e-05
8.09442e-05
4.96634e-05
8.05286e-05
4.96703e-05
0.000120669
0.00012067
0.000120677
0.000118588
0.000118584
0.000118586
0.000118587
8.94325e-05
7.82377e-05
0.000103316
9.29845e-05
8.86003e-05
7.86913e-05
0.000102972
2.35556e-05
2.35548e-05
8.94518e-05
0.000103317
7.82775e-05
9.29996e-05
8.86029e-05
0.000102988
7.8671e-05
6.69469e-05
6.69455e-05
9.1678e-05
6.71354e-05
6.71318e-05
8.18155e-05
4.96791e-05
8.14343e-05
4.96855e-05
2.35517e-05
2.35513e-05
8.18172e-05
4.96727e-05
8.14284e-05
4.96806e-05
0.000117953
0.000117956
0.000117952
0.000116086
0.000116085
0.00011609
0.000116089
9.18306e-05
7.94477e-05
0.000102307
9.40463e-05
9.09995e-05
7.98562e-05
0.000102069
2.35509e-05
2.35505e-05
9.18355e-05
0.000102315
7.9478e-05
9.40627e-05
9.1011e-05
0.000102091
7.9854e-05
6.74749e-05
6.74735e-05
9.40686e-05
6.76522e-05
6.76498e-05
8.26376e-05
4.96898e-05
8.22761e-05
4.96961e-05
2.3548e-05
2.35479e-05
8.26358e-05
4.96846e-05
8.22733e-05
4.96912e-05
0.000115539
0.000115544
0.000115539
0.000113916
0.000113917
0.000113924
0.000113923
9.41252e-05
8.0612e-05
0.000101744
9.54547e-05
9.32976e-05
8.09788e-05
0.000101609
2.35472e-05
2.35471e-05
9.41337e-05
0.000101753
8.06197e-05
9.54736e-05
9.33057e-05
0.000101631
8.09814e-05
6.79762e-05
6.79735e-05
9.65299e-05
6.81443e-05
6.81415e-05
8.34073e-05
4.97034e-05
8.30703e-05
4.97059e-05
2.35453e-05
2.35456e-05
8.34066e-05
4.96948e-05
8.3064e-05
4.97038e-05
0.000113462
0.000113469
0.000113462
0.000112093
0.000112097
0.000112104
0.000112104
9.63303e-05
8.16962e-05
0.000101611
9.7173e-05
9.54969e-05
8.2061e-05
0.000101576
2.35445e-05
2.35448e-05
9.6332e-05
0.000101621
8.17082e-05
9.71901e-05
9.55038e-05
0.000101596
8.20555e-05
6.84526e-05
6.84494e-05
9.90671e-05
6.86131e-05
6.86105e-05
8.41364e-05
4.97162e-05
8.38186e-05
4.97186e-05
2.35436e-05
2.35443e-05
8.41367e-05
4.97072e-05
8.38122e-05
4.97166e-05
0.000111737
0.000111744
0.000111738
0.000110629
0.000110635
0.000110643
0.000110645
9.84493e-05
8.27533e-05
0.000101889
9.91623e-05
9.76101e-05
8.3094e-05
0.000101947
2.35429e-05
2.35435e-05
9.845e-05
0.000101899
8.27508e-05
9.91812e-05
9.76177e-05
0.000101967
8.31065e-05
6.89069e-05
6.8903e-05
0.000101589
6.90608e-05
6.90572e-05
8.48329e-05
4.97297e-05
8.45304e-05
4.97325e-05
2.3543e-05
2.3544e-05
8.48311e-05
4.97207e-05
8.45241e-05
4.97305e-05
0.000110375
0.000110381
0.000110377
0.000109529
0.000109538
0.000109546
0.00010955
0.000100485
8.37337e-05
0.000102556
0.000101389
9.96496e-05
8.40948e-05
0.000102703
2.35422e-05
2.35432e-05
0.000100487
0.000102564
8.37397e-05
0.000101407
9.96536e-05
0.000102718
8.40906e-05
6.93411e-05
6.93376e-05
0.000104015
6.94903e-05
6.94851e-05
8.55007e-05
4.97444e-05
8.52093e-05
4.97478e-05
2.35433e-05
2.35447e-05
8.54978e-05
4.97355e-05
8.52058e-05
4.97458e-05
0.00010938
0.000109386
0.000109383
0.000108797
0.000108809
0.000108816
0.000108823
0.00010245
8.47001e-05
0.000103587
0.000103822
0.000101617
8.50238e-05
0.000103812
2.35425e-05
2.35438e-05
0.000102453
0.000103592
8.46844e-05
0.000103837
0.00010162
0.000103827
8.50532e-05
6.97583e-05
6.97547e-05
0.000106853
6.99014e-05
6.98968e-05
8.61435e-05
4.97605e-05
8.58649e-05
4.97644e-05
2.35446e-05
2.35463e-05
8.61442e-05
4.97515e-05
8.58555e-05
4.97624e-05
0.000108752
0.000108757
0.000108756
0.000108431
0.000108444
0.00010845
0.000108459
0.000104348
8.56242e-05
0.000104952
0.000106427
0.000103517
8.59387e-05
0.000105252
2.35437e-05
2.35454e-05
0.000104355
0.000104957
8.56073e-05
0.000106439
0.000103514
0.000105265
8.59511e-05
7.01591e-05
7.01555e-05
0.000109517
7.02972e-05
7.02933e-05
8.67669e-05
4.9777e-05
8.64971e-05
4.97852e-05
2.35468e-05
2.35488e-05
8.6764e-05
4.97689e-05
8.64892e-05
4.97803e-05
0.000108488
0.000108492
0.000108491
0.000108423
0.000108438
0.000108444
0.000108454
0.000106179
8.6506e-05
0.000106626
0.000109176
0.000105359
8.68207e-05
0.000106993
2.35458e-05
2.35479e-05
0.000106187
0.000106633
8.64994e-05
0.000109186
0.000105361
0.000107006
8.6831e-05
7.05448e-05
7.05417e-05
0.00011197
7.0678e-05
7.06742e-05
8.73806e-05
4.9793e-05
8.71037e-05
4.98049e-05
2.35498e-05
2.35521e-05
8.7371e-05
4.97913e-05
8.71051e-05
4.97963e-05
0.000108578
0.000108581
0.000108582
0.000108764
0.000108781
0.000108786
0.000108798
0.00010796
8.73461e-05
0.000108584
0.000112039
0.000107146
8.76789e-05
0.000109011
2.35489e-05
2.35512e-05
0.000107963
0.00010859
8.73479e-05
0.000112049
0.000107149
0.000109021
8.76762e-05
7.09169e-05
7.09132e-05
0.000114681
7.10456e-05
7.10422e-05
8.79752e-05
4.98132e-05
8.77017e-05
4.98257e-05
2.35536e-05
2.35562e-05
8.79685e-05
4.98113e-05
8.77028e-05
4.9817e-05
0.000109012
0.000109014
0.000109016
0.00010944
0.000109458
0.000109463
0.000109477
0.000109686
8.81626e-05
0.000110791
0.000114995
0.000108883
8.84857e-05
0.00011127
2.35527e-05
2.35553e-05
0.000109691
0.000110797
8.81622e-05
0.000115005
0.000108884
0.000111281
8.85063e-05
7.12762e-05
7.12717e-05
0.000117524
7.1401e-05
7.13978e-05
8.85581e-05
4.98346e-05
8.82889e-05
4.98447e-05
2.35582e-05
2.35613e-05
8.85535e-05
4.98328e-05
8.82876e-05
4.9839e-05
0.000109775
0.000109776
0.000109778
0.000110432
0.000110453
0.000110459
0.000110474
0.000111357
8.89527e-05
0.000113219
0.000118023
0.00011057
8.9273e-05
0.000113743
2.35573e-05
2.35602e-05
0.000111359
0.000113226
8.89366e-05
0.000118033
0.000110578
0.000113754
8.9289e-05
7.16232e-05
7.16186e-05
0.000120189
7.17464e-05
7.17424e-05
8.91271e-05
4.98609e-05
8.88748e-05
4.98678e-05
2.35636e-05
2.35668e-05
8.91285e-05
4.98546e-05
8.88679e-05
4.98655e-05
0.000110853
0.000110855
0.000110856
0.000111721
0.000111746
0.000111754
0.000111771
0.000112981
8.97128e-05
0.00011584
0.00012111
0.000112215
9.00391e-05
0.0001164
2.35626e-05
2.35658e-05
0.000112978
0.000115847
8.97111e-05
0.000121121
0.000112219
0.000116409
9.00519e-05
7.19601e-05
7.19568e-05
0.000122799
7.20826e-05
7.20783e-05
8.96954e-05
4.98853e-05
8.94479e-05
4.98927e-05
2.35696e-05
2.3573e-05
8.96906e-05
4.98802e-05
8.9437e-05
4.98875e-05
0.000112228
0.000112231
0.000112232
0.00011329
0.000113319
0.000113329
0.000113347
0.000114556
9.04555e-05
0.00011863
0.000124229
0.000113809
9.07834e-05
0.000119216
2.35687e-05
2.35721e-05
0.000114557
0.000118635
9.04517e-05
0.000124242
0.00011381
0.000119225
9.07912e-05
7.22891e-05
7.22874e-05
0.000125281
7.24107e-05
7.24072e-05
9.02599e-05
4.9911e-05
9.00091e-05
4.99189e-05
2.35762e-05
2.35798e-05
9.02526e-05
4.99034e-05
9.00009e-05
4.99165e-05
0.000113877
0.000113883
0.000113882
0.000115116
0.000115149
0.000115161
0.000115178
0.000116094
9.11837e-05
0.000121575
0.000127363
0.000115359
9.1505e-05
0.000122185
2.35754e-05
2.3579e-05
0.000116086
0.000121579
9.118e-05
0.000127379
0.000115362
0.00012219
9.14962e-05
7.2612e-05
7.26094e-05
0.000127887
7.27316e-05
7.27294e-05
9.08137e-05
4.99377e-05
9.05615e-05
4.99459e-05
2.35833e-05
2.3587e-05
9.07967e-05
4.99289e-05
9.05593e-05
4.99438e-05
0.000115777
0.000115785
0.000115781
0.000117174
0.000117213
0.000117225
0.00011724
0.000117584
9.18888e-05
0.000124658
0.0001305
0.000116875
9.22037e-05
0.000125284
2.35826e-05
2.35864e-05
0.000117573
0.00012466
9.18862e-05
0.000130515
0.000116873
0.00012529
9.2209e-05
7.29267e-05
7.29234e-05
0.000130272
7.30481e-05
7.30464e-05
9.1352e-05
4.99615e-05
9.10949e-05
4.99762e-05
2.35906e-05
2.35944e-05
9.13493e-05
4.99564e-05
9.10896e-05
4.99708e-05
0.000117903
0.000117913
0.000117904
0.000119436
0.000119481
0.000119496
0.000119505
0.000119026
9.25724e-05
0.000127851
0.00013362
0.000118334
9.28877e-05
0.000128486
2.35902e-05
2.35939e-05
0.000119007
0.000127855
9.25549e-05
0.000133637
0.000118324
0.00012849
9.28854e-05
7.32329e-05
7.32304e-05
0.000132885
7.33548e-05
7.33529e-05
9.18675e-05
4.99885e-05
9.16165e-05
5.00029e-05
2.35979e-05
2.36016e-05
9.18655e-05
4.99874e-05
9.16141e-05
4.99955e-05
0.000120227
0.00012024
0.000120224
0.000120395
9.32241e-05
0.00013113
0.00013671
0.00011974
9.35296e-05
0.00013176
2.35977e-05
2.36013e-05
0.000120367
0.000131127
9.32084e-05
0.000136724
0.000119714
0.000131756
9.35277e-05
7.35332e-05
7.35294e-05
0.000135201
7.36459e-05
7.36457e-05
2.36184e-05
2.36153e-05
2.36162e-05
2.36131e-05
6.20537e-05
6.20514e-05
8.21632e-05
6.23698e-05
6.23776e-05
2.36096e-05
2.36125e-05
2.36074e-05
2.36104e-05
8.17589e-05
6.28109e-05
6.2809e-05
6.25053e-05
6.2496e-05
7.20373e-05
4.95751e-05
4.95787e-05
7.12079e-05
6.99098e-05
6.76284e-05
0.000122
9.79424e-05
6.82722e-05
0.00012103
6.8961e-05
6.99033e-05
6.76463e-05
0.000121998
9.7929e-05
6.8226e-05
0.000121027
6.89687e-05
7.2172e-05
4.95943e-05
4.95905e-05
7.29288e-05
7.21618e-05
4.95877e-05
4.95846e-05
7.29263e-05
7.04395e-05
9.73468e-05
6.9167e-05
0.000119164
6.85306e-05
0.000120101
7.1419e-05
7.04438e-05
9.73361e-05
6.91248e-05
0.000119161
6.85623e-05
0.000120098
7.13977e-05
6.20433e-05
6.20681e-05
8.20018e-05
6.23703e-05
6.23663e-05
2.36175e-05
2.36145e-05
2.36073e-05
2.36102e-05
8.19e-05
6.2801e-05
6.27972e-05
6.24919e-05
6.25077e-05
2.36089e-05
2.36117e-05
6.9941e-05
6.76542e-05
0.000122008
9.79655e-05
6.82292e-05
0.000121038
6.89375e-05
7.20243e-05
4.95671e-05
4.95801e-05
7.12059e-05
6.99143e-05
0.000121996
6.76451e-05
9.79314e-05
0.000121026
6.82357e-05
6.89581e-05
7.21723e-05
4.95887e-05
4.95855e-05
7.29241e-05
7.04161e-05
9.73688e-05
6.91346e-05
0.00011917
6.85629e-05
0.000120109
7.14394e-05
7.21668e-05
4.95891e-05
4.95766e-05
7.29258e-05
7.04374e-05
9.73387e-05
0.000119159
6.91373e-05
0.000120097
6.85511e-05
7.14098e-05
7.19967e-05
4.95716e-05
4.95849e-05
7.12294e-05
6.9916e-05
0.000122007
6.76183e-05
9.7941e-05
0.000121039
6.82706e-05
6.89541e-05
7.20271e-05
4.95725e-05
4.95799e-05
7.12139e-05
7.04277e-05
9.7375e-05
6.91371e-05
0.000119168
6.85525e-05
0.000120111
7.13951e-05
7.218e-05
4.95938e-05
4.95812e-05
7.28999e-05
7.04287e-05
9.7349e-05
0.000119172
6.91661e-05
0.000120108
6.85205e-05
7.14026e-05
7.2166e-05
4.959e-05
4.95772e-05
7.29147e-05
6.20589e-05
6.20648e-05
8.21769e-05
6.23587e-05
6.23642e-05
2.36175e-05
2.36144e-05
2.36065e-05
2.36094e-05
8.17488e-05
6.27915e-05
6.27965e-05
6.25063e-05
6.25126e-05
2.36088e-05
2.36117e-05
6.9931e-05
0.000122002
6.76507e-05
9.79518e-05
0.00012104
6.82223e-05
6.89418e-05
7.20026e-05
4.95719e-05
4.95852e-05
7.1231e-05
7.20014e-05
4.95712e-05
4.95751e-05
7.12283e-05
7.04031e-05
9.73744e-05
0.000119175
6.91598e-05
0.000120099
6.85228e-05
7.14397e-05
7.04166e-05
9.73595e-05
0.000119172
6.91228e-05
0.000120102
6.85592e-05
7.14166e-05
7.21823e-05
4.95941e-05
4.95815e-05
7.2905e-05
7.21792e-05
4.95841e-05
4.95807e-05
7.29033e-05
2.36161e-05
2.3613e-05
2.3615e-05
2.36117e-05
8.19655e-05
6.27998e-05
6.27876e-05
6.24934e-05
6.25061e-05
2.36073e-05
2.36102e-05
2.36061e-05
2.36091e-05
2.3607e-05
2.36042e-05
2.36048e-05
2.3602e-05
6.29261e-05
6.29223e-05
8.2254e-05
6.32213e-05
6.32249e-05
2.3599e-05
2.36016e-05
2.35968e-05
2.35995e-05
8.21455e-05
6.36158e-05
6.36116e-05
6.33403e-05
6.33347e-05
7.37725e-05
4.95933e-05
7.30605e-05
4.95961e-05
7.29112e-05
6.94193e-05
0.000118272
9.57394e-05
7.19242e-05
7.00322e-05
0.000117369
7.28991e-05
6.94468e-05
0.000118268
9.57279e-05
7.1933e-05
6.99949e-05
0.000117365
7.38956e-05
4.96103e-05
4.96075e-05
7.45817e-05
7.38904e-05
4.9604e-05
4.96016e-05
7.4575e-05
7.34258e-05
9.52744e-05
7.08739e-05
0.000115648
7.0283e-05
0.000116516
7.43969e-05
7.34254e-05
9.52643e-05
7.08379e-05
0.000115644
7.03076e-05
0.000116512
7.4413e-05
6.29174e-05
6.29331e-05
8.22353e-05
6.32193e-05
6.32143e-05
2.36061e-05
2.36034e-05
2.35967e-05
2.35993e-05
8.2146e-05
6.36069e-05
6.36127e-05
6.33293e-05
6.33419e-05
2.35982e-05
2.36008e-05
7.28993e-05
6.94386e-05
0.000118278
9.57619e-05
7.19085e-05
7.0037e-05
0.000117374
7.37721e-05
4.95856e-05
7.30567e-05
4.95976e-05
7.28928e-05
0.000118268
6.94316e-05
9.57334e-05
7.19283e-05
0.000117363
7.00427e-05
7.38923e-05
4.9605e-05
4.96022e-05
7.45619e-05
7.34319e-05
9.52967e-05
7.08756e-05
0.000115653
7.02848e-05
0.00011652
7.43881e-05
7.38859e-05
4.96052e-05
4.95938e-05
7.4575e-05
7.34332e-05
9.52706e-05
0.000115643
7.08772e-05
0.000116511
7.02755e-05
7.43852e-05
7.3745e-05
4.95902e-05
7.30677e-05
4.96021e-05
7.2895e-05
0.000118276
6.94152e-05
9.57422e-05
7.19275e-05
0.000117376
6.99983e-05
7.37598e-05
4.95864e-05
7.30644e-05
4.95983e-05
7.34173e-05
9.53019e-05
7.08434e-05
0.000115651
7.03059e-05
0.000116521
7.44243e-05
7.38975e-05
4.96097e-05
4.95984e-05
7.45559e-05
7.34245e-05
9.52812e-05
0.000115656
7.08421e-05
0.00011652
7.03029e-05
7.43766e-05
7.38951e-05
4.9606e-05
4.95948e-05
7.45689e-05
6.29312e-05
6.29345e-05
8.23292e-05
6.32058e-05
6.32124e-05
2.36061e-05
2.36033e-05
2.35959e-05
2.35985e-05
8.20608e-05
6.36073e-05
6.36127e-05
6.3336e-05
6.3345e-05
2.35982e-05
2.36007e-05
7.29124e-05
0.000118272
6.94437e-05
9.57484e-05
7.19143e-05
0.000117376
6.99932e-05
7.37499e-05
4.95906e-05
7.30704e-05
4.96026e-05
7.37483e-05
4.95895e-05
7.30672e-05
4.95925e-05
7.3398e-05
9.53019e-05
0.00011566
7.08841e-05
0.000116511
7.0277e-05
7.44354e-05
7.34136e-05
9.52871e-05
0.000115656
7.0841e-05
0.000116515
7.03024e-05
7.4406e-05
7.39015e-05
4.96103e-05
4.95988e-05
7.45415e-05
7.38984e-05
4.96014e-05
4.95976e-05
7.45397e-05
2.36046e-05
2.36019e-05
2.36035e-05
2.36006e-05
8.23109e-05
6.36133e-05
6.36018e-05
6.33371e-05
6.33413e-05
2.35967e-05
2.35993e-05
2.35955e-05
2.35982e-05
2.35965e-05
2.3594e-05
2.35944e-05
2.35919e-05
6.37364e-05
6.37328e-05
8.30838e-05
6.40036e-05
6.39991e-05
2.35894e-05
2.35917e-05
2.35873e-05
2.35896e-05
8.27957e-05
6.43687e-05
6.43697e-05
6.41122e-05
6.41133e-05
7.5318e-05
4.96091e-05
7.46632e-05
4.96115e-05
7.59088e-05
7.11203e-05
0.00011484
9.40566e-05
7.49187e-05
7.17003e-05
0.000114039
7.58924e-05
7.11408e-05
0.000114835
9.4046e-05
7.49082e-05
7.16588e-05
0.000114033
7.53983e-05
4.96247e-05
4.96222e-05
7.60223e-05
7.53956e-05
4.96189e-05
4.96157e-05
7.60185e-05
7.63862e-05
9.37211e-05
7.24921e-05
0.000112463
7.19322e-05
0.000113241
7.73681e-05
7.63865e-05
9.37126e-05
7.24556e-05
0.000112459
7.19542e-05
0.000113235
7.73704e-05
6.37266e-05
6.37366e-05
8.30481e-05
6.39938e-05
6.39934e-05
2.35957e-05
2.35933e-05
2.35871e-05
2.35894e-05
8.28226e-05
6.43644e-05
6.43609e-05
6.41031e-05
6.41105e-05
2.35886e-05
2.35909e-05
7.58665e-05
7.11201e-05
0.000114844
9.40785e-05
7.49248e-05
7.16948e-05
0.000114043
7.5317e-05
4.96019e-05
7.46594e-05
4.96103e-05
7.58669e-05
0.000114835
7.11164e-05
9.40553e-05
7.49246e-05
0.000114034
7.16636e-05
7.54041e-05
4.96193e-05
4.96172e-05
7.60057e-05
7.64056e-05
9.37426e-05
7.24928e-05
0.000112467
7.19327e-05
0.000113242
7.73399e-05
7.53918e-05
4.96154e-05
4.96129e-05
7.6017e-05
7.63981e-05
9.37221e-05
0.000112457
7.24569e-05
0.000113233
7.19532e-05
7.73685e-05
7.52941e-05
4.96065e-05
7.46665e-05
4.96166e-05
7.58713e-05
0.000114844
7.11381e-05
9.40621e-05
7.49213e-05
0.000114047
7.16608e-05
7.53079e-05
4.96026e-05
7.46658e-05
4.9613e-05
7.63613e-05
9.37475e-05
7.24677e-05
0.000112455
7.19503e-05
0.000113245
7.73516e-05
7.5396e-05
4.96231e-05
4.96139e-05
7.59954e-05
7.6394e-05
9.37313e-05
0.000112466
7.24638e-05
0.000113246
7.19534e-05
7.73334e-05
7.53961e-05
4.96186e-05
4.96104e-05
7.60089e-05
6.37333e-05
6.37366e-05
8.28597e-05
6.39876e-05
6.39944e-05
2.35956e-05
2.35932e-05
2.35863e-05
2.35886e-05
8.29881e-05
6.43545e-05
6.43624e-05
6.41074e-05
6.41161e-05
2.35885e-05
2.35908e-05
7.58896e-05
0.000114838
7.11364e-05
9.40657e-05
7.49001e-05
0.000114047
7.16595e-05
7.52859e-05
4.96067e-05
7.46799e-05
4.96158e-05
7.53029e-05
4.96024e-05
7.46758e-05
4.9611e-05
7.63645e-05
9.37508e-05
0.000112467
7.24967e-05
0.000113238
7.19229e-05
7.73657e-05
7.63777e-05
9.37345e-05
0.000112468
7.24546e-05
0.000113241
7.19496e-05
7.73778e-05
7.54113e-05
4.96232e-05
4.96159e-05
7.59866e-05
7.53977e-05
4.96181e-05
4.96082e-05
7.59992e-05
2.35942e-05
2.35918e-05
2.3593e-05
2.35906e-05
8.31076e-05
6.4363e-05
6.43546e-05
6.41061e-05
6.41063e-05
2.35871e-05
2.35894e-05
2.35859e-05
2.35882e-05
2.35871e-05
2.3585e-05
2.3585e-05
2.35829e-05
6.44762e-05
6.44728e-05
8.39868e-05
6.47276e-05
6.47206e-05
2.35808e-05
2.35827e-05
2.35787e-05
2.35806e-05
8.41091e-05
6.50652e-05
6.50597e-05
6.48259e-05
6.4823e-05
7.66791e-05
4.96229e-05
7.6085e-05
4.96245e-05
7.88242e-05
7.272e-05
0.000111733
9.28893e-05
7.78406e-05
7.32668e-05
0.000111
7.88261e-05
7.27381e-05
0.000111727
9.288e-05
7.78347e-05
7.32655e-05
0.000110998
7.67401e-05
4.96372e-05
4.96348e-05
7.73092e-05
7.67363e-05
4.96313e-05
4.96288e-05
7.72934e-05
7.92774e-05
9.26832e-05
7.40145e-05
0.000109631
7.34854e-05
0.000110317
8.02563e-05
7.92704e-05
9.26737e-05
7.40097e-05
0.00010963
7.34872e-05
0.000110313
8.02313e-05
6.44664e-05
6.44699e-05
8.41906e-05
6.47157e-05
6.47127e-05
2.35862e-05
2.35842e-05
2.35785e-05
2.35805e-05
8.39582e-05
6.50549e-05
6.50511e-05
6.48162e-05
6.48219e-05
2.35799e-05
2.35819e-05
7.87993e-05
7.27159e-05
0.000111735
9.29074e-05
7.78633e-05
7.32696e-05
0.000111005
7.66769e-05
4.96196e-05
7.60815e-05
4.96224e-05
7.88083e-05
0.000111725
7.27403e-05
9.28894e-05
7.78442e-05
0.000110995
7.32306e-05
7.67459e-05
4.9632e-05
4.96295e-05
7.72929e-05
7.92963e-05
9.27012e-05
7.40177e-05
0.000109634
7.34781e-05
0.000110321
8.02387e-05
7.67336e-05
4.96293e-05
4.96247e-05
7.73028e-05
7.92835e-05
9.26831e-05
0.000109627
7.39797e-05
0.000110312
7.35046e-05
8.0239e-05
7.66561e-05
4.96207e-05
7.60848e-05
4.96294e-05
7.87876e-05
0.000111739
7.27333e-05
9.28981e-05
7.78559e-05
0.000111005
7.32405e-05
7.66696e-05
4.96187e-05
7.60855e-05
4.96235e-05
7.92667e-05
9.27041e-05
7.40087e-05
0.000109622
7.34844e-05
0.000110327
8.02275e-05
7.67353e-05
4.9635e-05
4.9627e-05
7.72835e-05
7.92909e-05
9.26949e-05
0.000109636
7.40198e-05
0.000110325
7.34957e-05
8.02175e-05
7.67368e-05
4.9629e-05
4.96264e-05
7.72966e-05
6.44701e-05
6.44776e-05
8.42159e-05
6.47081e-05
6.47173e-05
2.35862e-05
2.35841e-05
2.35777e-05
2.35797e-05
8.39589e-05
6.50479e-05
6.50575e-05
6.482e-05
6.48272e-05
2.35799e-05
2.35818e-05
7.88225e-05
0.000111733
7.27356e-05
9.2901e-05
7.78286e-05
0.000111006
7.32263e-05
7.66478e-05
4.962e-05
7.61003e-05
4.96299e-05
7.66597e-05
4.96152e-05
7.60853e-05
4.96243e-05
7.92757e-05
9.27092e-05
0.000109631
7.40133e-05
0.000110318
7.34818e-05
8.02505e-05
7.92686e-05
9.26974e-05
0.000109636
7.39992e-05
0.000110318
7.35003e-05
8.02393e-05
7.67502e-05
4.96355e-05
4.96273e-05
7.72771e-05
7.67359e-05
4.96301e-05
4.96217e-05
7.72865e-05
2.35848e-05
2.35827e-05
2.35836e-05
2.35815e-05
8.43638e-05
6.50577e-05
6.50478e-05
6.48201e-05
6.48168e-05
2.35785e-05
2.35805e-05
2.35773e-05
2.35792e-05
2.35786e-05
2.35768e-05
2.35765e-05
2.35747e-05
6.51626e-05
6.51598e-05
8.52593e-05
6.53935e-05
6.539e-05
2.35731e-05
2.35747e-05
2.3571e-05
2.35726e-05
8.5829e-05
6.57088e-05
6.57058e-05
6.54869e-05
6.54834e-05
7.78861e-05
4.96342e-05
7.73635e-05
4.96372e-05