/*--------------------------------*- C++ -*----------------------------------*\
| =========                 |                                                 |
| \\      /  F ield         | OpenFOAM: The Open Source CFD Toolbox           |
|  \\    /   O peration     | Version:  2312                                  |
|   \\  /    A nd           | Website:  www.openfoam.com                      |
|    \\/     M anipulation  |                                                 |
\*---------------------------------------------------------------------------*/
FoamFile
{
    version     2.0;
    format      ascii;
    arch        "LSB;label=32;scalar=64";
    class       volScalarField;
    location    "250";
    object      p;
}
// * * * * * * * * * * * * * * * * * * * * * * * * * * * * * * * * * * * * * //

dimensions      [0 2 -2 0 0 0 0];

internalField   nonuniform List<scalar> 
42840
(
0.00260152
0.00260152
0.00260152
0.00260337
0.00256207
0.00256207
0.00256207
0.00256391
0.00252285
0.00252285
0.00252285
0.00252468
0.00248385
0.00248384
0.00248384
0.00248566
0.00244505
0.00244504
0.00244504
0.00244684
0.00240645
0.00240643
0.00240643
0.00240822
0.00236804
0.00236802
0.00236802
0.00236979
0.00232981
0.0023298
0.00232979
0.00233155
0.00229177
0.00229175
0.00229175
0.00229349
0.0022539
0.00225388
0.00225388
0.0022556
0.0022162
0.00221617
0.00221617
0.00221788
0.00217866
0.00217863
0.00217863
0.00218032
0.00214127
0.00214124
0.00214124
0.00214291
0.00210403
0.002104
0.002104
0.00210566
0.00206694
0.0020669
0.0020669
0.00206855
0.00202998
0.00202994
0.00202994
0.00203158
0.00199315
0.00199311
0.00199311
0.00199474
0.00195645
0.0019564
0.0019564
0.00195802
0.00191986
0.00191981
0.00191981
0.00192142
0.00188337
0.00188331
0.00188331
0.00188492
0.00184698
0.00184692
0.00184692
0.00184852
0.00181066
0.0018106
0.0018106
0.0018122
0.00177442
0.00177435
0.00177435
0.00177594
0.00173823
0.00173816
0.00173816
0.00173975
0.00170207
0.001702
0.00170199
0.00170358
0.00260337
0.00257014
0.00260151
0.00260151
0.00257191
0.00257191
0.00260337
0.00257015
0.00260151
0.00260152
0.00257191
0.00257191
0.00260152
0.00257191
0.00257191
0.00260337
0.00257015
0.00260152
0.00257191
0.00257191
0.00257015
0.00256391
0.00253089
0.00256207
0.00256207
0.00253263
0.00253263
0.00256391
0.00253089
0.00256207
0.00256207
0.00253263
0.00253263
0.00256207
0.00253263
0.00253263
0.00256391
0.00253089
0.00256207
0.00253263
0.00253263
0.00253089
0.00252468
0.00249184
0.00252285
0.00252285
0.00249357
0.00249357
0.00252468
0.00249184
0.00252285
0.00252285
0.00249357
0.00249357
0.00252285
0.00249357
0.00249357
0.00252468
0.00249184
0.00252285
0.00249357
0.00249357
0.00249184
0.00248566
0.002453
0.00248384
0.00248384
0.00245472
0.00245472
0.00248565
0.002453
0.00248384
0.00248384
0.00245472
0.00245472
0.00248384
0.00245472
0.00245472
0.00248565
0.002453
0.00248384
0.00245472
0.00245472
0.002453
0.00244684
0.00241436
0.00244504
0.00244504
0.00241607
0.00241607
0.00244684
0.00241436
0.00244504
0.00244504
0.00241606
0.00241606
0.00244504
0.00241606
0.00241606
0.00244684
0.00241436
0.00244504
0.00241606
0.00241606
0.00241435
0.00240822
0.0023759
0.00240643
0.00240643
0.00237761
0.00237761
0.00240822
0.0023759
0.00240643
0.00240643
0.00237761
0.00237761
0.00240643
0.00237761
0.00237761
0.00240822
0.0023759
0.00240643
0.00237761
0.00237761
0.0023759
0.00236979
0.00233764
0.00236802
0.00236802
0.00233933
0.00233933
0.00236979
0.00233764
0.00236802
0.00236802
0.00233933
0.00233933
0.00236802
0.00233933
0.00233933
0.00236979
0.00233764
0.00236802
0.00233933
0.00233933
0.00233764
0.00233155
0.00229955
0.0023298
0.0023298
0.00230124
0.00230124
0.00233155
0.00229955
0.0023298
0.0023298
0.00230124
0.00230124
0.0023298
0.00230124
0.00230124
0.00233155
0.00229955
0.0023298
0.00230125
0.00230124
0.00229955
0.00229349
0.00226164
0.00229175
0.00229175
0.00226333
0.00226333
0.00229349
0.00226164
0.00229175
0.00229175
0.00226333
0.00226333
0.00229175
0.00226333
0.00226333
0.00229349
0.00226164
0.00229175
0.00226333
0.00226333
0.00226164
0.0022556
0.00222389
0.00225388
0.00225388
0.00222558
0.00222558
0.0022556
0.00222389
0.00225388
0.00225388
0.00222558
0.00222558
0.00225388
0.00222558
0.00222558
0.0022556
0.00222389
0.00225388
0.00222558
0.00222558
0.00222389
0.00221787
0.00218631
0.00221617
0.00221617
0.002188
0.002188
0.00221787
0.00218631
0.00221617
0.00221617
0.002188
0.002188
0.00221617
0.002188
0.002188
0.00221787
0.00218631
0.00221617
0.002188
0.002188
0.00218631
0.00218031
0.00214888
0.00217863
0.00217863
0.00215057
0.00215057
0.00218031
0.00214888
0.00217863
0.00217863
0.00215057
0.00215057
0.00217863
0.00215057
0.00215057
0.00218031
0.00214888
0.00217863
0.00215057
0.00215057
0.00214888
0.00214291
0.00211161
0.00214124
0.00214124
0.0021133
0.0021133
0.00214291
0.00211161
0.00214124
0.00214124
0.0021133
0.0021133
0.00214124
0.0021133
0.0021133
0.00214291
0.00211161
0.00214124
0.0021133
0.0021133
0.00211161
0.00210566
0.00207448
0.002104
0.002104
0.00207616
0.00207616
0.00210566
0.00207448
0.002104
0.002104
0.00207616
0.00207616
0.002104
0.00207616
0.00207616
0.00210566
0.00207448
0.002104
0.00207616
0.00207617
0.00207448
0.00206855
0.00203749
0.0020669
0.0020669
0.00203917
0.00203917
0.00206855
0.00203749
0.0020669
0.0020669
0.00203917
0.00203917
0.0020669
0.00203917
0.00203917
0.00206855
0.00203749
0.0020669
0.00203917
0.00203917
0.00203749
0.00203158
0.00200063
0.00202994
0.00202994
0.00200231
0.00200231
0.00203158
0.00200063
0.00202994
0.00202994
0.00200231
0.00200231
0.00202994
0.00200231
0.00200231
0.00203158
0.00200063
0.00202994
0.00200231
0.00200231
0.00200063
0.00199474
0.00196389
0.00199311
0.00199311
0.00196557
0.00196557
0.00199474
0.00196389
0.00199311
0.00199311
0.00196557
0.00196557
0.00199311
0.00196557
0.00196557
0.00199474
0.00196389
0.00199311
0.00196557
0.00196557
0.00196389
0.00195802
0.00192727
0.0019564
0.0019564
0.00192894
0.00192894
0.00195802
0.00192727
0.0019564
0.0019564
0.00192894
0.00192894
0.0019564
0.00192894
0.00192894
0.00195802
0.00192727
0.0019564
0.00192894
0.00192894
0.00192727
0.00192142
0.00189076
0.00191981
0.00191981
0.00189243
0.00189243
0.00192142
0.00189076
0.00191981
0.00191981
0.00189243
0.00189243
0.00191981
0.00189243
0.00189243
0.00192141
0.00189076
0.00191981
0.00189243
0.00189243
0.00189076
0.00188492
0.00185434
0.00188331
0.00188331
0.00185601
0.00185601
0.00188492
0.00185434
0.00188331
0.00188331
0.00185601
0.00185601
0.00188331
0.00185601
0.00185601
0.00188492
0.00185434
0.00188331
0.00185601
0.00185601
0.00185434
0.00184852
0.00181801
0.00184692
0.00184692
0.00181967
0.00181967
0.00184851
0.00181801
0.00184692
0.00184692
0.00181967
0.00181967
0.00184692
0.00181967
0.00181967
0.00184852
0.00181801
0.00184692
0.00181967
0.00181967
0.00181801
0.0018122
0.00178175
0.0018106
0.0018106
0.00178341
0.00178341
0.0018122
0.00178175
0.0018106
0.0018106
0.00178341
0.00178341
0.0018106
0.00178341
0.00178341
0.0018122
0.00178175
0.0018106
0.00178341
0.00178341
0.00178175
0.00177594
0.00174554
0.00177435
0.00177435
0.0017472
0.0017472
0.00177594
0.00174554
0.00177435
0.00177435
0.0017472
0.0017472
0.00177435
0.0017472
0.0017472
0.00177594
0.00174554
0.00177435
0.0017472
0.0017472
0.00174554
0.00173975
0.00170937
0.00173816
0.00173816
0.00171103
0.00171103
0.00173975
0.00170938
0.00173816
0.00173816
0.00171103
0.00171103
0.00173816
0.00171103
0.00171103
0.00173974
0.00170937
0.00173816
0.00171103
0.00171103
0.00170937
0.00170358
0.001702
0.001702
0.00170358
0.00170199
0.00170199
0.00170199
0.00170358
0.00170199
0.00258915
0.00260368
0.00258905
0.00260375
0.00260366
0.00258902
0.00258915
0.00260368
0.00258905
0.00260375
0.00260152
0.00260152
0.00260152
0.00257191
0.00257191
0.00257191
0.00257191
0.00258945
0.00260367
0.00260152
0.00259163
0.00258924
0.00259163
0.00260373
0.00260366
0.00258902
0.00258945
0.00260152
0.00260367
0.00259163
0.00259163
0.00258924
0.00260373
0.0026037
0.0026037
0.00258986
0.00258909
0.00258909
0.00254977
0.00256422
0.00256429
0.00254968
0.00256421
0.00254965
0.00254977
0.00256422
0.00256429
0.00254968
0.00256207
0.00256207
0.00256207
0.00253264
0.00253264
0.00253264
0.00253264
0.00255005
0.0025642
0.00256207
0.00255224
0.00256425
0.00254986
0.00255224
0.00256421
0.00254965
0.00255005
0.00256207
0.00256421
0.00255224
0.00256426
0.00255224
0.00254986
0.00256424
0.00256424
0.00255049
0.00254971
0.00254971
0.00251061
0.00252499
0.00252505
0.00251052
0.00252497
0.00251049
0.00251061
0.00252499
0.00252505
0.00251052
0.00252285
0.00252285
0.00252285
0.00249358
0.00249358
0.00249358
0.00249358
0.00251087
0.00252497
0.00252285
0.00251307
0.00252501
0.00251069
0.00251307
0.00252497
0.00251049
0.00251087
0.00252285
0.00252497
0.00251307
0.00252501
0.00251307
0.00251069
0.00252501
0.00252501
0.00251134
0.00251055
0.00251055
0.00247166
0.00248597
0.00248602
0.00247158
0.00248596
0.00247155
0.00247166
0.00248597
0.00248602
0.00247158
0.00248385
0.00248385
0.00248385
0.00245473
0.00245473
0.00245473
0.00245473
0.00247191
0.00248594
0.00248384
0.00247412
0.00248598
0.00247173
0.00247412
0.00248596
0.00247155
0.00247191
0.00248384
0.00248595
0.00247412
0.00248598
0.00247412
0.00247173
0.00248599
0.00248599
0.00247239
0.0024716
0.0024716
0.00243291
0.00244716
0.00244721
0.00243283
0.00244715
0.00243281
0.00243291
0.00244716
0.00244721
0.00243283
0.00244505
0.00244505
0.00244505
0.00241608
0.00241608
0.00241608
0.00241608
0.00243315
0.00244713
0.00244504
0.00243537
0.00244715
0.00243298
0.00243537
0.00244715
0.00243281
0.00243315
0.00244504
0.00244713
0.00243537
0.00244715
0.00243537
0.00243298
0.00244717
0.00244717
0.00243365
0.00243285
0.00243285
0.00239436
0.00240854
0.00240859
0.00239429
0.00240853
0.00239427
0.00239436
0.00240854
0.00240859
0.00239429
0.00240645
0.00240645
0.00240645
0.00237762
0.00237762
0.00237762
0.00237762
0.00239459
0.00240851
0.00240643
0.00239681
0.00240853
0.00239443
0.00239681
0.00240853
0.00239427
0.00239459
0.00240643
0.00240851
0.00239681
0.00240853
0.00239681
0.00239442
0.00240856
0.00240856
0.0023951
0.00239431
0.00239431
0.002356
0.00237012
0.00237016
0.00235593
0.00237011
0.00235591
0.002356
0.00237012
0.00237016
0.00235593
0.00236804
0.00236804
0.00236804
0.00233935
0.00233935
0.00233935
0.00233935
0.00235622
0.00237009
0.00236802
0.00235845
0.0023701
0.00235606
0.00235845
0.00237011
0.00235591
0.00235622
0.00236802
0.00237009
0.00235845
0.0023701
0.00235845
0.00235606
0.00237014
0.00237014
0.00235675
0.00235595
0.00235595
0.00231783
0.00233188
0.00233193
0.00231776
0.00233188
0.00231774
0.00231783
0.00233188
0.00233193
0.00231776
0.00232981
0.00232981
0.00232981
0.00230127
0.00230127
0.00230127
0.00230127
0.00231804
0.00233185
0.0023298
0.00232027
0.00233186
0.00231788
0.00232027
0.00233188
0.00231774
0.00231804
0.0023298
0.00233185
0.00232027
0.00233186
0.00232027
0.00231789
0.0023319
0.0023319
0.00231857
0.00231778
0.00231778
0.00227983
0.00229383
0.00229387
0.00227977
0.00229382
0.00227975
0.00227983
0.00229383
0.00229387
0.00227977
0.00229177
0.00229177
0.00229177
0.00226335
0.00226335
0.00226335
0.00226335
0.00228003
0.0022938
0.00229176
0.00228227
0.0022938
0.00227989
0.00228227
0.00229382
0.00227975
0.00228003
0.00229176
0.0022938
0.00228227
0.0022938
0.00228227
0.00227989
0.00229384
0.00229384
0.00228057
0.00227978
0.00227978
0.002242
0.00225595
0.00225598
0.00224195
0.00225594
0.00224193
0.002242
0.00225595
0.00225598
0.00224195
0.0022539
0.0022539
0.0022539
0.00222561
0.00222561
0.00222561
0.00222561
0.0022422
0.00225591
0.00225389
0.00224444
0.00225592
0.00224206
0.00224445
0.00225594
0.00224193
0.0022422
0.00225389
0.00225591
0.00224444
0.00225592
0.00224445
0.00224206
0.00225596
0.00225596
0.00224274
0.00224196
0.00224196
0.00220435
0.00221823
0.00221826
0.00220429
0.00221823
0.00220427
0.00220435
0.00221823
0.00221826
0.00220429
0.0022162
0.0022162
0.0022162
0.00218803
0.00218803
0.00218803
0.00218803
0.00220454
0.0022182
0.00221618
0.00220677
0.0022182
0.0022044
0.00220678
0.00221823
0.00220427
0.00220454
0.00221618
0.0022182
0.00220677
0.0022182
0.00220678
0.0022044
0.00221824
0.00221824
0.00220508
0.0022043
0.0022043
0.00216685
0.00218068
0.00218071
0.00216679
0.00218067
0.00216678
0.00216685
0.00218068
0.00218071
0.00216679
0.00217866
0.00217866
0.00217866
0.0021506
0.0021506
0.0021506
0.0021506
0.00216703
0.00218065
0.00217864
0.00216927
0.00218065
0.0021669
0.00216928
0.00218067
0.00216678
0.00216703
0.00217864
0.00218065
0.00216927
0.00218065
0.00216928
0.0021669
0.00218069
0.00218069
0.00216758
0.0021668
0.00216681
0.0021295
0.00214328
0.00214331
0.00212945
0.00214328
0.00212944
0.0021295
0.00214328
0.00214331
0.00212945
0.00214127
0.00214127
0.00214127
0.00211333
0.00211333
0.00211333
0.00211333
0.00212968
0.00214325
0.00214126
0.00213192
0.00214325
0.00212955
0.00213193
0.00214328
0.00212944
0.00212968
0.00214126
0.00214325
0.00213192
0.00214325
0.00213194
0.00212955
0.00214329
0.00214329
0.00213023
0.00212946
0.00212946
0.0020923
0.00210603
0.00210606
0.00209226
0.00210603
0.00209224
0.0020923
0.00210603
0.00210606
0.00209226
0.00210403
0.00210403
0.00210403
0.0020762
0.0020762
0.0020762
0.0020762
0.00209248
0.002106
0.00210402
0.00209471
0.002106
0.00209236
0.00209473
0.00210603
0.00209224
0.00209248
0.00210402
0.002106
0.00209471
0.002106
0.00209473
0.00209235
0.00210605
0.00210605
0.00209303
0.00209227
0.00209227
0.00205525
0.00206893
0.00206896
0.0020552
0.00206893
0.00205519
0.00205525
0.00206893
0.00206896
0.0020552
0.00206694
0.00206694
0.00206694
0.00203921
0.00203921
0.00203921
0.00203921
0.00205542
0.0020689
0.00206693
0.00205765
0.0020689
0.0020553
0.00205768
0.00206893
0.00205519
0.00205542
0.00206693
0.0020689
0.00205765
0.0020689
0.00205768
0.0020553
0.00206894
0.00206895
0.00205597
0.00205521
0.00205521
0.00201833
0.00203197
0.00203199
0.00201828
0.00203197
0.00201827
0.00201833
0.00203197
0.00203199
0.00201828
0.00202998
0.00202998
0.00202998
0.00200235
0.00200235
0.00200235
0.00200235
0.0020185
0.00203194
0.00202997
0.00202072
0.00203193
0.00201838
0.00202075
0.00203197
0.00201827
0.0020185
0.00202997
0.00203194
0.00202072
0.00203193
0.00202075
0.00201838
0.00203198
0.00203198
0.00201904
0.00201829
0.00201829
0.00198153
0.00199513
0.00199515
0.00198149
0.00199513
0.00198148
0.00198153
0.00199513
0.00199515
0.00198149
0.00199315
0.00199315
0.00199315
0.00196561
0.00196561
0.00196561
0.00196561
0.0019817
0.0019951
0.00199314
0.00198392
0.00199509
0.00198158
0.00198395
0.00199513
0.00198148
0.0019817
0.00199314
0.0019951
0.00198392
0.00199509
0.00198395
0.00198158
0.00199514
0.00199514
0.00198224
0.0019815
0.0019815
0.00194486
0.00195842
0.00195844
0.00194482
0.00195842
0.00194481
0.00194486
0.00195842
0.00195844
0.00194482
0.00195645
0.00195645
0.00195645
0.00192899
0.00192899
0.00192899
0.00192899
0.00194503
0.00195839
0.00195644
0.00194724
0.00195838
0.00194491
0.00194728
0.00195842
0.00194481
0.00194503
0.00195644
0.00195839
0.00194724
0.00195838
0.00194728
0.00194491
0.00195843
0.00195843
0.00194557
0.00194483
0.00194483
0.0019083
0.00192181
0.00192184
0.00190826
0.00192183
0.00190826
0.0019083
0.00192182
0.00192184
0.00190826
0.00191986
0.00191986
0.00191986
0.00189248
0.00189248
0.00189248
0.00189248
0.00190846
0.00192179
0.00191984
0.00191067
0.00192178
0.00190835
0.00191071
0.00192182
0.00190825
0.00190846
0.00191984
0.00192179
0.00191067
0.00192178
0.00191071
0.00190835
0.00192183
0.00192183
0.001909
0.00190827
0.00190827
0.00187184
0.00188533
0.00188534
0.00187181
0.00188533
0.0018718
0.00187184
0.00188533
0.00188534
0.00187181
0.00188337
0.00188337
0.00188337
0.00185607
0.00185607
0.00185607
0.00185607
0.001872
0.0018853
0.00188335
0.00187421
0.00188529
0.00187189
0.00187425
0.00188533
0.0018718
0.001872
0.00188335
0.0018853
0.00187421
0.00188529
0.00187425
0.00187189
0.00188534
0.00188534
0.00187254
0.00187181
0.00187181
0.00183547
0.00184893
0.00184894
0.00183544
0.00184893
0.00183543
0.00183547
0.00184893
0.00184894
0.00183544
0.00184698
0.00184698
0.00184698
0.00181974
0.00181974
0.00181974
0.00181973
0.00183563
0.0018489
0.00184696
0.00183783
0.00184889
0.00183552
0.00183787
0.00184893
0.00183543
0.00183563
0.00184696
0.0018489
0.00183783
0.00184889
0.00183787
0.00183552
0.00184894
0.00184894
0.00183616
0.00183545
0.00183545
0.00179918
0.00181261
0.00181263
0.00179915
0.00181262
0.00179914
0.00179918
0.00181261
0.00181263
0.00179915
0.00181066
0.00181066
0.00181066
0.00178348
0.00178348
0.00178347
0.00178347
0.00179933
0.00181258
0.00181064
0.00180153
0.00181257
0.00179923
0.00180158
0.00181262
0.00179914
0.00179933
0.00181064
0.00181259
0.00180153
0.00181257
0.00180158
0.00179923
0.00181263
0.00181263
0.00179987
0.00179916
0.00179916
0.00176295
0.00177637
0.00177638
0.00176292
0.00177637
0.00176292
0.00176295
0.00177637
0.00177638
0.00176292
0.00177442
0.00177442
0.00177442
0.00174727
0.00174727
0.00174727
0.00174727
0.0017631
0.00177634
0.0017744
0.0017653
0.00177632
0.001763
0.00176534
0.00177637
0.00176292
0.0017631
0.0017744
0.00177634
0.0017653
0.00177632
0.00176534
0.001763
0.00177638
0.00177638
0.00176364
0.00176293
0.00176293
0.00172677
0.00174018
0.00174019
0.00172675
0.00174018
0.00172674
0.00172677
0.00174017
0.00174019
0.00172675
0.00173823
0.00173822
0.00173823
0.0017111
0.0017111
0.0017111
0.0017111
0.00172692
0.00174015
0.0017382
0.00172911
0.00174013
0.00172682
0.00172916
0.00174018
0.00172674
0.00172692
0.0017382
0.00174015
0.00172911
0.00174013
0.00172916
0.00172682
0.00174019
0.00174019
0.00172745
0.00172675
0.00172675
0.00169063
0.00170402
0.00170403
0.0016906
0.00170402
0.00169059
0.00169062
0.00170402
0.00170403
0.0016906
0.00170207
0.00170207
0.00170207
0.00169077
0.00170399
0.00170204
0.00169296
0.00170397
0.00169067
0.001693
0.00170402
0.00169059
0.00169077
0.00170204
0.00170399
0.00169296
0.00170397
0.001693
0.00169067
0.00170403
0.00170403
0.0016913
0.00169061
0.00169061
0.00260366
0.00258902
0.00260366
0.00258902
0.0026037
0.0026037
0.00258986
0.00258909
0.00258909
0.00256931
0.0025839
0.00256931
0.0025839
0.00258361
0.00256937
0.00256937
0.00258394
0.00258394
0.00258915
0.00260368
0.00258905
0.00260375
0.00258945
0.00260367
0.00260152
0.00259163
0.00258924
0.00259163
0.00260373
0.00258945
0.00260367
0.00260152
0.00259163
0.00258924
0.00259163
0.00260373
0.00258399
0.00256934
0.00258392
0.00256944
0.00258399
0.00256934
0.00258392
0.00256944
0.00258396
0.00258176
0.00256952
0.00257191
0.00258391
0.00258176
0.00256972
0.00258396
0.00258176
0.00256952
0.00257191
0.00258391
0.00258176
0.00256972
0.0026037
0.0026037
0.00258986
0.00258909
0.00258909
0.00260366
0.00258902
0.00256931
0.0025839
0.00258361
0.00256937
0.00256937
0.00258394
0.00258394
0.00256931
0.0025839
0.00258945
0.00260367
0.00260152
0.00259163
0.00258924
0.00259163
0.00260373
0.00258915
0.00260368
0.00258905
0.00260375
0.00258945
0.00260152
0.00260367
0.00259163
0.00259163
0.00258924
0.00260373
0.00258399
0.00256934
0.00258392
0.00256944
0.00258396
0.00258176
0.00256952
0.00257191
0.00258391
0.00258176
0.00256972
0.00258399
0.00256934
0.00258392
0.00256944
0.00258396
0.00258176
0.00257191
0.00256952
0.00258176
0.00258391
0.00256972
0.00258916
0.00260368
0.00258906
0.00260375
0.00258945
0.00260152
0.00260367
0.00259163
0.00259163
0.00258924
0.00260373
0.00258915
0.00260368
0.00258905
0.00260375
0.00258396
0.00258176
0.00256952
0.00257191
0.00258391
0.00258176
0.00256972
0.00258399
0.00256934
0.00258392
0.00256944
0.00258396
0.00258176
0.00257191
0.00256952
0.00258176
0.0025839
0.00256972
0.00258399
0.00256934
0.00258392
0.00256944
0.0026037
0.0026037
0.00258986
0.00258909
0.00258909
0.00260366
0.00258902
0.00256931
0.0025839
0.00258361
0.00256937
0.00256937
0.00258394
0.00258394
0.00256931
0.0025839
0.00258945
0.00260152
0.00260367
0.00259163
0.00259163
0.00258924
0.00260373
0.00258916
0.00260368
0.00258906
0.00260375
0.00258916
0.00260368
0.00258906
0.00260375
0.00258396
0.00258176
0.00257191
0.00256952
0.00258176
0.00258391
0.00256972
0.00258396
0.00258176
0.00257191
0.00256952
0.00258176
0.00258391
0.00256972
0.00258399
0.00256934
0.00258392
0.00256944
0.00258399
0.00256934
0.00258392
0.00256944
0.00260366
0.00258902
0.00260366
0.00258902
0.00258361
0.00256937
0.00256937
0.00258394
0.00258395
0.00256931
0.0025839
0.00256931
0.00258391
0.0025642
0.00254965
0.0025642
0.00254965
0.00256424
0.00256424
0.00255049
0.00254971
0.00254971
0.00253004
0.00254456
0.00253004
0.00254456
0.00254427
0.0025301
0.0025301
0.0025446
0.0025446
0.00254977
0.00256422
0.00256429
0.00254968
0.00255005
0.0025642
0.00256207
0.00255224
0.00256425
0.00254986
0.00255224
0.00255005
0.0025642
0.00256207
0.00255224
0.00256426
0.00254986
0.00255224
0.00254464
0.00253007
0.00254458
0.00253016
0.00254464
0.00253007
0.00254458
0.00253016
0.0025446
0.00254243
0.00253025
0.00253263
0.00254456
0.00254243
0.00253043
0.0025446
0.00254243
0.00253025
0.00253263
0.00254456
0.00254243
0.00253043
0.00256424
0.00256424
0.00255049
0.00254971
0.00254971
0.00256421
0.00254965
0.00253004
0.00254456
0.00254427
0.0025301
0.0025301
0.0025446
0.0025446
0.00253004
0.00254456
0.00255005
0.0025642
0.00256207
0.00255224
0.00256425
0.00254986
0.00255224
0.00254977
0.00256422
0.00256429
0.00254968
0.00255005
0.00256207
0.00256421
0.00255224
0.00256425
0.00255224
0.00254986
0.00254464
0.00253007
0.00254458
0.00253016
0.0025446
0.00254243
0.00253025
0.00253263
0.00254456
0.00254243
0.00253043
0.00254464
0.00253007
0.00254458
0.00253016
0.0025446
0.00254243
0.00253263
0.00253025
0.00254243
0.00254456
0.00253043
0.00254977
0.00256422
0.00256429
0.00254968
0.00255005
0.00256207
0.0025642
0.00255224
0.00256425
0.00255224
0.00254986
0.00254977
0.00256422
0.00256429
0.00254968
0.0025446
0.00254243
0.00253025
0.00253263
0.00254456
0.00254243
0.00253043
0.00254464
0.00253007
0.00254458
0.00253016
0.0025446
0.00254243
0.00253263
0.00253025
0.00254243
0.00254456
0.00253044
0.00254464
0.00253007
0.00254458
0.00253016
0.00256424
0.00256424
0.00255049
0.00254971
0.00254971
0.00256421
0.00254965
0.00253004
0.00254456
0.00254427
0.0025301
0.0025301
0.0025446
0.0025446
0.00253004
0.00254456
0.00255005
0.00256207
0.00256421
0.00255224
0.00256426
0.00255224
0.00254986
0.00254977
0.00256422
0.00256429
0.00254968
0.00254977
0.00256422
0.00256429
0.00254968
0.0025446
0.00254243
0.00253263
0.00253025
0.00254243
0.00254456
0.00253044
0.0025446
0.00254243
0.00253263
0.00253025
0.00254243
0.00254456
0.00253043
0.00254464
0.00253007
0.00254458
0.00253016
0.00254464
0.00253007
0.00254458
0.00253016
0.0025642
0.00254965
0.00256421
0.00254965
0.00254427
0.0025301
0.0025301
0.0025446
0.0025446
0.00253004
0.00254456
0.00253004
0.00254456
0.00252497
0.00251049
0.00252497
0.00251049
0.00252501
0.00252501
0.00251134
0.00251055
0.00251055
0.002491
0.00250544
0.002491
0.00250544
0.00250514
0.00249105
0.00249105
0.00250547
0.00250547
0.00251061
0.00252499
0.00252505
0.00251052
0.00251087
0.00252497
0.00252285
0.00251307
0.00252501
0.00251069
0.00251307
0.00251087
0.00252497
0.00252285
0.00251307
0.00252501
0.00251069
0.00251307
0.00250551
0.00249102
0.00250545
0.00249111
0.00250551
0.00249102
0.00250545
0.00249111
0.00250546
0.00250332
0.00249119
0.00249357
0.00250543
0.00250332
0.00249136
0.00250546
0.00250332
0.00249119
0.00249357
0.00250543
0.00250332
0.00249136
0.00252501
0.00252501
0.00251134
0.00251055
0.00251055
0.00252497
0.00251049
0.002491
0.00250544
0.00250514
0.00249105
0.00249105
0.00250547
0.00250547
0.002491
0.00250544
0.00251087
0.00252497
0.00252285
0.00251307
0.00252501
0.00251069
0.00251307
0.00251061
0.00252499
0.00252505
0.00251052
0.00251087
0.00252285
0.00252497
0.00251307
0.00252501
0.00251307
0.00251069
0.00250551
0.00249102
0.00250545
0.00249111
0.00250546
0.00250331
0.00249119
0.00249357
0.00250543
0.00250331
0.00249136
0.00250551
0.00249102
0.00250545
0.00249111
0.00250546
0.00250332
0.00249357
0.00249119
0.00250331
0.00250543
0.00249136
0.00251061
0.00252499
0.00252505
0.00251052
0.00251087
0.00252285
0.00252497
0.00251307
0.00252501
0.00251307
0.00251069
0.00251061
0.00252499
0.00252505
0.00251052
0.00250546
0.00250332
0.00249118
0.00249357
0.00250543
0.00250332
0.00249136
0.00250551
0.00249102
0.00250545
0.00249111
0.00250546
0.00250332
0.00249357
0.00249118
0.00250331
0.00250543
0.00249136
0.00250551
0.00249102
0.00250545
0.00249111
0.00252501
0.00252501
0.00251134
0.00251055
0.00251055
0.00252497
0.00251049
0.002491
0.00250544
0.00250514
0.00249105
0.00249105
0.00250547
0.00250547
0.002491
0.00250544
0.00251087
0.00252285
0.00252497
0.00251307
0.00252501
0.00251307
0.00251069
0.00251061
0.00252499
0.00252505
0.00251052
0.00251061
0.00252499
0.00252505
0.00251052
0.00250547
0.00250332
0.00249357
0.00249119
0.00250331
0.00250543
0.00249136
0.00250546
0.00250332
0.00249357
0.00249119
0.00250331
0.00250543
0.00249136
0.00250551
0.00249102
0.00250545
0.00249111
0.00250551
0.00249102
0.00250545
0.00249111
0.00252497
0.00251049
0.00252497
0.00251049
0.00250514
0.00249105
0.00249105
0.00250547
0.00250547
0.002491
0.00250544
0.002491
0.00250544
0.00248596
0.00247155
0.00248596
0.00247155
0.00248599
0.00248599
0.00247239
0.0024716
0.0024716
0.00245216
0.00246653
0.00245216
0.00246653
0.00246622
0.0024522
0.0024522
0.00246656
0.00246655
0.00247166
0.00248597
0.00248602
0.00247157
0.00247191
0.00248594
0.00248384
0.00247412
0.00248598
0.00247173
0.00247412
0.00247191
0.00248594
0.00248384
0.00247412
0.00248598
0.00247173
0.00247412
0.00246659
0.00245218
0.00246654
0.00245226
0.00246659
0.00245218
0.00246654
0.00245226
0.00246654
0.00246441
0.00245233
0.00245472
0.00246651
0.00246441
0.0024525
0.00246654
0.00246441
0.00245233
0.00245472
0.00246651
0.00246441
0.0024525
0.00248599
0.00248599
0.0024724
0.0024716
0.0024716
0.00248596
0.00247155
0.00245216
0.00246653
0.00246622
0.0024522
0.0024522
0.00246655
0.00246655
0.00245216
0.00246653
0.00247191
0.00248594
0.00248384
0.00247412
0.00248598
0.00247173
0.00247412
0.00247166
0.00248597
0.00248602
0.00247158
0.00247191
0.00248384
0.00248595
0.00247412
0.00248597
0.00247412
0.00247173
0.00246659
0.00245218
0.00246654
0.00245226
0.00246654
0.00246441
0.00245233
0.00245472
0.00246651
0.00246441
0.0024525
0.00246659
0.00245218
0.00246654
0.00245226
0.00246654
0.00246441
0.00245472
0.00245233
0.00246441
0.00246651
0.0024525
0.00247166
0.00248597
0.00248602
0.00247158
0.00247191
0.00248384
0.00248594
0.00247412
0.00248598
0.00247412
0.00247173
0.00247166
0.00248597
0.00248602
0.00247157
0.00246654
0.00246441
0.00245233
0.00245472
0.00246651
0.00246441
0.0024525
0.00246659
0.00245218
0.00246654
0.00245226
0.00246654
0.00246441
0.00245472
0.00245233
0.00246441
0.00246651
0.0024525
0.00246659
0.00245218
0.00246654
0.00245226
0.00248599
0.00248599
0.00247239
0.0024716
0.0024716
0.00248596
0.00247155
0.00245216
0.00246653
0.00246622
0.0024522
0.0024522
0.00246656
0.00246655
0.00245216
0.00246653
0.00247191
0.00248384
0.00248595
0.00247412
0.00248598
0.00247412
0.00247173
0.00247166
0.00248597
0.00248602
0.00247158
0.00247166
0.00248597
0.00248602
0.00247158
0.00246654
0.00246441
0.00245472
0.00245233
0.00246441
0.00246651
0.0024525
0.00246654
0.00246441
0.00245472
0.00245233
0.00246441
0.00246651
0.0024525
0.00246659
0.00245218
0.00246654
0.00245226
0.00246659
0.00245218
0.00246654
0.00245226
0.00248596
0.00247155
0.00248596
0.00247155
0.00246622
0.0024522
0.0024522
0.00246655
0.00246656
0.00245215
0.00246652
0.00245215
0.00246653
0.00244715
0.00243281
0.00244714
0.00243281
0.00244717
0.00244717
0.00243365
0.00243286
0.00243286
0.00241351
0.00242781
0.00241351
0.00242781
0.0024275
0.00241356
0.00241356
0.00242784
0.00242784
0.00243291
0.00244716
0.00244721
0.00243283
0.00243315
0.00244713
0.00244504
0.00243537
0.00244715
0.00243298
0.00243537
0.00243315
0.00244713
0.00244504
0.00243537
0.00244715
0.00243298
0.00243537
0.00242787
0.00241354
0.00242783
0.00241361
0.00242787
0.00241354
0.00242783
0.00241361
0.00242782
0.00242571
0.00241368
0.00241607
0.0024278
0.00242571
0.00241385
0.00242782
0.00242571
0.00241368
0.00241607
0.0024278
0.00242571
0.00241385
0.00244717
0.00244717
0.00243365
0.00243286
0.00243286
0.00244715
0.00243281
0.00241351
0.00242781
0.00242751
0.00241356
0.00241356
0.00242784
0.00242784
0.00241351
0.00242781
0.00243315
0.00244713
0.00244504
0.00243537
0.00244715
0.00243298
0.00243537
0.00243291
0.00244716
0.00244721
0.00243283
0.00243315
0.00244504
0.00244713
0.00243537
0.00244715
0.00243537
0.00243298
0.00242787
0.00241354
0.00242783
0.00241361
0.00242782
0.00242571
0.00241368
0.00241607
0.0024278
0.00242571
0.00241385
0.00242787
0.00241354
0.00242783
0.00241361
0.00242782
0.00242571
0.00241607
0.00241368
0.00242571
0.0024278
0.00241385
0.00243291
0.00244716
0.00244721
0.00243283
0.00243315
0.00244504
0.00244713
0.00243537
0.00244715
0.00243537
0.00243298
0.00243291
0.00244716
0.00244721
0.00243283
0.00242782
0.00242571
0.00241368
0.00241607
0.00242779
0.00242571
0.00241385
0.00242787
0.00241354
0.00242782
0.00241361
0.00242782
0.00242571
0.00241607
0.00241368
0.00242571
0.00242779
0.00241385
0.00242787
0.00241354
0.00242782
0.00241361
0.00244717
0.00244717
0.00243365
0.00243286
0.00243286
0.00244715
0.00243281
0.00241351
0.00242781
0.00242751
0.00241356
0.00241356
0.00242784
0.00242784
0.00241351
0.00242781
0.00243315
0.00244504
0.00244713
0.00243537
0.00244715
0.00243537
0.00243298
0.00243291
0.00244716
0.00244721
0.00243283
0.00243291
0.00244716
0.00244721
0.00243283
0.00242782
0.00242571
0.00241607
0.00241368
0.00242571
0.0024278
0.00241385
0.00242782
0.00242571
0.00241607
0.00241368
0.00242571
0.0024278
0.00241385
0.00242787
0.00241354
0.00242783
0.00241361
0.00242787
0.00241354
0.00242783
0.00241361
0.00244714
0.00243281
0.00244715
0.00243281
0.0024275
0.00241356
0.00241356
0.00242784
0.00242784
0.00241351
0.00242781
0.00241351
0.00242781
0.00240853
0.00239427
0.00240853
0.00239427
0.00240856
0.00240856
0.00239511
0.00239431
0.00239431
0.00237507
0.0023893
0.00237507
0.0023893
0.00238898
0.00237511
0.00237511
0.00238932
0.00238932
0.00239436
0.00240854
0.00240859
0.00239429
0.00239459
0.00240851
0.00240644
0.00239681
0.00240853
0.00239443
0.00239681
0.00239459