/*--------------------------------*- C++ -*----------------------------------*\
| =========                 |                                                 |
| \\      /  F ield         | OpenFOAM: The Open Source CFD Toolbox           |
|  \\    /   O peration     | Version:  2312                                  |
|   \\  /    A nd           | Website:  www.openfoam.com                      |
|    \\/     M anipulation  |                                                 |
\*---------------------------------------------------------------------------*/
FoamFile
{
    version     2.0;
    format      ascii;
    arch        "LSB;label=32;scalar=64";
    class       volVectorField;
    location    "250";
    object      U;
}
// * * * * * * * * * * * * * * * * * * * * * * * * * * * * * * * * * * * * * //

dimensions      [0 1 -1 0 0 0 0];

internalField   nonuniform List<vector> 
42840
(
(5.97859e-05 5.97796e-05 0.109207)
(-8.96462e-05 5.57737e-05 0.108145)
(5.5737e-05 -8.96698e-05 0.108144)
(-0.00014235 -0.000142327 0.106657)
(5.8528e-05 5.85188e-05 0.109495)
(-8.73985e-05 5.45391e-05 0.108304)
(5.44953e-05 -8.74045e-05 0.108304)
(-0.000138056 -0.000138048 0.106656)
(5.72849e-05 5.7279e-05 0.109774)
(-8.50121e-05 5.3274e-05 0.108444)
(5.32453e-05 -8.5022e-05 0.108444)
(-0.000133369 -0.000133408 0.106632)
(5.59787e-05 5.59737e-05 0.110044)
(-8.24666e-05 5.19558e-05 0.108566)
(5.19322e-05 -8.24722e-05 0.108565)
(-0.000128484 -0.000128554 0.106589)
(5.46268e-05 5.46112e-05 0.110304)
(-7.97914e-05 5.05461e-05 0.108669)
(5.05217e-05 -7.97893e-05 0.108668)
(-0.000123375 -0.000123482 0.106528)
(5.32167e-05 5.32083e-05 0.110553)
(-7.69574e-05 4.90094e-05 0.108754)
(4.90068e-05 -7.695e-05 0.108753)
(-0.000118191 -0.000118271 0.106453)
(5.17856e-05 5.17869e-05 0.110792)
(-7.39884e-05 4.73048e-05 0.108822)
(4.73073e-05 -7.39684e-05 0.108821)
(-0.000112865 -0.000112933 0.106368)
(5.03358e-05 5.03374e-05 0.111021)
(-7.08975e-05 4.54995e-05 0.108873)
(4.5485e-05 -7.08658e-05 0.108872)
(-0.000107589 -0.000107629 0.106274)
(4.88511e-05 4.88539e-05 0.111238)
(-6.772e-05 4.35891e-05 0.108908)
(4.35622e-05 -6.76902e-05 0.108907)
(-0.000102354 -0.000102389 0.106175)
(4.73572e-05 4.73629e-05 0.111445)
(-6.44656e-05 4.15898e-05 0.108928)
(4.15632e-05 -6.44343e-05 0.108927)
(-9.73144e-05 -9.73442e-05 0.106072)
(4.58656e-05 4.58759e-05 0.111639)
(-6.11844e-05 3.94936e-05 0.108935)
(3.94747e-05 -6.11429e-05 0.108934)
(-9.23514e-05 -9.23636e-05 0.105969)
(4.43913e-05 4.43918e-05 0.111822)
(-5.7886e-05 3.73364e-05 0.10893)
(3.73069e-05 -5.7845e-05 0.108929)
(-8.76406e-05 -8.76547e-05 0.105865)
(4.29302e-05 4.2923e-05 0.111993)
(-5.45968e-05 3.51248e-05 0.108915)
(3.51004e-05 -5.45688e-05 0.108914)
(-8.31465e-05 -8.3177e-05 0.105763)
(4.14901e-05 4.1471e-05 0.112152)
(-5.13557e-05 3.28825e-05 0.10889)
(3.28725e-05 -5.13216e-05 0.108889)
(-7.88759e-05 -7.89154e-05 0.105663)
(4.00404e-05 4.00194e-05 0.112298)
(-4.81287e-05 3.06283e-05 0.108857)
(3.06261e-05 -4.81188e-05 0.108856)
(-7.48415e-05 -7.48953e-05 0.105565)
(3.85892e-05 3.85743e-05 0.112432)
(-4.49744e-05 2.8413e-05 0.108817)
(2.8403e-05 -4.49696e-05 0.108816)
(-7.113e-05 -7.11675e-05 0.105471)
(3.7127e-05 3.71141e-05 0.112554)
(-4.19031e-05 2.62292e-05 0.108772)
(2.621e-05 -4.18907e-05 0.108771)
(-6.75933e-05 -6.76271e-05 0.105381)
(3.56521e-05 3.56454e-05 0.112664)
(-3.89161e-05 2.41108e-05 0.108723)
(2.41016e-05 -3.8918e-05 0.108722)
(-6.43258e-05 -6.43436e-05 0.105294)
(3.41852e-05 3.41878e-05 0.112763)
(-3.60531e-05 2.21074e-05 0.108671)
(2.20727e-05 -3.60504e-05 0.10867)
(-6.13487e-05 -6.13571e-05 0.105211)
(3.27327e-05 3.27463e-05 0.11285)
(-3.33168e-05 2.02119e-05 0.108617)
(2.01721e-05 -3.3316e-05 0.108616)
(-5.86025e-05 -5.86085e-05 0.105132)
(3.12981e-05 3.13227e-05 0.112927)
(-3.07498e-05 1.84563e-05 0.108562)
(1.84125e-05 -3.07555e-05 0.108561)
(-5.61363e-05 -5.61335e-05 0.105057)
(2.99041e-05 2.99485e-05 0.112994)
(-2.83923e-05 1.68715e-05 0.108507)
(1.68051e-05 -2.84e-05 0.108505)
(-5.40137e-05 -5.40114e-05 0.104987)
(2.85791e-05 2.86582e-05 0.113052)
(-2.62749e-05 1.54866e-05 0.108452)
(1.53491e-05 -2.62797e-05 0.108451)
(-5.21488e-05 -5.21362e-05 0.10492)
(2.73245e-05 2.74703e-05 0.113102)
(-2.44273e-05 1.43001e-05 0.108399)
(1.41099e-05 -2.44487e-05 0.108398)
(-5.0558e-05 -5.05253e-05 0.104858)
(2.61249e-05 2.63569e-05 0.113146)
(-2.28436e-05 1.33212e-05 0.108348)
(1.30829e-05 -2.28687e-05 0.108347)
(-4.93446e-05 -4.92593e-05 0.1048)
(0.000142275 0.000142249 0.106657)
(4.32645e-06 4.37316e-06 0.106843)
(5.59497e-05 8.97467e-05 0.108144)
(-5.59893e-05 8.97388e-05 0.108144)
(5.50347e-05 8.80424e-05 0.108265)
(-5.50801e-05 8.80184e-05 0.108265)
(-0.000142304 0.000142235 0.106657)
(-4.36621e-06 4.35472e-06 0.106843)
(8.97207e-05 5.58317e-05 0.108144)
(8.96974e-05 -5.59505e-05 0.108144)
(8.80075e-05 5.49081e-05 0.108266)
(8.79901e-05 -5.5041e-05 0.108264)
(-8.95459e-05 -5.58817e-05 0.108144)
(-8.79742e-05 5.48647e-05 0.108266)
(-8.78593e-05 -5.49783e-05 0.108265)
(0.000142251 -0.000142294 0.106657)
(4.34671e-06 -4.26989e-06 0.106842)
(-5.58236e-05 -8.97407e-05 0.108144)
(5.48198e-05 -8.79828e-05 0.108266)
(-5.49094e-05 -8.80503e-05 0.108265)
(-4.41275e-06 -4.32284e-06 0.106842)
(0.000137997 0.000137963 0.106656)
(1.80036e-06 1.8425e-06 0.106831)
(5.47105e-05 8.74588e-05 0.108303)
(-5.47691e-05 8.74355e-05 0.108303)
(5.3775e-05 8.57004e-05 0.10841)
(-5.38085e-05 8.56543e-05 0.10841)
(-0.000138022 0.000137943 0.106656)
(-1.80431e-06 1.80352e-06 0.106831)
(8.742e-05 5.45815e-05 0.108304)
(8.74025e-05 -5.47271e-05 0.108302)
(8.56537e-05 5.36415e-05 0.108411)
(8.56232e-05 -5.37964e-05 0.108409)
(-8.72855e-05 -5.46692e-05 0.108303)
(-8.56332e-05 5.36042e-05 0.108411)
(-8.55033e-05 -5.37284e-05 0.10841)
(0.00013795 -0.000138031 0.106656)
(1.8333e-06 -1.72503e-06 0.106831)
(-5.45916e-05 -8.74722e-05 0.108303)
(5.35629e-05 -8.56371e-05 0.108411)
(-5.36303e-05 -8.56977e-05 0.10841)
(-1.83415e-06 -1.79835e-06 0.10683)
(0.00013336 0.00013333 0.106633)
(-6.99711e-07 -6.61955e-07 0.106798)
(5.34549e-05 8.50816e-05 0.108443)
(-5.34903e-05 8.50364e-05 0.108443)
(5.24789e-05 8.31827e-05 0.108536)
(-5.2502e-05 8.31343e-05 0.108536)
(-0.000133368 0.000133307 0.106633)
(6.89733e-07 -6.76396e-07 0.106798)
(8.50339e-05 5.33226e-05 0.108444)
(8.50096e-05 -5.34851e-05 0.108443)
(8.31323e-05 5.23517e-05 0.108537)
(8.31039e-05 -5.25006e-05 0.108535)
(-8.48849e-05 -5.34126e-05 0.108443)
(-8.31156e-05 5.23063e-05 0.108537)
(-8.29882e-05 -5.24295e-05 0.108536)
(0.000133356 -0.000133397 0.106632)
(-6.21766e-07 7.16059e-07 0.106797)
(-5.3313e-05 -8.5088e-05 0.108443)
(5.22709e-05 -8.31231e-05 0.108537)
(-5.23156e-05 -8.31876e-05 0.108536)
(6.60411e-07 6.59371e-07 0.106796)
(0.000128534 0.000128504 0.106589)
(-3.1805e-06 -3.15721e-06 0.106745)
(5.21398e-05 8.25327e-05 0.108565)
(-5.2155e-05 8.24841e-05 0.108564)
(5.10988e-05 8.05583e-05 0.108644)
(-5.10933e-05 8.04993e-05 0.108643)
(-0.000128502 0.000128459 0.106589)
(3.17191e-06 -3.13616e-06 0.106745)
(8.24811e-05 5.20127e-05 0.108566)
(8.24486e-05 -5.21593e-05 0.108564)
(8.04965e-05 5.09738e-05 0.108645)
(8.04526e-05 -5.10945e-05 0.108643)
(-8.23415e-05 -5.20915e-05 0.108564)
(-8.04825e-05 5.09157e-05 0.108645)
(-8.03526e-05 -5.1039e-05 0.108643)
(0.000128474 -0.000128513 0.106589)
(-3.13436e-06 3.23058e-06 0.106745)
(-5.19752e-05 -8.25277e-05 0.108565)
(5.08887e-05 -8.04813e-05 0.108645)
(-5.0916e-05 -8.05264e-05 0.108644)
(3.18529e-06 3.14058e-06 0.106744)
(0.00012345 0.000123407 0.106529)
(-5.67901e-06 -5.62952e-06 0.106677)
(5.073e-05 7.98707e-05 0.108668)
(-5.07317e-05 7.98132e-05 0.108667)
(4.95952e-05 7.77598e-05 0.108733)
(-4.95964e-05 7.77057e-05 0.108733)
(-0.000123422 0.000123402 0.106529)
(5.71677e-06 -5.65333e-06 0.106677)
(7.98093e-05 5.06047e-05 0.108669)
(7.97673e-05 -5.07216e-05 0.108667)
(7.76977e-05 4.94672e-05 0.108734)
(7.76577e-05 -4.95822e-05 0.108732)
(-7.96678e-05 -5.06791e-05 0.108667)
(-7.76864e-05 4.94286e-05 0.108735)
(-7.75606e-05 -4.95425e-05 0.108733)
(0.000123461 -0.000123492 0.106528)
(-5.60007e-06 5.72355e-06 0.106676)
(-5.05557e-05 -7.98404e-05 0.108668)
(4.94157e-05 -7.76799e-05 0.108734)
(-4.94134e-05 -7.77271e-05 0.108733)
(5.68418e-06 5.66407e-06 0.106676)
(0.000118233 0.000118208 0.106454)
(-8.24498e-06 -8.20155e-06 0.106596)
(4.91783e-05 7.7033e-05 0.108753)
(-4.91828e-05 7.69801e-05 0.108752)
(4.79167e-05 7.48306e-05 0.108805)
(-4.79046e-05 7.47696e-05 0.108804)
(-0.000118208 0.000118204 0.106454)
(8.29048e-06 -8.23494e-06 0.106596)
(7.69704e-05 4.90499e-05 0.108754)
(7.69295e-05 -4.91867e-05 0.108752)
(7.47675e-05 4.77951e-05 0.108806)
(7.47203e-05 -4.79005e-05 0.108804)
(-7.68391e-05 -4.91344e-05 0.108752)
(-7.47545e-05 4.77602e-05 0.108806)
(-7.46279e-05 -4.78563e-05 0.108804)
(0.000118241 -0.000118258 0.106454)
(-8.18515e-06 8.31214e-06 0.106595)
(-4.90052e-05 -7.7003e-05 0.108753)
(4.77575e-05 -7.47354e-05 0.108806)
(-4.77284e-05 -7.47759e-05 0.108805)
(8.24583e-06 8.23133e-06 0.106594)
(0.000112888 0.00011287 0.106368)
(-1.07617e-05 -1.07286e-05 0.106505)
(4.7472e-05 7.40749e-05 0.10882)
(-4.74612e-05 7.40118e-05 0.10882)
(4.613e-05 7.17728e-05 0.10886)
(-4.61277e-05 7.17135e-05 0.108859)
(-0.000112897 0.000112893 0.106369)
(1.08088e-05 -1.07723e-05 0.106505)
(7.40109e-05 4.73581e-05 0.108821)
(7.39657e-05 -4.74646e-05 0.108819)
(7.17078e-05 4.60156e-05 0.10886)
(7.16634e-05 -4.61047e-05 0.108859)
(-7.3873e-05 -4.7417e-05 0.10882)
(-7.16897e-05 4.59854e-05 0.108861)
(-7.15702e-05 -4.60524e-05 0.108859)
(0.000112916 -0.000112912 0.106368)
(-1.07248e-05 1.08571e-05 0.106504)
(-4.72911e-05 -7.40183e-05 0.10882)
(4.59677e-05 -7.16614e-05 0.10886)
(-4.59549e-05 -7.16877e-05 0.10886)
(1.07645e-05 1.07724e-05 0.106504)
(0.000107651 0.000107631 0.106274)
(-1.32562e-05 -1.32189e-05 0.106407)
(4.56563e-05 7.09821e-05 0.108871)
(-4.56608e-05 7.09246e-05 0.10887)
(4.42359e-05 6.86104e-05 0.108898)
(-4.42294e-05 6.85464e-05 0.108898)
(-0.00010761 0.00010759 0.106275)
(1.32914e-05 -1.32487e-05 0.106407)
(7.09194e-05 4.55507e-05 0.108872)
(7.08822e-05 -4.56424e-05 0.10887)
(6.85498e-05 4.41303e-05 0.108899)
(6.8507e-05 -4.42078e-05 0.108897)
(-7.07874e-05 -4.55768e-05 0.10887)
(-6.85354e-05 4.41034e-05 0.1089)
(-6.84225e-05 -4.41459e-05 0.108898)
(0.000107625 -0.000107612 0.106274)
(-1.32182e-05 1.33174e-05 0.106406)
(-4.54891e-05 -7.08998e-05 0.108871)
(4.40618e-05 -6.85036e-05 0.108899)
(-4.40563e-05 -6.8526e-05 0.108899)
(1.32261e-05 1.32451e-05 0.106406)
(0.00010238 0.000102359 0.106175)
(-1.57212e-05 -1.56902e-05 0.106305)
(4.37305e-05 6.77969e-05 0.108906)
(-4.37303e-05 6.77391e-05 0.108905)
(4.22347e-05 6.53659e-05 0.108922)
(-4.22392e-05 6.53061e-05 0.108922)
(-0.000102374 0.000102358 0.106175)
(1.57229e-05 -1.56871e-05 0.106305)
(6.77324e-05 4.36327e-05 0.108907)
(6.76911e-05 -4.37131e-05 0.108905)
(6.53119e-05 4.21383e-05 0.108923)
(6.52661e-05 -4.22127e-05 0.108921)
(-6.76108e-05 -4.36508e-05 0.108905)
(-6.53024e-05 4.21155e-05 0.108924)
(-6.51897e-05 -4.21568e-05 0.108922)
(0.000102403 -0.000102409 0.106175)
(-1.56451e-05 1.57369e-05 0.106304)
(-4.35651e-05 -6.77152e-05 0.108906)
(4.20826e-05 -6.52758e-05 0.108923)
(-4.20777e-05 -6.52843e-05 0.108923)
(1.57089e-05 1.5725e-05 0.106304)
(9.7334e-05 9.73142e-05 0.106073)
(-1.80778e-05 -1.80525e-05 0.106201)
(4.17078e-05 6.45317e-05 0.108926)
(-4.17268e-05 6.44742e-05 0.108926)
(4.01656e-05 6.20856e-05 0.108933)
(-4.01807e-05 6.20308e-05 0.108932)
(-9.73134e-05 9.72946e-05 0.106073)
(1.80808e-05 -1.80594e-05 0.1062)
(6.44798e-05 4.16107e-05 0.108927)
(6.44408e-05 -4.16918e-05 0.108925)
(6.20309e-05 4.00634e-05 0.108934)
(6.1994e-05 -4.01531e-05 0.108931)
(-6.43629e-05 -4.16323e-05 0.108926)
(-6.20314e-05 4.00546e-05 0.108934)
(-6.19126e-05 -4.0067e-05 0.108932)
(9.73341e-05 -9.73378e-05 0.106072)
(-1.80256e-05 1.81009e-05 0.1062)
(-4.15618e-05 -6.44554e-05 0.108926)
(4.00257e-05 -6.19915e-05 0.108934)
(-4.001e-05 -6.19936e-05 0.108933)
(1.80393e-05 1.80718e-05 0.106199)
(9.2431e-05 9.24112e-05 0.105969)
(-2.02997e-05 -2.02812e-05 0.106095)
(3.96093e-05 6.12424e-05 0.108933)
(-3.96383e-05 6.1191e-05 0.108933)
(3.80203e-05 5.87894e-05 0.10893)
(-3.80451e-05 5.87292e-05 0.10893)
(-9.24231e-05 9.23907e-05 0.105969)
(2.02718e-05 -2.02693e-05 0.106095)
(6.11851e-05 3.95163e-05 0.108934)
(6.11542e-05 -3.96069e-05 0.108932)
(5.87299e-05 3.7914e-05 0.108932)
(5.87011e-05 -3.80068e-05 0.108929)
(-6.10722e-05 -3.9525e-05 0.108933)
(-5.87325e-05 3.79047e-05 0.108932)
(-5.86263e-05 -3.79277e-05 0.10893)
(9.24011e-05 -9.24259e-05 0.105968)
(-2.02701e-05 2.03379e-05 0.106094)
(-3.94782e-05 -6.11537e-05 0.108934)
(3.78792e-05 -5.87025e-05 0.108931)
(-3.78763e-05 -5.8699e-05 0.108931)
(2.02753e-05 2.03047e-05 0.106094)
(8.77036e-05 8.76764e-05 0.105865)
(-2.23827e-05 -2.23761e-05 0.105991)
(3.74462e-05 5.79345e-05 0.108928)
(-3.74841e-05 5.78843e-05 0.108928)
(3.58141e-05 5.54836e-05 0.108917)
(-3.583e-05 5.54269e-05 0.108917)
(-8.77037e-05 8.76571e-05 0.105865)
(2.23768e-05 -2.23766e-05 0.10599)
(5.78798e-05 3.73405e-05 0.108929)
(5.78542e-05 -3.74424e-05 0.108927)
(5.54431e-05 3.57067e-05 0.108918)
(5.54186e-05 -3.58137e-05 0.108916)
(-5.7781e-05 -3.73684e-05 0.108928)
(-5.54418e-05 3.57032e-05 0.108919)
(-5.53401e-05 -3.5729e-05 0.108917)
(8.77011e-05 -8.77318e-05 0.105865)
(-2.23519e-05 2.24064e-05 0.10599)
(-3.73287e-05 -5.78589e-05 0.108929)
(3.56819e-05 -5.54243e-05 0.108918)
(-3.56734e-05 -5.54198e-05 0.108918)
(2.2383e-05 2.23977e-05 0.105989)
(8.31951e-05 8.31605e-05 0.105763)
(-2.43308e-05 -2.43374e-05 0.105888)
(3.5239e-05 5.46332e-05 0.108913)
(-3.52481e-05 5.45839e-05 0.108912)
(3.35665e-05 5.22097e-05 0.108894)
(-3.35787e-05 5.21645e-05 0.108894)
(-8.31961e-05 8.31513e-05 0.105763)
(2.4328e-05 -2.43312e-05 0.105887)
(5.45985e-05 3.51323e-05 0.108914)
(5.45736e-05 -3.52335e-05 0.108911)
(5.21839e-05 3.34583e-05 0.108896)
(5.21491e-05 -3.35708e-05 0.108893)
(-5.45013e-05 -3.51585e-05 0.108912)
(-5.21862e-05 3.34596e-05 0.108896)
(-5.20758e-05 -3.35041e-05 0.108894)
(8.32218e-05 -8.3262e-05 0.105762)
(-2.43497e-05 2.43944e-05 0.105887)
(-3.50968e-05 -5.45856e-05 0.108913)
(3.34505e-05 -5.21573e-05 0.108896)
(-3.34347e-05 -5.21604e-05 0.108895)
(2.43391e-05 2.43389e-05 0.105886)
(7.89605e-05 7.89152e-05 0.105663)
(-2.61904e-05 -2.61963e-05 0.105787)
(3.29922e-05 5.13763e-05 0.108888)
(-3.30062e-05 5.13409e-05 0.108887)
(3.13257e-05 4.89853e-05 0.108863)
(-3.13218e-05 4.89385e-05 0.108863)
(-7.89327e-05 7.88877e-05 0.105663)
(2.61442e-05 -2.61403e-05 0.105787)
(5.13561e-05 3.28827e-05 0.108889)
(5.13241e-05 -3.3e-05 0.108886)
(4.89794e-05 3.12282e-05 0.108865)
(4.89291e-05 -3.13336e-05 0.108862)
(-5.1246e-05 -3.29328e-05 0.108887)
(-4.89663e-05 3.12129e-05 0.108865)
(-4.88527e-05 -3.12579e-05 0.108863)
(7.89094e-05 -7.89558e-05 0.105662)
(-2.61793e-05 2.62099e-05 0.105786)
(-3.28605e-05 -5.13341e-05 0.108888)
(3.12019e-05 -4.89402e-05 0.108865)
(-3.11765e-05 -4.89391e-05 0.108864)
(2.61896e-05 2.61706e-05 0.105785)
(7.49462e-05 7.49019e-05 0.105565)
(-2.7859e-05 -2.78633e-05 0.105689)
(3.0746e-05 4.81631e-05 0.108855)
(-3.07476e-05 4.81289e-05 0.108854)
(2.9102e-05 4.58155e-05 0.108825)
(-2.90882e-05 4.57717e-05 0.108825)
(-7.49185e-05 7.48803e-05 0.105565)
(2.78388e-05 -2.78358e-05 0.105689)
(4.81573e-05 3.06455e-05 0.108856)
(4.81176e-05 -3.07594e-05 0.108853)
(4.58099e-05 2.90061e-05 0.108827)
(4.57598e-05 -2.91047e-05 0.108824)
(-4.80392e-05 -3.06945e-05 0.108854)
(-4.58045e-05 2.89773e-05 0.108827)
(-4.56882e-05 -2.90437e-05 0.108825)
(7.48914e-05 -7.49484e-05 0.105565)
(-2.78634e-05 2.78835e-05 0.105688)
(-3.06169e-05 -4.81249e-05 0.108855)
(2.89784e-05 -4.57806e-05 0.108827)
(-2.8963e-05 -4.57741e-05 0.108826)
(2.78156e-05 2.78111e-05 0.105688)
(7.11295e-05 7.1088e-05 0.105471)
(-2.93447e-05 -2.93436e-05 0.105595)
(2.85283e-05 4.50128e-05 0.108815)
(-2.85228e-05 4.49745e-05 0.108814)
(2.69026e-05 4.27185e-05 0.108781)
(-2.69016e-05 4.26882e-05 0.108781)
(-7.11456e-05 7.11036e-05 0.105471)
(2.9355e-05 -2.93564e-05 0.105594)
(4.50053e-05 2.84317e-05 0.108816)
(4.49583e-05 -2.85305e-05 0.108814)
(4.27085e-05 2.6811e-05 0.108783)
(4.26597e-05 -2.69014e-05 0.10878)
(-4.4883e-05 -2.84693e-05 0.108814)
(-4.27149e-05 2.6792e-05 0.108784)
(-4.26035e-05 -2.68493e-05 0.108781)
(7.11341e-05 -7.12017e-05 0.105471)
(-2.93559e-05 2.93591e-05 0.105594)
(-2.83987e-05 -4.49686e-05 0.108815)
(2.67771e-05 -4.26922e-05 0.108783)
(-2.67849e-05 -4.26777e-05 0.108782)
(2.93792e-05 2.93741e-05 0.105593)
(6.76369e-05 6.76046e-05 0.105381)
(-3.07324e-05 -3.07203e-05 0.105504)
(2.63414e-05 4.1925e-05 0.10877)
(-2.63372e-05 4.19023e-05 0.108769)
(2.47782e-05 3.97146e-05 0.108733)
(-2.47758e-05 3.96744e-05 0.108733)
(-6.7618e-05 6.75639e-05 0.105381)
(3.07151e-05 -3.07181e-05 0.105504)
(4.19129e-05 2.62505e-05 0.108772)
(4.18684e-05 -2.63434e-05 0.108769)
(3.96966e-05 2.47025e-05 0.108735)
(3.96449e-05 -2.47768e-05 0.108732)
(-4.182e-05 -2.62963e-05 0.108769)
(-3.97003e-05 2.46642e-05 0.108735)
(-3.9611e-05 -2.47353e-05 0.108733)
(6.762e-05 -6.76987e-05 0.10538)
(-3.07564e-05 3.07475e-05 0.105503)
(-2.62355e-05 -4.18903e-05 0.10877)
(2.46486e-05 -3.96901e-05 0.108735)
(-2.46673e-05 -3.96666e-05 0.108734)
(3.07108e-05 3.07183e-05 0.105502)
(6.4368e-05 6.43508e-05 0.105294)
(-3.19757e-05 -3.19572e-05 0.105416)
(2.42246e-05 3.89456e-05 0.108721)
(-2.42378e-05 3.89179e-05 0.10872)
(2.27182e-05 3.68287e-05 0.108682)
(-2.27253e-05 3.67757e-05 0.108681)
(-6.43708e-05 6.43108e-05 0.105294)
(3.19258e-05 -3.19427e-05 0.105417)
(3.89232e-05 2.41531e-05 0.108723)
(3.88849e-05 -2.42344e-05 0.10872)
(3.6785e-05 2.26576e-05 0.108683)
(3.67351e-05 -2.27074e-05 0.108681)
(-3.88523e-05 -2.41976e-05 0.10872)
(-3.67978e-05 2.26191e-05 0.108684)
(-3.67138e-05 -2.2675e-05 0.108681)
(6.43423e-05 -6.44306e-05 0.105294)
(-3.19679e-05 3.1965e-05 0.105416)
(-2.41393e-05 -3.89077e-05 0.108721)
(2.25968e-05 -3.67953e-05 0.108683)
(-2.26309e-05 -3.67575e-05 0.108682)
(3.19295e-05 3.19459e-05 0.105415)
(6.13624e-05 6.13683e-05 0.105211)
(-3.30311e-05 -3.30021e-05 0.105333)
(2.22041e-05 3.61007e-05 0.108669)
(-2.22136e-05 3.6064e-05 0.108668)
(2.07785e-05 3.40603e-05 0.108628)
(-2.07812e-05 3.40212e-05 0.108627)
(-6.14036e-05 6.13306e-05 0.105211)
(3.29927e-05 -3.29765e-05 0.105334)
(3.60443e-05 2.21432e-05 0.10867)
(3.60143e-05 -2.21943e-05 0.108668)
(3.40042e-05 2.07297e-05 0.108629)
(3.39633e-05 -2.07577e-05 0.108627)
(-3.59913e-05 -2.21697e-05 0.108668)
(-3.40278e-05 2.07029e-05 0.10863)
(-3.39535e-05 -2.07385e-05 0.108627)
(6.13419e-05 -6.14223e-05 0.105211)
(-3.30364e-05 3.30423e-05 0.105333)
(-2.21311e-05 -3.6033e-05 0.108669)
(2.06657e-05 -3.40225e-05 0.108629)
(-2.07072e-05 -3.39847e-05 0.108629)
(3.30027e-05 3.30199e-05 0.105332)
(5.8629e-05 5.8656e-05 0.105133)
(-3.39599e-05 -3.39116e-05 0.105254)
(2.02917e-05 3.33738e-05 0.108615)
(-2.0306e-05 3.3352e-05 0.108614)
(1.89726e-05 3.14583e-05 0.108573)
(-1.89837e-05 3.14381e-05 0.108572)
(-5.8623e-05 5.85866e-05 0.105133)
(3.39187e-05 -3.38785e-05 0.105255)
(3.33157e-05 2.0246e-05 0.108616)
(3.32882e-05 -2.02869e-05 0.108613)
(3.13904e-05 1.89391e-05 0.108574)
(3.136e-05 -1.89602e-05 0.108572)
(-3.32724e-05 -2.02553e-05 0.108614)
(-3.14239e-05 1.89156e-05 0.108575)
(-3.13619e-05 -1.89352e-05 0.108572)
(5.85932e-05 -5.86642e-05 0.105132)
(-3.39634e-05 3.39545e-05 0.105254)
(-2.02233e-05 -3.33027e-05 0.108615)
(1.88654e-05 -3.14191e-05 0.108574)
(-1.89175e-05 -3.13884e-05 0.108573)
(3.39167e-05 3.39416e-05 0.105253)
(5.61269e-05 5.61757e-05 0.105058)
(-3.46697e-05 -3.459e-05 0.10518)
(1.85195e-05 3.08177e-05 0.108559)
(-1.85418e-05 3.0808e-05 0.108559)
(1.73079e-05 2.90757e-05 0.108517)
(-1.73309e-05 2.90578e-05 0.108517)
(-5.61465e-05 5.6138e-05 0.105058)
(3.46545e-05 -3.46052e-05 0.10518)
(3.07476e-05 1.84911e-05 0.108561)
(3.07284e-05 -1.85215e-05 0.108558)
(2.89887e-05 1.73158e-05 0.108519)
(2.89564e-05 -1.72977e-05 0.108516)
(-3.07301e-05 -1.85007e-05 0.108559)
(-2.90161e-05 1.72871e-05 0.10852)
(-2.89666e-05 -1.72964e-05 0.108517)
(5.60667e-05 -5.61499e-05 0.105057)
(-3.46606e-05 3.46439e-05 0.105179)
(-1.84849e-05 -3.0755e-05 0.10856)
(1.72182e-05 -2.90171e-05 0.108519)
(-1.72774e-05 -2.89891e-05 0.108518)
(3.46247e-05 3.46468e-05 0.105179)
(5.39662e-05 5.40526e-05 0.104987)
(-3.52149e-05 -3.50763e-05 0.105109)
(1.68955e-05 2.84942e-05 0.108504)
(-1.69315e-05 2.84808e-05 0.108503)
(1.5828e-05 2.6939e-05 0.108462)
(-1.58342e-05 2.69074e-05 0.108462)
(-5.39697e-05 5.39706e-05 0.104987)
(3.52058e-05 -3.51074e-05 0.105109)
(2.83958e-05 1.69116e-05 0.108506)
(2.83744e-05 -1.69056e-05 0.108503)
(2.68038e-05 1.58685e-05 0.108464)
(2.67694e-05 -1.58269e-05 0.108461)
(-2.83851e-05 -1.68955e-05 0.108503)
(-2.68325e-05 1.58438e-05 0.108465)
(-2.67963e-05 -1.58118e-05 0.108462)
(5.39051e-05 -5.39946e-05 0.104987)
(-3.52363e-05 3.51957e-05 0.105108)
(-1.68826e-05 -2.84072e-05 0.108505)
(1.57324e-05 -2.68362e-05 0.108464)
(-1.58196e-05 -2.68158e-05 0.108463)
(3.515e-05 3.51766e-05 0.105108)
(5.20758e-05 5.22283e-05 0.104921)
(-3.55739e-05 -3.53421e-05 0.105043)
(1.54587e-05 2.64239e-05 0.10845)
(-1.54812e-05 2.64036e-05 0.108449)
(1.45278e-05 2.508e-05 0.108409)
(-1.45586e-05 2.50442e-05 0.108408)
(-5.20554e-05 5.21085e-05 0.104921)
(3.5507e-05 -3.53603e-05 0.105043)
(2.62752e-05 1.55156e-05 0.108451)
(2.625e-05 -1.54703e-05 0.108448)
(2.48808e-05 1.46549e-05 0.108411)
(2.48385e-05 -1.45312e-05 0.108408)
(-2.6285e-05 -1.54508e-05 0.108449)
(-2.49198e-05 1.46136e-05 0.108412)
(-2.48983e-05 -1.45214e-05 0.108409)
(5.20222e-05 -5.21351e-05 0.10492)
(-3.55838e-05 3.5524e-05 0.105042)
(-1.54715e-05 -2.62987e-05 0.10845)
(1.44296e-05 -2.49293e-05 0.108411)
(-1.45521e-05 -2.49005e-05 0.10841)
(3.54349e-05 3.54769e-05 0.105042)
(5.04467e-05 5.06906e-05 0.104858)
(-3.57193e-05 -3.53852e-05 0.104981)
(1.4226e-05 2.46386e-05 0.108397)
(-1.42658e-05 2.46079e-05 0.108396)
(1.34492e-05 2.34857e-05 0.108358)
(-1.35204e-05 2.34383e-05 0.108357)
(-5.05039e-05 5.06033e-05 0.104858)
(3.56277e-05 -3.54508e-05 0.104982)
(2.44173e-05 1.43681e-05 0.108398)
(2.43901e-05 -1.42232e-05 0.108395)
(2.32017e-05 1.36653e-05 0.10836)
(2.31681e-05 -1.3454e-05 0.108357)
(-2.44564e-05 -1.42234e-05 0.108396)
(-2.32675e-05 1.35687e-05 0.10836)
(-2.32684e-05 -1.34514e-05 0.108357)
(5.03886e-05 -5.05232e-05 0.104858)
(-3.57138e-05 3.56097e-05 0.104981)
(-1.42615e-05 -2.44509e-05 0.108397)
(1.33497e-05 -2.32924e-05 0.108359)
(-1.35248e-05 -2.32498e-05 0.108359)
(3.55238e-05 3.56132e-05 0.10498)
(4.91762e-05 4.95252e-05 0.104801)
(1.31801e-05 2.30993e-05 0.108346)
(-1.32782e-05 2.3062e-05 0.108345)
(-4.92327e-05 4.93605e-05 0.104801)
(2.27932e-05 1.34209e-05 0.108348)
(2.27748e-05 -1.32073e-05 0.108345)
(-2.28879e-05 -1.32058e-05 0.108345)
(4.90857e-05 -4.9265e-05 0.104801)
(-1.32967e-05 -2.28635e-05 0.108347)
(8.90595e-07 7.00669e-06 0.093751)
(-1.24251e-06 3.06842e-05 0.0833542)
(-3.97144e-06 -6.03138e-06 0.0833635)
(1.57671e-06 5.2882e-05 0.0937674)
(-3.5044e-06 1.42279e-05 0.0720083)
(5.39476e-06 -5.75569e-06 0.0720491)
(6.95995e-06 9.04453e-07 0.0937513)
(3.0676e-05 -1.22735e-06 0.0833543)
(-6.05283e-06 -3.95088e-06 0.0833639)
(5.28242e-05 1.58409e-06 0.0937676)
(-5.98262e-05 5.97853e-05 0.109207)
(5.97587e-05 -5.98144e-05 0.109207)
(-5.981e-05 -5.98233e-05 0.109207)
(5.88412e-05 5.88297e-05 0.109424)
(-5.88909e-05 5.88354e-05 0.109424)
(5.88057e-05 -5.88828e-05 0.109424)
(-5.88762e-05 -5.88904e-05 0.109424)
(-4.27691e-05 2.90191e-06 0.102218)
(-6.06733e-05 2.41757e-05 0.0954227)
(-0.000100204 1.95099e-05 0.108864)
(-8.90967e-05 5.54815e-05 0.108186)
(-1.79704e-05 -1.55068e-06 0.0954464)
(-9.98135e-05 1.93791e-05 0.108926)
(-0.000103773 4.73191e-06 0.102195)
(1.42087e-05 -3.51981e-06 0.0720085)
(-5.70734e-06 5.42423e-06 0.0720485)
(2.85289e-06 -4.27502e-05 0.102217)
(1.95193e-05 -0.000100224 0.108864)
(2.42544e-05 -6.06398e-05 0.0954247)
(5.54358e-05 -8.91124e-05 0.108186)
(1.93799e-05 -9.98428e-05 0.108926)
(-1.44097e-06 -1.78582e-05 0.0954454)
(4.79736e-06 -0.000103822 0.102196)
(-2.9811e-05 -1.63342e-05 0.089139)
(-1.63012e-05 -2.9799e-05 0.089138)
(-5.72501e-06 -5.62255e-06 0.106839)
(-8.86722e-06 3.60528e-06 0.0891502)
(3.61177e-06 -8.84949e-06 0.089147)
(6.22443e-07 4.23519e-06 0.0934791)
(-1.10552e-06 2.89199e-05 0.0831547)
(1.30704e-06 4.86939e-05 0.0934879)
(-3.81562e-06 -6.76749e-06 0.0831694)
(-3.47498e-06 1.36501e-05 0.0718716)
(5.17207e-06 -5.7366e-06 0.0719153)
(4.23962e-06 6.39412e-07 0.0934795)
(2.88924e-05 -1.09536e-06 0.0831549)
(4.86471e-05 1.31899e-06 0.0934881)
(-6.80231e-06 -3.7964e-06 0.0831698)
(-5.85805e-05 5.85224e-05 0.109495)
(5.84898e-05 -5.85739e-05 0.109495)
(-5.85636e-05 -5.85846e-05 0.109495)
(5.76021e-05 5.7593e-05 0.109706)
(-5.76426e-05 5.75908e-05 0.109706)
(5.75687e-05 -5.76532e-05 0.109706)
(-5.76146e-05 -5.76559e-05 0.109705)
(-3.6627e-05 2.20115e-06 0.101945)
(-5.68498e-05 2.23885e-05 0.0951536)
(-9.86398e-05 1.89738e-05 0.109108)
(-8.68227e-05 5.4229e-05 0.108341)
(-9.68185e-05 3.96712e-06 0.101924)
(-1.46772e-05 -2.39552e-06 0.0951808)
(-9.82429e-05 1.88401e-05 0.109167)
(1.3633e-05 -3.49954e-06 0.0718719)
(-5.71016e-06 5.22684e-06 0.0719146)
(2.22464e-06 -3.66634e-05 0.101944)
(1.89783e-05 -9.86697e-05 0.109107)
(2.24902e-05 -5.68533e-05 0.0951556)
(5.41827e-05 -8.68233e-05 0.10834)
(4.10788e-06 -9.68583e-05 0.101925)
(1.88528e-05 -9.8274e-05 0.109167)
(-2.27294e-06 -1.46205e-05 0.0951798)
(-2.78879e-05 -1.5449e-05 0.08891)
(-1.53691e-05 -2.79115e-05 0.088909)
(-3.11235e-06 -3.05374e-06 0.106839)
(-7.12549e-06 3.94089e-06 0.0889262)
(4.02349e-06 -7.1426e-06 0.088923)
(3.92455e-07 2.23239e-06 0.0932334)
(-1.01364e-06 2.74748e-05 0.0829744)
(1.06086e-06 4.52514e-05 0.0932356)
(-3.73108e-06 -7.22841e-06 0.0829939)
(-3.49787e-06 1.31855e-05 0.0717477)
(4.96095e-06 -5.72081e-06 0.0717937)
(2.23986e-06 4.10738e-07 0.0932338)
(2.74418e-05 -1.00991e-06 0.0829748)
(4.52572e-05 1.06739e-06 0.0932358)
(-7.27866e-06 -3.73718e-06 0.0829944)
(-5.7325e-05 5.72714e-05 0.109774)
(5.72529e-05 -5.73348e-05 0.109774)
(-5.73001e-05 -5.73425e-05 0.109774)
(5.63089e-05 5.6304e-05 0.109978)
(-5.6336e-05 5.62934e-05 0.109977)
(5.62744e-05 -5.63558e-05 0.109977)
(-5.63182e-05 -5.63719e-05 0.109977)
(-3.07278e-05 1.80553e-06 0.101678)
(-5.33745e-05 2.07912e-05 0.0949045)
(-9.70387e-05 1.84496e-05 0.109338)
(-8.43898e-05 5.29651e-05 0.108476)
(-9.00435e-05 3.39834e-06 0.101657)
(-1.17863e-05 -3.04802e-06 0.0949351)
(-9.66241e-05 1.83151e-05 0.109393)
(1.31601e-05 -3.51058e-06 0.071748)
(-5.67797e-06 5.03643e-06 0.0717931)
(1.86129e-06 -3.07694e-05 0.101677)
(1.8471e-05 -9.70699e-05 0.109338)
(2.09128e-05 -5.33887e-05 0.0949065)
(5.29271e-05 -8.44072e-05 0.108476)
(3.58468e-06 -9.01224e-05 0.101657)
(1.83486e-05 -9.66698e-05 0.109393)
(-2.95399e-06 -1.1724e-05 0.0949341)
(-2.60855e-05 -1.46429e-05 0.0887016)
(-1.45649e-05 -2.61368e-05 0.0887006)
(-6.01453e-07 -5.77184e-07 0.106816)
(-5.51812e-06 4.21742e-06 0.0887223)
(4.33399e-06 -5.5432e-06 0.0887192)
(1.72881e-07 6.63891e-07 0.093011)
(-1.06732e-06 2.62567e-05 0.0828115)
(8.17678e-07 4.24217e-05 0.0930075)
(-3.80409e-06 -7.31298e-06 0.0828352)
(-3.52869e-06 1.27387e-05 0.0716353)
(4.84862e-06 -5.65563e-06 0.0716833)
(6.74502e-07 1.91356e-07 0.0930113)
(2.6237e-05 -1.05331e-06 0.0828119)
(4.24284e-05 8.26861e-07 0.0930076)
(-7.32663e-06 -3.78527e-06 0.0828357)
(-5.60033e-05 5.59587e-05 0.110044)
(5.59444e-05 -5.60228e-05 0.110044)
(-5.59837e-05 -5.60366e-05 0.110044)
(5.49763e-05 5.49641e-05 0.11024)
(-5.49853e-05 5.49572e-05 0.11024)
(5.49315e-05 -5.50023e-05 0.110239)
(-5.49535e-05 -5.50291e-05 0.110239)
(-2.53956e-05 1.45184e-06 0.10142)
(-5.03011e-05 1.9392e-05 0.0946746)
(-9.52643e-05 1.79344e-05 0.109554)
(-8.1819e-05 5.16214e-05 0.108593)
(-8.3682e-05 2.97854e-06 0.101397)
(-9.23618e-06 -3.5243e-06 0.0947082)
(-9.47906e-05 1.7815e-05 0.109606)
(1.27293e-05 -3.51981e-06 0.0716355)
(-5.6101e-06 4.92309e-06 0.0716827)
(1.52132e-06 -2.54483e-05 0.101419)
(1.79769e-05 -9.53109e-05 0.109554)
(1.94985e-05 -5.0339e-05 0.0946764)
(5.15947e-05 -8.18259e-05 0.108593)
(3.18418e-06 -8.37607e-05 0.101398)
(1.78545e-05 -9.48488e-05 0.109606)
(-3.43653e-06 -9.17078e-06 0.0947071)
(-2.44291e-05 -1.38895e-05 0.088512)
(-1.37895e-05 -2.44702e-05 0.088511)
(1.91077e-06 1.88611e-06 0.106772)
(-4.10315e-06 4.36681e-06 0.0885365)
(4.51151e-06 -4.14882e-06 0.0885335)
(-4.78147e-08 -6.30848e-07 0.0928091)
(-1.14464e-06 2.53255e-05 0.0826641)
(5.94881e-07 3.99767e-05 0.0928007)
(-3.86295e-06 -7.20545e-06 0.0826914)
(-3.49759e-06 1.23858e-05 0.0715333)
(4.80132e-06 -5.55047e-06 0.071583)
(-6.33188e-07 -1.57632e-08 0.0928094)
(2.53112e-05 -1.12697e-06 0.0826646)
(3.99811e-05 6.06762e-07 0.0928008)
(-7.22404e-06 -3.83256e-06 0.0826919)
(-5.46326e-05 5.46093e-05 0.110303)
(5.45884e-05 -5.46519e-05 0.110303)
(-5.46049e-05 -5.46825e-05 0.110303)
(5.35803e-05 5.35663e-05 0.110492)
(-5.3576e-05 5.35665e-05 0.110492)
(5.3554e-05 -5.35981e-05 0.110492)
(-5.35425e-05 -5.36228e-05 0.110491)
(-2.0598e-05 1.16905e-06 0.101174)
(-4.75547e-05 1.81473e-05 0.0944626)
(-9.32672e-05 1.74243e-05 0.109756)
(-7.91032e-05 5.01982e-05 0.108692)
(-7.78102e-05 2.59355e-06 0.101149)
(-7.01403e-06 -3.98135e-06 0.0944991)
(-9.27363e-05 1.7296e-05 0.109804)
(1.23668e-05 -3.50607e-06 0.0715334)
(-5.50606e-06 4.87895e-06 0.0715823)
(1.221e-06 -2.06537e-05 0.101173)
(1.74825e-05 -9.33125e-05 0.109755)
(1.8251e-05 -4.75783e-05 0.0944642)
(5.01596e-05 -7.91032e-05 0.108692)
(2.8168e-06 -7.79005e-05 0.101149)
(1.73604e-05 -9.27929e-05 0.109804)
(-3.87487e-06 -6.97045e-06 0.0944978)
(-2.2933e-05 -1.32095e-05 0.0883393)
(-1.31387e-05 -2.29737e-05 0.0883384)
(4.4141e-06 4.36747e-06 0.106711)
(-2.89093e-06 4.4779e-06 0.0883672)
(4.57478e-06 -2.91876e-06 0.0883643)
(-1.96618e-07 -1.71899e-06 0.0926252)
(-1.23065e-06 2.45158e-05 0.0825306)
(3.71946e-07 3.77881e-05 0.0926126)
(-3.93805e-06 -7.14747e-06 0.0825611)
(-3.47202e-06 1.2034e-05 0.0714406)
(4.70618e-06 -5.50792e-06 0.0714919)
(-1.71358e-06 -1.41529e-07 0.0926255)
(2.44928e-05 -1.19531e-06 0.0825311)
(3.77968e-05 4.0804e-07 0.0926127)