/*--------------------------------*- C++ -*----------------------------------*\
| =========                 |                                                 |
| \\      /  F ield         | OpenFOAM: The Open Source CFD Toolbox           |
|  \\    /   O peration     | Version:  2312                                  |
|   \\  /    A nd           | Website:  www.openfoam.com                      |
|    \\/     M anipulation  |                                                 |
\*---------------------------------------------------------------------------*/
FoamFile
{
    version     2.0;
    format      ascii;
    arch        "LSB;label=32;scalar=64";
    class       volScalarField;
    location    "200";
    object      epsilon;
}
// * * * * * * * * * * * * * * * * * * * * * * * * * * * * * * * * * * * * * //

dimensions      [0 2 -3 0 0 0 0];

internalField   nonuniform List<scalar> 
43168
(
2.88005e-07
8.09983e-07
8.10853e-07
1.0993e-06
1.09347e-06
8.08981e-07
8.09904e-07
1.09503e-06
8.09038e-07
8.10913e-07
8.10026e-07
8.10598e-07
1.09637e-06
8.11034e-07
8.11372e-07
1.09752e-06
1.09602e-06
8.08923e-07
8.09788e-07
1.09696e-06
8.08912e-07
8.10024e-07
8.09848e-07
1.09777e-06
8.09934e-07
9.06657e-06
9.06766e-06
2.8809e-07
2.88459e-07
2.88958e-07
2.88973e-07
4.0832e-06
9.06645e-06
4.08371e-06
9.06698e-06
1.82466e-05
1.82494e-05
4.08558e-06
9.06761e-06
4.08546e-06
9.06823e-06
2.88347e-07
2.88335e-07
2.88415e-07
2.07277e-06
3.44473e-06
5.09981e-07
8.09807e-07
2.07307e-06
3.44462e-06
5.09841e-07
1.82447e-05
1.82472e-05
2.07429e-06
5.10223e-07
3.44603e-06
8.10304e-07
2.07426e-06
5.09958e-07
3.44529e-06
5.43205e-06
5.43403e-06
1.09717e-06
5.43155e-06
5.43343e-06
1.82433e-05
1.82437e-05
1.09409e-06
5.42947e-06
5.4321e-06
1.82435e-05
1.82409e-05
1.82438e-05
1.82413e-05
1.09476e-06
5.42982e-06
5.4323e-06
5.42989e-06
5.43252e-06
8.08349e-07
3.44357e-06
4.08373e-06
9.06668e-06
9.06628e-06
4.08331e-06
4.08363e-06
9.06821e-06
9.06787e-06
4.08288e-06
2.07177e-06
8.08562e-07
3.44374e-06
5.10221e-07
3.44369e-06
5.10004e-07
2.07084e-06
2.07205e-06
8.09521e-07
3.4453e-06
5.10183e-07
3.44578e-06
5.09847e-07
2.07149e-06
1.82491e-05
1.82463e-05
1.09746e-06
5.43195e-06
5.4302e-06
5.43263e-06
1.82456e-05
8.08659e-07
3.44561e-06
4.08461e-06
9.06779e-06
9.06737e-06
4.08483e-06
2.07342e-06
8.0878e-07
3.44591e-06
5.10286e-07
3.44599e-06
5.10137e-07
2.07244e-06
4.08466e-06
9.06717e-06
9.06667e-06
4.08474e-06
2.07362e-06
8.10987e-07
5.10824e-07
3.44524e-06
5.10698e-07
3.44561e-06
2.07266e-06
3.44395e-06
5.09769e-07
2.07361e-06
9.06572e-06
4.08471e-06
5.11075e-07
3.44598e-06
2.07411e-06
9.06731e-06
4.08517e-06
1.8247e-05
1.82444e-05
1.09838e-06
5.43186e-06
5.43084e-06
5.43228e-06
5.43143e-06
1.82436e-05
1.82412e-05
2.07342e-06
8.11089e-07
5.1001e-07
3.44548e-06
5.09756e-07
3.44583e-06
2.07404e-06
2.0732e-06
8.1143e-07
5.11008e-07
3.44654e-06
5.11058e-07
3.44684e-06
2.07359e-06
4.08611e-06
9.06669e-06
9.06635e-06
4.08617e-06
4.08566e-06
9.06783e-06
9.06738e-06
4.08566e-06
1.10019e-06
5.43131e-06
5.43331e-06
5.43395e-06
1.82467e-05
1.82481e-05
1.82455e-05
1.82412e-05
1.82438e-05
1.82413e-05
1.82439e-05
5.43069e-06
5.43295e-06
1.0945e-06
5.43029e-06
5.43244e-06
1.82414e-05
1.82416e-05
1.09675e-06
5.43103e-06
5.43302e-06
4.0828e-06
9.06792e-06
4.0831e-06
9.06813e-06
2.07146e-06
3.44462e-06
5.10048e-07
8.09012e-07
2.0712e-06
3.44466e-06
5.10084e-07
2.07071e-06
3.44586e-06
5.10096e-07
8.09858e-07
2.07059e-06
3.44547e-06
5.1017e-07
4.08343e-06
9.06677e-06
4.08322e-06
9.06782e-06
2.07142e-06
8.09189e-07
3.44523e-06
5.10223e-07
2.07112e-06
8.09988e-07
3.44599e-06
5.10315e-07
5.43271e-06
5.43102e-06
1.09511e-06
5.43235e-06
5.43063e-06
1.82433e-05
1.82461e-05
1.82469e-05
1.09781e-06
5.43314e-06
5.43125e-06
1.82437e-05
2.07363e-06
3.44674e-06
5.09496e-07
8.08998e-07
2.07296e-06
3.44661e-06
5.09636e-07
4.08541e-06
9.06697e-06
4.08519e-06
9.06762e-06
2.0733e-06
5.10052e-07
3.4456e-06
8.10033e-07
2.07322e-06
5.10209e-07
3.44555e-06
4.08601e-06
9.06804e-06
2.07442e-06
8.09148e-07
3.44709e-06
5.09889e-07
4.08581e-06
9.06743e-06
2.07322e-06
8.10158e-07
5.10465e-07
3.4461e-06
4.08437e-06
9.06559e-06
4.08495e-06
9.06635e-06
2.07201e-06
5.1012e-07
3.44627e-06
8.09959e-07
2.07315e-06
5.09995e-07
3.44604e-06
4.08529e-06
9.06699e-06
4.08547e-06
9.06728e-06
2.07239e-06
8.09843e-07
3.44494e-06
5.0989e-07
4.08479e-06
9.06613e-06
2.07315e-06
8.10248e-07
5.10017e-07
3.44663e-06
4.0856e-06
9.06703e-06
5.4325e-06
5.43137e-06
1.09516e-06
5.43198e-06
5.43058e-06
1.82411e-05
1.82433e-05
1.82449e-05
1.0973e-06
5.43263e-06
5.4311e-06
1.82407e-05
2.07336e-06
5.10161e-07
3.44692e-06
8.09902e-07
2.07376e-06
5.10056e-07
3.4467e-06
4.0861e-06
9.06639e-06
4.08654e-06
9.0666e-06
4.08574e-06
9.06758e-06
4.08607e-06
9.06797e-06
2.07341e-06
8.10216e-07
5.09963e-07
3.44549e-06
2.07358e-06
8.0999e-07
5.10069e-07
3.44725e-06
4.08639e-06
9.06624e-06
4.08629e-06
9.06774e-06
1.82443e-05
1.8247e-05
1.82457e-05
1.82485e-05
1.09919e-06
5.43215e-06
5.43409e-06
1.82446e-05
1.82463e-05
2.18825e-05
7.07881e-06
9.06624e-06
7.0797e-06
2.18872e-05
9.0674e-06
1.20945e-05
4.08359e-06
1.07247e-05
4.73833e-06
1.07243e-05
4.73882e-06
1.20952e-05
2.18865e-05
7.07977e-06
9.06681e-06
2.18818e-05
7.07879e-06
1.20954e-05
4.0832e-06
1.07245e-05
4.73909e-06
1.20946e-05
1.07249e-05
4.7385e-06
2.18816e-05
7.07877e-06
9.06661e-06
7.07974e-06
2.18863e-05
1.82492e-05
1.82468e-05
1.20919e-05
4.08581e-06
4.74128e-06
1.07209e-05
4.74138e-06
1.07203e-05
1.20929e-05
2.18816e-05
7.0816e-06
9.06799e-06
2.18766e-05
7.08081e-06
1.20925e-05
4.08521e-06
4.74072e-06
1.07202e-05
1.20915e-05
4.74057e-06
1.07208e-05
2.1877e-05
7.08121e-06
9.06783e-06
7.08198e-06
2.18819e-05
1.82472e-05
1.82448e-05
9.70287e-06
2.15577e-05
2.1557e-05
2.15531e-05
2.15524e-05
9.70145e-06
4.51165e-06
2.7807e-06
9.39172e-06
5.43134e-06
4.51218e-06
2.78043e-06
9.39228e-06
4.51793e-06
2.78121e-06
9.39656e-06
5.43327e-06
4.51853e-06
2.78104e-06
9.39707e-06
9.70121e-06
2.15527e-05
2.1552e-05
9.7026e-06
2.15572e-05
2.15565e-05
4.51237e-06
9.39246e-06
5.43213e-06
2.78073e-06
2.78086e-06
9.39191e-06
4.51175e-06
4.51853e-06
9.39722e-06
5.43404e-06
2.78151e-06
2.78156e-06
9.39667e-06
4.51798e-06
1.82407e-05
1.82413e-05
9.70257e-06
2.15494e-05
2.15477e-05
2.1545e-05
2.15433e-05
9.70112e-06
4.51231e-06
9.38832e-06
5.42997e-06
2.77869e-06
9.38775e-06
4.51164e-06
2.77875e-06
4.51826e-06
9.39282e-06
5.43268e-06
2.7806e-06
9.39226e-06
4.51758e-06
2.78066e-06
1.8241e-05
1.82434e-05
1.82413e-05
1.82437e-05
9.70121e-06
2.15451e-05
2.15435e-05
9.70274e-06
2.15494e-05
2.15479e-05
4.51264e-06
2.7782e-06
5.43034e-06
9.38853e-06
9.38801e-06
2.77826e-06
4.51174e-06
4.51869e-06
2.78024e-06
5.4329e-06
9.39316e-06
9.39264e-06
2.78033e-06
4.51787e-06
4.51178e-06
9.3879e-06
2.77781e-06
5.42941e-06
4.51253e-06
9.38841e-06
2.7776e-06
4.51784e-06
9.39244e-06
2.77965e-06
5.43202e-06
4.51845e-06
9.39303e-06
2.77953e-06
9.70262e-06
2.15492e-05
2.15478e-05
2.1545e-05
2.15435e-05
9.70104e-06
1.20959e-05
1.07248e-05
4.73955e-06
4.08325e-06
1.20952e-05
1.07253e-05
4.73886e-06
2.18821e-05
9.06635e-06
7.07879e-06
2.18867e-05
7.07972e-06
2.1887e-05
7.07965e-06
9.06659e-06
2.18823e-05
7.07874e-06
1.20949e-05
4.0837e-06
1.07251e-05
4.73875e-06
1.20956e-05
1.07247e-05
4.73923e-06
1.20966e-05
1.07238e-05
4.74021e-06
4.08294e-06
1.20958e-05
1.07242e-05
4.7396e-06
2.18826e-05
9.06792e-06
7.07836e-06
7.07928e-06
2.18874e-05
2.18873e-05
7.0793e-06
9.06818e-06
2.18825e-05
7.07828e-06
1.20958e-05
4.08329e-06
1.07241e-05
4.73968e-06
1.07236e-05
4.74006e-06
1.20966e-05
1.82464e-05
1.82489e-05
4.51717e-06
2.77951e-06
5.43257e-06
9.39632e-06
2.77957e-06
9.39576e-06
4.51628e-06
4.51057e-06
2.7774e-06
5.43076e-06
9.39134e-06
9.39074e-06
2.77749e-06
4.50979e-06
2.77941e-06
5.43169e-06
2.77907e-06
9.70154e-06
2.15567e-05
2.15574e-05
2.15521e-05
2.15526e-05
9.69999e-06
1.82427e-05
1.20918e-05
4.73975e-06
1.07199e-05
4.08441e-06
1.20908e-05
4.73951e-06
1.07205e-05
2.18762e-05
9.06743e-06
7.08045e-06
2.18812e-05
7.08126e-06
2.18808e-05
7.08108e-06
9.06768e-06
2.1876e-05
7.08018e-06
1.20911e-05
4.085e-06
4.74e-06
1.07206e-05
1.20921e-05
4.74017e-06
1.072e-05
1.20919e-05
1.07205e-05
4.73948e-06
4.08443e-06
1.2091e-05
1.0721e-05
4.73934e-06
2.18751e-05
9.06681e-06
7.07748e-06
7.07827e-06
2.18801e-05
2.18796e-05
7.07792e-06
9.06701e-06
2.18746e-05
7.0771e-06
1.2091e-05
4.08497e-06
1.0721e-05
4.73972e-06
1.07204e-05
4.73998e-06
1.20917e-05
2.18705e-05
9.06523e-06
7.0774e-06
7.07837e-06
2.18759e-05
1.2088e-05
4.08512e-06
4.73925e-06
1.0719e-05
4.73964e-06
1.07185e-05
1.2089e-05
2.18741e-05
9.06704e-06
7.07848e-06
7.07951e-06
2.18788e-05
1.2089e-05
4.08556e-06
1.0719e-05
4.74024e-06
1.07184e-05
4.74066e-06
1.20898e-05
1.82445e-05
1.82469e-05
9.70008e-06
2.1551e-05
2.15516e-05
9.70148e-06
2.15553e-05
2.15559e-05
4.51641e-06
2.77986e-06
5.43249e-06
9.39517e-06
2.78009e-06
9.39468e-06
4.51557e-06
4.51099e-06
2.77969e-06
5.43148e-06
9.39094e-06
9.39045e-06
2.7799e-06
4.51012e-06
4.51543e-06
9.3946e-06
2.77959e-06
5.4317e-06
2.77889e-06
4.51602e-06
9.39508e-06
4.51007e-06
9.39041e-06
2.77972e-06
5.4308e-06
4.51065e-06
9.39088e-06
2.77945e-06
9.70149e-06
2.15554e-05
2.15558e-05
2.1551e-05
2.15515e-05
9.70009e-06
1.82411e-05
1.82436e-05
1.20878e-05
4.74161e-06
1.07168e-05
4.0859e-06
1.20869e-05
4.74119e-06
1.07175e-05
2.18729e-05
9.06641e-06
7.08052e-06
7.08145e-06
2.18776e-05
2.18776e-05
7.08144e-06
9.06666e-06
2.18729e-05
7.0805e-06
1.20869e-05
4.0865e-06
4.7411e-06
1.07177e-05
4.74156e-06
1.07171e-05
1.20878e-05
1.20896e-05
4.74153e-06
1.07164e-05
4.08533e-06
1.20886e-05
4.74125e-06
1.0717e-05
2.18751e-05
9.0675e-06
7.08008e-06
7.08103e-06
2.18799e-05
2.18798e-05
7.0808e-06
9.06772e-06
2.18749e-05
7.07995e-06
1.20887e-05
4.08602e-06
4.74149e-06
1.07172e-05
4.74187e-06
1.07166e-05
1.20895e-05
9.70092e-06
2.15567e-05
2.15559e-05
4.51219e-06
2.78035e-06
5.43193e-06
9.39213e-06
4.51125e-06
2.78056e-06
9.39161e-06
4.51862e-06
2.78069e-06
5.434e-06
9.39698e-06
4.51765e-06
2.78086e-06
9.39647e-06
4.51124e-06
5.43125e-06
2.78015e-06
9.39202e-06
4.5178e-06
2.78071e-06
5.43326e-06
2.78043e-06
9.39689e-06
9.70229e-06
2.15569e-05
2.15562e-05
9.70094e-06
2.15524e-05
2.15517e-05
1.82442e-05
1.82467e-05
1.82456e-05
1.82479e-05
1.82437e-05
1.82413e-05
1.82438e-05
1.82414e-05
9.70242e-06
2.15487e-05
2.15476e-05
2.15444e-05
2.15432e-05
9.70081e-06
4.51176e-06
2.77917e-06
9.38809e-06
5.43012e-06
4.51257e-06
9.38856e-06
2.77901e-06
4.51807e-06
2.7811e-06
9.39271e-06
5.43235e-06
4.51875e-06
9.39323e-06
2.78087e-06
9.70093e-06
2.15447e-05
2.15433e-05
9.70252e-06
2.15489e-05
2.15476e-05
4.51228e-06
9.38862e-06
5.43092e-06
2.77961e-06
9.38811e-06
4.51157e-06
2.77975e-06
4.51858e-06
9.39327e-06
5.4331e-06
2.78089e-06
9.39278e-06
4.5178e-06
2.78115e-06
1.82439e-05
1.82442e-05
9.7008e-06
2.15443e-05
2.15432e-05
9.70233e-06
2.15486e-05
2.15476e-05
4.51179e-06
9.3882e-06
2.7801e-06
5.43045e-06
4.51248e-06
9.38872e-06
2.77988e-06
4.51796e-06
9.39284e-06
2.78101e-06
5.43242e-06
4.51866e-06
9.39339e-06
2.7807e-06
1.20957e-05
4.08315e-06
1.0724e-05
4.73975e-06
1.07235e-05
4.7401e-06
1.20965e-05
2.18874e-05
7.0793e-06
9.06821e-06
2.18826e-05
7.07838e-06
1.20965e-05
4.08273e-06
1.07235e-05
4.74e-06
1.0724e-05
1.20957e-05
4.73966e-06
2.18826e-05
7.07841e-06
9.0679e-06
7.07934e-06
2.18874e-05
1.20952e-05
1.07241e-05
4.73851e-06
4.08306e-06
1.20944e-05
1.07246e-05
4.73808e-06
2.18861e-05
7.07969e-06
9.06715e-06
2.18814e-05
7.07875e-06
1.20964e-05
1.07235e-05
4.74013e-06
4.08293e-06
1.20956e-05
1.07241e-05
4.7398e-06
2.18873e-05
7.07933e-06
9.06809e-06
2.18826e-05
7.07841e-06
9.7016e-06
2.15569e-05
2.15574e-05
2.15525e-05
2.1553e-05
9.69995e-06
4.5164e-06
2.77887e-06
9.39595e-06
5.43204e-06
9.39648e-06
4.51711e-06
2.77878e-06
4.50986e-06
2.7782e-06
9.39094e-06
5.43046e-06
2.77801e-06
4.51062e-06
9.39143e-06
9.70014e-06
2.15523e-05
2.15529e-05
2.15568e-05
9.70164e-06
2.15574e-05
4.51693e-06
9.39666e-06
5.43299e-06
2.77929e-06
9.39612e-06
2.77939e-06
4.51622e-06
4.51043e-06
9.39161e-06
5.43125e-06
2.77837e-06
2.77857e-06
9.39105e-06
4.50975e-06
1.82459e-05
1.82435e-05
1.82495e-05
9.70001e-06
2.15527e-05
2.1553e-05
9.70149e-06
2.15571e-05
2.15575e-05
4.51636e-06
9.39627e-06
2.78015e-06
5.43244e-06
2.77988e-06
4.51705e-06
9.39677e-06
4.50992e-06
9.39121e-06
2.77784e-06
5.43054e-06
4.51062e-06
9.39174e-06
2.7776e-06
1.82462e-05
1.20905e-05
4.08562e-06
1.0721e-05
4.73989e-06
1.07205e-05
4.74025e-06
1.20912e-05
2.18806e-05
7.07864e-06
9.06739e-06
2.18756e-05
7.07789e-06
1.20915e-05
4.08503e-06
1.07205e-05
4.74014e-06
1.0721e-05
1.20908e-05
4.73978e-06
2.1876e-05
7.07832e-06
9.06723e-06
7.07908e-06
2.1881e-05
1.20933e-05
4.74204e-06
1.07204e-05
4.08586e-06
1.20923e-05
4.74195e-06
1.0721e-05
2.1882e-05
7.08237e-06
9.06842e-06
2.18772e-05
7.08158e-06
1.2091e-05
1.07205e-05
4.74029e-06
4.08552e-06
1.20903e-05
1.0721e-05
4.73995e-06
2.18812e-05
7.07944e-06
9.06779e-06
2.18763e-05
7.07869e-06
1.20882e-05
4.08485e-06
4.73949e-06
1.07188e-05
4.74e-06
1.07183e-05
1.20891e-05
2.18765e-05
7.07874e-06
9.06606e-06
7.07786e-06
2.18711e-05
1.20891e-05
4.08444e-06
4.73985e-06
1.07184e-05
4.73939e-06
1.20882e-05
1.07189e-05
2.18716e-05
7.07825e-06
9.06593e-06
7.07917e-06
2.1877e-05
1.20891e-05
4.08564e-06
1.07192e-05
4.74021e-06
1.07187e-05
4.74047e-06
1.209e-05
2.18785e-05
7.07928e-06
9.06727e-06
2.18738e-05
7.07826e-06
1.20899e-05
4.08517e-06
1.07186e-05
4.74048e-06
1.2089e-05
1.07192e-05
4.74005e-06
2.18736e-05
7.07804e-06
9.06699e-06
7.07909e-06
2.18783e-05
1.2089e-05
4.74e-06
1.07182e-05
4.08439e-06
1.20881e-05
4.73947e-06
1.07187e-05
2.1877e-05
7.07947e-06
9.06646e-06
2.18719e-05
7.07833e-06
1.20901e-05
1.07187e-05
4.7407e-06
4.0852e-06
1.20892e-05
1.07191e-05
4.74043e-06
2.18783e-05
7.07892e-06
9.06735e-06
2.18735e-05
7.07794e-06
9.70192e-06
2.15555e-05
2.15557e-05
2.15511e-05
2.15513e-05
9.70036e-06
4.51596e-06
2.78009e-06
9.39478e-06
5.43188e-06
9.39528e-06
4.51654e-06
2.77979e-06
4.51044e-06
2.779e-06
9.39055e-06
5.43073e-06
2.77877e-06
4.51107e-06
9.39101e-06
9.70031e-06
2.15511e-05
2.15514e-05
2.15554e-05
9.70176e-06
2.15557e-05
4.51672e-06
9.39541e-06
5.43262e-06
2.78009e-06
9.39489e-06
2.78023e-06
4.51618e-06
4.51101e-06
9.39086e-06
5.43134e-06
2.77905e-06
2.77923e-06
9.39049e-06
4.51029e-06
1.82436e-05
1.8241e-05
1.82474e-05
9.70042e-06
2.15512e-05
2.15513e-05
9.70194e-06
2.15556e-05
2.15555e-05
4.51641e-06
9.395e-06
2.78055e-06
5.43203e-06
2.78054e-06
4.51708e-06
9.3955e-06
4.51025e-06
9.39027e-06
2.77871e-06
5.43027e-06
4.51099e-06
9.39062e-06
2.7785e-06
1.82429e-05
1.2087e-05
4.08658e-06
4.74077e-06
1.07176e-05
4.7412e-06
1.07171e-05
1.20879e-05
2.18776e-05
7.08143e-06
9.06665e-06
7.08049e-06
2.18729e-05
1.20878e-05
4.08613e-06
4.7413e-06
1.07171e-05
4.74084e-06
1.20869e-05
1.07177e-05
2.18728e-05
7.08051e-06
9.06634e-06
7.08144e-06
2.18776e-05
1.20883e-05
4.08619e-06
4.74122e-06
1.07173e-05
4.74179e-06
1.07167e-05
1.2089e-05
2.18798e-05
7.08104e-06
9.06791e-06
2.1875e-05
7.08004e-06
1.20893e-05
4.08563e-06
4.74189e-06
1.07167e-05
1.20886e-05
4.7414e-06
1.07173e-05
2.18749e-05
7.07991e-06
9.06766e-06
7.08096e-06
2.18796e-05
1.2088e-05
4.74108e-06
1.0717e-05
4.08599e-06
1.20871e-05
4.74067e-06
1.07176e-05
2.18774e-05
7.08142e-06
9.06646e-06
2.18727e-05
7.08047e-06
1.20886e-05
4.74149e-06
1.07169e-05
4.08591e-06
1.20879e-05
4.74086e-06
1.07175e-05
2.18794e-05
7.08075e-06
9.06807e-06
2.18746e-05
7.07968e-06
1.82468e-05
1.82445e-05
1.82482e-05
1.82459e-05
9.70203e-06
2.15537e-05
2.1553e-05
9.70326e-06
2.15583e-05
2.15576e-05
4.51201e-06
9.39208e-06
2.78007e-06
5.43162e-06
4.51264e-06
2.77991e-06
9.39265e-06
4.51815e-06
9.39685e-06
2.78094e-06
5.43357e-06
4.51883e-06
2.78091e-06
9.39737e-06
1.82472e-05
1.82489e-05
2.8838e-07
1.49161e-07
1.48924e-07
2.88036e-07
1.49022e-07
1.48773e-07
7.24489e-08
7.24477e-08
2.63522e-06
1.72712e-06
1.72661e-06
1.09717e-06
2.63547e-06
1.72596e-06
1.72574e-06
2.63549e-06
1.09524e-06
1.72286e-06
1.72337e-06
1.72354e-06
1.72406e-06
2.63514e-06
2.63436e-06
1.09693e-06
1.72395e-06
1.72267e-06
1.72479e-06
1.72337e-06
2.6339e-06
2.63448e-06
1.09835e-06
1.72561e-06
1.72532e-06
1.72655e-06
1.72667e-06
2.63396e-06
2.6358e-06
1.09967e-06
1.72622e-06
1.7253e-06
2.63489e-06
1.72728e-06
1.72605e-06
2.6355e-06
1.7246e-06
1.72518e-06
1.09434e-06
2.6358e-06
1.72383e-06
1.7244e-06
2.63399e-06
1.72506e-06
1.72441e-06
1.09496e-06
1.7236e-06
2.63441e-06
1.72395e-06
2.63341e-06
1.72591e-06
1.72574e-06
1.09526e-06
1.72424e-06
2.63451e-06
1.72483e-06
2.883e-07
1.49227e-07
1.48922e-07
1.49273e-07
1.48906e-07
7.24537e-08
7.2461e-08
2.88343e-07
1.48994e-07
1.48945e-07
1.4889e-07
1.48918e-07
7.24817e-08
7.24936e-08
2.8907e-07
1.49321e-07
1.49168e-07
1.49467e-07
1.49202e-07
7.25638e-08
7.25375e-08
2.8901e-07
1.49047e-07
1.49177e-07
1.48999e-07
1.49246e-07
7.24849e-08
7.24818e-08
1.48949e-07
1.48667e-07
2.88392e-07
1.48975e-07
1.48703e-07
7.24737e-08
7.24795e-08
1.49017e-07
1.48833e-07
2.8833e-07
1.48997e-07
1.48824e-07
7.24902e-08
7.25114e-08
1.48703e-07
1.48736e-07
2.88412e-07
1.48734e-07
1.48726e-07
7.24489e-08
7.24556e-08
2.88012e-07
1.49014e-07
1.48787e-07
7.2463e-08
2.88468e-07
1.48992e-07
1.4879e-07
7.24667e-08
2.88363e-07
1.48991e-07
1.48848e-07
7.24875e-08
2.88455e-07
1.48802e-07
1.48755e-07
7.24576e-08
1.36602e-06
2.07258e-06
2.33535e-06
1.22355e-06
2.3359e-06
1.22486e-06
1.36394e-06
1.57017e-06
1.99169e-06
2.83331e-06
3.44431e-06
1.57162e-06
1.99121e-06
2.83331e-06
1.36369e-06
2.07215e-06
2.3358e-06
1.22486e-06
1.36546e-06
2.33531e-06
1.22348e-06
1.57148e-06
2.83288e-06
3.44504e-06
1.99165e-06
1.99229e-06
2.8334e-06
1.56948e-06
1.36602e-06
2.07438e-06
1.2249e-06
2.33753e-06
1.22615e-06
2.33714e-06
1.36428e-06
1.56945e-06
1.99398e-06
2.83532e-06
3.44531e-06
1.5708e-06
1.99294e-06
2.83523e-06
1.36354e-06
2.07433e-06
1.22587e-06
2.33795e-06
1.3653e-06
1.22464e-06
2.33661e-06
1.57104e-06
2.83478e-06
3.44585e-06
1.99315e-06
1.99388e-06
2.83492e-06
1.56969e-06
2.63478e-06
1.09907e-06
1.72599e-06
1.72611e-06
1.72689e-06
1.72693e-06
2.63442e-06
2.63487e-06
1.09642e-06
1.7234e-06
1.72377e-06
2.63455e-06
1.72555e-06
1.72585e-06
2.63483e-06
1.09316e-06
1.72324e-06
1.72369e-06
2.63518e-06
1.72218e-06
1.72268e-06
1.57174e-06
2.83378e-06
3.44437e-06
1.99101e-06
2.83402e-06
1.99292e-06
1.56971e-06
1.36501e-06
2.33593e-06
1.22588e-06
2.07139e-06
1.36704e-06
2.33466e-06
1.22362e-06
1.57175e-06
1.99088e-06
3.44401e-06
2.83284e-06
1.99131e-06
2.83329e-06
1.57033e-06
1.56992e-06
2.83321e-06
1.99082e-06
3.44311e-06
1.98995e-06
1.57183e-06
2.83266e-06
1.36643e-06
2.07096e-06
2.3355e-06
1.22364e-06
2.33538e-06
1.22504e-06
1.36456e-06
1.36524e-06
2.33619e-06
1.22472e-06
2.07141e-06
1.36733e-06
2.33618e-06
1.22276e-06
1.57185e-06
1.99237e-06
3.44576e-06
2.83347e-06
2.83379e-06
1.99299e-06
1.57027e-06
1.56993e-06
2.83382e-06
1.99324e-06
3.44493e-06
1.57218e-06
2.83278e-06
1.99193e-06
1.36673e-06
2.0715e-06
2.33492e-06
1.22307e-06
2.33576e-06
1.22436e-06
1.36482e-06
1.09493e-06
1.72513e-06
1.72368e-06
3.44653e-06
1.99224e-06
1.99413e-06
1.36352e-06
2.33714e-06
1.22799e-06
2.07366e-06
1.36695e-06
2.33757e-06
1.22649e-06
1.57206e-06
1.99211e-06
3.44624e-06
2.83452e-06
1.99255e-06
2.83592e-06
1.57009e-06
1.57048e-06
2.83615e-06
1.99211e-06
3.44543e-06
1.99121e-06
1.57271e-06
2.83576e-06
1.36542e-06
2.07356e-06
2.33735e-06
1.22616e-06
2.33771e-06
1.22781e-06
1.36276e-06
1.36364e-06
1.22762e-06
2.3364e-06
2.07358e-06
1.36539e-06
1.22614e-06
2.33657e-06
1.57005e-06
1.9927e-06
3.44575e-06
2.83337e-06
2.83449e-06
1.99338e-06
1.56844e-06
1.56825e-06
2.83448e-06
1.99313e-06
3.44508e-06
1.57026e-06
2.83408e-06
1.99241e-06
1.36497e-06
2.07355e-06
1.22585e-06
2.33672e-06
1.22756e-06
2.33684e-06
1.3628e-06
1.57139e-06
1.9904e-06
3.44427e-06
2.83253e-06
1.56991e-06
1.99084e-06
2.83267e-06
1.3653e-06
2.0733e-06
2.33561e-06
1.2232e-06
1.36292e-06
2.33605e-06
1.22456e-06
1.57213e-06
1.99364e-06
3.44648e-06
2.83457e-06
2.83486e-06
1.99437e-06
1.57002e-06
1.36563e-06
2.07384e-06
1.22524e-06
2.33777e-06
1.22694e-06
2.33727e-06
1.36329e-06
2.63374e-06
1.09648e-06
1.72657e-06
1.72649e-06
1.72558e-06
2.63414e-06
1.72574e-06
1.36458e-06
1.22548e-06
2.33815e-06
2.07369e-06
1.36762e-06
1.22376e-06
2.33827e-06
1.57159e-06
1.99304e-06
3.44603e-06
2.83421e-06
1.5692e-06
1.99374e-06
2.83547e-06
1.56951e-06
2.83544e-06
1.99351e-06
3.44534e-06
1.57197e-06
1.99278e-06
2.83404e-06
1.36522e-06
2.07312e-06
1.22402e-06
2.33833e-06
1.36236e-06
1.22527e-06
2.33833e-06
1.3639e-06
1.22688e-06
2.33671e-06
2.07315e-06
1.36575e-06
1.2254e-06
2.33701e-06
1.57182e-06
1.9939e-06
3.44702e-06
2.83441e-06
2.83515e-06
1.99461e-06
1.56998e-06
1.56882e-06
2.8348e-06
1.99444e-06
3.44634e-06
1.57182e-06
2.83406e-06
1.99368e-06
1.36493e-06
2.07361e-06
1.22549e-06
2.3376e-06
1.22692e-06
2.33676e-06
1.36293e-06
2.63531e-06
1.09743e-06
1.72576e-06
1.72636e-06
1.72484e-06
2.63496e-06
1.09634e-06
1.72412e-06
1.72479e-06
2.63461e-06
1.72498e-06
1.72563e-06
2.63483e-06
1.09415e-06
1.725e-06
1.72577e-06
2.63516e-06
1.72411e-06
1.72489e-06
1.36678e-06
2.07135e-06
2.33549e-06
1.22403e-06
2.33522e-06
1.22531e-06
1.36472e-06
1.57051e-06
1.99239e-06
2.83362e-06
3.44428e-06
2.83308e-06
1.57191e-06
1.99187e-06
1.36467e-06
2.07048e-06
2.33528e-06
1.22504e-06
2.33428e-06
1.36653e-06
1.22355e-06
1.57197e-06
2.83316e-06
3.44504e-06
1.99239e-06
2.83353e-06
1.99297e-06
1.57003e-06
1.36713e-06
2.07078e-06
2.33575e-06
1.22368e-06
2.33534e-06
1.22496e-06
1.36496e-06
1.57064e-06
1.99299e-06
2.8341e-06
3.44538e-06
1.57202e-06
2.83359e-06
1.99235e-06
1.3648e-06
2.07036e-06
2.33588e-06
1.22467e-06
1.36676e-06
2.33564e-06
1.2231e-06
1.57171e-06
2.83239e-06
3.44607e-06
1.99269e-06
2.83356e-06
1.56959e-06
1.99337e-06
1.36527e-06
2.33568e-06
1.22564e-06
2.07079e-06
1.36709e-06
2.33593e-06
1.22427e-06
1.57053e-06
2.83383e-06
1.9931e-06
3.44492e-06
1.99252e-06
1.57214e-06
2.8337e-06
1.3652e-06
2.33574e-06
1.22537e-06
2.07041e-06
1.36706e-06
2.33637e-06
1.224e-06
1.56998e-06
2.83395e-06
1.9934e-06
3.44548e-06
1.57173e-06
2.83377e-06
1.99274e-06
2.63345e-06
1.09719e-06
1.72434e-06
1.72396e-06
1.7248e-06
1.72523e-06
2.63311e-06
2.63353e-06
1.09526e-06
1.7256e-06
1.7249e-06
1.72463e-06
2.6338e-06
1.72403e-06
1.36577e-06
2.0735e-06
2.33831e-06
1.22544e-06
2.33814e-06
1.22672e-06
1.36403e-06
1.57039e-06
1.99361e-06
2.83578e-06
3.4463e-06
2.83517e-06
1.57174e-06
1.99305e-06
1.36332e-06
2.07244e-06
2.33741e-06
1.2268e-06
2.33794e-06
1.3652e-06
1.22518e-06
1.57166e-06
2.83542e-06
3.44702e-06
1.9935e-06
2.8357e-06
1.99411e-06
1.57021e-06
1.36636e-06
2.07342e-06
1.22545e-06
2.3368e-06
1.22681e-06
2.33719e-06
1.36467e-06
1.56903e-06
1.99319e-06
2.83396e-06
3.44521e-06
1.57028e-06
2.83304e-06
1.99257e-06
1.36383e-06
2.07335e-06
1.22711e-06
2.33651e-06
1.36563e-06
1.22553e-06
2.33614e-06
1.57071e-06
2.83348e-06
3.44596e-06
1.99296e-06
2.83426e-06
1.5692e-06
1.99358e-06
1.36458e-06
2.33846e-06
1.22708e-06
2.07453e-06
1.36639e-06
2.33867e-06
1.2257e-06
1.57024e-06
2.83661e-06
1.99417e-06
3.44673e-06
1.99356e-06
1.57178e-06
2.8364e-06
1.36499e-06
1.2269e-06
2.33767e-06
2.0734e-06
1.36697e-06
1.22563e-06
2.33781e-06
1.56943e-06
2.83511e-06
1.99368e-06
3.44566e-06
1.57163e-06
2.83481e-06
1.99307e-06
1.36603e-06
2.07313e-06
1.22426e-06
2.33772e-06
1.22557e-06
2.33707e-06
1.36403e-06
1.5702e-06
1.99412e-06
2.83445e-06
3.44581e-06
1.99342e-06
1.57165e-06
2.83398e-06
1.36379e-06
2.07319e-06
1.22533e-06
2.33774e-06
1.22369e-06
1.36558e-06
2.33747e-06
1.57164e-06
2.83383e-06
3.4465e-06
1.99369e-06
1.99438e-06
2.83368e-06
1.57032e-06
1.3641e-06
2.33601e-06
1.22507e-06
2.07232e-06
1.366e-06
2.33615e-06
1.22333e-06
1.56962e-06
2.83364e-06
1.9922e-06
3.44447e-06
1.57137e-06
1.99154e-06
2.83335e-06
1.36421e-06
1.22618e-06
2.33747e-06
2.07323e-06
1.36622e-06
1.22462e-06
2.33784e-06
1.57051e-06
2.83496e-06
1.99436e-06
3.44622e-06
1.57217e-06
2.83478e-06
1.99366e-06
2.63305e-06
1.09711e-06
1.72512e-06
1.72405e-06
1.72503e-06
1.72599e-06
2.6327e-06
2.63314e-06
1.09555e-06
1.72627e-06
1.72514e-06
1.72532e-06
2.63344e-06
1.72429e-06
1.36612e-06
2.07354e-06
1.22494e-06
2.33719e-06
1.22622e-06
2.33765e-06
1.36443e-06
1.5701e-06
1.99439e-06
2.83491e-06
3.44648e-06
1.99369e-06
1.57157e-06
2.83456e-06
1.3637e-06
2.0734e-06
1.22605e-06
2.33741e-06
1.22432e-06
1.36556e-06
2.33761e-06
1.57147e-06
2.8346e-06
3.44716e-06
1.99397e-06
1.99466e-06
2.83498e-06
1.57001e-06
1.3647e-06
1.22593e-06
2.3371e-06
2.07245e-06
1.36655e-06
1.22464e-06
2.33714e-06
1.56987e-06
2.83471e-06
1.99364e-06
3.44489e-06
1.5716e-06
1.99293e-06
2.83415e-06
1.36482e-06
1.22682e-06
2.33757e-06
2.07338e-06
1.36672e-06
1.2253e-06
2.33732e-06
1.57017e-06
2.83539e-06
1.99466e-06
3.44685e-06
1.57165e-06
2.83515e-06
1.99399e-06
2.63499e-06
1.09669e-06
1.72641e-06
1.72689e-06
2.63525e-06
1.72522e-06
1.72612e-06
2.88012e-07
8.09777e-07
8.10001e-07
1.0989e-06
2.88098e-07
8.0983e-07
8.10102e-07
1.09867e-06
2.88099e-07
8.09787e-07
8.10241e-07
1.09823e-06
2.88005e-07
8.09817e-07
8.10115e-07
1.09825e-06
2.8791e-07
8.09722e-07
8.09919e-07
1.09759e-06
2.87892e-07
8.096e-07
8.09829e-07
1.09694e-06
2.87868e-07
8.09345e-07
8.09651e-07
1.09701e-06
2.87807e-07
8.09207e-07
8.09244e-07
1.09666e-06
2.87801e-07
8.08968e-07
8.08948e-07
1.0958e-06
2.87837e-07
8.08927e-07
8.08876e-07
1.0961e-06
2.87812e-07
8.08821e-07
8.08776e-07
1.09571e-06
2.8785e-07
8.08639e-07
8.08574e-07
1.09532e-06
2.87827e-07
8.08627e-07
8.0854e-07
1.09527e-06
2.87775e-07
8.08535e-07
8.08464e-07
1.09547e-06
2.8775e-07
8.08457e-07
8.08462e-07
1.09517e-06
2.87745e-07
8.08443e-07
8.08358e-07
1.09543e-06
2.87767e-07
8.08484e-07
8.08416e-07
1.0956e-06
2.87807e-07
8.0861e-07
8.08563e-07
1.09511e-06
2.87047e-07
8.08672e-07
8.08698e-07
1.09252e-06
3.20086e-07
7.1696e-07
7.1687e-07
1.0337e-06
1.09402e-06
8.09194e-07
8.09953e-07
1.09553e-06
8.09205e-07
8.10189e-07
8.09795e-07
8.10252e-07
1.09555e-06
8.10098e-07
8.09987e-07
1.09658e-06
1.0974e-06
1.09494e-06
8.09269e-07
8.10016e-07
8.09317e-07
8.09846e-07
1.09753e-06
1.09603e-06
8.09191e-07
8.10237e-07
8.09288e-07
8.1014e-07
8.10361e-07
8.09827e-07
8.1022e-07
1.09738e-06
1.09578e-06
8.09934e-07
8.10104e-07
8.10045e-07
1.09629e-06
1.09714e-06
1.09482e-06
8.09776e-07
8.10307e-07
8.09658e-07
8.1019e-07
1.09789e-06
1.09608e-06
8.09586e-07
8.10432e-07
8.09371e-07
8.10149e-07
8.1049e-07
8.09807e-07
8.10325e-07
1.09765e-06
1.09637e-06
8.10473e-07
8.10235e-07
8.10499e-07
1.09557e-06
1.09663e-06
1.09488e-06
8.09814e-07
8.10378e-07
8.09633e-07
8.10126e-07
1.09779e-06
1.09559e-06
8.09601e-07
8.10342e-07
8.0929e-07
8.10169e-07
8.10544e-07
8.09808e-07
8.10283e-07
1.09812e-06
1.09607e-06
8.10638e-07
8.10137e-07
8.10525e-07
1.09609e-06
1.09644e-06
1.09338e-06
8.09931e-07
8.10376e-07
8.09656e-07
8.10175e-07
1.09733e-06
1.09515e-06
8.09465e-07
8.10312e-07
8.09285e-07
8.10113e-07
8.10578e-07
8.09703e-07
8.10367e-07
1.09782e-06
1.09567e-06
8.10808e-07
8.0998e-07
8.1045e-07
1.09567e-06
1.09643e-06
1.0929e-06
8.09829e-07
8.10266e-07
8.09455e-07
8.09925e-07
1.09676e-06
1.09414e-06
8.09384e-07
8.10261e-07
8.09055e-07
8.10015e-07
8.10648e-07
8.09697e-07
8.10345e-07
1.09743e-06
1.09562e-06
8.10622e-07
8.09872e-07
8.10283e-07
1.09499e-06
1.09595e-06
1.09276e-06
8.09565e-07
8.10077e-07
8.09192e-07
8.09671e-07
1.09572e-06
1.09269e-06
8.09197e-07
8.10128e-07
8.0906e-07
8.09806e-07
8.10446e-07
8.0942e-07
8.10185e-07
1.09743e-06
1.09547e-06
8.10462e-07
8.09848e-07
8.10092e-07
1.09503e-06
1.09573e-06
1.09305e-06
8.09348e-07
8.09781e-07
8.09163e-07
8.09298e-07
1.09562e-06
1.0922e-06
8.09165e-07
8.09896e-07
8.08931e-07
8.0948e-07
8.10356e-07
8.09306e-07
8.10097e-07
1.09713e-06
1.09472e-06
8.10298e-07
8.09486e-07
8.10009e-07
1.09478e-06
1.09566e-06
1.09364e-06
8.09317e-07
8.09438e-07
8.09132e-07
8.09157e-07
1.09521e-06
1.09285e-06
8.09051e-07
8.09559e-07
8.08999e-07
8.09289e-07
8.10221e-07
8.09056e-07
8.09817e-07
1.09644e-06
1.09413e-06
8.10001e-07
8.09071e-07
8.09503e-07
1.09363e-06
1.09528e-06
1.09361e-06
8.09374e-07
8.09402e-07
8.09177e-07
8.09189e-07
1.09462e-06
1.09331e-06
8.09152e-07
8.0936e-07
8.08865e-07
8.09022e-07
8.09948e-07
8.08918e-07
8.0949e-07
1.09583e-06
1.09377e-06
8.09791e-07
8.08908e-07
8.09282e-07
1.09375e-06
1.09543e-06
1.09398e-06
8.09262e-07
8.09308e-07
8.09053e-07
8.08987e-07
1.09527e-06
1.09333e-06
8.09041e-07
8.09294e-07
8.08887e-07
8.08991e-07
8.09722e-07
8.08896e-07
8.0935e-07
1.09557e-06
1.09324e-06
8.09586e-07
8.08825e-07
8.09115e-07
1.09365e-06
1.09582e-06
1.09436e-06
8.09309e-07
8.09208e-07
8.0913e-07
8.09054e-07
1.09643e-06
1.09277e-06
8.0901e-07
8.08992e-07
8.08762e-07
8.08774e-07
8.09491e-07
8.08694e-07
8.09202e-07
1.09494e-06
1.09242e-06
8.09351e-07
8.08605e-07
8.09005e-07
1.093e-06
1.0961e-06
1.09411e-06
8.09303e-07
8.09147e-07
8.09096e-07
8.08825e-07
1.09587e-06
1.09277e-06
8.089e-07
8.08992e-07
8.08606e-07
8.08627e-07
8.09297e-07
8.08686e-07
8.091e-07
1.09417e-06
1.09232e-06
8.09098e-07
8.08567e-07
8.08841e-07
1.09308e-06
1.09581e-06
1.09338e-06
8.09264e-07
8.08973e-07
8.08923e-07
8.08665e-07
1.09508e-06
1.09328e-06
8.08824e-07
8.08892e-07
8.08469e-07
8.08629e-07
8.09207e-07
8.08551e-07
8.09012e-07
1.09412e-06
1.09229e-06
8.09087e-07
8.08485e-07
8.08734e-07
1.09345e-06
1.09501e-06
1.09276e-06
8.09066e-07
8.08793e-07
8.08786e-07
8.08642e-07
1.09508e-06
1.09314e-06
8.08595e-07
8.08691e-07
8.08322e-07
8.08526e-07
8.091e-07
8.08485e-07
8.08813e-07
1.09407e-06
1.0926e-06
8.08991e-07
8.08486e-07
8.08739e-07
1.0926e-06
1.09448e-06
1.09289e-06
8.08913e-07
8.08689e-07
8.0867e-07
8.08342e-07
1.09482e-06
1.09314e-06
8.08469e-07
8.08649e-07
8.08324e-07
8.08538e-07
8.09037e-07
8.08455e-07
8.08974e-07
1.0944e-06
1.09265e-06
8.08816e-07
8.08369e-07
8.08679e-07
1.09286e-06
1.09452e-06
1.09218e-06
8.0887e-07
8.08585e-07
8.08734e-07
8.08483e-07
1.09487e-06
1.09325e-06
8.08445e-07
8.08674e-07
8.08402e-07
8.08552e-07
8.09072e-07
8.08415e-07
8.08931e-07
1.09437e-06
1.09253e-06
8.08771e-07
8.08399e-07
8.08581e-07
1.09356e-06
1.0954e-06
1.09162e-06
8.09023e-07
8.08704e-07
8.0876e-07
8.08756e-07
1.09473e-06
1.09292e-06
8.08446e-07
8.08842e-07
8.08553e-07
8.08878e-07
8.09048e-07
8.08601e-07
8.09037e-07
1.09411e-06
1.09165e-06
8.08787e-07
8.08544e-07
8.08767e-07
1.09344e-06
1.09384e-06
1.08996e-06