/*--------------------------------*- C++ -*----------------------------------*\
| =========                 |                                                 |
| \\      /  F ield         | OpenFOAM: The Open Source CFD Toolbox           |
|  \\    /   O peration     | Version:  2312                                  |
|   \\  /    A nd           | Website:  www.openfoam.com                      |
|    \\/     M anipulation  |                                                 |
\*---------------------------------------------------------------------------*/
FoamFile
{
    version     2.0;
    format      ascii;
    arch        "LSB;label=32;scalar=64";
    class       surfaceScalarField;
    location    "200";
    object      phi;
}
// * * * * * * * * * * * * * * * * * * * * * * * * * * * * * * * * * * * * * //

dimensions      [0 3 -1 0 0 0 0];

oriented        oriented;

internalField   nonuniform List<scalar> 
125280
(
-1.71509e-09
-9.77611e-09
-0.00119201
4.20114e-09
2.35433e-09
0.00119202
-0.00114216
-1.25146e-06
8.15615e-09
-2.93339e-08
0.0011422
-2.7907e-07
1.24789e-06
2.72394e-07
9.08373e-07
-2.6349e-07
-9.11097e-07
2.59319e-07
-0.00114209
-1.24757e-06
-1.91365e-09
1.66946e-08
0.00114209
-2.77539e-07
1.24404e-06
2.715e-07
9.07903e-07
-2.64237e-07
-9.09332e-07
2.58787e-07
-0.000271898
1.27745e-06
1.23962e-06
-2.38897e-07
-2.42686e-07
0.000269862
-1.28976e-06
-1.24865e-06
0.000271988
-0.000269937
2.40344e-07
2.46736e-07
0.00114175
1.63143e-09
-0.00114176
1.7909e-08
-1.28962e-06
2.74472e-07
-2.83023e-07
-9.11339e-07
2.56298e-07
-2.61189e-07
9.11426e-07
1.28966e-06
0.00114173
1.83863e-07
-0.00114189
-1.48897e-08
-1.28173e-06
2.80017e-07
-2.77169e-07
-9.17499e-07
2.52483e-07
-2.64874e-07
9.10152e-07
-1.22582e-06
0.000271949
-0.000269917
2.34149e-07
2.48885e-07
0.00114275
4.96395e-09
-0.00114275
1.03799e-08
-1.24613e-06
2.72975e-07
-2.76283e-07
-9.15617e-07
2.57274e-07
-2.65864e-07
9.125e-07
1.28366e-06
0.00114159
1.20331e-08
-0.00114159
-3.3753e-11
-1.27932e-06
2.79046e-07
-2.809e-07
-9.16241e-07
2.53649e-07
-2.66518e-07
9.11325e-07
5.24793e-08
-1.61528e-07
-1.31109e-06
2.69291e-07
-2.85173e-07
-9.13914e-07
2.56398e-07
9.05824e-07
-2.66415e-07
-0.00114193
1.28167e-06
0.00114123
1.9944e-08
8.06178e-09
-1.27487e-06
2.77621e-07
-2.79191e-07
-9.11294e-07
2.55999e-07
-2.64017e-07
9.05401e-07
-0.00114125
-1.24662e-06
0.000271928
-0.000269887
2.40799e-07
2.48298e-07
-1.28654e-09
-0.0011421
2.87486e-08
-1.24744e-06
2.71297e-07
-2.77709e-07
-9.08795e-07
2.58716e-07
9.07884e-07
-2.64188e-07
1.24045e-06
0.00114222
2.07991e-09
-0.00114217
-2.94321e-08
-1.24526e-06
2.73011e-07
-2.78483e-07
-9.1158e-07
2.58079e-07
-2.64865e-07
9.10268e-07
-0.000269863
2.40093e-07
2.46809e-07
1.28905e-06
1.24588e-06
-2.36656e-07
-2.45751e-07
0.000269936
1.15202e-08
0.00114175
-2.79539e-07
1.29015e-06
2.74863e-07
9.10962e-07
-2.60896e-07
-9.11306e-07
2.56249e-07
-1.28362e-06
1.44531e-08
8.01752e-10
0.00114172
-2.79544e-07
1.28998e-06
2.80359e-07
9.12472e-07
-2.64797e-07
-9.14667e-07
2.57912e-07
-2.45364e-07
-2.40499e-07
0.0002699
9.34836e-09
0.00114274
-2.75905e-07
1.24878e-06
2.73192e-07
9.12718e-07
-2.65451e-07
-9.15254e-07
2.57525e-07
-1.27949e-06
1.17484e-08
3.23337e-09
0.00114159
-2.80742e-07
1.28364e-06
2.79208e-07
9.11124e-07
-2.63736e-07
-9.16421e-07
2.53763e-07
-9.97105e-10
6.9271e-09
0.00114124
-2.7903e-07
1.27944e-06
2.75148e-07
9.05132e-07
-2.61258e-07
2.53244e-07
-9.06166e-07
-2.41849e-07
-2.44419e-07
0.000269888
1.52504e-09
-1.28121e-08
0.00114224
-2.75349e-07
1.24356e-06
2.73363e-07
9.09878e-07
-2.64646e-07
2.5818e-07
-9.11932e-07
7.06949e-09
-3.8916e-08
0.000191651
3.45495e-09
-0.000191623
8.94869e-09
-3.73954e-08
0.000191613
-0.000191586
-0.00119202
1.08553e-08
2.21809e-09
0.00119159
-0.00119109
-8.69967e-08
-1.76924e-07
0.00119149
-0.00119149
-1.44405e-08
2.90279e-08
0.00119145
-0.00119138
-2.4177e-08
-2.58766e-08
6.8779e-10
-6.15851e-08
0.000228115
-0.000228082
2.70727e-08
9.96754e-10
-0.000191651
-6.63159e-09
4.07407e-08
-5.72968e-09
0.000191623
-0.000228115
1.54294e-09
5.92726e-08
0.000228082
-2.6145e-08
-1.46099e-09
7.82549e-09
-3.86638e-08
0.000191652
2.12861e-09
-0.000191623
-9.68118e-05
5.34713e-09
2.41406e-08
9.67824e-05
-8.76238e-09
-2.09902e-08
9.68124e-05
-9.67827e-05
-6.04717e-08
-7.69065e-11
0.000228064
-0.000228032
1.84026e-09
2.67686e-08
-0.000191611
-5.89706e-09
4.16493e-08
-6.86248e-09
0.000191582
-0.000228068
6.077e-08
5.29857e-10
0.000228034
-7.89978e-10
-2.66421e-08
8.54742e-09
-3.78811e-08
0.00019161
9.7265e-10
-0.000191582
-1.70015e-08
-4.26516e-08
0.00119167
-4.29628e-09
1.64475e-08
0.00119149
-7.5218e-09
-2.0082e-08
0.00119148
6.15264e-08
-2.1473e-09
0.000250373
-0.00025025
2.70607e-09
-1.8497e-07
-0.000244283
-2.16647e-08
-4.09393e-08
1.01364e-07
1.30905e-08
0.000244231
0.00116362
-0.00116366
-1.04887e-08
1.57869e-08
1.00118e-06
-8.20383e-07
-1.00169e-06
8.22999e-07
5.58468e-09
1.25027e-06
0.00114221
-3.571e-09
-9.08314e-07
2.59265e-07
-2.63405e-07
9.08504e-07
-1.2489e-06
2.72189e-07
-2.76569e-07
-0.000250376
-5.87579e-08
7.29994e-10
0.000250253
-8.47306e-10
1.81737e-07
2.26107e-08
3.82436e-08
0.000244285
-1.56769e-08
-0.000244232
-9.77191e-08
-7.79284e-09
0.00116363
-5.91046e-10
-9.98587e-07
8.20117e-07
-8.20535e-07
9.99178e-07
-9.67985e-05
5.90636e-09
2.15061e-08
9.67711e-05
-8.10308e-09
-1.9266e-08
9.67983e-05
-9.67709e-05
1.6353e-10
6.15249e-08
0.00025036
-0.000250238
-1.8501e-07
1.37356e-09
0.00116349
-0.00116349
1.65452e-08
-8.26115e-11
1.00129e-06
-8.23566e-07
-9.99123e-07
8.22509e-07
-0.00024426
-2.27131e-08
-4.0817e-08
9.90848e-08
1.44727e-08
0.00024421
1.18822e-08
1.24405e-06
0.00114209
-2.13081e-09
-9.08822e-07
2.58855e-07
-2.64034e-07
9.08202e-07
-1.24485e-06
2.71332e-07
-2.77692e-07
-0.00025036
2.38448e-09
-5.92802e-08
0.000250238
1.82202e-07
-3.23863e-09
2.72438e-09
0.00116349
3.73801e-10
-9.98531e-07
8.22914e-07
-8.20533e-07
1.00172e-06
2.15176e-08
3.83664e-08
0.000244259
-1.44837e-08
-0.000244209
-9.51405e-08
-0.000275931
2.21105e-08
-2.07807e-08
4.40298e-08
-1.03742e-08
0.000275896
-0.000275849
2.09762e-08
-2.14104e-08
4.46544e-08
-1.02007e-08
0.000275815
-1.27934e-06
-1.24336e-06
0.000271898
-0.000269863
2.42718e-07
2.44553e-07
-2.23368e-08
1.9493e-08
0.00027593
1.08674e-08
-0.000275893
-4.49015e-08
-2.31734e-08
1.91729e-08
0.00027585
1.17167e-08
-0.000275816
-4.21593e-08
-2.03081e-08
9.68273e-05
-9.67999e-05
-1.83004e-08
9.68079e-05
-9.67806e-05
0.000271991
-1.2901e-06
-1.25227e-06
-0.000269936
2.40633e-07
2.46607e-07
0.000275973
-2.091e-08
1.22285e-08
-0.000275939
-4.55506e-08
0.000275887
-2.09852e-08
1.20842e-08
-0.000275853
-4.36692e-08
-1.98564e-08
-7.58127e-09
9.68273e-05
-9.67999e-05
2.04126e-08
7.09949e-09
9.67998e-05
-1.87607e-08
-8.54226e-09
9.68074e-05
-9.67801e-05
2.21262e-08
5.48151e-09
9.67803e-05
1.28917e-06
1.24815e-06
0.000269936
-2.36282e-07
-2.45991e-07
-2.13345e-08
0.000275972
-4.52527e-08
-0.000275938
1.25089e-08
-2.08771e-08
0.000275886
-4.3956e-08
-0.000275852
1.16328e-08
2.3073e-08
-1.39531e-08
4.59589e-08
0.000275938
1.84497e-08
-9.16598e-09
4.76934e-08
0.000275852
0.00114176
1.84071e-10
-1.28906e-06
2.74587e-07
-2.79869e-07
-9.11005e-07
2.59423e-07
-2.63322e-07
9.11681e-07
1.75156e-08
0.000244291
-1.3848e-08
-0.000244239
-9.80965e-08
1.96893e-09
5.94678e-08
-2.62332e-08
-2.47351e-09
0.000228083
-0.000228116
-3.87651e-08
-0.000191622
2.54778e-09
4.06418e-08
-4.87212e-09
0.000191622
1.50491e-09
-6.15848e-08
-0.000228082
2.71303e-08
3.48759e-10
5.94846e-08
-2.63305e-08
1.34097e-09
0.000228041
-0.000228073
-3.99348e-08
9.02219e-09
0.000191592
-0.000191561
3.97567e-10
4.39369e-08
-5.0443e-09
-8.28009e-09
0.000191561
-0.000191592
-6.13653e-08
0.000228073
-0.00022804
2.70876e-08
3.59075e-09
2.61472e-09
-3.08037e-09
1.81989e-07
0.000250281
-0.000250403
5.57886e-09
5.37056e-10
1.2896e-06
-2.79918e-07
2.76945e-07
9.11068e-07
-2.60949e-07
2.56116e-07
-9.1146e-07
0.00024429
-9.79611e-08
-0.000244238
-1.40949e-08
-0.00116395
6.73694e-09
0.00116395
4.47763e-09
-1.00146e-06
8.25273e-07
-8.2367e-07
1.00459e-06
1.48448e-08
1.01117e-07
0.000244239
5.51608e-09
-2.45844e-09
1.00441e-06
-8.23498e-07
-1.00163e-06
8.25301e-07
-0.00116395
8.50412e-10
0.000250404
-0.000250282
-2.09679e-10
-1.8504e-07
-7.38761e-10
1.82106e-07
0.000250255
-0.000250374
1.82362e-08
-1.28917e-06
-1.86733e-07
9.15175e-07
-2.59445e-07
-9.12233e-07
2.57705e-07
1.2927e-06
-2.823e-07
2.80159e-07
-0.00114173
2.40241e-08
0.000244184
-9.67572e-08
-0.000244132
-1.96748e-08
-0.00116388
0.00116385
2.8754e-08
-1.01007e-06
8.24912e-07
-8.26766e-07
1.00669e-06
-1.96547e-08
1.36299e-08
1.02259e-07
0.000244132
-0.000244184
-3.103e-08
1.01172e-06
-8.23638e-07
-1.0048e-06
8.27694e-07
-0.00116384
0.000250375
-0.000250255
4.71128e-09
-1.84769e-07
-2.07985e-08
-9.6782e-05
2.45825e-08
9.67818e-05
-9.68114e-05
0.000269917
-2.29844e-07
-0.000271955
1.22415e-06
-2.45829e-07
0.000275858
-4.1793e-08
-0.000275826
1.29563e-08
1.96358e-08
-2.2504e-08
0.000276
-4.31845e-08
-0.000275965
1.11473e-08
4.49199e-08
0.000275824
-0.000275855
-8.99594e-09
-8.08081e-09
9.68252e-05
-9.67975e-05
0.00114275
4.57533e-09
-1.24789e-06
2.73717e-07
-2.75448e-07
2.57328e-07
-2.65609e-07
0.000244239
-0.000244185
-9.38287e-08
6.06762e-08
7.54084e-10
-8.03169e-10
-2.66374e-08
0.000228038
-3.77748e-08
-0.000191583
1.09418e-09
4.20966e-08
-7.29896e-09
0.000191584
-6.02878e-08
1.49666e-10
-0.000228036
1.73376e-09
2.67709e-08
2.57924e-09
-2.72518e-09
1.84162e-07
0.000250255
8.47618e-09
4.80413e-09
1.2516e-06
-2.75716e-07
2.73107e-07
9.12414e-07
-2.65909e-07
2.56973e-07
-9.15654e-07
0.000244238
-9.40086e-08
-0.000244183
-1.88949e-08
-0.00116377
-2.15311e-09
0.00116378
8.55212e-09
-1.00588e-06
8.23004e-07
-8.25987e-07
1.00535e-06
1.48793e-08
1.00679e-07
0.000244184
4.65004e-09
1.40928e-08
1.006e-06
-8.25468e-07
-1.00529e-06
8.23561e-07
-5.15642e-10
0.000250375
-0.000250253
1.74176e-09
-1.82901e-07
6.09241e-08
-2.66938e-08
2.71997e-10
0.000228002
-3.72728e-08
8.59135e-09
0.000191561
-0.000191533
7.51696e-10
4.23279e-08
-5.45469e-09
-7.50423e-09
0.000191535
-6.03316e-08
0.000228031
-0.000228
2.67298e-08
2.45949e-09
1.84236e-07
-1.22959e-09
0.000250228
3.84073e-09
-1.27896e-06
1.18219e-08
9.1118e-07
-2.66284e-07
-9.166e-07
2.5658e-07
1.28443e-06
-2.80404e-07
2.79626e-07
-0.00116368
0.00116367
1.51491e-08
-1.00661e-06
8.23037e-07
-8.25979e-07
1.00458e-06
2.33324e-08
0.000244158
-9.08864e-08
-0.000244111
-1.66255e-08
2.19614e-08
1.00464e-06
-8.25577e-07
-1.00657e-06
8.23512e-07
-2.05047e-08
1.20278e-08
1.01212e-07
0.000244112
0.000250345
-0.000250227
-1.82976e-07
3.96055e-09
3.85366e-08
-9.54287e-08
-0.000244233
-1.58251e-08
-3.73023e-08
6.79313e-08
-1.00719e-06
8.22983e-07
1.00095e-06
-8.25776e-07
-0.00116384
6.21161e-08
-2.19771e-09
-0.000250254
3.4041e-09
-1.85282e-07
0.000191627
-0.000191598
1.39761e-09
-4.79959e-10
0.000228068
-0.000228038
2.41702e-09
2.96635e-08
0.00116359
2.12793e-08
-1.00167e-06
8.20396e-07
-8.23051e-07
9.98695e-07
-0.00116363
3.85868e-08
2.21393e-08
0.000244198
-9.27617e-08
-0.00024415
-1.52323e-08
6.20127e-08
0.000250342
-0.000250221
-1.87783e-07
2.60176e-09
7.64078e-09
0.000191564
-0.000191536
2.44058e-09
0.000228026
-0.000227993
2.74861e-08
1.50957e-09
-1.87722e-08
-9.67712e-05
2.20187e-08
9.67714e-05
1.24983e-06
0.000269886
-2.41365e-07
-2.44196e-07
0.000275845
-3.90642e-08
-0.000275814
1.20708e-08
2.01574e-08
-2.12296e-08
0.000275978
-4.3164e-08
-0.000275943
1.02159e-08
-9.25445e-09
4.32925e-08
0.000275815
-2.0169e-08
2.05823e-08
-1.21771e-08
4.3498e-08
0.000275946
-7.27215e-09
9.68186e-05
-9.67912e-05
7.20428e-09
9.67915e-05
2.66061e-09
-5.93877e-08
1.82455e-07
-3.22381e-09
0.000250239
1.67498e-08
-2.36005e-09
1.24734e-06
-2.80688e-07
2.71363e-07
9.08699e-07
-2.63959e-07
-9.08644e-07
2.59012e-07
-0.00116349
2.65022e-08
7.70859e-10
-9.98931e-07
8.21927e-07
1.00092e-06
-8.18482e-07
3.87868e-08
-9.54885e-08
-0.00024421
-1.42244e-08
6.27771e-08
6.27649e-09
1.00125e-06
-8.2109e-07
-9.98965e-07
8.19605e-07
-4.05103e-08
1.45157e-08
9.88666e-08
0.000244208
8.01494e-10
6.1494e-08
-0.000250238
-1.84535e-07
6.98513e-10
-5.94899e-08
1.82581e-07
-7.03148e-10
0.000250213
-1.96368e-07
-1.32016e-06
2.26589e-08
9.08213e-07
-2.64708e-07
-9.11388e-07
2.58197e-07
1.21368e-06
-2.91803e-07
2.70637e-07
-0.00116343
0.00116342
6.56553e-09
-1.00168e-06
8.21961e-07
-8.18575e-07
1.00337e-06
3.80343e-08
2.34305e-08
0.00024416
-9.46266e-08
-0.000244111
-1.66331e-08
4.95285e-08
1.00099e-06
-8.2101e-07
-1.00159e-06
8.19723e-07
-4.14092e-08
-2.06152e-08
1.20301e-08
9.98312e-08
0.000244111
6.12667e-08
0.000250331
-0.000250212
-1.84448e-07
5.26988e-09
1.22963e-09
-1.76987e-09
-2.80656e-08
0.000228015
0.000191608
-0.000191579
3.08793e-09
-4.69461e-09
0.00019158
9.53683e-10
0.000228046
-0.000228015
6.15714e-10
2.92928e-08
3.12687e-10
-3.02837e-08
0.000227977
8.63877e-09
0.000191551
-0.000191523
9.13876e-10
-5.56114e-09
-7.29879e-09
0.000191523
0.000228004
-0.000227976
3.04298e-09
3.12699e-08
0.000269876
-2.45589e-07
1.27779e-06
-2.51775e-07
1.97082e-08
-4.27214e-08
-0.000275896
1.08546e-08
1.87707e-08
-4.18103e-08
-0.000275815
1.21344e-08
-2.16649e-08
4.48977e-08
0.000275815
-9.81923e-09
9.68021e-05
-9.67747e-05
9.67962e-05
-9.67688e-05
9.67688e-05
2.07628e-08
9.67999e-05
-1.96489e-08
9.68272e-05
-9.67998e-05
2.16453e-08
9.67799e-05
-1.88918e-08
9.68073e-05
-9.67799e-05
2.2615e-08
4.60387e-08
-1.34526e-08
0.000275938
1.8629e-08
4.71782e-08
-9.42667e-09
0.000275852
0.000271986
-1.28986e-06
-1.24827e-06
-0.000269935
2.40094e-07
2.46794e-07
0.000275972
-2.18015e-08
1.31642e-08
-0.000275938
-4.52544e-08
0.000275886
-2.083e-08
1.13113e-08
-0.000275851
-4.4043e-08
2.1043e-08
6.38168e-09
9.67998e-05
2.16078e-08
5.73623e-09
9.678e-05
1.28887e-06
1.24615e-06
0.000269934
-2.36811e-07
-2.45708e-07
2.2165e-08
-1.28627e-08
4.6291e-08
0.000275937
1.86744e-08
-9.88084e-09
4.73272e-08
0.000275851
-6.1402e-08
0.000228071
-0.000228039
2.71148e-08
2.80545e-09
4.38983e-08
-7.91221e-09
0.000191561
5.96758e-08
0.00022804
-2.6292e-08
9.51782e-10
-4.01377e-08
0.000191591
9.80374e-10
-0.000191561
7.29285e-10
0.000250405
-0.000250282
3.71386e-11
-1.84893e-07
1.01216e-07
1.45969e-08
0.000244238
0.00116394
1.30216e-08
3.73944e-09
1.0044e-06
-8.23246e-07
-1.00158e-06
8.25343e-07
1.75297e-08
0.00114174
2.2453e-09
-1.28904e-06
2.75011e-07
-2.79392e-07
-9.11349e-07
2.56092e-07
-2.61162e-07
9.11109e-07
2.59609e-09
0.000250282
-3.07975e-09
1.81772e-07
0.000244289
-1.4531e-08
-0.000244237
-9.78697e-08
4.51068e-09
0.00116394
4.61314e-09
-1.00161e-06
8.25335e-07
-8.23718e-07
1.00451e-06
0.000250376
-0.000250257
4.67115e-09
-1.84732e-07
-1.99989e-08
1.02359e-07
1.14134e-08
0.000244135
0.00116385
1.01632e-08
1.00639e-06
-8.23653e-07
-1.00452e-06
8.24933e-07
-5.0898e-09
0.00114172
1.28974e-06
3.63961e-09
-9.17307e-07
2.57884e-07
9.1548e-07
-2.64794e-07
-1.28106e-06
2.80025e-07
-2.77097e-07
0.000250256
-1.00389e-09
1.82234e-07
0.000244185
2.36205e-08
-1.693e-08
-0.000244135
-9.69623e-08
0.00116384
4.88164e-09
-1.00726e-06
8.25109e-07
-8.23961e-07
1.00964e-06
6.67858e-10
5.94331e-08
-2.63041e-08
-1.0105e-09
0.000228082
4.09357e-08
-6.14769e-09
0.000191623
5.96153e-08
-2.62847e-08
8.97034e-11
0.000228039
4.3656e-08
-5.71104e-09
-7.15033e-09
0.00019156
2.32421e-09
-2.43435e-09
1.82046e-07
0.000250282
1.09126e-08
2.31943e-09
1.29027e-06
-2.78992e-07
2.75353e-07
9.10664e-07
-2.61203e-07
2.56e-07
-9.11566e-07
0.00114173
1.4181e-08
1.01461e-07
0.000244237
1.08944e-08
4.66114e-09
1.00412e-06
-8.23338e-07
-1.00156e-06
8.25397e-07
0.00116393
-1.3265e-09
1.82203e-07
0.000250257
-1.21615e-10
-1.2836e-06
3.03524e-09
9.15393e-07
-2.64665e-07
-9.17367e-07
2.58029e-07
1.29004e-06
-2.79467e-07
2.80303e-07
0.00114172
-2.05405e-08
1.17614e-08
1.0222e-07
0.000244135
4.55021e-09
1.00929e-06
-8.23515e-07
-1.00696e-06
8.25174e-07
0.00116384
4.48462e-08
-9.50682e-09
0.000275826
-2.08171e-08
4.35873e-08
-1.08946e-08
0.000275967
0.000271954
-0.000269902
2.41984e-07
2.46488e-07
0.000275859
1.23036e-08
-0.000275827
-4.18175e-08
1.93834e-08
0.000276005
1.11988e-08
-0.000275968
-4.53311e-08
6.3437e-09
9.6798e-05
9.6826e-05
-8.22479e-09
-9.67984e-05
2.38254e-08
9.67829e-05
1.24873e-06
0.000269902
-2.40083e-07
-2.40459e-07
-1.00955e-08
4.45924e-08
0.000275828
-2.12258e-08
2.15673e-08
-9.81702e-09
4.61266e-08
0.000275968
6.10957e-09
9.67987e-05
-9.00811e-10
0.000250371
-0.00025025
2.0231e-09
-1.83268e-07
1.00394e-07
1.49202e-08
0.000244183
0.00116377
6.58141e-09
1.35377e-08
1.00489e-06
-8.25626e-07
-1.00623e-06
8.23207e-07
1.02663e-08
0.00114274
4.86746e-09
-1.24616e-06
2.72741e-07
-2.76308e-07
-9.14928e-07
2.57548e-07
-2.65493e-07
9.13117e-07
2.68225e-09
0.000250251
-2.78227e-09
1.84179e-07
0.000244236
-1.8643e-08
-0.000244182
-9.42934e-08
2.44157e-10
0.00116377
1.34611e-08
-1.00627e-06
8.23594e-07
-8.25785e-07
1.00522e-06
-6.06302e-08
0.000228027
-0.000227995
2.68996e-08
2.35347e-09
4.20679e-08
-7.08728e-09
0.000191532
6.08726e-08
0.000227998
-2.67426e-08
-2.55284e-10
-3.7637e-08
0.00019156
1.30996e-09
-0.000191531
0.000250343
-0.000250225
-1.834e-07
3.50519e-09
0.00116367
8.76372e-09
1.00449e-06
-8.25689e-07
-1.00655e-06
8.23206e-07
-2.10263e-08
9.86542e-08
1.24206e-08
0.00024411
3.75332e-09
0.00114159
1.28354e-06
5.71715e-09
-9.161e-07
2.54119e-07
9.11534e-07
-2.63402e-07
-1.27964e-06
2.79025e-07
-2.8099e-07
0.000250226
1.84312e-07
-1.34591e-09
0.00116367
1.3833e-08
-1.00624e-06
8.23581e-07
-8.25718e-07
1.00509e-06
0.000244156
2.27433e-08
-1.60058e-08
-0.000244109
-9.1293e-08
6.06802e-08
2.18322e-10
-6.3339e-10
-2.67259e-08
0.000228031
4.16739e-08
-7.15031e-09
0.000191581
2.34772e-09
-2.41219e-09
1.86318e-07
0.000250246
9.1936e-09
4.38599e-09
1.24855e-06
-2.76166e-07
2.72936e-07
9.1264e-07
-2.65348e-07
2.57626e-07
-9.15306e-07
0.00114273
1.5313e-08
1.0026e-07
0.000244181
7.77861e-09
7.03459e-09
1.0051e-06
-8.24994e-07
-1.00609e-06
8.23942e-07
0.00116377
6.0463e-08
-2.65694e-08
-3.61682e-10
0.000227993
4.16828e-08
-6.36076e-09
-6.45008e-09
0.000191531
1.86212e-07
-1.71698e-09
0.000250222
2.94926e-09
-1.27923e-06
4.94788e-09
9.11562e-07
-2.63064e-07
-9.16061e-07
2.54434e-07
1.28381e-06
-2.80684e-07
2.79289e-07
0.00114159
7.35571e-09
1.00502e-06
-8.24987e-07
-1.00606e-06
8.24018e-07
0.00116367
-2.16892e-08
1.31343e-08
9.81212e-08
0.000244108
-2.68556e-10
0.000228068
-0.000228037
2.17789e-09
2.94088e-08
-6.53071e-09
0.000191599
-4.04324e-10
0.000228038
2.13835e-10
-2.78787e-08
0.000191629
1.01703e-09
-0.0001916
6.14553e-08
0.000250339
-0.00025022
-1.84921e-07
2.22164e-09
0.00116357
4.4352e-09
9.98447e-07
-8.17638e-07
8.20024e-07
-9.96277e-07
-4.08771e-08
9.9198e-08
1.36507e-08
0.000244148
1.2705e-08
0.00114123
3.11314e-09
-1.27725e-06
2.75074e-07
-2.79007e-07
-9.05919e-07
2.53315e-07
-2.58469e-07
9.05502e-07
-5.9096e-08
0.000250221
1.84544e-07
-2.78464e-09
0.00116357
4.60777e-09
-9.98763e-07
8.22963e-07
-8.20805e-07
1.00177e-06
3.85062e-08
0.000244197
-1.51976e-08
-0.000244145
-9.75746e-08
0.000228026
-0.000227993
2.7198e-08
1.42182e-09
-6.63634e-09
-5.69061e-09
0.000191536
0.000227993
-2.59825e-08
-8.11704e-10
0.000191565
8.00067e-09
1.86964e-09
-0.000191536
-5.94283e-08
1.03519e-09
-1.60573e-09
1.82001e-07
0.000250251
3.79625e-09
-5.38072e-09
1.2507e-06
-2.76118e-07
2.72651e-07
9.08537e-07
-2.63381e-07
-9.08498e-07
2.594e-07
0.00114221
-4.12838e-08
1.31161e-08
1.0149e-07
0.000244233
3.20507e-09
-1.88181e-09
1.00183e-06
-8.17598e-07
-9.95269e-07
8.22925e-07
0.00116363
-1.09456e-10
-8.88534e-11
-2.82066e-08
0.000228036
-6.84138e-09
0.000191601
-5.95621e-08
1.8211e-07
-2.67694e-09
0.00025022
6.40479e-09
-1.27709e-06
-1.01791e-08
9.05391e-07
-2.58335e-07
-9.05914e-07
2.53516e-07
1.27969e-06
-2.78596e-07
2.75563e-07
0.00114124
-7.4294e-09
1.00169e-06
-8.20348e-07
-9.98435e-07
8.23001e-07
0.00116358
-4.09688e-08
-2.18405e-08
1.36867e-08
1.01532e-07
0.000244144
-2.62921e-08
-1.05052e-09
0.000227993
-6.28003e-09
-6.23663e-09
0.000191536
4.31943e-08
-1.02941e-08
0.000275813
-2.05729e-08
4.3934e-08
-1.43066e-08
0.000275946
0.000271926
-0.000269888
2.4114e-07
2.48185e-07
0.000275844
1.13605e-08
-0.000275812
-3.94499e-08
1.96623e-08
0.000275976
1.34055e-08
-0.000275945
-4.26886e-08
6.91697e-09
9.67911e-05
9.68181e-05
-7.56643e-09
-9.67909e-05
2.10399e-08
9.67709e-05
1.24427e-06
0.000269888
-2.41252e-07
-2.4428e-07
-1.09843e-08
4.27038e-08
0.000275811
-2.10292e-08
2.24387e-08
-1.36407e-08
4.42152e-08
0.000275944
6.60865e-09
9.67904e-05
6.12534e-08
0.000250331
-0.000250212
-1.84785e-07
4.77333e-09
0.00116342
9.59433e-10
1.00315e-06
-8.23627e-07
8.22256e-07
-1.00187e-06
-4.14023e-08
9.98158e-08
1.24315e-08
0.000244111
4.98189e-09
0.00114224
4.13588e-10
-1.23952e-06
2.73218e-07
-2.75393e-07
-9.11613e-07
2.58371e-07
-2.64435e-07
9.10266e-07
-5.92848e-08
0.000250212
1.82281e-07
-1.76202e-09
0.00116342
7.60409e-10
-1.00145e-06
8.22753e-07
-8.20846e-07
1.00383e-06
3.82528e-08
0.00024416
-1.62277e-08
-0.00024411
-9.50055e-08
9.82898e-10
0.000228045
-0.000228015
1.11631e-09
2.93357e-08
-5.09119e-09
0.000191579
1.27549e-09
0.000228015
-1.71829e-09
-2.82328e-08
0.000191607
2.40149e-09
-0.000191579
0.000228004
-0.000227976
3.06255e-09
3.12239e-08
-5.92811e-09
-6.90333e-09
0.000191522
0.000227976
2.98729e-10
-3.03484e-08
0.000191551
8.42119e-09
1.17691e-09
-0.000191522
1.74481e-09
-5.94056e-08
1.8184e-07
-2.74704e-09
0.000250239
1.07181e-08
-2.87855e-09
1.24461e-06
-2.77261e-07
2.71923e-07
9.08018e-07
-2.63994e-07
-9.08984e-07
2.58973e-07
0.0011421
8.0902e-09
-3.41943e-10
1.00144e-06
-8.20067e-07
-9.98494e-07
8.23012e-07
0.00116349
-4.1212e-08
1.42669e-08
9.93422e-08
0.000244209
-5.93621e-08
1.81933e-07
-2.2586e-09
0.000250212
3.74329e-09
-1.23947e-06
-2.47733e-10
9.10186e-07
-2.64258e-07
-9.11586e-07
2.58615e-07
1.24366e-06
-2.75148e-07
2.73605e-07
0.00114224
3.60431e-10
1.00367e-06
-8.20242e-07
-1.00116e-06
8.22925e-07
0.00116343
-4.11752e-08
-2.1126e-08
1.28445e-08
9.93738e-08
0.00024411
1.18507e-09
-1.59251e-09
-2.82275e-08
0.000228014
-5.82155e-09
0.000191578
1.25e-12
-3.03594e-08
0.000227976
-6.05127e-09
-6.69158e-09
0.000191523
9.67746e-05
9.68023e-05
-9.67748e-05
9.67688e-05
9.67966e-05
-9.6769e-05
0.000269863
-2.38897e-07
-2.42551e-07
-2.10687e-08
-1.0292e-08
4.64417e-08
0.000275893
-2.11883e-08
-1.06821e-08
4.45851e-08
0.000275816
9.67749e-05
9.67694e-05
2.60807e-08
7.82895e-05
1.67423e-09
-0.000260856
2.5705e-08
0.000260893
-5.5954e-08
-2.64262e-09
-4.59227e-09
-7.25139e-09
4.0274e-08
5.50123e-08
3.10678e-09
7.8317e-05
-1.83901e-09
-5.33428e-09
4.19661e-08
-4.91353e-10
2.5993e-08
0.000141765
-0.000141789
-9.50661e-10
-2.62191e-08
-1.42338e-09
-0.000228114
8.89958e-10
5.91429e-08
-0.000169224
3.16086e-10
1.16826e-10
0.00016925
-0.000221879
2.66444e-08
3.64789e-09
0.000221914
-6.39642e-08
-0.000169251
2.63857e-10
-0.000221914
-2.09198e-09
6.10741e-08
2.60244e-09
0.000141789
-7.82887e-05
-2.51573e-08
-2.41159e-09
7.83163e-05
-2.67158e-08
0.000260855
2.39038e-09
-0.000260892
5.54217e-08
2.30818e-09
0.000191651
7.64738e-09
-3.86012e-08
1.13529e-09
-7.83166e-05
-3.43889e-09
0.000260891
-5.58068e-08
-0.000141765
-1.03857e-10
-2.66568e-08
2.70513e-08
9.35327e-10
1.24413e-09
-6.15665e-08
2.77517e-10
0.000169224
-0.000169251
6.20312e-10
-2.60055e-08
0.000221879
-0.000221913
6.13913e-08
-0.00014179
4.34337e-10
-6.3957e-08
2.68806e-08
7.82884e-05
-0.000260855
2.49474e-08
0.000260891
-5.57275e-08
-5.94538e-09
-6.47109e-09
4.07556e-08
5.54051e-08
7.8316e-05
9.68121e-05
-8.9087e-09
-2.0872e-08
5.4621e-09
2.399e-08
2.62767e-08
-1.01802e-09
0.000141734
-0.000141759
-6.42483e-10
-1.01559e-09
-2.66644e-08
-0.000228065
1.63528e-10
6.05864e-08
-0.000221832
2.63984e-08
4.47343e-09
0.000221865
-6.26743e-08
-0.000169181
7.87076e-10
-4.20046e-10
0.000169207
-0.000221868
-1.24444e-09
6.24376e-08
-0.000169208
-3.87593e-10
2.86304e-09
0.000141759
-7.82767e-05
-2.48681e-08
-2.84661e-09
7.83045e-05
-2.71871e-08
0.00026081
1.25332e-09
-0.000260847
5.62992e-08
1.1283e-09
0.00019161
8.45517e-09
-3.77898e-08
5.96761e-10
-7.83045e-05
-4.36387e-09
0.000260846
-5.52351e-08
-0.000141735
-2.64966e-08
-7.21004e-10
1.90551e-09
2.67333e-08
3.42399e-10
-6.03194e-08
-2.61886e-08
0.000221834
-0.00022187
6.24749e-08
9.3858e-10
0.000169182
-0.000169209
-2.31072e-10
-0.000141759
-6.27967e-08
-3.12004e-10
2.71331e-08
7.82767e-05
-0.000260809
2.47858e-08
0.000260845
-5.5241e-08
-7.06555e-09
-5.83175e-09
4.16244e-08
5.59753e-08
7.83043e-05
9.67983e-05
-8.2964e-09
-1.89241e-08
6.19332e-09
2.12235e-08
-1.2446e-08
-1.25276e-08
0.000211954
-0.000211973
2.22346e-08
2.19664e-08
-7.96927e-05
-1.22765e-08
-1.39903e-08
7.9719e-05
-7.96812e-05
-1.22596e-08
-1.39831e-08
7.97075e-05
-7.97188e-05
1.35869e-08
-7.97073e-05
1.35647e-08
-2.16969e-08
-2.19719e-08
0.000211973
-0.000220692
-2.91101e-08
3.08633e-08
2.16456e-08
0.000220723
-5.47129e-08
-3.12755e-08
0.000250093
-0.00025016
9.36844e-08
4.95732e-08
3.09159e-08
0.000181291
-1.36e-08
-0.000181319
-4.25741e-08
1.08086e-08
0.00027593
1.96005e-08
-2.21946e-08
-2.22609e-08
-0.000220723
5.36513e-08
0.000250158
-9.13146e-08
-4.539e-08
1.39479e-08
0.000181319
-0.000220622
-2.98924e-08
2.85024e-08
2.20782e-08
0.000220658
-5.65683e-08
-3.05552e-08
0.000249981
-0.000250051
9.69259e-08
4.84324e-08
2.95037e-08
0.000181239
-1.34588e-08
-0.000181266
-4.19182e-08
1.18766e-08
0.00027585
1.89814e-08
-2.31977e-08
-2.18751e-08
-0.000220658
5.68001e-08
0.000250051
-9.534e-08
-4.66058e-08
1.40843e-08
0.000181266
-0.000211954
1.22688e-08
1.21504e-08
1.24385e-08
7.96925e-05
-7.97186e-05
1.2603e-08
7.96811e-05
-7.97071e-05
-0.000211973
3.11819e-08
-3.09504e-08
0.000220689
5.59583e-08
-0.000181291
-3.09191e-08
0.000181319
4.63115e-08
-1.0305e-08
-2.08423e-08
2.19229e-08
-0.000250092
2.93223e-08
0.000250157
-9.37691e-08
-4.55329e-08
9.36943e-08
4.93865e-08
0.000220723
-5.71247e-08
3.05725e-08
-2.9414e-08
0.000220622
5.66721e-08
-0.000181239
-2.86148e-08
0.000181266
4.45475e-08
-1.0434e-08
-2.12455e-08
2.10027e-08
-0.000249981
2.9953e-08
0.000250051
-9.54468e-08
-4.66779e-08
9.68713e-08
4.84065e-08
0.000220658
-5.66556e-08
2.01048e-08
2.21709e-08
-1.18576e-08
-1.32649e-08
0.000211952
2.51805e-08
2.1333e-08
-7.96902e-05
-1.28631e-08
-1.33288e-08
7.97164e-05
-7.96756e-05
-1.16555e-08
-1.45456e-08
7.97018e-05
1.42299e-08
1.29312e-08
-2.30925e-08
-2.28306e-08
0.000211974
-3.05952e-08
0.000220708
3.44429e-08
5.29426e-08
-0.000181291
-3.17053e-08
0.000181322
-1.39313e-08
4.54039e-08
2.30311e-08
3.07094e-08
-0.000250141
0.000250201
-9.45407e-08
-4.18176e-08
0.000220739
-5.57156e-08
9.26421e-08
4.79871e-08
-3.2128e-08
0.000220638
2.99198e-08
5.95364e-08
-0.000181232
-2.99453e-08
0.000181259
-8.76639e-09
4.74201e-08
1.83098e-08
3.03586e-08
-0.000250027
0.000250091
-9.49732e-08
-4.38188e-08
0.000220674
-5.8365e-08
9.72683e-08
4.61081e-08
-9.68272e-05
2.05288e-08
6.80143e-09
-2.00742e-08
-7.35578e-09
-9.68076e-05
2.18119e-08
5.64468e-09
-1.8482e-08
-8.81744e-09
-0.000211952
1.27001e-08
1.18422e-08
-2.33076e-08
-2.26834e-08
0.000211974
1.2087e-08
7.96902e-05
1.41234e-08
1.31333e-08
7.96755e-05
1.31708e-08
2.5094e-08
2.15751e-08
-1.34427e-08
7.97164e-05
-1.42867e-08
7.97017e-05
-3.07454e-08
3.43336e-08
0.000220707
-0.000220739
-2.495e-08
5.31171e-08
-0.000250143
3.10311e-08
0.0002502
-9.16798e-08
-4.20894e-08
-1.36507e-08
4.58682e-08
-0.000275972
2.27264e-08
-0.000181291
-3.14692e-08
1.34746e-08
0.000181322
-0.000181322
-1.39817e-08
-0.000250204
9.09284e-08
5.034e-08
2.33252e-08
0.000220739
-5.55678e-08
-3.18214e-08
3.03032e-08
0.000220637
-0.000220673
-2.16398e-08
5.93759e-08
-0.000250025
3.0054e-08
0.000250089
-9.49796e-08
-4.39351e-08
-9.31905e-09
4.7331e-08
-0.000275887
1.8477e-08
-0.000181231
-3.00955e-08
1.41924e-08
0.000181259
-0.000181259
-1.33134e-08
-0.000250091
9.74691e-08
4.61118e-08
2.2529e-08
0.000220673
-5.85045e-08
-0.000220708
3.169e-08
-3.07445e-08
-5.58027e-08
3.07212e-08
0.000181291
-3.46783e-08
0.000250143
9.07007e-08
4.80369e-08
1.23501e-08
-4.54128e-08
-2.11231e-08
5.3053e-08
-9.19419e-08
-4.45243e-08
-0.000220637
3.00683e-08
-3.00836e-08
-5.84945e-08
3.20324e-08
0.000181231
-3.03361e-08
0.000250026
9.76646e-08
4.60881e-08
1.18243e-08
-4.37424e-08
-2.10681e-08
5.95405e-08
-9.48297e-08
-4.38576e-08
-1.21889e-08
-1.2915e-08
0.000211952
-7.96902e-05
-1.26168e-08
7.97163e-05
-7.96754e-05
-1.19373e-08
7.97016e-05
0.000211974
-0.000141766
5.73996e-10
-2.6876e-08
2.07451e-09
0.00014179
-4.50591e-10
0.000169225
1.04315e-09
-0.000169252
-2.57787e-08
0.000221879
-3.00009e-09
6.11998e-08
-0.000221914
2.7183e-08
2.76924e-10
0.000228115
1.98421e-09
-6.16052e-08
-1.52168e-09
-0.000141791
0.000169252
1.06002e-09
2.88691e-09
0.000221914
-6.39295e-08
7.8289e-05
2.64995e-08
-7.83167e-05
1.24247e-09
-5.406e-09
-0.000191651
4.06119e-08
2.53368e-08
-0.000260855
-3.13044e-09
-5.59862e-08
-2.24999e-09
-0.000260892
2.58738e-09
5.52055e-08
-7.82891e-05
-2.55143e-08
-2.63693e-08
0.000260856
5.53602e-08
2.96349e-09
-3.881e-08
-5.59957e-08
0.000141766
1.47987e-10
2.57986e-08
-2.6216e-08
-2.20014e-09
1.79795e-09
5.93749e-08
-2.8618e-10
-0.000169225
7.50901e-10
2.67703e-08
-0.000221879
-6.39419e-08
9.27776e-10
6.11135e-08
-0.000141696
-1.56919e-09
-2.62846e-08
3.63337e-09
0.00014172
1.94394e-09
0.000169187
-0.000169214
-2.64507e-08
0.000221778
-1.71481e-09
5.95059e-08
-0.000221808
2.69723e-08
3.79413e-09
0.000228073
-6.12359e-08
1.62198e-10
-0.000141721
0.000169214
8.07107e-09
0.000221808
-6.08223e-08
2.77318e-08
7.8246e-05
-7.82737e-05
-4.55557e-11
-7.95659e-09
-0.000191592
-5.26501e-09
4.37847e-08
-0.000260718
2.42825e-08
-7.89072e-09
0.000260754
-5.25028e-08
-0.000260754
1.77628e-09
5.38278e-08
-3.44679e-09
7.82737e-05
-7.82459e-05
-2.41217e-08
-2.7907e-08
0.000260717
5.39389e-08
-0.000260753
9.13203e-11
9.18615e-09
-3.9886e-08
-7.82737e-05
-5.24365e-08
-1.66933e-09
2.62816e-08
0.000141696
-2.6357e-08
1.19446e-09
5.96486e-08
-0.000169187
1.21763e-09
0.000169213
-0.000221778
2.64453e-08
0.000221808
-6.09358e-08
5.93623e-08
0.00014172
-9.68115e-05
2.41978e-08
-2.05259e-08
2.93433e-08
-2.99136e-08
0.000220635
-2.52841e-08
5.91576e-08
-0.000220668
-0.000249983
3.34936e-08
0.000250046
-9.04826e-08
-4.77349e-08
4.46577e-08
-9.19716e-09
-0.000275857
1.98568e-08
-0.000181242
-2.85637e-08
1.62925e-08
0.000181267
-0.000250053