/*--------------------------------*- C++ -*----------------------------------*\
| =========                 |                                                 |
| \\      /  F ield         | OpenFOAM: The Open Source CFD Toolbox           |
|  \\    /   O peration     | Version:  2312                                  |
|   \\  /    A nd           | Website:  www.openfoam.com                      |
|    \\/     M anipulation  |                                                 |
\*---------------------------------------------------------------------------*/
FoamFile
{
    version     2.0;
    format      ascii;
    arch        "LSB;label=32;scalar=64";
    class       volVectorField;
    location    "200";
    object      U;
}
// * * * * * * * * * * * * * * * * * * * * * * * * * * * * * * * * * * * * * //

dimensions      [0 1 -1 0 0 0 0];

internalField   nonuniform List<vector> 
43168
(
(-4.81135e-07 -6.69889e-07 0.113229)
(-1.0546e-06 1.73479e-06 0.108446)
(2.06001e-06 -1.18662e-06 0.108447)
(-4.20533e-05 -4.24926e-05 0.104871)
(-4.42308e-05 -4.47063e-05 0.105066)
(2.1406e-06 1.18493e-06 0.108454)
(-1.13635e-06 1.67465e-06 0.108445)
(4.51735e-05 -4.43353e-05 0.105059)
(1.72731e-06 1.83691e-06 0.108454)
(1.99368e-06 -1.34862e-06 0.108442)
(-1.09084e-06 1.98283e-06 0.108446)
(-1.23335e-06 -1.75751e-06 0.108445)
(-4.39567e-05 4.49061e-05 0.105058)
(2.34306e-06 -1.14714e-06 0.108447)
(-1.507e-06 -1.50151e-06 0.108447)
(4.47092e-05 4.4264e-05 0.105058)
(4.26885e-05 4.22875e-05 0.104879)
(1.90196e-06 1.22943e-06 0.108453)
(-8.27881e-07 1.65554e-06 0.108444)
(-4.16731e-05 4.24759e-05 0.104872)
(1.72586e-06 1.65723e-06 0.108454)
(2.04046e-06 -1.07506e-06 0.108442)
(-1.22262e-06 -1.58784e-06 0.108445)
(4.31672e-05 -4.22958e-05 0.10487)
(-1.30732e-06 -1.50317e-06 0.108447)
(-1.28338e-06 -1.18664e-05 0.0814233)
(-1.13239e-05 -2.1069e-06 0.0814154)
(-4.27868e-07 -6.53143e-07 0.113229)
(1.16612e-06 -4.92862e-07 0.11322)
(-2.53039e-07 1.16094e-06 0.11322)
(1.03897e-06 8.58414e-07 0.113222)
(1.48324e-08 -1.45463e-05 0.0909186)
(6.66773e-07 1.22457e-05 0.0813582)
(4.99312e-07 1.38064e-05 0.0908581)
(-1.63619e-06 -1.16648e-05 0.0814236)
(-2.83879e-06 7.03919e-06 0.0706381)
(3.93265e-06 -6.40485e-06 0.0707135)
(-1.43031e-05 -2.19407e-07 0.0909039)
(1.25149e-05 3.67786e-07 0.0813492)
(1.41124e-05 1.70437e-07 0.0908441)
(-1.14523e-05 -1.98178e-06 0.0814139)
(1.24764e-06 -5.53295e-07 0.11322)
(-3.47676e-07 1.25522e-06 0.11322)
(1.17187e-06 9.76454e-07 0.113222)
(2.2243e-05 -5.46393e-07 0.0986478)
(-1.74468e-05 6.89724e-06 0.0925203)
(-9.5464e-07 4.56501e-07 0.111003)
(-9.51819e-07 1.8914e-06 0.108446)
(-2.13887e-05 8.6239e-08 0.0985627)
(1.61338e-05 -7.59935e-06 0.0926)
(-9.58789e-07 4.33545e-07 0.111003)
(6.98342e-06 -3.1411e-06 0.0706355)
(-6.52954e-06 3.66114e-06 0.0707058)
(-8.04881e-08 2.2286e-05 0.0986464)
(3.91778e-07 -1.02824e-06 0.111006)
(7.33894e-06 -1.73558e-05 0.0925153)
(2.14818e-06 -1.12543e-06 0.108448)
(7.52035e-07 -2.15447e-05 0.0985609)
(3.80573e-07 -1.05281e-06 0.111006)
(-7.16097e-06 1.61564e-05 0.0925935)
(-8.51323e-06 -6.52285e-06 0.0868124)
(-6.19712e-06 -8.7156e-06 0.0868103)
(4.47648e-05 4.44077e-05 0.105058)
(7.83199e-06 6.35469e-06 0.0868793)
(6.53564e-06 7.70958e-06 0.0868768)
(-3.30482e-06 -6.78791e-06 0.0707076)
(-6.3641e-06 -4.10798e-06 0.0707011)
(-4.42236e-05 -4.49083e-05 0.105068)
(-5.96741e-06 -8.05191e-06 0.0868785)
(-7.46282e-06 -6.76011e-06 0.0868706)
(-3.52405e-06 -6.65118e-06 0.0707076)
(3.57726e-06 6.83283e-06 0.070636)
(-6.41353e-06 -3.938e-06 0.0707009)
(7.15196e-06 2.91186e-06 0.0706299)
(4.27209e-05 4.20734e-05 0.10488)
(-6.02519e-06 -7.91585e-06 0.0868783)
(-7.6037e-06 -6.63098e-06 0.0868703)
(6.79413e-06 8.33991e-06 0.0868106)
(8.9423e-06 6.0897e-06 0.0868037)
(2.08228e-06 1.02441e-06 0.108454)
(-6.95786e-06 -1.63771e-05 0.0926006)
(7.58457e-07 1.37917e-05 0.0908586)
(-1.51647e-06 -1.16876e-05 0.0814233)
(9.11889e-07 1.213e-05 0.0813582)
(3.34844e-07 -1.45129e-05 0.0909188)
(6.96078e-07 1.37993e-05 0.0908578)
(2.08724e-06 -1.13787e-05 0.0814253)
(6.93927e-08 1.24993e-05 0.0813586)
(8.66052e-07 -1.44468e-05 0.0909181)
(9.9908e-07 2.14813e-05 0.0985684)
(1.93962e-06 1.11395e-06 0.108454)
(-7.1055e-06 -1.63043e-05 0.0926003)
(5.08273e-07 1.16833e-06 0.111006)
(7.49736e-06 1.73224e-05 0.0925215)
(4.22901e-07 1.08349e-06 0.111007)
(2.87509e-07 -2.22884e-05 0.0986537)
(3.82779e-07 2.15498e-05 0.0985684)
(-1.04825e-06 1.6369e-06 0.108445)
(8.1674e-06 -1.58683e-05 0.0926002)
(4.9129e-07 1.36414e-06 0.111003)
(-6.18396e-06 1.7788e-05 0.0925201)
(4.59509e-07 1.29447e-06 0.111003)
(9.32614e-07 -2.2232e-05 0.0986534)
(4.07134e-06 -6.39324e-06 0.0707131)
(-2.71315e-06 7.18555e-06 0.0706377)
(-4.17102e-05 4.25053e-05 0.104872)
(6.87455e-06 -7.49092e-06 0.0868813)
(7.96613e-06 -6.37923e-06 0.0868828)
(-5.74975e-06 8.84863e-06 0.0868123)
(6.57773e-06 -3.68612e-06 0.0707096)
(1.67319e-06 1.55895e-06 0.108455)
(-1.57397e-05 -7.88491e-06 0.0925939)
(1.40951e-05 1.73553e-07 0.0908458)
(-1.13853e-05 -1.93557e-06 0.0814144)
(1.25743e-05 1.85509e-07 0.08135)
(-1.42463e-05 -1.27047e-07 0.0909053)
(2.21672e-05 7.13452e-07 0.0985609)
(1.68817e-06 1.50461e-06 0.108454)
(-1.58324e-05 -7.85499e-06 0.0925933)
(1.86801e-06 2.84785e-07 0.111005)
(1.79749e-05 6.64378e-06 0.0925154)
(1.66167e-06 2.20811e-07 0.111005)
(-2.15312e-05 1.37524e-07 0.0986454)
(1.41411e-05 2.74129e-07 0.090847)
(-1.13197e-05 1.99083e-06 0.0814172)
(1.26249e-05 -1.48438e-07 0.0813534)
(-1.42084e-05 3.69931e-07 0.0909062)
(2.22441e-05 1.61951e-08 0.0985607)
(1.90647e-06 -1.16218e-06 0.108442)
(1.81487e-06 1.91587e-07 0.111001)
(-1.55589e-05 7.92904e-06 0.0925944)
(1.67987e-06 2.04823e-07 0.111001)
(1.81008e-05 -6.44743e-06 0.0925174)
(-2.15972e-05 8.01346e-07 0.0986456)
(1.62449e-05 -7.60911e-06 0.0925995)
(-1.11238e-06 4.70491e-07 0.111002)
(2.23109e-05 -5.3816e-07 0.0986477)
(1.15649e-05 -1.79884e-06 0.08142)
(1.4817e-05 -3.84349e-07 0.0909081)
(-1.0835e-06 -2.05783e-08 0.111005)
(1.6149e-05 7.42632e-06 0.0925958)
(2.22414e-05 4.36333e-07 0.098646)
(1.17139e-05 1.54452e-06 0.0814168)
(1.48018e-05 2.20221e-07 0.0909052)
(-6.49068e-06 3.89032e-06 0.070706)
(7.07718e-06 -2.94234e-06 0.0706358)
(4.29847e-05 -4.20675e-05 0.104869)
(-7.46796e-06 6.57615e-06 0.0868755)
(-5.98027e-06 8.04445e-06 0.0868777)
(9.01523e-06 -6.03049e-06 0.0868107)
(6.79836e-06 -8.25153e-06 0.086811)
(-3.34682e-06 6.7292e-06 0.0707047)
(3.64999e-06 -6.77709e-06 0.0706338)
(7.4822e-07 -2.15618e-05 0.0985608)
(2.09915e-06 -1.03729e-06 0.108447)
(4.97468e-07 -1.09753e-06 0.111005)
(-7.0908e-06 1.63411e-05 0.0925937)
(4.50095e-07 -9.48853e-07 0.111005)
(7.36702e-06 -1.72737e-05 0.0925155)
(2.64541e-09 2.21387e-05 0.098646)
(9.5147e-08 -2.16775e-05 0.0985604)
(-1.21577e-06 -1.39921e-06 0.108447)
(1.50305e-07 -1.16525e-06 0.111007)
(7.95423e-06 1.59866e-05 0.0925948)
(1.7897e-07 -1.03546e-06 0.111006)
(-6.52618e-06 -1.76428e-05 0.0925164)
(7.85888e-07 2.20766e-05 0.0986459)
(4.23301e-07 -1.36838e-05 0.0908397)
(-1.37729e-06 1.17223e-05 0.0814132)
(9.08115e-07 -1.20783e-05 0.0813486)
(5.59957e-08 1.45541e-05 0.0909017)
(3.49355e-07 -1.37392e-05 0.0908387)
(2.02409e-06 1.15007e-05 0.0814148)
(-1.78816e-07 -1.24175e-05 0.0813498)
(5.92103e-07 1.44707e-05 0.0909017)
(-4.20556e-05 -4.2476e-05 0.104871)
(7.83964e-06 6.29633e-06 0.0868796)
(6.68645e-06 7.60296e-06 0.0868765)
(-6.04094e-06 -8.7419e-06 0.0868101)
(6.65471e-06 3.52322e-06 0.0707075)
(3.93029e-06 6.45132e-06 0.0707058)
(-2.97761e-06 -7.05178e-06 0.0706348)
(3.3823e-06 6.92309e-06 0.070636)
(-3.61414e-06 -6.61822e-06 0.0707076)
(7.10283e-06 3.08381e-06 0.0706295)
(-6.46943e-06 -3.86815e-06 0.0707007)
(6.65676e-06 8.43896e-06 0.0868103)
(8.78482e-06 6.16594e-06 0.0868036)
(-4.42566e-05 -4.4546e-05 0.105066)
(-6.23384e-06 -7.8839e-06 0.0868783)
(-7.61989e-06 -6.55994e-06 0.0868702)
(3.29861e-06 6.96079e-06 0.0706359)
(7.05946e-06 3.07994e-06 0.0706296)
(4.26503e-05 4.24019e-05 0.104878)
(6.47968e-06 8.53724e-06 0.0868102)
(8.79277e-06 6.2689e-06 0.0868034)
(5.72558e-07 -1.44555e-05 0.0909176)
(-6.88983e-08 1.2473e-05 0.0813585)
(5.63329e-07 1.39084e-05 0.0908574)
(1.98453e-06 -1.14634e-05 0.0814252)
(2.35566e-07 -2.21872e-05 0.0986542)
(7.35104e-06 1.73919e-05 0.0925212)
(5.10887e-07 1.12544e-06 0.111006)
(2.06215e-06 1.29349e-06 0.108453)
(9.62305e-07 2.13799e-05 0.098569)
(-7.23987e-06 -1.62361e-05 0.0925999)
(5.64868e-07 1.25939e-06 0.111006)
(9.16348e-07 -2.21846e-05 0.0986539)
(-6.29057e-06 1.78135e-05 0.0925202)
(6.06997e-07 1.281e-06 0.111003)
(-1.00442e-06 1.59406e-06 0.108444)
(2.56696e-07 2.15685e-05 0.0985687)
(8.03739e-06 -1.59382e-05 0.0926004)
(6.47569e-07 1.34266e-06 0.111003)
(2.297e-07 1.37965e-05 0.0908581)
(5.51056e-07 1.22752e-05 0.0813585)
(2.07891e-07 1.39155e-05 0.0908569)
(-2.46738e-07 1.23863e-05 0.0813582)
(8.70656e-07 2.15649e-05 0.0985692)
(1.77868e-06 1.33644e-06 0.108452)
(7.21972e-06 1.74932e-05 0.0925208)
(4.9622e-07 1.19545e-06 0.111006)
(2.04438e-07 2.15637e-05 0.098569)
(-7.76733e-07 1.55702e-06 0.108444)
(-6.43974e-06 1.77387e-05 0.0925205)
(7.39214e-07 1.22255e-06 0.111003)
(-5.91898e-06 8.78275e-06 0.0868129)
(-8.45694e-06 6.42826e-06 0.0868155)
(4.52206e-05 -4.43349e-05 0.105059)
(6.71835e-06 -7.5614e-06 0.0868819)
(7.85189e-06 -6.46615e-06 0.0868835)
(-6.92864e-06 3.30417e-06 0.0706382)
(6.54469e-06 -3.71938e-06 0.0707103)
(-2.97399e-06 7.01199e-06 0.0706385)
(-4.16698e-05 4.2498e-05 0.104872)
(-6.09326e-06 8.70438e-06 0.0868135)
(-8.57892e-06 6.31624e-06 0.0868161)
(-7.00299e-06 3.23817e-06 0.0706387)
(-2.166e-05 -9.94945e-08 0.0986443)
(1.78407e-05 6.66974e-06 0.0925147)
(1.80527e-06 3.29357e-07 0.111006)
(1.7065e-06 1.86032e-06 0.108453)
(2.21838e-05 7.51418e-07 0.0985596)
(-1.58701e-05 -7.84953e-06 0.0925926)
(1.76703e-06 4.24241e-07 0.111006)
(-1.43068e-05 3.3238e-07 0.0909046)
(1.25395e-05 -3.23305e-07 0.0813522)
(1.41477e-05 6.32959e-08 0.0908452)
(-1.14256e-05 1.82527e-06 0.0814165)
(-2.18098e-05 6.92974e-07 0.098645)
(1.78207e-06 2.8851e-07 0.111001)
(1.80551e-05 -6.60943e-06 0.0925168)
(1.88963e-06 -1.22462e-06 0.108443)
(2.22656e-05 3.72882e-08 0.09856)
(1.76189e-06 3.27464e-07 0.111001)
(-1.57029e-05 7.72222e-06 0.0925936)
(1.41276e-05 2.359e-08 0.0908426)
(1.24796e-05 2.43616e-07 0.0813487)
(2.20964e-05 5.05344e-07 0.0985583)
(1.6898e-06 1.65256e-06 0.108453)
(1.78368e-05 6.67639e-06 0.0925141)
(1.56338e-06 3.57951e-07 0.111006)
(1.40505e-05 1.35476e-08 0.0908436)
(1.24558e-05 -5.08404e-07 0.0813516)
(2.20145e-05 -4.89187e-08 0.0985591)
(1.80764e-06 -1.0469e-06 0.108443)
(1.56574e-06 3.63244e-07 0.111001)
(1.78511e-05 -6.85939e-06 0.0925159)
(1.46013e-05 -3.0955e-07 0.0909078)
(-1.23431e-05 5.14178e-07 0.0813542)
(-1.34569e-05 -2.34408e-07 0.0908459)
(1.14757e-05 -1.90959e-06 0.0814208)
(2.2138e-05 2.72923e-07 0.0986456)
(-1.00927e-06 2.65061e-08 0.111005)
(-1.74793e-05 -7.084e-06 0.092517)
(-1.08772e-06 -1.68988e-06 0.108445)
(-2.14663e-05 -3.06957e-07 0.0985611)
(-9.43811e-07 -9.22143e-09 0.111006)
(1.60993e-05 7.43706e-06 0.0925956)
(1.46159e-05 2.44828e-07 0.0909051)
(-1.22144e-05 -6.85526e-07 0.0813516)
(-1.36079e-05 -8.31508e-08 0.0908444)
(1.1694e-05 1.72018e-06 0.0814169)
(-2.14874e-05 1.56996e-07 0.0985628)
(-8.25531e-07 1.5922e-06 0.108446)
(-1.75339e-05 6.90014e-06 0.0925207)
(-7.78342e-07 3.12768e-07 0.111004)
(-1.37752e-05 -1.10372e-07 0.0908455)
(-1.24454e-05 3.82876e-07 0.081355)
(-2.16298e-05 -4.79828e-07 0.098561)
(-1.02054e-06 -1.43893e-06 0.108445)
(-7.75857e-07 3.54356e-08 0.111006)
(-1.75129e-05 -7.07745e-06 0.0925166)
(-1.37516e-05 -1.05986e-07 0.0908444)
(-1.22534e-05 -5.1711e-07 0.0813518)
(8.83966e-06 -6.27977e-06 0.0868101)
(6.72599e-06 -8.32685e-06 0.0868107)
(-4.40587e-05 4.49329e-05 0.105058)
(-7.65331e-06 6.37544e-06 0.086875)
(-6.10381e-06 7.8776e-06 0.0868774)
(3.54226e-06 -6.88945e-06 0.0706334)
(-3.5152e-06 6.58352e-06 0.0707044)
(6.95116e-06 -3.36964e-06 0.0706353)
(4.29173e-05 -4.21567e-05 0.10487)
(8.66171e-06 -6.48069e-06 0.0868096)
(6.60556e-06 -8.49619e-06 0.0868102)
(3.40328e-06 -6.9909e-06 0.0706331)
(7.54916e-07 2.21572e-05 0.0986459)
(1.84592e-07 -1.1517e-06 0.111007)
(-6.61797e-06 -1.77034e-05 0.0925164)
(-1.40898e-06 -1.33712e-06 0.108448)
(1.26597e-07 -2.15473e-05 0.0985605)
(2.10347e-07 -1.07309e-06 0.111007)
(7.8449e-06 1.60669e-05 0.0925947)
(1.12694e-07 1.45536e-05 0.0909014)
(8.11765e-07 -1.22422e-05 0.0813482)
(4.15383e-07 -1.37011e-05 0.0908397)
(-1.52388e-06 1.15425e-05 0.0814129)
(6.59699e-07 1.44618e-05 0.0909019)
(-3.17344e-07 -1.23766e-05 0.0813497)
(3.84736e-07 -1.37132e-05 0.0908386)
(1.90895e-06 1.15845e-05 0.0814148)
(6.38644e-07 -2.15016e-05 0.0985611)
(1.87517e-06 -1.0477e-06 0.108448)
(3.13446e-07 -8.92621e-07 0.111006)
(7.28215e-06 -1.75147e-05 0.0925151)
(9.565e-08 -2.14641e-05 0.0985605)
(-1.15983e-06 -1.27114e-06 0.108447)
(2.77709e-07 -9.26407e-07 0.111007)
(-6.70864e-06 -1.7606e-05 0.0925163)
(4.54466e-07 -1.37756e-05 0.0908393)
(6.58756e-07 -1.24089e-05 0.0813479)
(3.86001e-07 -1.38038e-05 0.0908387)
(-3.97922e-07 -1.23018e-05 0.0813497)
(-6.88059e-06 -3.41922e-06 0.0706361)
(6.61345e-06 3.66362e-06 0.0707077)
(-3.14674e-06 -6.99719e-06 0.0706348)
(3.8154e-06 6.56421e-06 0.0707061)
(-4.20622e-05 -4.24145e-05 0.104872)
(-8.52961e-06 -6.43454e-06 0.0868121)
(-6.31037e-06 -8.60653e-06 0.0868105)
(-6.96812e-06 -3.28586e-06 0.0706363)
(-3.20583e-06 -6.94529e-06 0.0706351)
(-5.02226e-07 7.13565e-06 0.0675375)
(-8.60689e-07 -1.14447e-05 0.0850904)
(9.60739e-07 1.19834e-05 0.0813583)
(4.2984e-07 1.10857e-05 0.085018)
(-2.91742e-08 -7.06705e-06 0.0676168)
(1.25763e-05 1.30089e-07 0.0813508)
(-6.73351e-07 7.43145e-06 0.0759911)
(3.33524e-07 1.37637e-05 0.0908581)
(4.3266e-09 -7.22663e-06 0.0778353)
(-7.29795e-07 -1.42444e-05 0.0893346)
(-8.95534e-08 7.12831e-06 0.0777817)
(6.05309e-07 1.33356e-05 0.0892674)
(8.34676e-08 -7.38181e-06 0.0760533)
(-3.06844e-07 -7.00126e-06 0.0676162)
(1.43677e-07 1.12678e-05 0.0850175)
(-1.57652e-06 -1.16597e-05 0.0814235)
(-8.3878e-07 7.21173e-06 0.0675368)
(-1.14853e-06 -1.13026e-05 0.08509)
(1.78082e-07 -7.42177e-06 0.0760534)
(1.59159e-07 -1.44882e-05 0.0909186)
(4.94543e-08 7.12458e-06 0.0777819)
(7.02474e-07 1.34168e-05 0.0892673)
(-5.57968e-07 7.40133e-06 0.0759912)
(1.23869e-07 -7.27117e-06 0.0778355)
(-6.54027e-07 -1.42067e-05 0.0893344)
(-8.90576e-07 7.24286e-06 0.0675366)
(-1.23014e-06 -1.13032e-05 0.0850899)
(5.98987e-07 1.22514e-05 0.0813583)
(5.61658e-08 1.12804e-05 0.0850174)
(-4.01155e-07 -6.9489e-06 0.067616)
(3.98003e-06 -6.38675e-06 0.0707133)
(-2.91029e-06 7.01761e-06 0.0706383)
(7.48143e-06 -8.98188e-07 0.075976)
(1.40782e-05 1.03991e-07 0.0908432)
(-1.38856e-05 -1.02573e-06 0.0893195)
(-7.15816e-06 -1.95955e-07 0.0778173)
(1.36938e-05 2.97601e-07 0.0892526)
(7.25291e-06 -3.10392e-07 0.0777636)
(-7.37364e-06 -1.10337e-07 0.0760382)
(-7.00187e-06 -5.85477e-07 0.0676053)
(1.14256e-05 -2.35691e-07 0.0850049)
(-1.14102e-05 -1.90361e-06 0.0814141)
(7.25757e-06 -1.13953e-06 0.0675257)
(-1.11944e-05 -1.50375e-06 0.0850771)
(-7.38726e-06 -9.22221e-08 0.0760384)
(-1.42168e-05 -7.87914e-08 0.0909045)
(1.3592e-05 2.92664e-07 0.0892535)
(7.25149e-06 -2.37152e-07 0.0777641)
(7.47002e-06 -8.8637e-07 0.0759761)
(-1.39641e-05 -1.01553e-06 0.0893204)
(-7.17621e-06 -1.16766e-07 0.0778178)
(7.24396e-06 -1.0928e-06 0.0675257)
(-1.11978e-05 -1.56274e-06 0.0850767)
(1.24765e-05 2.99568e-07 0.0813489)
(1.14013e-05 -2.60291e-07 0.0850044)
(-6.99643e-06 -5.48578e-07 0.0676052)
(-6.49775e-06 3.76187e-06 0.070706)
(6.99986e-06 -3.27791e-06 0.0706353)
(-6.49279e-06 -6.56695e-06 0.0828988)
(3.99341e-06 6.04514e-06 0.0676611)
(6.04328e-06 4.00607e-06 0.0676548)
(-4.13012e-06 -5.93196e-06 0.0675871)
(-5.89967e-06 -4.15028e-06 0.0675811)
(6.55144e-06 6.49575e-06 0.0829589)
(1.59934e-05 8.51696e-06 0.0912242)
(-2.20135e-05 -1.20702e-05 0.096037)
(-7.51378e-06 -4.29102e-06 0.080761)
(7.83304e-06 6.31e-06 0.0868794)
(-1.57583e-05 -8.94017e-06 0.0911579)
(2.16886e-05 1.08135e-05 0.0961086)
(7.28557e-06 4.49127e-06 0.0808298)
(8.74984e-06 1.58192e-05 0.0912167)
(-1.16847e-05 -2.22712e-05 0.0960348)
(-4.24214e-06 -7.77918e-06 0.0807566)
(6.58264e-06 7.61977e-06 0.0868766)
(-8.74869e-06 -1.60173e-05 0.091151)
(1.11811e-05 2.13904e-05 0.0961064)
(4.55712e-06 7.11354e-06 0.0808242)
(6.56928e-06 6.48316e-06 0.0829589)
(-4.12704e-06 -5.93431e-06 0.067587)
(-5.87013e-06 -4.18572e-06 0.067581)
(-6.48757e-06 -6.58794e-06 0.0828987)
(3.99746e-06 6.03418e-06 0.0676609)
(6.074e-06 3.97051e-06 0.0676546)
(-1.57638e-05 -8.90008e-06 0.0911577)
(7.27651e-06 4.51552e-06 0.0808299)
(-8.54076e-06 -6.48418e-06 0.0868121)
(2.1657e-05 1.08418e-05 0.0961084)
(-2.20265e-05 -1.20633e-05 0.0960368)
(-7.52095e-06 -4.27437e-06 0.080761)
(1.60379e-05 8.60332e-06 0.0912241)
(-8.74132e-06 -1.59839e-05 0.091151)
(4.52839e-06 7.189e-06 0.0808242)
(-6.26548e-06 -8.65857e-06 0.0868104)
(1.11779e-05 2.1432e-05 0.0961063)
(-1.17711e-05 -2.22996e-05 0.0960349)
(-4.28763e-06 -7.69704e-06 0.0807565)
(8.7475e-06 1.58284e-05 0.0912168)
(3.67073e-06 6.74239e-06 0.0706361)
(7.13949e-06 2.84479e-06 0.0706302)
(6.87477e-06 6.18147e-06 0.0828879)
(-5.82779e-06 -4.15379e-06 0.0676525)
(-3.8067e-06 -6.24507e-06 0.067645)
(6.17381e-06 3.96166e-06 0.0675778)
(4.38701e-06 5.69177e-06 0.0675707)
(-6.23889e-06 -6.85245e-06 0.0829492)
(9.22826e-06 1.54161e-05 0.091151)
(-4.18923e-06 -7.49125e-06 0.0808245)
(6.75604e-06 8.22279e-06 0.0868108)
(-1.04908e-05 -2.20201e-05 0.0961084)
(4.56216e-06 7.24986e-06 0.0807544)
(-8.23268e-06 -1.6363e-05 0.0912183)
(1.23819e-05 2.16365e-05 0.0960365)
(1.6273e-05 8.43289e-06 0.0911428)
(-6.85892e-06 -4.76357e-06 0.0808156)
(8.91123e-06 5.98255e-06 0.0868039)
(-2.11792e-05 -1.12271e-05 0.0961033)
(8.02113e-06 3.9455e-06 0.0807468)
(-1.55949e-05 -9.03767e-06 0.09121)
(2.25741e-05 1.16793e-05 0.0960311)
(3.47613e-06 6.86057e-06 0.070636)
(-3.42834e-06 -6.71332e-06 0.0707075)
(7.14381e-06 2.98158e-06 0.0706297)
(-6.361e-06 -4.02668e-06 0.0707009)
(-6.30854e-06 -6.80022e-06 0.0829492)
(6.11687e-06 4.0497e-06 0.0675778)
(4.34468e-06 5.79821e-06 0.0675706)
(6.85937e-06 6.29968e-06 0.0828879)
(-5.90273e-06 -4.09746e-06 0.0676525)
(-3.88474e-06 -6.14576e-06 0.067645)
(9.12044e-06 1.54805e-05 0.0911509)
(-1.05507e-05 -2.1849e-05 0.0961079)
(6.73057e-06 8.38192e-06 0.0868104)
(-4.23375e-06 -7.32069e-06 0.0808246)
(4.47621e-06 7.42084e-06 0.0807545)
(1.2384e-05 2.18325e-05 0.0960363)
(-8.34677e-06 -1.62778e-05 0.0912181)
(1.61628e-05 8.55455e-06 0.0911425)
(-2.12579e-05 -1.11837e-05 0.0961025)
(8.82514e-06 6.12778e-06 0.0868036)
(-6.93962e-06 -4.60961e-06 0.0808153)
(7.9271e-06 4.12538e-06 0.0807464)
(2.24788e-05 1.17465e-05 0.0960305)
(-1.56191e-05 -8.87361e-06 0.0912097)
(-8.29537e-06 -1.63756e-05 0.0912181)
(4.55152e-06 7.36028e-06 0.0807545)
(1.24458e-05 2.18019e-05 0.0960365)
(-5.96828e-06 -7.95358e-06 0.0868784)
(9.19527e-06 1.54553e-05 0.0911511)
(-4.22025e-06 -7.39488e-06 0.0808245)
(-1.04963e-05 -2.19689e-05 0.0961083)
(-1.55962e-05 -8.9324e-06 0.0912098)
(7.98762e-06 4.06671e-06 0.0807465)
(2.26317e-05 1.17669e-05 0.0960309)
(-7.53015e-06 -6.69854e-06 0.0868705)
(1.62546e-05 8.53879e-06 0.0911428)
(-6.93325e-06 -4.65813e-06 0.0808154)
(-2.11566e-05 -1.11432e-05 0.0961029)
(6.75704e-06 6.33751e-06 0.0828879)
(-5.93084e-06 -4.06492e-06 0.0676525)
(-3.91031e-06 -6.13285e-06 0.0676449)
(6.03275e-06 4.09817e-06 0.0675777)
(4.27789e-06 5.84161e-06 0.0675704)
(-6.34066e-06 -6.7508e-06 0.0829491)
(5.04493e-07 -7.45272e-06 0.0760538)
(2.48634e-07 7.22659e-06 0.0777822)
(1.00397e-06 1.33379e-05 0.0892676)
(4.33448e-07 -1.45141e-05 0.090919)
(-1.90154e-07 7.38012e-06 0.0759917)
(3.74418e-07 -7.19997e-06 0.0778359)
(-3.86444e-07 -1.4217e-05 0.0893346)
(-7.97788e-07 7.18335e-06 0.067537)
(7.70842e-07 1.21866e-05 0.0813582)
(-1.07821e-06 -1.1339e-05 0.0850901)
(-2.63176e-07 -7.03409e-06 0.0676164)
(2.13812e-07 1.12003e-05 0.0850177)
(-1.83504e-07 -7.05081e-06 0.0676166)
(3.63524e-07 1.11923e-05 0.0850179)
(-1.39215e-06 -1.17465e-05 0.0814232)
(-6.58553e-07 7.18362e-06 0.0675371)
(-9.5355e-07 -1.13848e-05 0.0850902)
(-4.00351e-07 7.35399e-06 0.0759915)
(6.98745e-07 1.3821e-05 0.0908583)
(2.67907e-07 -7.23358e-06 0.0778358)
(-5.06061e-07 -1.4185e-05 0.0893344)
(3.35417e-07 -7.47285e-06 0.0760535)
(1.93928e-07 7.1567e-06 0.077782)
(8.36454e-07 1.33938e-05 0.0892674)
(5.83829e-07 -7.28263e-06 0.0760531)
(6.31544e-07 7.29408e-06 0.0777808)
(4.89103e-07 1.35435e-05 0.0892665)
(9.81085e-07 -1.44756e-05 0.0909182)
(1.4474e-06 7.58386e-06 0.0759914)
(4.93695e-07 -7.16132e-06 0.0778344)
(1.80026e-06 -1.4092e-05 0.089333)
(1.40462e-06 7.3336e-06 0.0675384)
(-4.99722e-08 1.24779e-05 0.0813586)
(1.86826e-06 -1.11249e-05 0.0850889)
(6.93852e-07 1.14649e-05 0.0850171)
(7.71325e-07 -6.90372e-06 0.0676175)
(8.38455e-07 -6.88468e-06 0.0676174)
(7.74743e-07 1.1525e-05 0.0850169)
(2.18535e-06 -1.13814e-05 0.0814253)
(1.45911e-06 7.36102e-06 0.0675383)
(1.93456e-06 -1.10997e-05 0.0850886)
(1.31139e-06 7.51992e-06 0.0759912)
(6.96403e-07 1.38611e-05 0.0908577)
(3.75861e-07 -7.21616e-06 0.0778341)
(1.73165e-06 -1.40632e-05 0.089333)
(6.00353e-07 7.23047e-06 0.0777804)
(4.55677e-07 1.35331e-05 0.0892667)
(4.07792e-07 -7.36532e-06 0.0760529)
(-2.79713e-06 7.07828e-06 0.0706378)
(4.13169e-06 -6.28028e-06 0.0707128)
(-8.28254e-06 1.60988e-05 0.0911519)
(1.15973e-05 -2.13871e-05 0.0961073)
(-5.85502e-06 8.79121e-06 0.0868127)
(4.86432e-06 -6.94118e-06 0.0808276)
(-1.12848e-05 2.22902e-05 0.0960353)
(-3.97615e-06 7.95624e-06 0.0807589)
(9.16713e-06 -1.56837e-05 0.0912187)
(-1.54189e-05 9.01278e-06 0.0911592)
(2.1987e-05 -1.08928e-05 0.0961107)
(-8.34848e-06 6.43575e-06 0.0868151)
(7.39485e-06 -4.38644e-06 0.0808329)
(-7.44982e-06 4.44108e-06 0.0807634)
(-2.17554e-05 1.20792e-05 0.0960383)
(1.63337e-05 -8.43731e-06 0.0912268)
(-1.13336e-05 2.24774e-05 0.0960353)
(7.01562e-06 -7.49871e-06 0.086881)
(1.16363e-05 -2.13276e-05 0.0961073)
(-6.16234e-06 6.79189e-06 0.0829)
(6.24662e-06 -3.84187e-06 0.0676576)
(4.10169e-06 -5.92072e-06 0.067663)
(-5.65934e-06 4.32197e-06 0.0675828)
(-3.98549e-06 6.07868e-06 0.067588)
(6.87755e-06 -6.32328e-06 0.0829618)
(-6.95809e-06 3.30899e-06 0.0706378)
(-7.38812e-06 -9.326e-08 0.0760389)
(1.36028e-05 2.35703e-07 0.0892551)
(7.20976e-06 -1.91277e-07 0.0777654)
(-1.42063e-05 -7.98883e-08 0.0909063)
(7.45571e-06 -8.82114e-07 0.075977)
(-1.4002e-05 -1.03945e-06 0.089322)
(-7.16959e-06 -5.6163e-08 0.0778188)
(7.27487e-06 -1.10392e-06 0.0675258)
(1.25504e-05 2.75699e-07 0.0813495)
(-1.11396e-05 -1.52925e-06 0.0850775)
(-6.97925e-06 -5.93093e-07 0.0676053)
(1.14949e-05 -2.43125e-07 0.0850053)
(-6.9653e-06 -5.9009e-07 0.0676056)
(1.15396e-05 -3.19116e-07 0.085006)
(-1.13684e-05 -2.04919e-06 0.0814149)
(7.28581e-06 -1.09955e-06 0.0675262)
(-1.10822e-05 -1.58884e-06 0.085078)
(7.49032e-06 -8.68843e-07 0.0759764)
(1.41598e-05 1.54859e-07 0.090845)
(-1.40659e-05 -1.017e-06 0.0893212)
(-7.18379e-06 -8.60493e-08 0.0778183)
(-7.40445e-06 -7.16629e-08 0.0760385)
(1.36104e-05 3.18062e-07 0.0892543)
(7.28115e-06 -2.29734e-07 0.0777645)
(-7.34183e-06 3.22844e-07 0.0760407)
(7.22096e-06 3.3187e-07 0.0777672)
(1.38367e-05 1.58573e-07 0.0892579)
(-1.41481e-05 5.03438e-07 0.0909073)
(7.49718e-06 1.12887e-06 0.0759791)
(-7.16137e-06 1.35261e-07 0.0778204)
(-1.37191e-05 1.47249e-06 0.089324)
(7.272e-06 1.29629e-06 0.0675287)
(1.26152e-05 -2.70696e-07 0.0813527)
(-1.10028e-05 1.69881e-06 0.0850796)
(1.1625e-05 4.243e-07 0.0850081)
(-6.98569e-06 7.37799e-07 0.067608)
(-6.89208e-06 8.09395e-07 0.067608)
(1.15952e-05 4.96771e-07 0.0850088)
(-1.12427e-05 2.03493e-06 0.0814177)
(7.29371e-06 1.32649e-06 0.0675289)
(-1.08984e-05 1.74838e-06 0.0850801)
(7.47444e-06 1.02257e-06 0.0759781)
(1.41999e-05 1.1416e-07 0.0908461)
(-7.22644e-06 -4.71793e-08 0.0778197)
(-1.3824e-05 1.40814e-06 0.0893228)
(7.25292e-06 1.50969e-07 0.0777661)
(1.38539e-05 7.3606e-08 0.0892566)
(-7.40287e-06 1.92864e-07 0.0760398)
(-7.17998e-06 -1.13301e-06 0.0675227)
(-1.23019e-05 5.18461e-07 0.0813538)
(1.12962e-05 -1.50456e-06 0.0850828)
(-1.1219e-05 -2.04337e-07 0.0850075)
(6.94196e-06 -5.75968e-07 0.0676079)
(-7.29257e-06 -9.71404e-07 0.075973)
(-1.35113e-05 -2.23099e-07 0.090846)
(1.41637e-05 -1.18914e-06 0.0893257)
(7.2919e-06 -1.57455e-07 0.0778186)
(-1.33455e-05 1.12822e-07 0.0892555)
(-7.02709e-06 -4.27663e-07 0.0777619)
(7.37169e-06 -1.42044e-07 0.0760409)
(-7.22547e-06 7.51817e-07 0.0675275)
(-1.22215e-05 -7.23327e-07 0.0813517)
(1.14392e-05 1.21528e-06 0.085079)
(-1.11766e-05 -1.03551e-07 0.0850065)
(6.99727e-06 2.88004e-07 0.0676069)
(-7.41152e-06 5.12311e-07 0.0759733)
(-1.35409e-05 -1.5698e-07 0.0908443)
(7.26872e-06 -4.91968e-08 0.0778163)
(1.43277e-05 8.92187e-07 0.0893204)
(-7.11016e-06 -1.69454e-08 0.077762)
(-1.32837e-05 -4.89286e-07 0.0892533)
(7.43693e-06 -2.05748e-07 0.0760355)
(7.03452e-06 -3.05555e-06 0.0706355)
(-6.42607e-06 3.98239e-06 0.070706)
(-6.11797e-06 6.89761e-06 0.0829588)
(4.40488e-06 -5.61241e-06 0.0675821)
(6.29624e-06 -3.86358e-06 0.067587)
(7.01055e-06 -6.08679e-06 0.0828982)
(-3.80178e-06 6.25029e-06 0.0676557)
(-5.72567e-06 4.21486e-06 0.067661)
(1.63902e-05 -8.50016e-06 0.0911497)
(-2.10876e-05 1.11978e-05 0.096103)
(8.8925e-06 -6.16165e-06 0.0868104)
(-6.90763e-06 4.62309e-06 0.0808235)
(2.26975e-05 -1.16683e-05 0.096033)
(8.00595e-06 -4.09659e-06 0.0807565)
(-1.55388e-05 8.91233e-06 0.0912153)
(9.29017e-06 -1.55047e-05 0.0911563)
(-1.04444e-05 2.18315e-05 0.0961062)
(6.7998e-06 -8.26724e-06 0.0868109)
(-4.20436e-06 7.46488e-06 0.0808291)
(4.6284e-06 -7.34412e-06 0.0807605)
(1.24864e-05 -2.1868e-05 0.0960349)
(-8.25135e-06 1.63473e-05 0.0912225)
(-1.53846e-05 8.99348e-06 0.0912156)
(8.09841e-06 -3.97322e-06 0.0807571)
(2.27353e-05 -1.15427e-05 0.0960332)
(-7.36515e-06 6.67012e-06 0.0868758)
(-2.10547e-05 1.12541e-05 0.0961037)
(1.64835e-05 -8.41224e-06 0.0911498)
(-6.81985e-06 4.73814e-06 0.0808239)
(-8.14118e-06 1.63389e-05 0.0912226)
(4.71913e-06 -7.26922e-06 0.0807606)
(1.2459e-05 -2.18479e-05 0.0960352)
(-5.94542e-06 8.05374e-06 0.0868776)
(9.34329e-06 -1.54922e-05 0.0911563)
(-4.1021e-06 7.51795e-06 0.0808289)
(-1.04025e-05 2.18512e-05 0.096107)
(6.93566e-06 -6.23329e-06 0.082898)
(-3.90546e-06 6.13795e-06 0.0676554)
(-5.83865e-06 4.14866e-06 0.0676609)
(4.3159e-06 -5.7549e-06 0.0675817)
(6.1823e-06 -3.97988e-06 0.0675868)
(-6.22624e-06 6.77912e-06 0.0829587)
(3.63916e-06 -6.84105e-06 0.0706335)
(-3.33827e-06 6.73537e-06 0.0707048)
(4.26986e-07 7.4139e-06 0.0760314)
(7.82818e-07 -1.32558e-05 0.08925)
(1.91932e-07 -7.00886e-06 0.0777556)
(6.80505e-08 1.44417e-05 0.0909019)
(-2.70664e-07 -7.38922e-06 0.0759692)
(-5.83254e-07 1.41882e-05 0.0893167)
(2.20613e-07 7.25184e-06 0.0778122)
(-6.29352e-07 -7.19825e-06 0.0675236)
(9.41079e-07 -1.21947e-05 0.0813484)
(-9.42056e-07 1.13857e-05 0.0850737)
(3.98675e-07 -1.1164e-05 0.0850025)
(-1.32472e-07 7.05092e-06 0.0676026)
(-7.78414e-08 7.03953e-06 0.0676027)
(4.28592e-07 -1.1069e-05 0.0850026)
(-1.29755e-06 1.17523e-05 0.0814132)
(-5.51276e-07 -7.13913e-06 0.0675238)
(-8.34296e-07 1.14254e-05 0.0850738)
(-3.5064e-07 -7.41383e-06 0.075969)
(4.30162e-07 -1.37629e-05 0.0908398)
(-5.90159e-07 1.42096e-05 0.0893169)
(1.63005e-07 7.21209e-06 0.0778124)
(8.17753e-07 -1.33961e-05 0.0892502)
(1.18785e-07 -7.11882e-06 0.0777557)
(3.1244e-07 7.42379e-06 0.0760314)
(9.66171e-08 7.36377e-06 0.0760342)
(-6.1942e-08 -1.34435e-05 0.0892491)
(4.32935e-07 -7.03369e-06 0.0777542)
(5.61616e-07 1.44064e-05 0.090902)
(8.95411e-07 -7.36536e-06 0.0759688)
(1.27427e-06 1.40432e-05 0.0893179)
(2.01538e-07 7.16813e-06 0.0778128)
(1.01526e-06 -7.21721e-06 0.0675249)
(-1.94451e-07 -1.24115e-05 0.0813498)
(1.63463e-06 1.12527e-05 0.0850752)
(3.06593e-07 -1.1348e-05 0.0850027)
(5.80178e-07 6.98855e-06 0.067605)
(4.8775e-07 7.03421e-06 0.067605)
(3.30314e-07 -1.13335e-05 0.085003)
(2.10548e-06 1.14562e-05 0.0814148)
(9.73809e-07 -7.18942e-06 0.0675249)
(1.64967e-06 1.12001e-05 0.0850754)
(8.53792e-07 -7.44666e-06 0.0759687)
(3.10073e-07 -1.38344e-05 0.0908386)
(1.34963e-06 1.41065e-05 0.0893178)
(2.05255e-07 7.17688e-06 0.0778129)
(-9.61668e-08 -1.34834e-05 0.0892491)
(3.50125e-07 -7.099e-06 0.0777541)
(1.27049e-07 7.35205e-06 0.0760341)
(6.59135e-06 6.43783e-06 0.0829589)
(3.97212e-06 6.02255e-06 0.0676607)
(6.05843e-06 3.90973e-06 0.0676544)
(-1.57826e-05 -9.01113e-06 0.0911581)
(2.17805e-05 1.08806e-05 0.0961087)
(-8.5172e-06 -6.54947e-06 0.0868127)
(7.29692e-06 4.50415e-06 0.0808298)
(1.60096e-05 8.49116e-06 0.0912243)
(-2.19521e-05 -1.20448e-05 0.0960373)
(-7.53002e-06 -4.33902e-06 0.0807609)
(-8.74816e-06 -1.60919e-05 0.091151)
(1.12401e-05 2.133e-05 0.0961064)
(-6.11346e-06 -8.78438e-06 0.0868102)
(4.58767e-06 7.03843e-06 0.0808241)
(8.75709e-06 1.57512e-05 0.0912168)
(-1.17351e-05 -2.2469e-05 0.0960349)
(-4.23806e-06 -7.82878e-06 0.0807565)
(1.59806e-05 8.41586e-06 0.0912245)
(7.86911e-06 6.28294e-06 0.0868798)
(2.17207e-05 1.08093e-05 0.0961089)
(7.28406e-06 4.42888e-06 0.0808298)
(8.7656e-06 1.56895e-05 0.0912168)
(-1.1668e-05 -2.24001e-05 0.0960346)
(6.74978e-06 7.5285e-06 0.0868764)
(1.12378e-05 2.12388e-05 0.0961066)
(4.62542e-06 6.99984e-06 0.0808241)
(-6.50529e-06 -6.63049e-06 0.0828987)
(3.98181e-06 6.04891e-06 0.0676608)
(6.07933e-06 3.93568e-06 0.0676545)
(6.55561e-06 6.47761e-06 0.0829588)
(-4.15526e-06 -5.93491e-06 0.0675868)
(-5.91094e-06 -4.21219e-06 0.0675808)
(-6.89546e-06 -3.47649e-06 0.0706362)
(6.60956e-06 3.51902e-06 0.0707076)
(-3.05486e-06 -7.07836e-06 0.0706348)
(3.99806e-06 6.40266e-06 0.0707056)
(-3.55084e-06 -6.59859e-06 0.0707076)
(3.34133e-06 6.97089e-06 0.0706358)
(-6.49721e-06 -3.88407e-06 0.0707007)
(7.02385e-06 3.08941e-06 0.0706295)
(6.71162e-06 6.446e-06 0.0828878)
(-6.03888e-06 -3.98112e-06 0.0676522)
(-3.99738e-06 -6.03982e-06 0.0676447)
(5.96626e-06 4.1678e-06 0.0675775)
(4.2031e-06 5.93669e-06 0.0675702)
(-6.43748e-06 -6.61064e-06 0.0829491)
(-8.40353e-06 -1.62387e-05 0.0912182)
(1.22323e-05 2.18305e-05 0.0960359)
(4.45077e-06 7.52697e-06 0.0807545)
(-6.11865e-06 -7.86984e-06 0.0868782)
(9.06333e-06 1.55645e-05 0.091151)
(-4.29682e-06 -7.23429e-06 0.0808246)
(-1.06566e-05 -2.18275e-05 0.0961077)