0 	4.39907e-16 	-1.07221e-16 	5.23724e-08
0.010101 	4.57353e-13 	-9.30359e-14 	4.58117e-05
0.020202 	9.14321e-13 	-1.85963e-13 	9.15705e-05
0.030303 	1.03025e-12 	-1.78322e-13 	0.000100031
0.040404 	1.0689e-12 	-1.47889e-13 	0.000100039
0.0505051 	1.09631e-12 	-1.11526e-13 	0.000100044
0.0606061 	1.10256e-12 	-6.38277e-14 	0.000100044
0.0707071 	1.10882e-12 	-1.61291e-14 	0.000100043
0.0808081 	1.11508e-12 	3.15696e-14 	0.000100043
0.0909091 	1.12133e-12 	7.92682e-14 	0.000100042
0.10101 	1.13732e-12 	1.06729e-13 	0.000100042
0.111111 	1.16448e-12 	1.10529e-13 	0.000100042
0.121212 	1.19164e-12 	1.14329e-13 	0.000100042
0.131313 	1.2188e-12 	1.18129e-13 	0.000100042
0.141414 	1.24596e-12 	1.21929e-13 	0.000100042
0.151515 	1.26558e-12 	1.42258e-13 	0.000100042
0.161616 	1.27821e-12 	1.77944e-13 	0.000100042
0.171717 	1.29084e-12 	2.1363e-13 	0.000100042
0.181818 	1.30346e-12 	2.49316e-13 	0.000100042
0.191919 	1.31609e-12 	2.85002e-13 	0.000100042
0.20202 	1.33557e-12 	3.21981e-13 	0.000100042
0.212121 	1.3608e-12 	3.6006e-13 	0.000100042
0.222222 	1.38604e-12 	3.98138e-13 	0.000100042
0.232323 	1.41127e-12 	4.36214e-13 	0.000100042
0.242424 	1.43651e-12 	4.7429e-13 	0.000100042
0.252525 	1.46174e-12 	5.12365e-13 	0.000100042
0.262626 	1.48698e-12 	5.5044e-13 	0.000100042
0.272727 	1.51221e-12 	5.88516e-13 	0.000100042
0.282828 	1.53745e-12 	6.26591e-13 	0.000100042
0.292929 	1.56268e-12 	6.64667e-13 	0.000100042
0.30303 	1.57977e-12 	7.05646e-13 	0.000100042
0.313131 	1.58998e-12 	7.49099e-13 	0.000100042
0.323232 	1.60018e-12 	7.92552e-13 	0.000100042
0.333333 	1.61038e-12 	8.36006e-13 	0.000100042
0.343434 	1.62058e-12 	8.79459e-13 	0.000100042
0.353535 	1.63078e-12 	9.22912e-13 	0.000100042
0.363636 	1.64098e-12 	9.66366e-13 	0.000100042
0.373737 	1.65118e-12 	1.00982e-12 	0.000100042
0.383838 	1.66138e-12 	1.05327e-12 	0.000100042
0.393939 	1.67158e-12 	1.09673e-12 	0.000100042
0.40404 	1.67232e-12 	1.14425e-12 	0.000100042
0.414141 	1.6646e-12 	1.19542e-12 	0.000100042
0.424242 	1.65689e-12 	1.2466e-12 	0.000100042
0.434343 	1.64917e-12 	1.29777e-12 	0.000100042
0.444444 	1.64145e-12 	1.34894e-12 	0.000100042
0.454545 	1.63373e-12 	1.40012e-12 	0.000100042
0.464646 	1.62601e-12 	1.45129e-12 	0.000100042
0.474747 	1.61829e-12 	1.50247e-12 	0.000100042
0.484848 	1.61057e-12 	1.55364e-12 	0.000100042
0.494949 	1.60285e-12 	1.60481e-12 	0.000100042
0.505051 	1.59136e-12 	1.65284e-12 	0.000100042
0.515152 	1.57611e-12 	1.69773e-12 	0.000100042
0.525253 	1.56085e-12 	1.74261e-12 	0.000100042
0.535354 	1.5456e-12 	1.7875e-12 	0.000100042
0.545455 	1.53035e-12 	1.83239e-12 	0.000100042
0.555556 	1.51509e-12 	1.87727e-12 	0.000100042
0.565657 	1.49984e-12 	1.92216e-12 	0.000100042
0.575758 	1.48458e-12 	1.96704e-12 	0.000100042
0.585859 	1.46933e-12 	2.01193e-12 	0.000100042
0.59596 	1.45408e-12 	2.05682e-12 	0.000100042
0.606061 	1.44107e-12 	2.10973e-12 	0.000100042
0.616162 	1.43063e-12 	2.17158e-12 	0.000100042
0.626263 	1.42018e-12 	2.23343e-12 	0.000100042
0.636364 	1.40974e-12 	2.29528e-12 	0.000100042
0.646465 	1.3993e-12 	2.35713e-12 	0.000100042
0.656566 	1.38885e-12 	2.41898e-12 	0.000100042
0.666667 	1.37841e-12 	2.48083e-12 	0.000100042
0.676768 	1.36796e-12 	2.54268e-12 	0.000100042
0.686869 	1.35752e-12 	2.60453e-12 	0.000100042
0.69697 	1.34707e-12 	2.66638e-12 	0.000100042
0.707071 	1.33689e-12 	2.6787e-12 	0.000100042
0.717172 	1.32705e-12 	2.6329e-12 	0.000100042
0.727273 	1.31721e-12 	2.58709e-12 	0.000100042
0.737374 	1.30736e-12 	2.54129e-12 	0.000100042
0.747475 	1.29752e-12 	2.49548e-12 	0.000100042
0.757576 	1.28768e-12 	2.44968e-12 	0.000100042
0.767677 	1.27783e-12 	2.40387e-12 	0.000100042
0.777778 	1.26799e-12 	2.35807e-12 	0.000100042
0.787879 	1.25815e-12 	2.31226e-12 	0.000100042
0.79798 	1.2483e-12 	2.26645e-12 	0.000100042
0.808081 	1.24422e-12 	2.22582e-12 	0.000100042
0.818182 	1.24693e-12 	2.1913e-12 	0.000100042
0.828283 	1.24964e-12 	2.15678e-12 	0.000100042
0.838384 	1.25235e-12 	2.12226e-12 	0.000100042
0.848485 	1.25506e-12 	2.08774e-12 	0.000100042
0.858586 	1.27309e-12 	2.06184e-12 	0.000100042
0.868687 	1.30747e-12 	2.04516e-12 	0.000100042
0.878788 	1.34185e-12 	2.02848e-12 	0.000100042
0.888889 	1.37623e-12 	2.0118e-12 	0.000100042
0.89899 	1.41061e-12 	1.99512e-12 	0.000100042
0.909091 	1.90758e-12 	1.74294e-12 	0.000100042
0.919192 	2.79841e-12 	1.29069e-12 	0.000100043
0.929293 	3.68925e-12 	8.38429e-13 	0.000100043
0.939394 	4.58008e-12 	3.86172e-13 	0.000100044
0.949495 	5.47091e-12 	-6.60861e-14 	0.000100044
0.959596 	5.02633e-12 	-7.48991e-13 	0.000100039
0.969697 	3.88145e-12 	-1.55343e-12 	0.000100031
0.979798 	2.69818e-12 	-2.01824e-12 	9.14614e-05
0.989899 	1.3481e-12 	-1.00783e-12 	4.57005e-05
