/*--------------------------------*- C++ -*----------------------------------*\
| =========                 |                                                 |
| \\      /  F ield         | OpenFOAM: The Open Source CFD Toolbox           |
|  \\    /   O peration     | Version:  2312                                  |
|   \\  /    A nd           | Website:  www.openfoam.com                      |
|    \\/     M anipulation  |                                                 |
\*---------------------------------------------------------------------------*/
FoamFile
{
    version     2.0;
    format      ascii;
    arch        "LSB;label=32;scalar=64";
    class       volScalarField;
    location    "100";
    object      k;
}
// * * * * * * * * * * * * * * * * * * * * * * * * * * * * * * * * * * * * * //

dimensions      [0 2 -2 0 0 0 0];

internalField   nonuniform List<scalar> 
43496
(
5.03374e-05
6.92385e-05
1.57158e-05
4.38425e-05
2.76276e-05
1.43388e-05
5.05103e-05
6.93282e-05
2.7713e-05
1.57141e-05
1.4343e-05
4.3845e-05
1.75881e-05
5.75399e-05
5.75546e-05
6.92427e-05
6.93385e-05
6.91994e-05
5.03969e-05
5.62302e-05
6.88373e-05
5.62402e-05
6.88363e-05
6.92009e-05
7.0385e-05
7.23711e-05
7.23651e-05
7.03949e-05
6.923e-05
6.93867e-05
5.05704e-05
6.88821e-05
5.68585e-05
6.88809e-05
5.69004e-05
6.9388e-05
7.04618e-05
7.24959e-05
6.9328e-05
7.2501e-05
7.04744e-05
8.58752e-05
7.20592e-05
7.20652e-05
7.20478e-05
7.20538e-05
8.58896e-05
5.45628e-05
6.79786e-05
5.75526e-05
3.70564e-05
6.79765e-05
3.70877e-05
5.45473e-05
5.44133e-05
6.7963e-05
5.75534e-05
3.72047e-05
3.72125e-05
6.79614e-05
5.44089e-05
6.92337e-05
6.93377e-05
1.40546e-05
1.41158e-05
1.40555e-05
4.38474e-05
2.67813e-05
2.67955e-05
1.90076e-05
2.76377e-05
3.137e-05
1.75678e-05
3.13813e-05
1.75774e-05
1.89897e-05
2.18205e-05
3.78921e-05
3.7906e-05
2.18034e-05
1.90773e-05
2.77224e-05
1.75929e-05
3.16273e-05
1.76023e-05
3.16388e-05
1.90596e-05
2.18475e-05
3.79613e-05
4.38501e-05
2.67758e-05
3.7973e-05
2.18302e-05
2.67929e-05
3.56088e-05
1.76251e-05
2.38302e-05
2.38387e-05
2.38564e-05
2.38508e-05
3.55935e-05
1.41117e-05
1.57122e-05
1.57105e-05
1.76128e-05
1.4115e-05
1.57155e-05
1.57151e-05
1.76197e-05
1.76269e-05
1.76312e-05
1.5702e-05
1.57151e-05
1.57065e-05
1.57186e-05
1.76138e-05
1.76252e-05
1.57029e-05
1.57086e-05
1.57085e-05
1.57126e-05
1.57005e-05
1.57152e-05
1.57036e-05
1.76302e-05
1.76089e-05
1.56982e-05
1.57144e-05
1.57014e-05
1.76059e-05
1.76463e-05
1.5708e-05
1.57202e-05
1.7641e-05
1.57103e-05
1.57137e-05
1.57046e-05
1.76264e-05
1.57022e-05
4.96075e-05
6.93055e-05
6.93049e-05
4.96086e-05
6.92375e-05
6.92484e-05
5.04147e-05
6.93031e-05
6.93112e-05
5.0425e-05
1.41144e-05
1.41138e-05
1.41109e-05
1.41128e-05
1.41153e-05
1.41141e-05
1.41113e-05
2.77501e-05
4.38413e-05
1.43455e-05
1.57133e-05
4.38381e-05
1.43457e-05
2.77565e-05
6.92231e-05
6.92331e-05
2.77399e-05
1.4346e-05
4.38322e-05
1.57122e-05
1.43461e-05
4.3831e-05
2.77484e-05
5.74145e-05
5.74272e-05
1.76014e-05
5.74285e-05
5.74142e-05
6.93008e-05
4.95859e-05
6.92429e-05
6.9305e-05
5.04022e-05
1.41156e-05
1.41154e-05
1.41121e-05
2.77547e-05
4.38506e-05
1.43475e-05
2.77614e-05
1.43477e-05
6.92288e-05
2.77396e-05
1.43469e-05
4.38447e-05
2.7748e-05
1.43469e-05
5.73613e-05
5.74333e-05
1.76041e-05
5.73577e-05
5.7422e-05
6.92145e-05
6.92256e-05
6.92184e-05
6.92305e-05
5.75288e-05
5.74886e-05
1.76198e-05
5.75386e-05
5.75286e-05
6.92304e-05
6.92186e-05
6.92351e-05
6.92237e-05
1.76384e-05
5.75361e-05
5.75484e-05
5.75228e-05
5.75296e-05
4.9909e-05
6.93395e-05
6.93433e-05
4.98919e-05
2.73681e-05
4.38174e-05
1.43329e-05
1.5704e-05
4.38126e-05
1.43328e-05
2.7363e-05
2.75915e-05
4.38489e-05
1.43442e-05
1.57168e-05
4.38453e-05
1.43439e-05
2.76058e-05
4.96654e-05
6.93023e-05
6.9303e-05
4.9611e-05
4.99625e-05
6.93485e-05
6.93452e-05
4.99555e-05
2.73768e-05
1.57052e-05
4.38158e-05
1.43329e-05
4.38194e-05
1.43329e-05
2.73663e-05
2.75993e-05
1.57179e-05
4.38482e-05
1.43453e-05
4.38526e-05
1.43449e-05
2.75932e-05
5.75787e-05
5.75153e-05
1.76137e-05
5.75896e-05
5.75135e-05
6.92273e-05
6.92375e-05
6.92505e-05
6.92409e-05
1.76312e-05
5.75835e-05
5.75218e-05
5.75943e-05
5.75343e-05
6.92411e-05
6.92304e-05
2.76333e-05
4.38287e-05
1.43365e-05
1.57052e-05
4.38262e-05
1.43364e-05
2.76408e-05
5.05742e-05
6.93268e-05
6.933e-05
5.0577e-05
2.77133e-05
1.43411e-05
4.38367e-05
1.57103e-05
1.43412e-05
4.38345e-05
2.77202e-05
5.04152e-05
6.93074e-05
6.93077e-05
5.04017e-05
2.7641e-05
1.57069e-05
4.3832e-05
1.43373e-05
4.38336e-05
1.4337e-05
2.7632e-05
5.05766e-05
6.93309e-05
6.93293e-05
5.05726e-05
2.77214e-05
1.57115e-05
1.4342e-05
4.38402e-05
1.43416e-05
4.38423e-05
2.77145e-05
5.06172e-05
6.9342e-05
6.9344e-05
5.06198e-05
2.77524e-05
1.43441e-05
4.37856e-05
1.57019e-05
1.43444e-05
4.37775e-05
2.77589e-05
5.06191e-05
6.93126e-05
6.93153e-05
5.06199e-05
2.77583e-05
1.57144e-05
4.38428e-05
1.43469e-05
4.38453e-05
1.43461e-05
2.77524e-05
5.06203e-05
6.93445e-05
6.93432e-05
5.06182e-05
2.77607e-05
1.57029e-05
1.4345e-05
4.37736e-05
1.43446e-05
4.37832e-05
2.77547e-05
5.06226e-05
6.93183e-05
6.93149e-05
5.06213e-05
5.74964e-05
5.75241e-05
1.75957e-05
5.75037e-05
5.75306e-05
6.92226e-05
6.92349e-05
6.92361e-05
6.92264e-05
1.76127e-05
5.75488e-05
5.75228e-05
5.75418e-05
5.75474e-05
6.92389e-05
6.92286e-05
2.7736e-05
1.43429e-05
4.37779e-05
1.56996e-05
1.43429e-05
4.37711e-05
2.7745e-05
5.06143e-05
6.93319e-05
6.93366e-05
5.06175e-05
5.06106e-05
6.93081e-05
6.93071e-05
5.06143e-05
2.77476e-05
1.57132e-05
1.43465e-05
4.3837e-05
1.43462e-05
4.38389e-05
2.77397e-05
2.77438e-05
1.57004e-05
1.43432e-05
4.37725e-05
1.4343e-05
4.37775e-05
2.77357e-05
5.06171e-05
6.93385e-05
6.93363e-05
5.06142e-05
5.06137e-05
6.93038e-05
6.93052e-05
5.06104e-05
6.91643e-05
6.91702e-05
6.91586e-05
6.91675e-05
1.76193e-05
5.73586e-05
5.74143e-05
5.74334e-05
5.74285e-05
6.91648e-05
6.91616e-05
6.91715e-05
6.91606e-05
6.92238e-05
6.92282e-05
5.75501e-05
5.75626e-05
6.935e-05
5.0034e-05
4.38231e-05
1.43331e-05
2.73724e-05
4.38553e-05
1.43455e-05
2.76025e-05
5.75868e-05
5.7554e-05
6.92343e-05
4.38395e-05
1.43376e-05
2.7639e-05
6.93277e-05
5.05743e-05
1.43424e-05
4.38474e-05
2.77222e-05
5.06172e-05
6.93439e-05
5.06213e-05
2.77555e-05
1.43456e-05
4.37785e-05
1.57045e-05
2.77629e-05
1.43459e-05
4.37702e-05
5.05715e-05
6.93174e-05
5.06239e-05
6.93176e-05
5.75523e-05
5.75364e-05
6.92318e-05
2.77357e-05
1.43434e-05
4.37795e-05
1.57032e-05
2.77434e-05
1.43437e-05
4.37757e-05
5.06133e-05
6.93375e-05
5.0617e-05
5.06107e-05
6.93024e-05
5.06136e-05
6.93027e-05
6.91556e-05
6.91616e-05
6.91649e-05
6.9175e-05
6.91968e-05
6.87426e-05
5.62055e-05
4.96493e-05
6.87446e-05
5.61705e-05
6.91984e-05
7.04119e-05
6.93063e-05
7.23759e-05
7.23815e-05
7.04013e-05
7.03966e-05
7.23695e-05
6.93045e-05
7.23698e-05
7.04067e-05
6.92029e-05
4.96386e-05
6.87515e-05
5.61968e-05
6.87499e-05
5.62044e-05
6.92011e-05
6.92468e-05
6.92393e-05
6.92237e-05
5.63084e-05
6.88432e-05
5.04205e-05
5.62898e-05
6.88411e-05
6.92244e-05
7.0423e-05
6.93091e-05
7.24582e-05
7.2461e-05
7.04113e-05
7.04093e-05
7.24597e-05
6.93094e-05
7.24587e-05
7.04204e-05
6.92307e-05
5.04199e-05
5.63993e-05
6.88414e-05
5.63482e-05
6.88437e-05
6.92294e-05
6.92318e-05
6.92247e-05
8.58508e-05
7.20595e-05
7.20597e-05
7.20487e-05
7.2048e-05
8.58743e-05
5.44873e-05
3.71576e-05
5.73965e-05
6.79148e-05
3.71509e-05
6.79156e-05
5.4492e-05
5.45422e-05
3.71883e-05
5.74289e-05
6.79373e-05
3.7183e-05
6.79397e-05
5.45105e-05
5.43801e-05
6.79099e-05
5.74267e-05
3.71453e-05
3.71547e-05
6.79097e-05
5.43759e-05
5.45553e-05
6.79399e-05
5.74217e-05
3.7186e-05
3.71905e-05
6.79377e-05
5.45403e-05
8.58596e-05
7.20511e-05
7.2049e-05
7.20617e-05
7.20603e-05
8.58595e-05
7.0395e-05
7.23541e-05
6.93014e-05
7.03838e-05
7.23574e-05
6.91723e-05
4.96471e-05
6.87291e-05
5.60241e-05
6.91723e-05
6.87299e-05
5.59962e-05
6.92512e-05
7.04009e-05
7.23783e-05
6.9305e-05
7.03911e-05
7.23871e-05
6.92054e-05
5.03965e-05
5.62549e-05
6.88379e-05
6.92044e-05
5.62491e-05
6.88395e-05
6.92372e-05
8.58699e-05
7.20556e-05
7.20632e-05
7.20435e-05
7.20502e-05
8.58903e-05
5.43882e-05
3.71317e-05
6.78947e-05
5.73588e-05
5.43969e-05
3.71214e-05
6.78954e-05
5.46368e-05
3.72095e-05
6.79428e-05
5.74408e-05
5.46408e-05
3.72073e-05
6.79459e-05
8.58754e-05
7.2044e-05
7.20489e-05
8.58755e-05
7.20554e-05
7.20612e-05
5.43924e-05
6.78927e-05
5.7366e-05
3.71147e-05
3.71244e-05
6.78921e-05
5.4332e-05
5.46374e-05
6.79458e-05
5.74515e-05
3.72142e-05
3.72172e-05
6.79438e-05
5.46023e-05
6.92234e-05
6.92165e-05
6.92276e-05
6.92212e-05
8.59189e-05
7.20947e-05
7.20889e-05
7.20812e-05
7.20754e-05
8.59119e-05
5.45358e-05
3.72247e-05
5.75307e-05
6.79632e-05
6.79668e-05
3.7222e-05
5.44944e-05
5.45663e-05
3.72345e-05
5.75092e-05
6.7968e-05
6.79703e-05
3.7233e-05
5.4573e-05
5.45094e-05
6.79669e-05
5.75371e-05
3.72304e-05
6.79659e-05
5.45295e-05
3.72327e-05
5.45599e-05
6.79761e-05
5.75252e-05
3.72456e-05
6.79686e-05
5.45212e-05
3.72473e-05
8.59168e-05
7.20779e-05
7.20717e-05
7.20915e-05
7.20854e-05
8.59102e-05
6.92213e-05
6.92279e-05
6.92261e-05
6.92326e-05
8.59281e-05
7.20845e-05
7.20789e-05
8.59281e-05
7.20978e-05
7.20923e-05
5.4586e-05
3.72503e-05
5.7546e-05
6.79781e-05
6.797e-05
3.72524e-05
5.45798e-05
5.4606e-05
3.72702e-05
5.75485e-05
6.79914e-05
6.79862e-05
3.72719e-05
5.46045e-05
5.45531e-05
6.79643e-05
3.72417e-05
5.75396e-05
5.45505e-05
6.79676e-05
3.72397e-05
5.45848e-05
6.79733e-05
3.72597e-05
5.75185e-05
5.45831e-05
6.79854e-05
3.72583e-05
8.59242e-05
7.21001e-05
7.20947e-05
7.20871e-05
7.20818e-05
8.59202e-05
6.93939e-05
6.88245e-05
5.6867e-05
4.99373e-05
6.88233e-05
5.68193e-05
6.93981e-05
7.05079e-05
6.93405e-05
7.2504e-05
7.25074e-05
7.04946e-05
7.04957e-05
7.25051e-05
6.93398e-05
7.25005e-05
7.05093e-05
6.93975e-05
4.9932e-05
6.88264e-05
5.68446e-05
6.8827e-05
5.68368e-05
6.93938e-05
6.91911e-05
6.87385e-05
5.61608e-05
4.96621e-05
6.91921e-05
6.87387e-05
5.60409e-05
7.03871e-05
6.93017e-05
7.23568e-05
7.0398e-05
7.23551e-05
7.04017e-05
7.23593e-05
6.93033e-05
7.03914e-05
7.23587e-05
6.91817e-05
4.96285e-05
6.87334e-05
5.59935e-05
6.91804e-05
6.87335e-05
5.60358e-05
6.93981e-05
6.88222e-05
5.68292e-05
4.99645e-05
6.93945e-05
6.88248e-05
5.68461e-05
7.04995e-05
6.93469e-05
7.25341e-05
7.25284e-05
7.05126e-05
7.05112e-05
7.24969e-05
6.93475e-05
7.04975e-05
7.25241e-05
6.93943e-05
4.99717e-05
6.88255e-05
5.68284e-05
6.88227e-05
5.68547e-05
6.93972e-05
8.58786e-05
7.20784e-05
7.20732e-05
7.20658e-05
7.20611e-05
8.58857e-05
5.4595e-05
3.72775e-05
5.75822e-05
6.79868e-05
6.79952e-05
3.72755e-05
5.45942e-05
5.44128e-05
3.72003e-05
5.75291e-05
6.79575e-05
3.71931e-05
6.79596e-05
5.44139e-05
5.46055e-05
6.80046e-05
5.75889e-05
3.72834e-05
6.79982e-05
3.7286e-05
5.45863e-05
5.44046e-05
6.7959e-05
5.75336e-05
3.71915e-05
3.71982e-05
6.79572e-05
5.44069e-05
8.58833e-05
7.20654e-05
7.20617e-05
7.20775e-05
7.20733e-05
8.58845e-05
6.92362e-05
6.92291e-05
6.92417e-05
6.92495e-05
8.58803e-05
7.2067e-05
7.20616e-05
8.58855e-05
7.20795e-05
7.20739e-05
5.46545e-05
3.72899e-05
5.75854e-05
6.80038e-05
3.72961e-05
6.80006e-05
5.46095e-05
5.43432e-05
3.71853e-05
5.75379e-05
6.79566e-05
6.79553e-05
3.71931e-05
5.43165e-05
5.46489e-05
6.80013e-05
3.7293e-05
5.75823e-05
3.72889e-05
5.46623e-05
6.80018e-05
5.43559e-05
6.79567e-05
3.71964e-05
5.75376e-05
5.44131e-05
6.79583e-05
3.71887e-05
8.58942e-05
7.20806e-05
7.2075e-05
7.20683e-05
7.20626e-05
8.58932e-05
6.92323e-05
6.92393e-05
6.93928e-05
6.88852e-05
5.70142e-05
5.0577e-05
6.88827e-05
5.70152e-05
6.93963e-05
7.04732e-05
6.9329e-05
7.24916e-05
7.25049e-05
7.04601e-05
7.04608e-05
7.24976e-05
6.93286e-05
7.25061e-05
7.04734e-05
6.93967e-05
5.05741e-05
6.88826e-05
5.70136e-05
6.88851e-05
5.70129e-05
6.93932e-05
6.92183e-05
5.63135e-05
6.88403e-05
5.04084e-05
6.92176e-05
5.62761e-05
6.88423e-05
7.03973e-05
6.9307e-05
7.23998e-05
7.0407e-05
7.23964e-05
7.04133e-05
7.24263e-05
6.93087e-05
7.04045e-05
7.23962e-05
6.92102e-05
5.04083e-05
5.6247e-05
6.8841e-05
6.92108e-05
5.62254e-05
6.88393e-05
6.93958e-05
6.88826e-05
5.7016e-05
5.05737e-05
6.93924e-05
6.8885e-05
5.70152e-05
7.04618e-05
6.93296e-05
7.25158e-05
7.24957e-05
7.04751e-05
7.04742e-05
7.25076e-05
6.93305e-05
7.04613e-05
7.25085e-05
6.93918e-05
5.05764e-05
6.88846e-05
5.69942e-05
6.88823e-05
5.70168e-05
6.93949e-05
6.94077e-05
5.70215e-05
6.89033e-05
5.06201e-05
5.70237e-05
6.89004e-05
6.94118e-05
7.04967e-05
6.93433e-05
7.25023e-05
7.24964e-05
7.04839e-05
7.04827e-05
7.24971e-05
6.93425e-05
7.24816e-05
7.04959e-05
6.94113e-05
5.06166e-05
5.70245e-05
6.88999e-05
5.7022e-05
6.89026e-05
6.94071e-05
6.94081e-05
6.89053e-05
5.69453e-05
5.06213e-05
6.89026e-05
5.69613e-05
6.94124e-05
7.04964e-05
6.9314e-05
7.24742e-05
7.24787e-05
7.04828e-05
7.04848e-05
7.24962e-05
6.93135e-05
7.2471e-05
7.0499e-05
6.94109e-05
5.06176e-05
6.8902e-05
5.69479e-05
6.89047e-05
5.69461e-05
6.94063e-05
6.94123e-05
5.70232e-05
6.8901e-05
5.06176e-05
6.94082e-05
5.70207e-05
6.89038e-05
7.04806e-05
6.93432e-05
7.24675e-05
7.24563e-05
7.0494e-05
7.04946e-05
7.24869e-05
6.93443e-05
7.04821e-05
7.2474e-05
6.94085e-05
5.06211e-05
5.702e-05
6.89043e-05
5.70224e-05
6.89016e-05
6.94127e-05
6.94139e-05
6.89031e-05
5.69983e-05
5.06204e-05
6.94098e-05
6.89058e-05
5.69731e-05
7.04902e-05
6.93165e-05
7.25192e-05
7.25112e-05
7.05039e-05
7.05015e-05
7.24964e-05
6.93167e-05
7.04876e-05
7.24954e-05
6.9411e-05
5.0624e-05
6.89064e-05
5.69932e-05
6.89037e-05
5.70088e-05
6.9415e-05
8.58733e-05
7.20646e-05
7.20716e-05
7.20525e-05
7.20596e-05
8.58891e-05
5.45478e-05
3.72376e-05
5.75123e-05
6.79697e-05
6.79741e-05
3.72323e-05
5.46041e-05
5.44018e-05
3.7223e-05
5.75047e-05
6.7963e-05
3.72176e-05
6.7966e-05
5.44356e-05
5.45474e-05
6.79763e-05
5.75171e-05
3.72334e-05
6.79734e-05
3.72386e-05
5.45092e-05
5.44661e-05
6.79687e-05
5.75335e-05
3.72202e-05
3.72254e-05
6.79655e-05
5.44698e-05
8.5877e-05
7.20513e-05
7.20585e-05
7.20638e-05
7.2071e-05
8.58747e-05
6.92318e-05
6.92256e-05
6.92278e-05
6.9235e-05
8.58851e-05
7.20529e-05
7.20597e-05
8.58969e-05
7.2064e-05
7.20707e-05
5.45678e-05
3.72385e-05
5.75508e-05
6.7979e-05
3.72415e-05
6.79769e-05
5.45588e-05
5.44471e-05
3.72147e-05
5.75112e-05
6.79664e-05
6.79655e-05
3.72234e-05
5.44275e-05
5.45582e-05
6.79757e-05
3.72402e-05
5.75457e-05
3.72352e-05
5.45629e-05
6.79787e-05
5.4449e-05
6.79669e-05
3.72262e-05
5.75424e-05
5.44787e-05
6.79687e-05
3.72192e-05
8.58916e-05
7.20621e-05
7.20685e-05
7.20515e-05
7.2058e-05
8.58863e-05
6.92303e-05
6.92377e-05
6.93967e-05
5.70307e-05
6.88942e-05
5.06174e-05
5.70321e-05
6.88916e-05
6.94006e-05
7.04866e-05
6.93346e-05
7.25368e-05
7.25391e-05
7.0474e-05
7.04741e-05
7.254e-05
6.93347e-05
7.2537e-05
7.04869e-05
6.94001e-05
5.06142e-05
5.70324e-05
6.88915e-05
5.7031e-05
6.8894e-05
6.93961e-05
6.93941e-05
5.70236e-05
6.88933e-05
5.06141e-05
5.7027e-05
6.88904e-05
6.93982e-05
7.04844e-05
6.93087e-05
7.25272e-05
7.25203e-05
7.04729e-05
7.04698e-05
7.24977e-05
6.93068e-05
7.25026e-05
7.04807e-05
6.93977e-05
5.06106e-05
5.70287e-05
6.889e-05
5.70258e-05
6.88927e-05
6.93936e-05
6.94011e-05
5.70318e-05
6.88918e-05
5.06142e-05
6.93972e-05
5.70304e-05
6.88944e-05
7.0475e-05
6.93372e-05
7.25311e-05
7.25231e-05
7.04875e-05
7.04877e-05
7.25389e-05
6.9338e-05
7.04748e-05
7.25422e-05
6.93976e-05
5.06174e-05
5.70298e-05
6.88946e-05
5.70315e-05
6.8892e-05
6.94015e-05
6.93985e-05
5.70247e-05
6.88909e-05
5.06104e-05
6.93945e-05
5.70217e-05
6.88937e-05
7.04643e-05
6.93032e-05
7.24895e-05
7.24867e-05
7.04767e-05
7.04779e-05
7.24895e-05
6.93056e-05
7.04663e-05
7.2491e-05
6.93947e-05
5.06139e-05
5.70204e-05
6.88941e-05
5.7023e-05
6.88914e-05
6.93986e-05
6.91712e-05
6.91628e-05
6.91668e-05
6.91591e-05
8.58771e-05
7.20467e-05
7.20478e-05
8.5862e-05
7.20578e-05
7.20599e-05
5.43872e-05
3.71291e-05
5.73638e-05
6.78984e-05
5.43863e-05
3.714e-05
6.78982e-05
5.45831e-05
3.71981e-05
5.7411e-05
6.79435e-05
5.45728e-05
3.72008e-05
6.79405e-05
5.43785e-05
6.79042e-05
3.71482e-05
5.74125e-05
5.43833e-05
3.71378e-05
6.79042e-05
5.45593e-05
6.79382e-05
3.71939e-05
5.74365e-05
5.45236e-05
3.7191e-05
6.79416e-05
8.58652e-05
7.20561e-05
7.20601e-05
8.58718e-05
7.20451e-05
7.20481e-05
6.91586e-05
6.91685e-05
6.91625e-05
6.91697e-05
6.92328e-05
6.9237e-05
5.45692e-05
3.72611e-05
6.79793e-05
5.75448e-05
5.45881e-05
6.79825e-05
3.72584e-05
5.45918e-05
3.72825e-05
6.79962e-05
5.75659e-05
5.46185e-05
6.80022e-05
3.72806e-05
8.59238e-05
7.20893e-05
7.2084e-05
8.59384e-05
7.21011e-05
7.20957e-05
7.05113e-05
7.25163e-05
6.93521e-05
7.04999e-05
7.25015e-05
6.93944e-05
4.99946e-05
6.88242e-05
5.6783e-05
6.88271e-05
6.93922e-05
5.67737e-05
5.45193e-05
3.72949e-05
6.80022e-05
5.75554e-05
6.80043e-05
5.45901e-05
3.72873e-05
5.43113e-05
3.719e-05
6.79541e-05
5.7534e-05
3.71827e-05
5.43323e-05
6.79557e-05
8.58794e-05
7.20692e-05
7.20636e-05
7.20807e-05
8.58984e-05
7.20752e-05
7.04748e-05
7.25085e-05
6.93297e-05
7.04624e-05
7.25093e-05
6.93926e-05
5.05699e-05
6.88818e-05
5.69906e-05
6.88838e-05
6.93904e-05
5.69415e-05
6.94087e-05
5.06213e-05
6.89047e-05
5.69627e-05
6.89022e-05
7.04951e-05
7.24782e-05
6.93455e-05
7.24815e-05
7.04812e-05
6.94132e-05
5.06185e-05
5.70218e-05
6.8902e-05
5.70196e-05
6.9409e-05
6.89046e-05
7.04826e-05
6.94092e-05
5.06217e-05
6.89062e-05
5.69035e-05
6.89043e-05
5.69587e-05
6.94106e-05
7.05042e-05
7.25012e-05
6.93186e-05
7.04914e-05
7.25105e-05
6.94142e-05
5.06204e-05
6.89041e-05
5.69986e-05
6.94114e-05
6.89067e-05
5.69677e-05
7.0491e-05
7.24935e-05
6.9317e-05
7.24885e-05
7.05034e-05
5.45569e-05
3.71749e-05
6.79766e-05
5.75513e-05
6.79786e-05
5.45647e-05
3.70494e-05
5.44095e-05
3.72176e-05
6.79631e-05
5.75416e-05
3.72087e-05
5.44234e-05
6.79642e-05
8.58855e-05
7.20494e-05
7.20556e-05
7.20603e-05
8.58861e-05
7.20665e-05
6.92405e-05
6.93981e-05
5.06174e-05
5.6983e-05
6.88947e-05
5.70309e-05
6.88922e-05
6.94005e-05
7.0487e-05
7.25238e-05
6.93387e-05
7.25305e-05
7.04746e-05
6.94018e-05
5.06141e-05
5.70309e-05
6.88922e-05
5.70295e-05
6.9398e-05
6.88947e-05
7.04738e-05
7.25265e-05
7.25241e-05
7.04858e-05
6.93949e-05
5.0614e-05
5.70216e-05
6.88942e-05
5.70226e-05
6.88917e-05
6.93987e-05
7.04766e-05
7.24874e-05
6.93031e-05
7.04638e-05
7.24794e-05
6.93988e-05
5.06104e-05
5.70221e-05
6.88916e-05
6.93948e-05
5.70204e-05
6.88942e-05
7.04644e-05
7.24963e-05
6.93017e-05
7.24937e-05
7.04776e-05
6.91624e-05
6.91539e-05
6.9174e-05
6.91671e-05
1.40532e-05
1.40533e-05
1.41118e-05
1.40532e-05
1.40535e-05
1.42543e-05
1.42534e-05
3.56063e-05
2.38205e-05
2.38282e-05
1.75992e-05
2.38055e-05
2.38134e-05
3.56162e-05
1.40544e-05
1.40544e-05
1.42568e-05
1.42549e-05
3.56054e-05
2.38244e-05
2.38395e-05
1.76067e-05
3.56163e-05
2.38075e-05
2.38245e-05
3.56313e-05
2.38442e-05
2.38472e-05
1.76145e-05
2.38321e-05
2.38357e-05
3.56354e-05
3.56802e-05
1.76443e-05
2.38572e-05
2.38633e-05
2.3869e-05
2.38751e-05
3.56748e-05
3.56242e-05
2.38729e-05
2.38537e-05
1.76038e-05
2.38383e-05
2.38586e-05
3.56339e-05
3.5638e-05
1.7637e-05
2.38674e-05
2.38414e-05
2.38826e-05
2.38574e-05
3.56232e-05
3.56214e-05
2.38531e-05
2.38539e-05
1.76196e-05
2.38396e-05
2.38389e-05
3.56333e-05
3.56248e-05
1.76209e-05
2.3844e-05
2.38436e-05
2.38598e-05
2.38599e-05
3.5609e-05
3.56147e-05
1.76216e-05
2.38086e-05
2.38222e-05
3.56038e-05
2.38244e-05
2.38367e-05
3.56865e-05
2.38765e-05
2.38828e-05
1.76306e-05
3.56926e-05
2.38642e-05
2.38705e-05
3.56176e-05
2.38834e-05
2.38568e-05
1.76304e-05
2.38406e-05
3.56323e-05
2.38677e-05
3.56009e-05
2.38576e-05
2.38585e-05
1.76097e-05
2.38416e-05
3.56162e-05
2.38381e-05
1.40541e-05
1.40543e-05
1.41144e-05
1.40543e-05
1.40544e-05
1.42542e-05
1.42535e-05
1.40536e-05
1.40548e-05
1.4114e-05
1.40537e-05
1.40547e-05
1.42541e-05
1.42536e-05
1.40536e-05
1.40538e-05
1.41107e-05
1.40538e-05
1.40538e-05
1.42537e-05
1.4253e-05
1.41124e-05
1.40541e-05
1.40542e-05
1.40535e-05
1.40538e-05
1.42543e-05
1.42546e-05
1.41147e-05
1.40548e-05
1.40546e-05
1.40545e-05
1.40545e-05
1.42543e-05
1.42544e-05
1.4114e-05
1.40539e-05
1.40549e-05
1.40537e-05
1.40548e-05
1.4254e-05
1.42541e-05
1.4111e-05
1.4054e-05
1.4054e-05
1.40539e-05
1.40538e-05
1.4254e-05
1.42541e-05
1.90879e-05
3.16499e-05
1.76114e-05
2.77576e-05
3.16588e-05
1.76204e-05
1.9071e-05
2.1834e-05
2.67862e-05
4.38359e-05
3.79828e-05
2.67722e-05
3.79704e-05
2.18507e-05
2.1852e-05
3.79721e-05
4.38435e-05
2.67739e-05
2.67876e-05
3.79838e-05
2.18353e-05
1.90698e-05
2.77485e-05
3.16574e-05
1.76195e-05
3.1648e-05
1.76103e-05
1.90864e-05
1.90804e-05
1.76074e-05
3.16345e-05
2.77482e-05
1.76169e-05
3.16435e-05
1.9063e-05
2.18238e-05
2.6786e-05
4.38273e-05
3.79644e-05
2.67729e-05
3.79527e-05
2.18404e-05
2.18416e-05
3.79544e-05
4.38356e-05
2.67762e-05
2.6789e-05
3.79656e-05
2.1825e-05
1.90627e-05
2.77397e-05
1.76171e-05
3.1643e-05
1.76073e-05
3.16335e-05
1.90797e-05
3.56164e-05
1.76173e-05
2.38076e-05
2.38166e-05
2.38227e-05
2.38311e-05
3.5604e-05
1.40553e-05
1.40555e-05
1.40552e-05
1.42557e-05
1.42546e-05
1.40548e-05
1.40557e-05
1.40557e-05
1.42556e-05
1.42546e-05
1.40545e-05
1.40547e-05
1.41121e-05
1.40548e-05
1.40547e-05
1.4256e-05
1.42543e-05
1.90929e-05
2.77623e-05
3.1654e-05
1.76153e-05
3.16636e-05
1.76243e-05
1.90758e-05
2.184e-05
2.67911e-05
3.79877e-05
4.38449e-05
2.18568e-05
2.67767e-05
3.79756e-05
1.90749e-05
2.77532e-05
3.16633e-05
1.76235e-05
1.90916e-05
3.16539e-05
1.76142e-05
1.90818e-05
2.77478e-05
1.76071e-05
3.16351e-05
1.76166e-05
3.16457e-05
1.90642e-05
2.18296e-05
2.67951e-05
3.79707e-05
4.38395e-05
2.18463e-05
2.67807e-05
3.79591e-05
1.90643e-05
2.77393e-05
1.76168e-05
3.16454e-05
1.90814e-05
1.7607e-05
3.16357e-05
2.18469e-05
3.7961e-05
3.79723e-05
2.18302e-05
3.5617e-05
1.76225e-05
2.38066e-05
2.3827e-05
2.38232e-05
2.38419e-05
3.56053e-05
3.565e-05
1.76325e-05
2.38406e-05
2.38454e-05
3.56455e-05
2.38523e-05
2.38566e-05
3.56611e-05
1.76246e-05
2.38604e-05
2.38658e-05
3.56651e-05
2.38488e-05
2.38544e-05
1.89152e-05
3.09604e-05
1.75165e-05
2.73746e-05
3.09654e-05
1.75273e-05
1.88966e-05
2.17791e-05
2.67741e-05
4.38113e-05
3.78481e-05
3.78332e-05
2.67611e-05
2.17964e-05
2.17958e-05
3.78291e-05
4.38184e-05
2.67649e-05
3.78436e-05
2.67774e-05
2.17782e-05
1.89002e-05
2.73628e-05
3.09524e-05
1.75289e-05
3.09506e-05
1.75184e-05
1.89193e-05
1.90864e-05
3.16297e-05
1.758e-05
2.76009e-05
3.16378e-05
1.75899e-05
1.90693e-05
2.18434e-05
2.68117e-05
4.38432e-05
3.79894e-05
3.79783e-05
2.67988e-05
2.186e-05
2.18622e-05
3.79814e-05
4.38509e-05
2.68025e-05
3.7992e-05
2.18456e-05
2.68153e-05
1.90682e-05
2.75948e-05
3.16367e-05
1.75911e-05
3.16276e-05
1.75809e-05
1.90849e-05
1.88944e-05
3.09733e-05
1.7525e-05
2.73685e-05
1.89122e-05
3.09657e-05
1.7514e-05
2.17951e-05
2.67726e-05
4.38214e-05
3.78241e-05
2.6785e-05
3.78373e-05
2.17779e-05
2.1778e-05
3.78395e-05
2.67808e-05
4.38139e-05
2.67684e-05
2.17952e-05
3.78256e-05
1.89103e-05
2.73757e-05
3.09715e-05
1.75118e-05
3.098e-05
1.75226e-05
1.8893e-05
1.90707e-05
3.16391e-05
1.75889e-05
2.75912e-05
1.90875e-05
3.16301e-05
1.75791e-05
2.18672e-05
2.68081e-05
4.38541e-05
3.79878e-05
3.79986e-05
2.68214e-05
2.18504e-05
2.18481e-05
3.79949e-05
2.68183e-05
4.38467e-05
2.18648e-05
3.79845e-05
2.68054e-05
1.90882e-05
2.76003e-05
3.16303e-05
1.75789e-05
3.164e-05
1.75884e-05
1.90714e-05
3.56369e-05
1.76237e-05
2.38626e-05
2.38401e-05
2.38553e-05
2.38768e-05
3.56271e-05
3.56281e-05
1.76193e-05
2.38799e-05
2.38564e-05
2.38653e-05
3.56403e-05
2.38409e-05
1.90076e-05
3.13914e-05
1.75669e-05
2.76414e-05
3.1403e-05
1.75759e-05
1.89905e-05
2.1795e-05
2.67801e-05
4.38234e-05
3.79104e-05
3.78986e-05
2.67681e-05
2.18115e-05
2.18135e-05
3.79001e-05
4.38311e-05
2.67738e-05
3.7912e-05
2.67854e-05
2.1797e-05
1.89898e-05
2.76327e-05
3.14073e-05
1.75749e-05
3.13957e-05
1.75658e-05
1.90064e-05
1.90747e-05
1.75914e-05
3.16321e-05
2.7721e-05
1.76004e-05
3.16409e-05
1.90576e-05
2.18236e-05
2.67886e-05
4.38316e-05
3.79642e-05
3.79529e-05
2.67757e-05
2.18401e-05
2.18416e-05
3.79552e-05
4.38394e-05
2.6779e-05
3.79662e-05
2.18252e-05
2.67917e-05
1.90568e-05
2.77121e-05
1.75997e-05
3.16399e-05
1.75904e-05
3.16307e-05
1.90734e-05
1.89911e-05
3.13984e-05
1.75764e-05
2.76326e-05
1.90082e-05
3.13854e-05
1.75673e-05
2.18179e-05
2.67841e-05
4.38368e-05
3.78974e-05
2.6796e-05
3.79106e-05
2.18011e-05
2.17993e-05
3.79118e-05
2.67905e-05
4.38288e-05
2.67789e-05
2.18159e-05
3.78987e-05
1.90079e-05
2.76406e-05
3.13791e-05
1.75679e-05
3.13917e-05
1.75772e-05
1.89908e-05
1.90587e-05
1.76009e-05
3.16416e-05
2.77137e-05
1.90755e-05
1.75918e-05
3.16328e-05
2.18454e-05
2.67838e-05
4.38452e-05
3.79592e-05
3.79702e-05
2.6797e-05
2.18287e-05
2.18271e-05
3.7968e-05
2.67943e-05
4.38375e-05
2.18436e-05
3.7957e-05
2.67814e-05
1.90759e-05
2.77224e-05
1.75925e-05
3.16331e-05
1.76017e-05
3.16428e-05
1.90591e-05
1.90833e-05
1.76119e-05
3.16458e-05
2.77599e-05
1.76209e-05
3.16541e-05
1.90664e-05
2.18125e-05
2.6739e-05
4.37782e-05
3.79583e-05
2.67249e-05
3.79464e-05
2.18292e-05
2.18303e-05
3.79488e-05
4.37844e-05
2.67255e-05
2.67397e-05
3.796e-05
2.18136e-05
1.90653e-05
2.7751e-05
1.76201e-05
3.16513e-05
1.76109e-05
3.16429e-05
1.90819e-05
1.90724e-05
3.16598e-05
1.76211e-05
2.77508e-05
1.90891e-05
3.16509e-05
1.76121e-05
2.18554e-05
2.67761e-05
4.3848e-05
3.79741e-05
2.18386e-05
2.679e-05
3.7986e-05
2.1837e-05
3.79848e-05
2.67885e-05
4.38401e-05
2.18538e-05
2.67747e-05
3.79728e-05
1.909e-05
2.77599e-05
3.16528e-05
1.76134e-05
1.90735e-05
3.16616e-05
1.76223e-05
1.90678e-05
1.76215e-05
3.16564e-05
2.77533e-05
1.90845e-05
1.76125e-05
3.1648e-05
2.18332e-05
2.67245e-05
4.37812e-05
3.79532e-05
3.79647e-05
2.67392e-05
2.18162e-05
2.18151e-05
3.79621e-05
2.67395e-05
4.37761e-05
2.18318e-05
3.79507e-05
2.67251e-05
1.90852e-05
2.77622e-05
1.76135e-05
3.16497e-05
1.76225e-05
3.1659e-05
1.90686e-05
3.56321e-05
1.76129e-05
2.38419e-05
2.38425e-05
2.38573e-05
2.38566e-05
3.56199e-05
3.56164e-05
1.76002e-05
2.38586e-05
2.3859e-05
2.38433e-05
3.56304e-05
2.38436e-05
1.90681e-05
1.76038e-05
3.16217e-05
2.77445e-05
1.76133e-05
3.16314e-05
1.90505e-05
2.17966e-05
2.67401e-05
4.37712e-05
3.79412e-05
2.6726e-05
3.79279e-05
2.18134e-05
2.18137e-05
3.79263e-05
4.37775e-05
2.67277e-05
2.67412e-05
3.79395e-05
2.17968e-05
1.90506e-05
2.77361e-05
1.76136e-05
3.16317e-05
1.76038e-05
3.16216e-05
1.90678e-05
1.90637e-05
1.76165e-05
3.16436e-05
2.77393e-05
1.90807e-05
1.76071e-05
3.16346e-05
2.18451e-05
2.67801e-05
4.38421e-05
3.79576e-05
2.18283e-05
2.67937e-05
3.79689e-05
2.18268e-05
3.79669e-05
2.67913e-05
4.38344e-05
2.18434e-05
2.67782e-05
3.79558e-05
1.90807e-05
2.77478e-05
1.76073e-05
3.16355e-05
1.90638e-05
1.76167e-05
3.16446e-05
1.90508e-05
1.76129e-05
3.16308e-05
2.77354e-05
1.9068e-05
1.76034e-05
3.16212e-05
2.18154e-05
2.67319e-05
4.37783e-05
3.79241e-05
3.79367e-05
2.6745e-05
2.17985e-05
2.17976e-05
3.79375e-05
2.67426e-05
4.37716e-05
2.18145e-05
3.79245e-05
2.67293e-05
1.90678e-05
2.77439e-05
1.76036e-05
3.16214e-05
1.76131e-05
3.1631e-05
1.90508e-05
3.56031e-05
1.76061e-05
2.38236e-05
2.38335e-05
3.56146e-05
2.38082e-05
2.3819e-05
2.17781e-05
2.67886e-05
3.78356e-05
4.38176e-05
3.78219e-05
2.17951e-05
2.67761e-05
1.8891e-05
2.73618e-05
3.09809e-05
1.75202e-05
3.09184e-05
1.89093e-05
1.75092e-05
2.18523e-05
2.68232e-05
3.80007e-05
4.3849e-05
2.1869e-05
3.79889e-05
2.68097e-05
1.90724e-05
2.7595e-05
3.16381e-05
1.75879e-05
1.90894e-05
3.16274e-05
1.75783e-05
2.18025e-05
2.68003e-05
3.79084e-05
4.38345e-05
3.78949e-05
2.18193e-05
2.67881e-05
1.89906e-05
2.76301e-05
3.13857e-05
1.75772e-05
3.13736e-05
1.9008e-05
1.75678e-05
2.18299e-05
2.67969e-05
3.79717e-05
4.38425e-05
2.18465e-05
3.79602e-05
2.67804e-05
1.90598e-05
2.77141e-05
1.76019e-05
3.16418e-05
1.90768e-05
1.75926e-05
3.16313e-05
1.90875e-05
2.77641e-05
1.7615e-05
3.16464e-05
1.76241e-05
3.16579e-05
1.90702e-05
2.18172e-05
2.67377e-05
3.79659e-05
4.37713e-05
2.67227e-05
2.1834e-05
3.79541e-05
1.90697e-05
2.77552e-05
1.76231e-05
3.16592e-05
1.7614e-05
1.90865e-05
3.1649e-05
2.18342e-05
3.79547e-05
4.37772e-05
2.67214e-05
2.67365e-05
3.79668e-05
2.18173e-05
1.9069e-05
2.77438e-05
1.76036e-05
3.16221e-05
1.7613e-05
3.16314e-05
1.90516e-05
2.17993e-05
2.67471e-05
3.7936e-05
4.37742e-05
2.67342e-05
2.18162e-05
3.79238e-05
1.90513e-05
2.77351e-05
1.76128e-05
3.16306e-05
1.76034e-05
1.90684e-05
3.16212e-05
2.18168e-05
3.79252e-05
4.37816e-05
2.67373e-05
2.67502e-05
3.7937e-05
2.18002e-05
1.57063e-05
1.75965e-05
1.57018e-05
6.93263e-05
4.38363e-05
6.92421e-05
5.75471e-05
5.74905e-05
6.92367e-05
4.38367e-05
6.93388e-05
7.04461e-05
6.93247e-05
7.24707e-05
7.24665e-05
7.04582e-05
6.92333e-05
5.45162e-05
3.72168e-05
5.75563e-05
6.7974e-05
3.72066e-05
6.7968e-05
5.45252e-05
5.4453e-05
3.67877e-05
5.74991e-05
6.7955e-05
6.79532e-05
3.67806e-05
5.43708e-05
8.58105e-05
7.20681e-05
7.20719e-05
7.20531e-05
7.20569e-05
8.58263e-05
6.9229e-05
7.04849e-05
6.9339e-05
7.25108e-05
7.25056e-05
7.04984e-05
3.56017e-05
1.76113e-05
2.38332e-05
2.37409e-05
2.38451e-05
2.37518e-05
3.55963e-05
2.18312e-05
2.67788e-05
4.38421e-05
3.79305e-05
3.7942e-05
2.6791e-05
2.18144e-05
2.18369e-05
2.66846e-05
4.38428e-05
3.79716e-05
2.66958e-05
3.79828e-05
2.18201e-05
1.41134e-05
1.57029e-05
1.56993e-05
1.76163e-05
1.41144e-05
1.57099e-05
1.57035e-05
1.75749e-05
1.41144e-05
1.57177e-05
1.5707e-05
1.76041e-05
1.41144e-05
1.57226e-05
1.5707e-05
1.75924e-05
1.41143e-05
1.57205e-05
1.57055e-05
1.75593e-05
1.41144e-05
1.57166e-05
1.57042e-05
1.75409e-05
1.41142e-05
1.57103e-05
1.57017e-05
1.753e-05
1.41136e-05
1.57048e-05
1.56973e-05
1.74904e-05
1.41121e-05
1.5701e-05
1.56923e-05
1.74929e-05
1.41106e-05
1.56985e-05
1.56874e-05
1.74992e-05
1.41089e-05
1.56955e-05
1.56816e-05
1.74943e-05
1.41078e-05
1.56927e-05
1.56768e-05
1.7495e-05
1.41082e-05
1.56919e-05
1.56744e-05
1.74916e-05
1.41084e-05
1.56921e-05
1.56748e-05
1.75079e-05
1.41086e-05
1.56928e-05
1.56776e-05
1.75207e-05
1.41076e-05
1.56923e-05
1.56822e-05
1.7539e-05
1.41049e-05
1.56905e-05
1.56864e-05
1.75533e-05
1.41021e-05
1.56884e-05
1.56888e-05
1.75606e-05
1.41001e-05
1.56871e-05
1.56894e-05
1.75215e-05
1.40983e-05
1.56866e-05
1.56894e-05
1.75463e-05
1.40984e-05
1.56865e-05
1.56895e-05
1.75611e-05
1.41001e-05
1.5689e-05
1.56905e-05
1.75662e-05
1.4103e-05
1.56943e-05
1.56937e-05
1.75741e-05
1.41059e-05
1.57008e-05