/*--------------------------------*- C++ -*----------------------------------*\
| =========                 |                                                 |
| \\      /  F ield         | OpenFOAM: The Open Source CFD Toolbox           |
|  \\    /   O peration     | Version:  2312                                  |
|   \\  /    A nd           | Website:  www.openfoam.com                      |
|    \\/     M anipulation  |                                                 |
\*---------------------------------------------------------------------------*/
FoamFile
{
    version     2.0;
    format      ascii;
    arch        "LSB;label=32;scalar=64";
    class       volScalarField;
    location    "100";
    object      nut;
}
// * * * * * * * * * * * * * * * * * * * * * * * * * * * * * * * * * * * * * //

dimensions      [0 2 -1 0 0 0 0];

internalField   nonuniform List<scalar> 
43496
(
6.61115e-05
2.35515e-05
0.000100977
6.44057e-05
6.52119e-05
0.000124402
6.6386e-05
4.93148e-05
6.53529e-05
0.000100922
0.000124333
6.44e-05
8.25736e-05
5.95576e-05
5.95986e-05
2.35545e-05
4.93244e-05
3.60298e-05
6.61782e-05
6.6958e-05
4.02404e-05
6.69737e-05
4.02401e-05
3.60299e-05
2.01291e-05
6.67942e-05
6.67671e-05
2.01305e-05
2.35502e-05
3.60769e-05
6.64433e-05
4.0254e-05
6.78639e-05
4.02536e-05
6.79368e-05
3.60767e-05
2.01386e-05
6.69551e-05
4.93176e-05
6.69568e-05
2.01402e-05
6.92661e-05
2.14897e-05
2.14929e-05
2.14879e-05
2.14911e-05
6.92974e-05
7.09433e-05
4.68878e-05
5.9576e-05
6.85414e-05
4.68872e-05
6.86435e-05
7.09186e-05
7.07904e-05
4.68972e-05
5.95879e-05
6.89771e-05
6.89791e-05
4.68968e-05
7.08023e-05
2.35529e-05
4.93237e-05
0.0001704
0.000147258
0.000170347
6.43955e-05
6.8084e-05
6.80859e-05
7.3192e-05
6.52174e-05
6.60252e-05
7.62024e-05
6.60309e-05
7.6158e-05
7.32399e-05
6.88145e-05
6.59228e-05
6.59334e-05
6.88393e-05
7.32406e-05
6.53566e-05
7.62037e-05
6.64475e-05
7.61592e-05
6.64552e-05
7.32886e-05
6.88613e-05
6.60574e-05
6.43907e-05
6.8045e-05
6.60661e-05
6.88759e-05
6.8057e-05
7.15022e-05
8.26325e-05
7.213e-05
7.21677e-05
7.21722e-05
7.21447e-05
7.15013e-05
0.000147285
0.000100933
0.000100949
8.27267e-05
0.000147295
0.000100951
0.000100963
8.26951e-05
8.27742e-05
8.29231e-05
0.0001009
0.000100869
0.000100912
0.000100893
8.25726e-05
8.28262e-05
0.000100916
0.000100882
0.000100929
0.000100915
0.000100917
0.00010095
0.000100946
8.27755e-05
8.27345e-05
0.00010094
0.000100968
0.00010097
8.2864e-05
8.28025e-05
0.000100926
0.000100898
8.27526e-05
0.000100958
0.000100912
0.000100941
8.26901e-05
0.000100957
6.47964e-05
4.93152e-05
4.93154e-05
6.47749e-05
2.35525e-05
2.35545e-05
6.62222e-05
4.93046e-05
4.93125e-05
6.62263e-05
0.000147255
0.000147279
0.000147288
0.000147265
0.000147245
0.000147242
0.000147263
6.54401e-05
6.43854e-05
0.000124349
0.000100944
6.43997e-05
0.00012435
6.54341e-05
2.35487e-05
2.35504e-05
6.54182e-05
0.000124366
6.43745e-05
0.000100961
0.000124367
6.43913e-05
6.54173e-05
5.93852e-05
5.94143e-05
8.28319e-05
5.94363e-05
5.94005e-05
4.93138e-05
6.47377e-05
2.35536e-05
4.93117e-05
6.61859e-05
0.00014723
0.000147263
0.000147274
6.54517e-05
6.43982e-05
0.000124354
6.54451e-05
0.00012435
2.35501e-05
6.54169e-05
0.000124371
6.4391e-05
6.5415e-05
0.000124373
5.93251e-05
5.94168e-05
8.28185e-05
5.93371e-05
5.9401e-05
2.3551e-05
2.35529e-05
2.35486e-05
2.35508e-05
5.95656e-05
5.94664e-05
8.29035e-05
5.95942e-05
5.9553e-05
2.35535e-05
2.35514e-05
2.35518e-05
2.35497e-05
8.27953e-05
5.95812e-05
5.95778e-05
5.95488e-05
5.95428e-05
6.52423e-05
4.93214e-05
4.93191e-05
6.51991e-05
6.45939e-05
6.43416e-05
0.000124408
0.000100919
6.43543e-05
0.00012441
6.44963e-05
6.50834e-05
6.43913e-05
0.000124329
0.000100896
6.44057e-05
0.00012432
6.50932e-05
6.49316e-05
4.93143e-05
4.93148e-05
6.48181e-05
6.53579e-05
4.93216e-05
4.93216e-05
6.53147e-05
6.4613e-05
0.000100924
6.43613e-05
0.000124413
6.43484e-05
0.000124412
6.46245e-05
6.50926e-05
0.000100904
6.44108e-05
0.000124323
6.43999e-05
0.000124333
6.50915e-05
5.96152e-05
5.95315e-05
8.27924e-05
5.96466e-05
5.95361e-05
2.35517e-05
2.35535e-05
2.35549e-05
2.35533e-05
8.26619e-05
5.96386e-05
5.95385e-05
5.96451e-05
5.9567e-05
2.35538e-05
2.35523e-05
6.52185e-05
6.43581e-05
0.000124399
0.000100939
6.43734e-05
0.000124393
6.5218e-05
6.64646e-05
4.93141e-05
4.93165e-05
6.64572e-05
6.53489e-05
0.00012432
6.4369e-05
0.000100901
0.000124317
6.4384e-05
6.53471e-05
6.62114e-05
4.93121e-05
4.93105e-05
6.61992e-05
6.52248e-05
0.000100951
6.43837e-05
0.00012439
6.43685e-05
0.000124396
6.52169e-05
6.64565e-05
4.93175e-05
4.93165e-05
6.64608e-05
6.53567e-05
0.000100907
0.000124322
6.43936e-05
0.000124321
6.43797e-05
6.53523e-05
6.65416e-05
4.93232e-05
4.93238e-05
6.65313e-05
6.54409e-05
0.000124337
6.42916e-05
0.000100936
0.00012434
6.42984e-05
6.54372e-05
6.65441e-05
4.93105e-05
4.93112e-05
6.65312e-05
6.54464e-05
0.000100954
6.44057e-05
0.000124351
6.43936e-05
0.000124349
6.54459e-05
6.65343e-05
4.93236e-05
4.93235e-05
6.65438e-05
6.54494e-05
0.000100946
0.000124339
6.42921e-05
0.00012434
6.42907e-05
6.54483e-05
6.65391e-05
4.93126e-05
4.93112e-05
6.65493e-05
5.94778e-05
5.95528e-05
8.26469e-05
5.94965e-05
5.95682e-05
2.3551e-05
2.35532e-05
2.35515e-05
2.35494e-05
8.25749e-05
5.95854e-05
5.95435e-05
5.95613e-05
5.95865e-05
2.35539e-05
2.3552e-05
6.54039e-05
0.000124359
6.42737e-05
0.00010096
0.000124359
6.42828e-05
6.5406e-05
6.65305e-05
4.93193e-05
4.93223e-05
6.65216e-05
6.65207e-05
4.93106e-05
4.93094e-05
6.6512e-05
6.5423e-05
0.000100968
0.000124367
6.43989e-05
0.000124366
6.43864e-05
6.54174e-05
6.54107e-05
0.000100965
0.000124361
6.42867e-05
0.00012436
6.42764e-05
6.54046e-05
6.65227e-05
4.93237e-05
4.93224e-05
6.65309e-05
6.65127e-05
4.9308e-05
4.93087e-05
6.65206e-05
2.35421e-05
2.35432e-05
2.35396e-05
2.35407e-05
8.2776e-05
5.93226e-05
5.93931e-05
5.94395e-05
5.94165e-05
2.35423e-05
2.35419e-05
2.3541e-05
2.35393e-05
2.35523e-05
2.35506e-05
5.95951e-05
5.95923e-05
4.93236e-05
6.54958e-05
6.43572e-05
0.000124422
6.46333e-05
6.44054e-05
0.000124336
6.51066e-05
5.96349e-05
5.9592e-05
2.35529e-05
6.43802e-05
0.000124387
6.52257e-05
4.93146e-05
6.64523e-05
0.000124315
6.4389e-05
6.53621e-05
6.65424e-05
4.93234e-05
6.65376e-05
6.54539e-05
0.000124341
6.4284e-05
0.000100956
6.54601e-05
0.000124344
6.42876e-05
6.64284e-05
4.93124e-05
6.65429e-05
4.93132e-05
5.95814e-05
5.95593e-05
2.35527e-05
6.54083e-05
0.000124363
6.42823e-05
0.000100985
6.54152e-05
0.000124365
6.42934e-05
6.65297e-05
4.93234e-05
6.65242e-05
6.65218e-05
4.93075e-05
6.65135e-05
4.93027e-05
2.35406e-05
2.35411e-05
2.35398e-05
2.3542e-05
3.60271e-05
4.02104e-05
6.69363e-05
6.48924e-05
4.02125e-05
6.68214e-05
3.60278e-05
2.01316e-05
4.93156e-05
6.67729e-05
6.67986e-05
2.01299e-05
2.01295e-05
6.67876e-05
4.93152e-05
6.67721e-05
2.01311e-05
3.60288e-05
6.48769e-05
4.02143e-05
6.68694e-05
4.02127e-05
6.69089e-05
3.6028e-05
2.35541e-05
2.35529e-05
3.60368e-05
6.71098e-05
4.02419e-05
6.62192e-05
6.70448e-05
4.02412e-05
3.60371e-05
2.01343e-05
4.93104e-05
6.68938e-05
6.69102e-05
2.01325e-05
2.01324e-05
6.69108e-05
4.93111e-05
6.68948e-05
2.01342e-05
3.60388e-05
6.6233e-05
6.72575e-05
4.02411e-05
6.71831e-05
4.02419e-05
3.60377e-05
2.35503e-05
2.35492e-05
6.92399e-05
2.14915e-05
2.14889e-05
2.14898e-05
2.1487e-05
6.9286e-05
7.09775e-05
6.88814e-05
5.9363e-05
4.68832e-05
6.88911e-05
4.68821e-05
7.09153e-05
7.08933e-05
6.89089e-05
5.94295e-05
4.68739e-05
6.89189e-05
4.68746e-05
7.07951e-05
7.06683e-05
4.68808e-05
5.94177e-05
6.88794e-05
6.88821e-05
4.68828e-05
7.06926e-05
7.09046e-05
4.68749e-05
5.94046e-05
6.89219e-05
6.89164e-05
4.68742e-05
7.08825e-05
6.92646e-05
2.14901e-05
2.14873e-05
2.14918e-05
2.1489e-05
6.92548e-05
2.01291e-05
6.67614e-05
4.9314e-05
2.01275e-05
6.67793e-05
3.60205e-05
6.49181e-05
4.02047e-05
6.66001e-05
3.6021e-05
4.02056e-05
6.6546e-05
2.35548e-05
2.01315e-05
6.67815e-05
4.93117e-05
2.01301e-05
6.68134e-05
3.6032e-05
6.61921e-05
6.70117e-05
4.02405e-05
3.60317e-05
6.70137e-05
4.0241e-05
2.35515e-05
6.92612e-05
2.14906e-05
2.1489e-05
2.14887e-05
2.1487e-05
6.9301e-05
7.07669e-05
6.88421e-05
4.68747e-05
5.93363e-05
7.07639e-05
6.88431e-05
4.68749e-05
7.10731e-05
6.89529e-05
4.68752e-05
5.94401e-05
7.10665e-05
6.8969e-05
4.68773e-05
6.92831e-05
2.1489e-05
2.1487e-05
6.92747e-05
2.14906e-05
2.14888e-05
7.07609e-05
4.68736e-05
5.93416e-05
6.88285e-05
6.88323e-05
4.68737e-05
7.06302e-05
7.10475e-05
4.68687e-05
5.94489e-05
6.89797e-05
6.89715e-05
4.68779e-05
7.09706e-05
2.35526e-05
2.35514e-05
2.35501e-05
2.35491e-05
6.93302e-05
2.14956e-05
2.14923e-05
2.14937e-05
2.14903e-05
6.93272e-05
7.10044e-05
6.89969e-05
5.95803e-05
4.68981e-05
4.68977e-05
6.90114e-05
7.08755e-05
7.09904e-05
6.89928e-05
5.9518e-05
4.68817e-05
4.68809e-05
6.90067e-05
7.09917e-05
7.09186e-05
4.68969e-05
5.95816e-05
6.9029e-05
4.68973e-05
7.10122e-05
6.90176e-05
7.09448e-05
4.68808e-05
5.95378e-05
6.90285e-05
4.68738e-05
7.08552e-05
6.90205e-05
6.93361e-05
2.14932e-05
2.14899e-05
2.14952e-05
2.14919e-05
6.93167e-05
2.35519e-05
2.3553e-05
2.355e-05
2.3551e-05
6.9354e-05
2.14941e-05
2.14909e-05
6.93434e-05
2.14963e-05
2.14931e-05
7.11281e-05
6.90758e-05
5.95917e-05
4.68986e-05
4.68948e-05
6.90658e-05
7.11295e-05
7.10265e-05
6.90795e-05
5.95705e-05
4.68811e-05
4.68872e-05
6.90699e-05
7.10366e-05
7.10763e-05
4.68907e-05
6.90438e-05
5.95916e-05
7.10478e-05
4.68936e-05
6.90552e-05
7.10044e-05
4.68739e-05
6.90494e-05
5.95235e-05
7.09862e-05
4.68851e-05
6.90589e-05
6.93385e-05
2.14967e-05
2.14935e-05
2.14947e-05
2.14916e-05
6.93398e-05
3.60747e-05
4.0232e-05
6.79081e-05
6.53118e-05
4.02326e-05
6.77848e-05
3.6076e-05
2.01433e-05
4.93207e-05
6.69721e-05
6.69891e-05
2.01413e-05
2.01415e-05
6.69807e-05
4.93171e-05
6.69654e-05
2.01433e-05
3.6076e-05
6.53174e-05
4.02341e-05
6.78527e-05
4.02338e-05
6.78432e-05
3.60753e-05
3.60268e-05
4.0209e-05
6.68401e-05
6.49457e-05
3.60268e-05
4.02094e-05
6.66131e-05
2.0128e-05
4.93141e-05
6.67763e-05
2.01296e-05
6.67605e-05
2.01302e-05
6.67633e-05
4.93148e-05
2.01289e-05
6.67761e-05
3.60245e-05
6.4845e-05
4.02069e-05
6.6534e-05
3.60236e-05
4.02073e-05
6.66098e-05
3.60765e-05
4.02311e-05
6.78122e-05
6.53706e-05
3.60752e-05
4.02319e-05
6.78705e-05
2.01422e-05
4.9325e-05
6.70269e-05
6.70059e-05
2.01443e-05
2.01437e-05
6.69514e-05
4.9324e-05
2.01415e-05
6.701e-05
3.60758e-05
6.53556e-05
4.0231e-05
6.78456e-05
4.02307e-05
6.78833e-05
3.60767e-05
6.92823e-05
2.14915e-05
2.1493e-05
2.14896e-05
2.14913e-05
6.93019e-05
7.09971e-05
6.90692e-05
5.96329e-05
4.68799e-05
4.68846e-05
6.90833e-05
7.09836e-05
7.08135e-05
6.89579e-05
5.95701e-05
4.68928e-05
6.89629e-05
4.68939e-05
7.07927e-05
7.09915e-05
4.68918e-05
5.96344e-05
6.90959e-05
4.68879e-05
6.90866e-05
7.09503e-05
7.07769e-05
4.68936e-05
5.95692e-05
6.89572e-05
6.89556e-05
4.68934e-05
7.08024e-05
6.92982e-05
2.14897e-05
2.14916e-05
2.14915e-05
2.14932e-05
6.9289e-05
2.35534e-05
2.35523e-05
2.35535e-05
2.35549e-05
6.92889e-05
2.14897e-05
2.14912e-05
6.92913e-05
2.14915e-05
2.14929e-05
7.11058e-05
6.91109e-05
5.96299e-05
4.6895e-05
6.91091e-05
4.68939e-05
7.10184e-05
7.06452e-05
6.89427e-05
5.95659e-05
4.68927e-05
4.68926e-05
6.8945e-05
7.06087e-05
7.11087e-05
4.68914e-05
6.9105e-05
5.96346e-05
6.91125e-05
7.11187e-05
4.68937e-05
7.06887e-05
4.6893e-05
6.89564e-05
5.95815e-05
7.08019e-05
4.68939e-05
6.89556e-05
6.93001e-05
2.14918e-05
2.14931e-05
2.14899e-05
2.14913e-05
6.9307e-05
2.35525e-05
2.35539e-05
3.60781e-05
4.02545e-05
6.81805e-05
6.64567e-05
4.02537e-05
6.81717e-05
3.6079e-05
2.01401e-05
4.93155e-05
6.69531e-05
6.69862e-05
2.01381e-05
2.01384e-05
6.69685e-05
4.93158e-05
6.69754e-05
2.01401e-05
3.60791e-05
6.64666e-05
4.02536e-05
6.81693e-05
4.02544e-05
6.818e-05
3.60781e-05
3.60365e-05
6.71179e-05
4.02411e-05
6.62123e-05
3.60353e-05
6.70567e-05
4.02417e-05
2.0131e-05
4.93117e-05
6.68274e-05
2.01324e-05
6.68055e-05
2.01333e-05
6.68458e-05
4.9312e-05
2.01322e-05
6.68102e-05
3.60334e-05
6.61981e-05
6.70019e-05
4.02414e-05
3.60334e-05
6.69322e-05
4.02409e-05
3.60789e-05
4.02537e-05
6.8173e-05
6.64645e-05
3.6078e-05
4.02545e-05
6.8182e-05
2.01384e-05
4.93167e-05
6.69946e-05
6.69487e-05
2.01404e-05
2.01403e-05
6.69741e-05
4.93172e-05
2.01384e-05
6.69859e-05
3.60779e-05
6.64543e-05
4.02545e-05
6.8137e-05
4.02538e-05
6.81723e-05
3.6079e-05
3.60829e-05
6.81998e-05
4.02596e-05
6.65324e-05
6.819e-05
4.02587e-05
3.6084e-05
2.01438e-05
4.93238e-05
6.69705e-05
6.69756e-05
2.01418e-05
2.01416e-05
6.69786e-05
4.93232e-05
6.69365e-05
2.01436e-05
3.60839e-05
6.65416e-05
6.81904e-05
4.02586e-05
6.82006e-05
4.02594e-05
3.60828e-05
3.608e-05
4.02607e-05
6.80145e-05
6.65347e-05
4.02599e-05
6.80427e-05
3.60812e-05
2.01421e-05
4.9311e-05
6.69338e-05
6.69514e-05
2.01401e-05
2.01402e-05
6.69788e-05
4.93105e-05
6.69231e-05
2.01424e-05
3.60805e-05
6.65424e-05
4.02597e-05
6.80166e-05
4.02605e-05
6.80218e-05
3.60792e-05
3.60841e-05
6.81909e-05
4.02589e-05
6.65437e-05
3.6083e-05
6.82001e-05
4.02597e-05
2.0141e-05
4.93232e-05
6.69333e-05
6.68979e-05
2.01429e-05
2.01433e-05
6.69493e-05
4.93238e-05
2.01416e-05
6.69413e-05
3.60831e-05
6.65347e-05
6.81991e-05
4.02599e-05
6.81895e-05
4.02591e-05
3.60842e-05
3.6082e-05
4.02601e-05
6.81287e-05
6.65485e-05
3.60809e-05
4.02609e-05
6.80793e-05
2.01413e-05
4.93117e-05
6.70134e-05
6.69887e-05
2.01435e-05
2.01428e-05
6.69671e-05
4.93116e-05
2.01408e-05
6.69725e-05
3.60815e-05
6.65407e-05
4.02611e-05
6.81344e-05
4.02603e-05
6.81512e-05
3.60831e-05
6.92723e-05
2.14903e-05
2.14937e-05
2.14883e-05
2.14917e-05
6.93046e-05
7.09256e-05
6.89985e-05
5.95197e-05
4.68811e-05
4.68837e-05
6.90047e-05
7.10444e-05
7.07123e-05
6.89976e-05
5.95195e-05
4.68946e-05
6.90048e-05
4.6895e-05
7.07814e-05
7.09129e-05
4.68846e-05
5.95182e-05
6.90014e-05
4.68841e-05
6.89992e-05
7.08327e-05
7.08585e-05
4.68973e-05
5.95656e-05
6.90087e-05
6.90035e-05
4.68953e-05
7.08926e-05
6.92922e-05
2.14879e-05
2.14913e-05
2.14899e-05
2.14933e-05
6.92818e-05
2.35524e-05
2.35514e-05
2.355e-05
2.35511e-05
6.92946e-05
2.14887e-05
2.14921e-05
6.93051e-05
2.14906e-05
2.14939e-05
7.09663e-05
6.91519e-05
5.95786e-05
4.68884e-05
6.90053e-05
4.68871e-05
7.09683e-05
7.08422e-05
6.89985e-05
5.95083e-05
4.68986e-05
4.6898e-05
6.90016e-05
7.08278e-05
7.09623e-05
4.6885e-05
6.90048e-05
5.95788e-05
6.90093e-05
7.09501e-05
4.68871e-05
7.08581e-05
4.68981e-05
6.90105e-05
5.95828e-05
7.09006e-05
4.68991e-05
6.90117e-05
6.92958e-05
2.14904e-05
2.14937e-05
2.14888e-05
2.14921e-05
6.92973e-05
2.35524e-05
2.35537e-05
3.60809e-05
6.82041e-05
4.02574e-05
6.65218e-05
6.81953e-05
4.02567e-05
3.6082e-05
2.01434e-05
4.93209e-05
6.70014e-05
6.70181e-05
2.01415e-05
2.01415e-05
6.70218e-05
4.93214e-05
6.70047e-05
2.01433e-05
3.60819e-05
6.65315e-05
6.81951e-05
4.02566e-05
6.82052e-05
4.02574e-05
3.60808e-05
3.60778e-05
6.8186e-05
4.02567e-05
6.65119e-05
6.81794e-05
4.02558e-05
3.60789e-05
2.01417e-05
4.93099e-05
6.69821e-05
6.6987e-05
2.01399e-05
2.01397e-05
6.6959e-05
4.93093e-05
6.69509e-05
2.01412e-05
3.60787e-05
6.6522e-05
6.81811e-05
4.02558e-05
6.81898e-05
4.02566e-05
3.60776e-05
3.60821e-05
6.8196e-05
4.02567e-05
6.65317e-05
3.60811e-05
6.8205e-05
4.02575e-05
2.01415e-05
4.9323e-05
6.70077e-05
6.69809e-05
2.01435e-05
2.01434e-05
6.70093e-05
4.93232e-05
2.01415e-05
6.7026e-05
3.60812e-05
6.65222e-05
6.82036e-05
4.02576e-05
6.81951e-05
4.02568e-05
3.60823e-05
3.6079e-05
6.81773e-05
4.0256e-05
6.65217e-05
3.60779e-05
6.81846e-05
4.02568e-05
2.01385e-05
4.9309e-05
6.69546e-05
6.69376e-05
2.01401e-05
2.01406e-05
6.69378e-05
4.93087e-05
2.01391e-05
6.69544e-05
3.60779e-05
6.65117e-05
6.81825e-05
4.0257e-05
6.81743e-05
4.02561e-05
3.6079e-05
2.35431e-05
2.35418e-05
2.35409e-05
2.35394e-05
6.92885e-05
2.14895e-05
2.1487e-05
6.92558e-05
2.14913e-05
2.14889e-05
7.07306e-05
6.88526e-05
5.93126e-05
4.68764e-05
7.07551e-05
6.88599e-05
4.68786e-05
7.09414e-05
6.89452e-05
5.93773e-05
4.68748e-05
7.09202e-05
6.89375e-05
4.68739e-05
7.07222e-05
4.68815e-05
6.88761e-05
5.94133e-05
7.07028e-05
6.88709e-05
4.68792e-05
7.09108e-05
4.68734e-05
6.89259e-05
5.94412e-05
7.08084e-05
6.89349e-05
4.68744e-05
6.92598e-05
2.14909e-05
2.14888e-05
6.92793e-05
2.14893e-05
2.1487e-05
2.35413e-05
2.35431e-05
2.35395e-05
2.35409e-05
2.3554e-05
2.35523e-05
7.10876e-05
6.90885e-05
4.69003e-05
5.95945e-05
7.11211e-05
4.69037e-05
6.90965e-05
7.09734e-05
6.90957e-05
4.68872e-05
5.9607e-05
7.10347e-05
4.68904e-05
6.91054e-05
6.93498e-05
2.14953e-05
2.14922e-05
6.93595e-05
2.14974e-05
2.14944e-05
2.01443e-05
6.6986e-05
4.9325e-05
2.01426e-05
6.69747e-05
3.6076e-05
6.54048e-05
4.0231e-05
6.77396e-05
4.0232e-05
3.60753e-05
6.77431e-05
7.07955e-05
6.91107e-05
4.68942e-05
5.95843e-05
4.68944e-05
7.09528e-05
6.91092e-05
7.05998e-05
6.89418e-05
4.68916e-05
5.95606e-05
6.89415e-05
7.06277e-05
4.6892e-05
6.92862e-05
2.14901e-05
2.14914e-05
2.1492e-05
6.93038e-05
2.14933e-05
2.01405e-05
6.6971e-05
4.93175e-05
2.01387e-05
6.69833e-05
3.60783e-05
6.64574e-05
4.02537e-05
6.81204e-05
4.02544e-05
3.60777e-05
6.80296e-05
3.6083e-05
6.65357e-05
4.02602e-05
6.80562e-05
4.02594e-05
2.01429e-05
6.69393e-05
4.93239e-05
6.6958e-05
2.0141e-05
3.60843e-05
6.65468e-05
6.81909e-05
4.02593e-05
6.82003e-05
3.60832e-05
4.02601e-05
2.01409e-05
3.60824e-05
6.65374e-05
4.0261e-05
6.80101e-05
4.02606e-05
6.80916e-05
3.6083e-05
2.01438e-05
6.6971e-05
4.93131e-05
2.01418e-05
6.70011e-05
3.60836e-05
6.65501e-05
4.02604e-05
6.81405e-05
3.60823e-05
4.02613e-05
6.81342e-05
2.01418e-05
6.69761e-05
4.9313e-05
6.69526e-05
2.01436e-05
7.09574e-05
6.89292e-05
4.68876e-05
5.95869e-05
4.68883e-05
7.09603e-05
6.86175e-05
7.07986e-05
6.89953e-05
4.68978e-05
5.95783e-05
6.89904e-05
7.08065e-05
4.68981e-05
6.9295e-05
2.14885e-05
2.14917e-05
2.149e-05
6.92868e-05
2.14933e-05
2.35542e-05
3.60815e-05
6.65231e-05
6.81247e-05
4.02577e-05
6.81965e-05
4.0257e-05
3.60826e-05
2.01434e-05
6.69849e-05
4.9324e-05
6.70067e-05
2.01416e-05
3.60824e-05
6.6533e-05
6.81961e-05
4.02569e-05
6.82047e-05
3.60814e-05
4.02577e-05
2.01416e-05
6.69987e-05
6.69842e-05
2.01434e-05
3.6078e-05
6.65126e-05
6.81901e-05
4.02572e-05
6.81744e-05
4.02564e-05
3.60791e-05
2.01398e-05
6.69397e-05
4.93075e-05
2.01382e-05
6.69337e-05
3.60791e-05
6.65226e-05
6.81746e-05
4.02563e-05
3.6078e-05
6.81837e-05
4.02571e-05
2.0138e-05
6.69605e-05
4.93076e-05
6.6946e-05
2.014e-05
2.35417e-05
2.354e-05
2.35415e-05
2.35405e-05
0.000170401
0.000170405
0.000147262
0.000170381
0.000170397
0.000189514
0.00018949
7.15038e-05
7.20924e-05
7.20949e-05
8.28259e-05
7.21082e-05
7.21107e-05
7.14963e-05
0.000170333
0.00017041
0.000189559
0.000189531
7.15116e-05
7.21096e-05
7.21229e-05
8.28451e-05
7.15072e-05
7.21215e-05
7.21377e-05
7.15689e-05
7.2132e-05
7.21293e-05
8.29011e-05
7.21497e-05
7.21483e-05
7.15504e-05
7.16508e-05
8.2821e-05
7.22018e-05
7.22045e-05
7.21929e-05
7.21953e-05
7.16723e-05
7.15549e-05
7.21748e-05
7.21551e-05
8.27232e-05
7.21656e-05
7.21872e-05
7.1549e-05
7.15574e-05
8.27171e-05
7.22035e-05
7.21709e-05
7.22009e-05
7.21697e-05
7.15588e-05
7.15497e-05
7.21466e-05
7.21604e-05
8.2893e-05
7.21738e-05
7.21598e-05
7.15496e-05
7.15348e-05
8.26296e-05
7.2166e-05
7.21761e-05
7.21626e-05
7.21762e-05
7.15355e-05
7.14967e-05
8.27326e-05
7.21161e-05
7.21265e-05
7.15075e-05
7.21145e-05
7.21224e-05
7.16896e-05
7.22191e-05
7.2222e-05
8.29109e-05
7.1679e-05
7.22271e-05
7.223e-05
7.15414e-05
7.22145e-05
7.21807e-05
8.28826e-05
7.21819e-05
7.15475e-05
7.22165e-05
7.15151e-05
7.21726e-05
7.21848e-05
8.27619e-05
7.21825e-05
7.15221e-05
7.21627e-05
0.000170373
0.000170379
0.000147233
0.000170346
0.000170372
0.000189507
0.000189492
0.000170373
0.000170392
0.000147262
0.000170365
0.000170362
0.000189491
0.000189478
0.000170374
0.000170376
0.000147249
0.000170363
0.000170369
0.000189476
0.000189461
0.000147259
0.000170406
0.000170407
0.000170393
0.000170403
0.000189515
0.000189519
0.000147241
0.000170375
0.000170374
0.00017037
0.000170377
0.000189489
0.000189493
0.000147257
0.000170353
0.000170373
0.000170361
0.000170368
0.000189487
0.000189483
0.000147267
0.000170359
0.000170373
0.000170358
0.000170371
0.000189483
0.000189482
7.32789e-05
6.65049e-05
7.62571e-05
6.54408e-05
6.65059e-05
7.62145e-05
7.3327e-05
6.89062e-05
6.80614e-05
6.43978e-05
6.60874e-05
6.80687e-05
6.60834e-05
6.8885e-05
6.88835e-05
6.60846e-05
6.43901e-05
6.80669e-05
6.80675e-05
6.60917e-05
6.89089e-05
7.33203e-05
6.54417e-05
6.64996e-05
7.62046e-05
6.65051e-05
7.62511e-05
7.32833e-05
7.32788e-05
7.62583e-05
6.64763e-05
6.54206e-05
7.62169e-05
6.64784e-05
7.33263e-05
6.89015e-05
6.80682e-05
6.43871e-05
6.60517e-05
6.80772e-05
6.60481e-05
6.88714e-05
6.88669e-05
6.60492e-05
6.43805e-05
6.80786e-05
6.80777e-05
6.60562e-05
6.89023e-05
7.3321e-05
6.54232e-05
7.62137e-05
6.64742e-05
7.62566e-05
6.64788e-05
7.32853e-05
7.15043e-05
8.27645e-05
7.21084e-05
7.21118e-05
7.21049e-05
7.21075e-05
7.15042e-05
0.000170344
0.000170385
0.000170367
0.00018948
0.0001895
0.000170397
0.000170405
0.000170365
0.00018951
0.000189502
0.000170367
0.000170393
0.000147252
0.000170367
0.000170372
0.000189473
0.000189493
7.32902e-05
6.5452e-05
6.6517e-05
7.62619e-05
6.6517e-05
7.62249e-05
7.33401e-05
6.89117e-05
6.80681e-05
6.6098e-05
6.44103e-05
6.88938e-05
6.80757e-05
6.60951e-05
7.33301e-05
6.5453e-05
6.65122e-05
7.62157e-05
7.32935e-05
6.65176e-05
7.62615e-05
7.3279e-05
6.54188e-05
7.62537e-05
6.64771e-05
7.62163e-05
6.64812e-05
7.33277e-05
6.89097e-05
6.80827e-05
6.60627e-05
6.44031e-05
6.88818e-05
6.80885e-05
6.60589e-05
7.33216e-05
6.54213e-05
7.62092e-05
6.64775e-05
7.32864e-05
7.62553e-05
6.64818e-05
6.88732e-05
6.60597e-05
6.60668e-05
6.89072e-05
7.15153e-05
8.27593e-05
7.21141e-05
7.21369e-05
7.21138e-05
7.21335e-05
7.15162e-05
7.15894e-05
8.27933e-05
7.21632e-05
7.21639e-05
7.16061e-05
7.21529e-05
7.21525e-05
7.1639e-05
8.28871e-05
7.21799e-05
7.21813e-05
7.16208e-05
7.21902e-05
7.21923e-05
7.28644e-05
6.47987e-05
7.60803e-05
6.45777e-05
6.47736e-05
7.60392e-05
7.29132e-05
6.87533e-05
6.80252e-05
6.43524e-05
6.57635e-05
6.57537e-05
6.80322e-05
6.87344e-05
6.87366e-05
6.57457e-05
6.43444e-05
6.8036e-05
6.57574e-05
6.80338e-05
6.87508e-05
7.29102e-05
6.45511e-05
6.46933e-05
7.60283e-05
6.47423e-05
7.60787e-05
7.2874e-05
7.32568e-05
6.64413e-05
7.61811e-05
6.50874e-05
6.64404e-05
7.61432e-05
7.33067e-05
6.8913e-05
6.8095e-05
6.44032e-05
6.60943e-05
6.60903e-05
6.81021e-05
6.88877e-05
6.88806e-05
6.60937e-05
6.43954e-05
6.81057e-05
6.60995e-05
6.89161e-05
6.81037e-05
7.32987e-05
6.50926e-05
6.64378e-05
7.6145e-05
6.64408e-05
7.61821e-05
7.32608e-05
7.29048e-05
6.4829e-05
7.6044e-05
6.46218e-05
7.28692e-05
6.48433e-05
7.60852e-05
6.87238e-05
6.80544e-05
6.43514e-05
6.57415e-05
6.80521e-05
6.57509e-05
6.87502e-05
6.8745e-05
6.57551e-05
6.80473e-05
6.43589e-05
6.80497e-05
6.87292e-05
6.57446e-05
7.28717e-05
6.4624e-05
6.48764e-05
7.60818e-05
6.4868e-05
7.60428e-05
7.29154e-05
7.33042e-05
6.64492e-05
7.61501e-05
6.5092e-05
7.32668e-05
6.64484e-05
7.61855e-05
6.88903e-05
6.81188e-05
6.44013e-05
6.61063e-05
6.61122e-05
6.81183e-05
6.8922e-05
6.89167e-05
6.61075e-05
6.81162e-05
6.44099e-05
6.88893e-05
6.61023e-05
6.81176e-05
7.32744e-05
6.50913e-05
6.64467e-05
7.61812e-05
6.64489e-05
7.61461e-05
7.33128e-05
7.15603e-05
8.2606e-05
7.21897e-05
7.2164e-05
7.21609e-05
7.21847e-05
7.15655e-05
7.1566e-05
8.27945e-05
7.22006e-05
7.21729e-05
7.22049e-05
7.15653e-05
7.21754e-05
7.31874e-05
6.60626e-05
7.61945e-05
6.52202e-05
6.60688e-05
7.61508e-05
7.32369e-05
6.88201e-05
6.80344e-05
6.43697e-05
6.59356e-05
6.59307e-05
6.80434e-05
6.87993e-05
6.88017e-05
6.59315e-05
6.43626e-05
6.80511e-05
6.59392e-05
6.80471e-05
6.88195e-05
7.32297e-05
6.52223e-05
6.60755e-05
7.61463e-05
6.60751e-05
7.61895e-05
7.31919e-05
7.32335e-05
7.61927e-05
6.64558e-05
6.535e-05
7.61525e-05
6.64572e-05
7.32828e-05
6.88754e-05
6.80483e-05
6.43808e-05
6.60503e-05
6.60459e-05
6.80548e-05
6.88491e-05
6.88466e-05
6.60475e-05
6.43736e-05
6.80566e-05
6.60546e-05
6.88788e-05
6.80555e-05
7.32746e-05
6.53514e-05
7.615e-05
6.64537e-05
7.6194e-05
6.64569e-05
7.32384e-05
7.3232e-05
6.60648e-05
7.61433e-05
6.5223e-05
7.31961e-05
6.60563e-05
7.61965e-05
6.88043e-05
6.80744e-05
6.43728e-05
6.59281e-05
6.80713e-05
6.59381e-05
6.88305e-05
6.88268e-05
6.59425e-05
6.80641e-05
6.43794e-05
6.80678e-05
6.88066e-05
6.59323e-05
7.31999e-05
6.52199e-05
6.60395e-05
7.61941e-05
6.60486e-05
7.6147e-05
7.32403e-05
7.3278e-05
7.61595e-05
6.64637e-05
6.53556e-05
7.32424e-05
7.61944e-05
6.64622e-05
6.88524e-05
6.80691e-05
6.43835e-05
6.60541e-05
6.60612e-05
6.8067e-05
6.88821e-05
6.88786e-05
6.60604e-05
6.80663e-05
6.43909e-05
6.885e-05
6.60533e-05
6.80669e-05
7.32486e-05
6.53538e-05
7.61971e-05
6.6459e-05
7.61553e-05
6.64622e-05
7.32874e-05
7.3258e-05
7.62503e-05
6.64847e-05
6.54414e-05
7.62087e-05
6.64845e-05
7.33076e-05
6.88526e-05
6.79714e-05
6.43001e-05
6.60411e-05
6.79766e-05
6.6036e-05
6.88313e-05
6.88355e-05
6.60384e-05
6.42904e-05
6.7975e-05
6.79756e-05
6.60448e-05
6.88597e-05
7.32979e-05
6.54421e-05
7.62024e-05
6.64763e-05
7.62441e-05
6.64817e-05
7.32612e-05
7.33243e-05
6.65121e-05
7.62106e-05
6.54469e-05
7.32873e-05
6.65112e-05
7.62619e-05
6.88796e-05
6.80699e-05
6.4396e-05
6.60891e-05
6.89127e-05
6.80711e-05
6.60967e-05
6.89079e-05
6.60967e-05
6.80733e-05
6.44038e-05
6.88837e-05
6.80725e-05
6.60889e-05
7.32956e-05
6.54465e-05
6.65114e-05
7.62589e-05
7.33337e-05
6.65123e-05
7.62135e-05
7.33046e-05
7.62052e-05
6.64959e-05
6.54496e-05
7.32682e-05
7.62571e-05
6.64959e-05
6.88287e-05
6.79769e-05
6.42861e-05
6.60478e-05
6.60547e-05
6.7979e-05
6.88626e-05
6.88587e-05
6.60521e-05
6.79825e-05
6.42982e-05
6.8833e-05
6.60452e-05
6.79811e-05
7.32762e-05
6.54489e-05
7.62553e-05
6.64974e-05
7.62102e-05
6.64984e-05
7.3315e-05
7.15525e-05
8.25912e-05
7.21579e-05
7.21722e-05
7.21697e-05
7.21555e-05
7.15529e-05
7.15452e-05
8.26742e-05
7.21665e-05
7.21807e-05
7.21684e-05
7.15477e-05
7.21824e-05
7.32382e-05
7.6241e-05
6.64368e-05
6.54063e-05
7.61958e-05
6.64393e-05
7.32868e-05
6.88323e-05
6.79675e-05
6.42836e-05
6.59972e-05
6.79724e-05
6.599e-05
6.88046e-05
6.87962e-05
6.59863e-05
6.42743e-05
6.79722e-05
6.79719e-05
6.5996e-05
6.8833e-05
7.32796e-05
6.54088e-05
7.61934e-05
6.64382e-05
7.62415e-05
6.64401e-05
7.32446e-05
7.33206e-05
7.62132e-05
6.64822e-05
6.54218e-05
7.32852e-05
7.62601e-05
6.64803e-05
6.88732e-05
6.80847e-05
6.43891e-05
6.60549e-05
6.89036e-05
6.80857e-05
6.60621e-05
6.89011e-05
6.60611e-05
6.80862e-05
6.43974e-05
6.88716e-05
6.80863e-05
6.60542e-05
7.32892e-05
6.54197e-05
7.62573e-05
6.6478e-05
7.33282e-05
7.6213e-05
6.64801e-05
7.32809e-05
7.61911e-05
6.64437e-05
6.5409e-05
7.32457e-05
7.62455e-05
6.64413e-05
6.88029e-05
6.79839e-05
6.42774e-05
6.59855e-05
6.59943e-05
6.79828e-05
6.88348e-05
6.88319e-05
6.59969e-05
6.79814e-05
6.42863e-05
6.88015e-05
6.59876e-05
6.79821e-05
7.325e-05
6.54068e-05
7.62429e-05
6.64384e-05
7.61961e-05
6.64407e-05
7.32899e-05
7.14998e-05
8.28834e-05
7.21162e-05
7.21206e-05
7.14974e-05
7.21194e-05
7.21255e-05
6.87501e-05
6.80685e-05
6.57541e-05
6.43674e-05
6.5743e-05
6.8728e-05
6.80708e-05
7.29067e-05
6.46321e-05
6.48907e-05
7.60483e-05
6.46808e-05
7.28736e-05
7.60937e-05
6.89242e-05
6.81305e-05
6.61206e-05
6.44145e-05
6.89036e-05
6.6113e-05
6.81304e-05
7.33083e-05
6.51065e-05
6.6453e-05
7.61545e-05
7.32721e-05
6.64491e-05
7.61902e-05
6.88364e-05
6.80891e-05
6.59391e-05
6.43911e-05
6.59286e-05
6.8814e-05
6.80917e-05
7.32339e-05
6.52221e-05
6.60422e-05
7.61454e-05
6.60363e-05
7.31984e-05
7.62078e-05
6.88868e-05
6.80768e-05
6.60675e-05
6.4399e-05
6.88616e-05
6.60593e-05
6.8067e-05
7.32817e-05
6.53598e-05
7.61507e-05
6.64672e-05
7.32465e-05
7.62086e-05
6.64614e-05
7.32701e-05
6.54574e-05
7.62614e-05
6.64971e-05
7.62247e-05
6.65026e-05
7.3319e-05
6.8867e-05
6.79862e-05
6.60618e-05
6.42907e-05
6.7983e-05
6.88399e-05
6.60539e-05
7.33105e-05
6.54591e-05
7.62182e-05
6.65078e-05
7.62619e-05
7.32747e-05
6.6505e-05
6.88334e-05
6.60527e-05
6.42801e-05
6.79763e-05
6.79791e-05
6.6061e-05
6.88734e-05
7.32427e-05
6.54105e-05
7.62443e-05
6.6443e-05
7.62092e-05
6.64448e-05
7.32913e-05
6.88414e-05
6.79968e-05
6.59986e-05
6.42924e-05
6.79976e-05
6.88138e-05
6.59899e-05
7.32845e-05
6.54129e-05
7.61944e-05
6.64479e-05
7.62505e-05
7.32487e-05
6.64454e-05
6.88074e-05
6.59903e-05
6.42845e-05
6.79996e-05
6.79981e-05
6.59979e-05
6.88452e-05
0.000100882
8.28399e-05
0.000100939
4.93182e-05
6.43962e-05
2.35534e-05
5.95721e-05
5.94891e-05
2.35539e-05
6.43901e-05
4.9322e-05
2.0136e-05
4.93175e-05
6.69303e-05
6.69128e-05
2.01377e-05
2.35519e-05
7.0893e-05
6.91104e-05
5.95793e-05
4.6882e-05
6.89038e-05
4.68843e-05
7.09296e-05
7.08934e-05
6.8046e-05
5.94927e-05
4.68855e-05
4.68885e-05
6.78724e-05
7.07085e-05
6.92163e-05
2.14884e-05
2.1491e-05
2.14862e-05
2.14888e-05
6.92464e-05
2.35523e-05
2.01419e-05
4.93226e-05
6.70028e-05
6.69805e-05
2.01439e-05
7.14976e-05
8.27416e-05
7.21737e-05
7.1913e-05
7.21615e-05
7.18972e-05
7.15131e-05
6.88332e-05
6.80822e-05
6.43864e-05
6.60088e-05
6.60161e-05
6.80767e-05
6.88518e-05
6.88292e-05
6.78304e-05
6.43808e-05
6.60993e-05
6.7823e-05
6.6104e-05
6.88475e-05
0.000147291
0.000100925
0.000100939
8.27612e-05
0.000147321
0.000100918
0.000100924
8.23832e-05
0.000147304
0.000100942
0.000100961
8.26423e-05
0.000147304
0.000100956
0.000100963
8.25772e-05
0.000147305
0.000100935
0.00010096
8.23528e-05
0.000147306
0.000100921
0.000100962
8.22504e-05
0.000147303
0.000100914
0.000100957
8.23157e-05
0.000147319
0.000100929
0.00010094
8.20849e-05
0.000147318
0.00010095
0.000100931
8.22102e-05
0.000147331
0.000100965
0.000100924
8.23498e-05
0.000147334
0.000100973
0.000100906
8.23776e-05
0.000147353
0.00010098
0.000100916
8.24235e-05
0.000147365
0.000101
0.000100945
8.2407e-05
0.000147367
0.000101005
0.000100976
8.25015e-05
0.000147358
0.000100988
0.000100951
8.25271e-05
0.000147312
0.000100969
0.000100943
8.25425e-05
0.000147238
0.000100942
0.000100924
8.25603e-05
0.000147167
0.000100908
0.00010091
8.2598e-05
0.000147132
0.000100886
0.000100895
8.22101e-05
0.000147118
0.000100878
0.000100888
8.24641e-05
0.000147133
0.000100889
0.000100888
8.25567e-05
0.000147163
0.000100903
0.0001009
8.26072e-05
0.000147218
0.000100908
0.000100906
8.26312e-05
0.000147257
0.000100925
0.000100927