/*--------------------------------*- C++ -*----------------------------------*\
| =========                 |                                                 |
| \\      /  F ield         | OpenFOAM: The Open Source CFD Toolbox           |
|  \\    /   O peration     | Version:  2312                                  |
|   \\  /    A nd           | Website:  www.openfoam.com                      |
|    \\/     M anipulation  |                                                 |
\*---------------------------------------------------------------------------*/
FoamFile
{
    version     2.0;
    format      ascii;
    arch        "LSB;label=32;scalar=64";
    class       volScalarField;
    location    "50";
    object      p;
}
// * * * * * * * * * * * * * * * * * * * * * * * * * * * * * * * * * * * * * //

dimensions      [0 2 -2 0 0 0 0];

internalField   nonuniform List<scalar> 
43496
(
0.000789316
0.000789294
0.000791598
0.00078939
0.000789399
0.000791606
0.000789316
0.000789309
0.0007894
0.0007916
0.000791606
0.000789386
0.000789786
0.000789311
0.000789317
0.000789302
0.000789317
0.000793922
0.000793892
0.000789313
0.000789301
0.000793894
0.000793911
0.000789301
0.000793919
0.000789301
0.000793909
0.000789296
0.000793924
0.000793932
0.000793895
0.000789304
0.000789315
0.000793916
0.000793902
0.000789309
0.000793933
0.000789302
0.000793908
0.000793921
0.000789294
0.00079394
0.000789285
0.000789285
0.000793934
0.000793935
0.000789288
0.000793879
0.00078932
0.000793903
0.000789349
0.000793907
0.000793853
0.000789336
0.00079388
0.00078932
0.000793906
0.000789351
0.000793858
0.000793906
0.000789337
0.000793921
0.000793911
0.000791616
0.000791622
0.000791615
0.000793828
0.000789493
0.000793715
0.000793631
0.000793809
0.000789401
0.000789569
0.000793806
0.000793633
0.000789567
0.000793651
0.000789399
0.000793809
0.00078955
0.000793632
0.00079381
0.00078957
0.000789396
0.000793634
0.000793807
0.000789569
0.00079365
0.0007894
0.000793823
0.000789492
0.000793816
0.000789552
0.000793711
0.000793753
0.000793405
0.000789575
0.000789575
0.000793636
0.000793634
0.000789457
0.000839449
0.000839422
0.000839422
0.00084123
0.000801189
0.000801165
0.000801162
0.000802975
0.000841232
0.00080891
0.000839422
0.00083942
0.000810727
0.000810726
0.000841231
0.000808911
0.000839422
0.000839421
0.000810728
0.00081073
0.000839421
0.000810727
0.000810728
0.00084123
0.000808914
0.000839419
0.000810727
0.000810729
0.000808914
0.00080297
0.000801164
0.000801165
0.00080297
0.000801165
0.000801163
0.000801166
0.000802977
0.000801165
0.000827579
0.000841729
0.000827586
0.000841723
0.000841744
0.000827571
0.000827583
0.000841729
0.000827586
0.000841723
0.000839448
0.000839448
0.000839447
0.000810752
0.00081075
0.000810751
0.000810748
0.000827663
0.000841652
0.000839427
0.000829856
0.000827657
0.000829862
0.000841641
0.000841743
0.000827577
0.000827664
0.000839427
0.000841654
0.000829858
0.000829863
0.000827661
0.000841639
0.000841727
0.000841727
0.000828042
0.000827581
0.000827579
0.000803469
0.000803463
0.000803479
0.000803477
0.000803466
0.000801183
0.000801183
0.000801179
0.000789404
0.000803388
0.000801169
0.000803377
0.000791608
0.000803504
0.000789408
0.000801168
0.00080339
0.000803376
0.000791607
0.000803469
0.000803466
0.000789791
0.000789321
0.000789323
0.00084174
0.000827574
0.00084174
0.000827574
0.000841727
0.000841728
0.000828043
0.000827589
0.00082759
0.000808447
0.000822615
0.00080847
0.000822612
0.000822108
0.000808457
0.000808463
0.000822595
0.000822598
0.00082758
0.000841735
0.000827584
0.000841724
0.000827664
0.000841651
0.000839427
0.000829857
0.000827657
0.000829863
0.000841639
0.000827662
0.000841651
0.000839427
0.000829855
0.000827657
0.000829862
0.000841638
0.000822589
0.000808453
0.000822599
0.00080846
0.000822588
0.000808453
0.000822594
0.00080846
0.00082251
0.000820291
0.000808526
0.000810732
0.000822517
0.000820298
0.00080853
0.000822508
0.00082029
0.000808527
0.000810732
0.000822514
0.000820297
0.00080853
0.000841728
0.00084173
0.000828041
0.000827588
0.000827588
0.000841745
0.000827573
0.000808442
0.000822609
0.000822107
0.000808457
0.000808457
0.000822591
0.000822591
0.000808443
0.000822607
0.000827667
0.000841652
0.000839426
0.000829858
0.000827661
0.000829863
0.000841639
0.000827584
0.000841733
0.000827587
0.000841724
0.000827666
0.000839426
0.000841652
0.000829858
0.000829864
0.000827661
0.00084164
0.000822592
0.000808463
0.000822598
0.000808461
0.000822512
0.000820293
0.000808526
0.000810735
0.000822522
0.0008203
0.000808536
0.000822591
0.000808461
0.000822595
0.000808463
0.000822512
0.000820295
0.000810735
0.000808525
0.0008203
0.000822519
0.000808534
0.000827581
0.000841736
0.000827585
0.000841728
0.000827663
0.000839427
0.00084165
0.000829857
0.000829863
0.000827655
0.00084164
0.000827579
0.000841734
0.000827581
0.000841728
0.000822509
0.000820292
0.000808526
0.000810732
0.000822516
0.000820297
0.000808533
0.000822587
0.000808454
0.000822593
0.000808461
0.000822509
0.000820294
0.000810734
0.000808523
0.000820298
0.000822514
0.000808532
0.000822585
0.000808449
0.000822589
0.00080846
0.000841728
0.000841729
0.000828044
0.000827591
0.000827592
0.000841743
0.000827576
0.000808458
0.000822612
0.000822109
0.000808458
0.000808457
0.000822595
0.000822595
0.00080845
0.000822611
0.000827662
0.000839426
0.000841651
0.000829857
0.000829863
0.000827652
0.000841637
0.000827584
0.000841732
0.000827588
0.000841725
0.000827581
0.000841731
0.000827577
0.000841723
0.000822508
0.000820293
0.000810732
0.000808525
0.000820298
0.000822519
0.000808531
0.000822508
0.000820293
0.000810731
0.000808521
0.000820298
0.000822514
0.000808531
0.00082259
0.000808455
0.000822596
0.000808462
0.000822588
0.000808448
0.000822585
0.000808462
0.000841742
0.000827566
0.000841736
0.000827564
0.000822108
0.000808453
0.000808451
0.000822587
0.000822585
0.000808438
0.000822601
0.000808438
0.000822594
0.000803476
0.000803492
0.000803469
0.000803472
0.000803467
0.000803461
0.000803393
0.000801171
0.000803375
0.000803389
0.00080117
0.000803377
0.000803466
0.000803465
0.000803473
0.000803393
0.000801169
0.000803387
0.000803474
0.000803461
0.000801169
0.000803385
0.000803384
0.000789318
0.000803468
0.000803456
0.000789405
0.000801169
0.000803389
0.000791605
0.000803381
0.000791608
0.000789392
0.000789319
0.000803469
0.000803458
0.000789324
0.000803466
0.000803466
0.000803489
0.000789411
0.000801169
0.000803389
0.000791606
0.000803381
0.000791609
0.000789398
0.000789321
0.000803469
0.000803457
0.00078932
0.000803463
0.000803456
0.000789321
0.000803482
0.000789313
0.000803478
0.000789303
0.000832178
0.000827564
0.000827581
0.000832151
0.000832166
0.000832156
0.000827573
0.000837112
0.000837137
0.000841737
0.000837125
0.00084174
0.00083217
0.000827578
0.000832162
0.000832176
0.000827582
0.000837127
0.000837146
0.000841741
0.000841723
0.00083713
0.000837146
0.000841735
0.000837127
0.000832171
0.000832177
0.000827583
0.000827566
0.000832153
0.000832156
0.000832168
0.000827568
0.000837106
0.000837136
0.000841737
0.000837125
0.000841735
0.000832169
0.000827575
0.000832162
0.000832174
0.00082756
0.000837126
0.000837147
0.000841723
0.00084174
0.000837147
0.000837131
0.000841733
0.000837131
0.000832177
0.000832184
0.000827552
0.000827552
0.000832177
0.000832177
0.000827547
0.000837166
0.00084168
0.00083714
0.000841723
0.000837177
0.000837153
0.000841697
0.000837165
0.000841681
0.000837142
0.000841721
0.000837173
0.000837155
0.000841697
0.000832131
0.000827585
0.000832158
0.000827612
0.000832117
0.000832151
0.000827598
0.000832131
0.000827585
0.000832158
0.00082761
0.000832112
0.000832154
0.000827597
0.000837129
0.000841747
0.000841746
0.000837127
0.000837128
0.000841751
0.000798849
0.000803481
0.000798864
0.00080346
0.000798858
0.000798863
0.000798873
0.000803483
0.000803467
0.00080348
0.000798856
0.000798871
0.000798853
0.000798867
0.000803484
0.000798873
0.000803486
0.000798869
0.000798872
0.000798887
0.000803468
0.000803483
0.00080348
0.000798887
0.000798873
0.00079889
0.000793936
0.000789289
0.000789289
0.000793917
0.000793916
0.000789291
0.000798914
0.00080342
0.000803468
0.000798887
0.000803434
0.00079892
0.000798898
0.000798914
0.000803425
0.000803464
0.000798884
0.000803436
0.000798923
0.000798896
0.000798873
0.000803502
0.0008035
0.000803492
0.000798869
0.000798868
0.000793887
0.000789326
0.000793909
0.000789352
0.000793862
0.000793901
0.00078934
0.000793886
0.000789325
0.000793906
0.000789357
0.000793869
0.000793898
0.00078934
0.000837127
0.000832174
0.000837128
0.000832174
0.000832189
0.000827564
0.000827564
0.000832182
0.000832182
0.00082756
0.000837171
0.000841681
0.000837142
0.000841723
0.000837153
0.000837179
0.000841699
0.00083717
0.000841681
0.000837142
0.000841723
0.000837153
0.000837178
0.000841699
0.000832135
0.000827595
0.000832161
0.000827615
0.000832156
0.000827605
0.000832119
0.000832136
0.000827596
0.000832162
0.000827616
0.000832156
0.000827606
0.00083212
0.000837129
0.000841746
0.000841746
0.000837121
0.000837122
0.000841752
0.000813058
0.000818011
0.000813076
0.000818008
0.000817997
0.000822628
0.000822628
0.000822622
0.000817997
0.000817998
0.000813009
0.000808483
0.000813033
0.000808468
0.00081303
0.000812986
0.000808473
0.00081301
0.000808477
0.00081304
0.000808475
0.000813034
0.000812983
0.000808474
0.000818045
0.000822591
0.000822554
0.000818016
0.00082257
0.000818025
0.000818049
0.000818046
0.000822592
0.000822558
0.000818021
0.000822571
0.000818025
0.000818054
0.000813057
0.000808439
0.000808442
0.000813056
0.000813057
0.00080843
0.000832173
0.000827565
0.000827578
0.000832152
0.000832167
0.000832152
0.000827564
0.000837126
0.000837138
0.000841743
0.000837124
0.000841766
0.000832185
0.000827569
0.000832161
0.00083217
0.000827575
0.000837128
0.000837146
0.000841745
0.000841721
0.000837132
0.000837143
0.000841743
0.000818
0.000822607
0.00082259
0.000818014
0.000822614
0.000818001
0.000818012
0.000813046
0.000813034
0.000808437
0.000808421
0.000813039
0.000817994
0.00082261
0.000818013
0.000822631
0.000817998
0.000813039
0.000813025
0.000808448
0.000808459
0.000808431
0.000813042
0.000813025
0.000817995
0.000822606
0.000822586
0.000818014
0.000822605
0.000818
0.00081801
0.000813041
0.000813038
0.000808441
0.000813042
0.000808421
0.000817987
0.000822598
0.000818012
0.000822621
0.000817991
0.000813043
0.000813027
0.00080845
0.000808459
0.000813045
0.000813028
0.00080844
0.000832188
0.000827567
0.000827567
0.000832188
0.000832188
0.000827561
0.000837173
0.000841682
0.00083714
0.000841724
0.000837151
0.000837178
0.000841701
0.000837173
0.000841682
0.000837142
0.000841724
0.000837179
0.000837151
0.000841701
0.000832132
0.000827595
0.000832157
0.000827613
0.000832155
0.000832117
0.000827603
0.000832132
0.000827595
0.000832159
0.000827616
0.000832118
0.000832156
0.000827603
0.000837127
0.000841743
0.000841744
0.000837113
0.000837113
0.000841754
0.00083713
0.000832174
0.000813062
0.000818014
0.000817993
0.000822621
0.000822621
0.000822617
0.000818003
0.000818002
0.000813007
0.000808483
0.000813032
0.000808461
0.000812984
0.000813027
0.000808469
0.000813006
0.000808483
0.000813033
0.000808462
0.000813025
0.000812989
0.000808467
0.00081804
0.000822585
0.000822554
0.000818014
0.000818046
0.000822568
0.000818023
0.000818039
0.000822587
0.000822555
0.000818013
0.000822568
0.000818022
0.000818051
0.000813051
0.000808435
0.000808436
0.000813054
0.000813053
0.000808422
0.000813047
0.000817998
0.000832175
0.000827568
0.000827583
0.000832156
0.000832169
0.000832157
0.000827567
0.000837133
0.000837141
0.000841745
0.00083713
0.000841757
0.000832177
0.000827576
0.000832165
0.000832176
0.000827571
0.000837133
0.000837149
0.000841742
0.000841725
0.000837133
0.000837147
0.000841744
0.000818007
0.000822594
0.000822608
0.000818018
0.000822612
0.000818019
0.000818003
0.000813065
0.000813045
0.000808448
0.000808448
0.000813052
0.000817998
0.000822609
0.000818016
0.00082261
0.000818005
0.000813049
0.000813029
0.000808462
0.00080845
0.000808441
0.000813033
0.000813047
0.000818
0.000822608
0.00082259
0.000818015
0.000822609
0.000818003
0.000818014
0.000813055
0.000813041
0.000808444
0.000813048
0.000808439
0.000817997
0.000822605
0.000818011
0.000822618
0.000817997
0.00081305
0.000813031
0.000808452
0.00080846
0.000813051
0.000813031
0.000808444
0.000832177
0.000827579
0.000827565
0.000832154
0.000832153
0.000832171
0.000827562
0.00083716
0.000837143
0.000841755
0.000837138
0.00084179
0.000832198
0.000827569
0.000832164
0.000832173
0.000827568
0.000837142
0.000837152
0.000841728
0.000841749
0.00083715
0.000837139
0.000841756
0.000832174
0.000827564
0.000827578
0.000832154
0.000832169
0.000832154
0.000827564
0.000837138
0.000837139
0.000841745
0.000837129
0.00084176
0.000832181
0.00082757
0.000832161
0.000832173
0.00082757
0.000837134
0.00083715
0.000841749
0.000841725
0.000837138
0.000837146
0.000841746
0.000817997
0.000822586
0.000822603
0.000818012
0.000822602
0.000818012
0.000817998
0.000813052
0.000813035
0.000808443
0.000813046
0.000808437
0.000817988
0.000822598
0.000818008
0.000822598
0.000817996
0.000813047
0.000813028
0.000808459
0.00080845
0.000813029
0.000813047
0.000808439
0.000817997
0.000822603
0.000822586
0.000818012
0.000822604
0.000817998
0.000818009
0.000813048
0.000813033
0.000808439
0.000813041
0.000808429
0.000818001
0.000822599
0.000818006
0.000822611
0.000817993
0.000813045
0.000813027
0.000808449
0.000808459
0.000813047
0.000813027
0.000808438
0.000832195
0.000827571
0.00082757
0.000832184
0.000832184
0.000827565
0.000837176
0.000841685
0.000837143
0.000841721
0.000837156
0.00083718
0.000841706
0.000837176
0.000841685
0.000837144
0.000841721
0.00083718
0.000837156
0.000841706
0.00083214
0.000827601
0.000832162
0.000827615
0.000832161
0.00083212
0.000827606
0.000832141
0.0008276
0.000832163
0.000827618
0.000832121
0.000832161
0.000827607
0.000837133
0.000841739
0.000841739
0.000837118
0.000837118
0.00084175
0.00083713
0.000832177
0.000813055
0.000818005
0.000817991
0.000822623
0.000822623
0.00082262
0.000818003
0.000818003
0.000813007
0.000808481
0.000813036
0.000808462
0.00081299
0.000813024
0.000808477
0.000813007
0.000808484
0.000813034
0.00080846
0.000813024
0.000812989
0.000808477
0.000818039
0.00082259
0.000822557
0.000818014
0.000818051
0.000822572
0.000818021
0.000818039
0.000822589
0.000822558
0.000818014
0.000822572
0.00081802
0.000818051
0.000813048
0.000808422
0.000808421
0.000813051
0.00081305
0.000808421
0.000813054
0.000818004
0.000832177
0.000827584
0.000827566
0.000832153
0.000832158
0.000832167
0.000827568
0.000837127
0.00083714
0.000841745
0.000837133
0.000841742
0.000832178
0.000827578
0.000832165
0.000832179
0.000827573
0.000837134
0.000837149
0.000841726
0.000841742
0.000837149
0.000837133
0.000841742
0.000832166
0.000827577
0.000827562
0.00083215
0.000832151
0.000832165
0.000827557
0.000837121
0.000837139
0.000841742
0.000837122
0.000841766
0.00083216
0.000827563
0.00083216
0.000832165
0.000827553
0.000837126
0.000837147
0.000841721
0.000841743
0.000837142
0.000837132
0.000841744
0.000818001
0.000822591
0.000822606
0.000818016
0.000822609
0.000818013
0.000818001
0.000813055
0.000813038
0.000808439
0.000813045
0.000808425
0.000818005
0.000822606
0.000818011
0.000822616
0.000817999
0.000813047
0.000813032
0.000808459
0.00080845
0.00081303
0.000813049
0.000808436
0.000817994
0.000822586
0.000822602
0.000818015
0.000822599
0.000818013
0.000817997
0.000813048
0.000813031
0.000808439
0.000813046
0.000808442
0.000817971
0.000822594
0.000818003
0.00082259
0.000817993
0.000813048
0.000813031
0.000808459
0.00080845
0.00081303
0.000813048
0.000808439
0.000837128
0.000832171
0.000837137
0.000832181
0.000817985
0.000822614
0.000822613
0.00082261
0.000817978
0.000817977
0.000813006
0.000808484
0.000813025
0.00080846
0.000808473
0.00081299
0.000813015
0.000813005
0.000808485
0.000813024
0.000808458
0.000808474
0.000812987
0.000813016
0.000818044
0.000822579
0.000822554
0.000818008
0.000822567
0.000818051
0.000818011
0.000818043
0.000822578
0.000822556
0.000818007
0.000822567
0.000818051
0.000818009
0.000813042
0.000808429
0.000808429
0.000808423
0.000813039
0.000813039
0.000813043
0.000817994
0.000813043
0.000817989
0.000798855
0.000798868
0.000798901
0.000803423
0.000803464
0.000798868
0.000803436
0.000798878
0.000798911
0.000798901
0.000803419
0.00080347
0.000798868
0.000803436
0.000798882
0.000798906
0.000798856
0.000803497
0.0008035
0.000803494
0.000798851
0.000798854
0.000798857
0.000803481
0.000798867
0.000803468
0.000798863
0.000798873
0.000798871
0.00080348
0.000803468
0.000798856
0.000803481
0.000798874
0.000798898
0.000803419
0.000803461
0.000798871
0.00079888
0.000803434
0.00079891
0.000798899
0.00080342
0.00080346
0.000798865
0.00079891
0.000803434
0.000798876
0.000798856
0.000803489
0.000803488
0.000798852
0.000803489
0.00079885
0.000798879
0.00080348
0.000798886
0.000803489
0.000798875
0.000798884
0.000798884
0.000803479
0.000803461
0.000798872
0.000803484
0.000798887
0.000793908
0.000793896
0.000789303
0.00079389
0.000793913
0.000798863
0.000803481
0.000798862
0.000798858
0.000803486
0.00079887
0.000798885
0.000803456
0.000803475
0.000798882
0.000803477
0.00079887
0.000793907
0.000793937
0.000793898
0.000789305
0.000789315
0.00079392
0.000793901
0.000789306
0.000798901
0.000803485
0.000798886
0.000803506
0.00079888
0.000798891
0.000798885
0.000803477
0.000803461
0.00080349
0.000798874
0.000798888
0.000793962
0.00078931
0.000793917
0.000793929
0.000789314
0.000798914
0.000803415
0.000803468
0.000798886
0.000798908
0.000803436
0.000798911
0.000798914
0.00080342
0.000803464
0.000798888
0.000798913
0.000803437
0.000798907
0.000798882
0.000803499
0.000803498
0.000798882
0.000803492
0.000798881
0.000798886
0.000793945
0.000793898
0.000789317
0.000789305
0.000793903
0.000793919
0.000789309
0.000798879
0.000803479
0.000798887
0.000798878
0.000803481
0.00079889
0.000798885
0.000803462
0.000803476
0.00079889
0.000803481
0.000798874
0.000793938
0.000789312
0.00079393
0.000789314
0.000793927
0.000793898
0.000789322
0.000789305
0.000793905
0.000793917
0.000789305
0.000798852
0.000803475
0.000798875
0.000803478
0.000798869
0.000798879
0.000798886
0.000803458
0.000803475
0.00080348
0.000798888
0.00079887
0.000793922
0.000789312
0.000793907
0.000793923
0.000789296
0.000798875
0.000793924
0.000798862
0.000793906
0.00083944
0.000839439
0.000829884
0.000829876
0.000829875
0.00082987
0.000839435
0.000837281
0.000841459
0.000841459
0.000837612
0.0008374
0.000837398
0.000841573
0.000801181
0.000801179
0.000791616
0.000801178
0.000799026
0.000803203
0.000803205
0.000799359
0.000803318
0.000799145
0.000799145
0.000837284
0.00084146
0.000841461
0.000837614
0.000837401
0.000837401
0.000841576
0.000812887
0.000812537
0.000808701
0.0008087
0.000812767
0.000812767
0.00080859
0.000837284
0.00084146
0.000841461
0.000837614
0.000837402
0.000837401
0.000841578
0.000812887
0.000812537
0.000808701
0.000808701
0.000812766
0.000812768
0.000808589
0.000837285
0.000841461
0.000841462
0.000837614
0.000837402
0.000837402
0.000841583
0.000812889
0.00081254
0.000808702
0.000808702
0.000812768
0.000812767
0.000808594
0.000812889
0.000812543
0.000808702
0.000808702
0.000808591
0.000812769
0.00081277
0.000799023
0.0008032
0.000803201
0.000799359
0.000803318
0.000799144
0.000799143
0.000799018
0.000803199
0.000803198
0.000799357
0.000799141
0.000803316
0.000799139
0.000799022
0.000803204
0.000803206
0.000799352
0.000799139
0.000803321
0.000799138
0.00083944
0.000839439
0.000829884
0.000829875
0.000829875
0.00082987
0.000839434
0.000839439
0.00083944
0.000829885
0.000829875
0.000829877
0.000829871
0.000839435
0.000839438
0.00083944
0.000829883
0.000829874
0.000829876
0.00082987
0.000839434
0.000820318
0.000810745
0.000810745
0.000820311
0.000820311
0.000820307
0.000810743
0.000820318
0.000810743
0.000810745
0.00082031
0.00082031
0.000820307
0.000810743
0.000820319
0.000810744
0.000810746
0.000820311
0.000820312
0.000820307
0.000810743
0.000820316
0.000810745
0.000810745
0.00082031
0.000820311
0.000820307
0.000810743
0.0008319
0.000827667
0.000827828
0.000832075
0.000832073
0.0008319
0.000827828
0.000837373
0.000841537
0.000837216
0.000841633
0.000837319
0.000837217
0.000841481
0.000831917
0.00082766
0.000832085
0.000827752
0.000831975
0.000832068
0.000827811
0.000837389
0.000837231
0.000841637
0.000841461
0.000837231
0.000837394
0.000841466
0.000831902
0.000827828
0.000827668
0.000832076
0.000831901
0.000832075
0.000827828
0.000837375
0.00084154
0.000837218
0.00084165
0.00083732
0.000837231
0.000841486
0.00083192
0.000827665
0.000832089
0.000827754
0.000831978
0.000832085
0.000827812
0.000837389
0.00083723
0.000841459
0.00084164
0.000837393
0.000837232
0.000841467
0.000832011
0.00083167
0.00082783
0.000827829
0.000831897
0.000831897
0.000827715
0.00080118
0.00080118
0.000791617
0.000791616
0.000801178
0.000801178
0.00080118
0.000791618
0.000791616
0.000801178
0.000801178
0.000801178
0.000791617
0.000791617
0.000791618
0.000791616
0.000801178
0.00079364
0.000793815
0.000789405
0.000789574
0.000793809
0.000793639
0.00078957
0.000799111
0.000803273
0.000803382
0.000798941
0.000803222
0.000799053
0.000798955
0.000799128
0.00079897
0.000803374
0.000803201
0.000803205
0.000798966
0.000799135
0.000793637
0.000793819
0.000789575
0.000789404
0.000793642
0.00079381
0.000789572
0.000799111
0.000803278
0.000803386
0.000798957
0.000803224
0.000799056
0.000798968
0.000799127
0.00079897
0.000803201
0.000803374
0.000803206
0.000799136
0.000798966
0.000793654
0.0007894
0.000793823
0.000789552
0.000793757
0.000793415
0.000789575
0.000789578
0.000793639
0.000793645
0.00078946
0.000832013
0.000831671
0.000827832
0.000827832
0.000827719
0.000831899
0.000831901
0.000818162
0.000818482
0.000822337
0.000822339
0.000822456
0.00081827
0.00081827
0.000831899
0.000827662
0.000827828
0.000832075
0.000832071
0.0008319
0.000827825
0.000837374
0.000841537
0.000837215
0.000841644
0.00083723
0.000837318
0.000841484
0.000831918
0.000827661
0.000832087
0.000827751
0.000832085
0.000831975
0.000827808
0.000837388
0.000837229
0.000841639
0.000841461
0.000837231
0.000837393
0.000841466
0.000831899
0.000827664
0.000827828
0.000832074
0.000832071
0.0008319
0.000827824
0.000837373
0.000841538
0.000837214
0.000841633
0.000837221
0.000837318
0.000841483
0.000831916
0.000827656
0.000832084
0.000827751
0.000832071
0.000827807
0.000831974
0.000837388
0.000837228
0.000841637
0.000841461
0.000837229
0.000837394
0.000841466
0.000818258
0.000822505
0.000822333
0.0008181
0.000822337
0.000818099
0.000818264
0.000812786
0.000808622
0.000812954
0.000808539
0.000812842
0.000812945
0.000808683
0.00081824
0.000822505
0.000822409
0.000818084
0.000818185
0.000822352
0.000818093
0.000812771
0.000812943
0.000808539
0.000808689
0.000812945
0.000812764
0.000808696
0.000818256
0.000822505
0.000822332
0.000818099
0.000822335
0.000818099
0.000818263
0.000812785
0.000808622
0.000812953
0.000808541
0.000812951
0.000812841
0.000808682
0.000818238
0.000822502
0.000822407
0.00081808
0.00082235
0.000818091
0.000818183
0.000812768
0.000812942
0.000808533
0.000808689
0.000812942
0.000812763
0.000808695
0.00083201
0.00083167
0.000827831
0.00082783
0.000831898
0.000831898
0.000827718
0.00081816
0.000818483
0.000822336
0.000822337
0.00081827
0.000822455
0.000818271
0.000831901
0.000827667
0.00082783
0.000832078
0.000832074
0.000831902
0.000827828
0.000837376
0.000841538
0.000837217
0.000841648
0.000837234
0.000837319
0.000841484
0.000831921
0.000827672
0.000832089
0.000827754
0.000832087
0.000831977
0.000827813
0.000837389
0.000837231
0.000841641
0.000841459
0.000837234
0.000837394
0.000841465
0.000831903
0.00082783
0.000827669
0.000832078
0.000831902
0.000832077
0.000827828
0.000837375
0.00084154
0.000837216
0.000841642
0.000837224
0.000837319
0.000841484
0.000831921
0.000827665
0.000832089
0.000827754
0.000832083
0.000827812
0.000831978
0.000837389
0.000837232
0.00084146
0.000841639
0.000837394
0.000837232
0.000841466
0.00081826
0.000822508
0.000822335
0.000818103
0.000822338
0.000818103
0.000818267
0.000812786
0.000808622
0.000812957
0.000808534
0.000812842
0.000812949
0.000808682
0.000818241
0.000822518
0.000822412
0.00081809
0.000818187
0.000822355
0.000818102
0.000812773
0.000812947
0.000808541
0.000808695
0.000812948
0.000812768
0.0008087
0.000818259
0.000822335
0.000822509
0.000818102
0.000822338
0.000818267
0.000818101
0.000812786
0.00080862
0.000812957
0.000808535
0.00081295
0.000812844
0.000808682
0.000818241
0.000822508
0.000822412
0.000818084
0.000822355
0.000818092
0.000818187
0.000812771
0.000812945
0.000808693
0.000808536
0.000812767
0.000812944
0.000808698
0.000831901
0.000827829
0.000827666
0.000832075
0.0008319
0.000832074
0.000827826
0.000837373
0.000841538
0.000837213
0.000841638
0.000837317
0.00083722
0.000841483
0.000831918
0.00082766
0.000832085
0.00082775
0.000831975
0.000832077
0.000827809
0.000837389
0.00083723
0.000841461
0.000841638
0.000837394
0.00083723
0.000841466
0.000818257
0.000822507
0.000822333
0.000818101
0.000822336
0.000818099
0.000818264
0.000812786
0.000808621
0.000812955
0.000808534
0.00080868
0.000812844
0.000812951
0.00081824
0.00082251
0.000822409
0.000818084
0.000822353
0.000818186
0.000818095
0.000812771
0.000812946
0.000808537
0.000808691
0.000808694
0.000812945
0.000812767
0.000818256
0.000822334
0.000822505
0.000818099
0.000822335
0.000818264
0.000818097
0.000812784
0.000808622
0.000812951
0.000808536
0.000812946
0.000812843
0.00080868
0.000818237
0.000822505
0.000822409
0.00081808
0.000822352
0.000818085
0.000818184
0.000812769
0.000812942
0.000808692
0.000808535
0.000812765
0.000812941
0.000808696
0.000832013
0.000831673
0.000827834
0.000827833
0.000831901
0.000831901
0.00082772
0.000818162
0.000818486
0.00082234
0.000822339
0.000818274
0.00082246
0.000818273
0.0008319
0.000827828
0.000827665
0.000832073
0.000831901
0.000832073
0.000827825
0.000837371
0.000841536
0.000837212
0.000841634
0.000837315
0.000837221
0.000841481
0.000831918
0.000827662
0.000832081
0.000827749
0.000831972
0.00083208
0.000827809
0.000837387
0.000837227
0.000841458
0.000841636
0.000837392
0.000837229
0.000841463
0.000818256
0.000822332
0.000822508
0.000818099
0.000822336
0.000818263
0.000818099
0.000812787
0.000808622
0.000812956
0.000808537
0.00080868
0.000812843
0.000812947
0.000818239
0.000822509
0.000822411
0.000818084
0.000822353
0.000818186
0.000818089
0.000812771
0.000812945
0.000808691
0.000808536
0.000808694
0.000812765
0.000812945
0.000818257
0.000822331
0.000822506
0.0008181
0.000822335
0.000818263
0.000818099
0.000812785
0.000808623
0.000812952
0.000808531
0.000812949
0.000812842
0.000808681
0.00081824
0.000822514
0.000822409
0.000818083
0.000822353
0.000818101
0.000818185
0.000812769
0.000812944
0.00080869
0.000808537
0.000812763
0.000812943
0.000808696
0.000818162
0.000818485
0.000822337
0.000822338
0.000822456
0.000818272
0.000818272
0.00079911
0.000803276
0.000803395
0.000798943
0.00079896
0.000803222
0.000799052
0.000799128
0.000798968
0.000803373
0.000803198
0.00079896
0.000803201
0.00079914
0.00079911
0.000803275
0.00080339
0.000798946
0.000803221
0.000798962
0.000799054
0.000799125
0.000798967
0.000803373
0.000803198
0.0008032
0.000798957
0.000799139
0.000799109
0.000803277
0.000803385
0.000798944
0.000798961
0.000803225
0.000799052
0.000799124
0.000798971
0.000803384
0.000803207
0.00079897
0.000803209
0.000799134
0.000799107
0.000803278
0.000803382
0.000798952
0.000803225
0.000798964
0.000799054
0.000799122
0.00079897
0.000803206
0.000803377
0.000803207
0.000799134
0.000798966
0.000793637
0.000793814
0.000789574
0.000789404
0.000793637
0.00079381
0.000789573
0.000799109
0.00080328
0.000803378
0.000798956
0.000799059
0.000803223
0.000798958
0.000799125
0.00079897
0.000803205
0.000803373
0.000799135
0.000803207
0.000798966
0.000793655
0.000789397
0.00079383
0.000789493
0.000793715
0.000793809
0.000789555
0.000793638
0.000793818
0.000789577
0.00078941
0.00079364
0.000793817
0.000789575
0.000799114
0.000803281
0.000803386
0.000798959
0.000799062
0.000803227
0.000798976
0.000799126
0.000798972
0.000803205
0.000803376
0.000799137
0.000803208
0.000798971
0.000793659
0.000789414
0.000793836
0.000789496
0.000793718
0.00079383
0.000789559
0.00180535
0.00180354
0.00180535
0.00180305
0.00180313
0.00180305
0.00180305
0.00180305
0.00180305
0.00180313
0.00180306
0.00180763
0.00180761
0.00180305
0.00180762
0.00180307
0.00180762
0.00180761
0.0018031
0.0018076
0.00180306
0.0018076
0.0018076
0.00180309
0.0018076
0.0018031
0.0018076
0.00180306
0.00180759
0.0018076
0.00180309
0.00180764
0.00180303
0.00180303
0.00180762
0.00180762
0.00180303
0.00180762
0.00180765
0.00180761
0.00180305
0.00180763
0.00180306
0.0018075
0.00180718
0.00180333
0.00180333
0.0018074
0.0018074
0.00180321
0.0018074
0.00180324
0.00180754
0.00180313
0.00180755
0.00180746
0.0018033
0.00180741
0.00180324
0.00180754
0.00180314
0.00180746
0.00180754
0.0018033
0.00179581
0.00179578
0.00179578
0.00179759
0.00175754
0.00175751
0.00175751
0.00175932
0.00171929
0.00171926
0.00171926
0.00172106
0.00168104
0.00168102
0.00168102
0.00168283
0.0016428
0.00164277
0.00164277
0.00164458
0.00160454
0.00160451
0.00160452
0.00160633
0.00156629
0.00156626
0.00156626
0.00156807
0.00152804
0.00152801
0.00152801
0.00152982
0.00148978
0.00148975
0.00148975
0.00149156
0.00145152
0.00145149
0.00145149
0.0014533
0.00141327
0.00141324
0.00141325
0.00141505
0.00137503
0.001375
0.001375
0.00137681
0.00133678
0.00133675
0.00133675
0.00133856
0.00129852
0.0012985
0.00129849
0.0013003
0.00126027
0.00126024
0.00126024
0.00126205
0.00122201
0.00122198
0.00122199
0.00122379
0.00118376
0.00118373
0.00118373
0.00118554
0.0011455
0.00114547
0.00114547
0.00114728
0.00110724
0.00110721
0.00110722
0.00110903
0.00106899
0.00106896
0.00106896
0.00107077
0.00103073
0.0010307
0.0010307
0.00103251
0.000992475
0.000992446
0.000992444
0.000994255
0.000954219
0.000954191
0.000954191
0.000956001
0.000915964
0.000915935
0.000915937
0.000917746
0.000877707
0.000877678
0.000877678
0.000879486
0.00179759
0.00176526
0.00179578
0.00179578
0.00176708
0.00176708
0.00179758
0.00176526
0.00179578
0.00179578
0.00176708