/*--------------------------------*- C++ -*----------------------------------*\
| =========                 |                                                 |
| \\      /  F ield         | OpenFOAM: The Open Source CFD Toolbox           |
|  \\    /   O peration     | Version:  2312                                  |
|   \\  /    A nd           | Website:  www.openfoam.com                      |
|    \\/     M anipulation  |                                                 |
\*---------------------------------------------------------------------------*/
FoamFile
{
    version     2.0;
    format      ascii;
    arch        "LSB;label=32;scalar=64";
    class       volVectorField;
    location    "50";
    object      U;
}
// * * * * * * * * * * * * * * * * * * * * * * * * * * * * * * * * * * * * * //

dimensions      [0 1 -1 0 0 0 0];

internalField   nonuniform List<vector> 
43496
(
(-1.88426e-05 3.48475e-07 0.0989306)
(-6.6917e-06 3.8769e-06 0.0757932)
(9.39763e-07 -9.43124e-07 0.104893)
(-1.03722e-05 2.006e-05 0.099726)
(-2.3581e-05 4.15923e-07 0.103401)
(8.0293e-07 -1.6684e-07 0.105051)
(-1.88099e-05 -3.44013e-07 0.098931)
(-1.38869e-05 1.22824e-06 0.088499)
(-2.35649e-05 -3.3399e-07 0.103401)
(9.58963e-07 -9.38106e-07 0.104893)
(8.2831e-07 9.35504e-08 0.105051)
(-2.00237e-05 1.04221e-05 0.0997252)
(-4.87192e-05 4.87308e-05 0.104589)
(-7.10713e-06 9.3661e-06 0.094603)
(-9.24274e-06 6.83383e-06 0.0946052)
(-4.18796e-06 7.19402e-06 0.0757983)
(-1.56904e-06 1.39301e-05 0.0885002)
(6.36087e-06 -6.0202e-07 0.0823947)
(1.8315e-05 -2.12156e-07 0.0988776)
(-1.87307e-05 -5.45465e-08 0.0975705)
(-5.35218e-06 3.22057e-07 0.0847837)
(1.79873e-05 1.05767e-07 0.097506)
(5.70532e-06 -2.05408e-07 0.0847468)
(-5.89293e-06 9.78003e-07 0.0824396)
(7.09643e-06 -1.01218e-06 0.0719706)
(-1.41706e-05 -1.11647e-07 0.0931361)
(1.39284e-05 -4.84652e-07 0.0930589)
(-6.3961e-06 8.5727e-07 0.0720393)
(7.99075e-06 -4.56283e-06 0.0757367)
(6.53826e-06 8.44969e-07 0.0823869)
(1.83311e-05 3.39021e-07 0.0988782)
(-5.33456e-06 -3.55471e-07 0.0847826)
(-1.9012e-05 1.80093e-07 0.0975728)
(5.70676e-06 2.36755e-07 0.0847461)
(1.79829e-05 9.67554e-08 0.097509)
(-5.84269e-06 -7.84365e-07 0.0824316)
(6.68997e-06 1.41471e-06 0.0719711)
(-1.408e-05 6.59326e-08 0.0931345)
(1.43922e-05 -1.33608e-06 0.088443)
(1.40565e-05 5.78268e-07 0.0930584)
(-6.71491e-06 -6.71231e-07 0.072041)
(7.74367e-06 -7.74025e-06 0.0910333)
(-2.94707e-06 7.20587e-06 0.0726559)
(-7.11048e-06 2.97229e-06 0.0726617)
(3.06749e-06 -6.76794e-06 0.072592)
(6.75496e-06 -3.06377e-06 0.0725974)
(-7.40239e-06 7.41979e-06 0.091099)
(2.21985e-05 -9.21021e-06 0.0988511)
(-5.16859e-06 4.6021e-06 0.0875405)
(6.98849e-06 -9.52174e-06 0.094535)
(-2.75709e-05 1.17575e-05 0.102133)
(5.70387e-06 -4.89502e-06 0.0874797)
(2.77693e-05 -1.28946e-05 0.10209)
(-2.25043e-05 8.56538e-06 0.0989151)
(9.18682e-06 -2.21907e-05 0.0988559)
(-4.65837e-06 5.12025e-06 0.0875478)
(9.57902e-06 -7.33751e-06 0.0945363)
(-1.17902e-05 2.74952e-05 0.102134)
(1.28736e-05 -2.77302e-05 0.102091)
(4.81844e-06 -5.63062e-06 0.0874852)
(-8.70679e-06 2.25547e-05 0.0989199)
(4.47439e-06 -7.89414e-06 0.0757386)
(1.20488e-06 -1.44504e-05 0.0884441)
(-4.81077e-07 2.82417e-07 0.105193)
(-7.77502e-07 7.51358e-07 0.105133)
(-4.80032e-07 -2.79537e-07 0.105193)
(9.74473e-06 -2.1232e-05 0.0996526)
(-8.15e-06 7.14727e-05 0.10345)
(9.13527e-06 -7.29709e-05 0.103412)
(5.99436e-05 6.55907e-07 0.104362)
(2.36952e-05 -4.55281e-07 0.103372)
(-2.452e-05 5.315e-07 0.103006)
(-5.825e-05 3.59129e-08 0.10451)
(2.42715e-05 -8.76092e-07 0.102966)
(5.72755e-05 -6.88808e-08 0.104492)
(-6.18569e-05 -5.90553e-07 0.104387)
(6.77469e-05 2.78802e-06 0.104022)
(-2.47771e-05 -1.12983e-06 0.101873)
(2.49025e-05 5.12581e-08 0.101812)
(-6.8999e-05 -2.45054e-06 0.104058)
(5.98421e-05 -7.00511e-07 0.104362)
(2.36825e-05 5.75668e-07 0.103372)
(-5.83089e-05 -2.13858e-08 0.10451)
(-2.45152e-05 -6.09625e-07 0.103007)
(5.72491e-05 8.6941e-08 0.104492)
(2.41586e-05 8.71949e-07 0.102968)
(-6.17736e-05 5.702e-07 0.104387)
(6.76214e-05 -2.8678e-06 0.104022)
(-2.48034e-05 1.08139e-06 0.101872)
(2.1267e-05 -9.80696e-06 0.0996518)
(-7.15989e-05 8.26135e-06 0.103449)
(2.47142e-05 5.79603e-09 0.101813)
(-6.8884e-05 2.38278e-06 0.104057)
(7.29547e-05 -9.15881e-06 0.103411)
(2.36555e-05 -2.37111e-05 0.102781)
(4.6036e-05 -4.60729e-05 0.104569)
(-2.48612e-05 5.43067e-05 0.104044)
(-5.42857e-05 2.47215e-05 0.104045)
(5.39147e-05 -2.4568e-05 0.104019)
(2.44799e-05 -5.38812e-05 0.104019)
(-2.43567e-05 2.43277e-05 0.102825)
(-7.8103e-07 -7.59317e-07 0.105133)
(-7.89099e-07 1.03725e-06 0.104893)
(1.05946e-06 -8.21193e-07 0.104893)
(-4.60669e-05 -4.60307e-05 0.104569)
(-7.81801e-07 -7.887e-07 0.105133)
(-8.41695e-07 9.83271e-07 0.104893)
(1.03153e-06 -8.21739e-07 0.104893)
(-4.59176e-05 -4.59438e-05 0.104569)
(4.5994e-05 4.59928e-05 0.104569)
(-4.86622e-05 -4.8667e-05 0.104589)
(1.05399e-06 8.42922e-07 0.104893)
(-1.08693e-06 8.309e-07 0.104893)
(9.82894e-07 8.80617e-07 0.104893)
(-9.81036e-07 8.73222e-07 0.104893)
(-4.60671e-05 4.60241e-05 0.104569)
(4.86885e-05 -4.87019e-05 0.104589)
(8.33034e-07 1.03318e-06 0.104893)
(8.59161e-07 -1.11185e-06 0.104893)
(8.2556e-07 9.75682e-07 0.104893)
(9.28952e-07 -9.87889e-07 0.104893)
(-8.66046e-07 -1.06593e-06 0.104893)
(-8.47009e-07 9.82176e-07 0.104893)
(-9.20644e-07 -9.6581e-07 0.104893)
(4.60356e-05 -4.60919e-05 0.104569)
(-4.86166e-05 4.86719e-05 0.104589)
(-1.05594e-06 -8.18503e-07 0.104893)
(9.73608e-07 -9.12047e-07 0.104893)
(-1.00677e-06 -8.72558e-07 0.104893)
(4.85808e-05 4.86038e-05 0.104588)
(4.60103e-05 4.5959e-05 0.104569)
(1.02576e-06 8.84859e-07 0.104893)
(-1.03981e-06 8.96762e-07 0.104893)
(-4.60499e-05 4.59883e-05 0.104569)
(8.51042e-07 9.70229e-07 0.104893)
(8.95965e-07 -1.03525e-06 0.104893)
(-8.85405e-07 -1.03171e-06 0.104893)
(4.60431e-05 -4.60609e-05 0.104569)
(-1.03577e-06 -9.05503e-07 0.104893)
(2.45549e-07 -1.88001e-05 0.0989304)
(8.77667e-07 1.43486e-05 0.0884438)
(-1.63764e-06 -1.40244e-05 0.0885006)
(-4.53055e-07 1.86305e-05 0.0988773)
(-3.89848e-06 7.39933e-06 0.0757401)
(4.34723e-06 -7.10476e-06 0.0758049)
(-1.88248e-05 2.32956e-07 0.09893)
(1.43617e-05 8.88947e-07 0.0884434)
(-1.40608e-05 -1.66101e-06 0.0885003)
(1.85635e-05 -3.70965e-07 0.098877)
(7.6134e-07 -7.53704e-07 0.105133)
(-7.64845e-07 7.45327e-07 0.105133)
(7.45302e-07 7.90117e-07 0.105133)
(-8.03648e-07 -7.39859e-07 0.105133)
(7.77436e-07 -7.5735e-07 0.105133)
(-7.91232e-07 7.77401e-07 0.105133)
(7.81265e-07 7.69819e-07 0.105133)
(2.35395e-05 5.04412e-07 0.103403)
(-2.12736e-05 9.79547e-06 0.0996514)
(-8.44601e-07 -8.22712e-08 0.105051)
(-8.58124e-07 9.64793e-07 0.104893)
(2.00247e-05 -1.02169e-05 0.099726)
(-8.51153e-07 -9.8286e-08 0.105051)
(-2.38612e-05 -5.14359e-07 0.103373)
(7.43505e-06 -4.00914e-06 0.0757432)
(-7.13205e-06 4.34254e-06 0.0758014)
(4.88177e-07 2.36395e-05 0.103403)
(-5.8819e-08 -8.28088e-07 0.105051)
(9.44563e-06 -2.11724e-05 0.099652)
(9.28419e-07 -8.68183e-07 0.104893)
(-8.83161e-08 -8.19678e-07 0.105051)
(-1.04592e-05 2.01292e-05 0.0997257)
(-3.57861e-07 -2.38043e-05 0.103373)
(-7.69761e-06 -9.56376e-06 0.0945336)
(-9.71884e-06 -7.83089e-06 0.0945362)
(4.85673e-05 4.86344e-05 0.104589)
(6.85558e-06 9.4609e-06 0.0946028)
(9.52208e-06 7.04551e-06 0.0946052)
(1.13934e-06 1.43607e-05 0.0884438)
(-2.57506e-07 1.83216e-05 0.0988776)
(-4.24854e-06 7.44749e-06 0.0757375)
(1.45284e-05 1.19852e-06 0.0884437)
(1.8402e-05 -2.45238e-07 0.0988771)
(7.6853e-07 -7.96861e-07 0.105134)
(-7.96696e-07 7.75897e-07 0.105133)
(7.41877e-07 7.6249e-07 0.105133)
(2.34954e-05 4.21474e-07 0.103403)
(-2.12158e-05 9.88576e-06 0.0996514)
(-8.22202e-07 -1.37212e-07 0.105051)
(-2.37707e-05 -4.72871e-07 0.103373)
(-8.71466e-07 -1.74684e-07 0.105051)
(7.79032e-06 -4.3223e-06 0.0757397)
(2.35806e-07 2.3578e-05 0.103403)
(-1.09685e-07 -7.74703e-07 0.105051)
(9.83625e-06 -2.12998e-05 0.0996523)
(-3.75458e-07 -2.37203e-05 0.103374)
(-1.4475e-07 -8.06144e-07 0.105051)
(-7.55404e-06 -9.57969e-06 0.0945333)
(-9.59907e-06 -7.5031e-06 0.0945365)
(4.86786e-05 4.86505e-05 0.104589)
(7.04013e-06 9.44529e-06 0.0946024)
(9.33619e-06 6.84133e-06 0.0946044)
(4.07263e-06 7.4166e-06 0.0757432)
(-4.25564e-06 -7.30235e-06 0.0758027)
(7.39251e-06 4.11017e-06 0.0757417)
(-7.34411e-06 -4.34132e-06 0.0758013)
(9.53909e-06 7.56397e-06 0.0945344)
(7.60624e-06 9.57708e-06 0.0945332)
(-4.8625e-05 -4.86264e-05 0.104589)
(-9.34039e-06 -6.86656e-06 0.0946052)
(-6.94593e-06 -9.45438e-06 0.0946019)
(-4.01923e-06 -6.97812e-06 0.075801)
(4.12079e-06 7.44901e-06 0.0757432)
(-6.84244e-06 -3.92599e-06 0.0757987)
(7.51572e-06 4.15961e-06 0.0757417)
(4.6055e-05 4.6004e-05 0.104569)
(-9.40917e-06 -7.1052e-06 0.0946058)
(-7.45706e-06 -9.69446e-06 0.0946026)
(9.60881e-06 7.53577e-06 0.094534)
(7.65908e-06 9.60746e-06 0.0945328)
(-2.27199e-07 -1.86734e-05 0.0989307)
(-5.35432e-07 1.44985e-05 0.0884432)
(1.58548e-06 -1.39422e-05 0.0885012)
(3.13738e-07 1.86923e-05 0.0988775)
(4.19833e-07 -2.35916e-05 0.103401)
(9.76752e-06 2.12588e-05 0.0996515)
(-8.66277e-08 8.32242e-07 0.105051)
(9.92069e-07 8.70521e-07 0.104893)
(-1.04353e-05 -2.01299e-05 0.099726)
(-8.98403e-08 8.3114e-07 0.105051)
(-4.0542e-07 2.38974e-05 0.103372)
(-4.04547e-07 -2.35529e-05 0.103402)
(-9.99494e-06 2.13655e-05 0.09965)
(9.06168e-08 8.33198e-07 0.105051)
(-9.96114e-07 8.7946e-07 0.104893)
(9.98736e-06 -1.99649e-05 0.099726)
(1.19332e-07 8.35881e-07 0.105051)
(4.3299e-07 2.39494e-05 0.103372)
(-3.49827e-07 1.84149e-05 0.0988774)
(-1.22908e-06 -1.39211e-05 0.0885008)
(7.77135e-07 1.44121e-05 0.0884437)
(2.89166e-07 -1.87649e-05 0.0989307)
(4.06144e-07 1.85897e-05 0.0988777)
(1.20073e-06 -1.39648e-05 0.0885008)
(-8.77993e-07 1.42469e-05 0.088442)
(-2.63366e-07 -1.86705e-05 0.0989308)
(-4.57318e-07 2.36874e-05 0.103372)
(1.08258e-06 8.52206e-07 0.104893)
(-1.01329e-05 -1.99331e-05 0.0997263)
(-9.80642e-08 8.04106e-07 0.105051)
(9.76321e-06 2.12567e-05 0.0996515)
(-9.04745e-08 8.56585e-07 0.105051)
(5.06283e-07 -2.34618e-05 0.103401)
(4.71442e-07 2.37293e-05 0.103372)
(-1.12099e-06 8.70749e-07 0.104893)
(1.00826e-05 -1.98633e-05 0.0997264)
(1.1538e-07 8.12287e-07 0.105051)
(-1.00191e-05 2.1299e-05 0.0996499)
(1.3616e-07 8.57628e-07 0.105051)
(-3.86608e-07 -2.34613e-05 0.103402)
(-9.60938e-06 7.64819e-06 0.0945317)
(-7.60587e-06 9.61802e-06 0.0945347)
(4.86209e-05 -4.86217e-05 0.104589)
(9.30373e-06 -6.8367e-06 0.0946037)
(6.84627e-06 -9.35934e-06 0.0946042)
(-7.37469e-06 4.09049e-06 0.0757431)
(7.18365e-06 -4.38477e-06 0.075803)
(4.01837e-06 -6.88869e-06 0.0758025)
(-3.94644e-06 7.45822e-06 0.0757396)
(-4.61222e-05 4.60622e-05 0.104569)
(9.34791e-06 -6.84584e-06 0.0946046)
(6.84499e-06 -9.27557e-06 0.0946044)
(-9.64351e-06 7.69999e-06 0.0945314)
(-7.6641e-06 9.58504e-06 0.0945345)
(7.31224e-06 -4.37006e-06 0.0758029)
(-7.51066e-06 3.98177e-06 0.0757428)
(-2.36325e-05 4.44862e-07 0.103402)
(2.12608e-05 9.77078e-06 0.0996516)
(8.94837e-07 -7.68653e-08 0.105051)
(8.38704e-07 9.81415e-07 0.104893)
(-2.01822e-05 -1.05296e-05 0.0997252)
(8.05903e-07 -8.32551e-08 0.105051)
(2.38467e-05 -4.12279e-07 0.103372)
(-1.8752e-05 -2.80338e-07 0.0989304)
(1.44832e-05 -6.81582e-07 0.0884439)
(-1.38093e-05 1.63983e-06 0.0885)
(1.8543e-05 3.84434e-07 0.0988774)
(-2.35622e-05 -4.15904e-07 0.103402)
(9.01082e-07 8.08248e-08 0.105051)
(2.12808e-05 -9.72863e-06 0.0996509)
(8.8182e-07 -9.62308e-07 0.104893)
(8.10685e-07 9.71872e-08 0.105051)
(-2.00432e-05 1.03121e-05 0.0997242)
(2.38871e-05 4.1215e-07 0.103372)
(1.84304e-05 -4.00957e-07 0.0988769)
(-1.38399e-05 -1.12969e-06 0.0885008)
(1.43943e-05 8.86921e-07 0.0884436)
(-1.88549e-05 3.69303e-07 0.0989302)
(2.37084e-05 -4.64103e-07 0.103372)
(9.04807e-07 1.03386e-06 0.104893)
(-1.98822e-05 -1.02911e-05 0.0997255)
(8.09254e-07 -6.41363e-08 0.105051)
(2.12548e-05 9.70078e-06 0.0996515)
(9.44225e-07 -1.15442e-07 0.105051)
(-2.34555e-05 5.33265e-07 0.103402)
(1.85534e-05 3.51723e-07 0.0988774)
(-1.41327e-05 1.47352e-06 0.0884994)
(1.45133e-05 -8.37824e-07 0.0884431)
(-1.87075e-05 -2.29202e-07 0.0989305)
(2.37948e-05 4.5341e-07 0.103372)
(8.86949e-07 -1.11173e-06 0.104893)
(8.33686e-07 1.0904e-07 0.105051)
(-1.99522e-05 1.01558e-05 0.0997245)
(9.48263e-07 9.96559e-08 0.105051)
(2.13266e-05 -9.98369e-06 0.0996509)
(-2.35125e-05 -3.22585e-07 0.103402)
(1.85948e-05 3.19425e-07 0.098931)
(-1.44759e-05 7.29919e-07 0.0884453)
(1.39985e-05 -1.7608e-06 0.0885024)
(-1.85775e-05 -4.7026e-07 0.0988754)
(2.34325e-05 -3.60136e-07 0.103402)
(-8.80485e-07 8.89703e-08 0.105051)
(-2.13726e-05 -9.8913e-06 0.0996507)
(-8.70711e-07 -9.26382e-07 0.104893)
(-8.42178e-07 1.13695e-07 0.105051)
(2.0008e-05 1.01608e-05 0.099725)
(-2.39207e-05 4.11845e-07 0.103372)
(1.85955e-05 -1.00291e-07 0.0989306)
(-1.44882e-05 -6.02766e-07 0.0884447)
(1.38783e-05 1.72163e-06 0.0885008)
(-1.86619e-05 3.08744e-07 0.0988772)
(-2.37411e-05 -4.35705e-07 0.103374)
(-8.52911e-07 1.04448e-06 0.104893)
(1.99528e-05 -1.01671e-05 0.0997263)
(-8.54442e-07 -6.69992e-08 0.105051)
(-2.13274e-05 9.96587e-06 0.0996513)
(-8.73562e-07 -1.36082e-07 0.105051)
(2.3463e-05 5.20743e-07 0.103403)
(-1.85066e-05 -4.93232e-07 0.0988752)
(1.39974e-05 -1.71909e-06 0.0885023)
(-1.42733e-05 8.15243e-07 0.0884444)
(1.86676e-05 4.50706e-07 0.0989308)
(-2.38331e-05 4.51106e-07 0.103372)
(-8.62225e-07 -1.05277e-06 0.104893)
(-8.62812e-07 1.02052e-07 0.105051)
(2.00479e-05 1.02923e-05 0.0997251)
(-9.01791e-07 8.09772e-08 0.105051)
(-2.13369e-05 -9.96888e-06 0.0996507)
(2.34482e-05 -3.2548e-07 0.103402)
(-1.86213e-05 3.90335e-07 0.0988774)
(1.41214e-05 1.5464e-06 0.0885004)
(-1.44814e-05 -7.85293e-07 0.0884437)
(1.86889e-05 -1.0839e-07 0.0989308)
(7.55474e-06 -9.47403e-06 0.094533)
(9.41603e-06 -7.49178e-06 0.0945348)
(-4.86602e-05 4.86775e-05 0.104589)
(-7.02788e-06 9.41816e-06 0.0946007)
(-9.32474e-06 6.87878e-06 0.0946042)
(4.12379e-06 -7.38744e-06 0.0757432)
(-4.26106e-06 7.20498e-06 0.0758024)
(-7.15928e-06 4.31703e-06 0.0758002)
(7.56681e-06 -4.01605e-06 0.0757425)
(4.60947e-05 -4.61226e-05 0.104569)
(-7.10889e-06 9.56568e-06 0.094601)
(-9.54816e-06 7.15137e-06 0.0946042)
(7.5762e-06 -9.62009e-06 0.0945329)
(9.59567e-06 -7.53587e-06 0.0945345)
(-4.23546e-06 7.12619e-06 0.0758017)
(4.0351e-06 -7.45489e-06 0.0757433)
(-3.8214e-07 2.35885e-05 0.103402)
(1.17466e-07 -8.46599e-07 0.105051)
(-9.85032e-06 -2.12367e-05 0.0996523)
(-9.38121e-07 -8.26446e-07 0.104893)
(1.4249e-07 -7.69138e-07 0.105051)
(1.03305e-05 2.01043e-05 0.0997264)
(4.78907e-07 -2.3813e-05 0.103372)
(2.9952e-07 1.87724e-05 0.0989309)
(7.20897e-07 -1.44629e-05 0.0884443)
(-1.71752e-06 1.38972e-05 0.0885009)
(-2.05019e-07 -1.83877e-05 0.0988753)
(-1.34217e-07 1.86318e-05 0.0989334)
(-5.15014e-07 -1.43342e-05 0.0884414)
(1.37286e-06 1.40599e-05 0.0884981)
(3.78767e-07 -1.84188e-05 0.0988755)
(-3.03812e-07 -2.37064e-05 0.103374)
(1.07104e-06 -8.31145e-07 0.104893)
(-8.64849e-08 -8.01473e-07 0.105051)
(-1.01806e-05 2.00029e-05 0.0997258)
(-8.63341e-08 -8.34209e-07 0.105051)
(9.76095e-06 -2.12562e-05 0.0996519)
(4.42551e-07 2.34939e-05 0.103403)
(4.77496e-07 -2.35813e-05 0.103373)
(-1.02377e-06 -8.30676e-07 0.104893)
(8.65291e-08 -7.61614e-07 0.105051)
(1.05506e-05 2.02087e-05 0.0997265)
(1.20408e-07 -8.61871e-07 0.105051)
(-9.77554e-06 -2.12169e-05 0.0996523)
(-4.37386e-07 2.35284e-05 0.103403)
(-1.64548e-07 -1.83726e-05 0.098875)
(-1.38553e-06 1.3974e-05 0.0885006)
(7.06164e-07 -1.446e-05 0.0884442)
(1.97752e-07 1.86817e-05 0.0989305)
(5.13115e-07 -1.83455e-05 0.0988754)
(1.51335e-06 1.39979e-05 0.0884984)
(-1.06441e-06 -1.42901e-05 0.088441)
(-2.13665e-07 1.8726e-05 0.0989329)
(-7.50731e-06 -4.01818e-06 0.0757444)
(7.22825e-06 4.44118e-06 0.0758039)
(-3.86609e-06 -7.07323e-06 0.0757329)
(4.13038e-06 6.98299e-06 0.075791)
(-4.6034e-05 -4.60169e-05 0.104569)
(6.85418e-06 9.46775e-06 0.0946033)
(9.47779e-06 6.9138e-06 0.0946059)
(-7.66702e-06 -9.51758e-06 0.0945334)
(-9.59601e-06 -7.62922e-06 0.0945363)
(7.20132e-06 4.35717e-06 0.0758033)
(-7.56764e-06 -3.9329e-06 0.0757445)
(4.22722e-06 7.29563e-06 0.0757903)
(-4.18361e-06 -7.57267e-06 0.0757317)
(4.31202e-06 7.57218e-06 0.0757407)
(7.84111e-06 4.45629e-06 0.0757385)
(9.56464e-06 7.47315e-06 0.0945349)
(7.36327e-06 9.4382e-06 0.0945339)
(-1.13599e-06 1.42227e-05 0.0884421)
(3.49925e-07 1.83739e-05 0.0988778)
(9.63536e-06 2.11863e-05 0.0996519)
(-1.184e-07 8.4249e-07 0.105051)
(-3.37977e-07 2.37432e-05 0.103372)
(-9.67877e-06 2.1199e-05 0.0996503)
(1.28647e-07 8.61287e-07 0.105051)
(4.8268e-07 2.37675e-05 0.103372)
(-9.46113e-06 7.28573e-06 0.0945321)
(-7.66715e-06 9.60468e-06 0.0945344)
(-7.3648e-06 4.15827e-06 0.0757429)
(2.13605e-05 9.77256e-06 0.0996519)
(9.43425e-07 -1.0985e-07 0.105051)
(2.38558e-05 -3.83957e-07 0.103372)
(1.43167e-05 -1.23316e-06 0.0884426)
(1.85006e-05 3.90158e-07 0.0988775)
(9.29723e-07 1.17624e-07 0.105051)
(2.14147e-05 -9.97915e-06 0.0996512)
(2.37909e-05 5.3287e-07 0.103372)
(1.86348e-05 4.89751e-07 0.0989312)
(-1.42267e-05 9.07706e-07 0.0884442)
(-1.84045e-05 -3.38545e-07 0.0988751)
(2.35615e-05 -3.12771e-07 0.103401)
(-8.53085e-07 6.51385e-08 0.105051)
(-2.12072e-05 -9.79697e-06 0.0996508)
(-1.02831e-06 -9.84899e-07 0.104893)
(-2.37659e-05 4.86889e-07 0.103372)
(-8.96054e-07 4.48241e-08 0.105051)
(2.00268e-05 1.02003e-05 0.0997249)
(1.86986e-05 -1.70326e-07 0.0989314)
(-1.42265e-05 -8.2168e-07 0.0884434)
(-1.84597e-05 3.26218e-07 0.0988775)
(1.39861e-05 1.7032e-06 0.0884992)
(7.12161e-06 -9.36003e-06 0.0945335)
(9.4842e-06 -7.46984e-06 0.0945351)
(4.25119e-06 -7.52286e-06 0.0757409)
(-4.69817e-07 2.34596e-05 0.103402)
(7.95561e-08 -8.40093e-07 0.105051)
(-9.56931e-06 -2.10392e-05 0.0996525)
(-1.02582e-06 -1.03264e-06 0.104893)
(4.01296e-07 -2.36676e-05 0.103373)
(4.13072e-08 -8.19942e-07 0.105051)
(1.07532e-05 2.03042e-05 0.0997261)
(2.66489e-07 1.88182e-05 0.0989306)
(1.13935e-06 -1.43399e-05 0.0884437)
(-2.20687e-07 -1.83764e-05 0.0988748)
(-3.68899e-07 1.88808e-05 0.0989331)
(-8.7118e-07 -1.42124e-05 0.0884416)
(4.25834e-07 -1.82058e-05 0.098875)
(1.78729e-06 1.41109e-05 0.0884986)
(-7.35721e-06 -4.08787e-06 0.0757445)
(7.14618e-06 4.35363e-06 0.0758024)
(-4.14495e-06 -7.15843e-06 0.075732)
(4.29517e-06 7.48441e-06 0.0757928)
(-1.26688e-06 6.15183e-06 0.0823945)
(2.00063e-07 -5.44478e-06 0.084784)
(-2.12315e-07 -1.87054e-05 0.0975706)
(-3.96905e-07 1.85224e-05 0.0988773)
(-5.22808e-07 5.64773e-06 0.0847468)
(-1.99869e-07 1.79857e-05 0.0975063)
(5.84955e-07 -6.03353e-06 0.0824401)
(7.34753e-07 -6.72757e-06 0.0720373)
(-1.53256e-06 -1.40649e-05 0.0885002)
(-7.39214e-07 1.41633e-05 0.0930595)
(-1.17478e-07 -1.40365e-05 0.0931369)
(-1.21918e-06 6.70872e-06 0.071968)
(-1.53255e-06 6.40877e-06 0.0719698)
(-1.45935e-07 -1.44232e-05 0.0931364)
(8.84188e-07 1.43392e-05 0.0884446)
(-6.91654e-07 1.45114e-05 0.09306)
(4.87373e-07 -6.98918e-06 0.0720393)
(5.38432e-07 -6.19642e-06 0.0824411)
(2.15123e-07 -1.87523e-05 0.0989303)
(-6.89565e-07 5.68602e-06 0.0847466)
(-1.64624e-07 1.82683e-05 0.0975065)
(-3.00792e-08 -5.38474e-06 0.0847837)
(-2.09173e-07 -1.85965e-05 0.0975705)
(-1.18556e-06 6.05712e-06 0.0823944)
(4.28042e-06 -7.092e-06 0.0758047)
(-3.90229e-06 7.47662e-06 0.0757405)
(6.14723e-06 -1.23856e-06 0.0823945)
(-1.87945e-05 -2.40259e-07 0.0975703)
(-5.45685e-06 2.00398e-07 0.0847838)
(1.85086e-05 -3.97101e-07 0.098877)
(1.79736e-05 -1.85174e-07 0.0975061)
(5.63874e-06 -4.82172e-07 0.0847466)
(-6.06658e-06 5.61709e-07 0.0824404)
(-6.78164e-06 7.51552e-07 0.0720393)
(-1.40586e-05 -1.56925e-06 0.0885)
(1.41791e-05 -7.03228e-07 0.0930596)
(-1.39638e-05 -1.06428e-07 0.0931364)
(6.6546e-06 -1.18033e-06 0.0719676)
(6.44867e-06 -1.47961e-06 0.0719695)
(-1.40279e-05 -1.29896e-07 0.0931361)
(1.43447e-05 9.11803e-07 0.0884442)
(1.42966e-05 -6.85514e-07 0.0930599)
(-6.89656e-06 5.44261e-07 0.0720408)
(-6.23765e-06 5.33229e-07 0.0824413)
(-1.87819e-05 2.82589e-07 0.0989299)
(1.8266e-05 -1.36262e-07 0.0975064)
(5.59938e-06 -5.56235e-07 0.0847465)
(-1.86313e-05 -2.11145e-07 0.0975702)
(-5.47384e-06 7.08986e-08 0.0847836)
(6.01531e-06 -1.16033e-06 0.0823945)
(-7.1765e-06 4.32532e-06 0.0758014)
(7.46411e-06 -4.01004e-06 0.0757438)
(-7.85886e-06 -7.85301e-06 0.0910337)
(3.26825e-06 7.2527e-06 0.0726632)
(7.311e-06 3.24617e-06 0.0726563)
(-3.13305e-06 -7.00329e-06 0.0725971)
(-7.00451e-06 -3.15575e-06 0.0725904)
(7.50553e-06 7.50829e-06 0.0910986)
(2.24971e-05 8.74589e-06 0.0989199)
(-2.78672e-05 -1.29337e-05 0.10209)
(6.80681e-06 9.35372e-06 0.0946026)
(-5.53758e-06 -4.40207e-06 0.0874853)
(2.74782e-05 1.17777e-05 0.102133)
(5.17431e-06 4.66706e-06 0.0875484)
(-2.21301e-05 -8.93839e-06 0.0988555)
(8.82963e-06 2.25973e-05 0.0989148)
(-1.29655e-05 -2.77771e-05 0.102091)
(9.3936e-06 6.91229e-06 0.0946044)
(-4.45216e-06 -5.48284e-06 0.0874786)
(1.17753e-05 2.74862e-05 0.102134)
(4.69647e-06 5.23325e-06 0.0875405)
(-8.93812e-06 -2.20636e-05 0.0988514)
(-2.21715e-05 -9.09144e-06 0.0988558)
(5.21221e-06 4.89939e-06 0.0875483)
(-7.68605e-06 -9.68273e-06 0.0945342)
(2.75208e-05 1.18779e-05 0.102133)
(-2.78407e-05 -1.28271e-05 0.10209)
(-5.76957e-06 -4.84214e-06 0.0874856)
(2.25591e-05 8.78833e-06 0.09892)
(-9.14659e-06 -2.21688e-05 0.0988517)
(4.87696e-06 5.21158e-06 0.0875401)
(-9.59659e-06 -7.35502e-06 0.0945368)
(1.1866e-05 2.75448e-05 0.102134)
(-1.28786e-05 -2.7817e-05 0.102091)
(-4.8637e-06 -5.81391e-06 0.0874788)
(8.7349e-06 2.25588e-05 0.098915)
(7.55828e-06 7.60785e-06 0.0910994)
(-2.97745e-06 -6.57232e-06 0.0725972)
(-6.6863e-06 -2.90518e-06 0.0725904)
(2.84214e-06 6.89148e-06 0.0726633)
(6.7894e-06 2.88226e-06 0.0726562)
(-7.8258e-06 -7.77403e-06 0.0910343)
(7.11727e-07 -6.7359e-06 0.07204)
(-5.42723e-07 1.45601e-05 0.0930598)
(-1.40495e-06 -1.39576e-05 0.0885)
(-1.3559e-06 6.12425e-06 0.0719696)
(-7.99173e-08 -1.40873e-05 0.0931357)
(6.7833e-07 -6.16975e-06 0.08244)
(3.96388e-07 -1.89382e-05 0.0989302)
(-5.44556e-07 5.60502e-06 0.0847467)
(-5.80526e-08 1.79196e-05 0.0975064)
(-1.35163e-06 5.80579e-06 0.082395)
(2.87536e-07 -5.42834e-06 0.0847829)
(-1.38011e-07 -1.89428e-05 0.0975701)
(3.93484e-06 -6.97571e-06 0.0758003)
(-6.36539e-06 9.76182e-07 0.0720417)
(1.40009e-05 -6.54657e-07 0.0930585)
(-1.37392e-05 -1.26157e-06 0.0884997)
(6.78589e-06 -1.02437e-06 0.0719717)
(-1.42305e-05 -1.65808e-07 0.0931358)
(-6.07701e-06 9.45004e-07 0.0824414)
(-1.88292e-05 4.36293e-07 0.0989303)
(1.82973e-05 9.50847e-08 0.0975059)
(5.64058e-06 -4.05362e-07 0.0847465)
(6.0848e-06 -8.49764e-07 0.0823946)
(-1.84103e-05 6.15015e-08 0.09757)
(-5.36196e-06 2.80503e-07 0.0847835)
(-6.76453e-06 3.99183e-06 0.075797)
(-8.01861e-06 -8.02247e-06 0.0910333)
(2.94653e-06 6.9489e-06 0.0726644)
(6.94091e-06 2.97963e-06 0.0726574)
(-2.81852e-06 -6.72589e-06 0.072599)
(-6.7563e-06 -2.78449e-06 0.0725923)
(7.57263e-06 7.58291e-06 0.0910971)
(2.25257e-05 8.70055e-06 0.0989197)
(-2.77724e-05 -1.28713e-05 0.10209)
(-5.53566e-06 -4.51385e-06 0.0874855)
(6.77746e-06 9.22033e-06 0.0946027)
(-2.2059e-05 -8.86126e-06 0.0988552)
(2.74869e-05 1.17458e-05 0.102133)
(5.13862e-06 4.58968e-06 0.0875482)
(8.79396e-06 2.25833e-05 0.0989146)
(-1.28678e-05 -2.76823e-05 0.102091)
(-4.53573e-06 -5.47979e-06 0.0874786)
(9.2483e-06 6.86004e-06 0.0946051)
(-8.96419e-06 -2.2163e-05 0.098851)
(1.17813e-05 2.75502e-05 0.102134)
(4.59362e-06 5.24936e-06 0.0875403)
(7.69367e-06 7.71029e-06 0.0910995)
(-3.05698e-06 -6.63081e-06 0.0725987)
(-6.6728e-06 -3.02371e-06 0.072592)
(-7.66406e-06 -7.6662e-06 0.0910338)
(2.87688e-06 6.95649e-06 0.0726634)
(6.89627e-06 2.92859e-06 0.0726564)
(-2.20175e-05 -8.96413e-06 0.0988554)
(5.20769e-06 4.71821e-06 0.0875476)
(-7.57599e-06 -9.63039e-06 0.0945341)
(2.75646e-05 1.18204e-05 0.102134)
(-2.76497e-05 -1.28278e-05 0.10209)
(-5.52081e-06 -4.56783e-06 0.087486)
(2.2528e-05 8.67206e-06 0.0989194)
(-8.81054e-06 -2.19214e-05 0.0988512)
(4.76529e-06 5.25466e-06 0.0875399)
(-9.79916e-06 -7.80185e-06 0.0945371)
(1.18897e-05 2.76001e-05 0.102134)
(-1.27974e-05 -2.75643e-05 0.102091)
(-4.5971e-06 -5.48466e-06 0.0874791)
(8.92641e-06 2.26439e-05 0.0989143)
(-4.27365e-06 -7.3033e-06 0.0758027)
(4.15393e-06 7.40773e-06 0.0757438)
(-7.29646e-06 -4.29848e-06 0.0758013)
(7.42965e-06 4.19614e-06 0.0757422)
(7.95484e-06 7.92605e-06 0.0910335)
(-7.24881e-06 -3.28704e-06 0.0726623)
(-3.2733e-06 -7.27061e-06 0.0726555)
(6.72417e-06 2.83134e-06 0.0725967)
(2.86232e-06 6.69646e-06 0.0725902)
(-7.58826e-06 -7.62014e-06 0.0911002)
(-8.76831e-06 -2.25904e-05 0.0989217)
(1.29177e-05 2.78125e-05 0.102091)
(-9.31383e-06 -6.86622e-06 0.094605)
(4.52359e-06 5.48758e-06 0.0874852)
(-4.66768e-06 -5.17538e-06 0.08755)
(-1.1739e-05 -2.74878e-05 0.102135)
(8.96969e-06 2.20885e-05 0.0988556)
(-2.25817e-05 -8.81825e-06 0.0989168)
(2.78111e-05 1.28899e-05 0.102089)
(-6.91846e-06 -9.39999e-06 0.0946017)
(5.56439e-06 4.51757e-06 0.0874804)
(-5.2179e-06 -4.7195e-06 0.0875438)
(-2.7492e-05 -1.1776e-05 0.102133)
(2.20925e-05 8.92603e-06 0.0988513)
(9.06885e-06 2.20847e-05 0.0988557)
(-4.86596e-06 -5.24298e-06 0.0875498)
(9.63393e-06 7.51241e-06 0.0945351)
(-1.17491e-05 -2.75208e-05 0.102135)
(4.61339e-06 5.55197e-06 0.0874855)
(-8.70165e-06 -2.24995e-05 0.0989218)
(1.29156e-05 2.77662e-05 0.102091)
(2.20927e-05 9.06982e-06 0.0988514)
(-5.28904e-06 -4.91902e-06 0.0875435)
(7.62237e-06 9.66773e-06 0.0945339)
(-2.75363e-05 -1.18125e-05 0.102133)
(5.63859e-06 4.61021e-06 0.0874807)
(-2.24897e-05 -8.74498e-06 0.0989169)
(2.7752e-05 1.28829e-05 0.102089)
(-7.44754e-06 -7.47727e-06 0.0911015)
(6.71983e-06 3.06784e-06 0.0725958)
(3.09818e-06 6.69491e-06 0.0725893)
(-6.95798e-06 -2.93901e-06 0.0726616)
(-2.92873e-06 -6.98813e-06 0.0726548)
(7.98877e-06 7.9524e-06 0.0910344)
(4.21513e-06 7.5424e-06 0.0757424)
(-4.17418e-06 -7.22724e-06 0.0758026)
(7.34741e-06 4.12428e-06 0.075742)
(-7.39935e-06 -4.26338e-06 0.0758014)
(-7.78951e-06 -7.83885e-06 0.0911003)
(6.80264e-06 3.09731e-06 0.0725975)
(3.12445e-06 6.75641e-06 0.0725909)
(7.84723e-06 7.81351e-06 0.0910331)
(-6.6689e-06 -2.73238e-06 0.0726618)
(-2.70563e-06 -6.72242e-06 0.072655)
(9.14059e-06 2.22298e-05 0.0988553)
(-1.15956e-05 -2.73199e-05 0.102135)
(9.41055e-06 7.24756e-06 0.0945347)
(-4.5819e-06 -5.15712e-06 0.0875496)
(4.4328e-06 5.30331e-06 0.087485)
(1.29963e-05 2.77972e-05 0.102091)
(-8.47482e-06 -2.22688e-05 0.0989212)
(2.22263e-05 9.08266e-06 0.098851)
(-2.72371e-05 -1.16277e-05 0.102133)
(7.07499e-06 9.31222e-06 0.0945331)
(-5.03915e-06 -4.66015e-06 0.0875432)
(5.43939e-06 4.39545e-06 0.0874804)
(2.78331e-05 1.29681e-05 0.102089)
(-2.21985e-05 -8.47592e-06 0.0989164)
(-8.55156e-06 -2.24264e-05 0.098922)
(4.54487e-06 5.48043e-06 0.0874847)
(1.29491e-05 2.78037e-05 0.102091)
(-9.40661e-06 -7.17022e-06 0.0946056)
(9.14574e-06 2.22938e-05 0.098856)
(-4.57495e-06 -5.28264e-06 0.08755)
(-1.17106e-05 -2.75268e-05 0.102135)
(-2.24055e-05 -8.63412e-06 0.0989172)
(5.56954e-06 4.55351e-06 0.0874798)
(2.77754e-05 1.28961e-05 0.102089)
(-6.91512e-06 -9.40187e-06 0.0946023)
(2.23096e-05 9.14825e-06 0.0988517)
(-5.32685e-06 -4.66583e-06 0.0875438)
(-2.75211e-05 -1.17712e-05 0.102133)
(7.86134e-06 7.82842e-06 0.0910332)
(-6.82274e-06 -2.6709e-06 0.0726621)
(-2.58891e-06 -6.9169e-06 0.0726553)
(6.77097e-06 2.98029e-06 0.0725973)
(3.00719e-06 6.77228e-06 0.0725908)
(-7.67763e-06 -7.7509e-06 0.0911)
(1.48258e-07 6.67568e-06 0.0823888)
(-3.9189e-07 -5.35725e-06 0.0847831)
(1.56586e-07 -1.85086e-05 0.0975715)
(3.67716e-07 1.86451e-05 0.0988777)
(1.40011e-07 5.73773e-06 0.084746)
(3.8982e-08 1.83499e-05 0.0975075)
(-1.43147e-06 -5.7024e-06 0.082434)
(-1.43499e-06 -5.51966e-06 0.072051)
(1.68858e-06 -1.38444e-05 0.0885015)
(1.06998e-06 1.325e-05 0.0930544)
(3.30322e-07 -1.45205e-05 0.093131)
(6.01083e-07 7.97034e-06 0.0719834)
(7.39098e-07 7.72038e-06 0.0719774)
(2.57579e-07 -1.47557e-05 0.0931327)
(-6.76166e-07 1.43823e-05 0.0884434)
(9.69991e-07 1.36213e-05 0.0930565)
(-1.22384e-06 -5.92511e-06 0.0720444)
(-1.67573e-06 -5.58861e-06 0.082435)
(-3.01169e-07 -1.86874e-05 0.0989306)
(7.69716e-08 5.75249e-06 0.0847459)
(-6.36115e-08 1.84982e-05 0.0975071)
(-4.77205e-07 -5.31183e-06 0.0847829)
(-3.10955e-09 -1.83782e-05 0.0975709)
(6.45633e-09 6.72615e-06 0.0823892)
(1.06582e-06 -5.82987e-06 0.08244)
(-2.54545e-07 5.58702e-06 0.0847468)
(-4.65118e-08 1.81003e-05 0.0975066)
(2.36666e-07 -1.88694e-05 0.0989303)
(-7.65612e-07 6.38621e-06 0.0823946)
(3.29778e-07 -5.42554e-06 0.0847837)
(-1.34833e-07 -1.85262e-05 0.0975709)
(-1.19426e-06 6.89954e-06 0.0719684)
(1.02488e-06 1.43724e-05 0.0884439)
(-1.19522e-09 -1.40906e-05 0.0931378)
(9.54513e-07 -6.62703e-06 0.0720363)
(-6.45708e-07 1.38176e-05 0.0930599)
(9.11273e-07 -6.18058e-06 0.0720376)
(-7.2531e-07 1.3734e-05 0.0930591)
(-1.53019e-06 -1.39704e-05 0.0885007)
(-1.25975e-06 6.80124e-06 0.0719698)
(-1.88985e-07 -1.42448e-05 0.0931372)
(-7.76857e-07 6.29764e-06 0.0823938)
(-3.59742e-07 1.83303e-05 0.0988779)
(1.06685e-07 -5.39593e-06 0.0847843)
(-5.33756e-08 -1.84069e-05 0.0975714)
(8.14642e-07 -6.14578e-06 0.0824402)
(-3.0445e-07 5.61124e-06 0.0847474)
(-3.40296e-08 1.81441e-05 0.0975073)
(-1.00362e-06 -5.88849e-06 0.0824341)
(2.55657e-07 5.67623e-06 0.084746)
(1.04046e-07 1.81635e-05 0.0975079)
(-2.02109e-07 -1.87565e-05 0.0989307)
(3.49984e-07 6.47938e-06 0.0823887)
(-2.77115e-07 -5.38234e-06 0.084783)
(2.84901e-07 -1.86457e-05 0.0975719)
(1.18683e-06 6.75463e-06 0.0719717)
(-1.18018e-06 1.4181e-05 0.0884422)
(-1.17407e-07 -1.37443e-05 0.0931347)
(5.70562e-07 1.40159e-05 0.0930581)
(-7.25806e-07 -6.8898e-06 0.0720416)
(-8.67787e-07 -6.39833e-06 0.0720417)
(7.68249e-07 1.36637e-05 0.0930569)
(1.50272e-06 -1.42072e-05 0.0885011)
(8.16299e-07 7.27915e-06 0.0719726)
(8.76307e-08 -1.43076e-05 0.0931345)
(7.99288e-07 6.26602e-06 0.0823884)
(3.57538e-07 1.84576e-05 0.0988782)
(-2.13057e-07 -5.34484e-06 0.084783)
(2.41074e-07 -1.8917e-05 0.0975721)
(3.33555e-07 5.64649e-06 0.0847466)
(1.52898e-07 1.80347e-05 0.0975087)
(-6.55997e-07 -6.12696e-06 0.0824339)
(-7.65901e-06 7.63113e-06 0.0910324)
(6.91627e-06 -2.98084e-06 0.0726577)
(2.94397e-06 -6.94651e-06 0.0726631)
(-6.48348e-06 2.58628e-06 0.0725932)
(-2.62432e-06 6.44069e-06 0.0725984)
(7.58933e-06 -7.63465e-06 0.0910994)