/*--------------------------------*- C++ -*----------------------------------*\
| =========                 |                                                 |
| \\      /  F ield         | OpenFOAM: The Open Source CFD Toolbox           |
|  \\    /   O peration     | Version:                                        |
|   \\  /    A nd           | Website:  www.openfoam.com                      |
|    \\/     M anipulation  |                                                 |
\*---------------------------------------------------------------------------*/
FoamFile
{
    version     2.0;
    format      ascii;
    class       volScalarField;
    location    "350.5";
    object      p;
}
// * * * * * * * * * * * * * * * * * * * * * * * * * * * * * * * * * * * * * //

dimensions      [0 2 -2 0 0 0 0];


internalField   nonuniform List<scalar> 
247096
(
5.10935e-07
5.10943e-07
5.10961e-07
5.10964e-07
5.10958e-07
5.10965e-07
5.10958e-07
5.10937e-07
5.10943e-07
5.10961e-07
5.10916e-07
5.10855e-07
5.10832e-07
5.10861e-07
5.10924e-07
5.10962e-07
5.10961e-07
5.10916e-07
5.10795e-07
5.10696e-07
5.10662e-07
5.10705e-07
5.1081e-07
5.10928e-07
5.10955e-07
5.10964e-07
5.10855e-07
5.10696e-07
5.10576e-07
5.10537e-07
5.10587e-07
5.10714e-07
5.10873e-07
5.10966e-07
5.10936e-07
5.10958e-07
5.10832e-07
5.10662e-07
5.10537e-07
5.10496e-07
5.10548e-07
5.10682e-07
5.10852e-07
5.10962e-07
5.10965e-07
5.10861e-07
5.10705e-07
5.10587e-07
5.10548e-07
5.10598e-07
5.10724e-07
5.1088e-07
5.10967e-07
5.10958e-07
5.10924e-07
5.1081e-07
5.10714e-07
5.10682e-07
5.10724e-07
5.10826e-07
5.10936e-07
5.10954e-07
5.10937e-07
5.10962e-07
5.10928e-07
5.10873e-07
5.10852e-07
5.1088e-07
5.10936e-07
5.10962e-07
5.10955e-07
5.10966e-07
5.10963e-07
5.10967e-07
5.10954e-07
5.04144e-07
5.04105e-07
5.04065e-07
5.03727e-07
5.03706e-07
5.03712e-07
5.03712e-07
5.04089e-07
5.04047e-07
5.04065e-07
5.03644e-07
5.02876e-07
5.0287e-07
5.0287e-07
5.02876e-07
5.03637e-07
5.03763e-07
5.03727e-07
5.02876e-07
5.02869e-07
5.02867e-07
5.02867e-07
5.02869e-07
5.02876e-07
5.03761e-07
5.04134e-07
5.04144e-07
5.03706e-07
5.0287e-07
5.02867e-07
5.02867e-07
5.02867e-07
5.02867e-07
5.0287e-07
5.03728e-07
5.04112e-07
5.04104e-07
5.03712e-07
5.0287e-07
5.02867e-07
5.02867e-07
5.02867e-07
5.02867e-07
5.0287e-07
5.03716e-07
5.03809e-07
5.03712e-07
5.02876e-07
5.02869e-07
5.02867e-07
5.02867e-07
5.02869e-07
5.02876e-07
5.03742e-07
5.04132e-07
5.04089e-07
5.03637e-07
5.02876e-07
5.0287e-07
5.0287e-07
5.02876e-07
5.03598e-07
5.03771e-07
5.04131e-07
5.04047e-07
5.03763e-07
5.03761e-07
5.03728e-07
5.03716e-07
5.03742e-07
5.03771e-07
5.04086e-07
5.04134e-07
5.04112e-07
5.03809e-07
5.04132e-07
5.04131e-07
4.98773e-07
4.98762e-07
4.98742e-07
4.98389e-07
4.98372e-07
4.98368e-07
4.9838e-07
4.98763e-07
4.98727e-07
4.98742e-07
4.98298e-07
4.97459e-07
4.97461e-07
4.97461e-07
4.97459e-07
4.98285e-07
4.98422e-07
4.98389e-07
4.97459e-07
4.97465e-07
4.97466e-07
4.97466e-07
4.97465e-07
4.97459e-07
4.98408e-07
4.98799e-07
4.98773e-07
4.98372e-07
4.97461e-07
4.97466e-07
4.97467e-07
4.97467e-07
4.97466e-07
4.97461e-07
4.98373e-07
4.98756e-07
4.98762e-07
4.98368e-07
4.97461e-07
4.97466e-07
4.97467e-07
4.97467e-07
4.97466e-07
4.97461e-07
4.98364e-07
4.98463e-07
4.9838e-07
4.97459e-07
4.97465e-07
4.97466e-07
4.97466e-07
4.97465e-07
4.97459e-07
4.98387e-07
4.98775e-07
4.98763e-07
4.98285e-07
4.97459e-07
4.97461e-07
4.97461e-07
4.97459e-07
4.98241e-07
4.98425e-07
4.98804e-07
4.98727e-07
4.98422e-07
4.98408e-07
4.98373e-07
4.98364e-07
4.98387e-07
4.98425e-07
4.98758e-07
4.98799e-07
4.98756e-07
4.98463e-07
4.98775e-07
4.98804e-07
4.93385e-07
4.93374e-07
4.93354e-07
4.93e-07
4.92982e-07
4.92979e-07
4.9299e-07
4.93375e-07
4.93339e-07
4.93354e-07
4.92908e-07
4.92064e-07
4.92066e-07
4.92066e-07
4.92064e-07
4.92894e-07
4.93033e-07
4.93e-07
4.92064e-07
4.9207e-07
4.9207e-07
4.9207e-07
4.9207e-07
4.92064e-07
4.93018e-07
4.93411e-07
4.93385e-07
4.92982e-07
4.92066e-07
4.9207e-07
4.92071e-07
4.92071e-07
4.9207e-07
4.92066e-07
4.92983e-07
4.93368e-07
4.93374e-07
4.92979e-07
4.92066e-07
4.9207e-07
4.92071e-07
4.92071e-07
4.9207e-07
4.92066e-07
4.92974e-07
4.93074e-07
4.9299e-07
4.92064e-07
4.9207e-07
4.9207e-07
4.9207e-07
4.9207e-07
4.92064e-07
4.92997e-07
4.93387e-07
4.93375e-07
4.92894e-07
4.92064e-07
4.92066e-07
4.92066e-07
4.92064e-07
4.9285e-07
4.93036e-07
4.93416e-07
4.93339e-07
4.93033e-07
4.93018e-07
4.92983e-07
4.92974e-07
4.92997e-07
4.93036e-07
4.9337e-07
4.93411e-07
4.93368e-07
4.93074e-07
4.93387e-07
4.93416e-07
4.87993e-07
4.87981e-07
4.8796e-07
4.87606e-07
4.87589e-07
4.87585e-07
4.87597e-07
4.87982e-07
4.87946e-07
4.8796e-07
4.87514e-07
4.86669e-07
4.86671e-07
4.86671e-07
4.86669e-07
4.87501e-07
4.87639e-07
4.87606e-07
4.86669e-07
4.86676e-07
4.86675e-07
4.86675e-07
4.86676e-07
4.86669e-07
4.87625e-07
4.88018e-07
4.87993e-07
4.87589e-07
4.86671e-07
4.86675e-07
4.86675e-07
4.86675e-07
4.86675e-07
4.86671e-07
4.8759e-07
4.87976e-07
4.87981e-07
4.87585e-07
4.86671e-07
4.86675e-07
4.86675e-07
4.86675e-07
4.86675e-07
4.86671e-07
4.87581e-07
4.87681e-07
4.87597e-07
4.86669e-07
4.86676e-07
4.86675e-07
4.86675e-07
4.86675e-07
4.86669e-07
4.87604e-07
4.87994e-07
4.87982e-07
4.87501e-07
4.86669e-07
4.86671e-07
4.86671e-07
4.86669e-07
4.87457e-07
4.87643e-07
4.88023e-07
4.87946e-07
4.87639e-07
4.87625e-07
4.8759e-07
4.87581e-07
4.87604e-07
4.87643e-07
4.87977e-07
4.88018e-07
4.87976e-07
4.87681e-07
4.87994e-07
4.88023e-07
4.82599e-07
4.82588e-07
4.82567e-07
4.82213e-07
4.82196e-07
4.82192e-07
4.82204e-07
4.82589e-07
4.82553e-07
4.82567e-07
4.82121e-07
4.81275e-07
4.81277e-07
4.81277e-07
4.81275e-07
4.82107e-07
4.82246e-07
4.82213e-07
4.81275e-07
4.81283e-07
4.81281e-07
4.81281e-07
4.81283e-07
4.81275e-07
4.82232e-07
4.82625e-07
4.82599e-07
4.82196e-07
4.81277e-07
4.81281e-07
4.81281e-07
4.81281e-07
4.81281e-07
4.81277e-07
4.82197e-07
4.82582e-07
4.82588e-07
4.82192e-07
4.81277e-07
4.81281e-07
4.81281e-07
4.81281e-07
4.81281e-07
4.81277e-07
4.82188e-07
4.82288e-07
4.82204e-07
4.81275e-07
4.81283e-07
4.81281e-07
4.81281e-07
4.81283e-07
4.81275e-07
4.8221e-07
4.82601e-07
4.82589e-07
4.82107e-07
4.81275e-07
4.81277e-07
4.81277e-07
4.81275e-07
4.82064e-07
4.82249e-07
4.8263e-07
4.82553e-07
4.82246e-07
4.82232e-07
4.82196e-07
4.82188e-07
4.8221e-07
4.8225e-07
4.82583e-07
4.82625e-07
4.82582e-07
4.82288e-07
4.82601e-07
4.8263e-07
4.77206e-07
4.77195e-07
4.77174e-07
4.76819e-07
4.76802e-07
4.76798e-07
4.7681e-07
4.77195e-07
4.77159e-07
4.77174e-07
4.76727e-07
4.75882e-07
4.75884e-07
4.75884e-07
4.75882e-07
4.76714e-07
4.76853e-07
4.7682e-07
4.75882e-07
4.7589e-07
4.75887e-07
4.75887e-07
4.7589e-07
4.75882e-07
4.76838e-07
4.77232e-07
4.77206e-07
4.76802e-07
4.75884e-07
4.75887e-07
4.75886e-07
4.75886e-07
4.75887e-07
4.75884e-07
4.76803e-07
4.77189e-07
4.77195e-07
4.76798e-07
4.75884e-07
4.75887e-07
4.75886e-07
4.75886e-07
4.75887e-07
4.75884e-07
4.76794e-07
4.76895e-07
4.7681e-07
4.75882e-07
4.7589e-07
4.75887e-07
4.75887e-07
4.7589e-07
4.75882e-07
4.76817e-07
4.77208e-07
4.77195e-07
4.76714e-07
4.75882e-07
4.75884e-07
4.75884e-07
4.75882e-07
4.7667e-07
4.76856e-07
4.77237e-07
4.77159e-07
4.76853e-07
4.76838e-07
4.76803e-07
4.76794e-07
4.76817e-07
4.76856e-07
4.7719e-07
4.77232e-07
4.77189e-07
4.76895e-07
4.77208e-07
4.77237e-07
4.71813e-07
4.71801e-07
4.7178e-07
4.71426e-07
4.71409e-07
4.71405e-07
4.71417e-07
4.71802e-07
4.71766e-07
4.7178e-07
4.71334e-07
4.70489e-07
4.7049e-07
4.7049e-07
4.70489e-07
4.7132e-07
4.71459e-07
4.71426e-07
4.70489e-07
4.70496e-07
4.70494e-07
4.70494e-07
4.70496e-07
4.70489e-07
4.71445e-07
4.71838e-07
4.71813e-07
4.71409e-07
4.7049e-07
4.70494e-07
4.70492e-07
4.70492e-07
4.70494e-07
4.7049e-07
4.7141e-07
4.71796e-07
4.71801e-07
4.71405e-07
4.7049e-07
4.70494e-07
4.70492e-07
4.70492e-07
4.70494e-07
4.7049e-07
4.71401e-07
4.71501e-07
4.71417e-07
4.70489e-07
4.70496e-07
4.70494e-07
4.70494e-07
4.70496e-07
4.70489e-07
4.71424e-07
4.71814e-07
4.71802e-07
4.7132e-07
4.70489e-07
4.7049e-07
4.7049e-07
4.70489e-07
4.71277e-07
4.71463e-07
4.71843e-07
4.71766e-07
4.71459e-07
4.71445e-07
4.7141e-07
4.71401e-07
4.71424e-07
4.71463e-07
4.71797e-07
4.71838e-07
4.71796e-07
4.71501e-07
4.71814e-07
4.71843e-07
4.6642e-07
4.66408e-07
4.66388e-07
4.66033e-07
4.66016e-07
4.66012e-07
4.66024e-07
4.66409e-07
4.66373e-07
4.66388e-07
4.65941e-07
4.65095e-07
4.65097e-07
4.65097e-07
4.65095e-07
4.65927e-07
4.66066e-07
4.66033e-07
4.65095e-07
4.65103e-07
4.651e-07
4.651e-07
4.65103e-07
4.65095e-07
4.66052e-07
4.66445e-07
4.6642e-07
4.66016e-07
4.65097e-07
4.651e-07
4.65099e-07
4.65099e-07
4.651e-07
4.65097e-07
4.66017e-07
4.66403e-07
4.66408e-07
4.66012e-07
4.65097e-07
4.651e-07
4.65099e-07
4.65099e-07
4.651e-07
4.65097e-07
4.66008e-07
4.66108e-07
4.66024e-07
4.65095e-07
4.65103e-07
4.651e-07
4.651e-07
4.65103e-07
4.65095e-07
4.66031e-07
4.66421e-07
4.66409e-07
4.65927e-07
4.65095e-07
4.65097e-07
4.65097e-07
4.65095e-07
4.65884e-07
4.6607e-07
4.6645e-07
4.66373e-07
4.66066e-07
4.66052e-07
4.66017e-07
4.66008e-07
4.66031e-07
4.6607e-07
4.66404e-07
4.66445e-07
4.66403e-07
4.66108e-07
4.66421e-07
4.6645e-07
4.61026e-07
4.61015e-07
4.60994e-07
4.6064e-07
4.60622e-07
4.60619e-07
4.6063e-07
4.61015e-07
4.60979e-07
4.60994e-07
4.60548e-07
4.59702e-07
4.59703e-07
4.59703e-07
4.59702e-07
4.60534e-07
4.60673e-07
4.6064e-07
4.59702e-07
4.5971e-07
4.59707e-07
4.59707e-07
4.5971e-07
4.59702e-07
4.60658e-07
4.61052e-07
4.61026e-07
4.60622e-07
4.59703e-07
4.59707e-07
4.59705e-07
4.59705e-07
4.59707e-07
4.59703e-07
4.60623e-07
4.61009e-07
4.61015e-07
4.60619e-07
4.59703e-07
4.59707e-07
4.59705e-07
4.59705e-07
4.59707e-07
4.59703e-07
4.60614e-07
4.60715e-07
4.6063e-07
4.59702e-07
4.5971e-07
4.59707e-07
4.59707e-07
4.5971e-07
4.59702e-07
4.60637e-07
4.61028e-07
4.61015e-07
4.60534e-07
4.59702e-07
4.59703e-07
4.59703e-07
4.59702e-07
4.6049e-07
4.60676e-07
4.61057e-07
4.60979e-07
4.60673e-07
4.60658e-07
4.60623e-07
4.60614e-07
4.60637e-07
4.60676e-07
4.6101e-07
4.61052e-07
4.61009e-07
4.60715e-07
4.61028e-07
4.61057e-07
4.55632e-07
4.55621e-07
4.556e-07
4.55246e-07
4.55229e-07
4.55225e-07
4.55237e-07
4.55622e-07
4.55586e-07
4.556e-07
4.55154e-07
4.54308e-07
4.5431e-07
4.5431e-07
4.54308e-07
4.5514e-07
4.55279e-07
4.55246e-07
4.54308e-07
4.54316e-07
4.54314e-07
4.54314e-07
4.54316e-07
4.54308e-07
4.55265e-07
4.55658e-07
4.55632e-07
4.55229e-07
4.5431e-07
4.54314e-07
4.54312e-07
4.54312e-07
4.54314e-07
4.5431e-07
4.5523e-07
4.55616e-07
4.55621e-07
4.55225e-07
4.5431e-07
4.54314e-07
4.54312e-07
4.54312e-07
4.54314e-07
4.5431e-07
4.55221e-07
4.55321e-07
4.55237e-07
4.54308e-07
4.54316e-07
4.54314e-07
4.54314e-07
4.54316e-07
4.54308e-07
4.55244e-07
4.55634e-07
4.55622e-07
4.5514e-07
4.54308e-07
4.5431e-07
4.5431e-07
4.54308e-07
4.55097e-07
4.55283e-07
4.55663e-07
4.55586e-07
4.55279e-07
4.55265e-07
4.5523e-07
4.55221e-07
4.55244e-07
4.55283e-07
4.55617e-07
4.55658e-07
4.55616e-07
4.55321e-07
4.55634e-07
4.55663e-07
4.50239e-07
4.50228e-07
4.50207e-07
4.49853e-07
4.49836e-07
4.49832e-07
4.49844e-07
4.50229e-07
4.50193e-07
4.50207e-07
4.49761e-07
4.48915e-07
4.48917e-07
4.48917e-07
4.48915e-07
4.49747e-07
4.49886e-07
4.49853e-07
4.48915e-07
4.48923e-07
4.4892e-07
4.4892e-07
4.48923e-07
4.48915e-07
4.49872e-07
4.50265e-07
4.50239e-07
4.49836e-07
4.48917e-07
4.4892e-07
4.48919e-07
4.48919e-07
4.4892e-07
4.48917e-07
4.49837e-07
4.50222e-07
4.50228e-07
4.49832e-07
4.48917e-07
4.4892e-07
4.48919e-07
4.48919e-07
4.4892e-07
4.48917e-07
4.49828e-07
4.49928e-07
4.49844e-07
4.48915e-07
4.48923e-07
4.4892e-07
4.4892e-07
4.48923e-07
4.48915e-07
4.4985e-07
4.50241e-07
4.50229e-07
4.49747e-07
4.48915e-07
4.48917e-07
4.48917e-07
4.48915e-07
4.49704e-07
4.4989e-07
4.5027e-07
4.50193e-07
4.49886e-07
4.49872e-07
4.49837e-07
4.49828e-07
4.4985e-07
4.4989e-07
4.50224e-07
4.50265e-07
4.50222e-07
4.49928e-07
4.50241e-07
4.5027e-07
4.44846e-07
4.44835e-07
4.44814e-07
4.4446e-07
4.44443e-07
4.44439e-07
4.44451e-07
4.44836e-07
4.448e-07
4.44814e-07
4.44368e-07
4.43522e-07
4.43524e-07
4.43524e-07
4.43522e-07
4.44354e-07
4.44493e-07
4.4446e-07
4.43522e-07
4.4353e-07
4.43527e-07
4.43527e-07
4.4353e-07
4.43522e-07
4.44479e-07
4.44872e-07
4.44846e-07
4.44443e-07
4.43524e-07
4.43527e-07
4.43526e-07
4.43526e-07
4.43527e-07
4.43524e-07
4.44443e-07
4.44829e-07
4.44835e-07
4.44439e-07
4.43524e-07
4.43527e-07
4.43526e-07
4.43526e-07
4.43527e-07
4.43524e-07
4.44434e-07
4.44535e-07
4.44451e-07
4.43522e-07
4.4353e-07
4.43527e-07
4.43527e-07
4.4353e-07
4.43522e-07
4.44457e-07
4.44848e-07
4.44836e-07
4.44354e-07
4.43522e-07
4.43524e-07
4.43524e-07
4.43522e-07
4.4431e-07
4.44497e-07
4.44877e-07
4.448e-07
4.44493e-07
4.44479e-07
4.44443e-07
4.44434e-07
4.44457e-07
4.44497e-07
4.44831e-07
4.44872e-07
4.44829e-07
4.44535e-07
4.44848e-07
4.44877e-07
4.39453e-07
4.39442e-07
4.39421e-07
4.39066e-07
4.39049e-07
4.39045e-07
4.39057e-07
4.39442e-07
4.39406e-07
4.39421e-07
4.38974e-07
4.38129e-07
4.3813e-07
4.3813e-07
4.38128e-07
4.3896e-07
4.391e-07
4.39066e-07
4.38129e-07
4.38136e-07
4.38134e-07
4.38134e-07
4.38136e-07
4.38128e-07
4.39085e-07
4.39479e-07
4.39453e-07
4.39049e-07
4.3813e-07
4.38134e-07
4.38132e-07
4.38132e-07
4.38134e-07
4.3813e-07
4.3905e-07
4.39436e-07
4.39442e-07
4.39045e-07
4.3813e-07
4.38134e-07
4.38132e-07
4.38132e-07
4.38134e-07
4.3813e-07
4.39041e-07
4.39141e-07
4.39057e-07
4.38129e-07
4.38136e-07
4.38134e-07
4.38134e-07
4.38136e-07
4.38128e-07
4.39064e-07
4.39454e-07
4.39442e-07
4.3896e-07
4.38129e-07
4.3813e-07
4.3813e-07
4.38128e-07
4.38917e-07
4.39103e-07
4.39483e-07
4.39406e-07
4.391e-07
4.39085e-07
4.3905e-07
4.39041e-07
4.39064e-07
4.39103e-07
4.39437e-07
4.39479e-07
4.39436e-07
4.39142e-07
4.39455e-07
4.39483e-07
4.34059e-07
4.34048e-07
4.34027e-07
4.33673e-07
4.33656e-07
4.33652e-07
4.33664e-07
4.34049e-07
4.34013e-07
4.34027e-07
4.33581e-07
4.32735e-07
4.32737e-07
4.32737e-07
4.32735e-07
4.33567e-07
4.33706e-07
4.33673e-07
4.32735e-07
4.32743e-07
4.3274e-07
4.3274e-07
4.32743e-07
4.32735e-07
4.33692e-07
4.34085e-07
4.34059e-07
4.33656e-07
4.32737e-07
4.3274e-07
4.32739e-07
4.32739e-07
4.3274e-07
4.32737e-07
4.33656e-07
4.34042e-07
4.34048e-07
4.33652e-07
4.32737e-07
4.3274e-07
4.32739e-07
4.32739e-07
4.3274e-07
4.32737e-07
4.33647e-07
4.33748e-07
4.33664e-07
4.32735e-07
4.32743e-07
4.3274e-07
4.3274e-07
4.32743e-07
4.32735e-07
4.3367e-07
4.34061e-07
4.34049e-07
4.33567e-07
4.32735e-07
4.32737e-07
4.32737e-07
4.32735e-07
4.33523e-07
4.33709e-07
4.3409e-07
4.34013e-07
4.33706e-07
4.33692e-07
4.33656e-07
4.33647e-07
4.3367e-07
4.3371e-07
4.34043e-07
4.34085e-07
4.34042e-07
4.33748e-07
4.34061e-07
4.3409e-07
4.28666e-07
4.28655e-07
4.28634e-07
4.28279e-07
4.28262e-07
4.28258e-07
4.2827e-07
4.28655e-07
4.28619e-07
4.28634e-07
4.28187e-07
4.27342e-07
4.27343e-07
4.27343e-07
4.27342e-07
4.28174e-07
4.28313e-07
4.28279e-07
4.27342e-07
4.2735e-07
4.27347e-07
4.27347e-07
4.2735e-07
4.27342e-07
4.28298e-07
4.28692e-07
4.28666e-07
4.28262e-07
4.27343e-07
4.27347e-07
4.27345e-07
4.27345e-07
4.27347e-07
4.27343e-07
4.28263e-07
4.28649e-07
4.28655e-07
4.28258e-07
4.27343e-07
4.27347e-07
4.27345e-07
4.27345e-07
4.27347e-07
4.27343e-07
4.28254e-07
4.28355e-07
4.2827e-07
4.27342e-07
4.2735e-07
4.27347e-07
4.27347e-07
4.2735e-07
4.27342e-07
4.28277e-07
4.28668e-07
4.28655e-07
4.28174e-07
4.27342e-07
4.27343e-07
4.27343e-07
4.27342e-07
4.2813e-07
4.28316e-07
4.28696e-07
4.28619e-07
4.28313e-07
4.28298e-07
4.28263e-07
4.28254e-07
4.28277e-07
4.28316e-07
4.2865e-07
4.28692e-07
4.28649e-07
4.28355e-07
4.28668e-07
4.28696e-07
4.23273e-07
4.23261e-07
4.2324e-07
4.22886e-07
4.22869e-07
4.22865e-07
4.22877e-07
4.23262e-07
4.23226e-07
4.2324e-07
4.22794e-07
4.21948e-07
4.2195e-07
4.2195e-07
4.21948e-07
4.2278e-07
4.22919e-07
4.22886e-07
4.21948e-07
4.21956e-07
4.21954e-07
4.21954e-07
4.21956e-07
4.21948e-07
4.22905e-07
4.23298e-07
4.23273e-07
4.22869e-07
4.2195e-07
4.21954e-07
4.21952e-07
4.21952e-07
4.21954e-07
4.2195e-07
4.2287e-07
4.23256e-07
4.23261e-07
4.22865e-07
4.2195e-07
4.21954e-07
4.21952e-07
4.21952e-07
4.21954e-07
4.2195e-07
4.22861e-07
4.22961e-07
4.22877e-07
4.21948e-07
4.21956e-07
4.21954e-07
4.21954e-07
4.21956e-07
4.21948e-07
4.22884e-07
4.23274e-07
4.23262e-07
4.2278e-07
4.21948e-07
4.2195e-07
4.2195e-07
4.21948e-07
4.22737e-07
4.22923e-07
4.23303e-07
4.23226e-07
4.22919e-07
4.22905e-07
4.2287e-07
4.22861e-07
4.22884e-07
4.22923e-07
4.23257e-07
4.23298e-07
4.23256e-07
4.22961e-07
4.23274e-07
4.23303e-07
4.17879e-07
4.17868e-07
4.17847e-07
4.17493e-07
4.17476e-07
4.17472e-07
4.17484e-07
4.17869e-07
4.17833e-07
4.17847e-07
4.17401e-07
4.16555e-07
4.16557e-07
4.16557e-07
4.16555e-07
4.17387e-07
4.17526e-07
4.17493e-07
4.16555e-07
4.16563e-07
4.1656e-07
4.1656e-07
4.16563e-07
4.16555e-07
4.17512e-07
4.17905e-07
4.17879e-07
4.17476e-07
4.16557e-07
4.1656e-07
4.16559e-07
4.16559e-07
4.1656e-07
4.16557e-07
4.17476e-07
4.17862e-07
4.17868e-07
4.17472e-07
4.16557e-07
4.1656e-07
4.16559e-07
4.16559e-07
4.1656e-07
4.16557e-07
4.17467e-07
4.17568e-07
4.17484e-07
4.16555e-07
4.16563e-07
4.1656e-07
4.1656e-07
4.16563e-07
4.16555e-07
4.1749e-07
4.17881e-07
4.17869e-07
4.17387e-07
4.16555e-07
4.16557e-07
4.16557e-07
4.16555e-07
4.17344e-07
4.1753e-07
4.1791e-07
4.17833e-07
4.17526e-07
4.17512e-07
4.17476e-07
4.17467e-07
4.1749e-07
4.1753e-07
4.17864e-07
4.17905e-07
4.17862e-07
4.17568e-07
4.17881e-07
4.1791e-07
4.12486e-07
4.12475e-07
4.12454e-07
4.12099e-07
4.12082e-07
4.12078e-07
4.1209e-07
4.12475e-07
4.12439e-07
4.12454e-07
4.12007e-07
4.11162e-07
4.11163e-07
4.11163e-07
4.11162e-07
4.11994e-07
4.12133e-07
4.12099e-07
4.11162e-07
4.11169e-07
4.11167e-07
4.11167e-07
4.11169e-07
4.11162e-07
4.12118e-07
4.12512e-07
4.12486e-07
4.12082e-07
4.11163e-07
4.11167e-07
4.11165e-07
4.11165e-07
4.11167e-07
4.11163e-07
4.12083e-07
4.12469e-07
4.12475e-07
4.12078e-07
4.11163e-07
4.11167e-07
4.11165e-07
4.11165e-07
4.11167e-07
4.11163e-07
4.12074e-07
4.12175e-07
4.1209e-07
4.11162e-07
4.11169e-07
4.11167e-07
4.11167e-07
4.11169e-07
4.11162e-07
4.12097e-07
4.12488e-07
4.12475e-07
4.11994e-07
4.11162e-07
4.11163e-07
4.11163e-07
4.11162e-07
4.1195e-07
4.12136e-07
4.12517e-07
4.12439e-07
4.12133e-07
4.12118e-07
4.12083e-07
4.12074e-07
4.12097e-07
4.12136e-07
4.1247e-07
4.12512e-07
4.12469e-07
4.12175e-07
4.12488e-07
4.12517e-07
4.07092e-07
4.07081e-07
4.0706e-07
4.06706e-07
4.06689e-07
4.06685e-07
4.06697e-07
4.07082e-07
4.07046e-07
4.0706e-07
4.06614e-07
4.05768e-07
4.0577e-07
4.0577e-07
4.05768e-07
4.066e-07
4.06739e-07
4.06706e-07
4.05768e-07
4.05776e-07
4.05773e-07
4.05773e-07
4.05776e-07
4.05768e-07
4.06725e-07
4.07118e-07
4.07092e-07
4.06689e-07
4.0577e-07
4.05773e-07
4.05772e-07
4.05772e-07
4.05773e-07
4.0577e-07
4.0669e-07
4.07075e-07
4.07081e-07
4.06685e-07
4.0577e-07
4.05773e-07
4.05772e-07
4.05772e-07
4.05773e-07
4.0577e-07
4.06681e-07
4.06781e-07
4.06697e-07
4.05768e-07
4.05776e-07
4.05773e-07
4.05773e-07
4.05776e-07
4.05768e-07
4.06703e-07
4.07094e-07
4.07082e-07
4.066e-07
4.05768e-07
4.0577e-07
4.0577e-07
4.05768e-07
4.06557e-07
4.06743e-07
4.07123e-07
4.07046e-07
4.06739e-07
4.06725e-07
4.0669e-07
4.06681e-07
4.06703e-07
4.06743e-07
4.07077e-07
4.07118e-07
4.07075e-07
4.06781e-07
4.07094e-07
4.07123e-07
4.01699e-07
4.01688e-07
4.01667e-07
4.01312e-07
4.01295e-07
4.01291e-07
4.01303e-07
4.01688e-07
4.01652e-07
4.01667e-07
4.0122e-07
4.00375e-07
4.00376e-07
4.00376e-07
4.00375e-07
4.01207e-07
4.01346e-07
4.01312e-07
4.00375e-07
4.00383e-07
4.0038e-07
4.0038e-07
4.00383e-07
4.00375e-07
4.01331e-07
4.01725e-07
4.01699e-07
4.01295e-07
4.00376e-07
4.0038e-07
4.00378e-07
4.00378e-07
4.0038e-07
4.00376e-07
4.01296e-07
4.01682e-07
4.01688e-07
4.01291e-07
4.00376e-07
4.0038e-07
4.00378e-07
4.00378e-07
4.0038e-07
4.00376e-07
4.01287e-07
4.01388e-07
4.01303e-07
4.00375e-07
4.00383e-07
4.0038e-07
4.0038e-07
4.00383e-07
4.00375e-07
4.0131e-07
4.01701e-07
4.01688e-07
4.01207e-07
4.00375e-07
4.00376e-07
4.00376e-07
4.00375e-07
4.01163e-07
4.01349e-07
4.0173e-07
4.01652e-07
4.01346e-07
4.01331e-07
4.01296e-07
4.01287e-07
4.0131e-07
4.01349e-07
4.01683e-07
4.01725e-07
4.01682e-07
4.01388e-07
4.01701e-07
4.0173e-07
3.96306e-07
3.96294e-07
3.96274e-07
3.95919e-07
3.95902e-07
3.95898e-07
3.9591e-07
3.96295e-07
3.96259e-07
3.96274e-07
3.95827e-07
3.94981e-07
3.94983e-07
3.94983e-07
3.94981e-07
3.95813e-07
3.95952e-07
3.95919e-07
3.94981e-07
3.94989e-07
3.94987e-07
3.94987e-07
3.94989e-07
3.94981e-07
3.95938e-07
3.96331e-07
3.96306e-07
3.95902e-07
3.94983e-07
3.94987e-07
3.94985e-07
3.94985e-07
3.94987e-07
3.94983e-07
3.95903e-07
3.96289e-07
3.96294e-07
3.95898e-07
3.94983e-07
3.94987e-07
3.94985e-07
3.94985e-07
3.94987e-07
3.94983e-07
3.95894e-07
3.95994e-07
3.9591e-07
3.94981e-07
3.94989e-07
3.94987e-07
3.94987e-07
3.94989e-07
3.94981e-07
3.95917e-07
3.96307e-07
3.96295e-07
3.95813e-07
3.94981e-07
3.94983e-07
3.94983e-07
3.94981e-07
3.9577e-07
3.95956e-07
3.96336e-07
3.96259e-07
3.95952e-07
3.95938e-07
3.95903e-07
3.95894e-07
3.95917e-07
3.95956e-07
3.9629e-07
3.96331e-07
3.96289e-07
3.95994e-07
3.96307e-07
3.96336e-07
3.90912e-07
3.90901e-07
3.9088e-07
3.90526e-07
3.90509e-07
3.90505e-07
3.90517e-07
3.90902e-07
3.90866e-07
3.9088e-07
3.90434e-07
3.89588e-07
3.8959e-07
3.8959e-07
3.89588e-07
3.9042e-07
3.90559e-07
3.90526e-07
3.89588e-07
3.89596e-07
3.89593e-07
3.89593e-07
3.89596e-07
3.89588e-07
3.90545e-07
3.90938e-07
3.90912e-07
3.90509e-07
3.8959e-07
3.89593e-07
3.89592e-07
3.89592e-07
3.89593e-07
3.8959e-07
3.9051e-07
3.90896e-07
3.90901e-07
3.90505e-07
3.8959e-07
3.89593e-07
3.89592e-07
3.89592e-07
3.89593e-07
3.8959e-07
3.90501e-07
3.90601e-07
3.90517e-07
3.89588e-07
3.89596e-07
3.89593e-07
3.89593e-07
3.89596e-07
3.89588e-07
3.90524e-07
3.90914e-07
3.90902e-07
3.9042e-07
3.89588e-07
3.8959e-07
3.8959e-07
3.89588e-07
3.90377e-07
3.90563e-07
3.90943e-07
3.90866e-07
3.90559e-07
3.90545e-07
3.9051e-07
3.90501e-07
3.90524e-07
3.90563e-07
3.90897e-07
3.90938e-07
3.90896e-07
3.90601e-07
3.90914e-07
3.90943e-07
3.85519e-07
3.85508e-07
3.85487e-07
3.85133e-07
3.85115e-07
3.85112e-07
3.85123e-07
3.85508e-07
3.85472e-07
3.85487e-07
3.85041e-07
3.84195e-07
3.84196e-07
3.84196e-07
3.84195e-07
3.85027e-07
3.85166e-07
3.85133e-07
3.84195e-07
3.84203e-07
3.842e-07
3.842e-07
3.84203e-07
3.84195e-07
3.85151e-07
3.85545e-07
3.85519e-07
3.85115e-07
3.84196e-07
3.842e-07
3.84198e-07
3.84198e-07
3.842e-07
3.84196e-07
3.85116e-07
3.85502e-07
3.85508e-07
3.85112e-07
3.84196e-07
3.842e-07
3.84198e-07
3.84198e-07
3.842e-07
3.84196e-07
3.85107e-07
3.85208e-07
3.85123e-07
3.84195e-07
3.84203e-07
3.842e-07
3.842e-07
3.84203e-07
3.84195e-07
3.8513e-07
3.85521e-07
3.85508e-07
3.85027e-07
3.84195e-07
3.84196e-07
3.84196e-07
3.84195e-07
3.84983e-07
3.85169e-07
3.8555e-07
3.85472e-07
3.85166e-07
3.85151e-07
3.85116e-07
3.85107e-07
3.8513e-07
3.85169e-07
3.85503e-07
3.85545e-07
3.85502e-07
3.85208e-07
3.85521e-07
3.8555e-07
3.80126e-07
3.80114e-07
3.80094e-07
3.79739e-07
3.79722e-07
3.79718e-07
3.7973e-07
3.80115e-07
3.80079e-07
3.80094e-07
3.79647e-07
3.78801e-07
3.78803e-07
3.78803e-07
3.78801e-07
3.79633e-07
3.79772e-07
3.79739e-07
3.78801e-07
3.78809e-07
3.78807e-07
3.78807e-07
3.78809e-07
3.78801e-07
3.79758e-07
3.80151e-07
3.80126e-07
3.79722e-07
3.78803e-07
3.78807e-07
3.78805e-07
3.78805e-07
3.78807e-07
3.78803e-07
3.79723e-07
3.80109e-07
3.80114e-07
3.79718e-07
3.78803e-07
3.78807e-07
3.78805e-07
3.78805e-07
3.78807e-07
3.78803e-07
3.79714e-07
3.79814e-07
3.7973e-07
3.78801e-07
3.78809e-07
3.78807e-07
3.78807e-07
3.78809e-07
3.78801e-07
3.79737e-07
3.80127e-07
3.80115e-07
3.79633e-07
3.78801e-07
3.78803e-07
3.78803e-07
3.78801e-07
3.7959e-07
3.79776e-07
3.80156e-07
3.80079e-07
3.79772e-07
3.79758e-07
3.79723e-07
3.79714e-07
3.79737e-07
3.79776e-07
3.8011e-07
3.80152e-07
3.80109e-07
3.79814e-07
3.80127e-07
3.80156e-07
3.74732e-07
3.74721e-07
3.747e-07
3.74346e-07
3.74329e-07
3.74325e-07
3.74337e-07
3.74722e-07
3.74686e-07
3.747e-07
3.74254e-07
3.73408e-07
3.7341e-07
3.7341e-07
3.73408e-07
3.7424e-07
3.74379e-07
3.74346e-07
3.73408e-07
3.73416e-07
3.73413e-07
3.73413e-07
3.73416e-07
3.73408e-07
3.74365e-07
3.74758e-07
3.74732e-07
3.74329e-07
3.7341e-07
3.73413e-07
3.73412e-07
3.73412e-07
3.73413e-07
3.7341e-07
3.74329e-07
3.74715e-07
3.74721e-07
3.74325e-07
3.7341e-07
3.73413e-07
3.73412e-07
3.73412e-07
3.73413e-07
3.7341e-07
3.7432e-07
3.74421e-07
3.74337e-07
3.73408e-07
3.73416e-07
3.73413e-07
3.73413e-07
3.73416e-07
3.73408e-07
3.74343e-07
3.74734e-07
3.74722e-07
3.7424e-07
3.73408e-07
3.7341e-07
3.7341e-07
3.73408e-07
3.74197e-07
3.74382e-07
3.74763e-07
3.74686e-07
3.74379e-07
3.74365e-07
3.74329e-07
3.7432e-07
3.74343e-07
3.74383e-07
3.74716e-07
3.74758e-07
3.74715e-07
3.74421e-07
3.74734e-07
3.74763e-07
3.69339e-07
3.69328e-07
3.69307e-07
3.68953e-07
3.68935e-07
3.68931e-07
3.68943e-07
3.69328e-07
3.69292e-07
3.69307e-07
3.6886e-07
3.68015e-07
3.68016e-07
3.68016e-07
3.68015e-07
3.68847e-07
3.68986e-07
3.68953e-07
3.68015e-07
3.68023e-07
3.6802e-07
3.6802e-07
3.68023e-07
3.68015e-07
3.68971e-07
3.69365e-07
3.69339e-07
3.68935e-07
3.68016e-07
3.6802e-07
3.68018e-07
3.68018e-07
3.6802e-07
3.68016e-07
3.68936e-07
3.69322e-07
3.69328e-07
3.68931e-07
3.68016e-07
3.6802e-07
3.68018e-07
3.68018e-07
3.6802e-07
3.68016e-07
3.68927e-07
3.69028e-07
3.68943e-07
3.68015e-07
3.68023e-07
3.6802e-07
3.6802e-07
3.68023e-07
3.68015e-07
3.6895e-07
3.69341e-07
3.69328e-07
3.68847e-07
3.68015e-07
3.68016e-07
3.68016e-07
3.68015e-07
3.68803e-07
3.68989e-07
3.6937e-07
3.69292e-07
3.68986e-07
3.68971e-07
3.68936e-07
3.68927e-07
3.6895e-07
3.68989e-07
3.69323e-07
3.69365e-07
3.69322e-07
3.69028e-07
3.69341e-07
3.6937e-07
3.63946e-07
3.63934e-07
3.63913e-07
3.63559e-07
3.63542e-07
3.63538e-07
3.6355e-07
3.63935e-07
3.63899e-07
3.63913e-07
3.63467e-07
3.62621e-07
3.62623e-07
3.62623e-07
3.62621e-07
3.63453e-07
3.63592e-07
3.63559e-07
3.62621e-07
3.62629e-07
3.62626e-07
3.62626e-07
3.62629e-07
3.62621e-07
3.63578e-07
3.63971e-07
3.63946e-07
3.63542e-07
3.62623e-07
3.62626e-07
3.62625e-07
3.62625e-07
3.62626e-07
3.62623e-07
3.63543e-07
3.63929e-07
3.63934e-07
3.63538e-07
3.62623e-07
3.62626e-07
3.62625e-07
3.62625e-07
3.62626e-07
3.62623e-07
3.63534e-07
3.63634e-07
3.6355e-07
3.62621e-07
3.62629e-07
3.62626e-07
3.62626e-07
3.62629e-07
3.62621e-07
3.63557e-07
3.63947e-07
3.63935e-07
3.63453e-07
3.62621e-07
3.62623e-07
3.62623e-07
3.62621e-07
3.6341e-07
3.63596e-07
3.63976e-07
3.63899e-07
3.63592e-07
3.63578e-07
3.63543e-07
3.63534e-07
3.63557e-07
3.63596e-07
3.6393e-07
3.63971e-07
3.63929e-07
3.63634e-07
3.63947e-07
3.63976e-07
3.58552e-07
3.58541e-07
3.5852e-07
3.58166e-07
3.58149e-07
3.58145e-07
3.58157e-07
3.58542e-07
3.58506e-07
3.5852e-07
3.58074e-07
3.57228e-07
3.5723e-07
3.5723e-07
3.57228e-07
3.5806e-07
3.58199e-07
3.58166e-07
3.57228e-07
3.57236e-07
3.57233e-07
3.57233e-07
3.57236e-07
3.57228e-07
3.58185e-07
3.58578e-07
3.58552e-07
3.58149e-07
3.5723e-07
3.57233e-07
3.57232e-07
3.57232e-07
3.57233e-07
3.5723e-07
3.58149e-07
3.58535e-07
3.58541e-07
3.58145e-07
3.5723e-07
3.57233e-07
3.57232e-07
3.57232e-07
3.57233e-07
3.5723e-07
3.5814e-07
3.58241e-07
3.58157e-07
3.57228e-07
3.57236e-07
3.57233e-07
3.57233e-07
3.57236e-07
3.57228e-07
3.58163e-07
3.58554e-07
3.58541e-07
3.5806e-07
3.57228e-07
3.5723e-07
3.5723e-07
3.57228e-07
3.58017e-07
3.58203e-07
3.58583e-07
3.58506e-07
3.58199e-07
3.58185e-07
3.58149e-07
3.5814e-07
3.58163e-07
3.58203e-07
3.58536e-07
3.58578e-07
3.58535e-07
3.58241e-07
3.58554e-07
3.58583e-07
3.53159e-07
3.53148e-07
3.53127e-07
3.52772e-07
3.52755e-07
3.52751e-07
3.52763e-07
3.53148e-07
3.53112e-07
3.53127e-07
3.5268e-07
3.51835e-07
3.51836e-07
3.51836e-07
3.51835e-07
3.52667e-07
3.52806e-07
3.52773e-07
3.51835e-07
3.51842e-07
3.5184e-07
3.5184e-07
3.51842e-07
3.51835e-07
3.52791e-07
3.53185e-07
3.53159e-07
3.52755e-07
3.51836e-07
3.5184e-07
3.51838e-07
3.51838e-07
3.5184e-07
3.51836e-07
3.52756e-07
3.53142e-07
3.53148e-07
3.52751e-07
3.51836e-07
3.5184e-07
3.51838e-07
3.51838e-07
3.5184e-07
3.51836e-07
3.52747e-07
3.52848e-07
3.52763e-07
3.51835e-07
3.51842e-07
3.5184e-07
3.5184e-07
3.51842e-07
3.51835e-07
3.5277e-07
3.53161e-07
3.53148e-07
3.52667e-07
3.51835e-07
3.51836e-07
3.51836e-07
3.51835e-07
3.52623e-07
3.52809e-07
3.5319e-07
3.53112e-07
3.52806e-07
3.52791e-07
3.52756e-07
3.52747e-07
3.5277e-07
3.52809e-07
3.53143e-07
3.53185e-07
3.53142e-07
3.52848e-07
3.53161e-07
3.5319e-07
3.47765e-07
3.47754e-07
3.47733e-07
3.47379e-07
3.47362e-07
3.47358e-07
3.4737e-07
3.47755e-07
3.47719e-07
3.47733e-07
3.47287e-07
3.46441e-07
3.46443e-07
3.46443e-07
3.46441e-07
3.47273e-07
3.47412e-07
3.47379e-07
3.46441e-07
3.46449e-07
3.46446e-07
3.46446e-07
3.46449e-07
3.46441e-07
3.47398e-07
3.47791e-07
3.47765e-07
3.47362e-07
3.46443e-07
3.46446e-07
3.46445e-07
3.46445e-07
3.46446e-07
3.46443e-07
3.47363e-07
3.47748e-07
3.47754e-07
3.47358e-07
3.46443e-07
3.46446e-07
3.46445e-07
3.46445e-07
3.46446e-07
3.46443e-07
3.47354e-07
3.47454e-07
3.4737e-07
3.46441e-07
3.46449e-07
3.46446e-07
3.46446e-07
3.46449e-07
3.46441e-07
3.47376e-07
3.47767e-07
3.47755e-07
3.47273e-07
3.46441e-07
3.46443e-07
3.46443e-07
3.46441e-07
3.4723e-07
3.47416e-07
3.47796e-07
3.47719e-07
3.47412e-07
3.47398e-07
3.47363e-07
3.47354e-07
3.47376e-07
3.47416e-07
3.4775e-07
3.47791e-07
3.47748e-07
3.47454e-07
3.47767e-07
3.47796e-07
3.42372e-07
3.42361e-07
3.4234e-07
3.41986e-07
3.41968e-07
3.41965e-07
3.41976e-07
3.42361e-07
3.42325e-07
3.4234e-07
3.41894e-07
3.41048e-07
3.41049e-07
3.41049e-07
3.41048e-07
3.4188e-07
3.42019e-07
3.41986e-07
3.41048e-07
3.41056e-07
3.41053e-07
3.41053e-07
3.41056e-07
3.41048e-07
3.42004e-07
3.42398e-07
3.42372e-07
3.41968e-07
3.41049e-07
3.41053e-07
3.41052e-07
3.41052e-07
3.41053e-07
3.41049e-07
3.41969e-07
3.42355e-07
3.42361e-07
3.41965e-07
3.41049e-07
3.41053e-07
3.41052e-07
3.41052e-07
3.41053e-07
3.41049e-07
3.4196e-07
3.42061e-07
3.41976e-07
3.41048e-07
3.41056e-07
3.41053e-07
3.41053e-07
3.41056e-07
3.41048e-07
3.41983e-07
3.42374e-07
3.42361e-07
3.4188e-07
3.41048e-07
3.41049e-07
3.41049e-07
3.41048e-07
3.41836e-07
3.42022e-07
3.42403e-07
3.42325e-07
3.42019e-07
3.42004e-07
3.41969e-07
3.4196e-07
3.41983e-07
3.42022e-07
3.42356e-07