/*--------------------------------*- C++ -*----------------------------------*\
| =========                 |                                                 |
| \\      /  F ield         | OpenFOAM: The Open Source CFD Toolbox           |
|  \\    /   O peration     | Version:  2312                                  |
|   \\  /    A nd           | Website:  www.openfoam.com                      |
|    \\/     M anipulation  |                                                 |
\*---------------------------------------------------------------------------*/
FoamFile
{
    version     2.0;
    format      ascii;
    arch        "LSB;label=32;scalar=64";
    class       volScalarField;
    location    "100";
    object      epsilon;
}
// * * * * * * * * * * * * * * * * * * * * * * * * * * * * * * * * * * * * * //

dimensions      [0 2 -3 0 0 0 0];

internalField   nonuniform List<scalar> 
43008
(
1.3962e-07
2.09907e-07
1.34987e-07
2.11271e-07
2.11101e-07
3.06307e-07
2.99157e-07
3.04639e-07
2.10041e-07
2.10065e-07
2.10883e-07
2.10929e-07
3.0427e-07
2.09971e-07
2.10012e-07
2.10768e-07
2.10812e-07
2.10857e-07
2.10801e-07
2.98792e-07
3.04153e-07
2.09947e-07
2.10722e-07
2.1069e-07
3.04202e-07
3.06791e-07
2.1127e-07
2.11343e-07
3.06372e-07
2.11159e-07
2.1124e-07
2.1119e-07
3.06385e-07
2.11079e-07
3.25513e-06
8.756e-06
3.24047e-06
8.7518e-06
1.83299e-05
3.27112e-06
8.75912e-06
3.25114e-06
8.75407e-06
1.39607e-07
1.39602e-07
1.39605e-07
1.36073e-07
1.36075e-07
1.36063e-07
1.36061e-07
8.98563e-07
2.102e-07
2.54883e-06
1.57375e-07
1.83342e-05
1.83163e-05
8.97529e-07
1.5821e-07
2.53265e-06
2.10102e-07
8.86792e-07
1.57358e-07
2.54504e-06
3.00561e-07
4.94582e-06
4.9464e-06
3.29742e-06
8.74334e-06
3.28691e-06
8.74154e-06
1.83004e-05
1.82943e-05
3.32045e-06
8.74534e-06
3.30401e-06
8.74338e-06
1.34989e-07
1.34971e-07
1.34973e-07
9.29357e-07
2.5743e-06
1.55258e-07
2.11406e-07
9.22371e-07
2.58148e-06
1.54498e-07
1.82877e-05
1.82818e-05
9.29789e-07
1.55249e-07
2.57045e-06
2.11264e-07
9.17585e-07
1.54469e-07
2.5824e-06
4.95722e-06
4.95987e-06
3.07512e-07
4.95846e-06
4.96132e-06
1.83224e-05
1.83044e-05
1.83259e-05
1.83077e-05
4.93994e-06
4.9441e-06
3.00854e-07
4.94543e-06
4.94952e-06
1.82811e-05
1.82936e-05
1.82841e-05
1.82968e-05
3.03076e-07
4.95572e-06
4.95639e-06
4.94971e-06
4.95246e-06
3.26675e-06
8.7623e-06
3.24855e-06
8.75796e-06
8.95557e-07
2.53232e-06
1.58193e-07
2.10247e-07
8.85454e-07
2.5479e-06
1.57327e-07
8.98736e-07
2.53701e-06
1.58225e-07
2.10272e-07
8.87272e-07
2.55257e-06
1.57371e-07
3.26163e-06
8.74594e-06
8.74891e-06
3.27547e-06
3.27244e-06
8.75156e-06
8.75529e-06
3.28861e-06
8.99537e-07
2.10632e-07
2.56399e-06
1.55819e-07
2.55327e-06
1.56648e-07
9.09967e-07
9.03037e-07
2.10684e-07
2.57128e-06
1.55878e-07
2.55826e-06
1.56696e-07
9.15436e-07
3.00476e-07
4.95993e-06
4.9566e-06
1.83275e-05
1.83081e-05
1.83199e-05
3.02649e-07
4.96933e-06
4.96786e-06
4.96358e-06
4.96082e-06
1.83054e-05
1.83175e-05
8.97902e-07
2.5356e-06
1.58223e-07
2.10166e-07
8.8726e-07
2.54681e-06
1.5736e-07
3.26908e-06
8.76838e-06
3.2525e-06
8.76388e-06
9.00618e-07
1.5825e-07
2.53527e-06
2.10212e-07
8.8776e-07
1.57394e-07
2.5476e-06
3.27858e-06
8.747e-06
8.75106e-06
3.29823e-06
9.03321e-07
2.10545e-07
2.56334e-06
1.55862e-07
2.55233e-06
1.56689e-07
9.17048e-07
3.27394e-06
8.75785e-06
8.76137e-06
3.29545e-06
9.03482e-07
2.106e-07
1.55901e-07
2.56832e-06
1.56725e-07
2.55456e-06
9.15459e-07
3.27625e-06
8.7595e-06
8.99148e-07
2.1019e-07
1.57382e-07
2.5492e-06
3.27004e-06
8.75858e-06
9.02985e-07
2.10583e-07
2.56713e-06
1.55899e-07
2.55611e-06
1.56664e-07
9.15751e-07
3.28806e-06
8.753e-06
8.75688e-06
3.2986e-06
9.02995e-07
2.1057e-07
1.55888e-07
2.56647e-06
1.56701e-07
2.55304e-06
9.16873e-07
3.27811e-06
8.7528e-06
8.75584e-06
3.29637e-06
4.94391e-06
4.94209e-06
3.00445e-07
4.95296e-06
4.94765e-06
1.83276e-05
1.83087e-05
1.82946e-05
1.83064e-05
3.02643e-07
4.95937e-06
4.95817e-06
4.95591e-06
4.95157e-06
1.82858e-05
1.82984e-05
8.98278e-07
1.58228e-07
2.53296e-06
2.10134e-07
8.88151e-07
1.57367e-07
2.54727e-06
3.26591e-06
8.75713e-06
3.24951e-06
8.75253e-06
3.26766e-06
8.75618e-06
3.2502e-06
8.75126e-06
9.02943e-07
2.10472e-07
1.55876e-07
2.56624e-06
1.56659e-07
2.55258e-06
9.13023e-07
9.03961e-07
2.10488e-07
1.55865e-07
2.56303e-06
1.5669e-07
2.55162e-06
9.15406e-07
3.27229e-06
8.74701e-06
8.75023e-06
3.29046e-06
3.27564e-06
8.74465e-06
8.7482e-06
3.29502e-06
1.83064e-05
1.83007e-05
3.02801e-07
4.95414e-06
4.95538e-06
4.94826e-06
4.95042e-06
1.82828e-05
1.82955e-05
1.82768e-05
1.829e-05
1.82729e-05
1.82652e-05
1.82761e-05
1.82696e-05
4.95735e-06
4.95913e-06
3.08162e-07
4.9596e-06
4.96256e-06
3.30709e-06
8.74939e-06
3.29425e-06
8.74719e-06
9.24212e-07
2.57102e-06
1.55227e-07
2.11454e-07
9.15373e-07
2.58299e-06
1.54382e-07
9.27897e-07
2.57827e-06
1.55292e-07
2.11573e-07
9.18776e-07
2.58311e-06
1.54459e-07
4.97181e-06
4.97152e-06
3.07818e-07
4.9755e-06
4.97591e-06
1.82976e-05
1.82912e-05
9.32435e-07
2.57113e-06
1.55276e-07
2.1139e-07
9.19583e-07
2.58126e-06
1.54436e-07
3.31877e-06
8.75576e-06
3.29918e-06
8.75352e-06
9.31086e-07
1.55321e-07
2.57213e-06
2.11337e-07
9.22979e-07
1.54473e-07
2.58422e-06
3.31188e-06
8.75123e-06
3.30272e-06
8.74907e-06
9.31925e-07
1.55307e-07
2.57223e-06
2.11315e-07
9.19331e-07
1.54484e-07
2.58314e-06
3.31072e-06
8.75114e-06
3.30594e-06
8.74957e-06
4.96437e-06
4.96056e-06
3.07751e-07
4.96778e-06
4.96244e-06
1.8278e-05
1.82712e-05
9.33141e-07
1.55275e-07
2.56768e-06
2.11223e-07
9.18182e-07
1.54434e-07
2.57512e-06
3.31694e-06
8.74537e-06
3.2955e-06
8.74445e-06
3.32072e-06
8.74223e-06
3.29872e-06
8.73947e-06
1.82752e-05
1.8269e-05
1.82685e-05
1.82611e-05
1.19039e-05
3.25082e-06
1.05066e-05
4.14978e-06
1.05081e-05
4.14826e-06
1.19026e-05
2.22239e-05
7.10572e-06
8.75561e-06
2.22258e-05
7.1047e-06
1.19087e-05
3.24215e-06
1.05155e-05
4.13875e-06
1.1911e-05
1.05127e-05
4.14146e-06
2.22106e-05
7.10476e-06
8.75208e-06
7.10596e-06
2.22103e-05
1.83445e-05
1.83323e-05
1.19114e-05
3.26502e-06
4.15723e-06
1.05178e-05
4.15186e-06
1.05194e-05
1.19097e-05
2.22315e-05
7.10613e-06
8.75784e-06
2.22336e-05
7.10486e-06
1.19156e-05
3.25606e-06
4.14343e-06
1.05245e-05
1.19177e-05
4.14607e-06
1.05225e-05
2.22172e-05
7.10467e-06
8.75487e-06
7.10614e-06
2.22159e-05
1.83303e-05
1.83191e-05
9.62098e-06
2.17352e-05
2.17357e-05
2.17355e-05
2.17361e-05
9.61782e-06
3.65915e-06
4.94136e-06
1.62936e-06
8.79754e-06
3.67117e-06
4.94189e-06
1.6307e-06
8.80455e-06
9.62085e-06
2.17476e-05
2.17481e-05
3.66722e-06
8.79656e-06
4.94511e-06
1.63953e-06
1.63658e-06
8.79653e-06
3.66739e-06
3.68067e-06
8.80411e-06
4.94452e-06
1.64076e-06
1.63722e-06
8.80378e-06
3.6819e-06
1.18931e-05
3.2914e-06
1.04942e-05
4.18291e-06
1.04932e-05
4.17992e-06
1.18945e-05
2.21808e-05
7.10321e-06
8.74358e-06
2.21788e-05
7.10103e-06
1.18941e-05
3.28781e-06
1.0494e-05
4.17486e-06
1.18936e-05
1.04941e-05
4.17722e-06
2.2171e-05
7.09788e-06
8.74161e-06
7.10079e-06
2.2174e-05
1.83004e-05
1.8294e-05
1.19011e-05
3.31434e-06
4.18556e-06
1.05136e-05
4.18451e-06
1.05119e-05
1.19024e-05
2.21846e-05
7.10221e-06
8.74494e-06
2.21824e-05
7.10029e-06
1.19021e-05
3.3093e-06
4.17908e-06
1.05116e-05
1.19015e-05
4.17982e-06
1.05122e-05
2.21755e-05
7.09874e-06
8.74374e-06
7.10076e-06
2.21788e-05
1.82876e-05
1.82814e-05
9.60715e-06
2.17092e-05
2.17093e-05
2.17054e-05
2.17057e-05
9.60363e-06
3.69384e-06
1.66704e-06
8.79362e-06
4.95747e-06
3.69241e-06
1.66844e-06
8.79413e-06
3.71616e-06
1.67068e-06
8.80375e-06
4.95974e-06
3.71473e-06
1.6724e-06
8.80431e-06
9.60684e-06
2.17098e-05
2.17104e-05
9.6112e-06
2.17123e-05
2.17127e-05
3.69827e-06
8.79371e-06
4.95884e-06
1.68077e-06
1.67583e-06
8.79374e-06
3.69564e-06
3.71897e-06
8.80295e-06
4.96065e-06
1.68532e-06
1.67959e-06
8.80325e-06
3.7224e-06
1.83198e-05
1.83067e-05
1.83236e-05
1.83103e-05
9.62208e-06
2.17412e-05
2.1736e-05
2.17408e-05
2.17357e-05
9.61959e-06
3.66689e-06
1.62735e-06
8.80493e-06
4.94262e-06
3.66439e-06
8.80509e-06
1.63019e-06
3.66612e-06
1.6262e-06
8.80241e-06
4.94466e-06
3.66114e-06
8.80272e-06
1.62934e-06
9.62132e-06
2.1752e-05
2.17473e-05
9.62382e-06
2.17511e-05
2.17462e-05
3.67605e-06
8.80479e-06
4.94594e-06
1.64411e-06
8.80439e-06
3.67806e-06
1.6413e-06
3.67481e-06
8.80187e-06
4.94874e-06
1.64325e-06
8.80174e-06
3.67676e-06
1.63992e-06
1.82823e-05
1.82918e-05
1.82854e-05
1.82949e-05
9.61774e-06
2.17319e-05
2.17266e-05
9.62058e-06
2.1733e-05
2.17278e-05
3.69852e-06
1.66652e-06
4.95485e-06
8.80483e-06
8.80448e-06
1.66242e-06
3.69715e-06
3.69034e-06
1.66401e-06
4.9571e-06
8.79989e-06
8.79936e-06
1.66093e-06
3.69257e-06
3.6905e-06
8.80429e-06
1.65079e-06
4.95154e-06
3.68722e-06
8.80492e-06
1.65424e-06
3.68536e-06
8.80092e-06
1.64797e-06
4.95158e-06
3.68317e-06
8.80108e-06
1.65417e-06
9.61823e-06
2.17267e-05
2.17215e-05
2.17245e-05
2.17193e-05
9.61537e-06
1.19191e-05
3.25964e-06
1.05144e-05
4.16394e-06
1.05152e-05
4.15862e-06
1.19181e-05
2.22405e-05
7.10617e-06
8.76202e-06
2.22422e-05
7.10535e-06
1.19242e-05
3.2544e-06
1.05219e-05
4.14974e-06
1.05208e-05
1.19251e-05
4.15525e-06
2.2227e-05
7.1053e-06
8.75871e-06
7.10685e-06
2.22259e-05
1.18979e-05
1.05015e-05
4.15887e-06
3.26793e-06
1.18987e-05
1.0501e-05
4.15995e-06
2.21881e-05
8.74607e-06
7.10318e-06
2.21893e-05
7.10528e-06
2.21991e-05
7.10577e-06
8.74846e-06
2.21985e-05
7.10438e-06
1.18952e-05
3.27387e-06
1.04962e-05
4.17178e-06
1.18953e-05
1.04968e-05
4.1676e-06
1.19135e-05
1.05094e-05
4.168e-06
3.27757e-06
1.19143e-05
1.05092e-05
4.17271e-06
2.22023e-05
8.75217e-06
7.10212e-06
7.10471e-06
2.22028e-05
2.22137e-05
7.1061e-06
8.75439e-06
2.22138e-05
7.10425e-06
1.19104e-05
3.28722e-06
1.05051e-05
4.17847e-06
1.05048e-05
4.17832e-06
1.19107e-05
9.61702e-06
2.17295e-05
2.17287e-05
2.17287e-05
2.17277e-05
9.61472e-06
3.66553e-06
4.95313e-06
8.81024e-06
1.63461e-06
3.65602e-06
4.95182e-06
1.63002e-06
8.80368e-06
9.61607e-06
2.17388e-05
2.17379e-05
3.67442e-06
8.80991e-06
4.95851e-06
1.64811e-06
8.80948e-06
1.64467e-06
3.67507e-06
3.66863e-06
8.80324e-06
4.95708e-06
1.64454e-06
1.63759e-06
8.80283e-06
3.67075e-06
1.83423e-05
1.83294e-05
1.83091e-05
1.83183e-05
9.61306e-06
2.17206e-05
2.17198e-05
9.61589e-06
2.17223e-05
2.17217e-05
3.69387e-06
1.67173e-06
4.96926e-06
8.80945e-06
1.66749e-06
8.80889e-06
3.69839e-06
3.68607e-06
1.66518e-06
4.96698e-06
8.80357e-06
8.80264e-06
1.66004e-06
3.68508e-06
3.68928e-06
8.80893e-06
1.65465e-06
4.96259e-06
1.66018e-06
3.68421e-06
8.80939e-06
3.67865e-06
8.80259e-06
1.64934e-06
4.9624e-06
3.67618e-06
8.80308e-06
1.65233e-06
9.61365e-06
2.17171e-05
2.17169e-05
2.17144e-05
2.1714e-05
9.6108e-06
1.83066e-05
1.83155e-05
1.19343e-05
3.26401e-06
1.05175e-05
4.18027e-06
1.05195e-05
4.17328e-06
1.19338e-05
2.22691e-05
7.11443e-06
8.76757e-06
2.22702e-05
7.11417e-06
1.19375e-05
3.25554e-06
1.05254e-05
4.16266e-06
1.05233e-05
1.19386e-05
4.16478e-06
2.22564e-05
7.11579e-06
8.76499e-06
7.11635e-06
2.22564e-05
1.19055e-05
4.1604e-06
1.05154e-05
3.28056e-06
1.19063e-05
4.16497e-06
1.05156e-05
2.21919e-05
8.74768e-06
7.10188e-06
2.21927e-05
7.10393e-06
2.22034e-05
7.10527e-06
8.75031e-06
2.22035e-05
7.10348e-06
1.1903e-05
3.29088e-06
4.17052e-06
1.05126e-05
1.19032e-05
4.16968e-06
1.05125e-05
1.19313e-05
1.0514e-05
4.18488e-06
3.28187e-06
1.19312e-05
1.05133e-05
4.19126e-06
2.22341e-05
8.75822e-06
7.11725e-06
7.11818e-06
2.22355e-05
2.22453e-05
7.11757e-06
8.76049e-06
2.22446e-05
7.11685e-06
1.19293e-05
3.28782e-06
1.05103e-05
4.20029e-06
1.05107e-05
4.1976e-06
1.19298e-05
1.19173e-05
3.2736e-06
4.16469e-06
1.05189e-05
4.15962e-06
1.052e-05
1.19163e-05
2.223e-05
7.10787e-06
8.76021e-06
7.10946e-06
2.22295e-05
1.19231e-05
3.26628e-06
1.05184e-05
4.16772e-06
1.0519e-05
4.16079e-06
1.19228e-05
2.22397e-05
7.10796e-06
8.75873e-06
7.10912e-06
2.22396e-05
1.19117e-05
4.17207e-06
1.05135e-05
3.28554e-06
1.1912e-05
4.17458e-06
1.05128e-05
2.2205e-05
8.75368e-06
7.10614e-06
7.10791e-06
2.22065e-05
2.22168e-05
7.10886e-06
8.75598e-06
2.22166e-05
7.10703e-06
1.19093e-05
3.30068e-06
4.18342e-06
1.05078e-05
4.17814e-06
1.05081e-05
1.19098e-05
1.19212e-05
1.05139e-05
4.17171e-06
3.28241e-06
1.19208e-05
1.05129e-05
4.17858e-06
2.22173e-05
8.75336e-06
7.10684e-06
7.10844e-06
2.22185e-05
2.22284e-05
7.10898e-06
8.75554e-06
2.22279e-05
7.1076e-06
1.19198e-05
3.29293e-06
1.05102e-05
4.19183e-06
1.05101e-05
4.18613e-06
1.19208e-05
9.62321e-06
2.17347e-05
2.17376e-05
2.17344e-05
2.17372e-05
9.62051e-06
3.66346e-06
1.62444e-06
8.80293e-06
4.94611e-06
8.803e-06
3.66108e-06
1.63139e-06
3.66831e-06
1.62605e-06
8.80228e-06
4.94379e-06
1.62882e-06
3.66223e-06
8.80258e-06
9.62267e-06
2.17456e-05
2.17482e-05
2.17447e-05
9.62539e-06
2.17474e-05
3.67228e-06
8.80237e-06
4.95049e-06
1.64208e-06
8.80214e-06
1.63818e-06
3.67395e-06
3.67442e-06
8.80243e-06
4.9481e-06
1.6433e-06
1.64006e-06
8.80194e-06
3.68047e-06
1.83229e-05
1.83118e-05
1.82958e-05
1.83044e-05
9.6182e-06
2.17253e-05
2.17282e-05
9.62119e-06
2.17265e-05
2.17295e-05
3.69291e-06
1.66384e-06
4.96053e-06
8.80151e-06
1.66082e-06
8.80048e-06
3.69278e-06
3.70042e-06
1.66542e-06
4.95798e-06
8.8022e-06
8.80161e-06
1.66067e-06
3.7031e-06
3.68783e-06
8.80111e-06
1.64868e-06
4.95532e-06
1.6522e-06
3.68273e-06
8.80071e-06
3.69149e-06
8.80112e-06
1.64851e-06
4.95271e-06
3.68619e-06
8.80189e-06
1.65461e-06
9.61878e-06
2.17206e-05
2.17235e-05
2.17183e-05
2.17212e-05
9.61577e-06
1.82872e-05
1.82962e-05
1.19143e-05
3.26141e-06
4.1585e-06
1.05146e-05
4.15646e-06
1.05162e-05
1.19133e-05
2.22307e-05
7.10614e-06
8.75611e-06
7.10558e-06
2.22317e-05
1.192e-05
3.2523e-06
4.14714e-06
1.05225e-05
4.14949e-06
1.19204e-05
1.05201e-05
2.22179e-05
7.1058e-06
8.75352e-06
7.10707e-06
2.22178e-05
1.19179e-05
3.26244e-06
4.16276e-06
1.0516e-05
4.15945e-06
1.05175e-05
1.19171e-05
2.22288e-05
7.10404e-06
8.75556e-06
2.22307e-05
7.10306e-06
1.19218e-05
3.25428e-06
4.14823e-06
1.05234e-05
1.19233e-05
4.1511e-06
1.05211e-05
2.22148e-05
7.10302e-06
8.75158e-06
7.10435e-06
2.22145e-05
1.19086e-05
4.16523e-06
1.0511e-05
3.2799e-06
1.19095e-05
4.16933e-06
1.05104e-05
2.21956e-05
8.74728e-06
7.10381e-06
7.10571e-06
2.21971e-05
2.22065e-05
7.10683e-06
8.74962e-06
2.22061e-05
7.10512e-06
1.19055e-05
3.2877e-06
4.17651e-06
1.05075e-05
4.17591e-06
1.05074e-05
1.19056e-05
1.19147e-05
4.16794e-06
1.05124e-05
3.2776e-06
1.19144e-05
4.17439e-06
1.05117e-05
2.21913e-05
8.74478e-06
7.10079e-06
7.10258e-06
2.21927e-05
2.22027e-05
7.10375e-06
8.7479e-06
2.22025e-05
7.10216e-06
1.19129e-05
3.28936e-06
4.18403e-06
1.05086e-05
4.18048e-06
1.05088e-05
1.19138e-05
1.83216e-05
1.83094e-05
1.8316e-05
1.83041e-05
9.61433e-06
2.17249e-05
2.17255e-05
9.61797e-06
2.17254e-05
2.17261e-05
3.68442e-06
1.66132e-06
4.95376e-06
8.79436e-06
3.68771e-06
1.65601e-06
8.79429e-06
3.70308e-06
1.66446e-06
4.95515e-06
8.80405e-06
3.70753e-06
1.65835e-06
8.80348e-06
3.67717e-06
8.79539e-06
1.6468e-06
4.94836e-06
3.67668e-06
1.64988e-06
8.79546e-06
3.69737e-06
8.80341e-06
1.6473e-06
4.95214e-06
3.69156e-06
1.65244e-06
8.80389e-06
9.61459e-06
2.17178e-05
2.17185e-05
9.61127e-06
2.17163e-05
2.1717e-05
1.82841e-05
1.82937e-05
1.8278e-05
1.82878e-05
1.82722e-05
1.82652e-05
1.82758e-05
1.82692e-05
9.6126e-06
2.17199e-05
2.17148e-05
2.17157e-05
2.17105e-05
9.60917e-06
3.70665e-06
1.67382e-06
8.8043e-06
4.95744e-06
3.70691e-06
8.80534e-06
1.67759e-06
3.70168e-06
1.66958e-06
8.79905e-06
4.9597e-06
3.70084e-06
8.79953e-06
1.673e-06
9.61254e-06
2.17192e-05
2.17139e-05
9.61587e-06
2.17223e-05
2.17171e-05
3.71504e-06
8.80544e-06
4.95992e-06
1.68977e-06
8.80525e-06
3.71318e-06
1.68733e-06
3.70431e-06
8.80013e-06
4.96221e-06
1.68464e-06
8.79904e-06
3.7081e-06
1.68186e-06
1.19087e-05
3.30638e-06
1.05014e-05
4.18878e-06
1.05009e-05
4.18964e-06
1.19099e-05
2.21937e-05
7.1018e-06
8.74892e-06
2.21921e-05
7.09853e-06
1.19097e-05
3.29755e-06
1.05022e-05
4.18315e-06
1.05021e-05
1.1909e-05
4.18367e-06
2.21839e-05
7.09582e-06
8.74756e-06
7.09852e-06
2.2187e-05
9.6073e-06
2.17111e-05
2.17119e-05
2.17069e-05
2.17075e-05
9.60387e-06
3.70265e-06
1.67604e-06
8.80887e-06
4.97363e-06
8.80963e-06
3.70222e-06
1.68307e-06
3.69453e-06
1.67292e-06
8.80343e-06
4.97212e-06
1.6754e-06
3.69403e-06
8.8042e-06
9.60733e-06
2.17099e-05
2.171e-05
2.17133e-05
9.61103e-06
2.17136e-05
3.70693e-06
8.81012e-06
4.97751e-06
1.69639e-06
8.8094e-06
1.68943e-06
3.70906e-06
3.7001e-06
8.80586e-06
4.9757e-06
1.68697e-06
1.68213e-06
8.80478e-06
3.70267e-06
1.82973e-05
1.82908e-05
1.19281e-05
3.31558e-06
1.05099e-05
4.22081e-06
1.05088e-05
4.21782e-06
1.19289e-05
2.22268e-05
7.11851e-06
8.75562e-06
2.2225e-05
7.11754e-06
1.19292e-05
3.3059e-06
1.05091e-05
4.20602e-06
1.05095e-05
1.19284e-05
4.20909e-06
2.22165e-05
7.11705e-06
8.75361e-06
7.11871e-06
2.22183e-05
1.19085e-05
3.3112e-06
4.19546e-06
1.05026e-05
4.19632e-06
1.05021e-05
1.19101e-05
2.21981e-05
7.10707e-06
8.75077e-06
7.10515e-06
2.21958e-05
1.19094e-05
3.30174e-06
4.1857e-06
1.05039e-05
4.19014e-06
1.19084e-05
1.05035e-05
2.21879e-05
7.10351e-06
8.74928e-06
7.10559e-06
2.21913e-05
1.19199e-05
3.31247e-06
1.05055e-05
4.21048e-06
1.05053e-05
4.20669e-06
1.19208e-05
2.22101e-05
7.10733e-06
8.75091e-06
2.22082e-05
7.10565e-06
1.19209e-05
3.30656e-06
1.05069e-05
4.19611e-06
1.19197e-05
1.05068e-05
4.20283e-06
2.22001e-05
7.10384e-06
8.74972e-06
7.10596e-06
2.22029e-05
9.61282e-06
2.17144e-05
2.17166e-05
2.17101e-05
2.17126e-05
9.60977e-06
3.70472e-06
1.66983e-06
8.80145e-06
4.96255e-06
8.80214e-06
3.7006e-06
1.67718e-06
3.71206e-06
1.6686e-06
8.80082e-06
4.96057e-06
1.67547e-06
3.70968e-06
8.80325e-06
9.6126e-06
2.17132e-05
2.1716e-05
2.17164e-05
9.61611e-06
2.1719e-05
3.70894e-06
8.80382e-06
4.96833e-06
1.6911e-06
8.80261e-06
1.68381e-06
3.70558e-06
3.71856e-06
8.8041e-06
4.96189e-06
1.68772e-06
1.68386e-06
8.80208e-06
3.7203e-06
1.82771e-05
1.82706e-05
1.19036e-05
3.31127e-06
4.18584e-06
1.05086e-05
4.18804e-06
1.05069e-05
1.19047e-05
2.21903e-05
7.10418e-06
8.74534e-06
7.10269e-06
2.21874e-05
1.19046e-05
3.30354e-06
4.17851e-06
1.05066e-05
4.18345e-06
1.19039e-05
1.05073e-05
2.21816e-05
7.10172e-06
8.74443e-06
7.10329e-06
2.21856e-05
1.19134e-05
3.31296e-06
4.20379e-06
1.05082e-05
4.19832e-06
1.05072e-05
1.1915e-05
2.21841e-05
7.10123e-06
8.74223e-06
2.21824e-05
7.09931e-06
1.19139e-05
3.30742e-06
4.18644e-06
1.05074e-05
1.19127e-05
4.19273e-06
1.05079e-05
2.21744e-05
7.09721e-06
8.73983e-06
7.09961e-06
2.2177e-05
1.82749e-05
1.82685e-05
1.82676e-05
1.8261e-05
1.27605e-07
1.27605e-07
1.3839e-07
1.26162e-07
1.26161e-07
1.21e-07
1.22553e-07
1.42158e-06
2.98729e-07
5.99837e-07
5.97185e-07
1.21976e-07
1.21976e-07
1.33864e-07
1.20659e-07
1.2066e-07
1.15073e-07
1.16521e-07
1.46238e-06
6.21157e-07
6.19284e-07
3.0584e-07
1.462e-06
6.20022e-07
6.19759e-07
1.42384e-06
5.97168e-07
5.96814e-07
2.98945e-07
1.41966e-06
5.99732e-07
5.99847e-07
1.45728e-06
3.04975e-07
6.16506e-07
6.18385e-07
6.15603e-07
6.16985e-07
1.45855e-06
1.42097e-06
2.98542e-07
5.96209e-07
5.98611e-07
1.45212e-06
3.04556e-07
6.17968e-07
6.16441e-07
6.16547e-07
6.14553e-07
1.45694e-06
1.42163e-06
5.96406e-07
5.96516e-07
2.98422e-07
5.97337e-07
1.41688e-06
5.97141e-07
1.45378e-06
3.04525e-07
6.1593e-07
6.15858e-07
6.15076e-07
6.15034e-07
1.45542e-06
1.45283e-06
3.04611e-07
6.14572e-07
6.16071e-07
1.45428e-06
6.14805e-07
6.13974e-07
1.46754e-06
6.21695e-07
6.21647e-07
3.06395e-07
1.46655e-06
6.21435e-07
6.23065e-07
1.46541e-06
6.21589e-07
6.21896e-07
3.0605e-07
6.22988e-07
1.46394e-06
6.22185e-07
1.46869e-06
6.20776e-07
6.22384e-07
3.06048e-07
6.23408e-07
1.46277e-06
6.2331e-07
1.2759e-07
1.27584e-07
1.38401e-07
1.2618e-07
1.2618e-07
1.21007e-07
1.22545e-07
1.27592e-07
1.27585e-07
1.38393e-07
1.26183e-07
1.2618e-07
1.21008e-07
1.22546e-07
1.27588e-07
1.27587e-07
1.38397e-07
1.26184e-07
1.26181e-07
1.21009e-07
1.22545e-07
1.37233e-07
1.23346e-07
1.23346e-07
1.24723e-07
1.24724e-07
1.19475e-07
1.17971e-07
1.37232e-07
1.23362e-07
1.23362e-07
1.24712e-07
1.24707e-07
1.19466e-07
1.17981e-07
1.37223e-07
1.23364e-07
1.23361e-07
1.24715e-07
1.24707e-07
1.19467e-07
1.17982e-07
1.37224e-07
1.23365e-07
1.23361e-07
1.24712e-07
1.24709e-07
1.19466e-07
1.17983e-07
3.884e-07
8.96411e-07
1.18306e-06
3.20651e-07
1.17946e-06
3.21035e-07
3.88381e-07
5.401e-07
1.81161e-06
2.54654e-06
8.21316e-07
8.18738e-07
1.80557e-06
5.39775e-07
3.88489e-07
8.93952e-07
3.21329e-07
1.18011e-06
3.2107e-07
1.17839e-06
3.88487e-07
5.33402e-07
8.09639e-07
1.79118e-06
2.53377e-06
5.33853e-07
8.13406e-07
1.79396e-06
3.85097e-07
8.88567e-07
3.19008e-07
1.16893e-06
3.85011e-07
3.19244e-07
1.17038e-06
5.39417e-07
1.80596e-06
2.54336e-06
8.21008e-07
8.17592e-07
1.80348e-06
5.37922e-07
1.42938e-06
3.00899e-07
6.05482e-07
6.02451e-07
6.02799e-07
6.02552e-07
1.43206e-06
1.21967e-07
1.21962e-07
1.33855e-07
1.20671e-07
1.20671e-07
1.1509e-07
1.1651e-07
1.2197e-07
1.21961e-07
1.33831e-07
1.20671e-07
1.20668e-07
1.1509e-07
1.1651e-07
1.21968e-07
1.21963e-07
1.33831e-07
1.20674e-07
1.20667e-07
1.15093e-07
1.16509e-07
4.01124e-07
9.26649e-07
1.22128e-06
3.29692e-07
1.21622e-06
3.29671e-07
4.0102e-07
5.54661e-07
8.40628e-07
1.83851e-06
2.57602e-06
5.54206e-07
8.42915e-07
1.83821e-06
3.98124e-07
9.23873e-07
1.20916e-06
3.27817e-07
3.98311e-07
1.21053e-06
3.27819e-07
5.57568e-07
1.84956e-06
2.58428e-06
8.48574e-07
8.48739e-07
1.8463e-06
5.57706e-07
4.00625e-07
9.24611e-07
3.29799e-07
1.21691e-06
3.29662e-07
1.21658e-06
4.0042e-07
5.53444e-07
8.40508e-07
1.83764e-06
2.57498e-06
5.53161e-07
8.41941e-07
1.83991e-06
3.97603e-07
9.1969e-07
3.27673e-07
1.20758e-06
3.97822e-07
3.27718e-07
1.20812e-06
5.56897e-07
1.84559e-06
2.57888e-06
8.48522e-07
8.46762e-07
1.84501e-06
5.57041e-07
1.47509e-06
3.07903e-07
6.27639e-07
6.26982e-07
6.26839e-07
6.25871e-07
1.47765e-06
1.43319e-06
3.01111e-07
6.05306e-07
6.06526e-07
1.43535e-06
6.03976e-07
6.0343e-07
1.45095e-06
3.02776e-07
6.09684e-07
6.0939e-07
1.44448e-06
6.10799e-07
6.11932e-07
3.87734e-07
8.92676e-07
1.17883e-06
3.20704e-07
1.17514e-06
3.20551e-07
3.87748e-07
5.33934e-07
8.10933e-07
1.79094e-06
2.53773e-06
1.79332e-06
5.33909e-07
8.11763e-07
3.84689e-07
8.86655e-07
1.16669e-06
3.18512e-07
1.16863e-06
3.84288e-07
3.18261e-07
5.39502e-07
1.80767e-06
2.54294e-06
8.19901e-07
1.80207e-06
8.19365e-07
5.38517e-07
3.88795e-07
8.95528e-07
1.18319e-06
3.21301e-07
1.18038e-06
3.20976e-07
3.88797e-07
5.34699e-07
8.12265e-07
1.79369e-06
2.54193e-06
5.34737e-07
1.79645e-06
8.12675e-07
3.85198e-07
8.90166e-07
1.17038e-06
3.18876e-07
3.84859e-07
1.17206e-06
3.19223e-07
5.40003e-07
1.81131e-06
2.5475e-06
8.21556e-07
1.80509e-06
5.39681e-07
8.20551e-07
3.9111e-07
1.18519e-06
3.22734e-07
9.04461e-07
3.91185e-07
1.18749e-06
3.23157e-07
5.48601e-07
8.3492e-07
2.56294e-06
1.82434e-06
8.3307e-07
1.82197e-06
5.47131e-07
5.44004e-07
1.81103e-06
8.2503e-07
2.55394e-06
8.27245e-07
5.43273e-07
1.81646e-06
3.94409e-07
9.07772e-07
1.20027e-06
3.25239e-07
1.19795e-06
3.25006e-07
3.94198e-07
3.92107e-07
1.1889e-06
3.22716e-07
9.04046e-07
3.92182e-07
1.19162e-06
3.2306e-07
5.49803e-07
8.38031e-07
2.56885e-06
1.83102e-06
1.82549e-06
8.34384e-07
5.48964e-07
5.45392e-07
1.81478e-06
8.2608e-07
2.55942e-06
5.44548e-07
1.82039e-06
8.30136e-07
3.9544e-07
9.12737e-07
1.20439e-06
3.25583e-07
1.19911e-06
3.25258e-07
3.95305e-07
1.4277e-06
3.00807e-07
6.05032e-07
6.02715e-07
6.024e-07
6.0252e-07
1.42904e-06
1.44247e-06
3.02342e-07
6.08494e-07
6.08958e-07
6.11031e-07
1.43973e-06
6.09618e-07
3.88591e-07
8.96386e-07
1.17924e-06
3.21382e-07
1.17745e-06
3.21018e-07
3.88576e-07
5.33797e-07
8.10455e-07
1.79325e-06
2.53581e-06
1.79442e-06
5.34532e-07
8.1126e-07
3.85197e-07
8.91315e-07
1.16772e-06
3.18827e-07
1.17264e-06
3.85164e-07
3.19198e-07
5.38739e-07
1.80897e-06
2.54522e-06
8.21031e-07
1.80373e-06
8.17674e-07
5.39576e-07
3.8886e-07
8.95273e-07
3.21544e-07
1.18933e-06
3.21281e-07
1.18346e-06
3.89092e-07
5.35451e-07
8.095e-07
1.79964e-06
2.53658e-06
5.34783e-07
1.80502e-06
8.13322e-07
3.85413e-07
8.8949e-07
3.19229e-07
1.17406e-06
3.85103e-07
3.19359e-07
1.17614e-06
5.40789e-07
1.81484e-06
2.54609e-06
8.2083e-07
1.81155e-06
5.40411e-07
8.17162e-07
3.91696e-07
1.18936e-06
3.22798e-07
9.05659e-07
3.91816e-07
1.19019e-06
3.2329e-07
5.48885e-07
8.34301e-07
2.56273e-06
1.82555e-06
8.31407e-07
1.82295e-06
5.47169e-07
5.44311e-07
1.81235e-06
8.24433e-07
2.5569e-06
8.25311e-07
5.43524e-07
1.81816e-06
3.94929e-07
9.12548e-07
1.20109e-06
3.25574e-07
1.20009e-06
3.25328e-07
3.94683e-07
3.92626e-07
3.23064e-07
1.19429e-06
9.08249e-07
3.92644e-07
3.23233e-07
1.19571e-06
5.50501e-07
8.34932e-07
2.56662e-06
1.83995e-06
1.83439e-06
8.31226e-07
5.50922e-07
5.46408e-07
1.82331e-06
8.24133e-07
2.55513e-06
5.46115e-07
1.82579e-06
8.25875e-07
3.96031e-07
9.12558e-07
3.25578e-07
1.20885e-06
3.25447e-07
1.2044e-06
3.95886e-07
3.89018e-07
8.97073e-07
3.21575e-07
1.18402e-06
3.21335e-07
1.18172e-06
3.88982e-07
5.40338e-07
1.80923e-06
2.54376e-06
8.208e-07
8.17294e-07
1.80724e-06
5.40822e-07
3.9193e-07
1.18991e-06
3.23276e-07
9.07418e-07
3.91963e-07
1.1922e-06
3.23043e-07
5.50413e-07
8.36218e-07
2.5657e-06
1.82863e-06
5.50635e-07
8.3257e-07
1.82632e-06
5.44634e-07
1.81575e-06
8.25373e-07
2.55784e-06
5.45182e-07
8.29193e-07
1.82055e-06
3.95311e-07
9.11849e-07
1.20376e-06
3.25493e-07
3.95159e-07
1.19979e-06
3.25393e-07
3.92376e-07
3.22972e-07
1.18994e-06
9.08292e-07
3.92404e-07
3.23287e-07
1.19411e-06
5.49667e-07
8.32274e-07
2.5629e-06
1.83061e-06
1.82708e-06
8.31652e-07
5.48853e-07
5.45366e-07
1.81601e-06
8.24126e-07
2.55794e-06
5.44175e-07
1.81828e-06
8.25232e-07
3.95816e-07
9.11863e-07
3.25246e-07
1.20475e-06
3.25522e-07
1.20204e-06
3.95677e-07
1.42914e-06
3.0075e-07
6.05032e-07
6.05092e-07
6.02886e-07
6.0285e-07
1.43617e-06
1.44839e-06
3.0234e-07
6.08493e-07
6.10079e-07
6.09712e-07
1.4412e-06
6.11614e-07
3.88739e-07
8.95221e-07
3.21434e-07
1.18317e-06
3.21134e-07
1.18105e-06
3.8877e-07
5.35278e-07
8.09819e-07
1.79107e-06
2.53399e-06
8.13432e-07
5.34704e-07
1.79243e-06
3.85194e-07
8.90097e-07
3.1911e-07
1.16936e-06
3.19431e-07
3.84832e-07
1.17331e-06
5.38689e-07
1.8043e-06
2.54279e-06
8.19268e-07
8.18004e-07
1.80273e-06
5.39476e-07
3.91659e-07
3.22708e-07
1.18718e-06
9.04836e-07
3.91735e-07
3.23236e-07
1.19061e-06
5.48238e-07
8.33447e-07
2.56472e-06
1.82427e-06
5.46921e-07
8.316e-07
1.82442e-06
5.44474e-07
1.81346e-06
8.24584e-07
2.55296e-06
5.44182e-07
8.25989e-07
1.81443e-06
3.94884e-07
9.11202e-07
3.25434e-07
1.20188e-06
3.94677e-07
3.25094e-07
1.198e-06
3.92019e-07
3.22797e-07
1.18851e-06
9.05053e-07
3.92035e-07
3.23279e-07
1.19173e-06
5.48613e-07
8.31705e-07
2.56163e-06
1.82396e-06
1.82147e-06
8.31653e-07
5.48684e-07
5.43059e-07
1.81084e-06
8.23457e-07
2.556e-06
5.43929e-07
1.81346e-06
8.26558e-07
3.95205e-07
9.13171e-07
3.25346e-07
1.2006e-06
3.25394e-07
1.19919e-06
3.95082e-07
1.4458e-06
3.02392e-07
6.08881e-07
6.08905e-07
1.44175e-06
6.09735e-07
6.09423e-07
1.47678e-06
3.0863e-07
6.27556e-07
6.27576e-07
1.47637e-06
6.28063e-07
6.28292e-07
4.00113e-07
9.24336e-07
1.21509e-06
3.2914e-07
1.21507e-06
3.29226e-07
3.99898e-07
5.5192e-07
8.39416e-07
1.83278e-06
2.57451e-06
1.83253e-06
5.52451e-07
8.43155e-07
3.97151e-07
9.1662e-07
1.20635e-06
3.272e-07
1.20838e-06
3.97361e-07
3.2721e-07
5.56672e-07
1.84203e-06
2.58043e-06
8.5059e-07
1.84262e-06
8.48838e-07
5.56392e-07
4.01255e-07
9.24272e-07
1.22149e-06
3.29677e-07
1.21646e-06
3.29687e-07
4.01188e-07
5.53121e-07
8.4072e-07
1.83486e-06
2.57737e-06
5.54064e-07
1.84048e-06
8.44401e-07
3.98252e-07
9.20232e-07
1.20629e-06
3.27224e-07
3.98375e-07
1.21207e-06
3.27573e-07
5.58394e-07
1.85117e-06
2.58636e-06
8.5186e-07
1.84835e-06
5.57918e-07
8.50083e-07
1.47128e-06
3.082e-07
6.29898e-07
6.27334e-07
6.25911e-07
6.28908e-07
1.47418e-06
4.0057e-07
9.27637e-07
1.21536e-06
3.30028e-07
1.21565e-06
3.29918e-07
4.00353e-07
5.51281e-07
8.40349e-07
1.83216e-06
2.57302e-06
1.83382e-06
5.52581e-07
8.41998e-07
3.97527e-07
9.24941e-07
1.20561e-06
3.27292e-07
1.20682e-06
3.97788e-07
3.27731e-07
5.56606e-07
1.84626e-06
2.57939e-06
8.48563e-07
1.84215e-06
8.47131e-07
5.56194e-07
4.01944e-07
9.29663e-07
3.29748e-07
1.22431e-06
3.29671e-07
1.22429e-06
4.01699e-07
5.55232e-07
8.37971e-07
1.84645e-06
2.57645e-06
5.54871e-07
1.84864e-06
8.41627e-07
3.98911e-07
9.25698e-07
3.27375e-07
1.2125e-06
3.99079e-07
3.2786e-07
1.21686e-06
5.58882e-07
1.85598e-06
2.58084e-06
8.48769e-07
1.85486e-06
5.59511e-07
8.46911e-07
4.0184e-07
9.30083e-07
3.29976e-07
1.22653e-06
3.29875e-07
1.2211e-06
4.01786e-07
5.54731e-07
8.39306e-07
1.83699e-06
2.57103e-06
8.39709e-07
5.54397e-07
1.84264e-06
3.98781e-07
9.22428e-07
3.27263e-07
1.20928e-06
3.27423e-07
3.9886e-07
1.21593e-06
5.58234e-07
1.84926e-06
2.58141e-06
8.48282e-07
8.45509e-07
1.84896e-06
5.58519e-07
1.47728e-06
3.0814e-07
6.29448e-07
6.27404e-07
6.26928e-07
6.27284e-07
1.48048e-06
4.00942e-07
9.28234e-07
3.29969e-07
1.22154e-06
3.2987e-07
1.21688e-06
4.00806e-07
5.51958e-07
8.39543e-07
1.83212e-06
2.57148e-06
8.40987e-07
5.5164e-07
1.83176e-06
3.97902e-07
9.23658e-07
3.27193e-07
1.20779e-06
3.27498e-07
3.98074e-07
1.21055e-06
5.57137e-07
1.844e-06
2.57595e-06
8.47405e-07
8.45792e-07
1.8399e-06
5.57468e-07
4.99175e-07
5.00041e-07
4.99999e-07
4.99905e-07
4.45593e-07
4.54435e-07
4.54268e-07
4.63997e-07
4.03818e-07
4.18928e-07
4.18907e-07
4.39714e-07
3.68447e-07
3.88841e-07
3.88821e-07
4.1783e-07
3.38096e-07
3.62299e-07
3.62266e-07
3.96006e-07
3.11712e-07
3.38386e-07
3.38359e-07
3.74353e-07
2.88516e-07
3.16668e-07
3.16656e-07
3.53309e-07
2.6794e-07
2.96958e-07
2.96975e-07
3.33671e-07
2.4957e-07
2.79233e-07
2.79274e-07
3.15912e-07
2.33105e-07
2.63516e-07
2.6356e-07
3.00559e-07
2.18323e-07
2.49807e-07
2.49839e-07
2.88219e-07
2.05046e-07
2.3808e-07
2.38098e-07
2.78298e-07
1.93133e-07
2.28326e-07
2.28334e-07
2.71584e-07
1.82465e-07
2.20546e-07
2.20549e-07
2.68023e-07
1.72948e-07
2.14731e-07
2.14735e-07
2.67576e-07
1.64505e-07
2.10856e-07
2.1086e-07
2.70254e-07
1.57057e-07
2.08778e-07
2.08784e-07
2.75549e-07
1.50513e-07
2.08235e-07
2.08233e-07
2.82737e-07
1.44752e-07
2.08798e-07
2.08783e-07
2.90957e-07
2.09943e-07
2.99011e-07
5.06164e-07
5.05571e-07
5.05568e-07
5.06168e-07
5.05568e-07
5.0557e-07
5.05986e-07
5.05983e-07
5.05987e-07
5.05986e-07
5.0554e-07
5.05574e-07
5.06169e-07
5.05578e-07
5.05571e-07
5.06174e-07
4.9993e-07
4.67419e-07