/*--------------------------------*- C++ -*----------------------------------*\
| =========                 |                                                 |
| \\      /  F ield         | OpenFOAM: The Open Source CFD Toolbox           |
|  \\    /   O peration     | Version:  2312                                  |
|   \\  /    A nd           | Website:  www.openfoam.com                      |
|    \\/     M anipulation  |                                                 |
\*---------------------------------------------------------------------------*/
FoamFile
{
    version     2.0;
    format      ascii;
    arch        "LSB;label=32;scalar=64";
    class       volScalarField;
    location    "100";
    object      k;
}
// * * * * * * * * * * * * * * * * * * * * * * * * * * * * * * * * * * * * * //

dimensions      [0 2 -2 0 0 0 0];

internalField   nonuniform List<scalar> 
43008
(
1.57046e-05
1.60024e-05
1.52758e-05
1.5844e-05
1.58387e-05
1.69713e-05
1.69242e-05
1.69652e-05
1.60062e-05
1.60061e-05
1.58822e-05
1.58829e-05
1.69612e-05
1.60049e-05
1.6004e-05
1.588e-05
1.58785e-05
1.58803e-05
1.58786e-05
1.69103e-05
1.69564e-05
1.60036e-05
1.58757e-05
1.58764e-05
1.69529e-05
1.69948e-05
1.58458e-05
1.58471e-05
1.6986e-05
1.58427e-05
1.58413e-05
1.58416e-05
1.69807e-05
1.5838e-05
4.65075e-05
6.92688e-05
4.62357e-05
6.9242e-05
6.92931e-05
4.68267e-05
6.9278e-05
4.64649e-05
6.92503e-05
1.57058e-05
1.57054e-05
1.57056e-05
1.53764e-05
1.53747e-05
1.53738e-05
1.53739e-05
2.42755e-05
1.59596e-05
4.10667e-05
1.53428e-05
6.93025e-05
6.92577e-05
2.42548e-05
1.54328e-05
4.07488e-05
1.59564e-05
2.40367e-05
1.53419e-05
4.09839e-05
1.69207e-05
5.61006e-05
5.61141e-05
4.71095e-05
6.91979e-05
4.68795e-05
6.91821e-05
6.92099e-05
6.91899e-05
4.76187e-05
6.91963e-05
4.73023e-05
6.91857e-05
1.52768e-05
1.52757e-05
1.52758e-05
2.47365e-05
4.1458e-05
1.51017e-05
1.58117e-05
2.45805e-05
4.16511e-05
1.50254e-05
6.91745e-05
6.9156e-05
2.47852e-05
1.51006e-05
4.13759e-05
1.58059e-05
2.46025e-05
1.50242e-05
4.15619e-05
5.63318e-05
5.63637e-05
1.69864e-05
5.64238e-05
5.64687e-05
6.92886e-05
6.92349e-05
6.92929e-05
6.92383e-05
5.59816e-05
5.60071e-05
1.69346e-05
5.61453e-05
5.61348e-05
6.91698e-05
6.92073e-05
6.91719e-05
6.92095e-05
1.69571e-05
5.63303e-05
5.63278e-05
5.62189e-05
5.6214e-05
4.67173e-05
6.92984e-05
4.64252e-05
6.92722e-05
2.42153e-05
4.07768e-05
1.54336e-05
1.59611e-05
2.40111e-05
4.1036e-05
1.53412e-05
2.4302e-05
4.08472e-05
1.54347e-05
1.59609e-05
2.40834e-05
4.10928e-05
1.53423e-05
4.66021e-05
6.92078e-05
6.92285e-05
4.68031e-05
4.67803e-05
6.92355e-05
6.92566e-05
4.70283e-05
2.4281e-05
1.59204e-05
4.13428e-05
1.51753e-05
4.11338e-05
1.52605e-05
2.44287e-05
2.43729e-05
1.5921e-05
4.14213e-05
1.51772e-05
4.12182e-05
1.52623e-05
2.457e-05
1.69226e-05
5.62955e-05
5.62829e-05
6.92889e-05
6.92314e-05
6.92663e-05
1.69468e-05
5.65077e-05
5.64908e-05
5.63732e-05
5.63637e-05
6.9228e-05
6.92624e-05
2.43108e-05
4.07734e-05
1.54345e-05
1.59595e-05
2.40887e-05
4.0993e-05
1.53423e-05
4.67945e-05
6.93244e-05
4.64681e-05
6.93023e-05
2.42854e-05
1.54353e-05
4.07885e-05
1.59579e-05
2.4078e-05
1.53427e-05
4.10377e-05
4.69451e-05
6.92111e-05
6.92342e-05
4.72182e-05
2.43846e-05
1.59186e-05
4.13068e-05
1.51769e-05
4.111e-05
1.52618e-05
2.45475e-05
4.68953e-05
6.92636e-05
6.92842e-05
4.71515e-05
2.43645e-05
1.5917e-05
1.51772e-05
4.13383e-05
1.52625e-05
4.11227e-05
2.45493e-05
4.70732e-05
6.92815e-05
2.43434e-05
1.59585e-05
1.5343e-05
4.10208e-05
4.68921e-05
6.92698e-05
2.43563e-05
1.59192e-05
4.13763e-05
1.51775e-05
4.11897e-05
1.52609e-05
2.45108e-05
4.7104e-05
6.92437e-05
6.92654e-05
4.73167e-05
2.44399e-05
1.59178e-05
1.51782e-05
4.13406e-05
1.52631e-05
4.11263e-05
2.46357e-05
4.70183e-05
6.92391e-05
6.92573e-05
4.73415e-05
5.60257e-05
5.60273e-05
1.69196e-05
5.61885e-05
5.61726e-05
6.92901e-05
6.92443e-05
6.91957e-05
6.92294e-05
1.69413e-05
5.63792e-05
5.63468e-05
5.62606e-05
5.62386e-05
6.9179e-05
6.92144e-05
2.42904e-05
1.54345e-05
4.07569e-05
1.59574e-05
2.40781e-05
1.53419e-05
4.09642e-05
4.67555e-05
6.92699e-05
4.642e-05
6.92464e-05
4.67842e-05
6.92628e-05
4.64456e-05
6.92321e-05
2.43482e-05
1.59152e-05
1.51763e-05
4.13106e-05
1.52599e-05
4.11018e-05
2.45239e-05
2.436e-05
1.59161e-05
1.51764e-05
4.12786e-05
1.52615e-05
4.10858e-05
2.45644e-05
4.68267e-05
6.92098e-05
6.92296e-05
4.71218e-05
4.68763e-05
6.91934e-05
6.92177e-05
4.71697e-05
6.92356e-05
6.92201e-05
1.69407e-05
5.62888e-05
5.63249e-05
5.6157e-05
5.6168e-05
6.91691e-05
6.92056e-05
6.91519e-05
6.91891e-05
6.91476e-05
6.91221e-05
6.91493e-05
6.91271e-05
5.63732e-05
5.63584e-05
1.70089e-05
5.64489e-05
5.64621e-05
4.73308e-05
6.92222e-05
4.71478e-05
6.92078e-05
2.46929e-05
4.14108e-05
1.51006e-05
1.58137e-05
2.45386e-05
4.16078e-05
1.50228e-05
2.47938e-05
4.14924e-05
1.51032e-05
1.58156e-05
2.46379e-05
4.16556e-05
1.50255e-05
5.65448e-05
5.65225e-05
1.70036e-05
5.66813e-05
5.66461e-05
6.92061e-05
6.91852e-05
2.48276e-05
4.13803e-05
1.51023e-05
1.58102e-05
2.46629e-05
4.15657e-05
1.50247e-05
4.75573e-05
6.92523e-05
4.7302e-05
6.92382e-05
2.48252e-05
1.51026e-05
4.14224e-05
1.58084e-05
2.46404e-05
1.50245e-05
4.15992e-05
4.75151e-05
6.92313e-05
4.73835e-05
6.92177e-05
2.48989e-05
1.51041e-05
4.1406e-05
1.58089e-05
2.47098e-05
1.50266e-05
4.15593e-05
4.75855e-05
6.9227e-05
4.74014e-05
6.92159e-05
5.64261e-05
5.63772e-05
1.69976e-05
5.65469e-05
5.64694e-05
6.91567e-05
6.9134e-05
2.49126e-05
1.51019e-05
4.13536e-05
1.58035e-05
2.46889e-05
1.50242e-05
4.15214e-05
4.75916e-05
6.92e-05
4.72881e-05
6.9192e-05
4.76469e-05
6.91821e-05
4.73111e-05
6.91654e-05
6.91473e-05
6.9126e-05
6.91299e-05
6.91055e-05
6.89881e-05
4.64354e-05
6.84446e-05
5.40515e-05
6.84533e-05
5.39815e-05
6.89846e-05
7.05642e-05
7.1812e-05
6.9264e-05
7.05683e-05
7.18588e-05
6.90141e-05
4.63054e-05
6.84874e-05
5.38144e-05
6.90173e-05
6.84799e-05
5.38877e-05
7.05319e-05
7.19146e-05
6.92479e-05
7.18814e-05
7.05299e-05
6.93318e-05
6.93013e-05
6.90152e-05
4.67227e-05
5.41401e-05
6.84948e-05
5.40714e-05
6.84969e-05
6.9014e-05
7.05811e-05
7.18241e-05
6.92778e-05
7.05861e-05
7.18624e-05
6.904e-05
4.65801e-05
5.38988e-05
6.85222e-05
6.90428e-05
5.39702e-05
6.85181e-05
7.05476e-05
7.19152e-05
6.92551e-05
7.18873e-05
7.05444e-05
6.92984e-05
6.92636e-05
8.51404e-05
7.2058e-05
7.20543e-05
7.20612e-05
7.20573e-05
8.51715e-05
5.20941e-05
5.60282e-05
3.3623e-05
6.76283e-05
5.22521e-05
5.60099e-05
3.36576e-05
6.76502e-05
8.51069e-05
7.20892e-05
7.20851e-05
5.21803e-05
6.76223e-05
5.60747e-05
3.381e-05
3.37515e-05
6.76225e-05
5.22352e-05
5.23565e-05
6.76471e-05
5.60799e-05
3.38507e-05
3.37877e-05
6.76458e-05
5.2437e-05
6.89339e-05
4.70654e-05
6.83774e-05
5.45152e-05
6.83756e-05
5.44816e-05
6.89369e-05
7.04597e-05
7.20547e-05
6.91953e-05
7.04567e-05
7.20856e-05
6.89396e-05
4.69504e-05
6.83836e-05
5.43332e-05
6.89391e-05
6.83817e-05
5.43913e-05
7.04376e-05
7.2109e-05
6.91854e-05
7.20879e-05
7.04422e-05
6.92076e-05
6.91903e-05
6.89651e-05
4.75301e-05
5.46263e-05
6.84597e-05
5.45716e-05
6.84549e-05
6.89683e-05
7.04668e-05
7.20061e-05
6.91975e-05
7.0464e-05
7.20442e-05
6.89708e-05
4.73945e-05
5.44285e-05
6.84573e-05
6.89699e-05
5.44994e-05
6.84583e-05
7.04456e-05
7.20825e-05
6.91859e-05
7.20668e-05
7.04511e-05
6.91732e-05
6.91559e-05
8.53197e-05
7.19865e-05
7.19825e-05
7.19797e-05
7.1976e-05
8.53777e-05
5.26182e-05
3.42408e-05
6.76058e-05
5.63692e-05
5.25739e-05
3.43222e-05
6.76068e-05
5.29786e-05
3.43583e-05
6.76433e-05
5.64103e-05
5.29279e-05
3.4451e-05
6.76462e-05
8.53168e-05
7.19934e-05
7.19901e-05
8.52932e-05
7.19971e-05
7.19936e-05
5.26758e-05
6.76042e-05
5.64068e-05
3.44429e-05
3.4413e-05
6.76e-05
5.27376e-05
5.30892e-05
6.7642e-05
5.64337e-05
3.45759e-05
3.44739e-05
6.76392e-05
5.31012e-05
6.92762e-05
6.92443e-05
6.92802e-05
6.92486e-05
8.51561e-05
7.2071e-05
7.20546e-05
7.20714e-05
7.20553e-05
8.51968e-05
5.22792e-05
3.36451e-05
6.76672e-05
5.60463e-05
5.2212e-05
6.76677e-05
3.37244e-05
5.2172e-05
3.35809e-05
6.76443e-05
5.60749e-05
5.21215e-05
6.76436e-05
3.36841e-05
8.51186e-05
7.20997e-05
7.20845e-05
8.50783e-05
7.2097e-05
7.20814e-05
5.23895e-05
6.76651e-05
5.60964e-05
3.39097e-05
6.76634e-05
5.24651e-05
3.38498e-05
5.22628e-05
6.76376e-05
5.61091e-05
3.38641e-05
6.76378e-05
5.23082e-05
3.37833e-05
6.9175e-05
6.92001e-05
6.91767e-05
6.92025e-05
8.52654e-05
7.20488e-05
7.20321e-05
8.52199e-05
7.20503e-05
7.20334e-05
5.27259e-05
3.43604e-05
5.63002e-05
6.76648e-05
6.76621e-05
3.42494e-05
5.2834e-05
5.24926e-05
3.42554e-05
5.62963e-05
6.76264e-05
6.7626e-05
3.41844e-05
5.25664e-05
5.26533e-05
6.76619e-05
3.40574e-05
5.62461e-05
5.257e-05
6.76646e-05
3.41354e-05
5.24183e-05
6.76324e-05
3.40014e-05
5.62503e-05
5.23908e-05
6.76326e-05
3.40716e-05
8.52801e-05
7.20338e-05
7.20162e-05
7.20302e-05
7.2013e-05
8.53255e-05
6.90485e-05
4.66325e-05
6.84772e-05
5.42421e-05
6.84882e-05
5.41697e-05
6.90423e-05
7.05969e-05
7.18339e-05
6.92923e-05
7.06007e-05
7.18877e-05
6.90671e-05
4.65108e-05
6.85196e-05
5.40091e-05
6.85074e-05
6.90763e-05
5.40903e-05
7.05653e-05
7.19483e-05
6.92773e-05
7.19113e-05
7.05632e-05
6.89641e-05
6.84256e-05
5.41194e-05
4.66708e-05
6.89666e-05
6.84164e-05
5.4176e-05
7.04781e-05
6.92106e-05
7.20479e-05
7.048e-05
7.19858e-05
7.05028e-05
7.19299e-05
6.92236e-05
7.05029e-05
7.19712e-05
6.89482e-05
4.67577e-05
6.83963e-05
5.42757e-05
6.89473e-05
6.8402e-05
5.42472e-05
6.90223e-05
6.84607e-05
5.42818e-05
4.68933e-05
6.90256e-05
6.84516e-05
5.43463e-05
7.05077e-05
6.92367e-05
7.20632e-05
7.20083e-05
7.05086e-05
7.05333e-05
7.19669e-05
6.92546e-05
7.05347e-05
7.19992e-05
6.90063e-05
4.69627e-05
6.8433e-05
5.44554e-05
6.84366e-05
5.4406e-05
6.90058e-05
8.50739e-05
7.20398e-05
7.20424e-05
7.20394e-05
7.2042e-05
8.51315e-05
5.2194e-05
5.62225e-05
6.76795e-05
3.38255e-05
5.2097e-05
5.62048e-05
3.37278e-05
6.76588e-05
8.50553e-05
7.20635e-05
7.20661e-05
5.22859e-05
6.76769e-05
5.625e-05
3.39958e-05
6.76751e-05
3.39121e-05
5.23546e-05
5.22007e-05
6.7656e-05
5.62337e-05
3.38929e-05
3.3844e-05
6.76543e-05
5.22667e-05
6.9329e-05
6.92965e-05
6.92355e-05
6.92603e-05
8.52052e-05
7.20185e-05
7.20213e-05
8.51691e-05
7.20208e-05
7.20238e-05
5.25694e-05
3.44179e-05
5.64605e-05
6.76732e-05
3.43599e-05
6.76707e-05
5.26148e-05
5.24912e-05
3.42661e-05
5.64484e-05
6.7655e-05
6.76518e-05
3.42088e-05
5.25298e-05
5.24812e-05
6.76724e-05
3.41554e-05
5.64068e-05
3.42367e-05
5.24401e-05
6.76739e-05
5.24344e-05
6.76523e-05
3.40425e-05
5.63988e-05
5.23426e-05
6.76548e-05
3.40908e-05
8.52269e-05
7.20062e-05
7.20097e-05
7.20016e-05
7.20049e-05
8.52707e-05
6.92317e-05
6.92568e-05
6.91006e-05
4.66839e-05
6.84958e-05
5.45225e-05
6.85003e-05
5.44203e-05
6.90991e-05
7.06556e-05
7.19566e-05
6.93223e-05
7.06585e-05
7.20247e-05
6.91168e-05
4.65816e-05
6.85317e-05
5.42123e-05
6.85249e-05
6.91175e-05
5.43279e-05
7.06261e-05
7.20971e-05
6.93028e-05
7.20489e-05
7.0625e-05
6.89929e-05
5.42201e-05
6.84763e-05
4.70402e-05
6.89938e-05
5.42779e-05
6.84751e-05
7.04874e-05
6.92139e-05
7.19912e-05
7.04875e-05
7.19748e-05
7.05134e-05
7.19496e-05
6.923e-05
7.05154e-05
7.19632e-05
6.89782e-05
4.71544e-05
5.43827e-05
6.84634e-05
6.89779e-05
5.43479e-05
6.84651e-05
6.90863e-05
6.84753e-05
5.45848e-05
4.70183e-05
6.90868e-05
6.84711e-05
5.47126e-05
7.05751e-05
6.92662e-05
7.22392e-05
7.22083e-05
7.05768e-05
7.05995e-05
7.21291e-05
6.92822e-05
7.05991e-05
7.21731e-05
6.90775e-05
4.70775e-05
6.84558e-05
5.48426e-05
6.84575e-05
5.47731e-05
6.90789e-05
6.90438e-05
4.69111e-05
5.42799e-05
6.84997e-05
5.42119e-05
6.85071e-05
6.90381e-05
7.05752e-05
7.19737e-05
6.92872e-05
7.19335e-05
7.05729e-05
6.9062e-05
4.67677e-05
6.84948e-05
5.43533e-05
6.85043e-05
5.42632e-05
6.90576e-05
7.05914e-05
7.19973e-05
6.92753e-05
7.19592e-05
7.05901e-05
6.90164e-05
5.43374e-05
6.84812e-05
4.72229e-05
6.90215e-05
5.44241e-05
6.84728e-05
7.05159e-05
6.92455e-05
7.20676e-05
7.20359e-05
7.05174e-05
7.05426e-05
7.19893e-05
6.92623e-05
7.05434e-05
7.20219e-05
6.9004e-05
4.7272e-05
5.45663e-05
6.84483e-05
5.44902e-05
6.84563e-05
6.90047e-05
6.90473e-05
6.84793e-05
5.44332e-05
4.71195e-05
6.90469e-05
6.8474e-05
5.45514e-05
7.0539e-05
6.92408e-05
7.20924e-05
7.2063e-05
7.05404e-05
7.05638e-05
7.20149e-05
6.92529e-05
7.05638e-05
7.20525e-05
6.90401e-05
4.72374e-05
6.84559e-05
5.47344e-05
6.84573e-05
5.46487e-05
6.90432e-05
8.51581e-05
7.20523e-05
7.20637e-05
7.20528e-05
7.20641e-05
8.51975e-05
5.21527e-05
3.35582e-05
6.76438e-05
5.61032e-05
6.7644e-05
5.20935e-05
3.36475e-05
5.22558e-05
3.35914e-05
6.76538e-05
5.60922e-05
3.37004e-05
5.21813e-05
6.76552e-05
8.51222e-05
7.20814e-05
7.20921e-05
7.20785e-05
8.50855e-05
7.20894e-05
5.22483e-05
6.76404e-05
5.61401e-05
3.38296e-05
6.76392e-05
3.37612e-05
5.23558e-05
5.23735e-05
6.76535e-05
5.6127e-05
3.38556e-05
3.38008e-05
6.76515e-05
5.24298e-05
6.92873e-05
6.92493e-05
6.9199e-05
6.92244e-05
8.52583e-05
7.20298e-05
7.20414e-05
8.52199e-05
7.2031e-05
7.20427e-05
5.2574e-05
3.42627e-05
5.63452e-05
6.76315e-05
3.41724e-05
6.76271e-05
5.26362e-05
5.26961e-05
3.42632e-05
5.63137e-05
6.76511e-05
6.76482e-05
3.41839e-05
5.27734e-05
5.24801e-05
6.76328e-05
3.39761e-05
5.62906e-05
3.40375e-05
5.24488e-05
6.76291e-05
5.2591e-05
6.76488e-05
3.40117e-05
5.62674e-05
5.25534e-05
6.76507e-05
3.40712e-05
8.52856e-05
7.20147e-05
7.20265e-05
7.20111e-05
7.20229e-05
8.53302e-05
6.91829e-05
6.92092e-05
6.90335e-05
4.66311e-05
5.42003e-05
6.84809e-05
5.41323e-05
6.84856e-05
6.90265e-05
7.05793e-05
7.18557e-05
6.9269e-05
7.18919e-05
7.0583e-05
6.90512e-05
4.65247e-05
5.39793e-05
6.85159e-05
5.40514e-05
6.90609e-05
6.85105e-05
7.055e-05
7.19471e-05
6.92476e-05
7.19268e-05
7.05479e-05
6.90388e-05
4.66652e-05
5.42828e-05
6.84857e-05
5.41863e-05
6.849e-05
6.90365e-05
7.05732e-05
7.17961e-05
6.92575e-05
7.05777e-05
7.18506e-05
6.90597e-05
4.65593e-05
5.40029e-05
6.85189e-05
6.90639e-05
5.40986e-05
6.85135e-05
7.05407e-05
7.19083e-05
6.92395e-05
7.18699e-05
7.0538e-05
6.90064e-05
5.42398e-05
6.8462e-05
4.69703e-05
6.90095e-05
5.43191e-05
6.84568e-05
7.04965e-05
6.92131e-05
7.203e-05
7.201e-05
7.0498e-05
7.05212e-05
7.19684e-05
6.9227e-05
7.05217e-05
7.19951e-05
6.89896e-05
4.70592e-05
5.43888e-05
6.84417e-05
5.43402e-05
6.84435e-05
6.89887e-05
6.90214e-05
5.4378e-05
6.84674e-05
4.70119e-05
6.90219e-05
5.44806e-05
6.84628e-05
7.0485e-05
6.91983e-05
7.20134e-05
7.19869e-05
7.04862e-05
7.05101e-05
7.19343e-05
6.9212e-05
7.0511e-05
7.19559e-05
6.9013e-05
4.70801e-05
5.45948e-05
6.84471e-05
5.45347e-05
6.84496e-05
6.9015e-05
6.92785e-05
6.92428e-05
6.92638e-05
6.92258e-05
8.52187e-05
7.20333e-05
7.20298e-05
8.51933e-05
7.20331e-05
7.20296e-05
5.24401e-05
3.41537e-05
5.62554e-05
6.76105e-05
5.24803e-05
3.41092e-05
6.76108e-05
5.27062e-05
3.42227e-05
5.62684e-05
6.76451e-05
5.27688e-05
3.41639e-05
6.76424e-05
5.23971e-05
6.76161e-05
3.39428e-05
5.62144e-05
5.23014e-05
3.39865e-05
6.76166e-05
5.25922e-05
6.7643e-05
3.39647e-05
5.62253e-05
5.2533e-05
3.40296e-05
6.76451e-05
8.52414e-05
7.2013e-05
7.20096e-05
8.52791e-05
7.20112e-05
7.20079e-05
6.91739e-05
6.91993e-05
6.91566e-05
6.91835e-05
6.91445e-05
6.91238e-05
6.91465e-05
6.91274e-05
8.54022e-05
7.20122e-05
7.19944e-05
7.20047e-05
7.19868e-05
8.54318e-05
5.29557e-05
3.44524e-05
6.76617e-05
5.64078e-05
5.29003e-05
6.76653e-05
3.45829e-05
5.27048e-05
3.43381e-05
6.76215e-05
5.64022e-05
5.26591e-05
6.76229e-05
3.44373e-05
8.53705e-05
7.20155e-05
7.19977e-05
8.53415e-05
7.20209e-05
7.2003e-05
5.30289e-05
6.76636e-05
5.64053e-05
3.47457e-05
6.76638e-05
5.31255e-05
3.46591e-05
5.27714e-05
6.76235e-05
5.64146e-05
3.456e-05
6.76197e-05
5.2834e-05
3.45193e-05
6.89928e-05
4.72956e-05
6.84118e-05
5.47111e-05
6.84115e-05
5.46872e-05
6.89956e-05
7.04864e-05
7.207e-05
6.92213e-05
7.04845e-05
7.20877e-05
6.89985e-05
4.72229e-05
6.84236e-05
5.45474e-05
6.84194e-05
6.89976e-05
5.46117e-05
7.04638e-05
7.20808e-05
6.92085e-05
7.20863e-05
7.04677e-05
8.53076e-05
7.19868e-05
7.19919e-05
7.19789e-05
7.19837e-05
8.53594e-05
5.27438e-05
3.45332e-05
6.76701e-05
5.66101e-05
6.76735e-05
5.27056e-05
3.46294e-05
5.27002e-05
3.4348e-05
6.76531e-05
5.65713e-05
3.44238e-05
5.26478e-05
6.76556e-05
8.53048e-05
7.19887e-05
7.19926e-05
7.19946e-05
8.52847e-05
7.19989e-05
5.28145e-05
6.7676e-05
5.66534e-05
3.47794e-05
6.7672e-05
3.47217e-05
5.29013e-05
5.27558e-05
6.76576e-05
5.66181e-05
3.45885e-05
3.44784e-05
6.76499e-05
5.28378e-05
6.92032e-05
6.91851e-05
6.90696e-05
4.75028e-05
6.84471e-05
5.52488e-05
6.8444e-05
5.51409e-05
6.90731e-05
7.05567e-05
7.22578e-05
6.92504e-05
7.05536e-05
7.23093e-05
6.90746e-05
4.73942e-05
6.84478e-05
5.49625e-05
6.84483e-05
6.90724e-05
5.50433e-05
7.05345e-05
7.23736e-05
6.92404e-05
7.23382e-05
7.05385e-05
6.8995e-05
4.74863e-05
5.49207e-05
6.84197e-05
5.48235e-05
6.84195e-05
6.89998e-05
7.04971e-05
7.21046e-05
6.92301e-05
7.21329e-05
7.04935e-05
6.89999e-05
4.73588e-05
5.46742e-05
6.84359e-05
5.47499e-05
6.89975e-05
6.84295e-05
7.04745e-05
7.21706e-05
6.9219e-05
7.21605e-05
7.04798e-05
6.90381e-05
4.76221e-05
6.84341e-05
5.51221e-05
6.8435e-05
5.50289e-05
6.90421e-05
7.05204e-05
7.21281e-05
6.92258e-05
7.05175e-05
7.21506e-05
6.90422e-05
4.758e-05
6.84459e-05
5.48429e-05
6.90382e-05
6.84431e-05
5.49735e-05
7.04984e-05
7.21825e-05
6.92168e-05
7.21774e-05
7.05025e-05
8.53771e-05
7.19941e-05
7.20049e-05
7.19862e-05
7.19974e-05
8.54258e-05
5.27901e-05
3.43843e-05
6.76309e-05
5.64846e-05
6.76325e-05
5.27475e-05
3.4482e-05
5.29367e-05
3.43282e-05
6.76465e-05
5.64055e-05
3.4434e-05
5.28763e-05
6.76522e-05
8.5367e-05
7.19966e-05
7.20082e-05
7.20019e-05
8.53457e-05
7.20134e-05
5.28521e-05
6.76416e-05
5.65016e-05
3.46768e-05
6.76313e-05
3.45828e-05
5.29482e-05
5.30316e-05
6.76565e-05
5.64595e-05
3.45983e-05
3.44905e-05
6.76504e-05
5.31069e-05
6.91537e-05
6.91343e-05
6.89753e-05
4.75278e-05
5.46723e-05
6.8439e-05
5.46236e-05
6.84342e-05
6.89782e-05
7.04799e-05
7.20627e-05
6.91983e-05
7.2089e-05
7.04757e-05
6.8981e-05
4.738e-05
5.44728e-05
6.84358e-05
5.45457e-05
6.89802e-05
6.84371e-05
7.04599e-05
7.21378e-05
6.91929e-05
7.21188e-05
7.04666e-05
6.90095e-05
4.75718e-05
5.49655e-05
6.84398e-05
5.48912e-05
6.84366e-05
6.90148e-05
7.04657e-05
7.20269e-05
6.91786e-05
7.04631e-05
7.20615e-05
6.90127e-05
4.74416e-05
5.47041e-05
6.84399e-05
6.90093e-05
5.47814e-05
6.84407e-05
7.04433e-05
7.21019e-05
6.9167e-05
7.20616e-05
7.04481e-05
6.91443e-05
6.91263e-05
6.91265e-05
6.91062e-05
1.59926e-05
1.59929e-05
1.55903e-05
1.58635e-05
1.58639e-05
1.62855e-05
1.64181e-05
3.2033e-05
1.69058e-05
2.14795e-05
2.14851e-05
1.55053e-05
1.55057e-05
1.51754e-05
1.5389e-05
1.53894e-05
1.57802e-05
1.59025e-05
3.27444e-05
2.18483e-05
2.18461e-05
1.6967e-05
3.27018e-05
2.19043e-05
2.18709e-05
3.21396e-05
2.14737e-05
2.14499e-05
1.69193e-05
3.20722e-05
2.15291e-05
2.14908e-05
3.26478e-05
1.69754e-05
2.18516e-05
2.18367e-05
2.17953e-05
2.17805e-05
3.27303e-05
3.19988e-05
1.69074e-05
2.14576e-05
2.14953e-05
3.24867e-05
1.6966e-05
2.18312e-05
2.1761e-05
2.18017e-05
2.17464e-05
3.25186e-05
3.21019e-05
2.14297e-05
2.14333e-05
1.69043e-05
2.1475e-05
3.20134e-05
2.14479e-05
3.26149e-05
1.69604e-05
2.18112e-05
2.17993e-05
2.17761e-05
2.1767e-05
3.26691e-05
3.25269e-05
1.69563e-05
2.17976e-05
2.17701e-05
3.25664e-05
2.17436e-05
2.17655e-05
3.28884e-05
2.19125e-05
2.18954e-05
1.69884e-05
3.28485e-05
2.19245e-05
2.19171e-05
3.26983e-05
2.19031e-05
2.1836e-05
1.69836e-05
2.18939e-05
3.26516e-05
2.19643e-05
3.28915e-05
2.1882e-05
2.18903e-05
1.69785e-05
2.19124e-05
3.27995e-05
2.19244e-05
1.59936e-05
1.5994e-05
1.55888e-05
1.58624e-05
1.58626e-05
1.62848e-05
1.64187e-05
1.59935e-05
1.59938e-05
1.55882e-05
1.58624e-05
1.58624e-05
1.62847e-05
1.64186e-05
1.59938e-05
1.59939e-05
1.55883e-05
1.58622e-05
1.58623e-05
1.62846e-05
1.64187e-05
1.5484e-05
1.56203e-05
1.56206e-05
1.57431e-05
1.57434e-05
1.61557e-05
1.60278e-05
1.54851e-05
1.56189e-05
1.56191e-05
1.57443e-05
1.57446e-05
1.61563e-05
1.60271e-05
1.54844e-05
1.56188e-05
1.56188e-05
1.57441e-05
1.57444e-05
1.61562e-05
1.60269e-05
1.54846e-05
1.56187e-05
1.56187e-05
1.57444e-05
1.57445e-05
1.61563e-05
1.60268e-05
1.78203e-05
2.42367e-05
2.80331e-05
1.67167e-05
2.79896e-05
1.67155e-05
1.78264e-05
1.99676e-05
3.48367e-05
4.10097e-05
2.40277e-05
2.39901e-05
3.47583e-05
1.99982e-05
1.78136e-05
2.4209e-05
1.67113e-05
2.80193e-05
1.67055e-05
2.7937e-05
1.78185e-05
1.9857e-05
2.38145e-05
3.45265e-05
4.08407e-05
1.98504e-05
2.38518e-05
3.45869e-05
1.77488e-05
2.40804e-05
1.6679e-05
2.77541e-05
1.77591e-05
1.66851e-05
2.7849e-05
1.9936e-05
3.47638e-05
4.09303e-05
2.39624e-05
2.39384e-05
3.46992e-05
1.99464e-05
3.21571e-05
1.69253e-05
2.15926e-05
2.15681e-05
2.15395e-05
2.15499e-05
3.22282e-05
1.55062e-05
1.55065e-05
1.51738e-05
1.53877e-05
1.53878e-05
1.57794e-05
1.59033e-05
1.5506e-05
1.55062e-05
1.51725e-05
1.53874e-05
1.53874e-05
1.57792e-05
1.59031e-05
1.55063e-05
1.55063e-05
1.51725e-05
1.53874e-05
1.53873e-05
1.57791e-05
1.59032e-05
1.80287e-05
2.4704e-05
2.86428e-05
1.68093e-05
2.85683e-05
1.68102e-05
1.803e-05
2.02278e-05
2.43821e-05
3.52499e-05
4.15249e-05
2.02425e-05
2.44293e-05
3.53203e-05
1.7977e-05
2.46306e-05
2.84298e-05
1.67875e-05
1.79689e-05
2.84903e-05
1.67873e-05
2.03194e-05
3.54894e-05
4.15901e-05
2.45508e-05
2.45127e-05
3.5397e-05
2.03291e-05
1.80136e-05
2.47361e-05
1.68135e-05
2.85561e-05
1.68141e-05
2.85247e-05
1.80142e-05
2.01952e-05
2.4321e-05
3.52221e-05
4.14456e-05
2.01911e-05
2.43489e-05
3.52601e-05
1.79631e-05
2.46564e-05
1.67874e-05
2.83793e-05
1.79554e-05
1.67887e-05
2.84149e-05
2.02559e-05
3.53734e-05
4.15062e-05
2.44339e-05
2.44245e-05
3.53572e-05
2.02436e-05
3.27977e-05
1.6991e-05
2.202e-05
2.19551e-05
2.19662e-05
2.19562e-05
3.28812e-05
3.22805e-05
1.69399e-05
2.16338e-05
2.15844e-05
3.234e-05
2.1578e-05
2.15649e-05
3.25327e-05
1.69496e-05
2.16842e-05
2.16814e-05
3.24845e-05
2.17446e-05
2.17002e-05
1.78023e-05
2.41746e-05
2.7969e-05
1.67071e-05
2.79107e-05
1.67065e-05
1.77954e-05
1.98511e-05
2.38397e-05
3.45269e-05
4.0861e-05
3.4605e-05
1.98485e-05
2.39205e-05
1.77566e-05
2.40736e-05
2.77342e-05
1.66775e-05
2.77945e-05
1.77497e-05
1.6682e-05
1.99207e-05
3.47902e-05
4.09443e-05
2.40358e-05
3.4687e-05
2.39787e-05
1.99508e-05
1.78303e-05
2.4242e-05
2.80847e-05
1.67214e-05
2.80283e-05
1.6717e-05
1.78368e-05
1.98951e-05
2.38743e-05
3.45825e-05
4.09343e-05
1.98667e-05
3.46522e-05
2.39157e-05
1.7769e-05
2.41293e-05
2.78425e-05
1.66877e-05
1.77695e-05
2.7895e-05
1.66944e-05
1.99492e-05
3.48176e-05
4.10188e-05
2.40319e-05
3.47526e-05
1.99755e-05
2.40059e-05
1.7847e-05
2.80483e-05
1.67303e-05
2.43428e-05
1.7855e-05
2.81213e-05
1.67303e-05
2.01158e-05
2.43006e-05
4.12929e-05
3.51348e-05
2.42606e-05
3.50353e-05
2.01296e-05
2.00052e-05
3.48658e-05
2.41308e-05
4.11666e-05
2.41547e-05
2.00124e-05
3.49451e-05
1.78985e-05
2.43846e-05
2.8268e-05
1.67522e-05
2.82187e-05
1.67528e-05
1.79021e-05
1.78835e-05
2.81679e-05
1.6748e-05
2.44242e-05
1.78721e-05
2.82525e-05
1.6749e-05
2.01237e-05
2.43331e-05
4.13756e-05
3.51704e-05
3.51411e-05
2.42905e-05
2.0161e-05
2.00755e-05
3.4962e-05
2.41459e-05
4.12713e-05
2.00585e-05
3.50259e-05
2.41957e-05
1.79278e-05
2.45165e-05
2.83705e-05
1.67745e-05
2.83112e-05
1.67741e-05
1.79223e-05
3.21305e-05
1.69285e-05
2.1595e-05
2.15408e-05
2.15174e-05
2.15654e-05
3.21901e-05
3.24149e-05
1.69415e-05
2.1686e-05
2.16359e-05
2.17178e-05
3.23069e-05
2.16857e-05
1.78084e-05
2.4258e-05
2.80069e-05
1.67238e-05
2.79605e-05
1.67179e-05
1.78139e-05
1.98678e-05
2.38203e-05
3.45524e-05
4.0856e-05
3.46051e-05
1.9858e-05
2.38593e-05
1.77585e-05
2.41449e-05
2.77698e-05
1.66889e-05
2.7822e-05
1.77623e-05
1.66957e-05
1.99612e-05
3.47281e-05
4.09342e-05
2.39846e-05
3.47049e-05
2.39344e-05
1.99783e-05
1.78318e-05
2.42389e-05
1.67214e-05
2.81443e-05
1.67177e-05
2.80902e-05
1.78425e-05
1.98872e-05
2.38227e-05
3.46888e-05
4.08724e-05
1.98796e-05
3.47492e-05
2.38592e-05
1.77769e-05
2.41262e-05
1.66899e-05
2.79105e-05
1.77811e-05
1.66967e-05
2.79584e-05
1.99659e-05
3.49423e-05
4.0953e-05
2.39665e-05
3.48508e-05
1.99953e-05
2.39456e-05
1.78563e-05
2.81008e-05
1.67445e-05
2.44588e-05
1.78622e-05
2.81637e-05
1.67485e-05
2.0116e-05
2.42807e-05
4.12639e-05
3.50967e-05
2.42084e-05
3.50294e-05
2.01059e-05
2.00374e-05
3.4873e-05
2.40781e-05
4.11704e-05
2.41559e-05
2.0037e-05
3.4921e-05
1.79105e-05
2.45144e-05
2.82726e-05
1.67756e-05
2.82349e-05
1.67748e-05
1.79129e-05
1.78833e-05
1.67472e-05
2.82267e-05
2.4434e-05
1.78879e-05
1.67478e-05
2.83104e-05
2.01545e-05
2.42559e-05
4.12952e-05
3.5301e-05
3.5261e-05
2.42231e-05
2.01508e-05
2.00954e-05
3.50543e-05
2.40863e-05
4.11831e-05
2.0077e-05
3.51562e-05
2.41135e-05
1.79384e-05
2.44766e-05
1.67725e-05
2.84386e-05
1.67722e-05
2.83763e-05
1.79413e-05
1.78271e-05
2.42756e-05
1.67219e-05
2.81431e-05
1.67152e-05
2.80803e-05
1.78254e-05
1.99548e-05
3.49002e-05
4.09824e-05
2.39946e-05
2.39441e-05
3.48027e-05
1.99569e-05
1.78713e-05
2.81493e-05
1.67404e-05
2.44082e-05
1.78605e-05
2.81973e-05
1.67411e-05
2.01469e-05
2.43091e-05
4.13497e-05
3.51425e-05
2.01654e-05
2.42719e-05
3.51201e-05
2.00796e-05
3.49582e-05
2.41273e-05
4.12293e-05
2.00533e-05
2.42074e-05
3.50313e-05
1.79143e-05
2.44874e-05
2.83222e-05
1.67647e-05
1.79158e-05
2.82935e-05
1.67647e-05
1.78984e-05
1.67456e-05
2.82412e-05
2.44983e-05
1.78914e-05
1.6754e-05
2.83245e-05
2.01441e-05
2.42436e-05
4.13024e-05
3.52133e-05
3.51534e-05
2.42168e-05
2.01309e-05
2.00637e-05
3.49978e-05
2.40828e-05
4.11976e-05
2.00625e-05
3.50433e-05
2.415e-05
1.79312e-05
2.4619e-05
1.67798e-05
2.84763e-05
1.67743e-05
2.83911e-05
1.79438e-05
3.22223e-05
1.69248e-05
2.15895e-05
2.15898e-05
2.15403e-05
2.15303e-05
3.22776e-05
3.24843e-05
1.69358e-05
2.16478e-05
2.16641e-05
2.17069e-05
3.23974e-05
2.16805e-05
1.78165e-05
2.42387e-05
1.67184e-05
2.80544e-05
1.67125e-05
2.79994e-05
1.78263e-05
1.98606e-05
2.3793e-05
3.45267e-05
4.08445e-05
2.38483e-05
1.98603e-05
3.45869e-05
1.77632e-05
2.41355e-05
1.66854e-05
2.78218e-05
1.6688e-05
1.77714e-05
2.78717e-05
1.99606e-05
3.47683e-05
4.09281e-05
2.39681e-05
2.3943e-05
3.46799e-05
1.99737e-05
1.78586e-05
1.67309e-05
2.8111e-05
2.43933e-05
1.7851e-05
1.67368e-05
2.81543e-05
2.01219e-05
2.42514e-05
4.12815e-05
3.51564e-05
2.01354e-05
2.41963e-05
3.50602e-05
2.0016e-05
3.49033e-05
2.40747e-05
4.11768e-05
2.00223e-05
2.41012e-05
3.49548e-05
1.79024e-05
2.44841e-05
1.67605e-05
2.82941e-05
1.79047e-05
1.67563e-05
2.8249e-05
1.78722e-05
1.67388e-05
2.81534e-05
2.44485e-05
1.78677e-05
1.67454e-05
2.82326e-05
2.01158e-05
2.4263e-05
4.12253e-05
3.50677e-05
3.5017e-05
2.41924e-05
2.01157e-05
2.00474e-05
3.4865e-05
2.4066e-05
4.1126e-05
2.00298e-05
3.4935e-05
2.41203e-05
1.79229e-05
2.45203e-05
1.67678e-05
2.8398e-05
1.6766e-05
2.82897e-05
1.79361e-05
3.24566e-05
1.69369e-05
2.16454e-05
2.16408e-05
3.23406e-05
2.16727e-05
2.16949e-05
3.29738e-05
1.70165e-05
2.20185e-05
2.20181e-05
3.30563e-05
2.201e-05
2.19855e-05
1.80055e-05
2.46602e-05
2.8565e-05
1.67974e-05
2.85118e-05
1.67984e-05
1.80067e-05
2.01871e-05
2.43801e-05
3.52151e-05
4.14746e-05
3.5266e-05
2.01925e-05
2.44391e-05
1.79558e-05
2.45715e-05
2.83895e-05
1.67759e-05
2.84484e-05
1.79487e-05
1.67753e-05
2.02894e-05
3.54201e-05
4.15682e-05
2.45239e-05
3.53277e-05
2.45032e-05
2.03012e-05
1.8032e-05
2.47793e-05
2.86888e-05
1.68227e-05
2.8641e-05
1.68235e-05
1.80434e-05
2.02385e-05
2.44154e-05
3.52936e-05
4.15621e-05
2.02315e-05
3.53462e-05
2.44617e-05
1.79822e-05
2.47174e-05
2.84813e-05
1.67995e-05
1.79817e-05
2.85506e-05
1.67995e-05
2.03025e-05
3.5484e-05
4.1625e-05
2.45681e-05
3.54258e-05
2.03267e-05
2.45268e-05
3.28057e-05
1.70049e-05
2.20806e-05
2.19855e-05
2.19324e-05
2.20261e-05
3.28977e-05
1.80207e-05
2.48031e-05
2.86227e-05
1.68257e-05
2.85491e-05
1.6826e-05
1.80219e-05
2.01749e-05
2.43395e-05
3.51924e-05
4.14238e-05
3.52324e-05
2.01871e-05
2.43661e-05
1.79694e-05
2.47067e-05
2.84103e-05
1.68011e-05
2.84722e-05
1.7962e-05
1.68015e-05
2.0273e-05
3.53688e-05
4.14957e-05
2.44441e-05
3.53354e-05
2.44311e-05
2.02822e-05
1.80482e-05
2.4783e-05
1.68203e-05
2.87375e-05
1.68214e-05
2.87084e-05
1.80485e-05
2.02603e-05
2.43407e-05
3.54045e-05
4.14837e-05
2.02513e-05
3.5423e-05
2.43761e-05
1.7999e-05
2.46991e-05
1.67969e-05
2.85526e-05
1.79901e-05
1.6797e-05
2.8596e-05
2.0303e-05
3.56332e-05
4.1536e-05
2.44543e-05
3.55994e-05
2.02907e-05
2.44328e-05
1.80442e-05
2.48248e-05
1.68346e-05
2.88359e-05
1.68347e-05
2.87268e-05
1.80537e-05
2.02582e-05
2.43358e-05
3.53182e-05
4.14667e-05
2.43805e-05
2.02459e-05
3.53648e-05
1.79937e-05
2.47695e-05
1.68093e-05
2.85893e-05
1.68104e-05
1.7989e-05
2.86413e-05
2.0305e-05
3.54709e-05
4.15265e-05
2.44927e-05
2.44267e-05
3.5416e-05
2.02891e-05
3.29926e-05
1.70002e-05
2.20113e-05
2.20136e-05
2.19859e-05
2.20002e-05
3.30954e-05
1.80344e-05
2.48739e-05
1.68252e-05
2.86785e-05
1.68203e-05
2.8631e-05
1.80342e-05
2.02075e-05
2.43138e-05
3.51818e-05
4.14193e-05
2.43448e-05
2.01997e-05
3.5226e-05
1.7985e-05
2.47517e-05
1.67916e-05
2.849e-05
1.67954e-05
1.79776e-05
2.8537e-05
2.02552e-05
3.53367e-05
4.14415e-05
2.44456e-05
2.43805e-05
3.52789e-05
2.02396e-05
3.60233e-05
3.60196e-05
3.60197e-05
3.60084e-05
3.39295e-05
3.38843e-05
3.38855e-05
3.39584e-05
3.21566e-05
3.20021e-05
3.20019e-05
3.19431e-05
3.0532e-05
3.0221e-05
3.02203e-05
2.99739e-05
2.90288e-05
2.85428e-05
2.85428e-05
2.81033e-05
2.76301e-05
2.69739e-05
2.69748e-05
2.63701e-05
2.63247e-05
2.55165e-05
2.55179e-05
2.47883e-05
2.51043e-05
2.41689e-05
2.41712e-05
2.33622e-05
2.39633e-05
2.29333e-05
2.29364e-05
2.20902e-05
2.28975e-05
2.18099e-05
2.1813e-05
2.09752e-05
2.19037e-05
2.07962e-05
2.07986e-05
2.00049e-05
2.09786e-05
1.98883e-05
1.98899e-05
1.91749e-05
2.01171e-05
1.90837e-05
1.90845e-05
1.84844e-05
1.93181e-05
1.83789e-05
1.83791e-05
1.79285e-05
1.85802e-05
1.77704e-05
1.77703e-05
1.75001e-05
1.79004e-05
1.72549e-05
1.72549e-05
1.71846e-05
1.72759e-05
1.68279e-05
1.68278e-05
1.69783e-05
1.67036e-05
1.64832e-05
1.64831e-05
1.6879e-05
1.61809e-05
1.62134e-05
1.62126e-05
1.6868e-05
1.60051e-05
1.69101e-05
3.62977e-05
3.62919e-05
3.62919e-05
3.62978e-05
3.62919e-05
3.62919e-05
3.62908e-05
3.62909e-05
3.62908e-05
3.62908e-05
3.6292e-05
3.62919e-05
3.62978e-05
3.62919e-05
3.6292e-05
3.62978e-05
3.60086e-05
3.42661e-05