/*--------------------------------*- C++ -*----------------------------------*\
| =========                 |                                                 |
| \\      /  F ield         | OpenFOAM: The Open Source CFD Toolbox           |
|  \\    /   O peration     | Version:  2312                                  |
|   \\  /    A nd           | Website:  www.openfoam.com                      |
|    \\/     M anipulation  |                                                 |
\*---------------------------------------------------------------------------*/
FoamFile
{
    version     2.0;
    format      ascii;
    arch        "LSB;label=32;scalar=64";
    class       volVectorField;
    location    "100";
    object      U;
}
// * * * * * * * * * * * * * * * * * * * * * * * * * * * * * * * * * * * * * //

dimensions      [0 1 -1 0 0 0 0];

internalField   nonuniform List<vector> 
43008
(
(5.22056e-05 5.20216e-05 0.108244)
(4.8176e-05 -8.03834e-05 0.107531)
(4.14824e-05 4.12615e-05 0.108473)
(-6.49957e-05 3.95391e-05 0.107684)
(3.96988e-05 -6.47378e-05 0.107684)
(-0.000114546 -0.000114061 0.106582)
(0.00013062 0.000130579 0.106525)
(-8.44555e-06 -8.52425e-06 0.106691)
(4.84493e-05 8.04547e-05 0.10753)
(-4.8427e-05 8.06047e-05 0.10753)
(4.22775e-05 6.87982e-05 0.10765)
(-4.22599e-05 6.8931e-05 0.10765)
(8.66281e-06 -8.61835e-06 0.106693)
(8.05159e-05 4.81618e-05 0.107531)
(8.06507e-05 -4.80565e-05 0.10753)
(6.87641e-05 4.18567e-05 0.107651)
(6.88982e-05 -4.19752e-05 0.10765)
(-6.89485e-05 4.17978e-05 0.10765)
(-6.89261e-05 -4.17462e-05 0.10765)
(0.000130524 -0.000130368 0.106526)
(-8.23231e-06 8.9526e-06 0.106693)
(-4.83021e-05 -8.05048e-05 0.107531)
(4.20758e-05 -6.86431e-05 0.107651)
(-4.20007e-05 -6.87388e-05 0.107651)
(8.49839e-06 8.96582e-06 0.106693)
(0.000114446 0.00011437 0.106579)
(3.99894e-05 6.49075e-05 0.107683)
(-4.00051e-05 6.49902e-05 0.107682)
(-0.000114284 0.000114242 0.106581)
(6.48798e-05 3.95088e-05 0.107684)
(6.4983e-05 -3.96948e-05 0.107683)
(-6.50084e-05 -3.93477e-05 0.107683)
(0.000114723 -0.000114104 0.106581)
(-3.95269e-05 -6.47672e-05 0.107684)
(2.98507e-06 1.52853e-05 0.094903)
(-9.97183e-07 3.47728e-05 0.0840481)
(3.26664e-06 6.61466e-05 0.0949022)
(-3.05744e-06 -5.00787e-06 0.0840452)
(6.60678e-06 -5.24642e-06 0.0724084)
(1.53314e-05 2.54437e-06 0.0948988)
(3.4476e-05 -8.79094e-07 0.0840485)
(6.60499e-05 2.94065e-06 0.0949004)
(-5.34933e-06 -3.15756e-06 0.0840449)
(-5.21835e-05 5.20592e-05 0.108244)
(5.21826e-05 -5.19962e-05 0.108244)
(-5.21767e-05 -5.21053e-05 0.108244)
(4.42616e-05 4.40704e-05 0.108421)
(-4.43053e-05 4.40598e-05 0.108421)
(4.42848e-05 -4.40363e-05 0.108422)
(-4.42248e-05 -4.39848e-05 0.108422)
(-4.38384e-05 4.91202e-06 0.103146)
(-7.67395e-05 4.61092e-05 0.107574)
(-2.20018e-05 8.13746e-07 0.0964866)
(-8.2479e-05 1.61594e-05 0.108067)
(1.52737e-05 -3.247e-06 0.0723583)
(-5.36661e-06 6.62298e-06 0.0723911)
(4.70988e-06 -4.37719e-05 0.103149)
(1.70121e-05 -8.63458e-05 0.108012)
(2.94784e-05 -6.90582e-05 0.0964497)
(4.62102e-05 -7.64607e-05 0.107574)
(5.50887e-06 -0.000109773 0.103095)
(1.61832e-05 -8.22985e-05 0.108067)
(1.1509e-06 -2.1604e-05 0.0964877)
(1.3529e-06 1.8013e-06 0.106664)
(-1.35695e-05 2.55771e-06 0.0899761)
(2.45816e-06 -1.35317e-05 0.0899719)
(2.31344e-06 -1.96948e-07 0.0946839)
(-3.09888e-07 2.77481e-05 0.0838097)
(2.83723e-06 4.97867e-05 0.0946529)
(-2.55898e-06 -1.09354e-05 0.0838378)
(-3.27804e-06 1.33268e-05 0.0722128)
(6.09915e-06 -7.06187e-06 0.0722725)
(1.846e-07 2.01612e-06 0.0946727)
(2.7529e-05 -5.75505e-07 0.0838078)
(4.95772e-05 2.39325e-06 0.0946447)
(-1.10058e-05 -2.84114e-06 0.0838347)
(-4.1553e-05 4.12856e-05 0.108473)
(4.14615e-05 -4.12897e-05 0.108473)
(-4.14316e-05 -4.11535e-05 0.108473)
(-2.09087e-05 4.5055e-06 0.103012)
(-5.49422e-05 2.29605e-05 0.0961888)
(-6.95469e-05 1.37069e-05 0.108213)
(-6.08035e-05 3.75131e-05 0.107714)
(-8.55676e-05 4.53038e-06 0.102949)
(-7.6351e-06 -5.09221e-06 0.0962503)
(-6.51354e-05 1.29357e-05 0.108254)
(1.33615e-05 -2.78215e-06 0.0721965)
(-6.79554e-06 6.81141e-06 0.072256)
(3.2893e-06 -2.06293e-05 0.103007)
(1.36181e-05 -6.93242e-05 0.108213)
(2.30873e-05 -5.44574e-05 0.0961944)
(3.75362e-05 -6.06036e-05 0.107714)
(3.77508e-06 -8.53245e-05 0.102949)
(1.27912e-05 -6.49323e-05 0.108254)
(-5.08349e-06 -7.31307e-06 0.0962531)
(-2.6609e-05 -1.57172e-05 0.0897193)
(-1.5781e-05 -2.64615e-05 0.0897164)
(1.58107e-05 1.66836e-05 0.106711)
(-5.64592e-06 6.19678e-06 0.0897598)
(5.85743e-06 -5.75092e-06 0.0897526)
(3.30002e-06 1.55429e-05 0.0723555)
(-6.42062e-06 -5.34312e-06 0.0723882)
(1.54003e-05 3.23572e-06 0.0723539)
(-5.40757e-06 -6.67186e-06 0.072386)
(1.92571e-05 3.47565e-05 0.0899696)
(3.51237e-05 1.95573e-05 0.089963)
(-1.40839e-06 -1.45126e-06 0.106663)
(-3.10375e-06 1.34805e-05 0.0899804)
(1.37836e-05 -2.7422e-06 0.0899735)
(-5.96586e-06 -6.016e-06 0.072311)
(3.37082e-06 1.42612e-05 0.0722651)
(-6.15312e-06 -6.38459e-06 0.0723081)
(1.4267e-05 3.01565e-06 0.072262)
(0.000122667 0.000122469 0.106557)
(-4.73656e-06 9.01249e-06 0.0898641)
(9.60457e-06 -4.52441e-06 0.0898565)
(1.72637e-05 3.07828e-05 0.0898376)
(3.11326e-05 1.76629e-05 0.08983)
(-2.75138e-06 1.51915e-05 0.0948999)
(1.31464e-06 3.43278e-05 0.0840565)
(-3.01168e-06 6.62624e-05 0.0948996)
(3.14978e-06 -5.35859e-06 0.0840541)
(4.93037e-06 4.35905e-05 0.103156)
(2.95644e-05 6.91769e-05 0.0964502)
(1.71128e-05 8.62685e-05 0.108012)
(4.65006e-05 7.65223e-05 0.107573)
(5.49944e-06 0.000109638 0.1031)
(1.00143e-06 2.15949e-05 0.0964888)
(1.62656e-05 8.22628e-05 0.108068)
(-5.51478e-06 4.37814e-05 0.103148)
(-2.93295e-05 6.88256e-05 0.0964466)
(-1.71219e-05 8.63699e-05 0.108012)
(-4.65094e-05 7.671e-05 0.107573)
(-6.08943e-06 0.000109721 0.103093)
(-9.94895e-07 2.14578e-05 0.096484)
(-1.63173e-05 8.23836e-05 0.108067)
(3.10513e-06 5.80828e-05 0.0947667)
(-2.70239e-06 -8.20004e-06 0.0839312)
(-5.67057e-07 3.09918e-05 0.0839189)
(2.62045e-06 7.30143e-06 0.0947826)
(-3.04889e-06 5.78648e-05 0.0947643)
(2.5981e-06 -8.42031e-06 0.0839396)
(6.82705e-07 3.06655e-05 0.0839281)
(-2.73859e-06 7.42591e-06 0.0947795)
(4.83029e-06 9.77288e-05 0.103029)
(4.42684e-05 7.29409e-05 0.107613)
(-2.14672e-06 1.38423e-05 0.0963644)
(1.46168e-05 7.36577e-05 0.108168)
(2.65734e-05 6.20414e-05 0.0963159)
(1.54568e-05 7.80594e-05 0.10812)
(4.4083e-06 3.16159e-05 0.103088)
(-5.37754e-06 9.76378e-05 0.10302)
(-4.42726e-05 7.30791e-05 0.107613)
(2.06605e-06 1.40327e-05 0.0963583)
(-1.47069e-05 7.37664e-05 0.108168)
(-2.64036e-05 6.19701e-05 0.0963114)
(-1.55095e-05 7.81536e-05 0.108119)
(-5.04925e-06 3.16866e-05 0.103078)
(1.56655e-06 -1.51827e-06 0.106665)
(2.91297e-06 1.34776e-05 0.0899769)
(-1.40199e-05 -3.18833e-06 0.0899765)
(5.01447e-06 -6.6509e-06 0.0724075)
(6.16678e-06 -6.01632e-06 0.0723322)
(-3.04802e-06 1.42415e-05 0.0722852)
(-0.000122411 0.000122419 0.106559)
(4.61133e-06 9.40682e-06 0.0898607)
(-9.84159e-06 -5.0026e-06 0.089858)
(-1.73551e-05 3.07189e-05 0.0898337)
(-3.12142e-05 1.7198e-05 0.08983)
(5.90911e-06 -6.56717e-06 0.0723312)
(-1.4307e-05 2.94934e-06 0.0722792)
(4.41103e-05 4.76678e-06 0.103147)
(6.91942e-05 2.94883e-05 0.0964486)
(8.6498e-05 1.69774e-05 0.108012)
(7.65771e-05 4.61799e-05 0.107574)
(0.000109789 5.4015e-06 0.103093)
(2.1847e-05 9.24525e-07 0.0964869)
(8.24931e-05 1.61477e-05 0.108067)
(1.52227e-05 -3.27319e-06 0.0948944)
(3.44242e-05 8.14369e-07 0.0840499)
(6.58092e-05 -3.47144e-06 0.0948966)
(-5.38629e-06 3.03148e-06 0.0840462)
(4.41657e-05 -5.40419e-06 0.103145)
(8.65469e-05 -1.71207e-05 0.108012)
(6.92347e-05 -2.91089e-05 0.0964468)
(7.66698e-05 -4.60807e-05 0.107573)
(0.000109849 -6.17509e-06 0.103091)
(8.25415e-05 -1.63102e-05 0.108067)
(2.19199e-05 -4.95042e-07 0.0964835)
(5.80165e-05 2.75303e-06 0.094762)
(-8.47237e-06 -2.95207e-06 0.0839296)
(3.0759e-05 -6.81128e-07 0.0839183)
(7.47753e-06 2.19248e-06 0.0947751)
(9.82285e-05 4.63609e-06 0.103018)
(7.29337e-05 4.39352e-05 0.107614)
(1.43625e-05 -2.23388e-06 0.0963623)
(7.39312e-05 1.4458e-05 0.108168)
(6.24099e-05 2.64878e-05 0.0963137)
(7.82948e-05 1.52982e-05 0.108119)
(3.23461e-05 4.18197e-06 0.103074)
(5.80053e-05 -3.4699e-06 0.0947579)
(-8.62094e-06 3.32008e-06 0.0839313)
(3.0706e-05 6.46407e-07 0.0839199)
(7.87636e-06 -3.06891e-06 0.0947702)
(9.82657e-05 -5.23838e-06 0.103016)
(7.3038e-05 -4.38811e-05 0.107613)
(7.39729e-05 -1.4637e-05 0.108168)
(1.4521e-05 2.58584e-06 0.0963578)
(7.83548e-05 -1.5488e-05 0.108119)
(6.25565e-05 -2.62021e-05 0.0963115)
(3.2352e-05 -4.60978e-06 0.103073)
(-1.47053e-05 3.08749e-06 0.0948945)
(4.9776e-06 -3.46294e-06 0.0840534)
(-4.42109e-05 -5.47555e-06 0.103144)
(-7.67225e-05 -4.61626e-05 0.107574)
(-8.26264e-05 -1.62501e-05 0.108067)
(-2.17191e-05 -9.70192e-07 0.0964883)
(-1.5169e-05 -2.40515e-06 0.0948977)
(5.38897e-06 2.45863e-06 0.0840483)
(-9.78018e-05 4.6386e-06 0.103017)
(-7.30718e-05 4.38497e-05 0.107614)
(-1.45208e-05 -2.24224e-06 0.0963612)
(-7.39486e-05 1.45138e-05 0.108168)
(-6.23058e-05 2.62199e-05 0.0963104)
(-7.83362e-05 1.53014e-05 0.10812)
(-3.1918e-05 4.61182e-06 0.103076)
(-5.71218e-05 3.05578e-06 0.0947559)
(7.87813e-06 -3.2496e-06 0.0839383)
(-3.10351e-05 -1.05822e-06 0.0839237)
(-6.87686e-06 2.75177e-06 0.0947742)
(-9.81621e-05 -5.62717e-06 0.103015)
(-7.30698e-05 -4.39052e-05 0.107613)
(-7.4037e-05 -1.46042e-05 0.108168)
(-1.44101e-05 2.07593e-06 0.0963638)
(-7.84673e-05 -1.54336e-05 0.108119)
(-6.21692e-05 -2.64914e-05 0.0963147)
(-3.22081e-05 -5.357e-06 0.103071)
(-5.79323e-05 -2.85731e-06 0.0947614)
(8.29692e-06 2.64335e-06 0.0839337)
(-3.06599e-05 4.91206e-08 0.0839216)
(-7.36536e-06 -2.57723e-06 0.094776)
(3.51961e-05 -1.94014e-05 0.0899618)
(1.92708e-05 -3.47131e-05 0.0899652)
(-1.35477e-06 1.89397e-06 0.106665)
(1.40733e-05 3.09585e-06 0.089969)
(-3.09327e-06 -1.33556e-05 0.0899759)
(3.34875e-06 -1.54123e-05 0.0723566)
(-6.08494e-06 5.47878e-06 0.0723899)
(-6.17289e-06 6.84844e-06 0.0723147)
(1.41115e-05 -3.01858e-06 0.0722684)
(0.000122641 -0.000122199 0.106559)
(9.68352e-06 4.97104e-06 0.0898511)
(-4.91676e-06 -9.10551e-06 0.0898586)
(3.12132e-05 -1.72387e-05 0.089828)
(1.72028e-05 -3.0443e-05 0.0898328)
(-6.03412e-06 6.26576e-06 0.0723123)
(3.5606e-06 -1.40669e-05 0.0722663)
(-5.38218e-06 -4.38767e-05 0.103147)
(-1.7146e-05 -8.63787e-05 0.108012)
(-2.99119e-05 -6.92352e-05 0.0964484)
(-4.62954e-05 -7.65527e-05 0.107574)
(-5.9488e-06 -0.00010986 0.103092)
(-1.62893e-05 -8.23882e-05 0.108067)
(-1.52507e-06 -2.16018e-05 0.096486)
(2.71813e-06 -1.51828e-05 0.0948966)
(-6.6757e-07 -3.45697e-05 0.0840479)
(3.02706e-06 -6.62265e-05 0.0948961)
(-2.51579e-06 5.38296e-06 0.0840446)
(-3.25595e-06 -1.52387e-05 0.0948973)
(2.98745e-07 -3.43204e-05 0.0840459)
(-3.41489e-06 -6.63247e-05 0.0948961)
(2.00902e-06 5.59838e-06 0.0840414)
(4.63471e-06 -9.76896e-05 0.103021)
(4.40407e-05 -7.27791e-05 0.107614)
(1.44692e-05 -7.37291e-05 0.108168)
(-2.08271e-06 -1.39423e-05 0.0963628)
(1.53273e-05 -7.81227e-05 0.108119)
(2.66371e-05 -6.21303e-05 0.096315)
(3.9898e-06 -3.17289e-05 0.103077)
(-5.28416e-06 -9.79418e-05 0.103018)
(-4.41076e-05 -7.28539e-05 0.107614)
(-1.45679e-05 -7.38471e-05 0.108168)
(1.46118e-06 -1.41572e-05 0.0963613)
(-1.54506e-05 -7.82043e-05 0.108119)
(-2.71465e-05 -6.20259e-05 0.0963139)
(-4.7655e-06 -3.21953e-05 0.103075)
(2.96242e-06 -5.78277e-05 0.0947606)
(-2.50884e-06 8.46735e-06 0.0839301)
(-1.1927e-07 -3.07153e-05 0.0839185)
(2.46999e-06 -7.32549e-06 0.094776)
(-3.42076e-06 -5.78575e-05 0.0947597)
(1.87592e-06 8.76875e-06 0.0839249)
(-4.87339e-07 -3.0571e-05 0.0839148)
(-3.18454e-06 -7.4762e-06 0.0947761)
(5.43423e-06 5.90939e-06 0.0723866)
(5.90693e-06 5.62486e-06 0.0723797)
(-0.000122752 -0.000122355 0.106559)
(-9.47024e-06 4.295e-06 0.0898578)
(4.30983e-06 -9.25415e-06 0.0898528)
(-3.08703e-05 -1.78316e-05 0.0898325)
(-1.79536e-05 -3.06085e-05 0.0898302)
(6.35575e-06 6.04459e-06 0.0723086)
(-1.40049e-05 -3.6711e-06 0.0722624)
(5.72189e-06 6.50609e-06 0.0723006)
(-3.86427e-06 -1.39368e-05 0.0722563)
(3.44279e-06 1.35473e-05 0.0721916)
(-6.09946e-06 -6.87076e-06 0.0722499)
(1.32079e-05 3.08865e-06 0.0721887)
(-6.99482e-06 -6.37137e-06 0.0722484)
(1.51571e-05 2.61258e-05 0.0897271)
(2.67662e-05 1.55782e-05 0.0897179)
(-1.56809e-05 -1.57258e-05 0.106708)
(-6.65805e-06 4.79768e-06 0.0897687)
(5.43982e-06 -6.26071e-06 0.0897591)
(-2.7121e-06 -6.39184e-07 0.0946808)
(3.96045e-07 2.73604e-05 0.0838185)
(-2.9441e-06 4.97299e-05 0.0946502)
(2.34779e-06 -1.10365e-05 0.083845)
(3.83168e-06 2.00786e-05 0.103023)
(2.31257e-05 5.44983e-05 0.0961957)
(1.36949e-05 6.92053e-05 0.108213)
(3.78353e-05 6.06153e-05 0.107713)
(4.19481e-06 8.53451e-05 0.102961)
(-4.95232e-06 7.08805e-06 0.0962546)
(1.27804e-05 6.47895e-05 0.108254)
(-4.3205e-06 2.00478e-05 0.103013)
(-2.30771e-05 5.4489e-05 0.0961901)
(-1.3858e-05 6.92866e-05 0.108212)
(-3.78968e-05 6.07391e-05 0.107712)
(-4.92402e-06 8.54075e-05 0.102951)
(4.80383e-06 7.10548e-06 0.0962472)
(-1.3028e-05 6.4883e-05 0.108254)
(-1.52441e-05 2.64319e-05 0.0897229)
(-2.68061e-05 1.4867e-05 0.0897168)
(1.56005e-05 -1.57708e-05 0.10671)
(6.22659e-06 5.40243e-06 0.0897641)
(-5.67405e-06 -6.88244e-06 0.08976)
(-1.3373e-05 2.88115e-06 0.0722063)
(6.71754e-06 -6.7162e-06 0.0722712)
(2.11193e-05 3.55862e-06 0.103004)
(5.4828e-05 2.30053e-05 0.0961932)
(6.95178e-05 1.3605e-05 0.108213)
(6.064e-05 3.73921e-05 0.107714)
(8.62135e-05 3.95958e-06 0.102945)
(7.31072e-06 -5.09267e-06 0.0962525)
(6.51329e-05 1.27542e-05 0.108254)
(8.51249e-08 -2.72158e-06 0.0946676)
(2.72701e-05 9.27532e-07 0.08381)
(5.01892e-05 -3.21802e-06 0.0946394)
(-1.10686e-05 3.33898e-06 0.0838369)
(2.11531e-05 -3.59689e-06 0.103004)
(6.95562e-05 -1.37219e-05 0.108212)
(5.49479e-05 -2.27973e-05 0.0961896)
(6.07233e-05 -3.76265e-05 0.107714)
(8.64101e-05 -4.59254e-06 0.102945)
(6.51058e-05 -1.28263e-05 0.108254)
(7.73377e-06 5.08154e-06 0.0962461)
(2.04641e-07 2.65261e-06 0.0946757)
(-2.78514e-05 -8.19638e-07 0.0838131)
(-4.91118e-05 2.68531e-06 0.0946421)
(1.04032e-05 -3.09894e-06 0.0838431)
(-2.0942e-05 -4.30689e-06 0.103005)
(-6.95684e-05 -1.37094e-05 0.108212)
(-5.48425e-05 -2.31258e-05 0.0961943)
(-6.07602e-05 -3.70773e-05 0.107713)
(-8.58563e-05 -5.32809e-06 0.102944)
(-6.51233e-05 -1.27771e-05 0.108254)
(-7.74383e-06 4.99922e-06 0.0962539)
(4.53945e-07 -2.45509e-06 0.0946769)
(-2.76347e-05 3.69855e-07 0.0838121)
(-4.97279e-05 -2.9467e-06 0.094646)
(1.06231e-05 3.26178e-06 0.08384)
(2.67588e-05 -1.50968e-05 0.0897157)
(1.50932e-05 -2.62087e-05 0.0897203)
(-1.54357e-05 1.58647e-05 0.106711)
(5.605e-06 6.61397e-06 0.089754)
(-6.6479e-06 -5.25454e-06 0.0897611)
(3.47844e-06 -1.32015e-05 0.0721927)
(-6.10366e-06 7.034e-06 0.0722515)
(-3.8069e-06 -2.09738e-05 0.103004)
(-1.35925e-05 -6.94247e-05 0.108212)
(-2.38018e-05 -5.47273e-05 0.0961934)
(-3.71206e-05 -6.04337e-05 0.107715)
(-4.49533e-06 -8.59304e-05 0.102945)
(-1.26156e-05 -6.50139e-05 0.108254)
(4.41038e-06 -7.48465e-06 0.0962517)
(2.23384e-06 5.20584e-08 0.0946739)
(-1.34008e-07 -2.7548e-05 0.0838088)
(2.85099e-06 -4.97314e-05 0.0946453)
(-2.79667e-06 1.09942e-05 0.0838366)
(-2.69169e-06 -3.49151e-07 0.0946751)
(-4.93083e-07 -2.72369e-05 0.0838036)
(-3.36554e-06 -5.01007e-05 0.0946447)
(2.33457e-06 1.10437e-05 0.0838295)
(-1.3209e-05 -3.39846e-06 0.0721889)
(6.96999e-06 6.45506e-06 0.0722487)
(-3.91664e-06 -1.29701e-05 0.0721817)
(5.91128e-06 7.30262e-06 0.0722392)
(1.42201e-06 1.31295e-05 0.0778277)
(3.20135e-06 6.22743e-05 0.0948318)
(1.57053e-06 -5.25338e-06 0.0797106)
(7.01976e-06 9.73538e-06 0.0929216)
(1.30571e-06 1.21594e-05 0.0796545)
(8.38499e-06 5.36092e-05 0.0928453)
(3.25435e-06 -5.1082e-06 0.0778939)
(4.62204e-06 -7.04337e-06 0.0692393)
(7.39882e-06 3.70123e-05 0.088069)
(-3.41956e-06 -3.29381e-06 0.0841101)
(2.42446e-06 1.11798e-05 0.0691494)
(6.71831e-06 2.94927e-06 0.0881427)
(2.66264e-06 -4.12008e-06 0.077939)
(3.04113e-06 1.90279e-05 0.0949711)
(1.39073e-06 1.31416e-05 0.0797041)
(8.39621e-06 5.68466e-05 0.092916)
(1.00684e-06 1.42496e-05 0.0778758)
(1.69228e-06 -4.03749e-06 0.0797564)
(6.97388e-06 1.30768e-05 0.0929898)
(2.66527e-06 1.07097e-05 0.0691071)
(6.78415e-06 8.41968e-07 0.0880739)
(-7.59739e-07 3.28501e-05 0.083981)
(7.38198e-06 3.48186e-05 0.0879981)
(4.93946e-06 -7.51355e-06 0.0691992)
(6.73489e-06 -4.66826e-06 0.0724534)
(-2.85191e-06 1.4848e-05 0.0723272)
(1.2993e-05 2.88568e-06 0.0778395)
(6.20541e-05 2.85567e-06 0.0948287)
(9.71105e-06 6.96064e-06 0.0929227)
(-6.3583e-06 1.3452e-06 0.0797354)
(5.35056e-05 8.42742e-06 0.0928465)
(1.10706e-05 9.96903e-07 0.0796767)
(-5.37587e-06 4.6497e-06 0.0779058)
(-7.25356e-06 5.01367e-06 0.0692472)
(3.66239e-05 7.591e-06 0.088072)
(-3.56563e-06 -3.05379e-06 0.0841103)
(1.11467e-05 2.76969e-06 0.0691577)
(2.53713e-06 6.96044e-06 0.0881457)
(-4.33621e-06 4.0528e-06 0.0779501)
(1.90651e-05 2.6992e-06 0.0949681)
(5.65985e-05 8.36479e-06 0.0929172)
(1.21554e-05 9.84185e-07 0.0797216)
(1.40065e-05 2.17358e-06 0.0778868)
(1.28847e-05 6.92852e-06 0.092991)
(-5.22855e-06 1.31071e-06 0.0797768)
(1.05212e-05 3.11926e-06 0.0691149)
(4.54804e-07 6.87587e-06 0.0880766)
(3.26218e-05 -7.97236e-07 0.0839812)
(3.4576e-05 7.50918e-06 0.0880009)
(-7.78776e-06 5.35352e-06 0.0692063)
(-4.76135e-06 6.53472e-06 0.0724364)
(1.4627e-05 -3.06428e-06 0.0723112)
(-2.42242e-05 -2.38466e-05 0.085651)
(-2.91464e-07 7.61015e-06 0.0694714)
(7.04946e-06 1.56766e-07 0.0694655)
(-8.87829e-06 -1.02183e-05 0.069387)
(-1.07814e-05 -8.42767e-06 0.0693816)
(-5.88735e-06 -5.48331e-06 0.0857125)
(-1.01292e-05 -1.58026e-05 0.0948108)
(-1.55442e-05 1.61259e-06 0.0900428)
(-2.44302e-05 -2.60732e-05 0.10018)
(-1.02667e-05 6.43492e-06 0.0833836)
(-1.63154e-05 -1.04351e-05 0.0947998)
(1.57218e-06 -1.57578e-05 0.0900391)
(-2.63973e-05 -2.44473e-05 0.100175)
(6.28952e-06 -1.00379e-05 0.0833795)
(-6.98783e-06 -6.68351e-06 0.0857696)
(-5.78487e-07 7.27338e-06 0.0695108)
(6.80469e-06 -1.96363e-07 0.0695048)
(-6.06176e-05 -3.65384e-05 0.0946654)
(-8.95136e-06 6.71141e-06 0.0833258)
(-3.27137e-05 -1.87486e-05 0.0898964)
(-2.06372e-05 -2.29988e-05 0.100125)
(-8.69765e-05 -5.10683e-05 0.100039)
(-2.59668e-05 -5.55506e-06 0.0832486)
(-7.72736e-06 -1.34733e-05 0.0947486)
(-3.71682e-05 -6.08529e-05 0.0946554)
(6.46686e-06 -8.5695e-06 0.0833226)
(-1.89454e-05 -3.28965e-05 0.0898944)
(-2.33554e-05 -2.05504e-05 0.100119)
(-5.14767e-05 -8.69437e-05 0.100035)
(-5.81114e-06 -2.57066e-05 0.0832469)
(-1.39958e-05 -7.89971e-06 0.0947369)
(2.64034e-06 9.74784e-06 0.0776921)
(2.51936e-06 4.58156e-05 0.0946039)
(5.56762e-07 -9.47799e-06 0.079591)
(6.08636e-06 -3.3267e-06 0.0927002)
(5.70495e-07 7.77135e-06 0.0795226)
(7.70756e-06 3.97596e-05 0.0926151)
(4.14795e-06 -8.57e-06 0.0777691)
(4.58241e-06 -8.27732e-06 0.0691031)
(6.40889e-06 2.84174e-05 0.0878151)
(-2.49811e-06 -9.32555e-06 0.083882)
(2.54569e-06 9.68856e-06 0.0690055)
(5.54798e-06 -5.10974e-06 0.0878987)
(3.95474e-06 -7.54509e-06 0.0777914)
(2.49611e-06 3.61004e-06 0.094731)
(1.03223e-06 8.67252e-06 0.079546)
(7.91106e-06 4.29346e-05 0.0926648)
(2.43298e-06 1.05343e-05 0.0777175)
(1.10303e-06 -8.43315e-06 0.0796113)
(6.36887e-06 -2.22622e-07 0.0927481)
(2.62006e-06 9.47734e-06 0.0689793)
(4.95391e-06 -7.08383e-06 0.0878507)
(-2.98376e-07 2.6113e-05 0.0837636)
(5.92019e-06 2.6445e-05 0.0877653)
(4.55042e-06 -8.73859e-06 0.0690787)
(6.2343e-06 -6.57636e-06 0.0723001)
(-3.44146e-06 1.27122e-05 0.0721833)
(9.68942e-06 3.34052e-06 0.0777051)
(4.62323e-05 2.22867e-06 0.0945937)
(-3.58554e-06 5.63354e-06 0.0927019)
(-9.68165e-06 1.13752e-06 0.0796266)
(3.94681e-05 7.26054e-06 0.0926168)
(7.40104e-06 1.06601e-06 0.0795576)
(-8.39906e-06 4.70805e-06 0.0777821)
(-8.4532e-06 5.04327e-06 0.0691075)
(2.83819e-05 6.65383e-06 0.0878169)
(-9.59521e-06 -2.84445e-06 0.0838795)
(9.68768e-06 3.15792e-06 0.0690103)
(-5.14134e-06 5.81173e-06 0.0878999)
(-7.58789e-06 4.77522e-06 0.0778048)
(3.95593e-06 2.14252e-06 0.0947221)
(4.27421e-05 7.66678e-06 0.0926664)
(8.39378e-06 1.36335e-06 0.079579)
(1.05035e-05 3.43148e-06 0.0777309)
(-5.15594e-07 6.06498e-06 0.0927494)
(-8.72051e-06 1.57317e-06 0.0796454)
(9.25865e-06 2.99201e-06 0.0689838)
(-7.05563e-06 5.26969e-06 0.0878512)
(2.59694e-05 -5.15873e-07 0.0837608)
(2.63598e-05 6.19731e-06 0.0877662)
(-8.87673e-06 4.87184e-06 0.0690832)
(-6.32107e-06 6.83819e-06 0.0722831)
(1.27858e-05 -2.74653e-06 0.0721676)
(-1.84987e-05 -1.87698e-05 0.0854659)
(1.47685e-06 8.21438e-06 0.069357)
(8.47987e-06 1.19182e-06 0.0693513)
(-7.04275e-06 -9.29546e-06 0.069265)
(-9.05738e-06 -7.27351e-06 0.0692597)
(-2.38757e-07 -5.43996e-07 0.085537)
(-2.54463e-07 -6.63156e-06 0.0945869)
(-7.47006e-05 -4.18409e-05 0.0998864)
(-2.12274e-05 -4.66444e-06 0.083099)
(-7.61495e-06 5.12396e-06 0.0898065)
(-5.22088e-05 -2.94565e-05 0.0944985)
(-8.94044e-06 -1.36865e-05 0.0999764)
(-4.1917e-06 7.33137e-06 0.0831836)
(-6.92077e-06 -7.01894e-08 0.0945728)
(-4.2379e-05 -7.44711e-05 0.0998794)
(-4.84133e-06 -2.0842e-05 0.0831)
(4.98219e-06 -7.50541e-06 0.0898006)
(-3.01736e-05 -5.23924e-05 0.094486)
(-1.39989e-05 -8.36199e-06 0.0999682)
(7.33699e-06 -3.86942e-06 0.0831827)
(-1.67284e-06 -1.69663e-06 0.0855732)
(-7.58709e-06 -9.31171e-06 0.0692892)
(-9.66304e-06 -7.37323e-06 0.069284)
(-1.99893e-05 -1.98017e-05 0.0855045)
(1.0087e-06 8.16152e-06 0.0693792)
(8.11419e-06 9.81251e-07 0.0693735)
(-4.94913e-05 -2.72304e-05 0.0944512)
(-2.49368e-06 7.65143e-06 0.0831465)
(-2.47326e-05 -1.46082e-05 0.089671)
(-5.12692e-06 -1.06671e-05 0.0999318)
(-7.05931e-05 -3.86431e-05 0.0998413)
(-1.96644e-05 -4.46477e-06 0.0830599)
(1.9878e-06 -4.61481e-06 0.0945419)
(-2.7507e-05 -4.93945e-05 0.0944381)
(7.86877e-06 -2.45367e-06 0.0831455)
(-1.49427e-05 -2.47362e-05 0.0896668)
(-1.09945e-05 -4.66355e-06 0.0999236)
(-3.90252e-05 -7.01595e-05 0.0998342)
(-4.28687e-06 -1.95429e-05 0.0830608)
(-4.65192e-06 2.18283e-06 0.0945272)
(-6.61661e-06 -4.81716e-06 0.0724338)
(3.22787e-06 1.47624e-05 0.0723078)
(-4.40556e-06 -6.35637e-06 0.0724325)
(1.4902e-05 3.1205e-06 0.0723059)
(2.40975e-05 2.3769e-05 0.0856562)
(-7.15531e-06 -1.75981e-07 0.0694775)
(3.77279e-07 -7.85762e-06 0.0694664)
(1.0571e-05 8.43614e-06 0.0693916)
(9.05108e-06 9.90462e-06 0.069381)
(5.803e-06 5.49355e-06 0.0857196)
(1.60816e-05 1.01534e-05 0.0948124)
(5.41214e-05 9.07266e-05 0.100092)
(5.703e-06 2.71415e-05 0.0833189)
(-2.21191e-06 1.56483e-05 0.0900468)
(3.92908e-05 6.35415e-05 0.0947314)
(-6.75447e-06 9.84564e-06 0.0833947)
(2.60822e-05 2.42241e-05 0.100176)
(9.87651e-06 1.53868e-05 0.0948079)
(9.06386e-05 5.38327e-05 0.100092)
(2.76525e-05 5.35966e-06 0.0833041)
(1.61291e-05 -1.83055e-06 0.0900405)
(6.32549e-05 3.88463e-05 0.0947254)
(1.06735e-05 -6.95078e-06 0.0833796)
(2.44481e-05 2.59662e-05 0.100178)
(6.91849e-06 6.42117e-06 0.0857759)
(1.10055e-05 8.92811e-06 0.0694322)
(9.22917e-06 1.02913e-05 0.0694219)
(2.54604e-05 2.52352e-05 0.0857152)
(-6.96145e-06 1.57415e-08 0.0695159)
(6.50725e-07 -7.89534e-06 0.0695051)
(3.67371e-05 6.04146e-05 0.0946666)
(-6.90236e-06 8.35014e-06 0.083339)
(1.82042e-05 3.28035e-05 0.0899009)
(2.29447e-05 2.04154e-05 0.10012)
(5.24865e-06 2.5488e-05 0.0832606)
(1.37159e-05 7.73356e-06 0.0947501)
(5.10166e-05 8.66472e-05 0.100035)
(6.01302e-05 3.6204e-05 0.0946619)
(9.22337e-06 -6.97531e-06 0.083322)
(3.29528e-05 1.85401e-05 0.0898941)
(2.05361e-05 2.27561e-05 0.100123)
(2.63016e-05 5.26136e-06 0.0832444)
(7.15622e-06 1.29086e-05 0.0947465)
(8.65666e-05 5.07352e-05 0.100036)
(3.44101e-06 1.36312e-05 0.0722262)
(-6.38659e-06 -5.89183e-06 0.0723476)
(1.372e-05 3.14597e-06 0.072223)
(-5.78654e-06 -6.5446e-06 0.0723448)
(4.3988e-06 4.03762e-06 0.0856687)
(1.03266e-05 7.99325e-06 0.0693564)
(8.57192e-06 9.6166e-06 0.0693453)
(2.2804e-05 2.25886e-05 0.0856028)
(-7.32927e-06 -6.74169e-07 0.0694442)
(-2.38308e-08 -8.28052e-06 0.0694326)
(3.17023e-05 5.45409e-05 0.0945509)
(1.67454e-05 1.2649e-05 0.100015)
(1.62212e-05 2.8413e-05 0.0897794)
(-7.19738e-06 5.2221e-06 0.0832435)
(4.85052e-06 2.21531e-05 0.0831607)
(4.4966e-05 7.85753e-05 0.0999279)
(8.72594e-06 2.48679e-06 0.0946381)
(5.43736e-05 3.12456e-05 0.0945481)
(1.24062e-05 1.63047e-05 0.100021)
(2.88437e-05 1.65617e-05 0.0897713)
(5.9202e-06 -7.46551e-06 0.0832227)
(2.3065e-05 4.7351e-06 0.0831398)
(7.84765e-05 4.46627e-05 0.0999311)
(2.33936e-06 8.29717e-06 0.0946364)
(1.13218e-05 5.08312e-06 0.0946916)
(5.06981e-06 2.37674e-05 0.0832083)
(4.81341e-05 8.26756e-05 0.0999802)
(-3.97404e-06 1.10978e-05 0.0899196)
(3.43971e-05 5.76038e-05 0.0946068)
(-7.04711e-06 6.53854e-06 0.0832889)
(1.9895e-05 1.64036e-05 0.100066)
(4.56288e-06 1.04064e-05 0.0946893)
(2.47814e-05 5.07133e-06 0.0831894)
(8.28072e-05 4.79268e-05 0.0999825)
(1.17058e-05 -3.58239e-06 0.0899125)
(5.70823e-05 3.36627e-05 0.0946031)
(7.64451e-06 -7.22213e-06 0.0832697)
(1.65135e-05 1.96551e-05 0.100071)
(2.13783e-05 2.10978e-05 0.0855547)
(-7.87474e-06 -8.92623e-07 0.0694152)
(-4.4899e-07 -8.38946e-06 0.0694032)
(9.98605e-06 7.61601e-06 0.0693255)
(8.18396e-06 9.29035e-06 0.0693138)
(3.15136e-06 2.79421e-06 0.0856232)
(-1.66164e-06 1.34011e-05 0.07785)
(-3.01658e-06 6.22387e-05 0.0948291)
(-1.19508e-06 -5.11549e-06 0.079727)
(-6.83658e-06 9.47175e-06 0.092922)
(-7.43546e-07 1.21381e-05 0.0796702)
(-8.24294e-06 5.33531e-05 0.0928473)
(-3.4339e-06 -4.7837e-06 0.0779165)
(-4.68972e-06 -7.13941e-06 0.0692562)
(-7.28818e-06 3.66634e-05 0.0880777)
(3.52437e-06 -3.6576e-06 0.0841188)
(-2.50376e-06 1.1234e-05 0.0691669)
(-6.7315e-06 2.67415e-06 0.08815)
(-2.72555e-06 -3.95598e-06 0.0779611)
(-2.77432e-06 1.91507e-05 0.0949678)
(-4.29969e-07 1.3073e-05 0.0797184)
(-8.08304e-06 5.66602e-05 0.0929177)
(-7.27e-07 -4.17555e-06 0.079772)
(-9.70072e-07 1.4281e-05 0.0778973)
(-6.67711e-06 1.29074e-05 0.0929897)
(-2.84435e-06 1.08131e-05 0.0691253)
(-6.85164e-06 5.01504e-07 0.0880818)
(1.02093e-06 3.24621e-05 0.08399)
(-7.42959e-06 3.46104e-05 0.0880072)
(-4.95573e-06 -7.48919e-06 0.0692162)
(3.50581e-06 -6.01355e-06 0.077854)
(1.16259e-06 1.09941e-05 0.0796119)
(8.37934e-06 4.98708e-05 0.0927798)
(2.85578e-06 1.13978e-05 0.0948407)
(1.88588e-06 1.22148e-05 0.0777853)
(1.40758e-06 -6.21838e-06 0.0796712)
(6.87939e-06 6.35603e-06 0.0928587)
(2.58572e-06 9.93336e-06 0.0690358)
(-4.25595e-07 2.92149e-05 0.083862)
(5.83587e-06 -3.52727e-06 0.0879516)
(4.39845e-06 -8.45342e-06 0.0691316)
(6.80742e-06 3.04246e-05 0.087871)
(4.75967e-06 -7.78857e-06 0.0691635)
(7.28027e-06 3.26825e-05 0.087932)
(-3.0075e-06 -6.65022e-06 0.0839856)
(2.8055e-06 1.02291e-05 0.0690692)
(6.39612e-06 -1.10481e-06 0.0880105)
(2.06623e-06 1.12757e-05 0.0777486)
(2.91e-06 5.38106e-05 0.0947074)
(1.25416e-06 -7.513e-06 0.0796381)
(6.46137e-06 2.80201e-06 0.0928002)
(3.43666e-06 -6.99072e-06 0.0778201)
(1.11986e-06 9.80599e-06 0.0795759)
(8.12548e-06 4.6358e-05 0.0927198)
(-3.68439e-06 -5.66762e-06 0.0778766)
(-1.11877e-06 1.12141e-05 0.0796282)
(-8.22509e-06 4.95643e-05 0.0927826)
(-2.81494e-06 1.15448e-05 0.0948375)
(-2.12202e-06 1.25283e-05 0.0778078)
(-1.44011e-06 -6.04019e-06 0.0796876)
(-6.72786e-06 6.04973e-06 0.0928599)
(-2.89896e-06 1.00536e-05 0.069053)
(5.30954e-07 2.89332e-05 0.0838706)
(-6.21066e-06 -3.60397e-06 0.0879608)
(-7.06531e-06 3.02838e-05 0.0878811)
(-4.93201e-06 -8.04263e-06 0.0691477)
(-4.84981e-06 -7.80009e-06 0.06918)
(-7.35845e-06 3.24493e-05 0.0879418)
(2.91533e-06 -6.97677e-06 0.0839942)
(-2.85195e-06 1.04348e-05 0.0690871)
(-6.5949e-06 -1.46209e-06 0.0880189)
(-2.49783e-06 1.15756e-05 0.077771)
(-2.99354e-06 5.3804e-05 0.0947046)
(-1.42602e-06 -7.30527e-06 0.0796546)
(-6.54024e-06 2.9639e-06 0.092802)
(-1.21208e-06 9.93877e-06 0.0795926)
(-8.09175e-06 4.61471e-05 0.0927234)
(-3.98883e-06 -6.68257e-06 0.0778429)
(-2.41639e-05 2.34937e-05 0.0856533)
(7.09079e-06 -4.28256e-07 0.0694625)
(-1.49138e-07 -7.7636e-06 0.0694671)
(-1.08061e-05 8.27827e-06 0.0693765)
(-8.69394e-06 1.01581e-05 0.0693813)
(-5.90162e-06 5.03948e-06 0.0857162)
(-1.54844e-05 9.85501e-06 0.0948079)
(1.9227e-06 1.5641e-05 0.0900429)
(6.26863e-06 9.92369e-06 0.0833821)
(-2.60909e-05 2.48243e-05 0.100172)
(-1.02169e-05 1.5159e-05 0.0948163)
(-1.61289e-05 -2.13984e-06 0.0900434)
(-2.4988e-05 2.57601e-05 0.100179)
(-1.02925e-05 -6.97288e-06 0.0833861)
(-6.97914e-06 6.22606e-06 0.085772)
(6.65881e-06 -6.98493e-08 0.0694999)
(-5.15969e-07 -7.38796e-06 0.0695046)
(-3.62225e-05 6.01954e-05 0.0946624)
(6.60232e-06 8.47345e-06 0.0833267)
(-1.82277e-05 3.26356e-05 0.0898965)
(-2.28892e-05 2.08519e-05 0.100116)
(-5.64839e-06 2.55692e-05 0.0832476)
(-5.0758e-05 8.68683e-05 0.100031)
(-1.30103e-05 7.27332e-06 0.0947466)
(-6.05191e-05 3.59415e-05 0.0946703)
(-8.80949e-06 -7.44581e-06 0.0833303)
(-3.30568e-05 1.81306e-05 0.0898942)
(-2.10095e-05 2.2492e-05 0.100123)
(-8.69695e-05 5.0513e-05 0.100036)
(-2.58499e-05 4.98242e-06 0.0832514)
(-7.75391e-06 1.27022e-05 0.0947543)
(4.51332e-06 -6.73641e-06 0.0724524)
(-1.48381e-05 2.76498e-06 0.0723222)
(-3.17093e-06 1.3634e-05 0.0722467)
(6.38547e-06 -5.71683e-06 0.0723678)
(-4.44661e-06 3.48595e-06 0.0856652)
(-1.03712e-05 7.85673e-06 0.069342)
(-8.23498e-06 9.76532e-06 0.0693467)
(-2.28678e-05 2.21075e-05 0.0856001)
(7.49776e-06 -9.11552e-07 0.06943)
(3.49064e-07 -8.04486e-06 0.0694346)
(-3.11812e-05 5.40922e-05 0.0945481)
(-1.64536e-05 1.26477e-05 0.100011)
(-1.64143e-05 2.85861e-05 0.0897756)
(7.19475e-06 5.26635e-06 0.0832312)
(-4.46504e-05 7.85703e-05 0.0999233)
(-5.04741e-06 2.22832e-05 0.0831466)
(-8.25263e-06 1.94558e-06 0.0946364)
(-5.48279e-05 3.10451e-05 0.0945549)
(-1.28567e-05 1.60577e-05 0.10002)
(-2.89676e-05 1.60144e-05 0.0897708)
(-5.49421e-06 -8.00356e-06 0.0832343)
(-2.24394e-05 4.18568e-06 0.0831503)
(-7.87214e-05 4.4345e-05 0.0999303)
(-2.79076e-06 8.11138e-06 0.0946424)
(-1.06432e-05 4.56779e-06 0.0946891)
(-5.33895e-06 2.39309e-05 0.0831946)
(-4.78554e-05 8.2787e-05 0.0999759)
(3.70898e-06 1.12398e-05 0.0899163)
(-1.97819e-05 1.67482e-05 0.100062)
(-3.37816e-05 5.71307e-05 0.0946035)
(6.80603e-06 6.77637e-06 0.0832764)
(-5.1438e-06 1.02731e-05 0.0946962)
(-2.41895e-05 4.59611e-06 0.0831983)
(-8.30027e-05 4.75593e-05 0.0999822)
(-1.1864e-05 -4.01875e-06 0.089915)
(-5.75111e-05 3.34071e-05 0.0946109)
(-7.11199e-06 -7.70057e-06 0.0832797)