/*--------------------------------*- C++ -*----------------------------------*\
| =========                 |                                                 |
| \\      /  F ield         | OpenFOAM: The Open Source CFD Toolbox           |
|  \\    /   O peration     | Version:  2312                                  |
|   \\  /    A nd           | Website:  www.openfoam.com                      |
|    \\/     M anipulation  |                                                 |
\*---------------------------------------------------------------------------*/
FoamFile
{
    version     2.0;
    format      ascii;
    arch        "LSB;label=32;scalar=64";
    class       volScalarField;
    location    "600";
    object      k;
}
// * * * * * * * * * * * * * * * * * * * * * * * * * * * * * * * * * * * * * //

dimensions      [0 2 -2 0 0 0 0];

internalField   nonuniform List<scalar> 
43168
(
3.9194e-05
5.15788e-05
5.15825e-05
5.36612e-05
5.36135e-05
5.15247e-05
5.15198e-05
5.36142e-05
5.15222e-05
5.15234e-05
5.15244e-05
5.15242e-05
5.36167e-05
5.15281e-05
5.1522e-05
5.36219e-05
5.36677e-05
5.15791e-05
5.15744e-05
5.36642e-05
5.15766e-05
5.15778e-05
5.15784e-05
5.36739e-05
5.15762e-05
7.34426e-05
7.34449e-05
3.90986e-05
3.90982e-05
3.91032e-05
3.91016e-05
6.86273e-05
7.34758e-05
6.86066e-05
7.34981e-05
7.12225e-05
7.12473e-05
6.86275e-05
7.34764e-05
6.86045e-05
7.35007e-05
3.91933e-05
3.91986e-05
3.91967e-05
6.07201e-05
6.48332e-05
4.69223e-05
5.16306e-05
6.06853e-05
6.48571e-05
4.69885e-05
7.12238e-05
7.12484e-05
6.072e-05
4.69253e-05
6.48336e-05
5.16345e-05
6.0685e-05
4.69915e-05
6.48578e-05
6.99666e-05
6.9975e-05
5.37026e-05
6.99825e-05
6.9991e-05
7.11931e-05
7.11962e-05
5.35256e-05
6.9937e-05
6.99451e-05
7.12197e-05
7.11947e-05
7.12227e-05
7.11977e-05
5.35847e-05
6.9962e-05
6.997e-05
6.99466e-05
6.99545e-05
5.1413e-05
6.47945e-05
6.85795e-05
7.34707e-05
7.34475e-05
6.86016e-05
6.85779e-05
7.34674e-05
7.34445e-05
6.86e-05
6.06378e-05
5.14699e-05
6.48262e-05
4.6852e-05
6.47998e-05
4.67824e-05
6.06749e-05
6.06363e-05
5.14634e-05
6.48223e-05
4.68495e-05
6.47963e-05
4.67797e-05
6.06735e-05
7.12212e-05
7.1196e-05
5.35802e-05
6.9962e-05
6.99639e-05
6.99469e-05
7.12213e-05
5.14104e-05
6.47961e-05
6.8577e-05
7.34732e-05
7.34483e-05
6.8602e-05
6.0635e-05
5.14675e-05
6.48281e-05
4.68517e-05
6.48016e-05
4.67821e-05
6.06765e-05
6.85755e-05
7.3468e-05
7.3445e-05
6.86002e-05
6.06336e-05
5.14685e-05
4.68524e-05
6.48243e-05
4.67827e-05
6.47979e-05
6.06751e-05
6.48274e-05
4.6853e-05
6.06751e-05
7.34711e-05
6.85992e-05
4.68534e-05
6.48231e-05
6.06749e-05
7.34677e-05
6.85999e-05
7.12222e-05
7.11972e-05
5.35896e-05
6.99657e-05
6.99634e-05
6.9949e-05
6.99463e-05
7.1221e-05
7.11959e-05
6.06382e-05
5.14732e-05
4.68563e-05
6.4828e-05
4.67869e-05
6.48019e-05
6.06748e-05
6.06351e-05
5.14673e-05
4.68537e-05
6.48258e-05
4.67841e-05
6.4799e-05
6.06721e-05
6.85768e-05
7.34727e-05
7.34477e-05
6.85986e-05
6.8573e-05
7.34702e-05
7.34453e-05
6.8595e-05
5.3574e-05
6.99587e-05
6.99672e-05
6.99504e-05
7.12207e-05
7.12235e-05
7.11983e-05
7.12212e-05
7.12459e-05
7.12242e-05
7.12489e-05
6.9971e-05
6.9979e-05
5.37009e-05
6.99857e-05
6.99938e-05
7.12473e-05
7.12503e-05
5.37492e-05
6.99944e-05
7.00024e-05
6.8626e-05
7.34725e-05
6.86052e-05
7.3495e-05
6.07203e-05
6.48312e-05
4.69209e-05
5.16311e-05
6.06852e-05
6.4856e-05
4.69872e-05
6.0719e-05
6.48279e-05
4.69186e-05
5.16262e-05
6.06839e-05
6.48523e-05
4.69849e-05
6.8632e-05
7.35032e-05
6.86306e-05
7.35001e-05
6.07296e-05
5.16829e-05
6.48608e-05
4.7053e-05
6.07283e-05
5.1678e-05
6.48574e-05
4.70508e-05
6.99715e-05
6.99721e-05
5.36993e-05
6.99857e-05
6.99875e-05
7.12227e-05
7.12474e-05
7.12486e-05
5.37461e-05
6.99948e-05
6.99951e-05
7.12488e-05
6.07218e-05
6.48332e-05
4.69207e-05
5.16286e-05
6.06827e-05
6.48579e-05
4.6987e-05
6.86262e-05
7.3473e-05
6.86029e-05
7.34956e-05
6.07205e-05
4.69213e-05
6.48294e-05
5.16297e-05
6.06813e-05
4.69876e-05
6.48541e-05
6.863e-05
7.35038e-05
6.07276e-05
5.16804e-05
6.48627e-05
4.70529e-05
6.86285e-05
7.35006e-05
6.07262e-05
5.16815e-05
4.70536e-05
6.48589e-05
6.8625e-05
7.34761e-05
6.86042e-05
7.34986e-05
6.072e-05
4.69224e-05
6.48285e-05
5.16304e-05
6.06848e-05
4.69887e-05
6.48529e-05
6.86258e-05
7.34728e-05
6.86049e-05
7.34953e-05
6.07296e-05
5.16824e-05
6.48624e-05
4.70543e-05
6.86297e-05
7.35036e-05
6.07293e-05
5.16822e-05
4.70546e-05
6.48579e-05
6.86304e-05
7.35003e-05
6.99737e-05
6.99712e-05
5.37024e-05
6.99896e-05
6.99872e-05
7.12225e-05
7.12472e-05
7.12498e-05
5.37521e-05
6.99971e-05
6.99947e-05
7.12486e-05
6.07175e-05
4.69226e-05
6.48307e-05
5.16282e-05
6.06823e-05
4.69888e-05
6.48556e-05
6.86245e-05
7.34759e-05
6.86038e-05
7.34999e-05
6.8621e-05
7.34735e-05
6.86001e-05
7.34972e-05
6.07294e-05
5.16863e-05
4.70573e-05
6.48629e-05
6.07268e-05
5.16799e-05
4.70546e-05
6.48601e-05
6.86292e-05
7.35041e-05
6.86257e-05
7.35017e-05
7.12222e-05
7.12469e-05
7.12249e-05
7.12496e-05
5.37442e-05
6.999e-05
6.99984e-05
7.12482e-05
7.1251e-05
7.16828e-05
7.97897e-05
7.34336e-05
7.9782e-05
7.16971e-05
7.34339e-05
7.19036e-05
6.86195e-05
7.16869e-05
7.16515e-05
7.16752e-05
7.16412e-05
7.19169e-05
7.1736e-05
7.98175e-05
7.34845e-05
7.17218e-05
7.98244e-05
7.19032e-05
6.86148e-05
7.16615e-05
7.16296e-05
7.18897e-05
7.1673e-05
7.16399e-05
7.17346e-05
7.98356e-05
7.34895e-05
7.98288e-05
7.17487e-05
7.12343e-05
7.12356e-05
7.19055e-05
6.86172e-05
7.16495e-05
7.16869e-05
7.1639e-05
7.16751e-05
7.1915e-05
7.17361e-05
7.98149e-05
7.34871e-05
7.1722e-05
7.98223e-05
7.19011e-05
6.86149e-05
7.16274e-05
7.16614e-05
7.18919e-05
7.16378e-05
7.1673e-05
7.17348e-05
7.98334e-05
7.34902e-05
7.98263e-05
7.17488e-05
7.12354e-05
7.12369e-05
9.50341e-05
7.35519e-05
7.35453e-05
7.35386e-05
7.3532e-05
9.50361e-05
7.4198e-05
6.52877e-05
7.33009e-05
6.99707e-05
7.41946e-05
6.52987e-05
7.33126e-05
7.42459e-05
6.52958e-05
7.33106e-05
6.99792e-05
7.42423e-05
6.53075e-05
7.33222e-05
9.50233e-05
7.35265e-05
7.35199e-05
9.50212e-05
7.35398e-05
7.35332e-05
7.42084e-05
7.33257e-05
6.99785e-05
6.53168e-05
6.53062e-05
7.33141e-05
7.42116e-05
7.4256e-05
7.33354e-05
6.9987e-05
6.53255e-05
6.53142e-05
7.33239e-05
7.42595e-05
7.11813e-05
7.11843e-05
9.49855e-05
7.35029e-05
7.34961e-05
7.34894e-05
7.34826e-05
9.49872e-05
7.41528e-05
7.32712e-05
6.99338e-05
6.52423e-05
7.32627e-05
7.41559e-05
6.52315e-05
7.41984e-05
7.32807e-05
6.99417e-05
6.52501e-05
7.3272e-05
7.42021e-05
6.52377e-05
7.1208e-05
7.12065e-05
7.1211e-05
7.12095e-05
9.50007e-05
7.35017e-05
7.3495e-05
9.4999e-05
7.35152e-05
7.35084e-05
7.41824e-05
6.52814e-05
6.9959e-05
7.32984e-05
7.32898e-05
6.52713e-05
7.41853e-05
7.42281e-05
6.52893e-05
6.99669e-05
7.33076e-05
7.3299e-05
6.52777e-05
7.42315e-05
7.41707e-05
7.32763e-05
6.52517e-05
6.99498e-05
7.41677e-05
7.32852e-05
6.5262e-05
7.42169e-05
7.32852e-05
6.5258e-05
6.99578e-05
7.42134e-05
7.32943e-05
6.52699e-05
9.50123e-05
7.35275e-05
7.35207e-05
7.3514e-05
7.35073e-05
9.5014e-05
7.18753e-05
7.16329e-05
7.16046e-05
6.85882e-05
7.18619e-05
7.16447e-05
7.16154e-05
7.17089e-05
7.34618e-05
7.98131e-05
7.17231e-05
7.9806e-05
7.17102e-05
7.9794e-05
7.34568e-05
7.16959e-05
7.98015e-05
7.18764e-05
6.85931e-05
7.16592e-05
7.1628e-05
7.18893e-05
7.16471e-05
7.16172e-05
7.18724e-05
7.1634e-05
7.1601e-05
6.85867e-05
7.18634e-05
7.16432e-05
7.1609e-05
7.17084e-05
7.34586e-05
7.9795e-05
7.97877e-05
7.17226e-05
7.17096e-05
7.97758e-05
7.34535e-05
7.16954e-05
7.97832e-05
7.18773e-05
6.85917e-05
7.16572e-05
7.16214e-05
7.16482e-05
7.16136e-05
7.18866e-05
7.12093e-05
7.12079e-05
7.42286e-05
6.52859e-05
6.99594e-05
7.33062e-05
6.52751e-05
7.32976e-05
7.42328e-05
7.41817e-05
6.52831e-05
6.99601e-05
7.33008e-05
7.32888e-05
6.52721e-05
7.41861e-05
6.52555e-05
6.99497e-05
6.52666e-05
9.50102e-05
7.35215e-05
7.35282e-05
7.35081e-05
7.35144e-05
9.50121e-05
7.12096e-05
7.18738e-05
7.16019e-05
7.16326e-05
6.85882e-05
7.18647e-05
7.16131e-05
7.16446e-05
7.17091e-05
7.34623e-05
7.98109e-05
7.17232e-05
7.98033e-05
7.17103e-05
7.97915e-05
7.3459e-05
7.16961e-05
7.97991e-05
7.1878e-05
6.8591e-05
7.16259e-05
7.16592e-05
7.18876e-05
7.16149e-05
7.1647e-05
7.18736e-05
7.1632e-05
7.15971e-05
6.85868e-05
7.18618e-05
7.16441e-05
7.16083e-05
7.17073e-05
7.34591e-05
7.97917e-05
7.97843e-05
7.17214e-05
7.17085e-05
7.97724e-05
7.34543e-05
7.16943e-05
7.97801e-05
7.18754e-05
6.85895e-05
7.16583e-05
7.16208e-05
7.16464e-05
7.161e-05
7.18878e-05
7.17076e-05
7.34623e-05
7.98038e-05
7.98014e-05
7.17223e-05
7.18774e-05
6.8591e-05
7.16208e-05
7.16566e-05
7.16133e-05
7.16477e-05
7.18864e-05
7.17078e-05
7.34589e-05
7.97912e-05
7.97837e-05
7.1722e-05
7.1875e-05
6.85916e-05
7.16573e-05
7.16217e-05
7.16474e-05
7.16109e-05
7.18883e-05
7.12105e-05
7.1209e-05
9.49965e-05
7.34953e-05
7.35015e-05
9.49948e-05
7.35087e-05
7.35149e-05
7.42293e-05
6.52882e-05
6.99615e-05
7.3307e-05
6.52763e-05
7.3297e-05
7.42326e-05
7.41817e-05
6.52836e-05
6.9959e-05
7.32983e-05
7.32897e-05
6.52722e-05
7.41851e-05
7.42179e-05
7.32843e-05
6.52565e-05
6.99533e-05
6.52688e-05
7.42146e-05
7.3293e-05
7.41706e-05
7.32764e-05
6.52522e-05
6.99509e-05
7.4167e-05
7.3285e-05
6.52642e-05
9.50081e-05
7.3521e-05
7.35272e-05
7.35076e-05
7.35138e-05
9.50098e-05
7.12092e-05
7.12078e-05
7.18758e-05
7.16048e-05
7.16333e-05
6.85853e-05
7.18622e-05
7.16126e-05
7.16423e-05
7.17093e-05
7.34618e-05
7.98093e-05
7.98021e-05
7.17234e-05
7.17105e-05
7.97903e-05
7.34586e-05
7.16963e-05
7.97977e-05
7.18768e-05
6.85903e-05
7.16249e-05
7.16563e-05
7.16171e-05
7.16473e-05
7.18886e-05
7.1873e-05
7.15949e-05
7.16323e-05
6.85816e-05
7.18609e-05
7.16055e-05
7.16412e-05
7.17083e-05
7.34594e-05
7.97924e-05
7.97852e-05
7.17225e-05
7.17096e-05
7.97733e-05
7.34561e-05
7.16953e-05
7.97808e-05
7.18749e-05
6.85866e-05
7.16179e-05
7.16553e-05
7.16077e-05
7.16462e-05
7.18866e-05
9.49971e-05
7.35154e-05
7.35088e-05
7.41804e-05
6.52801e-05
6.99545e-05
7.32993e-05
7.4184e-05
6.52687e-05
7.32872e-05
7.42282e-05
6.52888e-05
6.99629e-05
7.3309e-05
7.42319e-05
6.52766e-05
7.3297e-05
7.41693e-05
6.99464e-05
6.52608e-05
7.32856e-05
7.42171e-05
6.52568e-05
6.99547e-05
6.52694e-05
7.32953e-05
9.50081e-05
7.35277e-05
7.3521e-05
9.50103e-05
7.35143e-05
7.35077e-05
7.1209e-05
7.12075e-05
7.12117e-05
7.12102e-05
7.12328e-05
7.12343e-05
7.12359e-05
7.12373e-05
9.50381e-05
7.35517e-05
7.35449e-05
7.35384e-05
7.35316e-05
9.50397e-05
7.41994e-05
6.52903e-05
7.33031e-05
6.9974e-05
7.41967e-05
7.33119e-05
6.53001e-05
7.42456e-05
6.52967e-05
7.33123e-05
6.99822e-05
7.42424e-05
7.33211e-05
6.5308e-05
9.5027e-05
7.35262e-05
7.35195e-05
9.50253e-05
7.35396e-05
7.35328e-05
7.42105e-05
7.3325e-05
6.99829e-05
6.53181e-05
7.33165e-05
7.4213e-05
6.53087e-05
7.42562e-05
7.33342e-05
6.99908e-05
6.5326e-05
7.33257e-05
7.42593e-05
6.53152e-05
7.12588e-05
7.12618e-05
9.50522e-05
7.35504e-05
7.35436e-05
9.50506e-05
7.35637e-05
7.35569e-05
7.42263e-05
7.33298e-05
6.53265e-05
6.99971e-05
7.42239e-05
7.33381e-05
6.53356e-05
7.42725e-05
7.3339e-05
6.5333e-05
7.00054e-05
7.42696e-05
7.33474e-05
6.53435e-05
7.19053e-05
6.86182e-05
7.16853e-05
7.16453e-05
7.16765e-05
7.16381e-05
7.19141e-05
7.17354e-05
7.97992e-05
7.34814e-05
7.17213e-05
7.98065e-05
7.19005e-05
6.86134e-05
7.16624e-05
7.16261e-05
7.16715e-05
7.18913e-05
7.16338e-05
7.17342e-05
7.98177e-05
7.34864e-05
7.98106e-05
7.17482e-05
7.19302e-05
7.16892e-05
7.16529e-05
6.86397e-05
7.19173e-05
7.17008e-05
7.16628e-05
7.17614e-05
7.98399e-05
7.35118e-05
7.17473e-05
7.98465e-05
7.19275e-05
7.16902e-05
7.16495e-05
6.86383e-05
7.19187e-05
7.16992e-05
7.16568e-05
7.17609e-05
7.98217e-05
7.35087e-05
7.17469e-05
7.98286e-05
9.50355e-05
7.35456e-05
7.35519e-05
7.35323e-05
7.35387e-05
9.50376e-05
7.42468e-05
6.5294e-05
7.3311e-05
6.9974e-05
7.33197e-05
7.42425e-05
6.53045e-05
7.42002e-05
6.5291e-05
7.33026e-05
6.99759e-05
6.53017e-05
7.41958e-05
7.33144e-05
9.50249e-05
7.35202e-05
7.35268e-05
7.35336e-05
9.50227e-05
7.35401e-05
7.42561e-05
7.33328e-05
6.99833e-05
6.53226e-05
7.33243e-05
6.53124e-05
7.42603e-05
7.42096e-05
7.33276e-05
6.99837e-05
6.53197e-05
6.53094e-05
7.33158e-05
7.42138e-05
7.12344e-05
7.12358e-05
7.12602e-05
9.50501e-05
7.35443e-05
7.35506e-05
9.50481e-05
7.35575e-05
7.35638e-05
7.42734e-05
7.33376e-05
6.53302e-05
6.99971e-05
6.534e-05
7.42693e-05
7.33459e-05
7.4227e-05
7.3329e-05
6.53271e-05
6.99988e-05
7.42229e-05
7.33406e-05
6.53371e-05
7.12603e-05
7.19026e-05
6.86158e-05
7.16864e-05
7.16447e-05
7.16745e-05
7.16342e-05
7.19156e-05
7.17343e-05
7.97958e-05
7.34819e-05
7.17202e-05
7.98032e-05
7.19022e-05
6.86134e-05
7.16607e-05
7.16224e-05
7.16724e-05
7.18887e-05
7.1633e-05
7.1733e-05
7.98144e-05
7.34869e-05
7.98072e-05
7.17471e-05
7.1929e-05
7.16509e-05
7.16892e-05
6.86399e-05
7.19185e-05
7.1661e-05
7.17008e-05
7.17615e-05
7.98373e-05
7.35142e-05
7.17475e-05
7.98444e-05
7.1929e-05
7.16887e-05
7.16461e-05
6.86385e-05
7.1916e-05
7.17004e-05
7.16563e-05
7.17597e-05
7.98183e-05
7.35092e-05
7.17457e-05
7.98253e-05
7.19045e-05
6.86173e-05
7.16445e-05
7.16847e-05
7.16376e-05
7.16759e-05
7.19136e-05
7.17352e-05
7.98129e-05
7.3485e-05
7.98153e-05
7.17205e-05
7.19002e-05
6.86125e-05
7.16255e-05
7.16617e-05
7.1633e-05
7.18907e-05
7.1671e-05
7.17333e-05
7.98265e-05
7.349e-05
7.98241e-05
7.17479e-05
7.19029e-05
6.8618e-05
7.1685e-05
7.16456e-05
7.16761e-05
7.16352e-05
7.19159e-05
7.17348e-05
7.97953e-05
7.34817e-05
7.17207e-05
7.98027e-05
7.19023e-05
6.86132e-05
7.1662e-05
7.16235e-05
7.18895e-05
7.16712e-05
7.16339e-05
7.17335e-05
7.98138e-05
7.34866e-05
7.98066e-05
7.17476e-05
7.1927e-05
7.1649e-05
7.16897e-05
6.86374e-05
7.19179e-05
7.16559e-05
7.16987e-05
7.17606e-05
7.98351e-05
7.35122e-05
7.1746e-05
7.98374e-05
7.19293e-05
7.169e-05
7.16471e-05
6.86381e-05
7.19163e-05
7.16989e-05
7.16569e-05
7.17602e-05
7.98177e-05
7.35089e-05
7.17462e-05
7.98246e-05
9.50339e-05
7.35452e-05
7.35514e-05
7.35319e-05
7.35381e-05
9.50356e-05
7.42466e-05
6.52954e-05
7.33096e-05
6.99778e-05
7.3321e-05
7.42435e-05
6.53068e-05
7.41993e-05
6.52912e-05
7.33032e-05
6.99754e-05
6.53022e-05
7.41961e-05
7.33119e-05
9.50228e-05
7.35198e-05
7.3526e-05
7.35331e-05
9.50211e-05
7.35393e-05
7.42574e-05
7.33345e-05
6.99855e-05
6.53249e-05
7.33229e-05
6.53139e-05
7.42603e-05
7.42099e-05
7.33251e-05
6.99831e-05
6.53203e-05
6.53097e-05
7.33166e-05
7.42129e-05
7.12342e-05
7.12356e-05
7.12613e-05
9.50481e-05
7.3544e-05
7.35502e-05
9.50465e-05
7.35572e-05
7.35634e-05
7.42736e-05
7.33361e-05
6.53317e-05
7.0001e-05
6.53424e-05
7.42708e-05
7.33476e-05
7.42262e-05
7.33299e-05
6.53274e-05
6.99986e-05
7.42233e-05
7.33383e-05
6.53378e-05
7.12601e-05
7.19057e-05
6.86168e-05
7.16487e-05
7.16844e-05
7.16415e-05
7.16757e-05
7.19151e-05
7.17363e-05
7.98135e-05
7.34865e-05
7.98208e-05
7.17222e-05
7.19022e-05
6.8612e-05
7.16296e-05
7.16616e-05
7.16373e-05
7.18909e-05
7.16707e-05
7.1735e-05
7.98319e-05
7.34902e-05
7.98248e-05
7.1749e-05
7.19017e-05
6.86132e-05
7.16418e-05
7.16834e-05
7.1632e-05
7.16745e-05
7.19148e-05
7.17354e-05
7.97967e-05
7.34841e-05
7.17212e-05
7.98039e-05
7.19015e-05
6.86084e-05
7.16202e-05
7.16605e-05
7.18878e-05
7.16301e-05
7.16696e-05
7.1734e-05
7.9815e-05
7.34877e-05
7.98081e-05
7.17481e-05
7.19281e-05
7.1653e-05
7.16894e-05
6.86368e-05
7.19192e-05
7.16602e-05
7.16984e-05
7.17616e-05
7.98359e-05
7.3513e-05
7.17477e-05
7.98428e-05
7.19283e-05
7.16438e-05
7.16883e-05
6.86333e-05
7.1915e-05
7.16533e-05
7.16973e-05
7.17608e-05
7.98191e-05
7.35105e-05
7.17467e-05
7.9826e-05
7.12338e-05
7.12353e-05
7.12366e-05
7.1238e-05
9.50487e-05
7.35506e-05
7.3544e-05
9.50467e-05
7.35639e-05
7.35572e-05
7.42248e-05
7.33272e-05
6.53239e-05
6.99938e-05
7.42217e-05
6.53342e-05
7.33387e-05
7.42726e-05
7.3337e-05
6.5332e-05
7.00022e-05
7.42694e-05
6.5343e-05
7.33484e-05
7.12598e-05
7.12625e-05
3.89037e-05
3.22678e-05
3.22657e-05
3.92867e-05
3.23841e-05
3.23822e-05
2.3444e-05
2.33004e-05
6.59945e-05
5.95644e-05
5.95659e-05
5.3661e-05
6.59891e-05
5.9568e-05
5.95697e-05
6.59707e-05
5.36292e-05
5.95377e-05
5.95377e-05
5.95396e-05
5.95403e-05
6.59747e-05
6.59706e-05
5.36211e-05
5.95349e-05
5.95381e-05
5.95353e-05
5.95406e-05
6.59743e-05
6.5971e-05
5.36336e-05
5.95373e-05
5.95398e-05
5.95408e-05
5.95433e-05
6.59752e-05
6.5969e-05
5.36193e-05
5.95388e-05
5.95404e-05
6.59742e-05
5.95344e-05
5.95361e-05
6.5995e-05
5.95688e-05
5.95696e-05
5.36588e-05
6.59914e-05
5.9568e-05
5.9568e-05
6.59949e-05
5.95649e-05
5.95696e-05
5.36574e-05
5.95682e-05
6.59909e-05
5.95641e-05
6.59955e-05
5.95701e-05
5.95728e-05
5.36587e-05
5.95695e-05
6.59914e-05
5.95668e-05
3.90024e-05
3.21488e-05
3.21465e-05
3.20289e-05
3.20265e-05
2.30091e-05
2.31549e-05
3.90023e-05
3.21482e-05
3.21481e-05
3.20285e-05
3.20283e-05
2.30095e-05
2.31554e-05
3.9007e-05
3.21521e-05
3.21522e-05
3.2032e-05
3.20324e-05
2.30133e-05
2.31591e-05
3.90055e-05
3.21532e-05
3.21511e-05
3.20329e-05
3.20316e-05
2.30139e-05
2.31597e-05
3.22672e-05
3.2267e-05
3.92857e-05
3.23835e-05
3.23834e-05
2.34445e-05
2.33009e-05
3.22713e-05
3.22712e-05
3.92914e-05
3.23877e-05
3.23876e-05
2.34482e-05
2.33046e-05
3.2272e-05
3.22702e-05
3.92894e-05
3.23885e-05
3.23865e-05
2.34488e-05
2.33052e-05
3.93787e-05
3.24998e-05
3.24979e-05
2.35874e-05
3.93778e-05
3.24992e-05
3.24989e-05
2.35878e-05
3.93833e-05
3.25035e-05
3.25032e-05
2.35915e-05
3.93814e-05
3.2504e-05
3.25022e-05
2.3592e-05
5.64397e-05
6.0708e-05
6.24042e-05
5.51628e-05
6.23935e-05
5.51776e-05
5.64283e-05
5.74778e-05
6.04493e-05
6.42516e-05
6.48425e-05
5.74899e-05
6.04488e-05
6.42606e-05
5.63949e-05
6.06981e-05
6.23732e-05
5.51408e-05
5.64063e-05
6.23843e-05
5.51264e-05
5.75184e-05
6.4278e-05
6.4848e-05
6.04736e-05
6.04743e-05
6.42693e-05
5.75074e-05
5.64416e-05
6.07078e-05
5.51628e-05
6.24066e-05
5.51777e-05
6.23958e-05
5.64293e-05
5.7479e-05
6.04507e-05
6.42534e-05
6.48432e-05
5.74906e-05
6.04515e-05
6.42627e-05
5.63966e-05
6.0698e-05
5.51399e-05
6.23757e-05
5.64087e-05
5.5126e-05
6.23869e-05
5.75197e-05
6.42801e-05
6.48485e-05
6.04747e-05
6.04741e-05
6.42711e-05
5.7509e-05
6.60093e-05
5.37035e-05
5.95968e-05
5.95982e-05
5.95935e-05
5.95948e-05
6.60145e-05
6.59278e-05
5.35419e-05
5.94755e-05
5.94753e-05
6.59322e-05
5.94779e-05
5.94782e-05
6.59536e-05
5.35693e-05
5.9509e-05
5.95095e-05
6.59495e-05
5.95072e-05
5.95073e-05
5.7387e-05
6.42063e-05
6.47834e-05
6.03764e-05
6.41954e-05
6.03699e-05
5.73898e-05
5.6326e-05
6.2332e-05
5.50619e-05
6.06517e-05
5.63342e-05
6.23441e-05
5.50492e-05
5.74505e-05
6.04262e-05
6.48159e-05
6.42438e-05
6.04219e-05
6.42339e-05
5.74504e-05
5.74214e-05
6.42148e-05
6.03947e-05
6.48104e-05
6.04006e-05
5.74198e-05
6.42252e-05
5.63696e-05
6.06618e-05
6.23655e-05
5.50851e-05
6.23536e-05
5.50993e-05
5.63609e-05
5.63204e-05
6.23274e-05
5.50606e-05
6.06503e-05
5.63317e-05
6.23398e-05
5.50474e-05
5.7453e-05
6.04198e-05
6.48124e-05
6.42362e-05
6.42263e-05
6.04202e-05
5.74408e-05
5.74096e-05
6.42072e-05
6.0395e-05
6.48067e-05
5.74219e-05
6.42174e-05
6.03956e-05
5.63672e-05
6.06603e-05
6.23611e-05
5.50836e-05
6.23492e-05
5.50978e-05
5.63558e-05
5.3573e-05
5.95063e-05
5.95052e-05
6.47853e-05
6.03758e-05
6.03708e-05
5.63264e-05
6.23271e-05
5.50554e-05
6.06528e-05
5.63318e-05
6.23445e-05
5.50586e-05
5.74487e-05
6.04273e-05
6.48176e-05
6.42435e-05
6.04225e-05
6.42316e-05
5.74499e-05
5.74195e-05
6.42127e-05
6.03962e-05
6.48123e-05
6.04012e-05
5.74168e-05
6.42246e-05
5.6367e-05
6.06593e-05
6.2366e-05
5.50966e-05
6.23492e-05
5.50939e-05
5.63614e-05
5.6324e-05
5.50544e-05
6.23232e-05
6.06515e-05
5.63288e-05
5.50576e-05
6.23409e-05
5.74448e-05
6.04254e-05
6.48138e-05
6.42364e-05
6.42242e-05
6.04197e-05
5.74462e-05
5.74157e-05
6.42052e-05
6.03941e-05
6.48084e-05
5.74128e-05
6.42175e-05
6.03999e-05
5.63641e-05
6.06579e-05
5.50955e-05
6.23624e-05
5.50929e-05
6.23454e-05
5.6359e-05
5.74584e-05
6.04261e-05
6.48178e-05
6.42425e-05
5.74469e-05
6.0426e-05
6.42332e-05
5.63723e-05
6.06619e-05
6.23638e-05
5.5089e-05
5.63609e-05
6.23519e-05
5.51041e-05
5.74471e-05
6.04204e-05
6.48129e-05
6.42373e-05
6.42255e-05
6.042e-05
5.74454e-05
5.63684e-05
6.06615e-05
5.50899e-05
6.23638e-05
5.51043e-05
6.23472e-05
5.63595e-05
6.59541e-05
5.3573e-05
5.95097e-05
5.95124e-05
5.95071e-05
6.59495e-05
5.95096e-05
5.63264e-05
5.5066e-05
6.23329e-05
6.06516e-05
5.63393e-05
5.5052e-05
6.23447e-05
5.74604e-05
6.04276e-05
6.4818e-05
6.42447e-05
5.74495e-05
6.04265e-05
6.42349e-05
5.74175e-05
6.4216e-05
6.04012e-05
6.48124e-05
5.74296e-05
6.04029e-05
6.42261e-05
5.63748e-05
6.06616e-05
5.50878e-05
6.23663e-05
5.63624e-05
5.51029e-05
6.23542e-05
5.63224e-05
5.50643e-05
6.23227e-05
6.06488e-05
5.63308e-05
5.505e-05
6.23397e-05
5.7446e-05
6.04268e-05
6.48151e-05
6.4237e-05
6.42251e-05
6.04211e-05
5.74444e-05
5.74171e-05
6.42058e-05
6.03946e-05
6.481e-05
5.74151e-05
6.42181e-05
6.04019e-05
5.63662e-05
6.06588e-05
5.50872e-05
6.23613e-05
5.51017e-05
6.23448e-05
5.63575e-05
6.59537e-05
5.35777e-05
5.95046e-05
5.95085e-05
5.95096e-05
6.60112e-05
5.37088e-05
5.95968e-05
5.95967e-05
6.60148e-05
5.95973e-05
5.95984e-05
6.60339e-05
5.37419e-05
5.96255e-05
5.96267e-05
6.60306e-05
5.96251e-05
5.96249e-05
5.6438e-05
6.07081e-05
6.24064e-05
5.51606e-05
6.23954e-05
5.51757e-05
5.64279e-05
5.74815e-05
6.04462e-05
6.42524e-05
6.48413e-05
6.4262e-05
5.74824e-05
6.04501e-05
5.6395e-05
6.06983e-05
6.23751e-05
5.5137e-05
6.23866e-05
5.64043e-05
5.51235e-05
5.75123e-05
6.42794e-05
6.48463e-05
6.04737e-05
6.42702e-05
6.04699e-05
5.75109e-05
5.64353e-05
6.07067e-05
6.24021e-05
5.5159e-05
6.23912e-05
5.51742e-05
5.64234e-05
5.74706e-05
6.04445e-05
6.42448e-05
6.48375e-05
5.74829e-05
6.42545e-05
6.04445e-05
5.63905e-05
6.06969e-05
6.23708e-05
5.51356e-05
5.64018e-05
6.23824e-05
5.51222e-05
5.75127e-05
6.42721e-05
6.48429e-05
6.04694e-05
6.4263e-05
5.75008e-05
6.04687e-05
5.64604e-05
6.24151e-05
5.52101e-05
6.07417e-05
5.64707e-05
6.24258e-05
5.51954e-05
5.75396e-05
6.42877e-05
6.0492e-05
6.48702e-05
6.04974e-05
5.75417e-05
6.42965e-05
5.64563e-05
6.24108e-05
5.52087e-05
6.07403e-05
5.64681e-05
6.24216e-05
5.51939e-05
5.75295e-05
6.42804e-05
6.04905e-05
6.48665e-05
5.7541e-05
6.42892e-05
6.04904e-05
6.60108e-05
5.37057e-05
5.95943e-05
5.95968e-05
5.95982e-05
5.95945e-05
6.60142e-05
6.60334e-05
5.374e-05
5.96224e-05
5.96263e-05
5.96221e-05
6.60301e-05
5.96249e-05
5.6436e-05
6.07053e-05
6.24071e-05
5.51705e-05
6.23909e-05
5.51682e-05
5.64296e-05
5.74807e-05
6.04472e-05
6.42504e-05
6.48433e-05
6.42617e-05
5.74791e-05
6.04513e-05
5.63956e-05
6.06995e-05
6.23707e-05
5.51304e-05
6.23869e-05
5.6402e-05
5.5133e-05
5.7509e-05
6.42793e-05
6.48482e-05
6.04748e-05
6.42683e-05
6.04711e-05
5.75105e-05
5.64334e-05
6.0704e-05
5.51694e-05
6.24035e-05
5.51671e-05
6.23871e-05
5.64272e-05
5.7477e-05
6.04439e-05
6.4243e-05
6.48394e-05
5.74753e-05
6.42545e-05
6.0449e-05
5.63933e-05
6.06982e-05
5.51294e-05
6.23669e-05
5.63993e-05
5.51319e-05
6.23833e-05
5.75052e-05
6.42721e-05
6.48443e-05
6.04725e-05
6.42608e-05
5.75066e-05
6.04676e-05
5.64617e-05
6.24111e-05
5.52037e-05
6.07433e-05
5.64688e-05
6.24266e-05
5.52049e-05
5.75395e-05
6.42857e-05
6.04941e-05
6.48723e-05
6.04975e-05
5.75384e-05
6.42964e-05
5.64592e-05
5.52026e-05
6.24073e-05
6.0742e-05
5.64662e-05
5.52039e-05
6.24229e-05
5.75337e-05
6.42783e-05
6.04908e-05
6.48683e-05
5.75339e-05
6.4289e-05
6.0495e-05
5.64367e-05
6.07077e-05
5.51634e-05
6.24047e-05
5.51772e-05
6.2389e-05
5.6427e-05
5.74774e-05
6.04457e-05
6.42442e-05
6.48381e-05
6.04462e-05
5.74789e-05
6.42554e-05
5.63938e-05
6.0698e-05
5.51397e-05
6.23688e-05
5.51266e-05
5.6403e-05
6.23847e-05
5.7509e-05
6.4273e-05
6.48434e-05
6.04708e-05
6.04692e-05
6.42622e-05
5.75072e-05
5.64607e-05
6.24132e-05
5.52114e-05
6.07416e-05
5.6472e-05
6.24238e-05
5.51981e-05
5.75378e-05
6.42866e-05
6.04963e-05
6.48713e-05
5.75447e-05
6.0496e-05
6.42951e-05
5.64597e-05
5.52089e-05
6.24091e-05
6.07415e-05
5.64694e-05
5.52009e-05
6.24238e-05
5.75359e-05
6.42796e-05
6.04914e-05
6.4867e-05
5.75384e-05
6.42899e-05
6.0491e-05
6.60114e-05
5.37118e-05
5.95956e-05
5.95982e-05
5.96015e-05
5.95988e-05
6.60151e-05
6.60344e-05
5.37438e-05
5.96271e-05
5.96298e-05
5.9624e-05
6.60309e-05
5.96266e-05
5.64346e-05
6.07052e-05
5.51611e-05
6.24021e-05
5.51765e-05
6.23864e-05
5.64248e-05
5.74763e-05
6.04455e-05
6.42437e-05
6.48409e-05
6.04506e-05
5.74776e-05
6.42551e-05
5.63918e-05
6.06954e-05
5.51386e-05
6.23662e-05
5.51249e-05
5.6401e-05
6.23821e-05
5.75077e-05
6.42727e-05
6.48457e-05
6.04743e-05
6.0469e-05
6.42617e-05
5.7506e-05
5.64621e-05
5.52115e-05
6.24155e-05
6.07414e-05
5.6474e-05
5.51971e-05
6.24262e-05
5.75395e-05
6.42884e-05
6.04966e-05
6.4872e-05
5.75462e-05
6.04966e-05
6.42972e-05
5.64573e-05
5.52106e-05
6.24065e-05
6.07388e-05
5.64673e-05
5.51958e-05
6.24216e-05
5.75347e-05
6.4279e-05
6.04923e-05
6.48698e-05
5.7537e-05
6.42897e-05
6.04968e-05
6.60334e-05
5.3743e-05
5.96215e-05
5.96226e-05
6.60282e-05
5.96247e-05
5.9626e-05
3.95565e-05
5.17807e-05
5.17847e-05
5.38233e-05
3.98918e-05
5.19618e-05
5.19659e-05
5.39676e-05
4.02005e-05
5.21226e-05
5.21268e-05
5.40952e-05
4.0483e-05
5.22636e-05
5.22678e-05
5.4207e-05
4.074e-05
5.23854e-05
5.23895e-05
5.43035e-05
4.09722e-05
5.24886e-05
5.24927e-05
5.43847e-05
4.11806e-05
5.2574e-05
5.2578e-05
5.44513e-05
4.13658e-05
5.26422e-05
5.26461e-05
5.45039e-05
4.15288e-05
5.26938e-05
5.26977e-05
5.45429e-05
4.16704e-05
5.27296e-05
5.27334e-05
5.45696e-05
4.17915e-05
5.27503e-05
5.27541e-05
5.45888e-05
4.1893e-05
5.27565e-05
5.27602e-05
5.45929e-05
4.19755e-05
5.27505e-05
5.27541e-05
5.45757e-05
4.20401e-05
5.2732e-05
5.27356e-05
5.45544e-05
4.20884e-05
5.27015e-05
5.27054e-05
5.45248e-05
4.21216e-05
5.26602e-05
5.26644e-05
5.44868e-05
4.21404e-05
5.2609e-05
5.26134e-05
5.44399e-05
4.21448e-05
5.25492e-05
5.25534e-05
5.43846e-05
4.21111e-05
5.24734e-05
5.2477e-05
5.43102e-05
4.3792e-05
5.05501e-05
5.05534e-05
5.39575e-05
5.37815e-05
5.17321e-05
5.17272e-05
5.37794e-05
5.17297e-05
5.17308e-05
5.17315e-05
5.17313e-05
5.37834e-05
5.17355e-05
5.17292e-05
5.37822e-05
5.38265e-05
5.39289e-05
5.17813e-05
5.17764e-05
5.19183e-05
5.19133e-05
5.3824e-05
5.39267e-05
5.1779e-05
5.178e-05
5.1916e-05
5.1917e-05
5.17806e-05
5.19176e-05
5.19174e-05
5.38292e-05
5.39309e-05
5.17784e-05
5.19217e-05
5.19153e-05
5.3929e-05
5.39698e-05
5.40598e-05
5.19626e-05
5.19576e-05
5.2084e-05
5.20789e-05
5.39675e-05
5.40576e-05
5.19603e-05
5.19614e-05
5.20818e-05
5.20827e-05
5.19617e-05
5.20831e-05
5.20829e-05
5.3972e-05
5.40615e-05
5.19596e-05
5.20872e-05
5.20809e-05
5.40597e-05
5.40974e-05
5.41747e-05
5.21236e-05
5.21184e-05
5.22297e-05
5.22245e-05
5.40952e-05
5.41726e-05
5.21214e-05
5.21223e-05
5.22275e-05
5.22284e-05
5.21225e-05
5.22287e-05
5.22285e-05
5.40992e-05
5.41762e-05
5.21205e-05
5.22328e-05
5.22265e-05
5.41734e-05
5.42089e-05
5.4274e-05
5.22647e-05
5.22595e-05
5.2356e-05
5.23507e-05
5.42064e-05
5.42718e-05
5.22625e-05
5.22634e-05
5.23539e-05
5.23547e-05
5.22635e-05
5.23549e-05
5.23548e-05
5.42104e-05
5.42753e-05
5.22616e-05
5.2359e-05
5.23529e-05
5.42725e-05
5.43049e-05
5.43581e-05
5.23865e-05
5.23812e-05
5.24637e-05
5.24583e-05
5.43022e-05
5.43561e-05
5.23844e-05
5.23852e-05
5.24616e-05
5.24624e-05
5.23853e-05
5.24626e-05
5.24624e-05
5.43061e-05
5.43592e-05
5.23834e-05
5.24666e-05
5.24606e-05
5.43568e-05
5.43859e-05
5.44275e-05
5.24897e-05
5.24844e-05
5.25532e-05
5.25478e-05
5.43834e-05
5.44255e-05
5.24877e-05
5.24884e-05
5.25512e-05
5.25519e-05
5.24886e-05
5.25521e-05
5.2552e-05
5.4387e-05
5.44285e-05
5.24867e-05
5.25561e-05
5.25502e-05
5.44263e-05
5.44524e-05
5.44827e-05
5.25751e-05
5.25697e-05
5.26253e-05
5.26199e-05
5.445e-05
5.44807e-05
5.25731e-05
5.25738e-05
5.26233e-05
5.2624e-05
5.25739e-05
5.26242e-05
5.26242e-05
5.44534e-05
5.44836e-05
5.25721e-05
5.26281e-05
5.26224e-05
5.44816e-05
5.45048e-05
5.45242e-05
5.26432e-05
5.26379e-05
5.26808e-05
5.26754e-05
5.45025e-05
5.45223e-05
5.26413e-05
5.26419e-05
5.26788e-05
5.26794e-05
5.26421e-05
5.26797e-05
5.26797e-05
5.45058e-05
5.45251e-05
5.26404e-05
5.26836e-05
5.2678e-05
5.45233e-05
5.45438e-05
5.45527e-05
5.26949e-05
5.26895e-05
5.27205e-05
5.27152e-05
5.45415e-05
5.45511e-05
5.26929e-05
5.26935e-05
5.27186e-05
5.27192e-05
5.26938e-05
5.27195e-05
5.27195e-05
5.45447e-05
5.45534e-05
5.26921e-05
5.27233e-05
5.27179e-05
5.45519e-05
5.45703e-05
5.45681e-05
5.27306e-05
5.27253e-05
5.27456e-05
5.27403e-05
5.45677e-05
5.45698e-05
5.27287e-05
5.27293e-05
5.27437e-05
5.27442e-05
5.27296e-05
5.27447e-05
5.27446e-05
5.45712e-05
5.45679e-05
5.2728e-05
5.27484e-05
5.2743e-05
5.45679e-05
5.459e-05
5.45764e-05
5.27513e-05
5.27459e-05
5.27566e-05
5.27514e-05
5.45834e-05
5.45748e-05
5.27494e-05
5.27499e-05
5.27548e-05
5.27552e-05
5.27503e-05
5.27557e-05
5.27557e-05
5.45922e-05
5.45703e-05
5.27487e-05
5.27594e-05
5.27541e-05
5.45715e-05
5.45878e-05
5.45676e-05
5.27573e-05
5.27521e-05
5.2753e-05
5.27479e-05
5.45868e-05
5.45659e-05
5.27555e-05
5.27559e-05
5.27512e-05
5.27516e-05
5.27564e-05
5.27523e-05
5.27521e-05
5.4595e-05
5.45625e-05
5.27549e-05
5.27559e-05
5.27506e-05
5.45653e-05
5.45773e-05
5.45472e-05
5.27512e-05
5.27461e-05
5.27365e-05
5.27314e-05
5.45759e-05
5.45456e-05
5.27494e-05
5.27498e-05
5.27346e-05
5.2735e-05
5.27503e-05
5.27359e-05
5.27354e-05
5.45831e-05
5.45436e-05
5.27488e-05
5.27394e-05
5.2734e-05
5.45457e-05
5.45558e-05
5.45179e-05
5.27327e-05
5.27276e-05
5.2708e-05
5.27031e-05
5.45543e-05
5.45123e-05
5.27309e-05
5.27313e-05
5.27061e-05
5.27064e-05
5.27319e-05
5.27075e-05
5.27067e-05
5.45601e-05
5.45159e-05
5.27304e-05
5.27108e-05
5.27053e-05
5.45163e-05
5.45267e-05
5.44789e-05
5.27025e-05
5.26971e-05
5.26685e-05
5.26637e-05
5.45263e-05
5.44765e-05
5.27007e-05
5.27011e-05
5.26666e-05
5.26666e-05
5.27018e-05
5.2668e-05
5.26669e-05
5.45283e-05
5.44789e-05
5.27003e-05
5.2671e-05
5.26655e-05
5.44777e-05
5.44885e-05
5.44323e-05
5.26613e-05
5.26558e-05
5.26187e-05
5.26141e-05
5.44868e-05
5.44303e-05
5.26596e-05
5.26601e-05
5.26168e-05
5.26166e-05
5.26609e-05
5.26182e-05
5.2617e-05
5.44892e-05
5.44327e-05
5.26593e-05
5.26211e-05
5.26156e-05
5.44312e-05
5.44413e-05
5.43782e-05
5.26102e-05
5.26046e-05
5.25596e-05
5.25552e-05
5.44395e-05
5.43763e-05
5.26085e-05
5.26092e-05
5.25578e-05
5.25575e-05
5.26099e-05
5.25592e-05
5.2558e-05
5.44419e-05
5.43786e-05
5.26083e-05
5.25621e-05
5.25567e-05
5.4377e-05
5.43858e-05
5.43138e-05
5.25503e-05