/*--------------------------------*- C++ -*----------------------------------*\
| =========                 |                                                 |
| \\      /  F ield         | OpenFOAM: The Open Source CFD Toolbox           |
|  \\    /   O peration     | Version:  2312                                  |
|   \\  /    A nd           | Website:  www.openfoam.com                      |
|    \\/     M anipulation  |                                                 |
\*---------------------------------------------------------------------------*/
FoamFile
{
    version     2.0;
    format      ascii;
    arch        "LSB;label=32;scalar=64";
    class       volVectorField;
    location    "600";
    object      U;
}
// * * * * * * * * * * * * * * * * * * * * * * * * * * * * * * * * * * * * * //

dimensions      [0 1 -1 0 0 0 0];

internalField   nonuniform List<vector> 
43168
(
(-1.02774e-05 -1.02629e-05 0.112443)
(1.1411e-05 -6.20245e-06 0.107483)
(-6.2011e-06 1.14044e-05 0.107482)
(-2.37598e-05 -2.37592e-05 0.104205)
(-4.15629e-05 -4.15553e-05 0.104319)
(-6.15625e-06 -1.13339e-05 0.107483)
(6.15958e-06 -1.13452e-05 0.107483)
(4.15733e-05 -4.15615e-05 0.10432)
(-1.13703e-05 -6.16462e-06 0.107485)
(-1.13402e-05 6.16367e-06 0.107482)
(1.13755e-05 -6.17086e-06 0.107485)
(1.13565e-05 6.14694e-06 0.107483)
(-4.15497e-05 4.15668e-05 0.104318)
(-6.17381e-06 1.1376e-05 0.107484)
(6.1824e-06 1.13721e-05 0.107484)
(4.15672e-05 4.15693e-05 0.104318)
(2.37496e-05 2.3768e-05 0.104205)
(-6.18022e-06 -1.13633e-05 0.107481)
(6.1858e-06 -1.13784e-05 0.107481)
(-2.37558e-05 2.37272e-05 0.104206)
(-1.13993e-05 -6.19058e-06 0.107483)
(-1.13682e-05 6.18878e-06 0.10748)
(1.1385e-05 6.1768e-06 0.107481)
(2.37552e-05 -2.37681e-05 0.104205)
(6.20564e-06 1.14012e-05 0.107482)
(-1.21353e-06 -1.20422e-05 0.0822859)
(-1.20538e-05 -1.20739e-06 0.0822865)
(-1.02031e-05 -1.01874e-05 0.112452)
(1.02227e-05 -1.01746e-05 0.112452)
(-1.01965e-05 1.02107e-05 0.112451)
(1.02119e-05 1.01791e-05 0.112451)
(-3.04947e-07 -1.65407e-05 0.0914582)
(5.75127e-07 7.21478e-06 0.0822598)
(-2.65899e-07 5.00835e-06 0.0914069)
(-1.24486e-06 -1.19852e-05 0.0823191)
(-2.49017e-06 4.31359e-06 0.071571)
(3.32787e-06 -5.789e-06 0.0716358)
(-1.65511e-05 -2.74391e-07 0.0914584)
(7.19852e-06 6.02843e-07 0.0822606)
(5.0209e-06 -2.44016e-07 0.091407)
(-1.19888e-05 -1.23708e-06 0.0823198)
(1.02911e-05 -1.02677e-05 0.112443)
(-1.0271e-05 1.02836e-05 0.112442)
(1.02891e-05 1.02627e-05 0.112442)
(2.72203e-05 -6.60414e-07 0.0986029)
(-8.8109e-06 3.09733e-06 0.0930334)
(1.4643e-05 -2.65168e-06 0.109894)
(1.14205e-05 -6.21844e-06 0.107481)
(-7.971e-06 -4.43343e-07 0.0985415)
(2.03514e-05 -7.79292e-06 0.0930975)
(1.47047e-05 -2.67202e-06 0.109889)
(4.35219e-06 -2.52868e-06 0.0715732)
(-5.80092e-06 3.4079e-06 0.0716335)
(-7.13705e-07 2.72248e-05 0.0986024)
(-2.65055e-06 1.46472e-05 0.109893)
(3.07685e-06 -8.79648e-06 0.0930335)
(-6.21496e-06 1.14163e-05 0.10748)
(-4.03962e-07 -7.98609e-06 0.098541)
(-2.66391e-06 1.47016e-05 0.109888)
(-7.76834e-06 2.03516e-05 0.0930966)
(-3.63724e-06 -3.44864e-06 0.087582)
(-3.4485e-06 -3.62773e-06 0.087581)
(4.14926e-05 4.1496e-05 0.10432)
(9.80915e-06 6.95349e-06 0.0876395)
(6.96359e-06 9.80564e-06 0.0876379)
(-3.34366e-06 -5.88656e-06 0.0716038)
(-5.8732e-06 -3.34819e-06 0.0716034)
(-4.16259e-05 -4.16164e-05 0.104318)
(-6.9179e-06 -9.8626e-06 0.0876081)
(-9.89991e-06 -6.93545e-06 0.087606)
(-3.36733e-06 -5.85892e-06 0.0716188)
(2.52829e-06 4.37583e-06 0.0715573)
(-5.84618e-06 -3.37233e-06 0.0716185)
(4.34842e-06 2.55685e-06 0.0715574)
(2.37897e-05 2.38071e-05 0.104203)
(-6.92606e-06 -9.82149e-06 0.087624)
(-9.86108e-06 -6.94384e-06 0.0876219)
(3.43106e-06 3.60252e-06 0.0875656)
(3.61567e-06 3.46205e-06 0.0875646)
(-6.10804e-06 -1.12805e-05 0.107487)
(-7.78214e-06 -2.03933e-05 0.0930672)
(-2.66307e-07 5.00709e-06 0.0913912)
(-1.23052e-06 -1.20155e-05 0.0823025)
(5.94002e-07 7.20002e-06 0.0822431)
(-3.05663e-07 -1.65747e-05 0.0914426)
(2.40419e-07 5.0069e-06 0.0913914)
(1.17345e-06 -1.20065e-05 0.0823038)
(-5.81524e-07 7.15867e-06 0.0822428)
(2.81008e-07 -1.65799e-05 0.0914427)
(-4.3609e-07 8.0385e-06 0.0985301)
(-6.13098e-06 -1.13125e-05 0.107485)
(-7.78232e-06 -2.03628e-05 0.0930817)
(-2.63856e-06 -1.4548e-05 0.109898)
(3.08999e-06 8.79697e-06 0.0930177)
(-2.61781e-06 -1.44767e-05 0.109903)
(-7.07183e-07 -2.72746e-05 0.0985914)
(4.13778e-07 8.04014e-06 0.0985303)
(6.1319e-06 -1.12738e-05 0.107486)
(7.73377e-06 -2.03661e-05 0.0930823)
(2.63567e-06 -1.45534e-05 0.109898)
(-3.08549e-06 8.7786e-06 0.0930176)
(2.63557e-06 -1.44759e-05 0.109903)
(6.7851e-07 -2.72826e-05 0.0985917)
(3.31231e-06 -5.81172e-06 0.0716209)
(-2.51584e-06 4.30051e-06 0.071556)
(-2.38217e-05 2.37814e-05 0.104203)
(6.91985e-06 -9.83215e-06 0.0876231)
(9.85086e-06 -6.96847e-06 0.0876243)
(-3.47151e-06 3.58228e-06 0.0875642)
(5.84371e-06 -3.40275e-06 0.0716194)
(-1.13167e-05 -6.11553e-06 0.107489)
(-2.04321e-05 -7.7832e-06 0.0930673)
(5.01892e-06 -2.42427e-07 0.0913913)
(-1.20215e-05 -1.22238e-06 0.0823032)
(7.1831e-06 6.23913e-07 0.0822439)
(-1.6581e-05 -2.75723e-07 0.0914428)
(8.04602e-06 -4.19042e-07 0.0985301)
(-1.13503e-05 -6.1431e-06 0.107487)
(-2.04023e-05 -7.78581e-06 0.0930817)
(-1.45588e-05 -2.63243e-06 0.109898)
(8.79611e-06 3.11914e-06 0.0930184)
(-1.44906e-05 -2.61515e-06 0.109903)
(-2.72896e-05 -6.77922e-07 0.0985917)
(5.01962e-06 2.54375e-07 0.0913913)
(-1.1994e-05 1.2482e-06 0.0823029)
(7.18366e-06 -6.1494e-07 0.0822438)
(-1.65771e-05 3.12472e-07 0.0914427)
(8.04799e-06 4.17115e-07 0.0985301)
(-1.1312e-05 6.14266e-06 0.107484)
(-1.45519e-05 2.64051e-06 0.109897)
(-2.03492e-05 7.79636e-06 0.0930808)
(-1.44825e-05 2.62499e-06 0.109902)
(8.78725e-06 -3.1032e-06 0.0930181)
(-2.72844e-05 7.18495e-07 0.0985916)
(2.03783e-05 -7.79688e-06 0.093083)
(1.45568e-05 -2.63795e-06 0.109899)
(2.72348e-05 -6.59746e-07 0.0985921)
(1.20021e-05 -1.26874e-06 0.0823038)
(1.65281e-05 -2.31506e-07 0.0914436)
(1.45464e-05 2.61685e-06 0.109898)
(2.03578e-05 7.78111e-06 0.0930822)
(2.72445e-05 7.16741e-07 0.0985919)
(1.20131e-05 1.22421e-06 0.0823034)
(1.65476e-05 3.33972e-07 0.0914429)
(-5.82573e-06 3.38857e-06 0.0716186)
(4.34297e-06 -2.5523e-06 0.0715581)
(2.37999e-05 -2.38135e-05 0.104203)
(-9.82555e-06 6.94414e-06 0.0876209)
(-6.92949e-06 9.8295e-06 0.0876238)
(3.59945e-06 -3.45625e-06 0.0875648)
(3.44348e-06 -3.59844e-06 0.0875664)
(-3.37193e-06 5.85361e-06 0.0716191)
(2.54492e-06 -4.3561e-06 0.071558)
(-4.06141e-07 -8.0175e-06 0.0985302)
(-6.15032e-06 1.13528e-05 0.107486)
(-2.63272e-06 1.4571e-05 0.109897)
(-7.77556e-06 2.03877e-05 0.0930822)
(-2.61979e-06 1.4499e-05 0.109902)
(3.09175e-06 -8.78581e-06 0.093019)
(-7.1511e-07 2.72467e-05 0.0985916)
(4.25357e-07 -8.00467e-06 0.0985303)
(6.1664e-06 1.13494e-05 0.107486)
(2.63267e-06 1.45737e-05 0.109897)
(7.79904e-06 2.03926e-05 0.0930822)
(2.61261e-06 1.44963e-05 0.109902)
(-3.11022e-06 -8.78692e-06 0.0930188)
(6.8757e-07 2.7235e-05 0.098592)
(-2.04729e-07 -4.98131e-06 0.0913907)
(-1.22461e-06 1.20227e-05 0.0823032)
(6.08721e-07 -7.18411e-06 0.0822441)
(-3.40932e-07 1.65316e-05 0.0914432)
(2.57007e-07 -4.95879e-06 0.0913903)
(1.24432e-06 1.20164e-05 0.0823038)
(-6.30493e-07 -7.18013e-06 0.0822445)
(2.81624e-07 1.65074e-05 0.0914439)
(-2.37678e-05 -2.37717e-05 0.104204)
(9.85032e-06 6.94868e-06 0.0876236)
(6.9615e-06 9.84386e-06 0.0876221)
(-3.46226e-06 -3.61197e-06 0.0875651)
(5.84849e-06 3.37279e-06 0.0716194)
(3.39466e-06 5.83674e-06 0.0716193)
(-2.56471e-06 -4.34625e-06 0.0715583)
(2.5013e-06 4.38841e-06 0.0715723)
(-3.38893e-06 -5.83351e-06 0.0716337)
(4.3613e-06 2.53031e-06 0.0715725)
(-5.82026e-06 -3.39492e-06 0.0716334)
(3.41684e-06 3.62957e-06 0.0875815)
(3.6423e-06 3.44642e-06 0.0875805)
(-4.14978e-05 -4.14888e-05 0.104321)
(-6.93029e-06 -9.78427e-06 0.0876397)
(-9.82253e-06 -6.95049e-06 0.0876377)
(2.47628e-06 4.40148e-06 0.0715873)
(4.37426e-06 2.50398e-06 0.0715874)
(2.37199e-05 2.37394e-05 0.104208)
(3.4052e-06 3.65583e-06 0.0875973)
(3.66892e-06 3.43184e-06 0.0875963)
(2.74371e-07 -1.65446e-05 0.0914583)
(-5.66112e-07 7.17855e-06 0.0822595)
(2.413e-07 5.00835e-06 0.0914071)
(1.18289e-06 -1.19794e-05 0.0823204)
(-7.06991e-07 -2.72539e-05 0.0986022)
(3.07912e-06 8.81378e-06 0.0930323)
(-2.65538e-06 -1.46222e-05 0.109894)
(-6.19697e-06 -1.13775e-05 0.107479)
(-4.39164e-07 8.01296e-06 0.0985409)
(-7.77524e-06 -2.03286e-05 0.0930961)
(-2.66887e-06 -1.46798e-05 0.109889)
(6.74265e-07 -2.72621e-05 0.0986025)
(-3.08113e-06 8.80953e-06 0.0930321)
(2.65612e-06 -1.46295e-05 0.109894)
(6.19417e-06 -1.13906e-05 0.107479)
(4.15108e-07 8.01493e-06 0.0985411)
(7.72526e-06 -2.03392e-05 0.0930968)
(2.67302e-06 -1.46844e-05 0.109889)
(-2.65686e-07 5.01883e-06 0.0914225)
(5.56756e-07 7.23176e-06 0.0822764)
(2.35205e-07 5.01773e-06 0.0914227)
(-5.51626e-07 7.19404e-06 0.0822761)
(-4.39065e-07 7.99613e-06 0.0985519)
(-6.22184e-06 -1.1402e-05 0.107478)
(3.07198e-06 8.83358e-06 0.0930468)
(-2.68711e-06 -1.47463e-05 0.109885)
(4.11684e-07 7.998e-06 0.0985521)
(6.21992e-06 -1.1414e-05 0.107477)
(-3.07544e-06 8.82387e-06 0.0930467)
(2.68618e-06 -1.47506e-05 0.109885)
(-3.45978e-06 3.60399e-06 0.0875801)
(-3.64985e-06 3.43667e-06 0.0875823)
(4.14919e-05 -4.14922e-05 0.104321)
(6.92131e-06 -9.79557e-06 0.0876389)
(9.81268e-06 -6.97709e-06 0.0876401)
(-4.37064e-06 2.5254e-06 0.071573)
(5.81424e-06 -3.42102e-06 0.0716343)
(-2.46905e-06 4.32423e-06 0.071586)
(-2.37348e-05 2.37001e-05 0.104208)
(-3.45033e-06 3.62912e-06 0.0875959)
(-3.67546e-06 3.42245e-06 0.0875982)
(-4.38345e-06 2.50151e-06 0.0715879)
(-2.72705e-05 -6.79141e-07 0.0986026)
(8.81188e-06 3.10447e-06 0.093033)
(-1.46328e-05 -2.651e-06 0.109894)
(-1.14134e-05 -6.2056e-06 0.107481)
(8.02134e-06 -4.18374e-07 0.0985409)
(-2.03682e-05 -7.78149e-06 0.0930962)
(-1.46909e-05 -2.6642e-06 0.109889)
(-1.65475e-05 3.07591e-07 0.0914583)
(7.19721e-06 -5.99299e-07 0.0822605)
(5.02179e-06 2.56107e-07 0.0914069)
(-1.19661e-05 1.26277e-06 0.0823195)
(-2.72665e-05 7.14565e-07 0.0986025)
(-1.46252e-05 2.65664e-06 0.109893)
(8.79285e-06 -3.09642e-06 0.0930327)
(-1.13786e-05 6.20439e-06 0.107478)
(8.0237e-06 4.19199e-07 0.0985409)
(-1.46813e-05 2.67263e-06 0.109888)
(-2.03209e-05 7.79193e-06 0.0930952)
(5.02579e-06 -2.44574e-07 0.0914226)
(7.21752e-06 5.84782e-07 0.0822772)
(8.00517e-06 -4.20579e-07 0.0985518)
(-1.1438e-05 -6.23039e-06 0.107479)
(8.83219e-06 3.09677e-06 0.0930475)
(-1.47566e-05 -2.68035e-06 0.109885)
(5.0272e-06 2.55217e-07 0.0914226)
(7.21397e-06 -5.84667e-07 0.0822771)
(8.00977e-06 4.22846e-07 0.0985518)
(-1.14008e-05 6.22786e-06 0.107476)
(-1.47469e-05 2.68896e-06 0.109884)
(8.81102e-06 -3.09386e-06 0.0930472)
(1.64969e-05 -2.30235e-07 0.0914592)
(-7.19001e-06 6.29185e-07 0.0822605)
(-4.97222e-06 -2.98813e-07 0.0914066)
(1.19752e-05 -1.2819e-06 0.0823204)
(2.72293e-05 7.19263e-07 0.0986026)
(1.46299e-05 2.64064e-06 0.109893)
(-8.79393e-06 -3.09902e-06 0.093033)
(1.13975e-05 6.19984e-06 0.107479)
(-7.9894e-06 4.12811e-07 0.0985414)
(1.46903e-05 2.66088e-06 0.109888)
(2.0325e-05 7.77702e-06 0.0930967)
(1.6518e-05 3.33298e-07 0.0914585)
(-7.20193e-06 -5.95851e-07 0.0822607)
(-4.99787e-06 2.21552e-07 0.0914071)
(1.1983e-05 1.24076e-06 0.08232)
(-7.95136e-06 -4.45593e-07 0.0985524)
(1.14446e-05 -6.24446e-06 0.10748)
(-8.82636e-06 3.08661e-06 0.0930479)
(1.47686e-05 -2.68944e-06 0.109885)
(-4.97443e-06 -2.98406e-07 0.0914223)
(-7.20458e-06 6.10938e-07 0.0822771)
(-7.96678e-06 4.14944e-07 0.0985525)
(1.14181e-05 6.2266e-06 0.107477)
(1.47591e-05 2.67998e-06 0.109884)
(-8.81117e-06 -3.0903e-06 0.0930475)
(-4.99861e-06 2.21122e-07 0.0914228)
(-7.21424e-06 -5.7659e-07 0.0822773)
(3.62061e-06 -3.44292e-06 0.0875807)
(3.41929e-06 -3.6115e-06 0.0875821)
(-4.14864e-05 4.15054e-05 0.10432)
(-9.79046e-06 6.94706e-06 0.0876367)
(-6.93368e-06 9.78765e-06 0.0876396)
(2.51513e-06 -4.36997e-06 0.071573)
(-3.39412e-06 5.82495e-06 0.071634)
(4.36502e-06 -2.50533e-06 0.0715881)
(2.3725e-05 -2.37415e-05 0.104207)
(3.64644e-06 -3.43237e-06 0.0875966)
(3.40592e-06 -3.63739e-06 0.087598)
(2.4896e-06 -4.38401e-06 0.071588)
(6.87608e-07 2.72122e-05 0.0986028)
(2.65373e-06 1.465e-05 0.109893)
(-3.09955e-06 -8.79996e-06 0.0930334)
(6.22062e-06 1.14163e-05 0.10748)
(4.30796e-07 -7.97674e-06 0.0985412)
(2.67111e-06 1.47036e-05 0.109888)
(7.78997e-06 2.03588e-05 0.0930966)
(-3.36494e-07 1.64979e-05 0.0914588)
(5.88783e-07 -7.198e-06 0.0822609)
(-2.0359e-07 -4.97958e-06 0.0914063)
(-1.23892e-06 1.19934e-05 0.0823198)
(2.81226e-07 1.64742e-05 0.0914595)
(-6.12221e-07 -7.19132e-06 0.0822612)
(2.60383e-07 -4.95943e-06 0.091406)
(1.25756e-06 1.19887e-05 0.0823204)
(-4.04141e-07 -7.97095e-06 0.098552)
(-6.23658e-06 1.14389e-05 0.107479)
(-2.68162e-06 1.47666e-05 0.109884)
(3.07041e-06 -8.81726e-06 0.093048)
(4.30727e-07 -7.96191e-06 0.0985522)
(6.24209e-06 1.14385e-05 0.107478)
(2.68796e-06 1.47685e-05 0.109884)
(-3.09492e-06 -8.8207e-06 0.0930479)
(-2.01555e-07 -4.98711e-06 0.091422)
(5.70977e-07 -7.21375e-06 0.0822775)
(2.60239e-07 -4.96744e-06 0.0914216)
(-5.95054e-07 -7.20691e-06 0.0822778)
(-4.37107e-06 -2.52024e-06 0.0715732)
(5.82436e-06 3.39396e-06 0.0716343)
(-2.53796e-06 -4.35553e-06 0.0715734)
(3.41414e-06 5.81102e-06 0.0716342)
(-2.37347e-05 -2.37279e-05 0.104207)
(-3.66477e-06 -3.43227e-06 0.0875977)
(-3.43881e-06 -3.65461e-06 0.0875968)
(-4.38112e-06 -2.49533e-06 0.0715881)
(-2.51363e-06 -4.36843e-06 0.0715883)
(-9.28928e-07 4.92624e-06 0.068413)
(-1.40375e-06 -1.22895e-05 0.0858851)
(6.04091e-07 7.19431e-06 0.0822347)
(-7.92268e-07 5.88191e-06 0.085829)
(1.45197e-07 -6.07684e-06 0.0684738)
(7.17915e-06 6.31892e-07 0.0822355)
(-7.66038e-07 4.26094e-06 0.0769181)
(-2.65945e-07 5.01172e-06 0.0914147)
(1.23045e-07 -7.40605e-06 0.0787361)
(-1.16721e-06 -1.59365e-05 0.0899817)
(-2.01249e-07 3.87102e-06 0.0786958)
(-5.92891e-07 5.53063e-06 0.0899322)
(4.88138e-07 -7.41611e-06 0.0769647)
(1.12128e-07 -6.04632e-06 0.068496)
(-8.16964e-07 5.90795e-06 0.0858543)
(-1.23664e-06 -1.20001e-05 0.0823108)
(-9.69667e-07 4.93139e-06 0.0684354)
(-1.41918e-06 -1.22337e-05 0.0859103)
(4.94097e-07 -7.42429e-06 0.0769565)
(-3.06089e-07 -1.65604e-05 0.0914504)
(-2.00224e-07 3.8712e-06 0.0786874)
(-5.89119e-07 5.52767e-06 0.0899242)
(-7.58714e-07 4.25826e-06 0.0769099)
(1.22887e-07 -7.41083e-06 0.0787277)
(-1.16632e-06 -1.59529e-05 0.0899736)
(-9.83181e-07 4.93451e-06 0.0684428)
(-1.42383e-06 -1.22144e-05 0.0859186)
(5.67025e-07 7.2226e-06 0.0822681)
(-8.23778e-07 5.92004e-06 0.0858627)
(1.01328e-07 -6.03777e-06 0.0685034)
(3.31853e-06 -5.80075e-06 0.0716284)
(-2.48038e-06 4.31825e-06 0.0715785)
(4.26085e-06 -7.40656e-07 0.0769185)
(5.02279e-06 -2.44473e-07 0.0914148)
(-1.59445e-05 -1.14066e-06 0.089982)
(-7.41266e-06 1.49374e-07 0.0787363)
(5.53997e-06 -5.63754e-07 0.0899325)
(3.8737e-06 -1.82683e-07 0.078696)
(-7.41188e-06 5.15803e-07 0.0769651)
(-6.05461e-06 1.35635e-07 0.0684967)
(5.89537e-06 -7.82928e-07 0.0858548)
(-1.20048e-05 -1.22901e-06 0.0823115)
(4.92381e-06 -9.36043e-07 0.0684361)
(-1.22465e-05 -1.39746e-06 0.0859107)
(-7.42324e-06 5.22531e-07 0.0769569)
(-1.65689e-05 -2.75567e-07 0.0914506)
(5.53753e-06 -5.58449e-07 0.0899244)
(3.87459e-06 -1.81457e-07 0.0786876)
(4.26432e-06 -7.30454e-07 0.0769103)
(-1.59603e-05 -1.13855e-06 0.089974)
(-7.41732e-06 1.50366e-07 0.0787279)
(4.92679e-06 -9.51111e-07 0.0684435)
(-1.22279e-05 -1.40357e-06 0.0859191)
(7.20559e-06 5.93691e-07 0.0822689)
(5.9073e-06 -7.90942e-07 0.0858632)
(-6.04573e-06 1.22808e-07 0.0685041)
(-5.81392e-06 3.39734e-06 0.0716261)
(4.35855e-06 -2.51735e-06 0.0715807)
(-3.14645e-06 -3.16739e-06 0.0836478)
(3.54355e-06 5.13457e-06 0.0684073)
(5.13293e-06 3.5448e-06 0.068401)
(-2.64296e-06 -4.07257e-06 0.0683518)
(-4.05327e-06 -2.6565e-06 0.0683458)
(7.18954e-06 7.18858e-06 0.0836933)
(1.66844e-05 1.02383e-05 0.0917483)
(-1.10456e-05 -5.52463e-06 0.0962972)
(-3.89288e-06 -2.99476e-06 0.0815857)
(9.82931e-06 6.94866e-06 0.0876316)
(-7.84371e-06 -3.82057e-06 0.0917007)
(2.39018e-05 1.41866e-05 0.096346)
(7.99508e-06 4.0359e-06 0.0816376)
(1.02659e-05 1.66935e-05 0.0917415)
(-5.53593e-06 -1.10395e-05 0.0962947)
(-2.99714e-06 -3.91234e-06 0.0815814)
(6.9626e-06 9.82384e-06 0.08763)
(-3.82882e-06 -7.86303e-06 0.0916945)
(1.42208e-05 2.38981e-05 0.0963435)
(4.05712e-06 8.0118e-06 0.0816321)
(7.2026e-06 7.20012e-06 0.0836859)
(-2.63975e-06 -4.07571e-06 0.0683452)
(-4.05571e-06 -2.65519e-06 0.0683391)
(-3.13883e-06 -3.16142e-06 0.0836404)
(3.55286e-06 5.13623e-06 0.0684007)
(5.13554e-06 3.55194e-06 0.0683944)
(-7.85876e-06 -3.82597e-06 0.0917077)
(7.97617e-06 4.03932e-06 0.0816453)
(-3.65109e-06 -3.43936e-06 0.0875898)
(2.38719e-05 1.41836e-05 0.096352)
(-1.10617e-05 -5.52268e-06 0.0963031)
(-3.90425e-06 -2.98368e-06 0.0815934)
(1.66562e-05 1.0226e-05 0.0917553)
(-3.83481e-06 -7.87565e-06 0.0917015)
(4.05887e-06 7.99557e-06 0.0816398)
(-3.44439e-06 -3.64086e-06 0.0875889)
(1.42133e-05 2.38732e-05 0.0963494)
(-5.53804e-06 -1.10482e-05 0.0963007)
(-2.99024e-06 -3.92083e-06 0.0815891)
(1.02528e-05 1.66672e-05 0.0917485)
(2.5418e-06 4.37117e-06 0.0715497)
(4.3427e-06 2.57285e-06 0.0715499)
(3.15027e-06 3.14464e-06 0.083617)
(-5.13522e-06 -3.59123e-06 0.0683806)
(-3.58855e-06 -5.14966e-06 0.0683742)
(4.07378e-06 2.65029e-06 0.0683243)
(2.6609e-06 4.06801e-06 0.0683181)
(-7.23657e-06 -7.24548e-06 0.0836637)
(3.80302e-06 7.81537e-06 0.091679)
(-4.00274e-06 -8.01653e-06 0.0816152)
(3.44239e-06 3.59434e-06 0.0875577)
(-1.42002e-05 -2.39519e-05 0.096328)
(2.9812e-06 3.84073e-06 0.0815621)
(-1.02616e-05 -1.67435e-05 0.0917273)
(5.53666e-06 1.10326e-05 0.0962789)
(7.80834e-06 3.81e-06 0.0916725)
(-8.05498e-06 -4.02057e-06 0.0816092)
(3.60417e-06 3.47216e-06 0.0875566)
(-2.39792e-05 -1.42152e-05 0.0963256)
(3.87853e-06 2.99499e-06 0.0815571)
(-1.67526e-05 -1.02846e-05 0.0917208)
(1.10014e-05 5.53897e-06 0.0962763)
(2.51463e-06 4.38266e-06 0.0715648)
(-3.35501e-06 -5.87223e-06 0.0716113)
(4.35486e-06 2.54311e-06 0.071565)
(-5.86066e-06 -3.36105e-06 0.071611)
(-7.22563e-06 -7.23468e-06 0.0836712)
(4.07115e-06 2.65197e-06 0.068331)
(2.66093e-06 4.06571e-06 0.0683248)
(3.15192e-06 3.14833e-06 0.0836246)
(-5.13175e-06 -3.58293e-06 0.0683873)
(-3.57968e-06 -5.14617e-06 0.0683808)
(3.8087e-06 7.83822e-06 0.0916931)
(-1.41923e-05 -2.38957e-05 0.0963399)
(3.42295e-06 3.61675e-06 0.0875736)
(-4.00784e-06 -7.98173e-06 0.0816307)
(2.9677e-06 3.86332e-06 0.0815776)
(5.52032e-06 1.10463e-05 0.0962909)
(-1.02373e-05 -1.66914e-05 0.0917413)
(7.83081e-06 3.81657e-06 0.0916867)
(-2.39254e-05 -1.42072e-05 0.0963375)
(3.62846e-06 3.45325e-06 0.0875725)
(-8.02694e-06 -4.03138e-06 0.0816247)
(3.89829e-06 2.97892e-06 0.0815727)
(1.1017e-05 5.53288e-06 0.0962883)
(-1.66999e-05 -1.02624e-05 0.0917349)
(-1.02522e-05 -1.67194e-05 0.0917343)
(2.97429e-06 3.85127e-06 0.0815699)
(5.52352e-06 1.10396e-05 0.0962849)
(-6.92271e-06 -9.8442e-06 0.0876161)
(3.80354e-06 7.82641e-06 0.091686)
(-4.00722e-06 -8.00236e-06 0.081623)
(-1.41963e-05 -2.39296e-05 0.096334)
(-1.67283e-05 -1.02746e-05 0.0917278)
(3.89021e-06 2.98942e-06 0.0815649)
(1.10079e-05 5.53641e-06 0.0962823)
(-9.88248e-06 -6.94074e-06 0.087614)
(7.81753e-06 3.81382e-06 0.0916796)
(-8.04729e-06 -4.03045e-06 0.0816169)
(-2.39546e-05 -1.42124e-05 0.0963315)
(3.15942e-06 3.15344e-06 0.0836321)
(-5.1297e-06 -3.57522e-06 0.0683939)
(-3.57153e-06 -5.14447e-06 0.0683875)
(4.06825e-06 2.65432e-06 0.0683376)
(2.66501e-06 4.06203e-06 0.0683314)
(-7.21358e-06 -7.22371e-06 0.0836787)
(5.04416e-07 -7.44418e-06 0.07694)
(-1.99602e-07 3.86889e-06 0.0786706)
(-5.8062e-07 5.52448e-06 0.089908)
(-3.067e-07 -1.65887e-05 0.0914348)
(-7.44132e-07 4.25987e-06 0.0768933)
(1.23441e-07 -7.42878e-06 0.0787109)
(-1.16184e-06 -1.59819e-05 0.0899576)
(-9.56802e-07 4.92961e-06 0.0684279)
(5.84426e-07 7.20686e-06 0.0822514)
(-1.4148e-06 -1.22543e-05 0.0859019)
(1.23076e-07 -6.05748e-06 0.0684887)
(-8.09053e-07 5.89787e-06 0.0858459)
(1.3394e-07 -6.06544e-06 0.0684813)
(-8.01429e-07 5.88761e-06 0.0858374)
(-1.22354e-06 -1.20341e-05 0.0822942)
(-9.43398e-07 4.92688e-06 0.0684205)
(-1.40867e-06 -1.22722e-05 0.0858935)
(-7.50885e-07 4.26113e-06 0.0769016)
(-2.66188e-07 5.00679e-06 0.0913991)
(1.23295e-07 -7.42108e-06 0.0787193)
(-1.1641e-06 -1.59684e-05 0.0899656)
(4.99818e-07 -7.42785e-06 0.0769482)
(-1.99034e-07 3.86553e-06 0.078679)
(-5.84807e-07 5.52463e-06 0.0899161)
(-5.32488e-07 -7.43489e-06 0.0769398)
(1.79113e-07 3.8656e-06 0.0786707)
(5.54589e-07 5.52331e-06 0.0899086)
(2.81842e-07 -1.65924e-05 0.0914349)
(7.19269e-07 4.25078e-06 0.0768933)
(-1.46435e-07 -7.43152e-06 0.078711)
(1.13114e-06 -1.59868e-05 0.0899576)
(9.43622e-07 4.92003e-06 0.0684308)
(-5.71806e-07 7.16994e-06 0.0822512)
(1.35794e-06 -1.22685e-05 0.0859027)
(8.08374e-07 5.8926e-06 0.0858473)
(-1.61009e-07 -6.06186e-06 0.0684911)
(-1.73294e-07 -6.06862e-06 0.0684837)
(8.02313e-07 5.88073e-06 0.0858388)
(1.16916e-06 -1.20243e-05 0.0822955)
(9.30197e-07 4.92091e-06 0.0684233)
(1.35533e-06 -1.22842e-05 0.0858943)
(7.28655e-07 4.25283e-06 0.0769016)
(2.40933e-07 5.0068e-06 0.0913992)
(-1.46178e-07 -7.42413e-06 0.0787194)
(1.13318e-06 -1.59743e-05 0.0899656)
(1.81339e-07 3.86715e-06 0.0786791)
(5.59511e-07 5.52332e-06 0.0899167)
(-5.24732e-07 -7.4305e-06 0.076948)
(-2.50014e-06 4.30781e-06 0.0715635)
(3.30149e-06 -5.82322e-06 0.0716134)
(-3.853e-06 7.85333e-06 0.0916872)
(1.4199e-05 -2.39301e-05 0.0963378)
(-3.46764e-06 3.58998e-06 0.0875722)
(4.05322e-06 -8.04457e-06 0.0816248)
(-5.57032e-06 1.10391e-05 0.0962887)
(-3.05048e-06 3.88343e-06 0.0815732)
(1.02677e-05 -1.67251e-05 0.091735)
(-7.8546e-06 3.80576e-06 0.0916937)
(2.39197e-05 -1.42263e-05 0.0963409)
(-3.62607e-06 3.44513e-06 0.0875745)
(8.0194e-06 -4.05366e-06 0.0816306)
(-3.91481e-06 2.98504e-06 0.0815784)
(-1.10321e-05 5.51426e-06 0.0962915)
(1.6702e-05 -1.02678e-05 0.0917421)
(-5.56027e-06 1.10435e-05 0.0962827)
(6.91797e-06 -9.84437e-06 0.0876152)
(1.42144e-05 -2.39353e-05 0.0963319)
(-3.14815e-06 3.14135e-06 0.0836323)
(5.11975e-06 -3.57642e-06 0.0683884)
(3.54799e-06 -5.14906e-06 0.0683938)
(-4.08059e-06 2.64245e-06 0.0683322)
(-2.65859e-06 4.05819e-06 0.0683375)
(7.19943e-06 -7.22665e-06 0.0836792)
(-4.35328e-06 2.53485e-06 0.0715655)
(-7.46339e-06 5.32791e-07 0.0769404)
(5.53315e-06 -5.47217e-07 0.0899083)
(3.87662e-06 -1.80646e-07 0.0786707)
(-1.65933e-05 -2.75063e-07 0.091435)
(4.26881e-06 -7.11197e-07 0.0768937)
(-1.59874e-05 -1.13022e-06 0.0899579)
(-7.43601e-06 1.54057e-07 0.0787111)
(4.9244e-06 -9.21486e-07 0.0684287)
(7.18851e-06 6.1151e-07 0.0822523)
(-1.2266e-05 -1.39127e-06 0.0859024)
(-6.06427e-06 1.47612e-07 0.0684894)
(5.8887e-06 -7.73141e-07 0.0858464)
(-6.0716e-06 1.59497e-07 0.068482)
(5.87608e-06 -7.64429e-07 0.0858379)
(-1.20364e-05 -1.21277e-06 0.0822949)
(4.92096e-06 -9.03137e-07 0.0684212)
(-1.22834e-05 -1.38301e-06 0.085894)
(4.26432e-06 -7.21497e-07 0.076902)
(5.01907e-06 -2.45688e-07 0.0913991)
(-1.5974e-05 -1.13492e-06 0.0899659)
(-7.42632e-06 1.49683e-07 0.0787195)
(-7.43375e-06 5.282e-07 0.0769487)
(5.53817e-06 -5.5318e-07 0.0899164)
(3.86879e-06 -1.80124e-07 0.0786792)
(-7.43774e-06 -4.92983e-07 0.0769398)
(3.87546e-06 1.90763e-07 0.0786706)
(5.52051e-06 5.59579e-07 0.0899084)
(-1.65894e-05 3.14818e-07 0.0914349)
(4.25241e-06 7.27759e-07 0.0768932)
(-7.43341e-06 -1.13128e-07 0.078711)
(-1.5975e-05 1.172e-06 0.0899574)
(4.91683e-06 9.3982e-07 0.0684306)
(7.19208e-06 -6.0674e-07 0.0822522)
(-1.22405e-05 1.42765e-06 0.0859025)
(5.8819e-06 7.91348e-07 0.0858471)
(-6.04719e-06 -1.0353e-07 0.0684911)
(-6.05361e-06 -1.19508e-07 0.0684836)
(5.86937e-06 7.85258e-07 0.0858387)
(-1.20096e-05 1.24052e-06 0.0822945)
(4.9129e-06 9.27982e-07 0.0684231)
(-1.22571e-05 1.42079e-06 0.085894)
(4.25146e-06 7.35374e-07 0.0769014)
(5.02093e-06 2.55104e-07 0.0913991)
(-7.42515e-06 -1.18533e-07 0.0787194)
(-1.59599e-05 1.17413e-06 0.0899655)
(3.87165e-06 1.91427e-07 0.0786791)
(5.52559e-06 5.64428e-07 0.0899164)
(-7.42855e-06 -4.86885e-07 0.0769481)
(-4.86609e-06 -9.5662e-07 0.0684261)
(-7.1807e-06 6.33803e-07 0.0822522)
(1.22178e-05 -1.40864e-06 0.0859039)
(-5.85248e-06 -7.72174e-07 0.0858455)
(6.01148e-06 1.70914e-07 0.0684917)
(-4.18904e-06 -7.57827e-07 0.0768988)
(-4.96991e-06 -2.9909e-07 0.0913988)
(1.58947e-05 -1.11676e-06 0.0899675)
(7.38195e-06 1.87996e-07 0.0787204)
(-5.45862e-06 -5.8239e-07 0.0899153)
(-3.82855e-06 -2.33551e-07 0.0786775)
(7.35266e-06 5.52021e-07 0.0769508)
(-4.91959e-06 9.30533e-07 0.068431)
(-7.19655e-06 -6.04779e-07 0.0822523)
(1.22527e-05 1.40837e-06 0.0859032)
(-5.88824e-06 7.83154e-07 0.0858472)
(6.05591e-06 -1.29198e-07 0.0684917)
(-4.26897e-06 7.20774e-07 0.0769015)
(-4.99953e-06 2.2072e-07 0.0913992)
(7.4156e-06 -9.84837e-08 0.0787195)
(1.59546e-05 1.16612e-06 0.089966)
(-3.87298e-06 1.63441e-07 0.0786789)
(-5.51679e-06 5.55176e-07 0.0899165)
(7.42721e-06 -4.96048e-07 0.0769481)
(4.34823e-06 -2.53946e-06 0.0715657)
(-5.83811e-06 3.37675e-06 0.0716111)
(-7.22947e-06 7.21351e-06 0.0836714)
(2.64971e-06 -4.05868e-06 0.0683262)
(4.06619e-06 -2.64672e-06 0.0683316)
(3.14164e-06 -3.12757e-06 0.0836252)
(-3.58572e-06 5.12168e-06 0.0683817)
(-5.13678e-06 3.57268e-06 0.0683874)
(7.85333e-06 -3.8088e-06 0.0916871)
(-2.39302e-05 1.41926e-05 0.0963363)
(3.6107e-06 -3.44925e-06 0.0875728)
(-8.02503e-06 4.02397e-06 0.0816239)
(1.10676e-05 -5.52235e-06 0.0962886)
(3.89047e-06 -2.99116e-06 0.0815734)
(-1.67148e-05 1.0244e-05 0.0917341)
(3.81222e-06 -7.83976e-06 0.0916938)
(-1.42192e-05 2.39221e-05 0.09634)
(3.42966e-06 -3.6056e-06 0.0875743)
(-4.02676e-06 8.00464e-06 0.0816302)
(2.98388e-06 -3.87414e-06 0.0815785)
(5.52284e-06 -1.10274e-05 0.0962912)
(-1.02667e-05 1.67183e-05 0.0917412)
(-1.67387e-05 1.02556e-05 0.0917271)
(3.88054e-06 -2.99729e-06 0.0815657)
(1.10609e-05 -5.52829e-06 0.0962825)
(-9.8452e-06 6.93902e-06 0.087613)
(-2.39559e-05 1.42053e-05 0.0963304)
(7.84171e-06 -3.80392e-06 0.09168)
(-8.04e-06 4.02038e-06 0.0816162)
(-1.02771e-05 1.6742e-05 0.0917342)
(2.99371e-06 -3.86749e-06 0.0815708)
(5.52902e-06 -1.10217e-05 0.0962853)
(-6.92775e-06 9.85268e-06 0.0876158)
(3.80963e-06 -7.82743e-06 0.0916868)
(-4.03031e-06 8.02846e-06 0.0816224)
(-1.4224e-05 2.3947e-05 0.0963341)
(3.14656e-06 -3.13468e-06 0.0836327)
(-3.57799e-06 5.11802e-06 0.0683883)
(-5.13176e-06 3.56398e-06 0.0683941)
(2.65196e-06 -4.05778e-06 0.0683329)
(4.06257e-06 -2.65035e-06 0.0683383)
(-7.21877e-06 7.20216e-06 0.0836788)
(2.52887e-06 -4.36354e-06 0.0715655)
(-3.35903e-06 5.86699e-06 0.0716115)
(4.8613e-07 7.42176e-06 0.0769402)
(-5.17292e-07 -5.51496e-06 0.0899085)
(-1.57821e-07 -3.83126e-06 0.0786689)
(-3.3919e-07 1.65425e-05 0.0914354)
(-6.83988e-07 -4.26736e-06 0.0768934)
(-1.18301e-06 1.59657e-05 0.0899575)
(9.45948e-08 7.38477e-06 0.0787118)
(-9.16243e-07 -4.91018e-06 0.0684296)
(5.96457e-07 -7.18714e-06 0.0822525)
(-1.40277e-06 1.2248e-05 0.0859021)
(-7.80722e-07 -5.87557e-06 0.0858471)
(1.27045e-07 6.04511e-06 0.0684898)
(1.41735e-07 6.0552e-06 0.0684824)
(-7.73453e-07 -5.86527e-06 0.0858386)
(-1.21424e-06 1.20359e-05 0.0822949)
(-9.00529e-07 -4.90805e-06 0.0684222)
(-1.39894e-06 1.2267e-05 0.0858937)
(-6.94868e-07 -4.23969e-06 0.0769017)
(-2.04457e-07 -4.98056e-06 0.0913985)
(-1.1853e-06 1.59491e-05 0.0899656)
(9.92401e-08 7.38087e-06 0.0787202)
(-5.21095e-07 -5.51544e-06 0.0899166)
(-1.54455e-07 -3.83439e-06 0.0786773)
(4.78546e-07 7.43126e-06 0.0769485)
(-5.11968e-07 7.40623e-06 0.0769409)
(5.16605e-07 -5.49862e-06 0.0899077)
(1.97692e-07 -3.79953e-06 0.0786677)
(2.80637e-07 1.65197e-05 0.0914361)
(6.97839e-07 -4.23729e-06 0.0768913)
(1.17026e-06 1.59421e-05 0.0899587)
(-1.50844e-07 7.35568e-06 0.0787125)
(8.99385e-07 -4.92029e-06 0.0684307)
(-6.1734e-07 -7.18054e-06 0.0822528)
(1.42361e-06 1.2256e-05 0.0859036)
(7.48082e-07 -5.87592e-06 0.0858474)
(-1.24262e-07 6.05827e-06 0.0684919)
(-1.35827e-07 6.06706e-06 0.0684845)
(7.41285e-07 -5.86596e-06 0.085839)
(1.23574e-06 1.20302e-05 0.0822955)
(8.83389e-07 -4.91788e-06 0.0684233)
(1.41792e-06 1.22721e-05 0.0858952)
(7.0907e-07 -4.2149e-06 0.0768996)
(2.60276e-07 -4.95875e-06 0.0913981)
(1.17373e-06 1.59299e-05 0.0899668)
(-1.51074e-07 7.35056e-06 0.0787209)
(5.2238e-07 -5.50211e-06 0.0899158)
(1.96329e-07 -3.80252e-06 0.0786761)
(-5.06584e-07 7.3946e-06 0.0769492)
(7.21846e-06 7.22775e-06 0.083671)
(3.56869e-06 5.14328e-06 0.0683875)
(5.13783e-06 3.56541e-06 0.0683812)
(-7.83373e-06 -3.81172e-06 0.0916937)
(2.39338e-05 1.4192e-05 0.09634)
(-3.62007e-06 -3.45493e-06 0.0875741)
(8.0145e-06 4.03297e-06 0.0816299)
(1.67122e-05 1.02518e-05 0.0917412)
(-1.10349e-05 -5.53037e-06 0.0962912)
(-3.87447e-06 -2.99856e-06 0.081578)
(-3.83048e-06 -7.85245e-06 0.0916874)
(1.42301e-05 2.39229e-05 0.0963375)
(-3.45441e-06 -3.61973e-06 0.0875731)
(4.05385e-06 8.02717e-06 0.0816244)
(1.02779e-05 1.67199e-05 0.0917345)
(-5.53294e-06 -1.10402e-05 0.0962887)
(-3.00339e-06 -3.90291e-06 0.0815736)
(1.67289e-05 1.02649e-05 0.0917342)
(9.86955e-06 6.94625e-06 0.0876157)
(2.3953e-05 1.41954e-05 0.0963341)
(8.0362e-06 4.03157e-06 0.0816222)
(1.02835e-05 1.67401e-05 0.0917275)
(-5.53273e-06 -1.10298e-05 0.0962828)
(6.96113e-06 9.85494e-06 0.0876141)
(1.42431e-05 2.39369e-05 0.0963315)
(4.05369e-06 8.03896e-06 0.0816166)
(-3.13438e-06 -3.15046e-06 0.0836329)
(3.5602e-06 5.13782e-06 0.0683941)
(5.13614e-06 3.55747e-06 0.0683878)
(7.21329e-06 7.21217e-06 0.0836784)
(-2.63517e-06 -4.07769e-06 0.0683385)
(-4.06116e-06 -2.65312e-06 0.0683325)
(-4.36651e-06 -2.5311e-06 0.0715657)
(5.85947e-06 3.36587e-06 0.0716119)
(-2.54873e-06 -4.3507e-06 0.0715659)
(3.3837e-06 5.84864e-06 0.0716118)
(-3.3776e-06 -5.84656e-06 0.0716263)
(2.48904e-06 4.39462e-06 0.0715798)
(-5.83336e-06 -3.38302e-06 0.071626)
(4.36764e-06 2.51721e-06 0.07158)
(3.16992e-06 3.16361e-06 0.083647)
(-5.12427e-06 -3.55994e-06 0.0684071)
(-3.55496e-06 -5.14013e-06 0.0684007)
(4.06298e-06 2.65909e-06 0.0683509)
(2.67061e-06 4.05599e-06 0.0683447)
(-7.19096e-06 -7.20211e-06 0.0836936)
(-1.02263e-05 -1.66663e-05 0.0917484)
(5.52118e-06 1.10558e-05 0.0962969)
(2.96193e-06 3.87371e-06 0.0815854)
(-6.92806e-06 -9.80401e-06 0.0876319)
(3.81367e-06 7.84973e-06 0.0917001)