/*--------------------------------*- C++ -*----------------------------------*\
| =========                 |                                                 |
| \\      /  F ield         | OpenFOAM: The Open Source CFD Toolbox           |
|  \\    /   O peration     | Version:  2312                                  |
|   \\  /    A nd           | Website:  www.openfoam.com                      |
|    \\/     M anipulation  |                                                 |
\*---------------------------------------------------------------------------*/
FoamFile
{
    version     2.0;
    format      ascii;
    arch        "LSB;label=32;scalar=64";
    class       volScalarField;
    location    "700";
    object      k;
}
// * * * * * * * * * * * * * * * * * * * * * * * * * * * * * * * * * * * * * //

dimensions      [0 2 -2 0 0 0 0];

internalField   nonuniform List<scalar> 
43496
(
6.85736e-05
7.11959e-05
5.1417e-05
6.4797e-05
6.06272e-05
4.67109e-05
6.85734e-05
7.34411e-05
6.06279e-05
5.14123e-05
4.67115e-05
6.47931e-05
5.35258e-05
6.99414e-05
6.99383e-05
7.11945e-05
7.34437e-05
7.18504e-05
6.85649e-05
7.15995e-05
7.16289e-05
7.15916e-05
7.162e-05
7.1861e-05
7.16831e-05
7.97877e-05
7.97801e-05
7.16974e-05
7.1184e-05
7.18476e-05
6.85619e-05
7.16285e-05
7.15962e-05
7.16195e-05
7.15845e-05
7.18609e-05
7.16814e-05
7.97687e-05
7.34299e-05
7.97607e-05
7.16957e-05
9.49814e-05
7.34965e-05
7.35026e-05
7.3483e-05
7.34892e-05
9.49834e-05
7.41999e-05
7.32792e-05
6.99369e-05
6.52495e-05
7.32706e-05
6.52365e-05
7.42032e-05
7.41517e-05
7.32727e-05
6.99341e-05
6.52447e-05
6.52322e-05
7.32606e-05
7.41555e-05
7.11826e-05
7.34348e-05
3.19046e-05
3.89087e-05
3.19097e-05
6.47858e-05
6.03791e-05
6.03744e-05
5.6299e-05
6.06134e-05
6.23209e-05
5.50097e-05
6.23087e-05
5.50258e-05
5.62869e-05
5.73951e-05
6.42054e-05
6.41952e-05
5.738e-05
5.62937e-05
6.06095e-05
5.50185e-05
6.23197e-05
5.50156e-05
6.23014e-05
5.62888e-05
5.73834e-05
6.41992e-05
6.4782e-05
6.03747e-05
6.41862e-05
5.73854e-05
6.03698e-05
6.5928e-05
5.35461e-05
5.94743e-05
5.94768e-05
5.94803e-05
5.94777e-05
6.59319e-05
3.83874e-05
5.11108e-05
5.11136e-05
5.33004e-05
3.88051e-05
5.13566e-05
5.13594e-05
5.34958e-05
5.33021e-05
5.3433e-05
5.11106e-05
5.11056e-05
5.12968e-05
5.12925e-05
5.32894e-05
5.34333e-05
5.1108e-05
5.11089e-05
5.12943e-05
5.12951e-05
5.11103e-05
5.12964e-05
5.12948e-05
5.33031e-05
5.34352e-05
5.11073e-05
5.12998e-05
5.12943e-05
5.34324e-05
5.3498e-05
5.13563e-05
5.13507e-05
5.34914e-05
5.13539e-05
5.13547e-05
5.13573e-05
5.34969e-05
5.13532e-05
6.85156e-05
7.33583e-05
7.33849e-05
6.8487e-05
7.11139e-05
7.11401e-05
6.85136e-05
7.33602e-05
7.33867e-05
6.84874e-05
3.83868e-05
3.83919e-05
3.83907e-05
3.87029e-05
3.87028e-05
3.87072e-05
3.87058e-05
6.05247e-05
6.46958e-05
4.63299e-05
5.11735e-05
6.4727e-05
4.641e-05
6.04761e-05
7.11154e-05
7.11414e-05
6.05246e-05
4.6333e-05
6.46962e-05
5.11769e-05
4.64127e-05
6.47275e-05
6.04758e-05
6.98619e-05
6.98696e-05
5.33346e-05
6.98799e-05
6.9889e-05
7.34181e-05
6.85501e-05
7.1169e-05
7.34196e-05
6.85503e-05
3.88045e-05
3.88095e-05
3.88084e-05
6.06272e-05
6.47684e-05
4.66398e-05
6.05871e-05
4.67131e-05
7.11705e-05
6.06299e-05
4.6643e-05
6.47688e-05
6.0586e-05
4.67157e-05
6.99171e-05
6.99249e-05
5.35216e-05
6.99342e-05
6.99428e-05
7.11127e-05
7.11388e-05
7.11157e-05
7.11418e-05
6.98652e-05
6.98733e-05
5.33358e-05
6.98842e-05
6.98922e-05
7.11662e-05
7.11404e-05
7.11693e-05
7.11435e-05
5.34004e-05
6.99111e-05
6.99197e-05
6.98935e-05
6.99016e-05
6.8514e-05
7.33562e-05
7.33806e-05
6.84853e-05
6.0525e-05
6.46942e-05
4.63287e-05
5.11739e-05
6.47249e-05
4.64085e-05
6.0476e-05
6.05232e-05
6.46903e-05
4.63262e-05
5.11693e-05
6.4721e-05
4.64064e-05
6.04743e-05
6.85193e-05
7.34145e-05
7.33885e-05
6.85469e-05
6.85175e-05
7.34102e-05
7.33862e-05
6.85449e-05
6.05328e-05
5.12362e-05
6.47606e-05
4.65635e-05
6.47315e-05
4.64871e-05
6.05789e-05
6.05311e-05
5.1231e-05
6.47567e-05
4.65615e-05
6.47275e-05
4.64846e-05
6.05772e-05
6.98659e-05
6.98667e-05
5.33364e-05
6.98835e-05
6.98861e-05
7.11141e-05
7.11403e-05
7.11675e-05
7.11417e-05
5.33968e-05
6.99108e-05
6.99135e-05
6.98942e-05
6.9895e-05
7.11677e-05
7.11419e-05
6.05221e-05
6.46965e-05
4.6328e-05
5.11713e-05
6.47271e-05
4.64077e-05
6.04771e-05
6.85132e-05
7.3356e-05
7.33825e-05
6.84846e-05
6.05225e-05
4.63287e-05
6.46924e-05
5.11722e-05
4.64084e-05
6.47235e-05
6.04738e-05
6.85195e-05
7.34161e-05
7.33903e-05
6.85446e-05
6.05337e-05
5.12337e-05
6.4763e-05
4.65627e-05
6.47339e-05
4.64865e-05
6.05761e-05
6.85167e-05
7.3412e-05
7.33861e-05
6.85441e-05
6.05304e-05
5.12346e-05
4.65633e-05
6.47594e-05
4.64872e-05
6.47296e-05
6.05765e-05
6.85124e-05
7.33599e-05
7.33844e-05
6.84861e-05
6.05238e-05
4.63307e-05
6.46915e-05
5.11726e-05
4.64099e-05
6.4722e-05
6.04757e-05
6.8513e-05
7.33557e-05
7.33821e-05
6.84867e-05
6.05327e-05
5.12365e-05
6.47626e-05
4.65649e-05
6.47331e-05
4.64883e-05
6.05783e-05
6.85182e-05
7.3414e-05
7.33899e-05
6.85432e-05
6.05333e-05
5.12365e-05
4.65647e-05
6.47578e-05
4.64891e-05
6.47287e-05
6.05761e-05
6.85189e-05
7.34117e-05
7.33857e-05
6.85438e-05
6.98689e-05
6.98657e-05
5.33368e-05
6.98868e-05
6.98847e-05
7.1114e-05
7.11401e-05
7.11688e-05
7.11431e-05
5.34015e-05
6.99143e-05
6.99121e-05
6.98971e-05
6.98941e-05
7.11675e-05
7.11418e-05
6.05217e-05
4.63301e-05
6.46937e-05
5.11713e-05
4.64095e-05
6.47248e-05
6.04732e-05
6.85128e-05
7.33608e-05
7.33853e-05
6.84847e-05
6.8509e-05
7.33574e-05
7.33838e-05
6.84811e-05
6.05326e-05
5.12393e-05
4.65675e-05
6.47632e-05
4.64914e-05
6.47334e-05
6.05786e-05
6.05299e-05
5.12329e-05
4.65644e-05
6.47606e-05
4.64885e-05
6.4731e-05
6.05757e-05
6.85168e-05
7.34149e-05
7.33908e-05
6.85437e-05
6.85134e-05
7.34134e-05
7.33874e-05
6.85399e-05
7.11138e-05
7.11398e-05
7.11164e-05
7.11426e-05
5.33988e-05
6.99073e-05
6.99164e-05
6.98902e-05
6.98979e-05
7.11673e-05
7.11415e-05
7.117e-05
7.11442e-05
7.11678e-05
7.11709e-05
6.99207e-05
6.99287e-05
7.34158e-05
6.85482e-05
6.47669e-05
4.66389e-05
6.05864e-05
6.4763e-05
4.66363e-05
6.05847e-05
6.99211e-05
6.99219e-05
7.11693e-05
6.47693e-05
4.66382e-05
6.05874e-05
7.34155e-05
6.85473e-05
4.66388e-05
6.4765e-05
6.05839e-05
6.85721e-05
7.34194e-05
6.85488e-05
6.06269e-05
4.66408e-05
6.47639e-05
5.14111e-05
6.05873e-05
4.67126e-05
6.47913e-05
6.85728e-05
7.34151e-05
6.85495e-05
7.34406e-05
6.99241e-05
6.99212e-05
7.11691e-05
6.06272e-05
4.66403e-05
6.47665e-05
5.1412e-05
6.05834e-05
4.67126e-05
6.47945e-05
6.85729e-05
7.34201e-05
6.85474e-05
6.85692e-05
7.34168e-05
6.8544e-05
7.34424e-05
7.11689e-05
7.11943e-05
7.11716e-05
7.1197e-05
7.17908e-05
7.15714e-05
7.15475e-05
6.85031e-05
7.1559e-05
7.15351e-05
7.18047e-05
7.16305e-05
7.33698e-05
7.97179e-05
7.97267e-05
7.16159e-05
7.16295e-05
7.97398e-05
7.33734e-05
7.97312e-05
7.1644e-05
7.179e-05
6.84996e-05
7.15444e-05
7.15206e-05
7.15566e-05
7.15329e-05
7.17759e-05
7.11262e-05
7.11278e-05
7.17932e-05
7.15443e-05
7.15703e-05
6.85037e-05
7.15354e-05
7.15609e-05
7.18027e-05
7.16307e-05
7.33718e-05
7.97161e-05
7.97246e-05
7.16162e-05
7.16297e-05
7.97376e-05
7.33753e-05
7.97294e-05
7.16443e-05
7.17881e-05
6.84977e-05
7.15206e-05
7.1546e-05
7.15298e-05
7.15555e-05
7.17785e-05
7.11275e-05
7.11293e-05
9.49254e-05
7.34531e-05
7.34465e-05
7.34395e-05
7.34328e-05
9.49283e-05
7.40737e-05
6.51186e-05
6.98657e-05
7.31901e-05
6.51325e-05
7.31995e-05
7.40688e-05
7.41214e-05
6.51264e-05
6.98748e-05
7.31982e-05
6.51411e-05
7.32107e-05
7.41166e-05
7.4086e-05
7.32139e-05
6.98762e-05
6.51557e-05
6.5142e-05
7.32046e-05
7.40908e-05
7.41339e-05
7.32251e-05
6.9884e-05
6.51642e-05
6.51498e-05
7.32128e-05
7.41384e-05
9.49136e-05
7.34267e-05
7.342e-05
7.34404e-05
7.34337e-05
9.49106e-05
7.1684e-05
7.97696e-05
7.34286e-05
7.16696e-05
7.97776e-05
7.1848e-05
6.85613e-05
7.16035e-05
7.15778e-05
7.18338e-05
7.16163e-05
7.15901e-05
7.11811e-05
7.16842e-05
7.97678e-05
7.3431e-05
7.16699e-05
7.97756e-05
7.18457e-05
6.85594e-05
7.15783e-05
7.16055e-05
7.18364e-05
7.15866e-05
7.16147e-05
7.11824e-05
9.4982e-05
7.35033e-05
7.34966e-05
7.34898e-05
7.34832e-05
9.49841e-05
7.41394e-05
6.52085e-05
7.32476e-05
6.99206e-05
7.41353e-05
6.52209e-05
7.32565e-05
7.41874e-05
6.52162e-05
7.32556e-05
6.99296e-05
7.41825e-05
6.52294e-05
7.32678e-05
9.49706e-05
7.34774e-05
7.34707e-05
9.49683e-05
7.34909e-05
7.34842e-05
7.41509e-05
7.32702e-05
6.99298e-05
6.52413e-05
6.52295e-05
7.32615e-05
7.41545e-05
7.41983e-05
7.3282e-05
6.9938e-05
6.52499e-05
6.52372e-05
7.32695e-05
7.4202e-05
7.11249e-05
7.11266e-05
7.1128e-05
7.11296e-05
9.49288e-05
7.34527e-05
7.34459e-05
7.3439e-05
7.34322e-05
9.49311e-05
7.4075e-05
6.51211e-05
6.987e-05
7.31893e-05
7.32019e-05
6.51334e-05
7.4071e-05
7.41218e-05
6.51278e-05
6.98781e-05
7.31986e-05
7.32113e-05
6.51416e-05
7.41164e-05
7.40882e-05
7.32163e-05
6.98795e-05
6.51565e-05
7.32039e-05
7.4092e-05
6.51445e-05
7.41337e-05
7.32257e-05
6.98876e-05
6.51647e-05
7.32132e-05
7.4139e-05
6.51512e-05
9.49165e-05
7.34262e-05
7.34195e-05
7.344e-05
7.34332e-05
9.4914e-05
7.11541e-05
7.11525e-05
7.11572e-05
7.11556e-05
9.49456e-05
7.34517e-05
7.34449e-05
9.49433e-05
7.34654e-05
7.34586e-05
7.41214e-05
6.52008e-05
6.99071e-05
7.32443e-05
7.32331e-05
6.51895e-05
7.4125e-05
7.41668e-05
6.52091e-05
6.99152e-05
7.3254e-05
7.32418e-05
6.51962e-05
7.41718e-05
7.41087e-05
7.32185e-05
6.51672e-05
6.98978e-05
7.4105e-05
7.32303e-05
6.51789e-05
7.41557e-05
7.32277e-05
6.51739e-05
6.99062e-05
7.41504e-05
7.324e-05
6.51871e-05
9.49576e-05
7.3478e-05
7.34712e-05
7.34644e-05
7.34576e-05
9.49598e-05
7.17899e-05
7.15711e-05
7.15421e-05
6.85014e-05
7.15587e-05
7.15296e-05
7.18037e-05
7.16298e-05
7.33657e-05
7.96995e-05
7.97083e-05
7.16153e-05
7.16288e-05
7.97214e-05
7.33712e-05
7.97128e-05
7.16433e-05
7.17891e-05
6.84979e-05
7.1544e-05
7.15151e-05
7.15562e-05
7.15275e-05
7.1775e-05
7.18191e-05
7.15742e-05
7.15499e-05
6.85314e-05
7.18054e-05
7.15864e-05
7.15619e-05
7.16563e-05
7.34031e-05
7.97653e-05
7.16707e-05
7.97571e-05
7.16574e-05
7.97442e-05
7.33997e-05
7.16429e-05
7.97526e-05
7.18199e-05
6.85348e-05
7.16012e-05
7.1576e-05
7.18334e-05
7.15891e-05
7.15643e-05
7.18182e-05
7.15738e-05
7.15444e-05
6.85298e-05
7.18045e-05
7.15861e-05
7.15567e-05
7.16557e-05
7.3401e-05
7.9747e-05
7.97386e-05
7.16701e-05
7.16568e-05
7.97258e-05
7.33957e-05
7.16423e-05
7.97344e-05
7.18189e-05
6.8533e-05
7.16008e-05
7.15706e-05
7.15885e-05
7.15587e-05
7.18326e-05
9.49275e-05
7.34468e-05
7.34529e-05
7.34331e-05
7.34392e-05
9.49301e-05
7.41217e-05
6.5125e-05
6.98693e-05
7.31987e-05
7.3208e-05
6.51378e-05
7.41172e-05
7.40759e-05
6.5122e-05
6.98718e-05
7.31903e-05
6.51355e-05
7.32029e-05
7.40702e-05
7.41344e-05
7.32225e-05
6.98802e-05
6.51608e-05
7.32132e-05
6.51483e-05
7.41386e-05
7.40874e-05
7.32173e-05
6.98811e-05
6.51586e-05
6.51453e-05
7.32049e-05
7.40928e-05
9.49154e-05
7.34203e-05
7.34264e-05
7.34341e-05
7.34402e-05
9.49127e-05
7.11264e-05
7.11281e-05
7.11554e-05
7.11539e-05
9.49445e-05
7.34458e-05
7.34519e-05
9.49421e-05
7.34595e-05
7.34656e-05
7.41676e-05
6.5205e-05
6.99078e-05
7.32511e-05
6.5193e-05
7.3242e-05
7.41715e-05
7.41205e-05
6.52027e-05
6.99086e-05
7.3246e-05
7.32335e-05
6.51901e-05
7.41258e-05
7.41553e-05
7.32278e-05
6.51708e-05
6.98974e-05
6.51832e-05
7.41511e-05
7.32371e-05
7.41095e-05
7.32194e-05
6.5168e-05
6.98997e-05
7.41043e-05
7.32316e-05
6.51809e-05
9.49564e-05
7.34721e-05
7.34782e-05
7.34584e-05
7.34645e-05
9.49587e-05
7.11556e-05
7.1154e-05
7.17897e-05
7.15698e-05
7.15407e-05
6.85007e-05
7.15603e-05
7.15283e-05
7.18035e-05
7.1629e-05
7.33676e-05
7.96966e-05
7.97052e-05
7.16145e-05
7.1628e-05
7.97184e-05
7.33711e-05
7.97098e-05
7.16425e-05
7.17889e-05
6.84971e-05
7.15454e-05
7.15138e-05
7.1555e-05
7.1526e-05
7.17749e-05
7.18171e-05
7.15499e-05
7.15757e-05
6.85294e-05
7.18077e-05
7.15589e-05
7.15854e-05
7.16566e-05
7.3405e-05
7.97631e-05
7.1671e-05
7.97554e-05
7.16577e-05
7.97424e-05
7.34015e-05
7.16432e-05
7.97505e-05
7.18222e-05
6.8535e-05
7.1573e-05
7.16002e-05
7.18317e-05
7.15641e-05
7.15906e-05
7.18179e-05
7.15752e-05
7.15431e-05
6.85289e-05
7.18043e-05
7.15849e-05
7.15552e-05
7.16549e-05
7.34008e-05
7.9744e-05
7.97358e-05
7.16693e-05
7.16559e-05
7.97229e-05
7.33973e-05
7.16415e-05
7.97313e-05
7.18188e-05
6.85322e-05
7.15995e-05
7.15692e-05
7.15901e-05
7.15573e-05
7.18321e-05
7.17915e-05
7.15406e-05
7.15695e-05
6.85024e-05
7.15316e-05
7.15601e-05
7.18011e-05
7.16296e-05
7.33695e-05
7.97136e-05
7.97171e-05
7.16145e-05
7.16281e-05
7.97303e-05
7.33749e-05
7.97269e-05
7.16431e-05
7.17867e-05
6.84964e-05
7.15167e-05
7.15452e-05
7.1526e-05
7.15547e-05
7.17769e-05
7.1792e-05
7.15697e-05
7.154e-05
6.85031e-05
7.15603e-05
7.1531e-05
7.18014e-05
7.16294e-05
7.33672e-05
7.96963e-05
7.97046e-05
7.16149e-05
7.16284e-05
7.97177e-05
7.33708e-05
7.97095e-05
7.16429e-05
7.17869e-05
6.84971e-05
7.15454e-05
7.1516e-05
7.15549e-05
7.15256e-05
7.17774e-05
7.18155e-05
7.15461e-05
7.15749e-05
6.85281e-05
7.1806e-05
7.1555e-05
7.15845e-05
7.16549e-05
7.34047e-05
7.97558e-05
7.97527e-05
7.16699e-05
7.16565e-05
7.97399e-05
7.33994e-05
7.16415e-05
7.97431e-05
7.18206e-05
6.85337e-05
7.1569e-05
7.15991e-05
7.15604e-05
7.15898e-05
7.183e-05
7.18158e-05
7.15751e-05
7.15455e-05
6.85288e-05
7.18064e-05
7.15847e-05
7.15546e-05
7.16552e-05
7.34004e-05
7.97431e-05
7.97353e-05
7.16696e-05
7.16563e-05
7.97225e-05
7.33969e-05
7.16419e-05
7.97305e-05
7.18209e-05
6.85344e-05
7.15993e-05
7.15684e-05
7.159e-05
7.15598e-05
7.18303e-05
9.49246e-05
7.34463e-05
7.34524e-05
7.34326e-05
7.34388e-05
9.49272e-05
7.41221e-05
6.51257e-05
6.98727e-05
7.31991e-05
7.32085e-05
6.51405e-05
7.4118e-05
7.40755e-05
6.51215e-05
6.98706e-05
7.31895e-05
6.51357e-05
7.3202e-05
7.40695e-05
7.41352e-05
7.32229e-05
6.98832e-05
6.51636e-05
7.32136e-05
6.51491e-05
7.41393e-05
7.40868e-05
7.32164e-05
6.98801e-05
6.51589e-05
6.51448e-05
7.32041e-05
7.40923e-05
9.49126e-05
7.34198e-05
7.3426e-05
7.34335e-05
7.34397e-05
9.49098e-05
7.11262e-05
7.11279e-05
7.11569e-05
7.11552e-05
9.49417e-05
7.34454e-05
7.34515e-05
9.49392e-05
7.3459e-05
7.34651e-05
7.41684e-05
6.52079e-05
6.99108e-05
7.32515e-05
6.5194e-05
7.32425e-05
7.41721e-05
7.412e-05
6.52032e-05
6.99077e-05
7.32448e-05
7.32326e-05
6.51896e-05
7.41252e-05
7.41558e-05
7.32282e-05
6.51719e-05
6.99009e-05
6.5186e-05
7.41521e-05
7.32375e-05
7.41091e-05
7.32186e-05
6.51675e-05
6.98985e-05
7.41037e-05
7.32307e-05
6.51812e-05
9.49535e-05
7.34716e-05
7.34777e-05
7.3458e-05
7.34641e-05
9.49559e-05
7.11555e-05
7.11538e-05
7.17909e-05
7.15466e-05
7.15708e-05
6.85008e-05
7.15343e-05
7.15581e-05
7.18047e-05
7.16309e-05
7.33704e-05
7.97146e-05
7.97233e-05
7.16164e-05
7.163e-05
7.97364e-05
7.33758e-05
7.97278e-05
7.16444e-05
7.17901e-05
6.84968e-05
7.15197e-05
7.15435e-05
7.1532e-05
7.15559e-05
7.1776e-05
7.17911e-05
7.1538e-05
7.15698e-05
6.84974e-05
7.15263e-05
7.1557e-05
7.18006e-05
7.163e-05
7.33689e-05
7.96977e-05
7.97062e-05
7.16154e-05
7.1629e-05
7.97193e-05
7.33725e-05
7.9711e-05
7.16435e-05
7.17862e-05
6.84929e-05
7.15116e-05
7.15424e-05
7.15233e-05
7.15549e-05
7.17765e-05
7.18191e-05
7.1549e-05
7.15732e-05
6.85285e-05
7.18054e-05
7.15611e-05
7.15858e-05
7.16568e-05
7.34057e-05
7.97619e-05
7.97537e-05
7.16712e-05
7.16578e-05
7.97408e-05
7.34004e-05
7.16434e-05
7.97492e-05
7.182e-05
6.85323e-05
7.15751e-05
7.16004e-05
7.15632e-05
7.1588e-05
7.18333e-05
7.18151e-05
7.1541e-05
7.15721e-05
6.85247e-05
7.18055e-05
7.15525e-05
7.15848e-05
7.16558e-05
7.34021e-05
7.97449e-05
7.97369e-05
7.16703e-05
7.1657e-05
7.9724e-05
7.33986e-05
7.16425e-05
7.97322e-05
7.18201e-05
6.85289e-05
7.15665e-05
7.15995e-05
7.15553e-05
7.15869e-05
7.18295e-05
7.1126e-05
7.11277e-05
7.11287e-05
7.11304e-05
9.49427e-05
7.34522e-05
7.34455e-05
9.49399e-05
7.34658e-05
7.34591e-05
7.41192e-05
6.51997e-05
6.99037e-05
7.32425e-05
7.41237e-05
6.51869e-05
7.32334e-05
7.41668e-05
6.52084e-05
6.99115e-05
7.32537e-05
7.41717e-05
6.51947e-05
7.32414e-05
7.41075e-05
7.32192e-05
6.51647e-05
6.98939e-05
7.41028e-05
6.5178e-05
7.32285e-05
7.41554e-05
7.32274e-05
6.51725e-05
6.99026e-05
7.41506e-05
6.51865e-05
7.32394e-05
9.49542e-05
7.34784e-05
7.34717e-05
9.49568e-05
7.34648e-05
7.34582e-05
7.11552e-05
7.11536e-05
7.11579e-05
7.11563e-05
7.11797e-05
7.11828e-05
7.41408e-05
6.52111e-05
7.32484e-05
6.99244e-05
7.41374e-05
7.32572e-05
6.52219e-05
7.41869e-05
6.52177e-05
7.32564e-05
6.99326e-05
7.41829e-05
7.32677e-05
6.52301e-05
9.49736e-05
7.34769e-05
7.34701e-05
9.49718e-05
7.34905e-05
7.34837e-05
7.16833e-05
7.97516e-05
7.34245e-05
7.1669e-05
7.9759e-05
7.18471e-05
6.85594e-05
7.16034e-05
7.15727e-05
7.16151e-05
7.18331e-05
7.1584e-05
7.41883e-05
6.52144e-05
7.32562e-05
6.99238e-05
7.32649e-05
7.41831e-05
6.52262e-05
7.41419e-05
6.52116e-05
7.32476e-05
6.99269e-05
6.52241e-05
7.41364e-05
7.32603e-05
9.49727e-05
7.3471e-05
7.3477e-05
7.34846e-05
9.49704e-05
7.34907e-05
7.16825e-05
7.97484e-05
7.34265e-05
7.16682e-05
7.97564e-05
7.18466e-05
6.85588e-05
7.16048e-05
7.15713e-05
7.16143e-05
7.18333e-05
7.15828e-05
7.18483e-05
6.85635e-05
7.1628e-05
7.15879e-05
7.16192e-05
7.16831e-05
7.97652e-05
7.34283e-05
7.97681e-05
7.16682e-05
7.18456e-05
6.8558e-05
7.15742e-05
7.16045e-05
7.15825e-05
7.18347e-05
7.16139e-05
7.16814e-05
7.18495e-05
6.85642e-05
7.16283e-05
7.15951e-05
7.16194e-05
7.15872e-05
7.18585e-05
7.16828e-05
7.97478e-05
7.34262e-05
7.16685e-05
7.97554e-05
7.18446e-05
6.85588e-05
7.16047e-05
7.15737e-05
7.18351e-05
7.16141e-05
7.15823e-05
7.16817e-05
7.97675e-05
7.34295e-05
7.97601e-05
7.1696e-05
7.41879e-05
6.52156e-05
7.32565e-05
6.99279e-05
7.32657e-05
7.41844e-05
6.5229e-05
7.41409e-05
6.52111e-05
7.3247e-05
6.99253e-05
6.52242e-05
7.41361e-05
7.32588e-05
9.49698e-05
7.34706e-05
7.34767e-05
7.34841e-05
9.49676e-05
7.34902e-05
7.1181e-05
7.18487e-05
6.8562e-05
7.1602e-05
7.16297e-05
7.15903e-05
7.16171e-05
7.18621e-05
7.16844e-05
7.97661e-05
7.34295e-05
7.97742e-05
7.16701e-05
7.18478e-05
6.85584e-05
7.15771e-05
7.16028e-05
7.15886e-05
7.18344e-05
7.1615e-05
7.16833e-05
7.97863e-05
7.97785e-05
7.16975e-05
7.18485e-05
6.85586e-05
7.15935e-05
7.16287e-05
7.15825e-05
7.16159e-05
7.1858e-05
7.16835e-05
7.97494e-05
7.34279e-05
7.16691e-05
7.97572e-05
7.18439e-05
6.85546e-05
7.15692e-05
7.16017e-05
7.18341e-05
7.15801e-05
7.1614e-05
7.16823e-05
7.97693e-05
7.34313e-05
7.97618e-05
7.16967e-05
7.11808e-05
7.11824e-05
7.11836e-05
7.11851e-05
3.12713e-05
3.1269e-05
3.84942e-05
3.14018e-05
3.13991e-05
2.2264e-05
2.21126e-05
6.58132e-05
5.93047e-05
5.93073e-05
5.32846e-05
5.93045e-05
5.93068e-05
6.58069e-05
3.17839e-05
3.17814e-05
2.28618e-05
2.2714e-05
6.59087e-05
5.94452e-05
5.94449e-05
5.3479e-05
6.59039e-05
5.94433e-05
5.94428e-05
6.58145e-05
5.93068e-05
5.9309e-05
5.32862e-05
5.93065e-05
5.93086e-05
6.58087e-05
6.58824e-05
5.34503e-05
5.94126e-05
5.9412e-05
5.94126e-05
5.94126e-05
6.58874e-05
6.5814e-05
5.93023e-05
5.93053e-05
5.32893e-05
5.93063e-05
5.93031e-05
6.58083e-05
6.58821e-05
5.3448e-05
5.94087e-05
5.94119e-05
5.94097e-05
5.94131e-05
6.58869e-05
6.5814e-05
5.93059e-05
5.93084e-05
5.32872e-05
5.93084e-05
5.93054e-05
6.58085e-05
6.58822e-05
5.34518e-05
5.94117e-05
5.94128e-05
5.94121e-05
5.94134e-05
6.5887e-05
6.58806e-05
5.34491e-05
5.94085e-05
5.94101e-05
6.58859e-05
5.941e-05
5.94111e-05
6.59105e-05
5.94459e-05
5.94467e-05
5.34778e-05
6.59056e-05
5.94433e-05
5.94436e-05
6.59118e-05
5.94431e-05
5.94453e-05
5.34869e-05
5.94493e-05
6.59046e-05
5.94461e-05
6.591e-05
5.94441e-05
5.94467e-05
5.34814e-05
5.94465e-05
6.59054e-05
5.94441e-05
3.12706e-05
3.12704e-05
3.8494e-05
3.14014e-05
3.14002e-05
2.22644e-05
2.21131e-05
3.12746e-05
3.12744e-05
3.84985e-05
3.14047e-05
3.14049e-05
2.22679e-05
2.21166e-05
3.1276e-05
3.12728e-05
3.84971e-05
3.14051e-05
3.14045e-05
2.22684e-05
2.21167e-05
3.85997e-05
3.16581e-05
3.16554e-05
3.1531e-05
3.15288e-05
2.2415e-05
2.25647e-05
3.85991e-05
3.16577e-05
3.16564e-05
3.15303e-05
3.15303e-05
2.24154e-05
2.25651e-05
3.86043e-05
3.16608e-05
3.16611e-05
3.15344e-05
3.1534e-05
2.2419e-05
2.25686e-05
3.8603e-05
3.16611e-05
3.1661e-05
3.15359e-05
3.15322e-05
2.2419e-05
2.25692e-05
5.61418e-05
6.22271e-05
5.48526e-05
6.05047e-05
6.22082e-05
5.4848e-05
5.61366e-05
5.72169e-05
6.02274e-05
6.47085e-05
6.4086e-05
6.02364e-05
6.41002e-05
5.72132e-05
5.72498e-05
6.41225e-05
6.47147e-05
6.02665e-05
6.02582e-05
6.41087e-05
5.7253e-05
5.60946e-05
6.04964e-05
6.21825e-05
5.48016e-05
6.22014e-05
5.48066e-05
5.60997e-05
5.61434e-05
5.4853e-05
6.22296e-05
6.05045e-05
5.48484e-05
6.22101e-05
5.61383e-05
5.72187e-05
6.02281e-05
6.47089e-05
6.4088e-05
6.02371e-05
6.41026e-05
5.7215e-05
5.72516e-05
6.41249e-05
6.4715e-05
6.02673e-05
6.02589e-05
6.41104e-05
5.72548e-05
5.60962e-05
6.04962e-05
5.48019e-05
6.21845e-05
5.48069e-05
6.2204e-05
5.61013e-05
6.58322e-05
5.33502e-05
5.93406e-05
5.93415e-05
5.93409e-05
5.93414e-05
6.58381e-05
3.17832e-05
3.17832e-05
3.19056e-05
2.28623e-05
2.27144e-05
3.17871e-05
3.17868e-05
3.19106e-05
2.28658e-05
2.27179e-05
3.17889e-05
3.17847e-05
3.89083e-05
3.19099e-05
3.19114e-05
2.28664e-05
2.27179e-05
5.62988e-05
6.06135e-05
6.2321e-05
5.50107e-05
6.23078e-05
5.5023e-05
5.62899e-05
5.73562e-05
6.03467e-05
6.41735e-05
6.47799e-05
5.73553e-05
6.03519e-05
6.41858e-05
5.62539e-05
6.0603e-05
6.2283e-05
5.49751e-05
5.62609e-05
6.22997e-05
5.49746e-05
5.63003e-05
6.06117e-05
5.50215e-05
6.23259e-05
5.50183e-05
6.23077e-05
5.62949e-05
5.73606e-05
6.03454e-05
6.41754e-05
6.47803e-05
5.7358e-05
6.0353e-05
6.41885e-05
5.62564e-05
6.06044e-05
5.49763e-05
6.2285e-05
5.62626e-05
5.49801e-05
6.23028e-05
5.7391e-05
6.42083e-05
6.41954e-05
5.73932e-05
6.59265e-05
5.35418e-05
5.94727e-05
5.9474e-05
5.9477e-05
5.9478e-05
6.5931e-05
6.58339e-05
5.33517e-05
5.93419e-05
5.93431e-05
6.58394e-05
5.93426e-05
5.93431e-05
6.58638e-05
5.33856e-05
5.93781e-05
5.9378e-05
6.58585e-05
5.93778e-05
5.93785e-05
5.61411e-05
6.22286e-05
5.48518e-05
6.05047e-05
6.22093e-05
5.48472e-05
5.61359e-05
5.72153e-05
6.02286e-05
6.47063e-05
6.40866e-05
6.41009e-05
6.02299e-05
5.72117e-05
5.72485e-05
6.41232e-05
6.4713e-05
6.02601e-05
6.41093e-05
6.02589e-05
5.72517e-05
5.60937e-05
6.04965e-05
6.21835e-05
5.4801e-05
6.22029e-05
5.48058e-05
5.60989e-05
5.61368e-05
6.22238e-05
5.48499e-05
6.0503e-05
6.22041e-05
5.48453e-05
5.61315e-05
5.72094e-05
6.02223e-05
6.47025e-05
6.40788e-05
6.40933e-05
6.02277e-05
5.72059e-05
5.72424e-05
6.41156e-05
6.47093e-05
6.02553e-05
6.41012e-05
5.72455e-05
6.02537e-05
5.60894e-05
6.04948e-05
6.21784e-05
5.47991e-05
6.21981e-05
5.4804e-05
5.60946e-05
5.61765e-05
6.2235e-05
5.48905e-05
6.05525e-05
5.6182e-05
6.22539e-05
5.48947e-05
5.73201e-05
6.03182e-05
6.47495e-05
6.41664e-05
6.0318e-05
6.41533e-05
5.7323e-05
5.72878e-05
6.41315e-05
6.02886e-05
6.4743e-05
6.02898e-05
5.7285e-05
6.4145e-05
5.62218e-05
6.056e-05
6.22786e-05
5.49376e-05
6.226e-05
5.49338e-05
5.62161e-05
5.61721e-05
6.22299e-05
5.48886e-05
6.05508e-05
5.61777e-05
6.22492e-05
5.48928e-05
5.73138e-05
6.03162e-05
6.47454e-05
6.41588e-05
6.4145e-05
6.03136e-05
5.73167e-05
5.72816e-05
6.41235e-05
6.02839e-05
6.4739e-05
5.72788e-05
6.41374e-05
6.02857e-05
5.62174e-05
6.05582e-05
6.22736e-05
5.49357e-05
6.22548e-05
5.49318e-05
5.62117e-05
6.58336e-05
5.33463e-05
5.93395e-05
5.93427e-05
5.93437e-05
5.93407e-05
6.58387e-05
6.58632e-05
5.33848e-05
5.93759e-05
5.93791e-05
5.93753e-05
6.58582e-05
5.93784e-05
5.61417e-05
6.22249e-05
5.48415e-05
6.05059e-05
6.22106e-05
5.48538e-05
5.61316e-05
5.72074e-05
6.02302e-05
6.47086e-05
6.40872e-05
6.40995e-05
6.02313e-05
5.72179e-05
5.72541e-05
6.41219e-05
6.47155e-05
6.02618e-05
6.41098e-05
6.02608e-05
5.72438e-05
5.60901e-05
6.04939e-05
6.21847e-05
5.48066e-05
6.21993e-05
5.47968e-05
5.60998e-05
5.61352e-05
5.48489e-05
6.22234e-05
6.05024e-05
5.48449e-05
6.22037e-05
5.61312e-05
5.72104e-05
6.02234e-05
6.4705e-05
6.40789e-05
6.40935e-05
6.02325e-05
5.72067e-05
5.72433e-05
6.41158e-05
6.47113e-05
6.02627e-05
6.41013e-05
5.72467e-05
6.02542e-05
5.60887e-05
6.04942e-05
5.47987e-05
6.21781e-05
5.48029e-05
6.21977e-05
5.60923e-05
5.61725e-05
6.22362e-05
5.48976e-05
6.05496e-05
5.61827e-05
6.22503e-05
5.48851e-05
5.73253e-05
6.03215e-05
6.47519e-05
6.41653e-05
6.03203e-05
6.41539e-05
5.73152e-05
5.7279e-05
6.41319e-05
6.02902e-05
6.47453e-05
6.02914e-05
5.72903e-05
6.4144e-05
5.62227e-05
6.05609e-05
6.22746e-05
5.49278e-05
6.22611e-05
5.4941e-05
5.62122e-05
5.61718e-05
5.48881e-05
6.22294e-05
6.05499e-05
5.61766e-05
5.4892e-05
6.22486e-05
5.73147e-05
6.03209e-05
6.47475e-05
6.41589e-05
6.41449e-05
6.03127e-05
5.73177e-05
5.72828e-05
6.41234e-05
6.02836e-05
6.47416e-05
5.72798e-05
6.41375e-05
6.02915e-05
5.62166e-05
6.05575e-05
5.4935e-05
6.2273e-05
5.49314e-05
6.22542e-05
5.62116e-05
5.61396e-05
5.48516e-05
6.22232e-05
6.05045e-05
5.48472e-05
6.2208e-05
5.61333e-05
5.72071e-05
6.02261e-05
6.47035e-05
6.40799e-05
6.02274e-05
6.4093e-05
5.72079e-05
5.72487e-05
6.4115e-05
6.47103e-05
6.0258e-05
6.02567e-05
6.41029e-05
5.72429e-05
5.60915e-05
6.04961e-05
5.48013e-05
6.218e-05
5.48061e-05
6.21991e-05
5.60973e-05
5.61769e-05
6.22339e-05
5.48911e-05
6.05521e-05
5.61826e-05
6.22522e-05
5.48952e-05
5.73209e-05
6.03244e-05
6.47509e-05
6.41656e-05
5.73237e-05
6.03166e-05
6.41525e-05
5.7289e-05
6.41308e-05
6.02875e-05
6.4745e-05
5.72861e-05
6.02951e-05
6.41441e-05
5.62222e-05
6.05599e-05
6.22768e-05
5.4937e-05
5.62161e-05
6.22588e-05
5.4934e-05
5.61732e-05
5.48898e-05
6.22337e-05
6.055e-05
5.61806e-05
5.48928e-05
6.22479e-05
5.73238e-05
6.03161e-05
6.47465e-05
6.41582e-05
6.41467e-05
6.03159e-05
5.73136e-05
5.72775e-05
6.41253e-05
6.02863e-05
6.47401e-05
5.72869e-05
6.41368e-05
6.02875e-05
5.62209e-05
6.05606e-05
5.49308e-05
6.2272e-05
5.49333e-05
6.22584e-05
5.62124e-05
6.58337e-05
5.33527e-05
5.9341e-05
5.93446e-05
5.93442e-05
5.93417e-05
6.58389e-05
6.58632e-05
5.33864e-05
5.93772e-05
5.93787e-05
5.93765e-05
6.58583e-05
5.93792e-05
5.61375e-05
5.48506e-05
6.22225e-05
6.05019e-05
5.4846e-05
6.22034e-05
5.61323e-05
5.72113e-05
6.02247e-05
6.47062e-05
6.40797e-05
6.02337e-05
6.40937e-05
5.72076e-05
5.72442e-05
6.41159e-05
6.47126e-05
6.0264e-05
6.02555e-05
6.41021e-05
5.72475e-05
5.60902e-05
6.04933e-05
5.47999e-05
6.21777e-05
5.48047e-05
6.21968e-05
5.60954e-05
5.61787e-05
5.48916e-05
6.22358e-05
6.05519e-05
5.61842e-05
5.48958e-05
6.22548e-05
5.73228e-05
6.03254e-05
6.47512e-05
6.41681e-05
5.73258e-05
6.03173e-05
6.41542e-05
5.72909e-05
6.41326e-05
6.02882e-05
6.47455e-05
5.72879e-05
6.0296e-05
6.41466e-05
5.62238e-05
6.05598e-05
5.49387e-05
6.22796e-05
5.6218e-05
5.4935e-05
6.22606e-05
5.61729e-05
5.48893e-05
6.22291e-05
6.05491e-05
5.61785e-05
5.48936e-05
6.22478e-05
5.73157e-05
6.03222e-05
6.47488e-05
6.41592e-05
6.41459e-05
6.0314e-05
5.73188e-05
5.72837e-05
6.41245e-05
6.02849e-05
6.47429e-05
5.72807e-05
6.41378e-05
6.02928e-05
5.62182e-05
6.05571e-05
5.49365e-05
6.22722e-05
5.49326e-05
6.2254e-05
5.62125e-05
6.58626e-05
5.33845e-05
5.93757e-05
5.93763e-05
6.58568e-05
5.93759e-05
5.93768e-05
5.73576e-05
6.03465e-05
6.41743e-05
6.47778e-05
6.4187e-05
5.73551e-05
6.03452e-05
5.62553e-05
6.06048e-05
6.22839e-05
5.49765e-05
6.23028e-05
5.62608e-05
5.49796e-05
5.73513e-05
6.0341e-05
6.41662e-05
6.47736e-05
5.73487e-05
6.4179e-05
6.03415e-05
5.62509e-05
6.0603e-05
6.2279e-05
5.49747e-05
5.62563e-05
6.22969e-05
5.49777e-05
5.73483e-05
6.03466e-05
6.41745e-05
6.478e-05
6.41858e-05
5.73593e-05
6.03457e-05
5.62511e-05
6.06024e-05
6.22853e-05
5.49827e-05
6.22985e-05
5.62614e-05
5.49709e-05
5.73518e-05
6.0341e-05
6.4166e-05
6.47764e-05
5.73494e-05
6.41791e-05
6.0348e-05
5.625e-05
6.06025e-05
5.49736e-05
6.22784e-05
5.62557e-05
5.49768e-05
6.22965e-05
5.62979e-05
6.06133e-05
5.50094e-05
6.23183e-05
5.50256e-05
6.2306e-05
5.62867e-05
5.73466e-05
6.03441e-05
6.41676e-05
6.47749e-05
6.03459e-05
5.73583e-05
6.41787e-05
5.62508e-05
6.06023e-05
5.4981e-05
6.22827e-05
5.49717e-05
5.626e-05
6.22959e-05
5.73937e-05
6.41983e-05
6.47811e-05
6.03706e-05
6.03703e-05
6.41882e-05
5.73783e-05
5.62948e-05
6.06092e-05
5.50197e-05
6.2319e-05
5.50168e-05
6.23013e-05
5.62896e-05
5.73529e-05
6.03424e-05
6.41671e-05
6.47778e-05
6.03497e-05
5.73505e-05
6.41797e-05
5.62509e-05
6.06017e-05
5.49749e-05
6.22782e-05
5.49784e-05
5.6257e-05
6.22957e-05
5.73838e-05
6.41996e-05
6.47833e-05
6.03773e-05
6.03697e-05
6.41873e-05
5.73862e-05
3.64631e-05
4.17905e-05
3.64628e-05
7.13543e-05
6.01871e-05
6.95325e-05
6.68971e-05
6.68935e-05
6.95305e-05
6.01874e-05
7.13555e-05
7.01869e-05
7.13412e-05
7.73918e-05
7.73712e-05
7.02008e-05
6.95199e-05
7.00868e-05
5.93329e-05
6.68826e-05
7.11461e-05
5.92824e-05
7.1128e-05
7.01094e-05
7.00356e-05
5.93247e-05
6.68788e-05
7.11354e-05
7.11207e-05
5.92764e-05
7.0057e-05
9.23407e-05
7.20312e-05
7.20366e-05
7.20172e-05
7.20227e-05
9.23529e-05
6.95178e-05
7.01845e-05
7.13426e-05
7.74001e-05
7.73809e-05
7.01992e-05
5.95203e-05
4.17554e-05
5.05111e-05
5.05099e-05
5.04701e-05
5.04698e-05
5.95535e-05
4.80613e-05
5.25171e-05
6.01429e-05
5.85149e-05
5.84573e-05
5.24856e-05
4.80736e-05
4.80641e-05
5.25184e-05
6.01449e-05
5.85178e-05
5.24889e-05
5.84619e-05
4.80766e-05
2.10414e-05
3.66931e-05
3.66985e-05
4.19511e-05
2.17998e-05
3.75986e-05
3.76041e-05
4.26837e-05
2.25765e-05
3.84784e-05
3.84837e-05
4.33828e-05
2.33675e-05
3.93309e-05
3.93362e-05
4.40489e-05
2.41692e-05
4.01559e-05
4.01609e-05
4.46979e-05
2.49775e-05
4.09526e-05
4.09572e-05
4.53276e-05
2.57888e-05
4.17204e-05
4.17249e-05
4.59244e-05
2.65995e-05
4.24596e-05
4.24638e-05
4.64995e-05
2.74063e-05
4.31699e-05
4.31738e-05
4.70559e-05
2.82059e-05
4.38515e-05
4.3855e-05
4.75885e-05
2.89955e-05
4.45044e-05
4.45077e-05
4.80953e-05
2.97726e-05
4.5129e-05
4.51321e-05
4.85792e-05
3.05348e-05
4.57257e-05
4.57288e-05
4.90433e-05
3.12798e-05
4.62948e-05
4.62979e-05
4.94916e-05
3.20057e-05
4.68366e-05
4.68399e-05
4.99179e-05
3.27111e-05
4.73517e-05
4.73549e-05
5.03225e-05
3.33941e-05
4.78403e-05
4.78435e-05
5.07095e-05
3.40537e-05
4.83027e-05
4.83059e-05
5.10739e-05
3.46888e-05
4.87394e-05
4.87426e-05
5.14166e-05
3.52983e-05
4.91508e-05
4.91539e-05
5.17384e-05
3.58815e-05
4.95372e-05
4.95403e-05
5.20437e-05
3.64379e-05
4.98992e-05
4.99022e-05
5.23283e-05
3.69669e-05
5.02372e-05
5.02401e-05
5.25949e-05
3.74683e-05
5.05515e-05
5.05542e-05
5.2852e-05