/*--------------------------------*- C++ -*----------------------------------*\
| =========                 |                                                 |
| \\      /  F ield         | OpenFOAM: The Open Source CFD Toolbox           |
|  \\    /   O peration     | Version:  2312                                  |
|   \\  /    A nd           | Website:  www.openfoam.com                      |
|    \\/     M anipulation  |                                                 |
\*---------------------------------------------------------------------------*/
FoamFile
{
    version     2.0;
    format      ascii;
    arch        "LSB;label=32;scalar=64";
    class       volScalarField;
    location    "700";
    object      nut;
}
// * * * * * * * * * * * * * * * * * * * * * * * * * * * * * * * * * * * * * //

dimensions      [0 2 -1 0 0 0 0];

internalField   nonuniform List<scalar> 
43496
(
9.98385e-05
2.38911e-05
0.000200501
0.0001036
0.000144112
0.000210021
9.98399e-05
5.07387e-05
0.00014412
0.000200465
0.000210019
0.000103581
0.000181932
7.78923e-05
7.79051e-05
2.38933e-05
5.07413e-05
3.67141e-05
9.98126e-05
9.44559e-05
4.10537e-05
9.44339e-05
4.10542e-05
3.67136e-05
2.03164e-05
7.90783e-05
7.90608e-05
2.03185e-05
2.38891e-05
3.67086e-05
9.98052e-05
4.10536e-05
9.44509e-05
4.10539e-05
9.44184e-05
3.6714e-05
2.03155e-05
7.90582e-05
5.07325e-05
7.90401e-05
2.03175e-05
8.14838e-05
2.17077e-05
2.17109e-05
2.17057e-05
2.17089e-05
8.14901e-05
0.000105202
4.86427e-05
7.7882e-05
0.000128755
4.86436e-05
0.000128697
0.000105219
0.000105198
4.86586e-05
7.78952e-05
0.000128785
0.000128728
4.86519e-05
0.000105216
2.38913e-05
5.07406e-05
0.000203206
0.000206576
0.000203212
0.000103559
0.000147561
0.000147502
0.000171212
0.000144038
0.000137567
0.000176438
0.000137501
0.000176443
0.000171276
0.000160693
0.000122732
0.000122678
0.000160696
0.000171117
0.000144021
0.00017651
0.000137571
0.000176375
0.000137477
0.000171362
0.000160579
0.000122728
0.00010354
0.000147527
0.000122661
0.000160786
0.000147467
0.000138288
0.00018188
0.000161727
0.000161748
0.000161708
0.000161685
0.00013832
0.00020345
0.000198756
0.000198762
0.00018067
0.00020596
0.000200158
0.000200164
0.000181623
0.00018069
0.000181482
0.000198739
0.000198721
0.000199796
0.000199773
0.000180603
0.000181486
0.000198749
0.000198727
0.000199807
0.000199785
0.000198726
0.00019981
0.000199789
0.000180689
0.000181488
0.000198738
0.00019982
0.000199797
0.000181467
0.000181646
0.00020014
0.000200123
0.000181604
0.000200151
0.000200128
0.000200128
0.000181631
0.000200139
9.97313e-05
5.07158e-05
5.07271e-05
9.96623e-05
2.38785e-05
2.38828e-05
9.97233e-05
5.0711e-05
5.07221e-05
9.96628e-05
0.000203447
0.000203458
0.000203449
0.000205341
0.000205334
0.000205348
0.000205344
0.000143715
0.000103361
0.000207746
0.000199109
0.000103447
0.00020821
0.000143503
2.38775e-05
2.38819e-05
0.000143714
0.000207749
0.000103361
0.000199119
0.000208218
0.000103447
0.000143499
7.78107e-05
7.78036e-05
0.000180988
7.78355e-05
7.78319e-05
5.07372e-05
9.9785e-05
2.38877e-05
5.07314e-05
9.97843e-05
0.000205957
0.000205967
0.000205957
0.00014411
0.000103521
0.000209583
0.000143932
0.000210024
2.38868e-05
0.000144122
0.000209587
0.000103521
0.000143923
0.000210031
7.78735e-05
7.78665e-05
0.000181912
7.78979e-05
7.78927e-05
2.38805e-05
2.38849e-05
2.38784e-05
2.38829e-05
7.78187e-05
7.78126e-05
0.000181006
7.78466e-05
7.78397e-05
2.38895e-05
2.38851e-05
2.38875e-05
2.38831e-05
0.000181164
7.78763e-05
7.78708e-05
7.78511e-05
7.78452e-05
9.97278e-05
5.07128e-05
5.07192e-05
9.96591e-05
0.000143721
0.000103361
0.000207741
0.000199095
0.000103446
0.000208208
0.000143506
0.000143717
0.000103337
0.000207735
0.000199073
0.000103422
0.0002082
0.000143501
9.97251e-05
5.07372e-05
5.07264e-05
9.97919e-05
9.97214e-05
5.07294e-05
5.07232e-05
9.97874e-05
0.000143723
0.00019945
0.000103524
0.000209127
0.000103443
0.000208672
0.000143928
0.000143718
0.000199432
0.000103501
0.000209119
0.000103419
0.000208666
0.000143924
7.77989e-05
7.78192e-05
0.000181013
7.78244e-05
7.78476e-05
2.38798e-05
2.38842e-05
2.38874e-05
2.38831e-05
0.00018114
7.78552e-05
7.78786e-05
7.78312e-05
7.78517e-05
2.38888e-05
2.38844e-05
0.000143705
0.000103353
0.000207739
0.000199106
0.000103436
0.000208207
0.000143511
9.97236e-05
5.07071e-05
5.07183e-05
9.96556e-05
0.000143711
0.000207737
0.000103342
0.000199084
0.000208204
0.000103427
0.000143497
9.97246e-05
5.07321e-05
5.07214e-05
9.97832e-05
0.000143728
0.00019946
0.000103515
0.000209125
0.000103435
0.00020867
0.000143913
9.97178e-05
5.07284e-05
5.07175e-05
9.97833e-05
0.000143713
0.000199438
0.000209123
0.000103506
0.000208668
0.000103424
0.000143919
9.97174e-05
5.07146e-05
5.07211e-05
9.96546e-05
0.000143712
0.000207741
0.000103349
0.000199088
0.000208208
0.000103433
0.000143504
9.97219e-05
5.07082e-05
5.07194e-05
9.96609e-05
0.00014372
0.000199467
0.000103525
0.000209129
0.000103443
0.000208676
0.00014392
9.97169e-05
5.07313e-05
5.0725e-05
9.97767e-05
0.000143726
0.000199437
0.000209126
0.000103512
0.000208672
0.000103431
0.000143912
9.97233e-05
5.07295e-05
5.07186e-05
9.97813e-05
7.78052e-05
7.7817e-05
0.000181004
7.78298e-05
7.78448e-05
2.38798e-05
2.38841e-05
2.38865e-05
2.38822e-05
0.000181163
7.78611e-05
7.78757e-05
7.78376e-05
7.78496e-05
2.38887e-05
2.38844e-05
0.000143705
0.00020774
0.000103342
0.000199096
0.000208207
0.000103428
0.000143491
9.97186e-05
5.07149e-05
5.07213e-05
9.96499e-05
9.97085e-05
5.07067e-05
5.07179e-05
9.96393e-05
0.000143716
0.000199473
0.000209136
0.000103526
0.00020868
0.000103443
0.000143922
0.000143708
0.000199449
0.000209126
0.000103507
0.000208671
0.000103424
0.000143913
9.97121e-05
5.07316e-05
5.07252e-05
9.97781e-05
9.97016e-05
5.0728e-05
5.07171e-05
9.97681e-05
2.38784e-05
2.38828e-05
2.38773e-05
2.38817e-05
0.000181145
7.78667e-05
7.7863e-05
7.7843e-05
7.78363e-05
2.38874e-05
2.38831e-05
2.38863e-05
2.38819e-05
2.38898e-05
2.38877e-05
7.78821e-05
7.78758e-05
5.07336e-05
9.9781e-05
0.000103521
0.00020958
0.000143931
0.000103497
0.000209573
0.000143926
7.78616e-05
7.78819e-05
2.3889e-05
0.000103513
0.000209578
0.000143936
5.07279e-05
9.97771e-05
0.000209575
0.000103502
0.000143921
9.98322e-05
5.07353e-05
9.97761e-05
0.000144111
0.000209579
0.000103509
0.000200469
0.000143936
0.000210021
0.000103586
9.98369e-05
5.07289e-05
9.97826e-05
5.07398e-05
7.78681e-05
7.78805e-05
2.3889e-05
0.000144114
0.000209579
0.000103503
0.000200478
0.000143915
0.000210022
0.000103581
9.98346e-05
5.07352e-05
9.97714e-05
9.98246e-05
5.07273e-05
9.97609e-05
5.07383e-05
2.38876e-05
2.38919e-05
2.38865e-05
2.38909e-05
3.66953e-05
4.10405e-05
9.43738e-05
9.96937e-05
4.10344e-05
9.43394e-05
3.67022e-05
2.03086e-05
5.07216e-05
7.90067e-05
7.90261e-05
2.03066e-05
2.03085e-05
7.90381e-05
5.07211e-05
7.9019e-05
2.03106e-05
3.66984e-05
9.97008e-05
4.10304e-05
9.43155e-05
4.10362e-05
9.43497e-05
3.66913e-05
2.38805e-05
2.38808e-05
3.66992e-05
9.43648e-05
4.10372e-05
9.96942e-05
9.43404e-05
4.10372e-05
3.66982e-05
2.0309e-05
5.0717e-05
7.90027e-05
7.90215e-05
2.0307e-05
2.03089e-05
7.90335e-05
5.07163e-05
7.9015e-05
2.03109e-05
3.66946e-05
9.96928e-05
9.43158e-05
4.10327e-05
9.43409e-05
4.10331e-05
3.66956e-05
2.38796e-05
2.38799e-05
8.14423e-05
2.17029e-05
2.16997e-05
2.17009e-05
2.16977e-05
8.14497e-05
0.000105054
0.00012836
7.78194e-05
4.86291e-05
0.000128423
4.86289e-05
0.000105033
0.000105061
0.000128341
7.78157e-05
4.86147e-05
0.000128406
4.86221e-05
0.00010504
0.000105066
4.86337e-05
7.78271e-05
0.000128496
0.000128434
4.86338e-05
0.000105087
0.000105073
4.86268e-05
7.78204e-05
0.000128479
0.000128415
4.86198e-05
0.000105093
8.14394e-05
2.1699e-05
2.16958e-05
2.17011e-05
2.16978e-05
8.14318e-05
2.03162e-05
7.90539e-05
5.07413e-05
2.03142e-05
7.90721e-05
3.67136e-05
9.98189e-05
4.10471e-05
9.44106e-05
3.6706e-05
4.1054e-05
9.44451e-05
2.38896e-05
2.03166e-05
7.90499e-05
5.07379e-05
2.03146e-05
7.90677e-05
3.67095e-05
9.98117e-05
9.44119e-05
4.10498e-05
3.67103e-05
9.44349e-05
4.105e-05
2.38888e-05
8.14815e-05
2.17103e-05
2.17071e-05
2.17084e-05
2.17051e-05
8.14881e-05
0.00010518
0.000128648
4.86482e-05
7.78816e-05
0.00010516
0.000128705
4.86478e-05
0.000105187
0.000128628
4.86338e-05
7.78778e-05
0.000105166
0.000128688
4.86411e-05
8.14791e-05
2.17065e-05
2.17033e-05
8.14722e-05
2.17085e-05
2.17053e-05
0.000105191
4.86521e-05
7.78877e-05
0.000128771
0.000128716
4.86531e-05
0.000105209
0.000105196
4.86463e-05
7.78814e-05
0.000128754
0.000128696
4.86384e-05
0.000105214
2.38826e-05
2.38828e-05
2.38806e-05
2.38808e-05
8.14482e-05
2.17033e-05
2.17e-05
2.17013e-05
2.1698e-05
8.14549e-05
0.000105062
0.000128373
7.78303e-05
4.86281e-05
4.86355e-05
0.00012843
0.000105042
0.000105065
0.00012835
7.78236e-05
4.86155e-05
4.8623e-05
0.000128413
0.000105042
0.000105075
4.86403e-05
7.78351e-05
0.000128503
4.86331e-05
0.000105094
0.000128447
0.000105075
4.86278e-05
7.78291e-05
0.000128486
4.86205e-05
0.000105098
0.000128424
8.14445e-05
2.16994e-05
2.16961e-05
2.17014e-05
2.16981e-05
8.14378e-05
2.38874e-05
2.38872e-05
2.38854e-05
2.38852e-05
8.1465e-05
2.17031e-05
2.16998e-05
8.14583e-05
2.17052e-05
2.17019e-05
0.000105138
0.000128644
7.78666e-05
4.86481e-05
4.86437e-05
0.000128591
0.000105157
0.000105138
0.000128627
7.78603e-05
4.8637e-05
4.86297e-05
0.000128568
0.00010516
0.000105126
4.86379e-05
0.00012852
7.78616e-05
0.000105107
4.86443e-05
0.000128574
0.00010513
4.86252e-05
0.000128497
7.78557e-05
0.000105106
4.86322e-05
0.000128557
8.14683e-05
2.1707e-05
2.17037e-05
2.1705e-05
2.17017e-05
8.14749e-05
3.66938e-05
4.10405e-05
9.43619e-05
9.96901e-05
4.10343e-05
9.43275e-05
3.67007e-05
2.0308e-05
5.07141e-05
7.89845e-05
7.90037e-05
2.03059e-05
2.03078e-05
7.90157e-05
5.07179e-05
7.89969e-05
2.03099e-05
3.66969e-05
9.96969e-05
4.10303e-05
9.43035e-05
4.1036e-05
9.43376e-05
3.66898e-05
3.67058e-05
4.1039e-05
9.43643e-05
9.97617e-05
3.66991e-05
4.10447e-05
9.43978e-05
2.03123e-05
5.07313e-05
7.90612e-05
2.03143e-05
7.90427e-05
2.03125e-05
7.90309e-05
5.07319e-05
2.03104e-05
7.90497e-05
3.67028e-05
9.97552e-05
4.1049e-05
9.44213e-05
3.67093e-05
4.10433e-05
9.43883e-05
3.67044e-05
4.10388e-05
9.43524e-05
9.97583e-05
3.66976e-05
4.10447e-05
9.43862e-05
2.03116e-05
5.07284e-05
7.90388e-05
7.90203e-05
2.03137e-05
2.03118e-05
7.90088e-05
5.07247e-05
2.03097e-05
7.90275e-05
3.67011e-05
9.97514e-05
4.10489e-05
9.44093e-05
4.10429e-05
9.43761e-05
3.6708e-05
8.14454e-05
2.17e-05
2.17031e-05
2.1698e-05
2.1701e-05
8.14527e-05
0.000105062
0.000128341
7.78082e-05
4.8619e-05
4.86189e-05
0.000128399
0.000105043
0.000105062
0.000128373
7.78312e-05
4.86268e-05
0.000128434
4.86343e-05
0.000105038
0.000105075
4.86237e-05
7.78153e-05
0.000128472
4.86237e-05
0.000128415
0.000105094
0.000105071
4.86391e-05
7.78359e-05
0.000128508
0.000128447
4.86318e-05
0.000105094
8.14423e-05
2.16961e-05
2.16991e-05
2.16981e-05
2.17012e-05
8.14349e-05
2.38818e-05
2.38821e-05
2.38854e-05
2.38851e-05
8.14627e-05
2.16999e-05
2.17029e-05
8.14556e-05
2.17019e-05
2.17049e-05
0.000105139
0.000128613
7.78466e-05
4.86332e-05
0.000128558
4.86335e-05
0.000105157
0.000105134
0.000128648
7.7867e-05
4.86486e-05
4.86411e-05
0.00012859
0.000105157
0.000105126
4.86286e-05
0.000128487
7.78402e-05
0.000128543
0.000105107
4.86289e-05
0.000105126
4.86365e-05
0.000128519
7.78628e-05
0.000105103
4.86434e-05
0.000128579
8.14656e-05
2.17037e-05
2.17068e-05
2.17017e-05
2.17048e-05
8.14726e-05
2.38868e-05
2.38865e-05
3.66934e-05
4.10371e-05
9.43588e-05
9.96866e-05
4.10368e-05
9.43247e-05
3.67003e-05
2.03081e-05
5.07131e-05
7.89817e-05
7.9001e-05
2.0306e-05
2.03079e-05
7.90131e-05
5.07124e-05
7.89941e-05
2.031e-05
3.66965e-05
9.96927e-05
4.10324e-05
9.43006e-05
4.10329e-05
9.43343e-05
3.66895e-05
3.6702e-05
9.43645e-05
4.10412e-05
9.97539e-05
3.67029e-05
9.43892e-05
4.10417e-05
2.03127e-05
5.07265e-05
7.90565e-05
2.03147e-05
7.9039e-05
2.03128e-05
7.9027e-05
5.07269e-05
2.03108e-05
7.90452e-05
3.67064e-05
9.97546e-05
9.44126e-05
4.10457e-05
3.67061e-05
9.43883e-05
4.10454e-05
3.6704e-05
4.10409e-05
9.43496e-05
9.97541e-05
3.66973e-05
4.10414e-05
9.43832e-05
2.03117e-05
5.07224e-05
7.90364e-05
7.90178e-05
2.03138e-05
2.03119e-05
7.90061e-05
5.07232e-05
2.03098e-05
7.90249e-05
3.67009e-05
9.97478e-05
4.10455e-05
9.44062e-05
4.10452e-05
9.43733e-05
3.67074e-05
3.66993e-05
9.43554e-05
4.10366e-05
9.96863e-05
9.43276e-05
4.10367e-05
3.6698e-05
2.03092e-05
5.0716e-05
7.89998e-05
7.90109e-05
2.03071e-05
2.0309e-05
7.90231e-05
5.07197e-05
7.90121e-05
2.03111e-05
3.66945e-05
9.96867e-05
9.43027e-05
4.10322e-05
9.43311e-05
4.10325e-05
3.66956e-05
3.66979e-05
4.10374e-05
9.43569e-05
9.96927e-05
4.10374e-05
9.43322e-05
3.66969e-05
2.03083e-05
5.07142e-05
7.8983e-05
7.90015e-05
2.03062e-05
2.03082e-05
7.90135e-05
5.07136e-05
7.89951e-05
2.03102e-05
3.66933e-05
9.96914e-05
4.10329e-05
9.43069e-05
4.10333e-05
9.43331e-05
3.66943e-05
3.67017e-05
9.4352e-05
4.10407e-05
9.97477e-05
3.67029e-05
9.43795e-05
4.1041e-05
2.03128e-05
5.07302e-05
7.90461e-05
7.90356e-05
2.03149e-05
2.0313e-05
7.90241e-05
5.07265e-05
2.03109e-05
7.90346e-05
3.67067e-05
9.97471e-05
9.44026e-05
4.10451e-05
9.43758e-05
4.10451e-05
3.67056e-05
3.67006e-05
4.10415e-05
9.43565e-05
9.97524e-05
3.67015e-05
4.10418e-05
9.43813e-05
2.0312e-05
5.07236e-05
7.90364e-05
7.90188e-05
2.0314e-05
2.03121e-05
7.9007e-05
5.07243e-05
2.03101e-05
7.90251e-05
3.67052e-05
9.97533e-05
4.10459e-05
9.44042e-05
4.10458e-05
9.43805e-05
3.67046e-05
8.14444e-05
2.17003e-05
2.17035e-05
2.16982e-05
2.17015e-05
8.14518e-05
0.000105064
0.000128343
7.78137e-05
4.86196e-05
4.86196e-05
0.000128407
0.000105046
0.000105065
0.000128373
7.78288e-05
4.8628e-05
0.000128436
4.86354e-05
0.000105041
0.000105079
4.86243e-05
7.78217e-05
0.00012848
4.86243e-05
0.000128417
0.000105097
0.000105074
4.86402e-05
7.78337e-05
0.00012851
0.000128446
4.8633e-05
0.000105097
8.14414e-05
2.16964e-05
2.16996e-05
2.16984e-05
2.17016e-05
8.14339e-05
2.38818e-05
2.38821e-05
2.38845e-05
2.38842e-05
8.14618e-05
2.17001e-05
2.17034e-05
8.14547e-05
2.17021e-05
2.17054e-05
0.000105142
0.000128621
7.78533e-05
4.86339e-05
0.00012856
4.86342e-05
0.00010516
0.000105137
0.000128651
7.78651e-05
4.86495e-05
4.86421e-05
0.000128589
0.000105159
0.000105129
4.86292e-05
0.000128489
7.7846e-05
0.000128551
0.000105111
4.86295e-05
0.000105129
4.86377e-05
0.000128519
7.78603e-05
0.000105106
4.86446e-05
0.000128581
8.14647e-05
2.1704e-05
2.17072e-05
2.1702e-05
2.17052e-05
8.14716e-05
2.38867e-05
2.38865e-05
3.66957e-05
9.43704e-05
4.10396e-05
9.9681e-05
9.43363e-05
4.10331e-05
3.67027e-05
2.03097e-05
5.07162e-05
7.90036e-05
7.90228e-05
2.03076e-05
2.03096e-05
7.90348e-05
5.07199e-05
7.90159e-05
2.03116e-05
3.66989e-05
9.96877e-05
9.43123e-05
4.10292e-05
9.43462e-05
4.10352e-05
3.66918e-05
3.66967e-05
9.43501e-05
4.10391e-05
9.96706e-05
9.43163e-05
4.10326e-05
3.66957e-05
2.03078e-05
5.07127e-05
7.89806e-05
7.89996e-05
2.03057e-05
2.03077e-05
7.90116e-05
5.0712e-05
7.89929e-05
2.03097e-05
3.66921e-05
9.96775e-05
9.42919e-05
4.10286e-05
9.43257e-05
4.10347e-05
3.6693e-05
3.67063e-05
9.43611e-05
4.10377e-05
9.97489e-05
3.66996e-05
9.43946e-05
4.10438e-05
2.03134e-05
5.07305e-05
7.90579e-05
7.90395e-05
2.03154e-05
2.03135e-05
7.90278e-05
5.07267e-05
2.03115e-05
7.90464e-05
3.67032e-05
9.97422e-05
9.44177e-05
4.10481e-05
9.43847e-05
4.10418e-05
3.67097e-05
3.66994e-05
9.4341e-05
4.10371e-05
9.97388e-05
3.67002e-05
9.43743e-05
4.10433e-05
2.03115e-05
5.0722e-05
7.90348e-05
7.90165e-05
2.03135e-05
2.03116e-05
7.90049e-05
5.07227e-05
2.03096e-05
7.90233e-05
3.67041e-05
9.97317e-05
9.43975e-05
4.10476e-05
9.43648e-05
4.10413e-05
3.67034e-05
2.38805e-05
2.38807e-05
2.38794e-05
2.38796e-05
8.14598e-05
2.17028e-05
2.16996e-05
8.14525e-05
2.17048e-05
2.17016e-05
0.000105129
0.000128636
7.78585e-05
4.86433e-05
0.00010515
0.000128579
4.86436e-05
0.000105135
0.000128619
7.78516e-05
4.86363e-05
0.000105157
0.000128558
4.86289e-05
0.000105119
4.86386e-05
0.000128507
7.78515e-05
0.000105098
0.000128567
4.8639e-05
0.000105126
4.86245e-05
0.000128487
7.78471e-05
0.000105105
0.00012855
4.86312e-05
8.14624e-05
2.17067e-05
2.17034e-05
8.14695e-05
2.17047e-05
2.17014e-05
2.38854e-05
2.38851e-05
2.38843e-05
2.3884e-05
2.38917e-05
2.38897e-05
0.000105187
0.00012866
4.86513e-05
7.78913e-05
0.000105169
4.86505e-05
0.000128712
0.000105189
0.000128637
4.86355e-05
7.78849e-05
0.000105169
4.86405e-05
0.000128695
8.14841e-05
2.17069e-05
2.17036e-05
8.14781e-05
2.17089e-05
2.17056e-05
2.03155e-05
7.90324e-05
5.07338e-05
2.03135e-05
7.90491e-05
3.67121e-05
9.98147e-05
4.10474e-05
9.43996e-05
4.10522e-05
3.67047e-05
9.44309e-05
0.00010519
0.000128626
4.86382e-05
7.78696e-05
4.86372e-05
0.000105168
0.000128681
0.000105188
0.000128659
4.86457e-05
7.78937e-05
0.000128716
0.000105164
4.86536e-05
8.14823e-05
2.17036e-05
2.17066e-05
2.17056e-05
8.14751e-05
2.17087e-05
2.03156e-05
7.90293e-05
5.07333e-05
2.03136e-05
7.90474e-05
3.67112e-05
9.98117e-05
4.10495e-05
9.43967e-05
4.10499e-05
3.67049e-05
9.44286e-05
3.67135e-05
9.98049e-05
4.1053e-05
9.44216e-05
4.10538e-05
2.03168e-05
7.90468e-05
5.07359e-05
7.90571e-05
2.03147e-05
3.67102e-05
9.98054e-05
9.43989e-05
4.10493e-05
9.4425e-05
3.67102e-05
4.10495e-05
2.03166e-05
3.67124e-05
9.98111e-05
4.10539e-05
9.44482e-05
4.10544e-05
9.44261e-05
3.67113e-05
2.03159e-05
7.90299e-05
5.07346e-05
2.03138e-05
7.90474e-05
3.67081e-05
9.98103e-05
4.10499e-05
9.44036e-05
3.67086e-05
4.10504e-05
9.44273e-05
2.03157e-05
7.90581e-05
5.07337e-05
7.90408e-05
2.03177e-05
0.00010519
0.000128629
4.86384e-05
7.78767e-05
4.86387e-05
0.000105172
0.000128689
0.000105189
0.000128659
4.86477e-05
7.78903e-05
0.000128718
0.000105168
4.86541e-05
8.14811e-05
2.17039e-05
2.17071e-05
2.17058e-05
8.14743e-05
2.17091e-05
2.3891e-05
3.67108e-05
9.97996e-05
9.44622e-05
4.10567e-05
9.44296e-05
4.10499e-05
3.67165e-05
2.03173e-05
7.90507e-05
5.07368e-05
7.90689e-05
2.03153e-05
3.67136e-05
9.98065e-05
9.4408e-05
4.10461e-05
9.44399e-05
3.67071e-05
4.1052e-05
2.03171e-05
7.90794e-05
7.90618e-05
2.03192e-05
3.67108e-05
9.97893e-05
9.44421e-05
4.10563e-05
9.44099e-05
4.10493e-05
3.67106e-05
2.03154e-05
7.90278e-05
5.07331e-05
2.03133e-05
7.90458e-05
3.67071e-05
9.97964e-05
9.4388e-05
4.10455e-05
3.67072e-05
9.44199e-05
4.10516e-05
2.03152e-05
7.90564e-05
5.07322e-05
7.90388e-05
2.03172e-05
2.38897e-05
2.38899e-05
2.38886e-05
2.38888e-05
0.000199216
0.000199215
0.000204087
0.000200026
0.000200025
0.000189323
0.0001883
0.000137897
0.000160907
0.000160903
0.000180746
0.000160963
0.000160957
0.000137856
0.000202422
0.000202421
0.000193388
0.000192377
0.000138235
0.000161547
0.000161527
0.000181696
0.000138198
0.000161596
0.000161575
0.000137906
0.000160921
0.000160916
0.000180767
0.000160975
0.00016097
0.000137866
0.000138125
0.000181411
0.000161457
0.000161437
0.0001614
0.000161382
0.000138162
0.000137902
0.000160886
0.000160908
0.000180792
0.00016097
0.000160947
0.000137862
0.000138122
0.000181397
0.000161427
0.00016145
0.000161374
0.000161397
0.000138158
0.000137903
0.000160903
0.000160924
0.000180765
0.00016098
0.000160956
0.000137866
0.000138124
0.000181412
0.000161439
0.000161453
0.000161383
0.000161398
0.00013816
0.000138115
0.000181394
0.000161433
0.000161423
0.000138152
0.000161384
0.000161371
0.000138244
0.000161552
0.00016154
0.000181697
0.000138208
0.000161596
0.000161581
0.000138249
0.000161527
0.000161545
0.000181767
0.000161626
0.000138201
0.000161603
0.000138242
0.000161529
0.000161551
0.000181715
0.000161609
0.000138207
0.000161588
0.000199214
0.000199217
0.000204079
0.000200023
0.000200024
0.000189323
0.000188301
0.000199224
0.000199227
0.000204094
0.000200033
0.000200038
0.000189332
0.000188309
0.000199225
0.000199223
0.000204089
0.000200032
0.000200036
0.000189332
0.00018831
0.000204718
0.000201629
0.000201628
0.000200831
0.000200831
0.000190344
0.000191362
0.000204715
0.000201626
0.000201627
0.000200829
0.000200832
0.000190344
0.000191362
0.000204725
0.000201636
0.00020164
0.000200839
0.000200842
0.000190353
0.000191371
0.000204716
0.000201634
0.000201639
0.00020084
0.000200838
0.000190353
0.00019137
0.000170426
0.00013723
0.000175663
0.000143612
0.000137134
0.000175525
0.000170557
0.00016
0.000146891
0.000103406
0.000122355
0.000146968
0.000122424
0.000159869
0.000160026
0.000122491
0.000103402
0.000147092
0.000147017
0.000122422
0.000160162
0.000170344
0.000143606
0.000137042
0.000175295
0.000137138
0.000175434
0.000170226
0.000170426
0.000175663
0.000137236
0.000143608
0.000175524
0.000137139
0.000170566
0.000160006
0.000146894
0.000103407
0.000122361
0.000146971
0.000122432
0.000159873
0.00016003
0.000122498
0.000103403
0.000147094
0.00014702
0.000122428
0.000160168
0.000170351
0.000143606
0.000175293
0.000137048
0.000175434
0.000137144
0.000170228
0.000137944
0.00018091
0.000161125
0.000161112
0.00016107
0.000161054
0.000137984
0.00020242
0.000202424
0.000203204
0.000193388
0.000192377
0.000202429
0.000202432
0.000203218
0.000193397
0.000192386
0.000202431
0.000202427
0.000206574
0.00020321
0.00020322
0.000193397
0.000192386
0.000171147
0.000144036
0.00013757
0.000176445
0.000137498
0.000176416
0.000171357
0.00016064
0.000147386
0.000122616
0.000103563
0.00016046
0.000147447
0.00012268
0.000171147
0.000144016
0.000137405
0.000176161
0.000170971
0.000137493
0.000176268
0.000171164
0.000144024
0.000176519
0.000137587
0.00017638
0.000137494
0.000171362
0.000160651
0.000147379
0.000122622
0.000103564
0.000160475
0.000147451
0.000122688
0.00017115
0.000144022
0.000176164
0.000137411
0.000170977
0.000176303
0.000137502
0.000160618
0.000122749
0.000122682
0.000160803
0.000138279
0.000181854
0.000161732
0.00016172
0.000161695
0.000161682
0.000138314
0.000137954
0.000180928
0.000161134
0.000161124
0.000137992
0.000161081
0.000161067
0.000138078
0.00018125
0.000161243
0.000161225
0.000138041
0.000161297
0.000161285
0.000170425
0.000137236
0.000175664
0.000143615
0.000137138
0.000175525
0.000170555
0.000159991
0.000146903
0.000103405
0.000122357
0.000122427
0.000146941
0.000159862
0.000160021
0.000122493
0.000103402
0.000147065
0.000122424
0.000147027
0.000160153
0.000170341
0.000143613
0.000137046
0.000175296
0.000137143
0.000175435
0.000170223
0.000170404
0.000137222
0.000175659
0.00014361
0.000137125
0.00017552
0.000170547
0.000159972
0.000146858
0.000103382
0.000122339
0.000122409
0.000146916
0.000159839
0.000159994
0.000122475
0.000103378
0.000147028
0.000122406
0.000160135
0.000146987
0.000170331
0.000143608
0.000137033
0.000175291
0.00013713
0.00017543
0.000170207
0.000170765
0.000137231
0.000175739
0.000143826
0.000170613
0.000137327
0.000175877
0.000160323
0.000147306
0.000103483
0.000122622
0.000147271
0.000122555
0.00016048
0.000160319
0.00012249
0.000147149
0.000103485
0.000147188
0.000160178
0.000122558
0.000170789
0.000143828
0.000137416
0.000176093
0.000137322
0.000175956
0.000170957
0.000170755
0.000137218
0.000175733
0.000143822
0.000170588
0.000137314
0.000175871
0.000160288
0.000147283
0.000103458
0.000122604
0.000122536
0.000147236
0.000160463
0.000160302
0.000122472
0.000147112
0.000103462
0.000160147
0.00012254
0.000147155
0.000170763
0.000143823
0.000137402
0.000176088
0.000137308
0.00017595
0.000170949
0.000137951
0.000180892
0.000161112
0.000161134
0.000161082
0.000161061
0.000137988
0.000138074
0.000181247
0.00016122
0.000161243
0.000161275
0.000138037
0.000161297
0.000170438
0.000137219
0.000175593
0.000143621
0.000137144
0.000175573
0.000170506
0.000159937
0.000146889
0.000103396
0.000122355
0.000122417
0.000146926
0.000159901
0.000160059
0.000122483
0.000103394
0.000147051
0.000122422
0.000147014
0.000160093
0.000170311
0.000143597
0.000137051
0.000175337
0.000137127
0.000175373
0.000170235
0.000170368
0.000175651
0.000137219
0.000143606
0.000175515
0.000137121
0.000170549
0.000159974
0.000146859
0.000103387
0.000122339
0.00012241
0.000146935
0.000159841
0.000159996
0.000122476
0.000103383
0.000147059
0.000122406
0.000160137
0.000146985
0.000170336
0.000143604
0.000175286
0.00013703
0.000175422
0.000137127
0.000170174
0.000170701
0.000137236
0.000175791
0.00014381
0.00017064
0.000137311
0.00017581
0.000160374
0.0001473
0.000103475
0.000122612
0.00014726
0.000122554
0.000160404
0.000160243
0.000122488
0.000147135
0.000103476
0.000147174
0.000160219
0.000122549
0.000170838
0.000143833
0.000137398
0.000176024
0.000137327
0.00017601
0.000170897
0.000170752
0.000175728
0.000137214
0.000143817
0.000170566
0.000175864
0.00013731
0.000160291
0.0001473
0.000103463
0.000122605
0.000122536
0.000147227
0.000160461
0.000160304
0.000122472
0.000147106
0.000103467
0.000160149
0.00012254
0.000147178
0.000170754
0.000143818
0.00017608
0.000137399
0.000175945
0.000137304
0.000170943
0.000170426
0.000175657
0.000137217
0.000143614
0.000175524
0.000137139
0.000170533
0.00015995
0.00014689
0.000103393
0.000122347
0.000146928
0.000122412
0.000159851
0.000160036
0.000122477
0.000103391
0.000147054
0.000147015
0.000122416
0.000160105
0.000170328
0.000143607
0.000175295
0.000137036
0.000175432
0.000137132
0.00017022
0.000170766
0.000137226
0.000175738
0.000143819
0.000170614
0.00013732
0.000175874
0.000160323
0.000147332
0.000103482
0.000122619
0.000160489
0.000147259
0.000122553
0.000160328
0.000122488
0.000147138
0.000103486
0.000160181
0.000147209
0.000122555
0.000170787
0.000143825
0.00013741
0.000176082
0.000170958
0.000137316
0.000175953
0.000170726
0.000175734
0.000137232
0.000143812
0.000170625
0.000175858
0.000137306
0.000160375
0.000147295
0.000103471
0.000122606
0.000122547
0.000147261
0.000160411
0.000160255
0.000122483
0.000147137
0.000103473
0.000160208
0.000122543
0.000147176
0.000170827
0.000143831
0.000176042
0.000137394
0.000175955
0.000137322
0.000170909
0.000137954
0.000180926
0.000161116
0.000161143
0.000161084
0.000161063
0.00013799
0.000138076
0.000181247
0.000161224
0.00016124
0.000161277
0.00013804
0.0001613
0.000170406
0.000175656
0.000137215
0.0001436
0.000175517
0.000137118
0.000170544
0.000159976
0.000146861
0.000103387
0.000122339
0.000146937
0.000122408
0.000159844
0.000160001
0.000122474
0.000103384
0.000147061
0.000146987
0.000122405
0.000160139
0.000170329
0.000143598
0.000175289
0.000137027
0.000175428
0.000137123
0.000170208
0.000170774
0.000175737
0.000137232
0.000143819
0.00017061
0.000175876
0.000137327
0.000160324
0.000147335
0.000103482
0.000122627
0.000160492
0.000147261
0.000122558
0.000160335
0.000122494
0.000147141
0.000103487
0.000160183
0.000147212
0.000122562
0.000170786
0.000143821
0.000176091
0.000137417
0.000170961
0.000175955
0.000137322
0.000170753
0.00017573
0.000137211
0.00014381
0.000170592
0.000175869
0.000137307
0.000160299
0.000147302
0.000103464
0.000122603
0.000122536
0.000147228
0.000160461
0.000160305
0.000122472
0.000147108
0.000103467
0.000160156
0.000122539
0.000147179
0.000170767
0.000143813
0.000176086
0.000137395
0.000175948
0.000137301
0.000170944
0.00013807
0.000181233
0.000161227
0.000161212
0.00013803
0.000161285
0.000161272
0.00016063
0.00014739
0.000122619
0.000103562
0.000122684
0.000160473
0.000147418
0.000171148
0.000144029
0.000137409
0.000176173
0.000137505
0.000170987
0.000176309
0.000160632
0.000147349
0.0001226
0.000103538
0.000160431
0.000122664
0.000147387
0.000171153
0.000144024
0.000137397
0.000176167
0.000170953
0.000137487
0.000176303
0.000160552
0.000147369
0.000122616
0.000103553
0.000122674
0.000160527
0.000147399
0.000171093
0.000144015
0.000137415
0.000176221
0.000137486
0.000171028
0.000176245
0.000160622
0.000147345
0.0001226
0.000103544
0.00016044
0.000122665
0.000147414
0.000171143
0.00014402
0.00017616
0.000137393
0.000170947
0.000176292
0.000137484
0.000171221
0.000144038
0.000176436
0.000137564
0.00017644
0.000137497
0.000171276
0.000160553
0.000147379
0.00012261
0.00010355
0.000147422
0.000160531
0.000122668
0.000171093
0.000144015
0.000176206
0.000137411
0.000176249
0.000171025
0.000137482
0.000160696
0.000122727
0.000103547
0.000147526
0.000147489
0.000122673
0.000160695
0.000171145
0.000144016
0.000176515
0.000137567
0.000176378
0.000137474
0.000171361
0.000160613
0.000147347
0.0001226
0.000103544
0.000147417
0.000160455
0.000122664
0.000171137
0.000144014
0.000176163
0.00013739
0.000176297
0.000170962
0.000137481
0.000160605
0.000122725
0.00010354
0.000147534
0.000147462
0.000122661
0.00016076
0.000138639
0.000136871
0.000138653
5.00142e-05
9.38236e-05
2.36114e-05
7.37218e-05
7.37305e-05
2.36126e-05
9.38235e-05
5.0015e-05
2.01024e-05
5.00126e-05
7.60439e-05
7.59998e-05
2.01044e-05
2.36093e-05
9.72734e-05
0.00011265
7.36901e-05
4.79324e-05
0.000112498
4.79229e-05
9.73323e-05
9.72641e-05
0.000112664
7.37023e-05
4.79394e-05
4.79379e-05
0.00011252
9.73156e-05
7.88198e-05
2.14899e-05
2.14928e-05
2.14878e-05
2.14907e-05
7.88438e-05
2.36106e-05
2.01033e-05
5.00131e-05
7.60517e-05
7.60083e-05
2.01054e-05
0.000119515
0.000136518
0.000129896
0.000129894
0.000129655
0.000129664
0.000119606
0.000128458
0.000122158
9.36815e-05
0.000107739
0.000107536
0.000121991
0.000128675
0.000128468
0.000122144
9.36964e-05
0.000107733
0.000122045
0.000107551
0.000128681
0.000123072
0.00013944
0.000139456
0.000137193
0.00012587
0.000142564
0.00014258
0.000139714
0.000128827
0.000145652
0.000145668
0.000142102
0.000131922
0.000148695
0.000148711
0.000144377
0.000135135
0.00015169
0.000151706
0.000146641
0.000138445
0.00015463
0.000154644
0.000148877
0.000141832
0.000157508
0.000157522
0.000150999
0.00014528
0.000160326
0.000160338
0.000153076
0.000148771
0.000163079
0.00016309
0.000155124
0.000152289
0.000165766
0.000165776
0.000157107
0.000155822
0.000168384
0.000168393
0.000159005
0.000159354
0.000170933
0.000170941
0.000160839
0.000162874
0.000173412
0.00017342
0.000162627
0.000166369
0.000175819
0.000175827
0.000164392
0.00016983
0.000178152
0.000178161
0.000166088
0.000173247
0.000180411
0.00018042
0.000167718
0.000176613
0.000182595
0.000182604
0.000169304
0.000179918
0.000184702
0.000184711
0.000170812
0.000183156
0.000186733
0.000186741
0.000172246
0.00018632
0.000188686
0.000188694
0.000173607
0.000189404
0.00019056
0.000190568
0.000174925
0.000192402
0.000192357
0.000192364
0.000176171
0.000195309
0.000194075
0.000194082
0.000177361