/*--------------------------------*- C++ -*----------------------------------*\
| =========                 |                                                 |
| \\      /  F ield         | OpenFOAM: The Open Source CFD Toolbox           |
|  \\    /   O peration     | Version:  2312                                  |
|   \\  /    A nd           | Website:  www.openfoam.com                      |
|    \\/     M anipulation  |                                                 |
\*---------------------------------------------------------------------------*/
FoamFile
{
    version     2.0;
    format      ascii;
    arch        "LSB;label=32;scalar=64";
    class       volScalarField;
    location    "700";
    object      p;
}
// * * * * * * * * * * * * * * * * * * * * * * * * * * * * * * * * * * * * * //

dimensions      [0 2 -2 0 0 0 0];

internalField   nonuniform List<scalar> 
43496
(
0.000735136
0.000735137
0.000737299
0.000735174
0.000735219
0.00073732
0.000735136
0.000735138
0.000735219
0.0007373
0.00073732
0.000735174
0.000735688
0.000735131
0.000735132
0.000735137
0.000735138
0.000739449
0.000739427
0.000735135
0.00073513
0.00073943
0.000739447
0.00073513
0.00073945
0.000735126
0.000739443
0.000735135
0.000739446
0.000739449
0.000739427
0.00073513
0.000735135
0.000739447
0.00073943
0.00073513
0.00073945
0.000735125
0.000739439
0.000739443
0.000735134
0.000739452
0.000735132
0.000735133
0.000739456
0.000739456
0.000735123
0.000739415
0.00073514
0.000739438
0.000735184
0.000739442
0.000739382
0.000735155
0.000739415
0.00073514
0.000739438
0.000735185
0.000739382
0.000739442
0.000735154
0.000739446
0.000739439
0.000737386
0.000737353
0.000737386
0.000739391
0.000735335
0.000739243
0.000739111
0.000739343
0.000735216
0.000735455
0.000739347
0.000739114
0.00073546
0.000739139
0.000735201
0.000739362
0.000735421
0.000739112
0.000739343
0.000735455
0.000735215
0.000739114
0.000739347
0.00073546
0.00073914
0.0007352
0.000739391
0.000735335
0.000739362
0.000735421
0.000739243
0.000739313
0.000738873
0.00073543
0.00073543
0.000739152
0.000739151
0.000735256
0.000781496
0.000781439
0.000781439
0.00078301
0.000746185
0.000746129
0.00074613
0.000747704
0.00078301
0.000753348
0.000781439
0.000781439
0.000754959
0.000754959
0.000783009
0.000753348
0.000781439
0.000781439
0.000754959
0.000754959
0.000781439
0.000754959
0.00075496
0.00078301
0.000753348
0.000781439
0.000754959
0.000754959
0.000753348
0.000747703
0.00074613
0.00074613
0.000747702
0.00074613
0.00074613
0.00074613
0.000747703
0.00074613
0.000770448
0.000783571
0.00077045
0.00078356
0.000783579
0.000770449
0.000770448
0.000783571
0.00077045
0.00078356
0.000781496
0.000781496
0.000781496
0.000755015
0.000755014
0.000755015
0.000755015
0.000770532
0.000783524
0.000781461
0.000772614
0.000770486
0.000772635
0.000783477
0.000783579
0.000770449
0.000770532
0.000781461
0.000783524
0.000772614
0.000772635
0.000770486
0.000783477
0.000783571
0.000783571
0.000771002
0.000770444
0.000770444
0.000748268
0.000748256
0.000748275
0.000748268
0.000748256
0.000746184
0.000746185
0.000746184
0.000735219
0.00074822
0.000746151
0.000748172
0.00073732
0.000748275
0.000735219
0.00074615
0.000748221
0.000748172
0.000737319
0.000748268
0.000748268
0.000735689
0.000735132
0.000735132
0.000783579
0.000770449
0.000783579
0.000770449
0.000783571
0.000783571
0.000771003
0.000770444
0.000770444
0.000752796
0.00076593
0.000752796
0.00076593
0.000765359
0.00075279
0.00075279
0.000765922
0.000765922
0.000770448
0.000783571
0.00077045
0.00078356
0.000770532
0.000783524
0.000781461
0.000772614
0.000770486
0.000772635
0.000783477
0.000770532
0.000783524
0.000781461
0.000772613
0.000770486
0.000772635
0.000783477
0.000765911
0.000752797
0.000765922
0.000752795
0.000765911
0.000752797
0.000765922
0.000752795
0.000765827
0.000763787
0.000752832
0.00075498
0.000765875
0.000763808
0.000752878
0.000765827
0.000763787
0.000752833
0.00075498
0.000765875
0.000763808
0.000752878
0.000783571
0.000783571
0.000771003
0.000770444
0.000770444
0.000783579
0.000770449
0.000752796
0.00076593
0.000765358
0.000752791
0.00075279
0.000765922
0.000765922
0.000752796
0.00076593
0.000770532
0.000783524
0.000781461
0.000772614
0.000770486
0.000772635
0.000783477
0.000770448
0.000783572
0.00077045
0.00078356
0.000770532
0.000781461
0.000783524
0.000772614
0.000772635
0.000770486
0.000783477
0.000765911
0.000752797
0.000765923
0.000752795
0.000765828
0.000763787
0.000752833
0.00075498
0.000765875
0.000763808
0.000752878
0.000765911
0.000752797
0.000765922
0.000752795
0.000765828
0.000763787
0.00075498
0.000752832
0.000763808
0.000765875
0.000752878
0.000770449
0.000783571
0.00077045
0.000783559
0.000770532
0.000781461
0.000783525
0.000772614
0.000772635
0.000770486
0.000783477
0.000770448
0.000783572
0.00077045
0.00078356
0.000765827
0.000763787
0.000752833
0.00075498
0.000765875
0.000763808
0.000752878
0.00076591
0.000752797
0.000765922
0.000752796
0.000765827
0.000763787
0.00075498
0.000752832
0.000763808
0.000765876
0.000752878
0.000765911
0.000752797
0.000765923
0.000752795
0.000783571
0.000783571
0.000771002
0.000770443
0.000770444
0.000783579
0.000770449
0.000752796
0.00076593
0.000765359
0.00075279
0.00075279
0.000765922
0.000765922
0.000752796
0.00076593
0.000770532
0.000781461
0.000783524
0.000772614
0.000772635
0.000770486
0.000783477
0.000770449
0.000783572
0.00077045
0.000783559
0.000770449
0.000783571
0.00077045
0.000783559
0.000765828
0.000763787
0.00075498
0.000752833
0.000763808
0.000765875
0.000752878
0.000765827
0.000763787
0.00075498
0.000752833
0.000763808
0.000765875
0.000752878
0.00076591
0.000752797
0.000765923
0.000752795
0.00076591
0.000752797
0.000765923
0.000752796
0.000783579
0.000770449
0.000783579
0.000770449
0.00076536
0.00075279
0.00075279
0.000765922
0.000765922
0.000752796
0.00076593
0.000752796
0.00076593
0.000748275
0.000748275
0.000748267
0.000748268
0.000748268
0.000748256
0.000748221
0.000746151
0.000748172
0.00074822
0.000746151
0.000748172
0.000748267
0.000748268
0.000748275
0.000748221
0.000746151
0.000748173
0.000748268
0.000748256
0.000746151
0.000748221
0.000748173
0.000735136
0.000748268
0.000748256
0.000735219
0.000746151
0.000748221
0.0007373
0.000748172
0.000737319
0.000735174
0.000735136
0.000748268
0.000748256
0.000735138
0.000748268
0.000748268
0.000748275
0.000735219
0.000746151
0.000748221
0.000737301
0.000748172
0.000737319
0.000735174
0.000735136
0.000748268
0.000748256
0.000735137
0.000748268
0.000748255
0.000735138
0.000748275
0.000735137
0.000748275
0.000735137
0.000774758
0.000770442
0.000770447
0.000774736
0.000774756
0.000774739
0.000770442
0.00077927
0.000779274
0.000783576
0.000779262
0.000783583
0.000774759
0.000770437
0.000774748
0.000774752
0.000770446
0.000779266
0.000779273
0.000783579
0.000783563
0.000779266
0.000779271
0.000783581
0.000779273
0.000774755
0.000774758
0.000770447
0.000770442
0.000774736
0.000774739
0.000774756
0.000770442
0.00077927
0.000779274
0.000783576
0.000779262
0.000783583
0.000774759
0.000770437
0.000774748
0.000774752
0.000770446
0.000779266
0.000779273
0.000783563
0.00078358
0.000779271
0.000779266
0.000783581
0.000779273
0.000774755
0.000774762
0.000770444
0.000770444
0.000774765
0.000774765
0.000770435
0.000779292
0.000783515
0.000779268
0.000783574
0.000779322
0.000779276
0.000783548
0.000779291
0.000783515
0.000779268
0.000783574
0.000779322
0.000779276
0.000783548
0.000774724
0.000770452
0.000774747
0.000770498
0.000774691
0.000774751
0.000770467
0.000774724
0.000770452
0.000774747
0.000770498
0.000774691
0.000774751
0.000770467
0.000779259
0.000783589
0.000783589
0.000779269
0.000779269
0.000783585
0.000743964
0.000748272
0.000743968
0.00074828
0.000743956
0.00074396
0.000743966
0.000748276
0.000748259
0.000748278
0.000743961
0.000743965
0.000743967
0.000743964
0.000748272
0.000743968
0.00074828
0.000743956
0.00074396
0.000743966
0.000748259
0.000748276
0.000748278
0.000743965
0.00074396
0.000743967
0.000739452
0.000735132
0.000735132
0.000739456
0.000739456
0.000735123
0.000743985
0.000748211
0.000748271
0.000743962
0.000748244
0.000744015
0.00074397
0.000743985
0.000748212
0.000748271
0.000743962
0.000748244
0.000744015
0.00074397
0.000743953
0.000748285
0.000748285
0.000748282
0.000743963
0.000743963
0.000739415
0.00073514
0.000739438
0.000735185
0.000739381
0.000739441
0.000735155
0.000739415
0.00073514
0.000739438
0.000735185
0.000739382
0.000739441
0.000735155
0.000779273
0.000774755
0.000779273
0.000774755
0.000774761
0.000770444
0.000770444
0.000774765
0.000774765
0.000770435
0.000779292
0.000783515
0.000779268
0.000783574
0.000779276
0.000779322
0.000783548
0.000779292
0.000783515
0.000779268
0.000783574
0.000779276
0.000779322
0.000783548
0.000774724
0.000770452
0.000774747
0.000770498
0.00077475
0.000770467
0.000774691
0.000774724
0.000770452
0.000774747
0.000770498
0.000774751
0.000770467
0.000774691
0.00077926
0.000783589
0.000783589
0.000779269
0.000779269
0.000783585
0.000757103
0.000761623
0.000757103
0.000761623
0.000761609
0.00076594
0.00076594
0.000765936
0.000761619
0.000761618
0.000757072
0.000752844
0.000757095
0.000752799
0.000757099
0.000757039
0.000752814
0.000757072
0.000752844
0.000757096
0.000752799
0.000757099
0.000757039
0.000752814
0.000761641
0.000765925
0.000765865
0.000761618
0.000765899
0.000761626
0.000761671
0.000761641
0.000765925
0.000765866
0.000761618
0.000765899
0.000761626
0.000761671
0.00075711
0.000752792
0.000752791
0.000757113
0.000757113
0.000752782
0.000774758
0.000770442
0.000770447
0.000774736
0.000774756
0.000774739
0.000770442
0.00077927
0.000779275
0.000783576
0.000779262
0.000783583
0.000774759
0.000770437
0.000774747
0.000774752
0.000770446
0.000779266
0.000779273
0.000783579
0.000783563
0.000779266
0.000779271
0.000783581
0.000761616
0.00076593
0.000765914
0.000761622
0.000765932
0.000761616
0.000761621
0.000757108
0.000757096
0.000752784
0.000752793
0.0007571
0.00076162
0.000765927
0.000761624
0.000765934
0.000761611
0.000757106
0.000757084
0.000752789
0.000752794
0.000752789
0.000757104
0.000757087
0.000761616
0.00076593
0.000765914
0.000761622
0.000765932
0.000761616
0.000761621
0.000757108
0.000757096
0.000752784
0.0007571
0.000752793
0.00076162
0.000765927
0.000761624
0.000765934
0.000761611
0.000757106
0.000757084
0.000752789
0.000752793
0.000757104
0.000757087
0.000752789
0.000774761
0.000770444
0.000770444
0.000774765
0.000774765
0.000770435
0.000779292
0.000783514
0.000779268
0.000783574
0.000779276
0.000779322
0.000783548
0.000779292
0.000783514
0.000779268
0.000783574
0.000779322
0.000779276
0.000783547
0.000774724
0.000770452
0.000774747
0.000770498
0.00077475
0.000774691
0.000770467
0.000774724
0.000770452
0.000774747
0.000770498
0.00077469
0.00077475
0.000770467
0.00077926
0.000783588
0.000783589
0.000779269
0.000779269
0.000783585
0.000779273
0.000774755
0.000757103
0.000761623
0.000761609
0.00076594
0.00076594
0.000765936
0.000761619
0.000761618
0.000757072
0.000752844
0.000757095
0.000752798
0.000757039
0.000757099
0.000752814
0.000757072
0.000752844
0.000757096
0.000752799
0.000757099
0.000757039
0.000752814
0.000761641
0.000765925
0.000765865
0.000761618
0.000761672
0.000765899
0.000761626
0.000761641
0.000765925
0.000765865
0.000761618
0.000765898
0.000761626
0.000761672
0.00075711
0.000752791
0.000752791
0.000757113
0.000757113
0.000752782
0.000757103
0.000761623
0.000774758
0.000770442
0.000770446
0.000774736
0.000774756
0.000774739
0.000770442
0.00077927
0.000779274
0.000783576
0.000779262
0.000783583
0.000774759
0.000770437
0.000774748
0.000774752
0.000770446
0.000779266
0.000779273
0.000783579
0.000783563
0.000779266
0.000779271
0.000783581
0.000761616
0.000765914
0.000765931
0.000761622
0.000765933
0.000761621
0.000761616
0.000757108
0.000757096
0.000752784
0.000752793
0.0007571
0.00076162
0.000765927
0.000761624
0.000765934
0.000761612
0.000757106
0.000757084
0.000752794
0.000752789
0.000752789
0.000757087
0.000757104
0.000761616
0.000765931
0.000765914
0.000761622
0.000765932
0.000761616
0.000761621
0.000757108
0.000757096
0.000752784
0.0007571
0.000752793
0.00076162
0.000765927
0.000761624
0.000765934
0.000761611
0.000757106
0.000757084
0.000752789
0.000752793
0.000757104
0.000757087
0.000752789
0.000774757
0.000770448
0.000770442
0.000774735
0.000774738
0.000774756
0.000770442
0.00077927
0.000779275
0.000783575
0.000779262
0.000783583
0.000774759
0.000770438
0.000774748
0.000774751
0.000770446
0.000779267
0.000779273
0.000783562
0.000783579
0.000779272
0.000779266
0.000783581
0.000774758
0.000770442
0.000770447
0.000774736
0.000774756
0.000774739
0.000770442
0.00077927
0.000779274
0.000783576
0.000779262
0.000783583
0.000774759
0.000770437
0.000774748
0.000774752
0.000770446
0.000779266
0.000779273
0.000783579
0.000783563
0.000779266
0.000779271
0.000783581
0.000761616
0.000765913
0.00076593
0.000761623
0.000765932
0.000761622
0.000761616
0.000757108
0.000757096
0.000752785
0.0007571
0.000752793
0.00076162
0.000765926
0.000761624
0.000765934
0.000761612
0.000757106
0.000757084
0.000752794
0.000752789
0.000757086
0.000757104
0.000752789
0.000761616
0.00076593
0.000765914
0.000761622
0.000765932
0.000761616
0.000761621
0.000757108
0.000757096
0.000752784
0.0007571
0.000752793
0.00076162
0.000765927
0.000761624
0.000765934
0.000761611
0.000757106
0.000757084
0.000752789
0.000752794
0.000757104
0.000757087
0.000752789
0.000774762
0.000770444
0.000770444
0.000774765
0.000774765
0.000770435
0.000779291
0.000783516
0.000779268
0.000783574
0.000779276
0.000779322
0.000783548
0.000779292
0.000783515
0.000779268
0.000783575
0.000779322
0.000779276
0.000783548
0.000774724
0.000770451
0.000774747
0.000770497
0.000774751
0.000774692
0.000770467
0.000774724
0.000770451
0.000774747
0.000770498
0.000774691
0.000774751
0.000770467
0.00077926
0.000783589
0.000783589
0.000779269
0.000779269
0.000783585
0.000779273
0.000774755
0.000757103
0.000761623
0.000761609
0.00076594
0.00076594
0.000765936
0.000761618
0.000761618
0.000757072
0.000752844
0.000757096
0.000752798
0.000757039
0.000757099
0.000752814
0.000757072
0.000752844
0.000757096
0.000752798
0.000757099
0.000757039
0.000752813
0.000761641
0.000765925
0.000765866
0.000761617
0.000761671
0.000765899
0.000761626
0.000761641
0.000765926
0.000765866
0.000761618
0.000765899
0.000761626
0.000761671
0.00075711
0.000752791
0.000752791
0.000757113
0.000757113
0.000752782
0.000757103
0.000761623
0.000774758
0.000770447
0.000770442
0.000774735
0.000774739
0.000774756
0.000770442
0.00077927
0.000779274
0.000783576
0.000779262
0.000783583
0.000774759
0.000770437
0.000774748
0.000774752
0.000770446
0.000779266
0.000779273
0.000783563
0.000783579
0.000779271
0.000779266
0.000783581
0.000774758
0.000770447
0.000770442
0.000774735
0.000774738
0.000774756
0.000770442
0.00077927
0.000779274
0.000783576
0.000779262
0.000783583
0.000774759
0.000770437
0.000774748
0.000774752
0.000770446
0.000779266
0.000779274
0.000783562
0.000783579
0.000779272
0.000779266
0.000783581
0.000761616
0.000765914
0.00076593
0.000761623
0.000765933
0.000761621
0.000761616
0.000757108
0.000757096
0.000752784
0.0007571
0.000752793
0.00076162
0.000765927
0.000761624
0.000765934
0.000761611
0.000757106
0.000757084
0.000752793
0.000752789
0.000757087
0.000757104
0.000752789
0.000761616
0.000765913
0.00076593
0.000761623
0.000765932
0.000761621
0.000761616
0.000757108
0.000757096
0.000752784
0.0007571
0.000752793
0.00076162
0.000765927
0.000761624
0.000765934
0.000761612
0.000757106
0.000757083
0.000752794
0.000752789
0.000757087
0.000757104
0.000752789
0.000779273
0.000774755
0.000779273
0.000774755
0.000761609
0.00076594
0.00076594
0.000765936
0.000761619
0.000761618
0.000757072
0.000752844
0.000757096
0.000752798
0.000752814
0.000757039
0.000757099
0.000757072
0.000752844
0.000757096
0.000752798
0.000752814
0.000757039
0.000757099
0.000761641
0.000765925
0.000765866
0.000761618
0.000765899
0.000761671
0.000761626
0.000761641
0.000765925
0.000765866
0.000761618
0.000765899
0.000761671
0.000761626
0.00075711
0.000752791
0.000752791
0.000752782
0.000757113
0.000757113
0.000757103
0.000761623
0.000757103
0.000761623
0.000743967
0.000743967
0.000743985
0.00074821
0.000748271
0.000743962
0.000748244
0.00074397
0.000744016
0.000743985
0.000748211
0.000748271
0.000743962
0.000748244
0.00074397
0.000744015
0.000743954
0.000748285
0.000748285
0.000748282
0.000743963
0.000743963
0.000743964
0.000748272
0.000743968
0.00074828
0.000743956
0.000743961
0.000743966
0.000748276
0.000748259
0.000743961
0.000748278
0.000743965
0.000743985
0.000748211
0.000748271
0.000743962
0.00074397
0.000748244
0.000744015
0.000743985
0.00074821
0.000748271
0.000743962
0.000744015
0.000748244
0.00074397
0.000743954
0.000748285
0.000748285
0.000743963
0.000748282
0.000743963
0.000743964
0.000748272
0.000743968
0.00074828
0.000743955
0.00074396
0.000743966
0.000748276
0.000748259
0.00074396
0.000748278
0.000743965
0.000739449
0.000739426
0.00073513
0.000739429
0.000739447
0.000743964
0.000748272
0.000743968
0.000743956
0.00074828
0.000743961
0.000743967
0.000748258
0.000748276
0.000743966
0.000748278
0.00074396
0.00073945
0.000739449
0.000739427
0.00073513
0.000735135
0.000739447
0.00073943
0.00073513
0.000743964
0.000748272
0.000743968
0.00074828
0.000743956
0.00074396
0.000743966
0.000748276
0.000748259
0.000748278
0.00074396
0.000743965
0.00073945
0.000735125
0.000739439
0.000739443
0.000735134
0.000743985
0.000748211
0.000748271
0.000743961
0.00074397
0.000748245
0.000744015
0.000743985
0.000748211
0.000748271
0.000743962
0.000744015
0.000748245
0.00074397
0.000743953
0.000748285
0.000748285
0.000743963
0.000748282
0.000743963
0.000743967
0.000739449
0.000739426
0.000735135
0.00073513
0.00073943
0.000739447
0.00073513
0.000743964
0.000748272
0.000743968
0.000743955
0.00074828
0.00074396
0.000743967
0.000748259
0.000748276
0.000743965
0.000748278
0.00074396
0.00073945
0.000735125
0.000739443
0.000735134
0.000739449
0.000739426
0.000735135
0.00073513
0.000739429
0.000739447
0.00073513
0.000743964
0.000748272
0.000743968
0.00074828
0.000743955
0.00074396
0.000743967
0.000748259
0.000748276
0.000748278
0.000743965
0.00074396
0.00073945
0.000735126
0.000739439
0.000739443
0.000735134
0.000743967
0.000739446
0.000743967
0.000739446
0.000781531
0.000781531
0.00077267
0.000772705
0.000772705
0.000772752
0.000781578
0.000779394
0.000783286
0.000783287
0.000779827
0.000779568
0.000779568
0.000783447
0.000746218
0.000746218
0.000737433
0.000746265
0.000744087
0.000747981
0.000747984
0.000744519
0.000748143
0.00074426
0.00074426
0.000779394
0.000783286
0.000783287
0.000779828
0.000779568
0.000779568
0.000783446
0.00075697
0.000756532
0.000753089
0.000753089
0.00075681
0.00075681
0.000752916
0.000779395
0.000783285
0.000783286
0.000779828
0.000779568
0.000779569
0.000783446
0.000756971
0.000756532
0.000753089
0.000753089
0.000756809
0.00075681
0.000752916
0.000779394
0.000783286
0.000783287
0.000779828
0.000779568
0.000779568
0.000783447
0.000756971
0.000756532
0.000753089
0.000753089
0.000756809
0.00075681
0.000752915
0.00075697
0.000756532
0.000753089
0.000753089
0.000752915
0.000756809
0.00075681
0.000744087
0.000747981
0.000747982
0.000744519
0.000748142
0.00074426
0.00074426
0.000744087
0.000747981
0.000747981
0.000744519
0.00074426
0.000748142
0.00074426
0.000744087
0.000747981
0.000747982
0.000744519
0.00074426
0.000748143
0.00074426
0.000781531
0.000781531
0.00077267
0.000772705
0.000772705
0.000772752
0.000781578
0.000781531
0.000781531
0.00077267
0.000772705
0.000772705
0.000772752
0.000781578
0.000781531
0.000781531
0.00077267
0.000772705
0.000772705
0.000772752
0.000781578
0.000763843
0.000755048
0.000755048
0.000763877
0.000763877
0.000763924
0.000755095
0.000763843
0.000755048
0.000755048
0.000763877
0.000763877
0.000763924
0.000755095
0.000763843
0.000755048
0.000755048
0.000763877
0.000763877
0.000763924
0.000755095
0.000763843
0.000755048
0.000755048
0.000763877
0.000763877
0.000763924
0.000755095
0.000774423
0.000770529
0.000770769
0.000774653
0.000774657
0.000774426
0.000770773
0.000779559
0.000783377
0.000779311
0.000783495
0.000779473
0.000779338
0.000783275
0.000774451
0.000770513
0.000774701
0.000770648
0.000774553
0.000774671
0.000770734
0.000779599
0.000779357
0.00078348
0.00078325
0.000779353
0.000779594
0.000783247
0.000774423
0.000770769
0.000770528
0.000774653
0.000774425
0.000774657
0.000770774
0.000779559
0.000783377
0.000779311
0.000783495
0.000779472
0.000779337
0.000783275
0.000774451
0.000770513
0.000774701
0.000770648
0.000774553
0.000774672
0.000770734
0.000779599
0.000779357
0.00078325
0.000783481
0.000779594
0.000779353
0.000783247
0.000774622
0.000774185
0.000770743
0.000770743
0.000774462
0.000774462
0.00077057
0.000746218
0.000746218
0.000737386
0.000737434
0.000746265
0.000746218
0.000746218
0.000737386
0.000737433
0.000746265
0.000746218
0.000746218
0.000737354
0.000737385
0.000737387
0.000737433
0.000746265
0.000739112
0.000739342
0.000735215
0.000735455
0.000739347
0.000739114
0.00073546
0.000744251
0.000748072
0.000748191
0.000744004
0.000747969
0.000744165
0.000744031
0.00074429
0.000744049
0.000748176
0.000747944
0.000747941
0.000744046
0.000744285
0.000739112
0.000739343
0.000735455
0.000735215
0.000739114
0.000739347
0.00073546
0.000744251
0.000748073
0.000748191
0.000744004
0.00074797
0.000744165
0.00074403
0.00074429
0.000744049
0.000747944
0.000748177
0.000747942
0.000744285
0.000744046
0.00073914
0.0007352
0.000739362
0.00073542
0.000739313
0.000738873
0.000735429
0.00073543
0.000739149
0.000739153
0.000735256
0.000774623
0.000774185
0.000770743
0.000770743
0.00077057
0.000774462
0.000774463
0.000761743
0.000762176
0.000765637
0.000765637
0.000765797
0.000761917
0.000761916
0.000774423
0.000770528
0.000770769
0.000774653
0.000774657
0.000774425
0.000770774
0.000779559
0.000783377
0.00077931
0.000783495
0.000779338
0.000779472
0.000783274
0.00077445
0.000770513
0.000774701
0.000770648
0.000774671
0.000774553
0.000770734
0.000779599
0.000779356
0.000783481
0.00078325
0.000779353
0.000779594
0.000783247
0.000774422
0.000770528
0.000770769
0.000774653
0.000774657
0.000774425
0.000770774
0.000779559
0.000783377
0.000779311
0.000783495
0.000779338
0.000779473
0.000783274
0.00077445
0.000770513
0.0007747
0.000770648
0.000774671
0.000770734
0.000774553
0.000779599
0.000779356
0.000783481
0.00078325
0.000779353
0.000779594
0.000783247
0.000761947
0.000765831
0.0007656
0.000761706
0.000765597
0.000761702
0.000761943
0.000756798
0.000752994
0.000757049
0.000752859
0.000756901
0.000757019
0.00075308
0.000761908
0.000765846
0.000765728
0.00076166
0.000761821
0.000765625
0.000761687
0.00075677
0.000757001
0.000752875
0.000753115
0.000757005
0.000756773
0.00075312
0.000761948
0.000765832
0.000765599
0.000761706
0.000765597
0.000761702
0.000761943
0.000756798
0.000752994
0.000757049
0.000752859
0.00075702
0.000756901
0.00075308
0.000761908
0.000765846
0.000765727
0.00076166
0.000765624
0.000761687
0.000761822
0.00075677
0.000757001
0.000752875
0.000753115
0.000757005
0.000756773
0.00075312
0.000774622
0.000774185
0.000770743
0.000770743
0.000774462
0.000774462
0.000770569
0.000761744
0.000762176
0.000765636
0.000765636
0.000761917
0.000765797
0.000761917
0.000774422
0.000770529
0.000770769
0.000774653
0.000774656
0.000774425
0.000770774
0.000779559
0.000783377
0.00077931
0.000783495
0.000779338
0.000779472
0.000783274
0.00077445
0.000770513
0.000774701
0.000770648
0.000774671
0.000774553
0.000770734
0.000779599
0.000779357
0.000783481
0.00078325
0.000779353
0.000779594
0.000783247
0.000774423
0.000770769
0.000770528
0.000774653
0.000774425
0.000774657
0.000770774
0.000779559
0.000783378
0.00077931
0.000783495
0.000779337
0.000779472
0.000783275
0.000774451
0.000770512
0.000774701
0.000770647
0.000774672
0.000770734
0.000774554
0.000779599
0.000779356
0.00078325
0.000783481
0.000779594
0.000779353
0.000783247
0.000761948
0.000765831
0.0007656
0.000761706
0.000765597
0.000761703
0.000761943
0.000756798
0.000752994
0.000757049
0.000752859
0.000756901
0.000757019
0.00075308
0.000761908
0.000765846
0.000765728
0.00076166
0.000761822
0.000765625
0.000761687
0.00075677
0.000757001
0.000752875
0.000753115
0.000757005
0.000756772
0.00075312
0.000761947
0.0007656
0.000765832
0.000761706
0.000765597
0.000761943
0.000761702
0.000756798
0.000752994
0.000757049
0.000752859
0.00075702
0.000756902
0.00075308
0.000761908
0.000765846
0.000765729
0.00076166
0.000765625
0.000761686
0.000761821
0.00075677
0.000757001
0.000753115
0.000752875
0.000756773
0.000757005
0.00075312
0.000774423
0.000770769
0.000770528
0.000774653
0.000774426
0.000774657
0.000770773
0.000779559
0.000783378
0.00077931
0.000783495
0.000779472
0.000779337
0.000783275
0.00077445
0.000770513
0.000774701
0.000770647
0.000774554
0.000774671
0.000770734
0.000779598
0.000779356
0.00078325
0.000783481
0.000779594
0.000779353
0.000783248
0.000761947
0.000765831
0.0007656
0.000761706
0.000765597
0.000761703
0.000761943
0.000756798
0.000752994
0.000757049
0.000752859
0.00075308
0.000756901
0.000757019
0.000761908
0.000765846
0.000765727
0.00076166
0.000765625
0.000761822
0.000761687
0.00075677
0.000757001
0.000752875
0.000753115
0.000753119
0.000757005
0.000756773
0.000761947
0.0007656
0.000765831
0.000761706
0.000765598
0.000761942
0.000761702
0.000756798
0.000752994
0.000757049
0.00075286
0.000757019
0.000756902
0.00075308
0.000761908
0.000765846
0.000765729
0.00076166
0.000765625
0.000761687
0.000761821
0.00075677
0.000757
0.000753115
0.000752875
0.000756773
0.000757004
0.00075312
0.000774623
0.000774185
0.000770743
0.000770743
0.000774462
0.000774462
0.000770569
0.000761743
0.000762176
0.000765636
0.000765637
0.000761917
0.000765798
0.000761917
0.000774423
0.000770769
0.000770529
0.000774653
0.000774425
0.000774657
0.000770774
0.000779559
0.000783377
0.000779311
0.000783495
0.000779472
0.000779338
0.000783275
0.000774451
0.000770513
0.000774701
0.000770648
0.000774553
0.000774671
0.000770734
0.000779599
0.000779357
0.00078325
0.000783481
0.000779594
0.000779353
0.000783247
0.000761947
0.0007656
0.000765832
0.000761706
0.000765597
0.000761943
0.000761702
0.000756798
0.000752994
0.000757049
0.000752859
0.00075308
0.000756901
0.00075702
0.000761908
0.000765846
0.000765728
0.00076166
0.000765625
0.000761822
0.000761687
0.00075677
0.000757001
0.000753115
0.000752875
0.00075312
0.000756773
0.000757005
0.000761948
0.0007656
0.000765831
0.000761706
0.000765597
0.000761943
0.000761702
0.000756798
0.000752994
0.000757049
0.000752859
0.000757019
0.000756901
0.00075308
0.000761908
0.000765846
0.000765728
0.00076166
0.000765625
0.000761687
0.000761822
0.00075677
0.000757001
0.000753115
0.000752875
0.000756773
0.000757005
0.00075312
0.000761743
0.000762176
0.000765637
0.000765637
0.000765798
0.000761917
0.000761916
0.000744251
0.000748072
0.000748191
0.000744004
0.000744031
0.000747969
0.000744166
0.000744291
0.000744049
0.000748177
0.000747944
0.000744046
0.000747942
0.000744286
0.000744251
0.000748072
0.000748191
0.000744004
0.000747968
0.000744031
0.000744165
0.000744291
0.000744049
0.000748177
0.000747944
0.000747941
0.000744046
0.000744286
0.000744251
0.000748073
0.000748191
0.000744004
0.000744031
0.000747969
0.000744165
0.000744291
0.000744049
0.000748177
0.000747944
0.000744046
0.000747941
0.000744286
0.000744251
0.000748074
0.000748192
0.000744004
0.00074797
0.00074403
0.000744165
0.00074429
0.000744049
0.000747944
0.000748177
0.000747942
0.000744286
0.000744045
0.000739112
0.000739343
0.000735455
0.000735215
0.000739114
0.000739347
0.00073546
0.000744251
0.000748074
0.000748192
0.000744004
0.000744166
0.000747971
0.00074403
0.00074429
0.000744049
0.000747944
0.000748177
0.000744286
0.000747942
0.000744046
0.00073914
0.0007352
0.000739391
0.000735335
0.000739244
0.000739361
0.00073542
0.000739112
0.000739343
0.000735455
0.000735215
0.000739114
0.000739347
0.00073546
0.000744251
0.000748073
0.000748191
0.000744004
0.000744165
0.00074797
0.00074403
0.000744291
0.000744049
0.000747944
0.000748176
0.000744285
0.000747942
0.000744046
0.00073914
0.0007352
0.000739391
0.000735335
0.000739243
0.000739362
0.000735421
0.00167478
0.00167314
0.00167478
0.00167244
0.00167251
0.00167244
0.00167245
0.00167245
0.00167244
0.00167251
0.00167244
0.00167681
0.0016768
0.00167244
0.00167681
0.00167244
0.0016768
0.00167679
0.00167254
0.00167681
0.00167245
0.00167677
0.0016768
0.00167249
0.00167679
0.00167254
0.00167681
0.00167245
0.0016768
0.00167677
0.00167249
0.00167682
0.00167243
0.00167243
0.00167681
0.00167681
0.00167243
0.0016768
0.00167681
0.0016768
0.00167244
0.00167681
0.00167244
0.0016767
0.00167636
0.00167283
0.00167283
0.00167656
0.00167656
0.00167264
0.00167657
0.00167268
0.00167676
0.00167256
0.00167675
0.00167663
0.00167281
0.00167657
0.00167268
0.00167676
0.00167256
0.00167663
0.00167675
0.00167281
0.0016659
0.00166582
0.00166582
0.00166739
0.00163009
0.00163
0.00163
0.00163157
0.00159434
0.00159426
0.00159426
0.00159583
0.00155867
0.00155858
0.00155858
0.00156014
0.00152305
0.00152296
0.00152296
0.00152452
0.00148748
0.00148739
0.00148739
0.00148895
0.00145197
0.00145188
0.00145188
0.00145344
0.00141651
0.00141641
0.00141641
0.00141797
0.00138108
0.00138098
0.00138098
0.00138254
0.0013457
0.00134559
0.00134559
0.00134715
0.00131035
0.00131024
0.00131024
0.0013118
0.00127502
0.00127491
0.00127491
0.00127647
0.00123972
0.00123962
0.00123962
0.00124118
0.00120444
0.00120435
0.00120435
0.0012059
0.00116918
0.00116909
0.00116909
0.00117065
0.00113394
0.00113385
0.00113385
0.0011354
0.0010987
0.00109862
0.00109862
0.00110017
0.00106347
0.00106339
0.00106339
0.00106495
0.00102825
0.00102817
0.00102817
0.00102973
0.000993026
0.00099295
0.00099295
0.00099451
0.000957798
0.000957725
0.000957725
0.000959287
0.000922563
0.000922493
0.000922493
0.000924056
0.000887318
0.000887251
0.000887251
0.000888816
0.00085206
0.000851997
0.000851997
0.000853564
0.000816787
0.000816727
0.000816727
0.000818296
0.00166739
0.00163731
0.00166582
0.00166582
0.00163895
0.00163895
0.00166739
0.00163731
0.00166582
0.00166582
0.00163895
0.00163895