/*--------------------------------*- C++ -*----------------------------------*\
| =========                 |                                                 |
| \\      /  F ield         | OpenFOAM: The Open Source CFD Toolbox           |
|  \\    /   O peration     | Version:  2312                                  |
|   \\  /    A nd           | Website:  www.openfoam.com                      |
|    \\/     M anipulation  |                                                 |
\*---------------------------------------------------------------------------*/
FoamFile
{
    version     2.0;
    format      ascii;
    arch        "LSB;label=32;scalar=64";
    class       volVectorField;
    location    "700";
    object      U;
}
// * * * * * * * * * * * * * * * * * * * * * * * * * * * * * * * * * * * * * //

dimensions      [0 1 -1 0 0 0 0];

internalField   nonuniform List<vector> 
43496
(
(-1.66061e-05 -2.91305e-07 0.0914271)
(-5.85483e-06 3.3536e-06 0.0716036)
(-6.11769e-06 1.13188e-05 0.107488)
(-7.7782e-06 2.04172e-05 0.0930677)
(-2.72993e-05 -6.88787e-07 0.0985809)
(-1.44065e-05 -2.59707e-06 0.109908)
(-1.6603e-05 3.0191e-07 0.0914271)
(-1.20309e-05 1.22041e-06 0.0822862)
(-2.72949e-05 7.0937e-07 0.0985808)
(-1.12788e-05 6.11147e-06 0.107486)
(-1.43965e-05 2.60474e-06 0.109907)
(-2.04001e-05 7.78306e-06 0.0930664)
(-4.16137e-05 4.16209e-05 0.104317)
(-9.87312e-06 6.92237e-06 0.0876051)
(-6.93002e-06 9.87268e-06 0.0876078)
(-3.35088e-06 5.87471e-06 0.071604)
(-1.20663e-06 1.20495e-05 0.0822866)
(4.27445e-06 -7.19961e-07 0.0768854)
(5.01733e-06 -2.60615e-07 0.0913834)
(-1.59976e-05 -1.14334e-06 0.0899498)
(-7.44034e-06 1.35885e-07 0.0787027)
(5.53585e-06 -5.58684e-07 0.0899001)
(3.87402e-06 -1.95199e-07 0.0786623)
(-7.44556e-06 5.25495e-07 0.0769322)
(4.9252e-06 -9.04632e-07 0.0684137)
(-1.22964e-05 -1.3943e-06 0.0858855)
(5.87342e-06 -7.7175e-07 0.0858294)
(-6.07787e-06 1.57566e-07 0.0684745)
(4.33086e-06 -2.57826e-06 0.0715506)
(4.26269e-06 7.00621e-07 0.0768849)
(5.01537e-06 2.40079e-07 0.0913834)
(-7.43819e-06 -1.27234e-07 0.0787026)
(-1.59884e-05 1.15772e-06 0.0899494)
(3.87262e-06 1.78253e-07 0.0786622)
(5.51509e-06 5.40321e-07 0.0899003)
(-7.43457e-06 -5.1259e-07 0.0769315)
(4.9105e-06 8.96254e-07 0.0684157)
(-1.22761e-05 1.40266e-06 0.0858857)
(7.16862e-06 -6.33393e-07 0.0822355)
(5.8595e-06 7.65049e-07 0.0858304)
(-6.06219e-06 -1.42094e-07 0.0684763)
(3.12863e-06 -3.13128e-06 0.0836177)
(-3.59916e-06 5.11447e-06 0.068375)
(-5.14519e-06 3.5726e-06 0.0683808)
(2.64099e-06 -4.06888e-06 0.0683195)
(4.06343e-06 -2.64834e-06 0.068325)
(-7.24602e-06 7.21306e-06 0.0836639)
(7.82544e-06 -3.81127e-06 0.091673)
(-8.07382e-06 4.01226e-06 0.0816084)
(3.57952e-06 -3.47723e-06 0.0875569)
(-2.3992e-05 1.42066e-05 0.0963246)
(3.87091e-06 -3.01979e-06 0.0815579)
(1.10474e-05 -5.54043e-06 0.0962766)
(-1.67741e-05 1.02587e-05 0.0917201)
(3.79994e-06 -7.82447e-06 0.0916798)
(-4.04571e-06 8.06116e-06 0.0816146)
(3.451e-06 -3.59115e-06 0.0875585)
(-1.42344e-05 2.39794e-05 0.0963281)
(5.52845e-06 -1.10181e-05 0.0962795)
(3.00244e-06 -3.87219e-06 0.0815631)
(-1.02949e-05 1.67638e-05 0.0917272)
(2.55648e-06 -4.34891e-06 0.0715504)
(6.16929e-07 -7.17613e-06 0.0822358)
(-1.16387e-05 -3.4718e-06 0.115012)
(-1.00295e-05 1.00579e-05 0.112469)
(-1.1632e-05 3.50371e-06 0.11501)
(3.10076e-06 -8.78e-06 0.0930117)
(-1.1668e-05 4.96131e-05 0.0995932)
(3.79941e-06 -3.18392e-05 0.0995327)
(2.74189e-05 -1.19646e-06 0.102871)
(8.0588e-06 -4.3194e-07 0.0985247)
(-2.72087e-05 -2.5329e-06 0.0976283)
(-5.22845e-05 -1.01056e-06 0.10362)
(8.9923e-06 -8.68861e-07 0.0975629)
(2.59027e-05 -8.77462e-07 0.103526)
(-5.29835e-05 -3.57507e-06 0.102988)
(3.12597e-05 3.78192e-07 0.101328)
(-2.46863e-05 -5.07397e-06 0.0956754)
(1.0381e-05 4.43298e-08 0.0956079)
(-5.24084e-05 -7.70669e-06 0.101433)
(2.74048e-05 1.17799e-06 0.102871)
(8.05756e-06 4.06895e-07 0.0985247)
(-5.22826e-05 1.0411e-06 0.10362)
(-2.72001e-05 2.5569e-06 0.0976278)
(2.59012e-05 8.51617e-07 0.103526)
(8.97439e-06 8.47625e-07 0.0975632)
(-5.30036e-05 3.60571e-06 0.102987)
(3.1281e-05 -3.94732e-07 0.101328)
(-2.46631e-05 5.07925e-06 0.0956748)
(8.77653e-06 -3.12308e-06 0.0930108)
(-4.96092e-05 1.16644e-05 0.099591)
(1.03725e-05 -4.4634e-08 0.0956083)
(-5.24021e-05 7.71321e-06 0.101431)
(3.18654e-05 -3.82638e-06 0.0995309)
(1.01394e-05 -1.01696e-05 0.0975424)
(2.38193e-05 -2.38391e-05 0.104202)
(-2.634e-05 4.13662e-05 0.101507)
(-4.1385e-05 2.63401e-05 0.10151)
(2.74428e-05 -1.10385e-05 0.101443)
(1.10452e-05 -2.74667e-05 0.10144)
(-2.21854e-05 2.21784e-05 0.0975979)
(-9.59954e-06 -9.57878e-06 0.112516)
(1.11271e-05 -5.98916e-06 0.107501)
(-5.97215e-06 1.11379e-05 0.1075)
(-2.3975e-05 -2.39801e-05 0.104199)
(-9.96408e-06 -9.94964e-06 0.112479)
(1.12729e-05 -6.11394e-06 0.107492)
(-6.1024e-06 1.12921e-05 0.107491)
(-2.38423e-05 -2.38518e-05 0.104201)
(2.39713e-05 2.39887e-05 0.104199)
(-4.16802e-05 -4.16715e-05 0.104316)
(-5.95665e-06 -1.10956e-05 0.107499)
(5.94381e-06 -1.11103e-05 0.107499)
(-6.05269e-06 -1.12145e-05 0.107492)
(6.03707e-06 -1.12364e-05 0.107491)
(-2.40032e-05 2.3953e-05 0.104199)
(4.16699e-05 -4.16845e-05 0.104317)
(-1.11348e-05 -5.9627e-06 0.1075)
(-1.10985e-05 5.95739e-06 0.107498)
(-1.12503e-05 -6.05928e-06 0.107493)
(-1.12146e-05 6.05363e-06 0.10749)
(1.11206e-05 5.94736e-06 0.107498)
(1.12473e-05 -6.08334e-06 0.107494)
(1.12213e-05 6.05024e-06 0.107492)
(2.39704e-05 -2.39931e-05 0.104198)
(-4.16653e-05 4.16759e-05 0.104316)
(5.98396e-06 1.11316e-05 0.1075)
(-6.06583e-06 1.12533e-05 0.107493)
(6.0837e-06 1.12479e-05 0.107493)
(4.16742e-05 4.16635e-05 0.104316)
(2.38508e-05 2.38625e-05 0.104202)
(-6.07898e-06 -1.12553e-05 0.10749)
(6.07346e-06 -1.12503e-05 0.10749)
(-2.38705e-05 2.3826e-05 0.104202)
(-1.1289e-05 -6.09402e-06 0.107491)
(-1.12517e-05 6.08652e-06 0.107488)
(1.12851e-05 6.07568e-06 0.107488)
(2.38405e-05 -2.38625e-05 0.104201)
(6.1106e-06 1.12819e-05 0.10749)
(-3.05485e-07 -1.66443e-05 0.0913958)
(6.60232e-07 7.15726e-06 0.0821924)
(-1.17393e-06 -1.21165e-05 0.0822522)
(-2.65117e-07 5.03735e-06 0.0913443)
(-2.6037e-06 4.269e-06 0.0715101)
(3.23927e-06 -5.89263e-06 0.0715754)
(-1.66494e-05 -2.88699e-07 0.091396)
(7.14869e-06 6.72486e-07 0.0821933)
(-1.21104e-05 -1.184e-06 0.082253)
(5.03553e-06 -2.6168e-07 0.0913444)
(9.59044e-06 -9.58845e-06 0.112516)
(-9.58956e-06 9.60953e-06 0.112515)
(9.60673e-06 9.60229e-06 0.112515)
(-9.87749e-06 -9.85797e-06 0.112488)
(9.87329e-06 -9.87253e-06 0.112488)
(-9.86252e-06 9.88763e-06 0.112487)
(9.89131e-06 9.8869e-06 0.112488)
(2.72566e-05 -6.98038e-07 0.0985603)
(-8.78332e-06 3.13979e-06 0.0929753)
(1.39416e-05 -2.51464e-06 0.109933)
(1.11672e-05 -6.01847e-06 0.107498)
(2.04522e-05 -7.81271e-06 0.0930396)
(1.40489e-05 -2.53503e-06 0.109927)
(-8.13144e-06 -4.59402e-07 0.0984987)
(4.30359e-06 -2.6519e-06 0.0715124)
(-5.9122e-06 3.30337e-06 0.0715732)
(-7.13057e-07 2.72618e-05 0.0985599)
(-2.49838e-06 1.39535e-05 0.109931)
(3.14455e-06 -8.77301e-06 0.0929755)
(-6.00131e-06 1.11783e-05 0.107497)
(-2.51567e-06 1.40504e-05 0.109926)
(-7.78056e-06 2.04658e-05 0.0930389)
(-3.99249e-07 -8.14246e-06 0.0984983)
(-3.53976e-06 -3.53596e-06 0.0875183)
(-3.51152e-06 -3.54849e-06 0.0875172)
(4.17374e-05 4.17229e-05 0.104315)
(9.96648e-06 6.90003e-06 0.087576)
(6.94631e-06 9.94651e-06 0.0875745)
(6.26343e-07 7.18876e-06 0.0822262)
(-2.6027e-07 5.01926e-06 0.0913755)
(-2.54081e-06 4.29254e-06 0.0715407)
(7.17038e-06 6.26859e-07 0.0822271)
(5.01688e-06 -2.61166e-07 0.0913756)
(9.9662e-06 -9.96386e-06 0.11248)
(-9.95698e-06 9.97737e-06 0.112478)
(9.95446e-06 9.97483e-06 0.112478)
(2.72519e-05 -6.8816e-07 0.0985813)
(-8.78485e-06 3.10151e-06 0.0930044)
(1.43232e-05 -2.61167e-06 0.109913)
(-8.0336e-06 -4.57739e-07 0.0985197)
(1.44139e-05 -2.62439e-06 0.109908)
(4.32492e-06 -2.59239e-06 0.071543)
(-7.1232e-07 2.72555e-05 0.0985809)
(-2.58277e-06 1.43352e-05 0.109912)
(3.10805e-06 -8.77443e-06 0.0930045)
(-3.99158e-07 -8.04674e-06 0.0985194)
(-2.6017e-06 1.44105e-05 0.109907)
(-3.57697e-06 -3.50033e-06 0.0875503)
(-3.46852e-06 -3.58405e-06 0.0875492)
(4.16578e-05 4.15959e-05 0.104318)
(9.8916e-06 6.91617e-06 0.0876078)
(6.96731e-06 9.87623e-06 0.0876063)
(2.62618e-06 4.33788e-06 0.0715115)
(-3.28484e-06 -5.94538e-06 0.0715734)
(4.3181e-06 2.63731e-06 0.0715116)
(-5.92301e-06 -3.30859e-06 0.0715731)
(3.50122e-06 3.54003e-06 0.0875177)
(3.55961e-06 3.51164e-06 0.0875167)
(-4.17383e-05 -4.17271e-05 0.104315)
(-6.88996e-06 -9.94218e-06 0.0875763)
(-9.96741e-06 -6.92715e-06 0.0875743)
(-3.30925e-06 -5.91757e-06 0.0715886)
(2.59646e-06 4.3482e-06 0.0715268)
(-5.89451e-06 -3.33624e-06 0.0715883)
(4.32989e-06 2.60453e-06 0.071527)
(2.38996e-05 2.39138e-05 0.1042)
(-6.89776e-06 -9.90788e-06 0.0875922)
(-9.93155e-06 -6.93999e-06 0.0875902)
(3.48095e-06 3.55753e-06 0.0875337)
(3.57803e-06 3.48776e-06 0.0875327)
(2.85649e-07 -1.66482e-05 0.0913959)
(-6.416e-07 7.13136e-06 0.0821921)
(1.13004e-06 -1.21036e-05 0.0822535)
(2.43628e-07 5.0378e-06 0.0913445)
(-7.0834e-07 -2.72903e-05 0.0985596)
(3.14999e-06 8.78724e-06 0.0929741)
(-2.50876e-06 -1.3927e-05 0.109932)
(-5.99006e-06 -1.11364e-05 0.107496)
(-7.77234e-06 -2.045e-05 0.0930383)
(-2.5285e-06 -1.40275e-05 0.109927)
(-4.3691e-07 8.17065e-06 0.0984981)
(6.79405e-07 -2.72984e-05 0.0985599)
(-3.14412e-06 8.77711e-06 0.092974)
(2.49032e-06 -1.3932e-05 0.109932)
(5.96955e-06 -1.11553e-05 0.107496)
(7.73483e-06 -2.04527e-05 0.093039)
(2.51207e-06 -1.40317e-05 0.109927)
(4.11222e-07 8.17249e-06 0.0984984)
(-2.61542e-07 5.02616e-06 0.0913598)
(-1.19131e-06 -1.20911e-05 0.082269)
(6.42901e-07 7.16983e-06 0.0822094)
(-3.02857e-07 -1.66263e-05 0.0914113)
(2.44027e-07 5.02571e-06 0.09136)
(1.14868e-06 -1.20724e-05 0.0822703)
(-6.18774e-07 7.13841e-06 0.0822091)
(2.86174e-07 -1.66306e-05 0.0914115)
(-4.34588e-07 8.11835e-06 0.0985086)
(-6.02109e-06 -1.11809e-05 0.107494)
(-7.77302e-06 -2.04281e-05 0.0930527)
(-2.56903e-06 -1.42176e-05 0.109917)
(3.13404e-06 8.78671e-06 0.0929886)
(-2.55013e-06 -1.41279e-05 0.109922)
(-7.08324e-07 -2.72943e-05 0.09857)
(4.11559e-07 8.12074e-06 0.0985088)
(6.01174e-06 -1.11909e-05 0.107494)
(7.74007e-06 -2.04286e-05 0.0930534)
(2.55132e-06 -1.42216e-05 0.109917)
(-3.12286e-06 8.77607e-06 0.0929884)
(2.537e-06 -1.41326e-05 0.109922)
(6.82177e-07 -2.73025e-05 0.0985703)
(-3.53209e-06 3.51789e-06 0.0875162)
(-3.56337e-06 3.49863e-06 0.0875185)
(4.17228e-05 -4.1739e-05 0.104316)
(6.89264e-06 -9.94015e-06 0.0875755)
(9.95098e-06 -6.9496e-06 0.0875766)
(-4.32326e-06 2.63045e-06 0.071512)
(5.91152e-06 -3.33346e-06 0.071574)
(3.26666e-06 -5.86416e-06 0.0715906)
(-2.56974e-06 4.28033e-06 0.0715255)
(-2.39378e-05 2.38882e-05 0.1042)
(6.90402e-06 -9.90274e-06 0.0875913)
(9.91201e-06 -6.95742e-06 0.0875925)
(-3.5056e-06 3.53736e-06 0.0875322)
(-3.58174e-06 3.47439e-06 0.0875345)
(5.88109e-06 -3.35494e-06 0.0715893)
(-4.33247e-06 2.59738e-06 0.0715273)
(-2.73014e-05 -6.841e-07 0.0985599)
(8.78646e-06 3.15996e-06 0.0929749)
(-1.39432e-05 -2.49491e-06 0.109932)
(-1.11754e-05 -5.99374e-06 0.107498)
(-2.04798e-05 -7.7943e-06 0.0930384)
(-1.40429e-05 -2.51379e-06 0.109927)
(8.17062e-06 -4.33846e-07 0.0984982)
(-1.66461e-05 3.09559e-07 0.091396)
(7.1429e-06 -6.7587e-07 0.0821933)
(-1.20982e-05 1.18245e-06 0.0822526)
(5.03421e-06 2.41621e-07 0.0913444)
(-2.72969e-05 7.10654e-07 0.0985597)
(-1.39348e-05 2.50427e-06 0.109931)
(8.76474e-06 -3.16134e-06 0.0929746)
(-1.11389e-05 5.98962e-06 0.107495)
(-1.40336e-05 2.52558e-06 0.109926)
(-2.04485e-05 7.78057e-06 0.0930375)
(8.1724e-06 4.06983e-07 0.0984982)
(5.02472e-06 -2.60726e-07 0.09136)
(-1.20779e-05 -1.20178e-06 0.0822698)
(7.16143e-06 6.5049e-07 0.0822102)
(-1.66298e-05 -2.90003e-07 0.0914116)
(8.11745e-06 -4.32996e-07 0.0985087)
(-1.12179e-05 -6.03205e-06 0.107496)
(-2.04555e-05 -7.79995e-06 0.0930528)
(-1.42325e-05 -2.55724e-06 0.109917)
(8.78571e-06 3.13943e-06 0.0929893)
(-1.41449e-05 -2.5391e-06 0.109922)
(-2.73037e-05 -6.85615e-07 0.0985703)
(5.02359e-06 2.40739e-07 0.09136)
(-1.20691e-05 1.20149e-06 0.0822695)
(7.15396e-06 -6.59127e-07 0.0822102)
(-1.66276e-05 3.07004e-07 0.0914115)
(8.11856e-06 4.08007e-07 0.0985087)
(-1.11832e-05 6.02622e-06 0.107493)
(-1.42229e-05 2.56752e-06 0.109917)
(-2.04279e-05 7.7845e-06 0.093052)
(-1.41375e-05 2.54787e-06 0.109921)
(8.76533e-06 -3.145e-06 0.0929891)
(-2.72997e-05 7.11552e-07 0.0985702)
(1.66013e-05 -2.6871e-07 0.0913968)
(-7.13997e-06 6.90973e-07 0.0821931)
(1.2085e-05 -1.23696e-06 0.0822536)
(-4.99705e-06 -3.27169e-07 0.091344)
(2.72755e-05 6.95376e-07 0.09856)
(1.39463e-05 2.49122e-06 0.109932)
(-8.75412e-06 -3.18081e-06 0.092975)
(1.11559e-05 5.9887e-06 0.107496)
(1.40456e-05 2.51941e-06 0.109927)
(2.04498e-05 7.76371e-06 0.0930388)
(-8.14786e-06 3.90754e-07 0.0984986)
(1.66328e-05 3.10225e-07 0.0913962)
(-7.13431e-06 -6.90731e-07 0.0821934)
(1.21126e-05 1.16275e-06 0.0822531)
(-5.02475e-06 1.97928e-07 0.0913445)
(-8.08059e-06 -4.56612e-07 0.0985091)
(1.12101e-05 -6.05668e-06 0.107496)
(2.04253e-05 -7.81243e-06 0.093054)
(1.42388e-05 -2.57479e-06 0.109918)
(-8.77951e-06 3.11884e-06 0.0929898)
(1.41434e-05 -2.55897e-06 0.109923)
(2.72607e-05 -6.97085e-07 0.0985707)
(-4.98487e-06 -3.26857e-07 0.0913596)
(1.20559e-05 -1.25072e-06 0.0822704)
(-7.147e-06 6.68335e-07 0.08221)
(1.65816e-05 -2.67241e-07 0.0914123)
(-8.09544e-06 3.9348e-07 0.098509)
(1.12124e-05 6.01411e-06 0.107493)
(1.42348e-05 2.56552e-06 0.109917)
(2.04346e-05 7.76119e-06 0.0930532)
(1.41491e-05 2.52794e-06 0.109922)
(-8.75362e-06 -3.16367e-06 0.0929895)
(2.72761e-05 6.97557e-07 0.0985705)
(-5.0138e-06 1.96779e-07 0.09136)
(1.2086e-05 1.17932e-06 0.0822699)
(-7.14814e-06 -6.70265e-07 0.0822103)
(1.66114e-05 3.10815e-07 0.0914117)
(3.53108e-06 -3.52698e-06 0.087517)
(3.49678e-06 -3.5319e-06 0.0875185)
(-4.17272e-05 4.17369e-05 0.104315)
(-9.95056e-06 6.90659e-06 0.0875733)
(-6.91223e-06 9.94113e-06 0.0875761)
(2.63158e-06 -4.32051e-06 0.0715122)
(-3.30314e-06 5.92466e-06 0.0715736)
(-5.88423e-06 3.32921e-06 0.0715885)
(4.31395e-06 -2.62145e-06 0.0715277)
(2.38961e-05 -2.39183e-05 0.1042)
(-9.9133e-06 6.91715e-06 0.0875892)
(-6.92488e-06 9.90774e-06 0.0875919)
(3.54882e-06 -3.50626e-06 0.087533)
(3.47676e-06 -3.55197e-06 0.0875345)
(-3.32789e-06 5.89469e-06 0.0715888)
(2.60011e-06 -4.32895e-06 0.0715276)
(6.95492e-07 2.72509e-05 0.0985603)
(2.50689e-06 1.3951e-05 0.109932)
(-3.15534e-06 -8.77562e-06 0.0929753)
(6.01885e-06 1.11783e-05 0.107498)
(2.53392e-06 1.40498e-05 0.109926)
(7.80921e-06 2.0465e-05 0.0930389)
(4.34398e-07 -8.13106e-06 0.0984985)
(-3.38916e-07 1.66021e-05 0.0913965)
(6.68239e-07 -7.14171e-06 0.0821936)
(-1.17549e-06 1.21098e-05 0.082253)
(-2.03034e-07 -5.00496e-06 0.0913438)
(2.93206e-07 1.65795e-05 0.0913972)
(-6.7965e-07 -7.14378e-06 0.0821939)
(1.20659e-06 1.21018e-05 0.0822536)
(2.69395e-07 -4.98319e-06 0.0913434)
(-3.98667e-07 -8.08944e-06 0.0985088)
(-6.04305e-06 1.12223e-05 0.107495)
(-2.55807e-06 1.42385e-05 0.109917)
(-7.78332e-06 2.04427e-05 0.0930532)
(-2.54108e-06 1.41553e-05 0.109921)
(3.12733e-06 -8.76991e-06 0.0929899)
(-7.12609e-07 2.7262e-05 0.0985703)
(4.34889e-07 -8.07832e-06 0.098509)
(6.05248e-06 1.12164e-05 0.107495)
(2.58272e-06 1.42397e-05 0.109916)
(7.8125e-06 2.04418e-05 0.0930533)
(2.54995e-06 1.41496e-05 0.109922)
(-3.13559e-06 -8.77422e-06 0.0929898)
(6.95273e-07 2.72518e-05 0.0985707)
(-2.00686e-07 -4.99341e-06 0.0913594)
(-1.19007e-06 1.20774e-05 0.0822698)
(6.46151e-07 -7.14988e-06 0.0822105)
(-3.38246e-07 1.65832e-05 0.091412)
(2.68948e-07 -4.97166e-06 0.091359)
(1.22504e-06 1.2072e-05 0.0822704)
(-6.58488e-07 -7.15557e-06 0.0822108)
(2.9172e-07 1.65598e-05 0.0914127)
(-4.31109e-06 -2.65349e-06 0.0715124)
(5.93281e-06 3.28486e-06 0.071574)
(-2.64178e-06 -4.31573e-06 0.0715126)
(3.3316e-06 5.91139e-06 0.0715739)
(-2.38984e-05 -2.39034e-05 0.1042)
(9.93388e-06 6.91044e-06 0.0875919)
(6.95831e-06 9.91035e-06 0.0875904)
(-3.55674e-06 -3.51617e-06 0.0875343)
(-3.48846e-06 -3.56648e-06 0.0875332)
(5.90774e-06 3.3093e-06 0.0715892)
(-4.32196e-06 -2.62232e-06 0.0715278)
(3.35834e-06 5.88315e-06 0.0715891)
(-2.61018e-06 -4.32693e-06 0.0715279)
(2.568e-06 4.36062e-06 0.0715421)
(4.34252e-06 2.57376e-06 0.0715423)
(3.4646e-06 3.57879e-06 0.0875496)
(3.60336e-06 3.46737e-06 0.0875486)
(-5.99901e-07 7.15693e-06 0.0822259)
(2.45928e-07 5.01826e-06 0.0913756)
(3.11687e-06 8.79662e-06 0.0930031)
(-2.58557e-06 -1.43098e-05 0.109913)
(-4.31335e-07 8.07817e-06 0.0985192)
(-3.10527e-06 8.78258e-06 0.0930029)
(2.58603e-06 -1.43133e-05 0.109913)
(4.13948e-07 8.08211e-06 0.0985194)
(-3.48844e-06 3.5587e-06 0.0875482)
(-3.59897e-06 3.4556e-06 0.0875505)
(-4.34289e-06 2.56616e-06 0.0715425)
(8.79208e-06 3.11918e-06 0.0930038)
(-1.43266e-05 -2.57866e-06 0.109913)
(8.07548e-06 -4.33136e-07 0.0985193)
(7.16326e-06 -6.41187e-07 0.0822271)
(5.01521e-06 2.40469e-07 0.0913756)
(-1.43191e-05 2.5884e-06 0.109912)
(8.77184e-06 -3.12847e-06 0.0930036)
(8.07608e-06 4.07822e-07 0.0985193)
(1.6555e-05 -2.62033e-07 0.0914279)
(-7.16465e-06 6.49886e-07 0.0822268)
(-4.97295e-06 -3.27366e-07 0.0913752)
(2.72679e-05 6.91886e-07 0.0985811)
(1.43321e-05 2.55344e-06 0.109912)
(-8.7591e-06 -3.14489e-06 0.093004)
(1.12629e-05 6.09931e-06 0.107488)
(-8.05231e-06 3.91147e-07 0.0985196)
(1.44091e-05 2.60856e-06 0.109907)
(2.04179e-05 7.76318e-06 0.0930677)
(1.6583e-05 3.08827e-07 0.0914272)
(-7.16505e-06 -6.49403e-07 0.0822271)
(-5.00278e-06 1.96539e-07 0.0913756)
(1.20492e-05 1.19388e-06 0.0822866)
(3.56986e-06 -3.48668e-06 0.0875489)
(3.45931e-06 -3.58031e-06 0.0875506)
(2.57017e-06 -4.34053e-06 0.0715428)
(6.94643e-07 2.72471e-05 0.0985812)
(2.59194e-06 1.43231e-05 0.109912)
(-3.11458e-06 -8.78097e-06 0.0930043)
(6.12685e-06 1.12977e-05 0.107489)
(4.35091e-07 -8.03544e-06 0.0985196)
(2.62258e-06 1.44115e-05 0.109907)
(7.81173e-06 2.04177e-05 0.0930677)
(-3.35476e-07 1.65572e-05 0.0914276)
(6.26019e-07 -7.16397e-06 0.0822274)
(-2.00797e-07 -4.98322e-06 0.091375)
(2.89164e-07 1.65358e-05 0.0914282)
(-6.34941e-07 -7.16594e-06 0.0822277)
(2.67886e-07 -4.96297e-06 0.0913746)
(1.23738e-06 1.20365e-05 0.0822872)
(-4.33712e-06 -2.59317e-06 0.071543)
(5.87873e-06 3.33222e-06 0.0716044)
(-2.57977e-06 -4.33805e-06 0.0715432)
(3.38065e-06 5.85402e-06 0.0716042)
(-6.88504e-07 4.27112e-06 0.0768513)
(1.29769e-07 -7.46652e-06 0.0786686)
(-1.13663e-06 -1.60374e-05 0.0899172)
(-2.63322e-07 5.0309e-06 0.091352)
(-1.90559e-07 3.87179e-06 0.078628)
(-5.44226e-07 5.54332e-06 0.0898674)
(5.49614e-07 -7.47031e-06 0.0768983)
(2.21659e-07 -6.12326e-06 0.0684363)
(-1.16498e-06 -1.21296e-05 0.0822438)
(-7.34864e-07 5.84601e-06 0.0857865)
(-1.35693e-06 -1.2377e-05 0.0858429)
(-8.38667e-07 4.92326e-06 0.0683752)
(-8.53624e-07 4.92353e-06 0.0683828)
(-1.36281e-06 -1.23614e-05 0.0858513)
(6.51227e-07 7.16282e-06 0.0822009)
(-7.43119e-07 5.85214e-06 0.085795)
(2.09778e-07 -6.11495e-06 0.0684438)
(5.55638e-07 -7.47655e-06 0.0768899)
(-3.08007e-07 -1.66551e-05 0.0913881)
(-1.91224e-07 3.876e-06 0.0786195)
(-5.39602e-07 5.55123e-06 0.0898593)
(1.29205e-07 -7.46858e-06 0.0786601)
(-1.1349e-06 -1.60463e-05 0.0899091)
(-6.8115e-07 4.2723e-06 0.0768429)
(3.22281e-06 -5.90593e-06 0.0715678)
(-2.58609e-06 4.27472e-06 0.0715178)
(4.27791e-06 -6.84779e-07 0.0768518)
(-1.60433e-05 -1.12573e-06 0.0899176)
(-7.46555e-06 1.38335e-07 0.0786689)
(5.02892e-06 -2.61336e-07 0.0913522)
(5.54959e-06 -5.35613e-07 0.0898677)
(3.87194e-06 -1.94981e-07 0.0786283)
(-7.47066e-06 5.55623e-07 0.0768988)
(-6.12475e-06 2.24848e-07 0.068437)
(-1.21256e-05 -1.17387e-06 0.0822445)
(5.83812e-06 -7.19808e-07 0.085787)
(-1.23836e-05 -1.35405e-06 0.0858434)
(4.92173e-06 -8.23748e-07 0.0683759)
(4.92244e-06 -8.40456e-07 0.0683835)
(-1.23672e-05 -1.3621e-06 0.0858518)
(7.15376e-06 6.60986e-07 0.0822018)
(5.84525e-06 -7.30304e-07 0.0857955)
(-6.11581e-06 2.11376e-07 0.0684446)
(-7.47642e-06 5.63456e-07 0.0768904)
(-1.66611e-05 -2.88837e-07 0.0913883)
(5.5567e-06 -5.29333e-07 0.0898596)
(3.87372e-06 -1.94277e-07 0.0786197)
(-1.60539e-05 -1.12167e-06 0.0899095)
(-7.47578e-06 1.39029e-07 0.0786604)
(4.28049e-06 -6.75249e-07 0.0768434)
(-5.92543e-06 3.28919e-06 0.0715656)
(4.3086e-06 -2.63635e-06 0.0715201)
(-3.1011e-06 -3.14374e-06 0.0835877)
(3.6224e-06 5.13819e-06 0.0683541)
(5.1644e-06 3.60335e-06 0.0683478)
(-2.61947e-06 -4.10562e-06 0.0682983)
(-4.06704e-06 -2.65161e-06 0.0682922)
(7.29009e-06 7.25714e-06 0.0836336)
(1.68961e-05 1.03036e-05 0.0916923)
(-1.10102e-05 -5.57751e-06 0.0962497)
(9.98533e-06 6.89819e-06 0.087568)
(-3.80855e-06 -3.06261e-06 0.0815235)
(2.41184e-05 1.42068e-05 0.096299)
(8.14254e-06 3.99275e-06 0.0815755)
(-7.76705e-06 -3.81711e-06 0.0916444)
(1.03584e-05 1.68803e-05 0.0916855)
(-5.56269e-06 -1.1003e-05 0.0962473)
(6.94027e-06 9.96434e-06 0.0875665)
(-3.04488e-06 -3.84667e-06 0.0815191)
(1.4255e-05 2.40972e-05 0.0962964)
(4.04363e-06 8.14012e-06 0.0815701)
(-3.79917e-06 -7.80121e-06 0.0916381)
(-7.77405e-06 -3.81799e-06 0.0916514)
(8.12757e-06 3.9968e-06 0.0815833)
(-3.5486e-06 -3.52652e-06 0.0875263)
(2.40932e-05 1.42008e-05 0.0963047)
(-1.10127e-05 -5.57078e-06 0.0962556)
(-3.81684e-06 -3.05487e-06 0.0815313)
(1.68711e-05 1.02925e-05 0.0916993)
(-3.7965e-06 -7.8088e-06 0.0916451)
(4.04812e-06 8.12349e-06 0.0815779)
(-3.50017e-06 -3.5578e-06 0.0875252)
(1.42546e-05 2.40697e-05 0.0963022)
(-5.55274e-06 -1.10048e-05 0.0962532)
(-3.03565e-06 -3.85629e-06 0.0815269)
(1.03493e-05 1.6853e-05 0.0916925)
(7.29993e-06 7.26804e-06 0.0836261)
(-2.61679e-06 -4.10863e-06 0.0682915)
(-4.07129e-06 -2.64831e-06 0.0682855)
(3.63075e-06 5.14011e-06 0.0683474)
(5.16591e-06 3.6117e-06 0.0683411)
(-3.09791e-06 -3.13974e-06 0.0835802)
(1.70798e-07 -6.08641e-06 0.0684663)
(-7.71654e-07 5.87223e-06 0.0858204)
(-1.20039e-06 -1.20765e-05 0.0822774)
(-9.01587e-07 4.92388e-06 0.0684055)
(-1.38424e-06 -1.23087e-05 0.0858766)
(5.28536e-07 -7.45315e-06 0.0769233)
(-3.02026e-07 -1.66144e-05 0.0914191)
(-1.89438e-07 3.86555e-06 0.0786536)
(-5.59788e-07 5.52916e-06 0.0898917)
(-7.16007e-07 4.25976e-06 0.0768765)
(1.29293e-07 -7.44266e-06 0.078694)
(-1.14617e-06 -1.60033e-05 0.0899413)
(3.2777e-06 -5.84797e-06 0.0715982)
(-6.08749e-06 1.70113e-07 0.0684671)
(5.86491e-06 -7.62993e-07 0.085821)
(-1.20622e-05 -1.21059e-06 0.0822782)
(4.92373e-06 -8.90186e-07 0.0684062)
(-1.23161e-05 -1.3857e-06 0.0858771)
(-7.46009e-06 5.30498e-07 0.0769239)
(-1.66203e-05 -2.90214e-07 0.0914194)
(5.5373e-06 -5.544e-07 0.089892)
(3.8706e-06 -1.95318e-07 0.0786538)
(4.27073e-06 -7.12484e-07 0.076877)
(-1.60134e-05 -1.13972e-06 0.0899417)
(-7.45034e-06 1.36064e-07 0.0786943)
(-5.87089e-06 3.34111e-06 0.071596)
(-3.10793e-06 -3.15797e-06 0.0836177)
(3.58707e-06 5.13062e-06 0.0683809)
(5.15612e-06 3.56526e-06 0.0683746)
(-2.62018e-06 -4.10023e-06 0.0683252)
(-4.05069e-06 -2.65553e-06 0.0683192)
(7.24724e-06 7.2165e-06 0.0836637)
(1.68081e-05 1.02731e-05 0.0917204)
(-1.10231e-05 -5.54952e-06 0.0962733)
(-3.84789e-06 -3.04154e-06 0.0815548)
(9.91894e-06 6.91736e-06 0.0875998)
(-7.79957e-06 -3.82564e-06 0.0916725)
(2.40289e-05 1.42177e-05 0.0963224)
(8.08221e-06 4.014e-06 0.0816065)
(1.03323e-05 1.67875e-05 0.0917137)
(-5.5304e-06 -1.10082e-05 0.0962709)
(-3.011e-06 -3.88277e-06 0.0815504)
(6.9638e-06 9.89774e-06 0.0875983)
(-3.79295e-06 -7.83748e-06 0.0916662)
(1.42575e-05 2.40183e-05 0.0963198)
(4.06205e-06 8.07103e-06 0.0816012)
(7.26087e-06 7.22625e-06 0.0836563)
(-2.62303e-06 -4.10148e-06 0.0683185)
(-4.05464e-06 -2.65932e-06 0.0683124)
(-3.10774e-06 -3.15854e-06 0.0836101)
(3.59826e-06 5.13396e-06 0.0683742)
(5.16053e-06 3.57729e-06 0.0683679)
(-7.80675e-06 -3.83165e-06 0.0916796)
(8.06346e-06 4.01341e-06 0.0816144)
(-3.58688e-06 -3.48785e-06 0.0875583)
(2.39694e-05 1.42063e-05 0.0963283)
(-1.10329e-05 -5.54187e-06 0.0962793)
(-3.85737e-06 -3.0391e-06 0.0815626)
(1.67724e-05 1.02516e-05 0.0917273)
(-3.79942e-06 -7.84338e-06 0.0916733)
(4.06434e-06 8.05158e-06 0.081609)
(-3.46253e-06 -3.59539e-06 0.0875572)
(1.42566e-05 2.39989e-05 0.0963257)
(-5.52967e-06 -1.10104e-05 0.0962769)
(-3.00184e-06 -3.88688e-06 0.0815582)
(1.03201e-05 1.67536e-05 0.0917207)
(-3.27155e-06 -5.95825e-06 0.0715657)
(2.61075e-06 4.3428e-06 0.0715192)
(-5.9367e-06 -3.29386e-06 0.0715654)
(4.32362e-06 2.62035e-06 0.0715193)
(3.14397e-06 3.12072e-06 0.0835869)
(-5.13511e-06 -3.63004e-06 0.0683538)
(-3.6123e-06 -5.16716e-06 0.0683474)
(4.09749e-06 2.63374e-06 0.0682974)
(2.6589e-06 4.07404e-06 0.0682912)
(-7.26854e-06 -7.29514e-06 0.0836337)
(-1.03043e-05 -1.68689e-05 0.0916923)
(5.57069e-06 1.10127e-05 0.0962494)
(-6.88505e-06 -9.95695e-06 0.0875684)
(3.03262e-06 3.79211e-06 0.081523)
(-3.97793e-06 -8.10717e-06 0.0815763)
(-1.42073e-05 -2.40774e-05 0.0962987)
(3.80744e-06 7.773e-06 0.0916437)
(-1.68673e-05 -1.03398e-05 0.0916858)
(1.0989e-05 5.56645e-06 0.0962468)
(-9.98449e-06 -6.92082e-06 0.0875663)
(3.83963e-06 3.02666e-06 0.0815181)
(-8.13863e-06 -4.01696e-06 0.0815703)
(-2.40972e-05 -1.42321e-05 0.0962963)
(7.77551e-06 3.79915e-06 0.0916373)
(3.80688e-06 7.77678e-06 0.0916508)
(-3.98176e-06 -8.09324e-06 0.0815841)
(3.49085e-06 3.54878e-06 0.0875257)
(-1.4207e-05 -2.40571e-05 0.0963046)
(3.02401e-06 3.79883e-06 0.0815308)
(-1.02969e-05 -1.68487e-05 0.0916993)
(5.56304e-06 1.10114e-05 0.0962552)
(7.78069e-06 3.79601e-06 0.0916444)
(-8.12216e-06 -4.02165e-06 0.0815781)
(3.56876e-06 3.49949e-06 0.0875247)
(-2.40746e-05 -1.42324e-05 0.0963022)
(3.84772e-06 3.01668e-06 0.0815259)
(-1.68456e-05 -1.03336e-05 0.0916928)
(1.09889e-05 5.55677e-06 0.0962527)
(-7.27866e-06 -7.30388e-06 0.0836262)
(4.10077e-06 2.6328e-06 0.0682906)
(2.65686e-06 4.07846e-06 0.0682844)
(-5.13769e-06 -3.63792e-06 0.0683471)
(-3.6211e-06 -5.16818e-06 0.0683407)
(3.14121e-06 3.11947e-06 0.0835794)
(2.58219e-06 4.35409e-06 0.0715345)
(-3.29623e-06 -5.93188e-06 0.071581)
(4.3358e-06 2.58874e-06 0.0715346)
(-5.9089e-06 -3.32219e-06 0.0715807)
(-7.25761e-06 -7.28569e-06 0.0836412)
(4.09398e-06 2.6352e-06 0.0683041)
(2.66152e-06 4.0694e-06 0.0682979)
(3.14697e-06 3.12221e-06 0.0835945)
(-5.1318e-06 -3.62249e-06 0.0683605)
(-3.604e-06 -5.16548e-06 0.0683541)
(3.81038e-06 7.79038e-06 0.0916649)
(-1.42043e-05 -2.40113e-05 0.0963163)
(3.47197e-06 3.56737e-06 0.0875417)
(-3.99465e-06 -8.07199e-06 0.0815997)
(3.01467e-06 3.82202e-06 0.0815465)
(5.55199e-06 1.10169e-05 0.096267)
(-1.02748e-05 -1.68019e-05 0.0917133)
(7.79793e-06 3.79717e-06 0.0916585)
(-2.40257e-05 -1.42326e-05 0.0963138)
(3.58979e-06 3.4768e-06 0.0875407)
(-8.09505e-06 -4.03588e-06 0.0815937)
(3.86815e-06 3.00019e-06 0.0815416)
(1.09969e-05 5.54046e-06 0.0962645)
(-1.67959e-05 -1.03164e-05 0.0917068)
(-1.02872e-05 -1.68261e-05 0.0917063)
(3.02071e-06 3.81188e-06 0.0815387)
(5.55779e-06 1.1013e-05 0.0962611)
(-6.8945e-06 -9.92687e-06 0.0875843)
(3.80764e-06 7.78158e-06 0.0916578)
(-3.98814e-06 -8.08262e-06 0.0815919)
(-1.42062e-05 -2.40351e-05 0.0963104)
(-1.68212e-05 -1.03253e-05 0.0916998)
(3.85862e-06 3.00962e-06 0.0815337)
(1.09913e-05 5.54889e-06 0.0962586)
(-9.94994e-06 -6.93426e-06 0.0875822)
(7.7872e-06 3.79586e-06 0.0916514)
(-8.10356e-06 -4.02498e-06 0.0815859)
(-2.4051e-05 -1.42324e-05 0.096308)
(3.15209e-06 3.12584e-06 0.083602)
(-5.12867e-06 -3.61434e-06 0.0683672)
(-3.59369e-06 -5.16356e-06 0.0683608)
(4.09055e-06 2.63705e-06 0.0683108)
(2.66394e-06 4.06511e-06 0.0683047)
(-7.24444e-06 -7.27493e-06 0.0836487)
(6.79032e-07 4.26478e-06 0.0768514)
(-1.40662e-07 -7.46711e-06 0.0786687)
(1.11479e-06 -1.60431e-05 0.0899172)
(2.44096e-07 5.03067e-06 0.0913522)
(1.83582e-07 3.87128e-06 0.0786281)
(5.26827e-07 5.54258e-06 0.089868)
(-5.6168e-07 -7.46891e-06 0.0768981)
(-2.46179e-07 -6.12346e-06 0.0684387)
(1.11873e-06 -1.21141e-05 0.0822451)
(7.43416e-07 5.84347e-06 0.0857879)
(1.3148e-06 -1.23887e-05 0.0858436)
(8.37697e-07 4.91841e-06 0.0683779)
(8.54453e-07 4.91856e-06 0.0683855)
(1.32306e-06 -1.2375e-05 0.0858521)
(-6.30514e-07 7.13411e-06 0.0822006)
(7.53338e-07 5.84888e-06 0.0857964)
(-2.32641e-07 -6.11538e-06 0.0684462)
(-5.69321e-07 -7.47454e-06 0.0768897)
(2.86724e-07 -1.66589e-05 0.0913882)
(1.82566e-07 3.8758e-06 0.0786196)
(5.20136e-07 5.55109e-06 0.0898599)
(-1.41256e-07 -7.47057e-06 0.0786602)
(1.1112e-06 -1.60512e-05 0.0899092)
(6.6958e-07 4.26601e-06 0.0768429)
(5.43386e-07 -7.46428e-06 0.0769066)
(-1.89926e-07 3.87159e-06 0.0786366)
(-5.48818e-07 5.5389e-06 0.0898755)
(-3.0428e-07 -1.6635e-05 0.0914036)
(-6.97103e-07 4.26893e-06 0.0768597)
(1.30429e-07 -7.4575e-06 0.0786771)
(-1.14003e-06 -1.60269e-05 0.0899252)
(-8.84651e-07 4.92263e-06 0.0683979)
(6.33607e-07 7.17652e-06 0.0822178)
(-1.37731e-06 -1.23286e-05 0.0858682)
(1.84849e-07 -6.09678e-06 0.0684588)
(-7.62246e-07 5.86424e-06 0.085812)
(1.96912e-07 -6.10536e-06 0.0684513)
(-7.52751e-07 5.85811e-06 0.0858035)
(-1.17936e-06 -1.2099e-05 0.0822607)
(-8.69666e-07 4.92294e-06 0.0683904)
(-1.3696e-06 -1.23441e-05 0.0858597)
(-7.05909e-07 4.26749e-06 0.0768681)
(-2.61202e-07 5.01928e-06 0.0913676)
(1.29716e-07 -7.44676e-06 0.0786855)
(-1.14406e-06 -1.60171e-05 0.0899333)
(5.36843e-07 -7.45482e-06 0.076915)
(-1.89971e-07 3.86758e-06 0.0786451)
(-5.54766e-07 5.53357e-06 0.0898836)
(-5.54272e-07 -7.46069e-06 0.0769064)
(1.83716e-07 3.87103e-06 0.0786367)
(5.33371e-07 5.53849e-06 0.0898761)
(2.86138e-07 -1.6638e-05 0.0914037)
(6.88515e-07 4.26261e-06 0.0768598)
(-1.40732e-07 -7.45797e-06 0.0786772)
(1.12019e-06 -1.60308e-05 0.0899253)
(8.87716e-07 4.91879e-06 0.0684007)
(-6.09582e-07 7.14746e-06 0.0822175)
(1.3407e-06 -1.23423e-05 0.085869)
(7.75242e-07 5.86109e-06 0.0858134)
(-2.05149e-07 -6.09689e-06 0.0684613)
(-2.18535e-07 -6.10515e-06 0.0684538)
(7.64562e-07 5.8564e-06 0.0858049)
(1.13901e-06 -1.20853e-05 0.0822619)
(8.7158e-07 4.91945e-06 0.0683931)
(1.33212e-06 -1.23548e-05 0.0858605)
(6.9841e-07 4.26104e-06 0.0768682)
(2.45533e-07 5.01927e-06 0.0913678)
(-1.40171e-07 -7.45781e-06 0.0786856)
(1.12469e-06 -1.60241e-05 0.0899333)
(1.85825e-07 3.87038e-06 0.0786452)
(5.41321e-07 5.53238e-06 0.0898842)
(-5.4653e-07 -7.45444e-06 0.0769148)
(-3.13764e-06 3.10502e-06 0.0835873)
(5.13558e-06 -3.63792e-06 0.0683486)
(3.60728e-06 -5.16561e-06 0.068354)
(-4.10293e-06 2.63259e-06 0.068292)