/*--------------------------------*- C++ -*----------------------------------*\
| =========                 |                                                 |
| \\      /  F ield         | OpenFOAM: The Open Source CFD Toolbox           |
|  \\    /   O peration     | Version:                                        |
|   \\  /    A nd           | Website:  www.openfoam.com                      |
|    \\/     M anipulation  |                                                 |
\*---------------------------------------------------------------------------*/
FoamFile
{
    version     2.0;
    format      ascii;
    class       volScalarField;
    location    "200";
    object      epsilon;
}
// * * * * * * * * * * * * * * * * * * * * * * * * * * * * * * * * * * * * * //

dimensions      [0 2 -3 0 0 0 0];


internalField   nonuniform List<scalar> 
172512
(
4.9917e-07
4.99976e-07
4.99976e-07
4.99864e-07
4.45574e-07
4.54114e-07
4.54114e-07
4.63753e-07
4.03788e-07
4.18749e-07
4.18751e-07
4.3954e-07
3.68406e-07
3.88705e-07
3.88708e-07
4.17791e-07
3.38054e-07
3.62205e-07
3.62208e-07
3.9618e-07
3.11679e-07
3.38343e-07
3.38346e-07
3.74653e-07
2.88499e-07
3.16686e-07
3.1669e-07
3.53759e-07
2.67942e-07
2.97056e-07
2.9706e-07
3.34179e-07
2.49594e-07
2.79396e-07
2.794e-07
3.16504e-07
2.33147e-07
2.63701e-07
2.63704e-07
3.01174e-07
2.18372e-07
2.49975e-07
2.49979e-07
2.88501e-07
2.05095e-07
2.38219e-07
2.38223e-07
2.78702e-07
1.93175e-07
2.28434e-07
2.28438e-07
2.71884e-07
1.825e-07
2.20627e-07
2.20631e-07
2.68172e-07
1.7298e-07
2.14805e-07
2.14809e-07
2.67656e-07
1.64542e-07
2.1098e-07
2.10985e-07
2.70509e-07
1.57123e-07
2.09159e-07
2.09164e-07
2.76716e-07
1.5067e-07
2.09358e-07
2.09364e-07
2.86303e-07
1.45139e-07
2.11621e-07
2.11628e-07
2.99251e-07
1.40495e-07
2.15965e-07
2.15973e-07
3.15625e-07
1.36707e-07
2.22412e-07
2.22421e-07
3.3537e-07
1.33753e-07
2.30975e-07
2.30987e-07
3.58384e-07
1.31611e-07
2.41646e-07
2.41659e-07
3.84504e-07
1.30265e-07
2.54402e-07
2.54417e-07
4.13477e-07
1.29704e-07
2.69199e-07
2.69217e-07
4.44966e-07
1.2993e-07
2.8597e-07
2.85991e-07
4.78583e-07
1.30919e-07
3.0463e-07
3.04655e-07
5.139e-07
1.32675e-07
3.25074e-07
3.25103e-07
5.50469e-07
1.35197e-07
3.47182e-07
3.47216e-07
5.87847e-07
1.38486e-07
3.70819e-07
3.70858e-07
6.2561e-07
1.42546e-07
3.95839e-07
3.95883e-07
6.63379e-07
1.47381e-07
4.22083e-07
4.22133e-07
7.00821e-07
1.52996e-07
4.49387e-07
4.49443e-07
7.37667e-07
1.59397e-07
4.7758e-07
4.77642e-07
7.73702e-07
1.66589e-07
5.06486e-07
5.06554e-07
8.08768e-07
1.74575e-07
5.35929e-07
5.36003e-07
8.42719e-07
1.83354e-07
5.65728e-07
5.65809e-07
8.75515e-07
1.92922e-07
5.95714e-07
5.95802e-07
9.07122e-07
2.03268e-07
6.25706e-07
6.258e-07
9.37484e-07
2.14357e-07
6.55492e-07
6.55591e-07
9.66538e-07
2.26177e-07
6.84914e-07
6.85019e-07
9.94223e-07
2.3859e-07
7.13627e-07
7.13733e-07
1.02035e-06
2.51514e-07
7.41345e-07
7.4145e-07
1.04477e-06
2.64529e-07
7.67265e-07
7.67374e-07
1.06711e-06
2.76974e-07
7.90278e-07
7.90391e-07
1.08643e-06
2.87818e-07
8.08584e-07
8.08713e-07
1.10137e-06
2.95396e-07
8.2028e-07
8.20421e-07
1.11053e-06
2.99327e-07
8.2626e-07
8.26398e-07
1.11479e-06
3.00708e-07
8.28815e-07
8.28949e-07
1.11652e-06
3.00949e-07
8.29692e-07
8.2982e-07
1.11679e-06
3.01038e-07
8.29977e-07
8.30111e-07
1.11651e-06
3.01249e-07
8.30277e-07
8.30411e-07
1.11701e-06
3.01436e-07
8.30402e-07
8.30536e-07
1.11671e-06
3.01538e-07
8.30414e-07
8.30553e-07
1.11707e-06
3.01547e-07
8.30397e-07
8.30535e-07
1.11678e-06
3.01545e-07
8.30384e-07
8.30524e-07
1.11676e-06
3.01545e-07
8.30375e-07
8.3053e-07
1.11724e-06
3.01545e-07
8.30392e-07
8.30528e-07
1.11686e-06
3.01549e-07
8.3038e-07
8.30515e-07
1.11659e-06
3.01554e-07
8.30382e-07
8.30522e-07
1.11684e-06
3.01555e-07
8.30387e-07
8.30528e-07
1.11711e-06
3.01556e-07
8.30395e-07
8.30536e-07
1.11719e-06
3.01555e-07
8.30403e-07
8.30539e-07
1.11693e-06
3.01556e-07
8.30406e-07
8.30537e-07
1.11662e-06
3.01556e-07
8.30404e-07
8.3053e-07
1.11659e-06
3.01555e-07
8.30409e-07
8.30536e-07
1.11713e-06
3.01555e-07
8.30405e-07
8.30539e-07
1.11701e-06
3.01556e-07
8.30397e-07
8.3053e-07
1.11663e-06
3.01556e-07
8.30404e-07
8.30536e-07
1.11713e-06
3.01557e-07
8.30409e-07
8.30537e-07
1.11695e-06
3.01557e-07
8.30408e-07
8.30528e-07
1.11666e-06
3.01557e-07
8.30404e-07
8.30525e-07
1.11688e-06
3.01558e-07
8.30402e-07
8.30531e-07
1.11712e-06
3.01559e-07
8.30414e-07
8.30534e-07
1.11724e-06
3.01559e-07
8.30402e-07
8.30525e-07
1.11716e-06
3.0156e-07
8.30413e-07
8.30529e-07
1.11689e-06
3.0156e-07
8.30416e-07
8.30537e-07
1.11664e-06
3.01561e-07
8.30415e-07
8.30535e-07
1.1166e-06
3.01561e-07
8.30406e-07
8.30527e-07
1.11666e-06
3.01555e-07
8.30405e-07
8.30525e-07
1.11677e-06
3.01547e-07
8.30406e-07
8.30526e-07
1.11701e-06
3.01542e-07
8.30412e-07
8.30527e-07
1.11723e-06
3.01538e-07
8.30415e-07
8.30533e-07
1.11718e-06
3.01535e-07
8.30411e-07
8.30531e-07
1.11694e-06
3.01533e-07
8.30406e-07
8.30522e-07
1.11681e-06
3.0153e-07
8.30406e-07
8.3052e-07
1.11683e-06
3.01529e-07
8.30408e-07
8.3052e-07
1.11687e-06
3.01531e-07
8.30408e-07
8.30522e-07
1.11678e-06
3.01534e-07
8.30413e-07
8.30527e-07
1.11655e-06
3.01538e-07
8.30417e-07
8.30532e-07
1.11675e-06
3.01545e-07
8.3042e-07
8.30542e-07
1.11712e-06
3.01558e-07
8.30431e-07
8.30553e-07
1.11714e-06
3.01565e-07
8.3044e-07
8.30548e-07
1.11705e-06
3.00783e-07
8.28864e-07
8.2896e-07
1.1164e-06
3.40807e-07
7.44488e-07
7.44556e-07
1.0638e-06
5.06203e-07
5.05586e-07
5.05585e-07
5.06203e-07
5.05585e-07
5.05585e-07
5.05986e-07
5.05986e-07
5.05986e-07
5.05987e-07
5.05587e-07
5.05586e-07
5.06203e-07
5.05587e-07
5.05585e-07
5.06203e-07
4.99865e-07
4.67264e-07
4.99977e-07
4.99979e-07
4.6414e-07
4.64148e-07
4.99865e-07
4.67263e-07
4.99979e-07
4.99979e-07
4.64144e-07
4.64149e-07
4.99977e-07
4.64135e-07
4.6414e-07
4.99864e-07
4.67266e-07
4.99978e-07
4.64135e-07
4.64144e-07
4.67268e-07
4.63753e-07
4.41544e-07
4.54119e-07
4.54127e-07
4.27004e-07
4.27013e-07
4.63753e-07
4.41543e-07
4.54123e-07
4.54129e-07
4.27004e-07
4.27015e-07
4.5412e-07
4.26996e-07
4.27006e-07
4.63753e-07
4.41549e-07
4.54123e-07
4.26998e-07
4.27007e-07
4.41555e-07
4.39534e-07
4.19396e-07
4.18757e-07
4.18766e-07
3.95844e-07
3.95853e-07
4.39537e-07
4.19399e-07
4.18757e-07
4.18769e-07
3.95839e-07
3.95856e-07
4.18761e-07
3.95834e-07
3.9585e-07
4.39538e-07
4.19404e-07
4.1876e-07
3.95836e-07
3.95845e-07
4.19413e-07
4.17775e-07
3.9773e-07
3.88717e-07
3.88725e-07
3.68571e-07
3.6858e-07
4.17779e-07
3.97735e-07
3.88711e-07
3.88729e-07
3.68561e-07
3.68583e-07
3.88723e-07
3.68558e-07
3.68578e-07
4.17783e-07
3.97741e-07
3.88717e-07
3.68561e-07
3.68569e-07
3.97751e-07
3.96161e-07
3.76141e-07
3.62219e-07
3.62226e-07
3.44105e-07
3.44112e-07
3.96166e-07
3.76146e-07
3.62208e-07
3.6223e-07
3.44092e-07
3.44116e-07
3.62226e-07
3.44091e-07
3.44113e-07
3.96172e-07
3.76153e-07
3.62216e-07
3.44094e-07
3.441e-07
3.76164e-07
3.74632e-07
3.55142e-07
3.38358e-07
3.38364e-07
3.21922e-07
3.21928e-07
3.74637e-07
3.55148e-07
3.38344e-07
3.38368e-07
3.21906e-07
3.21932e-07
3.38366e-07
3.21907e-07
3.2193e-07
3.74644e-07
3.55155e-07
3.38353e-07
3.2191e-07
3.21916e-07
3.55166e-07
3.53736e-07
3.35407e-07
3.16703e-07
3.16708e-07
3.01795e-07
3.018e-07
3.53743e-07
3.35414e-07
3.16686e-07
3.16712e-07
3.01776e-07
3.01804e-07
3.16711e-07
3.01778e-07
3.01803e-07
3.53749e-07
3.35421e-07
3.16695e-07
3.01782e-07
3.01787e-07
3.35432e-07
3.34155e-07
3.17533e-07
2.97074e-07
2.97079e-07
2.83645e-07
2.8365e-07
3.34163e-07
3.1754e-07
2.97054e-07
2.97082e-07
2.83625e-07
2.83654e-07
2.97082e-07
2.83628e-07
2.83654e-07
3.3417e-07
3.17548e-07
2.97065e-07
2.83631e-07
2.83636e-07
3.17559e-07
3.1648e-07
3.01967e-07
2.79415e-07
2.7942e-07
2.67459e-07
2.67463e-07
3.16488e-07
3.01973e-07
2.79394e-07
2.79422e-07
2.67437e-07
2.67467e-07
2.79423e-07
2.6744e-07
2.67467e-07
3.16494e-07
3.01982e-07
2.79405e-07
2.67444e-07
2.67448e-07
3.01993e-07
3.01149e-07
2.89028e-07
2.6372e-07
2.63725e-07
2.53241e-07
2.53246e-07
3.01157e-07
2.89033e-07
2.63698e-07
2.63727e-07
2.53218e-07
2.53249e-07
2.63728e-07
2.53221e-07
2.53249e-07
3.01164e-07
2.89043e-07
2.63709e-07
2.53225e-07
2.53229e-07
2.89054e-07
2.88475e-07
2.78935e-07
2.49996e-07
2.5e-07
2.40994e-07
2.40999e-07
2.88484e-07
2.7894e-07
2.49972e-07
2.50003e-07
2.4097e-07
2.41003e-07
2.50003e-07
2.40973e-07
2.41001e-07
2.88491e-07
2.7895e-07
2.49983e-07
2.40976e-07
2.40981e-07
2.78962e-07
2.78675e-07
2.71813e-07
2.38242e-07
2.38247e-07
2.30716e-07
2.30723e-07
2.78684e-07
2.71821e-07
2.38217e-07
2.38249e-07
2.30691e-07
2.30726e-07
2.38249e-07
2.30694e-07
2.30724e-07
2.78691e-07
2.7183e-07
2.38229e-07
2.30697e-07
2.30703e-07
2.71843e-07
2.71854e-07
2.67846e-07
2.28458e-07
2.28465e-07
2.22415e-07
2.22423e-07
2.71865e-07
2.67856e-07
2.28432e-07
2.28467e-07
2.22389e-07
2.22427e-07
2.28465e-07
2.2239e-07
2.22423e-07
2.71872e-07
2.67865e-07
2.28444e-07
2.22394e-07
2.22402e-07
2.67879e-07
2.68139e-07
2.66965e-07
2.20653e-07
2.20661e-07
2.16097e-07
2.16108e-07
2.68152e-07
2.66976e-07
2.20626e-07
2.20664e-07
2.16069e-07
2.16111e-07
2.2066e-07
2.16069e-07
2.16104e-07
2.6816e-07
2.66987e-07
2.20639e-07
2.16073e-07
2.16083e-07
2.67002e-07
2.67618e-07
2.69137e-07
2.14833e-07
2.14845e-07
2.1177e-07
2.11787e-07
2.67633e-07
2.69152e-07
2.14805e-07
2.14847e-07
2.11744e-07
2.11789e-07
2.14841e-07
2.11743e-07
2.11778e-07
2.67642e-07
2.69163e-07
2.14819e-07
2.11747e-07
2.1176e-07
2.6918e-07
2.70466e-07
2.74645e-07
2.11007e-07
2.11026e-07
2.09443e-07
2.09468e-07
2.70484e-07
2.74662e-07
2.10982e-07
2.11027e-07
2.09419e-07
2.09468e-07
2.11016e-07
2.09415e-07
2.09452e-07
2.70494e-07
2.74674e-07
2.10998e-07
2.0942e-07
2.09437e-07
2.74693e-07
2.76668e-07
2.83527e-07
2.09186e-07
2.09212e-07
2.09161e-07
2.09191e-07
2.7669e-07
2.83548e-07
2.09163e-07
2.09212e-07
2.09137e-07
2.09191e-07
2.09196e-07
2.09131e-07
2.0917e-07
2.76699e-07
2.8356e-07
2.09181e-07
2.09137e-07
2.09157e-07
2.83581e-07
2.86249e-07
2.95788e-07
2.0939e-07
2.09421e-07
2.1089e-07
2.10925e-07
2.86279e-07
2.95813e-07
2.09366e-07
2.09421e-07
2.10864e-07
2.10925e-07
2.09399e-07
2.10855e-07
2.10898e-07
2.86286e-07
2.95825e-07
2.09386e-07
2.10861e-07
2.10886e-07
2.95848e-07
2.99191e-07
3.11466e-07
2.11658e-07
2.11693e-07
2.14715e-07
2.14759e-07
2.99221e-07
3.11492e-07
2.11632e-07
2.11693e-07
2.1469e-07
2.14758e-07
2.11666e-07
2.14678e-07
2.14726e-07
2.99232e-07
3.11507e-07
2.11654e-07
2.14685e-07
2.14716e-07
3.11533e-07
3.15561e-07
3.30518e-07
2.16005e-07
2.16047e-07
2.20646e-07
2.20691e-07
3.15586e-07
3.30541e-07
2.1598e-07
2.16048e-07
2.20618e-07
2.20692e-07
2.16016e-07
2.20602e-07
2.20656e-07
3.15603e-07
3.30562e-07
2.16005e-07
2.2061e-07
2.20646e-07
3.30592e-07
3.35305e-07
3.52855e-07
2.22461e-07
2.22504e-07
2.28695e-07
2.28736e-07
3.35322e-07
3.52873e-07
2.2243e-07
2.22506e-07
2.28658e-07
2.28741e-07
2.22468e-07
2.2864e-07
2.28699e-07
3.35345e-07
3.529e-07
2.22458e-07
2.28649e-07
2.2869e-07
3.52933e-07
3.58314e-07
3.78322e-07
2.31036e-07
2.31077e-07
2.38849e-07
2.38889e-07
3.58327e-07
3.78338e-07
2.30998e-07
2.31083e-07
2.38807e-07
2.389e-07
2.3104e-07
2.38785e-07
2.38853e-07
3.58356e-07
3.78371e-07
2.31029e-07
2.38796e-07
2.38842e-07
3.78407e-07
3.84427e-07
4.06686e-07
2.41716e-07
2.41756e-07
2.51097e-07
2.51136e-07
3.84439e-07
4.06701e-07
2.41672e-07
2.41767e-07
2.51048e-07
2.51151e-07
2.41719e-07
2.51023e-07
2.511e-07
3.84473e-07
4.0674e-07
2.41707e-07
2.51036e-07
2.51087e-07
4.0678e-07
4.13393e-07
4.37625e-07
2.54481e-07
2.5452e-07
2.65397e-07
2.65437e-07
4.13403e-07
4.3764e-07
2.54431e-07
2.54536e-07
2.65342e-07
2.65457e-07
2.54484e-07
2.65314e-07
2.65401e-07
4.13443e-07
4.37684e-07
2.5447e-07
2.6533e-07
2.65386e-07
4.37728e-07
4.44874e-07
4.70761e-07
2.69287e-07
2.69327e-07
2.81692e-07
2.81731e-07
4.44883e-07
4.70776e-07
2.6923e-07
2.69347e-07
2.81629e-07
2.81756e-07
2.69291e-07
2.81599e-07
2.81697e-07
4.44929e-07
4.70825e-07
2.69273e-07
2.81618e-07
2.81677e-07
4.70874e-07
4.78482e-07
5.05675e-07
2.86068e-07
2.86108e-07
2.99898e-07
2.99938e-07
4.78491e-07
5.05689e-07
2.86003e-07
2.86133e-07
2.99827e-07
2.99967e-07
2.86074e-07
2.99795e-07
2.99906e-07
4.78542e-07
5.05744e-07
2.86051e-07
2.99818e-07
2.9988e-07
5.05797e-07
5.13791e-07
5.41925e-07
3.04737e-07
3.04778e-07
3.19917e-07
3.19957e-07
5.13799e-07
5.41938e-07
3.04664e-07
3.04808e-07
3.19836e-07
3.1999e-07
3.04747e-07
3.19804e-07
3.19928e-07
5.13855e-07
5.41998e-07
3.04716e-07
3.19832e-07
3.19894e-07
5.42055e-07
5.50353e-07
5.79065e-07
3.25191e-07
3.25232e-07
3.41632e-07
3.4167e-07
5.5036e-07
5.79078e-07
3.25109e-07
3.25266e-07
3.4154e-07
3.41708e-07
3.25204e-07
3.41508e-07
3.41646e-07
5.50421e-07
5.79143e-07
3.25165e-07
3.4154e-07
3.41603e-07
5.79204e-07
5.87723e-07
6.16672e-07
3.47309e-07
3.47349e-07
3.6491e-07
3.64946e-07
5.87729e-07
6.16684e-07
3.47216e-07
3.47388e-07
3.64807e-07
3.64989e-07
3.47326e-07
3.64776e-07
3.64928e-07
5.87795e-07
6.16755e-07
3.47277e-07
3.64813e-07
3.64874e-07
6.16818e-07
6.2548e-07
6.54358e-07
3.70954e-07
3.70994e-07
3.89608e-07
3.89642e-07
6.25485e-07
6.5437e-07
3.70852e-07
3.71037e-07
3.89493e-07
3.89689e-07
3.70977e-07
3.89464e-07
3.8963e-07
6.25556e-07
6.54445e-07
3.70917e-07
3.89507e-07
3.89565e-07
6.54511e-07
6.63242e-07
6.91785e-07
3.95981e-07
3.9602e-07
4.1557e-07
4.15601e-07
6.63247e-07
6.91797e-07
3.95869e-07
3.96068e-07
4.15442e-07
4.15652e-07
3.9601e-07
4.15416e-07
4.15597e-07
6.63322e-07
6.91876e-07
3.95939e-07
4.15465e-07
4.15519e-07
6.91945e-07
7.0068e-07
7.28673e-07
4.22232e-07
4.22269e-07
4.42633e-07
4.4266e-07
7.00684e-07
7.28684e-07
4.22109e-07
4.22322e-07
4.42493e-07
4.42716e-07
4.22268e-07
4.42471e-07
4.42665e-07
7.00763e-07
7.28766e-07
4.22184e-07
4.42525e-07
4.42574e-07
7.28837e-07
7.37521e-07
7.64798e-07
4.49543e-07
4.49577e-07
4.70626e-07
4.70649e-07
7.37525e-07
7.64808e-07
4.49409e-07
4.49634e-07
4.70475e-07
4.7071e-07
4.49585e-07
4.70457e-07
4.70664e-07
7.37607e-07
7.64893e-07
4.49487e-07
4.70517e-07
4.70561e-07
7.64966e-07
7.73554e-07
7.99992e-07
4.77742e-07
4.77773e-07
4.99376e-07
4.99395e-07
7.73557e-07
8.00002e-07
4.77597e-07
4.77833e-07
4.99214e-07
4.9946e-07
4.7779e-07
4.992e-07
4.9942e-07
7.73641e-07
8.00089e-07
4.7768e-07
4.99267e-07
4.99304e-07
8.00163e-07
8.08617e-07
8.34123e-07
5.06653e-07
5.06679e-07
5.28705e-07
5.2872e-07
8.08619e-07
8.34133e-07
5.06498e-07
5.06743e-07
5.28534e-07
5.2879e-07
5.06708e-07
5.28523e-07
5.28756e-07
8.08705e-07
8.34222e-07
5.06584e-07
5.28597e-07
5.28627e-07
8.34298e-07
8.4256e-07
8.67129e-07
5.361e-07
5.36122e-07
5.58437e-07
5.58446e-07
8.42564e-07
8.67137e-07
5.35935e-07
5.36189e-07
5.58257e-07
5.58522e-07
5.36162e-07
5.5825e-07
5.58494e-07
8.42652e-07
8.67228e-07
5.36025e-07
5.5833e-07
5.58353e-07
8.67302e-07
8.75358e-07
8.9896e-07
5.65903e-07
5.6592e-07
5.88394e-07
5.88398e-07
8.7536e-07
8.98966e-07
5.6573e-07
5.65989e-07
5.88206e-07
5.88479e-07
5.65971e-07
5.88202e-07
5.88457e-07
8.75449e-07
8.99058e-07
5.65822e-07
5.8829e-07
5.88304e-07
8.99132e-07
9.06966e-07
9.29567e-07
5.95893e-07
5.95903e-07
6.18404e-07
6.18404e-07
9.06966e-07
9.29572e-07
5.95711e-07
5.95976e-07
6.1821e-07
6.18488e-07
5.95966e-07
6.1821e-07
6.18474e-07
9.07057e-07
9.29665e-07
5.95806e-07
6.18305e-07
6.18311e-07
9.29738e-07
9.37329e-07
9.58882e-07
6.25886e-07
6.25889e-07
6.48258e-07
6.48254e-07
9.37328e-07
9.58886e-07
6.25696e-07
6.25967e-07
6.48059e-07
6.4834e-07
6.25964e-07
6.48063e-07
6.48334e-07
9.3742e-07
9.5898e-07
6.25793e-07
6.48164e-07
6.48162e-07
9.59052e-07
9.66384e-07
9.8685e-07
6.55673e-07
6.55668e-07
6.77793e-07
6.77779e-07
9.66381e-07
9.86849e-07
6.55476e-07
6.55751e-07
6.77587e-07
6.77868e-07
6.55755e-07
6.77593e-07
6.77873e-07
9.66475e-07
9.86946e-07
6.55576e-07
6.777e-07
6.77692e-07
9.87018e-07
9.94066e-07
1.01331e-06
6.85098e-07
6.85086e-07
7.06713e-07
7.06698e-07
9.94065e-07
1.01331e-06
6.84893e-07
6.85171e-07
7.06504e-07
7.06786e-07
6.85182e-07
7.06518e-07
7.06799e-07
9.9416e-07
1.0134e-06
6.84994e-07
7.06627e-07
7.06612e-07
1.01347e-06
1.02019e-06
1.03807e-06
7.13803e-07
7.13789e-07
7.34699e-07
7.34684e-07
1.02019e-06
1.03808e-06
7.13594e-07
7.13875e-07
7.34489e-07
7.34771e-07
7.13891e-07
7.34514e-07
7.34791e-07
1.02028e-06
1.03817e-06
7.13698e-07
7.34622e-07
7.34599e-07
1.03824e-06
1.04461e-06
1.0609e-06
7.41508e-07
7.41492e-07
7.61181e-07
7.61161e-07
1.04461e-06
1.0609e-06
7.41298e-07
7.41578e-07
7.6097e-07
7.61249e-07
7.41602e-07
7.61e-07
7.61278e-07
1.0447e-06
1.06099e-06
7.41403e-07
7.61111e-07
7.61081e-07
1.06106e-06
1.06695e-06
1.08088e-06
7.67423e-07
7.67401e-07
7.85019e-07
7.84989e-07
1.06695e-06
1.08088e-06
7.67212e-07
7.67489e-07
7.84808e-07
7.85083e-07
7.67521e-07
7.84835e-07
7.85116e-07
1.06704e-06
1.08098e-06
7.67318e-07
7.8495e-07
7.84915e-07
1.08104e-06
1.08626e-06
1.09679e-06
7.90435e-07
7.90404e-07
8.04748e-07
8.04717e-07
1.08626e-06
1.09679e-06
7.90224e-07
7.90497e-07
8.04539e-07
8.04818e-07
7.90534e-07
8.04569e-07
8.04852e-07
1.08636e-06
1.09689e-06
7.90326e-07
8.04696e-07
8.04648e-07
1.09696e-06
1.1012e-06
1.10707e-06
8.08735e-07
8.08703e-07
8.18124e-07
8.1809e-07
1.10121e-06
1.10708e-06
8.08525e-07
8.08807e-07
8.17914e-07
8.18203e-07
8.08841e-07
8.17941e-07
8.18231e-07
1.10131e-06
1.10719e-06
8.08634e-07
8.18084e-07
8.18033e-07
1.10725e-06
1.11035e-06
1.11206e-06
8.20431e-07
8.20397e-07
8.25329e-07
8.25294e-07
1.11036e-06
1.11207e-06
8.20222e-07
8.2051e-07
8.25121e-07
8.25407e-07
8.20541e-07
8.25153e-07
8.25438e-07
1.11047e-06
1.11218e-06
8.20338e-07
8.25294e-07
8.25241e-07
1.11224e-06
1.1146e-06
1.11412e-06
8.26409e-07
8.26375e-07
8.28536e-07
8.285e-07
1.11461e-06
1.11414e-06
8.26202e-07
8.26486e-07
8.28331e-07
8.2861e-07
8.26519e-07
8.2836e-07
8.28642e-07
1.11472e-06
1.11424e-06
8.26319e-07
8.28498e-07
8.28447e-07
1.11429e-06
1.11635e-06
1.11449e-06
8.28962e-07
8.28924e-07
8.29719e-07
8.29679e-07
1.11636e-06
1.11451e-06
8.28756e-07
8.29033e-07
8.29514e-07
8.29789e-07
8.29068e-07
8.29556e-07
8.29826e-07
1.11646e-06
1.1146e-06
8.28869e-07
8.29686e-07
8.29628e-07
1.11466e-06
1.11662e-06
1.11431e-06
8.29839e-07
8.29799e-07
8.30062e-07
8.30017e-07
1.11664e-06
1.11432e-06
8.29634e-07
8.29909e-07
8.29855e-07
8.30131e-07
8.29947e-07
8.29891e-07
8.30167e-07
1.11673e-06
1.11442e-06
8.29746e-07
8.30022e-07
8.2997e-07
1.11449e-06
1.11633e-06
1.11464e-06
8.30132e-07
8.30087e-07
8.30385e-07
8.30335e-07
1.11634e-06
1.11464e-06
8.29925e-07
8.302e-07
8.30178e-07
8.30452e-07
8.30237e-07
8.30212e-07
8.30487e-07
1.11644e-06
1.11474e-06
8.30038e-07
8.30348e-07
8.30291e-07
1.11479e-06
1.11685e-06
1.11444e-06
8.30438e-07
8.30389e-07
8.30544e-07
8.30495e-07
1.11686e-06
1.11444e-06
8.30231e-07
8.30506e-07
8.30336e-07
8.30612e-07
8.30541e-07
8.30382e-07
8.30646e-07
1.11696e-06
1.11455e-06
8.30343e-07
8.30515e-07
8.30449e-07
1.11463e-06
1.11653e-06
1.11482e-06
8.30565e-07
8.30514e-07
8.30606e-07
8.3055e-07
1.11654e-06
1.11482e-06
8.30356e-07
8.30632e-07
8.30397e-07
8.30671e-07
8.30666e-07
8.30414e-07
8.30707e-07
1.11664e-06
1.11493e-06
8.30468e-07
8.30552e-07
8.30509e-07
1.11497e-06
1.11691e-06
1.11444e-06
8.30596e-07
8.30539e-07
8.30586e-07
8.30527e-07
1.11691e-06
1.11442e-06
8.30386e-07
8.30661e-07
8.30375e-07
8.30649e-07
8.30698e-07
8.30391e-07
8.30689e-07
1.11702e-06
1.11453e-06
8.30499e-07
8.3053e-07
8.30489e-07
1.11462e-06
1.11661e-06
1.11462e-06
8.30575e-07
8.30516e-07
8.30581e-07
8.30522e-07
1.1166e-06
1.11461e-06
8.30364e-07
8.30638e-07
8.3037e-07
8.30645e-07
8.30678e-07
8.30389e-07
8.30685e-07
1.1167e-06
1.11472e-06
8.30477e-07
8.30528e-07
8.30485e-07
1.11483e-06
1.11653e-06
1.11498e-06
8.30564e-07
8.30505e-07
8.30568e-07
8.30509e-07
1.11652e-06
1.11498e-06
8.30353e-07
8.30627e-07
8.30357e-07
8.30631e-07
8.3067e-07
8.30373e-07
8.30671e-07
1.11663e-06
1.11509e-06
8.30467e-07
8.30527e-07
8.30469e-07
1.11511e-06
1.11706e-06
1.11446e-06
8.30551e-07
8.30493e-07
8.30552e-07
8.30493e-07
1.11705e-06
1.11447e-06
8.3034e-07
8.30614e-07
8.30341e-07
8.3062e-07
8.30654e-07
8.30381e-07
8.30658e-07
1.11717e-06
1.11457e-06
8.30453e-07
8.3052e-07
8.3046e-07
1.11459e-06
1.11675e-06
1.11433e-06
8.30538e-07
8.30479e-07
8.30544e-07
8.30481e-07
1.11677e-06
1.11433e-06
8.30328e-07
8.30613e-07
8.30334e-07
8.30622e-07
8.30648e-07
8.30378e-07
8.30658e-07
1.11686e-06
1.11445e-06
8.30454e-07
8.30513e-07
8.30466e-07
1.11456e-06
1.11639e-06
1.11469e-06
8.30536e-07
8.30467e-07
8.30558e-07
8.30481e-07
1.11639e-06
1.11469e-06
8.30325e-07
8.30606e-07
8.30351e-07
8.3061e-07
8.30643e-07
8.30374e-07
8.30648e-07
1.1165e-06
1.11481e-06
8.3045e-07
8.30512e-07
8.30453e-07
1.11492e-06
1.1166e-06
1.11491e-06
8.30548e-07
8.30472e-07
8.30564e-07
8.30496e-07
1.11659e-06
1.11491e-06
8.30343e-07
8.30596e-07
8.30358e-07
8.30615e-07
8.30635e-07
8.30386e-07
8.30654e-07
1.11671e-06
1.11502e-06
8.3044e-07
8.30527e-07
8.30458e-07
1.11508e-06
1.11688e-06
1.11489e-06
8.30553e-07
8.30486e-07
8.30567e-07
8.30507e-07
1.11689e-06
1.11487e-06
8.30346e-07
8.30605e-07
8.30354e-07
8.30632e-07
8.30645e-07
8.30393e-07
8.30669e-07
1.117e-06
1.11499e-06
8.30447e-07
8.30532e-07
8.3047e-07
1.11496e-06
1.11706e-06
1.11457e-06
8.30558e-07
8.30499e-07
8.30559e-07
8.30508e-07
1.11705e-06
1.11459e-06
8.3034e-07
8.30623e-07
8.30348e-07
8.30624e-07
8.30662e-07
8.30394e-07
8.30671e-07
1.11716e-06
1.11469e-06
8.30463e-07
8.3053e-07
8.30475e-07
1.11463e-06
1.11688e-06
1.11431e-06
8.30547e-07
8.305e-07
8.30562e-07
8.30508e-07
1.11691e-06
1.11431e-06
8.30339e-07
8.30612e-07
8.3035e-07
8.30625e-07
8.30664e-07
8.30394e-07
8.30672e-07
1.11701e-06
1.11441e-06
8.30468e-07
8.30528e-07
8.30475e-07
1.11447e-06
1.11656e-06
1.11433e-06
8.30558e-07
8.305e-07
8.30566e-07
8.30507e-07
1.11657e-06
1.11434e-06
8.30345e-07
8.30621e-07
8.30353e-07
8.3063e-07
8.30662e-07
8.30399e-07
8.30674e-07
1.11667e-06
1.11445e-06
8.30465e-07
8.30527e-07
8.30475e-07
1.11467e-06
1.11632e-06
1.1149e-06
8.30557e-07
8.30496e-07
8.30576e-07
8.30504e-07
1.11634e-06
1.1149e-06
8.30344e-07
8.30621e-07
8.30363e-07
8.30641e-07
8.30661e-07
8.30411e-07
8.30674e-07
1.11644e-06
1.11502e-06
8.30461e-07
8.30537e-07
8.30465e-07
1.11515e-06
1.11681e-06
1.11473e-06
8.30563e-07
8.30489e-07
8.30563e-07
8.3051e-07
1.1168e-06
1.11477e-06
8.3035e-07
8.30628e-07
8.30349e-07
8.30632e-07
8.30661e-07
8.304e-07
8.30667e-07
1.11694e-06
1.11486e-06
8.30449e-07
8.30531e-07
8.30465e-07
1.11475e-06
1.11697e-06
1.11434e-06
8.30552e-07
8.30505e-07
8.30564e-07
8.30509e-07
1.11701e-06
1.11433e-06
8.30335e-07
8.30623e-07
8.30342e-07
8.30634e-07
8.30659e-07
8.30392e-07
8.30673e-07
1.11711e-06
1.11442e-06
8.3046e-07
8.30526e-07
8.30478e-07
1.11461e-06
1.11645e-06
1.11481e-06
8.30552e-07
8.30498e-07
8.30579e-07
8.30509e-07
1.11645e-06
1.11479e-06
8.30331e-07
8.30621e-07
8.30362e-07
8.30637e-07
8.30657e-07
8.30403e-07
8.30664e-07
1.11655e-06
1.11489e-06
8.30463e-07
8.30535e-07
8.3048e-07
1.11508e-06
1.11675e-06
1.11481e-06
8.30563e-07
8.30498e-07
8.30563e-07
8.3051e-07
1.11672e-06
1.11485e-06
8.30347e-07
8.30624e-07
8.30344e-07
8.30632e-07
8.30649e-07
8.30406e-07
8.30662e-07
1.11681e-06
1.11497e-06
8.3047e-07
8.30532e-07
8.30465e-07
1.11471e-06
1.11699e-06
1.11446e-06
8.30551e-07
8.30502e-07
8.30563e-07
8.305e-07
1.11703e-06
1.11444e-06
8.30331e-07
8.30624e-07
8.3034e-07
8.30623e-07
8.30656e-07
8.30398e-07
8.30666e-07
1.11713e-06
1.11454e-06
8.30452e-07
8.30522e-07
8.30459e-07
1.1146e-06
1.11666e-06
1.11459e-06
8.30558e-07
8.30488e-07
8.30574e-07
8.30491e-07
1.11666e-06
1.11453e-06
8.30335e-07
8.30615e-07
8.30351e-07
8.30628e-07
8.30653e-07
8.30403e-07
8.30673e-07
1.11677e-06
1.11463e-06
8.30447e-07
8.30523e-07
8.30473e-07
1.11492e-06
1.11659e-06
1.11489e-06
8.3056e-07
8.3048e-07
8.30565e-07
8.30511e-07
1.11653e-06
1.11487e-06
8.30337e-07
8.30615e-07
8.30345e-07
8.30625e-07
8.30663e-07
8.304e-07
8.30678e-07
1.11665e-06
1.11496e-06
8.30464e-07
8.3053e-07
8.30478e-07
1.11509e-06
1.11685e-06
1.11497e-06
8.30549e-07
8.305e-07
8.30562e-07
8.30502e-07
1.11679e-06
1.11499e-06
8.3033e-07
8.3061e-07
8.30354e-07
8.30631e-07
8.30668e-07
8.3041e-07
8.30666e-07
1.11691e-06
1.11509e-06
8.30467e-07
8.3053e-07
8.30464e-07
1.11507e-06
1.11704e-06
1.11482e-06
8.30554e-07
8.30489e-07
8.30559e-07
8.30499e-07
1.11703e-06
1.11484e-06
8.30348e-07
8.30624e-07
8.30358e-07
8.30635e-07
8.30653e-07
8.30399e-07
8.30661e-07
1.11716e-06
1.11493e-06
8.30451e-07
8.3052e-07
8.30465e-07
1.11486e-06
1.11706e-06
1.11457e-06
8.30546e-07
8.30486e-07
8.30568e-07
8.30509e-07
1.11707e-06
1.11456e-06
8.30346e-07
8.30626e-07
8.30355e-07
8.30632e-07
8.30648e-07
8.30407e-07
8.30657e-07
1.11717e-06
1.11463e-06
8.30457e-07
8.3052e-07
8.30465e-07
1.11457e-06
1.11689e-06
1.11442e-06
8.30562e-07
8.30502e-07
8.30572e-07
8.30511e-07
1.11688e-06
1.11441e-06
8.30341e-07
8.30618e-07
8.30355e-07
8.30629e-07
8.30644e-07
8.30408e-07
8.30658e-07
1.11696e-06
1.11449e-06
8.30451e-07
8.30529e-07
8.30459e-07
1.11447e-06
1.11673e-06
1.11429e-06
8.30563e-07
8.30501e-07
8.30569e-07
8.30505e-07
1.1167e-06
1.1143e-06
8.30348e-07
8.3062e-07
8.30354e-07
8.30629e-07
8.3065e-07
8.30406e-07
8.30663e-07
1.11677e-06
1.1144e-06
8.30451e-07
8.30527e-07
8.30464e-07
1.11459e-06
1.11652e-06
1.11437e-06
8.30561e-07
8.30494e-07
8.30569e-07
8.305e-07
1.11652e-06
1.11435e-06
8.30346e-07
8.30621e-07
8.30354e-07
8.30629e-07
8.30652e-07
8.30404e-07
8.30666e-07
1.11661e-06
1.11445e-06
8.30454e-07
8.30524e-07
8.30469e-07
1.11474e-06
1.11637e-06
1.11471e-06
8.30561e-07
8.3049e-07
8.30575e-07
8.30507e-07
1.11637e-06
1.11463e-06
8.30346e-07
8.30621e-07
8.30359e-07
8.30634e-07
8.30655e-07
8.30404e-07
8.3067e-07
1.11645e-06
1.11484e-06
8.30456e-07
8.30526e-07
8.3047e-07
1.11489e-06
1.1166e-06
1.11482e-06
8.30562e-07
8.30494e-07
8.30573e-07
8.30507e-07
1.11652e-06
1.1148e-06
8.30346e-07
8.30619e-07
8.30358e-07
8.30635e-07
8.30658e-07
8.30405e-07
8.30673e-07
1.1167e-06
1.11505e-06
8.30458e-07
8.30525e-07
8.30475e-07
1.11509e-06
1.1167e-06
1.11502e-06
8.30561e-07
8.30495e-07
8.30579e-07
8.30508e-07
1.11667e-06
1.11498e-06
8.30347e-07
8.30623e-07
8.30362e-07
8.30626e-07
8.30661e-07
8.3041e-07
8.30673e-07
1.11703e-06
1.11498e-06
8.30463e-07
8.30524e-07
8.30478e-07
1.11513e-06
1.11701e-06
1.11474e-06
8.30568e-07
8.30497e-07
8.30572e-07
8.30503e-07
1.11693e-06
1.1149e-06
8.30352e-07
8.30612e-07
8.30356e-07
8.3063e-07
8.30664e-07
8.30409e-07
8.30665e-07
1.11706e-06
1.11503e-06
8.30469e-07
8.30527e-07
8.30469e-07
1.11491e-06
1.11703e-06
1.11427e-06
8.30566e-07
8.30496e-07
8.30565e-07
8.30497e-07
1.11709e-06
1.11451e-06
8.3035e-07
8.30624e-07
8.30347e-07
8.30624e-07
8.30657e-07
8.30402e-07
8.30658e-07
1.11721e-06
1.11462e-06
8.30461e-07
8.3052e-07
8.3046e-07
1.11464e-06
1.1165e-06
1.11445e-06
8.3056e-07
8.3049e-07
8.30567e-07
8.30494e-07
1.11684e-06
1.11432e-06
8.30341e-07
8.30619e-07
8.30347e-07
8.30621e-07
8.30649e-07
8.30398e-07
8.30657e-07
1.11695e-06
1.11438e-06
8.30451e-07
8.30517e-07
8.30456e-07
1.11458e-06
1.1164e-06
1.11477e-06
8.30556e-07
8.30488e-07
8.30562e-07
8.30492e-07
1.11653e-06
1.11437e-06
8.30341e-07
8.30615e-07
8.30352e-07
8.30621e-07
8.30651e-07
8.30399e-07
8.30663e-07
1.11648e-06
1.11474e-06
8.30448e-07
8.30518e-07
8.3046e-07
1.11462e-06
1.11666e-06
1.1148e-06
8.30552e-07
8.30486e-07
8.30563e-07
8.30495e-07
1.11647e-06
1.11438e-06
8.30342e-07
8.30613e-07
8.30344e-07
8.30624e-07
8.30653e-07
8.304e-07
8.30659e-07
1.11662e-06
1.11498e-06
8.3045e-07
8.30516e-07
8.3046e-07
1.1146e-06
1.1167e-06
1.11491e-06
8.30555e-07
8.3049e-07
8.30558e-07
8.30497e-07
1.11638e-06
1.11466e-06
8.30338e-07
8.30616e-07
8.30348e-07
8.30619e-07
8.30654e-07
8.30406e-07
8.30664e-07
1.11687e-06
1.11506e-06
8.30456e-07
8.30517e-07
8.30464e-07
1.11451e-06
1.11681e-06
1.115e-06
8.30553e-07
8.30491e-07
8.30569e-07
8.30506e-07
1.11651e-06
1.11504e-06
8.30341e-07
8.30615e-07
8.30351e-07
8.30623e-07
8.30663e-07
8.3041e-07
8.30662e-07
1.11702e-06
1.11508e-06
8.30462e-07
8.30521e-07
8.30462e-07
1.11448e-06
1.11708e-06
1.11469e-06
8.30563e-07
8.30501e-07
8.30558e-07
8.30501e-07
1.11704e-06
1.11469e-06
8.30347e-07
8.3062e-07
8.30345e-07
8.30617e-07
8.30661e-07
8.30407e-07
8.30666e-07
1.11717e-06
1.11491e-06
8.3046e-07
8.30524e-07
8.30466e-07
1.11487e-06
1.11698e-06
1.11437e-06
8.30558e-07
8.30502e-07
8.30557e-07
8.30498e-07
1.11698e-06
1.1143e-06
8.30343e-07
8.30617e-07
8.30345e-07
8.30621e-07
8.30657e-07
8.30405e-07
8.30659e-07
1.11716e-06
1.11462e-06
8.30457e-07
8.30528e-07
8.3046e-07
1.11512e-06
1.11662e-06
1.11439e-06
8.30558e-07
8.30498e-07
8.30566e-07
8.30501e-07
1.11646e-06
1.11459e-06
8.30345e-07
8.30621e-07
8.30351e-07
8.30628e-07
8.30657e-07
8.30423e-07
8.30665e-07
1.11693e-06
1.11445e-06
8.30458e-07
8.30536e-07
8.30465e-07
1.11499e-06
1.11641e-06
1.11471e-06
8.30566e-07
8.30499e-07
8.30574e-07
8.30528e-07
1.11648e-06
1.11497e-06
8.30351e-07
8.30628e-07
8.30372e-07
8.30648e-07
8.30667e-07
8.30451e-07
8.30679e-07
1.11662e-06
1.11462e-06
8.30466e-07
8.30559e-07
8.30487e-07
1.1149e-06
1.11654e-06
1.11474e-06
8.30565e-07
8.30503e-07
8.30549e-07
8.30487e-07
1.1168e-06
1.1148e-06
8.30348e-07
8.30628e-07
8.30334e-07
8.30611e-07
8.3067e-07
8.30415e-07
8.30649e-07
1.11651e-06
1.11476e-06
8.30461e-07
8.30524e-07
8.3044e-07
1.11465e-06
1.11621e-06
1.0865e-06
8.28989e-07
8.28926e-07
7.6996e-07
7.69896e-07
1.11636e-06
1.08654e-06
8.28775e-07
8.29036e-07
7.69874e-07
7.69981e-07
8.29079e-07
7.69964e-07
7.70024e-07
1.11621e-06
1.0866e-06
8.28876e-07
7.70031e-07
7.69954e-07
1.08664e-06
1.06361e-06
7.44451e-07
7.44395e-07
1.06365e-06
7.44378e-07
7.44471e-07
3.40818e-07
3.40875e-07
3.4088e-07
7.44528e-07
1.06369e-06
7.44481e-07
5.35653e-07
5.35523e-07
5.35636e-07
5.35636e-07
5.34569e-07
5.35437e-07
5.33636e-07
5.35608e-07
5.34569e-07
5.35437e-07
5.35608e-07
5.33635e-07
5.35196e-07
5.35984e-07
5.35983e-07
1.10752e-06
3.87706e-06
9.31517e-07
4.60281e-06
1.25997e-05
1.65964e-05
1.10795e-06
3.87738e-06
9.31279e-07
4.60373e-06
4.9917e-07
4.9917e-07
4.9917e-07
4.57218e-07
4.57218e-07
4.57218e-07
4.57218e-07
5.43021e-07
1.21905e-06
4.99137e-07
4.86017e-07
5.24982e-07
1.20925e-06
4.82349e-07
1.26009e-05
1.65978e-05
5.43028e-07
4.99137e-07
1.21903e-06
4.86017e-07
5.2498e-07
4.82349e-07
1.20923e-06
2.51859e-06
2.51919e-06
4.84044e-07
2.37583e-06
2.37655e-06
1.43236e-06
5.59145e-06
1.33113e-06
6.13443e-06
2.12857e-05
2.31129e-05
1.43272e-06
5.59222e-06
1.33093e-06
6.13568e-06
4.45574e-07
4.45575e-07
4.45575e-07
4.13574e-07
4.13574e-07