/*--------------------------------*- C++ -*----------------------------------*\
| =========                 |                                                 |
| \\      /  F ield         | OpenFOAM: The Open Source CFD Toolbox           |
|  \\    /   O peration     | Version:                                        |
|   \\  /    A nd           | Website:  www.openfoam.com                      |
|    \\/     M anipulation  |                                                 |
\*---------------------------------------------------------------------------*/
FoamFile
{
    version     2.0;
    format      ascii;
    class       volScalarField;
    location    "200";
    object      k;
}
// * * * * * * * * * * * * * * * * * * * * * * * * * * * * * * * * * * * * * //

dimensions      [0 2 -2 0 0 0 0];


internalField   nonuniform List<scalar> 
172512
(
3.60232e-05
3.60198e-05
3.60198e-05
3.60083e-05
3.39295e-05
3.38866e-05
3.38866e-05
3.39613e-05
3.21573e-05
3.20054e-05
3.20054e-05
3.19506e-05
3.05337e-05
3.02265e-05
3.02264e-05
2.99865e-05
2.90316e-05
2.85512e-05
2.85511e-05
2.81205e-05
2.76339e-05
2.69845e-05
2.69844e-05
2.63886e-05
2.63292e-05
2.55284e-05
2.55283e-05
2.48054e-05
2.51095e-05
2.41824e-05
2.41823e-05
2.33766e-05
2.39692e-05
2.29482e-05
2.29481e-05
2.21035e-05
2.2904e-05
2.18246e-05
2.18245e-05
2.09852e-05
2.19103e-05
2.08093e-05
2.08091e-05
2.0013e-05
2.09848e-05
1.98994e-05
1.98992e-05
1.91813e-05
2.01224e-05
1.90929e-05
1.90928e-05
1.84898e-05
1.93222e-05
1.83869e-05
1.83868e-05
1.79337e-05
1.85831e-05
1.77779e-05
1.77778e-05
1.75073e-05
1.79026e-05
1.72644e-05
1.72644e-05
1.72015e-05
1.72783e-05
1.68456e-05
1.68455e-05
1.7024e-05
1.67082e-05
1.65204e-05
1.65203e-05
1.69835e-05
1.61909e-05
1.62889e-05
1.62889e-05
1.70807e-05
1.5724e-05
1.61512e-05
1.61513e-05
1.73056e-05
1.53059e-05
1.61069e-05
1.61071e-05
1.76586e-05
1.4936e-05
1.61532e-05
1.61533e-05
1.81355e-05
1.46132e-05
1.62917e-05
1.62919e-05
1.87297e-05
1.43369e-05
1.65198e-05
1.65202e-05
1.94287e-05
1.41066e-05
1.68352e-05
1.68357e-05
2.02207e-05
1.3922e-05
1.72348e-05
1.72354e-05
2.10938e-05
1.37829e-05
1.77151e-05
1.77158e-05
2.20343e-05
1.36891e-05
1.82719e-05
1.82728e-05
2.30283e-05
1.36406e-05
1.89007e-05
1.89018e-05
2.40619e-05
1.36373e-05
1.95966e-05
1.95979e-05
2.51221e-05
1.36795e-05
2.03541e-05
2.03555e-05
2.61976e-05
1.37678e-05
2.11674e-05
2.1169e-05
2.72782e-05
1.39023e-05
2.20304e-05
2.20322e-05
2.83559e-05
1.40832e-05
2.29367e-05
2.29388e-05
2.94244e-05
1.43107e-05
2.38799e-05
2.38822e-05
3.04787e-05
1.45848e-05
2.48537e-05
2.48561e-05
3.15153e-05
1.49055e-05
2.58517e-05
2.58543e-05
3.25317e-05
1.52723e-05
2.68673e-05
2.68702e-05
3.3526e-05
1.56848e-05
2.78947e-05
2.78978e-05
3.44966e-05
1.61417e-05
2.8927e-05
2.89303e-05
3.54413e-05
1.66413e-05
2.99591e-05
2.99625e-05
3.63581e-05
1.71817e-05
3.09834e-05
3.09869e-05
3.72434e-05
1.77546e-05
3.19885e-05
3.1992e-05
3.80898e-05
1.83577e-05
3.29618e-05
3.29654e-05
3.88936e-05
1.89556e-05
3.38617e-05
3.38652e-05
3.96237e-05
1.95245e-05
3.46488e-05
3.46527e-05
4.02388e-05
1.99846e-05
3.5218e-05
3.52226e-05
4.06688e-05
2.02575e-05
3.55366e-05
3.55412e-05
4.08913e-05
2.03592e-05
3.56754e-05
3.568e-05
4.09827e-05
2.03694e-05
3.57267e-05
3.57312e-05
4.10204e-05
2.03607e-05
3.57397e-05
3.57442e-05
4.10238e-05
2.03657e-05
3.57557e-05
3.57605e-05
4.10292e-05
2.03799e-05
3.57678e-05
3.57721e-05
4.10409e-05
2.03902e-05
3.57722e-05
3.57769e-05
4.10424e-05
2.03942e-05
3.57714e-05
3.57763e-05
4.10355e-05
2.03944e-05
3.57717e-05
3.57767e-05
4.10512e-05
2.03945e-05
3.57713e-05
3.57771e-05
4.1041e-05
2.03945e-05
3.57718e-05
3.57766e-05
4.10328e-05
2.03946e-05
3.5772e-05
3.57765e-05
4.10479e-05
2.03951e-05
3.57714e-05
3.57765e-05
4.10487e-05
2.03952e-05
3.57718e-05
3.57768e-05
4.10412e-05
2.03953e-05
3.5772e-05
3.5777e-05
4.10329e-05
2.03953e-05
3.5772e-05
3.5777e-05
4.1035e-05
2.03953e-05
3.57719e-05
3.57767e-05
4.10414e-05
2.03953e-05
3.5772e-05
3.57767e-05
4.10496e-05
2.03953e-05
3.57727e-05
3.57773e-05
4.1047e-05
2.03953e-05
3.5772e-05
3.5777e-05
4.10303e-05
2.03954e-05
3.57719e-05
3.57771e-05
4.10497e-05
2.03954e-05
3.57726e-05
3.57778e-05
4.10451e-05
2.03955e-05
3.57725e-05
3.57775e-05
4.10314e-05
2.03955e-05
3.57721e-05
3.57769e-05
4.10461e-05
2.03956e-05
3.57724e-05
3.57769e-05
4.10489e-05
2.03956e-05
3.57728e-05
3.57773e-05
4.1045e-05
2.03957e-05
3.5773e-05
3.57773e-05
4.10413e-05
2.03957e-05
3.57725e-05
3.5777e-05
4.10352e-05
2.03957e-05
3.57727e-05
3.57769e-05
4.10339e-05
2.03957e-05
3.57725e-05
3.5777e-05
4.10395e-05
2.03957e-05
3.57724e-05
3.57768e-05
4.10462e-05
2.03957e-05
3.57722e-05
3.57767e-05
4.10484e-05
2.03954e-05
3.57723e-05
3.57769e-05
4.10483e-05
2.0395e-05
3.57725e-05
3.57769e-05
4.10473e-05
2.03948e-05
3.57727e-05
3.57769e-05
4.10432e-05
2.03946e-05
3.57726e-05
3.5777e-05
4.1035e-05
2.03945e-05
3.57722e-05
3.57766e-05
4.10337e-05
2.03944e-05
3.5772e-05
3.57766e-05
4.10376e-05
2.03942e-05
3.5772e-05
3.57767e-05
4.10398e-05
2.03941e-05
3.57721e-05
3.57766e-05
4.10383e-05
2.03942e-05
3.57724e-05
3.57766e-05
4.10372e-05
2.03944e-05
3.57726e-05
3.57767e-05
4.10418e-05
2.03946e-05
3.57726e-05
3.57769e-05
4.10513e-05
2.03949e-05
3.57727e-05
3.57774e-05
4.10437e-05
2.03955e-05
3.57738e-05
3.5778e-05
4.10348e-05
2.03959e-05
3.57756e-05
3.5779e-05
4.10368e-05
2.03654e-05
3.57696e-05
3.57734e-05
4.10278e-05
2.19419e-05
3.34819e-05
3.34847e-05
4.01295e-05
3.62983e-05
3.62919e-05
3.62919e-05
3.62984e-05
3.62919e-05
3.62919e-05
3.62908e-05
3.62908e-05
3.62908e-05
3.62908e-05
3.62919e-05
3.62919e-05
3.62984e-05
3.62919e-05
3.62919e-05
3.62984e-05
3.60083e-05
3.42678e-05
3.60198e-05
3.60198e-05
3.43746e-05
3.43745e-05
3.60083e-05
3.42678e-05
3.60198e-05
3.60198e-05
3.43746e-05
3.43745e-05
3.60198e-05
3.43746e-05
3.43746e-05
3.60083e-05
3.42678e-05
3.60198e-05
3.43746e-05
3.43746e-05
3.42678e-05
3.39613e-05
3.2262e-05
3.38865e-05
3.38865e-05
3.24657e-05
3.24656e-05
3.39613e-05
3.2262e-05
3.38866e-05
3.38865e-05
3.24658e-05
3.24656e-05
3.38865e-05
3.24658e-05
3.24657e-05
3.39613e-05
3.2262e-05
3.38866e-05
3.24658e-05
3.24657e-05
3.22619e-05
3.19507e-05
3.02976e-05
3.20052e-05
3.20051e-05
3.06615e-05
3.06613e-05
3.19507e-05
3.02975e-05
3.20053e-05
3.20051e-05
3.06616e-05
3.06613e-05
3.20052e-05
3.06617e-05
3.06614e-05
3.19506e-05
3.02975e-05
3.20053e-05
3.06617e-05
3.06616e-05
3.02974e-05
2.99866e-05
2.84235e-05
3.02261e-05
3.0226e-05
2.89596e-05
2.89594e-05
2.99866e-05
2.84235e-05
3.02263e-05
3.02259e-05
2.89598e-05
2.89593e-05
3.02261e-05
2.89599e-05
2.89595e-05
2.99865e-05
2.84233e-05
3.02263e-05
2.89599e-05
2.89597e-05
2.84232e-05
2.81207e-05
2.66722e-05
2.85508e-05
2.85506e-05
2.73652e-05
2.7365e-05
2.81207e-05
2.66721e-05
2.8551e-05
2.85505e-05
2.73656e-05
2.73649e-05
2.85507e-05
2.73657e-05
2.73651e-05
2.81206e-05
2.66719e-05
2.85509e-05
2.73657e-05
2.73655e-05
2.66718e-05
2.6389e-05
2.50647e-05
2.69839e-05
2.69836e-05
2.58814e-05
2.58812e-05
2.63889e-05
2.50646e-05
2.69842e-05
2.69835e-05
2.58819e-05
2.5881e-05
2.69838e-05
2.5882e-05
2.58813e-05
2.63888e-05
2.50644e-05
2.69841e-05
2.5882e-05
2.58817e-05
2.50642e-05
2.48059e-05
2.36112e-05
2.55277e-05
2.55274e-05
2.45077e-05
2.45074e-05
2.48058e-05
2.36111e-05
2.55282e-05
2.55273e-05
2.45082e-05
2.45072e-05
2.55276e-05
2.45084e-05
2.45075e-05
2.48056e-05
2.36109e-05
2.5528e-05
2.45083e-05
2.4508e-05
2.36106e-05
2.33771e-05
2.23115e-05
2.41816e-05
2.41813e-05
2.32454e-05
2.32451e-05
2.3377e-05
2.23114e-05
2.41822e-05
2.41812e-05
2.3246e-05
2.32449e-05
2.41815e-05
2.32462e-05
2.32453e-05
2.33768e-05
2.23112e-05
2.4182e-05
2.32461e-05
2.32459e-05
2.23109e-05
2.2104e-05
2.11676e-05
2.29473e-05
2.2947e-05
2.20942e-05
2.20939e-05
2.21039e-05
2.11675e-05
2.29479e-05
2.29468e-05
2.2095e-05
2.20937e-05
2.29472e-05
2.20952e-05
2.20941e-05
2.21037e-05
2.11672e-05
2.29478e-05
2.20951e-05
2.20948e-05
2.1167e-05
2.09859e-05
2.01706e-05
2.18236e-05
2.18233e-05
2.1052e-05
2.10517e-05
2.09858e-05
2.01705e-05
2.18243e-05
2.18231e-05
2.10528e-05
2.10515e-05
2.18235e-05
2.1053e-05
2.10519e-05
2.09855e-05
2.01702e-05
2.18242e-05
2.10529e-05
2.10526e-05
2.017e-05
2.00136e-05
1.93149e-05
2.08082e-05
2.08079e-05
2.01159e-05
2.01157e-05
2.00135e-05
1.93148e-05
2.0809e-05
2.08077e-05
2.01168e-05
2.01155e-05
2.08081e-05
2.0117e-05
2.01159e-05
2.00132e-05
1.93145e-05
2.08088e-05
2.01169e-05
2.01167e-05
1.93142e-05
1.91817e-05
1.85913e-05
1.98982e-05
1.98979e-05
1.92837e-05
1.92834e-05
1.91818e-05
1.85911e-05
1.98991e-05
1.98978e-05
1.92846e-05
1.92833e-05
1.98982e-05
1.92848e-05
1.92836e-05
1.91814e-05
1.85908e-05
1.9899e-05
1.92847e-05
1.92844e-05
1.85905e-05
1.84902e-05
1.79989e-05
1.90918e-05
1.90916e-05
1.85528e-05
1.85526e-05
1.84903e-05
1.79987e-05
1.90927e-05
1.90914e-05
1.85537e-05
1.85525e-05
1.90918e-05
1.85539e-05
1.85528e-05
1.849e-05
1.79985e-05
1.90926e-05
1.85538e-05
1.85536e-05
1.79983e-05
1.7934e-05
1.75405e-05
1.83858e-05
1.83856e-05
1.79198e-05
1.79197e-05
1.79341e-05
1.75404e-05
1.83867e-05
1.83855e-05
1.79207e-05
1.79195e-05
1.83858e-05
1.79208e-05
1.79198e-05
1.79338e-05
1.75402e-05
1.83866e-05
1.79208e-05
1.79207e-05
1.754e-05
1.75076e-05
1.7219e-05
1.77769e-05
1.77767e-05
1.73824e-05
1.73824e-05
1.75077e-05
1.7219e-05
1.77778e-05
1.77766e-05
1.73833e-05
1.73823e-05
1.77769e-05
1.73834e-05
1.73825e-05
1.75074e-05
1.72188e-05
1.77777e-05
1.73834e-05
1.73833e-05
1.72187e-05
1.72017e-05
1.70274e-05
1.72634e-05
1.72634e-05
1.69399e-05
1.69399e-05
1.72018e-05
1.70275e-05
1.72643e-05
1.72633e-05
1.69407e-05
1.69398e-05
1.72635e-05
1.69408e-05
1.694e-05
1.72015e-05
1.70273e-05
1.72643e-05
1.69407e-05
1.69408e-05
1.70274e-05
1.7024e-05
1.69739e-05
1.68447e-05
1.68447e-05
1.65911e-05
1.65912e-05
1.70242e-05
1.69741e-05
1.68455e-05
1.68446e-05
1.65918e-05
1.65911e-05
1.68448e-05
1.65918e-05
1.65912e-05
1.7024e-05
1.6974e-05
1.68455e-05
1.65918e-05
1.65919e-05
1.69741e-05
1.69833e-05
1.70448e-05
1.65196e-05
1.65197e-05
1.6336e-05
1.63361e-05
1.69835e-05
1.70451e-05
1.65203e-05
1.65196e-05
1.63366e-05
1.63361e-05
1.65197e-05
1.63366e-05
1.63361e-05
1.69834e-05
1.7045e-05
1.65205e-05
1.63366e-05
1.63368e-05
1.70452e-05
1.70803e-05
1.72448e-05
1.62883e-05
1.62885e-05
1.61745e-05
1.61748e-05
1.70806e-05
1.72451e-05
1.62889e-05
1.62884e-05
1.61751e-05
1.61748e-05
1.62885e-05
1.6175e-05
1.61748e-05
1.70805e-05
1.72451e-05
1.62892e-05
1.61751e-05
1.61754e-05
1.72453e-05
1.73051e-05
1.75732e-05
1.61507e-05
1.6151e-05
1.61065e-05
1.61068e-05
1.73054e-05
1.75734e-05
1.61513e-05
1.6151e-05
1.61069e-05
1.61069e-05
1.6151e-05
1.61068e-05
1.61068e-05
1.73054e-05
1.75735e-05
1.61516e-05
1.61069e-05
1.61074e-05
1.75739e-05
1.7658e-05
1.80262e-05
1.61066e-05
1.6107e-05
1.61324e-05
1.61327e-05
1.76581e-05
1.80263e-05
1.61071e-05
1.61071e-05
1.61327e-05
1.61329e-05
1.61069e-05
1.61325e-05
1.61327e-05
1.76583e-05
1.80266e-05
1.61075e-05
1.61328e-05
1.61333e-05
1.80271e-05
1.81347e-05
1.85977e-05
1.6153e-05
1.61533e-05
1.62484e-05
1.62488e-05
1.81348e-05
1.85978e-05
1.61533e-05
1.61536e-05
1.62487e-05
1.62491e-05
1.61534e-05
1.62484e-05
1.62488e-05
1.81351e-05
1.85982e-05
1.61539e-05
1.62487e-05
1.62494e-05
1.85987e-05
1.87288e-05
1.92757e-05
1.62917e-05
1.62921e-05
1.64546e-05
1.6455e-05
1.87288e-05
1.92758e-05
1.62919e-05
1.62924e-05
1.64547e-05
1.64554e-05
1.62921e-05
1.64544e-05
1.64551e-05
1.87293e-05
1.92764e-05
1.62926e-05
1.64548e-05
1.64555e-05
1.9277e-05
1.94275e-05
2.00488e-05
1.652e-05
1.65204e-05
1.67486e-05
1.67491e-05
1.94275e-05
2.00489e-05
1.65201e-05
1.65209e-05
1.67486e-05
1.67497e-05
1.65206e-05
1.67482e-05
1.67493e-05
1.94281e-05
2.00496e-05
1.65209e-05
1.67488e-05
1.67496e-05
2.00503e-05
2.02194e-05
2.0905e-05
1.68356e-05
1.68361e-05
1.71277e-05
1.71282e-05
2.02194e-05
2.09051e-05
1.68355e-05
1.68367e-05
1.71275e-05
1.71289e-05
1.68363e-05
1.71271e-05
1.71285e-05
2.02201e-05
2.0906e-05
1.68364e-05
1.71278e-05
1.71286e-05
2.09069e-05
2.10922e-05
2.18313e-05
1.72354e-05
1.72359e-05
1.75884e-05
1.75889e-05
2.10922e-05
2.18313e-05
1.72351e-05
1.72367e-05
1.75879e-05
1.75898e-05
1.72363e-05
1.75876e-05
1.75894e-05
2.1093e-05
2.18324e-05
1.72362e-05
1.75884e-05
1.75892e-05
2.18333e-05
2.20325e-05
2.28135e-05
1.77159e-05
1.77164e-05
1.81267e-05
1.81272e-05
2.20324e-05
2.28136e-05
1.77154e-05
1.77173e-05
1.8126e-05
1.81283e-05
1.77169e-05
1.81257e-05
1.81279e-05
2.20335e-05
2.28148e-05
1.77166e-05
1.81267e-05
1.81274e-05
2.28158e-05
2.30262e-05
2.3838e-05
1.82729e-05
1.82735e-05
1.87382e-05
1.87388e-05
2.30262e-05
2.3838e-05
1.82721e-05
1.82745e-05
1.87372e-05
1.87399e-05
1.82742e-05
1.8737e-05
1.87396e-05
2.30273e-05
2.38394e-05
1.82735e-05
1.87381e-05
1.87388e-05
2.38405e-05
2.40596e-05
2.48916e-05
1.8902e-05
1.89026e-05
1.94181e-05
1.94186e-05
2.40595e-05
2.48917e-05
1.89009e-05
1.89037e-05
1.94168e-05
1.94199e-05
1.89035e-05
1.94166e-05
1.94197e-05
2.40609e-05
2.48931e-05
1.89024e-05
1.94179e-05
1.94185e-05
2.48944e-05
2.51197e-05
2.59626e-05
1.95981e-05
1.95986e-05
2.0161e-05
2.01614e-05
2.51196e-05
2.59627e-05
1.95967e-05
1.96e-05
2.01593e-05
2.01628e-05
1.95998e-05
2.01592e-05
2.01628e-05
2.51211e-05
2.59643e-05
1.95984e-05
2.01607e-05
2.01612e-05
2.59656e-05
2.61949e-05
2.70408e-05
2.03558e-05
2.03563e-05
2.09611e-05
2.09614e-05
2.61949e-05
2.70409e-05
2.03541e-05
2.03577e-05
2.09591e-05
2.0963e-05
2.03577e-05
2.09591e-05
2.09631e-05
2.61964e-05
2.70426e-05
2.03559e-05
2.09608e-05
2.0961e-05
2.7044e-05
2.72754e-05
2.81179e-05
2.11693e-05
2.11697e-05
2.18125e-05
2.18127e-05
2.72753e-05
2.8118e-05
2.11673e-05
2.11713e-05
2.18101e-05
2.18144e-05
2.11714e-05
2.18102e-05
2.18146e-05
2.7277e-05
2.81198e-05
2.11692e-05
2.18122e-05
2.18122e-05
2.81212e-05
2.83531e-05
2.91872e-05
2.20324e-05
2.20328e-05
2.27088e-05
2.27089e-05
2.8353e-05
2.91872e-05
2.20301e-05
2.20345e-05
2.2706e-05
2.27107e-05
2.20348e-05
2.27063e-05
2.27111e-05
2.83548e-05
2.91891e-05
2.20321e-05
2.27085e-05
2.27082e-05
2.91905e-05
2.94215e-05
3.02435e-05
2.29389e-05
2.29392e-05
2.36435e-05
2.36435e-05
2.94213e-05
3.02434e-05
2.29363e-05
2.2941e-05
2.36405e-05
2.36455e-05
2.29416e-05
2.36409e-05
2.36461e-05
2.94232e-05
3.02455e-05
2.29384e-05
2.36433e-05
2.36428e-05
3.02468e-05
3.04758e-05
3.1283e-05
2.38823e-05
2.38824e-05
2.46103e-05
2.46101e-05
3.04756e-05
3.12829e-05
2.38794e-05
2.38843e-05
2.4607e-05
2.46122e-05
2.38851e-05
2.46075e-05
2.46131e-05
3.04776e-05
3.1285e-05
2.38815e-05
2.46101e-05
2.46094e-05
3.12863e-05
3.15124e-05
3.2303e-05
2.48561e-05
2.48561e-05
2.56029e-05
2.56026e-05
3.15122e-05
3.23029e-05
2.48529e-05
2.48581e-05
2.55994e-05
2.56049e-05
2.48592e-05
2.56e-05
2.56059e-05
3.15142e-05
3.23051e-05
2.48552e-05
2.56028e-05
2.56018e-05
3.23064e-05
3.25288e-05
3.33015e-05
2.58542e-05
2.5854e-05
2.66148e-05
2.66143e-05
3.25286e-05
3.33013e-05
2.58508e-05
2.58561e-05
2.6611e-05
2.66167e-05
2.58575e-05
2.66118e-05
2.66179e-05
3.25306e-05
3.33035e-05
2.58531e-05
2.66148e-05
2.66135e-05
3.33048e-05
3.3523e-05
3.42769e-05
2.68699e-05
2.68695e-05
2.76399e-05
2.76392e-05
3.35227e-05
3.42767e-05
2.68663e-05
2.68718e-05
2.76359e-05
2.76417e-05
2.68733e-05
2.76368e-05
2.76431e-05
3.35249e-05
3.4279e-05
2.68687e-05
2.764e-05
2.76384e-05
3.42802e-05
3.44937e-05
3.5227e-05
2.78974e-05
2.78968e-05
2.86717e-05
2.86708e-05
3.44933e-05
3.52268e-05
2.78935e-05
2.78991e-05
2.86676e-05
2.86734e-05
2.79009e-05
2.86686e-05
2.86751e-05
3.44956e-05
3.52291e-05
2.7896e-05
2.86719e-05
2.86702e-05
3.52303e-05
3.54384e-05
3.61497e-05
2.89297e-05
2.89288e-05
2.97039e-05
2.97027e-05
3.5438e-05
3.61493e-05
2.89257e-05
2.89313e-05
2.96996e-05
2.97054e-05
2.89332e-05
2.97007e-05
2.97073e-05
3.54403e-05
3.61518e-05
2.89281e-05
2.97042e-05
2.97022e-05
3.61529e-05
3.63552e-05
3.70423e-05
2.99618e-05
2.99607e-05
3.07318e-05
3.07304e-05
3.63548e-05
3.70418e-05
2.99576e-05
2.99633e-05
3.07274e-05
3.07332e-05
2.99654e-05
3.07285e-05
3.07353e-05
3.63572e-05
3.70444e-05
2.99601e-05
3.07323e-05
3.07301e-05
3.70454e-05
3.72405e-05
3.78965e-05
3.09861e-05
3.09847e-05
3.17414e-05
3.17398e-05
3.72401e-05
3.78961e-05
3.09817e-05
3.09874e-05
3.17369e-05
3.17426e-05
3.09896e-05
3.17382e-05
3.17449e-05
3.72425e-05
3.78985e-05
3.09842e-05
3.17419e-05
3.17395e-05
3.78995e-05
3.8087e-05
3.87105e-05
3.1991e-05
3.19893e-05
3.27265e-05
3.27246e-05
3.80867e-05
3.871e-05
3.19864e-05
3.19921e-05
3.27219e-05
3.27275e-05
3.19945e-05
3.27235e-05
3.27299e-05
3.8089e-05
3.87124e-05
3.1989e-05
3.27271e-05
3.27245e-05
3.87134e-05
3.88908e-05
3.94561e-05
3.29641e-05
3.29622e-05
3.36468e-05
3.36445e-05
3.88904e-05
3.94555e-05
3.29595e-05
3.2965e-05
3.3642e-05
3.36475e-05
3.29675e-05
3.36435e-05
3.365e-05
3.88928e-05
3.94581e-05
3.2962e-05
3.36473e-05
3.36447e-05
3.9459e-05
3.96209e-05
4.00969e-05
3.3864e-05
3.38616e-05
3.44706e-05
3.4468e-05
3.96204e-05
4.00964e-05
3.38593e-05
3.38647e-05
3.44658e-05
3.44711e-05
3.38673e-05
3.44675e-05
3.44738e-05
3.96229e-05
4.0099e-05
3.38618e-05
3.44713e-05
3.44683e-05
4.00999e-05
4.02359e-05
4.05671e-05
3.46509e-05
3.46483e-05
3.51025e-05
3.50998e-05
4.02354e-05
4.05666e-05
3.46462e-05
3.46515e-05
3.50978e-05
3.51035e-05
3.46542e-05
3.50991e-05
3.51058e-05
4.0238e-05
4.05698e-05
3.46486e-05
3.51037e-05
3.51005e-05
4.05702e-05
4.06655e-05
4.08238e-05
3.52204e-05
3.52176e-05
3.548e-05
3.54771e-05
4.06649e-05
4.08232e-05
3.52157e-05
3.52214e-05
3.54754e-05
3.54811e-05
3.52237e-05
3.54769e-05
3.54834e-05
4.06682e-05
4.08264e-05
3.52184e-05
3.54817e-05
3.54783e-05
4.08268e-05
4.08878e-05
4.09339e-05
3.55387e-05
3.55358e-05
3.5654e-05
3.5651e-05
4.08874e-05
4.09334e-05
3.5534e-05
3.55397e-05
3.56494e-05
3.56549e-05
3.5542e-05
3.56507e-05
3.56571e-05
4.08905e-05
4.09364e-05
3.55368e-05
3.56554e-05
3.56522e-05
4.09369e-05
4.09792e-05
4.09779e-05
3.56777e-05
3.56747e-05
3.57217e-05
3.57185e-05
4.09788e-05
4.09775e-05
3.56731e-05
3.56785e-05
3.57171e-05
3.57224e-05
3.56808e-05
3.57187e-05
3.57248e-05
4.09817e-05
4.09805e-05
3.56758e-05
3.57233e-05
3.57198e-05
4.09807e-05
4.10174e-05
4.09867e-05
3.57288e-05
3.57257e-05
3.57393e-05
3.5736e-05
4.10169e-05
4.09863e-05
3.57243e-05
3.57296e-05
3.57347e-05
3.57401e-05
3.5732e-05
3.57365e-05
3.57425e-05
4.10199e-05
4.09892e-05
3.57268e-05
3.57409e-05
3.57374e-05
4.09898e-05
4.10202e-05
4.09854e-05
3.5742e-05
3.57387e-05
3.5755e-05
3.57514e-05
4.10198e-05
4.09845e-05
3.57373e-05
3.57427e-05
3.57503e-05
3.57556e-05
3.57452e-05
3.57512e-05
3.57579e-05
4.10228e-05
4.09877e-05
3.574e-05
3.57562e-05
3.5753e-05
4.09879e-05
4.10262e-05
4.10027e-05
3.57589e-05
3.57553e-05
3.57673e-05
3.57639e-05
4.10253e-05
4.10022e-05
3.57543e-05
3.57595e-05
3.57626e-05
3.5768e-05
3.57619e-05
3.5765e-05
3.57702e-05
4.10285e-05
4.10054e-05
3.57568e-05
3.57695e-05
3.57652e-05
4.10059e-05
4.10373e-05
4.10006e-05
3.57696e-05
3.57662e-05
3.57759e-05
3.57718e-05
4.10368e-05
4.1e-05
3.57648e-05
3.57702e-05
3.5771e-05
3.57762e-05
3.57725e-05
3.57719e-05
3.57787e-05
4.104e-05
4.1003e-05
3.57675e-05
3.57766e-05
3.57737e-05
4.1003e-05
4.104e-05
4.09989e-05
3.5776e-05
3.57718e-05
3.57758e-05
3.57717e-05
4.10393e-05
4.09969e-05
3.57711e-05
3.57763e-05
3.57709e-05
3.57761e-05
3.57789e-05
3.57714e-05
3.57788e-05
4.10423e-05
4.10005e-05
3.57738e-05
3.57762e-05
3.57736e-05
4.1003e-05
4.10312e-05
4.10121e-05
3.57755e-05
3.57713e-05
3.57763e-05
3.57722e-05
4.10293e-05
4.10108e-05
3.57706e-05
3.57757e-05
3.57714e-05
3.57766e-05
3.57784e-05
3.57719e-05
3.57792e-05
4.10327e-05
4.10142e-05
3.57732e-05
3.57768e-05
3.5774e-05
4.10147e-05
4.10478e-05
4.09972e-05
3.57755e-05
3.57714e-05
3.57756e-05
3.57715e-05
4.10465e-05
4.0996e-05
3.57706e-05
3.57759e-05
3.57707e-05
3.57758e-05
3.57785e-05
3.57712e-05
3.57784e-05
4.10499e-05
4.09995e-05
3.57733e-05
3.57768e-05
3.57731e-05
4.09983e-05
4.10396e-05
4.09951e-05
3.57753e-05
3.57712e-05
3.5775e-05
3.57709e-05
4.10385e-05
4.09938e-05
3.57704e-05
3.57755e-05
3.57701e-05
3.57753e-05
3.57779e-05
3.5771e-05
3.57779e-05
4.1042e-05
4.09975e-05
3.57728e-05
3.57764e-05
3.57727e-05
4.1e-05
4.10282e-05
4.10101e-05
3.57745e-05
3.57705e-05
3.57747e-05
3.57705e-05
4.1027e-05
4.10092e-05
3.57697e-05
3.57749e-05
3.57702e-05
3.57757e-05
3.57774e-05
3.57721e-05
3.57782e-05
4.10305e-05
4.10131e-05
3.57724e-05
3.57766e-05
3.57732e-05
4.10144e-05
4.10416e-05
4.10081e-05
3.57743e-05
3.57699e-05
3.57754e-05
3.57708e-05
4.10406e-05
4.10066e-05
3.57696e-05
3.57751e-05
3.57705e-05
3.57753e-05
3.57778e-05
3.57714e-05
3.57778e-05
4.10447e-05
4.10098e-05
3.57727e-05
3.57763e-05
3.57729e-05
4.10085e-05
4.10468e-05
4.09984e-05
3.57751e-05
3.57706e-05
3.57756e-05
3.57711e-05
4.10454e-05
4.09965e-05
3.57704e-05
3.5775e-05
3.5771e-05
3.57757e-05
3.57775e-05
3.57717e-05
3.57783e-05
4.10487e-05
4.09998e-05
3.57726e-05
3.57768e-05
3.57735e-05
4.09981e-05
4.10412e-05
4.09935e-05
3.57752e-05
3.57707e-05
3.57754e-05
3.57711e-05
4.10395e-05
4.09923e-05
3.57706e-05
3.57753e-05
3.57706e-05
3.57757e-05
3.57779e-05
3.57716e-05
3.57782e-05
4.10427e-05
4.09958e-05
3.57731e-05
3.57766e-05
3.57732e-05
4.09964e-05
4.10328e-05
4.09963e-05
3.57751e-05
3.57709e-05
3.57754e-05
3.57713e-05
4.10311e-05
4.09952e-05
3.57703e-05
3.57755e-05
3.57706e-05
3.5776e-05
3.57781e-05
3.57715e-05
3.57786e-05
4.10347e-05
4.09985e-05
3.5773e-05
3.57765e-05
3.57737e-05
4.10025e-05
4.10299e-05
4.1002e-05
3.57752e-05
3.57711e-05
3.57755e-05
3.57714e-05
4.10289e-05
4.10006e-05
3.57704e-05
3.57758e-05
3.57706e-05
3.57759e-05
3.57783e-05
3.57717e-05
3.57787e-05
4.10322e-05
4.10037e-05
3.57735e-05
3.57766e-05
3.57737e-05
4.10104e-05
4.10333e-05
4.101e-05
3.57752e-05
3.57711e-05
3.57755e-05
3.57716e-05
4.10321e-05
4.10093e-05
3.57703e-05
3.57755e-05
3.57706e-05
3.57759e-05
3.57782e-05
3.57721e-05
3.57786e-05
4.10351e-05
4.10129e-05
3.57733e-05
3.5777e-05
3.57736e-05
4.10141e-05
4.10416e-05
4.10075e-05
3.5775e-05
3.57711e-05
3.57759e-05
3.57722e-05
4.1041e-05
4.10069e-05
3.577e-05
3.57753e-05
3.5771e-05
3.57763e-05
3.5778e-05
3.57726e-05
3.57787e-05
4.10447e-05
4.10094e-05
3.5773e-05
3.57773e-05
3.57735e-05
4.10049e-05
4.10469e-05
4.09912e-05
3.57755e-05
3.57718e-05
3.57754e-05
3.57716e-05
4.10463e-05
4.09903e-05
3.57706e-05
3.5776e-05
3.57704e-05
3.57758e-05
3.57785e-05
3.57718e-05
3.57784e-05
4.1049e-05
4.09938e-05
3.57732e-05
3.57766e-05
3.57732e-05
4.09964e-05
4.10274e-05
4.10092e-05
3.5775e-05
3.57712e-05
3.57757e-05
3.57716e-05
4.10271e-05
4.10072e-05
3.577e-05
3.57755e-05
3.57706e-05
3.57763e-05
3.5778e-05
3.5772e-05
3.57789e-05
4.10304e-05
4.10103e-05
3.57728e-05
3.57772e-05
3.57739e-05
4.10161e-05
4.10398e-05
4.10074e-05
3.57752e-05
3.57709e-05
3.57763e-05
3.57716e-05
4.10378e-05
4.1007e-05
3.57701e-05
3.57756e-05
3.57711e-05
3.57763e-05
3.57783e-05
3.57724e-05
3.57788e-05
4.10408e-05
4.10111e-05
3.57733e-05
3.57776e-05
3.57734e-05
4.10024e-05
4.10469e-05
4.09922e-05
3.57761e-05
3.57715e-05
3.57756e-05
3.57712e-05
4.10462e-05
4.09915e-05
3.5771e-05
3.57761e-05
3.57702e-05
3.57756e-05
3.57788e-05
3.57721e-05
3.57786e-05
4.10501e-05
4.09946e-05
3.57733e-05
3.57771e-05
3.57731e-05
4.09979e-05
4.10319e-05
4.09987e-05
3.57755e-05
3.57714e-05
3.57756e-05
3.57712e-05
4.10318e-05
4.09976e-05
3.57701e-05
3.57759e-05
3.57701e-05
3.57756e-05
3.57782e-05
3.5772e-05
3.57783e-05
4.1035e-05
4.10012e-05
3.57728e-05
3.5777e-05
3.57736e-05
4.10139e-05
4.10309e-05
4.10099e-05
3.57753e-05
3.57709e-05
3.57759e-05
3.57712e-05
4.10298e-05
4.10092e-05
3.57698e-05
3.57752e-05
3.57705e-05
3.5776e-05
3.57779e-05
3.57723e-05
3.57785e-05
4.10331e-05
4.1013e-05
3.57731e-05
3.57769e-05
3.57733e-05
4.10098e-05
4.10421e-05
4.10076e-05
3.57753e-05
3.57706e-05
3.57759e-05
3.57715e-05
4.10415e-05
4.1007e-05
3.57698e-05
3.57753e-05
3.57708e-05
3.57763e-05
3.57784e-05
3.57726e-05
3.57787e-05
4.10458e-05
4.101e-05
3.57731e-05
3.57771e-05
3.57735e-05
4.1003e-05
4.10454e-05
4.1001e-05
3.57757e-05
3.57713e-05
3.57755e-05
3.57713e-05
4.10446e-05
4.10014e-05
3.57704e-05
3.5776e-05
3.57704e-05
3.57759e-05
3.57787e-05
3.57725e-05
3.57786e-05
4.1048e-05
4.10041e-05
3.57735e-05
3.57769e-05
3.57732e-05
4.09995e-05
4.10422e-05
4.09952e-05
3.57751e-05
3.5771e-05
3.57759e-05
3.57718e-05
4.10422e-05
4.09946e-05
3.57702e-05
3.57755e-05
3.5771e-05
3.57764e-05
3.57784e-05
3.57726e-05
3.57789e-05
4.1045e-05
4.09977e-05
3.57729e-05
3.57769e-05
3.57733e-05
4.09976e-05
4.10355e-05
4.09959e-05
3.57757e-05
3.57716e-05
3.57761e-05
3.57722e-05
4.10354e-05
4.0995e-05
3.57704e-05
3.57761e-05
3.57711e-05
3.57764e-05
3.57784e-05
3.57725e-05
3.57786e-05
4.10382e-05
4.09981e-05
3.57728e-05
3.57767e-05
3.57734e-05
4.10007e-05
4.10306e-05
4.09999e-05
3.57758e-05
3.5772e-05
3.57758e-05
3.57719e-05
4.10298e-05
4.09992e-05
3.57708e-05
3.57761e-05
3.57709e-05
3.57762e-05
3.57781e-05
3.57723e-05
3.57784e-05
4.10326e-05
4.1003e-05
3.57729e-05
3.57767e-05
3.57732e-05
4.10082e-05
4.10321e-05
4.10034e-05
3.57754e-05
3.57715e-05
3.57756e-05
3.57714e-05
4.10314e-05
4.10029e-05
3.57706e-05
3.57758e-05
3.57707e-05
3.5776e-05
3.57779e-05
3.57722e-05
3.57782e-05
4.1035e-05
4.10069e-05
3.5773e-05
3.57767e-05
3.57734e-05
4.10128e-05
4.10345e-05
4.10098e-05
3.57753e-05
3.57711e-05
3.5776e-05
3.57715e-05
4.10339e-05
4.10081e-05
3.57704e-05
3.57757e-05
3.57708e-05
3.57761e-05
3.57776e-05
3.57724e-05
3.57782e-05
4.10377e-05
4.10116e-05
3.57729e-05
3.5777e-05
3.57731e-05
4.10116e-05
4.10416e-05
4.10088e-05
3.57752e-05
3.57708e-05
3.57759e-05
3.57714e-05
4.10395e-05
4.10084e-05
3.57701e-05
3.57755e-05
3.57709e-05
3.57763e-05
3.57776e-05
3.57724e-05
3.57784e-05
4.10432e-05
4.10119e-05
3.57726e-05
3.5777e-05
3.57734e-05
4.10097e-05
4.10462e-05
4.1004e-05
3.57754e-05
3.57708e-05
3.57759e-05
3.57714e-05
4.10448e-05
4.10049e-05
3.57703e-05
3.57756e-05
3.57708e-05
3.57759e-05
3.5778e-05
3.57724e-05
3.57784e-05
4.10489e-05
4.10035e-05
3.57729e-05
3.57767e-05
3.57734e-05
4.10068e-05
4.1044e-05
4.10016e-05
3.57756e-05
3.5771e-05
3.57759e-05
3.57712e-05
4.1044e-05
4.10017e-05
3.57705e-05
3.57757e-05
3.57708e-05
3.57754e-05
3.57782e-05
3.57723e-05
3.57782e-05
4.10448e-05
4.09979e-05
3.57731e-05
3.57764e-05
3.57733e-05
4.10006e-05
4.10433e-05
4.09935e-05
3.57759e-05
3.57711e-05
3.57755e-05
3.57709e-05
4.10427e-05
4.09945e-05
3.57707e-05
3.57753e-05
3.57704e-05
3.57754e-05
3.57781e-05
3.57721e-05
3.57779e-05
4.10389e-05
4.09975e-05
3.57733e-05
3.57764e-05
3.5773e-05
4.09971e-05
4.10318e-05
4.10004e-05
3.57754e-05
3.57708e-05
3.57756e-05
3.57708e-05
4.10359e-05
4.09942e-05
3.57703e-05
3.57753e-05
3.57707e-05
3.57754e-05
3.57778e-05
3.57719e-05
3.57779e-05
4.10383e-05
4.09968e-05
3.57729e-05
3.57764e-05
3.5773e-05
4.10004e-05
4.10324e-05
4.10103e-05
3.57754e-05
3.57707e-05
3.57761e-05
3.5771e-05
4.10287e-05
4.10017e-05
3.57704e-05
3.57753e-05
3.57712e-05
3.5776e-05
3.57778e-05
3.5772e-05
3.57784e-05
4.10313e-05
4.10081e-05
3.57727e-05
3.57768e-05
3.57732e-05
4.1006e-05
4.10429e-05
4.10083e-05
3.57755e-05
3.57706e-05
3.5776e-05
3.57712e-05
4.1033e-05
4.10076e-05
3.57705e-05
3.57754e-05
3.57708e-05
3.57761e-05
3.57779e-05
3.57721e-05
3.57784e-05
4.1039e-05
4.10124e-05
3.57727e-05
3.57767e-05
3.57731e-05
4.10086e-05
4.10459e-05
4.10038e-05
3.57756e-05
3.57706e-05
3.57756e-05
3.57711e-05
4.10392e-05
4.10083e-05
3.57704e-05
3.57757e-05
3.57705e-05
3.57759e-05
3.57779e-05
3.5772e-05
3.57781e-05
4.10479e-05
4.10079e-05
3.57727e-05
3.57765e-05
3.57729e-05
4.10069e-05
4.10436e-05
4.10038e-05
3.57754e-05
3.57707e-05
3.57757e-05
3.57714e-05
4.10412e-05
4.10095e-05
3.57703e-05
3.57756e-05
3.57706e-05
3.57759e-05
3.57778e-05
3.57723e-05
3.57783e-05
4.10469e-05
4.10048e-05
3.57728e-05
3.57764e-05
3.57732e-05
4.10058e-05
4.10441e-05
4.09989e-05
3.57755e-05
3.57711e-05
3.57756e-05
3.57713e-05
4.10453e-05
4.10022e-05
3.57704e-05
3.57758e-05
3.57705e-05
3.57756e-05
3.57783e-05
3.57723e-05
3.57786e-05
4.10453e-05
4.10011e-05
3.57732e-05
3.57763e-05
3.57735e-05
4.10111e-05
4.10407e-05
4.09947e-05
3.57756e-05
3.57713e-05
3.57753e-05
3.57711e-05
4.10426e-05
4.09933e-05
3.57705e-05
3.57756e-05
3.57704e-05
3.57756e-05
3.57782e-05
3.5772e-05
3.57789e-05
4.10427e-05
4.09975e-05
3.5773e-05
3.57763e-05
3.57737e-05
4.10141e-05
4.10312e-05
4.1001e-05
3.57753e-05
3.57713e-05
3.57754e-05
3.57716e-05
4.10299e-05
4.10032e-05
3.57705e-05
3.57757e-05
3.57708e-05
3.57757e-05
3.57786e-05
3.57723e-05
3.57784e-05
4.10363e-05
4.09998e-05
3.57735e-05
3.57767e-05
3.57733e-05
4.10017e-05
4.10323e-05
4.10103e-05
3.57754e-05
3.57716e-05
3.57764e-05
3.57721e-05
4.10338e-05
4.10114e-05
3.57708e-05
3.57757e-05
3.57713e-05
3.57762e-05
3.57786e-05
3.57734e-05
3.57786e-05
4.10332e-05
4.10071e-05
3.57735e-05
3.57775e-05
3.57735e-05
4.09991e-05
4.10405e-05
4.10132e-05
3.57763e-05
3.57721e-05
3.57774e-05
3.57731e-05
4.10445e-05
4.1009e-05
3.57713e-05
3.57762e-05
3.57725e-05
3.57778e-05
3.57791e-05
3.57749e-05
3.578e-05
4.1037e-05
4.10159e-05
3.57737e-05
3.57786e-05
3.57753e-05
4.10054e-05
4.10477e-05
4.10012e-05
3.57779e-05
3.57736e-05
3.57666e-05
3.57622e-05
4.10457e-05
4.09992e-05
3.57729e-05
3.57779e-05
3.57617e-05
3.57668e-05
3.57805e-05
3.57639e-05
3.57692e-05
4.10467e-05
4.10079e-05
3.57754e-05
3.57677e-05
3.5764e-05
4.10039e-05
4.10323e-05
4.05262e-05
3.57723e-05
3.57679e-05
3.41972e-05
3.41934e-05
4.10296e-05
4.05263e-05
3.57673e-05
3.57724e-05
3.41955e-05
3.41968e-05
3.57747e-05
3.41982e-05
3.4199e-05
4.10377e-05
4.05285e-05
3.57694e-05
3.4201e-05
3.41971e-05
4.05286e-05
4.0128e-05
3.34802e-05
3.34766e-05
4.01279e-05
3.34786e-05
3.34798e-05
2.19418e-05
2.19447e-05
2.19449e-05
3.34823e-05
4.01302e-05
3.34809e-05
3.73769e-05
3.73764e-05
3.73767e-05
3.73767e-05
3.73694e-05
3.73755e-05
3.73043e-05
3.73764e-05
3.73694e-05
3.73755e-05
3.73764e-05
3.73043e-05
3.73714e-05
3.72959e-05
3.72959e-05
3.58864e-05
4.08615e-05
3.66006e-05
4.51355e-05
5.51055e-05
6.48938e-05
3.58871e-05
4.08611e-05
3.66005e-05
4.51382e-05
3.60232e-05
3.60232e-05
3.60232e-05
3.44005e-05
3.44005e-05
3.44005e-05
3.44005e-05
3.52763e-05
3.56369e-05
3.60241e-05
3.53762e-05
3.60477e-05
3.42377e-05
3.53827e-05
5.51074e-05
6.48955e-05
3.52764e-05
3.60241e-05
3.56365e-05
3.53762e-05
3.60476e-05
3.53827e-05
3.42382e-05
3.65913e-05
3.65921e-05
3.52783e-05
3.40716e-05
3.40707e-05
3.39708e-05
5.13445e-05
3.46832e-05
5.46148e-05
7.65468e-05
8.08644e-05
3.39718e-05
5.1345e-05
3.46825e-05
5.46181e-05
3.39295e-05
3.39295e-05
3.39295e-05
3.2585e-05