/*--------------------------------*- C++ -*----------------------------------*\
| =========                 |                                                 |
| \\      /  F ield         | OpenFOAM: The Open Source CFD Toolbox           |
|  \\    /   O peration     | Version:                                        |
|   \\  /    A nd           | Website:  www.openfoam.com                      |
|    \\/     M anipulation  |                                                 |
\*---------------------------------------------------------------------------*/
FoamFile
{
    version     2.0;
    format      ascii;
    class       volScalarField;
    location    "200";
    object      nut;
}
// * * * * * * * * * * * * * * * * * * * * * * * * * * * * * * * * * * * * * //

dimensions      [0 2 -1 0 0 0 0];


internalField   nonuniform List<scalar> 
172512
(
0.000233969
0.000233548
0.000233548
0.000233451
0.000232529
0.00022758
0.00022758
0.000223833
0.000230487
0.000220158
0.000220157
0.000209027
0.000227758
0.000211542
0.00021154
0.000193702
0.000224387
0.000202552
0.000202549
0.000179637
0.000220505
0.000193693
0.000193689
0.000167281
0.000216258
0.000185208
0.000185204
0.000156542
0.000211776
0.000177176
0.000177171
0.000147172
0.000207165
0.000169637
0.000169632
0.000138926
0.000202506
0.000162564
0.000162559
0.000131599
0.000197852
0.000155905
0.0001559
0.000124945
0.00019324
0.000149604
0.000149599
0.000118811
0.000188648
0.000143624
0.00014362
0.000113168
0.000184117
0.000137912
0.000137907
0.000107937
0.000179673
0.000132422
0.000132418
0.000103063
0.000175306
0.000127147
0.000127143
9.84445e-05
0.000171004
0.000122106
0.000122102
9.42613e-05
0.000166753
0.000117325
0.000117321
9.06713e-05
0.000162554
0.000112841
0.000112838
8.7744e-05
0.000158382
0.00010871
0.000108707
8.53976e-05
0.00015423
0.000104981
0.000104978
8.36817e-05
0.000150109
0.00010167
0.000101666
8.25947e-05
0.000146029
9.88541e-05
9.88514e-05
8.21117e-05
0.000142011
9.65459e-05
9.65438e-05
8.2163e-05
0.000138082
9.4756e-05
9.47546e-05
8.27008e-05
0.000134258
9.34837e-05
9.3483e-05
8.36747e-05
0.000130594
9.27161e-05
9.27161e-05
8.50282e-05
0.000127117
9.24329e-05
9.24335e-05
8.67026e-05
0.000123863
9.26066e-05
9.2608e-05
8.86415e-05
0.000120863
9.32056e-05
9.32077e-05
9.0793e-05
0.000118149
9.41951e-05
9.41978e-05
9.31113e-05
0.000115753
9.55387e-05
9.55421e-05
9.55577e-05
0.000113694
9.71999e-05
9.7204e-05
9.81001e-05
0.000111986
9.91424e-05
9.91471e-05
0.000100713
0.000110641
0.000101331
0.000101336
0.000103374
0.000109663
0.000103733
0.000103739
0.000106073
0.000109055
0.000106319
0.000106326
0.000108791
0.00010881
0.000109057
0.000109064
0.000111517
0.000108926
0.000111922
0.00011193
0.000114243
0.000109396
0.00011489
0.000114899
0.000116961
0.000110197
0.00011794
0.000117949
0.000119663
0.000111358
0.000121068
0.000121078
0.000122347
0.000112798
0.000124225
0.000124235
0.00012498
0.000114658
0.000127444
0.000127453
0.000127582
0.000116757
0.000130581
0.00013059
0.000130063
0.000119202
0.000133627
0.000133635
0.000132312
0.000121682
0.000136085
0.000136097
0.00013404
0.000123387
0.000137555
0.000137568
0.000134993
0.000124056
0.000138204
0.000138218
0.000135387
0.000124081
0.000138456
0.000138469
0.000135603
0.000123939
0.000138509
0.000138522
0.000135659
0.000123913
0.000138583
0.000138598
0.000135635
0.000124009
0.000138656
0.000138667
0.000135748
0.000124091
0.000138688
0.000138702
0.000135715
0.000124137
0.000138685
0.000138699
0.000135705
0.00012414
0.000138689
0.000138705
0.000135811
0.000124141
0.000138687
0.000138707
0.000135685
0.000124141
0.000138688
0.000138703
0.000135677
0.000124141
0.000138692
0.000138705
0.00013581
0.000124144
0.000138687
0.000138704
0.000135785
0.000124146
0.000138689
0.000138705
0.000135702
0.000124147
0.000138689
0.000138705
0.000135638
0.000124147
0.000138688
0.000138704
0.000135682
0.000124147
0.000138687
0.000138703
0.000135763
0.000124147
0.000138688
0.000138704
0.000135821
0.000124147
0.000138692
0.000138707
0.000135738
0.000124147
0.000138688
0.000138704
0.000135642
0.000124148
0.000138688
0.000138707
0.000135817
0.000124148
0.000138692
0.000138711
0.000135726
0.000124149
0.000138691
0.000138708
0.000135656
0.000124149
0.000138688
0.000138706
0.000135789
0.000124149
0.000138691
0.000138706
0.000135781
0.00012415
0.000138695
0.000138708
0.000135726
0.000124149
0.000138695
0.000138708
0.000135687
0.00012415
0.000138693
0.000138707
0.000135656
0.00012415
0.000138692
0.000138705
0.000135681
0.00012415
0.00013869
0.000138705
0.000135748
0.000124149
0.000138689
0.000138704
0.000135798
0.000124149
0.000138689
0.000138704
0.000135804
0.000124148
0.000138691
0.000138706
0.00013579
0.000124147
0.000138692
0.000138706
0.000135755
0.000124146
0.000138692
0.000138705
0.000135701
0.000124146
0.000138691
0.000138705
0.000135652
0.000124146
0.000138688
0.000138703
0.000135673
0.000124145
0.000138688
0.000138704
0.000135715
0.000124144
0.000138688
0.000138705
0.000135727
0.000124143
0.000138688
0.000138705
0.000135712
0.000124144
0.000138691
0.000138704
0.000135716
0.000124144
0.000138691
0.000138704
0.000135774
0.000124145
0.00013869
0.000138705
0.000135812
0.000124146
0.000138691
0.000138707
0.000135717
0.000124148
0.000138698
0.00013871
0.000135656
0.00012415
0.00013871
0.000138719
0.00013568
0.0001241
0.000138928
0.000138941
0.000135699
0.00012714
0.000135521
0.000135531
0.000136242
0.000234256
0.000234459
0.00023446
0.000234257
0.00023446
0.00023446
0.000234259
0.000234259
0.000234259
0.000234259
0.000234459
0.000234459
0.000234256
0.000234459
0.00023446
0.000234256
0.000233451
0.000226179
0.000233548
0.000233547
0.000229123
0.000229118
0.000233451
0.00022618
0.000233547
0.000233547
0.00022912
0.000229117
0.000233548
0.000229126
0.000229123
0.000233451
0.000226178
0.000233547
0.000229126
0.000229121
0.000226177
0.000223834
0.000212154
0.000227577
0.000227572
0.000222157
0.000222151
0.000223833
0.000212155
0.000227575
0.000227571
0.000222158
0.00022215
0.000227576
0.000222163
0.000222156
0.000223834
0.000212152
0.000227575
0.000222162
0.000222156
0.000212148
0.000209031
0.000196985
0.000220151
0.000220146
0.000213749
0.000213742
0.000209029
0.000196983
0.000220153
0.000220143
0.000213753
0.00021374
0.000220149
0.000213758
0.000213745
0.000209029
0.00019698
0.000220151
0.000213757
0.00021375
0.000196975
0.000193711
0.000182814
0.000211531
0.000211525
0.000204788
0.000204781
0.000193709
0.000182811
0.000211537
0.000211522
0.000204797
0.000204778
0.000211527
0.000204801
0.000204784
0.000193706
0.000182807
0.000211533
0.000204799
0.000204792
0.0001828
0.000179648
0.000170219
0.000202538
0.000202531
0.000195862
0.000195855
0.000179645
0.000170216
0.000202548
0.000202528
0.000195874
0.000195851
0.000202533
0.000195877
0.000195856
0.000179642
0.000170211
0.000202542
0.000195875
0.000195868
0.000170204
0.000167295
0.000159208
0.000193675
0.000193669
0.00018727
0.000187263
0.000167292
0.000159204
0.000193689
0.000193665
0.000187286
0.000187258
0.000193669
0.000187288
0.000187263
0.000167287
0.000159199
0.000193682
0.000187285
0.000187278
0.000159191
0.000156557
0.000149591
0.000185188
0.000185181
0.000179116
0.000179109
0.000156553
0.000149587
0.000185205
0.000185177
0.000179135
0.000179104
0.000185182
0.000179137
0.000179109
0.000156548
0.000149581
0.000185197
0.000179134
0.000179127
0.000149573
0.000147189
0.000141095
0.000177153
0.000177146
0.000171451
0.000171444
0.000147185
0.000141091
0.000177173
0.000177142
0.000171473
0.000171439
0.000177146
0.000171474
0.000171444
0.000147179
0.000141084
0.000177164
0.000171471
0.000171464
0.000141076
0.000138944
0.000133545
0.000169611
0.000169604
0.000164264
0.000164257
0.000138939
0.000133541
0.000169634
0.0001696
0.000164288
0.000164252
0.000169605
0.00016429
0.000164258
0.000138933
0.000133533
0.000169625
0.000164286
0.000164279
0.000133525
0.000131618
0.00012669
0.000162536
0.000162529
0.000157505
0.000157498
0.000131613
0.000126686
0.000162561
0.000162525
0.000157532
0.000157493
0.00016253
0.000157533
0.000157499
0.000131606
0.000126678
0.000162552
0.000157529
0.000157522
0.00012667
0.000124964
0.000120371
0.000155875
0.000155868
0.000151118
0.000151111
0.000124959
0.000120368
0.000155903
0.000155864
0.000151147
0.000151106
0.000155869
0.000151148
0.000151113
0.000124952
0.00012036
0.000155893
0.000151144
0.000151137
0.000120351
0.000118828
0.000114443
0.000149573
0.000149565
0.000145058
0.000145051
0.000118825
0.000114437
0.000149602
0.000149562
0.000145088
0.000145046
0.000149568
0.000145089
0.000145053
0.000118818
0.00011443
0.000149592
0.000145086
0.000145079
0.000114421
0.000113185
0.000108855
0.000143592
0.000143584
0.000139282
0.000139274
0.000113182
0.000108849
0.000143622
0.000143581
0.000139313
0.00013927
0.000143587
0.000139314
0.000139278
0.000113175
0.000108842
0.000143612
0.000139311
0.000139303
0.000108834
0.000107954
0.000103722
0.000137879
0.00013787
0.00013374
0.000133731
0.00010795
0.000103717
0.000137909
0.000137867
0.000133771
0.000133727
0.000137874
0.000133772
0.000133735
0.000107943
0.00010371
0.0001379
0.000133769
0.000133761
0.000103702
0.000103081
9.91477e-05
0.000132389
0.00013238
0.00012841
0.000128399
0.000103076
9.91429e-05
0.00013242
0.000132377
0.000128439
0.000128396
0.000132384
0.000128441
0.000128406
0.000103069
9.91362e-05
0.00013241
0.000128438
0.00012843
9.91293e-05
9.84623e-05
9.50096e-05
0.000127116
0.000127104
0.00012331
0.000123295
9.8457e-05
9.5005e-05
0.000127144
0.000127102
0.000123336
0.000123294
0.000127112
0.000123339
0.000123306
9.84507e-05
9.49988e-05
0.000127135
0.000123336
0.000123326
9.49925e-05
9.42778e-05
9.14561e-05
0.000122077
0.000122063
0.000118443
0.000118428
9.42725e-05
9.14515e-05
0.000122102
0.000122061
0.000118467
0.000118427
0.000122073
0.000118471
0.00011844
9.4267e-05
9.1446e-05
0.000122093
0.000118468
0.000118458
9.14402e-05
9.06861e-05
8.8399e-05
0.000117296
0.000117281
0.000113888
0.000113871
9.06796e-05
8.83942e-05
0.00011732
0.00011728
0.00011391
0.000113871
0.000117293
0.000113915
0.000113886
9.06756e-05
8.83895e-05
0.000117311
0.000113912
0.000113902
8.83844e-05
8.77577e-05
8.59307e-05
0.000112813
0.000112797
0.000109659
0.00010964
8.77524e-05
8.59262e-05
0.000112835
0.000112796
0.000109679
0.000109641
0.000112811
0.000109684
0.000109657
8.77482e-05
8.5922e-05
0.000112827
0.000109682
0.000109671
8.59174e-05
8.54099e-05
8.40905e-05
0.000108683
0.000108666
0.000105815
0.000105798
8.54056e-05
8.40868e-05
0.000108704
0.000108666
0.000105835
0.000105799
0.000108682
0.00010584
0.000105815
8.54014e-05
8.40828e-05
0.000108696
0.000105838
0.000105827
8.40786e-05
8.36922e-05
8.2881e-05
0.000104954
0.000104938
0.00010242
0.000102405
8.36891e-05
8.28778e-05
0.000104974
0.000104938
0.00010244
0.000102406
0.000104954
0.000102446
0.000102422
8.36851e-05
8.28742e-05
0.000104967
0.000102445
0.000102434
8.28704e-05
8.26041e-05
8.22809e-05
0.000101641
0.000101627
9.94812e-05
9.94688e-05
8.26014e-05
8.22782e-05
0.000101662
0.000101628
9.95016e-05
9.94689e-05
0.000101644
9.95076e-05
9.94849e-05
8.25978e-05
8.22749e-05
0.000101655
9.95073e-05
9.94958e-05
8.22715e-05
8.212e-05
8.22252e-05
9.88259e-05
9.88138e-05
9.70452e-05
9.70347e-05
8.21177e-05
8.22229e-05
9.8846e-05
9.88138e-05
9.70652e-05
9.70346e-05
9.88298e-05
9.70714e-05
9.70503e-05
8.21144e-05
8.22199e-05
9.884e-05
9.70716e-05
9.70602e-05
8.22172e-05
8.21702e-05
8.26641e-05
9.65183e-05
9.65079e-05
9.5127e-05
9.5118e-05
8.21683e-05
8.26621e-05
9.65379e-05
9.65078e-05
9.51464e-05
9.51179e-05
9.65235e-05
9.51526e-05
9.51333e-05
8.21652e-05
8.26596e-05
9.65326e-05
9.51532e-05
9.51421e-05
8.26574e-05
8.27068e-05
8.35496e-05
9.47294e-05
9.47204e-05
9.37275e-05
9.37197e-05
8.27051e-05
8.35478e-05
9.47482e-05
9.47203e-05
9.37459e-05
9.37198e-05
9.47357e-05
9.37521e-05
9.37348e-05
8.27025e-05
8.35458e-05
9.47437e-05
9.37532e-05
9.37424e-05
8.35442e-05
8.36795e-05
8.48258e-05
9.34583e-05
9.34505e-05
9.28367e-05
9.283e-05
8.3678e-05
8.48243e-05
9.34761e-05
9.34506e-05
9.2854e-05
9.28303e-05
9.34655e-05
9.28602e-05
9.28449e-05
8.3676e-05
8.48228e-05
9.34724e-05
9.28618e-05
9.28512e-05
8.48217e-05
8.50319e-05
8.64346e-05
9.26922e-05
9.26853e-05
9.24362e-05
9.24304e-05
8.50305e-05
8.64331e-05
9.27088e-05
9.26857e-05
9.24524e-05
9.2431e-05
9.27002e-05
9.24584e-05
9.24452e-05
8.50291e-05
8.64323e-05
9.27058e-05
9.24606e-05
9.24503e-05
8.64315e-05
8.67053e-05
8.83189e-05
9.24103e-05
9.24043e-05
9.25e-05
9.24949e-05
8.67041e-05
8.83176e-05
9.24257e-05
9.2405e-05
9.25149e-05
9.24959e-05
9.24191e-05
9.2521e-05
9.25098e-05
8.67032e-05
8.83173e-05
9.24234e-05
9.25237e-05
9.25135e-05
8.83168e-05
8.86433e-05
9.04261e-05
9.25856e-05
9.25802e-05
9.29975e-05
9.29929e-05
8.86421e-05
9.04248e-05
9.25997e-05
9.25813e-05
9.3011e-05
9.29943e-05
9.25951e-05
9.30171e-05
9.3008e-05
8.86418e-05
9.04252e-05
9.2598e-05
9.30204e-05
9.30103e-05
9.04249e-05
9.07941e-05
9.27094e-05
9.31861e-05
9.31811e-05
9.38941e-05
9.38899e-05
9.07929e-05
9.27082e-05
9.31988e-05
9.31827e-05
9.39063e-05
9.38917e-05
9.31962e-05
9.39124e-05
9.39052e-05
9.07932e-05
9.27091e-05
9.31978e-05
9.39163e-05
9.39061e-05
9.27089e-05
9.31118e-05
9.51288e-05
9.41769e-05
9.41723e-05
9.5154e-05
9.515e-05
9.31106e-05
9.51275e-05
9.41882e-05
9.41743e-05
9.51647e-05
9.51522e-05
9.41877e-05
9.51709e-05
9.51656e-05
9.31114e-05
9.51289e-05
9.41878e-05
9.51754e-05
9.51651e-05
9.51288e-05
9.55577e-05
9.7651e-05
9.55218e-05
9.55175e-05
9.67406e-05
9.67367e-05
9.55565e-05
9.76497e-05
9.55318e-05
9.55199e-05
9.675e-05
9.67393e-05
9.55333e-05
9.67563e-05
9.67528e-05
9.55577e-05
9.76515e-05
9.55319e-05
9.67614e-05
9.67508e-05
9.76515e-05
9.80997e-05
0.000100249
9.71842e-05
9.71801e-05
9.86173e-05
9.86133e-05
9.80985e-05
0.000100248
9.7193e-05
9.71829e-05
9.86253e-05
9.86164e-05
9.71963e-05
9.86318e-05
9.863e-05
9.81001e-05
0.00010025
9.71935e-05
9.86375e-05
9.86265e-05
0.00010025
0.000100712
0.000102901
9.91278e-05
9.91237e-05
0.000100749
0.000100745
0.000100711
0.0001029
9.91353e-05
9.91269e-05
0.000100755
0.000100748
9.91405e-05
0.000100762
0.000100762
0.000100713
0.000102902
9.91363e-05
0.000100768
0.000100757
0.000102902
0.000103373
0.000105591
0.000101317
0.000101313
0.000103101
0.000103097
0.000103372
0.00010559
0.000101324
0.000101317
0.000103107
0.000103101
0.00010133
0.000103113
0.000103115
0.000103374
0.000105592
0.000101325
0.00010312
0.000103108
0.000105592
0.000106073
0.000108304
0.00010372
0.000103716
0.000105645
0.00010564
0.000106071
0.000108302
0.000103726
0.00010372
0.000105649
0.000105644
0.000103734
0.000105656
0.000105659
0.000106074
0.000108305
0.000103727
0.000105664
0.000105651
0.000108305
0.000108791
0.000111027
0.000106307
0.000106303
0.000108348
0.000108343
0.000108789
0.000111025
0.000106312
0.000106307
0.000108352
0.000108348
0.000106321
0.000108359
0.000108362
0.000108792
0.000111029
0.000106314
0.000108367
0.000108354
0.000111028
0.000111516
0.000113753
0.000109046
0.00010904
0.000111184
0.000111178
0.000111514
0.000113751
0.000109049
0.000109045
0.000111187
0.000111183
0.000109059
0.000111194
0.000111198
0.000111517
0.000113755
0.000109051
0.000111203
0.000111189
0.000113755
0.000114243
0.000116474
0.000111911
0.000111906
0.00011413
0.000114124
0.000114241
0.000116472
0.000111914
0.000111911
0.000114133
0.00011413
0.000111925
0.00011414
0.000114144
0.000114245
0.000116476
0.000111916
0.000114149
0.000114135
0.000116475
0.000116961
0.000119179
0.00011488
0.000114874
0.000117158
0.000117151
0.000116959
0.000119177
0.000114882
0.000114879
0.00011716
0.000117157
0.000114893
0.000117167
0.000117171
0.000116963
0.000119181
0.000114884
0.000117177
0.000117162
0.00011918
0.000119663
0.00012187
0.000117931
0.000117924
0.000120275
0.000120267
0.000119661
0.000121867
0.000117932
0.000117929
0.000120276
0.000120273
0.000117944
0.000120283
0.000120288
0.000119665
0.000121872
0.000117935
0.000120293
0.000120279
0.000121871
0.000122347
0.000124512
0.000121059
0.000121051
0.00012342
0.00012341
0.000122344
0.000124509
0.00012106
0.000121057
0.00012342
0.000123417
0.000121072
0.000123426
0.000123431
0.000122349
0.000124514
0.000121062
0.000123437
0.000123422
0.000124512
0.000124981
0.000127124
0.000124217
0.000124207
0.000126635
0.000126624
0.000124978
0.00012712
0.000124217
0.000124214
0.000126634
0.000126631
0.000124228
0.000126641
0.000126645
0.000124983
0.000127125
0.000124219
0.000126652
0.000126637
0.000127123
0.000127583
0.000129626
0.000127436
0.000127424
0.000129792
0.00012978
0.00012758
0.000129623
0.000127435
0.000127431
0.000129791
0.000129788
0.000127446
0.000129798
0.000129801
0.000127585
0.000129628
0.000127437
0.000129808
0.000129793
0.000129626
0.000130064
0.000131929
0.000130573
0.00013056
0.000132886
0.000132871
0.00013006
0.000131926
0.000130572
0.000130568
0.000132884
0.000132879
0.000130582
0.000132892
0.000132894
0.000130065
0.00013193
0.000130574
0.0001329
0.000132885
0.000131929
0.000132313
0.000133788
0.000133618
0.000133603
0.00013555
0.000135534
0.000132309
0.000133783
0.000133616
0.000133611
0.000135548
0.000135544
0.000133626
0.000135554
0.000135557
0.000132314
0.000133791
0.000133617
0.000135566
0.00013555
0.000133787
0.00013404
0.000134877
0.000136078
0.000136062
0.000137272
0.000137256
0.000134035
0.000134872
0.000136077
0.000136073
0.000137271
0.000137268
0.000136086
0.000137277
0.00013728
0.000134044
0.000134881
0.000136078
0.000137291
0.000137273
0.000134877
0.000134993
0.000135355
0.000137547
0.00013753
0.000138085
0.000138068
0.000134988
0.000135351
0.000137545
0.000137542
0.000138084
0.00013808
0.000137554
0.000138089
0.000138092
0.000134996
0.000135358
0.000137547
0.000138103
0.000138086
0.000135355
0.000135384
0.000135602
0.000138198
0.000138181
0.000138412
0.000138395
0.00013538
0.000135597
0.000138197
0.000138192
0.000138411
0.000138406
0.000138205
0.000138416
0.000138419
0.000135387
0.000135605
0.000138199
0.00013843
0.000138413
0.0001356
0.000135603
0.000135682
0.000138448
0.00013843
0.000138492
0.000138474
0.000135599
0.000135678
0.000138447
0.000138442
0.000138491
0.000138486
0.000138454
0.000138499
0.000138499
0.000135607
0.000135685
0.000138448
0.000138511
0.000138493
0.00013568
0.000135658
0.000135634
0.000138501
0.000138483
0.00013856
0.00013854
0.000135655
0.000135627
0.000138499
0.000138495
0.000138558
0.000138553
0.000138508
0.000138559
0.000138565
0.000135662
0.000135636
0.000138502
0.000138575
0.00013856
0.000135632
0.000135634
0.000135772
0.000138581
0.000138561
0.000138628
0.00013861
0.000135628
0.000135768
0.00013858
0.000138574
0.000138627
0.000138622
0.000138587
0.000138638
0.000138634
0.000135636
0.000135777
0.000138581
0.00013865
0.000138628
0.00013577
0.000135747
0.000135712
0.000138642
0.000138625
0.000138684
0.000138663
0.000135743
0.000135707
0.000138641
0.000138637
0.000138682
0.000138676
0.000138648
0.000138686
0.00013869
0.000135751
0.000135715
0.000138642
0.000138699
0.000138684
0.000135709
0.000135719
0.000135747
0.000138687
0.000138664
0.000138688
0.000138665
0.000135714
0.000135736
0.000138684
0.000138678
0.000138685
0.000138679
0.000138693
0.000138685
0.000138693
0.000135721
0.000135747
0.000138686
0.0001387
0.000138687
0.000135752
0.000135697
0.000135813
0.000138687
0.000138664
0.000138692
0.00013867
0.000135686
0.000135806
0.000138684
0.000138678
0.000138689
0.000138684
0.000138692
0.00013869
0.000138697
0.000135696
0.000135814
0.000138686
0.000138705
0.00013869
0.000135804
0.000135816
0.00013567
0.000138689
0.000138667
0.000138688
0.000138666
0.000135808
0.000135663
0.000138686
0.000138681
0.000138686
0.00013868
0.000138695
0.000138687
0.000138693
0.000135818
0.000135672
0.000138688
0.000138704
0.000138686
0.000135661
0.000135697
0.000135719
0.000138689
0.000138667
0.000138687
0.000138665
0.000135691
0.000135709
0.000138686
0.00013868
0.000138684
0.000138677
0.000138692
0.000138684
0.000138691
0.0001357
0.000135722
0.000138686
0.000138703
0.000138684
0.000135736
0.000135659
0.000135835
0.000138686
0.000138664
0.000138685
0.000138664
0.00013565
0.000135829
0.000138683
0.000138676
0.000138686
0.00013868
0.000138689
0.000138693
0.000138694
0.000135661
0.00013584
0.000138683
0.000138705
0.000138687
0.000135834
0.000135792
0.000135777
0.000138684
0.000138661
0.000138689
0.000138666
0.000135786
0.000135768
0.000138683
0.000138679
0.000138686
0.00013868
0.000138693
0.000138688
0.000138693
0.0001358
0.000135774
0.000138686
0.000138704
0.000138687
0.000135752
0.000135802
0.000135686
0.000138688
0.000138666
0.000138689
0.000138666
0.000135793
0.000135675
0.000138686
0.000138679
0.000138688
0.000138681
0.000138692
0.000138689
0.000138695
0.0001358
0.000135683
0.000138687
0.000138705
0.000138691
0.000135664
0.00013573
0.000135656
0.000138688
0.000138665
0.000138687
0.000138664
0.000135718
0.00013565
0.000138687
0.00013868
0.000138686
0.000138679
0.000138694
0.000138687
0.000138692
0.000135726
0.00013566
0.00013869
0.000138703
0.000138687
0.000135668
0.000135653
0.000135714
0.000138687
0.000138664
0.000138689
0.000138665
0.000135643
0.000135704
0.000138686
0.000138679
0.000138687
0.000138682
0.000138692
0.000138686
0.000138695
0.000135653
0.000135714
0.000138686
0.000138702
0.000138689
0.000135747
0.000135655
0.000135784
0.000138689
0.000138665
0.000138689
0.000138666
0.000135645
0.000135774
0.000138686
0.000138683
0.000138686
0.000138681
0.000138694
0.000138687
0.000138695
0.000135655
0.000135783
0.000138689
0.000138703
0.000138689
0.000135819
0.000135717
0.000135834
0.000138687
0.000138665
0.000138689
0.000138668
0.000135707
0.000135828
0.000138685
0.000138679
0.000138686
0.000138681
0.000138693
0.00013869
0.000138694
0.000135715
0.000135838
0.000138688
0.000138706
0.000138689
0.000135819
0.0001358
0.000135748
0.000138686
0.000138666
0.00013869
0.000138673
0.000135795
0.000135744
0.000138683
0.000138678
0.000138687
0.000138682
0.000138692
0.000138692
0.000138695
0.000135807
0.000135745
0.000138686
0.000138707
0.000138689
0.0001357
0.000135776
0.000135661
0.000138689
0.000138673
0.000138688
0.000138667
0.000135773
0.00013565
0.000138687
0.000138682
0.000138685
0.00013868
0.000138695
0.000138688
0.000138694
0.000135775
0.000135662
0.00013869
0.000138702
0.000138687
0.000135693
0.000135628
0.000135828
0.000138687
0.000138665
0.00013869
0.000138667
0.000135621
0.000135815
0.000138685
0.000138678
0.000138688
0.000138683
0.000138692
0.00013869
0.000138696
0.000135631
0.000135825
0.000138685
0.000138708
0.00013869
0.00013584
0.000135774
0.000135759
0.000138688
0.000138664
0.000138692
0.000138668
0.000135759
0.000135758
0.000138686
0.00013868
0.000138688
0.000138682
0.000138695
0.000138692
0.000138697
0.000135768
0.000135774
0.000138688
0.00013871
0.000138686
0.000135692
0.000135784
0.000135657
0.000138694
0.000138668
0.000138689
0.000138664
0.000135782
0.000135648
0.00013869
0.000138683
0.000138684
0.000138678
0.0001387
0.000138689
0.000138696
0.000135798
0.000135654
0.000138688
0.000138706
0.000138686
0.000135708
0.000135656
0.000135743
0.000138691
0.000138667
0.00013869
0.000138666
0.000135651
0.000135739
0.000138685
0.000138682
0.000138684
0.000138679
0.000138694
0.000138689
0.000138693
0.000135659
0.00013575
0.000138686
0.000138707
0.000138691
0.000135827
0.000135688
0.000135802
0.000138688
0.000138666
0.00013869
0.000138668
0.000135682
0.000135804
0.000138683
0.000138678
0.000138685
0.000138681
0.000138692
0.000138691
0.000138694
0.000135691
0.000135817
0.000138689
0.000138706
0.000138687
0.00013576
0.000135771
0.00013575
0.000138687
0.000138665
0.000138691
0.000138667
0.000135774
0.000135749
0.000138683
0.000138679
0.000138689
0.000138685
0.000138694
0.000138694
0.000138694
0.000135789
0.000135757
0.000138686
0.000138707
0.000138688
0.000135695
0.000135762
0.000135696
0.000138693
0.000138667
0.000138689
0.000138666
0.000135763
0.000135696
0.000138688
0.000138685
0.000138684
0.00013868
0.000138696
0.000138691
0.000138696
0.000135771
0.000135702
0.000138689
0.000138705
0.000138687
0.000135675
0.000135717
0.000135676
0.000138687
0.000138667
0.000138693
0.000138671
0.000135718
0.000135669
0.000138684
0.000138678
0.000138688
0.000138684
0.000138696
0.000138693
0.000138699
0.000135722
0.00013568
0.000138688
0.000138706
0.000138688
0.000135687
0.000135671
0.000135712
0.000138693
0.000138671
0.000138693
0.000138673
0.000135668
0.000135707
0.000138686
0.000138683
0.000138689
0.000138684
0.000138697
0.000138691
0.000138697
0.000135675
0.000135719
0.000138686
0.000138706
0.000138689
0.000135743
0.000135659
0.000135756
0.000138691
0.000138672
0.00013869
0.00013867
0.000135655
0.000135753
0.000138689
0.000138684
0.000138688
0.000138684
0.000138695
0.00013869
0.000138695
0.000135664
0.000135768
0.000138688
0.000138704
0.000138689
0.000135805
0.000135689
0.000135796
0.000138688
0.000138668
0.000138689
0.000138667
0.000135687
0.000135791
0.000138687
0.000138682
0.000138686
0.000138682
0.000138693
0.00013869
0.000138693
0.000135702
0.000135805
0.000138688
0.000138704
0.000138689
0.000135821
0.00013573
0.000135827
0.000138688
0.000138666
0.000138691
0.000138668
0.000135725
0.000135819
0.000138685
0.000138681
0.000138687
0.000138682
0.00013869
0.000138691
0.000138692
0.00013574
0.00013583
0.000138687
0.000138707
0.000138686
0.000135795
0.000135795
0.000135779
0.000138687
0.000138665
0.00013869
0.000138666
0.000135781
0.000135787
0.000138683
0.000138679
0.000138687
0.000138683
0.00013869
0.000138691
0.000138694
0.000135795
0.000135785
0.000138684
0.000138706
0.000138688
0.000135763
0.000135797
0.000135735
0.000138688
0.000138664
0.00013869
0.000138666
0.000135797
0.000135743
0.000138685
0.00013868
0.000138687
0.00013868
0.000138692
0.000138691
0.000138693
0.000135803
0.000135704
0.000138686
0.000138705
0.000138687
0.00013572
0.000135771
0.000135695
0.00013869
0.000138665
0.000138689
0.000138665
0.000135774
0.0001357
0.000138686
0.00013868
0.000138686
0.000138678
0.000138693
0.00013869
0.000138691
0.000135736
0.000135675
0.000138687
0.000138703
0.000138686
0.000135674
0.000135728
0.000135675
0.000138691
0.000138666
0.000138687
0.000138663
0.000135733
0.000135662
0.000138687
0.000138679
0.000138684
0.000138677
0.000138692
0.000138688
0.00013869
0.000135693
0.000135666
0.000138688
0.000138701
0.000138685
0.000135678
0.00013565
0.000135778
0.000138688
0.000138664
0.000138689
0.000138664
0.000135669
0.000135707
0.000138684
0.000138677
0.000138687
0.000138678
0.000138691
0.000138688
0.000138692
0.000135671
0.000135711
0.000138686
0.000138703
0.000138686
0.000135733
0.000135718
0.000135821
0.000138689
0.000138664
0.000138693
0.000138666
0.000135652
0.00013578
0.000138687
0.000138678
0.000138691
0.000138683
0.000138692
0.000138689
0.000138695
0.000135656
0.000135815
0.000138686
0.000138706
0.000138689
0.000135778
0.000135799
0.000135769
0.00013869
0.000138663
0.000138693
0.000138667
0.000135718
0.000135813
0.000138687
0.00013868
0.000138687
0.000138684
0.000138693
0.000138689
0.000138695
0.000135764
0.0001358
0.000138686
0.000138706
0.000138687
0.00013579
0.000135788
0.000135736
0.000138691
0.000138664
0.00013869
0.000138666
0.000135766
0.000135817
0.000138686
0.000138682
0.000138687
0.000138681
0.000138693
0.000138689
0.000138693
0.000135806
0.000135741
0.000138686
0.000138705
0.000138686
0.00013578
0.000135768
0.000135722
0.000138689
0.000138664
0.000138691
0.000138668
0.00013579
0.000135791
0.000138686
0.000138681
0.000138687
0.000138682
0.000138691
0.000138691
0.000138694
0.000135769
0.000135711
0.000138686
0.000138704
0.000138688
0.000135783
0.000135758
0.000135678
0.000138691
0.000138666
0.000138689
0.000138666
0.000135803
0.000135696
0.000138686
0.000138682
0.000138686
0.000138679
0.000138694
0.000138689
0.000138697
0.00013574
0.000135684
0.000138688
0.000138702
0.00013869
0.000135823
0.000135702
0.000135689
0.00013869
0.000138666
0.000138688
0.000138665
0.000135719
0.00013568
0.000138686
0.00013868
0.000138686
0.000138681
0.000138694
0.000138688
0.000138698
0.000135705
0.000135681
0.000138687
0.000138702
0.000138691
0.000135796
0.000135652
0.00013577
0.000138688
0.000138667
0.000138689
0.000138669
0.000135644
0.000135792
0.000138686
0.000138682
0.000138689
0.000138681
0.000138698
0.00013869
0.000138695
0.000135664
0.000135731
0.000138691
0.000138703
0.000138689
0.000135683
0.000135702
0.000135829
0.000138689
0.000138669
0.000138695
0.000138673
0.000135733
0.000135811
0.000138689
0.000138681
0.000138691
0.000138683
0.000138697
0.000138696
0.000138696
0.000135671
0.000135801
0.000138691
0.000138709
0.000138689
0.000135681
0.000135783
0.000135809
0.000138695
0.000138673
0.000138701
0.000138676
0.000135801
0.00013575
0.000138691
0.000138683
0.000138698
0.000138692
0.0001387
0.000138703
0.000138704
0.000135734
0.000135837
0.000138691
0.000138714
0.0001387
0.000135734
0.000135815
0.000135725
0.000138707
0.000138684
0.000138622
0.000138599
0.000135769
0.000135704
0.000138704
0.000138696
0.00013862
0.000138613
0.000138709
0.000138623
0.000138626
0.000135812
0.000135768
0.000138705
0.000138635
0.00013862
0.000135755
0.000135753
0.000136046
0.000138927
0.000138904
0.000136696
0.000136676
0.000135717
0.000136041
0.000138924
0.00013892
0.000136698
0.000136689
0.000138931
0.000136703
0.000136699
0.000135788
0.000136049
0.000138924
0.000136713
0.000136697
0.000136044
0.000136255
0.000135513
0.000135494
0.00013625
0.000135514
0.000135507
0.000127134
0.000127147
0.000127147
0.000135516
0.000136261
0.000135513
0.000234728
0.000234779
0.000234733
0.000234733
0.00023511
0.000234806
0.000234702
0.000234742
0.00023511
0.000234806
0.000234742
0.000234702
0.00023486
0.000233567
0.000233568
0.000104653
3.87587e-05
0.000129428
3.98342e-05
2.16907e-05
2.28368e-05
0.000104616
3.87547e-05
0.00012946
3.98309e-05
0.000233969
0.000233969
0.000233969
0.000232942
0.000232942
0.000232942
0.000232942
0.000206249
9.37608e-05
0.000233996
0.000231746
0.000222768
8.72446e-05
0.000233595
2.169e-05
2.28361e-05
0.000206248
0.000233996
9.37596e-05
0.000231747
0.000222768
0.000233595
8.72484e-05
4.78455e-05
4.78363e-05
0.000231405
4.39757e-05
4.39601e-05
7.25106e-05
4.24332e-05
8.13316e-05
4.37612e-05
2.47747e-05
2.54626e-05
7.24964e-05
4.24283e-05
8.13406e-05
4.37576e-05
0.000232529
0.000232529
0.000232529
0.000231061
0.000231061