/*--------------------------------*- C++ -*----------------------------------*\
| =========                 |                                                 |
| \\      /  F ield         | OpenFOAM: The Open Source CFD Toolbox           |
|  \\    /   O peration     | Version:                                        |
|   \\  /    A nd           | Website:  www.openfoam.com                      |
|    \\/     M anipulation  |                                                 |
\*---------------------------------------------------------------------------*/
FoamFile
{
    version     2.0;
    format      ascii;
    class       volScalarField;
    location    "200";
    object      p;
}
// * * * * * * * * * * * * * * * * * * * * * * * * * * * * * * * * * * * * * //

dimensions      [0 2 -2 0 0 0 0];


internalField   nonuniform List<scalar> 
172512
(
0.00359771
0.00359815
0.00359815
0.00359807
0.00353934
0.00353966
0.00353966
0.00354247
0.00348802
0.00348803
0.00348803
0.00349078
0.00343577
0.00343576
0.00343576
0.00343849
0.0033844
0.0033844
0.0033844
0.0033871
0.00333443
0.00333444
0.00333444
0.0033371
0.0032859
0.00328592
0.00328592
0.00328854
0.00323867
0.0032387
0.0032387
0.00324129
0.00319254
0.00319257
0.00319257
0.00319513
0.0031473
0.00314734
0.00314734
0.00314987
0.00310279
0.00310283
0.00310283
0.00310533
0.00305888
0.00305891
0.00305891
0.00306139
0.00301548
0.00301551
0.00301551
0.00301796
0.00297255
0.00297258
0.00297258
0.00297503
0.00293004
0.00293007
0.00293007
0.00293251
0.00288795
0.00288797
0.00288797
0.0028904
0.00284624
0.00284625
0.00284625
0.00284868
0.00280489
0.0028049
0.0028049
0.00280732
0.00276388
0.00276388
0.00276388
0.00276629
0.00272317
0.00272316
0.00272316
0.00272557
0.00268275
0.00268274
0.00268274
0.00268514
0.0026426
0.00264259
0.00264259
0.00264498
0.00260271
0.00260269
0.00260269
0.00260508
0.00256305
0.00256303
0.00256303
0.00256541
0.00252363
0.0025236
0.0025236
0.00252597
0.00248442
0.00248439
0.00248439
0.00248675
0.00244542
0.00244539
0.00244539
0.00244773
0.00240663
0.0024066
0.0024066
0.00240891
0.00236802
0.00236799
0.00236799
0.00237029
0.00232961
0.00232957
0.00232957
0.00233185
0.00229137
0.00229134
0.00229134
0.0022936
0.0022533
0.00225328
0.00225328
0.00225552
0.0022154
0.00221538
0.00221538
0.0022176
0.00217767
0.00217765
0.00217765
0.00217985
0.00214009
0.00214008
0.00214008
0.00214226
0.00210267
0.00210266
0.00210266
0.00210482
0.00206539
0.00206538
0.00206538
0.00206752
0.00202826
0.00202824
0.00202824
0.00203037
0.00199126
0.00199124
0.00199124
0.00199335
0.00195439
0.00195436
0.00195436
0.00195647
0.00191765
0.00191761
0.00191761
0.00191971
0.00188101
0.00188097
0.00188097
0.00188306
0.00184448
0.00184443
0.00184443
0.00184651
0.00180804
0.00180798
0.00180798
0.00181005
0.00177169
0.00177163
0.00177163
0.00177369
0.00173544
0.00173537
0.00173537
0.00173742
0.00169932
0.00169925
0.00169925
0.0017013
0.00166338
0.00166333
0.00166333
0.00166537
0.0016276
0.00162757
0.00162757
0.00162961
0.00159196
0.00159194
0.00159194
0.00159397
0.00155642
0.00155639
0.00155639
0.00155842
0.00152095
0.00152092
0.00152092
0.00152295
0.0014855
0.00148547
0.00148547
0.00148749
0.00145006
0.00145003
0.00145003
0.00145205
0.00141461
0.00141458
0.00141458
0.00141661
0.00137917
0.00137914
0.00137914
0.00138116
0.00134373
0.0013437
0.0013437
0.00134573
0.00130829
0.00130826
0.00130826
0.00131028
0.00127284
0.00127281
0.00127281
0.00127484
0.0012374
0.00123737
0.00123737
0.0012394
0.00120196
0.00120193
0.00120193
0.00120395
0.00116651
0.00116648
0.00116648
0.00116851
0.00113107
0.00113104
0.00113104
0.00113306
0.00109562
0.00109559
0.00109559
0.00109762
0.00106018
0.00106015
0.00106015
0.00106217
0.00102474
0.0010247
0.0010247
0.00102673
0.000989293
0.000989262
0.000989263
0.000991288
0.000953851
0.000953818
0.000953819
0.000955844
0.00091841
0.000918379
0.00091838
0.000920407
0.000882968
0.000882939
0.00088294
0.000884965
0.000847528
0.000847497
0.000847497
0.000849521
0.000812087
0.000812056
0.000812056
0.000814082
0.000776646
0.000776617
0.000776617
0.000778643
0.000741204
0.000741175
0.000741175
0.000743201
0.000705761
0.000705729
0.00070573
0.000707756
0.000670316
0.000670285
0.000670285
0.000672312
0.000634871
0.000634841
0.000634841
0.000636866
0.000599427
0.000599396
0.000599396
0.00060142
0.000563984
0.00056395
0.00056395
0.000565976
0.000528541
0.000528507
0.000528508
0.000530534
0.000493099
0.000493068
0.000493069
0.000495094
0.000457658
0.00045763
0.00045763
0.000459656
0.000422219
0.000422191
0.000422191
0.000424217
0.000386782
0.000386751
0.000386752
0.000388778
0.000351345
0.000351312
0.000351312
0.00035334
0.000315908
0.000315874
0.000315875
0.000317903
0.00028047
0.000280436
0.000280438
0.000282466
0.00024503
0.000244999
0.000245
0.000247027
0.000209588
0.000209561
0.000209561
0.000211587
0.000174144
0.000174118
0.000174118
0.000176147
0.000138693
0.000138669
0.00013867
0.000140704
0.00010323
0.000103211
0.000103211
0.000105253
6.77872e-05
6.77495e-05
6.77483e-05
6.98031e-05
3.26183e-05
3.28763e-05
3.28727e-05
3.4594e-05
6.5354e-06
5.62905e-06
5.62544e-06
4.66536e-06
0.00360788
0.00360693
0.00360693
0.00360788
0.00360693
0.00360693
0.00360583
0.00360583
0.00360583
0.00360583
0.00360693
0.00360693
0.00360788
0.00360693
0.00360693
0.00360787
0.00359807
0.00354891
0.00359815
0.00359815
0.00355105
0.00355105
0.00359807
0.00354891
0.00359815
0.00359815
0.00355105
0.00355105
0.00359815
0.00355105
0.00355105
0.00359807
0.00354891
0.00359815
0.00355105
0.00355105
0.00354891
0.00354247
0.00349786
0.00353966
0.00353966
0.00350123
0.00350123
0.00354247
0.00349786
0.00353966
0.00353966
0.00350123
0.00350123
0.00353966
0.00350123
0.00350123
0.00354247
0.00349786
0.00353966
0.00350123
0.00350123
0.00349786
0.00349078
0.00344548
0.00348803
0.00348803
0.00344876
0.00344876
0.00349078
0.00344548
0.00348803
0.00348803
0.00344876
0.00344876
0.00348803
0.00344876
0.00344876
0.00349078
0.00344548
0.00348803
0.00344876
0.00344876
0.00344548
0.00343849
0.00339392
0.00343576
0.00343576
0.00339713
0.00339713
0.00343849
0.00339392
0.00343576
0.00343576
0.00339713
0.00339713
0.00343576
0.00339713
0.00339713
0.00343849
0.00339392
0.00343576
0.00339713
0.00339713
0.00339392
0.0033871
0.0033437
0.0033844
0.0033844
0.00334679
0.00334679
0.0033871
0.0033437
0.0033844
0.0033844
0.00334679
0.00334679
0.0033844
0.00334679
0.00334679
0.0033871
0.00334369
0.0033844
0.00334679
0.00334679
0.0033437
0.0033371
0.00329494
0.00333444
0.00333444
0.00329793
0.00329793
0.0033371
0.00329494
0.00333444
0.00333444
0.00329792
0.00329792
0.00333444
0.00329792
0.00329793
0.0033371
0.00329493
0.00333444
0.00329792
0.00329792
0.00329494
0.00328854
0.00324751
0.00328592
0.00328593
0.00325039
0.00325039
0.00328854
0.0032475
0.00328592
0.00328592
0.0032504
0.00325039
0.00328593
0.0032504
0.0032504
0.00328854
0.0032475
0.00328592
0.00325041
0.0032504
0.00324751
0.00324129
0.0032012
0.0032387
0.0032387
0.00320401
0.00320401
0.00324129
0.0032012
0.0032387
0.0032387
0.00320401
0.00320401
0.0032387
0.00320401
0.00320401
0.00324129
0.0032012
0.0032387
0.00320401
0.00320401
0.0032012
0.00319513
0.00315582
0.00319257
0.00319257
0.00315857
0.00315857
0.00319513
0.00315582
0.00319257
0.00319257
0.00315857
0.00315857
0.00319257
0.00315857
0.00315857
0.00319513
0.00315582
0.00319257
0.00315857
0.00315857
0.00315582
0.00314987
0.00311119
0.00314734
0.00314734
0.0031139
0.0031139
0.00314987
0.00311118
0.00314734
0.00314734
0.0031139
0.0031139
0.00314734
0.0031139
0.0031139
0.00314987
0.00311118
0.00314734
0.0031139
0.0031139
0.00311118
0.00310533
0.00306716
0.00310283
0.00310283
0.00306984
0.00306984
0.00310533
0.00306716
0.00310283
0.00310283
0.00306984
0.00306984
0.00310283
0.00306984
0.00306984
0.00310533
0.00306716
0.00310283
0.00306984
0.00306984
0.00306716
0.00306139
0.00302366
0.00305891
0.00305891
0.00302632
0.00302632
0.00306139
0.00302366
0.00305891
0.00305891
0.00302632
0.00302632
0.00305891
0.00302632
0.00302632
0.00306139
0.00302366
0.00305891
0.00302632
0.00302632
0.00302366
0.00301796
0.00298065
0.00301551
0.00301551
0.00298327
0.00298327
0.00301796
0.00298066
0.00301551
0.00301551
0.00298327
0.00298327
0.00301551
0.00298327
0.00298327
0.00301796
0.00298066
0.00301551
0.00298327
0.00298327
0.00298066
0.00297502
0.00293809
0.00297258
0.00297258
0.00294066
0.00294066
0.00297503
0.00293809
0.00297258
0.00297258
0.00294066
0.00294066
0.00297258
0.00294066
0.00294064
0.00297503
0.00293809
0.00297258
0.00294066
0.00294066
0.00293808
0.00293251
0.00289593
0.00293007
0.00293007
0.00289846
0.00289845
0.00293251
0.00289593
0.00293007
0.00293007
0.00289845
0.00289845
0.00293007
0.00289845
0.00289846
0.00293251
0.00289593
0.00293007
0.00289845
0.00289845
0.00289593
0.0028904
0.00285415
0.00288797
0.00288797
0.00285665
0.00285665
0.0028904
0.00285415
0.00288797
0.00288797
0.00285665
0.00285665
0.00288797
0.00285665
0.00285665
0.0028904
0.00285415
0.00288797
0.00285665
0.00285665
0.00285415
0.00284868
0.00281274
0.00284625
0.00284625
0.00281521
0.00281521
0.00284868
0.00281274
0.00284625
0.00284625
0.00281521
0.00281521
0.00284625
0.00281521
0.00281521
0.00284868
0.00281274
0.00284625
0.00281521
0.00281521
0.00281274
0.00280732
0.00277167
0.0028049
0.0028049
0.0027741
0.0027741
0.00280732
0.00277167
0.0028049
0.0028049
0.0027741
0.0027741
0.0028049
0.0027741
0.0027741
0.00280732
0.00277167
0.0028049
0.0027741
0.0027741
0.00277167
0.00276629
0.00273091
0.00276388
0.00276388
0.00273331
0.00273331
0.00276629
0.00273091
0.00276388
0.00276388
0.00273331
0.00273331
0.00276388
0.00273331
0.00273331
0.00276629
0.00273092
0.00276388
0.00273331
0.00273331
0.00273091
0.00272557
0.00269045
0.00272316
0.00272316
0.00269282
0.00269282
0.00272557
0.00269045
0.00272316
0.00272316
0.00269282
0.00269282
0.00272316
0.00269282
0.00269282
0.00272557
0.00269045
0.00272316
0.00269282
0.00269282
0.00269045
0.00268514
0.00265026
0.00268274
0.00268274
0.0026526
0.0026526
0.00268514
0.00265026
0.00268274
0.00268274
0.0026526
0.0026526
0.00268274
0.0026526
0.0026526
0.00268514
0.00265026
0.00268274
0.0026526
0.0026526
0.00265026
0.00264498
0.00261033
0.00264259
0.00264259
0.00261264
0.00261264
0.00264498
0.00261033
0.00264259
0.00264259
0.00261264
0.00261264
0.00264259
0.00261265
0.00261265
0.00264499
0.00261033
0.00264259
0.00261264
0.00261264
0.00261033
0.00260508
0.00257064
0.00260269
0.00260269
0.00257293
0.00257293
0.00260508
0.00257064
0.00260269
0.00260269
0.00257293
0.00257293
0.00260269
0.00257293
0.00257293
0.00260508
0.00257064
0.00260269
0.00257293
0.00257293
0.00257064
0.00256541
0.00253117
0.00256303
0.00256303
0.00253344
0.00253344
0.00256541
0.00253117
0.00256303
0.00256303
0.00253344
0.00253344
0.00256303
0.00253344
0.00253344
0.00256541
0.00253117
0.00256303
0.00253344
0.00253344
0.00253117
0.00252597
0.00249192
0.0025236
0.0025236
0.00249418
0.00249418
0.00252597
0.00249192
0.0025236
0.0025236
0.00249418
0.00249418
0.0025236
0.00249418
0.00249418
0.00252597
0.00249192
0.0025236
0.00249418
0.00249418
0.00249192
0.00248675
0.00245288
0.00248439
0.00248439
0.00245512
0.00245512
0.00248675
0.00245288
0.00248439
0.00248439
0.00245512
0.00245512
0.00248439
0.00245512
0.00245513
0.00248675
0.00245288
0.00248439
0.00245512
0.00245512
0.00245288
0.00244773
0.00241405
0.00244539
0.00244539
0.00241628
0.00241628
0.00244773
0.00241405
0.00244539
0.00244539
0.00241628
0.00241628
0.00244539
0.00241628
0.00241628
0.00244773
0.00241405
0.00244539
0.00241628
0.00241628
0.00241405
0.00240891
0.00237541
0.0024066
0.0024066
0.00237763
0.00237763
0.00240891
0.00237541
0.0024066
0.0024066
0.00237763
0.00237763
0.0024066
0.00237763
0.00237763
0.00240891
0.00237541
0.0024066
0.00237763
0.00237763
0.00237541
0.00237029
0.00233695
0.00236799
0.00236799
0.00233916
0.00233916
0.00237029
0.00233695
0.00236799
0.00236799
0.00233916
0.00233916
0.00236799
0.00233916
0.00233916
0.00237029
0.00233695
0.00236799
0.00233916
0.00233916
0.00233695
0.00233185
0.00229868
0.00232957
0.00232957
0.00230088
0.00230088
0.00233185
0.00229868
0.00232957
0.00232957
0.00230088
0.00230088
0.00232957
0.00230088
0.00230088
0.00233185
0.00229868
0.00232957
0.00230088
0.00230088
0.00229868
0.0022936
0.00226058
0.00229134
0.00229134
0.00226278
0.00226278
0.0022936
0.00226058
0.00229134
0.00229134
0.00226278
0.00226278
0.00229134
0.00226278
0.00226278
0.0022936
0.00226058
0.00229134
0.00226278
0.00226278
0.00226058
0.00225552
0.00222265
0.00225328
0.00225328
0.00222484
0.00222484
0.00225552
0.00222265
0.00225328
0.00225328
0.00222484
0.00222484
0.00225328
0.00222484
0.00222484
0.00225551
0.00222265
0.00225328
0.00222484
0.00222484
0.00222265
0.0022176
0.00218489
0.00221538
0.00221538
0.00218707
0.00218707
0.0022176
0.00218489
0.00221538
0.00221538
0.00218707
0.00218707
0.00221538
0.00218707
0.00218707
0.0022176
0.00218489
0.00221538
0.00218707
0.00218707
0.00218489
0.00217985
0.00214728
0.00217765
0.00217765
0.00214946
0.00214946
0.00217985
0.00214728
0.00217765
0.00217765
0.00214946
0.00214946
0.00217765
0.00214946
0.00214946
0.00217985
0.00214728
0.00217765
0.00214946
0.00214946
0.00214728
0.00214226
0.00210983
0.00214008
0.00214008
0.002112
0.002112
0.00214226
0.00210983
0.00214008
0.00214008
0.002112
0.002112
0.00214008
0.002112
0.002112
0.00214226
0.00210983
0.00214008
0.002112
0.002112
0.00210982
0.00210482
0.00207252
0.00210266
0.00210266
0.00207468
0.00207468
0.00210482
0.00207252
0.00210266
0.00210266
0.00207468
0.00207468
0.00210266
0.00207468
0.00207468
0.00210482
0.00207252
0.00210266
0.00207468
0.00207468
0.00207252
0.00206752
0.00203535
0.00206538
0.00206538
0.00203751
0.00203751
0.00206752
0.00203535
0.00206538
0.00206538
0.00203751
0.00203751
0.00206538
0.00203751
0.00203751
0.00206752
0.00203535
0.00206538
0.00203751
0.00203751
0.00203535
0.00203037
0.00199833
0.00202824
0.00202824
0.00200047
0.00200047
0.00203037
0.00199833
0.00202824
0.00202824
0.00200047
0.00200047
0.00202824
0.00200047
0.00200047
0.00203037
0.00199832
0.00202824
0.00200047
0.00200047
0.00199832
0.00199335
0.00196143
0.00199124
0.00199124
0.00196357
0.00196357
0.00199335
0.00196143
0.00199124
0.00199124
0.00196357
0.00196357
0.00199124
0.00196357
0.00196357
0.00199335
0.00196143
0.00199124
0.00196357
0.00196357
0.00196143
0.00195647
0.00192466
0.00195436
0.00195436
0.00192679
0.00192679
0.00195647
0.00192466
0.00195436
0.00195436
0.00192679
0.00192679
0.00195436
0.00192679
0.00192679
0.00195647
0.00192466
0.00195436
0.00192679
0.00192679
0.00192466
0.00191971
0.001888
0.00191762
0.00191761
0.00189012
0.00189012
0.00191971
0.001888
0.00191761
0.00191761
0.00189012
0.00189012
0.00191761
0.00189012
0.00189012
0.00191971
0.001888
0.00191761
0.00189012
0.00189012
0.001888
0.00188306
0.00185144
0.00188097
0.00188097
0.00185356
0.00185356
0.00188306
0.00185144
0.00188097
0.00188097
0.00185356
0.00185356
0.00188097
0.00185356
0.00185356
0.00188306
0.00185144
0.00188097
0.00185356
0.00185356
0.00185144
0.00184651
0.00181498
0.00184443
0.00184443
0.00181709
0.00181709
0.00184651
0.00181498
0.00184443
0.00184443
0.00181709
0.00181709
0.00184443
0.00181709
0.00181709
0.00184651
0.00181498
0.00184443
0.00181709
0.00181709
0.00181498
0.00181005
0.00177861
0.00180798
0.00180798
0.00178071
0.00178071
0.00181005
0.00177861
0.00180798
0.00180798
0.00178071
0.00178071
0.00180798
0.00178071
0.00178071
0.00181005
0.00177861
0.00180798
0.00178071
0.00178071
0.00177861
0.00177369
0.00174234
0.00177163
0.00177163
0.00174443
0.00174443
0.00177369
0.00174234
0.00177163
0.00177163
0.00174443
0.00174443
0.00177163
0.00174443
0.00174443
0.00177369
0.00174234
0.00177163
0.00174443
0.00174443
0.00174234
0.00173742
0.00170619
0.00173537
0.00173537
0.00170826
0.00170826
0.00173742
0.00170619
0.00173537
0.00173537
0.00170826
0.00170826
0.00173537
0.00170826
0.00170826
0.00173742
0.00170619
0.00173537
0.00170826
0.00170826
0.00170619
0.0017013
0.00167024
0.00169925
0.00169925
0.00167229
0.00167229
0.0017013
0.00167024
0.00169925
0.00169925
0.00167229
0.00167229
0.00169925
0.00167229
0.00167229
0.0017013
0.00167024
0.00169925
0.00167229
0.00167229
0.00167024
0.00166537
0.00163446
0.00166333
0.00166333
0.0016365
0.0016365
0.00166537
0.00163446
0.00166333
0.00166333
0.0016365
0.0016365
0.00166333
0.0016365
0.0016365
0.00166537
0.00163446
0.00166333
0.0016365
0.0016365
0.00163446
0.00162961
0.00159881
0.00162757
0.00162757
0.00160084
0.00160083
0.00162961
0.00159881
0.00162757
0.00162757
0.00160083
0.00160083
0.00162757
0.00160084
0.00160084
0.00162961
0.00159881
0.00162757
0.00160084
0.00160084
0.00159881
0.00159397
0.00156325
0.00159194
0.00159194
0.00156527
0.00156527
0.00159397
0.00156325
0.00159194
0.00159194
0.00156527
0.00156527
0.00159194
0.00156527
0.00156527
0.00159397
0.00156325
0.00159194
0.00156527
0.00156527
0.00156325
0.00155842
0.00152776
0.00155639
0.00155639
0.00152978
0.00152978
0.00155842
0.00152776
0.00155639
0.00155639
0.00152978
0.00152978
0.00155639
0.00152978
0.00152978
0.00155842
0.00152776
0.00155639
0.00152978
0.00152978
0.00152776
0.00152295
0.00149231
0.00152092
0.00152092
0.00149433
0.00149433
0.00152295
0.00149231
0.00152092
0.00152092
0.00149433
0.00149433
0.00152092
0.00149433
0.00149433
0.00152295
0.00149231
0.00152092
0.00149433
0.00149433
0.00149231
0.00148749
0.00145687
0.00148547
0.00148547
0.00145889
0.00145889
0.00148749
0.00145687
0.00148547
0.00148547
0.00145889
0.00145889
0.00148547
0.00145889
0.00145889
0.00148749
0.00145687
0.00148547
0.00145889
0.00145889
0.00145687
0.00145205
0.00142142
0.00145003
0.00145003
0.00142344
0.00142344
0.00145205
0.00142142
0.00145003
0.00145003
0.00142344
0.00142344
0.00145003
0.00142344
0.00142344
0.00145205
0.00142142
0.00145003
0.00142344
0.00142344
0.00142142
0.00141661
0.00138598
0.00141458
0.00141458
0.001388
0.001388
0.00141661
0.00138598
0.00141458
0.00141458
0.001388
0.001388
0.00141458
0.001388
0.001388
0.00141661
0.00138598
0.00141458
0.001388
0.001388
0.00138598
0.00138116
0.00135054
0.00137914
0.00137914
0.00135256
0.00135256
0.00138116
0.00135054
0.00137914
0.00137914
0.00135256
0.00135256
0.00137914
0.00135256
0.00135256
0.00138116
0.00135054
0.00137914
0.00135256
0.00135256
0.00135054
0.00134573
0.0013151
0.0013437
0.0013437
0.00131712
0.00131712
0.00134573
0.0013151
0.0013437
0.0013437
0.00131712
0.00131712
0.0013437
0.00131712
0.00131712
0.00134573
0.0013151
0.0013437
0.00131712
0.00131712
0.0013151
0.00131028
0.00127965
0.00130826
0.00130826
0.00128167
0.00128167
0.00131028
0.00127965
0.00130826
0.00130826
0.00128167
0.00128167
0.00130826
0.00128167
0.00128167
0.00131028
0.00127965
0.00130826
0.00128167
0.00128167
0.00127965
0.00127484
0.00124421
0.00127281
0.00127281
0.00124623
0.00124623
0.00127484
0.00124421
0.00127281
0.00127281
0.00124623
0.00124623
0.00127281
0.00124623
0.00124623
0.00127484
0.00124421
0.00127281
0.00124623
0.00124623
0.00124421
0.00123939
0.00120877
0.00123737
0.00123737
0.00121079
0.00121079
0.00123939
0.00120877
0.00123737
0.00123737
0.00121079
0.00121079
0.00123737
0.00121079
0.00121079
0.00123939
0.00120877
0.00123737
0.00121079
0.00121079
0.00120877
0.00120395
0.00117333
0.00120193
0.00120193
0.00117534
0.00117534
0.00120395
0.00117333
0.00120193
0.00120193
0.00117534
0.00117534
0.00120193
0.00117534
0.00117534
0.00120395
0.00117333
0.00120193
0.00117534
0.00117534
0.00117333
0.00116851
0.00113788
0.00116648
0.00116648
0.0011399
0.0011399
0.00116851
0.00113788
0.00116648
0.00116648
0.0011399
0.0011399
0.00116648
0.0011399
0.0011399
0.00116851
0.00113788
0.00116648
0.0011399
0.0011399
0.00113788
0.00113306
0.00110243
0.00113104
0.00113104
0.00110445
0.00110445
0.00113306
0.00110243
0.00113104
0.00113104
0.00110445
0.00110445
0.00113104
0.00110445
0.00110445
0.00113306
0.00110243
0.00113104
0.00110445
0.00110445
0.00110243
0.00109762
0.00106699
0.00109559
0.00109559
0.00106901
0.00106901
0.00109762
0.00106699
0.00109559
0.00109559
0.00106901
0.00106901
0.00109559
0.00106901
0.00106901
0.00109762
0.00106699
0.00109559
0.00106901
0.00106901
0.00106699
0.00106217
0.00103155
0.00106015
0.00106015
0.00103357
0.00103357
0.00106217
0.00103155
0.00106015
0.00106015
0.00103357
0.00103357
0.00106015
0.00103357
0.00103357
0.00106217
0.00103155
0.00106015
0.00103357
0.00103357
0.00103155
0.00102673
0.000996105
0.0010247
0.0010247
0.000998123
0.000998123
0.00102673
0.000996105
0.0010247
0.0010247
0.000998123
0.000998123
0.0010247
0.000998123
0.000998122
0.00102673
0.000996105
0.0010247
0.000998124
0.000998122
0.000996103
0.000991289
0.000960661
0.000989262
0.000989262
0.000962681
0.000962681
0.000991289
0.000960661
0.000989262
0.000989262
0.000962681
0.000962681
0.000989261
0.000962681
0.000962682
0.000991289
0.00096066
0.000989261
0.000962681
0.000962682
0.000960661
0.000955843
0.000925222
0.000953818
0.000953819
0.000927242
0.000927242
0.000955844
0.000925222
0.000953819
0.000953819
0.000927242
0.000927242
0.000953819
0.000927242
0.000927242
0.000955844
0.000925222
0.000953819
0.000927242
0.000927242
0.000925223
0.000920405
0.000889781
0.00091838
0.00091838
0.000891799
0.000891799
0.000920405
0.000889782
0.000918381
0.000918381
0.000891798
0.000891798
0.000918381
0.0008918
0.000891798
0.000920405
0.000889781
0.000918381
0.000891799
0.000891798
0.000889779
0.000884966
0.000854337
0.000882941
0.000882941
0.000856355
0.000856355
0.000884966
0.000854338
0.000882941
0.000882941
0.000856354
0.000856354
0.000882939
0.000856357
0.000856358
0.000884966
0.000854337
0.000882939
0.000856357
0.000856357
0.000854337
0.000849523
0.000818897
0.000847498
0.000847498
0.000820916
0.000820915
0.000849522
0.000818897
0.000847497
0.000847497
0.000820915
0.000820916
0.000847497
0.000820918
0.000820919
0.000849522
0.000818897
0.000847497
0.000820918
0.000820918
0.000818899
0.00081408
0.000783458
0.000812056
0.000812056
0.000785476
0.000785476
0.00081408
0.000783458
0.000812055
0.000812055
0.000785476
0.000785476
0.000812058
0.000785477
0.000785477
0.00081408
0.000783458
0.000812058
0.000785478
0.000785477
0.000783459
0.000778641
0.000748016
0.000776617
0.000776616
0.000750033
0.000750033
0.000778641
0.000748016
0.000776615
0.000776615
0.000750033
0.000750033
0.000776618
0.000750033
0.000750033
0.000778641
0.000748016
0.000776618
0.000750034
0.000750033
0.000748016
0.0007432
0.000712573
0.000741175
0.000741174
0.000714589
0.000714589
0.0007432
0.000712573
0.000741174
0.000741173
0.000714589
0.00071459
0.000741175
0.000714589
0.000714589
0.0007432
0.000712572
0.000741175
0.000714589
0.000714588
0.000712572
0.000707756
0.000677128
0.000705729
0.000705729
0.000679147
0.000679146
0.000707756
0.000677128
0.000705729
0.000705729
0.000679146
0.000679147
0.000705729
0.000679146
0.000679147
0.000707756
0.000677128
0.000705729
0.000679146
0.000679146
0.000677127
0.000672312
0.000641683
0.000670285
0.000670285
0.000643702
0.000643702
0.000672312
0.000641682
0.000670285
0.000670285
0.000643702
0.000643702
0.000670285
0.0006437
0.000643701
0.000672312
0.000641682
0.000670285
0.000643701
0.000643702
0.000641681
0.000636867
0.000606236
0.000634842
0.000634841
0.000608255
0.000608255
0.000636867
0.000606236
0.000634841
0.000634841
0.000608255
0.000608255
0.000634841
0.000608254
0.000608256
0.000636867
0.000606236
0.000634841
0.000608255
0.000608256
0.000606236
0.000601422
0.000570793
0.000599396
0.000599396
0.000572812
0.000572811
0.000601421
0.000570792
0.000599397
0.000599396
0.000572812
0.000572812
0.000599396
0.000572812
0.000572813
0.000601421
0.000570792
0.000599396
0.000572812
0.000572813
0.000570793
0.000565976
0.000535352
0.00056395
0.00056395
0.000537371
0.000537371
0.000565976
0.000535351
0.00056395
0.00056395
0.000537371
0.000537371
0.000563951
0.000537372
0.000537372
0.000565976
0.000535352
0.000563951
0.000537372
0.000537372
0.000535352
0.000530533
0.000499911
0.000528508
0.000528507
0.000501931
0.000501931
0.000530533
0.000499911
0.000528507
0.000528508
0.000501931
0.000501931
0.000528508
0.000501931
0.000501931
0.000530533
0.000499911
0.000528508
0.000501931
0.000501931
0.000499911
0.000495093
0.000464471
0.000493068
0.000493068
0.00046649
0.00046649
0.000495093
0.000464471
0.000493068
0.000493069
0.000466489
0.000466489
0.000493069
0.00046649
0.000466489
0.000495094
0.00046447
0.000493068
0.000466489
0.000466489
0.00046447
0.000459655
0.00042903
0.00045763
0.00045763
0.000431047
0.000431048
0.000459654
0.000429031
0.00045763
0.00045763
0.000431047
0.000431047
0.00045763
0.000431047
0.000431047
0.000459655
0.00042903
0.00045763
0.000431047
0.000431046
0.000429029
0.000424217
0.000393589
0.000422191
0.000422191
0.000395607
0.000395607
0.000424217
0.000393591
0.000422191
0.000422191
0.000395607
0.000395607
0.000422191
0.000395607
0.000395607
0.000424217
0.000393591
0.000422191
0.000395607
0.000395607
0.00039359
0.000388776
0.000358153
0.00038675
0.000386751
0.000360172
0.00036017
0.000388778
0.000358152
0.00038675
0.000386751
0.000360172
0.000360172
0.000386751
0.00036017
0.000360171
0.000388778
0.000358152
0.000386751
0.000360172
0.000360172
0.000358153
0.000353338
0.000322717
0.000351312
0.000351312
0.000324737
0.000324735
0.000353339
0.000322715
0.000351312
0.000351312
0.000324737
0.000324737
0.000351313
0.000324735
0.000324735
0.000353338
0.000322717
0.000351312
0.000324737
0.000324736
0.000322716
0.000317902
0.00028728
0.000315875
0.000315874
0.0002893
0.000289299
0.000317901
0.000287278
0.000315875
0.000315875
0.0002893
0.0002893
0.000315875
0.000289299
0.000289298
0.000317901
0.00028728
0.000315875
0.0002893
0.000289298
0.000287278
0.000282465
0.000251841
0.000280438
0.000280436
0.000253862
0.000253861
0.000282464
0.00025184
0.000280438
0.000280438
0.000253862
0.000253862
0.000280437
0.000253861
0.000253859
0.000282465
0.000251841
0.000280437
0.000253861
0.000253859
0.000251838
0.000247028
0.000216401
0.000245
0.000244999
0.000218421
0.000218421
0.000247026
0.000216401
0.000245
0.000245
0.000218421
0.000218421
0.000244999
0.000218422
0.00021842
0.000247028
0.000216401
0.000244998
0.000218421
0.00021842
0.000216397
0.00021159
0.000180957
0.00020956
0.00020956
0.000182978
0.000182978
0.00021159
0.000180957
0.00020956
0.000209561
0.000182978
0.000182978
0.000209558
0.000182978
0.00018298
0.00021159
0.000180958
0.000209558
0.000182979
0.00018298
0.000180956
0.000176149
0.000145508
0.000174118
0.000174117
0.000147533
0.000147532
0.000176149
0.000145507
0.000174118
0.000174118
0.000147532
0.000147532
0.000174117
0.000147532
0.000147534
0.00017615
0.000145508
0.000174117
0.000147532
0.000147534
0.000145509
0.000140703
0.000110047
0.00013867
0.000138669
0.000112079
0.00011208
0.000140702
0.000110048
0.00013867
0.00013867
0.000112079
0.000112079
0.000138671
0.00011208
0.000112079
0.000140704
0.000110048
0.000138671
0.000112078
0.000112079
0.000110049
0.00010525
7.45697e-05
0.00010321
0.000103211
7.66126e-05
7.66135e-05
0.00010525
7.45704e-05
0.00010321
0.000103211
7.66133e-05
7.66123e-05
0.000103212
7.66132e-05
7.66116e-05
0.000105251
7.45694e-05
0.000103212
7.66128e-05
7.66113e-05
7.45706e-05
6.98004e-05
3.9222e-05
6.77484e-05
6.77495e-05
4.14324e-05
4.14334e-05
6.98014e-05
3.92223e-05
6.77484e-05
6.77478e-05
4.14325e-05
4.14315e-05
6.77492e-05
4.14318e-05
4.14297e-05
6.98012e-05
3.92198e-05
6.77485e-05
4.14296e-05
4.14301e-05
3.9221e-05
3.45947e-05
5.81475e-06
3.28757e-05
3.28785e-05
6.65072e-06
6.65035e-06
3.45939e-05
5.81561e-06
3.28773e-05
3.28745e-05
6.64687e-06
6.6457e-06
3.28737e-05
6.64926e-06
6.64778e-06
3.45917e-05
5.81131e-06
3.28754e-05
6.64622e-06
6.64596e-06
5.81323e-06
4.6703e-06
5.63283e-06
5.63363e-06
4.67039e-06
5.62936e-06
5.62867e-06
6.53592e-06
6.53257e-06
6.53271e-06
5.62808e-06
4.66524e-06
5.62591e-06
0.00361575
0.00362593
0.00362046
0.00362046
0.003643
0.00362993
0.00365817
0.00362387
0.003643
0.00362993
0.00362387
0.00365817
0.00363445
0.00366189
0.00366189
0.00356992
0.00359389
0.00359878
0.00356033
0.00357062
0.00356248
0.00356991
0.00359391
0.00359876
0.00356031
0.00359771
0.00359771
0.00359771
0.00355073
0.00355074
0.00355073
0.00355073
0.00356771
0.00359485
0.0035975
0.00357528
0.00359748
0.0035652
0.00357618
0.00357068
0.00356246
0.00356771
0.0035975
0.00359486
0.00357527
0.00359749
0.00357618
0.00356519
0.00359955
0.00359955
0.00357041
0.00356557
0.00356557
0.00352495
0.0035445
0.00354548
0.00352344
0.00354318
0.00352297
0.00352495
0.00354451
0.00354548
0.00352343
0.00353934
0.00353934
0.00353934
0.00350129
0.00350129
0.00350129
0.00350129
0.00352355
0.00354423
0.00353949
0.00352736
0.00354299
0.00352391
0.00352726
0.00354319
0.00352297
0.00352355
0.00353949
0.00354423
0.00352736
0.00354299
0.00352726
0.00352391
0.0035454
0.0035454
0.00352392
0.00352435
0.00352436
0.00347248
0.00349129
0.00349235
0.00347146
0.00349092
0.00347117
0.00347248
0.00349129
0.00349235
0.00347146
0.00348802
0.00348802
0.00348802
0.00344875
0.00344875
0.00344875
0.00344875
0.00347157
0.00349163
0.00348796
0.00347488
0.00349114
0.00347188
0.00347481
0.00349092
0.00347117
0.00347157
0.00348796
0.00349163
0.00347488
0.00349114
0.00347481
0.00347189
0.00349191
0.00349191
0.00347161
0.00347199
0.00347199
0.00341996
0.00343861
0.00343947
0.0034192
0.0034384
0.00341902
0.00341996
0.00343861
0.00343947
0.0034192
0.00343577
0.00343577
0.00343577
0.00339713
0.00339713
0.00339713
0.00339713
0.00341945
0.00343899
0.00343573
0.00342282
0.00343875
0.00341962
0.00342279
0.0034384
0.00341902
0.00341946
0.00343573
0.00343899
0.00342282
0.00343875
0.00342279
0.00341962
0.00343904
0.00343904
0.00341956
0.00341957
0.00341957
0.00336876
0.00338713
0.00338775
0.00336822
0.00338697
0.00336807
0.00336876
0.00338713
0.00338775
0.00336822
0.0033844
0.0033844
0.0033844
0.00334678
0.00334678
0.00334678
0.00334678
0.00336849
0.00338746
0.00338438
0.00337177
0.00338731
0.00336859
0.00337175
0.00338697
0.00336807
0.00336849
0.00338438
0.00338746
0.00337177
0.00338731
0.00337175
0.00336859
0.00338745
0.00338745
0.00336862
0.0033685
0.0033685
0.00331912
0.00333708
0.00333752
0.00331873
0.00333695
0.00331861
0.00331912
0.00333708
0.00333752
0.00331873
0.00333443
0.00333443
0.00333443
0.0032979
0.0032979
0.0032979
0.0032979
0.00331901
0.00333737
0.00333441
0.00332218
0.00333727
0.00331907
0.00332215