/*--------------------------------*- C++ -*----------------------------------*\
| =========                 |                                                 |
| \\      /  F ield         | OpenFOAM: The Open Source CFD Toolbox           |
|  \\    /   O peration     | Version:                                        |
|   \\  /    A nd           | Website:  www.openfoam.com                      |
|    \\/     M anipulation  |                                                 |
\*---------------------------------------------------------------------------*/
FoamFile
{
    version     2.0;
    format      ascii;
    class       volScalarField;
    location    "6850.5";
    object      p;
}
// * * * * * * * * * * * * * * * * * * * * * * * * * * * * * * * * * * * * * //

dimensions      [0 2 -2 0 0 0 0];


internalField   nonuniform List<scalar> 
247096
(
1.50063e-07
1.50065e-07
1.50208e-07
1.50295e-07
1.50328e-07
1.50286e-07
1.50195e-07
1.50041e-07
1.50065e-07
1.50263e-07
1.50441e-07
1.50535e-07
1.50558e-07
1.50527e-07
1.50422e-07
1.50239e-07
1.50208e-07
1.50441e-07
1.50583e-07
1.50625e-07
1.50632e-07
1.50623e-07
1.50572e-07
1.50413e-07
1.50181e-07
1.50295e-07
1.50535e-07
1.50625e-07
1.50638e-07
1.50636e-07
1.50638e-07
1.5062e-07
1.50512e-07
1.50262e-07
1.50063e-07
1.50328e-07
1.50558e-07
1.50632e-07
1.50636e-07
1.50633e-07
1.50637e-07
1.50629e-07
1.50538e-07
1.50293e-07
1.50286e-07
1.50527e-07
1.50623e-07
1.50638e-07
1.50637e-07
1.50637e-07
1.50618e-07
1.50505e-07
1.50253e-07
1.50195e-07
1.50422e-07
1.50572e-07
1.5062e-07
1.50629e-07
1.50618e-07
1.5056e-07
1.50395e-07
1.50169e-07
1.50041e-07
1.50239e-07
1.50413e-07
1.50512e-07
1.50538e-07
1.50505e-07
1.50395e-07
1.50216e-07
1.50181e-07
1.50262e-07
1.50293e-07
1.50253e-07
1.50169e-07
1.47348e-07
1.47321e-07
1.47331e-07
1.47177e-07
1.47184e-07
1.47199e-07
1.47183e-07
1.47373e-07
1.47323e-07
1.47331e-07
1.47192e-07
1.47015e-07
1.47033e-07
1.47033e-07
1.47015e-07
1.47258e-07
1.47204e-07
1.47177e-07
1.47015e-07
1.47048e-07
1.47065e-07
1.47065e-07
1.47048e-07
1.47015e-07
1.47329e-07
1.4737e-07
1.47348e-07
1.47184e-07
1.47033e-07
1.47065e-07
1.47082e-07
1.47082e-07
1.47065e-07
1.47033e-07
1.47358e-07
1.47382e-07
1.47321e-07
1.47199e-07
1.47033e-07
1.47065e-07
1.47082e-07
1.47082e-07
1.47065e-07
1.47033e-07
1.47361e-07
1.47208e-07
1.47183e-07
1.47015e-07
1.47048e-07
1.47065e-07
1.47065e-07
1.47048e-07
1.47015e-07
1.4735e-07
1.4739e-07
1.47373e-07
1.47258e-07
1.47015e-07
1.47033e-07
1.47033e-07
1.47015e-07
1.47351e-07
1.47262e-07
1.47375e-07
1.47323e-07
1.47204e-07
1.47329e-07
1.47358e-07
1.47361e-07
1.4735e-07
1.47262e-07
1.4739e-07
1.4737e-07
1.47382e-07
1.47208e-07
1.4739e-07
1.47375e-07
1.45689e-07
1.45677e-07
1.45687e-07
1.45551e-07
1.45549e-07
1.45557e-07
1.45551e-07
1.45713e-07
1.45682e-07
1.45687e-07
1.45548e-07
1.45334e-07
1.45339e-07
1.45339e-07
1.45334e-07
1.45578e-07
1.45571e-07
1.45551e-07
1.45334e-07
1.45352e-07
1.45355e-07
1.45355e-07
1.45352e-07
1.45334e-07
1.4563e-07
1.45713e-07
1.45689e-07
1.45549e-07
1.45339e-07
1.45355e-07
1.45359e-07
1.45359e-07
1.45355e-07
1.45339e-07
1.45634e-07
1.45705e-07
1.45677e-07
1.45557e-07
1.45339e-07
1.45355e-07
1.45359e-07
1.45359e-07
1.45355e-07
1.45339e-07
1.45632e-07
1.45577e-07
1.45551e-07
1.45334e-07
1.45352e-07
1.45355e-07
1.45355e-07
1.45352e-07
1.45334e-07
1.45633e-07
1.45712e-07
1.45713e-07
1.45578e-07
1.45334e-07
1.45339e-07
1.45339e-07
1.45334e-07
1.45613e-07
1.456e-07
1.45719e-07
1.45682e-07
1.45571e-07
1.4563e-07
1.45634e-07
1.45632e-07
1.45633e-07
1.456e-07
1.45726e-07
1.45713e-07
1.45705e-07
1.45577e-07
1.45712e-07
1.45719e-07
1.44111e-07
1.441e-07
1.4411e-07
1.43975e-07
1.43971e-07
1.43979e-07
1.43974e-07
1.44135e-07
1.44105e-07
1.4411e-07
1.43973e-07
1.43769e-07
1.43771e-07
1.43771e-07
1.43769e-07
1.44006e-07
1.43996e-07
1.43975e-07
1.43769e-07
1.43777e-07
1.43775e-07
1.43775e-07
1.43777e-07
1.43769e-07
1.44058e-07
1.44136e-07
1.44111e-07
1.43971e-07
1.43771e-07
1.43775e-07
1.43775e-07
1.43775e-07
1.43775e-07
1.43771e-07
1.44059e-07
1.44129e-07
1.441e-07
1.43979e-07
1.43771e-07
1.43775e-07
1.43775e-07
1.43775e-07
1.43775e-07
1.43771e-07
1.44056e-07
1.44001e-07
1.43974e-07
1.43769e-07
1.43777e-07
1.43775e-07
1.43775e-07
1.43777e-07
1.43769e-07
1.44058e-07
1.44135e-07
1.44135e-07
1.44006e-07
1.43769e-07
1.43771e-07
1.43771e-07
1.43769e-07
1.44041e-07
1.44025e-07
1.44141e-07
1.44105e-07
1.43996e-07
1.44058e-07
1.44059e-07
1.44056e-07
1.44058e-07
1.44025e-07
1.4415e-07
1.44136e-07
1.44129e-07
1.44001e-07
1.44135e-07
1.44141e-07
1.42542e-07
1.42531e-07
1.42541e-07
1.42406e-07
1.42402e-07
1.4241e-07
1.42405e-07
1.42567e-07
1.42536e-07
1.42541e-07
1.42404e-07
1.422e-07
1.42201e-07
1.42201e-07
1.422e-07
1.42437e-07
1.42427e-07
1.42406e-07
1.422e-07
1.42206e-07
1.42203e-07
1.42203e-07
1.42206e-07
1.422e-07
1.4249e-07
1.42568e-07
1.42542e-07
1.42402e-07
1.42201e-07
1.42203e-07
1.42203e-07
1.42203e-07
1.42203e-07
1.42201e-07
1.4249e-07
1.4256e-07
1.42531e-07
1.4241e-07
1.42201e-07
1.42203e-07
1.42203e-07
1.42203e-07
1.42203e-07
1.42201e-07
1.42487e-07
1.42432e-07
1.42405e-07
1.422e-07
1.42206e-07
1.42203e-07
1.42203e-07
1.42206e-07
1.422e-07
1.42489e-07
1.42567e-07
1.42567e-07
1.42437e-07
1.422e-07
1.42201e-07
1.42201e-07
1.422e-07
1.42472e-07
1.42456e-07
1.42573e-07
1.42536e-07
1.42427e-07
1.4249e-07
1.4249e-07
1.42487e-07
1.42489e-07
1.42456e-07
1.42582e-07
1.42568e-07
1.4256e-07
1.42432e-07
1.42567e-07
1.42573e-07
1.40969e-07
1.40957e-07
1.40968e-07
1.40832e-07
1.40828e-07
1.40835e-07
1.4083e-07
1.40993e-07
1.40963e-07
1.40968e-07
1.4083e-07
1.40624e-07
1.40625e-07
1.40625e-07
1.40624e-07
1.40862e-07
1.40853e-07
1.40832e-07
1.40624e-07
1.4063e-07
1.40627e-07
1.40627e-07
1.4063e-07
1.40624e-07
1.40915e-07
1.40994e-07
1.40969e-07
1.40828e-07
1.40625e-07
1.40627e-07
1.40626e-07
1.40626e-07
1.40627e-07
1.40625e-07
1.40916e-07
1.40987e-07
1.40957e-07
1.40835e-07
1.40625e-07
1.40627e-07
1.40626e-07
1.40626e-07
1.40627e-07
1.40625e-07
1.40913e-07
1.40858e-07
1.4083e-07
1.40624e-07
1.4063e-07
1.40627e-07
1.40627e-07
1.4063e-07
1.40624e-07
1.40915e-07
1.40993e-07
1.40993e-07
1.40862e-07
1.40624e-07
1.40625e-07
1.40625e-07
1.40624e-07
1.40898e-07
1.40882e-07
1.41e-07
1.40963e-07
1.40853e-07
1.40915e-07
1.40916e-07
1.40913e-07
1.40915e-07
1.40882e-07
1.41008e-07
1.40994e-07
1.40987e-07
1.40858e-07
1.40993e-07
1.41e-07
1.39393e-07
1.39382e-07
1.39392e-07
1.39256e-07
1.39252e-07
1.3926e-07
1.39255e-07
1.39418e-07
1.39387e-07
1.39392e-07
1.39254e-07
1.39048e-07
1.39049e-07
1.39049e-07
1.39048e-07
1.39287e-07
1.39277e-07
1.39256e-07
1.39048e-07
1.39054e-07
1.39051e-07
1.39051e-07
1.39054e-07
1.39048e-07
1.39339e-07
1.39419e-07
1.39393e-07
1.39252e-07
1.39049e-07
1.39051e-07
1.3905e-07
1.3905e-07
1.39051e-07
1.39049e-07
1.3934e-07
1.39411e-07
1.39382e-07
1.3926e-07
1.39049e-07
1.39051e-07
1.3905e-07
1.3905e-07
1.39051e-07
1.39049e-07
1.39337e-07
1.39282e-07
1.39255e-07
1.39048e-07
1.39054e-07
1.39051e-07
1.39051e-07
1.39054e-07
1.39048e-07
1.39339e-07
1.39418e-07
1.39418e-07
1.39287e-07
1.39048e-07
1.39049e-07
1.39049e-07
1.39048e-07
1.39322e-07
1.39306e-07
1.39424e-07
1.39387e-07
1.39277e-07
1.39339e-07
1.3934e-07
1.39337e-07
1.39339e-07
1.39306e-07
1.39432e-07
1.39419e-07
1.39411e-07
1.39282e-07
1.39418e-07
1.39424e-07
1.37817e-07
1.37806e-07
1.37816e-07
1.3768e-07
1.37676e-07
1.37684e-07
1.37679e-07
1.37842e-07
1.37811e-07
1.37816e-07
1.37678e-07
1.37472e-07
1.37473e-07
1.37473e-07
1.37472e-07
1.37711e-07
1.37701e-07
1.3768e-07
1.37472e-07
1.37478e-07
1.37475e-07
1.37475e-07
1.37478e-07
1.37472e-07
1.37763e-07
1.37843e-07
1.37817e-07
1.37676e-07
1.37473e-07
1.37475e-07
1.37474e-07
1.37474e-07
1.37475e-07
1.37473e-07
1.37764e-07
1.37835e-07
1.37806e-07
1.37684e-07
1.37473e-07
1.37475e-07
1.37474e-07
1.37474e-07
1.37475e-07
1.37473e-07
1.37761e-07
1.37706e-07
1.37679e-07
1.37472e-07
1.37478e-07
1.37475e-07
1.37475e-07
1.37478e-07
1.37472e-07
1.37763e-07
1.37842e-07
1.37842e-07
1.37711e-07
1.37472e-07
1.37473e-07
1.37473e-07
1.37472e-07
1.37746e-07
1.3773e-07
1.37848e-07
1.37811e-07
1.37701e-07
1.37763e-07
1.37764e-07
1.37761e-07
1.37763e-07
1.3773e-07
1.37856e-07
1.37843e-07
1.37835e-07
1.37706e-07
1.37842e-07
1.37848e-07
1.36241e-07
1.36229e-07
1.3624e-07
1.36104e-07
1.361e-07
1.36108e-07
1.36103e-07
1.36265e-07
1.36235e-07
1.3624e-07
1.36102e-07
1.35896e-07
1.35897e-07
1.35897e-07
1.35896e-07
1.36135e-07
1.36125e-07
1.36104e-07
1.35896e-07
1.35902e-07
1.35899e-07
1.35899e-07
1.35902e-07
1.35896e-07
1.36187e-07
1.36267e-07
1.36241e-07
1.361e-07
1.35897e-07
1.35899e-07
1.35898e-07
1.35898e-07
1.35899e-07
1.35897e-07
1.36188e-07
1.36259e-07
1.36229e-07
1.36108e-07
1.35897e-07
1.35899e-07
1.35898e-07
1.35898e-07
1.35899e-07
1.35897e-07
1.36185e-07
1.3613e-07
1.36103e-07
1.35896e-07
1.35902e-07
1.35899e-07
1.35899e-07
1.35902e-07
1.35896e-07
1.36187e-07
1.36265e-07
1.36265e-07
1.36135e-07
1.35896e-07
1.35897e-07
1.35897e-07
1.35896e-07
1.3617e-07
1.36154e-07
1.36272e-07
1.36235e-07
1.36125e-07
1.36187e-07
1.36188e-07
1.36185e-07
1.36187e-07
1.36154e-07
1.3628e-07
1.36267e-07
1.36259e-07
1.3613e-07
1.36266e-07
1.36272e-07
1.34665e-07
1.34653e-07
1.34664e-07
1.34528e-07
1.34524e-07
1.34532e-07
1.34527e-07
1.34689e-07
1.34659e-07
1.34664e-07
1.34526e-07
1.3432e-07
1.34321e-07
1.34321e-07
1.3432e-07
1.34559e-07
1.34549e-07
1.34528e-07
1.3432e-07
1.34325e-07
1.34323e-07
1.34323e-07
1.34325e-07
1.3432e-07
1.34611e-07
1.34691e-07
1.34665e-07
1.34524e-07
1.34321e-07
1.34323e-07
1.34322e-07
1.34322e-07
1.34323e-07
1.34321e-07
1.34612e-07
1.34683e-07
1.34653e-07
1.34532e-07
1.34321e-07
1.34323e-07
1.34322e-07
1.34322e-07
1.34323e-07
1.34321e-07
1.34609e-07
1.34554e-07
1.34527e-07
1.3432e-07
1.34325e-07
1.34323e-07
1.34323e-07
1.34325e-07
1.3432e-07
1.34611e-07
1.34689e-07
1.34689e-07
1.34559e-07
1.3432e-07
1.34321e-07
1.34321e-07
1.3432e-07
1.34594e-07
1.34578e-07
1.34696e-07
1.34659e-07
1.34549e-07
1.34611e-07
1.34612e-07
1.34609e-07
1.34611e-07
1.34578e-07
1.34704e-07
1.34691e-07
1.34683e-07
1.34554e-07
1.34689e-07
1.34696e-07
1.33089e-07
1.33077e-07
1.33088e-07
1.32952e-07
1.32948e-07
1.32955e-07
1.3295e-07
1.33113e-07
1.33083e-07
1.33088e-07
1.3295e-07
1.32744e-07
1.32745e-07
1.32745e-07
1.32744e-07
1.32982e-07
1.32973e-07
1.32952e-07
1.32744e-07
1.32749e-07
1.32747e-07
1.32747e-07
1.32749e-07
1.32744e-07
1.33035e-07
1.33114e-07
1.33089e-07
1.32948e-07
1.32745e-07
1.32747e-07
1.32746e-07
1.32746e-07
1.32747e-07
1.32745e-07
1.33036e-07
1.33107e-07
1.33077e-07
1.32955e-07
1.32745e-07
1.32747e-07
1.32746e-07
1.32746e-07
1.32747e-07
1.32745e-07
1.33033e-07
1.32978e-07
1.3295e-07
1.32744e-07
1.32749e-07
1.32747e-07
1.32747e-07
1.32749e-07
1.32744e-07
1.33035e-07
1.33113e-07
1.33113e-07
1.32982e-07
1.32744e-07
1.32745e-07
1.32745e-07
1.32744e-07
1.33018e-07
1.33002e-07
1.3312e-07
1.33083e-07
1.32973e-07
1.33035e-07
1.33036e-07
1.33033e-07
1.33035e-07
1.33002e-07
1.33128e-07
1.33114e-07
1.33107e-07
1.32978e-07
1.33113e-07
1.3312e-07
1.31513e-07
1.31501e-07
1.31512e-07
1.31376e-07
1.31372e-07
1.31379e-07
1.31374e-07
1.31537e-07
1.31507e-07
1.31512e-07
1.31374e-07
1.31168e-07
1.31169e-07
1.31169e-07
1.31168e-07
1.31406e-07
1.31397e-07
1.31376e-07
1.31168e-07
1.31173e-07
1.31171e-07
1.31171e-07
1.31173e-07
1.31168e-07
1.31459e-07
1.31538e-07
1.31513e-07
1.31372e-07
1.31169e-07
1.31171e-07
1.3117e-07
1.3117e-07
1.31171e-07
1.31169e-07
1.3146e-07
1.31531e-07
1.31501e-07
1.31379e-07
1.31169e-07
1.31171e-07
1.3117e-07
1.3117e-07
1.31171e-07
1.31169e-07
1.31457e-07
1.31402e-07
1.31374e-07
1.31168e-07
1.31173e-07
1.31171e-07
1.31171e-07
1.31173e-07
1.31168e-07
1.31459e-07
1.31537e-07
1.31537e-07
1.31406e-07
1.31168e-07
1.31169e-07
1.31169e-07
1.31168e-07
1.31442e-07
1.31426e-07
1.31544e-07
1.31507e-07
1.31397e-07
1.31459e-07
1.3146e-07
1.31457e-07
1.31459e-07
1.31426e-07
1.31552e-07
1.31538e-07
1.31531e-07
1.31402e-07
1.31537e-07
1.31544e-07
1.29937e-07
1.29925e-07
1.29936e-07
1.298e-07
1.29796e-07
1.29803e-07
1.29798e-07
1.29961e-07
1.29931e-07
1.29936e-07
1.29798e-07
1.29592e-07
1.29593e-07
1.29593e-07
1.29592e-07
1.2983e-07
1.29821e-07
1.298e-07
1.29592e-07
1.29597e-07
1.29595e-07
1.29595e-07
1.29597e-07
1.29592e-07
1.29883e-07
1.29962e-07
1.29937e-07
1.29796e-07
1.29593e-07
1.29595e-07
1.29594e-07
1.29594e-07
1.29595e-07
1.29593e-07
1.29884e-07
1.29955e-07
1.29925e-07
1.29803e-07
1.29593e-07
1.29595e-07
1.29594e-07
1.29594e-07
1.29595e-07
1.29593e-07
1.29881e-07
1.29826e-07
1.29798e-07
1.29592e-07
1.29597e-07
1.29595e-07
1.29595e-07
1.29597e-07
1.29592e-07
1.29883e-07
1.29961e-07
1.29961e-07
1.2983e-07
1.29592e-07
1.29593e-07
1.29593e-07
1.29592e-07
1.29866e-07
1.2985e-07
1.29968e-07
1.29931e-07
1.29821e-07
1.29883e-07
1.29884e-07
1.29881e-07
1.29883e-07
1.2985e-07
1.29976e-07
1.29962e-07
1.29955e-07
1.29826e-07
1.29961e-07
1.29968e-07
1.28361e-07
1.28349e-07
1.2836e-07
1.28224e-07
1.2822e-07
1.28227e-07
1.28222e-07
1.28385e-07
1.28355e-07
1.2836e-07
1.28222e-07
1.28016e-07
1.28017e-07
1.28017e-07
1.28016e-07
1.28254e-07
1.28245e-07
1.28224e-07
1.28016e-07
1.28021e-07
1.28019e-07
1.28019e-07
1.28021e-07
1.28016e-07
1.28307e-07
1.28386e-07
1.28361e-07
1.2822e-07
1.28017e-07
1.28019e-07
1.28018e-07
1.28018e-07
1.28019e-07
1.28017e-07
1.28308e-07
1.28379e-07
1.28349e-07
1.28227e-07
1.28017e-07
1.28019e-07
1.28018e-07
1.28018e-07
1.28019e-07
1.28017e-07
1.28305e-07
1.2825e-07
1.28222e-07
1.28016e-07
1.28021e-07
1.28019e-07
1.28019e-07
1.28021e-07
1.28016e-07
1.28307e-07
1.28385e-07
1.28385e-07
1.28254e-07
1.28016e-07
1.28017e-07
1.28017e-07
1.28016e-07
1.2829e-07
1.28274e-07
1.28392e-07
1.28355e-07
1.28245e-07
1.28307e-07
1.28308e-07
1.28305e-07
1.28307e-07
1.28274e-07
1.284e-07
1.28386e-07
1.28379e-07
1.2825e-07
1.28385e-07
1.28392e-07
1.26785e-07
1.26773e-07
1.26784e-07
1.26648e-07
1.26644e-07
1.26651e-07
1.26646e-07
1.26809e-07
1.26779e-07
1.26784e-07
1.26646e-07
1.2644e-07
1.26441e-07
1.26441e-07
1.2644e-07
1.26678e-07
1.26669e-07
1.26648e-07
1.2644e-07
1.26445e-07
1.26443e-07
1.26443e-07
1.26445e-07
1.2644e-07
1.26731e-07
1.2681e-07
1.26785e-07
1.26644e-07
1.26441e-07
1.26443e-07
1.26442e-07
1.26442e-07
1.26443e-07
1.26441e-07
1.26732e-07
1.26803e-07
1.26773e-07
1.26651e-07
1.26441e-07
1.26443e-07
1.26442e-07
1.26442e-07
1.26443e-07
1.26441e-07
1.26729e-07
1.26674e-07
1.26646e-07
1.2644e-07
1.26445e-07
1.26443e-07
1.26443e-07
1.26445e-07
1.2644e-07
1.26731e-07
1.26809e-07
1.26809e-07
1.26678e-07
1.2644e-07
1.26441e-07
1.26441e-07
1.2644e-07
1.26714e-07
1.26698e-07
1.26816e-07
1.26779e-07
1.26669e-07
1.26731e-07
1.26732e-07
1.26729e-07
1.26731e-07
1.26698e-07
1.26824e-07
1.2681e-07
1.26803e-07
1.26674e-07
1.26809e-07
1.26816e-07
1.25209e-07
1.25197e-07
1.25208e-07
1.25072e-07
1.25068e-07
1.25075e-07
1.2507e-07
1.25233e-07
1.25203e-07
1.25208e-07
1.2507e-07
1.24864e-07
1.24865e-07
1.24865e-07
1.24864e-07
1.25102e-07
1.25093e-07
1.25072e-07
1.24864e-07
1.24869e-07
1.24867e-07
1.24867e-07
1.24869e-07
1.24864e-07
1.25155e-07
1.25234e-07
1.25209e-07
1.25068e-07
1.24865e-07
1.24867e-07
1.24866e-07
1.24866e-07
1.24867e-07
1.24865e-07
1.25156e-07
1.25227e-07
1.25197e-07
1.25075e-07
1.24865e-07
1.24867e-07
1.24866e-07
1.24866e-07
1.24867e-07
1.24865e-07
1.25153e-07
1.25098e-07
1.2507e-07
1.24864e-07
1.24869e-07
1.24867e-07
1.24867e-07
1.24869e-07
1.24864e-07
1.25155e-07
1.25233e-07
1.25233e-07
1.25102e-07
1.24864e-07
1.24865e-07
1.24865e-07
1.24864e-07
1.25138e-07
1.25122e-07
1.2524e-07
1.25203e-07
1.25093e-07
1.25155e-07
1.25156e-07
1.25153e-07
1.25155e-07
1.25122e-07
1.25248e-07
1.25234e-07
1.25227e-07
1.25098e-07
1.25233e-07
1.2524e-07
1.23633e-07
1.23621e-07
1.23632e-07
1.23496e-07
1.23492e-07
1.23499e-07
1.23494e-07
1.23657e-07
1.23627e-07
1.23632e-07
1.23494e-07
1.23288e-07
1.23289e-07
1.23289e-07
1.23288e-07
1.23526e-07
1.23517e-07
1.23496e-07
1.23288e-07
1.23293e-07
1.23291e-07
1.23291e-07
1.23293e-07
1.23288e-07
1.23579e-07
1.23658e-07
1.23633e-07
1.23492e-07
1.23289e-07
1.23291e-07
1.2329e-07
1.2329e-07
1.23291e-07
1.23289e-07
1.2358e-07
1.23651e-07
1.23621e-07
1.23499e-07
1.23289e-07
1.23291e-07
1.2329e-07
1.2329e-07
1.23291e-07
1.23289e-07
1.23577e-07
1.23522e-07
1.23494e-07
1.23288e-07
1.23293e-07
1.23291e-07
1.23291e-07
1.23293e-07
1.23288e-07
1.23579e-07
1.23657e-07
1.23657e-07
1.23526e-07
1.23288e-07
1.23289e-07
1.23289e-07
1.23288e-07
1.23562e-07
1.23546e-07
1.23664e-07
1.23627e-07
1.23517e-07
1.23579e-07
1.2358e-07
1.23577e-07
1.23579e-07
1.23546e-07
1.23672e-07
1.23658e-07
1.23651e-07
1.23522e-07
1.23657e-07
1.23664e-07
1.22057e-07
1.22045e-07
1.22056e-07
1.2192e-07
1.21916e-07
1.21923e-07
1.21918e-07
1.22081e-07
1.22051e-07
1.22056e-07
1.21918e-07
1.21712e-07
1.21713e-07
1.21713e-07
1.21712e-07
1.2195e-07
1.21941e-07
1.2192e-07
1.21712e-07
1.21717e-07
1.21715e-07
1.21715e-07
1.21717e-07
1.21712e-07
1.22003e-07
1.22082e-07
1.22057e-07
1.21916e-07
1.21713e-07
1.21715e-07
1.21714e-07
1.21714e-07
1.21715e-07
1.21713e-07
1.22004e-07
1.22075e-07
1.22045e-07
1.21923e-07
1.21713e-07
1.21715e-07
1.21714e-07
1.21714e-07
1.21715e-07
1.21713e-07
1.22001e-07
1.21946e-07
1.21918e-07
1.21712e-07
1.21717e-07
1.21715e-07
1.21715e-07
1.21717e-07
1.21712e-07
1.22003e-07
1.22081e-07
1.22081e-07
1.2195e-07
1.21712e-07
1.21713e-07
1.21713e-07
1.21712e-07
1.21986e-07
1.2197e-07
1.22088e-07
1.22051e-07
1.21941e-07
1.22003e-07
1.22004e-07
1.22001e-07
1.22003e-07
1.2197e-07
1.22096e-07
1.22082e-07
1.22075e-07
1.21946e-07
1.22081e-07
1.22088e-07
1.20481e-07
1.20469e-07
1.2048e-07
1.20344e-07
1.2034e-07
1.20347e-07
1.20342e-07
1.20505e-07
1.20475e-07
1.2048e-07
1.20342e-07
1.20136e-07
1.20137e-07
1.20137e-07
1.20136e-07
1.20374e-07
1.20365e-07
1.20344e-07
1.20136e-07
1.20141e-07
1.20139e-07
1.20139e-07
1.20141e-07
1.20136e-07
1.20427e-07
1.20506e-07
1.20481e-07
1.2034e-07
1.20137e-07
1.20139e-07
1.20138e-07
1.20138e-07
1.20139e-07
1.20137e-07
1.20428e-07
1.20499e-07
1.20469e-07
1.20347e-07
1.20137e-07
1.20139e-07
1.20138e-07
1.20138e-07
1.20139e-07
1.20137e-07
1.20425e-07
1.2037e-07
1.20342e-07
1.20136e-07
1.20141e-07
1.20139e-07
1.20139e-07
1.20141e-07
1.20136e-07
1.20427e-07
1.20505e-07
1.20505e-07
1.20374e-07
1.20136e-07
1.20137e-07
1.20137e-07
1.20136e-07
1.2041e-07
1.20394e-07
1.20512e-07
1.20475e-07
1.20365e-07
1.20427e-07
1.20428e-07
1.20425e-07
1.20427e-07
1.20394e-07
1.2052e-07
1.20506e-07
1.20499e-07
1.2037e-07
1.20505e-07
1.20512e-07
1.18905e-07
1.18893e-07
1.18904e-07
1.18767e-07
1.18764e-07
1.18771e-07
1.18766e-07
1.18929e-07
1.18899e-07
1.18904e-07
1.18766e-07
1.1856e-07
1.18561e-07
1.18561e-07
1.1856e-07
1.18798e-07
1.18789e-07
1.18768e-07
1.1856e-07
1.18565e-07
1.18563e-07
1.18563e-07
1.18565e-07
1.1856e-07
1.18851e-07
1.1893e-07
1.18905e-07
1.18764e-07
1.18561e-07
1.18563e-07
1.18562e-07
1.18562e-07
1.18563e-07
1.18561e-07
1.18852e-07
1.18923e-07
1.18893e-07
1.18771e-07
1.18561e-07
1.18563e-07
1.18562e-07
1.18562e-07
1.18563e-07
1.18561e-07
1.18849e-07
1.18794e-07
1.18766e-07
1.1856e-07
1.18565e-07
1.18563e-07
1.18563e-07
1.18565e-07
1.1856e-07
1.18851e-07
1.18929e-07
1.18929e-07
1.18798e-07
1.1856e-07
1.18561e-07
1.18561e-07
1.1856e-07
1.18834e-07
1.18818e-07
1.18936e-07
1.18899e-07
1.18789e-07
1.18851e-07
1.18852e-07
1.18849e-07
1.18851e-07
1.18818e-07
1.18944e-07
1.1893e-07
1.18923e-07
1.18794e-07
1.18929e-07
1.18936e-07
1.17329e-07
1.17317e-07
1.17328e-07
1.17191e-07
1.17188e-07
1.17195e-07
1.1719e-07
1.17353e-07
1.17322e-07
1.17328e-07
1.1719e-07
1.16984e-07
1.16985e-07
1.16985e-07
1.16984e-07
1.17222e-07
1.17213e-07
1.17191e-07
1.16984e-07
1.16989e-07
1.16987e-07
1.16987e-07
1.16989e-07
1.16984e-07
1.17275e-07
1.17354e-07
1.17329e-07
1.17188e-07
1.16985e-07
1.16987e-07
1.16986e-07
1.16986e-07
1.16987e-07
1.16985e-07
1.17276e-07
1.17347e-07
1.17317e-07
1.17195e-07
1.16985e-07
1.16987e-07
1.16986e-07
1.16986e-07
1.16987e-07
1.16985e-07
1.17273e-07
1.17218e-07
1.1719e-07
1.16984e-07
1.16989e-07
1.16987e-07
1.16987e-07
1.16989e-07
1.16984e-07
1.17275e-07
1.17353e-07
1.17353e-07
1.17222e-07
1.16984e-07
1.16985e-07
1.16985e-07
1.16984e-07
1.17258e-07
1.17242e-07
1.17359e-07
1.17322e-07
1.17213e-07
1.17275e-07
1.17276e-07
1.17273e-07
1.17275e-07
1.17242e-07
1.17368e-07
1.17354e-07
1.17347e-07
1.17218e-07
1.17353e-07
1.17359e-07
1.15753e-07
1.15741e-07
1.15752e-07
1.15615e-07
1.15612e-07
1.15619e-07
1.15614e-07
1.15777e-07
1.15746e-07
1.15752e-07
1.15614e-07
1.15408e-07
1.15409e-07
1.15409e-07
1.15408e-07
1.15646e-07
1.15637e-07
1.15615e-07
1.15408e-07
1.15413e-07
1.15411e-07
1.15411e-07
1.15413e-07
1.15408e-07
1.15699e-07
1.15778e-07
1.15753e-07
1.15612e-07
1.15409e-07
1.15411e-07
1.1541e-07
1.1541e-07
1.15411e-07
1.15409e-07
1.157e-07
1.15771e-07
1.15741e-07
1.15619e-07
1.15409e-07
1.15411e-07
1.1541e-07
1.1541e-07
1.15411e-07
1.15409e-07
1.15697e-07
1.15642e-07
1.15614e-07
1.15408e-07
1.15413e-07
1.15411e-07
1.15411e-07
1.15413e-07
1.15408e-07
1.15699e-07
1.15777e-07
1.15777e-07
1.15646e-07
1.15408e-07
1.15409e-07
1.15409e-07
1.15408e-07
1.15682e-07
1.15666e-07
1.15783e-07
1.15746e-07
1.15637e-07
1.15699e-07
1.157e-07
1.15697e-07
1.15699e-07
1.15666e-07
1.15792e-07
1.15778e-07
1.15771e-07
1.15642e-07
1.15777e-07
1.15783e-07
1.14177e-07
1.14165e-07
1.14176e-07
1.14039e-07
1.14036e-07
1.14043e-07
1.14038e-07
1.14201e-07
1.1417e-07
1.14176e-07
1.14038e-07
1.13832e-07
1.13833e-07
1.13833e-07
1.13832e-07
1.1407e-07
1.14061e-07
1.14039e-07
1.13832e-07
1.13837e-07
1.13835e-07
1.13835e-07
1.13837e-07
1.13832e-07
1.14123e-07
1.14202e-07
1.14177e-07
1.14036e-07
1.13833e-07
1.13835e-07
1.13834e-07
1.13834e-07
1.13835e-07
1.13833e-07
1.14124e-07
1.14195e-07
1.14165e-07
1.14043e-07
1.13833e-07
1.13835e-07
1.13834e-07
1.13834e-07
1.13835e-07
1.13833e-07
1.14121e-07
1.14066e-07
1.14038e-07
1.13832e-07
1.13837e-07
1.13835e-07
1.13835e-07
1.13837e-07
1.13832e-07
1.14123e-07
1.14201e-07
1.14201e-07
1.1407e-07
1.13832e-07
1.13833e-07
1.13833e-07
1.13832e-07
1.14106e-07
1.1409e-07
1.14207e-07
1.1417e-07
1.14061e-07
1.14123e-07
1.14124e-07
1.14121e-07
1.14123e-07
1.1409e-07
1.14216e-07
1.14202e-07
1.14195e-07
1.14066e-07
1.14201e-07
1.14207e-07
1.12601e-07
1.12589e-07
1.126e-07
1.12463e-07
1.1246e-07
1.12467e-07
1.12462e-07
1.12625e-07
1.12594e-07
1.126e-07
1.12462e-07
1.12256e-07
1.12257e-07
1.12257e-07
1.12256e-07
1.12494e-07
1.12485e-07
1.12463e-07
1.12256e-07
1.12261e-07
1.12259e-07
1.12259e-07
1.12261e-07
1.12256e-07
1.12547e-07
1.12626e-07
1.12601e-07
1.1246e-07
1.12257e-07
1.12259e-07
1.12258e-07
1.12258e-07
1.12259e-07
1.12257e-07
1.12548e-07
1.12619e-07
1.12589e-07
1.12467e-07
1.12257e-07
1.12259e-07
1.12258e-07
1.12258e-07
1.12259e-07
1.12257e-07
1.12545e-07
1.1249e-07
1.12462e-07
1.12256e-07
1.12261e-07
1.12259e-07
1.12259e-07
1.12261e-07
1.12256e-07
1.12547e-07
1.12625e-07
1.12625e-07
1.12494e-07
1.12256e-07
1.12257e-07
1.12257e-07
1.12256e-07
1.1253e-07
1.12514e-07
1.12631e-07
1.12594e-07
1.12485e-07
1.12547e-07
1.12548e-07
1.12545e-07
1.12547e-07
1.12514e-07
1.1264e-07
1.12626e-07
1.12619e-07
1.1249e-07
1.12625e-07
1.12631e-07
1.11025e-07
1.11013e-07
1.11024e-07
1.10887e-07
1.10884e-07
1.10891e-07
1.10886e-07
1.11049e-07
1.11018e-07
1.11024e-07
1.10886e-07
1.1068e-07
1.10681e-07
1.10681e-07
1.1068e-07
1.10918e-07
1.10909e-07
1.10887e-07
1.1068e-07
1.10685e-07
1.10683e-07
1.10683e-07
1.10685e-07
1.1068e-07
1.10971e-07
1.1105e-07
1.11025e-07
1.10884e-07
1.10681e-07
1.10683e-07
1.10682e-07
1.10682e-07
1.10683e-07
1.10681e-07
1.10972e-07
1.11043e-07
1.11013e-07
1.10891e-07
1.10681e-07
1.10683e-07
1.10682e-07
1.10682e-07
1.10683e-07
1.10681e-07
1.10969e-07
1.10914e-07
1.10886e-07
1.1068e-07
1.10685e-07
1.10683e-07
1.10683e-07
1.10685e-07
1.1068e-07
1.10971e-07
1.11049e-07
1.11049e-07
1.10918e-07
1.1068e-07
1.10681e-07
1.10681e-07
1.1068e-07
1.10954e-07
1.10938e-07
1.11055e-07
1.11018e-07
1.10909e-07
1.10971e-07
1.10972e-07
1.10969e-07
1.10971e-07
1.10938e-07
1.11064e-07
1.1105e-07
1.11043e-07
1.10914e-07
1.11049e-07
1.11055e-07
1.09449e-07
1.09437e-07
1.09448e-07
1.09311e-07
1.09308e-07
1.09315e-07
1.0931e-07
1.09473e-07
1.09442e-07
1.09448e-07
1.0931e-07
1.09104e-07
1.09105e-07
1.09105e-07
1.09104e-07
1.09342e-07
1.09333e-07
1.09311e-07
1.09104e-07
1.09109e-07
1.09107e-07
1.09107e-07
1.09109e-07
1.09104e-07
1.09395e-07
1.09474e-07
1.09449e-07
1.09308e-07
1.09105e-07
1.09107e-07
1.09106e-07
1.09106e-07
1.09107e-07
1.09105e-07
1.09396e-07
1.09467e-07
1.09437e-07
1.09315e-07
1.09105e-07
1.09107e-07
1.09106e-07
1.09106e-07
1.09107e-07
1.09105e-07
1.09393e-07
1.09338e-07
1.0931e-07
1.09104e-07
1.09109e-07
1.09107e-07
1.09107e-07
1.09109e-07
1.09104e-07
1.09394e-07
1.09473e-07
1.09473e-07
1.09342e-07
1.09104e-07
1.09105e-07
1.09105e-07
1.09104e-07
1.09377e-07
1.09362e-07
1.09479e-07
1.09442e-07
1.09333e-07
1.09395e-07
1.09396e-07
1.09393e-07
1.09394e-07
1.09362e-07
1.09488e-07
1.09474e-07
1.09467e-07
1.09338e-07
1.09473e-07
1.09479e-07
1.07872e-07
1.07861e-07
1.07872e-07
1.07735e-07
1.07731e-07
1.07739e-07
1.07734e-07
1.07897e-07
1.07866e-07
1.07872e-07
1.07734e-07
1.07528e-07
1.07529e-07
1.07529e-07
1.07528e-07
1.07766e-07
1.07757e-07
1.07735e-07
1.07528e-07
1.07533e-07
1.07531e-07
1.07531e-07
1.07533e-07
1.07528e-07
1.07819e-07
1.07898e-07
1.07872e-07
1.07731e-07
1.07529e-07
1.07531e-07
1.0753e-07
1.0753e-07
1.07531e-07
1.07529e-07
1.0782e-07
1.07891e-07
1.07861e-07
1.07739e-07
1.07529e-07
1.07531e-07
1.0753e-07
1.0753e-07
1.07531e-07
1.07529e-07
1.07817e-07
1.07762e-07
1.07734e-07
1.07528e-07
1.07533e-07
1.07531e-07
1.07531e-07
1.07533e-07
1.07528e-07
1.07818e-07
1.07897e-07
1.07897e-07
1.07766e-07
1.07528e-07
1.07529e-07
1.07529e-07
1.07528e-07
1.07801e-07
1.07786e-07
1.07903e-07
1.07866e-07
1.07757e-07
1.07819e-07
1.0782e-07
1.07817e-07
1.07818e-07
1.07786e-07
1.07912e-07
1.07898e-07
1.07891e-07
1.07762e-07
1.07897e-07
1.07903e-07
1.06296e-07
1.06285e-07
1.06296e-07
1.06159e-07
1.06155e-07
1.06163e-07
1.06158e-07
1.06321e-07
1.0629e-07
1.06296e-07
1.06158e-07
1.05952e-07
1.05953e-07
1.05953e-07
1.05952e-07
1.0619e-07
1.06181e-07
1.06159e-07
1.05952e-07
1.05957e-07
1.05955e-07
1.05955e-07
1.05957e-07
1.05952e-07
1.06243e-07
1.06322e-07
1.06296e-07
1.06155e-07
1.05953e-07
1.05955e-07
1.05954e-07
1.05954e-07
1.05955e-07
1.05953e-07
1.06244e-07
1.06315e-07
1.06285e-07
1.06163e-07
1.05953e-07
1.05955e-07
1.05954e-07
1.05954e-07
1.05955e-07
1.05953e-07
1.06241e-07
1.06186e-07
1.06158e-07
1.05952e-07
1.05957e-07
1.05955e-07
1.05955e-07
1.05957e-07
1.05952e-07
1.06242e-07
1.06321e-07
1.06321e-07
1.0619e-07
1.05952e-07
1.05953e-07
1.05953e-07
1.05952e-07
1.06225e-07
1.0621e-07
1.06327e-07
1.0629e-07
1.06181e-07
1.06243e-07
1.06244e-07
1.06241e-07
1.06242e-07
1.0621e-07
1.06336e-07
1.06322e-07
1.06315e-07
1.06186e-07
1.06321e-07
1.06327e-07
1.0472e-07
1.04709e-07
1.04719e-07
1.04583e-07
1.04579e-07
1.04587e-07
1.04582e-07
1.04745e-07
1.04714e-07
1.04719e-07
1.04582e-07
1.04376e-07
1.04377e-07
1.04377e-07
1.04376e-07
1.04614e-07
1.04605e-07
1.04583e-07
1.04376e-07
1.04381e-07
1.04379e-07
1.04379e-07
1.04381e-07
1.04376e-07
1.04667e-07
1.04746e-07
1.0472e-07
1.04579e-07
1.04377e-07
1.04379e-07
1.04378e-07
1.04378e-07
1.04379e-07
1.04377e-07
1.04668e-07
1.04738e-07
1.04709e-07
1.04587e-07
1.04377e-07
1.04379e-07
1.04378e-07
1.04378e-07
1.04379e-07
1.04377e-07
1.04664e-07
1.0461e-07
1.04582e-07
1.04376e-07
1.04381e-07
1.04379e-07
1.04379e-07
1.04381e-07
1.04376e-07
1.04666e-07
1.04745e-07
1.04745e-07
1.04614e-07
1.04376e-07
1.04377e-07
1.04377e-07
1.04376e-07
1.04649e-07
1.04634e-07
1.04751e-07
1.04714e-07
1.04605e-07
1.04667e-07
1.04668e-07
1.04664e-07
1.04666e-07
1.04634e-07
1.0476e-07
1.04746e-07
1.04738e-07
1.0461e-07
1.04745e-07
1.04751e-07
1.03144e-07
1.03133e-07
1.03143e-07
1.03007e-07
1.03003e-07
1.03011e-07
1.03006e-07
1.03169e-07
1.03138e-07
1.03143e-07
1.03006e-07
1.028e-07
1.02801e-07
1.02801e-07
1.028e-07
1.03038e-07
1.03029e-07
1.03007e-07
1.028e-07
1.02805e-07
1.02803e-07
1.02803e-07
1.02805e-07
1.028e-07
1.03091e-07
1.0317e-07
1.03144e-07
1.03003e-07
1.02801e-07
1.02803e-07
1.02802e-07
1.02802e-07
1.02803e-07
1.02801e-07
1.03092e-07
1.03162e-07
1.03133e-07
1.03011e-07
1.02801e-07
1.02803e-07
1.02802e-07
1.02802e-07
1.02803e-07
1.02801e-07
1.03088e-07
1.03034e-07
1.03006e-07
1.028e-07
1.02805e-07
1.02803e-07
1.02803e-07
1.02805e-07
1.028e-07
1.0309e-07
1.03169e-07
1.03169e-07
1.03038e-07
1.028e-07
1.02801e-07
1.02801e-07
1.028e-07
1.03073e-07
1.03058e-07
1.03175e-07
1.03138e-07
1.03029e-07
1.03091e-07
1.03092e-07
1.03088e-07
1.0309e-07
1.03058e-07
1.03184e-07
1.0317e-07
1.03162e-07
1.03034e-07
1.03169e-07
1.03175e-07
1.01568e-07
1.01557e-07
1.01567e-07
1.01431e-07
1.01427e-07
1.01435e-07
1.0143e-07
1.01593e-07
1.01562e-07
1.01567e-07
1.01429e-07
1.01224e-07
1.01225e-07
1.01225e-07
1.01224e-07
1.01462e-07
1.01453e-07
1.01431e-07
1.01224e-07
1.01229e-07
1.01227e-07
1.01227e-07
1.01229e-07
1.01224e-07
1.01515e-07
1.01594e-07
1.01568e-07
1.01427e-07
1.01225e-07
1.01227e-07
1.01226e-07
1.01226e-07
1.01227e-07
1.01225e-07
1.01516e-07
1.01586e-07
1.01557e-07
1.01435e-07
1.01225e-07
1.01227e-07
1.01226e-07
1.01226e-07
1.01227e-07
1.01225e-07
1.01512e-07
1.01458e-07
1.0143e-07
1.01224e-07
1.01229e-07
1.01227e-07
1.01227e-07
1.01229e-07
1.01224e-07
1.01514e-07
1.01593e-07
1.01593e-07
1.01462e-07
1.01224e-07
1.01225e-07
1.01225e-07
1.01224e-07
1.01497e-07
1.01482e-07
1.01599e-07
1.01562e-07
1.01453e-07
1.01515e-07
1.01516e-07
1.01512e-07
1.01514e-07
1.01482e-07
1.01608e-07
1.01594e-07
1.01586e-07
1.01458e-07
1.01593e-07
1.01599e-07
9.99923e-08
9.99809e-08
9.99914e-08
9.98552e-08
9.98514e-08
9.9859e-08
9.9854e-08
1.00017e-07
9.99862e-08
9.99914e-08
9.98535e-08
9.96477e-08
9.96485e-08
9.96485e-08
9.96477e-08
9.9886e-08
9.98766e-08
9.98552e-08
9.96477e-08
9.9653e-08
9.96507e-08
9.96507e-08
9.9653e-08
9.96477e-08
9.99389e-08
1.00018e-07
9.99923e-08
9.98514e-08
9.96485e-08
9.96507e-08
9.96496e-08
9.96496e-08
9.96507e-08
9.96485e-08
9.99395e-08
1.0001e-07
9.99809e-08
9.9859e-08
9.96485e-08
9.96507e-08
9.96496e-08
9.96496e-08
9.96507e-08
9.96485e-08
9.99364e-08
9.98819e-08
9.9854e-08
9.96477e-08
9.9653e-08
9.96507e-08
9.96507e-08
9.9653e-08
9.96477e-08
9.99383e-08
1.00017e-07
1.00017e-07
9.9886e-08
9.96477e-08
9.96485e-08
9.96485e-08
9.96477e-08
9.99213e-08
9.99058e-08
1.00023e-07