/*--------------------------------*- C++ -*----------------------------------*\
| =========                 |                                                 |
| \\      /  F ield         | OpenFOAM: The Open Source CFD Toolbox           |
|  \\    /   O peration     | Version:  2312                                  |
|   \\  /    A nd           | Website:  www.openfoam.com                      |
|    \\/     M anipulation  |                                                 |
\*---------------------------------------------------------------------------*/
FoamFile
{
    version     2.0;
    format      ascii;
    arch        "LSB;label=32;scalar=64";
    class       volScalarField;
    location    "400";
    object      epsilon;
}
// * * * * * * * * * * * * * * * * * * * * * * * * * * * * * * * * * * * * * //

dimensions      [0 2 -3 0 0 0 0];

internalField   nonuniform List<scalar> 
172512
(
6.63829e-07
1.18869e-06
1.18876e-06
1.42086e-06
1.4187e-06
1.18823e-06
1.1881e-06
1.41864e-06
1.18802e-06
1.18814e-06
1.18808e-06
1.18822e-06
1.41868e-06
1.18815e-06
1.18809e-06
1.41876e-06
1.4208e-06
1.18884e-06
1.18873e-06
1.42074e-06
1.18863e-06
1.18875e-06
1.18884e-06
1.42076e-06
1.1887e-06
9.56871e-06
4.23915e-06
9.56983e-06
6.62452e-07
6.62447e-07
6.62534e-07
6.62551e-07
1.90988e-05
1.18688e-06
3.64763e-06
4.24153e-06
9.57513e-06
4.24102e-06
9.58016e-06
1.91098e-05
1.91205e-05
4.24144e-06
9.57627e-06
4.24097e-06
9.58135e-06
6.63819e-07
6.63912e-07
6.63923e-07
2.29698e-06
3.64956e-06
9.38022e-07
1.18924e-06
2.2969e-06
3.64984e-06
9.38844e-07
1.91108e-05
1.91213e-05
2.29706e-06
9.3813e-07
3.6495e-06
1.18931e-06
2.29695e-06
9.38934e-07
3.6498e-06
5.65424e-06
5.65601e-06
1.41994e-06
5.65523e-06
5.65699e-06
1.90955e-05
1.90986e-05
1.41742e-06
5.65104e-06
5.65277e-06
1.91067e-05
1.90961e-05
1.91099e-05
1.90994e-05
1.41961e-06
5.65314e-06
5.65486e-06
5.65218e-06
5.65387e-06
1.18694e-06
3.64758e-06
4.23985e-06
9.57447e-06
9.56938e-06
4.24041e-06
4.2398e-06
9.57472e-06
9.5696e-06
4.24036e-06
2.29634e-06
1.1876e-06
3.64872e-06
9.37165e-07
3.64837e-06
9.36287e-07
2.29652e-06
2.29628e-06
1.18741e-06
3.64911e-06
9.37097e-07
3.64879e-06
9.36203e-07
2.29646e-06
1.91092e-05
1.90985e-05
1.41953e-06
5.65464e-06
5.65337e-06
5.65374e-06
1.9108e-05
2.29577e-06
1.18673e-06
3.64806e-06
9.35268e-07
4.23907e-06
9.56925e-06
2.2957e-06
1.18686e-06
9.35291e-07
3.6479e-06
4.23982e-06
9.57561e-06
9.57051e-06
4.24033e-06
2.29627e-06
1.1874e-06
3.64919e-06
9.37091e-07
3.64883e-06
9.3622e-07
2.2964e-06
4.23974e-06
9.57518e-06
9.56997e-06
4.24025e-06
2.29621e-06
1.18753e-06
9.37115e-07
3.64903e-06
9.3624e-07
3.64867e-06
2.29634e-06
3.6488e-06
9.37149e-07
2.29642e-06
9.575e-06
4.24042e-06
9.37173e-07
3.64875e-06
2.2964e-06
9.57493e-06
4.24032e-06
1.41744e-06
5.65248e-06
5.65106e-06
1.90962e-05
1.91101e-05
1.90995e-05
1.41956e-06
5.65457e-06
5.65314e-06
5.65355e-06
5.65212e-06
1.91074e-05
1.90969e-05
9.56909e-06
2.29634e-06
1.18754e-06
9.37248e-07
3.64875e-06
9.36373e-07
3.6484e-06
2.29651e-06
2.29628e-06
1.18748e-06
9.37208e-07
3.64928e-06
9.36336e-07
3.64892e-06
2.29645e-06
4.24e-06
9.5749e-06
9.57015e-06
4.24046e-06
4.24005e-06
9.57583e-06
9.57069e-06
4.24046e-06
1.41963e-06
5.65318e-06
5.65494e-06
5.65393e-06
1.91089e-05
1.91113e-05
1.91007e-05
1.91074e-05
1.91179e-05
1.91106e-05
1.91211e-05
5.65425e-06
5.65593e-06
1.41985e-06
5.65518e-06
5.65689e-06
1.91186e-05
1.91218e-05
1.42191e-06
5.65626e-06
5.65794e-06
4.2415e-06
9.57538e-06
4.24098e-06
9.58041e-06
2.29709e-06
3.64948e-06
9.38058e-07
1.18939e-06
2.29696e-06
3.64978e-06
9.38859e-07
2.29704e-06
3.64992e-06
9.37991e-07
1.18928e-06
2.29691e-06
3.65019e-06
9.38795e-07
4.24213e-06
9.58105e-06
4.24209e-06
9.58127e-06
2.29751e-06
1.18996e-06
3.65053e-06
9.39687e-07
2.29746e-06
1.18984e-06
3.65098e-06
9.39621e-07
5.65583e-06
5.65442e-06
1.41981e-06
5.6567e-06
5.65533e-06
1.91087e-05
1.91191e-05
1.9121e-05
1.42187e-06
5.65786e-06
5.65638e-06
1.91198e-05
2.29695e-06
3.64993e-06
9.37981e-07
1.18918e-06
2.29687e-06
3.65024e-06
9.38781e-07
4.24136e-06
9.57584e-06
4.24089e-06
9.58091e-06
2.29688e-06
9.37999e-07
3.64977e-06
1.1893e-06
2.29681e-06
9.388e-07
3.65008e-06
4.24206e-06
9.58199e-06
2.2974e-06
1.18974e-06
3.65096e-06
9.39601e-07
4.24197e-06
9.58156e-06
2.29733e-06
1.18985e-06
9.39615e-07
3.6508e-06
4.24152e-06
9.57568e-06
4.24112e-06
9.58072e-06
2.29696e-06
9.38062e-07
3.64951e-06
1.1894e-06
2.29688e-06
9.38867e-07
3.64982e-06
4.24143e-06
9.576e-06
4.24096e-06
9.58071e-06
2.29743e-06
1.18979e-06
3.65058e-06
9.39639e-07
4.24221e-06
9.58139e-06
2.2974e-06
1.18996e-06
9.39685e-07
3.65057e-06
4.24205e-06
9.58143e-06
5.65561e-06
5.65421e-06
1.41982e-06
5.6566e-06
5.65518e-06
1.91082e-05
1.91186e-05
1.9122e-05
1.42186e-06
5.65763e-06
5.65626e-06
1.91193e-05
2.29701e-06
9.381e-07
3.65003e-06
1.18925e-06
2.2969e-06
9.389e-07
3.65035e-06
4.24157e-06
9.57596e-06
4.24115e-06
9.58061e-06
4.24158e-06
9.57649e-06
4.24121e-06
9.58155e-06
2.29747e-06
1.18986e-06
9.39749e-07
3.65054e-06
2.29743e-06
1.18982e-06
9.3972e-07
3.65108e-06
4.24223e-06
9.58166e-06
4.2423e-06
9.5822e-06
1.91096e-05
1.91201e-05
1.9112e-05
1.91224e-05
1.42199e-06
5.65629e-06
5.65804e-06
1.91208e-05
1.91231e-05
2.27677e-05
7.2457e-06
9.56648e-06
7.24591e-06
2.27746e-05
1.26587e-05
4.23922e-06
4.88477e-06
1.12499e-05
4.88488e-06
1.12476e-05
1.26611e-05
2.27673e-05
7.24552e-06
9.56756e-06
7.24573e-06
2.27742e-05
1.90938e-05
1.26741e-05
4.24158e-06
1.12644e-05
4.88744e-06
1.12614e-05
4.88753e-06
1.26766e-05
2.2794e-05
7.24957e-06
9.5774e-06
2.27871e-05
7.24933e-06
1.26728e-05
4.24098e-06
1.12579e-05
4.88691e-06
1.26703e-05
1.12608e-05
4.88681e-06
2.27935e-05
7.25052e-06
9.57801e-06
7.25077e-06
2.28004e-05
1.91149e-05
1.91154e-05
1.26741e-05
4.24152e-06
4.88734e-06
1.1264e-05
4.88746e-06
1.12618e-05
1.26765e-05
2.27937e-05
7.24938e-06
9.5785e-06
2.27868e-05
7.24915e-06
1.26727e-05
4.24089e-06
4.88684e-06
1.12583e-05
1.26703e-05
4.88672e-06
1.12605e-05
2.27933e-05
7.25033e-06
9.57915e-06
7.25057e-06
2.28001e-05
1.91157e-05
1.91164e-05
9.97178e-06
2.24249e-05
2.24242e-05
2.24186e-05
2.2418e-05
9.97143e-06
4.70573e-06
2.97603e-06
9.93968e-06
5.65419e-06
4.70612e-06
2.97583e-06
9.94224e-06
4.71158e-06
2.97724e-06
9.94477e-06
5.65597e-06
4.71195e-06
2.97703e-06
9.94666e-06
9.96972e-06
2.24127e-05
2.24121e-05
9.97007e-06
2.2419e-05
2.24183e-05
4.70671e-06
9.94512e-06
5.65528e-06
2.9761e-06
2.97632e-06
9.94259e-06
4.70632e-06
4.71253e-06
9.94955e-06
5.65703e-06
2.9773e-06
2.97751e-06
9.94769e-06
4.71216e-06
1.90905e-05
1.90937e-05
9.96485e-06
2.24006e-05
2.24e-05
2.23943e-05
2.23936e-05
9.9645e-06
4.70413e-06
9.93287e-06
5.6511e-06
2.97485e-06
9.9307e-06
4.70372e-06
2.97506e-06
4.70997e-06
9.93781e-06
5.65281e-06
2.97599e-06
9.93588e-06
4.70958e-06
2.97619e-06
1.91018e-05
1.91011e-05
1.9105e-05
1.91043e-05
9.96624e-06
2.24002e-05
2.23996e-05
9.96659e-06
2.24065e-05
2.24059e-05
4.70535e-06
2.97547e-06
5.65322e-06
9.93854e-06
9.93665e-06
2.97568e-06
4.70492e-06
4.71119e-06
2.97661e-06
5.65491e-06
9.94365e-06
9.94177e-06
2.97682e-06
4.71078e-06
4.70433e-06
9.93376e-06
2.97538e-06
5.65211e-06
4.70475e-06
9.93565e-06
2.97516e-06
4.71019e-06
9.93887e-06
2.97652e-06
5.65383e-06
4.71059e-06
9.94072e-06
2.97631e-06
9.96832e-06
2.24124e-05
2.24118e-05
2.24061e-05
2.24055e-05
9.96796e-06
1.26651e-05
1.12508e-05
4.88561e-06
4.23982e-06
1.26625e-05
1.12538e-05
4.88553e-06
2.27806e-05
9.57229e-06
7.24814e-06
2.27875e-05
7.24837e-06
2.27811e-05
7.24715e-06
9.57161e-06
2.27742e-05
7.24693e-06
1.26665e-05
4.24044e-06
1.12573e-05
4.88618e-06
1.2669e-05
1.12544e-05
4.88627e-06
1.26659e-05
1.12508e-05
4.88549e-06
4.23977e-06
1.26622e-05
1.12537e-05
4.88543e-06
2.27811e-05
9.5725e-06
7.24683e-06
7.24703e-06
2.27881e-05
2.27816e-05
7.2458e-06
9.57181e-06
2.27746e-05
7.24561e-06
1.2666e-05
4.2404e-06
1.12573e-05
4.8861e-06
1.12543e-05
4.88616e-06
1.26697e-05
1.91042e-05
1.91036e-05
4.71129e-06
2.97658e-06
5.65479e-06
9.94374e-06
2.97679e-06
9.9412e-06
4.71087e-06
4.70548e-06
2.97552e-06
5.65343e-06
9.93916e-06
9.93727e-06
2.97572e-06
4.70505e-06
2.97648e-06
5.65359e-06
2.97628e-06
9.96857e-06
2.24125e-05
2.24134e-05
2.24062e-05
2.24069e-05
9.9681e-06
1.91028e-05
1.26586e-05
4.23913e-06
1.12498e-05
4.88455e-06
1.12475e-05
4.88464e-06
1.26611e-05
2.27669e-05
7.2439e-06
9.56723e-06
7.2441e-06
2.27739e-05
1.26651e-05
4.88555e-06
1.12512e-05
4.23975e-06
1.26625e-05
4.88543e-06
1.12535e-05
2.27803e-05
9.57341e-06
7.24795e-06
2.27873e-05
7.24818e-06
2.27808e-05
7.24696e-06
9.57273e-06
2.27738e-05
7.24674e-06
1.26665e-05
4.24041e-06
4.88608e-06
1.1257e-05
1.26689e-05
4.8862e-06
1.12548e-05
1.26651e-05
1.12511e-05
4.88531e-06
4.23967e-06
1.26625e-05
1.12533e-05
4.88522e-06
2.278e-05
9.57296e-06
7.24634e-06
7.24656e-06
2.27869e-05
2.27804e-05
7.24534e-06
9.57226e-06
2.27735e-05
7.24512e-06
1.26665e-05
4.24032e-06
1.12569e-05
4.88587e-06
1.12547e-05
4.88597e-06
1.26689e-05
2.27791e-05
9.57274e-06
7.24757e-06
7.24799e-06
2.27862e-05
1.2665e-05
4.24055e-06
4.88601e-06
1.1257e-05
4.88626e-06
1.12548e-05
1.2669e-05
2.27803e-05
9.57307e-06
7.24625e-06
7.24648e-06
2.27872e-05
1.26659e-05
4.24039e-06
1.12569e-05
4.88589e-06
1.12547e-05
4.88599e-06
1.26695e-05
9.9642e-06
2.23994e-05
2.23998e-05
2.23931e-05
2.23935e-05
9.96384e-06
4.70983e-06
9.93748e-06
5.65249e-06
2.97591e-06
9.9349e-06
2.97608e-06
4.70948e-06
4.70386e-06
9.93273e-06
5.65107e-06
2.97479e-06
2.97497e-06
9.93014e-06
4.70352e-06
1.90912e-05
1.91051e-05
1.91044e-05
9.96558e-06
2.23991e-05
2.23994e-05
9.96595e-06
2.24054e-05
2.24057e-05
4.71106e-06
2.97653e-06
5.65459e-06
9.94334e-06
2.9767e-06
9.94082e-06
4.71069e-06
4.70509e-06
2.97539e-06
5.65317e-06
9.93859e-06
9.93606e-06
2.97559e-06
4.70473e-06
4.71009e-06
9.93786e-06
2.9764e-06
5.65354e-06
2.97623e-06
4.71046e-06
9.94042e-06
4.70413e-06
9.9331e-06
2.97529e-06
5.65209e-06
4.70449e-06
9.93566e-06
2.9751e-06
9.96769e-06
2.24113e-05
2.24116e-05
2.2405e-05
2.24054e-05
9.96731e-06
1.91025e-05
1.91018e-05
9.56721e-06
1.26646e-05
4.88549e-06
1.12511e-05
4.23989e-06
1.26621e-05
4.88541e-06
1.12534e-05
2.27791e-05
9.57305e-06
7.24759e-06
7.24781e-06
2.2786e-05
2.27795e-05
7.24659e-06
9.57199e-06
2.27726e-05
7.24637e-06
1.2666e-05
4.24059e-06
4.88604e-06
1.12569e-05
4.88614e-06
1.12546e-05
1.26685e-05
1.26652e-05
4.88557e-06
1.12505e-05
4.23988e-06
1.26626e-05
4.8854e-06
1.12536e-05
2.27814e-05
9.57362e-06
7.2467e-06
7.24695e-06
2.27884e-05
2.27819e-05
7.24573e-06
9.57294e-06
2.27749e-05
7.24549e-06
1.26666e-05
4.24064e-06
4.88605e-06
1.12571e-05
4.88622e-06
1.12541e-05
1.26691e-05
9.96625e-06
2.24072e-05
2.24065e-05
4.70551e-06
2.97554e-06
5.6532e-06
9.93932e-06
4.70514e-06
2.97574e-06
9.93679e-06
4.71135e-06
2.97674e-06
5.65498e-06
9.94379e-06
4.711e-06
2.97694e-06
9.94184e-06
4.70451e-06
5.65209e-06
2.97522e-06
9.93636e-06
4.71037e-06
2.97663e-06
5.6539e-06
2.97645e-06
9.94102e-06
9.96835e-06
2.24131e-05
2.24124e-05
9.968e-06
2.24068e-05
2.24062e-05
1.9104e-05
1.91033e-05
1.91063e-05
1.91056e-05
1.91124e-05
1.9113e-05
1.91155e-05
1.91162e-05
9.97174e-06
2.24241e-05
2.24235e-05
2.24179e-05
2.24173e-05
9.97136e-06
4.7055e-06
2.97597e-06
9.93957e-06
5.65417e-06
4.70594e-06
9.94143e-06
2.97575e-06
4.71136e-06
2.97711e-06
9.94469e-06
5.65589e-06
4.71178e-06
9.94654e-06
2.97689e-06
9.96967e-06
2.2412e-05
2.24114e-05
9.97004e-06
2.24183e-05
2.24177e-05
4.70651e-06
9.94429e-06
5.65526e-06
2.97601e-06
9.94246e-06
4.70606e-06
2.97624e-06
4.71236e-06
9.94939e-06
5.65694e-06
2.97715e-06
9.94756e-06
4.71193e-06
2.97737e-06
1.91234e-05
1.91267e-05
9.97304e-06
2.24237e-05
2.24231e-05
9.97343e-06
2.24299e-05
2.24294e-05
4.70661e-06
9.94528e-06
2.97649e-06
5.65617e-06
4.70707e-06
9.94716e-06
2.97626e-06
4.71248e-06
9.9504e-06
2.97762e-06
5.65789e-06
4.71292e-06
9.95224e-06
2.97739e-06
1.26736e-05
4.24154e-06
1.12643e-05
4.88738e-06
1.12614e-05
4.88743e-06
1.26773e-05
2.27945e-05
7.24824e-06
9.57763e-06
2.27876e-05
7.24804e-06
1.26735e-05
4.24094e-06
1.12578e-05
4.8868e-06
1.12608e-05
1.26699e-05
4.88675e-06
2.27941e-05
7.24923e-06
9.57825e-06
7.24944e-06
2.28009e-05
1.26804e-05
1.12649e-05
4.88815e-06
4.24208e-06
1.26779e-05
1.12678e-05
4.88805e-06
2.28067e-05
7.25195e-06
9.58289e-06
2.27999e-05
7.2517e-06
1.26811e-05
1.12648e-05
4.88805e-06
4.24204e-06
1.26775e-05
1.12677e-05
4.88799e-06
2.28073e-05
7.25063e-06
9.58315e-06
2.28005e-05
7.25042e-06
9.97181e-06
2.24239e-05
2.24246e-05
2.24177e-05
2.24184e-05
9.97142e-06
4.71145e-06
2.97708e-06
9.94409e-06
5.65568e-06
9.94663e-06
4.71182e-06
2.97688e-06
4.7056e-06
2.97601e-06
9.94017e-06
5.65435e-06
2.97578e-06
4.70602e-06
9.94196e-06
9.96976e-06
2.24119e-05
2.24127e-05
2.24181e-05
9.97015e-06
2.24189e-05
4.7124e-06
9.94947e-06
5.65685e-06
2.97715e-06
9.94698e-06
2.97736e-06
4.71202e-06
4.70661e-06
9.94482e-06
5.6554e-06
2.97604e-06
2.97628e-06
9.94299e-06
4.70618e-06
1.91136e-05
1.91143e-05
1.9126e-05
9.97309e-06
2.24235e-05
2.24242e-05
9.97348e-06
2.24297e-05
2.24304e-05
4.71256e-06
9.94985e-06
2.97762e-06
5.6577e-06
2.9774e-06
4.71296e-06
9.95227e-06
4.70673e-06
9.94583e-06
2.97653e-06
5.65631e-06
4.70717e-06
9.94766e-06
2.97629e-06
1.91247e-05
1.26741e-05
4.24144e-06
1.1264e-05
4.88712e-06
1.12617e-05
4.88723e-06
1.26765e-05
2.27934e-05
7.24778e-06
9.57806e-06
2.27865e-05
7.24755e-06
1.26727e-05
4.24081e-06
1.12582e-05
4.88661e-06
1.12604e-05
1.26703e-05
4.8865e-06
2.2793e-05
7.24875e-06
9.57872e-06
7.24898e-06
2.27999e-05
1.26803e-05
4.88807e-06
1.12653e-05
4.24198e-06
1.26779e-05
4.88794e-06
1.12676e-05
2.28065e-05
7.25176e-06
9.58419e-06
2.27997e-05
7.25151e-06
1.26806e-05
1.1265e-05
4.88783e-06
4.2419e-06
1.26778e-05
1.12676e-05
4.88772e-06
2.28063e-05
7.25017e-06
9.58377e-06
2.27994e-05
7.24993e-06
1.26729e-05
4.24167e-06
4.88725e-06
1.1264e-05
4.88751e-06
1.12618e-05
1.26765e-05
2.27927e-05
7.2492e-06
9.5779e-06
7.24876e-06
2.27855e-05
1.26726e-05
4.24098e-06
4.88689e-06
1.12583e-05
4.88663e-06
1.26689e-05
1.12605e-05
2.27919e-05
7.24993e-06
9.57855e-06
7.25037e-06
2.27991e-05
1.26739e-05
4.24151e-06
1.12639e-05
4.88714e-06
1.12617e-05
4.88726e-06
1.26768e-05
2.27937e-05
7.24769e-06
9.57781e-06
2.27868e-05
7.24746e-06
1.26732e-05
4.24088e-06
1.12582e-05
4.88663e-06
1.26698e-05
1.12604e-05
4.88653e-06
2.27932e-05
7.24865e-06
9.57887e-06
7.24889e-06
2.28001e-05
1.268e-05
4.88813e-06
1.12653e-05
4.24206e-06
1.26771e-05
4.88786e-06
1.12675e-05
2.28054e-05
7.25155e-06
9.58357e-06
2.27983e-05
7.2511e-06
1.26804e-05
1.12652e-05
4.88787e-06
4.24196e-06
1.26779e-05
1.12674e-05
4.88775e-06
2.28065e-05
7.25008e-06
9.5837e-06
2.27996e-05
7.24983e-06
9.9711e-06
2.24231e-05
2.24234e-05
2.24168e-05
2.24172e-05
9.97071e-06
4.71127e-06
2.97698e-06
9.94373e-06
5.65559e-06
9.94614e-06
4.71165e-06
2.97681e-06
4.70531e-06
2.97588e-06
9.939e-06
5.65416e-06
2.97567e-06
4.70569e-06
9.94152e-06
9.96901e-06
2.2411e-05
2.24113e-05
2.24172e-05
9.9694e-06
2.24175e-05
4.71223e-06
9.9488e-06
5.65663e-06
2.97707e-06
9.94689e-06
2.97725e-06
4.71183e-06
4.70626e-06
9.94439e-06
5.65524e-06
2.97593e-06
2.97615e-06
9.94189e-06
4.70587e-06
1.91131e-05
1.91138e-05
1.91269e-05
9.97239e-06
2.24227e-05
2.2423e-05
9.97279e-06
2.24289e-05
2.24293e-05
4.71237e-06
9.94974e-06
2.97749e-06
5.65759e-06
2.97731e-06
4.71278e-06
9.9516e-06
4.70641e-06
9.94474e-06
2.97639e-06
5.65619e-06
4.70682e-06
9.94727e-06
2.97617e-06
1.91242e-05
1.26735e-05
4.2417e-06
4.88726e-06
1.12639e-05
4.88737e-06
1.12617e-05
1.2676e-05
2.27924e-05
7.24901e-06
9.57778e-06
7.24879e-06
2.27855e-05
1.26722e-05
4.24103e-06
4.88676e-06
1.12582e-05
4.88666e-06
1.26698e-05
1.12604e-05
2.2792e-05
7.24997e-06
9.57881e-06
7.25021e-06
2.27988e-05
1.26741e-05
4.24176e-06
4.88731e-06
1.12642e-05
4.88749e-06
1.12612e-05
1.26767e-05
2.27948e-05
7.24816e-06
9.57871e-06
2.27879e-05
7.24791e-06
1.26729e-05
4.24103e-06
4.88687e-06
1.12577e-05
1.26704e-05
4.88669e-06
1.12607e-05
2.27944e-05
7.2491e-06
9.57936e-06
7.24935e-06
2.28013e-05
1.26798e-05
4.88797e-06
1.12649e-05
4.2421e-06
1.26774e-05
4.88786e-06
1.12676e-05
2.28052e-05
7.25139e-06
9.58345e-06
2.27983e-05
7.25115e-06
1.26805e-05
4.88811e-06
1.12646e-05
4.24211e-06
1.2678e-05
4.88793e-06
1.12676e-05
2.28077e-05
7.25054e-06
9.58441e-06
2.28008e-05
7.25028e-06
1.91145e-05
1.91152e-05
1.91169e-05
1.91175e-05
9.97314e-06
2.24245e-05
2.24238e-05
9.97349e-06
2.24307e-05
2.243e-05
4.70688e-06
9.94546e-06
2.97659e-06
5.65625e-06
4.70729e-06
2.97636e-06
9.948e-06
4.71272e-06
9.95056e-06
2.97777e-06
5.65799e-06
4.71309e-06
2.97756e-06
9.9524e-06
1.91257e-05
1.9128e-05
6.59643e-07
4.50981e-07
4.56188e-07
4.56101e-07
6.65119e-07
4.57804e-07
4.57721e-07
2.50714e-07
2.48883e-07
2.82918e-06
1.96995e-06
1.97018e-06
1.41936e-06
2.82951e-06
1.96922e-06
1.96945e-06
2.82917e-06
1.42021e-06
1.96894e-06
1.96913e-06
1.96966e-06
1.96987e-06
2.82883e-06
2.82922e-06
1.42012e-06
1.96903e-06
1.96894e-06
1.96976e-06
1.96967e-06
2.82885e-06
2.82906e-06
1.42017e-06
1.969e-06
1.96889e-06
1.96973e-06
1.96962e-06
2.82873e-06
2.82928e-06
1.42026e-06
1.96895e-06
1.96919e-06
2.82896e-06
1.96968e-06
1.96992e-06
2.82904e-06
1.96991e-06
1.97012e-06
1.41929e-06
2.82939e-06
1.96919e-06
1.96938e-06
2.82908e-06
1.97003e-06
1.96994e-06
1.41925e-06
1.9692e-06
2.82943e-06
1.9693e-06
2.82894e-06
1.96998e-06
1.96987e-06
1.41926e-06
1.96914e-06
2.82928e-06
1.96925e-06
6.59732e-07
4.51099e-07
6.61085e-07
4.545e-07
4.54415e-07
4.52814e-07
4.52726e-07
2.45184e-07
2.47044e-07
6.61078e-07
4.54484e-07
4.54452e-07
4.52804e-07
4.5277e-07
2.45201e-07
2.47046e-07
6.61171e-07
4.54538e-07
4.54536e-07
4.52853e-07
4.52861e-07
2.45263e-07
2.47107e-07
6.61189e-07
4.54587e-07
4.5453e-07
4.52896e-07
4.52859e-07
2.45283e-07
2.47125e-07
3.64781e-06
2.22362e-06
2.22415e-06
4.56177e-07
4.56143e-07
6.65103e-07
4.57787e-07
4.57758e-07
2.50714e-07
2.48901e-07
4.56233e-07
4.56229e-07
6.65203e-07
4.57845e-07
4.57841e-07
2.50773e-07
2.48961e-07
4.56277e-07
4.56227e-07
6.65217e-07
4.57893e-07
4.57837e-07
2.50792e-07
2.48982e-07
6.66433e-07
4.59433e-07
4.59349e-07
2.52517e-07
6.66416e-07
4.59422e-07
4.59383e-07
2.52539e-07
6.66508e-07
4.59477e-07
4.5947e-07
2.52597e-07
6.66532e-07
4.59521e-07
4.59472e-07
2.52619e-07
1.66817e-06
2.29718e-06
2.54212e-06
1.54548e-06
2.54245e-06
1.54652e-06
1.66598e-06
1.8449e-06
2.22491e-06
3.02438e-06
3.64933e-06
1.84687e-06
2.22432e-06
3.02393e-06
1.66569e-06
2.29671e-06
2.54219e-06
1.54615e-06
1.66788e-06
2.5419e-06
1.54512e-06
1.84723e-06
3.02426e-06
3.65008e-06
2.2245e-06
2.22509e-06
3.02471e-06
1.84524e-06
1.66782e-06
2.29722e-06
1.54565e-06
2.54229e-06
1.54652e-06
2.54249e-06
1.66655e-06
1.845e-06
2.22486e-06
3.02441e-06
3.64929e-06
1.84682e-06
2.22429e-06
3.02401e-06
1.66626e-06
2.29679e-06
1.54614e-06
2.54225e-06
1.66751e-06
1.54528e-06
2.54204e-06
1.8472e-06
3.02434e-06
3.65003e-06
2.22447e-06
2.22505e-06
3.02474e-06
1.84531e-06
2.82973e-06
1.42144e-06
1.96946e-06
1.96968e-06
1.9702e-06
1.97043e-06
2.82938e-06
2.82868e-06
1.41896e-06
1.96836e-06
1.96855e-06
2.82835e-06
1.96908e-06
1.96928e-06
2.8286e-06
1.41808e-06
1.96938e-06
1.96959e-06
2.82894e-06
1.96866e-06
1.96886e-06
1.84534e-06
3.02307e-06
3.64778e-06
2.22367e-06
3.02344e-06
2.2242e-06
1.84434e-06
1.66563e-06
2.54178e-06
1.5453e-06
2.2962e-06
1.66686e-06
2.54155e-06
1.54441e-06
1.84615e-06
2.22416e-06
3.64894e-06
3.02382e-06
2.2247e-06
3.02421e-06
1.84511e-06
1.84473e-06
3.02383e-06
2.22446e-06
3.64817e-06
2.22392e-06
1.84576e-06
3.02345e-06
1.66719e-06
2.29666e-06
2.54183e-06
1.54486e-06
2.54207e-06
1.54574e-06
1.66597e-06
1.66552e-06
2.54161e-06
1.54524e-06
2.29614e-06
1.66676e-06
2.5414e-06
1.54436e-06
1.84603e-06
2.22436e-06
3.64937e-06
3.02351e-06
3.02388e-06
2.22491e-06
1.84498e-06
1.84462e-06
3.0235e-06
2.22467e-06
3.64854e-06
1.84564e-06
3.02313e-06
2.22412e-06
1.66709e-06
2.29661e-06
2.5417e-06
1.54481e-06
2.5419e-06
1.54569e-06
1.66585e-06
1.41799e-06
1.9695e-06
1.96876e-06
1.66684e-06
2.29595e-06
2.54114e-06
1.5438e-06
2.54138e-06
1.54483e-06
1.66465e-06
1.84572e-06
3.02299e-06
3.64824e-06
2.22394e-06
3.02343e-06
2.22447e-06
1.84383e-06
1.66682e-06
2.29588e-06
1.54376e-06
2.54097e-06
1.54478e-06
2.54119e-06
1.66444e-06
1.84555e-06
3.02259e-06
3.64809e-06
2.22382e-06
3.02299e-06
1.84362e-06
2.22435e-06
1.66504e-06
2.54169e-06
1.54529e-06
2.2961e-06
1.66733e-06
2.54143e-06
1.54428e-06
1.84649e-06
2.22442e-06
3.64939e-06
3.02375e-06
2.22498e-06
3.02419e-06
1.84467e-06
1.84428e-06
3.02383e-06
2.22474e-06
3.64864e-06
2.2242e-06
1.8462e-06
3.02339e-06
1.66768e-06
2.29658e-06
2.54171e-06
1.54469e-06
2.54197e-06
1.54571e-06
1.66542e-06
1.66495e-06
1.54525e-06
2.5415e-06
2.29603e-06
1.66732e-06
1.54424e-06
2.54127e-06
1.84631e-06
2.2243e-06
3.64923e-06
3.02336e-06
3.02372e-06
2.22484e-06
1.84483e-06
1.84411e-06
3.02337e-06
2.22461e-06
3.64847e-06
1.84612e-06
3.02299e-06
2.22407e-06
1.66756e-06
2.29652e-06
1.54465e-06
2.54154e-06
1.54567e-06
2.54178e-06
1.66536e-06
1.84645e-06
2.22412e-06
3.64902e-06
3.0236e-06
1.84461e-06
2.22468e-06
3.02403e-06
1.66756e-06
2.29661e-06
2.54166e-06
1.54473e-06
1.66547e-06
2.54192e-06
1.54576e-06
1.8464e-06
2.22411e-06
3.64895e-06
3.02329e-06
3.02373e-06
2.22465e-06
1.84461e-06
1.66752e-06
2.29659e-06
1.54471e-06
2.54159e-06
1.54574e-06
2.54186e-06
1.66544e-06
2.82858e-06
1.41893e-06
1.96843e-06
1.96833e-06
1.96906e-06
1.96916e-06
2.82825e-06
2.8285e-06
1.41807e-06
1.96946e-06
1.96935e-06
1.96873e-06
2.82883e-06
1.96863e-06
1.66558e-06
1.5453e-06
2.54171e-06
2.2962e-06
1.66681e-06
1.54445e-06
2.54149e-06
1.84599e-06
2.22409e-06
3.64896e-06
3.02367e-06
1.8446e-06
2.22464e-06
3.02405e-06
1.84474e-06
3.02368e-06
2.22441e-06
3.6482e-06
1.84573e-06
2.22387e-06
3.02331e-06
1.66712e-06
2.29666e-06
1.54487e-06
2.54177e-06
1.66592e-06
1.54573e-06
2.54199e-06
1.66547e-06
1.54525e-06
2.54161e-06
2.29614e-06
1.66669e-06
1.54439e-06
2.54137e-06
1.84604e-06
2.22448e-06
3.64948e-06
3.02353e-06
3.02389e-06
2.22503e-06
1.84498e-06
1.84464e-06
3.02352e-06
2.22479e-06
3.64873e-06
1.84567e-06
3.02315e-06
2.22425e-06
1.66703e-06
2.2966e-06
1.54482e-06
2.54166e-06
1.54568e-06
2.54189e-06
1.66582e-06
2.82872e-06
1.41813e-06
1.96964e-06
1.96867e-06
1.96892e-06
2.82959e-06
1.42137e-06
1.96942e-06
1.96961e-06
2.82924e-06
1.97015e-06
1.97036e-06
2.82941e-06
1.42039e-06
1.97037e-06
1.97057e-06
2.82977e-06
1.96964e-06
1.96982e-06
1.66782e-06
2.29725e-06
2.54237e-06
1.54564e-06
2.54259e-06
1.54653e-06
1.66657e-06
1.84544e-06
2.22493e-06
3.02456e-06
3.64926e-06
3.02417e-06
1.84651e-06
2.22437e-06
1.66627e-06
2.29681e-06
2.54234e-06
1.54615e-06
2.5421e-06
1.66752e-06
1.54526e-06
1.84685e-06
3.0245e-06
3.65001e-06
2.22455e-06
3.0249e-06
2.22512e-06
1.84579e-06
1.66773e-06
2.2972e-06
2.54223e-06
1.54559e-06
2.54244e-06
1.54647e-06
1.66645e-06
1.84531e-06
2.22514e-06
3.02423e-06
3.64966e-06
1.84637e-06
3.02386e-06
2.22457e-06
1.66615e-06
2.29676e-06
2.54218e-06
1.54609e-06
1.66742e-06
2.54196e-06
1.54521e-06
1.8467e-06
3.02421e-06
3.65045e-06
2.22476e-06
3.02457e-06
1.84565e-06
2.22534e-06
1.6668e-06
2.54282e-06
1.54688e-06
2.29734e-06
1.66809e-06
2.54264e-06
1.54599e-06
1.8461e-06
3.02523e-06
2.2253e-06
3.65029e-06
2.22472e-06
1.84718e-06
3.02482e-06
1.66668e-06
2.54266e-06
1.54683e-06
2.29729e-06
1.668e-06
2.54248e-06
1.54594e-06
1.84596e-06
3.0249e-06
2.22552e-06
3.6507e-06
1.84704e-06
3.02453e-06
2.22493e-06
2.82964e-06
1.42132e-06
1.96953e-06
1.96943e-06
1.97018e-06
1.97028e-06
2.82927e-06
2.82945e-06
1.42035e-06
1.97049e-06
1.97039e-06
1.96974e-06
2.82982e-06
1.96964e-06
1.66819e-06
2.29714e-06
2.54218e-06
1.54544e-06
2.54253e-06
1.54648e-06
1.66599e-06
1.84492e-06
2.22519e-06
3.02454e-06
3.64972e-06
3.0241e-06
1.84682e-06
2.22462e-06
1.66572e-06
2.29669e-06
2.54224e-06
1.54611e-06
2.54195e-06
1.66789e-06
1.54509e-06
1.84723e-06
3.02442e-06
3.65045e-06
2.2248e-06
3.02487e-06
2.22538e-06
1.8453e-06
1.66803e-06
2.29707e-06
1.5454e-06
2.54202e-06
1.54643e-06
2.54229e-06
1.66591e-06
1.84522e-06
2.22505e-06
3.02405e-06
3.64956e-06
1.84628e-06
3.0237e-06
2.2245e-06
1.66564e-06
2.29662e-06
1.54606e-06
2.54204e-06
1.66776e-06
1.54504e-06
2.54179e-06
1.84661e-06
3.02402e-06
3.6503e-06
2.22468e-06
3.02438e-06
1.84555e-06
2.22524e-06
1.66619e-06
2.54281e-06
1.54683e-06
2.2972e-06
1.66844e-06
2.54238e-06
1.54578e-06
1.84558e-06
3.02518e-06
2.22555e-06
3.65074e-06
2.22497e-06
1.84753e-06
3.02473e-06
1.66611e-06
1.54678e-06
2.54252e-06
2.29713e-06
1.66828e-06
1.54574e-06
2.54223e-06
1.84583e-06
3.02469e-06
2.22541e-06
3.65058e-06
1.8469e-06
3.02432e-06
2.22484e-06
1.66807e-06
2.29715e-06
1.54548e-06
2.54207e-06
1.5465e-06
2.54239e-06
1.66596e-06
1.84485e-06
2.22488e-06
3.02409e-06
3.64929e-06
2.22432e-06
1.8467e-06
3.02365e-06
1.66563e-06
2.29669e-06
1.54613e-06
2.54212e-06
1.54512e-06
1.66779e-06
2.54185e-06
1.84708e-06
3.02398e-06
3.65005e-06
2.22451e-06
2.22508e-06
3.02442e-06
1.84524e-06
1.66615e-06
2.54273e-06
1.54689e-06
2.29723e-06
1.66839e-06
2.54232e-06
1.5458e-06
1.84551e-06
3.02502e-06
2.22526e-06
3.65034e-06
1.84749e-06
2.22466e-06
3.02457e-06
1.66615e-06
1.54686e-06
2.54266e-06
2.29721e-06
1.66835e-06
1.54581e-06
2.54228e-06
1.84553e-06
3.02474e-06
2.22526e-06
3.65033e-06
1.84741e-06
3.02429e-06
2.22468e-06
2.82948e-06
1.42132e-06
1.96947e-06
1.96936e-06
1.9701e-06
1.97021e-06
2.82913e-06
2.8293e-06
1.42035e-06
1.97042e-06
1.97031e-06
1.96967e-06
2.82966e-06
1.96957e-06
1.6677e-06
2.29717e-06
1.54559e-06
2.54219e-06
1.54647e-06
2.54241e-06
1.66645e-06
1.84532e-06
2.22525e-06
3.02425e-06
3.64983e-06
2.22469e-06
1.84637e-06
3.02387e-06
1.66615e-06
2.29674e-06
1.54609e-06
2.54217e-06
1.54522e-06
1.66739e-06
2.54192e-06
1.8467e-06
3.0242e-06
3.65057e-06
2.22488e-06
2.22545e-06
3.02458e-06
1.84566e-06
1.66675e-06
1.54686e-06
2.54271e-06
2.29731e-06
1.66806e-06
1.546e-06
2.54253e-06
1.84561e-06
3.02506e-06
2.22522e-06
3.65031e-06
1.84748e-06
2.22463e-06
3.02465e-06
1.66668e-06
1.54682e-06
2.54264e-06
2.29726e-06
1.66798e-06
1.54594e-06
2.54245e-06
1.84597e-06
3.02491e-06
2.22563e-06
3.65086e-06
1.84704e-06
3.02452e-06
2.22505e-06
2.82957e-06
1.42049e-06
1.97042e-06
1.97065e-06
2.82992e-06
1.96968e-06
1.96991e-06
6.68915e-07
1.19079e-06
1.19086e-06
1.42302e-06
6.73452e-07
1.19243e-06
1.19248e-06
1.4248e-06
6.77489e-07
1.19366e-06
1.1937e-06
1.42624e-06
6.81052e-07
1.19451e-06
1.19454e-06
1.42736e-06
6.84175e-07
1.19502e-06
1.19504e-06
1.4282e-06
6.86895e-07
1.19523e-06
1.19525e-06
1.42885e-06
6.89246e-07
1.19518e-06
1.19522e-06
1.42926e-06
6.91262e-07
1.19495e-06
1.19502e-06
1.42946e-06
6.92969e-07
1.19453e-06
1.19465e-06
1.42948e-06
6.94398e-07
1.19394e-06
1.19412e-06
1.42935e-06
6.9557e-07
1.19321e-06
1.19344e-06
1.42909e-06
6.96497e-07
1.19234e-06
1.19262e-06
1.4287e-06
6.97185e-07
1.19134e-06
1.19165e-06
1.42817e-06
6.97635e-07
1.19018e-06
1.19051e-06
1.42747e-06
6.97824e-07
1.18889e-06
1.18921e-06
1.42664e-06
6.97806e-07
1.18747e-06
1.18776e-06
1.42569e-06
6.97607e-07
1.18595e-06
1.18618e-06
1.42462e-06
6.97233e-07
1.18435e-06
1.18452e-06
1.42341e-06
6.95626e-07
1.18137e-06
1.18151e-06
1.42159e-06
7.54896e-07
1.0967e-06
1.09675e-06
1.37398e-06
1.4209e-06
1.19044e-06
1.19033e-06
1.42086e-06
1.19022e-06
1.19033e-06
1.19028e-06
1.19044e-06
1.42085e-06
1.19034e-06
1.1903e-06
1.42101e-06
1.42293e-06
1.42271e-06
1.19095e-06
1.19084e-06
1.19221e-06
1.1921e-06
1.42288e-06
1.42266e-06
1.19073e-06
1.19083e-06
1.19197e-06
1.19206e-06
1.19096e-06
1.19202e-06
1.19221e-06
1.42287e-06
1.42263e-06
1.19082e-06
1.19207e-06
1.19207e-06
1.42286e-06
1.42471e-06
1.42417e-06
1.19261e-06
1.1925e-06
1.19353e-06
1.19344e-06
1.42466e-06
1.42417e-06
1.19236e-06
1.19245e-06
1.19327e-06
1.19335e-06
1.19261e-06
1.19334e-06
1.19355e-06
1.42463e-06
1.42411e-06
1.19247e-06
1.19338e-06
1.19341e-06
1.42435e-06
1.42612e-06
1.42525e-06
1.19384e-06
1.19375e-06
1.19447e-06
1.19439e-06
1.42611e-06
1.42529e-06
1.19357e-06
1.19365e-06
1.19418e-06
1.19427e-06
1.19386e-06
1.19429e-06
1.1945e-06
1.42606e-06
1.42522e-06
1.19371e-06
1.19431e-06
1.19436e-06
1.42558e-06
1.4273e-06
1.42609e-06
1.19469e-06
1.19461e-06
1.19507e-06
1.19501e-06
1.42733e-06
1.42605e-06
1.19439e-06
1.19448e-06
1.19476e-06
1.19486e-06
1.19472e-06
1.19489e-06
1.19513e-06
1.42727e-06
1.42597e-06
1.19458e-06
1.1949e-06
1.19497e-06
1.42655e-06
1.42806e-06
1.42691e-06
1.19518e-06
1.19512e-06
1.19536e-06
1.19531e-06
1.42831e-06
1.42671e-06
1.19486e-06
1.19497e-06
1.19502e-06
1.19515e-06
1.19525e-06
1.19518e-06
1.19544e-06
1.42825e-06
1.42664e-06
1.19509e-06
1.1952e-06
1.19528e-06
1.42721e-06
1.42855e-06
1.42734e-06
1.19539e-06
1.19533e-06
1.19538e-06
1.19533e-06
1.42888e-06
1.42711e-06
1.19505e-06
1.19518e-06
1.19503e-06
1.19518e-06
1.19548e-06
1.19521e-06
1.19548e-06
1.42884e-06
1.42709e-06
1.19531e-06
1.19523e-06
1.19532e-06
1.42764e-06
1.42897e-06
1.42759e-06
1.19535e-06
1.1953e-06
1.19518e-06
1.19513e-06
1.42928e-06
1.42733e-06
1.19501e-06
1.19515e-06
1.19483e-06
1.195e-06
1.19546e-06
1.19502e-06
1.1953e-06
1.42926e-06
1.42736e-06
1.1953e-06
1.19507e-06
1.19512e-06
1.42787e-06
1.42919e-06
1.42765e-06
1.19511e-06
1.19505e-06
1.19479e-06
1.19473e-06
1.42947e-06
1.42737e-06
1.19477e-06
1.19494e-06
1.19445e-06
1.19466e-06
1.19523e-06
1.19462e-06
1.19492e-06
1.4295e-06
1.42745e-06
1.19506e-06
1.19473e-06
1.19475e-06
1.42791e-06
1.42924e-06
1.42725e-06
1.19469e-06
1.19463e-06
1.19425e-06
1.19415e-06
1.42948e-06
1.42726e-06
1.19435e-06
1.19457e-06
1.19392e-06
1.19414e-06
1.19481e-06
1.19407e-06
1.19435e-06
1.42957e-06
1.42738e-06
1.19465e-06
1.19422e-06
1.19419e-06
1.42779e-06
1.42942e-06
1.42709e-06
1.19412e-06
1.19402e-06
1.19357e-06
1.19344e-06
1.42935e-06
1.42702e-06
1.19381e-06
1.19403e-06
1.19327e-06
1.1935e-06
1.19423e-06
1.19336e-06
1.19364e-06
1.42948e-06
1.42719e-06
1.19407e-06
1.19358e-06
1.19351e-06
1.42755e-06
1.42917e-06
1.42675e-06
1.19341e-06
1.19328e-06
1.19275e-06
1.19259e-06
1.42909e-06
1.42663e-06
1.19312e-06
1.19336e-06
1.19248e-06
1.19272e-06
1.19349e-06
1.19251e-06
1.19278e-06
1.42927e-06
1.42685e-06
1.19335e-06
1.19279e-06
1.19268e-06
1.42718e-06
1.42882e-06
1.42626e-06
1.19258e-06
1.19241e-06
1.19178e-06
1.19159e-06
1.42868e-06
1.42631e-06
1.1923e-06
1.19254e-06
1.19155e-06
1.19178e-06
1.19261e-06
1.1915e-06
1.19178e-06
1.42891e-06
1.42635e-06
1.19251e-06
1.19184e-06
1.1917e-06
1.42666e-06
1.42829e-06
1.42586e-06