/*--------------------------------*- C++ -*----------------------------------*\
| =========                 |                                                 |
| \\      /  F ield         | OpenFOAM: The Open Source CFD Toolbox           |
|  \\    /   O peration     | Version:  2312                                  |
|   \\  /    A nd           | Website:  www.openfoam.com                      |
|    \\/     M anipulation  |                                                 |
\*---------------------------------------------------------------------------*/
FoamFile
{
    version     2.0;
    format      ascii;
    arch        "LSB;label=32;scalar=64";
    class       volScalarField;
    location    "400";
    object      p;
}
// * * * * * * * * * * * * * * * * * * * * * * * * * * * * * * * * * * * * * //

dimensions      [0 2 -2 0 0 0 0];

internalField   nonuniform List<scalar> 
172512
(
0.000711852
0.0007118
0.0007118
0.000713375
0.00071902
0.000720631
0.000720631
0.000719019
0.000720631
0.000720631
0.000720631
0.000720631
0.00071902
0.000720631
0.000720631
0.00071902
0.000713375
0.0007118
0.0007118
0.000713374
0.0007118
0.0007118
0.0007118
0.000713374
0.0007118
0.000736129
0.000736126
0.000736129
0.000720684
0.000720685
0.000720684
0.000720684
0.000736128
0.00073829
0.000736164
0.000700805
0.000713941
0.000713929
0.000700808
0.000713948
0.000700807
0.000700805
0.000713941
0.000713929
0.000700808
0.000711853
0.000711852
0.000711852
0.000700887
0.000713893
0.00071182
0.000702967
0.000713845
0.000700843
0.000702987
0.000713949
0.000700807
0.000700887
0.00071182
0.000713893
0.000702967
0.000713845
0.000702986
0.000700843
0.00071394
0.00071394
0.000701355
0.000700801
0.000700801
0.000736128
0.000736128
0.000736679
0.000736122
0.000736122
0.00071847
0.000731608
0.00071847
0.000731608
0.000731035
0.000718465
0.000718464
0.000731599
0.0007316
0.00073829
0.000736164
0.000731588
0.000718471
0.0007316
0.000718468
0.000731588
0.000718471
0.0007316
0.000718468
0.000731504
0.000729461
0.000718506
0.000720652
0.000731553
0.000729482
0.000718551
0.000731504
0.000729462
0.000718506
0.000720651
0.000731552
0.000729482
0.000718551
0.00071847
0.000731607
0.000731034
0.000718465
0.000718464
0.000731599
0.00071847
0.000736209
0.00073829
0.000736164
0.000738311
0.000736126
0.000736129
0.000736209
0.00073829
0.000738311
0.000736164
0.000731588
0.000718471
0.0007316
0.000718468
0.000731504
0.000729461
0.000718506
0.000720651
0.000731553
0.000729482
0.000718551
0.000731588
0.000718471
0.0007316
0.000718468
0.000731504
0.000729461
0.000720651
0.000718506
0.000729482
0.000731553
0.000718551
0.000718506
0.000720651
0.00071855
0.000718471
0.000718469
0.000720651
0.000718506
0.00071855
0.000718471
0.000718468
0.000736679
0.000736122
0.000736122
0.000736128
0.00071847
0.000731607
0.000731035
0.000718464
0.000718464
0.0007316
0.0007316
0.00071847
0.000731608
0.000736129
0.000731504
0.000729461
0.000720652
0.000718506
0.000729482
0.000731553
0.00071855
0.000731504
0.000729461
0.000720651
0.000718506
0.000729481
0.000731553
0.000718551
0.000731588
0.000718471
0.0007316
0.000718469
0.000731587
0.000718471
0.0007316
0.000718469
0.000731033
0.000718464
0.000718464
0.000731599
0.00071847
0.00071847
0.000731607
0.000713949
0.000700807
0.000713949
0.000700807
0.00071394
0.000713941
0.000701356
0.000700801
0.000700801
0.000696284
0.000696284
0.000695709
0.000696276
0.000696276
0.000700805
0.000713941
0.000713929
0.000700808
0.000700887
0.000713894
0.00071182
0.000702967
0.000713845
0.000700843
0.000702987
0.000700887
0.000713893
0.00071182
0.000702967
0.000713845
0.000700843
0.000702987
0.000696264
0.000696277
0.000696264
0.000696277
0.00069618
0.000694133
0.000696229
0.000694152
0.00069618
0.000694133
0.000696229
0.000694152
0.00071394
0.00071394
0.000701356
0.000700802
0.000700801
0.000713948
0.000700807
0.000696284
0.000695709
0.000696276
0.000696276
0.000696284
0.000700887
0.000713894
0.00071182
0.000702967
0.000713845
0.000700843
0.000702986
0.000700805
0.000713941
0.000713929
0.000700808
0.000700887
0.000711819
0.000713894
0.000702967
0.000713845
0.000702986
0.000700842
0.000696264
0.000696277
0.00069618
0.000694133
0.000696229
0.000694152
0.000696264
0.000696277
0.00069618
0.000694133
0.000694152
0.000696229
0.000700806
0.000713941
0.000713928
0.000700808
0.000700887
0.00071182
0.000713893
0.000702967
0.000713845
0.000702987
0.000700842
0.000700805
0.000713941
0.000713929
0.000700808
0.00069618
0.000694133
0.000696229
0.000694152
0.000696264
0.000696277
0.00069618
0.000694133
0.000694152
0.000696229
0.000696264
0.000696277
0.000713941
0.00071394
0.000701355
0.000700801
0.000700801
0.000713948
0.000700807
0.000696284
0.000695709
0.000696276
0.000696276
0.000696284
0.000700887
0.00071182
0.000713893
0.000702967
0.000713844
0.000702986
0.000700842
0.000700805
0.000713941
0.000713928
0.000700808
0.000700806
0.000713941
0.000713928
0.000700808
0.00069618
0.000694133
0.000694152
0.000696229
0.000696179
0.000694133
0.000694152
0.000696229
0.000696264
0.000696277
0.000696263
0.000696276
0.000713948
0.000700807
0.000713948
0.000700807
0.000695709
0.000696276
0.000696276
0.000696284
0.000696284
0.00074044
0.000736116
0.000740428
0.000740432
0.000736125
0.000740438
0.000740415
0.000736125
0.000736121
0.000740418
0.000740436
0.000736121
0.000740439
0.000736116
0.000740428
0.000740432
0.000736125
0.000740435
0.00070512
0.000705097
0.0007008
0.000700804
0.000705118
0.000705101
0.0007008
0.000709636
0.000713945
0.00070964
0.000713953
0.000709627
0.000709632
0.000709638
0.000713949
0.000713932
0.000713951
0.000709632
0.000709636
0.000705121
0.000700795
0.00070511
0.000705114
0.000700804
0.000709639
0.000705117
0.00070512
0.000705097
0.000700804
0.0007008
0.0007051
0.000705118
0.0007008
0.000709636
0.000713945
0.00070964
0.000713953
0.000709627
0.000709632
0.000709638
0.000713932
0.000713949
0.000713951
0.000709636
0.000709632
0.000705122
0.000700795
0.00070511
0.000705114
0.000700804
0.000709639
0.000705117
0.000705123
0.000700802
0.000700802
0.000705127
0.000705127
0.000700793
0.000709656
0.000713883
0.000713944
0.000709633
0.000713917
0.000709686
0.000709641
0.000709656
0.000713883
0.000713944
0.000709633
0.000713917
0.000709686
0.000709641
0.000709625
0.000713958
0.000713958
0.000713955
0.000709634
0.000709634
0.000705085
0.000700809
0.000705109
0.000700854
0.000705051
0.000705112
0.000700824
0.000705085
0.000700809
0.000705109
0.000700854
0.000705052
0.000705112
0.000700824
0.000740435
0.000740435
0.000740441
0.000736123
0.000736123
0.000740445
0.000740445
0.000736114
0.000740403
0.00073613
0.000740427
0.000736176
0.000740431
0.000736146
0.00074037
0.000740404
0.00073613
0.000740427
0.000736175
0.000740431
0.000736145
0.00074037
0.000722779
0.0007273
0.000722779
0.0007273
0.000727286
0.000731618
0.000731618
0.000731614
0.000727295
0.000727295
0.000722747
0.000718517
0.000722771
0.000718473
0.000722774
0.000722713
0.000718488
0.000722747
0.000718517
0.000722771
0.000718473
0.000722774
0.000722714
0.000718488
0.000727317
0.000731603
0.000731542
0.000727294
0.000731576
0.000727302
0.000727347
0.000727317
0.000731603
0.000731542
0.000727294
0.000731576
0.000727302
0.000727347
0.000722785
0.000718466
0.000718466
0.000722789
0.000722789
0.000718456
0.000727292
0.000731608
0.000731591
0.000727298
0.00073161
0.000727292
0.000727297
0.000722783
0.000722772
0.000718458
0.000718467
0.000722775
0.000727297
0.000731604
0.000727301
0.000731612
0.000727288
0.000722781
0.000722759
0.000718463
0.000718467
0.000718463
0.000722779
0.000722762
0.000727292
0.000731608
0.000731591
0.000727298
0.00073161
0.000727292
0.000727296
0.000722783
0.000722771
0.000718458
0.000722775
0.000718467
0.000727297
0.000731604
0.000727301
0.000731612
0.000727287
0.000722781
0.000722759
0.000718463
0.000718467
0.000722779
0.000722762
0.000718463
0.000722779
0.000727299
0.000722747
0.000718517
0.00072277
0.000718473
0.000722714
0.000722774
0.000718487
0.000722747
0.000718517
0.00072277
0.000718472
0.000722774
0.000722713
0.000718488
0.000731542
0.000727294
0.000727347
0.000722785
0.000718466
0.000718465
0.000722789
0.000722789
0.000718456
0.000722779
0.000740438
0.000740415
0.000736121
0.000736125
0.000740436
0.000740419
0.00073612
0.000740439
0.000736115
0.000740427
0.000740432
0.000736125
0.000727292
0.000731591
0.000731608
0.000727298
0.00073161
0.000727297
0.000727292
0.000722783
0.000722772
0.000718458
0.000718467
0.000722775
0.000727297
0.000731604
0.000727301
0.000731612
0.000727288
0.000722781
0.000722759
0.000718467
0.000718463
0.000718463
0.000722762
0.000722779
0.000727292
0.000731608
0.000731591
0.000727298
0.00073161
0.000727292
0.000727297
0.000722783
0.000722771
0.000718458
0.000722775
0.000718467
0.000727297
0.000731604
0.0007273
0.000731612
0.000727287
0.000722781
0.000722759
0.000718463
0.000718467
0.000722779
0.000722762
0.000718463
0.000722783
0.000722771
0.000718459
0.000722775
0.000718467
0.000722781
0.000722758
0.000718468
0.000718463
0.000722761
0.000722779
0.000718463
0.000722783
0.000722771
0.000718458
0.000722775
0.000718467
0.000722781
0.000722759
0.000718463
0.000718467
0.000722779
0.000722762
0.000718463
0.000740441
0.000736123
0.000736123
0.000740445
0.000740445
0.000736114
0.000740404
0.00073613
0.000740427
0.000736175
0.00074043
0.00074037
0.000736145
0.000740404
0.00073613
0.000740427
0.000736175
0.000740371
0.00074043
0.000736145
0.000740435
0.000722779
0.000727299
0.000727286
0.000731618
0.000731618
0.000731614
0.000727295
0.000727295
0.000722747
0.000718517
0.000722771
0.000718472
0.000722714
0.000722774
0.000718487
0.000722747
0.000718517
0.000722771
0.000718472
0.000722774
0.000722714
0.000718487
0.000727317
0.000731603
0.000731543
0.000727294
0.000727346
0.000731576
0.000727302
0.000727317
0.000731603
0.000731543
0.000727294
0.000731576
0.000727302
0.000727347
0.000722785
0.000718465
0.000718466
0.000722789
0.000722789
0.000718456
0.000722779
0.0007273
0.000740428
0.000727292
0.000731591
0.000731608
0.000727298
0.00073161
0.000727297
0.000727292
0.000722783
0.000722771
0.000718458
0.000722775
0.000718467
0.000727297
0.000731604
0.0007273
0.000731612
0.000727287
0.000722781
0.000722758
0.000718467
0.000718463
0.000722762
0.000722779
0.000718463
0.000727292
0.000731591
0.000731608
0.000727299
0.00073161
0.000727297
0.000727292
0.000722783
0.000722771
0.000718458
0.000722775
0.000718467
0.000727297
0.000731604
0.0007273
0.000731612
0.000727287
0.000722781
0.000722758
0.000718467
0.000718463
0.000722761
0.000722779
0.000718463
0.000727285
0.000727295
0.000727295
0.000722747
0.000718517
0.00072277
0.000718472
0.000718487
0.000722713
0.000722774
0.000722747
0.000718517
0.00072277
0.000718472
0.000718487
0.000722714
0.000722774
0.000727316
0.000727294
0.000727347
0.000727302
0.000727317
0.000731542
0.000727293
0.000727346
0.000727302
0.000722785
0.000718465
0.000718465
0.000718456
0.000722789
0.000722789
0.000722778
0.000727299
0.000722778
0.000727299
0.000709639
0.000705117
0.000709639
0.000705117
0.000705123
0.000700803
0.000700803
0.000705127
0.000705127
0.000700793
0.000709657
0.000713883
0.000713944
0.000709634
0.000713917
0.000709642
0.000709686
0.000709657
0.000713883
0.000713944
0.000709633
0.000713917
0.000709642
0.000709686
0.000709625
0.000713959
0.000713959
0.000713955
0.000709635
0.000709635
0.000705085
0.00070081
0.000705109
0.000700854
0.000705113
0.000700824
0.000705052
0.000705085
0.00070081
0.000705109
0.000700854
0.000705113
0.000700824
0.000705052
0.000691973
0.000691973
0.000691959
0.000696294
0.000696294
0.00069629
0.000691969
0.000691969
0.00069199
0.00069628
0.000696219
0.000691967
0.000696252
0.000691976
0.00069202
0.00069199
0.00069628
0.000696219
0.000691967
0.000696252
0.000691976
0.00069202
0.00070512
0.000705097
0.0007008
0.000700804
0.000705118
0.000705101
0.0007008
0.000709636
0.000713945
0.00070964
0.000713953
0.000709627
0.000709632
0.000709637
0.000713949
0.000713932
0.000709632
0.000713951
0.000709636
0.000705121
0.000700795
0.000705109
0.000705114
0.000700804
0.000691966
0.000696285
0.000696267
0.000691971
0.000696287
0.000691966
0.00069197
0.00069197
0.000696281
0.000691974
0.000696289
0.000691961
0.000691966
0.000696285
0.000696267
0.000691971
0.000696287
0.000691966
0.00069197
0.00069197
0.000696281
0.000691974
0.000696288
0.000691961
0.000705123
0.000700802
0.000700803
0.000705127
0.000705127
0.000700793
0.000709656
0.000713883
0.000713944
0.000709634
0.000709642
0.000713917
0.000709686
0.000709657
0.000713883
0.000713944
0.000709633
0.000709687
0.000713917
0.000709642
0.000709625
0.000713958
0.000713958
0.000709635
0.000713955
0.000709635
0.000705085
0.000700809
0.000705109
0.000700854
0.000705112
0.000705052
0.000700824
0.000705085
0.00070081
0.000705109
0.000700854
0.000705052
0.000705112
0.000700824
0.000709639
0.000705117
0.000691973
0.000691959
0.000696294
0.000696294
0.00069629
0.000691968
0.000691969
0.00069199
0.00069628
0.000696218
0.000691968
0.00069202
0.000696252
0.000691975
0.000691991
0.000696279
0.000696218
0.000691967
0.000696252
0.000691976
0.00069202
0.000691973
0.00070512
0.000705097
0.0007008
0.000700804
0.000705118
0.000705101
0.0007008
0.000709636
0.000713945
0.00070964
0.000713953
0.000709627
0.000709632
0.000709638
0.000713949
0.000713932
0.000709632
0.000713951
0.000709636
0.000705121
0.000700795
0.00070511
0.000705114
0.000700804
0.000691966
0.000696267
0.000696285
0.000691971
0.000696287
0.00069197
0.000691966
0.000691971
0.000696281
0.000691974
0.000696289
0.000691961
0.000691967
0.000696285
0.000696268
0.000691971
0.000696287
0.000691966
0.00069197
0.000691971
0.000696281
0.000691974
0.000696288
0.000691961
0.00070512
0.000705097
0.000700805
0.0007008
0.000705099
0.000705118
0.0007008
0.000709636
0.000713945
0.00070964
0.000709628
0.000713953
0.000709632
0.000709638
0.000713931
0.000713949
0.000709637
0.000713951
0.000709632
0.000705122
0.000700795
0.00070511
0.000705113
0.000700804
0.00070512
0.000705097
0.0007008
0.000700804
0.000705118
0.0007051
0.0007008
0.000709636
0.000713945
0.00070964
0.000713953
0.000709627
0.000709632
0.000709638
0.000713949
0.000713932
0.000713951
0.000709632
0.000709636
0.000705121
0.000700795
0.00070511
0.000705114
0.000700804
0.000691967
0.000696267
0.000696285
0.000691972
0.000696286
0.000691971
0.000691966
0.000691971
0.00069628
0.000691974
0.000696288
0.000691962
0.000691966
0.000696285
0.000696267
0.000691971
0.000696287
0.000691966
0.00069197
0.00069197
0.00069628
0.000691974
0.000696288
0.000691961
0.000705123
0.000700802
0.000700802
0.000705127
0.000705127
0.000700793
0.000709656
0.000713884
0.000713944
0.000709633
0.000709641
0.000713917
0.000709686
0.000709656
0.000713883
0.000713944
0.000709633
0.000709686
0.000713917
0.000709641
0.000709625
0.000713959
0.000713959
0.000709634
0.000713955
0.000709635
0.000705086
0.000700809
0.000705109
0.000700853
0.000705113
0.000705052
0.000700824
0.000705085
0.000700809
0.000705109
0.000700854
0.000705052
0.000705113
0.000700824
0.000709639
0.000705117
0.000691973
0.000691959
0.000696294
0.000696294
0.00069629
0.000691969
0.000691969
0.00069199
0.00069628
0.000696219
0.000691967
0.000692019
0.000696253
0.000691975
0.00069199
0.00069628
0.000696219
0.000691967
0.000696252
0.000691975
0.00069202
0.000691973
0.00070512
0.000705097
0.000700804
0.0007008
0.0007051
0.000705117
0.0007008
0.000709636
0.000713945
0.00070964
0.000709627
0.000713953
0.000709632
0.000709638
0.000713932
0.000713949
0.000709636
0.000713951
0.000709632
0.000705121
0.000700795
0.00070511
0.000705114
0.000700804
0.000705119
0.000705096
0.000700804
0.0007008
0.0007051
0.000705117
0.0007008
0.000709636
0.000713945
0.00070964
0.000713953
0.000709627
0.000709632
0.000709638
0.000713931
0.000713949
0.000713951
0.000709636
0.000709632
0.000705121
0.000700795
0.000705109
0.000705113
0.000700804
0.000691966
0.000696267
0.000696284
0.000691971
0.000696287
0.00069197
0.000691966
0.00069197
0.000696281
0.000691974
0.000696288
0.000691961
0.000691966
0.000696267
0.000696284
0.000691972
0.000696286
0.00069197
0.000691966
0.00069197
0.00069628
0.000691974
0.000696288
0.000691961
0.000709639
0.000705117
0.000709639
0.000705117
0.000691959
0.000696294
0.000696294
0.00069629
0.000691968
0.000691968
0.00069199
0.000696279
0.000696219
0.000691967
0.000696252
0.00069202
0.000691975
0.00069199
0.000696279
0.000696219
0.000691967
0.000696252
0.00069202
0.000691975
0.000691973
0.000691973
0.000738344
0.000738378
0.000711884
0.000711884
0.000703019
0.000703051
0.00070305
0.000703096
0.00071193
0.000709757
0.000713653
0.000713654
0.000710188
0.000713815
0.00070993
0.00070993
0.000722645
0.000722205
0.000718762
0.000718761
0.000722483
0.000722485
0.000718588
0.000722645
0.000722204
0.000718763
0.000718761
0.000722485
0.000722482
0.000718589
0.000722646
0.000722205
0.000718762
0.000718762
0.000722484
0.000722484
0.000718588
0.000722645
0.000722206
0.000718762
0.000718762
0.000718588
0.000722484
0.000722484
0.000709757
0.000713654
0.000713654
0.000710189
0.000713815
0.000709931
0.00070993
0.000709758
0.000713653
0.000713653
0.000710189
0.000709931
0.000713815
0.000709931
0.000709757
0.000713653
0.000713654
0.000710188
0.00070993
0.000713815
0.00070993
0.000738344
0.000738378
0.000729515
0.000720717
0.000720717
0.000729548
0.000729548
0.000729595
0.000720763
0.000729515
0.000720717
0.000720717
0.000729549
0.000729546
0.000729596
0.000720763
0.000729515
0.000720717
0.000720717
0.000729548
0.000729549
0.000729596
0.000720763
0.000729515
0.000720717
0.000720717
0.000729547
0.000729548
0.000729596
0.000720763
0.00074038
0.000736325
0.000740232
0.000711885
0.000711885
0.000703019
0.000703051
0.000703051
0.000703096
0.00071193
0.000711884
0.000711884
0.000703019
0.00070305
0.00070305
0.000703096
0.00071193
0.000711885
0.000711884
0.000703019
0.000703051
0.00070305
0.000703096
0.00071193
0.000694184
0.000694215
0.000694215
0.00069426
0.000694184
0.000694215
0.000694215
0.00069426
0.000694184
0.000694215
0.000694215
0.00069426
0.000694184
0.000694215
0.000694215
0.00069426
0.000704782
0.000705013
0.000700884
0.000701122
0.000705017
0.000704784
0.000701128
0.000709921
0.000713745
0.000713863
0.000709675
0.000713641
0.000709837
0.000709701
0.00070996
0.000709719
0.000713849
0.000713615
0.000713613
0.000709717
0.000709955
0.000704809
0.000700869
0.000705062
0.000701004
0.000704913
0.000705032
0.000701089
0.000704781
0.000705013
0.000701122
0.000700883
0.000704783
0.000705017
0.000701128
0.000709921
0.000713745
0.000713864
0.000709675
0.000713641
0.000709836
0.000709701
0.00070996
0.000709719
0.000713615
0.000713849
0.000713613
0.000709955
0.000709716
0.000704809
0.000700869
0.000705062
0.000701004
0.000704913
0.000705032
0.000701088
0.000704983
0.000704543
0.000701098
0.000701097
0.000704821
0.000704822
0.000700925
0.000740302
0.000739863
0.000736421
0.00073642
0.000736247
0.000740141
0.000740142
0.000727418
0.00072785
0.000731313
0.000731314
0.000731474
0.000727592
0.000727591
0.000740129
0.000736191
0.00074038
0.000736326
0.000740351
0.000740232
0.000736411
0.000727622
0.000731508
0.000731275
0.00072738
0.000731273
0.000727377
0.000727617
0.000722472
0.000718667
0.000722724
0.000718532
0.000722576
0.000722694
0.000718753
0.000727582
0.000731523
0.000731405
0.000727336
0.000727497
0.000731301
0.000727362
0.000722444
0.000722675
0.000718548
0.000718787
0.00072268
0.000722446
0.000718792
0.000727622
0.000731508
0.000731275
0.00072738
0.000731273
0.000727377
0.000727617
0.000722471
0.000718667
0.000722723
0.000718532
0.000722694
0.000722575
0.000718752
0.000727582
0.000731523
0.000731405
0.000727336
0.0007313
0.000727362
0.000727497
0.000722443
0.000722675
0.000718547
0.000718787
0.00072268
0.000722446
0.000718792
0.000727851
0.000731311
0.000727592
0.000740101
0.000740332
0.000736206
0.000736446
0.000740336
0.000740103
0.000736451
0.000740129
0.000736191
0.00074038
0.000736325
0.00074035
0.000740232
0.000736412
0.000740101
0.000740332
0.000736446
0.000736205
0.000740103
0.000740336
0.000736451
0.000740129
0.00073619
0.00074038
0.000736325
0.00074035
0.000736411
0.000740233
0.000727622
0.000731508
0.000731276
0.00072738
0.000731273
0.000727377
0.000727617
0.000722471
0.000718667
0.000722724
0.000718532
0.000722576
0.000722694
0.000718753
0.000727583
0.000731523
0.000731405
0.000727336
0.000727497
0.000731301
0.000727362
0.000722443
0.000722675
0.000718548
0.000718787
0.000722679
0.000722446
0.000718792
0.000727622
0.000731275
0.000731509
0.00072738
0.000731273
0.000727617
0.000727377
0.000722471
0.000718667
0.000722724
0.000718532
0.000722694
0.000722576
0.000718752
0.000727582
0.000731523
0.000731405
0.000727336
0.000731301
0.000727362
0.000727497
0.000722444
0.000722675
0.000718787
0.000718547
0.000722446
0.00072268
0.000718792
0.000722471
0.000718667
0.000722723
0.000718532
0.000718752
0.000722575
0.000722694
0.000722443
0.000722675
0.000718547
0.000718786
0.000718791
0.000722679
0.000722445
0.000722471
0.000718666
0.000722723
0.000718532
0.000722693
0.000722575
0.000718752
0.000722444
0.000722675
0.000718786
0.000718547
0.000722446
0.000722679
0.000718791
0.000740302
0.000739863
0.00073642
0.00073642
0.000740141
0.00074014
0.000736247
0.000727418
0.00072785
0.000731313
0.000731313
0.000727592
0.000731475
0.000727591
0.000727622
0.000731276
0.000731509
0.00072738
0.000731273
0.000727617
0.000727377
0.000722472
0.000718667
0.000722724
0.000718532
0.000718752
0.000722576
0.000722694
0.000727582
0.000731524
0.000731405
0.000727335
0.000731301
0.000727497
0.000727361
0.000722444
0.000722675
0.000718787
0.000718547
0.000718792
0.000722446
0.000722679
0.000727622
0.000731275
0.000731508
0.00072738
0.000731273
0.000727617
0.000727377
0.000722471
0.000718667
0.000722724
0.000718532
0.000722694
0.000722576
0.000718752
0.000727582
0.000731523
0.000731405
0.000727335
0.000731301
0.000727362
0.000727497
0.000722444
0.000722675
0.000718787
0.000718547
0.000722446
0.000722679
0.000718792
0.000727418
0.000727849
0.00073131
0.000727594
0.00072759
0.000704983
0.000704542
0.000701098
0.000701098
0.000700925
0.000704822
0.000704822
0.000692091
0.000692521
0.000695989
0.000695989
0.00069615
0.000692264
0.000692263
0.000704781
0.000705013
0.000700884
0.000701123
0.000705017
0.000704783
0.000701128
0.000709921
0.000713746
0.000713864
0.000709675
0.000709701
0.000713641
0.000709836
0.000709961
0.000709719
0.000713849
0.000713616
0.000709716
0.000713614
0.000709956
0.000704809
0.000700869
0.000705062
0.000701004
0.000705032
0.000704914
0.000701089
0.000704781
0.000705013
0.000700884
0.000701123
0.000705018
0.000704783
0.000701128
0.000709922
0.000713745
0.000713864
0.000709675
0.00071364
0.000709701
0.000709837
0.000709961
0.000709719
0.000713849
0.000713615
0.000713613
0.000709716
0.000709956
0.000704808
0.000700869
0.000705062
0.000701004
0.000705032
0.000701089
0.000704913
0.000692294
0.000696184
0.00069595
0.000692053
0.000695948
0.00069205
0.000692288
0.000692254
0.000696199
0.000696081
0.000692009
0.00069217
0.000695976
0.000692035
0.000692294
0.000696184
0.00069595
0.000692053
0.000695948
0.00069205
0.000692288
0.000692255
0.000696199
0.00069608
0.000692009
0.000695975
0.000692035
0.00069217
0.000704983
0.000704542
0.000701098
0.000701098
0.000704822
0.000704822
0.000700925
0.000692091
0.000692522
0.000695988
0.000695988
0.000692264
0.00069615
0.000692264
0.000704781
0.000705013
0.000700884
0.000701123
0.000705017
0.000704783
0.000701128
0.000709922
0.000713745
0.000713864
0.000709675
0.000709701
0.000713641
0.000709836
0.000709961
0.00070972
0.000713849
0.000713615
0.000709716
0.000713613
0.000709956
0.000704809
0.000700869
0.000705062
0.000701004
0.000705032
0.000704913
0.000701089
0.000704781
0.000705013
0.000701123
0.000700884
0.000704783
0.000705018
0.000701128
0.000709921
0.000713747
0.000713864
0.000709675
0.000713641
0.000709701
0.000709836
0.000709961
0.000709719
0.000713615
0.00071385
0.000713614
0.000709955
0.000709716
0.000704809
0.000700868
0.000705062
0.000701003
0.000705032
0.000701088
0.000704914
0.000692294
0.000696184
0.000695949
0.000692053
0.000695947
0.00069205
0.000692288
0.000692255
0.000696199
0.00069608
0.000692009
0.00069217
0.000695975
0.000692035
0.000692293
0.000695949
0.000696184
0.000692053
0.000695948
0.000692288
0.000692049
0.000692254
0.000696199
0.000696081
0.000692009
0.000695976
0.000692034
0.000692169
0.000704782
0.000705013
0.000701122
0.000700884
0.000704784
0.000705017
0.000701128
0.000709921
0.000713746
0.000713863
0.000709675
0.000709835
0.000713641
0.000709701
0.00070996
0.000709719
0.000713616
0.000713849
0.000709955
0.000713614
0.000709716
0.000704809
0.000700869
0.000705062
0.000701003
0.000704914
0.000705032
0.000701088
0.000692294
0.000696184
0.00069595
0.000692053
0.000695948
0.00069205
0.000692288
0.000692254
0.000696199
0.00069608
0.000692009
0.000695976
0.00069217
0.000692035
0.000692293
0.00069595
0.000696184
0.000692053
0.000695948
0.000692288
0.00069205
0.000692254
0.000696199
0.000696081
0.000692009
0.000695976
0.000692035
0.000692169
0.000704984
0.000704542
0.000701098
0.000701098
0.000704822
0.000704821
0.000700925
0.00069209
0.000692521
0.000695988
0.000695989
0.000692264
0.000696151
0.000692263
0.000704781
0.000705013
0.000701122
0.000700884
0.000704783
0.000705017
0.000701128
0.000709921
0.000713745
0.000713863
0.000709675
0.000709836
0.000713641
0.000709701
0.000709961
0.000709719
0.000713615
0.000713849
0.000709955
0.000713613
0.000709716
0.000704809
0.000700869
0.000705062
0.000701004
0.000704913
0.000705032
0.000701088
0.000692293
0.00069595
0.000696184
0.000692053
0.000695948
0.000692288
0.000692049
0.000692254
0.000696199
0.00069608
0.000692009
0.000695976
0.00069217
0.000692034
0.000692294
0.00069595
0.000696184
0.000692053
0.000695948
0.000692288
0.00069205
0.000692254
0.000696199
0.00069608
0.000692009
0.000695976
0.000692035
0.00069217
0.00069209
0.000692521
0.000695988
0.000695989
0.00069615
0.000692264
0.000692263
0.00067651
0.00067646
0.00067646
0.000678037
0.000641141
0.000641094
0.000641094
0.000642674
0.000605744
0.0006057
0.0006057
0.000607282
0.000570315
0.000570274
0.000570273
0.000571859
0.000534852
0.000534812
0.000534812
0.0005364
0.000499349
0.000499312
0.000499312
0.000500903
0.000463805
0.000463769
0.00046377
0.000465364
0.000428216
0.000428182
0.000428182
0.00042978
0.000392579
0.000392547
0.000392549
0.000394148
0.000356893
0.000356863
0.000356864
0.000358467
0.000321157
0.000321129
0.000321129
0.000322736
0.000285371
0.000285345
0.000285345
0.000286955
0.000249537
0.000249513
0.000249513
0.000251126
0.000213659
0.000213636
0.000213635
0.000215252
0.000177736
0.000177715
0.000177715
0.000179334
0.00014177
0.000141751
0.00014175
0.000143373
0.000105758
0.000105739
0.000105739
0.000107367
6.97094e-05
6.96778e-05
6.96764e-05
7.13046e-05
3.42549e-05
3.37136e-05
3.37102e-05
3.51603e-05
1.11144e-05
7.36158e-06
7.35905e-06
5.8142e-06
0.000683685
0.000685297
0.000685297
0.000683686
0.000685297
0.000685297
0.000685297
0.000685297
0.000683685
0.000685297
0.000685297
0.000683685
0.000678037
0.000648326
0.00067646
0.00067646
0.000649938
0.000649938
0.000678037
0.000648326
0.00067646
0.00067646
0.000649938
0.000649938
0.00067646
0.000649938
0.000649938
0.000678037
0.000648326
0.00067646
0.000649938
0.000649938
0.000648326
0.000642674
0.000612938
0.000641094
0.000641094
0.000614551
0.000614551
0.000642674
0.000612939
0.000641094
0.000641094
0.000614551
0.000614551
0.000641094
0.000614551
0.000614551
0.000642674
0.000612938
0.000641094
0.000614551
0.000614551
0.000612938
0.000607282
0.000577519
0.0006057
0.0006057
0.000579133
0.000579133
0.000607282
0.00057752
0.0006057
0.0006057
0.000579133
0.000579133
0.0006057
0.000579133
0.000579133
0.000607282
0.000577519
0.0006057
0.000579133
0.000579133
0.000577519
0.000571859
0.000542066
0.000570273
0.000570274
0.000543681
0.000543681
0.000571859
0.000542067
0.000570273
0.000570273
0.000543681
0.000543681
0.000570274
0.000543681
0.000543681
0.000571859
0.000542066
0.000570274
0.000543681
0.000543681
0.000542066
0.0005364
0.000506575
0.000534812
0.000534812
0.00050819
0.00050819
0.0005364
0.000506575
0.000534812
0.000534812
0.00050819
0.000508191
0.000534812
0.000508191
0.000508191
0.0005364
0.000506575
0.000534812
0.000508191
0.000508191
0.000506575
0.000500903
0.000471042
0.000499312
0.000499312
0.000472659
0.000472659
0.000500903
0.000471042
0.000499312
0.000499312
0.000472659
0.000472659
0.000499312
0.000472659
0.000472659
0.000500903
0.000471042
0.000499312
0.000472659
0.000472659
0.000471041
0.000465364
0.000435465
0.000463769
0.000463769
0.000437083
0.000437083
0.000465363
0.000435464
0.00046377
0.00046377
0.000437083
0.000437084
0.000463769
0.000437083
0.000437083
0.000465364
0.000435465
0.000463769
0.000437083
0.000437083
0.000435464
0.00042978
0.00039984
0.000428182
0.000428182
0.00040146
0.00040146
0.000429779
0.00039984
0.000428183
0.000428183
0.000401461
0.000401461
0.000428182
0.00040146
0.00040146
0.00042978
0.000399841
0.000428182
0.000401461
0.000401461
0.00039984
0.000394148
0.000364167
0.000392548
0.000392547
0.000365789
0.000365788
0.000394147
0.000364167
0.000392548
0.000392548
0.000365789
0.000365789
0.000392547
0.000365788
0.000365788
0.000394149
0.000364167
0.000392548
0.000365789
0.000365789
0.000364166
0.000358467
0.000328444
0.000356863
0.000356863
0.000330067
0.000330066
0.000358466
0.000328443
0.000356864
0.000356864
0.000330067
0.000330067
0.000356863
0.000330066
0.000330066
0.000358468
0.000328444
0.000356863
0.000330067
0.000330066
0.000328443
0.000322736
0.00029267
0.000321129
0.000321129
0.000294295
0.000294295
0.000322736
0.00029267
0.000321129
0.000321129
0.000294295
0.000294295
0.000321129
0.000294294
0.000294294
0.000322737
0.00029267
0.000321129
0.000294295
0.000294294
0.000292669
0.000286955
0.000256848
0.000285345
0.000285345
0.000258474
0.000258474
0.000286955
0.000256848
0.000285345
0.000285345
0.000258474
0.000258474
0.000285345
0.000258474
0.000258474
0.000286955
0.000256848
0.000285345
0.000258474
0.000258474
0.000256848
0.000251126
0.000220981
0.000249513
0.000249513
0.000222608
0.000222608
0.000251126
0.000220982
0.000249513
0.000249513
0.000222608