/*--------------------------------*- C++ -*----------------------------------*\
| =========                 |                                                 |
| \\      /  F ield         | OpenFOAM: The Open Source CFD Toolbox           |
|  \\    /   O peration     | Version:  2312                                  |
|   \\  /    A nd           | Website:  www.openfoam.com                      |
|    \\/     M anipulation  |                                                 |
\*---------------------------------------------------------------------------*/
FoamFile
{
    version     2.0;
    format      ascii;
    arch        "LSB;label=32;scalar=64";
    class       volVectorField;
    location    "950";
    object      U;
}
// * * * * * * * * * * * * * * * * * * * * * * * * * * * * * * * * * * * * * //

dimensions      [0 1 -1 0 0 0 0];

internalField   nonuniform List<vector> 
43008
(
(6.34829e-05 6.35049e-05 0.108289)
(5.91582e-05 -9.55176e-05 0.107557)
(6.22641e-05 6.22668e-05 0.108604)
(-9.36762e-05 5.81657e-05 0.107771)
(5.81235e-05 -9.3671e-05 0.107771)
(-0.000149575 -0.000149558 0.106585)
(0.000152364 0.000152375 0.106508)
(1.26048e-05 1.2689e-05 0.106725)
(5.93124e-05 9.54863e-05 0.107557)
(-5.94279e-05 9.56366e-05 0.107556)
(5.85789e-05 9.41616e-05 0.107718)
(-5.86378e-05 9.42628e-05 0.107718)
(-1.26199e-05 1.26852e-05 0.106725)
(9.55427e-05 5.9224e-05 0.107557)
(9.5556e-05 -5.93486e-05 0.107556)
(9.41904e-05 5.84844e-05 0.107719)
(9.41499e-05 -5.85678e-05 0.107718)
(-9.41396e-05 5.84372e-05 0.107719)
(-9.40669e-05 -5.85073e-05 0.107718)
(0.000152413 -0.000152416 0.106508)
(1.26211e-05 -1.25519e-05 0.106725)
(-5.92255e-05 -9.55229e-05 0.107557)
(5.83838e-05 -9.41176e-05 0.107719)
(-5.84446e-05 -9.41455e-05 0.107719)
(-1.2673e-05 -1.25645e-05 0.106724)
(0.000149552 0.000149537 0.106584)
(5.83213e-05 9.37182e-05 0.10777)
(-5.83664e-05 9.37948e-05 0.10777)
(-0.000149554 0.000149546 0.106585)
(9.37365e-05 5.82186e-05 0.107771)
(9.3697e-05 -5.8301e-05 0.10777)
(-9.36018e-05 -5.82309e-05 0.10777)
(0.000149548 -0.000149557 0.106584)
(-5.81735e-05 -9.36979e-05 0.10777)
(2.0706e-06 2.0842e-05 0.0947508)
(-2.83105e-06 3.82857e-05 0.0840944)
(2.78777e-06 7.04514e-05 0.0947942)
(-5.20825e-06 -1.24106e-06 0.0840817)
(5.94824e-06 -4.83936e-06 0.0725369)
(2.08126e-05 2.1084e-06 0.094751)
(3.83103e-05 -2.83161e-06 0.0840944)
(7.04573e-05 2.83634e-06 0.0947942)
(-1.29608e-06 -5.38347e-06 0.0840817)
(-6.35407e-05 6.35022e-05 0.108289)
(6.34679e-05 -6.35124e-05 0.108289)
(-6.35324e-05 -6.35168e-05 0.108289)
(6.257e-05 6.25728e-05 0.108526)
(-6.25999e-05 6.25683e-05 0.108526)
(6.25299e-05 -6.25757e-05 0.108526)
(-6.25898e-05 -6.25826e-05 0.108526)
(-6.21556e-05 6.42207e-06 0.103006)
(-9.50708e-05 5.89714e-05 0.107612)
(-3.03099e-05 2.15083e-06 0.0963717)
(-0.000104312 2.11242e-05 0.108126)
(1.63712e-05 -3.45646e-06 0.0725069)
(-4.75626e-06 5.94812e-06 0.0725359)
(6.28047e-06 -6.20948e-05 0.103005)
(2.12485e-05 -0.00010475 0.108055)
(3.09464e-05 -7.52609e-05 0.0963608)
(5.89006e-05 -9.50466e-05 0.107612)
(7.57645e-06 -0.000126227 0.102968)
(2.11107e-05 -0.000104339 0.108126)
(2.2143e-06 -3.01673e-05 0.0963704)
(-1.41783e-05 -1.40138e-05 0.106681)
(-1.5649e-05 2.04774e-06 0.0899648)
(2.05144e-06 -1.56284e-05 0.0899617)
(1.59741e-06 1.52969e-05 0.094385)
(-1.87593e-06 3.51962e-05 0.0838211)
(2.31659e-06 6.36192e-05 0.0944192)
(-4.5521e-06 -3.3189e-06 0.083817)
(-3.39897e-06 1.56409e-05 0.0723247)
(5.70401e-06 -5.14625e-06 0.0723586)
(1.52489e-05 1.66047e-06 0.0943851)
(3.52029e-05 -1.97515e-06 0.0838212)
(6.36315e-05 2.35404e-06 0.0944191)
(-3.3344e-06 -4.53601e-06 0.083817)
(-6.2292e-05 6.22639e-05 0.108604)
(6.22243e-05 -6.2268e-05 0.108604)
(-6.22812e-05 -6.22734e-05 0.108604)
(-5.54085e-05 5.25377e-06 0.102755)
(-6.98316e-05 2.83912e-05 0.0960256)
(-0.000103149 2.06839e-05 0.108337)
(-9.31985e-05 5.78983e-05 0.107821)
(-0.000118562 6.57527e-06 0.102725)
(-2.55964e-05 7.35817e-07 0.0960419)
(-0.000102768 2.05419e-05 0.108405)
(1.55692e-05 -3.49713e-06 0.0723247)
(-5.17227e-06 5.75518e-06 0.0723579)
(5.14868e-06 -5.53787e-05 0.102754)
(2.06819e-05 -0.000103196 0.108337)
(2.84637e-05 -6.98144e-05 0.0960275)
(5.7838e-05 -9.31947e-05 0.107821)
(6.64427e-06 -0.000118614 0.102725)
(2.0537e-05 -0.000102795 0.108405)
(7.714e-07 -2.54649e-05 0.0960407)
(-3.43248e-05 -1.82835e-05 0.0896681)
(-1.82534e-05 -3.43059e-05 0.0896674)
(-1.12452e-05 -1.11503e-05 0.106761)
(-1.30953e-05 2.64643e-06 0.0896668)
(2.6391e-06 -1.30539e-05 0.0896637)
(3.4169e-06 1.63013e-05 0.072507)
(-6.05982e-06 -4.81182e-06 0.0725365)
(1.63033e-05 3.32495e-06 0.0725055)
(-4.96903e-06 -6.25477e-06 0.0725355)
(1.95311e-05 3.69024e-05 0.0899755)
(3.69268e-05 1.93614e-05 0.0899723)
(1.40266e-05 1.41223e-05 0.106682)
(-2.08482e-06 1.56137e-05 0.0899659)
(1.54094e-05 -2.15815e-06 0.089963)
(-5.58272e-06 -4.99631e-06 0.0724453)
(3.51476e-06 1.60146e-05 0.0724137)
(-5.01432e-06 -5.88053e-06 0.0724446)
(1.58944e-05 3.32334e-06 0.072412)
(0.000151012 0.000151015 0.10655)
(-2.26688e-06 1.43158e-05 0.0898132)
(1.42579e-05 -2.38857e-06 0.0898106)
(1.88697e-05 3.56802e-05 0.0898188)
(3.55536e-05 1.87703e-05 0.0898155)
(-2.20123e-06 2.08318e-05 0.0947508)
(2.76327e-06 3.82209e-05 0.0840943)
(-2.95351e-06 7.04442e-05 0.0947942)
(5.11793e-06 -1.25237e-06 0.0840816)
(6.31868e-06 6.2061e-05 0.103005)
(3.08712e-05 7.53576e-05 0.0963595)
(2.12628e-05 0.000104702 0.108055)
(5.90697e-05 9.50541e-05 0.107612)
(7.48371e-06 0.000126251 0.102968)
(2.09721e-06 3.02956e-05 0.0963697)
(2.11224e-05 0.000104303 0.108126)
(-6.39818e-06 6.20585e-05 0.103006)
(-3.09203e-05 7.5304e-05 0.0963589)
(-2.13017e-05 0.000104731 0.108055)
(-5.91874e-05 9.5184e-05 0.107612)
(-7.6174e-06 0.000126251 0.102969)
(-2.24252e-06 3.02628e-05 0.0963687)
(-2.11721e-05 0.00010433 0.108126)
(2.52638e-06 6.6904e-05 0.0946025)
(-4.65712e-06 -2.44804e-06 0.0839458)
(-2.24555e-06 3.66766e-05 0.0839542)
(1.80813e-06 1.79197e-05 0.0945638)
(-2.69839e-06 6.69123e-05 0.0946025)
(4.65344e-06 -2.31181e-06 0.0839455)
(2.26522e-06 3.66828e-05 0.0839542)
(-1.958e-06 1.79305e-05 0.0945636)
(7.02238e-06 0.000122437 0.102849)
(5.8844e-05 9.46247e-05 0.107666)
(1.47114e-06 2.77576e-05 0.0962022)
(2.08405e-05 0.00010354 0.108267)
(2.96672e-05 7.25784e-05 0.0961902)
(2.0982e-05 0.000103924 0.108197)
(5.70892e-06 5.86415e-05 0.102882)
(-7.14947e-06 0.000122448 0.102849)
(-5.89088e-05 9.47254e-05 0.107665)
(-1.49122e-06 2.79268e-05 0.0962008)
(-2.08871e-05 0.000103562 0.108267)
(-2.96858e-05 7.25791e-05 0.0961898)
(-2.10297e-05 0.000103946 0.108197)
(-5.79432e-06 5.86529e-05 0.102882)
(-1.40945e-05 1.4139e-05 0.106682)
(1.98794e-06 1.56171e-05 0.0899637)
(-1.56898e-05 -2.08029e-06 0.0899672)
(4.74925e-06 -5.94664e-06 0.0725388)
(5.76041e-06 -4.80013e-06 0.0724456)
(-3.44725e-06 1.59477e-05 0.0724134)
(-0.000151044 0.000151018 0.10655)
(2.43828e-06 1.45111e-05 0.089811)
(-1.43357e-05 -2.40641e-06 0.0898147)
(-1.88428e-05 3.56341e-05 0.089816)
(-3.55924e-05 1.88341e-05 0.0898171)
(5.01603e-06 -5.84381e-06 0.072448)
(-1.59586e-05 3.42676e-06 0.0724109)
(6.20535e-05 6.3477e-06 0.103006)
(7.53275e-05 3.0844e-05 0.0963593)
(0.000104705 2.12561e-05 0.108055)
(9.50862e-05 5.8975e-05 0.107612)
(0.000126231 7.52255e-06 0.102968)
(3.01582e-05 2.0031e-06 0.096369)
(0.000104294 2.11154e-05 0.108126)
(2.08138e-05 -2.15088e-06 0.0947508)
(3.83064e-05 2.70352e-06 0.0840943)
(7.04541e-05 -2.88368e-06 0.094794)
(-1.17693e-06 5.19011e-06 0.0840812)
(6.20606e-05 -6.36437e-06 0.103006)
(0.000104724 -2.12927e-05 0.108055)
(7.53447e-05 -3.09265e-05 0.0963592)
(9.50758e-05 -5.9098e-05 0.107611)
(0.000126212 -7.58676e-06 0.102968)
(0.000104303 -2.11585e-05 0.108126)
(3.03053e-05 -2.07555e-06 0.0963678)
(6.691e-05 2.57149e-06 0.0946025)
(-2.3657e-06 -4.83178e-06 0.0839459)
(3.66574e-05 -2.37372e-06 0.083954)
(1.79144e-05 1.87974e-06 0.0945639)
(0.000122416 7.06239e-06 0.102849)
(9.46489e-05 5.87404e-05 0.107666)
(2.77812e-05 1.3847e-06 0.0962015)
(0.000103533 2.08418e-05 0.108267)
(7.25468e-05 2.95985e-05 0.0961897)
(0.000103919 2.09782e-05 0.108197)
(5.86728e-05 5.75293e-06 0.102883)
(6.69135e-05 -2.63698e-06 0.0946023)
(-2.26957e-06 4.87596e-06 0.0839453)
(3.66941e-05 2.3127e-06 0.083954)
(1.79165e-05 -1.87536e-06 0.0945636)
(0.00012242 -7.12456e-06 0.102849)
(9.46145e-05 -5.8841e-05 0.107665)
(0.000103524 -2.08744e-05 0.108267)
(2.78675e-05 -1.3342e-06 0.0962002)
(0.00010391 -2.10161e-05 0.108197)
(7.25699e-05 -2.96531e-05 0.0961898)
(5.86736e-05 -5.74197e-06 0.102883)
(-2.09115e-05 2.24844e-06 0.094752)
(1.20138e-06 -5.18234e-06 0.0840834)
(-6.21159e-05 -6.31256e-06 0.103006)
(-9.50263e-05 -5.90353e-05 0.107612)
(-0.000104289 -2.11646e-05 0.108126)
(-3.03417e-05 -2.10558e-06 0.0963694)
(-2.08771e-05 -2.04475e-06 0.0947507)
(1.20371e-06 5.19264e-06 0.0840813)
(-0.000122404 7.04228e-06 0.102849)
(-9.46122e-05 5.8705e-05 0.107666)
(-2.78772e-05 1.4123e-06 0.0962042)
(-0.000103525 2.08287e-05 0.108267)
(-7.24744e-05 2.95798e-05 0.0961898)
(-0.000103916 2.09743e-05 0.108197)
(-5.87472e-05 5.83423e-06 0.102883)
(-6.68835e-05 2.56248e-06 0.0946012)
(2.32907e-06 -4.87331e-06 0.0839476)
(-3.66523e-05 -2.29923e-06 0.0839529)
(-1.80235e-05 1.98086e-06 0.0945648)
(-0.000122414 -7.10136e-06 0.102849)
(-9.45533e-05 -5.87805e-05 0.107665)
(-0.000103512 -2.0881e-05 0.108267)
(-2.79812e-05 -1.39279e-06 0.0962019)
(-0.000103894 -2.10236e-05 0.108197)
(-7.25084e-05 -2.9614e-05 0.0961896)
(-5.86829e-05 -5.68833e-06 0.102882)
(-6.69133e-05 -2.62909e-06 0.094602)
(2.3195e-06 4.86169e-06 0.0839453)
(-3.67309e-05 2.32817e-06 0.0839536)
(-1.79973e-05 -1.79258e-06 0.0945635)
(3.69721e-05 -1.9467e-05 0.0899734)
(1.95087e-05 -3.69081e-05 0.0899754)
(1.40647e-05 -1.39994e-05 0.106681)
(1.56579e-05 2.01729e-06 0.0899618)
(-1.93854e-06 -1.55892e-05 0.0899659)
(3.47268e-06 -1.63681e-05 0.0725071)
(-5.88135e-06 4.8169e-06 0.0725369)
(-4.97754e-06 5.84856e-06 0.0724448)
(1.59589e-05 -3.48566e-06 0.0724136)
(0.000151041 -0.000151054 0.10655)
(1.43299e-05 2.33511e-06 0.0898091)
(-2.25417e-06 -1.42659e-05 0.0898133)
(3.56118e-05 -1.88538e-05 0.0898167)
(1.88872e-05 -3.55288e-05 0.0898186)
(-5.77379e-06 5.03998e-06 0.0724459)
(3.50854e-06 -1.59592e-05 0.0724139)
(-6.4145e-06 -6.21047e-05 0.103006)
(-2.12963e-05 -0.000104699 0.108055)
(-3.09459e-05 -7.53416e-05 0.0963588)
(-5.89572e-05 -9.50653e-05 0.107612)
(-7.56107e-06 -0.000126195 0.102967)
(-2.11523e-05 -0.000104277 0.108126)
(-2.14017e-06 -3.01928e-05 0.0963678)
(2.11844e-06 -2.08798e-05 0.0947507)
(-2.66049e-06 -3.82603e-05 0.0840954)
(2.88568e-06 -7.04346e-05 0.0947936)
(-5.08182e-06 1.29241e-06 0.0840824)
(-2.14583e-06 -2.08547e-05 0.0947507)
(2.70339e-06 -3.82919e-05 0.084094)
(-2.8739e-06 -7.04353e-05 0.0947926)
(5.17319e-06 1.22252e-06 0.0840808)
(7.09245e-06 -0.000122419 0.102849)
(5.86493e-05 -9.45874e-05 0.107666)
(2.0826e-05 -0.000103546 0.108267)
(1.46459e-06 -2.77394e-05 0.0962028)
(2.09678e-05 -0.000103957 0.108197)
(2.96627e-05 -7.24581e-05 0.0961915)
(5.71227e-06 -5.87178e-05 0.102882)
(-7.08597e-06 -0.000122381 0.102848)
(-5.87078e-05 -9.46084e-05 0.107666)
(-2.08759e-05 -0.000103509 0.108267)
(-1.38636e-06 -2.77373e-05 0.0962003)
(-2.10112e-05 -0.000103914 0.108197)
(-2.96619e-05 -7.25323e-05 0.0961896)
(-5.76772e-06 -5.87133e-05 0.102883)
(2.65733e-06 -6.69047e-05 0.094602)
(-4.76466e-06 2.38505e-06 0.0839466)
(-2.26318e-06 -3.66432e-05 0.0839552)
(1.878e-06 -1.79992e-05 0.0945636)
(-2.60415e-06 -6.69043e-05 0.0946009)
(4.86036e-06 2.30114e-06 0.0839449)
(2.32101e-06 -3.66687e-05 0.0839537)
(-1.85404e-06 -1.79707e-05 0.0945636)
(4.77215e-06 5.95124e-06 0.0725364)
(5.97508e-06 4.7559e-06 0.0725355)
(-0.000151086 -0.00015104 0.10655)
(-1.43281e-05 2.36421e-06 0.0898122)
(2.36051e-06 -1.42841e-05 0.0898091)
(-3.56275e-05 -1.88645e-05 0.0898173)
(-1.88369e-05 -3.56045e-05 0.0898163)
(5.00799e-06 5.84222e-06 0.0724454)
(-1.5988e-05 -3.46069e-06 0.0724132)
(5.86972e-06 4.97092e-06 0.0724444)
(-3.46679e-06 -1.59608e-05 0.0724132)
(3.62025e-06 1.56487e-05 0.0723248)
(-5.69879e-06 -5.22679e-06 0.0723587)
(1.55677e-05 3.46453e-06 0.0723235)
(-5.23964e-06 -5.7179e-06 0.0723578)
(1.83191e-05 3.44362e-05 0.0896699)
(3.42903e-05 1.82681e-05 0.0896664)
(1.11649e-05 1.1268e-05 0.106762)
(-2.54615e-06 1.30407e-05 0.0896676)
(1.3018e-05 -2.58138e-06 0.0896653)
(-1.69664e-06 1.52968e-05 0.0943849)
(1.99652e-06 3.52584e-05 0.0838213)
(-2.45387e-06 6.36319e-05 0.0944192)
(4.53112e-06 -3.28726e-06 0.0838165)
(5.11095e-06 5.53103e-05 0.102755)
(2.84953e-05 6.99159e-05 0.0960262)
(2.06969e-05 0.00010318 0.108337)
(5.80479e-05 9.32519e-05 0.107821)
(6.55988e-06 0.000118612 0.102725)
(7.42275e-07 2.55132e-05 0.09604)
(2.05554e-05 0.000102804 0.108405)
(-5.19211e-06 5.53175e-05 0.102755)
(-2.84217e-05 6.99179e-05 0.0960259)
(-2.0739e-05 0.000103193 0.108337)
(-5.80887e-05 9.3307e-05 0.107821)
(-6.67141e-06 0.000118622 0.102725)
(-7.59143e-07 2.55959e-05 0.0960385)
(-2.05934e-05 0.000102815 0.108405)
(-1.80678e-05 3.43422e-05 0.0896668)
(-3.42886e-05 1.82435e-05 0.089668)
(-1.11791e-05 1.12426e-05 0.106762)
(2.55866e-06 1.3128e-05 0.0896656)
(-1.30871e-05 -2.67629e-06 0.0896693)
(-1.55248e-05 3.43852e-06 0.072322)
(5.24223e-06 -5.7392e-06 0.0723611)
(5.53222e-05 5.15665e-06 0.102755)
(6.98648e-05 2.84309e-05 0.0960256)
(0.000103162 2.07006e-05 0.108337)
(9.32631e-05 5.79474e-05 0.107821)
(0.000118598 6.59839e-06 0.102725)
(2.54784e-05 7.32489e-07 0.0960393)
(0.000102773 2.05556e-05 0.108405)
(1.52546e-05 -1.61912e-06 0.0943849)
(3.52391e-05 2.00188e-06 0.0838209)
(6.36252e-05 -2.37316e-06 0.094419)
(-3.23295e-06 4.62547e-06 0.0838164)
(5.53337e-05 -5.14172e-06 0.102755)
(0.000103148 -2.07248e-05 0.108337)
(6.99158e-05 -2.84411e-05 0.0960257)
(9.32209e-05 -5.80089e-05 0.107821)
(0.000118611 -6.63486e-06 0.102724)
(0.000102767 -2.05802e-05 0.108405)
(2.55697e-05 -6.3178e-07 0.0960379)
(-1.53683e-05 1.74261e-06 0.0943859)
(-3.51784e-05 -1.98417e-06 0.0838198)
(-6.36022e-05 2.31038e-06 0.0944178)
(3.31123e-06 -4.60863e-06 0.0838186)
(-5.53408e-05 -5.10153e-06 0.102755)
(-0.000103133 -2.07298e-05 0.108337)
(-6.99e-05 -2.84405e-05 0.0960254)
(-9.31143e-05 -5.79467e-05 0.107821)
(-0.000118584 -6.60733e-06 0.102725)
(-0.000102759 -2.05873e-05 0.108405)
(-2.56818e-05 -6.95188e-07 0.0960397)
(-1.53476e-05 -1.55733e-06 0.0943847)
(-3.52622e-05 2.00217e-06 0.0838207)
(-6.36371e-05 -2.38644e-06 0.0944186)
(3.30163e-06 4.60079e-06 0.0838164)
(3.43201e-05 -1.82678e-05 0.0896675)
(1.83141e-05 -3.42418e-05 0.0896696)
(1.11733e-05 -1.11001e-05 0.106761)
(1.30983e-05 2.62471e-06 0.0896637)
(-2.54005e-06 -1.30443e-05 0.0896679)
(3.53007e-06 -1.55646e-05 0.0723251)
(-5.68349e-06 5.2371e-06 0.072359)
(-5.15388e-06 -5.53703e-05 0.102755)
(-2.0726e-05 -0.000103165 0.108336)
(-2.84578e-05 -6.98753e-05 0.0960256)
(-5.78879e-05 -9.32262e-05 0.107821)
(-6.58532e-06 -0.000118578 0.102724)
(-2.05844e-05 -0.000102763 0.108405)
(-6.90016e-07 -2.54442e-05 0.0960381)
(1.65016e-06 -1.53503e-05 0.094385)
(-1.93542e-06 -3.51943e-05 0.0838223)
(2.43168e-06 -6.36142e-05 0.0944186)
(-4.50518e-06 3.34225e-06 0.0838177)
(-1.59432e-06 -1.53194e-05 0.094385)
(2.00249e-06 -3.52197e-05 0.0838208)
(-2.33934e-06 -6.36051e-05 0.0944175)
(4.60016e-06 3.24935e-06 0.0838161)
(-1.5591e-05 -3.49439e-06 0.0723243)
(5.20333e-06 5.73544e-06 0.0723584)
(-3.48861e-06 -1.55731e-05 0.0723243)
(5.77049e-06 5.1628e-06 0.0723576)
(-1.16605e-06 1.33285e-05 0.0780383)
(2.64495e-06 6.86494e-05 0.0946973)
(1.98604e-07 -1.02773e-05 0.0799121)
(4.17289e-06 1.39266e-05 0.0928159)
(5.4468e-08 8.39524e-06 0.0798525)
(6.39846e-06 5.91435e-05 0.0927534)
(1.52826e-07 -6.15687e-06 0.0781088)
(2.31428e-06 -6.67967e-06 0.0694216)
(5.32897e-06 3.9187e-05 0.0880754)
(-5.59095e-06 -6.4942e-07 0.0841524)
(8.62362e-07 1.24711e-05 0.0693268)
(3.69442e-06 3.64106e-06 0.0881442)
(-1.14532e-07 -6.24961e-06 0.0781575)
(2.20075e-06 2.23842e-05 0.0948475)
(-3.73204e-08 8.17623e-06 0.0799012)
(6.62721e-06 6.06585e-05 0.0928433)
(-1.40453e-06 1.32546e-05 0.0780871)
(1.14514e-07 -1.05053e-05 0.0799604)
(4.36875e-06 1.52052e-05 0.0929055)
(8.94773e-07 1.23506e-05 0.0692836)
(3.64176e-06 2.91074e-06 0.0880649)
(-2.5364e-06 3.74938e-05 0.0840233)
(5.2751e-06 3.82533e-05 0.0879956)
(2.38996e-06 -6.72451e-06 0.0693781)
(6.01059e-06 -4.73001e-06 0.0725842)
(-3.37829e-06 1.6152e-05 0.0724592)
(1.33303e-05 -1.06575e-06 0.0780386)
(6.86462e-05 2.70283e-06 0.0946973)
(1.39105e-05 4.18159e-06 0.0928161)
(-1.02941e-05 2.57604e-07 0.0799125)
(5.91639e-05 6.44839e-06 0.0927535)
(8.3753e-06 1.37965e-07 0.0798527)
(-6.1741e-06 1.47033e-07 0.0781093)
(-6.74433e-06 2.33891e-06 0.0694219)
(3.91852e-05 5.38646e-06 0.0880755)
(-6.3979e-07 -5.37134e-06 0.0841524)
(1.25027e-05 9.04684e-07 0.0693274)
(3.5789e-06 3.76142e-06 0.0881442)
(-6.27881e-06 -7.15101e-08 0.0781579)
(2.23676e-05 2.26523e-06 0.0948477)
(6.06804e-05 6.66261e-06 0.0928435)
(8.15635e-06 3.84559e-08 0.0799014)
(1.32537e-05 -1.33377e-06 0.0780874)
(1.51991e-05 4.42109e-06 0.0929058)
(-1.05291e-05 1.84839e-07 0.0799609)
(1.24017e-05 9.63736e-07 0.0692842)
(2.84276e-06 3.59244e-06 0.0880649)
(3.74549e-05 -2.68172e-06 0.0840233)
(3.82763e-05 5.2325e-06 0.0879958)
(-6.78945e-06 2.3575e-06 0.0693784)
(-4.63518e-06 6.00239e-06 0.072583)
(1.61621e-05 -3.47148e-06 0.0724597)
(-2.75444e-05 -2.75235e-05 0.0856509)
(-4.06072e-07 6.28705e-06 0.0695838)
(6.28336e-06 -4.06582e-07 0.0695771)
(-1.00449e-05 -1.20027e-05 0.0695013)
(-1.19791e-05 -1.0079e-05 0.0694951)
(-8.49998e-06 -8.47198e-06 0.0857042)
(-1.61802e-05 -2.08711e-05 0.0946917)
(-1.63473e-05 1.87749e-06 0.0900439)
(-3.28585e-05 -3.54184e-05 0.10001)
(-1.24468e-05 7.0264e-06 0.0834762)
(-2.08708e-05 -1.60719e-05 0.094683)
(1.87169e-06 -1.63336e-05 0.0900409)
(-3.53715e-05 -3.28265e-05 0.100006)
(7.01826e-06 -1.2424e-05 0.0834702)
(-8.9883e-06 -8.92595e-06 0.0857767)
(-5.73576e-07 6.29202e-06 0.0696322)
(6.2725e-06 -5.5906e-07 0.0696255)
(-6.92288e-05 -4.4242e-05 0.094537)
(-1.19827e-05 6.89646e-06 0.0834102)
(-3.6299e-05 -1.91512e-05 0.0898947)
(-3.16812e-05 -3.41614e-05 0.0999312)
(-9.96384e-05 -6.2664e-05 0.0998519)
(-3.07932e-05 -5.75458e-06 0.0833397)
(-1.53692e-05 -1.99634e-05 0.0946081)
(-4.42919e-05 -6.91739e-05 0.0945292)
(6.90208e-06 -1.19542e-05 0.0834043)
(-1.91475e-05 -3.6284e-05 0.0898936)
(-3.40865e-05 -3.1631e-05 0.0999271)
(-6.26872e-05 -9.95911e-05 0.0998488)
(-5.75782e-06 -3.08543e-05 0.0833356)
(-1.99298e-05 -1.52755e-05 0.0945994)
(-2.52496e-07 1.35786e-05 0.077857)
(2.20739e-06 6.20898e-05 0.0943307)
(4.21553e-07 -9.16736e-06 0.0797348)
(3.41138e-06 9.4764e-06 0.0924798)
(3.55759e-07 9.445e-06 0.0796746)
(5.7043e-06 5.37468e-05 0.092416)
(8.18967e-07 -5.82276e-06 0.0779275)
(2.45853e-06 -6.99866e-06 0.0692538)
(4.94391e-06 3.57514e-05 0.0877694)
(-4.587e-06 -2.82447e-06 0.0838805)
(1.06151e-06 1.19843e-05 0.0691603)
(3.23315e-06 9.69725e-07 0.0878398)
(7.16946e-07 -5.89348e-06 0.077971)
(1.72749e-06 1.65841e-05 0.0944733)
(3.1385e-07 9.15958e-06 0.0797168)
(5.87331e-06 5.50078e-05 0.092497)
(-4.69396e-07 1.3526e-05 0.0779004)
(4.10656e-07 -9.46641e-06 0.0797769)
(3.63056e-06 1.05268e-05 0.0925606)
(1.20386e-06 1.19867e-05 0.0691217)
(3.03853e-06 3.9247e-07 0.0877689)
(-1.8158e-06 3.45474e-05 0.0837575)
(4.80302e-06 3.51073e-05 0.0876984)
(2.46339e-06 -7.03163e-06 0.0692147)
(5.7883e-06 -5.05703e-06 0.0724013)
(-3.5776e-06 1.55513e-05 0.0722815)
(1.35791e-05 -2.36074e-07 0.0778572)
(6.20767e-05 2.24801e-06 0.0943306)
(9.44952e-06 3.44186e-06 0.0924798)
(-9.16976e-06 4.65415e-07 0.0797351)
(5.37294e-05 5.72319e-06 0.0924159)
(9.44889e-06 3.923e-07 0.0796747)
(-5.83111e-06 8.43838e-07 0.0779278)
(-6.96581e-06 2.49306e-06 0.0692543)
(3.58113e-05 4.97077e-06 0.0877695)
(-2.8636e-06 -4.68011e-06 0.0838805)
(1.21036e-05 1.18044e-06 0.0691611)
(9.22156e-07 3.23165e-06 0.0878398)
(-5.9147e-06 7.12738e-07 0.0779713)
(1.65586e-05 1.76643e-06 0.0944734)
(5.50018e-05 5.89198e-06 0.092497)
(9.15919e-06 3.44104e-07 0.0797169)
(1.35237e-05 -4.08296e-07 0.0779006)
(1.04822e-05 3.62405e-06 0.0925606)
(-9.47719e-06 4.29477e-07 0.0797772)
(1.20117e-05 1.23912e-06 0.069122)
(3.52022e-07 3.08003e-06 0.0877689)
(3.45325e-05 -1.82842e-06 0.0837573)
(3.50618e-05 4.84222e-06 0.0876983)
(-7.00413e-06 2.49889e-06 0.069215)
(-5.07851e-06 5.80375e-06 0.0724008)
(1.53804e-05 -3.50296e-06 0.0722818)
(-2.55475e-05 -2.55785e-05 0.0853786)
(2.65384e-07 6.218e-06 0.0694009)
(6.24847e-06 2.42904e-07 0.0693943)
(-9.4331e-06 -1.17221e-05 0.0693188)
(-1.16482e-05 -9.49513e-06 0.0693126)
(-6.74025e-06 -6.75178e-06 0.0854336)
(-1.29892e-05 -1.74125e-05 0.0943685)
(-9.53486e-05 -5.89587e-05 0.0996209)
(-2.93732e-05 -5.9876e-06 0.0831505)
(-1.37032e-05 2.50207e-06 0.0897386)
(-6.611e-05 -4.1523e-05 0.0942969)
(-2.83594e-05 -3.06718e-05 0.0997)
(-1.0536e-05 6.54737e-06 0.0832213)
(-1.73105e-05 -1.29097e-05 0.0943598)
(-5.8935e-05 -9.52838e-05 0.0996181)
(-5.95902e-06 -2.9447e-05 0.0831464)
(2.50338e-06 -1.36571e-05 0.0897355)
(-4.14919e-05 -6.60674e-05 0.0942893)
(-3.05021e-05 -2.82942e-05 0.0996958)
(6.57759e-06 -1.05148e-05 0.0832153)
(-7.15503e-06 -7.15866e-06 0.0854985)
(-9.58334e-06 -1.17892e-05 0.0693628)
(-1.17214e-05 -9.64251e-06 0.0693567)
(-2.60214e-05 -2.60469e-05 0.0854439)
(1.04386e-07 6.23375e-06 0.0694451)
(6.26263e-06 8.41118e-08 0.0694385)
(-6.51125e-05 -4.06543e-05 0.0942205)
(-1.00657e-05 6.44502e-06 0.0831611)
(-3.36853e-05 -1.80027e-05 0.0895962)
(-2.73183e-05 -2.95616e-05 0.0996245)
(-9.39766e-05 -5.77854e-05 0.0995456)
(-2.8905e-05 -6.05319e-06 0.0830902)
(-1.2241e-05 -1.66026e-05 0.0942922)
(-4.0628e-05 -6.50861e-05 0.0942129)
(6.47932e-06 -1.00449e-05 0.0831552)
(-1.79821e-05 -3.36871e-05 0.0895955)
(-2.9367e-05 -2.72345e-05 0.0996203)
(-5.77439e-05 -9.39052e-05 0.0995427)
(-6.0215e-06 -2.89829e-05 0.0830862)
(-1.65101e-05 -1.21732e-05 0.0942835)
(-6.27285e-06 -4.88291e-06 0.0725837)
(3.405e-06 1.61303e-05 0.0724595)
(-4.52771e-06 -6.03055e-06 0.0725829)
(1.61333e-05 3.29846e-06 0.0724585)
(2.74569e-05 2.74984e-05 0.0856506)
(-6.26205e-06 4.01771e-07 0.0695845)
(3.05722e-07 -6.19382e-06 0.0695775)
(1.19236e-05 1.00255e-05 0.0695012)
(1.00424e-05 1.19653e-05 0.0694944)
(8.40492e-06 8.49138e-06 0.0857053)
(2.08099e-05 1.60077e-05 0.0946928)
(6.40257e-05 0.000101074 0.0999311)
(5.78159e-06 3.12937e-05 0.0834073)
(-1.97343e-06 1.61611e-05 0.090045)
(4.51961e-05 7.02964e-05 0.0946212)
(-7.10971e-06 1.23406e-05 0.0834777)
(3.53463e-05 3.2754e-05 0.100011)
(1.61231e-05 2.07189e-05 0.0946845)
(0.000100974 6.38956e-05 0.0999266)
(3.12505e-05 5.5759e-06 0.0834009)
(1.63794e-05 -1.97477e-06 0.0900423)
(7.01675e-05 4.51898e-05 0.0946123)
(1.24236e-05 -7.18079e-06 0.0834715)
(3.27756e-05 3.52901e-05 0.100007)
(8.81434e-06 8.73018e-06 0.0857778)
(1.21715e-05 1.03847e-05 0.0695501)
(1.01306e-05 1.20883e-05 0.0695431)
(2.79421e-05 2.81322e-05 0.0857237)
(-6.37431e-06 3.76202e-07 0.0696332)
(4.33239e-07 -6.57056e-06 0.0696261)
(4.42136e-05 6.91946e-05 0.0945372)
(-6.84869e-06 1.19313e-05 0.0834116)
(1.91226e-05 3.63015e-05 0.089896)
(3.41186e-05 3.16479e-05 0.0999321)
(5.68073e-06 3.07888e-05 0.0833408)
(1.99624e-05 1.53028e-05 0.0946092)
(6.26827e-05 9.96599e-05 0.0998526)
(6.91059e-05 4.42179e-05 0.0945286)
(1.18582e-05 -6.83007e-06 0.0834056)
(3.61713e-05 1.90723e-05 0.089893)
(3.15564e-05 3.40528e-05 0.0999285)
(3.07915e-05 5.77033e-06 0.0833349)
(1.52181e-05 1.99083e-05 0.0946009)
(9.9476e-05 6.2592e-05 0.0998483)
(3.55683e-06 1.57894e-05 0.0723686)
(-6.00792e-06 -4.97171e-06 0.0724905)
(1.57639e-05 3.43121e-06 0.0723674)
(-4.89265e-06 -5.96975e-06 0.0724895)
(7.99718e-06 7.99542e-06 0.085635)
(1.191e-05 9.96109e-06 0.0694541)
(9.8989e-06 1.19944e-05 0.0694473)
(2.69867e-05 2.70787e-05 0.0855798)
(-6.2425e-06 2.02146e-07 0.0695373)
(1.91112e-07 -6.29063e-06 0.0695302)
(4.24147e-05 6.71796e-05 0.0943757)
(3.17734e-05 2.9439e-05 0.0997771)
(1.85809e-05 3.50354e-05 0.0897434)
(-6.63791e-06 1.10357e-05 0.0832842)
(5.92901e-06 2.98974e-05 0.0832135)
(6.02122e-05 9.68171e-05 0.0996982)
(1.82256e-05 1.37628e-05 0.0944476)
(6.70686e-05 4.24274e-05 0.0943668)
(2.93781e-05 3.16943e-05 0.0997736)
(3.49335e-05 1.85163e-05 0.0897401)
(1.09629e-05 -6.65584e-06 0.0832782)
(2.98748e-05 5.96002e-06 0.0832071)
(9.6669e-05 6.01435e-05 0.0996936)
(1.36815e-05 1.81757e-05 0.0944394)
(1.90891e-05 1.44964e-05 0.0945275)
(5.8719e-06 3.03606e-05 0.0832765)
(6.14354e-05 9.8229e-05 0.099775)
(-2.2339e-06 1.48927e-05 0.0898886)
(4.33159e-05 6.81997e-05 0.0944555)
(-6.72018e-06 1.14369e-05 0.0833472)
(3.29114e-05 3.04901e-05 0.0998542)
(1.44998e-05 1.90185e-05 0.0945193)
(3.03225e-05 5.87257e-06 0.0832701)
(9.80906e-05 6.13681e-05 0.0997705)
(1.49274e-05 -2.28316e-06 0.0898859)
(6.8074e-05 4.33485e-05 0.0944467)
(1.14456e-05 -6.7835e-06 0.0833412)
(3.05004e-05 3.287e-05 0.0998507)
(2.65141e-05 2.65727e-05 0.0855109)
(-6.37327e-06 5.15241e-08 0.069491)
(-5.43767e-09 -6.29028e-06 0.069484)
(1.18507e-05 9.79768e-06 0.0694082)
(9.79071e-06 1.18989e-05 0.0694012)
(7.5084e-06 7.56987e-06 0.0855664)
(8.58729e-07 1.33272e-05 0.0780379)
(-2.83851e-06 6.86472e-05 0.0946973)
(-3.59083e-07 -1.02854e-05 0.079912)
(-4.28729e-06 1.3905e-05 0.0928153)
(-2.82697e-07 8.38275e-06 0.0798525)
(-6.59476e-06 5.91535e-05 0.092754)
(-2.97503e-07 -6.17853e-06 0.078108)
(-2.44416e-06 -6.73616e-06 0.0694232)
(-5.46382e-06 3.91401e-05 0.0880769)
(5.31973e-06 -6.48823e-07 0.0841523)
(-9.68044e-07 1.24458e-05 0.0693296)
(-3.87423e-06 3.60561e-06 0.0881441)
(-7.32264e-08 -6.26345e-06 0.0781567)
(-2.33889e-06 2.23748e-05 0.0948475)
(-1.78736e-07 8.16393e-06 0.0799012)
(-6.77189e-06 6.06567e-05 0.092844)
(-2.96469e-07 -1.0519e-05 0.0799604)
(1.20817e-06 1.32393e-05 0.0780867)
(-4.51114e-06 1.52016e-05 0.0929049)
(-1.11695e-06 1.24446e-05 0.0692862)
(-3.72654e-06 2.88092e-06 0.0880648)
(2.47078e-06 3.74866e-05 0.0840234)
(-5.42139e-06 3.83121e-05 0.087997)
(-2.49572e-06 -6.76295e-06 0.0693797)
(3.5764e-07 -6.06238e-06 0.0780616)
(1.41426e-07 8.63536e-06 0.0798057)
(6.20674e-06 5.76854e-05 0.0926657)
(1.93278e-06 1.93518e-05 0.0946563)
(-9.25645e-07 1.3393e-05 0.0779911)
(2.54932e-07 -1.00164e-05 0.0798655)
(3.95333e-06 1.26946e-05 0.0927286)
(9.85093e-07 1.21348e-05 0.0692008)
(-1.97464e-06 3.59092e-05 0.083887)
(3.32265e-06 1.31948e-06 0.0879127)
(2.18894e-06 -7.21535e-06 0.0692942)
(5.10966e-06 3.64868e-05 0.0878428)
(2.4289e-06 -6.74778e-06 0.0693357)
(5.1954e-06 3.73257e-05 0.0879182)
(-5.02147e-06 -1.83567e-06 0.0840129)
(9.62211e-07 1.22166e-05 0.0692415)
(3.51201e-06 2.26479e-06 0.0879879)
(-7.62553e-07 1.34442e-05 0.0779451)
(2.39657e-06 6.52455e-05 0.0945098)
(2.9116e-07 -9.75939e-06 0.0798205)
(3.70796e-06 1.15262e-05 0.0926435)
(3.05992e-07 -6.05086e-06 0.0780157)
(1.90345e-07 8.89813e-06 0.0797605)
(5.97798e-06 5.6282e-05 0.0925803)
(-4.61218e-07 -6.09948e-06 0.0780607)
(-3.26604e-07 8.62905e-06 0.0798056)
(-6.3613e-06 5.76878e-05 0.0926663)
(-2.07476e-06 1.93503e-05 0.0946562)
(7.0432e-07 1.3377e-05 0.0779906)
(-4.05384e-07 -1.0017e-05 0.0798654)
(-4.07716e-06 1.26943e-05 0.0927279)
(-1.18499e-06 1.21896e-05 0.069203)
(2.09335e-06 3.59681e-05 0.0838868)
(-3.49752e-06 1.54599e-06 0.0879125)
(-5.1664e-06 3.66004e-05 0.087844)
(-2.54782e-06 -6.9176e-06 0.0692958)
(-2.49982e-06 -6.85079e-06 0.0693372)
(-5.27668e-06 3.74138e-05 0.0879195)
(4.9351e-06 -1.82095e-06 0.0840125)
(-1.11499e-06 1.22855e-05 0.0692441)
(-3.57152e-06 2.19743e-06 0.0879876)
(4.92489e-07 1.34511e-05 0.0779446)
(-2.57461e-06 6.5244e-05 0.0945098)
(-4.68024e-07 -9.74248e-06 0.0798203)
(-3.89882e-06 1.15573e-05 0.0926428)
(-3.78265e-07 8.8932e-06 0.0797603)
(-6.18175e-06 5.63176e-05 0.0925808)
(-6.52801e-07 -5.99693e-06 0.0780148)
(-2.757e-05 2.75365e-05 0.0856514)
(6.26586e-06 3.32878e-07 0.0695786)
(-4.26068e-07 -6.34352e-06 0.0695839)
(-1.20399e-05 1.00977e-05 0.0694955)
(-1.00383e-05 1.1995e-05 0.069501)
(-8.52109e-06 8.38687e-06 0.0857053)
(-2.09056e-05 1.60762e-05 0.0946844)
(1.81396e-06 1.63047e-05 0.0900429)
(6.9589e-06 1.24248e-05 0.083472)
(-3.54652e-05 3.28174e-05 0.100007)
(-1.61942e-05 2.0832e-05 0.0946932)
(-1.63868e-05 -1.91613e-06 0.0900462)
(-3.29232e-05 3.5359e-05 0.100012)
(-1.24725e-05 -7.0851e-06 0.0834777)
(-9.01341e-06 8.85744e-06 0.0857777)
(6.23496e-06 4.94448e-07 0.0696269)
(-6.05441e-07 -6.34941e-06 0.0696323)
(-4.43252e-05 6.91702e-05 0.094529)
(6.85162e-06 1.19658e-05 0.0834062)
(-1.9136e-05 3.62971e-05 0.0898932)
(-3.4215e-05 3.16587e-05 0.0999285)
(-5.80344e-06 3.08316e-05 0.0833351)
(-6.26828e-05 9.96059e-05 0.0998486)
(-1.99731e-05 1.52729e-05 0.0946009)
(-6.92423e-05 4.4281e-05 0.0945378)
(-1.19898e-05 -6.96433e-06 0.0834117)
(-3.62588e-05 1.91418e-05 0.0898946)
(-3.17578e-05 3.40997e-05 0.0999331)
(-9.95771e-05 6.26827e-05 0.0998525)
(-3.07748e-05 5.77504e-06 0.0833405)
(-1.53621e-05 1.99187e-05 0.0946096)
(4.62851e-06 -6.01298e-06 0.0725857)
(-1.61599e-05 3.41824e-06 0.0724572)
(-3.44378e-06 1.58066e-05 0.0723684)
(5.87056e-06 -4.92797e-06 0.0724905)
(-8.0615e-06 7.87337e-06 0.0856348)
(-1.19488e-05 9.96282e-06 0.0694484)
(-9.89616e-06 1.19102e-05 0.0694538)
(-2.70529e-05 2.70313e-05 0.0855805)
(6.30916e-06 1.19314e-07 0.0695313)
(-2.72804e-07 -6.35305e-06 0.0695366)
(-4.24359e-05 6.70656e-05 0.0943671)
(-3.17601e-05 2.94173e-05 0.0997734)
(-1.85061e-05 3.50247e-05 0.0897405)
(6.76562e-06 1.10415e-05 0.0832791)
(-6.01366e-05 9.67487e-05 0.0996939)
(-5.89909e-06 2.99014e-05 0.0832072)
(-1.81632e-05 1.36471e-05 0.0944394)
(-6.71319e-05 4.23932e-05 0.094376)
(-2.94936e-05 3.16894e-05 0.0997781)
(-3.49138e-05 1.85289e-05 0.0897416)
(-1.10273e-05 -6.76277e-06 0.0832843)
(-2.98427e-05 5.90649e-06 0.0832128)
(-9.6715e-05 6.0164e-05 0.0996979)
(-1.37551e-05 1.81263e-05 0.0944479)
(-1.90598e-05 1.44483e-05 0.0945192)
(-5.8676e-06 3.03613e-05 0.0832704)
(-6.1413e-05 9.81635e-05 0.0997709)
(2.1826e-06 1.49768e-05 0.0898863)
(-3.29847e-05 3.05277e-05 0.0998506)
(-4.33597e-05 6.81016e-05 0.0944471)
(6.79281e-06 1.14957e-05 0.0833418)
(-1.45589e-05 1.90074e-05 0.0945278)
(-3.03053e-05 5.85589e-06 0.0832759)
(-9.81545e-05 6.14285e-05 0.0997748)
(-1.49982e-05 -2.25045e-06 0.0898901)
(-6.81728e-05 4.33257e-05 0.094456)