/*--------------------------------*- C++ -*----------------------------------*\
| =========                 |                                                 |
| \\      /  F ield         | OpenFOAM: The Open Source CFD Toolbox           |
|  \\    /   O peration     | Version:  2312                                  |
|   \\  /    A nd           | Website:  www.openfoam.com                      |
|    \\/     M anipulation  |                                                 |
\*---------------------------------------------------------------------------*/
FoamFile
{
    version     2.0;
    format      ascii;
    arch        "LSB;label=32;scalar=64";
    class       volScalarField;
    location    "550";
    object      epsilon;
}
// * * * * * * * * * * * * * * * * * * * * * * * * * * * * * * * * * * * * * //

dimensions      [0 2 -3 0 0 0 0];

internalField   nonuniform List<scalar> 
43168
(
6.63537e-07
1.1884e-06
1.18852e-06
1.42052e-06
1.41838e-06
1.18792e-06
1.18781e-06
1.41832e-06
1.18774e-06
1.18792e-06
1.18782e-06
1.18794e-06
1.41846e-06
1.18793e-06
1.18779e-06
1.41846e-06
1.4205e-06
1.18851e-06
1.18841e-06
1.42045e-06
1.18833e-06
1.18851e-06
1.18853e-06
1.42059e-06
1.18837e-06
9.5661e-06
9.56766e-06
6.62194e-07
6.62205e-07
6.62323e-07
6.62295e-07
4.24109e-06
9.57263e-06
4.24062e-06
9.577e-06
1.91047e-05
1.91147e-05
4.24117e-06
9.57383e-06
4.24068e-06
9.57858e-06
6.63541e-07
6.63667e-07
6.63627e-07
2.2966e-06
3.64927e-06
9.37663e-07
1.18894e-06
2.29655e-06
3.64952e-06
9.38468e-07
1.91061e-05
1.9116e-05
2.29662e-06
9.37767e-07
3.64928e-06
1.18906e-06
2.29658e-06
9.38555e-07
3.64955e-06
5.65369e-06
5.65545e-06
1.41955e-06
5.65462e-06
5.65639e-06
1.90911e-05
1.90944e-05
1.41716e-06
5.65055e-06
5.65233e-06
1.91018e-05
1.90917e-05
1.91051e-05
1.9095e-05
1.41934e-06
5.65259e-06
5.65438e-06
5.65167e-06
5.65341e-06
1.18667e-06
3.64722e-06
4.23949e-06
9.57163e-06
9.56712e-06
4.24e-06
4.23944e-06
9.57182e-06
9.56735e-06
4.23994e-06
2.29592e-06
1.18732e-06
3.64833e-06
9.36785e-07
3.64801e-06
9.35919e-07
2.29603e-06
2.29587e-06
1.18713e-06
3.64871e-06
9.36725e-07
3.64843e-06
9.35845e-07
2.29598e-06
1.91041e-05
1.9094e-05
1.41929e-06
5.65405e-06
5.65288e-06
5.65322e-06
1.91031e-05
1.18648e-06
3.64779e-06
4.23954e-06
9.5732e-06
9.56832e-06
4.24008e-06
2.29592e-06
1.18714e-06
3.64889e-06
9.36766e-07
3.64855e-06
9.359e-07
2.29607e-06
4.23948e-06
9.57272e-06
9.56814e-06
4.24001e-06
2.29587e-06
1.18732e-06
9.36804e-07
3.64879e-06
9.35934e-07
3.64845e-06
2.29601e-06
3.64852e-06
9.3682e-07
2.29608e-06
9.57239e-06
4.24014e-06
9.36836e-07
3.64841e-06
2.29603e-06
9.57247e-06
4.24003e-06
1.91055e-05
1.90954e-05
1.41941e-06
5.6542e-06
5.65276e-06
5.65321e-06
5.65179e-06
1.9103e-05
1.9093e-05
2.29602e-06
1.18733e-06
9.36917e-07
3.64853e-06
9.36055e-07
3.6482e-06
2.29611e-06
2.29594e-06
1.18719e-06
9.36849e-07
3.64893e-06
9.35986e-07
3.64859e-06
2.29603e-06
4.23973e-06
9.5726e-06
9.56816e-06
4.24016e-06
4.23975e-06
9.57304e-06
9.56861e-06
4.24012e-06
1.41931e-06
5.65265e-06
5.65442e-06
5.65344e-06
1.9104e-05
1.91063e-05
1.90962e-05
1.91024e-05
1.91123e-05
1.91057e-05
1.91156e-05
5.65368e-06
5.65543e-06
1.41949e-06
5.65455e-06
5.65635e-06
1.91129e-05
1.91162e-05
1.42156e-06
5.65563e-06
5.65737e-06
4.24102e-06
9.57282e-06
4.24057e-06
9.57721e-06
2.29655e-06
3.64909e-06
9.37633e-07
1.18905e-06
2.2965e-06
3.64935e-06
9.38422e-07
2.2965e-06
3.6495e-06
9.37576e-07
1.18894e-06
2.29644e-06
3.64973e-06
9.38365e-07
4.24168e-06
9.57799e-06
4.24162e-06
9.5782e-06
2.29698e-06
1.18958e-06
3.65009e-06
9.39196e-07
2.29692e-06
1.18947e-06
3.6505e-06
9.39139e-07
5.65523e-06
5.65389e-06
1.41945e-06
5.65601e-06
5.65478e-06
1.91037e-05
1.91136e-05
1.91152e-05
1.42151e-06
5.65717e-06
5.65579e-06
1.91141e-05
2.29659e-06
3.64963e-06
9.37616e-07
1.18887e-06
2.2965e-06
3.64992e-06
9.38407e-07
4.2411e-06
9.57337e-06
4.24061e-06
9.57818e-06
2.29653e-06
9.37652e-07
3.64953e-06
1.18905e-06
2.29644e-06
9.38442e-07
3.64981e-06
4.24174e-06
9.57919e-06
2.297e-06
1.1894e-06
3.65064e-06
9.39183e-07
4.24167e-06
9.57878e-06
2.29694e-06
1.18957e-06
9.39219e-07
3.65054e-06
4.24122e-06
9.57337e-06
4.24084e-06
9.57777e-06
2.29656e-06
9.37683e-07
3.64916e-06
1.18907e-06
2.2965e-06
9.38476e-07
3.64944e-06
4.24111e-06
9.5731e-06
4.24066e-06
9.57787e-06
2.29704e-06
1.18946e-06
3.65026e-06
9.39222e-07
4.24189e-06
9.57876e-06
2.29699e-06
1.18959e-06
9.39249e-07
3.65017e-06
4.24171e-06
9.57847e-06
5.65523e-06
5.65382e-06
1.41957e-06
5.65617e-06
5.65474e-06
1.91036e-05
1.91136e-05
1.91166e-05
1.42164e-06
5.65718e-06
5.65579e-06
1.91141e-05
2.29654e-06
9.37699e-07
3.64968e-06
1.18891e-06
2.2965e-06
9.38485e-07
3.64995e-06
4.24124e-06
9.57359e-06
4.24085e-06
9.57798e-06
4.2412e-06
9.57402e-06
4.24088e-06
9.57843e-06
2.29706e-06
1.18958e-06
9.39329e-07
3.65029e-06
2.29698e-06
1.18944e-06
9.39259e-07
3.65068e-06
4.24191e-06
9.57897e-06
4.24193e-06
9.57941e-06
1.91045e-05
1.91145e-05
1.91069e-05
1.91168e-05
1.4216e-06
5.65565e-06
5.6574e-06
1.9115e-05
1.91174e-05
2.27633e-05
7.24529e-06
9.56436e-06
7.24551e-06
2.27701e-05
9.5655e-06
1.26699e-05
4.24116e-06
1.12609e-05
4.88717e-06
1.12581e-05
4.88725e-06
1.26734e-05
2.27886e-05
7.24912e-06
9.57434e-06
2.27818e-05
7.24888e-06
1.26698e-05
4.24056e-06
1.12549e-05
4.88663e-06
1.26662e-05
1.12576e-05
4.88656e-06
2.27879e-05
7.25005e-06
9.5753e-06
7.2503e-06
2.27946e-05
1.91094e-05
1.91099e-05
1.267e-05
4.24122e-06
4.88719e-06
1.12611e-05
4.88727e-06
1.12583e-05
1.26735e-05
2.27883e-05
7.24914e-06
9.57592e-06
2.27816e-05
7.2489e-06
1.26699e-05
4.24063e-06
4.88665e-06
1.12551e-05
1.26663e-05
4.88657e-06
1.12578e-05
2.27877e-05
7.25007e-06
9.57653e-06
7.25032e-06
2.27944e-05
1.91108e-05
1.91114e-05
9.97154e-06
2.24192e-05
2.24185e-05
2.24131e-05
2.24124e-05
9.97116e-06
4.70578e-06
2.97596e-06
9.93721e-06
5.65362e-06
4.70617e-06
2.97576e-06
9.93895e-06
4.71159e-06
2.97715e-06
9.9417e-06
5.65541e-06
4.71196e-06
2.97695e-06
9.94402e-06
9.96948e-06
2.24076e-05
2.24069e-05
9.96985e-06
2.24137e-05
2.2413e-05
4.70676e-06
9.94162e-06
5.65468e-06
2.97602e-06
2.97624e-06
9.93989e-06
4.70635e-06
4.71253e-06
9.94655e-06
5.65644e-06
2.97721e-06
2.97742e-06
9.9446e-06
4.71215e-06
1.90863e-05
1.90896e-05
9.96479e-06
2.23964e-05
2.23957e-05
2.23902e-05
2.23895e-05
9.96443e-06
4.70426e-06
9.93036e-06
5.65063e-06
2.97481e-06
9.92862e-06
4.70384e-06
2.97502e-06
4.71003e-06
9.93545e-06
5.65237e-06
2.97594e-06
9.9337e-06
4.70964e-06
2.97615e-06
1.90971e-05
1.90965e-05
1.91003e-05
1.90997e-05
9.96616e-06
2.23959e-05
2.23952e-05
9.96653e-06
2.24021e-05
2.24013e-05
4.70551e-06
2.97542e-06
5.65269e-06
9.93589e-06
9.93415e-06
2.97564e-06
4.70507e-06
4.71128e-06
2.97657e-06
5.65443e-06
9.94099e-06
9.93924e-06
2.97678e-06
4.71086e-06
4.70447e-06
9.9314e-06
2.97534e-06
5.65158e-06
4.70489e-06
9.9332e-06
2.97512e-06
4.71026e-06
9.93649e-06
2.97647e-06
5.65336e-06
4.71067e-06
9.93829e-06
2.97627e-06
9.96825e-06
2.24077e-05
2.24069e-05
2.24015e-05
2.24008e-05
9.96787e-06
1.26624e-05
1.12482e-05
4.88535e-06
4.23943e-06
1.26589e-05
1.1251e-05
4.88528e-06
2.27757e-05
9.56989e-06
7.2477e-06
2.27824e-05
7.24793e-06
2.27763e-05
7.24672e-06
9.56891e-06
2.27695e-05
7.2465e-06
1.26627e-05
4.24006e-06
1.12544e-05
4.88593e-06
1.26661e-05
1.12515e-05
4.886e-06
1.26621e-05
1.12484e-05
4.88526e-06
4.23937e-06
1.26597e-05
1.12506e-05
4.88516e-06
2.27761e-05
9.57011e-06
7.24641e-06
7.24663e-06
2.27828e-05
2.27767e-05
7.24542e-06
9.56911e-06
2.27699e-05
7.24521e-06
1.26634e-05
4.24001e-06
1.12539e-05
4.8858e-06
1.12518e-05
4.88591e-06
1.26658e-05
1.90994e-05
1.90988e-05
4.71138e-06
2.97651e-06
5.65424e-06
9.9406e-06
2.97672e-06
9.93885e-06
4.71095e-06
4.70557e-06
2.97548e-06
5.65293e-06
9.93677e-06
9.93433e-06
2.97568e-06
4.70515e-06
2.97641e-06
5.65304e-06
2.97621e-06
9.96844e-06
2.24075e-05
2.24084e-05
2.24014e-05
2.24021e-05
9.96795e-06
1.90981e-05
1.26626e-05
4.88535e-06
1.12483e-05
4.23951e-06
1.2659e-05
4.88529e-06
1.12511e-05
2.27754e-05
9.57107e-06
7.24772e-06
2.27822e-05
7.24795e-06
2.2776e-05
7.24674e-06
9.57043e-06
2.27692e-05
7.24652e-06
1.26629e-05
4.24012e-06
4.88594e-06
1.12545e-05
1.26661e-05
4.88601e-06
1.12517e-05
1.26628e-05
1.12481e-05
4.88517e-06
4.23944e-06
1.26592e-05
1.1251e-05
4.88512e-06
2.27753e-05
9.57071e-06
7.24608e-06
7.24631e-06
2.27821e-05
2.27759e-05
7.24511e-06
9.5699e-06
2.27691e-05
7.24488e-06
1.2663e-05
4.24005e-06
1.12543e-05
4.88577e-06
1.12515e-05
4.88583e-06
1.26663e-05
2.27742e-05
9.57064e-06
7.24733e-06
7.24776e-06
2.27812e-05
1.26629e-05
4.24029e-06
4.88589e-06
1.1254e-05
4.88616e-06
1.12519e-05
1.26653e-05
2.27753e-05
9.57032e-06
7.24589e-06
7.24613e-06
2.2782e-05
1.26627e-05
4.2401e-06
1.12539e-05
4.88571e-06
1.12517e-05
4.88581e-06
1.26662e-05
1.91008e-05
1.91002e-05
9.96567e-06
2.23951e-05
2.23955e-05
9.96605e-06
2.24012e-05
2.24016e-05
4.71127e-06
2.97659e-06
5.65423e-06
9.94086e-06
2.97676e-06
9.93846e-06
4.7109e-06
4.70534e-06
2.97546e-06
5.65281e-06
9.93585e-06
9.9341e-06
2.97566e-06
4.70497e-06
4.71029e-06
9.93573e-06
2.97645e-06
5.65319e-06
2.97628e-06
4.71066e-06
9.9381e-06
4.70437e-06
9.9314e-06
2.97535e-06
5.65174e-06
4.70473e-06
9.93313e-06
2.97517e-06
9.96777e-06
2.24068e-05
2.24072e-05
2.24007e-05
2.24011e-05
9.96738e-06
1.90983e-05
1.90977e-05
1.26619e-05
4.88539e-06
1.12485e-05
4.23959e-06
1.26595e-05
4.8853e-06
1.12506e-05
2.27747e-05
9.57087e-06
7.24734e-06
7.24757e-06
2.27814e-05
2.27753e-05
7.24637e-06
9.56989e-06
2.27685e-05
7.24615e-06
1.2663e-05
4.2403e-06
4.88594e-06
1.12539e-05
4.88604e-06
1.12518e-05
1.26655e-05
1.26626e-05
4.88534e-06
1.12483e-05
4.23955e-06
1.26594e-05
4.88519e-06
1.12504e-05
2.27762e-05
9.57131e-06
7.24637e-06
7.24662e-06
2.2783e-05
2.27769e-05
7.24542e-06
9.57032e-06
2.27701e-05
7.24517e-06
1.26631e-05
4.24032e-06
4.88583e-06
1.12537e-05
4.88599e-06
1.12516e-05
1.26661e-05
9.96606e-06
2.24025e-05
2.24018e-05
4.70557e-06
2.97548e-06
5.65269e-06
9.93624e-06
4.70519e-06
2.97568e-06
9.93444e-06
4.71137e-06
2.97666e-06
5.65445e-06
9.94136e-06
4.71101e-06
2.97686e-06
9.93895e-06
4.70456e-06
5.6516e-06
2.97516e-06
9.93352e-06
4.71039e-06
2.97656e-06
5.6534e-06
2.97637e-06
9.93859e-06
9.96815e-06
2.24081e-05
2.24074e-05
9.96779e-06
2.2402e-05
2.24013e-05
1.90992e-05
1.90986e-05
1.91016e-05
1.9101e-05
1.91071e-05
1.91077e-05
1.91104e-05
1.91109e-05
9.97163e-06
2.24187e-05
2.2418e-05
2.24126e-05
2.24119e-05
9.97123e-06
4.70566e-06
2.97593e-06
9.93686e-06
5.65358e-06
4.7061e-06
9.93863e-06
2.9757e-06
4.71145e-06
2.97707e-06
9.94195e-06
5.65537e-06
4.71187e-06
9.94373e-06
2.97685e-06
9.96956e-06
2.24071e-05
2.24064e-05
9.96995e-06
2.24132e-05
2.24125e-05
4.70668e-06
9.9413e-06
5.65466e-06
2.97596e-06
9.93958e-06
4.70622e-06
2.97619e-06
4.71245e-06
9.9464e-06
5.65641e-06
2.97711e-06
9.94468e-06
4.71202e-06
2.97733e-06
1.91175e-05
1.91208e-05
9.97289e-06
2.24181e-05
2.24174e-05
9.9733e-06
2.24242e-05
2.24235e-05
4.70677e-06
9.94227e-06
2.97644e-06
5.65551e-06
4.70724e-06
9.94398e-06
2.9762e-06
4.71256e-06
9.94737e-06
2.97758e-06
5.65731e-06
4.71301e-06
9.94908e-06
2.97735e-06
1.26708e-05
4.24111e-06
1.12605e-05
4.88705e-06
1.12584e-05
4.88715e-06
1.26731e-05
2.27889e-05
7.24781e-06
9.57455e-06
2.27822e-05
7.24759e-06
1.26695e-05
4.24049e-06
1.12551e-05
4.88653e-06
1.12573e-05
1.26671e-05
4.88643e-06
2.27883e-05
7.24876e-06
9.57553e-06
7.24899e-06
2.2795e-05
1.26769e-05
1.12614e-05
4.88785e-06
4.2416e-06
1.26735e-05
1.12642e-05
4.88777e-06
2.28007e-05
7.25146e-06
9.57968e-06
2.2794e-05
7.2512e-06
1.26766e-05
1.12617e-05
4.88775e-06
4.24154e-06
1.26743e-05
1.12638e-05
4.88764e-06
2.2801e-05
7.25015e-06
9.57987e-06
2.27944e-05
7.24991e-06
9.97163e-06
2.24183e-05
2.2419e-05
2.24122e-05
2.2413e-05
9.97122e-06
4.71153e-06
2.977e-06
9.94156e-06
5.65504e-06
9.94334e-06
4.71191e-06
2.9768e-06
4.7057e-06
2.97597e-06
9.93708e-06
5.65383e-06
2.97575e-06
4.70611e-06
9.93943e-06
9.96958e-06
2.24067e-05
2.24075e-05
2.24128e-05
9.97e-06
2.24136e-05
4.71249e-06
9.94601e-06
5.65621e-06
2.97706e-06
9.94429e-06
2.97727e-06
4.7121e-06
4.7067e-06
9.94211e-06
5.65484e-06
2.97601e-06
2.97624e-06
9.93972e-06
4.70627e-06
1.91084e-05
1.91089e-05
1.91199e-05
9.97285e-06
2.24177e-05
2.24184e-05
9.97327e-06
2.24238e-05
2.24244e-05
4.71264e-06
9.94698e-06
2.97752e-06
5.65697e-06
2.9773e-06
4.71304e-06
9.94869e-06
4.70682e-06
9.9424e-06
2.97648e-06
5.65571e-06
4.70726e-06
9.94476e-06
2.97625e-06
1.91188e-05
1.26702e-05
4.24115e-06
1.1261e-05
4.88702e-06
1.12582e-05
4.88708e-06
1.26736e-05
2.27882e-05
7.24751e-06
9.57549e-06
2.27815e-05
7.24727e-06
1.26701e-05
4.24056e-06
1.12549e-05
4.88646e-06
1.12577e-05
1.26665e-05
4.8864e-06
2.27876e-05
7.24844e-06
9.57611e-06
7.24869e-06
2.27943e-05
1.2677e-05
4.88787e-06
1.12616e-05
4.24168e-06
1.26736e-05
4.88778e-06
1.12644e-05
2.28004e-05
7.25148e-06
9.58123e-06
2.27937e-05
7.25122e-06
1.26772e-05
1.12615e-05
4.88769e-06
4.24161e-06
1.26737e-05
1.12643e-05
4.88761e-06
2.28003e-05
7.24985e-06
9.58083e-06
2.27936e-05
7.2496e-06
1.267e-05
4.24137e-06
4.88712e-06
1.12606e-05
4.8874e-06
1.12585e-05
1.26725e-05
2.27873e-05
7.24895e-06
9.57511e-06
7.24851e-06
2.27803e-05
1.26689e-05
4.24069e-06
4.88679e-06
1.12552e-05
4.8865e-06
1.26664e-05
1.12574e-05
2.27864e-05
7.24967e-06
9.57608e-06
7.25012e-06
2.27934e-05
1.267e-05
4.24119e-06
1.12605e-05
4.88695e-06
1.12584e-05
4.88706e-06
1.26735e-05
2.27882e-05
7.24732e-06
9.57519e-06
2.27814e-05
7.24708e-06
1.26698e-05
4.24058e-06
1.12551e-05
4.88645e-06
1.26666e-05
1.12572e-05
4.88634e-06
2.27875e-05
7.24824e-06
9.5758e-06
7.2485e-06
2.27942e-05
1.26763e-05
4.888e-06
1.12618e-05
4.24173e-06
1.26736e-05
4.88772e-06
1.12639e-05
2.27994e-05
7.25127e-06
9.58043e-06
2.27925e-05
7.25082e-06
1.2677e-05
1.12616e-05
4.88767e-06
4.24162e-06
1.26736e-05
1.12638e-05
4.88755e-06
2.28002e-05
7.24966e-06
9.58052e-06
2.27936e-05
7.2494e-06
9.97115e-06
2.24179e-05
2.24183e-05
2.24118e-05
2.24122e-05
9.97074e-06
4.71148e-06
2.97704e-06
9.94133e-06
5.65519e-06
9.94348e-06
4.71187e-06
2.97687e-06
4.70556e-06
2.97595e-06
9.93688e-06
5.65375e-06
2.97574e-06
4.70595e-06
9.93865e-06
9.96907e-06
2.24063e-05
2.24067e-05
2.24124e-05
9.96947e-06
2.24128e-05
4.71245e-06
9.94602e-06
5.65621e-06
2.97713e-06
9.94422e-06
2.97731e-06
4.71205e-06
4.70653e-06
9.94133e-06
5.65482e-06
2.976e-06
2.97622e-06
9.93961e-06
4.70612e-06
1.91083e-05
1.91089e-05
1.91212e-05
9.9724e-06
2.24173e-05
2.24177e-05
9.97282e-06
2.24234e-05
2.24238e-05
4.7126e-06
9.94695e-06
2.97756e-06
5.65712e-06
2.97737e-06
4.71301e-06
9.94868e-06
4.70667e-06
9.9423e-06
2.97647e-06
5.6557e-06
4.70709e-06
9.944e-06
2.97625e-06
1.91188e-05
1.26704e-05
4.24139e-06
4.88718e-06
1.12605e-05
4.88729e-06
1.12585e-05
1.26727e-05
2.27875e-05
7.24876e-06
9.57532e-06
7.24852e-06
2.27808e-05
1.26691e-05
4.24071e-06
4.88667e-06
1.12552e-05
4.88656e-06
1.26667e-05
1.12573e-05
2.27869e-05
7.24968e-06
9.57629e-06
7.24993e-06
2.27936e-05
1.26703e-05
4.24141e-06
4.88706e-06
1.12604e-05
4.88724e-06
1.12583e-05
1.26734e-05
2.27891e-05
7.24781e-06
9.57577e-06
2.27824e-05
7.24755e-06
1.26699e-05
4.24067e-06
4.88662e-06
1.1255e-05
1.26665e-05
4.88645e-06
1.12571e-05
2.27885e-05
7.24872e-06
9.57673e-06
7.24899e-06
2.27952e-05
1.26762e-05
4.88788e-06
1.12617e-05
4.24176e-06
1.26739e-05
4.88777e-06
1.12638e-05
2.27996e-05
7.25109e-06
9.58065e-06
2.2793e-05
7.25083e-06
1.26768e-05
4.88785e-06
1.12615e-05
4.24171e-06
1.2674e-05
4.88765e-06
1.12636e-05
2.28012e-05
7.25015e-06
9.58109e-06
2.27945e-05
7.24987e-06
1.91093e-05
1.91098e-05
1.91116e-05
1.91122e-05
9.97282e-06
2.24186e-05
2.24179e-05
9.97321e-06
2.24247e-05
2.2424e-05
4.7069e-06
9.9426e-06
2.97649e-06
5.65558e-06
4.70732e-06
2.97626e-06
9.94431e-06
4.7127e-06
9.94732e-06
2.97767e-06
5.65734e-06
4.71308e-06
2.97745e-06
9.94909e-06
1.91197e-05
1.9122e-05
6.59422e-07
4.55956e-07
4.55888e-07
6.64822e-07
4.57561e-07
4.57497e-07
2.50595e-07
2.48787e-07
2.82921e-06
1.96978e-06
1.97002e-06
1.41902e-06
2.82955e-06
1.96905e-06
1.96928e-06
2.82927e-06
1.41994e-06
1.96881e-06
1.969e-06
1.96953e-06
1.96975e-06
2.82893e-06
2.8293e-06
1.41985e-06
1.96889e-06
1.96881e-06
1.96963e-06
1.96956e-06
2.82894e-06
2.82926e-06
1.42001e-06
1.96896e-06
1.96886e-06
1.9697e-06
1.96961e-06
2.82892e-06
2.82933e-06
1.41994e-06
1.96881e-06
1.96903e-06
2.82899e-06
1.96953e-06
1.96977e-06
2.82915e-06
1.96978e-06
1.96999e-06
1.41895e-06
2.8295e-06
1.96905e-06
1.96925e-06
2.82916e-06
1.96989e-06
1.96982e-06
1.4189e-06
1.96907e-06
2.82952e-06
1.96914e-06
2.82914e-06
1.96996e-06
1.96986e-06
1.41903e-06
1.96911e-06
2.82948e-06
1.96921e-06
6.60836e-07
4.54294e-07
4.54223e-07
4.52619e-07
4.52544e-07
2.45107e-07
2.46949e-07
6.60843e-07
4.54287e-07
4.54271e-07
4.52612e-07
4.52591e-07
2.45118e-07
2.46961e-07
6.60962e-07
4.54363e-07
4.54357e-07
4.5268e-07
4.52684e-07
2.45182e-07
2.47023e-07
6.60936e-07
4.54397e-07
4.54335e-07
4.52707e-07
4.52665e-07
2.45197e-07
2.47038e-07
4.55947e-07
4.55928e-07
6.64817e-07
4.57552e-07
4.57538e-07
2.50608e-07
2.48799e-07
4.56027e-07
4.56018e-07
6.64954e-07
4.57637e-07
4.57626e-07
2.5067e-07
2.48862e-07
4.56051e-07
4.55996e-07
6.64913e-07
4.57663e-07
4.57601e-07
2.50683e-07
2.48876e-07
6.66093e-07
4.59155e-07
4.59093e-07
2.52401e-07
6.66087e-07
4.59146e-07
4.59126e-07
2.52413e-07
6.66221e-07
4.59233e-07
4.59219e-07
2.52476e-07
6.66185e-07
4.59253e-07
4.59198e-07
2.52488e-07
1.66777e-06
2.29681e-06
2.54183e-06
1.54497e-06
2.54232e-06
1.5461e-06
1.66561e-06
1.84459e-06
2.2247e-06
3.02423e-06
3.64903e-06
1.8466e-06
2.22411e-06
3.02378e-06
1.66531e-06
2.29635e-06
2.54197e-06
1.54573e-06
1.66761e-06
2.54165e-06
1.54467e-06
1.84688e-06
3.0241e-06
3.64977e-06
2.22429e-06
2.22488e-06
3.02455e-06
1.84492e-06
1.66799e-06
2.29683e-06
1.54501e-06
2.54195e-06
1.54615e-06
2.54237e-06
1.6657e-06
1.84475e-06
2.22474e-06
3.02428e-06
3.64905e-06
1.84645e-06
2.22417e-06
3.02386e-06
1.6655e-06
2.29638e-06
1.54577e-06
2.54203e-06
1.66779e-06
1.5447e-06
2.54175e-06
1.84686e-06
3.02417e-06
3.64979e-06
2.22434e-06
2.22493e-06
3.0246e-06
1.84503e-06
2.82976e-06
1.42108e-06
1.96927e-06
1.9695e-06
1.97002e-06
1.97025e-06
2.8294e-06
2.82876e-06
1.41871e-06
1.96825e-06
1.96844e-06
2.82843e-06
1.96897e-06
1.96918e-06
2.82869e-06
1.41778e-06
1.96926e-06
1.96947e-06
2.82903e-06
1.96854e-06
1.96873e-06
1.84504e-06
3.02278e-06
3.64743e-06
2.22344e-06
3.02317e-06
2.22397e-06
1.84403e-06
1.6652e-06
2.54143e-06
1.54486e-06
2.29574e-06
1.66643e-06
2.54118e-06
1.54391e-06
1.84577e-06
2.22389e-06
3.64856e-06
3.02351e-06
2.22445e-06
3.02393e-06
1.84471e-06
1.84437e-06
3.02355e-06
2.22421e-06
3.64779e-06
2.22367e-06
1.84541e-06
3.02314e-06
1.66673e-06
2.29622e-06
2.54145e-06
1.5443e-06
2.5417e-06
1.54526e-06
1.6655e-06
1.66477e-06
2.54128e-06
1.54484e-06
2.29569e-06
1.66678e-06
2.54105e-06
1.54385e-06
1.84616e-06
2.22409e-06
3.64898e-06
3.0232e-06
3.02362e-06
2.22466e-06
1.8442e-06
1.8439e-06
3.02327e-06
2.22443e-06
3.64816e-06
1.84576e-06
3.02286e-06
2.22387e-06
1.66709e-06
2.29617e-06
2.54131e-06
1.54422e-06
2.54156e-06
1.54523e-06
1.66504e-06
1.41771e-06
1.96938e-06
1.96862e-06
3.64797e-06
2.22375e-06
2.22428e-06
1.66516e-06
2.54143e-06
1.54482e-06
2.29578e-06
1.66638e-06
2.54119e-06
1.54395e-06
1.8457e-06
2.22421e-06
3.6491e-06
3.02362e-06
2.22477e-06
3.024e-06
1.84469e-06
1.84433e-06
3.02363e-06
2.22453e-06
3.64835e-06
2.22399e-06
1.84531e-06
3.02326e-06
1.66665e-06
2.29623e-06
2.54148e-06
1.54437e-06
2.54171e-06
1.54524e-06
1.66548e-06
1.66508e-06
1.54478e-06
2.54126e-06
2.29572e-06
1.66627e-06
1.54392e-06
2.54105e-06
1.84558e-06
2.22417e-06
3.649e-06
3.02322e-06
3.02356e-06
2.22471e-06
1.84459e-06
1.84422e-06
3.02319e-06
2.22448e-06
3.64824e-06
1.84519e-06
3.02285e-06
2.22394e-06
1.66656e-06
2.29617e-06
1.54433e-06
2.54131e-06
1.5452e-06
2.54153e-06
1.66539e-06
1.84619e-06
2.22392e-06
3.64874e-06
3.02345e-06
1.84429e-06
2.22448e-06
3.02388e-06
1.66726e-06
2.29628e-06
2.54142e-06
1.54431e-06
1.66509e-06
2.54172e-06
1.54535e-06
1.84598e-06
2.22387e-06
3.64862e-06
3.02306e-06
3.02351e-06
2.22443e-06
1.84424e-06
1.66715e-06
2.29623e-06
1.54428e-06
2.5413e-06
1.54532e-06
2.54158e-06
1.66503e-06
2.82868e-06
1.41786e-06
1.96943e-06
1.96933e-06
1.96869e-06
2.82901e-06
1.9686e-06
1.66473e-06
1.545e-06
2.54149e-06
2.29582e-06
1.66706e-06
1.54396e-06
2.54124e-06
1.84627e-06
2.22398e-06
3.64875e-06
3.02352e-06
1.84449e-06
2.22454e-06
3.02393e-06
1.84408e-06
3.02358e-06
2.2243e-06
3.648e-06
1.84571e-06
2.22376e-06
3.02317e-06
1.66757e-06
2.29631e-06
1.54435e-06
2.54151e-06
1.66509e-06
1.54539e-06
2.54177e-06
1.66506e-06
1.54486e-06
2.54129e-06
2.29574e-06
1.66628e-06
1.54391e-06
2.54104e-06
1.84569e-06
2.22424e-06
3.64914e-06
3.0233e-06
3.02367e-06
2.22479e-06
1.8446e-06
1.84431e-06
3.0233e-06
2.22456e-06
3.64839e-06
1.84537e-06
3.02292e-06
2.22402e-06
1.66657e-06
2.29623e-06
1.5443e-06
2.54133e-06
1.54527e-06
2.54157e-06
1.66538e-06
2.82876e-06
1.41785e-06
1.96949e-06
1.96854e-06
1.96878e-06
2.8297e-06
1.42104e-06
1.96927e-06
1.96947e-06
2.82935e-06
1.97001e-06
1.97022e-06
2.82953e-06
1.42001e-06
1.97021e-06
1.97042e-06
2.82989e-06
1.96947e-06
1.96967e-06
1.66731e-06
2.29675e-06
2.54191e-06
1.54501e-06
2.54224e-06
1.54599e-06
1.66605e-06
1.84502e-06
2.22466e-06
3.02427e-06
3.64885e-06
3.02384e-06
1.8461e-06
2.22409e-06
1.66578e-06
2.2963e-06
2.54197e-06
1.54564e-06
2.54169e-06
1.66705e-06
1.54467e-06
1.8464e-06
3.02417e-06
3.6496e-06
2.22426e-06
3.0246e-06
2.22484e-06
1.84534e-06
1.66774e-06
2.29669e-06
2.5418e-06
1.54491e-06
2.54212e-06
1.54598e-06
1.6655e-06
1.84442e-06
2.22487e-06
3.02396e-06
3.64923e-06
1.84649e-06
3.02355e-06
2.22429e-06
1.66523e-06
2.29625e-06
2.54183e-06
1.54561e-06
1.66745e-06
2.54155e-06
1.54459e-06
1.84688e-06
3.02387e-06
3.65001e-06
2.22446e-06
3.02429e-06
1.84485e-06
2.22505e-06
1.66625e-06
2.54252e-06
1.5463e-06
2.29677e-06
1.66755e-06
2.5421e-06
1.54531e-06
1.84562e-06
3.02491e-06
2.225e-06
3.64984e-06
2.22442e-06
1.8467e-06
3.02447e-06
1.66568e-06
2.54235e-06
1.54634e-06
2.29672e-06
1.66794e-06
2.54196e-06
1.54517e-06
1.84513e-06
3.0246e-06
2.22521e-06
3.65021e-06
1.84704e-06
3.02417e-06
2.2246e-06
2.82973e-06
1.421e-06
1.96936e-06
1.96929e-06
1.97004e-06
1.97012e-06
2.82936e-06
2.82954e-06
1.41996e-06
1.97032e-06
1.97025e-06
1.96956e-06
2.82991e-06
1.96949e-06
1.66731e-06
2.29676e-06
2.54204e-06
1.54512e-06
2.54221e-06
1.54597e-06
1.66605e-06
1.84501e-06
2.22497e-06
3.02434e-06
3.64941e-06
3.02396e-06
1.84603e-06
2.22441e-06
1.66578e-06
2.29634e-06
2.54197e-06
1.54562e-06
2.54176e-06
1.66703e-06
1.54475e-06
1.84634e-06
3.02428e-06
3.65014e-06
2.22458e-06
3.02467e-06
2.22515e-06
1.84531e-06
1.66722e-06
2.2967e-06
1.54508e-06
2.54184e-06
1.54593e-06
2.54203e-06
1.66597e-06
1.8449e-06
2.22491e-06
3.0239e-06
3.64931e-06
1.84591e-06
3.02355e-06
2.22436e-06
1.6657e-06
2.29628e-06
1.54558e-06
2.54179e-06
1.66693e-06
1.54472e-06
2.54159e-06
1.84622e-06
3.02387e-06
3.65004e-06
2.22453e-06
3.02423e-06
1.8452e-06
2.2251e-06
1.66625e-06
2.5424e-06
1.5463e-06
2.29682e-06
1.66756e-06
2.54222e-06
1.54547e-06
1.8456e-06
3.02498e-06
2.22532e-06
3.6504e-06
2.22473e-06
1.84668e-06
3.02458e-06
1.66618e-06
1.54626e-06
2.54225e-06
2.29676e-06
1.66747e-06
1.54544e-06
2.54208e-06
1.8455e-06
3.02454e-06
2.22526e-06
3.6503e-06
1.84655e-06
3.02417e-06
2.22469e-06
1.66763e-06
2.29676e-06
1.54496e-06
2.54175e-06
1.54607e-06
2.54218e-06
1.66554e-06
1.84438e-06
2.22464e-06
3.02385e-06
3.64893e-06
2.22407e-06
1.84642e-06
3.0234e-06
1.66517e-06
2.29631e-06
1.5457e-06
2.54184e-06
1.54465e-06
1.66744e-06
2.54154e-06
1.84678e-06
3.02372e-06
3.64968e-06
2.22425e-06
2.22483e-06
3.02418e-06
1.84482e-06
1.66577e-06
2.54249e-06
1.5465e-06
2.29682e-06
1.66795e-06
2.54204e-06
1.54523e-06
1.84518e-06
3.02486e-06
2.22504e-06
3.65e-06
1.8471e-06
2.22443e-06
3.02439e-06
1.66572e-06
1.54644e-06
2.54237e-06
2.29679e-06
1.66787e-06
1.54523e-06
2.54195e-06
1.8451e-06
3.02449e-06
2.22499e-06
3.64992e-06
1.84698e-06
3.02402e-06
2.2244e-06
2.82969e-06
1.42113e-06
1.96943e-06
1.96933e-06
1.97009e-06
1.97018e-06
2.82934e-06
2.82952e-06
1.42008e-06
1.97039e-06
1.97029e-06
1.96963e-06
2.82987e-06
1.96953e-06
1.66723e-06
2.29675e-06
1.54502e-06
2.54177e-06
1.546e-06
2.5421e-06
1.66597e-06
1.84492e-06
2.225e-06
3.02401e-06
3.64945e-06
2.22443e-06
1.84599e-06
3.02362e-06
1.66569e-06
2.29629e-06
1.54565e-06
2.54183e-06
1.54468e-06
1.66695e-06
2.54155e-06
1.8463e-06
3.02394e-06
3.65019e-06
2.2246e-06
2.22518e-06
3.02434e-06
1.84524e-06
1.66586e-06
1.54654e-06
2.54255e-06
2.29685e-06
1.66815e-06
1.54528e-06
2.54216e-06
1.84529e-06
3.0249e-06
2.22508e-06
3.65004e-06
1.84715e-06
2.22449e-06
3.02447e-06
1.66617e-06
1.54632e-06
2.54239e-06
2.29676e-06
1.66747e-06
1.54532e-06
2.54195e-06
1.84552e-06
3.02465e-06
2.22534e-06
3.65043e-06
1.8466e-06
3.02423e-06
2.22475e-06
2.82958e-06
1.42007e-06
1.97022e-06
1.97045e-06
2.82995e-06
1.96947e-06
1.9697e-06
6.68502e-07
1.19039e-06
1.19052e-06
1.42257e-06
6.72896e-07
1.1919e-06
1.19203e-06
1.4242e-06
6.7674e-07
1.19293e-06
1.19306e-06
1.42559e-06
6.80055e-07
1.19351e-06
1.19364e-06
1.42654e-06
6.82864e-07
1.19365e-06
1.19377e-06
1.427e-06
6.85189e-07
1.19341e-06
1.19353e-06
1.4271e-06
6.87053e-07
1.19279e-06
1.19291e-06
1.42685e-06
6.88478e-07
1.19181e-06
1.19193e-06
1.42594e-06
6.89488e-07
1.19049e-06
1.1906e-06
1.42511e-06
6.90101e-07
1.18885e-06
1.18896e-06
1.42395e-06
6.90348e-07
1.18692e-06
1.18703e-06
1.42252e-06
6.90266e-07
1.18472e-06
1.18483e-06
1.42084e-06
6.89897e-07
1.18228e-06
1.18239e-06
1.41896e-06
6.8924e-07
1.17961e-06
1.17971e-06
1.41683e-06
6.88317e-07
1.17675e-06
1.17686e-06
1.41446e-06
6.87156e-07
1.17369e-06
1.17382e-06
1.41192e-06
6.85776e-07
1.17048e-06
1.17063e-06
1.40922e-06
6.84183e-07
1.16717e-06
1.16729e-06
1.40636e-06
6.81237e-07
1.16248e-06
1.16258e-06
1.40281e-06
7.37716e-07
1.07614e-06
1.07622e-06
1.35164e-06
1.42049e-06
1.19005e-06
1.18994e-06
1.42045e-06
1.18987e-06
1.19005e-06
1.18993e-06
1.19006e-06
1.42057e-06
1.19006e-06
1.1899e-06
1.42055e-06
1.42252e-06
1.42219e-06
1.19051e-06
1.1904e-06
1.19167e-06
1.19156e-06
1.42247e-06
1.42215e-06
1.19033e-06
1.19051e-06
1.19149e-06
1.19167e-06
1.19053e-06
1.19155e-06
1.19168e-06
1.4226e-06
1.42227e-06
1.19037e-06
1.19168e-06
1.19153e-06
1.42225e-06
1.42413e-06
1.4234e-06
1.19202e-06
1.19191e-06
1.19282e-06
1.1927e-06
1.42409e-06
1.42352e-06
1.19184e-06
1.19202e-06
1.19264e-06
1.19282e-06
1.19203e-06
1.19269e-06
1.19283e-06
1.42421e-06
1.42347e-06
1.19188e-06
1.19282e-06
1.19268e-06
1.42347e-06
1.42552e-06
1.42422e-06
1.19305e-06
1.19294e-06
1.19351e-06
1.1934e-06
1.4253e-06
1.42447e-06
1.19287e-06
1.19305e-06
1.19333e-06
1.19351e-06
1.19307e-06
1.19339e-06
1.19353e-06
1.42561e-06
1.4243e-06
1.19292e-06
1.19351e-06
1.19338e-06
1.4243e-06
1.42645e-06
1.42473e-06
1.19363e-06
1.19352e-06
1.19378e-06
1.19366e-06
1.42613e-06
1.42498e-06
1.19345e-06
1.19363e-06
1.1936e-06
1.19378e-06
1.19365e-06
1.19365e-06
1.19379e-06
1.42653e-06
1.42481e-06
1.1935e-06
1.19378e-06
1.19364e-06
1.4248e-06
1.42691e-06
1.42488e-06
1.19377e-06
1.19366e-06
1.19361e-06
1.1935e-06
1.4266e-06
1.42513e-06
1.1936e-06
1.19378e-06
1.19343e-06
1.19361e-06
1.19379e-06
1.19349e-06
1.19362e-06
1.42699e-06
1.42495e-06
1.19364e-06
1.19361e-06
1.19348e-06
1.42495e-06
1.42701e-06
1.42468e-06
1.19354e-06
1.19343e-06
1.19305e-06
1.19295e-06
1.42671e-06
1.42493e-06
1.19336e-06
1.19355e-06
1.19288e-06
1.19306e-06
1.19355e-06
1.19293e-06
1.19307e-06
1.42709e-06
1.42475e-06
1.1934e-06
1.19305e-06
1.19292e-06
1.42475e-06
1.42677e-06
1.42413e-06
1.19292e-06
1.19281e-06
1.19213e-06
1.19202e-06
1.42647e-06
1.42441e-06
1.19274e-06
1.19293e-06
1.19195e-06
1.19213e-06
1.19293e-06
1.19201e-06
1.19214e-06
1.42684e-06
1.42422e-06
1.19278e-06
1.19212e-06
1.19199e-06
1.42438e-06
1.42605e-06
1.42359e-06
1.19193e-06
1.19183e-06
1.19086e-06
1.19076e-06
1.4259e-06
1.42357e-06
1.19176e-06
1.19194e-06
1.19069e-06
1.19087e-06
1.19195e-06
1.19074e-06
1.19088e-06
1.42627e-06
1.42338e-06
1.1918e-06
1.19085e-06
1.19073e-06
1.42366e-06
1.42505e-06
1.42246e-06
1.19061e-06
1.1905e-06
1.18928e-06
1.18917e-06
1.42503e-06
1.42244e-06
1.19043e-06
1.19062e-06
1.1891e-06
1.18928e-06
1.19062e-06
1.18916e-06
1.18929e-06
1.42539e-06
1.42225e-06
1.19047e-06
1.18926e-06
1.18914e-06
1.42253e-06
1.42389e-06
1.42106e-06
1.18897e-06
1.18886e-06
1.18739e-06
1.18729e-06
1.42386e-06
1.4208e-06
1.18879e-06
1.18898e-06
1.18722e-06
1.1874e-06
1.18898e-06
1.18728e-06
1.18741e-06
1.42423e-06
1.42084e-06
1.18883e-06
1.18738e-06
1.18726e-06
1.42113e-06
1.42246e-06
1.41941e-06
1.18704e-06
1.18693e-06
1.18523e-06
1.18513e-06
1.42271e-06
1.41909e-06
1.18686e-06
1.18705e-06
1.18506e-06
1.18524e-06
1.18706e-06
1.18512e-06
1.18525e-06
1.4228e-06
1.41919e-06
1.18691e-06
1.18522e-06
1.1851e-06
1.41947e-06
1.42079e-06
1.41747e-06
1.18484e-06
1.18474e-06
1.18282e-06
1.18272e-06
1.42099e-06
1.4173e-06
1.18467e-06
1.18485e-06
1.18265e-06
1.18283e-06
1.18486e-06
1.18271e-06
1.18284e-06
1.42109e-06
1.41738e-06
1.18471e-06
1.18281e-06
1.1827e-06
1.41755e-06
1.41893e-06
1.41523e-06
1.18239e-06
1.18229e-06
1.18019e-06
1.18009e-06
1.41894e-06
1.41519e-06
1.18223e-06
1.18241e-06
1.18001e-06
1.18019e-06
1.18242e-06
1.18006e-06
1.18021e-06
1.41904e-06
1.41528e-06
1.18227e-06
1.18018e-06
1.18006e-06
1.4153e-06
1.41675e-06
1.41286e-06
1.17972e-06
1.17962e-06
1.17735e-06
1.17725e-06
1.41674e-06
1.41283e-06
1.17956e-06
1.17974e-06
1.17717e-06
1.17735e-06
1.17975e-06
1.17722e-06
1.17737e-06
1.41683e-06
1.41293e-06
1.1796e-06
1.17733e-06
1.17722e-06
1.41293e-06
1.41438e-06
1.41033e-06
1.17685e-06
1.17675e-06
1.17433e-06
1.17423e-06
1.41436e-06
1.41031e-06
1.1767e-06
1.17688e-06
1.17414e-06
1.17432e-06
1.17687e-06
1.1742e-06
1.17435e-06
1.41445e-06
1.4104e-06
1.17673e-06
1.1743e-06
1.17421e-06
1.41041e-06
1.41185e-06
1.40766e-06
1.1738e-06
1.1737e-06
1.17115e-06
1.17105e-06
1.41182e-06
1.40763e-06
1.17366e-06
1.17384e-06
1.17095e-06
1.17113e-06
1.17383e-06
1.17103e-06
1.17118e-06
1.41191e-06
1.40773e-06
1.17368e-06
1.17111e-06
1.17103e-06
1.40774e-06
1.40915e-06
1.40485e-06
1.1706e-06
1.1705e-06
1.16782e-06
1.16774e-06
1.40912e-06
1.40483e-06
1.17047e-06
1.17065e-06
1.16763e-06
1.16781e-06
1.17062e-06
1.16771e-06
1.16785e-06
1.40922e-06
1.40492e-06
1.17048e-06
1.16779e-06
1.16772e-06
1.40493e-06
1.40629e-06