/*--------------------------------*- C++ -*----------------------------------*\
| =========                 |                                                 |
| \\      /  F ield         | OpenFOAM: The Open Source CFD Toolbox           |
|  \\    /   O peration     | Version:  2312                                  |
|   \\  /    A nd           | Website:  www.openfoam.com                      |
|    \\/     M anipulation  |                                                 |
\*---------------------------------------------------------------------------*/
FoamFile
{
    version     2.0;
    format      ascii;
    arch        "LSB;label=32;scalar=64";
    class       volScalarField;
    location    "200";
    object      epsilon;
}
// * * * * * * * * * * * * * * * * * * * * * * * * * * * * * * * * * * * * * //

dimensions      [0 2 -3 0 0 0 0];

internalField   nonuniform List<scalar> 
42840
(
1.31321e-07
2.40729e-07
2.40767e-07
3.83366e-07
1.29942e-07
2.53381e-07
2.53415e-07
4.12377e-07
1.29344e-07
2.68062e-07
2.68094e-07
4.44291e-07
1.29517e-07
2.84708e-07
2.84738e-07
4.78056e-07
1.30456e-07
3.03231e-07
3.03266e-07
5.12785e-07
1.32156e-07
3.23523e-07
3.23557e-07
5.49027e-07
1.34613e-07
3.45452e-07
3.45482e-07
5.86e-07
1.37827e-07
3.68867e-07
3.68898e-07
6.23532e-07
1.41795e-07
3.93602e-07
3.93634e-07
6.60885e-07
1.46517e-07
4.19484e-07
4.1951e-07
6.97778e-07
1.51987e-07
4.46325e-07
4.46361e-07
7.34085e-07
1.58197e-07
4.7394e-07
4.73987e-07
7.68995e-07
1.65129e-07
5.02131e-07
5.022e-07
8.02894e-07
1.72752e-07
5.30691e-07
5.30792e-07
8.35507e-07
1.81011e-07
5.59384e-07
5.59538e-07
8.67648e-07
1.89817e-07
5.87931e-07
5.88155e-07
8.97708e-07
1.99031e-07
6.15933e-07
6.16231e-07
9.25762e-07
2.0846e-07
6.42883e-07
6.43216e-07
9.51639e-07
2.17871e-07
6.68236e-07
6.68586e-07
9.75139e-07
2.27044e-07
6.91524e-07
6.92054e-07
9.95985e-07
2.35796e-07
7.1245e-07
7.13446e-07
1.01424e-06
2.44021e-07
7.30908e-07
7.32454e-07
1.03092e-06
2.51618e-07
7.46863e-07
7.48896e-07
1.04547e-06
2.58392e-07
7.60205e-07
7.62374e-07
1.05701e-06
2.64431e-07
7.71506e-07
7.73389e-07
1.06638e-06
3.8311e-07
4.05473e-07
2.40807e-07
2.40841e-07
2.5014e-07
2.50182e-07
3.83331e-07
4.05916e-07
2.40759e-07
2.40864e-07
2.50087e-07
2.50209e-07
2.40781e-07
2.50046e-07
2.50124e-07
3.83202e-07
4.06084e-07
2.4079e-07
2.50075e-07
2.50138e-07
4.06123e-07
4.12283e-07
4.35937e-07
2.53456e-07
2.53497e-07
2.64335e-07
2.64377e-07
4.1224e-07
4.37099e-07
2.53397e-07
2.53527e-07
2.64269e-07
2.64408e-07
2.53438e-07
2.64229e-07
2.64317e-07
4.12148e-07
4.36919e-07
2.53444e-07
2.64258e-07
2.64328e-07
4.36528e-07
4.4415e-07
4.69035e-07
2.68144e-07
2.68181e-07
2.80519e-07
2.80554e-07
4.43706e-07
4.70069e-07
2.68074e-07
2.68212e-07
2.80441e-07
2.80586e-07
2.68119e-07
2.80393e-07
2.80488e-07
4.43407e-07
4.70035e-07
2.68126e-07
2.80421e-07
2.80497e-07
4.69012e-07
4.77731e-07
5.05074e-07
2.84791e-07
2.84834e-07
2.98591e-07
2.98634e-07
4.77181e-07
5.04814e-07
2.84719e-07
2.84866e-07
2.98512e-07
2.9867e-07
2.84767e-07
2.98459e-07
2.98572e-07
4.77261e-07
5.05072e-07
2.8477e-07
2.98491e-07
2.98574e-07
5.04754e-07
5.12317e-07
5.40911e-07
3.03321e-07
3.03362e-07
3.18469e-07
3.18514e-07
5.12254e-07
5.41145e-07
3.03242e-07
3.034e-07
3.18379e-07
3.18549e-07
3.03299e-07
3.18322e-07
3.18456e-07
5.12411e-07
5.41228e-07
3.03293e-07
3.18357e-07
3.18449e-07
5.41051e-07
5.48988e-07
5.77875e-07
3.23619e-07
3.2366e-07
3.40016e-07
3.40061e-07
5.48861e-07
5.78136e-07
3.23528e-07
3.23699e-07
3.39923e-07
3.40101e-07
3.23607e-07
3.3985e-07
3.40012e-07
5.48951e-07
5.78e-07
3.2359e-07
3.39887e-07
3.3999e-07
5.77693e-07
5.85856e-07
6.14873e-07
3.45551e-07
3.45595e-07
3.63094e-07
3.63131e-07
5.86268e-07
6.15241e-07
3.45455e-07
3.45631e-07
3.62997e-07
3.63174e-07
3.45546e-07
3.6291e-07
3.63091e-07
5.85947e-07
6.15395e-07
3.45518e-07
3.62945e-07
3.63065e-07
6.15154e-07
6.24018e-07
6.51862e-07
3.68975e-07
3.69014e-07
3.87537e-07
3.87567e-07
6.23327e-07
6.52455e-07
3.68881e-07
3.69057e-07
3.87429e-07
3.87612e-07
3.68974e-07
3.87332e-07
3.8753e-07
6.23546e-07
6.52469e-07
3.68937e-07
3.87366e-07
3.87497e-07
6.52571e-07
6.61182e-07
6.89039e-07
3.93717e-07
3.93754e-07
4.13171e-07
4.13197e-07
6.60665e-07
6.88763e-07
3.93614e-07
3.93796e-07
4.13053e-07
4.13235e-07
3.93727e-07
4.12941e-07
4.13168e-07
6.6078e-07
6.89118e-07
3.9368e-07
4.12975e-07
4.13121e-07
6.89239e-07
6.98128e-07
7.24873e-07
4.19605e-07
4.19642e-07
4.3981e-07
4.39839e-07
6.98298e-07
7.24352e-07
4.19493e-07
4.19686e-07
4.39671e-07
4.39883e-07
4.19623e-07
4.39567e-07
4.39809e-07
6.97608e-07
7.25927e-07
4.19563e-07
4.39607e-07
4.39744e-07
7.24905e-07
7.3408e-07
7.60376e-07
4.46462e-07
4.46499e-07
4.67271e-07
4.67303e-07
7.3501e-07
7.59709e-07
4.46328e-07
4.46544e-07
4.67116e-07
4.67357e-07
4.46478e-07
4.67015e-07
4.67271e-07
7.33739e-07
7.61522e-07
4.46397e-07
4.67066e-07
4.6719e-07
7.60808e-07
7.6902e-07
7.93902e-07
4.74091e-07
4.74132e-07
4.95374e-07
4.95406e-07
7.70238e-07
7.93913e-07
4.73938e-07
4.74187e-07
4.952e-07
4.95473e-07
4.74104e-07
4.95102e-07
4.95366e-07
7.68861e-07
7.95827e-07
4.7401e-07
4.95168e-07
4.95266e-07
7.9517e-07
8.04013e-07
8.26949e-07
5.02311e-07
5.02348e-07
5.23924e-07
5.23935e-07
8.04292e-07
8.27027e-07
5.02138e-07
5.02424e-07
5.23726e-07
5.24035e-07
5.02314e-07
5.23623e-07
5.23875e-07
8.03035e-07
8.29101e-07
5.02209e-07
5.23715e-07
5.23786e-07
8.28102e-07
8.36776e-07
8.59745e-07
5.30922e-07
5.30944e-07
5.52687e-07
5.52681e-07
8.37074e-07
8.59788e-07
5.30726e-07
5.31058e-07
5.52456e-07
5.5284e-07
5.30887e-07
5.52354e-07
5.52601e-07
8.36023e-07
8.5991e-07
5.30797e-07
5.52498e-07
5.52547e-07
8.59629e-07
8.67732e-07
8.90191e-07
5.59685e-07
5.59701e-07
5.81388e-07
5.81387e-07
8.67683e-07
8.90333e-07
5.59461e-07
5.5986e-07
5.8113e-07
5.81612e-07
5.59614e-07
5.81039e-07
5.81257e-07
8.68102e-07
8.90787e-07
5.59566e-07
5.81235e-07
5.81262e-07
8.90119e-07
8.97931e-07
9.18715e-07
5.88307e-07
5.88333e-07
6.0963e-07
6.09653e-07
8.97897e-07
9.18851e-07
5.88056e-07
5.88568e-07
6.09346e-07
6.09984e-07
5.88188e-07
6.09288e-07
6.09464e-07
8.98647e-07
9.19789e-07
5.88202e-07
6.09577e-07
6.09542e-07
9.18518e-07
9.25877e-07
9.44898e-07
6.16362e-07
6.16407e-07
6.36936e-07
6.36963e-07
9.261e-07
9.45178e-07
6.16078e-07
6.16762e-07
6.36636e-07
6.37442e-07
6.16211e-07
6.36628e-07
6.36714e-07
9.2705e-07
9.46301e-07
6.16307e-07
6.36958e-07
6.36917e-07
9.44857e-07
9.5186e-07
9.69097e-07
6.43359e-07
6.43419e-07
6.62737e-07
6.6281e-07
9.52111e-07
9.69414e-07
6.43067e-07
6.43937e-07
6.62483e-07
6.63435e-07
6.43162e-07
6.62516e-07
6.62464e-07
9.53185e-07
9.70507e-07
6.43396e-07
6.62845e-07
6.62865e-07
9.68759e-07
9.75602e-07
9.91146e-07
6.68762e-07
6.68877e-07
6.86602e-07
6.86734e-07
9.75655e-07
9.90909e-07
6.68526e-07
6.69542e-07
6.86458e-07
6.87543e-07
6.68497e-07
6.86437e-07
6.86152e-07
9.76891e-07
9.92437e-07
6.68945e-07
6.8689e-07
6.8685e-07
9.90089e-07
9.97055e-07
1.01079e-06
6.92171e-07
6.92356e-07
7.08193e-07
7.08403e-07
9.96801e-07
1.01008e-06
6.92082e-07
6.93191e-07
7.08316e-07
7.09411e-07
6.91685e-07
7.08058e-07
7.07444e-07
9.98352e-07
1.01201e-06
6.92468e-07
7.08907e-07
7.08567e-07
1.00899e-06
1.01631e-06
1.02808e-06
7.13281e-07
7.13538e-07
7.27349e-07
7.27682e-07
1.01545e-06
1.02723e-06
7.13503e-07
7.1459e-07
7.27925e-07
7.28877e-07
7.12494e-07
7.27194e-07
7.2634e-07
1.01753e-06
1.02947e-06
7.13707e-07
7.28572e-07
7.27915e-07
1.02579e-06
1.03327e-06
1.04403e-06
7.32033e-07
7.32392e-07
7.44273e-07
7.44543e-07
1.03238e-06
1.04267e-06
7.32703e-07
7.33619e-07
7.45213e-07
7.45929e-07
7.30975e-07
7.43786e-07
7.429e-07
1.03462e-06
1.045e-06
7.32611e-07
7.45697e-07
7.44775e-07
1.04089e-06
1.04878e-06
1.05678e-06
7.48533e-07
7.48727e-07
7.58761e-07
7.58793e-07
1.04727e-06
1.05491e-06
7.49498e-07
7.50181e-07
7.59774e-07
7.60289e-07
7.47107e-07
7.57728e-07
7.57063e-07
1.04971e-06
1.05762e-06
7.49017e-07
7.59894e-07
7.59134e-07
1.05295e-06
1.06078e-06
1.06565e-06
7.62411e-07
7.62296e-07
7.70605e-07
7.70293e-07
1.05887e-06
1.06382e-06
7.63394e-07
7.63941e-07
7.71376e-07
7.72104e-07
7.60728e-07
7.69085e-07
7.69142e-07
1.06164e-06
1.06686e-06
7.62749e-07
7.71041e-07
7.70864e-07
1.06264e-06
1.06899e-06
7.73852e-07
7.73403e-07
1.06741e-06
7.74573e-07
7.75386e-07
7.72492e-07
1.07036e-06
7.74111e-07
3.75814e-06
8.92091e-06
8.92513e-06
3.73576e-06
1.84401e-05
1.84329e-05
3.75806e-06
8.9222e-06
8.92638e-06
3.73533e-06
1.31321e-07
1.31335e-07
1.31326e-07
1.30231e-07
1.30231e-07
1.30245e-07
1.30238e-07
1.24145e-06
2.86946e-06
1.59559e-07
2.4372e-07
2.88886e-06
1.60121e-07
1.21463e-06
1.84411e-05
1.84339e-05
1.24202e-06
1.5961e-07
2.86815e-06
2.43756e-07
1.6015e-07
2.89033e-06
1.21437e-06
5.16979e-06
5.17301e-06
3.91775e-07
5.18005e-06
5.18051e-06
3.81798e-06
8.9308e-06
3.80085e-06
8.93446e-06
1.84134e-05
1.8407e-05
3.81811e-06
8.93208e-06
3.80089e-06
8.93576e-06
1.29944e-07
1.29957e-07
1.29948e-07
1.29441e-07
1.29443e-07
1.29457e-07
1.29448e-07
1.32214e-06
2.93139e-06
1.62212e-07
2.56888e-07
1.29665e-06
2.94933e-06
1.63121e-07
1.84145e-05
1.8408e-05
1.32262e-06
1.62264e-07
2.92999e-06
2.56921e-07
1.29626e-06
1.63145e-07
2.94952e-06
5.19862e-06
5.20095e-06
4.21496e-07
5.20573e-06
5.20763e-06
3.86458e-06
8.93937e-06
3.85037e-06
8.94266e-06
1.83892e-05
1.83836e-05
3.86392e-06
8.94072e-06
3.85104e-06
8.94397e-06
1.29347e-07
1.29361e-07
1.29352e-07
1.29424e-07
1.29425e-07
1.29439e-07
1.29432e-07
1.3985e-06
2.98456e-06
1.66205e-07
2.7207e-07
1.3741e-06
3.0016e-06
1.67467e-07
1.83902e-05
1.83845e-05
1.39857e-06
1.66259e-07
2.98449e-06
2.721e-07
1.37414e-06
1.67493e-07
3.00159e-06
5.22324e-06
5.22508e-06
4.52373e-07
5.2284e-06
5.23016e-06
3.8992e-06
8.9468e-06
3.88841e-06
8.94974e-06
1.83673e-05
1.83625e-05
3.89866e-06
8.94795e-06
3.88911e-06
8.95121e-06
1.29523e-07
1.29538e-07
1.29526e-07
1.30179e-07
1.30178e-07
1.30194e-07
1.30189e-07
1.46892e-06
3.0325e-06
1.71564e-07
2.89198e-07
1.44641e-06
3.0475e-06
1.73176e-07
1.83682e-05
1.83633e-05
1.46908e-06
1.71624e-07
3.03255e-06
2.89228e-07
1.44655e-06
1.73204e-07
3.04593e-06
5.24286e-06
5.24456e-06
4.86458e-07
5.24783e-06
5.24942e-06
3.92552e-06
8.95306e-06
3.91728e-06
8.95602e-06
1.83475e-05
1.83433e-05
3.92557e-06
8.95457e-06
3.91755e-06
8.95736e-06
1.30465e-07
1.30481e-07
1.30467e-07
1.31697e-07
1.31695e-07
1.31712e-07
1.31708e-07
1.53309e-06
3.07474e-06
1.78292e-07
3.08177e-07
1.51307e-06
3.08794e-06
1.80252e-07
1.83483e-05
1.83441e-05
1.53338e-06
1.78357e-07
3.07572e-06
3.08215e-07
1.51277e-06
1.80285e-07
3.08673e-06
5.2598e-06
5.26141e-06
5.22952e-07
5.26381e-06
5.26535e-06
3.94472e-06
8.95887e-06
3.93926e-06
8.96153e-06
1.83296e-05
1.83261e-05
3.94558e-06
8.96022e-06
3.93929e-06
8.96283e-06
1.32168e-07
1.32184e-07
1.32171e-07
1.33977e-07
1.33973e-07
1.33991e-07
1.3399e-07
1.59116e-06
3.11204e-06
1.86386e-07
3.28891e-07
1.57318e-06
3.12359e-06
1.88696e-07
1.83303e-05
1.83268e-05
1.59126e-06
1.86456e-07
3.11302e-06
3.28926e-07
1.57326e-06
1.88728e-07
3.12262e-06
5.27415e-06
5.27583e-06
5.59518e-07
5.2776e-06
5.2792e-06
3.96085e-06
8.96428e-06
3.95604e-06
8.9665e-06
1.83134e-05
1.83105e-05
3.96095e-06
8.96546e-06
3.95608e-06
8.96792e-06
1.34627e-07
1.34644e-07
1.34633e-07
1.37018e-07
1.37011e-07
1.37029e-07
1.37033e-07
1.64311e-06
3.14596e-06
1.95829e-07
3.51205e-07
1.62717e-06
3.15433e-06
1.98486e-07
1.83142e-05
1.83113e-05
1.64317e-06
1.95908e-07
3.14608e-06
3.51243e-07
1.62721e-06
1.98526e-07
3.15444e-06
5.28656e-06
5.28824e-06
5.96459e-07
5.28957e-06
5.29119e-06
3.97281e-06
8.96924e-06
3.96918e-06
8.97134e-06
1.8299e-05
1.82967e-05
3.97283e-06
8.9704e-06
3.96936e-06
8.97274e-06
1.37843e-07
1.37861e-07
1.37849e-07
1.40817e-07
1.40807e-07
1.40826e-07
1.40836e-07
1.68979e-06
3.17566e-06
2.066e-07
3.74969e-07
1.67507e-06
3.18285e-06
2.09596e-07
1.82998e-05
1.82974e-05
1.68986e-06
2.06682e-07
3.17558e-06
3.75004e-07
1.6751e-06
2.09637e-07
3.18292e-06
5.29754e-06
5.2992e-06
6.33798e-07
5.30014e-06
5.30185e-06
3.98263e-06
8.974e-06
3.97981e-06
8.97616e-06
1.82862e-05
1.82845e-05
3.98276e-06
8.97516e-06
3.97988e-06
8.97745e-06
1.41815e-07
1.41833e-07
1.41822e-07
1.45372e-07
1.45357e-07
1.45376e-07
1.45392e-07
1.73101e-06
3.2018e-06
2.18654e-07
4.00011e-07
1.71803e-06
3.20909e-06
2.21984e-07
1.8287e-05
1.82852e-05
1.73087e-06
2.18742e-07
3.20213e-06
4.0004e-07
1.71825e-06
2.2203e-07
3.20857e-06
5.30744e-06
5.30908e-06
6.71013e-07
5.30983e-06
5.31153e-06
3.99132e-06
8.97876e-06
3.98886e-06
8.98091e-06
1.82749e-05
1.82736e-05
3.99144e-06
8.9799e-06
3.98896e-06
8.98219e-06
1.46541e-07
1.4656e-07
1.46551e-07
1.50677e-07
1.50658e-07
1.50679e-07
1.50699e-07
1.76839e-06
3.22555e-06
2.31939e-07
4.26151e-07
1.75647e-06
3.23281e-06
2.35584e-07
1.82757e-05
1.82744e-05
1.76792e-06
2.32025e-07
3.22541e-06
4.26187e-07
1.75664e-06
2.35628e-07
3.23311e-06
5.31668e-06
5.31831e-06
7.07152e-07
5.31893e-06
5.3206e-06
3.99925e-06
8.98357e-06
3.99709e-06
8.98569e-06
1.82648e-05
1.82638e-05
3.99948e-06
8.98477e-06
3.99714e-06
8.98697e-06
1.52019e-07
1.52039e-07
1.52029e-07
1.56725e-07
1.56704e-07
1.56726e-07
1.56749e-07
1.80167e-06
3.24819e-06
2.46381e-07
4.53218e-07
1.79124e-06
3.25384e-06
2.50329e-07
1.82657e-05
1.82648e-05
1.80164e-06
2.46456e-07
3.24759e-06
4.53265e-07
1.79125e-06
2.50361e-07
3.2549e-06
5.32547e-06
5.32721e-06
7.43011e-07
5.32765e-06
5.32942e-06
4.00725e-06
8.98844e-06
4.00513e-06
8.99054e-06
1.82553e-05
1.82545e-05
4.00724e-06
8.98962e-06
4.00517e-06
8.99179e-06
1.58238e-07
1.5826e-07
1.58247e-07
1.63502e-07
1.63481e-07
1.63506e-07
1.63528e-07
1.83259e-06
3.26958e-06
2.61893e-07
4.8102e-07
1.82306e-06
3.27441e-06
2.66129e-07
1.82566e-05
1.82559e-05
1.83256e-06
2.6195e-07
3.26877e-06
4.81076e-07
1.82287e-06
2.66139e-07
3.27501e-06
5.33412e-06
5.336e-06
7.77959e-07
5.33633e-06
5.33826e-06
4.01551e-06
8.99321e-06
4.01319e-06
8.99524e-06
1.82462e-05
1.82453e-05
4.01519e-06
8.99435e-06
4.01314e-06
8.99637e-06
1.65182e-07
1.65206e-07
1.6519e-07
1.70982e-07
1.70961e-07
1.70991e-07
1.71008e-07
1.86136e-06
3.28937e-06
2.78353e-07
5.09363e-07
1.85225e-06
3.29469e-06
2.82854e-07
1.82479e-05
1.82473e-05
1.86148e-06
2.78393e-07
3.28935e-06
5.0944e-07
1.8525e-06
2.82853e-07
3.29399e-06
5.3429e-06
5.34487e-06
8.1199e-07
5.34522e-06
5.34729e-06
4.02393e-06
8.99767e-06
4.02154e-06
8.99953e-06
1.82368e-05
1.82356e-05
4.02334e-06
8.99868e-06
4.02127e-06
9.00046e-06
1.72819e-07
1.72847e-07
1.72824e-07
1.79119e-07
1.791e-07
1.79138e-07
1.79145e-07
1.8883e-06
3.30772e-06
2.9562e-07
5.38042e-07
1.87979e-06
3.31363e-06
3.00377e-07
1.82393e-05
1.82384e-05
1.88845e-06
2.95661e-07
3.30857e-06
5.38154e-07
1.87998e-06
3.00368e-07
3.31356e-06
5.35193e-06
5.35405e-06
8.43608e-07
5.35431e-06
5.35647e-06
4.03195e-06
9.00153e-06
4.02981e-06
9.00297e-06
1.82262e-05
1.82243e-05
4.0313e-06
9.00247e-06
4.02936e-06
9.00393e-06
1.81099e-07
1.81135e-07
1.81103e-07
1.87833e-07
1.87821e-07
1.87875e-07
1.87864e-07
1.91351e-06
3.32629e-06
3.13577e-07
5.66817e-07
1.90552e-06
3.33167e-06
3.18558e-07
1.82298e-05
1.82284e-05
1.91334e-06
3.13594e-07
3.32688e-06
5.66985e-07
1.90551e-06
3.18522e-07
3.33139e-06
5.36095e-06
5.36312e-06
8.7506e-07
5.36325e-06
5.36546e-06
4.03935e-06
9.00402e-06
4.03744e-06
9.00493e-06
1.82137e-05
1.8211e-05
4.03866e-06
9.00511e-06
4.03687e-06
9.00614e-06
1.89941e-07
1.89994e-07
1.89942e-07
1.97001e-07
1.97006e-07
1.97089e-07
1.97042e-07
1.93698e-06
3.34365e-06
3.32044e-07
5.9539e-07
1.92959e-06
3.34869e-06
3.37218e-07
1.82188e-05
1.82166e-05
1.93638e-06
3.3201e-07
3.34368e-06
5.95635e-07
1.92912e-06
3.37121e-07
3.34901e-06
5.36953e-06
5.37171e-06
9.04623e-07
5.37162e-06
5.37385e-06
4.04565e-06
9.00508e-06
4.04411e-06
9.00539e-06
1.81993e-05
1.81962e-05
4.04503e-06
9.00669e-06
4.04344e-06
9.00737e-06
1.99216e-07
1.99299e-07
1.99209e-07
2.06444e-07
2.06478e-07
2.06604e-07
2.06499e-07
1.95841e-06
3.36013e-06
3.50793e-07
6.23313e-07
1.95172e-06
3.36456e-06
3.56114e-07
1.82059e-05
1.82032e-05
1.95732e-06
3.50675e-07
3.3594e-06
6.23625e-07
1.95064e-06
3.55922e-07
3.3642e-06
5.3771e-06
5.37954e-06
9.31951e-07
5.37863e-06
5.38126e-06
4.05072e-06
9.00455e-06
4.04956e-06
9.0044e-06
1.81844e-05
1.81818e-05
4.05025e-06
9.00736e-06
4.04904e-06
9.00774e-06
2.08734e-07
2.08866e-07
2.0872e-07
2.1593e-07
2.16e-07
2.16185e-07
2.16007e-07
1.97751e-06
3.37401e-06
3.69511e-07
6.50096e-07
1.97143e-06
3.37767e-06
3.74892e-07
1.81919e-05
1.81892e-05
1.97591e-06
3.69242e-07
3.37328e-06
6.50419e-07
1.96976e-06
3.74548e-07
3.37692e-06
5.38291e-06
5.3859e-06
9.57187e-07
5.38379e-06
5.38705e-06
4.05447e-06
9.00336e-06
4.0537e-06
9.00332e-06
1.81714e-05
1.81703e-05
4.05434e-06
9.00749e-06
4.0534e-06
9.00794e-06
2.18258e-07
2.18459e-07
2.18236e-07
2.25224e-07
2.25314e-07
2.25597e-07
2.25302e-07
1.99424e-06
3.38589e-06
3.87794e-07
6.75158e-07
1.98869e-06
3.3891e-06
3.93164e-07
1.81785e-05
1.81764e-05
1.99193e-06
3.87299e-07
3.3848e-06
6.75507e-07
1.98636e-06
3.92601e-07
3.38777e-06
5.38721e-06
5.39089e-06
9.79842e-07
5.38781e-06
5.39175e-06
4.05743e-06
9.00264e-06
4.05684e-06
9.00292e-06
1.81633e-05
1.81643e-05
4.05787e-06
9.00814e-06
4.05709e-06
9.00894e-06
2.27531e-07
2.27847e-07
2.27495e-07
2.34123e-07
2.34186e-07
2.34641e-07
2.34158e-07
2.00843e-06
3.39584e-06
4.05292e-07
6.98096e-07
2.00361e-06
3.39822e-06
4.10624e-07
1.81677e-05
1.81674e-05
2.00545e-06
4.04588e-07
3.39501e-06
6.98673e-07
2.00046e-06
4.09843e-07
3.39755e-06
5.39087e-06
5.3953e-06
9.99901e-07
5.39133e-06
5.39613e-06
4.05979e-06
9.00306e-06
4.05943e-06
9.00358e-06
1.81609e-05
1.81638e-05
4.06073e-06
9.00941e-06
4.0602e-06
9.01024e-06
2.36338e-07
2.36839e-07
2.36304e-07
2.42491e-07
2.42462e-07
2.43152e-07
2.42456e-07
2.02064e-06
3.40416e-06
4.21735e-07
7.18622e-07
2.01612e-06
3.40652e-06
4.26909e-07
1.81624e-05
1.81643e-05
2.01657e-06
4.20944e-07
3.40391e-06
7.19679e-07
2.01264e-06
4.26092e-07
3.40588e-06
5.39396e-06
5.3996e-06
1.01748e-06
5.39433e-06
5.40044e-06
4.06139e-06
9.00449e-06
4.06125e-06
9.00571e-06
1.8163e-05
1.81668e-05
4.06264e-06
9.01186e-06
4.06238e-06
9.01366e-06
2.44547e-07
2.45289e-07
2.4455e-07
2.50262e-07
2.50048e-07
2.50991e-07
2.50087e-07
2.03095e-06
3.41179e-06
4.36689e-07
7.36626e-07
2.02715e-06
3.41341e-06
4.41606e-07
1.81625e-05
1.8166e-05
2.0261e-06
4.36011e-07
3.41134e-06
7.38248e-07
2.02305e-06
4.40923e-07
3.41298e-06
5.39665e-06
5.40395e-06
1.03378e-06
5.39693e-06
5.4049e-06
4.06216e-06
9.00721e-06
4.06252e-06
9.00951e-06
1.81665e-05
1.81705e-05
4.06465e-06
9.016e-06
4.0642e-06
9.01841e-06
2.52036e-07
2.53017e-07
2.52101e-07
2.57251e-07
2.56865e-07
2.57942e-07
2.56983e-07
2.04075e-06
3.41811e-06
4.50048e-07
7.52045e-07
2.03701e-06
3.41911e-06
4.54674e-07
1.81663e-05
1.81708e-05
2.0342e-06
4.49383e-07
3.41828e-06
7.54117e-07
2.0324e-06
4.53946e-07
3.41996e-06
5.39968e-06
5.40851e-06
1.04736e-06
5.40025e-06
5.4096e-06
4.06166e-06
9.01311e-06
4.06199e-06
9.01631e-06
1.81707e-05
1.81747e-05
4.06736e-06
9.02148e-06
4.06673e-06
9.02361e-06
2.5869e-07
2.59778e-07
2.58841e-07
2.63231e-07
2.62811e-07
2.63848e-07
2.63052e-07
2.04821e-06
3.42101e-06
4.61728e-07
7.64798e-07
2.04701e-06
3.42097e-06
4.66011e-07
1.81731e-05
1.81791e-05
2.04113e-06
4.61133e-07
3.42187e-06
7.66929e-07
2.03847e-06
4.65424e-07
3.42176e-06
5.40328e-06
5.41265e-06
1.05815e-06
5.40405e-06
5.41269e-06
4.06377e-06
9.02086e-06
4.06312e-06
9.02421e-06
1.81751e-05
1.81802e-05
4.0703e-06
9.02593e-06
4.06962e-06
9.02771e-06
2.64738e-07
2.65775e-07
2.64997e-07
2.05428e-06
3.42351e-06
4.71993e-07
7.74758e-07
2.05221e-06
3.42436e-06
4.7499e-07
1.81831e-05
1.81892e-05
2.04841e-06
4.71714e-07
3.42418e-06
7.76455e-07
2.04544e-06
4.74729e-07
3.42476e-06
5.4073e-06
5.41342e-06
1.06707e-06
5.40812e-06
5.41287e-06
1.84378e-05
1.84306e-05
1.84405e-05
1.84333e-05
5.16965e-06
5.17217e-06
3.91682e-07
5.18005e-06
5.18185e-06
1.84173e-05
1.84242e-05
1.84201e-05
1.84269e-05
3.97118e-07
5.19379e-06
5.19576e-06
5.18484e-06
5.1865e-06
3.75835e-06
8.9211e-06
8.92527e-06
3.73498e-06
1.24153e-06
2.86815e-06
1.59593e-07
2.4382e-07
2.89023e-06
1.60147e-07
1.21466e-06
1.24153e-06
2.86982e-06
1.59595e-07
2.43851e-07
2.88925e-06
1.6015e-07
1.21459e-06
3.77034e-06
8.92997e-06
8.92601e-06
3.78995e-06
3.77e-06
8.93013e-06
8.92622e-06
3.78997e-06
1.2561e-06
2.46868e-07
2.92048e-06
1.61479e-07
2.89993e-06
1.60751e-07
1.28209e-06
1.25602e-06
2.46907e-07
2.91981e-06
1.61483e-07
2.9017e-06
1.60758e-07
1.28216e-06
5.17186e-06
5.1711e-06
3.91344e-07
5.18113e-06
5.17896e-06
1.84384e-05
1.84312e-05
1.84197e-05
1.84265e-05
3.96913e-07
5.19543e-06
5.1937e-06
5.18593e-06
5.18621e-06
1.84179e-05
1.84247e-05
1.24138e-06
2.86935e-06
1.59598e-07
2.43769e-07
2.89046e-06
1.60152e-07
1.21442e-06
3.75806e-06
8.92173e-06
8.92595e-06
3.73523e-06
1.24152e-06
1.59612e-07
2.87006e-06
2.4388e-07
1.60171e-07
2.8906e-06
1.21473e-06
3.77033e-06
8.93123e-06
8.9273e-06
3.79012e-06
1.25605e-06
2.46816e-07
2.92097e-06
1.61482e-07
2.90053e-06
1.60758e-07
1.28233e-06
3.77027e-06
8.93083e-06
8.92687e-06
3.79013e-06
1.25605e-06
2.46934e-07
1.61502e-07
2.92115e-06
1.60777e-07
2.90082e-06
1.28228e-06
3.75816e-06
8.92107e-06
8.92579e-06
3.73596e-06
1.24125e-06
1.59574e-07
2.86948e-06
2.43797e-07
1.60129e-07
2.88897e-06
1.21473e-06
3.75868e-06
8.92103e-06
8.92596e-06
3.73519e-06
1.25606e-06
2.46796e-07
2.91924e-06
1.61451e-07
2.90141e-06
1.60718e-07
1.28221e-06
3.77062e-06
8.93039e-06
8.92646e-06
3.7901e-06
1.25618e-06
2.46848e-07
1.61458e-07
2.9195e-06
1.60737e-07
2.90144e-06
1.28214e-06
3.77002e-06
8.93078e-06
8.92618e-06
3.79002e-06
5.173e-06
5.17157e-06
3.91683e-07
5.18041e-06
5.17877e-06
1.84386e-05
1.84314e-05
1.84207e-05
1.84275e-05
3.97215e-07
5.1949e-06
5.19332e-06
5.18764e-06
5.18615e-06
1.84181e-05
1.84249e-05
1.24152e-06
1.59611e-07
2.86879e-06
2.43809e-07
1.60159e-07
2.89065e-06
1.21473e-06
3.75815e-06
8.92123e-06
8.92614e-06
3.73602e-06
3.75816e-06
8.9216e-06
8.92655e-06
3.73604e-06
1.25576e-06
2.46829e-07
1.61479e-07
2.92047e-06
1.6077e-07
2.89997e-06
1.28282e-06
1.25611e-06
2.46858e-07
1.61489e-07
2.91942e-06
1.60774e-07
2.9007e-06
1.28247e-06
3.77063e-06
8.93097e-06
8.92634e-06
3.79008e-06
3.77061e-06
8.93141e-06
8.92676e-06
3.79009e-06
1.84395e-05
1.84323e-05
1.84414e-05
1.84342e-05
3.97279e-07
5.19391e-06
5.19512e-06
5.18494e-06
5.18768e-06
1.84191e-05
1.84259e-05
1.84211e-05
1.84278e-05
1.84111e-05
1.84047e-05
1.84139e-05
1.84075e-05
5.19829e-06
5.20042e-06
4.20709e-07
5.20636e-06
5.20848e-06
1.83926e-05
1.83987e-05
1.83955e-05
1.84015e-05
4.2802e-07
5.21801e-06
5.22006e-06
5.21122e-06
5.21283e-06
3.81787e-06
8.93099e-06
3.80075e-06
8.93469e-06
1.32219e-06
2.93003e-06
1.62245e-07
2.5699e-07
1.2967e-06
2.94928e-06
1.63144e-07
1.32249e-06
2.9315e-06
1.6225e-07
2.5703e-07
1.29664e-06
2.9485e-06
1.63148e-07
3.82761e-06
8.93866e-06
8.93524e-06
3.84316e-06
3.82741e-06
8.93892e-06
8.93549e-06
3.84318e-06
1.33585e-06
2.60549e-07
2.9761e-06
1.65151e-07
2.95802e-06
1.64075e-07
1.36126e-06
1.33569e-06
2.60587e-07
2.97536e-06
1.65156e-07
2.95962e-06
1.64082e-07
1.36097e-06
5.20025e-06
5.19932e-06
4.21012e-07
5.20804e-06
5.20681e-06
1.84117e-05
1.84053e-05
1.8395e-05
1.8401e-05
4.27151e-07
5.21983e-06
5.21838e-06
5.21248e-06
5.21141e-06
1.83932e-05
1.83992e-05
1.32217e-06
2.93055e-06
1.6225e-07
2.56929e-07
1.29663e-06
2.94984e-06
1.63151e-07
3.81796e-06
8.93168e-06
3.80084e-06
8.93538e-06
1.32202e-06
1.62271e-07
2.93065e-06
2.57061e-07
1.29668e-06
1.6317e-07
2.94985e-06
3.82767e-06
8.94002e-06
8.93656e-06
3.84246e-06
1.33611e-06
2.60487e-07
2.9767e-06
1.65159e-07
2.95856e-06
1.6408e-07
1.36072e-06
3.82751e-06
8.9396e-06
8.93617e-06
3.84327e-06
1.33601e-06
2.60616e-07
1.6518e-07
2.97515e-06
1.64102e-07
2.95878e-06
1.3613e-06
3.81805e-06
8.93125e-06
3.80112e-06
8.93492e-06
1.32204e-06
1.62227e-07
2.93127e-06
2.56976e-07
1.29668e-06
1.63125e-07
2.94815e-06
3.81795e-06
8.93105e-06
3.80089e-06
8.93511e-06
1.33613e-06
2.60469e-07
2.97605e-06
1.65121e-07
2.95842e-06
1.6404e-07
1.36105e-06
3.82785e-06
8.93932e-06
8.93564e-06
3.84323e-06
1.33619e-06
2.60527e-07
1.65131e-07
2.97514e-06
1.64058e-07
2.95937e-06
1.36074e-06
3.82761e-06
8.93925e-06
8.93579e-06
3.8432e-06
5.20072e-06
5.19926e-06
4.21401e-07
5.2077e-06
5.20676e-06
1.84119e-05
1.84055e-05
1.8396e-05
1.8402e-05
4.27571e-07
5.21982e-06
5.21839e-06
5.21302e-06
5.21129e-06
1.83934e-05
1.83995e-05
1.32212e-06
1.62267e-07
2.93156e-06
2.56985e-07
1.29665e-06
1.63155e-07
2.9486e-06
3.81801e-06
8.93113e-06
3.80109e-06
8.93552e-06
3.81802e-06
8.93158e-06
3.80107e-06
8.93598e-06
1.33577e-06
2.60501e-07
1.65147e-07
2.97606e-06
1.64094e-07
2.95805e-06
1.36116e-06
1.33616e-06
2.60534e-07
1.65161e-07
2.97561e-06
1.64097e-07
2.95973e-06
1.36077e-06
3.82779e-06
8.93973e-06
8.93561e-06
3.84247e-06
3.82777e-06
8.94022e-06
8.93608e-06
3.84237e-06
1.84129e-05
1.84065e-05
1.84149e-05
1.84085e-05
4.27618e-07
5.21742e-06
5.21902e-06
5.21153e-06
5.21326e-06
1.83945e-05
1.84005e-05
1.83965e-05
1.84025e-05
1.83868e-05
1.83812e-05
1.83897e-05
1.83841e-05
5.22275e-06
5.22405e-06
4.52903e-07
5.22891e-06
5.23073e-06
1.83703e-05
1.83756e-05
1.83733e-05
1.83785e-05
4.60773e-07
5.23836e-06
5.24067e-06
5.23308e-06
5.23481e-06
3.86418e-06
8.93965e-06
3.85028e-06
8.94289e-06
1.39854e-06
2.98446e-06
1.66242e-07
2.72184e-07
1.37391e-06
3.00142e-06
1.67496e-07
1.39798e-06
2.98575e-06
1.66248e-07
2.72223e-07
1.37405e-06
3.00187e-06
1.675e-07
3.87073e-06
8.94624e-06
8.94319e-06
3.88303e-06
3.87092e-06
8.94655e-06
8.94353e-06
3.88218e-06
1.41089e-06
2.76229e-07
3.02503e-06
1.70188e-07
3.00909e-06
1.68754e-07
1.43468e-06
1.41125e-06
2.76266e-07
3.0255e-06
1.70191e-07
3.00959e-06
1.68758e-07
1.43399e-06
5.22395e-06
5.22286e-06
4.53202e-07
5.23046e-06
5.22903e-06
1.83873e-05
1.83817e-05
1.83728e-05
1.8378e-05
4.59935e-07
5.24035e-06
5.23883e-06
5.23429e-06
5.23318e-06
1.83707e-05
1.83759e-05
1.39847e-06
2.985e-06
1.66251e-07
2.72111e-07
1.37446e-06
3.00198e-06
1.67503e-07
3.86443e-06
8.94032e-06
3.85037e-06
8.94356e-06
1.39866e-06
1.66267e-07
2.98599e-06
2.72257e-07
1.37395e-06
1.67522e-07
3.00071e-06
3.87142e-06
8.94776e-06
8.94457e-06
3.88234e-06
1.41109e-06
2.76155e-07
3.02555e-06
1.70189e-07
3.00963e-06
1.68757e-07
1.43409e-06
3.87079e-06
8.94723e-06
8.9442e-06
3.88306e-06
1.41091e-06
2.76297e-07
1.70211e-07
3.02449e-06
1.68778e-07
3.01079e-06
1.43427e-06
3.86462e-06
8.93948e-06
3.85073e-06
8.94328e-06
1.39811e-06
1.66224e-07
2.98569e-06
2.72162e-07
1.37444e-06
1.67475e-07
3.00019e-06
3.86443e-06
8.93998e-06
3.85038e-06
8.94327e-06
1.41091e-06
2.76144e-07
3.02502e-06
1.70151e-07
3.00922e-06
1.68717e-07
1.4346e-06
3.87094e-06
8.94693e-06
8.94339e-06
3.88322e-06
1.41129e-06
2.76199e-07
1.70164e-07
3.02512e-06
1.68735e-07
3.01041e-06
1.43427e-06
3.87078e-06
8.94696e-06
8.94393e-06
3.88311e-06
5.2243e-06
5.2224e-06
4.5315e-07
5.23004e-06
5.22926e-06
1.83876e-05
1.8382e-05
1.83736e-05
1.83789e-05
4.59837e-07
5.23994e-06
5.23906e-06
5.23488e-06
5.23297e-06
1.83711e-05
1.83764e-05
1.39871e-06
1.66264e-07
2.98601e-06
2.72172e-07
1.37439e-06
1.67507e-07
3.00054e-06
3.86376e-06
8.9398e-06
3.85117e-06
8.94351e-06
3.86451e-06
8.94025e-06
3.85118e-06
8.94414e-06
1.41102e-06
2.76173e-07
1.70176e-07
3.0249e-06
1.68774e-07
3.00919e-06
1.4345e-06
1.41087e-06
2.76206e-07
1.70196e-07
3.02546e-06
1.68775e-07
3.0106e-06
1.43444e-06
3.87154e-06
8.94729e-06
8.94357e-06
3.88292e-06
3.87085e-06
8.94779e-06
8.94413e-06
3.88315e-06
1.83888e-05
1.83832e-05
1.83907e-05
1.8385e-05
4.60783e-07
5.23864e-06
5.24019e-06
5.23343e-06
5.23511e-06
1.83724e-05
1.83776e-05
1.83741e-05
1.83794e-05
1.83649e-05
1.836e-05
1.83678e-05
1.83629e-05
5.24288e-06
5.24431e-06
4.87243e-07
5.24743e-06
5.24959e-06
1.83502e-05
1.83547e-05
1.83531e-05
1.83576e-05
4.94689e-07
5.25595e-06
5.25804e-06
5.25168e-06
5.25325e-06
3.89845e-06
8.94709e-06
3.88895e-06
8.95007e-06
1.46888e-06
3.03238e-06
1.71601e-07
2.89319e-07
1.44627e-06
3.0473e-06
1.73211e-07
1.46852e-06
3.03291e-06
1.71604e-07
2.89365e-07
1.44675e-06
3.04664e-06
1.73214e-07
3.90393e-06
8.95303e-06
8.95e-06
3.91319e-06
3.90431e-06
8.95333e-06
8.95033e-06
3.91313e-06
1.48046e-06
2.93829e-07
3.06815e-06
1.76581e-07
3.05408e-06
1.74796e-07
1.50158e-06
1.48064e-06
2.93869e-07
3.06755e-06
1.76583e-07
3.0552e-06
1.748e-07
1.50162e-06
5.24396e-06
5.24276e-06
4.8725e-07
5.24922e-06
5.24783e-06
1.83651e-05
1.83603e-05
1.83527e-05
1.83572e-05
4.9436e-07
5.25769e-06
5.25618e-06
5.25291e-06
5.25151e-06
1.83504e-05
1.83548e-05
1.46858e-06
3.03294e-06
1.71606e-07
2.89242e-07
1.44676e-06
3.04784e-06
1.73215e-07
3.89916e-06
8.94775e-06
3.88847e-06
8.95055e-06
1.46863e-06
1.71627e-07
3.03392e-06
2.894e-07
1.44654e-06
1.73239e-07
3.04662e-06
3.90457e-06
8.95433e-06
8.95141e-06
3.91306e-06
1.48075e-06
2.9375e-07
3.06873e-06
1.76589e-07
3.05461e-06
1.74801e-07
1.50166e-06
3.90395e-06
8.9538e-06
8.95113e-06
3.91325e-06
1.48073e-06
2.93902e-07
1.76609e-07
3.06762e-06
1.74823e-07
3.05567e-06
1.50174e-06
3.89931e-06
8.947e-06
3.88863e-06
8.95028e-06
1.46861e-06
1.71582e-07
3.03265e-06
2.89305e-07
1.44675e-06
1.73187e-07
3.04757e-06
3.8992e-06
8.94754e-06
3.88849e-06
8.95045e-06
1.48047e-06
2.93741e-07
3.0682e-06
1.76542e-07
3.05422e-06
1.7476e-07
1.5015e-06
3.90419e-06
8.95344e-06
8.95038e-06
3.9127e-06
1.48073e-06
2.93807e-07
1.76558e-07
3.06839e-06
1.74777e-07
3.05432e-06
1.50176e-06
3.90401e-06
8.95363e-06
8.95096e-06
3.9133e-06
5.24441e-06
5.24273e-06
4.87146e-07
5.24919e-06
5.248e-06
1.83656e-05
1.83607e-05
1.83534e-05
1.8358e-05
4.94196e-07
5.25759e-06
5.25638e-06
5.2531e-06
5.25146e-06
1.83508e-05
1.83554e-05
1.46911e-06
1.71625e-07
3.03301e-06
2.89309e-07
1.44643e-06
1.73222e-07
3.04649e-06
3.89931e-06
8.94737e-06
3.88881e-06
8.95052e-06
3.89926e-06
8.94781e-06
3.88855e-06
8.95112e-06
1.48044e-06
2.93771e-07
1.76572e-07
3.06705e-06
1.74819e-07
3.05501e-06
1.50205e-06
1.48037e-06
2.93805e-07
1.76594e-07
3.06763e-06
1.74821e-07
3.05544e-06
1.50187e-06
3.9041e-06
8.9536e-06
8.95089e-06
3.91336e-06
3.90408e-06
8.95429e-06
8.95115e-06
3.91332e-06
1.8367e-05
1.83621e-05
1.83687e-05
1.83638e-05
4.95018e-07
5.25599e-06
5.25769e-06
5.25161e-06
5.2532e-06
1.83523e-05
1.83568e-05
1.8354e-05
1.83585e-05
1.8345e-05
1.83408e-05
1.83479e-05
1.83437e-05
5.2597e-06
5.26137e-06
5.23096e-07
5.26383e-06
5.26578e-06
1.83319e-05
1.83358e-05
1.83347e-05
1.83386e-05
5.30573e-07
5.27102e-06
5.27288e-06
5.26707e-06