/*--------------------------------*- C++ -*----------------------------------*\
| =========                 |                                                 |
| \\      /  F ield         | OpenFOAM: The Open Source CFD Toolbox           |
|  \\    /   O peration     | Version:  2312                                  |
|   \\  /    A nd           | Website:  www.openfoam.com                      |
|    \\/     M anipulation  |                                                 |
\*---------------------------------------------------------------------------*/
FoamFile
{
    version     2.0;
    format      ascii;
    arch        "LSB;label=32;scalar=64";
    class       surfaceScalarField;
    location    "200";
    object      phi;
}
// * * * * * * * * * * * * * * * * * * * * * * * * * * * * * * * * * * * * * //

dimensions      [0 3 -1 0 0 0 0];

oriented        oriented;

internalField   nonuniform List<scalar> 
123680
(
-8.18643e-07
-8.19433e-07
4.33355e-07
4.34156e-07
0.00115006
-0.00114929
-1.50294e-06
8.19355e-07
3.99775e-07
0.00113925
-4.98934e-07
1.1293e-06
1.47064e-07
7.47239e-07
-5.44843e-07
8.4578e-08
-1.22942e-06
-0.00113881
-1.5002e-06
8.19062e-07
4.05206e-07
0.00113912
-4.9612e-07
1.12656e-06
1.44006e-07
7.47316e-07
-5.44792e-07
8.48935e-08
-1.2294e-06
-0.00113868
1.53177e-06
1.4948e-06
-4.76326e-07
-4.79325e-07
0.000274439
-0.00027651
-7.98935e-07
-7.99678e-07
-0.00115234
4.25659e-07
4.26461e-07
0.00115308
-0.00114051
-1.49435e-06
7.99558e-07
3.90454e-07
0.00114091
-4.87388e-07
1.13504e-06
1.53512e-07
7.54537e-07
-5.3008e-07
-1.21366e-06
9.27691e-08
-0.00114038
-1.49151e-06
7.99294e-07
3.96019e-07
0.00114077
-4.8467e-07
1.1323e-06
1.50605e-07
7.54667e-07
-5.30117e-07
-1.21368e-06
9.29988e-08
-0.000276525
1.52324e-06
1.48628e-06
-4.63668e-07
-4.66593e-07
0.000274445
-7.79051e-07
-7.79647e-07
-0.00115529
4.18151e-07
4.18758e-07
0.00115601
-0.00114201
-1.48486e-06
7.79635e-07
3.80717e-07
0.00114236
-4.7583e-07
1.14047e-06
1.60004e-07
7.61868e-07
-5.15427e-07
-1.19763e-06
1.00949e-07
-0.00114188
-1.4822e-06
7.79442e-07
3.86305e-07
0.00114222
-4.73098e-07
1.1377e-06
1.57078e-07
7.62002e-07
-5.15427e-07
-1.19764e-06
1.01162e-07
-0.000276479
1.51378e-06
1.47671e-06
-4.50496e-07
-4.53547e-07
0.000274393
-7.58162e-07
-7.58825e-07
-0.00115813
4.10061e-07
4.10503e-07
0.00115883
-0.00114331
-1.47467e-06
7.5852e-07
3.71462e-07
0.00114361
-4.64205e-07
1.14573e-06
1.66221e-07
7.69213e-07
-5.01059e-07
-1.18141e-06
1.09183e-07
-0.00114318
-1.47191e-06
7.58715e-07
3.77079e-07
0.00114348
-4.61442e-07
1.14299e-06
1.63335e-07
7.69215e-07
-5.01162e-07
-1.18149e-06
1.09218e-07
-0.000276379
1.50358e-06
1.46644e-06
-4.37386e-07
-4.40409e-07
0.000274287
-7.36669e-07
-7.3748e-07
-0.00116088
4.01735e-07
4.0211e-07
0.00116155
-0.00114442
-1.46371e-06
7.37226e-07
3.61719e-07
0.00114467
-4.528e-07
1.15099e-06
1.72145e-07
7.76503e-07
-4.8689e-07
-1.16514e-06
1.17232e-07
-0.00114429
-1.46099e-06
7.37403e-07
3.6767e-07
0.00114454
-4.50054e-07
1.14826e-06
1.69356e-07
7.7647e-07
-4.87058e-07
-1.1653e-06
1.17224e-07
-0.000276232
1.49277e-06
1.45559e-06
-4.2431e-07
-4.27334e-07
0.000274135
-7.1465e-07
-7.15464e-07
-0.00116352
3.93168e-07
3.93446e-07
0.00116416
-0.00114534
-1.45227e-06
7.15143e-07
3.5205e-07
0.00114555
-4.41692e-07
1.15636e-06
1.78096e-07
7.83645e-07
-4.73151e-07
-1.14917e-06
1.2508e-07
-0.00114521
-1.44958e-06
7.15339e-07
3.5779e-07
0.00114541
-4.38935e-07
1.15359e-06
1.75229e-07
7.83641e-07
-4.73256e-07
-1.14922e-06
1.25098e-07
-0.000276047
1.48136e-06
1.4442e-06
-4.11403e-07
-4.14424e-07
0.000273947
-6.92279e-07
-6.93089e-07
-0.00116605
3.8451e-07
3.84747e-07
0.00116667
-0.00114607
-1.44048e-06
6.92739e-07
3.41376e-07
0.00114623
-4.3092e-07
1.16186e-06
1.8397e-07
7.90628e-07
-4.59771e-07
-1.13355e-06
1.3274e-07
-0.00114594
-1.43769e-06
6.92985e-07
3.47332e-07
0.0011461
-4.28132e-07
1.15903e-06
1.81036e-07
7.90698e-07
-4.59953e-07
-1.13371e-06
1.32818e-07
-0.000275831
1.46944e-06
1.43228e-06
-3.98699e-07
-4.01657e-07
0.00027373
-6.69576e-07
-6.70406e-07
-0.00116848
3.75736e-07
3.76031e-07
0.00116906
-0.00114663
-1.42844e-06
6.70011e-07
3.30398e-07
0.00114675
-4.20352e-07
1.16715e-06
1.89604e-07
7.97328e-07
-4.4709e-07
-1.11845e-06
1.40196e-07
-0.0011465
-1.4258e-06
6.70124e-07
3.36186e-07
0.00114662
-4.17591e-07
1.16441e-06
1.86716e-07
7.97404e-07
-4.47121e-07
-1.11855e-06
1.40236e-07
-0.000275593
1.45747e-06
1.42036e-06
-3.86517e-07
-3.89454e-07
0.000273491
-6.46961e-07
-6.47598e-07
-0.00117079
3.66947e-07
3.67345e-07
0.00117135
-0.00114703
-1.41654e-06
6.4729e-07
3.19037e-07
0.00114711
-4.10384e-07
1.1724e-06
1.94984e-07
8.03733e-07
-4.3492e-07
-1.10422e-06
1.47214e-07
-0.0011469
-1.41386e-06
6.4739e-07
3.2466e-07
0.00114698
-4.07572e-07
1.16968e-06
1.92129e-07
8.03783e-07
-4.35013e-07
-1.10427e-06
1.47327e-07
-0.00027534
1.4457e-06
1.40861e-06
-3.75081e-07
-3.77968e-07
0.000273239
-6.24728e-07
-6.25215e-07
-0.00117299
3.52794e-07
3.58965e-07
0.00117352
-0.00114728
-1.40525e-06
6.24819e-07
3.07305e-07
0.00114733
-4.00993e-07
1.17731e-06
2.00028e-07
8.09571e-07
-4.23522e-07
-1.09069e-06
1.53726e-07
-0.00114715
-1.40241e-06
6.24914e-07
3.12959e-07
0.00114719
-3.98131e-07
1.17461e-06
1.97237e-07
8.0958e-07
-4.23623e-07
-1.09084e-06
1.53852e-07
-0.00027508
1.43418e-06
1.39713e-06
-3.64309e-07
-3.67203e-07
0.00027298
-6.03577e-07
-6.03896e-07
-0.00117507
3.44986e-07
3.51367e-07
0.00117559
-0.0011474
-1.39437e-06
6.03439e-07
2.95329e-07
0.00114742
-3.92255e-07
1.18184e-06
2.04679e-07
8.14821e-07
-4.13319e-07
-1.07845e-06
1.59614e-07
-0.00114727
-1.39153e-06
6.03586e-07
3.00985e-07
0.00114729
-3.89356e-07
1.17911e-06
2.01953e-07
8.14749e-07
-4.13403e-07
-1.07861e-06
1.59673e-07
-0.000274818
1.42338e-06
1.38634e-06
-3.54613e-07
-3.57454e-07
0.000272721
-5.84053e-07
-5.83985e-07
-0.00117706
3.38153e-07
3.44645e-07
0.00117754
-0.00114742
-1.38443e-06
5.83739e-07
2.83696e-07
0.00114741
-3.84386e-07
1.18576e-06
2.08729e-07
8.19099e-07
-4.04194e-07
-1.06758e-06
1.64568e-07
-0.00114729
-1.3814e-06
5.83624e-07
2.88952e-07
0.00114728
-3.8138e-07
1.18311e-06
2.06106e-07
8.19061e-07
-4.04329e-07
-1.06768e-06
1.64559e-07
-0.00027456
1.41328e-06
1.37625e-06
-3.4587e-07
-3.48814e-07
0.000272466
-5.66284e-07
-5.65873e-07
-0.00117894
3.3217e-07
3.38995e-07
0.0011794
-0.00114735
-1.37529e-06
5.65786e-07
2.724e-07
0.00114732
-3.77373e-07
1.18892e-06
2.12197e-07
8.22383e-07
-3.96434e-07
-1.05821e-06
1.68483e-07
-0.00114721
-1.37233e-06
5.65603e-07
2.77339e-07
0.00114719
-3.74122e-07
1.18638e-06
2.09688e-07
8.22408e-07
-3.9655e-07
-1.05834e-06
1.68476e-07
-0.00027431
1.40419e-06
1.36717e-06
-3.38376e-07
-3.41261e-07
0.000272219
-5.49959e-07
-5.48836e-07
-0.00118072
3.26672e-07
3.34e-07
0.00118116
-0.00114721
-1.36725e-06
5.49148e-07
2.61339e-07
0.00114718
-3.71161e-07
1.19148e-06
2.15103e-07
8.24908e-07
-3.89675e-07
-1.04994e-06
1.71559e-07
-0.00114708
-1.3639e-06
5.48772e-07
2.65696e-07
0.00114704
-3.67793e-07
1.18915e-06
2.12798e-07
8.2498e-07
-3.89857e-07
-1.0501e-06
1.71548e-07
-0.000274072
1.39599e-06
1.35898e-06
-3.3189e-07
-3.34789e-07
0.000271983
-5.33521e-07
-5.3171e-07
-0.00118242
3.20844e-07
3.2876e-07
0.00118283
-0.00114703
-1.35961e-06
5.32368e-07
2.4991e-07
0.00114699
-3.65419e-07
1.19384e-06
2.1766e-07
8.26994e-07
-3.83598e-07
-1.0425e-06
1.74184e-07
-0.0011469
-1.35613e-06
5.31878e-07
2.54017e-07
0.00114685
-3.61832e-07
1.19168e-06
2.15553e-07
8.27037e-07
-3.83719e-07
-1.04267e-06
1.742e-07
-0.000273847
1.38836e-06
1.35147e-06
-3.26136e-07
-3.2894e-07
0.000271762
-5.15026e-07
-5.1219e-07
-0.00118402
3.13301e-07
3.2201e-07
0.00118442
-0.00114683
-1.35213e-06
5.13585e-07
2.37725e-07
0.00114678
-3.59692e-07
1.19619e-06
2.20342e-07
8.29098e-07
-3.77641e-07
-1.03521e-06
1.76826e-07
-0.00114669
-1.34858e-06
5.12615e-07
2.41406e-07
0.00114663
-3.55916e-07
1.1941e-06
2.18342e-07
8.29453e-07
-3.77554e-07
-1.03515e-06
1.77048e-07
-0.000273637
1.38084e-06
1.34417e-06
-3.20659e-07
-3.23296e-07
0.000271556
-4.91099e-07
-4.87717e-07
-0.00118553
3.02509e-07
3.11803e-07
0.00118589
-0.0011466
-1.34424e-06
4.90514e-07
2.2363e-07
0.00114655
-3.53574e-07
1.19899e-06
2.23428e-07
8.32141e-07
-3.70926e-07
-1.02726e-06
1.80411e-07
-0.00114646
-1.34056e-06
4.88232e-07
2.27016e-07
0.0011464
-3.49834e-07
1.19697e-06
2.21241e-07
8.32708e-07
-3.70573e-07
-1.02691e-06
1.80806e-07
-0.000273442
1.37297e-06
1.33658e-06
-3.14857e-07
-3.17162e-07
0.000271364
-4.58531e-07
-4.55753e-07
-0.00118692
2.92588e-07
2.95504e-07
0.00118724
-0.00114636
-1.33559e-06
4.59973e-07
2.06164e-07
0.00114631
-3.46455e-07
1.20256e-06
2.27349e-07
8.36955e-07
-3.62594e-07
-1.01736e-06
1.85531e-07
-0.00114622
-1.33218e-06
4.56767e-07
2.10425e-07
0.00114616
-3.43175e-07
1.20017e-06
2.24665e-07
8.37969e-07
-3.61926e-07
-1.01671e-06
1.86211e-07
-0.000273261
1.3645e-06
1.3282e-06
-3.08173e-07
-3.10469e-07
0.000271187
-4.15517e-07
-4.1552e-07
-0.00118817
2.71577e-07
2.72311e-07
0.00118845
-0.00114611
-1.32535e-06
4.20632e-07
1.84033e-07
0.00114605
-3.38101e-07
1.20771e-06
2.32495e-07
8.43809e-07
-3.51887e-07
-1.00553e-06
1.92997e-07
-0.00114597
-1.3225e-06
4.16509e-07
1.91613e-07
0.0011459
-3.35499e-07
1.20461e-06
2.29213e-07
8.45187e-07
-3.50794e-07
-1.00428e-06
1.94334e-07
-0.000273092
1.35462e-06
1.31815e-06
-2.99713e-07
-3.02333e-07
0.000271021
-3.62838e-07
-3.69143e-07
-0.00118925
2.47369e-07
2.42579e-07
0.00118949
-0.00114584
-1.31352e-06
3.72716e-07
1.58058e-07
0.00114577
-3.27601e-07
1.21449e-06
2.39642e-07
8.52816e-07
-3.39193e-07
-9.9133e-07
2.02636e-07
-0.00114568
-1.31109e-06
3.68296e-07
1.70121e-07
0.0011456
-3.25804e-07
1.2108e-06
2.35391e-07
8.54768e-07
-3.37156e-07
-9.89484e-07
2.0451e-07
-0.000272935
1.34314e-06
1.30583e-06
-2.89181e-07
-2.92615e-07
0.000270867
-3.05872e-07
-3.1948e-07
-0.00119015
2.21514e-07
2.09984e-07
0.00119034
-0.00114553
-1.30069e-06
3.18751e-07
1.3108e-07
0.00114545
-3.17111e-07
1.22215e-06
2.4692e-07
8.63111e-07
-3.25089e-07
-9.76262e-07
2.13347e-07
-0.00114534
-1.29899e-06
3.16222e-07
1.46284e-07
0.00114525
-3.15681e-07
1.21788e-06
2.42353e-07
8.65463e-07
-3.23132e-07
-9.73944e-07
2.14994e-07
-0.000272789
1.33065e-06
1.29234e-06
-2.77705e-07
-2.81706e-07
0.000270725
-2.52046e-07
-2.69473e-07
-0.00119085
1.96155e-07
1.7889e-07
0.001191
-0.0011452
-1.2891e-06
2.61791e-07
1.06e-07
0.00114512
-3.07151e-07
1.22904e-06
2.53462e-07
8.73764e-07
-3.11035e-07
-9.60971e-07
2.24654e-07
-0.00114497
-1.28786e-06
2.64288e-07
1.24614e-07
0.00114487
-3.05933e-07
1.22421e-06
2.48889e-07
8.75202e-07
-3.10357e-07
-9.59574e-07
2.24683e-07
-0.000272654
1.31935e-06
1.27982e-06
-2.67079e-07
-2.71904e-07
0.000270594
-2.04773e-07
-2.19256e-07
-0.00119138
1.67639e-07
1.5202e-07
0.00119148
-0.00114485
-1.27874e-06
2.05897e-07
8.38505e-08
0.00114477
-2.98877e-07
1.23541e-06
2.59302e-07
8.84502e-07
-2.97288e-07
-9.4641e-07
2.35559e-07
-0.00114458
-1.27766e-06
2.13393e-07
1.00485e-07
0.00114448
-2.97572e-07
1.23032e-06
2.54344e-07
8.83491e-07
-2.98579e-07
-9.47312e-07
2.33992e-07
-0.000272532
1.30828e-06
1.26905e-06
-2.57934e-07
-2.62483e-07
0.000270475
-1.64745e-07
-1.67152e-07
-0.00119174
1.33889e-07
1.2764e-07
0.00119181
-0.0011445
-1.26957e-06
1.56801e-07
6.45341e-08
0.00114441
-2.91608e-07
1.24123e-06
2.64224e-07
8.93939e-07
-2.86179e-07
-9.33289e-07
2.4414e-07
-0.00114421
-1.26725e-06
1.6249e-07
6.99879e-08
0.00114413
-2.88949e-07
1.23756e-06
2.61027e-07
8.91504e-07
-2.87431e-07
-9.35784e-07
2.42787e-07
-0.00027242
1.29769e-06
1.26018e-06
-2.50576e-07
-2.53175e-07
0.000270366
-1.31064e-07
-1.21182e-07
-0.00119198
1.00249e-07
1.06173e-07
0.00119203
-0.00114414
-1.26169e-06
1.20715e-07
4.82237e-08
0.00114406
-2.85157e-07
1.24616e-06
2.6868e-07
9.00125e-07
-2.78339e-07
-9.24085e-07
2.49536e-07
-0.00114388
-1.25856e-06
1.23138e-07
4.71425e-08
0.0011438
-2.81362e-07
1.2434e-06
2.66478e-07
8.97734e-07
-2.79327e-07
-9.26636e-07
2.48491e-07
-0.000272317
1.28954e-06
1.25402e-06
-2.45404e-07
-2.46106e-07
0.000270265
1.54298e-06
1.50321e-06
-4.76517e-07
-4.82032e-07
0.000274497
-0.000276584
-1.17396e-06
-1.13382e-06
0.000276599
-0.000274508
1.05269e-07
1.10732e-07
4.06221e-07
0.0011387
-5.0455e-07
1.16961e-06
1.52864e-07
7.52689e-07
-5.45069e-07
8.45404e-08
-1.23513e-06
-0.00113826
-1.54045e-06
8.18959e-07
4.06606e-07
0.00113878
-5.04633e-07
1.16689e-06
1.52675e-07
7.5269e-07
-5.42236e-07
8.14006e-08
-1.23489e-06
-0.00113833
0.00113996
8.03737e-07
-0.00113955
3.99002e-07
-1.53662e-06
1.57754e-07
-4.95808e-07
-1.22335e-06
9.07597e-08
-5.3392e-07
7.5821e-07
1.17124e-06
0.00114003
8.03983e-07
-0.00113963
3.99356e-07
-1.53415e-06
1.57526e-07
-4.9599e-07
-1.22302e-06
8.76485e-08
-5.31105e-07
7.58267e-07
-4.76807e-07
-4.79038e-07
0.000274478
-0.000276565
-1.13368e-06
0.00027658
-0.000274489
1.05389e-07
1.07814e-07
4.05168e-07
0.0011397
-4.99156e-07
1.12944e-06
1.47015e-07
7.52728e-07
-5.45006e-07
8.47954e-08
-1.23495e-06
-0.00113926
-1.53486e-06
8.18354e-07
4.06288e-07
0.00113866
-5.0455e-07
1.16157e-06
1.52952e-07
7.52704e-07
-5.42183e-07
8.15262e-08
-1.23486e-06
-0.00113822
0.00114096
8.04477e-07
-0.00114055
3.98066e-07
-1.4968e-06
1.51934e-07
-4.90377e-07
-1.22325e-06
9.1e-08
-5.33854e-07
7.58179e-07
1.16589e-06
0.00113991
8.03747e-07
-0.00113951
3.99069e-07
-1.5285e-06
1.57855e-07
-4.95897e-07
-1.22315e-06
8.76961e-08
-5.31079e-07
7.58274e-07
8.18154e-07
4.06021e-07
0.00113828
-5.01464e-07
1.1587e-06
1.50016e-07
7.44629e-07
-5.39202e-07
7.83427e-08
-1.22629e-06
-0.00113784
8.04418e-07
-0.0011401
4.03784e-07
-1.4966e-06
1.51881e-07
-4.90304e-07
-1.21763e-06
9.07618e-08
7.52768e-07
-5.33747e-07
1.16304e-06
0.00113954
8.0292e-07
-0.00113913
3.98841e-07
-1.52536e-06
1.54921e-07
-4.92812e-07
-1.21455e-06
8.46789e-08
-5.28076e-07
7.5012e-07
-4.76913e-07
-4.81586e-07
0.000274463
-0.00027654
-1.13092e-06
0.000276554
-0.000274474
1.05449e-07
1.10727e-07
8.18949e-07
4.05074e-07
0.00113926
-4.99076e-07
1.1212e-06
1.47019e-07
7.49809e-07
-5.44806e-07
8.49591e-08
-1.23179e-06
-0.00113882
8.04223e-07
-0.00113997
3.98188e-07
-1.49377e-06
1.48952e-07
-4.87508e-07
-1.21773e-06
9.10502e-08
7.5279e-07
-5.33794e-07
1.12549e-06
0.00114052
8.04336e-07
-0.00114011
3.9772e-07
-1.48842e-06
1.5189e-07
-4.90384e-07
-1.22012e-06
9.10928e-08
-5.33694e-07
7.55366e-07
-0.00027445
1.05235e-07
1.08181e-07
1.53441e-06
1.49457e-06
-4.63765e-07
-4.6929e-07
0.000274503
-1.17947e-06
-1.13935e-06
0.000276554
-0.000274469
1.14331e-07
1.19791e-07
3.96804e-07
0.00114035
-4.92934e-07
1.17544e-06
1.59323e-07
7.60045e-07
-5.30259e-07
-1.21935e-06
9.27863e-08
-1.53192e-06
7.99176e-07
3.97208e-07
0.00114043
-4.93066e-07
1.1726e-06
1.59097e-07
7.60093e-07
-5.27452e-07
-1.2191e-06
8.96967e-08
0.00114146
7.83976e-07
-0.0011411
3.89404e-07
-1.52737e-06
1.64132e-07
-4.84346e-07
-1.20733e-06
9.88799e-08
-5.19267e-07
7.65593e-07
1.17674e-06
0.00114153
7.84043e-07
-0.00114118
3.89585e-07
-1.52479e-06
1.63977e-07
-4.84523e-07
-1.20707e-06
9.58886e-08
-5.16364e-07
7.65587e-07
-4.64047e-07
-4.6637e-07
0.000274484
-1.13918e-06
0.000276534
-0.00027445
1.14451e-07
1.16889e-07
3.95772e-07
0.00114136
-4.87505e-07
1.1353e-06
1.53568e-07
7.60029e-07
-5.30157e-07
-1.21926e-06
9.29466e-08
-1.52627e-06
7.99063e-07
3.96793e-07
0.00114031
-4.93082e-07
1.16727e-06
1.59386e-07
7.60064e-07
-5.27449e-07
-1.2191e-06
8.96812e-08
0.00114246
7.84663e-07
-0.00114211
3.88228e-07
-1.48751e-06
1.58379e-07
-4.78958e-07
-1.20716e-06
9.91557e-08
-5.19184e-07
7.65543e-07
1.17135e-06
0.00114141
7.83879e-07
-0.00114106
3.89474e-07
-1.51929e-06
1.64203e-07
-4.84404e-07
-1.20705e-06
9.59133e-08
-5.16349e-07
7.65566e-07
7.98088e-07
3.96766e-07
0.00113993
-4.89936e-07
1.16446e-06
1.56557e-07
7.51928e-07
-5.24445e-07
8.6715e-08
-1.21058e-06
7.84555e-07
-0.00114166
3.9409e-07
-1.48721e-06
1.5837e-07
-4.78765e-07
-1.20169e-06
9.90042e-08
7.60021e-07
-5.19046e-07
1.16849e-06
0.00114104
7.83102e-07
-0.00114068
3.89149e-07
-1.51618e-06
1.61341e-07
-4.81345e-07
-1.19859e-06
9.29811e-08
-5.13387e-07
7.57454e-07
-4.64141e-07
-4.68924e-07
0.00027447
-1.13638e-06
0.000276509
-0.000274435
1.14394e-07
1.19793e-07
7.99561e-07
3.95658e-07
0.00114091
-4.87474e-07
1.12692e-06
1.53526e-07
7.57154e-07
-5.30022e-07
9.31055e-08
-1.21614e-06
7.84443e-07
-0.00114152
3.88513e-07
-1.48456e-06
1.55492e-07
-4.75976e-07
-1.20175e-06
9.91402e-08
7.60163e-07
-5.1901e-07
1.13102e-06
0.00114202
7.84558e-07
-0.00114166
3.88031e-07
-1.47913e-06
1.58379e-07
-4.78874e-07
-1.20404e-06
9.92227e-08
-5.19008e-07
7.6262e-07
-0.000274411
1.14354e-07
1.17194e-07
1.52495e-06
1.48508e-06
-4.50704e-07
-4.56244e-07
0.000274451
-1.18472e-06
-1.14465e-06
0.000276454
-0.000274376
1.2299e-07
1.28378e-07
3.87231e-07
0.0011418
-4.81438e-07
1.18087e-06
1.65637e-07
7.67321e-07
-5.15608e-07
-1.20333e-06
1.0088e-07
-1.52244e-06
7.79132e-07
3.87414e-07
0.00114188
-4.81538e-07
1.17803e-06
1.65559e-07
7.67407e-07
-5.12761e-07
-1.203e-06
9.79017e-08
0.00114276
7.63244e-07
-0.00114246
3.80268e-07
-1.51736e-06
1.70421e-07
-4.72707e-07
-1.19112e-06
1.07003e-07
-5.04867e-07
7.72802e-07
1.18201e-06
0.00114284
7.63445e-07
-0.00114253
3.80397e-07
-1.5148e-06
1.70237e-07
-4.72866e-07
-1.19092e-06
1.04063e-07
-5.01975e-07
7.7292e-07
-4.50991e-07
-4.53278e-07
0.000274431
-1.14442e-06
0.000276434
-0.000274357
1.23047e-07
1.2558e-07
3.85944e-07
0.00114281
-4.76014e-07
1.14076e-06
1.59945e-07
7.67382e-07
-5.15556e-07
-1.20309e-06
1.01143e-07
-1.51693e-06
7.79064e-07
3.87358e-07
0.00114176
-4.8149e-07
1.17267e-06
1.65748e-07
7.67389e-07
-5.12805e-07
-1.20303e-06
9.79191e-08
0.00114377
7.63912e-07
-0.00114346
3.79028e-07
-1.47745e-06
1.64673e-07
-4.6729e-07
-1.19092e-06
1.07252e-07
-5.04732e-07
7.72799e-07
1.17656e-06
0.00114272
7.63308e-07
-0.00114241
3.80335e-07
-1.50933e-06
1.70435e-07
-4.72802e-07
-1.19088e-06
1.04077e-07
-5.01937e-07
7.72904e-07
7.78185e-07
3.87011e-07
0.00114138
-4.78396e-07
1.1698e-06
1.62929e-07
7.59294e-07
-5.09769e-07
9.5008e-08
-1.19449e-06
7.63712e-07
-0.00114301
3.84818e-07
-1.47722e-06
1.64738e-07
-4.67092e-07
-1.18544e-06
1.07153e-07
7.67385e-07
-5.04623e-07
1.17376e-06
0.00114234
7.62324e-07
-0.00114203
3.8008e-07
-1.50616e-06
1.67603e-07
-4.69721e-07
-1.18238e-06
1.0121e-07
-4.98994e-07
7.64773e-07
-4.5116e-07
-4.55937e-07
0.000274417
-1.14168e-06
0.000276409
-0.000274342
1.23071e-07
1.28344e-07
7.79636e-07
3.85886e-07
0.00114237
-4.75919e-07
1.13235e-06
1.5998e-07
7.64452e-07
-5.15394e-07
1.0119e-07
-1.19997e-06
7.63965e-07
-0.00114288
3.79324e-07
-1.47453e-06
1.61835e-07
-4.64331e-07
-1.18561e-06
1.07228e-07
7.6737e-07
-5.04731e-07
1.13635e-06
0.00114333
7.64075e-07
-0.00114302
3.78671e-07
-1.46904e-06
1.64755e-07
-4.67146e-07
-1.18787e-06
1.07241e-07
-5.04634e-07
7.69891e-07
-0.000274318
1.23004e-07
1.25818e-07
1.51485e-06
1.47493e-06
-4.37629e-07
-4.43158e-07
0.000274345
-1.18997e-06
-1.14993e-06
0.000276308
-0.000274236
1.31341e-07
1.36728e-07
3.78203e-07
0.00114306
-4.69845e-07
1.18604e-06
1.71902e-07
7.74648e-07
-5.01306e-07
-1.18706e-06
1.08986e-07
-1.51222e-06
7.58248e-07
3.7827e-07
0.00114313
-4.69912e-07
1.18332e-06
1.71782e-07
7.74724e-07
-4.98442e-07
-1.18683e-06
1.06056e-07
0.00114387
7.41872e-07
-0.00114361
3.70991e-07
-1.50669e-06
1.76336e-07
-4.61296e-07
-1.17476e-06
1.15092e-07
-4.90676e-07
7.8023e-07
1.18726e-06
0.00114394
7.41941e-07
-0.00114368
3.70954e-07
-1.50406e-06
1.76325e-07
-4.61279e-07
-1.17462e-06
1.12204e-07
-4.87815e-07
7.80231e-07
-4.37871e-07
-4.40118e-07
0.000274326
-1.14966e-06
0.000276288
-0.000274216
1.31402e-07
1.33909e-07
3.76852e-07
0.00114407
-4.64358e-07
1.14598e-06
1.66249e-07
7.74709e-07
-5.01185e-07
-1.18679e-06
1.09176e-07
-1.50674e-06
7.5819e-07
3.78214e-07
0.00114301
-4.69965e-07
1.17785e-06
1.71885e-07
7.74733e-07
-4.98388e-07
-1.18678e-06
1.06079e-07
0.00114488
7.42662e-07
-0.00114462
3.69622e-07
-1.46675e-06
1.70723e-07
-4.55819e-07
-1.17476e-06
1.15351e-07
-4.90568e-07
7.80249e-07
1.18184e-06
0.00114382
7.41832e-07
-0.00114357
3.71285e-07
-1.49863e-06
1.76422e-07
-4.61387e-07
-1.17464e-06
1.12155e-07
-4.87811e-07
7.80178e-07
7.57265e-07
3.77968e-07
0.00114264
-4.66849e-07
1.17505e-06
1.69133e-07
7.6661e-07
-4.95444e-07
1.03181e-07
-1.1783e-06
7.42514e-07
-0.00114417
3.75315e-07
-1.46652e-06
1.70748e-07
-4.55611e-07
-1.16917e-06
1.15229e-07
7.7476e-07
-4.90429e-07
1.17894e-06
0.00114345
7.41085e-07
-0.00114319
3.70815e-07
-1.49556e-06
1.73567e-07
-4.58311e-07
-1.16606e-06
1.09378e-07
-4.84694e-07
7.7209e-07
-4.3802e-07
-4.42837e-07
0.000274311
-1.14699e-06
0.000276262
-0.000274202
1.31468e-07
1.36671e-07
7.58934e-07
3.76564e-07
0.00114362
-4.64238e-07
1.13766e-06
1.66276e-07
7.7175e-07
-5.01099e-07
1.09236e-07
-1.18387e-06
7.42673e-07
-0.00114403
3.69985e-07
-1.46378e-06
1.67904e-07
-4.5289e-07
-1.16938e-06
1.15236e-07
7.74667e-07
-4.9059e-07
1.1416e-06
0.00114443
7.42791e-07
-0.00114418
3.69429e-07
-1.45839e-06
1.70785e-07
-4.55731e-07
-1.17169e-06
1.15321e-07
-4.90482e-07
7.77297e-07
-0.000274177
1.31376e-07
1.34138e-07
1.50389e-06
1.46393e-06
-4.24472e-07
-4.30037e-07
0.000274194
-1.19519e-06
-1.15518e-06
0.000276122
-0.000274056
1.39362e-07
1.44777e-07
3.68783e-07
0.00114412
-4.58552e-07
1.19126e-06
1.77838e-07
7.81988e-07
-4.87152e-07
-1.17083e-06
1.17097e-07
-1.50126e-06
7.36721e-07
3.68631e-07
0.00114419
-4.58462e-07
1.18857e-06
1.77799e-07
7.82012e-07
-4.84295e-07
-1.17056e-06
1.14181e-07
0.00114479
7.20056e-07
-0.00114458
3.61563e-07
-1.49543e-06
1.82141e-07
-4.50176e-07
-1.15887e-06
1.23078e-07
-4.76686e-07
7.87466e-07
1.19263e-06
0.00114486
7.20031e-07
-0.00114465
3.61408e-07
-1.49268e-06
1.82189e-07
-4.5016e-07
-1.15853e-06
1.2012e-07
-4.73931e-07
7.87435e-07
-4.24734e-07
-4.26988e-07
0.000274174
-1.15504e-06
0.000276102
-0.000274036
1.3951e-07
1.42034e-07
3.67304e-07
0.00114513
-4.53014e-07
1.15123e-06
1.72184e-07
7.81972e-07
-4.87108e-07
-1.17065e-06
1.17342e-07
-1.49584e-06
7.36592e-07
3.6901e-07
0.00114407
-4.5855e-07
1.18309e-06
1.77833e-07
7.82017e-07
-4.84343e-07
-1.17053e-06
1.14166e-07
0.0011458
7.20786e-07
-0.00114559
3.60107e-07
-1.45545e-06
1.76648e-07
-4.44598e-07
-1.15864e-06
1.23237e-07
-4.76701e-07
7.87376e-07
1.18707e-06
0.00114474
7.19977e-07
-0.00114453
3.61476e-07
-1.48733e-06
1.82162e-07
-4.50233e-07
-1.15849e-06
1.2021e-07
-4.73843e-07
7.87431e-07
7.35917e-07
3.68715e-07
0.00114369
-4.55528e-07
1.18027e-06
1.75016e-07
7.73865e-07
-4.81262e-07
1.11325e-07
-1.1621e-06
7.20561e-07
-0.00114513
3.65667e-07
-1.45513e-06
1.76642e-07
-4.44418e-07
-1.15313e-06
1.23146e-07
7.81946e-07
-4.7663e-07
1.18423e-06
0.00114436
7.19395e-07
-0.00114415
3.61431e-07
-1.48421e-06
1.79386e-07
-4.47153e-07
-1.15021e-06
1.17303e-07
-4.7094e-07
7.79257e-07
-4.2486e-07
-4.29783e-07
0.00027416
-1.15227e-06
0.000276077
-0.000274022
1.39452e-07
1.44722e-07
7.37542e-07
3.67213e-07
0.00114468
-4.5288e-07
1.1429e-06
1.72187e-07
7.79111e-07
-4.87018e-07
1.17291e-07
-1.16765e-06
7.20847e-07
-0.001145
3.60247e-07
-1.45242e-06
1.7378e-07
-4.41688e-07
-1.15329e-06
1.23144e-07
7.81859e-07
-4.767e-07
1.14687e-06
0.00114535
7.20766e-07
-0.00114514
3.59971e-07
-1.44705e-06
1.76662e-07
-4.44528e-07
-1.15573e-06
1.23237e-07
-4.76629e-07
7.84512e-07
-0.000273997
1.39335e-07
1.42188e-07
1.49251e-06
1.45251e-06
-4.11488e-07
-4.17099e-07
0.000274006
-1.20051e-06
-1.16058e-06
0.000275906
-0.000273845
1.47214e-07
1.5253e-07
3.59182e-07
0.00114499
-4.47415e-07
1.19651e-06
1.83628e-07
7.89157e-07
-4.73329e-07
-1.15479e-06
1.24986e-07
-1.48982e-06
7.14642e-07
3.58981e-07
0.00114506
-4.47348e-07
1.19393e-06
1.83633e-07
7.89227e-07
-4.70471e-07
-1.15455e-06
1.22091e-07
0.00114552
6.97663e-07
-0.00114535
3.51297e-07
-1.48366e-06
1.87961e-07
-4.39321e-07
-1.14297e-06
1.30798e-07
-4.63249e-07
7.94447e-07
1.19804e-06
0.00114559
6.97531e-07
-0.00114543
3.51125e-07
-1.48093e-06
1.88012e-07
-4.39299e-07
-1.14284e-06
1.27948e-07
-4.60407e-07
7.94414e-07
-4.11768e-07
-4.14048e-07
0.000273986
-1.1605e-06
0.000275886
-0.000273825
1.47377e-07
1.49855e-07
3.57735e-07
0.001146
-4.41847e-07
1.15654e-06
1.78103e-07
7.89127e-07
-4.73309e-07
-1.15466e-06
1.2516e-07
-1.48446e-06
7.14632e-07
3.59171e-07
0.00114494
-4.47446e-07
1.18839e-06
1.83648e-07
7.89196e-07
-4.70464e-07
-1.1545e-06
1.2207e-07
0.00114653
6.98498e-07
-0.00114636
3.50012e-07
-1.44364e-06
1.82501e-07
-4.33742e-07
-1.14295e-06
1.30939e-07
-4.63257e-07
7.94343e-07
1.19243e-06
0.00114547
6.9743e-07
-0.00114531
3.5146e-07
-1.47557e-06
1.88004e-07
-4.39334e-07
-1.14277e-06
1.27928e-07
-4.60402e-07
7.94442e-07
7.14058e-07
3.59213e-07
0.00114456
-4.44396e-07
1.1855e-06
1.80848e-07
7.80974e-07
-4.67586e-07
1.19243e-07
-1.14617e-06
6.98266e-07
-0.00114591
3.55252e-07
-1.44337e-06
1.82529e-07
-4.33591e-07
-1.13741e-06
1.30818e-07
7.88938e-07
-4.63057e-07
1.18958e-06
0.00114509
6.97118e-07
-0.00114493
3.51271e-07
-1.47243e-06
1.85258e-07
-4.36306e-07
-1.13444e-06
1.2502e-07
-4.57546e-07
7.86211e-07
-4.11921e-07
-4.16862e-07
0.000273972
-1.15764e-06
0.000275861
-0.000273811
1.47296e-07
1.52482e-07
7.15486e-07
3.57653e-07
0.00114555
-4.41796e-07
1.14816e-06
1.78042e-07
7.86272e-07
-4.73226e-07
1.25164e-07
-1.15166e-06
6.98567e-07
-0.00114578
3.50085e-07
-1.4407e-06
1.79599e-07
-4.30832e-07
-1.13761e-06
1.30844e-07
7.88902e-07
-4.63267e-07
1.15225e-06
0.00114609
6.98451e-07
-0.00114592
3.49813e-07
-1.43528e-06
1.8242e-07
-4.33726e-07
-1.13991e-06
1.31042e-07
-4.63102e-07
7.91462e-07
-0.000273786
1.47166e-07
1.49937e-07
1.48067e-06
1.44066e-06
-3.98795e-07
-4.04425e-07
0.000273788
-1.20583e-06
-1.16591e-06
0.000275668
-0.000273611
1.5458e-07
1.59909e-07
3.48663e-07
0.00114568
-4.36613e-07
1.20188e-06
1.8937e-07
7.96182e-07
-4.59941e-07
-1.13912e-06
1.32697e-07
-1.47805e-06
6.92148e-07
3.48445e-07
0.00114575
-4.36566e-07
1.19937e-06
1.8949e-07
7.96174e-07
-4.5712e-07
-1.13892e-06
1.29797e-07
0.00114608
6.75063e-07
-0.00114595
3.4037e-07
-1.47166e-06
1.93673e-07
-4.28671e-07
-1.12791e-06
1.38287e-07
-4.50329e-07
8.0131e-07
1.20329e-06
0.00114615
6.74832e-07
-0.00114603
3.40158e-07
-1.46899e-06
1.93703e-07
-4.28664e-07
-1.12747e-06
1.35423e-07
-4.47495e-07
8.01266e-07
-3.99119e-07
-4.01446e-07
0.000273769
-1.1658e-06
0.000275649
-0.000273591
1.54722e-07
1.57158e-07
3.47327e-07
0.00114669
-4.31049e-07
1.16193e-06
1.83918e-07
7.96112e-07
-4.6001e-07
-1.13901e-06
1.32804e-07
-1.47257e-06
6.92041e-07
3.48809e-07
0.00114563
-4.36665e-07
1.19379e-06
1.8943e-07
7.96156e-07
-4.57149e-07
-1.13888e-06
1.29798e-07
0.00114709
6.75888e-07
-0.00114697
3.39054e-07
-1.43168e-06
1.88225e-07
-4.23139e-07
-1.1276e-06
1.38499e-07
-4.50302e-07
8.01126e-07
1.19782e-06
0.00114603
6.74791e-07
-0.00114591
3.40381e-07
-1.46359e-06
1.93721e-07
-4.28752e-07
-1.12753e-06
1.35489e-07
-4.47467e-07
8.01271e-07
6.91743e-07
3.48691e-07
0.00114525
-4.33594e-07
1.19091e-06
1.86708e-07
7.87892e-07
-4.54302e-07
1.26869e-07
-1.13056e-06
6.75713e-07
-0.00114651
3.44533e-07
-1.43141e-06
1.88219e-07
-4.23007e-07
-1.12229e-06
1.38338e-07
7.95686e-07
-4.50201e-07
1.19489e-06
0.00114565
6.74556e-07
-0.00114553
3.40301e-07
-1.46045e-06
1.90948e-07
-4.25726e-07
-1.11909e-06
1.32511e-07
-4.44625e-07
7.93049e-07
-3.99191e-07
-4.04147e-07
0.000273754
-1.16305e-06
0.000275623
-0.000273577
1.5472e-07
1.5992e-07
6.93037e-07
3.47279e-07
0.00114624
-4.3101e-07
1.15359e-06
1.83887e-07
7.93157e-07
-4.59816e-07
1.32861e-07
-1.136e-06
6.75854e-07
-0.00114638
3.39121e-07
-1.42873e-06
1.85337e-07
-4.20212e-07
-1.12235e-06
1.38366e-07
7.95704e-07
-4.5031e-07
1.15757e-06
0.00114664
6.75742e-07
-0.00114652
3.39103e-07
-1.42332e-06
1.88087e-07
-4.23187e-07
-1.12466e-06
1.38586e-07
-4.50094e-07
7.98378e-07
-0.000273552
1.54516e-07
1.57336e-07
1.46867e-06
1.42867e-06
-3.86596e-07
-3.92221e-07
0.000273549
-1.21115e-06
-1.17118e-06
0.000275415
-0.000273361
1.61466e-07
1.66848e-07
3.37559e-07
0.00114619
-4.26099e-07
1.20725e-06
1.95042e-07
8.02904e-07
-4.47225e-07
-1.12403e-06
1.40078e-07
-1.46602e-06
6.69489e-07
3.37484e-07
0.00114626
-4.26092e-07
1.20463e-06
1.95091e-07
8.02815e-07
-4.44342e-07
-1.12387e-06
1.3728e-07
0.00114648
6.52496e-07
-0.00114639
3.29154e-07
-1.45974e-06
1.99142e-07
-4.1851e-07
-1.11348e-06
1.45435e-07
-4.38081e-07
8.07663e-07
1.20854e-06
0.00114655
6.52158e-07
-0.00114646
3.28841e-07
-1.45707e-06
1.99168e-07
-4.1855e-07
-1.11307e-06
1.42631e-07
-4.35204e-07
8.07622e-07
-3.86898e-07
-3.89188e-07
0.00027353
-1.17105e-06
0.000275396
-0.000273342
1.61618e-07
1.64016e-07
3.36381e-07
0.0011472
-4.20601e-07
1.16735e-06
1.89594e-07
8.02811e-07
-4.47191e-07
-1.12405e-06
1.40254e-07
-1.46066e-06
6.69339e-07
3.37659e-07
0.00114614
-4.26107e-07
1.19915e-06
1.95139e-07
8.02899e-07
-4.44346e-07
-1.12383e-06
1.37297e-07
0.00114749
6.53138e-07
-0.0011474
3.27793e-07
-1.41982e-06
1.93638e-07
-4.13004e-07
-1.11315e-06
1.45605e-07
-4.38034e-07
8.07693e-07
1.20303e-06
0.00114643
6.51935e-07
-0.00114634
3.28967e-07
-1.45159e-06
1.99233e-07
-4.18566e-07
-1.11296e-06
1.42622e-07
-4.35134e-07
8.0768e-07
6.69249e-07
3.37634e-07
0.00114576
-4.23077e-07
1.19617e-06
1.92371e-07
7.9458e-07
-4.41481e-07
1.34363e-07
-1.11555e-06
6.53097e-07
-0.00114695
3.33262e-07
-1.41953e-06
1.93547e-07
-4.12895e-07
-1.1077e-06
1.45466e-07
8.02142e-07
-4.37896e-07
1.20016e-06
0.00114605
6.51886e-07
-0.00114596
3.28995e-07
-1.44852e-06
1.96442e-07
-4.15575e-07
-1.10478e-06
1.39686e-07
-4.32381e-07
7.99534e-07
-3.87051e-07
-3.91952e-07
0.000273516
-1.1683e-06
0.000275371
-0.000273328
1.61652e-07
1.6678e-07
6.70185e-07
3.36484e-07
0.00114676
-4.20548e-07
1.15883e-06
1.89552e-07
7.99942e-07
-4.46986e-07
1.40348e-07
-1.12101e-06
6.53187e-07
-0.00114682
3.27799e-07
-1.41677e-06
1.90842e-07
-4.10141e-07
-1.10783e-06
1.45547e-07
8.02147e-07
-4.38015e-07
1.16281e-06
0.00114704
6.5301e-07
-0.00114695
3.27861e-07
-1.41146e-06
1.93589e-07
-4.13024e-07
-1.11014e-06
1.4567e-07
-4.37859e-07
8.04763e-07
-0.000273303
1.61372e-07
1.64267e-07
1.45683e-06
1.41694e-06
-3.75162e-07
-3.80673e-07
0.000273297
-1.21622e-06
-1.17626e-06
0.000275155
-0.000273104
1.67787e-07
1.73195e-07
3.26119e-07
0.00114655
-4.16032e-07
1.21249e-06
2.00505e-07
8.09147e-07
-4.35098e-07
-1.1098e-06
1.47122e-07
-1.45409e-06
6.46709e-07
3.25957e-07
0.00114662
-4.16082e-07
1.20988e-06
2.00507e-07
8.09129e-07
-4.32239e-07
-1.10952e-06
1.44322e-07
0.00114672
6.30187e-07
-0.00114668
3.22977e-07