/*--------------------------------*- C++ -*----------------------------------*\
| =========                 |                                                 |
| \\      /  F ield         | OpenFOAM: The Open Source CFD Toolbox           |
|  \\    /   O peration     | Version:  2312                                  |
|   \\  /    A nd           | Website:  www.openfoam.com                      |
|    \\/     M anipulation  |                                                 |
\*---------------------------------------------------------------------------*/
FoamFile
{
    version     2.0;
    format      ascii;
    arch        "LSB;label=32;scalar=64";
    class       volScalarField;
    location    "125";
    object      k;
}
// * * * * * * * * * * * * * * * * * * * * * * * * * * * * * * * * * * * * * //

dimensions      [0 2 -2 0 0 0 0];

internalField   nonuniform List<scalar> 
172512
(
3.60232e-05
3.60198e-05
3.60198e-05
3.60083e-05
3.39295e-05
3.38866e-05
3.38866e-05
3.39612e-05
3.21573e-05
3.20055e-05
3.20055e-05
3.19506e-05
3.05338e-05
3.02267e-05
3.02267e-05
2.99864e-05
2.90318e-05
2.85515e-05
2.85515e-05
2.81202e-05
2.7634e-05
2.69848e-05
2.69847e-05
2.6388e-05
2.63293e-05
2.55287e-05
2.55286e-05
2.48046e-05
2.51097e-05
2.41827e-05
2.41826e-05
2.33754e-05
2.39694e-05
2.29484e-05
2.29482e-05
2.21019e-05
2.29042e-05
2.18247e-05
2.18245e-05
2.09833e-05
2.19104e-05
2.08092e-05
2.08091e-05
2.00107e-05
2.09849e-05
1.98991e-05
1.98991e-05
1.91788e-05
2.01225e-05
1.90926e-05
1.90925e-05
1.8487e-05
1.93223e-05
1.83865e-05
1.83862e-05
1.79306e-05
1.85831e-05
1.77772e-05
1.77771e-05
1.7504e-05
1.79026e-05
1.72636e-05
1.72637e-05
1.7198e-05
1.72783e-05
1.68447e-05
1.68446e-05
1.70206e-05
1.67082e-05
1.65195e-05
1.65195e-05
1.69801e-05
1.61909e-05
1.62879e-05
1.62879e-05
1.70774e-05
1.57237e-05
1.61501e-05
1.61502e-05
1.73026e-05
1.53061e-05
1.61062e-05
1.61063e-05
1.7656e-05
1.49355e-05
1.6152e-05
1.61522e-05
1.81334e-05
1.46137e-05
1.62911e-05
1.62914e-05
1.87278e-05
1.43359e-05
1.65181e-05
1.65185e-05
1.94259e-05
1.41052e-05
1.68293e-05
1.68298e-05
2.021e-05
1.39195e-05
1.72152e-05
1.72158e-05
2.10527e-05
1.37538e-05
1.7628e-05
1.7629e-05
2.18905e-05
1.365e-05
1.80525e-05
1.80534e-05
2.26101e-05
1.34856e-05
1.8245e-05
1.82464e-05
2.29616e-05
1.32361e-05
1.82065e-05
1.82084e-05
2.30177e-05
1.3085e-05
1.81789e-05
1.81811e-05
2.29969e-05
1.30544e-05
1.82008e-05
1.82033e-05
2.30279e-05
1.30622e-05
1.82354e-05
1.82379e-05
2.30555e-05
1.3072e-05
1.82506e-05
1.8253e-05
2.3072e-05
1.30754e-05
1.82547e-05
1.82572e-05
2.30742e-05
1.30764e-05
1.82559e-05
1.82584e-05
2.30735e-05
1.30769e-05
1.82567e-05
1.82591e-05
2.3075e-05
1.30771e-05
1.82568e-05
1.82592e-05
2.30752e-05
1.30772e-05
1.82569e-05
1.82592e-05
2.30736e-05
1.30773e-05
1.82568e-05
1.82593e-05
2.3074e-05
1.30775e-05
1.82569e-05
1.82594e-05
2.30778e-05
1.30775e-05
1.82568e-05
1.82594e-05
2.3076e-05
1.30776e-05
1.82569e-05
1.82594e-05
2.30762e-05
1.30777e-05
1.82569e-05
1.82594e-05
2.30759e-05
1.30778e-05
1.8257e-05
1.82595e-05
2.3079e-05
1.30778e-05
1.82568e-05
1.82594e-05
2.30714e-05
1.30777e-05
1.82565e-05
1.82592e-05
2.30684e-05
1.30777e-05
1.82527e-05
1.82595e-05
2.30761e-05
1.30779e-05
1.82538e-05
1.82563e-05
2.3078e-05
1.30781e-05
1.8255e-05
1.82574e-05
2.30747e-05
1.30781e-05
1.82555e-05
1.82578e-05
2.30674e-05
1.30772e-05
1.8255e-05
1.82572e-05
2.30642e-05
1.30767e-05
1.82543e-05
1.82567e-05
2.30656e-05
1.30766e-05
1.82542e-05
1.82568e-05
2.30713e-05
1.30767e-05
1.82545e-05
1.82572e-05
2.30781e-05
1.30769e-05
1.82552e-05
1.82576e-05
2.30793e-05
1.30771e-05
1.82557e-05
1.82583e-05
2.30741e-05
1.30773e-05
1.82559e-05
1.82586e-05
2.30689e-05
1.30774e-05
1.82563e-05
1.82586e-05
2.30716e-05
1.30775e-05
1.82565e-05
1.82589e-05
2.30706e-05
1.30776e-05
1.82566e-05
1.82591e-05
2.30673e-05
1.30776e-05
1.82567e-05
1.82591e-05
2.30711e-05
1.30777e-05
1.82569e-05
1.8259e-05
2.30781e-05
1.30778e-05
1.82572e-05
1.82592e-05
2.30821e-05
1.30778e-05
1.82574e-05
1.82594e-05
2.3081e-05
1.30779e-05
1.82574e-05
1.82594e-05
2.30763e-05
1.30779e-05
1.82574e-05
1.82595e-05
2.30693e-05
1.3078e-05
1.82573e-05
1.82596e-05
2.30689e-05
1.3078e-05
1.82574e-05
1.82595e-05
2.30759e-05
1.30781e-05
1.82575e-05
1.82594e-05
2.30799e-05
1.30781e-05
1.82576e-05
1.82595e-05
2.30744e-05
1.30781e-05
1.82575e-05
1.82596e-05
2.30708e-05
1.30779e-05
1.82574e-05
1.82594e-05
2.30758e-05
1.30778e-05
1.82574e-05
1.82592e-05
2.30813e-05
1.30779e-05
1.8254e-05
1.82558e-05
2.30665e-05
1.3078e-05
1.82551e-05
1.8257e-05
2.3066e-05
1.30781e-05
1.8256e-05
1.82579e-05
2.30723e-05
1.30776e-05
1.82558e-05
1.82576e-05
2.30771e-05
1.30768e-05
1.82552e-05
1.82569e-05
2.30776e-05
1.30767e-05
1.8255e-05
1.82565e-05
2.30761e-05
1.30767e-05
1.82553e-05
1.82568e-05
2.30731e-05
1.30769e-05
1.82557e-05
1.82574e-05
2.30689e-05
1.30771e-05
1.82562e-05
1.82579e-05
2.30668e-05
1.30772e-05
1.82565e-05
1.82583e-05
2.30679e-05
1.30774e-05
1.82568e-05
1.82584e-05
2.30698e-05
1.30775e-05
1.82569e-05
1.82586e-05
2.30705e-05
1.30776e-05
1.8257e-05
1.82588e-05
2.30708e-05
1.30777e-05
1.82572e-05
1.82589e-05
2.3072e-05
1.30779e-05
1.82574e-05
1.8259e-05
2.30751e-05
1.3078e-05
1.82577e-05
1.82592e-05
2.30812e-05
1.30783e-05
1.8258e-05
1.82595e-05
2.30804e-05
1.30786e-05
1.82583e-05
1.82599e-05
2.30764e-05
1.30789e-05
1.82584e-05
1.82601e-05
2.30791e-05
1.30743e-05
1.82374e-05
1.82391e-05
2.3073e-05
1.34654e-05
1.72486e-05
1.725e-05
2.21346e-05
3.62984e-05
3.62919e-05
3.62919e-05
3.62984e-05
3.62919e-05
3.62919e-05
3.62908e-05
3.62908e-05
3.62908e-05
3.62908e-05
3.62919e-05
3.62919e-05
3.62984e-05
3.62919e-05
3.62919e-05
3.62984e-05
3.60083e-05
3.42677e-05
3.60198e-05
3.60198e-05
3.43745e-05
3.43744e-05
3.60083e-05
3.42677e-05
3.60198e-05
3.60198e-05
3.43745e-05
3.43744e-05
3.60198e-05
3.43745e-05
3.43745e-05
3.60083e-05
3.42677e-05
3.60198e-05
3.43745e-05
3.43745e-05
3.42677e-05
3.39612e-05
3.22619e-05
3.38865e-05
3.38865e-05
3.24658e-05
3.24657e-05
3.39612e-05
3.22619e-05
3.38865e-05
3.38865e-05
3.24659e-05
3.24657e-05
3.38865e-05
3.2466e-05
3.24658e-05
3.39612e-05
3.22619e-05
3.38865e-05
3.24659e-05
3.24659e-05
3.22618e-05
3.19506e-05
3.02974e-05
3.20054e-05
3.20053e-05
3.06617e-05
3.06616e-05
3.19506e-05
3.02973e-05
3.20054e-05
3.20052e-05
3.06618e-05
3.06615e-05
3.20053e-05
3.0662e-05
3.06617e-05
3.19506e-05
3.02972e-05
3.20054e-05
3.06619e-05
3.06618e-05
3.02971e-05
2.99865e-05
2.84231e-05
3.02264e-05
3.02263e-05
2.89599e-05
2.89597e-05
2.99865e-05
2.84231e-05
3.02266e-05
3.02262e-05
2.89601e-05
2.89596e-05
3.02264e-05
2.89603e-05
2.89598e-05
2.99864e-05
2.84229e-05
3.02265e-05
2.89602e-05
2.896e-05
2.84228e-05
2.81204e-05
2.66716e-05
2.85511e-05
2.85509e-05
2.73656e-05
2.73653e-05
2.81204e-05
2.66715e-05
2.85513e-05
2.85508e-05
2.73659e-05
2.73652e-05
2.8551e-05
2.73661e-05
2.73655e-05
2.81203e-05
2.66714e-05
2.85513e-05
2.7366e-05
2.73658e-05
2.66712e-05
2.63884e-05
2.50638e-05
2.69842e-05
2.6984e-05
2.58817e-05
2.58815e-05
2.63883e-05
2.50638e-05
2.69846e-05
2.69839e-05
2.58822e-05
2.58813e-05
2.69841e-05
2.58824e-05
2.58816e-05
2.63882e-05
2.50636e-05
2.69844e-05
2.58823e-05
2.5882e-05
2.50634e-05
2.4805e-05
2.361e-05
2.5528e-05
2.55277e-05
2.45079e-05
2.45077e-05
2.48049e-05
2.36099e-05
2.55285e-05
2.55276e-05
2.45085e-05
2.45075e-05
2.55279e-05
2.45087e-05
2.45078e-05
2.48048e-05
2.36097e-05
2.55283e-05
2.45086e-05
2.45083e-05
2.36095e-05
2.33759e-05
2.231e-05
2.41819e-05
2.41816e-05
2.32456e-05
2.32453e-05
2.33758e-05
2.23099e-05
2.41824e-05
2.41814e-05
2.32463e-05
2.32451e-05
2.41817e-05
2.32465e-05
2.32455e-05
2.33756e-05
2.23096e-05
2.41823e-05
2.32464e-05
2.32461e-05
2.23094e-05
2.21024e-05
2.11657e-05
2.29474e-05
2.29471e-05
2.20944e-05
2.20941e-05
2.21023e-05
2.11656e-05
2.29481e-05
2.2947e-05
2.20951e-05
2.20939e-05
2.29473e-05
2.20953e-05
2.20943e-05
2.21021e-05
2.11653e-05
2.29479e-05
2.20952e-05
2.20949e-05
2.1165e-05
2.09839e-05
2.01684e-05
2.18236e-05
2.18233e-05
2.1052e-05
2.10518e-05
2.09838e-05
2.01683e-05
2.18244e-05
2.18232e-05
2.10529e-05
2.10516e-05
2.18235e-05
2.10531e-05
2.1052e-05
2.09835e-05
2.0168e-05
2.18242e-05
2.1053e-05
2.10527e-05
2.01677e-05
2.00113e-05
1.93123e-05
2.08081e-05
2.08078e-05
2.01159e-05
2.01157e-05
2.00112e-05
1.93122e-05
2.08089e-05
2.08077e-05
2.01168e-05
2.01154e-05
2.0808e-05
2.0117e-05
2.01158e-05
2.00109e-05
1.93119e-05
2.08088e-05
2.01168e-05
2.01166e-05
1.93116e-05
1.91792e-05
1.85883e-05
1.9898e-05
1.98977e-05
1.92836e-05
1.92833e-05
1.91793e-05
1.85881e-05
1.98989e-05
1.98977e-05
1.92844e-05
1.9283e-05
1.98979e-05
1.92847e-05
1.92835e-05
1.9179e-05
1.85878e-05
1.98988e-05
1.92844e-05
1.92843e-05
1.85875e-05
1.84874e-05
1.79957e-05
1.90914e-05
1.90912e-05
1.85524e-05
1.85522e-05
1.84875e-05
1.79955e-05
1.90924e-05
1.90912e-05
1.85534e-05
1.85522e-05
1.90914e-05
1.85535e-05
1.85524e-05
1.84871e-05
1.79953e-05
1.90922e-05
1.85535e-05
1.85533e-05
1.79951e-05
1.79309e-05
1.75372e-05
1.83854e-05
1.83852e-05
1.79195e-05
1.79193e-05
1.7931e-05
1.75371e-05
1.83863e-05
1.83849e-05
1.79204e-05
1.79193e-05
1.83854e-05
1.79205e-05
1.79195e-05
1.79307e-05
1.75368e-05
1.83862e-05
1.79206e-05
1.79203e-05
1.75367e-05
1.75043e-05
1.72156e-05
1.77761e-05
1.7776e-05
1.73821e-05
1.7382e-05
1.75044e-05
1.72156e-05
1.7777e-05
1.77759e-05
1.73829e-05
1.73817e-05
1.77762e-05
1.7383e-05
1.73821e-05
1.75041e-05
1.72154e-05
1.7777e-05
1.73828e-05
1.73829e-05
1.72153e-05
1.71982e-05
1.7024e-05
1.72627e-05
1.72626e-05
1.6939e-05
1.6939e-05
1.71983e-05
1.70241e-05
1.72635e-05
1.72626e-05
1.69398e-05
1.6939e-05
1.72627e-05
1.69399e-05
1.69391e-05
1.71981e-05
1.70239e-05
1.72635e-05
1.69399e-05
1.69399e-05
1.70239e-05
1.70206e-05
1.69706e-05
1.68438e-05
1.68439e-05
1.65903e-05
1.65904e-05
1.70208e-05
1.69708e-05
1.68446e-05
1.68437e-05
1.65911e-05
1.65903e-05
1.68439e-05
1.65911e-05
1.65905e-05
1.70206e-05
1.69706e-05
1.68447e-05
1.65911e-05
1.65912e-05
1.69707e-05
1.69799e-05
1.70415e-05
1.65187e-05
1.65188e-05
1.63352e-05
1.63353e-05
1.69802e-05
1.70418e-05
1.65194e-05
1.65188e-05
1.63358e-05
1.63353e-05
1.65189e-05
1.63358e-05
1.63353e-05
1.698e-05
1.70417e-05
1.65196e-05
1.63358e-05
1.6336e-05
1.70419e-05
1.7077e-05
1.72418e-05
1.62873e-05
1.62875e-05
1.61734e-05
1.61738e-05
1.70774e-05
1.72421e-05
1.62879e-05
1.62875e-05
1.6174e-05
1.61738e-05
1.62875e-05
1.61739e-05
1.61737e-05
1.70773e-05
1.72421e-05
1.62882e-05
1.6174e-05
1.61744e-05
1.72423e-05
1.73021e-05
1.75705e-05
1.61496e-05
1.61499e-05
1.61057e-05
1.6106e-05
1.73024e-05
1.75707e-05
1.61502e-05
1.615e-05
1.61062e-05
1.61061e-05
1.61499e-05
1.6106e-05
1.6106e-05
1.73024e-05
1.75709e-05
1.61506e-05
1.61062e-05
1.61066e-05
1.75712e-05
1.76554e-05
1.80242e-05
1.61059e-05
1.61062e-05
1.61316e-05
1.61319e-05
1.76555e-05
1.80243e-05
1.61063e-05
1.61063e-05
1.61319e-05
1.61321e-05
1.61062e-05
1.61318e-05
1.61319e-05
1.76557e-05
1.80246e-05
1.61068e-05
1.61319e-05
1.61325e-05
1.8025e-05
1.81327e-05
1.85957e-05
1.61519e-05
1.61522e-05
1.62474e-05
1.62478e-05
1.81328e-05
1.85958e-05
1.61522e-05
1.61525e-05
1.62477e-05
1.62482e-05
1.61522e-05
1.62475e-05
1.62478e-05
1.81331e-05
1.85962e-05
1.61528e-05
1.62478e-05
1.62484e-05
1.85967e-05
1.87269e-05
1.92737e-05
1.62911e-05
1.62915e-05
1.64539e-05
1.64543e-05
1.87269e-05
1.92738e-05
1.62913e-05
1.62918e-05
1.6454e-05
1.64548e-05
1.62915e-05
1.64538e-05
1.64544e-05
1.87274e-05
1.92744e-05
1.6292e-05
1.64541e-05
1.64549e-05
1.9275e-05
1.94248e-05
2.00402e-05
1.65182e-05
1.65187e-05
1.67432e-05
1.67437e-05
1.94248e-05
2.00403e-05
1.65184e-05
1.65192e-05
1.67432e-05
1.67442e-05
1.65188e-05
1.67428e-05
1.67439e-05
1.94254e-05
2.00409e-05
1.65192e-05
1.67433e-05
1.67441e-05
2.00417e-05
2.02086e-05
2.08722e-05
1.68297e-05
1.68302e-05
1.71161e-05
1.71166e-05
2.02086e-05
2.08724e-05
1.68297e-05
1.68307e-05
1.71159e-05
1.71174e-05
1.68304e-05
1.71156e-05
1.71169e-05
2.02093e-05
2.08731e-05
1.68306e-05
1.71162e-05
1.7117e-05
2.0874e-05
2.10511e-05
2.17128e-05
1.72158e-05
1.72163e-05
1.75221e-05
1.75226e-05
2.10511e-05
2.17129e-05
1.72155e-05
1.72171e-05
1.75216e-05
1.75235e-05
1.72166e-05
1.75213e-05
1.75231e-05
2.1052e-05
2.17139e-05
1.72167e-05
1.75222e-05
1.75229e-05
2.17149e-05
2.18887e-05
2.24638e-05
1.76288e-05
1.76294e-05
1.79567e-05
1.79572e-05
2.18887e-05
2.2464e-05
1.76283e-05
1.76303e-05
1.7956e-05
1.79582e-05
1.76298e-05
1.79558e-05
1.79577e-05
2.18898e-05
2.2465e-05
1.76296e-05
1.79567e-05
1.79573e-05
2.2466e-05
2.26079e-05
2.28905e-05
1.80534e-05
1.80539e-05
1.82283e-05
1.82287e-05
2.26081e-05
2.28904e-05
1.80526e-05
1.80549e-05
1.82274e-05
1.82298e-05
1.80545e-05
1.8227e-05
1.82296e-05
2.2609e-05
2.28919e-05
1.80539e-05
1.82283e-05
1.82288e-05
2.28928e-05
2.29593e-05
2.29816e-05
1.82464e-05
1.82468e-05
1.82331e-05
1.82335e-05
2.2959e-05
2.29814e-05
1.82455e-05
1.82479e-05
1.82323e-05
1.8235e-05
1.82477e-05
1.82317e-05
1.82346e-05
2.29607e-05
2.29836e-05
1.82469e-05
1.82334e-05
1.82337e-05
2.2984e-05
2.30153e-05
2.29578e-05
1.82079e-05
1.82083e-05
1.81811e-05
1.81817e-05
2.3015e-05
2.29577e-05
1.82071e-05
1.821e-05
1.81803e-05
1.81835e-05
1.82095e-05
1.81796e-05
1.8183e-05
2.30174e-05
2.29603e-05
1.82086e-05
1.81818e-05
1.81822e-05
2.29609e-05
2.29939e-05
2.29844e-05
1.81805e-05
1.8181e-05
1.81905e-05
1.81909e-05
2.29936e-05
2.29841e-05
1.81797e-05
1.81829e-05
1.81896e-05
1.81929e-05
1.81823e-05
1.81887e-05
1.81923e-05
2.29963e-05
2.29868e-05
1.81815e-05
1.81911e-05
1.81915e-05
2.29874e-05
2.30249e-05
2.30146e-05
1.82024e-05
1.8203e-05
1.82306e-05
1.82311e-05
2.30246e-05
2.30143e-05
1.82016e-05
1.82049e-05
1.82297e-05
1.8233e-05
1.82043e-05
1.82288e-05
1.82323e-05
2.30272e-05
2.30169e-05
1.82035e-05
1.82312e-05
1.82315e-05
2.30173e-05
2.30528e-05
2.30329e-05
1.8237e-05
1.82376e-05
1.825e-05
1.82504e-05
2.30524e-05
2.30325e-05
1.82362e-05
1.82395e-05
1.82491e-05
1.82523e-05
1.82388e-05
1.82481e-05
1.82516e-05
2.3055e-05
2.30351e-05
1.8238e-05
1.82506e-05
1.82508e-05
2.30355e-05
2.30695e-05
2.30365e-05
1.82523e-05
1.82528e-05
1.82561e-05
1.82565e-05
2.3069e-05
2.3036e-05
1.82515e-05
1.82547e-05
1.82552e-05
1.82584e-05
1.8254e-05
1.82541e-05
1.82577e-05
2.30716e-05
2.30386e-05
1.82532e-05
1.82566e-05
1.8257e-05
2.30392e-05
2.30716e-05
2.30354e-05
1.82566e-05
1.8257e-05
1.82576e-05
1.8258e-05
2.3071e-05
2.3035e-05
1.82557e-05
1.82589e-05
1.82567e-05
1.82599e-05
1.82583e-05
1.82557e-05
1.82593e-05
2.30736e-05
2.30376e-05
1.82575e-05
1.82582e-05
1.82585e-05
2.30382e-05
2.30709e-05
2.30372e-05
1.82578e-05
1.82583e-05
1.82584e-05
1.8259e-05
2.30703e-05
2.30369e-05
1.82569e-05
1.82601e-05
1.82575e-05
1.82608e-05
1.82595e-05
1.82566e-05
1.82601e-05
2.3073e-05
2.30395e-05
1.82587e-05
1.8259e-05
1.82593e-05
2.30399e-05
2.30724e-05
2.30371e-05
1.82585e-05
1.82591e-05
1.82586e-05
1.82592e-05
2.30721e-05
2.30368e-05
1.82576e-05
1.82609e-05
1.82577e-05
1.8261e-05
1.82602e-05
1.82568e-05
1.82603e-05
2.30746e-05
2.30391e-05
1.82593e-05
1.82592e-05
1.82594e-05
2.30397e-05
2.30727e-05
2.30356e-05
1.82586e-05
1.82592e-05
1.82586e-05
1.82592e-05
2.30724e-05
2.30354e-05
1.82577e-05
1.82609e-05
1.82577e-05
1.82609e-05
1.82602e-05
1.82568e-05
1.82603e-05
2.30747e-05
2.30379e-05
1.82594e-05
1.82591e-05
1.82594e-05
2.30383e-05
2.30711e-05
2.30375e-05
1.82586e-05
1.82592e-05
1.82587e-05
1.82593e-05
2.30708e-05
2.30371e-05
1.82577e-05
1.82609e-05
1.82578e-05
1.8261e-05
1.82603e-05
1.82568e-05
1.82604e-05
2.30729e-05
2.30408e-05
1.82594e-05
1.82592e-05
1.82595e-05
2.30403e-05
2.30713e-05
2.30397e-05
1.82587e-05
1.82592e-05
1.82589e-05
1.82594e-05
2.30708e-05
2.30394e-05
1.82578e-05
1.8261e-05
1.82579e-05
1.82612e-05
1.82604e-05
1.82569e-05
1.82606e-05
2.30747e-05
2.3041e-05
1.82595e-05
1.82594e-05
1.82598e-05
2.30426e-05
2.30749e-05
2.30375e-05
1.82589e-05
1.82594e-05
1.82589e-05
1.82595e-05
2.30745e-05
2.3037e-05
1.82579e-05
1.82611e-05
1.8258e-05
1.82612e-05
1.82606e-05
1.82568e-05
1.82607e-05
2.30776e-05
2.30356e-05
1.82598e-05
1.82594e-05
1.82599e-05
2.304e-05
2.30733e-05
2.30378e-05
1.82589e-05
1.82595e-05
1.82589e-05
1.82595e-05
2.3073e-05
2.3037e-05
1.82579e-05
1.82612e-05
1.8258e-05
1.82612e-05
1.82606e-05
1.82568e-05
1.82607e-05
2.30717e-05
2.30385e-05
1.82598e-05
1.82594e-05
1.82599e-05
2.304e-05
2.30741e-05
2.30365e-05
1.82588e-05
1.82595e-05
1.82589e-05
1.82596e-05
2.30732e-05
2.30367e-05
1.8258e-05
1.82612e-05
1.8258e-05
1.82613e-05
1.82606e-05
1.82569e-05
1.82607e-05
2.30724e-05
2.30408e-05
1.82598e-05
1.82595e-05
1.82598e-05
2.30396e-05
2.30732e-05
2.30363e-05
1.82588e-05
1.82595e-05
1.82589e-05
1.82597e-05
2.30731e-05
2.30368e-05
1.82579e-05
1.82612e-05
1.8258e-05
1.82613e-05
1.82606e-05
1.82569e-05
1.82607e-05
2.3075e-05
2.30397e-05
1.82598e-05
1.82595e-05
1.82599e-05
2.304e-05
2.30751e-05
2.30295e-05
1.82589e-05
1.82597e-05
1.82588e-05
1.82594e-05
2.30758e-05
2.3029e-05
1.8258e-05
1.82613e-05
1.82579e-05
1.82611e-05
1.82607e-05
1.82567e-05
1.82606e-05
2.30778e-05
2.30312e-05
1.82599e-05
1.82593e-05
1.82597e-05
2.30324e-05
2.30671e-05
2.30342e-05
1.82588e-05
1.82595e-05
1.82587e-05
1.82593e-05
2.30672e-05
2.30334e-05
1.8258e-05
1.82612e-05
1.82578e-05
1.82612e-05
1.82606e-05
1.82566e-05
1.82604e-05
2.30682e-05
2.30384e-05
1.82598e-05
1.82593e-05
1.82596e-05
2.30361e-05
2.30663e-05
2.30446e-05
1.82587e-05
1.82592e-05
1.8259e-05
1.82594e-05
2.30656e-05
2.30439e-05
1.82578e-05
1.82611e-05
1.82581e-05
1.82614e-05
1.82603e-05
1.82567e-05
1.82606e-05
2.307e-05
2.30465e-05
1.82595e-05
1.82595e-05
1.82598e-05
2.30469e-05
2.30741e-05
2.30373e-05
1.82549e-05
1.82553e-05
1.82559e-05
1.82562e-05
2.30733e-05
2.30368e-05
1.8254e-05
1.82614e-05
1.8255e-05
1.8258e-05
1.82565e-05
1.82536e-05
1.82575e-05
2.30802e-05
2.30396e-05
1.82557e-05
1.8256e-05
1.82567e-05
2.30401e-05
2.30754e-05
2.30297e-05
1.82561e-05
1.82564e-05
1.8257e-05
1.82571e-05
2.30748e-05
2.30294e-05
1.82553e-05
1.82582e-05
1.82561e-05
1.8259e-05
1.82577e-05
1.82546e-05
1.82585e-05
2.30774e-05
2.30341e-05
1.82569e-05
1.82571e-05
1.82578e-05
2.30335e-05
2.30711e-05
2.30268e-05
1.82574e-05
1.82575e-05
1.82576e-05
1.82577e-05
2.30709e-05
2.30262e-05
1.82565e-05
1.82594e-05
1.82567e-05
1.82596e-05
1.82589e-05
1.82553e-05
1.82592e-05
2.30749e-05
2.30287e-05
1.82581e-05
1.82576e-05
1.82583e-05
2.30295e-05
2.30635e-05
2.30286e-05
1.82577e-05
1.82578e-05
1.82573e-05
1.82574e-05
2.30633e-05
2.30277e-05
1.82567e-05
1.82597e-05
1.82562e-05
1.8259e-05
1.82593e-05
1.82551e-05
1.82588e-05
2.3068e-05
2.30293e-05
1.82584e-05
1.82572e-05
1.82579e-05
2.30305e-05
2.30617e-05
2.30324e-05
1.82571e-05
1.82573e-05
1.82567e-05
1.82566e-05
2.30611e-05
2.30311e-05
1.82561e-05
1.8259e-05
1.82556e-05
1.82586e-05
1.82587e-05
1.82543e-05
1.82582e-05
2.30629e-05
2.30333e-05
1.82578e-05
1.82567e-05
1.82573e-05
2.30338e-05
2.30638e-05
2.30381e-05
1.82566e-05
1.82565e-05
1.82566e-05
1.82565e-05
2.30627e-05
2.30371e-05
1.82555e-05
1.82585e-05
1.82556e-05
1.82587e-05
1.82581e-05
1.82543e-05
1.82582e-05
2.30649e-05
2.30402e-05
1.82572e-05
1.82568e-05
1.82573e-05
2.30405e-05
2.30689e-05
2.3041e-05
1.82565e-05
1.82564e-05
1.82569e-05
1.82567e-05
2.30679e-05
2.30403e-05
1.82555e-05
1.82586e-05
1.82559e-05
1.82591e-05
1.82581e-05
1.82545e-05
1.82584e-05
2.3071e-05
2.30427e-05
1.82572e-05
1.82572e-05
1.82576e-05
2.30437e-05
2.30749e-05
2.30399e-05
1.82568e-05
1.82567e-05
1.82576e-05
1.82572e-05
2.30742e-05
2.30392e-05
1.82558e-05
1.8259e-05
1.82566e-05
1.82595e-05
1.82584e-05
1.82551e-05
1.8259e-05
2.30768e-05
2.30421e-05
1.82576e-05
1.82576e-05
1.82582e-05
2.3041e-05
2.30771e-05
2.30362e-05
1.82576e-05
1.82572e-05
1.82579e-05
1.82576e-05
2.30763e-05
2.30352e-05
1.82566e-05
1.82595e-05
1.82569e-05
1.82599e-05
1.82591e-05
1.82555e-05
1.82593e-05
2.30787e-05
2.30397e-05
1.82582e-05
1.82581e-05
1.82584e-05
2.30331e-05
2.30758e-05
2.30349e-05
1.8258e-05
1.82577e-05
1.82582e-05
1.82578e-05
2.30749e-05
2.30335e-05
1.8257e-05
1.826e-05
1.82572e-05
1.82601e-05
1.82596e-05
1.82558e-05
1.82597e-05
2.3079e-05
2.30311e-05
1.82587e-05
1.82583e-05
1.82588e-05
2.30337e-05
2.30754e-05
2.30324e-05
1.82582e-05
1.82578e-05
1.82585e-05
1.82581e-05
2.30739e-05
2.30331e-05
1.82572e-05
1.82604e-05
1.82574e-05
1.82605e-05
1.82597e-05
1.82561e-05
1.82599e-05
2.30713e-05
2.30362e-05
1.82588e-05
1.82586e-05
1.8259e-05
2.30356e-05
2.3074e-05
2.3029e-05
1.82586e-05
1.82582e-05
1.82585e-05
1.82582e-05
2.30746e-05
2.30282e-05
1.82576e-05
1.82604e-05
1.82575e-05
1.82608e-05
1.82599e-05
1.82563e-05
1.826e-05
2.3069e-05
2.30418e-05
1.82591e-05
1.82589e-05
1.82592e-05
2.30325e-05
2.30647e-05
2.30375e-05
1.82586e-05
1.82583e-05
1.82588e-05
1.82584e-05
2.30665e-05
2.30321e-05
1.82576e-05
1.82607e-05
1.82578e-05
1.82609e-05
1.82601e-05
1.82565e-05
1.82602e-05
2.30779e-05
2.30363e-05
1.82593e-05
1.8259e-05
1.82593e-05
2.30339e-05
2.30689e-05
2.30447e-05
1.82587e-05
1.82583e-05
1.8259e-05
1.82585e-05
2.30647e-05
2.30408e-05
1.82577e-05
1.82609e-05
1.8258e-05
1.82609e-05
1.82602e-05
1.82568e-05
1.82602e-05
2.30776e-05
2.30319e-05
1.82593e-05
1.8259e-05
1.82594e-05
2.30399e-05
2.30788e-05
2.3041e-05
1.82589e-05
1.82584e-05
1.8259e-05
1.82586e-05
2.30715e-05
2.30438e-05
1.82579e-05
1.82609e-05
1.8258e-05
1.82609e-05
1.82602e-05
1.8257e-05
1.82604e-05
2.30714e-05
2.30326e-05
1.82594e-05
1.8259e-05
1.82595e-05
2.30462e-05
2.30791e-05
2.30344e-05
1.8259e-05
1.82585e-05
1.8259e-05
1.82587e-05
2.3078e-05
2.30414e-05
1.8258e-05
1.82609e-05
1.8258e-05
1.8261e-05
1.82603e-05
1.82572e-05
1.82606e-05
2.3067e-05
2.30361e-05
1.82594e-05
1.82591e-05
1.82597e-05
2.30462e-05
2.30755e-05
2.30306e-05
1.82591e-05
1.82586e-05
1.82591e-05
1.82587e-05
2.30789e-05
2.30359e-05
1.82581e-05
1.8261e-05
1.8258e-05
1.82613e-05
1.82605e-05
1.82572e-05
1.82607e-05
2.30683e-05
2.3042e-05
1.82596e-05
1.82594e-05
1.82598e-05
2.30418e-05
2.30697e-05
2.30311e-05
1.82591e-05
1.82588e-05
1.82591e-05
1.82588e-05
2.30764e-05
2.30306e-05
1.8258e-05
1.82612e-05
1.82581e-05
1.82614e-05
1.82607e-05
1.82573e-05
1.82607e-05
2.30728e-05
2.3046e-05
1.82598e-05
1.82595e-05
1.82599e-05
2.30352e-05
2.30661e-05
2.30329e-05
1.82591e-05
1.82589e-05
1.82592e-05
1.82588e-05
2.3071e-05
2.303e-05
1.82581e-05
1.82613e-05
1.82581e-05
1.82615e-05
1.82608e-05
1.82573e-05
1.82607e-05
2.30781e-05
2.30459e-05
1.82599e-05
1.82596e-05
1.82599e-05
2.3033e-05
2.30659e-05
2.3036e-05
1.82592e-05
1.82588e-05
1.82592e-05
1.82589e-05
2.30649e-05
2.30357e-05
1.82581e-05
1.82614e-05
1.82582e-05
1.82614e-05
1.82607e-05
1.82574e-05
1.82607e-05
2.30817e-05
2.30399e-05
1.82599e-05
1.82595e-05
1.82599e-05
2.30363e-05
2.30676e-05
2.30423e-05
1.82591e-05
1.82588e-05
1.82593e-05
1.8259e-05
2.30674e-05
2.3044e-05
1.82581e-05
1.82614e-05
1.82582e-05
1.82614e-05
1.82607e-05
1.82575e-05
1.82608e-05
2.30785e-05
2.3038e-05
1.82599e-05
1.82595e-05
1.826e-05
2.30446e-05
2.30731e-05
2.30442e-05
1.82591e-05
1.82588e-05
1.82594e-05
1.8259e-05
2.3077e-05
2.3041e-05
1.82581e-05
1.82614e-05
1.82583e-05
1.82615e-05
1.82607e-05
1.82575e-05
1.82609e-05
2.30759e-05
2.30444e-05
1.82599e-05
1.82595e-05
1.826e-05
2.30445e-05
2.30791e-05
2.30392e-05
1.82592e-05
1.82589e-05
1.82593e-05
1.82589e-05
2.30787e-05
2.3033e-05
1.82582e-05
1.82613e-05
1.82583e-05
1.82615e-05
1.82608e-05
1.82574e-05
1.82608e-05
2.30796e-05
2.30453e-05
1.826e-05
1.82595e-05
1.826e-05
2.30404e-05
2.30779e-05
2.30306e-05
1.82593e-05
1.82589e-05
1.82592e-05
1.82588e-05
2.30738e-05
2.30296e-05
1.82583e-05
1.82614e-05
1.82582e-05
1.82614e-05
1.82608e-05
1.82574e-05
1.82608e-05
2.30818e-05
2.30388e-05
1.82599e-05
1.82594e-05
1.82599e-05
2.30394e-05
2.30691e-05
2.30345e-05
1.82592e-05
1.82588e-05
1.82592e-05
1.82588e-05
2.30654e-05
2.30346e-05
1.82582e-05
1.82614e-05
1.82582e-05
1.82613e-05
1.82607e-05
1.82574e-05
1.82608e-05
2.30788e-05
2.30328e-05
1.82599e-05
1.82593e-05
1.82599e-05
2.30447e-05
2.30673e-05
2.30415e-05
1.82592e-05
1.82588e-05
1.82592e-05
1.82588e-05
2.30668e-05
2.30404e-05
1.82581e-05
1.82613e-05
1.82582e-05
1.82613e-05
1.82606e-05
1.82574e-05
1.82608e-05
2.30712e-05
2.30345e-05
1.82598e-05
1.82593e-05
1.82599e-05
2.30448e-05
2.30734e-05
2.30376e-05
1.82592e-05
1.82588e-05
1.82556e-05
1.82552e-05
2.30715e-05
2.30374e-05
1.82582e-05
1.82612e-05
1.82546e-05
1.82574e-05
1.82607e-05
1.82539e-05
1.82568e-05
2.30709e-05
2.30297e-05
1.82598e-05
1.82554e-05
1.8256e-05
2.30299e-05
2.30691e-05
2.30394e-05
1.82558e-05
1.82554e-05
1.82567e-05
1.82563e-05
2.30687e-05
2.30392e-05
1.82548e-05
1.82577e-05
1.82557e-05
1.82586e-05
1.8257e-05
1.82549e-05
1.82579e-05
2.30701e-05
2.30305e-05
1.82562e-05
1.82566e-05
1.8257e-05
2.30343e-05
2.30723e-05
2.30407e-05
1.82569e-05
1.82564e-05
1.82577e-05
1.82572e-05
2.30729e-05
2.30398e-05
1.82558e-05
1.8259e-05
1.82567e-05
1.82596e-05
1.82581e-05
1.82559e-05
1.8259e-05
2.30722e-05
2.30292e-05
1.82573e-05
1.82576e-05
1.82581e-05
2.30414e-05
2.30752e-05
2.30392e-05
1.82577e-05
1.82572e-05
1.82576e-05
1.82572e-05
2.30755e-05
2.30374e-05
1.82566e-05
1.82599e-05
1.82566e-05
1.82596e-05
1.8259e-05
1.82559e-05
1.8259e-05
2.30683e-05
2.30295e-05
1.82581e-05
1.82576e-05
1.82581e-05
2.30433e-05
2.30758e-05
2.30349e-05
1.82574e-05
1.8257e-05
1.8257e-05
1.82566e-05
2.30752e-05
2.30322e-05
1.82563e-05
1.82596e-05
1.82559e-05
1.82589e-05
1.82587e-05
1.82552e-05
1.82584e-05
2.30638e-05
2.3032e-05
1.82578e-05
1.82569e-05
1.82574e-05
2.30406e-05
2.30742e-05
2.30289e-05
1.82568e-05
1.82564e-05
1.82565e-05
1.82561e-05
2.30725e-05
2.30272e-05
1.82558e-05
1.82589e-05
1.82555e-05
1.82587e-05
1.82582e-05
1.82548e-05
1.8258e-05
2.30643e-05
2.3037e-05
1.82573e-05
1.82565e-05
1.82572e-05
2.30365e-05
2.30703e-05
2.30266e-05
1.82566e-05
1.82562e-05
1.82567e-05
1.82563e-05
2.30682e-05
2.30263e-05
1.82556e-05
1.82586e-05
1.82557e-05
1.82589e-05
1.82581e-05
1.8255e-05
1.82581e-05
2.30679e-05
2.30413e-05
1.82572e-05
1.82567e-05
1.82572e-05
2.30318e-05
2.30648e-05
2.30289e-05
1.82569e-05
1.82564e-05
1.82571e-05
1.82567e-05
2.30637e-05
2.30287e-05
1.82559e-05
1.82589e-05
1.82561e-05
1.82594e-05
1.82583e-05
1.82555e-05
1.82585e-05
2.30736e-05
2.3042e-05
1.82574e-05
1.82573e-05
1.82575e-05
2.30301e-05
2.3063e-05
2.3033e-05
1.82573e-05
1.82569e-05
1.82577e-05
1.82573e-05
2.30625e-05
2.30331e-05
1.82562e-05
1.82594e-05
1.82567e-05
1.82597e-05
1.82587e-05
1.82561e-05
1.8259e-05
2.30759e-05
2.3043e-05
1.82578e-05
1.82578e-05
1.8258e-05
2.30317e-05
2.30652e-05
2.30381e-05
1.82578e-05
1.82573e-05
1.82582e-05
1.82578e-05
2.30651e-05
2.30392e-05
1.82567e-05
1.82597e-05
1.82571e-05
1.82602e-05
1.82592e-05
1.82565e-05
1.82596e-05
2.30782e-05
2.30413e-05
1.82582e-05
1.82582e-05
1.82586e-05
2.30348e-05
2.30691e-05
2.3042e-05
1.82581e-05
1.82577e-05
1.82584e-05
1.8258e-05
2.30701e-05
2.30421e-05
1.82571e-05
1.82604e-05
1.82574e-05
1.82604e-05
1.82596e-05
1.82567e-05
1.82598e-05
2.30789e-05
2.30369e-05
1.82587e-05
1.82583e-05
1.82588e-05
2.30377e-05
2.30738e-05
2.30429e-05
1.82584e-05
1.8258e-05
1.82586e-05
1.82582e-05
2.30751e-05
2.3042e-05
1.82573e-05
1.82605e-05
1.82575e-05
1.82606e-05
1.82598e-05
1.82568e-05
1.826e-05
2.30752e-05
2.30428e-05
1.82588e-05
1.82585e-05
1.8259e-05
2.30386e-05
2.30763e-05
2.30429e-05
1.82586e-05
1.82582e-05
1.82587e-05
1.82583e-05
2.30762e-05
2.30424e-05
1.82575e-05
1.82606e-05
1.82577e-05
1.8261e-05
1.826e-05
1.8257e-05
1.82601e-05
2.30783e-05
2.30459e-05
1.8259e-05
1.82587e-05
1.82591e-05
2.30392e-05
2.3078e-05
2.30416e-05
1.82587e-05
1.82583e-05
1.82588e-05
1.82584e-05
2.30776e-05
2.30408e-05
1.82577e-05
1.82609e-05
1.82578e-05
1.8261e-05
1.82601e-05
1.82571e-05
1.82602e-05
2.30819e-05
2.30396e-05
1.82591e-05
1.82588e-05
1.82592e-05
2.30409e-05
2.30782e-05
2.30403e-05
1.82588e-05
1.82584e-05
1.8259e-05
1.82585e-05
2.30778e-05
2.30387e-05
1.82578e-05
1.8261e-05
1.82579e-05
1.8261e-05
1.82601e-05
1.82573e-05
1.82603e-05
2.30795e-05
2.3032e-05
1.82592e-05
1.82589e-05
1.82594e-05
2.30444e-05
2.30777e-05
2.30415e-05
1.82589e-05
1.82585e-05
1.82592e-05
1.82588e-05
2.30766e-05
2.30404e-05
1.82579e-05
1.8261e-05
1.82582e-05
1.82612e-05
1.82602e-05
1.82577e-05
1.82607e-05
2.30714e-05
2.30334e-05
1.82593e-05
1.82591e-05
1.82597e-05
2.30471e-05
2.30786e-05
2.30422e-05
1.82591e-05
1.82587e-05
1.82596e-05
1.82592e-05
2.30777e-05
2.30421e-05
1.82581e-05
1.82612e-05
1.82585e-05
1.82616e-05
1.82606e-05
1.8258e-05
1.8261e-05
2.3067e-05
2.30383e-05
1.82596e-05
1.82595e-05
1.826e-05
2.30432e-05
2.30793e-05
2.30418e-05
1.82594e-05
1.8259e-05
1.82599e-05
1.82596e-05
2.30788e-05
2.30421e-05
1.82584e-05
1.82614e-05
1.82589e-05
1.82621e-05
1.82609e-05
1.82584e-05
1.82614e-05
2.3069e-05
2.30454e-05
1.82599e-05
1.82601e-05
1.82604e-05
2.30412e-05
2.30795e-05
2.30391e-05
1.82597e-05
1.82594e-05
1.82602e-05
1.826e-05
2.3079e-05
2.30425e-05
1.82587e-05
1.82618e-05
1.82593e-05
1.82625e-05
1.82612e-05
1.82587e-05
1.82619e-05
2.3074e-05
2.30509e-05
1.82603e-05
1.82606e-05
1.82609e-05
2.30485e-05
2.30773e-05
2.30349e-05
1.82598e-05
1.82595e-05
1.82599e-05
1.82597e-05
2.30789e-05
2.30424e-05
1.82588e-05
1.8262e-05
1.82589e-05
1.82622e-05
1.82614e-05
1.82584e-05
1.82617e-05
2.30805e-05
2.30493e-05
1.82603e-05
1.82602e-05
1.82605e-05
2.30488e-05
2.30668e-05
2.25397e-05
1.8239e-05
1.82386e-05
1.75341e-05
1.75337e-05
2.30724e-05
2.25418e-05
1.82379e-05
1.82409e-05
1.75343e-05
1.75355e-05
1.82404e-05
1.75342e-05
1.75351e-05
2.3077e-05
2.25412e-05
1.82393e-05
1.75353e-05
1.75354e-05
2.25415e-05
2.2134e-05
1.72483e-05
1.72478e-05
2.21342e-05
1.72487e-05
1.72498e-05
1.34653e-05
1.34661e-05
1.34662e-05
1.72495e-05
2.21359e-05
1.725e-05
3.73769e-05
3.73764e-05
3.73767e-05
3.73767e-05
3.73694e-05
3.73756e-05
3.73043e-05
3.73764e-05
3.73695e-05
3.73756e-05
3.73764e-05
3.73043e-05
3.73714e-05
3.72959e-05
3.72959e-05
3.5883e-05
4.08681e-05
3.66009e-05
4.5138e-05
5.511e-05
6.48876e-05
3.58836e-05
4.08677e-05
3.66008e-05
4.51407e-05
3.60232e-05
3.60232e-05
3.60232e-05
3.44005e-05
3.44005e-05
3.44005e-05
3.44005e-05
3.52764e-05
3.56382e-05
3.60241e-05
3.53761e-05
3.60479e-05
3.42428e-05
3.53827e-05
5.51119e-05
6.48892e-05
3.52765e-05
3.60241e-05
3.56378e-05
3.53761e-05
3.60478e-05
3.53827e-05
3.42433e-05
3.65939e-05
3.65946e-05
3.52783e-05
3.40676e-05
3.40667e-05
3.39696e-05
5.13497e-05
3.46834e-05
5.4619e-05
7.6545e-05
8.08614e-05
3.39706e-05
5.13502e-05
3.46827e-05
5.46223e-05
3.39295e-05
3.39295e-05
3.39295e-05