/*--------------------------------*- C++ -*----------------------------------*\
| =========                 |                                                 |
| \\      /  F ield         | OpenFOAM: The Open Source CFD Toolbox           |
|  \\    /   O peration     | Version:  2312                                  |
|   \\  /    A nd           | Website:  www.openfoam.com                      |
|    \\/     M anipulation  |                                                 |
\*---------------------------------------------------------------------------*/
FoamFile
{
    version     2.0;
    format      ascii;
    arch        "LSB;label=32;scalar=64";
    class       volScalarField;
    location    "400";
    object      k;
}
// * * * * * * * * * * * * * * * * * * * * * * * * * * * * * * * * * * * * * //

dimensions      [0 2 -2 0 0 0 0];

internalField   nonuniform List<scalar> 
43168
(
3.92074e-05
5.15938e-05
5.15959e-05
5.36914e-05
5.36336e-05
5.15421e-05
5.15369e-05
5.36288e-05
5.15384e-05
5.15373e-05
5.15397e-05
5.1541e-05
5.36287e-05
5.15419e-05
5.15394e-05
5.36303e-05
5.36906e-05
5.15962e-05
5.15915e-05
5.36906e-05
5.15925e-05
5.15915e-05
5.1595e-05
5.36901e-05
5.15934e-05
7.34541e-05
7.34546e-05
3.9113e-05
3.91125e-05
3.91159e-05
3.91166e-05
6.86454e-05
7.3489e-05
6.86228e-05
7.35131e-05
7.12347e-05
7.12609e-05
6.86426e-05
7.34894e-05
6.86177e-05
7.35133e-05
3.92069e-05
3.92103e-05
3.92108e-05
6.07456e-05
6.48464e-05
4.69386e-05
5.16485e-05
6.07045e-05
6.48726e-05
4.70078e-05
7.12348e-05
7.12607e-05
6.07444e-05
4.69417e-05
6.48454e-05
5.16506e-05
6.07073e-05
4.70109e-05
6.48718e-05
6.99779e-05
6.99868e-05
5.37193e-05
6.99938e-05
7.00027e-05
7.12035e-05
7.12063e-05
5.35497e-05
6.99466e-05
6.99548e-05
7.12314e-05
7.12053e-05
7.12343e-05
7.12081e-05
5.35921e-05
6.99725e-05
6.99808e-05
6.99564e-05
6.99636e-05
5.1428e-05
6.4809e-05
6.85939e-05
7.34836e-05
7.34596e-05
6.86175e-05
6.85925e-05
7.34805e-05
7.34563e-05
6.86162e-05
6.06603e-05
5.14847e-05
6.48419e-05
4.68714e-05
6.48151e-05
4.6799e-05
6.06999e-05
6.06585e-05
5.14781e-05
6.48389e-05
4.68687e-05
6.48116e-05
4.67961e-05
6.06982e-05
7.12331e-05
7.12067e-05
5.36019e-05
6.99728e-05
6.99735e-05
6.99571e-05
7.12326e-05
5.14244e-05
6.48096e-05
6.85893e-05
7.3484e-05
7.346e-05
6.8615e-05
6.06538e-05
5.14812e-05
6.48424e-05
4.68685e-05
6.48151e-05
4.67962e-05
6.06972e-05
6.85875e-05
7.34794e-05
7.34552e-05
6.86133e-05
6.06522e-05
5.14803e-05
4.68685e-05
6.48366e-05
4.67963e-05
6.48094e-05
6.06955e-05
6.4841e-05
4.68698e-05
6.06978e-05
7.34826e-05
6.86135e-05
4.6871e-05
6.48383e-05
6.06979e-05
7.34813e-05
6.86149e-05
7.12329e-05
7.12068e-05
5.3601e-05
6.9973e-05
6.99705e-05
6.99565e-05
6.9954e-05
7.12313e-05
7.12051e-05
6.06573e-05
5.14846e-05
4.68731e-05
6.48402e-05
4.68009e-05
6.48126e-05
6.06968e-05
6.06554e-05
5.1482e-05
4.68721e-05
6.4841e-05
4.67997e-05
6.48138e-05
6.06949e-05
6.85894e-05
7.34839e-05
7.34577e-05
6.86127e-05
6.85865e-05
7.34819e-05
7.34576e-05
6.86099e-05
5.359e-05
6.99684e-05
6.99773e-05
6.99607e-05
7.12323e-05
7.12351e-05
7.1209e-05
7.12332e-05
7.12591e-05
7.1236e-05
7.1262e-05
6.99821e-05
6.99892e-05
5.37208e-05
6.99975e-05
7.00058e-05
7.12608e-05
7.12637e-05
5.3774e-05
7.00069e-05
7.00139e-05
6.8644e-05
7.3486e-05
6.86214e-05
7.35099e-05
6.0748e-05
6.48483e-05
4.69402e-05
5.16511e-05
6.07105e-05
6.48739e-05
4.70095e-05
6.07463e-05
6.48448e-05
4.69377e-05
5.1646e-05
6.07088e-05
6.48708e-05
4.70069e-05
6.86505e-05
7.35169e-05
6.86491e-05
7.3514e-05
6.07583e-05
5.17028e-05
6.48797e-05
4.70753e-05
6.07566e-05
5.16979e-05
6.48765e-05
4.70728e-05
6.99831e-05
6.99819e-05
5.37167e-05
6.99982e-05
6.99983e-05
7.12343e-05
7.12603e-05
7.12624e-05
5.37752e-05
7.00081e-05
7.00064e-05
7.1262e-05
6.07448e-05
6.48478e-05
4.69371e-05
5.16472e-05
6.07036e-05
6.48742e-05
4.70062e-05
6.86408e-05
7.34849e-05
6.86161e-05
7.35087e-05
6.07431e-05
4.69371e-05
6.48426e-05
5.16459e-05
6.07019e-05
4.7006e-05
6.4868e-05
6.86448e-05
7.35185e-05
6.07505e-05
5.16988e-05
6.4879e-05
4.70718e-05
6.8643e-05
7.35139e-05
6.07488e-05
5.16974e-05
4.70717e-05
6.48737e-05
6.86409e-05
7.34879e-05
6.86169e-05
7.35117e-05
6.07456e-05
4.69396e-05
6.48436e-05
5.16498e-05
6.07045e-05
4.70088e-05
6.48701e-05
6.86422e-05
7.34846e-05
6.86177e-05
7.35102e-05
6.07517e-05
5.17e-05
6.48778e-05
4.70733e-05
6.8644e-05
7.3517e-05
6.07516e-05
5.17016e-05
4.70745e-05
6.48753e-05
6.86448e-05
7.35149e-05
6.99825e-05
6.99799e-05
5.37159e-05
6.9998e-05
6.99955e-05
7.12331e-05
7.1259e-05
7.12625e-05
5.37741e-05
7.00072e-05
7.00047e-05
7.12608e-05
6.07425e-05
4.69406e-05
6.48471e-05
5.16481e-05
6.07054e-05
4.70097e-05
6.48729e-05
6.86399e-05
7.34872e-05
6.86178e-05
7.3513e-05
6.86372e-05
7.34873e-05
6.86151e-05
7.35111e-05
6.07546e-05
5.17019e-05
4.70763e-05
6.4877e-05
6.07528e-05
5.17e-05
4.70754e-05
6.48786e-05
6.86449e-05
7.35163e-05
6.86424e-05
7.35164e-05
7.12341e-05
7.12601e-05
7.12369e-05
7.12628e-05
5.37784e-05
7.0003e-05
7.00117e-05
7.12618e-05
7.12645e-05
7.16917e-05
7.97975e-05
7.34444e-05
7.97897e-05
7.17062e-05
7.3445e-05
7.19167e-05
6.86368e-05
7.16995e-05
7.16642e-05
7.169e-05
7.16563e-05
7.19304e-05
7.17468e-05
7.98262e-05
7.34983e-05
7.17324e-05
7.98336e-05
7.19161e-05
6.86316e-05
7.16751e-05
7.16436e-05
7.19024e-05
7.16846e-05
7.16517e-05
7.17458e-05
7.98452e-05
7.35038e-05
7.9838e-05
7.17602e-05
7.1247e-05
7.12486e-05
7.19164e-05
6.86316e-05
7.16619e-05
7.17004e-05
7.16508e-05
7.16881e-05
7.19301e-05
7.17471e-05
7.98222e-05
7.34988e-05
7.17326e-05
7.98299e-05
7.19158e-05
6.8629e-05
7.16381e-05
7.1673e-05
7.19021e-05
7.16494e-05
7.16856e-05
7.17461e-05
7.98415e-05
7.35041e-05
7.9834e-05
7.17605e-05
7.12469e-05
7.12487e-05
9.50397e-05
7.35636e-05
7.3557e-05
7.355e-05
7.35434e-05
9.50418e-05
7.42086e-05
6.53043e-05
7.33153e-05
6.99812e-05
7.4205e-05
6.53162e-05
7.33245e-05
7.42572e-05
6.53125e-05
7.33231e-05
6.99901e-05
7.42535e-05
6.53249e-05
7.33356e-05
9.50284e-05
7.35372e-05
7.35306e-05
9.50264e-05
7.35508e-05
7.35442e-05
7.42197e-05
7.33386e-05
6.99906e-05
6.53356e-05
6.53243e-05
7.33296e-05
7.42233e-05
7.42681e-05
7.33498e-05
6.99995e-05
6.53443e-05
6.53324e-05
7.33375e-05
7.42718e-05
7.11912e-05
7.11941e-05
9.49887e-05
7.35116e-05
7.3505e-05
7.34978e-05
7.34912e-05
9.49905e-05
7.41598e-05
7.3283e-05
6.9943e-05
6.52561e-05
7.32722e-05
7.41631e-05
6.52451e-05
7.42066e-05
7.32932e-05
6.99504e-05
6.52638e-05
7.32806e-05
7.42104e-05
6.52511e-05
7.12193e-05
7.12174e-05
7.12221e-05
7.12203e-05
9.50043e-05
7.35108e-05
7.35042e-05
9.50024e-05
7.35246e-05
7.3518e-05
7.41905e-05
6.5297e-05
6.99693e-05
7.33123e-05
7.32997e-05
6.52864e-05
7.41936e-05
7.42369e-05
6.53045e-05
6.99764e-05
7.33218e-05
7.33093e-05
6.52924e-05
7.42413e-05
7.41785e-05
7.32855e-05
6.52663e-05
6.99597e-05
7.41754e-05
7.32977e-05
6.52769e-05
7.42261e-05
7.32949e-05
6.52722e-05
6.9968e-05
7.42222e-05
7.33074e-05
6.52845e-05
9.50159e-05
7.35374e-05
7.35309e-05
7.35237e-05
7.35171e-05
9.50179e-05
7.18871e-05
7.16453e-05
7.16174e-05
6.86032e-05
7.18731e-05
7.16549e-05
7.16259e-05
7.17189e-05
7.34743e-05
7.98216e-05
7.17334e-05
7.98142e-05
7.17198e-05
7.98022e-05
7.34689e-05
7.17053e-05
7.98097e-05
7.18877e-05
6.86087e-05
7.16698e-05
7.16389e-05
7.19017e-05
7.16604e-05
7.16308e-05
7.1884e-05
7.1645e-05
7.16123e-05
6.86017e-05
7.18743e-05
7.16545e-05
7.16208e-05
7.17185e-05
7.3471e-05
7.98037e-05
7.97961e-05
7.1733e-05
7.17194e-05
7.97838e-05
7.34656e-05
7.17049e-05
7.97915e-05
7.18891e-05
6.86072e-05
7.16695e-05
7.16341e-05
7.166e-05
7.16258e-05
7.18984e-05
7.12207e-05
7.12191e-05
7.42379e-05
6.53021e-05
6.99701e-05
7.3319e-05
6.52906e-05
7.33097e-05
7.42412e-05
7.419e-05
6.52975e-05
6.99693e-05
7.33134e-05
7.33009e-05
6.52858e-05
7.41948e-05
6.52703e-05
6.99599e-05
6.52817e-05
9.50139e-05
7.35316e-05
7.35383e-05
7.35179e-05
7.35242e-05
9.50158e-05
7.12204e-05
7.1887e-05
7.16122e-05
7.16432e-05
6.8601e-05
7.18732e-05
7.16238e-05
7.16557e-05
7.1719e-05
7.34747e-05
7.9818e-05
7.17335e-05
7.98103e-05
7.17199e-05
7.97981e-05
7.34693e-05
7.17054e-05
7.9806e-05
7.18873e-05
6.86037e-05
7.16366e-05
7.16705e-05
7.19014e-05
7.16254e-05
7.16582e-05
7.18851e-05
7.16426e-05
7.16065e-05
6.85991e-05
7.18712e-05
7.16551e-05
7.1618e-05
7.17166e-05
7.347e-05
7.97983e-05
7.97906e-05
7.17312e-05
7.17175e-05
7.97784e-05
7.34646e-05
7.1703e-05
7.97862e-05
7.18856e-05
6.86019e-05
7.16701e-05
7.16311e-05
7.16577e-05
7.16197e-05
7.18995e-05
7.17172e-05
7.34732e-05
7.98104e-05
7.98067e-05
7.17323e-05
7.18874e-05
6.86029e-05
7.16316e-05
7.16705e-05
7.16217e-05
7.16578e-05
7.18984e-05
7.17177e-05
7.347e-05
7.97987e-05
7.97909e-05
7.17322e-05
7.18886e-05
6.86036e-05
7.16708e-05
7.16329e-05
7.16583e-05
7.16216e-05
7.18982e-05
7.12208e-05
7.1219e-05
9.49978e-05
7.35036e-05
7.35096e-05
9.49959e-05
7.35173e-05
7.35233e-05
7.42355e-05
6.53001e-05
6.99697e-05
7.33176e-05
6.52877e-05
7.33084e-05
7.42388e-05
7.41873e-05
6.5295e-05
6.99671e-05
7.33094e-05
7.33002e-05
6.5283e-05
7.41908e-05
7.42237e-05
7.32939e-05
6.52672e-05
6.996e-05
6.528e-05
7.42202e-05
7.33031e-05
7.41758e-05
7.32858e-05
6.52625e-05
6.99575e-05
7.4172e-05
7.3295e-05
6.52749e-05
9.50094e-05
7.35302e-05
7.35362e-05
7.35165e-05
7.35225e-05
9.50113e-05
7.12191e-05
7.12173e-05
7.18861e-05
7.16137e-05
7.16423e-05
6.85985e-05
7.18723e-05
7.16221e-05
7.1655e-05
7.1718e-05
7.34726e-05
7.98157e-05
7.9808e-05
7.17324e-05
7.17188e-05
7.97958e-05
7.34691e-05
7.17044e-05
7.98037e-05
7.18865e-05
6.86039e-05
7.16353e-05
7.167e-05
7.16258e-05
7.16573e-05
7.19004e-05
7.1885e-05
7.16077e-05
7.16429e-05
6.85955e-05
7.18707e-05
7.1616e-05
7.16525e-05
7.17187e-05
7.34725e-05
7.98008e-05
7.97935e-05
7.17332e-05
7.17196e-05
7.97811e-05
7.3467e-05
7.1705e-05
7.97887e-05
7.18851e-05
6.8601e-05
7.16291e-05
7.16675e-05
7.1621e-05
7.1658e-05
7.18995e-05
9.50013e-05
7.35251e-05
7.35185e-05
7.41901e-05
6.52961e-05
6.9965e-05
7.33102e-05
7.41937e-05
6.52841e-05
7.3301e-05
7.42387e-05
6.53048e-05
6.99739e-05
7.33209e-05
7.42424e-05
6.52922e-05
7.33093e-05
7.41784e-05
6.99553e-05
6.52757e-05
7.32959e-05
7.42269e-05
6.52717e-05
6.99642e-05
6.52843e-05
7.33061e-05
9.50129e-05
7.3538e-05
7.35314e-05
9.50149e-05
7.35243e-05
7.35177e-05
7.12201e-05
7.12184e-05
7.1223e-05
7.12211e-05
7.12453e-05
7.12471e-05
7.12482e-05
7.12499e-05
9.50423e-05
7.3563e-05
7.35565e-05
7.35493e-05
7.35428e-05
9.50443e-05
7.42082e-05
6.53066e-05
7.33141e-05
6.99853e-05
7.42054e-05
7.33266e-05
6.53171e-05
7.42561e-05
6.53124e-05
7.33234e-05
6.99935e-05
7.42515e-05
7.33359e-05
6.53245e-05
9.50312e-05
7.35365e-05
7.353e-05
9.50292e-05
7.35502e-05
7.35437e-05
7.42199e-05
7.33405e-05
6.99946e-05
6.53361e-05
7.33282e-05
7.42226e-05
6.53262e-05
7.42659e-05
7.33499e-05
7.00016e-05
6.53435e-05
7.33376e-05
7.42705e-05
6.5332e-05
7.12728e-05
7.12758e-05
9.50572e-05
7.3562e-05
7.35555e-05
9.50553e-05
7.35756e-05
7.35692e-05
7.42365e-05
7.33422e-05
6.53452e-05
7.00098e-05
7.4234e-05
7.33543e-05
6.53551e-05
7.42845e-05
7.33516e-05
6.53509e-05
7.0018e-05
7.42801e-05
7.33639e-05
6.53624e-05
7.19178e-05
6.86354e-05
7.16992e-05
7.16596e-05
7.16898e-05
7.16516e-05
7.19271e-05
7.17465e-05
7.98082e-05
7.34952e-05
7.17321e-05
7.98157e-05
7.19128e-05
6.86303e-05
7.16749e-05
7.16388e-05
7.16843e-05
7.19035e-05
7.16469e-05
7.17456e-05
7.98273e-05
7.35006e-05
7.98201e-05
7.176e-05
7.19446e-05
7.17049e-05
7.16687e-05
6.86587e-05
7.1931e-05
7.17141e-05
7.16763e-05
7.17735e-05
7.98495e-05
7.35281e-05
7.17591e-05
7.98567e-05
7.19415e-05
7.17046e-05
7.16642e-05
6.86574e-05
7.19322e-05
7.17138e-05
7.16718e-05
7.17734e-05
7.98317e-05
7.35249e-05
7.1759e-05
7.9839e-05
9.504e-05
7.35571e-05
7.35635e-05
7.35434e-05
7.35499e-05
9.50421e-05
7.42558e-05
6.53107e-05
7.33241e-05
6.99858e-05
7.33332e-05
7.42523e-05
6.5322e-05
7.42095e-05
6.53059e-05
7.33151e-05
6.99861e-05
6.53174e-05
7.42049e-05
7.33276e-05
9.5029e-05
7.35307e-05
7.35373e-05
7.35444e-05
9.50269e-05
7.35509e-05
7.42668e-05
7.33472e-05
6.99956e-05
6.53411e-05
7.33383e-05
6.53303e-05
7.42702e-05
7.42194e-05
7.33415e-05
6.99942e-05
6.53363e-05
6.53254e-05
7.33292e-05
7.42239e-05
7.12465e-05
7.12482e-05
7.12746e-05
9.50551e-05
7.35561e-05
7.35625e-05
9.50531e-05
7.35697e-05
7.35761e-05
7.4284e-05
7.33521e-05
6.53494e-05
7.00107e-05
6.536e-05
7.42809e-05
7.33612e-05
7.42379e-05
7.33432e-05
6.53443e-05
7.00105e-05
7.42335e-05
7.33555e-05
6.53551e-05
7.1274e-05
7.19144e-05
6.86298e-05
7.16997e-05
7.16561e-05
7.16876e-05
7.16453e-05
7.19282e-05
7.17447e-05
7.98026e-05
7.34941e-05
7.17303e-05
7.98102e-05
7.19137e-05
6.86272e-05
7.16726e-05
7.16326e-05
7.16851e-05
7.19002e-05
7.16438e-05
7.17438e-05
7.98217e-05
7.34995e-05
7.98144e-05
7.17582e-05
7.19444e-05
7.16629e-05
7.17028e-05
6.86558e-05
7.19307e-05
7.16739e-05
7.17149e-05
7.17739e-05
7.98455e-05
7.35277e-05
7.17595e-05
7.9853e-05
7.19417e-05
7.17029e-05
7.16575e-05
6.8654e-05
7.19292e-05
7.17137e-05
7.16675e-05
7.17717e-05
7.9826e-05
7.35232e-05
7.17573e-05
7.98333e-05
7.19162e-05
6.86307e-05
7.16567e-05
7.17001e-05
7.16472e-05
7.16876e-05
7.19261e-05
7.17457e-05
7.98186e-05
7.34973e-05
7.98222e-05
7.17307e-05
7.19111e-05
6.86274e-05
7.16346e-05
7.16727e-05
7.16443e-05
7.19015e-05
7.16853e-05
7.17441e-05
7.98338e-05
7.35026e-05
7.98303e-05
7.17591e-05
7.19166e-05
6.86315e-05
7.17004e-05
7.1658e-05
7.1688e-05
7.16471e-05
7.19278e-05
7.17457e-05
7.98029e-05
7.34961e-05
7.17313e-05
7.98106e-05
7.19125e-05
6.86287e-05
7.16731e-05
7.16345e-05
7.19031e-05
7.16855e-05
7.16456e-05
7.17447e-05
7.98222e-05
7.34992e-05
7.98147e-05
7.17591e-05
7.1941e-05
7.16594e-05
7.17023e-05
6.86542e-05
7.19306e-05
7.16689e-05
7.17148e-05
7.17725e-05
7.98417e-05
7.35262e-05
7.17575e-05
7.98452e-05
7.19428e-05
7.17027e-05
7.16594e-05
6.86555e-05
7.19299e-05
7.1715e-05
7.16702e-05
7.17725e-05
7.98263e-05
7.35242e-05
7.17581e-05
7.98338e-05
9.50358e-05
7.35559e-05
7.35619e-05
7.35423e-05
7.35483e-05
9.50376e-05
7.42534e-05
6.53078e-05
7.33226e-05
6.99857e-05
7.33319e-05
7.42502e-05
6.53198e-05
7.42053e-05
6.5303e-05
7.33146e-05
6.99832e-05
6.53148e-05
7.42021e-05
7.33236e-05
9.50245e-05
7.35294e-05
7.35354e-05
7.35431e-05
9.50227e-05
7.35491e-05
7.42647e-05
7.33467e-05
6.99949e-05
6.53387e-05
7.33355e-05
6.53271e-05
7.42678e-05
7.42165e-05
7.33376e-05
6.99924e-05
6.53337e-05
6.53224e-05
7.33286e-05
7.42197e-05
7.12452e-05
7.12469e-05
7.12745e-05
9.50505e-05
7.35551e-05
7.35611e-05
9.50488e-05
7.35687e-05
7.35747e-05
7.42816e-05
7.33487e-05
6.5346e-05
7.00102e-05
6.53574e-05
7.42787e-05
7.33611e-05
7.42335e-05
7.33427e-05
6.53414e-05
7.00078e-05
7.42306e-05
7.33516e-05
6.53524e-05
7.12728e-05
7.19151e-05
6.86315e-05
7.16604e-05
7.16993e-05
7.16499e-05
7.16872e-05
7.1929e-05
7.17459e-05
7.98199e-05
7.34985e-05
7.98276e-05
7.17315e-05
7.19146e-05
6.86265e-05
7.16377e-05
7.16722e-05
7.16479e-05
7.1901e-05
7.16849e-05
7.17449e-05
7.9839e-05
7.35019e-05
7.98316e-05
7.17593e-05
7.19139e-05
6.86288e-05
7.16543e-05
7.16973e-05
7.16466e-05
7.16878e-05
7.19283e-05
7.17467e-05
7.98056e-05
7.34966e-05
7.17322e-05
7.98126e-05
7.19136e-05
6.86237e-05
7.16339e-05
7.16729e-05
7.18997e-05
7.16418e-05
7.16824e-05
7.17457e-05
7.98242e-05
7.35019e-05
7.98175e-05
7.17602e-05
7.19433e-05
7.1662e-05
7.17027e-05
6.86531e-05
7.19296e-05
7.16726e-05
7.17132e-05
7.17726e-05
7.98431e-05
7.35276e-05
7.17583e-05
7.98505e-05
7.19425e-05
7.1659e-05
7.17026e-05
6.86506e-05
7.19285e-05
7.16665e-05
7.17119e-05
7.17736e-05
7.98292e-05
7.35256e-05
7.17592e-05
7.98358e-05
7.12463e-05
7.1248e-05
7.1249e-05
7.12508e-05
9.50549e-05
7.35628e-05
7.35562e-05
9.50529e-05
7.35763e-05
7.35698e-05
7.42372e-05
7.33436e-05
6.53436e-05
7.00063e-05
7.42339e-05
6.53548e-05
7.33526e-05
7.42857e-05
7.33516e-05
6.53516e-05
7.00153e-05
7.42823e-05
6.53633e-05
7.33639e-05
7.12739e-05
7.12766e-05
3.8916e-05
3.22793e-05
3.2276e-05
3.93035e-05
3.23989e-05
3.23956e-05
2.34517e-05
2.33065e-05
6.60099e-05
5.95855e-05
5.95874e-05
5.36754e-05
6.60056e-05
5.95853e-05
5.95872e-05
6.59832e-05
5.36392e-05
5.95552e-05
5.95562e-05
5.95535e-05
5.95534e-05
6.59879e-05
6.59838e-05
5.36455e-05
5.95524e-05
5.95542e-05
5.95539e-05
5.95558e-05
6.5988e-05
6.59807e-05
5.36455e-05
5.95511e-05
5.95528e-05
5.95519e-05
5.95533e-05
6.5985e-05
6.59837e-05
5.36426e-05
5.95542e-05
5.95541e-05
6.59883e-05
5.95528e-05
5.95543e-05
6.60095e-05
5.95872e-05
5.95868e-05
5.36755e-05
6.60055e-05
5.95874e-05
5.95875e-05
6.60091e-05
5.95849e-05
5.95873e-05
5.36735e-05
5.95852e-05
6.60052e-05
5.95829e-05
6.60061e-05
5.95828e-05
5.95844e-05
5.3673e-05
5.95834e-05
6.6002e-05
5.95816e-05
3.90137e-05
3.21613e-05
3.21579e-05
3.20385e-05
3.20349e-05
2.3014e-05
2.31613e-05
3.90137e-05
3.21609e-05
3.21599e-05
3.20381e-05
3.20371e-05
2.30143e-05
2.31623e-05
3.90167e-05
3.21631e-05
3.21636e-05
3.204e-05
3.20409e-05
2.30177e-05
2.31655e-05
3.90174e-05
3.21655e-05
3.21635e-05
3.20421e-05
3.2041e-05
2.30187e-05
2.31667e-05
3.22788e-05
3.22776e-05
3.93025e-05
3.23983e-05
3.23972e-05
2.34529e-05
2.33069e-05
3.22811e-05
3.22814e-05
3.93061e-05
3.24005e-05
3.24009e-05
2.3456e-05
2.33101e-05
3.22832e-05
3.22815e-05
3.93067e-05
3.24027e-05
3.24008e-05
2.34571e-05
2.33112e-05
3.93946e-05
3.25136e-05
3.25102e-05
2.3595e-05
3.93938e-05
3.25131e-05
3.25117e-05
2.35954e-05
3.93971e-05
3.25152e-05
3.25155e-05
2.35985e-05
3.93982e-05
3.25174e-05
3.25158e-05
2.35996e-05
5.64582e-05
6.07286e-05
6.24274e-05
5.5194e-05
6.2411e-05
5.51914e-05
5.64511e-05
5.75034e-05
6.04639e-05
6.42658e-05
6.48571e-05
5.75014e-05
6.04699e-05
6.42777e-05
5.64164e-05
6.0722e-05
6.23893e-05
5.51535e-05
5.64233e-05
6.2406e-05
5.51565e-05
5.75325e-05
6.42964e-05
6.48625e-05
6.0494e-05
6.04906e-05
6.4285e-05
5.75343e-05
5.64612e-05
6.07311e-05
5.5187e-05
6.24274e-05
5.52017e-05
6.24153e-05
5.64517e-05
5.75051e-05
6.04641e-05
6.42671e-05
6.48564e-05
5.75036e-05
6.04687e-05
6.42797e-05
5.64169e-05
6.07209e-05
5.51647e-05
6.23936e-05
5.64266e-05
5.51496e-05
6.2406e-05
5.75341e-05
6.42984e-05
6.48614e-05
6.04945e-05
6.04881e-05
6.42862e-05
5.75356e-05
6.6027e-05
5.37362e-05
5.9616e-05
5.96169e-05
5.96172e-05
5.96179e-05
6.60312e-05
6.59384e-05
5.35469e-05
5.94936e-05
5.94933e-05
6.5945e-05
5.9489e-05
5.94891e-05
6.59673e-05
5.3592e-05
5.95216e-05
5.95217e-05
6.59612e-05
5.95255e-05
5.95259e-05
5.74138e-05
6.4223e-05
6.47978e-05
6.03894e-05
6.42118e-05
6.03896e-05
5.74023e-05
5.63464e-05
6.23518e-05
5.50869e-05
6.06748e-05
5.63567e-05
6.23649e-05
5.50728e-05
5.74806e-05
6.04425e-05
6.48318e-05
6.42628e-05
6.04424e-05
6.42524e-05
5.74686e-05
5.74361e-05
6.42326e-05
6.0418e-05
6.48258e-05
6.04182e-05
5.74475e-05
6.42431e-05
5.63936e-05
6.06858e-05
6.23875e-05
5.51127e-05
6.23749e-05
5.51269e-05
5.63832e-05
5.63409e-05
6.23465e-05
5.50848e-05
6.06731e-05
5.63518e-05
6.23597e-05
5.50707e-05
5.7473e-05
6.044e-05
6.48283e-05
6.42547e-05
6.42441e-05
6.04388e-05
5.74613e-05
5.74284e-05
6.4224e-05
6.04137e-05
6.48222e-05
5.744e-05
6.42349e-05
6.04144e-05
5.63887e-05
6.0684e-05
6.23824e-05
5.51106e-05
6.23697e-05
5.51249e-05
5.63779e-05
5.35839e-05
5.95233e-05
5.95214e-05
6.47979e-05
6.03921e-05
6.03874e-05
5.63437e-05
6.23445e-05
5.50735e-05
6.06724e-05
5.63503e-05
6.23626e-05
5.50768e-05
5.74685e-05
6.04445e-05
6.48316e-05
6.42601e-05
6.04396e-05
6.42476e-05
5.74704e-05
5.74379e-05
6.42276e-05
6.0414e-05
6.48262e-05
6.0419e-05
5.74359e-05
6.42405e-05
5.63869e-05
6.06791e-05
6.2385e-05
5.51163e-05
6.23674e-05
5.51132e-05
5.63802e-05
5.63401e-05
5.50721e-05
6.23399e-05
6.06708e-05
5.63472e-05
5.50754e-05
6.23582e-05
5.74699e-05
6.04367e-05
6.48261e-05
6.42507e-05
6.42398e-05
6.04356e-05
5.74595e-05
5.74288e-05
6.42196e-05
6.04082e-05
6.48203e-05
5.7432e-05
6.42313e-05
6.04121e-05
5.63839e-05
6.06774e-05
5.5115e-05
6.23806e-05
5.51119e-05
6.23627e-05
5.63765e-05
5.74698e-05
6.0444e-05
6.48303e-05
6.42585e-05
5.74721e-05
6.04391e-05
6.42465e-05
5.63872e-05
6.06801e-05
6.23841e-05
5.51176e-05
5.63804e-05
6.23671e-05
5.51145e-05
5.74679e-05
6.04423e-05
6.48273e-05
6.42547e-05
6.42423e-05
6.04366e-05
5.74703e-05
5.63869e-05
6.068e-05
5.51174e-05
6.23836e-05
5.51143e-05
6.23662e-05
5.63801e-05
6.59632e-05
5.35841e-05
5.95203e-05
5.95218e-05
5.95197e-05
6.59585e-05
5.95214e-05
5.63447e-05
5.50851e-05
6.23487e-05
6.06718e-05
5.63543e-05
5.50711e-05
6.23617e-05
5.74733e-05
6.04434e-05
6.48293e-05
6.42604e-05
5.74741e-05
6.0439e-05
6.42475e-05
5.74389e-05
6.42281e-05
6.04119e-05
6.48239e-05
5.74409e-05
6.04181e-05
6.42403e-05
5.63911e-05
6.06827e-05
5.51113e-05
6.23841e-05
5.63815e-05
5.51252e-05
6.23716e-05
5.63411e-05
5.50835e-05
6.23443e-05
6.06699e-05
5.63514e-05
5.50695e-05
6.23572e-05
5.74748e-05
6.04421e-05
6.48304e-05
6.42543e-05
6.42436e-05
6.04425e-05
5.74632e-05
5.74302e-05
6.42236e-05
6.04148e-05
6.48243e-05
5.74413e-05
6.42344e-05
6.04148e-05
5.63885e-05
6.06808e-05
5.51093e-05
6.23799e-05
5.51236e-05
6.23674e-05
5.63779e-05
6.59666e-05
5.35871e-05
5.95206e-05
5.95228e-05
5.95231e-05
6.60266e-05
5.37355e-05
5.96174e-05
5.96171e-05
6.60305e-05
5.96178e-05
5.96177e-05
6.60506e-05
5.37651e-05
5.96474e-05
5.96474e-05
6.6047e-05
5.96467e-05
5.96465e-05
5.64644e-05
6.07345e-05
6.24311e-05
5.51888e-05
6.24191e-05
5.52036e-05
5.64539e-05
5.75007e-05
6.04701e-05
6.42721e-05
6.48584e-05
6.42823e-05
5.75126e-05
6.04693e-05
5.64188e-05
6.07243e-05
6.23972e-05
5.51665e-05
6.24096e-05
5.64294e-05
5.51514e-05
5.75437e-05
6.4301e-05
6.48642e-05
6.04943e-05
6.42912e-05
6.04946e-05
5.75316e-05
5.64596e-05
6.07329e-05
6.24262e-05
5.51868e-05
6.2414e-05
5.52015e-05
5.64488e-05
5.74934e-05
6.04643e-05
6.42638e-05
6.48554e-05
5.75053e-05
6.42742e-05
6.04654e-05
5.64137e-05
6.07226e-05
6.23921e-05
5.51644e-05
5.64245e-05
6.24046e-05
5.51493e-05
5.75365e-05
6.42929e-05
6.48609e-05
6.049e-05
6.4283e-05
5.75245e-05
6.04889e-05
5.64877e-05
6.24404e-05
5.52415e-05
6.07713e-05
5.64985e-05
6.24519e-05
5.52266e-05
5.75616e-05
6.43098e-05
6.05184e-05
6.48894e-05
6.0518e-05
5.75739e-05
6.43194e-05
5.64828e-05
6.24354e-05
5.52394e-05
6.07697e-05
5.64937e-05
6.24471e-05
5.52245e-05
5.75558e-05
6.43017e-05
6.05134e-05
6.48865e-05
5.75666e-05
6.43114e-05
6.05141e-05
6.60263e-05
5.37335e-05
5.96129e-05
5.96152e-05
5.96175e-05
5.96152e-05
6.60301e-05
6.605e-05
5.37598e-05
5.96449e-05
5.9647e-05
5.96423e-05
6.60466e-05
5.96445e-05
5.64574e-05
6.07275e-05
6.24282e-05
5.51918e-05
6.24113e-05
5.51895e-05
5.645e-05
5.75022e-05
6.04655e-05
6.4267e-05
6.48587e-05
6.42793e-05
5.75002e-05
6.04703e-05
5.64157e-05
6.07213e-05
6.23896e-05
5.51522e-05
6.2407e-05
5.64226e-05
5.51552e-05
5.75313e-05
6.42978e-05
6.48637e-05
6.04947e-05
6.42859e-05
6.04904e-05
5.75331e-05
5.64545e-05
6.07258e-05
5.51904e-05
6.24235e-05
5.51881e-05
6.24066e-05
5.64461e-05
5.74917e-05
6.0463e-05
6.42595e-05
6.48526e-05
5.75034e-05
6.42699e-05
6.04625e-05
5.6412e-05
6.07197e-05
5.51509e-05
6.23849e-05
5.64198e-05
5.51538e-05
6.24025e-05
5.75343e-05
6.42883e-05
6.48583e-05
6.04882e-05
6.42784e-05
5.75223e-05
6.04884e-05
5.64835e-05
6.24321e-05
5.52255e-05
6.07678e-05
5.64912e-05
6.24488e-05
5.52259e-05
5.7563e-05
6.43043e-05
6.0514e-05
6.48896e-05
6.05194e-05
5.75615e-05
6.4316e-05
5.64793e-05
5.52241e-05
6.24278e-05
6.07659e-05
5.64884e-05
5.52244e-05
6.2443e-05
5.75518e-05
6.42968e-05
6.0512e-05
6.48834e-05
5.7564e-05
6.43064e-05
6.05128e-05
5.64579e-05
6.07284e-05
5.51939e-05
6.24269e-05
5.51912e-05
6.24101e-05
5.64507e-05
5.7502e-05
6.04622e-05
6.42618e-05
6.48546e-05
6.04679e-05
5.74999e-05
6.4274e-05
5.64161e-05
6.07221e-05
5.51535e-05
6.23883e-05
5.51566e-05
5.6423e-05
6.24055e-05
5.75311e-05
6.42926e-05
6.48597e-05
6.0493e-05
6.04876e-05
6.42809e-05
5.75329e-05
5.64849e-05
6.24319e-05
5.52285e-05
6.07686e-05
5.64922e-05
6.24481e-05
5.5231e-05
5.75642e-05
6.43034e-05
6.0514e-05
6.48879e-05
5.75627e-05
6.05181e-05
6.43146e-05
5.64847e-05
5.52283e-05
6.24311e-05
6.07688e-05
5.64919e-05
5.52309e-05
6.24478e-05
5.75631e-05
6.42995e-05
6.05123e-05
6.48858e-05
5.75615e-05
6.43111e-05
6.05175e-05
6.60229e-05
5.37326e-05
5.96111e-05
5.96131e-05
5.96146e-05
5.96129e-05
6.60269e-05
6.60467e-05
5.37586e-05
5.96423e-05
5.96442e-05
5.96401e-05
6.6043e-05
5.96423e-05
5.64591e-05
6.07292e-05
5.51854e-05
6.24234e-05
5.52002e-05
6.24114e-05
5.64486e-05
5.74951e-05
6.04684e-05
6.42634e-05
6.48573e-05
6.0468e-05
5.75069e-05
6.42736e-05
5.64135e-05
6.0719e-05
5.5163e-05
6.23897e-05
5.5148e-05
5.64242e-05
6.24019e-05
5.7538e-05
6.42922e-05
6.4863e-05
6.04939e-05
6.04933e-05
6.42824e-05
5.75261e-05
5.64851e-05
5.52393e-05
6.24363e-05
6.07674e-05
5.64949e-05
5.52242e-05
6.24479e-05
5.75631e-05
6.43046e-05
6.0514e-05
6.48871e-05
5.75633e-05
6.05173e-05
6.43166e-05
5.64823e-05
5.52379e-05
6.24326e-05
6.07657e-05
5.64931e-05
5.52229e-05
6.24442e-05
5.75561e-05
6.4301e-05
6.0517e-05
6.48884e-05
5.75683e-05
6.43107e-05
6.05174e-05
6.60513e-05
5.37612e-05
5.96473e-05
5.96476e-05
6.60475e-05
5.96454e-05
5.96458e-05
3.9575e-05
5.1801e-05
5.18027e-05
5.38602e-05
3.99173e-05
5.19893e-05
5.19905e-05
5.40068e-05
4.0235e-05
5.21595e-05
5.21604e-05
5.41424e-05
4.05291e-05
5.23128e-05
5.23129e-05
5.4266e-05
4.08006e-05
5.24498e-05
5.24495e-05
5.43778e-05
4.10508e-05
5.25716e-05
5.25714e-05
5.44782e-05
4.12811e-05
5.26797e-05
5.268e-05
5.45671e-05
4.14926e-05
5.2775e-05
5.27762e-05
5.46438e-05
4.16864e-05
5.28584e-05
5.28608e-05
5.47103e-05
4.18633e-05
5.29307e-05
5.29346e-05
5.47682e-05
4.20241e-05
5.29923e-05
5.29978e-05
5.48179e-05
4.21692e-05
5.30436e-05
5.30509e-05
5.48591e-05
4.22986e-05
5.30846e-05
5.30934e-05
5.48915e-05
4.2412e-05
5.31153e-05
5.31255e-05
5.49149e-05
4.25094e-05
5.31365e-05
5.3147e-05
5.49346e-05
4.25916e-05
5.31487e-05
5.31584e-05
5.4953e-05
4.26592e-05
5.31513e-05
5.31596e-05
5.4943e-05
4.27125e-05
5.3146e-05
5.31529e-05
5.4947e-05
4.27228e-05
5.31268e-05
5.31319e-05
5.49254e-05
4.44822e-05
5.12631e-05
5.12675e-05
5.4648e-05
5.38067e-05
5.17551e-05
5.175e-05
5.38031e-05
5.1751e-05
5.17493e-05
5.17523e-05
5.17538e-05
5.38017e-05
5.17541e-05
5.17522e-05
5.38027e-05
5.38533e-05
5.39669e-05
5.18043e-05
5.17994e-05
5.19481e-05
5.1943e-05
5.38517e-05
5.39613e-05
5.18002e-05
5.17984e-05
5.19435e-05
5.19411e-05
5.18032e-05
5.19448e-05
5.1947e-05
5.38501e-05
5.39622e-05
5.18016e-05
5.19463e-05
5.19455e-05
5.39587e-05
5.40021e-05
5.41027e-05
5.19931e-05
5.19882e-05
5.21227e-05
5.21181e-05
5.40017e-05
5.41017e-05
5.19883e-05
5.19859e-05
5.21174e-05
5.21147e-05
5.19921e-05
5.21191e-05
5.21218e-05
5.39986e-05
5.40993e-05
5.19906e-05
5.21201e-05
5.21202e-05
5.41022e-05
5.41395e-05
5.42274e-05
5.21636e-05
5.21593e-05
5.22794e-05
5.22755e-05
5.41388e-05
5.42278e-05
5.2158e-05
5.21554e-05
5.22732e-05
5.22708e-05
5.21628e-05
5.22759e-05
5.22789e-05
5.4136e-05
5.42253e-05
5.21612e-05
5.22762e-05
5.22772e-05
5.42289e-05
5.42624e-05
5.43393e-05
5.23167e-05
5.2313e-05
5.24194e-05
5.2416e-05
5.42629e-05
5.43412e-05
5.23102e-05
5.2308e-05
5.24124e-05
5.24105e-05
5.23165e-05
5.24161e-05
5.24197e-05
5.42602e-05
5.43385e-05
5.23147e-05
5.24159e-05
5.24178e-05
5.43432e-05
5.43728e-05
5.44403e-05
5.24535e-05
5.24504e-05
5.25439e-05
5.2541e-05
5.43738e-05
5.44421e-05
5.24463e-05
5.24446e-05
5.25363e-05
5.2535e-05
5.24542e-05
5.25406e-05
5.25451e-05
5.43711e-05
5.44404e-05
5.24522e-05
5.25404e-05
5.2543e-05
5.4446e-05
5.44725e-05
5.45322e-05
5.25753e-05
5.25726e-05
5.26547e-05
5.2652e-05
5.44732e-05
5.4533e-05
5.25676e-05
5.25665e-05
5.26467e-05
5.26459e-05
5.25769e-05
5.26512e-05
5.26565e-05
5.4471e-05
5.45318e-05
5.25747e-05
5.26513e-05
5.26543e-05
5.45377e-05
5.4562e-05
5.46128e-05
5.26836e-05
5.2681e-05
5.27527e-05
5.275e-05
5.45619e-05
5.46126e-05
5.26755e-05
5.2675e-05
5.27446e-05
5.27445e-05
5.26856e-05
5.2749e-05
5.27548e-05
5.45605e-05
5.46118e-05
5.26833e-05
5.27499e-05
5.27524e-05
5.46168e-05
5.464e-05
5.46822e-05
5.27792e-05
5.27765e-05
5.28387e-05
5.28356e-05
5.46392e-05
5.46812e-05
5.27711e-05
5.27713e-05
5.28307e-05
5.28314e-05
5.27814e-05
5.28348e-05
5.28407e-05
5.46385e-05
5.46813e-05
5.2779e-05
5.28367e-05
5.28384e-05
5.46854e-05
5.47073e-05
5.47427e-05
5.2863e-05
5.28597e-05
5.29136e-05
5.29098e-05
5.47059e-05
5.47409e-05
5.28551e-05
5.28561e-05
5.29061e-05
5.29075e-05
5.2865e-05
5.29092e-05
5.29153e-05
5.47062e-05
5.4742e-05
5.28627e-05
5.29126e-05
5.29134e-05
5.47449e-05
5.47659e-05
5.47951e-05
5.29357e-05
5.29318e-05
5.29783e-05
5.29737e-05
5.47639e-05
5.47923e-05
5.29285e-05
5.293e-05
5.29718e-05
5.29734e-05
5.29374e-05
5.29734e-05
5.29795e-05
5.47652e-05
5.47945e-05
5.29355e-05
5.29783e-05
5.2978e-05
5.47963e-05
5.48166e-05
5.48387e-05
5.2998e-05
5.29932e-05
5.30336e-05
5.30281e-05
5.48137e-05
5.48348e-05
5.29918e-05
5.29935e-05
5.3028e-05
5.30297e-05
5.29989e-05
5.30277e-05
5.30339e-05
5.48161e-05
5.48383e-05
5.29977e-05
5.30344e-05
5.30331e-05
5.48392e-05
5.48585e-05
5.48733e-05
5.30503e-05
5.30446e-05
5.30788e-05
5.30724e-05
5.48544e-05
5.48681e-05
5.3045e-05
5.30468e-05
5.30741e-05
5.30758e-05
5.30503e-05
5.30721e-05
5.30781e-05
5.48582e-05
5.48731e-05
5.30497e-05
5.30802e-05
5.3078e-05
5.48732e-05
5.48914e-05
5.4899e-05
5.30925e-05
5.30858e-05
5.31139e-05
5.31065e-05
5.48863e-05
5.48928e-05
5.30881e-05
5.30898e-05
5.31099e-05
5.31116e-05
5.30914e-05
5.31063e-05
5.3112e-05
5.48912e-05
5.48991e-05
5.30916e-05
5.31152e-05
5.31127e-05
5.48983e-05
5.49156e-05
5.49175e-05
5.31242e-05
5.31167e-05
5.31387e-05
5.31307e-05
5.49093e-05
5.49104e-05
5.31207e-05
5.31223e-05
5.31354e-05
5.31369e-05
5.31221e-05
5.31304e-05
5.31357e-05
5.49156e-05
5.49186e-05
5.3123e-05
5.314e-05
5.31369e-05
5.49158e-05
5.49322e-05
5.49331e-05
5.31459e-05
5.31378e-05
5.31537e-05
5.31455e-05
5.49293e-05
5.49247e-05
5.31429e-05
5.31444e-05
5.3151e-05
5.31522e-05
5.31426e-05
5.31449e-05
5.31498e-05
5.49322e-05
5.49327e-05
5.31441e-05
5.31548e-05
5.31514e-05
5.49283e-05
5.49437e-05
5.49377e-05
5.31578e-05
5.31496e-05
5.31584e-05
5.31503e-05
5.49382e-05
5.49312e-05
5.31554e-05
5.31565e-05
5.31562e-05
5.31569e-05
5.31538e-05
5.31497e-05
5.31539e-05
5.49459e-05
5.49332e-05
5.31554e-05
5.31584e-05
5.31553e-05
5.49315e-05
5.49486e-05
5.49328e-05
5.31598e-05
5.31518e-05
5.31536e-05
5.31459e-05
5.49406e-05
5.4927e-05
5.31578e-05
5.31583e-05
5.31518e-05
5.3152e-05
5.31553e-05
5.31457e-05
5.3149e-05
5.49447e-05
5.49311e-05
5.31566e-05
5.31529e-05
5.31499e-05
5.4925e-05
5.49428e-05
5.49205e-05
5.31539e-05