/*--------------------------------*- C++ -*----------------------------------*\
| =========                 |                                                 |
| \\      /  F ield         | OpenFOAM: The Open Source CFD Toolbox           |
|  \\    /   O peration     | Version:  2312                                  |
|   \\  /    A nd           | Website:  www.openfoam.com                      |
|    \\/     M anipulation  |                                                 |
\*---------------------------------------------------------------------------*/
FoamFile
{
    version     2.0;
    format      ascii;
    arch        "LSB;label=32;scalar=64";
    class       volScalarField;
    location    "400";
    object      nut;
}
// * * * * * * * * * * * * * * * * * * * * * * * * * * * * * * * * * * * * * //

dimensions      [0 2 -1 0 0 0 0];

internalField   nonuniform List<scalar> 
43168
(
0.000208412
0.000201543
0.000201548
0.0001826
0.000182485
0.000201218
0.000201199
0.00018246
0.000201225
0.000201196
0.000201224
0.00020121
0.000182454
0.000201229
0.000201221
0.000182454
0.000182602
0.000201537
0.000201518
0.000182609
0.000201543
0.000201515
0.000201528
0.000182604
0.000201538
5.07482e-05
5.0743e-05
0.000207841
0.000207837
0.000207845
0.000207848
9.99867e-05
5.07624e-05
9.99331e-05
5.07691e-05
2.38984e-05
2.39027e-05
9.99807e-05
5.07569e-05
9.99194e-05
5.0763e-05
0.000208409
0.000208417
0.000208419
0.000144582
0.000103699
0.000211393
0.000201878
0.000144391
0.000103775
0.000211831
2.38973e-05
2.39015e-05
0.000144572
0.000211396
0.000103697
0.000201882
0.000144402
0.000211838
0.000103773
7.79453e-05
7.79407e-05
0.000182909
7.7967e-05
7.79626e-05
2.38954e-05
2.38934e-05
0.000182078
7.79196e-05
7.79141e-05
2.39e-05
2.38958e-05
2.3898e-05
2.38937e-05
0.000182086
7.79483e-05
7.79431e-05
7.79259e-05
7.79185e-05
0.000200546
0.000103635
9.98766e-05
5.07585e-05
5.07524e-05
9.99321e-05
9.98735e-05
5.07528e-05
5.07465e-05
9.99292e-05
0.000144217
0.000200876
0.000103708
0.00021098
0.000103632
0.000210526
0.000144394
0.000144212
0.000200857
0.000103687
0.000210972
0.000103609
0.000210519
0.000144389
2.3898e-05
2.38937e-05
0.000182161
7.79285e-05
7.79476e-05
7.7906e-05
2.38993e-05
0.000200553
0.000103624
9.98636e-05
5.07531e-05
5.07469e-05
9.99265e-05
0.00014419
0.000200882
0.000103697
0.000210971
0.000103619
0.000210516
0.000144388
9.98605e-05
5.0749e-05
5.0743e-05
9.99236e-05
0.000144186
0.000200853
0.000210966
0.000103683
0.000210512
0.000103606
0.000144384
0.000103703
0.00021097
0.00014439
5.07542e-05
9.99203e-05
0.000210975
0.000103696
0.000144392
5.07529e-05
9.99265e-05
2.38969e-05
2.38926e-05
0.000182153
7.79299e-05
7.79439e-05
7.79072e-05
7.79212e-05
2.38991e-05
2.38947e-05
0.000144203
0.000200886
0.000210977
0.000103702
0.000210524
0.000103624
0.00014438
0.000144197
0.000200876
0.000210977
0.000103689
0.000210522
0.000103613
0.000144374
9.98597e-05
5.07566e-05
5.07456e-05
9.99167e-05
9.985e-05
5.07489e-05
5.07426e-05
9.99085e-05
0.000182069
7.79388e-05
7.79343e-05
7.79114e-05
2.38979e-05
2.38969e-05
2.38926e-05
2.39004e-05
2.39047e-05
2.38983e-05
2.39026e-05
7.79546e-05
7.79471e-05
0.00018293
7.79761e-05
7.79709e-05
2.3905e-05
2.39029e-05
0.000183027
7.7982e-05
7.79746e-05
9.99836e-05
5.07569e-05
9.99301e-05
5.07634e-05
0.000144587
0.000103707
0.000211399
0.000201872
0.000144416
0.00010378
0.000211842
0.000144582
0.000103684
0.000211391
0.000201852
0.000144411
0.000103759
0.000211834
9.99875e-05
5.07696e-05
9.99845e-05
5.07645e-05
0.000144609
0.000202181
0.000103778
0.000212249
0.000144605
0.000202162
0.000103755
0.000212241
7.79349e-05
7.79517e-05
0.000182907
7.79567e-05
7.79758e-05
2.38996e-05
2.39039e-05
2.3903e-05
0.000183041
7.79627e-05
7.79794e-05
2.39042e-05
0.00014458
0.000103693
0.000211388
0.000201878
0.000144389
0.000103768
0.00021183
9.99773e-05
5.0753e-05
9.99165e-05
5.0759e-05
0.000144576
0.000211384
0.000103681
0.000201847
0.000144386
0.000211825
0.000103753
9.99727e-05
5.07668e-05
0.000144579
0.000202187
0.000103763
0.000212237
9.99696e-05
5.07628e-05
0.000144576
0.000202157
0.000212232
0.000103751
9.99739e-05
5.0758e-05
9.99136e-05
5.07642e-05
0.000144584
0.000211392
0.000103691
0.000201862
0.000144393
0.000211834
0.000103767
9.99799e-05
5.07518e-05
9.99196e-05
5.07622e-05
0.000144583
0.000202187
0.00010377
0.000212241
9.99668e-05
5.07679e-05
0.000144584
0.000202171
0.000212242
0.000103763
9.99729e-05
5.07648e-05
7.79366e-05
7.79502e-05
0.0001829
7.79575e-05
7.79715e-05
2.38994e-05
2.39037e-05
2.39019e-05
0.000183033
7.79639e-05
7.79773e-05
2.3904e-05
0.000144566
0.000211393
0.000103687
0.000201873
0.000144396
0.000211835
0.000103761
9.99699e-05
5.07556e-05
9.99154e-05
5.07665e-05
9.99619e-05
5.07529e-05
9.99062e-05
5.07589e-05
0.000144594
0.00020219
0.000212244
0.000103769
0.000144588
0.000202182
0.000212242
0.000103758
9.99689e-05
5.07655e-05
9.99599e-05
5.07628e-05
2.38982e-05
2.39026e-05
2.38972e-05
2.39015e-05
0.000183047
7.7973e-05
7.79682e-05
2.39029e-05
2.39018e-05
2.03171e-05
7.90936e-05
5.07467e-05
7.90758e-05
2.03192e-05
5.07418e-05
3.6727e-05
9.99605e-05
4.10742e-05
9.45728e-05
4.10739e-05
9.45501e-05
3.67338e-05
2.03249e-05
7.91081e-05
5.07633e-05
2.03228e-05
7.91253e-05
3.67301e-05
9.99596e-05
4.10698e-05
9.45287e-05
3.67234e-05
4.10699e-05
9.45517e-05
2.03247e-05
7.91354e-05
5.07676e-05
7.91185e-05
2.03267e-05
2.39004e-05
2.39007e-05
3.67267e-05
9.99469e-05
9.45685e-05
4.10763e-05
9.4537e-05
4.10703e-05
3.67336e-05
2.03252e-05
7.91023e-05
5.0758e-05
2.03232e-05
7.912e-05
3.673e-05
9.99541e-05
9.45154e-05
4.10659e-05
3.67232e-05
9.45476e-05
4.10722e-05
2.03251e-05
7.913e-05
5.0762e-05
7.91127e-05
2.03271e-05
2.38992e-05
2.38996e-05
8.1523e-05
2.17189e-05
2.17157e-05
2.1717e-05
2.17137e-05
8.15294e-05
0.000105323
0.00012897
4.86698e-05
7.79534e-05
0.000105304
0.000129025
4.86694e-05
0.00010533
0.00012895
4.86552e-05
7.79487e-05
0.000105311
0.000129008
4.86626e-05
8.15204e-05
2.17151e-05
2.17118e-05
8.15141e-05
2.17171e-05
2.17138e-05
0.000105333
4.86741e-05
7.79593e-05
0.000129091
0.000129036
4.86745e-05
0.000105352
0.00010534
4.86673e-05
7.79549e-05
0.000129073
0.000129017
4.86601e-05
0.000105359
2.38934e-05
2.38913e-05
8.14921e-05
2.17118e-05
2.17085e-05
2.17097e-05
2.17064e-05
8.14981e-05
0.000105221
4.86602e-05
7.79109e-05
0.000128831
4.86565e-05
0.000105239
0.000128778
0.000105223
4.86496e-05
7.79038e-05
0.000128812
4.86423e-05
0.000105242
0.000128753
2.38981e-05
2.38977e-05
2.3896e-05
2.38957e-05
8.15076e-05
2.17116e-05
2.17083e-05
8.15014e-05
2.17137e-05
2.17104e-05
0.00010528
0.000128966
7.79401e-05
4.86714e-05
4.86639e-05
0.000128914
0.000105299
0.000105281
0.000128946
7.79328e-05
4.8659e-05
4.86516e-05
0.000128889
0.000105303
0.000105269
4.86593e-05
0.000128848
7.79341e-05
0.000105251
4.86662e-05
0.000128899
0.000105273
4.86467e-05
0.000128822
7.79288e-05
0.000105253
4.86543e-05
0.000128879
8.15104e-05
2.17155e-05
2.17123e-05
2.17135e-05
2.17102e-05
8.15167e-05
3.67227e-05
4.10613e-05
9.44846e-05
9.99041e-05
3.67159e-05
4.10614e-05
9.45085e-05
2.03209e-05
5.07572e-05
7.91148e-05
2.0323e-05
7.90976e-05
2.03211e-05
7.90869e-05
5.07533e-05
2.0319e-05
7.91043e-05
3.67194e-05
9.99054e-05
4.10658e-05
9.45303e-05
3.67265e-05
4.10656e-05
9.45072e-05
3.67173e-05
4.10612e-05
9.44735e-05
9.99012e-05
3.67182e-05
4.10613e-05
9.4497e-05
2.03203e-05
5.07516e-05
7.90933e-05
7.90761e-05
2.03223e-05
2.03204e-05
7.90653e-05
5.07477e-05
2.03184e-05
7.90826e-05
3.67222e-05
9.99023e-05
4.10656e-05
9.45191e-05
4.10655e-05
9.44961e-05
3.6721e-05
2.38961e-05
2.38957e-05
0.000105282
0.000128937
7.79203e-05
4.86548e-05
0.000128883
4.86549e-05
0.000105301
0.000105276
0.000128965
7.79373e-05
4.86698e-05
4.86625e-05
0.00012891
0.000105299
0.000128817
7.79141e-05
0.00012887
8.1505e-05
2.1712e-05
2.17152e-05
2.171e-05
2.17131e-05
8.15121e-05
2.38976e-05
3.67228e-05
9.44719e-05
4.10575e-05
9.98993e-05
3.67162e-05
9.45048e-05
4.10637e-05
2.03213e-05
5.07518e-05
7.91095e-05
2.03233e-05
7.90918e-05
2.03214e-05
7.90809e-05
5.0748e-05
2.03194e-05
7.9099e-05
3.67191e-05
9.9892e-05
9.45261e-05
4.10678e-05
3.67264e-05
9.44941e-05
4.10618e-05
3.67208e-05
4.10573e-05
9.44616e-05
9.9896e-05
3.67141e-05
4.10634e-05
9.44938e-05
2.03202e-05
5.07477e-05
7.9088e-05
7.90703e-05
2.03223e-05
2.03204e-05
7.90595e-05
5.0744e-05
2.03183e-05
7.90774e-05
3.67172e-05
9.98888e-05
4.10677e-05
9.45156e-05
4.10616e-05
9.44837e-05
3.67243e-05
2.03214e-05
5.07532e-05
7.90987e-05
7.90867e-05
2.03235e-05
3.67233e-05
9.9886e-05
9.45143e-05
4.10676e-05
9.44833e-05
4.10614e-05
3.67231e-05
2.03206e-05
5.07471e-05
7.90898e-05
7.90719e-05
2.03226e-05
3.67221e-05
9.98921e-05
4.10683e-05
9.45201e-05
4.10623e-05
9.44884e-05
3.67212e-05
2.38949e-05
2.38946e-05
8.15018e-05
2.17085e-05
2.17117e-05
8.14955e-05
2.17105e-05
2.17137e-05
0.00010528
0.000128932
7.79222e-05
4.86549e-05
0.000128875
4.8655e-05
0.000105298
0.000105277
0.000128961
7.79361e-05
4.86673e-05
4.86675e-05
0.000128905
0.000105295
0.000105269
4.86503e-05
0.000128808
7.79152e-05
0.000128865
0.00010525
4.865e-05
0.000105266
4.86628e-05
0.000128837
7.79295e-05
0.000105247
4.86625e-05
0.000128894
8.15045e-05
2.17124e-05
2.17156e-05
2.17104e-05
2.17136e-05
8.15108e-05
2.38971e-05
2.38968e-05
3.67231e-05
9.4477e-05
4.10569e-05
9.98888e-05
3.67165e-05
9.45008e-05
4.10632e-05
2.03218e-05
5.07508e-05
7.9109e-05
7.90913e-05
2.03238e-05
2.03219e-05
7.90804e-05
5.07516e-05
2.03199e-05
7.90985e-05
3.67196e-05
9.98882e-05
9.45233e-05
4.10674e-05
9.44965e-05
4.10612e-05
3.67267e-05
3.67203e-05
9.44598e-05
4.10597e-05
9.98804e-05
3.67133e-05
9.44848e-05
4.10596e-05
2.03201e-05
5.07476e-05
7.9089e-05
7.90719e-05
2.03222e-05
2.03202e-05
7.90607e-05
5.07437e-05
2.03182e-05
7.90782e-05
3.67165e-05
9.98787e-05
9.45069e-05
4.10638e-05
9.44823e-05
4.10639e-05
3.67239e-05
8.15023e-05
2.17133e-05
2.17101e-05
0.000105276
0.000128959
7.7931e-05
4.86648e-05
0.000105294
0.000128903
4.8665e-05
0.000105283
0.000128941
7.79263e-05
4.86571e-05
0.000105301
0.000128883
4.86513e-05
0.000105265
7.79245e-05
0.000128892
4.86602e-05
0.000105271
0.000128815
7.79195e-05
0.000128873
4.8651e-05
8.1505e-05
2.17152e-05
2.1712e-05
8.15113e-05
2.17132e-05
2.17099e-05
2.38959e-05
2.38956e-05
2.38949e-05
2.38945e-05
2.39024e-05
2.39027e-05
2.39003e-05
2.39006e-05
8.15278e-05
2.17193e-05
2.1716e-05
2.17173e-05
2.1714e-05
8.15342e-05
0.000105327
0.000128982
4.86687e-05
7.79628e-05
0.00010531
4.86762e-05
0.000129033
0.000105332
0.000128955
4.86561e-05
7.79573e-05
0.000105309
4.86636e-05
0.000129013
8.15256e-05
2.17154e-05
2.17121e-05
8.15192e-05
2.17174e-05
2.17141e-05
0.000105338
4.86807e-05
7.79685e-05
0.000129097
4.86733e-05
0.000105356
0.000129047
0.000105338
4.86682e-05
7.79609e-05
0.000129077
4.86607e-05
0.00010536
0.000129021
2.3907e-05
2.39049e-05
8.15426e-05
2.17191e-05
2.17159e-05
8.15362e-05
2.17211e-05
2.17179e-05
0.000105383
4.86781e-05
0.000129112
7.79898e-05
0.000105365
4.8685e-05
0.000129161
0.000105388
4.86654e-05
0.000129085
7.79844e-05
0.000105365
4.86728e-05
0.00012914
3.67294e-05
9.99575e-05
4.1074e-05
9.45618e-05
4.10738e-05
9.45396e-05
3.67283e-05
2.03242e-05
7.90869e-05
5.07578e-05
2.03222e-05
7.9104e-05
3.67248e-05
9.99567e-05
4.10697e-05
9.45181e-05
4.10698e-05
3.67257e-05
9.45405e-05
2.03241e-05
7.9114e-05
5.0762e-05
7.90974e-05
2.03261e-05
3.67374e-05
4.10783e-05
9.45709e-05
0.000100013
3.67306e-05
4.10783e-05
9.45928e-05
2.03286e-05
7.91284e-05
5.07753e-05
2.03266e-05
7.91453e-05
3.6732e-05
4.10783e-05
9.45607e-05
0.00010001
3.6733e-05
4.10782e-05
9.45822e-05
2.0328e-05
7.91074e-05
5.07695e-05
2.0326e-05
7.91243e-05
8.15233e-05
2.1716e-05
2.17191e-05
2.1714e-05
2.17171e-05
8.153e-05
0.000105329
0.00012895
4.86599e-05
7.79431e-05
4.86594e-05
0.000105311
0.000129003
0.000105329
0.000128977
4.86671e-05
7.7962e-05
0.000129032
0.000105306
4.86749e-05
8.15211e-05
2.17121e-05
2.17152e-05
2.17141e-05
8.15142e-05
2.17172e-05
0.000105339
4.86642e-05
7.79489e-05
0.000129067
4.86645e-05
0.000129015
0.000105357
0.000105334
4.86794e-05
7.79657e-05
0.000129096
0.000129043
4.8672e-05
0.000105357
2.39016e-05
2.39019e-05
2.3905e-05
8.15387e-05
2.17158e-05
2.17189e-05
8.15321e-05
2.17178e-05
2.17209e-05
0.000105384
4.86688e-05
0.000129079
7.79707e-05
0.000129131
0.000105367
4.86691e-05
0.000105384
4.86767e-05
0.000129106
7.79893e-05
0.000105362
4.86841e-05
0.000129159
2.39062e-05
3.67247e-05
9.99436e-05
4.10758e-05
9.45573e-05
4.10702e-05
9.45268e-05
3.67316e-05
2.03242e-05
7.9081e-05
5.0754e-05
2.03221e-05
7.90984e-05
3.67278e-05
9.99508e-05
4.10657e-05
9.45053e-05
4.1072e-05
3.67211e-05
9.45369e-05
2.0324e-05
7.91083e-05
5.07579e-05
7.90913e-05
2.03261e-05
3.67372e-05
9.45571e-05
4.10745e-05
0.000100006
3.67303e-05
9.45884e-05
4.10801e-05
2.0329e-05
7.91226e-05
5.07679e-05
2.0327e-05
7.914e-05
3.67337e-05
4.10759e-05
9.45474e-05
0.000100003
3.67291e-05
4.10785e-05
9.45758e-05
2.0328e-05
7.91013e-05
5.07639e-05
2.03259e-05
7.91182e-05
3.67299e-05
9.99406e-05
9.45565e-05
4.1076e-05
9.45264e-05
4.10698e-05
3.67297e-05
2.03254e-05
7.90972e-05
5.07592e-05
7.91092e-05
2.03233e-05
3.67255e-05
9.99474e-05
9.45051e-05
4.10654e-05
9.45358e-05
3.67264e-05
4.10718e-05
2.03252e-05
7.91192e-05
5.07631e-05
7.91074e-05
2.03273e-05
3.67273e-05
9.99467e-05
4.10767e-05
9.45621e-05
4.10707e-05
9.45311e-05
3.67305e-05
2.03245e-05
7.90824e-05
5.0758e-05
2.03225e-05
7.91003e-05
3.67254e-05
9.99534e-05
4.10664e-05
9.45099e-05
3.67256e-05
4.10725e-05
9.45411e-05
2.03244e-05
7.91103e-05
5.07567e-05
7.90927e-05
2.03264e-05
3.67345e-05
9.45468e-05
4.10738e-05
0.0001
3.67326e-05
9.45768e-05
4.10802e-05
2.03292e-05
7.91174e-05
5.07691e-05
2.03271e-05
7.91291e-05
3.67354e-05
4.10748e-05
9.45515e-05
0.000100006
3.67295e-05
4.10809e-05
9.45825e-05
2.03283e-05
7.91028e-05
5.07657e-05
2.03262e-05
7.91204e-05
8.15219e-05
2.17161e-05
2.17193e-05
2.17141e-05
2.17173e-05
8.15281e-05
0.000105326
0.000128943
4.86597e-05
7.79441e-05
4.86602e-05
0.000105309
0.000128998
0.000105323
0.000128972
4.86722e-05
7.79583e-05
0.000129027
0.000105305
4.86718e-05
8.15195e-05
2.17122e-05
2.17155e-05
2.17142e-05
8.15133e-05
2.17175e-05
0.000105337
4.86668e-05
7.79503e-05
0.000129061
4.86613e-05
0.000129008
0.000105355
0.000105334
4.86764e-05
7.79638e-05
0.000129091
0.000129037
4.86767e-05
0.000105352
2.39014e-05
2.39017e-05
2.39038e-05
8.15365e-05
2.1716e-05
2.17192e-05
8.15303e-05
2.1718e-05
2.17212e-05
0.000105382
4.86649e-05
0.000129071
7.79712e-05
0.000129124
0.000105364
4.86722e-05
0.000105379
4.86813e-05
0.000129101
7.79851e-05
0.000105361
4.86809e-05
0.000129154
2.3906e-05
3.67269e-05
9.99422e-05
9.45661e-05
4.10754e-05
9.45362e-05
4.10698e-05
3.6734e-05
2.03257e-05
7.91017e-05
5.07616e-05
7.91194e-05
2.03237e-05
3.67301e-05
9.99436e-05
9.45157e-05
4.10653e-05
9.45448e-05
3.67234e-05
4.10718e-05
2.03256e-05
7.91292e-05
5.07607e-05
7.91119e-05
2.03276e-05
3.6724e-05
9.99331e-05
9.4549e-05
4.10722e-05
9.45251e-05
4.10723e-05
3.67313e-05
2.03241e-05
7.90827e-05
5.0754e-05
2.0322e-05
7.90994e-05
3.67274e-05
9.99355e-05
9.45038e-05
4.10681e-05
3.67204e-05
9.45281e-05
4.1068e-05
2.03239e-05
7.91093e-05
5.07578e-05
7.90933e-05
2.0326e-05
3.67375e-05
9.45565e-05
4.1076e-05
9.99958e-05
3.67307e-05
9.45867e-05
4.1078e-05
2.03295e-05
7.91217e-05
5.07716e-05
2.03275e-05
7.91391e-05
3.67348e-05
9.4546e-05
4.10767e-05
9.99882e-05
3.67277e-05
9.45693e-05
4.10764e-05
2.03278e-05
7.91035e-05
5.07638e-05
2.03258e-05
7.91194e-05
2.39003e-05
2.39005e-05
2.38992e-05
2.38995e-05
8.1538e-05
2.17188e-05
2.17156e-05
8.15317e-05
2.17208e-05
2.17176e-05
0.000105379
4.86791e-05
0.000129101
7.79809e-05
0.00010536
0.000129155
4.86786e-05
0.000105386
4.86647e-05
0.000129081
7.79769e-05
0.000105367
0.000129137
4.8672e-05
2.39048e-05
2.39038e-05
0.000206628
0.000205564
0.00020556
0.000209029
0.000206359
0.000206354
0.00019743
0.000196427
0.000138612
0.000162207
0.000162198
0.000182684
0.000138577
0.000162266
0.000162257
0.0001385
0.000182328
0.000162125
0.000162115
0.000162056
0.000162039
0.000138537
0.0001385
0.000182382
0.000162102
0.000162119
0.00016205
0.000162067
0.000138536
0.000138495
0.000182376
0.000162097
0.000162116
0.000162042
0.000162058
0.00013853
0.000138497
0.000182345
0.000162118
0.000162099
0.000138532
0.000162051
0.000162039
0.000138617
0.000162219
0.000162199
0.000182694
0.000138583
0.000162279
0.000162264
0.000138614
0.000162196
0.000162217
0.000182685
0.000162266
0.00013858
0.000162246
0.000138608
0.000162189
0.000162207
0.00018268
0.000162262
0.000138574
0.000162243
0.000207215
0.000204822
0.000204817
0.000204017
0.000204011
0.000194417
0.000195431
0.000207216
0.000204823
0.000204826
0.000204017
0.000204019
0.000194409
0.000195446
0.000207219
0.000204827
0.000204835
0.000204019
0.000204027
0.000194417
0.000195453
0.000207221
0.000204835
0.000204836
0.000204026
0.000204029
0.000194417
0.000195457
0.000205563
0.000205563
0.000209023
0.000206359
0.000206358
0.000197449
0.00019642
0.000205566
0.000205573
0.000209029
0.000206361
0.000206368
0.000197455
0.000196427
0.000205573
0.000205575
0.000209032
0.000206368
0.000206369
0.00019746
0.000196427
0.000209584
0.000207085
0.00020708
0.000198423
0.000209582
0.000207085
0.000207084
0.000198413
0.000209588
0.000207087
0.000207094
0.000198419
0.000209591
0.000207094
0.000207096
0.00019842
0.000171972
0.000144489
0.000137974
0.000177404
0.000137883
0.000177267
0.000172154
0.000161308
0.000147885
0.000122904
0.00010374
0.000161125
0.000147953
0.000122968
0.000171972
0.000144487
0.000137802
0.000177067
0.000171788
0.000137891
0.000177203
0.000161267
0.000123026
0.000103736
0.000148059
0.000148003
0.000122964
0.000161452
0.000172026
0.000144498
0.000177339
0.000137964
0.000177334
0.0001379
0.000172099
0.000161309
0.000147889
0.000122908
0.000103738
0.000161141
0.000147949
0.000122972
0.000171917
0.000144476
0.00017714
0.000137817
0.000171847
0.000177142
0.000137884
0.00016128
0.000123031
0.000103733
0.000148063
0.000147993
0.000122967
0.000161453
0.000138657
0.000182831
0.000162413
0.000162399
0.000162359
0.000162344
0.000138691
0.000138336
0.000181862
0.000161837
0.00016182
0.00013838
0.000161753
0.000161737
0.000138462
0.000182281
0.000161906
0.000161889
0.000138419
0.000161986
0.000161972
0.000160768
0.000122794
0.000103594
0.000147603
0.000122736
0.000147568
0.00016079
0.000171552
0.000137659
0.000176736
0.000144295
0.000171488
0.000137729
0.000176748
0.000161071
0.00014783
0.00010367
0.000122915
0.000147793
0.00012286
0.000161095
0.000160945
0.000122799
0.00014769
0.000103672
0.000147727
0.00016092
0.000122855
0.000171679
0.000144317
0.000137813
0.000176952
0.000137745
0.000176943
0.000171741
0.00017153
0.000137644
0.000176729
0.00014429
0.000171469
0.000137714
0.00017674
0.000161039
0.000147804
0.000103646
0.000122897
0.000122841
0.000147762
0.000161065
0.000160912
0.00012278
0.000147655
0.000103651
0.000160888
0.000122836
0.000147695
0.000171659
0.000144313
0.000137798
0.000176945
0.000137731
0.000176936
0.000171721
0.000182237
0.000161905
0.000161956
0.000103581
0.000147598
0.000147539
0.000171596
0.000137631
0.000176651
0.00014429
0.000171402
0.000137725
0.000176788
0.000160973
0.000147822
0.000103656
0.000122908
0.000147761
0.000122842
0.000161143
0.000160995
0.00012278
0.000147652
0.00010366
0.000147713
0.000160817
0.000122847
0.000171588
0.000144291
0.000137809
0.000176996
0.000137717
0.000176858
0.00017178
0.000171585
0.000176647
0.000137621
0.000144286
0.000171383
0.000176785
0.000137714
0.000160997
0.000147792
0.000103643
0.000122888
0.000122832
0.000147751
0.000161068
0.000160959
0.000122768
0.000147632
0.000103646
0.000160802
0.000122829
0.000147687
0.000171582
0.000144287
0.000176992
0.000137798
0.000176855
0.000137707
0.000171764
0.000160984
0.000147839
0.000103663
0.000122908
0.000161158
0.000147778
0.000122845
0.000171602
0.000144293
0.000137808
0.000176999
0.000171776
0.000137718
0.000176861
0.000160978
0.000147832
0.000103655
0.000122906
0.000122841
0.000147768
0.000161147
0.000171604
0.000144295
0.000177
0.000137809
0.000176863
0.000137718
0.000171776
0.000138449
0.000182229
0.000161893
0.000161909
0.000161949
0.000138413
0.000161967
0.000171547
0.000176726
0.000137649
0.00014428
0.000171479
0.000176732
0.000137718
0.000161044
0.000147839
0.000103661
0.000122912
0.00016117
0.00014778
0.000122847
0.000160961
0.000122788
0.000147663
0.000103665
0.000160886
0.000147729
0.00012285
0.000171671
0.000144303
0.000176942
0.000137802
0.000171736
0.000176933
0.000137734
0.000171536
0.00017672
0.000137635
0.000144275
0.000171473
0.000176728
0.000137705
0.000161048
0.000147806
0.00010365
0.000122894
0.000122839
0.000147772
0.000161075
0.00016092
0.000122778
0.000147652
0.000103652
0.000160893
0.000122834
0.000147688
0.000171664
0.000144298
0.000176935
0.000137789
0.000176928
0.000137721
0.000171725
0.000138452
0.000182241
0.000161879
0.000161971
0.000161952
0.000138662
0.000182835
0.000162424
0.000162407
0.000138696
0.000162366
0.000162349
0.000138772
0.000183163
0.000162509
0.000162493
0.000138739
0.000162566
0.000162549
0.000172046
0.000144513
0.000137976
0.000177352
0.000137912
0.000177345
0.00017211
0.000161246
0.000147913
0.000122921
0.000103746
0.000122976
0.000161219
0.000147947
0.000171927
0.000144492
0.000137829
0.00017715
0.000137896
0.000171863
0.000177155
0.000161364
0.000123033
0.000103743
0.000148057
0.00012298
0.00014802
0.000161388
0.000172026
0.000144508
0.000137962
0.000177346
0.000137898
0.000177338
0.000172091
0.000161217
0.000147871
0.000122903
0.000103725
0.000161191
0.000122957
0.000147914
0.000171909
0.000144487
0.000137815
0.000177143
0.000171843
0.000137882
0.000177147
0.000161337
0.000123015
0.00010372
0.000148022
0.000122962
0.000161361
0.000147978
0.000172293
0.000137993
0.000177548
0.000144682
0.000172225
0.000138054
0.000177554
0.00016153
0.000123038
0.000148125
0.000103816
0.000148162
0.000161504
0.000123091
0.000172275
0.00013798
0.000177541
0.000144677
0.000172206
0.000138041
0.000177547
0.00016151
0.00012302
0.000148086
0.000103795
0.000161476
0.000123073
0.000148128
0.000138658
0.000182827
0.00016239
0.000162411
0.000162362
0.000162341
0.000138692
0.000138767
0.000183131
0.000162485
0.000162505
0.000162533
0.000138734
0.000162553
0.000171965
0.000144486
0.000137974
0.000177393
0.000137881
0.00017726
0.000172147
0.000161299
0.000147873
0.000122902
0.000103734
0.000122967
0.000161123
0.000147935
0.000171965
0.000144485
0.000137801
0.000177063
0.000137893
0.000171784
0.000177199
0.000161262
0.000123025
0.000103729
0.000148042
0.000122961
0.000147983
0.000161439
0.000171963
0.000144482
0.00017739
0.000137962
0.000177257
0.000137873
0.000172131
0.000161215
0.000147871
0.000122893
0.000103719
0.000161188
0.000122947
0.000147905
0.000171951
0.000144481
0.00017706
0.000137791
0.00017178
0.000177196
0.000137882
0.000161332
0.000123005
0.000103716
0.000148018
0.000122952
0.000161358
0.000147982
0.00017233
0.000137958
0.000177451
0.000144674
0.000172145
0.000138055
0.000177574
0.000161583
0.000123019
0.000148087
0.000103803
0.000148152
0.000161404
0.000123082
0.000172313
0.000177448
0.000137954
0.00014467
0.000172144
0.000177569
0.000138037
0.000161499
0.00012301
0.000148086
0.000103788
0.000161473
0.000123062
0.000148128
0.00017198
0.00014449
0.000177403
0.000137974
0.000177269
0.000137883
0.000172154
0.000161305
0.000147878
0.000122901
0.000103733
0.000147943
0.000161132
0.000122965
0.000171976
0.000144489
0.000177069
0.000137801
0.000177205
0.000171796
0.000137892
0.000161273
0.000123023
0.000103727
0.000148054
0.000147989
0.00012296
0.000161444
0.000172342
0.000137961
0.000177463
0.000144676
0.000172156
0.000138054
0.000177605
0.000161596
0.000123022
0.000148106
0.00010381
0.000161414
0.000148166
0.000123083
0.000172341
0.000177467
0.000137961
0.000144678
0.000172158
0.000177603
0.000138055
0.000161588
0.000123018
0.000148098
0.000103803
0.000161415
0.000123081
0.000148162
0.000138652
0.000182821
0.000162386
0.000162405
0.000162352
0.000162334
0.000138685
0.00013876
0.000183123
0.000162477
0.000162496
0.000162527
0.000138727
0.000162548
0.000172026
0.000144492
0.000177336
0.000137952
0.00017733
0.000137887
0.00017209
0.000161226
0.000147884
0.0001229
0.000103726
0.000147919
0.0001612
0.000122955
0.000171908
0.000144471
0.000177135
0.000137805
0.000177138
0.000171845
0.000137872
0.000161345
0.000123012
0.000103723
0.000148033
0.000147992
0.000122959
0.000161369
0.000172282
0.000177537
0.000137981
0.000144665
0.000172207
0.000177538
0.000138042
0.000161581
0.000123025
0.000148109
0.000103808
0.000161419
0.000148164
0.000123087
0.000172272
0.000177532
0.000137969
0.00014466
0.000172204
0.000177537
0.00013803
0.00016151
0.000123017
0.000148096
0.000103796
0.000161486
0.00012307
0.000148137
0.000138767
0.000183123
0.000162504
0.000162487
0.000138733
0.000162555
0.000162539
0.000210723
0.000202808
0.000202809
0.000183471
0.00021294
0.000204003
0.000204004
0.000184241
0.000215054
0.00020513
0.00020513
0.00018498
0.000217068
0.00020619
0.000206187
0.000185679
0.000218982
0.000207183
0.000207178
0.000186336
0.000220799
0.00020811
0.000208105
0.00018694
0.000222521
0.000208975
0.000208971
0.000187497
0.000224151
0.000209773
0.00020977
0.000187997
0.000225693
0.000210511
0.000210508
0.000188453
0.000227144
0.000211191
0.00021119
0.000188869
0.000228506
0.000211812
0.000211815
0.000189246
0.000229781
0.000212377
0.000212385
0.000189582
0.000230965
0.000212885
0.0002129
0.000189877
0.000232056
0.000213338
0.000213361
0.000190132
0.000233059
0.000213741
0.000213767
0.00019038
0.000233968
0.000214095
0.000214121
0.000190634
0.000234777
0.00021439
0.000214416
0.000190707
0.000235491
0.000214637
0.000214661
0.000190897
0.000236148
0.000215022
0.000215038
0.000190992
0.0002359
0.000215657
0.000215684
0.000195618
0.00018338
0.000202507
0.000202487
0.000183361
0.000202513
0.000202481
0.000202513
0.000202497
0.000183353
0.000202516
0.000202508
0.000183339
0.000183436
0.000184239
0.000202805
0.000202786
0.000203719
0.000203697
0.00018343
0.000184206
0.000202811
0.00020278
0.000203723
0.000203689
0.000202797
0.000203725
0.000203709
0.000183422
0.000184217
0.000202808
0.000203727
0.00020372
0.000184164
0.000184221
0.000184977
0.000204003
0.000203983
0.000204862
0.000204842
0.000184223
0.000184971
0.000204007
0.000203973
0.000204865
0.00020483
0.000203994
0.000204867
0.000204852
0.000184207
0.000184962
0.000204006
0.000204868
0.000204864
0.000184951
0.000184976
0.000185691
0.000205131
0.000205113
0.000205934
0.000205917
0.000184972
0.000185688
0.000205133
0.000205099
0.000205935
0.000205901
0.000205122
0.000205939
0.000205925
0.00018496
0.00018568
0.000205134
0.000205937
0.000205936
0.000185658
0.000185663
0.000186347
0.00020619
0.000206175
0.000206934
0.000206919
0.000185663
0.000186366
0.000206191
0.000206158
0.000206934
0.000206901
0.000206183
0.00020694
0.000206927
0.000185653
0.000186357
0.000206194
0.000206936
0.000206939
0.000186314
0.00018632
0.000186933
0.000207184
0.00020717
0.000207869
0.000207855
0.000186294
0.000186972
0.000207183
0.000207151
0.000207867
0.000207835
0.000207179
0.000207874
0.000207863
0.000186284
0.000186969
0.00020719
0.000207869
0.000207875
0.000186933
0.000186939
0.000187509
0.000208113
0.0002081
0.000208743
0.00020873
0.000186902
0.000187544
0.00020811
0.000208079
0.00020874
0.000208709
0.000208109
0.000208746
0.000208739
0.000186891
0.000187538
0.00020812
0.000208741
0.00020875
0.000187507
0.0001875
0.000188031
0.000208976
0.000208965
0.000209556
0.000209544
0.000187458
0.000188062
0.000208973
0.000208944
0.000209553
0.000209523
0.000208974
0.000209555
0.000209551
0.000187451
0.000188054
0.000208984
0.000209552
0.000209563
0.000188021
0.000188007
0.0001885
0.000209778
0.000209767
0.000210308
0.000210293
0.000187965
0.00018853
0.000209774
0.000209745
0.000210304
0.000210272
0.000209774
0.000210306
0.000210301
0.000187955
0.000188521
0.000209784
0.000210303
0.000210313
0.000188488
0.000188463
0.000188971
0.000210518
0.000210504
0.000210999
0.000210987
0.000188422
0.000188957
0.000210515
0.000210485
0.000210999
0.00021097
0.000210513
0.000210998
0.000210995
0.000188413
0.000188948
0.000210523
0.000210997
0.000211008
0.000188914
0.000188844
0.000189354
0.000211199
0.000211185
0.000211637
0.000211623
0.000188839
0.000189345
0.000211197
0.00021117
0.000211638
0.000211611
0.000211193
0.000211634
0.000211634
0.000188831
0.000189337
0.000211206
0.000211635
0.000211646
0.000189301
0.000189226
0.000189701
0.000211822
0.000211806
0.000212225
0.000212209
0.000189217
0.00018969
0.000211825
0.000211795
0.000212228
0.000212199
0.000211816
0.00021222
0.000212221
0.00018921
0.000189684
0.00021183
0.000212224
0.000212233
0.000189647
0.000189563
0.000190005
0.000212389
0.000212373
0.00021276
0.000212742
0.000189552
0.000189963
0.000212396
0.000212368
0.000212763
0.000212736
0.000212383
0.000212755
0.000212753
0.000189548
0.000189992
0.000212397
0.000212759
0.000212768
0.000189952
0.00018986
0.000190237
0.000212903
0.000212883
0.000213239
0.00021322
0.000189889
0.000190218
0.000212912
0.000212885
0.000213245
0.000213219
0.000212894
0.000213234
0.000213231
0.000189846
0.00019026
0.000212911
0.000213238
0.000213247
0.000190216
0.000190152
0.000190479
0.000213362
0.000213338
0.000213663
0.00021364
0.00019013
0.000190449
0.000213374
0.000213345
0.000213674
0.000213651
0.000213349
0.000213658
0.000213651
0.000190105
0.000190478
0.000213367
0.000213666
0.000213671
0.000190447
0.000190332
0.00019074
0.000213768
0.000213743
0.000214037
0.00021401
0.00019038
0.000190671
0.000213781
0.000213751
0.000214051
0.000214027
0.000213751
0.000214029
0.000214018
0.000190374
0.000190688
0.000213769
0.000214042
0.000214044
0.000190658
0.000190547
0.000190911
0.000214122
0.000214094
0.000214351
0.000214322
0.000190565
0.000190889
0.000214137
0.000214106
0.000214368
0.000214337
0.000214102
0.000214343
0.000214327
0.000190569
0.000190877
0.000214116
0.000214354
0.000214349
0.00019082
0.00019072
0.000190995
0.000214418
0.000214389
0.000214612
0.000214579
0.000190691
0.000191017
0.000214435
0.000214404
0.000214629
0.000214596
0.000214392
0.000214603
0.000214583
0.000190692
0.000191024
0.000214411
0.00021461
0.000214601
0.000190927
0.000190877
0.000191107