/*--------------------------------*- C++ -*----------------------------------*\
| =========                 |                                                 |
| \\      /  F ield         | OpenFOAM: The Open Source CFD Toolbox           |
|  \\    /   O peration     | Version:  2312                                  |
|   \\  /    A nd           | Website:  www.openfoam.com                      |
|    \\/     M anipulation  |                                                 |
\*---------------------------------------------------------------------------*/
FoamFile
{
    version     2.0;
    format      ascii;
    arch        "LSB;label=32;scalar=64";
    class       volVectorField;
    location    "400";
    object      U;
}
// * * * * * * * * * * * * * * * * * * * * * * * * * * * * * * * * * * * * * //

dimensions      [0 1 -1 0 0 0 0];

internalField   nonuniform List<vector> 
43168
(
(-1.04319e-05 -1.03766e-05 0.11244)
(1.16678e-05 -6.3451e-06 0.107481)
(-6.38986e-06 1.16308e-05 0.10748)
(-2.35089e-05 -2.34747e-05 0.104203)
(-4.17905e-05 -4.17072e-05 0.104317)
(-6.33745e-06 -1.15556e-05 0.10748)
(6.32156e-06 -1.15766e-05 0.10748)
(4.17782e-05 -4.17404e-05 0.104318)
(-1.16305e-05 -6.28638e-06 0.107482)
(-1.15852e-05 6.31152e-06 0.107479)
(1.16277e-05 -6.31461e-06 0.107483)
(1.15866e-05 6.30042e-06 0.10748)
(-4.17658e-05 4.17425e-05 0.104316)
(-6.35515e-06 1.16009e-05 0.107482)
(6.31232e-06 1.16112e-05 0.107481)
(4.17288e-05 4.17597e-05 0.104316)
(2.34407e-05 2.35425e-05 0.104203)
(-6.36901e-06 -1.15844e-05 0.107478)
(6.35173e-06 -1.16134e-05 0.107478)
(-2.34671e-05 2.34672e-05 0.104204)
(-1.16669e-05 -6.30923e-06 0.10748)
(-1.16194e-05 6.34212e-06 0.107477)
(1.16216e-05 6.33758e-06 0.107478)
(2.34624e-05 -2.35189e-05 0.104203)
(6.33674e-06 1.16512e-05 0.107479)
(-1.3096e-06 -1.20952e-05 0.0822901)
(-1.21746e-05 -1.15078e-06 0.0822906)
(-1.03555e-05 -1.03052e-05 0.112449)
(1.03616e-05 -1.03006e-05 0.112449)
(-1.03423e-05 1.03398e-05 0.112448)
(1.03353e-05 1.03079e-05 0.112448)
(-3.74605e-07 -1.67553e-05 0.0914607)
(4.6066e-07 7.14058e-06 0.0822649)
(-3.25205e-07 4.77202e-06 0.0914093)
(-1.36406e-06 -1.20191e-05 0.0823247)
(-2.43662e-06 4.27601e-06 0.0715768)
(3.37094e-06 -5.81152e-06 0.071642)
(-1.67744e-05 -2.05807e-07 0.091461)
(7.02783e-06 6.74638e-07 0.0822656)
(4.77747e-06 -1.85887e-07 0.0914094)
(-1.2144e-05 -1.15428e-06 0.0823253)
(1.04353e-05 -1.03965e-05 0.11244)
(-1.04265e-05 1.04196e-05 0.112439)
(1.04159e-05 1.04003e-05 0.112439)
(2.75245e-05 -6.58202e-07 0.0986025)
(-8.5546e-06 3.004e-06 0.0930361)
(1.48901e-05 -2.69453e-06 0.109891)
(1.16987e-05 -6.37143e-06 0.107478)
(-7.64146e-06 -4.47916e-07 0.0985414)
(2.0591e-05 -7.87208e-06 0.0931003)
(1.49759e-05 -2.71798e-06 0.109886)
(4.3061e-06 -2.50571e-06 0.0715787)
(-5.83248e-06 3.42476e-06 0.0716395)
(-8.20709e-07 2.75133e-05 0.0986017)
(-2.73731e-06 1.4879e-05 0.10989)
(2.88597e-06 -8.59953e-06 0.0930358)
(-6.42118e-06 1.16634e-05 0.107477)
(-5.02736e-07 -7.67418e-06 0.0985405)
(-2.75952e-06 1.49578e-05 0.109885)
(-7.96184e-06 2.05289e-05 0.0930991)
(-3.5087e-06 -3.29713e-06 0.0875867)
(-3.40746e-06 -3.43787e-06 0.0875856)
(4.16691e-05 4.17168e-05 0.104318)
(9.92276e-06 7.10143e-06 0.0876446)
(6.9869e-06 9.99336e-06 0.0876428)
(-3.44615e-06 -5.8701e-06 0.0716085)
(-5.93976e-06 -3.28553e-06 0.0716082)
(-4.18279e-05 -4.17628e-05 0.104316)
(-7.07776e-06 -9.93669e-06 0.087612)
(-1.00696e-05 -6.92795e-06 0.0876098)
(-3.48505e-06 -5.83619e-06 0.0716242)
(2.41572e-06 4.37549e-06 0.0715623)
(-5.92275e-06 -3.29538e-06 0.0716239)
(4.26125e-06 2.61577e-06 0.0715625)
(2.35146e-05 2.35933e-05 0.104202)
(-7.10634e-06 -9.89804e-06 0.0876283)
(-1.00546e-05 -6.92648e-06 0.0876263)
(3.2527e-06 3.51191e-06 0.0875697)
(3.42337e-06 3.45859e-06 0.0875686)
(-6.26468e-06 -1.14827e-05 0.107485)
(-7.94018e-06 -2.05476e-05 0.0930693)
(-3.13559e-07 4.78793e-06 0.0913933)
(-1.34029e-06 -1.20631e-05 0.0823074)
(4.94369e-07 7.12462e-06 0.0822476)
(-3.62265e-07 -1.67714e-05 0.0914448)
(2.38666e-07 4.78474e-06 0.0913935)
(1.21572e-06 -1.20942e-05 0.0823087)
(-5.3846e-07 7.05418e-06 0.0822473)
(2.73905e-07 -1.67802e-05 0.0914449)
(-4.82229e-07 7.74283e-06 0.0985296)
(-6.29405e-06 -1.15163e-05 0.107483)
(-7.96187e-06 -2.05283e-05 0.093084)
(-2.70165e-06 -1.47788e-05 0.109895)
(2.9103e-06 8.60717e-06 0.09302)
(-2.67638e-06 -1.46878e-05 0.1099)
(-7.58489e-07 -2.7542e-05 0.0985908)
(4.28871e-07 7.74237e-06 0.0985298)
(6.28373e-06 -1.14871e-05 0.107483)
(7.86104e-06 -2.05593e-05 0.0930847)
(2.69154e-06 -1.47878e-05 0.109895)
(-2.95032e-06 8.56752e-06 0.0930198)
(2.68731e-06 -1.46907e-05 0.1099)
(6.87968e-07 -2.75533e-05 0.098591)
(3.35839e-06 -5.82847e-06 0.0716263)
(-2.46125e-06 4.26789e-06 0.071561)
(-2.35655e-05 2.35501e-05 0.104202)
(7.03158e-06 -9.95168e-06 0.0876275)
(1.00051e-05 -7.02306e-06 0.0876286)
(-3.35125e-06 3.45736e-06 0.0875683)
(5.88566e-06 -3.39531e-06 0.0716248)
(-1.15445e-05 -6.23073e-06 0.107487)
(-2.06414e-05 -7.80936e-06 0.0930693)
(4.79541e-06 -1.995e-07 0.0913934)
(-1.21617e-05 -1.15148e-06 0.082308)
(7.02878e-06 6.81074e-07 0.0822482)
(-1.6786e-05 -2.19063e-07 0.091445)
(7.7498e-06 -3.99897e-07 0.0985298)
(-1.15858e-05 -6.25632e-06 0.107484)
(-2.06386e-05 -7.80054e-06 0.0930841)
(-1.48045e-05 -2.66112e-06 0.109895)
(8.54793e-06 3.08107e-06 0.0930207)
(-1.47136e-05 -2.64598e-06 0.1099)
(-2.75622e-05 -6.48031e-07 0.0985912)
(4.8034e-06 3.22504e-07 0.0913933)
(-1.20764e-05 1.28443e-06 0.0823075)
(7.08564e-06 -5.81035e-07 0.082248)
(-1.67725e-05 3.8992e-07 0.0914449)
(7.75841e-06 4.77891e-07 0.0985298)
(-1.15369e-05 6.27974e-06 0.107482)
(-1.47907e-05 2.70383e-06 0.109895)
(-2.05431e-05 7.89485e-06 0.0930831)
(-1.47017e-05 2.68301e-06 0.1099)
(8.57474e-06 -2.99406e-06 0.0930203)
(-2.75497e-05 7.86916e-07 0.0985911)
(2.0595e-05 -7.87272e-06 0.0930854)
(1.48013e-05 -2.68102e-06 0.109896)
(2.75132e-05 -6.65207e-07 0.0985917)
(1.21106e-05 -1.26293e-06 0.0823086)
(1.67352e-05 -2.19774e-07 0.0914461)
(1.47826e-05 2.67301e-06 0.109895)
(2.05442e-05 7.92185e-06 0.0930847)
(2.7519e-05 7.66953e-07 0.0985915)
(1.2083e-05 1.29109e-06 0.0823083)
(1.6752e-05 3.84945e-07 0.0914455)
(-5.85295e-06 3.40372e-06 0.0716237)
(4.30056e-06 -2.53271e-06 0.0715628)
(2.35362e-05 -2.35864e-05 0.104201)
(-9.9697e-06 7.01469e-06 0.0876251)
(-7.08766e-06 9.91864e-06 0.0876278)
(3.44967e-06 -3.3789e-06 0.0875687)
(3.28012e-06 -3.49966e-06 0.0875701)
(-3.47204e-06 5.83888e-06 0.0716239)
(2.44561e-06 -4.35108e-06 0.0715624)
(-4.86978e-07 -7.73364e-06 0.0985296)
(-6.31581e-06 1.15563e-05 0.107484)
(-2.71322e-06 1.48011e-05 0.109894)
(-7.9436e-06 2.05476e-05 0.0930842)
(-2.6943e-06 1.47046e-05 0.109899)
(2.91419e-06 -8.6036e-06 0.0930209)
(-8.08093e-07 2.75073e-05 0.0985909)
(3.97075e-07 -7.71226e-06 0.0985298)
(6.28888e-06 1.15675e-05 0.107483)
(2.66055e-06 1.48061e-05 0.109894)
(7.84663e-06 2.06139e-05 0.0930845)
(2.64186e-06 1.47069e-05 0.109899)
(-3.04419e-06 -8.54978e-06 0.0930211)
(6.50407e-07 2.75043e-05 0.0985913)
(-2.94669e-07 -4.77018e-06 0.0913926)
(-1.32701e-06 1.20594e-05 0.0823075)
(5.10111e-07 -7.11391e-06 0.0822481)
(-4.39607e-07 1.67211e-05 0.0914453)
(2.05939e-07 -4.73753e-06 0.0913923)
(1.20129e-06 1.21419e-05 0.0823086)
(-6.62193e-07 -7.03434e-06 0.0822489)
(2.18132e-07 1.67091e-05 0.091446)
(-2.35294e-05 -2.35109e-05 0.104202)
(9.95874e-06 7.08166e-06 0.0876281)
(6.98841e-06 1.00096e-05 0.0876264)
(-3.41705e-06 -3.43969e-06 0.0875691)
(5.85126e-06 3.44234e-06 0.0716248)
(3.35642e-06 5.89496e-06 0.0716247)
(-2.58732e-06 -4.27655e-06 0.0715633)
(2.37275e-06 4.39273e-06 0.071578)
(-3.52391e-06 -5.80616e-06 0.0716398)
(4.26375e-06 2.60252e-06 0.0715783)
(-5.90631e-06 -3.30647e-06 0.0716396)
(3.21487e-06 3.5364e-06 0.0875862)
(3.42632e-06 3.45249e-06 0.0875851)
(-4.1751e-05 -4.16451e-05 0.104318)
(-7.13738e-06 -9.8626e-06 0.0876447)
(-1.00374e-05 -6.9243e-06 0.0876427)
(2.33106e-06 4.40848e-06 0.0715937)
(4.26592e-06 2.58715e-06 0.071594)
(2.33654e-05 2.34905e-05 0.104205)
(3.17556e-06 3.55814e-06 0.0876026)
(3.429e-06 3.44562e-06 0.0876017)
(2.61583e-07 -1.67663e-05 0.0914608)
(-5.24073e-07 7.06132e-06 0.0822646)
(2.32731e-07 4.76675e-06 0.0914094)
(1.21541e-06 -1.20654e-05 0.0823259)
(-7.70594e-07 -2.75438e-05 0.0986015)
(2.87615e-06 8.61135e-06 0.0930349)
(-2.72322e-06 -1.4853e-05 0.10989)
(-6.40053e-06 -1.16124e-05 0.107476)
(-4.94321e-07 7.6932e-06 0.0985404)
(-7.98153e-06 -2.05051e-05 0.0930988)
(-2.7425e-06 -1.4927e-05 0.109885)
(6.81473e-07 -2.75573e-05 0.0986017)
(-2.93556e-06 8.57692e-06 0.0930347)
(2.71339e-06 -1.48666e-05 0.10989)
(6.371e-06 -1.16417e-05 0.107476)
(4.24831e-07 7.69158e-06 0.0985406)
(7.85676e-06 -2.05517e-05 0.0930994)
(2.73029e-06 -1.49374e-05 0.109885)
(-3.38493e-07 4.76118e-06 0.0914252)
(4.26178e-07 7.15125e-06 0.0822822)
(2.21143e-07 4.75457e-06 0.0914254)
(-5.12415e-07 7.05952e-06 0.0822819)
(-5.07732e-07 7.65344e-06 0.0985513)
(-6.43011e-06 -1.16349e-05 0.107474)
(2.84248e-06 8.61865e-06 0.0930497)
(-2.76487e-06 -1.49929e-05 0.109881)
(4.18892e-07 7.64982e-06 0.0985515)
(6.39893e-06 -1.1667e-05 0.107474)
(-2.92442e-06 8.57012e-06 0.0930496)
(2.74371e-06 -1.50047e-05 0.109881)
(-3.33114e-06 3.46462e-06 0.0875848)
(-3.47466e-06 3.36699e-06 0.087587)
(4.17202e-05 -4.16844e-05 0.104319)
(7.03896e-06 -9.92868e-06 0.0876439)
(9.98473e-06 -7.03537e-06 0.0876451)
(-4.30819e-06 2.52657e-06 0.0715787)
(5.86168e-06 -3.41018e-06 0.0716404)
(-2.41822e-06 4.27966e-06 0.0715926)
(-2.34192e-05 2.34221e-05 0.104206)
(-3.31649e-06 3.47428e-06 0.0876012)
(-3.48146e-06 3.35237e-06 0.0876035)
(-4.31433e-06 2.50704e-06 0.0715944)
(-2.75707e-05 -6.36627e-07 0.0986021)
(8.53552e-06 3.07555e-06 0.0930356)
(-1.48864e-05 -2.67584e-06 0.109891)
(-1.17027e-05 -6.33057e-06 0.107478)
(7.69603e-06 -3.86806e-07 0.0985407)
(-2.06318e-05 -7.7886e-06 0.093099)
(-1.49656e-05 -2.68816e-06 0.109886)
(-1.67618e-05 3.99347e-07 0.091461)
(7.08727e-06 -5.61187e-07 0.0822654)
(4.78692e-06 3.36017e-07 0.0914094)
(-1.20533e-05 1.30323e-06 0.0823249)
(-2.756e-05 7.95151e-07 0.0986021)
(-1.48733e-05 2.72649e-06 0.10989)
(8.55993e-06 -2.97522e-06 0.0930353)
(-1.16503e-05 6.3729e-06 0.107475)
(7.7064e-06 4.91583e-07 0.0985406)
(-1.49497e-05 2.7497e-06 0.109885)
(-2.0537e-05 7.90935e-06 0.0930981)
(4.75889e-06 -1.7563e-07 0.0914255)
(7.02926e-06 6.67748e-07 0.082283)
(7.65192e-06 -3.77913e-07 0.0985516)
(-1.17338e-05 -6.3483e-06 0.107476)
(8.52631e-06 3.07326e-06 0.0930506)
(-1.50366e-05 -2.70005e-06 0.109881)
(4.76991e-06 3.49698e-07 0.0914255)
(7.09602e-06 -5.42834e-07 0.0822828)
(7.66541e-06 5.08621e-07 0.0985515)
(-1.1679e-05 6.3993e-06 0.107473)
(-1.50218e-05 2.76977e-06 0.10988)
(8.55445e-06 -2.95693e-06 0.0930503)
(1.6725e-05 -2.10929e-07 0.0914621)
(-7.05233e-06 6.3538e-07 0.0822655)
(-4.72492e-06 -2.85683e-07 0.0914093)
(1.20965e-05 -1.26946e-06 0.0823259)
(2.75313e-05 7.78606e-07 0.0986022)
(1.48739e-05 2.6998e-06 0.10989)
(-8.56786e-06 -2.9369e-06 0.0930358)
(1.16505e-05 6.37475e-06 0.107476)
(-7.66419e-06 4.66309e-07 0.0985413)
(1.49534e-05 2.72345e-06 0.109885)
(2.05292e-05 7.93764e-06 0.0930995)
(1.67413e-05 3.95253e-07 0.0914614)
(-7.10199e-06 -5.25634e-07 0.0822659)
(-4.75375e-06 2.75481e-07 0.0914098)
(1.20722e-05 1.32522e-06 0.0823256)
(-7.59334e-06 -4.41588e-07 0.0985523)
(1.17251e-05 -6.39634e-06 0.107476)
(-8.54681e-06 2.99237e-06 0.093051)
(1.50402e-05 -2.7337e-06 0.109881)
(-4.70939e-06 -2.75905e-07 0.0914254)
(-7.05558e-06 6.23714e-07 0.0822829)
(-7.61245e-06 4.76638e-07 0.0985523)
(1.16736e-05 6.40732e-06 0.107474)
(1.50264e-05 2.74698e-06 0.10988)
(-8.56542e-06 -2.90838e-06 0.0930507)
(-4.73752e-06 2.84564e-07 0.0914259)
(-7.1108e-06 -4.96998e-07 0.0822832)
(3.45558e-06 -3.35673e-06 0.0875853)
(3.24266e-06 -3.50377e-06 0.0875864)
(-4.1724e-05 4.16962e-05 0.104318)
(-9.94858e-06 7.02566e-06 0.0876416)
(-7.10792e-06 9.88475e-06 0.0876443)
(2.4063e-06 -4.36642e-06 0.0715782)
(-3.50325e-06 5.81008e-06 0.0716396)
(4.3132e-06 -2.48124e-06 0.0715945)
(2.34036e-05 -2.34693e-05 0.104205)
(3.46515e-06 -3.33774e-06 0.0876018)
(3.21126e-06 -3.51839e-06 0.087603)
(2.37252e-06 -4.37842e-06 0.071594)
(6.37887e-07 2.75106e-05 0.098602)
(2.68029e-06 1.48913e-05 0.10989)
(-3.03585e-06 -8.5369e-06 0.0930359)
(6.35791e-06 1.16869e-05 0.107477)
(3.90443e-07 -7.65491e-06 0.0985407)
(2.69528e-06 1.49657e-05 0.109885)
(7.83412e-06 2.06072e-05 0.0930993)
(-4.54945e-07 1.67072e-05 0.0914612)
(4.78775e-07 -7.12724e-06 0.0822654)
(-3.08295e-07 -4.75024e-06 0.0914086)
(-1.35198e-06 1.20321e-05 0.0823248)
(2.03002e-07 1.66969e-05 0.0914619)
(-6.54498e-07 -7.02885e-06 0.0822662)
(1.94783e-07 -4.71832e-06 0.0914083)
(1.20146e-06 1.21276e-05 0.0823258)
(-5.17003e-07 -7.63128e-06 0.0985514)
(-6.44737e-06 1.1688e-05 0.107475)
(-2.78267e-06 1.5023e-05 0.10988)
(2.85489e-06 -8.59971e-06 0.0930507)
(3.78219e-07 -7.61041e-06 0.0985516)
(6.37781e-06 1.17159e-05 0.107475)
(2.7084e-06 1.50361e-05 0.10988)
(-3.0338e-06 -8.52941e-06 0.0930508)
(-3.24598e-07 -4.73667e-06 0.0914246)
(4.51316e-07 -7.13601e-06 0.0822828)
(1.80501e-07 -4.704e-06 0.0914243)
(-6.50214e-07 -7.03144e-06 0.0822835)
(-4.34813e-06 -2.44175e-06 0.071579)
(5.82603e-06 3.474e-06 0.0716405)
(-2.56963e-06 -4.27562e-06 0.0715791)
(3.36597e-06 5.87909e-06 0.0716403)
(-2.34659e-05 -2.34097e-05 0.104205)
(-3.52869e-06 -3.26449e-06 0.0876031)
(-3.40178e-06 -3.44101e-06 0.0876021)
(-4.35786e-06 -2.40637e-06 0.0715947)
(-2.55621e-06 -4.27844e-06 0.0715948)
(-1.01554e-06 4.91317e-06 0.0684172)
(-1.51906e-06 -1.23786e-05 0.0858887)
(5.1396e-07 7.12195e-06 0.0822389)
(-9.08076e-07 5.77099e-06 0.0858326)
(5.71175e-08 -6.07374e-06 0.0684781)
(7.02964e-06 6.83188e-07 0.0822396)
(-8.56502e-07 4.18031e-06 0.0769236)
(-3.31949e-07 4.76536e-06 0.0914173)
(4.85626e-08 -7.48834e-06 0.0787413)
(-1.28441e-06 -1.61237e-05 0.089985)
(-2.71476e-07 3.76942e-06 0.0787009)
(-7.08032e-07 5.31394e-06 0.0899355)
(3.92812e-07 -7.47567e-06 0.0769703)
(2.04353e-09 -6.04079e-06 0.0685012)
(-9.60505e-07 5.78899e-06 0.0858586)
(-1.35404e-06 -1.20445e-05 0.082316)
(-1.07897e-06 4.92005e-06 0.0684405)
(-1.564e-06 -1.23301e-05 0.0859147)
(4.07292e-07 -7.48004e-06 0.0769617)
(-3.68281e-07 -1.67624e-05 0.0914527)
(-2.63962e-07 3.77127e-06 0.0786922)
(-6.93535e-07 5.31793e-06 0.0899272)
(-8.40349e-07 4.18339e-06 0.076915)
(5.59326e-08 -7.49095e-06 0.0787326)
(-1.27257e-06 -1.61323e-05 0.0899767)
(-1.10071e-06 4.92272e-06 0.0684482)
(-1.5784e-06 -1.2315e-05 0.0859233)
(4.40712e-07 7.13901e-06 0.0822736)
(-9.77879e-07 5.79586e-06 0.0858673)
(-1.58279e-08 -6.03189e-06 0.0685089)
(3.36332e-06 -5.82031e-06 0.0716342)
(-2.42745e-06 4.27734e-06 0.0715847)
(4.1627e-06 -6.49144e-07 0.0769239)
(4.76866e-06 -1.80546e-07 0.0914175)
(-1.61595e-05 -1.08855e-06 0.0899855)
(-7.50011e-06 2.35176e-07 0.0787415)
(5.29712e-06 -5.16953e-07 0.0899359)
(3.76845e-06 -9.8138e-08 0.0787011)
(-7.50921e-06 6.08363e-07 0.0769706)
(-6.09811e-06 2.21529e-07 0.0685022)
(5.7093e-06 -7.35876e-07 0.0858594)
(-1.2152e-05 -1.15263e-06 0.0823166)
(4.86205e-06 -8.5018e-07 0.0684414)
(-1.24125e-05 -1.34849e-06 0.0859154)
(-7.51161e-06 6.0966e-07 0.076962)
(-1.67811e-05 -2.12102e-07 0.091453)
(5.30494e-06 -5.17131e-07 0.0899276)
(3.77085e-06 -1.02196e-07 0.0786923)
(4.16818e-06 -6.45712e-07 0.0769152)
(-1.61653e-05 -1.09166e-06 0.0899772)
(-7.50508e-06 2.32728e-07 0.0787328)
(4.86103e-06 -8.5941e-07 0.0684492)
(-1.24022e-05 -1.34792e-06 0.0859241)
(7.02784e-06 6.70947e-07 0.0822743)
(5.71144e-06 -7.3938e-07 0.0858681)
(-6.092e-06 2.16327e-07 0.0685099)
(-5.8437e-06 3.41347e-06 0.0716316)
(4.30889e-06 -2.49368e-06 0.0715866)
(-3.08162e-06 -3.01012e-06 0.0836536)
(3.52046e-06 5.20563e-06 0.0684133)
(5.09942e-06 3.61097e-06 0.0684068)
(-2.6523e-06 -3.98625e-06 0.0683577)
(-4.0676e-06 -2.5799e-06 0.0683516)
(7.23749e-06 7.33357e-06 0.0836992)
(1.68216e-05 1.04259e-05 0.091752)
(-1.08024e-05 -5.30076e-06 0.0962988)
(-3.82114e-06 -2.90648e-06 0.0815913)
(9.94036e-06 7.08954e-06 0.0876364)
(-7.67193e-06 -3.61858e-06 0.0917044)
(2.41002e-05 1.43932e-05 0.0963476)
(8.04919e-06 4.1151e-06 0.0816433)
(1.03692e-05 1.68922e-05 0.0917451)
(-5.38647e-06 -1.07487e-05 0.0962962)
(-3.00432e-06 -3.75962e-06 0.0815867)
(6.98842e-06 1.00016e-05 0.0876346)
(-3.70706e-06 -7.63319e-06 0.091698)
(1.43491e-05 2.41487e-05 0.0963449)
(4.03481e-06 8.14804e-06 0.0816374)
(7.251e-06 7.33626e-06 0.0836914)
(-2.6477e-06 -3.99466e-06 0.0683507)
(-4.06735e-06 -2.58494e-06 0.0683446)
(-3.07443e-06 -3.01372e-06 0.0836458)
(3.53159e-06 5.20254e-06 0.0684063)
(5.10569e-06 3.6123e-06 0.0683999)
(-7.68193e-06 -3.61285e-06 0.0917117)
(8.03083e-06 4.12364e-06 0.0816513)
(-3.51825e-06 -3.27859e-06 0.0875949)
(2.40766e-05 1.44018e-05 0.0963537)
(-1.08096e-05 -5.28525e-06 0.0963048)
(-3.83342e-06 -2.8914e-06 0.0815994)
(1.67965e-05 1.0423e-05 0.0917592)
(-3.71087e-06 -7.6332e-06 0.0917053)
(4.03157e-06 8.13909e-06 0.0816455)
(-3.40531e-06 -3.44006e-06 0.0875938)
(1.43438e-05 2.41365e-05 0.096351)
(-5.38475e-06 -1.07422e-05 0.0963023)
(-3.00546e-06 -3.76446e-06 0.0815948)
(1.03574e-05 1.68775e-05 0.0917523)
(2.43793e-06 4.36858e-06 0.0715544)
(4.26129e-06 2.62348e-06 0.0715546)
(2.98752e-06 3.1156e-06 0.0836215)
(-5.22887e-06 -3.54384e-06 0.0683852)
(-3.66898e-06 -5.08936e-06 0.0683786)
(3.96794e-06 2.68587e-06 0.0683289)
(2.57116e-06 4.11013e-06 0.0683226)
(-7.39025e-06 -7.25981e-06 0.0836682)
(3.5953e-06 7.68431e-06 0.091682)
(-4.10093e-06 -8.02525e-06 0.0816199)
(3.27507e-06 3.50353e-06 0.0875615)
(-1.44078e-05 -2.41063e-05 0.0963293)
(2.86887e-06 3.80485e-06 0.0815667)
(-1.04583e-05 -1.68433e-05 0.0917303)
(5.31381e-06 1.08374e-05 0.0962802)
(7.58671e-06 3.72707e-06 0.0916755)
(-8.19981e-06 -3.97247e-06 0.0816135)
(3.4242e-06 3.4617e-06 0.0875604)
(-2.42096e-05 -1.43077e-05 0.0963268)
(3.72768e-06 3.03427e-06 0.0815614)
(-1.69474e-05 -1.03492e-05 0.0917237)
(1.07368e-05 5.42652e-06 0.0962776)
(2.39477e-06 4.38412e-06 0.0715702)
(-3.46478e-06 -5.85266e-06 0.0716163)
(4.26227e-06 2.6087e-06 0.0715704)
(-5.93234e-06 -3.29088e-06 0.0716161)
(-7.39015e-06 -7.24379e-06 0.083676)
(3.95824e-06 2.69178e-06 0.0683359)
(2.56476e-06 4.11373e-06 0.0683295)
(2.97904e-06 3.12355e-06 0.0836293)
(-5.23245e-06 -3.52984e-06 0.0683922)
(-3.6681e-06 -5.08041e-06 0.0683856)
(3.57512e-06 7.70476e-06 0.0916966)
(-1.4428e-05 -2.40602e-05 0.0963413)
(3.23376e-06 3.5238e-06 0.0875779)
(-4.13022e-06 -7.99687e-06 0.081636)
(2.83841e-06 3.83153e-06 0.0815829)
(5.26911e-06 1.08394e-05 0.0962924)
(-1.0459e-05 -1.67915e-05 0.0917448)
(7.57976e-06 3.73552e-06 0.09169)
(-2.41883e-05 -1.42982e-05 0.0963389)
(3.42346e-06 3.45395e-06 0.0875769)
(-8.187e-06 -3.96707e-06 0.0816296)
(3.72719e-06 3.03088e-06 0.0815776)
(1.07181e-05 5.41876e-06 0.0962898)
(-1.69231e-05 -1.03231e-05 0.0917382)
(-1.04607e-05 -1.68193e-05 0.0917376)
(2.85328e-06 3.81711e-06 0.0815748)
(5.2878e-06 1.08393e-05 0.0962863)
(-7.09155e-06 -9.91917e-06 0.0876201)
(3.58398e-06 7.69505e-06 0.0916893)
(-4.11976e-06 -8.01824e-06 0.0816279)
(-1.44181e-05 -2.40904e-05 0.0963353)
(-1.69373e-05 -1.03379e-05 0.091731)
(3.72764e-06 3.03408e-06 0.0815695)
(1.07265e-05 5.42301e-06 0.0962837)
(-1.00639e-05 -6.92895e-06 0.087618)
(7.58302e-06 3.73263e-06 0.0916828)
(-8.19614e-06 -3.97159e-06 0.0816215)
(-2.42024e-05 -1.43054e-05 0.0963329)
(2.97444e-06 3.13174e-06 0.0836372)
(-5.23774e-06 -3.51758e-06 0.0683991)
(-3.66646e-06 -5.07353e-06 0.0683926)
(3.94686e-06 2.69831e-06 0.0683429)
(2.56092e-06 4.11457e-06 0.0683366)
(-7.38924e-06 -7.22905e-06 0.0836838)
(4.3508e-07 -7.49007e-06 0.0769446)
(-2.50547e-07 3.77506e-06 0.0786748)
(-6.67175e-07 5.33042e-06 0.0899107)
(-3.56295e-07 -1.67766e-05 0.0914369)
(-8.10868e-07 4.18309e-06 0.0768978)
(6.96111e-08 -7.5025e-06 0.0787152)
(-1.2494e-06 -1.61476e-05 0.0899603)
(-1.05757e-06 4.9183e-06 0.0684327)
(4.78163e-07 7.13269e-06 0.0822563)
(-1.54802e-06 -1.23477e-05 0.085906)
(2.11144e-08 -6.05185e-06 0.0684935)
(-9.42989e-07 5.78182e-06 0.08585)
(3.88666e-08 -6.06113e-06 0.0684858)
(-9.25947e-07 5.77581e-06 0.0858413)
(-1.32339e-06 -1.20773e-05 0.0822988)
(-1.03779e-06 4.91605e-06 0.068425)
(-1.53325e-06 -1.23634e-05 0.0858974)
(-8.24779e-07 4.18452e-06 0.0769064)
(-3.18761e-07 4.77886e-06 0.0914013)
(6.29568e-08 -7.49926e-06 0.0787239)
(-1.26097e-06 -1.61417e-05 0.0899685)
(4.20863e-07 -7.48791e-06 0.0769532)
(-2.571e-07 3.77185e-06 0.0786835)
(-6.80206e-07 5.32288e-06 0.089919)
(-5.33845e-07 -7.50327e-06 0.0769443)
(1.60306e-07 3.77097e-06 0.0786749)
(5.93171e-07 5.31968e-06 0.0899113)
(2.77814e-07 -1.6785e-05 0.091437)
(7.20872e-07 4.17021e-06 0.0768978)
(-1.68044e-07 -7.51042e-06 0.0787153)
(1.16654e-06 -1.61633e-05 0.0899603)
(9.69946e-07 4.88248e-06 0.0684357)
(-5.28036e-07 7.05997e-06 0.082256)
(1.42263e-06 -1.23939e-05 0.0859069)
(8.75022e-07 5.7465e-06 0.0858514)
(-1.36951e-07 -6.08097e-06 0.0684961)
(-1.44808e-07 -6.08688e-06 0.0684884)
(8.68197e-07 5.74317e-06 0.0858427)
(1.21091e-06 -1.21039e-05 0.0823)
(9.60128e-07 4.88381e-06 0.0684279)
(1.42041e-06 -1.2403e-05 0.0858983)
(7.264e-07 4.16586e-06 0.0769064)
(2.36984e-07 4.77469e-06 0.0914015)
(-1.71982e-07 -7.50631e-06 0.078724)
(1.16758e-06 -1.61595e-05 0.0899685)
(1.57607e-07 3.76733e-06 0.0786836)
(5.97261e-07 5.31099e-06 0.0899196)
(-5.30966e-07 -7.49679e-06 0.0769529)
(-2.44516e-06 4.2719e-06 0.0715689)
(3.34831e-06 -5.8389e-06 0.0716185)
(-3.66908e-06 7.67936e-06 0.0916906)
(1.4388e-05 -2.41272e-05 0.0963392)
(-3.34263e-06 3.45566e-06 0.0875765)
(4.1085e-06 -8.11318e-06 0.08163)
(-5.36249e-06 1.08009e-05 0.0962902)
(-2.98698e-06 3.80355e-06 0.0815784)
(1.04353e-05 -1.68666e-05 0.0917384)
(-7.64089e-06 3.67097e-06 0.0916971)
(2.41523e-05 -1.43708e-05 0.0963424)
(-3.45787e-06 3.37791e-06 0.0875788)
(8.12624e-06 -4.05446e-06 0.0816356)
(-3.79155e-06 2.97273e-06 0.0815835)
(-1.07609e-05 5.34954e-06 0.096293)
(1.68859e-05 -1.03863e-05 0.0917455)
(-5.36288e-06 1.08177e-05 0.0962841)
(7.02601e-06 -9.95691e-06 0.0876193)
(1.43966e-05 -2.41238e-05 0.0963332)
(-3.01822e-06 3.06151e-06 0.0836375)
(5.16179e-06 -3.57555e-06 0.0683936)
(3.58891e-06 -5.1435e-06 0.068399)
(-4.02187e-06 2.6317e-06 0.0683375)
(-2.60686e-06 4.04824e-06 0.0683427)
(7.31705e-06 -7.29311e-06 0.0836843)
(-4.29387e-06 2.53481e-06 0.0715708)
(-7.51328e-06 6.11073e-07 0.0769448)
(5.3235e-06 -5.19907e-07 0.0899109)
(3.77836e-06 -1.12557e-07 0.0786748)
(-1.67884e-05 -2.24283e-07 0.091437)
(4.17551e-06 -6.41882e-07 0.076898)
(-1.61741e-05 -1.09729e-06 0.0899606)
(-7.5111e-06 2.24284e-07 0.0787153)
(4.86352e-06 -8.40764e-07 0.0684336)
(7.02683e-06 6.77533e-07 0.0822569)
(-1.24239e-05 -1.34752e-06 0.0859067)
(-6.10561e-06 2.27981e-07 0.0684945)
(5.70836e-06 -7.33491e-07 0.0858506)
(-6.11339e-06 2.32805e-07 0.0684867)
(5.70803e-06 -7.30496e-07 0.0858419)
(-1.21697e-05 -1.14933e-06 0.0822993)
(4.86521e-06 -8.33766e-07 0.0684258)
(-1.24356e-05 -1.3471e-06 0.085898)
(4.17361e-06 -6.43127e-07 0.0769066)
(4.78591e-06 -1.92703e-07 0.0914014)
(-1.61704e-05 -1.09498e-06 0.0899689)
(-7.50774e-06 2.27229e-07 0.078724)
(-7.51793e-06 6.09481e-07 0.0769534)
(5.31411e-06 -5.1895e-07 0.0899193)
(3.77587e-06 -1.07824e-07 0.0786835)
(-7.48469e-06 -4.26273e-07 0.0769443)
(3.78828e-06 2.63491e-07 0.0786747)
(5.32741e-06 6.40959e-07 0.089911)
(-1.67779e-05 3.86531e-07 0.0914369)
(4.18502e-06 7.91315e-07 0.0768975)
(-7.50082e-06 -3.74929e-08 0.0787152)
(-1.61427e-05 1.25505e-06 0.0899601)
(4.89384e-06 9.97286e-07 0.0684353)
(7.08863e-06 -5.71262e-07 0.0822567)
(-1.23502e-05 1.51123e-06 0.0859066)
(5.75142e-06 8.76927e-07 0.0858511)
(-6.05439e-06 -4.59941e-08 0.0684959)
(-6.06101e-06 -6.43059e-08 0.0684881)
(5.74295e-06 8.64031e-07 0.0858424)
(-1.20813e-05 1.27305e-06 0.0822988)
(4.89216e-06 9.82781e-07 0.0684275)
(-1.23654e-05 1.49916e-06 0.0858978)
(4.18393e-06 8.03856e-07 0.0769062)
(4.79514e-06 3.29643e-07 0.0914013)
(-7.49417e-06 -3.72749e-08 0.078724)
(-1.61356e-05 1.26404e-06 0.0899685)
(3.78396e-06 2.71192e-07 0.0786835)
(5.32109e-06 6.53913e-07 0.0899193)
(-7.48611e-06 -4.1391e-07 0.0769529)
(-4.82173e-06 -9.47405e-07 0.0684311)
(-7.05018e-06 6.37987e-07 0.0822569)
(1.23555e-05 -1.42908e-06 0.0859083)
(-5.69364e-06 -7.9589e-07 0.0858498)
(6.03782e-06 1.83217e-07 0.0684967)
(-4.09911e-06 -7.36404e-07 0.0769037)
(-4.73325e-06 -2.89825e-07 0.0914013)
(1.60835e-05 -1.12843e-06 0.0899706)
(7.46391e-06 2.18311e-07 0.0787252)
(-5.24479e-06 -5.98351e-07 0.0899185)
(-3.7299e-06 -2.0522e-07 0.0786822)
(7.4241e-06 5.76756e-07 0.0769558)
(-4.89763e-06 9.97792e-07 0.068436)
(-7.10025e-06 -5.39422e-07 0.0822572)
(1.23623e-05 1.50786e-06 0.0859076)
(-5.75778e-06 8.81793e-07 0.0858515)
(6.0617e-06 -6.11317e-08 0.0684968)
(-4.17458e-06 7.74265e-07 0.0769065)
(-4.76532e-06 2.6907e-07 0.0914018)
(7.49008e-06 -4.98345e-08 0.0787244)
(1.61342e-05 1.24623e-06 0.0899692)
(-3.77018e-06 2.08796e-07 0.0786836)
(-5.31045e-06 6.33746e-07 0.0899197)
(7.48423e-06 -4.41076e-07 0.0769533)
(4.30354e-06 -2.51858e-06 0.0715707)
(-5.86436e-06 3.39014e-06 0.0716158)
(-7.35718e-06 7.26099e-06 0.083676)
(2.59283e-06 -4.06125e-06 0.0683308)
(3.98767e-06 -2.65876e-06 0.0683363)
(3.00207e-06 -3.06793e-06 0.0836297)
(-3.6308e-06 5.10365e-06 0.0683863)
(-5.20169e-06 3.54978e-06 0.068392)
(7.63992e-06 -3.68417e-06 0.0916904)
(-2.41568e-05 1.43369e-05 0.0963378)
(3.453e-06 -3.36779e-06 0.087577)
(-8.13239e-06 4.03303e-06 0.0816288)
(1.08054e-05 -5.36092e-06 0.0962901)
(3.77915e-06 -2.98031e-06 0.0815782)
(-1.6901e-05 1.0354e-05 0.0917375)
(3.60638e-06 -7.68903e-06 0.0916971)
(-1.44348e-05 2.40984e-05 0.0963414)
(3.26032e-06 -3.50244e-06 0.0875782)
(-4.11985e-06 8.03884e-06 0.0816351)
(2.88324e-06 -3.82746e-06 0.0815834)
(5.29041e-06 -1.08138e-05 0.0962927)
(-1.04587e-05 1.68407e-05 0.0917446)
(-1.69147e-05 1.03598e-05 0.0917302)
(3.77583e-06 -2.98767e-06 0.0815701)
(1.08142e-05 -5.37474e-06 0.0962839)
(-9.98257e-06 7.00446e-06 0.0876169)
(-2.41693e-05 1.43433e-05 0.0963318)
(7.6407e-06 -3.68697e-06 0.0916831)
(-8.14597e-06 4.03215e-06 0.0816207)
(-1.04605e-05 1.68575e-05 0.0917372)
(2.89772e-06 -3.82487e-06 0.0815753)
(5.30631e-06 -1.08208e-05 0.0962866)
(-7.08035e-06 9.93725e-06 0.0876195)
(3.61383e-06 -7.68607e-06 0.0916898)
(-4.11927e-06 8.05864e-06 0.0816269)
(-1.44301e-05 2.41129e-05 0.0963353)
(2.9997e-06 -3.07088e-06 0.0836376)
(-3.62511e-06 5.09949e-06 0.0683933)
(-5.1984e-06 3.53975e-06 0.068399)
(2.59274e-06 -4.06019e-06 0.0683378)
(3.98041e-06 -2.66207e-06 0.0683433)
(-7.35328e-06 7.2526e-06 0.0836838)
(2.42514e-06 -4.35943e-06 0.0715703)
(-3.45418e-06 5.85312e-06 0.0716161)
(3.80825e-07 7.46537e-06 0.0769446)
(-6.34878e-07 -5.3307e-06 0.0899109)
(-2.50561e-07 -3.74981e-06 0.078673)
(-4.33804e-07 1.67247e-05 0.0914373)
(-7.86834e-07 -4.18335e-06 0.0768976)
(-1.30329e-06 1.61207e-05 0.0899599)
(-1.55899e-09 7.45494e-06 0.0787159)
(-1.03152e-06 -4.90366e-06 0.0684339)
(4.94119e-07 -7.11984e-06 0.0822567)
(-1.54751e-06 1.23307e-05 0.0859057)
(-9.24651e-07 -5.77023e-06 0.0858506)
(1.00238e-08 6.03728e-06 0.0684942)
(3.07843e-08 6.04665e-06 0.0684865)
(-9.06298e-07 -5.76038e-06 0.0858419)
(-1.31292e-06 1.2077e-05 0.0822989)
(-1.00943e-06 -4.90241e-06 0.0684262)
(-1.53204e-06 1.23482e-05 0.085897)
(-8.02867e-07 -4.18248e-06 0.0769062)
(-3.01333e-07 -4.75946e-06 0.0914006)
(-1.3157e-06 1.6115e-05 0.0899682)
(-4.78606e-09 7.44845e-06 0.0787247)
(-6.50034e-07 -5.32267e-06 0.0899192)
(-2.57219e-07 -3.74649e-06 0.0786817)
(3.679e-07 7.46465e-06 0.0769531)
(-5.80924e-07 7.47452e-06 0.0769455)
(4.95162e-07 -5.29027e-06 0.0899104)
(1.23511e-07 -3.70674e-06 0.0786719)
(2.24434e-07 1.67138e-05 0.091438)
(6.34873e-07 -4.13886e-06 0.0768957)
(1.14407e-06 1.61236e-05 0.0899614)
(-2.27455e-07 7.43708e-06 0.0787168)
(8.39677e-07 -4.86184e-06 0.0684358)
(-6.56119e-07 -7.03287e-06 0.0822575)
(1.40322e-06 1.24046e-05 0.0859079)
(7.31614e-07 -5.70329e-06 0.0858517)
(-1.8358e-07 6.09725e-06 0.068497)
(-1.87123e-07 6.10388e-06 0.0684893)
(7.27361e-07 -5.7041e-06 0.085843)
(1.19851e-06 1.21463e-05 0.0822999)
(8.32587e-07 -4.86425e-06 0.0684281)
(1.40297e-06 1.24131e-05 0.0858992)
(6.3685e-07 -4.13635e-06 0.0769044)
(2.00481e-07 -4.72673e-06 0.0914003)
(1.14152e-06 1.61206e-05 0.0899697)
(-2.33704e-07 7.43323e-06 0.0787255)
(4.95881e-07 -5.28078e-06 0.0899187)
(1.19793e-07 -3.70258e-06 0.0786806)
(-5.8116e-07 7.47597e-06 0.0769541)
(7.26981e-06 7.35083e-06 0.0836758)
(3.55266e-06 5.20118e-06 0.0683924)
(5.11581e-06 3.61956e-06 0.068386)
(-7.66574e-06 -3.62121e-06 0.0916972)
(2.41244e-05 1.43862e-05 0.0963415)
(-3.49639e-06 -3.3138e-06 0.0875785)
(8.06947e-06 4.1085e-06 0.0816352)
(1.68451e-05 1.04291e-05 0.0917447)
(-1.08014e-05 -5.31987e-06 0.0962928)
(-3.80457e-06 -2.91626e-06 0.0815832)
(-3.7107e-06 -7.63435e-06 0.0916907)
(1.43551e-05 2.41582e-05 0.0963388)
(-3.41238e-06 -3.44056e-06 0.0875774)
(4.03551e-06 8.15484e-06 0.0816294)
(1.03783e-05 1.69069e-05 0.0917378)
(-5.38683e-06 -1.07656e-05 0.0962901)
(-3.00645e-06 -3.75863e-06 0.0815786)
(1.68622e-05 1.04318e-05 0.0917374)
(9.97491e-06 7.06769e-06 0.0876199)
(2.4138e-05 1.4377e-05 0.0963355)
(8.09045e-06 4.10076e-06 0.0816271)
(1.03844e-05 1.69199e-05 0.0917306)
(-5.39059e-06 -1.07668e-05 0.0962841)
(6.98952e-06 1.00126e-05 0.0876182)
(1.43646e-05 2.41603e-05 0.0963328)
(4.03156e-06 8.14863e-06 0.0816213)
(-3.0686e-06 -3.00957e-06 0.083638)
(3.54111e-06 5.2001e-06 0.0683993)
(5.10915e-06 3.61358e-06 0.0683929)
(7.26244e-06 7.34081e-06 0.0836836)
(-2.64086e-06 -4.00085e-06 0.0683437)
(-4.06918e-06 -2.5862e-06 0.0683376)
(-4.34359e-06 -2.45832e-06 0.0715711)
(5.86276e-06 3.42912e-06 0.0716169)
(-2.57649e-06 -4.27609e-06 0.0715712)
(3.3494e-06 5.90197e-06 0.0716168)
(-3.50452e-06 -5.82106e-06 0.071632)
(2.35092e-06 4.40057e-06 0.0715859)
(-5.91449e-06 -3.30016e-06 0.0716318)
(4.26443e-06 2.5949e-06 0.0715861)
(2.96049e-06 3.1485e-06 0.0836528)
(-5.24664e-06 -3.49251e-06 0.0684131)
(-3.6622e-06 -5.05681e-06 0.0684065)
(3.92638e-06 2.71165e-06 0.0683569)
(2.55279e-06 4.11987e-06 0.0683505)
(-7.38934e-06 -7.19888e-06 0.0836994)
(-1.04614e-05 -1.67653e-05 0.0917521)
(5.25515e-06 1.08452e-05 0.0962985)
(2.82402e-06 3.84495e-06 0.081591)
(-7.12145e-06 -9.87945e-06 0.0876365)
(3.56587e-06 7.71526e-06 0.0917039)