/*--------------------------------*- C++ -*----------------------------------*\
| =========                 |                                                 |
| \\      /  F ield         | OpenFOAM: The Open Source CFD Toolbox           |
|  \\    /   O peration     | Version:  2312                                  |
|   \\  /    A nd           | Website:  www.openfoam.com                      |
|    \\/     M anipulation  |                                                 |
\*---------------------------------------------------------------------------*/
FoamFile
{
    version     2.0;
    format      ascii;
    arch        "LSB;label=32;scalar=64";
    class       volScalarField;
    location    "100";
    object      k;
}
// * * * * * * * * * * * * * * * * * * * * * * * * * * * * * * * * * * * * * //

dimensions      [0 2 -2 0 0 0 0];

internalField   nonuniform List<scalar> 
42840
(
1.46013e-05
1.56598e-05
1.56421e-05
1.71294e-05
1.43834e-05
1.56309e-05
1.56158e-05
1.7242e-05
1.42446e-05
1.5622e-05
1.56211e-05
1.73259e-05
1.4166e-05
1.56232e-05
1.56272e-05
1.73806e-05
1.41283e-05
1.56257e-05
1.56393e-05
1.74474e-05
1.41129e-05
1.56365e-05
1.56508e-05
1.74902e-05
1.41081e-05
1.56481e-05
1.56633e-05
1.75184e-05
1.41077e-05
1.56581e-05
1.56714e-05
1.75359e-05
1.41082e-05
1.56671e-05
1.56782e-05
1.7523e-05
1.41087e-05
1.56702e-05
1.56827e-05
1.75055e-05
1.41095e-05
1.56694e-05
1.56856e-05
1.75267e-05
1.41102e-05
1.5669e-05
1.56878e-05
1.75392e-05
1.41104e-05
1.567e-05
1.56898e-05
1.75365e-05
1.41101e-05
1.56719e-05
1.569e-05
1.75474e-05
1.41082e-05
1.56731e-05
1.56889e-05
1.75603e-05
1.41047e-05
1.56705e-05
1.56883e-05
1.75427e-05
1.41017e-05
1.5668e-05
1.56869e-05
1.75543e-05
1.4099e-05
1.5668e-05
1.56846e-05
1.75665e-05
1.40973e-05
1.56702e-05
1.56823e-05
1.75668e-05
1.40971e-05
1.56742e-05
1.56818e-05
1.75735e-05
1.40987e-05
1.56795e-05
1.56832e-05
1.75853e-05
1.41013e-05
1.56855e-05
1.56863e-05
1.75813e-05
1.41046e-05
1.56917e-05
1.56899e-05
1.75811e-05
1.41077e-05
1.56967e-05
1.5693e-05
1.7598e-05
1.411e-05
1.56996e-05
1.56965e-05
1.76093e-05
1.7181e-05
1.72335e-05
1.56563e-05
1.56559e-05
1.5632e-05
1.56339e-05
1.717e-05
1.72336e-05
1.56493e-05
1.56375e-05
1.56244e-05
1.56131e-05
1.56508e-05
1.56349e-05
1.56328e-05
1.71474e-05
1.72052e-05
1.56322e-05
1.5618e-05
1.5609e-05
1.72129e-05
1.72704e-05
1.73105e-05
1.56288e-05
1.56315e-05
1.56259e-05
1.56286e-05
1.72757e-05
1.73244e-05
1.56213e-05
1.56099e-05
1.56199e-05
1.56127e-05
1.56294e-05
1.56234e-05
1.56234e-05
1.72316e-05
1.73053e-05
1.56075e-05
1.56192e-05
1.56111e-05
1.73035e-05
1.73498e-05
1.73639e-05
1.56252e-05
1.56269e-05
1.56231e-05
1.56263e-05
1.73461e-05
1.7373e-05
1.56196e-05
1.5615e-05
1.56203e-05
1.56219e-05
1.56224e-05
1.56225e-05
1.56223e-05
1.73297e-05
1.73737e-05
1.56128e-05
1.56247e-05
1.56165e-05
1.73443e-05
1.7381e-05
1.74255e-05
1.56233e-05
1.56281e-05
1.56296e-05
1.56325e-05
1.74133e-05
1.74494e-05
1.56209e-05
1.56243e-05
1.56262e-05
1.56326e-05
1.56234e-05
1.56243e-05
1.563e-05
1.73969e-05
1.74332e-05
1.56174e-05
1.56366e-05
1.56238e-05
1.74089e-05
1.74555e-05
1.74747e-05
1.56329e-05
1.56338e-05
1.56402e-05
1.56406e-05
1.747e-05
1.7475e-05
1.56289e-05
1.56363e-05
1.56383e-05
1.56471e-05
1.5634e-05
1.56332e-05
1.56433e-05
1.74732e-05
1.75002e-05
1.56277e-05
1.56477e-05
1.56396e-05
1.74613e-05
1.74968e-05
1.75016e-05
1.56434e-05
1.56438e-05
1.56535e-05
1.56514e-05
1.74917e-05
1.747e-05
1.56423e-05
1.56512e-05
1.5654e-05
1.56625e-05
1.56458e-05
1.56457e-05
1.56518e-05
1.75192e-05
1.75251e-05
1.56438e-05
1.56607e-05
1.56553e-05
1.74984e-05
1.7495e-05
1.74856e-05
1.56559e-05
1.56537e-05
1.56618e-05
1.566e-05
1.74992e-05
1.74942e-05
1.56571e-05
1.56654e-05
1.56634e-05
1.56719e-05
1.56539e-05
1.56557e-05
1.5661e-05
1.75521e-05
1.75478e-05
1.5658e-05
1.56697e-05
1.5664e-05
1.75157e-05
1.75143e-05
1.75108e-05
1.56639e-05
1.56621e-05
1.56688e-05
1.56685e-05
1.75125e-05
1.75115e-05
1.56649e-05
1.56736e-05
1.56677e-05
1.56778e-05
1.5664e-05
1.56655e-05
1.56723e-05
1.7561e-05
1.75559e-05
1.56659e-05
1.56768e-05
1.56694e-05
1.75019e-05
1.75322e-05
1.75296e-05
1.56702e-05
1.56703e-05
1.56738e-05
1.5674e-05
1.75065e-05
1.74946e-05
1.56685e-05
1.56792e-05
1.56707e-05
1.56821e-05
1.56745e-05
1.567e-05
1.56793e-05
1.75718e-05
1.75406e-05
1.56698e-05
1.56821e-05
1.56691e-05
1.74865e-05
1.75447e-05
1.75238e-05
1.5675e-05
1.5675e-05
1.56776e-05
1.5676e-05
1.75177e-05
1.75061e-05
1.56719e-05
1.56827e-05
1.56751e-05
1.56848e-05
1.56804e-05
1.56698e-05
1.56827e-05
1.75554e-05
1.75397e-05
1.56683e-05
1.56851e-05
1.5667e-05
1.75064e-05
1.75311e-05
1.75248e-05
1.56786e-05
1.56758e-05
1.56804e-05
1.56746e-05
1.75203e-05
1.75025e-05
1.56764e-05
1.56854e-05
1.56795e-05
1.56868e-05
1.56834e-05
1.56689e-05
1.56852e-05
1.75395e-05
1.75501e-05
1.56671e-05
1.56874e-05
1.56674e-05
1.75224e-05
1.75405e-05
1.75343e-05
1.56809e-05
1.56743e-05
1.56822e-05
1.56739e-05
1.75163e-05
1.75075e-05
1.56804e-05
1.56873e-05
1.56826e-05
1.56883e-05
1.56859e-05
1.56697e-05
1.56867e-05
1.75654e-05
1.75586e-05
1.56674e-05
1.56894e-05
1.56678e-05
1.75206e-05
1.75537e-05
1.75443e-05
1.5683e-05
1.5674e-05
1.56837e-05
1.56749e-05
1.75237e-05
1.75195e-05
1.56836e-05
1.56886e-05
1.5685e-05
1.56889e-05
1.5687e-05
1.56715e-05
1.56872e-05
1.75754e-05
1.75479e-05
1.5668e-05
1.56903e-05
1.56688e-05
1.75225e-05
1.75666e-05
1.75498e-05
1.56839e-05
1.56753e-05
1.56834e-05
1.56757e-05
1.75332e-05
1.74975e-05
1.56851e-05
1.56885e-05
1.56845e-05
1.56875e-05
1.56872e-05
1.56731e-05
1.56872e-05
1.75439e-05
1.75478e-05
1.56694e-05
1.56891e-05
1.56717e-05
1.7543e-05
1.75639e-05
1.75381e-05
1.56832e-05
1.56754e-05
1.56824e-05
1.56753e-05
1.7512e-05
1.75132e-05
1.56841e-05
1.56875e-05
1.56826e-05
1.56872e-05
1.56871e-05
1.56714e-05
1.56861e-05
1.75705e-05
1.75703e-05
1.56727e-05
1.56887e-05
1.56748e-05
1.75266e-05
1.75329e-05
1.75346e-05
1.56817e-05
1.56754e-05
1.56802e-05
1.5676e-05
1.75341e-05
1.75282e-05
1.5682e-05
1.56868e-05
1.56802e-05
1.56857e-05
1.56854e-05
1.56686e-05
1.56831e-05
1.75615e-05
1.75325e-05
1.56753e-05
1.56874e-05
1.56761e-05
1.75387e-05
1.75264e-05
1.75176e-05
1.56794e-05
1.56763e-05
1.56776e-05
1.56779e-05
1.75441e-05
1.75331e-05
1.56796e-05
1.56852e-05
1.56781e-05
1.56841e-05
1.56822e-05
1.56679e-05
1.568e-05
1.75529e-05
1.75511e-05
1.56762e-05
1.56853e-05
1.56761e-05
1.75467e-05
1.75384e-05
1.75145e-05
1.5677e-05
1.56788e-05
1.56748e-05
1.56812e-05
1.75514e-05
1.75464e-05
1.56778e-05
1.56834e-05
1.56758e-05
1.56819e-05
1.56796e-05
1.56695e-05
1.56789e-05
1.75656e-05
1.75533e-05
1.56761e-05
1.56829e-05
1.56765e-05
1.75479e-05
1.75303e-05
1.75145e-05
1.56744e-05
1.56822e-05
1.56735e-05
1.56843e-05
1.75602e-05
1.75511e-05
1.56753e-05
1.56816e-05
1.56738e-05
1.5681e-05
1.56789e-05
1.56732e-05
1.56802e-05
1.75671e-05
1.75548e-05
1.56767e-05
1.56818e-05
1.56783e-05
1.75576e-05
1.75439e-05
1.75358e-05
1.56735e-05
1.56851e-05
1.56744e-05
1.56873e-05
1.75682e-05
1.75529e-05
1.56738e-05
1.56811e-05
1.56742e-05
1.56819e-05
1.56809e-05
1.5678e-05
1.56835e-05
1.75744e-05
1.75495e-05
1.56791e-05
1.56827e-05
1.56817e-05
1.756e-05
1.75528e-05
1.75407e-05
1.56751e-05
1.56883e-05
1.56773e-05
1.56904e-05
1.75666e-05
1.75443e-05
1.56744e-05
1.56824e-05
1.56761e-05
1.56845e-05
1.56847e-05
1.5684e-05
1.56877e-05
1.75712e-05
1.75572e-05
1.56827e-05
1.56854e-05
1.56852e-05
1.75649e-05
1.7554e-05
1.7519e-05
1.56786e-05
1.56913e-05
1.56812e-05
1.56934e-05
1.75704e-05
1.75686e-05
1.5677e-05
1.56858e-05
1.56791e-05
1.56886e-05
1.56887e-05
1.56902e-05
1.56917e-05
1.75783e-05
1.75667e-05
1.56859e-05
1.56891e-05
1.56875e-05
1.75525e-05
1.75446e-05
1.75333e-05
1.56824e-05
1.56944e-05
1.56863e-05
1.56975e-05
1.75837e-05
1.7579e-05
1.56801e-05
1.56896e-05
1.56838e-05
1.56924e-05
1.56928e-05
1.56959e-05
1.56962e-05
1.75797e-05
1.75702e-05
1.5688e-05
1.56925e-05
1.56899e-05
1.7584e-05
1.75527e-05
1.7553e-05
1.5688e-05
1.56985e-05
1.5693e-05
1.57016e-05
1.75951e-05
1.75889e-05
1.56854e-05
1.56931e-05
1.56907e-05
1.56953e-05
1.56972e-05
1.56988e-05
1.57e-05
1.75882e-05
1.75792e-05
1.56905e-05
1.56956e-05
1.56923e-05
1.75931e-05
1.75746e-05
1.56954e-05
1.57034e-05
1.76083e-05
1.56932e-05
1.56968e-05
1.57014e-05
1.75938e-05
1.56937e-05
4.86042e-05
6.91736e-05
6.91906e-05
4.82948e-05
6.91146e-05
6.91169e-05
4.88131e-05
6.9177e-05
6.91875e-05
4.86727e-05
1.46022e-05
1.45986e-05
1.45986e-05
1.4429e-05
1.4427e-05
1.44233e-05
1.44235e-05
2.56692e-05
4.24567e-05
1.46115e-05
1.56489e-05
4.26502e-05
1.45681e-05
2.54825e-05
6.91074e-05
6.91152e-05
2.56767e-05
1.46105e-05
4.23864e-05
1.56309e-05
1.45671e-05
4.2548e-05
2.54893e-05
5.68795e-05
5.67731e-05
1.71415e-05
5.70245e-05
5.68843e-05
4.9332e-05
6.921e-05
4.91225e-05
6.92182e-05
6.91125e-05
6.91243e-05
4.9193e-05
6.92007e-05
4.91572e-05
6.92062e-05
1.43837e-05
1.43802e-05
1.43803e-05
1.42718e-05
1.42706e-05
1.42685e-05
1.42678e-05
2.63017e-05
4.28551e-05
1.44686e-05
1.56277e-05
2.60359e-05
4.2926e-05
1.44422e-05
6.91098e-05
6.91195e-05
2.62933e-05
1.44679e-05
4.28954e-05
1.5616e-05
2.60314e-05
1.44416e-05
4.29926e-05
5.71827e-05
5.71225e-05
1.72661e-05
5.72155e-05
5.72015e-05
4.93387e-05
6.92105e-05
4.93762e-05
6.92076e-05
6.91196e-05
6.91281e-05
4.92853e-05
6.92112e-05
4.92589e-05
6.92117e-05
1.42446e-05
1.42429e-05
1.42421e-05
1.41799e-05
1.41789e-05
1.41786e-05
1.41771e-05
2.66907e-05
4.30215e-05
1.43852e-05
1.56215e-05
2.66052e-05
4.30442e-05
1.43697e-05
6.91127e-05
6.91199e-05
2.65862e-05
1.43853e-05
4.31165e-05
1.56224e-05
2.65406e-05
1.43698e-05
4.3159e-05
5.72833e-05
5.72536e-05
1.73327e-05
5.72714e-05
5.72543e-05
4.92716e-05
6.92006e-05
4.93544e-05
6.91993e-05
6.91197e-05
6.91263e-05
4.92385e-05
6.92076e-05
4.9289e-05
6.92116e-05
1.41653e-05
1.41655e-05
1.41639e-05
1.41335e-05
1.41328e-05
1.41342e-05
1.41319e-05
2.65729e-05
4.31374e-05
1.43389e-05
1.56237e-05
2.66534e-05
4.31221e-05
1.43304e-05
6.9109e-05
6.91148e-05
2.66753e-05
1.43391e-05
4.32244e-05
1.56303e-05
2.66964e-05
1.43309e-05
4.32189e-05
5.73066e-05
5.72673e-05
1.73752e-05
5.72802e-05
5.72491e-05
4.93267e-05
6.92003e-05
4.93544e-05
6.91988e-05
6.91133e-05
6.91184e-05
4.92544e-05
6.92076e-05
4.92034e-05
6.92078e-05
1.41267e-05
1.41285e-05
1.41266e-05
1.41144e-05
1.41134e-05
1.41164e-05
1.41144e-05
2.6755e-05
4.31433e-05
1.43165e-05
1.56275e-05
2.67082e-05
4.31309e-05
1.43118e-05
6.91009e-05
6.91049e-05
2.67864e-05
1.43179e-05
4.31969e-05
1.5642e-05
2.67361e-05
1.43137e-05
4.32066e-05
5.73192e-05
5.72957e-05
1.74499e-05
5.73246e-05
5.72849e-05
4.93236e-05
6.91908e-05
4.93025e-05
6.9189e-05
6.91035e-05
6.91099e-05
4.93504e-05
6.92078e-05
4.9379e-05
6.92074e-05
1.41101e-05
1.41135e-05
1.41111e-05
1.41084e-05
1.41063e-05
1.41105e-05
1.41076e-05
2.6729e-05
4.31524e-05
1.43071e-05
1.56398e-05
2.68323e-05
4.3141e-05
1.43064e-05
6.90981e-05
6.91104e-05
2.66438e-05
1.43107e-05
4.32864e-05
1.56539e-05
2.6738e-05
1.431e-05
4.32787e-05
5.73137e-05
5.73063e-05
1.74772e-05
5.72847e-05
5.73263e-05
4.92712e-05
6.91867e-05
4.93147e-05
6.91879e-05
6.91041e-05
6.91157e-05
4.93955e-05
6.92095e-05
4.93045e-05
6.92114e-05
1.41058e-05
1.41094e-05
1.41071e-05
1.41073e-05
1.41063e-05
1.41098e-05
1.41075e-05
2.67011e-05
4.31451e-05
1.4308e-05
1.56506e-05
2.67326e-05
4.31588e-05
1.43086e-05
6.91131e-05
6.91275e-05
2.68175e-05
1.43106e-05
4.33106e-05
1.56657e-05
2.67337e-05
1.43108e-05
4.32831e-05
5.73159e-05
5.73589e-05
1.75076e-05
5.73034e-05
5.73646e-05
4.94808e-05
6.92e-05
4.93669e-05
6.92086e-05
6.91154e-05
6.91269e-05
4.9485e-05
6.92111e-05
4.94254e-05
6.9214e-05
1.41067e-05
1.41099e-05
1.41078e-05
1.4108e-05
1.41081e-05
1.41104e-05
1.4109e-05
2.6718e-05
4.32571e-05
1.43118e-05
1.56609e-05
2.67637e-05
4.32312e-05
1.43119e-05
6.9119e-05
6.91264e-05
2.68207e-05
1.43121e-05
4.32832e-05
1.56734e-05
2.68308e-05
1.43125e-05
4.33165e-05
5.73136e-05
5.73555e-05
1.75142e-05
5.73107e-05
5.73712e-05
4.95966e-05
6.92205e-05
4.948e-05
6.92254e-05
6.91212e-05
6.91296e-05
4.94675e-05
6.92215e-05
4.95023e-05
6.9223e-05
1.41084e-05
1.41105e-05
1.41087e-05
1.41083e-05
1.41097e-05
1.41113e-05
1.41096e-05
2.68374e-05
4.33392e-05
1.43149e-05
1.56684e-05
2.68297e-05
4.3309e-05
1.43154e-05
6.91238e-05
6.91373e-05
2.67759e-05
1.43149e-05
4.33383e-05
1.56797e-05
2.68219e-05
1.43154e-05
4.3364e-05
5.73675e-05
5.73885e-05
1.75223e-05
5.73933e-05
5.73487e-05
4.95842e-05
6.92264e-05
4.95989e-05
6.92349e-05
6.91233e-05
6.91323e-05
4.95091e-05
6.92235e-05
4.95336e-05
6.92299e-05
1.41092e-05
1.41112e-05
1.41096e-05
1.4109e-05
1.41101e-05
1.41116e-05
1.41099e-05
2.69842e-05
4.34025e-05
1.43182e-05
1.56702e-05
2.6927e-05
4.34098e-05
1.43189e-05
6.91395e-05
6.91526e-05
2.68738e-05
1.43175e-05
4.34104e-05
1.56837e-05
2.68027e-05
1.43176e-05
4.33705e-05
5.74151e-05
5.73196e-05
1.74931e-05
5.73968e-05
5.73104e-05
4.95456e-05
6.92421e-05
4.96617e-05
6.92513e-05
6.91246e-05
6.91301e-05
4.95926e-05
6.92435e-05
4.95676e-05
6.92543e-05
1.41101e-05
1.41117e-05
1.411e-05
1.41098e-05
1.41102e-05
1.4112e-05
1.41102e-05
2.71237e-05
4.34028e-05
1.43223e-05
1.56691e-05
2.7091e-05
4.34234e-05
1.43226e-05
6.91521e-05
6.91635e-05
2.68289e-05
1.43185e-05
4.34498e-05
1.56863e-05
2.67976e-05
1.43184e-05
4.34601e-05
5.73661e-05
5.73399e-05
1.75194e-05
5.73688e-05
5.73273e-05
4.95313e-05
6.92621e-05
4.95337e-05
6.92709e-05
6.91271e-05
6.91396e-05
4.97238e-05
6.92619e-05
4.9713e-05
6.92652e-05
1.411e-05
1.4112e-05
1.41102e-05
1.41103e-05
1.41101e-05
1.41121e-05
1.41104e-05
2.72971e-05
4.34828e-05
1.43248e-05
1.56691e-05
2.72769e-05
4.35333e-05
1.43251e-05
6.91633e-05
6.91727e-05
2.68545e-05
1.43183e-05
4.35103e-05
1.56887e-05
2.68564e-05
1.43183e-05
4.3568e-05
5.7369e-05
5.73134e-05
1.75226e-05
5.7368e-05
5.73061e-05
4.94877e-05
6.92728e-05
4.95756e-05
6.92766e-05
6.91432e-05
6.91578e-05
4.96271e-05
6.92709e-05
4.96321e-05
6.92766e-05
1.41098e-05
1.41121e-05
1.41101e-05
1.41103e-05
1.41092e-05
1.41114e-05
1.41095e-05
2.73269e-05
4.3635e-05
1.43264e-05
1.56705e-05
2.73243e-05
4.37129e-05
1.43262e-05
6.91655e-05
6.91729e-05
2.68873e-05
1.4319e-05
4.36578e-05
1.56901e-05
2.68748e-05
1.43191e-05
4.37337e-05
5.73908e-05
5.73439e-05
1.75267e-05
5.739e-05
5.73466e-05
4.96701e-05
6.928e-05
4.96112e-05
6.92827e-05
6.91601e-05
6.91732e-05
4.96942e-05
6.92795e-05
4.96692e-05
6.92805e-05
1.4109e-05
1.41107e-05
1.4109e-05
1.41086e-05
1.41074e-05
1.41092e-05
1.41077e-05
2.73502e-05
4.37571e-05
1.43269e-05
1.56727e-05
2.73508e-05
4.37574e-05
1.43269e-05
6.91634e-05
6.91687e-05
2.67651e-05
1.43197e-05
4.37768e-05
1.56897e-05
2.67771e-05
1.43195e-05
4.37752e-05
5.74265e-05
5.73805e-05
1.75378e-05
5.74499e-05
5.74066e-05
4.96487e-05
6.92838e-05
4.97089e-05
6.92854e-05
6.91707e-05
6.9178e-05
4.95955e-05
6.92805e-05
4.95852e-05
6.92803e-05
1.41065e-05
1.41085e-05
1.41069e-05
1.4105e-05
1.41039e-05
1.41062e-05
1.41046e-05
2.73845e-05
4.37731e-05
1.43265e-05
1.56727e-05
2.73779e-05
4.37689e-05
1.43259e-05
6.91607e-05
6.91716e-05
2.68867e-05
1.432e-05
4.37858e-05
1.56889e-05
2.69122e-05
1.43197e-05
4.37816e-05
5.73795e-05
5.74107e-05
1.75524e-05
5.73562e-05
5.73676e-05
4.97932e-05
6.92865e-05
4.97828e-05
6.92908e-05
6.91671e-05
6.91768e-05
4.96467e-05
6.92804e-05
4.95516e-05
6.92848e-05
1.41031e-05
1.41051e-05
1.41035e-05
1.41022e-05
1.41003e-05
1.4103e-05
1.41013e-05
2.74278e-05
4.37769e-05
1.43248e-05
1.56699e-05
2.74215e-05
4.37675e-05
1.43237e-05
6.91715e-05
6.91824e-05
2.6907e-05
1.43196e-05
4.37923e-05
1.56882e-05
2.68688e-05
1.43193e-05
4.37898e-05
5.74125e-05
5.73675e-05
1.75344e-05
5.74231e-05
5.73757e-05
4.9879e-05
6.92872e-05
4.98505e-05
6.92865e-05
6.91741e-05
6.91838e-05
4.96728e-05
6.9285e-05
4.96942e-05
6.92883e-05
1.40995e-05
1.41022e-05
1.41007e-05
1.40994e-05
1.40979e-05
1.41003e-05
1.40985e-05
2.74802e-05
4.37724e-05
1.43235e-05
1.56678e-05
2.7469e-05
4.37659e-05
1.4323e-05
6.91801e-05
6.91877e-05
2.70235e-05
1.43198e-05
4.38026e-05
1.56865e-05
2.69725e-05
1.43199e-05
4.37989e-05
5.73315e-05
5.73665e-05
1.75284e-05
5.73503e-05
5.73189e-05
4.98973e-05
6.92846e-05
4.98756e-05
6.92851e-05
6.91786e-05
6.91886e-05
4.98603e-05
6.92888e-05
4.97871e-05
6.92899e-05
1.40969e-05
1.40997e-05
1.40977e-05
1.40974e-05
1.40969e-05
1.40986e-05
1.40971e-05
2.75312e-05
4.37778e-05
1.43233e-05
1.56684e-05
2.75218e-05
4.37772e-05
1.43236e-05
6.91799e-05
6.91882e-05
2.71117e-05
1.43214e-05
4.38073e-05
1.56841e-05
2.70903e-05
1.43217e-05
4.38022e-05
5.73586e-05
5.73348e-05
1.75487e-05
5.74171e-05
5.7367e-05
4.99762e-05
6.92859e-05
4.99306e-05
6.92883e-05
6.91866e-05
6.91969e-05
4.97818e-05
6.92884e-05
4.9772e-05
6.92891e-05
1.40973e-05
1.40977e-05
1.40965e-05
1.40968e-05
1.40984e-05
1.40981e-05
1.40975e-05
2.75804e-05
4.37934e-05
1.43255e-05
1.56712e-05
2.75716e-05
4.37921e-05
1.43258e-05
6.91811e-05
6.91901e-05
2.72372e-05
1.43238e-05
4.38127e-05
1.56821e-05
2.72019e-05
1.43241e-05
4.38075e-05
5.74316e-05
5.73621e-05
1.75475e-05
5.744e-05
5.74065e-05
5.00744e-05
6.92911e-05
5.00158e-05
6.92919e-05
6.91898e-05
6.9198e-05
4.99233e-05
6.92895e-05
4.98728e-05
6.92912e-05
1.40982e-05
1.40983e-05
1.40978e-05
1.40979e-05
1.40999e-05
1.40995e-05
1.40992e-05
2.762e-05
4.38065e-05
1.43281e-05
1.56754e-05
2.76165e-05
4.38038e-05
1.43286e-05
6.91874e-05
6.91976e-05
2.73107e-05
1.43271e-05
4.38131e-05
1.56819e-05
2.72883e-05
1.43274e-05
4.38069e-05
5.74354e-05
5.74141e-05
1.75627e-05
5.74513e-05
5.74158e-05
5.00288e-05
6.92987e-05
5.01388e-05
6.92998e-05
6.91944e-05
6.92024e-05
4.99465e-05
6.92908e-05
4.99309e-05
6.92915e-05
1.41009e-05
1.40997e-05
1.40998e-05
1.41002e-05
1.41032e-05
1.41016e-05
1.41025e-05
2.76598e-05
4.38155e-05
1.4332e-05
1.56808e-05
2.76544e-05
4.38122e-05
1.43326e-05
6.91968e-05
6.92081e-05
2.74584e-05
1.43307e-05
4.3814e-05
1.56838e-05
2.73599e-05
1.43312e-05
4.38081e-05
5.74352e-05
5.7447e-05
1.75741e-05
5.74226e-05
5.74709e-05
5.00528e-05
6.92975e-05
5.007e-05
6.93016e-05
6.91971e-05
6.92088e-05
4.99834e-05
6.9289e-05
4.99372e-05
6.92895e-05
1.41033e-05
1.41027e-05
1.41025e-05
1.4103e-05
1.41064e-05
1.41053e-05
1.41049e-05
2.76994e-05
4.38262e-05
1.43361e-05
1.56871e-05
2.76928e-05
4.38229e-05
1.43365e-05
6.92065e-05
6.92186e-05
2.7626e-05
1.43339e-05
4.38135e-05
1.56873e-05
2.76134e-05
1.43341e-05
4.38081e-05
5.73246e-05
5.74161e-05
1.75694e-05
5.73044e-05
5.73765e-05
4.99506e-05
6.93103e-05
4.99608e-05
6.93126e-05
6.92093e-05
6.92202e-05
5.0047e-05
6.92932e-05
5.00834e-05
6.92966e-05
1.41068e-05
1.41055e-05
1.41054e-05
1.41064e-05
1.41089e-05
1.41072e-05
1.41077e-05
2.77237e-05
4.3832e-05
1.43396e-05
1.56933e-05
2.77251e-05
4.38248e-05
1.43401e-05
6.92154e-05
6.92241e-05
2.76509e-05
1.4336e-05
4.38174e-05
1.56908e-05
2.76511e-05
1.43359e-05
4.38131e-05
5.73374e-05
5.73257e-05
1.7576e-05
5.7331e-05
5.73466e-05
4.97063e-05
6.93082e-05
4.97248e-05
6.93079e-05
6.9217e-05
6.92308e-05
4.98836e-05
6.9301e-05
5.00075e-05
6.93031e-05
1.41092e-05
1.41078e-05
1.41078e-05
1.41089e-05
1.41111e-05
1.41096e-05
1.41095e-05
2.77348e-05
4.38357e-05
1.43424e-05
1.56976e-05
2.774e-05
4.38325e-05
1.43428e-05
6.92208e-05
6.92321e-05
2.76682e-05
1.43375e-05
4.38212e-05
1.56941e-05
2.76699e-05
1.43372e-05
4.38181e-05
5.73739e-05
5.73672e-05
1.75786e-05
5.7398e-05
5.737e-05
4.95967e-05
6.93021e-05
4.95964e-05
6.93018e-05
6.92292e-05
6.92396e-05
4.97765e-05
6.93062e-05
4.97423e-05
6.93077e-05
1.41109e-05
1.41096e-05
1.41095e-05
2.77419e-05
4.38411e-05
1.4344e-05
1.57001e-05
2.77475e-05
4.38353e-05
1.43446e-05
6.92328e-05
6.92431e-05
2.76828e-05
1.43382e-05
4.38331e-05
1.56972e-05
2.76861e-05
1.43383e-05
4.3832e-05
5.7421e-05
5.74076e-05
1.75939e-05
5.74483e-05
5.73845e-05
6.90878e-05
6.91046e-05
6.90927e-05
6.91077e-05
5.68698e-05
5.68704e-05
1.71871e-05
5.69693e-05
5.69475e-05
6.91156e-05
6.91e-05
6.91193e-05
6.91027e-05
1.72253e-05
5.71385e-05
5.71085e-05
5.70349e-05
5.69945e-05
4.86314e-05
6.91996e-05
6.92061e-05
4.83304e-05
2.58022e-05
4.24098e-05
1.46106e-05
1.56457e-05
4.26153e-05
1.45665e-05
2.55521e-05
2.5842e-05
4.23772e-05
1.46149e-05
1.5645e-05
4.2574e-05
1.45702e-05
2.56266e-05
4.86955e-05
6.92072e-05
6.91923e-05
4.9033e-05
4.87538e-05
6.92089e-05
6.92059e-05
4.90526e-05
2.58942e-05
1.56373e-05
4.28784e-05
1.44964e-05
4.26836e-05
1.45311e-05
2.61918e-05
2.592e-05
1.56384e-05
4.28598e-05
1.44995e-05
4.26496e-05
1.45349e-05
2.61677e-05
5.70288e-05
5.70759e-05
1.71795e-05
5.70082e-05
5.71023e-05
6.91162e-05
6.91186e-05
6.91192e-05
6.91086e-05
1.7225e-05
5.70953e-05
5.71451e-05
5.7016e-05
5.71143e-05
6.91154e-05
6.91091e-05
2.57748e-05
4.23682e-05
1.46105e-05
1.56383e-05
4.25062e-05
1.45657e-05
2.56192e-05
4.86207e-05
6.91865e-05
6.91888e-05
4.83594e-05
2.57315e-05
1.46082e-05
4.23247e-05
1.56265e-05
1.4563e-05
4.24915e-05
2.55525e-05
4.88217e-05
6.91987e-05
6.91889e-05
4.90506e-05
2.58403e-05
1.56298e-05
4.27799e-05
1.4494e-05
4.25629e-05
1.45295e-05
2.60166e-05
4.86995e-05
6.92026e-05
6.91899e-05
4.90106e-05
2.58042e-05
1.56189e-05
1.44916e-05
4.28487e-05
1.45272e-05
4.25743e-05
2.60198e-05
4.85557e-05
6.91843e-05
6.91845e-05
4.82474e-05
2.58398e-05
1.46136e-05
4.24195e-05
1.56418e-05
1.45691e-05
4.26156e-05
2.56097e-05
4.8655e-05
6.91998e-05
6.92106e-05
4.8322e-05
2.57443e-05
1.56413e-05
4.27604e-05
1.44968e-05
4.27058e-05
1.45307e-05
2.59486e-05
4.86167e-05
6.91809e-05
6.91829e-05
4.88951e-05
2.59254e-05
1.56368e-05
1.44985e-05
4.28243e-05
1.45336e-05
4.26851e-05
2.61678e-05
4.87403e-05
6.92119e-05
6.92104e-05
4.90965e-05
5.69716e-05
5.68812e-05
1.71518e-05
5.70506e-05
5.70075e-05
6.90979e-05
6.91131e-05
6.91168e-05
6.91077e-05
1.71886e-05
5.70984e-05
5.71079e-05
5.7063e-05
5.70436e-05
6.91208e-05
6.91074e-05
2.57041e-05
1.46093e-05
4.22672e-05
1.56207e-05
1.45641e-05
4.24855e-05
2.5536e-05
4.85139e-05
6.91834e-05
6.91865e-05
4.85137e-05
4.84581e-05
6.91524e-05
6.91678e-05
4.83141e-05
2.57546e-05
1.5623e-05
1.44958e-05
4.2787e-05
1.45297e-05
4.26668e-05
2.59496e-05
2.57565e-05
1.56136e-05
1.44921e-05
4.27476e-05
1.45278e-05
4.25378e-05
2.59613e-05
4.85474e-05
6.9198e-05
6.9188e-05
4.88123e-05
4.85562e-05
6.91823e-05
6.9169e-05
4.88879e-05
6.9096e-05
6.91121e-05
6.9067e-05
6.90873e-05
1.71873e-05
5.71701e-05
5.70763e-05
5.70671e-05
5.69313e-05
6.91173e-05
6.91063e-05
6.91044e-05
6.90838e-05
6.91094e-05
6.91183e-05
6.91138e-05
6.91274e-05
5.71552e-05
5.7139e-05
1.72846e-05
5.72074e-05
5.72405e-05
6.911e-05
6.91086e-05
6.9127e-05
6.91204e-05
1.73107e-05
5.72016e-05
5.7261e-05
5.71811e-05
5.72543e-05
4.92268e-05
6.92078e-05
4.90968e-05
6.92093e-05
2.63964e-05
4.29481e-05
1.44698e-05
1.5627e-05
2.62779e-05
4.30301e-05
1.44427e-05
2.64801e-05
4.28924e-05
1.44726e-05
1.56304e-05
2.62628e-05
4.29578e-05
1.44448e-05
4.93497e-05
6.92123e-05
6.92157e-05
4.93619e-05
4.92924e-05
6.92071e-05
6.92085e-05
4.9332e-05
2.6513e-05
1.56264e-05
4.30762e-05
1.44028e-05
4.3034e-05
1.4423e-05
2.65489e-05
2.65163e-05
1.56293e-05
4.30472e-05
1.44037e-05
4.30044e-05
1.44245e-05
2.66359e-05
5.7119e-05
5.71626e-05
1.7273e-05
5.72032e-05
5.72118e-05
6.91068e-05
6.91151e-05
6.9127e-05
6.91171e-05
1.73151e-05
5.72712e-05
5.72497e-05
5.72105e-05
5.72284e-05
6.91147e-05
6.91069e-05
2.63076e-05
4.28512e-05
1.44669e-05
1.56206e-05
2.61456e-05
4.29947e-05
1.44394e-05
4.92199e-05
6.92043e-05
4.9119e-05
6.92078e-05
2.63739e-05
1.4465e-05
4.2886e-05
1.56098e-05
2.61355e-05
1.44375e-05
4.30031e-05
4.92724e-05
6.92118e-05
6.92066e-05
4.92834e-05
2.64222e-05
1.56204e-05
4.31146e-05
1.43995e-05
4.30254e-05
1.44195e-05
2.64881e-05
4.93093e-05
6.92032e-05
6.92052e-05
4.92537e-05
2.64303e-05
1.56104e-05
1.43982e-05
4.30647e-05
1.44181e-05
4.30451e-05
2.65302e-05
4.93176e-05
6.91794e-05
4.90077e-05
6.91808e-05
2.63809e-05
1.44715e-05
4.29147e-05
1.56272e-05
2.62198e-05
1.44437e-05
4.30151e-05
4.9345e-05
6.92099e-05
4.91859e-05
6.92072e-05
2.64304e-05
1.56254e-05
4.30206e-05
1.44009e-05
4.2973e-05
1.44202e-05
2.6556e-05
4.93512e-05
6.9182e-05
6.91801e-05
4.92455e-05
2.65217e-05
1.56253e-05
1.44028e-05
4.31132e-05
1.44233e-05
4.30632e-05
2.65555e-05
4.94235e-05
6.92036e-05
6.92045e-05
4.93623e-05
5.7134e-05
5.71264e-05
1.72536e-05
5.71769e-05
5.72032e-05
6.91147e-05
6.91278e-05
6.91207e-05
6.91122e-05
1.72822e-05
5.72373e-05
5.72721e-05
5.72108e-05
5.72434e-05
6.91324e-05
6.91214e-05
2.63247e-05
1.44651e-05
4.28307e-05
1.56079e-05
2.60673e-05
1.44376e-05
4.2914e-05
4.91939e-05
6.91991e-05
4.89217e-05
6.92032e-05
4.91563e-05
6.91863e-05
4.89773e-05
6.91976e-05
2.63601e-05
1.56171e-05
1.44008e-05
4.30986e-05
1.442e-05
4.30192e-05
2.65193e-05
2.63422e-05
1.56094e-05
1.43983e-05
4.30947e-05
1.44181e-05
4.3042e-05
2.64479e-05
4.91844e-05
6.9206e-05
6.92025e-05
4.92886e-05
4.91461e-05
6.92077e-05
6.92013e-05
4.92121e-05
6.91092e-05
6.9115e-05
6.91002e-05
6.91146e-05
1.72918e-05
5.72452e-05
5.72827e-05
5.72119e-05
5.72216e-05
6.91116e-05
6.9106e-05
6.91164e-05
6.91076e-05
6.90998e-05
6.91019e-05
6.91182e-05
6.91227e-05
5.72059e-05
5.72684e-05
1.73506e-05
5.72005e-05
5.72457e-05
6.90989e-05
6.90927e-05
6.91191e-05
6.91145e-05
1.73718e-05
5.72295e-05
5.72529e-05
5.72016e-05
5.72862e-05
4.91958e-05
6.92026e-05
4.93381e-05
6.92008e-05
2.66195e-05
4.31444e-05
1.43875e-05
1.56239e-05
2.65748e-05
4.31252e-05
1.4371e-05
2.66428e-05
4.30789e-05
1.43878e-05
1.56257e-05
2.66665e-05
4.31726e-05
1.43708e-05
4.93745e-05
6.92023e-05
6.92051e-05
4.9324e-05
4.9218e-05
6.91976e-05
6.91984e-05
4.92761e-05
2.66795e-05
1.56231e-05
4.31377e-05
1.43484e-05
4.31509e-05
1.436e-05
2.67596e-05
2.66551e-05
1.56257e-05
4.31998e-05
1.43479e-05
4.31599e-05
1.43596e-05
2.67217e-05
5.72874e-05
5.72431e-05
1.73434e-05
5.73145e-05
5.72572e-05
6.91054e-05
6.91108e-05
6.91276e-05
6.91203e-05
1.73751e-05
5.73233e-05
5.72853e-05
5.73252e-05
5.72794e-05
6.9107e-05
6.91019e-05
2.66758e-05
4.31309e-05
1.43843e-05
1.56198e-05
2.65452e-05
4.31477e-05
1.43683e-05
4.93071e-05
6.92014e-05
4.93228e-05
6.92e-05
2.66844e-05
1.43835e-05
4.31509e-05
1.56174e-05
2.6594e-05
1.43674e-05
4.30813e-05
4.92894e-05
6.92095e-05
6.92101e-05
4.92788e-05
2.67036e-05
1.562e-05
4.31751e-05
1.43464e-05
4.31558e-05
1.43576e-05
2.67176e-05
4.93458e-05
6.91981e-05
6.91986e-05
4.92603e-05
2.66764e-05
1.56199e-05
1.43463e-05
4.31593e-05
1.43573e-05
4.31444e-05
2.67323e-05
4.92539e-05
6.91806e-05
4.92435e-05
6.91808e-05
2.66379e-05
1.43871e-05
4.31258e-05
1.56219e-05
2.66489e-05
1.43705e-05
4.30965e-05
4.94445e-05
6.92016e-05
4.94347e-05
6.92e-05
2.67305e-05
1.56216e-05
4.31209e-05
1.43467e-05
4.30313e-05
1.43577e-05
2.6667e-05
4.92671e-05
6.9179e-05
6.91789e-05
4.90757e-05
2.67405e-05
1.5622e-05
1.43483e-05
4.31359e-05
1.43597e-05
4.308e-05
2.67804e-05
4.94185e-05
6.91935e-05
6.9197e-05
4.93383e-05
5.7241e-05
5.72777e-05
1.7325e-05
5.72744e-05
5.73055e-05
6.91251e-05
6.91341e-05
6.91176e-05
6.9112e-05
1.73644e-05
5.73263e-05
5.73114e-05
5.73181e-05
5.73237e-05
6.91356e-05
6.91268e-05
2.65544e-05
1.43834e-05
4.311e-05
1.56144e-05
2.65523e-05
1.43677e-05
4.30947e-05
4.92797e-05
6.92052e-05
4.93085e-05
6.92068e-05
4.92129e-05
6.92074e-05
4.92662e-05
6.92085e-05
2.66638e-05
1.56237e-05
1.43468e-05
4.31881e-05
1.43578e-05
4.31486e-05
2.66832e-05
2.6648e-05
1.56156e-05
1.43465e-05
4.3199e-05
1.43574e-05
4.31715e-05
2.67078e-05
4.92358e-05
6.92065e-05
6.92053e-05
4.92824e-05
4.92072e-05
6.92066e-05
6.92069e-05
4.91827e-05
6.91032e-05
6.91076e-05
6.91073e-05
6.91109e-05
1.7357e-05
5.7301e-05
5.72499e-05
5.72709e-05
5.72654e-05
6.91054e-05
6.90987e-05
6.91098e-05
6.91023e-05
6.90909e-05
6.9099e-05
6.91101e-05
6.91148e-05
5.72292e-05
5.72637e-05
1.73683e-05
5.72371e-05
5.72446e-05
6.91004e-05
6.90911e-05
6.9114e-05
6.91062e-05
1.74125e-05
5.7211e-05
5.72556e-05
5.72242e-05
5.72276e-05
4.9229e-05
6.91947e-05
4.93002e-05
6.91928e-05
2.6774e-05
4.3173e-05
1.43403e-05
1.56241e-05
2.67764e-05
4.31947e-05
1.43312e-05
2.67584e-05
4.32254e-05
1.43398e-05
1.563e-05
2.6717e-05
4.31609e-05
1.43308e-05
4.92398e-05
6.92015e-05
6.91986e-05
4.92839e-05
4.92768e-05
6.91912e-05
6.91907e-05
4.92541e-05
2.67789e-05
1.56269e-05
4.322e-05
1.43215e-05
4.32168e-05
1.4326e-05
2.67728e-05
2.6789e-05
1.56315e-05
4.3255e-05
1.43211e-05
4.31718e-05
1.43258e-05
2.67939e-05
5.73374e-05
5.72811e-05
1.74255e-05
5.73322e-05
5.72648e-05
6.90973e-05
6.91013e-05
6.91219e-05
6.91178e-05
1.74471e-05
5.72857e-05
5.72572e-05
5.73365e-05
5.72739e-05
6.90989e-05
6.90922e-05
2.67243e-05
4.32045e-05
1.43386e-05
1.5622e-05
2.6679e-05
4.32083e-05
1.43298e-05
4.92127e-05
6.91956e-05
4.92641e-05
6.91935e-05
2.66703e-05
1.4339e-05
4.31629e-05
1.56263e-05
2.67536e-05
1.43305e-05
4.3212e-05
4.91672e-05
6.92091e-05
6.92108e-05
4.91847e-05
2.67345e-05
1.56244e-05
4.3209e-05
1.43204e-05
4.3212e-05
1.43248e-05
2.66523e-05
4.92906e-05
6.91921e-05
6.91921e-05
4.93151e-05
2.67035e-05
1.56296e-05
1.43221e-05
4.32575e-05
1.43261e-05
4.32535e-05
2.66714e-05
4.91402e-05
6.91776e-05
4.91125e-05
6.91778e-05
2.67627e-05
1.43403e-05
4.31422e-05
1.56249e-05
2.67918e-05
1.43315e-05
4.31974e-05
4.93744e-05
6.91911e-05
4.93137e-05
6.91894e-05
2.66509e-05
1.56239e-05
4.31343e-05
1.43194e-05
4.3167e-05
1.43239e-05
2.66974e-05
4.91474e-05
6.91761e-05
6.91766e-05
4.92116e-05
2.67378e-05
1.56274e-05
1.43221e-05
4.31732e-05
1.43263e-05
4.32151e-05
2.67359e-05
4.93401e-05
6.91862e-05
6.9188e-05
4.93558e-05
5.73288e-05
5.73317e-05
1.74083e-05
5.73292e-05
5.72873e-05
6.91285e-05
6.9135e-05
6.91107e-05
6.91063e-05
1.74339e-05
5.73178e-05
5.72738e-05
5.73543e-05
5.72989e-05
6.91278e-05
6.9126e-05
2.66541e-05
1.43387e-05
4.32059e-05
1.56188e-05
2.67337e-05
1.43298e-05
4.31695e-05
4.92819e-05
6.9206e-05
4.92813e-05
6.92093e-05
4.9171e-05
6.92038e-05
4.92484e-05
6.92051e-05
2.66627e-05
1.56337e-05
1.43203e-05
4.31916e-05
1.43246e-05
4.32253e-05
2.66763e-05
2.6733e-05
1.56215e-05
1.43202e-05
4.3164e-05
1.43248e-05
4.31951e-05
2.67446e-05
4.92838e-05
6.92067e-05
6.9209e-05
4.92838e-05
4.91497e-05
6.92082e-05
6.92055e-05
4.9248e-05
6.90972e-05
6.91045e-05
6.91025e-05
6.91117e-05
1.74182e-05
5.7312e-05
5.72933e-05
5.72877e-05
5.72825e-05
6.91055e-05
6.90967e-05
6.91137e-05
6.91047e-05
6.90942e-05
6.91064e-05
6.91063e-05
6.91144e-05
5.72489e-05
5.72688e-05
1.74583e-05
5.72643e-05
5.72623e-05
6.91105e-05
6.90998e-05
6.91175e-05
6.91069e-05
1.74768e-05
5.73116e-05
5.7263e-05
5.72661e-05
5.72665e-05
4.9264e-05
6.91902e-05
4.92777e-05
6.91921e-05