/*--------------------------------*- C++ -*----------------------------------*\
| =========                 |                                                 |
| \\      /  F ield         | OpenFOAM: The Open Source CFD Toolbox           |
|  \\    /   O peration     | Version:  2312                                  |
|   \\  /    A nd           | Website:  www.openfoam.com                      |
|    \\/     M anipulation  |                                                 |
\*---------------------------------------------------------------------------*/
FoamFile
{
    version     2.0;
    format      ascii;
    arch        "LSB;label=32;scalar=64";
    class       volScalarField;
    location    "100";
    object      nut;
}
// * * * * * * * * * * * * * * * * * * * * * * * * * * * * * * * * * * * * * //

dimensions      [0 2 -1 0 0 0 0];

internalField   nonuniform List<scalar> 
42840
(
0.000150584
0.000103159
0.000103133
8.29854e-05
0.00014914
0.000102126
0.000102104
8.26116e-05
0.000148308
0.000101497
0.000101515
8.23886e-05
0.000147876
0.000101148
0.000101176
8.21247e-05
0.000147642
0.000101015
0.000101036
8.23217e-05
0.000147471
0.000100984
0.000101002
8.24928e-05
0.000147379
0.000100984
0.000101013
8.25861e-05
0.000147368
0.000100976
0.000101015
8.25775e-05
0.00014736
0.000100989
0.000101008
8.23516e-05
0.000147357
0.000101001
0.000100996
8.21914e-05
0.000147362
0.000100986
0.000100987
8.24337e-05
0.000147365
0.000100978
0.00010098
8.2565e-05
0.000147359
0.000100982
0.000100993
8.25109e-05
0.000147341
0.000100963
0.000100989
8.25722e-05
0.000147301
0.000100947
0.000100965
8.26206e-05
0.000147237
0.000100916
0.000100932
8.24033e-05
0.000147185
0.000100889
0.000100909
8.2485e-05
0.000147148
0.000100866
0.000100878
8.25619e-05
0.000147133
0.000100853
0.000100864
8.25591e-05
0.000147147
0.000100845
0.000100878
8.25711e-05
0.000147185
0.000100862
0.000100908
8.2659e-05
0.00014723
0.000100886
0.00010092
8.26188e-05
0.000147264
0.000100898
0.000100942
8.25571e-05
0.000147286
0.000100918
0.000100944
8.26891e-05
0.000147275
0.000100935
0.000100949
8.27381e-05
8.31416e-05
8.28251e-05
0.000103109
0.000103095
0.000102336
0.00010233
8.31792e-05
8.2849e-05
0.000103127
0.000103068
0.000102366
0.000102315
0.000103093
0.000102375
0.000102338
8.31382e-05
8.28753e-05
0.000103085
0.000102353
0.000102312
8.28283e-05
8.27306e-05
8.25597e-05
0.000102122
0.000102099
0.000101659
0.000101619
8.27708e-05
8.26247e-05
0.000102132
0.000102077
0.000101665
0.000101619
0.000102105
0.000101655
0.00010161
8.26459e-05
8.2627e-05
0.000102083
0.000101659
0.000101633
8.25767e-05
8.25314e-05
8.23154e-05
0.000101544
0.000101508
0.000101214
0.000101199
8.24451e-05
8.22473e-05
0.000101546
0.000101509
0.000101242
0.000101237
0.000101507
0.000101225
0.00010122
8.24563e-05
8.24137e-05
0.000101522
0.000101268
0.000101236
8.2134e-05
8.21295e-05
8.23765e-05
0.00010116
0.000101176
0.000101021
0.00010107
8.22452e-05
8.25704e-05
0.00010119
0.000101192
0.000101046
0.000101041
0.000101176
0.000101047
0.000101031
8.22541e-05
8.23234e-05
0.000101185
0.000101075
0.00010103
8.22492e-05
8.23639e-05
8.26221e-05
0.000101033
0.000101053
0.000100976
0.000100967
8.2442e-05
8.27198e-05
0.000101044
0.000101042
0.000100982
0.000100988
0.000101047
0.000100999
0.000101014
8.2408e-05
8.26625e-05
0.000101032
0.000101019
0.000100985
8.24927e-05
8.2517e-05
8.27741e-05
0.000100996
0.000100983
0.000100978
0.000100969
8.25455e-05
8.25753e-05
0.000101
0.000101009
0.000100983
0.000100988
0.000101027
0.000101001
0.000100994
8.25971e-05
8.27499e-05
0.000101007
0.000101025
0.000100992
8.26648e-05
8.23838e-05
8.24606e-05
0.00010099
0.000100986
0.000100968
0.000100957
8.25517e-05
8.26901e-05
0.000101002
0.000101023
0.000100992
0.000101007
0.000101008
0.000101004
0.000100972
8.2771e-05
8.28825e-05
0.000101022
0.000101037
0.000100998
8.26646e-05
8.24865e-05
8.26433e-05
0.000100986
0.000100975
0.000100969
0.000100956
8.25495e-05
8.27353e-05
0.00010101
0.000101015
0.000100988
0.00010098
0.000100981
0.000101002
0.000100954
8.27059e-05
8.28338e-05
0.000101008
0.000101023
0.000100991
8.23865e-05
8.25494e-05
8.27629e-05
0.000100979
0.000100982
0.000100965
0.000100966
8.23653e-05
8.25236e-05
0.000101
0.000101003
0.000100984
0.000100978
0.000100983
0.000101006
0.000100958
8.27105e-05
8.25836e-05
0.000101009
0.00010101
0.00010098
8.22438e-05
8.25805e-05
8.2596e-05
0.000100976
0.000100979
0.000100958
0.000100968
8.24777e-05
8.26186e-05
0.000100998
0.000100984
0.000100982
0.000100958
0.000100973
0.000100992
0.000100958
8.24872e-05
8.25777e-05
0.00010097
0.000100995
0.000100961
8.24662e-05
8.24268e-05
8.26184e-05
0.000100981
0.000100968
0.000100958
0.000100953
8.25407e-05
8.26491e-05
0.000100994
0.000100967
0.000100982
0.000100952
0.000100968
0.000100977
0.000100967
8.2264e-05
8.2677e-05
0.00010097
0.00010098
0.000100966
8.26314e-05
8.24791e-05
8.26832e-05
0.000100963
0.000100959
0.000100952
0.00010096
8.24928e-05
8.27046e-05
0.000100993
0.000100959
0.000100978
0.000100945
0.000100975
0.000100988
0.000100974
8.2505e-05
8.26982e-05
0.000100967
0.000100991
0.000100968
8.26533e-05
8.25822e-05
8.26963e-05
0.000100965
0.000100961
0.000100951
0.000100939
8.25494e-05
8.27235e-05
0.000100991
0.00010095
0.000100983
0.000100939
0.00010098
0.000100981
0.000100977
8.26192e-05
8.26004e-05
0.000100969
0.000100996
0.000100948
8.26393e-05
8.26827e-05
8.27383e-05
0.000100956
0.000100942
0.000100932
0.000100921
8.26112e-05
8.24773e-05
0.000100985
0.000100938
0.000100965
0.000100916
0.000100968
0.000100956
0.000100943
8.23468e-05
8.26109e-05
0.00010095
0.000100973
0.000100922
8.27004e-05
8.26441e-05
8.26427e-05
0.000100936
0.000100916
0.000100912
0.000100888
8.23937e-05
8.25941e-05
0.000100965
0.00010091
0.000100939
0.000100885
0.000100943
0.000100928
0.000100918
8.25974e-05
8.28018e-05
0.000100931
0.000100942
0.000100904
8.24816e-05
8.23499e-05
8.26564e-05
0.000100904
0.000100886
0.000100879
0.000100863
8.25646e-05
8.27025e-05
0.000100932
0.000100892
0.000100908
0.00010086
0.000100914
0.000100897
0.000100886
8.24248e-05
8.24703e-05
0.000100908
0.000100921
0.000100884
8.25844e-05
8.22964e-05
8.25486e-05
0.00010087
0.000100858
0.000100853
0.000100825
8.26213e-05
8.26909e-05
0.000100901
0.000100856
0.000100884
0.000100839
0.000100877
0.00010088
0.000100853
8.23803e-05
8.2637e-05
0.000100887
0.000100888
0.000100876
8.26684e-05
8.24312e-05
8.25637e-05
0.000100861
0.000100849
0.000100839
0.00010083
8.25635e-05
8.27689e-05
0.000100879
0.000100831
0.00010086
0.000100821
0.000100864
0.00010086
0.000100864
8.25328e-05
8.26847e-05
0.000100876
0.00010087
0.000100878
8.26762e-05
8.24027e-05
8.25876e-05
0.000100848
0.00010084
0.000100851
0.00010083
8.25734e-05
8.27574e-05
0.000100872
0.000100822
0.000100868
0.000100836
0.000100866
0.000100861
0.000100871
8.25954e-05
8.27472e-05
0.000100883
0.000100871
0.000100892
8.27248e-05
8.25564e-05
8.27783e-05
0.00010086
0.000100844
0.000100866
0.000100845
8.26021e-05
8.26902e-05
0.00010089
0.000100846
0.000100894
0.000100855
0.000100867
0.000100874
0.000100863
8.26466e-05
8.2733e-05
0.000100894
0.000100906
0.000100892
8.26694e-05
8.26212e-05
8.2782e-05
0.000100874
0.000100857
0.000100869
0.000100863
8.25832e-05
8.25786e-05
0.000100893
0.000100861
0.000100891
0.000100856
0.000100887
0.000100886
0.000100885
8.26245e-05
8.2788e-05
0.000100908
0.000100915
0.000100913
8.26941e-05
8.26536e-05
8.25656e-05
0.000100885
0.000100879
0.000100886
0.000100882
8.25981e-05
8.27602e-05
0.000100901
0.000100877
0.000100906
0.000100879
0.000100896
0.000100904
0.000100897
8.26709e-05
8.28525e-05
0.000100932
0.000100948
0.000100931
8.25895e-05
8.25875e-05
8.26454e-05
0.000100883
0.000100891
0.000100874
0.000100892
8.2671e-05
8.27845e-05
0.0001009
0.000100894
0.000100882
0.000100902
0.000100912
0.000100923
0.000100914
8.26584e-05
8.28497e-05
0.000100938
0.000100951
0.000100942
8.2801e-05
8.25961e-05
8.26673e-05
0.00010089
0.000100901
0.000100881
0.000100886
8.27061e-05
8.2825e-05
0.000100916
0.000100904
0.000100901
0.000100889
0.000100924
0.000100933
0.000100925
8.27014e-05
8.28934e-05
0.000100955
0.000100952
0.000100945
8.28213e-05
8.26289e-05
0.000100901
0.00010091
8.27792e-05
0.000100922
0.00010091
0.000100942
8.26867e-05
0.000100965
6.31588e-05
4.92595e-05
4.92663e-05
6.2622e-05
2.35341e-05
2.35327e-05
6.3481e-05
4.92539e-05
4.9262e-05
6.32448e-05
0.000150548
0.000150553
0.00015054
0.000149386
0.000149283
0.000149291
0.000149272
6.10528e-05
6.17469e-05
0.000127528
0.000102918
6.22761e-05
0.000127115
6.03835e-05
2.35301e-05
2.35313e-05
6.09473e-05
0.000127526
6.16058e-05
0.000102893
0.000127124
6.19164e-05
6.03573e-05
5.85014e-05
5.83555e-05
8.28779e-05
5.8744e-05
5.85344e-05
6.44665e-05
4.92752e-05
6.40353e-05
4.92837e-05
2.35308e-05
2.35334e-05
6.42272e-05
4.92673e-05
6.41215e-05
4.9271e-05
0.000149076
0.000149086
0.000149062
0.000148405
0.000148319
0.000148332
0.000148305
6.23608e-05
6.25373e-05
0.000126137
0.000102
6.16053e-05
6.28144e-05
0.000125878
2.353e-05
2.35319e-05
6.23958e-05
0.000126142
6.26417e-05
0.000101985
6.15713e-05
0.000125891
6.28091e-05
5.89742e-05
5.88926e-05
8.2721e-05
5.90361e-05
5.90088e-05
6.43376e-05
4.92817e-05
6.4448e-05
4.92808e-05
2.35331e-05
2.35348e-05
6.42604e-05
4.92756e-05
6.41549e-05
4.92767e-05
0.000148234
0.000148245
0.000148222
0.000147886
0.000147809
0.000147821
0.000147801
6.34041e-05
6.27859e-05
0.000125326
0.000101439
6.32659e-05
6.28338e-05
0.00012518
2.3531e-05
2.35325e-05
6.32763e-05
0.000125335
6.29902e-05
0.000101462
6.29386e-05
0.000125197
6.3074e-05
5.91523e-05
5.90853e-05
8.24197e-05
5.91506e-05
5.91142e-05
6.41971e-05
4.92773e-05
6.43558e-05
4.92767e-05
2.35332e-05
2.35346e-05
6.41699e-05
4.92755e-05
6.42695e-05
4.92751e-05
0.000147784
0.000147793
0.000147772
0.000147627
0.000147587
0.000147586
0.000147567
6.254e-05
6.29955e-05
0.0001249
0.000101137
6.29661e-05
6.29625e-05
0.000124826
2.35313e-05
2.35323e-05
6.33907e-05
0.000124912
6.31755e-05
0.000101176
6.32777e-05
0.000124845
6.31856e-05
5.92214e-05
5.91408e-05
8.21365e-05
5.91859e-05
5.91121e-05
6.43321e-05
4.92772e-05
6.43886e-05
4.92765e-05
2.3532e-05
2.35331e-05
6.42221e-05
4.92738e-05
6.40936e-05
4.92738e-05
0.000147561
0.00014756
0.00014755
0.000147475
0.00014747
0.00014747
0.000147469
6.3576e-05
6.30332e-05
0.000124704
0.000101033
6.32594e-05
6.3037e-05
0.000124648
2.35299e-05
2.35302e-05
6.32619e-05
0.00012471
6.30859e-05
0.000101063
6.30665e-05
0.000124656
6.31186e-05
5.92519e-05
5.92017e-05
8.2505e-05
5.92756e-05
5.91854e-05
6.4353e-05
4.92757e-05
6.42905e-05
4.9273e-05
2.35307e-05
2.35314e-05
6.44814e-05
4.92735e-05
6.45019e-05
4.92719e-05
0.000147407
0.000147414
0.000147408
0.000147384
0.000147369
0.000147383
0.00014737
6.28506e-05
6.30526e-05
0.000124579
0.000101011
6.33717e-05
6.30534e-05
0.000124557
2.35279e-05
2.35299e-05
6.26949e-05
0.000124607
6.32745e-05
0.000101037
6.30721e-05
0.000124592
6.32843e-05
5.92463e-05
5.91936e-05
8.25548e-05
5.91942e-05
5.92387e-05
6.42294e-05
4.92726e-05
6.43214e-05
4.92706e-05
2.35301e-05
2.35317e-05
6.46025e-05
4.92739e-05
6.43299e-05
4.92754e-05
0.000147354
0.000147358
0.000147355
0.00014736
0.000147363
0.000147365
0.000147359
6.26587e-05
6.30295e-05
0.000124533
0.000101017
6.27794e-05
6.30584e-05
0.000124527
2.35298e-05
2.35328e-05
6.35104e-05
0.000124565
6.33726e-05
0.000101043
6.31108e-05
0.000124562
6.33324e-05
5.92551e-05
5.92943e-05
8.26799e-05
5.92492e-05
5.93258e-05
6.47242e-05
4.92763e-05
6.44212e-05
4.92772e-05
2.35317e-05
2.35339e-05
6.46816e-05
4.92743e-05
6.45206e-05
4.92753e-05
0.000147361
0.00014736
0.000147363
0.000147358
0.000147367
0.000147364
0.000147359
6.25835e-05
6.32658e-05
0.000124519
0.000101003
6.28192e-05
6.31835e-05
0.00012451
2.3532e-05
2.35328e-05
6.33611e-05
0.000124526
6.32987e-05
0.000101029
6.35261e-05
0.000124526
6.34033e-05
5.92782e-05
5.92801e-05
8.25441e-05
5.92712e-05
5.93099e-05
6.49417e-05
4.92826e-05
6.46069e-05
4.92857e-05
2.35332e-05
2.35345e-05
6.45994e-05
4.92788e-05
6.46997e-05
4.92803e-05
0.000147367
0.000147356
0.000147348
0.000147356
0.000147362
0.000147353
0.000147346
6.295e-05
6.34293e-05
0.000124513
0.000101
6.29399e-05
6.33361e-05
0.000124513
2.35318e-05
2.35338e-05
6.27793e-05
0.000124505
6.34179e-05
0.000101016
6.29979e-05
0.000124505
6.34939e-05
5.93166e-05
5.93341e-05
8.25664e-05
5.93616e-05
5.92705e-05
6.48477e-05
4.92805e-05
6.49657e-05
4.92889e-05
2.35335e-05
2.35352e-05
6.47026e-05
4.92775e-05
6.47391e-05
4.92792e-05
0.000147336
0.000147348
0.000147333
0.000147356
0.000147349
0.000147344
0.000147335
6.33373e-05
6.35368e-05
0.000124516
0.000101
6.31195e-05
6.35611e-05
0.000124514
2.35346e-05
2.35367e-05
6.3127e-05
0.000124498
6.35492e-05
0.000101013
6.27784e-05
0.000124498
6.34318e-05
5.93858e-05
5.92116e-05
8.23232e-05
5.93677e-05
5.9195e-05
6.46784e-05
4.92895e-05
6.49412e-05
4.92913e-05
2.35347e-05
2.35351e-05
6.48676e-05
4.92848e-05
6.48372e-05
4.92889e-05
0.000147348
0.000147335
0.000147336
0.000147359
0.000147353
0.00014734
0.000147342
6.37852e-05
6.34628e-05
0.000124523
0.000100982
6.36543e-05
6.35079e-05
0.000124521
2.35374e-05
2.35391e-05
6.29363e-05
0.000124504
6.35809e-05
0.000101017
6.2736e-05
0.000124507
6.35997e-05
5.93026e-05
5.92509e-05
8.26081e-05
5.93096e-05
5.92501e-05
6.46666e-05
4.9293e-05
6.46596e-05
4.92998e-05
2.35339e-05
2.35359e-05
6.51087e-05
4.92904e-05
6.51171e-05
4.92913e-05
0.000147351
0.00014734
0.000147342
0.000147362
0.000147359
0.000147338
0.000147345
6.44722e-05
6.35723e-05
0.00012452
0.000100986
6.43674e-05
6.36952e-05
0.00012452
2.35393e-05
2.35412e-05
6.30816e-05
0.000124509
6.36447e-05
0.000101016
6.30492e-05
0.00012451
6.37924e-05
5.93119e-05
5.92267e-05
8.26728e-05
5.93272e-05
5.92223e-05
6.45596e-05
4.93014e-05
6.47557e-05
4.9304e-05
2.35361e-05
2.35387e-05
6.48914e-05
4.92948e-05
6.48637e-05
4.92982e-05
0.000147349
0.000147337
0.000147336
0.000147346
0.000147332
0.000147318
0.000147327
6.45384e-05
6.38885e-05
0.000124501
0.000100984
6.45138e-05
6.4118e-05
0.00012449
2.3541e-05
2.35424e-05
6.31636e-05
0.000124504
6.39573e-05
0.000101003
6.30882e-05
0.000124503
6.41814e-05
5.93481e-05
5.92694e-05
8.2722e-05
5.93438e-05
5.92681e-05
6.49444e-05
4.93068e-05
6.48717e-05
4.93083e-05
2.35394e-05
2.3542e-05
6.5078e-05
4.93021e-05
6.49733e-05
4.93025e-05
0.000147324
0.0001473
0.000147309
0.000147306
0.000147293
0.000147272
0.000147277
6.45854e-05
6.42024e-05
0.000124458
0.000100971
6.45686e-05
6.42268e-05
0.000124454
2.35407e-05
2.35415e-05
6.25396e-05
0.000124468
6.4266e-05
0.000100985
6.26039e-05
0.000124459
6.42875e-05
5.93949e-05
5.93086e-05
8.27542e-05
5.94585e-05
5.93627e-05
6.48263e-05
4.9309e-05
6.49884e-05
4.93103e-05
2.35418e-05
2.35437e-05
6.48271e-05
4.93035e-05
6.47929e-05
4.93034e-05
0.000147274
0.000147252
0.000147258
0.000147236
0.000147225
0.000147212
0.000147209
6.46509e-05
6.42324e-05
0.000124408
0.000100944
6.462e-05
6.42453e-05
0.000124393
2.35392e-05
2.35407e-05
6.30199e-05
0.000124423
6.42885e-05
0.000100968
6.3119e-05
0.000124412
6.43032e-05
5.93341e-05
5.93661e-05
8.27501e-05
5.93183e-05
5.93056e-05
6.52076e-05
4.93078e-05
6.51143e-05
4.93114e-05
2.35413e-05
2.35426e-05
6.49142e-05
4.93e-05
6.46721e-05
4.9303e-05
0.00014721
0.00014719
0.000147185
0.000147187
0.000147166
0.00014715
0.000147151
6.47226e-05
6.4238e-05
0.000124345
0.000100915
6.46997e-05
6.42436e-05
0.00012432
2.35411e-05
2.35431e-05
6.29318e-05
0.00012437
6.4301e-05
0.000100937
6.27883e-05
0.000124358
6.43157e-05
5.94078e-05
5.93063e-05
8.25556e-05
5.94328e-05
5.93301e-05
6.52955e-05
4.93113e-05
6.52383e-05
4.93106e-05
2.35424e-05
2.35442e-05
6.49816e-05
4.93021e-05
6.50198e-05
4.93038e-05
0.000147147
0.000147139
0.00014714
0.000147151
0.000147122
0.000147115
0.000147112
6.48325e-05
6.42333e-05
0.000124291
0.00010089
6.47871e-05
6.4244e-05
0.000124275
2.35425e-05
2.35442e-05
6.33081e-05
0.000124322
6.43146e-05
0.000100904
6.30822e-05
0.000124315
6.4326e-05
5.92464e-05
5.93094e-05
8.24689e-05
5.93111e-05
5.92348e-05
6.53691e-05
4.93097e-05
6.52721e-05
4.93097e-05
2.35431e-05
2.35445e-05
6.5328e-05
4.93042e-05
6.52273e-05
4.93049e-05
0.000147098
0.000147093
0.000147097
0.000147122
0.000147095
0.000147105
0.000147097
6.49445e-05
6.42433e-05
0.000124253
0.000100864
6.49078e-05
6.42621e-05
0.00012425
2.35426e-05
2.35441e-05
6.35334e-05
0.000124296
6.43171e-05
0.000100877
6.34549e-05
0.000124297
6.43272e-05
5.93009e-05
5.92468e-05
8.27016e-05
5.94153e-05
5.9308e-05
6.54309e-05
4.93091e-05
6.53446e-05
4.93095e-05
2.35445e-05
2.35465e-05
6.51592e-05
4.93051e-05
6.51269e-05
4.93057e-05
0.000147101
0.000147084
0.000147092
0.000147134
0.00014712
0.00014711
0.000147119
6.50497e-05
6.42689e-05
0.000124248
0.00010086
6.50106e-05
6.42885e-05
0.000124244
2.3543e-05
2.35444e-05
6.3887e-05
0.000124289
6.43248e-05
0.000100877
6.3758e-05
0.000124293
6.43361e-05
5.94309e-05
5.92909e-05
8.26723e-05
5.94537e-05
5.93943e-05
6.55562e-05
4.93112e-05
6.54237e-05
4.93106e-05
2.35461e-05
2.35469e-05
6.55145e-05
4.93043e-05
6.53095e-05
4.93049e-05
0.000147106
0.000147116
0.000147114
0.000147169
0.00014713
0.000147148
0.000147142
6.51358e-05
6.42936e-05
0.000124251
0.000100858
6.51118e-05
6.43113e-05
0.000124254
2.35434e-05
2.3545e-05
6.4027e-05
0.000124304
6.43254e-05
0.000100896
6.39575e-05
0.000124309
6.43355e-05
5.94146e-05
5.93942e-05
8.27207e-05
5.94547e-05
5.94036e-05
6.54507e-05
4.93138e-05
6.5665e-05
4.93152e-05
2.35461e-05
2.35475e-05
6.54629e-05
4.93061e-05
6.53864e-05
4.93064e-05
0.000147146
0.000147151
0.00014715
0.000147211
0.000147179
0.000147185
0.00014719
6.52179e-05
6.43127e-05
0.000124276
0.000100873
6.51913e-05
6.43294e-05
0.00012428
2.35449e-05
2.35469e-05
6.44905e-05
0.000124327
6.43286e-05
0.000100915
6.40641e-05
0.000124334
6.43381e-05
5.94267e-05
5.94294e-05
8.27814e-05
5.94161e-05
5.94741e-05
6.55315e-05
4.93143e-05
6.55529e-05
4.93132e-05
2.35457e-05
2.35474e-05
6.54124e-05
4.93049e-05
6.53204e-05
4.9305e-05
0.000147176
0.000147195
0.000147182
0.000147238
0.000147222
0.00014724
0.000147218
6.53125e-05
6.43352e-05
0.000124305
0.000100905
6.5271e-05
6.43528e-05
0.000124306
2.35462e-05
2.35486e-05
6.5178e-05
0.000124344
6.4327e-05
0.000100936
6.51056e-05
0.000124351
6.43391e-05
5.92657e-05
5.93721e-05
8.27382e-05
5.92573e-05
5.93319e-05
6.54202e-05
4.93169e-05
6.53473e-05
4.93186e-05
2.35477e-05
2.35498e-05
6.54453e-05
4.93051e-05
6.55353e-05
4.93071e-05
0.000147217
0.000147234
0.00014722
0.00014727
0.000147245
0.000147249
0.000147257
6.53782e-05
6.43504e-05
0.000124326
0.00010093
6.53575e-05
6.43597e-05
0.000124328
2.35484e-05
2.35493e-05
6.524e-05
0.000124361
6.4337e-05
0.000100947
6.52193e-05
0.00012436
6.43512e-05
5.93135e-05
5.92417e-05
8.27572e-05
5.92987e-05
5.93082e-05
6.51048e-05
4.93155e-05
6.50593e-05
4.93167e-05
2.35483e-05
2.35509e-05
6.52615e-05
4.93077e-05
6.5425e-05
4.93097e-05
0.000147239
0.000147258
0.000147243
0.000147267
0.000147262
0.000147273
0.000147267
6.54098e-05
6.43565e-05
0.000124338
0.000100932
6.53998e-05
6.43706e-05
0.000124341
2.35486e-05
2.35501e-05
6.52775e-05
0.00012437
6.43455e-05
0.00010096
6.52615e-05
0.000124365
6.43603e-05
5.93481e-05
5.93327e-05
8.272e-05
5.93975e-05
5.93341e-05
6.48445e-05
4.93147e-05
6.48103e-05
4.93138e-05
2.3551e-05
2.3553e-05
6.51378e-05
4.93102e-05
6.50011e-05
4.93119e-05
0.000147239
0.000147263
0.000147253
6.54253e-05
6.43627e-05
0.000124341
0.000100918
6.54176e-05
6.43743e-05
0.000124343
2.35497e-05
2.35521e-05
6.53075e-05
0.000124365
6.43655e-05
0.000100949
6.52968e-05
0.000124362
6.43835e-05
5.94122e-05
5.93857e-05
8.28082e-05
5.94763e-05
5.93566e-05
2.35281e-05
2.35309e-05
2.35265e-05
2.35286e-05
5.85038e-05
5.84841e-05
8.30202e-05
5.8676e-05
5.86087e-05
2.35338e-05
2.35303e-05
2.3531e-05
2.35276e-05
8.29077e-05
5.89216e-05
5.88499e-05
5.87686e-05
5.86741e-05
6.31726e-05
4.92669e-05
4.92715e-05
6.26921e-05
6.15511e-05
6.17088e-05
0.000127536
0.00010286
6.21342e-05
0.000127117
6.07458e-05
6.14818e-05
6.1538e-05
0.00012751
0.00010284
6.19857e-05
0.000127085
6.11167e-05
6.3282e-05
4.92724e-05
4.92646e-05
6.39102e-05
6.33909e-05
4.92743e-05
4.92716e-05
6.39497e-05
6.14192e-05
0.000102568
6.26912e-05
0.000126416
6.21904e-05
0.000126776
6.24461e-05
6.1672e-05
0.000102564
6.262e-05
0.000126379
6.21283e-05
0.000126744
6.23983e-05
5.86958e-05
5.87447e-05
8.30484e-05
5.86841e-05
5.8822e-05
2.35361e-05
2.35359e-05
2.35319e-05
2.35307e-05
8.29841e-05
5.88481e-05
5.8909e-05
5.86906e-05
5.88336e-05
2.35345e-05
2.35338e-05
6.11448e-05
6.15969e-05
0.000127511
0.000102888
6.19454e-05
0.000127094
6.08372e-05
6.31412e-05
4.92633e-05
4.92611e-05
6.27004e-05
6.13602e-05
0.000127475
6.15168e-05
0.000102831
0.000127055
6.18507e-05
6.09278e-05
6.34528e-05
4.92653e-05
4.92616e-05
6.3982e-05
6.11643e-05
0.000102591
6.23838e-05
0.000126391
6.1919e-05
0.000126752
6.15188e-05
6.32337e-05
4.92657e-05
4.92618e-05
6.38479e-05
6.12884e-05
0.000102537
0.000126355
6.25954e-05
0.000126718
6.20024e-05
6.18414e-05
6.31748e-05
4.92689e-05
4.92684e-05
6.25489e-05
6.16209e-05
0.000127487
6.16964e-05
0.000102857
0.000127062
6.21024e-05
6.10569e-05
6.33082e-05
4.92618e-05
4.9271e-05
6.26343e-05
6.08909e-05
0.000102628
6.23119e-05
0.000126407
6.23252e-05
0.000126761
6.15148e-05
6.32045e-05
4.92656e-05
4.92677e-05
6.36138e-05
6.1645e-05
0.000102562
0.00012636
6.2442e-05
0.000126721
6.22215e-05
6.21907e-05
6.34501e-05
4.9275e-05
4.92721e-05
6.40611e-05
5.85796e-05
5.84903e-05
8.30267e-05
5.87417e-05
5.86955e-05
2.35291e-05
2.35317e-05
2.3531e-05
2.35296e-05
8.28747e-05
5.88264e-05
5.88688e-05
5.87516e-05
5.8743e-05
2.35334e-05
2.35309e-05
6.12042e-05
0.000127509
6.14261e-05
0.000102827
0.000127093
6.19075e-05
6.06447e-05
6.30629e-05
4.92656e-05
4.92631e-05
6.31482e-05
6.29661e-05
4.92423e-05
4.92511e-05
6.2587e-05
6.10507e-05
0.000102602
0.000126417
6.23935e-05
0.000126762
6.21908e-05
6.15947e-05
6.10974e-05
0.000102541
0.000126389
6.23357e-05
0.000126749
6.19487e-05
6.17748e-05
6.31279e-05
4.92699e-05
4.9262e-05
6.36051e-05
6.31094e-05
4.92538e-05
4.92492e-05
6.36901e-05
2.35274e-05
2.35307e-05
2.35201e-05
2.35231e-05
8.27979e-05
5.89661e-05
5.88353e-05
5.88044e-05
5.85983e-05
2.35334e-05
2.35301e-05
2.35269e-05
2.35225e-05
2.35331e-05
2.35362e-05
2.35303e-05
2.35337e-05
5.89318e-05
5.88871e-05
8.2766e-05
5.90473e-05
5.90751e-05
2.35355e-05
2.35346e-05
2.35348e-05
2.3533e-05
8.25894e-05
5.90636e-05
5.91183e-05
5.89871e-05
5.90897e-05
6.42043e-05
4.9274e-05
6.39677e-05
4.92747e-05
6.26879e-05
6.27204e-05
0.000126166
0.000101978
6.26003e-05
6.28873e-05
0.000125891
6.30827e-05
6.26405e-05
0.000126128
0.000101968
6.24178e-05
6.28014e-05
0.000125853
6.44928e-05
4.92819e-05
4.92841e-05
6.44636e-05
6.43422e-05
4.9276e-05
4.92756e-05
6.45116e-05
6.31632e-05
0.000101795
6.30608e-05
0.000125489
6.28594e-05
0.000125698
6.31141e-05
6.31081e-05
0.000101759
6.28332e-05
0.000125451
6.28643e-05
0.000125658
6.33267e-05
5.88795e-05
5.89342e-05
8.26148e-05
5.90213e-05
5.90435e-05
2.35329e-05
2.35344e-05
2.35343e-05
2.35322e-05
8.25796e-05
5.913e-05
5.91137e-05
5.90148e-05
5.90621e-05
2.35346e-05
2.3533e-05
6.25548e-05
6.25494e-05
0.000126143
0.000101999
6.19981e-05
6.28184e-05
0.000125868
6.41954e-05
4.92682e-05
6.41389e-05
4.92727e-05
6.27224e-05
0.00012611
6.26655e-05
0.000101949
6.21084e-05
0.000125833
6.2836e-05
6.43253e-05
4.92749e-05
4.92714e-05
6.42486e-05
6.27751e-05
0.000101805
6.31794e-05
0.000125471
6.28584e-05
0.000125676
6.28057e-05
6.43972e-05
4.92706e-05
4.9273e-05
6.42047e-05
6.28897e-05
0.000101748
0.000125442
6.29853e-05
0.000125647
6.28917e-05
6.30241e-05
6.45241e-05
4.92651e-05
6.38079e-05
4.92655e-05
6.27693e-05
0.000126108
6.26483e-05
0.000101971
6.22038e-05
0.000125834
6.29456e-05
6.44667e-05
4.92754e-05
6.42152e-05
4.92748e-05
6.29714e-05
0.000101821
6.28276e-05
0.000125466
6.27584e-05
0.00012567
6.32435e-05
6.44551e-05
4.92672e-05
4.92654e-05
6.42519e-05
6.30521e-05
0.00010176
0.000125431
6.30133e-05
0.000125637
6.30019e-05
6.28542e-05
6.46692e-05
4.92734e-05
4.92734e-05
6.4407e-05
5.88846e-05
5.88801e-05
8.26918e-05
5.89667e-05
5.90194e-05
2.35324e-05
2.35351e-05
2.35325e-05
2.35308e-05
8.25039e-05
5.90739e-05
5.91335e-05
5.90218e-05
5.90836e-05
2.35363e-05
2.35343e-05
6.2845e-05
0.000126137
6.2536e-05
0.000101965
6.17959e-05
0.000125861
6.26102e-05
6.42879e-05
4.92715e-05
6.37329e-05
4.92742e-05
6.41854e-05
4.92569e-05
6.38702e-05
4.92613e-05
6.24733e-05
0.000101802
0.000125482
6.30433e-05
0.000125677
6.28278e-05
6.29744e-05
6.25125e-05
0.000101771
0.000125463
6.30155e-05
0.000125667
6.29902e-05
6.29178e-05
6.41752e-05
4.92754e-05
4.92732e-05
6.43737e-05
6.41225e-05
4.92706e-05
4.9266e-05
6.41514e-05
2.35323e-05
2.35335e-05
2.35266e-05
2.35305e-05
8.25107e-05
5.90855e-05
5.91503e-05
5.90134e-05
5.90271e-05
2.35329e-05
2.35319e-05
2.35321e-05
2.35296e-05
2.35337e-05
2.35336e-05
2.35333e-05
2.35337e-05
5.90674e-05
5.91238e-05
8.25111e-05
5.90765e-05
5.90906e-05
2.35324e-05
2.35317e-05
2.35332e-05
2.35324e-05
8.23473e-05
5.91288e-05
5.91183e-05
5.90658e-05
5.91617e-05
6.4073e-05
4.92727e-05
6.44479e-05
4.92738e-05
6.32776e-05
6.31875e-05
0.00012536
0.000101462
6.31756e-05
6.3005e-05
0.000125202
6.3255e-05
6.28747e-05
0.000125323
0.00010143
6.33639e-05
6.31249e-05
0.000125166
6.43947e-05
4.92777e-05
4.92801e-05
6.42916e-05
6.41043e-05
4.92715e-05
4.92725e-05
6.42414e-05
6.32477e-05
0.00010131
6.29825e-05
0.000124983
6.30345e-05
0.0001251
6.34451e-05
6.33653e-05
0.000101289
6.31519e-05
0.000124955
6.30436e-05
0.000125068
6.34678e-05
5.91468e-05
5.90885e-05
8.23989e-05
5.92055e-05
5.91303e-05
2.3533e-05
2.35341e-05
2.35347e-05
2.35334e-05
8.2284e-05
5.92253e-05
5.9189e-05
5.92164e-05
5.91609e-05
2.35335e-05
2.35324e-05
6.34087e-05
6.31505e-05
0.000125342
0.000101474
6.29044e-05
6.30741e-05
0.000125188
6.42813e-05
4.92701e-05
6.43427e-05
4.92692e-05
6.347e-05
0.000125317
6.31498e-05
0.000101456
6.32402e-05
0.000125159
6.30326e-05
6.4257e-05
4.92755e-05
4.92762e-05
6.42598e-05
6.34181e-05
0.00010133
6.30797e-05
0.000124974
6.30487e-05
0.000125088
6.35065e-05
6.43602e-05
4.92698e-05
4.92687e-05
6.41818e-05
6.34081e-05
0.000101325
0.000124952
6.30789e-05
0.000125066
6.31652e-05
6.34332e-05
6.42501e-05
4.92673e-05
6.42387e-05
4.92676e-05
6.31342e-05
0.000125302
6.30044e-05
0.000101435
6.32639e-05
0.000125145
6.29199e-05
6.45436e-05
4.92727e-05
6.45521e-05
4.92721e-05
6.34709e-05
0.00010132
6.29854e-05
0.000124959
6.27479e-05
0.000125074
6.3321e-05
6.42561e-05
4.92663e-05
4.92664e-05
6.37993e-05
6.37037e-05
0.000101302
0.000124936
6.29936e-05
0.000125047
6.28289e-05
6.35482e-05
6.4454e-05
4.92686e-05
4.92707e-05
6.42969e-05
5.90641e-05
5.91305e-05
8.24025e-05
5.91265e-05
5.91985e-05
2.35351e-05
2.35369e-05
2.35329e-05
2.35316e-05
8.23854e-05
5.92321e-05
5.92134e-05
5.92044e-05
5.92239e-05
2.35368e-05
2.35356e-05
6.291e-05
0.000125329
6.29886e-05
0.000101454
6.30452e-05
0.000125174
6.28881e-05
6.42617e-05
4.92748e-05
6.43492e-05
4.92762e-05
6.4117e-05
4.92707e-05
6.42587e-05
4.92707e-05
6.3258e-05
0.000101372
0.000124976
6.31065e-05
0.000125085
6.29972e-05
6.32687e-05
6.33342e-05
0.000101319
0.000124964
6.31564e-05
0.000125073
6.30676e-05
6.3736e-05
6.41184e-05
4.92751e-05
4.92748e-05
6.42404e-05
6.40867e-05
4.92707e-05
4.92703e-05
6.40311e-05
2.35317e-05
2.35326e-05
2.35308e-05
2.35311e-05
8.22536e-05
5.92166e-05
5.91141e-05
5.91398e-05
5.91307e-05
2.35318e-05
2.35307e-05
2.35301e-05
2.35295e-05
2.35309e-05
2.35321e-05
2.35316e-05
2.35322e-05
5.91153e-05
5.91343e-05
8.20714e-05
5.91381e-05
5.91244e-05
2.35314e-05
2.35307e-05
2.35317e-05
2.35303e-05
8.21646e-05
5.90853e-05
5.91534e-05
5.91051e-05
5.90805e-05
6.41183e-05
4.92692e-05
6.42814e-05
4.92697e-05
6.34213e-05
6.30538e-05
0.000124927
0.000101125
6.34497e-05
6.3132e-05
0.000124838
6.34667e-05
6.31963e-05
0.000124901
0.000101153
6.3302e-05
6.30194e-05
0.000124815
6.41058e-05
4.92773e-05
4.92763e-05
6.42259e-05
6.4221e-05
4.92687e-05
4.92681e-05
6.421e-05
6.33903e-05
0.000101057
6.31948e-05
0.000124735
6.31653e-05
0.000124781
6.35878e-05
6.36926e-05
0.00010112
6.32563e-05
0.000124718
6.30133e-05
0.000124764
6.35218e-05
5.92417e-05
5.91757e-05
8.2473e-05
5.92471e-05
5.91712e-05
2.3532e-05
2.35326e-05
2.35335e-05
2.35331e-05
8.23269e-05
5.917e-05
5.91672e-05
5.92481e-05
5.91803e-05
2.35315e-05
2.35307e-05
6.32111e-05
6.31217e-05
0.000124917
0.000101152
6.31213e-05
6.31492e-05
0.00012483
6.40646e-05
4.92683e-05
6.41882e-05
4.92668e-05
6.30483e-05
0.000124899
6.30373e-05
0.000101155
6.34249e-05
0.000124813
6.31593e-05
6.39804e-05
4.92743e-05
4.92752e-05
6.40622e-05
6.32062e-05
0.000101096
6.31253e-05
0.000124729
6.31326e-05
0.000124775
6.28508e-05
6.4249e-05
4.9267e-05
4.92665e-05
6.43157e-05
6.3153e-05
0.00010109
0.000124718
6.32868e-05
0.000124762
6.32453e-05
6.30545e-05
6.39468e-05
4.92661e-05
6.3884e-05
4.92658e-05
6.32892e-05
0.000124879
6.29736e-05
0.000101161
6.34714e-05
0.000124797
6.3135e-05
6.43908e-05
4.92675e-05
6.4219e-05
4.92664e-05
6.2854e-05
0.000101093
6.30301e-05
0.000124719
6.30716e-05
0.000124764
6.33509e-05
6.39376e-05
4.9266e-05
4.92659e-05
6.41087e-05
6.31294e-05
0.000101083
0.000124699
6.305e-05
0.00012474
6.3156e-05
6.33401e-05
6.42947e-05
4.92654e-05
4.92661e-05
6.43711e-05
5.92241e-05
5.92429e-05
8.23613e-05
5.92374e-05
5.91782e-05
2.35356e-05
2.35371e-05
2.35317e-05
2.35311e-05
8.22644e-05
5.92337e-05
5.91768e-05
5.9284e-05
5.91976e-05
2.35366e-05
2.35358e-05
6.3125e-05
0.000124905
6.31459e-05
0.000101149
6.35802e-05
0.00012482
6.30511e-05
6.42244e-05
4.9275e-05
6.42099e-05
4.9276e-05
6.40047e-05
4.92676e-05
6.41812e-05
4.92676e-05
6.31226e-05
0.000101121
0.000124731
6.31001e-05
0.000124775
6.31771e-05
6.29086e-05
6.33974e-05
0.00010108
0.000124719
6.29989e-05
0.000124766
6.30866e-05
6.31577e-05
6.42325e-05
4.92764e-05
4.92762e-05
6.42404e-05
6.39284e-05
4.92696e-05
4.92679e-05
6.41705e-05
2.35304e-05
2.35312e-05
2.35288e-05
2.35299e-05
8.22193e-05
5.92471e-05
5.92053e-05
5.91899e-05
5.91707e-05
2.35313e-05
2.35296e-05
2.35308e-05
2.35289e-05
2.35304e-05
2.35325e-05
2.35303e-05
2.35317e-05
5.91502e-05
5.91692e-05
8.25484e-05
5.91732e-05
5.91691e-05
2.35339e-05
2.35315e-05
2.35314e-05
2.35303e-05
8.24281e-05
5.92522e-05
5.91588e-05
5.91615e-05
5.91657e-05
6.42627e-05
4.92685e-05
6.4265e-05