/*--------------------------------*- C++ -*----------------------------------*\
| =========                 |                                                 |
| \\      /  F ield         | OpenFOAM: The Open Source CFD Toolbox           |
|  \\    /   O peration     | Version:  2312                                  |
|   \\  /    A nd           | Website:  www.openfoam.com                      |
|    \\/     M anipulation  |                                                 |
\*---------------------------------------------------------------------------*/
FoamFile
{
    version     2.0;
    format      ascii;
    arch        "LSB;label=32;scalar=64";
    class       volScalarField;
    location    "100";
    object      p;
}
// * * * * * * * * * * * * * * * * * * * * * * * * * * * * * * * * * * * * * //

dimensions      [0 2 -2 0 0 0 0];

internalField   nonuniform List<scalar> 
42840
(
0.00257176
0.00257171
0.0025717
0.00257341
0.00253525
0.00253521
0.00253521
0.00253689
0.002499
0.00249896
0.00249897
0.00250062
0.002463
0.00246296
0.00246298
0.00246463
0.00242718
0.00242715
0.00242715
0.0024288
0.00239145
0.00239142
0.00239141
0.00239306
0.00235574
0.0023557
0.0023557
0.00235735
0.00232005
0.00232002
0.00232002
0.00232167
0.00228436
0.00228433
0.00228433
0.00228597
0.00224867
0.00224863
0.00224863
0.00225027
0.00221298
0.00221293
0.00221294
0.00221457
0.00217728
0.00217724
0.00217724
0.00217888
0.00214158
0.00214155
0.00214155
0.00214319
0.00210588
0.00210584
0.00210584
0.00210749
0.00207018
0.00207013
0.00207013
0.00207178
0.00203445
0.00203441
0.00203442
0.00203606
0.00199873
0.00199869
0.00199869
0.00200033
0.00196301
0.00196297
0.00196297
0.00196461
0.00192729
0.00192725
0.00192725
0.0019289
0.00189158
0.00189154
0.00189154
0.00189319
0.00185586
0.00185582
0.00185582
0.00185747
0.00182014
0.0018201
0.0018201
0.00182174
0.00178441
0.00178437
0.00178437
0.00178601
0.00174868
0.00174864
0.00174864
0.00175028
0.00171293
0.00171289
0.0017129
0.00171454
0.00257341
0.00254263
0.00257171
0.00257171
0.0025443
0.0025443
0.0025734
0.00254263
0.00257171
0.0025717
0.0025443
0.00254429
0.00257171
0.0025443
0.00254429
0.00257339
0.00254263
0.0025717
0.00254429
0.0025443
0.00254263
0.00253689
0.00250633
0.00253521
0.00253521
0.00250799
0.00250799
0.00253689
0.00250633
0.00253521
0.00253521
0.00250799
0.002508
0.0025352
0.00250799
0.00250799
0.0025369
0.00250635
0.00253521
0.002508
0.002508
0.00250633
0.00250062
0.00247029
0.00249896
0.00249896
0.00247193
0.00247194
0.00250063
0.00247029
0.00249896
0.00249897
0.00247193
0.00247194
0.00249896
0.00247193
0.00247194
0.00250064
0.00247029
0.00249897
0.00247194
0.00247194
0.00247029
0.00246463
0.00243445
0.00246297
0.00246297
0.00243608
0.00243608
0.00246462
0.00243444
0.00246297
0.00246297
0.00243608
0.00243608
0.00246297
0.00243607
0.00243609
0.00246463
0.00243445
0.00246297
0.00243608
0.00243608
0.00243444
0.00242881
0.0023987
0.00242715
0.00242715
0.00240033
0.00240034
0.00242879
0.0023987
0.00242715
0.00242715
0.00240034
0.00240033
0.00242716
0.00240033
0.00240033
0.0024288
0.00239869
0.00242715
0.00240033
0.00240034
0.0023987
0.00239306
0.00236298
0.00239142
0.00239142
0.00236462
0.00236462
0.00239306
0.00236299
0.00239142
0.00239142
0.00236462
0.00236462
0.00239142
0.00236461
0.00236462
0.00239306
0.00236299
0.00239142
0.00236461
0.00236462
0.00236298
0.00235735
0.00232729
0.00235571
0.00235571
0.00232892
0.00232893
0.00235735
0.0023273
0.00235571
0.00235571
0.00232892
0.00232893
0.00235571
0.00232893
0.00232893
0.00235735
0.00232729
0.00235571
0.00232892
0.00232893
0.0023273
0.00232166
0.0022916
0.00232001
0.00232002
0.00229323
0.00229324
0.00232167
0.00229161
0.00232001
0.00232002
0.00229323
0.00229324
0.00232002
0.00229324
0.00229324
0.00232166
0.00229161
0.00232002
0.00229324
0.00229324
0.00229161
0.00228597
0.00225592
0.00228433
0.00228434
0.00225755
0.00225755
0.00228598
0.00225591
0.00228433
0.00228433
0.00225755
0.00225755
0.00228433
0.00225754
0.00225754
0.00228597
0.00225591
0.00228433
0.00225754
0.00225754
0.00225591
0.00225028
0.00222022
0.00224864
0.00224864
0.00222185
0.00222185
0.00225027
0.00222021
0.00224864
0.00224863
0.00222186
0.00222185
0.00224863
0.00222184
0.00222184
0.00225028
0.00222022
0.00224863
0.00222185
0.00222185
0.00222021
0.00221459
0.00218452
0.00221294
0.00221294
0.00218615
0.00218615
0.00221458
0.00218452
0.00221294
0.00221294
0.00218616
0.00218616
0.00221294
0.00218615
0.00218615
0.00221458
0.00218452
0.00221294
0.00218615
0.00218615
0.00218452
0.00217889
0.00214883
0.00217724
0.00217724
0.00215046
0.00215046
0.00217888
0.00214883
0.00217724
0.00217725
0.00215046
0.00215046
0.00217724
0.00215046
0.00215046
0.00217889
0.00214882
0.00217724
0.00215046
0.00215046
0.00214883
0.00214319
0.00211312
0.00214155
0.00214155
0.00211476
0.00211476
0.00214319
0.00211313
0.00214155
0.00214155
0.00211476
0.00211476
0.00214155
0.00211476
0.00211476
0.00214319
0.00211312
0.00214155
0.00211475
0.00211476
0.00211313
0.00210749
0.00207742
0.00210585
0.00210585
0.00207905
0.00207905
0.00210749
0.00207742
0.00210584
0.00210584
0.00207905
0.00207905
0.00210585
0.00207905
0.00207905
0.00210749
0.00207742
0.00210585
0.00207905
0.00207905
0.00207742
0.00207178
0.0020417
0.00207014
0.00207014
0.00204333
0.00204333
0.00207178
0.0020417
0.00207014
0.00207014
0.00204333
0.00204334
0.00207014
0.00204333
0.00204333
0.00207178
0.0020417
0.00207014
0.00204333
0.00204333
0.0020417
0.00203606
0.00200597
0.00203442
0.00203441
0.00200761
0.00200761
0.00203606
0.00200598
0.00203441
0.00203442
0.00200761
0.00200761
0.00203442
0.00200761
0.00200761
0.00203606
0.00200597
0.00203441
0.00200761
0.00200761
0.00200597
0.00200033
0.00197025
0.00199869
0.0019987
0.00197189
0.00197189
0.00200034
0.00197026
0.00199869
0.00199869
0.00197188
0.00197189
0.00199869
0.00197189
0.00197189
0.00200034
0.00197025
0.00199869
0.00197188
0.00197189
0.00197025
0.00196461
0.00193453
0.00196297
0.00196297
0.00193617
0.00193617
0.00196462
0.00193454
0.00196297
0.00196297
0.00193617
0.00193617
0.00196297
0.00193617
0.00193617
0.00196461
0.00193453
0.00196297
0.00193617
0.00193617
0.00193454
0.0019289
0.00189882
0.00192725
0.00192726
0.00190045
0.00190046
0.0019289
0.00189882
0.00192725
0.00192725
0.00190046
0.00190046
0.00192726
0.00190045
0.00190046
0.0019289
0.00189882
0.00192726
0.00190045
0.00190046
0.00189883
0.00189319
0.00186311
0.00189154
0.00189154
0.00186474
0.00186474
0.00189318
0.00186311
0.00189154
0.00189154
0.00186475
0.00186475
0.00189155
0.00186474
0.00186475
0.00189319
0.00186311
0.00189155
0.00186474
0.00186475
0.00186311
0.00185747
0.00182739
0.00185583
0.00185583
0.00182902
0.00182902
0.00185747
0.00182738
0.00185583
0.00185583
0.00182902
0.00182902
0.00185583
0.00182901
0.00182902
0.00185747
0.00182739
0.00185583
0.00182901
0.00182902
0.00182738
0.00182175
0.00179166
0.0018201
0.0018201
0.0017933
0.0017933
0.00182175
0.00179166
0.0018201
0.0018201
0.0017933
0.00179329
0.0018201
0.00179329
0.00179329
0.00182175
0.00179166
0.0018201
0.00179329
0.00179329
0.00179165
0.00178602
0.00175593
0.00178438
0.00178438
0.00175756
0.00175756
0.00178602
0.00175593
0.00178438
0.00178437
0.00175756
0.00175756
0.00178437
0.00175756
0.00175756
0.00178602
0.00175593
0.00178437
0.00175756
0.00175756
0.00175592
0.00175029
0.00172019
0.00174864
0.00174864
0.00172182
0.00172182
0.00175028
0.00172018
0.00174864
0.00174864
0.00172182
0.00172182
0.00174864
0.00172181
0.00172182
0.00175028
0.00172019
0.00174864
0.00172182
0.00172182
0.00172019
0.00171455
0.0017129
0.00171289
0.00171454
0.0017129
0.0017129
0.0017129
0.00171455
0.0017129
0.00256032
0.0025738
0.00256028
0.00257383
0.00257381
0.00256026
0.00256031
0.0025738
0.00256027
0.00257381
0.00257176
0.00257175
0.00257175
0.00254433
0.00254433
0.00254433
0.00254433
0.00256051
0.00257371
0.00257173
0.00256255
0.00256039
0.00256257
0.00257374
0.0025738
0.00256025
0.00256049
0.00257172
0.00257372
0.00256254
0.00256256
0.00256038
0.00257373
0.0025738
0.00257379
0.00256088
0.00256028
0.00256028
0.00252394
0.00253732
0.00253733
0.00252392
0.00253733
0.00252392
0.00252394
0.0025373
0.00253732
0.00252392
0.00253525
0.00253525
0.00253524
0.00250802
0.00250803
0.00250803
0.00250803
0.0025241
0.00253724
0.00253522
0.00252613
0.00253724
0.00252402
0.00252614
0.00253731
0.0025239
0.0025241
0.00253522
0.00253723
0.00252613
0.00253724
0.00252614
0.00252402
0.00253732
0.00253731
0.00252445
0.00252392
0.00252391
0.00248778
0.0025011
0.00250109
0.00248778
0.0025011
0.00248776
0.00248779
0.00250112
0.0025011
0.00248779
0.002499
0.00249901
0.00249901
0.00247196
0.00247197
0.00247198
0.00247197
0.00248793
0.00250101
0.00249898
0.00248995
0.00250097
0.00248787
0.00248996
0.0025011
0.00248778
0.00248793
0.00249898
0.00250101
0.00248995
0.00250097
0.00248996
0.00248787
0.0025011
0.0025011
0.00248828
0.00248777
0.00248777
0.00245186
0.00246509
0.00246508
0.00245184
0.0024651
0.00245184
0.00245187
0.00246509
0.00246509
0.00245185
0.002463
0.00246301
0.00246301
0.00243611
0.00243611
0.00243611
0.00243612
0.002452
0.002465
0.00246297
0.00245399
0.00246496
0.00245194
0.00245401
0.00246511
0.00245185
0.002452
0.00246298
0.00246501
0.00245401
0.00246498
0.00245402
0.00245195
0.00246509
0.0024651
0.00245235
0.00245186
0.00245186
0.00241609
0.00242928
0.00242927
0.00241609
0.00242928
0.00241607
0.00241607
0.00242927
0.00242926
0.00241607
0.00242718
0.00242719
0.00242719
0.00240036
0.00240037
0.00240036
0.00240037
0.00241622
0.00242917
0.00242716
0.00241821
0.00242914
0.00241616
0.00241822
0.00242928
0.00241606
0.00241623
0.00242716
0.00242919
0.00241821
0.00242915
0.00241823
0.00241617
0.00242926
0.00242927
0.00241657
0.00241607
0.00241607
0.00238035
0.00239354
0.00239353
0.00238034
0.00239354
0.00238035
0.00238036
0.00239354
0.00239352
0.00238035
0.00239145
0.00239145
0.00239145
0.00236465
0.00236466
0.00236466
0.00236466
0.00238049
0.00239344
0.00239142
0.00238249
0.0023934
0.00238044
0.0023825
0.00239354
0.00238034
0.0023805
0.00239142
0.00239345
0.00238249
0.00239339
0.00238249
0.00238043
0.00239353
0.00239354
0.00238084
0.00238037
0.00238035
0.00234467
0.00235783
0.00235782
0.00234465
0.00235784
0.00234464
0.00234466
0.00235783
0.00235782
0.00234465
0.00235575
0.00235575
0.00235575
0.00232896
0.00232897
0.00232896
0.00232897
0.0023448
0.00235774
0.00235572
0.00234679
0.00235769
0.00234475
0.0023468
0.00235783
0.00234465
0.0023448
0.00235571
0.00235774
0.00234678
0.0023577
0.00234679
0.00234474
0.00235784
0.00235784
0.00234514
0.00234466
0.00234468
0.00230897
0.00232214
0.00232212
0.00230896
0.00232215
0.00230897
0.00230898
0.00232213
0.00232213
0.00230896
0.00232006
0.00232006
0.00232006
0.00229326
0.00229328
0.00229328
0.00229328
0.00230913
0.00232206
0.00232003
0.00231111
0.00232202
0.00230907
0.00231111
0.00232215
0.00230896
0.00230912
0.00232003
0.00232205
0.0023111
0.00232201
0.00231111
0.00230905
0.00232214
0.00232215
0.00230945
0.00230898
0.00230898
0.00227329
0.00228646
0.00228644
0.00227327
0.00228647
0.00227328
0.00227328
0.00228645
0.00228644
0.00227327
0.00228437
0.00228437
0.00228437
0.00225758
0.00225758
0.00225758
0.00225758
0.00227342
0.00228637
0.00228434
0.00227541
0.00228632
0.00227337
0.00227542
0.00228647
0.00227327
0.00227343
0.00228434
0.00228637
0.00227541
0.00228632
0.00227542
0.00227337
0.00228645
0.00228646
0.00227376
0.00227328
0.00227329
0.00223759
0.00225077
0.00225076
0.00223759
0.00225077
0.00223758
0.00223759
0.00225075
0.00225074
0.00223758
0.00224868
0.00224868
0.00224868
0.00222188
0.00222188
0.00222189
0.00222188
0.00223772
0.00225067
0.00224864
0.00223971
0.00225062
0.00223767
0.00223972
0.00225076
0.00223758
0.00223772
0.00224864
0.00225067
0.00223971
0.00225062
0.00223972
0.00223767
0.00225075
0.00225076
0.00223806
0.00223757
0.00223758
0.00220189
0.00221507
0.00221505
0.00220189
0.00221507
0.00220187
0.00220191
0.00221507
0.00221505
0.00220189
0.00221298
0.00221298
0.00221298
0.00218619
0.00218619
0.00218619
0.00218619
0.00220203
0.00221497
0.00221294
0.00220401
0.00221493
0.00220197
0.00220402
0.00221508
0.00220189
0.00220202
0.00221295
0.00221497
0.00220402
0.00221493
0.00220403
0.00220197
0.00221505
0.00221506
0.00220236
0.00220189
0.00220188
0.0021662
0.00217937
0.00217936
0.00216618
0.00217937
0.00216617
0.00216621
0.00217938
0.00217937
0.00216619
0.00217728
0.00217729
0.00217728
0.00215049
0.00215049
0.0021505
0.0021505
0.00216634
0.00217928
0.00217725
0.00216832
0.00217923
0.00216628
0.00216833
0.00217938
0.00216619
0.00216634
0.00217725
0.00217929
0.00216832
0.00217924
0.00216833
0.00216628
0.00217937
0.00217937
0.00216667
0.00216619
0.00216619
0.0021305
0.00214366
0.00214365
0.00213049
0.00214368
0.00213048
0.00213049
0.00214366
0.00214365
0.00213049
0.00214159
0.00214159
0.00214159
0.00211479
0.0021148
0.00211479
0.0021148
0.00213064
0.00214359
0.00214156
0.00213263
0.00214354
0.00213059
0.00213264
0.00214367
0.00213047
0.00213064
0.00214155
0.00214359
0.00213262
0.00214353
0.00213263
0.00213058
0.00214367
0.00214368
0.00213098
0.0021305
0.0021305
0.0020948
0.00210798
0.00210796
0.00209479
0.00210798
0.00209479
0.0020948
0.00210798
0.00210796
0.00209479
0.00210589
0.00210589
0.00210589
0.00207908
0.00207909
0.00207909
0.00207909
0.00209493
0.00210789
0.00210586
0.00209692
0.00210784
0.00209489
0.00209693
0.00210798
0.00209479
0.00209494
0.00210585
0.00210788
0.00209692
0.00210784
0.00209693
0.00209488
0.00210798
0.00210798
0.00209528
0.0020948
0.0020948
0.00205909
0.00207227
0.00207226
0.00205908
0.00207228
0.00205907
0.00205909
0.00207228
0.00207226
0.00205908
0.00207018
0.00207018
0.00207018
0.00204336
0.00204337
0.00204337
0.00204337
0.00205922
0.00207217
0.00207014
0.00206121
0.00207213
0.00205916
0.00206122
0.00207228
0.00205907
0.00205922
0.00207014
0.00207218
0.00206121
0.00207212
0.00206122
0.00205917
0.00207227
0.00207226
0.00205956
0.00205908
0.00205908
0.00202337
0.00203655
0.00203653
0.00202336
0.00203655
0.00202334
0.00202336
0.00203655
0.00203653
0.00202335
0.00203445
0.00203446
0.00203446
0.00200764
0.00200765
0.00200765
0.00200765
0.0020235
0.00203645
0.00203442
0.00202549
0.0020364
0.00202344
0.00202549
0.00203656
0.00202335
0.0020235
0.00203442
0.00203646
0.00202549
0.00203641
0.0020255
0.00202345
0.00203655
0.00203654
0.00202384
0.00202336
0.00202336
0.00198764
0.00200082
0.0020008
0.00198763
0.00200083
0.00198763
0.00198764
0.00200082
0.00200081
0.00198763
0.00199874
0.00199873
0.00199873
0.00197192
0.00197193
0.00197192
0.00197192
0.00198778
0.00200073
0.0019987
0.00198977
0.00200069
0.00198773
0.00198978
0.00200083
0.00198762
0.00198777
0.0019987
0.00200074
0.00198976
0.00200069
0.00198977
0.00198772
0.00200082
0.00200082
0.00198811
0.00198763
0.00198763
0.00195192
0.0019651
0.00196508
0.00195191
0.00196512
0.0019519
0.00195192
0.0019651
0.00196509
0.00195191
0.00196302
0.00196301
0.00196301
0.0019362
0.00193621
0.00193621
0.00193621
0.00195205
0.00196501
0.00196298
0.00195405
0.00196496
0.001952
0.00195405
0.0019651
0.0019519
0.00195206
0.00196298
0.00196501
0.00195404
0.00196496
0.00195405
0.001952
0.0019651
0.00196509
0.0019524
0.00195191
0.00195191
0.0019162
0.00192938
0.00192936
0.00191619
0.0019294
0.00191619
0.0019162
0.00192938
0.00192936
0.0019162
0.0019273
0.00192729
0.0019273
0.00190049
0.0019005
0.00190049
0.0019005
0.00191634
0.00192929
0.00192726
0.00191833
0.00192925
0.00191629
0.00191834
0.00192939
0.00191619
0.00191634
0.00192726
0.00192929
0.00191833
0.00192925
0.00191834
0.00191629
0.00192938
0.00192938
0.00191669
0.00191621
0.0019162
0.00188048
0.00189367
0.00189365
0.00188049
0.00189368
0.00188047
0.00188049
0.00189367
0.00189366
0.00188049
0.00189159
0.00189158
0.00189159
0.00186477
0.00186478
0.00186478
0.00186479
0.00188063
0.00189358
0.00189155
0.00188262
0.00189353
0.00188057
0.00188263
0.00189368
0.00188048
0.00188063
0.00189155
0.00189358
0.00188262
0.00189353
0.00188263
0.00188057
0.00189368
0.00189367
0.00188097
0.0018805
0.00188049
0.00184478
0.00185796
0.00185794
0.00184477
0.00185796
0.00184476
0.00184477
0.00185796
0.00185794
0.00184477
0.00185587
0.00185587
0.00185587
0.00182905
0.00182906
0.00182906
0.00182906
0.00184491
0.00185786
0.00185584
0.0018469
0.00185781
0.00184485
0.00184691
0.00185797
0.00184476
0.00184491
0.00185584
0.00185787
0.0018469
0.00185783
0.00184691
0.00184486
0.00185796
0.00185796
0.00184525
0.00184478
0.00184478
0.00180906
0.00182224
0.00182222
0.00180905
0.00182224
0.00180903
0.00180905
0.00182224
0.00182222
0.00180904
0.00182014
0.00182014
0.00182014
0.00179333
0.00179333
0.00179333
0.00179333
0.00180918
0.00182214
0.00182011
0.00181117
0.0018221
0.00180913
0.00181118
0.00182224
0.00180903
0.00180918
0.00182011
0.00182214
0.00181117
0.00182209
0.00181118
0.00180912
0.00182223
0.00182223
0.00180952
0.00180904
0.00180904
0.00177334
0.00178652
0.00178651
0.00177332
0.00178652
0.00177331
0.00177333
0.00178651
0.0017865
0.00177332
0.00178442
0.00178441
0.00178441
0.00175759
0.0017576
0.0017576
0.0017576
0.00177345
0.00178641
0.00178438
0.00177544
0.00178637
0.0017734
0.00177545
0.00178652
0.00177331
0.00177345
0.00178438
0.00178641
0.00177544
0.00178636
0.00177545
0.0017734
0.0017865
0.0017865
0.00177379
0.00177331
0.00177331
0.00173759
0.00175078
0.00175078
0.00173758
0.00175078
0.00173757
0.00173759
0.00175078
0.00175076
0.00173758
0.00174868
0.00174868
0.00174868
0.00172185
0.00172186
0.00172186
0.00172186
0.00173772
0.00175068
0.00174864
0.00173971
0.00175063
0.00173766
0.00173971
0.00175078
0.00173757
0.00173772
0.00174865
0.00175068
0.00173971
0.00175063
0.00173972
0.00173767
0.00175077
0.00175077
0.00173806
0.00173758
0.00173758
0.00170183
0.00171503
0.00171501
0.00170183
0.00171503
0.00170183
0.00170185
0.00171504
0.00171503
0.00170184
0.00171294
0.00171294
0.00171294
0.00170197
0.00171493
0.0017129
0.00170395
0.00171489
0.00170192
0.00170396
0.00171505
0.00170184
0.00170198
0.0017129
0.00171494
0.00170396
0.00171489
0.00170397
0.00170193
0.00171503
0.00171503
0.00170231
0.00170184
0.00170184
0.00257381
0.00256026
0.00257381
0.00256026
0.00257381
0.00257382
0.00256087
0.00256029
0.00256028
0.00254205
0.00255552
0.00254204
0.0025555
0.00255511
0.00254207
0.00254206
0.00255552
0.0025555
0.00256032
0.0025738
0.00256027
0.00257383
0.00256052
0.00257374
0.00257173
0.00256255
0.00256041
0.00256258
0.00257375
0.00256052
0.00257373
0.00257173
0.00256256
0.00256039
0.00256258
0.00257375
0.00255552
0.00254207
0.00255551
0.00254211
0.00255553
0.00254207
0.00255551
0.00254211
0.00255546
0.00255341
0.00254218
0.00254432
0.00255545
0.00255343
0.00254229
0.00255546
0.00255342
0.00254217
0.00254432
0.00255543
0.00255343
0.00254228
0.0025738
0.00257379
0.00256088
0.00256028
0.00256028
0.0025738
0.00256026
0.00254205
0.00255551
0.00255512
0.00254207
0.00254207
0.00255551
0.0025555
0.00254206
0.00255551
0.0025605
0.00257373
0.00257172
0.00256255
0.00256038
0.00256257
0.00257373
0.00256031
0.00257379
0.00256026
0.00257381
0.0025605
0.00257172
0.00257371
0.00256254
0.00256256
0.00256038
0.00257374
0.00255551
0.00254205
0.00255549
0.0025421
0.00255545
0.00255341
0.00254217
0.00254431
0.00255543
0.00255342
0.00254228
0.00255552
0.00254206
0.00255549
0.0025421
0.00255545
0.0025534
0.00254431
0.00254217
0.00255342
0.00255543
0.00254228
0.00256032
0.00257379
0.00256028
0.0025738
0.00256051
0.00257173
0.00257373
0.00256256
0.00256257
0.00256039
0.00257375
0.00256031
0.00257379
0.00256027
0.0025738
0.00255545
0.00255341
0.00254218
0.00254431
0.00255544
0.00255343
0.00254229
0.00255552
0.00254207
0.00255551
0.0025421
0.00255546
0.00255342
0.00254431
0.00254218
0.00255343
0.00255543
0.00254228
0.00255552
0.00254207
0.00255551
0.00254211
0.0025738
0.00257379
0.00256086
0.00256027
0.00256027
0.00257378
0.00256024
0.00254204
0.0025555
0.00255511
0.00254205
0.00254205
0.00255549
0.00255549
0.00254204
0.00255549
0.0025605
0.00257172
0.00257372
0.00256255
0.00256256
0.00256038
0.00257372
0.0025603
0.00257378
0.00256025
0.00257379
0.00256031
0.00257379
0.00256027
0.00257379
0.00255544
0.0025534
0.00254431
0.00254216
0.00255342
0.00255543
0.00254228
0.00255545
0.00255341
0.00254431
0.00254216
0.00255342
0.00255543
0.00254228
0.00255551
0.00254206
0.00255549
0.00254209
0.00255552
0.00254205
0.0025555
0.00254209
0.00257379
0.00256025
0.0025738
0.00256025
0.00255512
0.00254208
0.00254206
0.0025555
0.0025555
0.00254206
0.00255551
0.00254203
0.0025555
0.00253732
0.00252391
0.00253731
0.0025239
0.00253731
0.0025373
0.00252447
0.00252392
0.00252392
0.00250581
0.00251918
0.00250582
0.00251919
0.00251874
0.00250582
0.00250584
0.00251917
0.00251917
0.00252394
0.00253732
0.00253732
0.00252393
0.00252409
0.00253724
0.00253522
0.00252613
0.00253725
0.00252401
0.00252614
0.00252409
0.00253724
0.00253522
0.00252612
0.00253724
0.00252402
0.00252613
0.00251918
0.00250583
0.00251918
0.00250584
0.00251918
0.00250581
0.00251919
0.00250584
0.00251906
0.00251705
0.00250591
0.002508
0.00251909
0.00251705
0.00250597
0.00251907
0.00251704
0.00250591
0.002508
0.00251909
0.00251705
0.00250597
0.00253732
0.00253732
0.00252446
0.00252393
0.00252393
0.00253733
0.00252391
0.00250581
0.00251919
0.00251873
0.00250582
0.00250584
0.00251918
0.00251918
0.00250582
0.0025192
0.00252409
0.00253723
0.00253522
0.00252613
0.00253724
0.00252402
0.00252614
0.00252394
0.00253731
0.00253731
0.00252391
0.00252409
0.00253522
0.00253723
0.00252613
0.00253724
0.00252614
0.00252401
0.00251918
0.00250584
0.00251917
0.00250585
0.00251907
0.00251705
0.00250592
0.00250801
0.0025191
0.00251706
0.00250598
0.00251918
0.00250582
0.00251917
0.00250585
0.00251907
0.00251706
0.00250801
0.00250592
0.00251706
0.00251908
0.00250598
0.00252394
0.00253732
0.00253732
0.00252392
0.0025241
0.00253522
0.00253725
0.00252612
0.00253724
0.00252614
0.00252401
0.00252394
0.00253732
0.00253732
0.00252392
0.00251907
0.00251704
0.00250592
0.002508
0.0025191
0.00251706
0.00250597
0.00251918
0.00250583
0.00251919
0.00250585
0.00251906
0.00251704
0.002508
0.00250591
0.00251705
0.00251909
0.00250598
0.00251918
0.00250582
0.00251918
0.00250585
0.0025373
0.0025373
0.00252446
0.00252392
0.00252391
0.00253731
0.0025239
0.00250581
0.00251918
0.00251875
0.00250582
0.00250582
0.00251917
0.00251917
0.0025058
0.00251919
0.00252409
0.00253523
0.00253723
0.00252613
0.00253724
0.00252614
0.00252401
0.00252394
0.00253731
0.00253731
0.00252391
0.00252394
0.00253731
0.00253731
0.00252391
0.00251908
0.00251705
0.002508
0.00250591
0.00251706
0.00251909
0.00250598
0.00251908
0.00251705
0.00250801
0.00250591
0.00251706
0.00251909
0.00250598
0.00251917
0.00250582
0.00251917
0.00250584
0.00251918
0.00250583
0.00251917
0.00250584
0.00253733
0.00252391
0.00253731
0.00252389
0.00251873
0.00250583
0.00250583
0.00251918
0.00251917
0.00250581
0.00251919
0.00250582
0.00251918
0.00250111
0.00248777
0.00250112
0.00248777
0.00250109
0.00250111
0.00248827
0.00248779
0.00248779
0.00246978
0.00248307
0.00246978
0.00248308
0.00248258
0.00246979
0.00246979
0.00248307
0.00248307
0.00248777
0.00250109
0.00250108
0.00248777
0.00248792
0.00250101
0.00249897
0.00248993
0.00250096
0.00248786
0.00248995
0.00248792
0.00250101
0.00249897
0.00248994
0.00250096
0.00248786
0.00248995
0.00248305
0.00246979
0.00248306
0.00246981
0.00248304
0.00246978
0.00248305
0.00246981
0.00248293
0.00248092
0.00246987
0.00247194
0.00248297
0.00248093
0.00246993
0.00248293
0.00248093
0.00246986
0.00247194
0.00248296
0.00248093
0.00246993
0.00250109
0.00250111
0.00248828
0.00248777
0.00248777
0.00250111
0.00248776
0.00246977
0.00248306
0.00248261
0.00246978
0.00246978
0.00248305
0.00248305
0.00246977
0.00248306
0.00248793
0.00250101
0.00249898
0.00248994
0.00250096
0.00248787
0.00248995
0.0024878
0.0025011
0.00250109
0.00248779
0.00248793
0.00249898
0.00250101
0.00248995
0.00250097
0.00248996
0.00248787
0.00248306
0.00246979
0.00248307
0.00246983
0.00248293
0.00248092
0.00246987
0.00247194
0.00248297
0.00248093
0.00246994
0.00248307
0.00246979
0.00248308
0.00246982
0.00248293
0.00248093
0.00247195
0.00246988
0.00248094
0.00248298
0.00246994
0.00248779
0.0025011
0.00250108
0.00248777
0.00248793
0.00249898
0.002501
0.00248994
0.00250097
0.00248995
0.00248786
0.00248778
0.0025011
0.00250109
0.00248777
0.00248293
0.00248093
0.00246988
0.00247194
0.00248297
0.00248093
0.00246993
0.00248306
0.00246978
0.00248306
0.00246982
0.00248293
0.00248093
0.00247194
0.00246988
0.00248093
0.00248297
0.00246994
0.00248305
0.00246979
0.00248306
0.00246981
0.0025011
0.0025011
0.00248829
0.00248779
0.00248778
0.0025011
0.00248777
0.00246979
0.00248309
0.0024826
0.0024698
0.0024698
0.00248307
0.00248306
0.00246978
0.00248308
0.00248793
0.00249898
0.00250101
0.00248995
0.00250096
0.00248996
0.00248786
0.0024878
0.0025011
0.00250108
0.00248778
0.00248778
0.0025011
0.00250108
0.00248777
0.00248294
0.00248093
0.00247195
0.00246989
0.00248094
0.00248298
0.00246995
0.00248293
0.00248093
0.00247195
0.00246989
0.00248094
0.00248296
0.00246995
0.00248306
0.00246979
0.00248307
0.00246982
0.00248306
0.00246979
0.00248306
0.00246982
0.00250111
0.00248776
0.00250111
0.00248776
0.00248259
0.00246979
0.0024698
0.00248306
0.00248306
0.00246978
0.00248307
0.00246979
0.00248308
0.0024651
0.00245184
0.0024651
0.00245184
0.00246508
0.00246508
0.00245236
0.00245185
0.00245185
0.00243394
0.00244717
0.00243394
0.00244717
0.00244671
0.00243395
0.00243394
0.00244715
0.00244716
0.00245186
0.00246509
0.00246507
0.00245184
0.00245199
0.00246499
0.00246298
0.002454
0.00246495
0.00245194
0.00245401
0.002452
0.00246498
0.00246298
0.002454
0.00246495
0.00245194
0.00245401
0.00244715
0.00243396
0.00244715
0.00243398
0.00244716
0.00243395
0.00244716
0.00243397
0.00244704
0.00244503
0.00243404
0.00243609
0.00244706
0.00244504
0.00243411
0.00244704
0.00244502
0.00243404
0.00243609
0.00244707
0.00244503
0.0024341
0.00246509
0.00246508
0.00245234
0.00245186
0.00245185
0.0024651
0.00245184
0.00243394
0.00244718
0.00244668
0.00243395
0.00243395
0.00244717
0.00244716
0.00243393
0.00244717
0.00245199
0.002465
0.00246298
0.002454
0.00246496
0.00245195
0.00245401
0.00245187
0.0024651
0.00246509
0.00245186
0.002452
0.00246298
0.00246501
0.00245401
0.00246496
0.00245401
0.00245195
0.00244715
0.00243395
0.00244716
0.00243398
0.00244702
0.00244503
0.00243404
0.00243609
0.00244707
0.00244504
0.0024341
0.00244715
0.00243395
0.00244717
0.00243397
0.00244703
0.00244503
0.00243609
0.00243404
0.00244504
0.00244708
0.0024341
0.00245185
0.00246509
0.00246508
0.00245185
0.00245199
0.00246298
0.00246501
0.002454
0.00246496
0.00245401
0.00245195
0.00245186
0.00246509
0.00246508
0.00245185
0.00244703
0.00244502
0.00243404
0.00243608
0.00244707
0.00244504
0.0024341
0.00244714
0.00243394
0.00244716
0.00243395
0.00244702
0.00244503
0.00243609
0.00243402
0.00244503
0.00244708
0.00243409
0.00244714
0.00243393
0.00244717
0.00243397
0.0024651
0.0024651
0.00245236
0.00245186
0.00245187
0.00246511
0.00245186
0.00243395
0.00244719
0.0024467
0.00243395
0.00243396
0.00244717
0.00244717
0.00243394
0.00244718
0.002452
0.00246298
0.00246501
0.002454
0.00246496
0.00245401
0.00245195
0.00245188
0.0024651
0.00246508
0.00245186
0.00245187
0.00246511
0.00246509
0.00245186
0.00244704
0.00244503
0.00243609
0.00243405
0.00244504
0.00244708
0.00243411
0.00244704
0.00244503
0.00243609
0.00243404
0.00244504
0.00244708
0.0024341
0.00244715
0.00243395
0.00244717
0.00243398
0.00244716
0.00243395
0.00244717
0.00243398
0.0024651
0.00245185
0.00246511
0.00245185
0.00244669
0.00243395
0.00243396
0.00244717
0.00244717
0.00243393
0.00244718
0.00243395
0.00244718
0.00242928
0.00241608
0.00242928
0.00241607
0.00242926
0.00242927
0.00241656
0.00241609
0.00241609
0.00239821
0.00241142
0.0023982
0.00241141
0.00241092
0.00239822
0.00239821
0.0024114
0.0024114
0.00241609
0.00242927
0.00242926
0.00241608
0.00241621
0.00242919
0.00242716
0.00241821
0.00242914
0.00241617
0.00241822
0.00241622
0.00242919
0.00242716
0.00241821
0.00242914
0.00241616
0.00241822
0.00241139
0.00239822
0.0024114
0.00239824
0.00241139
0.0023982
0.0024114
0.00239823
0.00241126
0.00240926
0.00239829
0.00240034
0.00241131
0.00240927
0.00239835
0.00241127
0.00240926
0.00239828
0.00240034
0.0024113
0.00240927
0.00239836
0.00242927
0.00242926
0.00241656
0.00241608
0.00241607
0.00242927
0.00241606
0.00239819
0.00241141
0.00241092
0.0023982
0.00239821
0.00241139
0.0024114
0.0023982
0.00241141
0.00241623
0.00242918
0.00242716
0.00241821
0.00242914
0.00241616
0.00241822
0.00241608
0.00242927
0.00242926
0.00241606
0.00241621
0.00242716
0.00242918
0.00241821
0.00242914
0.00241822
0.00241616
0.00241137
0.00239821
0.00241139
0.00239823
0.00241127
0.00240927
0.00239829
0.00240034
0.0024113
0.00240927
0.00239836
0.00241138
0.0023982
0.00241139
0.00239823
0.00241126
0.00240926
0.00240034
0.00239828
0.00240927
0.00241129
0.00239836
0.00241609
0.00242927
0.00242924
0.00241607
0.00241622
0.00242716
0.00242917
0.00241821
0.00242913
0.00241822
0.00241615
0.00241608
0.00242926
0.00242925
0.00241606
0.00241126
0.00240926
0.00239829
0.00240033
0.0024113
0.00240927
0.00239836
0.00241139
0.00239821
0.0024114
0.00239824
0.00241126
0.00240926
0.00240034
0.00239829
0.00240927
0.00241129
0.00239836
0.00241138
0.0023982
0.00241139
0.00239823
0.00242926
0.00242927
0.00241656
0.00241606
0.00241608
0.00242929
0.00241607
0.00239819
0.0024114
0.00241092
0.00239821
0.00239821
0.00241138
0.0024114
0.0023982
0.00241141
0.00241623
0.00242716
0.00242918
0.00241821
0.00242914
0.00241822
0.00241616
0.00241609
0.00242928
0.00242926
0.00241607
0.00241609
0.00242927
0.00242926
0.00241606
0.00241127
0.00240926
0.00240033
0.0023983
0.00240927
0.00241131
0.00239835
0.00241127
0.00240926
0.00240034
0.00239829
0.00240927
0.0024113
0.00239835
0.00241139
0.00239821
0.0024114
0.00239823
0.00241139
0.0023982
0.00241139
0.00239823
0.00242927
0.00241606
0.00242928
0.00241606
0.00241092
0.00239821
0.00239822
0.00241139
0.00241139
0.0023982
0.0024114
0.0023982
0.0024114
0.00239355
0.00238034
0.00239355
0.00238034
0.00239354
0.00239353
0.00238084
0.00238035
0.00238036
0.00236249
0.00237568
0.00236249
0.00237569
0.0023752
0.0023625
0.00236251
0.00237567
0.00237568
0.00238036
0.00239353
0.00239352
0.00238035
0.0023805
0.00239343
0.00239143