/*--------------------------------*- C++ -*----------------------------------*\
| =========                 |                                                 |
| \\      /  F ield         | OpenFOAM: The Open Source CFD Toolbox           |
|  \\    /   O peration     | Version:  2312                                  |
|   \\  /    A nd           | Website:  www.openfoam.com                      |
|    \\/     M anipulation  |                                                 |
\*---------------------------------------------------------------------------*/
FoamFile
{
    version     2.0;
    format      ascii;
    arch        "LSB;label=32;scalar=64";
    class       surfaceScalarField;
    location    "100";
    object      phi;
}
// * * * * * * * * * * * * * * * * * * * * * * * * * * * * * * * * * * * * * //

dimensions      [0 3 -1 0 0 0 0];

oriented        oriented;

internalField   nonuniform List<scalar> 
123680
(
-3.0066e-07
-2.94657e-07
1.63095e-07
1.67879e-07
0.00114516
-0.00114489
-1.36394e-06
2.96591e-07
1.49956e-07
0.00113594
-3.79396e-07
1.23467e-06
2.56881e-07
8.9859e-07
-3.96918e-07
2.4113e-07
-1.06237e-06
-0.00113581
-1.35953e-06
2.95678e-07
1.51863e-07
0.00113583
-3.73828e-07
1.23412e-06
2.5745e-07
8.98147e-07
-3.98592e-07
2.39004e-07
-1.06334e-06
-0.00113571
1.39235e-06
1.35695e-06
-3.39396e-07
-3.40015e-07
0.000274205
-0.000276274
-2.04597e-07
-2.01737e-07
-0.00114581
1.12946e-07
1.16501e-07
0.00114598
-0.0011362
-1.34074e-06
2.01519e-07
1.01316e-07
0.00113628
-3.57065e-07
1.25645e-06
2.77339e-07
9.2471e-07
-3.69352e-07
-1.03186e-06
2.64432e-07
-0.0011361
-1.33613e-06
2.01378e-07
1.04326e-07
0.00113616
-3.51861e-07
1.25534e-06
2.76846e-07
9.24785e-07
-3.69949e-07
-1.03193e-06
2.63944e-07
-0.000276228
1.36885e-06
1.33143e-06
-3.135e-07
-3.16729e-07
0.000274158
-1.20855e-07
-1.2222e-07
-0.00114639
7.10917e-08
7.01375e-08
0.00114649
-0.00113641
-1.31993e-06
1.21092e-07
6.25565e-08
0.00113645
-3.38424e-07
1.27516e-06
2.9361e-07
9.45442e-07
-3.4927e-07
-1.00847e-06
2.82266e-07
-0.00113629
-1.31797e-06
1.21544e-07
6.99523e-08
0.00113632
-3.3608e-07
1.27161e-06
2.89923e-07
9.46506e-07
-3.48866e-07
-1.00748e-06
2.83356e-07
-0.00027619
1.348e-06
1.31005e-06
-2.93587e-07
-2.97207e-07
0.000274123
-6.10156e-08
-6.43638e-08
-0.00114671
3.96611e-08
3.6039e-08
0.00114676
-0.0011365
-1.30532e-06
5.92578e-08
3.12505e-08
0.00113651
-3.2591e-07
1.2882e-06
3.04246e-07
9.6072e-07
-3.3296e-07
-9.91018e-07
2.97288e-07
-0.00113636
-1.30425e-06
6.25054e-08
4.21289e-08
0.00113637
-3.25219e-07
1.28351e-06
2.99129e-07
9.6078e-07
-3.32044e-07
-9.90592e-07
2.97747e-07
-0.000276159
1.3353e-06
1.29755e-06
-2.80735e-07
-2.84996e-07
0.000274092
-2.78912e-08
-3.02719e-08
-0.00114685
2.01248e-08
1.61081e-08
0.00114687
-0.00113651
-1.29705e-06
2.4484e-08
1.36719e-08
0.00113652
-3.19167e-07
1.29487e-06
3.09814e-07
9.6965e-07
-3.23942e-07
-9.80719e-07
3.04846e-07
-0.00113637
-1.29612e-06
2.86614e-08
2.31516e-08
0.00113637
-3.17198e-07
1.29015e-06
3.05807e-07
9.68666e-07
-3.23937e-07
-9.81525e-07
3.04497e-07
-0.00027613
1.3279e-06
1.28938e-06
-2.73842e-07
-2.78307e-07
0.000274065
-1.33371e-08
-1.42837e-08
-0.00114691
9.34849e-09
8.09254e-09
0.00114692
-0.0011365
-1.29509e-06
9.5562e-09
9.24135e-09
0.0011365
-3.17647e-07
1.2966e-06
3.11075e-07
9.72919e-07
-3.19741e-07
-9.76385e-07
3.07904e-07
-0.00113635
-1.29213e-06
1.15955e-08
1.53953e-08
0.00113635
-3.14134e-07
1.2937e-06
3.08501e-07
9.72156e-07
-3.20498e-07
-9.77098e-07
3.07067e-07
-0.000276113
1.32454e-06
1.28624e-06
-2.71681e-07
-2.75199e-07
0.000274049
-6.13956e-09
-6.33117e-09
-0.00114693
3.04747e-09
3.46288e-09
0.00114694
-0.00113649
-1.29393e-06
3.1361e-09
4.67461e-09
0.00113649
-3.16444e-07
1.29732e-06
3.12163e-07
9.74044e-07
-3.17405e-07
-9.74867e-07
3.09551e-07
-0.00113634
-1.29075e-06
2.71182e-09
9.23254e-09
0.00113633
-3.12853e-07
1.29464e-06
3.09553e-07
9.73675e-07
-3.1795e-07
-9.75154e-07
3.09079e-07
-0.000276102
1.32293e-06
1.28531e-06
-2.70717e-07
-2.74177e-07
0.000274038
-2.31957e-09
-8.17802e-10
-0.00114694
-1.48005e-09
-6.82554e-10
0.00114695
-0.00113647
-1.29304e-06
2.64905e-09
2.32388e-09
0.00113647
-3.1623e-07
1.29839e-06
3.12429e-07
9.73463e-07
-3.16939e-07
-9.75015e-07
3.09827e-07
-0.00113633
-1.29002e-06
1.25606e-09
6.69228e-09
0.00113633
-3.12846e-07
1.29528e-06
3.09282e-07
9.73664e-07
-3.16988e-07
-9.74772e-07
3.09664e-07
-0.000276094
1.3231e-06
1.28689e-06
-2.72324e-07
-2.74421e-07
0.00027403
5.52595e-11
3.48866e-09
-0.00114695
-4.89884e-09
-3.1707e-09
0.00114695
-0.00113646
-1.29241e-06
3.24674e-09
1.70485e-09
0.00113647
-3.16131e-07
1.29887e-06
3.12448e-07
9.72931e-07
-3.18294e-07
-9.75457e-07
3.08452e-07
-0.00113632
-1.29009e-06
1.68701e-09
5.36896e-09
0.00113632
-3.12979e-07
1.29546e-06
3.09459e-07
9.73755e-07
-3.17145e-07
-9.7454e-07
3.09363e-07
-0.000276088
1.32154e-06
1.28613e-06
-2.72652e-07
-2.72699e-07
0.000274026
6.22157e-10
3.63995e-09
-0.00114695
-9.34176e-09
-3.215e-09
0.00114696
-0.00113646
-1.29255e-06
1.74743e-10
6.33008e-10
0.00113647
-3.15384e-07
1.29866e-06
3.13188e-07
9.73514e-07
-3.17796e-07
-9.74955e-07
3.09108e-07
-0.00113632
-1.28948e-06
-6.075e-10
5.49517e-09
0.00113632
-3.12362e-07
1.29601e-06
3.09886e-07
9.73907e-07
-3.17046e-07
-9.74362e-07
3.09319e-07
-0.00027609
1.321e-06
1.2848e-06
-2.71496e-07
-2.72563e-07
0.000274028
4.82202e-10
1.02707e-09
-0.00114695
-6.92987e-09
-2.38697e-09
0.00114696
-0.00113647
-1.29252e-06
-3.8862e-09
2.20947e-10
0.00113647
-3.15217e-07
1.29892e-06
3.13542e-07
9.74346e-07
-3.17002e-07
-9.73969e-07
3.09896e-07
-0.00113632
-1.28962e-06
-4.25881e-09
6.81876e-09
0.00113632
-3.12408e-07
1.29598e-06
3.09802e-07
9.74762e-07
-3.16286e-07
-9.73316e-07
3.09737e-07
-0.000276093
1.3209e-06
1.28377e-06
-2.69968e-07
-2.72784e-07
0.000274031
1.04169e-09
-1.02348e-09
-0.00114695
-5.1291e-09
-2.21036e-09
0.00114696
-0.00113647
-1.29164e-06
-5.88219e-09
-2.11113e-10
0.00113647
-3.1464e-07
1.2997e-06
3.14368e-07
9.74559e-07
-3.16733e-07
-9.73751e-07
3.10229e-07
-0.00113631
-1.28987e-06
-5.09494e-09
8.4335e-09
0.00113631
-3.12218e-07
1.29558e-06
3.0985e-07
9.74828e-07
-3.16406e-07
-9.73258e-07
3.09593e-07
-0.000276095
1.32036e-06
1.28326e-06
-2.69301e-07
-2.72252e-07
0.000274033
1.20719e-09
-5.00233e-10
-0.00114694
-5.78914e-09
-2.51051e-09
0.00114695
-0.00113646
-1.29217e-06
-4.381e-09
3.70925e-10
0.00113647
-3.1485e-07
1.29913e-06
3.1373e-07
9.74664e-07
-3.16755e-07
-9.73649e-07
3.10026e-07
-0.00113631
-1.28986e-06
-3.18659e-09
7.68357e-09
0.00113631
-3.1229e-07
1.29572e-06
3.09881e-07
9.74225e-07
-3.1674e-07
-9.73803e-07
3.09234e-07
-0.000276095
1.32068e-06
1.28355e-06
-2.69462e-07
-2.72435e-07
0.000274033
3.47825e-10
1.12915e-09
-0.00114694
-7.20854e-09
-2.43917e-09
0.00114695
-0.00113646
-1.29245e-06
-1.51747e-09
1.01355e-09
0.00113646
-3.1539e-07
1.29898e-06
3.13329e-07
9.73899e-07
-3.17428e-07
-9.74326e-07
3.0916e-07
-0.0011363
-1.28948e-06
-1.75869e-09
5.02193e-09
0.0011363
-3.12192e-07
1.29622e-06
3.09945e-07
9.74053e-07
-3.16864e-07
-9.74058e-07
3.09097e-07
-0.000276094
1.32196e-06
1.28469e-06
-2.70246e-07
-2.73647e-07
0.000274031
-1.68411e-09
6.81122e-11
-0.00114695
-6.53364e-09
-1.40573e-09
0.00114696
-0.00113646
-1.29258e-06
-9.3345e-10
3.03451e-10
0.00113646
-3.1515e-07
1.29889e-06
3.13518e-07
9.73732e-07
-3.1799e-07
-9.74615e-07
3.08901e-07
-0.0011363
-1.29007e-06
-1.25227e-09
5.26046e-09
0.0011363
-3.12836e-07
1.29558e-06
3.09268e-07
9.74354e-07
-3.16576e-07
-9.73852e-07
3.09393e-07
-0.000276089
1.32315e-06
1.28562e-06
-2.71016e-07
-2.7485e-07
0.000274026
-2.17492e-09
-1.30271e-09
-0.00114695
-5.53474e-09
-1.17018e-09
0.00114696
-0.00113646
-1.29303e-06
-3.24345e-09
7.17665e-10
0.00113647
-3.15731e-07
1.29826e-06
3.12779e-07
9.74401e-07
-3.16821e-07
-9.7399e-07
3.10043e-07
-0.00113631
-1.29074e-06
-4.18706e-10
7.84044e-09
0.00113631
-3.13474e-07
1.29515e-06
3.08744e-07
9.7415e-07
-3.16995e-07
-9.73966e-07
3.08921e-07
-0.000276085
1.32266e-06
1.28496e-06
-2.70493e-07
-2.74573e-07
0.000274022
-7.27309e-10
-1.154e-09
-0.00114696
-5.83276e-09
-2.02782e-09
0.00114697
-0.00113647
-1.29382e-06
-2.42742e-09
3.06973e-09
0.00113647
-3.17202e-07
1.29742e-06
3.1133e-07
9.7482e-07
-3.16261e-07
-9.73351e-07
3.10463e-07
-0.00113631
-1.29051e-06
-4.33883e-11
7.79968e-09
0.00113631
-3.13027e-07
1.29535e-06
3.09296e-07
9.73458e-07
-3.17637e-07
-9.74641e-07
3.0833e-07
-0.000276084
1.32192e-06
1.28421e-06
-2.70257e-07
-2.7366e-07
0.000274022
7.10195e-10
2.02057e-10
-0.00114697
-2.68319e-09
-2.64656e-09
0.00114697
-0.00113647
-1.29393e-06
-4.95604e-10
5.35297e-09
0.00113647
-3.16897e-07
1.29727e-06
3.11429e-07
9.74243e-07
-3.17177e-07
-9.73845e-07
3.0929e-07
-0.00113632
-1.28999e-06
-1.97755e-09
6.08519e-09
0.00113632
-3.12626e-07
1.29582e-06
3.09592e-07
9.73955e-07
-3.17025e-07
-9.74193e-07
3.08986e-07
-0.000276085
1.32128e-06
1.2841e-06
-2.70178e-07
-2.73088e-07
0.000274023
8.78741e-10
4.398e-09
-0.00114697
-5.06745e-09
-3.39459e-09
0.00114697
-0.00113646
-1.29354e-06
-9.95497e-10
4.72994e-09
0.00113647
-3.16396e-07
1.29766e-06
3.11812e-07
9.74304e-07
-3.16924e-07
-9.73686e-07
3.09447e-07
-0.00113632
-1.28915e-06
-2.88032e-09
3.7417e-09
0.00113632
-3.11923e-07
1.29657e-06
3.10311e-07
9.74221e-07
-3.16715e-07
-9.73873e-07
3.09294e-07
-0.000276085
1.32128e-06
1.28426e-06
-2.70104e-07
-2.7295e-07
0.000274023
1.67703e-09
5.61788e-09
-0.00114697
-5.96824e-09
-3.96582e-09
0.00114697
-0.00113646
-1.29269e-06
-8.22553e-10
2.57456e-09
0.00113646
-3.15489e-07
1.29848e-06
3.12778e-07
9.74038e-07
-3.17057e-07
-9.73837e-07
3.09132e-07
-0.00113632
-1.28881e-06
-3.12186e-09
2.64536e-09
0.00113632
-3.11301e-07
1.29682e-06
3.10866e-07
9.74232e-07
-3.16683e-07
-9.7378e-07
3.09263e-07
-0.000276082
1.32168e-06
1.28469e-06
-2.7013e-07
-2.73507e-07
0.00027402
1.75041e-09
2.71988e-09
-0.00114697
-4.11835e-09
-3.66373e-09
0.00114697
-0.00113645
-1.29211e-06
-9.89064e-10
1.3617e-10
0.00113645
-3.15171e-07
1.29913e-06
3.13205e-07
9.73886e-07
-3.17073e-07
-9.73914e-07
3.09105e-07
-0.00113632
-1.28909e-06
-1.84984e-09
3.04517e-09
0.00113632
-3.11654e-07
1.29651e-06
3.10455e-07
9.73863e-07
-3.16764e-07
-9.74219e-07
3.09145e-07
-0.000276079
1.32214e-06
1.28487e-06
-2.70337e-07
-2.74122e-07
0.000274017
9.58833e-10
8.7216e-10
-0.00114697
-2.091e-09
-2.72089e-09
0.00114697
-0.00113644
-1.2916e-06
-1.85013e-09
-1.21827e-09
0.00113645
-3.14246e-07
1.29945e-06
3.13829e-07
9.73949e-07
-3.17077e-07
-9.7392e-07
3.09106e-07
-0.00113632
-1.2897e-06
-1.40402e-09
5.57139e-09
0.00113632
-3.12258e-07
1.29596e-06
3.09894e-07
9.73936e-07
-3.16965e-07
-9.74205e-07
3.0904e-07
-0.000276078
1.32176e-06
1.28461e-06
-2.7067e-07
-2.73343e-07
0.000274016
-3.05683e-10
-6.07886e-10
-0.00114697
-4.58186e-10
-1.14675e-09
0.00114697
-0.00113644
-1.29232e-06
-2.38208e-09
1.69909e-09
0.00113644
-3.15216e-07
1.29857e-06
3.12542e-07
9.74323e-07
-3.16642e-07
-9.7348e-07
3.09382e-07
-0.00113632
-1.29026e-06
-3.15477e-09
7.90419e-09
0.00113632
-3.13015e-07
1.29541e-06
3.09061e-07
9.74549e-07
-3.16313e-07
-9.73592e-07
3.09654e-07
-0.000276078
1.32139e-06
1.28469e-06
-2.70856e-07
-2.72736e-07
0.000274015
-2.23974e-09
-1.48884e-09
-0.00114697
4.78305e-10
8.93538e-10
0.00114697
-0.00113643
-1.29307e-06
-2.14797e-09
3.01702e-09
0.00113644
-3.15702e-07
1.29798e-06
3.12446e-07
9.73983e-07
-3.1682e-07
-9.73835e-07
3.0935e-07
-0.00113632
-1.29041e-06
-3.86683e-09
8.67189e-09
0.00113632
-3.13434e-07
1.29538e-06
3.08885e-07
9.74637e-07
-3.16088e-07
-9.73453e-07
3.09795e-07
-0.000276075
1.32136e-06
1.28499e-06
-2.7104e-07
-2.72719e-07
0.000274013
-2.55411e-09
-2.47289e-09
-0.00114697
1.00255e-09
1.00008e-09
0.00114697
-0.00113643
-1.29314e-06
-2.36997e-09
3.36245e-09
0.00113644
-3.15788e-07
1.29786e-06
3.12059e-07
9.74085e-07
-3.16518e-07
-9.73791e-07
3.09535e-07
-0.00113632
-1.29058e-06
-2.58836e-09
8.8998e-09
0.00113632
-3.13116e-07
1.2952e-06
3.09023e-07
9.74346e-07
-3.16557e-07
-9.7383e-07
3.09309e-07
-0.000276073
1.32148e-06
1.28468e-06
-2.70594e-07
-2.73062e-07
0.000274011
1.40187e-06
1.36363e-06
-3.37646e-07
-3.42207e-07
0.000274249
-0.000276335
-1.29359e-06
-1.25261e-06
0.000276297
-0.000274222
2.3278e-07
2.37827e-07
1.50404e-07
0.0011354
-3.82428e-07
1.27759e-06
2.65955e-07
9.02074e-07
-3.98863e-07
2.38218e-07
-1.07037e-06
-0.00113528
-1.40108e-06
3.00224e-07
1.547e-07
0.00113547
-3.83892e-07
1.27274e-06
2.63746e-07
9.02441e-07
-3.94959e-07
2.36683e-07
-1.06919e-06
-0.00113535
0.00113566
2.26913e-07
-0.00113559
1.14329e-07
-1.38339e-06
2.8101e-07
-3.65069e-07
-1.04608e-06
2.56795e-07
-3.78357e-07
9.22635e-07
1.28986e-06
0.00113573
2.27146e-07
-0.00113565
1.18881e-07
-1.38215e-06
2.79076e-07
-3.66787e-07
-1.04516e-06
2.54397e-07
-3.74383e-07
9.23157e-07
-3.37969e-07
-3.40584e-07
0.000274231
-0.000276317
-1.25081e-06
0.000276272
-0.000274197
2.30951e-07
2.34932e-07
1.56248e-07
0.0011364
-3.78573e-07
1.23579e-06
2.58766e-07
9.03927e-07
-3.98208e-07
2.39701e-07
-1.06853e-06
-0.00113628
-1.39491e-06
2.94558e-07
1.52171e-07
0.00113538
-3.82908e-07
1.26822e-06
2.65664e-07
9.04685e-07
-3.95e-07
2.37318e-07
-1.06776e-06
-0.00113526
0.00113667
2.2231e-07
-0.0011366
1.1901e-07
-1.34479e-06
2.74177e-07
-3.60777e-07
-1.04462e-06
2.58166e-07
-3.7695e-07
9.24089e-07
1.28439e-06
0.00113564
2.21442e-07
-0.00113557
1.16283e-07
-1.37638e-06
2.79923e-07
-3.65622e-07
-1.04432e-06
2.56854e-07
-3.72393e-07
9.24278e-07
3.01064e-07
1.55065e-07
0.00113497
-3.80875e-07
1.26476e-06
2.61518e-07
8.95092e-07
-3.92696e-07
2.3296e-07
-1.05996e-06
-0.00113486
2.22306e-07
-0.00113613
1.23959e-07
-1.34615e-06
2.72307e-07
-3.62439e-07
-1.03857e-06
2.59555e-07
9.18958e-07
-3.75216e-07
1.2811e-06
0.00113524
2.25308e-07
-0.00113516
1.17241e-07
-1.37409e-06
2.77309e-07
-3.62867e-07
-1.03668e-06
2.51957e-07
-3.71127e-07
9.14862e-07
-3.36784e-07
-3.42978e-07
0.000274229
-0.000276304
-1.25019e-06
0.000276262
-0.000274199
2.33166e-07
2.37919e-07
2.95315e-07
1.5849e-07
0.00113599
-3.7902e-07
1.22589e-06
2.58063e-07
9.01942e-07
-3.97896e-07
2.39934e-07
-1.0647e-06
-0.00113587
2.22283e-07
-0.00113602
1.15738e-07
-1.34104e-06
2.72215e-07
-3.56734e-07
-1.03878e-06
2.58162e-07
9.18763e-07
-3.76442e-07
1.24387e-06
0.00113625
2.23851e-07
-0.00113618
1.20513e-07
-1.33733e-06
2.73982e-07
-3.61146e-07
-1.04157e-06
2.58172e-07
-3.76902e-07
9.21029e-07
-0.00027417
2.31618e-07
2.34819e-07
1.37852e-06
1.33946e-06
-3.12798e-07
-3.18743e-07
0.000274211
-1.31119e-06
-1.27178e-06
0.00027626
-0.000274184
2.5106e-07
2.55824e-07
1.03351e-07
0.00113573
-3.59579e-07
1.29863e-06
2.85912e-07
9.28645e-07
-3.7119e-07
-1.03917e-06
2.62454e-07
-1.3768e-06
2.05575e-07
1.07459e-07
0.00113579
-3.61488e-07
1.29518e-06
2.83761e-07
9.29061e-07
-3.68102e-07
-1.03829e-06
2.59524e-07
0.00113587
1.39297e-07
-0.00113583
7.71739e-08
-1.36418e-06
2.96345e-07
-3.476e-07
-1.02003e-06
2.77444e-07
-3.54952e-07
9.45599e-07
1.30802e-06
0.00113594
1.39568e-07
-0.0011359
7.76479e-08
-1.36187e-06
2.95193e-07
-3.48573e-07
-1.01982e-06
2.75255e-07
-3.51852e-07
9.45492e-07
-3.14988e-07
-3.15984e-07
0.000274186
-1.2708e-06
0.000276235
-0.000274159
2.50329e-07
2.52859e-07
1.07011e-07
0.00113674
-3.55231e-07
1.25796e-06
2.78813e-07
9.30092e-07
-3.70528e-07
-1.03773e-06
2.63627e-07
-1.37134e-06
2.01484e-07
1.05695e-07
0.00113571
-3.60917e-07
1.2898e-06
2.84013e-07
9.30299e-07
-3.66376e-07
-1.03768e-06
2.61917e-07
0.00113688
1.39811e-07
-0.00113684
7.67055e-08
-1.32409e-06
2.90722e-07
-3.42588e-07
-1.01979e-06
2.77954e-07
-3.54422e-07
9.45889e-07
1.30267e-06
0.00113584
1.40091e-07
-0.0011358
7.98492e-08
-1.35629e-06
2.94935e-07
-3.48865e-07
-1.01928e-06
2.76338e-07
-3.50518e-07
9.46279e-07
2.02247e-07
1.05496e-07
0.0011353
-3.57388e-07
1.28632e-06
2.82297e-07
9.21015e-07
-3.64611e-07
2.57333e-07
-1.02977e-06
1.39286e-07
-0.00113638
8.35764e-08
-1.32445e-06
2.89819e-07
-3.43143e-07
-1.01419e-06
2.78015e-07
9.40417e-07
-3.54466e-07
1.30092e-06
0.00113545
1.35506e-07
-0.00113541
7.4376e-08
-1.35239e-06
2.93467e-07
-3.44299e-07
-1.01051e-06
2.72601e-07
-3.48374e-07
9.3829e-07
-3.13051e-07
-3.18222e-07
0.000274186
-1.26747e-06
0.000276215
-0.000274152
2.50313e-07
2.56466e-07
2.03206e-07
1.07854e-07
0.00113631
-3.55456e-07
1.24973e-06
2.79036e-07
9.26725e-07
-3.70703e-07
2.63458e-07
-1.03519e-06
1.39794e-07
-0.00113625
7.93445e-08
-1.32201e-06
2.86908e-07
-3.39944e-07
-1.01368e-06
2.78469e-07
9.41004e-07
-3.5373e-07
1.26455e-06
0.00113645
1.39495e-07
-0.00113641
7.41483e-08
-1.31438e-06
2.91939e-07
-3.40757e-07
-1.01706e-06
2.77796e-07
-3.55092e-07
9.42678e-07
-0.00027413
2.51478e-07
2.53946e-07
1.35978e-06
1.31928e-06
-2.94535e-07
-3.0041e-07
0.000274176
-1.32429e-06
-1.28535e-06
0.000276233
-0.000274158
2.65139e-07
2.69181e-07
6.69718e-08
0.0011359
-3.43512e-07
1.3158e-06
2.99691e-07
9.50734e-07
-3.49364e-07
-1.01428e-06
2.82666e-07
-1.35761e-06
1.2093e-07
6.75173e-08
0.00113597
-3.44209e-07
1.3124e-06
2.98582e-07
9.50649e-07
-3.45563e-07
-1.01375e-06
2.80341e-07
0.00113596
7.20064e-08
-0.00113594
4.6689e-08
-1.34882e-06
3.0675e-07
-3.35216e-07
-9.99845e-07
2.94693e-07
-3.36149e-07
9.63263e-07
1.32199e-06
0.00113602
7.26255e-08
-0.00113601
4.63065e-08
-1.34612e-06
3.07013e-07
-3.34908e-07
-9.99245e-07
2.9107e-07
-3.33625e-07
9.6356e-07
-2.95583e-07
-2.97449e-07
0.00027415
-1.28486e-06
0.000276203
-0.000274127
2.65107e-07
2.66528e-07
6.57189e-08
0.0011369
-3.37556e-07
1.27656e-06
2.94838e-07
9.50888e-07
-3.4999e-07
-1.01401e-06
2.81533e-07
-1.35217e-06
1.23116e-07
7.02813e-08
0.00113586
-3.44509e-07
1.30691e-06
2.98545e-07
9.51375e-07
-3.45688e-07
-1.01326e-06
2.80134e-07
0.00113696
7.54362e-08
-0.00113694
4.36015e-08
-1.30814e-06
3.01916e-07
-3.28746e-07
-1.00103e-06
2.94315e-07
-3.36969e-07
9.62247e-07
1.31568e-06
0.00113591
7.60052e-08
-0.0011359
4.91134e-08
-1.34133e-06
3.06686e-07
-3.35381e-07
-1.0003e-06
2.90978e-07
-3.34371e-07
9.62494e-07
1.17412e-07
6.4721e-08
0.00113548
-3.40125e-07
1.30517e-06
2.97312e-07
9.43659e-07
-3.4307e-07
2.77681e-07
-1.00448e-06
7.21389e-08
-0.00113649
5.07574e-08
-1.30843e-06
3.01531e-07
-3.29224e-07
-9.94987e-07
2.93727e-07
9.57372e-07
-3.37079e-07
1.31354e-06
0.00113553
7.09034e-08
-0.00113552
4.57257e-08
-1.33775e-06
3.03531e-07
-3.32407e-07
-9.90995e-07
2.89223e-07
-3.29886e-07
9.55331e-07
-2.95763e-07
-2.9965e-07
0.00027414
-1.28048e-06
0.000276179
-0.000274115
2.63806e-07
2.68625e-07
1.21056e-07
6.40426e-08
0.00113647
-3.36433e-07
1.26862e-06
2.95743e-07
9.478e-07
-3.49192e-07
2.8252e-07
-1.01093e-06
7.38917e-08
-0.00113635
4.96801e-08
-1.30714e-06
2.96457e-07
-3.2838e-07
-9.93987e-07
2.94632e-07
9.57913e-07
-3.35672e-07
1.27678e-06
0.00113652
7.32225e-08
-0.00113651
4.28017e-08
-1.30029e-06
3.01674e-07
-3.28979e-07
-9.97279e-07
2.95696e-07
-3.35525e-07
9.59781e-07
-0.0002741
2.64614e-07
2.66795e-07
1.34674e-06
1.30591e-06
-2.80699e-07
-2.87831e-07
0.000274149
-1.33128e-06
-1.29221e-06
0.000276201
-0.000274125
2.71756e-07
2.76492e-07
4.08195e-08
0.00113596
-3.32761e-07
1.32661e-06
3.08511e-07
9.66712e-07
-3.31853e-07
-9.9598e-07
2.98107e-07
-1.34299e-06
6.07227e-08
3.80427e-08
0.00113602
-3.31296e-07
1.32529e-06
3.09891e-07
9.66707e-07
-3.2986e-07
-9.95322e-07
2.94163e-07
0.00113596
3.30237e-08
-0.00113596
2.9459e-08
-1.34062e-06
3.12415e-07
-3.28211e-07
-9.88365e-07
3.03922e-07
-3.2487e-07
9.73077e-07
1.33087e-06
0.00113603
3.08149e-08
-0.00113603
2.14649e-08
-1.33586e-06
3.13932e-07
-3.26625e-07
-9.88535e-07
3.0143e-07
-3.22088e-07
9.72513e-07
-2.80578e-07
-2.84136e-07
0.000274119
-1.29343e-06
0.00027618
-0.000274104
2.7269e-07
2.75115e-07
3.68775e-08
0.00113696
-3.26747e-07
1.28771e-06
3.03458e-07
9.6576e-07
-3.32462e-07
-9.96984e-07
2.98223e-07
-1.33879e-06
6.46538e-08
4.17931e-08
0.00113591
-3.32477e-07
1.31851e-06
3.08441e-07
9.65443e-07
-3.30017e-07
-9.96614e-07
2.94346e-07
0.00113697
3.53833e-08
-0.00113697
2.44078e-08
-1.30006e-06
3.08032e-07
-3.21715e-07
-9.8892e-07
3.03863e-07
-3.25483e-07
9.72651e-07
1.32351e-06
0.00113591
3.60614e-08
-0.00113591
2.8095e-08
-1.33189e-06
3.1271e-07
-3.27492e-07
-9.89366e-07
3.00634e-07
-3.23025e-07
9.71779e-07
5.97902e-08
3.98108e-08
0.00113554
-3.29678e-07
1.31595e-06
3.05895e-07
9.58348e-07
-3.25862e-07
2.92704e-07
-9.87278e-07
3.00555e-08
-0.00113652
2.8025e-08
-1.29809e-06
3.08549e-07
-3.20748e-07
-9.82741e-07
3.03227e-07
9.67794e-07
-3.25885e-07
1.32099e-06
0.00113554
3.2992e-08
-0.00113554
2.92712e-08
-1.32872e-06
3.099e-07
-3.2475e-07
-9.80218e-07
2.97068e-07
-3.20227e-07
9.64407e-07
-2.82236e-07
-2.87582e-07
0.000274106
-1.28869e-06
0.000276148
-0.000274084
2.71532e-07
2.765e-07
6.22192e-08
3.65849e-08
0.00113653
-3.26845e-07
1.27957e-06
3.0338e-07
9.63094e-07
-3.31414e-07
2.98909e-07
-9.93304e-07
3.45505e-08
-0.00113637
2.80072e-08
-1.29717e-06
3.04491e-07
-3.18954e-07
-9.83746e-07
3.03155e-07
9.66669e-07
-3.25963e-07
1.285e-06
0.00113653
3.51042e-08
-0.00113653
2.46345e-08
-1.29049e-06
3.07634e-07
-3.21814e-07
-9.86334e-07
3.0346e-07
-3.25702e-07
9.69063e-07
-0.00027407
2.72516e-07
2.73755e-07
1.33928e-06
1.29861e-06
-2.74521e-07
-2.80563e-07
0.000274118
-1.33584e-06
-1.29623e-06
0.000276183
-0.000274106
2.74605e-07
2.80339e-07
2.48086e-08
0.00113596
-3.26339e-07
1.33321e-06
3.13736e-07
9.74849e-07
-3.23382e-07
-9.86351e-07
3.05428e-07
-1.33425e-06
2.60843e-08
1.74928e-08
0.00113603
-3.2483e-07
1.33271e-06
3.1526e-07
9.74138e-07
-3.20136e-07
-9.86626e-07
3.02341e-07
0.00113595
1.42731e-08
-0.00113595
1.83653e-08
-1.33537e-06
3.15636e-07
-3.24365e-07
-9.83397e-07
3.0682e-07
-3.21343e-07
9.77173e-07
1.33402e-06
0.00113602
1.396e-08
-0.00113602
1.44187e-08
-1.33185e-06
3.166e-07
-3.23383e-07
-9.82952e-07
3.03466e-07
-3.18728e-07
9.77275e-07
-2.7412e-07
-2.75948e-07
0.000274099
-1.29572e-06
0.000276169
-0.000274092
2.74625e-07
2.77854e-07
2.01847e-08
0.00113696
-3.19722e-07
1.29396e-06
3.0931e-07
9.7456e-07
-3.2384e-07
-9.86686e-07
3.04966e-07
-1.33056e-06
3.02685e-08
2.3462e-08
0.00113591
-3.25709e-07
1.32517e-06
3.14058e-07
9.73803e-07
-3.21075e-07
-9.87043e-07
3.01945e-07
0.00113695
1.60711e-08
-0.00113695
1.61118e-08
-1.29521e-06
3.10627e-07
-3.18373e-07
-9.83049e-07
3.06442e-07
-3.21967e-07
9.77346e-07
1.32719e-06
0.00113589
1.52934e-08
-0.0011359
1.78753e-08
-1.32753e-06
3.16112e-07
-3.23498e-07
-9.83335e-07
3.04004e-07
-3.18165e-07
9.76754e-07
2.71159e-08
2.52841e-08
0.00113553
-3.23347e-07
1.32202e-06
3.11093e-07
9.66416e-07
-3.17976e-07
2.99226e-07
-9.77765e-07
1.19335e-08
-0.00113651
2.17444e-08
-1.29529e-06
3.10448e-07
-3.18216e-07
-9.7734e-07
3.06734e-07
9.72255e-07
-3.20861e-07
1.32412e-06
0.00113553
1.15019e-08
-0.00113553
1.75786e-08
-1.32511e-06
3.11942e-07
-3.219e-07
-9.74009e-07
3.02327e-07
-3.14089e-07
9.69571e-07
-2.75215e-07
-2.79909e-07
0.000274076
-1.29245e-06
0.000276128
-0.000274063
2.74732e-07
2.79561e-07
3.02086e-08
2.0677e-08
0.00113653
-3.20034e-07
1.28633e-06
3.09211e-07
9.71033e-07
-3.24114e-07
3.04797e-07
-9.84093e-07
1.44274e-08
-0.00113636
1.81445e-08
-1.29295e-06
3.07696e-07
-3.15247e-07
-9.78049e-07
3.06405e-07
9.71431e-07
-3.21815e-07
1.28842e-06
0.00113651
1.56031e-08
-0.00113652
1.48562e-08
-1.28637e-06
3.10909e-07
-3.17775e-07
-9.80542e-07
3.06809e-07
-3.21261e-07
9.73888e-07
-0.000274052
2.74804e-07
2.77033e-07
1.33498e-06
1.29489e-06
-2.71834e-07
-2.77268e-07
0.000274102
-1.33691e-06
-1.29732e-06
0.000276176
-0.000274098
2.75975e-07
2.80623e-07
1.57154e-08
0.00113594
-3.2316e-07
1.33674e-06
3.16538e-07
9.78024e-07
-3.20678e-07
-9.82328e-07
3.0676e-07
-1.33181e-06
1.21761e-08
1.21575e-08
0.00113602
-3.22424e-07
1.33461e-06
3.17276e-07
9.7786e-07
-3.17496e-07
-9.82008e-07
3.0432e-07
0.00113593
6.47624e-09
-0.00113593
1.29809e-08
-1.33417e-06
3.1706e-07
-3.22603e-07
-9.8159e-07
3.08179e-07
-3.19258e-07
9.78272e-07
1.33512e-06
0.00113601
5.45969e-09
-0.00113601
9.93979e-09
-1.33053e-06
3.17468e-07
-3.22374e-07
-9.81595e-07
3.0577e-07
-3.16022e-07
9.78079e-07
-2.72349e-07
-2.74096e-07
0.000274089
-1.29683e-06
0.000276162
-0.000274085
2.75404e-07
2.78959e-07
1.44025e-08
0.00113694
-3.17429e-07
1.29705e-06
3.11357e-07
9.77787e-07
-3.20482e-07
-9.82338e-07
3.0706e-07
-1.32685e-06
1.34548e-08
1.45313e-08
0.00113589
-3.22243e-07
1.32844e-06
3.16889e-07
9.77655e-07
-3.17562e-07
-9.82244e-07
3.0411e-07
0.00113693
6.96719e-09
-0.00113693
1.32669e-08
-1.29393e-06
3.11467e-07
-3.17192e-07
-9.8167e-07
3.08324e-07
-3.19174e-07
9.78033e-07
1.32956e-06
0.00113588
5.83168e-09
-0.00113588
1.0942e-08
-1.32483e-06
3.17369e-07
-3.21669e-07
-9.81333e-07
3.04865e-07
-3.16594e-07
9.78231e-07
9.13269e-09
1.51399e-08
0.00113552
-3.21233e-07
1.32489e-06
3.12825e-07
9.706e-07
-3.12862e-07
3.03371e-07
-9.72745e-07
4.2145e-09
-0.00113649
1.69284e-08
-1.29379e-06
3.11412e-07
-3.1746e-07
-9.75478e-07
3.08934e-07
9.73557e-07
-3.18283e-07
1.32562e-06
0.00113551
3.64474e-09
-0.00113552
1.25876e-08
-1.32331e-06
3.13375e-07
-3.20583e-07
-9.72025e-07
3.03443e-07
-3.12461e-07
9.71125e-07
-2.71843e-07
-2.77248e-07
0.000274058
-1.29414e-06
0.00027612
-0.000274053
2.75484e-07
2.81589e-07
1.31613e-08
1.35629e-08
0.0011365
-3.17216e-07
1.2887e-06
3.11393e-07
9.75276e-07
-3.20396e-07
3.07452e-07
-9.79224e-07
4.11882e-09
-0.00113634
1.16228e-08
-1.29067e-06
3.08975e-07
-3.13533e-07
-9.7568e-07
3.08289e-07
9.7322e-07
-3.19116e-07
1.28909e-06
0.00113649
5.24414e-09
-0.0011365
1.21525e-08
-1.28565e-06
3.11182e-07
-3.17748e-07
-9.77823e-07
3.08632e-07
-3.19018e-07
9.76205e-07
-0.000274041
2.75661e-07
2.77924e-07
1.3341e-06
1.29386e-06
-2.7075e-07
-2.77137e-07
0.000274095
-1.33765e-06
-1.29743e-06
0.000276171
-0.000274093
2.75039e-07
2.82246e-07
1.13351e-08
0.00113593
-3.22106e-07
1.33743e-06
3.17234e-07
9.78744e-07
-3.18359e-07
-9.81015e-07
3.08525e-07
-1.33046e-06
4.81215e-09
8.8663e-09
0.00113601
-3.21492e-07
1.33572e-06
3.17866e-07
9.7871e-07
-3.15115e-07
-9.80857e-07
3.06042e-07
0.00113593
1.72689e-09
-0.00113593
9.84964e-09
-1.33332e-06
3.17488e-07
-3.22115e-07
-9.8058e-07
3.08767e-07
-3.18256e-07
9.79038e-07
1.33485e-06
0.001136
6.18599e-10
-0.001136
1.08541e-08
-1.33067e-06
3.16917e-07
-3.22557e-07
-9.80064e-07
3.0675e-07
-3.14819e-07
9.7949e-07
-2.71761e-07
-2.72639e-07
0.000274082
-1.29777e-06
0.000276156
-0.000274078
2.76386e-07
2.78872e-07
1.13052e-08
0.00113693
-3.16763e-07
1.29784e-06
3.117e-07
9.78622e-07
-3.18233e-07
-9.81142e-07
3.08834e-07
-1.3246e-06
5.07477e-09
8.86859e-09
0.00113587
-3.20972e-07
1.3303e-06
3.18254e-07
9.78663e-07
-3.15746e-07
-9.80885e-07
3.05387e-07
0.00113692
7.60002e-10
-0.00113692
9.81011e-09
-1.29361e-06
3.12429e-07
-3.16359e-07
-9.80371e-07
3.09192e-07
-3.18007e-07
9.79106e-07
1.32931e-06
0.00113587
3.90592e-10
-0.00113587
9.75314e-09
-1.32488e-06
3.17029e-07
-3.21668e-07
-9.80183e-07
3.05962e-07
-3.15207e-07
9.79302e-07
3.5792e-09
1.10332e-08
0.00113551
-3.19622e-07
1.32639e-06
3.142e-07
9.71414e-07
-3.12033e-07
3.03665e-07
-9.71526e-07
1.67385e-09
-0.00113648
1.36155e-08
-1.29299e-06
3.12049e-07
-3.1661e-07
-9.75067e-07
3.09538e-07
9.73425e-07
-3.17362e-07
1.32602e-06
0.0011355
3.93615e-09
-0.0011355
1.23e-08
-1.32265e-06
3.14201e-07
-3.19485e-07
-9.72662e-07
3.03126e-07
-3.12695e-07
9.70201e-07
-2.71449e-07
-2.75273e-07
0.000274051
-1.29492e-06
0.000276116
-0.000274049
2.76486e-07
2.80986e-07
4.19075e-09
1.07074e-08
0.00113649
-3.16617e-07
1.28944e-06
3.12041e-07
9.76712e-07
-3.18139e-07
3.09168e-07
-9.77225e-07
4.27968e-10
-0.00113633
8.2808e-09
-1.28981e-06
3.09015e-07
-3.13103e-07
-9.75072e-07
3.09218e-07
9.73367e-07
-3.1749e-07
1.28788e-06
0.00113648
1.71605e-09
-0.00113648
1.27819e-08
-1.28634e-06
3.11263e-07
-3.17313e-07
-9.77026e-07
3.09083e-07
-3.18494e-07
9.76898e-07
-0.000274032
2.74428e-07
2.78205e-07
1.33302e-06
1.29363e-06
-2.71659e-07
-2.75104e-07
0.000274091
-1.3385e-06
-1.29825e-06
0.000276168
-0.00027409
2.76255e-07
2.82427e-07
7.82062e-09
0.00113592
-3.21261e-07
1.33847e-06
3.1783e-07
9.794e-07
-3.1741e-07
-9.80045e-07
3.0901e-07
-1.33111e-06
6.56645e-10
1.01521e-08
0.001136
-3.22347e-07
1.3349e-06
3.1702e-07
9.80152e-07
-3.13904e-07
-9.79272e-07
3.07206e-07
0.00113592
-1.11086e-09
-0.00113592
5.71719e-09
-1.33231e-06
3.18251e-07
-3.21108e-07
-9.79856e-07
3.09399e-07
-3.17355e-07
9.79582e-07
1.33443e-06
0.00113599
-1.38847e-09
-0.00113599
1.28891e-08
-1.33125e-06
3.16352e-07
-3.23181e-07
-9.79258e-07
3.06676e-07
-3.14631e-07
9.80112e-07
-2.70664e-07
-2.7335e-07
0.000274076
-1.2985e-06
0.000276149
-0.000274071
2.77482e-07
2.77839e-07
7.9119e-09
0.00113692
-3.15423e-07
1.29799e-06
3.12757e-07
9.79531e-07
-3.17255e-07
-9.79821e-07
3.09518e-07
-1.32524e-06
5.21303e-10
9.325e-09
0.00113586
-3.21589e-07
1.32945e-06
3.17121e-07
9.80092e-07
-3.14292e-07
-9.795e-07
3.06819e-07
0.00113692
-4.64793e-09
-0.00113692
7.15037e-09
-1.29293e-06
3.12862e-07
-3.15764e-07
-9.79259e-07
3.10006e-07
-3.17063e-07
9.80051e-07
1.32889e-06
0.00113586
-3.63788e-09
-0.00113586
1.16242e-08
-1.32552e-06
3.15982e-07
-3.23245e-07
-9.79002e-07
3.07366e-07
-3.138e-07
9.8048e-07
4.76339e-09
1.13041e-08
0.0011355
-3.18842e-07
1.32614e-06
3.14718e-07
9.70312e-07
-3.12009e-07
3.03297e-07
-9.72276e-07
3.37758e-09
-0.00113647
1.25481e-08
-1.29247e-06
3.12319e-07
-3.16489e-07
-9.75645e-07
3.08323e-07
9.72749e-07
-3.185e-07
1.32741e-06
0.00113549
4.19536e-09
-0.00113549
9.86845e-09
-1.32157e-06
3.1412e-07
-3.19386e-07
-9.72843e-07
3.02305e-07
-3.13256e-07
9.69734e-07
-2.70551e-07
-2.76138e-07
0.000274048
-1.29484e-06
0.000276112
-0.000274046
2.76048e-07
2.81026e-07
2.34773e-09
1.24561e-08
0.00113648
-3.16865e-07
1.288e-06
3.11787e-07
9.77271e-07
-3.17706e-07
3.09553e-07
-9.76523e-07
1.25911e-09
-0.00113632
6.68139e-09
-1.28995e-06
3.08843e-07
-3.13712e-07
-9.74851e-07
3.09133e-07
9.73491e-07
-3.17412e-07
1.28849e-06
0.00113648
1.9913e-10
-0.00113648
1.15226e-08
-1.28609e-06
3.11234e-07
-3.17489e-07
-9.77297e-07
3.0936e-07
-3.18198e-07
9.76457e-07
-0.000274026
2.73944e-07
2.79818e-07
1.33212e-06
1.29273e-06
-2.70247e-07
-2.75124e-07
0.000274088
-1.33891e-06
-1.29842e-06
0.000276168
-0.000274089
2.76406e-07
2.82609e-07
3.76381e-09
0.00113592
-3.20419e-07
1.33927e-06
3.18633e-07
9.79882e-07
-3.16721e-07
-9.79438e-07
3.09444e-07
-1.33121e-06
-3.91816e-11
1.18063e-08
0.00113599
-3.22998e-07
1.33511e-06
3.16568e-07
9.80169e-07
-3.14396e-07
-9.79036e-07
3.06886e-07
0.00113592
-2.10026e-09
-0.00113592