/*--------------------------------*- C++ -*----------------------------------*\
| =========                 |                                                 |
| \\      /  F ield         | OpenFOAM: The Open Source CFD Toolbox           |
|  \\    /   O peration     | Version:  2312                                  |
|   \\  /    A nd           | Website:  www.openfoam.com                      |
|    \\/     M anipulation  |                                                 |
\*---------------------------------------------------------------------------*/
FoamFile
{
    version     2.0;
    format      ascii;
    arch        "LSB;label=32;scalar=64";
    class       volScalarField;
    location    "850";
    object      k;
}
// * * * * * * * * * * * * * * * * * * * * * * * * * * * * * * * * * * * * * //

dimensions      [0 2 -2 0 0 0 0];

internalField   nonuniform List<scalar> 
172512
(
3.91948e-05
5.15793e-05
5.1583e-05
5.36691e-05
5.36227e-05
5.15256e-05
5.15206e-05
5.36145e-05
5.15232e-05
5.15242e-05
5.15249e-05
5.15251e-05
5.36166e-05
5.15285e-05
5.1523e-05
5.36149e-05
5.36628e-05
5.158e-05
5.15751e-05
5.36644e-05
5.15776e-05
5.15786e-05
5.15794e-05
5.36737e-05
5.15772e-05
7.34435e-05
6.85752e-05
7.34444e-05
3.90994e-05
3.90988e-05
3.91036e-05
3.91023e-05
7.11957e-05
5.14165e-05
6.47963e-05
6.86289e-05
7.34749e-05
6.8606e-05
7.34993e-05
7.12225e-05
7.12474e-05
6.86283e-05
7.34776e-05
6.86054e-05
7.35e-05
3.91939e-05
3.91991e-05
3.91973e-05
6.07225e-05
6.48332e-05
4.69231e-05
5.16312e-05
6.06841e-05
6.48578e-05
4.69893e-05
7.12239e-05
7.12484e-05
6.07203e-05
4.69261e-05
6.48336e-05
5.1635e-05
6.06853e-05
4.69923e-05
6.48579e-05
6.99672e-05
6.99755e-05
5.37004e-05
6.99821e-05
6.99905e-05
7.11934e-05
7.11963e-05
5.35362e-05
6.99379e-05
6.9946e-05
7.12199e-05
7.11948e-05
7.12229e-05
7.11979e-05
5.35744e-05
6.99628e-05
6.9971e-05
6.99463e-05
6.99546e-05
5.1414e-05
6.47947e-05
6.85788e-05
7.34718e-05
7.34469e-05
6.86034e-05
6.8577e-05
7.34684e-05
7.34436e-05
6.86015e-05
6.06367e-05
5.14708e-05
6.48263e-05
4.6853e-05
6.48004e-05
4.67836e-05
6.06776e-05
6.06351e-05
5.14641e-05
6.48225e-05
4.68506e-05
6.47965e-05
4.67809e-05
6.0676e-05
7.12213e-05
7.1196e-05
5.35807e-05
6.99628e-05
6.99638e-05
6.99462e-05
7.12213e-05
6.06299e-05
5.14114e-05
6.4797e-05
4.67109e-05
6.85733e-05
7.344e-05
6.0628e-05
5.14121e-05
4.67116e-05
6.47933e-05
6.85779e-05
7.34726e-05
7.34494e-05
6.86028e-05
6.06364e-05
5.14684e-05
6.48289e-05
4.68528e-05
6.48024e-05
4.67832e-05
6.06777e-05
6.8578e-05
7.34683e-05
7.34455e-05
6.85998e-05
6.06372e-05
5.14693e-05
4.68535e-05
6.48251e-05
4.67839e-05
6.47991e-05
6.06744e-05
6.4828e-05
4.68538e-05
6.06777e-05
7.34721e-05
6.86005e-05
4.68543e-05
6.48232e-05
6.06774e-05
7.34677e-05
6.86014e-05
5.35251e-05
6.99405e-05
6.99375e-05
7.11944e-05
7.12223e-05
7.11974e-05
5.35895e-05
6.99657e-05
6.99627e-05
6.995e-05
6.99471e-05
7.1221e-05
7.1196e-05
7.34447e-05
6.06383e-05
5.14736e-05
4.68571e-05
6.48281e-05
4.67877e-05
6.4802e-05
6.06751e-05
6.06357e-05
5.14683e-05
4.68547e-05
6.48255e-05
4.67852e-05
6.47999e-05
6.06725e-05
6.8577e-05
7.34727e-05
7.34479e-05
6.85987e-05
6.85733e-05
7.34692e-05
7.34466e-05
6.85952e-05
5.35872e-05
6.99582e-05
6.99667e-05
6.99509e-05
7.12206e-05
7.12233e-05
7.11984e-05
7.12214e-05
7.12461e-05
7.12244e-05
7.12491e-05
6.99709e-05
6.99792e-05
5.37041e-05
6.99867e-05
6.99949e-05
7.12474e-05
7.12505e-05
5.3747e-05
6.99943e-05
7.00025e-05
6.86273e-05
7.34716e-05
6.86042e-05
7.3496e-05
6.07227e-05
6.48319e-05
4.69221e-05
5.1632e-05
6.06839e-05
6.48561e-05
4.69882e-05
6.0721e-05
6.4828e-05
4.69197e-05
5.16269e-05
6.06823e-05
6.48523e-05
4.69859e-05
6.86313e-05
7.35024e-05
6.86297e-05
7.34991e-05
6.07284e-05
5.16838e-05
6.48615e-05
4.70541e-05
6.07267e-05
5.16787e-05
6.48576e-05
4.70518e-05
6.99707e-05
6.99724e-05
5.36996e-05
6.99866e-05
6.99872e-05
7.12228e-05
7.12474e-05
7.12486e-05
5.37464e-05
6.9994e-05
6.99956e-05
7.12488e-05
6.07228e-05
6.4834e-05
4.69218e-05
5.16296e-05
6.06839e-05
6.48587e-05
4.69881e-05
6.86256e-05
7.34733e-05
6.86048e-05
7.34959e-05
6.07196e-05
4.69225e-05
6.48306e-05
5.16306e-05
6.06843e-05
4.69888e-05
6.48547e-05
6.86306e-05
7.35051e-05
6.07285e-05
5.16815e-05
6.48634e-05
4.7054e-05
6.86301e-05
7.35009e-05
6.07289e-05
5.16823e-05
4.70548e-05
6.48601e-05
6.86263e-05
7.34754e-05
6.86038e-05
7.34997e-05
6.07225e-05
4.69233e-05
6.48286e-05
5.16314e-05
6.06838e-05
4.69896e-05
6.48531e-05
6.86272e-05
7.34727e-05
6.86042e-05
7.34953e-05
6.07285e-05
5.16829e-05
6.48625e-05
4.70551e-05
6.86292e-05
7.35027e-05
6.07283e-05
5.16831e-05
4.70555e-05
6.48581e-05
6.86297e-05
7.35003e-05
6.99746e-05
6.99718e-05
5.37028e-05
6.99894e-05
6.99866e-05
7.12225e-05
7.12472e-05
7.12499e-05
5.37505e-05
6.9998e-05
6.99952e-05
7.12486e-05
6.07179e-05
4.69236e-05
6.48311e-05
5.16292e-05
6.06828e-05
4.69898e-05
6.48554e-05
6.86246e-05
7.3476e-05
6.86039e-05
7.35003e-05
6.86211e-05
7.34743e-05
6.86003e-05
7.34968e-05
6.07297e-05
5.16867e-05
4.70582e-05
6.4863e-05
6.07272e-05
5.1681e-05
4.70556e-05
6.48607e-05
6.86293e-05
7.35034e-05
6.86258e-05
7.35019e-05
7.12222e-05
7.12468e-05
7.12249e-05
7.12495e-05
5.37499e-05
6.99906e-05
6.99989e-05
7.12482e-05
7.12509e-05
7.16829e-05
7.97897e-05
7.34321e-05
7.97821e-05
7.16972e-05
7.18485e-05
6.85636e-05
7.16014e-05
7.16307e-05
7.15897e-05
7.16183e-05
7.18622e-05
7.16831e-05
7.97879e-05
7.34353e-05
7.978e-05
7.16974e-05
7.11839e-05
7.19037e-05
6.86187e-05
7.16857e-05
7.16505e-05
7.16769e-05
7.16433e-05
7.19169e-05
7.17361e-05
7.98177e-05
7.34857e-05
7.17219e-05
7.98247e-05
7.19032e-05
6.86163e-05
7.16629e-05
7.16314e-05
7.18899e-05
7.16719e-05
7.1639e-05
7.17347e-05
7.98359e-05
7.34888e-05
7.9829e-05
7.17488e-05
7.12344e-05
7.12356e-05
7.19037e-05
6.8618e-05
7.16504e-05
7.16871e-05
7.16399e-05
7.16753e-05
7.1917e-05
7.17363e-05
7.98154e-05
7.34864e-05
7.17221e-05
7.98228e-05
7.19032e-05
6.86157e-05
7.16284e-05
7.16617e-05
7.18901e-05
7.16388e-05
7.16732e-05
7.17349e-05
7.9834e-05
7.34914e-05
7.98268e-05
7.1749e-05
7.12354e-05
7.1237e-05
9.5034e-05
7.35519e-05
7.35452e-05
7.35386e-05
7.35319e-05
9.50362e-05
7.41988e-05
6.52882e-05
7.33026e-05
6.99703e-05
7.41943e-05
6.52992e-05
7.33111e-05
7.42464e-05
6.52964e-05
7.33123e-05
6.99787e-05
7.42421e-05
6.53077e-05
7.33208e-05
9.50234e-05
7.35265e-05
7.35198e-05
9.50211e-05
7.35398e-05
7.35331e-05
7.42082e-05
7.33242e-05
6.99791e-05
6.53172e-05
6.53067e-05
7.33157e-05
7.42125e-05
7.42558e-05
7.33338e-05
6.99874e-05
6.53256e-05
6.53149e-05
7.33254e-05
7.42601e-05
7.11814e-05
7.11845e-05
9.49854e-05
7.35031e-05
7.34963e-05
7.34895e-05
7.34827e-05
9.49879e-05
7.41521e-05
7.3273e-05
6.99336e-05
6.5243e-05
7.32609e-05
7.41572e-05
6.52321e-05
7.41982e-05
7.32821e-05
6.99417e-05
6.5251e-05
7.32693e-05
7.42032e-05
6.52385e-05
7.12081e-05
7.12067e-05
7.12112e-05
7.12097e-05
9.50014e-05
7.35019e-05
7.34951e-05
9.4999e-05
7.35155e-05
7.35086e-05
7.4182e-05
6.5282e-05
6.99587e-05
7.33002e-05
7.32881e-05
6.52719e-05
7.41867e-05
7.42281e-05
6.52901e-05
6.99669e-05
7.33094e-05
7.32974e-05
6.52784e-05
7.42328e-05
7.41722e-05
7.32748e-05
6.52522e-05
6.99505e-05
7.41674e-05
7.32866e-05
6.52626e-05
7.42183e-05
7.3284e-05
6.52588e-05
6.99587e-05
7.42135e-05
7.32958e-05
6.52708e-05
9.50123e-05
7.35277e-05
7.35209e-05
7.35143e-05
7.35074e-05
9.50147e-05
7.18754e-05
7.16344e-05
7.16062e-05
6.85897e-05
7.18621e-05
7.16436e-05
7.16143e-05
7.1709e-05
7.34609e-05
7.98133e-05
7.17232e-05
7.98061e-05
7.17103e-05
7.97941e-05
7.34576e-05
7.1696e-05
7.98016e-05
7.18765e-05
6.85925e-05
7.16578e-05
7.16269e-05
7.18893e-05
7.16485e-05
7.16188e-05
7.18745e-05
7.16325e-05
7.16011e-05
6.85881e-05
7.18612e-05
7.16445e-05
7.16092e-05
7.17084e-05
7.34576e-05
7.97951e-05
7.97876e-05
7.17226e-05
7.17096e-05
7.97757e-05
7.34543e-05
7.16954e-05
7.97834e-05
7.18755e-05
6.85908e-05
7.16586e-05
7.16216e-05
7.16468e-05
7.16137e-05
7.18885e-05
7.12093e-05
7.1208e-05
7.42293e-05
6.52861e-05
6.99586e-05
7.33076e-05
6.52752e-05
7.32957e-05
7.42324e-05
7.41824e-05
6.52833e-05
6.99604e-05
7.32995e-05
7.32909e-05
6.52721e-05
7.41855e-05
6.52556e-05
6.99504e-05
6.52667e-05
9.50103e-05
7.35215e-05
7.35282e-05
7.35081e-05
7.35144e-05
9.50119e-05
7.12096e-05
7.1847e-05
6.85622e-05
7.16302e-05
7.15955e-05
7.16178e-05
7.15857e-05
7.18612e-05
7.16813e-05
7.97688e-05
7.3431e-05
7.9761e-05
7.16956e-05
7.18748e-05
7.16029e-05
7.16328e-05
6.8589e-05
7.18636e-05
7.16141e-05
7.16448e-05
7.17092e-05
7.34636e-05
7.98115e-05
7.17234e-05
7.98038e-05
7.17105e-05
7.97921e-05
7.34586e-05
7.16962e-05
7.97998e-05
7.18764e-05
6.85918e-05
7.16269e-05
7.16594e-05
7.18894e-05
7.16158e-05
7.16473e-05
7.18747e-05
7.16323e-05
7.16e-05
6.85866e-05
7.18612e-05
7.16444e-05
7.16079e-05
7.17075e-05
7.34594e-05
7.97923e-05
7.9785e-05
7.17216e-05
7.17087e-05
7.97732e-05
7.34543e-05
7.16945e-05
7.97806e-05
7.18754e-05
6.85915e-05
7.16585e-05
7.16201e-05
7.16467e-05
7.16123e-05
7.18884e-05
7.17076e-05
7.34612e-05
7.98045e-05
7.9801e-05
7.17224e-05
7.18748e-05
6.85903e-05
7.1622e-05
7.16581e-05
7.16124e-05
7.1646e-05
7.18884e-05
7.17077e-05
7.34589e-05
7.97911e-05
7.97836e-05
7.17219e-05
7.18761e-05
6.85907e-05
7.16583e-05
7.16219e-05
7.16463e-05
7.16111e-05
7.18881e-05
9.4981e-05
7.34964e-05
7.35026e-05
7.34829e-05
7.34891e-05
9.49835e-05
7.41987e-05
7.3281e-05
6.99368e-05
6.52493e-05
7.32686e-05
6.52365e-05
7.42041e-05
7.41517e-05
7.32711e-05
6.99344e-05
6.52441e-05
6.52317e-05
7.32625e-05
7.41564e-05
7.11826e-05
7.12107e-05
7.12091e-05
9.4997e-05
7.34953e-05
7.35015e-05
9.49946e-05
7.35087e-05
7.35149e-05
7.42287e-05
6.52888e-05
6.99624e-05
7.33079e-05
6.52767e-05
7.3296e-05
7.42333e-05
7.41812e-05
6.52836e-05
6.99596e-05
7.32983e-05
7.32898e-05
6.5272e-05
7.41858e-05
7.42189e-05
7.32826e-05
6.52568e-05
6.99532e-05
6.52693e-05
7.42138e-05
7.32944e-05
7.41713e-05
7.32765e-05
6.52521e-05
6.99504e-05
7.41665e-05
7.3285e-05
6.5264e-05
9.50078e-05
7.35209e-05
7.35271e-05
7.35076e-05
7.35138e-05
9.50102e-05
7.12093e-05
7.12078e-05
7.34335e-05
7.18758e-05
7.16049e-05
7.16315e-05
6.85854e-05
7.18623e-05
7.16127e-05
7.16438e-05
7.17093e-05
7.34619e-05
7.98094e-05
7.98022e-05
7.17235e-05
7.17105e-05
7.97905e-05
7.34587e-05
7.16964e-05
7.97978e-05
7.18767e-05
6.85904e-05
7.16249e-05
7.16578e-05
7.16171e-05
7.16458e-05
7.18889e-05
7.18738e-05
7.15967e-05
7.16303e-05
6.85818e-05
7.18599e-05
7.16045e-05
7.16427e-05
7.17082e-05
7.34604e-05
7.97923e-05
7.97852e-05
7.17224e-05
7.17095e-05
7.97733e-05
7.34553e-05
7.16952e-05
7.97808e-05
7.18748e-05
6.85868e-05
7.16168e-05
7.16569e-05
7.16092e-05
7.16447e-05
7.18868e-05
9.49971e-05
7.35154e-05
7.35088e-05
7.41802e-05
6.52804e-05
6.9955e-05
7.32977e-05
7.41848e-05
6.52691e-05
7.3289e-05
7.4228e-05
6.5289e-05
6.99633e-05
7.33074e-05
7.42324e-05
6.52771e-05
7.32987e-05
7.41703e-05
6.99458e-05
6.52611e-05
7.32842e-05
7.42177e-05
6.52575e-05
6.99544e-05
6.52696e-05
7.32938e-05
9.5008e-05
7.35277e-05
7.3521e-05
9.50103e-05
7.35143e-05
7.35076e-05
7.1209e-05
7.12074e-05
7.12116e-05
7.12101e-05
7.12331e-05
7.12345e-05
7.12361e-05
7.12375e-05
9.50382e-05
7.3552e-05
7.35451e-05
7.35386e-05
7.35318e-05
9.50404e-05
7.42009e-05
6.52909e-05
7.33018e-05
6.99749e-05
7.41964e-05
7.33137e-05
6.53007e-05
7.4247e-05
6.52975e-05
7.33111e-05
6.99832e-05
7.42424e-05
7.33229e-05
6.53088e-05
9.50277e-05
7.35265e-05
7.35197e-05
9.50254e-05
7.35399e-05
7.35331e-05
7.42101e-05
7.33269e-05
6.99827e-05
6.53187e-05
7.33151e-05
7.42144e-05
6.53093e-05
7.42561e-05
7.33361e-05
6.99909e-05
6.53268e-05
7.33244e-05
7.42605e-05
6.53159e-05
7.1259e-05
7.1262e-05
9.50529e-05
7.35506e-05
7.35438e-05
9.50508e-05
7.35639e-05
7.35571e-05
7.42277e-05
7.33283e-05
6.53271e-05
6.9998e-05
7.42235e-05
7.33399e-05
6.53362e-05
7.42738e-05
7.33376e-05
6.53337e-05
7.00063e-05
7.42695e-05
7.33492e-05
6.53443e-05
7.19033e-05
6.8617e-05
7.16867e-05
7.16454e-05
7.16748e-05
7.16381e-05
7.19162e-05
7.17354e-05
7.97992e-05
7.34823e-05
7.17213e-05
7.98065e-05
7.19028e-05
6.86146e-05
7.1661e-05
7.16262e-05
7.16727e-05
7.18894e-05
7.16339e-05
7.17341e-05
7.98176e-05
7.34855e-05
7.98106e-05
7.17482e-05
7.19304e-05
7.16907e-05
7.16548e-05
6.86411e-05
7.19174e-05
7.16997e-05
7.1662e-05
7.17615e-05
7.98401e-05
7.35128e-05
7.17474e-05
7.98468e-05
7.19297e-05
7.1689e-05
7.16496e-05
6.86396e-05
7.19167e-05
7.17006e-05
7.16569e-05
7.17609e-05
7.98217e-05
7.35096e-05
7.17469e-05
7.98285e-05
9.50356e-05
7.35456e-05
7.3552e-05
7.35323e-05
7.35388e-05
9.50374e-05
7.42463e-05
6.52941e-05
7.33094e-05
6.99748e-05
7.33211e-05
7.4243e-05
6.53047e-05
7.41996e-05
6.52911e-05
7.33042e-05
6.99756e-05
6.53019e-05
7.41966e-05
7.3313e-05
9.50247e-05
7.35203e-05
7.35269e-05
7.35336e-05
9.50228e-05
7.35401e-05
7.42567e-05
7.33344e-05
6.99825e-05
6.53228e-05
7.33227e-05
6.53126e-05
7.42598e-05
7.42103e-05
7.33261e-05
6.99841e-05
6.53199e-05
6.53096e-05
7.33176e-05
7.42132e-05
7.12344e-05
7.12359e-05
7.12603e-05
9.50499e-05
7.35443e-05
7.35506e-05
9.50482e-05
7.35576e-05
7.35639e-05
7.42729e-05
7.33359e-05
6.53304e-05
6.99979e-05
6.53402e-05
7.427e-05
7.33474e-05
7.42264e-05
7.33308e-05
6.53273e-05
6.99985e-05
7.42237e-05
7.33392e-05
6.53374e-05
7.12603e-05
7.19029e-05
6.86178e-05
7.16866e-05
7.16438e-05
7.16747e-05
7.16366e-05
7.19159e-05
7.17345e-05
7.97965e-05
7.34822e-05
7.17204e-05
7.98037e-05
7.19025e-05
6.8613e-05
7.16609e-05
7.16247e-05
7.16726e-05
7.18892e-05
7.16323e-05
7.17332e-05
7.98148e-05
7.34872e-05
7.98078e-05
7.17472e-05
7.19304e-05
7.16517e-05
7.16894e-05
6.86406e-05
7.19174e-05
7.16618e-05
7.1701e-05
7.17617e-05
7.98378e-05
7.35137e-05
7.17476e-05
7.98449e-05
7.19293e-05
7.16888e-05
7.16481e-05
6.86379e-05
7.19163e-05
7.17005e-05
7.16553e-05
7.17599e-05
7.98189e-05
7.35095e-05
7.17459e-05
7.98257e-05
7.19028e-05
6.86166e-05
7.16457e-05
7.16863e-05
7.16367e-05
7.16742e-05
7.19153e-05
7.17353e-05
7.98127e-05
7.3486e-05
7.9816e-05
7.17205e-05
7.19022e-05
6.86136e-05
7.16249e-05
7.16604e-05
7.1634e-05
7.18892e-05
7.16723e-05
7.17333e-05
7.98272e-05
7.34891e-05
7.98238e-05
7.1748e-05
7.19029e-05
6.86171e-05
7.16865e-05
7.16458e-05
7.16746e-05
7.16354e-05
7.19159e-05
7.17348e-05
7.97952e-05
7.34816e-05
7.17206e-05
7.98025e-05
7.19026e-05
6.86145e-05
7.16608e-05
7.16237e-05
7.18891e-05
7.16725e-05
7.16341e-05
7.17334e-05
7.98137e-05
7.34866e-05
7.98065e-05
7.17475e-05
7.19289e-05
7.16484e-05
7.16884e-05
6.86385e-05
7.19168e-05
7.16571e-05
7.17003e-05
7.17606e-05
7.98348e-05
7.35132e-05
7.1746e-05
7.98381e-05
7.19293e-05
7.16887e-05
7.16472e-05
6.86395e-05
7.19163e-05
7.17004e-05
7.16572e-05
7.17601e-05
7.98176e-05
7.35089e-05
7.17461e-05
7.98245e-05
9.50337e-05
7.35452e-05
7.35514e-05
7.35319e-05
7.35381e-05
9.50358e-05
7.42475e-05
6.52959e-05
7.33097e-05
6.99776e-05
7.33214e-05
7.4243e-05
6.53073e-05
7.42e-05
6.52911e-05
7.33032e-05
6.99749e-05
6.53022e-05
7.41955e-05
7.33119e-05
9.50231e-05
7.35198e-05
7.3526e-05
7.35331e-05
9.50209e-05
7.35393e-05
7.42567e-05
7.33346e-05
6.99864e-05
6.53253e-05
7.3323e-05
6.53141e-05
7.42611e-05
7.42092e-05
7.33251e-05
6.99837e-05
6.53202e-05
6.53096e-05
7.33166e-05
7.42136e-05
7.12341e-05
7.12356e-05
7.12614e-05
9.50483e-05
7.35439e-05
7.35501e-05
9.50463e-05
7.35571e-05
7.35633e-05
7.42744e-05
7.33362e-05
6.5332e-05
7.00008e-05
6.53427e-05
7.42701e-05
7.33477e-05
7.42269e-05
7.33298e-05
6.53274e-05
6.9998e-05
7.42226e-05
7.33382e-05
6.53378e-05
7.12601e-05
7.19037e-05
6.86169e-05
7.16487e-05
7.16855e-05
7.16415e-05
7.16743e-05
7.19167e-05
7.17363e-05
7.98137e-05
7.34866e-05
7.98208e-05
7.17222e-05
7.19033e-05
6.8612e-05
7.16296e-05
7.16602e-05
7.16372e-05
7.18901e-05
7.16717e-05
7.1735e-05
7.98319e-05
7.34897e-05
7.98249e-05
7.1749e-05
7.19017e-05
6.86133e-05
7.16408e-05
7.16849e-05
7.16336e-05
7.16727e-05
7.19146e-05
7.17352e-05
7.97967e-05
7.34832e-05
7.17211e-05
7.98038e-05
7.19013e-05
6.86085e-05
7.16216e-05
7.16589e-05
7.1888e-05
7.16292e-05
7.16709e-05
7.17338e-05
7.98149e-05
7.34882e-05
7.98081e-05
7.1748e-05
7.19302e-05
7.1653e-05
7.16891e-05
6.86369e-05
7.19172e-05
7.16602e-05
7.16987e-05
7.17616e-05
7.9836e-05
7.35138e-05
7.17477e-05
7.98428e-05
7.1928e-05
7.16451e-05
7.16868e-05
6.86334e-05
7.19152e-05
7.16522e-05
7.16988e-05
7.17606e-05
7.98192e-05
7.35105e-05
7.17465e-05
7.98259e-05
7.12338e-05
7.12353e-05
7.12364e-05
7.12379e-05
9.50487e-05
7.35506e-05
7.3544e-05
9.50466e-05
7.35639e-05
7.35572e-05
7.42257e-05
7.3329e-05
6.53245e-05
6.99935e-05
7.42215e-05
6.53347e-05
7.33374e-05
7.42733e-05
7.33387e-05
6.53327e-05
7.00018e-05
7.42692e-05
6.53432e-05
7.3347e-05
7.12597e-05
7.12624e-05
3.89045e-05
3.19043e-05
3.22686e-05
3.22662e-05
3.92875e-05
3.23848e-05
3.23827e-05
2.3444e-05
2.33003e-05
6.59947e-05
5.95687e-05
5.95706e-05
5.36595e-05
6.59905e-05
5.95663e-05
5.95675e-05
6.59704e-05
5.36201e-05
5.95413e-05
5.95419e-05
5.95373e-05
5.95378e-05
6.59765e-05
6.59706e-05
5.36213e-05
5.95349e-05
5.9538e-05
5.95349e-05
5.95402e-05
6.59744e-05
6.59711e-05
5.36335e-05
5.95375e-05
5.95399e-05
5.95405e-05
5.95431e-05
6.59751e-05
6.59702e-05
5.36304e-05
5.95361e-05
5.95377e-05
6.59744e-05
5.95392e-05
5.95412e-05
6.59968e-05
5.95674e-05
5.95679e-05
5.36626e-05
6.59911e-05
5.95704e-05
5.95712e-05
6.59947e-05
5.95649e-05
5.95694e-05
5.36577e-05
5.95682e-05
6.5991e-05
5.9565e-05
6.59957e-05
5.95696e-05
5.95722e-05
5.36583e-05
5.957e-05
6.59914e-05
5.95675e-05
3.89084e-05
3.19095e-05
3.90032e-05
3.21495e-05
3.21469e-05
3.20297e-05
3.20269e-05
2.3009e-05
2.31548e-05
3.90029e-05
3.21489e-05
3.21483e-05
3.20292e-05
3.20285e-05
2.30094e-05
2.31553e-05
3.90073e-05
3.21524e-05
3.21523e-05
3.20322e-05
3.20326e-05
2.30129e-05
2.31587e-05
3.90061e-05
3.21535e-05
3.21514e-05
3.20331e-05
3.20318e-05
2.30135e-05
2.31593e-05
6.47855e-05
6.03754e-05
6.03749e-05
3.22679e-05
3.22673e-05
3.92863e-05
3.23842e-05
3.23837e-05
2.34444e-05
2.33007e-05
3.22716e-05
3.22714e-05
3.92918e-05
3.23881e-05
3.23878e-05
2.34479e-05
2.33042e-05
3.22723e-05
3.22705e-05
3.92901e-05
3.23888e-05
3.23868e-05
2.34484e-05
2.33048e-05
3.93796e-05
3.25005e-05
3.24984e-05
2.35873e-05
3.93784e-05
3.24998e-05
3.24992e-05
2.35877e-05
3.93838e-05
3.25039e-05
3.25034e-05
2.35912e-05
3.93821e-05
3.25043e-05
3.25025e-05
2.35917e-05
5.64381e-05
6.07065e-05
6.24069e-05
5.51718e-05
6.23916e-05
5.51695e-05
5.64309e-05
5.74846e-05
6.04484e-05
6.42511e-05
6.48432e-05
5.74831e-05
6.0452e-05
6.4262e-05
5.63977e-05
6.07004e-05
6.23715e-05
5.5133e-05
5.64045e-05
6.2387e-05
5.51352e-05
5.75117e-05
6.42794e-05
6.4848e-05
6.04756e-05
6.04718e-05
6.42688e-05
5.75117e-05
5.64415e-05
6.07081e-05
5.51636e-05
6.24069e-05
5.51783e-05
6.2396e-05
5.64302e-05
5.74829e-05
6.0451e-05
6.42535e-05
6.48433e-05
5.74879e-05
6.04507e-05
6.4263e-05
5.63976e-05
6.06983e-05
5.51411e-05
6.23757e-05
5.64084e-05
5.51275e-05
6.23871e-05
5.75178e-05
6.42804e-05
6.48485e-05
6.04751e-05
6.04758e-05
6.42713e-05
5.75129e-05
6.60104e-05
5.3709e-05
5.95946e-05
5.95957e-05
5.95971e-05
5.95988e-05
6.60141e-05
6.59273e-05
5.35331e-05
5.94801e-05
5.94805e-05
6.59336e-05
5.94752e-05
5.94757e-05
6.59555e-05
5.3578e-05
5.95055e-05
5.95061e-05
6.59492e-05
5.95101e-05
5.95107e-05
5.73966e-05
6.42062e-05
6.4784e-05
6.03736e-05
6.41956e-05
6.0373e-05
5.73851e-05
5.63263e-05
6.23328e-05
5.5061e-05
6.06544e-05
5.63372e-05
6.23452e-05
5.50564e-05
5.74562e-05
6.04243e-05
6.48167e-05
6.42444e-05
6.0425e-05
6.42347e-05
5.74501e-05
5.74161e-05
6.42153e-05
6.03975e-05
6.48107e-05
6.03982e-05
5.74268e-05
6.42258e-05
5.63724e-05
6.06608e-05
6.23664e-05
5.50919e-05
6.23546e-05
5.5097e-05
5.63617e-05
5.63218e-05
6.2328e-05
5.50591e-05
6.06527e-05
5.63328e-05
6.23405e-05
5.50541e-05
5.74535e-05
6.04203e-05
6.48126e-05
6.42365e-05
6.42267e-05
6.04214e-05
5.74415e-05
5.74102e-05
6.42076e-05
6.03942e-05
6.48068e-05
5.74224e-05
6.42178e-05
6.03943e-05
5.6368e-05
6.06591e-05
6.23617e-05
5.509e-05
6.23498e-05
5.50952e-05
5.63572e-05
5.35737e-05
5.95059e-05
5.95051e-05
5.62971e-05
6.06114e-05
6.23239e-05
5.50204e-05
6.23058e-05
5.50173e-05
5.62917e-05
5.73872e-05
6.42066e-05
6.47859e-05
6.03768e-05
6.41938e-05
6.03718e-05
5.7389e-05
5.62958e-05
6.06099e-05
5.50194e-05
6.2318e-05
5.50162e-05
6.23043e-05
5.62877e-05
5.73918e-05
6.41983e-05
6.47823e-05
6.03731e-05
6.41882e-05
5.73774e-05
6.03725e-05
5.63278e-05
6.23285e-05
5.50569e-05
6.06541e-05
5.6333e-05
6.23459e-05
5.50599e-05
5.74489e-05
6.04286e-05
6.48181e-05
6.42446e-05
6.04226e-05
6.42326e-05
5.74485e-05
5.742e-05
6.42136e-05
6.03959e-05
6.48132e-05
6.0403e-05
5.74172e-05
6.42258e-05
5.63682e-05
6.06606e-05
6.23674e-05
5.50977e-05
6.23506e-05
5.50953e-05
5.63626e-05
5.63233e-05
5.50548e-05
6.2328e-05
6.06512e-05
5.63326e-05
5.5055e-05
6.23401e-05
5.74536e-05
6.0424e-05
6.4815e-05
6.42367e-05
6.42269e-05
6.04229e-05
5.74423e-05
5.74108e-05
6.42081e-05
6.03975e-05
6.48093e-05
5.74233e-05
6.42181e-05
6.03991e-05
5.63685e-05
6.06609e-05
5.50913e-05
6.23612e-05
5.50959e-05
6.23493e-05
5.63581e-05
5.74522e-05
6.04285e-05
6.48176e-05
6.4244e-05
5.74537e-05
6.04229e-05
6.42323e-05
5.63698e-05
6.06605e-05
6.23665e-05
5.50987e-05
5.63632e-05
6.23499e-05
5.50958e-05
5.74476e-05
6.04221e-05
6.48132e-05
6.42374e-05
6.42258e-05
6.0422e-05
5.7446e-05
5.63681e-05
6.06602e-05
5.50989e-05
6.23644e-05
5.50961e-05
6.23477e-05
5.63613e-05
6.59273e-05
5.35452e-05
5.94748e-05
5.94773e-05
5.94803e-05
5.94778e-05
6.59316e-05
6.59539e-05
5.3573e-05
5.95096e-05
5.95121e-05
5.95072e-05
6.59496e-05
5.95097e-05
5.63274e-05
5.50664e-05
6.23329e-05
6.06519e-05
5.63382e-05
5.50533e-05
6.23448e-05
5.74587e-05
6.04281e-05
6.4818e-05
6.42449e-05
5.74536e-05
6.04274e-05
6.4235e-05
5.74189e-05
6.42162e-05
6.04004e-05
6.48124e-05
5.74297e-05
6.04012e-05
6.42263e-05
5.63743e-05
6.06619e-05
5.50892e-05
6.23663e-05
5.63633e-05
5.51043e-05
6.23541e-05
5.63219e-05
5.50647e-05
6.23264e-05
6.06492e-05
5.63335e-05
5.50505e-05
6.23382e-05
5.74519e-05
6.04254e-05
6.48157e-05
6.42366e-05
6.42267e-05
6.04247e-05
5.74471e-05
5.74121e-05
6.42075e-05
6.03977e-05
6.48097e-05
5.74231e-05
6.4218e-05
6.03981e-05
5.63694e-05
6.06593e-05
5.50879e-05
6.23596e-05
5.51023e-05
6.23478e-05
5.63576e-05
6.59534e-05
5.35714e-05
5.95107e-05
5.95057e-05
5.95079e-05
6.6011e-05
5.37055e-05
5.9599e-05
5.95999e-05
6.60164e-05
5.95965e-05
5.95971e-05
6.60356e-05
5.37447e-05
5.96249e-05
5.96254e-05
6.60303e-05
5.96271e-05
5.96281e-05
5.64398e-05
6.07064e-05
6.24072e-05
5.51662e-05
6.23963e-05
5.51708e-05
5.64291e-05
5.74805e-05
6.04491e-05
6.4253e-05
6.48416e-05
6.42626e-05
5.74861e-05
6.04496e-05
5.63962e-05
6.07005e-05
6.2376e-05
5.51346e-05
6.23875e-05
5.64066e-05
5.51298e-05
5.75161e-05
6.42801e-05
6.48471e-05
6.04726e-05
6.4271e-05
6.04725e-05
5.75105e-05
5.64356e-05
6.07047e-05
6.24025e-05
5.51643e-05
6.23915e-05
5.5169e-05
5.64246e-05
5.74713e-05
6.0446e-05
6.42451e-05
6.48377e-05
5.74831e-05
6.42547e-05
6.0447e-05
5.63916e-05
6.06989e-05
6.23712e-05
5.51329e-05
5.64023e-05
6.23828e-05
5.51279e-05
5.75129e-05
6.42723e-05
6.48431e-05
6.0469e-05
6.42633e-05
5.75018e-05
6.04686e-05
5.64617e-05
6.24159e-05
5.52058e-05
6.0744e-05
5.64722e-05
6.24265e-05
5.52015e-05
5.75395e-05
6.42884e-05
6.04954e-05
6.48704e-05
6.04959e-05
5.75447e-05
6.42971e-05
5.64572e-05
6.2411e-05
5.5204e-05
6.07424e-05
5.6468e-05
6.24219e-05
5.51996e-05
5.75322e-05
6.42805e-05
6.04912e-05
6.48665e-05
5.75391e-05
6.42893e-05
6.04913e-05
6.60109e-05
5.37059e-05
5.95939e-05
5.95969e-05
5.95982e-05
5.95941e-05
6.60144e-05
6.60334e-05
5.37402e-05
5.96224e-05
5.96264e-05
5.9622e-05
6.60303e-05
5.96251e-05
5.64373e-05
6.07065e-05
6.24083e-05
5.51682e-05
6.23922e-05
5.51683e-05
5.64304e-05
5.748e-05
6.04488e-05
6.42513e-05
6.4844e-05
6.42627e-05
5.74808e-05
6.04521e-05
5.63968e-05
6.07006e-05
6.23721e-05
5.51318e-05
6.23882e-05
5.64034e-05
5.51339e-05
5.7511e-05
6.42803e-05
6.48488e-05
6.04758e-05
6.42692e-05
6.04718e-05
5.75099e-05
5.64371e-05
6.07072e-05
5.51622e-05
6.24022e-05
5.51764e-05
6.23912e-05
5.64258e-05
5.7472e-05
6.04468e-05
6.42452e-05
6.48401e-05
5.74835e-05
6.42548e-05
6.0448e-05
5.63926e-05
6.06975e-05
5.51378e-05
6.23707e-05
5.64034e-05
5.51267e-05
6.23823e-05
5.75135e-05
6.42723e-05
6.48456e-05
6.04714e-05
6.42633e-05
5.75028e-05
6.04706e-05
5.64624e-05
6.24123e-05
5.52051e-05
6.07441e-05
5.647e-05
6.24277e-05
5.52032e-05
5.75387e-05
6.42866e-05
6.04948e-05
6.48729e-05
6.04986e-05
5.75406e-05
6.42973e-05
5.64584e-05
5.52114e-05
6.24108e-05
6.07411e-05
5.64698e-05
5.5198e-05
6.24216e-05
5.75333e-05
6.42805e-05
6.0493e-05
6.48689e-05
5.754e-05
6.42893e-05
6.04932e-05
5.64368e-05
6.07062e-05
5.51716e-05
6.24054e-05
5.51696e-05
6.23895e-05
5.64294e-05
5.74781e-05
6.0446e-05
6.42444e-05
6.48384e-05
6.04467e-05
5.74794e-05
6.42556e-05
5.63959e-05
6.07003e-05
5.51324e-05
6.23693e-05
5.51347e-05
5.6403e-05
6.23853e-05
5.75096e-05
6.42733e-05
6.48437e-05
6.04701e-05
6.04695e-05
6.42624e-05
5.75078e-05
5.64631e-05
6.24116e-05
5.52041e-05
6.07439e-05
5.64707e-05
6.24263e-05
5.52058e-05
5.75405e-05
6.4286e-05
6.04937e-05
6.48718e-05
5.75416e-05
6.04987e-05
6.42963e-05
5.64616e-05
5.52043e-05
6.24096e-05
6.07439e-05
5.64694e-05
5.52042e-05
6.24249e-05
5.75366e-05
6.42795e-05
6.04925e-05
6.48673e-05
5.7539e-05
6.42901e-05
6.04935e-05
6.60107e-05
5.37112e-05
5.95965e-05
5.95989e-05
5.95998e-05
5.95971e-05
6.60157e-05
6.60349e-05
5.37441e-05
5.96248e-05
5.96275e-05
5.96257e-05
6.60299e-05
5.96277e-05
5.6437e-05
6.07057e-05
5.51626e-05
6.24006e-05
5.51765e-05
6.23897e-05
5.64252e-05
5.74758e-05
6.04479e-05
6.42451e-05
6.48407e-05
6.04475e-05
5.74808e-05
6.42548e-05
5.63923e-05
6.06958e-05
5.51391e-05
6.23693e-05
5.51259e-05
5.64037e-05
6.23808e-05
5.75108e-05
6.42723e-05
6.48462e-05
6.04717e-05
6.04725e-05
6.42631e-05
5.75058e-05
5.64631e-05
5.52121e-05
6.24157e-05
6.07418e-05
5.64742e-05
5.51988e-05
6.24265e-05
5.75418e-05
6.42887e-05
6.04985e-05
6.48722e-05
5.75466e-05
6.04985e-05
6.42976e-05
5.64581e-05
5.5208e-05
6.24094e-05
6.07393e-05
5.64695e-05
5.52e-05
6.24201e-05
5.75349e-05
6.42805e-05
6.04955e-05
6.48697e-05
5.75397e-05
6.42893e-05
6.04955e-05
6.60333e-05
5.37415e-05
5.96255e-05
5.96271e-05
6.60298e-05
5.96228e-05
5.96238e-05
3.95574e-05
5.17814e-05
5.17852e-05
5.38269e-05
3.98927e-05
5.19626e-05
5.19665e-05
5.39701e-05
4.02013e-05
5.21234e-05
5.21274e-05
5.40975e-05
4.04838e-05
5.22645e-05
5.22685e-05
5.42088e-05
4.07408e-05
5.23863e-05
5.23902e-05
5.43046e-05
4.09731e-05
5.24895e-05
5.24934e-05
5.43853e-05
4.11814e-05
5.25749e-05
5.25787e-05
5.44518e-05
4.13666e-05
5.26432e-05
5.26468e-05
5.45044e-05
4.15296e-05
5.26948e-05
5.26983e-05
5.45434e-05
4.16712e-05
5.27307e-05
5.27341e-05
5.45697e-05
4.17923e-05
5.27513e-05
5.27546e-05
5.45849e-05
4.18937e-05
5.27575e-05
5.27607e-05
5.45883e-05
4.19762e-05
5.27514e-05
5.27546e-05
5.45772e-05
4.20412e-05
5.2733e-05
5.27361e-05
5.45552e-05
4.20898e-05
5.27028e-05
5.27057e-05
5.45256e-05
4.21228e-05
5.26617e-05
5.26643e-05
5.44875e-05
4.21411e-05
5.26107e-05
5.26132e-05
5.44408e-05
4.21453e-05
5.25507e-05
5.25533e-05
5.43853e-05
4.21117e-05
5.24743e-05
5.24773e-05
5.43106e-05
4.37928e-05
5.05497e-05
5.05526e-05
5.3942e-05
5.37839e-05
5.1733e-05
5.17278e-05
5.37797e-05
5.17307e-05
5.17316e-05
5.17321e-05
5.17323e-05
5.37842e-05
5.1736e-05
5.17302e-05
5.37812e-05
5.38256e-05
5.39306e-05
5.17822e-05
5.17771e-05
5.19192e-05
5.1914e-05
5.38243e-05
5.39272e-05
5.178e-05
5.17808e-05
5.1917e-05
5.19179e-05
5.17815e-05
5.19183e-05
5.19184e-05
5.38269e-05
5.39319e-05
5.17794e-05
5.19222e-05
5.19163e-05
5.39287e-05
5.39697e-05
5.40615e-05
5.19635e-05
5.19583e-05
5.20848e-05
5.20796e-05
5.3968e-05
5.40582e-05
5.19613e-05
5.19622e-05
5.20827e-05
5.20837e-05
5.19627e-05
5.20839e-05
5.20839e-05
5.39709e-05
5.40629e-05
5.19607e-05
5.20879e-05
5.2082e-05
5.40595e-05
5.40973e-05
5.41761e-05
5.21244e-05
5.21191e-05
5.22304e-05
5.22252e-05
5.40959e-05
5.41732e-05
5.21223e-05
5.21232e-05
5.22285e-05
5.22294e-05
5.21235e-05
5.22295e-05
5.22296e-05
5.40987e-05
5.41774e-05
5.21216e-05
5.22335e-05
5.22277e-05
5.41743e-05
5.42089e-05
5.4275e-05
5.22654e-05
5.22602e-05
5.23567e-05
5.23515e-05
5.42075e-05
5.42725e-05
5.22635e-05
5.22644e-05
5.23548e-05
5.23557e-05
5.22646e-05
5.23558e-05
5.23559e-05
5.42103e-05
5.42763e-05
5.22627e-05
5.23598e-05
5.2354e-05
5.42736e-05
5.43051e-05
5.4359e-05
5.23872e-05
5.2382e-05
5.24644e-05
5.24591e-05
5.43034e-05
5.43566e-05
5.23853e-05
5.23862e-05
5.24625e-05
5.24633e-05
5.23864e-05
5.24635e-05
5.24635e-05
5.43064e-05
5.43601e-05
5.23845e-05
5.24674e-05
5.24616e-05
5.43578e-05
5.43863e-05
5.44283e-05
5.24904e-05
5.24852e-05
5.25539e-05
5.25487e-05
5.43845e-05
5.44261e-05
5.24886e-05
5.24894e-05
5.25521e-05
5.25528e-05
5.24896e-05
5.2553e-05
5.2553e-05
5.43874e-05
5.44293e-05
5.24877e-05
5.25568e-05
5.25512e-05
5.44274e-05
5.44528e-05
5.44835e-05
5.25758e-05
5.25706e-05
5.2626e-05
5.26208e-05
5.4451e-05
5.44814e-05
5.2574e-05
5.25747e-05
5.26242e-05
5.26248e-05
5.25749e-05
5.26252e-05
5.26251e-05
5.44538e-05
5.44844e-05
5.25731e-05
5.26289e-05
5.26233e-05
5.44827e-05
5.45053e-05
5.4525e-05
5.26439e-05
5.26388e-05
5.26815e-05
5.26763e-05
5.45035e-05
5.4523e-05
5.26421e-05
5.26428e-05
5.26797e-05
5.26803e-05
5.26431e-05
5.26807e-05
5.26806e-05
5.45062e-05
5.45259e-05
5.26413e-05
5.26843e-05
5.26789e-05
5.45243e-05
5.45442e-05
5.45538e-05
5.26955e-05
5.26904e-05
5.27212e-05
5.27162e-05
5.45426e-05
5.45514e-05
5.26938e-05
5.26943e-05
5.27194e-05
5.272e-05
5.26947e-05
5.27206e-05
5.27204e-05
5.45451e-05
5.45546e-05
5.2693e-05
5.2724e-05
5.27187e-05
5.45532e-05
5.45703e-05
5.45724e-05
5.27313e-05
5.27262e-05
5.27462e-05
5.27412e-05
5.45691e-05
5.45676e-05
5.27295e-05
5.273e-05
5.27445e-05
5.27449e-05
5.27305e-05
5.27457e-05
5.27455e-05
5.45711e-05
5.45734e-05
5.27288e-05
5.2749e-05
5.27438e-05
5.45721e-05
5.45861e-05
5.45774e-05
5.27518e-05
5.27469e-05
5.27572e-05
5.27523e-05
5.4588e-05
5.45733e-05
5.27501e-05
5.27505e-05
5.27555e-05
5.27559e-05
5.27511e-05
5.27567e-05
5.27565e-05
5.45863e-05
5.4578e-05
5.27494e-05
5.276e-05
5.27548e-05
5.45761e-05
5.45892e-05
5.45684e-05
5.2758e-05
5.2753e-05
5.27537e-05
5.27487e-05
5.45896e-05
5.45636e-05
5.27563e-05
5.27566e-05
5.2752e-05
5.27523e-05
5.27573e-05
5.27533e-05
5.2753e-05
5.45889e-05
5.45691e-05
5.27556e-05
5.27564e-05
5.27513e-05
5.45673e-05
5.45783e-05
5.4543e-05
5.27519e-05