/*--------------------------------*- C++ -*----------------------------------*\
| =========                 |                                                 |
| \\      /  F ield         | OpenFOAM: The Open Source CFD Toolbox           |
|  \\    /   O peration     | Version:                                        |
|   \\  /    A nd           | Website:  www.openfoam.com                      |
|    \\/     M anipulation  |                                                 |
\*---------------------------------------------------------------------------*/
FoamFile
{
    version     2.0;
    format      ascii;
    class       volScalarField;
    location    "13350.5";
    object      p;
}
// * * * * * * * * * * * * * * * * * * * * * * * * * * * * * * * * * * * * * //

dimensions      [0 2 -2 0 0 0 0];


internalField   nonuniform List<scalar> 
247096
(
1.25434e-07
1.25437e-07
1.25581e-07
1.25667e-07
1.257e-07
1.25658e-07
1.25567e-07
1.25413e-07
1.25437e-07
1.25636e-07
1.25813e-07
1.25905e-07
1.25928e-07
1.25898e-07
1.25794e-07
1.25612e-07
1.25581e-07
1.25813e-07
1.25953e-07
1.25995e-07
1.26001e-07
1.25992e-07
1.25942e-07
1.25785e-07
1.25554e-07
1.25667e-07
1.25905e-07
1.25995e-07
1.26006e-07
1.26005e-07
1.26007e-07
1.2599e-07
1.25883e-07
1.25634e-07
1.25434e-07
1.257e-07
1.25928e-07
1.26001e-07
1.26005e-07
1.26002e-07
1.26006e-07
1.25998e-07
1.25909e-07
1.25665e-07
1.25658e-07
1.25898e-07
1.25992e-07
1.26006e-07
1.26006e-07
1.26006e-07
1.25987e-07
1.25876e-07
1.25625e-07
1.25567e-07
1.25794e-07
1.25942e-07
1.2599e-07
1.25998e-07
1.25987e-07
1.25931e-07
1.25767e-07
1.25541e-07
1.25413e-07
1.25611e-07
1.25785e-07
1.25883e-07
1.25909e-07
1.25875e-07
1.25767e-07
1.25589e-07
1.25553e-07
1.25634e-07
1.25665e-07
1.25625e-07
1.25541e-07
1.22616e-07
1.22592e-07
1.226e-07
1.22452e-07
1.22464e-07
1.22483e-07
1.22463e-07
1.22649e-07
1.22587e-07
1.226e-07
1.22471e-07
1.22262e-07
1.22281e-07
1.22281e-07
1.22262e-07
1.22526e-07
1.22475e-07
1.22452e-07
1.22262e-07
1.22301e-07
1.22323e-07
1.22323e-07
1.22301e-07
1.22262e-07
1.22589e-07
1.22638e-07
1.22616e-07
1.22464e-07
1.22281e-07
1.22323e-07
1.22348e-07
1.22348e-07
1.22323e-07
1.2228e-07
1.22616e-07
1.22655e-07
1.22592e-07
1.22483e-07
1.22281e-07
1.22323e-07
1.22348e-07
1.22348e-07
1.22323e-07
1.2228e-07
1.22619e-07
1.2248e-07
1.22463e-07
1.22262e-07
1.22301e-07
1.22323e-07
1.22323e-07
1.22301e-07
1.22262e-07
1.22612e-07
1.22664e-07
1.22649e-07
1.22526e-07
1.22262e-07
1.2228e-07
1.2228e-07
1.22262e-07
1.22606e-07
1.22533e-07
1.22647e-07
1.22587e-07
1.22475e-07
1.22589e-07
1.22616e-07
1.22619e-07
1.22612e-07
1.22533e-07
1.22658e-07
1.22638e-07
1.22655e-07
1.2248e-07
1.22664e-07
1.22647e-07
1.20877e-07
1.20868e-07
1.20876e-07
1.20746e-07
1.20743e-07
1.20752e-07
1.20745e-07
1.20909e-07
1.20869e-07
1.20876e-07
1.20738e-07
1.20513e-07
1.20523e-07
1.20523e-07
1.20513e-07
1.20762e-07
1.20758e-07
1.20746e-07
1.20513e-07
1.20536e-07
1.20547e-07
1.20547e-07
1.20536e-07
1.20513e-07
1.20807e-07
1.20901e-07
1.20877e-07
1.20743e-07
1.20523e-07
1.20547e-07
1.2056e-07
1.2056e-07
1.20547e-07
1.20523e-07
1.20812e-07
1.20898e-07
1.20868e-07
1.20752e-07
1.20523e-07
1.20547e-07
1.2056e-07
1.2056e-07
1.20547e-07
1.20523e-07
1.2081e-07
1.20765e-07
1.20745e-07
1.20513e-07
1.20536e-07
1.20547e-07
1.20547e-07
1.20536e-07
1.20513e-07
1.20813e-07
1.20905e-07
1.20909e-07
1.20762e-07
1.20513e-07
1.20523e-07
1.20523e-07
1.20513e-07
1.20794e-07
1.20785e-07
1.2091e-07
1.20869e-07
1.20758e-07
1.20807e-07
1.20812e-07
1.2081e-07
1.20813e-07
1.20785e-07
1.20913e-07
1.20901e-07
1.20898e-07
1.20765e-07
1.20905e-07
1.2091e-07
1.19373e-07
1.19363e-07
1.19371e-07
1.19248e-07
1.19245e-07
1.19252e-07
1.19247e-07
1.19399e-07
1.19367e-07
1.19371e-07
1.19242e-07
1.19051e-07
1.19056e-07
1.19056e-07
1.19051e-07
1.19267e-07
1.19263e-07
1.19248e-07
1.19051e-07
1.19063e-07
1.19067e-07
1.19067e-07
1.19063e-07
1.19051e-07
1.19308e-07
1.19396e-07
1.19373e-07
1.19245e-07
1.19056e-07
1.19067e-07
1.19072e-07
1.19072e-07
1.19067e-07
1.19056e-07
1.19311e-07
1.19393e-07
1.19363e-07
1.19252e-07
1.19056e-07
1.19067e-07
1.19072e-07
1.19072e-07
1.19067e-07
1.19056e-07
1.1931e-07
1.19268e-07
1.19247e-07
1.19051e-07
1.19063e-07
1.19067e-07
1.19067e-07
1.19063e-07
1.19051e-07
1.19312e-07
1.19399e-07
1.19399e-07
1.19267e-07
1.19051e-07
1.19056e-07
1.19056e-07
1.19051e-07
1.19295e-07
1.19287e-07
1.19401e-07
1.19367e-07
1.19263e-07
1.19308e-07
1.19311e-07
1.1931e-07
1.19312e-07
1.19287e-07
1.19408e-07
1.19396e-07
1.19393e-07
1.19268e-07
1.19399e-07
1.19401e-07
1.18013e-07
1.18003e-07
1.18012e-07
1.17892e-07
1.17888e-07
1.17893e-07
1.1789e-07
1.18037e-07
1.18008e-07
1.18012e-07
1.17886e-07
1.1771e-07
1.17712e-07
1.17712e-07
1.1771e-07
1.17912e-07
1.17909e-07
1.17892e-07
1.1771e-07
1.17717e-07
1.17717e-07
1.17717e-07
1.17717e-07
1.1771e-07
1.17954e-07
1.18037e-07
1.18013e-07
1.17888e-07
1.17712e-07
1.17717e-07
1.17719e-07
1.17719e-07
1.17717e-07
1.17712e-07
1.17955e-07
1.18034e-07
1.18003e-07
1.17893e-07
1.17712e-07
1.17717e-07
1.17719e-07
1.17719e-07
1.17717e-07
1.17712e-07
1.17953e-07
1.17913e-07
1.1789e-07
1.1771e-07
1.17717e-07
1.17717e-07
1.17717e-07
1.17717e-07
1.1771e-07
1.17955e-07
1.18039e-07
1.18037e-07
1.17912e-07
1.1771e-07
1.17712e-07
1.17712e-07
1.1771e-07
1.1794e-07
1.17931e-07
1.1804e-07
1.18008e-07
1.17909e-07
1.17954e-07
1.17955e-07
1.17953e-07
1.17955e-07
1.17931e-07
1.18049e-07
1.18037e-07
1.18034e-07
1.17913e-07
1.18039e-07
1.1804e-07
1.16701e-07
1.16691e-07
1.167e-07
1.16581e-07
1.16577e-07
1.16582e-07
1.16579e-07
1.16724e-07
1.16697e-07
1.167e-07
1.16576e-07
1.16403e-07
1.16404e-07
1.16404e-07
1.16403e-07
1.16602e-07
1.16598e-07
1.16581e-07
1.16403e-07
1.16407e-07
1.16406e-07
1.16406e-07
1.16407e-07
1.16403e-07
1.16645e-07
1.16725e-07
1.16701e-07
1.16577e-07
1.16404e-07
1.16406e-07
1.16406e-07
1.16406e-07
1.16406e-07
1.16404e-07
1.16645e-07
1.16722e-07
1.16691e-07
1.16582e-07
1.16404e-07
1.16406e-07
1.16406e-07
1.16406e-07
1.16406e-07
1.16404e-07
1.16642e-07
1.16602e-07
1.16579e-07
1.16403e-07
1.16407e-07
1.16406e-07
1.16406e-07
1.16407e-07
1.16403e-07
1.16644e-07
1.16726e-07
1.16724e-07
1.16602e-07
1.16403e-07
1.16404e-07
1.16404e-07
1.16403e-07
1.16629e-07
1.16621e-07
1.16728e-07
1.16697e-07
1.16598e-07
1.16645e-07
1.16645e-07
1.16642e-07
1.16644e-07
1.16621e-07
1.16737e-07
1.16725e-07
1.16722e-07
1.16602e-07
1.16726e-07
1.16728e-07
1.15397e-07
1.15387e-07
1.15396e-07
1.15277e-07
1.15273e-07
1.15278e-07
1.15275e-07
1.1542e-07
1.15393e-07
1.15396e-07
1.15272e-07
1.15099e-07
1.15099e-07
1.15099e-07
1.15099e-07
1.15298e-07
1.15295e-07
1.15277e-07
1.15099e-07
1.15103e-07
1.15101e-07
1.15101e-07
1.15103e-07
1.15099e-07
1.15341e-07
1.15421e-07
1.15397e-07
1.15273e-07
1.15099e-07
1.15101e-07
1.15101e-07
1.15101e-07
1.15101e-07
1.15099e-07
1.15341e-07
1.15418e-07
1.15387e-07
1.15278e-07
1.15099e-07
1.15101e-07
1.15101e-07
1.15101e-07
1.15101e-07
1.15099e-07
1.15338e-07
1.15299e-07
1.15275e-07
1.15099e-07
1.15103e-07
1.15101e-07
1.15101e-07
1.15103e-07
1.15099e-07
1.1534e-07
1.15423e-07
1.1542e-07
1.15298e-07
1.15099e-07
1.15099e-07
1.15099e-07
1.15099e-07
1.15325e-07
1.15317e-07
1.15424e-07
1.15393e-07
1.15295e-07
1.15341e-07
1.15341e-07
1.15338e-07
1.1534e-07
1.15317e-07
1.15433e-07
1.15421e-07
1.15418e-07
1.15299e-07
1.15423e-07
1.15424e-07
1.14093e-07
1.14082e-07
1.14091e-07
1.13973e-07
1.13968e-07
1.13973e-07
1.1397e-07
1.14116e-07
1.14088e-07
1.14091e-07
1.13967e-07
1.13794e-07
1.13795e-07
1.13795e-07
1.13794e-07
1.13993e-07
1.1399e-07
1.13973e-07
1.13794e-07
1.13798e-07
1.13796e-07
1.13796e-07
1.13798e-07
1.13794e-07
1.14037e-07
1.14117e-07
1.14093e-07
1.13968e-07
1.13795e-07
1.13796e-07
1.13795e-07
1.13795e-07
1.13796e-07
1.13795e-07
1.14036e-07
1.14113e-07
1.14082e-07
1.13973e-07
1.13795e-07
1.13796e-07
1.13795e-07
1.13795e-07
1.13796e-07
1.13795e-07
1.14034e-07
1.13994e-07
1.1397e-07
1.13794e-07
1.13798e-07
1.13796e-07
1.13796e-07
1.13798e-07
1.13794e-07
1.14036e-07
1.14118e-07
1.14116e-07
1.13993e-07
1.13794e-07
1.13795e-07
1.13795e-07
1.13794e-07
1.14021e-07
1.14012e-07
1.1412e-07
1.14088e-07
1.1399e-07
1.14037e-07
1.14036e-07
1.14034e-07
1.14036e-07
1.14012e-07
1.14128e-07
1.14117e-07
1.14113e-07
1.13994e-07
1.14118e-07
1.1412e-07
1.12787e-07
1.12777e-07
1.12786e-07
1.12668e-07
1.12663e-07
1.12668e-07
1.12665e-07
1.1281e-07
1.12783e-07
1.12786e-07
1.12662e-07
1.12489e-07
1.12489e-07
1.12489e-07
1.12489e-07
1.12688e-07
1.12685e-07
1.12668e-07
1.12489e-07
1.12492e-07
1.12491e-07
1.12491e-07
1.12492e-07
1.12489e-07
1.12731e-07
1.12811e-07
1.12787e-07
1.12663e-07
1.12489e-07
1.12491e-07
1.1249e-07
1.1249e-07
1.12491e-07
1.12489e-07
1.12731e-07
1.12808e-07
1.12777e-07
1.12668e-07
1.12489e-07
1.12491e-07
1.1249e-07
1.1249e-07
1.12491e-07
1.12489e-07
1.12729e-07
1.12689e-07
1.12665e-07
1.12489e-07
1.12492e-07
1.12491e-07
1.12491e-07
1.12492e-07
1.12489e-07
1.1273e-07
1.12813e-07
1.1281e-07
1.12688e-07
1.12489e-07
1.12489e-07
1.12489e-07
1.12489e-07
1.12715e-07
1.12707e-07
1.12814e-07
1.12783e-07
1.12685e-07
1.12731e-07
1.12731e-07
1.12729e-07
1.1273e-07
1.12707e-07
1.12823e-07
1.12811e-07
1.12808e-07
1.12689e-07
1.12813e-07
1.12814e-07
1.11482e-07
1.11472e-07
1.1148e-07
1.11362e-07
1.11357e-07
1.11362e-07
1.11359e-07
1.11505e-07
1.11477e-07
1.1148e-07
1.11356e-07
1.11183e-07
1.11184e-07
1.11184e-07
1.11183e-07
1.11382e-07
1.11379e-07
1.11362e-07
1.11183e-07
1.11187e-07
1.11185e-07
1.11185e-07
1.11187e-07
1.11183e-07
1.11426e-07
1.11506e-07
1.11482e-07
1.11357e-07
1.11184e-07
1.11185e-07
1.11184e-07
1.11184e-07
1.11185e-07
1.11184e-07
1.11426e-07
1.11502e-07
1.11472e-07
1.11362e-07
1.11184e-07
1.11185e-07
1.11184e-07
1.11184e-07
1.11185e-07
1.11184e-07
1.11423e-07
1.11383e-07
1.11359e-07
1.11183e-07
1.11187e-07
1.11185e-07
1.11185e-07
1.11187e-07
1.11183e-07
1.11425e-07
1.11507e-07
1.11505e-07
1.11382e-07
1.11183e-07
1.11184e-07
1.11184e-07
1.11183e-07
1.1141e-07
1.11401e-07
1.11509e-07
1.11477e-07
1.11379e-07
1.11426e-07
1.11426e-07
1.11423e-07
1.11425e-07
1.11401e-07
1.11517e-07
1.11506e-07
1.11502e-07
1.11383e-07
1.11507e-07
1.11509e-07
1.10176e-07
1.10166e-07
1.10175e-07
1.10056e-07
1.10052e-07
1.10057e-07
1.10054e-07
1.10199e-07
1.10172e-07
1.10175e-07
1.10051e-07
1.09877e-07
1.09878e-07
1.09878e-07
1.09877e-07
1.10077e-07
1.10074e-07
1.10056e-07
1.09877e-07
1.09881e-07
1.0988e-07
1.0988e-07
1.09881e-07
1.09877e-07
1.1012e-07
1.102e-07
1.10176e-07
1.10052e-07
1.09878e-07
1.0988e-07
1.09879e-07
1.09879e-07
1.0988e-07
1.09878e-07
1.1012e-07
1.10197e-07
1.10166e-07
1.10057e-07
1.09878e-07
1.0988e-07
1.09879e-07
1.09879e-07
1.0988e-07
1.09878e-07
1.10117e-07
1.10078e-07
1.10054e-07
1.09877e-07
1.09881e-07
1.0988e-07
1.0988e-07
1.09881e-07
1.09877e-07
1.10119e-07
1.10202e-07
1.10199e-07
1.10077e-07
1.09877e-07
1.09878e-07
1.09878e-07
1.09877e-07
1.10104e-07
1.10096e-07
1.10203e-07
1.10172e-07
1.10074e-07
1.1012e-07
1.1012e-07
1.10117e-07
1.10119e-07
1.10096e-07
1.10212e-07
1.102e-07
1.10197e-07
1.10078e-07
1.10202e-07
1.10203e-07
1.08871e-07
1.0886e-07
1.08869e-07
1.08751e-07
1.08746e-07
1.08751e-07
1.08748e-07
1.08894e-07
1.08866e-07
1.08869e-07
1.08745e-07
1.08572e-07
1.08572e-07
1.08572e-07
1.08572e-07
1.08771e-07
1.08768e-07
1.08751e-07
1.08572e-07
1.08576e-07
1.08574e-07
1.08574e-07
1.08576e-07
1.08572e-07
1.08814e-07
1.08895e-07
1.08871e-07
1.08746e-07
1.08572e-07
1.08574e-07
1.08573e-07
1.08573e-07
1.08574e-07
1.08572e-07
1.08814e-07
1.08891e-07
1.0886e-07
1.08751e-07
1.08572e-07
1.08574e-07
1.08573e-07
1.08573e-07
1.08574e-07
1.08572e-07
1.08812e-07
1.08772e-07
1.08748e-07
1.08572e-07
1.08576e-07
1.08574e-07
1.08574e-07
1.08576e-07
1.08572e-07
1.08814e-07
1.08896e-07
1.08894e-07
1.08771e-07
1.08572e-07
1.08572e-07
1.08572e-07
1.08572e-07
1.08798e-07
1.0879e-07
1.08898e-07
1.08866e-07
1.08768e-07
1.08814e-07
1.08814e-07
1.08812e-07
1.08814e-07
1.0879e-07
1.08906e-07
1.08895e-07
1.08891e-07
1.08772e-07
1.08896e-07
1.08898e-07
1.07565e-07
1.07555e-07
1.07564e-07
1.07445e-07
1.07441e-07
1.07446e-07
1.07443e-07
1.07588e-07
1.07561e-07
1.07564e-07
1.07439e-07
1.07266e-07
1.07267e-07
1.07267e-07
1.07266e-07
1.07466e-07
1.07462e-07
1.07445e-07
1.07266e-07
1.0727e-07
1.07269e-07
1.07269e-07
1.0727e-07
1.07266e-07
1.07509e-07
1.07589e-07
1.07565e-07
1.07441e-07
1.07267e-07
1.07269e-07
1.07268e-07
1.07268e-07
1.07269e-07
1.07267e-07
1.07509e-07
1.07586e-07
1.07555e-07
1.07446e-07
1.07267e-07
1.07269e-07
1.07268e-07
1.07268e-07
1.07269e-07
1.07267e-07
1.07506e-07
1.07467e-07
1.07443e-07
1.07266e-07
1.0727e-07
1.07269e-07
1.07269e-07
1.0727e-07
1.07266e-07
1.07508e-07
1.0759e-07
1.07588e-07
1.07466e-07
1.07266e-07
1.07267e-07
1.07267e-07
1.07266e-07
1.07493e-07
1.07485e-07
1.07592e-07
1.07561e-07
1.07462e-07
1.07509e-07
1.07509e-07
1.07506e-07
1.07508e-07
1.07485e-07
1.07601e-07
1.07589e-07
1.07586e-07
1.07467e-07
1.07591e-07
1.07592e-07
1.06259e-07
1.06249e-07
1.06258e-07
1.0614e-07
1.06135e-07
1.0614e-07
1.06137e-07
1.06282e-07
1.06255e-07
1.06258e-07
1.06134e-07
1.05961e-07
1.05961e-07
1.05961e-07
1.05961e-07
1.0616e-07
1.06157e-07
1.0614e-07
1.05961e-07
1.05964e-07
1.05963e-07
1.05963e-07
1.05964e-07
1.05961e-07
1.06203e-07
1.06284e-07
1.06259e-07
1.06135e-07
1.05961e-07
1.05963e-07
1.05962e-07
1.05962e-07
1.05963e-07
1.05961e-07
1.06203e-07
1.0628e-07
1.06249e-07
1.0614e-07
1.05961e-07
1.05963e-07
1.05962e-07
1.05962e-07
1.05963e-07
1.05961e-07
1.06201e-07
1.06161e-07
1.06137e-07
1.05961e-07
1.05964e-07
1.05963e-07
1.05963e-07
1.05964e-07
1.05961e-07
1.06203e-07
1.06285e-07
1.06282e-07
1.0616e-07
1.05961e-07
1.05961e-07
1.05961e-07
1.05961e-07
1.06187e-07
1.06179e-07
1.06286e-07
1.06255e-07
1.06157e-07
1.06203e-07
1.06203e-07
1.06201e-07
1.06203e-07
1.06179e-07
1.06295e-07
1.06284e-07
1.0628e-07
1.06161e-07
1.06285e-07
1.06286e-07
1.04954e-07
1.04944e-07
1.04953e-07
1.04834e-07
1.0483e-07
1.04834e-07
1.04831e-07
1.04977e-07
1.04949e-07
1.04953e-07
1.04828e-07
1.04655e-07
1.04656e-07
1.04656e-07
1.04655e-07
1.04854e-07
1.04851e-07
1.04834e-07
1.04655e-07
1.04659e-07
1.04657e-07
1.04657e-07
1.04659e-07
1.04655e-07
1.04898e-07
1.04978e-07
1.04954e-07
1.0483e-07
1.04656e-07
1.04657e-07
1.04656e-07
1.04656e-07
1.04657e-07
1.04656e-07
1.04898e-07
1.04975e-07
1.04944e-07
1.04834e-07
1.04656e-07
1.04657e-07
1.04656e-07
1.04656e-07
1.04657e-07
1.04656e-07
1.04895e-07
1.04855e-07
1.04831e-07
1.04655e-07
1.04659e-07
1.04657e-07
1.04657e-07
1.04659e-07
1.04655e-07
1.04897e-07
1.04979e-07
1.04977e-07
1.04854e-07
1.04655e-07
1.04656e-07
1.04656e-07
1.04655e-07
1.04882e-07
1.04873e-07
1.04981e-07
1.04949e-07
1.04851e-07
1.04898e-07
1.04898e-07
1.04895e-07
1.04897e-07
1.04873e-07
1.0499e-07
1.04978e-07
1.04975e-07
1.04855e-07
1.04979e-07
1.04981e-07
1.03648e-07
1.03638e-07
1.03647e-07
1.03528e-07
1.03524e-07
1.03529e-07
1.03526e-07
1.03671e-07
1.03644e-07
1.03647e-07
1.03523e-07
1.03349e-07
1.0335e-07
1.0335e-07
1.03349e-07
1.03549e-07
1.03546e-07
1.03528e-07
1.03349e-07
1.03353e-07
1.03352e-07
1.03352e-07
1.03353e-07
1.03349e-07
1.03592e-07
1.03672e-07
1.03648e-07
1.03524e-07
1.0335e-07
1.03352e-07
1.03351e-07
1.03351e-07
1.03352e-07
1.0335e-07
1.03592e-07
1.03669e-07
1.03638e-07
1.03529e-07
1.0335e-07
1.03352e-07
1.03351e-07
1.03351e-07
1.03352e-07
1.0335e-07
1.03589e-07
1.0355e-07
1.03526e-07
1.03349e-07
1.03353e-07
1.03352e-07
1.03352e-07
1.03353e-07
1.03349e-07
1.03591e-07
1.03674e-07
1.03671e-07
1.03549e-07
1.03349e-07
1.0335e-07
1.0335e-07
1.03349e-07
1.03576e-07
1.03568e-07
1.03675e-07
1.03644e-07
1.03546e-07
1.03592e-07
1.03592e-07
1.0359e-07
1.03591e-07
1.03568e-07
1.03684e-07
1.03672e-07
1.03669e-07
1.0355e-07
1.03674e-07
1.03675e-07
1.02343e-07
1.02332e-07
1.02341e-07
1.02223e-07
1.02218e-07
1.02223e-07
1.0222e-07
1.02366e-07
1.02338e-07
1.02341e-07
1.02217e-07
1.02044e-07
1.02044e-07
1.02044e-07
1.02044e-07
1.02243e-07
1.0224e-07
1.02223e-07
1.02044e-07
1.02048e-07
1.02046e-07
1.02046e-07
1.02048e-07
1.02044e-07
1.02286e-07
1.02367e-07
1.02343e-07
1.02218e-07
1.02044e-07
1.02046e-07
1.02045e-07
1.02045e-07
1.02046e-07
1.02044e-07
1.02286e-07
1.02363e-07
1.02332e-07
1.02223e-07
1.02044e-07
1.02046e-07
1.02045e-07
1.02045e-07
1.02046e-07
1.02044e-07
1.02284e-07
1.02244e-07
1.0222e-07
1.02044e-07
1.02048e-07
1.02046e-07
1.02046e-07
1.02048e-07
1.02044e-07
1.02286e-07
1.02368e-07
1.02366e-07
1.02243e-07
1.02044e-07
1.02044e-07
1.02044e-07
1.02044e-07
1.0227e-07
1.02262e-07
1.0237e-07
1.02338e-07
1.0224e-07
1.02286e-07
1.02286e-07
1.02284e-07
1.02286e-07
1.02262e-07
1.02378e-07
1.02367e-07
1.02363e-07
1.02244e-07
1.02368e-07
1.0237e-07
1.01037e-07
1.01027e-07
1.01036e-07
1.00917e-07
1.00913e-07
1.00918e-07
1.00915e-07
1.0106e-07
1.01033e-07
1.01036e-07
1.00911e-07
1.00738e-07
1.00739e-07
1.00739e-07
1.00738e-07
1.00938e-07
1.00934e-07
1.00917e-07
1.00738e-07
1.00742e-07
1.0074e-07
1.0074e-07
1.00742e-07
1.00738e-07
1.00981e-07
1.01061e-07
1.01037e-07
1.00913e-07
1.00739e-07
1.0074e-07
1.0074e-07
1.0074e-07
1.0074e-07
1.00739e-07
1.00981e-07
1.01058e-07
1.01027e-07
1.00918e-07
1.00739e-07
1.0074e-07
1.0074e-07
1.0074e-07
1.0074e-07
1.00739e-07
1.00978e-07
1.00939e-07
1.00915e-07
1.00738e-07
1.00742e-07
1.0074e-07
1.0074e-07
1.00742e-07
1.00738e-07
1.0098e-07
1.01062e-07
1.0106e-07
1.00938e-07
1.00738e-07
1.00739e-07
1.00739e-07
1.00738e-07
1.00965e-07
1.00957e-07
1.01064e-07
1.01033e-07
1.00934e-07
1.00981e-07
1.00981e-07
1.00978e-07
1.0098e-07
1.00957e-07
1.01073e-07
1.01061e-07
1.01058e-07
1.00939e-07
1.01062e-07
1.01064e-07
9.97314e-08
9.97212e-08
9.97301e-08
9.96116e-08
9.96072e-08
9.9612e-08
9.9609e-08
9.97545e-08
9.9727e-08
9.97301e-08
9.96059e-08
9.94326e-08
9.94332e-08
9.94332e-08
9.94326e-08
9.96319e-08
9.96288e-08
9.96116e-08
9.94326e-08
9.94364e-08
9.94349e-08
9.94349e-08
9.94365e-08
9.94326e-08
9.96753e-08
9.97555e-08
9.97314e-08
9.96072e-08
9.94332e-08
9.94349e-08
9.9434e-08
9.9434e-08
9.94349e-08
9.94332e-08
9.96752e-08
9.97521e-08
9.97212e-08
9.9612e-08
9.94332e-08
9.94349e-08
9.9434e-08
9.9434e-08
9.94349e-08
9.94332e-08
9.96727e-08
9.96329e-08
9.9609e-08
9.94326e-08
9.94365e-08
9.94349e-08
9.94349e-08
9.94365e-08
9.94326e-08
9.96745e-08
9.97569e-08
9.97544e-08
9.96319e-08
9.94326e-08
9.94332e-08
9.94332e-08
9.94326e-08
9.96593e-08
9.9651e-08
9.97584e-08
9.9727e-08
9.96288e-08
9.96753e-08
9.96752e-08
9.96727e-08
9.96745e-08
9.96511e-08
9.97671e-08
9.97555e-08
9.97521e-08
9.96329e-08
9.97569e-08
9.97584e-08
9.84258e-08
9.84156e-08
9.84245e-08
9.8306e-08
9.83016e-08
9.83064e-08
9.83034e-08
9.84488e-08
9.84214e-08
9.84245e-08
9.83002e-08
9.8127e-08
9.81276e-08
9.81276e-08
9.8127e-08
9.83263e-08
9.83232e-08
9.8306e-08
9.8127e-08
9.81308e-08
9.81293e-08
9.81293e-08
9.81308e-08
9.8127e-08
9.83697e-08
9.84499e-08
9.84258e-08
9.83016e-08
9.81276e-08
9.81293e-08
9.81284e-08
9.81284e-08
9.81293e-08
9.81276e-08
9.83696e-08
9.84465e-08
9.84156e-08
9.83064e-08
9.81276e-08
9.81293e-08
9.81284e-08
9.81284e-08
9.81293e-08
9.81276e-08
9.83671e-08
9.83273e-08
9.83034e-08
9.8127e-08
9.81308e-08
9.81293e-08
9.81293e-08
9.81308e-08
9.8127e-08
9.83689e-08
9.84513e-08
9.84488e-08
9.83263e-08
9.8127e-08
9.81276e-08
9.81276e-08
9.8127e-08
9.83537e-08
9.83454e-08
9.84528e-08
9.84214e-08
9.83232e-08
9.83697e-08
9.83696e-08
9.83671e-08
9.83689e-08
9.83455e-08
9.84615e-08
9.84499e-08
9.84465e-08
9.83273e-08
9.84513e-08
9.84528e-08
9.71202e-08
9.711e-08
9.71189e-08
9.70004e-08
9.69959e-08
9.70008e-08
9.69978e-08
9.71432e-08
9.71158e-08
9.71189e-08
9.69946e-08
9.68214e-08
9.6822e-08
9.6822e-08
9.68214e-08
9.70207e-08
9.70175e-08
9.70004e-08
9.68214e-08
9.68252e-08
9.68237e-08
9.68237e-08
9.68252e-08
9.68214e-08
9.70641e-08
9.71443e-08
9.71202e-08
9.69959e-08
9.6822e-08
9.68237e-08
9.68228e-08
9.68228e-08
9.68237e-08
9.6822e-08
9.7064e-08
9.71409e-08
9.711e-08
9.70008e-08
9.6822e-08
9.68237e-08
9.68228e-08
9.68228e-08
9.68237e-08
9.6822e-08
9.70615e-08
9.70217e-08
9.69978e-08
9.68214e-08
9.68252e-08
9.68237e-08
9.68237e-08
9.68252e-08
9.68214e-08
9.70633e-08
9.71457e-08
9.71432e-08
9.70207e-08
9.68214e-08
9.6822e-08
9.6822e-08
9.68214e-08
9.7048e-08
9.70398e-08
9.71472e-08
9.71158e-08
9.70175e-08
9.70641e-08
9.7064e-08
9.70615e-08
9.70633e-08
9.70398e-08
9.71559e-08
9.71443e-08
9.71409e-08
9.70217e-08
9.71457e-08
9.71472e-08
9.58146e-08
9.58044e-08
9.58133e-08
9.56948e-08
9.56903e-08
9.56952e-08
9.56922e-08
9.58376e-08
9.58102e-08
9.58133e-08
9.5689e-08
9.55158e-08
9.55164e-08
9.55164e-08
9.55158e-08
9.57151e-08
9.57119e-08
9.56948e-08
9.55158e-08
9.55196e-08
9.55181e-08
9.55181e-08
9.55196e-08
9.55158e-08
9.57585e-08
9.58387e-08
9.58146e-08
9.56903e-08
9.55164e-08
9.55181e-08
9.55172e-08
9.55172e-08
9.55181e-08
9.55164e-08
9.57584e-08
9.58353e-08
9.58044e-08
9.56952e-08
9.55164e-08
9.55181e-08
9.55172e-08
9.55172e-08
9.55181e-08
9.55164e-08
9.57559e-08
9.57161e-08
9.56922e-08
9.55158e-08
9.55196e-08
9.55181e-08
9.55181e-08
9.55196e-08
9.55158e-08
9.57577e-08
9.58401e-08
9.58376e-08
9.57151e-08
9.55158e-08
9.55164e-08
9.55164e-08
9.55158e-08
9.57424e-08
9.57342e-08
9.58415e-08
9.58102e-08
9.57119e-08
9.57585e-08
9.57584e-08
9.57559e-08
9.57577e-08
9.57342e-08
9.58503e-08
9.58387e-08
9.58353e-08
9.57161e-08
9.58401e-08
9.58416e-08
9.4509e-08
9.44988e-08
9.45077e-08
9.43892e-08
9.43848e-08
9.43897e-08
9.43866e-08
9.45321e-08
9.45046e-08
9.45077e-08
9.43835e-08
9.42102e-08
9.42108e-08
9.42108e-08
9.42102e-08
9.44095e-08
9.44064e-08
9.43893e-08
9.42102e-08
9.42141e-08
9.42125e-08
9.42125e-08
9.42141e-08
9.42102e-08
9.44529e-08
9.45331e-08
9.4509e-08
9.43848e-08
9.42108e-08
9.42125e-08
9.42117e-08
9.42117e-08
9.42125e-08
9.42108e-08
9.44528e-08
9.45297e-08
9.44988e-08
9.43896e-08
9.42108e-08
9.42125e-08
9.42117e-08
9.42117e-08
9.42125e-08
9.42108e-08
9.44503e-08
9.44105e-08
9.43866e-08
9.42103e-08
9.42141e-08
9.42125e-08
9.42125e-08
9.42141e-08
9.42102e-08
9.44521e-08
9.45345e-08
9.45321e-08
9.44095e-08
9.42102e-08
9.42108e-08
9.42108e-08
9.42103e-08
9.44369e-08
9.44286e-08
9.4536e-08
9.45046e-08
9.44064e-08
9.44529e-08
9.44528e-08
9.44503e-08
9.44521e-08
9.44287e-08
9.45447e-08
9.45331e-08
9.45297e-08
9.44105e-08
9.45345e-08
9.4536e-08
9.32035e-08
9.31933e-08
9.32022e-08
9.30837e-08
9.30792e-08
9.30841e-08
9.30811e-08
9.32265e-08
9.31991e-08
9.32022e-08
9.30779e-08
9.29047e-08
9.29053e-08
9.29053e-08
9.29047e-08
9.3104e-08
9.31008e-08
9.30837e-08
9.29047e-08
9.29085e-08
9.2907e-08
9.2907e-08
9.29085e-08
9.29047e-08
9.31474e-08
9.32276e-08
9.32035e-08
9.30792e-08
9.29053e-08
9.2907e-08
9.29061e-08
9.29061e-08
9.2907e-08
9.29053e-08
9.31472e-08
9.32242e-08
9.31933e-08
9.30841e-08
9.29053e-08
9.2907e-08
9.29061e-08
9.29061e-08
9.2907e-08
9.29053e-08
9.31448e-08
9.3105e-08
9.30811e-08
9.29047e-08
9.29085e-08
9.2907e-08
9.2907e-08
9.29085e-08
9.29047e-08
9.31466e-08
9.3229e-08
9.32265e-08
9.3104e-08
9.29047e-08
9.29053e-08
9.29053e-08
9.29047e-08
9.31313e-08
9.31231e-08
9.32304e-08
9.31991e-08
9.31008e-08
9.31474e-08
9.31473e-08
9.31448e-08
9.31466e-08
9.31231e-08
9.32392e-08
9.32276e-08
9.32242e-08
9.3105e-08
9.3229e-08
9.32305e-08
9.18979e-08
9.18877e-08
9.18966e-08
9.17781e-08
9.17737e-08
9.17785e-08
9.17755e-08
9.19209e-08
9.18935e-08
9.18966e-08
9.17723e-08
9.15991e-08
9.15997e-08
9.15997e-08
9.15991e-08
9.17984e-08
9.17953e-08
9.17781e-08
9.15991e-08
9.16029e-08
9.16014e-08
9.16014e-08
9.16029e-08
9.15991e-08
9.18418e-08
9.1922e-08
9.18979e-08
9.17736e-08
9.15997e-08
9.16014e-08
9.16005e-08
9.16005e-08
9.16014e-08
9.15997e-08
9.18417e-08
9.19186e-08
9.18877e-08
9.17785e-08
9.15997e-08
9.16014e-08
9.16005e-08
9.16005e-08
9.16014e-08
9.15997e-08
9.18392e-08
9.17994e-08
9.17755e-08
9.15991e-08
9.16029e-08
9.16014e-08
9.16014e-08
9.16029e-08
9.15991e-08
9.1841e-08
9.19234e-08
9.19209e-08
9.17984e-08
9.15991e-08
9.15997e-08
9.15997e-08
9.15991e-08
9.18258e-08
9.18175e-08
9.19249e-08
9.18935e-08
9.17953e-08
9.18418e-08
9.18417e-08
9.18392e-08
9.1841e-08
9.18175e-08
9.19336e-08
9.1922e-08
9.19186e-08
9.17994e-08
9.19234e-08
9.19249e-08
9.05923e-08
9.05821e-08
9.0591e-08
9.04725e-08
9.0468e-08
9.04729e-08
9.04699e-08
9.06153e-08
9.05879e-08
9.0591e-08
9.04667e-08
9.02935e-08
9.02941e-08
9.02941e-08
9.02935e-08
9.04928e-08
9.04896e-08
9.04725e-08
9.02935e-08
9.02973e-08
9.02958e-08
9.02958e-08
9.02973e-08
9.02935e-08
9.05362e-08
9.06164e-08
9.05923e-08
9.0468e-08
9.02941e-08
9.02958e-08
9.02949e-08
9.02949e-08
9.02958e-08
9.02941e-08
9.0536e-08
9.0613e-08
9.05821e-08
9.04729e-08
9.02941e-08
9.02958e-08
9.02949e-08
9.02949e-08
9.02958e-08
9.02941e-08
9.05336e-08
9.04938e-08
9.04699e-08
9.02935e-08
9.02973e-08
9.02958e-08
9.02958e-08
9.02973e-08
9.02935e-08
9.05354e-08
9.06178e-08
9.06153e-08
9.04928e-08
9.02935e-08
9.02941e-08
9.02941e-08
9.02935e-08
9.05201e-08
9.05119e-08
9.06192e-08
9.05879e-08
9.04896e-08
9.05362e-08
9.05361e-08
9.05336e-08
9.05354e-08
9.05119e-08
9.0628e-08
9.06164e-08
9.0613e-08
9.04938e-08
9.06178e-08
9.06193e-08
8.92867e-08
8.92765e-08
8.92854e-08
8.91669e-08
8.91624e-08
8.91673e-08
8.91643e-08
8.93097e-08
8.92823e-08
8.92854e-08
8.91611e-08
8.89879e-08
8.89885e-08
8.89885e-08
8.89879e-08
8.91872e-08
8.9184e-08
8.91669e-08
8.89879e-08
8.89917e-08
8.89902e-08
8.89902e-08
8.89917e-08
8.89879e-08
8.92305e-08
8.93107e-08
8.92867e-08
8.91624e-08
8.89885e-08
8.89902e-08
8.89893e-08
8.89893e-08
8.89902e-08
8.89885e-08
8.92304e-08
8.93074e-08
8.92765e-08
8.91673e-08
8.89885e-08
8.89902e-08
8.89893e-08
8.89893e-08
8.89902e-08
8.89885e-08
8.9228e-08
8.91882e-08
8.91643e-08
8.89879e-08
8.89917e-08
8.89902e-08
8.89902e-08
8.89917e-08
8.89879e-08
8.92298e-08
8.93121e-08
8.93097e-08
8.91872e-08
8.89879e-08
8.89885e-08
8.89885e-08
8.89879e-08
8.92145e-08
8.92063e-08
8.93136e-08
8.92823e-08
8.9184e-08
8.92306e-08
8.92304e-08
8.9228e-08
8.92298e-08
8.92063e-08
8.93224e-08
8.93108e-08
8.93074e-08
8.91882e-08
8.93122e-08
8.93137e-08
8.79811e-08
8.79709e-08
8.79798e-08
8.78613e-08
8.78568e-08
8.78617e-08
8.78587e-08
8.80041e-08
8.79767e-08
8.79798e-08
8.78555e-08
8.76823e-08
8.76829e-08
8.76829e-08
8.76823e-08
8.78816e-08
8.78784e-08
8.78613e-08
8.76823e-08
8.76861e-08
8.76846e-08
8.76846e-08
8.76861e-08
8.76823e-08
8.7925e-08
8.80052e-08
8.79811e-08
8.78568e-08
8.76829e-08
8.76846e-08
8.76837e-08
8.76837e-08
8.76846e-08
8.76829e-08
8.79248e-08
8.80018e-08
8.79709e-08
8.78617e-08
8.76829e-08
8.76846e-08
8.76837e-08
8.76837e-08
8.76846e-08
8.76829e-08
8.79224e-08
8.78826e-08
8.78587e-08
8.76823e-08
8.76861e-08
8.76846e-08
8.76846e-08
8.76861e-08
8.76823e-08
8.79242e-08
8.80066e-08
8.80041e-08
8.78816e-08
8.76823e-08
8.76829e-08
8.76829e-08
8.76823e-08
8.79089e-08
8.79007e-08
8.80081e-08
8.79767e-08
8.78784e-08
8.7925e-08
8.79249e-08
8.79224e-08
8.79242e-08
8.79007e-08
8.80168e-08
8.80052e-08
8.80018e-08
8.78826e-08
8.80066e-08
8.80081e-08
8.66755e-08
8.66653e-08
8.66742e-08
8.65557e-08
8.65512e-08
8.65561e-08
8.6553e-08
8.66985e-08
8.66711e-08
8.66742e-08
8.65499e-08
8.63767e-08
8.63772e-08
8.63772e-08
8.63767e-08
8.6576e-08
8.65728e-08
8.65557e-08
8.63767e-08
8.63805e-08
8.63789e-08
8.63789e-08
8.63805e-08
8.63767e-08
8.66193e-08
8.66995e-08
8.66755e-08
8.65512e-08
8.63772e-08
8.63789e-08
8.63781e-08
8.63781e-08
8.63789e-08
8.63772e-08
8.66192e-08
8.66962e-08
8.66653e-08
8.65561e-08
8.63772e-08
8.63789e-08
8.63781e-08
8.63781e-08
8.63789e-08
8.63772e-08
8.66167e-08
8.6577e-08
8.6553e-08
8.63767e-08
8.63805e-08
8.63789e-08
8.63789e-08
8.63805e-08
8.63767e-08
8.66186e-08
8.67009e-08
8.66985e-08
8.6576e-08
8.63767e-08
8.63772e-08
8.63772e-08
8.63767e-08
8.66033e-08
8.65951e-08
8.67024e-08
8.66711e-08
8.65728e-08
8.66193e-08
8.66192e-08
8.66168e-08
8.66186e-08
8.65951e-08
8.67112e-08
8.66996e-08
8.66962e-08
8.6577e-08
8.67009e-08
8.67024e-08
8.53699e-08
8.53596e-08
8.53685e-08
8.52501e-08
8.52456e-08
8.52505e-08
8.52474e-08
8.53929e-08
8.53655e-08
8.53685e-08
8.52443e-08
8.50711e-08
8.50716e-08
8.50716e-08
8.50711e-08
8.52703e-08
8.52672e-08
8.52501e-08
8.50711e-08
8.50749e-08
8.50733e-08
8.50733e-08
8.50749e-08
8.50711e-08
8.53137e-08
8.53939e-08
8.53699e-08
8.52456e-08
8.50716e-08
8.50733e-08
8.50725e-08
8.50725e-08
8.50733e-08
8.50716e-08
8.53136e-08
8.53906e-08
8.53596e-08
8.52505e-08
8.50716e-08
8.50733e-08
8.50725e-08
8.50725e-08
8.50733e-08
8.50716e-08
8.53111e-08
8.52713e-08
8.52474e-08
8.50711e-08
8.50749e-08
8.50733e-08
8.50733e-08
8.50749e-08
8.50711e-08
8.53129e-08
8.53953e-08
8.53929e-08
8.52703e-08
8.50711e-08
8.50716e-08
8.50716e-08
8.50711e-08
8.52977e-08
8.52895e-08
8.53968e-08
8.53655e-08
8.52672e-08
8.53137e-08
8.53136e-08
8.53111e-08
8.53129e-08
8.52895e-08
8.54055e-08
8.53939e-08
8.53906e-08
8.52713e-08
8.53953e-08
8.53968e-08
8.40643e-08
8.4054e-08
8.40629e-08
8.39445e-08
8.394e-08
8.39449e-08
8.39418e-08
8.40873e-08
8.40599e-08
8.40629e-08
8.39387e-08
8.37655e-08
8.3766e-08
8.3766e-08
8.37655e-08
8.39647e-08
8.39616e-08
8.39445e-08
8.37655e-08
8.37693e-08
8.37677e-08
8.37677e-08
8.37693e-08
8.37655e-08
8.40081e-08
8.40883e-08
8.40643e-08
8.394e-08
8.3766e-08
8.37677e-08
8.37669e-08
8.37669e-08
8.37677e-08
8.3766e-08
8.4008e-08
8.4085e-08
8.4054e-08
8.39449e-08
8.3766e-08
8.37677e-08
8.37669e-08
8.37669e-08
8.37677e-08
8.3766e-08
8.40055e-08
8.39657e-08
8.39418e-08
8.37655e-08
8.37693e-08
8.37677e-08
8.37677e-08
8.37693e-08
8.37655e-08
8.40073e-08
8.40897e-08
8.40873e-08
8.39647e-08
8.37655e-08
8.3766e-08
8.3766e-08
8.37655e-08
8.39921e-08
8.39839e-08
8.40912e-08
8.40599e-08
8.39616e-08
8.40081e-08
8.4008e-08
8.40055e-08
8.40073e-08
8.39839e-08
8.40999e-08
8.40883e-08
8.4085e-08
8.39657e-08
8.40897e-08
8.40912e-08
8.27587e-08
8.27484e-08
8.27573e-08
8.26389e-08
8.26344e-08
8.26393e-08
8.26362e-08
8.27817e-08
8.27543e-08
8.27573e-08
8.26331e-08
8.24599e-08
8.24604e-08
8.24604e-08
8.24599e-08
8.26591e-08
8.2656e-08
8.26389e-08
8.24599e-08
8.24637e-08
8.24621e-08
8.24621e-08
8.24637e-08
8.24599e-08
8.27025e-08
8.27827e-08
8.27587e-08
8.26344e-08
8.24604e-08
8.24621e-08
8.24613e-08
8.24613e-08
8.24621e-08
8.24604e-08
8.27024e-08
8.27794e-08
8.27484e-08
8.26393e-08
8.24604e-08
8.24621e-08
8.24613e-08
8.24613e-08
8.24621e-08
8.24604e-08
8.26999e-08
8.26601e-08
8.26362e-08
8.24599e-08
8.24637e-08
8.24621e-08
8.24621e-08
8.24637e-08
8.24599e-08
8.27017e-08
8.27841e-08
8.27817e-08
8.26591e-08
8.24599e-08
8.24604e-08
8.24604e-08
8.24599e-08
8.26865e-08