/*--------------------------------*- C++ -*----------------------------------*\
| =========                 |                                                 |
| \\      /  F ield         | OpenFOAM: The Open Source CFD Toolbox           |
|  \\    /   O peration     | Version:  2312                                  |
|   \\  /    A nd           | Website:  www.openfoam.com                      |
|    \\/     M anipulation  |                                                 |
\*---------------------------------------------------------------------------*/
FoamFile
{
    version     2.0;
    format      ascii;
    arch        "LSB;label=32;scalar=64";
    class       volScalarField;
    location    "700";
    object      epsilon;
}
// * * * * * * * * * * * * * * * * * * * * * * * * * * * * * * * * * * * * * //

dimensions      [0 2 -3 0 0 0 0];

internalField   nonuniform List<scalar> 
43008
(
1.40299e-07
2.15339e-07
1.36486e-07
2.21691e-07
2.21709e-07
3.34617e-07
3.14615e-07
3.29832e-07
2.1538e-07
2.1541e-07
2.19964e-07
2.19998e-07
3.29452e-07
2.15346e-07
2.15405e-07
2.19927e-07
2.19995e-07
2.19907e-07
2.19962e-07
3.14478e-07
3.29806e-07
2.15355e-07
2.19925e-07
2.19941e-07
3.29367e-07
3.34315e-07
2.21755e-07
2.21787e-07
3.34423e-07
2.21718e-07
2.21782e-07
2.21745e-07
3.34192e-07
2.21728e-07
3.46764e-06
8.88388e-06
3.42478e-06
8.88939e-06
1.85246e-05
3.4685e-06
8.88501e-06
3.42435e-06
8.89055e-06
1.40299e-07
1.40301e-07
1.403e-07
1.37363e-07
1.37364e-07
1.37367e-07
1.37365e-07
9.8797e-07
2.16722e-07
2.66114e-06
1.59065e-07
1.85351e-05
1.85255e-05
9.88082e-07
1.59529e-07
2.63311e-06
2.1674e-07
9.61397e-07
1.59073e-07
2.66128e-06
3.19358e-07
5.05947e-06
5.06132e-06
3.58576e-06
8.89732e-06
3.54929e-06
8.90242e-06
1.85007e-05
1.8492e-05
3.58595e-06
8.89854e-06
3.54883e-06
8.90371e-06
1.36487e-07
1.36491e-07
1.36488e-07
1.07215e-06
2.72074e-06
1.58251e-07
2.2362e-07
1.04476e-06
2.74543e-06
1.58111e-07
1.85015e-05
1.84927e-05
1.07223e-06
1.58266e-07
2.72081e-06
2.23638e-07
1.045e-06
1.58122e-07
2.74778e-06
5.09479e-06
5.09661e-06
3.39549e-07
5.109e-06
5.10883e-06
1.85319e-05
1.8522e-05
1.85346e-05
1.8525e-05
5.04208e-06
5.04543e-06
3.19684e-07
5.06086e-06
5.06146e-06
1.85053e-05
1.85144e-05
1.85082e-05
1.85174e-05
3.2385e-07
5.08597e-06
5.08659e-06
5.06898e-06
5.07231e-06
3.46774e-06
8.88397e-06
3.42483e-06
8.88952e-06
9.88486e-07
2.63305e-06
1.59532e-07
2.16775e-07
9.60917e-07
2.66117e-06
1.59078e-07
9.88165e-07
2.63374e-06
1.59536e-07
2.16809e-07
9.61368e-07
2.66175e-06
1.5908e-07
3.4897e-06
8.89606e-06
8.89075e-06
3.52886e-06
3.48961e-06
8.89633e-06
8.89092e-06
3.52898e-06
1.00237e-06
2.18306e-07
2.70431e-06
1.58443e-07
2.67801e-06
1.58741e-07
1.03048e-06
1.00278e-06
2.18338e-07
2.70503e-06
1.58444e-07
2.67867e-06
1.58744e-07
1.02995e-06
3.19525e-07
5.06107e-06
5.05956e-06
1.85232e-05
1.85081e-05
1.85171e-05
3.24097e-07
5.08636e-06
5.08466e-06
5.07206e-06
5.07062e-06
1.85062e-05
1.85156e-05
9.87829e-07
2.63354e-06
1.59533e-07
2.16742e-07
9.61341e-07
2.66178e-06
1.59078e-07
3.46782e-06
8.88462e-06
3.42482e-06
8.89019e-06
9.88113e-07
1.59538e-07
2.63375e-06
2.16809e-07
9.61318e-07
1.59081e-07
2.66172e-06
3.48915e-06
8.89731e-06
8.8919e-06
3.5297e-06
1.00291e-06
2.18271e-07
2.70495e-06
1.5844e-07
2.67853e-06
1.58741e-07
1.02988e-06
3.48972e-06
8.89692e-06
8.89151e-06
3.52895e-06
1.00277e-06
2.18333e-07
1.58444e-07
2.70511e-06
1.58746e-07
2.67871e-06
1.02995e-06
3.46828e-06
8.88993e-06
9.88263e-07
2.16775e-07
1.5907e-07
2.66117e-06
3.46739e-06
8.88968e-06
1.00282e-06
2.18245e-07
2.70436e-06
1.58427e-07
2.67802e-06
1.58724e-07
1.02974e-06
3.48902e-06
8.89654e-06
8.89122e-06
3.52963e-06
1.00242e-06
2.18299e-07
1.58433e-07
2.706e-06
1.58734e-07
2.67809e-06
1.03025e-06
3.48976e-06
8.89639e-06
8.89094e-06
3.52873e-06
5.04516e-06
5.04364e-06
3.19894e-07
5.06115e-06
5.05963e-06
1.85326e-05
1.8523e-05
1.85088e-05
1.8518e-05
3.23905e-07
5.08633e-06
5.08483e-06
5.07203e-06
5.07055e-06
1.85063e-05
1.85155e-05
9.88071e-07
1.59529e-07
2.63378e-06
2.16753e-07
9.61446e-07
1.59072e-07
2.66175e-06
3.46794e-06
8.88445e-06
3.425e-06
8.88999e-06
3.46795e-06
8.88495e-06
3.42515e-06
8.89052e-06
1.00285e-06
2.18264e-07
1.58437e-07
2.70448e-06
1.58738e-07
2.67816e-06
1.03006e-06
1.00288e-06
2.18278e-07
1.58437e-07
2.70505e-06
1.58736e-07
2.67875e-06
1.03006e-06
3.4899e-06
8.89672e-06
8.89134e-06
3.52914e-06
3.48993e-06
8.89722e-06
8.89185e-06
3.52913e-06
1.85238e-05
1.8526e-05
3.24058e-07
5.08459e-06
5.08645e-06
5.07027e-06
5.07211e-06
1.85071e-05
1.85163e-05
1.85093e-05
1.85185e-05
1.8498e-05
1.84893e-05
1.85008e-05
1.84921e-05
5.0934e-06
5.09663e-06
3.40642e-07
5.1088e-06
5.1109e-06
3.58468e-06
8.89754e-06
3.5493e-06
8.9027e-06
1.07318e-06
2.72037e-06
1.58271e-07
2.23683e-07
1.04442e-06
2.74743e-06
1.58127e-07
1.07227e-06
2.72099e-06
1.58272e-07
2.23718e-07
1.0449e-06
2.74812e-06
1.58128e-07
5.09634e-06
5.09505e-06
3.4067e-07
5.11061e-06
5.10693e-06
1.84988e-05
1.84901e-05
1.07246e-06
2.72097e-06
1.5827e-07
2.23647e-07
1.04492e-06
2.74821e-06
1.58125e-07
3.58491e-06
8.89812e-06
3.5494e-06
8.90329e-06
1.0724e-06
1.58275e-07
2.72125e-06
2.23717e-07
1.04489e-06
1.58129e-07
2.74612e-06
3.58586e-06
8.89782e-06
3.54863e-06
8.90293e-06
1.07273e-06
1.58261e-07
2.71963e-06
2.23678e-07
1.04446e-06
1.58115e-07
2.74772e-06
3.58523e-06
8.89758e-06
3.54932e-06
8.90281e-06
5.09637e-06
5.09491e-06
3.405e-07
5.10868e-06
5.10717e-06
1.84989e-05
1.84902e-05
1.0724e-06
1.58266e-07
2.72128e-06
2.23661e-07
1.04506e-06
1.58123e-07
2.74616e-06
3.58631e-06
8.89794e-06
3.54957e-06
8.90314e-06
3.58644e-06
8.89844e-06
3.5496e-06
8.9036e-06
1.84997e-05
1.8491e-05
1.85019e-05
1.84931e-05
1.21037e-05
3.45794e-06
1.06414e-05
4.33884e-06
1.06396e-05
4.33176e-06
1.21066e-05
2.25123e-05
7.18595e-06
8.88599e-06
2.25105e-05
7.18569e-06
1.21035e-05
3.435e-06
1.06381e-05
4.30669e-06
1.21008e-05
1.06396e-05
4.31428e-06
2.25011e-05
7.19229e-06
8.88731e-06
7.19205e-06
2.25029e-05
1.85332e-05
1.85256e-05
1.21037e-05
3.45737e-06
4.33882e-06
1.06416e-05
4.33179e-06
1.06398e-05
1.21066e-05
2.25117e-05
7.18468e-06
8.88715e-06
2.25099e-05
7.18675e-06
1.21035e-05
3.4357e-06
4.30666e-06
1.06383e-05
1.21008e-05
4.31428e-06
1.06398e-05
2.25006e-05
7.19242e-06
8.88845e-06
7.19148e-06
2.25023e-05
1.85341e-05
1.85265e-05
9.71726e-06
2.19931e-05
2.19925e-05
2.19927e-05
2.19922e-05
9.71694e-06
3.80593e-06
5.04584e-06
1.74758e-06
8.9744e-06
3.81276e-06
5.0477e-06
1.74909e-06
8.97914e-06
9.71381e-06
2.20034e-05
2.20028e-05
3.8229e-06
8.98391e-06
5.05737e-06
1.77247e-06
1.76508e-06
8.97784e-06
3.82834e-06
3.82987e-06
8.98868e-06
5.05921e-06
1.77397e-06
1.76677e-06
8.98273e-06
3.8354e-06
1.21172e-05
3.57682e-06
1.06555e-05
4.4242e-06
1.06524e-05
4.41886e-06
1.21204e-05
2.24743e-05
7.20651e-06
8.8993e-06
2.24728e-05
7.20632e-06
1.21169e-05
3.55761e-06
1.06483e-05
4.39887e-06
1.21137e-05
1.06513e-05
4.40476e-06
2.24633e-05
7.20977e-06
8.90049e-06
7.21001e-06
2.24648e-05
1.85e-05
1.84927e-05
1.21172e-05
3.57643e-06
4.4242e-06
1.06557e-05
4.41894e-06
1.06526e-05
1.21204e-05
2.24739e-05
7.206e-06
8.90057e-06
2.24723e-05
7.20656e-06
1.21169e-05
3.55835e-06
4.39894e-06
1.06484e-05
1.21137e-05
4.40475e-06
1.06515e-05
2.24629e-05
7.20987e-06
8.90173e-06
7.20978e-06
2.24644e-05
1.85007e-05
1.84934e-05
9.72657e-06
2.19519e-05
2.19514e-05
2.19516e-05
2.19512e-05
9.72544e-06
3.89029e-06
1.83747e-06
9.00501e-06
5.09625e-06
3.88535e-06
1.84407e-06
9.01056e-06
3.89901e-06
1.83907e-06
9.01002e-06
5.09801e-06
3.89197e-06
1.84584e-06
9.01537e-06
9.72386e-06
2.19619e-05
2.19614e-05
9.72481e-06
2.19622e-05
2.19617e-05
3.90532e-06
9.01876e-06
5.10565e-06
1.86715e-06
1.86058e-06
9.01349e-06
3.90928e-06
3.91111e-06
9.0236e-06
5.10794e-06
1.86889e-06
1.86215e-06
9.01849e-06
3.91816e-06
1.85308e-05
1.85229e-05
1.85336e-05
1.8526e-05
9.71762e-06
2.19933e-05
2.19927e-05
2.1993e-05
2.19923e-05
9.71728e-06
3.8059e-06
1.73998e-06
8.96773e-06
5.04733e-06
3.79995e-06
8.97426e-06
1.74731e-06
3.81276e-06
1.7417e-06
8.97296e-06
5.04776e-06
3.80694e-06
8.97941e-06
1.7488e-06
9.7142e-06
2.20033e-05
2.20027e-05
9.71438e-06
2.20037e-05
2.2003e-05
3.82277e-06
8.98368e-06
5.05604e-06
1.77218e-06
8.97748e-06
3.82817e-06
1.76496e-06
3.82965e-06
8.98893e-06
5.05932e-06
1.77361e-06
8.98263e-06
3.83515e-06
1.76667e-06
1.85061e-05
1.85136e-05
1.8509e-05
1.85165e-05
9.7199e-06
2.19826e-05
2.1982e-05
9.72049e-06
2.19828e-05
2.19824e-05
3.86562e-06
1.82055e-06
5.08146e-06
9.00173e-06
8.99588e-06
1.81352e-06
3.87038e-06
3.87263e-06
1.82202e-06
5.08501e-06
9.00707e-06
9.00121e-06
1.81532e-06
3.87742e-06
3.84961e-06
8.98677e-06
1.78945e-06
5.07346e-06
3.84458e-06
8.99294e-06
1.79661e-06
3.85661e-06
8.992e-06
1.7912e-06
5.07436e-06
3.85151e-06
8.99821e-06
1.79815e-06
9.72295e-06
2.19722e-05
2.1972e-05
2.19719e-05
2.19717e-05
9.72219e-06
1.21038e-05
3.45785e-06
1.06413e-05
4.33911e-06
1.06395e-05
4.33137e-06
1.21067e-05
2.25122e-05
7.183e-06
8.88608e-06
2.25104e-05
7.18521e-06
1.21036e-05
3.43493e-06
1.06379e-05
4.30626e-06
1.06394e-05
1.21009e-05
4.31456e-06
2.25011e-05
7.19107e-06
8.88745e-06
7.18951e-06
2.25028e-05
1.21099e-05
1.06418e-05
4.35536e-06
3.49882e-06
1.21069e-05
1.06441e-05
4.3621e-06
2.24823e-05
8.89403e-06
7.20261e-06
2.24839e-05
7.20258e-06
2.24935e-05
7.19726e-06
8.89282e-06
2.24918e-05
7.1971e-06
1.21102e-05
3.52008e-06
1.06474e-05
4.384e-06
1.21133e-05
1.06447e-05
4.3777e-06
1.211e-05
1.06416e-05
4.355e-06
3.49897e-06
1.2107e-05
1.06439e-05
4.36228e-06
2.24822e-05
8.89429e-06
7.20098e-06
7.20007e-06
2.24837e-05
2.24934e-05
7.19516e-06
8.89304e-06
2.24917e-05
7.19628e-06
1.21103e-05
3.5201e-06
1.06473e-05
4.38429e-06
1.06445e-05
4.37739e-06
1.21135e-05
9.71769e-06
2.19933e-05
2.19936e-05
2.19928e-05
2.19932e-05
9.7174e-06
3.81442e-06
5.04735e-06
8.97944e-06
1.74898e-06
3.80705e-06
5.04581e-06
1.74788e-06
8.97496e-06
9.71425e-06
2.20038e-05
2.20041e-05
3.82854e-06
8.98894e-06
5.05924e-06
1.77377e-06
8.98222e-06
1.76677e-06
3.8366e-06
3.82144e-06
8.98438e-06
5.05762e-06
1.77275e-06
1.76438e-06
8.97767e-06
3.82946e-06
1.85318e-05
1.8524e-05
1.85088e-05
1.85163e-05
9.72013e-06
2.19826e-05
2.19829e-05
9.72063e-06
2.19829e-05
2.19832e-05
3.87158e-06
1.82215e-06
5.08477e-06
9.007e-06
1.81542e-06
9.00072e-06
3.87894e-06
3.8644e-06
1.82094e-06
5.08344e-06
9.00245e-06
8.99611e-06
1.81294e-06
3.87163e-06
3.8584e-06
8.99166e-06
1.7913e-06
5.07409e-06
1.7983e-06
3.85057e-06
8.99816e-06
3.85111e-06
8.9871e-06
1.78885e-06
5.07234e-06
3.84329e-06
8.99356e-06
1.79685e-06
9.72313e-06
2.19725e-05
2.19729e-05
2.19723e-05
2.19726e-05
9.7224e-06
1.8507e-05
1.85145e-05
1.21039e-05
3.45789e-06
1.06415e-05
4.33898e-06
1.06397e-05
4.33129e-06
1.21068e-05
2.25116e-05
7.18382e-06
8.88678e-06
2.25098e-05
7.18371e-06
1.21037e-05
3.43516e-06
1.06382e-05
4.30619e-06
1.06396e-05
1.2101e-05
4.31451e-06
2.25004e-05
7.19049e-06
8.88806e-06
7.19007e-06
2.25022e-05
1.21099e-05
4.3554e-06
1.0642e-05
3.49977e-06
1.21069e-05
4.36206e-06
1.06443e-05
2.24818e-05
8.89526e-06
7.20257e-06
2.24834e-05
7.20152e-06
2.24929e-05
7.1967e-06
8.89404e-06
2.24912e-05
7.19769e-06
1.21102e-05
3.51958e-06
4.38394e-06
1.06476e-05
1.21133e-05
4.37779e-06
1.06449e-05
1.21101e-05
1.06419e-05
4.35499e-06
3.499e-06
1.21071e-05
1.06442e-05
4.36228e-06
2.24816e-05
8.89488e-06
7.20068e-06
7.20054e-06
2.24833e-05
2.24927e-05
7.19519e-06
8.89367e-06
2.2491e-05
7.19516e-06
1.21104e-05
3.52024e-06
1.06475e-05
4.38431e-06
1.06448e-05
4.37734e-06
1.21135e-05
1.21032e-05
3.45706e-06
4.33941e-06
1.06414e-05
4.33069e-06
1.06396e-05
1.21061e-05
2.24992e-05
7.19178e-06
8.88787e-06
7.19089e-06
2.25012e-05
1.21035e-05
3.45811e-06
1.06412e-05
4.33889e-06
1.06394e-05
4.3312e-06
1.21064e-05
2.24999e-05
7.18954e-06
8.8876e-06
7.19005e-06
2.25016e-05
1.21094e-05
4.3546e-06
1.06418e-05
3.49988e-06
1.21064e-05
4.36264e-06
1.06441e-05
2.24804e-05
8.89458e-06
7.2017e-06
7.2014e-06
2.24823e-05
2.24918e-05
7.19611e-06
8.8933e-06
2.24898e-05
7.19706e-06
1.21097e-05
3.51932e-06
4.38469e-06
1.06474e-05
4.37692e-06
1.06446e-05
1.21128e-05
1.21097e-05
1.06415e-05
4.35488e-06
3.49876e-06
1.21067e-05
1.06438e-05
4.36206e-06
2.24811e-05
8.89435e-06
7.20001e-06
7.19991e-06
2.24827e-05
2.24922e-05
7.19542e-06
8.89313e-06
2.24905e-05
7.19571e-06
1.211e-05
3.52021e-06
1.06472e-05
4.38408e-06
1.06444e-05
4.3773e-06
1.21131e-05
9.71718e-06
2.19925e-05
2.19927e-05
2.19921e-05
2.19923e-05
9.71683e-06
3.81272e-06
1.74177e-06
8.97252e-06
5.04752e-06
8.97901e-06
3.80706e-06
1.74909e-06
3.80559e-06
1.74e-06
8.96793e-06
5.04599e-06
1.74745e-06
3.79998e-06
8.97405e-06
9.71371e-06
2.20024e-05
2.20025e-05
2.20028e-05
9.7138e-06
2.2003e-05
3.82976e-06
8.98846e-06
5.059e-06
1.77394e-06
8.98224e-06
1.76668e-06
3.83525e-06
3.82265e-06
8.98351e-06
5.0575e-06
1.77241e-06
1.76493e-06
8.97757e-06
3.82815e-06
1.85316e-05
1.85239e-05
1.85097e-05
1.85171e-05
9.71951e-06
2.19818e-05
2.1982e-05
9.72008e-06
2.19822e-05
2.19823e-05
3.8727e-06
1.82211e-06
5.08474e-06
9.00655e-06
1.81539e-06
9.00081e-06
3.87757e-06
3.86558e-06
1.8207e-06
5.08327e-06
9.00168e-06
8.99617e-06
1.81358e-06
3.87055e-06
3.8567e-06
8.99161e-06
1.79123e-06
5.07408e-06
1.79837e-06
3.85163e-06
8.9977e-06
3.84955e-06
8.98705e-06
1.78954e-06
5.07255e-06
3.84454e-06
8.99283e-06
1.79658e-06
9.72258e-06
2.19718e-05
2.1972e-05
2.19716e-05
2.19717e-05
9.7218e-06
1.85071e-05
1.85146e-05
1.21032e-05
3.45812e-06
4.33901e-06
1.06414e-05
4.33159e-06
1.06396e-05
1.21061e-05
2.25104e-05
7.18485e-06
8.88659e-06
7.18522e-06
2.25087e-05
1.2103e-05
3.43528e-06
4.30659e-06
1.06381e-05
4.31442e-06
1.21003e-05
1.06395e-05
2.24993e-05
7.19076e-06
8.88787e-06
7.19096e-06
2.25011e-05
1.21041e-05
3.45815e-06
4.33953e-06
1.06415e-05
4.3312e-06
1.06397e-05
1.2107e-05
2.25127e-05
7.1841e-06
8.8871e-06
2.25108e-05
7.18405e-06
1.2104e-05
3.43526e-06
4.30635e-06
1.06382e-05
1.21012e-05
4.31494e-06
1.06396e-05
2.25015e-05
7.19037e-06
8.88839e-06
7.19029e-06
2.25032e-05
1.21094e-05
4.35528e-06
1.06417e-05
3.4992e-06
1.21064e-05
4.3622e-06
1.0644e-05
2.24806e-05
8.8947e-06
7.20165e-06
7.20151e-06
2.24822e-05
2.24917e-05
7.19686e-06
8.89347e-06
2.249e-05
7.19721e-06
1.21097e-05
3.52038e-06
4.38417e-06
1.06474e-05
4.37767e-06
1.06446e-05
1.21128e-05
1.21103e-05
4.35497e-06
1.06419e-05
3.49929e-06
1.21073e-05
4.36272e-06
1.06442e-05
2.24826e-05
8.89518e-06
7.20079e-06
7.20057e-06
2.24843e-05
2.24937e-05
7.19564e-06
8.89395e-06
2.2492e-05
7.19583e-06
1.21106e-05
3.52042e-06
4.38473e-06
1.06475e-05
4.37732e-06
1.06447e-05
1.21137e-05
1.85324e-05
1.85248e-05
1.85346e-05
1.8527e-05
9.71963e-06
2.19824e-05
2.19819e-05
9.72016e-06
2.19828e-05
2.19822e-05
3.86482e-06
1.82058e-06
5.08304e-06
9.002e-06
3.87179e-06
1.81383e-06
8.99623e-06
3.87174e-06
1.82221e-06
5.08484e-06
9.0068e-06
3.87893e-06
1.81545e-06
9.00123e-06
3.8512e-06
8.98713e-06
1.78964e-06
5.07242e-06
3.84457e-06
1.79664e-06
8.99317e-06
3.85826e-06
8.99202e-06
1.79132e-06
5.0743e-06
3.85156e-06
1.79834e-06
8.99799e-06
9.72266e-06
2.19725e-05
2.1972e-05
9.72193e-06
2.19721e-05
2.19717e-05
1.85079e-05
1.85154e-05
1.85101e-05
1.85176e-05
1.84973e-05
1.849e-05
1.85001e-05
1.84928e-05
9.72679e-06
2.19518e-05
2.19518e-05
2.19514e-05
2.19513e-05
9.72575e-06
3.89026e-06
1.83711e-06
9.00462e-06
5.09752e-06
3.88568e-06
9.01029e-06
1.84399e-06
3.89734e-06
1.83885e-06
9.00996e-06
5.09817e-06
3.89271e-06
9.01564e-06
1.84551e-06
9.72412e-06
2.19616e-05
2.19614e-05
9.72506e-06
2.19619e-05
2.19617e-05
3.90529e-06
9.01852e-06
5.10456e-06
1.86706e-06
9.01317e-06
3.90884e-06
1.86026e-06
3.91233e-06
9.02388e-06
5.10759e-06
1.86848e-06
9.01853e-06
3.91593e-06
1.8621e-06
1.21173e-05
3.57717e-06
1.06559e-05
4.4246e-06
1.06519e-05
4.41835e-06
1.21205e-05
2.24742e-05
7.20453e-06
8.89959e-06
2.24726e-05
7.2049e-06
1.2117e-05
3.55744e-06
1.0648e-05
4.3985e-06
1.06513e-05
1.21138e-05
4.405e-06
2.24631e-05
7.20833e-06
8.90072e-06
7.20812e-06
2.24646e-05
9.72698e-06
2.19518e-05
2.19523e-05
2.19515e-05
2.1952e-05
9.72591e-06
3.89903e-06
1.83892e-06
9.00939e-06
5.09789e-06
9.01544e-06
3.89188e-06
1.84627e-06
3.89007e-06
1.83668e-06
9.00493e-06
5.0961e-06
1.84456e-06
3.88504e-06
9.01103e-06
9.72433e-06
2.19618e-05
2.19623e-05
2.19621e-05
9.7252e-06
2.19626e-05
3.91087e-06
9.02378e-06
5.10733e-06
1.8694e-06
9.0178e-06
1.86162e-06
3.91856e-06
3.90503e-06
9.01934e-06
5.1065e-06
1.86785e-06
1.85967e-06
9.01336e-06
3.90896e-06
1.84981e-05
1.84907e-05
1.21174e-05
3.57724e-06
1.06556e-05
4.42487e-06
1.06525e-05
4.41823e-06
1.21206e-05
2.24737e-05
7.20437e-06
8.90017e-06
2.24722e-05
7.20437e-06
1.2117e-05
3.55759e-06
1.06483e-05
4.39851e-06
1.06514e-05
1.21139e-05
4.40514e-06
2.24627e-05
7.20786e-06
8.90138e-06
7.20803e-06
2.24642e-05
1.21167e-05
3.57612e-06
4.4251e-06
1.0656e-05
4.41775e-06
1.06519e-05
1.21199e-05
2.24728e-05
7.20558e-06
8.89981e-06
7.20571e-06
2.24709e-05
1.21163e-05
3.55822e-06
4.39812e-06
1.06481e-05
4.40516e-06
1.21132e-05
1.06514e-05
2.24614e-05
7.20917e-06
8.90107e-06
7.20931e-06
2.24632e-05
1.2117e-05
3.57671e-06
1.06558e-05
4.42443e-06
1.06517e-05
4.41831e-06
1.21202e-05
2.24732e-05
7.20407e-06
8.89967e-06
2.24716e-05
7.20408e-06
1.21167e-05
3.55785e-06
1.06479e-05
4.39841e-06
1.21135e-05
1.06512e-05
4.40477e-06
2.24621e-05
7.2075e-06
8.90083e-06
7.20767e-06
2.24637e-05
9.72645e-06
2.19513e-05
2.19515e-05
2.19511e-05
2.19512e-05
9.72531e-06
3.89743e-06
1.83894e-06
9.00953e-06
5.09781e-06
9.01514e-06
3.89281e-06
1.84588e-06
3.89159e-06
1.83724e-06
9.00485e-06
5.09629e-06
1.84428e-06
3.88534e-06
9.01027e-06
9.72372e-06
2.19613e-05
2.19614e-05
2.19616e-05
9.72469e-06
2.19617e-05
3.91233e-06
9.0234e-06
5.10781e-06
1.86885e-06
9.01808e-06
1.86201e-06
3.91629e-06
3.90399e-06
9.0185e-06
5.10634e-06
1.86778e-06
1.86003e-06
9.01339e-06
3.91147e-06
1.84982e-05
1.84909e-05
1.21167e-05
3.57679e-06
4.42442e-06
1.0656e-05
4.41872e-06
1.06519e-05
1.21199e-05
2.24727e-05
7.20567e-06
8.9e-06
7.20578e-06
2.24711e-05
1.21164e-05
3.55817e-06
4.39884e-06
1.06481e-05
4.40492e-06
1.21132e-05
1.06514e-05
2.24617e-05
7.20925e-06
8.90119e-06
7.2093e-06
2.24632e-05
1.21175e-05
3.57678e-06
4.4252e-06
1.06561e-05
4.41825e-06
1.0652e-05
1.21208e-05
2.24747e-05
7.2046e-06
8.90048e-06
2.24731e-05
7.20489e-06
1.21172e-05
3.5582e-06
4.39849e-06
1.06482e-05
1.2114e-05
4.40534e-06
1.06515e-05
2.24636e-05
7.20837e-06
8.90166e-06
7.20815e-06
2.24651e-05
1.8499e-05
1.84917e-05
1.85011e-05
1.84939e-05
1.27765e-07
1.27762e-07
1.39268e-07
1.26359e-07
1.26355e-07
1.21064e-07
1.22603e-07
1.54914e-06
3.14706e-07
6.54498e-07
6.54806e-07
1.22379e-07
1.22375e-07
1.35667e-07
1.21128e-07
1.21124e-07
1.15234e-07
1.16645e-07
1.64896e-06
7.07834e-07
7.0816e-07
3.34395e-07
1.64066e-06
7.11261e-07
7.11566e-07
1.54889e-06
6.51457e-07
6.51796e-07
3.15074e-07
1.542e-06
6.54536e-07
6.54652e-07
1.61719e-06
3.28791e-07
6.96582e-07
6.96683e-07
6.9353e-07
6.9388e-07
1.62335e-06
1.55038e-06
3.14645e-07
6.55755e-07
6.54664e-07
1.61594e-06
3.29372e-07
6.96797e-07
6.97863e-07
6.93873e-07
6.92385e-07
1.62468e-06
1.5486e-06
6.50848e-07
6.51761e-07
3.15254e-07
6.54153e-07
1.54226e-06
6.55946e-07
1.61729e-06
3.29081e-07
6.97815e-07
6.96311e-07
6.92864e-07
6.93907e-07
1.62344e-06
1.61642e-06
3.29401e-07
6.96885e-07
6.97181e-07
1.6248e-06
6.93479e-07
6.93801e-07
1.64745e-06
7.07889e-07
7.0811e-07
3.34972e-07
1.64135e-06
7.10932e-07
7.12267e-07
1.64944e-06
7.08139e-07
7.06989e-07
3.34681e-07
7.12236e-07
1.64045e-06
7.12385e-07
1.64762e-06
7.07716e-07
7.08166e-07
3.34981e-07
7.10708e-07
1.64151e-06
7.1099e-07
1.27765e-07
1.2776e-07
1.39269e-07
1.26359e-07
1.26355e-07
1.21064e-07
1.22602e-07
1.27766e-07
1.27762e-07
1.39272e-07
1.2636e-07
1.26355e-07
1.21065e-07
1.22603e-07
1.27764e-07
1.27762e-07
1.3927e-07
1.26358e-07
1.26355e-07
1.21064e-07
1.22603e-07
1.38287e-07
1.23667e-07
1.23663e-07
1.24994e-07
1.24991e-07
1.19559e-07
1.18086e-07
1.38288e-07
1.23667e-07
1.23662e-07
1.24994e-07
1.24989e-07
1.19559e-07
1.18086e-07
1.38291e-07
1.23668e-07
1.23663e-07
1.24995e-07
1.24991e-07
1.1956e-07
1.18087e-07
1.38289e-07
1.23666e-07
1.23663e-07
1.24993e-07
1.24991e-07
1.19559e-07
1.18086e-07
4.11958e-07
9.81952e-07
1.29498e-06
3.38254e-07
1.28671e-06
3.37727e-07
4.1418e-07
5.77505e-07
1.9246e-06
2.65603e-06
8.8733e-07
8.83968e-07
1.91854e-06
5.78294e-07
4.12905e-07
9.82114e-07
3.38321e-07
1.29431e-06
3.37766e-07
1.2877e-06
4.13039e-07
5.6829e-07
8.67363e-07
1.89464e-06
2.63847e-06
5.67458e-07
8.71476e-07
1.9009e-06
4.06013e-07
9.67466e-07
3.32496e-07
1.26442e-06
4.05851e-07
3.33075e-07
1.27107e-06
5.77386e-07
1.925e-06
2.65603e-06
8.88035e-07
8.83768e-07
1.91851e-06
5.78323e-07
1.56752e-06
3.19408e-07
6.68479e-07
6.6876e-07
6.65397e-07
6.65691e-07
1.57423e-06
1.22379e-07
1.22373e-07
1.35668e-07
1.21128e-07
1.21124e-07
1.15234e-07
1.16645e-07
1.2238e-07
1.22376e-07
1.35672e-07
1.21129e-07
1.21125e-07
1.15235e-07
1.16645e-07
1.22378e-07
1.22376e-07
1.3567e-07
1.21127e-07
1.21124e-07
1.15234e-07
1.16645e-07
4.43155e-07
1.0661e-06
1.38555e-06
3.61178e-07
1.37928e-06
3.60549e-07
4.44956e-07
6.1024e-07
9.33219e-07
1.98819e-06
2.72511e-06
6.09352e-07
9.36909e-07
1.99356e-06
4.36812e-07
1.05094e-06
1.35627e-06
3.54336e-07
4.34454e-07
1.36356e-06
3.55059e-07
6.20451e-07
2.01728e-06
2.74132e-06
9.53483e-07
9.5011e-07
2.0101e-06
6.20873e-07
4.44122e-07
1.06639e-06
3.6214e-07
1.38618e-06
3.6039e-07
1.37968e-06
4.43613e-07
6.10239e-07
9.33114e-07
1.98811e-06
2.72532e-06
6.09285e-07
9.37473e-07
1.99399e-06
4.35704e-07
1.05111e-06
3.54364e-07
1.35697e-06
4.35525e-07
3.55196e-07
1.36338e-06
6.2042e-07
2.01676e-06
2.74065e-06
9.54468e-07
9.49914e-07
2.01037e-06
6.20841e-07
1.66448e-06
3.40329e-07
7.25962e-07
7.26278e-07
7.22486e-07
7.22812e-07
1.67263e-06
1.56739e-06
3.19136e-07
6.68441e-07
6.68603e-07
1.57396e-06
6.65341e-07
6.65758e-07
1.59855e-06
3.24467e-07
6.79373e-07
6.79728e-07
1.59244e-06
6.82403e-07
6.82662e-07
4.11911e-07
9.81532e-07
1.29452e-06
3.38964e-07
1.2873e-06
3.37258e-07
4.14147e-07
5.68291e-07
8.67678e-07
1.89475e-06
2.63845e-06
1.9009e-06
5.6754e-07
8.71072e-07
4.0703e-07
9.67794e-07
1.26418e-06
3.32089e-07
1.27132e-06
4.04914e-07
3.33683e-07
5.77476e-07
1.92479e-06
2.65591e-06
8.87426e-07
1.9189e-06
8.83983e-07
5.78316e-07
4.12433e-07
9.81957e-07
1.29398e-06
3.38925e-07
1.28788e-06
3.37258e-07
4.12667e-07
5.68298e-07
8.6814e-07
1.8944e-06
2.63898e-06
5.67554e-07
1.90097e-06
8.71505e-07
4.05927e-07
9.67364e-07
1.26443e-06
3.32087e-07
4.05068e-07
1.27071e-06
3.33666e-07
5.77496e-07
1.92505e-06
2.65662e-06
8.8789e-07
1.91842e-06
5.78344e-07
8.84412e-07
4.21555e-07
1.31052e-06
3.42554e-07
1.00955e-06
4.19367e-07
1.31781e-06
3.44294e-07
5.98355e-07
9.20376e-07
2.6996e-06
1.97126e-06
9.16926e-07
1.96556e-06
5.99275e-07
5.88533e-07
1.94244e-06
9.00287e-07
2.68308e-06
9.04173e-07
5.87768e-07
1.94801e-06
4.26711e-07
1.0232e-06
1.34089e-06
3.49976e-07
1.33345e-06
3.48071e-07
4.28906e-07
4.20226e-07
1.3109e-06
3.42541e-07
1.00895e-06
4.20021e-07
1.31713e-06
3.44239e-07
5.98377e-07
9.20813e-07
2.70019e-06
1.9713e-06
1.96509e-06
9.17387e-07
5.99308e-07
5.88531e-07
1.94209e-06
9.0075e-07
2.68376e-06
5.878e-07
1.94806e-06
9.04569e-07
4.27496e-07
1.02375e-06
1.34023e-06
3.49916e-07
1.33391e-06
3.48068e-07
4.27799e-07
1.56615e-06
3.19524e-07
6.68598e-07
6.69492e-07
6.64282e-07
6.65703e-07
1.57521e-06
1.60047e-06
3.24123e-07
6.79672e-07
6.78477e-07
6.82744e-07
1.5913e-06
6.83271e-07
4.12881e-07
9.82199e-07
1.29395e-06
3.38328e-07
1.28792e-06
3.37791e-07
4.12936e-07
5.68302e-07
8.67934e-07
1.89492e-06
2.63895e-06
1.90095e-06
5.67519e-07
8.71542e-07
4.05798e-07
9.67203e-07
1.26449e-06
3.3252e-07
1.27085e-06
4.05901e-07
3.33063e-07
5.77451e-07
1.9251e-06
2.65639e-06
8.87883e-07
1.91868e-06
8.84215e-07
5.78363e-07
4.1188e-07
9.81944e-07
3.38295e-07
1.29428e-06
3.37722e-07
1.28749e-06
4.14082e-07
5.68306e-07
8.67827e-07
1.89454e-06
2.63896e-06
5.6748e-07
1.90066e-06
8.72054e-07
4.06992e-07
9.67414e-07
3.32448e-07
1.26428e-06
4.04888e-07
3.33021e-07
1.27103e-06
5.77417e-07
1.92434e-06
2.65659e-06
8.88527e-07
1.91843e-06
5.78347e-07
8.84227e-07
4.20132e-07
1.31095e-06
3.43038e-07
1.00875e-06
4.20097e-07
1.31726e-06
3.43635e-07
5.98341e-07
9.2069e-07
2.7001e-06
1.97131e-06
9.17149e-07
1.96554e-06
5.99326e-07
5.88556e-07
1.94234e-06
9.00556e-07
2.68374e-06
9.04553e-07
5.8776e-07
1.9485e-06
4.27519e-07
1.02388e-06
1.34018e-06
3.49231e-07
1.33395e-06
3.48618e-07
4.27747e-07
4.21495e-07
3.42997e-07
1.31064e-06
1.00894e-06
4.19344e-07
3.43617e-07
1.31745e-06
5.983e-07
9.2136e-07
2.70036e-06
1.97092e-06
1.96523e-06
9.17008e-07
5.99356e-07
5.88541e-07
1.94192e-06
9.00664e-07
2.68373e-06
5.87707e-07
1.94844e-06
9.04575e-07
4.26665e-07
1.02377e-06
3.49194e-07
1.34037e-06
3.48561e-07
1.33375e-06
4.28838e-07
4.12848e-07
9.81529e-07
3.38238e-07
1.29399e-06
3.3775e-07
1.28775e-06
4.12806e-07
5.773e-07
1.92453e-06
2.65614e-06
8.87861e-07
8.8377e-07
1.91806e-06
5.783e-07
4.21537e-07
1.31005e-06
3.4298e-07
1.00862e-06
4.19386e-07
1.31781e-06
3.43566e-07
5.98371e-07
9.20312e-07
2.69971e-06
1.97109e-06
5.99374e-07
9.16727e-07
1.96522e-06
5.88548e-07
1.94208e-06
9.0012e-07
2.68302e-06
5.87776e-07
9.03962e-07
1.94801e-06
4.26764e-07
1.02375e-06
1.34099e-06
3.49083e-07
4.28795e-07
1.33317e-06
3.48512e-07
4.20374e-07
3.42995e-07
1.31077e-06
1.00924e-06
4.20074e-07
3.43597e-07
1.31707e-06
5.98305e-07
9.20822e-07
2.69927e-06
1.97092e-06
1.96489e-06
9.16692e-07
5.99374e-07
5.88484e-07
1.94173e-06
9.00159e-07
2.6835e-06
5.87702e-07
1.9479e-06
9.0427e-07
4.27512e-07
1.02333e-06
3.4921e-07
1.34021e-06
3.4859e-07
1.33386e-06
4.27798e-07
1.56749e-06
3.19138e-07
6.698e-07
6.68183e-07
6.65668e-07
6.64902e-07
1.57392e-06
1.59876e-06
3.24653e-07
6.78819e-07
6.79627e-07
6.83363e-07
1.59256e-06
6.82238e-07
4.11887e-07
9.82098e-07
3.38318e-07
1.29496e-06
3.37758e-07
1.28691e-06
4.14135e-07
5.68082e-07
8.68052e-07
1.89457e-06
2.63902e-06
8.71508e-07
5.67311e-07
1.9005e-06
4.06911e-07
9.67468e-07
3.32526e-07
1.26396e-06
3.33089e-07
4.04821e-07
1.27158e-06
5.77296e-07
1.92425e-06
2.65662e-06
8.87893e-07
8.8434e-07
1.91848e-06
5.78197e-07
4.2053e-07
3.43003e-07
1.3109e-06
1.00903e-06
4.20304e-07
3.43644e-07
1.31722e-06
5.98177e-07
9.20855e-07
2.69975e-06
1.97152e-06
5.9935e-07
9.16424e-07
1.96515e-06
5.88493e-07
1.9422e-06
9.00146e-07
2.68317e-06
5.87694e-07
9.04143e-07
1.94814e-06
4.2765e-07
1.02379e-06
3.49163e-07
1.34011e-06
4.2805e-07
3.48568e-07
1.33398e-06
4.21526e-07
3.43021e-07
1.3102e-06
1.00898e-06
4.1934e-07
3.43625e-07
1.31813e-06
5.98264e-07
9.20978e-07
2.70041e-06
1.97097e-06
1.96521e-06
9.17202e-07
5.99225e-07
5.8848e-07
1.94207e-06
9.00636e-07
2.68378e-06
5.87653e-07
1.94802e-06
9.04844e-07
4.26709e-07
1.02388e-06
3.49239e-07
1.34083e-06
3.48609e-07
1.33324e-06
4.28884e-07
1.60022e-06
3.24054e-07
6.79371e-07
6.79695e-07
1.59241e-06
6.82552e-07
6.82852e-07
1.66541e-06
3.39712e-07
7.25458e-07
7.27663e-07
1.67097e-06
7.22482e-07
7.21855e-07
4.43e-07
1.06534e-06
1.38589e-06
3.62185e-07
1.3794e-06
3.59868e-07
4.448e-07
6.10201e-07
9.33359e-07
1.98817e-06
2.72677e-06
1.99426e-06
6.09219e-07
9.37171e-07
4.3671e-07
1.05163e-06
1.35651e-06
3.53959e-07
1.36336e-06
4.3438e-07
3.55775e-07
6.20457e-07
2.01677e-06
2.7398e-06
9.5374e-07
2.01044e-06
9.50195e-07
6.20935e-07
4.43811e-07
1.06607e-06
1.38702e-06
3.62104e-07
1.37904e-06
3.59864e-07
4.4339e-07
6.10158e-07
9.33882e-07
1.98809e-06
2.7273e-06
6.09276e-07
1.99395e-06
9.37484e-07
4.35296e-07
1.05116e-06
1.35684e-06
3.53931e-07
4.3513e-07
1.3636e-06
3.55732e-07
6.2053e-07
2.01712e-06
2.74042e-06
9.5412e-07
2.00993e-06
6.20901e-07
9.50763e-07
1.66378e-06
3.39716e-07
7.27718e-07
7.27089e-07
7.21336e-07
7.21849e-07
1.67297e-06
4.43813e-07
1.06603e-06
1.38562e-06
3.62001e-07
1.37985e-06
3.60139e-07
4.43414e-07
6.10192e-07
9.3353e-07
1.98836e-06
2.72735e-06
1.99388e-06
6.09242e-07
9.38515e-07
4.35298e-07
1.05137e-06
1.35694e-06
3.54446e-07
1.36321e-06
4.35163e-07
3.55414e-07
6.20493e-07
2.01595e-06
2.74036e-06
9.55578e-07
2.01092e-06
9.49543e-07
6.20919e-07
4.42964e-07
1.06601e-06
3.61997e-07
1.38588e-06
3.60118e-07
1.37961e-06
4.44769e-07
6.11593e-07
9.33832e-07
1.98778e-06
2.7259e-06
6.08855e-07
1.99427e-06
9.37873e-07
4.36672e-07
1.05125e-06
3.54425e-07
1.35679e-06
4.34342e-07
3.55371e-07
1.36338e-06
6.19282e-07
2.01635e-06
2.74183e-06
9.56198e-07
2.01035e-06
6.23231e-07
9.49965e-07
4.43718e-07
1.06563e-06
3.61972e-07
1.38562e-06
3.60093e-07
1.3797e-06
4.43344e-07
6.10018e-07
9.33327e-07
1.98772e-06
2.7269e-06
9.37424e-07
6.09102e-07
1.99427e-06
4.35217e-07
1.05129e-06
3.54402e-07
1.35685e-06
3.55387e-07
4.35065e-07
1.3629e-06
6.19929e-07
2.01652e-06
2.73993e-06
9.54255e-07
9.49994e-07
2.0094e-06
6.23042e-07
1.66548e-06
3.3966e-07
7.25726e-07
7.25078e-07
7.22821e-07
7.22802e-07
1.67109e-06
4.43009e-07
1.06625e-06
3.61222e-07
1.38706e-06
3.60587e-07
1.37907e-06
4.44782e-07
6.1015e-07
9.33565e-07
1.98791e-06
2.72597e-06
9.38184e-07
6.09146e-07
1.99353e-06
4.36713e-07
1.05111e-06
3.54449e-07
1.35641e-06
3.55185e-07
4.3439e-07
1.36373e-06
6.2041e-07
2.01576e-06
2.74186e-06
9.54896e-07
9.5041e-07
2.01056e-06
6.20892e-07
4.99174e-07
4.99983e-07
4.99986e-07
4.99925e-07
4.4559e-07
4.54244e-07
4.54263e-07
4.64019e-07
4.03812e-07
4.18882e-07
4.18908e-07
4.39755e-07
3.68433e-07
3.88806e-07
3.88837e-07
4.17863e-07
3.38076e-07
3.62259e-07
3.62289e-07
3.96048e-07
3.1169e-07
3.38343e-07
3.38369e-07
3.74369e-07
2.88498e-07
3.16631e-07
3.16657e-07
3.5335e-07
2.6793e-07
2.96955e-07
2.96978e-07
3.33711e-07
2.49569e-07
2.79257e-07
2.79274e-07
3.15925e-07
2.33108e-07
2.6353e-07
2.63539e-07
3.00496e-07
2.1832e-07
2.49775e-07
2.49779e-07
2.87679e-07
2.05029e-07
2.37987e-07
2.37989e-07
2.77807e-07
1.93095e-07
2.2817e-07
2.2817e-07
2.71184e-07
1.82407e-07
2.20327e-07
2.20328e-07
2.67553e-07
1.72874e-07
2.14463e-07
2.14467e-07
2.67009e-07
1.64422e-07
2.10592e-07
2.10596e-07
2.69831e-07
1.56987e-07
2.08719e-07
2.08728e-07
2.76156e-07
1.50516e-07
2.08854e-07
2.08864e-07
2.85844e-07
1.44965e-07
2.11052e-07
2.11066e-07
2.98737e-07
2.15324e-07
3.14778e-07
5.06196e-07
5.05571e-07
5.05573e-07
5.06202e-07
5.05569e-07
5.05569e-07
5.05986e-07
5.05986e-07
5.05985e-07
5.05983e-07
5.05573e-07
5.05562e-07
5.062e-07
5.05571e-07
5.05561e-07
5.06191e-07
4.99907e-07
4.67463e-07
4.99987e-07
4.9999e-07
4.64258e-07
4.64272e-07