/*--------------------------------*- C++ -*----------------------------------*\
| =========                 |                                                 |
| \\      /  F ield         | OpenFOAM: The Open Source CFD Toolbox           |
|  \\    /   O peration     | Version:  2312                                  |
|   \\  /    A nd           | Website:  www.openfoam.com                      |
|    \\/     M anipulation  |                                                 |
\*---------------------------------------------------------------------------*/
FoamFile
{
    version     2.0;
    format      ascii;
    arch        "LSB;label=32;scalar=64";
    class       volVectorField;
    location    "700";
    object      U;
}
// * * * * * * * * * * * * * * * * * * * * * * * * * * * * * * * * * * * * * //

dimensions      [0 1 -1 0 0 0 0];

internalField   nonuniform List<vector> 
43008
(
(6.34937e-05 6.34853e-05 0.108289)
(5.91522e-05 -9.55874e-05 0.107557)
(6.22849e-05 6.22428e-05 0.108604)
(-9.36586e-05 5.81544e-05 0.107771)
(5.81249e-05 -9.37398e-05 0.107771)
(-0.000149512 -0.000149589 0.106585)
(0.000152381 0.000152373 0.106508)
(1.26175e-05 1.26684e-05 0.106725)
(5.93231e-05 9.54821e-05 0.107557)
(-5.93967e-05 9.56427e-05 0.107556)
(5.85979e-05 9.41534e-05 0.107718)
(-5.86093e-05 9.42603e-05 0.107718)
(-1.25963e-05 1.26703e-05 0.106725)
(9.55465e-05 5.91993e-05 0.107557)
(9.55587e-05 -5.94001e-05 0.107556)
(9.41994e-05 5.84584e-05 0.107719)
(9.41538e-05 -5.86154e-05 0.107718)
(-9.41222e-05 5.8427e-05 0.107719)
(-9.4017e-05 -5.85426e-05 0.107718)
(0.000152402 -0.000152481 0.106508)
(1.26176e-05 -1.26208e-05 0.106725)
(-5.91697e-05 -9.55598e-05 0.107557)
(5.83834e-05 -9.41882e-05 0.107719)
(-5.83931e-05 -9.41879e-05 0.107719)
(-1.26155e-05 -1.26038e-05 0.106725)
(0.000149579 0.000149521 0.106585)
(5.83491e-05 9.37094e-05 0.10777)
(-5.83437e-05 9.3788e-05 0.10777)
(-0.00014955 0.000149548 0.106585)
(9.37481e-05 5.81941e-05 0.107771)
(9.37006e-05 -5.83455e-05 0.10777)
(-9.35496e-05 -5.82664e-05 0.10777)
(0.000149533 -0.00014962 0.106584)
(-5.81265e-05 -9.37375e-05 0.107771)
(2.14007e-06 2.08383e-05 0.0947506)
(-2.79284e-06 3.82708e-05 0.0840944)
(2.85901e-06 7.04682e-05 0.0947939)
(-5.16919e-06 -1.26659e-06 0.0840815)
(5.92845e-06 -4.85429e-06 0.0725367)
(2.08341e-05 2.11497e-06 0.0947508)
(3.83123e-05 -2.84111e-06 0.0840946)
(7.04692e-05 2.84657e-06 0.094794)
(-1.29274e-06 -5.39808e-06 0.0840817)
(-6.35161e-05 6.34961e-05 0.108289)
(6.34847e-05 -6.35719e-05 0.108289)
(-6.34813e-05 -6.3546e-05 0.108289)
(6.25844e-05 6.25485e-05 0.108526)
(-6.25743e-05 6.2557e-05 0.108526)
(6.25491e-05 -6.26363e-05 0.108526)
(-6.25381e-05 -6.26142e-05 0.108526)
(-6.21414e-05 6.37869e-06 0.103006)
(-9.50534e-05 5.89584e-05 0.107612)
(-3.02924e-05 2.14792e-06 0.0963721)
(-0.000104291 2.11082e-05 0.108126)
(1.6368e-05 -3.47189e-06 0.072507)
(-4.76201e-06 5.92859e-06 0.0725359)
(6.25249e-06 -6.21672e-05 0.103005)
(2.1271e-05 -0.000104824 0.108055)
(3.08817e-05 -7.5359e-05 0.0963602)
(5.88961e-05 -9.5116e-05 0.107612)
(7.55695e-06 -0.000126307 0.102968)
(2.11305e-05 -0.000104416 0.108126)
(2.14885e-06 -3.02585e-05 0.0963696)
(-1.41036e-05 -1.40472e-05 0.106681)
(-1.56045e-05 1.98753e-06 0.0899648)
(2.07131e-06 -1.56433e-05 0.089962)
(1.65461e-06 1.52869e-05 0.0943848)
(-1.84745e-06 3.51765e-05 0.0838209)
(2.38061e-06 6.36216e-05 0.0944189)
(-4.52576e-06 -3.32953e-06 0.0838168)
(-3.43544e-06 1.56182e-05 0.0723247)
(5.657e-06 -5.17827e-06 0.0723587)
(1.52777e-05 1.63292e-06 0.0943848)
(3.52068e-05 -2.00097e-06 0.0838212)
(6.36508e-05 2.33984e-06 0.0944189)
(-3.30778e-06 -4.5614e-06 0.083817)
(-6.22675e-05 6.22496e-05 0.108604)
(6.22444e-05 -6.23258e-05 0.108604)
(-6.22301e-05 -6.23058e-05 0.108604)
(-5.53746e-05 5.24373e-06 0.102755)
(-6.98147e-05 2.83897e-05 0.0960261)
(-0.000103123 2.06695e-05 0.108337)
(-9.3185e-05 5.78908e-05 0.107822)
(-0.000118541 6.54848e-06 0.102725)
(-2.55865e-05 7.33865e-07 0.0960423)
(-0.000102741 2.0528e-05 0.108405)
(1.55643e-05 -3.51463e-06 0.0723248)
(-5.17722e-06 5.74189e-06 0.0723579)
(5.08844e-06 -5.54393e-05 0.102754)
(2.07019e-05 -0.000103269 0.108337)
(2.84064e-05 -6.99059e-05 0.0960266)
(5.78377e-05 -9.32604e-05 0.107821)
(6.59949e-06 -0.000118702 0.102724)
(2.05543e-05 -0.000102864 0.108405)
(7.07749e-07 -2.55319e-05 0.0960396)
(-3.43081e-05 -1.83187e-05 0.0896682)
(-1.82483e-05 -3.43149e-05 0.0896676)
(-1.11956e-05 -1.11848e-05 0.106761)
(-1.30751e-05 2.63679e-06 0.0896669)
(2.62849e-06 -1.30554e-05 0.0896639)
(3.45039e-06 1.62857e-05 0.0725071)
(-6.02544e-06 -4.82755e-06 0.0725366)
(1.63125e-05 3.30493e-06 0.0725057)
(-4.95947e-06 -6.27482e-06 0.0725356)
(1.95653e-05 3.68923e-05 0.0899757)
(3.69458e-05 1.93348e-05 0.0899727)
(1.40419e-05 1.41118e-05 0.106682)
(-2.04973e-06 1.55988e-05 0.089966)
(1.54285e-05 -2.18475e-06 0.0899633)
(-5.55998e-06 -5.00979e-06 0.0724454)
(3.55105e-06 1.59997e-05 0.0724137)
(-4.99949e-06 -5.91181e-06 0.0724447)
(1.59042e-05 3.30022e-06 0.0724122)
(0.000151025 0.000151001 0.10655)
(-2.23055e-06 1.43076e-05 0.0898133)
(1.42716e-05 -2.41888e-06 0.0898109)
(1.89118e-05 3.56576e-05 0.089819)
(3.55751e-05 1.87433e-05 0.0898158)
(-2.14059e-06 2.08363e-05 0.0947503)
(2.76957e-06 3.82241e-05 0.0840939)
(-2.88992e-06 7.04599e-05 0.0947937)
(5.10678e-06 -1.25757e-06 0.0840811)
(6.37841e-06 6.20626e-05 0.103005)
(3.09072e-05 7.53645e-05 0.0963596)
(2.12852e-05 0.000104701 0.108055)
(5.90822e-05 9.50467e-05 0.107612)
(7.53665e-06 0.000126257 0.102968)
(2.13987e-06 3.02928e-05 0.0963697)
(2.11461e-05 0.0001043 0.108126)
(-6.34216e-06 6.20645e-05 0.103005)
(-3.08816e-05 7.53112e-05 0.0963583)
(-2.12726e-05 0.000104736 0.108055)
(-5.91525e-05 9.51875e-05 0.107611)
(-7.56661e-06 0.000126267 0.102968)
(-2.22306e-06 3.02588e-05 0.0963683)
(-2.11416e-05 0.000104332 0.108126)
(2.59407e-06 6.69126e-05 0.0946022)
(-4.62904e-06 -2.46422e-06 0.0839456)
(-2.20171e-06 3.66647e-05 0.0839541)
(1.87215e-06 1.79155e-05 0.0945635)
(-2.64152e-06 6.69136e-05 0.0946021)
(4.63137e-06 -2.32397e-06 0.083945)
(2.25724e-06 3.66715e-05 0.0839538)
(-1.89831e-06 1.79314e-05 0.0945632)
(7.08215e-06 0.000122442 0.102849)
(5.88563e-05 9.462e-05 0.107666)
(1.50165e-06 2.77239e-05 0.0962022)
(2.08677e-05 0.000103535 0.108267)
(2.97072e-05 7.25712e-05 0.0961903)
(2.10082e-05 0.000103922 0.108197)
(5.77395e-06 5.86316e-05 0.102882)
(-7.09297e-06 0.000122439 0.102849)
(-5.88788e-05 9.47241e-05 0.107665)
(-1.4817e-06 2.78922e-05 0.0962005)
(-2.08564e-05 0.000103558 0.108267)
(-2.96731e-05 7.25843e-05 0.0961893)
(-2.09968e-05 0.000103945 0.108197)
(-5.73557e-06 5.86392e-05 0.102882)
(-1.40745e-05 1.41397e-05 0.106682)
(1.97356e-06 1.56004e-05 0.0899636)
(-1.56783e-05 -2.08406e-06 0.0899679)
(4.7532e-06 -5.93838e-06 0.0725392)
(5.72567e-06 -4.81868e-06 0.0724455)
(-3.46838e-06 1.59334e-05 0.0724134)
(-0.000151038 0.000151031 0.10655)
(2.40101e-06 1.44796e-05 0.0898108)
(-1.43312e-05 -2.41387e-06 0.0898154)
(-1.88527e-05 3.56189e-05 0.0898158)
(-3.55929e-05 1.88321e-05 0.0898178)
(5.01695e-06 -5.8357e-06 0.0724483)
(-1.59543e-05 3.43355e-06 0.0724114)
(6.20748e-05 6.34123e-06 0.103006)
(7.53394e-05 3.08283e-05 0.0963594)
(0.000104715 2.12221e-05 0.108055)
(9.50905e-05 5.89485e-05 0.107612)
(0.000126244 7.52656e-06 0.102968)
(3.01758e-05 1.98929e-06 0.0963691)
(0.000104306 2.10785e-05 0.108126)
(2.08322e-05 -2.15026e-06 0.0947507)
(3.83147e-05 2.7015e-06 0.0840946)
(7.04695e-05 -2.87761e-06 0.094794)
(-1.17043e-06 5.18213e-06 0.0840813)
(6.20797e-05 -6.36293e-06 0.103006)
(0.000104737 -2.13388e-05 0.108055)
(7.53442e-05 -3.09588e-05 0.0963593)
(9.50799e-05 -5.91467e-05 0.107611)
(0.000126234 -7.58825e-06 0.102968)
(0.000104319 -2.12042e-05 0.108126)
(3.03061e-05 -2.10152e-06 0.0963679)
(6.69275e-05 2.57156e-06 0.0946023)
(-2.3527e-06 -4.84767e-06 0.0839459)
(3.66691e-05 -2.38892e-06 0.0839541)
(1.79303e-05 1.8714e-06 0.0945636)
(0.000122427 7.04808e-06 0.102849)
(9.46569e-05 5.87119e-05 0.107666)
(2.77711e-05 1.35012e-06 0.0962016)
(0.000103549 2.0805e-05 0.108267)
(7.25683e-05 2.95861e-05 0.0961898)
(0.000103933 2.09421e-05 0.108197)
(5.86856e-05 5.7301e-06 0.102883)
(6.69313e-05 -2.63877e-06 0.0946023)
(-2.27983e-06 4.86475e-06 0.0839454)
(3.67049e-05 2.30614e-06 0.0839542)
(1.79314e-05 -1.8792e-06 0.0945635)
(0.000122434 -7.12623e-06 0.102849)
(9.46217e-05 -5.88881e-05 0.107665)
(0.000103542 -2.09174e-05 0.108267)
(2.78637e-05 -1.34301e-06 0.0962003)
(0.000103928 -2.10593e-05 0.108197)
(7.25665e-05 -2.96708e-05 0.0961899)
(5.86918e-05 -5.75014e-06 0.102883)
(-2.09004e-05 2.20792e-06 0.094752)
(1.22436e-06 -5.16947e-06 0.0840836)
(-6.20793e-05 -6.35297e-06 0.103005)
(-9.49756e-05 -5.90645e-05 0.107612)
(-0.000104251 -2.11841e-05 0.108126)
(-3.02721e-05 -2.17775e-06 0.0963694)
(-2.08597e-05 -2.09686e-06 0.0947506)
(1.2499e-06 5.13441e-06 0.0840811)
(-0.000122382 6.99851e-06 0.102849)
(-9.45933e-05 5.86944e-05 0.107666)
(-2.78662e-05 1.41816e-06 0.0962046)
(-0.000103499 2.08139e-05 0.108267)
(-7.24681e-05 2.95826e-05 0.0961902)
(-0.000103891 2.09595e-05 0.108197)
(-5.87163e-05 5.80187e-06 0.102883)
(-6.68805e-05 2.5294e-06 0.0946012)
(2.35065e-06 -4.85521e-06 0.0839478)
(-3.66417e-05 -2.28943e-06 0.0839532)
(-1.8007e-05 1.96084e-06 0.0945648)
(-0.000122384 -7.13901e-06 0.102849)
(-9.45029e-05 -5.88191e-05 0.107666)
(-0.000103472 -2.09013e-05 0.108267)
(-2.79197e-05 -1.44549e-06 0.0962018)
(-0.000103855 -2.10427e-05 0.108197)
(-7.24735e-05 -2.96893e-05 0.0961895)
(-5.86558e-05 -5.72645e-06 0.102882)
(-6.68953e-05 -2.67455e-06 0.0946018)
(2.35475e-06 4.82293e-06 0.0839453)
(-3.66949e-05 2.28264e-06 0.0839535)
(-1.79741e-05 -1.81833e-06 0.0945635)
(3.69595e-05 -1.95002e-05 0.0899733)
(1.9432e-05 -3.69818e-05 0.0899751)
(1.40661e-05 -1.40732e-05 0.106681)
(1.56457e-05 1.98779e-06 0.0899617)
(-2.01315e-06 -1.566e-05 0.0899655)
(3.39603e-06 -1.64127e-05 0.0725067)
(-5.9577e-06 4.77432e-06 0.0725363)
(-4.98459e-06 5.83118e-06 0.0724448)
(1.59521e-05 -3.50122e-06 0.0724137)
(0.000151027 -0.000151118 0.10655)
(1.43225e-05 2.31875e-06 0.0898091)
(-2.31893e-06 -1.43277e-05 0.0898129)
(3.56009e-05 -1.88833e-05 0.0898167)
(1.88275e-05 -3.5597e-05 0.0898183)
(-5.84389e-06 5.00108e-06 0.0724452)
(3.43869e-06 -1.59994e-05 0.0724134)
(-6.42388e-06 -6.21544e-05 0.103006)
(-2.12522e-05 -0.000104755 0.108055)
(-3.09128e-05 -7.53786e-05 0.0963597)
(-5.88994e-05 -9.51062e-05 0.107612)
(-7.55527e-06 -0.000126269 0.102967)
(-2.11102e-05 -0.00010434 0.108126)
(-2.10585e-06 -3.02269e-05 0.0963686)
(2.05716e-06 -2.09439e-05 0.0947503)
(-2.74057e-06 -3.83281e-05 0.0840947)
(2.84237e-06 -7.05074e-05 0.0947933)
(-5.16103e-06 1.22915e-06 0.0840814)
(-2.20288e-06 -2.08917e-05 0.094751)
(2.70712e-06 -3.83049e-05 0.0840952)
(-2.91591e-06 -7.0474e-05 0.0947929)
(5.16579e-06 1.21862e-06 0.0840818)
(7.06372e-06 -0.000122494 0.102849)
(5.86451e-05 -9.46611e-05 0.107666)
(2.08477e-05 -0.000103622 0.108267)
(1.39619e-06 -2.78166e-05 0.0962019)
(2.09903e-05 -0.000104034 0.108197)
(2.95981e-05 -7.25477e-05 0.0961907)
(5.67552e-06 -5.87998e-05 0.102882)
(-7.11281e-06 -0.000122452 0.102848)
(-5.86583e-05 -9.46515e-05 0.107666)
(-2.08378e-05 -0.000103569 0.108267)
(-1.36811e-06 -2.77614e-05 0.0962009)
(-2.0971e-05 -0.000103974 0.108197)
(-2.96359e-05 -7.25673e-05 0.0961904)
(-5.81224e-06 -5.87726e-05 0.102883)
(2.59032e-06 -6.69653e-05 0.0946015)
(-4.83556e-06 2.33027e-06 0.0839454)
(-2.33701e-06 -3.67143e-05 0.0839543)
(1.79522e-06 -1.80476e-05 0.094563)
(-2.66744e-06 -6.69402e-05 0.0946011)
(4.83773e-06 2.31835e-06 0.0839457)
(2.30896e-06 -3.66709e-05 0.0839548)
(-1.94369e-06 -1.80051e-05 0.0945637)
(4.79574e-06 5.90453e-06 0.0725364)
(5.98092e-06 4.75623e-06 0.0725358)
(-0.000151023 -0.00015108 0.10655)
(-1.42896e-05 2.32978e-06 0.0898123)
(2.36666e-06 -1.42951e-05 0.0898093)
(-3.55894e-05 -1.89109e-05 0.0898174)
(-1.88144e-05 -3.56209e-05 0.0898166)
(5.0178e-06 5.81062e-06 0.0724453)
(-1.59713e-05 -3.50118e-06 0.0724132)
(5.86061e-06 4.98233e-06 0.0724447)
(-3.46027e-06 -1.59599e-05 0.0724136)
(3.65106e-06 1.56382e-05 0.0723247)
(-5.68273e-06 -5.23332e-06 0.0723587)
(1.5581e-05 3.43793e-06 0.0723236)
(-5.23094e-06 -5.74683e-06 0.0723579)
(1.83559e-05 3.44197e-05 0.08967)
(3.43211e-05 1.82401e-05 0.0896667)
(1.11993e-05 1.12486e-05 0.106762)
(-2.5173e-06 1.3025e-05 0.0896677)
(1.30406e-05 -2.60108e-06 0.0896655)
(-1.64447e-06 1.52886e-05 0.0943846)
(1.98056e-06 3.52297e-05 0.0838209)
(-2.40223e-06 6.36338e-05 0.0944188)
(4.49467e-06 -3.31668e-06 0.0838162)
(5.18532e-06 5.53048e-05 0.102754)
(2.85604e-05 6.99424e-05 0.0960263)
(2.0729e-05 0.000103171 0.108337)
(5.80717e-05 9.32419e-05 0.107821)
(6.62203e-06 0.000118616 0.102724)
(7.77943e-07 2.54976e-05 0.0960399)
(2.05857e-05 0.00010279 0.108405)
(-5.14145e-06 5.5293e-05 0.102754)
(-2.84342e-05 6.99295e-05 0.0960255)
(-2.07091e-05 0.000103185 0.108337)
(-5.80675e-05 9.32995e-05 0.107821)
(-6.6203e-06 0.000118616 0.102724)
(-7.68463e-07 2.5559e-05 0.0960382)
(-2.05654e-05 0.000102804 0.108405)
(-1.80945e-05 3.43205e-05 0.0896667)
(-3.42937e-05 1.82417e-05 0.0896686)
(-1.11591e-05 1.12216e-05 0.106762)
(2.51986e-06 1.30838e-05 0.0896655)
(-1.30937e-05 -2.68222e-06 0.0896699)
(-1.55255e-05 3.4401e-06 0.0723224)
(5.2411e-06 -5.73797e-06 0.0723614)
(5.53444e-05 5.12692e-06 0.102755)
(6.993e-05 2.84354e-05 0.0960257)
(0.000103178 2.06668e-05 0.108337)
(9.32746e-05 5.79136e-05 0.107821)
(0.000118612 6.59014e-06 0.102724)
(2.54864e-05 7.09413e-07 0.0960394)
(0.000102792 2.05237e-05 0.108405)
(1.52758e-05 -1.64495e-06 0.0943847)
(3.52402e-05 1.98939e-06 0.0838212)
(6.36552e-05 -2.38295e-06 0.0944189)
(-3.23004e-06 4.60603e-06 0.0838164)
(5.53486e-05 -5.15663e-06 0.102755)
(0.000103167 -2.07671e-05 0.108337)
(6.99145e-05 -2.84707e-05 0.0960258)
(9.32254e-05 -5.80526e-05 0.107821)
(0.000118615 -6.64261e-06 0.102724)
(0.000102785 -2.06207e-05 0.108405)
(2.55694e-05 -6.51482e-07 0.0960381)
(-1.53441e-05 1.74403e-06 0.094386)
(-3.51646e-05 -1.97126e-06 0.0838202)
(-6.35969e-05 2.30231e-06 0.0944179)
(3.32299e-06 -4.5925e-06 0.0838189)
(-5.52948e-05 -5.12136e-06 0.102755)
(-0.000103091 -2.07486e-05 0.108337)
(-6.98539e-05 -2.849e-05 0.0960254)
(-9.30649e-05 -5.79828e-05 0.107821)
(-0.000118544 -6.64217e-06 0.102725)
(-0.000102716 -2.06103e-05 0.108405)
(-2.56475e-05 -7.35861e-07 0.0960397)
(-1.53205e-05 -1.56625e-06 0.0943848)
(-3.52377e-05 1.96969e-06 0.0838205)
(-6.36208e-05 -2.40688e-06 0.0944186)
(3.31415e-06 4.58263e-06 0.0838164)
(3.43095e-05 -1.82942e-05 0.0896676)
(1.82473e-05 -3.4292e-05 0.0896691)
(1.11688e-05 -1.11581e-05 0.106761)
(1.30946e-05 2.60172e-06 0.0896637)
(-2.60202e-06 -1.30872e-05 0.0896675)
(3.46978e-06 -1.56046e-05 0.0723245)
(-5.73998e-06 5.20081e-06 0.0723584)
(-5.21887e-06 -5.54356e-05 0.102755)
(-2.06914e-05 -0.000103222 0.108337)
(-2.84493e-05 -6.99098e-05 0.0960263)
(-5.78458e-05 -9.32659e-05 0.107821)
(-6.63644e-06 -0.000118649 0.102724)
(-2.05516e-05 -0.00010282 0.108405)
(-6.85689e-07 -2.54582e-05 0.0960386)
(1.55246e-06 -1.54025e-05 0.0943843)
(-2.00946e-06 -3.52467e-05 0.0838213)
(2.34973e-06 -6.36742e-05 0.094418)
(-4.57008e-06 3.29138e-06 0.0838165)
(-1.70391e-06 -1.53583e-05 0.0943849)
(1.97521e-06 -3.52036e-05 0.0838216)
(-2.43779e-06 -6.36572e-05 0.0944175)
(4.56651e-06 3.26971e-06 0.0838167)
(-1.55783e-05 -3.51402e-06 0.0723243)
(5.20804e-06 5.72774e-06 0.0723585)
(-3.49751e-06 -1.55639e-05 0.0723247)
(5.7454e-06 5.18289e-06 0.0723578)
(-1.09908e-06 1.33272e-05 0.0780382)
(2.71461e-06 6.86523e-05 0.094697)
(2.58045e-07 -1.02751e-05 0.079912)
(4.24039e-06 1.3915e-05 0.0928158)
(1.2184e-07 8.39171e-06 0.0798524)
(6.46409e-06 5.91503e-05 0.0927531)
(2.08929e-07 -6.16396e-06 0.0781087)
(2.36272e-06 -6.69052e-06 0.0694214)
(5.38023e-06 3.91828e-05 0.0880754)
(-5.5563e-06 -6.70304e-07 0.0841523)
(9.07182e-07 1.24627e-05 0.0693268)
(3.74732e-06 3.62387e-06 0.0881441)
(-4.50988e-08 -6.25573e-06 0.0781573)
(2.27503e-06 2.23903e-05 0.0948473)
(3.56896e-08 8.17003e-06 0.0799011)
(6.68863e-06 6.06658e-05 0.0928432)
(-1.33722e-06 1.32497e-05 0.078087)
(1.87308e-07 -1.05084e-05 0.0799603)
(4.43649e-06 1.52138e-05 0.0929054)
(9.35326e-07 1.23421e-05 0.0692835)
(3.69946e-06 2.91554e-06 0.0880647)
(-2.49639e-06 3.74764e-05 0.0840233)
(5.32848e-06 3.82403e-05 0.0879956)
(2.43758e-06 -6.73892e-06 0.0693779)
(6.00313e-06 -4.73863e-06 0.072584)
(-3.39209e-06 1.61415e-05 0.0724592)
(1.33333e-05 -1.06258e-06 0.0780385)
(6.86669e-05 2.70894e-06 0.0946972)
(1.39227e-05 4.18846e-06 0.0928158)
(-1.02838e-05 2.50786e-07 0.0799123)
(5.91705e-05 6.46116e-06 0.0927533)
(8.38315e-06 1.3621e-07 0.0798525)
(-6.17138e-06 1.44168e-07 0.0781091)
(-6.73796e-06 2.34171e-06 0.0694218)
(3.91829e-05 5.38843e-06 0.0880755)
(-6.28141e-07 -5.38342e-06 0.0841525)
(1.25081e-05 9.07566e-07 0.0693273)
(3.58656e-06 3.764e-06 0.0881441)
(-6.26839e-06 -6.37737e-08 0.0781577)
(2.23816e-05 2.27015e-06 0.0948475)
(6.06819e-05 6.67315e-06 0.0928433)
(8.16209e-06 4.12463e-08 0.0799012)
(1.32598e-05 -1.32408e-06 0.0780873)
(1.52135e-05 4.42915e-06 0.0929055)
(-1.05198e-05 1.86406e-07 0.0799607)
(1.23938e-05 9.63897e-07 0.0692841)
(2.85703e-06 3.58922e-06 0.0880648)
(3.74672e-05 -2.69877e-06 0.0840235)
(3.83018e-05 5.23374e-06 0.0879957)
(-6.79025e-06 2.35235e-06 0.0693783)
(-4.63797e-06 5.98651e-06 0.0725831)
(1.61585e-05 -3.4905e-06 0.0724598)
(-2.75012e-05 -2.75525e-05 0.085651)
(-3.86027e-07 6.26878e-06 0.0695838)
(6.29604e-06 -4.11287e-07 0.0695772)
(-1.00259e-05 -1.20285e-05 0.0695014)
(-1.19632e-05 -1.00917e-05 0.0694952)
(-8.4627e-06 -8.49872e-06 0.0857042)
(-1.61214e-05 -2.09193e-05 0.0946918)
(-1.62979e-05 1.81802e-06 0.090044)
(-3.27959e-05 -3.54724e-05 0.10001)
(-1.24026e-05 6.97724e-06 0.0834762)
(-2.08176e-05 -1.61071e-05 0.0946831)
(1.89225e-06 -1.63627e-05 0.0900412)
(-3.53201e-05 -3.28636e-05 0.100006)
(7.04206e-06 -1.2443e-05 0.0834702)
(-8.94416e-06 -8.96199e-06 0.0857767)
(-5.47224e-07 6.26186e-06 0.0696322)
(6.29385e-06 -5.73859e-07 0.0696255)
(-6.91752e-05 -4.42941e-05 0.094537)
(-1.19353e-05 6.8624e-06 0.0834103)
(-3.6256e-05 -1.92077e-05 0.0898948)
(-3.16235e-05 -3.422e-05 0.0999313)
(-9.9569e-05 -6.27143e-05 0.099852)
(-3.07486e-05 -5.79514e-06 0.0833398)
(-1.5301e-05 -1.99969e-05 0.0946081)
(-4.42474e-05 -6.92189e-05 0.0945293)
(6.92396e-06 -1.19547e-05 0.0834043)
(-1.91204e-05 -3.63094e-05 0.0898939)
(-3.40433e-05 -3.16792e-05 0.0999272)
(-6.26395e-05 -9.96362e-05 0.099849)
(-5.74192e-06 -3.08781e-05 0.0833357)
(-1.98735e-05 -1.53067e-05 0.0945995)
(-2.15569e-07 1.35764e-05 0.0778568)
(2.26782e-06 6.20932e-05 0.0943303)
(4.41608e-07 -9.14228e-06 0.0797347)
(3.46548e-06 9.46082e-06 0.0924796)
(3.87609e-07 9.42258e-06 0.0796744)
(5.76197e-06 5.37324e-05 0.0924157)
(8.4119e-07 -5.82659e-06 0.0779273)
(2.48879e-06 -6.9994e-06 0.0692536)
(4.98356e-06 3.57545e-05 0.0877692)
(-4.56343e-06 -2.83694e-06 0.0838804)
(1.0953e-06 1.19775e-05 0.0691602)
(3.26893e-06 9.5493e-07 0.0878395)
(7.58924e-07 -5.89918e-06 0.0779708)
(1.79336e-06 1.65802e-05 0.0944731)
(3.52774e-07 9.15097e-06 0.0797166)
(5.93738e-06 5.50001e-05 0.0924967)
(-4.32996e-07 1.35149e-05 0.0779001)
(4.46586e-07 -9.44467e-06 0.0797768)
(3.68872e-06 1.05081e-05 0.0925604)
(1.23044e-06 1.19872e-05 0.0691215)
(3.07446e-06 3.91251e-07 0.0877687)
(-1.79903e-06 3.45294e-05 0.0837573)
(4.83833e-06 3.50951e-05 0.0876981)
(2.47795e-06 -7.03361e-06 0.0692144)
(5.74647e-06 -5.07674e-06 0.0724013)
(-3.61745e-06 1.55239e-05 0.0722815)
(1.35823e-05 -2.64542e-07 0.0778569)
(6.21004e-05 2.23299e-06 0.0943304)
(9.48022e-06 3.42494e-06 0.0924795)
(-9.13992e-06 4.31419e-07 0.0797348)
(5.37411e-05 5.7066e-06 0.0924157)
(9.43049e-06 3.56576e-07 0.0796744)
(-5.8171e-06 8.248e-07 0.0779275)
(-6.96118e-06 2.47183e-06 0.069254)
(3.58235e-05 4.95181e-06 0.0877694)
(-2.84081e-06 -4.69327e-06 0.0838806)
(1.21146e-05 1.16188e-06 0.0691609)
(9.47255e-07 3.22007e-06 0.0878396)
(-5.90716e-06 6.90104e-07 0.077971)
(1.65713e-05 1.75198e-06 0.0944732)
(5.50093e-05 5.87892e-06 0.0924968)
(9.1552e-06 3.2061e-07 0.0797167)
(1.3534e-05 -4.25828e-07 0.0779004)
(1.04986e-05 3.61044e-06 0.0925603)
(-9.44033e-06 4.01296e-07 0.079777)
(1.20119e-05 1.21342e-06 0.0691219)
(3.70501e-07 3.07194e-06 0.0877686)
(3.45484e-05 -1.85742e-06 0.0837573)
(3.50814e-05 4.82714e-06 0.0876981)
(-7.00468e-06 2.48603e-06 0.0692147)
(-5.08531e-06 5.78631e-06 0.0724008)
(1.5376e-05 -3.51701e-06 0.0722819)
(-2.55429e-05 -2.55807e-05 0.0853787)
(2.48548e-07 6.23126e-06 0.0694009)
(6.22866e-06 2.57394e-07 0.0693943)
(-9.44088e-06 -1.1713e-05 0.0693189)
(-1.16602e-05 -9.48077e-06 0.0693126)
(-6.74452e-06 -6.75168e-06 0.0854337)
(-1.29538e-05 -1.74387e-05 0.0943687)
(-9.52921e-05 -5.89986e-05 0.0996211)
(-2.93544e-05 -5.99873e-06 0.0831506)
(-1.3664e-05 2.48643e-06 0.0897387)
(-6.60457e-05 -4.15274e-05 0.094297)
(-2.83126e-05 -3.07048e-05 0.0997001)
(-1.05268e-05 6.53745e-06 0.0832213)
(-1.72887e-05 -1.29291e-05 0.0943599)
(-5.89027e-05 -9.53127e-05 0.0996182)
(-5.9621e-06 -2.94465e-05 0.0831464)
(2.49806e-06 -1.36655e-05 0.0897357)
(-4.14672e-05 -6.61016e-05 0.0942893)
(-3.04659e-05 -2.83165e-05 0.0996957)
(6.56791e-06 -1.05141e-05 0.0832153)
(-7.14965e-06 -7.16883e-06 0.0854986)
(-9.58467e-06 -1.17881e-05 0.0693629)
(-1.17294e-05 -9.63346e-06 0.0693567)
(-2.60067e-05 -2.60578e-05 0.085444)
(9.93541e-08 6.24206e-06 0.0694451)
(6.25144e-06 9.77348e-08 0.0694384)
(-6.50772e-05 -4.06722e-05 0.0942206)
(-1.00672e-05 6.44822e-06 0.0831612)
(-3.36945e-05 -1.80314e-05 0.0895963)
(-2.72582e-05 -2.95743e-05 0.0996245)
(-9.39198e-05 -5.78134e-05 0.0995458)
(-2.8888e-05 -6.0491e-06 0.0830904)
(-1.22021e-05 -1.66123e-05 0.0942924)
(-4.06093e-05 -6.51034e-05 0.0942129)
(6.46295e-06 -1.00446e-05 0.0831552)
(-1.79885e-05 -3.36877e-05 0.0895957)
(-2.93338e-05 -2.72469e-05 0.0996202)
(-5.77122e-05 -9.39301e-05 0.0995429)
(-6.02615e-06 -2.89695e-05 0.0830862)
(-1.65038e-05 -1.21936e-05 0.0942836)
(-6.24153e-06 -4.89782e-06 0.0725838)
(3.44153e-06 1.61139e-05 0.0724596)
(-4.51599e-06 -6.05356e-06 0.072583)
(1.61437e-05 3.27489e-06 0.0724587)
(2.74874e-05 2.74674e-05 0.0856509)
(-6.23121e-06 3.78357e-07 0.0695846)
(3.31826e-07 -6.22167e-06 0.0695777)
(1.19537e-05 1.00029e-05 0.0695014)
(1.00698e-05 1.19356e-05 0.0694947)
(8.43365e-06 8.45791e-06 0.0857055)
(2.08357e-05 1.59999e-05 0.094693)
(6.40518e-05 0.000101074 0.0999312)
(5.80853e-06 3.12752e-05 0.0834075)
(-1.93963e-06 1.6152e-05 0.0900452)
(4.52204e-05 7.02893e-05 0.0946214)
(-7.07957e-06 1.23254e-05 0.0834778)
(3.53713e-05 3.27521e-05 0.100011)
(1.61445e-05 2.06952e-05 0.0946848)
(0.000100985 6.38787e-05 0.0999269)
(3.12716e-05 5.54214e-06 0.0834013)
(1.64001e-05 -1.99575e-06 0.0900427)
(7.01921e-05 4.51727e-05 0.0946127)
(1.24469e-05 -7.21268e-06 0.0834719)
(3.2797e-05 3.52763e-05 0.100007)
(8.84279e-06 8.70214e-06 0.085778)
(1.21985e-05 1.0362e-05 0.0695503)
(1.01564e-05 1.20589e-05 0.0695434)
(2.79699e-05 2.81049e-05 0.085724)
(-6.34591e-06 3.54949e-07 0.0696334)
(4.60692e-07 -6.59772e-06 0.0696263)
(4.42447e-05 6.91812e-05 0.0945374)
(-6.81549e-06 1.19074e-05 0.0834117)
(1.91614e-05 3.6287e-05 0.0898962)
(3.41481e-05 3.16384e-05 0.0999322)
(5.71291e-06 3.07716e-05 0.083341)
(1.99931e-05 1.52917e-05 0.0946094)
(6.27068e-05 9.96546e-05 0.0998527)
(6.91256e-05 4.41901e-05 0.0945289)
(1.18792e-05 -6.86338e-06 0.0834059)
(3.61926e-05 1.90466e-05 0.0898934)
(3.15779e-05 3.40364e-05 0.0999289)
(3.08238e-05 5.73994e-06 0.0833353)
(1.52472e-05 1.98815e-05 0.0946012)
(9.94921e-05 6.25661e-05 0.0998486)
(3.58852e-06 1.57802e-05 0.0723686)
(-5.97434e-06 -4.98049e-06 0.0724906)
(1.57769e-05 3.40341e-06 0.0723675)
(-4.88193e-06 -5.99172e-06 0.0724896)
(8.02578e-06 7.95935e-06 0.0856352)
(1.19421e-05 9.93592e-06 0.0694543)
(9.92469e-06 1.19641e-05 0.0694475)
(2.7018e-05 2.70438e-05 0.08558)
(-6.21287e-06 1.77996e-07 0.0695374)
(2.14305e-07 -6.31814e-06 0.0695304)
(4.2445e-05 6.71507e-05 0.0943759)
(3.18022e-05 2.94127e-05 0.0997772)
(1.86269e-05 3.50209e-05 0.0897436)
(-6.61423e-06 1.10131e-05 0.0832843)
(5.96485e-06 2.9876e-05 0.0832137)
(6.02454e-05 9.68043e-05 0.0996983)
(1.82618e-05 1.37416e-05 0.0944478)
(6.70937e-05 4.24014e-05 0.0943671)
(2.94111e-05 3.16813e-05 0.0997739)
(3.49572e-05 1.84955e-05 0.0897404)
(1.09889e-05 -6.69052e-06 0.0832785)
(2.99025e-05 5.9284e-06 0.0832075)
(9.66883e-05 6.01203e-05 0.0996939)
(1.37083e-05 1.81362e-05 0.0944397)
(1.91227e-05 1.44759e-05 0.0945276)
(5.90653e-06 3.03337e-05 0.0832766)
(6.14694e-05 9.82257e-05 0.0997752)
(-2.19047e-06 1.48711e-05 0.0898887)
(4.33452e-05 6.8181e-05 0.0944557)
(-6.67706e-06 1.14217e-05 0.0833473)
(3.29463e-05 3.04867e-05 0.0998543)
(1.45263e-05 1.8991e-05 0.0945195)
(3.03483e-05 5.84065e-06 0.0832705)
(9.81096e-05 6.13472e-05 0.0997708)
(1.49497e-05 -2.30377e-06 0.0898862)
(6.80954e-05 4.33144e-05 0.0944471)
(1.14803e-05 -6.80505e-06 0.0833415)
(3.0527e-05 3.28554e-05 0.099851)
(2.65475e-05 2.654e-05 0.0855112)
(-6.34778e-06 3.13542e-08 0.0694912)
(1.77033e-08 -6.31556e-06 0.0694842)
(1.18787e-05 9.77437e-06 0.0694084)
(9.8139e-06 1.18719e-05 0.0694015)
(7.5384e-06 7.53746e-06 0.0855666)
(9.01471e-07 1.33373e-05 0.0780376)
(-2.77515e-06 6.86488e-05 0.0946969)
(-3.08376e-07 -1.02766e-05 0.0799118)
(-4.23431e-06 1.39115e-05 0.0928147)
(-2.32218e-07 8.39103e-06 0.0798523)
(-6.54458e-06 5.91589e-05 0.0927534)
(-2.5119e-07 -6.17129e-06 0.0781078)
(-2.42913e-06 -6.73764e-06 0.0694228)
(-5.44473e-06 3.91442e-05 0.0880762)
(5.32638e-06 -6.54786e-07 0.0841518)
(-9.52522e-07 1.24517e-05 0.0693292)
(-3.85914e-06 3.607e-06 0.0881434)
(-2.86333e-08 -6.2544e-06 0.0781564)
(-2.27626e-06 2.2385e-05 0.094847)
(-1.18983e-07 8.16973e-06 0.079901)
(-6.71527e-06 6.06522e-05 0.0928434)
(-2.422e-07 -1.05116e-05 0.0799602)
(1.258e-06 1.32451e-05 0.0780864)
(-4.46111e-06 1.5208e-05 0.0929043)
(-1.10467e-06 1.24508e-05 0.0692859)
(-3.71426e-06 2.88164e-06 0.0880642)
(2.47065e-06 3.74836e-05 0.0840229)
(-5.4067e-06 3.83025e-05 0.0879964)
(-2.47559e-06 -6.7608e-06 0.0693794)
(4.22643e-07 -6.06951e-06 0.0780614)
(1.97247e-07 8.63315e-06 0.0798055)
(6.27161e-06 5.76828e-05 0.0926655)
(2.00071e-06 1.93538e-05 0.094656)
(-8.74227e-07 1.33853e-05 0.0779909)
(3.08121e-07 -1.00139e-05 0.0798653)
(4.0258e-06 1.26951e-05 0.0927284)
(1.03144e-06 1.21356e-05 0.0692007)
(-1.94355e-06 3.58932e-05 0.0838868)
(3.37753e-06 1.32311e-06 0.0879124)
(2.2326e-06 -7.23112e-06 0.069294)
(5.15389e-06 3.64722e-05 0.0878427)
(2.48686e-06 -6.74934e-06 0.0693355)
(5.25154e-06 3.73327e-05 0.087918)
(-4.98831e-06 -1.84198e-06 0.0840127)
(1.00356e-06 1.22008e-05 0.0692415)
(3.55938e-06 2.24155e-06 0.0879877)
(-7.10229e-07 1.34384e-05 0.0779449)
(2.4639e-06 6.52383e-05 0.0945095)
(3.32811e-07 -9.75262e-06 0.0798203)
(3.77303e-06 1.15149e-05 0.0926433)
(3.50521e-07 -6.05977e-06 0.0780154)
(2.38941e-07 8.8972e-06 0.0797603)
(6.04301e-06 5.62794e-05 0.09258)
(-4.35017e-07 -6.08879e-06 0.0780605)
(-2.8517e-07 8.63352e-06 0.0798054)
(-6.31507e-06 5.76932e-05 0.0926657)
(-2.01641e-06 1.93551e-05 0.0946557)
(7.38615e-07 1.33847e-05 0.0779903)
(-3.66165e-07 -1.00164e-05 0.0798652)
(-4.03295e-06 1.2698e-05 0.0927274)
(-1.17856e-06 1.21904e-05 0.0692027)
(2.07716e-06 3.59527e-05 0.0838864)
(-3.49299e-06 1.54243e-06 0.0879121)
(-5.15796e-06 3.65887e-05 0.0878435)
(-2.5391e-06 -6.92113e-06 0.0692956)
(-2.49619e-06 -6.85086e-06 0.0693369)
(-5.2649e-06 3.74106e-05 0.0879189)
(4.92931e-06 -1.83683e-06 0.084012)
(-1.10266e-06 1.2283e-05 0.0692438)
(-3.56182e-06 2.18079e-06 0.087987)
(5.21938e-07 1.34599e-05 0.0779444)
(-2.51368e-06 6.52397e-05 0.0945094)
(-4.30122e-07 -9.74708e-06 0.0798201)
(-3.85087e-06 1.15575e-05 0.0926423)
(-3.34472e-07 8.90086e-06 0.0797602)
(-6.13786e-06 5.63179e-05 0.0925803)
(-6.20609e-07 -5.99773e-06 0.0780146)
(-2.75677e-05 2.75265e-05 0.0856516)
(6.24557e-06 3.12045e-07 0.0695788)
(-4.39269e-07 -6.3578e-06 0.0695843)
(-1.20548e-05 1.00822e-05 0.0694957)
(-1.00479e-05 1.19859e-05 0.0695014)
(-8.52809e-06 8.37442e-06 0.0857057)
(-2.08912e-05 1.60833e-05 0.0946845)
(1.81655e-06 1.62997e-05 0.0900427)
(6.95299e-06 1.24141e-05 0.083472)
(-3.54389e-05 3.28219e-05 0.100007)
(-1.61772e-05 2.08354e-05 0.0946938)
(-1.63794e-05 -1.91273e-06 0.0900469)
(-3.28985e-05 3.53497e-05 0.100012)
(-1.24643e-05 -7.08504e-06 0.0834783)
(-9.01148e-06 8.85482e-06 0.0857781)
(6.22291e-06 4.82142e-07 0.0696271)
(-6.14071e-07 -6.35704e-06 0.0696327)
(-4.43127e-05 6.91692e-05 0.0945291)
(6.82808e-06 1.19506e-05 0.0834062)
(-1.91451e-05 3.62918e-05 0.089893)
(-3.41973e-05 3.16634e-05 0.0999283)
(-5.81854e-06 3.08166e-05 0.083335)
(-6.2662e-05 9.96092e-05 0.0998485)
(-1.99664e-05 1.52691e-05 0.094601)
(-6.92274e-05 4.42781e-05 0.0945382)
(-1.19869e-05 -6.96749e-06 0.0834124)
(-3.6251e-05 1.91465e-05 0.0898953)
(-3.17484e-05 3.41004e-05 0.0999337)
(-9.9566e-05 6.26815e-05 0.099853)
(-3.07627e-05 5.77233e-06 0.0833411)
(-1.53543e-05 1.99137e-05 0.0946101)
(4.63249e-06 -6.0046e-06 0.0725861)
(-1.61547e-05 3.42739e-06 0.0724577)
(-3.47812e-06 1.57881e-05 0.0723684)
(5.84753e-06 -4.9459e-06 0.0724903)
(-8.08463e-06 7.86125e-06 0.0856352)
(-1.19727e-05 9.94236e-06 0.0694485)
(-9.91276e-06 1.18927e-05 0.0694542)
(-2.70658e-05 2.70187e-05 0.0855808)
(6.28254e-06 9.48498e-08 0.0695315)
(-2.91168e-07 -6.37426e-06 0.069537)
(-4.24355e-05 6.70495e-05 0.0943672)
(-3.17567e-05 2.94065e-05 0.0997733)
(-1.85333e-05 3.50023e-05 0.0897404)
(6.72486e-06 1.10134e-05 0.0832791)
(-6.01273e-05 9.67432e-05 0.0996939)
(-5.93243e-06 2.98728e-05 0.0832071)
(-1.8174e-05 1.36317e-05 0.0944395)
(-6.71268e-05 4.2378e-05 0.0943765)
(-2.94862e-05 3.16895e-05 0.0997787)
(-3.49118e-05 1.85248e-05 0.0897423)
(-1.10301e-05 -6.77316e-06 0.083285)
(-2.98461e-05 5.89843e-06 0.0832134)
(-9.67136e-05 6.01632e-05 0.0996984)
(-1.3775e-05 1.81319e-05 0.0944485)
(-1.90687e-05 1.44434e-05 0.0945193)
(-5.88975e-06 3.03434e-05 0.0832703)
(-6.13936e-05 9.81641e-05 0.0997708)
(2.16852e-06 1.49626e-05 0.0898861)
(-3.29655e-05 3.0515e-05 0.0998504)
(-4.33631e-05 6.8106e-05 0.0944472)
(6.76956e-06 1.14714e-05 0.0833418)
(-1.45543e-05 1.89963e-05 0.0945283)
(-3.03118e-05 5.84934e-06 0.0832765)
(-9.81316e-05 6.1412e-05 0.0997753)
(-1.49957e-05 -2.2507e-06 0.0898908)