/*--------------------------------*- C++ -*----------------------------------*\
| =========                 |                                                 |
| \\      /  F ield         | OpenFOAM: The Open Source CFD Toolbox           |
|  \\    /   O peration     | Version:  2312                                  |
|   \\  /    A nd           | Website:  www.openfoam.com                      |
|    \\/     M anipulation  |                                                 |
\*---------------------------------------------------------------------------*/
FoamFile
{
    version     2.0;
    format      ascii;
    arch        "LSB;label=32;scalar=64";
    class       volScalarField;
    location    "200";
    object      k;
}
// * * * * * * * * * * * * * * * * * * * * * * * * * * * * * * * * * * * * * //

dimensions      [0 2 -2 0 0 0 0];

internalField   nonuniform List<scalar> 
172512
(
1.92564e-05
3.43508e-05
3.4346e-05
3.99155e-05
3.9757e-05
3.43196e-05
3.43609e-05
3.97972e-05
3.43246e-05
3.43575e-05
3.43506e-05
3.43671e-05
3.97338e-05
3.43467e-05
3.43604e-05
3.987e-05
3.97984e-05
3.43234e-05
3.43631e-05
3.9838e-05
3.43276e-05
3.43595e-05
3.43695e-05
3.97812e-05
3.4362e-05
7.08819e-05
6.41175e-05
7.08828e-05
1.92551e-05
1.92912e-05
1.92918e-05
1.9287e-05
6.90833e-05
3.43521e-05
5.92912e-05
6.4128e-05
7.08813e-05
6.41273e-05
7.08839e-05
6.9085e-05
6.90922e-05
6.41409e-05
7.08817e-05
6.41244e-05
7.08849e-05
1.92929e-05
1.92951e-05
1.92873e-05
5.19129e-05
5.92897e-05
2.67311e-05
3.43516e-05
5.19229e-05
5.92991e-05
2.67308e-05
6.90781e-05
6.90846e-05
5.19259e-05
2.67152e-05
5.92923e-05
3.43446e-05
5.1938e-05
2.67159e-05
5.92921e-05
6.63183e-05
6.63313e-05
3.98726e-05
6.63122e-05
6.63288e-05
6.9081e-05
6.90775e-05
3.97443e-05
6.62946e-05
6.63168e-05
6.90819e-05
6.90751e-05
6.9078e-05
6.90716e-05
3.97824e-05
6.63074e-05
6.6328e-05
6.63034e-05
6.63239e-05
3.43144e-05
5.92761e-05
6.41243e-05
7.08826e-05
7.08804e-05
6.41297e-05
6.41237e-05
7.08866e-05
7.08845e-05
6.41231e-05
5.19006e-05
3.43171e-05
5.92769e-05
2.67226e-05
5.92666e-05
2.67213e-05
5.18795e-05
5.19017e-05
3.43585e-05
5.93017e-05
2.67388e-05
5.92819e-05
2.67383e-05
5.19103e-05
6.90911e-05
6.90842e-05
3.98276e-05
6.63115e-05
6.63147e-05
6.63096e-05
6.9085e-05
5.18966e-05
3.4318e-05
5.92989e-05
2.67272e-05
6.41271e-05
7.08759e-05
5.1914e-05
3.43577e-05
2.67425e-05
5.92864e-05
6.41172e-05
7.08829e-05
7.08811e-05
6.41195e-05
5.18955e-05
3.43218e-05
5.93021e-05
2.67208e-05
5.93076e-05
2.67218e-05
5.1904e-05
6.41263e-05
7.08771e-05
7.08746e-05
6.41306e-05
5.19136e-05
3.43578e-05
2.67389e-05
5.9288e-05
2.67423e-05
5.92864e-05
5.19097e-05
5.92773e-05
2.67313e-05
5.19243e-05
7.08733e-05
6.41333e-05
2.67178e-05
5.92986e-05
5.19326e-05
7.08802e-05
6.41388e-05
3.97655e-05
6.63091e-05
6.63074e-05
6.908e-05
6.90839e-05
6.90773e-05
3.97787e-05
6.63122e-05
6.63123e-05
6.63062e-05
6.63171e-05
6.90803e-05
6.90741e-05
7.08789e-05
5.1908e-05
3.4348e-05
2.67162e-05
5.92931e-05
2.67173e-05
5.9292e-05
5.19328e-05
5.19204e-05
3.43602e-05
2.67108e-05
5.92994e-05
2.67129e-05
5.93031e-05
5.1926e-05
6.41335e-05
7.08794e-05
7.08776e-05
6.4152e-05
6.41245e-05
7.08804e-05
7.08779e-05
6.41377e-05
3.99139e-05
6.63105e-05
6.63311e-05
6.63365e-05
6.90854e-05
6.90862e-05
6.90797e-05
6.9076e-05
6.90827e-05
6.90718e-05
6.90782e-05
6.6313e-05
6.63259e-05
3.97729e-05
6.63152e-05
6.63215e-05
6.90766e-05
6.90722e-05
3.98149e-05
6.63133e-05
6.63236e-05
6.41185e-05
7.08851e-05
6.41198e-05
7.08867e-05
5.18738e-05
5.92755e-05
2.67254e-05
3.43275e-05
5.18724e-05
5.92781e-05
2.67281e-05
5.18932e-05
5.92933e-05
2.67405e-05
3.43651e-05
5.1897e-05
5.93048e-05
2.67422e-05
6.41264e-05
7.08828e-05
6.41062e-05
7.0885e-05
5.18769e-05
3.43295e-05
5.92883e-05
2.67295e-05
5.1889e-05
3.43663e-05
5.92936e-05
2.67425e-05
6.63188e-05
6.63192e-05
3.98108e-05
6.63229e-05
6.63232e-05
6.90793e-05
6.90866e-05
6.90859e-05
3.98518e-05
6.63254e-05
6.63238e-05
6.90806e-05
5.19096e-05
5.92889e-05
2.67243e-05
3.43304e-05
5.18809e-05
5.9314e-05
2.67244e-05
6.41445e-05
7.0876e-05
6.41246e-05
7.08793e-05
5.18926e-05
2.6738e-05
5.92825e-05
3.43578e-05
5.18893e-05
2.6738e-05
5.92915e-05
6.41381e-05
7.08841e-05
5.19166e-05
3.43324e-05
5.93151e-05
2.67235e-05
6.4135e-05
7.08784e-05
5.18983e-05
3.43547e-05
2.67365e-05
5.92926e-05
6.4115e-05
7.08726e-05
6.41278e-05
7.08768e-05
5.18974e-05
2.67189e-05
5.92963e-05
3.43698e-05
5.19218e-05
2.67194e-05
5.92959e-05
6.41469e-05
7.08785e-05
6.41297e-05
7.08797e-05
5.19141e-05
3.43522e-05
5.92976e-05
2.67299e-05
6.41077e-05
7.0876e-05
5.18907e-05
3.43693e-05
2.67185e-05
5.92986e-05
6.41444e-05
7.08783e-05
6.63158e-05
6.63185e-05
3.97495e-05
6.6318e-05
6.63108e-05
6.90742e-05
6.90798e-05
6.90786e-05
3.97958e-05
6.63162e-05
6.63114e-05
6.90734e-05
5.19174e-05
2.6713e-05
5.9301e-05
3.43647e-05
5.191e-05
2.67144e-05
5.93029e-05
6.41428e-05
7.08779e-05
6.4153e-05
7.08791e-05
6.4135e-05
7.08793e-05
6.41354e-05
7.08814e-05
5.19016e-05
3.43444e-05
2.67191e-05
5.92872e-05
5.19128e-05
3.43671e-05
2.67158e-05
5.9297e-05
6.41347e-05
7.08774e-05
6.41274e-05
7.088e-05
6.90794e-05
6.9086e-05
6.90802e-05
6.9087e-05
3.99167e-05
6.63196e-05
6.63268e-05
6.90801e-05
6.90812e-05
6.98297e-05
7.71056e-05
7.088e-05
7.71039e-05
6.98397e-05
6.97064e-05
6.41131e-05
6.76994e-05
6.93864e-05
6.77057e-05
6.93843e-05
6.97094e-05
6.98165e-05
7.70999e-05
7.08817e-05
7.70992e-05
6.98263e-05
6.90769e-05
6.97216e-05
6.41259e-05
6.94058e-05
6.77242e-05
6.94039e-05
6.77228e-05
6.97245e-05
6.98384e-05
7.71035e-05
7.08831e-05
6.98284e-05
7.71046e-05
6.97252e-05
6.41284e-05
6.94047e-05
6.7727e-05
6.97224e-05
6.94065e-05
6.77281e-05
6.9828e-05
7.71045e-05
7.08821e-05
7.71032e-05
6.98379e-05
6.90916e-05
6.90854e-05
6.97096e-05
6.41373e-05
6.77357e-05
6.9388e-05
6.77253e-05
6.93855e-05
6.97137e-05
6.98276e-05
7.71028e-05
7.08837e-05
6.98169e-05
7.71092e-05
6.9712e-05
6.4136e-05
6.77145e-05
6.93848e-05
6.9708e-05
6.77213e-05
6.93874e-05
6.98179e-05
7.71188e-05
7.08827e-05
7.71139e-05
6.98285e-05
6.90844e-05
6.90784e-05
9.18755e-05
7.16634e-05
7.16569e-05
7.16534e-05
7.16469e-05
9.18727e-05
6.92405e-05
5.81791e-05
7.06166e-05
6.63191e-05
6.92475e-05
5.81827e-05
7.06192e-05
6.92923e-05
5.81844e-05
7.06278e-05
6.63293e-05
6.93045e-05
5.81716e-05
7.06302e-05
9.18726e-05
7.16526e-05
7.16462e-05
9.18746e-05
7.16625e-05
7.16561e-05
6.92541e-05
7.062e-05
6.63173e-05
5.81729e-05
5.81838e-05
7.06173e-05
6.92562e-05
6.92989e-05
7.06307e-05
6.63303e-05
5.81684e-05
5.8167e-05
7.06281e-05
6.92954e-05
6.90747e-05
6.90714e-05
9.18786e-05
7.16472e-05
7.16383e-05
7.16373e-05
7.16284e-05
9.18776e-05
6.92386e-05
7.06021e-05
6.6299e-05
5.81379e-05
7.05993e-05
6.92317e-05
5.81183e-05
6.92772e-05
7.06098e-05
6.63166e-05
5.81408e-05
7.06069e-05
6.92873e-05
5.81517e-05
6.90755e-05
6.90814e-05
6.90718e-05
6.90779e-05
9.18783e-05
7.16376e-05
7.16289e-05
9.18809e-05
7.16474e-05
7.16387e-05
6.92485e-05
5.81195e-05
6.6307e-05
7.06039e-05
7.06012e-05
5.81279e-05
6.92479e-05
6.92921e-05
5.81776e-05
6.63295e-05
7.06119e-05
7.06092e-05
5.81711e-05
6.92861e-05
6.92458e-05
7.06003e-05
5.814e-05
6.63041e-05
6.92449e-05
7.06031e-05
5.81371e-05
6.9293e-05
7.0608e-05
5.81604e-05
6.63263e-05
6.92881e-05
7.0611e-05
5.81711e-05
9.18801e-05
7.16471e-05
7.16387e-05
7.16376e-05
7.16291e-05
9.18767e-05
6.97273e-05
6.94052e-05
6.77359e-05
6.41295e-05
6.97247e-05
6.94075e-05
6.77358e-05
6.98289e-05
7.08809e-05
7.71051e-05
6.98388e-05
7.71039e-05
6.98393e-05
7.71042e-05
7.08821e-05
6.98293e-05
7.71056e-05
6.97235e-05
6.41281e-05
6.94072e-05
6.77313e-05
6.97261e-05
6.94052e-05
6.77309e-05
6.97282e-05
6.94021e-05
6.77481e-05
6.41249e-05
6.97251e-05
6.94038e-05
6.77509e-05
6.98284e-05
7.08848e-05
7.70969e-05
7.70945e-05
6.98386e-05
6.98384e-05
7.70932e-05
7.0886e-05
6.98282e-05
7.70953e-05
6.97249e-05
6.41222e-05
6.94032e-05
6.77522e-05
6.94012e-05
6.77489e-05
6.9728e-05
6.90845e-05
6.90908e-05
6.92818e-05
5.81476e-05
6.63158e-05
7.06266e-05
5.81554e-05
7.06238e-05
6.92812e-05
6.92243e-05
5.81638e-05
6.6316e-05
7.0615e-05
7.0612e-05
5.81372e-05
6.92296e-05
5.81265e-05
6.63148e-05
5.81542e-05
9.18641e-05
7.16563e-05
7.16627e-05
7.16461e-05
7.16521e-05
9.1863e-05
6.90784e-05
6.97049e-05
6.41238e-05
6.93891e-05
6.7704e-05
6.93871e-05
6.7699e-05
6.97084e-05
6.98103e-05
7.70562e-05
7.08742e-05
7.70558e-05
6.98205e-05
6.97095e-05
6.76997e-05
6.93841e-05
6.41215e-05
6.97061e-05
6.77006e-05
6.93864e-05
6.98162e-05
7.08813e-05
7.71017e-05
6.98266e-05
7.70997e-05
6.98261e-05
7.70984e-05
7.08827e-05
6.9816e-05
7.70975e-05
6.97067e-05
6.41212e-05
6.77065e-05
6.93867e-05
6.97105e-05
6.77002e-05
6.93843e-05
6.97089e-05
6.93866e-05
6.77029e-05
6.413e-05
6.97053e-05
6.93887e-05
6.77247e-05
6.98116e-05
7.08753e-05
7.7066e-05
7.70626e-05
6.98223e-05
6.98212e-05
7.70551e-05
7.08764e-05
6.98107e-05
7.70582e-05
6.97059e-05
6.41276e-05
6.93885e-05
6.77329e-05
6.93864e-05
6.77273e-05
6.9709e-05
6.98051e-05
7.08711e-05
7.70691e-05
7.70709e-05
6.98164e-05
6.96964e-05
6.41307e-05
6.77124e-05
6.93801e-05
6.77057e-05
6.93775e-05
6.97004e-05
6.9812e-05
7.08789e-05
7.70963e-05
7.70959e-05
6.98219e-05
6.96994e-05
6.41351e-05
6.93808e-05
6.77417e-05
6.93783e-05
6.77401e-05
6.97026e-05
9.18704e-05
7.16549e-05
7.16616e-05
7.16453e-05
7.16519e-05
9.18684e-05
6.9264e-05
7.0621e-05
6.63071e-05
5.81579e-05
7.06187e-05
5.81539e-05
6.92515e-05
6.9235e-05
7.06143e-05
6.6312e-05
5.81302e-05
5.81332e-05
7.06114e-05
6.92384e-05
6.90737e-05
6.90777e-05
6.90836e-05
9.18696e-05
7.16454e-05
7.16519e-05
9.18713e-05
7.1655e-05
7.16615e-05
6.92637e-05
5.81543e-05
6.6314e-05
7.06215e-05
5.81545e-05
7.06191e-05
6.92603e-05
6.92295e-05
5.81663e-05
6.63173e-05
7.06154e-05
7.06129e-05
5.81636e-05
6.92373e-05
6.92624e-05
7.06187e-05
5.81564e-05
6.63119e-05
5.8142e-05
6.92603e-05
7.06212e-05
6.92357e-05
7.06124e-05
5.8155e-05
6.63128e-05
6.92407e-05
7.0615e-05
5.81588e-05
9.18726e-05
7.16551e-05
7.16614e-05
7.16455e-05
7.16518e-05
9.18709e-05
6.90742e-05
6.90803e-05
7.08773e-05
6.96972e-05
6.77548e-05
6.93702e-05
6.41345e-05
6.96941e-05
6.77573e-05
6.93731e-05
6.98119e-05
7.08778e-05
7.71213e-05
7.71201e-05
6.9822e-05
6.9822e-05
7.71199e-05
7.08791e-05
6.98119e-05
7.71214e-05
6.96939e-05
6.41439e-05
6.77564e-05
6.93743e-05
6.7754e-05
6.93715e-05
6.96971e-05
6.96996e-05
6.77356e-05
6.93681e-05
6.41288e-05
6.96956e-05
6.77463e-05
6.93711e-05
6.9812e-05
7.08786e-05
7.71051e-05
7.71029e-05
6.98224e-05
6.98219e-05
7.70987e-05
7.08798e-05
6.98112e-05
7.71027e-05
6.96967e-05
6.41226e-05
6.77543e-05
6.9372e-05
6.77486e-05
6.93691e-05
6.97003e-05
9.18668e-05
7.16617e-05
7.1655e-05
6.92454e-05
5.81858e-05
6.63159e-05
7.06187e-05
6.92478e-05
5.81885e-05
7.06163e-05
6.93061e-05
5.8188e-05
6.63334e-05
7.06299e-05
6.93093e-05
5.81703e-05
7.06274e-05
6.92331e-05
6.63193e-05
5.81953e-05
7.06186e-05
6.93079e-05
5.81856e-05
6.63326e-05
5.81844e-05
7.06294e-05
9.18716e-05
7.16619e-05
7.16554e-05
9.18712e-05
7.16522e-05
7.16456e-05
6.90795e-05
6.90859e-05
6.90799e-05
6.90859e-05
6.90824e-05
6.90764e-05
6.90779e-05
6.90719e-05
9.1876e-05
7.1646e-05
7.16382e-05
7.16365e-05
7.16286e-05
9.18735e-05
6.92448e-05
5.81436e-05
7.06018e-05
6.6315e-05
6.92496e-05
7.06043e-05
5.81484e-05
6.9293e-05
5.8168e-05
7.06096e-05
6.63206e-05
6.92808e-05
7.06122e-05
5.81477e-05
9.18745e-05
7.16371e-05
7.16289e-05
9.18776e-05
7.16465e-05
7.16384e-05
6.92371e-05
7.06045e-05
6.63167e-05
5.81648e-05
7.0602e-05
6.92354e-05
5.8141e-05
6.9293e-05
7.06126e-05
6.63266e-05
5.81462e-05
7.06101e-05
6.92921e-05
5.81523e-05
6.9083e-05
6.90786e-05
9.18739e-05
7.16361e-05
7.16285e-05
9.18757e-05
7.16457e-05
7.16383e-05
6.92449e-05
7.06021e-05
5.81691e-05
6.63209e-05
6.92316e-05
7.06049e-05
5.81746e-05
6.92953e-05
7.06104e-05
5.81671e-05
6.63216e-05
6.9295e-05
7.0613e-05
5.81797e-05
6.97246e-05
6.41171e-05
6.94024e-05
6.77527e-05
6.94002e-05
6.77499e-05
6.97277e-05
6.98388e-05
7.70961e-05
7.08867e-05
6.98286e-05
7.70982e-05
6.97279e-05
6.41206e-05
6.94006e-05
6.77495e-05
6.94026e-05
6.97247e-05
6.77526e-05
6.98287e-05
7.70991e-05
7.08853e-05
7.70972e-05
6.98388e-05
6.9724e-05
6.94032e-05
6.77166e-05
6.4129e-05
6.9721e-05
6.94052e-05
6.77181e-05
6.98376e-05
7.71035e-05
7.08848e-05
6.98276e-05
7.7105e-05
6.97275e-05
6.94e-05
6.77498e-05
6.41169e-05
6.97244e-05
6.94024e-05
6.77529e-05
6.98387e-05
7.7098e-05
7.08864e-05
6.98286e-05
7.71001e-05
9.18591e-05
7.16574e-05
7.16632e-05
7.16477e-05
7.16536e-05
9.18561e-05
6.92822e-05
5.81345e-05
7.06248e-05
6.63181e-05
7.06276e-05
6.92853e-05
5.81551e-05
6.92259e-05
5.81635e-05
7.06133e-05
6.63206e-05
5.81681e-05
6.92331e-05
7.06161e-05
9.18611e-05
7.16472e-05
7.16534e-05
7.16572e-05
9.18664e-05
7.16632e-05
6.92836e-05
7.06285e-05
6.63168e-05
5.81663e-05
7.06257e-05
5.81555e-05
6.92833e-05
6.9221e-05
7.06169e-05
6.63228e-05
5.81713e-05
5.81698e-05
7.06142e-05
6.92136e-05
6.90859e-05
6.90801e-05
6.90925e-05
9.18584e-05
7.1648e-05
7.16537e-05
9.18594e-05
7.16579e-05
7.16635e-05
6.92865e-05
7.06266e-05
5.81711e-05
6.63233e-05
5.81673e-05
6.92862e-05
7.06293e-05
6.92267e-05
7.0615e-05
5.81516e-05
6.63163e-05
6.92262e-05
7.06177e-05
5.81601e-05
6.90869e-05
6.97047e-05
6.41381e-05
6.93887e-05
6.77343e-05
6.93864e-05
6.77315e-05
6.97074e-05
6.98235e-05
7.70676e-05
7.08779e-05
6.98128e-05
7.70736e-05
6.97083e-05
6.4128e-05
6.93862e-05
6.77315e-05
6.93885e-05
6.97055e-05
6.77341e-05
6.98139e-05
7.70815e-05
7.08771e-05
7.70785e-05
6.98246e-05
6.97153e-05
6.7745e-05
6.9386e-05
6.4146e-05
6.97113e-05
6.77529e-05
6.93885e-05
6.98291e-05
7.71193e-05
7.08863e-05
6.98186e-05
7.71296e-05
6.97066e-05
6.93864e-05
6.77313e-05
6.41429e-05
6.97037e-05
6.93886e-05
6.77339e-05
6.98254e-05
7.70855e-05
7.08804e-05
6.98149e-05
7.70892e-05
6.96979e-05
6.41128e-05
6.77339e-05
6.93794e-05
6.773e-05
6.93773e-05
6.97014e-05
6.98179e-05
7.70721e-05
7.0875e-05
7.70801e-05
6.98062e-05
6.97012e-05
6.41267e-05
6.77227e-05
6.93778e-05
6.77292e-05
6.96974e-05
6.938e-05
6.98076e-05
7.70862e-05
7.08744e-05
7.70816e-05
6.98191e-05
6.96994e-05
6.41432e-05
6.93819e-05
6.77297e-05
6.93795e-05
6.77282e-05
6.97027e-05
6.98213e-05
7.70907e-05
7.08799e-05
6.98114e-05
7.70931e-05
6.97025e-05
6.41424e-05
6.93788e-05
6.77299e-05
6.96993e-05
6.93814e-05
6.77341e-05
6.98109e-05
7.70904e-05
7.08782e-05
7.70902e-05
6.98208e-05
6.97013e-05
6.77325e-05
6.93767e-05
6.41219e-05
6.96979e-05
6.77347e-05
6.93789e-05
6.98194e-05
7.70845e-05
7.08779e-05
6.98085e-05
7.70846e-05
6.97034e-05
6.93797e-05
6.7736e-05
6.41457e-05
6.96999e-05
6.93819e-05
6.7745e-05
6.98205e-05
7.70881e-05
7.08799e-05
6.98104e-05
7.70887e-05
9.18747e-05
7.16554e-05
7.16611e-05
7.16457e-05
7.16516e-05
9.18725e-05
6.9273e-05
5.814e-05
7.06196e-05
6.63169e-05
7.06222e-05
6.92725e-05
5.81626e-05
6.92365e-05
5.81706e-05
7.06133e-05
6.63193e-05
5.81625e-05
6.92431e-05
7.06157e-05
9.18722e-05
7.16456e-05
7.16517e-05
7.16552e-05
9.1874e-05
7.16612e-05
6.92702e-05
7.06229e-05
6.63186e-05
5.81566e-05
7.06202e-05
5.8157e-05
6.92824e-05
6.9224e-05
7.06151e-05
6.63116e-05
5.81266e-05
5.8145e-05
7.06131e-05
6.92287e-05
6.90804e-05
6.9074e-05
6.90848e-05
9.18723e-05
7.16459e-05
7.16514e-05
9.18749e-05
7.16556e-05
7.16608e-05
6.92771e-05
7.06208e-05
5.81467e-05
6.63104e-05
5.81372e-05
6.92764e-05
7.06232e-05
6.92196e-05
7.06123e-05
5.81334e-05
6.63075e-05
6.92271e-05
7.06141e-05
5.81271e-05
6.90791e-05
6.96939e-05
6.41446e-05
6.77468e-05
6.93746e-05
6.77419e-05
6.93724e-05
6.96972e-05
6.98219e-05
7.71199e-05
7.08792e-05
7.71211e-05
6.98118e-05
6.96972e-05
6.41556e-05
6.77529e-05
6.93723e-05
6.77543e-05
6.96939e-05
6.93748e-05
6.98118e-05
7.71207e-05
7.08777e-05
7.71196e-05
6.98218e-05
6.96962e-05
6.41342e-05
6.77519e-05
6.93729e-05
6.77513e-05
6.93703e-05
6.9699e-05
6.98224e-05
7.71045e-05
7.08809e-05
6.98122e-05
7.71061e-05
6.97e-05
6.4137e-05
6.77534e-05
6.93699e-05
6.96969e-05
6.77559e-05
6.93726e-05
6.98121e-05
7.71044e-05
7.08797e-05
7.71039e-05
6.98221e-05
6.96975e-05
6.77419e-05
6.93721e-05
6.41394e-05
6.96941e-05
6.77426e-05
6.93744e-05
6.98216e-05
7.7119e-05
7.08786e-05
6.98116e-05
7.71197e-05
6.96977e-05
6.77459e-05
6.93706e-05
6.41404e-05
6.9695e-05
6.77457e-05
6.93733e-05
6.98216e-05
7.71018e-05
7.08818e-05
6.98116e-05
7.7102e-05
6.90857e-05
6.90797e-05
6.90865e-05
6.90806e-05
9.18802e-05
7.16545e-05
7.16479e-05
9.18769e-05
7.16648e-05
7.16582e-05
6.92594e-05
7.06182e-05
5.81794e-05
6.63251e-05
6.92587e-05
5.8192e-05
7.06211e-05
6.93095e-05
7.06288e-05
5.81762e-05
6.63342e-05
6.93086e-05
5.81762e-05
7.06316e-05
6.90866e-05
6.90878e-05
1.92538e-05
1.38424e-05
1.38404e-05
1.38406e-05
1.92542e-05
1.38406e-05
1.38401e-05
1.01971e-05
1.01973e-05
5.82861e-05
4.89319e-05
4.8972e-05
3.98719e-05
5.83065e-05
4.89089e-05
4.89594e-05
5.82718e-05
3.97899e-05
4.88696e-05
4.88773e-05
4.8878e-05
4.88855e-05
5.82691e-05
5.82913e-05
3.98307e-05
4.8882e-05
4.88941e-05
4.88909e-05
4.89035e-05
5.82557e-05
5.82891e-05
3.9772e-05
4.8872e-05
4.88311e-05
4.88835e-05
4.88485e-05
5.8273e-05
5.8302e-05
3.99143e-05
4.89006e-05
4.89492e-05
5.83071e-05
4.89296e-05
4.89735e-05
5.82562e-05
4.88806e-05
4.88952e-05
3.97649e-05
5.82697e-05
4.8874e-05
4.88858e-05
5.82664e-05
4.88983e-05
4.89105e-05
3.9804e-05
4.89008e-05
5.82708e-05
4.88897e-05
5.82424e-05
4.88868e-05
4.8843e-05
3.97423e-05
4.88324e-05
5.82476e-05
4.88755e-05
1.92953e-05
1.38551e-05
1.9254e-05
1.38402e-05
1.38408e-05
1.38402e-05
1.38411e-05
1.01977e-05
1.01974e-05
1.92888e-05
1.38538e-05
1.38512e-05
1.38538e-05
1.38515e-05
1.02012e-05
1.02011e-05
1.92919e-05
1.38559e-05
1.38451e-05
1.38562e-05
1.38465e-05
1.02004e-05
1.02004e-05
1.92883e-05
1.38481e-05
1.38409e-05
1.38491e-05
1.38418e-05
1.01998e-05
1.01994e-05
5.92839e-05
5.11066e-05
5.11141e-05
1.38538e-05
1.38512e-05
1.92934e-05
1.38543e-05
1.38509e-05
1.02008e-05
1.02009e-05
1.38549e-05
1.38437e-05
1.9295e-05
1.38535e-05
1.38431e-05
1.01996e-05
1.01997e-05
1.38478e-05
1.38409e-05
1.92876e-05
1.38474e-05
1.38402e-05
1.01988e-05
1.0199e-05
1.92597e-05
1.38416e-05
1.38406e-05
1.01971e-05
1.92936e-05
1.38544e-05
1.38502e-05
1.02008e-05
1.92934e-05
1.38518e-05
1.38417e-05
1.01993e-05
1.92869e-05
1.38461e-05
1.38382e-05
1.01982e-05
4.39192e-05
5.18984e-05
5.43809e-05
4.17574e-05
5.43712e-05
4.17758e-05
4.38833e-05
4.64022e-05
5.11281e-05
5.74251e-05
5.92892e-05
4.64232e-05
5.11211e-05
5.74334e-05
4.38821e-05
5.19252e-05
5.43591e-05
4.1753e-05
4.39085e-05
5.43534e-05
4.1739e-05
4.64314e-05
5.74281e-05
5.92822e-05
5.11243e-05
5.11309e-05
5.74222e-05
4.64007e-05
4.39321e-05
5.19152e-05
4.18725e-05
5.43995e-05
4.18931e-05
5.43966e-05
4.39027e-05
4.63593e-05
5.1119e-05
5.74299e-05
5.9281e-05
4.63771e-05
5.11115e-05
5.74358e-05
4.38984e-05
5.19437e-05
4.18894e-05
5.43885e-05
4.39242e-05
4.18691e-05
5.43974e-05
4.63906e-05
5.74356e-05
5.92889e-05
5.11117e-05
5.11197e-05
5.74323e-05
4.63723e-05
5.83081e-05
3.99167e-05
4.89264e-05
4.89638e-05
4.89339e-05
4.89743e-05
5.8305e-05
5.82769e-05
3.97974e-05
4.8854e-05
4.88576e-05
5.82801e-05
4.88649e-05
4.88689e-05
5.82658e-05
3.97497e-05
4.88688e-05
4.8874e-05
5.82641e-05
4.88607e-05
4.88662e-05
4.6384e-05
5.74214e-05
5.92728e-05
5.10938e-05
5.7401e-05
5.10991e-05
4.63545e-05
4.38235e-05
5.43529e-05
4.18644e-05
5.18854e-05
4.38817e-05
5.43532e-05
4.1822e-05
4.64029e-05
5.11078e-05
5.92755e-05
5.74236e-05
5.11134e-05
5.74159e-05
4.63799e-05
4.63708e-05
5.74265e-05
5.11055e-05
5.92754e-05
5.11006e-05
4.63925e-05
5.74315e-05
4.3891e-05
5.18672e-05
5.43173e-05
4.18409e-05
5.43395e-05
4.18633e-05
4.38476e-05
4.38715e-05
5.43387e-05
4.18233e-05
5.19078e-05
4.39075e-05
5.43398e-05
4.17945e-05
4.64185e-05
5.11118e-05
5.92955e-05
5.74415e-05
5.74176e-05
5.11177e-05
4.63985e-05
4.63899e-05
5.74247e-05
5.11128e-05
5.92766e-05
4.64097e-05
5.74273e-05
5.11068e-05
4.39203e-05
5.19072e-05
5.43802e-05
4.18209e-05
5.43659e-05
4.18386e-05
4.38832e-05
3.97913e-05
4.88857e-05
4.88745e-05
4.39219e-05
5.18896e-05
5.43481e-05
4.18402e-05
5.43205e-05
4.18736e-05
4.38368e-05
4.64382e-05
5.74257e-05
5.93097e-05
5.11178e-05
5.74424e-05
5.11232e-05
4.64214e-05
4.38841e-05
5.19097e-05
4.18317e-05
5.43719e-05
4.18701e-05
5.43617e-05
4.3837e-05
4.63748e-05
5.73955e-05
5.9283e-05
5.10948e-05
5.73971e-05
4.63552e-05
5.11011e-05
4.37735e-05
5.43283e-05
4.18643e-05
5.19024e-05
4.38129e-05
5.43419e-05
4.18392e-05
4.64029e-05
5.11321e-05
5.93078e-05
5.74426e-05
5.11377e-05
5.74394e-05
4.63864e-05
4.63787e-05
5.74352e-05
5.11299e-05
5.93114e-05
5.1125e-05
4.64055e-05
5.74221e-05
4.38117e-05
5.18976e-05
5.43588e-05
4.18367e-05
5.43525e-05
4.18627e-05
4.37796e-05
4.38547e-05
4.18668e-05
5.43724e-05
5.19178e-05
4.38851e-05
4.18381e-05
5.43776e-05
4.63634e-05
5.11002e-05
5.92879e-05
5.73977e-05
5.7404e-05
5.11071e-05
4.63409e-05
4.63769e-05
5.73821e-05
5.11042e-05
5.92877e-05
4.63879e-05
5.74041e-05
5.10979e-05
4.39034e-05
5.19134e-05
4.18455e-05
5.43648e-05
4.18659e-05
5.43662e-05
4.38583e-05
4.64215e-05
5.11167e-05
5.92831e-05
5.74071e-05
4.64037e-05
5.1122e-05
5.74148e-05
4.39088e-05
5.19085e-05
5.43322e-05
4.17161e-05
4.3874e-05
5.43288e-05
4.17373e-05
4.6382e-05
5.11273e-05
5.93081e-05
5.74263e-05
5.74338e-05
5.11359e-05
4.63612e-05
4.381e-05
5.19306e-05
4.17367e-05
5.43562e-05
4.17629e-05
5.43529e-05
4.37868e-05
5.82642e-05
3.98378e-05
4.89134e-05
4.89117e-05
4.89261e-05
4.89224e-05
5.82701e-05
5.82795e-05
3.97325e-05
4.88848e-05
4.89236e-05
4.88709e-05
5.82806e-05
4.89059e-05
4.38593e-05
4.18829e-05
5.43583e-05
5.19e-05
4.39297e-05
4.18607e-05
5.43654e-05
4.63622e-05
5.11102e-05
5.92946e-05
5.74345e-05
4.63454e-05
5.11174e-05
5.74326e-05
4.63295e-05
5.74118e-05
5.11152e-05
5.92823e-05
4.63469e-05
5.11082e-05
5.74331e-05
4.39232e-05
5.19112e-05
4.18646e-05
5.43829e-05
4.38907e-05
4.18852e-05
5.43507e-05
4.38223e-05
4.18718e-05
5.4348e-05
5.19244e-05
4.38588e-05
4.18383e-05
5.43483e-05
4.63652e-05
5.11271e-05
5.9286e-05
5.74017e-05
5.73928e-05
5.11346e-05
4.63478e-05
4.63391e-05
5.74038e-05
5.11349e-05
5.92972e-05
4.63624e-05
5.74085e-05
5.11269e-05
4.38673e-05
5.19235e-05
4.18383e-05
5.43623e-05
4.18704e-05
5.43576e-05
4.38388e-05
5.83023e-05
3.98692e-05
4.89717e-05
4.89167e-05
4.89551e-05
5.82859e-05
3.9807e-05
4.88375e-05
4.88942e-05
5.82896e-05
4.88475e-05
4.89031e-05
5.82486e-05
3.9781e-05
4.8855e-05
4.89102e-05
5.82753e-05
4.88473e-05
4.8901e-05
4.39043e-05
5.18406e-05
5.434e-05
4.18503e-05
5.43084e-05
4.18724e-05
4.38534e-05
4.63899e-05
5.11194e-05
5.74209e-05
5.9284e-05
5.74269e-05
4.6409e-05
5.11141e-05
4.38677e-05
5.186e-05
5.43289e-05
4.1866e-05
5.43242e-05
4.38995e-05
4.18452e-05
4.64162e-05
5.74233e-05
5.92865e-05
5.11212e-05
5.74271e-05
5.11265e-05
4.63973e-05
4.39181e-05
5.18905e-05
5.43931e-05
4.18401e-05
5.43892e-05
4.18612e-05
4.38799e-05
4.6403e-05
5.11207e-05
5.74423e-05
5.93065e-05
4.64288e-05
5.74468e-05
5.11148e-05
4.38605e-05
5.18952e-05
5.43839e-05
4.18495e-05
4.39276e-05
5.43902e-05
4.18309e-05
4.64319e-05
5.74405e-05
5.93094e-05
5.11187e-05
5.7431e-05
4.64118e-05
5.11249e-05
4.38802e-05
5.43225e-05
4.1879e-05
5.18828e-05
4.39093e-05
5.43429e-05
4.18569e-05
4.63992e-05
5.74408e-05
5.11332e-05
5.93004e-05
5.11279e-05
4.6422e-05
5.74329e-05
4.38118e-05
5.43887e-05
4.18657e-05
5.18919e-05
4.3885e-05
5.43895e-05
4.18455e-05
4.64123e-05
5.74318e-05
5.11279e-05
5.93062e-05
4.64323e-05
5.74569e-05
5.11215e-05
5.82776e-05
3.98451e-05
4.88968e-05
4.89063e-05
4.89162e-05
4.89059e-05
5.82813e-05
5.82673e-05
3.98181e-05
4.89129e-05
4.89204e-05
4.89032e-05
5.82821e-05
4.89097e-05
4.38369e-05
5.18757e-05
5.43877e-05
4.18348e-05
5.43738e-05
4.18656e-05
4.38087e-05
4.63498e-05
5.11409e-05
5.74344e-05
5.93078e-05
5.74544e-05
4.63711e-05
5.11337e-05
4.37903e-05
5.18921e-05
5.43515e-05
4.18601e-05
5.43498e-05
4.38214e-05
4.1835e-05
4.63373e-05
5.7464e-05
5.92983e-05
5.11344e-05
5.74547e-05
5.11418e-05
4.63152e-05
4.39111e-05
5.18868e-05
4.18539e-05
5.43701e-05
4.18816e-05
5.43585e-05
4.38802e-05
4.63493e-05
5.11086e-05
5.73898e-05
5.92753e-05
4.63676e-05
5.74146e-05
5.11023e-05
4.38523e-05
5.191e-05
4.18729e-05
5.43531e-05
4.39165e-05
4.18468e-05
5.4342e-05
4.63804e-05
5.74195e-05
5.92887e-05
5.11056e-05
5.74039e-05
4.63627e-05
5.11119e-05
4.38303e-05
5.43923e-05
4.18732e-05
5.19253e-05
4.38578e-05
5.43988e-05
4.18438e-05
4.63384e-05
5.74474e-05
5.11432e-05
5.93223e-05
5.1137e-05
4.63467e-05
5.74542e-05
4.38922e-05
4.18882e-05
5.43726e-05
5.18976e-05
4.39164e-05
4.18582e-05
5.43794e-05
4.63718e-05
5.74136e-05
5.11146e-05
5.92928e-05
4.63921e-05
5.74412e-05
5.11081e-05
4.38493e-05
5.18897e-05
4.17738e-05
5.43779e-05
4.1794e-05
5.43657e-05
4.38215e-05
4.6368e-05
5.11346e-05
5.7446e-05
5.9293e-05
5.11266e-05
4.63904e-05
5.74473e-05
4.38026e-05
5.19196e-05
4.17753e-05
5.43476e-05
4.1757e-05
4.38293e-05
5.43435e-05
4.64e-05
5.74565e-05
5.92823e-05
5.11267e-05
5.11345e-05
5.74363e-05
4.63774e-05
4.38365e-05
5.43727e-05
4.17989e-05
5.19182e-05
4.38778e-05
5.43765e-05
4.17813e-05
4.64072e-05
5.74167e-05
5.11332e-05
5.93e-05
4.64348e-05
5.1126e-05
5.74364e-05
4.38365e-05
4.1809e-05
5.43805e-05
5.1886e-05
4.38653e-05
4.17773e-05
5.43857e-05
4.63878e-05
5.74592e-05
5.11351e-05
5.92984e-05
4.64081e-05
5.74614e-05
5.11282e-05
5.82376e-05
3.97905e-05
4.88788e-05
4.88344e-05
4.88446e-05
4.8889e-05
5.82227e-05
5.825e-05
3.9753e-05
4.88912e-05
4.88512e-05
4.88767e-05
5.82488e-05
4.88419e-05
4.39034e-05
5.18905e-05
4.18503e-05
5.43907e-05
4.18714e-05
5.43779e-05
4.38763e-05
4.6364e-05
5.11356e-05
5.73933e-05
5.92917e-05
5.11282e-05
4.63809e-05
5.74171e-05
4.38573e-05
5.19102e-05
4.1874e-05
5.4355e-05
4.18439e-05
4.38845e-05
5.43538e-05
4.63989e-05
5.74207e-05
5.9301e-05
5.11307e-05
5.11373e-05
5.74068e-05
4.6382e-05
4.39062e-05
4.18939e-05
5.43864e-05
5.19154e-05
4.39337e-05
4.1872e-05
5.43873e-05
4.63826e-05
5.74298e-05
5.11194e-05
5.92874e-05
4.64013e-05
5.11116e-05
5.74118e-05
4.38939e-05
4.18781e-05
5.43946e-05
5.1916e-05
4.39213e-05
4.18576e-05
5.44019e-05
4.6398e-05
5.74358e-05
5.11403e-05
5.93165e-05
4.64159e-05
5.74414e-05
5.11344e-05
5.83122e-05
3.9878e-05
4.89178e-05
4.89776e-05
5.83119e-05
4.88741e-05
4.89669e-05
1.92549e-05
3.43476e-05
3.43392e-05
3.99164e-05
1.92589e-05
3.43447e-05
3.43378e-05
3.98473e-05
1.92598e-05
3.43429e-05
3.4339e-05
3.98665e-05
1.92643e-05
3.43391e-05
3.4344e-05
3.98344e-05
1.92626e-05
3.43366e-05
3.43399e-05
3.9732e-05
1.92579e-05
3.43298e-05
3.43379e-05
3.97258e-05
1.92542e-05
3.43241e-05
3.43296e-05
3.97897e-05
1.92533e-05
3.43173e-05
3.43145e-05
3.97355e-05
1.92531e-05
3.43095e-05
3.4303e-05
3.97736e-05
1.92546e-05
3.43074e-05
3.42957e-05
3.97004e-05
1.9256e-05
3.43078e-05
3.42895e-05
3.97639e-05
1.92566e-05
3.43048e-05
3.42839e-05
3.97569e-05
1.92567e-05
3.43031e-05
3.42828e-05
3.97536e-05
1.92565e-05
3.43017e-05
3.42819e-05
3.97342e-05
1.9256e-05
3.43001e-05
3.42841e-05
3.97781e-05
1.92564e-05
3.42994e-05
3.42871e-05
3.98048e-05
1.92581e-05
3.43021e-05
3.42908e-05
3.97359e-05
1.92615e-05
3.43081e-05
3.42955e-05
3.96682e-05
1.92349e-05
3.43114e-05
3.42999e-05
3.9637e-05
2.05132e-05
3.18506e-05
3.18357e-05
3.86133e-05
3.97894e-05
3.43343e-05
3.43686e-05
3.98245e-05
3.4336e-05
3.43534e-05
3.43509e-05
3.43692e-05
3.97589e-05
3.43429e-05
3.43697e-05
3.98808e-05
3.98311e-05
3.97582e-05
3.43358e-05
3.43702e-05
3.4346e-05
3.43774e-05
3.98642e-05
3.98373e-05
3.4338e-05
3.43498e-05
3.43423e-05
3.43463e-05
3.43681e-05
3.43449e-05
3.43637e-05
3.97982e-05
3.97803e-05
3.43715e-05
3.43378e-05
3.43724e-05
3.98061e-05
3.97569e-05
3.97303e-05
3.43504e-05
3.43791e-05
3.43556e-05
3.43832e-05
3.98822e-05
3.97739e-05
3.43426e-05
3.43468e-05
3.43414e-05
3.43509e-05
3.43645e-05
3.43433e-05
3.43621e-05
3.98216e-05
3.97946e-05
3.43726e-05
3.43388e-05
3.43714e-05
3.9825e-05
3.97716e-05
3.97024e-05
3.43578e-05
3.43831e-05
3.43593e-05
3.43781e-05
3.9773e-05
3.97549e-05
3.43386e-05
3.43526e-05
3.43355e-05
3.43524e-05
3.43621e-05
3.43407e-05
3.43642e-05
3.97796e-05
3.97454e-05
3.43717e-05
3.43429e-05
3.43723e-05
3.98385e-05
3.96989e-05
3.96857e-05
3.43577e-05
3.43752e-05
3.43484e-05
3.43697e-05
3.97532e-05
3.9677e-05
3.4335e-05
3.43518e-05
3.43235e-05
3.43488e-05
3.43658e-05
3.43388e-05
3.43683e-05
3.97889e-05
3.9732e-05
3.43715e-05
3.4341e-05
3.43667e-05
3.97351e-05
3.9683e-05
3.96205e-05
3.43444e-05
3.43661e-05
3.43332e-05
3.43561e-05
3.9713e-05
3.96929e-05
3.43204e-05
3.43484e-05
3.43133e-05
3.43452e-05
3.43674e-05
3.4333e-05
3.43604e-05
3.97761e-05
3.9769e-05
3.4364e-05
3.43388e-05
3.43564e-05
3.97311e-05
3.96675e-05
3.96236e-05
3.43303e-05
3.43516e-05
3.43208e-05
3.43433e-05
3.96901e-05
3.96202e-05
3.43114e-05
3.43437e-05
3.43029e-05
3.43358e-05
3.43595e-05
3.43255e-05
3.4355e-05
3.98102e-05
3.97325e-05
3.43557e-05
3.43338e-05
3.43523e-05
3.97392e-05
3.96702e-05
3.96771e-05
3.43216e-05
3.43394e-05
3.43198e-05
3.43286e-05
3.96595e-05
3.96233e-05
3.43029e-05
3.43324e-05
3.42996e-05
3.43189e-05
3.43544e-05
3.43196e-05
3.43496e-05
3.97701e-05
3.97339e-05
3.43511e-05
3.4319e-05
3.43431e-05
3.96941e-05
3.97212e-05
3.96128e-05
3.43195e-05
3.43296e-05
3.43181e-05
3.43237e-05
3.96711e-05
3.96304e-05
3.4299e-05
3.4318e-05
3.42987e-05
3.43114e-05
3.4347e-05
3.43131e-05
3.43409e-05
3.97677e-05
3.96415e-05
3.4337e-05
3.43079e-05
3.43263e-05
3.97311e-05
3.96526e-05
3.96702e-05
3.43161e-05
3.43222e-05
3.43137e-05
3.43176e-05
3.96774e-05
3.96892e-05
3.42985e-05
3.43081e-05
3.42975e-05
3.43037e-05
3.43375e-05
3.43076e-05
3.4331e-05
3.96855e-05
3.96813e-05
3.43268e-05
3.42982e-05
3.43215e-05
3.96608e-05
3.9716e-05
3.97156e-05
3.43145e-05
3.4318e-05
3.43153e-05
3.43195e-05
3.97349e-05
3.97287e-05
3.42969e-05
3.43059e-05
3.42974e-05
3.42999e-05
3.43312e-05
3.43082e-05
3.43244e-05
3.97232e-05
3.96146e-05
3.43179e-05
3.42925e-05
3.43123e-05
3.97181e-05
3.97582e-05
3.96974e-05
3.43155e-05
3.43183e-05
3.43178e-05
3.43151e-05
3.97678e-05
3.96404e-05
3.42974e-05
3.42974e-05
3.42983e-05
3.42902e-05
3.43237e-05
3.43061e-05
3.43203e-05
3.96572e-05
3.95707e-05
3.43123e-05
3.42856e-05
3.43104e-05
3.97122e-05
3.97347e-05
3.97113e-05
3.4318e-05
3.43144e-05
3.43171e-05
3.43098e-05
3.96838e-05
3.96846e-05
3.42975e-05
3.42895e-05
3.42922e-05
3.42878e-05
3.43199e-05
3.43038e-05
3.43158e-05
3.9619e-05
3.9592e-05
3.43091e-05
3.42828e-05
3.43072e-05
3.97094e-05
3.97452e-05
3.96207e-05
3.43151e-05
3.43071e-05
3.43098e-05