/*--------------------------------*- C++ -*----------------------------------*\
| =========                 |                                                 |
| \\      /  F ield         | OpenFOAM: The Open Source CFD Toolbox           |
|  \\    /   O peration     | Version:  2312                                  |
|   \\  /    A nd           | Website:  www.openfoam.com                      |
|    \\/     M anipulation  |                                                 |
\*---------------------------------------------------------------------------*/
FoamFile
{
    version     2.0;
    format      ascii;
    arch        "LSB;label=32;scalar=64";
    class       volScalarField;
    location    "200";
    object      nut;
}
// * * * * * * * * * * * * * * * * * * * * * * * * * * * * * * * * * * * * * //

dimensions      [0 2 -1 0 0 0 0];

internalField   nonuniform List<scalar> 
172512
(
0.000115876
0.000131112
0.000130934
0.00013044
0.000130096
0.000131035
0.000131202
0.000130173
0.000131064
0.000131012
0.000131103
0.000131136
0.000129599
0.000130911
0.00013096
0.000130354
0.000130063
0.000131074
0.000131237
0.000130211
0.000131107
0.000131171
0.000131276
0.000129744
0.000131205
4.98735e-05
9.05919e-05
4.98688e-05
0.000115826
0.000116112
0.000115919
0.000115855
2.35398e-05
0.00013103
9.18277e-05
9.06436e-05
4.98734e-05
9.06303e-05
4.98741e-05
2.35412e-05
2.35424e-05
9.06274e-05
4.98675e-05
9.05833e-05
4.98687e-05
0.000116178
0.000116209
0.000116083
0.000117016
9.18431e-05
0.000126102
0.000131146
0.000117043
9.18751e-05
0.000126134
2.35389e-05
2.35401e-05
0.000116988
0.000125893
9.18163e-05
0.000131012
0.000117044
0.000125964
9.18356e-05
7.28694e-05
7.28715e-05
0.000130412
7.28627e-05
7.2874e-05
2.35427e-05
2.35399e-05
0.000129939
7.2852e-05
7.28656e-05
2.3543e-05
2.35418e-05
2.35401e-05
2.35389e-05
0.000130108
7.28754e-05
7.28874e-05
7.28657e-05
7.28754e-05
0.000131098
9.18317e-05
9.06213e-05
4.98739e-05
4.9873e-05
9.06461e-05
9.0622e-05
4.98711e-05
4.987e-05
9.06369e-05
0.000117016
0.000131084
9.18298e-05
0.000125962
9.17992e-05
0.000126004
0.000116973
0.000117005
0.000131245
9.18647e-05
0.000126125
9.17907e-05
0.000126203
0.000117076
2.35422e-05
2.3541e-05
0.000130083
7.28559e-05
7.28863e-05
7.28427e-05
2.35425e-05
0.000116959
0.000131075
9.1848e-05
0.000125974
9.06186e-05
4.98632e-05
0.000117038
0.00013104
0.000126029
9.18222e-05
9.0582e-05
4.98683e-05
4.98681e-05
9.05833e-05
0.0001169
0.000131085
9.185e-05
0.00012593
9.18647e-05
0.000125976
0.000116994
9.06066e-05
4.98635e-05
4.98627e-05
9.06169e-05
0.000116971
0.000131002
0.000125967
9.1824e-05
0.00012603
9.18092e-05
0.000117007
9.18252e-05
0.000126156
0.000117019
4.9866e-05
9.06251e-05
0.000125707
9.18372e-05
0.000117028
4.98671e-05
9.06302e-05
0.000129819
7.28556e-05
7.28627e-05
2.35417e-05
2.35399e-05
2.35388e-05
0.000129655
7.28587e-05
7.28726e-05
7.28398e-05
7.28751e-05
2.35419e-05
2.35407e-05
4.98691e-05
0.000116956
0.000130911
0.000125955
9.18337e-05
0.000126027
9.18208e-05
0.000117033
0.000117025
0.00013095
0.000125658
9.18246e-05
0.000125665
9.18283e-05
0.000117028
9.05947e-05
4.98694e-05
4.98687e-05
9.06454e-05
9.05792e-05
4.98645e-05
4.98635e-05
9.06165e-05
0.000130324
7.28622e-05
7.28806e-05
7.28839e-05
2.35414e-05
2.35401e-05
2.3539e-05
2.3542e-05
2.35433e-05
2.3539e-05
2.35399e-05
7.28761e-05
7.28742e-05
0.000130077
7.28863e-05
7.28712e-05
2.35422e-05
2.35389e-05
0.000130085
7.2872e-05
7.28681e-05
9.06256e-05
4.98706e-05
9.06226e-05
4.98717e-05
0.000116913
9.18018e-05
0.000126032
0.000131091
0.000116921
9.18087e-05
0.000126048
0.000117043
9.1824e-05
0.000126162
0.000131241
0.000117067
9.18701e-05
0.00012616
9.06338e-05
4.98737e-05
9.05818e-05
4.9871e-05
0.000116929
0.000131077
9.18252e-05
0.000126027
0.000117
0.000131229
9.18216e-05
0.000126127
7.28617e-05
7.28852e-05
0.000130253
7.28755e-05
7.28992e-05
2.35415e-05
2.35429e-05
2.35414e-05
0.0001302
7.28705e-05
7.28921e-05
2.35419e-05
0.000116952
9.17871e-05
0.000126158
0.000131115
0.000116861
9.18683e-05
0.000126124
9.06413e-05
4.98631e-05
9.05898e-05
4.98641e-05
0.000116893
0.00012615
9.17976e-05
0.000131157
0.000116883
0.000126111
9.18267e-05
9.06097e-05
4.98686e-05
0.000116938
0.000131106
9.18587e-05
0.000126053
9.06054e-05
4.98639e-05
0.000116924
0.000131113
0.000126034
9.18155e-05
9.05808e-05
4.98658e-05
9.06042e-05
4.98676e-05
0.000116988
0.000125952
9.18223e-05
0.00013126
0.000117034
0.000125989
9.18272e-05
9.06505e-05
4.98665e-05
9.05982e-05
4.98666e-05
0.000117042
0.000131145
9.18617e-05
0.000126113
9.05509e-05
4.98676e-05
0.000116894
0.00013121
0.000125974
9.18197e-05
9.06369e-05
4.98659e-05
7.28579e-05
7.2879e-05
0.000129846
7.28697e-05
7.28727e-05
2.35409e-05
2.35419e-05
2.35391e-05
0.000129895
7.28569e-05
7.28671e-05
2.35408e-05
0.000117002
0.000125886
9.18197e-05
0.00013123
0.000116946
0.000125926
9.18316e-05
9.06212e-05
4.9869e-05
9.06402e-05
4.98695e-05
9.0607e-05
4.98643e-05
9.0601e-05
4.98651e-05
0.000116928
0.000131025
0.000125993
9.18152e-05
0.000116969
0.000131235
0.000125936
9.17985e-05
9.05917e-05
4.9869e-05
9.05733e-05
4.98644e-05
2.35403e-05
2.35413e-05
2.3539e-05
2.354e-05
0.00013046
7.2871e-05
7.28608e-05
2.35403e-05
2.3539e-05
2.00552e-05
7.55882e-05
4.98727e-05
7.55754e-05
2.00566e-05
3.61689e-05
9.05742e-05
8.70349e-05
4.04184e-05
8.70444e-05
4.04179e-05
3.61694e-05
2.00535e-05
7.55629e-05
4.98687e-05
7.5551e-05
2.00548e-05
2.35387e-05
3.61735e-05
9.0629e-05
4.04248e-05
8.71174e-05
4.04242e-05
8.71049e-05
3.61742e-05
2.00564e-05
7.55739e-05
4.98739e-05
2.0055e-05
7.55865e-05
3.61745e-05
9.06447e-05
4.04244e-05
8.71107e-05
3.61738e-05
4.0425e-05
8.71244e-05
2.0055e-05
7.55866e-05
4.98736e-05
7.55735e-05
2.00564e-05
2.35423e-05
2.35412e-05
3.61687e-05
9.06122e-05
8.70928e-05
4.04186e-05
8.70642e-05
4.04178e-05
3.61698e-05
2.00547e-05
7.55529e-05
4.98682e-05
2.00532e-05
7.5574e-05
3.61693e-05
9.06215e-05
8.70484e-05
4.04174e-05
3.61683e-05
8.70688e-05
4.04182e-05
2.00534e-05
7.55885e-05
4.98677e-05
7.55706e-05
2.0055e-05
2.354e-05
2.3539e-05
7.82963e-05
2.14405e-05
2.14373e-05
2.14391e-05
2.14359e-05
7.83031e-05
9.56374e-05
0.000109552
4.77871e-05
7.28808e-05
9.56455e-05
0.000109577
4.77878e-05
9.56472e-05
0.000109552
4.77777e-05
7.28772e-05
9.56683e-05
0.000109511
4.77783e-05
7.83049e-05
2.14391e-05
2.14359e-05
7.8297e-05
2.14405e-05
2.14373e-05
9.56597e-05
4.7788e-05
7.28662e-05
0.000109528
0.000109564
4.77871e-05
9.56787e-05
9.56529e-05
4.77782e-05
7.28692e-05
0.00010948
0.000109473
4.77775e-05
9.56547e-05
2.35417e-05
2.35388e-05
7.83041e-05
2.14391e-05
2.14354e-05
2.14376e-05
2.14339e-05
7.83141e-05
9.56181e-05
4.77848e-05
7.28548e-05
0.000109476
4.77839e-05
9.56134e-05
0.0001094
9.55988e-05
4.77724e-05
7.28573e-05
0.000109412
4.77712e-05
9.5641e-05
0.000109451
2.35419e-05
2.35429e-05
2.3539e-05
2.354e-05
7.83145e-05
2.14376e-05
2.1434e-05
7.83066e-05
2.14391e-05
2.14355e-05
9.56384e-05
0.000109427
7.28676e-05
4.77861e-05
4.77851e-05
0.000109456
9.56559e-05
9.56307e-05
0.000109565
7.28827e-05
4.77735e-05
4.77725e-05
0.000109537
9.56317e-05
9.5649e-05
4.77845e-05
0.000109519
7.28736e-05
9.56307e-05
4.77857e-05
0.000109516
9.56511e-05
4.77718e-05
0.000109524
7.28874e-05
9.56247e-05
4.77729e-05
0.000109568
7.83063e-05
2.14392e-05
2.14356e-05
2.14377e-05
2.14341e-05
7.83131e-05
3.61752e-05
4.04239e-05
8.7125e-05
9.06467e-05
3.61745e-05
4.04248e-05
8.71374e-05
2.00551e-05
4.98733e-05
7.55875e-05
2.00565e-05
7.55753e-05
2.00566e-05
7.55765e-05
4.98737e-05
2.00551e-05
7.5589e-05
3.61742e-05
9.06328e-05
4.0425e-05
8.7128e-05
3.61748e-05
4.04243e-05
8.7118e-05
3.61739e-05
4.0424e-05
8.71445e-05
9.06405e-05
3.61731e-05
4.04244e-05
8.71626e-05
2.00543e-05
4.98702e-05
7.5576e-05
7.55615e-05
2.00558e-05
2.00557e-05
7.55587e-05
4.98704e-05
2.00543e-05
7.55737e-05
3.61731e-05
9.06252e-05
4.04241e-05
8.71646e-05
4.04237e-05
8.71491e-05
3.61739e-05
2.35411e-05
2.35421e-05
9.56346e-05
0.000109481
7.2857e-05
4.77773e-05
0.000109508
4.77764e-05
9.56515e-05
9.56153e-05
0.000109625
7.28818e-05
4.7787e-05
4.77859e-05
0.000109521
9.56466e-05
0.000109405
7.28666e-05
0.000109523
7.82877e-05
2.14373e-05
2.14404e-05
2.14358e-05
2.14388e-05
7.82983e-05
2.35416e-05
3.61668e-05
9.06036e-05
4.04193e-05
8.70563e-05
4.04188e-05
8.70412e-05
3.61677e-05
2.00516e-05
7.55125e-05
4.98627e-05
7.55022e-05
2.0053e-05
3.6169e-05
8.70284e-05
4.04176e-05
9.05983e-05
3.61683e-05
8.7035e-05
4.04182e-05
2.00532e-05
4.9868e-05
7.55631e-05
2.00546e-05
7.55505e-05
2.00546e-05
7.55499e-05
4.98685e-05
2.00533e-05
7.55576e-05
3.61681e-05
9.05843e-05
8.70414e-05
4.0418e-05
3.6169e-05
8.70219e-05
4.04175e-05
3.61681e-05
4.04185e-05
8.70417e-05
9.0622e-05
3.61669e-05
4.0419e-05
8.71002e-05
2.00516e-05
4.98629e-05
7.55248e-05
7.55097e-05
2.00531e-05
2.0053e-05
7.54987e-05
4.98633e-05
2.00515e-05
7.55135e-05
3.61676e-05
9.06033e-05
4.04189e-05
8.71143e-05
4.04183e-05
8.70951e-05
3.61686e-05
2.0052e-05
4.98657e-05
7.55318e-05
7.55249e-05
2.00536e-05
3.61666e-05
9.06086e-05
8.70701e-05
4.04164e-05
8.70457e-05
4.04155e-05
3.61677e-05
2.00527e-05
4.98667e-05
7.55735e-05
7.55617e-05
2.00541e-05
3.61669e-05
9.06113e-05
4.04172e-05
8.71274e-05
4.04165e-05
8.71153e-05
3.61677e-05
7.82964e-05
2.14378e-05
2.14412e-05
2.14364e-05
2.14397e-05
7.83055e-05
9.5592e-05
4.77761e-05
7.28434e-05
0.000109523
4.77753e-05
0.000109512
9.55773e-05
9.56301e-05
4.77886e-05
7.28654e-05
0.000109422
0.000109442
4.77876e-05
9.56559e-05
2.35406e-05
2.35389e-05
2.35399e-05
7.83089e-05
2.14364e-05
2.14397e-05
7.83004e-05
2.14378e-05
2.14412e-05
9.56007e-05
0.000109492
7.28542e-05
4.77763e-05
0.000109484
4.77755e-05
9.56091e-05
9.56208e-05
0.000109544
7.28748e-05
4.77894e-05
4.77886e-05
0.000109526
9.5661e-05
9.56177e-05
4.77753e-05
0.000109511
7.28601e-05
0.000109484
9.55996e-05
4.77763e-05
9.56576e-05
4.77882e-05
0.0001095
7.2874e-05
9.56591e-05
4.77893e-05
0.000109525
7.83026e-05
2.14378e-05
2.14412e-05
2.14364e-05
2.14398e-05
7.8311e-05
2.35409e-05
2.35418e-05
4.98686e-05
3.61683e-05
8.71357e-05
4.04132e-05
9.0602e-05
3.61675e-05
8.715e-05
4.0414e-05
2.00537e-05
4.98687e-05
7.56008e-05
7.55884e-05
2.00552e-05
2.00552e-05
7.55883e-05
4.98691e-05
2.00538e-05
7.56011e-05
3.61674e-05
9.06153e-05
8.71492e-05
4.04147e-05
8.71348e-05
4.04137e-05
3.61682e-05
3.61653e-05
8.70879e-05
4.04124e-05
9.05988e-05
3.61639e-05
8.71207e-05
4.04134e-05
2.00518e-05
4.98638e-05
7.55736e-05
7.55593e-05
2.00534e-05
2.00531e-05
7.55535e-05
4.98643e-05
2.00515e-05
7.55704e-05
3.61649e-05
9.05657e-05
8.71367e-05
4.04138e-05
8.71151e-05
4.04128e-05
3.61661e-05
7.82973e-05
2.14405e-05
2.14372e-05
9.56394e-05
0.000109591
7.28659e-05
4.77878e-05
9.56662e-05
0.000109593
4.77872e-05
9.56708e-05
0.000109587
7.28765e-05
4.77784e-05
9.57003e-05
0.000109513
4.77775e-05
9.56255e-05
7.28825e-05
0.000109635
4.77883e-05
9.56933e-05
0.000109577
7.28846e-05
0.000109583
4.77781e-05
7.82944e-05
2.14405e-05
2.14373e-05
7.83046e-05
2.14391e-05
2.14358e-05
2.35405e-05
2.35417e-05
2.3539e-05
2.35401e-05
2.35432e-05
2.35422e-05
2.354e-05
2.35389e-05
7.83008e-05
2.1439e-05
2.14355e-05
2.14376e-05
2.14341e-05
7.83096e-05
9.56469e-05
0.000109479
4.77855e-05
7.28882e-05
9.56431e-05
4.77865e-05
0.000109503
9.56463e-05
0.000109495
4.77727e-05
7.28706e-05
9.55983e-05
4.77735e-05
0.000109428
7.83103e-05
2.14377e-05
2.14341e-05
7.83028e-05
2.14391e-05
2.14355e-05
9.56146e-05
4.77865e-05
7.28811e-05
0.000109541
4.77857e-05
9.5625e-05
0.000109446
9.56355e-05
4.77738e-05
7.28736e-05
0.000109421
4.7773e-05
9.56493e-05
0.000109434
2.35433e-05
2.35399e-05
7.83104e-05
2.14375e-05
2.1434e-05
7.83011e-05
2.1439e-05
2.14355e-05
9.56466e-05
4.77855e-05
0.000109538
7.28967e-05
9.55953e-05
4.77866e-05
0.000109568
9.56551e-05
4.7773e-05
0.000109495
7.28718e-05
9.56393e-05
4.77737e-05
0.000109555
3.6173e-05
9.06137e-05
4.04236e-05
8.71648e-05
4.04231e-05
8.71509e-05
3.61738e-05
2.00559e-05
7.55643e-05
4.98714e-05
2.00544e-05
7.55784e-05
3.61739e-05
9.06333e-05
4.04233e-05
8.71516e-05
4.04238e-05
3.61731e-05
8.7166e-05
2.00544e-05
7.55798e-05
4.98711e-05
7.55661e-05
2.00559e-05
3.61738e-05
4.0424e-05
8.70946e-05
9.06496e-05
3.61732e-05
4.04246e-05
8.71065e-05
2.00563e-05
7.55747e-05
4.98745e-05
2.00549e-05
7.55877e-05
3.61738e-05
4.04227e-05
8.71503e-05
9.06183e-05
3.6173e-05
4.04233e-05
8.71643e-05
2.00559e-05
7.55678e-05
4.98716e-05
2.00545e-05
7.55818e-05
7.82786e-05
2.14377e-05
2.14407e-05
2.14363e-05
2.14393e-05
7.82868e-05
9.5652e-05
0.000109457
4.77767e-05
7.28692e-05
4.77777e-05
9.56453e-05
0.000109538
9.56349e-05
0.000109592
4.77866e-05
7.28959e-05
0.000109617
9.56388e-05
4.7788e-05
7.82939e-05
2.14362e-05
2.14392e-05
2.14376e-05
7.82909e-05
2.14407e-05
9.56444e-05
4.77781e-05
7.28534e-05
0.00010956
4.7777e-05
0.000109515
9.56589e-05
9.56094e-05
4.77881e-05
7.289e-05
0.000109615
0.000109601
4.77873e-05
9.56033e-05
2.35427e-05
2.35418e-05
2.35426e-05
7.82903e-05
2.14363e-05
2.14393e-05
7.82801e-05
2.14378e-05
2.14408e-05
9.56646e-05
4.77776e-05
0.000109544
7.28752e-05
0.00010954
9.56491e-05
4.77786e-05
9.56359e-05
4.77876e-05
0.000109562
7.28854e-05
9.56197e-05
4.77885e-05
0.000109603
2.3543e-05
3.61678e-05
9.06185e-05
4.04189e-05
8.71147e-05
4.04181e-05
8.71009e-05
3.61685e-05
2.00533e-05
7.55155e-05
4.98634e-05
2.00518e-05
7.55354e-05
3.61687e-05
9.06028e-05
4.04181e-05
8.7103e-05
4.04186e-05
3.61679e-05
8.71162e-05
2.0052e-05
7.55462e-05
4.98632e-05
7.55322e-05
2.00536e-05
3.61706e-05
8.71029e-05
4.0418e-05
9.06354e-05
3.61694e-05
8.71247e-05
4.04187e-05
2.00553e-05
7.55771e-05
4.98695e-05
2.00537e-05
7.56057e-05
3.61682e-05
4.04182e-05
8.70998e-05
9.06343e-05
3.61676e-05
4.0419e-05
8.71125e-05
2.00538e-05
7.5542e-05
4.98647e-05
2.00523e-05
7.55573e-05
3.61677e-05
9.0564e-05
8.71209e-05
4.04165e-05
8.71017e-05
4.04159e-05
3.61687e-05
2.00538e-05
7.55233e-05
4.98667e-05
7.55484e-05
2.00521e-05
3.61684e-05
9.06123e-05
8.70857e-05
4.04159e-05
8.7111e-05
3.61671e-05
4.04166e-05
2.00524e-05
7.55561e-05
4.98665e-05
7.55373e-05
2.00541e-05
3.61666e-05
9.06324e-05
4.04177e-05
8.70972e-05
4.04169e-05
8.70883e-05
3.61673e-05
2.0054e-05
7.5554e-05
4.98668e-05
2.00526e-05
7.55697e-05
3.61675e-05
9.06405e-05
4.04165e-05
8.70925e-05
3.61667e-05
4.04173e-05
8.71113e-05
2.00525e-05
7.55666e-05
4.9866e-05
7.5555e-05
2.00539e-05
3.61689e-05
8.71079e-05
4.04156e-05
9.05998e-05
3.61679e-05
8.71233e-05
4.04163e-05
2.00543e-05
7.55398e-05
4.98685e-05
2.00527e-05
7.55522e-05
3.61676e-05
4.04172e-05
8.71041e-05
9.06493e-05
3.61666e-05
4.0418e-05
8.71323e-05
2.00537e-05
7.55528e-05
4.98664e-05
2.00523e-05
7.55643e-05
7.83027e-05
2.14379e-05
2.14412e-05
2.14364e-05
2.14397e-05
7.83116e-05
9.56357e-05
0.00010943
4.77757e-05
7.28687e-05
4.77766e-05
9.56222e-05
0.000109526
9.56519e-05
0.000109588
4.77886e-05
7.28894e-05
0.000109566
9.56567e-05
4.77895e-05
7.83115e-05
2.14364e-05
2.14397e-05
2.14379e-05
7.83028e-05
2.14412e-05
9.56119e-05
4.77768e-05
7.28624e-05
0.000109492
4.77759e-05
0.000109488
9.56568e-05
9.56054e-05
4.77895e-05
7.28642e-05
0.00010942
0.000109482
4.77887e-05
9.56338e-05
2.3542e-05
2.35409e-05
2.354e-05
7.83108e-05
2.14365e-05
2.14397e-05
7.83028e-05
2.14379e-05
2.14411e-05
9.56374e-05
4.77761e-05
0.000109436
7.28523e-05
0.000109401
9.56213e-05
4.77768e-05
9.56094e-05
4.77887e-05
0.000109459
7.28696e-05
9.56142e-05
4.77893e-05
0.000109443
2.35418e-05
3.61671e-05
9.06156e-05
8.71308e-05
4.04153e-05
8.71102e-05
4.04146e-05
3.61679e-05
2.00552e-05
7.55883e-05
4.98694e-05
7.56006e-05
2.00537e-05
3.61681e-05
9.06564e-05
8.71366e-05
4.04144e-05
8.71487e-05
3.61673e-05
4.04153e-05
2.00537e-05
7.55997e-05
4.98689e-05
7.55875e-05
2.00551e-05
3.61656e-05
9.05948e-05
8.71357e-05
4.04143e-05
8.71235e-05
4.04135e-05
3.61665e-05
2.00534e-05
7.55623e-05
4.98648e-05
2.00519e-05
7.5576e-05
3.61664e-05
9.06151e-05
8.7127e-05
4.04133e-05
3.61654e-05
8.71424e-05
4.04142e-05
2.0052e-05
7.55741e-05
4.98644e-05
7.5562e-05
2.00534e-05
3.61678e-05
8.71124e-05
4.04145e-05
9.06139e-05
3.6167e-05
8.71218e-05
4.0415e-05
2.00551e-05
7.55866e-05
4.98695e-05
2.00537e-05
7.55981e-05
3.61662e-05
8.71152e-05
4.04134e-05
9.06187e-05
3.61655e-05
8.71262e-05
4.04143e-05
2.00534e-05
7.55601e-05
4.98651e-05
2.00519e-05
7.55719e-05
2.35414e-05
2.35403e-05
2.35401e-05
2.3539e-05
7.83113e-05
2.14391e-05
2.14359e-05
7.82956e-05
2.14407e-05
2.14375e-05
9.56821e-05
4.77874e-05
0.000109578
7.28902e-05
9.56669e-05
0.000109632
4.77884e-05
9.56902e-05
4.77775e-05
0.000109532
7.2884e-05
9.56732e-05
0.000109533
4.77786e-05
2.35415e-05
2.35401e-05
0.000115694
0.000115838
0.00011558
0.000115769
0.000115837
0.000115692
0.000115878
0.00012917
0.000129178
0.000116026
0.000124768
0.00012501
0.000130408
0.000116096
0.000124735
0.000125009
0.000115957
0.0001301
0.000124759
0.000124761
0.000124752
0.000124753
0.000115962
0.000116085
0.000130167
0.000124743
0.000124898
0.000124727
0.000124895
0.000115963
0.000116071
0.000129615
0.000124572
0.000124384
0.000124562
0.000124376
0.000116029
0.000116064
0.000130387
0.000124674
0.000124988
0.000116125
0.000124745
0.000125058
0.000115895
0.000124688
0.000124721
0.000130044
0.000115936
0.000124711
0.000124729
0.000116002
0.000124746
0.000124855
0.000130226
0.000124864
0.000116001
0.000124782
0.000115932
0.000124626
0.000124415
0.000129787
0.000124469
0.000115904
0.000124646
0.000115927
0.000115633
0.000115729
0.000115526
0.000115772
0.00011549
0.000115791
0.000129178
0.000129157
0.00011613
0.000115934
0.000115929
0.000116016
0.000115955
0.000129216
0.000129191
0.000115874
0.000115715
0.000115653
0.000115607
0.00011565
0.00012905
0.000129096
0.000115856
0.000115798
0.000115576
0.000115851
0.000115537
0.000129174
0.00012917
9.1794e-05
0.000117946
0.000117939
0.000115969
0.000116145
0.000116165
0.000115956
0.000116113
0.00012922
0.000129213
0.000115935
0.00011589
0.00011621
0.000115926
0.000115888
0.00012916
0.000129124
0.000116061
0.000115918
0.000116088
0.00011603
0.000115915
0.000129213
0.000129208
0.000115913
0.000115714
0.000115874
0.000129145
0.000116137
0.000115946
0.000116033
0.000129233
0.000116177
0.000115903
0.000115846
0.000129159
0.000116062
0.000115955
0.000115859
0.000129183
0.000127085
0.00011696
0.000113968
0.00012826
0.0001139
0.000128234
0.000127071
0.000123417
0.000118124
0.000104749
9.18527e-05
0.000123415
0.00011812
0.00010478
0.000127087
0.000117106
0.000113855
0.000128095
0.000127075
0.000113855
0.000128153
0.000123469
0.000104776
9.18114e-05
0.000118109
0.000118102
0.000104736
0.000123462
0.00012716
0.000116935
0.000128825
0.00011394
0.000128821
0.000113946
0.000127152
0.000123245
0.000117947
0.000104693
9.18006e-05
0.000123234
0.000117974
0.000104718
0.000127195
0.000117066
0.000128826
0.000113873
0.000127181
0.000128831
0.000113976
0.000123287
0.000104734
9.18107e-05
0.000117962
0.000117956
0.000104716
0.000123295
0.000116133
0.000130475
0.000124822
0.000125004
0.000124795
0.000124998
0.000116137
0.000116005
0.00013001
0.000124639
0.000124631
0.000116031
0.00012454
0.000124539
0.000115963
0.000130085
0.000124727
0.000124721
0.00011594
0.000124762
0.000124754
0.000123197
0.000104719
9.18001e-05
0.000118006
0.000104636
0.000117918
0.000123199
0.000126625
0.000113823
0.000128672
0.000116969
0.000126774
0.000113886
0.000128648
0.000123296
0.000118079
9.1818e-05
0.000104761
0.000118079
0.000104717
0.000123285
0.000123269
0.000104758
0.000118072
9.18418e-05
0.000118101
0.000123234
0.000104797
0.000126884
0.000116911
0.000113694
0.000128762
0.000113793
0.000128754
0.000126807
0.000126881
0.00011375
0.000128541
0.000117069
0.000126896
0.000113755
0.00012857
0.000123371
0.000118009
9.18336e-05
0.000104803
0.000104705
0.000117999
0.000123389
0.00012337
0.000104729
0.000117962
9.17971e-05
0.000123299
0.000104777
0.000118012
0.000127025
0.000117061
0.000113986
0.0001287
0.000113885
0.000128674
0.000126988
0.000130147
0.000124676
0.000124724
0.000126942
0.000116919
0.000113736
0.000128503
0.000113636
0.000128587
0.000126741
0.000123382
0.000104667
9.18568e-05
0.000118045
0.000104725
0.000117957
0.000123416
0.000126807
0.000117022
0.000128444
0.000113866
0.000128573
0.000113859
0.000126725
0.000123197
0.000104652
9.17989e-05
0.00011792
0.000104644
0.00012325
0.000117907
0.000126475
0.00011366
0.00012845
0.000116917
0.000126385
0.000113697
0.000128453
0.000123272
0.000118118
9.18589e-05
0.000104769
0.000118118
0.000104705
0.000123339
0.000123267
0.000104681
0.000118108
9.18914e-05
0.000118139
0.000123235
0.000104648
0.00012652
0.000116901
0.000113778
0.000128473
0.000113734
0.000128459
0.00012658
0.000126933
0.000128504
0.000113882
0.000116992
0.000126946
0.000128483
0.000113895
0.000123219
0.000117936
9.18104e-05
0.000104647
0.000104629
0.000117928
0.000123227
0.000123433
0.000104549
0.000117929
9.18274e-05
0.000123333
0.000104645
0.000117942
0.000127092
0.000116974
0.000128559
0.000113834
0.000128505
0.000113834
0.000127032
0.000123424
0.000118148
9.18347e-05
0.000104713
0.000123445
0.000118147
0.000104736
0.000127092
0.000116965
0.000113751
0.000128043
0.000127112
0.000113716
0.00012803
0.000123155
0.000118005
9.18532e-05
0.000104707
0.000104724
0.000118002
0.00012321
0.00012649
0.000117034
0.000127956
0.000113747
0.000127939
0.000113757
0.000126574
0.000115935
0.000130049
0.000124785
0.000124785
0.000124805
0.000124792
0.000116
0.000116065
0.000129579
0.000124568
0.000124772
0.000124569
0.000116052
0.000124735
0.000126872
0.000128828
0.000113737
0.000116905
0.000126997
0.000128872
0.000113761
0.000123093
0.000117962
9.18235e-05
0.00010475
0.000123191
0.000117954
0.000104697
0.000123082
0.000104622
0.000117957
9.18036e-05
0.000122981
0.000117968
0.000104752
0.000127183
0.000116987
0.000128869
0.000113831
0.000127261
0.000128864
0.000113697
0.000126722
0.000128612
0.000113764
0.000117045
0.000126761
0.000128562
0.000113751
0.00012309
0.000117989
9.17705e-05
0.000104624
0.000104564
0.000117982
0.000123142
0.000123186
0.000104617
0.000117993
9.18233e-05
0.000123075
0.000104661
0.000118001
0.000126886
0.000117016
0.000128552
0.00011378
0.0001286
0.000113802
0.000126907
0.000116087
0.000130359
0.00012507
0.000124745
0.000125052
0.000116037
0.000130082
0.000124503
0.000124744
0.000116067
0.000124492
0.00012473
0.000115894
0.000130172
0.000124529
0.000124755
0.000115986
0.000124554
0.000124771
0.000126928
0.000116769
0.00011379
0.00012878
0.000113671
0.000128781
0.000126825
0.000123324
0.000118043
0.000104723
9.18375e-05
0.000104765
0.000123316
0.000118049
0.000126913
0.000116906
0.000113754
0.00012877
0.000113783
0.000126924
0.000128799
0.00012335
0.000104748
9.18249e-05
0.000118051
0.000104748
0.000118041
0.000123401
0.000126975
0.000117026
0.000114
0.000128754
0.000114003
0.000128748
0.000126956
0.000123384
0.000118013
0.000104783
9.18776e-05
0.000123413
0.000104818
0.000118024
0.000126859
0.000117072
0.000113955
0.000128707
0.000127065
0.000113993
0.000128757
0.000123454
0.00010484
9.18683e-05
0.000118022
0.000104762
0.000123513
0.00011801
0.000126929
0.000113707
0.000128788
0.000116992
0.000126928
0.000113781
0.000128795
0.000123372
0.000104788
0.000118065
9.18711e-05
0.000118074
0.000123367
0.000104764
0.00012654
0.000113982
0.000128734
0.000117054
0.00012679
0.000113954
0.000128753
0.000123485
0.00010475
0.000118022
9.1874e-05
0.000123454
0.000104848
0.000118032
0.00011607
0.000130229
0.000124791
0.000124866
0.000124855
0.000124773
0.0001161
0.000116026
0.000130282
0.000124781
0.00012487
0.000124802
0.000116073
0.000124878
0.000126632
0.000116806
0.000113853
0.000128536
0.000113802
0.000128591
0.000126631
0.000123121
0.00011807
0.000104692
9.18572e-05
0.000104788
0.000123128
0.00011807
0.000126591
0.00011694
0.000113745
0.00012855
0.000113712
0.000126596
0.000128565
0.000122955
0.000104814
9.18084e-05
0.000118047
0.000104769
0.000118044
0.000122951
0.000127006
0.000116861
0.000128652
0.000113852
0.00012868
0.000113785
0.000126985
0.000123224
0.000117946
0.000104597
9.17855e-05
0.000123224
0.000104721
0.000117953
0.000126902
0.000116969
0.000128595
0.000113795
0.000127106
0.000128601
0.000113767
0.000123258
0.000104723
9.18071e-05
0.000117946
0.000104637
0.000123283
0.000117938
0.000126705
0.000113864
0.000128601
0.000116972
0.000126696
0.000113881
0.000128565
0.000123071
0.000104709
0.000118047
9.18907e-05
0.000118055
0.000122996
0.000104741
0.000127025
0.000128711
0.00011382
0.000116911
0.000126981
0.00012866
0.000113842
0.000123313
0.000104641
0.000117944
9.18278e-05
0.000123248
0.000104753
0.00011795
0.00012668
0.000116891
0.000128286
0.00011384
0.000128272
0.00011382
0.000126704
0.000123232
0.000118011
0.000104784
9.18243e-05
0.000118015
0.000123238
0.000104806
0.000126618
0.000117021
0.000128183
0.000113712
0.000128242
0.000126606
0.000113708
0.000123289
0.000104845
9.17729e-05
0.000118
0.000117995
0.000104777
0.000123273
0.000126785
0.000113902
0.000128355
0.000117065
0.000126848
0.000113911
0.000128428
0.000123486
0.000104707
0.000118118
9.18821e-05
0.000123496
0.000118124
0.000104789
0.000126775
0.000128301
0.000113863
0.000116868
0.000126755
0.000128269
0.000113867
0.000123313
0.000104813
0.000117999
9.18303e-05
0.000123291
0.000104828
0.000118008
0.000115929
0.000129883
0.000124642
0.000124493
0.000124474
0.000124631
0.000115884
0.000115974
0.000129823
0.000124622
0.0001245
0.000124616
0.000115956
0.000124513
0.000126985
0.000116871
0.000128685
0.00011392
0.000128679
0.000113843
0.000126984
0.000123219
0.000118
0.000104575
9.18025e-05
0.000118007
0.000123193
0.000104674
0.000126943
0.000116967
0.000128714
0.000113759
0.00012871
0.000126927
0.000113744
0.000123297
0.000104686
9.18131e-05
0.000118001
0.000117991
0.000104621
0.000123321
0.000127132
0.000128848
0.000113906
0.000117044
0.00012712
0.000128849
0.000113908
0.000123336
0.000104715
0.000117968
9.18314e-05
0.000123299
0.000117975
0.00010467
0.00012705
0.000128658
0.000113917
0.000116995
0.000127032
0.00012869
0.00011396
0.000123394
0.000104712
0.000118005
9.18693e-05
0.000123373
0.000104741
0.000118017
0.00011614
0.000130504
0.000124747
0.000125018
0.000116128
0.000124611
0.000125019
0.000115854
0.00013112
0.00013102
0.000130493
0.000115868
0.00013109
0.000130993
0.000130069
0.000115879
0.000131083
0.000130979
0.000130246
0.000115971
0.000131049
0.000131038
0.000130034
0.000115988
0.000131045
0.000131038
0.000129444
0.000115939
0.000131013
0.000131038
0.000129481
0.000115905
0.000131011
0.000131003
0.00012989
0.000115918
0.000130981
0.000130954
0.000129577
0.000115919
0.00013096
0.000130914
0.000129927
0.000115922
0.000130951
0.00013087
0.000129414
0.000115949
0.000130971
0.000130839
0.000129875
0.00011594
0.000130978
0.000130829
0.000129875
0.000115951
0.000130967
0.000130825
0.000129859
0.00011597
0.000130971
0.000130831
0.000129709
0.000115974
0.000130972
0.000130849
0.000130032
0.000115981
0.000130968
0.000130888
0.000130175
0.000115992
0.000130983
0.000130907
0.000129704
0.000116016
0.000131007
0.000130919
0.000129321
0.000116004
0.000131023
0.000130931
0.000129424
0.000118316
0.000127345
0.000127242
0.000129814
0.000130243
0.000131113
0.000131252
0.000130292
0.000131124
0.000131098
0.000131142
0.000131209
0.000129861
0.000131032
0.000131255
0.000130535
0.000130113
0.000129929
0.000131112
0.000131254
0.000131183
0.000131337
0.000130314
0.000130317
0.000131142
0.000131063
0.000131159
0.000131052
0.000131182
0.000131092
0.000131172
0.000129901
0.000129974
0.000131277
0.000130992
0.000131266
0.000130082
0.00012966
0.00012976
0.000131142
0.000131275
0.000131201
0.000131325
0.000130389
0.000129896
0.000131113
0.000131008
0.000131139
0.000131085
0.000131134
0.000131083
0.000131142
0.000130022
0.000129997
0.000131199
0.000130979
0.000131185
0.000130291
0.000129817
0.000129572
0.000131193
0.000131294
0.000131233
0.000131297
0.000129688
0.00012983
0.00013108
0.000131067
0.000131107
0.000131094
0.000131107
0.000131063
0.000131165
0.000129692
0.000129711
0.000131165
0.000131026
0.000131188
0.000130317
0.000129364
0.00012964
0.000131172
0.000131234
0.000131146
0.000131224
0.000129613
0.000129374
0.000131075
0.000131065
0.000131016
0.000131075
0.00013113
0.000131065
0.000131183
0.000129788
0.000129671
0.000131136
0.000131037
0.000131157
0.000129691
0.000129262
0.000129271
0.000131087
0.000131182
0.000131062
0.000131161
0.000129418
0.000129597
0.000130976
0.000131048
0.000130975
0.000131063
0.000131131
0.000131022
0.000131126
0.00012975
0.000129919
0.000131109
0.000131038
0.000131106
0.000129746
0.000129218
0.000129308
0.000131023
0.000131102
0.00013101
0.000131105
0.000129391
0.000129294
0.000130938
0.000131034
0.000130895
0.000131025
0.000131103
0.000131009
0.000131111
0.000129973
0.000129698
0.000131071
0.000131004
0.000131105
0.000129795
0.000129261
0.000129623
0.000130991
0.000131057
0.000131007
0.000131053
0.000129205
0.000129372
0.000130878
0.000130985
0.000130891
0.000130949
0.000131078
0.000130983
0.000131084
0.000129747
0.000129797
0.000131063
0.000130949
0.000131048
0.000129529
0.000129602
0.000129134
0.00013098
0.000131038
0.000130999
0.000131039
0.000129328
0.000129341
0.000130867
0.00013093
0.000130873
0.000130923
0.000131044
0.000130974
0.000131063
0.000129813
0.000129264
0.000131003
0.000130932
0.000131002
0.000129907
0.000129199
0.000129512
0.000130945
0.000130987
0.000130959
0.000130987
0.000129439
0.000129671
0.000130847
0.000130886
0.000130885
0.000130907
0.000131016
0.000130954
0.00013104
0.000129348
0.000129565
0.000130959
0.000130884
0.000131001
0.000129433
0.000129594
0.000129764
0.000130951
0.00013097
0.000130991
0.000131034
0.000129737
0.000129927
0.000130853
0.00013088
0.000130881
0.000130884
0.000131004
0.000130962
0.000131013
0.000129625
0.000129192
0.000130925
0.000130853
0.000130958
0.00012982
0.000129825
0.000129601
0.000130951
0.000130989
0.000130998
0.000130989
0.000129815
0.000129416
0.000130861
0.000130864
0.000130908
0.000130844
0.000130984
0.000130979
0.000131005
0.000129269
0.000129003
0.00013092
0.000130837
0.000130961
0.000129859
0.000129638
0.000129721
0.000130971
0.000130969
0.000130997
0.000130986
0.000129333
0.000129706
0.00013088
0.000130804
0.000130887
0.00013085
0.000130987
0.000130963
0.000130987
0.000129111
0.000129154
0.000130937
0.000130821
0.000130963
0.000129831
0.00012974
0.000129216
0.000130955
0.000130941
0.00013097