/*--------------------------------*- C++ -*----------------------------------*\
| =========                 |                                                 |
| \\      /  F ield         | OpenFOAM: The Open Source CFD Toolbox           |
|  \\    /   O peration     | Version:  2312                                  |
|   \\  /    A nd           | Website:  www.openfoam.com                      |
|    \\/     M anipulation  |                                                 |
\*---------------------------------------------------------------------------*/
FoamFile
{
    version     2.0;
    format      ascii;
    arch        "LSB;label=32;scalar=64";
    class       volScalarField;
    location    "500";
    object      k;
}
// * * * * * * * * * * * * * * * * * * * * * * * * * * * * * * * * * * * * * //

dimensions      [0 2 -2 0 0 0 0];

internalField   nonuniform List<scalar> 
172512
(
3.91942e-05
5.15789e-05
5.15826e-05
5.3668e-05
5.3614e-05
5.1525e-05
5.15202e-05
5.3623e-05
5.15224e-05
5.15234e-05
5.15245e-05
5.15241e-05
5.36167e-05
5.15282e-05
5.15221e-05
5.36138e-05
5.36682e-05
5.15793e-05
5.15747e-05
5.36621e-05
5.15768e-05
5.15778e-05
5.15784e-05
5.36739e-05
5.15763e-05
7.34425e-05
6.85749e-05
7.34452e-05
3.90988e-05
3.90986e-05
3.91033e-05
3.91018e-05
7.11957e-05
5.14162e-05
6.4796e-05
6.86275e-05
7.34759e-05
6.86069e-05
7.34983e-05
7.12224e-05
7.12472e-05
6.8628e-05
7.34767e-05
6.8605e-05
7.3501e-05
3.91937e-05
3.91987e-05
3.91968e-05
6.07212e-05
6.48325e-05
4.69222e-05
5.16307e-05
6.06826e-05
6.48567e-05
4.69884e-05
7.12238e-05
7.12485e-05
6.07201e-05
4.69255e-05
6.48334e-05
5.16346e-05
6.06852e-05
4.69917e-05
6.48577e-05
6.99666e-05
6.9975e-05
5.36995e-05
6.99825e-05
6.99907e-05
7.11932e-05
7.11964e-05
5.35263e-05
6.99373e-05
6.99455e-05
7.12198e-05
7.11948e-05
7.1223e-05
7.11979e-05
5.35853e-05
6.99623e-05
6.99704e-05
6.99466e-05
6.99547e-05
5.14132e-05
6.47945e-05
6.85795e-05
7.34708e-05
7.34477e-05
6.86018e-05
6.85779e-05
7.34673e-05
7.34444e-05
6.86e-05
6.06383e-05
5.14701e-05
6.48263e-05
4.68522e-05
6.48e-05
4.67827e-05
6.06755e-05
6.06367e-05
5.14637e-05
6.4822e-05
4.68499e-05
6.47962e-05
4.678e-05
6.06737e-05
7.12211e-05
7.11959e-05
5.35791e-05
6.99617e-05
6.99636e-05
6.99468e-05
7.1221e-05
6.0629e-05
5.14106e-05
6.47966e-05
4.67098e-05
6.85733e-05
7.34407e-05
6.06276e-05
5.14114e-05
4.67105e-05
6.47925e-05
6.85776e-05
7.34735e-05
7.34485e-05
6.86025e-05
6.06355e-05
5.14677e-05
6.48284e-05
4.68517e-05
6.48019e-05
4.67821e-05
6.06769e-05
6.8576e-05
7.34689e-05
7.34439e-05
6.86006e-05
6.0634e-05
5.14685e-05
4.68524e-05
6.48244e-05
4.67827e-05
6.47978e-05
6.06755e-05
6.48269e-05
4.6853e-05
6.06762e-05
7.34708e-05
6.85995e-05
4.68532e-05
6.4823e-05
6.0676e-05
7.34679e-05
6.86004e-05
5.35252e-05
6.9941e-05
6.9938e-05
7.11944e-05
7.12223e-05
7.11972e-05
5.35897e-05
6.99659e-05
6.99631e-05
6.9949e-05
6.99464e-05
7.1221e-05
7.1196e-05
7.34435e-05
6.06384e-05
5.14733e-05
4.68565e-05
6.4828e-05
4.6787e-05
6.48021e-05
6.06749e-05
6.06355e-05
5.14673e-05
4.68539e-05
6.48252e-05
4.67844e-05
6.47993e-05
6.06722e-05
6.85771e-05
7.34718e-05
7.34491e-05
6.85988e-05
6.85733e-05
7.34693e-05
7.34467e-05
6.85951e-05
5.35859e-05
6.99586e-05
6.99668e-05
6.99504e-05
7.12208e-05
7.12234e-05
7.11985e-05
7.12213e-05
7.1246e-05
7.12245e-05
7.12491e-05
6.99713e-05
6.99792e-05
5.37014e-05
6.9986e-05
6.99941e-05
7.12475e-05
7.12505e-05
5.37497e-05
6.99947e-05
7.00026e-05
6.8626e-05
7.34724e-05
6.86052e-05
7.34949e-05
6.07208e-05
6.48318e-05
4.69212e-05
5.16314e-05
6.06858e-05
6.48563e-05
4.69875e-05
6.07191e-05
6.48277e-05
4.69189e-05
5.16266e-05
6.06841e-05
6.48518e-05
4.69851e-05
6.86322e-05
7.35034e-05
6.86306e-05
7.34999e-05
6.07301e-05
5.16832e-05
6.48615e-05
4.70534e-05
6.07284e-05
5.16784e-05
6.48572e-05
4.7051e-05
6.99712e-05
6.99716e-05
5.37022e-05
6.99854e-05
6.99872e-05
7.12225e-05
7.12471e-05
7.12485e-05
5.37444e-05
6.99946e-05
6.99947e-05
7.12485e-05
6.07222e-05
6.48334e-05
4.69207e-05
5.16288e-05
6.06831e-05
6.48583e-05
4.6987e-05
6.86265e-05
7.34721e-05
6.86033e-05
7.34965e-05
6.07208e-05
4.69214e-05
6.48294e-05
5.16298e-05
6.06817e-05
4.69877e-05
6.48541e-05
6.86304e-05
7.35041e-05
6.07279e-05
5.16806e-05
6.48628e-05
4.7053e-05
6.86289e-05
7.34996e-05
6.07265e-05
5.16816e-05
4.70536e-05
6.48589e-05
6.86254e-05
7.34758e-05
6.86028e-05
7.34983e-05
6.07213e-05
4.69223e-05
6.48281e-05
5.16304e-05
6.06823e-05
4.69886e-05
6.48529e-05
6.86263e-05
7.34728e-05
6.86033e-05
7.34952e-05
6.07272e-05
5.16825e-05
6.48619e-05
4.70542e-05
6.86284e-05
7.35033e-05
6.07271e-05
5.16822e-05
4.70545e-05
6.48577e-05
6.86288e-05
7.35003e-05
6.99737e-05
6.99712e-05
5.37024e-05
6.99896e-05
6.9987e-05
7.12225e-05
7.12472e-05
7.12499e-05
5.37522e-05
6.99971e-05
6.99947e-05
7.12486e-05
6.07176e-05
4.69229e-05
6.48307e-05
5.16283e-05
6.06826e-05
4.6989e-05
6.48549e-05
6.86247e-05
7.34769e-05
6.8604e-05
7.34994e-05
6.86211e-05
7.34744e-05
6.86003e-05
7.34969e-05
6.07295e-05
5.16863e-05
4.70575e-05
6.48629e-05
6.0727e-05
5.168e-05
4.70549e-05
6.48604e-05
6.86293e-05
7.35044e-05
6.86258e-05
7.35019e-05
7.12222e-05
7.12469e-05
7.12249e-05
7.12496e-05
5.3749e-05
6.999e-05
6.99984e-05
7.12483e-05
7.1251e-05
7.16828e-05
7.97898e-05
7.34336e-05
7.97819e-05
7.16971e-05
7.18486e-05
6.85633e-05
7.1601e-05
7.16307e-05
7.15893e-05
7.16183e-05
7.18622e-05
7.16832e-05
7.97876e-05
7.34341e-05
7.978e-05
7.16975e-05
7.11839e-05
7.19036e-05
6.86198e-05
7.16855e-05
7.165e-05
7.16767e-05
7.16428e-05
7.19168e-05
7.1736e-05
7.98176e-05
7.34847e-05
7.17219e-05
7.98247e-05
7.19031e-05
6.8615e-05
7.16628e-05
7.16308e-05
7.18898e-05
7.16718e-05
7.16385e-05
7.17347e-05
7.98358e-05
7.34896e-05
7.98289e-05
7.17488e-05
7.12342e-05
7.12355e-05
7.19038e-05
6.86177e-05
7.16499e-05
7.16871e-05
7.16394e-05
7.16753e-05
7.19171e-05
7.17364e-05
7.98152e-05
7.34874e-05
7.17222e-05
7.98226e-05
7.19033e-05
6.86154e-05
7.16279e-05
7.16617e-05
7.18902e-05
7.16383e-05
7.16733e-05
7.1735e-05
7.98337e-05
7.34905e-05
7.98266e-05
7.17491e-05
7.12354e-05
7.12369e-05
9.50342e-05
7.35519e-05
7.35453e-05
7.35386e-05
7.3532e-05
9.50361e-05
7.4198e-05
6.52877e-05
7.33015e-05
6.99707e-05
7.41947e-05
6.52987e-05
7.33118e-05
7.42455e-05
6.52958e-05
7.33122e-05
6.9979e-05
7.42423e-05
6.53071e-05
7.33208e-05
9.50233e-05
7.35265e-05
7.35199e-05
9.50214e-05
7.35399e-05
7.35332e-05
7.42085e-05
7.33254e-05
6.99785e-05
6.53168e-05
6.53063e-05
7.33138e-05
7.42117e-05
7.4256e-05
7.33338e-05
6.99869e-05
6.53251e-05
6.53143e-05
7.33254e-05
7.42592e-05
7.11814e-05
7.11845e-05
9.49858e-05
7.35031e-05
7.34963e-05
7.34895e-05
7.34828e-05
9.49875e-05
7.41531e-05
7.32713e-05
6.99339e-05
6.52426e-05
7.32628e-05
7.41562e-05
6.52319e-05
7.41989e-05
7.32807e-05
6.99419e-05
6.52506e-05
7.32722e-05
7.42025e-05
6.52382e-05
7.12081e-05
7.12066e-05
7.12112e-05
7.12097e-05
9.5001e-05
7.35019e-05
7.34952e-05
9.49993e-05
7.35154e-05
7.35086e-05
7.41828e-05
6.52818e-05
6.99591e-05
7.32986e-05
7.329e-05
6.52718e-05
7.41856e-05
7.42286e-05
6.52897e-05
6.99671e-05
7.33079e-05
7.32993e-05
6.52781e-05
7.42319e-05
7.41711e-05
7.32765e-05
6.52521e-05
6.99499e-05
7.41681e-05
7.32853e-05
6.52624e-05
7.42174e-05
7.32858e-05
6.52584e-05
6.99581e-05
7.42139e-05
7.32947e-05
6.52703e-05
9.50127e-05
7.35277e-05
7.35209e-05
7.35142e-05
7.35075e-05
9.50143e-05
7.18753e-05
7.16343e-05
7.1605e-05
6.85883e-05
7.18619e-05
7.16433e-05
7.16147e-05
7.1709e-05
7.34619e-05
7.98133e-05
7.17232e-05
7.98059e-05
7.17102e-05
7.9794e-05
7.34569e-05
7.16959e-05
7.98016e-05
7.18763e-05
6.85933e-05
7.16576e-05
7.16266e-05
7.18892e-05
7.16483e-05
7.16182e-05
7.18742e-05
7.16338e-05
7.16004e-05
6.85866e-05
7.18609e-05
7.16429e-05
7.16086e-05
7.17083e-05
7.34585e-05
7.97947e-05
7.97872e-05
7.17224e-05
7.17095e-05
7.97754e-05
7.34534e-05
7.16953e-05
7.9783e-05
7.18752e-05
6.85916e-05
7.1657e-05
7.1621e-05
7.16479e-05
7.16131e-05
7.18882e-05
7.12092e-05
7.12078e-05
7.42285e-05
6.5286e-05
6.99592e-05
7.3306e-05
6.5275e-05
7.32973e-05
7.42328e-05
7.41815e-05
6.52829e-05
6.99595e-05
7.33006e-05
7.32885e-05
6.52717e-05
7.4186e-05
6.52554e-05
6.99495e-05
6.52666e-05
9.50099e-05
7.35213e-05
7.3528e-05
7.3508e-05
7.35142e-05
9.50119e-05
7.12093e-05
7.18473e-05
6.85617e-05
7.16301e-05
7.15958e-05
7.16177e-05
7.15841e-05
7.18608e-05
7.16812e-05
7.97683e-05
7.34295e-05
7.97603e-05
7.16955e-05
7.18748e-05
7.16025e-05
7.16328e-05
6.85887e-05
7.18636e-05
7.16136e-05
7.16448e-05
7.17093e-05
7.34626e-05
7.98112e-05
7.17235e-05
7.98036e-05
7.17106e-05
7.97919e-05
7.34593e-05
7.16963e-05
7.97995e-05
7.18764e-05
6.85915e-05
7.16265e-05
7.16594e-05
7.18895e-05
7.16153e-05
7.16473e-05
7.18735e-05
7.16322e-05
7.15974e-05
6.85872e-05
7.18624e-05
7.16443e-05
7.16086e-05
7.17074e-05
7.3458e-05
7.97919e-05
7.97844e-05
7.17216e-05
7.17086e-05
7.97725e-05
7.34548e-05
7.16944e-05
7.97802e-05
7.1875e-05
6.85899e-05
7.16585e-05
7.16211e-05
7.16466e-05
7.16102e-05
7.18882e-05
7.17073e-05
7.3462e-05
7.98033e-05
7.98008e-05
7.1722e-05
7.18768e-05
6.85893e-05
7.1621e-05
7.16565e-05
7.16116e-05
7.16476e-05
7.18861e-05
7.17078e-05
7.34586e-05
7.97909e-05
7.97834e-05
7.1722e-05
7.18774e-05
6.85897e-05
7.16581e-05
7.16198e-05
7.16462e-05
7.1612e-05
7.18865e-05
9.49813e-05
7.34964e-05
7.35026e-05
7.3483e-05
7.34891e-05
9.49829e-05
7.41993e-05
7.32791e-05
6.99365e-05
6.52488e-05
7.32704e-05
6.52361e-05
7.4203e-05
7.41516e-05
7.3271e-05
6.99338e-05
6.5244e-05
6.52317e-05
7.32624e-05
7.41554e-05
7.11826e-05
7.12106e-05
7.12091e-05
9.49965e-05
7.34953e-05
7.35015e-05
9.49948e-05
7.35088e-05
7.35149e-05
7.42293e-05
6.52884e-05
6.99615e-05
7.33063e-05
6.52762e-05
7.32977e-05
7.42326e-05
7.41816e-05
6.52835e-05
6.9959e-05
7.32983e-05
7.32897e-05
6.52721e-05
7.4185e-05
7.4218e-05
7.32845e-05
6.52564e-05
6.99534e-05
6.52689e-05
7.42146e-05
7.3293e-05
7.41705e-05
7.32765e-05
6.52521e-05
6.99507e-05
7.41669e-05
7.3285e-05
6.52641e-05
9.50082e-05
7.3521e-05
7.35272e-05
7.35076e-05
7.35138e-05
9.50097e-05
7.12093e-05
7.12078e-05
7.34346e-05
7.18734e-05
7.1605e-05
7.16336e-05
6.85855e-05
7.18644e-05
7.16128e-05
7.16424e-05
7.17094e-05
7.3463e-05
7.98094e-05
7.98021e-05
7.17235e-05
7.17105e-05
7.97902e-05
7.34579e-05
7.16964e-05
7.97978e-05
7.18786e-05
6.85905e-05
7.16251e-05
7.16565e-05
7.16173e-05
7.16475e-05
7.18876e-05
7.18721e-05
7.15967e-05
7.16325e-05
6.85818e-05
7.18624e-05
7.16044e-05
7.16413e-05
7.17083e-05
7.34605e-05
7.97924e-05
7.97852e-05
7.17226e-05
7.17096e-05
7.97734e-05
7.34554e-05
7.16954e-05
7.97807e-05
7.18758e-05
6.85868e-05
7.16167e-05
7.16554e-05
7.16091e-05
7.16464e-05
7.18856e-05
9.49969e-05
7.35155e-05
7.35088e-05
7.41804e-05
6.528e-05
6.99544e-05
7.32979e-05
7.41839e-05
6.52686e-05
7.32888e-05
7.42281e-05
6.52884e-05
6.99628e-05
7.33074e-05
7.42316e-05
6.52767e-05
7.32987e-05
7.41692e-05
6.99463e-05
6.52605e-05
7.32841e-05
7.42167e-05
6.52569e-05
6.99545e-05
6.52691e-05
7.32938e-05
9.50083e-05
7.35277e-05
7.35211e-05
9.50102e-05
7.35144e-05
7.35077e-05
7.1209e-05
7.12075e-05
7.12117e-05
7.12102e-05
7.1233e-05
7.12345e-05
7.12361e-05
7.12376e-05
9.50385e-05
7.35519e-05
7.35451e-05
7.35386e-05
7.35318e-05
9.50401e-05
7.41998e-05
6.52908e-05
7.33033e-05
6.99742e-05
7.41971e-05
7.33121e-05
6.53005e-05
7.4246e-05
6.52971e-05
7.33127e-05
6.99824e-05
7.42428e-05
7.33214e-05
6.53083e-05
9.50273e-05
7.35264e-05
7.35197e-05
9.50257e-05
7.35398e-05
7.35331e-05
7.42109e-05
7.33252e-05
6.99832e-05
6.53187e-05
7.33167e-05
7.42135e-05
6.53093e-05
7.42566e-05
7.33345e-05
6.99911e-05
6.53264e-05
7.33261e-05
7.42596e-05
6.53155e-05
7.12589e-05
7.1262e-05
9.50526e-05
7.35506e-05
7.35439e-05
9.5051e-05
7.35639e-05
7.35571e-05
7.42267e-05
7.333e-05
6.53271e-05
6.99975e-05
7.42244e-05
7.33384e-05
6.53362e-05
7.42728e-05
7.33393e-05
6.53333e-05
7.00055e-05
7.427e-05
7.33477e-05
6.53438e-05
7.1903e-05
6.86182e-05
7.16851e-05
7.16449e-05
7.16763e-05
7.16376e-05
7.19159e-05
7.17353e-05
7.97988e-05
7.34812e-05
7.17212e-05
7.98061e-05
7.19025e-05
6.86134e-05
7.16623e-05
7.16257e-05
7.16714e-05
7.18892e-05
7.16334e-05
7.1734e-05
7.98173e-05
7.34863e-05
7.98102e-05
7.1748e-05
7.19303e-05
7.16905e-05
7.16544e-05
6.86399e-05
7.19173e-05
7.16995e-05
7.16616e-05
7.17614e-05
7.98401e-05
7.3512e-05
7.17474e-05
7.98468e-05
7.19294e-05
7.16901e-05
7.16491e-05
6.86383e-05
7.19165e-05
7.16991e-05
7.16564e-05
7.17607e-05
7.98213e-05
7.35085e-05
7.17467e-05
7.98282e-05
9.50353e-05
7.35455e-05
7.35518e-05
7.35322e-05
7.35385e-05
9.50374e-05
7.42467e-05
6.52941e-05
7.33107e-05
6.99737e-05
7.33195e-05
7.42424e-05
6.53046e-05
7.42001e-05
6.52908e-05
7.33023e-05
6.99755e-05
6.53016e-05
7.41957e-05
7.33141e-05
9.50247e-05
7.35201e-05
7.35266e-05
7.35334e-05
9.50225e-05
7.35399e-05
7.42561e-05
7.33326e-05
6.9983e-05
6.53227e-05
7.33241e-05
6.53125e-05
7.42604e-05
7.42095e-05
7.33274e-05
6.99832e-05
6.53196e-05
6.53093e-05
7.33156e-05
7.42138e-05
7.12341e-05
7.12355e-05
7.12601e-05
9.50499e-05
7.35442e-05
7.35504e-05
9.50479e-05
7.35574e-05
7.35637e-05
7.42735e-05
7.33374e-05
6.53303e-05
6.99968e-05
6.53402e-05
7.42694e-05
7.33458e-05
7.4227e-05
7.33288e-05
6.53271e-05
6.99985e-05
7.42228e-05
7.33404e-05
6.53371e-05
7.126e-05
7.19028e-05
6.86161e-05
7.16866e-05
7.1645e-05
7.16747e-05
7.16345e-05
7.19158e-05
7.17344e-05
7.9796e-05
7.34828e-05
7.17203e-05
7.98033e-05
7.19023e-05
6.86138e-05
7.16609e-05
7.16227e-05
7.16726e-05
7.18891e-05
7.16333e-05
7.17331e-05
7.98145e-05
7.3486e-05
7.98074e-05
7.17472e-05
7.19304e-05
7.16512e-05
7.16895e-05
6.86403e-05
7.19174e-05
7.16613e-05
7.17011e-05
7.17617e-05
7.98376e-05
7.35145e-05
7.17477e-05
7.98446e-05
7.19292e-05
7.16889e-05
7.16463e-05
6.86389e-05
7.19162e-05
7.17006e-05
7.16565e-05
7.17598e-05
7.98185e-05
7.35101e-05
7.17458e-05
7.98254e-05
7.19044e-05
6.86157e-05
7.16448e-05
7.16846e-05
7.16358e-05
7.16758e-05
7.19135e-05
7.17349e-05
7.98123e-05
7.34847e-05
7.98149e-05
7.17202e-05
7.19001e-05
6.86126e-05
7.16239e-05
7.16616e-05
7.16331e-05
7.18905e-05
7.16709e-05
7.1733e-05
7.9826e-05
7.34896e-05
7.98235e-05
7.17476e-05
7.19049e-05
6.86161e-05
7.16862e-05
7.16443e-05
7.16744e-05
7.16356e-05
7.19138e-05
7.17348e-05
7.9795e-05
7.34817e-05
7.17207e-05
7.98023e-05
7.19003e-05
6.86136e-05
7.16605e-05
7.16243e-05
7.18908e-05
7.16723e-05
7.16323e-05
7.17335e-05
7.98135e-05
7.34866e-05
7.98064e-05
7.17475e-05
7.19279e-05
7.16475e-05
7.16896e-05
6.86377e-05
7.19177e-05
7.16562e-05
7.16986e-05
7.17603e-05
7.98345e-05
7.35119e-05
7.17457e-05
7.9837e-05
7.19271e-05
7.16885e-05
7.16464e-05
6.86387e-05
7.19182e-05
7.17002e-05
7.16561e-05
7.17602e-05
7.98175e-05
7.35089e-05
7.17462e-05
7.98244e-05
9.50339e-05
7.35452e-05
7.35514e-05
7.3532e-05
7.35381e-05
9.50355e-05
7.42468e-05
6.52954e-05
7.33112e-05
6.99778e-05
7.33199e-05
7.42435e-05
6.5307e-05
7.41992e-05
6.52912e-05
7.33032e-05
6.99752e-05
6.53021e-05
7.4196e-05
7.33119e-05
9.50227e-05
7.35198e-05
7.3526e-05
7.35332e-05
9.50212e-05
7.35393e-05
7.42574e-05
7.3333e-05
6.99856e-05
6.5325e-05
7.33246e-05
6.53138e-05
7.42603e-05
7.42098e-05
7.33251e-05
6.99831e-05
6.53202e-05
6.53096e-05
7.33166e-05
7.42128e-05
7.12342e-05
7.12356e-05
7.12614e-05
9.5048e-05
7.3544e-05
7.35501e-05
9.50465e-05
7.35572e-05
7.35634e-05
7.42736e-05
7.33378e-05
6.53316e-05
7.0001e-05
6.53425e-05
7.42708e-05
7.33462e-05
7.42261e-05
7.33298e-05
6.53274e-05
6.99984e-05
7.42233e-05
7.33382e-05
6.53378e-05
7.12601e-05
7.19061e-05
6.8617e-05
7.16488e-05
7.16845e-05
7.16416e-05
7.16758e-05
7.19149e-05
7.17363e-05
7.98136e-05
7.34858e-05
7.98208e-05
7.17222e-05
7.19014e-05
6.86121e-05
7.16298e-05
7.16617e-05
7.16374e-05
7.1892e-05
7.16709e-05
7.1735e-05
7.98318e-05
7.34907e-05
7.9825e-05
7.1749e-05
7.1904e-05
6.86134e-05
7.16407e-05
7.16834e-05
7.16336e-05
7.16747e-05
7.19128e-05
7.17354e-05
7.97967e-05
7.34833e-05
7.17212e-05
7.98038e-05
7.18994e-05
6.86085e-05
7.16216e-05
7.16607e-05
7.18901e-05
7.16291e-05
7.16697e-05
7.1734e-05
7.9815e-05
7.34882e-05
7.98081e-05
7.17481e-05
7.19282e-05
7.1653e-05
7.16895e-05
6.86369e-05
7.19194e-05
7.16602e-05
7.16985e-05
7.17616e-05
7.9836e-05
7.3513e-05
7.17477e-05
7.98427e-05
7.19261e-05
7.16451e-05
7.16884e-05
6.86334e-05
7.19172e-05
7.16522e-05
7.16974e-05
7.17607e-05
7.98192e-05
7.35105e-05
7.17467e-05
7.98259e-05
7.12339e-05
7.12353e-05
7.12366e-05
7.1238e-05
9.50487e-05
7.35507e-05
7.3544e-05
9.50468e-05
7.35639e-05
7.35572e-05
7.42249e-05
7.3327e-05
6.53241e-05
6.99939e-05
7.42219e-05
6.53343e-05
7.33385e-05
7.42724e-05
7.33386e-05
6.53321e-05
7.00021e-05
7.42694e-05
6.53426e-05
7.3347e-05
7.12598e-05
7.12625e-05
3.89039e-05
3.1904e-05
3.22682e-05
3.22658e-05
3.92869e-05
3.23845e-05
3.23822e-05
2.34443e-05
2.33007e-05
6.59936e-05
5.95678e-05
5.95696e-05
5.36584e-05
6.599e-05
5.95654e-05
5.95665e-05
6.59712e-05
5.36297e-05
5.95381e-05
5.95381e-05
5.95402e-05
5.95408e-05
6.5975e-05
6.59701e-05
5.36209e-05
5.9538e-05
5.95416e-05
5.95353e-05
5.95382e-05
6.59756e-05
6.5971e-05
5.36336e-05
5.95373e-05
5.95398e-05
5.95407e-05
5.95433e-05
6.59752e-05
6.59696e-05
5.36293e-05
5.95351e-05
5.95367e-05
6.59736e-05
5.95382e-05
5.954e-05
6.59955e-05
5.95694e-05
5.95701e-05
5.36593e-05
6.59918e-05
5.95684e-05
5.95684e-05
6.59957e-05
5.95649e-05
5.95681e-05
5.36639e-05
5.95712e-05
6.59903e-05
5.95677e-05
6.59957e-05
5.95702e-05
5.95728e-05
5.36587e-05
5.95694e-05
6.59914e-05
5.9567e-05
3.89081e-05
3.19092e-05
3.90026e-05
3.21491e-05
3.21466e-05
3.20293e-05
3.20265e-05
2.30094e-05
2.31552e-05
3.90027e-05
3.21488e-05
3.21484e-05
3.2029e-05
3.20286e-05
2.30101e-05
2.31559e-05
3.9007e-05
3.21521e-05
3.21524e-05
3.2032e-05
3.20326e-05
2.30135e-05
2.31593e-05
3.90056e-05
3.21535e-05
3.21514e-05
3.20331e-05
3.20319e-05
2.30143e-05
2.31601e-05
6.47855e-05
6.03749e-05
6.03761e-05
3.22677e-05
3.22673e-05
3.92861e-05
3.2384e-05
3.23837e-05
2.3445e-05
2.33013e-05
3.22713e-05
3.22714e-05
3.92915e-05
3.23878e-05
3.23878e-05
2.34484e-05
2.33047e-05
3.22722e-05
3.22705e-05
3.92895e-05
3.23888e-05
3.23867e-05
2.34491e-05
2.33055e-05
3.93789e-05
3.25001e-05
3.2498e-05
2.35876e-05
3.93781e-05
3.24997e-05
3.24992e-05
2.35883e-05
3.93834e-05
3.25035e-05
3.25034e-05
2.35917e-05
3.93816e-05
3.25042e-05
3.25025e-05
2.35924e-05
5.64376e-05
6.07051e-05
6.24054e-05
5.51707e-05
6.23899e-05
5.51684e-05
5.64289e-05
5.74778e-05
6.04503e-05
6.42506e-05
6.48421e-05
5.74888e-05
6.04489e-05
6.42602e-05
5.63953e-05
6.0699e-05
6.23703e-05
5.51321e-05
5.64042e-05
6.23847e-05
5.51341e-05
5.75154e-05
6.42776e-05
6.48474e-05
6.04725e-05
6.04733e-05
6.42685e-05
5.75086e-05
5.64417e-05
6.07079e-05
5.51629e-05
6.24067e-05
5.51778e-05
6.23959e-05
5.64294e-05
5.74789e-05
6.04518e-05
6.42533e-05
6.48432e-05
5.74908e-05
6.04511e-05
6.42627e-05
5.63966e-05
6.06981e-05
5.514e-05
6.23758e-05
5.64087e-05
5.51262e-05
6.2387e-05
5.75198e-05
6.42801e-05
6.48484e-05
6.04746e-05
6.04749e-05
6.42711e-05
5.7509e-05
6.60099e-05
5.3708e-05
5.95938e-05
5.95948e-05
5.95962e-05
5.95978e-05
6.60134e-05
6.59283e-05
5.35426e-05
5.94758e-05
5.9476e-05
6.59326e-05
5.94785e-05
5.94789e-05
6.59541e-05
5.35698e-05
5.95096e-05
5.951e-05
6.595e-05
5.95077e-05
5.95077e-05
5.73875e-05
6.42062e-05
6.47837e-05
6.03757e-05
6.41953e-05
6.03695e-05
5.73901e-05
5.63257e-05
6.2332e-05
5.50631e-05
6.06523e-05
5.63352e-05
6.23442e-05
5.50503e-05
5.74526e-05
6.04235e-05
6.48162e-05
6.42439e-05
6.04233e-05
6.4234e-05
5.74491e-05
5.74202e-05
6.42148e-05
6.03962e-05
6.48106e-05
6.03992e-05
5.74198e-05
6.42252e-05
5.63708e-05
6.06623e-05
6.23656e-05
5.50861e-05
6.23537e-05
5.51002e-05
5.63608e-05
5.63203e-05
6.23272e-05
5.50612e-05
6.06506e-05
5.6332e-05
6.23395e-05
5.5048e-05
5.74526e-05
6.042e-05
6.48122e-05
6.42357e-05
6.4226e-05
6.04189e-05
5.74405e-05
5.74092e-05
6.42069e-05
6.03939e-05
6.48064e-05
5.74215e-05
6.42171e-05
6.03955e-05
5.63673e-05
6.06606e-05
6.23608e-05
5.5084e-05
6.23489e-05
5.50983e-05
5.63558e-05
5.35797e-05
5.95051e-05
5.95072e-05
5.62954e-05
6.06105e-05
6.23228e-05
5.50192e-05
6.23047e-05
5.50162e-05
5.62903e-05
5.73861e-05
6.42059e-05
6.47854e-05
6.03772e-05
6.4193e-05
6.03714e-05
5.73878e-05
5.62929e-05
6.06091e-05
5.50182e-05
6.2319e-05
5.50151e-05
6.23007e-05
5.6288e-05
5.73826e-05
6.41985e-05
6.47812e-05
6.03739e-05
6.41855e-05
5.73845e-05
6.0369e-05
5.63264e-05
6.23275e-05
5.50558e-05
6.06533e-05
5.63314e-05
6.23448e-05
5.50589e-05
5.74483e-05
6.04277e-05
6.48176e-05
6.42438e-05
6.04219e-05
6.42318e-05
5.74496e-05
5.74192e-05
6.42127e-05
6.03968e-05
6.48127e-05
6.04019e-05
5.74162e-05
6.42249e-05
5.63667e-05
6.06598e-05
6.23664e-05
5.50969e-05
6.23496e-05
5.50942e-05
5.63614e-05
5.63241e-05
5.50548e-05
6.23235e-05
6.06519e-05
5.6329e-05
5.5058e-05
6.23411e-05
5.7445e-05
6.04247e-05
6.4814e-05
6.42365e-05
6.42243e-05
6.04201e-05
5.74463e-05
5.74159e-05
6.42053e-05
6.03947e-05
6.48086e-05
5.74128e-05
6.42176e-05
6.03996e-05
5.63643e-05
6.06583e-05
5.50959e-05
6.23627e-05
5.50933e-05
6.23456e-05
5.63592e-05
5.74576e-05
6.0424e-05
6.48172e-05
6.42421e-05
5.74466e-05
6.04252e-05
6.42321e-05
5.637e-05
6.0659e-05
6.23635e-05
5.50978e-05
5.63608e-05
6.23505e-05
5.50952e-05
5.74477e-05
6.04236e-05
6.48124e-05
6.42367e-05
6.42249e-05
6.04189e-05
5.74484e-05
5.63668e-05
6.06587e-05
5.50973e-05
6.23632e-05
5.50944e-05
6.23464e-05
5.63599e-05
6.59271e-05
5.35454e-05
5.94737e-05
5.94773e-05
5.94803e-05
5.9477e-05
6.59322e-05
6.59541e-05
5.35731e-05
5.95098e-05
5.95122e-05
5.95071e-05
6.59495e-05
5.95097e-05
5.63264e-05
5.50661e-05
6.2333e-05
6.06518e-05
5.63393e-05
5.50521e-05
6.23448e-05
5.74604e-05
6.04267e-05
6.48178e-05
6.42447e-05
5.74494e-05
6.04276e-05
6.42348e-05
5.74173e-05
6.42159e-05
6.04027e-05
6.48123e-05
5.74297e-05
6.04023e-05
6.42261e-05
5.63749e-05
6.06618e-05
5.50879e-05
6.23663e-05
5.63624e-05
5.51031e-05
6.23542e-05
5.6321e-05
5.50646e-05
6.23259e-05
6.0649e-05
5.63333e-05
5.50502e-05
6.23378e-05
5.74537e-05
6.04229e-05
6.48153e-05
6.42361e-05
6.42263e-05
6.04242e-05
5.74423e-05
5.74104e-05
6.42074e-05
6.03989e-05
6.48095e-05
5.74226e-05
6.42174e-05
6.03981e-05
5.63692e-05
6.06591e-05
5.50875e-05
6.23591e-05
5.5102e-05
6.23473e-05
5.63567e-05
6.59523e-05
5.35702e-05
5.95093e-05
5.95046e-05
5.95066e-05
6.60117e-05
5.37093e-05
5.95971e-05
5.95971e-05
6.60152e-05
5.9598e-05
5.95989e-05
6.60342e-05
5.37424e-05
5.96262e-05
5.96272e-05
6.60311e-05
5.96254e-05
5.96253e-05
5.64395e-05
6.07086e-05
6.24066e-05
5.51614e-05
6.23957e-05
5.51766e-05
5.64282e-05
5.74783e-05
6.04494e-05
6.42526e-05
6.48415e-05
6.42622e-05
5.74884e-05
6.0449e-05
5.63951e-05
6.06988e-05
6.23753e-05
5.51379e-05
6.23868e-05
5.64057e-05
5.51244e-05
5.75199e-05
6.428e-05
6.48468e-05
6.04746e-05
6.42708e-05
6.04735e-05
5.75082e-05
5.64351e-05
6.07069e-05
6.24017e-05
5.51592e-05
6.23908e-05
5.51744e-05
5.64232e-05
5.74703e-05
6.04439e-05
6.42444e-05
6.48371e-05
5.74824e-05
6.4254e-05
6.04444e-05
5.63903e-05
6.06971e-05
6.23704e-05
5.5136e-05
5.64017e-05
6.2382e-05
5.51225e-05
5.75123e-05
6.42716e-05
6.48427e-05
6.04667e-05
6.42626e-05
5.75003e-05
6.04677e-05
5.64609e-05
6.24154e-05
5.52108e-05
6.07421e-05
5.64724e-05
6.24261e-05
5.51961e-05
5.75365e-05
6.42884e-05
6.04956e-05
6.48705e-05
6.04967e-05
5.75494e-05
6.42971e-05
5.6456e-05
6.24104e-05
5.52089e-05
6.07404e-05
5.64678e-05
6.24211e-05
5.51941e-05
5.7529e-05
6.42799e-05
6.04918e-05
6.4866e-05
5.75406e-05
6.42887e-05
6.04916e-05
6.60105e-05
5.37024e-05
5.95966e-05
5.96e-05
5.9597e-05
5.95939e-05
6.60158e-05
6.60347e-05
5.37429e-05
5.9622e-05
5.96251e-05
5.96247e-05
6.60296e-05
5.9628e-05
5.64359e-05
6.07057e-05
6.24073e-05
5.51707e-05
6.23912e-05
5.51684e-05
5.64297e-05
5.74806e-05
6.04469e-05
6.42505e-05
6.48436e-05
6.42619e-05
5.74788e-05
6.04518e-05
5.63958e-05
6.06999e-05
6.2371e-05
5.51307e-05
6.23872e-05
5.64019e-05
5.51333e-05
5.75088e-05
6.42795e-05
6.48482e-05
6.04754e-05
6.42684e-05
6.04707e-05
5.75103e-05
5.64336e-05
6.07044e-05
5.51697e-05
6.24037e-05
5.51674e-05
6.23874e-05
5.64274e-05
5.74772e-05
6.04442e-05
6.4243e-05
6.48395e-05
5.74754e-05
6.42546e-05
6.04484e-05
5.63935e-05
6.06985e-05
5.51297e-05
6.23671e-05
5.63996e-05
5.51322e-05
6.23835e-05
5.75053e-05
6.42722e-05
6.48445e-05
6.0472e-05
6.42609e-05
5.75068e-05
6.0468e-05
5.64618e-05
6.24113e-05
5.52039e-05
6.07437e-05
5.64688e-05
6.24268e-05
5.52051e-05
5.75394e-05
6.42858e-05
6.0494e-05
6.48724e-05
6.04981e-05
5.75383e-05
6.42965e-05
5.64594e-05
5.52028e-05
6.24075e-05
6.07423e-05
5.64664e-05
5.52041e-05
6.24231e-05
5.75338e-05
6.42784e-05
6.049e-05
6.48685e-05
5.7534e-05
6.42891e-05
6.04955e-05
5.64355e-05
6.07049e-05
5.51707e-05
6.24044e-05
5.51684e-05
6.23884e-05
5.64285e-05
5.74792e-05
6.04432e-05
6.42439e-05
6.48382e-05
6.04475e-05
5.74777e-05
6.42549e-05
5.63947e-05
6.06989e-05
5.51309e-05
6.23681e-05
5.51333e-05
5.64016e-05
6.23842e-05
5.75075e-05
6.42726e-05
6.48431e-05
6.04712e-05
6.04672e-05
6.42617e-05
5.7509e-05
5.64612e-05
6.24101e-05
5.52031e-05
6.07426e-05
5.64699e-05
6.24249e-05
5.52049e-05
5.7538e-05
6.42856e-05
6.04962e-05
6.48709e-05
5.75438e-05
6.04958e-05
6.42948e-05
5.6461e-05
5.5204e-05
6.24086e-05
6.07428e-05
5.64683e-05
5.52056e-05
6.2424e-05
5.75381e-05
6.42793e-05
6.04903e-05
6.48672e-05
5.75369e-05
6.42897e-05
6.0494e-05
6.60114e-05
5.37119e-05
5.95956e-05
5.95982e-05
5.96015e-05
5.95989e-05
6.60151e-05
6.60345e-05
5.37438e-05
5.96271e-05
5.96298e-05
5.9624e-05
6.60309e-05
5.96266e-05
5.64367e-05
6.07054e-05
5.51614e-05
6.24002e-05
5.51768e-05
6.23893e-05
5.64244e-05
5.74713e-05
6.04481e-05
6.42447e-05
6.48403e-05
6.04472e-05
5.74833e-05
6.42542e-05
5.63915e-05
6.06956e-05
5.51389e-05
6.23688e-05
5.51252e-05
5.64034e-05
6.23804e-05
5.75135e-05
6.42718e-05
6.48459e-05
6.04705e-05
6.04716e-05
6.42628e-05
5.75014e-05
5.64621e-05
5.52116e-05
6.24155e-05
6.07415e-05
5.6474e-05
5.51973e-05
6.24262e-05
5.75396e-05
6.42883e-05
6.04979e-05
6.48719e-05
5.75463e-05
6.04989e-05
6.42972e-05
5.64573e-05
5.52109e-05
6.2409e-05
6.0739e-05
5.64694e-05
5.5196e-05
6.24197e-05
5.753e-05
6.42801e-05
6.04944e-05
6.48692e-05
5.75426e-05
6.42888e-05
6.0494e-05
6.60326e-05
5.37406e-05
5.96247e-05
5.96262e-05
6.60294e-05
5.9622e-05
5.9623e-05
3.95567e-05
5.17809e-05
5.17848e-05
5.38261e-05
3.98921e-05
5.1962e-05
5.1966e-05
5.39691e-05
4.02007e-05
5.21228e-05
5.21269e-05
5.40956e-05
4.04832e-05
5.22639e-05
5.22679e-05
5.42068e-05
4.07402e-05
5.23858e-05
5.23897e-05
5.43032e-05
4.09724e-05
5.2489e-05
5.24929e-05
5.43846e-05
4.11808e-05
5.25744e-05
5.25782e-05
5.44513e-05
4.1366e-05
5.26425e-05
5.26463e-05
5.4504e-05
4.1529e-05
5.26941e-05
5.26978e-05
5.4543e-05
4.16707e-05
5.27298e-05
5.27335e-05
5.45695e-05
4.17918e-05
5.27503e-05
5.2754e-05
5.45909e-05
4.18933e-05
5.27564e-05
5.27601e-05
5.45936e-05
4.19757e-05
5.27503e-05
5.2754e-05
5.45811e-05
4.20402e-05
5.27316e-05
5.27354e-05
5.45576e-05
4.20883e-05
5.2701e-05
5.27051e-05
5.45254e-05
4.21212e-05
5.26592e-05
5.26638e-05
5.44857e-05
4.21397e-05
5.26074e-05
5.26123e-05
5.44379e-05
4.21436e-05
5.25467e-05
5.25514e-05
5.43816e-05
4.21094e-05
5.24698e-05
5.24738e-05
5.43058e-05
4.37889e-05
5.05449e-05
5.05484e-05
5.39493e-05
5.37819e-05
5.17325e-05
5.17275e-05
5.37819e-05
5.17299e-05
5.17308e-05
5.17317e-05
5.17313e-05
5.37835e-05
5.17356e-05
5.17293e-05
5.37804e-05
5.3827e-05
5.39292e-05
5.17817e-05
5.17767e-05
5.19187e-05
5.19135e-05
5.38232e-05
5.39284e-05
5.17791e-05
5.17801e-05
5.19161e-05
5.19171e-05
5.17806e-05
5.19177e-05
5.19176e-05
5.38293e-05
5.39309e-05
5.17785e-05
5.19218e-05
5.19155e-05
5.3928e-05
5.39701e-05
5.40606e-05
5.1963e-05
5.19578e-05
5.20843e-05
5.2079e-05
5.39673e-05
5.40591e-05
5.19605e-05
5.19614e-05
5.20819e-05
5.20828e-05
5.19619e-05
5.20833e-05
5.20831e-05
5.3972e-05
5.40616e-05
5.19598e-05
5.20874e-05
5.20812e-05
5.40594e-05
5.40969e-05
5.41756e-05
5.21239e-05
5.21186e-05
5.223e-05
5.22247e-05
5.40949e-05
5.41732e-05
5.21214e-05
5.21224e-05
5.22276e-05
5.22285e-05
5.21227e-05
5.2229e-05
5.22288e-05
5.40993e-05
5.41763e-05
5.21208e-05
5.2233e-05
5.22269e-05
5.41741e-05
5.42082e-05
5.42746e-05
5.2265e-05
5.22597e-05
5.23563e-05
5.23509e-05
5.42066e-05
5.42721e-05
5.22626e-05
5.22635e-05
5.2354e-05
5.23549e-05
5.22638e-05
5.23553e-05
5.23551e-05
5.42105e-05
5.42754e-05
5.22619e-05
5.23592e-05
5.23533e-05
5.42733e-05
5.43045e-05
5.43585e-05
5.23868e-05
5.23814e-05
5.24639e-05
5.24586e-05
5.43028e-05
5.43562e-05
5.23845e-05
5.23854e-05
5.24617e-05
5.24625e-05
5.23857e-05
5.2463e-05
5.24628e-05
5.43063e-05
5.43593e-05
5.23838e-05
5.24668e-05
5.2461e-05
5.43574e-05
5.43857e-05
5.44278e-05
5.249e-05
5.24846e-05
5.25534e-05
5.25481e-05
5.4384e-05
5.44256e-05
5.24878e-05
5.24886e-05
5.25513e-05
5.25521e-05
5.24889e-05
5.25525e-05
5.25523e-05
5.43871e-05
5.44286e-05
5.24871e-05
5.25563e-05
5.25506e-05
5.44268e-05
5.44523e-05
5.4483e-05
5.25753e-05
5.257e-05
5.26256e-05
5.26202e-05
5.44505e-05
5.44807e-05
5.25732e-05
5.2574e-05
5.26235e-05
5.26241e-05
5.25742e-05
5.26246e-05
5.26244e-05
5.44535e-05
5.44837e-05
5.25725e-05
5.26283e-05
5.26228e-05
5.44817e-05
5.45048e-05
5.45246e-05
5.26435e-05
5.26381e-05
5.2681e-05
5.26756e-05
5.45029e-05
5.45222e-05
5.26415e-05
5.26421e-05
5.26791e-05
5.26796e-05
5.26424e-05
5.268e-05
5.26799e-05
5.45058e-05
5.45251e-05
5.26407e-05
5.26837e-05
5.26782e-05
5.45234e-05
5.45438e-05
5.45533e-05
5.26951e-05
5.26897e-05
5.27208e-05
5.27154e-05
5.45418e-05
5.45509e-05
5.26932e-05
5.26937e-05
5.27189e-05
5.27193e-05
5.2694e-05
5.27197e-05
5.27196e-05
5.45446e-05
5.45538e-05
5.26923e-05
5.27234e-05
5.2718e-05
5.45518e-05
5.45699e-05
5.45721e-05
5.27308e-05
5.27255e-05
5.27457e-05
5.27404e-05
5.4568e-05
5.45696e-05
5.27289e-05
5.27294e-05
5.27439e-05
5.27443e-05
5.27297e-05
5.27448e-05
5.27446e-05
5.45706e-05
5.45723e-05
5.27281e-05
5.27484e-05
5.2743e-05
5.45662e-05
5.45852e-05
5.4577e-05
5.27513e-05
5.2746e-05
5.27567e-05
5.27513e-05
5.4583e-05
5.45738e-05
5.27495e-05
5.27499e-05
5.27549e-05
5.27553e-05
5.27502e-05
5.27557e-05
5.27555e-05
5.45861e-05
5.45766e-05
5.27486e-05
5.27594e-05
5.27539e-05
5.45681e-05
5.45882e-05
5.45675e-05
5.27574e-05
5.2752e-05
5.2753e-05
5.27477e-05
5.45863e-05
5.45653e-05
5.27557e-05
5.2756e-05
5.27513e-05
5.27516e-05
5.27562e-05
5.27522e-05
5.27518e-05
5.4589e-05
5.45684e-05
5.27546e-05
5.27558e-05
5.27503e-05
5.45597e-05
5.45774e-05
5.45418e-05
5.27512e-05
5.27459e-05
5.27363e-05
5.2731e-05