/*--------------------------------*- C++ -*----------------------------------*\
| =========                 |                                                 |
| \\      /  F ield         | OpenFOAM: The Open Source CFD Toolbox           |
|  \\    /   O peration     | Version:  2312                                  |
|   \\  /    A nd           | Website:  www.openfoam.com                      |
|    \\/     M anipulation  |                                                 |
\*---------------------------------------------------------------------------*/
FoamFile
{
    version     2.0;
    format      ascii;
    arch        "LSB;label=32;scalar=64";
    class       volScalarField;
    location    "1000";
    object      epsilon;
}
// * * * * * * * * * * * * * * * * * * * * * * * * * * * * * * * * * * * * * //

dimensions      [0 2 -3 0 0 0 0];

internalField   nonuniform List<scalar> 
43120
(
1.33732e-07
2.3088e-07
2.30891e-07
3.58401e-07
1.31589e-07
2.41545e-07
2.41556e-07
3.84515e-07
1.30242e-07
2.54304e-07
2.54314e-07
4.13513e-07
1.29678e-07
2.6909e-07
2.69122e-07
4.4507e-07
1.299e-07
2.85864e-07
2.85892e-07
4.7874e-07
1.30899e-07
3.04652e-07
3.04659e-07
5.14156e-07
1.32698e-07
3.25152e-07
3.25151e-07
5.51016e-07
1.35201e-07
3.46939e-07
3.47075e-07
5.88174e-07
1.38426e-07
3.70718e-07
3.70686e-07
6.2533e-07
1.4251e-07
3.96044e-07
3.96058e-07
6.64025e-07
1.47363e-07
4.21725e-07
4.22353e-07
7.01404e-07
1.5304e-07
4.49097e-07
4.49277e-07
7.38429e-07
1.60646e-07
4.79018e-07
4.77921e-07
7.76995e-07
1.67689e-07
5.10205e-07
5.09771e-07
8.12639e-07
1.72097e-07
5.33807e-07
5.43711e-07
8.45185e-07
1.85995e-07
5.58189e-07
5.63122e-07
8.73778e-07
1.94597e-07
6.0636e-07
5.81886e-07
9.1341e-07
1.91046e-07
6.4442e-07
6.0959e-07
9.50887e-07
1.95277e-07
6.59226e-07
6.66935e-07
9.5038e-07
2.48739e-07
6.51846e-07
7.21042e-07
9.50861e-07
2.70572e-07
6.39516e-07
6.97274e-07
1.00064e-06
2.38424e-07
7.5356e-07
6.36996e-07
1.04204e-06
2.23204e-07
7.83181e-07
7.90923e-07
1.02231e-06
2.93492e-07
8.1427e-07
8.78921e-07
1.15468e-06
3.5103e-07
8.69989e-07
8.14699e-07
1.14395e-06
2.96582e-07
8.29146e-07
8.20133e-07
1.06079e-06
8.2222e-07
3.52886e-07
2.2861e-07
2.28645e-07
3.52876e-07
2.28574e-07
2.2865e-07
2.28549e-07
2.28611e-07
3.52912e-07
2.28558e-07
2.28602e-07
3.52953e-07
3.5834e-07
3.78312e-07
2.30944e-07
2.30982e-07
2.38741e-07
2.38786e-07
3.58331e-07
3.78335e-07
2.30906e-07
2.30986e-07
2.38699e-07
2.38797e-07
2.30948e-07
2.38681e-07
2.38758e-07
3.58365e-07
3.78372e-07
2.30938e-07
2.38694e-07
2.38744e-07
3.7842e-07
3.84419e-07
4.06742e-07
2.41609e-07
2.41655e-07
2.51005e-07
2.51039e-07
3.84443e-07
4.06771e-07
2.41565e-07
2.41664e-07
2.50957e-07
2.5105e-07
2.4162e-07
2.50922e-07
2.50997e-07
3.84475e-07
4.06785e-07
2.41604e-07
2.50933e-07
2.50984e-07
4.06811e-07
4.13458e-07
4.37679e-07
2.54389e-07
2.54428e-07
2.65298e-07
2.65349e-07
4.13485e-07
4.37726e-07
2.54338e-07
2.54436e-07
2.65242e-07
2.65369e-07
2.54377e-07
2.65217e-07
2.65311e-07
4.13492e-07
4.37768e-07
2.54364e-07
2.65238e-07
2.653e-07
4.37819e-07
4.44922e-07
4.70836e-07
2.69183e-07
2.69222e-07
2.81579e-07
2.81613e-07
4.44962e-07
4.70832e-07
2.69125e-07
2.69254e-07
2.81519e-07
2.81644e-07
2.69208e-07
2.81495e-07
2.81613e-07
4.45021e-07
4.70913e-07
2.69194e-07
2.81516e-07
2.81597e-07
4.71031e-07
4.78558e-07
5.05785e-07
2.85944e-07
2.85986e-07
2.9978e-07
2.99912e-07
4.7855e-07
5.06005e-07
2.85883e-07
2.86018e-07
2.9971e-07
2.99922e-07
2.85997e-07
2.99772e-07
2.99828e-07
4.78632e-07
5.06044e-07
2.85976e-07
2.99782e-07
2.998e-07
5.06016e-07
5.13935e-07
5.42446e-07
3.04653e-07
3.04802e-07
3.19971e-07
3.20022e-07
5.14196e-07
5.42512e-07
3.04581e-07
3.04809e-07
3.1989e-07
3.2007e-07
3.04692e-07
3.1988e-07
3.19985e-07
5.14235e-07
5.42594e-07
3.04658e-07
3.19898e-07
3.19946e-07
5.42573e-07
5.50946e-07
5.79697e-07
3.25295e-07
3.25299e-07
3.41735e-07
3.41504e-07
5.50899e-07
5.79112e-07
3.2521e-07
3.25328e-07
3.41647e-07
3.41645e-07
3.25254e-07
3.41342e-07
3.41677e-07
5.5099e-07
5.79339e-07
3.25217e-07
3.41456e-07
3.41641e-07
5.79608e-07
5.88305e-07
6.16939e-07
3.47381e-07
3.47114e-07
3.64833e-07
3.64808e-07
5.8765e-07
6.16659e-07
3.47294e-07
3.47271e-07
3.64744e-07
3.64787e-07
3.47294e-07
3.6461e-07
3.64578e-07
5.87892e-07
6.16649e-07
3.47254e-07
3.64616e-07
3.64539e-07
6.16583e-07
6.25684e-07
6.54619e-07
3.70808e-07
3.70922e-07
3.89494e-07
3.89788e-07
6.25585e-07
6.55098e-07
3.70717e-07
3.70831e-07
3.89364e-07
3.89695e-07
3.70647e-07
3.89646e-07
3.89698e-07
6.25485e-07
6.5499e-07
3.70595e-07
3.89589e-07
3.89599e-07
6.54979e-07
6.63565e-07
6.92294e-07
3.95913e-07
3.96186e-07
4.15646e-07
4.15439e-07
6.63995e-07
6.91843e-07
3.95772e-07
3.96186e-07
4.15493e-07
4.15926e-07
3.96208e-07
4.15193e-07
4.15693e-07
6.64018e-07
6.92895e-07
3.96098e-07
4.15675e-07
4.15585e-07
6.92638e-07
7.01256e-07
7.30087e-07
4.22291e-07
4.2201e-07
4.42693e-07
4.42246e-07
7.00554e-07
7.28486e-07
4.22156e-07
4.22661e-07
4.42618e-07
4.42834e-07
4.22234e-07
4.4207e-07
4.42684e-07
7.01816e-07
7.29404e-07
4.22136e-07
4.42512e-07
4.4263e-07
7.29437e-07
7.39333e-07
7.71777e-07
4.49882e-07
4.49162e-07
4.73453e-07
4.71268e-07
7.37484e-07
7.67088e-07
4.49823e-07
4.49539e-07
4.73326e-07
4.70347e-07
4.49739e-07
4.71297e-07
4.71594e-07
7.38021e-07
7.65633e-07
4.49695e-07
4.70477e-07
4.71595e-07
7.67662e-07
7.81896e-07
8.08961e-07
4.81937e-07
4.79125e-07
5.05306e-07
5.03232e-07
7.76539e-07
8.05759e-07
4.81743e-07
4.77666e-07
5.04852e-07
5.01449e-07
4.79186e-07
5.02722e-07
5.01428e-07
7.74832e-07
8.05369e-07
4.79167e-07
5.01515e-07
5.01228e-07
8.04341e-07
8.15802e-07
8.29565e-07
5.10727e-07
5.10707e-07
5.23773e-07
5.28404e-07
8.14239e-07
8.33945e-07
5.10191e-07
5.09975e-07
5.23427e-07
5.36147e-07
5.08548e-07
5.28791e-07
5.30552e-07
8.15288e-07
8.46672e-07
5.08154e-07
5.35597e-07
5.29817e-07
8.37095e-07
8.36932e-07
8.78614e-07
5.30565e-07
5.33127e-07
5.62741e-07
5.5082e-07
8.40109e-07
8.59105e-07
5.30545e-07
5.44124e-07
5.63594e-07
5.59975e-07
5.37559e-07
5.50411e-07
5.55967e-07
8.55039e-07
8.69441e-07
5.37177e-07
5.59653e-07
5.5718e-07
8.66184e-07
8.91778e-07
9.17724e-07
5.74494e-07
5.59592e-07
5.99066e-07
5.9562e-07
8.68425e-07
9.11603e-07
5.75397e-07
5.63683e-07
5.99222e-07
5.77629e-07
5.62253e-07
5.92996e-07
5.87755e-07
8.73158e-07
8.81321e-07
5.63486e-07
5.76567e-07
5.87708e-07
9.02793e-07
9.19876e-07
8.85056e-07
6.01369e-07
6.08641e-07
5.95494e-07
6.36788e-07
9.24884e-07
9.5855e-07
6.01249e-07
5.8281e-07
5.94363e-07
6.00431e-07
5.98582e-07
6.37837e-07
6.29131e-07
8.87312e-07
9.05245e-07
5.98076e-07
6.00514e-07
6.27541e-07
9.4432e-07
8.84512e-07
8.8954e-07
5.92914e-07
6.42246e-07
5.97158e-07
6.52667e-07
9.64961e-07
9.70582e-07
5.91492e-07
6.08738e-07
5.9558e-07
6.46386e-07
6.35713e-07
6.56639e-07
6.44431e-07
9.14371e-07
9.65022e-07
6.33852e-07
6.5002e-07
6.4235e-07
9.48892e-07
9.09694e-07
1.04006e-06
6.15208e-07
6.55281e-07
7.08829e-07
6.5741e-07
9.73519e-07
9.516e-07
6.13603e-07
6.63028e-07
7.07138e-07
7.11881e-07
6.45691e-07
6.59266e-07
6.50417e-07
9.81114e-07
1.03667e-06
6.43556e-07
7.12373e-07
6.48102e-07
9.45541e-07
1.06765e-06
1.08786e-06
7.35158e-07
6.52999e-07
7.647e-07
6.41449e-07
9.4862e-07
9.02738e-07
7.34572e-07
7.22553e-07
7.70705e-07
7.24767e-07
6.53902e-07
6.36941e-07
6.87226e-07
1.04606e-06
1.00747e-06
6.52727e-07
7.19242e-07
6.95168e-07
9.85895e-07
1.08356e-06
9.70658e-07
7.58969e-07
6.44189e-07
7.01506e-07
7.27003e-07
9.09752e-07
1.02507e-06
7.67914e-07
7.04342e-07
7.01662e-07
6.4055e-07
7.03037e-07
7.2688e-07
7.39896e-07
9.96713e-07
8.75065e-07
7.11746e-07
6.40353e-07
7.41132e-07
1.04105e-06
9.64122e-07
9.35291e-07
6.87518e-07
7.51754e-07
6.73603e-07
7.82592e-07
1.05058e-06
1.08288e-06
6.82578e-07
6.3603e-07
6.63123e-07
7.32745e-07
7.43338e-07
7.85898e-07
7.376e-07
8.7527e-07
1.03976e-06
7.40725e-07
7.36542e-07
7.26667e-07
1.01493e-06
9.51573e-07
1.10627e-06
6.7897e-07
7.80717e-07
7.88223e-07
7.87492e-07
1.08255e-06
1.09008e-06
6.71301e-07
7.88385e-07
7.99113e-07
8.78378e-07
7.39016e-07
7.89817e-07
8.14184e-07
1.08372e-06
1.20228e-06
7.29744e-07
8.80467e-07
8.24473e-07
1.13162e-06
1.14431e-06
1.21439e-06
8.30281e-07
8.11029e-07
9.03416e-07
8.66336e-07
1.10882e-06
1.1734e-06
8.42082e-07
8.7638e-07
9.0578e-07
8.23051e-07
8.40216e-07
8.66201e-07
8.65495e-07
1.19578e-06
1.09272e-06
8.51767e-07
8.21184e-07
8.70695e-07
1.15301e-06
1.204e-06
1.03096e-06
8.99972e-07
8.72242e-07
7.91826e-07
8.44124e-07
1.17751e-06
1.113e-06
8.98861e-07
8.19073e-07
7.89508e-07
8.24526e-07
8.50345e-07
8.40394e-07
8.02382e-07
1.09061e-06
1.08801e-06
8.48062e-07
8.18472e-07
8.02413e-07
1.05803e-06
1.02027e-06
1.0755e-06
7.69879e-07
8.29428e-07
7.88061e-07
8.13212e-07
1.10935e-06
1.09841e-06
7.69383e-07
8.24634e-07
7.87749e-07
8.14888e-07
8.00639e-07
8.20339e-07
8.44537e-07
1.09155e-06
1.0889e-06
8.01978e-07
8.1755e-07
8.46129e-07
1.13421e-06
8.18239e-07
1.10143e-06
1.34399e-07
1.34404e-07
1.34406e-07
1.34408e-07
1.84894e-05
2.24282e-07
2.74414e-06
3.68263e-06
8.90839e-06
3.6486e-06
8.91348e-06
1.84669e-05
1.84585e-05
3.68284e-06
8.90963e-06
3.64856e-06
8.91473e-06
1.33735e-07
1.33739e-07
1.33742e-07
1.32052e-07
1.32057e-07
1.32063e-07
1.32065e-07
1.15858e-06
2.79625e-06
1.58588e-07
2.33352e-07
1.13064e-06
2.81993e-06
1.5882e-07
1.84676e-05
1.84592e-05
1.15861e-06
1.58608e-07
2.79634e-06
2.3336e-07
1.13075e-06
1.58817e-07
2.82001e-06
5.13129e-06
5.13297e-06
3.65305e-07
5.14375e-06
5.14559e-06
3.75882e-06
8.91951e-06
3.73202e-06
8.92419e-06
1.8438e-05
1.84303e-05
3.75904e-06
8.92076e-06
3.73198e-06
8.92541e-06
1.31594e-07
1.31598e-07
1.31599e-07
1.30514e-07
1.30514e-07
1.30521e-07
1.30524e-07
1.24239e-06
2.86622e-06
1.59956e-07
2.44546e-07
1.2152e-06
2.88722e-06
1.60519e-07
1.84388e-05
1.84311e-05
1.24248e-06
1.59978e-07
2.8663e-06
2.44554e-07
1.21525e-06
1.60518e-07
2.88732e-06
5.16602e-06
5.1677e-06
3.92267e-07
5.17603e-06
5.17786e-06
3.81834e-06
8.92956e-06
3.79765e-06
8.93375e-06
1.84114e-05
1.84043e-05
3.81848e-06
8.93089e-06
3.79761e-06
8.93496e-06
1.3025e-07
1.30252e-07
1.30252e-07
1.29762e-07
1.29766e-07
1.29776e-07
1.29779e-07
1.32302e-06
2.92821e-06
1.62652e-07
2.57822e-07
1.29706e-06
2.94668e-06
1.63554e-07
1.84122e-05
1.84053e-05
1.32317e-06
1.62682e-07
2.92835e-06
2.57829e-07
1.29715e-06
1.6356e-07
2.94685e-06
5.19462e-06
5.1963e-06
4.22011e-07
5.20293e-06
5.2047e-06
3.8638e-06
8.9383e-06
3.84824e-06
8.94181e-06
1.83872e-05
1.83807e-05
3.86396e-06
8.93958e-06
3.84817e-06
8.94304e-06
1.29682e-07
1.29691e-07
1.29697e-07
1.29773e-07
1.2978e-07
1.29787e-07
1.29795e-07
1.39913e-06
2.98274e-06
1.66709e-07
2.73102e-07
1.37478e-06
2.99895e-06
1.67964e-07
1.83877e-05
1.83817e-05
1.39928e-06
1.66746e-07
2.98287e-06
2.73131e-07
1.37484e-06
1.6797e-07
2.99921e-06
5.2185e-06
5.22018e-06
4.54189e-07
5.2255e-06
5.22726e-06
3.89841e-06
8.946e-06
3.8867e-06
8.94898e-06
1.83656e-05
1.83596e-05
3.89851e-06
8.94731e-06
3.88672e-06
8.95024e-06
1.29907e-07
1.29915e-07
1.29922e-07
1.30569e-07
1.30597e-07
1.30603e-07
1.30595e-07
1.4697e-06
3.0308e-06
1.7215e-07
2.90366e-07
1.44733e-06
3.04492e-06
1.73741e-07
1.8366e-05
1.83605e-05
1.46983e-06
1.72184e-07
3.03086e-06
2.90397e-07
1.44735e-06
1.73748e-07
3.04514e-06
5.23852e-06
5.24019e-06
4.88303e-07
5.24443e-06
5.24615e-06
3.92484e-06
8.95242e-06
3.91577e-06
8.95558e-06
1.83462e-05
1.83412e-05
3.92475e-06
8.95385e-06
3.91584e-06
8.95673e-06
1.30929e-07
1.3093e-07
1.30919e-07
1.32176e-07
1.32179e-07
1.32191e-07
1.32196e-07
1.53406e-06
3.07333e-06
1.78963e-07
3.09626e-07
1.51371e-06
3.08571e-06
1.80912e-07
1.83465e-05
1.83422e-05
1.5341e-06
1.78992e-07
3.07327e-06
3.09651e-07
1.51374e-06
1.80909e-07
3.086e-06
5.25537e-06
5.25708e-06
5.24147e-07
5.26067e-06
5.2624e-06
3.94479e-06
8.95892e-06
3.93823e-06
8.96153e-06
1.8329e-05
1.8325e-05
3.94499e-06
8.9603e-06
3.93833e-06
8.96297e-06
1.32693e-07
1.32692e-07
1.32697e-07
1.34515e-07
1.34443e-07
1.34484e-07
1.34516e-07
1.59264e-06
3.11135e-06
1.87177e-07
3.30485e-07
1.5743e-06
3.12221e-06
1.89462e-07
1.83296e-05
1.83254e-05
1.59258e-06
1.87207e-07
3.11112e-06
3.30499e-07
1.57426e-06
1.89459e-07
3.1223e-06
5.27048e-06
5.27215e-06
5.61082e-07
5.27535e-06
5.277e-06
3.96042e-06
8.965e-06
3.95572e-06
8.96721e-06
1.83129e-05
1.83096e-05
3.96043e-06
8.96616e-06
3.95555e-06
8.96848e-06
1.35126e-07
1.35171e-07
1.352e-07
1.37566e-07
1.37564e-07
1.3755e-07
1.37502e-07
1.64478e-06
3.14446e-06
1.96691e-07
3.52692e-07
1.62844e-06
3.15398e-06
1.99306e-07
1.83134e-05
1.83102e-05
1.6448e-06
1.96754e-07
3.14445e-06
3.52791e-07
1.62861e-06
1.99337e-07
3.15427e-06
5.28363e-06
5.28532e-06
5.98088e-07
5.28691e-06
5.28873e-06
3.97276e-06
8.97044e-06
3.96921e-06
8.97244e-06
1.82997e-05
1.82985e-05
3.97265e-06
8.97172e-06
3.96946e-06
8.97364e-06
1.38472e-07
1.38451e-07
1.38409e-07
1.41416e-07
1.41499e-07
1.41485e-07
1.415e-07
1.6917e-06
3.17406e-06
2.07594e-07
3.76926e-07
1.67692e-06
3.18348e-06
2.10576e-07
1.83005e-05
1.82981e-05
1.6919e-06
2.07695e-07
3.17419e-06
3.76876e-07
1.67719e-06
2.10633e-07
3.18305e-06
5.29511e-06
5.29665e-06
6.35568e-07
5.29744e-06
5.29925e-06
3.98314e-06
8.97597e-06
3.9799e-06
8.97878e-06
1.82905e-05
1.8288e-05
3.98293e-06
8.97739e-06
3.98024e-06
8.97965e-06
1.42599e-07
1.42605e-07
1.42618e-07
1.46093e-07
1.4602e-07
1.46166e-07
1.46107e-07
1.73424e-06
3.20153e-06
2.19977e-07
4.02419e-07
1.72075e-06
3.20988e-06
2.23264e-07
1.82913e-05
1.82902e-05
1.73423e-06
2.19977e-07
3.20174e-06
4.02538e-07
1.72065e-06
2.23228e-07
3.20989e-06
5.30595e-06
5.3076e-06
6.74119e-07
5.31057e-06
5.31213e-06
3.99183e-06
8.98273e-06
3.98899e-06
8.98519e-06
1.82817e-05
1.82802e-05
3.99159e-06
8.98439e-06
3.98896e-06
8.98688e-06
1.47264e-07
1.47469e-07
1.47368e-07
1.5149e-07
1.51414e-07
1.51527e-07
1.51557e-07
1.77107e-06
3.22642e-06
2.33314e-07
4.28391e-07
1.75945e-06
3.23279e-06
2.36889e-07
1.82838e-05
1.82823e-05
1.77166e-06
2.33438e-07
3.22649e-06
4.29086e-07
1.75929e-06
2.36992e-07
3.23411e-06
5.31538e-06
5.31695e-06
7.10914e-07
5.3176e-06
5.31941e-06
3.99892e-06
8.9889e-06
3.99572e-06
8.99192e-06
1.82761e-05
1.82785e-05
3.99887e-06
8.99002e-06
3.99582e-06
8.99192e-06
1.52884e-07
1.52944e-07
1.5306e-07
1.58526e-07
1.57919e-07
1.57597e-07
1.5802e-07
1.80612e-06
3.24841e-06
2.48077e-07
4.56309e-07
1.79438e-06
3.25534e-06
2.52044e-07
1.8277e-05
1.82757e-05
1.80618e-06
2.48249e-07
3.24986e-06
4.56171e-07
1.79465e-06
2.52152e-07
3.2563e-06
5.32457e-06
5.32567e-06
7.48317e-07
5.32844e-06
5.32942e-06
4.00739e-06
8.99761e-06
4.00467e-06
9.00464e-06
1.82767e-05
1.82804e-05
4.00737e-06
8.99788e-06
4.00506e-06
9.00441e-06
1.59811e-07
1.59328e-07
1.59829e-07
1.66429e-07
1.65873e-07
1.65289e-07
1.65265e-07
1.83758e-06
3.27009e-06
2.64459e-07
4.86885e-07
1.82664e-06
3.27865e-06
2.68837e-07
1.82709e-05
1.82759e-05
1.83753e-06
2.64379e-07
3.27018e-06
4.85573e-07
1.82674e-06
2.68684e-07
3.27701e-06
5.33678e-06
5.33837e-06
7.86937e-07
5.34223e-06
5.34385e-06
4.013e-06
9.01118e-06
4.01291e-06
9.01115e-06
1.82807e-05
1.828e-05
4.01277e-06
9.01245e-06
4.01178e-06
9.01346e-06
1.67833e-07
1.67534e-07
1.67022e-07
1.70282e-07
1.72399e-07
1.74853e-07
1.72915e-07
1.86857e-06
3.29574e-06
2.82649e-07
5.17122e-07
1.85849e-06
3.30224e-06
2.87275e-07
1.82775e-05
1.82809e-05
1.86631e-06
2.82126e-07
3.29005e-06
5.18239e-07
1.85643e-06
2.86601e-07
3.2971e-06
5.34904e-06
5.35187e-06
8.20698e-07
5.35086e-06
5.35393e-06
4.01172e-06
9.00468e-06
4.01129e-06
9.00338e-06
1.82681e-05
1.82598e-05
4.0148e-06
9.00866e-06
4.01264e-06
9.00776e-06
1.73582e-07
1.77188e-07
1.74847e-07
1.82273e-07
1.78053e-07
1.81503e-07
1.79999e-07
1.88981e-06
3.31144e-06
2.99645e-07
5.38791e-07
1.88389e-06
3.31132e-06
3.03339e-07
1.82909e-05
1.82979e-05
1.89372e-06
3.00876e-07
3.31662e-06
5.50554e-07
1.8836e-06
3.05694e-07
3.32472e-06
5.35727e-06
5.36069e-06
8.52325e-07
5.35955e-06
5.36322e-06
4.0312e-06
9.02242e-06
4.02219e-06
9.03415e-06
1.82467e-05
1.82554e-05
4.03036e-06
9.02559e-06
4.02497e-06
9.03615e-06
1.80495e-07
1.82133e-07
1.81888e-07
1.93737e-07
1.9202e-07
1.8588e-07
1.89869e-07
1.90799e-06
3.31299e-06
3.14518e-07
5.68019e-07
1.90035e-06
3.31871e-06
3.19325e-07
1.82838e-05
1.82591e-05
1.91384e-06
3.18427e-07
3.33169e-06
5.66969e-07
1.9081e-06
3.22384e-07
3.33114e-06
5.35703e-06
5.3598e-06
8.81723e-07
5.35076e-06
5.3503e-06
4.03141e-06
9.02963e-06
4.03436e-06
9.02538e-06
1.82944e-05
1.83189e-05
4.02733e-06
9.02934e-06
4.03036e-06
9.02441e-06
1.96724e-07
1.87137e-07
1.93429e-07
1.92466e-07
2.08131e-07
1.92737e-07
2.0425e-07
1.94351e-06
3.34753e-06
3.39231e-07
6.18728e-07
1.92953e-06
3.36244e-06
3.46985e-07
1.82153e-05
1.82159e-05
1.9374e-06
3.34596e-07
3.33564e-06
5.87383e-07
1.92663e-06
3.391e-07
3.3388e-06
5.36503e-06
5.35974e-06
9.25804e-07
5.38919e-06
5.38486e-06
4.01836e-06
9.01225e-06
4.02437e-06
8.99872e-06
1.83193e-05
1.83029e-05
4.01455e-06
9.00848e-06
4.01897e-06
8.99623e-06
2.10529e-07
1.96034e-07
2.06837e-07
1.91065e-07
2.14562e-07
2.11481e-07
2.10318e-07
1.96394e-06
3.37739e-06
3.66534e-07
6.49417e-07
1.95907e-06
3.3789e-06
3.70918e-07
1.82337e-05
1.82442e-05
1.95435e-06
3.54889e-07
3.34061e-06
6.20903e-07
1.95044e-06
3.61025e-07
3.33861e-06
5.41531e-06
5.41142e-06
9.52199e-07
5.41308e-06
5.41083e-06
4.0311e-06
8.98627e-06
4.01547e-06
9.01941e-06
1.82713e-05
1.8286e-05
4.03683e-06
8.99377e-06
4.02169e-06
9.03883e-06
2.15347e-07
2.18476e-07
2.10507e-07
2.36276e-07
2.15403e-07
2.39648e-07
2.10823e-07
1.98297e-06
3.39031e-06
3.82814e-07
6.60745e-07
1.97438e-06
3.39825e-06
3.87195e-07
1.82991e-05
1.83635e-05
1.97582e-06
3.81124e-07
3.35117e-06
6.8399e-07
1.96465e-06
3.89115e-07
3.37663e-06
5.40008e-06
5.40126e-06
9.4432e-07
5.39283e-06
5.39596e-06
4.06922e-06
9.11018e-06
4.06714e-06
9.13002e-06
1.83148e-05
1.8213e-05
4.0776e-06
9.12183e-06
4.0665e-06
9.14417e-06
2.12853e-07
2.44651e-07
2.11561e-07
2.70143e-07
2.06467e-07
2.48163e-07
2.27028e-07
1.98928e-06
3.39548e-06
3.96399e-07
6.43414e-07
1.99348e-06
3.35691e-06
3.97571e-07
1.83969e-05
1.84101e-05
2.01569e-06
4.15627e-07
3.4275e-06
7.25056e-07
2.00027e-06
4.23002e-07
3.44792e-06
5.34104e-06
5.34942e-06
9.57725e-07
5.30464e-06
5.31449e-06
4.04577e-06
9.10747e-06
4.04802e-06
9.08003e-06
1.79663e-05
1.79871e-05
4.06533e-06
9.13772e-06
4.08358e-06
9.10419e-06
2.07061e-07
2.42744e-07
2.3588e-07
2.47899e-07
2.45048e-07
2.14728e-07
2.5639e-07
2.00053e-06
3.2943e-06
4.00783e-07
6.56124e-07
1.9839e-06
3.29916e-06
4.0637e-07
1.84308e-05
1.8257e-05
2.01819e-06
4.32166e-07
3.45176e-06
6.71849e-07
2.02929e-06
4.31565e-07
3.38308e-06
5.33756e-06
5.35357e-06
1.0221e-06
5.40871e-06
5.41513e-06
4.04946e-06
9.03562e-06
4.05828e-06
9.01942e-06
1.83314e-05
1.84743e-05
3.99131e-06
9.01034e-06
4.00463e-06
8.99229e-06
2.59176e-07
2.11745e-07
2.58827e-07
2.23116e-07
2.83737e-07
2.45683e-07
2.5739e-07
2.04688e-06
3.40936e-06
4.53382e-07
7.73236e-07
2.04254e-06
3.44375e-06
4.65742e-07
1.78579e-05
1.78453e-05
1.97079e-06
4.1944e-07
3.23947e-06
6.42051e-07
1.98061e-06
4.18537e-07
3.20847e-06
5.47168e-06
5.44854e-06
1.02203e-06
5.44837e-06
5.40237e-06
4.0168e-06
8.98956e-06
4.01817e-06
8.9981e-06
1.84241e-05
1.83466e-05
4.08797e-06
9.02682e-06
4.03883e-06
9.0723e-06
2.86101e-07
2.79e-07
2.57768e-07
2.68142e-07
2.91333e-07
3.39268e-07
2.92582e-07
2.00801e-06
3.41472e-06
4.81441e-07
7.80203e-07
2.01049e-06
3.39584e-06
4.81936e-07
1.83738e-05
1.87215e-05
2.06445e-06
4.57615e-07
3.35846e-06
8.35153e-07
2.01432e-06
4.86296e-07
3.49664e-06
5.28261e-06
5.29704e-06
1.05713e-06
5.25757e-06
5.30744e-06
4.13477e-06
9.13117e-06
4.08069e-06
9.23616e-06
1.84271e-05
1.85652e-05
4.12382e-06
9.17846e-06
4.12323e-06
9.22805e-06
2.99219e-07
3.44656e-07
3.07007e-07
3.47636e-07
3.21861e-07
3.26306e-07
3.26004e-07
2.13163e-06
3.45948e-06
5.05421e-07
8.37328e-07
2.08346e-06
3.52525e-06
5.24118e-07
1.89519e-05
1.86862e-05
2.13116e-06
5.49634e-07
3.59448e-06
8.60018e-07
2.13122e-06
5.57758e-07
3.559e-06
5.51508e-06
5.54799e-06
1.18194e-06
5.65309e-06
5.65874e-06
4.13435e-06
9.31318e-06
4.16699e-06
9.27152e-06
1.85716e-05
1.84094e-05
4.11831e-06
9.26775e-06
4.12199e-06
9.23908e-06
3.25294e-07
3.20148e-07
3.2442e-07
3.1088e-07
3.20487e-07
3.11625e-07
3.02231e-07
2.09683e-06
3.54221e-06
5.58566e-07
8.67842e-07
2.1338e-06
3.49068e-06
5.59916e-07
1.81751e-05
1.8173e-05
2.07994e-06
5.48202e-07
3.44647e-06
8.13116e-07
2.09444e-06
5.42203e-07
3.42963e-06
5.60443e-06
5.56567e-06
1.08958e-06
5.40777e-06
5.3884e-06
3.99789e-06
9.02004e-06
4.02512e-06
8.94938e-06
1.81747e-05
1.81967e-05
4.02152e-06
9.03754e-06
4.05842e-06
8.96619e-06
3.14342e-07
3.08819e-07
2.99441e-07
2.88545e-07
3.0403e-07
3.03324e-07
3.06663e-07
2.05007e-06
3.41121e-06
5.39638e-07
8.2189e-07
2.05023e-06
3.4003e-06
5.33957e-07
1.83592e-05
1.83929e-05
2.06525e-06
5.33997e-07
3.43488e-06
8.19685e-07
2.07403e-06
5.32652e-07
3.40736e-06
5.24412e-06
5.27907e-06
1.08103e-06
5.29714e-06
5.33096e-06
3.04415e-07
1.83158e-05
3.37435e-06
1.84707e-05
1.84735e-05
5.12498e-06
5.12696e-06
8.90754e-06
3.6376e-06
8.9078e-06
3.63756e-06
2.78305e-06
1.58481e-07
1.11597e-06
2.7836e-06
1.58488e-07
1.11595e-06
1.84734e-05
5.12667e-06
5.12494e-06
1.84714e-05
8.9022e-06
2.24369e-07
2.74474e-06
3.59934e-06
8.9088e-06
3.63763e-06
1.08804e-06
2.78362e-06
1.58487e-07
1.58439e-07
1.11601e-06
3.59931e-06
8.90841e-06
8.90311e-06
3.63758e-06
1.08803e-06
2.26443e-07
1.58497e-07
2.78379e-06
1.58448e-07
2.7586e-06
1.11599e-06
2.78302e-06
1.58475e-07
1.11598e-06
8.90819e-06
3.63703e-06
1.58482e-07
2.78324e-06
1.11598e-06
8.9079e-06
3.63734e-06
3.41331e-07
5.10624e-06
5.1047e-06
1.8487e-05
1.8474e-05
1.84828e-05
3.46456e-07
5.12681e-06
5.12521e-06
5.1128e-06
5.11132e-06
1.84715e-05
1.84803e-05
8.90215e-06
1.08807e-06
2.26354e-07
1.58485e-07
2.78318e-06
1.58436e-07
2.75798e-06
1.11607e-06
1.08808e-06
1.58494e-07
2.78376e-06
1.58445e-07
1.11605e-06
3.59953e-06
8.90827e-06
8.90303e-06
3.63744e-06
3.59954e-06
8.90859e-06
3.63741e-06
5.12513e-06
5.1269e-06
1.84726e-05
1.84744e-05
1.84641e-05
1.84558e-05
1.8467e-05
1.84586e-05
5.13107e-06
5.13307e-06
3.65216e-07
5.14361e-06
5.14556e-06
1.84416e-05
1.84497e-05
1.84444e-05
1.84525e-05
3.70989e-07
5.16055e-06
5.16246e-06
5.14939e-06
5.15134e-06
3.68261e-06
8.90865e-06
3.64856e-06
8.91369e-06
1.15847e-06
2.79616e-06
1.58601e-07
2.3341e-07
1.13062e-06
2.81995e-06
1.58816e-07
1.15847e-06
2.79671e-06
1.58609e-07
2.33452e-07
1.13061e-06
2.82056e-06
1.58825e-07
3.69249e-06
8.91873e-06
8.91421e-06
3.72322e-06
3.69248e-06
8.91917e-06
8.91449e-06
3.72319e-06
1.17307e-06
2.36009e-07
2.85454e-06
1.59498e-07
2.83228e-06
1.59119e-07
1.2007e-06
1.17307e-06
2.36051e-07
2.85505e-06
1.59508e-07
2.83291e-06
1.59128e-07
1.2007e-06
5.13283e-06
5.1316e-06
3.65222e-07
5.14519e-06
5.14357e-06
1.84648e-05
1.84566e-05
1.84442e-05
1.84524e-05
3.70996e-07
5.16215e-06
5.16059e-06
5.15102e-06
5.14971e-06
1.84422e-05
1.84504e-05
1.15854e-06
2.79673e-06
1.58607e-07
2.3337e-07
1.13067e-06
2.82051e-06
1.58822e-07
3.68281e-06
8.90922e-06
3.64852e-06
8.91417e-06
1.15853e-06
1.58618e-07
2.79689e-06
2.33457e-07
1.13066e-06
1.58834e-07
2.82062e-06
3.69262e-06
8.92001e-06
8.91549e-06
3.72322e-06
1.17313e-06
2.35967e-07
2.85508e-06
1.59505e-07
2.83284e-06
1.59124e-07
1.20073e-06
3.69261e-06
8.91975e-06
8.91498e-06
3.72322e-06
1.17313e-06
2.36061e-07
1.5952e-07
2.85522e-06
1.59138e-07
2.83294e-06
1.20075e-06
3.68257e-06
8.90907e-06
3.64886e-06
8.91405e-06
1.15858e-06
1.58603e-07
2.79637e-06
2.3342e-07
1.13063e-06
1.58821e-07
2.82013e-06
3.68286e-06
8.90872e-06
3.64845e-06
8.91401e-06
1.17319e-06
2.35948e-07
2.85448e-06
1.59501e-07
2.83245e-06
1.59107e-07
1.20079e-06
3.69329e-06
8.91956e-06
8.91488e-06
3.72279e-06
1.17317e-06
2.36024e-07
1.59505e-07
2.85475e-06
1.59123e-07
2.83252e-06
1.20079e-06
3.69283e-06
8.91929e-06
8.91483e-06
3.72305e-06
5.13293e-06
5.1314e-06
3.65261e-07
5.14538e-06
5.14381e-06
1.84651e-05
1.84567e-05
1.84448e-05
1.8453e-05
3.7104e-07
5.16224e-06
5.16072e-06
5.15111e-06
5.14961e-06
1.84423e-05
1.84504e-05
1.15859e-06
1.58618e-07
2.79689e-06
2.3341e-07
1.13076e-06
1.58828e-07
2.82064e-06
3.68243e-06
8.90914e-06
3.64913e-06
8.91413e-06
3.68244e-06
8.90947e-06
3.6491e-06
8.9145e-06
1.17318e-06
2.3596e-07
1.59503e-07
2.85464e-06
1.59127e-07
2.83237e-06
1.20084e-06
1.17319e-06
2.3601e-07
1.59512e-07
2.85526e-06
1.59138e-07
2.83294e-06
1.20082e-06
3.69305e-06
8.91957e-06
8.91488e-06
3.72298e-06
3.69305e-06
8.92001e-06
8.91524e-06
3.72297e-06
1.84662e-05
1.84578e-05
1.8468e-05
1.84597e-05
3.71079e-07
5.16066e-06
5.1624e-06
5.14954e-06
5.15122e-06
1.84434e-05
1.84515e-05
1.84452e-05
1.84534e-05
1.84355e-05
1.84279e-05
1.84383e-05
1.84307e-05
5.16587e-06
5.1678e-06
3.92172e-07
5.17595e-06
5.17786e-06
1.84148e-05
1.84221e-05
1.84176e-05
1.84249e-05
3.98597e-07
5.19011e-06
5.192e-06
5.18091e-06
5.18283e-06
3.75878e-06
8.91988e-06
3.73198e-06
8.92442e-06
1.2423e-06
2.86617e-06
1.59969e-07
2.44611e-07
1.21511e-06
2.88719e-06
1.60519e-07
1.24229e-06
2.86668e-06
1.59978e-07
2.44656e-07
1.21511e-06
2.8878e-06
1.60526e-07
3.76666e-06
8.92888e-06
8.92482e-06
3.79063e-06
3.76663e-06
8.92928e-06
8.92512e-06
3.79058e-06
1.25647e-06
2.47746e-07
2.91785e-06
1.61874e-07
2.89822e-06
1.61159e-07
1.28318e-06
1.25646e-06
2.47785e-07
2.91837e-06
1.61877e-07
2.89882e-06
1.61164e-07
1.28316e-06
5.1675e-06
5.1661e-06
3.92202e-07
5.17748e-06
5.17593e-06
1.8436e-05
1.84284e-05
1.84172e-05
1.84246e-05
3.9862e-07
5.19167e-06
5.19015e-06
5.1825e-06
5.18115e-06
1.84153e-05
1.84227e-05
1.24236e-06
2.86672e-06
1.59975e-07
2.44566e-07
1.21516e-06
2.88774e-06
1.60524e-07
3.75899e-06
8.92048e-06
3.73198e-06
8.92503e-06
1.24236e-06
1.5999e-07
2.86687e-06
2.44664e-07
1.21517e-06
1.60538e-07
2.8879e-06
3.76682e-06
8.93024e-06
8.92608e-06
3.79065e-06
1.25655e-06
2.47698e-07
2.9184e-06
1.6188e-07
2.89877e-06
1.61165e-07
1.28321e-06
3.76679e-06
8.92979e-06
8.92569e-06
3.79062e-06
1.25655e-06
2.47793e-07
1.61892e-07
2.91851e-06
1.61178e-07
2.89885e-06
1.2832e-06
3.75867e-06
8.92029e-06
3.7324e-06
8.92474e-06
1.24241e-06
1.59975e-07
2.86641e-06
2.44615e-07
1.2152e-06
1.60521e-07
2.88737e-06
3.75897e-06
8.91999e-06
3.73196e-06
8.92473e-06
1.25659e-06
2.47667e-07
2.91782e-06
1.61866e-07
2.89838e-06
1.61135e-07
1.28321e-06
3.76737e-06
8.92953e-06
8.92546e-06
3.79023e-06
1.25658e-06
2.47742e-07
1.61869e-07
2.91807e-06
1.61154e-07
2.89841e-06
1.28321e-06
3.76694e-06
8.92948e-06
8.92546e-06
3.79049e-06
5.16755e-06
5.1661e-06
3.92231e-07
5.17771e-06
5.17616e-06
1.84363e-05
1.84286e-05
1.84179e-05
1.84254e-05
3.98647e-07
5.19175e-06
5.19022e-06
5.18266e-06
5.18116e-06
1.84154e-05
1.84228e-05
1.24244e-06
1.59988e-07
2.8669e-06
2.44599e-07
1.21527e-06
1.60526e-07
2.88791e-06
3.75868e-06
8.92034e-06
3.73262e-06
8.9249e-06
3.75867e-06
8.92079e-06
3.73259e-06
8.9253e-06
1.2566e-06
2.4768e-07
1.61872e-07
2.91794e-06
1.61163e-07
2.89829e-06
1.28331e-06
1.2566e-06
2.47725e-07
1.6188e-07
2.91855e-06
1.61171e-07
2.89885e-06
1.28326e-06
3.76725e-06
8.92973e-06
8.92556e-06
3.79033e-06
3.76722e-06
8.93e-06
8.92592e-06
3.7903e-06
1.84373e-05
1.84296e-05
1.84392e-05
1.84315e-05
3.98672e-07
5.19008e-06
5.1918e-06
5.18097e-06
5.18273e-06
1.84165e-05
1.84238e-05
1.84184e-05
1.84257e-05
1.84091e-05
1.8402e-05
1.84119e-05
1.84048e-05
5.19461e-06
5.19652e-06
4.21929e-07
5.20284e-06
5.20471e-06
1.83902e-05
1.83967e-05
1.8393e-05
1.83995e-05
4.28908e-07
5.21478e-06
5.2166e-06
5.207e-06
5.20887e-06
3.81826e-06
8.92986e-06
3.7976e-06
8.93387e-06
1.32304e-06
2.92813e-06
1.62681e-07
2.579e-07
1.29708e-06
2.94672e-06
1.63568e-07
1.323e-06
2.9286e-06
1.62684e-07
2.57949e-07
1.29704e-06
2.94727e-06
1.63572e-07
3.82452e-06
8.93778e-06
8.93429e-06
3.8427e-06
3.82445e-06
8.93807e-06
8.93448e-06
3.84261e-06
1.33652e-06
2.61537e-07
2.97373e-06
1.65597e-07
2.95647e-06
1.64543e-07
1.36175e-06
1.33648e-06
2.61591e-07
2.97419e-06
1.65601e-07
2.95708e-06
1.64546e-07
1.36171e-06
5.19614e-06
5.19474e-06
4.21966e-07
5.20434e-06
5.20275e-06
1.84094e-05
1.84025e-05
1.83926e-05
1.83991e-05
4.28945e-07
5.21629e-06
5.21474e-06
5.2086e-06
5.20717e-06
1.83907e-05
1.83971e-05
1.32309e-06
2.92869e-06
1.62686e-07
2.57847e-07
1.2971e-06
2.94726e-06
1.63572e-07
3.8184e-06
8.93044e-06
3.79758e-06
8.93449e-06
1.32307e-06
1.62699e-07
2.92887e-06
2.57955e-07
1.29708e-06
1.63586e-07
2.9474e-06
3.82461e-06
8.93909e-06
8.93552e-06
3.84271e-06
1.33659e-06
2.61482e-07
2.97425e-06
1.65603e-07
2.95702e-06
1.64547e-07
1.36176e-06
3.82454e-06
8.9386e-06
8.93502e-06
3.84264e-06
1.33657e-06
2.61602e-07
1.65621e-07
2.97422e-06
1.64564e-07
2.957e-06
1.36174e-06
3.81797e-06
8.93016e-06
3.79802e-06
8.93412e-06
1.32302e-06
1.62671e-07
2.9284e-06
2.57888e-07
1.29705e-06
1.63555e-07
2.94677e-06
3.81827e-06
8.93003e-06
3.79758e-06
8.93398e-06
1.33652e-06
2.61457e-07
2.97361e-06
1.65583e-07
2.9566e-06
1.64507e-07
1.36169e-06
3.82498e-06
8.93818e-06
8.93471e-06
3.84221e-06
1.3365e-06
2.61534e-07
1.6559e-07
2.97381e-06
1.64529e-07
2.95649e-06
1.36168e-06
3.82458e-06
8.93822e-06
8.93457e-06
3.84247e-06
5.19617e-06
5.1947e-06
4.2197e-07
5.20459e-06
5.20304e-06
1.84098e-05
1.84029e-05
1.8393e-05
1.83999e-05
4.28955e-07
5.21629e-06
5.21478e-06
5.20879e-06
5.20729e-06
1.83906e-05
1.83975e-05
1.32311e-06
1.62692e-07
2.92885e-06
2.57877e-07
1.29714e-06
1.63571e-07
2.94727e-06
3.81811e-06
8.93037e-06
3.79812e-06
8.9343e-06
3.81808e-06
8.93064e-06
3.79808e-06
8.93465e-06
1.33662e-06
2.61471e-07
1.65594e-07
2.97364e-06
1.64543e-07
2.95645e-06
1.3618e-06
1.33661e-06
2.61522e-07
1.65607e-07
2.97433e-06
1.64555e-07
2.95693e-06
1.36177e-06
3.82501e-06
8.93841e-06
8.93483e-06
3.84223e-06
3.82498e-06
8.93893e-06
8.9352e-06
3.84226e-06
1.84108e-05
1.84038e-05
1.84128e-05
1.84058e-05
4.28994e-07
5.21461e-06
5.21633e-06
5.20705e-06
5.20878e-06
1.83917e-05
1.83984e-05
1.83937e-05
1.84003e-05
1.83849e-05
1.83783e-05
1.83876e-05
1.83811e-05
5.21859e-06
5.22042e-06
4.54002e-07
5.22542e-06
5.22722e-06
1.83676e-05
1.83733e-05
1.83704e-05
1.83761e-05
4.615e-07
5.23541e-06
5.23723e-06
5.22897e-06
5.23079e-06
3.86369e-06
8.93854e-06
3.84814e-06
8.94203e-06
1.39907e-06
2.98282e-06
1.66738e-07
2.73191e-07
1.37482e-06
2.99901e-06
1.67963e-07
1.39901e-06
2.98318e-06
1.6674e-07
2.73224e-07
1.37478e-06
2.9995e-06
1.67965e-07
3.86867e-06
8.94556e-06
8.94228e-06
3.88227e-06
3.86858e-06
8.94568e-06
8.94252e-06
3.8822e-06
1.41164e-06
2.77326e-07