/*--------------------------------*- C++ -*----------------------------------*\
| =========                 |                                                 |
| \\      /  F ield         | OpenFOAM: The Open Source CFD Toolbox           |
|  \\    /   O peration     | Version:  2312                                  |
|   \\  /    A nd           | Website:  www.openfoam.com                      |
|    \\/     M anipulation  |                                                 |
\*---------------------------------------------------------------------------*/
FoamFile
{
    version     2.0;
    format      ascii;
    arch        "LSB;label=32;scalar=64";
    class       volScalarField;
    location    "1000";
    object      k;
}
// * * * * * * * * * * * * * * * * * * * * * * * * * * * * * * * * * * * * * //

dimensions      [0 2 -2 0 0 0 0];

internalField   nonuniform List<scalar> 
43120
(
1.4936e-05
1.61518e-05
1.61518e-05
1.81328e-05
1.4613e-05
1.62904e-05
1.62905e-05
1.87281e-05
1.43363e-05
1.65179e-05
1.65181e-05
1.94255e-05
1.41063e-05
1.68344e-05
1.68333e-05
2.02183e-05
1.39205e-05
1.72343e-05
1.72351e-05
2.10943e-05
1.37813e-05
1.77116e-05
1.77123e-05
2.20327e-05
1.36891e-05
1.82765e-05
1.82793e-05
2.30326e-05
1.36479e-05
1.89154e-05
1.89087e-05
2.40908e-05
1.36402e-05
1.95741e-05
1.95908e-05
2.5128e-05
1.36784e-05
2.03557e-05
2.0345e-05
2.61573e-05
1.37682e-05
2.12009e-05
2.11942e-05
2.73368e-05
1.39025e-05
2.19961e-05
2.20479e-05
2.83291e-05
1.40646e-05
2.29082e-05
2.29115e-05
2.94388e-05
1.44322e-05
2.39656e-05
2.38803e-05
3.06184e-05
1.47344e-05
2.51348e-05
2.49972e-05
3.16655e-05
1.47119e-05
2.57139e-05
2.63924e-05
3.2631e-05
1.55167e-05
2.61273e-05
2.68618e-05
3.31733e-05
1.59933e-05
2.86999e-05
2.70165e-05
3.50041e-05
1.52604e-05
2.9905e-05
2.76247e-05
3.62472e-05
1.48754e-05
3.06852e-05
3.08141e-05
3.57928e-05
1.90988e-05
2.93266e-05
3.37781e-05
3.48718e-05
2.06124e-05
2.75866e-05
3.20632e-05
3.83607e-05
1.75127e-05
3.4729e-05
2.63621e-05
3.94387e-05
1.56116e-05
3.46839e-05
3.69595e-05
3.62755e-05
2.08914e-05
3.67422e-05
4.08241e-05
4.61214e-05
2.4818e-05
3.85712e-05
3.59239e-05
4.18774e-05
3.52302e-05
1.80242e-05
1.61313e-05
1.61315e-05
1.80241e-05
1.61317e-05
1.61315e-05
1.61312e-05
1.61313e-05
1.80236e-05
1.61313e-05
1.6132e-05
1.80245e-05
1.81338e-05
1.85971e-05
1.61523e-05
1.6152e-05
1.62476e-05
1.62478e-05
1.81324e-05
1.85961e-05
1.61526e-05
1.61522e-05
1.62478e-05
1.62477e-05
1.61519e-05
1.62475e-05
1.62478e-05
1.81319e-05
1.8597e-05
1.61525e-05
1.62475e-05
1.62483e-05
1.85973e-05
1.87272e-05
1.92713e-05
1.62903e-05
1.62907e-05
1.6452e-05
1.64531e-05
1.87268e-05
1.9272e-05
1.62904e-05
1.62909e-05
1.64521e-05
1.64527e-05
1.62907e-05
1.64526e-05
1.64533e-05
1.87275e-05
1.92727e-05
1.62911e-05
1.64521e-05
1.64536e-05
1.92737e-05
1.94239e-05
2.00495e-05
1.65178e-05
1.65186e-05
1.67481e-05
1.67483e-05
1.94245e-05
2.00501e-05
1.65178e-05
1.65189e-05
1.67481e-05
1.6748e-05
1.6519e-05
1.67472e-05
1.67473e-05
1.94246e-05
2.00492e-05
1.65189e-05
1.67471e-05
1.67474e-05
2.00481e-05
2.02208e-05
2.09025e-05
1.68352e-05
1.68354e-05
1.71255e-05
1.71279e-05
2.02217e-05
2.09048e-05
1.68349e-05
1.68345e-05
1.71254e-05
1.71288e-05
1.68337e-05
1.7126e-05
1.71279e-05
2.0219e-05
2.0907e-05
1.68339e-05
1.7127e-05
1.71283e-05
2.09067e-05
2.10894e-05
2.18312e-05
1.72323e-05
1.72363e-05
1.75875e-05
1.75838e-05
2.10933e-05
2.18226e-05
1.72317e-05
1.7237e-05
1.75878e-05
1.75862e-05
1.72362e-05
1.75844e-05
1.75879e-05
2.10946e-05
2.18272e-05
1.72362e-05
1.75854e-05
1.75883e-05
2.18343e-05
2.20315e-05
2.28072e-05
1.77122e-05
1.77113e-05
1.81222e-05
1.81314e-05
2.2024e-05
2.2824e-05
1.77123e-05
1.77128e-05
1.81213e-05
1.81297e-05
1.77171e-05
1.81291e-05
1.81229e-05
2.20265e-05
2.28256e-05
1.77169e-05
1.81287e-05
1.81226e-05
2.28198e-05
2.30222e-05
2.38616e-05
1.82705e-05
1.82798e-05
1.87486e-05
1.8751e-05
2.30411e-05
2.38636e-05
1.82697e-05
1.82812e-05
1.87475e-05
1.87495e-05
1.82702e-05
1.8751e-05
1.8755e-05
2.30436e-05
2.38645e-05
1.82698e-05
1.87473e-05
1.87523e-05
2.38662e-05
2.40861e-05
2.49111e-05
1.89178e-05
1.89148e-05
1.94245e-05
1.94083e-05
2.408e-05
2.48802e-05
1.89166e-05
1.89119e-05
1.94234e-05
1.94202e-05
1.8912e-05
1.94039e-05
1.9429e-05
2.40827e-05
2.48924e-05
1.89104e-05
1.9418e-05
1.94307e-05
2.49017e-05
2.51347e-05
2.59663e-05
1.96041e-05
1.95774e-05
2.01643e-05
2.01645e-05
2.5098e-05
2.59591e-05
1.96028e-05
1.95924e-05
2.01641e-05
2.0156e-05
1.96115e-05
2.01608e-05
2.01326e-05
2.51161e-05
2.59449e-05
1.96113e-05
2.01507e-05
2.01309e-05
2.59325e-05
2.61955e-05
2.70399e-05
2.03468e-05
2.03632e-05
2.09594e-05
2.09795e-05
2.6208e-05
2.70726e-05
2.03471e-05
2.03458e-05
2.09557e-05
2.09742e-05
2.03216e-05
2.09846e-05
2.09951e-05
2.61817e-05
2.70641e-05
2.03227e-05
2.09802e-05
2.09904e-05
2.70849e-05
2.72807e-05
2.81212e-05
2.11797e-05
2.11927e-05
2.18151e-05
2.17979e-05
2.73046e-05
2.80995e-05
2.11744e-05
2.11901e-05
2.18131e-05
2.1824e-05
2.12192e-05
2.17858e-05
2.17939e-05
2.73049e-05
2.81565e-05
2.12088e-05
2.18158e-05
2.17961e-05
2.81106e-05
2.83468e-05
2.91437e-05
2.20327e-05
2.20112e-05
2.26516e-05
2.26848e-05
2.8317e-05
2.91503e-05
2.20309e-05
2.20568e-05
2.26502e-05
2.27328e-05
2.20017e-05
2.26816e-05
2.27303e-05
2.83907e-05
2.91965e-05
2.20051e-05
2.27143e-05
2.27208e-05
2.91954e-05
2.93867e-05
3.06122e-05
2.28835e-05
2.29005e-05
2.38373e-05
2.36495e-05
2.93909e-05
3.03175e-05
2.28877e-05
2.29305e-05
2.38363e-05
2.35909e-05
2.29597e-05
2.36695e-05
2.36728e-05
2.94087e-05
3.01982e-05
2.29589e-05
2.36173e-05
2.36759e-05
3.03543e-05
3.09572e-05
3.17164e-05
2.41693e-05
2.39627e-05
2.50794e-05
2.4913e-05
3.06032e-05
3.16535e-05
2.41605e-05
2.38427e-05
2.50591e-05
2.46638e-05
2.39668e-05
2.4866e-05
2.4762e-05
3.04499e-05
3.14342e-05
2.39669e-05
2.46745e-05
2.47679e-05
3.147e-05
3.18094e-05
3.15777e-05
2.52079e-05
2.51849e-05
2.5216e-05
2.55925e-05
3.1871e-05
3.21976e-05
2.51816e-05
2.50066e-05
2.5193e-05
2.61315e-05
2.49376e-05
2.56724e-05
2.5726e-05
3.17431e-05
3.30429e-05
2.49208e-05
2.61151e-05
2.56619e-05
3.23878e-05
3.16421e-05
3.42418e-05
2.52472e-05
2.56116e-05
2.69573e-05
2.58553e-05
3.22615e-05
3.25361e-05
2.52348e-05
2.63968e-05
2.7031e-05
2.68303e-05
2.60422e-05
2.58586e-05
2.64056e-05
3.32678e-05
3.34241e-05
2.60135e-05
2.68117e-05
2.64792e-05
3.30864e-05
3.48282e-05
3.57566e-05
2.76541e-05
2.62828e-05
2.85322e-05
2.82166e-05
3.2855e-05
3.50992e-05
2.77099e-05
2.69013e-05
2.85407e-05
2.6992e-05
2.64599e-05
2.8054e-05
2.75925e-05
3.34558e-05
3.33369e-05
2.65398e-05
2.69319e-05
2.75921e-05
3.44816e-05
3.57102e-05
3.28479e-05
2.8522e-05
2.88075e-05
2.75743e-05
2.96578e-05
3.55796e-05
3.63886e-05
2.85229e-05
2.70721e-05
2.75072e-05
2.74138e-05
2.82171e-05
2.97489e-05
2.94672e-05
3.34384e-05
3.38572e-05
2.81712e-05
2.74216e-05
2.93707e-05
3.61541e-05
3.2555e-05
3.16746e-05
2.70042e-05
2.97364e-05
2.64433e-05
3.02466e-05
3.64956e-05
3.71518e-05
2.69506e-05
2.75715e-05
2.63915e-05
2.95149e-05
2.96102e-05
3.05134e-05
2.96598e-05
3.40065e-05
3.64776e-05
2.95101e-05
2.98066e-05
2.95808e-05
3.57982e-05
3.30867e-05
4.1055e-05
2.69265e-05
3.04512e-05
3.32885e-05
3.02535e-05
3.74796e-05
3.5772e-05
2.6833e-05
3.0557e-05
3.31564e-05
3.32792e-05
2.96527e-05
3.02428e-05
2.93836e-05
3.73198e-05
4.04966e-05
2.95746e-05
3.32157e-05
2.92606e-05
3.49255e-05
4.18502e-05
4.25422e-05
3.45573e-05
2.95202e-05
3.55088e-05
2.77335e-05
3.52698e-05
3.14776e-05
3.45757e-05
3.39591e-05
3.60062e-05
3.38797e-05
2.92666e-05
2.751e-05
3.01334e-05
4.10916e-05
3.88523e-05
2.92241e-05
3.3552e-05
3.10158e-05
3.74021e-05
4.19926e-05
3.5226e-05
3.52714e-05
2.78007e-05
3.13943e-05
3.31397e-05
3.15836e-05
4.10096e-05
3.58301e-05
3.24383e-05
3.12718e-05
2.65704e-05
3.16564e-05
3.33257e-05
3.33951e-05
3.75561e-05
2.8504e-05
3.23803e-05
2.66193e-05
3.32531e-05
3.96394e-05
3.46641e-05
3.24782e-05
3.03725e-05
3.44965e-05
2.85167e-05
3.48857e-05
4.17217e-05
4.00216e-05
2.9943e-05
2.62855e-05
2.81831e-05
3.28156e-05
3.33436e-05
3.50024e-05
3.21454e-05
2.83785e-05
4.26929e-05
3.30452e-05
3.28699e-05
3.17047e-05
3.62202e-05
3.29812e-05
4.36152e-05
2.85768e-05
3.45982e-05
3.5427e-05
3.50456e-05
3.96329e-05
4.12911e-05
2.83577e-05
3.69707e-05
3.63024e-05
4.07969e-05
3.21753e-05
3.52781e-05
3.69131e-05
4.49208e-05
4.84292e-05
3.18213e-05
4.09815e-05
3.77271e-05
4.51083e-05
4.50956e-05
4.85188e-05
3.83446e-05
3.641e-05
4.15469e-05
3.88386e-05
4.24967e-05
4.47503e-05
3.8923e-05
4.06129e-05
4.1471e-05
3.67456e-05
3.8603e-05
3.86663e-05
3.90216e-05
4.73789e-05
3.9033e-05
3.92108e-05
3.65594e-05
3.91504e-05
4.32839e-05
4.79399e-05
3.4603e-05
4.1267e-05
3.87965e-05
3.36353e-05
3.62866e-05
4.43855e-05
3.99126e-05
4.11502e-05
3.63009e-05
3.35959e-05
3.57335e-05
3.77535e-05
3.6144e-05
3.41655e-05
3.90257e-05
4.07546e-05
3.75571e-05
3.54385e-05
3.43146e-05
3.73175e-05
3.52662e-05
4.07181e-05
1.50239e-05
1.50238e-05
1.50237e-05
1.50238e-05
6.96828e-05
1.6109e-05
4.43463e-05
5.35413e-05
7.00367e-05
5.2923e-05
7.00634e-05
6.96279e-05
6.96069e-05
5.35427e-05
7.00377e-05
5.29188e-05
7.00645e-05
1.4936e-05
1.49358e-05
1.49359e-05
1.46892e-05
1.46893e-05
1.46891e-05
1.46893e-05
2.93879e-05
4.52109e-05
1.49105e-05
1.61777e-05
2.88251e-05
4.56341e-05
1.486e-05
6.9628e-05
6.96069e-05
2.93919e-05
1.49103e-05
4.52056e-05
1.61784e-05
2.88261e-05
1.48603e-05
4.56435e-05
5.9007e-05
5.90147e-05
1.82964e-05
5.92935e-05
5.93051e-05
5.48584e-05
7.0095e-05
5.43406e-05
7.01195e-05
6.95554e-05
6.9536e-05
5.48587e-05
7.0096e-05
5.43354e-05
7.01204e-05
1.46131e-05
1.46129e-05
1.46129e-05
1.44008e-05
1.44012e-05
1.44008e-05
1.44012e-05
3.10941e-05
4.64292e-05
1.47387e-05
1.6338e-05
3.05329e-05
4.68237e-05
1.47053e-05
6.95555e-05
6.95363e-05
3.11002e-05
1.47386e-05
4.64229e-05
1.6339e-05
3.05287e-05
1.47055e-05
4.6833e-05
5.96676e-05
5.96746e-05
1.89227e-05
5.99195e-05
5.99306e-05
5.59598e-05
7.01476e-05
5.552e-05
7.01696e-05
6.94883e-05
6.94706e-05
5.59576e-05
7.0149e-05
5.55191e-05
7.01704e-05
1.43364e-05
1.43365e-05
1.43366e-05
1.41596e-05
1.41595e-05
1.41594e-05
1.41595e-05
3.27712e-05
4.7546e-05
1.46359e-05
1.65887e-05
3.22131e-05
4.79132e-05
1.46195e-05
6.94888e-05
6.94714e-05
3.27773e-05
1.4636e-05
4.75376e-05
1.65901e-05
3.22089e-05
1.46201e-05
4.79275e-05
6.02538e-05
6.02618e-05
1.96502e-05
6.04801e-05
6.04899e-05
5.68759e-05
7.01934e-05
5.65088e-05
7.02118e-05
6.94274e-05
6.9411e-05
5.68721e-05
7.01946e-05
5.65077e-05
7.02127e-05
1.41066e-05
1.41061e-05
1.41061e-05
1.39635e-05
1.39634e-05
1.39639e-05
1.39644e-05
3.4384e-05
4.85684e-05
1.46029e-05
1.6926e-05
3.38374e-05
4.89092e-05
1.46053e-05
6.94271e-05
6.94118e-05
3.439e-05
1.46033e-05
4.85573e-05
1.69259e-05
3.38345e-05
1.46057e-05
4.89204e-05
6.07756e-05
6.07843e-05
2.04673e-05
6.09829e-05
6.0992e-05
5.76439e-05
7.02337e-05
5.73337e-05
7.02493e-05
6.9373e-05
6.93579e-05
5.76416e-05
7.0235e-05
5.73354e-05
7.02504e-05
1.39222e-05
1.39221e-05
1.39225e-05
1.38135e-05
1.38125e-05
1.38128e-05
1.38137e-05
3.59203e-05
4.95054e-05
1.46378e-05
1.73457e-05
3.53888e-05
4.98224e-05
1.46581e-05
6.93723e-05
6.93586e-05
3.59224e-05
1.46387e-05
4.9498e-05
1.73477e-05
3.53868e-05
1.46589e-05
4.98329e-05
6.12482e-05
6.12567e-05
2.13655e-05
6.14393e-05
6.14484e-05
5.82937e-05
7.02673e-05
5.80261e-05
7.02838e-05
6.93243e-05
6.93115e-05
5.82889e-05
7.02692e-05
5.80319e-05
7.02843e-05
1.37814e-05
1.37823e-05
1.37837e-05
1.3707e-05
1.37096e-05
1.3708e-05
1.37066e-05
3.73504e-05
5.0363e-05
1.47441e-05
1.78447e-05
3.68534e-05
5.06585e-05
1.47813e-05
6.93234e-05
6.93124e-05
3.73495e-05
1.47448e-05
5.03503e-05
1.78455e-05
3.68555e-05
1.47818e-05
5.0669e-05
6.16698e-05
6.16791e-05
2.23169e-05
6.18453e-05
6.18545e-05
5.88531e-05
7.03013e-05
5.86364e-05
7.03149e-05
6.92809e-05
6.92709e-05
5.88578e-05
7.0303e-05
5.86331e-05
7.03169e-05
1.36912e-05
1.36929e-05
1.36885e-05
1.36518e-05
1.36528e-05
1.36513e-05
1.36546e-05
3.86934e-05
5.11533e-05
1.49171e-05
1.84293e-05
3.82063e-05
5.14479e-05
1.49717e-05
6.92806e-05
6.92702e-05
3.86832e-05
1.49182e-05
5.11439e-05
1.84344e-05
3.82149e-05
1.49736e-05
5.14486e-05
6.20641e-05
6.20727e-05
2.33317e-05
6.22283e-05
6.22354e-05
5.93594e-05
7.03331e-05
5.91621e-05
7.03447e-05
6.92403e-05
6.9232e-05
5.9344e-05
7.03336e-05
5.91633e-05
7.03457e-05
1.36477e-05
1.36438e-05
1.36423e-05
1.36377e-05
1.36313e-05
1.36354e-05
1.36384e-05
3.99283e-05
5.18825e-05
1.51648e-05
1.908e-05
3.94775e-05
5.21578e-05
1.52344e-05
6.92399e-05
6.92319e-05
3.99269e-05
1.51621e-05
5.1876e-05
1.9076e-05
3.94883e-05
1.52325e-05
5.21546e-05
6.24459e-05
6.24546e-05
2.43865e-05
6.25643e-05
6.25717e-05
5.98082e-05
7.03616e-05
5.96181e-05
7.0372e-05
6.92071e-05
6.9204e-05
5.98015e-05
7.03628e-05
5.96338e-05
7.03727e-05
1.36327e-05
1.36371e-05
1.36417e-05
1.36678e-05
1.36648e-05
1.36625e-05
1.36578e-05
4.10656e-05
5.25288e-05
1.54636e-05
1.97605e-05
4.06334e-05
5.28054e-05
1.55515e-05
6.92075e-05
6.92014e-05
4.10713e-05
1.54687e-05
5.25474e-05
1.97712e-05
4.06432e-05
1.55532e-05
5.28035e-05
6.27878e-05
6.27941e-05
2.5427e-05
6.28889e-05
6.28999e-05
6.01992e-05
7.03904e-05
6.00213e-05
7.04052e-05
6.91837e-05
6.91776e-05
6.01944e-05
7.03924e-05
6.00354e-05
7.04041e-05
1.36808e-05
1.36764e-05
1.36696e-05
1.37376e-05
1.37486e-05
1.37468e-05
1.37487e-05
4.21147e-05
5.31831e-05
1.58373e-05
2.05534e-05
4.17066e-05
5.34259e-05
1.59387e-05
6.91841e-05
6.91813e-05
4.21439e-05
1.5842e-05
5.31808e-05
2.05465e-05
4.17178e-05
1.59471e-05
5.3437e-05
6.30392e-05
6.30483e-05
2.6479e-05
6.32403e-05
6.3242e-05
6.05897e-05
7.04258e-05
6.04051e-05
7.04387e-05
6.91616e-05
6.91578e-05
6.05938e-05
7.04289e-05
6.04039e-05
7.0442e-05
1.37792e-05
1.37774e-05
1.37838e-05
1.38675e-05
1.38574e-05
1.38681e-05
1.38608e-05
4.31215e-05
5.38005e-05
1.62966e-05
2.14019e-05
4.27608e-05
5.4006e-05
1.64159e-05
6.91654e-05
6.91616e-05
4.30977e-05
1.62876e-05
5.37782e-05
2.13987e-05
4.27214e-05
1.64037e-05
5.40104e-05
6.33982e-05
6.34027e-05
2.76374e-05
6.34681e-05
6.34762e-05
6.08726e-05
7.0458e-05
6.07556e-05
7.04738e-05
6.91473e-05
6.91535e-05
6.08786e-05
7.04584e-05
6.07417e-05
7.04683e-05
1.38907e-05
1.39083e-05
1.38924e-05
1.40135e-05
1.4026e-05
1.40438e-05
1.40407e-05
4.40067e-05
5.42937e-05
1.67574e-05
2.22216e-05
4.36144e-05
5.45427e-05
1.68934e-05
6.91482e-05
6.91448e-05
4.4004e-05
1.67724e-05
5.43379e-05
2.22853e-05
4.36568e-05
1.69058e-05
5.45689e-05
6.36331e-05
6.364e-05
2.86298e-05
6.37657e-05
6.3762e-05
6.11986e-05
7.05033e-05
6.10932e-05
7.05399e-05
6.91489e-05
6.91581e-05
6.12387e-05
7.04992e-05
6.11125e-05
7.05333e-05
1.40702e-05
1.40845e-05
1.40957e-05
1.43327e-05
1.42547e-05
1.42262e-05
1.42623e-05
4.48488e-05
5.48071e-05
1.73227e-05
2.31414e-05
4.4541e-05
5.50322e-05
1.74685e-05
6.91325e-05
6.91452e-05
4.48979e-05
1.73319e-05
5.48274e-05
2.3122e-05
4.45337e-05
1.74761e-05
5.50411e-05
6.39054e-05
6.39207e-05
2.97577e-05
6.40537e-05
6.40626e-05
6.16323e-05
7.05746e-05
6.14631e-05
7.05748e-05
6.91592e-05
6.91576e-05
6.15966e-05
7.05756e-05
6.14101e-05
7.05812e-05
1.43428e-05
1.4289e-05
1.43372e-05
1.47066e-05
1.4639e-05
1.45433e-05
1.45923e-05
4.57219e-05
5.54224e-05
1.79631e-05
2.42754e-05
4.53767e-05
5.56615e-05
1.81448e-05
6.91493e-05
6.91576e-05
4.57168e-05
1.79422e-05
5.53611e-05
2.41379e-05
4.53785e-05
1.81206e-05
5.55183e-05
6.42994e-05
6.43262e-05
3.09644e-05
6.43838e-05
6.4406e-05
6.17465e-05
7.05411e-05
6.17405e-05
7.05338e-05
6.91277e-05
6.9107e-05
6.17402e-05
7.05562e-05
6.17073e-05
7.05511e-05
1.47248e-05
1.46549e-05
1.46392e-05
1.4711e-05
1.48517e-05
1.50671e-05
1.48444e-05
4.66092e-05
5.60582e-05
1.87238e-05
2.53766e-05
4.62606e-05
5.61899e-05
1.89139e-05
6.91828e-05
6.92009e-05
4.64478e-05
1.86821e-05
5.58487e-05
2.53698e-05
4.61654e-05
1.88471e-05
5.6187e-05
6.44444e-05
6.4444e-05
3.18812e-05
6.46115e-05
6.46379e-05
6.20731e-05
7.06318e-05
6.17795e-05
7.06942e-05
6.90733e-05
6.90944e-05
6.2173e-05
7.06429e-05
6.18879e-05
7.06992e-05
1.48528e-05
1.51717e-05
1.49506e-05
1.51758e-05
1.48546e-05
1.52784e-05
1.51104e-05
4.70084e-05
5.61032e-05
1.93805e-05
2.57319e-05
4.69474e-05
5.60199e-05
1.94545e-05
6.91664e-05
6.91044e-05
4.72994e-05
1.94365e-05
5.66364e-05
2.65892e-05
4.6966e-05
1.96522e-05
5.66849e-05
6.47782e-05
6.48383e-05
3.28837e-05
6.46763e-05
6.47075e-05
6.25504e-05
7.06718e-05
6.24381e-05
7.06497e-05
6.91927e-05
6.9255e-05
6.24957e-05
7.06648e-05
6.24224e-05
7.06392e-05
1.48941e-05
1.52874e-05
1.51272e-05
1.59896e-05
1.56999e-05
1.52525e-05
1.54569e-05
4.76304e-05
5.63475e-05
1.96599e-05
2.6679e-05
4.71782e-05
5.68854e-05
1.98646e-05
6.8993e-05
6.89941e-05
4.76601e-05
2.01311e-05
5.6596e-05
2.68852e-05
4.75226e-05
2.02073e-05
5.66237e-05
6.44008e-05
6.42994e-05
3.33199e-05
6.49088e-05
6.47626e-05
6.25745e-05
7.05818e-05
6.25931e-05
7.05112e-05
6.92571e-05
6.92159e-05
6.24461e-05
7.05566e-05
6.25153e-05
7.04923e-05
1.60513e-05
1.52337e-05
1.57306e-05
1.55361e-05
1.66679e-05
1.52482e-05
1.64127e-05
4.88789e-05
5.76408e-05
2.0996e-05
2.9198e-05
4.84932e-05
5.77883e-05
2.14362e-05
6.90385e-05
6.90649e-05
4.85753e-05
2.04999e-05
5.69797e-05
2.71932e-05
4.82866e-05
2.07217e-05
5.69862e-05
6.57149e-05
6.56258e-05
3.56749e-05
6.58388e-05
6.57866e-05
6.21619e-05
7.04436e-05
6.22318e-05
7.06129e-05
6.91357e-05
6.91719e-05
6.23139e-05
7.0476e-05
6.22755e-05
7.07084e-05
1.67486e-05
1.53115e-05
1.65095e-05
1.48237e-05
1.69677e-05
1.63096e-05
1.65411e-05
4.90829e-05
5.7794e-05
2.22644e-05
3.00596e-05
4.90709e-05
5.79138e-05
2.23894e-05
6.9201e-05
6.93639e-05
4.88545e-05
2.13134e-05
5.66347e-05
2.80669e-05
4.87181e-05
2.15065e-05
5.68723e-05
6.57687e-05
6.57327e-05
3.61326e-05
6.59027e-05
6.58115e-05
6.37528e-05
7.10872e-05
6.31521e-05
7.11932e-05
6.92483e-05
6.89967e-05
6.33316e-05
7.11423e-05
6.2869e-05
7.12607e-05
1.70032e-05
1.6911e-05
1.65156e-05
1.79237e-05
1.66891e-05
1.8621e-05
1.6244e-05
5.01555e-05
5.90145e-05
2.28567e-05
3.07175e-05
4.97195e-05
5.92122e-05
2.29948e-05
6.94499e-05
6.94833e-05
4.97339e-05
2.26008e-05
5.81409e-05
3.16944e-05
4.93411e-05
2.3086e-05
5.87754e-05
6.55293e-05
6.55606e-05
3.54842e-05
6.44514e-05
6.4612e-05
6.32592e-05
7.10791e-05
6.36618e-05
7.09368e-05
6.83665e-05
6.8411e-05
6.46466e-05
7.12311e-05
6.4187e-05
7.10591e-05
1.62317e-05
1.89953e-05
1.61669e-05
2.06134e-05
1.52961e-05
1.90593e-05
1.64402e-05
4.93837e-05
5.68741e-05
2.30179e-05
2.83736e-05
4.99738e-05
5.51059e-05
2.28789e-05
6.95413e-05
6.9111e-05
5.14064e-05
2.45196e-05
6.06533e-05
3.39908e-05
5.07002e-05
2.48585e-05
6.12602e-05
6.33977e-05
6.39707e-05
3.47972e-05
6.44611e-05
6.51785e-05
6.38708e-05
7.07043e-05
6.3451e-05
7.06195e-05
6.92792e-05
6.96447e-05
6.25211e-05
7.0569e-05
6.3717e-05
7.04711e-05
1.52749e-05
1.85201e-05
1.72385e-05
1.84843e-05
1.71357e-05
1.53109e-05
1.87132e-05
5.13314e-05
5.61373e-05
2.24991e-05
2.82521e-05
4.94885e-05
5.91588e-05
2.26297e-05
6.80915e-05
6.80482e-05
5.03719e-05
2.50302e-05
5.76237e-05
2.97644e-05
5.14001e-05
2.47328e-05
5.41679e-05
6.7052e-05
6.67741e-05
3.96132e-05
6.79741e-05
6.71619e-05
6.28544e-05
7.04618e-05
6.35351e-05
7.05021e-05
6.95251e-05
6.93271e-05
6.27445e-05
7.06471e-05
6.17439e-05
7.08825e-05
1.86153e-05
1.49164e-05
1.87246e-05
1.57219e-05
2.0408e-05
1.60906e-05
1.84172e-05
5.12334e-05
6.05799e-05
2.59855e-05
3.51736e-05
5.2292e-05
5.90803e-05
2.66363e-05
6.93748e-05
7.02527e-05
4.86009e-05
2.28505e-05
5.21597e-05
2.66198e-05
4.86882e-05
2.26954e-05
5.63589e-05
6.51452e-05
6.46351e-05
3.75833e-05
6.19621e-05
6.26912e-05
6.36702e-05
7.11883e-05
6.24022e-05
7.17371e-05
6.9523e-05
6.98717e-05
6.50941e-05
7.14342e-05
6.46531e-05
7.16938e-05
2.04765e-05
1.90253e-05
1.84195e-05
1.80298e-05
2.07311e-05
2.43897e-05
2.05047e-05
5.08363e-05
5.7512e-05
2.67583e-05
3.46296e-05
4.98907e-05
5.90333e-05
2.67229e-05
7.08438e-05
7.01945e-05
5.43263e-05
2.47028e-05
6.33921e-05
3.95647e-05
5.19925e-05
2.73432e-05
6.50407e-05
6.35876e-05
6.53288e-05
3.88814e-05
6.83122e-05
6.92028e-05
6.70288e-05
7.21436e-05
6.60345e-05
7.19394e-05
6.98979e-05
6.94935e-05
6.56315e-05
7.19032e-05
6.51902e-05
7.17635e-05
2.11965e-05
2.46619e-05
2.18433e-05
2.48081e-05
2.26183e-05
2.37226e-05
2.29643e-05
5.55243e-05
6.24671e-05
2.81664e-05
3.7964e-05
5.48613e-05
6.26919e-05
2.95094e-05
6.88955e-05
6.88829e-05
5.39927e-05
3.13636e-05
6.09604e-05
3.99153e-05
5.52062e-05
3.1459e-05
5.87008e-05
7.21242e-05
7.18938e-05
4.67565e-05
6.93793e-05
6.84685e-05
6.33913e-05
7.06325e-05
6.54202e-05
7.02531e-05
6.88939e-05
6.89439e-05
6.43302e-05
7.07177e-05
6.56463e-05
7.0337e-05
2.26969e-05
2.27744e-05
2.28224e-05
2.14624e-05
2.19783e-05
2.08835e-05
2.0506e-05
5.20762e-05
5.99032e-05
3.0693e-05
3.80624e-05
5.35095e-05
5.86703e-05
3.05764e-05
6.93532e-05
6.94408e-05
5.25809e-05
3.01437e-05
5.91984e-05
3.56789e-05
5.26451e-05
2.94589e-05
5.99432e-05
6.30339e-05
6.35184e-05
3.8246e-05
6.23679e-05
6.32593e-05
2.05281e-05
6.92452e-05
5.88877e-05
6.96424e-05
6.96444e-05
5.89534e-05
5.89645e-05
7.00322e-05
5.27898e-05
7.00289e-05
5.27882e-05
4.50092e-05
1.49631e-05
2.85374e-05
4.50106e-05
1.49629e-05
2.85362e-05
6.96441e-05
5.89571e-05
5.89528e-05
6.96428e-05
6.99965e-05
1.61091e-05
4.4351e-05
5.21127e-05
7.00333e-05
5.27897e-05
2.79778e-05
4.50128e-05
1.49633e-05
1.50217e-05
2.85384e-05
5.21119e-05
7.00291e-05
7.00013e-05
5.27891e-05
2.79779e-05
1.6117e-05
1.49632e-05
4.5012e-05
1.50216e-05
4.45596e-05
2.85383e-05
4.50002e-05
1.49632e-05
2.85383e-05
7.00319e-05
5.27917e-05
1.49631e-05
4.50051e-05
2.85378e-05
7.00275e-05
5.27898e-05
1.7782e-05
5.85925e-05
5.85869e-05
6.96814e-05
6.96441e-05
6.96661e-05
1.78789e-05
5.89574e-05
5.89501e-05
5.86533e-05
5.86478e-05
6.96425e-05
6.96646e-05
7e-05
2.79797e-05
1.61168e-05
1.49635e-05
4.50058e-05
1.5022e-05
4.45579e-05
2.85385e-05
2.79794e-05
1.49635e-05
4.5012e-05
1.5022e-05
2.8538e-05
5.21181e-05
7.0032e-05
7.00046e-05
5.27846e-05
5.21172e-05
7.00292e-05
5.27839e-05
5.89494e-05
5.89574e-05
6.96428e-05
6.96443e-05
6.9626e-05
6.9605e-05
6.96281e-05
6.96072e-05
5.90095e-05
5.90206e-05
1.82975e-05
5.92942e-05
5.93053e-05
6.95692e-05
6.95896e-05
6.95713e-05
6.95917e-05
1.84177e-05
5.96206e-05
5.96303e-05
5.93496e-05
5.93607e-05
5.35398e-05
7.00334e-05
5.29214e-05
7.00598e-05
2.93904e-05
4.52039e-05
1.49101e-05
1.61788e-05
2.88256e-05
4.56451e-05
1.48602e-05
2.93893e-05
4.52068e-05
1.491e-05
1.6178e-05
2.88243e-05
4.56459e-05
1.48599e-05
5.36565e-05
7.00909e-05
7.00672e-05
5.42305e-05
5.36553e-05
7.00885e-05
7.0064e-05
5.42301e-05
2.96782e-05
1.62107e-05
4.62529e-05
1.47738e-05
4.58288e-05
1.48156e-05
3.02421e-05
2.96773e-05
1.62103e-05
4.62556e-05
1.47738e-05
4.58337e-05
1.48153e-05
3.02423e-05
5.90141e-05
5.90099e-05
1.82949e-05
5.93016e-05
5.92959e-05
6.96264e-05
6.96056e-05
6.95708e-05
6.95913e-05
1.8415e-05
5.96259e-05
5.96216e-05
5.93568e-05
5.93517e-05
6.95695e-05
6.959e-05
2.93908e-05
4.52081e-05
1.49102e-05
1.61792e-05
2.88262e-05
4.56486e-05
1.48603e-05
5.35403e-05
7.00333e-05
5.29178e-05
7.00593e-05
2.93897e-05
1.491e-05
4.52079e-05
1.61788e-05
2.88258e-05
1.48601e-05
4.56488e-05
5.36595e-05
7.00921e-05
7.00684e-05
5.42276e-05
2.96794e-05
1.6211e-05
4.62562e-05
1.47738e-05
4.58331e-05
1.4816e-05
3.02429e-05
5.36575e-05
7.00885e-05
7.00635e-05
5.42279e-05
2.96782e-05
1.62107e-05
1.47736e-05
4.62545e-05
1.48157e-05
4.58322e-05
3.02423e-05
5.35398e-05
7.00365e-05
5.29167e-05
7.00626e-05
2.93881e-05
1.49102e-05
4.52049e-05
1.61782e-05
2.88246e-05
1.48598e-05
4.56408e-05
5.35411e-05
7.00319e-05
5.29151e-05
7.00596e-05
2.96776e-05
1.62099e-05
4.62461e-05
1.47742e-05
4.58352e-05
1.48157e-05
3.02447e-05
5.36622e-05
7.00915e-05
7.00669e-05
5.42319e-05
2.96777e-05
1.62105e-05
1.4774e-05
4.62501e-05
1.48158e-05
4.58297e-05
3.0244e-05
5.3662e-05
7.00873e-05
7.00639e-05
5.42286e-05
5.90156e-05
5.90084e-05
1.82957e-05
5.93037e-05
5.92971e-05
6.96264e-05
6.96053e-05
6.95708e-05
6.95912e-05
1.84164e-05
5.96247e-05
5.96187e-05
5.93575e-05
5.93511e-05
6.95692e-05
6.95896e-05
2.93909e-05
1.49103e-05
4.5206e-05
1.6179e-05
2.88258e-05
1.48603e-05
4.565e-05
5.35442e-05
7.00366e-05
5.29215e-05
7.00628e-05
5.35428e-05
7.00338e-05
5.29199e-05
7.00602e-05
2.968e-05
1.62105e-05
1.47741e-05
4.62501e-05
1.48162e-05
4.58303e-05
3.02445e-05
2.96794e-05
1.62112e-05
1.47742e-05
4.62561e-05
1.48162e-05
4.58303e-05
3.02425e-05
5.36589e-05
7.00913e-05
7.00667e-05
5.42271e-05
5.3658e-05
7.0089e-05
7.00641e-05
5.42267e-05
6.96265e-05
6.96055e-05
6.96283e-05
6.96073e-05
1.84167e-05
5.96173e-05
5.96245e-05
5.9348e-05
5.93592e-05
6.95693e-05
6.95898e-05
6.95709e-05
6.95915e-05
6.9554e-05
6.95347e-05
6.9556e-05
6.95369e-05
5.96701e-05
5.96799e-05
1.89199e-05
5.99211e-05
5.99315e-05
6.95018e-05
6.95202e-05
6.9504e-05
6.95223e-05
1.90606e-05
6.02136e-05
6.02231e-05
5.99696e-05
5.99801e-05
5.48572e-05
7.00923e-05
5.43398e-05
7.0116e-05
3.1096e-05
4.64229e-05
1.47385e-05
1.63383e-05
3.05299e-05
4.68312e-05
1.47048e-05
3.10963e-05
4.64259e-05
1.47385e-05
1.63386e-05
3.05295e-05
4.68327e-05
1.47048e-05
5.49535e-05
7.0144e-05
7.01228e-05
5.54281e-05
5.49526e-05
7.01415e-05
7.01197e-05
5.54279e-05
3.13732e-05
1.63922e-05
4.7392e-05
1.4653e-05
4.69922e-05
1.46779e-05
3.19365e-05
3.13726e-05
1.63929e-05
4.73953e-05
1.46533e-05
4.69969e-05
1.46781e-05
3.19374e-05
5.9675e-05
5.96707e-05
1.892e-05
5.99243e-05
5.99193e-05
6.95539e-05
6.95347e-05
6.9503e-05
6.95216e-05
1.90609e-05
6.02188e-05
6.02153e-05
5.99736e-05
5.99695e-05
6.95019e-05
6.95203e-05
3.10942e-05
4.64266e-05
1.47386e-05
1.63385e-05
3.05304e-05
4.68341e-05
1.47051e-05
5.48579e-05
7.00923e-05
5.43357e-05
7.01162e-05
3.10944e-05
1.47384e-05
4.64246e-05
1.63395e-05
3.05301e-05
1.47051e-05
4.68373e-05
5.4956e-05
7.01457e-05
7.01239e-05
5.54296e-05
3.13748e-05
1.63924e-05
4.73956e-05
1.4653e-05
4.69957e-05
1.4678e-05
3.19373e-05
5.49552e-05
7.01411e-05
7.01196e-05
5.54293e-05
3.13749e-05
1.63934e-05
1.46532e-05
4.73915e-05
1.46781e-05
4.69981e-05
3.19379e-05
5.48568e-05
7.00953e-05
5.43372e-05
7.01186e-05
3.10956e-05
1.47383e-05
4.64249e-05
1.63393e-05
3.05305e-05
1.47053e-05
4.68296e-05
5.48574e-05
7.00909e-05
5.43341e-05
7.01157e-05
3.13769e-05
1.63926e-05
4.73862e-05
1.4654e-05
4.70002e-05
1.46785e-05
3.19401e-05
5.49565e-05
7.01437e-05
7.01224e-05
5.54345e-05
3.13759e-05
1.63936e-05
1.46538e-05
4.73896e-05
1.46785e-05
4.69939e-05
3.19413e-05
5.4957e-05
7.01406e-05
7.01195e-05
5.54326e-05
5.96746e-05
5.9669e-05
1.89213e-05
5.9928e-05
5.99225e-05
6.9554e-05
6.95347e-05
6.9503e-05
6.95218e-05
1.90624e-05
6.02165e-05
6.02107e-05
5.99766e-05
5.99711e-05
6.95016e-05
6.95202e-05
3.10973e-05
1.47385e-05
4.64246e-05
1.63399e-05
3.05308e-05
1.47057e-05
4.68385e-05
5.48618e-05
7.00953e-05
5.43378e-05
7.01192e-05
5.48611e-05
7.00931e-05
5.43375e-05
7.01167e-05
3.13743e-05
1.63927e-05
1.46537e-05
4.7387e-05
1.46784e-05
4.69965e-05
3.19422e-05
3.13771e-05
1.63941e-05
1.46539e-05
4.73952e-05
1.46787e-05
4.69956e-05
3.19386e-05
5.49576e-05
7.01445e-05
7.01226e-05
5.54295e-05
5.4957e-05
7.01413e-05
7.012e-05
5.54281e-05
6.9554e-05
6.95346e-05
6.95558e-05
6.95366e-05
1.90637e-05
6.02085e-05
6.02169e-05
5.99676e-05
5.99785e-05
6.95016e-05
6.952e-05
6.95034e-05
6.95219e-05
6.94876e-05
6.94697e-05
6.94897e-05
6.94719e-05
6.02584e-05
6.0268e-05
1.96492e-05
6.04807e-05
6.04904e-05
6.94399e-05
6.94562e-05
6.94419e-05
6.94583e-05
1.98112e-05
6.07455e-05
6.07543e-05
6.05237e-05
6.05334e-05
5.59578e-05
7.01445e-05
5.55195e-05
7.01655e-05
3.27731e-05
4.75387e-05
1.46355e-05
1.6589e-05
3.22081e-05
4.79219e-05
1.46192e-05
3.27727e-05
4.75419e-05
1.46356e-05
1.65894e-05
3.22077e-05
4.79213e-05
1.46192e-05
5.60393e-05
7.01907e-05
7.01724e-05
5.64334e-05
5.60373e-05
7.01875e-05
7.01687e-05
5.6432e-05
3.30318e-05
1.66661e-05
4.84371e-05
1.4603e-05
4.80618e-05
1.46103e-05
3.35893e-05
3.30301e-05
1.66662e-05
4.84401e-05
1.46028e-05
4.80651e-05
1.46102e-05
3.35888e-05
6.02626e-05
6.02591e-05
1.96488e-05
6.04821e-05
6.04772e-05
6.94871e-05
6.94694e-05
6.9441e-05
6.94574e-05
1.98107e-05
6.0752e-05
6.07463e-05
6.05265e-05
6.05217e-05
6.94399e-05
6.94561e-05
3.27718e-05
4.75428e-05
1.46357e-05
1.65892e-05
3.22092e-05
4.7925e-05
1.46195e-05
5.59562e-05
7.01445e-05
5.55188e-05
7.01657e-05
3.27714e-05
1.46357e-05
4.75391e-05
1.65909e-05
3.22094e-05
1.46197e-05
4.79307e-05
5.60388e-05
7.0192e-05
7.01733e-05
5.6434e-05
3.30335e-05
1.66662e-05
4.844e-05
1.46032e-05
4.80657e-05
1.46106e-05
3.35893e-05
5.60372e-05
7.01872e-05
7.01685e-05
5.64317e-05
3.30328e-05
1.66673e-05
1.46029e-05
4.84323e-05
1.46105e-05
4.80691e-05
3.35878e-05
5.59561e-05
7.0147e-05
5.55226e-05
7.01677e-05
3.27735e-05
1.4636e-05
4.75424e-05
1.65903e-05
3.22112e-05
1.462e-05
4.7922e-05
5.59561e-05
7.01435e-05
5.55207e-05
7.01642e-05
3.30343e-05
1.66653e-05
4.84305e-05
1.46028e-05
4.80678e-05
1.46106e-05
3.35859e-05
5.60377e-05
7.0189e-05
7.01708e-05
5.64327e-05
3.30336e-05
1.66664e-05
1.46027e-05
4.84281e-05
1.46107e-05
4.80625e-05
3.35866e-05
5.60377e-05
7.01864e-05
7.01673e-05
5.64309e-05
6.02606e-05
6.0255e-05
1.96496e-05
6.04896e-05
6.04837e-05
6.94873e-05
6.947e-05
6.94404e-05
6.94578e-05
1.98119e-05
6.07448e-05
6.07387e-05
6.05333e-05
6.05277e-05
6.94391e-05
6.94564e-05
3.2773e-05
1.4636e-05
4.75414e-05
1.65902e-05
3.22105e-05
1.46199e-05
4.79284e-05
5.59605e-05
7.01478e-05
5.55201e-05
7.01684e-05
5.59585e-05
7.01447e-05
5.55187e-05
7.01657e-05
3.30336e-05
1.66665e-05
1.46032e-05
4.84285e-05
1.4611e-05
4.80682e-05
3.35912e-05
3.30343e-05
1.66663e-05
1.46031e-05
4.84345e-05
1.46107e-05
4.80623e-05
3.35869e-05
5.60409e-05
7.01899e-05
7.01712e-05
5.64315e-05
5.6039e-05
7.01881e-05
7.01686e-05
5.64302e-05
6.94874e-05
6.94698e-05
6.94894e-05
6.94718e-05
1.98117e-05
6.07344e-05
6.07436e-05
6.05223e-05
6.0532e-05
6.94393e-05
6.9456e-05
6.94412e-05
6.94581e-05
6.94265e-05
6.94099e-05
6.94285e-05
6.9412e-05
6.0786e-05
6.07947e-05
2.04677e-05
6.09832e-05
6.09916e-05
6.93829e-05
6.93973e-05
6.9385e-05
6.93994e-05
2.06454e-05
6.12185e-05
6.12278e-05
6.10209e-05
6.10296e-05
5.6874e-05
7.019e-05
5.65074e-05
7.02082e-05
3.43904e-05
4.85643e-05
1.46032e-05
1.69277e-05
3.38392e-05
4.89206e-05
1.46058e-05
3.43897e-05
4.8566e-05
1.4603e-05
1.69275e-05
3.38377e-05
4.89182e-05
1.46055e-05
5.69424e-05
7.02314e-05
7.02142e-05
5.72713e-05
5.69404e-05
7.02274e-05
7.02108e-05
5.72689e-05
3.46258e-05
1.70247e-05