/*--------------------------------*- C++ -*----------------------------------*\
| =========                 |                                                 |
| \\      /  F ield         | OpenFOAM: The Open Source CFD Toolbox           |
|  \\    /   O peration     | Version:  2312                                  |
|   \\  /    A nd           | Website:  www.openfoam.com                      |
|    \\/     M anipulation  |                                                 |
\*---------------------------------------------------------------------------*/
FoamFile
{
    version     2.0;
    format      ascii;
    arch        "LSB;label=32;scalar=64";
    class       volScalarField;
    location    "1000";
    object      nut;
}
// * * * * * * * * * * * * * * * * * * * * * * * * * * * * * * * * * * * * * //

dimensions      [0 2 -1 0 0 0 0];

internalField   nonuniform List<scalar> 
43120
(
0.000150133
0.000101695
0.00010169
8.25663e-05
0.000146049
9.88797e-05
9.88766e-05
8.2095e-05
0.000142026
9.65598e-05
9.65596e-05
8.21294e-05
0.000138103
9.47856e-05
9.47612e-05
8.26615e-05
0.000134259
9.35124e-05
9.35128e-05
8.36515e-05
0.000130583
9.26729e-05
9.26786e-05
8.49738e-05
0.000127094
9.24579e-05
9.24866e-05
8.66488e-05
0.000123993
9.28155e-05
9.27138e-05
8.88056e-05
0.000120967
9.30174e-05
9.31842e-05
9.0876e-05
0.000118159
9.41608e-05
9.40583e-05
9.27354e-05
0.000115774
9.59229e-05
9.57195e-05
9.58888e-05
0.000113664
9.696e-05
9.73785e-05
9.78135e-05
0.000110822
9.85993e-05
9.88539e-05
0.000100384
0.000111791
0.000101315
0.000100681
0.000103827
0.000113536
0.000106515
0.000103432
0.000106774
0.000104731
0.00010661
0.000111326
0.000109674
0.000111354
0.000101321
0.000111602
0.000108431
0.000120498
0.000115036
0.000107761
0.000115971
0.00010733
0.000122094
0.000102981
0.000124421
8.00634e-05
0.000130003
0.000118517
0.00012126
0.000121331
0.000121036
0.000147269
0.000109374
0.00016038
9.0891e-05
0.000145251
0.000127096
0.000123665
0.000138601
7.90803e-05
0.000136933
7.47382e-05
0.000132962
0.000139877
0.000102567
0.0001119
0.000139656
0.000184111
0.000167355
0.00018691
0.000161487
0.00014162
0.000148789
0.000135858
8.28555e-05
0.000102444
0.000102431
8.28567e-05
0.000102465
0.000102428
0.000102471
0.000102444
8.28432e-05
0.000102467
0.000102456
8.2842e-05
8.25891e-05
8.22778e-05
0.000101673
0.000101652
9.95156e-05
9.94996e-05
8.25784e-05
8.22639e-05
0.000101694
0.000101653
9.9536e-05
9.94946e-05
0.000101665
9.95402e-05
9.95115e-05
8.25662e-05
8.22636e-05
0.000101677
9.95348e-05
9.95236e-05
8.22565e-05
8.21078e-05
8.21756e-05
9.88526e-05
9.88391e-05
9.70507e-05
9.70504e-05
8.20993e-05
8.21765e-05
9.88717e-05
9.88378e-05
9.70699e-05
9.70419e-05
9.88527e-05
9.70897e-05
9.70684e-05
8.20982e-05
8.21791e-05
9.88639e-05
9.70798e-05
9.7077e-05
8.21826e-05
8.2127e-05
8.26599e-05
9.65267e-05
9.65209e-05
9.51568e-05
9.51401e-05
8.21264e-05
8.2656e-05
9.6546e-05
9.65215e-05
9.51766e-05
9.51301e-05
9.6546e-05
9.5176e-05
9.51426e-05
8.21258e-05
8.26406e-05
9.65499e-05
9.51667e-05
9.51482e-05
8.26216e-05
8.27097e-05
8.35159e-05
9.4762e-05
9.47498e-05
9.37407e-05
9.37561e-05
8.27092e-05
8.3535e-05
9.47782e-05
9.47287e-05
9.37595e-05
9.37558e-05
9.47351e-05
9.37746e-05
9.37557e-05
8.26759e-05
8.35385e-05
9.47435e-05
9.37786e-05
9.37652e-05
8.35146e-05
8.36444e-05
8.48074e-05
9.34642e-05
9.34951e-05
9.28648e-05
9.27837e-05
8.36768e-05
8.47037e-05
9.3478e-05
9.34911e-05
9.28886e-05
9.28062e-05
9.34898e-05
9.28339e-05
9.28536e-05
8.36722e-05
8.47325e-05
9.34966e-05
9.28407e-05
9.28661e-05
8.47926e-05
8.50004e-05
8.63038e-05
9.26793e-05
9.26244e-05
9.23744e-05
9.24542e-05
8.49001e-05
8.64207e-05
9.27024e-05
9.26381e-05
9.23887e-05
9.24225e-05
9.2719e-05
9.24713e-05
9.2378e-05
8.49124e-05
8.64198e-05
9.27269e-05
9.24625e-05
9.23857e-05
8.63792e-05
8.65822e-05
8.83974e-05
9.23565e-05
9.24493e-05
9.25744e-05
9.26603e-05
8.67316e-05
8.85017e-05
9.2372e-05
9.24548e-05
9.25869e-05
9.26077e-05
9.23648e-05
9.27047e-05
9.26535e-05
8.67358e-05
8.84737e-05
9.23711e-05
9.26373e-05
9.26362e-05
8.8445e-05
8.87512e-05
9.05286e-05
9.27213e-05
9.2763e-05
9.30779e-05
9.29293e-05
8.88047e-05
9.03448e-05
9.27318e-05
9.26923e-05
9.30907e-05
9.30483e-05
9.26876e-05
9.29373e-05
9.31865e-05
8.87882e-05
9.04349e-05
9.26821e-05
9.30709e-05
9.32131e-05
9.05122e-05
9.08733e-05
9.2699e-05
9.32797e-05
9.2997e-05
9.39526e-05
9.38837e-05
9.0622e-05
9.25798e-05
9.32898e-05
9.31623e-05
9.39822e-05
9.38261e-05
9.33909e-05
9.38834e-05
9.36085e-05
9.07671e-05
9.24937e-05
9.34019e-05
9.38032e-05
9.36158e-05
9.2407e-05
9.30708e-05
9.50523e-05
9.41096e-05
9.41965e-05
9.51212e-05
9.53509e-05
9.30988e-05
9.53443e-05
9.41461e-05
9.40358e-05
9.51223e-05
9.5191e-05
9.38067e-05
9.54543e-05
9.5435e-05
9.29089e-05
9.514e-05
9.38428e-05
9.53031e-05
9.54163e-05
9.53217e-05
9.55158e-05
9.74846e-05
9.56027e-05
9.57839e-05
9.67507e-05
9.66956e-05
9.57796e-05
9.75481e-05
9.5586e-05
9.56126e-05
9.67497e-05
9.67992e-05
9.59729e-05
9.66272e-05
9.65651e-05
9.56094e-05
9.78206e-05
9.5901e-05
9.67966e-05
9.65963e-05
9.74981e-05
9.78165e-05
9.90469e-05
9.71135e-05
9.70791e-05
9.75355e-05
9.82755e-05
9.78551e-05
9.96972e-05
9.71105e-05
9.74002e-05
9.75496e-05
9.8885e-05
9.68711e-05
9.82419e-05
9.86017e-05
9.8294e-05
0.000100204
9.69101e-05
9.86965e-05
9.8519e-05
9.99314e-05
9.94023e-05
0.000104256
9.77906e-05
9.85111e-05
0.000101205
0.000100027
0.000100117
0.000102665
9.78655e-05
9.90705e-05
0.000101288
9.98857e-05
9.90083e-05
0.000100298
0.000100585
0.000100458
0.000101908
9.90055e-05
0.000100097
0.000100652
0.000103096
0.000105726
0.000109134
0.000102939
0.000101191
0.000108078
0.000105713
0.00010352
0.000108131
0.000102973
0.000100324
0.000107973
0.000102113
0.000101655
0.000105238
0.000104012
0.000102353
0.000105034
0.000101735
0.000102306
0.000104206
0.000106479
0.000108808
0.000102142
0.00010779
0.000107076
0.000101692
0.000107018
0.000108817
0.000108603
0.000107569
0.000103432
0.000101352
0.000109749
0.000104118
0.000107768
0.000107137
0.000106061
0.000113021
0.000104052
0.000109675
0.000106371
0.000108992
0.000101045
0.000114986
9.9858e-05
0.000105498
0.000109175
0.000101012
0.000107865
0.000104513
9.96039e-05
0.000111252
0.000109743
0.000112162
0.000108559
0.000101485
0.000106767
0.000114077
0.000114085
0.000108083
0.000112213
0.000107372
0.000109132
0.00011868
0.000130012
0.000114451
0.000102147
0.000123037
0.000112527
0.000105041
0.00011567
0.000114936
0.000111754
0.000123344
0.000109206
0.000105267
0.000111051
0.000108914
0.000113529
0.000110491
0.000105994
0.000108706
0.000109187
0.000113318
0.000129755
0.000109167
0.000123484
0.000116292
0.000114594
0.000121291
0.000118069
0.000122783
0.000123789
0.000108357
0.000114339
0.000104638
0.000112722
0.000121299
0.000121267
0.000110055
0.000106907
0.000112684
0.000104112
0.000120864
0.000123977
0.000104853
8.68171e-05
0.00010668
0.000121449
8.87836e-05
0.000125245
0.000123134
0.000130541
0.000106535
0.000103189
8.86476e-05
0.000110133
0.000122208
0.000127105
0.000121727
0.000106083
0.00011552
0.000121786
0.000112243
0.000121512
0.000121979
9.22827e-05
0.000139445
8.87607e-05
0.000127802
0.000130419
0.00012842
0.000133273
0.000127576
8.82159e-05
0.000116304
0.000128377
0.000137528
0.000121021
0.000129237
0.000113072
0.00011983
0.000146504
0.0001206
0.000138055
0.000110846
0.000111352
0.000145474
0.000167809
0.000141612
0.000121749
0.000161764
9.52174e-05
0.000123062
8.6995e-05
0.000140111
0.000147357
0.000166291
0.000161275
0.00010965
9.37047e-05
0.000110451
0.000152468
0.000155251
0.000107994
0.000158219
0.000116819
0.000120938
0.00016461
0.000119405
0.000162856
9.25293e-05
0.000131686
0.0001263
8.54551e-05
0.000139777
0.000169273
0.000148896
0.000132725
8.67136e-05
0.000121333
0.000127185
0.000136077
0.000145031
7.03273e-05
0.000127393
8.65843e-05
0.000136953
0.000139335
0.000113647
8.58159e-05
0.000122279
0.000137183
9.2852e-05
0.000139089
0.000144717
0.000132243
0.000120204
7.88746e-05
8.94567e-05
0.000110337
0.000135398
0.000139609
0.000114224
6.68809e-05
0.000136443
0.000134675
0.00011044
0.000109727
0.000104338
8.55526e-05
0.000140981
8.85204e-05
0.000132835
0.000125032
0.000127592
0.000127495
0.00013077
8.59471e-05
0.000140367
0.000130945
0.000182
0.000110891
0.000129311
0.00014169
0.000151875
0.000193174
0.000106994
0.000184068
0.000147124
0.000158826
0.000152014
0.000205503
0.000147035
0.000136788
0.000196196
0.000160828
0.000138035
0.000161934
0.000151692
0.000181237
0.000196053
0.000147384
0.000157721
0.000160112
0.000170794
0.000185244
0.000126029
0.000163165
0.000146973
0.000171916
0.000159366
0.000202732
0.000100198
0.000199079
0.000163323
0.000129203
0.000145724
0.000159828
0.000130526
0.000198081
0.000143819
0.000128952
0.000141025
0.000160221
0.000143325
0.000124394
0.000125574
0.00013728
0.000158294
0.000138254
0.000125246
0.000110503
0.000136798
0.000135475
0.000151151
0.000151144
0.000151139
0.000151138
2.36358e-05
0.000104132
6.44986e-05
7.00587e-05
4.95558e-05
6.90883e-05
4.95653e-05
2.36274e-05
2.36238e-05
7.00582e-05
4.95503e-05
6.90781e-05
4.95598e-05
0.000150128
0.000150121
0.000150118
0.00014706
0.000147055
0.000147046
0.000147048
6.70891e-05
6.57888e-05
0.00012617
0.000100941
6.61396e-05
6.64635e-05
0.000125134
2.36265e-05
2.3623e-05
6.71062e-05
0.00012615
6.57714e-05
0.000100946
6.61376e-05
0.000125142
6.64889e-05
6.10693e-05
6.10654e-05
8.24745e-05
6.15144e-05
6.15165e-05
7.20572e-05
4.95764e-05
7.1211e-05
4.95851e-05
2.36151e-05
2.36118e-05
7.20537e-05
4.95709e-05
7.11982e-05
4.95796e-05
0.000146046
0.000146039
0.000146037
0.000143007
0.000143015
0.000143001
0.000143005
7.00388e-05
6.76886e-05
0.000122225
9.82385e-05
6.90447e-05
6.8343e-05
0.000121245
2.36142e-05
2.3611e-05
7.00618e-05
0.000122206
6.76681e-05
9.8247e-05
6.90228e-05
0.00012125
6.83678e-05
6.20246e-05
6.20189e-05
8.21541e-05
6.24284e-05
6.24293e-05
7.38107e-05
4.9595e-05
7.30509e-05
4.96028e-05
2.36037e-05
2.36006e-05
7.38024e-05
4.95897e-05
7.30496e-05
4.95972e-05
0.00014202
0.000142018
0.000142021
0.000139058
0.000139051
0.00013904
0.000139039
7.30572e-05
6.94814e-05
0.000118529
9.60612e-05
7.20024e-05
7.01165e-05
0.00011761
2.36029e-05
2.36e-05
7.30757e-05
0.000118508
6.94534e-05
9.60752e-05
7.19783e-05
0.000117615
7.01541e-05
6.29011e-05
6.28975e-05
8.23481e-05
6.32733e-05
6.32722e-05
7.53502e-05
4.96112e-05
7.46814e-05
4.96177e-05
2.35933e-05
2.35905e-05
7.53369e-05
4.96058e-05
7.46797e-05
4.96122e-05
0.000138105
0.000138085
0.000138078
0.000135222
0.000135213
0.000135215
0.000135217
7.60495e-05
7.11763e-05
0.000115123
9.44119e-05
7.49554e-05
7.17884e-05
0.0001143
2.35924e-05
2.35898e-05
7.60678e-05
0.000115104
7.11406e-05
9.44006e-05
7.49397e-05
0.000114302
7.18151e-05
6.37022e-05
6.37001e-05
8.30093e-05
6.40516e-05
6.40494e-05
7.67118e-05
4.96254e-05
7.6117e-05
4.9631e-05
2.35841e-05
2.35815e-05
7.67037e-05
4.96201e-05
7.61209e-05
4.96255e-05
0.000134283
0.000134275
0.000134274
0.000131525
0.000131478
0.000131479
0.000131504
7.90125e-05
7.27764e-05
0.000112018
9.32572e-05
7.78763e-05
7.33695e-05
0.000111301
2.35831e-05
2.35808e-05
7.90148e-05
0.00011201
7.27531e-05
9.32686e-05
7.78665e-05
0.000111307
7.33953e-05
6.44496e-05
6.44469e-05
8.41357e-05
6.47795e-05
6.47772e-05
7.79226e-05
4.96373e-05
7.73878e-05
4.96431e-05
2.35758e-05
2.35736e-05
7.79118e-05
4.96322e-05
7.7402e-05
4.96375e-05
0.000130555
0.000130572
0.000130608
0.000127931
0.000127977
0.000127934
0.000127905
8.18449e-05
7.42775e-05
0.000109325
9.256e-05
8.07523e-05
7.48502e-05
0.000108692
2.35748e-05
2.35729e-05
8.18389e-05
0.000109316
7.42415e-05
9.25605e-05
8.076e-05
0.000108702
7.48739e-05
6.51304e-05
6.5129e-05
8.55179e-05
6.54356e-05
6.54336e-05
7.90237e-05
4.96494e-05
7.85734e-05
4.96541e-05
2.35684e-05
2.35667e-05
7.90321e-05
4.96441e-05
7.85628e-05
4.9649e-05
0.000127139
0.000127172
0.000127085
0.000124695
0.000124781
0.000124715
0.000124747
8.46058e-05
7.56902e-05
0.000106993
9.24928e-05
8.34495e-05
7.62985e-05
0.000106479
2.35675e-05
2.35658e-05
8.45642e-05
0.000106993
7.56684e-05
9.25403e-05
8.34897e-05
0.000106508
7.62981e-05
6.57768e-05
6.57742e-05
8.73194e-05
6.60643e-05
6.60586e-05
8.0072e-05
4.96606e-05
7.96349e-05
4.96647e-05
2.35615e-05
2.35601e-05
8.00301e-05
4.96549e-05
7.96417e-05
4.96592e-05
0.000124058
0.000123946
0.000123891
0.000121677
0.000121566
0.000121652
0.000121747
8.72362e-05
7.70438e-05
0.000105227
9.2897e-05
8.61331e-05
7.76285e-05
0.000104803
2.35606e-05
2.35592e-05
8.72289e-05
0.000105157
7.70248e-05
9.28319e-05
8.61716e-05
0.00010476
7.76118e-05
6.64229e-05
6.64203e-05
8.94902e-05
6.66337e-05
6.66265e-05
8.10348e-05
4.96706e-05
8.05926e-05
4.96743e-05
2.35558e-05
2.35553e-05
8.10189e-05
4.96653e-05
8.06297e-05
4.96687e-05
0.000120794
0.000120889
0.000121009
0.000118888
0.000118766
0.000118739
0.000118646
8.97174e-05
7.82388e-05
0.000103669
9.32359e-05
8.86127e-05
7.88309e-05
0.000103366
2.35551e-05
2.3554e-05
8.97312e-05
0.000103686
7.8291e-05
9.33488e-05
8.86413e-05
0.000103361
7.88359e-05
6.70065e-05
6.70005e-05
9.15524e-05
6.71932e-05
6.71937e-05
8.18838e-05
4.96807e-05
8.14668e-05
4.9686e-05
2.35519e-05
2.35508e-05
8.18753e-05
4.96757e-05
8.14981e-05
4.96798e-05
0.000118127
0.000118046
0.000117918
0.000116261
0.000116505
0.000116359
0.000116438
9.20451e-05
7.95118e-05
0.000102619
9.44779e-05
9.09778e-05
8.00311e-05
0.000102407
2.35511e-05
2.35506e-05
9.21733e-05
0.000102679
7.95e-05
9.43871e-05
9.10318e-05
0.000102531
8.00639e-05
6.74064e-05
6.74048e-05
9.3607e-05
6.7778e-05
6.77619e-05
8.2769e-05
4.96933e-05
8.23241e-05
4.96979e-05
2.35481e-05
2.35475e-05
8.27853e-05
4.96885e-05
8.23212e-05
4.96932e-05
0.000116036
0.000115844
0.000116032
0.00011425
0.000114141
0.000114232
0.000114089
9.44919e-05
8.0741e-05
0.000102447
9.6229e-05
9.35315e-05
8.11986e-05
0.000102383
2.35479e-05
2.35473e-05
9.43561e-05
0.000102278
8.06724e-05
9.60442e-05
9.33675e-05
0.000102186
8.11789e-05
6.80552e-05
6.8045e-05
9.66983e-05
6.81769e-05
6.81712e-05
8.33957e-05
4.97046e-05
8.31421e-05
4.97102e-05
2.35456e-05
2.35467e-05
8.34131e-05
4.9699e-05
8.31019e-05
4.97024e-05
0.000113587
0.00011383
0.000113485
0.000111489
0.000112117
0.000112632
0.000112282
9.65016e-05
8.16715e-05
0.000101876
9.73943e-05
9.54086e-05
8.22471e-05
0.000101906
2.3545e-05
2.35445e-05
9.64864e-05
0.000101987
8.17679e-05
9.79833e-05
9.55799e-05
0.000102011
8.23016e-05
6.84423e-05
6.84429e-05
9.85809e-05
6.86778e-05
6.86573e-05
8.41131e-05
4.97204e-05
8.38808e-05
4.97332e-05
2.35459e-05
2.35474e-05
8.4224e-05
4.9713e-05
8.39254e-05
4.97251e-05
0.000111491
0.000112055
0.000111882
0.000111089
0.000110251
0.000110199
0.000110774
9.85141e-05
8.26716e-05
0.000102121
9.89906e-05
9.77484e-05
8.31346e-05
0.000102156
2.35423e-05
2.35444e-05
9.87321e-05
0.00010226
8.27305e-05
9.90924e-05
9.77111e-05
0.000102303
8.32029e-05
6.88713e-05
6.88838e-05
0.000101274
6.91209e-05
6.9119e-05
8.51905e-05
4.9746e-05
8.4725e-05
4.97463e-05
2.35477e-05
2.35476e-05
8.50965e-05
4.97403e-05
8.46029e-05
4.97426e-05
0.000110314
0.000109684
0.000110764
0.000114314
0.000111874
0.000108867
0.00011083
0.000100689
8.38802e-05
0.000102745
0.000102561
9.97121e-05
8.4439e-05
0.000103145
2.35451e-05
2.35465e-05
0.000100788
0.000102696
8.38396e-05
0.000101184
9.98307e-05
0.000103112
8.4136e-05
6.95633e-05
6.95844e-05
0.000105144
6.97224e-05
6.97306e-05
8.55337e-05
4.97346e-05
8.5526e-05
4.97314e-05
2.35426e-05
2.35391e-05
8.54505e-05
4.97339e-05
8.54054e-05
4.97316e-05
0.000112419
0.000109087
0.000110311
0.000106857
0.000111492
0.000112569
0.000110178
0.000103459
8.54093e-05
0.000105299
0.00010757
0.000102237
8.58141e-05
0.00010614
2.35508e-05
2.3554e-05
0.000102531
0.000104402
8.46396e-05
0.000105215
0.000101833
0.000104579
8.54595e-05
6.97701e-05
6.97248e-05
0.000107326
7.01026e-05
7.01118e-05
8.60233e-05
4.97646e-05
8.54023e-05
4.97878e-05
2.3533e-05
2.35363e-05
8.63181e-05
4.97627e-05
8.56429e-05
4.97838e-05
0.00011
0.000113743
0.0001106
0.000106988
0.000103423
0.000113022
0.000108228
0.000104236
8.55064e-05
0.00010748
0.000104911
0.000104384
8.51055e-05
0.000106672
2.35487e-05
2.35383e-05
0.000105208
0.000106775
8.66503e-05
0.000112226
0.000104042
0.000107818
8.68128e-05
7.04979e-05
7.05922e-05
0.000110375
7.03586e-05
7.04325e-05
8.73464e-05
4.97811e-05
8.69695e-05
4.97734e-05
2.35529e-05
2.35638e-05
8.72822e-05
4.97728e-05
8.70123e-05
4.9764e-05
0.000101487
0.000112396
0.000106472
0.000119554
0.000106586
0.000108633
0.000105275
0.000105057
8.53626e-05
0.000102544
0.000103534
0.000103818
8.66144e-05
0.000102351
2.35188e-05
2.35188e-05
0.000105519
0.000109007
8.64242e-05
0.000110751
0.000105498
0.000108376
8.64269e-05
6.95749e-05
6.94245e-05
0.000107927
7.036e-05
7.00998e-05
8.76976e-05
4.97502e-05
8.76189e-05
4.97254e-05
2.35647e-05
2.35578e-05
8.74213e-05
4.97354e-05
8.75187e-05
4.97126e-05
0.000110141
0.000106543
0.000107673
0.000113695
0.000116534
9.89477e-05
0.000115272
0.000109486
8.85363e-05
0.000108244
0.000118148
0.000108032
8.89502e-05
0.000111497
2.35262e-05
2.35306e-05
0.00010866
0.000106575
8.74697e-05
0.000107186
0.000107588
0.000107042
8.75421e-05
7.17706e-05
7.16275e-05
0.000120293
7.20713e-05
7.19868e-05
8.62717e-05
4.96988e-05
8.68023e-05
4.97546e-05
2.35438e-05
2.35496e-05
8.6571e-05
4.97031e-05
8.67899e-05
4.97819e-05
0.000117236
9.6577e-05
0.000116531
8.3702e-05
0.000120292
9.98978e-05
0.000116803
0.000109342
8.86682e-05
0.00011654
0.000123076
0.000109764
8.88285e-05
0.000116519
2.35525e-05
2.35805e-05
0.000108719
0.000107271
8.61414e-05
0.000103653
0.000108727
0.00010698
8.62107e-05
7.2091e-05
7.19964e-05
0.000124429
7.24824e-05
7.22399e-05
8.98938e-05
4.99228e-05
8.8253e-05
4.9963e-05
2.35645e-05
2.35243e-05
8.85276e-05
4.99363e-05
8.74772e-05
4.99802e-05
0.000122243
0.000105205
0.000116036
0.00010703
0.00012141
0.000125751
0.000104604
0.000113811
9.23121e-05
0.000118614
0.000131984
0.000111605
9.39995e-05
0.000119698
2.35962e-05
2.3602e-05
0.000110439
0.000110608
8.87621e-05
0.000124691
0.00010954
0.000113396
9.0173e-05
7.23581e-05
7.2314e-05
0.000118324
7.04777e-05
7.0698e-05
8.90201e-05
4.99262e-05
9.0107e-05
4.98768e-05
2.34137e-05
2.3417e-05
9.25207e-05
4.9974e-05
9.08022e-05
4.99162e-05
0.000114517
0.000133779
9.97257e-05
0.000154265
8.59312e-05
0.000152254
9.4876e-05
0.000109715
8.83707e-05
0.000118977
0.00011043
0.000113294
8.28389e-05
0.000115929
2.36147e-05
2.35454e-05
0.000117846
0.000125204
9.59204e-05
0.000154773
0.000114003
0.000128868
9.98358e-05
6.77715e-05
6.87957e-05
0.000106619
6.91423e-05
7.06062e-05
9.0667e-05
4.97939e-05
8.92849e-05
4.97637e-05
2.35642e-05
2.36293e-05
8.81414e-05
4.97426e-05
9.1241e-05
4.97044e-05
8.10227e-05
0.000145786
0.000103331
0.000137821
9.31387e-05
8.58753e-05
0.000122447
0.000115855
8.31903e-05
0.000100487
9.29034e-05
0.000107915
9.14639e-05
9.89585e-05
2.33667e-05
2.33535e-05
0.000115872
0.000134431
9.2251e-05
0.000124185
0.000120053
0.000131539
8.23054e-05
7.39512e-05
7.3651e-05
0.000138184
7.63244e-05
7.51457e-05
8.85185e-05
4.97064e-05
9.04154e-05
4.97159e-05
2.36123e-05
2.35773e-05
8.66735e-05
4.97619e-05
8.49522e-05
4.98428e-05
0.000109009
7.17743e-05
0.000122417
8.29638e-05
0.000128663
6.86822e-05
0.000104337
0.000117648
9.67261e-05
0.000126229
0.000142715
0.000122409
9.25083e-05
0.000132496
2.35748e-05
2.37262e-05
0.000102974
0.000102691
7.29075e-05
7.63637e-05
0.000105916
9.53273e-05
8.17555e-05
7.23035e-05
7.09815e-05
0.000120255
6.5722e-05
6.66455e-05
8.82396e-05
4.99497e-05
8.58835e-05
5.01463e-05
2.36071e-05
2.36671e-05
9.24754e-05
5.00363e-05
9.12396e-05
5.01298e-05
0.000126114
9.45187e-05
9.94605e-05
8.41592e-05
0.000120176
0.000164071
0.000116072
0.000109114
8.60495e-05
0.000127499
0.000128897
0.000107522
8.89706e-05
0.000122626
2.38338e-05
2.37316e-05
0.000124637
9.99221e-05
0.000100618
0.000163814
0.000114155
0.000120641
0.000106976
6.59835e-05
6.92335e-05
0.000115115
7.42938e-05
7.61675e-05
9.78045e-05
5.02968e-05
9.41808e-05
5.02371e-05
2.36768e-05
2.36098e-05
9.41345e-05
5.0207e-05
9.27897e-05
5.01673e-05
0.000124306
0.00017098
0.000132365
0.000178171
0.000143666
0.00016253
0.000157039
0.000132326
9.9145e-05
0.00012783
0.000149467
0.000126946
0.000101334
0.000139971
2.35043e-05
2.34985e-05
0.000126143
0.000161493
9.7043e-05
0.000176347
0.000130964
0.000164275
9.04239e-05
8.35358e-05
8.3581e-05
0.00018058
8.01097e-05
7.83005e-05
9.0463e-05
4.97787e-05
9.56945e-05
4.96341e-05
2.35037e-05
2.35093e-05
9.26153e-05
4.98022e-05
9.55665e-05
4.96595e-05
0.000147494
0.000151158
0.000156551
0.000143676
0.000142993
0.000129402
0.000123408
0.000119056
9.46747e-05
0.000157115
0.000158643
0.00012569
9.11093e-05
0.000157583
2.35788e-05
2.3595e-05
0.000120483
0.000153143
9.18227e-05
0.000139772
0.000120266
0.000146633
9.49084e-05
6.81895e-05
6.87834e-05
0.000121781
6.60882e-05
6.75596e-05
0.000124588
2.35612e-05
9.24913e-05
2.36323e-05
2.36302e-05
6.10335e-05
6.10328e-05
4.95542e-05
6.89488e-05
4.95481e-05
6.89455e-05
6.55125e-05
0.000127148
6.56777e-05
6.55036e-05
0.000127139
6.56734e-05
2.36301e-05
6.10209e-05
6.10327e-05
2.36317e-05
4.95334e-05
0.000104093
6.44983e-05
6.79058e-05
4.95488e-05
6.89481e-05
6.47475e-05
6.55096e-05
0.000127146
0.00012818
6.56798e-05
6.79041e-05
4.95449e-05
4.95351e-05
6.89475e-05
6.4749e-05
0.000103241
0.000127135
6.55032e-05
0.000128171
6.47795e-05
6.56803e-05
6.5487e-05
0.000127155
6.56814e-05
4.95501e-05
6.89648e-05
0.000127147
6.54961e-05
6.56791e-05
4.95456e-05
6.89538e-05
8.33738e-05
6.05098e-05
6.05164e-05
2.3638e-05
2.36293e-05
2.3633e-05
8.30375e-05
6.102e-05
6.10239e-05
6.05575e-05
6.05639e-05
2.36314e-05
2.36352e-05
4.95385e-05
6.47549e-05
0.000103279
0.000127151
6.54994e-05
0.000128186
6.4789e-05
6.5677e-05
6.47527e-05
0.000127144
6.5504e-05
0.00012818
6.56759e-05
6.79163e-05
4.95499e-05
4.95402e-05
6.89385e-05
6.79137e-05
4.95441e-05
6.89371e-05
6.10234e-05
6.10189e-05
2.36301e-05
2.36289e-05
2.36296e-05
2.3626e-05
2.36274e-05
2.36238e-05
6.10772e-05
6.10764e-05
8.25047e-05
6.15176e-05
6.15174e-05
2.36199e-05
2.36234e-05
2.36178e-05
2.36212e-05
8.2291e-05
6.19925e-05
6.19897e-05
6.15635e-05
6.1563e-05
7.00551e-05
4.95497e-05
6.90851e-05
4.9559e-05
6.71069e-05
6.57706e-05
0.000126154
0.000100929
6.61426e-05
6.64949e-05
0.00012514
6.71019e-05
6.57662e-05
0.000126145
0.000100901
6.61376e-05
6.64829e-05
0.000125129
7.01727e-05
4.9575e-05
4.95666e-05
7.10904e-05
7.01696e-05
4.95692e-05
4.95605e-05
7.109e-05
6.75764e-05
0.000100211
6.74505e-05
0.00012316
6.67395e-05
0.000124154
6.8554e-05
6.7572e-05
0.000100188
6.7446e-05
0.000123154
6.67391e-05
0.000124142
6.85546e-05
6.10657e-05
6.10716e-05
8.24792e-05
6.15139e-05
6.15216e-05
2.3629e-05
2.36254e-05
2.36177e-05
2.36212e-05
8.22658e-05
6.19843e-05
6.19942e-05
6.15589e-05
6.15639e-05
2.36193e-05
2.36228e-05
6.71048e-05
6.57695e-05
0.000126151
0.000100951
6.61425e-05
6.64919e-05
0.000125138
7.00527e-05
4.95464e-05
6.90764e-05
4.95556e-05
6.71001e-05
0.000126137
6.57653e-05
0.000100908
6.61413e-05
0.000125124
6.64901e-05
7.01782e-05
4.95696e-05
4.95612e-05
7.10829e-05
6.75783e-05
0.000100233
6.74471e-05
0.000123156
6.67388e-05
0.000124156
6.85556e-05
7.0173e-05
4.95659e-05
4.95571e-05
7.10835e-05
6.75728e-05
0.00010019
0.00012314
6.74392e-05
0.00012414
6.6734e-05
6.85521e-05
7.00561e-05
4.95517e-05
6.90671e-05
4.9561e-05
6.70903e-05
0.000126153
6.57688e-05
0.000100917
6.61373e-05
0.000125131
6.64783e-05
7.00539e-05
4.95471e-05
6.90707e-05
4.95569e-05
6.75668e-05
0.000100227
6.74317e-05
0.000123164
6.67541e-05
0.000124165
6.85606e-05
7.01722e-05
4.95712e-05
4.95625e-05
7.11023e-05
6.75684e-05
0.000100203
0.000123159
6.74373e-05
0.000124153
6.67363e-05
6.85573e-05
7.01808e-05
4.95667e-05
4.95584e-05
7.10886e-05
6.10675e-05
6.10708e-05
8.24779e-05
6.15162e-05
6.15212e-05
2.36287e-05
2.36251e-05
2.36168e-05
2.36203e-05
8.22679e-05
6.19808e-05
6.19866e-05
6.15592e-05
6.15638e-05
2.3619e-05
2.36224e-05
6.71027e-05
0.000126143
6.57597e-05
0.000100931
6.61357e-05
0.000125133
6.64931e-05
7.00701e-05
4.95515e-05
6.90744e-05
4.95608e-05
7.00663e-05
4.95457e-05
6.90709e-05
4.95551e-05
6.75783e-05
0.000100229
0.000123162
6.74399e-05
0.000124157
6.67418e-05
6.8557e-05
6.75746e-05
0.000100217
0.000123156
6.74428e-05
0.000124149
6.67282e-05
6.85487e-05
7.01683e-05
4.95708e-05
4.95622e-05
7.10861e-05
7.01658e-05
4.95652e-05
4.95564e-05
7.10853e-05
2.36274e-05
2.36238e-05
2.36262e-05
2.36226e-05
8.22624e-05
6.19844e-05
6.19784e-05
6.15582e-05
6.15614e-05
2.36177e-05
2.36212e-05
2.36164e-05
2.36199e-05
2.36173e-05
2.36141e-05
2.36152e-05
2.36119e-05
6.20315e-05
6.20287e-05
8.21494e-05
6.24327e-05
6.24313e-05
2.36085e-05
2.36116e-05
2.36063e-05
2.36094e-05
8.20319e-05
6.28715e-05
6.28687e-05
6.24741e-05
6.24727e-05
7.20548e-05
4.95705e-05
7.12096e-05
4.95789e-05
7.00528e-05
6.76713e-05
0.000122213
9.82154e-05
6.90363e-05
6.83656e-05
0.000121237
7.00544e-05
6.76681e-05
0.000122205
9.82009e-05
6.90346e-05
6.83556e-05
0.000121231
7.21569e-05
4.95938e-05
4.95863e-05
7.29442e-05
7.21549e-05
4.95879e-05
4.95802e-05
7.29446e-05
7.0503e-05
9.76143e-05
6.92772e-05
0.000119376
6.85746e-05
0.000120313
7.15368e-05
7.05008e-05
9.76062e-05
6.92745e-05
0.000119378
6.8574e-05
0.000120313
7.15423e-05
6.20222e-05
6.203e-05
8.21441e-05
6.24209e-05
6.24293e-05
2.36167e-05
2.36134e-05
2.36062e-05
2.36093e-05
8.20291e-05
6.28637e-05
6.28748e-05
6.24632e-05
6.24707e-05
2.36078e-05
2.36109e-05
7.00414e-05
6.76692e-05
0.000122208
9.82362e-05
6.90357e-05
6.83613e-05
0.000121238
7.20526e-05
4.95673e-05
7.11989e-05
4.95757e-05
7.00418e-05
0.000122193
6.76598e-05
9.82091e-05
6.90336e-05
0.000121227
6.83665e-05
7.21602e-05
4.95885e-05
4.95808e-05
7.29476e-05
7.05058e-05
9.7635e-05
6.92746e-05
0.000119373
6.85719e-05
0.000120311
7.15384e-05
7.21589e-05
4.95845e-05
4.9577e-05
7.29475e-05
7.05063e-05
9.76092e-05
0.000119366
6.926e-05
0.000120303
6.85766e-05
7.15419e-05
7.20558e-05
4.95726e-05
7.1195e-05
4.95808e-05
7.00449e-05
0.000122204
6.76714e-05
9.82261e-05
6.9034e-05
0.000121243
6.83567e-05
7.20517e-05
4.9568e-05
7.11951e-05
4.95767e-05
7.05132e-05
9.76497e-05
6.9261e-05
0.000119399
6.85941e-05
0.000120341
7.15511e-05
7.2151e-05
4.95897e-05
4.95821e-05
7.29687e-05
7.05089e-05
9.76321e-05
0.000119394
6.92648e-05
0.000120328
6.85751e-05
7.15565e-05
7.21606e-05
4.95856e-05
4.95781e-05
7.29589e-05
6.20207e-05
6.20266e-05
8.21493e-05
6.24258e-05
6.2433e-05
2.36164e-05
2.36131e-05
2.36053e-05
2.36085e-05
8.20369e-05
6.28579e-05
6.28642e-05
6.24673e-05
6.2474e-05
2.36075e-05
2.36106e-05
7.00511e-05
0.000122198
6.76591e-05
9.82396e-05
6.90315e-05
0.000121246
6.837e-05
7.20687e-05
4.95722e-05
7.11924e-05
4.95807e-05
7.20672e-05
4.95667e-05
7.1192e-05
4.95751e-05
7.05007e-05
9.76454e-05
0.00011939
6.92605e-05
0.00012032
6.85854e-05
7.15549e-05
7.05135e-05
9.76443e-05
0.000119387
6.92696e-05
0.000120319
6.85694e-05
7.1542e-05
7.21562e-05
4.95896e-05
4.95819e-05
7.29539e-05
7.21552e-05
4.95837e-05
4.95762e-05
7.29506e-05
2.36151e-05
2.36118e-05
2.36139e-05
2.36106e-05
8.20432e-05
6.28614e-05
6.28582e-05
6.2469e-05
6.24706e-05
2.36062e-05
2.36093e-05
2.3605e-05
2.36081e-05
2.36061e-05
2.3603e-05
2.36039e-05
2.36009e-05
6.29106e-05
6.29077e-05
8.23552e-05
6.32754e-05
6.32731e-05
2.3598e-05
2.36007e-05
2.35958e-05
2.35986e-05
8.23571e-05
6.36846e-05
6.36808e-05
6.33148e-05
6.33124e-05
7.3807e-05
4.9589e-05
7.30507e-05
4.95964e-05
7.30644e-05
6.94619e-05
0.000118501
9.60359e-05
7.19792e-05
7.01409e-05
0.000117596
7.3065e-05
6.94599e-05
0.000118499
9.60215e-05
7.19796e-05
7.01262e-05
0.000117593
7.3901e-05
4.96103e-05
4.96038e-05
7.45895e-05
7.38973e-05
4.96042e-05
4.95975e-05
7.45877e-05
7.34737e-05
9.55822e-05
7.10061e-05
0.000115897
7.03183e-05
0.000116757
7.45674e-05
7.34684e-05
9.55633e-05
7.10041e-05
0.000115891
7.03136e-05
0.000116752
7.45671e-05
6.2901e-05
6.29106e-05
8.23454e-05
6.32603e-05
6.32694e-05
2.36053e-05
2.36023e-05
2.35956e-05
2.35984e-05
8.2346e-05
6.36799e-05
6.36868e-05
6.33013e-05
6.33088e-05
2.35973e-05
2.36e-05
7.3056e-05
6.94607e-05
0.0001185
9.60575e-05
7.19828e-05
7.01373e-05
0.000117598
7.38002e-05
4.95857e-05
7.30492e-05
4.95932e-05
7.30553e-05
0.00011849
6.94456e-05
9.60366e-05
7.19848e-05
0.000117591
7.01505e-05
7.38981e-05
4.96049e-05
4.95983e-05
7.45909e-05
7.34774e-05
9.56042e-05
7.10026e-05
0.000115896
7.03168e-05
0.000116758
7.45662e-05
7.38953e-05
4.96008e-05
4.95942e-05
7.45863e-05
7.34752e-05
9.55722e-05
0.000115879
7.09806e-05
0.000116745
7.03272e-05
7.45612e-05
7.38083e-05
4.95908e-05
7.30509e-05
4.95982e-05
7.30672e-05
0.000118516
6.94664e-05
9.60547e-05
7.19942e-05
0.000117618
7.01399e-05
7.38024e-05
4.95866e-05
7.30542e-05
4.95939e-05
7.34849e-05
9.56021e-05
7.09899e-05
0.000115904
7.0333e-05
0.000116787
7.45553e-05
7.3888e-05
4.96057e-05
4.95992e-05
7.45971e-05
7.34827e-05
9.55871e-05
0.000115898
7.0978e-05
0.000116773
7.03201e-05
7.45587e-05
7.38958e-05
4.96017e-05
4.9595e-05
7.45876e-05
6.28965e-05
6.29026e-05
8.23508e-05
6.32728e-05
6.32793e-05
2.36051e-05
2.36021e-05
2.35947e-05
2.35976e-05
8.23539e-05
6.36648e-05
6.36703e-05
6.33132e-05
6.33196e-05
2.35969e-05
2.35998e-05
7.30596e-05
0.000118502
6.94527e-05
9.60577e-05
7.19863e-05
0.000117606
7.0147e-05
7.3817e-05
4.95908e-05
7.30423e-05
4.95981e-05
7.38123e-05
4.95849e-05
7.30393e-05
4.95924e-05
7.34761e-05
9.56108e-05
0.000115903
7.09832e-05
0.000116768
7.03375e-05
7.45728e-05
7.348e-05
9.55898e-05
0.000115891
7.09843e-05
0.000116754
7.03091e-05
7.45556e-05
7.38959e-05
4.96057e-05
4.95991e-05
7.45936e-05
7.38915e-05
4.96003e-05
4.95934e-05
7.45898e-05
2.36038e-05
2.36008e-05
2.36026e-05
2.35996e-05
8.23442e-05
6.36636e-05
6.36618e-05
6.33114e-05
6.33106e-05
2.35956e-05
2.35984e-05
2.35944e-05
2.35973e-05
2.35957e-05
2.35929e-05
2.35935e-05
2.35907e-05
6.3723e-05
6.37189e-05
8.30465e-05
6.40533e-05
6.40488e-05
2.35883e-05
2.35907e-05
2.35861e-05
2.35886e-05
8.31224e-05
6.44254e-05
6.44227e-05
6.40891e-05
6.40849e-05
7.53473e-05
4.96051e-05
7.46797e-05
4.96115e-05
7.60813e-05
7.11622e-05
0.000115108
9.43996e-05
7.49614e-05
7.18205e-05
0.000114309
7.60813e-05
7.11587e-05
0.000115102
9.43862e-05
7.4957e-05
7.18017e-05
0.000114303
7.54314e-05
4.96246e-05
4.96186e-05
7.60382e-05
7.54279e-05
4.96183e-05
4.96124e-05
7.60331e-05
7.64394e-05