/*--------------------------------*- C++ -*----------------------------------*\
| =========                 |                                                 |
| \\      /  F ield         | OpenFOAM: The Open Source CFD Toolbox           |
|  \\    /   O peration     | Version:  2312                                  |
|   \\  /    A nd           | Website:  www.openfoam.com                      |
|    \\/     M anipulation  |                                                 |
\*---------------------------------------------------------------------------*/
FoamFile
{
    version     2.0;
    format      ascii;
    arch        "LSB;label=32;scalar=64";
    class       volScalarField;
    location    "1000";
    object      p;
}
// * * * * * * * * * * * * * * * * * * * * * * * * * * * * * * * * * * * * * //

dimensions      [0 2 -2 0 0 0 0];

internalField   nonuniform List<scalar> 
43120
(
0.00265292
0.00265287
0.00265287
0.00265532
0.00261302
0.00261297
0.00261298
0.00261542
0.00257337
0.00257331
0.00257332
0.00257575
0.00253395
0.00253389
0.00253389
0.00253631
0.00249474
0.00249468
0.00249468
0.00249709
0.00245574
0.00245569
0.00245569
0.00245807
0.00241694
0.00241689
0.00241689
0.00241925
0.00237832
0.00237828
0.00237828
0.00238062
0.0023399
0.00233986
0.00233986
0.00234219
0.00230166
0.00230163
0.00230164
0.00230394
0.00226361
0.00226357
0.00226357
0.00226584
0.00222569
0.00222568
0.00222567
0.00222794
0.00218801
0.00218799
0.00218798
0.00219024
0.00215049
0.00215043
0.00215043
0.00215261
0.00211278
0.00211284
0.00211298
0.00211516
0.00207567
0.00207553
0.0020754
0.0020777
0.00203857
0.00203873
0.00203848
0.00204072
0.00200107
0.00200133
0.00200137
0.00200355
0.0019642
0.00196429
0.00196468
0.00196643
0.00192899
0.00192798
0.00192812
0.00193014
0.00189145
0.00189075
0.00189102
0.00189366
0.00185364
0.00185666
0.00185289
0.00185666
0.00181864
0.00181689
0.00182227
0.00182037
0.001785
0.00178486
0.00178299
0.0017878
0.00174932
0.00174875
0.00174574
0.00174883
0.00170752
0.00170838
0.00171122
0.00171157
0.00167345
0.00266054
0.00266288
0.00266288
0.00266054
0.00266288
0.00266289
0.00266288
0.00266289
0.00266055
0.00266289
0.00266289
0.00266055
0.00265532
0.00262061
0.00265287
0.00265287
0.00262293
0.00262293
0.00265532
0.00262061
0.00265287
0.00265287
0.00262293
0.00262293
0.00265287
0.00262293
0.00262293
0.00265532
0.00262061
0.00265287
0.00262293
0.00262293
0.00262062
0.00261541
0.00258092
0.00261298
0.00261297
0.00258321
0.00258321
0.00261542
0.00258092
0.00261297
0.00261297
0.00258321
0.00258321
0.00261298
0.00258321
0.00258321
0.00261542
0.00258092
0.00261298
0.00258321
0.00258321
0.00258092
0.00257575
0.00254145
0.00257332
0.00257331
0.00254373
0.00254373
0.00257575
0.00254145
0.00257332
0.00257332
0.00254373
0.00254372
0.00257332
0.00254373
0.00254373
0.00257575
0.00254145
0.00257332
0.00254372
0.00254373
0.00254146
0.00253631
0.00250221
0.00253389
0.00253389
0.00250446
0.00250447
0.0025363
0.00250221
0.00253389
0.00253389
0.00250446
0.00250446
0.00253389
0.00250447
0.00250446
0.00253631
0.00250221
0.00253389
0.00250446
0.00250446
0.00250221
0.00249708
0.00246317
0.00249468
0.00249468
0.00246541
0.00246542
0.00249708
0.00246318
0.00249468
0.00249468
0.00246541
0.00246541
0.00249468
0.00246542
0.00246541
0.00249708
0.00246317
0.00249468
0.00246541
0.00246541
0.00246317
0.00245807
0.00242434
0.00245568
0.00245569
0.00242657
0.00242657
0.00245807
0.00242434
0.00245568
0.00245569
0.00242657
0.00242657
0.00245569
0.00242657
0.00242657
0.00245807
0.00242434
0.00245569
0.00242657
0.00242657
0.00242433
0.00241926
0.00238569
0.00241689
0.00241689
0.00238792
0.00238791
0.00241926
0.00238569
0.00241689
0.00241689
0.00238792
0.00238791
0.00241689
0.00238791
0.00238792
0.00241926
0.00238569
0.00241688
0.00238791
0.00238792
0.00238569
0.00238063
0.00234723
0.00237828
0.00237828
0.00234945
0.00234945
0.00238063
0.00234723
0.00237828
0.00237828
0.00234945
0.00234945
0.00237828
0.00234944
0.00234945
0.00238062
0.00234723
0.00237828
0.00234945
0.00234945
0.00234723
0.00234218
0.00230896
0.00233986
0.00233986
0.00231117
0.00231118
0.00234218
0.00230897
0.00233986
0.00233986
0.00231117
0.00231118
0.00233986
0.00231118
0.00231117
0.00234219
0.00230897
0.00233986
0.00231118
0.00231117
0.00230897
0.00230393
0.00227086
0.00230163
0.00230163
0.00227307
0.00227306
0.00230394
0.00227086
0.00230163
0.00230164
0.00227307
0.00227307
0.00230163
0.00227306
0.00227307
0.00230394
0.00227086
0.00230163
0.00227307
0.00227307
0.00227085
0.00226586
0.00223293
0.00226357
0.00226357
0.00223512
0.00223513
0.00226585
0.00223293
0.00226357
0.00226357
0.00223512
0.00223513
0.00226356
0.00223513
0.00223514
0.00226586
0.00223293
0.00226356
0.00223513
0.00223514
0.00223293
0.00222794
0.00219521
0.00222567
0.00222568
0.00219739
0.00219739
0.00222794
0.0021952
0.00222567
0.00222567
0.00219738
0.00219739
0.00222568
0.00219739
0.00219739
0.00222793
0.00219519
0.00222568
0.00219739
0.00219739
0.0021952
0.00219024
0.00215763
0.002188
0.00218799
0.00215985
0.00215983
0.00219024
0.00215762
0.002188
0.00218798
0.00215985
0.0021598
0.002188
0.00215982
0.0021598
0.00219022
0.0021576
0.00218799
0.0021598
0.0021598
0.00215759
0.00215263
0.00211997
0.00215044
0.00215043
0.00212214
0.00212223
0.00215265
0.00212001
0.00215043
0.00215043
0.00212215
0.00212233
0.00215039
0.00212224
0.00212228
0.00215265
0.00212015
0.00215039
0.00212233
0.00212229
0.00212011
0.00211506
0.00208292
0.00211276
0.00211282
0.00208503
0.00208482
0.00211503
0.00208269
0.00211278
0.00211297
0.00208504
0.00208487
0.00211295
0.0020848
0.0020848
0.00211518
0.00208261
0.00211295
0.00208485
0.00208483
0.00208262
0.00207799
0.00204538
0.00207586
0.00207558
0.00204777
0.00204795
0.00207779
0.00204578
0.00207586
0.00207543
0.00204773
0.00204767
0.00207547
0.00204792
0.00204778
0.00207764
0.0020455
0.00207548
0.00204767
0.00204773
0.00204565
0.00204045
0.00200806
0.00203839
0.00203871
0.00201026
0.00201067
0.00204085
0.00200839
0.00203835
0.00203845
0.00201024
0.00201052
0.00203857
0.00201076
0.00201081
0.00204058
0.00200847
0.00203853
0.00201059
0.00201079
0.0020085
0.00200306
0.00197148
0.00200086
0.00200125
0.00197339
0.00197331
0.00200338
0.00197123
0.00200082
0.00200131
0.00197346
0.00197385
0.00200144
0.00197332
0.00197346
0.00200362
0.00197175
0.00200143
0.00197386
0.00197352
0.00197133
0.00196677
0.00193654
0.00196454
0.00196434
0.00193862
0.00193753
0.00196645
0.00193538
0.00196462
0.00196471
0.00193858
0.00193737
0.00196425
0.00193733
0.00193704
0.0019668
0.00193499
0.00196431
0.00193718
0.001937
0.00193496
0.00193144
0.00189747
0.00192942
0.00192818
0.00189992
0.00189951
0.00193034
0.00189768
0.00192938
0.00192831
0.00190011
0.00190072
0.00192796
0.00189958
0.0019004
0.00193025
0.00189848
0.00192793
0.00190072
0.00190055
0.00189842
0.00189249
0.00186013
0.0018904
0.0018906
0.00186248
0.00186527
0.00189305
0.00186322
0.00189056
0.00189095
0.00186197
0.00186123
0.00189146
0.00186559
0.00186459
0.00189319
0.00185988
0.0018916
0.0018616
0.00186407
0.00186191
0.00185544
0.00182636
0.00185351
0.00185633
0.0018278
0.00182656
0.00185836
0.00182413
0.00185284
0.00185256
0.00182809
0.00183004
0.00185496
0.00182645
0.00182638
0.00185552
0.00182796
0.00185435
0.00183032
0.00182662
0.00182472
0.00182172
0.00179247
0.00181909
0.00181715
0.0017941
0.00179253
0.00181943
0.00179087
0.00181966
0.00182242
0.00179462
0.00179361
0.0018177
0.00179252
0.00179433
0.00182369
0.0017907
0.00181834
0.00179352
0.0017948
0.0017925
0.00178802
0.00175455
0.00178588
0.0017848
0.00175796
0.00175898
0.00178672
0.00175641
0.00178602
0.00178301
0.00175708
0.0017546
0.00178611
0.00175889
0.00175716
0.00178545
0.00175249
0.00178644
0.00175449
0.00175631
0.00175407
0.00174909
0.00171437
0.00174751
0.00174891
0.00171629
0.00171784
0.00175094
0.0017154
0.00174695
0.00174593
0.00171661
0.00172037
0.00174675
0.00171791
0.00171762
0.00174772
0.00171832
0.00174597
0.00172061
0.00171798
0.00171609
0.00170954
0.00168269
0.00170652
0.00170806
0.00168389
0.00168263
0.00171023
0.00168118
0.00170703
0.00171087
0.00168393
0.00168206
0.00170917
0.0016828
0.00168404
0.00171302
0.0016806
0.00170963
0.00168225
0.00168416
0.00168224
0.00167362
0.00167632
0.00266293
0.00266293
0.00266293
0.00266293
0.00268024
0.00268296
0.00268045
0.00264029
0.00265516
0.00265524
0.0026402
0.00265514
0.00264018
0.00264028
0.00265516
0.00265524
0.0026402
0.00265292
0.00265292
0.00265292
0.00262297
0.00262297
0.00262297
0.00262298
0.00264055
0.00265524
0.0026529
0.00264288
0.00265536
0.00264038
0.0026429
0.00265514
0.00264018
0.00264055
0.0026529
0.00265524
0.00264288
0.00265536
0.0026429
0.00264038
0.00265522
0.00265522
0.00264055
0.00264025
0.00264025
0.00260046
0.00261526
0.00261533
0.00260039
0.00261524
0.00260036
0.00260047
0.00261526
0.00261533
0.00260039
0.00261302
0.00261303
0.00261302
0.00258327
0.00258326
0.00258326
0.00258326
0.00260071
0.00261532
0.002613
0.00260304
0.00261543
0.00260055
0.00260307
0.00261523
0.00260037
0.00260071
0.002613
0.00261532
0.00260304
0.00261544
0.00260307
0.00260055
0.00261531
0.00261531
0.00260074
0.00260043
0.00260043
0.00256088
0.00257559
0.00257566
0.00256081
0.00257557
0.00256078
0.00256088
0.00257559
0.00257566
0.00256081
0.00257337
0.00257337
0.00257337
0.00254379
0.00254379
0.00254378
0.00254378
0.00256111
0.00257564
0.00257334
0.00256344
0.00257574
0.00256095
0.00256346
0.00257557
0.00256078
0.00256111
0.00257334
0.00257564
0.00256344
0.00257574
0.00256346
0.00256095
0.00257563
0.00257563
0.00256116
0.00256084
0.00256084
0.00252151
0.00253615
0.00253621
0.00252145
0.00253613
0.00252143
0.00252152
0.00253615
0.00253621
0.00252145
0.00253395
0.00253395
0.00253395
0.00250452
0.00250452
0.00250452
0.00250452
0.00252174
0.00253619
0.0025339
0.00252406
0.00253628
0.00252158
0.00252408
0.00253613
0.00252142
0.00252174
0.0025339
0.00253619
0.00252407
0.00253628
0.00252408
0.00252158
0.00253619
0.00253619
0.0025218
0.00252148
0.00252148
0.00248237
0.00249692
0.00249699
0.0024823
0.00249691
0.00248229
0.00248237
0.00249692
0.00249698
0.0024823
0.00249474
0.00249474
0.00249474
0.00246547
0.00246547
0.00246547
0.00246547
0.00248257
0.00249696
0.00249469
0.00248491
0.00249705
0.00248243
0.00248492
0.00249691
0.00248229
0.00248258
0.00249469
0.00249696
0.00248491
0.00249704
0.00248492
0.00248243
0.00249696
0.00249696
0.00248266
0.00248234
0.00248234
0.00244343
0.00245791
0.00245797
0.00244337
0.00245789
0.00244335
0.00244343
0.00245791
0.00245797
0.00244337
0.00245574
0.00245574
0.00245574
0.00242662
0.00242662
0.00242662
0.00242662
0.00244362
0.00245794
0.00245569
0.00244597
0.00245802
0.00244348
0.00244597
0.0024579
0.00244335
0.00244362
0.00245569
0.00245794
0.00244597
0.00245801
0.00244597
0.00244349
0.00245794
0.00245795
0.00244373
0.00244339
0.00244339
0.00240469
0.0024191
0.00241915
0.00240462
0.00241907
0.00240461
0.00240469
0.0024191
0.00241915
0.00240462
0.00241694
0.00241694
0.00241694
0.00238796
0.00238796
0.00238796
0.00238796
0.00240487
0.00241912
0.00241689
0.00240722
0.00241919
0.00240473
0.00240722
0.00241908
0.00240461
0.00240487
0.0024169
0.00241912
0.00240722
0.00241919
0.00240722
0.00240473
0.00241913
0.00241913
0.002405
0.00240464
0.00240464
0.00236613
0.00238047
0.00238052
0.00236607
0.00238046
0.00236606
0.00236613
0.00238047
0.00238053
0.00236607
0.00237832
0.00237832
0.00237832
0.00234949
0.00234948
0.00234949
0.00234949
0.0023663
0.00238049
0.00237829
0.00236866
0.00238055
0.00236618
0.00236866
0.00238046
0.00236606
0.0023663
0.00237829
0.00238049
0.00236866
0.00238055
0.00236866
0.00236618
0.00238051
0.00238051
0.00236643
0.00236609
0.00236609
0.00232776
0.00234204
0.00234208
0.0023277
0.00234204
0.00232769
0.00232776
0.00234204
0.00234208
0.0023277
0.0023399
0.0023399
0.0023399
0.0023112
0.00231121
0.00231121
0.00231121
0.00232793
0.00234206
0.00233987
0.00233029
0.00234211
0.00232781
0.0023303
0.00234203
0.0023277
0.00232793
0.00233987
0.00234206
0.00233029
0.00234212
0.0023303
0.00232781
0.00234207
0.00234207
0.00232807
0.00232776
0.00232776
0.00228957
0.00230379
0.00230384
0.00228952
0.00230378
0.00228951
0.00228958
0.00230379
0.00230384
0.00228953
0.00230166
0.00230167
0.00230167
0.00227311
0.00227311
0.00227311
0.00227311
0.00228973
0.0023038
0.00230164
0.0022921
0.00230386
0.00228961
0.00229211
0.00230378
0.00228951
0.00228973
0.00230164
0.0023038
0.0022921
0.00230386
0.00229211
0.00228962
0.00230381
0.00230381
0.0022899
0.00228951
0.00228951
0.00225154
0.00226569
0.00226575
0.0022515
0.00226569
0.00225151
0.00225155
0.00226569
0.00226575
0.00225151
0.0022636
0.0022636
0.0022636
0.00223515
0.00223516
0.00223517
0.00223516
0.00225171
0.00226571
0.00226358
0.00225407
0.00226576
0.00225161
0.00225408
0.0022657
0.0022515
0.00225172
0.00226358
0.00226572
0.00225408
0.00226577
0.00225409
0.00225161
0.00226575
0.00226575
0.00225187
0.00225156
0.00225155
0.00221373
0.00222782
0.00222786
0.00221369
0.00222782
0.00221369
0.00221371
0.00222782
0.00222785
0.00221368
0.00222571
0.00222571
0.00222571
0.0021974
0.0021974
0.0021974
0.00219741
0.00221389
0.00222784
0.0022257
0.00221625
0.00222788
0.00221378
0.00221626
0.00222778
0.00221366
0.00221388
0.00222569
0.00222781
0.00221623
0.00222786
0.00221624
0.00221376
0.00222784
0.00222784
0.00221403
0.00221369
0.00221369
0.00217607
0.0021901
0.00219015
0.00217598
0.00219012
0.00217601
0.00217607
0.00219009
0.00219012
0.00217598
0.00218799
0.00218799
0.002188
0.00215988
0.00215984
0.0021598
0.00215982
0.00217623
0.00219012
0.002188
0.0021786
0.00219014
0.00217611
0.00217861
0.00219014
0.00217604
0.00217622
0.002188
0.00219013
0.00217858
0.00219015
0.0021786
0.00217613
0.00219014
0.00219014
0.00217641
0.00217605
0.00217604
0.0021384
0.0021524
0.00215248
0.00213835
0.0021524
0.00213833
0.00213846
0.00215242
0.00215253
0.00213838
0.00215046
0.00215043
0.00215043
0.00212221
0.0021223
0.00212233
0.00212228
0.00213863
0.00215248
0.00215044
0.00214104
0.00215255
0.0021385
0.00214106
0.00215252
0.00213849
0.00213866
0.00215044
0.00215251
0.00214105
0.00215256
0.00214107
0.00213858
0.00215245
0.00215245
0.00213879
0.00213844
0.00213845
0.00210115
0.00211508
0.00211502
0.00210122
0.00211495
0.0021011
0.00210115
0.0021151
0.00211506
0.00210127
0.0021129
0.00211299
0.00211293
0.0020849
0.00208479
0.00208495
0.00208488
0.00210112
0.00211493
0.00211293
0.00210346
0.00211501
0.00210104
0.00210355
0.00211492
0.00210087
0.0021012
0.00211297
0.00211501
0.00210364
0.00211506
0.00210362
0.00210103
0.00211508
0.00211511
0.00210139
0.00210099
0.00210101
0.00206384
0.00207787
0.00207789
0.00206363
0.00207794
0.002064
0.00206368
0.00207779
0.00207777
0.00206354
0.00207549
0.00207554
0.00207552
0.00204792
0.00204779
0.00204767
0.0020477
0.00206403
0.00207781
0.00207554
0.00206629
0.0020777
0.00206407
0.00206626
0.00207754
0.0020637
0.00206381
0.00207553
0.00207752
0.00206606
0.00207762
0.0020662
0.0020637
0.00207763
0.0020776
0.00206403
0.00206394
0.00206388
0.00202646
0.00204008
0.00204036
0.00202629
0.00204048
0.00202647
0.0020265
0.00204006
0.00204032
0.00202631
0.00203863
0.00203845
0.00203848
0.00201044
0.00201086
0.00201043
0.00201086
0.00202698
0.00204072
0.00203863
0.00202948
0.0020408
0.00202677
0.00202943
0.00204069
0.00202672
0.00202701
0.00203849
0.00204071
0.0020292
0.00204067
0.00202924
0.00202693
0.00204085
0.00204083
0.00202722
0.00202658
0.00202661
0.00198958
0.00200335
0.00200332
0.00198975
0.00200317
0.00198934
0.00198973
0.00200343
0.0020034
0.00198989
0.00200147
0.00200119
0.00200155
0.00197326
0.00197347
0.00197371
0.00197362
0.00198949
0.0020032
0.0020015
0.0019919
0.00200334
0.00198935
0.00199212
0.00200352
0.00199008
0.00198975
0.00200141
0.00200347
0.0019922
0.00200347
0.00199218
0.00198989
0.00200316
0.00200318
0.00198982
0.00198937
0.00198937
0.00195354
0.00196746
0.00196698
0.00195399
0.00196646
0.0019528
0.0019536
0.00196747
0.00196714
0.00195396
0.00196441
0.00196459
0.00196439
0.00193778
0.00193747
0.00193755
0.00193705
0.00195299
0.00196631
0.00196434
0.00195537
0.00196638
0.00195283
0.00195529
0.00196709
0.00195279
0.00195302
0.00196457
0.00196687
0.00195554
0.00196666
0.00195542
0.00195286
0.00196639
0.00196645
0.0019531
0.00195286
0.00195295
0.00191587
0.00192998
0.00193021
0.00191536
0.00192971
0.00191623
0.00191596
0.00193015
0.00193033
0.00191556
0.00192813
0.00192856
0.00192792
0.001901
0.00189959
0.00190113
0.00190022
0.00191638
0.00192992
0.00192802
0.00191842
0.0019301
0.00191625
0.00191873
0.00192939
0.00191548
0.00191651
0.00192819
0.00192953
0.0019191
0.00192998
0.00191915
0.00191593
0.00193054
0.00193055
0.00191669
0.00191691
0.00191687
0.00187952
0.00189215
0.00189276
0.0018789
0.00189473
0.00188132
0.00187811
0.00189163
0.00189204
0.00187787
0.00189048
0.00189145
0.00189122
0.00186306
0.00186453
0.00186181
0.00186457
0.00188057
0.00189405
0.00189109
0.00188226
0.00189349
0.00188119
0.00188231
0.00189167
0.0018784
0.00187924
0.00189134
0.00189262
0.00188107
0.00189326
0.00188179
0.00187875
0.00189371
0.00189358
0.00188052
0.00187972
0.00187948
0.00184317
0.00185676
0.00185696
0.00184363
0.0018566
0.00184163
0.00184424
0.00185635
0.00185631
0.00184439
0.00185565
0.00185253
0.00185515
0.00182723
0.00182763
0.00182805
0.00182681
0.00184295
0.00185756
0.00185568
0.00184702
0.00185781
0.00184225
0.00184646
0.00185888
0.0018467
0.00184341
0.00185365
0.00185725
0.00184464
0.00185611
0.00184476
0.00184503
0.00185594
0.00185584
0.00184279
0.00184217
0.00184244
0.00180819
0.00182196
0.00182087
0.00180922
0.00181967
0.00180797
0.00180976
0.00182351
0.00182344
0.00181004
0.00181814
0.00182061
0.00181817
0.00179329
0.0017928
0.00179514
0.00179406
0.00180742
0.00181925
0.00181793
0.00180826
0.00181945
0.00180746
0.00180906
0.00182275
0.00180724
0.00180991
0.00182016
0.00182362
0.00181376
0.00182264
0.00181184
0.00180875
0.00182187
0.00182239
0.00180849
0.00180979
0.00181006
0.00177363
0.00178696
0.00178726
0.00177265
0.00178724
0.00177342
0.0017715
0.00178596
0.00178566
0.00177147
0.00178478
0.00178511
0.00178574
0.00175936
0.00175864
0.00175578
0.00175778
0.00177451
0.00178739
0.00178496
0.00177679
0.00178761
0.00177402
0.00177665
0.00178273
0.00177033
0.00177143
0.00178561
0.00178379
0.00177317
0.00178601
0.00177551
0.00177011
0.00178652
0.00178613
0.00177456
0.00177134
0.0017709
0.00173378
0.00174773
0.00174882
0.00173295
0.00174908
0.00173467
0.00173466
0.00174759
0.00174846
0.00173372
0.00174894
0.0017468
0.0017476
0.00171745
0.00171853
0.00171951
0.00171837
0.00173464
0.00174932
0.00174872
0.00173832
0.00174927
0.0017348
0.00173839
0.00175075
0.00173689
0.0017356
0.00174651
0.00174962
0.00173759
0.00174828
0.00173737
0.00173685
0.00174781
0.00174777
0.0017341
0.00173534
0.00173564
0.00169902
0.00171186
0.00171099
0.00170036
0.00171195
0.00169888
0.00169901
0.00171226
0.00171172
0.00170026
0.00170896
0.00171009
0.00170923
0.00168218
0.00168236
0.00168194
0.00168299
0.00169891
0.00171191
0.00170874
0.00169957
0.00171176
0.00169885
0.00169979
0.00171205
0.00169834
0.00169922
0.0017102
0.00171303
0.00170132
0.00171312
0.00170096
0.00169869
0.00171408
0.00171412
0.00169957
0.0017001
0.00170007
0.00167331
0.00167815
0.00167666
0.00266018
0.00266018
0.00266026
0.00266026
0.0026602
0.00266029
0.0026602
0.00266029
0.00266038
0.00266291
0.00266056
0.00266038
0.00266291
0.00266056
0.00266018
0.00266026
0.00266026
0.00266018
0.00268027
0.00268296
0.00268045
0.00267529
0.0026602
0.00266029
0.00267542
0.00266038
0.00266291
0.00267295
0.00266056
0.00267529
0.0026602
0.00267521
0.00266029
0.00267542
0.00267291
0.00266292
0.00266038
0.00267295
0.00267529
0.00266056
0.00266038
0.00266292
0.00266056
0.0026602
0.00266029
0.00266292
0.00266038
0.00266055
0.0026602
0.00266029
0.00268061
0.00268032
0.00268032
0.00268024
0.00266018
0.00267518
0.00267536
0.00266025
0.00266025
0.00267527
0.00267527
0.00266018
0.00267518
0.00268027
0.00267542
0.00267291
0.00266291
0.00266038
0.00267294
0.00267529
0.00266056
0.00267542
0.00266291
0.00266038
0.00267294
0.00266056
0.00267529
0.0026602
0.00267521
0.00266029
0.00267529
0.0026602
0.00266029
0.00266025
0.00266025
0.00266018
0.00266018
0.00265514
0.00264018
0.00265514
0.00264018
0.00265522
0.00265522
0.00264055
0.00264025
0.00264025
0.00262024
0.00263515
0.00262024
0.00263515
0.00263534
0.00262031
0.00262031
0.00263523
0.00263523
0.00264029
0.00265516
0.00265524
0.00264021
0.00264055
0.00265524
0.0026529
0.00264288
0.00265536
0.00264038
0.0026429
0.00264055
0.00265524
0.0026529
0.00264288
0.00265536
0.00264038
0.0026429
0.00263526
0.00262026
0.00263518
0.00262034
0.00263526
0.00262026
0.00263518
0.00262034
0.00263537
0.00263289
0.00262044
0.00262295
0.00263525
0.00263292
0.0026206
0.00263537
0.0026329
0.00262043
0.00262295
0.00263525
0.00263292
0.0026206
0.00265522
0.00265522
0.00264055
0.00264025
0.00264025
0.00265514
0.00264018
0.00262025
0.00263515
0.00263534
0.00262032
0.00262032
0.00263523
0.00263523
0.00262024
0.00263515
0.00264055
0.00265524
0.0026529
0.00264288
0.00265536
0.00264038
0.0026429
0.00264028
0.00265516
0.00265524
0.0026402
0.00264055
0.0026529
0.00265524
0.00264288
0.00265536
0.0026429
0.00264038
0.00263525
0.00262026
0.00263518
0.00262034
0.00263537
0.0026329
0.00262044
0.00262295
0.00263525
0.00263292
0.0026206
0.00263525
0.00262026
0.00263518
0.00262034
0.00263537
0.00263289
0.00262295
0.00262043
0.00263292
0.00263525
0.0026206
0.00264029
0.00265516
0.00265524
0.00264021
0.00264055
0.0026529
0.00265524
0.00264288
0.00265536
0.0026429
0.00264038
0.00264029
0.00265517
0.00265524
0.0026402
0.00263537
0.0026329
0.00262044
0.00262295
0.00263525
0.00263292
0.0026206
0.00263525
0.00262026
0.00263518
0.00262034
0.00263537
0.0026329
0.00262295
0.00262043
0.00263292
0.00263525
0.0026206
0.00263525
0.00262026
0.00263518
0.00262034
0.00265522
0.00265522
0.00264055
0.00264025
0.00264025
0.00265514
0.00264018
0.00262024
0.00263515
0.00263534
0.00262031
0.00262031
0.00263523
0.00263523
0.00262024
0.00263515
0.00264055
0.0026529
0.00265524
0.00264288
0.00265536
0.0026429
0.00264038
0.00264028
0.00265516
0.00265524
0.0026402
0.00264028
0.00265516
0.00265524
0.0026402
0.00263537
0.00263289
0.00262295
0.00262044
0.00263292
0.00263525
0.0026206
0.00263537
0.00263289
0.00262295
0.00262043
0.00263292
0.00263525
0.0026206
0.00263525
0.00262027
0.00263518
0.00262034
0.00263525
0.00262026
0.00263518
0.00262034
0.00265514
0.00264018
0.00265514
0.00264018
0.00263534
0.00262031
0.00262031
0.00263523
0.00263523
0.00262024
0.00263515
0.00262024
0.00263515
0.00261523
0.00260037
0.00261524
0.00260037
0.00261531
0.00261531
0.00260074
0.00260043
0.00260043
0.00258055
0.00259537
0.00258055
0.00259537
0.00259556
0.00258061
0.00258061
0.00259544
0.00259544
0.00260046
0.00261526
0.00261533
0.00260039
0.00260071
0.00261532
0.002613
0.00260304
0.00261543
0.00260055
0.00260307
0.00260071
0.00261532
0.002613
0.00260304
0.00261543
0.00260055
0.00260307
0.00259547
0.00258057
0.00259539
0.00258064
0.00259547
0.00258056
0.00259539
0.00258064
0.00259556
0.00259312
0.00258072
0.00258323
0.00259545
0.00259314
0.00258088
0.00259556
0.00259312
0.00258072
0.00258323
0.00259545
0.00259314
0.00258088
0.00261531
0.00261531
0.00260074
0.00260043
0.00260043
0.00261524
0.00260036
0.00258055
0.00259537
0.00259556
0.00258061
0.00258061
0.00259544
0.00259544
0.00258055
0.00259537
0.00260071
0.00261532
0.002613
0.00260304
0.00261543
0.00260055
0.00260306
0.00260047
0.00261526
0.00261533
0.00260039
0.00260071
0.002613
0.00261532
0.00260304
0.00261543
0.00260306
0.00260055
0.00259547
0.00258057
0.00259539
0.00258064
0.00259556
0.00259312
0.00258072
0.00258323
0.00259545
0.00259314
0.00258088
0.00259546
0.00258057
0.00259539
0.00258064
0.00259556
0.00259312
0.00258323
0.00258072
0.00259314
0.00259545
0.00258088
0.00260046
0.00261525
0.00261533
0.00260039
0.00260071
0.002613
0.00261532
0.00260304
0.00261543
0.00260307
0.00260055
0.00260046
0.00261526
0.00261533
0.00260038
0.00259556
0.00259312
0.00258072
0.00258323
0.00259545
0.00259314
0.00258088
0.00259546
0.00258056
0.00259539
0.00258064
0.00259556
0.00259312
0.00258323
0.00258072
0.00259314
0.00259545
0.00258088
0.00259546
0.00258057
0.00259539
0.00258064
0.00261531
0.00261531
0.00260074
0.00260043
0.00260043
0.00261523
0.00260036
0.00258055
0.00259537
0.00259555
0.00258061
0.00258061
0.00259544
0.00259544
0.00258055
0.00259537
0.00260071
0.002613
0.00261532
0.00260304
0.00261543
0.00260307
0.00260055
0.00260046
0.00261526
0.00261533
0.00260038
0.00260046
0.00261526
0.00261533
0.00260039
0.00259556
0.00259312
0.00258323
0.00258072
0.00259314
0.00259545
0.00258088
0.00259556
0.00259312
0.00258323
0.00258072
0.00259314
0.00259545
0.00258088
0.00259546
0.00258057
0.00259539
0.00258064
0.00259546
0.00258057
0.00259539
0.00258064
0.00261523
0.00260037
0.00261523
0.00260037
0.00259556
0.00258061
0.00258061
0.00259544
0.00259544
0.00258055
0.00259537
0.00258055
0.00259537
0.00257557
0.00256079
0.00257557
0.00256079
0.00257564
0.00257564
0.00256116
0.00256084
0.00256084
0.00254108
0.00255582
0.00254108
0.00255582
0.002556
0.00254114
0.00254114
0.00255588
0.00255588
0.00256088
0.00257559
0.00257566
0.00256081
0.00256111
0.00257564
0.00257334
0.00256344
0.00257574
0.00256095
0.00256346
0.00256111
0.00257564
0.00257334
0.00256344
0.00257574
0.00256095
0.00256346
0.00255591
0.0025411
0.00255584
0.00254117
0.00255591
0.0025411
0.00255584
0.00254117
0.00255599
0.00255358
0.00254124
0.00254374
0.00255588
0.00255359
0.0025414
0.00255599
0.00255358
0.00254124
0.00254374
0.00255589
0.00255359
0.0025414
0.00257564
0.00257564
0.00256116
0.00256084
0.00256084
0.00257557
0.00256078
0.00254108
0.00255582
0.00255601
0.00254114
0.00254114
0.00255588
0.00255588
0.00254108
0.00255582
0.00256111
0.00257564
0.00257334
0.00256344
0.00257574
0.00256095
0.00256346
0.00256088
0.00257559
0.00257566
0.0025608
0.00256111
0.00257334
0.00257564
0.00256344
0.00257574
0.00256346
0.00256095
0.00255591
0.0025411
0.00255584
0.00254117
0.00255599
0.00255358
0.00254124
0.00254374
0.00255588
0.00255359
0.0025414
0.00255591
0.0025411
0.00255584
0.00254117
0.00255599
0.00255358
0.00254374
0.00254124
0.00255359
0.00255589
0.0025414
0.00256088
0.00257559
0.00257566
0.00256081
0.00256111
0.00257334
0.00257564
0.00256344
0.00257574
0.00256346
0.00256095
0.00256088
0.00257559
0.00257566
0.0025608
0.00255599
0.00255358
0.00254124
0.00254374
0.00255589
0.00255359
0.0025414
0.00255591
0.0025411
0.00255584
0.00254117
0.00255599
0.00255358
0.00254374
0.00254124
0.00255359
0.00255589
0.0025414
0.00255591
0.0025411
0.00255584
0.00254117
0.00257563
0.00257563
0.00256116
0.00256084
0.00256084
0.00257557
0.00256078
0.00254108
0.00255582
0.002556
0.00254114
0.00254114
0.00255589
0.00255588
0.00254108
0.00255582
0.00256111
0.00257334
0.00257564
0.00256344
0.00257574
0.00256346
0.00256095
0.00256088
0.00257559
0.00257566
0.00256081
0.00256088
0.00257559
0.00257566
0.0025608
0.00255599
0.00255358
0.00254374
0.00254124
0.00255359
0.00255589
0.00254139
0.00255599
0.00255357
0.00254374
0.00254124
0.00255359
0.00255589
0.0025414
0.00255591
0.0025411
0.00255584
0.00254117
0.00255591
0.0025411
0.00255584
0.00254117
0.00257557
0.00256079
0.00257557
0.00256079
0.002556
0.00254113
0.00254113
0.00255589
0.00255589
0.00254108
0.00255582
0.00254108
0.00255582
0.00253613
0.00252143
0.00253613
0.00252143
0.00253619
0.00253619
0.0025218
0.00252148
0.00252148
0.00250183
0.00251649
0.00250183
0.00251649
0.00251667
0.00250188
0.00250188
0.00251655
0.00251655
0.00252151
0.00253615
0.00253621
0.00252145
0.00252173
0.00253619
0.0025339
0.00252407
0.00253628
0.00252158
0.00252408
0.00252173
0.00253619
0.0025339
0.00252406
0.00253628
0.00252158
0.00252408
0.00251657
0.00250185
0.00251651
0.00250192
0.00251657
0.00250185
0.00251651
0.00250192
0.00251664
0.00251426
0.00250198
0.00250447
0.00251654
0.00251427
0.00250213
0.00251664
0.00251426
0.00250198
0.00250447
0.00251654
0.00251427
0.00250213
0.0025362
0.0025362
0.00252181
0.00252148
0.00252148
0.00253613
0.00252143
0.00250183
0.00251649
0.00251668
0.00250188
0.00250188
0.00251654
0.00251654
0.00250183
0.00251649
0.00252174
0.00253619
0.0025339
0.00252407
0.00253628
0.00252158
0.00252408
0.00252151
0.00253615
0.00253621
0.00252145
0.00252174
0.0025339
0.00253619
0.00252407
0.00253628
0.00252408
0.00252158
0.00251657
0.00250185
0.00251651
0.00250192
0.00251664
0.00251426
0.00250198
0.00250447
0.00251654
0.00251427
0.00250213
0.00251657
0.00250185
0.00251651
0.00250191
0.00251664
0.00251426
0.00250447
0.00250198
0.00251427
0.00251654
0.00250213
0.00252152
0.00253615
0.00253621
0.00252145
0.00252174
0.0025339
0.00253619
0.00252407
0.00253629
0.00252408
0.00252158
0.00252152
0.00253615
0.00253621
0.00252144
0.00251664
0.00251426
0.00250198
0.00250447
0.00251655
0.00251427
0.00250213
0.00251657
0.00250185
0.00251651
0.00250192
0.00251664
0.00251426
0.00250448
0.00250198
0.00251427
0.00251654
0.00250213
0.00251657
0.00250185
0.00251651
0.00250192
0.00253619
0.00253619
0.00252181
0.00252147
0.00252148
0.00253613
0.00252143
0.00250183
0.00251649
0.00251667
0.00250188
0.00250188
0.00251654
0.00251654
0.00250183
0.00251649
0.00252174
0.0025339
0.00253619
0.00252407
0.00253628
0.00252408
0.00252158
0.00252152
0.00253615
0.00253621
0.00252145
0.00252152
0.00253615
0.00253621
0.00252144
0.00251664
0.00251426
0.00250447
0.00250198
0.00251427
0.00251655
0.00250213
0.00251664
0.00251426
0.00250447
0.00250198
0.00251427
0.00251654
0.00250213
0.00251657
0.00250185
0.00251651
0.00250192
0.00251657
0.00250185
0.00251651
0.00250192
0.00253613
0.00252143
0.00253613
0.00252143
0.00251667
0.00250188
0.00250188
0.00251655
0.00251655
0.00250183
0.00251649
0.00250183
0.00251649
0.00249691
0.00248229
0.00249691
0.00248229
0.00249696
0.00249696
0.00248266
0.00248233
0.00248233
0.0024628
0.00247737
0.0024628
0.00247737
0.00247755
0.00246284
0.00246284
0.00247743
0.00247743
0.00248237
0.00249692
0.00249699
0.0024823
0.00248257
0.00249696
0.00249469
0.00248491
0.00249705
0.00248243
0.00248492
0.00248258
0.00249696
0.00249469
0.00248491
0.00249705
0.00248243
0.00248492
0.00247745
0.00246281
0.00247739
0.00246288
0.00247745
0.00246281
0.0024774
0.00246288
0.0024775
0.00247516
0.00246293
0.00246542