/*--------------------------------*- C++ -*----------------------------------*\
| =========                 |                                                 |
| \\      /  F ield         | OpenFOAM: The Open Source CFD Toolbox           |
|  \\    /   O peration     | Version:  2312                                  |
|   \\  /    A nd           | Website:  www.openfoam.com                      |
|    \\/     M anipulation  |                                                 |
\*---------------------------------------------------------------------------*/
FoamFile
{
    version     2.0;
    format      ascii;
    arch        "LSB;label=32;scalar=64";
    class       volVectorField;
    location    "1000";
    object      U;
}
// * * * * * * * * * * * * * * * * * * * * * * * * * * * * * * * * * * * * * //

dimensions      [0 1 -1 0 0 0 0];

internalField   nonuniform List<vector> 
43120
(
(6.08373e-05 6.08583e-05 0.108929)
(-9.73611e-05 5.9842e-05 0.107975)
(5.99456e-05 -9.74552e-05 0.107975)
(-0.000158713 -0.000158695 0.106621)
(5.93343e-05 5.93404e-05 0.109226)
(-9.49502e-05 5.87779e-05 0.108152)
(5.88037e-05 -9.50232e-05 0.108152)
(-0.000154129 -0.000154136 0.106644)
(5.79754e-05 5.80264e-05 0.109515)
(-9.25541e-05 5.80181e-05 0.108311)
(5.78613e-05 -9.24983e-05 0.108311)
(-0.000149433 -0.000149453 0.106643)
(5.63109e-05 5.63245e-05 0.109794)
(-8.99971e-05 5.68483e-05 0.108451)
(5.70082e-05 -9.00027e-05 0.108451)
(-0.00014442 -0.000144479 0.106619)
(5.4955e-05 5.48896e-05 0.110064)
(-8.72383e-05 5.52492e-05 0.108573)
(5.52875e-05 -8.70112e-05 0.108572)
(-0.000139087 -0.000139103 0.106574)
(5.32796e-05 5.32485e-05 0.110324)
(-8.41066e-05 5.45739e-05 0.108675)
(5.46614e-05 -8.40907e-05 0.108675)
(-0.000133425 -0.000133381 0.106514)
(5.25609e-05 5.25104e-05 0.110574)
(-8.10698e-05 5.23982e-05 0.108759)
(5.25793e-05 -8.09352e-05 0.108759)
(-0.000127537 -0.000127434 0.106439)
(5.0982e-05 5.10633e-05 0.110813)
(-7.70366e-05 4.99483e-05 0.108827)
(5.04874e-05 -7.7658e-05 0.108826)
(-0.000120268 -0.000120423 0.106353)
(4.96038e-05 4.97007e-05 0.111042)
(-7.46043e-05 5.02271e-05 0.108879)
(4.87965e-05 -7.42947e-05 0.108877)
(-0.000114867 -0.000114893 0.106261)
(4.84303e-05 4.86209e-05 0.11126)
(-7.16912e-05 4.65035e-05 0.10891)
(4.73757e-05 -7.12612e-05 0.108912)
(-0.000112316 -0.00011206 0.106164)
(4.70042e-05 4.6976e-05 0.111468)
(-6.57825e-05 4.37945e-05 0.108932)
(4.43585e-05 -6.65629e-05 0.10893)
(-0.000101473 -0.00010229 0.106056)
(4.55717e-05 4.48972e-05 0.111661)
(-6.35321e-05 4.15763e-05 0.108943)
(4.17676e-05 -6.40869e-05 0.108936)
(-0.000100494 -0.000100374 0.105956)
(4.77668e-05 4.83734e-05 0.11184)
(-5.9349e-05 4.08853e-05 0.108932)
(4.04661e-05 -6.02265e-05 0.108936)
(-9.3251e-05 -9.285e-05 0.10585)
(5.01804e-05 5.27133e-05 0.112003)
(-5.76727e-05 4.12685e-05 0.10891)
(3.58243e-05 -5.37473e-05 0.108922)
(-9.02639e-05 -8.94346e-05 0.105736)
(2.28158e-05 1.80024e-05 0.112176)
(-5.92048e-05 2.24036e-05 0.108879)
(4.16827e-05 -5.83037e-05 0.108867)
(-8.56245e-05 -8.69662e-05 0.105657)
(7.07223e-05 6.08953e-05 0.112347)
(-3.45521e-05 3.77516e-05 0.108895)
(2.78497e-05 -5.33389e-05 0.108804)
(-7.23534e-05 -7.97783e-05 0.105547)
(4.80144e-05 7.22172e-05 0.112411)
(-5.41185e-05 4.90772e-05 0.108842)
(1.93852e-05 -3.80728e-05 0.108894)
(-9.91272e-05 -7.63262e-05 0.105471)
(-3.00063e-05 -7.52088e-06 0.112567)
(-6.80833e-05 1.6104e-05 0.108676)
(-6.01258e-06 -4.38194e-05 0.108891)
(-6.75549e-05 -6.58609e-05 0.105313)
(-2.96309e-06 -4.11735e-05 0.112838)
(-1.64638e-05 7.02367e-06 0.108624)
(8.83791e-05 -4.93109e-05 0.108719)
(-5.26721e-05 -7.60907e-05 0.10525)
(0.000198409 0.000180209 0.1129)
(-2.8918e-05 4.26975e-05 0.108655)
(5.69756e-05 -5.65154e-06 0.108486)
(-4.52944e-05 -5.70321e-05 0.105362)
(0.000133543 3.99693e-05 0.112564)
(4.03702e-05 -0.000103989 0.10906)
(-4.15838e-06 -8.55591e-05 0.108377)
(-6.43203e-05 -9.84193e-05 0.105272)
(-0.000224351 2.07014e-05 0.112563)
(-0.000151718 0.000195896 0.108808)
(-0.00029934 5.63916e-05 0.109007)
(-0.000194533 3.81917e-07 0.104827)
(-8.98257e-05 -8.64938e-05 0.113079)
(1.66766e-05 -3.55026e-05 0.107904)
(0.00043672 -2.22825e-05 0.108956)
(0.000122538 -1.3455e-05 0.104994)
(0.000280031 -1.68136e-05 0.113461)
(3.28977e-05 -6.35106e-05 0.108354)
(-7.51096e-05 -0.000149634 0.107568)
(-7.41876e-05 -0.000214524 0.105009)
(0.000107148 0.000333214 0.112933)
(-4.82008e-05 0.000100393 0.10842)
(-0.000163992 0.000152958 0.108345)
(-0.000118185 0.000101609 0.104512)
(-0.000182813 -0.000229732 0.112725)
(-4.66206e-05 -3.03997e-05 0.1082)
(0.000160219 -0.000122991 0.108581)
(2.00183e-05 -0.000116175 0.105144)
(-0.000129064 1.71461e-05 0.108197)
(-6.00508e-06 -5.95122e-06 0.106779)
(6.02551e-05 9.80337e-05 0.107927)
(-6.02394e-05 9.80249e-05 0.107927)
(6.03286e-06 -6.00181e-06 0.106779)
(9.79769e-05 6.01823e-05 0.107927)
(9.80615e-05 -6.03197e-05 0.107927)
(-9.79308e-05 6.01152e-05 0.107927)
(-9.8035e-05 -6.03391e-05 0.107927)
(-5.68527e-06 5.73193e-06 0.106778)
(6.02197e-05 -9.80311e-05 0.107927)
(-6.02801e-05 -9.80523e-05 0.107927)
(5.63898e-06 5.74889e-06 0.106778)
(0.000158362 0.00015835 0.106621)
(-8.65219e-06 -8.5762e-06 0.106817)
(5.99023e-05 9.7433e-05 0.107974)
(-5.99685e-05 9.74404e-05 0.107974)
(5.90831e-05 9.56562e-05 0.108109)
(-5.91607e-05 9.56527e-05 0.108109)
(-0.00015849 0.000158443 0.106621)
(8.74721e-06 -8.72671e-06 0.106817)
(9.73536e-05 5.98459e-05 0.107975)
(9.74832e-05 -6.00859e-05 0.107974)
(9.55716e-05 5.90248e-05 0.108109)
(9.56256e-05 -5.91054e-05 0.108109)
(-9.74168e-05 -5.99341e-05 0.107974)
(-9.56026e-05 5.90005e-05 0.108109)
(-9.56604e-05 -5.91837e-05 0.108109)
(0.000158608 -0.000158745 0.106621)
(-8.50155e-06 8.61743e-06 0.106817)
(-5.99084e-05 -9.73919e-05 0.107974)
(5.89449e-05 -9.55481e-05 0.108109)
(-5.91356e-05 -9.56858e-05 0.108109)
(8.38692e-06 8.47918e-06 0.106816)
(0.000153944 0.000153951 0.106644)
(-1.06245e-05 -1.05676e-05 0.10683)
(5.89028e-05 9.50585e-05 0.108152)
(-5.89195e-05 9.50012e-05 0.108151)
(5.82649e-05 9.33302e-05 0.108273)
(-5.83606e-05 9.34131e-05 0.108272)
(-0.000153953 0.000153902 0.106644)
(1.08299e-05 -1.0691e-05 0.10683)
(9.4985e-05 5.88253e-05 0.108152)
(9.5078e-05 -5.89481e-05 0.108151)
(9.32569e-05 5.82207e-05 0.108273)
(9.33106e-05 -5.83093e-05 0.108272)
(-9.50822e-05 -5.89558e-05 0.108151)
(-9.32645e-05 5.8287e-05 0.108273)
(-9.31854e-05 -5.81477e-05 0.108272)
(0.000154032 -0.000154072 0.106644)
(-1.04581e-05 1.06319e-05 0.106829)
(-5.89112e-05 -9.50789e-05 0.108152)
(5.82218e-05 -9.31645e-05 0.108273)
(-5.80966e-05 -9.31462e-05 0.108273)
(1.05315e-05 1.0616e-05 0.106829)
(0.000149351 0.00014934 0.106643)
(-1.29281e-05 -1.28973e-05 0.106818)
(5.80866e-05 9.27978e-05 0.10831)
(-5.80511e-05 9.27117e-05 0.10831)
(5.69571e-05 9.05442e-05 0.108417)
(-5.70804e-05 9.07262e-05 0.108417)
(-0.00014928 0.000149317 0.106643)
(1.31554e-05 -1.30412e-05 0.106818)
(9.27115e-05 5.8039e-05 0.108311)
(9.25949e-05 -5.79513e-05 0.10831)
(9.04958e-05 5.68745e-05 0.108418)
(9.07571e-05 -5.7201e-05 0.108417)
(-9.25886e-05 -5.79592e-05 0.10831)
(-9.06134e-05 5.70037e-05 0.108418)
(-9.05358e-05 -5.70876e-05 0.108417)
(0.000149574 -0.000149563 0.106643)
(-1.28132e-05 1.2999e-05 0.106817)
(-5.78795e-05 -9.25856e-05 0.108311)
(5.71023e-05 -9.0586e-05 0.108418)
(-5.69786e-05 -9.05719e-05 0.108417)
(1.25962e-05 1.26065e-05 0.106816)
(0.000143945 0.000143917 0.106619)
(-1.46033e-05 -1.46238e-05 0.106784)
(5.66825e-05 8.99643e-05 0.10845)
(-5.69989e-05 9.01669e-05 0.10845)
(5.61787e-05 8.78417e-05 0.108543)
(-5.5726e-05 8.75799e-05 0.108543)
(-0.00014376 0.000143725 0.106619)
(1.49186e-05 -1.50316e-05 0.106784)
(8.99149e-05 5.65932e-05 0.108451)
(9.01659e-05 -5.7158e-05 0.10845)
(8.78382e-05 5.60201e-05 0.108544)
(8.77202e-05 -5.57988e-05 0.108543)
(-8.99726e-05 -5.69057e-05 0.10845)
(-8.78291e-05 5.54718e-05 0.108544)
(-8.78419e-05 -5.5963e-05 0.108543)
(0.000144383 -0.00014438 0.106619)
(-1.51098e-05 1.51279e-05 0.106783)
(-5.67936e-05 -8.99872e-05 0.108451)
(5.56067e-05 -8.77559e-05 0.108544)
(-5.5911e-05 -8.77665e-05 0.108543)
(1.45353e-05 1.46122e-05 0.106782)
(0.000138968 0.000138925 0.106575)
(-1.72181e-05 -1.71429e-05 0.106732)
(5.57905e-05 8.70949e-05 0.108572)
(-5.55159e-05 8.69835e-05 0.108571)
(5.43136e-05 8.48021e-05 0.10865)
(-5.47716e-05 8.49514e-05 0.10865)
(-0.000138367 0.000138141 0.106576)
(1.63752e-05 -1.62541e-05 0.106732)
(8.71522e-05 5.56928e-05 0.108572)
(8.70271e-05 -5.54953e-05 0.108571)
(8.45506e-05 5.43019e-05 0.108651)
(8.47763e-05 -5.47834e-05 0.10865)
(-8.70218e-05 -5.54637e-05 0.108571)
(-8.47259e-05 5.46757e-05 0.108651)
(-8.49523e-05 -5.46586e-05 0.108649)
(0.000138514 -0.000138623 0.106575)
(-1.67206e-05 1.67539e-05 0.106731)
(-5.54012e-05 -8.70333e-05 0.108572)
(5.45894e-05 -8.48263e-05 0.108651)
(-5.46314e-05 -8.47422e-05 0.10865)
(1.68049e-05 1.69037e-05 0.10673)
(0.000132792 0.000132831 0.106515)
(-1.84353e-05 -1.84356e-05 0.106663)
(5.39788e-05 8.39407e-05 0.108674)
(-5.45621e-05 8.4301e-05 0.108674)
(5.37325e-05 8.22329e-05 0.108739)
(-5.34715e-05 8.19193e-05 0.108738)
(-0.000133419 0.000133492 0.106515)
(1.83332e-05 -1.83849e-05 0.106661)
(8.38322e-05 5.39093e-05 0.108675)
(8.42088e-05 -5.47417e-05 0.108674)
(8.20874e-05 5.36775e-05 0.10874)
(8.19938e-05 -5.32334e-05 0.108738)
(-8.39301e-05 -5.41744e-05 0.108674)
(-8.18221e-05 5.32229e-05 0.10874)
(-8.23578e-05 -5.35846e-05 0.108738)
(0.000133411 -0.000133447 0.106515)
(-1.88317e-05 1.90078e-05 0.10666)
(-5.4073e-05 -8.38608e-05 0.108674)
(5.31889e-05 -8.18236e-05 0.108739)
(-5.36979e-05 -8.20698e-05 0.108739)
(1.88893e-05 1.9e-05 0.106661)
(0.000127749 0.000127698 0.106439)
(-2.11812e-05 -2.11447e-05 0.106579)
(5.33557e-05 8.12178e-05 0.108759)
(-5.26568e-05 8.09282e-05 0.108758)
(5.14478e-05 7.88701e-05 0.10881)
(-5.0991e-05 7.87891e-05 0.108809)
(-0.000127715 0.000127521 0.106438)
(2.14171e-05 -2.10916e-05 0.10658)
(8.11842e-05 5.31521e-05 0.108759)
(8.11286e-05 -5.25798e-05 0.108757)
(7.87068e-05 5.14393e-05 0.10881)
(7.86304e-05 -5.11103e-05 0.108809)
(-8.16939e-05 -5.35181e-05 0.108758)
(-7.83564e-05 5.11302e-05 0.10881)
(-7.78452e-05 -5.05442e-05 0.10881)
(0.000127106 -0.000127041 0.106438)
(-2.12421e-05 2.12958e-05 0.10658)
(-5.35122e-05 -8.13388e-05 0.108758)
(5.09715e-05 -7.86318e-05 0.108811)
(-5.03535e-05 -7.8311e-05 0.108811)
(2.19039e-05 2.16729e-05 0.106579)
(0.000121078 0.000121144 0.106352)
(-2.28359e-05 -2.29536e-05 0.10649)
(5.08943e-05 7.78552e-05 0.108824)
(-4.99958e-05 7.74493e-05 0.108825)
(4.95957e-05 7.55698e-05 0.108864)
(-4.95069e-05 7.55139e-05 0.108865)
(-0.000121112 0.00012134 0.106354)
(2.31911e-05 -2.30152e-05 0.106494)
(7.76913e-05 5.08902e-05 0.108825)
(7.76077e-05 -5.06206e-05 0.108824)
(7.55323e-05 4.94158e-05 0.108865)
(7.54853e-05 -4.90348e-05 0.108864)
(-7.78131e-05 -5.08595e-05 0.108825)
(-7.54554e-05 4.97737e-05 0.108867)
(-7.47742e-05 -4.86562e-05 0.108864)
(0.000120954 -0.00012101 0.106354)
(-2.30843e-05 2.33052e-05 0.106492)
(-5.08295e-05 -7.79981e-05 0.108825)
(4.92271e-05 -7.50176e-05 0.108866)
(-4.85057e-05 -7.45403e-05 0.108865)
(2.28336e-05 2.28283e-05 0.106489)
(0.000115519 0.000115501 0.10626)
(-2.5127e-05 -2.50163e-05 0.106395)
(4.882e-05 7.46806e-05 0.108875)
(-4.98286e-05 7.48499e-05 0.108877)
(4.67976e-05 7.11884e-05 0.108904)
(-4.83015e-05 7.17125e-05 0.108902)
(-0.00011571 0.000115812 0.106264)
(2.46452e-05 -2.50374e-05 0.106392)
(7.45836e-05 4.89656e-05 0.108876)
(7.44991e-05 -4.87888e-05 0.108876)
(7.08753e-05 4.68898e-05 0.108905)
(7.12716e-05 -4.85477e-05 0.108903)
(-7.27037e-05 -4.66868e-05 0.108876)
(-7.20192e-05 4.72319e-05 0.108904)
(-7.33083e-05 -4.94648e-05 0.108904)
(0.000115156 -0.000115176 0.106263)
(-2.43708e-05 2.38899e-05 0.106394)
(-4.66871e-05 -7.29519e-05 0.108877)
(4.75933e-05 -7.22204e-05 0.108905)
(-4.9545e-05 -7.29571e-05 0.108905)
(2.29941e-05 2.31747e-05 0.106396)
(0.000109653 0.000109754 0.106163)
(-2.63544e-05 -2.68219e-05 0.106291)
(4.72692e-05 7.10357e-05 0.108912)
(-4.74213e-05 7.06948e-05 0.108908)
(4.47127e-05 6.81608e-05 0.108928)
(-4.43543e-05 6.84781e-05 0.108926)
(-0.000109488 0.000108947 0.10616)
(2.67908e-05 -2.61423e-05 0.10629)
(7.06706e-05 4.72946e-05 0.108913)
(7.07211e-05 -4.80686e-05 0.10891)
(6.8346e-05 4.43647e-05 0.108929)
(6.87743e-05 -4.49256e-05 0.108925)
(-7.29127e-05 -4.97083e-05 0.108911)
(-6.75066e-05 4.46225e-05 0.108928)
(-6.7416e-05 -4.39689e-05 0.108925)
(0.000110014 -0.000110557 0.106162)
(-2.60648e-05 2.70062e-05 0.106288)
(-4.99249e-05 -7.20303e-05 0.108912)
(4.52859e-05 -6.78372e-05 0.108927)
(-4.35355e-05 -6.79418e-05 0.108926)
(2.90094e-05 2.84411e-05 0.106287)
(0.000104044 0.000103518 0.10606)
(-2.67673e-05 -2.75411e-05 0.106186)
(4.34879e-05 6.63718e-05 0.108933)
(-4.28063e-05 6.75673e-05 0.10893)
(4.47607e-05 6.50522e-05 0.108935)
(-4.28465e-05 6.37749e-05 0.108938)
(-0.0001036 0.000104556 0.106059)
(2.78833e-05 -2.85972e-05 0.10619)
(6.65624e-05 4.3145e-05 0.108934)
(6.70879e-05 -4.36271e-05 0.108929)
(6.55743e-05 4.3634e-05 0.108937)
(6.63214e-05 -4.45515e-05 0.108933)
(-6.63288e-05 -4.33825e-05 0.108928)
(-6.42709e-05 4.2111e-05 0.108941)
(-6.45172e-05 -4.41304e-05 0.108937)
(0.000104551 -0.000103736 0.106057)
(-2.75535e-05 2.77468e-05 0.106182)
(-4.25782e-05 -6.73236e-05 0.108929)
(4.43382e-05 -6.5458e-05 0.108936)
(-4.37226e-05 -6.41434e-05 0.108939)
(2.67595e-05 2.6731e-05 0.106186)
(0.000100508 9.98396e-05 0.105954)
(-2.9067e-05 -2.80504e-05 0.106074)
(4.20768e-05 6.26013e-05 0.108937)
(-4.33313e-05 6.27317e-05 0.108939)
(4.31946e-05 6.11086e-05 0.108932)
(-4.05112e-05 5.98113e-05 0.108934)
(-0.00010024 9.89793e-05 0.10596)
(3.06462e-05 -2.99311e-05 0.106081)
(6.31113e-05 4.17557e-05 0.108939)
(6.46443e-05 -4.2502e-05 0.108932)
(6.05615e-05 4.36867e-05 0.108933)
(5.83451e-05 -3.71414e-05 0.108936)
(-6.46784e-05 -4.35752e-05 0.108937)
(-6.07358e-05 4.14202e-05 0.108935)
(-5.89637e-05 -3.8447e-05 0.108933)
(9.93689e-05 -9.9431e-05 0.105952)
(-3.24121e-05 3.18971e-05 0.106086)
(-4.38022e-05 -6.40516e-05 0.108939)
(3.73299e-05 -5.93232e-05 0.108938)
(-3.87073e-05 -5.96414e-05 0.108933)
(3.12982e-05 3.15194e-05 0.106078)
(9.55389e-05 9.67112e-05 0.105842)
(-3.10164e-05 -2.87664e-05 0.105936)
(4.50472e-05 6.19894e-05 0.108925)
(-3.94596e-05 5.90888e-05 0.108933)
(4.2605e-05 6.25294e-05 0.108897)
(-4.00927e-05 6.20711e-05 0.108915)
(-9.32029e-05 9.42781e-05 0.105851)
(3.04526e-05 -2.82232e-05 0.105965)
(6.07796e-05 4.61566e-05 0.108926)
(5.93925e-05 -4.04913e-05 0.108934)
(6.01136e-05 4.56178e-05 0.108898)
(5.58804e-05 -3.59731e-05 0.108928)
(-5.86516e-05 -3.94639e-05 0.10893)
(-5.82531e-05 4.33174e-05 0.108916)
(-6.08526e-05 -4.13033e-05 0.108914)
(9.26551e-05 -9.31826e-05 0.105858)
(-3.11057e-05 3.2007e-05 0.105974)
(-4.00087e-05 -5.83026e-05 0.108931)
(3.74837e-05 -5.61761e-05 0.108926)
(-4.2731e-05 -6.02193e-05 0.108913)
(2.84607e-05 2.97062e-05 0.105961)
(8.73582e-05 8.88833e-05 0.10571)
(-4.26755e-05 -4.72107e-05 0.105886)
(3.77817e-05 6.22946e-05 0.108885)
(-3.96043e-05 6.00053e-05 0.108907)
(1.31401e-05 4.59741e-05 0.108889)
(-4.02627e-05 5.30471e-05 0.108881)
(-9.01231e-05 9.13765e-05 0.105738)
(2.97148e-05 -3.90467e-05 0.10586)
(6.10209e-05 3.87461e-05 0.108886)
(5.41919e-05 -3.44111e-05 0.108926)
(4.88555e-05 8.38011e-06 0.108892)
(5.84281e-05 -5.23904e-05 0.108879)
(-5.76631e-05 -3.55223e-05 0.108908)
(-6.09107e-05 2.84714e-05 0.108884)
(-5.24303e-05 -3.1495e-05 0.1089)
(8.79391e-05 -8.70946e-05 0.105749)
(-2.63228e-05 2.24756e-05 0.105841)
(-3.60274e-05 -5.80705e-05 0.108908)
(4.59577e-05 -5.92503e-05 0.10888)
(-3.09858e-05 -5.01177e-05 0.108902)
(3.46051e-05 3.40712e-05 0.105878)
(7.56516e-05 7.05671e-05 0.105677)
(-1.01269e-05 -1.47774e-05 0.105824)
(1.18138e-05 3.92322e-05 0.108904)
(-3.67901e-05 5.03625e-05 0.108874)
(6.42775e-05 4.78701e-05 0.108925)
(-1.47969e-05 4.44712e-05 0.10889)
(-8.72141e-05 7.76033e-05 0.105641)
(4.3959e-05 -3.25739e-05 0.105811)
(4.28424e-05 4.71577e-06 0.108907)
(5.59473e-05 -5.16915e-05 0.108861)
(5.29319e-05 5.45337e-05 0.108932)
(6.02263e-05 -2.98673e-05 0.108806)
(-5.46974e-05 -4.04369e-05 0.108894)
(-3.82286e-05 2.60849e-05 0.108891)
(-4.94886e-05 -4.00671e-05 0.108855)
(8.98808e-05 -9.48134e-05 0.105614)
(-3.59758e-05 4.04913e-05 0.10572)
(-3.71521e-05 -5.33911e-05 0.108898)
(3.66348e-05 -5.92595e-05 0.108818)
(-2.60064e-05 -6.05143e-05 0.108865)
(3.96124e-05 2.97719e-05 0.105763)
(0.000107071 0.000105079 0.105586)
(-4.59202e-05 -2.76665e-05 0.10555)
(7.89075e-05 6.27984e-05 0.108897)
(-1.33182e-05 4.89315e-05 0.108898)
(3.02638e-05 6.64253e-05 0.108756)
(-4.04811e-05 5.63156e-05 0.108868)
(-7.09765e-05 8.65977e-05 0.105594)
(3.1195e-05 -2.54313e-05 0.105684)
(6.42873e-05 7.87398e-05 0.108902)
(5.99829e-05 -9.52478e-06 0.108799)
(5.30242e-05 5.42946e-05 0.108746)
(3.22935e-05 1.00183e-05 0.108881)
(-4.01114e-05 -2.21042e-05 0.108854)
(-4.48967e-05 5.34204e-05 0.10887)
(-5.00205e-05 -2.49009e-05 0.10885)
(7.75447e-05 -6.95116e-05 0.10551)
(-4.48838e-05 5.20298e-05 0.105763)
(-1.68286e-05 -4.93413e-05 0.108859)
(2.68402e-06 -2.3656e-05 0.108877)
(-4.95094e-05 -3.25713e-05 0.108837)
(1.88278e-05 4.17164e-05 0.105692)
(5.65642e-05 7.42034e-05 0.105341)
(-6.29225e-05 -5.72993e-05 0.105608)
(1.16478e-05 5.77592e-05 0.108722)
(-5.32926e-05 5.19243e-05 0.108832)
(-3.50429e-05 3.74491e-05 0.108749)
(-7.10359e-05 4.02611e-05 0.108704)
(-8.37673e-05 8.18154e-05 0.105456)
(1.11146e-05 -4.8176e-05 0.105473)
(4.4705e-05 3.28483e-05 0.108714)
(3.65889e-05 -2.1644e-05 0.108896)
(3.20084e-05 -1.9048e-05 0.108748)
(3.33454e-05 -5.42585e-05 0.108886)
(-5.90058e-05 -3.81713e-05 0.108838)
(-7.13263e-05 2.32414e-05 0.108716)
(-5.78006e-05 -2.87726e-05 0.108764)
(7.04389e-05 -6.95973e-05 0.105562)
(-4.55021e-05 1.26363e-05 0.105667)
(-6.16305e-05 -4.01837e-05 0.108828)
(1.05336e-05 -5.94543e-05 0.108892)
(-4.60295e-05 -5.2054e-05 0.108767)
(3.48947e-05 3.88388e-05 0.105524)
(4.58314e-05 4.96643e-05 0.105439)
(-4.16479e-05 -6.61156e-05 0.105863)
(-4.84571e-05 2.89166e-05 0.108808)
(-6.62753e-05 3.91592e-05 0.108667)
(-3.51064e-06 -4.71599e-06 0.109014)
(-1.45913e-05 3.14559e-05 0.108611)
(-9.31334e-05 5.8166e-05 0.105262)
(4.2478e-05 -3.88784e-05 0.10539)
(2.45767e-05 -3.75481e-05 0.108806)
(1.88162e-05 -4.06038e-05 0.108883)
(1.29004e-05 -3.84761e-05 0.109026)
(4.34134e-05 -7.50159e-05 0.108769)
(-5.25346e-05 -2.37142e-05 0.108729)
(-3.39894e-05 1.18031e-06 0.10861)
(-3.36899e-05 -3.41042e-05 0.108658)
(5.72992e-05 -8.93986e-05 0.105448)
(-2.1501e-05 2.28782e-05 0.105495)
(-3.5614e-05 -5.03459e-05 0.108731)
(6.0457e-05 -4.50304e-05 0.108781)
(-9.52145e-07 -4.79484e-05 0.108669)
(5.07152e-05 2.99983e-05 0.105444)
(8.24877e-05 5.54285e-05 0.105649)
(1.94121e-05 1.27938e-05 0.105356)
(4.91508e-05 -4.35122e-06 0.10905)
(6.32545e-06 2.91579e-05 0.108625)
(0.000167121 6.72172e-05 0.108822)
(3.47056e-05 7.87372e-05 0.108663)
(-5.44297e-05 6.73671e-05 0.105204)
(7.08393e-05 2.89899e-06 0.10541)
(1.92053e-05 7.68756e-06 0.109065)
(5.81523e-05 -7.75441e-05 0.108709)
(6.68521e-05 0.000155233 0.108827)
(6.70586e-05 2.37915e-05 0.108548)
(-2.79797e-05 -2.79076e-05 0.108655)
(-2.7474e-05 7.21368e-05 0.108639)
(-1.46126e-05 1.90087e-05 0.108756)
(9.71175e-05 -8.7499e-05 0.105264)
(-9.21749e-06 7.954e-05 0.105208)
(1.50136e-05 -4.66146e-05 0.108672)
(7.48319e-05 -1.96716e-05 0.108524)
(3.41178e-05 -2.3826e-05 0.108761)
(6.60971e-05 5.30173e-05 0.105543)
(0.000115565 0.000109806 0.10507)
(-1.45645e-05 -6.00624e-05 0.104863)
(0.000166086 9.1241e-05 0.108637)
(6.93491e-05 8.36712e-05 0.108685)
(7.96998e-05 4.67668e-05 0.108186)
(0.000141921 -1.87462e-05 0.108934)
(-2.65838e-05 0.000100374 0.105229)
(0.00010558 -0.000112132 0.10575)
(9.198e-05 0.000150927 0.108639)
(5.84636e-05 4.83775e-05 0.108519)
(8.47831e-05 -8.61599e-06 0.108226)
(8.03405e-05 -3.44222e-05 0.108413)
(-1.72565e-05 3.8666e-06 0.108804)
(2.70723e-05 -0.000123038 0.108923)
(-4.75134e-06 -8.51068e-05 0.108837)
(8.02365e-05 -9.71158e-06 0.105028)
(-1.32812e-05 1.63809e-05 0.105142)
(2.12819e-05 -2.05852e-05 0.108804)
(6.26026e-05 -6.81449e-05 0.108401)
(-5.55278e-07 -4.27389e-05 0.108877)
(4.36092e-05 2.20378e-06 0.105501)
(6.28559e-05 2.70313e-05 0.104705)
(-0.000178678 1.307e-05 0.10515)
(2.818e-05 3.31625e-05 0.108124)
(7.7862e-05 -5.74445e-05 0.109061)
(-0.000217138 7.30893e-05 0.108283)
(-0.000325491 2.32038e-05 0.108989)
(-1.96308e-05 -5.03006e-06 0.1056)
(-0.000129369 2.86423e-05 0.105487)
(6.71758e-05 -3.11155e-05 0.10817)
(7.52504e-05 -1.42248e-05 0.108375)
(-4.71356e-05 3.69885e-05 0.108217)
(-9.22362e-05 0.000157892 0.108679)
(-2.59036e-06 -8.70164e-05 0.108803)
(-9.53931e-05 0.000169362 0.109044)
(-0.000145966 -7.47008e-06 0.108504)
(6.36516e-05 -7.96904e-05 0.104978)
(-0.000214192 0.000103444 0.105665)
(-3.08256e-05 -3.83577e-05 0.108851)
(-0.000321132 1.27131e-05 0.10874)
(-0.000256375 -2.49743e-05 0.108433)
(-9.41516e-05 8.66099e-05 0.105054)
(-9.50582e-05 0.000113658 0.105046)
(-3.78962e-05 -9.73585e-05 0.105689)
(-0.000276494 6.57954e-05 0.108452)
(-0.00035322 7.88698e-05 0.108739)
(-4.51091e-05 -1.91922e-05 0.108887)
(9.19032e-07 8.02075e-05 0.108007)
(-0.000231051 0.000133868 0.105142)
(9.85768e-05 -6.13973e-05 0.104615)
(-0.000101068 3.76333e-05 0.108337)
(-0.000142173 0.000132562 0.108928)
(-3.31743e-05 -7.25047e-05 0.108844)
(-2.57946e-05 -0.000280484 0.109254)
(-0.000175847 5.77426e-05 0.108391)
(-6.12631e-05 2.71079e-05 0.108013)
(1.94217e-05 0.000140329 0.108314)
(-9.69193e-05 -1.02378e-05 0.105593)
(0.000120787 -9.36308e-05 0.105688)
(-0.000246184 -1.50935e-05 0.108274)
(0.000307826 4.05767e-05 0.109266)
(0.000179297 2.20474e-05 0.10827)
(0.000178742 0.000109781 0.105098)
(0.000117873 -1.36282e-05 0.105503)
(8.17754e-05 -0.000133672 0.105312)
(0.000103263 -6.63128e-05 0.108941)
(0.000120094 3.76534e-05 0.107933)
(0.000268452 -8.91562e-05 0.108821)
(0.000121721 -5.14255e-05 0.108212)
(4.22814e-05 1.58951e-05 0.104461)
(9.34306e-05 -7.41064e-05 0.105063)
(3.59682e-05 -0.000117427 0.108995)
(7.32161e-05 -0.00035208 0.108985)
(0.000102797 -4.9845e-05 0.108987)
(0.000205862 -0.000105375 0.107756)
(0.000122627 5.32099e-05 0.108389)
(7.46884e-05 -8.94905e-05 0.108184)
(0.000109046 -0.000283161 0.108578)
(0.000248232 -0.000197101 0.105284)
(-3.21565e-06 1.80788e-05 0.104227)
(0.000283187 2.07963e-05 0.108438)
(0.000133363 -0.000187336 0.107728)
(3.42523e-05 -8.38281e-05 0.108745)
(7.15052e-05 -0.000139901 0.105262)
(0.000141283 1.71848e-06 0.105032)
(-8.19327e-05 0.0001505 0.104606)
(0.00020012 -2.81178e-05 0.108676)
(5.46717e-05 -4.50855e-05 0.108359)
(1.08398e-05 0.000183406 0.108139)
(-1.91957e-05 6.63749e-05 0.10851)
(-3.21671e-05 3.07204e-05 0.10495)
(3.74063e-05 -6.07514e-06 0.105126)
(6.72818e-05 5.13746e-05 0.108778)
(0.000136791 6.36782e-05 0.107574)
(9.5355e-06 0.000310643 0.108018)
(-0.000103351 0.000355038 0.108042)
(3.40051e-07 -0.000261073 0.108522)
(-5.6085e-05 7.26075e-05 0.108495)
(-0.000183083 0.000120561 0.108114)
(2.7393e-05 -3.01559e-05 0.104096)
(-0.000197944 0.000230226 0.105122)
(-0.000107987 -0.000100288 0.108624)
(-0.000302333 0.000114433 0.108033)
(-0.00017171 -1.10775e-05 0.107988)
(-6.56448e-05 0.000170013 0.10465)
(7.40259e-06 0.000222144 0.10442)
(-0.00013662 -0.000239984 0.104902)
(-3.00246e-05 0.000207179 0.107969)
(-3.18288e-06 9.14041e-05 0.108461)
(-0.000210254 -2.64436e-05 0.107951)
(-6.81231e-05 2.09742e-05 0.10823)
(-4.58706e-05 9.32487e-05 0.104925)
(-4.40978e-06 -4.54995e-05 0.104882)
(4.26793e-05 0.000250411 0.107836)
(-0.000107519 0.000262217 0.108379)
(2.60157e-05 -0.000306705 0.107965)
(4.63882e-05 -0.000258527 0.108724)
(-0.000136835 0.000214016 0.108058)
(-3.27474e-05 2.52965e-05 0.108213)
(6.81723e-05 7.41944e-05 0.108381)
(-5.50483e-05 0.000104392 0.105129)
(9.00121e-05 -0.000127546 0.105353)
(-6.34594e-05 3.13113e-05 0.107916)
(0.000219916 -4.76683e-05 0.108716)
(0.000169941 1.75554e-05 0.108383)
(0.000131175 2.28517e-05 0.105252)
(-4.58683e-05 -0.00017714 0.104898)
(5.45037e-05 3.98598e-05 0.105631)
(-0.000214259 -0.000125236 0.108176)
(-0.000117246 -2.51257e-05 0.10817)
(0.00013874 -0.000107456 0.108916)
(-6.61022e-05 -2.94122e-05 0.10817)
(-0.000114112 2.57122e-05 0.104704)
(4.39262e-06 -8.23208e-05 0.104876)
(-2.23457e-05 -0.000387027 0.108239)
(6.01618e-05 -0.000299642 0.108537)
(-8.29146e-05 0.000106908 0.108948)
(-1.85138e-05 1.66154e-05 0.108082)
(8.02568e-05 -5.45031e-05 0.108539)
(-6.01176e-05 -7.10112e-05 0.108252)
(-4.22623e-05 -0.000190298 0.108504)
(0.000148671 -0.000224212 0.105043)
(-0.000158232 8.34856e-05 0.104771)
(0.000114806 -2.18555e-05 0.108588)
(-0.000148237 -6.78269e-05 0.108186)
(-0.000160236 -6.6952e-05 0.108517)
(-2.53915e-05 -3.41054e-05 0.10499)
(-3.5796e-05 0.000121914 0.108137)
(-5.33502e-05 2.73098e-05 0.104641)
(6.12103e-05 6.12115e-05 0.108853)
(-6.11654e-05 6.11404e-05 0.108853)
(6.12556e-05 -6.13022e-05 0.108853)
(-6.12858e-05 -6.12632e-05 0.108852)
(-1.60959e-06 3.49302e-06 0.0723383)
(6.06415e-05 -9.90228e-05 0.10783)
(6.23912e-06 -3.28567e-05 0.0960219)
(1.69337e-06 2.12137e-05 0.0940166)
(-1.49088e-06 1.9867e-05 0.0835903)
(1.85223e-06 4.42157e-05 0.0940766)
(-3.8364e-06 -3.60974e-08 0.0835667)
(-1.47797e-06 6.90932e-06 0.0721742)
(3.3285e-06 -1.87506e-06 0.0721777)
(2.12182e-05 1.76713e-06 0.0940164)
(1.9861e-05 -1.53513e-06 0.0835903)
(4.41818e-05 1.82214e-06 0.0940765)
(-4.75745e-08 -3.80088e-06 0.0835667)
(-6.0907e-05 6.08754e-05 0.108928)
(6.08784e-05 -6.09224e-05 0.108928)
(-6.08922e-05 -6.08332e-05 0.108928)
(5.96591e-05 5.96934e-05 0.109153)
(-5.96915e-05 5.96189e-05 0.109153)
(5.96623e-05 -5.97263e-05 0.109152)
(-5.98377e-05 -5.97777e-05 0.109152)
(-6.15285e-05 4.31611e-06 0.102462)
(-6.05326e-05 1.66517e-05 0.0957198)
(-0.000101051 1.87272e-05 0.108621)
(-9.68045e-05 5.95859e-05 0.108021)
(-0.000105217 4.68048e-06 0.102454)
(-2.90023e-05 4.27616e-06 0.0957154)
(-0.000100765 1.86142e-05 0.108686)
(6.81937e-06 -1.70901e-06 0.0721743)
(-1.83255e-06 3.35064e-06 0.072177)
(4.31449e-06 -6.13335e-05 0.102461)
(1.87165e-05 -0.000101107 0.10862)
(1.61804e-05 -6.07842e-05 0.0957211)
(5.96028e-05 -9.67647e-05 0.108021)
(4.67526e-06 -0.000105441 0.102454)
(1.85583e-05 -0.00010072 0.108686)
(4.61679e-06 -2.882e-05 0.0957136)
(-2.89977e-05 -1.24559e-05 0.0893993)
(-1.24764e-05 -2.89543e-05 0.0893983)
(7.14167e-06 7.27998e-06 0.1068)
(-1.83294e-05 -8.12992e-07 0.0893662)
(-8.49843e-07 -1.83322e-05 0.0893629)
(1.43348e-06 1.73695e-05 0.0937167)
(-1.01873e-06 1.81579e-05 0.0833678)
(1.63147e-06 3.94983e-05 0.0937662)
(-3.66389e-06 -1.06679e-06 0.0833518)
(-1.723e-06 6.6522e-06 0.0720236)
(3.47358e-06 -1.82342e-06 0.0720307)
(1.73999e-05 1.54249e-06 0.0937164)
(1.81293e-05 -1.03771e-06 0.0833678)
(3.95861e-05 1.63347e-06 0.0937661)
(-1.12049e-06 -3.60075e-06 0.0833518)
(-5.93609e-05 5.93092e-05 0.109226)
(5.93633e-05 -5.94255e-05 0.109226)
(-5.94266e-05 -5.93668e-05 0.109226)
(5.83186e-05 5.83736e-05 0.109444)
(-5.82901e-05 5.83488e-05 0.109443)
(5.83103e-05 -5.82622e-05 0.109443)
(-5.83558e-05 -5.82977e-05 0.109443)
(-5.491e-05 3.50868e-06 0.10219)
(-5.5925e-05 1.53651e-05 0.0954287)
(-9.98355e-05 1.80626e-05 0.108878)
(-9.43613e-05 5.86067e-05 0.108194)
(-9.78296e-05 3.69618e-06 0.102184)
(-2.5038e-05 3.40072e-06 0.0954289)
(-9.95322e-05 1.80446e-05 0.10894)
(6.5258e-06 -1.92998e-06 0.0720237)
(-1.88521e-06 3.30311e-06 0.07203)
(3.61551e-06 -5.48706e-05 0.102189)
(1.80844e-05 -9.99052e-05 0.108878)
(1.49907e-05 -5.61765e-05 0.09543)
(5.8677e-05 -9.4444e-05 0.108194)
(3.82126e-06 -9.79297e-05 0.102185)
(1.80421e-05 -9.96056e-05 0.10894)
(3.53243e-06 -2.50746e-05 0.0954271)
(-2.65606e-05 -1.19291e-05 0.0891472)
(-1.19543e-05 -2.65551e-05 0.0891462)
(9.43746e-06 9.56594e-06 0.106826)
(-1.60539e-05 -1.89758e-07 0.0891211)
(-1.27863e-07 -1.6087e-05 0.0891179)
(1.1415e-06 1.43399e-05 0.0934455)
(-8.77557e-07 1.69293e-05 0.0831672)
(1.2744e-06 3.60046e-05 0.0934857)
(-3.66399e-06 -1.74573e-06 0.0831573)
(-1.7664e-06 6.46641e-06 0.0718863)
(3.54899e-06 -1.80474e-06 0.0718969)
(1.44062e-05 1.14812e-06 0.0934454)
(1.69362e-05 -9.38667e-07 0.0831672)
(3.59924e-05 1.25931e-06 0.0934855)
(-1.71989e-06 -3.67915e-06 0.0831574)
(-5.78607e-05 5.79443e-05 0.109515)
(5.79675e-05 -5.79391e-05 0.109515)
(-5.79411e-05 -5.79175e-05 0.109515)
(5.67168e-05 5.67137e-05 0.109725)
(-5.67618e-05 5.68073e-05 0.109725)
(5.67843e-05 -5.672e-05 0.109725)
(-5.679e-05 -5.6818e-05 0.109725)
(-4.84679e-05 2.96615e-06 0.101919)
(-5.18342e-05 1.39973e-05 0.0951584)
(-9.86395e-05 1.7624e-05 0.109122)
(-9.18002e-05 5.76326e-05 0.108348)
(-9.02566e-05 3.2128e-06 0.101913)
(-2.16627e-05 2.44142e-06 0.0951629)
(-9.82766e-05 1.7592e-05 0.109181)
(6.3825e-06 -1.78788e-06 0.0718867)
(-2.06377e-06 2.90666e-06 0.0718964)
(2.99957e-06 -4.85403e-05 0.101917)
(1.7707e-05 -9.86629e-05 0.109122)
(1.36388e-05 -5.20747e-05 0.0951598)
(5.7453e-05 -9.18416e-05 0.108348)
(3.24155e-06 -9.03567e-05 0.101914)
(1.75712e-05 -9.84106e-05 0.109181)
(2.35728e-06 -2.19054e-05 0.0951609)
(-2.4332e-05 -1.11571e-05 0.0889179)
(-1.10396e-05 -2.43938e-05 0.088917)
(1.17796e-05 1.17854e-05 0.106825)
(-1.40458e-05 -2.96459e-08 0.0888985)
(2.86188e-08 -1.40227e-05 0.0888954)
(1.02205e-06 1.19699e-05 0.0932008)
(-7.2164e-07 1.61963e-05 0.0829855)
(1.06895e-06 3.30279e-05 0.0932324)
(-3.40118e-06 -2.25965e-06 0.0829816)
(-2.15948e-06 6.1888e-06 0.071762)
(3.66569e-06 -1.65457e-06 0.0717756)
(1.19858e-05 1.0531e-06 0.0932007)
(1.61965e-05 -8.10819e-07 0.0829856)
(3.3026e-05 9.80525e-07 0.0932322)
(-2.26172e-06 -3.38227e-06 0.0829817)
(-5.63584e-05 5.63978e-05 0.109794)
(5.65318e-05 -5.65084e-05 0.109794)
(-5.64755e-05 -5.64811e-05 0.109794)
(5.53294e-05 5.52329e-05 0.109998)
(-5.53063e-05 5.51145e-05 0.109997)
(5.51616e-05 -5.52273e-05 0.109997)
(-5.53552e-05 -5.53591e-05 0.109997)
(-4.2565e-05 2.23474e-06 0.101652)
(-4.8394e-05 1.27926e-05 0.0949083)
(-9.73399e-05 1.71232e-05 0.109353)
(-8.92088e-05 5.65313e-05 0.108483)
(-8.32254e-05 2.60462e-06 0.101646)
(-1.85474e-05 1.72938e-06 0.0949172)
(-9.69541e-05 1.70362e-05 0.109408)
(6.39077e-06 -1.69914e-06 0.0717621)
(-1.86008e-06 3.37274e-06 0.0717749)
(2.56166e-06 -4.26228e-05 0.10165)