/*--------------------------------*- C++ -*----------------------------------*\
| =========                 |                                                 |
| \\      /  F ield         | OpenFOAM: The Open Source CFD Toolbox           |
|  \\    /   O peration     | Version:  2312                                  |
|   \\  /    A nd           | Website:  www.openfoam.com                      |
|    \\/     M anipulation  |                                                 |
\*---------------------------------------------------------------------------*/
FoamFile
{
    version     2.0;
    format      ascii;
    arch        "LSB;label=32;scalar=64";
    class       volScalarField;
    location    "1000";
    object      k;
}
// * * * * * * * * * * * * * * * * * * * * * * * * * * * * * * * * * * * * * //

dimensions      [0 2 -2 0 0 0 0];

internalField   nonuniform List<scalar> 
42840
(
1.45936e-05
1.6241e-05
1.62413e-05
1.86734e-05
1.4315e-05
1.64636e-05
1.64641e-05
1.93704e-05
1.40822e-05
1.67731e-05
1.67737e-05
2.01608e-05
1.38948e-05
1.71666e-05
1.71674e-05
2.10325e-05
1.37525e-05
1.76405e-05
1.76416e-05
2.19738e-05
1.36553e-05
1.81909e-05
1.8192e-05
2.29689e-05
1.36031e-05
1.88131e-05
1.88145e-05
2.40037e-05
1.35966e-05
1.95023e-05
1.95038e-05
2.50653e-05
1.36343e-05
2.0253e-05
2.02547e-05
2.61448e-05
1.37181e-05
2.10597e-05
2.10617e-05
2.72105e-05
1.38479e-05
2.19159e-05
2.19182e-05
2.82973e-05
1.40237e-05
2.28152e-05
2.28177e-05
2.93423e-05
1.42458e-05
2.37512e-05
2.37538e-05
3.03914e-05
1.45141e-05
2.47174e-05
2.47205e-05
3.14056e-05
1.48287e-05
2.57081e-05
2.57115e-05
3.24188e-05
1.51892e-05
2.67169e-05
2.67205e-05
3.34022e-05
1.5595e-05
2.77376e-05
2.77412e-05
3.43638e-05
1.60454e-05
2.87646e-05
2.87683e-05
3.53023e-05
1.6539e-05
2.97929e-05
2.97965e-05
3.62202e-05
1.70744e-05
3.08184e-05
3.08224e-05
3.71079e-05
1.765e-05
3.18368e-05
3.18409e-05
3.7975e-05
1.82635e-05
3.28438e-05
3.28479e-05
3.88259e-05
1.89124e-05
3.3836e-05
3.384e-05
3.9639e-05
1.95937e-05
3.48102e-05
3.48141e-05
4.04314e-05
2.03044e-05
3.57635e-05
3.57674e-05
4.12007e-05
1.8687e-05
1.92184e-05
1.62415e-05
1.62414e-05
1.64002e-05
1.64002e-05
1.86859e-05
1.92167e-05
1.62412e-05
1.62415e-05
1.63998e-05
1.64004e-05
1.62413e-05
1.63996e-05
1.64002e-05
1.86859e-05
1.92187e-05
1.62417e-05
1.64002e-05
1.64009e-05
1.92408e-05
1.93859e-05
1.99913e-05
1.64644e-05
1.64644e-05
1.66886e-05
1.66886e-05
1.93849e-05
1.99894e-05
1.64639e-05
1.64646e-05
1.66881e-05
1.66889e-05
1.64643e-05
1.66876e-05
1.66889e-05
1.93854e-05
1.99905e-05
1.64649e-05
1.66884e-05
1.66895e-05
2.00157e-05
2.01788e-05
2.08476e-05
1.67743e-05
1.67742e-05
1.70618e-05
1.70617e-05
2.01778e-05
2.08444e-05
1.67737e-05
1.67745e-05
1.70611e-05
1.70621e-05
1.67744e-05
1.70605e-05
1.70622e-05
2.01787e-05
2.08451e-05
1.67749e-05
1.70615e-05
1.70628e-05
2.08741e-05
2.10532e-05
2.17734e-05
1.71682e-05
1.71679e-05
1.75164e-05
1.75161e-05
2.10515e-05
2.17696e-05
1.71674e-05
1.71684e-05
1.75154e-05
1.75168e-05
1.71684e-05
1.75146e-05
1.7517e-05
2.10533e-05
2.17715e-05
1.71689e-05
1.75159e-05
1.75175e-05
2.18033e-05
2.19951e-05
2.27543e-05
1.76425e-05
1.76421e-05
1.80484e-05
1.8048e-05
2.19936e-05
2.27529e-05
1.76414e-05
1.76428e-05
1.80471e-05
1.80489e-05
1.7643e-05
1.80463e-05
1.80492e-05
2.19958e-05
2.27545e-05
1.76434e-05
1.80478e-05
1.80496e-05
2.27878e-05
2.2991e-05
2.37806e-05
1.81932e-05
1.81927e-05
1.86535e-05
1.86531e-05
2.29898e-05
2.37786e-05
1.81919e-05
1.81937e-05
1.8652e-05
1.86542e-05
1.8194e-05
1.86511e-05
1.86546e-05
2.29916e-05
2.37795e-05
1.81941e-05
1.86527e-05
1.86547e-05
2.38142e-05
2.40276e-05
2.4834e-05
1.88158e-05
1.88153e-05
1.93268e-05
1.93264e-05
2.40257e-05
2.48331e-05
1.88142e-05
1.88165e-05
1.93251e-05
1.93276e-05
1.88169e-05
1.93241e-05
1.93282e-05
2.40271e-05
2.48344e-05
1.88168e-05
1.93258e-05
1.9328e-05
2.48701e-05
2.50897e-05
2.59052e-05
1.95053e-05
1.95047e-05
2.00631e-05
2.00625e-05
2.50883e-05
2.59044e-05
1.95035e-05
1.95061e-05
2.00611e-05
2.00639e-05
1.95068e-05
2.006e-05
2.00648e-05
2.50898e-05
2.59059e-05
1.95063e-05
2.00618e-05
2.00641e-05
2.59453e-05
2.61669e-05
2.69822e-05
2.02563e-05
2.02558e-05
2.08567e-05
2.08562e-05
2.61655e-05
2.69814e-05
2.02543e-05
2.02572e-05
2.08544e-05
2.08574e-05
2.02581e-05
2.08533e-05
2.08585e-05
2.61678e-05
2.6998e-05
2.02572e-05
2.08553e-05
2.08574e-05
2.70057e-05
2.72528e-05
2.80576e-05
2.10633e-05
2.10629e-05
2.17014e-05
2.17009e-05
2.7252e-05
2.80576e-05
2.1061e-05
2.10643e-05
2.16988e-05
2.17022e-05
2.10653e-05
2.16978e-05
2.17035e-05
2.72426e-05
2.80452e-05
2.1064e-05
2.16999e-05
2.17019e-05
2.80775e-05
2.83066e-05
2.9104e-05
2.19198e-05
2.19194e-05
2.25908e-05
2.25904e-05
2.83066e-05
2.91048e-05
2.19173e-05
2.1921e-05
2.25878e-05
2.25916e-05
2.19222e-05
2.25869e-05
2.25929e-05
2.83179e-05
2.90982e-05
2.19203e-05
2.25892e-05
2.25909e-05
2.91428e-05
2.93584e-05
3.01374e-05
2.28192e-05
2.28191e-05
2.35184e-05
2.35181e-05
2.93589e-05
3.01554e-05
2.28164e-05
2.28205e-05
2.35152e-05
2.35192e-05
2.28219e-05
2.35143e-05
2.35209e-05
2.93684e-05
3.01475e-05
2.28196e-05
2.35168e-05
2.35185e-05
3.01735e-05
3.04092e-05
3.11735e-05
2.37554e-05
2.37554e-05
2.4478e-05
2.44779e-05
3.0405e-05
3.11773e-05
2.37523e-05
2.37564e-05
2.44745e-05
2.44786e-05
2.37585e-05
2.44734e-05
2.44808e-05
3.03974e-05
3.11644e-05
2.37558e-05
2.44764e-05
2.4478e-05
3.12039e-05
3.14315e-05
3.21936e-05
2.47219e-05
2.47222e-05
2.54631e-05
2.54632e-05
3.1432e-05
3.21861e-05
2.47185e-05
2.47229e-05
2.54596e-05
2.54639e-05
2.47253e-05
2.54587e-05
2.54664e-05
3.14339e-05
3.21728e-05
2.47222e-05
2.5462e-05
2.54632e-05
3.22049e-05
3.24296e-05
3.31826e-05
2.57124e-05
2.57129e-05
2.64679e-05
2.6468e-05
3.24296e-05
3.31756e-05
2.57091e-05
2.57135e-05
2.6464e-05
2.64687e-05
2.57164e-05
2.64636e-05
2.64718e-05
3.24367e-05
3.31654e-05
2.57129e-05
2.64671e-05
2.64682e-05
3.32024e-05
3.3411e-05
3.41387e-05
2.67211e-05
2.67215e-05
2.74858e-05
2.74859e-05
3.34088e-05
3.41462e-05
2.67174e-05
2.67222e-05
2.74816e-05
2.74867e-05
2.67255e-05
2.74819e-05
2.74899e-05
3.34203e-05
3.41343e-05
2.67217e-05
2.74856e-05
2.74862e-05
3.41585e-05
3.43829e-05
3.50813e-05
2.77417e-05
2.77418e-05
2.85117e-05
2.85115e-05
3.43718e-05
3.5077e-05
2.77375e-05
2.77425e-05
2.85073e-05
2.85124e-05
2.7746e-05
2.85077e-05
2.85158e-05
3.43816e-05
3.5074e-05
2.7742e-05
2.85116e-05
2.85119e-05
3.5108e-05
3.53196e-05
3.59993e-05
2.87686e-05
2.87685e-05
2.95398e-05
2.95395e-05
3.53137e-05
3.60028e-05
2.87643e-05
2.87693e-05
2.95355e-05
2.95402e-05
2.87729e-05
2.9536e-05
2.95441e-05
3.53168e-05
3.60104e-05
2.87688e-05
2.95398e-05
2.954e-05
3.6023e-05
3.62287e-05
3.6893e-05
2.97967e-05
2.97966e-05
3.05662e-05
3.05658e-05
3.62292e-05
3.68972e-05
2.97924e-05
2.97972e-05
3.0562e-05
3.05669e-05
2.98012e-05
3.05626e-05
3.05708e-05
3.6224e-05
3.69073e-05
2.97968e-05
3.05667e-05
3.05666e-05
3.69247e-05
3.71244e-05
3.77698e-05
3.08222e-05
3.08217e-05
3.15867e-05
3.1586e-05
3.71237e-05
3.77648e-05
3.0818e-05
3.08229e-05
3.15826e-05
3.15876e-05
3.08268e-05
3.15832e-05
3.15915e-05
3.71185e-05
3.77807e-05
3.08225e-05
3.15874e-05
3.15873e-05
3.77951e-05
3.79845e-05
3.86162e-05
3.18405e-05
3.18397e-05
3.2597e-05
3.25957e-05
3.79896e-05
3.86195e-05
3.18364e-05
3.18413e-05
3.25929e-05
3.25977e-05
3.18453e-05
3.25933e-05
3.26018e-05
3.79821e-05
3.86165e-05
3.18408e-05
3.25977e-05
3.25975e-05
3.86451e-05
3.88374e-05
3.94411e-05
3.28477e-05
3.28461e-05
3.35931e-05
3.35916e-05
3.88235e-05
3.94423e-05
3.28436e-05
3.28481e-05
3.3589e-05
3.35938e-05
3.28524e-05
3.35896e-05
3.35979e-05
3.88252e-05
3.94507e-05
3.28478e-05
3.35938e-05
3.35934e-05
3.94653e-05
3.9649e-05
4.02435e-05
3.38396e-05
3.3838e-05
3.45717e-05
3.45701e-05
3.96493e-05
4.02453e-05
3.38356e-05
3.384e-05
3.45678e-05
3.45723e-05
3.38444e-05
3.45685e-05
3.45766e-05
3.96434e-05
4.02524e-05
3.38397e-05
3.45726e-05
3.45721e-05
4.02669e-05
4.04402e-05
4.10174e-05
3.48134e-05
3.48116e-05
3.55303e-05
3.55282e-05
4.04434e-05
4.10183e-05
3.48095e-05
3.48139e-05
3.55264e-05
3.55307e-05
3.48182e-05
3.55271e-05
3.55351e-05
4.04407e-05
4.10236e-05
3.48135e-05
3.55314e-05
3.55306e-05
4.10447e-05
4.12164e-05
3.57667e-05
3.57644e-05
4.12126e-05
3.57628e-05
3.57668e-05
3.57713e-05
4.1209e-05
3.57667e-05
5.4845e-05
7.01e-05
7.01256e-05
5.43662e-05
6.95612e-05
6.9543e-05
5.48461e-05
7.01015e-05
7.0127e-05
5.43655e-05
1.45936e-05
1.45935e-05
1.45935e-05
1.43803e-05
1.43803e-05
1.43802e-05
1.43803e-05
3.10592e-05
4.64266e-05
1.4709e-05
1.62882e-05
4.68084e-05
1.46749e-05
3.04941e-05
6.95612e-05
6.9543e-05
3.10573e-05
1.47091e-05
4.64264e-05
1.62888e-05
1.46751e-05
4.68126e-05
3.05013e-05
5.97059e-05
5.97158e-05
1.88911e-05
5.99071e-05
5.9917e-05
5.59472e-05
7.01519e-05
5.55434e-05
7.01746e-05
6.94941e-05
6.94778e-05
5.59475e-05
7.01533e-05
5.55422e-05
7.0176e-05
1.4315e-05
1.43149e-05
1.4315e-05
1.41361e-05
1.41361e-05
1.41361e-05
1.41362e-05
3.27298e-05
4.75434e-05
1.46024e-05
1.65328e-05
3.21792e-05
4.78936e-05
1.45853e-05
6.94939e-05
6.94776e-05
3.27296e-05
1.46026e-05
4.75456e-05
1.65336e-05
3.2187e-05
1.45855e-05
4.78956e-05
6.0289e-05
6.02979e-05
1.96199e-05
6.04686e-05
6.0478e-05
5.68646e-05
7.0197e-05
5.65225e-05
7.02172e-05
6.94329e-05
6.94185e-05
5.68647e-05
7.01983e-05
5.6521e-05
7.02185e-05
1.40822e-05
1.40822e-05
1.40823e-05
1.39374e-05
1.39375e-05
1.39375e-05
1.39377e-05
3.43377e-05
4.85664e-05
1.4565e-05
1.68636e-05
3.38133e-05
4.88864e-05
1.45668e-05
6.94326e-05
6.94182e-05
3.43393e-05
1.45653e-05
4.85664e-05
1.68645e-05
3.38186e-05
1.4567e-05
4.88892e-05
6.08106e-05
6.08193e-05
2.04385e-05
6.0972e-05
6.09806e-05
5.76337e-05
7.02363e-05
5.73403e-05
7.0254e-05
6.93774e-05
6.93649e-05
5.76337e-05
7.02377e-05
5.73391e-05
7.02553e-05
1.38947e-05
1.38948e-05
1.3895e-05
1.3784e-05
1.3784e-05
1.37841e-05
1.37844e-05
3.58601e-05
4.95008e-05
1.45957e-05
1.72775e-05
3.53687e-05
4.9796e-05
1.46142e-05
6.93771e-05
6.93646e-05
3.58634e-05
1.45962e-05
4.95031e-05
1.72787e-05
3.53727e-05
1.46147e-05
4.97973e-05
6.12802e-05
6.12887e-05
2.13342e-05
6.14257e-05
6.14351e-05
5.82862e-05
7.02706e-05
5.80314e-05
7.02862e-05
6.93274e-05
6.93168e-05
5.82861e-05
7.02722e-05
5.80304e-05
7.02874e-05
1.37525e-05
1.37527e-05
1.3753e-05
1.36756e-05
1.36755e-05
1.36758e-05
1.36761e-05
3.72893e-05
5.03591e-05
1.46956e-05
1.7771e-05
3.68277e-05
5.06283e-05
1.47312e-05
6.93272e-05
6.93166e-05
3.72906e-05
1.46964e-05
5.03599e-05
1.77724e-05
3.68331e-05
1.47319e-05
5.06301e-05
6.17049e-05
6.17135e-05
2.2293e-05
6.18375e-05
6.18464e-05
5.88482e-05
7.03014e-05
5.86247e-05
7.03156e-05
6.92828e-05
6.92741e-05
5.88476e-05
7.0303e-05
5.8624e-05
7.03167e-05
1.36552e-05
1.36555e-05
1.36559e-05
1.36122e-05
1.36121e-05
1.36124e-05
1.36129e-05
3.86181e-05
5.11461e-05
1.48636e-05
1.83399e-05
3.81898e-05
5.13933e-05
1.49162e-05
6.92826e-05
6.92739e-05
3.86191e-05
1.48647e-05
5.1148e-05
1.83414e-05
3.8194e-05
1.49172e-05
5.13968e-05
6.20922e-05
6.21008e-05
2.33008e-05
6.22138e-05
6.22226e-05
5.93397e-05
7.03302e-05
5.91428e-05
7.03437e-05
6.92435e-05
6.92368e-05
5.93395e-05
7.03319e-05
5.91422e-05
7.03448e-05
1.3603e-05
1.36034e-05
1.36038e-05
1.35944e-05
1.35943e-05
1.35947e-05
1.35953e-05
3.9848e-05
5.18716e-05
1.50992e-05
1.89794e-05
3.94527e-05
5.21024e-05
1.51685e-05
6.92435e-05
6.92367e-05
3.98489e-05
1.51007e-05
5.18748e-05
1.89811e-05
3.94547e-05
1.51698e-05
5.2104e-05
6.2448e-05
6.24567e-05
2.43435e-05
6.25603e-05
6.25692e-05
5.97787e-05
7.03584e-05
5.96022e-05
7.03718e-05
6.92099e-05
6.92053e-05
5.97784e-05
7.03601e-05
5.96011e-05
7.03726e-05
1.35965e-05
1.35969e-05
1.35975e-05
1.36206e-05
1.36205e-05
1.3621e-05
1.36216e-05
4.09848e-05
5.2544e-05
1.54011e-05
1.96845e-05
4.06198e-05
5.27579e-05
1.54868e-05
6.921e-05
6.92053e-05
4.09886e-05
1.54029e-05
5.25474e-05
1.96863e-05
4.06194e-05
1.54885e-05
5.27602e-05
6.27777e-05
6.27865e-05
2.54097e-05
6.28826e-05
6.28915e-05
6.01762e-05
7.03868e-05
6.0015e-05
7.04008e-05
6.91822e-05
6.91796e-05
6.01759e-05
7.03888e-05
6.00147e-05
7.04013e-05
1.36342e-05
1.36348e-05
1.36355e-05
1.3693e-05
1.36929e-05
1.36935e-05
1.36942e-05
4.20422e-05
5.31702e-05
1.5768e-05
2.04498e-05
4.1695e-05
5.33697e-05
1.58698e-05
6.91823e-05
6.91797e-05
4.20458e-05
1.57702e-05
5.31738e-05
2.04517e-05
4.16942e-05
1.58716e-05
5.33721e-05
6.30866e-05
6.3095e-05
2.64786e-05
6.3185e-05
6.31938e-05
6.05404e-05
7.04165e-05
6.03927e-05
7.04316e-05
6.91603e-05
6.91599e-05
6.054e-05
7.04187e-05
6.03917e-05
7.04317e-05
1.3718e-05
1.37187e-05
1.37195e-05
1.38113e-05
1.38111e-05
1.38119e-05
1.38126e-05
4.30233e-05
5.3756e-05
1.61981e-05
2.12696e-05
4.26921e-05
5.39433e-05
1.63154e-05
6.91606e-05
6.91602e-05
4.30273e-05
1.62005e-05
5.37601e-05
2.12717e-05
4.26918e-05
1.63174e-05
5.39467e-05
6.33777e-05
6.33863e-05
2.75442e-05
6.34711e-05
6.34798e-05
6.08775e-05
7.04483e-05
6.0741e-05
7.0465e-05
6.91445e-05
6.91463e-05
6.08773e-05
7.04509e-05
6.07392e-05
7.04648e-05
1.38477e-05
1.38486e-05
1.38494e-05
1.39756e-05
1.39754e-05
1.39763e-05
1.39771e-05
4.39379e-05
5.4307e-05
1.66893e-05
2.21371e-05
4.36204e-05
5.44844e-05
1.68215e-05
6.91449e-05
6.91467e-05
4.39419e-05
1.66918e-05
5.4311e-05
2.21394e-05
4.36205e-05
1.68235e-05
5.44872e-05
6.36542e-05
6.3663e-05
2.86059e-05
6.37436e-05
6.37524e-05
6.11932e-05
7.04834e-05
6.1065e-05
7.05012e-05
6.91348e-05
6.91388e-05
6.11931e-05
7.04859e-05
6.10632e-05
7.05011e-05
1.40236e-05
1.40245e-05
1.40255e-05
1.41861e-05
1.41859e-05
1.41869e-05
1.41878e-05
4.4795e-05
5.48301e-05
1.72388e-05
2.30463e-05
4.4489e-05
5.49975e-05
1.73852e-05
6.91352e-05
6.91392e-05
4.47991e-05
1.72416e-05
5.4832e-05
2.30486e-05
4.44892e-05
1.73873e-05
5.49994e-05
6.3919e-05
6.39278e-05
2.96651e-05
6.40048e-05
6.40137e-05
6.14922e-05
7.05217e-05
6.13706e-05
7.0541e-05
6.91311e-05
6.91373e-05
6.1492e-05
7.05243e-05
6.13685e-05
7.05409e-05
1.42457e-05
1.42467e-05
1.42478e-05
1.44429e-05
1.44427e-05
1.44439e-05
1.44449e-05
4.56026e-05
5.53259e-05
1.78439e-05
2.39902e-05
4.53064e-05
5.54852e-05
1.80038e-05
6.91315e-05
6.91376e-05
4.56071e-05
1.78469e-05
5.53264e-05
2.3993e-05
4.5307e-05
1.80061e-05
5.54901e-05
6.41739e-05
6.41827e-05
3.06957e-05
6.42567e-05
6.42657e-05
6.17784e-05
7.05638e-05
6.1661e-05
7.05848e-05
6.91334e-05
6.91416e-05
6.17779e-05
7.05664e-05
6.16591e-05
7.05847e-05
1.45141e-05
1.45153e-05
1.45164e-05
1.47459e-05
1.47458e-05
1.47471e-05
1.47482e-05
4.63682e-05
5.57977e-05
1.85013e-05
2.49632e-05
4.60801e-05
5.59513e-05
1.86737e-05
6.91337e-05
6.91419e-05
4.63728e-05
1.85048e-05
5.57964e-05
2.49663e-05
4.60814e-05
1.86766e-05
5.59585e-05
6.44203e-05
6.44283e-05
3.17153e-05
6.45006e-05
6.45103e-05
6.20545e-05
7.06101e-05
6.1941e-05
7.06326e-05
6.91414e-05
6.91516e-05
6.20541e-05
7.06126e-05
6.19382e-05
7.06325e-05
1.48287e-05
1.483e-05
1.48313e-05
1.50949e-05
1.50949e-05
1.50964e-05
1.50976e-05
4.70974e-05
5.62478e-05
1.92077e-05
2.5959e-05
4.68165e-05
5.63987e-05
1.9392e-05
6.91417e-05
6.91518e-05
4.71019e-05
1.92117e-05
5.62474e-05
2.59624e-05
4.68184e-05
1.93953e-05
5.64054e-05
6.4659e-05
6.46665e-05
3.27027e-05
6.47376e-05
6.47474e-05
6.23233e-05
7.06604e-05
6.22124e-05
7.06847e-05
6.91549e-05
6.91671e-05
6.23229e-05
7.0663e-05
6.22097e-05
7.06846e-05
1.51893e-05
1.51907e-05
1.51922e-05
1.54894e-05
1.54895e-05
1.54912e-05
1.54925e-05
4.77951e-05
5.66798e-05
1.99597e-05
2.69714e-05
4.75208e-05
5.68274e-05
2.01548e-05
6.91551e-05
6.91672e-05
4.77994e-05
1.99642e-05
5.66788e-05
2.69751e-05
4.7523e-05
2.01585e-05
5.68339e-05
6.48908e-05
6.48982e-05
3.36912e-05
6.49684e-05
6.49779e-05
6.25863e-05
7.0715e-05
6.24789e-05
7.07408e-05
6.91737e-05
6.91878e-05
6.25865e-05
7.07175e-05
6.24758e-05
7.07407e-05
1.55952e-05
1.55968e-05
1.55983e-05
1.59287e-05
1.59289e-05
1.59307e-05
1.59321e-05
4.84653e-05
5.70946e-05
2.07534e-05
2.79941e-05
4.81972e-05
5.72392e-05
2.09583e-05
6.91738e-05
6.91878e-05
4.84693e-05
2.07582e-05
5.70938e-05
2.79979e-05
4.81997e-05
2.09623e-05
5.72457e-05
6.51167e-05
6.5124e-05
3.46344e-05
6.51931e-05
6.52025e-05
6.28462e-05
7.07735e-05
6.27401e-05
7.0801e-05
6.91975e-05
6.92135e-05
6.28469e-05
7.07761e-05
6.27377e-05
7.0801e-05
1.60456e-05
1.60473e-05
1.60489e-05
1.64116e-05
1.64119e-05
1.64138e-05
1.64154e-05
4.91108e-05
5.74936e-05
2.15845e-05
2.90219e-05
4.88494e-05
5.76352e-05
2.17981e-05
6.91976e-05
6.92133e-05
4.91143e-05
2.15896e-05
5.74926e-05
2.90257e-05
4.8852e-05
2.18024e-05
5.76415e-05
6.5337e-05
6.53443e-05
3.55683e-05
6.54123e-05
6.54216e-05
6.31038e-05
7.0836e-05
6.29986e-05
7.0865e-05
6.9226e-05
6.92437e-05
6.31049e-05
7.08387e-05
6.29965e-05
7.08651e-05
1.65392e-05
1.65411e-05
1.65428e-05
1.69367e-05
1.69371e-05
1.69391e-05
1.69409e-05
4.97342e-05
5.78781e-05
2.24486e-05
3.00498e-05
4.94799e-05
5.80164e-05
2.26699e-05
6.92261e-05
6.92435e-05
4.97363e-05
2.2454e-05
5.78772e-05
3.00536e-05
4.94832e-05
2.26745e-05
5.80229e-05
6.55523e-05
6.55595e-05
3.64752e-05
6.56263e-05
6.56354e-05
6.33596e-05
7.09024e-05
6.3254e-05
7.09329e-05
6.92591e-05
6.92783e-05
6.33611e-05
7.0905e-05
6.32524e-05
7.09334e-05
1.70747e-05
1.70769e-05
1.70787e-05
1.75024e-05
1.75027e-05
1.75051e-05
1.7507e-05
5.03369e-05
5.82491e-05
2.33415e-05
3.10739e-05
5.00904e-05
5.83845e-05
2.35693e-05
6.92592e-05
6.92782e-05
5.03381e-05
2.3347e-05
5.8248e-05
3.10781e-05
5.00939e-05
2.35739e-05
5.83905e-05
6.57625e-05
6.57699e-05
3.73608e-05
6.58352e-05
6.58441e-05
6.3613e-05
7.09724e-05
6.35089e-05
7.10042e-05
6.92961e-05
6.93167e-05
6.36147e-05
7.09735e-05
6.35075e-05
7.10054e-05
1.76502e-05
1.76527e-05
1.76546e-05
1.81066e-05
1.81069e-05
1.81096e-05
1.81115e-05
5.09198e-05
5.86075e-05
2.42588e-05
3.20897e-05
5.0681e-05
5.87397e-05
2.44922e-05
6.92965e-05
6.93169e-05
5.09209e-05
2.42644e-05
5.86063e-05
3.2094e-05
5.06842e-05
2.44969e-05
5.87454e-05
6.59678e-05
6.59754e-05
3.82275e-05
6.60391e-05
6.60479e-05
6.38642e-05
7.10455e-05
6.37615e-05
7.10786e-05
6.9337e-05
6.93589e-05
6.3866e-05
7.10467e-05
6.37596e-05
7.10798e-05
1.82636e-05
1.82664e-05
1.82684e-05
1.87469e-05
1.87471e-05
1.87501e-05
1.87521e-05
5.14835e-05
5.89532e-05
2.51975e-05
3.30934e-05
5.12526e-05
5.90825e-05
2.54355e-05
6.93377e-05
6.93593e-05
5.14842e-05
2.52031e-05
5.8952e-05
3.30977e-05
5.12558e-05
2.54404e-05
5.90875e-05
6.61684e-05
6.6176e-05
3.90558e-05
6.62381e-05
6.62469e-05
6.4113e-05
7.11216e-05
6.40101e-05
7.11557e-05
6.93814e-05
6.94046e-05
6.41143e-05
7.11227e-05
6.40092e-05
7.1157e-05
1.89124e-05
1.89155e-05
1.89176e-05
1.94205e-05
1.94206e-05
1.94238e-05
1.94259e-05
5.20278e-05
5.92871e-05
2.61539e-05
3.40813e-05
5.18051e-05
5.94129e-05
2.63957e-05
6.93822e-05
6.94053e-05
5.20282e-05
2.61595e-05
5.92858e-05
3.40855e-05
5.18075e-05
2.64005e-05
5.94177e-05
6.63643e-05
6.63718e-05
3.98679e-05
6.64322e-05
6.6441e-05
6.43564e-05
7.12002e-05
6.42572e-05
7.12352e-05
6.94291e-05
6.94535e-05
6.43588e-05
7.12014e-05
6.42558e-05
7.12367e-05
1.95938e-05
1.9597e-05
1.95992e-05
2.01241e-05
2.01242e-05
2.01275e-05
2.01298e-05
5.2552e-05
5.96093e-05
2.71235e-05
3.50504e-05
5.23377e-05
5.97318e-05
2.73678e-05
6.94301e-05
6.94545e-05
5.25517e-05
2.71289e-05
5.96081e-05
3.50547e-05
5.23401e-05
2.73724e-05
5.97365e-05
6.65556e-05
6.65629e-05
4.06643e-05
6.66214e-05
6.66305e-05
6.45965e-05
7.1281e-05
6.44987e-05
7.13168e-05
6.94799e-05
6.95055e-05
6.45985e-05
7.12824e-05
6.44972e-05
7.13179e-05
2.03043e-05
2.03077e-05
2.031e-05
5.30556e-05
5.992e-05
2.81008e-05
3.59982e-05
5.28499e-05
6.00392e-05
2.83462e-05
6.94811e-05
6.95066e-05
5.30557e-05
2.81062e-05
5.99193e-05
3.60024e-05
5.28516e-05
2.83508e-05
6.00435e-05
6.67418e-05
6.67492e-05
4.14229e-05
6.68056e-05
6.68149e-05
6.95593e-05
6.95411e-05
6.95617e-05
6.95435e-05
5.97097e-05
5.97204e-05
1.88692e-05
5.99106e-05
5.99206e-05
6.95077e-05
6.9525e-05
6.95101e-05
6.95274e-05
1.90254e-05
6.0199e-05
6.02086e-05
6.00093e-05
6.00198e-05
5.48446e-05
7.0097e-05
7.01226e-05
5.43655e-05
3.10568e-05
4.64255e-05
1.47093e-05
1.62887e-05
4.68122e-05
1.46753e-05
3.05002e-05
3.10575e-05
4.64283e-05
1.4709e-05
1.62888e-05
4.68118e-05
1.4675e-05
3.04995e-05
5.49817e-05
7.0151e-05
7.0127e-05
5.54216e-05
5.49809e-05
7.01479e-05
7.0124e-05
5.54208e-05
3.13487e-05
1.63419e-05
4.73653e-05
1.46218e-05
4.69968e-05
1.46474e-05
3.18988e-05
3.13463e-05
1.63419e-05
4.73664e-05
1.46216e-05
4.70012e-05
1.46472e-05
3.18977e-05
5.97149e-05
5.97102e-05
1.88678e-05
5.99155e-05
5.99091e-05
6.95594e-05
6.95413e-05
6.95097e-05
6.95269e-05
1.90247e-05
6.02043e-05
6.01988e-05
6.00148e-05
6.00092e-05
6.9508e-05
6.9525e-05
3.10597e-05
4.64321e-05
1.47092e-05
1.62884e-05
4.68104e-05
1.46752e-05
3.04964e-05
5.4845e-05
7.0097e-05
7.01226e-05
5.43642e-05
3.10616e-05
1.47088e-05
4.64335e-05
1.62889e-05
1.46747e-05
4.68096e-05
3.04952e-05
5.49808e-05
7.01524e-05
7.01284e-05
5.54224e-05
3.13451e-05
1.63415e-05
4.73658e-05
1.46218e-05
4.70045e-05
1.46473e-05
3.19017e-05
5.49798e-05
7.01479e-05
7.01239e-05
5.54213e-05
3.13431e-05
1.6342e-05
1.46213e-05
4.73649e-05
1.46468e-05
4.70038e-05
3.19017e-05
5.48361e-05
7.00989e-05
7.01246e-05
5.43698e-05
3.10573e-05
1.47092e-05
4.64276e-05
1.62887e-05
1.46752e-05
4.68108e-05
3.04955e-05
5.4841e-05
7.00959e-05
7.01215e-05
5.43671e-05
3.13414e-05
1.63413e-05
4.73634e-05
1.46215e-05
4.69976e-05
1.46471e-05
3.19018e-05
5.49848e-05
7.01498e-05
7.01258e-05
5.54127e-05
3.13447e-05
1.63417e-05
1.46218e-05
4.7365e-05
1.46474e-05
4.69969e-05
3.19001e-05
5.49827e-05
7.01469e-05
7.01229e-05
5.54176e-05
5.97157e-05
5.971e-05
1.88703e-05
5.99158e-05
5.99112e-05
6.95598e-05
6.95417e-05
6.95096e-05
6.95268e-05
1.90245e-05
6.02041e-05
6.0199e-05
6.00153e-05
6.00104e-05
6.95084e-05
6.95256e-05
3.10581e-05
1.47095e-05
4.6433e-05
1.62893e-05
1.46755e-05
4.68103e-05
3.05003e-05
5.48396e-05
7.01001e-05
7.01257e-05
5.43726e-05
5.48385e-05
7.00979e-05
7.01233e-05
5.43715e-05
3.13489e-05
1.63417e-05
1.46217e-05
4.73645e-05
1.46472e-05
4.69975e-05
3.18986e-05
3.1348e-05
1.63423e-05
1.46222e-05
4.73649e-05
1.46477e-05
4.70049e-05
3.18998e-05
5.49873e-05
7.01509e-05
7.0127e-05
5.54158e-05
5.49864e-05
7.01485e-05
7.01247e-05
5.54149e-05
6.95593e-05
6.95411e-05
6.95614e-05
6.95433e-05
1.90123e-05
6.01961e-05
6.02055e-05
6.00054e-05
6.00155e-05
6.95077e-05
6.95249e-05
6.95098e-05
6.9527e-05
6.94921e-05
6.94758e-05
6.94945e-05
6.94782e-05
6.02926e-05
6.03027e-05
1.9594e-05
6.04724e-05
6.04815e-05
6.94454e-05
6.94607e-05
6.94477e-05
6.9463e-05
1.97723e-05
6.07307e-05
6.07408e-05
6.05607e-05
6.05705e-05
5.59463e-05
7.0149e-05
5.55423e-05
7.01717e-05
3.27286e-05
4.7545e-05
1.46027e-05
1.65336e-05
3.21864e-05
4.78962e-05
1.45857e-05
3.27269e-05
4.75481e-05
1.46025e-05
1.65337e-05
3.21853e-05
4.7897e-05
1.45855e-05
5.6055e-05
7.01968e-05
7.01754e-05
5.64267e-05
5.60541e-05
7.01937e-05
7.01726e-05
5.64256e-05
3.30107e-05
1.66086e-05
4.84045e-05
1.45669e-05
4.80676e-05
1.45754e-05
3.35424e-05
3.30099e-05
1.66086e-05
4.84058e-05
1.45667e-05
4.80707e-05
1.45752e-05
3.35413e-05
6.0298e-05
6.02919e-05
1.95921e-05
6.0477e-05
6.04707e-05
6.94921e-05
6.9476e-05
6.94475e-05
6.94627e-05
1.97713e-05
6.0736e-05
6.073e-05
6.05657e-05
6.05598e-05
6.94456e-05
6.94607e-05
3.273e-05
4.75515e-05
1.46026e-05
1.65332e-05
3.2183e-05
4.78969e-05
1.45856e-05
5.59466e-05
7.01489e-05
5.5541e-05
7.01717e-05
3.27315e-05
1.46022e-05
4.75495e-05
1.65339e-05
3.2182e-05
1.45852e-05
4.78951e-05
5.60537e-05
7.0198e-05
7.01768e-05
5.6427e-05
3.30082e-05
1.66081e-05
4.84045e-05
1.45668e-05
4.80737e-05
1.45753e-05
3.3544e-05
5.60529e-05
7.01937e-05
7.01724e-05
5.64261e-05
3.30063e-05
1.66089e-05
1.45664e-05
4.84028e-05
1.45749e-05
4.80728e-05
3.35446e-05
5.59383e-05
7.01508e-05
5.55457e-05
7.01737e-05
3.27311e-05
1.46027e-05
4.75438e-05
1.65338e-05
3.21826e-05
1.45857e-05
4.78952e-05
5.59431e-05
7.0148e-05
5.5544e-05
7.01708e-05
3.30046e-05
1.66076e-05
4.84006e-05
1.45665e-05
4.80669e-05
1.4575e-05
3.3543e-05
5.60571e-05
7.01954e-05
7.01743e-05
5.64179e-05
3.30058e-05
1.66086e-05
1.45669e-05
4.84019e-05
1.45754e-05
4.80662e-05
3.35435e-05
5.60556e-05
7.01927e-05
7.01715e-05
5.64225e-05
6.02976e-05
6.02934e-05
1.95938e-05
6.04772e-05
6.04726e-05
6.94927e-05
6.94765e-05
6.94472e-05
6.94625e-05
1.97714e-05
6.07354e-05
6.07309e-05
6.05662e-05
6.05624e-05
6.9446e-05
6.94614e-05
3.273e-05
1.46031e-05
4.7551e-05
1.65345e-05
3.21861e-05
1.45861e-05
4.78964e-05
5.5941e-05
7.0152e-05
5.5548e-05
7.01747e-05
5.59402e-05
7.01496e-05
5.55472e-05
7.01723e-05
3.30108e-05
1.66082e-05
1.45668e-05
4.84037e-05
1.45753e-05
4.80677e-05
3.35425e-05
3.30104e-05
1.66092e-05
1.45675e-05
4.84038e-05
1.45759e-05
4.80732e-05
3.35432e-05
5.60591e-05
7.01965e-05
7.01754e-05
5.64204e-05
5.60584e-05
7.01941e-05
7.01731e-05
5.64196e-05
6.9492e-05
6.94757e-05
6.94941e-05
6.94778e-05
1.97578e-05
6.07274e-05
6.07377e-05
6.05569e-05
6.05672e-05
6.94453e-05
6.94606e-05
6.94474e-05
6.94627e-05
6.94308e-05
6.94164e-05
6.94331e-05
6.94187e-05
6.08147e-05
6.08245e-05
2.04101e-05
6.09761e-05
6.09856e-05
6.9389e-05
6.94024e-05
6.93912e-05
6.94046e-05
2.06076e-05
6.1209e-05
6.12174e-05
6.10558e-05
6.10655e-05
5.68636e-05
7.01943e-05
5.65211e-05
7.02145e-05
3.43378e-05
4.8567e-05
1.45654e-05
1.68649e-05
3.38182e-05
4.88893e-05
1.45671e-05
3.43371e-05
4.8569e-05
1.45652e-05
1.68648e-05
3.38171e-05
4.88903e-05
1.45669e-05
5.69491e-05
7.02361e-05
7.02175e-05
5.72655e-05
5.69479e-05
7.02326e-05
7.02147e-05
5.72645e-05
3.4606e-05
1.6961e-05
4.93532e-05
1.45818e-05
4.90457e-05
1.4572e-05
3.5111e-05
3.46044e-05
1.69607e-05
4.93538e-05
1.45815e-05
4.90476e-05
1.45717e-05
3.51103e-05
6.08195e-05
6.08127e-05
2.04068e-05
6.09809e-05
6.09743e-05
6.94308e-05
6.94167e-05
6.9391e-05
6.94045e-05
2.0606e-05
6.12134e-05
6.12053e-05
6.10608e-05
6.10532e-05
6.93891e-05
6.94023e-05
3.43385e-05
4.85729e-05
1.45653e-05
1.68642e-05
3.38158e-05
4.88898e-05
1.4567e-05
5.68638e-05
7.01941e-05
5.65199e-05
7.02144e-05
3.43393e-05
1.45649e-05
4.85716e-05
1.68651e-05
3.38145e-05
1.45667e-05
4.88879e-05
5.69476e-05
7.02374e-05
7.02188e-05
5.72658e-05
3.46038e-05
1.69602e-05
4.93539e-05
1.45816e-05
4.90508e-05
1.45718e-05
3.51125e-05
5.69468e-05
7.02326e-05
7.02145e-05
5.72648e-05
3.46023e-05
1.69612e-05
1.45813e-05
4.9352e-05
1.45715e-05
4.90495e-05
3.51123e-05
5.68558e-05
7.0196e-05
5.65242e-05
7.02164e-05
3.43377e-05
1.45655e-05
4.85663e-05
1.68652e-05
3.38144e-05
1.45672e-05
4.88882e-05
5.68607e-05
7.01932e-05
5.65224e-05
7.02135e-05
3.46008e-05
1.69595e-05
4.93514e-05
1.45814e-05
4.90446e-05
1.45715e-05
3.51085e-05
5.69504e-05
7.02347e-05
7.02165e-05
5.72568e-05
3.46027e-05
1.69611e-05
1.45818e-05
4.93515e-05
1.4572e-05
4.90437e-05
3.51122e-05
5.6949e-05
7.02323e-05
7.02137e-05
5.72618e-05
6.08198e-05
6.08154e-05
2.04089e-05
6.09805e-05
6.09757e-05
6.94314e-05
6.9417e-05
6.93907e-05
6.94041e-05
2.06074e-05
6.12133e-05
6.12089e-05
6.106e-05
6.10561e-05
6.93895e-05
6.9403e-05
3.43375e-05
1.45661e-05
4.85728e-05
1.68659e-05
3.38185e-05
1.45678e-05
4.88889e-05
5.68582e-05
7.0197e-05
5.65255e-05
7.02172e-05
5.68575e-05
7.01947e-05
5.65248e-05
7.02148e-05
3.46063e-05
1.69602e-05
1.45818e-05
4.93528e-05
1.45719e-05
4.9045e-05
3.51105e-05
3.46061e-05
1.69617e-05
1.45826e-05
4.93537e-05
1.45727e-05
4.90511e-05
3.51115e-05
5.69516e-05
7.02359e-05
7.02175e-05
5.72591e-05
5.69509e-05
7.02336e-05
7.02151e-05
5.72585e-05
6.94307e-05
6.94162e-05
6.94327e-05
6.94182e-05
2.05911e-05
6.12052e-05
6.12134e-05
6.10517e-05
6.10612e-05
6.93888e-05
6.94022e-05
6.93907e-05
6.94042e-05
6.93754e-05
6.93629e-05
6.93776e-05
6.93651e-05
6.12845e-05
6.12937e-05
2.13018e-05
6.14303e-05
6.14389e-05
6.93382e-05
6.93498e-05
6.93404e-05
6.93519e-05
2.15173e-05
6.16409e-05
6.16496e-05
6.15018e-05
6.15113e-05
5.76326e-05
7.02333e-05
5.73389e-05
7.02513e-05
3.58629e-05
4.95039e-05
1.45963e-05
1.72792e-05
3.53727e-05
4.9797e-05
1.46146e-05
3.5861e-05
4.95056e-05
1.4596e-05
1.7279e-05
3.5371e-05
4.97984e-05
1.46143e-05
5.76996e-05
7.02704e-05
7.02541e-05
5.79728e-05
5.76984e-05
7.02676e-05
7.02514e-05
5.79716e-05
3.61144e-05
1.73956e-05
5.02221e-05
1.46646e-05
4.99418e-05
1.46378e-05
3.65891e-05
3.61136e-05
1.73952e-05
5.02244e-05
1.46642e-05
4.99437e-05
1.46374e-05
3.65876e-05
6.12891e-05
6.12819e-05
2.12984e-05
6.14342e-05
6.14261e-05
6.93751e-05
6.93629e-05
6.93402e-05
6.93517e-05
2.15154e-05
6.16448e-05
6.16366e-05
6.1506e-05
6.14992e-05
6.9338e-05
6.93493e-05
3.58641e-05
4.95082e-05
1.45961e-05
1.72783e-05
3.53701e-05
4.97985e-05
1.46144e-05
5.76327e-05
7.02331e-05
5.73379e-05
7.02513e-05
3.58622e-05
1.45958e-05
4.95067e-05
1.72795e-05
3.53688e-05
1.46141e-05
4.97965e-05
5.76984e-05
7.02716e-05
7.02555e-05
5.79729e-05
3.61121e-05
1.73946e-05
5.02234e-05
1.46644e-05
4.99465e-05
1.46376e-05
3.65903e-05
5.76974e-05
7.02676e-05
7.02514e-05
5.79717e-05
3.61123e-05
1.73959e-05
1.46642e-05
5.02221e-05
1.46373e-05
4.99447e-05
3.65899e-05
5.76253e-05
7.02353e-05
5.73409e-05
7.02528e-05
3.58629e-05
1.45963e-05
4.95022e-05
1.72797e-05
3.53685e-05
1.46146e-05
4.97953e-05
5.76302e-05
7.02328e-05
5.73398e-05
7.02503e-05
3.61116e-05
1.73937e-05
5.02205e-05
1.46642e-05
4.99392e-05
1.46371e-05
3.65895e-05
5.76999e-05
7.02688e-05
7.0253e-05
5.79647e-05
3.61112e-05
1.73959e-05
1.46647e-05
5.02222e-05
1.46378e-05
4.99411e-05
3.65901e-05
5.76991e-05
7.02667e-05
7.02505e-05
5.79695e-05
6.12881e-05
6.12846e-05
2.13007e-05
6.14341e-05
6.14291e-05
6.93759e-05
6.93634e-05
6.93399e-05
6.93515e-05
2.15176e-05
6.16447e-05
6.16399e-05
6.15057e-05
6.15017e-05
6.93386e-05
6.93502e-05
3.58616e-05
1.45972e-05
4.95079e-05
1.72803e-05
3.53721e-05
1.46156e-05
4.97976e-05
5.76273e-05
7.02364e-05
5.73419e-05
7.0254e-05
5.76266e-05
7.02342e-05
5.73413e-05
7.02515e-05
3.61146e-05
1.73947e-05
1.46647e-05
5.02231e-05
1.46377e-05
4.99409e-05
3.6588e-05
3.6115e-05
1.73964e-05
1.46658e-05
5.02235e-05
1.46388e-05
4.99458e-05
3.65882e-05
5.77006e-05
7.02702e-05
7.02541e-05
5.79666e-05
5.77e-05
7.02679e-05
7.02519e-05
5.7966e-05
6.93752e-05
6.93627e-05
6.93771e-05
6.93646e-05
2.14994e-05
6.16367e-05
6.16454e-05
6.14979e-05
6.15065e-05
6.9338e-05
6.93495e-05
6.93398e-05
6.93514e-05
6.93254e-05
6.93148e-05
6.93275e-05
6.93169e-05
6.17091e-05
6.1718e-05
2.22575e-05
6.18417e-05
6.18496e-05
6.92928e-05
6.93024e-05
6.92948e-05
6.93045e-05
2.24876e-05
6.20336e-05
6.20416e-05
6.19067e-05
6.19156e-05
5.82851e-05