/*--------------------------------*- C++ -*----------------------------------*\
| =========                 |                                                 |
| \\      /  F ield         | OpenFOAM: The Open Source CFD Toolbox           |
|  \\    /   O peration     | Version:  2312                                  |
|   \\  /    A nd           | Website:  www.openfoam.com                      |
|    \\/     M anipulation  |                                                 |
\*---------------------------------------------------------------------------*/
FoamFile
{
    version     2.0;
    format      ascii;
    arch        "LSB;label=32;scalar=64";
    class       surfaceScalarField;
    location    "1000";
    object      phi;
}
// * * * * * * * * * * * * * * * * * * * * * * * * * * * * * * * * * * * * * //

dimensions      [0 3 -1 0 0 0 0];

oriented        oriented;

internalField   nonuniform List<scalar> 
123680
(
-8.18517e-07
-8.19471e-07
4.33511e-07
4.33976e-07
0.00115006
-0.00114929
-1.50285e-06
8.19152e-07
3.9943e-07
0.00113925
-4.98877e-07
1.12939e-06
1.47164e-07
7.47237e-07
-5.44846e-07
8.46043e-08
-1.22942e-06
-0.0011388
-1.50006e-06
8.19652e-07
4.05162e-07
0.00113912
-4.96148e-07
1.12668e-06
1.44173e-07
7.47106e-07
-5.45014e-07
8.46171e-08
-1.22965e-06
-0.00113867
1.53175e-06
1.49468e-06
-4.7623e-07
-4.7933e-07
0.000274438
-0.000276509
-7.98927e-07
-7.99731e-07
-0.00115234
4.25843e-07
4.26346e-07
0.00115308
-0.0011405
-1.49426e-06
7.99275e-07
3.90036e-07
0.0011409
-4.87306e-07
1.13512e-06
1.53619e-07
7.54554e-07
-5.30072e-07
-1.21364e-06
9.27779e-08
-0.00114038
-1.49151e-06
7.99787e-07
3.9584e-07
0.00114077
-4.8455e-07
1.13233e-06
1.50681e-07
7.54469e-07
-5.30242e-07
-1.21387e-06
9.28217e-08
-0.000276524
1.52324e-06
1.48612e-06
-4.63522e-07
-4.66618e-07
0.000274444
-7.79214e-07
-7.79834e-07
-0.00115528
4.18379e-07
4.18888e-07
0.00115601
-0.00114201
-1.48477e-06
7.79492e-07
3.8026e-07
0.00114236
-4.75798e-07
1.14051e-06
1.59994e-07
7.61834e-07
-5.15413e-07
-1.19761e-06
1.00917e-07
-0.00114188
-1.48208e-06
7.79844e-07
3.86036e-07
0.00114222
-4.73033e-07
1.13769e-06
1.57122e-07
7.61775e-07
-5.15528e-07
-1.19775e-06
1.00995e-07
-0.000276478
1.51378e-06
1.47661e-06
-4.50471e-07
-4.53548e-07
0.000274392
-7.58496e-07
-7.58947e-07
-0.00115813
4.10203e-07
4.10786e-07
0.00115883
-0.00114331
-1.4746e-06
7.58582e-07
3.71134e-07
0.00114361
-4.64229e-07
1.14573e-06
1.66145e-07
7.69118e-07
-5.01074e-07
-1.1814e-06
1.09035e-07
-0.00114318
-1.47188e-06
7.58864e-07
3.76973e-07
0.00114348
-4.61421e-07
1.14292e-06
1.63307e-07
7.69095e-07
-5.01176e-07
-1.18153e-06
1.09096e-07
-0.000276378
1.50356e-06
1.46642e-06
-4.37377e-07
-4.40398e-07
0.000274286
-7.37136e-07
-7.37566e-07
-0.00116088
4.01841e-07
4.0249e-07
0.00116155
-0.00114442
-1.4637e-06
7.37376e-07
3.6171e-07
0.00114468
-4.52817e-07
1.15086e-06
1.7207e-07
7.76312e-07
-4.86869e-07
-1.16516e-06
1.17043e-07
-0.00114429
-1.46097e-06
7.37326e-07
3.67506e-07
0.00114454
-4.50031e-07
1.14809e-06
1.69233e-07
7.76376e-07
-4.8694e-07
-1.1652e-06
1.17186e-07
-0.000276232
1.49262e-06
1.45548e-06
-4.2425e-07
-4.27229e-07
0.000274135
-7.15057e-07
-7.15351e-07
-0.00116352
3.93098e-07
3.93813e-07
0.00116417
-0.00114534
-1.45219e-06
7.15312e-07
3.52154e-07
0.00114555
-4.41644e-07
1.15612e-06
1.77911e-07
7.83419e-07
-4.73003e-07
-1.14907e-06
1.24874e-07
-0.00114521
-1.44943e-06
7.15095e-07
3.57796e-07
0.00114541
-4.38846e-07
1.15336e-06
1.75027e-07
7.83535e-07
-4.73004e-07
-1.14905e-06
1.25088e-07
-0.000276047
1.48107e-06
1.44401e-06
-4.11255e-07
-4.14123e-07
0.000273947
-6.92292e-07
-6.92633e-07
-0.00116606
3.84205e-07
3.84943e-07
0.00116667
-0.00114608
-1.44013e-06
6.92637e-07
3.41516e-07
0.00114624
-4.30646e-07
1.16151e-06
1.83791e-07
7.90414e-07
-4.59451e-07
-1.13323e-06
1.3259e-07
-0.00114595
-1.43743e-06
6.92282e-07
3.4724e-07
0.0011461
-4.27905e-07
1.15874e-06
1.8088e-07
7.90573e-07
-4.59418e-07
-1.13318e-06
1.32823e-07
-0.000275831
1.46902e-06
1.43198e-06
-3.98356e-07
-4.01202e-07
0.000273729
-6.6893e-07
-6.69255e-07
-0.00116848
3.75088e-07
3.75854e-07
0.00116906
-0.00114663
-1.42783e-06
6.69299e-07
3.30115e-07
0.00114675
-4.19828e-07
1.16685e-06
1.89521e-07
7.97306e-07
-4.46262e-07
-1.11771e-06
1.40184e-07
-0.0011465
-1.42514e-06
6.68913e-07
3.35752e-07
0.00114662
-4.17054e-07
1.1641e-06
1.86672e-07
7.97459e-07
-4.4617e-07
-1.11762e-06
1.40458e-07
-0.000275591
1.45675e-06
1.41974e-06
-3.85802e-07
-3.88641e-07
0.000273489
-6.4495e-07
-6.45272e-07
-0.00117078
3.65753e-07
3.66518e-07
0.00117134
-0.00114702
-1.41552e-06
6.45378e-07
3.18132e-07
0.0011471
-4.09246e-07
1.17214e-06
1.95181e-07
8.03859e-07
-4.33356e-07
-1.1026e-06
1.47688e-07
-0.00114689
-1.41274e-06
6.44968e-07
3.23767e-07
0.00114697
-4.06469e-07
1.16943e-06
1.92333e-07
8.04048e-07
-4.33337e-07
-1.10251e-06
1.47924e-07
-0.000275336
1.44447e-06
1.40746e-06
-3.73698e-07
-3.76526e-07
0.000273234
-6.20441e-07
-6.20774e-07
-0.00117297
3.50568e-07
3.56977e-07
0.0011735
-0.00114726
-1.40322e-06
6.20853e-07
3.05254e-07
0.0011473
-3.9898e-07
1.1774e-06
2.00692e-07
8.10413e-07
-4.20902e-07
-1.08793e-06
1.54992e-07
-0.00114713
-1.40047e-06
6.20475e-07
3.10838e-07
0.00114716
-3.96191e-07
1.17471e-06
1.97872e-07
8.10552e-07
-4.20885e-07
-1.08787e-06
1.55201e-07
-0.000275071
1.43212e-06
1.39509e-06
-3.61939e-07
-3.64806e-07
0.00027297
-5.95515e-07
-5.95839e-07
-0.00117503
3.41014e-07
3.47417e-07
0.00117554
-0.00114735
-1.39109e-06
5.95834e-07
2.91648e-07
0.00114736
-3.8899e-07
1.18253e-06
2.06068e-07
8.16735e-07
-4.08883e-07
-1.07393e-06
1.62056e-07
-0.00114722
-1.38833e-06
5.95597e-07
2.97169e-07
0.00114722
-3.86229e-07
1.17985e-06
2.0326e-07
8.16773e-07
-4.08884e-07
-1.07377e-06
1.62229e-07
-0.000274801
1.42002e-06
1.38294e-06
-3.50734e-07
-3.53635e-07
0.000272702
-5.70304e-07
-5.70705e-07
-0.00117698
3.31561e-07
3.37917e-07
0.00117745
-0.00114731
-1.37924e-06
5.70679e-07
2.77168e-07
0.00114729
-3.79365e-07
1.1875e-06
2.11309e-07
8.22622e-07
-3.97309e-07
-1.06037e-06
1.68887e-07
-0.00114718
-1.37645e-06
5.70478e-07
2.82788e-07
0.00114715
-3.76562e-07
1.18476e-06
2.08534e-07
8.22776e-07
-3.97328e-07
-1.0604e-06
1.69027e-07
-0.00027453
1.40812e-06
1.37103e-06
-3.40013e-07
-3.4294e-07
0.000272434
-5.44945e-07
-5.45341e-07
-0.00117879
3.22157e-07
3.28476e-07
0.00117923
-0.00114716
-1.36774e-06
5.45227e-07
2.61908e-07
0.00114711
-3.70027e-07
1.19216e-06
2.16382e-07
8.28424e-07
-3.86243e-07
-1.04732e-06
1.75425e-07
-0.00114703
-1.36495e-06
5.45141e-07
2.67616e-07
0.00114698
-3.67224e-07
1.18953e-06
2.13619e-07
8.28429e-07
-3.8622e-07
-1.04744e-06
1.75607e-07
-0.000274262
1.39659e-06
1.35949e-06
-3.29847e-07
-3.32769e-07
0.000272169
-5.19354e-07
-5.19851e-07
-0.00118048
3.1275e-07
3.19084e-07
0.00118089
-0.00114691
-1.35657e-06
5.19736e-07
2.46248e-07
0.00114684
-3.61056e-07
1.19663e-06
2.2128e-07
8.33772e-07
-3.75613e-07
-1.03512e-06
1.81711e-07
-0.00114678
-1.35381e-06
5.19629e-07
2.51875e-07
0.0011467
-3.58239e-07
1.19398e-06
2.18517e-07
8.33916e-07
-3.75636e-07
-1.03505e-06
1.81852e-07
-0.000273999
1.38554e-06
1.34846e-06
-3.20267e-07
-3.23193e-07
0.000271908
-4.93728e-07
-4.94138e-07
-0.00118204
3.03321e-07
3.09615e-07
0.00118241
-0.00114657
-1.34584e-06
4.94051e-07
2.30003e-07
0.00114648
-3.5243e-07
1.20085e-06
2.2596e-07
8.39047e-07
-3.65462e-07
-1.02337e-06
1.87697e-07
-0.00114644
-1.34311e-06
4.93942e-07
2.35698e-07
0.00114634
-3.49621e-07
1.19816e-06
2.2319e-07
8.39157e-07
-3.6551e-07
-1.02328e-06
1.87819e-07
-0.000273742
1.37481e-06
1.33775e-06
-3.11129e-07
-3.1405e-07
0.000271654
-4.67798e-07
-4.68346e-07
-0.00118346
2.93724e-07
2.99956e-07
0.00118381
-0.00114616
-1.3356e-06
4.68274e-07
2.13555e-07
0.00114606
-3.44204e-07
1.20481e-06
2.30386e-07
8.44133e-07
-3.55787e-07
-1.01211e-06
1.9336e-07
-0.00114603
-1.33285e-06
4.6813e-07
2.19286e-07
0.00114592
-3.41395e-07
1.20212e-06
2.27623e-07
8.44153e-07
-3.5582e-07
-1.01213e-06
1.9351e-07
-0.000273492
1.36449e-06
1.32747e-06
-3.02494e-07
-3.05392e-07
0.000271408
-4.41838e-07
-4.42422e-07
-0.00118476
2.8395e-07
2.90133e-07
0.00118507
-0.00114569
-1.32581e-06
4.4236e-07
1.97106e-07
0.00114557
-3.36374e-07
1.20839e-06
2.34566e-07
8.48859e-07
-3.4655e-07
-1.00147e-06
1.98777e-07
-0.00114556
-1.32307e-06
4.42206e-07
2.02801e-07
0.00114543
-3.33575e-07
1.20576e-06
2.31808e-07
8.48861e-07
-3.46577e-07
-1.00149e-06
1.98927e-07
-0.000273252
1.35475e-06
1.31775e-06
-2.94414e-07
-2.97286e-07
0.000271171
-4.1586e-07
-4.16472e-07
-0.00118593
2.79797e-07
2.80066e-07
0.0011862
-0.00114517
-1.31655e-06
4.16337e-07
1.80771e-07
0.00114504
-3.28937e-07
1.21178e-06
2.38491e-07
8.53327e-07
-3.37722e-07
-9.91359e-07
2.03951e-07
-0.00114504
-1.31379e-06
4.16236e-07
1.86529e-07
0.0011449
-3.26165e-07
1.20915e-06
2.35701e-07
8.53281e-07
-3.37769e-07
-9.91409e-07
2.0407e-07
-0.00027302
1.34538e-06
1.3084e-06
-2.86728e-07
-2.89603e-07
0.000270943
-3.90048e-07
-3.90444e-07
-0.00118697
2.69516e-07
2.69731e-07
0.00118721
-0.00114462
-1.30772e-06
3.90284e-07
1.64746e-07
0.00114448
-3.21939e-07
1.21494e-06
2.4211e-07
8.57523e-07
-3.29357e-07
-9.81813e-07
2.08834e-07
-0.00114448
-1.30499e-06
3.90299e-07
1.7045e-07
0.00114434
-3.19142e-07
1.21227e-06
2.39362e-07
8.57513e-07
-3.29386e-07
-9.81828e-07
2.08961e-07
-0.000272798
1.33654e-06
1.29957e-06
-2.79544e-07
-2.82401e-07
0.000270724
-3.64004e-07
-3.6453e-07
-0.00118789
2.58854e-07
2.58994e-07
0.0011881
-0.00114404
-1.29938e-06
3.64256e-07
1.49053e-07
0.00114389
-3.15273e-07
1.21779e-06
2.45517e-07
8.61537e-07
-3.21356e-07
-9.72711e-07
2.13485e-07
-0.0011439
-1.29666e-06
3.64286e-07
1.54786e-07
0.00114375
-3.12485e-07
1.21509e-06
2.42777e-07
8.61524e-07
-3.21431e-07
-9.72755e-07
2.1358e-07
-0.000272586
1.32815e-06
1.29122e-06
-2.72817e-07
-2.75668e-07
0.000270515
-3.382e-07
-3.38662e-07
-0.00118869
2.47779e-07
2.47886e-07
0.00118887
-0.00114344
-1.2915e-06
3.38373e-07
1.33952e-07
0.00114329
-3.08994e-07
1.22048e-06
2.48681e-07
8.65302e-07
-3.13782e-07
-9.6413e-07
2.17821e-07
-0.0011433
-1.28879e-06
3.3842e-07
1.39657e-07
0.00114315
-3.06243e-07
1.21775e-06
2.4592e-07
8.65305e-07
-3.1381e-07
-9.64151e-07
2.17914e-07
-0.000272383
1.32028e-06
1.28339e-06
-2.66584e-07
-2.69393e-07
0.000270315
-3.12586e-07
-3.12997e-07
-0.00118937
2.3629e-07
2.36379e-07
0.00118953
-0.00114283
-1.28409e-06
3.12699e-07
1.19488e-07
0.00114268
-3.03109e-07
1.22287e-06
2.51598e-07
8.6888e-07
-3.06586e-07
-9.55985e-07
2.21959e-07
-0.00114269
-1.28137e-06
3.12739e-07
1.25162e-07
0.00114254
-3.00343e-07
1.22012e-06
2.48846e-07
8.68886e-07
-3.06663e-07
-9.5601e-07
2.22056e-07
-0.00027219
1.31281e-06
1.27596e-06
-2.60725e-07
-2.63496e-07
0.000270126
-2.87201e-07
-2.87538e-07
-0.00118994
2.24311e-07
2.24434e-07
0.00119007
-0.00114221
-1.2771e-06
2.87265e-07
1.05651e-07
0.00114207
-2.97563e-07
1.22502e-06
2.54266e-07
8.72254e-07
-2.99754e-07
-9.48276e-07
2.25851e-07
-0.00114208
-1.2744e-06
2.87298e-07
1.11352e-07
0.00114192
-2.94822e-07
1.2223e-06
2.51504e-07
8.72252e-07
-2.99845e-07
-9.48313e-07
2.25918e-07
-0.000272008
1.30582e-06
1.26902e-06
-2.55302e-07
-2.58045e-07
0.000269946
-2.62182e-07
-2.623e-07
-0.00119041
2.11834e-07
2.12035e-07
0.00119051
-0.0011416
-1.27056e-06
2.62171e-07
9.26933e-08
0.00114146
-2.9245e-07
1.22699e-06
2.56668e-07
8.75428e-07
-2.93307e-07
-9.40999e-07
2.29527e-07
-0.00114147
-1.26786e-06
2.62171e-07
9.82885e-08
0.00114131
-2.89647e-07
1.22427e-06
2.53947e-07
8.75434e-07
-2.9334e-07
-9.4102e-07
2.29577e-07
-0.000271835
1.29929e-06
1.26251e-06
-2.50273e-07
-2.53e-07
0.000269776
-2.37467e-07
-2.37454e-07
-0.00119077
1.9889e-07
1.99187e-07
0.00119085
-0.001141
-1.26447e-06
2.37351e-07
8.06019e-08
0.00114086
-2.87647e-07
1.22874e-06
2.58884e-07
8.78426e-07
-2.87175e-07
-9.34121e-07
2.3295e-07
-0.00114086
-1.2617e-06
2.37371e-07
8.61835e-08
0.00114071
-2.84864e-07
1.22604e-06
2.56172e-07
8.7841e-07
-2.8726e-07
-9.34155e-07
2.33008e-07
-0.000271671
1.29314e-06
1.2564e-06
-2.45598e-07
-2.48296e-07
0.000269615
1.543e-06
1.50318e-06
-4.76498e-07
-4.82054e-07
0.000274497
-0.000276584
-1.17388e-06
-1.13377e-06
0.000276599
-0.000274508
1.05194e-07
1.10665e-07
4.06395e-07
0.0011387
-5.04584e-07
1.16959e-06
1.52822e-07
7.52705e-07
-5.45073e-07
8.45444e-08
-1.23514e-06
-0.00113826
-1.54043e-06
8.18688e-07
4.06473e-07
0.00113878
-5.04661e-07
1.16691e-06
1.5271e-07
7.52764e-07
-5.42186e-07
8.14763e-08
-1.23488e-06
-0.00113833
0.00113996
8.03866e-07
-0.00113955
3.99403e-07
-1.53667e-06
1.57659e-07
-4.95861e-07
-1.22341e-06
9.06881e-08
-5.34005e-07
7.58195e-07
1.17122e-06
0.00114003
8.03967e-07
-0.00113963
3.99307e-07
-1.53407e-06
1.57526e-07
-4.95981e-07
-1.22312e-06
8.765e-08
-5.31075e-07
7.58265e-07
-4.76725e-07
-4.79037e-07
0.000274478
-0.000276565
-1.13371e-06
0.00027658
-0.000274488
1.05384e-07
1.0783e-07
4.05045e-07
0.0011397
-4.99172e-07
1.12947e-06
1.47012e-07
7.52717e-07
-5.45005e-07
8.47903e-08
-1.23496e-06
-0.00113926
-1.53491e-06
8.18287e-07
4.0674e-07
0.00113866
-5.04711e-07
1.16148e-06
1.52776e-07
7.52754e-07
-5.42216e-07
8.1554e-08
-1.23486e-06
-0.00113822
0.00114096
8.04694e-07
-0.00114055
3.98085e-07
-1.4968e-06
1.51885e-07
-4.90428e-07
-1.2232e-06
9.09601e-08
-5.33912e-07
7.58226e-07
1.16575e-06
0.00113991
8.03827e-07
-0.00113951
3.99571e-07
-1.52863e-06
1.57649e-07
-4.96048e-07
-1.22311e-06
8.7728e-08
-5.31024e-07
7.58234e-07
8.17993e-07
4.06374e-07
0.00113828
-5.01587e-07
1.15856e-06
1.50009e-07
7.44629e-07
-5.39168e-07
7.84018e-08
-1.22631e-06
-0.00113783
8.04191e-07
-0.0011401
4.03374e-07
-1.49646e-06
1.52024e-07
-4.90126e-07
-1.21765e-06
9.0723e-08
7.52744e-07
-5.33768e-07
1.16288e-06
0.00113953
8.02973e-07
-0.00113913
3.99411e-07
-1.52548e-06
1.54738e-07
-4.92885e-07
-1.21453e-06
8.46636e-08
-5.28086e-07
7.50127e-07
-4.768e-07
-4.81711e-07
0.000274463
-0.00027654
-1.13093e-06
0.000276555
-0.000274474
1.05415e-07
1.10617e-07
8.19288e-07
4.05e-07
0.00113926
-4.99026e-07
1.12116e-06
1.47046e-07
7.49747e-07
-5.44921e-07
8.48513e-08
-1.23192e-06
-0.00113882
8.04798e-07
-0.00113997
3.98071e-07
-1.49373e-06
1.49082e-07
-4.87435e-07
-1.21787e-06
9.07803e-08
7.5265e-07
-5.33962e-07
1.12549e-06
0.00114052
8.04942e-07
-0.00114011
3.97757e-07
-1.48837e-06
1.51933e-07
-4.90316e-07
-1.22021e-06
9.09127e-08
-5.33826e-07
7.55196e-07
-0.000274449
1.0523e-07
1.08043e-07
1.53445e-06
1.49458e-06
-4.63756e-07
-4.69326e-07
0.000274503
-1.17935e-06
-1.13922e-06
0.000276554
-0.000274469
1.14187e-07
1.19689e-07
3.971e-07
0.00114035
-4.92984e-07
1.1753e-06
1.59295e-07
7.59995e-07
-5.30285e-07
-1.21938e-06
9.26989e-08
-1.53186e-06
7.9898e-07
3.97065e-07
0.00114043
-4.93072e-07
1.17264e-06
1.59167e-07
7.60073e-07
-5.27429e-07
-1.21912e-06
8.97029e-08
0.00114146
7.84281e-07
-0.0011411
3.89673e-07
-1.5274e-06
1.64019e-07
-4.84401e-07
-1.2074e-06
9.88009e-08
-5.19302e-07
7.65466e-07
1.17671e-06
0.00114153
7.84124e-07
-0.00114118
3.8954e-07
-1.52478e-06
1.63953e-07
-4.84459e-07
-1.20707e-06
9.58316e-08
-5.16359e-07
7.65527e-07
-4.63986e-07
-4.66319e-07
0.000274484
-1.13917e-06
0.000276535
-0.00027445
1.14408e-07
1.16851e-07
3.95717e-07
0.00114135
-4.8757e-07
1.1352e-06
1.53498e-07
7.60038e-07
-5.3016e-07
-1.21915e-06
9.29931e-08
-1.52641e-06
7.98921e-07
3.97123e-07
0.00114031
-4.93149e-07
1.16715e-06
1.59276e-07
7.60046e-07
-5.27419e-07
-1.21912e-06
8.9749e-08
0.00114246
7.84907e-07
-0.00114211
3.88424e-07
-1.48754e-06
1.58279e-07
-4.78963e-07
-1.20717e-06
9.91033e-08
-5.19163e-07
7.65516e-07
1.17121e-06
0.00114142
7.83984e-07
-0.00114106
3.89743e-07
-1.51936e-06
1.64081e-07
-4.84462e-07
-1.20709e-06
9.58593e-08
-5.16368e-07
7.65511e-07
7.97991e-07
3.97217e-07
0.00113993
-4.90038e-07
1.1643e-06
1.56417e-07
7.51937e-07
-5.24389e-07
8.67103e-08
-1.21058e-06
7.84481e-07
-0.00114165
3.93647e-07
-1.48718e-06
1.5842e-07
-4.78682e-07
-1.20165e-06
9.88958e-08
7.60034e-07
-5.19043e-07
1.16831e-06
0.00114103
7.83194e-07
-0.00114068
3.89743e-07
-1.51622e-06
1.61152e-07
-4.81444e-07
-1.19854e-06
9.29075e-08
-5.13362e-07
7.57409e-07
-4.64089e-07
-4.69018e-07
0.00027447
-1.13634e-06
0.000276509
-0.000274436
1.14326e-07
1.19648e-07
7.99947e-07
3.9559e-07
0.00114091
-4.87418e-07
1.12692e-06
1.53518e-07
7.57002e-07
-5.30166e-07
9.29231e-08
-1.2162e-06
7.84952e-07
-0.00114152
3.88343e-07
-1.48451e-06
1.5553e-07
-4.75952e-07
-1.20181e-06
9.8971e-08
7.59962e-07
-5.1918e-07
1.13096e-06
0.00114202
7.85131e-07
-0.00114166
3.88118e-07
-1.47905e-06
1.58355e-07
-4.78815e-07
-1.20417e-06
9.90191e-08
-5.19136e-07
7.62473e-07
-0.00027441
1.14257e-07
1.17033e-07
1.52499e-06
1.48513e-06
-4.50722e-07
-4.56268e-07
0.000274451
-1.1846e-06
-1.14447e-06
0.000276454
-0.000274376
1.22779e-07
1.28259e-07
3.87342e-07
0.0011418
-4.81486e-07
1.1807e-06
1.65618e-07
7.67245e-07
-5.15653e-07
-1.20335e-06
1.00792e-07
-1.52236e-06
7.79035e-07
3.87224e-07
0.00114188
-4.81547e-07
1.17806e-06
1.65548e-07
7.6732e-07
-5.12744e-07
-1.20303e-06
9.78446e-08
0.00114276
7.6376e-07
-0.00114246
3.80457e-07
-1.5174e-06
1.70267e-07
-4.72752e-07
-1.19125e-06
1.06872e-07
-5.04911e-07
7.7272e-07
1.18195e-06
0.00114284
7.63637e-07
-0.00114253
3.80334e-07
-1.51479e-06
1.70198e-07
-4.72825e-07
-1.19094e-06
1.03917e-07
-5.01973e-07
7.72772e-07
-4.50939e-07
-4.53227e-07
0.000274432
-1.14441e-06
0.000276435
-0.000274357
1.23e-07
1.25443e-07
3.86119e-07
0.00114281
-4.76111e-07
1.14057e-06
1.59853e-07
7.67331e-07
-5.15557e-07
-1.2031e-06
1.01122e-07
-1.51692e-06
7.78916e-07
3.87402e-07
0.00114176
-4.81518e-07
1.17255e-06
1.65692e-07
7.67313e-07
-5.12744e-07
-1.20305e-06
9.78656e-08
0.00114377
7.64253e-07
-0.00114346
3.79327e-07
-1.47755e-06
1.64517e-07
-4.6737e-07
-1.19098e-06
1.07159e-07
-5.04766e-07
7.72806e-07
1.17648e-06
0.00114272
7.6345e-07
-0.00114241
3.80394e-07
-1.50931e-06
1.70386e-07
-4.72771e-07
-1.19092e-06
1.03933e-07
-5.01927e-07
7.72782e-07
7.78179e-07
3.87469e-07
0.00114138
-4.78556e-07
1.16965e-06
1.62779e-07
7.59222e-07
-5.09744e-07
9.4947e-08
-1.19453e-06
7.63817e-07
-0.00114301
3.84538e-07
-1.47718e-06
1.64669e-07
-4.67062e-07
-1.18548e-06
1.07034e-07
7.67334e-07
-5.0468e-07
1.17361e-06
0.00114234
7.6255e-07
-0.00114203
3.80533e-07
-1.50618e-06
1.67433e-07
-4.69781e-07
-1.18243e-06
1.01026e-07
-4.99003e-07
7.64668e-07
-4.51076e-07
-4.5596e-07
0.000274417
-1.14161e-06
0.00027641
-0.000274343
1.22964e-07
1.28242e-07
7.8003e-07
3.85858e-07
0.00114236
-4.75907e-07
1.13229e-06
1.59928e-07
7.64271e-07
-5.15489e-07
1.01034e-07
-1.20009e-06
7.64198e-07
-0.00114288
3.79178e-07
-1.47447e-06
1.61784e-07
-4.64302e-07
-1.18562e-06
1.07094e-07
7.67265e-07
-5.04758e-07
1.13622e-06
0.00114332
7.64636e-07
-0.00114302
3.78877e-07
-1.46904e-06
1.64584e-07
-4.67204e-07
-1.18801e-06
1.07089e-07
-5.04659e-07
7.69749e-07
-0.000274317
1.22828e-07
1.25656e-07
1.51476e-06
1.47491e-06
-4.37612e-07
-4.43115e-07
0.000274345
-1.1898e-06
-1.14967e-06
0.000276308
-0.000274236
1.31076e-07
1.36545e-07
3.7819e-07
0.00114306
-4.69857e-07
1.18592e-06
1.71803e-07
7.74514e-07
-5.01413e-07
-1.18715e-06
1.08843e-07
-1.51219e-06
7.58291e-07
3.78084e-07
0.00114313
-4.69941e-07
1.18329e-06
1.71705e-07
7.74577e-07
-4.98447e-07
-1.18687e-06
1.05939e-07
0.00114387
7.42537e-07
-0.00114361
3.71119e-07
-1.50664e-06
1.76246e-07
-4.61304e-07
-1.17495e-06
1.14856e-07
-4.90693e-07
7.79943e-07
1.18714e-06
0.00114395
7.4229e-07
-0.00114369
3.71056e-07
-1.504e-06
1.7618e-07
-4.61351e-07
-1.17465e-06
1.11986e-07
-4.87765e-07
7.80008e-07
-4.37834e-07
-4.40141e-07
0.000274327
-1.14957e-06
0.000276289
-0.000274218
1.3126e-07
1.33717e-07
3.7706e-07
0.00114407
-4.64474e-07
1.14578e-06
1.66052e-07
7.74613e-07
-5.01216e-07
-1.18686e-06
1.09148e-07
-1.50672e-06
7.5817e-07
3.78127e-07
0.00114301
-4.69864e-07
1.17778e-06
1.71916e-07
7.74608e-07
-4.98415e-07
-1.18683e-06
1.05934e-07
0.00114488
7.42945e-07
-0.00114462
3.70071e-07
-1.46679e-06
1.70527e-07
-4.55899e-07
-1.17467e-06
1.15192e-07
-4.9053e-07
7.80045e-07
1.18171e-06
0.00114383
7.42053e-07
-0.00114357
3.71053e-07
-1.49847e-06
1.76403e-07
-4.61284e-07
-1.17462e-06
1.1198e-07
-4.8781e-07
7.80034e-07
7.57301e-07
3.78269e-07
0.00114263
-4.66883e-07
1.17485e-06
1.69006e-07
7.66463e-07
-4.95451e-07
1.03065e-07
-1.17836e-06
7.42684e-07
-0.00114417
3.75264e-07
-1.46643e-06
1.70636e-07
-4.5564e-07
-1.16921e-06
1.15055e-07
7.74558e-07
-4.90409e-07
1.17879e-06
0.00114344
7.41462e-07
-0.00114319
3.71063e-07
-1.49539e-06
1.73474e-07
-4.58282e-07
-1.16618e-06
1.09087e-07
-4.84808e-07
7.71864e-07
-4.37958e-07
-4.4281e-07
0.000274312
-1.14681e-06
0.000276264
-0.000274203
1.31254e-07
1.36558e-07
7.59264e-07
3.76682e-07
0.00114362
-4.64311e-07
1.13747e-06
1.66132e-07
7.71577e-07
-5.01126e-07
1.09117e-07
-1.18389e-06
7.42708e-07
-0.00114403
3.69839e-07
-1.46368e-06
1.67772e-07
-4.52859e-07
-1.16928e-06
1.15179e-07
7.74571e-07
-4.90469e-07
1.14139e-06
0.00114443
7.43066e-07
-0.00114418
3.69626e-07
-1.45826e-06
1.70592e-07
-4.55743e-07
-1.17171e-06
1.15168e-07
-4.90446e-07
7.77118e-07
-0.000274177
1.3111e-07
1.3395e-07
1.50384e-06
1.46398e-06
-4.24479e-07
-4.29976e-07
0.000274195
-1.19502e-06
-1.15491e-06
0.000276123
-0.000274057
1.3906e-07
1.44577e-07
3.68713e-07
0.00114412
-4.5845e-07
1.1911e-06
1.7772e-07
7.81716e-07
-4.87181e-07
-1.17088e-06
1.1684e-07
-1.50127e-06
7.36875e-07
3.68701e-07
0.00114419
-4.58495e-07
1.18844e-06
1.77672e-07
7.8179e-07
-4.8427e-07
-1.17058e-06
1.13994e-07
0.00114479
7.20673e-07
-0.00114458
3.61442e-07
-1.49525e-06
1.82062e-07
-4.50066e-07
-1.15877e-06
1.22806e-07
-4.76683e-07
7.87095e-07
1.19235e-06
0.00114486
7.2039e-07
-0.00114465
3.61469e-07
-1.49268e-06
1.82004e-07
-4.50112e-07
-1.15847e-06
1.19971e-07
-4.73771e-07
7.87156e-07
-4.24709e-07
-4.27005e-07
0.000274176
-1.15478e-06
0.000276104
-0.000274038
1.39248e-07
1.4174e-07
3.67606e-07
0.00114513
-4.53047e-07
1.15096e-06
1.71989e-07
7.81826e-07
-4.87035e-07
-1.17059e-06
1.17172e-07
-1.49575e-06
7.36638e-07
3.68671e-07
0.00114408
-4.58414e-07
1.183e-06
1.77883e-07
7.81832e-07
-4.84299e-07
-1.17054e-06
1.13982e-07
0.0011458
7.20908e-07
-0.00114559
3.60536e-07
-1.45537e-06
1.76434e-07
-4.44627e-07
-1.15851e-06
1.23089e-07
-4.76549e-07
7.87161e-07
1.18695e-06
0.00114475
7.20241e-07
-0.00114453
3.61105e-07
-1.48713e-06
1.82176e-07
-4.49993e-07
-1.15842e-06
1.19972e-07
-4.73773e-07
7.87195e-07
7.36089e-07
3.68706e-07
0.00114369
-4.55451e-07
1.18007e-06
1.74963e-07
7.73637e-07
-4.81321e-07
1.11096e-07
-1.16214e-06
7.2082e-07
-0.00114514
3.65804e-07
-1.45511e-06
1.76472e-07
-4.4434e-07
-1.15307e-06
1.22937e-07
7.81675e-07
-4.76434e-07
1.18405e-06
0.00114436
7.1976e-07
-0.00114415
3.61237e-07
-1.48401e-06
1.79286e-07
-4.46995e-07
-1.15007e-06
1.17032e-07
-4.70851e-07
7.78971e-07
-4.24836e-07
-4.29648e-07
0.000274161
-1.15203e-06
0.000276078
-0.000274023
1.39194e-07
1.446e-07
7.3763e-07
3.67257e-07
0.00114468
-4.5292e-07
1.14267e-06
1.72029e-07
7.78921e-07
-4.86936e-07
1.17187e-07
-1.16762e-06
7.20698e-07
-0.001145
3.60172e-07
-1.45234e-06
1.73567e-07
-4.41606e-07
-1.15307e-06
1.23148e-07
7.8176e-07
-4.76414e-07
1.14662e-06
0.00114535
7.20873e-07
-0.00114514
3.6011e-07
-1.44691e-06
1.76405e-07
-4.44479e-07
-1.1555e-06
1.23133e-07
-4.76409e-07
7.84291e-07
-0.000273997
1.39053e-07
1.4201e-07
1.49235e-06
1.45248e-06
-4.11423e-07
-4.16918e-07
0.000274006
-1.20034e-06
-1.16028e-06
0.000275907
-0.000273845
1.46918e-07
1.52348e-07
3.58925e-07
0.00114499
-4.47252e-07
1.19634e-06
1.83554e-07
7.8885e-07
-4.73262e-07
-1.15473e-06
1.24758e-07
-1.48975e-06
7.14772e-07
3.59005e-07
0.00114506
-4.47315e-07
1.19368e-06
1.83458e-07
7.88927e-07
-4.70341e-07
-1.15444e-06
1.21923e-07
0.00114552
6.98049e-07
-0.00114536
3.50964e-07
-1.48334e-06
1.87906e-07
-4.38997e-07
-1.1428e-06
1.30605e-07
-4.62993e-07
7.94153e-07
1.19769e-06
0.0011456
6.97802e-07
-0.00114543
3.51151e-07
-1.48074e-06
1.87826e-07
-4.39109e-07
-1.14254e-06
1.27776e-07
-4.60121e-07
7.94201e-07
-4.11656e-07
-4.13956e-07
0.000273988
-1.16017e-06
0.000275888
-0.000273827
1.47098e-07
1.49522e-07
3.58005e-07
0.001146
-4.41816e-07
1.15624e-06
1.77923e-07
7.88924e-07
-4.73135e-07
-1.15449e-06
1.25022e-07
-1.48419e-06
7.14592e-07
3.58683e-07
0.00114495
-4.47223e-07
1.1883e-06
1.83637e-07
7.88968e-07
-4.7036e-07
-1.1544e-06
1.2193e-07
0.00114653
6.98383e-07
-0.00114637
3.50031e-07
-1.44345e-06
1.82312e-07
-4.33552e-07
-1.14256e-06
1.30853e-07
-4.62885e-07
7.942e-07
1.1923e-06
0.00114548
6.97521e-07
-0.00114531
3.50855e-07
-1.47514e-06
1.88038e-07
-4.38964e-07
-1.14246e-06
1.27776e-07
-4.60118e-07
7.94226e-07
7.14134e-07
3.58873e-07
0.00114456
-4.4424e-07
1.18536e-06
1.80787e-07
7.80722e-07
-4.67447e-07
1.18994e-07
-1.14606e-06
6.98309e-07
-0.00114592
3.55412e-07
-1.44316e-06
1.82324e-07
-4.33383e-07
-1.13715e-06
1.30687e-07
7.88702e-07
-4.62783e-07
1.18939e-06
0.00114509
6.97219e-07
-0.00114493
3.50819e-07
-1.47206e-06
1.85207e-07
-4.3597e-07
-1.13418e-06
1.24828e-07
-4.57242e-07
7.85977e-07
-4.11787e-07
-4.16529e-07
0.000273973
-1.15738e-06
0.000275862
-0.000273812
1.47043e-07
1.52393e-07
7.15256e-07
3.57752e-07
0.00114555
-4.41737e-07
1.14791e-06
1.77846e-07
7.86061e-07
-4.73003e-07
1.25099e-07
-1.15148e-06
6.98009e-07
-0.00114578
3.49967e-07
-1.4404e-06
1.79419e-07
-4.30621e-07
-1.13713e-06
1.30916e-07
7.88815e-07
-4.62748e-07
1.15195e-06
0.00114609
6.98257e-07
-0.00114592
3.49779e-07
-1.43502e-06
1.82246e-07
-4.33524e-07
-1.13956e-06
1.30933e-07
-4.62745e-07
7.91343e-07
-0.000273786
1.46889e-07
1.49784e-07
1.48027e-06
1.44039e-06
-3.9849e-07
-4.03996e-07
0.000273788
-1.2057e-06
-1.16567e-06
0.000275667
-0.00027361
1.54404e-07
1.59809e-07
3.48205e-07
0.00114568
-4.36263e-07
1.20172e-06
1.89376e-07
7.95864e-07
-4.59668e-07
-1.13886e-06
1.32518e-07
-1.4777e-06
6.92071e-07
3.48353e-07
0.00114575
-4.36337e-07
1.19903e-06
1.89315e-07
7.95924e-07
-4.56767e-07
-1.13857e-06
1.29693e-07
0.00114608
6.74846e-07
-0.00114596
3.39696e-07
-1.47104e-06
1.93695e-07
-4.28135e-07
-1.12717e-06
1.38215e-07
-4.49643e-07
8.01065e-07
1.20297e-06
0.00114615
6.74627e-07
-0.00114603
3.39886e-07
-1.46854e-06
1.93582e-07
-4.28162e-07
-1.12691e-06
1.35454e-07
-4.46801e-07
8.01134e-07
-3.98728e-07
-4.01053e-07
0.00027377
-1.16548e-06
0.000275649
-0.000273592
1.54527e-07
1.56928e-07
3.47307e-07
0.00114669
-4.30811e-07
1.16165e-06
1.83793e-07
7.95919e-07
-4.59568e-07
-1.13862e-06
1.32758e-07
-1.47215e-06
6.91791e-07
3.48139e-07
0.00114563
-4.36251e-07
1.19366e-06
1.895e-07
7.95979e-07
-4.56787e-07
-1.13854e-06
1.29703e-07
0.00114709
6.75155e-07
-0.00114697
3.38793e-07
-1.43116e-06
1.8813e-07
-4.22673e-07
-1.12694e-06
1.38504e-07
-4.4958e-07
8.011e-07
1.19763e-06
0.00114603
6.74274e-07
-0.00114591
3.39699e-07
-1.46293e-06
1.93821e-07
-4.28066e-07
-1.12686e-06
1.35454e-07
-4.46806e-07
8.0114e-07
6.91517e-07
3.48153e-07
0.00114525
-4.33231e-07
1.19074e-06
1.86667e-07
7.87704e-07
-4.53912e-07
1.2675e-07
-1.13024e-06
6.75196e-07
-0.00114652
3.44146e-07
-1.43096e-06
1.88082e-07
-4.22447e-07
-1.12152e-06
1.38338e-07
7.95606e-07
-4.49478e-07
1.19474e-06
0.00114565
6.74137e-07
-0.00114553
3.39472e-07
-1.45982e-06
1.90997e-07
-4.25062e-07
-1.11858e-06
1.32526e-07
-4.43943e-07
7.92897e-07
-3.98874e-07
-4.03643e-07
0.000273755
-1.16273e-06
0.000275623
-0.000273577
1.54501e-07
1.59863e-07
6.92428e-07
3.47129e-07
0.00114624
-4.3077e-07
1.1533e-06
1.83741e-07
7.93089e-07
-4.5939e-07
1.32857e-07
-1.13558e-06
6.74859e-07
-0.00114638
3.38629e-07
-1.42823e-06
1.85228e-07
-4.19733e-07
-1.12151e-06
1.38606e-07
7.95722e-07
-4.494e-07
1.15728e-06
0.00114664
6.74926e-07
-0.00114652
3.38589e-07
-1.42281e-06
1.88027e-07
-4.22622e-07
-1.12383e-06
1.38621e-07
-4.49386e-07
7.98319e-07
-0.000273551
1.54324e-07
1.57248e-07
1.468e-06
1.42812e-06
-3.8592e-07
-3.91414e-07
0.000273549
-1.21098e-06
-1.17096e-06
0.000275412
-0.000273358
1.61498e-07
1.66905e-07
3.3679e-07
0.00114619
-4.25413e-07
1.20702e-06
1.95136e-07
8.02734e-07
-4.46442e-07
-1.12331e-06
1.40115e-07
-1.4654e-06
6.68704e-07
3.37005e-07
0.00114626
-4.25523e-07
1.20435e-06
1.95025e-07
8.02825e-07
-4.43548e-07
-1.12307e-06
1.37325e-07
0.00114647
6.51038e-07
-0.00114638
3.27843e-07
-1.45871e-06
1.99359e-07
-4.17462e-07
-1.11192e-06
1.45785e-07
-4.36702e-07
8.07708e-07
1.20826e-06
0.00114654
6.50841e-07
-0.00114646
3.28099e-07
-1.45618e-06
1.99281e-07
-4.17555e-07
-1.1117e-06
1.4298e-07
-4.33857e-07
8.07775e-07
-3.86131e-07
-3.88471e-07
0.00027353
-1.17079e-06
0.000275393
-0.00027334
1.61614e-07
1.64056e-07
3.35942e-07
0.0011472
-4.1996e-07
1.167e-06
1.89568e-07
8.02761e-07
-4.46349e-07
-1.12311e-06
1.40355e-07
-1.45985e-06
6.68339e-07
3.36783e-07
0.00114614
-4.25393e-07
1.19898e-06
1.95248e-07
8.02846e-07
-4.43574e-07
-1.12304e-06
1.37328e-07
0.00114748
6.5136e-07
-0.0011474
3.26909e-07
-1.41885e-06
1.93803e-07
-4.12017e-07
-1.11166e-06
1.46021e-07
-4.36614e-07
8.07749e-07
1.2029e-06
0.00114642
6.50458e-07
-0.00114634
3.27893e-07
-1.45058e-06
1.9947e-07
-4.17461e-07
-1.11169e-06
1.42997e-07
-4.33837e-07
8.07836e-07
6.68237e-07
3.36682e-07
0.00114576
-4.22379e-07
1.19606e-06
1.92398e-07
7.94626e-07
-4.4071e-07
1.34396e-07
-1.11476e-06
6.51435e-07
-0.00114695
3.32332e-07
-1.41862e-06
1.93787e-07
-4.11881e-07
-1.10629e-06
1.45854e-07
8.02335e-07
-4.36514e-07
1.20005e-06
0.00114604
6.50353e-07
-0.00114595
3.27709e-07
-1.44745e-06
1.96643e-07
-4.14449e-07
-1.10347e-06
1.40072e-07
-4.30992e-07
7.99611e-07
-3.86307e-07
-3.91032e-07
0.000273516
-1.16809e-06
0.000275368
-0.000273325
1.61679e-07
1.66892e-07
6.68906e-07
3.35795e-07
0.00114675
-4.19936e-07
1.15862e-06
1.89504e-07
8.00045e-07
-4.46147e-07
1.40491e-07
-1.12001e-06
6.51022e-07
-0.00114681
3.26834e-07
-1.41585e-06
1.90931e-07
-4.09099e-07
-1.10638e-06
1.46079e-07
8.02421e-07
-4.36477e-07
1.16264e-06
0.00114703
6.51121e-07
-0.00114695
3.26776e-07
-1.41044e-06
1.9373e-07
-4.11989e-07
-1.10873e-06
1.46065e-07
-4.36483e-07
8.05026e-07
-0.000273299
1.61442e-07
1.64365e-07
1.4556e-06
1.41575e-06
-3.73753e-07
-3.79224e-07
0.000273294
-1.21617e-06
-1.17622e-06
0.000275147
-0.000273096
1.68249e-07
1.73655e-07
3.24736e-07
0.00114654
-4.14842e-07
1.21232e-06
2.00756e-07
8.09446e-07
-4.33554e-07
-1.10821e-06
1.47611e-07
-1.45307e-06
6.44801e-07
3.25081e-07
0.00114661
-4.14936e-07
1.20961e-06
2.00672e-07
8.09412e-07
-4.30696e-07
-1.10795e-06
1.4481e-07
0.0011467
6.266e-07
-0.00114666
3.20835e-07
-1.44641e-06
2.04888e-07