/*--------------------------------*- C++ -*----------------------------------*\
| =========                 |                                                 |
| \\      /  F ield         | OpenFOAM: The Open Source CFD Toolbox           |
|  \\    /   O peration     | Version:  2312                                  |
|   \\  /    A nd           | Website:  www.openfoam.com                      |
|    \\/     M anipulation  |                                                 |
\*---------------------------------------------------------------------------*/
FoamFile
{
    version     2.0;
    format      ascii;
    arch        "LSB;label=32;scalar=64";
    class       volVectorField;
    location    "1000";
    object      U;
}
// * * * * * * * * * * * * * * * * * * * * * * * * * * * * * * * * * * * * * //

dimensions      [0 1 -1 0 0 0 0];

internalField   nonuniform List<vector> 
42840
(
(5.98079e-05 5.97868e-05 0.109207)
(-8.96361e-05 5.57838e-05 0.108145)
(5.57607e-05 -8.97274e-05 0.108144)
(-0.000142254 -0.000142283 0.106657)
(5.85577e-05 5.85341e-05 0.109495)
(-8.73862e-05 5.45496e-05 0.108304)
(5.45291e-05 -8.74474e-05 0.108303)
(-0.000137977 -0.000138012 0.106656)
(5.73124e-05 5.73018e-05 0.109774)
(-8.50053e-05 5.32846e-05 0.108444)
(5.32658e-05 -8.50444e-05 0.108444)
(-0.000133328 -0.000133375 0.106632)
(5.60005e-05 5.59988e-05 0.110044)
(-8.24759e-05 5.19789e-05 0.108566)
(5.19489e-05 -8.24792e-05 0.108565)
(-0.000128481 -0.000128513 0.106589)
(5.46351e-05 5.464e-05 0.110303)
(-7.98141e-05 5.05693e-05 0.108669)
(5.05336e-05 -7.9794e-05 0.108669)
(-0.0001234 -0.00012343 0.106528)
(5.32189e-05 5.32287e-05 0.110553)
(-7.69839e-05 4.90267e-05 0.108754)
(4.90126e-05 -7.69467e-05 0.108754)
(-0.000118211 -0.000118205 0.106454)
(5.1781e-05 5.17909e-05 0.110792)
(-7.40193e-05 4.73202e-05 0.108822)
(4.73041e-05 -7.39701e-05 0.108821)
(-0.00011289 -0.000112882 0.106368)
(5.03262e-05 5.03362e-05 0.111021)
(-7.09346e-05 4.55231e-05 0.108872)
(4.54865e-05 -7.08669e-05 0.108872)
(-0.000107608 -0.00010759 0.106274)
(4.88467e-05 4.88584e-05 0.111239)
(-6.77405e-05 4.35964e-05 0.108908)
(4.3562e-05 -6.76954e-05 0.108907)
(-0.000102433 -0.00010242 0.106175)
(4.7366e-05 4.7368e-05 0.111445)
(-6.44877e-05 4.15918e-05 0.108928)
(4.15495e-05 -6.44454e-05 0.108927)
(-9.73057e-05 -9.7311e-05 0.106072)
(4.58796e-05 4.58829e-05 0.11164)
(-6.11972e-05 3.95069e-05 0.108935)
(3.9469e-05 -6.116e-05 0.108935)
(-9.23797e-05 -9.24006e-05 0.105969)
(4.44092e-05 4.44066e-05 0.111823)
(-5.78979e-05 3.73475e-05 0.10893)
(3.73122e-05 -5.78676e-05 0.10893)
(-8.76348e-05 -8.76655e-05 0.105865)
(4.29472e-05 4.29388e-05 0.111993)
(-5.46152e-05 3.5124e-05 0.108915)
(3.50935e-05 -5.45777e-05 0.108914)
(-8.31189e-05 -8.31599e-05 0.105763)
(4.14919e-05 4.14857e-05 0.112152)
(-5.13507e-05 3.288e-05 0.10889)
(3.28452e-05 -5.13207e-05 0.108889)
(-7.88922e-05 -7.89343e-05 0.105663)
(4.00344e-05 4.00202e-05 0.112299)
(-4.81148e-05 3.06201e-05 0.108857)
(3.05939e-05 -4.80968e-05 0.108856)
(-7.48397e-05 -7.48833e-05 0.105565)
(3.85577e-05 3.85443e-05 0.112433)
(-4.49323e-05 2.83785e-05 0.108817)
(2.83498e-05 -4.4914e-05 0.108816)
(-7.10044e-05 -7.10389e-05 0.105471)
(3.70725e-05 3.70545e-05 0.112554)
(-4.18082e-05 2.61638e-05 0.108772)
(2.61431e-05 -4.17904e-05 0.108771)
(-6.74428e-05 -6.74757e-05 0.10538)
(3.55677e-05 3.55412e-05 0.112664)
(-3.87367e-05 2.40106e-05 0.108722)
(2.39924e-05 -3.87332e-05 0.108721)
(-6.40507e-05 -6.40837e-05 0.105293)
(3.40308e-05 3.40017e-05 0.112762)
(-3.57378e-05 2.19307e-05 0.108669)
(2.19058e-05 -3.57386e-05 0.108668)
(-6.08873e-05 -6.09223e-05 0.105209)
(3.2459e-05 3.24272e-05 0.112847)
(-3.28074e-05 1.9918e-05 0.108613)
(1.99029e-05 -3.28136e-05 0.108612)
(-5.79365e-05 -5.79676e-05 0.10513)
(3.08499e-05 3.08205e-05 0.112922)
(-2.9965e-05 1.79959e-05 0.108556)
(1.79798e-05 -2.99706e-05 0.108555)
(-5.5205e-05 -5.52249e-05 0.105054)
(2.92089e-05 2.91806e-05 0.112985)
(-2.72091e-05 1.61642e-05 0.108498)
(1.61476e-05 -2.72121e-05 0.108497)
(-5.26208e-05 -5.26297e-05 0.104981)
(2.75257e-05 2.75052e-05 0.113038)
(-2.4543e-05 1.44313e-05 0.10844)
(1.4421e-05 -2.45484e-05 0.108439)
(-5.02441e-05 -5.02424e-05 0.104913)
(2.5812e-05 2.57982e-05 0.113081)
(-2.19744e-05 1.2804e-05 0.108382)
(1.27844e-05 -2.19758e-05 0.108381)
(-4.80263e-05 -4.80241e-05 0.104848)
(2.40634e-05 2.40618e-05 0.113115)
(-1.95066e-05 1.12645e-05 0.108325)
(1.12499e-05 -1.95131e-05 0.108324)
(-4.59512e-05 -4.59404e-05 0.104787)
(0.000142302 0.000142281 0.106657)
(4.35615e-06 4.4125e-06 0.106843)
(5.59641e-05 8.97593e-05 0.108144)
(-5.59779e-05 8.97323e-05 0.108144)
(5.50513e-05 8.80594e-05 0.108265)
(-5.50603e-05 8.80202e-05 0.108265)
(-0.000142317 0.000142258 0.106657)
(-4.36069e-06 4.37284e-06 0.106843)
(8.97325e-05 5.58408e-05 0.108144)
(8.97088e-05 -5.59734e-05 0.108144)
(8.80205e-05 5.49161e-05 0.108266)
(8.80082e-05 -5.50581e-05 0.108265)
(-8.95049e-05 -5.58694e-05 0.108144)
(-8.79546e-05 5.48668e-05 0.108266)
(-8.78149e-05 -5.49703e-05 0.108265)
(0.000142262 -0.000142335 0.106657)
(4.39248e-06 -4.32598e-06 0.106842)
(-5.57804e-05 -8.97446e-05 0.108144)
(5.4841e-05 -8.80227e-05 0.108265)
(-5.48675e-05 -8.80549e-05 0.108265)
(-4.37635e-06 -4.33809e-06 0.106842)
(0.00013801 0.000137984 0.106656)
(1.81086e-06 1.87392e-06 0.106831)
(5.47342e-05 8.74824e-05 0.108303)
(-5.47484e-05 8.74458e-05 0.108303)
(5.37859e-05 8.57213e-05 0.10841)
(-5.37919e-05 8.56659e-05 0.10841)
(-0.000138017 0.000137963 0.106656)
(-1.81503e-06 1.83265e-06 0.106831)
(8.74414e-05 5.45991e-05 0.108304)
(8.7429e-05 -5.47413e-05 0.108303)
(8.5671e-05 5.36579e-05 0.108411)
(8.56468e-05 -5.37991e-05 0.10841)
(-8.72433e-05 -5.46609e-05 0.108303)
(-8.56155e-05 5.36024e-05 0.108411)
(-8.54688e-05 -5.37199e-05 0.10841)
(0.000137987 -0.000138074 0.106656)
(1.88736e-06 -1.77879e-06 0.106831)
(-5.45567e-05 -8.7479e-05 0.108303)
(5.35779e-05 -8.56566e-05 0.108411)
(-5.36069e-05 -8.56948e-05 0.10841)
(-1.8317e-06 -1.80947e-06 0.10683)
(0.000133374 0.000133363 0.106633)
(-6.64669e-07 -6.06592e-07 0.106798)
(5.34736e-05 8.51082e-05 0.108443)
(-5.34741e-05 8.50547e-05 0.108443)
(5.24911e-05 8.32092e-05 0.108536)
(-5.24943e-05 8.31493e-05 0.108536)
(-0.000133373 0.00013333 0.106633)
(6.63561e-07 -6.46321e-07 0.106798)
(8.50566e-05 5.33487e-05 0.108444)
(8.50343e-05 -5.34825e-05 0.108443)
(8.31454e-05 5.23768e-05 0.108537)
(8.31243e-05 -5.2496e-05 0.108536)
(-8.48601e-05 -5.34047e-05 0.108443)
(-8.31125e-05 5.23122e-05 0.108537)
(-8.29745e-05 -5.24171e-05 0.108536)
(0.000133385 -0.000133425 0.106633)
(-6.07368e-07 7.093e-07 0.106797)
(-5.32922e-05 -8.50848e-05 0.108443)
(5.22818e-05 -8.31285e-05 0.108537)
(-5.23198e-05 -8.31707e-05 0.108536)
(6.60932e-07 6.957e-07 0.106796)
(0.000128514 0.000128506 0.106589)
(-3.15596e-06 -3.10238e-06 0.106745)
(5.21525e-05 8.25656e-05 0.108565)
(-5.21623e-05 8.25049e-05 0.108565)
(5.10945e-05 8.05778e-05 0.108644)
(-5.11036e-05 8.0515e-05 0.108644)
(-0.000128532 0.000128492 0.106589)
(3.14983e-06 -3.12228e-06 0.106745)
(8.25007e-05 5.20415e-05 0.108566)
(8.24682e-05 -5.21551e-05 0.108564)
(8.05036e-05 5.09938e-05 0.108645)
(8.04694e-05 -5.109e-05 0.108643)
(-8.23355e-05 -5.20751e-05 0.108564)
(-8.04938e-05 5.09342e-05 0.108645)
(-8.03607e-05 -5.10122e-05 0.108643)
(0.000128535 -0.000128568 0.106589)
(-3.10306e-06 3.21457e-06 0.106745)
(-5.19802e-05 -8.25106e-05 0.108565)
(5.08923e-05 -8.04776e-05 0.108645)
(-5.09354e-05 -8.0496e-05 0.108644)
(3.14008e-06 3.16997e-06 0.106744)
(0.000123439 0.000123428 0.106529)
(-5.67039e-06 -5.60522e-06 0.106677)
(5.07304e-05 7.98953e-05 0.108668)
(-5.07393e-05 7.98321e-05 0.108668)
(4.95866e-05 7.7778e-05 0.108733)
(-4.96043e-05 7.7714e-05 0.108733)
(-0.000123457 0.000123429 0.106529)
(5.65948e-06 -5.6122e-06 0.106677)
(7.982e-05 5.06287e-05 0.108669)
(7.97858e-05 -5.07188e-05 0.108667)
(7.77025e-05 4.94808e-05 0.108734)
(7.76693e-05 -4.95786e-05 0.108733)
(-7.96816e-05 -5.06485e-05 0.108668)
(-7.77028e-05 4.94321e-05 0.108734)
(-7.75779e-05 -4.95043e-05 0.108733)
(0.000123466 -0.000123481 0.106529)
(-5.59525e-06 5.72972e-06 0.106676)
(-5.05715e-05 -7.98068e-05 0.108668)
(4.94061e-05 -7.76665e-05 0.108734)
(-4.94409e-05 -7.76824e-05 0.108733)
(5.63778e-06 5.70603e-06 0.106676)
(0.000118248 0.000118234 0.106454)
(-8.22627e-06 -8.1819e-06 0.106596)
(4.91717e-05 7.70553e-05 0.108753)
(-4.91984e-05 7.69914e-05 0.108752)
(4.79103e-05 7.48301e-05 0.108805)
(-4.79347e-05 7.4773e-05 0.108805)
(-0.000118244 0.000118225 0.106454)
(8.2266e-06 -8.20194e-06 0.106596)
(7.69826e-05 4.90694e-05 0.108754)
(7.69427e-05 -4.91774e-05 0.108752)
(7.47639e-05 4.78013e-05 0.108806)
(7.4728e-05 -4.79033e-05 0.108804)
(-7.68608e-05 -4.9097e-05 0.108752)
(-7.47685e-05 4.77522e-05 0.108806)
(-7.46542e-05 -4.7818e-05 0.108805)
(0.000118244 -0.000118249 0.106454)
(-8.16769e-06 8.29993e-06 0.106595)
(-4.90356e-05 -7.69582e-05 0.108753)
(4.77318e-05 -7.4721e-05 0.108806)
(-4.77709e-05 -7.47308e-05 0.108805)
(8.20051e-06 8.26773e-06 0.106594)
(0.000112911 0.000112892 0.106368)
(-1.07623e-05 -1.07285e-05 0.106505)
(4.74654e-05 7.40773e-05 0.10882)
(-4.74905e-05 7.40155e-05 0.10882)
(4.612e-05 7.17619e-05 0.10886)
(-4.61399e-05 7.17071e-05 0.108859)
(-0.000112921 0.000112887 0.106369)
(1.07354e-05 -1.072e-05 0.106505)
(7.40129e-05 4.73618e-05 0.108821)
(7.39721e-05 -4.74645e-05 0.10882)
(7.17002e-05 4.60142e-05 0.108861)
(7.16678e-05 -4.61114e-05 0.108859)
(-7.39068e-05 -4.73805e-05 0.10882)
(-7.17067e-05 4.5974e-05 0.108861)
(-7.16e-05 -4.60257e-05 0.108859)
(0.000112935 -0.000112927 0.106368)
(-1.06975e-05 1.08293e-05 0.106504)
(-4.73312e-05 -7.39769e-05 0.10882)
(4.59457e-05 -7.16465e-05 0.108861)
(-4.59943e-05 -7.16552e-05 0.10886)
(1.07242e-05 1.08008e-05 0.106504)
(0.000107621 0.0001076 0.106275)
(-1.3238e-05 -1.32001e-05 0.106407)
(4.56504e-05 7.09839e-05 0.108871)
(-4.5679e-05 7.09267e-05 0.108871)
(4.42166e-05 6.85963e-05 0.108899)
(-4.42465e-05 6.85441e-05 0.108898)
(-0.000107618 0.000107577 0.106275)
(1.32185e-05 -1.31972e-05 0.106407)
(7.09248e-05 4.5548e-05 0.108872)
(7.08867e-05 -4.56457e-05 0.10887)
(6.8539e-05 4.41145e-05 0.1089)
(6.84995e-05 -4.42116e-05 0.108898)
(-7.08252e-05 -4.55645e-05 0.10887)
(-6.85426e-05 4.40871e-05 0.1089)
(-6.84488e-05 -4.41299e-05 0.108898)
(0.000107632 -0.000107621 0.106275)
(-1.32012e-05 1.32908e-05 0.106407)
(-4.5532e-05 -7.0878e-05 0.108871)
(4.40465e-05 -6.84918e-05 0.1089)
(-4.40985e-05 -6.85028e-05 0.108899)
(1.32209e-05 1.32887e-05 0.106406)
(0.000102394 0.000102378 0.106175)
(-1.56553e-05 -1.56285e-05 0.106305)
(4.37245e-05 6.77959e-05 0.108906)
(-4.3759e-05 6.77435e-05 0.108906)
(4.22241e-05 6.53597e-05 0.108922)
(-4.22575e-05 6.53113e-05 0.108922)
(-0.000102418 0.000102385 0.106176)
(1.5639e-05 -1.56172e-05 0.106305)
(6.77388e-05 4.36262e-05 0.108907)
(6.76959e-05 -4.37239e-05 0.108905)
(6.52996e-05 4.21184e-05 0.108924)
(6.52597e-05 -4.22212e-05 0.108922)
(-6.76458e-05 -4.3645e-05 0.108905)
(-6.53008e-05 4.21037e-05 0.108924)
(-6.52143e-05 -4.21506e-05 0.108922)
(0.000102396 -0.000102415 0.106175)
(-1.565e-05 1.57266e-05 0.106304)
(-4.36102e-05 -6.77004e-05 0.108906)
(4.20595e-05 -6.52618e-05 0.108924)
(-4.21106e-05 -6.52673e-05 0.108923)
(1.56728e-05 1.57146e-05 0.106304)
(9.73226e-05 9.72971e-05 0.106073)
(-1.80378e-05 -1.80167e-05 0.106201)
(4.17115e-05 6.45404e-05 0.108926)
(-4.17472e-05 6.44953e-05 0.108926)
(4.01567e-05 6.20716e-05 0.108933)
(-4.01854e-05 6.20277e-05 0.108932)
(-9.73281e-05 9.72964e-05 0.106073)
(1.80316e-05 -1.80098e-05 0.1062)
(6.4481e-05 4.16095e-05 0.108927)
(6.44383e-05 -4.17031e-05 0.108926)
(6.20165e-05 4.00539e-05 0.108934)
(6.19735e-05 -4.01495e-05 0.108932)
(-6.43975e-05 -4.16374e-05 0.108926)
(-6.20125e-05 4.00325e-05 0.108934)
(-6.19296e-05 -4.00827e-05 0.108932)
(9.73197e-05 -9.73473e-05 0.106073)
(-1.80137e-05 1.80811e-05 0.1062)
(-4.15953e-05 -6.44529e-05 0.108926)
(4.00067e-05 -6.19831e-05 0.108934)
(-4.00245e-05 -6.19906e-05 0.108933)
(1.80044e-05 1.80315e-05 0.106199)
(9.2403e-05 9.23747e-05 0.105969)
(-2.0278e-05 -2.02648e-05 0.106095)
(3.96219e-05 6.12472e-05 0.108933)
(-3.96521e-05 6.12051e-05 0.108933)
(3.80153e-05 5.877e-05 0.108931)
(-3.80294e-05 5.87249e-05 0.10893)
(-9.24039e-05 9.23755e-05 0.105969)
(2.02818e-05 -2.02559e-05 0.106095)
(6.11934e-05 3.95196e-05 0.108935)
(6.11519e-05 -3.96197e-05 0.108933)
(5.8722e-05 3.79114e-05 0.108932)
(5.86771e-05 -3.80053e-05 0.10893)
(-6.11063e-05 -3.95543e-05 0.108933)
(-5.87146e-05 3.78985e-05 0.108932)
(-5.86291e-05 -3.7942e-05 0.10893)
(9.23879e-05 -9.24215e-05 0.105969)
(-2.02657e-05 2.0313e-05 0.106095)
(-3.9497e-05 -6.11709e-05 0.108934)
(3.78588e-05 -5.86856e-05 0.108932)
(-3.78801e-05 -5.87035e-05 0.108931)
(2.02621e-05 2.02757e-05 0.106094)
(8.76891e-05 8.76566e-05 0.105865)
(-2.23547e-05 -2.23557e-05 0.105991)
(3.74661e-05 5.79455e-05 0.108928)
(-3.74767e-05 5.79012e-05 0.108928)
(3.58144e-05 5.54744e-05 0.108917)
(-3.5819e-05 5.54341e-05 0.108917)
(-8.76763e-05 8.76562e-05 0.105866)
(2.23557e-05 -2.23381e-05 0.10599)
(5.78976e-05 3.73594e-05 0.10893)
(5.78519e-05 -3.74526e-05 0.108927)
(5.54313e-05 3.57026e-05 0.108919)
(5.53876e-05 -3.58059e-05 0.108917)
(-5.78051e-05 -3.73929e-05 0.108928)
(-5.5421e-05 3.56843e-05 0.108919)
(-5.5335e-05 -3.57464e-05 0.108917)
(8.76544e-05 -8.77053e-05 0.105865)
(-2.23912e-05 2.24203e-05 0.10599)
(-3.73209e-05 -5.78814e-05 0.108929)
(3.56535e-05 -5.54e-05 0.108919)
(-3.56742e-05 -5.54267e-05 0.108918)
(2.23795e-05 2.23787e-05 0.105989)
(8.31878e-05 8.31412e-05 0.105763)
(-2.42986e-05 -2.43041e-05 0.105888)
(3.52547e-05 5.46527e-05 0.108913)
(-3.5254e-05 5.4613e-05 0.108912)
(3.35666e-05 5.21946e-05 0.108895)
(-3.35609e-05 5.21554e-05 0.108894)
(-8.31924e-05 8.3165e-05 0.105763)
(2.4322e-05 -2.4309e-05 0.105887)
(5.46129e-05 3.51439e-05 0.108914)
(5.45654e-05 -3.52428e-05 0.108912)
(5.21676e-05 3.34576e-05 0.108896)
(5.2108e-05 -3.35524e-05 0.108894)
(-5.45156e-05 -3.51799e-05 0.108912)
(-5.2154e-05 3.34444e-05 0.108897)
(-5.20667e-05 -3.35089e-05 0.108894)
(8.31665e-05 -8.32316e-05 0.105763)
(-2.43442e-05 2.43704e-05 0.105887)
(-3.51024e-05 -5.46057e-05 0.108913)
(3.34104e-05 -5.21282e-05 0.108896)
(-3.34285e-05 -5.2159e-05 0.108895)
(2.4346e-05 2.43425e-05 0.105886)
(7.89188e-05 7.88711e-05 0.105663)
(-2.61454e-05 -2.6161e-05 0.105787)
(3.30036e-05 5.13831e-05 0.108888)
(-3.30009e-05 5.13465e-05 0.108887)
(3.13171e-05 4.89519e-05 0.108864)
(-3.13143e-05 4.89182e-05 0.108863)
(-7.89088e-05 7.88735e-05 0.105663)
(2.61635e-05 -2.61637e-05 0.105787)
(5.13604e-05 3.28923e-05 0.108889)
(5.12963e-05 -3.29856e-05 0.108887)
(4.89443e-05 3.12008e-05 0.108865)
(4.88748e-05 -3.12977e-05 0.108863)
(-5.12546e-05 -3.29408e-05 0.108887)
(-4.89265e-05 3.11847e-05 0.108865)
(-4.88312e-05 -3.12507e-05 0.108863)
(7.88841e-05 -7.89524e-05 0.105663)
(-2.61758e-05 2.61867e-05 0.105786)
(-3.28604e-05 -5.13469e-05 0.108888)
(3.11557e-05 -4.88985e-05 0.108865)
(-3.11709e-05 -4.89195e-05 0.108864)
(2.61611e-05 2.61532e-05 0.105785)
(7.48967e-05 7.48441e-05 0.105565)
(-2.78426e-05 -2.78586e-05 0.105689)
(3.07463e-05 4.81462e-05 0.108855)
(-3.07431e-05 4.81136e-05 0.108854)
(2.90659e-05 4.5749e-05 0.108825)
(-2.90615e-05 4.57206e-05 0.108825)
(-7.48637e-05 7.48191e-05 0.105566)
(2.78389e-05 -2.78398e-05 0.105689)
(4.81421e-05 3.06344e-05 0.108856)
(4.80699e-05 -3.07318e-05 0.108854)
(4.57459e-05 2.8961e-05 0.108827)
(4.56743e-05 -2.90492e-05 0.108824)
(-4.80295e-05 -3.06843e-05 0.108854)
(-4.57405e-05 2.89331e-05 0.108827)
(-4.5639e-05 -2.90025e-05 0.108824)
(7.48387e-05 -7.49141e-05 0.105565)
(-2.78521e-05 2.78553e-05 0.105688)
(-3.06146e-05 -4.81165e-05 0.108855)
(2.89036e-05 -4.57015e-05 0.108827)
(-2.89377e-05 -4.5723e-05 0.108826)
(2.78549e-05 2.78542e-05 0.105687)
(7.10573e-05 7.10034e-05 0.105471)
(-2.93625e-05 -2.9381e-05 0.105594)
(2.85035e-05 4.49549e-05 0.108815)
(-2.8504e-05 4.49294e-05 0.108814)
(2.68321e-05 4.25979e-05 0.108781)
(-2.68343e-05 4.25761e-05 0.108781)
(-7.10548e-05 7.10076e-05 0.105471)
(2.94292e-05 -2.94218e-05 0.105594)
(4.49518e-05 2.83978e-05 0.108816)
(4.48862e-05 -2.84927e-05 0.108814)
(4.25969e-05 2.67296e-05 0.108783)
(4.25348e-05 -2.68306e-05 0.10878)
(-4.48506e-05 -2.84432e-05 0.108814)
(-4.2594e-05 2.67122e-05 0.108783)
(-4.25055e-05 -2.67897e-05 0.10878)
(7.10192e-05 -7.11013e-05 0.105471)
(-2.94276e-05 2.94362e-05 0.105593)
(-2.83782e-05 -4.49309e-05 0.108815)
(2.66881e-05 -4.25651e-05 0.108783)
(-2.67207e-05 -4.25743e-05 0.108782)
(2.94044e-05 2.94018e-05 0.105592)
(6.74706e-05 6.74147e-05 0.10538)
(-3.08e-05 -3.08309e-05 0.105502)
(2.62879e-05 4.18226e-05 0.108769)
(-2.62862e-05 4.18029e-05 0.108769)
(2.46606e-05 3.95091e-05 0.108732)
(-2.46523e-05 3.94959e-05 0.108732)
(-6.74591e-05 6.74167e-05 0.105381)
(3.08328e-05 -3.08152e-05 0.105502)
(4.18169e-05 2.61795e-05 0.108771)
(4.17584e-05 -2.62823e-05 0.108768)
(3.95107e-05 2.45434e-05 0.108734)
(3.94577e-05 -2.4653e-05 0.108731)
(-4.17297e-05 -2.62405e-05 0.108769)
(-3.95029e-05 2.45407e-05 0.108735)
(-3.94259e-05 -2.46099e-05 0.108732)
(6.74303e-05 -6.75023e-05 0.10538)
(-3.08465e-05 3.08596e-05 0.105502)
(-2.6173e-05 -4.17949e-05 0.10877)
(2.45226e-05 -3.94892e-05 0.108734)
(-2.45437e-05 -3.94897e-05 0.108733)
(3.08405e-05 3.08372e-05 0.105501)
(6.41045e-05 6.40412e-05 0.105293)
(-3.21341e-05 -3.2176e-05 0.105414)
(2.41213e-05 3.87457e-05 0.10872)
(-2.41174e-05 3.8736e-05 0.108719)
(2.25492e-05 3.64987e-05 0.10868)
(-2.25292e-05 3.64857e-05 0.108679)
(-6.41085e-05 6.40673e-05 0.105293)
(3.21453e-05 -3.21428e-05 0.105415)
(3.87457e-05 2.40057e-05 0.108721)
(3.87015e-05 -2.41201e-05 0.108719)
(3.64947e-05 2.24279e-05 0.108682)
(3.64503e-05 -2.25345e-05 0.108679)
(-3.86642e-05 -2.4067e-05 0.108719)
(-3.64824e-05 2.2442e-05 0.108682)
(-3.64109e-05 -2.24961e-05 0.108679)
(6.40709e-05 -6.41353e-05 0.105293)
(-3.21445e-05 3.21692e-05 0.105414)
(-2.40078e-05 -3.87275e-05 0.10872)
(2.24195e-05 -3.64802e-05 0.108681)
(-2.24339e-05 -3.64698e-05 0.10868)
(3.21455e-05 3.2137e-05 0.105413)
(6.09613e-05 6.09064e-05 0.10521)
(-3.33145e-05 -3.33616e-05 0.10533)
(2.20193e-05 3.57561e-05 0.108667)
(-2.20059e-05 3.57523e-05 0.108666)
(2.05129e-05 3.35551e-05 0.108625)
(-2.04882e-05 3.35627e-05 0.108624)
(-6.09538e-05 6.09001e-05 0.10521)
(3.33281e-05 -3.32956e-05 0.105331)
(3.57425e-05 2.19032e-05 0.108668)
(3.571e-05 -2.20175e-05 0.108665)
(3.35553e-05 2.03998e-05 0.108627)
(3.35214e-05 -2.04905e-05 0.108624)
(-3.56692e-05 -2.19803e-05 0.108666)
(-3.35338e-05 2.04106e-05 0.108627)
(-3.34767e-05 -2.04583e-05 0.108624)
(6.09225e-05 -6.09741e-05 0.105209)
(-3.33505e-05 3.33878e-05 0.10533)
(-2.19156e-05 -3.57265e-05 0.108667)
(2.03985e-05 -3.35353e-05 0.108626)
(-2.0402e-05 -3.35312e-05 0.108625)
(3.33467e-05 3.33377e-05 0.105329)
(5.80009e-05 5.79495e-05 0.10513)
(-3.44028e-05 -3.44372e-05 0.10525)
(2.00089e-05 3.28293e-05 0.108611)
(-1.99932e-05 3.28437e-05 0.10861)
(1.8554e-05 3.06926e-05 0.108568)
(-1.85351e-05 3.07192e-05 0.108568)
(-5.79773e-05 5.79549e-05 0.10513)
(3.43953e-05 -3.43639e-05 0.10525)
(3.28289e-05 1.98993e-05 0.108613)
(3.28015e-05 -1.99899e-05 0.10861)
(3.06924e-05 1.84514e-05 0.10857)
(3.06709e-05 -1.85347e-05 0.108567)
(-3.2755e-05 -1.99561e-05 0.10861)
(-3.06721e-05 1.84687e-05 0.10857)
(-3.06225e-05 -1.85033e-05 0.108567)
(5.79772e-05 -5.80137e-05 0.10513)
(-3.4413e-05 3.4453e-05 0.105249)
(-1.99005e-05 -3.28058e-05 0.108611)
(1.84509e-05 -3.0671e-05 0.10857)
(-1.8447e-05 -3.06645e-05 0.108569)
(3.44121e-05 3.44104e-05 0.105249)
(5.52455e-05 5.52074e-05 0.105054)
(-3.53652e-05 -3.53886e-05 0.105174)
(1.80767e-05 2.99904e-05 0.108554)
(-1.8063e-05 3.00186e-05 0.108553)
(1.66854e-05 2.79192e-05 0.10851)
(-1.66762e-05 2.79462e-05 0.10851)
(-5.52193e-05 5.51963e-05 0.105054)
(3.53845e-05 -3.53592e-05 0.105174)
(2.99873e-05 1.79767e-05 0.108556)
(2.99704e-05 -1.80589e-05 0.108553)
(2.7911e-05 1.65928e-05 0.108512)
(2.78991e-05 -1.66707e-05 0.108509)
(-2.99211e-05 -1.80209e-05 0.108553)
(-2.78924e-05 1.66138e-05 0.108513)
(-2.78545e-05 -1.664e-05 0.108509)
(5.52227e-05 -5.52565e-05 0.105054)
(-3.54004e-05 3.54375e-05 0.105173)
(-1.79719e-05 -2.9961e-05 0.108554)
(1.65993e-05 -2.78927e-05 0.108512)
(-1.6593e-05 -2.7885e-05 0.108511)
(3.53864e-05 3.53961e-05 0.105172)
(5.26701e-05 5.26463e-05 0.104982)
(-3.62671e-05 -3.62756e-05 0.105101)
(1.62367e-05 2.72407e-05 0.108496)
(-1.6224e-05 2.72638e-05 0.108495)
(1.49248e-05 2.52381e-05 0.108452)
(-1.49122e-05 2.52554e-05 0.108451)
(-5.26562e-05 5.26292e-05 0.104982)
(3.62649e-05 -3.62455e-05 0.105101)
(2.72295e-05 1.61468e-05 0.108497)
(2.72209e-05 -1.62186e-05 0.108494)
(2.52207e-05 1.48487e-05 0.108454)
(2.52162e-05 -1.49081e-05 0.108451)
(-2.71746e-05 -1.6187e-05 0.108495)
(-2.52036e-05 1.48521e-05 0.108454)
(-2.51742e-05 -1.48759e-05 0.108451)
(5.26499e-05 -5.26859e-05 0.104982)
(-3.62876e-05 3.63173e-05 0.1051)
(-1.6142e-05 -2.72046e-05 0.108496)
(1.4846e-05 -2.52057e-05 0.108453)
(-1.48412e-05 -2.51965e-05 0.108452)
(3.62702e-05 3.62892e-05 0.1051)
(5.02617e-05 5.02552e-05 0.104914)
(-3.70628e-05 -3.70585e-05 0.105032)
(1.44943e-05 2.45795e-05 0.108438)
(-1.44911e-05 2.45964e-05 0.108437)
(1.32579e-05 2.26463e-05 0.108394)
(-1.32564e-05 2.26587e-05 0.108393)
(-5.02594e-05 5.0227e-05 0.104914)
(3.7041e-05 -3.70241e-05 0.105032)
(2.45592e-05 1.44262e-05 0.108439)
(2.45567e-05 -1.44818e-05 0.108436)
(2.26189e-05 1.32022e-05 0.108396)
(2.26197e-05 -1.32506e-05 0.108393)
(-2.45171e-05 -1.44485e-05 0.108437)
(-2.26101e-05 1.32032e-05 0.108396)
(-2.25888e-05 -1.32248e-05 0.108393)
(5.02532e-05 -5.02948e-05 0.104913)
(-3.70641e-05 3.70813e-05 0.105031)
(-1.4418e-05 -2.45371e-05 0.108438)
(1.31862e-05 -2.26116e-05 0.108395)
(-1.31915e-05 -2.26e-05 0.108394)
(3.70524e-05 3.70677e-05 0.105031)
(4.80226e-05 4.80287e-05 0.104849)
(-3.77546e-05 -3.77372e-05 0.104967)
(1.28574e-05 2.20153e-05 0.10838)
(-1.28605e-05 2.20243e-05 0.108379)
(1.1692e-05 2.0162e-05 0.108337)
(-1.17049e-05 2.01632e-05 0.108336)
(-4.80281e-05 4.79959e-05 0.104849)
(3.77477e-05 -3.77384e-05 0.104967)
(2.19827e-05 1.28011e-05 0.108381)
(2.19847e-05 -1.28498e-05 0.108378)
(2.01214e-05 1.16519e-05 0.108338)
(2.01265e-05 -1.16969e-05 0.108335)
(-2.19532e-05 -1.28191e-05 0.108379)
(-2.01176e-05 1.16394e-05 0.108339)
(-2.01003e-05 -1.16703e-05 0.108336)
(4.80249e-05 -4.80762e-05 0.104848)
(-3.77735e-05 3.77787e-05 0.104966)
(-1.27914e-05 -2.1962e-05 0.10838)
(1.16271e-05 -2.01217e-05 0.108338)
(-1.16451e-05 -2.01053e-05 0.108337)
(3.77562e-05 3.77786e-05 0.104966)
(4.59494e-05 4.59688e-05 0.104788)
(1.13195e-05 1.95538e-05 0.108322)
(-1.13247e-05 1.95516e-05 0.108322)
(-4.59738e-05 4.59376e-05 0.104788)
(1.95102e-05 1.12775e-05 0.108324)
(1.95167e-05 -1.132e-05 0.108321)
(-1.94914e-05 -1.12896e-05 0.108321)
(4.59333e-05 -4.59945e-05 0.104787)
(-1.12683e-05 -1.94947e-05 0.108323)
(8.60981e-07 6.98639e-06 0.0937511)
(-1.26657e-06 3.06978e-05 0.0833539)
(-3.99595e-06 -6.01652e-06 0.0833632)
(1.54708e-06 5.28726e-05 0.0937675)
(-3.50027e-06 1.42368e-05 0.0720083)
(5.40032e-06 -5.74783e-06 0.0720492)
(6.95559e-06 9.07775e-07 0.0937511)
(3.06667e-05 -1.22757e-06 0.0833541)
(-6.06348e-06 -3.95504e-06 0.0833635)
(5.28346e-05 1.58248e-06 0.0937675)
(-5.98004e-05 5.97863e-05 0.109207)
(5.9781e-05 -5.98512e-05 0.109207)
(-5.97588e-05 -5.98199e-05 0.109207)
(5.88698e-05 5.88452e-05 0.109424)
(-5.88656e-05 5.88443e-05 0.109424)
(5.88384e-05 -5.89135e-05 0.109424)
(-5.88235e-05 -5.88881e-05 0.109424)
(-4.27532e-05 2.91369e-06 0.102218)
(-6.0679e-05 2.41669e-05 0.0954236)
(-0.000100174 1.95269e-05 0.108864)
(-8.90752e-05 5.54867e-05 0.108186)
(-1.79811e-05 -1.54357e-06 0.0954472)
(-9.97763e-05 1.93933e-05 0.108926)
(-0.000103771 4.76941e-06 0.102196)
(1.42174e-05 -3.51565e-06 0.0720085)
(-5.71238e-06 5.44202e-06 0.0720484)
(2.85254e-06 -4.27919e-05 0.102216)
(1.95599e-05 -0.00010027 0.108863)
(2.42284e-05 -6.06998e-05 0.0954245)
(5.54586e-05 -8.91603e-05 0.108186)
(1.94193e-05 -9.98786e-05 0.108926)
(-1.47224e-06 -1.79122e-05 0.0954451)
(4.80055e-06 -0.000103873 0.102196)
(-2.98035e-05 -1.63441e-05 0.089139)
(-1.62956e-05 -2.98126e-05 0.0891383)
(-5.6961e-06 -5.65223e-06 0.106839)
(-8.84803e-06 3.61185e-06 0.0891501)
(3.60811e-06 -8.85935e-06 0.0891471)
(5.9566e-07 4.22176e-06 0.0934791)
(-1.1498e-06 2.89278e-05 0.0831544)
(1.28415e-06 4.86932e-05 0.0934879)
(-3.85448e-06 -6.75157e-06 0.0831691)
(-3.47982e-06 1.3663e-05 0.0718718)
(5.18279e-06 -5.74163e-06 0.0719154)
(4.23423e-06 6.58979e-07 0.0934792)
(2.88795e-05 -1.09429e-06 0.0831546)
(4.86627e-05 1.33062e-06 0.0934879)
(-6.80883e-06 -3.78517e-06 0.0831695)
(-5.8554e-05 5.8533e-05 0.109495)
(5.8527e-05 -5.85994e-05 0.109495)
(-5.85106e-05 -5.85752e-05 0.109495)
(5.76247e-05 5.76119e-05 0.109705)
(-5.76186e-05 5.76001e-05 0.109705)
(5.75939e-05 -5.76593e-05 0.109705)
(-5.75751e-05 -5.76481e-05 0.109705)
(-3.66023e-05 2.22471e-06 0.101946)
(-5.68455e-05 2.2404e-05 0.0951544)
(-9.86114e-05 1.89904e-05 0.109108)
(-8.68047e-05 5.42344e-05 0.10834)
(-9.68015e-05 3.98517e-06 0.101925)
(-1.46772e-05 -2.37821e-06 0.0951814)
(-9.82034e-05 1.88553e-05 0.109166)
(1.36328e-05 -3.48482e-06 0.0718719)
(-5.7074e-06 5.24274e-06 0.0719145)
(2.19349e-06 -3.66972e-05 0.101944)
(1.90214e-05 -9.87032e-05 0.109107)
(2.24619e-05 -5.69055e-05 0.0951553)
(5.4209e-05 -8.68575e-05 0.10834)
(4.07736e-06 -9.69002e-05 0.101924)
(1.8886e-05 -9.82926e-05 0.109166)
(-2.30528e-06 -1.46634e-05 0.0951794)
(-2.78705e-05 -1.54383e-05 0.08891)
(-1.53891e-05 -2.78927e-05 0.0889092)
(-3.10705e-06 -3.07644e-06 0.106839)
(-7.12212e-06 3.96317e-06 0.0889262)
(3.98975e-06 -7.13662e-06 0.0889231)
(3.63424e-07 2.22795e-06 0.0932333)
(-1.0543e-06 2.74979e-05 0.0829742)
(1.03208e-06 4.52587e-05 0.0932355)
(-3.78037e-06 -7.2173e-06 0.0829937)
(-3.49575e-06 1.31917e-05 0.0717479)
(4.97184e-06 -5.72627e-06 0.0717938)
(2.23514e-06 4.37415e-07 0.0932335)
(2.74454e-05 -9.86943e-07 0.0829745)
(4.52594e-05 1.09185e-06 0.0932356)
(-7.2708e-06 -3.71348e-06 0.082994)
(-5.73022e-05 5.72863e-05 0.109774)
(5.7279e-05 -5.73419e-05 0.109774)
(-5.72594e-05 -5.73305e-05 0.109774)
(5.6332e-05 5.63258e-05 0.109977)
(-5.63313e-05 5.63127e-05 0.109977)
(5.62979e-05 -5.63516e-05 0.109977)
(-5.62853e-05 -5.63449e-05 0.109977)
(-3.07189e-05 1.8276e-06 0.101679)
(-5.33701e-05 2.08126e-05 0.0949053)
(-9.70224e-05 1.84733e-05 0.109338)
(-8.4377e-05 5.29713e-05 0.108476)
(-9.00172e-05 3.42262e-06 0.101657)
(-1.17794e-05 -3.03121e-06 0.0949357)
(-9.65942e-05 1.83419e-05 0.109393)
(1.31711e-05 -3.49538e-06 0.0717479)
(-5.66893e-06 5.05691e-06 0.0717929)
(1.79771e-06 -3.07803e-05 0.101677)
(1.84986e-05 -9.70841e-05 0.109338)
(2.08959e-05 -5.34338e-05 0.0949062)
(5.29408e-05 -8.44173e-05 0.108476)
(3.53202e-06 -9.01383e-05 0.101657)
(1.83694e-05 -9.66625e-05 0.109393)
(-2.98262e-06 -1.17442e-05 0.0949337)
(-2.60941e-05 -1.46165e-05 0.0887017)
(-1.46084e-05 -2.60832e-05 0.0887008)
(-6.16401e-07 -5.90479e-07 0.106816)
(-5.53469e-06 4.26691e-06 0.0887222)
(4.26865e-06 -5.53112e-06 0.0887192)
(1.37765e-07 6.643e-07 0.0930107)
(-1.0937e-06 2.62795e-05 0.0828113)
(7.8917e-07 4.24371e-05 0.0930073)
(-3.83383e-06 -7.30255e-06 0.0828349)
(-3.54009e-06 1.27387e-05 0.0716355)
(4.83198e-06 -5.66194e-06 0.0716833)
(6.60503e-07 2.12706e-07 0.093011)
(2.62306e-05 -1.04025e-06 0.0828116)
(4.24398e-05 8.52595e-07 0.0930074)
(-7.33962e-06 -3.77938e-06 0.0828352)
(-5.59983e-05 5.59815e-05 0.110044)
(5.59655e-05 -5.60191e-05 0.110044)
(-5.59579e-05 -5.60126e-05 0.110043)
(5.49811e-05 5.49836e-05 0.110239)
(-5.49839e-05 5.49712e-05 0.110239)
(5.49497e-05 -5.4993e-05 0.110239)
(-5.49448e-05 -5.4993e-05 0.110239)
(-2.54051e-05 1.48685e-06 0.10142)
(-5.03172e-05 1.94207e-05 0.0946754)
(-9.52633e-05 1.79643e-05 0.109554)
(-8.18246e-05 5.16384e-05 0.108593)
(-8.36696e-05 3.00385e-06 0.101398)
(-9.23072e-06 -3.51305e-06 0.0947087)
(-9.47834e-05 1.78337e-05 0.109606)
(1.27411e-05 -3.49963e-06 0.0716354)
(-5.60045e-06 4.94671e-06 0.0716824)
(1.44071e-06 -2.54449e-05 0.101419)
(1.79879e-05 -9.53087e-05 0.109554)
(1.94761e-05 -5.03618e-05 0.0946762)
(5.15967e-05 -8.18194e-05 0.108593)
(3.1092e-06 -8.37616e-05 0.101397)
(1.78613e-05 -9.48294e-05 0.109606)
(-3.46092e-06 -9.18337e-06 0.0947069)
(-2.44531e-05 -1.38482e-05 0.088512)
(-1.3868e-05 -2.44314e-05 0.0885112)
(1.85591e-06 1.88706e-06 0.106772)
(-4.13034e-06 4.42458e-06 0.0885364)
(4.44155e-06 -4.10439e-06 0.0885335)
(-8.6558e-08 -6.30948e-07 0.0928087)
(-1.16034e-06 2.53369e-05 0.0826639)
(5.62076e-07 3.99928e-05 0.0928004)
(-3.87852e-06 -7.20029e-06 0.0826911)
(-3.52487e-06 1.23683e-05 0.0715334)
(4.77438e-06 -5.56397e-06 0.0715829)
(-6.33775e-07 -1.71857e-09 0.092809)
(2.53097e-05 -1.11704e-06 0.0826641)
(3.99944e-05 6.27583e-07 0.0928006)
(-7.22447e-06 -3.83519e-06 0.0826914)
(-5.46374e-05 5.46264e-05 0.110303)
(5.46076e-05 -5.46446e-05 0.110303)
(-5.46013e-05 -5.46464e-05 0.110303)
(5.35765e-05 5.35837e-05 0.110492)
(-5.35851e-05 5.35741e-05 0.110492)
(5.35561e-05 -5.35817e-05 0.110491)
(-5.35511e-05 -5.35832e-05 0.110491)
(-2.0618e-05 1.20985e-06 0.101174)
(-4.75575e-05 1.8163e-05 0.0944633)
(-9.32788e-05 1.74576e-05 0.109756)
(-7.91181e-05 5.02116e-05 0.108692)
(-7.78173e-05 2.637e-06 0.101149)
(-7.02161e-06 -3.9741e-06 0.0944995)
(-9.27357e-05 1.73283e-05 0.109803)
(1.23687e-05 -3.49088e-06 0.0715333)
(-5.50022e-06 4.88983e-06 0.0715821)
(1.14839e-06 -2.06395e-05 0.101172)
(1.74783e-05 -9.33041e-05 0.109755)
(1.8235e-05 -4.75903e-05 0.0944642)
(5.01628e-05 -7.90931e-05 0.108692)
(2.73448e-06 -7.78884e-05 0.101149)
(1.73472e-05 -9.27618e-05 0.109803)
(-3.90002e-06 -6.96931e-06 0.0944977)
(-2.29666e-05 -1.31726e-05 0.0883393)
(-1.32162e-05 -2.29281e-05 0.0883385)
(4.36193e-06 4.39241e-06 0.106712)
(-2.91721e-06 4.53421e-06 0.0883671)
(4.50941e-06 -2.87755e-06 0.0883643)
(-2.24299e-07 -1.71613e-06 0.0926248)
(-1.23973e-06 2.45211e-05 0.0825304)
(3.4023e-07 3.78029e-05 0.0926123)
(-3.94679e-06 -7.15009e-06 0.0825607)
(-3.50102e-06 1.20182e-05 0.0714407)
(4.6774e-06 -5.52101e-06 0.0714918)
(-1.71264e-06 -1.54819e-07 0.092625)
(2.45022e-05 -1.20836e-06 0.0825306)
(3.78125e-05 4.08404e-07 0.0926124)