/*--------------------------------*- C++ -*----------------------------------*\
| =========                 |                                                 |
| \\      /  F ield         | OpenFOAM: The Open Source CFD Toolbox           |
|  \\    /   O peration     | Version:  2312                                  |
|   \\  /    A nd           | Website:  www.openfoam.com                      |
|    \\/     M anipulation  |                                                 |
\*---------------------------------------------------------------------------*/
FoamFile
{
    version     2.0;
    format      ascii;
    arch        "LSB;label=32;scalar=64";
    class       volScalarField;
    location    "850";
    object      nut;
}
// * * * * * * * * * * * * * * * * * * * * * * * * * * * * * * * * * * * * * //

dimensions      [0 2 -1 0 0 0 0];

internalField   nonuniform List<scalar> 
43008
(
0.000158327
0.00010854
0.00015417
0.000104789
0.000104782
8.35347e-05
8.512e-05
8.40108e-05
0.000108515
0.000108503
0.00010563
0.000105618
8.38795e-05
0.000108537
0.000108502
0.000105653
0.000105617
0.00010566
0.000105624
8.50878e-05
8.4036e-05
0.000108524
0.000105653
0.000105638
8.37412e-05
8.33787e-05
0.000104757
0.000104746
8.34641e-05
0.000104779
0.000104745
0.000104753
8.33453e-05
0.000104768
6.51214e-05
4.95121e-05
6.39826e-05
4.95181e-05
2.36522e-05
6.51411e-05
4.95071e-05
6.39622e-05
4.95126e-05
0.000158325
0.00015832
0.000158314
0.000155202
0.0001552
0.000155194
0.000155189
6.15931e-05
0.000107543
6.22913e-05
0.000133383
2.36554e-05
2.36511e-05
6.16107e-05
0.000134454
6.16344e-05
0.000107536
6.08698e-05
0.000133375
6.23021e-05
8.46157e-05
5.93206e-05
5.93222e-05
6.77195e-05
4.95373e-05
6.67011e-05
4.95425e-05
2.36419e-05
2.3638e-05
6.7745e-05
4.95321e-05
6.66825e-05
4.95365e-05
0.000154168
0.000154161
0.000154157
6.41617e-05
6.37375e-05
0.000130148
0.000103915
6.33137e-05
6.43814e-05
0.000129104
2.3641e-05
2.36371e-05
6.41299e-05
0.000130133
6.3738e-05
0.00010391
6.33172e-05
0.000129092
6.44213e-05
6.00761e-05
6.0077e-05
8.30057e-05
6.0449e-05
6.04222e-05
2.36583e-05
2.36546e-05
2.3656e-05
2.36519e-05
5.89302e-05
5.89479e-05
8.48656e-05
5.9344e-05
5.93259e-05
2.36473e-05
2.36514e-05
2.36448e-05
2.36489e-05
8.41403e-05
5.99085e-05
5.98912e-05
5.95134e-05
5.95289e-05
6.51268e-05
4.95063e-05
6.39759e-05
4.9512e-05
6.16559e-05
6.16327e-05
0.000134458
0.000107513
6.08049e-05
6.22964e-05
0.000133375
6.16445e-05
6.16283e-05
0.000134448
0.0001075
6.0846e-05
6.22869e-05
0.000133368
6.53789e-05
4.95313e-05
4.95246e-05
6.64616e-05
6.53728e-05
4.95243e-05
4.95187e-05
6.64696e-05
6.20156e-05
0.000106583
6.33639e-05
0.000131217
6.26947e-05
0.000132281
6.29001e-05
6.20287e-05
0.000106572
6.33517e-05
0.000131212
6.26898e-05
0.000132274
6.28667e-05
8.47149e-05
5.93222e-05
5.93268e-05
2.36533e-05
2.36449e-05
2.36491e-05
8.42522e-05
5.98848e-05
5.98912e-05
5.95224e-05
5.95287e-05
2.36464e-05
2.36502e-05
6.16218e-05
6.16316e-05
0.000134455
0.000107535
6.08441e-05
6.22975e-05
0.000133375
6.51293e-05
4.95031e-05
6.39665e-05
4.95089e-05
6.15885e-05
0.000134446
6.1628e-05
0.000107499
6.0856e-05
0.000133364
6.22899e-05
6.53592e-05
4.95253e-05
4.95197e-05
6.64809e-05
6.20445e-05
0.000106605
6.33612e-05
0.000131217
6.26897e-05
0.000132279
6.2861e-05
6.5367e-05
4.95215e-05
4.95155e-05
6.64653e-05
6.20601e-05
0.00010657
0.000131208
6.3342e-05
0.000132269
6.26868e-05
6.2843e-05
6.50854e-05
4.95138e-05
6.16182e-05
0.000107506
0.000133377
6.22949e-05
6.51127e-05
4.95097e-05
6.20552e-05
0.000106615
6.33468e-05
0.000131226
6.26864e-05
0.000132292
6.28534e-05
6.53918e-05
4.95263e-05
4.95201e-05
6.64493e-05
6.20346e-05
0.000106578
0.000131218
6.33944e-05
0.00013228
6.26772e-05
6.28648e-05
6.53785e-05
4.95223e-05
4.95159e-05
6.6455e-05
5.89414e-05
5.89487e-05
8.48549e-05
5.93205e-05
5.93287e-05
2.36576e-05
2.36533e-05
2.3644e-05
2.36481e-05
8.41087e-05
5.98847e-05
5.98934e-05
5.95225e-05
5.95306e-05
2.36461e-05
2.36503e-05
6.16302e-05
0.000134448
6.16266e-05
0.000107519
6.08211e-05
0.000133371
6.22965e-05
6.51105e-05
4.95082e-05
6.39882e-05
4.95136e-05
6.51119e-05
4.95021e-05
6.3985e-05
4.95083e-05
6.20488e-05
0.000106607
0.000131216
6.33545e-05
0.000132277
6.26933e-05
6.28504e-05
6.20248e-05
0.000106593
0.000131211
6.33469e-05
0.000132274
6.26867e-05
6.28844e-05
6.5388e-05
4.95264e-05
4.9521e-05
6.64507e-05
6.5383e-05
4.95209e-05
4.95148e-05
6.64485e-05
2.36518e-05
2.36507e-05
8.43078e-05
5.98848e-05
5.98859e-05
5.95214e-05
5.95224e-05
2.36447e-05
2.36488e-05
2.36436e-05
2.36477e-05
2.36441e-05
2.36403e-05
2.36418e-05
2.3638e-05
6.00686e-05
6.00815e-05
8.34256e-05
6.04537e-05
6.04552e-05
6.77245e-05
4.95306e-05
6.6693e-05
4.95359e-05
6.42023e-05
6.3723e-05
0.000130137
0.000103887
6.32939e-05
6.44203e-05
0.000129095
6.41767e-05
6.37185e-05
0.000130131
0.000103872
6.33147e-05
6.44083e-05
0.00012909
6.00752e-05
6.00825e-05
8.33563e-05
6.04504e-05
6.04329e-05
2.36434e-05
2.36396e-05
6.41541e-05
6.37182e-05
0.000130135
0.00010391
6.33214e-05
6.44242e-05
0.000129095
6.77291e-05
4.95276e-05
6.66923e-05
4.95328e-05
6.41419e-05
0.000130125
6.37298e-05
0.000103875
6.33288e-05
0.000129086
6.43624e-05
6.77158e-05
4.95328e-05
6.67016e-05
4.95378e-05
6.42311e-05
0.000130138
6.36976e-05
0.000103878
6.3301e-05
0.000129096
6.44245e-05
6.77333e-05
4.95283e-05
6.66973e-05
4.95335e-05
6.00759e-05
6.00837e-05
8.33256e-05
6.04218e-05
6.04307e-05
2.36432e-05
2.36393e-05
6.41468e-05
0.00013013
6.3731e-05
0.000103893
6.32985e-05
0.00012909
6.43858e-05
6.77047e-05
4.95328e-05
6.67105e-05
4.95378e-05
6.77297e-05
4.9527e-05
6.67061e-05
4.95324e-05
2.36417e-05
2.36379e-05
2.36406e-05
2.36367e-05
3.61705e-05
6.46916e-05
4.03051e-05
6.75486e-05
4.03029e-05
6.71578e-05
3.61734e-05
2.02411e-05
6.67587e-05
4.95118e-05
2.02406e-05
6.69321e-05
3.61703e-05
6.44224e-05
4.03009e-05
6.66379e-05
3.61676e-05
4.03027e-05
6.70385e-05
2.02378e-05
6.71441e-05
4.95183e-05
6.69845e-05
2.02383e-05
2.36558e-05
2.36528e-05
3.61704e-05
6.46684e-05
6.75456e-05
4.03047e-05
6.7154e-05
4.03024e-05
3.61732e-05
2.02414e-05
6.67526e-05
4.95063e-05
2.02409e-05
6.69323e-05
3.61701e-05
6.44429e-05
6.66352e-05
4.03005e-05
3.61674e-05
6.70373e-05
4.03023e-05
2.02381e-05
6.71391e-05
4.95132e-05
6.69722e-05
2.02386e-05
2.36547e-05
2.36517e-05
6.9316e-05
2.1579e-05
2.15758e-05
2.15789e-05
2.15757e-05
6.94726e-05
7.01572e-05
5.90283e-05
6.60107e-05
4.70367e-05
7.02026e-05
5.90291e-05
6.60163e-05
4.70295e-05
6.92608e-05
2.15823e-05
2.15792e-05
7.05187e-05
4.70532e-05
5.92348e-05
6.6664e-05
6.6479e-05
4.70483e-05
7.06625e-05
7.05675e-05
4.70459e-05
5.92359e-05
6.66688e-05
6.64953e-05
4.70368e-05
7.07054e-05
3.6184e-05
6.73374e-05
4.03208e-05
6.94398e-05
4.0321e-05
6.90819e-05
3.6187e-05
2.02299e-05
6.7602e-05
4.95372e-05
2.02294e-05
6.77551e-05
3.61835e-05
6.71061e-05
4.03144e-05
6.86201e-05
3.61804e-05
4.03168e-05
6.8993e-05
2.02266e-05
6.79426e-05
4.95431e-05
6.78019e-05
2.0227e-05
2.36414e-05
2.36383e-05
3.61838e-05
6.73135e-05
6.94414e-05
4.03206e-05
6.90758e-05
4.03202e-05
3.61869e-05
2.02301e-05
6.7604e-05
4.95313e-05
2.02296e-05
6.7749e-05
3.61834e-05
6.71229e-05
6.86178e-05
4.03136e-05
3.61803e-05
6.89906e-05
4.03167e-05
2.02268e-05
6.79353e-05
4.95378e-05
6.77991e-05
2.02272e-05
2.36405e-05
2.36376e-05
7.01186e-05
2.15655e-05
2.15624e-05
2.15654e-05
2.15623e-05
7.02624e-05
7.2099e-05
6.84212e-05
4.70955e-05
6.01585e-05
7.19442e-05
6.86004e-05
4.70996e-05
7.21608e-05
6.84316e-05
4.70843e-05
6.0158e-05
7.19886e-05
6.86183e-05
4.70923e-05
7.00743e-05
2.15688e-05
2.15656e-05
6.99266e-05
2.15689e-05
2.15657e-05
7.24208e-05
4.71132e-05
6.03342e-05
6.92353e-05
6.90602e-05
4.711e-05
7.2546e-05
7.24532e-05
4.71063e-05
6.03434e-05
6.92618e-05
6.907e-05
4.70992e-05
7.26222e-05
2.36581e-05
2.3655e-05
2.36554e-05
2.36524e-05
6.93219e-05
2.15796e-05
2.15764e-05
2.15795e-05
2.15763e-05
6.94768e-05
7.01651e-05
6.5816e-05
4.70344e-05
5.90529e-05
7.00212e-05
4.70395e-05
6.60303e-05
7.02068e-05
6.58222e-05
4.70234e-05
5.90359e-05
7.00675e-05
4.70285e-05
6.60461e-05
6.92628e-05
2.15828e-05
2.15796e-05
6.91065e-05
2.1583e-05
2.15797e-05
7.05193e-05
4.7056e-05
5.92247e-05
6.66787e-05
4.70505e-05
7.06633e-05
6.64728e-05
7.05656e-05
4.70448e-05
5.92393e-05
6.66903e-05
4.70398e-05
7.07086e-05
6.64692e-05
2.36478e-05
2.3651e-05
2.36453e-05
2.36484e-05
6.96821e-05
2.15762e-05
2.15729e-05
6.95332e-05
2.15765e-05
2.1573e-05
7.14956e-05
6.79693e-05
5.97921e-05
4.70885e-05
4.70831e-05
6.77769e-05
7.16317e-05
7.15406e-05
6.799e-05
5.98094e-05
4.70772e-05
4.70721e-05
6.77695e-05
7.1675e-05
7.11465e-05
4.70672e-05
6.71174e-05
5.96301e-05
7.10124e-05
4.70732e-05
6.73206e-05
7.1191e-05
4.70563e-05
6.7119e-05
5.96166e-05
7.10572e-05
4.7062e-05
6.73395e-05
6.97386e-05
2.15733e-05
2.15696e-05
2.15732e-05
2.15696e-05
6.98839e-05
3.61687e-05
6.46844e-05
4.03048e-05
6.75482e-05
4.03026e-05
6.71405e-05
3.61717e-05
2.02402e-05
6.67308e-05
4.95058e-05
2.02398e-05
6.69178e-05
3.61686e-05
6.44261e-05
4.03006e-05
6.66223e-05
4.03024e-05
3.61658e-05
6.70397e-05
2.02369e-05
6.71303e-05
4.95123e-05
6.69521e-05
2.02374e-05
3.61766e-05
4.03056e-05
6.76593e-05
6.5807e-05
3.61736e-05
4.03084e-05
6.80461e-05
2.02322e-05
4.95317e-05
6.75552e-05
2.02327e-05
6.74102e-05
2.02355e-05
6.71932e-05
4.95256e-05
2.0235e-05
6.73601e-05
3.6177e-05
6.60485e-05
4.03124e-05
6.85267e-05
3.61801e-05
4.03094e-05
6.81472e-05
3.6175e-05
4.03053e-05
6.76442e-05
6.5811e-05
3.61719e-05
4.03081e-05
6.8043e-05
2.02314e-05
4.95255e-05
6.75364e-05
6.73836e-05
2.02318e-05
2.02346e-05
6.71708e-05
4.95188e-05
2.02341e-05
6.73397e-05
3.61752e-05
6.6042e-05
4.03124e-05
6.85244e-05
4.0309e-05
6.81324e-05
3.61784e-05
6.93175e-05
2.15764e-05
2.15794e-05
2.15763e-05
2.15792e-05
6.9481e-05
7.02396e-05
5.90305e-05
4.7033e-05
6.60523e-05
7.02009e-05
5.90349e-05
6.6056e-05
4.70431e-05
6.92687e-05
2.15796e-05
2.15825e-05
7.05348e-05
4.70495e-05
5.92341e-05
6.67065e-05
4.70339e-05
6.64592e-05
7.07336e-05
7.04874e-05
4.70597e-05
5.92425e-05
6.6701e-05
6.64545e-05
4.70441e-05
7.06869e-05
2.3657e-05
2.36538e-05
2.36455e-05
2.36485e-05
6.96869e-05
2.15729e-05
2.15758e-05
6.95275e-05
2.15731e-05
2.1576e-05
7.15099e-05
6.80059e-05
5.98029e-05
4.70814e-05
6.77469e-05
4.70657e-05
7.16993e-05
7.14643e-05
6.79945e-05
5.98097e-05
4.70911e-05
4.70759e-05
6.77499e-05
7.16595e-05
7.12273e-05
4.70507e-05
6.71047e-05
5.96098e-05
6.73566e-05
7.10286e-05
4.70651e-05
7.11881e-05
4.7061e-05
6.71032e-05
5.9617e-05
7.09857e-05
4.70752e-05
6.73456e-05
6.97313e-05
2.15698e-05
2.15726e-05
2.15696e-05
2.15725e-05
6.9887e-05
2.36469e-05
2.365e-05
3.61685e-05
6.46784e-05
4.03044e-05
6.7543e-05
4.03022e-05
6.71396e-05
3.61715e-05
2.02404e-05
6.6736e-05
4.95025e-05
2.02399e-05
6.6905e-05
3.61684e-05
6.44297e-05
4.03002e-05
6.66215e-05
4.0302e-05
3.61656e-05
6.70329e-05
2.02371e-05
6.712e-05
4.95091e-05
6.69572e-05
2.02376e-05
3.61765e-05
6.76557e-05
4.03051e-05
6.58224e-05
3.61735e-05
6.80432e-05
4.03081e-05
2.02325e-05
4.95263e-05
6.75554e-05
2.02329e-05
6.73976e-05
2.02358e-05
6.71946e-05
4.95198e-05
2.02353e-05
6.73583e-05
3.61768e-05
6.6032e-05
6.85205e-05
4.03122e-05
3.61799e-05
6.81435e-05
4.03088e-05
3.61748e-05
4.0305e-05
6.76422e-05
6.58054e-05
3.61717e-05
4.03077e-05
6.80404e-05
2.02315e-05
4.95225e-05
6.75317e-05
6.73839e-05
2.02319e-05
2.02348e-05
6.71668e-05
4.95159e-05
2.02343e-05
6.73344e-05
3.61751e-05
6.60417e-05
4.03118e-05
6.85211e-05
4.03088e-05
6.81296e-05
3.61782e-05
3.61702e-05
6.47109e-05
6.75156e-05
4.03039e-05
6.71664e-05
4.03018e-05
3.61731e-05
2.02381e-05
6.7137e-05
4.95148e-05
6.69603e-05
2.02387e-05
3.61689e-05
6.46918e-05
4.03046e-05
6.75433e-05
4.03025e-05
6.71418e-05
3.61717e-05
2.02371e-05
6.71206e-05
4.95105e-05
6.69525e-05
2.02376e-05
3.61764e-05
6.76682e-05
4.03045e-05
6.57845e-05
3.61734e-05
6.80128e-05
4.03073e-05
2.02325e-05
4.95275e-05
6.75474e-05
6.73879e-05
2.0233e-05
2.02359e-05
6.71808e-05
4.95207e-05
2.02353e-05
6.73482e-05
3.61767e-05
6.60534e-05
6.84953e-05
4.03117e-05
6.81539e-05
4.0308e-05
3.61798e-05
3.6175e-05
4.03052e-05
6.76451e-05
6.57937e-05
3.6172e-05
4.0308e-05
6.80368e-05
2.02315e-05
4.95228e-05
6.75309e-05
6.73761e-05
2.02319e-05
2.02348e-05
6.71717e-05
4.95164e-05
2.02343e-05
6.73264e-05
3.61753e-05
6.60491e-05
4.03123e-05
6.8519e-05
4.03088e-05
6.81328e-05
3.61784e-05
6.93148e-05
2.15767e-05
2.15798e-05
2.15765e-05
2.15797e-05
6.94794e-05
7.02143e-05
6.58194e-05
4.70178e-05
5.90293e-05
4.70333e-05
7.00606e-05
6.60418e-05
7.01624e-05
6.58292e-05
4.70342e-05
5.90364e-05
6.60164e-05
7.00247e-05
4.704e-05
6.9267e-05
2.15799e-05
2.1583e-05
2.15801e-05
6.90975e-05
2.15832e-05
7.05603e-05
4.70498e-05
5.92328e-05
6.66912e-05
4.70348e-05
6.64774e-05
7.0717e-05
7.05258e-05
4.70563e-05
5.92408e-05
6.66698e-05
6.64857e-05
4.70508e-05
7.06613e-05
2.36569e-05
2.36539e-05
2.36445e-05
2.36475e-05
6.9685e-05
2.15732e-05
2.15763e-05
6.95263e-05
2.15733e-05
2.15764e-05
7.15308e-05
6.79869e-05
5.9803e-05
4.70777e-05
6.77824e-05
4.70712e-05
7.16839e-05
7.14991e-05
6.7972e-05
5.98113e-05
4.70884e-05
4.70828e-05
6.77898e-05
7.16356e-05
7.12053e-05
4.70511e-05
6.71204e-05
5.96099e-05
6.73304e-05
7.10504e-05
4.70648e-05
7.11461e-05
4.70673e-05
6.71257e-05
5.96177e-05
7.10171e-05
4.70731e-05
6.73154e-05
6.97309e-05
2.15699e-05
2.1573e-05
2.15698e-05
2.15729e-05
6.98849e-05
2.36467e-05
2.36497e-05
3.61705e-05
6.46988e-05
6.75435e-05
4.0304e-05
6.71578e-05
4.03019e-05
3.61734e-05
2.02419e-05
6.67573e-05
4.95074e-05
6.69217e-05
2.02414e-05
3.61703e-05
6.44108e-05
6.66413e-05
4.03e-05
6.70323e-05
3.61676e-05
4.03017e-05
2.02386e-05
6.71399e-05
4.95142e-05
6.69769e-05
2.02391e-05
3.61678e-05
6.46942e-05
6.75439e-05
4.03035e-05
6.71412e-05
4.03014e-05
3.61707e-05
2.02401e-05
6.67314e-05
4.95019e-05
2.02395e-05
6.69101e-05
3.61676e-05
6.44104e-05
6.6623e-05
4.02994e-05
3.61649e-05
6.70332e-05
4.03012e-05
2.02367e-05
6.71288e-05
4.95083e-05
6.69478e-05
2.02373e-05
3.61766e-05
6.76603e-05
4.03046e-05
6.57904e-05
3.61737e-05
6.80401e-05
4.03074e-05
2.0233e-05
4.95273e-05
6.75515e-05
6.74038e-05
2.02334e-05
2.02363e-05
6.72005e-05
4.95207e-05
2.02359e-05
6.73487e-05
3.6177e-05
6.60604e-05
6.852e-05
4.03117e-05
6.81472e-05
4.03083e-05
3.618e-05
3.6174e-05
6.76434e-05
4.03041e-05
6.57885e-05
3.61709e-05
6.80414e-05
4.03069e-05
2.02311e-05
4.95214e-05
6.75403e-05
6.73714e-05
2.02317e-05
2.02345e-05
6.71697e-05
4.95152e-05
2.02339e-05
6.73365e-05
3.61743e-05
6.60567e-05
6.85214e-05
4.03111e-05
6.81306e-05
4.03077e-05
3.61774e-05
2.36554e-05
2.36524e-05
2.36544e-05
2.36513e-05
6.96788e-05
2.15755e-05
2.15724e-05
6.9525e-05
2.15756e-05
2.15725e-05
7.14734e-05
6.79552e-05
5.98024e-05
4.70848e-05
7.16528e-05
6.77731e-05
4.70806e-05
7.1522e-05
6.7969e-05
5.98031e-05
4.70776e-05
7.16964e-05
6.77884e-05
4.70686e-05
7.11753e-05
4.70636e-05
6.71203e-05
5.96101e-05
7.10044e-05
6.73188e-05
4.70702e-05
7.12192e-05
4.7053e-05
6.71353e-05
5.96111e-05
7.10524e-05
6.73333e-05
4.70623e-05
6.97292e-05
2.15722e-05
2.15691e-05
6.98799e-05
2.15722e-05
2.1569e-05
2.36452e-05
2.36482e-05
2.36441e-05
2.36472e-05
2.36437e-05
2.36406e-05
2.36414e-05
2.36384e-05
7.01258e-05
2.15664e-05
2.15627e-05
2.15664e-05
2.15627e-05
7.02672e-05
7.21036e-05
6.84168e-05
4.70976e-05
6.01839e-05
7.19607e-05
4.71035e-05
6.86276e-05
7.21435e-05
6.84143e-05
4.70868e-05
6.01669e-05
7.20063e-05
4.7092e-05
6.862e-05
7.00786e-05
2.15698e-05
2.15662e-05
6.99338e-05
2.15699e-05
2.15663e-05
7.24282e-05
4.71173e-05
6.03346e-05
6.92753e-05
4.71127e-05
7.25455e-05
6.90516e-05
7.24763e-05
4.71055e-05
6.03434e-05
6.92542e-05
4.71022e-05
7.25886e-05
6.90701e-05
3.61821e-05
6.7329e-05
4.03249e-05
6.94427e-05
4.03169e-05
6.90652e-05
3.61855e-05
2.0229e-05
6.75848e-05
4.95306e-05
2.02286e-05
6.77311e-05
3.61819e-05
6.71106e-05
4.03132e-05
6.86056e-05
4.03178e-05
3.61787e-05
6.89893e-05
2.02258e-05
6.79155e-05
4.95373e-05
6.77845e-05
2.02261e-05
7.01228e-05
2.15632e-05
2.15659e-05
2.15631e-05
2.15657e-05
7.02677e-05
7.21729e-05
6.84012e-05
4.70826e-05
6.01604e-05
4.70969e-05
7.19854e-05
6.86403e-05
7.21018e-05
6.83973e-05
4.7092e-05
6.01657e-05
6.86413e-05
7.1946e-05
4.71062e-05
7.00818e-05
2.15665e-05
2.15691e-05
2.15666e-05
6.99299e-05
2.15692e-05
7.24418e-05
4.71118e-05
6.03357e-05
6.92874e-05
4.70971e-05
6.90485e-05
7.26274e-05
7.24251e-05
4.7121e-05
6.03501e-05
6.92848e-05
6.90401e-05
4.71063e-05
7.25359e-05
2.3643e-05
2.364e-05
3.61821e-05
6.73273e-05
4.03202e-05
6.9442e-05
4.03204e-05
6.90609e-05
3.61852e-05
2.02291e-05
6.75784e-05
4.95276e-05
2.02286e-05
6.77308e-05
3.61817e-05
6.71096e-05
4.03137e-05
6.86028e-05
4.03162e-05
3.61785e-05
6.89876e-05
2.02258e-05
6.79184e-05
4.95341e-05
6.77766e-05
2.02262e-05
3.61836e-05
6.73314e-05
6.94214e-05
4.03245e-05
6.90807e-05
4.03153e-05
3.61869e-05
2.02302e-05
6.7593e-05
4.95324e-05
6.7743e-05
2.02297e-05
3.61833e-05
6.70883e-05
6.86248e-05
4.03119e-05
6.89621e-05
3.61801e-05
4.03173e-05
2.02268e-05
6.79301e-05
4.9539e-05
6.77894e-05
2.02273e-05
3.61822e-05
6.73273e-05
4.0325e-05
6.94401e-05
4.03161e-05
6.90622e-05
3.61855e-05
2.02291e-05
6.75803e-05
4.95283e-05
2.02286e-05
6.77262e-05
3.61819e-05
6.71042e-05
4.03129e-05
6.86054e-05
3.61787e-05
4.03178e-05
6.89864e-05
2.02258e-05
6.79155e-05
4.95346e-05
6.7775e-05
2.02262e-05
7.01227e-05
2.15632e-05
2.15663e-05
2.15631e-05
2.15662e-05
7.02665e-05
7.21523e-05
6.84172e-05
4.70874e-05
6.01578e-05
4.70922e-05
7.20011e-05
6.86369e-05
7.21329e-05
6.84164e-05
4.70975e-05
6.01669e-05
6.86061e-05
7.1957e-05
4.71034e-05
7.00777e-05
2.15665e-05
2.15696e-05
2.15665e-05
6.9929e-05
2.15697e-05
7.24658e-05
4.71059e-05
6.03451e-05
6.92834e-05
4.71017e-05
6.90586e-05
7.26056e-05
7.24083e-05
4.71171e-05
6.03526e-05
6.92487e-05
6.90716e-05
4.71127e-05
7.25942e-05
2.36427e-05
2.36397e-05
3.61839e-05
6.73484e-05
6.94401e-05
4.03243e-05
6.90775e-05
4.03159e-05
3.61871e-05
2.02306e-05
6.76056e-05
4.95324e-05
6.77469e-05
2.02302e-05
3.61835e-05
6.70904e-05
6.86203e-05
4.03125e-05
6.89891e-05
3.61804e-05
4.03171e-05
2.02273e-05
6.79354e-05
4.95389e-05
6.78004e-05
2.02277e-05
3.61812e-05
6.73361e-05
6.94421e-05
4.03239e-05
6.90607e-05
4.03151e-05
3.61845e-05
2.02288e-05
6.75764e-05
4.95269e-05
2.02283e-05
6.77363e-05
3.61809e-05
6.7096e-05
6.86031e-05
4.03118e-05
3.61777e-05
6.89894e-05
4.03167e-05
2.02254e-05
6.79274e-05
4.95332e-05
6.77688e-05
2.02259e-05
2.36412e-05
2.36382e-05
2.36401e-05
2.36372e-05
0.000180011
0.000180021
0.00015728
0.000179147
0.000179156
0.000197121
0.000197822
6.88101e-05
8.51093e-05
7.02872e-05
7.02616e-05
0.000176561
0.000176571
0.00015313
0.0001757
0.00017571
0.000194314
0.000195016
7.14941e-05
7.1369e-05
7.13184e-05
8.33614e-05
7.12661e-05
7.12125e-05
7.13127e-05
6.88253e-05
7.03213e-05
7.03082e-05
8.53065e-05
6.86699e-05
7.03386e-05
7.0348e-05
7.06451e-05
8.37443e-05
7.10376e-05
7.10663e-05
7.10095e-05
7.10097e-05
7.07801e-05
6.89175e-05
8.52123e-05
7.04308e-05
7.02875e-05
7.05765e-05
8.38238e-05
7.10207e-05
7.11356e-05
7.10606e-05
7.09236e-05
7.08617e-05
6.88036e-05
7.02403e-05
7.03815e-05
8.53224e-05
7.02984e-05
6.86883e-05
7.04652e-05
7.0659e-05
8.36852e-05
7.11545e-05
7.10251e-05
7.08965e-05
7.10762e-05
7.07881e-05
7.06129e-05
8.38776e-05
7.09534e-05
7.10411e-05
7.08403e-05
7.10783e-05
7.10409e-05
7.14677e-05
7.12937e-05
7.12664e-05
8.36713e-05
7.13066e-05
7.13981e-05
7.13642e-05
7.15261e-05
7.1311e-05
7.1229e-05
8.35468e-05
7.14441e-05
7.1248e-05
7.1373e-05
7.14619e-05
7.1215e-05
7.13318e-05
8.36406e-05
7.13036e-05
7.13044e-05
7.14031e-05
0.000180009
0.000180022
0.000157278
0.000179145
0.000179156
0.00019712
0.000197821
0.000180006
0.000180015
0.000157272
0.000179141
0.000179151
0.000197116
0.000197817
0.000180006
0.000180012
0.000157267
0.000179141
0.000179148
0.000197115
0.000197815
0.000156246
0.000177421
0.000177431
0.000178284
0.000178293
0.00019642
0.000195718
0.000156244
0.000177419
0.000177431
0.000178282
0.000178295
0.000196419
0.000195717
0.000156237
0.000177415
0.000177425
0.000178278
0.000178287
0.000196414
0.000195713
0.000156233
0.000177415
0.000177422
0.000178278
0.000178284
0.000196414
0.000195712
7.29964e-05
6.145e-05
6.32344e-05
7.66947e-05
6.29413e-05
7.69267e-05
7.31142e-05
6.69985e-05
6.37507e-05
6.21648e-05
6.50715e-05
6.50931e-05
6.36221e-05
6.68976e-05
7.30575e-05
6.14497e-05
7.67736e-05
6.31831e-05
7.68531e-05
6.30133e-05
7.30219e-05
6.67345e-05
6.46285e-05
6.29928e-05
6.17664e-05
6.68879e-05
6.46614e-05
6.31301e-05
7.32447e-05
6.10097e-05
7.72634e-05
6.23716e-05
7.32885e-05
7.7161e-05
6.25282e-05
6.70065e-05
6.37512e-05
6.21576e-05
6.51114e-05
6.50607e-05
6.3612e-05
6.68813e-05
6.932e-05
8.47398e-05
7.04957e-05
7.04912e-05
7.05739e-05
7.05648e-05
6.94738e-05
0.000176559
0.000176573
0.000153128
0.000175698
0.00017571
0.000194313
0.000195016
0.000176555
0.000176564
0.000153122
0.000175694
0.000175704
0.000194309
0.000195011
0.000176556
0.000176562
0.000153117
0.000175694
0.000175702
0.000194308
0.00019501
7.23662e-05
6.39801e-05
6.58279e-05
7.55219e-05
6.56661e-05
7.57554e-05
7.26089e-05
6.74577e-05
6.64553e-05
6.55027e-05
6.38646e-05
6.75521e-05
6.64864e-05
6.56698e-05
7.27023e-05
6.35077e-05
6.49523e-05
7.59902e-05
7.25429e-05
6.52139e-05
7.58052e-05
6.78072e-05
6.6298e-05
6.42394e-05
6.69535e-05
6.69473e-05
6.61152e-05
6.7641e-05
7.23787e-05
6.4007e-05
7.58707e-05
6.58519e-05
7.55948e-05
6.56973e-05
7.25689e-05
6.7447e-05
6.64074e-05
6.55069e-05
6.38809e-05
6.75659e-05
6.65084e-05
6.5672e-05
7.25944e-05
6.34953e-05
7.59038e-05
6.50044e-05
7.25928e-05
7.59083e-05
6.51917e-05
6.77664e-05
6.62899e-05
6.42284e-05
6.70094e-05
6.69156e-05
6.6129e-05
6.7844e-05
7.19354e-05
8.31929e-05
7.14869e-05
7.15763e-05
7.16728e-05
7.16529e-05
7.21165e-05
6.93124e-05
8.46309e-05
7.05276e-05
7.05718e-05
6.94734e-05
7.05173e-05
7.05089e-05
7.01271e-05
8.43177e-05
7.0757e-05
7.07306e-05
6.99889e-05
7.08092e-05
7.08013e-05
7.29909e-05
6.14026e-05
6.32566e-05
7.68842e-05
6.29547e-05
7.67448e-05
7.32805e-05
6.67336e-05
6.46388e-05
6.29811e-05
6.17704e-05
6.31276e-05
6.68888e-05
6.46758e-05
7.3425e-05
6.10637e-05
6.2309e-05
7.71557e-05
6.25885e-05
7.31311e-05
7.72779e-05
6.70104e-05
6.37674e-05
6.21627e-05
6.51023e-05
6.3622e-05
6.50515e-05
6.68906e-05
7.31584e-05
6.14269e-05
6.31752e-05
7.6887e-05
6.30052e-05
7.67395e-05
7.29659e-05
6.67564e-05
6.46232e-05
6.29937e-05
6.17591e-05
6.68812e-05
6.31053e-05
6.46827e-05
7.32032e-05
6.10345e-05
6.23463e-05
7.71516e-05
7.33022e-05
6.25349e-05
7.72672e-05
6.69959e-05
6.37458e-05
6.21561e-05
6.51076e-05
6.36171e-05
6.69046e-05
6.50166e-05
7.30702e-05
6.36155e-05
7.64102e-05
6.22563e-05
7.27609e-05
6.39041e-05
7.65539e-05
6.7369e-05
6.60304e-05
6.32255e-05
6.50182e-05
6.59717e-05
6.49051e-05
6.72483e-05
6.70368e-05
6.42492e-05
6.5488e-05
6.28414e-05
6.55741e-05
6.71679e-05
6.43962e-05
7.26239e-05
6.26474e-05
6.45742e-05
7.625e-05
6.42831e-05
7.60877e-05
7.29288e-05
7.27806e-05
6.36586e-05
7.64045e-05
6.22514e-05
7.30107e-05
6.38533e-05
7.65561e-05
6.73508e-05
6.60301e-05
6.32188e-05
6.50078e-05
6.48929e-05
6.59246e-05
6.7251e-05
6.70499e-05
6.4255e-05
6.54673e-05
6.28351e-05
6.71552e-05
6.4385e-05
6.5598e-05
7.28683e-05
6.26586e-05
6.45164e-05
7.62579e-05
6.43197e-05
7.609e-05
7.26619e-05
6.92406e-05
8.46799e-05
7.05009e-05
7.06456e-05
7.04484e-05
7.0583e-05
6.95399e-05
7.02163e-05
8.42962e-05
7.07937e-05
7.06889e-05
7.07672e-05
6.99188e-05
7.08885e-05
7.31351e-05
6.14361e-05
6.31747e-05
7.6667e-05
6.30176e-05
7.69226e-05
7.2995e-05
6.67423e-05
6.46114e-05
6.29863e-05
6.17684e-05
6.31197e-05
6.68988e-05
6.47028e-05
7.3216e-05
6.10336e-05
6.23717e-05
7.73121e-05
6.25278e-05
7.3328e-05
7.7065e-05
6.70164e-05
6.37544e-05
6.21578e-05
6.5154e-05
6.36262e-05
6.50139e-05
6.68936e-05
7.28249e-05
6.14491e-05
7.66741e-05
6.32114e-05
7.69293e-05
6.29617e-05
7.31618e-05
6.67448e-05
6.46253e-05
6.29828e-05
6.17579e-05
6.68777e-05
6.3112e-05
6.46663e-05
7.34176e-05
6.10197e-05
7.73041e-05
6.23163e-05
7.30909e-05
7.70808e-05
6.25634e-05
6.69967e-05
6.37482e-05
6.21526e-05
6.50863e-05
6.36001e-05
6.68961e-05
6.50478e-05
7.27875e-05
6.36705e-05
7.65788e-05
6.22364e-05
7.30511e-05
6.3843e-05
7.63417e-05
6.73734e-05
6.60977e-05
6.32186e-05
6.50218e-05
6.59137e-05
6.49087e-05
6.72585e-05
6.70406e-05
6.42513e-05
6.54473e-05
6.28423e-05
6.56002e-05
6.71725e-05
6.43888e-05
7.28778e-05
6.26762e-05
6.45114e-05
7.60312e-05
6.43403e-05
7.6283e-05
7.26498e-05
7.3078e-05
7.65803e-05
6.36222e-05
6.22187e-05
7.27744e-05
7.63459e-05
6.38809e-05
6.73474e-05
6.60242e-05
6.3219e-05
6.50319e-05
6.48606e-05
6.59708e-05
6.72698e-05
6.70398e-05
6.42395e-05
6.5474e-05
6.28314e-05
6.71557e-05
6.44035e-05
6.55578e-05
7.2589e-05
6.26855e-05
7.60319e-05
6.45526e-05
7.62763e-05
6.42861e-05
7.2896e-05
7.31876e-05
6.14347e-05
7.66826e-05
6.31683e-05
7.69323e-05
6.30178e-05
7.29772e-05
6.70069e-05
6.37476e-05
6.21601e-05
6.51093e-05
6.5028e-05
6.36267e-05
6.69008e-05
7.29277e-05
6.36066e-05
7.65694e-05
6.22388e-05
7.28076e-05
6.38799e-05
7.63767e-05
6.73431e-05
6.60111e-05
6.32199e-05
6.50248e-05
6.727e-05
6.59795e-05
6.48766e-05
6.70368e-05
6.42449e-05
6.54962e-05
6.2837e-05
6.71422e-05
6.55835e-05
6.43951e-05
7.26781e-05
6.26619e-05
6.45669e-05
7.60521e-05
7.27844e-05
6.42784e-05
7.62573e-05
7.27514e-05
7.65551e-05
6.36629e-05
6.22271e-05
7.29863e-05
7.63493e-05
6.38369e-05
6.73471e-05
6.60236e-05
6.31972e-05
6.49997e-05
6.48937e-05
6.59266e-05
6.72545e-05
6.7044e-05
6.4237e-05
6.54492e-05
6.28401e-05
6.71416e-05
6.43774e-05
6.5577e-05
7.28713e-05
6.26659e-05
7.60474e-05
6.45107e-05
7.62577e-05
6.43284e-05
7.26667e-05
6.93291e-05
8.45863e-05
7.06363e-05
7.05118e-05
7.05604e-05
7.0426e-05
6.9478e-05
7.01112e-05
8.4331e-05
7.06617e-05
7.07933e-05
7.09064e-05
6.99962e-05
7.07486e-05
7.29063e-05
6.14136e-05
7.67726e-05
6.32277e-05
7.68494e-05
6.29523e-05
7.32918e-05
6.69949e-05
6.46601e-05
6.29274e-05
6.1763e-05
6.46366e-05
6.66724e-05
6.3193e-05
7.34684e-05
6.10435e-05
7.72505e-05
6.23196e-05
7.71604e-05
7.31254e-05
6.25734e-05
6.68166e-05
6.38027e-05
6.21556e-05
6.50649e-05
6.50646e-05
6.35565e-05
6.7124e-05
7.28403e-05
7.65015e-05
6.3664e-05
6.22275e-05
7.2856e-05
7.6443e-05
6.38544e-05
6.73619e-05
6.60661e-05
6.32213e-05
6.50366e-05
6.72444e-05
6.59686e-05
6.48741e-05
6.70203e-05
6.42603e-05
6.54757e-05
6.28391e-05
6.7168e-05
6.55644e-05
6.44112e-05
7.27138e-05
6.26786e-05
7.61412e-05
6.45091e-05
7.27192e-05
7.61872e-05
6.43245e-05
7.30643e-05
7.65016e-05
6.36122e-05
6.22444e-05
7.2751e-05
7.64428e-05
6.39063e-05
6.71522e-05
6.59841e-05
6.32225e-05
6.50567e-05
6.48174e-05
6.59991e-05
6.74908e-05
6.73406e-05
6.41898e-05
6.55044e-05
6.2834e-05
6.69753e-05
6.44522e-05
6.5553e-05
7.25916e-05
6.26542e-05
7.61432e-05
6.45375e-05
7.61873e-05
6.42796e-05
7.29292e-05
7.01802e-05
8.41491e-05
7.07833e-05
7.077e-05
6.9978e-05
7.0743e-05
7.07828e-05
7.19751e-05
8.30005e-05
7.17217e-05
7.1887e-05
7.20641e-05
7.15917e-05
7.15651e-05
7.23213e-05
6.39579e-05
6.58996e-05
7.57845e-05
6.56751e-05
7.55585e-05
7.28405e-05
6.75446e-05
6.64252e-05
6.55185e-05
6.39167e-05
6.56531e-05
6.75208e-05
6.65e-05
7.28769e-05
6.35381e-05
6.4963e-05
7.58266e-05
6.52207e-05
7.25303e-05
7.59686e-05
6.77402e-05
6.6306e-05
6.42219e-05
6.69992e-05
6.61391e-05
6.69302e-05
6.78228e-05
7.2567e-05
6.39674e-05
6.59258e-05
7.57871e-05
6.56514e-05
7.55548e-05
7.2443e-05
6.74703e-05
6.64097e-05
6.55064e-05
6.39099e-05
6.7542e-05
6.56573e-05
6.64886e-05
7.25454e-05
6.35329e-05
6.49915e-05
7.58219e-05
7.27483e-05
6.52351e-05
7.59742e-05
6.78178e-05
6.62711e-05
6.42159e-05
6.69458e-05
6.61364e-05
6.76449e-05
6.69302e-05
7.19308e-05
8.3084e-05
7.17749e-05
7.18012e-05
7.15249e-05
7.16106e-05
7.20679e-05
7.25228e-05
6.39977e-05
6.58703e-05
7.5725e-05
6.5706e-05
7.57307e-05
7.26021e-05
6.75618e-05
6.63572e-05
6.55097e-05
6.39179e-05
6.5665e-05
6.75173e-05
6.65869e-05
7.25548e-05
6.35157e-05
6.50124e-05
7.59768e-05
6.5198e-05
7.2749e-05
7.58504e-05
6.7736e-05
6.63669e-05
6.42136e-05
6.7069e-05
6.61219e-05
6.68609e-05
6.78198e-05
7.22859e-05
6.40046e-05
7.57225e-05
6.58776e-05
7.57346e-05
6.56648e-05
7.2826e-05
6.77428e-05
6.63943e-05
6.54944e-05
6.38606e-05
6.74679e-05
6.56652e-05
6.65216e-05
7.2854e-05
6.35061e-05
7.59814e-05
6.49608e-05
7.24911e-05
7.58472e-05
6.52186e-05
6.75834e-05
6.62989e-05
6.42464e-05
6.70799e-05
6.61187e-05
6.80794e-05
6.68998e-05
7.2562e-05
6.39567e-05
7.57571e-05
6.58797e-05
7.56955e-05
6.56751e-05
7.2444e-05
6.74976e-05
6.64058e-05
6.55078e-05
6.39095e-05
6.64753e-05
6.75347e-05
6.56309e-05
7.25537e-05
6.35294e-05
7.59547e-05
6.49978e-05
7.58695e-05
7.27526e-05
6.52077e-05
6.77532e-05
6.62523e-05
6.42033e-05
6.6947e-05
6.69138e-05
6.61462e-05
6.79181e-05
7.19677e-05
8.29958e-05
7.16989e-05
7.15719e-05
7.16728e-05
7.15802e-05
7.21332e-05
7.2303e-05
6.3986e-05
7.56502e-05
6.58837e-05
7.56734e-05
6.56537e-05
7.28561e-05
6.76147e-05
6.64361e-05
6.54635e-05
6.38697e-05
6.64962e-05
6.74124e-05
6.56873e-05
7.28783e-05
6.35104e-05
7.59125e-05
6.49628e-05
7.58795e-05
7.25098e-05
6.52321e-05
6.76651e-05
6.62689e-05
6.42406e-05
6.70045e-05
6.69163e-05
6.61149e-05
6.78204e-05
0.000233968
0.000233542
0.000233541
0.00023342
0.00023252
0.000227502
0.000227489
0.000223668
0.000230464
0.000220048
0.000220024
0.000208834
0.00022772
0.000211418
0.000211391
0.000193553
0.000224338
0.000202427
0.000202407
0.000179505
0.000220447
0.000193576
0.000193562
0.000167205
0.000216195
0.000185105
0.000185094
0.000156458
0.000211711
0.000177086
0.000177078
0.000147113
0.0002071
0.00016956
0.000169554
0.000138881
0.000202442
0.000162498
0.000162493
0.000131585
0.000197792
0.000155847
0.000155841
0.000124975
0.000193184
0.000149551
0.000149544
0.000118847
0.000188598
0.00014357
0.000143562
0.000113136
0.000184069
0.000137849
0.000137841
0.000107907
0.000179627
0.000132349
0.000132342
0.000102981
0.00017526
0.00012706
0.000127056
9.83389e-05
0.000170957
0.000122003
0.000121999
9.41138e-05
0.000166704
0.000117208
0.000117203
9.05057e-05
0.000162503
0.000112703
0.000112696
8.757e-05
0.000108547
8.52261e-05
0.000234252
0.000234467
0.000234466
0.00023425
0.000234467
0.000234467
0.00023426
0.00023426
0.00023426
0.000234261
0.000234464
0.00023447
0.00023425
0.000234467
0.000234471
0.000234251
0.000233423
0.000226043
0.000233538
0.000233538