/*--------------------------------*- C++ -*----------------------------------*\
| =========                 |                                                 |
| \\      /  F ield         | OpenFOAM: The Open Source CFD Toolbox           |
|  \\    /   O peration     | Version:  2312                                  |
|   \\  /    A nd           | Website:  www.openfoam.com                      |
|    \\/     M anipulation  |                                                 |
\*---------------------------------------------------------------------------*/
FoamFile
{
    version     2.0;
    format      ascii;
    arch        "LSB;label=32;scalar=64";
    class       volScalarField;
    location    "800";
    object      epsilon;
}
// * * * * * * * * * * * * * * * * * * * * * * * * * * * * * * * * * * * * * //

dimensions      [0 2 -3 0 0 0 0];

internalField   nonuniform List<scalar> 
43496
(
4.23892e-06
1.90948e-05
1.18668e-06
3.64743e-06
2.29549e-06
9.35003e-07
4.23884e-06
9.56709e-06
2.29541e-06
1.18669e-06
9.35044e-07
3.64771e-06
1.41727e-06
5.65215e-06
5.6507e-06
1.90923e-05
9.56725e-06
1.26553e-05
4.23895e-06
4.88463e-06
1.12477e-05
4.88469e-06
1.12448e-05
1.26589e-05
2.27629e-05
7.24529e-06
7.24552e-06
2.27697e-05
1.909e-05
1.26554e-05
4.23889e-06
1.12476e-05
4.88445e-06
1.12447e-05
4.88452e-06
1.26592e-05
2.27628e-05
7.24368e-06
9.56535e-06
7.24389e-06
2.27696e-05
9.96428e-06
2.23955e-05
2.23959e-05
2.23893e-05
2.23897e-05
9.9639e-06
4.71002e-06
9.93509e-06
5.65218e-06
2.97597e-06
9.93317e-06
2.97613e-06
4.70966e-06
4.70408e-06
9.93025e-06
5.65075e-06
2.97484e-06
2.97502e-06
9.9285e-06
4.70373e-06
1.90875e-05
9.56507e-06
4.50823e-07
6.59556e-07
4.50958e-07
3.64761e-06
2.22352e-06
2.22405e-06
1.66603e-06
2.29563e-06
2.54093e-06
1.54356e-06
2.54115e-06
1.54443e-06
1.66485e-06
1.84506e-06
3.02292e-06
3.02328e-06
1.84392e-06
1.66634e-06
2.29559e-06
1.54344e-06
2.54078e-06
1.54445e-06
2.541e-06
1.66452e-06
1.8452e-06
3.02246e-06
3.64791e-06
2.22372e-06
3.02288e-06
1.84362e-06
2.22426e-06
2.82873e-06
1.41875e-06
1.96841e-06
1.96831e-06
1.96903e-06
1.96913e-06
2.82841e-06
6.5186e-07
1.18289e-06
1.18298e-06
1.41523e-06
6.58007e-07
1.18593e-06
1.18602e-06
1.41814e-06
1.41512e-06
1.41588e-06
1.18298e-06
1.18286e-06
1.18531e-06
1.18525e-06
1.41515e-06
1.41584e-06
1.1828e-06
1.18298e-06
1.18513e-06
1.18531e-06
1.18305e-06
1.18521e-06
1.18527e-06
1.41519e-06
1.41593e-06
1.18284e-06
1.1853e-06
1.18519e-06
1.41594e-06
1.41804e-06
1.18602e-06
1.18587e-06
1.41806e-06
1.18584e-06
1.18602e-06
1.18614e-06
1.41809e-06
1.18589e-06
4.23632e-06
9.5499e-06
9.55469e-06
4.23572e-06
1.9061e-05
1.90716e-05
4.2364e-06
9.55125e-06
9.55605e-06
4.23574e-06
6.51848e-07
6.51998e-07
6.5198e-07
6.5652e-07
6.56537e-07
6.56647e-07
6.5661e-07
2.29407e-06
3.64452e-06
9.29878e-07
1.18369e-06
3.64499e-06
9.31012e-07
2.29374e-06
1.90624e-05
1.90729e-05
2.29403e-06
9.29991e-07
3.64449e-06
1.18378e-06
9.31092e-07
3.64498e-06
2.29377e-06
5.64526e-06
5.64699e-06
1.41449e-06
5.64634e-06
5.64809e-06
9.56131e-06
4.23831e-06
1.90831e-05
9.56288e-06
4.23835e-06
6.57995e-07
6.5814e-07
6.58132e-07
2.29553e-06
3.64705e-06
9.34097e-07
2.29533e-06
9.35072e-07
1.90846e-05
2.29551e-06
9.34211e-07
3.64703e-06
2.29535e-06
9.35141e-07
5.64961e-06
5.65136e-06
1.41717e-06
5.65061e-06
5.65237e-06
1.90587e-05
1.90692e-05
1.9062e-05
1.90724e-05
5.6452e-06
5.64696e-06
1.41444e-06
5.64627e-06
5.64805e-06
1.90802e-05
1.90699e-05
1.90835e-05
1.90731e-05
1.41663e-06
5.64845e-06
5.65023e-06
5.64742e-06
5.64918e-06
4.23627e-06
9.54988e-06
9.55505e-06
4.23567e-06
2.29397e-06
3.64432e-06
9.29851e-07
1.18379e-06
3.64479e-06
9.30964e-07
2.2937e-06
2.29392e-06
3.64474e-06
9.29785e-07
1.18371e-06
3.64518e-06
9.30919e-07
2.29365e-06
4.23703e-06
9.56053e-06
9.55575e-06
4.23762e-06
4.23698e-06
9.56083e-06
9.55575e-06
4.23757e-06
2.29454e-06
1.18457e-06
3.64605e-06
9.33076e-07
3.64563e-06
9.32045e-07
2.29476e-06
2.29449e-06
1.18443e-06
3.64644e-06
9.33033e-07
3.64605e-06
9.31976e-07
2.2947e-06
5.64678e-06
5.64542e-06
1.4144e-06
5.64777e-06
5.6465e-06
1.90601e-05
1.90706e-05
1.90826e-05
1.90721e-05
1.41666e-06
5.64994e-06
5.64868e-06
5.649e-06
5.64764e-06
1.90816e-05
1.90712e-05
2.29402e-06
3.64486e-06
9.2984e-07
1.18361e-06
3.64535e-06
9.30947e-07
2.2937e-06
4.23633e-06
9.55088e-06
9.55567e-06
4.23568e-06
2.29395e-06
9.29883e-07
3.64479e-06
1.18379e-06
9.3099e-07
3.64528e-06
2.29364e-06
4.23707e-06
9.56185e-06
9.55711e-06
4.2377e-06
2.29453e-06
1.18439e-06
3.64662e-06
9.33057e-07
3.64617e-06
9.32034e-07
2.2948e-06
4.23702e-06
9.56147e-06
9.55675e-06
4.23762e-06
2.29448e-06
1.18457e-06
9.331e-07
3.64654e-06
9.32078e-07
3.64609e-06
2.29471e-06
4.23652e-06
9.55053e-06
9.55569e-06
4.23593e-06
2.29402e-06
9.29929e-07
3.64442e-06
1.18377e-06
9.31022e-07
3.64489e-06
2.2937e-06
4.23639e-06
9.55061e-06
9.55539e-06
4.23575e-06
2.29458e-06
1.18448e-06
3.64625e-06
9.33122e-07
3.64582e-06
9.32071e-07
2.29485e-06
4.23726e-06
9.56147e-06
9.55639e-06
4.23781e-06
2.29454e-06
1.18466e-06
9.33126e-07
3.64616e-06
9.32124e-07
3.64572e-06
2.29479e-06
4.23708e-06
9.56117e-06
9.55647e-06
4.23768e-06
5.64676e-06
5.64537e-06
1.41449e-06
5.64788e-06
5.64643e-06
1.90599e-05
1.90704e-05
1.90839e-05
1.90736e-05
1.41669e-06
5.65005e-06
5.6486e-06
5.64897e-06
5.64759e-06
1.90814e-05
1.90711e-05
2.29396e-06
9.29918e-07
3.64491e-06
1.18367e-06
9.31013e-07
3.64539e-06
2.2937e-06
4.23648e-06
9.55064e-06
9.55581e-06
4.23591e-06
4.23645e-06
9.5513e-06
9.55609e-06
4.23593e-06
2.29461e-06
1.18457e-06
9.33198e-07
3.64624e-06
9.32181e-07
3.6458e-06
2.29481e-06
2.29454e-06
1.18443e-06
9.33121e-07
3.64666e-06
9.3211e-07
3.64622e-06
2.29474e-06
4.23725e-06
9.56158e-06
9.5565e-06
4.23777e-06
4.23726e-06
9.56188e-06
9.55716e-06
4.23773e-06
1.90609e-05
1.90714e-05
1.90632e-05
1.90737e-05
1.41674e-06
5.64853e-06
5.65026e-06
5.64748e-06
5.6492e-06
1.90824e-05
1.90721e-05
1.90847e-05
1.90744e-05
1.90809e-05
1.90841e-05
5.64958e-06
5.65133e-06
9.56149e-06
4.23825e-06
3.64686e-06
9.34075e-07
2.29529e-06
3.64728e-06
9.34006e-07
2.29524e-06
5.65115e-06
5.6498e-06
1.90822e-05
3.6474e-06
9.34062e-07
2.29528e-06
9.56248e-06
4.23828e-06
9.34106e-07
3.64732e-06
2.29525e-06
4.23903e-06
9.56214e-06
4.23852e-06
2.29548e-06
9.34154e-07
3.64694e-06
1.1866e-06
2.29529e-06
9.35059e-07
3.64732e-06
4.2389e-06
9.56219e-06
4.23835e-06
9.56678e-06
5.65113e-06
5.64972e-06
1.90821e-05
2.29544e-06
9.3414e-07
3.64745e-06
1.18659e-06
2.29529e-06
9.35066e-07
3.64784e-06
4.23899e-06
9.56226e-06
4.23851e-06
4.23896e-06
9.56291e-06
4.23854e-06
9.5675e-06
1.90831e-05
1.90933e-05
1.90854e-05
1.90956e-05
1.26406e-05
1.12333e-05
4.88178e-06
4.23637e-06
1.12311e-05
4.88187e-06
1.26433e-05
2.27383e-05
9.55178e-06
7.23922e-06
7.23903e-06
2.27313e-05
2.27378e-05
7.24031e-06
9.55283e-06
7.2405e-06
2.27447e-05
1.26396e-05
4.23563e-06
1.12276e-05
4.88112e-06
1.12299e-05
4.88104e-06
1.26364e-05
1.9066e-05
1.90666e-05
1.26401e-05
4.88182e-06
1.12338e-05
4.2364e-06
4.88186e-06
1.12309e-05
1.26438e-05
2.2738e-05
9.55314e-06
7.23921e-06
7.23903e-06
2.2731e-05
2.27375e-05
7.24031e-06
9.55419e-06
7.2405e-06
2.27444e-05
1.26399e-05
4.23575e-06
4.88111e-06
1.12275e-05
4.88108e-06
1.12303e-05
1.26362e-05
1.90673e-05
1.9068e-05
9.95763e-06
2.2374e-05
2.23733e-05
2.23678e-05
2.23671e-05
9.95733e-06
4.70062e-06
2.97318e-06
5.64522e-06
9.91439e-06
2.973e-06
9.91629e-06
4.70096e-06
4.70641e-06
2.97434e-06
5.64697e-06
9.91907e-06
2.97418e-06
9.92115e-06
4.70671e-06
4.70167e-06
9.91923e-06
5.64638e-06
2.97342e-06
2.9736e-06
9.91733e-06
4.70133e-06
4.70743e-06
9.92419e-06
5.6481e-06
2.9746e-06
2.97476e-06
9.9218e-06
4.70712e-06
9.95552e-06
2.23619e-05
2.23612e-05
2.23682e-05
2.23675e-05
9.95582e-06
2.27637e-05
7.24428e-06
9.56347e-06
2.27569e-05
7.24407e-06
1.26545e-05
4.23824e-06
1.12416e-05
4.88402e-06
1.26521e-05
1.12437e-05
4.88391e-06
1.90881e-05
2.27635e-05
7.24428e-06
9.56462e-06
2.27566e-05
7.24407e-06
1.2655e-05
4.23832e-06
4.88401e-06
1.12415e-05
1.26515e-05
4.88395e-06
1.12443e-05
1.90893e-05
9.96473e-06
2.23969e-05
2.23962e-05
2.23908e-05
2.23901e-05
9.96436e-06
4.70334e-06
2.97473e-06
9.92569e-06
5.64959e-06
4.70371e-06
2.97453e-06
9.92817e-06
4.70911e-06
2.9759e-06
9.93062e-06
5.65132e-06
4.70946e-06
2.97572e-06
9.93282e-06
9.96263e-06
2.23851e-05
2.23844e-05
9.96299e-06
2.23913e-05
2.23905e-05
4.70433e-06
9.93102e-06
5.65064e-06
2.97487e-06
2.97506e-06
9.92847e-06
4.70397e-06
4.71011e-06
9.93544e-06
5.65241e-06
2.97605e-06
2.97624e-06
9.93366e-06
4.70976e-06
1.90636e-05
1.90643e-05
1.90669e-05
1.90676e-05
9.95766e-06
2.23735e-05
2.23727e-05
2.23672e-05
2.23665e-05
9.95733e-06
4.70047e-06
2.9731e-06
5.64516e-06
9.91369e-06
9.91626e-06
2.97292e-06
4.70083e-06
4.70627e-06
2.97425e-06
5.64693e-06
9.91913e-06
9.92103e-06
2.97407e-06
4.70662e-06
4.70155e-06
9.91919e-06
5.64632e-06
2.97334e-06
9.91666e-06
4.70118e-06
2.97352e-06
4.70734e-06
9.92396e-06
5.64808e-06
2.97448e-06
9.92207e-06
4.70698e-06
2.97467e-06
9.95552e-06
2.23613e-05
2.23606e-05
2.23676e-05
2.23669e-05
9.95584e-06
1.90754e-05
1.90747e-05
1.90787e-05
1.9078e-05
9.95913e-06
2.2373e-05
2.23723e-05
9.95947e-06
2.23793e-05
2.23785e-05
4.70293e-06
2.97411e-06
5.64851e-06
9.92501e-06
9.92246e-06
2.97431e-06
4.70254e-06
4.70872e-06
2.97526e-06
5.65027e-06
9.92978e-06
9.92794e-06
2.97545e-06
4.70835e-06
4.70187e-06
9.91961e-06
2.97392e-06
5.64737e-06
4.70225e-06
9.92208e-06
2.97373e-06
4.70767e-06
9.92504e-06
2.97507e-06
5.64915e-06
4.70804e-06
9.92694e-06
2.97488e-06
9.96125e-06
2.2385e-05
2.23843e-05
2.23788e-05
2.23781e-05
9.96091e-06
1.26403e-05
1.12333e-05
4.8817e-06
4.23632e-06
1.1231e-05
4.88176e-06
1.26439e-05
2.27387e-05
9.55214e-06
7.23789e-06
7.23774e-06
2.27317e-05
2.27382e-05
7.23901e-06
9.55283e-06
7.23918e-06
2.27451e-05
1.26401e-05
4.23558e-06
1.12275e-05
4.88101e-06
1.12298e-05
4.88096e-06
1.26364e-05
1.2647e-05
1.12346e-05
4.8826e-06
4.23698e-06
1.26445e-05
1.12369e-05
4.88251e-06
2.27506e-05
9.55864e-06
7.24283e-06
2.27574e-05
7.24303e-06
2.27511e-05
7.24177e-06
9.55764e-06
2.27442e-05
7.24157e-06
1.26483e-05
4.23768e-06
1.12404e-05
4.88322e-06
1.26508e-05
1.12381e-05
4.88332e-06
1.26478e-05
1.12345e-05
4.88249e-06
4.23693e-06
1.26442e-05
1.12368e-05
4.88243e-06
2.2751e-05
9.55863e-06
7.24153e-06
7.24171e-06
2.27578e-05
2.27515e-05
7.24045e-06
9.55794e-06
2.27446e-05
7.24028e-06
1.26479e-05
4.23763e-06
1.12403e-05
4.88314e-06
1.1238e-05
4.8832e-06
1.26515e-05
9.95774e-06
2.23732e-05
2.23738e-05
2.2367e-05
2.23675e-05
9.95739e-06
4.70638e-06
2.97422e-06
5.64665e-06
9.91849e-06
9.92092e-06
2.97405e-06
4.7067e-06
4.70056e-06
2.97319e-06
5.64538e-06
9.91456e-06
2.97301e-06
9.91646e-06
4.70092e-06
4.70742e-06
9.92393e-06
5.6479e-06
2.97446e-06
9.92138e-06
2.97464e-06
4.70709e-06
4.70164e-06
9.91939e-06
5.64654e-06
2.97343e-06
2.97361e-06
9.91751e-06
4.70127e-06
9.95558e-06
2.23611e-05
2.23617e-05
2.23674e-05
2.2368e-05
9.95592e-06
1.9065e-05
1.90657e-05
1.90777e-05
1.90771e-05
9.95918e-06
2.23728e-05
2.23733e-05
9.95954e-06
2.2379e-05
2.23796e-05
4.7088e-06
2.97524e-06
5.65008e-06
9.92976e-06
2.97542e-06
9.92723e-06
4.70846e-06
4.70302e-06
2.9742e-06
5.64873e-06
9.92522e-06
9.92337e-06
2.9744e-06
4.70264e-06
4.70778e-06
9.92436e-06
2.97504e-06
5.64886e-06
2.97486e-06
4.70812e-06
9.92683e-06
4.70196e-06
9.92047e-06
2.97402e-06
5.6476e-06
4.70234e-06
9.92236e-06
2.97382e-06
9.96133e-06
2.23848e-05
2.23853e-05
2.23785e-05
2.23791e-05
9.96096e-06
1.90767e-05
1.90761e-05
1.26403e-05
1.12337e-05
4.88163e-06
4.23636e-06
1.12308e-05
4.88168e-06
1.26439e-05
2.27379e-05
9.55276e-06
7.23759e-06
7.2374e-06
2.27309e-05
2.27374e-05
7.23868e-06
9.55381e-06
7.23886e-06
2.27443e-05
1.26401e-05
4.23566e-06
1.12274e-05
4.88095e-06
1.12302e-05
4.88089e-06
1.26364e-05
1.26476e-05
4.88259e-06
1.12345e-05
4.23705e-06
1.2644e-05
4.88255e-06
1.12374e-05
2.27503e-05
9.56001e-06
7.24283e-06
2.27572e-05
7.24303e-06
2.27508e-05
7.24177e-06
9.559e-06
2.27439e-05
7.24157e-06
1.26479e-05
4.23772e-06
4.88326e-06
1.12409e-05
1.26513e-05
4.88331e-06
1.1238e-05
1.26477e-05
1.12344e-05
4.88241e-06
4.23698e-06
1.26441e-05
1.12373e-05
4.88236e-06
2.27502e-05
9.55965e-06
7.24121e-06
7.2414e-06
2.27571e-05
2.27507e-05
7.24014e-06
9.55861e-06
2.27438e-05
7.23995e-06
1.2648e-05
4.23766e-06
1.12407e-05
4.88307e-06
1.12379e-05
4.88313e-06
1.26515e-05
1.26395e-05
4.88181e-06
1.12338e-05
4.23661e-06
4.88202e-06
1.12308e-05
1.26434e-05
2.27371e-05
9.55277e-06
7.23907e-06
7.23869e-06
2.27299e-05
2.27364e-05
7.23997e-06
9.55347e-06
7.24036e-06
2.27435e-05
1.26395e-05
4.23585e-06
4.88128e-06
1.12274e-05
4.88108e-06
1.12303e-05
1.26357e-05
1.26402e-05
1.12336e-05
4.88164e-06
4.23643e-06
1.12307e-05
4.8817e-06
1.26438e-05
2.2738e-05
9.55248e-06
7.23743e-06
7.23725e-06
2.2731e-05
2.27375e-05
7.23852e-06
9.55353e-06
7.23871e-06
2.27444e-05
1.264e-05
4.23573e-06
1.12273e-05
4.88095e-06
1.12301e-05
4.88091e-06
1.26363e-05
1.26472e-05
4.88275e-06
1.12344e-05
4.23717e-06
1.26434e-05
4.88254e-06
1.12373e-05
2.27491e-05
9.55927e-06
7.24248e-06
7.24288e-06
2.27563e-05
2.27499e-05
7.24163e-06
9.55858e-06
2.27428e-05
7.24123e-06
1.26473e-05
4.2379e-06
4.88324e-06
1.12408e-05
4.88346e-06
1.12379e-05
1.26509e-05
1.26476e-05
1.12343e-05
4.88243e-06
4.23705e-06
1.2644e-05
1.12372e-05
4.88235e-06
2.27502e-05
9.55936e-06
7.24103e-06
7.24124e-06
2.27571e-05
2.27508e-05
7.23998e-06
9.55833e-06
2.27439e-05
7.23978e-06
1.26479e-05
4.23772e-06
1.12406e-05
4.88306e-06
1.12377e-05
4.88314e-06
1.26514e-05
9.95716e-06
2.23725e-05
2.23729e-05
2.23663e-05
2.23667e-05
9.95682e-06
4.7063e-06
2.97423e-06
5.64677e-06
9.91838e-06
9.92092e-06
2.9741e-06
4.70661e-06
4.70035e-06
2.97313e-06
5.64531e-06
9.91402e-06
2.97296e-06
9.91591e-06
4.70068e-06
4.70732e-06
9.92385e-06
5.64787e-06
2.97451e-06
9.92135e-06
2.97465e-06
4.707e-06
4.70139e-06
9.91884e-06
5.64648e-06
2.97337e-06
2.97355e-06
9.91697e-06
4.70106e-06
9.95501e-06
2.23604e-05
2.23609e-05
2.23667e-05
2.23671e-05
9.95534e-06
1.90648e-05
1.90655e-05
1.90791e-05
1.90784e-05
9.95862e-06
2.23721e-05
2.23725e-05
9.95897e-06
2.23783e-05
2.23787e-05
4.7087e-06
2.97528e-06
5.65006e-06
9.92965e-06
2.97543e-06
9.92715e-06
4.70836e-06
4.70277e-06
2.97414e-06
5.64867e-06
9.92465e-06
9.92283e-06
2.97433e-06
4.70243e-06
4.70769e-06
9.9243e-06
2.97505e-06
5.64898e-06
2.97491e-06
4.70802e-06
9.92676e-06
4.70175e-06
9.91993e-06
2.97395e-06
5.64753e-06
4.70209e-06
9.92182e-06
2.97377e-06
9.96075e-06
2.23841e-05
2.23845e-05
2.23779e-05
2.23783e-05
9.96039e-06
1.90766e-05
1.90759e-05
1.26399e-05
4.88181e-06
1.12333e-05
4.23659e-06
4.88187e-06
1.12311e-05
1.26435e-05
2.27372e-05
9.55289e-06
7.23881e-06
7.23864e-06
2.27303e-05
2.27368e-05
7.23992e-06
9.55359e-06
7.2401e-06
2.27437e-05
1.26397e-05
4.23581e-06
4.88112e-06
1.12276e-05
4.88107e-06
1.12299e-05
1.2636e-05
1.26402e-05
4.88169e-06
1.12335e-05
4.23661e-06
4.88183e-06
1.12305e-05
1.26439e-05
2.27388e-05
9.55318e-06
7.23788e-06
7.23768e-06
2.27319e-05
2.27383e-05
7.23896e-06
9.55423e-06
7.23916e-06
2.27453e-05
1.26401e-05
4.23577e-06
4.88109e-06
1.12271e-05
4.88095e-06
1.123e-05
1.26363e-05
1.26473e-05
4.88259e-06
1.12346e-05
4.23713e-06
1.26437e-05
4.88254e-06
1.12369e-05
2.27496e-05
9.55938e-06
7.24244e-06
7.24263e-06
2.27564e-05
2.27501e-05
7.24137e-06
9.5587e-06
2.27432e-05
7.24119e-06
1.26476e-05
4.23789e-06
4.88324e-06
1.12403e-05
4.88331e-06
1.12381e-05
1.26511e-05
1.26477e-05
4.88256e-06
1.12341e-05
4.2371e-06
1.26441e-05
4.88242e-06
1.1237e-05
2.27511e-05
9.56007e-06
7.24149e-06
7.24171e-06
2.2758e-05
2.27517e-05
7.24044e-06
9.55903e-06
2.27448e-05
7.24023e-06
1.26479e-05
4.23791e-06
4.88313e-06
1.12404e-05
4.88328e-06
1.12377e-05
1.26515e-05
1.90658e-05
1.90665e-05
1.90681e-05
1.90688e-05
9.95912e-06
2.23736e-05
2.23729e-05
9.95943e-06
2.23798e-05
2.23791e-05
4.70305e-06
2.97419e-06
5.64855e-06
9.92523e-06
4.7027e-06
2.97437e-06
9.92307e-06
4.70881e-06
2.97537e-06
5.65029e-06
9.93004e-06
4.70848e-06
2.97555e-06
9.9276e-06
4.70202e-06
9.9203e-06
2.974e-06
5.64746e-06
4.70237e-06
2.97382e-06
9.92222e-06
4.70781e-06
9.9247e-06
2.97516e-06
5.64918e-06
4.70813e-06
2.97499e-06
9.92716e-06
9.96122e-06
2.23855e-05
2.23848e-05
9.9609e-06
2.23793e-05
2.23786e-05
1.90776e-05
1.90769e-05
1.90799e-05
1.90792e-05
1.90857e-05
1.90889e-05
4.7032e-06
2.97468e-06
9.92535e-06
5.64952e-06
4.7036e-06
9.92793e-06
2.97447e-06
4.709e-06
2.97582e-06
9.93073e-06
5.6513e-06
4.70939e-06
9.93277e-06
2.97562e-06
9.96267e-06
2.23845e-05
2.23838e-05
9.96303e-06
2.23907e-05
2.239e-05
2.27641e-05
7.24296e-06
9.56372e-06
2.27573e-05
7.24277e-06
1.26554e-05
4.2382e-06
1.12415e-05
4.8839e-06
1.12438e-05
1.26517e-05
4.88384e-06
4.70911e-06
2.97578e-06
9.93011e-06
5.65101e-06
9.93268e-06
4.70947e-06
2.9756e-06
4.70331e-06
2.97476e-06
9.92625e-06
5.64975e-06
2.97457e-06
4.70369e-06
9.92807e-06
9.96272e-06
2.23843e-05
2.23848e-05
2.23905e-05
9.96311e-06
2.23911e-05
2.27634e-05
7.24266e-06
9.56432e-06
2.27565e-05
7.24245e-06
1.26553e-05
4.23824e-06
1.12413e-05
4.88384e-06
1.12442e-05
1.26518e-05
4.88377e-06
1.26549e-05
4.23913e-06
1.12477e-05
4.88485e-06
1.12447e-05
2.27626e-05
7.24413e-06
9.56433e-06
7.24372e-06
2.27555e-05
1.26548e-05
4.23842e-06
4.88416e-06
1.12414e-05
4.88394e-06
1.26511e-05
1.12442e-05
2.27617e-05
1.26552e-05
4.23895e-06
1.12475e-05
4.88442e-06
1.12446e-05
4.88451e-06
1.26591e-05
2.27634e-05
7.24249e-06
9.56401e-06
2.27566e-05
7.24227e-06
1.26552e-05
4.2383e-06
1.12412e-05
4.88383e-06
1.26517e-05
1.12441e-05
4.88375e-06
2.27628e-05
7.24349e-06
9.56504e-06
7.24372e-06
2.27697e-05
4.70902e-06
2.97579e-06
9.93008e-06
5.65111e-06
9.93245e-06
4.70937e-06
2.97563e-06
4.70309e-06
2.97468e-06
9.92562e-06
5.64969e-06
2.9745e-06
4.70343e-06
9.9275e-06
9.96215e-06
2.23836e-05
2.2384e-05
2.23898e-05
9.96252e-06
2.23902e-05
1.90869e-05
1.26551e-05
4.23912e-06
4.88461e-06
1.12471e-05
4.88469e-06
1.1245e-05
1.26585e-05
2.27627e-05
7.24388e-06
9.56442e-06
7.24368e-06
2.27559e-05
1.26549e-05
4.23839e-06
4.88401e-06
1.12416e-05
4.88394e-06
1.26514e-05
1.12438e-05
2.27622e-05
7.24491e-06
7.24511e-06
2.2769e-05
1.26553e-05
4.23915e-06
4.88452e-06
1.1247e-05
4.88468e-06
1.12448e-05
1.26592e-05
2.27643e-05
7.24296e-06
9.56473e-06
2.27575e-05
7.24273e-06
1.26553e-05
4.23835e-06
4.88399e-06
1.12413e-05
1.26517e-05
4.88383e-06
1.12437e-05
2.27638e-05
7.24396e-06
9.56576e-06
7.24419e-06
2.27706e-05
1.90879e-05
1.90885e-05
1.90902e-05
1.90908e-05
4.41773e-07
4.41714e-07
6.53449e-07
4.43665e-07
4.43597e-07
2.35631e-07
2.33701e-07
2.82692e-06
1.96719e-06
1.96742e-06
1.41372e-06
1.96649e-06
1.96671e-06
2.82723e-06
4.49147e-07
4.49083e-07
2.43233e-07
2.41359e-07
2.8282e-06
1.96869e-06
1.96891e-06
1.41661e-06
2.82854e-06
1.96796e-06
1.96819e-06
2.82685e-06
1.96715e-06
1.96736e-06
1.41368e-06
1.96648e-06
1.96667e-06
2.82716e-06
2.82818e-06
1.41735e-06
1.96762e-06
1.96782e-06
1.96831e-06
1.96853e-06
2.82786e-06
2.82689e-06
1.96729e-06
1.96723e-06
1.41364e-06
1.96652e-06
1.96659e-06
2.82722e-06
2.82825e-06
1.41737e-06
1.96774e-06
1.96767e-06
1.96846e-06
1.96839e-06
2.8279e-06
2.82683e-06
1.9673e-06
1.9672e-06
1.41372e-06
1.96651e-06
1.96661e-06
2.82713e-06
2.82815e-06
1.4174e-06
1.96776e-06
1.96766e-06
1.96846e-06
1.96837e-06
2.82784e-06
2.82825e-06
1.41746e-06
1.96764e-06
1.96787e-06
2.82794e-06
1.96835e-06
1.96858e-06
2.82816e-06
1.96866e-06
1.96887e-06
1.41657e-06
2.82848e-06
1.96796e-06
1.96816e-06
2.8282e-06
1.9688e-06
1.96873e-06
1.41651e-06
1.968e-06
2.82855e-06
1.96807e-06
2.82813e-06
1.96881e-06
1.96871e-06
1.41661e-06
1.96799e-06
2.82845e-06
1.96809e-06
4.41756e-07
4.41742e-07
6.53463e-07
4.43659e-07
4.4362e-07
2.35636e-07
2.33706e-07
4.41858e-07
4.41843e-07
6.53579e-07
4.43739e-07
4.43733e-07
2.35706e-07
2.33776e-07
4.41885e-07
4.41805e-07
6.53541e-07
4.43742e-07
4.43725e-07
2.35714e-07
2.33773e-07
6.55009e-07
4.47351e-07
4.47281e-07
4.45529e-07
4.45472e-07
2.37557e-07
2.3946e-07
6.54996e-07
4.47345e-07
4.47305e-07
4.45511e-07
4.45501e-07
2.37563e-07
2.39465e-07
6.55146e-07
4.47421e-07
4.47417e-07
4.45615e-07
4.45598e-07
2.37633e-07
2.39535e-07
6.55131e-07
4.47424e-07
4.47416e-07
4.45646e-07
4.45555e-07
2.37629e-07
2.39545e-07
1.66437e-06
2.53954e-06
1.54159e-06
2.29418e-06
2.53975e-06
1.54244e-06
1.66311e-06
1.84159e-06
2.22245e-06
3.64434e-06
3.02097e-06
2.22196e-06
3.0206e-06
1.84269e-06
1.8432e-06
3.02107e-06
3.64518e-06
2.22232e-06
2.22281e-06
3.02145e-06
1.84213e-06
1.66255e-06
2.29364e-06
2.53935e-06
1.54185e-06
2.53914e-06
1.54101e-06
1.66388e-06
1.66448e-06
1.54154e-06
2.53957e-06
2.2942e-06
1.5425e-06
2.53977e-06
1.66293e-06
1.84153e-06
2.22244e-06
3.64433e-06
3.02096e-06
2.22195e-06
3.02061e-06
1.84279e-06
1.84333e-06
3.02108e-06
3.64516e-06
2.22231e-06
2.22281e-06
3.02144e-06
1.84199e-06
1.66251e-06
2.29361e-06
1.54192e-06
2.53938e-06
1.54097e-06
2.53918e-06
1.66394e-06
2.82759e-06
1.416e-06
1.9669e-06
1.96712e-06
1.9676e-06
1.96783e-06
2.82728e-06
4.4913e-07
4.49122e-07
4.50848e-07
2.43239e-07
2.41366e-07
4.49229e-07
4.49213e-07
4.50967e-07
2.43308e-07
2.41435e-07
4.49266e-07
4.49165e-07
6.59546e-07
4.50959e-07
4.50983e-07
2.43319e-07
2.4143e-07
1.66606e-06
2.29567e-06
2.54091e-06
1.54356e-06
2.54114e-06
1.54447e-06
1.66489e-06
1.8436e-06
2.22378e-06
3.02276e-06
3.64685e-06
1.84457e-06
2.22326e-06
3.02239e-06
1.66453e-06
2.2952e-06
2.54083e-06
1.544e-06
1.6657e-06
2.5406e-06
1.54312e-06
1.66681e-06
2.29569e-06
1.5435e-06
2.54094e-06
1.54454e-06
2.54117e-06
1.66426e-06
1.84333e-06
2.22377e-06
3.02277e-06
3.64684e-06
1.84498e-06
2.22325e-06
3.02238e-06
1.66409e-06
2.29517e-06
1.54408e-06
2.54086e-06
1.66628e-06
1.54307e-06
2.54063e-06
1.84537e-06
3.02276e-06
3.02317e-06
1.84375e-06
2.82883e-06
1.41878e-06
1.96825e-06
1.96847e-06
1.969e-06
1.96922e-06
2.82849e-06
2.82752e-06
1.4159e-06
1.96688e-06
1.96708e-06
2.82721e-06
1.96756e-06
1.96778e-06
2.82755e-06
1.41517e-06
1.96795e-06
1.96816e-06
2.82786e-06
1.96726e-06
1.96746e-06
1.66445e-06
2.53953e-06
1.54148e-06
2.29413e-06
2.53975e-06
1.54244e-06
1.66285e-06
1.84147e-06
2.22238e-06
3.64414e-06
3.02098e-06
3.0206e-06
2.22189e-06
1.84277e-06
1.84332e-06
3.02107e-06
3.64498e-06
2.22225e-06
3.02146e-06
2.22274e-06
1.84193e-06
1.66244e-06
2.29354e-06
2.53935e-06
1.54185e-06
2.53913e-06
1.5409e-06
1.66391e-06
1.6644e-06
2.5394e-06
1.54142e-06
2.29408e-06
2.5396e-06
1.54238e-06
1.66269e-06
1.84132e-06
2.2226e-06
3.64452e-06
3.02068e-06
3.02032e-06
2.2221e-06
1.84265e-06
1.84322e-06
3.02079e-06
3.64541e-06
2.22246e-06
3.02116e-06
1.84177e-06
2.22297e-06
1.6623e-06
2.29349e-06
2.5392e-06
1.5418e-06
2.539e-06
1.54084e-06
1.66382e-06
1.6632e-06
2.54013e-06
1.543e-06
2.29437e-06
1.66506e-06
2.5399e-06
1.54202e-06
1.84453e-06
2.22289e-06
3.64625e-06
3.02196e-06
2.22341e-06
3.02237e-06
1.84272e-06
1.84233e-06
3.02192e-06
2.22309e-06
3.64543e-06
2.22258e-06
1.8439e-06
3.02153e-06
1.66573e-06
2.29493e-06
2.54026e-06
1.54253e-06
2.5405e-06
1.54352e-06
1.6636e-06
1.66309e-06
2.53998e-06
1.54294e-06
2.29432e-06
1.66502e-06
2.53977e-06
1.54197e-06
1.84443e-06
2.22311e-06
3.64668e-06
3.02168e-06
3.02207e-06
2.22364e-06
1.8427e-06
1.84219e-06
3.02162e-06
2.22331e-06
3.64582e-06
1.84382e-06
3.02125e-06
2.2228e-06
1.66561e-06
2.29487e-06
2.54013e-06
1.54248e-06
2.54034e-06
1.54347e-06
1.66361e-06
2.82758e-06
1.41592e-06
1.96699e-06
1.96693e-06
1.96764e-06
1.96771e-06
2.82725e-06
2.82759e-06
1.41514e-06
1.9681e-06
1.96803e-06
1.96738e-06
2.82792e-06
1.96731e-06
1.66435e-06
2.53955e-06
1.54153e-06
2.29413e-06
2.53976e-06
1.54239e-06
1.66309e-06
1.8416e-06
2.22269e-06
3.6447e-06
3.02107e-06
3.02071e-06
2.22221e-06
1.84269e-06
1.8432e-06
3.02119e-06
3.64552e-06
2.22257e-06
3.02154e-06
2.22306e-06
1.84215e-06
1.66253e-06
2.29359e-06
2.53936e-06
1.54181e-06
2.53915e-06
1.54095e-06
1.66385e-06
1.66451e-06
1.54144e-06
2.53941e-06
2.29407e-06
1.5424e-06
2.53961e-06
1.66268e-06
1.8414e-06
2.22265e-06
3.64462e-06
3.0207e-06
3.02033e-06
2.22218e-06
1.84267e-06
1.84322e-06
3.0208e-06
3.64545e-06
2.22253e-06
3.02116e-06
1.84185e-06
2.22301e-06
1.66229e-06
2.29353e-06
1.54181e-06
2.53921e-06
1.54087e-06
2.53902e-06
1.66386e-06
1.66361e-06
2.54013e-06
1.54294e-06
2.29442e-06
1.66481e-06
2.53992e-06
1.54208e-06
1.84416e-06
2.22322e-06
3.64679e-06
3.02208e-06
2.22372e-06
3.02245e-06
1.84316e-06
1.84268e-06
3.022e-06
2.2234e-06
3.64599e-06
2.22291e-06
1.84369e-06
3.02164e-06
1.66525e-06
2.29492e-06
2.54028e-06
1.5426e-06
2.5405e-06
1.54346e-06
1.66406e-06
1.66312e-06
1.54296e-06
2.53999e-06
2.29434e-06
1.66517e-06
1.542e-06
2.53979e-06
1.84442e-06
2.22318e-06
3.64672e-06
3.02169e-06
3.02206e-06
2.22368e-06
1.84272e-06
1.84227e-06
3.02161e-06
2.22336e-06
3.64592e-06
1.8438e-06
3.02126e-06
2.22286e-06
1.6657e-06
2.29487e-06
1.54251e-06
2.54015e-06
1.54349e-06
2.54035e-06
1.66363e-06
1.66431e-06
1.54156e-06
2.53943e-06
2.29414e-06
1.54241e-06
2.53964e-06
1.66295e-06
1.84141e-06
2.22238e-06
3.64424e-06
3.02058e-06
2.22189e-06
3.0202e-06
1.84259e-06
1.84312e-06
3.02067e-06
3.64508e-06
2.22226e-06
2.22275e-06
3.02105e-06
1.84191e-06
1.66245e-06
2.2936e-06
1.54183e-06
2.53924e-06
1.54099e-06
2.53904e-06
1.66381e-06
1.66363e-06
2.54013e-06
1.54298e-06
2.29447e-06
1.66484e-06
2.53991e-06
1.54213e-06
1.84414e-06
2.22296e-06
3.64645e-06
3.02196e-06
1.84316e-06
2.22348e-06
3.02234e-06
1.84266e-06
3.0219e-06
2.22316e-06
3.64563e-06
1.84368e-06
2.22265e-06
3.02152e-06
1.66527e-06
2.29497e-06
2.54026e-06
1.54264e-06
1.66409e-06
2.54049e-06
1.54351e-06
1.66339e-06
1.54296e-06
2.54002e-06
2.29442e-06
1.66478e-06
1.54209e-06
2.5398e-06
1.84416e-06
2.2229e-06
3.64634e-06
3.02156e-06
3.02195e-06
2.22341e-06
1.84273e-06
1.84235e-06
3.02151e-06
2.22309e-06
3.64554e-06
1.84362e-06
3.02112e-06
2.22258e-06
1.66527e-06
2.29493e-06
1.54257e-06
2.54014e-06
1.54349e-06
2.54037e-06
1.66368e-06
2.82749e-06
1.41595e-06
1.96702e-06
1.96692e-06
1.96761e-06
1.96771e-06
2.82719e-06
2.82752e-06
1.41522e-06
1.9681e-06
1.968e-06
1.9674e-06
2.82783e-06
1.9673e-06
1.66434e-06
1.54147e-06
2.53939e-06
2.29413e-06
1.54243e-06
2.53962e-06
1.66279e-06
1.84141e-06
2.22272e-06
3.64474e-06
3.02074e-06
2.22222e-06
3.02037e-06
1.84266e-06
1.8432e-06
3.02084e-06
3.64557e-06
2.22259e-06
2.22308e-06
3.02122e-06
1.84188e-06
1.66238e-06
2.29353e-06
1.54185e-06
2.53922e-06
1.5409e-06
2.539e-06
1.66381e-06
1.66328e-06
1.54306e-06
2.54015e-06
2.29443e-06
1.66506e-06
1.54208e-06
2.53994e-06
1.84449e-06
2.22295e-06
3.64642e-06
3.02196e-06
1.84284e-06
2.22347e-06
3.02234e-06
1.8424e-06
3.0219e-06
2.22315e-06
3.64562e-06
1.84389e-06
2.22264e-06
3.02153e-06
1.66572e-06
2.29499e-06
1.5426e-06
2.5403e-06
1.6637e-06
1.54358e-06
2.54051e-06
1.66315e-06
1.54299e-06
2.54e-06
2.29436e-06
1.66492e-06
1.54201e-06
2.53977e-06
1.84436e-06
2.22323e-06
3.64684e-06
3.02173e-06
3.02212e-06
2.22375e-06
1.84266e-06
1.84229e-06
3.02168e-06
2.22343e-06
3.64603e-06
1.84376e-06
3.02129e-06
2.22292e-06
1.66558e-06
2.29492e-06
1.54253e-06
2.54013e-06
1.54351e-06
2.54037e-06
1.66355e-06
2.82762e-06
1.41523e-06
1.96799e-06
1.96822e-06
2.82794e-06
1.96728e-06
1.9675e-06
1.84302e-06
2.22372e-06
3.02279e-06
3.64666e-06
3.02237e-06
1.84514e-06
2.22319e-06
1.66387e-06
2.29511e-06
2.54084e-06
1.54402e-06
2.54059e-06
1.66628e-06
1.543e-06
1.84317e-06
2.22394e-06
3.02249e-06
3.64703e-06
1.8448e-06
3.0221e-06
2.22341e-06
1.66406e-06
2.29506e-06
2.54068e-06
1.54397e-06
1.66596e-06
2.54047e-06
1.54295e-06
1.84357e-06
2.22403e-06
3.02287e-06
3.64722e-06
3.02249e-06
1.84461e-06
2.22351e-06
1.66448e-06
2.29515e-06
2.54084e-06
1.54396e-06
2.54062e-06
1.66567e-06
1.54308e-06
1.8432e-06
2.22398e-06
3.02248e-06
3.64714e-06
1.84487e-06
3.02211e-06
2.22346e-06
1.66409e-06
2.29508e-06
1.54398e-06
2.54069e-06
1.66607e-06
1.54301e-06
2.54048e-06
1.66665e-06
2.29563e-06
1.54346e-06
2.54077e-06
1.54447e-06
2.54102e-06
1.66403e-06
1.84302e-06
2.2237e-06
3.02237e-06
3.64675e-06
2.22317e-06
1.84475e-06
3.02197e-06
1.66394e-06
2.29514e-06
1.54399e-06
2.54071e-06
1.54304e-06
1.6659e-06
2.54047e-06
1.84546e-06
3.02233e-06
3.64753e-06
2.22342e-06
2.22398e-06
3.02277e-06
1.84328e-06
1.66659e-06
2.29563e-06
1.54345e-06
2.54078e-06
1.54448e-06
2.54104e-06
1.66424e-06
1.84298e-06
2.22405e-06
3.02255e-06
3.64726e-06
2.22352e-06
1.84499e-06
3.02215e-06
1.6639e-06
2.2951e-06
1.54401e-06
2.54071e-06
1.54303e-06
1.6661e-06
2.54046e-06
1.84561e-06
3.02253e-06
3.64804e-06
2.2238e-06
2.22433e-06
3.02296e-06
1.84342e-06
8.63143e-07
1.14885e-06
8.63032e-07
9.16202e-06
3.47502e-06
1.84288e-05
5.46344e-06
5.46215e-06
1.84267e-05
3.47501e-06
9.16217e-06
2.2055e-05
9.15893e-06
7.08875e-06
7.0891e-06
2.20616e-05
1.84237e-05
4.54493e-06
2.81259e-06
5.46339e-06
9.50422e-06
2.81159e-06
9.5013e-06
4.54499e-06
4.53872e-06
2.81146e-06
5.46186e-06
9.49997e-06
9.49633e-06
2.81047e-06
4.53903e-06
9.73629e-06
2.17294e-05
2.17298e-05
2.17231e-05
2.17235e-05
9.7359e-06
1.84217e-05
2.20525e-05
9.15918e-06
7.08951e-06
7.09004e-06
2.20594e-05
2.66776e-06
1.14919e-06
1.76832e-06
1.7682e-06
1.76778e-06
1.76766e-06
2.66868e-06
1.6171e-06
2.03247e-06
3.47496e-06
2.86025e-06
2.86003e-06
2.0323e-06
1.61753e-06
1.6172e-06
2.0323e-06
3.47473e-06
2.86074e-06
2.03154e-06
2.86007e-06
1.61762e-06
3.23776e-07
8.69035e-07
8.69165e-07
1.15482e-06
3.39811e-07
8.92463e-07
8.92586e-07
1.17381e-06
3.5609e-07
9.14892e-07
9.15024e-07
1.19217e-06
3.72532e-07
9.36313e-07
9.36449e-07
1.20966e-06
3.89056e-07
9.56731e-07
9.56865e-07
1.2263e-06
4.05581e-07
9.76153e-07
9.76284e-07
1.24209e-06
4.22029e-07
9.94583e-07
9.94711e-07
1.25702e-06
4.38324e-07
1.01202e-06
1.01215e-06
1.27119e-06
4.54396e-07
1.02849e-06
1.02863e-06
1.28459e-06
4.70176e-07
1.04401e-06
1.04415e-06
1.29726e-06
4.85605e-07
1.0586e-06
1.05874e-06
1.3092e-06
5.00632e-07
1.07229e-06
1.07243e-06
1.32047e-06
5.15209e-07
1.0851e-06
1.08524e-06
1.33103e-06
5.29294e-07
1.09706e-06
1.09719e-06
1.34095e-06
5.42851e-07
1.10819e-06
1.10831e-06
1.35022e-06
5.55852e-07
1.11852e-06
1.11864e-06
1.35888e-06
5.68269e-07
1.12807e-06
1.12818e-06
1.36697e-06
5.80081e-07
1.13686e-06
1.13698e-06
1.37445e-06
5.91276e-07
1.14492e-06
1.14504e-06
1.38136e-06
6.01841e-07
1.15228e-06
1.1524e-06
1.38773e-06
6.1177e-07
1.15896e-06
1.15907e-06
1.39355e-06
6.21059e-07
1.16498e-06
1.16509e-06
1.39886e-06
6.29709e-07
1.17036e-06
1.17046e-06
1.40367e-06
6.37721e-07