/*--------------------------------*- C++ -*----------------------------------*\
| =========                 |                                                 |
| \\      /  F ield         | OpenFOAM: The Open Source CFD Toolbox           |
|  \\    /   O peration     | Version:  2312                                  |
|   \\  /    A nd           | Website:  www.openfoam.com                      |
|    \\/     M anipulation  |                                                 |
\*---------------------------------------------------------------------------*/
FoamFile
{
    version     2.0;
    format      ascii;
    arch        "LSB;label=32;scalar=64";
    class       surfaceScalarField;
    location    "800";
    object      phi;
}
// * * * * * * * * * * * * * * * * * * * * * * * * * * * * * * * * * * * * * //

dimensions      [0 3 -1 0 0 0 0];

oriented        oriented;

internalField   nonuniform List<scalar> 
125567
(
-7.02179e-08
-1.0199e-10
-0.000229368
2.09253e-09
2.9986e-08
-6.92357e-09
-1.97235e-08
-9.80152e-05
1.24099e-06
-1.22982e-07
2.69123e-07
-2.15106e-07
-1.19371e-06
2.77492e-07
-2.36801e-07
-0.00113202
-5.54106e-08
-8.5259e-07
9.11337e-07
2.08108e-08
4.36122e-08
-0.000245491
-1.02571e-07
-1.67261e-08
-1.61505e-09
-0.00025013
3.9899e-09
-1.93211e-07
-3.05754e-09
-1.53041e-07
-9.38551e-07
8.31126e-07
-7.56617e-07
1.01145e-06
-0.00115229
-7.01906e-08
-0.000229329
2.99642e-08
2.24237e-09
-4.35337e-08
3.22238e-09
-0.000193597
-0.000250103
-1.93192e-07
4.38452e-09
-4.99894e-08
1.27248e-06
-1.28135e-07
-8.57949e-07
2.69013e-07
9.16498e-07
-2.1519e-07
-1.22788e-06
2.80241e-07
-2.42361e-07
-0.00113153
-1.58759e-07
-9.3858e-07
8.3112e-07
-7.56652e-07
1.01141e-06
-0.00115224
2.32488e-08
-1.6762e-08
-0.000245388
-1.02482e-07
-0.000268079
2.41853e-07
2.46819e-07
1.05241e-08
-0.00027816
-4.61698e-08
1.97957e-08
1.05454e-08
-0.000278296
-4.84576e-08
-6.87605e-09
-9.8038e-05
-0.000193654
3.32146e-09
1.24011e-08
-7.55405e-10
0.000143418
-8.34653e-11
-0.00014343
6.85626e-10
-1.11232e-08
6.51132e-11
2.86519e-08
-0.000229387
-0.000223421
2.88801e-08
4.32335e-09
-7.1732e-08
-0.000171124
-3.72758e-10
4.75994e-11
8.43199e-10
3.30076e-08
-0.000223442
3.64926e-11
-0.000171136
1.42919e-09
1.69877e-08
7.9298e-05
-7.93151e-05
-0.000263317
2.42987e-08
-6.16272e-08
3.31969e-08
-0.000263336
4.99221e-09
1.1292e-08
-9.80315e-05
-8.15927e-10
1.23703e-08
0.000143346
-2.74231e-11
-0.000143358
-1.11257e-08
9.72809e-10
2.86528e-08
-0.000229347
-0.000171089
-1.05593e-10
-0.000223323
2.8829e-08
4.41887e-09
-6.92282e-08
-0.000171101
9.57949e-10
3.0554e-08
-0.000223341
1.53455e-09
1.69943e-08
7.92536e-05
-7.92706e-05
-0.000263189
2.4137e-08
-5.91159e-08
-3.91076e-09
2.25694e-08
-0.000193611
3.08265e-08
-0.000263206
-7.02671e-09
-7.01832e-09
0.000213783
1.2229e-08
1.01559e-08
-0.000213792
-8.05423e-05
-1.22754e-08
-1.20079e-08
-8.0566e-05
-1.22334e-08
-1.2048e-08
9.38495e-09
-8.05587e-05
9.39201e-09
-8.05824e-05
-2.70417e-08
-2.498e-08
-1.43062e-08
1.57754e-08
0.000221867
2.90772e-08
-0.000221886
-0.000183015
-3.11594e-08
-7.32657e-09
2.0378e-08
1.21679e-08
-0.000278174
-0.000250575
3.60312e-08
-5.49784e-08
-9.97351e-08
-0.000183028
3.1961e-08
6.12539e-08
-0.000250632
-5.751e-08
1.57923e-08
-1.42834e-08
0.000221956
3.11934e-08
-0.000221979
-0.000183097
-3.1146e-08
2.25842e-08
-7.30997e-09
-1.13203e-08
9.72144e-09
-0.00027831
-0.000250748
3.61143e-08
-5.24179e-08
-9.97733e-08
2.93925e-08
6.11614e-08
-0.0002508
-0.00018311
-5.95804e-08
4.9796e-09
-9.80543e-05
2.25582e-08
-0.000193668
-3.89312e-09
2.36074e-09
-0.00121558
-1.00055e-07
-7.52674e-08
-0.00118363
-1.03913e-07
-0.0012147
-1.17907e-07
6.40339e-08
-0.000245527
4.02016e-09
-0.000260376
-2.74059e-08
-0.000260506
8.01374e-09
-1.53041e-07
1.58981e-09
0.000265678
-1.06193e-08
-0.000266455
4.36535e-10
1.32114e-07
3.52814e-10
-0.000250234
-0.000249561
-2.11813e-07
1.02999e-08
-0.000265854
7.00853e-09
-6.55774e-09
7.33537e-10
-0.000249681
3.92281e-09
-0.000266481
2.70199e-08
-1.39125e-07
0.000264002
-0.000264718
-0.000250756
-1.86162e-07
-0.000250855
-2.28925e-09
-1.50422e-07
0.000265609
2.2564e-09
-0.000266397
1.32122e-07
1.43375e-09
-0.000250208
-0.000265836
5.61034e-09
-0.000249476
-2.11722e-07
1.04242e-08
-0.000266459
8.21322e-10
-0.000249595
1.42922e-08
-1.36679e-07
0.000263902
-8.05742e-09
-0.000264613
-0.000250651
-1.88612e-07
4.00856e-09
6.1678e-08
-0.000245419
-2.7449e-08
-0.000260269
-0.000250752
-0.000260398
7.49154e-08
7.75138e-08
0.00024288
-0.000242972
-2.03179e-07
-1.98251e-07
-0.000270099
-0.000261131
1.12529e-07
-0.000260783
1.09925e-07
-0.000261087
-0.000261433
1.19177e-07
1.19697e-07
-7.10801e-08
-7.09949e-08
0.00118445
-0.00118455
-1.19686e-06
-1.19571e-07
-5.43625e-08
0.00113224
-2.37017e-07
1.24126e-06
2.74945e-07
9.11267e-07
-2.15446e-07
2.69162e-07
-8.53094e-07
-0.00113226
-1.19423e-06
-1.19702e-07
-4.85253e-08
0.0011321
-2.34335e-07
1.23847e-06
2.74898e-07
9.11267e-07
-2.15445e-07
2.6923e-07
-8.5305e-07
-0.00113213
1.22549e-06
1.18891e-06
-1.98233e-07
-2.00934e-07
0.000268045
-0.000270061
1.21887e-07
1.28155e-07
-0.00118417
-7.43742e-08
-7.43065e-08
-0.00113216
-1.19646e-06
-1.22332e-07
-3.88165e-08
-2.36788e-07
1.24111e-06
2.74792e-07
9.11171e-07
-2.1522e-07
-8.52629e-07
2.69065e-07
-0.00113203
-1.19378e-06
-1.22389e-07
-6.63845e-08
-2.36839e-07
1.23833e-06
2.74785e-07
9.11284e-07
-2.15156e-07
-8.52665e-07
2.69144e-07
-0.000270066
1.2277e-06
1.18314e-06
-1.92863e-07
-2.03315e-07
0.000268051
1.23631e-06
1.19446e-06
-1.9576e-07
-2.0348e-07
0.000268099
-0.000270131
-1.28055e-06
-1.23857e-06
0.000270136
-0.000268103
2.39167e-07
2.47113e-07
-4.86569e-08
0.00113168
-2.3976e-07
1.28063e-06
2.77559e-07
9.13945e-07
-2.12775e-07
2.6635e-07
-8.55908e-07
-0.00113171
-1.23382e-06
-1.19331e-07
-4.83312e-08
0.00113175
-2.42721e-07
1.27799e-06
2.80311e-07
9.19154e-07
-2.15438e-07
2.6911e-07
-8.60974e-07
-0.00113178
0.00113161
-1.21227e-07
-0.00113164
-4.95206e-08
-1.23599e-06
2.77472e-07
-2.39559e-07
-8.55578e-07
2.66308e-07
-2.12547e-07
9.1395e-07
1.27519e-06
0.00113169
-1.21535e-07
-0.0011317
-4.92465e-08
-1.23349e-06
2.77479e-07
-2.42508e-07
-8.60633e-07
2.69078e-07
-2.15184e-07
9.16516e-07
-1.98365e-07
-2.00867e-07
0.000268084
-0.000270116
-1.24116e-06
0.000270118
-0.000268088
2.41999e-07
2.44302e-07
-4.84358e-08
0.00113269
-2.37253e-07
1.23866e-06
2.74991e-07
9.16663e-07
-2.15463e-07
2.69301e-07
-8.58373e-07
-0.00113271
-1.22836e-06
-1.19198e-07
-4.86057e-08
0.00113162
-2.4265e-07
1.27261e-06
2.80371e-07
9.16526e-07
-2.128e-07
2.66407e-07
-8.58457e-07
-0.00113165
0.00113261
-1.21781e-07
-0.00113264
-4.92585e-08
-1.19414e-06
2.749e-07
-2.37054e-07
-8.58043e-07
2.69241e-07
-2.15242e-07
9.1667e-07
1.27254e-06
0.00113155
-1.26953e-07
-0.00113157
-4.94659e-08
-1.22805e-06
2.80281e-07
-2.42449e-07
-8.5812e-07
2.66355e-07
-2.12571e-07
9.16533e-07
-1.19524e-07
-4.8494e-08
0.00113126
-2.3979e-07
1.2697e-06
2.77503e-07
9.08459e-07
-2.09945e-07
2.63702e-07
-8.50309e-07
-0.00113128
-1.21736e-07
-0.00113219
-4.40439e-08
-1.19654e-06
2.74857e-07
-2.36819e-07
-8.52733e-07
2.69112e-07
9.11301e-07
-2.15215e-07
1.26961e-06
0.00113118
-1.21384e-07
-0.00113121
-4.93424e-08
-1.22518e-06
2.77428e-07
-2.39611e-07
-8.50044e-07
2.66314e-07
-2.09777e-07
9.08436e-07
-1.98482e-07
-2.03428e-07
0.000268068
-0.000270089
-1.23835e-06
0.000270097
-0.000268075
2.41969e-07
2.46924e-07
-1.19604e-07
-4.86798e-08
0.00113224
-2.37142e-07
1.2332e-06
2.74996e-07
9.13718e-07
-2.15447e-07
2.69216e-07
-8.55453e-07
-0.00113227
-1.21726e-07
-0.00113205
-5.49082e-08
-1.1912e-06
2.74818e-07
-2.36901e-07
-8.52753e-07
2.69167e-07
9.11319e-07
-2.15217e-07
1.23307e-06
0.00113215
-1.21787e-07
-0.0011322
-3.2712e-08
-1.18858e-06
2.74861e-07
-2.36956e-07
-8.55194e-07
2.69129e-07
-2.15221e-07
9.13802e-07
-0.00026805
2.4174e-07
2.44457e-07
1.2359e-06
1.19406e-06
-1.95571e-07
-2.03295e-07
0.000268105
-5.53854e-08
-2.39539e-07
1.28052e-06
2.7746e-07
9.13917e-07
-2.15225e-07
-8.55491e-07
2.68984e-07
-1.23072e-06
-1.21928e-07
-4.38519e-08
-2.39736e-07
1.27517e-06
2.77439e-07
9.1646e-07
-2.15185e-07
-8.57924e-07
2.69019e-07
-1.9819e-07
-2.00705e-07
0.00026809
-4.95529e-08
-2.37007e-07
1.23854e-06
2.74867e-07
9.16676e-07
-2.15169e-07
-8.57959e-07
2.69246e-07
-1.22796e-06
-1.2761e-07
-4.97582e-08
-2.42387e-07
1.27251e-06
2.80282e-07
9.16525e-07
-2.12506e-07
-8.58029e-07
2.69039e-07
-1.45017e-07
-4.39358e-08
0.00113117
-2.42262e-07
1.26956e-06
2.80216e-07
9.11195e-07
-2.12381e-07
2.6902e-07
-8.49891e-07
-1.98279e-07
-2.03213e-07
0.000268077
-1.22262e-07
-1.57296e-08
0.00113208
-2.31423e-07
1.23843e-06
2.74879e-07
9.13838e-07
-2.15126e-07
2.69106e-07
-8.55129e-07
-1.88271e-10
-7.02622e-08
0.000229341
3.00596e-08
2.02208e-09
-0.000229303
-5.05386e-09
2.25817e-08
0.000193573
-3.84547e-09
-0.000193587
6.82621e-09
-4.37276e-08
0.000193627
3.3555e-09
-0.000193593
-1.24789e-11
2.88372e-08
0.000229283
-1.11541e-08
1.24574e-09
-0.000229302
5.19848e-09
1.3407e-08
9.79676e-05
-9.79862e-05
-6.72178e-09
-2.2364e-08
9.80072e-05
-9.79781e-05
-7.02869e-08
-9.70086e-11
0.000229328
1.86052e-09
3.00705e-08
-0.00022929
-5.18263e-09
2.25038e-08
0.000193556
-3.64685e-09
-0.000193569
6.75768e-09
-4.38093e-08
0.000193609
3.50733e-09
-0.000193576
2.88273e-08
2.05122e-10
0.000229271
1.10953e-09
-1.11456e-08
-0.00022929
-7.10188e-08
-7.10825e-08
0.00118423
-0.00118433
-7.11763e-08
-7.09851e-08
0.00118399
-0.00118409
-7.10972e-08
-7.13172e-08
0.00118396
-0.00118406
-0.00118427
-7.93968e-08
-6.76338e-08
0.00118394
-0.00118404
-7.35713e-08
-6.78788e-08
0.00118371
-0.0011838
-7.37143e-08
-7.92703e-08
0.00118366
-0.00118377
-7.36351e-08
-6.22013e-08
7.01467e-08
-1.56698e-09
0.00025019
3.80714e-09
-1.93086e-07
-0.000250069
-1.22006e-08
-2.2512e-08
6.6516e-08
0.000245406
6.53339e-09
-0.000245445
0.00115237
3.64144e-09
-1.40166e-07
1.00564e-06
-7.52199e-07
8.27974e-07
-9.3144e-07
-0.00115244
-4.34179e-08
1.24123e-06
0.00113221
-1.20338e-07
-8.52927e-07
2.69153e-07
-2.15351e-07
9.11318e-07
-1.19674e-06
2.74926e-07
-2.36941e-07
2.3275e-08
4.37126e-08
0.000245483
-1.92101e-08
-0.000245425
-1.0509e-07
-3.36842e-09
0.00115233
-1.4174e-07
-9.33881e-07
8.25337e-07
-7.54687e-07
1.00306e-06
-2.87082e-08
1.52077e-09
0.000250056
2.20122e-09
1.32599e-07
-0.000250163
5.135e-09
1.11427e-08
9.79629e-05
-9.79792e-05
-6.82383e-09
-1.99457e-08
9.80002e-05
-9.79735e-05
-8.57893e-10
7.01448e-08
0.00025018
-1.93086e-07
3.85909e-09
-0.00025006
0.00115219
3.22369e-09
-1.40192e-07
1.0057e-06
-7.54973e-07
8.27972e-07
-9.34178e-07
-0.00115225
-1.22275e-08
-2.25137e-08
6.41307e-08
0.000245398
4.15837e-09
-0.000245432
-4.87573e-08
1.23574e-06
0.00113207
-1.20413e-07
-8.52957e-07
2.69198e-07
-2.15364e-07
9.11316e-07
-1.19141e-06
2.74876e-07
-2.37032e-07
-4.7573e-09
0.00115215
-1.41686e-07
-9.33934e-07
8.28062e-07
-7.54728e-07
1.00578e-06
2.31542e-08
4.37557e-08
0.00024547
-1.67174e-08
-0.000245417
-1.02729e-07
7.73888e-10
-2.87468e-08
0.000250046
1.32648e-07
2.30398e-09
-0.000250153
1.22835e-08
-1.11704e-08
2.48548e-08
0.000278111
-7.02869e-09
-0.00027813
1.22896e-08
-1.11459e-08
2.25428e-08
0.000278036
-7.53244e-09
-0.000278052
-1.26968e-06
-1.23318e-06
0.000270063
-0.000268047
2.41867e-07
2.44587e-07
-2.3152e-08
2.00052e-08
0.000278181
9.93926e-09
-0.000278137
-5.10314e-08
-2.32168e-08
1.99688e-08
0.000278103
1.05074e-08
-0.000278062
-4.8722e-08
-0.000193666
-4.94254e-09
2.26254e-08
-3.97714e-09
0.000193653
-0.00022938
-3.03952e-11
2.86853e-08
0.000229361
-1.11226e-08
1.27006e-09
-9.80281e-05
5.08166e-09
1.35312e-08
9.80095e-05
-0.000193649
-5.06018e-09
2.2532e-08
-3.78518e-09
0.000193635
-0.000229368
2.8671e-08
2.1402e-10
0.000229349
9.06084e-10
-1.11211e-08
-6.27111e-08
-5.1208e-08
-7.45461e-08
-9.74928e-08
-3.92583e-08
-4.53756e-08
0.00118348
7.00607e-08
-8.74534e-10
-0.000250125
3.06863e-09
-1.93119e-07
-0.000245518
-1.20855e-08
-2.25425e-08
6.64539e-08
3.97398e-09
0.000245483
0.00115217
-0.00115222
1.36482e-08
-1.51753e-07
1.00591e-06
-7.53986e-07
-9.33275e-07
8.28248e-07
-0.000250216
-2.85357e-08
1.72156e-09
0.000250109
1.99374e-09
1.32101e-07
2.56252e-08
-1.704e-07
-9.3306e-07
8.31097e-07
-7.53779e-07
1.00877e-06
-9.80211e-05
5.02005e-09
1.12625e-08
9.80048e-05
-1.6908e-09
7.00772e-08
-0.000250114
-1.9311e-07
4.11229e-09
0.00115201
-0.00115205
-2.25224e-08
-1.46022e-07
1.00592e-06
-7.54058e-07
-9.3334e-07
8.28256e-07
-0.000245508
-1.21333e-08
-2.25378e-08
6.40267e-08
4.04728e-09
0.000245474
-0.000250206
2.9091e-10
-2.85747e-08
0.0002501
1.32155e-07
2.34462e-09
-5.79056e-08
-1.53138e-07
-9.33146e-07
8.28315e-07
-7.51141e-07
1.00599e-06
-0.000278232
1.22189e-08
-1.12966e-08
2.26237e-08
-6.91149e-09
0.000278215
-0.000278154
1.2184e-08
-1.126e-08
2.2583e-08
-7.38356e-09
0.000278138
-1.26472e-06
-1.30803e-06
-0.000268073
2.54534e-07
2.41869e-07
-2.31841e-08
1.97973e-08
1.05332e-08
-0.000278243
-4.84787e-08
-2.32368e-08
1.97702e-08
1.06101e-08
-0.000278163
-4.85256e-08
1.12859e-08
9.79903e-05
-9.80066e-05
-2.00011e-08
9.80276e-05
-9.80008e-05
1.11385e-08
9.79792e-05
-9.79955e-05
-2.00521e-08
9.80165e-05
-9.79897e-05
1.21552e-08
2.49065e-08
0.000278161
-9.49618e-09
-0.000278177
9.93685e-09
2.47772e-08
0.000278093
-7.02195e-09
-0.000278109
0.000270133
-1.28061e-06
-1.23863e-06
-0.0002681
2.39295e-07
2.47237e-07
0.000278228
-2.31847e-08
1.25587e-08
-0.000278186
-5.09743e-08
0.00027816
-2.07699e-08
9.89616e-09
-0.000278118
-5.10498e-08
-1.98894e-08
-6.87589e-09
9.80485e-05
-9.80217e-05
1.1342e-08
4.99515e-09
9.80113e-05
-1.99434e-08
-6.80197e-09
9.80374e-05
-9.80107e-05
1.11947e-08
5.12093e-09
9.80002e-05
1.23608e-06
1.19422e-06
0.000268102
-1.95645e-07
-2.03361e-07
-2.31918e-08
0.000278278
-5.08625e-08
-0.000278237
1.26048e-08
-2.07848e-08
0.000278211
-5.09379e-08
-0.000278169
9.94929e-09
1.20983e-08
-9.42833e-09
2.49314e-08
0.000278212
9.88026e-09
-6.95213e-09
2.47985e-08
0.000278143
-7.02769e-08
0.000229301
3.00658e-08
2.04533e-09
-0.000229263
2.46887e-08
0.000193509
-3.74551e-09
-0.000193525
-4.59874e-08
0.000193565
3.66985e-09
-0.000193529
2.8829e-08
0.000229243
-1.11467e-08
8.42902e-10
-0.000229262
-9.64132e-10
0.000250204
3.16458e-09
-1.93155e-07
-0.000250083
6.65648e-08
0.000245408
4.0666e-09
-0.000245444
0.00115266
3.36462e-09
-1.39943e-07
1.00858e-06
-7.57783e-07
8.30771e-07
-9.37093e-07
-0.00115271
-4.89678e-08
0.00113166
-1.19892e-07
-1.23619e-06
2.77533e-07
-2.39679e-07
-8.55781e-07
2.66336e-07
-2.12692e-07
9.13953e-07
0.000245482
-1.67582e-08
-0.000245427
-1.05037e-07
-4.15351e-09
0.00115261
-1.41471e-07
-9.3685e-07
8.30864e-07
-7.57536e-07
1.00866e-06
7.6562e-10
0.00025007
2.94139e-09
1.32698e-07
-0.000250178
0.000250176
4.65814e-09
-1.93176e-07
-0.000250059
-1.22825e-08
6.64983e-08
0.000245306
4.14014e-09
-0.000245339
0.0011526
-1.39988e-07
1.01381e-06
-7.57742e-07
8.3076e-07
-9.42251e-07
-0.00115265
-4.86881e-08
0.00113173
1.27796e-06
-1.20177e-07
-8.60827e-07
2.6911e-07
9.19175e-07
-2.15331e-07
-1.23369e-06
2.80287e-07
-2.42639e-07
0.000245377
2.29897e-08
-1.65156e-08
-0.000245325
-1.05097e-07
0.00115254
-1.4155e-07
-9.42015e-07
8.30852e-07
-7.5749e-07
1.01389e-06
0.000250046
1.09886e-09
1.32691e-07
-0.00025015
-1.52819e-11
2.87465e-08
-1.11361e-08
1.2565e-09
0.000229322
-4.36613e-08
-0.000193633
3.2913e-09
2.25939e-08
-3.91356e-09
0.000193613
-1.96932e-10
-7.02363e-08
-0.000229342
3.00127e-08
2.03379e-09
2.87386e-08
-1.11265e-08
8.54518e-10
0.000229282
-4.59102e-08
6.76924e-09
0.000193605
-0.000193569
3.60022e-09
2.46988e-08
-5.1365e-09
-3.81477e-09
0.000193549
-7.02548e-08
0.00022934
-0.000229302
3.00318e-08
2.05414e-09
7.54375e-10
2.9603e-09
1.32442e-07
0.000250096
-5.48581e-08
-1.20627e-07
1.28058e-06
-2.3962e-07
2.77502e-07
9.13956e-07
-2.12613e-07
2.66323e-07
-8.55677e-07
0.00024552
-1.04951e-07
-0.000245465
-1.67757e-08
-0.00115255
-5.10782e-09
0.0011525
-1.44391e-07
-9.36423e-07
8.31021e-07
-7.57064e-07
1.00878e-06
4.0076e-09
6.65082e-08
0.000245446
2.87153e-09
-1.43002e-07
1.00871e-06
-7.57298e-07
-9.3665e-07
8.30933e-07
-1.00227e-09
0.00025023
-0.00025011
3.41861e-09
-1.93182e-07
1.11465e-09
1.32435e-07
0.000250072
-4.89084e-08
-1.2336e-06
-1.20768e-07
9.19162e-07
-2.15282e-07
-8.6075e-07
2.69073e-07
1.27792e-06
-2.42589e-07
2.80254e-07
2.30059e-08
0.000245415
-1.05009e-07
-0.000245363
-1.65314e-08
-0.00115249
0.00115244
-1.44462e-07
-9.416e-07
8.3101e-07
-7.57021e-07
1.0113e-06
-1.22284e-08
4.08357e-09
6.64417e-08
0.000245344
-1.43056e-07
1.01395e-06
-7.57256e-07
-9.41808e-07
8.30925e-07
0.000250203
-0.000250085
4.42241e-09
-1.93208e-07
2.24702e-08
0.000278035
-7.70473e-09
-0.000278049
-1.12252e-08
2.48864e-08
0.000278176
-6.893e-09
-0.000278195
0.000270118
-0.000268085
2.42145e-07
2.44427e-07
0.0002781
1.03997e-08
-0.000278061
-4.87169e-08
1.99377e-08
0.000278245
1.00795e-08
-0.000278201
-5.10196e-08
5.12719e-09
9.7986e-05
-9.80023e-05
9.80233e-05
-6.89288e-09
-9.79965e-05
-2.22553e-08
-9.7999e-05
1.34671e-08
9.79886e-05
1.19663e-06
0.000268087
-1.98263e-07
-2.00768e-07
0.00027815
-4.86045e-08
-0.000278111
1.04519e-08
1.98241e-08
-2.32841e-08
0.000278296
-5.08988e-08
-0.000278252
1.01326e-08
-7.62777e-09
2.24922e-08
0.000278086
-1.12795e-08
1.21398e-08
-6.82423e-09
2.49132e-08
0.000278226
-6.93641e-09
9.80442e-05
-9.80174e-05
5.06072e-09
9.8007e-05
-1.62409e-09
0.000250197
3.73078e-09
-1.9578e-07
-0.000250073
6.41228e-08
0.000245371
6.67891e-09
-0.000245409
0.00115249
3.79567e-09
-1.40088e-07
1.01114e-06
-7.57721e-07
8.30762e-07
-9.39596e-07
-0.00115254
-4.87146e-08
0.00113266
-1.20431e-07
-1.19434e-06
2.74957e-07
-2.37176e-07
-8.58248e-07
2.69288e-07
-2.15379e-07
9.16675e-07
0.000245447
-1.91327e-08
-0.00024539
-1.02801e-07
-3.47108e-09
0.00115244
-1.41597e-07
-9.39358e-07
8.30853e-07
-7.57476e-07
1.01123e-06
1.7147e-09
0.00025006
2.10323e-09
1.35269e-07
-0.00025017
-7.02601e-08
0.000229289
3.0052e-08
2.23325e-09
-0.000229251
2.25251e-08
0.000193498
-3.75673e-09
-0.000193512
-4.37015e-08
0.000193551
3.37666e-09
-0.000193518
2.88321e-08
0.000229231
-1.11467e-08
9.41471e-10
-0.00022925
0.000250167
-1.9576e-07
4.3594e-09
-0.000250047
0.00115243
-1.39986e-07
1.01114e-06
-7.57767e-07
8.30756e-07
-9.39633e-07
-0.00115248
-1.22985e-08
6.17671e-08
0.000245292
4.14852e-09
-0.000245323
-4.89104e-08
0.00113159
1.27259e-06
-1.19897e-07
-8.58324e-07
2.66392e-07
9.16532e-07
-2.12718e-07
-1.22825e-06
2.8035e-07
-2.42571e-07
0.00115237
-1.41467e-07
-9.3939e-07
8.30845e-07
-7.57518e-07
1.01122e-06
0.000245361
2.32183e-08
-1.67552e-08
-0.000245311
-1.00239e-07
0.000250034
1.35293e-07
1.64734e-09
-0.00025014
2.87373e-08
2.11289e-10
1.11767e-09
-1.113e-08
0.00022931
-4.37258e-08
-0.000193615
3.4388e-09
2.25136e-08
-3.71696e-09
0.000193596
-7.02612e-08
-9.74945e-11
-0.000229329
2.09122e-09
3.00311e-08
1.72034e-09
2.11815e-09
1.32422e-07
0.000250089
-4.90344e-08
-1.21161e-07
1.2386e-06
-2.37105e-07
2.7493e-07
9.16677e-07
-2.15299e-07
2.69275e-07
-8.58149e-07
0.000245486
-1.02706e-07
-0.000245428
-1.91529e-08
-0.00115238
-3.28703e-09
0.00115234
-1.50357e-07
-9.38917e-07
8.31005e-07
-7.57013e-07
1.01135e-06
6.62488e-09
6.40622e-08
0.000245409
3.91372e-09
-1.43154e-07
1.01129e-06
-7.57244e-07
-9.3915e-07
8.3093e-07
-1.62259e-09
0.000250223
-0.000250103
3.98327e-09
-1.93205e-07
2.87414e-08
-1.11305e-08
9.56468e-10
0.00022927
-4.36304e-08
6.87634e-09
0.000193591
-0.000193558
3.30105e-09
2.25354e-08
-5.07799e-09
-3.82193e-09
0.000193538
-7.02356e-08
0.000229328
-0.00022929
3.00138e-08
2.23886e-09
1.32447e-07
1.66305e-09
0.000250063
-4.92133e-08
-1.22813e-06
-1.20644e-07
9.1654e-07
-2.12632e-07
-8.58215e-07
2.6638e-07
1.27256e-06
-2.42498e-07
2.80324e-07
-0.00115232
0.00115228
-1.50213e-07
-9.38967e-07
8.30999e-07
-7.57059e-07
1.01135e-06
2.32441e-08
0.0002454
-1.00156e-07
-0.00024535
-1.67827e-08
-1.4305e-07
1.01128e-06
-7.57289e-07
-9.39171e-07
8.30922e-07
-1.22446e-08
4.08661e-09
6.17063e-08
0.00024533
0.000250193
-0.000250076
-1.93186e-07
4.36335e-09
-8.34716e-11
0.000229324
2.10739e-09
3.21152e-08
-0.000229288
0.00019356
-3.66702e-09
-0.000193574
0.000193613
3.24982e-09
-0.00019358
1.20296e-11
0.000229268
1.054e-09
-1.32058e-08
-0.000229285
7.02123e-08
0.000250157
-1.90521e-07
4.52597e-09
-0.000250043
0.00115229
-1.40234e-07
1.00565e-06
-7.54955e-07
8.28004e-07
-9.34086e-07
-0.00115234
-2.24835e-08
6.64449e-08
0.000245328
4.18808e-09
-0.000245364
-4.87658e-08
0.00113122
-1.14385e-07
-1.22538e-06
2.77473e-07
-2.39721e-07
-8.50225e-07
2.63664e-07
-2.09899e-07
9.08449e-07
0.00115223
-1.35845e-07
-9.33854e-07
8.28093e-07
-7.54707e-07
1.00573e-06
4.37301e-08
0.000245402
-1.6694e-08
-0.000245347
-1.05035e-07
-2.87754e-08
0.00025003
1.30038e-07
1.36953e-09
-0.000250131
0.000229287
3.00342e-08
2.17246e-09
-0.000229249
-5.14457e-09
0.000193503
-3.67867e-09
-0.000193517
0.000193557
6.78374e-09
3.44313e-09
-0.000193523
0.000229229
-1.11305e-08
8.36813e-10
-0.000229248
-2.8621e-08
1.54913e-09
2.21566e-09
1.32346e-07
0.000250082
-5.49707e-08
-1.21014e-07
1.2412e-06
-2.36881e-07
2.74888e-07
9.11276e-07
-2.15288e-07
-8.52881e-07
2.6913e-07
4.3628e-08
-1.05007e-07
-0.000245464
-1.67848e-08
-0.00115226
-5.60555e-10
-1.44669e-07
-9.33445e-07
8.28222e-07
1.00589e-06
-7.54208e-07
-2.25164e-08
6.47479e-09
6.64569e-08
0.000245444
4.44102e-09
-1.43229e-07
1.00578e-06
-7.51716e-07
-9.31002e-07
8.28135e-07
7.01159e-08
-1.43664e-09
-0.000250096
3.57247e-09
-1.93112e-07
1.7893e-11
1.06806e-09
-1.31861e-08
0.000229307
0.000193653
-0.000193619
3.18477e-09
-3.73931e-09
0.0001936
-4.19113e-11
0.000229363
-0.000229327
1.89405e-09
3.20689e-08
-2.86882e-08
1.29772e-07
1.39749e-09
0.000250056
-4.90931e-08
-1.22524e-06
-1.26682e-07
9.08483e-07
-2.09771e-07
-8.50085e-07
2.63673e-07
1.26965e-06
-2.39621e-07
2.77449e-07
-0.00115218
0.00115213
-1.44568e-07
-9.33441e-07
8.28211e-07
-7.54216e-07
1.00585e-06
4.36617e-08
2.31988e-08
0.00024544
-1.0256e-07
-0.000245387
-1.66964e-08
-1.4912e-07
1.0058e-06
-7.54454e-07
-9.33645e-07
8.28161e-07
-2.24982e-08
-1.22284e-08
4.1324e-09
6.63807e-08
0.000245366
7.01837e-08
0.000250187
-0.000250069
-1.93127e-07
4.29615e-09
-1.11126e-08
8.56038e-10
0.000229268
6.82786e-09
0.000193596
-0.000193563
3.37805e-09
-5.08059e-09
-3.75864e-09
0.000193543
0.000229326
-0.000229288
2.99905e-08
2.18271e-09
2.02885e-08
0.000278033
-7.51555e-09
-0.000278047
-1.11854e-08
2.25683e-08
0.00027817
-1.00766e-08
-0.000278183
0.000270091
-0.000268072
2.42103e-07
2.4705e-07
0.000278098
1.04261e-08
-0.000278059
-4.64052e-08
1.9995e-08
0.000278234
1.30484e-08
-0.000278195
-4.875e-08
5.12487e-09
9.79857e-05
-9.8002e-05
9.8023e-05
-6.79436e-09
-9.79962e-05
-1.98335e-08
-9.79944e-05
1.12001e-08
9.79839e-05
1.19128e-06
0.000268074
-1.98362e-07
-2.03299e-07
0.000278149
-4.62891e-08
-0.000278109
1.04796e-08
1.98897e-08
-2.31728e-08
0.000278285
-4.8644e-08
-0.000278246
1.31157e-08
-7.44161e-09
2.03108e-08
0.000278084
-1.12364e-08
1.21758e-08
-1.00138e-08
2.25931e-08
0.000278221
-6.83379e-09
9.80439e-05
-9.80172e-05
5.06189e-09
9.80067e-05
7.00804e-08
0.000250152
-1.93065e-07
5.00325e-09
-0.000250035
0.00115212
-1.40153e-07
1.00812e-06
-7.54928e-07
8.27924e-07
-9.36611e-07
-0.00115217
-2.24957e-08
6.41109e-08
0.000245295
4.20682e-09
-0.000245329
-4.8971e-08
0.00113222
-1.20403e-07
-1.18878e-06
2.74961e-07
-2.37069e-07
-8.55334e-07
2.69181e-07
-2.15371e-07
9.13788e-07
0.00115207
-1.41665e-07
-9.36374e-07
8.28022e-07
-7.54672e-07
1.0082e-06
4.37518e-08
0.000245367
-1.67626e-08
-0.000245314
-1.02724e-07
-2.86859e-08
0.000250022
1.32623e-07
9.19292e-10
-0.000250126
-1.83547e-10
0.000229316
2.27165e-09
3.21105e-08
-0.00022928
0.000193555
-3.7238e-09
-0.000193569
0.000193609
3.43836e-09
-0.000193575
1.45641e-10
0.000229261
8.00004e-10
-1.32241e-08
-0.000229277
0.000229276
2.18891e-09
3.41887e-08
-0.000229243
-5.17377e-09
0.000193495
-3.64052e-09
-0.000193509
0.000193549
6.83227e-09
3.38239e-09
-0.000193515
0.000229223
8.63087e-10
-1.53091e-08
-0.000229237
6.94105e-10
-2.86508e-08
1.3238e-07
2.08574e-09
0.000250073
-4.91097e-08
-1.2114e-07
1.23571e-06
-2.36953e-07
2.74848e-07
9.11328e-07
-2.15278e-07
-8.52847e-07
2.69189e-07
-0.00115209
-1.31884e-08
-1.44577e-07
-9.33514e-07
8.28213e-07
1.0059e-06
-7.54254e-07
4.36813e-08
-1.02647e-07
-0.000245455
-1.67297e-08
2.91107e-10
-1.43257e-07
1.00584e-06
-7.54478e-07
-9.33728e-07
8.2814e-07
-2.25171e-08
4.10381e-09
6.40614e-08
0.000245436
-1.21428e-09
7.01229e-08
-0.000250086
-1.9311e-07
4.1099e-09
-2.85894e-08
1.3236e-07
6.95978e-10
0.000250049
-4.93348e-08
-1.18867e-06
-1.21079e-07
9.13787e-07
-2.15261e-07
-8.55268e-07
2.69167e-07
1.23313e-06
-2.37007e-07
2.74931e-07
-0.00115202
0.00115197
-1.44545e-07
-9.35936e-07
8.28194e-07
-7.54192e-07
1.00837e-06
4.36788e-08
2.32258e-08
0.000245405
-1.02636e-07
-0.000245352
-1.67751e-08
-1.43192e-07
1.00826e-06
-7.54436e-07
-9.36161e-07
8.28099e-07
-2.25041e-08
-1.22336e-08
4.15378e-09
6.40426e-08
0.000245333
7.00548e-08
0.000250179
-0.000250062
-1.93098e-07
4.76714e-09
1.17191e-10
8.1586e-10
-1.32055e-08
0.0002293
0.000193648
-0.000193615
3.38031e-09
-3.79318e-09
0.000193595
-2.92944e-10
0.000229355
-0.000229319
2.28471e-09
3.20722e-08
6.52177e-10
-1.52843e-08
0.000229262
6.8764e-09
0.000193589
-0.000193555
3.31616e-09
-5.11532e-09
-3.70534e-09
0.000193535
0.000229315
-0.000229282
2.19566e-09
3.41394e-08
9.79657e-05
-9.7982e-05
9.8003e-05
-9.79762e-05
9.79619e-05
-9.79782e-05
9.79992e-05
-9.79724e-05
0.000268048
-1.98115e-07
-2.00823e-07
1.99028e-08
-4.86306e-08
-0.00027819
1.0001e-08
1.9863e-08
-4.86123e-08
-0.000278112
1.05566e-08
-1.12237e-08
-6.96527e-09
2.48762e-08
0.000278162
-1.1201e-08
-7.46132e-09
2.25628e-08
0.000278087
9.80239e-05
-9.79972e-05
9.79867e-05
9.802e-05
-9.79933e-05
9.79829e-05
1.14023e-08
9.80321e-05
1.12592e-08
9.80211e-05
1.20565e-08
2.49789e-08
-9.37024e-09
0.000278262
9.8271e-09
2.48464e-08
-6.8902e-09
0.000278194
2.47295e-08
-3.88268e-09
0.000193589
2.86798e-08
0.000229321
-1.11312e-08
8.70013e-10
6.65066e-08
3.95126e-09
0.000245484
1.20404e-09
-1.45811e-07
1.00879e-06
-7.56889e-07
-9.36248e-07
8.31083e-07
7.18397e-10
0.000250123
2.73419e-09
1.32235e-07
-1.21822e-08
6.64263e-08
4.02883e-09
0.000245382
-1.45829e-07
1.01133e-06
-7.56849e-07
-9.38694e-07
8.31076e-07
0.000250099
1.36439e-09
1.32234e-07
2.25455e-08
-7.56393e-09
0.000278137
-1.13383e-08
2.49574e-08
-6.76867e-09
0.000278277
5.0052e-09
6.40275e-08
6.57171e-09
0.000245447
4.18458e-09
-1.51771e-07
1.01139e-06
-7.56809e-07
-9.3874e-07
8.31058e-07
1.72293e-09
0.000250116
1.88614e-09
1.322e-07
2.2557e-08
-3.88389e-09
0.000193577
2.8676e-08
0.000229309
-1.11214e-08
9.68982e-10
-1.51677e-07
1.01141e-06
-7.56859e-07
-9.38783e-07
8.31044e-07
-1.2187e-08
6.16714e-08
4.03369e-09
0.000245369
0.00025009
1.32228e-07
1.67685e-09
9.69437e-11
-0.000229366
3.20194e-08
-3.81011e-09
0.000193639
7.6863e-11
0.000229347
1.08538e-09
-1.31683e-08
7.0126e-08
-0.000250097
-1.95729e-07
4.53556e-09
0.00115211
-1.63418e-07
1.0059e-06
-7.51295e-07
8.28263e-07
-9.30524e-07
-2.25467e-08
6.15637e-08
6.5115e-09
0.000245406
-4.38225e-08
-3.60956e-07
-1.23307e-06
2.7481e-07
-2.44914e-07
-8.47235e-07
2.7166e-07
-2.09657e-07
9.13803e-07
-2.86231e-08
0.000250083
1.32143e-07
1.63902e-09
-1.9917e-07
-9.30336e-07
8.31076e-07
-7.53827e-07
1.00867e-06
4.35875e-08
-1.91433e-08
-0.000245426
-1.04892e-07
-0.000229327
2.99348e-08
2.1869e-09
-5.0246e-09
-3.83109e-09
0.000193582
0.000229307
-1.10966e-08
8.69596e-10
6.87376e-09
3.319e-09
-0.000193602
2.03528e-08
-7.36226e-09
0.000278135
-1.12867e-08
2.26015e-08
-7.34047e-09
0.000278269
5.00593e-09
9.80276e-05
7.00208e-08
-0.000250089
-1.93119e-07
3.80687e-09
0.00115193
-1.51796e-07
1.00846e-06
-7.53994e-07
8.28251e-07
-9.35783e-07
-2.25251e-08
6.4005e-08
4.09816e-09
0.000245372
1.48662e-07
-1.44807e-07
-1.15595e-06
2.83197e-07
-2.28566e-07
-8.52298e-07
2.69114e-07
-2.15089e-07
9.13976e-07
-2.85142e-08
0.000250075
1.32129e-07
4.66443e-10
-1.9469e-07
-9.3285e-07
8.28345e-07
-7.51048e-07
1.00864e-06
4.36026e-08
-1.67844e-08
-0.000245391
-1.02555e-07
-3.29207e-10
-0.000229358
2.28178e-09
3.20256e-08
-3.85844e-09
0.000193635
-2.07406e-11
0.000229339
1.05548e-09
-1.31884e-08
-0.000229321
1.97513e-09
3.41107e-08
-5.05626e-09
-3.77511e-09
0.000193575
0.000229301
6.58217e-10
-1.52668e-08
6.91651e-09
3.25779e-09
-0.000193595
9.80076e-05
-9.80179e-05
9.80037e-05
-9.80141e-05
-8.32024e-10
1.24343e-08
0.000143358
-6.02412e-11
-0.000143369
-0.000171053
-2.75975e-10
-8.56704e-11
0.000171084
-0.000223351
2.89344e-08
4.42404e-09
0.000223391
-7.1768e-08
-1.11416e-08
1.02618e-09
-0.000229321
-1.61095e-10
2.87914e-08
-0.000171065
-7.73222e-11
9.23912e-10
-0.000223371
3.31364e-08
1.46767e-09
0.000143385
-2.44212e-08
-7.92527e-05
7.92785e-05
-1.45043e-09
3.38943e-09
0.000193607
6.80106e-09
-4.37598e-08
0.000263191
-1.70069e-08
-9.04902e-10
3.32227e-08
-0.00026321
0.000263236
-4.41492e-09
-6.17607e-08
7.99248e-11
-7.92698e-05
1.70206e-08
7.92615e-05
-0.000263217
2.43794e-08
0.000263262
-6.17215e-08
-3.88057e-09
-5.02311e-09
2.25847e-08
3.32182e-08
7.92873e-05
2.8332e-10
-2.8947e-08
-0.000143342
3.00763e-08
2.23984e-09
-3.77019e-11
-7.02719e-08
0.000171035
8.24539e-10
-6.80945e-11
-0.000171047
0.000223331
-1.24433e-08
3.31892e-08
-0.000223351
-7.6545e-11
-7.17706e-08
-0.000143354
9.79967e-05
-6.69537e-09
-2.24134e-08
5.16483e-09
1.34359e-08
1.24362e-08
-7.21933e-10
0.000143356
-1.7016e-10
-0.000143368
-0.000223341
2.89744e-08
4.27275e-09
0.000223381
-7.18243e-08
-0.00017105
-4.01573e-10
5.46738e-11
0.00017108
8.89453e-10
-1.11352e-08
-0.000229309
6.25443e-11
2.87825e-08
7.83529e-10
-0.000223362
3.31381e-08
-0.000171062
3.35078e-11
1.37176e-09
0.000143383
-2.45175e-08
-7.92543e-05
7.92802e-05
-1.35694e-09
3.54134e-09
0.000193589
6.73243e-09
-4.38427e-08
0.000263187
-1.68911e-08
-7.67896e-10
3.31566e-08
-0.000263206
0.000263232
-4.26129e-09
-6.18586e-08
1.93414e-10
-7.92714e-05
1.69092e-08
7.92631e-05
-0.000263213
2.44758e-08
0.000263258
-6.18185e-08
-3.68343e-09
-5.15006e-09
2.2506e-08
3.31544e-08
7.9289e-05
-2.89916e-08
4.08254e-10
-0.00014334
2.07805e-09
3.00932e-08
5.20643e-11
-7.0304e-08
0.000223321
-1.24499e-08
3.31887e-08
-0.000223341
0.000171031
7.15675e-10
4.06738e-11
-0.000171043
-7.18301e-08
6.46129e-11
-0.000143352
9.79897e-05
-6.796e-09
-1.99977e-08
5.10637e-09
1.1171e-08
-6.97443e-09