/*--------------------------------*- C++ -*----------------------------------*\
| =========                 |                                                 |
| \\      /  F ield         | OpenFOAM: The Open Source CFD Toolbox           |
|  \\    /   O peration     | Version:  2312                                  |
|   \\  /    A nd           | Website:  www.openfoam.com                      |
|    \\/     M anipulation  |                                                 |
\*---------------------------------------------------------------------------*/
FoamFile
{
    version     2.0;
    format      ascii;
    arch        "LSB;label=32;scalar=64";
    class       volScalarField;
    location    "150";
    object      p;
}
// * * * * * * * * * * * * * * * * * * * * * * * * * * * * * * * * * * * * * //

dimensions      [0 2 -2 0 0 0 0];

internalField   nonuniform List<scalar> 
43168
(
0.000699603
0.00069957
0.000699572
0.000701144
0.000706775
0.000708355
0.000708355
0.000706772
0.000708355
0.000708346
0.000708352
0.000708344
0.000706768
0.000708347
0.000708343
0.000706769
0.000701149
0.000699576
0.000699573
0.000701144
0.000699577
0.000699573
0.000699568
0.000701141
0.000699569
0.000723798
0.00072379
0.000708381
0.000708368
0.000708379
0.000708376
0.000688706
0.000701701
0.000701686
0.000688693
0.000701701
0.000688682
0.000688695
0.000701691
0.000701683
0.00068869
0.000699601
0.000699606
0.000699608
0.000688817
0.00070162
0.00069958
0.000690789
0.000701548
0.000688749
0.000690797
0.000701696
0.000688682
0.000688815
0.000699582
0.00070162
0.000690792
0.000701548
0.000690798
0.000688751
0.000701681
0.000701679
0.00068921
0.000688679
0.000688677
0.000723792
0.000723785
0.000724319
0.000723793
0.000723788
0.000706248
0.000719264
0.000706239
0.000719253
0.000718707
0.000706252
0.000706246
0.000719258
0.000719249
0.000725905
0.000723854
0.000719252
0.000706255
0.000719258
0.000706267
0.000719254
0.000706249
0.000719256
0.000706265
0.000719113
0.000717131
0.000706315
0.000708361
0.000719186
0.000717136
0.000706391
0.000719112
0.00071713
0.000706311
0.000708362
0.000719182
0.000717136
0.000706389
0.000706239
0.00071926
0.000718705
0.000706243
0.000706239
0.000719252
0.000706234
0.000725904
0.000723851
0.000719215
0.000706246
0.000719242
0.000706261
0.00071909
0.00071713
0.000706311
0.000708367
0.000719176
0.000717137
0.000706388
0.000719216
0.000706242
0.000719238
0.000706261
0.00071909
0.00071712
0.000708368
0.000706309
0.000717136
0.000719162
0.000706387
0.000706306
0.000708358
0.000706377
0.000706241
0.000706248
0.000708357
0.000706301
0.000706374
0.000706232
0.000706246
0.000706236
0.000719248
0.000718691
0.000706243
0.000706238
0.000719234
0.000719234
0.000706232
0.00071924
0.000719081
0.000717119
0.000708357
0.000706308
0.000717127
0.00071916
0.000706387
0.000719079
0.000717117
0.000708356
0.000706301
0.000717125
0.000719158
0.000706383
0.00071921
0.000706237
0.000719229
0.000706254
0.000719211
0.000706232
0.00071923
0.000706252
0.000718686
0.000706235
0.000706233
0.00071923
0.000706228
0.000706226
0.00071924
0.000701706
0.000688685
0.000701699
0.000688683
0.000701697
0.000701694
0.000689218
0.000688691
0.000688689
0.000684143
0.000684143
0.000683585
0.000684136
0.000684134
0.000688705
0.000701697
0.000701685
0.00068869
0.000688821
0.000701628
0.000699582
0.000690793
0.00070156
0.000688758
0.000690797
0.000688823
0.000701626
0.000699583
0.00069079
0.00070156
0.000688758
0.000690799
0.000684132
0.000684136
0.000684128
0.000684134
0.000683991
0.000682009
0.000684066
0.00068201
0.000683994
0.000682007
0.000684066
0.000682011
0.000701694
0.000701691
0.000689214
0.00068869
0.000688687
0.000701699
0.000688677
0.000684141
0.000683583
0.000684134
0.000684133
0.000684139
0.000688821
0.000701623
0.000699589
0.000690794
0.00070155
0.000688752
0.000690802
0.000688698
0.000701689
0.000701678
0.000688687
0.000688817
0.00069959
0.000701622
0.000690792
0.000701552
0.000690802
0.000688754
0.000684114
0.000684136
0.000683991
0.000682008
0.000684061
0.000682011
0.00068412
0.000684135
0.000683988
0.000682007
0.000682011
0.000684061
0.000688684
0.00070169
0.000701664
0.000688682
0.000688817
0.000699581
0.000701612
0.000690787
0.000701544
0.000690798
0.000688746
0.000688685
0.00070168
0.000701668
0.000688677
0.000683991
0.000682008
0.000684061
0.000682012
0.000684102
0.00068413
0.000683989
0.000682005
0.000682011
0.000684057
0.000684107
0.000684124
0.000701692
0.000701688
0.000689213
0.000688687
0.000688686
0.000701693
0.000688678
0.000684142
0.000683582
0.000684134
0.000684136
0.000684142
0.000688816
0.000699582
0.000701612
0.000690788
0.000701544
0.000690797
0.000688747
0.000688697
0.000701684
0.000701672
0.000688685
0.000688695
0.000701678
0.000701669
0.000688677
0.000683985
0.000682008
0.000682011
0.000684062
0.000683985
0.000682004
0.000682009
0.000684058
0.000684117
0.000684133
0.000684115
0.000684127
0.000701688
0.00068867
0.000701686
0.00068867
0.000683581
0.000684127
0.000684127
0.000684132
0.000684134
0.000728047
0.000723791
0.000728023
0.00072804
0.000723799
0.00072802
0.00069294
0.000692916
0.000688694
0.000688702
0.000692941
0.00069292
0.000688689
0.000697464
0.000701713
0.00069747
0.000701716
0.000697462
0.000697467
0.000697487
0.000701712
0.000701693
0.000701715
0.000697472
0.00069748
0.000692939
0.000688684
0.000692925
0.000692939
0.000688686
0.000697461
0.000692924
0.000692926
0.000692905
0.00068869
0.000688678
0.000692908
0.000692925
0.000688676
0.000697454
0.000701702
0.000697463
0.000701705
0.000697452
0.000697454
0.00069748
0.000701684
0.000701704
0.000701702
0.000697473
0.000697459
0.000692928
0.000688675
0.000692917
0.000692926
0.000688677
0.000697457
0.000692925
0.000692922
0.000688661
0.000688661
0.000692919
0.000692919
0.000688656
0.000697482
0.000701617
0.000701678
0.000697449
0.000701651
0.000697516
0.000697454
0.000697484
0.000701618
0.000701676
0.000697451
0.000701652
0.000697515
0.000697454
0.000697433
0.000701696
0.000701695
0.000701699
0.000697437
0.000697437
0.000692871
0.000688679
0.000692905
0.000688745
0.000692842
0.000692901
0.000688709
0.000692873
0.000688679
0.000692907
0.000688745
0.000692841
0.000692902
0.000688707
0.000728029
0.000728024
0.000728035
0.00072378
0.000723778
0.000728036
0.000728035
0.000723773
0.000727984
0.000723796
0.000728021
0.000723848
0.000728016
0.000723817
0.000727955
0.000727981
0.000723794
0.000728017
0.000723846
0.000728016
0.000723815
0.000727951
0.000710495
0.000715031
0.000710481
0.000715017
0.00071501
0.000719268
0.000719265
0.000719271
0.000715015
0.000715012
0.000710445
0.000706307
0.000710488
0.000706253
0.000710481
0.000710414
0.000706274
0.000710442
0.000706309
0.000710478
0.000706246
0.000710472
0.000710415
0.000706274
0.000715064
0.000719251
0.000719185
0.000715038
0.000719222
0.000715036
0.000715099
0.000715061
0.000719247
0.000719182
0.000715027
0.00071922
0.00071503
0.000715095
0.000710496
0.000706233
0.00070623
0.000710496
0.000710492
0.000706226
0.000715027
0.00071928
0.000719252
0.000715044
0.000719275
0.000715033
0.000715039
0.000710501
0.000710488
0.000706246
0.000706248
0.000710501
0.000715027
0.00071927
0.000715037
0.000719274
0.000715027
0.000710499
0.000710477
0.000706248
0.000706266
0.000706248
0.000710497
0.000710479
0.000715028
0.000719279
0.000719258
0.000715049
0.000719276
0.000715036
0.000715042
0.000710496
0.00071048
0.000706241
0.000710493
0.000706245
0.000715022
0.000719269
0.000715032
0.000719271
0.000715021
0.000710497
0.000710477
0.000706248
0.000706261
0.0007105
0.000710477
0.000706245
0.000710483
0.000715023
0.000710439
0.000706308
0.000710476
0.000706243
0.00071041
0.00071047
0.000706268
0.000710438
0.000706304
0.00071047
0.000706241
0.000710464
0.000710412
0.000706268
0.000719181
0.000715028
0.000715091
0.000710486
0.000706226
0.000706224
0.000710486
0.000710482
0.000706219
0.000710474
0.000715004
0.000719223
0.000719247
0.000715015
0.000719249
0.000715017
0.000715006
0.000710487
0.000710479
0.000706235
0.000706236
0.000710489
0.000715008
0.00071925
0.000715022
0.000719254
0.000715006
0.000710482
0.000710466
0.000706254
0.00070624
0.000706234
0.00071047
0.000710481
0.000715002
0.000719246
0.000719222
0.000715015
0.000719248
0.000715004
0.000715011
0.000710483
0.000710471
0.000706236
0.000710485
0.000706236
0.000715003
0.000719247
0.000715012
0.000719252
0.000715
0.000710481
0.000710465
0.000706238
0.000706254
0.00071048
0.000710464
0.000706235
0.000710479
0.000710471
0.00070623
0.000710479
0.000706231
0.000710478
0.000710462
0.000706246
0.000706232
0.000710463
0.000710477
0.00070623
0.000710476
0.000710462
0.000706222
0.000710477
0.000706225
0.000710477
0.000710459
0.000706229
0.00070624
0.000710476
0.000710462
0.000706225
0.000710476
0.000715007
0.00071499
0.000719256
0.000719255
0.000719256
0.000714997
0.000714995
0.000710438
0.000706303
0.000710473
0.000706245
0.000710408
0.000710467
0.000706272
0.000710437
0.000706306
0.000710468
0.00070624
0.000710462
0.000710408
0.00070627
0.000715039
0.000719235
0.000719165
0.00071501
0.000715072
0.000719202
0.000715014
0.00071504
0.000719234
0.000719162
0.000715006
0.000719204
0.000715011
0.000715071
0.000710484
0.000706225
0.000706223
0.000710482
0.00071048
0.00070622
0.00071047
0.000715001
0.000714995
0.000719217
0.00071924
0.000715007
0.000719243
0.000715004
0.000714997
0.000710475
0.000710465
0.000706227
0.000710477
0.000706228
0.000714996
0.00071924
0.000715005
0.000719246
0.000714993
0.000710473
0.000710454
0.000706244
0.00070623
0.000710458
0.00071047
0.000706227
0.000714997
0.000719222
0.00071924
0.000715006
0.000719246
0.000715008
0.000714995
0.000710475
0.000710463
0.000706224
0.000710477
0.000706226
0.000714998
0.000719243
0.000715005
0.000719248
0.000714995
0.000710473
0.000710453
0.000706242
0.000706229
0.000710456
0.000710469
0.000706226
0.000714985
0.000714991
0.000714992
0.00071043
0.000706302
0.000710465
0.000706236
0.000706268
0.000710398
0.000710459
0.000710431
0.000706302
0.000710464
0.000706235
0.000706267
0.000710401
0.000710458
0.000715032
0.000715004
0.000715061
0.000715007
0.000715033
0.000719155
0.000715004
0.00071506
0.000715009
0.000710478
0.000706217
0.000706216
0.000706213
0.000710475
0.000710474
0.000710469
0.000715001
0.000710467
0.000715
0.000697464
0.000692929
0.000697459
0.000692924
0.000692936
0.000688672
0.000688671
0.000692934
0.000692931
0.000688667
0.000697501
0.000701625
0.000701695
0.000697471
0.000701662
0.000697474
0.000697529
0.0006975
0.000701624
0.000701692
0.000697464
0.000701663
0.000697469
0.000697529
0.000697451
0.000701714
0.000701711
0.000701717
0.000697454
0.000697452
0.000692885
0.000688691
0.000692926
0.000688753
0.000692919
0.000688717
0.000692853
0.000692884
0.00068869
0.00069292
0.000688751
0.000692913
0.000688717
0.000692854
0.000679899
0.000679898
0.000679883
0.000684151
0.00068415
0.000684154
0.000679887
0.000679887
0.000679937
0.000684133
0.000684063
0.000679904
0.000684105
0.000679905
0.000679967
0.000679936
0.000684131
0.000684063
0.000679902
0.000684104
0.000679905
0.000679964
0.000692936
0.000692916
0.000688692
0.000688697
0.00069294
0.000692918
0.000688685
0.000697461
0.00070171
0.000697468
0.000701713
0.000697459
0.000697464
0.000697485
0.00070171
0.000701688
0.00069747
0.000701712
0.000697478
0.000692936
0.000688682
0.00069292
0.000692935
0.000688685
0.000679905
0.000684156
0.000684135
0.000679931
0.000684155
0.00067991
0.000679922
0.000679902
0.000684149
0.000679907
0.000684153
0.000679899
0.000679903
0.000684153
0.00068413
0.000679927
0.000684152
0.000679907
0.000679919
0.000679899
0.000684148
0.000679904
0.000684152
0.000679897
0.000692934
0.000688672
0.000688671
0.000692932
0.000692931
0.000688667
0.000697499
0.000701626
0.000701688
0.00069747
0.00069747
0.00070166
0.000697528
0.000697499
0.000701619
0.000701688
0.000697465
0.000697522
0.00070166
0.000697468
0.000697447
0.000701707
0.000701707
0.000697451
0.00070171
0.00069745
0.000692884
0.00068869
0.000692922
0.000688752
0.000692915
0.000692853
0.000688717
0.000692882
0.000688689
0.000692919
0.000688749
0.000692847
0.000692914
0.000688715
0.000697459
0.00069292
0.000679898
0.000679887
0.000684151
0.000684151
0.000684155
0.000679891
0.000679891
0.000679937
0.000684131
0.000684063
0.000679903
0.000679965
0.000684105
0.000679907
0.000679937
0.000684131
0.000684062
0.000679904
0.000684103
0.000679908
0.000679965
0.000679899
0.000692929
0.000692913
0.000688682
0.000688694
0.000692928
0.000692915
0.000688678
0.000697453
0.000701702
0.000697462
0.000701705
0.000697451
0.000697454
0.00069748
0.000701701
0.00070168
0.000697457
0.000701702
0.00069747
0.00069293
0.000688679
0.000692917
0.000692931
0.00068868
0.000679896
0.000684121
0.000684139
0.000679912
0.000684145
0.00067991
0.000679897
0.000679895
0.000684143
0.000679903
0.000684147
0.000679893
0.000679894
0.000684143
0.000684119
0.000679917
0.000684143
0.000679899
0.000679907
0.000679892
0.000684142
0.000679905
0.000684145
0.000679889
0.000692918
0.0006929
0.000688682
0.000688667
0.000692899
0.000692914
0.000688667
0.000697449
0.000701699
0.000697463
0.00069745
0.000701701
0.000697448
0.00069747
0.000701675
0.000701692
0.000697467
0.000701697
0.000697447
0.00069292
0.000688666
0.000692914
0.000692919
0.000688668
0.000692916
0.000692899
0.000688667
0.000688681
0.000692913
0.000692904
0.000688666
0.000697444
0.000701691
0.000697452
0.000701695
0.000697443
0.000697443
0.000697473
0.000701693
0.000701668
0.000701691
0.000697448
0.000697462
0.000692918
0.000688665
0.000692905
0.000692918
0.000688667
0.000679893
0.000684114
0.000684131
0.000679908
0.000684136
0.00067991
0.000679894
0.000679894
0.000684137
0.000679906
0.00068414
0.000679894
0.000679891
0.000684133
0.000684111
0.000679913
0.000684136
0.000679895
0.000679903
0.00067989
0.000684133
0.000679899
0.000684137
0.000679887
0.000692935
0.000688674
0.000688674
0.000692933
0.00069293
0.00068867
0.000697498
0.00070162
0.000701689
0.000697465
0.000697469
0.000701661
0.000697523
0.000697496
0.00070162
0.000701686
0.00069746
0.000697523
0.000701659
0.000697465
0.000697447
0.000701708
0.000701707
0.000697451
0.00070171
0.000697449
0.000692885
0.000688691
0.000692921
0.000688749
0.000692917
0.00069285
0.000688718
0.000692882
0.000688691
0.000692914
0.000688748
0.00069285
0.000692911
0.000688716
0.000697452
0.000692917
0.0006799
0.000679889
0.000684154
0.000684155
0.000684158
0.000679893
0.000679893
0.000679936
0.000684134
0.000684061
0.000679903
0.000679961
0.000684105
0.000679909
0.000679937
0.000684136
0.000684058
0.000679904
0.000684105
0.000679909
0.000679962
0.000679899
0.000692923
0.000692906
0.00068869
0.000688676
0.000692906
0.000692921
0.000688674
0.00069745
0.000701696
0.000697457
0.000697447
0.000701699
0.000697449
0.000697474
0.000701672
0.000701698
0.000697464
0.000701696
0.000697455
0.000692926
0.000688675
0.000692913
0.000692925
0.000688676
0.000692919
0.000692905
0.000688688
0.000688674
0.000692906
0.000692921
0.000688671
0.000697446
0.00070169
0.000697452
0.000701695
0.000697444
0.000697448
0.000697473
0.000701672
0.000701695
0.000701695
0.000697469
0.000697454
0.000692921
0.000688669
0.000692905
0.00069292
0.000688671
0.000679894
0.000684121
0.000684141
0.000679913
0.000684143
0.000679908
0.000679898
0.000679894
0.000684143
0.000679902
0.000684146
0.000679892
0.000679892
0.000684118
0.00068414
0.000679915
0.00068414
0.000679907
0.000679897
0.000679892
0.000684139
0.000679902
0.000684142
0.000679889
0.000697445
0.00069291
0.000697446
0.000692911
0.000679879
0.000684143
0.000684144
0.000684147
0.000679884
0.000679885
0.000679932
0.000684123
0.000684059
0.000679898
0.0006841
0.00067996
0.000679901
0.000679933
0.000684125
0.000684058
0.000679901
0.000684098
0.000679959
0.000679903
0.000679894
0.000679897
0.000725934
0.000699593
0.000699596
0.000690823
0.000690812
0.000690812
0.000690803
0.000699589
0.000697633
0.000701366
0.000701367
0.000697984
0.000701511
0.000697779
0.000697775
0.000710298
0.000709934
0.000706569
0.000706567
0.000710158
0.000710162
0.000706421
0.000710295
0.000709928
0.00070657
0.000706566
0.000710156
0.000710156
0.000706418
0.000710293
0.000709923
0.000706563
0.000706567
0.000710151
0.000710154
0.00070642
0.000710286
0.000709921
0.000706565
0.000706565
0.000706421
0.000710144
0.000710146
0.000697648
0.000701373
0.00070137
0.000697994
0.000701516
0.000697788
0.000697788
0.000697646
0.00070137
0.000701365
0.000697989
0.000697781
0.000701515
0.000697784
0.000697644
0.000701363
0.000701364
0.000697988
0.000697783
0.000701513
0.00069778
0.000717161
0.000708374
0.000708375
0.000717151
0.000717146
0.000717144
0.000708375
0.000717141
0.000708373
0.000708373
0.000717146
0.000717139
0.000717142
0.000708376
0.000717147
0.00070838
0.000708378
0.000717146
0.000717143
0.000717143
0.000708378
0.000717136
0.000708377
0.000708377
0.00071714
0.00071714
0.000717142
0.000708377
0.000699598
0.000699597
0.000690827
0.000690816
0.000690812
0.000690801
0.000699591
0.0006996
0.000699598
0.000690823
0.000690811
0.000690808
0.000690799
0.000699591
0.000699599
0.000699599
0.000690825
0.000690809
0.000690809
0.000690798
0.000699591
0.00068204
0.000682024
0.000682023
0.000682018
0.000682045
0.000682026
0.000682023
0.000682016
0.000682034
0.00068202
0.000682017
0.000682014
0.000682035
0.000682019
0.000682018
0.000682014
0.000692602
0.000692785
0.000688809
0.000688987
0.000692788
0.000692604
0.000688985
0.000697734
0.000701482
0.000701581
0.000697522
0.000701399
0.000697642
0.000697561
0.000697767
0.000697601
0.000701556
0.000701377
0.000701376
0.000697588
0.000697769
0.000692619
0.000688789
0.000692843
0.000688874
0.000692702
0.000692804
0.00068896
0.000692598
0.000692784
0.000688976
0.000688808
0.0006926
0.000692788
0.000688979
0.00069774
0.000701487
0.000701583
0.000697522
0.000701406
0.000697649
0.000697563
0.000697772
0.000697598
0.000701373
0.00070156
0.000701387
0.000697765
0.000697589
0.00069262
0.000688788
0.000692844
0.000688875
0.000692709
0.000692806
0.000688955
0.000692726
0.000692361
0.000689005
0.000689006
0.000692586
0.000692584
0.000688858
0.000727837
0.000727479
0.000724111
0.000724111
0.000723961
0.000727704
0.000727704
0.000715216
0.000715562
0.000718932
0.000718933
0.00071908
0.000715359
0.000715359
0.000727728
0.000723895
0.000727955
0.000723972
0.00072792
0.000727819
0.000724059
0.000715334
0.000719129
0.00071893
0.000715158
0.000718943
0.000715157
0.000715323
0.00071019
0.000706434
0.000710419
0.000706357
0.000710279
0.000710382
0.000706521
0.000715317
0.000719151
0.000719047
0.000715103
0.000715227
0.00071897
0.000715144
0.00071016
0.000710349
0.00070638
0.000706554
0.000710358
0.000710163
0.000706544
0.000715327
0.000719126
0.000718926
0.000715153
0.000718934
0.000715153
0.000715316
0.000710186
0.000706433
0.000710409
0.000706353
0.000710375
0.000710272
0.000706519
0.000715309
0.000719148
0.000719043
0.000715093
0.000718965
0.000715136
0.000715216
0.000710157
0.000710344
0.000706378
0.000706554
0.000710355
0.00071016
0.000706545
0.000715559
0.000718928
0.000715354
0.000727953
0.000723974
0.000727819
0.000715304
0.000719099
0.000718921
0.00071513
0.000718921
0.000715123
0.000715304
0.000710184
0.000706435
0.000710412
0.000706352
0.000710277
0.000710372
0.000706523
0.00071529
0.000719127
0.000719041
0.00071509
0.000715219
0.000718951
0.000715119
0.000710159
0.000710346
0.000706376
0.000706558
0.000710347
0.000710169
0.000706555
0.000715304
0.000718919
0.000719098
0.000715131
0.000718919
0.000715304
0.000715119
0.00071018
0.00070643
0.000710407
0.00070635
0.000710369
0.00071027
0.000706517
0.00071528
0.00071912
0.000719026
0.000715073
0.000718943
0.000715109
0.000715197
0.000710159
0.000710346
0.000706555
0.000706372
0.000710169
0.000710345
0.000706549
0.000710186
0.000706433
0.000710404
0.000706348
0.000706519
0.000710273
0.000710371
0.000710157
0.000710346
0.000706369
0.000706547
0.000706545
0.000710352
0.000710163
0.000710176
0.000706426
0.0007104
0.000706342
0.000710364
0.000710264
0.000706512
0.000710152
0.000710343
0.000706543
0.000706364
0.000710163
0.000710345
0.000706538
0.000715191
0.000715539
0.000718919
0.000718913
0.000715339
0.000719058
0.000715337
0.000715298
0.000718909
0.000719093
0.000715122
0.000718914
0.000715293
0.000715117
0.000710178
0.000706437
0.000710403
0.000706351
0.000706523
0.000710271
0.000710367
0.000715277
0.000719119
0.000719024
0.000715069
0.000718944
0.000715195
0.000715104
0.000710153
0.000710342
0.000706553
0.000706374
0.000706555
0.000710165
0.000710343
0.000715291
0.000718905
0.000719089
0.000715124
0.000718903
0.000715294
0.000715114
0.000710171
0.000706427
0.000710399
0.000706343
0.000710362
0.000710263
0.000706512
0.00071527
0.000719116
0.000719019
0.000715066
0.000718936
0.000715103
0.000715187
0.000710149
0.00071034
0.000706549
0.000706367
0.000710162
0.000710338
0.000706544
0.000715178
0.000715531
0.000718902
0.000715324
0.00071532
0.000692737
0.000692371
0.000689012
0.000689011
0.000688864
0.000692595
0.000692597
0.000680088
0.00068043
0.000683808
0.000683809
0.000683959
0.000680226
0.000680224
0.000692605
0.000692797
0.000688817
0.00068898
0.000692803
0.000692611
0.000688981
0.000697752
0.000701489
0.000701592
0.000697535
0.000697578
0.000701411
0.000697656
0.000697785
0.000697611
0.00070157
0.000701383
0.000697605
0.000701388
0.000697777
0.000692625
0.000688798
0.000692858
0.000688878
0.00069282
0.000692715
0.00068896
0.000692608
0.000692798
0.000688817
0.000688982
0.000692804
0.000692612
0.000688985
0.000697752
0.000701486
0.00070159
0.000697534
0.000701407
0.000697577
0.000697655
0.000697786
0.000697613
0.000701569
0.000701381
0.000701388
0.000697606
0.000697779
0.000692626
0.000688796
0.000692857
0.000688878
0.00069282
0.000688959
0.000692716
0.000680201
0.000684006
0.000683798
0.000680034
0.000683809
0.000680032
0.000680185
0.000680185
0.000684031
0.000683925
0.00067997
0.000680091
0.000683847
0.000680013
0.000680204
0.000684005
0.000683804
0.000680038
0.000683812
0.000680033
0.000680191
0.000680186
0.000684029
0.000683926
0.00067997
0.000683846
0.000680013
0.000680093
0.000692733
0.000692367
0.000689009
0.000689008
0.00069259
0.000692592
0.000688861
0.000680086
0.000680428
0.000683806
0.000683807
0.000680224
0.000683957
0.000680224
0.00069261
0.000692795
0.000688813
0.000688986
0.0006928
0.000692616
0.000688986
0.000697754
0.000701489
0.000701588
0.000697529
0.000697574
0.000701412
0.000697658
0.000697785
0.000697607
0.000701563
0.000701375
0.0006976
0.000701388
0.000697776
0.00069263
0.000688792
0.000692851
0.000688876
0.000692816
0.000692717
0.000688961
0.000692605
0.000692793
0.000688982
0.000688811
0.000692609
0.0006928
0.000688982
0.00069775
0.000701485
0.000701585
0.000697528
0.000701407
0.000697571
0.000697652
0.000697786
0.00069761
0.000701377
0.000701562
0.000701388
0.000697776
0.0006976
0.000692625
0.000688793
0.000692853
0.000688877
0.000692817
0.000688956
0.000692716
0.000680206
0.000684
0.000683811
0.000680034
0.000683815
0.000680028
0.000680198
0.000680183
0.000684023
0.000683922
0.000679966
0.00068009
0.000683845
0.000680007
0.00068021
0.000683805
0.000684003
0.000680033
0.000683819
0.000680194
0.00068003
0.000680185
0.000684023
0.000683923
0.000679964
0.000683846
0.000680006
0.000680087
0.000692602
0.00069279
0.000688985
0.000688807
0.00069261
0.000692793
0.000688982
0.000697741
0.000701478
0.000701574
0.000697518
0.000697646
0.000701398
0.000697562
0.000697776
0.000697602
0.000701369
0.000701555
0.000697768
0.000701378
0.000697594
0.000692622
0.000688787
0.000692843
0.000688873
0.000692711
0.000692808
0.000688956
0.000680206
0.000683999
0.000683819
0.000680033
0.000683818
0.000680027
0.000680201
0.000680182
0.000684022
0.000683923
0.000679966
0.000683847
0.000680088
0.000680006
0.000680208
0.000683813
0.000683997
0.000680033
0.000683817
0.000680196
0.000680026
0.000680183
0.00068402
0.000683922
0.000679962
0.000683846
0.000680004
0.000680087
0.000692732
0.000692366
0.000689006
0.000689006
0.000692592
0.000692588
0.000688859
0.000680083
0.000680426
0.000683803
0.000683801
0.00068022
0.000683954
0.00068022
0.000692601
0.000692788
0.000688977
0.000688809
0.000692605
0.000692795
0.000688979
0.000697743
0.000701481
0.000701578
0.000697519
0.000697647
0.000701403
0.000697565
0.000697773
0.0006976
0.00070137
0.000701554
0.000697769
0.000701379
0.000697592
0.000692622
0.000688789
0.000692844
0.000688876
0.000692711
0.00069281
0.000688955
0.000680207
0.000683803
0.000683998
0.000680031
0.000683813
0.000680196
0.000680026
0.000680182
0.000684022
0.000683922
0.000679965
0.000683843
0.000680089
0.000680005
0.000680206
0.000683803
0.000683997
0.000680032
0.000683811
0.000680194
0.000680027
0.00068018
0.00068402
0.000683921
0.000679963
0.00068384
0.000680004
0.000680085
0.000680083
0.000680424
0.000683803
0.000683805
0.000683955
0.00068022
0.000680217
0.000664474
0.000664446
0.000664445
0.000666026
0.000629369
0.00062934
0.000629341
0.000630917
0.000594261
0.00059423
0.000594234
0.000595814
0.000559159
0.000559129
0.000559134
0.000560711
0.000524059
0.000524029
0.000524034
0.000525607
0.000488953
0.000488921
0.000488929
0.000490506
0.000453832
0.000453801
0.000453811
0.000455387
0.000418694
0.000418666
0.000418673
0.000420249
0.00038354
0.000383512
0.000383517
0.000385097
0.000348374
0.000348345
0.000348341
0.000349925
0.000313195
0.000313167
0.000313159
0.000314745
0.000278024
0.000277995
0.000277987
0.000279572
0.000242867
0.000242841
0.000242834
0.000244416
0.000207724
0.000207694
0.000207697
0.000209272
0.000172589
0.000172554
0.000172564
0.000174139
0.00013745
0.000137418
0.000137425
0.00013901
0.000102302
0.000102273
0.000102277
0.000103861
6.71718e-05
6.71225e-05
6.71222e-05
6.86997e-05
3.27416e-05
3.219e-05
3.21984e-05
3.35505e-05
8.62271e-06
6.59948e-06
6.59577e-06
5.67822e-06
0.000671652
0.000673227
0.000673225
0.000671652
0.000673224
0.000673224
0.000673226
0.000673223
0.000671649
0.000673225
0.000673222
0.000671656
0.00066602
0.000636538
0.000664445
0.000664446
0.00063811
0.000638114
0.000666022
0.000636539
0.000664444
0.000664444
0.00063811
0.000638115
0.000664444
0.000638116
0.000638117
0.00066602
0.00063654
0.000664444
0.000638118
0.000638116
0.000636543
0.000630909
0.000601426
0.000629333
0.000629338
0.000603008
0.000603006
0.000630915
0.000601432
0.000629334
0.00062934
0.000603007
0.00060301
0.000629342
0.000603008
0.000603015
0.000630914
0.000601439
0.000629341
0.000603012
0.000603015
0.000601442
0.000595801
0.000566331
0.000594232
0.00059423
0.000567905
0.000567905
0.000595804
0.000566333
0.000594231
0.000594233
0.000567904
0.000567909
0.000594237
0.000567905
0.000567909
0.00059581
0.000566331
0.000594237
0.000567909
0.000567908
0.000566339
0.000560703
0.00053123
0.000559129
0.00055913
0.000532806
0.000532806
0.000560704
0.000531229
0.000559129
0.000559133
0.000532805
0.00053281
0.000559132
0.000532806
0.000532804
0.000560706
0.000531231
0.000559131
0.000532808
0.000532804
0.000531232
0.000525606
0.000496123
0.000524031
0.000524031
0.000497701
0.000497699
0.000525602
0.000496125
0.000524031
0.000524035
0.000497702
0.000497707
0.000524031
0.0004977
0.000497705
0.000525607
0.00049613
0.000524031
0.000497706
0.000497706
0.000496132
0.000490496
0.000461003
0.000488925
0.000488921
0.000462583
0.000462583
0.000490497
0.000461005
0.000488925
0.00048893
0.000462583
0.000462589
0.000488927
0.000462582
0.00046259
0.000490504
0.000461014
0.000488928
0.000462591
0.00046259
0.000461016
0.000455375
0.000425874
0.000453803
0.000453803
0.000427454
0.000427454
0.000455375
0.000425873
0.000453803
0.000453809
0.000427453
0.000427459
0.000453809
0.000427451
0.000427456
0.000455385
0.000425881
0.000453809
0.000427459
0.000427456
0.000425881
0.000420243
0.000390723
0.000418668
0.000418668
0.0003923
0.000392302
0.000420242
0.000390721
0.000418669
0.000418673
0.0003923
0.000392303
0.00041867
0.000392302
0.000392307
0.00042025
0.000390723
0.000418672
0.000392307
0.000392311
0.000390731
0.000385089
0.000355557
0.000383512
0.000383513
0.000357138
0.000357139
0.000385088
0.000355559
0.000383511
0.000383513
0.000357138
0.000357135
0.000383517
0.000357139
0.000357139
0.000385089
0.000355557
0.00038352
0.000357139
0.00035714
0.000355564
0.000349922
0.000320381
0.000348345
0.000348344
0.000321963
0.000321962
0.000349923
0.000320383
0.000348344
0.000348339
0.00032196
0.000321954
0.000348345
0.000321964
0.000321963
0.00034992
0.000320374
0.000348345
0.000321956
0.000321962
0.000320383
0.000314745
0.000285209
0.000313167
0.000313166
0.000286787
0.000286786
0.000314746
0.000285206
0.000313165
0.000313158
0.000286785
0.000286781
0.000313167
0.000286787
0.000286786
0.000314738
0.000285201
0.000313164
0.00028678
0.000286781
0.000285207
0.000279573
0.000250048
0.000277994
0.000277994
0.000251628
0.000251633
0.000279572
0.000250053
0.000277993
0.000277988
0.000251628
0.000251625
0.000277993
0.000251632
0.000251626
0.000279566
0.000250044
0.000277989
0.000251625
0.000251625
0.000250048
0.000244415
0.000214903
0.000242837
0.000242842
0.000216483
0.000216487
0.00024442
0.000214907
0.000242837
0.000242835
0.000216482
0.000216484
0.000242837
0.000216484
0.000216479
0.000244411
0.000214904
0.000242835
0.000216485
0.000216481
0.000214906
0.000209274
0.000179769
0.000207696
0.000207697
0.00018135
0.000181345
0.000209276
0.000179763
0.000207695
0.000207697
0.000181351
0.000181355
0.000207692
0.000181344
0.000181347
0.000209274
0.000179779
0.000207691
0.000181355
0.00018135
0.00017977
0.000174139
0.00014464
0.00017256
0.000172555
0.000146217
0.000146215
0.000174131
0.000144632
0.000172562
0.000172564
0.000146218
0.000146219
0.000172557
0.000146214
0.000146218
0.000174149
0.00014464
0.000172559
0.000146221
0.00014622
0.000144643
0.000139006
0.000109495
0.000137423
0.000137421
0.000111077
0.000111075
0.000139001
0.000109488
0.000137423
0.000137423
0.000111077
0.000111078
0.000137423
0.000111074
0.000111077
0.000139008
0.000109492
0.000137425
0.000111079
0.000111079
0.000109494
0.000103862
7.43321e-05
0.000102274
0.000102274
7.59304e-05
7.59303e-05
0.000103859
7.43349e-05
0.000102274
0.000102275
7.59298e-05
7.59307e-05
0.000102276
7.59322e-05
7.59268e-05
0.000103862
7.43352e-05
0.000102277
7.59315e-05
7.59262e-05
7.4336e-05
6.86967e-05