/*--------------------------------*- C++ -*----------------------------------*\
| =========                 |                                                 |
| \\      /  F ield         | OpenFOAM: The Open Source CFD Toolbox           |
|  \\    /   O peration     | Version:  2312                                  |
|   \\  /    A nd           | Website:  www.openfoam.com                      |
|    \\/     M anipulation  |                                                 |
\*---------------------------------------------------------------------------*/
FoamFile
{
    version     2.0;
    format      ascii;
    arch        "LSB;label=32;scalar=64";
    class       volScalarField;
    location    "250";
    object      epsilon;
}
// * * * * * * * * * * * * * * * * * * * * * * * * * * * * * * * * * * * * * //

dimensions      [0 2 -3 0 0 0 0];

internalField   nonuniform List<scalar> 
43208
(
5.38679e-07
1.09529e-06
1.0954e-06
1.39496e-06
5.38712e-07
1.09533e-06
1.09544e-06
1.39507e-06
5.3873e-07
1.09534e-06
1.09544e-06
1.39502e-06
5.38731e-07
1.09534e-06
1.09544e-06
1.39495e-06
5.38729e-07
1.0953e-06
1.09541e-06
1.3949e-06
5.38734e-07
1.09527e-06
1.09537e-06
1.39489e-06
5.3877e-07
1.09531e-06
1.09541e-06
1.39495e-06
5.38816e-07
1.09538e-06
1.0955e-06
1.39503e-06
5.38838e-07
1.09541e-06
1.09553e-06
1.39502e-06
5.38842e-07
1.09543e-06
1.09553e-06
1.395e-06
5.3884e-07
1.09543e-06
1.09554e-06
1.39501e-06
5.38835e-07
1.09543e-06
1.09553e-06
1.39513e-06
5.38828e-07
1.09541e-06
1.09552e-06
1.39515e-06
5.38824e-07
1.09541e-06
1.09552e-06
1.39512e-06
5.38824e-07
1.09541e-06
1.09552e-06
1.39509e-06
5.38828e-07
1.09542e-06
1.09553e-06
1.39505e-06
5.38834e-07
1.09543e-06
1.09554e-06
1.39503e-06
5.38848e-07
1.09545e-06
1.09556e-06
1.39499e-06
5.38849e-07
1.09545e-06
1.09556e-06
1.39495e-06
5.37655e-07
1.09377e-06
1.09387e-06
1.39439e-06
6.1101e-07
1.0003e-06
1.00037e-06
1.33484e-06
1.39269e-06
1.09543e-06
1.09536e-06
1.39269e-06
1.09523e-06
1.09547e-06
1.09529e-06
1.0955e-06
1.39277e-06
1.09539e-06
1.09532e-06
1.39284e-06
1.39483e-06
1.3928e-06
1.09544e-06
1.09537e-06
1.09548e-06
1.0954e-06
1.39482e-06
1.39278e-06
1.09524e-06
1.09547e-06
1.09528e-06
1.09551e-06
1.0955e-06
1.09533e-06
1.09554e-06
1.3949e-06
1.39286e-06
1.09532e-06
1.09543e-06
1.09536e-06
1.39293e-06
1.39494e-06
1.39274e-06
1.09548e-06
1.0954e-06
1.09549e-06
1.09541e-06
1.39492e-06
1.39272e-06
1.09528e-06
1.09551e-06
1.09528e-06
1.09551e-06
1.09554e-06
1.09533e-06
1.09555e-06
1.395e-06
1.3928e-06
1.09536e-06
1.09544e-06
1.09536e-06
1.39286e-06
1.3949e-06
1.3927e-06
1.09549e-06
1.09541e-06
1.09548e-06
1.09541e-06
1.39488e-06
1.39271e-06
1.09529e-06
1.09552e-06
1.09527e-06
1.09552e-06
1.09555e-06
1.09534e-06
1.09555e-06
1.39496e-06
1.3928e-06
1.09537e-06
1.09544e-06
1.09536e-06
1.39285e-06
1.39481e-06
1.39266e-06
1.09547e-06
1.0954e-06
1.09545e-06
1.09538e-06
1.39482e-06
1.39268e-06
1.09527e-06
1.09552e-06
1.09524e-06
1.09549e-06
1.09554e-06
1.09532e-06
1.09552e-06
1.39492e-06
1.39278e-06
1.09536e-06
1.09542e-06
1.09533e-06
1.3928e-06
1.39476e-06
1.39262e-06
1.09544e-06
1.09537e-06
1.09542e-06
1.09535e-06
1.39479e-06
1.39263e-06
1.09523e-06
1.09548e-06
1.09521e-06
1.09544e-06
1.0955e-06
1.09527e-06
1.09548e-06
1.39488e-06
1.39269e-06
1.09532e-06
1.09537e-06
1.0953e-06
1.39276e-06
1.39475e-06
1.39264e-06
1.09542e-06
1.09535e-06
1.09544e-06
1.09537e-06
1.39476e-06
1.39263e-06
1.09521e-06
1.09544e-06
1.09524e-06
1.09546e-06
1.09548e-06
1.09529e-06
1.0955e-06
1.39481e-06
1.3927e-06
1.0953e-06
1.09539e-06
1.09532e-06
1.39277e-06
1.39484e-06
1.3927e-06
1.09546e-06
1.09538e-06
1.09551e-06
1.09543e-06
1.39483e-06
1.39268e-06
1.09526e-06
1.09549e-06
1.09531e-06
1.09556e-06
1.09552e-06
1.09536e-06
1.09558e-06
1.39489e-06
1.3928e-06
1.09534e-06
1.09548e-06
1.09539e-06
1.39283e-06
1.3949e-06
1.39272e-06
1.09553e-06
1.09545e-06
1.09555e-06
1.09547e-06
1.39489e-06
1.3927e-06
1.09533e-06
1.09558e-06
1.09535e-06
1.0956e-06
1.0956e-06
1.0954e-06
1.09562e-06
1.39501e-06
1.39282e-06
1.09541e-06
1.09552e-06
1.09543e-06
1.39285e-06
1.39489e-06
1.39276e-06
1.09555e-06
1.09548e-06
1.09557e-06
1.09549e-06
1.39488e-06
1.39274e-06
1.09535e-06
1.0956e-06
1.09537e-06
1.0956e-06
1.09563e-06
1.09542e-06
1.09564e-06
1.395e-06
1.39279e-06
1.09544e-06
1.09552e-06
1.09545e-06
1.39288e-06
1.39489e-06
1.39281e-06
1.09558e-06
1.0955e-06
1.09557e-06
1.0955e-06
1.39488e-06
1.3928e-06
1.09537e-06
1.09561e-06
1.09537e-06
1.09561e-06
1.09564e-06
1.09542e-06
1.09564e-06
1.39493e-06
1.39289e-06
1.09546e-06
1.09553e-06
1.09545e-06
1.39295e-06
1.39489e-06
1.39292e-06
1.09557e-06
1.0955e-06
1.09557e-06
1.0955e-06
1.39487e-06
1.39292e-06
1.09537e-06
1.09561e-06
1.09537e-06
1.09561e-06
1.09564e-06
1.09542e-06
1.09564e-06
1.39496e-06
1.39299e-06
1.09546e-06
1.09553e-06
1.09546e-06
1.39307e-06
1.39498e-06
1.39289e-06
1.09557e-06
1.0955e-06
1.09555e-06
1.09548e-06
1.39498e-06
1.39288e-06
1.09537e-06
1.09561e-06
1.09535e-06
1.09559e-06
1.09564e-06
1.09541e-06
1.09562e-06
1.39505e-06
1.39298e-06
1.09546e-06
1.09551e-06
1.09544e-06
1.39302e-06
1.39501e-06
1.39283e-06
1.09556e-06
1.09548e-06
1.09554e-06
1.09547e-06
1.395e-06
1.39284e-06
1.09535e-06
1.0956e-06
1.09534e-06
1.09558e-06
1.09563e-06
1.0954e-06
1.09561e-06
1.3951e-06
1.39292e-06
1.09544e-06
1.09551e-06
1.09543e-06
1.39296e-06
1.39499e-06
1.39282e-06
1.09555e-06
1.09548e-06
1.09554e-06
1.09547e-06
1.39499e-06
1.39281e-06
1.09535e-06
1.09559e-06
1.09534e-06
1.09558e-06
1.09562e-06
1.09539e-06
1.09561e-06
1.39509e-06
1.39285e-06
1.09544e-06
1.0955e-06
1.09542e-06
1.39291e-06
1.39501e-06
1.39273e-06
1.09556e-06
1.09548e-06
1.09553e-06
1.09546e-06
1.39499e-06
1.39275e-06
1.09535e-06
1.09559e-06
1.09533e-06
1.09557e-06
1.09562e-06
1.09539e-06
1.0956e-06
1.39504e-06
1.39283e-06
1.09544e-06
1.0955e-06
1.09542e-06
1.39288e-06
1.39495e-06
1.39269e-06
1.09556e-06
1.09549e-06
1.09553e-06
1.09546e-06
1.39496e-06
1.39271e-06
1.09536e-06
1.0956e-06
1.09533e-06
1.09557e-06
1.09563e-06
1.09539e-06
1.0956e-06
1.39501e-06
1.39282e-06
1.09544e-06
1.0955e-06
1.09542e-06
1.39286e-06
1.39488e-06
1.3927e-06
1.09557e-06
1.0955e-06
1.09553e-06
1.09546e-06
1.39491e-06
1.39267e-06
1.09537e-06
1.09561e-06
1.09533e-06
1.09557e-06
1.09564e-06
1.09538e-06
1.0956e-06
1.39499e-06
1.39284e-06
1.09545e-06
1.0955e-06
1.09542e-06
1.39284e-06
1.39484e-06
1.39277e-06
1.09559e-06
1.09552e-06
1.09552e-06
1.09545e-06
1.39484e-06
1.39272e-06
1.09539e-06
1.09563e-06
1.09532e-06
1.09556e-06
1.09566e-06
1.09538e-06
1.09559e-06
1.395e-06
1.39284e-06
1.09547e-06
1.09549e-06
1.09541e-06
1.39289e-06
1.39484e-06
1.39253e-06
1.09559e-06
1.09552e-06
1.09548e-06
1.09541e-06
1.3948e-06
1.39249e-06
1.09539e-06
1.09563e-06
1.09528e-06
1.09552e-06
1.09566e-06
1.09534e-06
1.09556e-06
1.39497e-06
1.39254e-06
1.09547e-06
1.09544e-06
1.09536e-06
1.39264e-06
1.39429e-06
1.35967e-06
1.09392e-06
1.09384e-06
1.0264e-06
1.02632e-06
1.39425e-06
1.35966e-06
1.09371e-06
1.09394e-06
1.02633e-06
1.0264e-06
1.09398e-06
1.02639e-06
1.02643e-06
1.39433e-06
1.35971e-06
1.09379e-06
1.02646e-06
1.02638e-06
1.35975e-06
1.33474e-06
1.00027e-06
1.0002e-06
1.33474e-06
1.00022e-06
1.00027e-06
6.11011e-07
6.1108e-07
6.11078e-07
1.00033e-06
1.33481e-06
1.00029e-06
4.35878e-06
9.77762e-06
1.9443e-05
9.77896e-06
5.38669e-07
5.38671e-07
5.38783e-07
5.3878e-07
2.33661e-06
1.09528e-06
3.75244e-06
8.02741e-07
4.35893e-06
9.77766e-06
4.359e-06
9.778e-06
1.9442e-05
1.94436e-05
4.35898e-06
9.77901e-06
4.35905e-06
9.77937e-06
5.38678e-07
5.38788e-07
5.38784e-07
5.38705e-07
5.38702e-07
5.38814e-07
5.3881e-07
2.33661e-06
3.7529e-06
8.02756e-07
1.0953e-06
2.33695e-06
3.75255e-06
8.02763e-07
1.94433e-05
1.94448e-05
2.33666e-06
8.02856e-07
3.7529e-06
1.09541e-06
2.33698e-06
8.02857e-07
3.75256e-06
5.80369e-06
5.80548e-06
1.39284e-06
5.80346e-06
5.80527e-06
4.35898e-06
9.77797e-06
4.35912e-06
9.77819e-06
1.94423e-05
1.94438e-05
4.35907e-06
9.77942e-06
4.3592e-06
9.77966e-06
5.38708e-07
5.3882e-07
5.38817e-07
5.38728e-07
5.38726e-07
5.38838e-07
5.38835e-07
2.33662e-06
3.75299e-06
8.02787e-07
1.09533e-06
2.33697e-06
3.7526e-06
8.02787e-07
1.94438e-05
1.94451e-05
2.33664e-06
8.02882e-07
3.75301e-06
1.09543e-06
2.337e-06
8.0288e-07
3.75263e-06
5.80386e-06
5.80567e-06
1.39289e-06
5.80357e-06
5.80539e-06
4.35893e-06
9.77798e-06
4.3591e-06
9.77811e-06
1.94424e-05
1.94437e-05
4.359e-06
9.77946e-06
4.35918e-06
9.77957e-06
5.38729e-07
5.38841e-07
5.38839e-07
5.38731e-07
5.38737e-07
5.38849e-07
5.38845e-07
2.33662e-06
3.75302e-06
8.02795e-07
1.09534e-06
2.33695e-06
3.75261e-06
8.02803e-07
1.94438e-05
1.9445e-05
2.33663e-06
8.02887e-07
3.75303e-06
1.09545e-06
2.33697e-06
8.02889e-07
3.75262e-06
5.80394e-06
5.80574e-06
1.39294e-06
5.80362e-06
5.80542e-06
4.35879e-06
9.77776e-06
4.359e-06
9.77778e-06
1.94421e-05
1.94431e-05
4.35884e-06
9.77916e-06
4.35905e-06
9.77916e-06
5.38737e-07
5.3885e-07
5.38842e-07
5.38729e-07
5.38739e-07
5.38851e-07
5.38844e-07
2.33652e-06
3.75296e-06
8.02796e-07
1.09533e-06
2.33688e-06
3.75249e-06
8.02796e-07
1.94436e-05
1.94446e-05
2.33654e-06
8.02889e-07
3.75297e-06
1.09543e-06
2.3369e-06
8.02884e-07
3.75252e-06
5.80385e-06
5.80565e-06
1.39281e-06
5.80339e-06
5.80521e-06
4.35854e-06
9.77717e-06
4.35878e-06
9.77709e-06
1.94409e-05
1.94418e-05
4.35857e-06
9.77855e-06
4.35881e-06
9.77847e-06
5.38734e-07
5.38845e-07
5.3884e-07
5.38729e-07
5.38733e-07
5.38839e-07
5.38841e-07
2.33635e-06
3.75272e-06
8.02788e-07
1.09529e-06
2.33674e-06
3.75221e-06
8.02781e-07
1.94425e-05
1.94432e-05
2.33638e-06
8.02885e-07
3.75275e-06
1.09539e-06
2.33678e-06
8.02873e-07
3.75223e-06
5.80335e-06
5.80517e-06
1.39268e-06
5.80285e-06
5.80468e-06
4.3584e-06
9.77658e-06
4.35856e-06
9.77672e-06
1.94401e-05
1.94416e-05
4.35843e-06
9.77796e-06
4.35859e-06
9.7781e-06
5.38735e-07
5.38839e-07
5.38844e-07
5.38756e-07
5.38755e-07
5.38864e-07
5.38866e-07
2.33631e-06
3.7525e-06
8.02769e-07
1.09527e-06
2.33661e-06
3.75209e-06
8.02778e-07
1.94412e-05
1.94425e-05
2.33632e-06
8.02866e-07
3.75248e-06
1.09537e-06
2.33665e-06
8.02866e-07
3.75207e-06
5.80302e-06
5.80484e-06
1.39266e-06
5.80273e-06
5.80456e-06
4.35857e-06
9.77673e-06
4.35861e-06
9.77715e-06
1.94407e-05
1.94424e-05
4.35863e-06
9.77813e-06
4.35866e-06
9.77856e-06
5.38767e-07
5.38879e-07
5.38879e-07
5.38803e-07
5.38804e-07
5.38925e-07
5.38919e-07
2.33646e-06
3.75259e-06
8.02802e-07
1.09532e-06
2.33665e-06
3.75228e-06
8.02823e-07
1.94419e-05
1.94438e-05
2.33649e-06
8.029e-07
3.75257e-06
1.09543e-06
2.3367e-06
8.02912e-07
3.75229e-06
5.80326e-06
5.80506e-06
1.39282e-06
5.80309e-06
5.80488e-06
4.35883e-06
9.77736e-06
4.35889e-06
9.77774e-06
1.94415e-05
1.94432e-05
4.35891e-06
9.77879e-06
4.35896e-06
9.77916e-06
5.38815e-07
5.38938e-07
5.3893e-07
5.38832e-07
5.38834e-07
5.38957e-07
5.38949e-07
2.33662e-06
3.75283e-06
8.0286e-07
1.09539e-06
2.33681e-06
3.75249e-06
8.02873e-07
1.94432e-05
1.94447e-05
2.33667e-06
8.02961e-07
3.75286e-06
1.09551e-06
2.33684e-06
8.02967e-07
3.75254e-06
5.8036e-06
5.80539e-06
1.39298e-06
5.80335e-06
5.80516e-06
4.35893e-06
9.77773e-06
4.35904e-06
9.778e-06
1.9442e-05
1.94436e-05
4.359e-06
9.77915e-06
4.35911e-06
9.77941e-06
5.38837e-07
5.38957e-07
5.38951e-07
5.3884e-07
5.38844e-07
5.38962e-07
5.38957e-07
2.33664e-06
3.75297e-06
8.02883e-07
1.09541e-06
2.3369e-06
3.7526e-06
8.02887e-07
1.94436e-05
1.9445e-05
2.33669e-06
8.02981e-07
3.75301e-06
1.09552e-06
2.33692e-06
8.02977e-07
3.75263e-06
5.80378e-06
5.80558e-06
1.39305e-06
5.80349e-06
5.80529e-06
4.35899e-06
9.77791e-06
4.35912e-06
9.77816e-06
1.94423e-05
1.94439e-05
4.35905e-06
9.77932e-06
4.35917e-06
9.77957e-06
5.38843e-07
5.3896e-07
5.38954e-07
5.38838e-07
5.38845e-07
5.38962e-07
5.38957e-07
2.33662e-06
3.75305e-06
8.02898e-07
1.09542e-06
2.33699e-06
3.75265e-06
8.02894e-07
1.94438e-05
1.94452e-05
2.33667e-06
8.02988e-07
3.75306e-06
1.09553e-06
2.33699e-06
8.02983e-07
3.75267e-06
5.80388e-06
5.80568e-06
1.39304e-06
5.80355e-06
5.80536e-06
4.359e-06
9.778e-06
4.35915e-06
9.7782e-06
1.94424e-05
1.94439e-05
4.35906e-06
9.77941e-06
4.35921e-06
9.77962e-06
5.38844e-07
5.38961e-07
5.38955e-07
5.38834e-07
5.38845e-07
5.38962e-07
5.38958e-07
2.33663e-06
3.75308e-06
8.02901e-07
1.09542e-06
2.33707e-06
3.75264e-06
8.02896e-07
1.94438e-05
1.94452e-05
2.33667e-06
8.02993e-07
3.75309e-06
1.09553e-06
2.33705e-06
8.02986e-07
3.75266e-06
5.80395e-06
5.80575e-06
1.39292e-06
5.80355e-06
5.80536e-06
4.35893e-06
9.77789e-06
4.35911e-06
9.77806e-06
1.94421e-05
1.94437e-05
4.35898e-06
9.77929e-06
4.35916e-06
9.77946e-06
5.38844e-07
5.38961e-07
5.38957e-07
5.38826e-07
5.38836e-07
5.38954e-07
5.38951e-07
2.33666e-06
3.75305e-06
8.02896e-07
1.09541e-06
2.33704e-06
3.75256e-06
8.02887e-07
1.94436e-05
1.94451e-05
2.33668e-06
8.02991e-07
3.75306e-06
1.09552e-06
2.33704e-06
8.0298e-07
3.75259e-06
5.80388e-06
5.80568e-06
1.39283e-06
5.80341e-06
5.80522e-06
4.35889e-06
9.77773e-06
4.35905e-06
9.77799e-06
1.94418e-05
1.94437e-05
4.35894e-06
9.77914e-06
4.35911e-06
9.7794e-06
5.38836e-07
5.38954e-07
5.38951e-07
5.3882e-07
5.3883e-07
5.38947e-07
5.38944e-07
2.33668e-06
3.753e-06
8.02888e-07
1.0954e-06
2.33694e-06
3.75248e-06
8.02879e-07
1.94433e-05
1.94451e-05
2.33669e-06
8.02984e-07
3.75302e-06
1.09551e-06
2.33698e-06
8.02973e-07
3.75251e-06
5.80383e-06
5.80564e-06
1.39287e-06
5.80327e-06
5.80509e-06
4.35886e-06
9.77764e-06
4.35902e-06
9.77801e-06
1.94415e-05
1.94439e-05
4.35891e-06
9.77904e-06
4.35907e-06
9.7794e-06
5.3883e-07
5.38947e-07
5.38944e-07
5.38817e-07
5.38826e-07
5.38942e-07
5.38939e-07
2.33666e-06
3.75299e-06
8.02888e-07
1.09539e-06
2.33688e-06
3.75238e-06
8.02876e-07
1.94429e-05
1.94453e-05
2.3367e-06
8.02985e-07
3.75301e-06
1.0955e-06
2.33692e-06
8.0297e-07
3.7524e-06
5.80382e-06
5.80562e-06
1.39289e-06
5.8031e-06
5.80491e-06
4.35886e-06
9.77759e-06
4.35901e-06
9.77817e-06
1.94412e-05
1.94445e-05
4.35892e-06
9.77898e-06
4.35906e-06
9.77958e-06
5.38827e-07
5.38944e-07
5.3894e-07
5.38816e-07
5.38823e-07
5.3894e-07
5.38935e-07
2.33664e-06
3.75302e-06
8.02893e-07
1.09539e-06
2.33688e-06
3.75224e-06
8.02874e-07
1.94427e-05
1.94459e-05
2.33667e-06
8.0299e-07
3.75304e-06
1.0955e-06
2.33689e-06
8.0297e-07
3.75226e-06
5.80386e-06
5.80566e-06
1.39293e-06
5.80286e-06
5.80467e-06
4.3589e-06
9.7776e-06
4.35904e-06
9.77852e-06
1.94408e-05
1.94456e-05
4.35897e-06
9.77904e-06
4.35911e-06
9.77995e-06
5.3883e-07
5.38947e-07
5.38942e-07
5.38814e-07
5.38821e-07
5.38937e-07
5.38932e-07
2.33664e-06
3.75312e-06
8.02901e-07
1.09539e-06
2.33689e-06
3.75196e-06
8.02877e-07
1.94423e-05
1.9447e-05
2.33663e-06
8.02995e-07
3.75314e-06
1.0955e-06
2.33691e-06
8.02972e-07
3.75199e-06
5.80392e-06
5.80574e-06
1.39296e-06
5.80247e-06
5.80429e-06
4.35899e-06
9.77755e-06
4.35906e-06
9.77922e-06
1.94402e-05
1.94474e-05
4.35904e-06
9.77895e-06
4.35911e-06
9.78061e-06
5.38836e-07
5.38952e-07
5.38948e-07
5.38812e-07
5.38818e-07
5.38936e-07
5.3893e-07
2.33664e-06
3.75331e-06
8.0291e-07
1.09538e-06
2.33689e-06
3.75145e-06
8.02871e-07
1.94416e-05
1.94487e-05
2.33659e-06
8.03003e-07
3.75332e-06
1.09549e-06
2.33694e-06
8.02961e-07
3.75147e-06
5.80443e-06
5.80623e-06
1.39299e-06
5.80259e-06
5.8044e-06
4.35933e-06
9.77745e-06
4.3592e-06
9.7803e-06
1.94391e-05
1.94499e-05
4.3594e-06
9.77885e-06
4.35927e-06
9.7817e-06
5.38848e-07
5.38965e-07
5.3896e-07
5.38801e-07
5.38804e-07
5.38922e-07
5.38915e-07
2.33661e-06
3.75379e-06
8.02931e-07
1.09539e-06
2.33693e-06
3.75062e-06
8.0287e-07
1.94403e-05
1.9451e-05
2.33658e-06
8.03029e-07
3.7538e-06
1.0955e-06
2.33705e-06
8.02965e-07
3.75064e-06
5.80585e-06
5.80765e-06
1.39303e-06
5.80332e-06
5.80511e-06
4.35994e-06
9.77633e-06
4.35943e-06
9.78148e-06
1.94361e-05
1.94517e-05
4.35994e-06
9.77775e-06
4.35948e-06
9.78295e-06
5.38847e-07
5.38964e-07
5.38958e-07
5.38709e-07
5.38709e-07
5.38821e-07
5.38821e-07
2.3363e-06
3.75573e-06
8.02943e-07
1.09534e-06
2.33703e-06
3.74973e-06
8.02801e-07
1.9437e-05
1.94526e-05
2.33632e-06
8.03038e-07
3.75578e-06
1.09545e-06
2.3371e-06
8.02896e-07
3.74982e-06
5.80841e-06
5.81021e-06
1.39293e-06
5.80551e-06
5.8073e-06
4.35702e-06
9.77251e-06
4.35857e-06
9.77762e-06
1.94284e-05
1.94428e-05
4.35697e-06
9.77401e-06
4.35852e-06
9.7791e-06
5.37651e-07
5.37753e-07
5.3775e-07
5.96513e-07
5.96509e-07
5.96583e-07
5.96582e-07
2.33001e-06
3.75985e-06
8.01856e-07
1.09395e-06
2.33647e-06
3.74128e-06
8.01308e-07
1.94288e-05
1.94431e-05
2.33002e-06
8.01951e-07
3.75985e-06
1.09404e-06
2.33649e-06
8.01381e-07
3.74126e-06
5.81301e-06
5.81477e-06
1.38823e-06
5.80693e-06
5.80877e-06
3.57097e-06
8.9932e-06
4.3022e-06
5.96869e-06
1.72457e-05
8.615e-06
3.57104e-06
8.99431e-06
4.30224e-06
5.96886e-06
1.65928e-07
3.66048e-07
3.66022e-07
6.36186e-07
1.699e-07
3.75756e-07
3.75741e-07
2.24974e-06
3.65719e-06
6.98246e-07
9.54366e-07
2.29975e-06
3.76968e-06
6.4889e-07
1.72463e-05
8.61555e-06
2.24978e-06
6.98306e-07
3.65721e-06
9.54447e-07
2.29975e-06
6.48944e-07
3.76979e-06
5.72365e-06
5.72558e-06
1.28008e-06
5.36926e-06
5.37009e-06
1.94406e-05
1.94439e-05
1.39272e-06
5.80317e-06
5.80498e-06
1.9441e-05
1.94394e-05
1.94442e-05
1.94427e-05
1.39484e-06
5.8033e-06
5.80511e-06
5.80352e-06
5.80531e-06
4.35872e-06
9.77779e-06
2.33654e-06
1.09542e-06
3.75226e-06
8.02713e-07
2.33648e-06
1.09535e-06
3.75267e-06
8.0267e-07
4.35893e-06
9.7778e-06
9.77746e-06
4.35885e-06
4.35887e-06
9.77796e-06
9.77763e-06
4.35879e-06
2.33685e-06
1.09543e-06
3.75233e-06
8.02728e-07
3.75267e-06
8.0272e-07
2.33657e-06
2.33679e-06
1.09536e-06
3.75273e-06
8.02684e-07
3.75312e-06
8.02677e-07
2.33651e-06
1.39272e-06
5.80473e-06
5.80339e-06
1.94419e-05
1.94433e-05
1.94417e-05
1.39484e-06
5.80486e-06
5.8035e-06
5.80516e-06
5.80373e-06
1.94422e-05
1.94407e-05
1.09522e-06
3.75281e-06
4.35899e-06
9.77914e-06
9.7788e-06
4.35889e-06
2.33688e-06
1.09522e-06
3.75289e-06
8.02713e-07
3.75321e-06
8.02706e-07
2.3366e-06
4.35892e-06
9.7787e-06
9.77839e-06
4.35882e-06
2.33683e-06
1.09546e-06
8.02772e-07
3.7528e-06
8.02766e-07
3.75313e-06
2.33655e-06
4.35897e-06
9.77842e-06
2.33658e-06
8.02798e-07
4.35885e-06
2.33692e-06
1.09528e-06
3.75249e-06
8.02757e-07
3.75284e-06
8.02743e-07
2.33666e-06
4.35919e-06
9.77856e-06
9.77825e-06
4.35903e-06
2.33689e-06
1.09549e-06
8.02812e-07
3.75243e-06
8.02805e-07
3.75279e-06
2.33662e-06
4.359e-06
9.77847e-06
9.77816e-06
4.3589e-06
1.94445e-05
1.9443e-05
1.39499e-06
5.8049e-06
5.80344e-06
5.80511e-06
5.80366e-06
1.9442e-05
1.94405e-05
2.33701e-06
1.09539e-06
8.02852e-07
3.75249e-06
8.02847e-07
3.75284e-06
2.33669e-06
2.33694e-06
1.09531e-06
8.02805e-07
3.75296e-06
8.028e-07
3.7533e-06
2.33663e-06
4.35924e-06
9.77869e-06
9.77838e-06
4.35906e-06
4.35929e-06
9.77923e-06
9.7789e-06
4.35903e-06
1.39503e-06
5.80333e-06
5.80514e-06
5.80356e-06
5.80534e-06
1.9443e-05
1.94415e-05
1.94454e-05
1.94438e-05
1.94398e-05
1.94413e-05
1.9443e-05
1.94446e-05
5.80366e-06
5.80546e-06
1.39272e-06
5.80344e-06
5.80527e-06
1.94414e-05
1.944e-05
1.94448e-05
1.94434e-05
1.39488e-06
5.8035e-06
5.80536e-06
5.80379e-06
5.8056e-06
4.35887e-06
9.77781e-06
4.35894e-06
9.77815e-06
2.33655e-06
3.75274e-06
8.02732e-07
1.09545e-06
2.33686e-06
3.75241e-06
8.02737e-07
2.33649e-06
3.75318e-06
8.02689e-07
1.09537e-06
2.33681e-06
3.75281e-06
8.02693e-07
4.35908e-06
9.77814e-06
9.77785e-06
4.35898e-06
4.35902e-06
9.77828e-06
9.77799e-06
4.35891e-06
2.33686e-06
1.09547e-06
3.75245e-06
8.02759e-07
3.75282e-06
8.02748e-07
2.33658e-06
2.3368e-06
1.09539e-06
3.75285e-06
8.02715e-07
3.75325e-06
8.02704e-07
2.33652e-06
5.80528e-06
5.80384e-06
1.3927e-06
5.80497e-06
5.80361e-06
1.9441e-05
1.94425e-05
1.94437e-05
1.94422e-05
1.39486e-06
5.80502e-06
5.80365e-06
5.80538e-06
5.80393e-06
1.94426e-05
1.94412e-05
2.33659e-06
3.75329e-06
8.02717e-07
1.09525e-06
2.33691e-06
3.75298e-06
8.02723e-07
4.35891e-06
9.77855e-06
4.35897e-06
9.7789e-06
2.33653e-06
8.02776e-07
3.7532e-06
1.09548e-06
2.33686e-06
8.0278e-07
3.75287e-06
4.35914e-06
9.77957e-06
9.77924e-06
4.35905e-06
2.3369e-06
1.09527e-06
3.75304e-06
8.02749e-07
3.75337e-06
8.02735e-07
2.33661e-06
4.35906e-06
9.77907e-06
9.77876e-06
4.35898e-06
2.33684e-06
1.0955e-06
8.02805e-07
3.75293e-06
8.02791e-07
3.75327e-06
2.33656e-06
4.35909e-06
9.7784e-06
4.35924e-06
9.7787e-06
2.33658e-06
8.02816e-07
3.75284e-06
1.09551e-06
2.33691e-06
8.02819e-07
3.7525e-06
4.35897e-06
9.77832e-06
4.35906e-06
9.77863e-06
2.33692e-06
1.09532e-06
3.75259e-06
8.02785e-07
3.75296e-06
8.02767e-07
2.33666e-06
4.35931e-06
9.77881e-06
9.77854e-06
4.35913e-06
2.33689e-06
1.09553e-06
8.02841e-07
3.75254e-06
8.02828e-07
3.75291e-06
2.33662e-06
4.35912e-06
9.77874e-06
9.77847e-06
4.35901e-06
5.80524e-06
5.80379e-06
1.39279e-06
5.80503e-06
5.80356e-06
1.94408e-05
1.94423e-05
1.9445e-05
1.94436e-05
1.39495e-06
5.80511e-06
5.80363e-06
5.80536e-06
5.8039e-06
1.94424e-05
1.94411e-05
2.33659e-06
8.02805e-07
3.75336e-06
1.09533e-06
2.33692e-06
8.02808e-07
3.75303e-06
4.35913e-06
9.77854e-06
4.35927e-06
9.77886e-06
4.3591e-06
9.77908e-06
4.35931e-06
9.77941e-06
2.33698e-06
1.09542e-06
8.02877e-07
3.75261e-06
8.02866e-07
3.75297e-06
2.33671e-06
2.33692e-06
1.09535e-06
8.02831e-07
3.75307e-06
8.02819e-07
3.75343e-06
2.33664e-06
4.35934e-06
9.77899e-06
9.77871e-06
4.35917e-06
4.35938e-06
9.77954e-06
9.77926e-06
4.35915e-06
1.94418e-05
1.94433e-05
1.94442e-05
1.94457e-05
1.39499e-06
5.80353e-06
5.80535e-06
5.8038e-06
5.8056e-06
1.94434e-05
1.9442e-05
1.94459e-05
1.94445e-05
1.94402e-05
1.94415e-05
1.94436e-05
1.94449e-05
5.80384e-06
5.80568e-06
1.39276e-06
5.80354e-06
5.80541e-06
1.94415e-05
1.94402e-05
1.94449e-05
1.94436e-05
1.39487e-06
5.80356e-06
5.80543e-06
5.80388e-06
5.80572e-06
4.35892e-06
9.7781e-06
4.35905e-06
9.77833e-06
2.33656e-06
3.75286e-06
8.02762e-07
1.09548e-06
2.33689e-06
3.75247e-06
8.02763e-07
2.3365e-06
3.75329e-06
8.02718e-07
1.0954e-06
2.33683e-06
3.75286e-06
8.02718e-07
4.35911e-06
9.77818e-06
9.778e-06
4.35897e-06
4.35905e-06
9.77834e-06
9.77814e-06
4.3589e-06
2.33685e-06
1.09548e-06
3.75247e-06
8.02764e-07
3.75287e-06
8.02763e-07
2.33654e-06
2.3368e-06
1.0954e-06
3.75287e-06
8.0272e-07
3.7533e-06
8.02718e-07
2.33648e-06
5.80542e-06
5.80397e-06
1.39273e-06
5.80504e-06
5.80368e-06
1.94413e-05
1.94426e-05
1.94438e-05
1.94423e-05
1.39484e-06
5.80508e-06
5.80371e-06
5.80545e-06
5.804e-06
1.94426e-05
1.94413e-05
2.33661e-06
3.75343e-06
8.02753e-07
1.09528e-06
2.33693e-06
3.75306e-06
8.02754e-07
4.359e-06
9.77891e-06
4.35912e-06
9.77916e-06
2.33655e-06
8.02809e-07
3.75332e-06
1.09551e-06
2.33688e-06
8.0281e-07
3.75295e-06
4.3592e-06
9.77966e-06
9.77948e-06
4.35905e-06
2.3369e-06
1.09528e-06
3.75306e-06
8.02753e-07
3.75344e-06
8.02754e-07
2.33656e-06
4.35913e-06
9.77918e-06
9.77898e-06
4.35899e-06
2.33684e-06
1.09551e-06
8.0281e-07
3.75296e-06
8.0281e-07
3.75334e-06
2.33651e-06
4.35914e-06
9.77863e-06
4.35934e-06
9.77885e-06
2.33659e-06
8.02845e-07
3.75294e-06
1.09554e-06
2.33692e-06
8.02845e-07
3.75256e-06
4.35901e-06
9.77857e-06
4.35915e-06
9.7788e-06
2.33691e-06
1.09533e-06
3.75261e-06
8.02793e-07
3.753e-06
8.02785e-07
2.33664e-06
4.35934e-06
9.77887e-06
9.77866e-06
4.35915e-06
2.33688e-06
1.09554e-06
8.02849e-07
3.75258e-06
8.02846e-07
3.75296e-06
2.3366e-06
4.35916e-06
9.77883e-06
9.77861e-06
4.35902e-06
5.80543e-06
5.80395e-06
1.39282e-06
5.80516e-06
5.80366e-06
1.94412e-05
1.94425e-05
1.94451e-05
1.94439e-05
1.39494e-06
5.80519e-06
5.8037e-06
5.80547e-06
5.80399e-06
1.94425e-05
1.94412e-05
2.33657e-06
8.02834e-07
3.75347e-06
1.09536e-06
2.33693e-06
8.02834e-07
3.75309e-06
4.35918e-06
9.77881e-06
4.35937e-06
9.77903e-06
4.35916e-06
9.77937e-06
4.35941e-06
9.77959e-06
2.33695e-06
1.09543e-06
8.02882e-07
3.75264e-06
8.02881e-07
3.75302e-06
2.33667e-06
2.33689e-06
1.09536e-06
8.02836e-07
3.7531e-06
8.02835e-07
3.75348e-06
2.33661e-06
4.35937e-06
9.77904e-06
9.77885e-06
4.35917e-06
4.35941e-06
9.7796e-06
9.77941e-06
4.35915e-06
1.94422e-05
1.94435e-05
1.94446e-05
1.9446e-05
1.39499e-06
5.80361e-06
5.80543e-06
5.8039e-06
5.8057e-06
1.94436e-05
1.94423e-05
1.9446e-05
1.94447e-05
1.94402e-05
1.94414e-05
1.94436e-05
1.94447e-05
5.80389e-06
5.80573e-06
1.39282e-06
5.80354e-06
5.80539e-06
1.94411e-05
1.944e-05
1.94444e-05
1.94434e-05
1.39494e-06
5.80347e-06
5.80531e-06
5.80386e-06
5.80568e-06
4.35887e-06
9.77813e-06
4.35903e-06
9.77829e-06
2.33654e-06
3.75286e-06
8.02765e-07
1.09549e-06
2.33685e-06
3.75244e-06
8.0277e-07
2.33648e-06
3.7533e-06
8.02722e-07
1.09542e-06
2.33679e-06
3.75285e-06
8.02727e-07
4.35905e-06
9.77799e-06
9.77789e-06
4.35887e-06
4.35899e-06
9.77818e-06
9.77807e-06
4.35881e-06
2.33682e-06
1.09549e-06
3.75239e-06
8.02768e-07
3.75283e-06
8.02772e-07
2.33647e-06
2.33677e-06
1.09542e-06
3.75281e-06
8.02726e-07
3.75328e-06
8.0273e-07
2.33642e-06
5.80548e-06
5.80403e-06
1.3928e-06
5.80509e-06
5.80372e-06
1.94413e-05
1.94426e-05
1.94436e-05
1.94423e-05
1.39493e-06
5.80505e-06
5.80369e-06
5.80548e-06
5.80403e-06
1.94424e-05
1.94413e-05
2.33656e-06
3.75343e-06
8.02753e-07
1.09529e-06
2.33688e-06
3.75302e-06
8.02756e-07
4.35894e-06
9.77898e-06
4.35911e-06
9.77912e-06
2.33651e-06
8.0281e-07
3.75334e-06
1.09552e-06
2.33683e-06
8.02814e-07
3.75294e-06
4.35912e-06
9.7794e-06
9.77934e-06
4.35893e-06
2.33686e-06
1.09528e-06
3.75295e-06
8.02754e-07
3.75339e-06
8.02759e-07
2.33648e-06
4.35906e-06
9.779e-06
9.77891e-06
4.35887e-06
2.33681e-06
1.09553e-06
8.02813e-07
3.75289e-06
8.02817e-07
3.75331e-06
2.33643e-06
4.35913e-06
9.77868e-06
4.35935e-06
9.77887e-06
2.33658e-06
8.02853e-07
3.75297e-06
1.09556e-06
2.33691e-06
8.02858e-07
3.75256e-06
4.359e-06
9.77864e-06
4.35916e-06
9.77882e-06
2.33691e-06
1.09535e-06
3.75257e-06
8.02805e-07
3.753e-06
8.028e-07
2.33658e-06
4.35932e-06
9.7788e-06
9.77866e-06
4.35909e-06
2.33687e-06
1.09556e-06
8.02857e-07
3.75252e-06
8.02861e-07
3.75295e-06
2.33654e-06
4.35914e-06
9.77873e-06
9.77861e-06
4.35896e-06
5.8055e-06
5.80402e-06
1.39289e-06
5.80518e-06
5.8037e-06
1.94412e-05
1.94425e-05
1.94449e-05
1.94437e-05
1.39502e-06
5.80515e-06
5.80368e-06
5.80548e-06
5.80402e-06
1.94424e-05
1.94412e-05
2.33656e-06
8.02838e-07
3.75349e-06
1.09537e-06
2.33691e-06
8.02842e-07
3.75309e-06
4.35915e-06
9.77885e-06
4.35937e-06
9.77902e-06
4.35913e-06
9.77941e-06
4.35941e-06
9.77957e-06
2.33693e-06
1.09545e-06
8.02891e-07
3.75259e-06
8.02892e-07
3.753e-06
2.33661e-06
2.33687e-06
1.09537e-06
8.02843e-07
3.75304e-06
8.02846e-07
3.75346e-06
2.33654e-06
4.35934e-06
9.77895e-06
9.77882e-06
4.35911e-06
4.35938e-06
9.77948e-06
9.77936e-06
4.35908e-06
1.94423e-05
1.94435e-05
1.94447e-05
1.94459e-05
1.39506e-06
5.80356e-06
5.80536e-06
5.80392e-06
5.80572e-06
1.94433e-05
1.94422e-05
1.94457e-05
1.94446e-05
1.94398e-05
1.94407e-05
1.94431e-05
1.9444e-05
5.80378e-06
5.80558e-06
1.39268e-06
5.80331e-06
5.80514e-06
1.944e-05
1.94392e-05
1.94433e-05
1.94425e-05
1.39483e-06
5.80303e-06
5.80487e-06
5.80358e-06
5.80539e-06
4.35874e-06
9.77794e-06
4.35893e-06
9.77799e-06
2.33644e-06
3.75276e-06
8.02763e-07
1.09546e-06
2.33676e-06
3.75229e-06
8.02762e-07
2.33638e-06
3.75322e-06
8.02721e-07
1.0954e-06
2.33671e-06
3.75272e-06
8.02721e-07
4.3589e-06
9.77745e-06
9.77751e-06
4.35867e-06
4.35885e-06
9.77769e-06
9.77772e-06
4.35862e-06
2.33673e-06
1.09546e-06
3.75215e-06
8.02765e-07
3.75266e-06
8.02764e-07
2.33637e-06
2.33668e-06
1.0954e-06
3.75259e-06
8.02724e-07
3.75313e-06
8.02723e-07
2.33632e-06
5.80542e-06
5.80398e-06
1.39269e-06
5.80489e-06
5.80357e-06
1.94411e-05
1.94421e-05
1.94425e-05
1.94416e-05
1.39484e-06
5.80461e-06
5.80331e-06
5.80523e-06
5.80384e-06
1.94415e-05
1.94407e-05
2.33645e-06
3.75331e-06
8.02748e-07
1.09526e-06
2.33678e-06
3.75286e-06
8.02746e-07
4.35878e-06
9.77877e-06
4.35898e-06
9.77881e-06
2.3364e-06
8.02808e-07
3.75326e-06
1.09551e-06
2.33673e-06
8.02807e-07
3.75282e-06
4.35895e-06
9.77883e-06
9.77889e-06
4.35871e-06
2.33675e-06
1.09525e-06
3.75272e-06
8.02748e-07
3.7532e-06
8.02748e-07
2.33638e-06
4.35888e-06
9.77849e-06
9.77855e-06
4.35865e-06
2.3367e-06
1.09551e-06
8.02809e-07
3.75269e-06
8.02808e-07
3.75317e-06
2.33633e-06
4.35901e-06
9.77857e-06
4.35927e-06
9.77863e-06
2.33649e-06
8.02853e-07
3.75289e-06
1.09553e-06
2.33683e-06
8.02851e-07
3.75242e-06
4.35888e-06
9.7785e-06
4.35908e-06
9.77852e-06
2.33681e-06
1.09533e-06
3.75236e-06
8.02798e-07
3.75286e-06
8.02793e-07
2.33645e-06
4.35919e-06
9.77832e-06
9.77837e-06
4.35887e-06
2.33677e-06
1.09553e-06
8.02852e-07
3.75228e-06
8.02852e-07
3.75279e-06
2.33641e-06
4.35899e-06
9.77818e-06
9.77825e-06
4.35874e-06
5.80544e-06
5.80399e-06
1.39279e-06
5.80507e-06
5.8036e-06
1.9441e-05
1.94421e-05
1.9444e-05
1.94432e-05
1.39495e-06
5.80483e-06
5.80336e-06
5.80533e-06
5.80388e-06
1.94415e-05
1.94407e-05
2.33647e-06
8.02838e-07
3.75341e-06
1.09535e-06
2.33684e-06
8.02836e-07
3.75295e-06
4.35903e-06
9.77873e-06
4.35929e-06
9.77879e-06
4.359e-06
9.77924e-06
4.35933e-06
9.77928e-06
2.33684e-06
1.09543e-06
8.02887e-07
3.75239e-06
8.02886e-07
3.75289e-06
2.33649e-06
2.33677e-06
1.09534e-06
8.02838e-07
3.75281e-06
8.02837e-07
3.75331e-06
2.33643e-06
4.35921e-06
9.77848e-06
9.77854e-06
4.35891e-06
4.35925e-06
9.77896e-06
9.77902e-06
4.35888e-06
1.94419e-05
1.94429e-05
1.94443e-05
1.94453e-05
1.39496e-06
5.80311e-06
5.80494e-06
5.80365e-06
5.80546e-06
1.94422e-05
1.94414e-05
1.94446e-05
1.94438e-05
1.94385e-05
1.94394e-05
1.94418e-05
1.94427e-05
5.80328e-06
5.8051e-06
1.39254e-06
5.80276e-06
5.8046e-06
1.94391e-05
1.9438e-05
1.94424e-05
1.94413e-05
1.39469e-06
5.80264e-06
5.80447e-06
5.80305e-06
5.80486e-06
4.35849e-06
9.7774e-06
4.35872e-06
9.77734e-06
2.33627e-06
3.75251e-06
8.02759e-07
1.09542e-06
2.33665e-06
3.75202e-06
8.02751e-07
2.33622e-06
3.75299e-06
8.02718e-07
1.09536e-06
2.3366e-06
3.75246e-06
8.0271e-07
4.35864e-06
9.77681e-06
9.77681e-06
4.35843e-06
4.35859e-06
9.77706e-06
9.77706e-06
4.35839e-06
2.33656e-06
1.09542e-06
3.75194e-06
8.02748e-07
3.75239e-06
8.02748e-07
2.33625e-06
2.33651e-06
1.09535e-06
3.75237e-06
8.02706e-07
3.75286e-06
8.02707e-07
2.3362e-06
5.80494e-06
5.80355e-06
1.39255e-06
5.80435e-06
5.80303e-06
1.944e-05
1.94408e-05
1.94415e-05
1.94403e-05
1.3947e-06
5.8042e-06
5.80288e-06
5.8047e-06
5.80329e-06
1.94405e-05
1.94394e-05
2.33627e-06
3.75306e-06
8.02742e-07
1.09522e-06
2.33666e-06
3.75258e-06
8.02735e-07
4.35851e-06
9.7782e-06
4.35875e-06
9.77808e-06
2.33622e-06
8.02802e-07
3.75303e-06
1.09546e-06
2.33661e-06
8.02793e-07
3.75252e-06