/*--------------------------------*- C++ -*----------------------------------*\
| =========                 |                                                 |
| \\      /  F ield         | OpenFOAM: The Open Source CFD Toolbox           |
|  \\    /   O peration     | Version:  2312                                  |
|   \\  /    A nd           | Website:  www.openfoam.com                      |
|    \\/     M anipulation  |                                                 |
\*---------------------------------------------------------------------------*/
FoamFile
{
    version     2.0;
    format      ascii;
    arch        "LSB;label=32;scalar=64";
    class       volScalarField;
    location    "250";
    object      k;
}
// * * * * * * * * * * * * * * * * * * * * * * * * * * * * * * * * * * * * * //

dimensions      [0 2 -2 0 0 0 0];

internalField   nonuniform List<scalar> 
42840
(
1.4613e-05
1.62903e-05
1.62906e-05
1.8728e-05
1.43367e-05
1.65187e-05
1.65192e-05
1.9428e-05
1.41065e-05
1.68344e-05
1.68349e-05
2.02206e-05
1.3922e-05
1.72342e-05
1.72348e-05
2.1094e-05
1.37829e-05
1.77146e-05
1.77152e-05
2.20354e-05
1.36891e-05
1.82714e-05
1.82724e-05
2.30308e-05
1.36407e-05
1.89007e-05
1.89018e-05
2.4065e-05
1.36375e-05
1.95973e-05
1.95979e-05
2.51261e-05
1.36799e-05
2.03549e-05
2.03567e-05
2.62033e-05
1.37685e-05
2.11683e-05
2.11703e-05
2.7283e-05
1.39034e-05
2.20323e-05
2.20338e-05
2.83618e-05
1.40838e-05
2.29391e-05
2.29409e-05
2.94296e-05
1.43093e-05
2.38806e-05
2.38831e-05
3.04858e-05
1.45842e-05
2.48554e-05
2.48579e-05
3.1522e-05
1.49062e-05
2.58544e-05
2.58568e-05
3.25384e-05
1.52747e-05
2.6871e-05
2.68737e-05
3.35335e-05
1.56866e-05
2.78988e-05
2.79027e-05
3.45044e-05
1.61429e-05
2.89322e-05
2.89346e-05
3.54522e-05
1.66455e-05
2.99673e-05
2.99709e-05
3.63727e-05
1.71872e-05
3.09991e-05
3.10031e-05
3.72716e-05
1.77727e-05
3.20262e-05
3.20296e-05
3.81429e-05
1.83879e-05
3.30305e-05
3.30346e-05
3.89852e-05
1.90544e-05
3.40407e-05
3.40451e-05
3.98204e-05
1.97329e-05
3.50085e-05
3.50113e-05
4.05996e-05
2.04611e-05
3.59718e-05
3.59785e-05
4.13922e-05
1.87267e-05
1.92753e-05
1.62903e-05
1.62906e-05
1.64536e-05
1.6454e-05
1.8727e-05
1.92754e-05
1.62905e-05
1.62911e-05
1.64537e-05
1.64545e-05
1.62909e-05
1.64534e-05
1.64541e-05
1.87278e-05
1.92757e-05
1.62914e-05
1.64539e-05
1.64546e-05
1.92759e-05
1.94271e-05
2.00486e-05
1.65189e-05
1.65193e-05
1.67478e-05
1.67483e-05
1.94272e-05
2.00488e-05
1.6519e-05
1.65199e-05
1.67478e-05
1.67489e-05
1.65196e-05
1.67474e-05
1.67484e-05
1.94278e-05
2.00489e-05
1.65199e-05
1.6748e-05
1.67487e-05
2.00496e-05
2.02198e-05
2.0905e-05
1.68349e-05
1.68352e-05
1.71268e-05
1.71275e-05
2.02198e-05
2.09056e-05
1.68348e-05
1.6836e-05
1.71266e-05
1.71281e-05
1.68356e-05
1.71264e-05
1.71276e-05
2.02201e-05
2.09059e-05
1.68357e-05
1.7127e-05
1.71277e-05
2.09068e-05
2.10925e-05
2.18325e-05
1.72348e-05
1.72353e-05
1.75876e-05
1.75882e-05
2.10931e-05
2.18325e-05
1.72345e-05
1.72361e-05
1.75872e-05
1.7589e-05
1.72356e-05
1.75869e-05
1.75887e-05
2.10934e-05
2.18334e-05
1.72356e-05
1.75876e-05
1.75885e-05
2.18347e-05
2.20334e-05
2.28164e-05
1.77153e-05
1.7716e-05
1.81263e-05
1.81268e-05
2.20337e-05
2.28161e-05
1.77148e-05
1.77167e-05
1.81257e-05
1.81279e-05
1.77163e-05
1.81252e-05
1.81276e-05
2.20342e-05
2.28176e-05
1.7716e-05
1.81264e-05
1.81272e-05
2.28185e-05
2.30287e-05
2.38415e-05
1.82726e-05
1.8273e-05
1.87382e-05
1.87389e-05
2.30283e-05
2.38421e-05
1.82718e-05
1.82742e-05
1.87372e-05
1.87398e-05
1.82739e-05
1.87371e-05
1.87394e-05
2.30297e-05
2.38428e-05
1.82733e-05
1.8738e-05
1.87386e-05
2.38437e-05
2.40632e-05
2.4896e-05
1.89019e-05
1.89025e-05
1.94186e-05
1.94192e-05
2.40635e-05
2.48958e-05
1.89009e-05
1.89038e-05
1.94173e-05
1.94202e-05
1.89035e-05
1.94171e-05
1.94198e-05
2.40643e-05
2.48975e-05
1.89025e-05
1.94182e-05
1.94187e-05
2.48988e-05
2.51242e-05
2.59671e-05
1.95985e-05
1.95993e-05
2.01616e-05
2.01618e-05
2.51243e-05
2.59667e-05
1.95972e-05
1.96001e-05
2.01599e-05
2.01639e-05
1.95999e-05
2.01596e-05
2.01636e-05
2.51252e-05
2.59697e-05
1.95985e-05
2.01619e-05
2.0162e-05
2.5971e-05
2.61999e-05
2.70457e-05
2.03568e-05
2.03572e-05
2.09617e-05
2.09623e-05
2.61991e-05
2.70464e-05
2.03552e-05
2.03589e-05
2.09597e-05
2.09634e-05
2.03585e-05
2.09599e-05
2.09638e-05
2.62024e-05
2.70464e-05
2.03568e-05
2.09613e-05
2.09619e-05
2.70485e-05
2.72797e-05
2.81248e-05
2.11702e-05
2.11707e-05
2.18138e-05
2.1814e-05
2.72801e-05
2.81245e-05
2.11683e-05
2.11726e-05
2.18115e-05
2.18154e-05
2.11727e-05
2.18116e-05
2.18156e-05
2.7281e-05
2.81264e-05
2.11705e-05
2.18132e-05
2.18132e-05
2.81271e-05
2.83597e-05
2.91927e-05
2.20344e-05
2.20348e-05
2.271e-05
2.27103e-05
2.83595e-05
2.9193e-05
2.20321e-05
2.20361e-05
2.27073e-05
2.27124e-05
2.20368e-05
2.27079e-05
2.27124e-05
2.83604e-05
2.91959e-05
2.20342e-05
2.27102e-05
2.27096e-05
2.91966e-05
2.94272e-05
3.02502e-05
2.2941e-05
2.29416e-05
2.36465e-05
2.36459e-05
2.94274e-05
3.02493e-05
2.29384e-05
2.29431e-05
2.36436e-05
2.36482e-05
2.29431e-05
2.36434e-05
2.3649e-05
2.94298e-05
3.02512e-05
2.29401e-05
2.36459e-05
2.36457e-05
3.02535e-05
3.04822e-05
3.12899e-05
2.38831e-05
2.38829e-05
2.46148e-05
2.46152e-05
3.0481e-05
3.12913e-05
2.38803e-05
2.38854e-05
2.46114e-05
2.46167e-05
2.38864e-05
2.46126e-05
2.46174e-05
3.04837e-05
3.12924e-05
2.38828e-05
2.46147e-05
2.46139e-05
3.12934e-05
3.15194e-05
3.23097e-05
2.48581e-05
2.48583e-05
2.56056e-05
2.5605e-05
3.15202e-05
3.23085e-05
2.4855e-05
2.48601e-05
2.56022e-05
2.56077e-05
2.48606e-05
2.56031e-05
2.5609e-05
3.15212e-05
3.23115e-05
2.48569e-05
2.56058e-05
2.56048e-05
3.23129e-05
3.25352e-05
3.33094e-05
2.58565e-05
2.58562e-05
2.6619e-05
2.66187e-05
3.25346e-05
3.33097e-05
2.58531e-05
2.58584e-05
2.66153e-05
2.66208e-05
2.58603e-05
2.66155e-05
2.66214e-05
3.2537e-05
3.33115e-05
2.58558e-05
2.66188e-05
2.66174e-05
3.33127e-05
3.35308e-05
3.42845e-05
2.68735e-05
2.68735e-05
2.76436e-05
2.76429e-05
3.35308e-05
3.42847e-05
2.687e-05
2.68755e-05
2.76397e-05
2.76454e-05
2.68768e-05
2.76411e-05
2.76469e-05
3.35328e-05
3.42864e-05
2.68722e-05
2.76439e-05
2.76421e-05
3.42878e-05
3.45021e-05
3.52372e-05
2.79028e-05
2.79016e-05
2.86771e-05
2.86758e-05
3.45014e-05
3.52361e-05
2.78991e-05
2.79042e-05
2.8673e-05
2.86791e-05
2.79049e-05
2.86743e-05
2.86815e-05
3.45034e-05
3.52399e-05
2.79008e-05
2.86779e-05
2.86762e-05
3.52411e-05
3.54478e-05
3.61641e-05
2.89333e-05
2.8933e-05
2.97123e-05
2.9712e-05
3.54481e-05
3.61651e-05
2.89291e-05
2.89354e-05
2.97082e-05
2.97136e-05
2.89388e-05
2.97096e-05
2.97147e-05
3.5451e-05
3.61654e-05
2.89327e-05
2.97123e-05
2.97099e-05
3.61661e-05
3.63716e-05
3.70683e-05
2.99713e-05
2.99698e-05
3.07463e-05
3.07438e-05
3.63707e-05
3.70661e-05
2.99673e-05
2.99723e-05
3.07419e-05
3.07478e-05
2.99733e-05
3.07424e-05
3.075e-05
3.63721e-05
3.7071e-05
2.99687e-05
3.07474e-05
3.07449e-05
3.70719e-05
3.7268e-05
3.79431e-05
3.10019e-05
3.10004e-05
3.17721e-05
3.17712e-05
3.72673e-05
3.79439e-05
3.09974e-05
3.10036e-05
3.17676e-05
3.17735e-05
3.10058e-05
3.177e-05
3.17756e-05
3.7271e-05
3.79453e-05
3.10005e-05
3.17729e-05
3.17702e-05
3.79463e-05
3.81403e-05
3.87953e-05
3.20289e-05
3.20275e-05
3.27848e-05
3.27824e-05
3.81402e-05
3.87939e-05
3.20245e-05
3.20302e-05
3.27803e-05
3.27856e-05
3.20325e-05
3.27808e-05
3.27878e-05
3.81421e-05
3.87969e-05
3.20269e-05
3.27856e-05
3.27826e-05
3.87977e-05
3.8983e-05
3.96332e-05
3.30339e-05
3.30315e-05
3.37979e-05
3.37961e-05
3.89818e-05
3.9633e-05
3.30293e-05
3.30347e-05
3.37933e-05
3.3799e-05
3.30367e-05
3.37955e-05
3.38015e-05
3.89848e-05
3.96356e-05
3.30314e-05
3.37992e-05
3.37961e-05
3.96364e-05
3.98173e-05
4.04133e-05
3.40441e-05
3.4042e-05
3.47565e-05
3.47534e-05
3.98172e-05
4.04119e-05
3.40395e-05
3.40451e-05
3.47518e-05
3.47576e-05
3.40478e-05
3.47534e-05
3.4759e-05
3.98194e-05
4.04159e-05
3.40424e-05
3.47578e-05
3.47539e-05
4.04155e-05
4.05976e-05
4.12293e-05
3.50098e-05
3.50072e-05
3.57532e-05
3.575e-05
4.05963e-05
4.12286e-05
3.50051e-05
3.5011e-05
3.57485e-05
3.57535e-05
3.50128e-05
3.57477e-05
3.5756e-05
4.06005e-05
4.12305e-05
3.50072e-05
3.57543e-05
3.5751e-05
4.12321e-05
4.139e-05
3.59782e-05
3.59749e-05
4.13889e-05
3.59734e-05
3.59781e-05
3.598e-05
4.13905e-05
3.59752e-05
5.48577e-05
7.00957e-05
7.01194e-05
5.43377e-05
6.95552e-05
6.95365e-05
5.48575e-05
7.00969e-05
7.01205e-05
5.43374e-05
1.46131e-05
1.46131e-05
1.46132e-05
1.44013e-05
1.44013e-05
1.44014e-05
1.44015e-05
3.10942e-05
4.64274e-05
1.47386e-05
1.6339e-05
4.68263e-05
1.47053e-05
3.05318e-05
6.95555e-05
6.95364e-05
3.10995e-05
1.47388e-05
4.64237e-05
1.63394e-05
1.47055e-05
4.68324e-05
3.05295e-05
5.96675e-05
5.96767e-05
1.89236e-05
5.99191e-05
5.99284e-05
5.59564e-05
7.0148e-05
5.55226e-05
7.01687e-05
6.94886e-05
6.94714e-05
5.59563e-05
7.01492e-05
5.55221e-05
7.01699e-05
1.43368e-05
1.43368e-05
1.43369e-05
1.41596e-05
1.41597e-05
1.41598e-05
1.41599e-05
3.27716e-05
4.75452e-05
1.4636e-05
1.65893e-05
3.22124e-05
4.7916e-05
1.46198e-05
6.9489e-05
6.94714e-05
3.27769e-05
1.46362e-05
4.75421e-05
1.65898e-05
3.22098e-05
1.46201e-05
4.79216e-05
6.0255e-05
6.0264e-05
1.9652e-05
6.04779e-05
6.04872e-05
5.68727e-05
7.01936e-05
5.65093e-05
7.02116e-05
6.94278e-05
6.94121e-05
5.68725e-05
7.01948e-05
5.65084e-05
7.02128e-05
1.41066e-05
1.41067e-05
1.41068e-05
1.39636e-05
1.39637e-05
1.39639e-05
1.3964e-05
3.43868e-05
4.85678e-05
1.46033e-05
1.69263e-05
3.38398e-05
4.89136e-05
1.46057e-05
6.94282e-05
6.94121e-05
3.43916e-05
1.46036e-05
4.85646e-05
1.6927e-05
3.38375e-05
1.46061e-05
4.89195e-05
6.07798e-05
6.07887e-05
2.04698e-05
6.09805e-05
6.09896e-05
5.76426e-05
7.02335e-05
5.73341e-05
7.02496e-05
6.93727e-05
6.93587e-05
5.76419e-05
7.02347e-05
5.73332e-05
7.02509e-05
1.39221e-05
1.39222e-05
1.39224e-05
1.38131e-05
1.38133e-05
1.38135e-05
1.38136e-05
3.59184e-05
4.95028e-05
1.46384e-05
1.73467e-05
3.53898e-05
4.98276e-05
1.46584e-05
6.9373e-05
6.93587e-05
3.5923e-05
1.46389e-05
4.94986e-05
1.73476e-05
3.53879e-05
1.46588e-05
4.98341e-05
6.12507e-05
6.12596e-05
2.13638e-05
6.14352e-05
6.14442e-05
5.82954e-05
7.02684e-05
5.80321e-05
7.02836e-05
6.9323e-05
6.9311e-05
5.82946e-05
7.02697e-05
5.80316e-05
7.02849e-05
1.3783e-05
1.37832e-05
1.37834e-05
1.3708e-05
1.37081e-05
1.37084e-05
1.37086e-05
3.73531e-05
5.0359e-05
1.47435e-05
1.78469e-05
3.68484e-05
5.06664e-05
1.47808e-05
6.93232e-05
6.93111e-05
3.73572e-05
1.47442e-05
5.0354e-05
1.78478e-05
3.68468e-05
1.47813e-05
5.06723e-05
6.16776e-05
6.16863e-05
2.23205e-05
6.18471e-05
6.1856e-05
5.88591e-05
7.03006e-05
5.86328e-05
7.03145e-05
6.92789e-05
6.92689e-05
5.88585e-05
7.03019e-05
5.8632e-05
7.03158e-05
1.36892e-05
1.36896e-05
1.36898e-05
1.3648e-05
1.36482e-05
1.36485e-05
1.36487e-05
3.86875e-05
5.11459e-05
1.49174e-05
1.84223e-05
3.82091e-05
5.14374e-05
1.49718e-05
6.9279e-05
6.92689e-05
3.86914e-05
1.49182e-05
5.11419e-05
1.84233e-05
3.8208e-05
1.49724e-05
5.14427e-05
6.20691e-05
6.20779e-05
2.33265e-05
6.22242e-05
6.22332e-05
5.93554e-05
7.03312e-05
5.91557e-05
7.03443e-05
6.92407e-05
6.92327e-05
5.93547e-05
7.03324e-05
5.91547e-05
7.03456e-05
1.36408e-05
1.36413e-05
1.36415e-05
1.36346e-05
1.36347e-05
1.36352e-05
1.36354e-05
3.99239e-05
5.1874e-05
1.51591e-05
1.90684e-05
3.9471e-05
5.21489e-05
1.52303e-05
6.92409e-05
6.92327e-05
3.99266e-05
1.51601e-05
5.18703e-05
1.90701e-05
3.94699e-05
1.5231e-05
5.21543e-05
6.24294e-05
6.24379e-05
2.43685e-05
6.25737e-05
6.25825e-05
5.97986e-05
7.0361e-05
5.9618e-05
7.03739e-05
6.92086e-05
6.92023e-05
5.97976e-05
7.03623e-05
5.96173e-05
7.03751e-05
1.36377e-05
1.36382e-05
1.36384e-05
1.3665e-05
1.36651e-05
1.36658e-05
1.3666e-05
4.10674e-05
5.25503e-05
1.54676e-05
1.97808e-05
4.06377e-05
5.28109e-05
1.55553e-05
6.92085e-05
6.92024e-05
4.10691e-05
1.54687e-05
5.25467e-05
1.9782e-05
4.0638e-05
1.55561e-05
5.28131e-05
6.27635e-05
6.27721e-05
2.54322e-05
6.28984e-05
6.2907e-05
6.01981e-05
7.03908e-05
6.00324e-05
7.04047e-05
6.91821e-05
6.91781e-05
6.01973e-05
7.03921e-05
6.00318e-05
7.0406e-05
1.36801e-05
1.36808e-05
1.3681e-05
1.37418e-05
1.3742e-05
1.37427e-05
1.37429e-05
4.21233e-05
5.31785e-05
1.5841e-05
2.05535e-05
4.17173e-05
5.34285e-05
1.59447e-05
6.9182e-05
6.91779e-05
4.21257e-05
1.58424e-05
5.31793e-05
2.05547e-05
4.17177e-05
1.59456e-05
5.34276e-05
6.30778e-05
6.30865e-05
2.65097e-05
6.32021e-05
6.32109e-05
6.05631e-05
7.0422e-05
6.0413e-05
7.04364e-05
6.91614e-05
6.91598e-05
6.05625e-05
7.04232e-05
6.0412e-05
7.04377e-05
1.37688e-05
1.37695e-05
1.37698e-05
1.38646e-05
1.38649e-05
1.38656e-05
1.38659e-05
4.31034e-05
5.37683e-05
1.62779e-05
2.13795e-05
4.27218e-05
5.40036e-05
1.63966e-05
6.91617e-05
6.91597e-05
4.31056e-05
1.62795e-05
5.37697e-05
2.1382e-05
4.27215e-05
1.63977e-05
5.40062e-05
6.33744e-05
6.33828e-05
2.75891e-05
6.34922e-05
6.35009e-05
6.09023e-05
7.0455e-05
6.07618e-05
7.04707e-05
6.91469e-05
6.91473e-05
6.09013e-05
7.04563e-05
6.0761e-05
7.0472e-05
1.39037e-05
1.39045e-05
1.39049e-05
1.40342e-05
1.40346e-05
1.40355e-05
1.40357e-05
4.40167e-05
5.43255e-05
1.67756e-05
2.22541e-05
4.36548e-05
5.45454e-05
1.69087e-05
6.91468e-05
6.91474e-05
4.40182e-05
1.67774e-05
5.43239e-05
2.22561e-05
4.36545e-05
1.69098e-05
5.45474e-05
6.36542e-05
6.36627e-05
2.86639e-05
6.3769e-05
6.37776e-05
6.12205e-05
7.04912e-05
6.10888e-05
7.05076e-05
6.91384e-05
6.91408e-05
6.12196e-05
7.04925e-05
6.10881e-05
7.05089e-05
1.40843e-05
1.40852e-05
1.40854e-05
1.42522e-05
1.42524e-05
1.42535e-05
1.42538e-05
4.48728e-05
5.48509e-05
1.73311e-05
2.31716e-05
4.45291e-05
5.50603e-05
1.74799e-05
6.91382e-05
6.91407e-05
4.48744e-05
1.73331e-05
5.48511e-05
2.31734e-05
4.45298e-05
1.74812e-05
5.50605e-05
6.39211e-05
6.39297e-05
2.97256e-05
6.40317e-05
6.40406e-05
6.15196e-05
7.05297e-05
6.13937e-05
7.05484e-05
6.91357e-05
6.91406e-05
6.15187e-05
7.0531e-05
6.13933e-05
7.05495e-05
1.43097e-05
1.43109e-05
1.43113e-05
1.45156e-05
1.45161e-05
1.45173e-05
1.45175e-05
4.56781e-05
5.5346e-05
1.79401e-05
2.41247e-05
4.53505e-05
5.55489e-05
1.81065e-05
6.91357e-05
6.91403e-05
4.56785e-05
1.79423e-05
5.53483e-05
2.41271e-05
4.53513e-05
1.81077e-05
5.55498e-05
6.41815e-05
6.41893e-05
3.07765e-05
6.42864e-05
6.42955e-05
6.18052e-05
7.05723e-05
6.16889e-05
7.05908e-05
6.91385e-05
6.91451e-05
6.18059e-05
7.05739e-05
6.16877e-05
7.05923e-05
1.45846e-05
1.45859e-05
1.45861e-05
1.48229e-05
1.48234e-05
1.48248e-05
1.48251e-05
4.64393e-05
5.58214e-05
1.86039e-05
2.51044e-05
4.61308e-05
5.60104e-05
1.87821e-05
6.91386e-05
6.91452e-05
4.64408e-05
1.86065e-05
5.58235e-05
2.51074e-05
4.61332e-05
1.8784e-05
5.60134e-05
6.44292e-05
6.44374e-05
3.18053e-05
6.4531e-05
6.45391e-05
6.20865e-05
7.06193e-05
6.19645e-05
7.0641e-05
6.91474e-05
6.91564e-05
6.20842e-05
7.06202e-05
6.1963e-05
7.06424e-05
1.49068e-05
1.49082e-05
1.49087e-05
1.51776e-05
1.5178e-05
1.51795e-05
1.51798e-05
4.71684e-05
5.62744e-05
1.93179e-05
2.6108e-05
4.68716e-05
5.64579e-05
1.95055e-05
6.91472e-05
6.9156e-05
4.71701e-05
1.932e-05
5.62759e-05
2.61107e-05
4.68713e-05
1.95072e-05
5.64608e-05
6.46698e-05
6.46787e-05
3.28158e-05
6.47715e-05
6.47789e-05
6.23448e-05
7.06668e-05
6.22377e-05
7.06918e-05
6.91609e-05
6.91716e-05
6.23445e-05
7.06683e-05
6.22379e-05
7.06929e-05
1.52754e-05
1.52768e-05
1.52773e-05
1.55792e-05
1.55798e-05
1.55816e-05
1.55818e-05
4.78615e-05
5.67058e-05
2.00774e-05
2.71267e-05
4.75776e-05
5.68835e-05
2.02719e-05
6.9161e-05
6.91716e-05
4.78605e-05
2.00804e-05
5.67096e-05
2.71289e-05
4.75807e-05
2.02731e-05
5.68828e-05
6.49018e-05
6.49115e-05
3.38028e-05
6.50002e-05
6.50063e-05
6.2618e-05
7.07247e-05
6.25107e-05
7.07449e-05
6.91807e-05
6.91926e-05
6.26181e-05
7.07264e-05
6.25098e-05
7.07462e-05
1.5687e-05
1.56888e-05
1.56891e-05
1.60266e-05
1.6027e-05
1.60292e-05
1.60296e-05
4.8528e-05
5.71252e-05
2.08763e-05
2.81564e-05
4.82612e-05
5.72892e-05
2.10829e-05
6.91806e-05
6.91924e-05
4.85371e-05
2.08799e-05
5.7131e-05
2.81612e-05
4.82624e-05
2.10865e-05
5.72979e-05
6.51325e-05
6.51437e-05
3.47679e-05
6.52228e-05
6.52348e-05
6.28772e-05
7.07818e-05
6.27551e-05
7.08093e-05
6.92046e-05
6.92194e-05
6.28753e-05
7.07827e-05
6.27525e-05
7.08113e-05
1.61437e-05
1.61456e-05
1.61463e-05
1.65156e-05
1.65165e-05
1.65182e-05
1.65185e-05
4.91794e-05
5.7528e-05
2.17122e-05
2.91931e-05
4.89124e-05
5.76894e-05
2.19297e-05
6.92044e-05
6.92189e-05
4.91744e-05
2.17139e-05
5.75244e-05
2.91951e-05
4.89063e-05
2.19301e-05
5.76924e-05
6.5358e-05
6.53607e-05
3.57065e-05
6.54439e-05
6.54541e-05
6.31299e-05
7.08441e-05
6.30272e-05
7.08712e-05
6.92331e-05
6.92491e-05
6.31288e-05
7.08455e-05
6.3029e-05
7.08722e-05
1.66461e-05
1.66481e-05
1.66484e-05
1.70499e-05
1.705e-05
1.70528e-05
1.70532e-05
4.97975e-05
5.79109e-05
2.25831e-05
3.02256e-05
4.95403e-05
5.80708e-05
2.28052e-05
6.92336e-05
6.92493e-05
4.97999e-05
2.25873e-05
5.79161e-05
3.02303e-05
4.95491e-05
2.28086e-05
5.80744e-05
6.55702e-05
6.55796e-05
3.6623e-05
6.56658e-05
6.56731e-05
6.33847e-05
7.09096e-05
6.32756e-05
7.09396e-05
6.92666e-05
6.92844e-05
6.33848e-05
7.09113e-05
6.32735e-05
7.09411e-05
1.71876e-05
1.71903e-05
1.71907e-05
1.76208e-05
1.76219e-05
1.7624e-05
1.76244e-05
5.03973e-05
5.82856e-05
2.34808e-05
3.12568e-05
5.01537e-05
5.84369e-05
2.37117e-05
6.92663e-05
6.9284e-05
5.03986e-05
2.34842e-05
5.82889e-05
3.12602e-05
5.01523e-05
2.3714e-05
5.84386e-05
6.57819e-05
6.57906e-05
3.75103e-05
6.58674e-05
6.58758e-05
6.36404e-05
7.09807e-05
6.35329e-05
7.10116e-05
6.93042e-05
6.93232e-05
6.36392e-05
7.09821e-05
6.35325e-05
7.1013e-05
1.77736e-05
1.77759e-05
1.77764e-05
1.82332e-05
1.82334e-05
1.82365e-05
1.82369e-05
5.09839e-05
5.86475e-05
2.44063e-05
3.22805e-05
5.07436e-05
5.87964e-05
2.46414e-05
6.93048e-05
6.93235e-05
5.0985e-05
2.44094e-05
5.86505e-05
3.22842e-05
5.07445e-05
2.46437e-05
5.88005e-05
6.59937e-05
6.60018e-05
3.83791e-05
6.60807e-05
6.60888e-05
6.38895e-05
7.10527e-05
6.37822e-05
7.10878e-05
6.93448e-05
6.93679e-05
6.38888e-05
7.10542e-05
6.37812e-05
7.10893e-05
1.83883e-05
1.83913e-05
1.83915e-05
1.88851e-05
1.88861e-05
1.88887e-05
1.88891e-05
5.15446e-05
5.89907e-05
2.53458e-05
3.32857e-05
5.13137e-05
5.91369e-05
2.55882e-05
6.93454e-05
6.93686e-05
5.15463e-05
2.53497e-05
5.89944e-05
3.32901e-05
5.13155e-05
2.55912e-05
5.91401e-05
6.61853e-05
6.61942e-05
3.92149e-05
6.62798e-05
6.62886e-05
6.41333e-05
7.11311e-05
6.40421e-05
7.11569e-05
6.93893e-05
6.9407e-05
6.41329e-05
7.11327e-05
6.40414e-05
7.11584e-05
1.90548e-05
1.9058e-05
1.90587e-05
1.95537e-05
1.95543e-05
1.95576e-05
1.95577e-05
5.2091e-05
5.93444e-05
2.63195e-05
3.42776e-05
5.18751e-05
5.94577e-05
2.65581e-05
6.93903e-05
6.94083e-05
5.20929e-05
2.63236e-05
5.93472e-05
3.42825e-05
5.18759e-05
2.65618e-05
5.94631e-05
6.64053e-05
6.6413e-05
4.00296e-05
6.64482e-05
6.64575e-05
6.44036e-05
7.12133e-05
6.42667e-05
7.12562e-05
6.94454e-05
6.94695e-05
6.44022e-05
7.12147e-05
6.42659e-05
7.12577e-05
1.97342e-05
1.97369e-05
1.9737e-05
2.02818e-05
2.02813e-05
2.02858e-05
2.02861e-05
5.26267e-05
5.9646e-05
2.72821e-05
3.52649e-05
5.23895e-05
5.98281e-05
2.75366e-05
6.94462e-05
6.94706e-05
5.26253e-05
2.72846e-05
5.96458e-05
3.52676e-05
5.23889e-05
2.75382e-05
5.98263e-05
6.65898e-05
6.65969e-05
4.08381e-05
6.6724e-05
6.67305e-05
6.45984e-05
7.12854e-05
6.45399e-05
7.13142e-05
6.94801e-05
6.9509e-05
6.4599e-05
7.1287e-05
6.45394e-05
7.13158e-05
2.04607e-05
2.04651e-05
2.04651e-05
5.31097e-05
5.99681e-05
2.82794e-05
3.6191e-05
5.29329e-05
6.00479e-05
2.85187e-05
6.94816e-05
6.95089e-05
5.31144e-05
2.82855e-05
5.99837e-05
3.61955e-05
5.29398e-05
2.85237e-05
6.00531e-05
6.6749e-05
6.67604e-05
4.15632e-05
6.67544e-05
6.67651e-05
6.95539e-05
6.95349e-05
6.9556e-05
6.95371e-05
5.96661e-05
5.96765e-05
1.89216e-05
5.99258e-05
5.99359e-05
6.95015e-05
6.95202e-05
6.95036e-05
6.95223e-05
1.90639e-05
6.02106e-05
6.02203e-05
5.99738e-05
5.99839e-05
5.48564e-05
7.00924e-05
7.01161e-05
5.43365e-05
3.10952e-05
4.64211e-05
1.47384e-05
1.63391e-05
4.68349e-05
1.47051e-05
3.05297e-05
3.10951e-05
4.64241e-05
1.47383e-05
1.63395e-05
4.68364e-05
1.4705e-05
3.05288e-05
5.49557e-05
7.01447e-05
7.01228e-05
5.54333e-05
5.49544e-05
7.01414e-05
7.01196e-05
5.5432e-05
3.1374e-05
1.63938e-05
4.73914e-05
1.46536e-05
4.69949e-05
1.46784e-05
3.19404e-05
3.13728e-05
1.63942e-05
4.73928e-05
1.46535e-05
4.69992e-05
1.46783e-05
3.19403e-05
5.96703e-05
5.96658e-05
1.89213e-05
5.99303e-05
5.99253e-05
6.95539e-05
6.95353e-05
6.95028e-05
6.95218e-05
1.90635e-05
6.0215e-05
6.02104e-05
5.99792e-05
5.99745e-05
6.95017e-05
6.95205e-05
3.10949e-05
4.64251e-05
1.47385e-05
1.63393e-05
4.68381e-05
1.47052e-05
3.05311e-05
5.48566e-05
7.00925e-05
7.0116e-05
5.43365e-05
3.10946e-05
1.47384e-05
4.64255e-05
1.63398e-05
1.47052e-05
4.68367e-05
3.05307e-05
5.49554e-05
7.01459e-05
7.0124e-05
5.54328e-05
3.13753e-05
1.6394e-05
4.73946e-05
1.46538e-05
4.69986e-05
1.46785e-05
3.19398e-05
5.49544e-05
7.01416e-05
7.01195e-05
5.54318e-05
3.13749e-05
1.63946e-05
1.46537e-05
4.7395e-05
1.46785e-05
4.69968e-05
3.19394e-05
5.48578e-05
7.00951e-05
7.01188e-05
5.43376e-05
3.10955e-05
1.47385e-05
4.64252e-05
1.63396e-05
1.47053e-05
4.68298e-05
3.05301e-05
5.48568e-05
7.00917e-05
7.01152e-05
5.43366e-05
3.13762e-05
1.63937e-05
4.73839e-05
1.46539e-05
4.70019e-05
1.46786e-05
3.19392e-05
5.49558e-05
7.01439e-05
7.01225e-05
5.54331e-05
3.13745e-05
1.63942e-05
1.46538e-05
4.73896e-05
1.46786e-05
4.69939e-05
3.19404e-05
5.49547e-05
7.01408e-05
7.01187e-05
5.54321e-05
5.96731e-05
5.96673e-05
1.89222e-05
5.99298e-05
5.9924e-05
6.9554e-05
6.9535e-05
6.95032e-05
6.95218e-05
1.9064e-05
6.02173e-05
6.02115e-05
5.99778e-05
5.99723e-05
6.95017e-05
6.95203e-05
3.1096e-05
1.47388e-05
4.64258e-05
1.63401e-05
1.47056e-05
4.68371e-05
3.05315e-05
5.48587e-05
7.00956e-05
7.01191e-05
5.43384e-05
5.48576e-05
7.00931e-05
7.01164e-05
5.43376e-05
3.13739e-05
1.63939e-05
1.46541e-05
4.73908e-05
1.46788e-05
4.69952e-05
3.19438e-05
3.1376e-05
1.63946e-05
1.46541e-05
4.73965e-05
1.46788e-05
4.69943e-05
3.19402e-05
5.49562e-05
7.01446e-05
7.01226e-05
5.5433e-05
5.49553e-05
7.0142e-05
7.01199e-05
5.54318e-05
6.95541e-05
6.95348e-05
6.9556e-05
6.95366e-05
1.9065e-05
6.021e-05
6.02192e-05
5.99675e-05
5.99765e-05
6.95019e-05
6.95202e-05
6.95037e-05
6.95221e-05
6.94873e-05
6.94699e-05
6.94894e-05
6.94721e-05
6.02553e-05
6.02651e-05
1.96498e-05
6.04827e-05
6.04923e-05
6.94397e-05
6.94564e-05
6.94418e-05
6.94584e-05
1.98111e-05
6.07421e-05
6.07512e-05
6.05258e-05
6.05353e-05
5.59551e-05
7.01446e-05
5.55212e-05
7.01655e-05
3.27727e-05
4.75394e-05
1.46357e-05
1.65895e-05
3.22101e-05
4.79234e-05
1.46195e-05
3.27725e-05
4.75419e-05
1.46357e-05
1.659e-05
3.22088e-05
4.7925e-05
1.46194e-05
5.60374e-05
7.01909e-05
7.01716e-05
5.6435e-05
5.60361e-05
7.01876e-05
7.01684e-05
5.64337e-05
3.30315e-05
1.6666e-05
4.84348e-05
1.46029e-05
4.80613e-05
1.46106e-05
3.35894e-05
3.30303e-05
1.66665e-05
4.84359e-05
1.46028e-05
4.80652e-05
1.46105e-05
3.35892e-05
6.02591e-05
6.02549e-05
1.96499e-05
6.04871e-05
6.0482e-05
6.94872e-05
6.94702e-05
6.94411e-05
6.94579e-05
1.9811e-05
6.07461e-05
6.07412e-05
6.05309e-05
6.05261e-05
6.94398e-05
6.94565e-05
3.27724e-05
4.75432e-05
1.46359e-05
1.65896e-05
3.22112e-05
4.79266e-05
1.46197e-05
5.59553e-05
7.01448e-05
5.55211e-05
7.01654e-05
3.2772e-05
1.46359e-05
4.75437e-05
1.65905e-05
3.22108e-05
1.46197e-05
4.79253e-05
5.60371e-05
7.01921e-05
7.01728e-05
5.64341e-05
3.30329e-05
1.6666e-05
4.84377e-05
1.46031e-05
4.80649e-05
1.46108e-05
3.35886e-05
5.60361e-05
7.01878e-05
7.01684e-05
5.64331e-05
3.30324e-05
1.6667e-05
1.46031e-05
4.84373e-05
1.46108e-05
4.8063e-05
3.35882e-05
5.59563e-05
7.01473e-05
5.55224e-05
7.01679e-05
3.27728e-05
1.4636e-05
4.75425e-05
1.65902e-05
3.22106e-05
1.46198e-05
4.79197e-05
5.59554e-05
7.0144e-05
5.55214e-05
7.01646e-05
3.3034e-05
1.66658e-05
4.84273e-05
1.46032e-05
4.80682e-05
1.46109e-05
3.35882e-05
5.60374e-05
7.019e-05
7.0171e-05
5.64347e-05
3.30322e-05
1.66666e-05
1.46032e-05
4.84318e-05
1.46108e-05
4.80612e-05
3.35893e-05
5.60364e-05
7.0187e-05
7.01675e-05
5.64338e-05
6.0262e-05
6.02564e-05
1.9651e-05
6.04867e-05
6.04811e-05
6.94875e-05
6.94699e-05
6.94414e-05
6.94578e-05
1.98119e-05
6.07474e-05
6.07416e-05
6.05294e-05
6.0524e-05
6.94399e-05
6.94563e-05
3.27734e-05
1.46363e-05
4.75427e-05
1.65906e-05
3.22115e-05
1.46201e-05
4.79266e-05
5.59577e-05
7.01479e-05
5.55224e-05
7.01685e-05
5.59566e-05
7.01453e-05
5.55214e-05
7.0166e-05
3.30321e-05
1.66661e-05
1.46035e-05
4.84337e-05
1.46111e-05
4.80618e-05
3.35928e-05
3.30338e-05
1.66668e-05
1.46035e-05
4.84383e-05
1.46112e-05
4.80616e-05
3.35893e-05
5.60384e-05
7.01908e-05
7.01714e-05
5.64347e-05
5.60375e-05
7.01882e-05
7.01689e-05
5.64335e-05
6.94876e-05
6.94698e-05
6.94895e-05
6.94717e-05
1.98128e-05
6.07389e-05
6.07481e-05
6.05206e-05
6.05296e-05
6.94399e-05
6.94562e-05
6.94418e-05
6.94581e-05
6.94265e-05
6.94106e-05
6.94286e-05
6.94127e-05
6.07824e-05
6.07916e-05
2.04679e-05
6.0984e-05
6.09931e-05
6.93835e-05
6.9398e-05
6.93855e-05
6.94001e-05
2.06466e-05
6.12175e-05
6.12263e-05
6.1022e-05
6.10311e-05
5.68714e-05
7.01903e-05
5.6508e-05
7.02084e-05
3.4388e-05
4.85627e-05
1.4603e-05
1.69268e-05
3.38375e-05
4.89208e-05
1.46054e-05
3.43877e-05
4.85646e-05
1.46029e-05
1.69273e-05
3.38363e-05
4.89218e-05
1.46054e-05
5.69399e-05
7.02311e-05
7.0214e-05
5.72719e-05
5.69385e-05
7.02279e-05
7.02108e-05
5.72706e-05
3.46234e-05
1.70242e-05
4.93874e-05
1.46226e-05
4.90381e-05
1.46114e-05
3.51637e-05
3.46221e-05
1.70248e-05
4.93891e-05
1.46225e-05
4.90413e-05
1.46113e-05
3.51635e-05
6.07858e-05
6.07813e-05
2.04677e-05
6.0988e-05
6.09832e-05
6.94264e-05
6.94108e-05
6.93849e-05
6.93996e-05
2.06465e-05
6.12221e-05
6.12172e-05
6.10268e-05
6.10222e-05
6.93835e-05
6.93981e-05
3.43877e-05
4.85661e-05
1.46032e-05
1.69267e-05
3.38384e-05
4.89238e-05
1.46057e-05
5.68715e-05
7.01905e-05
5.65074e-05
7.02085e-05
3.43872e-05
1.46033e-05
4.8566e-05
1.6928e-05
3.38379e-05
1.46057e-05
4.89227e-05
5.69396e-05
7.02324e-05
7.02152e-05
5.72712e-05
3.46247e-05
1.7024e-05
4.93903e-05
1.46229e-05
4.90415e-05
1.46117e-05
3.51632e-05
5.69386e-05
7.0228e-05
7.02109e-05
5.72701e-05
3.46242e-05
1.70253e-05
1.46229e-05
4.93894e-05
1.46117e-05
4.904e-05
3.51627e-05
5.68724e-05
7.01928e-05
5.6509e-05
7.02108e-05
3.4388e-05
1.46033e-05
4.85643e-05
1.69276e-05
3.3838e-05
1.46057e-05
4.89178e-05
5.68716e-05
7.01897e-05
5.65081e-05
7.02076e-05
3.46259e-05
1.70238e-05
4.93811e-05
1.4623e-05
4.90447e-05
1.46117e-05
3.51627e-05
5.69397e-05
7.02302e-05
7.02133e-05
5.72718e-05
3.46241e-05
1.7025e-05
1.46229e-05
4.93842e-05
1.46118e-05
4.90389e-05
3.51637e-05
5.69388e-05
7.02272e-05
7.021e-05
5.72708e-05
6.0788e-05
6.07824e-05
2.04689e-05
6.09885e-05
6.0983e-05
6.94266e-05
6.94106e-05
6.9385e-05
6.93995e-05
2.06475e-05
6.12219e-05
6.12164e-05
6.10261e-05
6.10207e-05
6.93835e-05
6.93979e-05
3.43882e-05
1.46037e-05
4.85642e-05
1.69279e-05
3.3839e-05
1.46061e-05
4.89242e-05
5.68731e-05
7.01935e-05
5.65089e-05
7.02115e-05
5.68719e-05
7.0191e-05
5.65078e-05
7.0209e-05
3.4624e-05
1.70242e-05
1.46233e-05
4.93866e-05
1.46121e-05
4.90388e-05
3.51674e-05
3.46254e-05
1.7025e-05
1.46234e-05
4.93907e-05
1.46121e-05
4.90388e-05
3.5164e-05
5.69404e-05
7.02311e-05
7.02139e-05
5.72724e-05
5.69393e-05
7.02286e-05
7.02115e-05
5.72712e-05
6.94267e-05
6.94106e-05
6.94286e-05
6.94125e-05
2.06485e-05
6.12133e-05
6.12225e-05
6.10182e-05
6.1027e-05
6.93834e-05
6.93979e-05
6.93854e-05
6.93999e-05
6.93714e-05
6.93573e-05
6.93734e-05
6.93593e-05
6.12545e-05
6.12635e-05
2.1362e-05
6.14392e-05
6.14479e-05
6.93326e-05
6.93455e-05
6.93347e-05
6.93475e-05
2.15566e-05
6.16476e-05
6.16562e-05
6.14731e-05
6.14819e-05
5.76412e-05
7.02302e-05
5.73328e-05
7.02464e-05
3.59198e-05
4.94972e-05
1.46381e-05
1.73475e-05
3.53873e-05
4.98352e-05
1.46579e-05
3.59194e-05
4.94994e-05
1.4638e-05
1.73479e-05
3.5386e-05
4.98357e-05
1.46579e-05
5.76993e-05
7.02665e-05
7.02515e-05
5.79801e-05
5.76979e-05
7.02634e-05
7.02483e-05
5.79788e-05
3.61303e-05
1.74652e-05
5.02607e-05
1.47105e-05
4.99346e-05
1.46821e-05
3.66487e-05
3.61289e-05
1.74656e-05
5.02624e-05
1.47105e-05
4.99364e-05
1.4682e-05
3.66482e-05
6.12586e-05
6.1254e-05
2.13618e-05
6.1442e-05
6.1437e-05
6.93712e-05
6.93573e-05
6.93341e-05
6.9347e-05
2.15559e-05
6.16524e-05
6.16477e-05
6.14765e-05
6.14718e-05
6.93328e-05
6.93455e-05
3.59192e-05
4.95004e-05
1.46384e-05
1.73472e-05
3.53882e-05
4.9838e-05
1.46582e-05
5.76408e-05
7.02304e-05
5.73322e-05
7.02465e-05
3.59186e-05
1.46385e-05
4.94997e-05
1.73489e-05
3.53876e-05
1.46583e-05
4.98368e-05
5.76986e-05
7.02678e-05
7.02528e-05
5.79796e-05
3.61313e-05
1.74648e-05
5.02636e-05
1.47109e-05
4.99377e-05
1.46824e-05
3.66483e-05
5.76976e-05
7.02635e-05
7.02485e-05
5.79786e-05
3.61307e-05
1.74665e-05
1.4711e-05
5.02624e-05
1.46825e-05
4.99362e-05
3.66476e-05
5.7642e-05
7.02326e-05
5.7334e-05
7.02486e-05
3.59196e-05
1.46385e-05
4.94981e-05
1.73484e-05
3.53879e-05
1.46583e-05
4.98318e-05
5.76413e-05
7.02296e-05
5.7333e-05
7.02458e-05
3.61326e-05
1.74643e-05
5.02548e-05
1.4711e-05
4.99398e-05
1.46824e-05
3.66476e-05
5.76988e-05
7.02657e-05
7.02507e-05
5.79799e-05
3.61309e-05
1.74661e-05
1.4711e-05
5.02579e-05
1.46826e-05
4.99353e-05
3.66486e-05
5.76981e-05
7.02627e-05
7.02477e-05
5.7979e-05
6.12593e-05
6.12539e-05
2.13632e-05
6.14435e-05
6.1438e-05
6.93714e-05
6.93572e-05
6.93341e-05
6.9347e-05
2.15576e-05
6.16516e-05
6.16464e-05
6.1477e-05
6.14717e-05
6.93326e-05
6.93454e-05
3.59197e-05
1.46389e-05
4.94979e-05
1.73484e-05
3.53891e-05
1.46588e-05
4.9838e-05
5.76426e-05
7.02334e-05
5.73344e-05
7.02495e-05
5.76413e-05
7.02309e-05
5.73333e-05
7.0247e-05
3.61309e-05
1.74651e-05
1.47115e-05
5.02603e-05
1.46829e-05
4.9935e-05
3.66518e-05
3.6132e-05
1.7466e-05
1.47115e-05
5.02644e-05
1.4683e-05
4.99348e-05
3.66487e-05
5.76992e-05
7.02666e-05
7.02514e-05
5.79805e-05
5.76981e-05
7.02641e-05
7.0249e-05
5.79792e-05
6.93714e-05
6.93573e-05
6.93734e-05
6.93592e-05
2.15583e-05
6.16439e-05
6.1653e-05
6.14692e-05
6.1478e-05
6.93326e-05
6.93455e-05
6.93345e-05
6.93475e-05
6.93216e-05
6.93096e-05
6.93236e-05
6.93117e-05
6.16811e-05
6.16898e-05
2.23182e-05
6.18518e-05
6.18602e-05
6.92876e-05
6.92989e-05
6.92897e-05
6.93009e-05
2.25261e-05
6.20425e-05
6.20509e-05
6.18832e-05
6.18917e-05
5.82941e-05