/*--------------------------------*- C++ -*----------------------------------*\
| =========                 |                                                 |
| \\      /  F ield         | OpenFOAM: The Open Source CFD Toolbox           |
|  \\    /   O peration     | Version:  2312                                  |
|   \\  /    A nd           | Website:  www.openfoam.com                      |
|    \\/     M anipulation  |                                                 |
\*---------------------------------------------------------------------------*/
FoamFile
{
    version     2.0;
    format      ascii;
    arch        "LSB;label=32;scalar=64";
    class       volScalarField;
    location    "250";
    object      k;
}
// * * * * * * * * * * * * * * * * * * * * * * * * * * * * * * * * * * * * * //

dimensions      [0 2 -2 0 0 0 0];

internalField   nonuniform List<scalar> 
43208
(
4.08938e-05
5.31646e-05
5.31678e-05
5.57446e-05
4.08982e-05
5.31701e-05
5.31735e-05
5.57551e-05
4.09005e-05
5.317e-05
5.31736e-05
5.57451e-05
4.09005e-05
5.31716e-05
5.31752e-05
5.57615e-05
4.08965e-05
5.31695e-05
5.31733e-05
5.57505e-05
4.08877e-05
5.31572e-05
5.31605e-05
5.57317e-05
4.08831e-05
5.31511e-05
5.31519e-05
5.5724e-05
4.08883e-05
5.31589e-05
5.31615e-05
5.57435e-05
4.0899e-05
5.31678e-05
5.31738e-05
5.575e-05
4.09032e-05
5.3172e-05
5.31745e-05
5.57442e-05
4.09035e-05
5.3172e-05
5.31757e-05
5.57525e-05
4.09039e-05
5.31735e-05
5.31767e-05
5.57594e-05
4.09028e-05
5.31704e-05
5.31741e-05
5.57428e-05
4.09009e-05
5.31692e-05
5.31727e-05
5.57525e-05
4.08998e-05
5.31684e-05
5.31718e-05
5.57535e-05
4.08993e-05
5.31682e-05
5.31716e-05
5.57516e-05
4.08993e-05
5.31687e-05
5.31717e-05
5.57485e-05
4.08998e-05
5.31693e-05
5.31726e-05
5.57405e-05
4.09003e-05
5.31708e-05
5.3174e-05
5.57511e-05
4.08683e-05
5.31615e-05
5.31647e-05
5.57441e-05
4.30681e-05
5.10016e-05
5.10042e-05
5.52992e-05
5.57276e-05
5.31644e-05
5.31601e-05
5.57278e-05
5.31619e-05
5.31634e-05
5.31646e-05
5.31648e-05
5.57311e-05
5.31678e-05
5.31629e-05
5.57306e-05
5.57418e-05
5.57355e-05
5.31644e-05
5.31601e-05
5.31695e-05
5.31648e-05
5.5742e-05
5.57343e-05
5.31619e-05
5.31633e-05
5.31672e-05
5.31677e-05
5.31648e-05
5.31689e-05
5.31687e-05
5.57451e-05
5.5735e-05
5.31628e-05
5.31719e-05
5.31671e-05
5.57335e-05
5.57566e-05
5.57287e-05
5.31711e-05
5.31662e-05
5.31713e-05
5.31658e-05
5.57554e-05
5.57253e-05
5.3169e-05
5.31694e-05
5.31695e-05
5.31696e-05
5.31704e-05
5.31697e-05
5.31707e-05
5.57566e-05
5.57284e-05
5.31688e-05
5.31733e-05
5.31691e-05
5.57291e-05
5.57454e-05
5.57449e-05
5.31718e-05
5.31662e-05
5.31739e-05
5.31684e-05
5.57421e-05
5.57419e-05
5.31701e-05
5.31699e-05
5.31724e-05
5.31722e-05
5.31711e-05
5.31724e-05
5.31736e-05
5.57447e-05
5.57438e-05
5.31694e-05
5.31758e-05
5.31719e-05
5.57443e-05
5.5761e-05
5.57294e-05
5.31727e-05
5.31674e-05
5.31698e-05
5.31657e-05
5.57591e-05
5.57286e-05
5.31711e-05
5.31713e-05
5.31675e-05
5.31699e-05
5.31729e-05
5.31702e-05
5.31708e-05
5.57608e-05
5.57341e-05
5.31712e-05
5.31739e-05
5.31686e-05
5.57299e-05
5.57497e-05
5.57136e-05
5.31679e-05
5.31647e-05
5.31586e-05
5.31555e-05
5.57498e-05
5.57145e-05
5.31656e-05
5.3169e-05
5.31564e-05
5.31593e-05
5.31693e-05
5.31597e-05
5.31596e-05
5.57558e-05
5.57181e-05
5.31669e-05
5.3164e-05
5.31583e-05
5.57144e-05
5.57308e-05
5.57077e-05
5.31563e-05
5.31532e-05
5.31517e-05
5.31481e-05
5.57314e-05
5.57081e-05
5.3154e-05
5.3156e-05
5.31491e-05
5.31481e-05
5.31572e-05
5.31515e-05
5.31515e-05
5.5735e-05
5.57044e-05
5.31557e-05
5.31522e-05
5.31496e-05
5.5709e-05
5.57232e-05
5.57242e-05
5.31516e-05
5.31479e-05
5.31568e-05
5.3151e-05
5.57233e-05
5.57222e-05
5.3149e-05
5.31477e-05
5.31546e-05
5.31525e-05
5.31512e-05
5.31553e-05
5.31566e-05
5.57201e-05
5.57214e-05
5.31494e-05
5.31571e-05
5.31549e-05
5.5724e-05
5.57425e-05
5.57321e-05
5.31603e-05
5.31542e-05
5.31679e-05
5.31624e-05
5.57402e-05
5.57302e-05
5.31582e-05
5.31573e-05
5.31658e-05
5.31681e-05
5.31602e-05
5.31665e-05
5.31674e-05
5.57413e-05
5.57329e-05
5.3158e-05
5.3172e-05
5.31652e-05
5.57277e-05
5.57533e-05
5.57243e-05
5.31687e-05
5.31633e-05
5.31699e-05
5.31647e-05
5.57513e-05
5.57225e-05
5.31668e-05
5.31696e-05
5.31688e-05
5.31697e-05
5.31691e-05
5.31705e-05
5.31713e-05
5.57546e-05
5.57287e-05
5.31672e-05
5.31741e-05
5.31695e-05
5.57263e-05
5.57452e-05
5.57371e-05
5.31722e-05
5.31672e-05
5.31724e-05
5.31676e-05
5.5744e-05
5.57355e-05
5.31705e-05
5.31704e-05
5.31703e-05
5.31714e-05
5.31727e-05
5.31719e-05
5.31725e-05
5.57449e-05
5.57416e-05
5.31707e-05
5.31755e-05
5.31704e-05
5.57382e-05
5.57515e-05
5.57397e-05
5.31722e-05
5.31673e-05
5.31737e-05
5.31692e-05
5.57499e-05
5.5738e-05
5.31702e-05
5.31714e-05
5.31715e-05
5.31724e-05
5.31724e-05
5.31734e-05
5.31739e-05
5.57585e-05
5.57374e-05
5.31704e-05
5.31764e-05
5.31718e-05
5.57383e-05
5.57602e-05
5.57247e-05
5.31737e-05
5.31694e-05
5.31706e-05
5.31659e-05
5.57588e-05
5.57242e-05
5.31716e-05
5.31726e-05
5.31684e-05
5.31698e-05
5.31741e-05
5.31705e-05
5.31711e-05
5.57595e-05
5.57264e-05
5.31721e-05
5.31741e-05
5.3169e-05
5.57259e-05
5.57431e-05
5.57341e-05
5.31708e-05
5.3166e-05
5.31696e-05
5.31652e-05
5.57414e-05
5.57352e-05
5.31686e-05
5.31699e-05
5.31675e-05
5.31686e-05
5.3171e-05
5.31694e-05
5.31704e-05
5.57448e-05
5.57319e-05
5.3169e-05
5.31729e-05
5.31685e-05
5.57378e-05
5.57479e-05
5.57343e-05
5.31693e-05
5.31649e-05
5.31686e-05
5.31637e-05
5.57494e-05
5.57324e-05
5.31672e-05
5.31683e-05
5.31665e-05
5.31671e-05
5.31701e-05
5.31679e-05
5.31687e-05
5.57462e-05
5.57377e-05
5.31683e-05
5.31714e-05
5.31668e-05
5.57332e-05
5.57548e-05
5.57226e-05
5.31691e-05
5.31643e-05
5.31673e-05
5.31629e-05
5.57522e-05
5.57298e-05
5.3167e-05
5.31674e-05
5.31652e-05
5.31663e-05
5.31692e-05
5.31671e-05
5.31678e-05
5.57542e-05
5.57316e-05
5.31673e-05
5.31705e-05
5.31659e-05
5.57294e-05
5.57424e-05
5.57284e-05
5.31684e-05
5.31638e-05
5.31677e-05
5.31631e-05
5.57509e-05
5.57276e-05
5.31664e-05
5.31674e-05
5.31659e-05
5.31664e-05
5.31688e-05
5.31671e-05
5.31675e-05
5.57535e-05
5.57237e-05
5.31669e-05
5.31703e-05
5.31658e-05
5.57252e-05
5.5746e-05
5.57228e-05
5.31689e-05
5.31644e-05
5.31671e-05
5.31624e-05
5.57507e-05
5.57211e-05
5.31671e-05
5.31678e-05
5.3165e-05
5.3166e-05
5.3169e-05
5.31667e-05
5.31674e-05
5.5744e-05
5.57266e-05
5.31672e-05
5.317e-05
5.31653e-05
5.57234e-05
5.57401e-05
5.57351e-05
5.31696e-05
5.31649e-05
5.31676e-05
5.31632e-05
5.5739e-05
5.57346e-05
5.31675e-05
5.31685e-05
5.31657e-05
5.31668e-05
5.31698e-05
5.31677e-05
5.31681e-05
5.57426e-05
5.57358e-05
5.31679e-05
5.31708e-05
5.3166e-05
5.57359e-05
5.57502e-05
5.57304e-05
5.31708e-05
5.31663e-05
5.31576e-05
5.31532e-05
5.57501e-05
5.57284e-05
5.31687e-05
5.31699e-05
5.31557e-05
5.31568e-05
5.31712e-05
5.31574e-05
5.31577e-05
5.57503e-05
5.57342e-05
5.3169e-05
5.31607e-05
5.31557e-05
5.57294e-05
5.57449e-05
5.55229e-05
5.31618e-05
5.31574e-05
5.16191e-05
5.16151e-05
5.57431e-05
5.5522e-05
5.31598e-05
5.31608e-05
5.16192e-05
5.16176e-05
5.31619e-05
5.16207e-05
5.16188e-05
5.57472e-05
5.55225e-05
5.31598e-05
5.1623e-05
5.16189e-05
5.55223e-05
5.52994e-05
5.09999e-05
5.0996e-05
5.52981e-05
5.1e-05
5.09986e-05
4.30673e-05
4.30704e-05
4.30695e-05
5.09999e-05
5.53e-05
5.10002e-05
7.07119e-05
7.4522e-05
7.20616e-05
7.45233e-05
4.08934e-05
4.08932e-05
4.08974e-05
4.08967e-05
6.28121e-05
5.3164e-05
6.6919e-05
4.80364e-05
7.07154e-05
7.45222e-05
7.07114e-05
7.45239e-05
7.20592e-05
7.20631e-05
7.07138e-05
7.45236e-05
7.07096e-05
7.45254e-05
4.08935e-05
4.08977e-05
4.0897e-05
4.08973e-05
4.08965e-05
4.09008e-05
4.08999e-05
6.28144e-05
6.69192e-05
4.80381e-05
5.31648e-05
6.28121e-05
6.6922e-05
4.80382e-05
7.20602e-05
7.20639e-05
6.28146e-05
4.80412e-05
6.69188e-05
5.31679e-05
6.28123e-05
4.80413e-05
6.69217e-05
7.18828e-05
7.18912e-05
5.57183e-05
7.18853e-05
7.1894e-05
7.07195e-05
7.45238e-05
7.07165e-05
7.45249e-05
7.20599e-05
7.20635e-05
7.07192e-05
7.45256e-05
7.07155e-05
7.45269e-05
4.08971e-05
4.09017e-05
4.09007e-05
4.08999e-05
4.08983e-05
4.09032e-05
4.09023e-05
6.282e-05
6.69233e-05
4.80419e-05
5.31702e-05
6.28163e-05
6.6925e-05
4.80425e-05
7.20613e-05
7.20646e-05
6.28205e-05
4.80452e-05
6.69234e-05
5.31737e-05
6.28166e-05
4.80459e-05
6.69254e-05
7.18872e-05
7.18961e-05
5.57407e-05
7.18882e-05
7.18972e-05
7.07203e-05
7.45238e-05
7.07179e-05
7.45245e-05
7.20601e-05
7.20635e-05
7.07203e-05
7.45259e-05
7.0718e-05
7.45265e-05
4.08988e-05
4.09036e-05
4.09028e-05
4.09007e-05
4.08992e-05
4.09041e-05
4.09034e-05
6.28211e-05
6.69248e-05
4.80421e-05
5.31715e-05
6.28169e-05
6.69271e-05
4.80431e-05
7.20615e-05
7.20644e-05
6.28207e-05
4.80455e-05
6.69251e-05
5.31748e-05
6.28168e-05
4.80461e-05
6.69272e-05
7.189e-05
7.18988e-05
5.5733e-05
7.18914e-05
7.19e-05
7.07183e-05
7.45227e-05
7.07169e-05
7.45228e-05
7.20594e-05
7.2062e-05
7.07173e-05
7.45244e-05
7.07163e-05
7.45244e-05
4.0899e-05
4.0904e-05
4.09032e-05
4.08979e-05
4.08979e-05
4.09027e-05
4.09017e-05
6.28192e-05
6.69258e-05
4.80431e-05
5.31706e-05
6.28187e-05
6.69267e-05
4.8042e-05
7.20608e-05
7.20633e-05
6.28185e-05
4.80463e-05
6.69258e-05
5.31742e-05
6.28181e-05
4.8045e-05
6.69269e-05
7.18921e-05
7.19005e-05
5.57318e-05
7.1892e-05
7.19005e-05
7.07116e-05
7.45197e-05
7.07128e-05
7.45193e-05
7.20564e-05
7.20588e-05
7.07101e-05
7.45213e-05
7.07114e-05
7.45208e-05
4.08967e-05
4.09017e-05
4.09003e-05
4.08898e-05
4.08904e-05
4.08953e-05
4.0894e-05
6.28129e-05
6.6922e-05
4.80415e-05
5.31668e-05
6.28153e-05
6.69184e-05
4.804e-05
7.20583e-05
7.20598e-05
6.28129e-05
4.80444e-05
6.69229e-05
5.31709e-05
6.28147e-05
4.80428e-05
6.69196e-05
7.18849e-05
7.18939e-05
5.57293e-05
7.18802e-05
7.18891e-05
7.07029e-05
7.45167e-05
7.07035e-05
7.45174e-05
7.20544e-05
7.20581e-05
7.07011e-05
7.45182e-05
7.07017e-05
7.4519e-05
4.08881e-05
4.08924e-05
4.08916e-05
4.08834e-05
4.08834e-05
4.0886e-05
4.08867e-05
6.28007e-05
6.69102e-05
4.80304e-05
5.31547e-05
6.28015e-05
6.69088e-05
4.80282e-05
7.20549e-05
7.20581e-05
6.28013e-05
4.8034e-05
6.69099e-05
5.31568e-05
6.28022e-05
4.80311e-05
6.69075e-05
7.18726e-05
7.18817e-05
5.57175e-05
7.18713e-05
7.18805e-05
7.07029e-05
7.45175e-05
7.06992e-05
7.45196e-05
7.20558e-05
7.20602e-05
7.07015e-05
7.45191e-05
7.06973e-05
7.45213e-05
4.08828e-05
4.08853e-05
4.08862e-05
4.08847e-05
4.08836e-05
4.08863e-05
4.08876e-05
6.27991e-05
6.69066e-05
4.80241e-05
5.31513e-05
6.27956e-05
6.69099e-05
4.8024e-05
7.20567e-05
7.20613e-05
6.27996e-05
4.80261e-05
6.69051e-05
5.31521e-05
6.27953e-05
4.80261e-05
6.6909e-05
7.18728e-05
7.18816e-05
5.57087e-05
7.18761e-05
7.18846e-05
7.07112e-05
7.45207e-05
7.07057e-05
7.45226e-05
7.20579e-05
7.2062e-05
7.07107e-05
7.45224e-05
7.0705e-05
7.45243e-05
4.08861e-05
4.08894e-05
4.08906e-05
4.08969e-05
4.08952e-05
4.09015e-05
4.08996e-05
6.28104e-05
6.69138e-05
4.80308e-05
5.31615e-05
6.28042e-05
6.69178e-05
4.80342e-05
7.20598e-05
7.20635e-05
6.28094e-05
4.80333e-05
6.69138e-05
5.3165e-05
6.2804e-05
4.80363e-05
6.69184e-05
7.18801e-05
7.18884e-05
5.57234e-05
7.18822e-05
7.18908e-05
7.07148e-05
7.45225e-05
7.07118e-05
7.45239e-05
7.20592e-05
7.20631e-05
7.07144e-05
7.45243e-05
7.07114e-05
7.45256e-05
4.08974e-05
4.0904e-05
4.09021e-05
4.09026e-05
4.09016e-05
4.09069e-05
4.0906e-05
6.28159e-05
6.69194e-05
4.80414e-05
5.31683e-05
6.28134e-05
6.69217e-05
4.80419e-05
7.20608e-05
7.20642e-05
6.28166e-05
4.80454e-05
6.69208e-05
5.31741e-05
6.28134e-05
4.8046e-05
6.69228e-05
7.18841e-05
7.18929e-05
5.57367e-05
7.18852e-05
7.18939e-05
7.07175e-05
7.45235e-05
7.07144e-05
7.45247e-05
7.20599e-05
7.20638e-05
7.07164e-05
7.45251e-05
7.07135e-05
7.45264e-05
4.09023e-05
4.09072e-05
4.09065e-05
4.09033e-05
4.09026e-05
4.09074e-05
4.09065e-05
6.28194e-05
6.69224e-05
4.80449e-05
5.31722e-05
6.28157e-05
6.69241e-05
4.8045e-05
7.20613e-05
7.20648e-05
6.28189e-05
4.80477e-05
6.69226e-05
5.31749e-05
6.28156e-05
4.80477e-05
6.69243e-05
7.18867e-05
7.18952e-05
5.57371e-05
7.18871e-05
7.18957e-05
7.07188e-05
7.45239e-05
7.0716e-05
7.4525e-05
7.20601e-05
7.20639e-05
7.07181e-05
7.45256e-05
7.07152e-05
7.45267e-05
4.09026e-05
4.09075e-05
4.09065e-05
4.09038e-05
4.09034e-05
4.0908e-05
4.09073e-05
6.28208e-05
6.69244e-05
4.80448e-05
5.31722e-05
6.28167e-05
6.6926e-05
4.80453e-05
7.20614e-05
7.20649e-05
6.28206e-05
4.80479e-05
6.69245e-05
5.31757e-05
6.28168e-05
4.80483e-05
6.69259e-05
7.18887e-05
7.18974e-05
5.57265e-05
7.18888e-05
7.18975e-05
7.07176e-05
7.45234e-05
7.07165e-05
7.45242e-05
7.20594e-05
7.20634e-05
7.07166e-05
7.4525e-05
7.07154e-05
7.45259e-05
4.09034e-05
4.0908e-05
4.09073e-05
4.09029e-05
4.09022e-05
4.09071e-05
4.09062e-05
6.28194e-05
6.69247e-05
4.80454e-05
5.31727e-05
6.28174e-05
6.69245e-05
4.8045e-05
7.20608e-05
7.20646e-05
6.28197e-05
4.80484e-05
6.69247e-05
5.3176e-05
6.28172e-05
4.80482e-05
6.69247e-05
7.18888e-05
7.18974e-05
5.57407e-05
7.18871e-05
7.18957e-05
7.07159e-05
7.45225e-05
7.07142e-05
7.45239e-05
7.20586e-05
7.20634e-05
7.07152e-05
7.45242e-05
7.07132e-05
7.45256e-05
4.0902e-05
4.09069e-05
4.0906e-05
4.09011e-05
4.09004e-05
4.09053e-05
4.09047e-05
6.28165e-05
6.69231e-05
4.80438e-05
5.31699e-05
6.28152e-05
6.69224e-05
4.80426e-05
7.20601e-05
7.20645e-05
6.28169e-05
4.80466e-05
6.69234e-05
5.31736e-05
6.28148e-05
4.80457e-05
6.6923e-05
7.18878e-05
7.18965e-05
5.57314e-05
7.18858e-05
7.18946e-05
7.07151e-05
7.45221e-05
7.07133e-05
7.45239e-05
7.20579e-05
7.2064e-05
7.07141e-05
7.45237e-05
7.07124e-05
7.45255e-05
4.09002e-05
4.09051e-05
4.09045e-05
4.08997e-05
4.08991e-05
4.09039e-05
4.09032e-05
6.28151e-05
6.69224e-05
4.80425e-05
5.3168e-05
6.28145e-05
6.69208e-05
4.80414e-05
7.20592e-05
7.2065e-05
6.28153e-05
4.80459e-05
6.69227e-05
5.31717e-05
6.28151e-05
4.80447e-05
6.6921e-05
7.18879e-05
7.18967e-05
5.5724e-05
7.18846e-05
7.18933e-05
7.07147e-05
7.45218e-05
7.07129e-05
7.45248e-05
7.20572e-05
7.20655e-05
7.07133e-05
7.45234e-05
7.07114e-05
7.45265e-05
4.08991e-05
4.09039e-05
4.09032e-05
4.08987e-05
4.08981e-05
4.09028e-05
4.09021e-05
6.28151e-05
6.69233e-05
4.80418e-05
5.31673e-05
6.28141e-05
6.69193e-05
4.80407e-05
7.20585e-05
7.20666e-05
6.28158e-05
4.8045e-05
6.69236e-05
5.31706e-05
6.28143e-05
4.8044e-05
6.69196e-05
7.18898e-05
7.18984e-05
5.57281e-05
7.18842e-05
7.18929e-05
7.07159e-05
7.45219e-05
7.07134e-05
7.45265e-05
7.20562e-05
7.20681e-05
7.07156e-05
7.45237e-05
7.07126e-05
7.45284e-05
4.08985e-05
4.09032e-05
4.09024e-05
4.08983e-05
4.08976e-05
4.09022e-05
4.09014e-05
6.28163e-05
6.69267e-05
4.80413e-05
5.3167e-05
6.28132e-05
6.69184e-05
4.80404e-05
7.20576e-05
7.20691e-05
6.28168e-05
4.80441e-05
6.6927e-05
5.31705e-05
6.28126e-05
4.80434e-05
6.69191e-05
7.18943e-05
7.19032e-05
5.57299e-05
7.18843e-05
7.18932e-05
7.07158e-05
7.45216e-05
7.07127e-05
7.45301e-05
7.20547e-05
7.20726e-05
7.07145e-05
7.45233e-05
7.07118e-05
7.45317e-05
4.08985e-05
4.09031e-05
4.09023e-05
4.08978e-05
4.08972e-05
4.09018e-05
4.0901e-05
6.28145e-05
6.69322e-05
4.80415e-05
5.31669e-05
6.2813e-05
6.69146e-05
4.80398e-05
7.20559e-05
7.20735e-05
6.28135e-05
4.80448e-05
6.69321e-05
5.317e-05
6.2814e-05
4.80425e-05
6.69141e-05
7.1901e-05
7.19097e-05
5.57361e-05
7.18821e-05
7.18908e-05
7.07176e-05
7.45211e-05
7.0713e-05
7.45356e-05
7.20519e-05
7.20786e-05
7.07169e-05
7.45228e-05
7.07117e-05
7.45372e-05
4.0899e-05
4.09037e-05
4.09029e-05
4.08973e-05
4.08967e-05
4.09014e-05
4.09005e-05
6.28148e-05
6.69453e-05
4.80427e-05
5.31674e-05
6.28159e-05
6.69074e-05
4.80401e-05
7.20527e-05
7.20791e-05
6.28166e-05
4.80455e-05
6.69454e-05
5.31707e-05
6.28155e-05
4.80433e-05
6.69076e-05
7.19065e-05
7.19153e-05
5.57307e-05
7.18707e-05
7.18795e-05
7.07159e-05
7.45156e-05
7.07083e-05
7.45421e-05
7.20447e-05
7.20838e-05
7.07154e-05
7.45174e-05
7.07075e-05
7.45438e-05
4.08996e-05
4.09043e-05
4.09033e-05
4.089e-05
4.08896e-05
4.08941e-05
4.08932e-05
6.2808e-05
6.69675e-05
4.80442e-05
5.31665e-05
6.28184e-05
6.68821e-05
4.80388e-05
7.20446e-05
7.20835e-05
6.28076e-05
4.80468e-05
6.69676e-05
5.31698e-05
6.28174e-05
4.80415e-05
6.6882e-05
7.19019e-05
7.19107e-05
5.5725e-05
7.18368e-05
7.18454e-05
7.06861e-05
7.45017e-05
7.06896e-05
7.45556e-05
7.20297e-05
7.20888e-05
7.06854e-05
7.45034e-05
7.0689e-05
7.45572e-05
4.08675e-05
4.08718e-05
4.08708e-05
4.26919e-05
4.2691e-05
4.26942e-05
4.26934e-05
6.27434e-05
6.70052e-05
4.80348e-05
5.30912e-05
6.2817e-05
6.68007e-05
4.7966e-05
7.20291e-05
7.20883e-05
6.27423e-05
4.80377e-05
6.70045e-05
5.30938e-05
6.2817e-05
4.79686e-05
6.67997e-05
7.18727e-05
7.18816e-05
5.56853e-05
7.17431e-05
7.17518e-05
6.68632e-05
7.43515e-05
7.05037e-05
7.55109e-05
7.20574e-05
6.71391e-05
6.68639e-05
7.4353e-05
7.05035e-05
7.55122e-05
2.72304e-05
3.573e-05
3.57296e-05
4.36677e-05
2.74116e-05
3.60501e-05
3.60504e-05
6.28298e-05
6.68034e-05
4.50998e-05
5.00121e-05
6.26256e-05
6.84565e-05
4.37101e-05
7.20569e-05
6.71383e-05
6.28306e-05
4.51015e-05
6.68033e-05
5.00156e-05
6.26246e-05
4.37124e-05
6.84568e-05
7.12045e-05
7.12134e-05
5.47654e-05
7.2614e-05
7.26216e-05
7.20603e-05
7.20632e-05
5.57315e-05
7.1885e-05
7.18929e-05
7.20612e-05
7.20573e-05
7.20641e-05
7.20603e-05
5.57517e-05
7.18866e-05
7.1894e-05
7.18851e-05
7.18927e-05
7.07103e-05
7.45185e-05
6.28113e-05
5.31637e-05
6.69172e-05
4.8035e-05
6.28097e-05
5.31594e-05
6.69135e-05
4.80329e-05
7.07099e-05
7.45229e-05
7.45212e-05
7.07132e-05
7.07083e-05
7.45194e-05
7.45177e-05
7.07115e-05
6.28096e-05
5.31642e-05
6.69186e-05
4.80365e-05
6.69162e-05
4.80355e-05
6.28138e-05
6.28079e-05
5.31599e-05
6.69149e-05
4.80344e-05
6.69127e-05
4.80334e-05
6.28121e-05
5.5731e-05
7.18855e-05
7.18873e-05
7.20616e-05
7.20625e-05
7.20583e-05
5.57512e-05
7.18875e-05
7.18885e-05
7.18863e-05
7.18872e-05
7.20623e-05
7.20586e-05
5.31613e-05
6.69186e-05
7.07084e-05
7.45242e-05
7.45225e-05
7.07115e-05
6.28084e-05
5.31618e-05
6.69198e-05
4.80352e-05
6.69175e-05
4.80346e-05
6.28124e-05
7.0707e-05
7.45196e-05
7.4518e-05
7.07101e-05
6.28073e-05
5.31633e-05
4.80365e-05
6.69162e-05
4.80359e-05
6.69141e-05
6.28112e-05
7.07109e-05
7.45222e-05
6.28118e-05
4.80375e-05
7.07114e-05
6.28104e-05
5.31645e-05
6.69202e-05
4.80379e-05
6.6918e-05
4.80368e-05
6.28143e-05
7.07092e-05
7.45229e-05
7.45214e-05
7.07119e-05
6.28099e-05
5.31646e-05
4.80389e-05
6.69159e-05
4.80379e-05
6.69137e-05
6.2814e-05
7.07094e-05
7.45197e-05
7.45181e-05
7.07124e-05
7.20631e-05
7.20593e-05
5.57532e-05
7.18891e-05
7.18865e-05
7.1888e-05
7.18853e-05
7.20618e-05
7.2058e-05
6.28104e-05
5.31676e-05
4.80407e-05
6.69198e-05
4.804e-05
6.69176e-05
6.28144e-05
6.28081e-05
5.31627e-05
4.80383e-05
6.69182e-05
4.80376e-05
6.69158e-05
6.28121e-05
7.07086e-05
7.45235e-05
7.45219e-05
7.07116e-05
7.07055e-05
7.45214e-05
7.45198e-05
7.07082e-05
5.57516e-05
7.18825e-05
7.18909e-05
7.18813e-05
7.18896e-05
7.20616e-05
7.20578e-05
7.20645e-05
7.20606e-05
7.20582e-05
7.20619e-05
7.20612e-05
7.2065e-05
7.1887e-05
7.18944e-05
5.57181e-05
7.18899e-05
7.18976e-05
7.20623e-05
7.20588e-05
7.20656e-05
7.2062e-05
5.57397e-05
7.1892e-05
7.19003e-05
7.18904e-05
7.1898e-05
7.07137e-05
7.45186e-05
7.07097e-05
7.45203e-05
6.28144e-05
6.69177e-05
4.80368e-05
5.31647e-05
6.28114e-05
6.6921e-05
4.80369e-05
6.28126e-05
6.69142e-05
4.80347e-05
5.31603e-05
6.28097e-05
6.69172e-05
4.80348e-05
7.07139e-05
7.45246e-05
7.45231e-05
7.07182e-05
7.07121e-05
7.4521e-05
7.45195e-05
7.07164e-05
6.28125e-05
5.31665e-05
6.69239e-05
4.80395e-05
6.69205e-05
4.80374e-05
6.28184e-05
6.28107e-05
5.3162e-05
6.69198e-05
4.80373e-05
6.69167e-05
4.80353e-05
6.28167e-05
7.18882e-05
7.18888e-05
5.57177e-05
7.189e-05
7.18913e-05
7.20593e-05
7.20629e-05
7.20634e-05
7.20597e-05
5.57387e-05
7.18918e-05
7.18926e-05
7.1891e-05
7.18914e-05
7.20632e-05
7.20598e-05
6.28128e-05
6.69188e-05
4.80356e-05
5.31621e-05
6.28099e-05
6.69223e-05
4.80358e-05
7.07123e-05
7.45189e-05
7.07081e-05
7.45206e-05
6.28115e-05
4.80369e-05
6.69151e-05
5.31635e-05
6.28087e-05
4.8037e-05
6.69182e-05
7.07123e-05
7.45264e-05
7.45247e-05
7.07171e-05
6.2811e-05
5.31639e-05
6.69258e-05
4.80383e-05
6.69218e-05
4.80362e-05
6.28174e-05
7.07108e-05
7.45215e-05
7.45199e-05
7.07156e-05
6.28096e-05
5.31647e-05
4.80392e-05
6.69213e-05
4.80373e-05
6.69177e-05
6.2816e-05
7.07135e-05
7.45221e-05
7.07103e-05
7.45237e-05
6.2814e-05
4.80392e-05
6.69149e-05
5.31649e-05
6.28116e-05
4.80391e-05
6.69177e-05
7.0714e-05
7.45189e-05
7.07105e-05
7.45205e-05
6.28124e-05
5.31663e-05
6.69243e-05
4.804e-05
6.69213e-05
4.80384e-05
6.28175e-05
7.07121e-05
7.45242e-05
7.45228e-05
7.07157e-05
6.28119e-05
5.31659e-05
4.80409e-05
6.69203e-05
4.80394e-05
6.69171e-05
6.28172e-05
7.07123e-05
7.45211e-05
7.45197e-05
7.07161e-05
7.18895e-05
7.18868e-05
5.57192e-05
7.18921e-05
7.18893e-05
7.20589e-05
7.20625e-05
7.20644e-05
7.20609e-05
5.57391e-05
7.18945e-05
7.18911e-05
7.18925e-05
7.18897e-05
7.20629e-05
7.20595e-05
6.28123e-05
4.80387e-05
6.69172e-05
5.3163e-05
6.281e-05
4.80388e-05
6.69203e-05
7.07134e-05
7.45228e-05
7.07099e-05
7.45244e-05
7.07102e-05
7.45207e-05
7.07068e-05
7.45224e-05
6.28125e-05
5.31691e-05
4.8043e-05
6.69243e-05
4.80415e-05
6.69211e-05
6.28177e-05
6.28104e-05
5.31641e-05
4.80407e-05
6.69231e-05
4.80391e-05
6.69197e-05
6.28155e-05
7.0712e-05
7.4525e-05
7.45236e-05
7.07158e-05
7.0709e-05
7.4523e-05
7.45216e-05
7.07126e-05
7.20586e-05
7.20623e-05
7.20615e-05
7.20652e-05
5.57377e-05
7.18872e-05
7.18961e-05
7.18857e-05
7.18944e-05
7.20627e-05
7.20592e-05
7.20656e-05
7.20622e-05
7.20592e-05
7.20625e-05
7.20625e-05
7.20658e-05
7.1892e-05
7.19004e-05
5.57408e-05
7.18931e-05
7.19018e-05
7.20625e-05
7.20593e-05
7.20657e-05
7.20626e-05
5.57569e-05
7.18945e-05
7.19034e-05
7.18932e-05
7.19019e-05
7.07177e-05
7.45201e-05
7.07146e-05
7.45212e-05
6.28211e-05
6.69231e-05
4.80416e-05
5.31714e-05
6.28171e-05
6.69252e-05
4.80423e-05
6.28193e-05
6.69191e-05
4.80394e-05
5.31663e-05
6.28153e-05
6.69208e-05
4.804e-05
7.07173e-05
7.45248e-05
7.45239e-05
7.072e-05
7.07155e-05
7.45213e-05
7.45202e-05
7.07182e-05
6.28184e-05
5.31713e-05
6.69261e-05
4.8042e-05
6.69241e-05
4.80423e-05
6.28201e-05
6.28166e-05
5.3166e-05
6.69216e-05
4.80397e-05
6.69198e-05
4.804e-05
6.28183e-05
7.18921e-05
7.18924e-05
5.57387e-05
7.18922e-05
7.18932e-05
7.206e-05
7.20633e-05
7.20636e-05
7.206e-05
5.57542e-05
7.18933e-05
7.18942e-05
7.18925e-05
7.1893e-05
7.20634e-05
7.20601e-05
6.28209e-05
6.69251e-05
4.80409e-05
5.31695e-05
6.28163e-05
6.69277e-05
4.8042e-05
7.07176e-05
7.45207e-05
7.07139e-05
7.4522e-05
6.28195e-05
4.80417e-05
6.69205e-05
5.31698e-05
6.28148e-05
4.80428e-05
6.69229e-05
7.07171e-05
7.45269e-05
7.4526e-05
7.07201e-05
6.28185e-05
5.31695e-05
6.69289e-05
4.8042e-05
6.69266e-05
4.80421e-05
6.28204e-05
7.07156e-05
7.45221e-05
7.45211e-05
7.07186e-05
6.2817e-05
5.31697e-05
4.80428e-05
6.69239e-05
4.80429e-05
6.69217e-05
6.2819e-05
7.07167e-05
7.45233e-05
7.07141e-05
7.45244e-05
6.28197e-05
4.8043e-05
6.69194e-05
5.31709e-05
6.28158e-05
4.80436e-05
6.69214e-05
7.07172e-05
7.45202e-05
7.07143e-05
7.45213e-05
6.28174e-05
5.31699e-05
6.69258e-05
4.80421e-05
6.69238e-05
4.80424e-05
6.2819e-05
7.07149e-05
7.45245e-05
7.45235e-05
7.07174e-05
6.2817e-05
5.31708e-05
4.80433e-05
6.69224e-05
4.80436e-05
6.69202e-05
6.28187e-05
7.07151e-05
7.45215e-05
7.45204e-05
7.07179e-05
7.18946e-05
7.18911e-05
5.57414e-05
7.18956e-05
7.18919e-05
7.20598e-05
7.20631e-05
7.20646e-05
7.20615e-05
5.57575e-05
7.18969e-05
7.18931e-05
7.18957e-05
7.18919e-05
7.20631e-05
7.20599e-05
6.28183e-05
4.80429e-05
6.69222e-05
5.31693e-05
6.28144e-05
4.80436e-05
6.69243e-05
7.07168e-05
7.45241e-05
7.07141e-05
7.45252e-05
7.07137e-05
7.45222e-05
7.07112e-05
7.45233e-05
6.28179e-05
5.31735e-05
4.80455e-05
6.69261e-05
4.80459e-05
6.69241e-05
6.28191e-05
6.28158e-05
5.31692e-05
4.80433e-05
6.69252e-05
4.80436e-05
6.69231e-05
6.2817e-05
7.07149e-05
7.45253e-05
7.45243e-05
7.07172e-05
7.0712e-05
7.45234e-05
7.45223e-05
7.07141e-05
7.20596e-05
7.20629e-05
7.20625e-05
7.20659e-05
5.57573e-05
7.18898e-05
7.18986e-05
7.18883e-05
7.18972e-05
7.2063e-05
7.20598e-05
7.20659e-05
7.20627e-05
7.20592e-05
7.20622e-05
7.20625e-05
7.20653e-05
7.18946e-05
7.19034e-05
5.57358e-05
7.18955e-05
7.19043e-05
7.20616e-05
7.20589e-05
7.20647e-05
7.2062e-05
5.57585e-05
7.1896e-05
7.19043e-05
7.18954e-05
7.1904e-05
7.07185e-05
7.45202e-05
7.0716e-05
7.4521e-05
6.28216e-05
6.69251e-05
4.80421e-05
5.31734e-05
6.28177e-05
6.6927e-05
4.80429e-05
6.28197e-05
6.69207e-05
4.80397e-05
5.31675e-05
6.28158e-05
6.69227e-05
4.80405e-05
7.07179e-05
7.45239e-05
7.45234e-05
7.07195e-05
7.07161e-05
7.45205e-05
7.45199e-05
7.07177e-05
6.28194e-05
5.31741e-05
6.69264e-05
4.80434e-05
6.69257e-05
4.80436e-05
6.2821e-05
6.28176e-05
5.31684e-05
6.69225e-05
4.8041e-05
6.69216e-05
4.80412e-05
6.28193e-05
7.1894e-05
7.18943e-05
5.57313e-05
7.18949e-05
7.18955e-05
7.20601e-05
7.20633e-05
7.20631e-05
7.20599e-05
5.57542e-05
7.18963e-05
7.18965e-05
7.18955e-05
7.18955e-05
7.20629e-05
7.206e-05
6.28217e-05
6.69279e-05
4.80422e-05
5.31718e-05
6.2818e-05
6.69298e-05
4.80431e-05
7.07189e-05
7.45211e-05
7.07164e-05
7.45218e-05
6.28203e-05
4.80429e-05
6.69229e-05
5.31713e-05
6.28166e-05
4.80437e-05
6.69249e-05
7.07178e-05
7.45256e-05
7.45253e-05
7.07191e-05
6.28195e-05
5.31725e-05
6.69287e-05
4.80438e-05
6.69283e-05
4.80439e-05
6.2821e-05
7.07164e-05
7.45212e-05
7.45207e-05
7.07177e-05
6.28182e-05
5.31722e-05
4.80445e-05
6.69244e-05
4.80446e-05
6.69235e-05
6.28197e-05
7.07183e-05
7.45235e-05
7.07156e-05
7.45245e-05
6.28209e-05
4.80434e-05
6.69215e-05
5.31726e-05
6.28164e-05
4.80443e-05
6.69239e-05
7.07188e-05
7.45205e-05
7.07159e-05
7.45215e-05
6.28194e-05
5.31724e-05
6.69272e-05
4.8044e-05
6.69259e-05
4.80439e-05
6.28216e-05
7.07164e-05
7.45242e-05
7.45234e-05
7.07183e-05
6.2819e-05
5.31736e-05
4.80453e-05
6.69239e-05
4.80453e-05
6.69227e-05
6.28213e-05
7.07167e-05
7.4521e-05
7.45204e-05
7.07189e-05
7.18969e-05
7.18931e-05
5.57333e-05
7.18978e-05
7.18942e-05
7.20599e-05
7.2063e-05
7.2064e-05
7.20612e-05
5.57563e-05
7.18983e-05
7.18951e-05
7.18977e-05
7.18941e-05
7.20627e-05
7.20598e-05
6.28185e-05
4.80433e-05
6.69241e-05
5.31708e-05
6.28147e-05
4.80439e-05
6.69264e-05
7.07178e-05
7.45243e-05
7.07153e-05
7.45252e-05
7.07146e-05
7.45224e-05
7.07124e-05
7.45232e-05
6.28189e-05
5.31758e-05
4.80471e-05
6.69272e-05
4.8047e-05
6.6926e-05
6.28211e-05
6.28168e-05
5.31718e-05
4.80449e-05
6.69262e-05
4.80449e-05
6.69251e-05
6.28189e-05
7.07158e-05
7.45248e-05
7.45242e-05
7.07175e-05
7.07128e-05
7.45227e-05
7.45221e-05
7.07144e-05
7.20598e-05
7.20629e-05
7.20627e-05
7.20658e-05
5.57562e-05
7.18923e-05
7.19007e-05
7.18914e-05
7.18999e-05
7.20624e-05
7.20596e-05
7.20653e-05
7.20625e-05
7.20582e-05
7.20605e-05
7.20613e-05
7.20636e-05
7.18958e-05
7.19039e-05
5.57307e-05
7.18956e-05
7.19036e-05
7.20588e-05
7.20569e-05
7.20619e-05
7.206e-05
5.57464e-05
7.1891e-05
7.18992e-05
7.18949e-05
7.19027e-05
7.07166e-05
7.45193e-05
7.07152e-05
7.45195e-05
6.28181e-05
6.69248e-05
4.80421e-05
5.31714e-05
6.28177e-05
6.6925e-05
4.80408e-05
6.28164e-05
6.69211e-05
4.80398e-05
5.31664e-05
6.28159e-05
6.69214e-05
4.80386e-05
7.07156e-05
7.45212e-05
7.45214e-05
7.0716e-05
7.0714e-05
7.4518e-05
7.45181e-05
7.07144e-05
6.28152e-05
5.31708e-05
6.69217e-05
4.80403e-05
6.69231e-05
4.80405e-05
6.2817e-05
6.28135e-05
5.31661e-05
6.69186e-05
4.80383e-05
6.69198e-05
4.80383e-05
6.28154e-05
7.18967e-05
7.18964e-05
5.57297e-05
7.18963e-05
7.1897e-05
7.20595e-05
7.20621e-05
7.20603e-05
7.20581e-05
5.57453e-05
7.18914e-05
7.18941e-05
7.18958e-05
7.18966e-05
7.20605e-05
7.20585e-05
6.28173e-05
6.69269e-05
4.80426e-05
5.31695e-05
6.28175e-05
6.69268e-05
4.80411e-05
7.0716e-05
7.452e-05
7.07149e-05
7.45202e-05
6.28161e-05
4.80434e-05
6.69229e-05
5.31704e-05
6.28163e-05
4.80421e-05
6.69237e-05
7.07144e-05
7.45227e-05
7.4523e-05
7.07146e-05
6.28142e-05
5.31688e-05
6.69234e-05
4.80401e-05
6.69247e-05
4.80405e-05
6.28155e-05
7.07132e-05
7.45186e-05
7.45189e-05
7.07134e-05
6.28131e-05
5.31702e-05
4.80413e-05
6.69217e-05
4.80416e-05
6.6922e-05
6.28145e-05
7.07178e-05
7.4523e-05
7.07163e-05
7.45233e-05
6.28188e-05
4.80444e-05
6.69224e-05
5.31719e-05
6.28182e-05
4.80432e-05
6.69228e-05
7.07182e-05
7.45198e-05
7.07165e-05
7.452e-05
6.28166e-05
5.31704e-05
6.69243e-05
4.80418e-05
6.6925e-05
4.80417e-05
6.28183e-05
7.07155e-05
7.45217e-05
7.4522e-05
7.07155e-05
6.28161e-05
5.31715e-05
4.80429e-05
6.69197e-05
4.80429e-05
6.6921e-05
6.28179e-05
7.07156e-05
7.45182e-05
7.45186e-05
7.07158e-05
7.18982e-05
7.18951e-05
5.57315e-05
7.18991e-05
7.18962e-05
7.20594e-05
7.2062e-05
7.20619e-05
7.20599e-05
5.57475e-05
7.18984e-05
7.18952e-05
7.18991e-05
7.18961e-05
7.20606e-05
7.20586e-05
6.28162e-05
4.80441e-05
6.69245e-05
5.317e-05
6.28159e-05
4.80428e-05
6.6925e-05
7.07168e-05
7.45237e-05
7.07153e-05
7.4524e-05
7.07136e-05
7.45215e-05
7.07124e-05
7.45217e-05
6.28158e-05
5.31741e-05
4.80446e-05
6.69252e-05
4.80447e-05
6.69254e-05
6.28176e-05
6.28136e-05
5.31695e-05
4.80423e-05
6.6922e-05
4.80425e-05
6.69231e-05
6.28152e-05
7.07145e-05
7.45225e-05
7.45227e-05
7.07149e-05
7.07115e-05
7.45201e-05
7.45204e-05
7.07116e-05
7.2059e-05
7.20613e-05
7.20619e-05
7.20642e-05
5.57473e-05
7.18874e-05
7.18963e-05
7.18911e-05
7.18997e-05
7.20595e-05
7.20577e-05
7.20625e-05
7.20607e-05
7.20552e-05
7.20573e-05
7.20583e-05
7.20603e-05
7.18885e-05
7.18967e-05
5.57286e-05
7.18835e-05
7.18919e-05
7.20566e-05
7.20538e-05
7.20596e-05
7.20569e-05
5.57422e-05
7.18775e-05
7.18858e-05
7.18812e-05
7.18895e-05
7.07101e-05
7.45165e-05
7.07112e-05
7.45162e-05
6.2812e-05
6.69193e-05
4.80397e-05
5.31646e-05
6.28138e-05
6.69159e-05
4.80373e-05
6.28105e-05
6.69165e-05
4.80378e-05
5.31617e-05
6.28123e-05
6.69131e-05
4.80357e-05
7.07081e-05
7.45179e-05
7.45179e-05
7.07068e-05
7.07066e-05
7.45148e-05
7.45148e-05
7.07055e-05
6.28077e-05
5.31616e-05
6.69106e-05
4.80312e-05
6.69131e-05
4.80341e-05
6.28055e-05
6.28062e-05
5.31585e-05
6.6908e-05
4.80296e-05
6.69106e-05
4.80325e-05
6.28041e-05
7.18904e-05
7.18917e-05
5.57309e-05
7.18846e-05
7.18867e-05
7.20568e-05
7.20589e-05
7.20579e-05
7.2055e-05
5.57442e-05
7.18783e-05
7.18804e-05
7.18835e-05
7.18842e-05
7.2058e-05
7.20553e-05
6.28107e-05
6.69207e-05
4.80391e-05
5.31624e-05
6.28124e-05
6.69177e-05
4.80363e-05
7.07089e-05
7.45171e-05
7.07101e-05
7.45165e-05
6.28097e-05
4.80406e-05
6.69193e-05
5.31662e-05