/*--------------------------------*- C++ -*----------------------------------*\
| =========                 |                                                 |
| \\      /  F ield         | OpenFOAM: The Open Source CFD Toolbox           |
|  \\    /   O peration     | Version:  2312                                  |
|   \\  /    A nd           | Website:  www.openfoam.com                      |
|    \\/     M anipulation  |                                                 |
\*---------------------------------------------------------------------------*/
FoamFile
{
    version     2.0;
    format      ascii;
    arch        "LSB;label=32;scalar=64";
    class       volScalarField;
    location    "250";
    object      nut;
}
// * * * * * * * * * * * * * * * * * * * * * * * * * * * * * * * * * * * * * //

dimensions      [0 2 -1 0 0 0 0];

internalField   nonuniform List<scalar> 
42840
(
0.000146049
9.8873e-05
9.88712e-05
8.20857e-05
0.000142032
9.65665e-05
9.65657e-05
8.21419e-05
0.000138104
9.4778e-05
9.47778e-05
8.2679e-05
0.000134282
9.35059e-05
9.35054e-05
8.36512e-05
0.000130618
9.27373e-05
9.27357e-05
8.50083e-05
0.000127142
9.24511e-05
9.24533e-05
8.66902e-05
0.000123889
9.26262e-05
9.26282e-05
8.86301e-05
0.000120889
9.32289e-05
9.32255e-05
9.07855e-05
0.000118176
9.42167e-05
9.42228e-05
9.31146e-05
0.000115781
9.55584e-05
9.55647e-05
9.55528e-05
0.000113726
9.72257e-05
9.72262e-05
9.81022e-05
0.000112006
9.91683e-05
9.91711e-05
0.000100711
0.00011063
0.000101339
0.000101347
0.000103382
0.000109664
0.00010375
0.000103756
0.000106079
0.000109071
0.00010634
0.000106345
0.000108796
0.000108846
0.000109082
0.000109089
0.000111526
0.000108948
0.000111946
0.000111959
0.000114247
0.000109394
0.000114905
0.000114908
0.000116969
0.000110211
0.000117952
0.000117961
0.000119655
0.000111312
0.000121062
0.000121075
0.000122347
0.000112768
0.000124243
0.000124249
0.000124993
0.0001144
0.000127363
0.000127374
0.000127587
0.000116508
0.000130671
0.000130684
0.000130268
0.000118598
0.000133773
0.000133773
0.000132688
0.000121191
0.000137038
0.000137068
0.000135371
8.20905e-05
8.22061e-05
9.88447e-05
9.88331e-05
9.70683e-05
9.70582e-05
8.20913e-05
8.22042e-05
9.88652e-05
9.8834e-05
9.70886e-05
9.70585e-05
9.88502e-05
9.70945e-05
9.70728e-05
8.2091e-05
8.2198e-05
9.88612e-05
9.70951e-05
9.70833e-05
8.21918e-05
8.21509e-05
8.26416e-05
9.65387e-05
9.65287e-05
9.515e-05
9.5141e-05
8.21502e-05
8.26407e-05
9.65587e-05
9.65299e-05
9.51695e-05
9.51404e-05
9.65453e-05
9.51751e-05
9.51545e-05
8.2147e-05
8.26335e-05
9.6555e-05
9.51754e-05
9.51638e-05
8.26306e-05
8.26894e-05
8.35243e-05
9.47525e-05
9.47427e-05
9.37473e-05
9.37416e-05
8.26879e-05
8.3527e-05
9.47715e-05
9.47438e-05
9.37659e-05
9.37398e-05
9.47584e-05
9.37737e-05
9.37538e-05
8.26823e-05
8.352e-05
9.47668e-05
9.3773e-05
9.37619e-05
8.35193e-05
8.36572e-05
8.48071e-05
9.34802e-05
9.34728e-05
9.28555e-05
9.28495e-05
8.36605e-05
8.48043e-05
9.34982e-05
9.34732e-05
9.2873e-05
9.28489e-05
9.34864e-05
9.28793e-05
9.2864e-05
8.36535e-05
8.48025e-05
9.34936e-05
9.28803e-05
9.28708e-05
8.48038e-05
8.50106e-05
8.64247e-05
9.27116e-05
9.27065e-05
9.24565e-05
9.24495e-05
8.50116e-05
8.64207e-05
9.27284e-05
9.27053e-05
9.24728e-05
9.24516e-05
9.27194e-05
9.24772e-05
9.24658e-05
8.50063e-05
8.64223e-05
9.27254e-05
9.2481e-05
9.24712e-05
8.64203e-05
8.66927e-05
8.83107e-05
9.24299e-05
9.24227e-05
9.252e-05
9.2517e-05
8.66883e-05
8.83133e-05
9.24454e-05
9.2425e-05
9.2535e-05
9.25152e-05
9.24395e-05
9.25428e-05
9.25283e-05
8.66898e-05
8.83082e-05
9.24441e-05
9.25429e-05
9.25323e-05
8.83055e-05
8.86353e-05
9.04213e-05
9.26049e-05
9.25996e-05
9.30195e-05
9.30155e-05
8.86375e-05
9.04178e-05
9.26191e-05
9.26014e-05
9.30332e-05
9.30149e-05
9.26153e-05
9.30393e-05
9.30273e-05
8.86328e-05
9.04205e-05
9.26184e-05
9.30407e-05
9.30301e-05
9.04204e-05
9.07905e-05
9.27029e-05
9.32071e-05
9.32043e-05
9.39142e-05
9.39081e-05
9.07905e-05
9.26987e-05
9.32198e-05
9.32008e-05
9.39266e-05
9.39161e-05
9.32141e-05
9.39304e-05
9.39279e-05
9.07868e-05
9.27089e-05
9.3216e-05
9.39409e-05
9.39289e-05
9.27095e-05
9.31089e-05
9.5124e-05
9.41999e-05
9.41941e-05
9.51716e-05
9.51695e-05
9.31029e-05
9.51274e-05
9.42114e-05
9.4199e-05
9.51823e-05
9.5168e-05
9.42094e-05
9.519e-05
9.51847e-05
9.31161e-05
9.5116e-05
9.42099e-05
9.51909e-05
9.51843e-05
9.51216e-05
9.55498e-05
9.7659e-05
9.55416e-05
9.55374e-05
9.67621e-05
9.67576e-05
9.55519e-05
9.7655e-05
9.55516e-05
9.55426e-05
9.67716e-05
9.67578e-05
9.55558e-05
9.67774e-05
9.67708e-05
9.55467e-05
9.76579e-05
9.55546e-05
9.67797e-05
9.6769e-05
9.7653e-05
9.81073e-05
0.000100247
9.721e-05
9.72057e-05
9.86347e-05
9.86328e-05
9.81053e-05
0.000100248
9.72189e-05
9.72053e-05
9.86428e-05
9.8638e-05
9.72224e-05
9.86516e-05
9.86485e-05
9.81006e-05
0.000100257
9.72198e-05
9.86593e-05
9.86455e-05
0.000100253
0.000100712
0.000102907
9.91506e-05
9.91495e-05
0.000100778
0.000100769
0.000100713
0.000102899
9.9158e-05
9.91504e-05
0.000100785
0.000100775
9.91597e-05
0.000100786
0.00010079
0.00010072
0.000102901
9.91563e-05
0.000100794
0.000100785
0.000102907
0.000103378
0.000105598
0.000101327
0.00010132
0.000103139
0.000103139
0.000103369
0.000105607
0.000101335
0.000101328
0.000103144
0.000103139
0.000101344
0.000103155
0.000103152
0.000103377
0.000105603
0.000101338
0.000103159
0.000103147
0.0001056
0.000106081
0.000108309
0.000103739
0.000103736
0.000105665
0.000105657
0.000106086
0.0001083
0.000103744
0.000103738
0.00010567
0.000105666
0.000103748
0.000105678
0.000105682
0.000106082
0.000108309
0.000103743
0.000105685
0.000105673
0.000108309
0.000108794
0.000111039
0.000106324
0.000106318
0.000108377
0.000108373
0.000108789
0.000111039
0.000106328
0.000106324
0.000108381
0.000108375
0.000106343
0.000108382
0.000108385
0.000108795
0.00011104
0.000106333
0.000108393
0.00010838
0.000111039
0.000111527
0.000113757
0.00010907
0.000109068
0.000111204
0.000111199
0.000111526
0.000113758
0.000109075
0.000109071
0.000111207
0.000111203
0.000109084
0.000111218
0.000111219
0.000111529
0.000113758
0.000109076
0.000111223
0.000111209
0.000113758
0.00011425
0.000116481
0.000111944
0.000111934
0.000114152
0.000114142
0.000114247
0.000116471
0.000111947
0.00011194
0.000114155
0.000114153
0.000111947
0.000114161
0.000114172
0.000114248
0.000116486
0.000111944
0.000114173
0.000114161
0.000116485
0.000116959
0.000119177
0.000114883
0.00011488
0.000117177
0.000117178
0.000116958
0.000119186
0.000114884
0.000114886
0.000117179
0.000117174
0.000114912
0.000117189
0.000117183
0.000116968
0.000119175
0.000114895
0.000117192
0.000117176
0.000119172
0.000119665
0.000121875
0.00011795
0.000117941
0.000120285
0.000120267
0.000119662
0.000121859
0.000117953
0.000117945
0.000120286
0.000120283
0.000117952
0.000120286
0.000120299
0.000119658
0.00012188
0.000117947
0.000120306
0.000120291
0.000121878
0.000122343
0.000124515
0.000121053
0.000121043
0.000123423
0.000123419
0.000122336
0.000124521
0.000121053
0.000121053
0.000123423
0.000123422
0.000121068
0.000123438
0.000123435
0.00012235
0.000124517
0.000121059
0.000123441
0.000123425
0.000124516
0.000124994
0.000127145
0.000124232
0.000124225
0.000126585
0.00012657
0.000124994
0.000127137
0.000124233
0.00012423
0.000126585
0.000126579
0.000124245
0.000126585
0.000126593
0.000124995
0.000127144
0.000124234
0.000126601
0.000126585
0.000127142
0.00012759
0.000129813
0.000127359
0.000127345
0.000129873
0.000129864
0.000127583
0.000129812
0.000127358
0.000127353
0.000129872
0.000129869
0.000127365
0.000129884
0.000129885
0.00012759
0.000129816
0.000127357
0.000129891
0.000129876
0.000129815
0.000130266
0.000132221
0.000130668
0.000130657
0.000132882
0.000132865
0.000130266
0.000132213
0.000130667
0.000130664
0.000132881
0.00013288
0.000130681
0.000132887
0.000132886
0.000130268
0.000132225
0.000130672
0.0001329
0.00013288
0.000132217
0.000132693
0.000135015
0.000133755
0.000133741
0.000136346
0.000136329
0.000132685
0.000135011
0.000133753
0.000133753
0.000136345
0.000136339
0.000133761
0.000136334
0.000136353
0.0001327
0.000135013
0.000133752
0.000136363
0.000136347
0.000135015
0.000135374
0.000137059
0.000137041
0.000135368
0.000137057
0.000137048
0.000137057
0.000135367
0.000137053
7.20527e-05
4.95767e-05
4.95851e-05
7.12046e-05
2.3615e-05
2.36118e-05
7.20502e-05
4.95713e-05
4.95796e-05
7.12029e-05
0.000146045
0.00014604
0.000146039
0.000143016
0.000143011
0.000143007
0.000143007
7.00391e-05
6.76818e-05
0.000122224
9.82456e-05
6.83504e-05
0.000121245
6.90397e-05
2.36142e-05
2.3611e-05
7.00576e-05
0.000122207
6.76699e-05
9.82451e-05
0.000121247
6.83659e-05
6.90268e-05
6.20244e-05
6.20232e-05
8.21518e-05
6.24272e-05
6.24256e-05
7.38025e-05
4.95952e-05
7.3059e-05
4.96025e-05
2.36037e-05
2.36008e-05
7.38002e-05
4.95897e-05
7.30568e-05
4.95971e-05
0.000142028
0.000142023
0.000142023
0.000139057
0.000139053
0.000139049
0.000139048
7.30557e-05
6.94777e-05
0.000118526
9.60665e-05
7.19965e-05
7.01256e-05
0.00011761
2.36029e-05
2.35999e-05
7.3074e-05
0.000118509
6.94675e-05
9.60668e-05
7.19815e-05
0.000117613
7.01397e-05
6.29034e-05
6.29015e-05
8.23561e-05
6.32688e-05
6.3267e-05
7.53419e-05
4.96113e-05
7.46841e-05
4.96176e-05
2.35934e-05
2.35907e-05
7.53394e-05
4.96059e-05
7.46811e-05
4.96123e-05
0.0001381
0.000138096
0.000138095
0.000135219
0.000135216
0.000135211
0.000135211
7.60615e-05
7.11711e-05
0.000115126
9.44081e-05
7.49632e-05
7.18007e-05
0.000114308
2.35926e-05
2.35899e-05
7.60773e-05
0.00011511
7.11603e-05
9.44094e-05
7.49494e-05
0.00011431
7.18155e-05
6.37107e-05
6.37087e-05
8.30328e-05
6.40481e-05
6.40459e-05
7.67087e-05
4.96254e-05
7.61177e-05
4.96311e-05
2.3584e-05
2.35816e-05
7.6705e-05
4.962e-05
7.61149e-05
4.96257e-05
0.000134278
0.000134274
0.000134273
0.000131513
0.000131511
0.000131506
0.000131506
7.90059e-05
7.27645e-05
0.000112032
9.32641e-05
7.78844e-05
7.33807e-05
0.000111307
2.35832e-05
2.35808e-05
7.90204e-05
0.000112016
7.27512e-05
9.32673e-05
7.78726e-05
0.000111309
7.33969e-05
6.44535e-05
6.44513e-05
8.41235e-05
6.4771e-05
6.47687e-05
7.79305e-05
4.96377e-05
7.74e-05
4.96431e-05
2.35756e-05
2.35735e-05
7.79268e-05
4.96323e-05
7.7398e-05
4.96377e-05
0.000130616
0.000130611
0.000130611
0.000127985
0.000127982
0.000127979
0.000127979
8.18532e-05
7.42644e-05
0.000109324
9.26218e-05
8.07279e-05
7.48704e-05
0.000108697
2.35748e-05
2.35727e-05
8.18655e-05
0.000109309
7.42494e-05
9.26227e-05
8.07174e-05
0.0001087
7.48848e-05
6.51428e-05
6.51405e-05
8.55735e-05
6.54398e-05
6.5437e-05
7.90402e-05
4.96491e-05
7.85625e-05
4.9654e-05
2.35681e-05
2.35664e-05
7.90371e-05
4.96437e-05
7.85599e-05
4.96486e-05
0.000127139
0.000127135
0.000127135
0.000124669
0.000124668
0.000124663
0.000124663
8.45905e-05
7.56798e-05
0.00010702
9.24535e-05
8.34736e-05
7.62733e-05
0.000106499
2.35673e-05
2.35655e-05
8.46022e-05
0.000107006
7.56674e-05
9.24557e-05
8.34648e-05
0.000106502
7.62865e-05
6.57883e-05
6.57858e-05
8.73309e-05
6.60635e-05
6.6061e-05
8.00617e-05
4.96599e-05
7.96213e-05
4.96645e-05
2.35616e-05
2.35602e-05
8.00583e-05
4.96545e-05
7.96182e-05
4.96591e-05
0.000123886
0.000123883
0.000123883
0.000121621
0.00012162
0.000121615
0.000121616
8.72151e-05
7.70226e-05
0.000105144
9.27346e-05
8.61074e-05
7.75976e-05
0.000104732
2.35608e-05
2.35594e-05
8.72215e-05
0.000105131
7.70107e-05
9.27416e-05
8.60994e-05
0.000104736
7.76106e-05
6.63912e-05
6.63881e-05
8.93391e-05
6.66506e-05
6.66477e-05
8.10077e-05
4.96704e-05
8.05952e-05
4.9675e-05
2.35561e-05
2.3555e-05
8.1004e-05
4.9665e-05
8.05925e-05
4.96695e-05
0.000120887
0.000120882
0.000120882
0.000118822
0.000118821
0.000118819
0.000118819
8.97247e-05
7.82971e-05
0.000103709
9.34374e-05
8.86254e-05
7.88566e-05
0.00010341
2.35553e-05
2.35542e-05
8.97209e-05
0.000103697
7.82862e-05
9.34379e-05
8.86272e-05
0.000103414
7.88597e-05
6.69572e-05
6.69543e-05
9.1537e-05
6.72014e-05
6.71981e-05
8.18848e-05
4.96809e-05
8.14977e-05
4.96858e-05
2.35516e-05
2.35509e-05
8.1882e-05
4.96755e-05
8.14951e-05
4.96804e-05
0.000118174
0.000118171
0.00011817
0.000116343
0.000116342
0.000116339
0.00011634
9.21055e-05
7.95013e-05
0.000102719
9.45217e-05
9.10392e-05
8.00507e-05
0.00010253
2.35508e-05
2.355e-05
9.21056e-05
0.000102709
7.95038e-05
9.45223e-05
9.10433e-05
0.000102534
8.00461e-05
6.74949e-05
6.74921e-05
9.39032e-05
6.77205e-05
6.77177e-05
8.2707e-05
4.96919e-05
8.23501e-05
4.9697e-05
2.35481e-05
2.35478e-05
8.27041e-05
4.96865e-05
8.23462e-05
4.96916e-05
0.00011578
0.000115778
0.000115778
0.000114194
0.000114194
0.00011419
0.000114192
9.43867e-05
8.06533e-05
0.000102172
9.59426e-05
9.33653e-05
8.11764e-05
0.000102088
2.35473e-05
2.3547e-05
9.43863e-05
0.000102164
8.0656e-05
9.59531e-05
9.33666e-05
0.000102092
8.11818e-05
6.80038e-05
6.80004e-05
9.63806e-05
6.82193e-05
6.8216e-05
8.34845e-05
4.97036e-05
8.31456e-05
4.97091e-05
2.35456e-05
2.35457e-05
8.34808e-05
4.96982e-05
8.31427e-05
4.97037e-05
0.000113725
0.000113722
0.000113724
0.0001124
0.000112401
0.000112399
0.0001124
9.65729e-05
8.1758e-05
0.000102053
9.76765e-05
9.55862e-05
8.22504e-05
0.000102067
2.35447e-05
2.35448e-05
9.65696e-05
0.000102045
8.17531e-05
9.7682e-05
9.5588e-05
0.000102071
8.22542e-05
6.84841e-05
6.8481e-05
9.89498e-05
6.8695e-05
6.86915e-05
8.42233e-05
4.97164e-05
8.39027e-05
4.97221e-05
2.35442e-05
2.35446e-05
8.42198e-05
4.9711e-05
8.38998e-05
4.97167e-05
0.000112007
0.000112004
0.000112004
0.000110992
0.000110991
0.00011099
0.000110991
9.86771e-05
8.28088e-05
0.000102336
9.9693e-05
9.77259e-05
8.32838e-05
0.00010247
2.35433e-05
2.35437e-05
9.8675e-05
0.00010233
8.28111e-05
9.9695e-05
9.77313e-05
0.000102475
8.32831e-05
6.8942e-05
6.89388e-05
0.000101565
6.91438e-05
6.91408e-05
8.49218e-05
4.97299e-05
8.46144e-05
4.97365e-05
2.35437e-05
2.35445e-05
8.49184e-05
4.97245e-05
8.46121e-05
4.9731e-05
0.000110628
0.000110629
0.00011063
0.00010993
0.000109932
0.00010993
0.000109931
0.000100699
8.3806e-05
0.000102988
0.000101947
9.97818e-05
8.42707e-05
0.000103259
2.35429e-05
2.35436e-05
0.000100691
0.000102983
8.38139e-05
0.000101954
9.97874e-05
0.000103262
8.42727e-05
6.93868e-05
6.9382e-05
0.000104255
6.95775e-05
6.95747e-05
8.55937e-05
4.9745e-05
8.53085e-05
4.97515e-05
2.35442e-05
2.35453e-05
8.55937e-05
4.97397e-05
8.53037e-05
4.97462e-05
0.000109663
0.000109663
0.000109662
0.000109198
0.000109199
0.000109199
0.000109202
0.000102645
8.47754e-05
0.000104033
0.00010439
0.000101781
8.52077e-05
0.000104379
2.35434e-05
2.35445e-05
0.000102643
0.000104032
8.47819e-05
0.0001044
0.000101793
0.000104387
8.52151e-05
6.98064e-05
6.98025e-05
0.00010695
6.99906e-05
6.99856e-05
8.62519e-05
4.97615e-05
8.59532e-05
4.97692e-05
2.35457e-05
2.35472e-05
8.6244e-05
4.97559e-05
8.59491e-05
4.97638e-05
0.000109072
0.000109073
0.000109075
0.00010885
0.000108849
0.00010885
0.000108851
0.000104546
8.57011e-05
0.000105427
0.000107017
0.000103708
8.61256e-05
0.000105827
2.35448e-05
2.35463e-05
0.000104544
0.000105419
8.57054e-05
0.000107024
0.000103707
0.00010583
8.61314e-05
7.021e-05
7.02076e-05
0.000109675
7.03939e-05
7.03876e-05
8.68518e-05
4.97782e-05
8.65978e-05
4.9787e-05
2.3548e-05
2.35498e-05
8.68496e-05
4.97729e-05
8.65971e-05
4.97815e-05
0.000108849
0.000108849
0.00010885
0.00010888
0.000108882
0.000108883
0.000108884
0.000106368
8.65857e-05
0.000107132
0.000109782
0.000105568
8.69978e-05
0.000107564
2.35472e-05
2.3549e-05
0.000106356
0.000107134
8.65976e-05
0.000109784
0.000105584
0.000107564
8.69941e-05
7.05969e-05
7.05962e-05
0.000112398
7.07719e-05
7.07636e-05
8.74914e-05
4.97987e-05
8.72324e-05
4.98058e-05
2.35514e-05
2.35534e-05
8.74905e-05
4.97934e-05
8.72291e-05
4.98004e-05
0.000108946
0.000108949
0.000108948
0.00010927
0.000109268
0.000109274
0.000109277
0.000108145
8.7454e-05
0.000109097
0.000112673
0.000107401
8.78311e-05
0.000109623
2.35505e-05
2.35525e-05
0.000108178
0.000109102
8.74683e-05
0.000112694
0.000107405
0.000109645
8.78553e-05
7.09791e-05
7.09796e-05
0.000115125
7.1137e-05
7.11411e-05
8.80798e-05
4.98187e-05
8.77912e-05
4.98284e-05
2.35554e-05
2.35579e-05
8.80723e-05
4.98131e-05
8.77837e-05
4.98232e-05
0.000109399
0.000109401
0.000109406
0.000109968
0.000109974
0.000109972
0.000109973
0.000109911
8.82855e-05
0.000111313
0.000115674
0.000109148
8.86623e-05
0.00011192
2.35545e-05
2.3557e-05
0.000109878
0.0001113
8.82744e-05
0.000115673
0.000109124
0.000111909
8.86666e-05
7.13478e-05
7.13323e-05
0.00011783
7.14983e-05
7.14964e-05
8.86549e-05
4.98404e-05
8.8419e-05
4.98498e-05
2.35604e-05
2.35633e-05
8.8651e-05
4.98353e-05
8.84231e-05
4.98447e-05
0.000110213
0.000110214
0.000110214
0.000111035
0.00011103
0.00011104
0.000111042
0.000111581
8.90748e-05
0.000113777
0.000118722
0.000110849
8.94503e-05
0.000114409
2.35595e-05
2.35622e-05
0.000111586
0.000113786
8.90894e-05
0.000118739
0.000110889
0.000114425
8.94578e-05
7.16867e-05
7.16853e-05
0.000120532
7.18563e-05
7.18497e-05
8.92242e-05
4.98633e-05
8.89761e-05
4.98738e-05
2.35663e-05
2.35693e-05
8.92223e-05
4.98584e-05
8.89691e-05
4.98689e-05
0.000111311
0.000111319
0.000111321
0.000112345
0.000112352
0.000112353
0.000112354
0.000113219
8.98535e-05
0.000116422
0.000121854
0.000112533
9.02071e-05
0.000117126
2.35651e-05
2.35681e-05
0.000113217
0.000116423
8.98632e-05
0.000121862
0.000112528
0.000117131
9.02096e-05
7.20278e-05
7.20245e-05
0.000123189
7.2174e-05
7.21696e-05
8.97909e-05
4.98883e-05
8.95492e-05
4.98991e-05
2.35726e-05
2.35759e-05
8.97863e-05
4.98833e-05
8.95472e-05
4.98942e-05
0.000112773
0.000112775
0.000112778
0.000114001
0.000113997
0.000114007
0.000114009
0.000114838
9.06039e-05
0.000119281
0.000125035
0.000114152
9.09558e-05
0.000120011
2.35716e-05
2.35748e-05
0.000114836
0.000119279
9.06114e-05
0.000125043
0.000114156
0.000120015
9.09649e-05
7.23623e-05
7.23577e-05
0.00012586
7.25143e-05
7.25091e-05
9.03321e-05
4.99136e-05
9.00965e-05
4.99259e-05
2.35795e-05
2.35835e-05
9.03284e-05
4.99086e-05
9.00928e-05
4.99209e-05
0.000114399
0.000114407
0.000114407
0.000115959
0.000115965
0.000115967
0.00011597
0.000116381
9.13128e-05
0.000122235
0.000128196
0.000115726
9.16548e-05
0.000123033
2.35785e-05
2.35825e-05
0.000116382
0.00012224
9.1323e-05
0.000128208
0.000115734
0.000123042
9.16619e-05
7.26573e-05
7.26541e-05
0.000128444
7.28186e-05
7.28148e-05
9.08649e-05
4.99412e-05
9.06679e-05
4.99502e-05
2.35872e-05
2.35901e-05
9.08622e-05
4.99363e-05
9.06646e-05
4.99452e-05
0.000116508
0.000116516
0.000116521
0.000117975
0.000117975
0.000117985
0.000117983
0.000117911
9.20683e-05
0.000125505
0.0001314
0.0001173
9.23252e-05
0.000126269
2.35862e-05
2.35892e-05
0.000117915
0.000125511
9.20754e-05
0.000131417
0.000117302
0.000126285
9.23382e-05
7.3017e-05
7.30113e-05
0.000131034
7.3078e-05
7.30749e-05
9.14407e-05
4.99698e-05
9.11288e-05
4.99851e-05
2.35966e-05
2.36008e-05
9.14354e-05
4.99647e-05
9.11256e-05
4.99801e-05
0.000118607
0.000118609
0.000118607
0.000120584
0.000120573
0.000120594
0.000120596
0.000119405
9.26528e-05
0.000128665
0.000134688
0.000118695
9.31194e-05
0.000129581
2.35956e-05
2.35999e-05
0.000119392
0.000128657
9.26544e-05
0.000134687
0.000118693
0.000129575
9.3109e-05
7.32694e-05
7.32634e-05
0.000133677
7.35262e-05
7.35174e-05
9.18528e-05
4.99954e-05
9.17469e-05
5.00053e-05
2.36026e-05
2.36073e-05
9.18526e-05
4.99905e-05
9.17436e-05
5.00003e-05
0.000121181
0.0001212
0.000121199
0.000120752
9.33716e-05
0.000132202
0.000137707
0.000120285
9.35171e-05
0.000132993
2.36017e-05
2.36062e-05
0.000120775
0.000132227
9.34177e-05
0.00013772
0.000120313
0.000133021
9.35386e-05
7.35421e-05
7.35436e-05
0.000135952
7.34983e-05
7.34999e-05
2.36173e-05
2.36141e-05
2.36152e-05
2.3612e-05
6.20228e-05
6.20213e-05
8.2153e-05
6.24414e-05
6.24395e-05
2.36084e-05
2.36116e-05
2.36063e-05
2.36094e-05
8.20513e-05
6.28666e-05
6.28641e-05
6.24823e-05
6.24803e-05
7.20504e-05
4.95706e-05
4.95789e-05
7.12024e-05
7.00469e-05
6.76648e-05
0.000122205
9.82198e-05
6.83749e-05
0.000121239
6.90343e-05
7.00475e-05
6.76613e-05
0.0001222
9.82084e-05
6.83661e-05
0.000121234
6.90311e-05
7.2159e-05
4.9594e-05
4.95863e-05
7.29591e-05
7.21567e-05
4.95879e-05
4.95802e-05
7.29566e-05
7.05037e-05
9.76309e-05
6.9275e-05
0.000119386
6.85824e-05
0.000120322
7.15545e-05
7.04997e-05
9.76202e-05
6.92665e-05
0.000119382
6.85819e-05
0.000120317
7.15552e-05
6.20127e-05
6.20198e-05
8.21478e-05
6.24318e-05
6.24399e-05
2.36166e-05
2.36135e-05
2.36061e-05
2.36094e-05
8.20455e-05
6.28575e-05
6.28667e-05
6.24741e-05
6.2481e-05
2.36078e-05
2.3611e-05
7.00424e-05
6.76635e-05
0.000122204
9.82404e-05
6.83714e-05
0.000121238
6.90369e-05
7.20485e-05
4.95673e-05
4.95757e-05
7.12011e-05
7.00417e-05
0.000122194
6.7662e-05
9.82078e-05
0.000121228
6.83651e-05
6.90356e-05
7.21573e-05
4.95886e-05
4.95808e-05
7.29555e-05
7.05064e-05
9.76512e-05
6.92714e-05
0.000119385
6.85804e-05
0.000120321
7.15488e-05
7.21555e-05
4.95847e-05
4.95769e-05
7.29537e-05
7.05049e-05
9.76189e-05
0.000119375
6.92693e-05
0.00012031
6.85728e-05
7.15478e-05
7.20591e-05
4.95725e-05
4.95809e-05
7.11945e-05
7.00449e-05
0.000122209
6.7672e-05
9.8223e-05
0.000121243
6.83572e-05
6.90334e-05
7.20511e-05
4.95683e-05
4.95766e-05
7.12003e-05
7.05099e-05
9.7659e-05
6.9254e-05
0.000119392
6.86001e-05
0.000120341
7.15458e-05
7.21497e-05
4.95897e-05
4.95822e-05
7.29646e-05
7.05032e-05
9.7633e-05
0.00011939
6.9265e-05
0.000120326
6.85752e-05
7.15513e-05
7.21551e-05
4.95856e-05
4.95778e-05
7.29567e-05
6.20171e-05
6.20226e-05
8.21481e-05
6.24294e-05
6.24356e-05
2.36164e-05
2.36132e-05
2.36054e-05
2.36085e-05
8.20426e-05
6.28599e-05
6.2866e-05
6.24703e-05
6.24763e-05
2.36075e-05
2.36107e-05
7.00438e-05
0.0001222
6.76625e-05
9.82343e-05
0.00012124
6.83664e-05
6.90352e-05
7.20598e-05
4.95724e-05
4.95807e-05
7.11958e-05
7.20572e-05
4.95667e-05
4.95749e-05
7.11941e-05
7.04971e-05
9.76554e-05
0.000119395
6.92702e-05
0.000120324
6.8581e-05
7.15611e-05
7.05061e-05
9.76433e-05
0.000119388
6.9273e-05
0.000120317
6.85658e-05
7.15468e-05
7.21505e-05
4.95897e-05
4.95819e-05
7.29626e-05
7.21485e-05
4.9584e-05
4.95762e-05
7.29596e-05
2.36151e-05
2.36118e-05
2.36139e-05
2.36106e-05
8.20439e-05
6.28638e-05
6.28619e-05
6.2468e-05
6.24663e-05
2.36062e-05
2.36093e-05
2.3605e-05
2.36081e-05
2.3606e-05
2.36031e-05
2.36039e-05
2.36009e-05
6.29052e-05
6.29027e-05
8.23573e-05
6.32788e-05
6.32761e-05
2.35979e-05
2.36008e-05
2.35958e-05
2.35986e-05
8.23504e-05
6.36789e-05
6.36755e-05
6.33184e-05
6.33156e-05
7.38001e-05
4.9589e-05
7.30566e-05
4.95964e-05
7.3064e-05
6.94628e-05
0.000118506
9.60402e-05
7.19901e-05
7.01469e-05
0.000117603
7.30644e-05
6.94579e-05
0.000118502
9.60312e-05
7.19859e-05
7.01384e-05
0.000117599
7.38956e-05
4.96103e-05
4.96035e-05
7.45954e-05
7.38932e-05
4.96042e-05
4.95974e-05
7.4593e-05
7.34736e-05
9.55793e-05
7.10004e-05
0.000115898
7.0319e-05
0.000116765
7.45704e-05
7.34694e-05
9.55707e-05
7.09916e-05
0.000115894
7.03179e-05
0.00011676
7.4571e-05
6.28946e-05
6.29025e-05
8.23545e-05
6.32693e-05
6.32777e-05
2.36053e-05
2.36024e-05
2.35956e-05
2.35985e-05
8.2348e-05
6.36692e-05
6.3678e-05
6.33099e-05
6.33168e-05
2.35973e-05
2.36001e-05
7.30602e-05
6.94608e-05
0.000118505
9.60602e-05
7.19919e-05
7.01432e-05
0.000117603
7.37984e-05
4.95859e-05
7.30549e-05
4.95931e-05
7.30592e-05
0.000118495
6.94596e-05
9.60309e-05
7.19903e-05
0.000117593
7.01374e-05
7.38941e-05
4.96049e-05
4.95981e-05
7.45913e-05
7.34765e-05
9.55988e-05
7.09962e-05
0.000115897
7.03168e-05
0.000116764
7.45647e-05
7.38922e-05
4.9601e-05
4.95942e-05
7.45894e-05
7.3475e-05
9.55689e-05
0.000115887
7.09922e-05
0.000116753
7.03094e-05
7.45632e-05
7.38085e-05
4.95909e-05
7.3049e-05
4.95982e-05
7.30616e-05
0.000118511
6.94667e-05
9.60463e-05
7.19894e-05
0.000117608
7.01329e-05
7.38007e-05
4.95868e-05
7.30547e-05
4.9594e-05
7.34807e-05
9.56072e-05
7.09797e-05
0.000115904
7.03368e-05
0.000116785
7.45619e-05
7.38861e-05
4.9606e-05
4.95993e-05
7.4601e-05
7.34735e-05
9.55836e-05
0.000115903
7.09874e-05
0.00011677
7.03149e-05
7.4567e-05
7.38916e-05
4.9602e-05
4.95951e-05
7.45931e-05
6.2899e-05
6.29048e-05
8.23566e-05
6.32673e-05
6.3274e-05
2.36051e-05
2.36021e-05
2.35949e-05
2.35976e-05
8.23474e-05
6.36697e-05
6.3676e-05
6.33062e-05
6.33126e-05
2.3597e-05
2.35998e-05
7.30606e-05
0.000118502
6.94565e-05
9.60562e-05
7.19896e-05
0.000117606
7.01411e-05
7.38102e-05
4.95908e-05
7.30485e-05
4.95981e-05
7.38075e-05
4.95852e-05
7.30462e-05
4.95925e-05
7.34691e-05
9.56039e-05
0.000115907
7.09946e-05
0.000116768
7.03182e-05
7.45769e-05
7.34771e-05
9.55927e-05
0.0001159
7.09949e-05
0.000116761
7.03052e-05
7.45639e-05
7.38884e-05
4.9606e-05
4.95992e-05
7.45995e-05
7.38863e-05
4.96003e-05
4.95935e-05
7.45966e-05
2.36038e-05
2.36008e-05
2.36026e-05
2.35996e-05
8.23478e-05
6.36714e-05
6.36695e-05
6.33071e-05
6.33053e-05
2.35957e-05
2.35985e-05
2.35945e-05
2.35973e-05
2.35957e-05
2.3593e-05
2.35935e-05
2.35908e-05
6.3717e-05
6.37137e-05
8.30371e-05
6.40556e-05
6.40523e-05
2.35884e-05
2.35908e-05
2.35862e-05
2.35887e-05
8.31207e-05
6.44242e-05
6.44205e-05
6.40921e-05
6.40887e-05
7.53394e-05
4.96052e-05
7.46816e-05
4.96116e-05
7.60706e-05
7.11577e-05
0.000115105
9.43835e-05
7.49569e-05
7.18215e-05
0.000114301
7.60705e-05
7.11518e-05
0.000115101
9.43751e-05
7.49527e-05
7.18118e-05
0.000114297
7.54235e-05
4.96245e-05
4.96185e-05
7.60394e-05
7.5421e-05
4.96184e-05
4.96124e-05
7.6037e-05
7.64269e-05
9.40484e-05
7.26211e-05
0.000112747
7.19603e-05
0.000113506
7.75461e-05
7.64225e-05
9.40419e-05
7.26141e-05
0.000112744
7.19571e-05
0.000113502
7.75464e-05
6.37058e-05
6.37134e-05
8.30327e-05
6.40452e-05
6.40543e-05
2.3595e-05
2.35923e-05
2.35861e-05
2.35886e-05
8.31177e-05
6.44156e-05
6.44248e-05
6.40828e-05
6.40905e-05
2.35877e-05
2.35902e-05
7.60667e-05
7.11549e-05
0.000115105
9.44025e-05
7.49576e-05
7.18175e-05
0.0001143
7.53376e-05
4.9602e-05
7.46791e-05
4.96083e-05
7.60653e-05
0.000115094
7.11521e-05
9.43754e-05
7.4956e-05
0.00011429
7.18123e-05
7.54222e-05
4.96191e-05
4.96131e-05
7.60358e-05
7.64298e-05
9.4067e-05
7.2617e-05
0.000112747
7.19576e-05
0.000113505
7.75416e-05
7.54203e-05
4.96152e-05
4.96092e-05
7.6034e-05
7.64283e-05
9.40401e-05
0.000112737
7.2612e-05
0.000113495
7.19514e-05
7.75399e-05
7.53473e-05
4.9607e-05
7.4674e-05
4.96134e-05
7.60672e-05
0.000115111
7.11577e-05
9.43907e-05
7.49561e-05
0.000114306
7.18089e-05
7.53397e-05
4.96029e-05
7.46797e-05
4.96093e-05
7.64337e-05
9.40762e-05
7.26034e-05
0.000112756
7.19768e-05
0.000113527
7.75383e-05
7.54137e-05
4.96202e-05
4.96143e-05
7.60453e-05
7.64266e-05
9.40554e-05
0.000112753
7.26081e-05
0.000113513
7.19586e-05
7.75428e-05
7.54193e-05
4.96162e-05
4.96101e-05
7.60373e-05
6.37087e-05
6.37147e-05
8.30341e-05
6.40453e-05
6.4052e-05
2.35948e-05
2.3592e-05
2.35853e-05
2.35877e-05
8.3118e-05
6.44135e-05
6.44203e-05
6.4081e-05
6.40875e-05
2.35874e-05
2.35899e-05
7.60647e-05
0.000115103
7.1147e-05
9.43993e-05
7.49565e-05
0.000114303
7.18161e-05
7.53474e-05
4.9607e-05
7.46734e-05
4.96133e-05
7.53445e-05
4.96013e-05
7.4671e-05
4.96077e-05
7.64221e-05
9.40733e-05
0.000112758
7.2616e-05
0.000113511
7.196e-05
7.7553e-05
7.64287e-05
9.40632e-05
0.000112751
7.26156e-05
0.000113503
7.19478e-05
7.75411e-05
7.5415e-05
4.96202e-05
4.96142e-05
7.60453e-05
7.54125e-05
4.96146e-05
4.96085e-05
7.60424e-05
2.35935e-05
2.35907e-05
2.35923e-05
2.35896e-05
8.31185e-05
6.44153e-05
6.44132e-05
6.40838e-05
6.40816e-05
2.35861e-05
2.35886e-05
2.35849e-05
2.35874e-05
2.35863e-05
2.35839e-05
2.35842e-05
2.35818e-05
6.4462e-05
6.44583e-05
8.41296e-05
6.47795e-05
6.47756e-05
2.35797e-05
2.35819e-05
2.35776e-05
2.35797e-05
8.42999e-05
6.51151e-05
6.51111e-05
6.48139e-05
6.48099e-05
7.67061e-05
4.96193e-05
7.61153e-05
4.9625e-05
7.90154e-05
7.27499e-05
0.000112011
9.32417e-05
7.7877e-05
7.34023e-05
0.000111298
7.9015e-05
7.27449e-05
0.000112007
9.32333e-05
7.7873e-05
7.33917e-05
0.000111295
7.67818e-05
4.9637e-05
4.96318e-05
7.73318e-05
7.67791e-05
4.9631e-05
4.96257e-05
7.73293e-05
7.93181e-05
9.30337e-05
7.41505e-05
0.000109943
7.35127e-05
0.000110609
8.04487e-05
7.93135e-05
9.30255e-05
7.41433e-05
0.000109941
7.35057e-05
0.000110606
8.04483e-05
6.44519e-05
6.44597e-05
8.41256e-05
6.47668e-05
6.47759e-05
2.35856e-05
2.35833e-05
2.35775e-05
2.35797e-05
8.42935e-05
6.51065e-05
6.51161e-05
6.48018e-05
6.48095e-05
2.35791e-05
2.35812e-05
7.90105e-05
7.27466e-05
0.00011201
9.32598e-05
7.78781e-05
7.33979e-05
0.000111298
7.6703e-05
4.96161e-05
7.6113e-05
4.96218e-05
7.90086e-05
0.000112
7.27427e-05
9.32351e-05
7.78766e-05
0.000111288
7.33924e-05
7.67793e-05
4.96316e-05
4.96264e-05
7.73289e-05
7.93193e-05
9.30511e-05
7.41463e-05
0.000109944
7.3509e-05
0.000110609
8.0445e-05
7.67772e-05
4.96278e-05
4.96225e-05
7.7327e-05
7.93177e-05
9.30265e-05
0.000109934
7.41407e-05
0.000110599
7.3503e-05
8.04431e-05
7.67133e-05
4.96211e-05
7.61082e-05
4.96267e-05
7.90113e-05
0.000112018
7.27481e-05
9.32487e-05
7.78769e-05
0.000111305
7.33885e-05
7.67061e-05
4.9617e-05
7.61136e-05
4.96227e-05
7.93239e-05
9.30573e-05
7.41332e-05
0.000109953
7.35254e-05
0.00011063
8.04405e-05
7.67715e-05
4.96328e-05
4.96275e-05
7.73372e-05
7.93173e-05
9.30414e-05
0.000109951
7.41385e-05
0.000110617
7.35102e-05
8.04451e-05
7.67772e-05
4.96287e-05
4.96234e-05
7.73296e-05
6.4452e-05
6.44585e-05
8.41275e-05
6.47689e-05
6.47757e-05
2.35854e-05
2.3583e-05
2.35766e-05
2.35788e-05
8.42975e-05
6.51036e-05
6.5111e-05
6.48026e-05
6.48092e-05
2.35788e-05
2.3581e-05
7.90089e-05
0.000112009
7.27372e-05
9.32561e-05
7.78787e-05
0.000111302
7.33956e-05
7.6713e-05
4.9621e-05
7.6109e-05
4.96267e-05
7.67101e-05
4.96154e-05
7.61065e-05
4.96211e-05
7.93133e-05
9.30577e-05
0.000109956
7.41465e-05
0.000110615
7.35113e-05
8.04536e-05
7.93188e-05
9.3048e-05
0.000109948
7.4146e-05
0.000110608
7.34985e-05
8.04428e-05
7.67722e-05
4.96328e-05
4.96274e-05
7.73371e-05
7.67696e-05
4.96271e-05
4.96218e-05
7.73342e-05
2.35841e-05
2.35817e-05
2.35829e-05
2.35805e-05
8.42951e-05
6.51072e-05
6.51049e-05
6.48053e-05
6.48029e-05
2.35775e-05
2.35796e-05
2.35763e-05
2.35785e-05
2.35778e-05
2.35758e-05
2.35757e-05
2.35736e-05
6.51507e-05
6.51466e-05
8.5577e-05
6.54495e-05
6.54451e-05
2.35721e-05
2.3574e-05
2.35699e-05
2.35718e-05
8.58212e-05
6.57632e-05
6.57587e-05
6.54833e-05
6.54788e-05
7.7928e-05
4.96317e-05
7.73976e-05
4.9637e-05