/*--------------------------------*- C++ -*----------------------------------*\
| =========                 |                                                 |
| \\      /  F ield         | OpenFOAM: The Open Source CFD Toolbox           |
|  \\    /   O peration     | Version:  2312                                  |
|   \\  /    A nd           | Website:  www.openfoam.com                      |
|    \\/     M anipulation  |                                                 |
\*---------------------------------------------------------------------------*/
FoamFile
{
    version     2.0;
    format      ascii;
    arch        "LSB;label=32;scalar=64";
    class       volScalarField;
    location    "250";
    object      p;
}
// * * * * * * * * * * * * * * * * * * * * * * * * * * * * * * * * * * * * * //

dimensions      [0 2 -2 0 0 0 0];

internalField   nonuniform List<scalar> 
42840
(
0.00262535
0.0026253
0.0026253
0.00262774
0.0025857
0.00258564
0.00258564
0.00258807
0.00254627
0.00254621
0.00254621
0.00254863
0.00250705
0.002507
0.002507
0.0025094
0.00246805
0.00246799
0.002468
0.00247038
0.00242924
0.00242919
0.00242919
0.00243156
0.00239063
0.00239059
0.00239059
0.00239293
0.00235221
0.00235217
0.00235217
0.00235449
0.00231397
0.00231393
0.00231393
0.00231624
0.00227591
0.00227587
0.00227587
0.00227815
0.00223801
0.00223798
0.00223798
0.00224024
0.00220027
0.00220025
0.00220025
0.00220249
0.00216269
0.00216268
0.00216268
0.0021649
0.00212527
0.00212525
0.00212525
0.00212746
0.00208799
0.00208798
0.00208798
0.00209016
0.00205085
0.00205084
0.00205084
0.00205301
0.00201385
0.00201383
0.00201383
0.00201599
0.00197698
0.00197696
0.00197696
0.0019791
0.00194024
0.00194021
0.00194021
0.00194234
0.00190361
0.00190357
0.00190357
0.00190569
0.00186709
0.00186704
0.00186704
0.00186916
0.00183068
0.00183062
0.00183062
0.00183273
0.00179435
0.00179429
0.00179429
0.00179638
0.00175816
0.00175809
0.00175809
0.00176018
0.00172199
0.00172191
0.00172191
0.00172398
0.00262774
0.00259324
0.0026253
0.0026253
0.00259553
0.00259553
0.00262774
0.00259324
0.0026253
0.0026253
0.00259553
0.00259553
0.0026253
0.00259553
0.00259554
0.00262774
0.00259324
0.0026253
0.00259553
0.00259554
0.00259324
0.00258807
0.00255378
0.00258564
0.00258564
0.00255605
0.00255605
0.00258807
0.00255377
0.00258564
0.00258564
0.00255605
0.00255605
0.00258564
0.00255605
0.00255605
0.00258807
0.00255378
0.00258564
0.00255605
0.00255605
0.00255378
0.00254863
0.00251453
0.00254621
0.00254621
0.00251678
0.00251678
0.00254863
0.00251452
0.00254621
0.00254621
0.00251678
0.00251678
0.00254621
0.00251678
0.00251678
0.00254863
0.00251453
0.00254621
0.00251678
0.00251678
0.00251453
0.0025094
0.00247548
0.002507
0.002507
0.00247772
0.00247773
0.0025094
0.00247548
0.002507
0.002507
0.00247772
0.00247772
0.002507
0.00247773
0.00247772
0.0025094
0.00247548
0.002507
0.00247772
0.00247772
0.00247548
0.00247038
0.00243664
0.00246799
0.00246799
0.00243887
0.00243887
0.00247038
0.00243664
0.00246799
0.002468
0.00243887
0.00243887
0.00246799
0.00243887
0.00243887
0.00247038
0.00243664
0.00246799
0.00243887
0.00243887
0.00243664
0.00243156
0.002398
0.00242919
0.00242919
0.00240022
0.00240022
0.00243156
0.002398
0.00242919
0.00242919
0.00240022
0.00240022
0.00242919
0.00240022
0.00240022
0.00243156
0.002398
0.00242919
0.00240022
0.00240022
0.002398
0.00239293
0.00235954
0.00239059
0.00239059
0.00236176
0.00236176
0.00239293
0.00235954
0.00239059
0.00239059
0.00236176
0.00236176
0.00239059
0.00236176
0.00236176
0.00239293
0.00235954
0.00239059
0.00236176
0.00236176
0.00235954
0.00235449
0.00232126
0.00235217
0.00235217
0.00232348
0.00232348
0.00235449
0.00232126
0.00235217
0.00235217
0.00232348
0.00232348
0.00235217
0.00232348
0.00232348
0.00235449
0.00232126
0.00235217
0.00232348
0.00232348
0.00232126
0.00231624
0.00228316
0.00231393
0.00231393
0.00228537
0.00228537
0.00231624
0.00228316
0.00231393
0.00231393
0.00228537
0.00228537
0.00231393
0.00228537
0.00228537
0.00231624
0.00228316
0.00231393
0.00228537
0.00228537
0.00228316
0.00227815
0.00224523
0.00227587
0.00227587
0.00224743
0.00224743
0.00227815
0.00224523
0.00227587
0.00227587
0.00224743
0.00224743
0.00227587
0.00224743
0.00224744
0.00227815
0.00224523
0.00227587
0.00224743
0.00224744
0.00224523
0.00224024
0.00220747
0.00223798
0.00223798
0.00220967
0.00220967
0.00224024
0.00220747
0.00223798
0.00223798
0.00220967
0.00220967
0.00223798
0.00220967
0.00220967
0.00224024
0.00220747
0.00223798
0.00220967
0.00220967
0.00220747
0.00220249
0.00216986
0.00220025
0.00220025
0.00217206
0.00217206
0.00220249
0.00216986
0.00220025
0.00220025
0.00217206
0.00217206
0.00220025
0.00217206
0.00217206
0.00220249
0.00216986
0.00220025
0.00217206
0.00217206
0.00216986
0.0021649
0.00213241
0.00216268
0.00216268
0.0021346
0.00213459
0.0021649
0.0021324
0.00216268
0.00216268
0.0021346
0.0021346
0.00216268
0.00213459
0.0021346
0.0021649
0.00213241
0.00216268
0.0021346
0.0021346
0.00213241
0.00212746
0.0020951
0.00212525
0.00212525
0.00209728
0.00209728
0.00212746
0.0020951
0.00212525
0.00212525
0.00209728
0.00209728
0.00212525
0.00209728
0.00209728
0.00212746
0.0020951
0.00212525
0.00209728
0.00209728
0.0020951
0.00209016
0.00205793
0.00208798
0.00208798
0.00206011
0.00206011
0.00209016
0.00205793
0.00208798
0.00208798
0.00206011
0.00206011
0.00208798
0.00206011
0.00206011
0.00209016
0.00205793
0.00208798
0.00206011
0.00206011
0.00205793
0.00205301
0.0020209
0.00205084
0.00205084
0.00202307
0.00202307
0.00205301
0.0020209
0.00205084
0.00205084
0.00202307
0.00202307
0.00205084
0.00202307
0.00202307
0.00205301
0.0020209
0.00205084
0.00202307
0.00202307
0.0020209
0.00201599
0.001984
0.00201383
0.00201383
0.00198616
0.00198617
0.00201599
0.001984
0.00201383
0.00201383
0.00198616
0.00198617
0.00201383
0.00198617
0.00198617
0.00201599
0.001984
0.00201383
0.00198617
0.00198617
0.001984
0.0019791
0.00194723
0.00197696
0.00197696
0.00194938
0.00194938
0.0019791
0.00194723
0.00197696
0.00197696
0.00194938
0.00194938
0.00197696
0.00194938
0.00194938
0.0019791
0.00194723
0.00197696
0.00194938
0.00194938
0.00194723
0.00194234
0.00191057
0.00194021
0.00194021
0.00191272
0.00191272
0.00194234
0.00191057
0.00194021
0.00194021
0.00191272
0.00191272
0.00194021
0.00191272
0.00191272
0.00194234
0.00191057
0.00194021
0.00191272
0.00191272
0.00191057
0.00190569
0.00187403
0.00190357
0.00190357
0.00187616
0.00187616
0.00190569
0.00187402
0.00190357
0.00190357
0.00187616
0.00187616
0.00190357
0.00187616
0.00187616
0.00190569
0.00187403
0.00190357
0.00187616
0.00187616
0.00187402
0.00186916
0.00183759
0.00186704
0.00186704
0.00183972
0.00183972
0.00186916
0.00183759
0.00186704
0.00186704
0.00183972
0.00183972
0.00186704
0.00183972
0.00183972
0.00186916
0.00183759
0.00186704
0.00183972
0.00183972
0.00183759
0.00183273
0.00180123
0.00183062
0.00183062
0.00180336
0.00180336
0.00183273
0.00180123
0.00183062
0.00183062
0.00180336
0.00180336
0.00183062
0.00180336
0.00180336
0.00183273
0.00180123
0.00183062
0.00180336
0.00180336
0.00180123
0.00179638
0.00176502
0.00179429
0.00179429
0.00176713
0.00176713
0.00179638
0.00176502
0.00179429
0.00179429
0.00176713
0.00176713
0.00179429
0.00176713
0.00176713
0.00179638
0.00176502
0.00179429
0.00176713
0.00176713
0.00176502
0.00176018
0.00172882
0.00175809
0.00175809
0.00173094
0.00173094
0.00176018
0.00172882
0.00175809
0.00175809
0.00173094
0.00173094
0.00175809
0.00173094
0.00173094
0.00176018
0.00172882
0.00175809
0.00173094
0.00173094
0.00172882
0.00172398
0.00172191
0.00172191
0.00172398
0.00172191
0.00172191
0.00172191
0.00172398
0.00172191
0.00261279
0.00262758
0.00261271
0.00262765
0.00262756
0.00261269
0.00261279
0.00262758
0.00261271
0.00262765
0.00262535
0.00262535
0.00262535
0.00259559
0.00259559
0.00259559
0.00259559
0.00261304
0.00262764
0.00262533
0.00261537
0.00261287
0.00261539
0.00262776
0.00262756
0.00261269
0.00261304
0.00262533
0.00262764
0.00261537
0.00261539
0.00261287
0.00262776
0.00262763
0.00262763
0.00261306
0.00261275
0.00261275
0.0025732
0.00258791
0.00258798
0.00257313
0.00258789
0.00257311
0.0025732
0.00258791
0.00258798
0.00257313
0.0025857
0.0025857
0.00258569
0.00255611
0.0025561
0.0025561
0.0025561
0.00257343
0.00258796
0.00258566
0.00257576
0.00258807
0.00257327
0.00257578
0.00258789
0.00257311
0.00257343
0.00258566
0.00258796
0.00257576
0.00258807
0.00257578
0.00257327
0.00258796
0.00258796
0.00257348
0.00257317
0.00257316
0.00253383
0.00254847
0.00254853
0.00253376
0.00254845
0.00253375
0.00253383
0.00254847
0.00254853
0.00253376
0.00254627
0.00254627
0.00254627
0.00251684
0.00251684
0.00251684
0.00251684
0.00253405
0.00254851
0.00254622
0.00253638
0.0025486
0.0025339
0.0025364
0.00254845
0.00253375
0.00253405
0.00254622
0.00254851
0.00253638
0.0025486
0.0025364
0.0025339
0.00254851
0.00254851
0.00253412
0.0025338
0.0025338
0.00249468
0.00250924
0.0025093
0.00249461
0.00250922
0.0024946
0.00249468
0.00250924
0.0025093
0.00249461
0.00250705
0.00250705
0.00250705
0.00247778
0.00247778
0.00247778
0.00247778
0.00249489
0.00250927
0.00250701
0.00249723
0.00250936
0.00249474
0.00249724
0.00250922
0.0024946
0.00249489
0.00250701
0.00250927
0.00249723
0.00250936
0.00249724
0.00249474
0.00250928
0.00250928
0.00249498
0.00249465
0.00249465
0.00245574
0.00247022
0.00247028
0.00245567
0.0024702
0.00245566
0.00245574
0.00247022
0.00247028
0.00245567
0.00246805
0.00246805
0.00246805
0.00243892
0.00243892
0.00243892
0.00243892
0.00245593
0.00247025
0.002468
0.00245828
0.00247033
0.00245579
0.00245828
0.0024702
0.00245566
0.00245593
0.002468
0.00247025
0.00245828
0.00247033
0.00245828
0.00245579
0.00247025
0.00247025
0.00245604
0.0024557
0.0024557
0.00241699
0.0024314
0.00243146
0.00241693
0.00243139
0.00241691
0.00241699
0.0024314
0.00243146
0.00241693
0.00242924
0.00242924
0.00242924
0.00240026
0.00240026
0.00240026
0.00240026
0.00241717
0.00243142
0.0024292
0.00241952
0.00243149
0.00241704
0.00241953
0.00243139
0.00241691
0.00241717
0.0024292
0.00243142
0.00241952
0.00243149
0.00241953
0.00241704
0.00243144
0.00243144
0.00241729
0.00241695
0.00241695
0.00237843
0.00239278
0.00239283
0.00237837
0.00239277
0.00237836
0.00237843
0.00239278
0.00239283
0.00237837
0.00239063
0.00239063
0.00239063
0.0023618
0.0023618
0.0023618
0.00236179
0.00237861
0.0023928
0.00239059
0.00238097
0.00239286
0.00237848
0.00238097
0.00239277
0.00237836
0.00237861
0.00239059
0.0023928
0.00238097
0.00239286
0.00238097
0.00237848
0.00239281
0.00239281
0.00237874
0.0023784
0.0023784
0.00234006
0.00235434
0.00235439
0.00234001
0.00235433
0.00234
0.00234007
0.00235434
0.00235439
0.00234001
0.00235221
0.00235221
0.00235221
0.00232351
0.00232351
0.00232351
0.00232351
0.00234023
0.00235436
0.00235218
0.00234259
0.00235442
0.00234011
0.0023426
0.00235433
0.00234
0.00234023
0.00235218
0.00235436
0.00234259
0.00235442
0.0023426
0.00234011
0.00235437
0.00235437
0.00234038
0.00234003
0.00234003
0.00230187
0.00231609
0.00231614
0.00230182
0.00231608
0.00230181
0.00230187
0.00231609
0.00231614
0.00230182
0.00231397
0.00231397
0.00231397
0.00228541
0.0022854
0.00228541
0.00228541
0.00230204
0.0023161
0.00231394
0.0023044
0.00231616
0.00230192
0.00230441
0.00231608
0.00230181
0.00230204
0.00231394
0.0023161
0.0023044
0.00231616
0.00230441
0.00230192
0.00231612
0.00231612
0.00230219
0.00230184
0.00230184
0.00226386
0.00227801
0.00227806
0.0022638
0.002278
0.0022638
0.00226386
0.00227801
0.00227806
0.0022638
0.00227591
0.00227591
0.0022759
0.00224746
0.00224746
0.00224746
0.00224746
0.00226402
0.00227802
0.00227588
0.00226638
0.00227807
0.00226391
0.00226639
0.002278
0.0022638
0.00226402
0.00227588
0.00227802
0.00226638
0.00227807
0.00226639
0.00226391
0.00227804
0.00227804
0.00226418
0.00226383
0.00226383
0.00222601
0.0022401
0.00224015
0.00222596
0.0022401
0.00222596
0.00222601
0.0022401
0.00224015
0.00222596
0.002238
0.00223801
0.00223801
0.00220969
0.00220969
0.00220969
0.00220969
0.00222617
0.00224012
0.00223799
0.00222853
0.00224016
0.00222606
0.00222854
0.0022401
0.00222596
0.00222617
0.00223799
0.00224012
0.00222853
0.00224016
0.00222854
0.00222606
0.00224013
0.00224013
0.00222633
0.00222598
0.00222598
0.00218832
0.00220236
0.0022024
0.00218828
0.00220236
0.00218828
0.00218832
0.00220236
0.0022024
0.00218828
0.00220027
0.00220027
0.00220027
0.00217207
0.00217207
0.00217207
0.00217207
0.00218848
0.00220237
0.00220026
0.00219084
0.00220241
0.00218837
0.00219086
0.00220236
0.00218828
0.00218848
0.00220026
0.00220237
0.00219084
0.00220241
0.00219086
0.00218837
0.00220239
0.00220239
0.00218864
0.0021883
0.0021883
0.00215079
0.00216478
0.00216481
0.00215075
0.00216477
0.00215075
0.00215079
0.00216478
0.00216481
0.00215075
0.00216269
0.00216269
0.00216269
0.00213461
0.00213461
0.00213461
0.00213461
0.00215094
0.00216479
0.0021627
0.00215331
0.00216483
0.00215084
0.00215333
0.00216477
0.00215075
0.00215094
0.0021627
0.00216479
0.00215331
0.00216483
0.00215333
0.00215084
0.0021648
0.0021648
0.00215111
0.00215077
0.00215077
0.00211341
0.00212734
0.00212738
0.00211337
0.00212734
0.00211337
0.00211341
0.00212734
0.00212738
0.00211337
0.00212527
0.00212527
0.00212527
0.0020973
0.0020973
0.0020973
0.0020973
0.00211356
0.00212735
0.00212528
0.00211592
0.00212739
0.00211346
0.00211595
0.00212734
0.00211337
0.00211356
0.00212528
0.00212735
0.00211592
0.00212739
0.00211595
0.00211346
0.00212737
0.00212737
0.00211373
0.00211339
0.00211339
0.00207618
0.00209006
0.00209009
0.00207614
0.00209006
0.00207614
0.00207618
0.00209006
0.00209009
0.00207614
0.00208799
0.00208799
0.00208799
0.00206012
0.00206012
0.00206012
0.00206012
0.00207632
0.00209006
0.00208801
0.00207868
0.0020901
0.00207623
0.00207871
0.00209006
0.00207614
0.00207632
0.00208801
0.00209007
0.00207868
0.0020901
0.00207871
0.00207623
0.00209008
0.00209008
0.0020765
0.00207616
0.00207616
0.00203908
0.00205291
0.00205294
0.00203904
0.00205291
0.00203905
0.00203908
0.00205291
0.00205294
0.00203904
0.00205085
0.00205085
0.00205085
0.00202309
0.00202309
0.00202309
0.00202309
0.00203922
0.00205292
0.00205087
0.00204157
0.00205295
0.00203913
0.00204161
0.00205291
0.00203905
0.00203922
0.00205087
0.00205292
0.00204157
0.00205295
0.00204161
0.00203913
0.00205294
0.00205294
0.0020394
0.00203907
0.00203907
0.00200212
0.0020159
0.00201593
0.00200209
0.0020159
0.00200209
0.00200212
0.0020159
0.00201593
0.00200209
0.00201385
0.00201385
0.00201385
0.00198619
0.00198619
0.00198619
0.00198619
0.00200226
0.00201591
0.00201387
0.0020046
0.00201594
0.00200217
0.00200464
0.0020159
0.00200209
0.00200225
0.00201387
0.00201591
0.0020046
0.00201594
0.00200464
0.00200217
0.00201593
0.00201593
0.00200244
0.00200211
0.0020021
0.00196528
0.00197902
0.00197905
0.00196525
0.00197902
0.00196525
0.00196528
0.00197902
0.00197905
0.00196525
0.00197698
0.00197698
0.00197698
0.00194942
0.00194941
0.00194942
0.00194942
0.00196542
0.00197903
0.001977
0.00196776
0.00197906
0.00196533
0.00196781
0.00197902
0.00196526
0.00196542
0.001977
0.00197903
0.00196776
0.00197906
0.00196781
0.00196534
0.00197905
0.00197905
0.0019656
0.00196527
0.00196527
0.00192857
0.00194227
0.00194229
0.00192854
0.00194228
0.00192855
0.00192857
0.00194227
0.00194229
0.00192854
0.00194024
0.00194024
0.00194024
0.00191275
0.00191275
0.00191275
0.00191275
0.00192871
0.00194227
0.00194026
0.00193104
0.0019423
0.00192862
0.00193109
0.00194227
0.00192855
0.00192871
0.00194026
0.00194227
0.00193104
0.0019423
0.00193109
0.00192862
0.00194229
0.00194229
0.00192888
0.00192856
0.00192856
0.00189197
0.00190563
0.00190565
0.00189195
0.00190563
0.00189195
0.00189197
0.00190563
0.00190565
0.00189195
0.00190361
0.00190361
0.00190361
0.00187621
0.00187621
0.00187621
0.00187621
0.00189211
0.00190563
0.00190362
0.00189443
0.00190566
0.00189202
0.00189448
0.00190563
0.00189195
0.00189211
0.00190362
0.00190563
0.00189443
0.00190566
0.00189448
0.00189202
0.00190565
0.00190565
0.00189228
0.00189197
0.00189197
0.00185548
0.0018691
0.00186912
0.00185546
0.0018691
0.00185546
0.00185548
0.0018691
0.00186912
0.00185546
0.00186709
0.00186709
0.00186709
0.00183977
0.00183977
0.00183977
0.00183977
0.00185561
0.0018691
0.0018671
0.00185793
0.00186913
0.00185553
0.00185798
0.0018691
0.00185546
0.00185561
0.0018671
0.0018691
0.00185793
0.00186913
0.00185798
0.00185553
0.00186912
0.00186912
0.00185579
0.00185548
0.00185548
0.0018191
0.00183269
0.0018327
0.00181908
0.00183269
0.00181908
0.0018191
0.00183269
0.0018327
0.00181908
0.00183068
0.00183068
0.00183068
0.00180343
0.00180343
0.00180343
0.00180343
0.00181923
0.00183268
0.00183068
0.00182153
0.0018327
0.00181915
0.00182159
0.00183269
0.00181908
0.00181923
0.00183068
0.00183268
0.00182153
0.0018327
0.00182159
0.00181915
0.00183271
0.00183271
0.00181941
0.00181909
0.00181909
0.00178281
0.00179636
0.00179637
0.0017828
0.00179636
0.00178281
0.00178281
0.00179636
0.00179637
0.0017828
0.00179435
0.00179435
0.00179435
0.0017672
0.0017672
0.0017672
0.0017672
0.00178293
0.00179635
0.00179435
0.00178522
0.00179637
0.00178286
0.00178529
0.00179636
0.00178281
0.00178293
0.00179435
0.00179635
0.00178522
0.00179637
0.00178529
0.00178286
0.00179638
0.00179638
0.00178311
0.00178281
0.00178281
0.00174662
0.00176014
0.00176016
0.00174659
0.00176013
0.0017466
0.00174662
0.00176014
0.00176016
0.00174659
0.00175816
0.00175816
0.00175816
0.00173102
0.00173102
0.00173102
0.00173102
0.00174674
0.00176014
0.00175815
0.00174903
0.00176016
0.00174666
0.0017491
0.00176013
0.0017466
0.00174675
0.00175815
0.00176014
0.00174904
0.00176016
0.0017491
0.00174667
0.00176015
0.00176015
0.00174691
0.00174661
0.00174661
0.00171052
0.001724
0.001724
0.00171051
0.00172401
0.00171051
0.00171052
0.001724
0.001724
0.00171051
0.00172199
0.00172199
0.00172199
0.00171063
0.00172399
0.00172198
0.0017129
0.00172399
0.00171057
0.00171296
0.00172401
0.00171051
0.00171063
0.00172197
0.00172398
0.0017129
0.00172399
0.00171296
0.00171057
0.00172402
0.00172402
0.0017108
0.00171052
0.00171052
0.00262756
0.00261269
0.00262756
0.00261269
0.00262763
0.00262763
0.00261307
0.00261275
0.00261275
0.00259287
0.00260769
0.00259287
0.00260769
0.00260788
0.00259293
0.00259293
0.00260776
0.00260776
0.00261279
0.00262758
0.00261271
0.00262765
0.00261304
0.00262764
0.00262533
0.00261537
0.00261287
0.00261539
0.00262776
0.00261304
0.00262764
0.00262533
0.00261537
0.00261287
0.00261539
0.00262776
0.00260779
0.00259289
0.00260772
0.00259296
0.00260779
0.00259289
0.00260772
0.00259297
0.00260788
0.00260544
0.00259304
0.00259555
0.00260777
0.00260546
0.00259321
0.00260788
0.00260544
0.00259304
0.00259555
0.00260777
0.00260546
0.00259321
0.00262763
0.00262763
0.00261307
0.00261275
0.00261275
0.00262756
0.00261269
0.00259287
0.00260769
0.00260788
0.00259293
0.00259293
0.00260776
0.00260776
0.00259287
0.00260769
0.00261304
0.00262764
0.00262533
0.00261537
0.00261287
0.00261539
0.00262776
0.00261279
0.00262758
0.00261271
0.00262765
0.00261304
0.00262533
0.00262764
0.00261537
0.00261539
0.00261288
0.00262776
0.00260779
0.00259289
0.00260772
0.00259297
0.00260788
0.00260544
0.00259304
0.00259555
0.00260777
0.00260546
0.00259321
0.00260779
0.00259289
0.00260772
0.00259297
0.00260788
0.00260544
0.00259555
0.00259304
0.00260546
0.00260777
0.00259321
0.00261279
0.00262758
0.00261271
0.00262765
0.00261304
0.00262533
0.00262764
0.00261536
0.00261539
0.00261287
0.00262776
0.00261279
0.00262758
0.00261271
0.00262765
0.00260788
0.00260544
0.00259304
0.00259555
0.00260777
0.00260546
0.00259321
0.00260779
0.00259289
0.00260772
0.00259297
0.00260788
0.00260544
0.00259555
0.00259304
0.00260547
0.00260777
0.00259321
0.00260779
0.00259289
0.00260772
0.00259297
0.00262763
0.00262763
0.00261306
0.00261275
0.00261275
0.00262756
0.00261269
0.00259287
0.00260769
0.00260788
0.00259293
0.00259293
0.00260777
0.00260776
0.00259287
0.00260769
0.00261304
0.00262533
0.00262764
0.00261536
0.00261539
0.00261287
0.00262776
0.00261279
0.00262758
0.00261271
0.00262765
0.00261279
0.00262758
0.00261271
0.00262765
0.00260788
0.00260544
0.00259555
0.00259304
0.00260546
0.00260777
0.00259321
0.00260788
0.00260544
0.00259555
0.00259305
0.00260546
0.00260777
0.00259321
0.00260779
0.00259289
0.00260772
0.00259297
0.00260779
0.00259289
0.00260772
0.00259297
0.00262756
0.00261269
0.00262756
0.00261269
0.00260788
0.00259293
0.00259293
0.00260776
0.00260777
0.00259287
0.00260769
0.00259287
0.00260769
0.00258789
0.00257311
0.00258789
0.00257311
0.00258796
0.00258796
0.00257348
0.00257316
0.00257316
0.0025534
0.00256814
0.0025534
0.00256814
0.00256832
0.00255345
0.00255345
0.00256821
0.00256821
0.0025732
0.00258791
0.00258798
0.00257313
0.00257343
0.00258796
0.00258566
0.00257576
0.00258807
0.00257327
0.00257578
0.00257343
0.00258796
0.00258566
0.00257576
0.00258807
0.00257327
0.00257578
0.00256823
0.00255342
0.00256816
0.00255349
0.00256823
0.00255342
0.00256816
0.00255349
0.00256831
0.0025659
0.00255356
0.00255606
0.00256821
0.00256591
0.00255372
0.00256831
0.0025659
0.00255356
0.00255606
0.00256821
0.00256591
0.00255372
0.00258796
0.00258796
0.00257348
0.00257316
0.00257316
0.00258789
0.00257311
0.0025534
0.00256814
0.00256832
0.00255345
0.00255345
0.0025682
0.0025682
0.0025534
0.00256814
0.00257343
0.00258796
0.00258566
0.00257576
0.00258807
0.00257327
0.00257578
0.0025732
0.00258791
0.00258798
0.00257313
0.00257343
0.00258566
0.00258796
0.00257576
0.00258807
0.00257578
0.00257327
0.00256823
0.00255342
0.00256816
0.00255349
0.00256831
0.0025659
0.00255356
0.00255606
0.00256821
0.00256591
0.00255372
0.00256823
0.00255342
0.00256816
0.00255349
0.00256831
0.0025659
0.00255606
0.00255356
0.00256591
0.00256821
0.00255372
0.0025732
0.00258791
0.00258798
0.00257313
0.00257343
0.00258566
0.00258796
0.00257576
0.00258807
0.00257578
0.00257327
0.0025732
0.00258791
0.00258798
0.00257313
0.00256831
0.0025659
0.00255356
0.00255606
0.00256821
0.00256591
0.00255372
0.00256823
0.00255342
0.00256816
0.00255349
0.00256831
0.0025659
0.00255606
0.00255356
0.00256591
0.00256821
0.00255372
0.00256823
0.00255342
0.00256816
0.00255349
0.00258796
0.00258796
0.00257348
0.00257316
0.00257316
0.00258789
0.00257311
0.0025534
0.00256814
0.00256832
0.00255345
0.00255345
0.0025682
0.0025682
0.0025534
0.00256814
0.00257343
0.00258566
0.00258796
0.00257576
0.00258807
0.00257578
0.00257327
0.0025732
0.00258791
0.00258798
0.00257313
0.0025732
0.00258791
0.00258798
0.00257313
0.00256831
0.0025659
0.00255606
0.00255356
0.00256591
0.00256821
0.00255372
0.00256831
0.0025659
0.00255606
0.00255356
0.00256591
0.00256821
0.00255372
0.00256823
0.00255342
0.00256816
0.00255349
0.00256823
0.00255342
0.00256816
0.00255349
0.00258789
0.00257311
0.00258789
0.00257311
0.00256832
0.00255345
0.00255345
0.0025682
0.0025682
0.0025534
0.00256814
0.0025534
0.00256814
0.00254845
0.00253375
0.00254845
0.00253375
0.00254851
0.00254851
0.00253412
0.0025338
0.0025338
0.00251415
0.00252881
0.00251415
0.00252881
0.00252899
0.00251419
0.0025142
0.00252887
0.00252887
0.00253383
0.00254847
0.00254853
0.00253376
0.00253405
0.00254851
0.00254622
0.00253638
0.0025486
0.0025339
0.0025364
0.00253405
0.00254851
0.00254622
0.00253638
0.0025486
0.0025339
0.0025364
0.00252889
0.00251416
0.00252883
0.00251423
0.00252889
0.00251416
0.00252883
0.00251423
0.00252896
0.00252658
0.00251429
0.00251679
0.00252886
0.00252659
0.00251445
0.00252896
0.00252658
0.0025143
0.00251679
0.00252886
0.00252659
0.00251445
0.00254851
0.00254851
0.00253412
0.0025338
0.0025338
0.00254845
0.00253375
0.00251415
0.00252881
0.00252899
0.0025142
0.0025142
0.00252886
0.00252887
0.00251415
0.00252881
0.00253405
0.00254851
0.00254622
0.00253638
0.0025486
0.0025339
0.0025364
0.00253383
0.00254847
0.00254853
0.00253376
0.00253405
0.00254622
0.00254851
0.00253638
0.0025486
0.0025364
0.0025339
0.00252889
0.00251416
0.00252883
0.00251423
0.00252896
0.00252658
0.00251429
0.00251679
0.00252886
0.00252659
0.00251444
0.00252889
0.00251416
0.00252883
0.00251423
0.00252895
0.00252657
0.00251679
0.00251429
0.00252659
0.00252886
0.00251444
0.00253383
0.00254847
0.00254853
0.00253376
0.00253405
0.00254622
0.00254851
0.00253638
0.0025486
0.0025364
0.0025339
0.00253383
0.00254847
0.00254853
0.00253376
0.00252896
0.00252658
0.00251429
0.00251679
0.00252886
0.00252659
0.00251444
0.00252889
0.00251416
0.00252883
0.00251423
0.00252895
0.00252657
0.00251679
0.00251429
0.00252659
0.00252886
0.00251444
0.00252889
0.00251416
0.00252883
0.00251423
0.00254851
0.00254851
0.00253412
0.0025338
0.0025338
0.00254845
0.00253375
0.00251415
0.00252881
0.00252899
0.00251419
0.00251419
0.00252887
0.00252887
0.00251415
0.00252881
0.00253405
0.00254622
0.00254851
0.00253638
0.0025486
0.0025364
0.0025339
0.00253383
0.00254847
0.00254853
0.00253376
0.00253383
0.00254847
0.00254853
0.00253376
0.00252895
0.00252657
0.00251679
0.00251429
0.00252659
0.00252886
0.00251444
0.00252895
0.00252657
0.00251679
0.00251429
0.00252659
0.00252886
0.00251444
0.00252889
0.00251416
0.00252883
0.00251423
0.00252889
0.00251416
0.00252883
0.00251423
0.00254845
0.00253375
0.00254845
0.00253375
0.00252899
0.00251419
0.00251419
0.00252887
0.00252887
0.00251415
0.00252881
0.00251415
0.00252881
0.00250922
0.0024946
0.00250922
0.0024946
0.00250928
0.00250928
0.00249498
0.00249465
0.00249465
0.0024751
0.00248969
0.0024751
0.00248969
0.00248986
0.00247515
0.00247515
0.00248974
0.00248974
0.00249468
0.00250924
0.0025093
0.00249461
0.00249489
0.00250927
0.00250701
0.00249723
0.00250936
0.00249474
0.00249724
0.00249489
0.00250927
0.00250701
0.00249723
0.00250936
0.00249474
0.00249724
0.00248976
0.00247512
0.0024897
0.00247518
0.00248976
0.00247512
0.0024897
0.00247518
0.00248982
0.00248747
0.00247524
0.00247773
0.00248973
0.00248748
0.00247538
0.00248982
0.00248747
0.00247524
0.00247773
0.00248973
0.00248748
0.00247538
0.00250928
0.00250928
0.00249498
0.00249465
0.00249465
0.00250922
0.0024946
0.0024751
0.00248969
0.00248986
0.00247515
0.00247515
0.00248974
0.00248974
0.0024751
0.00248969
0.00249489
0.00250927
0.00250701
0.00249723
0.00250936
0.00249474
0.00249724
0.00249468
0.00250924
0.0025093
0.00249461
0.00249489
0.00250701
0.00250927
0.00249723
0.00250936
0.00249724
0.00249474
0.00248976
0.00247512
0.0024897
0.00247518
0.00248982
0.00248747
0.00247524
0.00247773
0.00248973
0.00248748
0.00247538
0.00248976
0.00247512
0.0024897
0.00247518
0.00248982
0.00248747
0.00247773
0.00247524
0.00248748
0.00248973
0.00247538
0.00249468
0.00250924
0.0025093
0.00249461
0.00249489
0.00250701
0.00250927
0.00249723
0.00250936
0.00249724
0.00249474
0.00249468
0.00250924
0.0025093
0.00249461
0.00248982
0.00248747
0.00247524
0.00247773
0.00248973
0.00248748
0.00247538
0.00248976
0.00247512
0.0024897
0.00247518
0.00248982
0.00248747
0.00247773
0.00247524
0.00248748
0.00248973
0.00247538
0.00248976
0.00247512
0.0024897
0.00247518
0.00250928
0.00250928
0.00249497
0.00249465
0.00249465
0.00250922
0.0024946
0.0024751
0.00248969
0.00248986
0.00247515
0.00247515
0.00248974
0.00248974
0.0024751
0.00248969
0.00249489
0.00250701
0.00250927
0.00249723
0.00250936
0.00249724
0.00249474
0.00249468
0.00250924
0.0025093
0.00249461
0.00249468
0.00250924
0.0025093
0.00249461
0.00248982
0.00248747
0.00247773
0.00247524
0.00248748
0.00248973
0.00247538
0.00248982
0.00248747
0.00247773
0.00247524
0.00248748
0.00248973
0.00247538
0.00248976
0.00247512
0.0024897
0.00247518
0.00248976
0.00247512
0.0024897
0.00247518
0.00250922
0.0024946
0.00250922
0.0024946
0.00248986
0.00247515
0.00247515
0.00248974
0.00248974
0.0024751
0.00248969
0.0024751
0.00248969
0.0024702
0.00245566
0.0024702
0.00245566
0.00247025
0.00247025
0.00245604
0.0024557
0.0024557
0.00243626
0.00245077
0.00243626
0.00245077
0.00245095
0.0024363
0.0024363
0.00245082
0.00245082
0.00245574
0.00247022
0.00247028
0.00245567
0.00245593
0.00247025
0.002468
0.00245828
0.00247033
0.00245579
0.00245828
0.00245593
0.00247025
0.002468
0.00245828
0.00247033
0.00245579
0.00245828
0.00245084
0.00243627
0.00245079
0.00243634
0.00245084
0.00243627
0.00245079
0.00243634
0.00245089
0.00244857
0.00243639
0.00243888
0.00245081
0.00244857
0.00243653
0.00245089
0.00244857
0.00243639
0.00243888
0.00245081
0.00244857
0.00243653
0.00247026
0.00247025
0.00245604
0.0024557
0.0024557
0.0024702
0.00245566
0.00243626
0.00245077
0.00245095
0.0024363
0.0024363
0.00245082
0.00245082
0.00243626
0.00245077
0.00245593
0.00247025
0.002468
0.00245828
0.00247033
0.00245579
0.00245828
0.00245574
0.00247022
0.00247028
0.00245567
0.00245593
0.002468
0.00247025
0.00245828
0.00247033
0.00245828
0.00245579
0.00245084
0.00243627
0.00245079
0.00243634
0.00245089
0.00244857
0.00243639
0.00243888
0.00245081
0.00244857
0.00243653
0.00245084
0.00243627
0.00245079
0.00243634
0.00245089
0.00244857
0.00243888
0.00243639
0.00244857
0.00245081
0.00243653
0.00245574
0.00247022
0.00247028
0.00245567
0.00245593
0.002468
0.00247025
0.00245828
0.00247033
0.00245828
0.00245579
0.00245574
0.00247022
0.00247028
0.00245567
0.00245089
0.00244857
0.00243639
0.00243888
0.00245081
0.00244857
0.00243653
0.00245084
0.00243627
0.00245079
0.00243634
0.00245089
0.00244857
0.00243888
0.00243639
0.00244857
0.00245081
0.00243653
0.00245084
0.00243627
0.00245079
0.00243634
0.00247025
0.00247025
0.00245604
0.0024557
0.0024557
0.0024702
0.00245566
0.00243626
0.00245077
0.00245094
0.0024363
0.0024363
0.00245082
0.00245082
0.00243626
0.00245077
0.00245593
0.002468
0.00247025
0.00245828
0.00247033
0.00245828
0.00245579
0.00245574
0.00247022
0.00247028
0.00245567
0.00245574
0.00247022
0.00247028
0.00245567
0.00245089
0.00244857
0.00243888
0.00243639
0.00244857
0.00245081
0.00243653
0.00245089
0.00244857
0.00243888
0.00243639
0.00244857
0.00245081
0.00243653
0.00245084
0.00243627
0.00245079
0.00243634
0.00245084
0.00243627
0.00245079
0.00243634
0.0024702
0.00245566
0.0024702
0.00245566
0.00245095
0.0024363
0.0024363
0.00245082
0.00245082
0.00243626
0.00245077
0.00243626
0.00245077
0.00243139
0.00241691
0.00243139
0.00241692
0.00243144
0.00243144
0.0024173
0.00241695
0.00241695
0.00239762
0.00241205
0.00239762
0.00241205
0.00241222
0.00239765
0.00239765
0.0024121
0.0024121
0.00241699
0.0024314
0.00243146
0.00241693
0.00241717
0.00243142
0.0024292
0.00241952
0.00243149
0.00241704
0.00241953
0.00241717
0.00243142