/*--------------------------------*- C++ -*----------------------------------*\
| =========                 |                                                 |
| \\      /  F ield         | OpenFOAM: The Open Source CFD Toolbox           |
|  \\    /   O peration     | Version:  2312                                  |
|   \\  /    A nd           | Website:  www.openfoam.com                      |
|    \\/     M anipulation  |                                                 |
\*---------------------------------------------------------------------------*/
FoamFile
{
    version     2.0;
    format      ascii;
    arch        "LSB;label=32;scalar=64";
    class       surfaceScalarField;
    location    "250";
    object      phi;
}
// * * * * * * * * * * * * * * * * * * * * * * * * * * * * * * * * * * * * * //

dimensions      [0 3 -1 0 0 0 0];

oriented        oriented;

internalField   nonuniform List<scalar> 
125400
(
1.31688e-09
1.67478e-09
-0.00117913
-1.37223e-09
-1.19476e-09
0.00117913
-0.00113472
-1.20634e-06
-1.66388e-09
-2.00328e-09
0.00113473
-2.24034e-07
1.20805e-06
2.22441e-07
8.55934e-07
-2.07414e-07
-8.55262e-07
2.05082e-07
-0.00113459
-1.20354e-06
-1.66626e-09
3.29682e-09
0.00113459
-2.21224e-07
1.20533e-06
2.19713e-07
8.5587e-07
-2.07414e-07
-8.55236e-07
2.05068e-07
-0.000271049
1.23518e-06
1.1982e-06
-2.1171e-07
-2.14397e-07
0.000269042
1.20224e-09
9.12907e-10
-0.00117912
-7.99056e-10
-1.20272e-09
0.00117912
-0.00113472
-1.20629e-06
-1.60308e-09
-2.62678e-09
0.00113473
-2.23901e-07
1.2081e-06
2.22554e-07
8.55747e-07
-2.07431e-07
-8.55433e-07
2.05031e-07
-0.00113458
-1.20362e-06
-1.48153e-09
3.26934e-09
0.00113458
-2.21219e-07
1.20524e-06
2.197e-07
8.557e-07
-2.07401e-07
-8.55376e-07
2.05034e-07
-0.000271048
1.2352e-06
1.19819e-06
-2.11687e-07
-2.1438e-07
0.000269041
2.44921e-10
4.93609e-10
-0.00117912
-5.4135e-10
-5.89948e-10
0.00117913
-0.00113472
-1.20645e-06
-5.59716e-10
-2.154e-09
0.00113473
-2.24119e-07
1.20794e-06
2.22359e-07
8.55605e-07
-2.07579e-07
-8.55565e-07
2.04957e-07
-0.00113459
-1.20364e-06
-6.51706e-10
3.18976e-09
0.00113459
-2.21263e-07
1.20524e-06
2.19687e-07
8.55532e-07
-2.07608e-07
-8.55541e-07
2.04916e-07
-0.000271049
1.23535e-06
1.19843e-06
-2.11909e-07
-2.14547e-07
0.000269041
-1.46097e-10
4.09008e-10
-0.00117913
-1.00312e-09
-7.06672e-10
0.00117913
-0.00113472
-1.20658e-06
2.68437e-10
-1.72975e-09
0.00113473
-2.24265e-07
1.20788e-06
2.22246e-07
8.55344e-07
-2.07971e-07
-8.55832e-07
2.04541e-07
-0.00113459
-1.20389e-06
3.47273e-10
3.98151e-09
0.00113459
-2.21597e-07
1.20502e-06
2.19357e-07
8.55334e-07
-2.07924e-07
-8.5575e-07
2.04569e-07
-0.000271048
1.23544e-06
1.19848e-06
-2.12043e-07
-2.14718e-07
0.000269041
6.31743e-11
1.65459e-10
-0.00117913
-6.52334e-10
-7.2955e-10
0.00117914
-0.00113472
-1.20664e-06
-1.97851e-10
-1.73649e-09
0.00113473
-2.24244e-07
1.20781e-06
2.22247e-07
8.55449e-07
-2.07855e-07
-8.55807e-07
2.04652e-07
-0.00113459
-1.20389e-06
1.26422e-10
3.80944e-09
0.00113459
-2.21485e-07
1.20506e-06
2.19497e-07
8.5532e-07
-2.0792e-07
-8.55826e-07
2.04562e-07
-0.000271049
1.2355e-06
1.19848e-06
-2.12015e-07
-2.14718e-07
0.000269042
2.75016e-10
8.68942e-10
-0.00117914
-7.29211e-10
-2.86213e-10
0.00117914
-0.00113473
-1.20649e-06
-1.04836e-09
-1.99352e-09
0.00113473
-2.24131e-07
1.20796e-06
2.22384e-07
8.55746e-07
-2.07558e-07
-8.55496e-07
2.05003e-07
-0.00113459
-1.20361e-06
-1.31868e-09
2.89507e-09
0.00113459
-2.2123e-07
1.20532e-06
2.19755e-07
8.55637e-07
-2.07587e-07
-8.55518e-07
2.04961e-07
-0.00027105
1.23535e-06
1.19843e-06
-2.11882e-07
-2.14534e-07
0.000269042
2.0188e-09
2.27165e-09
-0.00117913
-1.40565e-09
-1.20438e-09
0.00117913
-0.00113473
-1.20605e-06
-2.36076e-09
-2.87782e-09
0.00113473
-2.23704e-07
1.20836e-06
2.22791e-07
8.56175e-07
-2.07132e-07
-8.5501e-07
2.05404e-07
-0.00113459
-1.20333e-06
-2.61624e-09
2.87836e-09
0.00113459
-2.20973e-07
1.20557e-06
2.19985e-07
8.56199e-07
-2.07022e-07
-8.54897e-07
2.05506e-07
-0.000271049
1.23493e-06
1.19794e-06
-2.11413e-07
-2.14095e-07
0.000269042
3.83098e-09
3.4975e-09
-0.00117913
-2.44218e-09
-3.23926e-09
0.00117913
-0.00113472
-1.20581e-06
-3.68859e-09
-3.68906e-09
0.00113473
-2.2354e-07
1.20856e-06
2.22894e-07
8.56271e-07
-2.06946e-07
-8.54868e-07
2.05511e-07
-0.00113459
-1.20316e-06
-3.35843e-09
2.61862e-09
0.00113458
-2.20834e-07
1.2057e-06
2.20074e-07
8.56188e-07
-2.06995e-07
-8.54841e-07
2.05432e-07
-0.000271049
1.23475e-06
1.1977e-06
-2.11241e-07
-2.13999e-07
0.000269041
2.79347e-09
3.07109e-09
-0.00117912
-2.5668e-09
-2.55291e-09
0.00117912
-0.00113472
-1.20612e-06
-2.97832e-09
-3.06678e-09
0.00113473
-2.2378e-07
1.20829e-06
2.22679e-07
8.56028e-07
-2.07218e-07
-8.55106e-07
2.05203e-07
-0.00113458
-1.20332e-06
-2.98593e-09
2.22449e-09
0.00113458
-2.20947e-07
1.20554e-06
2.19949e-07
8.55977e-07
-2.07163e-07
-8.55057e-07
2.0523e-07
-0.000271049
1.23501e-06
1.19804e-06
-2.11582e-07
-2.14232e-07
0.000269042
1.67779e-09
1.9844e-09
-0.00117912
-1.70326e-09
-1.45311e-09
0.00117912
-0.00113472
-1.20626e-06
-1.93688e-09
-2.78994e-09
0.00113473
-2.2385e-07
1.20813e-06
2.22597e-07
8.55867e-07
-2.07265e-07
-8.5527e-07
2.05144e-07
-0.00113458
-1.20353e-06
-2.02433e-09
2.87685e-09
0.00113459
-2.21149e-07
1.20533e-06
2.19767e-07
8.55798e-07
-2.07287e-07
-8.55252e-07
2.0512e-07
-0.000271049
1.23513e-06
1.19821e-06
-2.11695e-07
-2.1434e-07
0.000269042
1.26322e-09
1.45302e-09
-0.00117912
-1.22556e-09
-1.23243e-09
0.00117912
-0.00113472
-1.20632e-06
-1.45704e-09
-2.4259e-09
0.00113473
-2.23988e-07
1.20807e-06
2.22459e-07
8.55662e-07
-2.07429e-07
-8.55453e-07
2.0499e-07
-0.00113458
-1.20354e-06
-1.49852e-09
3.00866e-09
0.00113459
-2.21191e-07
1.20533e-06
2.1971e-07
8.55612e-07
-2.07411e-07
-8.5541e-07
2.04971e-07
-0.000271049
1.2352e-06
1.19821e-06
-2.11745e-07
-2.14419e-07
0.000269042
1.34798e-09
1.56462e-09
-0.00117912
-1.29341e-09
-1.33317e-09
0.00117912
-0.00113472
-1.20638e-06
-1.56506e-09
-2.49762e-09
0.00113473
-2.24003e-07
1.208e-06
2.22407e-07
8.55542e-07
-2.07487e-07
-8.55449e-07
2.04812e-07
-0.00113458
-1.20364e-06
-1.4471e-09
3.0638e-09
0.00113459
-2.21236e-07
1.20523e-06
2.19649e-07
8.55464e-07
-2.07465e-07
-8.55436e-07
2.04811e-07
-0.000271049
1.23529e-06
1.19828e-06
-2.11801e-07
-2.14489e-07
0.000269042
1.7706e-09
1.90864e-09
-0.00117912
-1.4477e-09
-1.50362e-09
0.00117912
-0.00113472
-1.20637e-06
-1.92695e-09
-2.50119e-09
0.00113473
-2.23973e-07
1.20794e-06
2.2237e-07
8.55638e-07
-2.07296e-07
-8.55224e-07
2.04815e-07
-0.00113459
-1.20361e-06
-1.84071e-09
2.92068e-09
0.00113459
-2.21172e-07
1.2052e-06
2.19642e-07
8.55546e-07
-2.07292e-07
-8.55213e-07
2.04805e-07
-0.000271049
1.23524e-06
1.19823e-06
-2.11718e-07
-2.1441e-07
0.000269042
2.37351e-09
2.65149e-09
-0.00117913
-1.75397e-09
-1.67668e-09
0.00117912
-0.00113472
-1.20618e-06
-2.74977e-09
-2.8854e-09
0.00113473
-2.23821e-07
1.20802e-06
2.22355e-07
8.55555e-07
-2.0703e-07
-8.55002e-07
2.04619e-07
-0.00113459
-1.20349e-06
-2.66029e-09
2.74576e-09
0.00113459
-2.21093e-07
1.20518e-06
2.19555e-07
8.55514e-07
-2.07021e-07
-8.54941e-07
2.04604e-07
-0.000271049
1.23506e-06
1.19812e-06
-2.11615e-07
-2.14264e-07
0.000269042
3.82711e-09
4.14033e-09
-0.00117913
-2.70586e-09
-2.46073e-09
0.00117912
-0.00113472
-1.20598e-06
-3.90635e-09
-3.73752e-09
0.00113473
-2.23521e-07
1.20803e-06
2.22323e-07
8.55318e-07
-2.06392e-07
-8.54564e-07
2.0431e-07
-0.00113459
-1.20317e-06
-3.98544e-09
1.69678e-09
0.00113459
-2.20736e-07
1.20529e-06
2.19573e-07
8.55217e-07
-2.06376e-07
-8.54573e-07
2.04311e-07
-0.000271049
1.23487e-06
1.19787e-06
-2.11322e-07
-2.14015e-07
0.000269042
5.95157e-09
5.88696e-09
-0.00117913
-3.03577e-09
-3.36848e-09
0.00117912
-0.00113472
-1.20549e-06
-6.20718e-09
-5.18132e-09
0.00113473
-2.22917e-07
1.20806e-06
2.22199e-07
8.5482e-07
-2.0506e-07
-8.53596e-07
2.0367e-07
-0.00113458
-1.20273e-06
-6.14862e-09
3.81161e-10
0.00113459
-2.20102e-07
1.20533e-06
2.19497e-07
8.54713e-07
-2.05039e-07
-8.53545e-07
2.03686e-07
-0.000271049
1.23438e-06
1.19735e-06
-2.10696e-07
-2.13389e-07
0.000269041
9.33659e-09
9.82807e-09
-0.00117913
-4.72371e-09
-4.37641e-09
0.00117912
-0.00113472
-1.20471e-06
-9.6378e-09
-7.43009e-09
0.00113473
-2.21733e-07
1.20779e-06
2.21691e-07
8.53572e-07
-2.02549e-07
-8.5166e-07
2.01814e-07
-0.00113458
-1.20211e-06
-9.60767e-09
-1.36102e-09
0.00113459
-2.19097e-07
1.20484e-06
2.18808e-07
8.53589e-07
-2.02617e-07
-8.51528e-07
2.01728e-07
-0.000271049
1.23363e-06
1.19676e-06
-2.09741e-07
-2.12383e-07
0.000269041
1.57012e-08
1.57806e-08
-0.00117914
-5.45081e-09
-5.63302e-09
0.00117912
-0.00113472
-1.20268e-06
-1.57831e-08
-1.17658e-08
0.00113473
-2.18869e-07
1.20686e-06
2.20063e-07
8.50927e-07
-1.96603e-07
-8.47143e-07
1.97774e-07
-0.00113458
-1.19989e-06
-1.58178e-08
-6.17465e-09
0.00113459
-2.16077e-07
1.20408e-06
2.20046e-07
8.50911e-07
-1.96562e-07
-8.47078e-07
1.97812e-07
-0.000271049
1.2316e-06
1.19455e-06
-2.06849e-07
-2.09541e-07
0.00026904
4.58607e-08
5.74238e-08
-0.00117916
-2.50675e-08
-2.51622e-08
0.00117911
-0.00113473
-1.19661e-06
-5.18913e-08
-2.24518e-08
0.00113476
-2.10347e-07
1.2092e-06
2.17637e-07
8.46088e-07
-1.79798e-07
-8.3333e-07
1.87596e-07
-0.00113458
-1.19385e-06
-5.17946e-08
-2.79403e-08
0.00113462
-2.1036e-07
1.2064e-06
2.17613e-07
8.43381e-07
-1.79827e-07
-8.30629e-07
1.90275e-07
-0.000271055
1.22818e-06
1.18307e-06
-1.96735e-07
-1.99342e-07
0.00026904
1.28641e-06
1.28806e-06
-0.001179
-1.01107e-06
-1.0003e-06
0.00117843
-0.0011351
-1.0616e-06
-1.29351e-06
-5.85991e-07
0.00113562
-8.77383e-08
1.4423e-06
3.53889e-07
1.07846e-06
-3.81591e-08
-6.83394e-07
3.49179e-07
-0.00113497
-1.05616e-06
-1.29917e-06
-5.97108e-07
0.00113551
-8.77873e-08
1.44218e-06
3.56566e-07
1.07575e-06
-3.81827e-08
-6.80757e-07
3.49121e-07
-0.00027115
1.09336e-06
1.048e-06
-7.60207e-08
-8.10194e-08
0.000269166
5.48592e-06
5.48107e-06
-0.00028987
-3.86836e-06
-3.86832e-06
0.00028664
-0.000281835
4.98032e-06
-5.47795e-06
6.07712e-06
-3.86794e-06
0.000280124
-0.000281825
-5.47508e-06
4.9776e-06
-3.86815e-06
6.0745e-06
0.000280116
-0.00027343
-4.97661e-06
-4.98287e-06
5.46311e-06
5.44804e-06
0.000272478
-1.24804e-06
-1.20556e-06
0.00027112
-0.000269096
2.10958e-07
2.18773e-07
0.00113417
-1.43136e-09
-0.00113417
3.24486e-09
-1.24612e-06
2.25121e-07
-2.26638e-07
-8.58176e-07
2.0228e-07
-2.04736e-07
8.58585e-07
1.2454e-06
0.00113424
-1.36846e-09
-0.00113424
3.33542e-09
-1.24357e-06
2.27914e-07
-2.29514e-07
-8.63375e-07
2.04984e-07
-2.07455e-07
8.63819e-07
-1.2081e-06
0.000271105
-0.000269081
2.13679e-07
2.16037e-07
0.00113517
-1.88035e-09
-0.00113517
3.2972e-09
-1.20375e-06
2.22545e-07
-2.24067e-07
-8.60681e-07
2.05188e-07
-2.07408e-07
8.61319e-07
1.23989e-06
0.00113411
-1.63908e-09
-0.00113411
3.31199e-09
-1.23809e-06
2.27899e-07
-2.29475e-07
-8.60702e-07
2.02307e-07
-2.04729e-07
8.61187e-07
-1.75459e-09
-0.00113473
8.73062e-09
-1.20628e-06
2.22463e-07
-2.23988e-07
-8.55299e-07
2.05098e-07
8.55916e-07
-2.07385e-07
1.23698e-06
0.00113374
-1.5817e-09
-0.00113374
3.29335e-09
-1.23513e-06
2.25103e-07
-2.26616e-07
-8.52575e-07
1.99565e-07
-2.02016e-07
8.52974e-07
-1.20539e-06
0.000271078
-0.000269065
2.13734e-07
2.18586e-07
-1.71991e-09
-0.00113459
3.04928e-09
-1.20347e-06
2.19758e-07
-2.21159e-07
-8.55312e-07
2.0507e-07
8.55799e-07
-2.07393e-07
1.19999e-06
0.00113473
-1.71179e-09
-0.00113473
3.16001e-09
-1.19815e-06
2.22523e-07
-2.23995e-07
-8.57807e-07
2.05103e-07
-2.07412e-07
8.58363e-07
-0.000269042
2.13464e-07
2.16174e-07
1.2462e-06
1.20381e-06
-2.09217e-07
-2.16923e-07
0.000269096
-1.24798e-06
-1.20564e-06
0.000271119
-0.000269096
2.11057e-07
2.18769e-07
3.53623e-09
0.00113417
-2.267e-07
1.24797e-06
2.25083e-07
8.58651e-07
-2.04752e-07
-8.5809e-07
2.02281e-07
-1.24362e-06
-1.21547e-09
3.50883e-09
0.00113424
-2.2955e-07
1.24536e-06
2.27903e-07
8.63866e-07
-2.07489e-07
-8.63306e-07
2.04968e-07
0.00113417
-1.22258e-09
-0.00113417
3.33363e-09
-1.24619e-06
2.25172e-07
-2.26585e-07
-8.58206e-07
2.02351e-07
-2.04656e-07
8.58516e-07
1.24549e-06
0.00113423
-1.03887e-09
-0.00113423
2.68915e-09
-1.24349e-06
2.2811e-07
-2.29324e-07
-8.63461e-07
2.05017e-07
-2.07423e-07
8.63698e-07
-2.1193e-07
-2.14257e-07
0.000269081
-1.20816e-06
0.000271104
-0.00026908
2.13752e-07
2.16132e-07
3.54317e-09
0.00113517
-2.24114e-07
1.20551e-06
2.22526e-07
8.61368e-07
-2.07446e-07
-8.60611e-07
2.05167e-07
-1.23813e-06
-1.49072e-09
3.51926e-09
0.00113411
-2.2952e-07
1.23985e-06
2.2788e-07
8.61229e-07
-2.04772e-07
-8.60642e-07
2.02286e-07
0.00113517
-1.00706e-09
-0.00113517
2.78142e-09
-1.20367e-06
2.22727e-07
-2.23886e-07
-8.60812e-07
2.05181e-07
-2.07412e-07
8.61148e-07
1.23995e-06
0.0011341
-8.18865e-10
-0.0011341
2.87434e-09
-1.23803e-06
2.28057e-07
-2.29323e-07
-8.60822e-07
2.02319e-07
-2.0472e-07
8.61032e-07
-1.52134e-09
3.50125e-09
0.00113374
-2.26668e-07
1.23693e-06
2.25075e-07
8.53041e-07
-2.02045e-07
1.99558e-07
-8.52496e-07
-1.57557e-09
-0.00113473
8.29479e-09
-1.20624e-06
2.22625e-07
-2.23836e-07
-8.55353e-07
2.05145e-07
8.55823e-07
-2.07339e-07
1.23697e-06
0.00113374
-1.30332e-09
-0.00113374
3.2101e-09
-1.23514e-06
2.25203e-07
-2.26521e-07
-8.52598e-07
1.99645e-07
-2.01944e-07
8.52918e-07
-2.11944e-07
-2.16839e-07
0.000269065
-1.2053e-06
0.000271077
-0.000269065
2.13714e-07
2.18679e-07
-1.58259e-09
3.35479e-09
0.00113473
-2.24042e-07
1.19995e-06
2.22497e-07
8.58417e-07
-2.0745e-07
2.05085e-07
-8.5775e-07
-1.48614e-09
-0.00113458
3.19309e-09
-1.20356e-06
2.19781e-07
-2.21144e-07
-8.55329e-07
2.05155e-07
8.55747e-07
-2.07314e-07
1.20001e-06
0.00113473
-1.2505e-09
-0.00113473
2.83542e-09
-1.19813e-06
2.22643e-07
-2.23879e-07
-8.57854e-07
2.05172e-07
-2.07359e-07
8.58293e-07
-0.000269041
2.13525e-07
2.16224e-07
1.24627e-06
1.20375e-06
-2.09166e-07
-2.16965e-07
0.000269095
-1.24781e-06
-1.20535e-06
0.000271119
-0.000269096
2.10768e-07
2.18579e-07
3.57594e-09
0.00113417
-2.26693e-07
1.24789e-06
2.25057e-07
8.58468e-07
-2.04765e-07
-8.58245e-07
2.02216e-07
-1.24355e-06
-1.09264e-09
2.82848e-09
0.00113423
-2.29404e-07
1.24542e-06
2.28018e-07
8.63661e-07
-2.0752e-07
-8.63496e-07
2.04899e-07
0.00113417
-4.94565e-10
-0.00113417
3.91383e-09
-1.24637e-06
2.24927e-07
-2.26859e-07
-8.58371e-07
2.02065e-07
-2.04996e-07
8.5834e-07
1.24522e-06
0.00113424
-6.68575e-10
-0.00113424
3.67685e-09
-1.24375e-06
2.27756e-07
-2.2968e-07
-8.6354e-07
2.04834e-07
-2.07668e-07
8.63621e-07
-2.1189e-07
-2.14203e-07
0.00026908
-1.20798e-06
0.000271105
-0.000269081
2.13571e-07
2.15885e-07
2.96406e-09
0.00113517
-2.23986e-07
1.20555e-06
2.2261e-07
8.61097e-07
-2.07518e-07
-8.60855e-07
2.05049e-07
-1.23809e-06
-7.21689e-10
3.03943e-09
0.0011341
-2.29412e-07
1.23988e-06
2.27953e-07
8.60969e-07
-2.04831e-07
-8.60876e-07
2.02178e-07
0.00113517
-4.88689e-10
-0.00113517
3.75374e-09
-1.20396e-06
2.22352e-07
-2.24268e-07
-8.60923e-07
2.04938e-07
-2.07711e-07
8.61035e-07
1.23976e-06
0.0011341
-4.72084e-10
-0.0011341
3.58213e-09
-1.23823e-06
2.27798e-07
-2.29597e-07
-8.60945e-07
2.02085e-07
-2.05018e-07
8.60916e-07
-1.29443e-09
3.32856e-09
0.00113374
-2.26601e-07
1.2369e-06
2.25106e-07
8.52881e-07
-2.02031e-07
1.9953e-07
-8.52633e-07
-8.75218e-10
-0.00113473
8.94123e-09
-1.20642e-06
2.22357e-07
-2.24114e-07
-8.55474e-07
2.04915e-07
8.55701e-07
-2.07622e-07
1.23679e-06
0.00113374
-5.79341e-10
-0.00113374
3.8812e-09
-1.23532e-06
2.24916e-07
-2.26819e-07
-8.52744e-07
1.99379e-07
-2.02253e-07
8.5276e-07
-2.11999e-07
-2.16791e-07
0.000269065
-1.20523e-06
0.000271078
-0.000269065
2.13611e-07
2.18461e-07
-1.25567e-09
2.91921e-09
0.00113473
-2.23956e-07
1.19993e-06
2.22545e-07
8.58261e-07
-2.07432e-07
2.05068e-07
-8.57885e-07
-9.04645e-10
-0.00113458
3.52516e-09
-1.20366e-06
2.19645e-07
-2.21312e-07
-8.55493e-07
2.04854e-07
8.55583e-07
-2.07662e-07
1.19974e-06
0.00113473
-8.26798e-10
-0.00113473
3.86821e-09
-1.1984e-06
2.22273e-07
-2.24253e-07
-8.57955e-07
2.04931e-07
-2.07639e-07
8.58185e-07
-0.000269041
2.13264e-07
2.16017e-07
1.24638e-06
1.20402e-06
-2.09419e-07
-2.171e-07
0.000269095
-1.24773e-06
-1.2052e-06
0.000271119
-0.000269095
2.10566e-07
2.18402e-07
3.65682e-09
0.00113417
-2.26843e-07
1.24779e-06
2.24944e-07
8.58279e-07
-2.04962e-07
-8.58431e-07
2.02096e-07
-1.24382e-06
-5.27062e-10
3.77313e-09
0.00113424
-2.29722e-07
1.24515e-06
2.27718e-07
8.63591e-07
-2.07604e-07
-8.63567e-07
2.04893e-07
0.00113417
1.88016e-10
-0.00113417
3.71757e-09
-1.2465e-06
2.2483e-07
-2.26979e-07
-8.58608e-07
2.01773e-07
-2.05241e-07
8.5813e-07
1.245e-06
0.00113424
7.93223e-12
-0.00113424
4.35779e-09
-1.24403e-06
2.2757e-07
-2.29906e-07
-8.63724e-07
2.04562e-07
-2.07872e-07
8.63447e-07
-2.12039e-07
-2.14425e-07
0.000269081
-1.20782e-06
0.000271104
-0.00026908
2.13366e-07
2.15641e-07
3.69617e-09
0.00113517
-2.24296e-07
1.20528e-06
2.22332e-07
8.61006e-07
-2.07648e-07
-8.60948e-07
2.05001e-07
-1.23828e-06
-5.26027e-10
3.60851e-09
0.00113411
-2.29617e-07
1.23969e-06
2.27768e-07
8.6091e-07
-2.0493e-07
-8.60949e-07
2.02175e-07
0.00113517
-4.17359e-10
-0.00113517
3.8302e-09
-1.20417e-06
2.22234e-07
-2.24435e-07
-8.61101e-07
2.04688e-07
-2.07902e-07
8.60875e-07
1.23942e-06
0.00113411
-1.69611e-10
-0.00113411
4.57337e-09
-1.23859e-06
2.27456e-07
-2.29936e-07
-8.6105e-07
2.0191e-07
-2.05124e-07
8.60824e-07
-3.1109e-10
3.73063e-09
0.00113374
-2.2682e-07
1.23676e-06
2.24921e-07
8.52703e-07
-2.02212e-07
1.99421e-07
-8.52799e-07
2.2369e-10
-0.00113473
9.22185e-09
-1.20662e-06
2.22221e-07
-2.24275e-07
-8.55729e-07
2.04606e-07
8.55464e-07
-2.07866e-07
1.23667e-06
0.00113374
2.33818e-10
-0.00113374
3.934e-09
-1.23549e-06
2.24839e-07
-2.26925e-07
-8.52991e-07
1.9908e-07
-2.02494e-07
8.52536e-07
-2.12038e-07
-2.16969e-07
0.000269065
-1.20503e-06
0.000271078
-0.000269065
2.13365e-07
2.18144e-07
-6.45076e-10
3.80224e-09
0.00113473
-2.24262e-07
1.1997e-06
2.22275e-07
8.58136e-07
-2.07587e-07
2.04986e-07
-8.57999e-07
2.19848e-10
-0.00113459
3.79696e-09
-1.20387e-06
2.19403e-07
-2.21526e-07
-8.55707e-07
2.0463e-07
8.55399e-07
-2.07829e-07
1.19964e-06
0.00113473
-5.25031e-11
-0.00113473
3.92378e-09
-1.19856e-06
2.22227e-07
-2.24339e-07
-8.58207e-07
2.04632e-07
-2.07871e-07
8.57948e-07
-0.000269041
2.13097e-07
2.15833e-07
1.24645e-06
1.20409e-06
-2.09577e-07
-2.1727e-07
0.000269096
-1.24779e-06
-1.20542e-06
0.000271121
-0.000269097
2.1076e-07
2.18478e-07
3.61317e-09
0.00113417
-2.26958e-07
1.24779e-06
2.2487e-07
8.5807e-07
-2.0531e-07
-8.5866e-07
2.01749e-07
-1.24396e-06
5.57419e-11
4.19157e-09
0.00113424
-2.2986e-07
1.24509e-06
2.27636e-07
8.6336e-07
-2.07969e-07
-8.63797e-07
2.04508e-07
0.00113417
2.24182e-11
-0.00113417
3.42765e-09
-1.24643e-06
2.24976e-07
-2.26836e-07
-8.58688e-07
2.0189e-07
-2.05169e-07
8.58107e-07
1.24518e-06
0.00113424
2.63734e-10
-0.00113424
3.52864e-09
-1.24384e-06
2.27796e-07
-2.29671e-07
-8.63908e-07
2.04582e-07
-2.07899e-07
8.63316e-07
-2.12222e-07
-2.14627e-07
0.000269081
-1.20785e-06
0.000271105
-0.000269081
2.13396e-07
2.15783e-07
3.59807e-09
0.00113517
-2.24381e-07
1.2053e-06
2.22309e-07
8.60792e-07
-2.08004e-07
-8.61172e-07
2.04631e-07
-1.23859e-06
3.58165e-11
4.66271e-09
0.00113411
-2.29975e-07
1.23944e-06
2.27443e-07
8.60731e-07
-2.05237e-07
-8.61125e-07
2.01832e-07
0.00113518
-9.35504e-11
-0.00113518
3.03395e-09
-1.20395e-06
2.22511e-07
-2.24152e-07
-8.61271e-07
2.04736e-07
-2.07917e-07
8.60756e-07
1.2396e-06
0.00113411
4.73953e-10
-0.00113411
3.93097e-09
-1.23845e-06
2.27711e-07
-2.29744e-07
-8.61311e-07
2.0181e-07
-2.05266e-07
8.60597e-07
2.068e-10
3.82498e-09
0.00113374
-2.26907e-07
1.23673e-06
2.24868e-07
8.52465e-07
-2.02588e-07
1.99033e-07
-8.5305e-07
1.0282e-10
-0.00113473
8.94108e-09
-1.20656e-06
2.22312e-07
-2.24174e-07
-8.55846e-07
2.0469e-07
8.55402e-07
-2.07839e-07
1.23672e-06
0.00113374
1.47755e-11
-0.00113374
3.48214e-09
-1.23543e-06
2.24928e-07
-2.26828e-07
-8.53089e-07
1.99182e-07
-2.02446e-07
8.52499e-07
-2.12318e-07
-2.17281e-07
0.000269065
-1.20501e-06
0.000271078
-0.000269065
2.1335e-07
2.18286e-07
-1.53154e-11
3.67741e-09
0.00113473
-2.2429e-07
1.19973e-06
2.22292e-07
8.5786e-07
-2.07987e-07
2.04565e-07
-8.58283e-07
4.00897e-10
-0.00113459
3.83418e-09
-1.20391e-06
2.19479e-07
-2.21508e-07
-8.55865e-07
2.04613e-07
8.55268e-07
-2.0788e-07
1.19977e-06
0.00113473
9.3365e-11
-0.00113473
3.13411e-09
-1.19841e-06
2.22377e-07
-2.24171e-07
-8.58363e-07
2.04684e-07
-2.07885e-07
8.57853e-07
-0.000269042
2.13195e-07
2.15875e-07
1.24648e-06
1.20399e-06
-2.09446e-07
-2.17232e-07
0.000269097
-1.24782e-06
-1.20533e-06
0.000271121
-0.000269097
2.10767e-07
2.18585e-07
3.67589e-09
0.00113417
-2.26893e-07
1.24777e-06
2.24917e-07
8.58172e-07
-2.05201e-07
-8.58626e-07
2.01845e-07
-1.24387e-06
2.3169e-10
3.63265e-09
0.00113424
-2.29714e-07
1.24517e-06
2.27756e-07
8.63369e-07
-2.07944e-07
-8.63859e-07
2.04524e-07
0.00113418
1.77549e-12
-0.00113418
3.74091e-09
-1.24641e-06
2.24937e-07
-2.26888e-07
-8.58488e-07
2.02035e-07
-2.05063e-07
8.583e-07
1.24524e-06
0.00113424
3.1101e-11
-0.00113424
3.57445e-09
-1.24378e-06
2.27774e-07
-2.29708e-07
-8.63703e-07
2.04745e-07
-2.07785e-07
8.63521e-07
-2.12242e-07
-2.1453e-07
0.000269081
-1.20791e-06
0.000271105
-0.000269082
2.1352e-07
2.15881e-07
3.29474e-09
0.00113518
-2.2421e-07
1.20539e-06
2.22443e-07
8.6083e-07
-2.07932e-07
-8.61221e-07
2.04708e-07
-1.23839e-06
3.45241e-10
3.74024e-09
0.00113411
-2.29681e-07
1.23968e-06
2.2776e-07
8.6064e-07
-2.05311e-07
-8.61286e-07
2.01757e-07
0.00113518
-4.67933e-10
-0.00113518
3.93624e-09
-1.20403e-06
2.22353e-07
-2.24314e-07
-8.6101e-07
2.04938e-07
-2.07752e-07
8.61022e-07
1.23982e-06
0.00113411
-4.09278e-10
-0.00113411
3.08064e-09
-1.23821e-06
2.27872e-07
-2.29563e-07
-8.61084e-07
2.02038e-07
-2.05105e-07
8.60851e-07
-1.56299e-10
3.77149e-09
0.00113374
-2.26903e-07
1.23668e-06
2.24856e-07
8.52576e-07
-2.02478e-07
1.99135e-07
-8.53017e-07
-7.24839e-10
-0.00113473
9.13532e-09
-1.20653e-06
2.22308e-07
-2.24208e-07
-8.55584e-07
2.04864e-07
8.55665e-07
-2.07707e-07
1.23677e-06
0.00113374
-2.29426e-10
-0.00113374
3.7635e-09
-1.2354e-06
2.24929e-07
-2.26855e-07
-8.52867e-07
1.99328e-07
-2.02345e-07
8.5272e-07
-2.12311e-07
-2.17124e-07
0.000269065
-1.20527e-06
0.000271079
-0.000269066
2.13618e-07
2.18487e-07
2.09413e-12
3.43243e-09
0.00113473
-2.24257e-07
1.19972e-06
2.22293e-07
8.57931e-07
-2.07904e-07
2.04651e-07
-8.58297e-07
-8.94283e-10
-0.00113459
3.13206e-09
-1.20366e-06
2.19687e-07
-2.21303e-07
-8.55644e-07
2.04811e-07
8.55504e-07
-2.07745e-07
1.19974e-06
0.00113474
-5.56572e-10
-0.00113474
3.86638e-09
-1.19845e-06
2.22304e-07
-2.24271e-07
-8.58097e-07
2.04882e-07
-2.07725e-07
8.58115e-07
-0.000269043
2.13257e-07
2.15996e-07
1.24638e-06
1.20403e-06
-2.09391e-07
-2.17077e-07
0.000269097
-1.24813e-06
-1.20567e-06
0.00027112
-0.000269096
2.11155e-07
2.18938e-07
3.6268e-09
0.00113418
-2.26834e-07
1.24785e-06
2.2499e-07
8.58415e-07
-2.04926e-07
-8.58372e-07
2.02159e-07
-1.24377e-06
-4.21394e-10
3.50237e-09
0.00113424
-2.29656e-07
1.24526e-06
2.27827e-07
8.63656e-07
-2.07628e-07
-8.63569e-07
2.04888e-07
0.00113417
-1.32912e-09
-0.00113417
3.40307e-09
-1.24608e-06
2.25242e-07
-2.26572e-07
-8.57982e-07
2.02425e-07
-2.04634e-07
8.58752e-07
1.24555e-06
0.00113424
-1.65316e-09
-0.00113424
3.189e-09
-1.24348e-06
2.28092e-07
-2.29387e-07
-8.63155e-07
2.05157e-07
-2.07333e-07
8.64016e-07
-2.12052e-07
-2.14385e-07
0.000269082
-1.20829e-06
0.000271105
-0.000269081
2.13921e-07
2.16247e-07
3.93121e-09
0.00113518
-2.24279e-07
1.20534e-06
2.22392e-07
8.61145e-07
-2.07596e-07
-8.60883e-07
2.05079e-07
-1.23819e-06
-9.58756e-10
2.92494e-09
0.00113411
-2.29516e-07
1.23985e-06
2.27918e-07
8.61005e-07
-2.04928e-07
-8.60933e-07
2.02203e-07
0.00113518
-1.79226e-09
-0.00113518
3.45023e-09
-1.2037e-06
2.22694e-07
-2.23981e-07
-8.60493e-07
2.05308e-07
-2.0733e-07
8.61484e-07
1.24004e-06
0.00113411
-1.96094e-09
-0.00113411
3.21078e-09
-1.238e-06
2.28043e-07
-2.29387e-07
-8.60465e-07
2.02522e-07
-2.04577e-07
8.61422e-07
-5.65169e-10
3.56329e-09
0.00113374
-2.26775e-07
1.23682e-06
2.25008e-07
8.52839e-07
-2.02194e-07
1.99466e-07
-8.52739e-07
-1.84453e-09
-0.00113473
8.48501e-09
-1.20615e-06
2.2267e-07
-2.23834e-07
-8.55101e-07
2.05248e-07
8.56117e-07
-2.07274e-07
1.23714e-06
0.00113374
-1.49278e-09
-0.00113374
3.25407e-09
-1.23502e-06
2.25266e-07
-2.26499e-07
-8.52382e-07
1.99712e-07
-2.01914e-07
8.53164e-07
-2.12019e-07
-2.16919e-07
0.000269066
-1.20553e-06
0.000271079
-0.000269066
2.13946e-07
2.18815e-07
-9.68522e-10
3.81489e-09
0.00113474
-2.24212e-07
1.19977e-06
2.22363e-07
8.58236e-07
-2.07576e-07
2.05017e-07
-8.57976e-07
-2.14697e-09
-0.00113459
2.96597e-09
-1.20339e-06
2.199e-07
-2.21075e-07
-8.55032e-07
2.05313e-07
8.56087e-07
-2.07212e-07
1.20013e-06
0.00113473
-1.86181e-09
-0.00113473
3.28252e-09
-1.19807e-06
2.22678e-07
-2.23898e-07
-8.57592e-07
2.05269e-07
-2.07301e-07
8.58573e-07
-0.000269042
2.13676e-07
2.16403e-07
1.246e-06
1.20356e-06
-2.08938e-07
-2.16685e-07
0.000269096
-1.24839e-06
-1.20607e-06
0.00027112
-0.000269096
2.11439e-07
2.19147e-07
3.1354e-09
0.00113417
-2.26449e-07
1.24819e-06
2.25353e-07
8.58846e-07
-2.04462e-07
-8.57879e-07
2.02605e-07
-1.24338e-06
-2.31328e-09
2.88999e-09
0.00113424
-2.29257e-07
1.24561e-06
2.28209e-07
8.64111e-07
-2.07161e-07
-8.63052e-07
2.05337e-07
0.00113417
-3.38234e-09
-0.00113417
2.54946e-09
-1.24581e-06
2.25483e-07
-2.26284e-07
-8.57668e-07
2.02712e-07
-2.04276e-07
8.59023e-07
1.24582e-06
0.00113424
-3.18492e-09
-0.00113424
2.28633e-09
-1.24318e-06
2.28335e-07
-2.29094e-07
-8.62883e-07
2.05399e-07
-2.07016e-07
8.64246e-07
-2.11616e-07
-2.13978e-07
0.000269081
-1.20858e-06
0.000271104
-0.000269081
2.14132e-07
2.16468e-07
2.86203e-09
0.00113517
-2.23806e-07
1.20578e-06
2.22861e-07
8.61553e-07
-2.07181e-07
-8.60405e-07
2.05469e-07
-1.23792e-06
-2.35866e-09
3.15539e-09
0.00113411
-2.29284e-07
1.24008e-06
2.28129e-07
8.6152e-07
-2.04405e-07
-8.60352e-07
2.027e-07
0.00113517
-3.05433e-09
-0.00113517
1.69793e-09
-1.20327e-06
2.23056e-07
-2.23551e-07
-8.60264e-07
2.05547e-07
-2.07021e-07
8.61667e-07
1.24022e-06
0.00113411
-2.60248e-09
-0.00113411
2.88832e-09
-1.23778e-06
2.28249e-07
-2.29128e-07
-8.60241e-07
2.02706e-07
-2.04294e-07
8.61572e-07
-2.0776e-09
2.98335e-09
0.00113374
-2.26386e-07
1.2372e-06
2.25364e-07
8.5327e-07
-2.01752e-07
1.99893e-07
-8.52254e-07
-3.31747e-09
-0.00113473
7.44759e-09
-1.20583e-06
2.22928e-07
-2.23522e-07
-8.54835e-07
2.05536e-07
8.56314e-07
-2.06913e-07
1.23733e-06
0.00113374
-3.31723e-09
-0.00113374
2.45023e-09
-1.23479e-06
2.25461e-07
-2.26254e-07
-8.52041e-07
2.00049e-07
-2.01499e-07
8.53437e-07
-2.11669e-07
-2.16552e-07
0.000269066
-1.20568e-06
0.000271078
-0.000269065
2.14092e-07
2.18953e-07
-2.41953e-09
2.74875e-09
0.00113473
-2.23733e-07
1.20023e-06
2.22827e-07
8.58678e-07
-2.07122e-07
2.05464e-07
-8.5748e-07
-3.12515e-09
-0.00113459
2.77424e-09
-1.20321e-06
2.20079e-07
-2.20842e-07
-8.54799e-07
2.05488e-07
8.56233e-07
-2.06922e-07
1.20042e-06
0.00113473
-3.33026e-09
-0.00113473
1.80632e-09
-1.19773e-06
2.22972e-07
-2.23535e-07
-8.5731e-07
2.05527e-07
-2.06949e-07
8.58797e-07
-0.000269041
2.13914e-07
2.16541e-07
1.24573e-06
1.20324e-06
-2.08713e-07
-2.165e-07
0.000269096
-1.24813e-06
-1.20567e-06
0.00027112
-0.000269096
2.11053e-07
2.18869e-07
2.31788e-09
0.00113417
-2.26256e-07
1.24843e-06
2.25497e-07
8.59004e-07
-2.04269e-07
-8.57659e-07
2.02733e-07
-1.24312e-06
-3.56321e-09
2.11474e-09
0.00113424
-2.29077e-07
1.24584e-06
2.28337e-07
8.64217e-07
-2.07017e-07
-8.62882e-07
2.0542e-07
0.00113417
-2.81476e-09
-0.00113417
2.68843e-09
-1.24603e-06
2.25298e-07
-2.26447e-07
-8.57871e-07
2.025e-07
-2.04434e-07
8.58785e-07
1.24554e-06
0.00113424
-2.78946e-09
-0.00113424
2.59355e-09
-1.24342e-06
2.28142e-07
-2.29265e-07
-8.63072e-07
2.05226e-07
-2.0714e-07
8.64024e-07
-2.11453e-07
-2.13801e-07
0.000269081
-1.20824e-06
0.000271105
-0.000269081
2.13816e-07
2.16175e-07
1.66014e-09
0.00113517
-2.23571e-07
1.20605e-06
2.23015e-07
8.61662e-07
-2.07027e-07
-8.6025e-07
2.05555e-07
-1.23773e-06
-2.99257e-09
2.75713e-09
0.0011341
-2.29114e-07
1.24024e-06
2.28249e-07
8.61533e-07
-2.04329e-07
-8.60263e-07
2.02688e-07
0.00113517
-2.88479e-09
-0.00113517
2.49066e-09
-1.20363e-06
2.2273e-07
-2.23862e-07
-8.60416e-07
2.05387e-07
-2.07137e-07
8.61489e-07
1.24002e-06
0.0011341
-2.7193e-09
-0.0011341
2.69789e-09
-1.23793e-06
2.28121e-07
-2.29228e-07
-8.60435e-07
2.02532e-07
-2.04438e-07
8.6136e-07
-3.79312e-09
2.34728e-09
0.00113374
-2.26255e-07
1.23735e-06
2.25456e-07
8.5341e-07
-2.01528e-07
2.00025e-07
-8.52046e-07
-2.86927e-09
-0.00113473
7.97494e-09
-1.20614e-06
2.22685e-07
-2.23755e-07
-8.55013e-07
2.05311e-07
8.56111e-07
-2.07103e-07
1.23707e-06
0.00113374
-2.87463e-09
-0.00113374
2.86132e-09
-1.23502e-06
2.25284e-07
-2.26424e-07
-8.52247e-07
1.99806e-07
-2.01708e-07
8.53213e-07
-2.11543e-07
-2.16444e-07
0.000269065
-1.20553e-06
0.000271078
-0.000269065
2.13883e-07
2.18749e-07
-3.65233e-09
1.80432e-09
0.00113473
-2.23563e-07
1.20042e-06
2.22932e-07
8.58769e-07
-2.07004e-07
2.05485e-07
-8.5733e-07
-2.70733e-09
-0.00113458
2.3378e-09
-1.20331e-06
2.19994e-07
-2.20903e-07
-8.55028e-07
2.05328e-07
8.56004e-07
-2.07076e-07
1.20011e-06
0.00113473
-2.75392e-09
-0.00113473
2.45134e-09
-1.19801e-06
2.2272e-07
-2.23781e-07
-8.57503e-07
2.05379e-07
-2.07085e-07
8.58602e-07
-0.000269041
2.13579e-07
2.16309e-07
1.24603e-06
1.20365e-06
-2.09114e-07
-2.16804e-07
0.000269096
-1.24802e-06
-1.20557e-06
0.00027112
-0.000269096
2.11034e-07
2.18803e-07
2.71649e-09
0.00113417
-2.26495e-07
1.24816e-06
2.25265e-07
8.58726e-07
-2.04575e-07
-8.5795e-07
2.02367e-07
-1.24344e-06
-2.85039e-09
2.67686e-09
0.00113424
-2.29325e-07
1.24556e-06
2.28093e-07
8.63977e-07
-2.07276e-07
-8.63144e-07
2.05101e-07
0.00113417
-1.30408e-09
-0.00113417
3.16019e-09
-1.24611e-06
2.25191e-07
-2.26563e-07
-8.58099e-07
2.02386e-07
-2.04618e-07
8.58562e-07
1.24539e-06
0.00113424
-1.2925e-09
-0.00113424
3.18428e-09
-1.24354e-06
2.27999e-07
-2.29423e-07
-8.63278e-07
2.05119e-07
-2.07315e-07
8.63812e-07
-2.11773e-07
-2.1411e-07
0.000269081
-1.20813e-06
0.000271105
-0.000269081
2.13776e-07
2.16076e-07
2.67448e-09
0.00113517
-2.23921e-07
1.20568e-06
2.22691e-07
8.61449e-07
-2.07261e-07
-8.60469e-07
2.05268e-07
-1.23794e-06
-2.9212e-09
2.61017e-09
0.0011341
-2.29276e-07
1.24003e-06