/*--------------------------------*- C++ -*----------------------------------*\
| =========                 |                                                 |
| \\      /  F ield         | OpenFOAM: The Open Source CFD Toolbox           |
|  \\    /   O peration     | Version:  2312                                  |
|   \\  /    A nd           | Website:  www.openfoam.com                      |
|    \\/     M anipulation  |                                                 |
\*---------------------------------------------------------------------------*/
FoamFile
{
    version     2.0;
    format      ascii;
    arch        "LSB;label=32;scalar=64";
    class       volVectorField;
    location    "250";
    object      U;
}
// * * * * * * * * * * * * * * * * * * * * * * * * * * * * * * * * * * * * * //

dimensions      [0 1 -1 0 0 0 0];

internalField   nonuniform List<vector> 
43208
(
(-5.72553e-07 -5.48112e-07 0.112005)
(-3.18563e-07 7.64395e-07 0.107736)
(7.41525e-07 -3.23703e-07 0.107735)
(-3.27644e-05 -3.27616e-05 0.104591)
(-5.01067e-07 -5.42104e-07 0.112005)
(-3.31598e-07 6.98823e-07 0.107736)
(7.30349e-07 -3.30368e-07 0.107735)
(-3.2772e-05 -3.27736e-05 0.104591)
(-4.5522e-07 -4.5413e-07 0.112005)
(-3.95007e-07 7.5274e-07 0.107736)
(7.28062e-07 -3.92291e-07 0.107735)
(-3.28594e-05 -3.28325e-05 0.104591)
(-5.07897e-07 -4.65473e-07 0.112006)
(-4.9187e-07 8.0993e-07 0.107736)
(8.37312e-07 -5.01341e-07 0.107735)
(-3.28915e-05 -3.28785e-05 0.104591)
(-4.67046e-07 -4.71287e-07 0.112006)
(-4.44199e-07 8.02879e-07 0.107736)
(8.03851e-07 -4.68464e-07 0.107735)
(-3.28926e-05 -3.2898e-05 0.104591)
(-4.87807e-07 -4.43256e-07 0.112006)
(-3.60668e-07 7.66828e-07 0.107737)
(7.01902e-07 -3.63968e-07 0.107735)
(-3.28589e-05 -3.28377e-05 0.104591)
(-5.829e-07 -5.63779e-07 0.112006)
(-2.27547e-07 6.46674e-07 0.107736)
(6.6328e-07 -2.01479e-07 0.107735)
(-3.26634e-05 -3.26597e-05 0.104591)
(-7.19421e-07 -7.78547e-07 0.112006)
(-1.43083e-07 5.7122e-07 0.107736)
(6.23612e-07 -1.57681e-07 0.107735)
(-3.25857e-05 -3.26068e-05 0.104591)
(-7.20945e-07 -7.10076e-07 0.112005)
(-2.25117e-07 6.41803e-07 0.107736)
(6.05658e-07 -2.19819e-07 0.107735)
(-3.27242e-05 -3.27151e-05 0.104591)
(-5.91045e-07 -5.63254e-07 0.112005)
(-2.86413e-07 6.64101e-07 0.107736)
(6.80495e-07 -2.86524e-07 0.107735)
(-3.27891e-05 -3.2763e-05 0.104591)
(-5.40706e-07 -5.41922e-07 0.112005)
(-3.15816e-07 7.14028e-07 0.107736)
(7.04198e-07 -3.18867e-07 0.107735)
(-3.27874e-05 -3.27826e-05 0.104591)
(-5.60217e-07 -5.59103e-07 0.112006)
(-3.2366e-07 7.05202e-07 0.107736)
(7.00488e-07 -3.25603e-07 0.107735)
(-3.28232e-05 -3.28239e-05 0.104591)
(-5.69983e-07 -5.69185e-07 0.112006)
(-2.73462e-07 7.00421e-07 0.107737)
(6.77305e-07 -2.77651e-07 0.107735)
(-3.27993e-05 -3.28009e-05 0.104591)
(-6.24707e-07 -6.10413e-07 0.112007)
(-1.99908e-07 6.55119e-07 0.107737)
(6.58022e-07 -2.06453e-07 0.107736)
(-3.27599e-05 -3.27385e-05 0.104591)
(-7.40193e-07 -7.11446e-07 0.112008)
(-5.55885e-08 5.49713e-07 0.107737)
(5.28163e-07 -4.94351e-08 0.107736)
(-3.26811e-05 -3.26813e-05 0.104591)
(-7.69725e-07 -7.97476e-07 0.11201)
(2.36864e-07 3.61383e-07 0.107737)
(3.22279e-07 2.36044e-07 0.107736)
(-3.25001e-05 -3.25045e-05 0.104591)
(-9.89571e-07 -9.48225e-07 0.112012)
(7.22687e-07 9.98343e-09 0.107737)
(5.10298e-08 7.09623e-07 0.107736)
(-3.22696e-05 -3.22327e-05 0.104591)
(-1.0368e-06 -1.05194e-06 0.112017)
(1.77915e-06 -7.18035e-07 0.107736)
(-7.27432e-07 1.78413e-06 0.107735)
(-3.13917e-05 -3.1404e-05 0.104593)
(-1.13188e-06 -1.13754e-06 0.112024)
(4.12822e-06 -2.56639e-06 0.107734)
(-2.55352e-06 4.12334e-06 0.107733)
(-2.87899e-05 -2.87746e-05 0.104602)
(-6.51577e-06 -6.47435e-06 0.112034)
(1.46713e-05 -1.02513e-05 0.10773)
(-1.02165e-05 1.46571e-05 0.107729)
(-1.56328e-05 -1.56083e-05 0.104649)
(-2.9891e-05 -2.983e-05 0.111315)
(4.45607e-05 -1.29726e-05 0.108185)
(-1.30572e-05 4.45688e-05 0.108184)
(3.7303e-05 3.72669e-05 0.105236)
(-3.405e-05 -3.40254e-05 0.104692)
(7.48228e-07 3.54805e-07 0.107734)
(-7.61598e-07 3.60955e-07 0.107734)
(3.4041e-05 -3.40247e-05 0.104693)
(3.10896e-07 7.50503e-07 0.107735)
(3.42871e-07 -7.58111e-07 0.107732)
(-3.18217e-07 7.51371e-07 0.107736)
(-3.4318e-07 -7.48635e-07 0.107733)
(-3.4035e-05 3.40364e-05 0.104691)
(7.18382e-07 -3.26018e-07 0.107735)
(-7.29862e-07 -3.28522e-07 0.107735)
(3.40323e-05 3.40359e-05 0.104691)
(3.27494e-05 3.27655e-05 0.104592)
(-3.40216e-05 -3.40471e-05 0.104692)
(7.71588e-07 3.5305e-07 0.107734)
(-7.733e-07 3.64238e-07 0.107734)
(7.30861e-07 3.42817e-07 0.107734)
(-6.7388e-07 3.6517e-07 0.107733)
(-3.27678e-05 3.27559e-05 0.104592)
(3.40613e-05 -3.40339e-05 0.104692)
(3.18039e-07 7.68207e-07 0.107735)
(3.49094e-07 -7.73795e-07 0.107732)
(3.47661e-07 6.67548e-07 0.107735)
(3.75241e-07 -6.84139e-07 0.107732)
(-3.41432e-07 -7.67508e-07 0.107733)
(-3.13881e-07 6.82265e-07 0.107736)
(-3.37557e-07 -7.1168e-07 0.107733)
(3.27447e-05 -3.27795e-05 0.104591)
(-3.39984e-05 3.40534e-05 0.104691)
(-7.4631e-07 -3.31631e-07 0.107735)
(7.10769e-07 -3.12976e-07 0.107735)
(-6.77169e-07 -3.30317e-07 0.107734)
(3.40335e-05 3.40305e-05 0.104691)
(3.27827e-05 3.27531e-05 0.104591)
(-3.3965e-05 -3.39451e-05 0.104692)
(7.68212e-07 3.63817e-07 0.107734)
(-7.02444e-07 3.82272e-07 0.107733)
(8.15924e-07 4.21977e-07 0.107734)
(-8.04e-07 4.15368e-07 0.107733)
(-3.27558e-05 3.27498e-05 0.104591)
(3.39731e-05 -3.39748e-05 0.104693)
(3.71087e-07 7.01118e-07 0.107735)
(4.01937e-07 -7.14162e-07 0.107732)
(4.05672e-07 8.00613e-07 0.107735)
(4.23967e-07 -7.84687e-07 0.107732)
(-3.57579e-07 -7.3652e-07 0.107733)
(-3.89303e-07 7.75256e-07 0.107736)
(-4.17492e-07 -8.06998e-07 0.107733)
(3.27869e-05 -3.27744e-05 0.104591)
(-3.39774e-05 3.39861e-05 0.104691)
(-7.00097e-07 -3.4651e-07 0.107734)
(7.69539e-07 -3.89619e-07 0.107735)
(-8.11191e-07 -3.90171e-07 0.107734)
(3.39437e-05 3.39691e-05 0.104691)
(3.28304e-05 3.28552e-05 0.104591)
(-3.39131e-05 -3.38759e-05 0.104692)
(7.86529e-07 4.29678e-07 0.107734)
(-8.04961e-07 4.10455e-07 0.107734)
(8.21486e-07 5.13495e-07 0.107734)
(-8.79527e-07 4.82084e-07 0.107734)
(-3.2849e-05 3.2811e-05 0.104592)
(3.38814e-05 -3.39044e-05 0.104692)
(3.94186e-07 7.90894e-07 0.107735)
(4.06777e-07 -7.81259e-07 0.107732)
(4.54728e-07 8.36763e-07 0.107735)
(4.72178e-07 -9.04714e-07 0.107732)
(-4.19673e-07 -7.85771e-07 0.107733)
(-4.85242e-07 8.16658e-07 0.107736)
(-4.9859e-07 -8.25808e-07 0.107733)
(3.27967e-05 -3.28418e-05 0.104591)
(-3.3887e-05 3.38546e-05 0.104691)
(-7.93277e-07 -3.86552e-07 0.107734)
(8.19542e-07 -4.90185e-07 0.107735)
(-8.25899e-07 -4.66504e-07 0.107734)
(3.38885e-05 3.39075e-05 0.104691)
(3.28713e-05 3.28979e-05 0.104591)
(-3.39311e-05 -3.39482e-05 0.104692)
(8.06983e-07 5.09579e-07 0.107734)
(-8.57949e-07 4.87053e-07 0.107734)
(7.69667e-07 4.70578e-07 0.107734)
(-7.75359e-07 4.92212e-07 0.107734)
(-3.29116e-05 3.28636e-05 0.104592)
(3.39361e-05 -3.39074e-05 0.104693)
(4.60859e-07 8.10101e-07 0.107736)
(4.89642e-07 -9.11183e-07 0.107733)
(4.55196e-07 7.2653e-07 0.107736)
(5.13185e-07 -8.09001e-07 0.107733)
(-5.00092e-07 -8.15711e-07 0.107733)
(-4.5501e-07 7.71588e-07 0.107736)
(-4.63989e-07 -7.72792e-07 0.107733)
(3.28921e-05 -3.29594e-05 0.104591)
(-3.38779e-05 3.3915e-05 0.104691)
(-7.99927e-07 -4.74573e-07 0.107735)
(8.00299e-07 -4.82836e-07 0.107735)
(-7.3851e-07 -4.66688e-07 0.107735)
(3.39234e-05 3.39141e-05 0.104692)
(3.28785e-05 3.28588e-05 0.104592)
(-3.39625e-05 -3.39383e-05 0.104693)
(8.00172e-07 4.70254e-07 0.107734)
(-7.92254e-07 4.97761e-07 0.107734)
(8.05167e-07 4.50212e-07 0.107734)
(-7.92204e-07 4.5978e-07 0.107734)
(-3.28833e-05 3.28881e-05 0.104592)
(3.39724e-05 -3.39484e-05 0.104693)
(4.53656e-07 7.55353e-07 0.107736)
(5.08641e-07 -7.94707e-07 0.107733)
(4.13123e-07 8.1109e-07 0.107736)
(4.44328e-07 -7.35552e-07 0.107733)
(-4.61371e-07 -8.09884e-07 0.107734)
(-4.00993e-07 7.96745e-07 0.107736)
(-4.40088e-07 -8.00097e-07 0.107734)
(3.28975e-05 -3.28961e-05 0.104591)
(-3.39798e-05 3.39966e-05 0.104692)
(-7.74541e-07 -4.63305e-07 0.107735)
(7.29904e-07 -4.06663e-07 0.107735)
(-8.03456e-07 -4.13995e-07 0.107735)
(3.39361e-05 3.39541e-05 0.104692)
(3.28316e-05 3.28555e-05 0.104592)
(-3.41038e-05 -3.409e-05 0.104692)
(7.86384e-07 4.14893e-07 0.107735)
(-7.7681e-07 4.13657e-07 0.107734)
(7.4295e-07 3.18783e-07 0.107734)
(-7.33223e-07 3.08597e-07 0.107734)
(-3.2836e-05 3.28252e-05 0.104592)
(3.41141e-05 -3.41113e-05 0.104693)
(3.66809e-07 8.01372e-07 0.107736)
(3.92958e-07 -7.18613e-07 0.107733)
(2.83053e-07 7.40971e-07 0.107736)
(2.97228e-07 -7.3686e-07 0.107733)
(-3.98553e-07 -7.70178e-07 0.107734)
(-2.85562e-07 7.06481e-07 0.107736)
(-3.14232e-07 -7.24773e-07 0.107734)
(3.27944e-05 -3.28245e-05 0.104591)
(-3.41036e-05 3.41119e-05 0.104692)
(-7.86562e-07 -3.69368e-07 0.107735)
(6.99478e-07 -2.69362e-07 0.107735)
(-7.2e-07 -2.83145e-07 0.107735)
(3.41059e-05 3.41177e-05 0.104692)
(3.26716e-05 3.26719e-05 0.104592)
(-3.41883e-05 -3.42147e-05 0.104692)
(6.94412e-07 2.49701e-07 0.107734)
(-6.81125e-07 2.39439e-07 0.107734)
(6.33139e-07 1.80928e-07 0.107734)
(-6.16688e-07 1.99157e-07 0.107733)
(-3.26735e-05 3.26462e-05 0.104592)
(3.42027e-05 -3.42024e-05 0.104692)
(2.26236e-07 6.63496e-07 0.107736)
(2.36785e-07 -7.0113e-07 0.107733)
(1.80542e-07 5.5533e-07 0.107735)
(2.11409e-07 -6.55044e-07 0.107732)
(-2.50446e-07 -6.74876e-07 0.107734)
(-1.64752e-07 5.79086e-07 0.107736)
(-1.74075e-07 -6.15115e-07 0.107733)
(3.26601e-05 -3.26919e-05 0.104591)
(-3.41605e-05 3.41738e-05 0.104691)
(-6.48127e-07 -2.16665e-07 0.107735)
(6.39119e-07 -1.69671e-07 0.107735)
(-5.62211e-07 -1.67854e-07 0.107734)
(3.41967e-05 3.41713e-05 0.104691)
(3.25824e-05 3.2561e-05 0.104591)
(-3.40676e-05 -3.40459e-05 0.104692)
(6.05416e-07 1.51666e-07 0.107734)
(-5.92674e-07 1.71704e-07 0.107734)
(6.60123e-07 2.49764e-07 0.107734)
(-6.53546e-07 2.48278e-07 0.107733)
(-3.25876e-05 3.25639e-05 0.104592)
(3.40784e-05 -3.40613e-05 0.104693)
(1.51959e-07 5.51481e-07 0.107735)
(1.84481e-07 -6.39601e-07 0.107733)
(2.23232e-07 6.43187e-07 0.107735)
(2.44335e-07 -6.55046e-07 0.107732)
(-1.45866e-07 -6.02454e-07 0.107733)
(-2.23724e-07 6.45993e-07 0.107736)
(-2.35659e-07 -6.68792e-07 0.107733)
(3.25949e-05 -3.26233e-05 0.104591)
(-3.40739e-05 3.40767e-05 0.104691)
(-5.62042e-07 -1.53321e-07 0.107735)
(6.0775e-07 -2.2345e-07 0.107734)
(-6.24355e-07 -2.23353e-07 0.107734)
(3.40605e-05 3.4063e-05 0.104691)
(3.27099e-05 3.27303e-05 0.104591)
(-3.40393e-05 -3.40314e-05 0.104692)
(6.68033e-07 2.60945e-07 0.107734)
(-6.69521e-07 2.55939e-07 0.107734)
(7.14303e-07 3.3964e-07 0.107734)
(-7.19438e-07 3.39911e-07 0.107733)
(-3.2717e-05 3.26984e-05 0.104592)
(3.40341e-05 -3.40344e-05 0.104693)
(2.24886e-07 6.62298e-07 0.107735)
(2.50687e-07 -6.55751e-07 0.107732)
(3.06962e-07 7.03793e-07 0.107735)
(3.48377e-07 -7.13517e-07 0.107732)
(-2.46277e-07 -6.56216e-07 0.107733)
(-3.07173e-07 7.06074e-07 0.107736)
(-3.40373e-07 -7.11025e-07 0.107733)
(3.26883e-05 -3.27272e-05 0.104591)
(-3.40175e-05 3.40489e-05 0.104692)
(-6.35974e-07 -2.19454e-07 0.107735)
(7.15732e-07 -3.13681e-07 0.107734)
(-7.2136e-07 -3.07672e-07 0.107734)
(3.40109e-05 3.40395e-05 0.104691)
(3.27521e-05 3.2756e-05 0.104591)
(-3.39854e-05 -3.39915e-05 0.104692)
(6.63627e-07 3.0309e-07 0.107734)
(-6.6553e-07 3.0143e-07 0.107734)
(8.28265e-07 4.39184e-07 0.107734)
(-8.388e-07 4.45077e-07 0.107733)
(-3.27691e-05 3.27444e-05 0.104592)
(3.39825e-05 -3.39971e-05 0.104693)
(2.79073e-07 6.51303e-07 0.107736)
(3.13348e-07 -6.72823e-07 0.107733)
(4.08573e-07 7.84955e-07 0.107735)
(4.34315e-07 -8.07534e-07 0.107732)
(-3.09575e-07 -6.70625e-07 0.107733)
(-4.0034e-07 7.79394e-07 0.107735)
(-4.25412e-07 -7.97336e-07 0.107733)
(3.27577e-05 -3.27671e-05 0.104591)
(-3.39952e-05 3.39957e-05 0.104691)
(-6.78588e-07 -2.81905e-07 0.107735)
(7.58687e-07 -3.94662e-07 0.107734)
(-7.66825e-07 -4.00141e-07 0.107734)
(3.40001e-05 3.40019e-05 0.104691)
(3.27912e-05 3.27815e-05 0.104591)
(-3.39519e-05 -3.3936e-05 0.104692)
(7.53025e-07 3.56067e-07 0.107734)
(-7.61681e-07 3.64122e-07 0.107734)
(8.01647e-07 4.68841e-07 0.107733)
(-7.97574e-07 4.62546e-07 0.107733)
(-3.28096e-05 3.2767e-05 0.104592)
(3.39593e-05 -3.39488e-05 0.104693)
(3.22886e-07 7.05174e-07 0.107736)
(3.52879e-07 -7.27723e-07 0.107733)
(4.47908e-07 8.0212e-07 0.107735)
(4.71784e-07 -8.37469e-07 0.107732)
(-3.41727e-07 -7.32399e-07 0.107733)
(-4.48455e-07 7.91676e-07 0.107735)
(-4.65949e-07 -8.12726e-07 0.107733)
(3.2761e-05 -3.27965e-05 0.104591)
(-3.39296e-05 3.39297e-05 0.104691)
(-7.1034e-07 -3.20582e-07 0.107735)
(7.91006e-07 -4.50775e-07 0.107734)
(-7.84647e-07 -4.44207e-07 0.107734)
(3.3945e-05 3.39455e-05 0.104691)
(3.28236e-05 3.28279e-05 0.104591)
(-3.39599e-05 -3.39458e-05 0.104692)
(7.53309e-07 3.57908e-07 0.107734)
(-7.49472e-07 3.49708e-07 0.107734)
(8.34117e-07 5.14337e-07 0.107733)
(-8.40594e-07 5.17448e-07 0.107733)
(-3.2833e-05 3.28001e-05 0.104592)
(3.39627e-05 -3.39467e-05 0.104693)
(3.23417e-07 7.2043e-07 0.107736)
(3.50338e-07 -7.56874e-07 0.107733)
(4.93111e-07 8.29611e-07 0.107735)
(5.18407e-07 -8.53699e-07 0.107732)
(-3.4169e-07 -7.33661e-07 0.107734)
(-4.90422e-07 8.28596e-07 0.107735)
(-5.10511e-07 -8.50888e-07 0.107733)
(3.28126e-05 -3.28591e-05 0.104591)
(-3.39364e-05 3.39484e-05 0.104692)
(-7.00558e-07 -3.19537e-07 0.107735)
(8.20152e-07 -5.0031e-07 0.107734)
(-8.28424e-07 -5.04116e-07 0.107734)
(3.39497e-05 3.39509e-05 0.104692)
(3.27929e-05 3.2796e-05 0.104592)
(-3.39619e-05 -3.3947e-05 0.104692)
(6.9979e-07 2.95472e-07 0.107735)
(-7.03881e-07 3.0117e-07 0.107734)
(8.78759e-07 5.87432e-07 0.107733)
(-8.68393e-07 5.88271e-07 0.107733)
(-3.28043e-05 3.27913e-05 0.104592)
(3.39647e-05 -3.39658e-05 0.104693)
(2.73398e-07 6.72206e-07 0.107736)
(2.99772e-07 -7.00335e-07 0.107733)
(5.64394e-07 8.70823e-07 0.107735)
(5.91375e-07 -8.90359e-07 0.107732)
(-2.91192e-07 -7.17669e-07 0.107734)
(-5.50419e-07 8.40157e-07 0.107735)
(-5.80081e-07 -8.5685e-07 0.107732)
(3.27946e-05 -3.28211e-05 0.104591)
(-3.39386e-05 3.39453e-05 0.104692)
(-6.8032e-07 -2.80776e-07 0.107735)
(8.53331e-07 -5.55859e-07 0.107734)
(-8.47694e-07 -5.5747e-07 0.107734)
(3.39417e-05 3.39596e-05 0.104692)
(3.27395e-05 3.27539e-05 0.104591)
(-3.39073e-05 -3.38903e-05 0.104692)
(6.83735e-07 2.34694e-07 0.107735)
(-6.78887e-07 2.30404e-07 0.107735)
(8.79307e-07 6.91427e-07 0.107733)
(-9.05027e-07 6.86842e-07 0.107733)
(-3.27531e-05 3.27217e-05 0.104592)
(3.39104e-05 -3.39067e-05 0.104693)
(2.02387e-07 6.81851e-07 0.107736)
(2.30111e-07 -6.90166e-07 0.107733)
(6.54829e-07 8.762e-07 0.107734)
(6.80013e-07 -9.05343e-07 0.107732)
(-2.29414e-07 -6.66802e-07 0.107734)
(-6.69727e-07 8.75736e-07 0.107735)
(-6.89395e-07 -8.94056e-07 0.107732)
(3.27523e-05 -3.27869e-05 0.104591)
(-3.39173e-05 3.3917e-05 0.104692)
(-6.65312e-07 -2.03111e-07 0.107735)
(8.58443e-07 -6.69007e-07 0.107734)
(-8.77562e-07 -6.6261e-07 0.107734)
(3.38923e-05 3.38965e-05 0.104691)
(3.26729e-05 3.26827e-05 0.104591)
(-3.38033e-05 -3.38102e-05 0.104692)
(5.53699e-07 7.79099e-08 0.107735)
(-5.72651e-07 7.97315e-08 0.107735)
(1.0336e-06 9.06892e-07 0.107733)
(-1.00537e-06 9.27929e-07 0.107732)
(-3.26809e-05 3.26575e-05 0.104592)
(3.38236e-05 -3.38131e-05 0.104693)
(5.30593e-08 5.4392e-07 0.107737)
(7.47363e-08 -5.81039e-07 0.107734)
(8.99568e-07 9.85808e-07 0.107734)
(9.32676e-07 -9.99885e-07 0.107731)
(-7.47419e-08 -5.68578e-07 0.107734)
(-8.79205e-07 9.87876e-07 0.107735)
(-8.95352e-07 -9.98381e-07 0.107732)
(3.26483e-05 -3.26886e-05 0.104591)
(-3.37901e-05 3.38185e-05 0.104691)
(-5.37977e-07 -5.43271e-08 0.107736)
(9.95829e-07 -8.86187e-07 0.107734)
(-9.70117e-07 -8.9665e-07 0.107733)
(3.38031e-05 3.38029e-05 0.104691)
(3.25109e-05 3.25039e-05 0.104591)
(-3.34723e-05 -3.34426e-05 0.104692)
(3.66868e-07 -2.17003e-07 0.107735)
(-3.47106e-07 -2.02113e-07 0.107735)
(1.30119e-06 1.40843e-06 0.107733)
(-1.3136e-06 1.39045e-06 0.107732)
(-3.2492e-05 3.24803e-05 0.104592)
(3.34654e-05 -3.34802e-05 0.104692)
(-2.31527e-07 3.2039e-07 0.107737)
(-1.92893e-07 -3.3734e-07 0.107734)
(1.35962e-06 1.31047e-06 0.107734)
(1.38426e-06 -1.33069e-06 0.107731)
(2.21453e-07 -3.6283e-07 0.107734)
(-1.36121e-06 1.25529e-06 0.107734)
(-1.39041e-06 -1.27761e-06 0.107732)
(3.249e-05 -3.25068e-05 0.104591)
(-3.34315e-05 3.34341e-05 0.104691)
(-3.03333e-07 2.33e-07 0.107736)
(1.30224e-06 -1.37071e-06 0.107733)
(-1.31663e-06 -1.35812e-06 0.107733)
(3.34321e-05 3.34636e-05 0.104691)
(3.22362e-05 3.22644e-05 0.104592)
(-3.28103e-05 -3.28119e-05 0.104691)
(5.1589e-08 -6.72776e-07 0.107735)
(-6.8438e-08 -6.86319e-07 0.107735)
(1.83498e-06 2.26469e-06 0.107733)
(-1.84011e-06 2.2591e-06 0.107733)
(-3.22433e-05 3.21978e-05 0.104592)
(3.2813e-05 -3.27992e-05 0.104691)
(-7.17165e-07 6.91704e-08 0.107737)
(-6.95593e-07 -9.106e-08 0.107734)
(2.22988e-06 1.80092e-06 0.107735)
(2.26386e-06 -1.82845e-06 0.107732)
(6.94844e-07 -2.90376e-08 0.107734)
(-2.2497e-06 1.81993e-06 0.107735)
(-2.27077e-06 -1.84566e-06 0.107732)
(3.22604e-05 -3.22992e-05 0.104591)
(-3.2823e-05 3.28385e-05 0.10469)
(-6.67401e-08 7.16379e-07 0.107736)
(1.78812e-06 -2.23543e-06 0.107734)
(-1.8033e-06 -2.23433e-06 0.107734)
(3.28109e-05 3.27952e-05 0.10469)
(3.13991e-05 3.13811e-05 0.104593)
(-3.0737e-05 -3.07339e-05 0.104683)
(-6.74485e-07 -1.7528e-06 0.107734)
(6.76844e-07 -1.74686e-06 0.107734)
(3.13345e-06 4.06939e-06 0.107735)
(-3.12243e-06 4.07207e-06 0.107735)
(-3.13991e-05 3.13827e-05 0.104594)
(3.07517e-05 -3.07185e-05 0.104683)
(-1.78208e-06 -7.4135e-07 0.107736)
(-1.74564e-06 7.0062e-07 0.107733)
(4.05569e-06 3.12265e-06 0.107737)
(4.08859e-06 -3.1575e-06 0.107734)
(1.75053e-06 6.8045e-07 0.107734)
(-4.0457e-06 3.12426e-06 0.107737)
(-4.06439e-06 -3.12338e-06 0.107734)
(3.13668e-05 -3.13807e-05 0.104593)
(-3.0711e-05 3.07352e-05 0.104682)
(7.29535e-07 1.7753e-06 0.107735)
(3.14481e-06 -4.059e-06 0.107736)
(-3.11951e-06 -4.04747e-06 0.107736)
(3.07136e-05 3.07224e-05 0.104682)
(2.87552e-05 2.87568e-05 0.104603)
(-2.38318e-05 -2.38165e-05 0.104648)
(-2.57178e-06 -4.1087e-06 0.107732)
(2.57751e-06 -4.0974e-06 0.107732)
(4.90762e-06 5.47849e-06 0.107743)
(-4.92698e-06 5.48611e-06 0.107742)
(-2.87544e-05 2.87729e-05 0.104603)
(2.38242e-05 -2.38274e-05 0.104649)
(-4.12596e-06 -2.58615e-06 0.107733)
(-4.08811e-06 2.56864e-06 0.10773)
(5.44665e-06 4.92208e-06 0.107744)
(5.48874e-06 -4.93787e-06 0.107741)
(4.09914e-06 2.56768e-06 0.107731)
(-5.44033e-06 4.89606e-06 0.107745)
(-5.45319e-06 -4.87139e-06 0.107742)
(2.87782e-05 -2.87658e-05 0.104602)
(-2.38133e-05 2.3802e-05 0.104648)
(2.57417e-06 4.12727e-06 0.107733)
(4.89862e-06 -5.4593e-06 0.107744)
(-4.8952e-06 -5.42818e-06 0.107743)
(2.38264e-05 2.38352e-05 0.104648)
(1.55897e-05 1.56506e-05 0.10465)
(-3.75033e-05 -3.74716e-05 0.104901)
(-1.02373e-05 -1.46064e-05 0.107728)
(1.02459e-05 -1.45895e-05 0.107727)
(-1.9571e-05 -5.37355e-05 0.108033)
(1.95966e-05 -5.37684e-05 0.108033)
(-1.56164e-05 1.5627e-05 0.10465)
(3.74961e-05 -3.74253e-05 0.104901)
(-1.46471e-05 -1.0215e-05 0.107729)
(-1.4593e-05 1.02108e-05 0.107726)
(-5.38999e-05 -1.95513e-05 0.108034)
(-5.3847e-05 1.96202e-05 0.108032)
(1.46166e-05 1.02711e-05 0.107727)
(5.38345e-05 -1.94957e-05 0.108035)
(5.37896e-05 1.95483e-05 0.108033)
(1.56453e-05 -1.564e-05 0.104649)
(-3.74771e-05 3.74911e-05 0.1049)
(1.02325e-05 1.46558e-05 0.107729)
(-1.95778e-05 5.38439e-05 0.108034)
(1.95786e-05 5.38632e-05 0.108034)
(3.74782e-05 3.74352e-05 0.1049)
(-3.73359e-05 -3.73009e-05 0.105237)
(-1.30646e-05 -4.44596e-05 0.108184)
(1.30931e-05 -4.44908e-05 0.108184)
(3.73253e-05 -3.72507e-05 0.105237)
(-4.46235e-05 -1.30244e-05 0.108185)
(-4.45882e-05 1.31094e-05 0.108183)
(2.99215e-05 -2.98295e-05 0.111315)
(-2.99107e-05 2.99375e-05 0.111314)
(2.99149e-05 2.99156e-05 0.111314)
(4.45316e-05 1.30361e-05 0.108184)
(-3.73192e-05 3.73182e-05 0.105236)
(1.30556e-05 4.45938e-05 0.108185)
(-4.46193e-08 -6.31733e-06 0.0918439)
(-1.24174e-06 -6.06518e-06 0.0826662)
(1.93346e-06 -2.68768e-06 0.0719662)
(-6.0848e-06 -1.22632e-06 0.0826668)
(-6.01419e-07 -5.70151e-07 0.112005)
(5.87727e-07 -5.65563e-07 0.112005)
(-5.92964e-07 5.8951e-07 0.112004)
(5.84124e-07 5.90728e-07 0.112004)
(1.12893e-05 3.02118e-08 0.0990285)
(-3.10279e-07 6.82005e-07 0.107736)
(9.37978e-06 -3.09525e-06 0.093492)
(-4.39666e-07 -1.06147e-07 0.109921)
(-3.05252e-08 -6.34104e-06 0.091844)
(4.81795e-07 6.46195e-06 0.0826308)
(-7.62594e-08 5.82234e-06 0.0918158)
(-1.26469e-06 -6.05686e-06 0.0826666)
(-1.75074e-06 2.87175e-06 0.0719281)
(1.94717e-06 -2.67063e-06 0.0719666)
(-6.3575e-06 -2.30757e-08 0.0918441)
(6.44844e-06 4.88784e-07 0.0826316)
(5.81561e-06 -6.32548e-08 0.0918158)
(-6.08015e-06 -1.256e-06 0.0826672)
(5.71475e-07 -5.42234e-07 0.112005)
(-5.72952e-07 5.76918e-07 0.112004)
(5.70953e-07 5.70788e-07 0.112004)
(-4.93474e-07 -5.24759e-07 0.112005)
(5.55094e-07 -5.16682e-07 0.112005)
(-4.90666e-07 5.38968e-07 0.112004)
(5.33503e-07 5.16836e-07 0.112004)
(1.12466e-05 3.53054e-08 0.0990284)
(-9.99141e-06 2.7259e-06 0.0934482)
(-4.19164e-07 -6.53883e-08 0.109921)
(-3.14361e-07 7.39058e-07 0.107736)
(-1.09214e-05 -3.11124e-08 0.0989834)
(9.35456e-06 -3.17687e-06 0.093492)
(-4.32828e-07 -6.4736e-08 0.109921)
(2.94532e-06 -1.79858e-06 0.07193)
(-2.74132e-06 2.00955e-06 0.0719644)
(1.76914e-08 1.12531e-05 0.099028)
(-8.22931e-08 -4.22439e-07 0.10992)
(2.71029e-06 -9.98832e-06 0.0934483)
(7.37232e-07 -3.17149e-07 0.107735)
(-3.56462e-08 -1.09325e-05 0.098983)
(-6.46504e-08 -4.35818e-07 0.10992)
(-3.17774e-06 9.35186e-06 0.0934912)
(-3.73559e-06 -3.45973e-06 0.087967)
(-3.45718e-06 -3.72331e-06 0.0879662)
(3.4028e-05 3.4029e-05 0.104691)
(3.31613e-06 3.55394e-06 0.0879987)
(3.55834e-06 3.32071e-06 0.0879971)
(-3.6013e-08 -6.32324e-06 0.0918439)
(4.98567e-07 6.49304e-06 0.082631)
(-7.80162e-08 5.91927e-06 0.0918159)
(-1.27895e-06 -6.03819e-06 0.0826666)
(-1.77683e-06 2.87023e-06 0.0719282)
(1.9342e-06 -2.66602e-06 0.0719666)
(-6.3225e-06 -1.54128e-08 0.091844)
(6.47843e-06 5.19851e-07 0.0826318)
(5.91976e-06 -6.63994e-08 0.0918159)
(-6.05884e-06 -1.26058e-06 0.0826673)
(5.77414e-07 -5.42456e-07 0.112005)
(-5.01266e-07 5.55525e-07 0.112004)
(5.5194e-07 5.3382e-07 0.112004)
(-4.64963e-07 -4.82778e-07 0.112005)
(5.10538e-07 -5.03454e-07 0.112005)
(-4.80982e-07 5.15298e-07 0.112004)
(4.91606e-07 5.03105e-07 0.112004)
(1.11871e-05 2.08768e-08 0.0990285)
(-1.00242e-05 2.83008e-06 0.0934483)
(-4.56635e-07 -1.12485e-07 0.109921)
(-3.60247e-07 7.41722e-07 0.107736)
(-1.09244e-05 -3.83236e-08 0.0989834)
(9.31289e-06 -3.17641e-06 0.0934921)
(-4.73352e-07 -1.01027e-07 0.109921)
(2.94719e-06 -1.82266e-06 0.0719302)
(-2.73963e-06 1.99261e-06 0.0719645)
(7.8968e-10 1.11888e-05 0.0990282)
(-7.73074e-08 -4.5956e-07 0.10992)
(2.81172e-06 -1.00207e-05 0.0934484)
(7.68649e-07 -3.60979e-07 0.107735)
(-2.96365e-08 -1.09304e-05 0.098983)
(-6.71005e-08 -4.76333e-07 0.10992)
(-3.18323e-06 9.28463e-06 0.0934913)
(-3.73983e-06 -3.49725e-06 0.0879672)
(-3.49227e-06 -3.73154e-06 0.0879663)
(3.3969e-05 3.39765e-05 0.104691)
(3.33432e-06 3.5305e-06 0.0879988)
(3.53848e-06 3.33482e-06 0.0879972)
(-4.35071e-08 -6.23921e-06 0.0918438)
(4.96993e-07 6.52309e-06 0.0826308)
(-8.66336e-08 5.9715e-06 0.0918158)
(-1.25332e-06 -6.0227e-06 0.0826664)
(-1.7418e-06 2.89418e-06 0.0719282)
(1.95159e-06 -2.65272e-06 0.0719665)
(-6.23098e-06 -3.06482e-08 0.0918439)
(6.52243e-06 5.04923e-07 0.0826317)
(5.97893e-06 -6.28402e-08 0.0918158)
(-6.02809e-06 -1.25924e-06 0.0826671)
(4.67111e-07 -4.77335e-07 0.112005)
(-4.73144e-07 4.78714e-07 0.112004)
(4.53755e-07 4.71642e-07 0.112004)
(-5.04119e-07 -4.6001e-07 0.112005)
(4.23165e-07 -4.7025e-07 0.112005)
(-4.85978e-07 4.29073e-07 0.112004)
(4.34387e-07 4.65883e-07 0.112004)
(1.11726e-05 2.3189e-08 0.0990284)
(-1.00436e-05 2.80991e-06 0.0934482)
(-5.34977e-07 -8.27247e-08 0.109921)
(-4.19615e-07 7.55156e-07 0.107736)
(-1.0991e-05 -2.97869e-08 0.0989833)
(9.29102e-06 -3.12953e-06 0.093492)
(-5.58876e-07 -8.61539e-08 0.109921)
(2.9671e-06 -1.80468e-06 0.0719302)
(-2.71916e-06 2.00666e-06 0.0719644)
(-9.11072e-09 1.11753e-05 0.0990281)
(-9.28745e-08 -5.29002e-07 0.10992)
(2.78466e-06 -1.00607e-05 0.0934483)
(7.23617e-07 -4.1702e-07 0.107735)
(-4.37711e-08 -1.10106e-05 0.0989829)
(-1.04185e-07 -5.52729e-07 0.10992)
(-3.11657e-06 9.27962e-06 0.0934912)
(-3.77223e-06 -3.49746e-06 0.0879672)
(-3.48824e-06 -3.76623e-06 0.0879663)
(3.38947e-05 3.39203e-05 0.104691)
(3.28514e-06 3.51092e-06 0.0879987)
(3.52601e-06 3.28275e-06 0.0879971)
(-2.23293e-08 -6.18131e-06 0.0918434)
(5.37874e-07 6.52622e-06 0.0826304)
(-6.22899e-08 5.97722e-06 0.0918155)
(-1.19401e-06 -5.98905e-06 0.0826658)
(-1.7824e-06 2.88162e-06 0.0719278)
(1.89544e-06 -2.65228e-06 0.071966)
(-6.18429e-06 -3.0047e-08 0.0918435)
(6.52961e-06 5.15293e-07 0.0826312)
(5.98026e-06 -6.68694e-08 0.0918155)
(-5.999e-06 -1.21376e-06 0.0826665)
(4.18702e-07 -4.65548e-07 0.112006)
(-4.71877e-07 4.10487e-07 0.112005)
(4.41384e-07 4.6624e-07 0.112005)
(-4.5962e-07 -4.57233e-07 0.112006)
(4.22808e-07 -4.22155e-07 0.112006)
(-3.97217e-07 3.82872e-07 0.112005)
(4.5204e-07 4.36546e-07 0.112005)
(1.10438e-05 4.31911e-08 0.0990282)
(-1.01332e-05 2.81134e-06 0.093448)
(-6.4997e-07 -6.28548e-08 0.109922)
(-4.86808e-07 7.83846e-07 0.107736)
(-1.11309e-05 -1.2721e-08 0.0989832)
(9.19545e-06 -3.04954e-06 0.0934917)
(-6.70714e-07 -7.14138e-08 0.109921)
(2.9681e-06 -1.80781e-06 0.0719299)
(-2.72317e-06 1.98489e-06 0.071964)
(4.98194e-08 1.10532e-05 0.0990279)
(-4.77365e-08 -6.40573e-07 0.10992)
(2.79035e-06 -1.01034e-05 0.0934481)
(8.27293e-07 -5.04142e-07 0.107735)
(2.40223e-09 -1.11292e-05 0.0989828)
(-3.96626e-08 -6.69005e-07 0.10992)
(-3.05486e-06 9.20159e-06 0.0934908)
(-3.82351e-06 -3.5651e-06 0.0879668)
(-3.53677e-06 -3.8276e-06 0.0879659)
(3.39537e-05 3.39485e-05 0.104691)
(3.24962e-06 3.42505e-06 0.0879982)
(3.45214e-06 3.24068e-06 0.0879966)
(-2.38596e-08 -6.23867e-06 0.091843)
(5.39709e-07 6.54667e-06 0.0826296)
(-6.46403e-08 6.01613e-06 0.0918151)
(-1.24286e-06 -5.9903e-06 0.0826651)
(-1.79505e-06 2.89984e-06 0.0719267)
(1.91709e-06 -2.63839e-06 0.0719649)
(-6.22716e-06 -1.34753e-08 0.0918431)
(6.5425e-06 5.47113e-07 0.0826304)
(6.03072e-06 -6.06964e-08 0.0918151)
(-6.00734e-06 -1.23092e-06 0.0826658)
(4.6176e-07 -4.34679e-07 0.112006)
(-4.20324e-07 4.30331e-07 0.112005)
(4.73668e-07 4.53291e-07 0.112005)
(-4.69245e-07 -4.39422e-07 0.112006)
(4.9784e-07 -4.43636e-07 0.112006)
(-4.91965e-07 5.31272e-07 0.112005)
(4.61438e-07 4.84118e-07 0.112005)
(1.10483e-05 4.29721e-08 0.0990283)
(-1.01593e-05 2.87421e-06 0.0934476)
(-6.07023e-07 -5.78004e-08 0.109922)
(-4.469e-07 8.3565e-07 0.107736)
(-1.11237e-05 -2.70534e-08 0.0989832)
(9.21873e-06 -3.11189e-06 0.0934914)
(-5.96614e-07 -4.68903e-08 0.109922)
(2.9692e-06 -1.87348e-06 0.0719288)
(-2.71604e-06 1.9362e-06 0.0719627)
(2.17383e-08 1.10359e-05 0.0990279)
(-4.71645e-08 -6.30909e-07 0.109921)
(2.8762e-06 -1.01856e-05 0.0934477)
(8.05013e-07 -4.6317e-07 0.107735)
(-1.49406e-08 -1.11419e-05 0.0989828)
(-5.70147e-08 -6.23337e-07 0.109921)
(-3.07658e-06 9.17572e-06 0.0934905)
(-3.81386e-06 -3.55137e-06 0.0879662)
(-3.54703e-06 -3.80462e-06 0.0879654)
(3.39157e-05 3.39209e-05 0.104692)
(3.27665e-06 3.50076e-06 0.0879977)
(3.50354e-06 3.28004e-06 0.0879961)
(-5.06615e-08 -6.352e-06 0.0918429)
(4.84587e-07 6.51138e-06 0.0826291)
(-8.82217e-08 5.93536e-06 0.0918148)
(-1.28585e-06 -6.05372e-06 0.0826649)
(-1.75344e-06 2.88728e-06 0.0719261)
(1.96027e-06 -2.66682e-06 0.0719648)
(-6.35638e-06 -4.05618e-08 0.091843)
(6.50466e-06 4.9449e-07 0.0826299)
(5.93747e-06 -7.80626e-08 0.0918148)
(-6.07144e-06 -1.28107e-06 0.0826656)
(5.11284e-07 -4.63952e-07 0.112006)
(-5.29731e-07 5.60371e-07 0.112005)
(4.71472e-07 5.07164e-07 0.112005)
(-5.5578e-07 -5.14177e-07 0.112006)
(5.68437e-07 -5.58418e-07 0.112006)
(-5.99825e-07 6.03391e-07 0.112005)
(5.37714e-07 5.67759e-07 0.112005)
(1.12784e-05 1.74799e-08 0.0990282)
(-1.00407e-05 2.84969e-06 0.0934474)
(-5.01538e-07 -6.83124e-08 0.109922)
(-3.43507e-07 7.59943e-07 0.107736)
(-1.09793e-05 -2.54567e-08 0.0989831)
(9.36151e-06 -3.152e-06 0.0934912)
(-4.7008e-07 -7.14727e-08 0.109922)
(2.95889e-06 -1.83991e-06 0.0719278)
(-2.73894e-06 2.00646e-06 0.0719624)
(-3.8596e-09 1.1268e-05 0.0990278)
(-1.23242e-07 -4.97925e-07 0.109921)
(2.85094e-06 -1.00514e-05 0.0934474)
(7.10566e-07 -3.46157e-07 0.107735)
(-3.51672e-08 -1.09981e-05 0.0989827)
(-1.24882e-07 -4.67607e-07 0.109921)
(-3.14997e-06 9.35694e-06 0.0934903)
(-3.73641e-06 -3.51334e-06 0.0879658)
(-3.49195e-06 -3.73793e-06 0.087965)
(3.39834e-05 3.40126e-05 0.104692)
(3.36304e-06 3.53165e-06 0.0879975)
(3.55771e-06 3.35269e-06 0.0879959)
(-4.99829e-08 -6.43778e-06 0.0918432)
(5.03106e-07 6.43301e-06 0.0826293)
(-9.67434e-08 5.80326e-06 0.0918149)
(-1.23308e-06 -6.10295e-06 0.0826656)
(-1.77094e-06 2.83963e-06 0.0719265)
(1.92189e-06 -2.68861e-06 0.0719656)
(-6.44502e-06 -3.58639e-08 0.0918433)
(6.42306e-06 5.01819e-07 0.0826302)
(5.77921e-06 -8.72844e-08 0.0918149)
(-6.12075e-06 -1.22345e-06 0.0826663)
(5.99587e-07 -6.03933e-07 0.112006)
(-6.09693e-07 6.18265e-07 0.112005)
(5.7422e-07 5.98743e-07 0.112005)
(-6.72459e-07 -7.30667e-07 0.112005)
(7.04167e-07 -7.14742e-07 0.112005)
(-6.2646e-07 6.75231e-07 0.112004)
(7.14628e-07 7.0938e-07 0.112004)
(1.14256e-05 7.28479e-09 0.0990282)
(-9.90108e-06 2.74868e-06 0.0934474)
(-3.44349e-07 -1.07234e-07 0.109922)
(-2.02026e-07 6.14674e-07 0.107736)
(-1.08091e-05 -3.04992e-08 0.098983)
(9.47395e-06 -3.15229e-06 0.0934915)
(-3.18824e-07 -1.19229e-07 0.109921)
(2.9145e-06 -1.79191e-06 0.0719285)
(-2.75339e-06 2.0138e-06 0.0719636)
(1.09533e-09 1.1461e-05 0.0990278)
(-8.95353e-08 -3.18109e-07 0.109921)
(2.7356e-06 -9.87104e-06 0.0934475)
(6.55472e-07 -1.79414e-07 0.107735)
(-1.21107e-08 -1.07867e-05 0.0989826)
(-6.93281e-08 -2.884e-07 0.109921)
(-3.18997e-06 9.47128e-06 0.0934906)
(-3.65634e-06 -3.48177e-06 0.0879661)
(-3.45635e-06 -3.66345e-06 0.0879652)
(3.4157e-05 3.41429e-05 0.104691)
(3.41747e-06 3.52615e-06 0.087998)
(3.56459e-06 3.40077e-06 0.0879964)
(-3.55039e-08 -6.38197e-06 0.0918438)
(5.42077e-07 6.42881e-06 0.08263)