/*--------------------------------*- C++ -*----------------------------------*\
| =========                 |                                                 |
| \\      /  F ield         | OpenFOAM: The Open Source CFD Toolbox           |
|  \\    /   O peration     | Version:  2312                                  |
|   \\  /    A nd           | Website:  www.openfoam.com                      |
|    \\/     M anipulation  |                                                 |
\*---------------------------------------------------------------------------*/
FoamFile
{
    version     2.0;
    format      ascii;
    arch        "LSB;label=32;scalar=64";
    class       volScalarField;
    location    "850";
    object      p;
}
// * * * * * * * * * * * * * * * * * * * * * * * * * * * * * * * * * * * * * //

dimensions      [0 2 -2 0 0 0 0];

internalField   nonuniform List<scalar> 
43496
(
0.000735138
0.000735139
0.000737301
0.000735176
0.00073522
0.000737322
0.000735138
0.00073514
0.00073522
0.000737301
0.000737322
0.000735175
0.00073569
0.000735133
0.000735133
0.000735139
0.00073514
0.000739451
0.000739429
0.000735137
0.000735132
0.000739432
0.000739449
0.000735132
0.000739452
0.000735127
0.000739445
0.000735136
0.000739448
0.000739451
0.000739428
0.000735132
0.000735137
0.000739449
0.000739432
0.000735132
0.000739452
0.000735127
0.00073944
0.000739445
0.000735136
0.000739454
0.000735134
0.000735134
0.000739458
0.000739458
0.000735125
0.000739417
0.000735141
0.00073944
0.000735186
0.000739443
0.000739383
0.000735156
0.000739417
0.000735141
0.00073944
0.000735187
0.000739383
0.000739443
0.000735156
0.000739448
0.000739441
0.000737388
0.000737355
0.000737388
0.000739393
0.000735337
0.000739245
0.000739113
0.000739345
0.000735217
0.000735457
0.000739349
0.000739116
0.000735462
0.000739141
0.000735202
0.000739363
0.000735423
0.000739114
0.000739345
0.000735457
0.000735217
0.000739116
0.000739349
0.000735462
0.000739141
0.000735202
0.000739393
0.000735337
0.000739363
0.000735422
0.000739245
0.000739315
0.000738875
0.000735432
0.000735432
0.000739154
0.000739153
0.000735258
0.000781498
0.000781441
0.000781441
0.000783012
0.000746187
0.000746131
0.000746132
0.000747706
0.000783012
0.00075335
0.000781441
0.000781441
0.000754961
0.000754961
0.000783011
0.00075335
0.000781441
0.000781441
0.000754961
0.000754961
0.00078144
0.000754961
0.000754961
0.000783012
0.00075335
0.000781441
0.000754961
0.000754961
0.00075335
0.000747705
0.000746132
0.000746132
0.000747704
0.000746132
0.000746132
0.000746132
0.000747705
0.000746132
0.00077045
0.000783573
0.000770452
0.000783562
0.00078358
0.000770451
0.00077045
0.000783573
0.000770452
0.000783562
0.000781498
0.000781498
0.000781498
0.000755016
0.000755016
0.000755016
0.000755016
0.000770534
0.000783526
0.000781462
0.000772615
0.000770488
0.000772637
0.000783479
0.000783581
0.000770451
0.000770534
0.000781462
0.000783526
0.000772615
0.000772637
0.000770488
0.000783479
0.000783573
0.000783573
0.000771004
0.000770445
0.000770445
0.00074827
0.000748258
0.000748277
0.00074827
0.000748258
0.000746186
0.000746186
0.000746186
0.00073522
0.000748222
0.000746153
0.000748174
0.000737321
0.000748277
0.00073522
0.000746152
0.000748223
0.000748174
0.000737321
0.00074827
0.00074827
0.00073569
0.000735133
0.000735133
0.00078358
0.000770451
0.000783581
0.000770451
0.000783573
0.000783573
0.000771004
0.000770446
0.000770445
0.000752798
0.000765932
0.000752798
0.000765932
0.000765361
0.000752792
0.000752792
0.000765924
0.000765924
0.00077045
0.000783573
0.000770452
0.000783562
0.000770534
0.000783526
0.000781462
0.000772615
0.000770488
0.000772637
0.000783479
0.000770534
0.000783526
0.000781462
0.000772615
0.000770488
0.000772637
0.000783479
0.000765913
0.000752799
0.000765924
0.000752797
0.000765913
0.000752799
0.000765924
0.000752797
0.000765829
0.000763789
0.000752834
0.000754982
0.000765877
0.00076381
0.00075288
0.000765829
0.000763789
0.000752835
0.000754982
0.000765877
0.00076381
0.00075288
0.000783573
0.000783573
0.000771004
0.000770446
0.000770446
0.000783581
0.000770451
0.000752797
0.000765932
0.00076536
0.000752793
0.000752792
0.000765923
0.000765924
0.000752798
0.000765931
0.000770534
0.000783526
0.000781462
0.000772615
0.000770488
0.000772637
0.000783479
0.00077045
0.000783573
0.000770452
0.000783562
0.000770534
0.000781462
0.000783526
0.000772615
0.000772637
0.000770488
0.000783479
0.000765913
0.000752799
0.000765924
0.000752797
0.000765829
0.000763789
0.000752834
0.000754982
0.000765877
0.00076381
0.00075288
0.000765913
0.000752799
0.000765924
0.000752797
0.000765829
0.000763789
0.000754982
0.000752834
0.00076381
0.000765877
0.00075288
0.000770451
0.000783573
0.000770452
0.000783561
0.000770534
0.000781462
0.000783527
0.000772616
0.000772637
0.000770488
0.000783479
0.00077045
0.000783574
0.000770452
0.000783562
0.000765829
0.000763789
0.000752834
0.000754982
0.000765877
0.00076381
0.00075288
0.000765912
0.000752799
0.000765924
0.000752797
0.000765829
0.000763789
0.000754982
0.000752834
0.00076381
0.000765878
0.00075288
0.000765913
0.000752799
0.000765925
0.000752797
0.000783573
0.000783573
0.000771004
0.000770445
0.000770446
0.000783581
0.000770451
0.000752797
0.000765932
0.000765361
0.000752792
0.000752792
0.000765924
0.000765924
0.000752798
0.000765932
0.000770534
0.000781462
0.000783526
0.000772615
0.000772637
0.000770488
0.000783479
0.000770451
0.000783574
0.000770452
0.000783561
0.000770451
0.000783573
0.000770452
0.000783561
0.000765829
0.000763789
0.000754982
0.000752834
0.00076381
0.000765877
0.00075288
0.000765829
0.000763789
0.000754982
0.000752834
0.00076381
0.000765877
0.00075288
0.000765912
0.000752799
0.000765924
0.000752797
0.000765912
0.000752799
0.000765924
0.000752798
0.000783581
0.000770451
0.000783581
0.000770451
0.000765362
0.000752792
0.000752792
0.000765924
0.000765924
0.000752798
0.000765932
0.000752798
0.000765932
0.000748277
0.000748277
0.000748269
0.00074827
0.00074827
0.000748258
0.000748223
0.000746153
0.000748174
0.000748222
0.000746152
0.000748174
0.000748269
0.000748269
0.000748277
0.000748223
0.000746153
0.000748174
0.00074827
0.000748258
0.000746153
0.000748223
0.000748174
0.000735138
0.00074827
0.000748257
0.00073522
0.000746152
0.000748223
0.000737302
0.000748174
0.000737321
0.000735175
0.000735138
0.00074827
0.000748258
0.00073514
0.00074827
0.00074827
0.000748277
0.000735221
0.000746153
0.000748223
0.000737302
0.000748174
0.000737321
0.000735176
0.000735138
0.00074827
0.000748258
0.000735139
0.00074827
0.000748257
0.00073514
0.000748277
0.000735139
0.000748277
0.000735139
0.000774759
0.000770444
0.000770448
0.000774738
0.000774757
0.000774741
0.000770444
0.000779272
0.000779276
0.000783578
0.000779264
0.000783585
0.000774761
0.000770439
0.00077475
0.000774754
0.000770448
0.000779268
0.000779275
0.000783581
0.000783565
0.000779268
0.000779273
0.000783583
0.000779275
0.000774757
0.00077476
0.000770449
0.000770444
0.000774738
0.000774741
0.000774758
0.000770444
0.000779272
0.000779276
0.000783578
0.000779264
0.000783585
0.000774761
0.000770439
0.00077475
0.000774754
0.000770448
0.000779268
0.000779275
0.000783565
0.000783581
0.000779273
0.000779268
0.000783583
0.000779275
0.000774757
0.000774763
0.000770446
0.000770446
0.000774767
0.000774767
0.000770437
0.000779294
0.000783517
0.00077927
0.000783576
0.000779324
0.000779278
0.00078355
0.000779294
0.000783517
0.00077927
0.000783576
0.000779324
0.000779278
0.00078355
0.000774726
0.000770453
0.000774749
0.000770499
0.000774693
0.000774752
0.000770469
0.000774726
0.000770453
0.000774749
0.000770499
0.000774693
0.000774752
0.000770469
0.000779262
0.000783591
0.000783591
0.000779271
0.000779271
0.000783587
0.000743966
0.000748274
0.00074397
0.000748282
0.000743958
0.000743962
0.000743968
0.000748278
0.000748261
0.00074828
0.000743962
0.000743967
0.000743969
0.000743966
0.000748274
0.00074397
0.000748282
0.000743957
0.000743962
0.000743968
0.000748261
0.000748278
0.00074828
0.000743967
0.000743962
0.000743969
0.000739454
0.000735134
0.000735134
0.000739458
0.000739458
0.000735125
0.000743987
0.000748213
0.000748273
0.000743963
0.000748246
0.000744017
0.000743972
0.000743987
0.000748214
0.000748273
0.000743964
0.000748246
0.000744017
0.000743972
0.000743955
0.000748287
0.000748287
0.000748284
0.000743964
0.000743964
0.000739417
0.000735141
0.00073944
0.000735186
0.000739382
0.000739443
0.000735157
0.000739417
0.000735141
0.00073944
0.000735186
0.000739383
0.000739443
0.000735156
0.000779275
0.000774757
0.000779275
0.000774757
0.000774763
0.000770446
0.000770446
0.000774767
0.000774767
0.000770437
0.000779294
0.000783517
0.00077927
0.000783576
0.000779278
0.000779324
0.00078355
0.000779294
0.000783517
0.00077927
0.000783576
0.000779278
0.000779324
0.00078355
0.000774726
0.000770453
0.000774749
0.0007705
0.000774752
0.000770469
0.000774693
0.000774726
0.000770454
0.000774749
0.000770499
0.000774752
0.000770469
0.000774693
0.000779262
0.000783591
0.000783591
0.000779271
0.000779271
0.000783587
0.000757105
0.000761625
0.000757105
0.000761625
0.000761611
0.000765941
0.000765942
0.000765938
0.00076162
0.00076162
0.000757074
0.000752846
0.000757097
0.0007528
0.000757101
0.00075704
0.000752816
0.000757074
0.000752846
0.000757098
0.0007528
0.000757101
0.000757041
0.000752816
0.000761643
0.000765927
0.000765867
0.00076162
0.0007659
0.000761627
0.000761673
0.000761643
0.000765927
0.000765867
0.000761619
0.0007659
0.000761628
0.000761673
0.000757112
0.000752793
0.000752793
0.000757115
0.000757115
0.000752784
0.000774759
0.000770444
0.000770448
0.000774738
0.000774757
0.000774741
0.000770444
0.000779272
0.000779276
0.000783578
0.000779264
0.000783585
0.000774761
0.000770439
0.000774749
0.000774754
0.000770448
0.000779268
0.000779275
0.000783581
0.000783565
0.000779268
0.000779273
0.000783583
0.000761618
0.000765932
0.000765916
0.000761624
0.000765934
0.000761618
0.000761623
0.000757109
0.000757098
0.000752786
0.000752795
0.000757102
0.000761622
0.000765929
0.000761626
0.000765936
0.000761613
0.000757108
0.000757086
0.000752791
0.000752795
0.000752791
0.000757106
0.000757089
0.000761618
0.000765932
0.000765916
0.000761624
0.000765934
0.000761618
0.000761623
0.000757109
0.000757098
0.000752786
0.000757102
0.000752795
0.000761622
0.000765929
0.000761626
0.000765936
0.000761613
0.000757108
0.000757086
0.000752791
0.000752795
0.000757106
0.000757089
0.000752791
0.000774763
0.000770446
0.000770446
0.000774767
0.000774767
0.000770437
0.000779294
0.000783516
0.00077927
0.000783576
0.000779278
0.000779324
0.00078355
0.000779294
0.000783516
0.00077927
0.000783576
0.000779324
0.000779278
0.000783549
0.000774726
0.000770453
0.000774749
0.000770499
0.000774752
0.000774693
0.000770469
0.000774726
0.000770454
0.000774749
0.0007705
0.000774693
0.000774752
0.000770469
0.000779262
0.00078359
0.00078359
0.000779271
0.000779271
0.000783587
0.000779275
0.000774757
0.000757105
0.000761625
0.000761611
0.000765941
0.000765941
0.000765938
0.00076162
0.00076162
0.000757074
0.000752846
0.000757097
0.0007528
0.00075704
0.0007571
0.000752815
0.000757074
0.000752846
0.000757097
0.0007528
0.0007571
0.00075704
0.000752815
0.000761643
0.000765927
0.000765867
0.00076162
0.000761673
0.0007659
0.000761627
0.000761643
0.000765927
0.000765867
0.000761619
0.0007659
0.000761628
0.000761673
0.000757111
0.000752793
0.000752793
0.000757115
0.000757115
0.000752784
0.000757105
0.000761625
0.00077476
0.000770444
0.000770448
0.000774738
0.000774758
0.000774741
0.000770444
0.000779272
0.000779276
0.000783578
0.000779263
0.000783585
0.000774761
0.000770439
0.00077475
0.000774754
0.000770448
0.000779268
0.000779275
0.000783581
0.000783565
0.000779268
0.000779273
0.000783583
0.000761618
0.000765916
0.000765932
0.000761624
0.000765934
0.000761623
0.000761618
0.00075711
0.000757098
0.000752786
0.000752795
0.000757102
0.000761622
0.000765929
0.000761626
0.000765936
0.000761613
0.000757108
0.000757086
0.000752795
0.000752791
0.000752791
0.000757089
0.000757106
0.000761618
0.000765932
0.000765916
0.000761624
0.000765934
0.000761618
0.000761622
0.000757109
0.000757098
0.000752786
0.000757102
0.000752795
0.000761622
0.000765929
0.000761626
0.000765936
0.000761613
0.000757108
0.000757086
0.000752791
0.000752795
0.000757106
0.000757089
0.000752791
0.000774759
0.000770449
0.000770444
0.000774737
0.00077474
0.000774757
0.000770444
0.000779272
0.000779276
0.000783577
0.000779264
0.000783585
0.000774761
0.00077044
0.00077475
0.000774753
0.000770448
0.000779269
0.000779275
0.000783564
0.000783581
0.000779274
0.000779268
0.000783583
0.00077476
0.000770444
0.000770449
0.000774738
0.000774758
0.000774741
0.000770444
0.000779272
0.000779276
0.000783578
0.000779264
0.000783585
0.000774761
0.000770439
0.00077475
0.000774754
0.000770448
0.000779268
0.000779275
0.000783581
0.000783565
0.000779268
0.000779273
0.000783583
0.000761618
0.000765915
0.000765932
0.000761625
0.000765934
0.000761623
0.000761618
0.000757109
0.000757098
0.000752786
0.000757102
0.000752795
0.000761622
0.000765928
0.000761626
0.000765936
0.000761614
0.000757108
0.000757086
0.000752796
0.000752791
0.000757088
0.000757106
0.000752791
0.000761618
0.000765932
0.000765916
0.000761624
0.000765934
0.000761618
0.000761623
0.000757109
0.000757098
0.000752786
0.000757102
0.000752795
0.000761622
0.000765929
0.000761626
0.000765936
0.000761613
0.000757108
0.000757086
0.000752791
0.000752795
0.000757106
0.000757089
0.000752791
0.000774763
0.000770446
0.000770446
0.000774767
0.000774767
0.000770437
0.000779293
0.000783517
0.00077927
0.000783576
0.000779278
0.000779324
0.00078355
0.000779294
0.000783517
0.00077927
0.000783576
0.000779324
0.000779278
0.00078355
0.000774726
0.000770453
0.000774749
0.000770499
0.000774753
0.000774693
0.000770469
0.000774726
0.000770453
0.000774749
0.000770499
0.000774693
0.000774753
0.000770469
0.000779262
0.000783591
0.000783591
0.000779271
0.000779271
0.000783587
0.000779275
0.000774757
0.000757105
0.000761625
0.000761611
0.000765942
0.000765942
0.000765938
0.00076162
0.00076162
0.000757074
0.000752845
0.000757098
0.0007528
0.000757041
0.000757101
0.000752815
0.000757074
0.000752846
0.000757097
0.0007528
0.000757101
0.000757041
0.000752815
0.000761643
0.000765927
0.000765868
0.000761619
0.000761673
0.000765901
0.000761627
0.000761643
0.000765927
0.000765868
0.00076162
0.000765901
0.000761627
0.000761673
0.000757112
0.000752793
0.000752793
0.000757115
0.000757115
0.000752784
0.000757105
0.000761625
0.00077476
0.000770449
0.000770444
0.000774737
0.000774741
0.000774758
0.000770444
0.000779272
0.000779276
0.000783578
0.000779264
0.000783585
0.000774761
0.000770439
0.00077475
0.000774754
0.000770448
0.000779268
0.000779275
0.000783565
0.000783581
0.000779273
0.000779268
0.000783583
0.00077476
0.000770449
0.000770444
0.000774737
0.00077474
0.000774757
0.000770444
0.000779272
0.000779276
0.000783578
0.000779264
0.000783585
0.000774761
0.000770439
0.00077475
0.000774754
0.000770448
0.000779268
0.000779275
0.000783564
0.000783581
0.000779274
0.000779268
0.000783583
0.000761618
0.000765916
0.000765932
0.000761625
0.000765934
0.000761623
0.000761618
0.00075711
0.000757098
0.000752786
0.000757102
0.000752795
0.000761622
0.000765929
0.000761626
0.000765936
0.000761613
0.000757108
0.000757086
0.000752795
0.000752791
0.000757089
0.000757106
0.000752791
0.000761618
0.000765915
0.000765932
0.000761625
0.000765934
0.000761623
0.000761618
0.00075711
0.000757098
0.000752786
0.000757102
0.000752795
0.000761622
0.000765929
0.000761626
0.000765936
0.000761613
0.000757108
0.000757085
0.000752796
0.000752791
0.000757089
0.000757106
0.000752791
0.000779275
0.000774757
0.000779275
0.000774757
0.000761611
0.000765942
0.000765942
0.000765938
0.00076162
0.00076162
0.000757074
0.000752846
0.000757097
0.0007528
0.000752815
0.000757041
0.000757101
0.000757074
0.000752846
0.000757097
0.0007528
0.000752815
0.000757041
0.000757101
0.000761643
0.000765927
0.000765867
0.000761619
0.000765901
0.000761673
0.000761628
0.000761643
0.000765927
0.000765867
0.000761619
0.000765901
0.000761673
0.000761627
0.000757112
0.000752793
0.000752793
0.000752784
0.000757115
0.000757115
0.000757105
0.000761625
0.000757105
0.000761625
0.000743969
0.000743969
0.000743987
0.000748212
0.000748273
0.000743964
0.000748246
0.000743972
0.000744018
0.000743987
0.000748213
0.000748273
0.000743964
0.000748246
0.000743971
0.000744017
0.000743955
0.000748287
0.000748287
0.000748284
0.000743964
0.000743964
0.000743966
0.000748274
0.00074397
0.000748282
0.000743957
0.000743962
0.000743968
0.000748278
0.000748261
0.000743961
0.00074828
0.000743967
0.000743987
0.000748212
0.000748272
0.000743964
0.000743971
0.000748246
0.000744017
0.000743987
0.000748212
0.000748272
0.000743964
0.000744017
0.000748245
0.000743972
0.000743955
0.000748287
0.000748287
0.000743964
0.000748283
0.000743965
0.000743966
0.000748274
0.00074397
0.000748282
0.000743957
0.000743962
0.000743968
0.000748278
0.000748261
0.000743962
0.00074828
0.000743967
0.00073945
0.000739428
0.000735132
0.000739431
0.000739448
0.000743966
0.000748273
0.00074397
0.000743958
0.000748282
0.000743962
0.000743968
0.00074826
0.000748278
0.000743967
0.00074828
0.000743962
0.000739452
0.00073945
0.000739428
0.000735132
0.000735136
0.000739448
0.000739431
0.000735132
0.000743966
0.000748274
0.00074397
0.000748282
0.000743957
0.000743962
0.000743968
0.000748278
0.000748261
0.00074828
0.000743962
0.000743966
0.000739452
0.000735127
0.00073944
0.000739445
0.000735136
0.000743987
0.000748213
0.000748273
0.000743963
0.000743971
0.000748246
0.000744016
0.000743986
0.000748213
0.000748273
0.000743963
0.000744017
0.000748246
0.000743971
0.000743955
0.000748287
0.000748287
0.000743964
0.000748284
0.000743964
0.000743969
0.000739451
0.000739428
0.000735136
0.000735132
0.000739432
0.000739448
0.000735132
0.000743966
0.000748274
0.00074397
0.000743957
0.000748282
0.000743962
0.000743968
0.000748261
0.000748278
0.000743967
0.00074828
0.000743962
0.000739452
0.000735127
0.000739445
0.000735136
0.00073945
0.000739428
0.000735137
0.000735132
0.000739431
0.000739448
0.000735132
0.000743966
0.000748274
0.00074397
0.000748281
0.000743957
0.000743962
0.000743969
0.00074826
0.000748278
0.00074828
0.000743967
0.000743962
0.000739452
0.000735127
0.00073944
0.000739445
0.000735136
0.000743969
0.000739448
0.000743969
0.000739448
0.000781533
0.000781533
0.000772672
0.000772706
0.000772707
0.000772754
0.00078158
0.000779396
0.000783288
0.000783289
0.000779829
0.00077957
0.00077957
0.000783449
0.00074622
0.00074622
0.000737435
0.000746267
0.000744089
0.000747983
0.000747986
0.000744521
0.000748145
0.000744262
0.000744262
0.000779396
0.000783288
0.000783289
0.00077983
0.00077957
0.00077957
0.000783448
0.000756972
0.000756534
0.000753091
0.000753091
0.000756812
0.000756812
0.000752918
0.000779396
0.000783287
0.000783288
0.00077983
0.00077957
0.000779571
0.000783448
0.000756972
0.000756534
0.000753091
0.000753091
0.000756811
0.000756812
0.000752917
0.000779396
0.000783288
0.000783289
0.00077983
0.00077957
0.00077957
0.000783449
0.000756973
0.000756534
0.000753091
0.000753091
0.000756811
0.000756812
0.000752917
0.000756972
0.000756534
0.000753091
0.000753091
0.000752917
0.000756811
0.000756811
0.000744089
0.000747983
0.000747984
0.000744521
0.000748144
0.000744262
0.000744262
0.000744089
0.000747982
0.000747982
0.000744521
0.000744262
0.000748143
0.000744262
0.000744088
0.000747983
0.000747984
0.000744521
0.000744262
0.000748145
0.000744262
0.000781533
0.000781533
0.000772672
0.000772706
0.000772706
0.000772754
0.00078158
0.000781533
0.000781533
0.000772672
0.000772706
0.000772706
0.000772754
0.00078158
0.000781533
0.000781533
0.000772672
0.000772706
0.000772706
0.000772754
0.00078158
0.000763845
0.00075505
0.00075505
0.000763879
0.000763879
0.000763926
0.000755097
0.000763845
0.00075505
0.00075505
0.000763879
0.000763879
0.000763926
0.000755097
0.000763845
0.00075505
0.00075505
0.000763879
0.000763879
0.000763926
0.000755097
0.000763845
0.00075505
0.00075505
0.000763879
0.000763879
0.000763926
0.000755097
0.000774425
0.000770531
0.000770771
0.000774654
0.000774659
0.000774427
0.000770775
0.000779561
0.000783379
0.000779313
0.000783497
0.000779475
0.00077934
0.000783277
0.000774452
0.000770515
0.000774702
0.00077065
0.000774555
0.000774673
0.000770736
0.000779601
0.000779359
0.000783482
0.000783252
0.000779355
0.000779596
0.000783249
0.000774425
0.000770771
0.00077053
0.000774654
0.000774427
0.000774659
0.000770776
0.000779561
0.000783379
0.000779312
0.000783497
0.000779474
0.000779339
0.000783277
0.000774453
0.000770515
0.000774703
0.00077065
0.000774555
0.000774673
0.000770736
0.000779601
0.000779359
0.000783252
0.000783483
0.000779596
0.000779355
0.000783249
0.000774624
0.000774187
0.000770745
0.000770745
0.000774464
0.000774464
0.000770571
0.00074622
0.00074622
0.000737387
0.000737436
0.000746267
0.00074622
0.00074622
0.000737388
0.000737435
0.000746267
0.000746219
0.00074622
0.000737355
0.000737387
0.000737389
0.000737435
0.000746267
0.000739114
0.000739345
0.000735217
0.000735457
0.000739349
0.000739116
0.000735461
0.000744253
0.000748074
0.000748192
0.000744006
0.000747971
0.000744167
0.000744032
0.000744292
0.000744051
0.000748178
0.000747946
0.000747943
0.000744048
0.000744287
0.000739113
0.000739344
0.000735456
0.000735217
0.000739116
0.000739349
0.000735461
0.000744252
0.000748075
0.000748193
0.000744005
0.000747971
0.000744167
0.000744032
0.000744292
0.000744051
0.000747946
0.000748179
0.000747943
0.000744287
0.000744047
0.000739141
0.000735202
0.000739363
0.000735422
0.000739314
0.000738874
0.00073543
0.000735431
0.00073915
0.000739155
0.000735258
0.000774625
0.000774187
0.000770745
0.000770745
0.000770571
0.000774464
0.000774465
0.000761745
0.000762178
0.000765638
0.000765639
0.000765799
0.000761919
0.000761918
0.000774425
0.00077053
0.000770771
0.000774654
0.000774658
0.000774427
0.000770776
0.000779561
0.000783379
0.000779312
0.000783497
0.000779339
0.000779474
0.000783276
0.000774452
0.000770515
0.000774702
0.000770649
0.000774673
0.000774555
0.000770736
0.000779601
0.000779358
0.000783482
0.000783252
0.000779355
0.000779596
0.000783249
0.000774424
0.00077053
0.000770771
0.000774655
0.000774659
0.000774427
0.000770776
0.000779561
0.000783378
0.000779313
0.000783497
0.000779339
0.000779475
0.000783276
0.000774452
0.000770515
0.000774702
0.00077065
0.000774673
0.000770736
0.000774555
0.000779601
0.000779358
0.000783483
0.000783252
0.000779355
0.000779596
0.000783248
0.000761949
0.000765833
0.000765601
0.000761707
0.000765599
0.000761704
0.000761944
0.0007568
0.000752996
0.000757051
0.000752861
0.000756903
0.000757021
0.000753082
0.00076191
0.000765848
0.00076573
0.000761662
0.000761823
0.000765626
0.000761689
0.000756772
0.000757003
0.000752877
0.000753116
0.000757007
0.000756774
0.000753121
0.00076195
0.000765833
0.000765601
0.000761707
0.000765598
0.000761704
0.000761944
0.000756799
0.000752996
0.00075705
0.000752861
0.000757021
0.000756903
0.000753082
0.00076191
0.000765847
0.000765729
0.000761662
0.000765626
0.000761689
0.000761824
0.000756772
0.000757003
0.000752876
0.000753117
0.000757007
0.000756774
0.000753122
0.000774624
0.000774187
0.000770745
0.000770745
0.000774464
0.000774464
0.000770572
0.000761745
0.000762178
0.000765637
0.000765638
0.000761919
0.000765799
0.000761919
0.000774424
0.00077053
0.000770771
0.000774655
0.000774659
0.000774427
0.000770776
0.000779561
0.000783379
0.000779312
0.000783497
0.00077934
0.000779474
0.000783276
0.000774452
0.000770515
0.000774703
0.00077065
0.000774673
0.000774555
0.000770736
0.000779601
0.000779358
0.000783483
0.000783252
0.000779355
0.000779596
0.000783249
0.000774425
0.000770771
0.00077053
0.000774655
0.000774427
0.000774659
0.000770775
0.000779561
0.00078338
0.000779312
0.000783497
0.000779339
0.000779474
0.000783277
0.000774453
0.000770514
0.000774703
0.000770649
0.000774673
0.000770736
0.000774556
0.000779601
0.000779358
0.000783252
0.000783483
0.000779596
0.000779355
0.000783249
0.00076195
0.000765833
0.000765602
0.000761707
0.000765599
0.000761704
0.000761945
0.000756799
0.000752996
0.000757051
0.000752861
0.000756903
0.000757021
0.000753082
0.00076191
0.000765848
0.00076573
0.000761662
0.000761823
0.000765627
0.000761689
0.000756772
0.000757003
0.000752877
0.000753117
0.000757007
0.000756774
0.000753122
0.000761949
0.000765602
0.000765834
0.000761707
0.000765599
0.000761945
0.000761704
0.0007568
0.000752995
0.000757051
0.000752861
0.000757021
0.000756904
0.000753082
0.000761909
0.000765848
0.000765731
0.000761662
0.000765627
0.000761688
0.000761823
0.000756772
0.000757003
0.000753117
0.000752876
0.000756774
0.000757007
0.000753121
0.000774425
0.000770771
0.00077053
0.000774655
0.000774428
0.000774659
0.000770775
0.000779561
0.00078338
0.000779312
0.000783497
0.000779474
0.000779339
0.000783277
0.000774452
0.000770515
0.000774703
0.000770649
0.000774556
0.000774673
0.000770736
0.0007796
0.000779358
0.000783252
0.000783483
0.000779596
0.000779355
0.00078325
0.000761949
0.000765833
0.000765602
0.000761708
0.000765599
0.000761704
0.000761945
0.0007568
0.000752996
0.000757051
0.000752861
0.000753082
0.000756902
0.000757021
0.00076191
0.000765847
0.000765729
0.000761662
0.000765626
0.000761824
0.000761689
0.000756772
0.000757002
0.000752877
0.000753117
0.000753121
0.000757006
0.000756775
0.000761949
0.000765602
0.000765833
0.000761707
0.0007656
0.000761944
0.000761704
0.0007568
0.000752996
0.00075705
0.000752861
0.000757021
0.000756904
0.000753082
0.000761909
0.000765848
0.000765731
0.000761662
0.000765627
0.000761689
0.000761823
0.000756772
0.000757002
0.000753117
0.000752877
0.000756775
0.000757007
0.000753121
0.000774625
0.000774187
0.000770745
0.000770745
0.000774464
0.000774464
0.000770571
0.000761745
0.000762178
0.000765638
0.000765639
0.000761919
0.0007658
0.000761919
0.000774424
0.000770771
0.00077053
0.000774654
0.000774427
0.000774659
0.000770776
0.000779561
0.000783379
0.000779312
0.000783497
0.000779474
0.000779339
0.000783277
0.000774452
0.000770515
0.000774702
0.00077065
0.000774555
0.000774673
0.000770736
0.000779601
0.000779359
0.000783252
0.000783483
0.000779596
0.000779355
0.000783249
0.000761949
0.000765602
0.000765834
0.000761708
0.000765599
0.000761944
0.000761704
0.0007568
0.000752996
0.000757051
0.000752861
0.000753082
0.000756903
0.000757021
0.000761909
0.000765848
0.00076573
0.000761662
0.000765627
0.000761823
0.000761688
0.000756772
0.000757002
0.000753116
0.000752877
0.000753121
0.000756774
0.000757007
0.000761949
0.000765602
0.000765833
0.000761708
0.000765599
0.000761944
0.000761704
0.0007568
0.000752996
0.000757051
0.000752861
0.000757021
0.000756903
0.000753082
0.00076191
0.000765847
0.00076573
0.000761662
0.000765627
0.000761689
0.000761823
0.000756772
0.000757002
0.000753117
0.000752877
0.000756774
0.000757006
0.000753122
0.000761745
0.000762178
0.000765638
0.000765639
0.000765799
0.000761919
0.000761918
0.000744253
0.000748074
0.000748193
0.000744006
0.000744033
0.000747971
0.000744167
0.000744292
0.000744051
0.000748178
0.000747946
0.000744048
0.000747943
0.000744288
0.000744253
0.000748073
0.000748193
0.000744006
0.00074797
0.000744033
0.000744168
0.000744293
0.000744051
0.000748178
0.000747946
0.000747943
0.000744048
0.000744288
0.000744253
0.000748075
0.000748193
0.000744006
0.000744032
0.000747971
0.000744167
0.000744293
0.000744051
0.000748178
0.000747946
0.000744048
0.000747943
0.000744287
0.000744253
0.000748076
0.000748193
0.000744005
0.000747971
0.000744032
0.000744167
0.000744292
0.00074405
0.000747946
0.000748179
0.000747944
0.000744287
0.000744047
0.000739114
0.000739344
0.000735456
0.000735217
0.000739116
0.000739349
0.000735461
0.000744253
0.000748076
0.000748193
0.000744006
0.000744167
0.000747972
0.000744032
0.000744292
0.000744051
0.000747946
0.000748179
0.000744287
0.000747944
0.000744047
0.000739141
0.000735202
0.000739393
0.000735337
0.000739246
0.000739363
0.000735422
0.000739113
0.000739344
0.000735457
0.000735218
0.000739116
0.000739348
0.000735462
0.000744253
0.000748075
0.000748193
0.000744006
0.000744167
0.000747971
0.000744032
0.000744292
0.000744051
0.000747946
0.000748178
0.000744287
0.000747943
0.000744048
0.000739141
0.000735202
0.000739393
0.000735337
0.000739245
0.000739363
0.000735422
0.00167479
0.00167314
0.00167479
0.00167245
0.00167252
0.00167244
0.00167245
0.00167245
0.00167244
0.00167252
0.00167245
0.00167681
0.0016768
0.00167244
0.00167681
0.00167244
0.00167681
0.00167679
0.00167254
0.00167681
0.00167245
0.00167678
0.0016768
0.00167249
0.00167679
0.00167254
0.00167681
0.00167245
0.0016768
0.00167678
0.00167249
0.00167682
0.00167244
0.00167244
0.00167682
0.00167682
0.00167244
0.00167681
0.00167681
0.0016768
0.00167244
0.00167681
0.00167244
0.0016767
0.00167636
0.00167284
0.00167283
0.00167657
0.00167657
0.00167264
0.00167658
0.00167268
0.00167677
0.00167257
0.00167675
0.00167663
0.00167282
0.00167658
0.00167268
0.00167677
0.00167257
0.00167663
0.00167675
0.00167282
0.0016659
0.00166582
0.00166582
0.0016674
0.00163009
0.00163001
0.00163001
0.00163158
0.00159435
0.00159426
0.00159426
0.00159583
0.00155867
0.00155858
0.00155858
0.00156015
0.00152305
0.00152296
0.00152296
0.00152452
0.00148749
0.0014874
0.0014874
0.00148896
0.00145198
0.00145188
0.00145188
0.00145344
0.00141651
0.00141641
0.00141641
0.00141797
0.00138108
0.00138099
0.00138099
0.00138254
0.0013457
0.0013456
0.0013456
0.00134715
0.00131035
0.00131024
0.00131024
0.0013118
0.00127503
0.00127492
0.00127492
0.00127648
0.00123972
0.00123962
0.00123962
0.00124118
0.00120444
0.00120435
0.00120435
0.0012059
0.00116918
0.00116909
0.00116909
0.00117065
0.00113394
0.00113385
0.00113385
0.00113541
0.0010987
0.00109862
0.00109862
0.00110018
0.00106348
0.0010634
0.0010634
0.00106495
0.00102825
0.00102817
0.00102817
0.00102973
0.000993028
0.000992953
0.000992952
0.000994512
0.0009578
0.000957727
0.000957727
0.000959289
0.000922565
0.000922495
0.000922495
0.000924058
0.00088732
0.000887254
0.000887253
0.000888818
0.000852062
0.000851999
0.000851999
0.000853566
0.000816789
0.000816729
0.000816729
0.000818298
0.0016674
0.00163731
0.00166582
0.00166582
0.00163895
0.00163895
0.00166739