/*--------------------------------*- C++ -*----------------------------------*\
| =========                 |                                                 |
| \\      /  F ield         | OpenFOAM: The Open Source CFD Toolbox           |
|  \\    /   O peration     | Version:  2312                                  |
|   \\  /    A nd           | Website:  www.openfoam.com                      |
|    \\/     M anipulation  |                                                 |
\*---------------------------------------------------------------------------*/
FoamFile
{
    version     2.0;
    format      ascii;
    arch        "LSB;label=32;scalar=64";
    class       volVectorField;
    location    "850";
    object      U;
}
// * * * * * * * * * * * * * * * * * * * * * * * * * * * * * * * * * * * * * //

dimensions      [0 1 -1 0 0 0 0];

internalField   nonuniform List<vector> 
43496
(
(-1.66069e-05 -2.87261e-07 0.0914271)
(-5.85121e-06 3.36148e-06 0.0716035)
(-6.11402e-06 1.13186e-05 0.107488)
(-7.76409e-06 2.04192e-05 0.0930677)
(-2.72998e-05 -6.89711e-07 0.0985809)
(-1.44042e-05 -2.6099e-06 0.109908)
(-1.66049e-05 3.07894e-07 0.091427)
(-1.2025e-05 1.22763e-06 0.0822862)
(-2.72994e-05 7.12396e-07 0.0985807)
(-1.12782e-05 6.11131e-06 0.107486)
(-1.4395e-05 2.59571e-06 0.109907)
(-2.03972e-05 7.78723e-06 0.0930664)
(-4.16105e-05 4.16221e-05 0.104317)
(-9.86936e-06 6.92955e-06 0.087605)
(-6.91956e-06 9.87774e-06 0.0876078)
(-3.34022e-06 5.87963e-06 0.071604)
(-1.19629e-06 1.20533e-05 0.0822865)
(4.27427e-06 -7.14064e-07 0.0768854)
(5.01632e-06 -2.57035e-07 0.0913834)
(-1.59996e-05 -1.14138e-06 0.0899498)
(-7.44104e-06 1.41702e-07 0.0787027)
(5.53413e-06 -5.57079e-07 0.0899001)
(3.86846e-06 -1.87798e-07 0.0786623)
(-7.44435e-06 5.31221e-07 0.0769322)
(4.92355e-06 -8.99853e-07 0.0684137)
(-1.22981e-05 -1.39216e-06 0.0858856)
(5.87232e-06 -7.68938e-07 0.0858295)
(-6.07966e-06 1.63554e-07 0.0684746)
(4.33505e-06 -2.57068e-06 0.0715505)
(4.25133e-06 7.13042e-07 0.0768848)
(5.01789e-06 2.45418e-07 0.0913834)
(-7.43978e-06 -1.18862e-07 0.0787026)
(-1.5986e-05 1.16515e-06 0.0899493)
(3.86792e-06 1.87252e-07 0.0786622)
(5.52363e-06 5.45201e-07 0.0899003)
(-7.43775e-06 -5.0057e-07 0.0769315)
(4.91364e-06 9.05498e-07 0.0684157)
(-1.22705e-05 1.40981e-06 0.0858856)
(7.17612e-06 -6.26607e-07 0.0822354)
(5.8639e-06 7.71722e-07 0.0858303)
(-6.05922e-06 -1.31492e-07 0.0684762)
(3.1361e-06 -3.12478e-06 0.0836177)
(-3.59272e-06 5.12169e-06 0.068375)
(-5.1375e-06 3.58193e-06 0.0683807)
(2.64636e-06 -4.06283e-06 0.0683195)
(4.07024e-06 -2.64294e-06 0.0683249)
(-7.23871e-06 7.22301e-06 0.0836639)
(7.83164e-06 -3.8054e-06 0.091673)
(-8.06991e-06 4.02047e-06 0.0816084)
(3.5861e-06 -3.47126e-06 0.0875568)
(-2.3988e-05 1.42116e-05 0.0963245)
(3.87251e-06 -3.0107e-06 0.0815579)
(1.10523e-05 -5.53593e-06 0.0962765)
(-1.67693e-05 1.0266e-05 0.0917201)
(3.80766e-06 -7.81911e-06 0.0916797)
(-4.026e-06 8.05348e-06 0.0816145)
(3.46283e-06 -3.58547e-06 0.0875585)
(-1.42237e-05 2.39846e-05 0.0963281)
(5.5386e-06 -1.10138e-05 0.0962794)
(3.00976e-06 -3.86317e-06 0.0815631)
(-1.02867e-05 1.6772e-05 0.0917271)
(2.56701e-06 -4.344e-06 0.0715504)
(6.26246e-07 -7.16923e-06 0.0822358)
(-1.16349e-05 -3.48391e-06 0.115012)
(-1.00287e-05 1.00535e-05 0.112469)
(-1.16285e-05 3.49219e-06 0.11501)
(3.11356e-06 -8.7788e-06 0.0930117)
(-1.16577e-05 4.96157e-05 0.0995932)
(3.81105e-06 -3.18428e-05 0.0995327)
(2.74105e-05 -1.20526e-06 0.102871)
(8.05701e-06 -4.33153e-07 0.0985247)
(-2.72087e-05 -2.53697e-06 0.0976283)
(-5.22872e-05 -1.01676e-06 0.10362)
(8.98976e-06 -8.72836e-07 0.0975629)
(2.58971e-05 -8.84881e-07 0.103526)
(-5.29848e-05 -3.58171e-06 0.102988)
(3.12615e-05 3.7207e-07 0.101328)
(-2.46878e-05 -5.07708e-06 0.0956754)
(1.03787e-05 4.04446e-08 0.095608)
(-5.24081e-05 -7.7127e-06 0.101433)
(2.74289e-05 1.17075e-06 0.102871)
(8.05851e-06 4.09291e-07 0.0985246)
(-5.22903e-05 1.03737e-06 0.10362)
(-2.7202e-05 2.55961e-06 0.0976278)
(2.59027e-05 8.47312e-07 0.103526)
(8.97866e-06 8.4769e-07 0.0975632)
(-5.30108e-05 3.60503e-06 0.102987)
(3.12859e-05 -3.97353e-07 0.101328)
(-2.46587e-05 5.07941e-06 0.0956748)
(8.77949e-06 -3.11881e-06 0.0930108)
(-4.96076e-05 1.16663e-05 0.099591)
(1.03773e-05 -4.57946e-08 0.0956083)
(-5.23967e-05 7.71171e-06 0.101431)
(3.18681e-05 -3.825e-06 0.0995309)
(1.01454e-05 -1.01652e-05 0.0975423)
(2.38253e-05 -2.38387e-05 0.104202)
(-2.63379e-05 4.13711e-05 0.101507)
(-4.13821e-05 2.63455e-05 0.10151)
(2.74488e-05 -1.10341e-05 0.101443)
(1.10482e-05 -2.74634e-05 0.10144)
(-2.21799e-05 2.21823e-05 0.0975978)
(-9.5929e-06 -9.5906e-06 0.112516)
(1.11333e-05 -5.98649e-06 0.107501)
(-5.9727e-06 1.1134e-05 0.1075)
(-2.39837e-05 -2.39775e-05 0.104199)
(-9.95865e-06 -9.96111e-06 0.112479)
(1.12782e-05 -6.11276e-06 0.107492)
(-6.09874e-06 1.12907e-05 0.107491)
(-2.38507e-05 -2.38518e-05 0.104201)
(2.39771e-05 2.39791e-05 0.104199)
(-4.16748e-05 -4.16793e-05 0.104316)
(-5.94802e-06 -1.11035e-05 0.107499)
(5.94957e-06 -1.11124e-05 0.107499)
(-6.04534e-06 -1.1221e-05 0.107492)
(6.04357e-06 -1.12379e-05 0.107491)
(-2.39994e-05 2.39551e-05 0.104199)
(4.16747e-05 -4.16843e-05 0.104317)
(-1.11311e-05 -5.9753e-06 0.1075)
(-1.11002e-05 5.95324e-06 0.107498)
(-1.12464e-05 -6.07048e-06 0.107493)
(-1.12144e-05 6.05126e-06 0.10749)
(1.11141e-05 5.95079e-06 0.107498)
(1.12525e-05 -6.08292e-06 0.107494)
(1.12145e-05 6.05625e-06 0.107492)
(2.39715e-05 -2.39952e-05 0.104198)
(-4.16618e-05 4.16766e-05 0.104316)
(5.97712e-06 1.11287e-05 0.1075)
(-6.06336e-06 1.12497e-05 0.107493)
(6.07723e-06 1.12478e-05 0.107493)
(4.16673e-05 4.16658e-05 0.104316)
(2.38532e-05 2.38526e-05 0.104202)
(-6.07261e-06 -1.12622e-05 0.10749)
(6.07802e-06 -1.12525e-05 0.10749)
(-2.38827e-05 2.38428e-05 0.104202)
(-1.12852e-05 -6.10417e-06 0.107491)
(-1.1251e-05 6.0844e-06 0.107488)
(1.12789e-05 6.08097e-06 0.107488)
(2.38466e-05 -2.3863e-05 0.104201)
(6.10545e-06 1.12817e-05 0.10749)
(-3.0742e-07 -1.66447e-05 0.0913959)
(6.58813e-07 7.16192e-06 0.0821926)
(-1.17645e-06 -1.2113e-05 0.0822524)
(-2.66221e-07 5.03688e-06 0.0913444)
(-2.60503e-06 4.26816e-06 0.0715102)
(3.23635e-06 -5.89365e-06 0.0715755)
(-1.66491e-05 -2.89411e-07 0.091396)
(7.14918e-06 6.70904e-07 0.0821934)
(-1.21108e-05 -1.18419e-06 0.082253)
(5.03552e-06 -2.63858e-07 0.0913444)
(9.59554e-06 -9.58951e-06 0.112516)
(-9.59201e-06 9.60181e-06 0.112515)
(9.60102e-06 9.59783e-06 0.112514)
(-9.8709e-06 -9.86913e-06 0.112488)
(9.87944e-06 -9.87499e-06 0.112488)
(-9.86316e-06 9.88152e-06 0.112487)
(9.88718e-06 9.88451e-06 0.112488)
(2.72589e-05 -6.83192e-07 0.0985603)
(-8.77864e-06 3.14729e-06 0.0929754)
(1.39444e-05 -2.51027e-06 0.109933)
(1.11723e-05 -6.01615e-06 0.107498)
(2.04575e-05 -7.80503e-06 0.0930397)
(1.40513e-05 -2.53087e-06 0.109927)
(-8.12935e-06 -4.45869e-07 0.0984987)
(4.30581e-06 -2.64828e-06 0.0715123)
(-5.90979e-06 3.30779e-06 0.0715732)
(-7.09031e-07 2.72591e-05 0.0985599)
(-2.50077e-06 1.39475e-05 0.109931)
(3.15337e-06 -8.77161e-06 0.0929755)
(-6.00124e-06 1.11748e-05 0.107497)
(-2.51763e-06 1.40452e-05 0.109926)
(-7.77111e-06 2.04675e-05 0.0930389)
(-3.95623e-07 -8.14585e-06 0.0984983)
(-3.5472e-06 -3.52294e-06 0.0875181)
(-3.51554e-06 -3.54569e-06 0.0875171)
(4.17344e-05 4.17317e-05 0.104315)
(9.95974e-06 6.91187e-06 0.0875758)
(6.94283e-06 9.94774e-06 0.0875743)
(6.18383e-07 7.18052e-06 0.0822263)
(-2.62106e-07 5.01531e-06 0.0913756)
(-2.54253e-06 4.29167e-06 0.0715408)
(7.17653e-06 6.34245e-07 0.0822271)
(5.01668e-06 -2.58218e-07 0.0913756)
(9.97052e-06 -9.96531e-06 0.11248)
(-9.95684e-06 9.97332e-06 0.112478)
(9.95084e-06 9.97201e-06 0.112478)
(2.72559e-05 -6.77991e-07 0.0985813)
(-8.77948e-06 3.10873e-06 0.0930045)
(1.43244e-05 -2.60747e-06 0.109913)
(-8.03284e-06 -4.4638e-07 0.0985198)
(1.44141e-05 -2.61969e-06 0.109908)
(4.32853e-06 -2.5862e-06 0.0715429)
(-7.07764e-07 2.72536e-05 0.0985809)
(-2.58507e-06 1.43323e-05 0.109912)
(3.11757e-06 -8.77218e-06 0.0930045)
(-3.91876e-07 -8.04817e-06 0.0985193)
(-2.60351e-06 1.44081e-05 0.109907)
(-3.58312e-06 -3.48889e-06 0.0875501)
(-3.47097e-06 -3.58536e-06 0.087549)
(4.16513e-05 4.15983e-05 0.104318)
(9.8855e-06 6.9253e-06 0.0876077)
(6.96701e-06 9.87514e-06 0.0876061)
(2.62384e-06 4.33952e-06 0.0715116)
(-3.28764e-06 -5.9436e-06 0.0715735)
(4.31827e-06 2.63595e-06 0.0715117)
(-5.92353e-06 -3.30839e-06 0.0715731)
(3.50029e-06 3.53873e-06 0.0875178)
(3.56096e-06 3.50847e-06 0.0875167)
(-4.17326e-05 -4.17358e-05 0.104315)
(-6.89207e-06 -9.94238e-06 0.0875765)
(-9.96768e-06 -6.92881e-06 0.0875743)
(-3.31202e-06 -5.91646e-06 0.0715887)
(2.59342e-06 4.35037e-06 0.0715269)
(-5.89576e-06 -3.3334e-06 0.0715883)
(4.32902e-06 2.60495e-06 0.071527)
(2.39057e-05 2.3906e-05 0.1042)
(-6.89949e-06 -9.90683e-06 0.0875923)
(-9.93026e-06 -6.93877e-06 0.0875902)
(3.47964e-06 3.55752e-06 0.0875338)
(3.57821e-06 3.48716e-06 0.0875327)
(2.84087e-07 -1.66484e-05 0.091396)
(-6.42686e-07 7.12936e-06 0.0821922)
(1.12792e-06 -1.2103e-05 0.0822536)
(2.43065e-07 5.03672e-06 0.0913446)
(-7.05815e-07 -2.72919e-05 0.0985598)
(3.15078e-06 8.78561e-06 0.0929743)
(-2.50003e-06 -1.39332e-05 0.109932)
(-5.98206e-06 -1.11439e-05 0.107496)
(-7.77291e-06 -2.04514e-05 0.0930384)
(-2.51953e-06 -1.40338e-05 0.109927)
(-4.3415e-07 8.16841e-06 0.0984982)
(6.81607e-07 -2.72995e-05 0.09856)
(-3.14342e-06 8.77693e-06 0.092974)
(2.49729e-06 -1.3936e-05 0.109932)
(5.97503e-06 -1.11563e-05 0.107496)
(7.73458e-06 -2.04536e-05 0.093039)
(2.51859e-06 -1.40354e-05 0.109927)
(4.14657e-07 8.171e-06 0.0984984)
(-2.63699e-07 5.02558e-06 0.09136)
(-1.19126e-06 -1.20776e-05 0.0822692)
(6.38856e-07 7.1706e-06 0.0822095)
(-3.05584e-07 -1.66263e-05 0.0914114)
(2.42372e-07 5.02527e-06 0.0913601)
(1.14128e-06 -1.20589e-05 0.0822704)
(-6.19613e-07 7.13692e-06 0.0822091)
(2.83258e-07 -1.6632e-05 0.0914116)
(-4.32632e-07 8.11617e-06 0.0985087)
(-6.0138e-06 -1.11884e-05 0.107494)
(-7.77407e-06 -2.04294e-05 0.0930528)
(-2.56066e-06 -1.42238e-05 0.109917)
(3.13321e-06 8.7854e-06 0.0929887)
(-2.5411e-06 -1.41342e-05 0.109922)
(-7.07751e-07 -2.72961e-05 0.0985702)
(4.14271e-07 8.11908e-06 0.0985089)
(6.01632e-06 -1.1192e-05 0.107494)
(7.74081e-06 -2.04305e-05 0.0930535)
(2.55821e-06 -1.42256e-05 0.109917)
(-3.12345e-06 8.77531e-06 0.0929885)
(2.54389e-06 -1.41365e-05 0.109922)
(6.82513e-07 -2.73031e-05 0.0985704)
(-3.53253e-06 3.51844e-06 0.0875163)
(-3.5614e-06 3.50364e-06 0.0875186)
(4.17297e-05 -4.1739e-05 0.104316)
(6.88952e-06 -9.94238e-06 0.0875755)
(9.95536e-06 -6.94416e-06 0.0875767)
(-4.31978e-06 2.63573e-06 0.071512)
(5.91516e-06 -3.32686e-06 0.0715741)
(3.26334e-06 -5.86565e-06 0.0715907)
(-2.57248e-06 4.27971e-06 0.0715255)
(-2.3929e-05 2.38858e-05 0.1042)
(6.90187e-06 -9.90442e-06 0.0875914)
(9.91754e-06 -6.95118e-06 0.0875925)
(-3.50954e-06 3.53681e-06 0.0875323)
(-3.57651e-06 3.48008e-06 0.0875346)
(5.88437e-06 -3.35017e-06 0.0715894)
(-4.32824e-06 2.60308e-06 0.0715274)
(-2.7303e-05 -6.89546e-07 0.0985599)
(8.78754e-06 3.15439e-06 0.0929749)
(-1.39426e-05 -2.50878e-06 0.109932)
(-1.11717e-05 -6.00556e-06 0.107498)
(-2.04792e-05 -7.7981e-06 0.0930384)
(-1.40421e-05 -2.52722e-06 0.109927)
(8.16982e-06 -4.39204e-07 0.0984982)
(-1.66457e-05 3.10507e-07 0.0913959)
(7.14628e-06 -6.72567e-07 0.0821933)
(-1.20951e-05 1.18707e-06 0.0822526)
(5.03505e-06 2.41294e-07 0.0913444)
(-2.72988e-05 7.06668e-07 0.0985597)
(-1.39365e-05 2.49392e-06 0.109931)
(8.76521e-06 -3.1612e-06 0.0929746)
(-1.11402e-05 5.98572e-06 0.107495)
(-1.40346e-05 2.51553e-06 0.109926)
(-2.04475e-05 7.78221e-06 0.0930375)
(8.17038e-06 4.0286e-07 0.0984982)
(5.02511e-06 -2.60463e-07 0.09136)
(-1.20862e-05 -1.20323e-06 0.0822698)
(7.16129e-06 6.50701e-07 0.0822103)
(-1.66305e-05 -2.87694e-07 0.0914116)
(8.11611e-06 -4.36616e-07 0.0985087)
(-1.12142e-05 -6.04367e-06 0.107496)
(-2.04549e-05 -7.80113e-06 0.0930528)
(-1.42312e-05 -2.57018e-06 0.109917)
(8.78642e-06 3.1353e-06 0.0929894)
(-1.4144e-05 -2.55265e-06 0.109922)
(-2.73051e-05 -6.89214e-07 0.0985703)
(5.02425e-06 2.42532e-07 0.09136)
(-1.20612e-05 1.2062e-06 0.0822694)
(7.15559e-06 -6.53608e-07 0.0822102)
(-1.66274e-05 3.10312e-07 0.0914115)
(8.11722e-06 4.05764e-07 0.0985087)
(-1.11837e-05 6.02319e-06 0.107493)
(-1.42232e-05 2.55856e-06 0.109917)
(-2.04263e-05 7.78793e-06 0.0930519)
(-1.4138e-05 2.53829e-06 0.109921)
(8.76657e-06 -3.14426e-06 0.092989)
(-2.73011e-05 7.09622e-07 0.0985702)
(1.66032e-05 -2.51485e-07 0.0913969)
(-7.13421e-06 6.99399e-07 0.0821932)
(1.20912e-05 -1.22762e-06 0.0822536)
(-4.99494e-06 -3.1039e-07 0.091344)
(2.72724e-05 7.10378e-07 0.09856)
(1.3944e-05 2.49389e-06 0.109932)
(-8.76145e-06 -3.16776e-06 0.0929749)
(1.11483e-05 5.9924e-06 0.107496)
(1.40432e-05 2.52311e-06 0.109927)
(2.04421e-05 7.77654e-06 0.0930387)
(-8.14739e-06 4.05574e-07 0.0984987)
(1.66322e-05 3.28619e-07 0.0913962)
(-7.14116e-06 -6.78383e-07 0.0821933)
(1.2106e-05 1.17506e-06 0.082253)
(-5.02486e-06 2.15682e-07 0.0913445)
(-8.07803e-06 -4.42994e-07 0.0985092)
(1.12142e-05 -6.05361e-06 0.107497)
(2.04305e-05 -7.80704e-06 0.0930541)
(1.42411e-05 -2.57329e-06 0.109918)
(-8.77472e-06 3.12698e-06 0.0929899)
(1.41452e-05 -2.55721e-06 0.109923)
(2.72599e-05 -6.83645e-07 0.0985707)
(-4.98368e-06 -3.09577e-07 0.0913596)
(1.2059e-05 -1.24358e-06 0.0822705)
(-7.14479e-06 6.78044e-07 0.0822101)
(1.65833e-05 -2.50311e-07 0.0914124)
(-8.09723e-06 4.05306e-07 0.0985091)
(1.12051e-05 6.01974e-06 0.107493)
(1.42318e-05 2.57023e-06 0.109917)
(2.04284e-05 7.7751e-06 0.0930531)
(1.41464e-05 2.53203e-06 0.109922)
(-8.76098e-06 -3.1482e-06 0.0929894)
(2.72762e-05 7.10171e-07 0.0985705)
(-5.01461e-06 2.13704e-07 0.09136)
(1.20781e-05 1.18953e-06 0.0822698)
(-7.15197e-06 -6.57507e-07 0.0822102)
(1.66121e-05 3.26929e-07 0.0914117)
(3.53273e-06 -3.52422e-06 0.0875169)
(3.50691e-06 -3.52685e-06 0.0875185)
(-4.17257e-05 4.17359e-05 0.104315)
(-9.94765e-06 6.91022e-06 0.0875733)
(-6.9016e-06 9.94628e-06 0.0875761)
(2.64167e-06 -4.31588e-06 0.0715122)
(-3.29258e-06 5.9294e-06 0.0715736)
(-5.88093e-06 3.33533e-06 0.0715884)
(4.31713e-06 -2.61672e-06 0.0715277)
(2.38997e-05 -2.39204e-05 0.1042)
(-9.91046e-06 6.922e-06 0.0875892)
(-6.91532e-06 9.91297e-06 0.0875919)
(3.55209e-06 -3.50216e-06 0.0875329)
(3.48735e-06 -3.54723e-06 0.0875345)
(-3.31837e-06 5.90013e-06 0.0715888)
(2.61036e-06 -4.32435e-06 0.0715276)
(6.98028e-07 2.7247e-05 0.0985602)
(2.50237e-06 1.39452e-05 0.109932)
(-3.15986e-06 -8.77705e-06 0.0929752)
(6.0124e-06 1.11751e-05 0.107497)
(2.53101e-06 1.40444e-05 0.109926)
(7.80738e-06 2.04632e-05 0.0930387)
(4.35322e-07 -8.13546e-06 0.0984984)
(-3.3198e-07 1.66009e-05 0.0913965)
(6.77486e-07 -7.13723e-06 0.0821936)
(-1.16554e-06 1.2114e-05 0.082253)
(-1.96982e-07 -5.00705e-06 0.0913438)
(2.98603e-07 1.65782e-05 0.0913971)
(-6.81139e-07 -7.1451e-06 0.0821938)
(1.2071e-06 1.21001e-05 0.0822535)
(2.73768e-07 -4.98616e-06 0.0913434)
(-3.93775e-07 -8.09344e-06 0.0985087)
(-6.04218e-06 1.12189e-05 0.107495)
(-2.55818e-06 1.42333e-05 0.109917)
(-7.77364e-06 2.04442e-05 0.0930532)
(-2.54216e-06 1.41492e-05 0.109921)
(3.13699e-06 -8.76852e-06 0.0929899)
(-7.07319e-07 2.72625e-05 0.0985703)
(4.39046e-07 -8.08307e-06 0.0985089)
(6.04634e-06 1.12146e-05 0.107495)
(2.57852e-06 1.42365e-05 0.109916)
(7.81e-06 2.04383e-05 0.0930531)
(2.54829e-06 1.41447e-05 0.109922)
(-3.13957e-06 -8.77787e-06 0.0929896)
(7.01852e-07 2.72494e-05 0.0985706)
(-1.93477e-07 -4.99511e-06 0.0913593)
(-1.18183e-06 1.20855e-05 0.0822698)
(6.56847e-07 -7.14823e-06 0.0822105)
(-3.30099e-07 1.65827e-05 0.091412)
(2.75339e-07 -4.97407e-06 0.0913589)
(1.22731e-06 1.2065e-05 0.0822703)
(-6.57243e-07 -7.15601e-06 0.0822107)
(2.99095e-07 1.65577e-05 0.0914126)
(-4.31623e-06 -2.64148e-06 0.0715123)
(5.92747e-06 3.2963e-06 0.0715739)
(-2.64439e-06 -4.31461e-06 0.0715124)
(3.33038e-06 5.91158e-06 0.0715738)
(-2.39125e-05 -2.39057e-05 0.1042)
(9.92813e-06 6.92245e-06 0.0875917)
(6.95591e-06 9.90844e-06 0.0875902)
(-3.56418e-06 -3.50379e-06 0.0875342)
(-3.49223e-06 -3.5663e-06 0.0875331)
(5.90362e-06 3.31894e-06 0.0715891)
(-4.32754e-06 -2.61164e-06 0.0715277)
(3.35906e-06 5.88239e-06 0.071589)
(-2.61135e-06 -4.32745e-06 0.0715278)
(2.56437e-06 4.36284e-06 0.0715422)
(4.34096e-06 2.57663e-06 0.0715423)
(3.46266e-06 3.57837e-06 0.0875498)
(3.59928e-06 3.46791e-06 0.0875487)
(-5.97759e-07 7.14626e-06 0.082226)
(2.44442e-07 5.01533e-06 0.0913757)
(3.11512e-06 8.79564e-06 0.0930033)
(-2.57855e-06 -1.43156e-05 0.109913)
(-4.30266e-07 8.07199e-06 0.0985193)
(-3.10437e-06 8.78043e-06 0.093003)
(2.59162e-06 -1.43169e-05 0.109913)
(4.15404e-07 8.07465e-06 0.0985195)
(-3.48983e-06 3.55913e-06 0.0875482)
(-3.5998e-06 3.45865e-06 0.0875506)
(-4.34153e-06 2.57287e-06 0.0715426)
(8.79173e-06 3.11755e-06 0.0930039)
(-1.43248e-05 -2.5918e-06 0.109913)
(8.07477e-06 -4.35426e-07 0.0985193)
(7.16865e-06 -6.35646e-07 0.082227)
(5.01566e-06 2.45206e-07 0.0913756)
(-1.43189e-05 2.57884e-06 0.109912)
(8.77372e-06 -3.12642e-06 0.0930035)
(8.0758e-06 4.07262e-07 0.0985193)
(1.65577e-05 -2.45251e-07 0.0914279)
(-7.1543e-06 6.57407e-07 0.0822269)
(-4.97248e-06 -3.1207e-07 0.0913752)
(2.72687e-05 7.08972e-07 0.0985811)
(1.4329e-05 2.55977e-06 0.109912)
(-8.76476e-06 -3.13012e-06 0.0930039)
(1.12571e-05 6.10473e-06 0.107488)
(-8.05251e-06 4.04308e-07 0.0985196)
(1.44057e-05 2.61496e-06 0.109907)
(2.04127e-05 7.7766e-06 0.0930676)
(1.65841e-05 3.24873e-07 0.0914273)
(-7.17182e-06 -6.39045e-07 0.0822271)
(-5.00188e-06 2.1282e-07 0.0913757)
(1.20454e-05 1.20561e-06 0.0822866)
(3.57396e-06 -3.48161e-06 0.0875489)
(3.46898e-06 -3.57545e-06 0.0875506)
(2.58024e-06 -4.33593e-06 0.0715428)
(6.9834e-07 2.72447e-05 0.0985812)
(2.58742e-06 1.43199e-05 0.109912)
(-3.11992e-06 -8.78514e-06 0.0930042)
(6.1229e-06 1.12972e-05 0.107488)
(4.44834e-07 -8.03812e-06 0.0985195)
(2.62041e-06 1.44076e-05 0.109907)
(7.80909e-06 2.04141e-05 0.0930676)
(-3.27856e-07 1.65532e-05 0.0914276)
(6.35668e-07 -7.15821e-06 0.0822274)
(-1.93282e-07 -4.98537e-06 0.091375)
(2.99162e-07 1.65329e-05 0.0914282)
(-6.32662e-07 -7.17325e-06 0.0822276)
(2.76789e-07 -4.96732e-06 0.0913746)
(1.24261e-06 1.2033e-05 0.0822871)
(-4.34131e-06 -2.58416e-06 0.071543)
(5.87619e-06 3.34111e-06 0.0716043)
(-2.57975e-06 -4.33936e-06 0.0715431)
(3.38334e-06 5.85257e-06 0.0716042)
(-6.9372e-07 4.27232e-06 0.0768514)
(1.2509e-07 -7.46304e-06 0.0786687)
(-1.13853e-06 -1.60372e-05 0.0899173)
(-2.64894e-07 5.03034e-06 0.0913522)
(-1.95456e-07 3.87074e-06 0.0786281)
(-5.45697e-07 5.54456e-06 0.0898675)
(5.44695e-07 -7.47024e-06 0.0768983)
(2.16276e-07 -6.12204e-06 0.0684363)
(-1.16769e-06 -1.21263e-05 0.0822439)
(-7.3757e-07 5.84722e-06 0.0857866)
(-1.36039e-06 -1.23761e-05 0.085843)
(-8.44099e-07 4.9244e-06 0.0683752)
(-8.59223e-07 4.92464e-06 0.0683828)
(-1.36651e-06 -1.23606e-05 0.0858514)
(6.4854e-07 7.1662e-06 0.082201)
(-7.46661e-07 5.85359e-06 0.0857951)
(2.04636e-07 -6.11397e-06 0.0684439)
(5.50495e-07 -7.47527e-06 0.07689)
(-3.09065e-07 -1.66555e-05 0.0913882)
(-1.95828e-07 3.87318e-06 0.0786195)
(-5.40918e-07 5.55178e-06 0.0898594)
(1.23946e-07 -7.47278e-06 0.0786602)
(-1.13625e-06 -1.60466e-05 0.0899092)
(-6.85915e-07 4.27328e-06 0.076843)
(3.22168e-06 -5.90639e-06 0.0715678)
(-2.58801e-06 4.2733e-06 0.0715179)
(4.27538e-06 -6.83578e-07 0.0768518)
(-1.60433e-05 -1.1276e-06 0.0899176)
(-7.47001e-06 1.42387e-07 0.0786689)
(5.02927e-06 -2.62299e-07 0.0913522)
(5.54847e-06 -5.3797e-07 0.0898677)
(3.87199e-06 -1.91167e-07 0.0786283)
(-7.4734e-06 5.56702e-07 0.0768988)
(-6.12501e-06 2.24388e-07 0.068437)
(-1.21257e-05 -1.17518e-06 0.0822446)
(5.83814e-06 -7.2259e-07 0.0857871)
(-1.23832e-05 -1.35612e-06 0.0858434)
(4.92152e-06 -8.24414e-07 0.0683759)
(4.92195e-06 -8.39917e-07 0.0683835)
(-1.23668e-05 -1.36314e-06 0.0858518)
(7.15359e-06 6.60252e-07 0.0822018)
(5.84459e-06 -7.31985e-07 0.0857956)
(-6.11633e-06 2.11593e-07 0.0684446)
(-7.47995e-06 5.63746e-07 0.0768905)
(-1.66606e-05 -2.91288e-07 0.0913883)
(5.55625e-06 -5.32823e-07 0.0898596)
(3.87568e-06 -1.9181e-07 0.0786197)
(-1.6053e-05 -1.1248e-06 0.0899095)
(-7.47254e-06 1.42403e-07 0.0786604)
(4.27633e-06 -6.75848e-07 0.0768434)
(-5.92345e-06 3.29297e-06 0.0715655)
(4.31105e-06 -2.63211e-06 0.07152)
(-3.1082e-06 -3.13607e-06 0.0835875)
(3.61712e-06 5.14366e-06 0.068354)
(5.1595e-06 3.60654e-06 0.0683477)
(-2.62489e-06 -4.09994e-06 0.0682982)
(-4.07267e-06 -2.64789e-06 0.0682921)
(7.28291e-06 7.26378e-06 0.0836335)
(1.68882e-05 1.03132e-05 0.0916921)
(-1.10191e-05 -5.56815e-06 0.0962496)
(9.97877e-06 6.91036e-06 0.0875679)
(-3.81783e-06 -3.05355e-06 0.0815234)
(2.41091e-05 1.42159e-05 0.0962988)
(8.13394e-06 4.00102e-06 0.0815754)
(-7.77637e-06 -3.80787e-06 0.0916442)
(1.03518e-05 1.68869e-05 0.0916854)
(-5.57063e-06 -1.10003e-05 0.0962471)
(6.93638e-06 9.96665e-06 0.0875664)
(-3.05015e-06 -3.84418e-06 0.0815189)
(1.42466e-05 2.40986e-05 0.0962962)
(4.03805e-06 8.14191e-06 0.0815699)
(-3.80646e-06 -7.79583e-06 0.0916379)
(-7.78133e-06 -3.80776e-06 0.0916513)
(8.11911e-06 4.00468e-06 0.0815832)
(-3.55493e-06 -3.51437e-06 0.0875262)
(2.40842e-05 1.42103e-05 0.0963046)
(-1.10224e-05 -5.56094e-06 0.0962555)
(-3.82586e-06 -3.04693e-06 0.0815312)
(1.68631e-05 1.03014e-05 0.0916991)
(-3.80385e-06 -7.8018e-06 0.0916449)
(4.04379e-06 8.12514e-06 0.0815777)
(-3.50439e-06 -3.5555e-06 0.0875251)
(1.4247e-05 2.40714e-05 0.096302)
(-5.56086e-06 -1.10032e-05 0.096253)
(-3.04096e-06 -3.85405e-06 0.0815268)
(1.03429e-05 1.68595e-05 0.0916924)
(7.29317e-06 7.27624e-06 0.083626)
(-2.62245e-06 -4.10244e-06 0.0682914)
(-4.07725e-06 -2.6437e-06 0.0682854)
(3.62521e-06 5.14591e-06 0.0683473)
(5.16016e-06 3.61592e-06 0.068341)
(-3.1053e-06 -3.1317e-06 0.08358)
(1.67227e-07 -6.08553e-06 0.0684664)
(-7.75013e-07 5.87194e-06 0.0858206)
(-1.19388e-06 -1.20541e-05 0.0822776)
(-9.06668e-07 4.92476e-06 0.0684055)
(-1.38809e-06 -1.23095e-05 0.0858767)
(5.27059e-07 -7.45281e-06 0.0769234)
(-3.04784e-07 -1.66113e-05 0.0914192)
(-1.956e-07 3.87245e-06 0.0786536)
(-5.62681e-07 5.53015e-06 0.0898918)
(-7.21101e-07 4.26052e-06 0.0768766)
(1.28592e-07 -7.4425e-06 0.0786941)
(-1.14759e-06 -1.60051e-05 0.0899415)
(3.27583e-06 -5.84851e-06 0.0715983)
(-6.08897e-06 1.75417e-07 0.0684671)
(5.86283e-06 -7.60689e-07 0.085821)
(-1.20736e-05 -1.20933e-06 0.0822782)
(4.92201e-06 -8.85259e-07 0.0684062)
(-1.23185e-05 -1.38165e-06 0.0858772)
(-7.46081e-06 5.36824e-07 0.0769239)
(-1.66205e-05 -2.87876e-07 0.0914193)
(5.53584e-06 -5.53022e-07 0.089892)
(3.87141e-06 -1.88783e-07 0.0786538)
(4.26852e-06 -7.07569e-07 0.076877)
(-1.60132e-05 -1.13831e-06 0.0899417)
(-7.44591e-06 1.43194e-07 0.0786943)
(-5.867e-06 3.34817e-06 0.071596)
(-3.11267e-06 -3.1531e-06 0.0836176)
(3.58373e-06 5.13416e-06 0.0683808)
(5.15385e-06 3.56622e-06 0.0683745)
(-2.62365e-06 -4.09704e-06 0.0683251)
(-4.05317e-06 -2.65388e-06 0.0683191)
(7.24245e-06 7.22044e-06 0.0836636)
(1.67985e-05 1.02787e-05 0.0917202)
(-1.10328e-05 -5.53946e-06 0.0962732)
(-3.85549e-06 -3.03401e-06 0.0815547)
(9.91209e-06 6.92827e-06 0.0875997)
(-7.8092e-06 -3.81752e-06 0.0916724)
(2.40195e-05 1.42268e-05 0.0963223)
(8.07503e-06 4.02084e-06 0.0816064)
(1.03264e-05 1.67889e-05 0.0917135)
(-5.53699e-06 -1.10075e-05 0.0962708)
(-3.01455e-06 -3.88435e-06 0.0815502)
(6.96372e-06 9.89745e-06 0.0875982)
(-3.80048e-06 -7.83412e-06 0.091666)
(1.42526e-05 2.40193e-05 0.0963196)
(4.06196e-06 8.07282e-06 0.0816011)
(7.2556e-06 7.23088e-06 0.0836561)
(-2.62734e-06 -4.09679e-06 0.0683184)
(-4.05803e-06 -2.65687e-06 0.0683123)
(-3.11381e-06 -3.15255e-06 0.08361)
(3.59452e-06 5.1378e-06 0.0683741)
(5.15759e-06 3.57873e-06 0.0683678)
(-7.81459e-06 -3.82492e-06 0.0916795)
(8.0568e-06 4.0189e-06 0.0816143)
(-3.59454e-06 -3.47832e-06 0.0875582)
(2.39612e-05 1.42151e-05 0.0963282)
(-1.10416e-05 -5.53344e-06 0.0962792)
(-3.86437e-06 -3.03324e-06 0.0815625)
(1.67642e-05 1.02576e-05 0.0917272)
(-3.80236e-06 -7.83939e-06 0.0916731)
(4.06393e-06 8.05177e-06 0.0816088)
(-3.4631e-06 -3.59658e-06 0.087557)
(1.4252e-05 2.39993e-05 0.0963256)
(-5.53482e-06 -1.10105e-05 0.0962767)
(-3.00701e-06 -3.89231e-06 0.081558)
(1.03151e-05 1.67554e-05 0.0917205)
(-3.27414e-06 -5.95667e-06 0.0715658)
(2.60809e-06 4.34455e-06 0.0715193)
(-5.9369e-06 -3.29465e-06 0.0715654)
(4.32337e-06 2.61998e-06 0.0715194)
(3.14335e-06 3.11955e-06 0.083587)
(-5.13725e-06 -3.62881e-06 0.0683539)
(-3.61345e-06 -5.16596e-06 0.0683475)
(4.09571e-06 2.63525e-06 0.0682975)
(2.65767e-06 4.07483e-06 0.0682913)
(-7.26928e-06 -7.29637e-06 0.0836338)
(-1.03038e-05 -1.68729e-05 0.0916924)
(5.57347e-06 1.10081e-05 0.0962495)
(-6.88654e-06 -9.95825e-06 0.0875685)
(3.03072e-06 3.79137e-06 0.0815231)
(-3.97958e-06 -8.10723e-06 0.0815764)
(-1.42046e-05 -2.40814e-05 0.0962988)
(3.80784e-06 7.76854e-06 0.0916438)
(-1.68656e-05 -1.03434e-05 0.0916859)
(1.0991e-05 5.56013e-06 0.0962469)
(-9.98349e-06 -6.9235e-06 0.0875664)
(3.84066e-06 3.02567e-06 0.0815182)
(-8.1371e-06 -4.01694e-06 0.0815704)
(-2.40953e-05 -1.42383e-05 0.0962964)
(7.77689e-06 3.79504e-06 0.0916374)
(3.80739e-06 7.77274e-06 0.0916509)
(-3.98288e-06 -8.09168e-06 0.0815842)
(3.48938e-06 3.54779e-06 0.0875258)
(-1.42047e-05 -2.40604e-05 0.0963046)
(3.02221e-06 3.79871e-06 0.081531)
(-1.02959e-05 -1.68521e-05 0.0916994)
(5.5656e-06 1.10074e-05 0.0962553)
(7.78206e-06 3.79247e-06 0.0916444)
(-8.12262e-06 -4.02191e-06 0.0815782)
(3.56856e-06 3.49684e-06 0.0875247)
(-2.4073e-05 -1.4238e-05 0.0963022)
(3.84794e-06 3.01621e-06 0.081526)
(-1.68444e-05 -1.03374e-05 0.0916929)
(1.09905e-05 5.55075e-06 0.0962527)
(-7.27926e-06 -7.30537e-06 0.0836263)
(4.09913e-06 2.63389e-06 0.0682907)
(2.65578e-06 4.07868e-06 0.0682845)
(-5.13939e-06 -3.63689e-06 0.0683472)
(-3.62224e-06 -5.16766e-06 0.0683408)
(3.14062e-06 3.11783e-06 0.0835795)
(2.57837e-06 4.35615e-06 0.0715346)
(-3.29953e-06 -5.92997e-06 0.0715811)
(4.33468e-06 2.59068e-06 0.0715347)
(-5.90971e-06 -3.32074e-06 0.0715807)
(-7.25894e-06 -7.2868e-06 0.0836413)
(4.0919e-06 2.63764e-06 0.0683042)
(2.66072e-06 4.07136e-06 0.068298)
(3.14709e-06 3.12241e-06 0.0835946)
(-5.13443e-06 -3.62155e-06 0.0683606)
(-3.60533e-06 -5.1634e-06 0.0683542)
(3.8109e-06 7.78832e-06 0.091665)
(-1.4202e-05 -2.40133e-05 0.0963164)
(3.46918e-06 3.56707e-06 0.0875418)
(-3.9871e-06 -8.05798e-06 0.0815998)
(3.00593e-06 3.81457e-06 0.0815466)
(5.55295e-06 1.10136e-05 0.0962671)
(-1.02745e-05 -1.68049e-05 0.0917134)
(7.79884e-06 3.79451e-06 0.0916585)
(-2.4024e-05 -1.42351e-05 0.0963139)
(3.58786e-06 3.47782e-06 0.0875407)
(-8.08243e-06 -4.02421e-06 0.0815938)
(3.86429e-06 2.99951e-06 0.0815416)
(1.09975e-05 5.53572e-06 0.0962645)
(-1.67955e-05 -1.03173e-05 0.0917069)
(-1.02867e-05 -1.68288e-05 0.0917064)
(3.01643e-06 3.80922e-06 0.0815388)
(5.55949e-06 1.10095e-05 0.0962612)
(-6.89724e-06 -9.92592e-06 0.0875844)
(3.80893e-06 7.77884e-06 0.0916579)
(-3.98429e-06 -8.07352e-06 0.081592)
(-1.4204e-05 -2.40376e-05 0.0963105)
(-1.68203e-05 -1.03284e-05 0.0916999)
(3.85544e-06 3.008e-06 0.0815338)
(1.0993e-05 5.54334e-06 0.0962586)
(-9.95057e-06 -6.93476e-06 0.0875823)
(7.78995e-06 3.79376e-06 0.0916515)
(-8.10652e-06 -4.02582e-06 0.081586)
(-2.40494e-05 -1.42373e-05 0.096308)
(3.15168e-06 3.12683e-06 0.0836021)
(-5.13165e-06 -3.61294e-06 0.0683673)
(-3.59827e-06 -5.1617e-06 0.0683609)
(4.08828e-06 2.63939e-06 0.0683109)
(2.66305e-06 4.06715e-06 0.0683047)
(-7.24892e-06 -7.27659e-06 0.0836488)
(6.75493e-07 4.26443e-06 0.0768514)
(-1.45668e-07 -7.46523e-06 0.0786687)
(1.11304e-06 -1.60437e-05 0.0899173)
(2.4269e-07 5.03069e-06 0.0913523)
(1.79512e-07 3.87148e-06 0.0786282)
(5.25315e-07 5.5431e-06 0.0898681)
(-5.66368e-07 -7.47039e-06 0.0768981)
(-2.48205e-07 -6.12404e-06 0.0684387)
(1.11801e-06 -1.21147e-05 0.0822452)
(7.42215e-07 5.84261e-06 0.085788)
(1.31407e-06 -1.23888e-05 0.0858437)
(8.35103e-07 4.91779e-06 0.068378)
(8.51873e-07 4.91744e-06 0.0683856)
(1.32153e-06 -1.23762e-05 0.0858522)
(-6.31578e-07 7.13352e-06 0.0822007)
(7.52007e-07 5.8485e-06 0.0857965)
(-2.36058e-07 -6.11615e-06 0.0684463)
(-5.72382e-07 -7.47497e-06 0.0768897)
(2.8552e-07 -1.66591e-05 0.0913883)
(1.78589e-07 3.8733e-06 0.0786197)
(5.19196e-07 5.5511e-06 0.08986)
(-1.45084e-07 -7.47396e-06 0.0786602)
(1.11025e-06 -1.60522e-05 0.0899093)
(6.65966e-07 4.26568e-06 0.076843)
(5.38642e-07 -7.46238e-06 0.0769067)
(-1.94615e-07 3.86969e-06 0.0786366)
(-5.50937e-07 5.53917e-06 0.0898756)
(-3.06529e-07 -1.6636e-05 0.0914037)
(-7.02115e-07 4.26852e-06 0.0768598)
(1.25589e-07 -7.45774e-06 0.0786771)
(-1.14214e-06 -1.60269e-05 0.0899253)
(-8.89681e-07 4.92364e-06 0.068398)
(6.29685e-07 7.1772e-06 0.0822179)
(-1.38227e-06 -1.23269e-05 0.0858683)
(1.79406e-07 -6.09597e-06 0.0684589)
(-7.6608e-07 5.86343e-06 0.0858121)
(1.91916e-07 -6.10445e-06 0.0684514)
(-7.56492e-07 5.85884e-06 0.0858036)
(-1.18437e-06 -1.20999e-05 0.0822608)
(-8.75229e-07 4.92422e-06 0.0683904)
(-1.37348e-06 -1.23433e-05 0.0858599)
(-7.10239e-07 4.2679e-06 0.0768682)
(-2.6269e-07 5.01918e-06 0.0913678)
(1.26146e-07 -7.45536e-06 0.0786856)
(-1.14601e-06 -1.6018e-05 0.0899334)
(5.31966e-07 -7.45516e-06 0.076915)
(-1.94999e-07 3.87046e-06 0.0786451)
(-5.56858e-07 5.53233e-06 0.0898837)
(-5.59389e-07 -7.46125e-06 0.0769065)
(1.79078e-07 3.87039e-06 0.0786367)
(5.31463e-07 5.53869e-06 0.0898762)
(2.83859e-07 -1.66393e-05 0.0914038)
(6.84266e-07 4.26093e-06 0.0768598)
(-1.45321e-07 -7.45974e-06 0.0786772)
(1.11791e-06 -1.6033e-05 0.0899254)
(8.84635e-07 4.91782e-06 0.0684007)
(-6.08426e-07 7.13923e-06 0.0822176)
(1.33946e-06 -1.23443e-05 0.0858691)
(7.72922e-07 5.85972e-06 0.0858134)
(-2.09089e-07 -6.09868e-06 0.0684613)
(-2.22175e-07 -6.10642e-06 0.0684538)
(7.62616e-07 5.85592e-06 0.085805)
(1.13591e-06 -1.20831e-05 0.082262)
(8.68377e-07 4.91831e-06 0.0683932)
(1.33055e-06 -1.23565e-05 0.0858606)
(6.94473e-07 4.26029e-06 0.0768682)
(2.43599e-07 5.01925e-06 0.0913679)
(-1.44755e-07 -7.45019e-06 0.0786857)
(1.1221e-06 -1.60259e-05 0.0899334)
(1.81074e-07 3.86733e-06 0.0786453)
(5.38678e-07 5.53222e-06 0.0898843)
(-5.52303e-07 -7.45723e-06 0.0769148)
(-3.13655e-06 3.105e-06 0.0835874)
(5.13504e-06 -3.63893e-06 0.0683487)
(3.60843e-06 -5.16496e-06 0.0683541)