/*--------------------------------*- C++ -*----------------------------------*\
| =========                 |                                                 |
| \\      /  F ield         | OpenFOAM: The Open Source CFD Toolbox           |
|  \\    /   O peration     | Version:  2312                                  |
|   \\  /    A nd           | Website:  www.openfoam.com                      |
|    \\/     M anipulation  |                                                 |
\*---------------------------------------------------------------------------*/
FoamFile
{
    version     2.0;
    format      ascii;
    arch        "LSB;label=32;scalar=64";
    class       volScalarField;
    location    "750";
    object      k;
}
// * * * * * * * * * * * * * * * * * * * * * * * * * * * * * * * * * * * * * //

dimensions      [0 2 -2 0 0 0 0];

internalField   nonuniform List<scalar> 
43496
(
6.8575e-05
7.11957e-05
5.14166e-05
6.47964e-05
6.06295e-05
4.67108e-05
6.8572e-05
7.34399e-05
6.06258e-05
5.1412e-05
4.67114e-05
6.47926e-05
5.35374e-05
6.99402e-05
6.9938e-05
7.11945e-05
7.34448e-05
7.18478e-05
6.85635e-05
7.16014e-05
7.16307e-05
7.15897e-05
7.16183e-05
7.18627e-05
7.16832e-05
7.97878e-05
7.97802e-05
7.16975e-05
7.1184e-05
7.18474e-05
6.85633e-05
7.16301e-05
7.15944e-05
7.16177e-05
7.15864e-05
7.18605e-05
7.16813e-05
7.97684e-05
7.34311e-05
7.97609e-05
7.16956e-05
9.49813e-05
7.34964e-05
7.35026e-05
7.3483e-05
7.34892e-05
9.49832e-05
7.41993e-05
7.32792e-05
6.99372e-05
6.52491e-05
7.32704e-05
6.52363e-05
7.42041e-05
7.41517e-05
7.32712e-05
6.99343e-05
6.52445e-05
6.52319e-05
7.32626e-05
7.41566e-05
7.11827e-05
7.34337e-05
3.19043e-05
3.89084e-05
3.19095e-05
6.47861e-05
6.03768e-05
6.03775e-05
5.6297e-05
6.06111e-05
6.23238e-05
5.50198e-05
6.23057e-05
5.50169e-05
5.62915e-05
5.73873e-05
6.42067e-05
6.4194e-05
5.73891e-05
5.62963e-05
6.0612e-05
5.50085e-05
6.23168e-05
5.50247e-05
6.23046e-05
5.62839e-05
5.73912e-05
6.41979e-05
6.47824e-05
6.03708e-05
6.41877e-05
5.73762e-05
6.03721e-05
6.59267e-05
5.35344e-05
5.94794e-05
5.94821e-05
5.94777e-05
5.94746e-05
6.59336e-05
3.83871e-05
5.11104e-05
5.11132e-05
5.33003e-05
3.88049e-05
5.13562e-05
5.1359e-05
5.34863e-05
5.3292e-05
5.34437e-05
5.11105e-05
5.11054e-05
5.12968e-05
5.12923e-05
5.33012e-05
5.34315e-05
5.11079e-05
5.11086e-05
5.12943e-05
5.12948e-05
5.11103e-05
5.1296e-05
5.12947e-05
5.32921e-05
5.34441e-05
5.11074e-05
5.12994e-05
5.12943e-05
5.34427e-05
5.34876e-05
5.13563e-05
5.13506e-05
5.34973e-05
5.13539e-05
5.13545e-05
5.13571e-05
5.34875e-05
5.13532e-05
6.85143e-05
7.33585e-05
7.3385e-05
6.84881e-05
7.11138e-05
7.11402e-05
6.85148e-05
7.33614e-05
7.33859e-05
6.84863e-05
3.83864e-05
3.83916e-05
3.83906e-05
3.87028e-05
3.87025e-05
3.87069e-05
3.87058e-05
6.05223e-05
6.46954e-05
4.63293e-05
5.11731e-05
6.47262e-05
4.64094e-05
6.04772e-05
7.11154e-05
7.11413e-05
6.05228e-05
4.63328e-05
6.46964e-05
5.11765e-05
4.64125e-05
6.47272e-05
6.04777e-05
6.98615e-05
6.98702e-05
5.33419e-05
6.98803e-05
6.98882e-05
7.34179e-05
6.8551e-05
7.1169e-05
7.34208e-05
6.85491e-05
3.88042e-05
3.88093e-05
3.88084e-05
6.06272e-05
6.47684e-05
4.66392e-05
6.05875e-05
4.67126e-05
7.11705e-05
6.06275e-05
4.66429e-05
6.47692e-05
6.05879e-05
4.67155e-05
6.99166e-05
6.99255e-05
5.35342e-05
6.99333e-05
6.99418e-05
7.11128e-05
7.11389e-05
7.11159e-05
7.11419e-05
6.98657e-05
6.98738e-05
5.33462e-05
6.9884e-05
6.98922e-05
7.11663e-05
7.11405e-05
7.11694e-05
7.11437e-05
5.33902e-05
6.99113e-05
6.99196e-05
6.9894e-05
6.99021e-05
6.85126e-05
7.33551e-05
7.33816e-05
6.84863e-05
6.05229e-05
6.46945e-05
4.63284e-05
5.11739e-05
6.47251e-05
4.64082e-05
6.04778e-05
6.05211e-05
6.46903e-05
4.63259e-05
5.11691e-05
6.47212e-05
4.64061e-05
6.04761e-05
6.85202e-05
7.34145e-05
7.33886e-05
6.85454e-05
6.85186e-05
7.34112e-05
7.33852e-05
6.85436e-05
6.05346e-05
5.12362e-05
6.47609e-05
4.65632e-05
6.47318e-05
4.64869e-05
6.05768e-05
6.05329e-05
5.12308e-05
6.47569e-05
4.65612e-05
6.47276e-05
4.64843e-05
6.05751e-05
6.98651e-05
6.98666e-05
5.33346e-05
6.98844e-05
6.9885e-05
7.11141e-05
7.11402e-05
7.11676e-05
7.11416e-05
5.33992e-05
6.99118e-05
6.99124e-05
6.98935e-05
6.98951e-05
7.11677e-05
7.11419e-05
6.0524e-05
6.46962e-05
4.63278e-05
5.11713e-05
6.47277e-05
4.64075e-05
6.04752e-05
6.85121e-05
7.33571e-05
7.33816e-05
6.84859e-05
6.05209e-05
4.63286e-05
6.46927e-05
5.11719e-05
4.64083e-05
6.47233e-05
6.0476e-05
6.85184e-05
7.34155e-05
7.33913e-05
6.8546e-05
6.05318e-05
5.12336e-05
6.47634e-05
4.65625e-05
6.47336e-05
4.64863e-05
6.0578e-05
6.8518e-05
7.34112e-05
7.33871e-05
6.8543e-05
6.05325e-05
5.12343e-05
4.65632e-05
6.47591e-05
4.6487e-05
6.47299e-05
6.05748e-05
6.85127e-05
7.33588e-05
7.33852e-05
6.84847e-05
6.05222e-05
4.63303e-05
6.46912e-05
5.11726e-05
4.64096e-05
6.47222e-05
6.04771e-05
6.85126e-05
7.33566e-05
7.33812e-05
6.84863e-05
6.05339e-05
5.12361e-05
6.47618e-05
4.65643e-05
6.47326e-05
4.64877e-05
6.05762e-05
6.85168e-05
7.34148e-05
7.33888e-05
6.85436e-05
6.05339e-05
5.12364e-05
4.65644e-05
6.4758e-05
4.64888e-05
6.47284e-05
6.05762e-05
6.85186e-05
7.34108e-05
7.33866e-05
6.85436e-05
6.98687e-05
6.9866e-05
5.33464e-05
6.98867e-05
6.98844e-05
7.1114e-05
7.11401e-05
7.11687e-05
7.11431e-05
5.33905e-05
6.99142e-05
6.99118e-05
6.98971e-05
6.98943e-05
7.11675e-05
7.11418e-05
6.052e-05
4.63301e-05
6.46941e-05
5.11714e-05
4.64095e-05
6.47245e-05
6.0475e-05
6.85118e-05
7.33598e-05
7.33863e-05
6.84856e-05
6.85082e-05
7.33584e-05
7.33829e-05
6.84819e-05
6.05344e-05
5.12389e-05
4.65673e-05
6.47628e-05
4.64912e-05
6.47335e-05
6.05766e-05
6.05317e-05
5.1233e-05
4.65644e-05
6.47605e-05
4.64885e-05
6.47313e-05
6.0574e-05
6.85178e-05
7.34158e-05
7.33898e-05
6.85427e-05
6.85141e-05
7.34125e-05
7.33884e-05
6.85391e-05
7.11137e-05
7.11398e-05
7.11165e-05
7.11425e-05
5.33946e-05
6.99077e-05
6.99156e-05
6.98897e-05
6.98985e-05
7.11672e-05
7.11415e-05
7.11699e-05
7.11443e-05
7.11679e-05
7.1171e-05
6.99208e-05
6.99289e-05
7.34146e-05
6.85492e-05
6.47668e-05
4.66386e-05
6.05882e-05
6.47631e-05
4.66359e-05
6.05865e-05
6.99204e-05
6.99223e-05
7.11692e-05
6.4769e-05
4.6638e-05
6.05854e-05
7.34164e-05
6.85486e-05
4.66387e-05
6.47652e-05
6.05861e-05
6.85729e-05
7.34182e-05
6.85474e-05
6.06272e-05
4.66405e-05
6.47637e-05
5.14109e-05
6.05876e-05
4.67123e-05
6.47917e-05
6.85728e-05
7.3416e-05
6.85493e-05
7.34395e-05
6.99241e-05
6.99213e-05
7.11692e-05
6.0625e-05
4.66402e-05
6.47667e-05
5.1412e-05
6.05853e-05
4.67126e-05
6.4794e-05
6.85718e-05
7.34193e-05
6.85484e-05
6.85682e-05
7.34178e-05
6.85448e-05
7.34412e-05
7.11689e-05
7.11942e-05
7.11716e-05
7.11969e-05
7.1793e-05
7.157e-05
7.15458e-05
6.85044e-05
7.15607e-05
7.15369e-05
7.18025e-05
7.16305e-05
7.33701e-05
7.97182e-05
7.97266e-05
7.1616e-05
7.16295e-05
7.97397e-05
7.33736e-05
7.97315e-05
7.1644e-05
7.17879e-05
6.84984e-05
7.15458e-05
7.15221e-05
7.15553e-05
7.15313e-05
7.17783e-05
7.11263e-05
7.11278e-05
7.1791e-05
7.1546e-05
7.15717e-05
6.85024e-05
7.15336e-05
7.15593e-05
7.18049e-05
7.16308e-05
7.3371e-05
7.97161e-05
7.97248e-05
7.16163e-05
7.16298e-05
7.97379e-05
7.33764e-05
7.97294e-05
7.16444e-05
7.17903e-05
6.84988e-05
7.15191e-05
7.15446e-05
7.15314e-05
7.15568e-05
7.17761e-05
7.11275e-05
7.11293e-05
9.49256e-05
7.34531e-05
7.34464e-05
7.34394e-05
7.34328e-05
9.49281e-05
7.40743e-05
6.51187e-05
6.98661e-05
7.31884e-05
6.51325e-05
7.3201e-05
7.40683e-05
7.41215e-05
6.51266e-05
6.98741e-05
7.31998e-05
6.51411e-05
7.32091e-05
7.41167e-05
7.40855e-05
7.32154e-05
6.98757e-05
6.51556e-05
6.51417e-05
7.3203e-05
7.40913e-05
7.41339e-05
7.32235e-05
6.98845e-05
6.51641e-05
6.51498e-05
7.32143e-05
7.41384e-05
9.49134e-05
7.34266e-05
7.342e-05
7.34404e-05
7.34337e-05
9.49109e-05
7.1684e-05
7.97698e-05
7.34293e-05
7.16697e-05
7.97776e-05
7.18453e-05
6.85607e-05
7.16053e-05
7.15797e-05
7.18363e-05
7.16142e-05
7.15878e-05
7.11813e-05
7.16843e-05
7.97678e-05
7.34297e-05
7.167e-05
7.97757e-05
7.18476e-05
6.85605e-05
7.15767e-05
7.16041e-05
7.18341e-05
7.15881e-05
7.16161e-05
7.11823e-05
9.49819e-05
7.35033e-05
7.34966e-05
7.34898e-05
7.34832e-05
9.49842e-05
7.414e-05
6.52082e-05
7.32458e-05
6.99209e-05
7.41346e-05
6.52207e-05
7.32581e-05
7.41868e-05
6.52162e-05
7.32573e-05
6.99289e-05
7.4183e-05
6.52294e-05
7.32662e-05
9.49706e-05
7.34774e-05
7.34707e-05
9.49683e-05
7.34909e-05
7.34842e-05
7.415e-05
7.32723e-05
6.99297e-05
6.52412e-05
6.52291e-05
7.32597e-05
7.41556e-05
7.41983e-05
7.32799e-05
6.99385e-05
6.525e-05
6.52371e-05
7.32712e-05
7.4203e-05
7.1125e-05
7.11267e-05
7.11281e-05
7.11298e-05
9.49291e-05
7.34529e-05
7.34461e-05
7.34392e-05
7.34324e-05
9.49314e-05
7.40762e-05
6.51214e-05
6.98697e-05
7.31894e-05
7.32018e-05
6.51338e-05
7.40703e-05
7.41217e-05
6.51279e-05
6.9878e-05
7.32005e-05
7.32098e-05
6.51419e-05
7.41172e-05
7.40876e-05
7.3216e-05
6.988e-05
6.51569e-05
7.32046e-05
7.40931e-05
6.51447e-05
7.41344e-05
7.32243e-05
6.98881e-05
6.5165e-05
7.3215e-05
7.41386e-05
6.51513e-05
9.49167e-05
7.34264e-05
7.34196e-05
7.34401e-05
7.34334e-05
9.49144e-05
7.11543e-05
7.11526e-05
7.11574e-05
7.11557e-05
9.49459e-05
7.34519e-05
7.34451e-05
9.49436e-05
7.34656e-05
7.34588e-05
7.41207e-05
6.5201e-05
6.99076e-05
7.32434e-05
7.32342e-05
6.51897e-05
7.4126e-05
7.41676e-05
6.52092e-05
6.99157e-05
7.32528e-05
7.32438e-05
6.51962e-05
7.41715e-05
7.41099e-05
7.32195e-05
6.51675e-05
6.98977e-05
7.41044e-05
7.32296e-05
6.51792e-05
7.41553e-05
7.32296e-05
6.5174e-05
6.99059e-05
7.41511e-05
7.32389e-05
6.51873e-05
9.49578e-05
7.34781e-05
7.34714e-05
7.34645e-05
7.34578e-05
9.49601e-05
7.1792e-05
7.15697e-05
7.15403e-05
6.85027e-05
7.15603e-05
7.15313e-05
7.18015e-05
7.16298e-05
7.33666e-05
7.96996e-05
7.9708e-05
7.16153e-05
7.16288e-05
7.97211e-05
7.33702e-05
7.97129e-05
7.16433e-05
7.17871e-05
6.84966e-05
7.15454e-05
7.15164e-05
7.15549e-05
7.15258e-05
7.17773e-05
7.18169e-05
7.15755e-05
7.15514e-05
6.85302e-05
7.18075e-05
7.15851e-05
7.15604e-05
7.16564e-05
7.34033e-05
7.97652e-05
7.16708e-05
7.97574e-05
7.16575e-05
7.97445e-05
7.33998e-05
7.1643e-05
7.97526e-05
7.18221e-05
6.85358e-05
7.15999e-05
7.15745e-05
7.18316e-05
7.15903e-05
7.15656e-05
7.18159e-05
7.15752e-05
7.15458e-05
6.85285e-05
7.18064e-05
7.15848e-05
7.1555e-05
7.16557e-05
7.33999e-05
7.97467e-05
7.97387e-05
7.16701e-05
7.16568e-05
7.9726e-05
7.33964e-05
7.16423e-05
7.9734e-05
7.18211e-05
6.85342e-05
7.15994e-05
7.15691e-05
7.15901e-05
7.15602e-05
7.18305e-05
9.49277e-05
7.34469e-05
7.34529e-05
7.34331e-05
7.34392e-05
9.49298e-05
7.41217e-05
6.51251e-05
6.98702e-05
7.31971e-05
7.32096e-05
6.5138e-05
7.41172e-05
7.40748e-05
6.51218e-05
6.98711e-05
7.31902e-05
6.51351e-05
7.32026e-05
7.40709e-05
7.41344e-05
7.32241e-05
6.98795e-05
6.51611e-05
7.32117e-05
6.51485e-05
7.4139e-05
7.4088e-05
7.32168e-05
6.98811e-05
6.51583e-05
6.51451e-05
7.32054e-05
7.4092e-05
9.4915e-05
7.34203e-05
7.34264e-05
7.34341e-05
7.34402e-05
9.4913e-05
7.11264e-05
7.11281e-05
7.11554e-05
7.1154e-05
9.49443e-05
7.34458e-05
7.34519e-05
9.49422e-05
7.34596e-05
7.34656e-05
7.41671e-05
6.52053e-05
6.9907e-05
7.32527e-05
6.51934e-05
7.32403e-05
7.4172e-05
7.41212e-05
6.52024e-05
6.99089e-05
7.32443e-05
7.3235e-05
6.51901e-05
7.4125e-05
7.41559e-05
7.32262e-05
6.51711e-05
6.98981e-05
6.51834e-05
7.41508e-05
7.32383e-05
7.41086e-05
7.32202e-05
6.51678e-05
6.98989e-05
7.41048e-05
7.32305e-05
6.51806e-05
9.49565e-05
7.34722e-05
7.34782e-05
7.34585e-05
7.34645e-05
9.49586e-05
7.11556e-05
7.1154e-05
7.17897e-05
7.15712e-05
7.15392e-05
6.85022e-05
7.15588e-05
7.15301e-05
7.18035e-05
7.1629e-05
7.33667e-05
7.96968e-05
7.97053e-05
7.16145e-05
7.1628e-05
7.97184e-05
7.33721e-05
7.971e-05
7.16425e-05
7.17889e-05
6.84962e-05
7.15441e-05
7.15154e-05
7.15563e-05
7.15247e-05
7.17749e-05
7.18192e-05
7.15484e-05
7.15744e-05
6.85305e-05
7.18056e-05
7.15604e-05
7.15867e-05
7.16567e-05
7.34061e-05
7.97634e-05
7.16711e-05
7.97551e-05
7.16578e-05
7.97424e-05
7.34009e-05
7.16433e-05
7.97508e-05
7.18203e-05
6.85339e-05
7.15747e-05
7.16017e-05
7.18333e-05
7.15626e-05
7.15893e-05
7.18179e-05
7.15738e-05
7.15447e-05
6.85279e-05
7.18043e-05
7.15862e-05
7.15538e-05
7.16549e-05
7.34019e-05
7.97439e-05
7.9736e-05
7.16692e-05
7.16559e-05
7.97231e-05
7.33966e-05
7.16415e-05
7.97313e-05
7.18188e-05
6.85335e-05
7.16009e-05
7.15677e-05
7.15886e-05
7.1559e-05
7.18321e-05
7.1789e-05
7.1541e-05
7.15709e-05
6.85008e-05
7.153e-05
7.15583e-05
7.18035e-05
7.16296e-05
7.33703e-05
7.97129e-05
7.97173e-05
7.16145e-05
7.1628e-05
7.97305e-05
7.33739e-05
7.97262e-05
7.16431e-05
7.17888e-05
6.84967e-05
7.15152e-05
7.15437e-05
7.15264e-05
7.1556e-05
7.17744e-05
7.17898e-05
7.15708e-05
7.15401e-05
6.85027e-05
7.15588e-05
7.1531e-05
7.18035e-05
7.16294e-05
7.33663e-05
7.96961e-05
7.97046e-05
7.16148e-05
7.16284e-05
7.97177e-05
7.33716e-05
7.97094e-05
7.16429e-05
7.1789e-05
6.84967e-05
7.1544e-05
7.15161e-05
7.1556e-05
7.15255e-05
7.17749e-05
7.18179e-05
7.15446e-05
7.15734e-05
6.85284e-05
7.18036e-05
7.15554e-05
7.15859e-05
7.16549e-05
7.34036e-05
7.97561e-05
7.97519e-05
7.16699e-05
7.16565e-05
7.97391e-05
7.34e-05
7.16415e-05
7.97432e-05
7.18181e-05
6.85323e-05
7.15694e-05
7.16006e-05
7.15589e-05
7.15882e-05
7.18321e-05
7.1818e-05
7.15746e-05
7.15456e-05
6.85285e-05
7.18044e-05
7.15851e-05
7.15547e-05
7.16553e-05
7.34015e-05
7.97433e-05
7.97354e-05
7.16697e-05
7.16564e-05
7.97225e-05
7.33962e-05
7.16419e-05
7.97306e-05
7.18189e-05
6.85341e-05
7.15994e-05
7.15686e-05
7.15898e-05
7.15599e-05
7.18321e-05
9.49248e-05
7.34462e-05
7.34524e-05
7.34326e-05
7.34388e-05
9.49267e-05
7.41218e-05
6.51253e-05
6.98727e-05
7.31991e-05
7.32084e-05
6.51403e-05
7.41177e-05
7.40745e-05
6.51212e-05
6.98702e-05
7.31911e-05
6.51354e-05
7.32004e-05
7.407e-05
7.41349e-05
7.32228e-05
6.98831e-05
6.51633e-05
7.32136e-05
6.51488e-05
7.4139e-05
7.40872e-05
7.32148e-05
6.98804e-05
6.51586e-05
6.51446e-05
7.32056e-05
7.40916e-05
9.4912e-05
7.34198e-05
7.3426e-05
7.34335e-05
7.34397e-05
9.491e-05
7.11262e-05
7.1128e-05
7.11568e-05
7.11551e-05
9.49412e-05
7.34453e-05
7.34515e-05
9.49392e-05
7.34589e-05
7.34651e-05
7.4168e-05
6.52075e-05
6.99108e-05
7.32514e-05
6.51938e-05
7.32424e-05
7.41719e-05
7.41203e-05
6.52028e-05
6.9908e-05
7.32434e-05
7.32345e-05
6.51894e-05
7.41245e-05
7.41555e-05
7.32282e-05
6.51716e-05
6.99007e-05
6.51856e-05
7.41517e-05
7.32374e-05
7.41081e-05
7.32202e-05
6.51672e-05
6.98982e-05
7.4104e-05
7.32294e-05
6.51809e-05
9.49536e-05
7.34715e-05
7.34777e-05
7.3458e-05
7.34641e-05
9.49555e-05
7.11555e-05
7.11539e-05
7.17931e-05
7.15451e-05
7.15693e-05
6.85019e-05
7.15361e-05
7.15599e-05
7.18025e-05
7.1631e-05
7.33713e-05
7.97147e-05
7.97232e-05
7.16165e-05
7.163e-05
7.97362e-05
7.33749e-05
7.9728e-05
7.16445e-05
7.1788e-05
6.84959e-05
7.15212e-05
7.1545e-05
7.15306e-05
7.15545e-05
7.17784e-05
7.17888e-05
7.15367e-05
7.15683e-05
6.84982e-05
7.15277e-05
7.15588e-05
7.18028e-05
7.163e-05
7.3368e-05
7.96978e-05
7.97061e-05
7.16154e-05
7.1629e-05
7.97192e-05
7.33734e-05
7.9711e-05
7.16435e-05
7.17883e-05
6.84922e-05
7.15128e-05
7.1544e-05
7.15221e-05
7.15535e-05
7.17742e-05
7.18169e-05
7.15506e-05
7.15747e-05
6.85276e-05
7.18075e-05
7.15597e-05
7.15843e-05
7.16569e-05
7.34045e-05
7.97617e-05
7.97538e-05
7.16712e-05
7.16579e-05
7.9741e-05
7.34011e-05
7.16435e-05
7.97491e-05
7.18221e-05
6.85333e-05
7.15735e-05
7.15989e-05
7.15649e-05
7.15896e-05
7.18315e-05
7.18173e-05
7.15423e-05
7.15737e-05
6.85239e-05
7.18034e-05
7.15513e-05
7.15833e-05
7.16558e-05
7.34032e-05
7.97448e-05
7.97369e-05
7.16703e-05
7.16569e-05
7.97241e-05
7.33979e-05
7.16424e-05
7.97321e-05
7.18179e-05
6.85296e-05
7.15652e-05
7.15979e-05
7.15566e-05
7.15886e-05
7.18314e-05
7.11259e-05
7.11277e-05
7.11286e-05
7.11304e-05
9.49425e-05
7.34522e-05
7.34455e-05
9.494e-05
7.34658e-05
7.34591e-05
7.41185e-05
6.51996e-05
6.99031e-05
7.3244e-05
7.41241e-05
6.51866e-05
7.32315e-05
7.41669e-05
6.52083e-05
6.99122e-05
7.32522e-05
7.41712e-05
6.51947e-05
7.32431e-05
7.4108e-05
7.32176e-05
6.51645e-05
6.98942e-05
7.41022e-05
6.51779e-05
7.32296e-05
7.41551e-05
7.32289e-05
6.51725e-05
6.99022e-05
7.41506e-05
6.51865e-05
7.32382e-05
9.49542e-05
7.34784e-05
7.34717e-05
9.49567e-05
7.34648e-05
7.34581e-05
7.11552e-05
7.11536e-05
7.1158e-05
7.11563e-05
7.11799e-05
7.11829e-05
7.41421e-05
6.52112e-05
7.32482e-05
6.99253e-05
7.41367e-05
7.3258e-05
6.52223e-05
7.41884e-05
6.52178e-05
7.32575e-05
6.99335e-05
7.41832e-05
7.32675e-05
6.52306e-05
9.49742e-05
7.34771e-05
7.34703e-05
9.49718e-05
7.34906e-05
7.34839e-05
7.16833e-05
7.97514e-05
7.3426e-05
7.1669e-05
7.97591e-05
7.18444e-05
6.8559e-05
7.16046e-05
7.15744e-05
7.16147e-05
7.18354e-05
7.15826e-05
7.41871e-05
6.52149e-05
7.32545e-05
6.99253e-05
7.32671e-05
7.41833e-05
6.52264e-05
7.41407e-05
6.52116e-05
7.32494e-05
6.99255e-05
6.52237e-05
7.41372e-05
7.32581e-05
9.49724e-05
7.3471e-05
7.34771e-05
7.34847e-05
9.49706e-05
7.34907e-05
7.16825e-05
7.97485e-05
7.34258e-05
7.16681e-05
7.97564e-05
7.18467e-05
6.85579e-05
7.16034e-05
7.15729e-05
7.16154e-05
7.18332e-05
7.15815e-05
7.18462e-05
6.8562e-05
7.16299e-05
7.15862e-05
7.16172e-05
7.16831e-05
7.97643e-05
7.34295e-05
7.97687e-05
7.16682e-05
7.18469e-05
6.85584e-05
7.15727e-05
7.1603e-05
7.15829e-05
7.18325e-05
7.16152e-05
7.16814e-05
7.18478e-05
6.85641e-05
7.16289e-05
7.15954e-05
7.1619e-05
7.15874e-05
7.1861e-05
7.16829e-05
7.97479e-05
7.34253e-05
7.16686e-05
7.97556e-05
7.18465e-05
6.85586e-05
7.16047e-05
7.15739e-05
7.18335e-05
7.16142e-05
7.15824e-05
7.16818e-05
7.97678e-05
7.34306e-05
7.97601e-05
7.16961e-05
7.41877e-05
6.52153e-05
7.32563e-05
6.99275e-05
7.32656e-05
7.41839e-05
6.52286e-05
7.41402e-05
6.52109e-05
7.32484e-05
6.9925e-05
6.52239e-05
7.41362e-05
7.32576e-05
9.49695e-05
7.34705e-05
7.34767e-05
7.3484e-05
9.49675e-05
7.34902e-05
7.11811e-05
7.18506e-05
6.85632e-05
7.16002e-05
7.16279e-05
7.15922e-05
7.1619e-05
7.18611e-05
7.16845e-05
7.97663e-05
7.34303e-05
7.97742e-05
7.16702e-05
7.18458e-05
6.85577e-05
7.15788e-05
7.16043e-05
7.15873e-05
7.18363e-05
7.16137e-05
7.16834e-05
7.97863e-05
7.97785e-05
7.16976e-05
7.1847e-05
6.85596e-05
7.1592e-05
7.16268e-05
7.15841e-05
7.16179e-05
7.18599e-05
7.16835e-05
7.97494e-05
7.3427e-05
7.16691e-05
7.97572e-05
7.18457e-05
6.8554e-05
7.15705e-05
7.16033e-05
7.18326e-05
7.1579e-05
7.16127e-05
7.16823e-05
7.97692e-05
7.34323e-05
7.97618e-05
7.16967e-05
7.11808e-05
7.11824e-05
7.11835e-05
7.11851e-05
3.12709e-05
3.12686e-05
3.8494e-05
3.14015e-05
3.13988e-05
2.22636e-05
2.21123e-05
6.58133e-05
5.93052e-05
5.93061e-05
5.32851e-05
5.93055e-05
5.93068e-05
6.58069e-05
3.17836e-05
3.17812e-05
2.28616e-05
2.27137e-05
6.59097e-05
5.94413e-05
5.94432e-05
5.34893e-05
6.59029e-05
5.94459e-05
5.9447e-05
6.5816e-05
5.93047e-05
5.93062e-05
5.32968e-05
5.93104e-05
5.93111e-05
6.58079e-05
6.58815e-05
5.34398e-05
5.94146e-05
5.94149e-05
5.94104e-05
5.94104e-05
6.58888e-05
6.58141e-05
5.93061e-05
5.93093e-05
5.32851e-05
5.93086e-05
5.93056e-05
6.58088e-05
6.58823e-05
5.34492e-05
5.94096e-05
5.94128e-05
5.94101e-05
5.9413e-05
6.58871e-05
6.58141e-05
5.93029e-05
5.93053e-05
5.32969e-05
5.9311e-05
5.93086e-05
6.58074e-05
6.58811e-05
5.34402e-05
5.94128e-05
5.94152e-05
5.94087e-05
5.94109e-05
6.58874e-05
6.58796e-05
5.34406e-05
5.94127e-05
5.94143e-05
6.58865e-05
5.94084e-05
5.94084e-05
6.59124e-05
5.94438e-05
5.94444e-05
5.34908e-05
6.59047e-05
5.94487e-05
5.94491e-05
6.59098e-05
5.94438e-05
5.94466e-05
5.34754e-05
5.94433e-05
6.59055e-05
5.94397e-05
6.59102e-05
5.94417e-05
5.94434e-05
5.34905e-05
5.94486e-05
6.59042e-05
5.94455e-05
3.12702e-05
3.12701e-05
3.84936e-05
3.14011e-05
3.13999e-05
2.22641e-05
2.21128e-05
3.12743e-05
3.12742e-05
3.84982e-05
3.14044e-05
3.14047e-05
2.22677e-05
2.21163e-05
3.12757e-05
3.12727e-05
3.8497e-05
3.14049e-05
3.14045e-05
2.22683e-05
2.21165e-05
3.85995e-05
3.16578e-05
3.16551e-05
3.15307e-05
3.15284e-05
2.24147e-05
2.25644e-05
3.85987e-05
3.16574e-05
3.16561e-05
3.15299e-05
3.15299e-05
2.24152e-05
2.25648e-05
3.8604e-05
3.16606e-05
3.16609e-05
3.15341e-05
3.15339e-05
2.24188e-05
2.25684e-05
3.8603e-05
3.16609e-05
3.1661e-05
3.15356e-05
3.15322e-05
2.24188e-05
2.25691e-05
5.61422e-05
6.22241e-05
5.48435e-05
6.05062e-05
6.22098e-05
5.48561e-05
5.61331e-05
5.72091e-05
6.02301e-05
6.47075e-05
6.40857e-05
6.02311e-05
6.40989e-05
5.72194e-05
5.72559e-05
6.41211e-05
6.47143e-05
6.02617e-05
6.02608e-05
6.41087e-05
5.72455e-05
5.60914e-05
6.0494e-05
6.21838e-05
5.4809e-05
6.21986e-05
5.4798e-05
5.60999e-05
5.61456e-05
5.48447e-05
6.22272e-05
6.05067e-05
5.48575e-05
6.22129e-05
5.61354e-05
5.72119e-05
6.02315e-05
6.47085e-05
6.40889e-05
6.02326e-05
6.41015e-05
5.72222e-05
5.72583e-05
6.41237e-05
6.47152e-05
6.02632e-05
6.0262e-05
6.41116e-05
5.72482e-05
5.60941e-05
6.04946e-05
5.48104e-05
6.2187e-05
5.47987e-05
6.22017e-05
5.61038e-05
6.58315e-05
5.3347e-05
5.9344e-05
5.93447e-05
5.93402e-05
5.93408e-05
6.58389e-05
3.17829e-05
3.17829e-05
3.19053e-05
2.2862e-05
2.27142e-05
3.17869e-05
3.17867e-05
3.19105e-05
2.28656e-05
2.27178e-05
3.17887e-05
3.17847e-05
3.89082e-05
3.19097e-05
3.19113e-05
2.28663e-05
2.27178e-05
5.62998e-05
6.06135e-05
6.232e-05
5.501e-05
6.23076e-05
5.50271e-05
5.62882e-05
5.735e-05
6.03496e-05
6.41738e-05
6.47788e-05
5.73633e-05
6.03477e-05
6.41843e-05
5.62518e-05
6.06024e-05
6.22844e-05
5.49838e-05
5.6262e-05
6.22974e-05
5.49708e-05
5.63023e-05
6.06139e-05
5.50111e-05
6.23228e-05
5.50279e-05
6.23106e-05
5.62903e-05
5.7353e-05
6.03488e-05
6.41764e-05
6.47798e-05
5.73649e-05
6.03487e-05
6.41873e-05
5.62544e-05
6.06028e-05
5.49847e-05
6.22875e-05
5.62648e-05
5.49718e-05
6.23004e-05
5.73991e-05
6.42068e-05
6.41967e-05
5.73839e-05
6.59253e-05
5.35316e-05
5.94786e-05
5.94795e-05
5.94739e-05
5.94749e-05
6.59324e-05
6.58332e-05
5.33422e-05
5.93467e-05
5.93461e-05
6.58407e-05
5.93396e-05
5.93413e-05
6.58652e-05
5.33942e-05
5.93745e-05
5.93756e-05
6.58576e-05
5.93804e-05
5.93805e-05
5.61434e-05
6.22262e-05
5.48432e-05
6.05068e-05
6.22119e-05
5.48561e-05
5.61332e-05
5.72092e-05
6.02293e-05
6.47065e-05
6.40881e-05
6.40999e-05
6.02303e-05
5.72197e-05
5.72558e-05
6.41223e-05
6.47134e-05
6.02609e-05
6.41106e-05
6.02598e-05
5.72456e-05
5.60917e-05
6.04946e-05
6.21859e-05
5.48091e-05
6.22006e-05
5.47974e-05
5.61015e-05
5.61389e-05
6.22211e-05
5.48411e-05
6.0505e-05
6.22068e-05
5.48541e-05
5.61286e-05
5.72026e-05
6.02254e-05
6.47025e-05
6.40796e-05
6.40921e-05
6.02264e-05
5.72131e-05
5.72492e-05
6.41144e-05
6.47092e-05
6.02568e-05
6.41023e-05
5.7239e-05
6.0256e-05
5.60871e-05
6.04929e-05
6.21808e-05
5.48073e-05
6.21956e-05
5.47955e-05
5.6097e-05
5.61742e-05
6.22375e-05
5.48989e-05
6.05504e-05
5.61843e-05
6.22516e-05
5.48863e-05
5.73273e-05
6.0319e-05
6.47497e-05
6.41656e-05
6.03185e-05
6.41545e-05
5.73166e-05
5.72808e-05
6.41328e-05
6.02891e-05
6.47433e-05
6.02903e-05
5.7292e-05
6.41444e-05
5.62243e-05
6.05618e-05
6.2276e-05
5.49275e-05
6.22624e-05
5.49419e-05
5.62139e-05
5.61695e-05
6.22323e-05
5.48971e-05
6.05487e-05
5.61798e-05
6.22466e-05
5.48843e-05
5.73209e-05
6.03164e-05
6.47456e-05
6.41577e-05
6.41463e-05
6.03154e-05
5.73098e-05
5.72742e-05
6.41243e-05
6.02854e-05
6.47392e-05
5.72854e-05
6.41365e-05
6.02864e-05
5.62198e-05
6.05601e-05
6.22711e-05
5.49255e-05
6.22572e-05
5.49399e-05
5.62093e-05
6.5834e-05
5.33507e-05
5.934e-05
5.93423e-05
5.93432e-05
5.93402e-05
6.5839e-05
6.58633e-05
5.33844e-05
5.93746e-05
5.93791e-05
5.93743e-05
6.58585e-05
5.93787e-05
5.61396e-05
6.22273e-05
5.48501e-05
6.05038e-05
6.22079e-05
5.48463e-05
5.61342e-05
5.72141e-05
6.02267e-05
6.47091e-05
6.40862e-05
6.41006e-05
6.02357e-05
5.72105e-05
5.72472e-05
6.41229e-05
6.47151e-05
6.0266e-05
6.41088e-05
6.02575e-05
5.72504e-05
5.6092e-05
6.04956e-05
6.21822e-05
5.48002e-05
6.22016e-05
5.4804e-05
5.60974e-05
5.61392e-05
5.48407e-05
6.22211e-05
6.05048e-05
5.48532e-05
6.22068e-05
5.61278e-05
5.72039e-05
6.02268e-05
6.47048e-05
6.40802e-05
6.40927e-05
6.02282e-05
5.72142e-05
5.72502e-05
6.41148e-05
6.47116e-05
6.02587e-05
6.41028e-05
5.72403e-05
6.02573e-05
5.60863e-05
6.04927e-05
5.48063e-05
6.2181e-05
5.47957e-05
6.21956e-05
5.60975e-05
5.61748e-05
6.22336e-05
5.48894e-05
6.05514e-05
5.61805e-05
6.22526e-05
5.48932e-05
5.73186e-05
6.0323e-05
6.47514e-05
6.41662e-05
6.03178e-05
6.41526e-05
5.73215e-05
5.72866e-05
6.4131e-05
6.02869e-05
6.47457e-05
6.02946e-05
5.72837e-05
6.41447e-05
5.62202e-05
6.0559e-05
6.2277e-05
5.49363e-05
6.22585e-05
5.49327e-05
5.62144e-05
5.61692e-05
5.48966e-05
6.22322e-05
6.05484e-05
5.61802e-05
5.4884e-05
6.22465e-05
5.73214e-05
6.0317e-05
6.4748e-05
6.4158e-05
6.41466e-05
6.03164e-05
5.73115e-05
5.72754e-05
6.41247e-05
6.02868e-05
6.47414e-05
5.72864e-05
6.41368e-05
6.02881e-05
5.62202e-05
6.05596e-05
5.49267e-05
6.22706e-05
5.49399e-05
6.22571e-05
5.62091e-05
5.61417e-05
5.48431e-05
6.22228e-05
6.0506e-05
5.48559e-05
6.22085e-05
5.61317e-05
5.7206e-05
6.0224e-05
6.47036e-05
6.40805e-05
6.02305e-05
6.40931e-05
5.72164e-05
5.72525e-05
6.41155e-05
6.471e-05
6.02611e-05
6.02532e-05
6.41033e-05
5.72425e-05
5.60902e-05
6.0494e-05
5.4809e-05
6.21825e-05
5.47976e-05
6.21972e-05
5.60997e-05
5.61737e-05
6.22352e-05
5.48991e-05
6.05498e-05
5.61832e-05
6.22494e-05
5.48868e-05
5.73271e-05
6.03197e-05
6.47508e-05
6.41641e-05
5.73165e-05
6.03197e-05
6.41525e-05
5.72807e-05
6.41305e-05
6.029e-05
6.47443e-05
5.7292e-05
6.02913e-05
6.41429e-05
5.62233e-05
6.0561e-05
6.22738e-05
5.49282e-05
5.62135e-05
6.226e-05
5.49421e-05
5.61726e-05
5.48991e-05
6.2234e-05
6.05497e-05
5.61826e-05
5.48863e-05
6.22482e-05
5.73237e-05
6.03196e-05
6.47462e-05
6.41586e-05
6.41474e-05
6.03118e-05
5.73135e-05
5.72774e-05
6.41252e-05
6.02826e-05
6.47403e-05
5.72884e-05
6.41374e-05
6.02903e-05
5.62226e-05
6.05611e-05
5.49288e-05
6.22724e-05
5.49423e-05
6.2259e-05
5.62122e-05
6.58327e-05
5.33424e-05
5.93449e-05
5.93467e-05
5.93415e-05
5.93379e-05
6.58392e-05
6.58635e-05
5.33946e-05
5.93727e-05
5.93759e-05
5.93787e-05
6.58571e-05
5.93809e-05
5.614e-05
5.48421e-05
6.22204e-05
6.05039e-05
5.48551e-05
6.22061e-05
5.61298e-05
5.72048e-05
6.02285e-05
6.4706e-05
6.40808e-05
6.02296e-05
6.40927e-05
5.72152e-05
5.72513e-05
6.41151e-05
6.47129e-05
6.02601e-05
6.0259e-05
6.41033e-05
5.72412e-05
5.60883e-05
6.04918e-05
5.48084e-05
6.21801e-05
5.47966e-05
6.21948e-05
5.60981e-05
5.61762e-05
5.49001e-05
6.22383e-05
6.05503e-05
5.61864e-05
5.48878e-05
6.22525e-05
5.73293e-05
6.03211e-05
6.47516e-05
6.41669e-05
5.73192e-05
6.03208e-05
6.41554e-05
5.72832e-05
6.41335e-05
6.02913e-05
6.47452e-05
5.72944e-05
6.02926e-05
6.41458e-05
5.62263e-05
6.05614e-05
5.49291e-05
6.2277e-05
5.62161e-05
5.49431e-05
6.22631e-05
5.61706e-05
5.48981e-05
6.22316e-05
6.05475e-05
5.61809e-05
5.48852e-05
6.22457e-05
5.73226e-05
6.03184e-05
6.47492e-05
6.41585e-05
6.41472e-05
6.03179e-05
5.73124e-05
5.72763e-05
6.41255e-05
6.02884e-05
6.47427e-05
5.72874e-05
6.41371e-05
6.02895e-05
5.62208e-05
6.05589e-05
5.49277e-05
6.227e-05
5.49413e-05
6.22565e-05
5.62103e-05
6.58632e-05
5.3394e-05
5.93726e-05
5.93736e-05
6.58558e-05
5.9379e-05
5.938e-05
5.73496e-05
6.03452e-05
6.41756e-05
6.47781e-05
6.41858e-05
5.73623e-05
6.03489e-05
5.62516e-05
6.06036e-05
6.2287e-05
5.49864e-05
6.22995e-05
5.6263e-05
5.4968e-05
5.73428e-05
6.03418e-05
6.41673e-05
6.47739e-05
5.73561e-05
6.41779e-05
6.03408e-05
5.62469e-05
6.06019e-05
6.22819e-05
5.49845e-05
5.62585e-05
6.22945e-05
5.4966e-05
5.73555e-05
6.03439e-05
6.41738e-05
6.47806e-05
6.41865e-05
5.73534e-05
6.03513e-05
5.62527e-05
6.0604e-05
6.22827e-05
5.49749e-05
6.23006e-05
5.62591e-05
5.4978e-05
5.73448e-05
6.03438e-05
6.41671e-05
6.47762e-05
5.73554e-05
6.41785e-05
6.03443e-05
5.62481e-05
6.06011e-05
5.49817e-05
6.22812e-05
5.62588e-05
5.49697e-05
6.22945e-05
5.62987e-05
6.06136e-05
5.50103e-05
6.23187e-05
5.50277e-05
6.23065e-05
5.62866e-05
5.73463e-05
6.03401e-05
6.4168e-05
6.47751e-05
6.03471e-05
5.73578e-05
6.4179e-05
5.6251e-05
6.06025e-05
5.49843e-05
6.22832e-05
5.49715e-05
5.62612e-05
6.22963e-05
5.73932e-05
6.41986e-05
6.47807e-05
6.03731e-05
6.03686e-05
6.41885e-05
5.73781e-05
5.6297e-05
6.06113e-05
5.50094e-05
6.23162e-05
5.50264e-05
6.23041e-05
5.62849e-05
5.73453e-05
6.03456e-05
6.41681e-05
6.47774e-05
6.03461e-05
5.7357e-05
6.41788e-05
5.62491e-05
6.06002e-05
5.49832e-05
6.22807e-05
5.49706e-05
5.62595e-05
6.22938e-05
5.73923e-05
6.41984e-05
6.47838e-05
6.03741e-05
6.03736e-05
6.41886e-05
5.73773e-05
3.64641e-05
4.1773e-05
3.64633e-05
7.1355e-05
6.01873e-05
6.95325e-05
6.68971e-05
6.68938e-05
6.9531e-05
6.01879e-05
7.13572e-05
7.01867e-05
7.13391e-05
7.73904e-05
7.73726e-05
7.02006e-05
6.95199e-05
7.00873e-05
5.93335e-05
6.68826e-05
7.11446e-05
5.9283e-05
7.11299e-05
7.01101e-05
7.00367e-05
5.93254e-05
6.68795e-05
7.11374e-05
7.11193e-05
5.92773e-05
7.00578e-05
9.23432e-05
7.20313e-05
7.20369e-05
7.20173e-05
7.20229e-05
9.23519e-05
6.95183e-05
7.01851e-05
7.13417e-05
7.74008e-05
7.73814e-05
7.01998e-05
5.95228e-05
4.17733e-05
5.05051e-05
5.05069e-05
5.04764e-05
5.0476e-05
5.95544e-05
4.80506e-05
5.25273e-05
6.01429e-05
5.85159e-05
5.84565e-05
5.24826e-05
4.80897e-05
4.80521e-05
5.25188e-05
6.01451e-05
5.85182e-05
5.24883e-05
5.84617e-05
4.80916e-05
2.10417e-05
3.66937e-05
3.66978e-05
4.19526e-05
2.18001e-05
3.75993e-05
3.76035e-05
4.26764e-05
2.25768e-05
3.84789e-05
3.84832e-05
4.33834e-05
2.33679e-05
3.93314e-05
3.93359e-05
4.4039e-05
2.41695e-05
4.01564e-05
4.01609e-05
4.46899e-05
2.49778e-05
4.09528e-05
4.09572e-05
4.53128e-05
2.57891e-05
4.17206e-05
4.1725e-05
4.59152e-05
2.65997e-05
4.24594e-05
4.2464e-05
4.64909e-05
2.74064e-05
4.31693e-05
4.31738e-05
4.70501e-05
2.8206e-05
4.38506e-05
4.38551e-05
4.75809e-05
2.89956e-05
4.45034e-05
4.45078e-05
4.80912e-05
2.97726e-05
4.51281e-05
4.51322e-05
4.85775e-05
3.05347e-05
4.57249e-05
4.57289e-05
4.90487e-05
3.12796e-05
4.62941e-05
4.62978e-05
4.94985e-05
3.20054e-05
4.68362e-05
4.68396e-05
4.99232e-05
3.27106e-05
4.73513e-05
4.73545e-05
5.03272e-05
3.33935e-05
4.78399e-05
4.78429e-05
5.07081e-05
3.4053e-05
4.83024e-05
4.83052e-05
5.10717e-05
3.46879e-05
4.87391e-05
4.8742e-05
5.14145e-05
3.52974e-05
4.91505e-05
4.91533e-05
5.17393e-05
3.58807e-05
4.9537e-05
4.95397e-05
5.20432e-05
3.64372e-05
4.98989e-05
4.99016e-05
5.23315e-05
3.69663e-05
5.02368e-05
5.02395e-05
5.26043e-05
3.74678e-05
5.05511e-05