/*--------------------------------*- C++ -*----------------------------------*\
| =========                 |                                                 |
| \\      /  F ield         | OpenFOAM: The Open Source CFD Toolbox           |
|  \\    /   O peration     | Version:  2312                                  |
|   \\  /    A nd           | Website:  www.openfoam.com                      |
|    \\/     M anipulation  |                                                 |
\*---------------------------------------------------------------------------*/
FoamFile
{
    version     2.0;
    format      ascii;
    arch        "LSB;label=32;scalar=64";
    class       volScalarField;
    location    "600";
    object      epsilon;
}
// * * * * * * * * * * * * * * * * * * * * * * * * * * * * * * * * * * * * * //

dimensions      [0 2 -3 0 0 0 0];

internalField   nonuniform List<scalar> 
43496
(
4.23889e-06
1.90948e-05
1.18667e-06
3.64744e-06
2.29544e-06
9.34974e-07
4.23882e-06
9.56713e-06
2.29539e-06
1.18666e-06
9.35011e-07
3.64768e-06
1.41727e-06
5.65215e-06
5.65073e-06
1.90923e-05
9.56704e-06
1.26554e-05
4.23895e-06
4.88459e-06
1.12473e-05
4.88468e-06
1.12452e-05
1.26588e-05
2.27629e-05
7.24527e-06
7.2455e-06
2.27697e-05
1.909e-05
1.26557e-05
4.23889e-06
1.12472e-05
4.88443e-06
1.12451e-05
4.88451e-06
1.26588e-05
2.27628e-05
7.24366e-06
9.56528e-06
7.24388e-06
2.27696e-05
9.96431e-06
2.23955e-05
2.2396e-05
2.23894e-05
2.23898e-05
9.96394e-06
4.71003e-06
9.93537e-06
5.65217e-06
2.97596e-06
9.93288e-06
2.97613e-06
4.70967e-06
4.70409e-06
9.93067e-06
5.65076e-06
2.97485e-06
2.97503e-06
9.92815e-06
4.70375e-06
1.90875e-05
9.56529e-06
4.50812e-07
6.59541e-07
4.50946e-07
3.64762e-06
2.22352e-06
2.22405e-06
1.66636e-06
2.29562e-06
2.54088e-06
1.54342e-06
2.54112e-06
1.54444e-06
1.66445e-06
1.84529e-06
3.02283e-06
3.02326e-06
1.84371e-06
1.66631e-06
2.29557e-06
1.54339e-06
2.54075e-06
1.54442e-06
2.54097e-06
1.66435e-06
1.84517e-06
3.02243e-06
3.64788e-06
2.22369e-06
3.02284e-06
1.84355e-06
2.22423e-06
2.82874e-06
1.41875e-06
1.96841e-06
1.96831e-06
1.96903e-06
1.96913e-06
2.82842e-06
6.51844e-07
1.18286e-06
1.18296e-06
1.4152e-06
6.57991e-07
1.1859e-06
1.186e-06
1.41811e-06
1.4151e-06
1.41586e-06
1.18296e-06
1.18282e-06
1.18529e-06
1.18522e-06
1.41512e-06
1.41584e-06
1.18278e-06
1.18296e-06
1.1851e-06
1.18528e-06
1.18302e-06
1.18518e-06
1.18524e-06
1.41517e-06
1.41593e-06
1.18281e-06
1.18529e-06
1.18516e-06
1.41591e-06
1.41802e-06
1.186e-06
1.18584e-06
1.41801e-06
1.18582e-06
1.186e-06
1.18611e-06
1.41809e-06
1.18586e-06
4.23631e-06
9.54986e-06
9.55468e-06
4.23571e-06
1.9061e-05
1.90716e-05
4.23635e-06
9.55126e-06
9.55604e-06
4.23577e-06
6.51827e-07
6.51982e-07
6.51962e-07
6.56504e-07
6.56515e-07
6.56632e-07
6.56592e-07
2.29403e-06
3.6445e-06
9.29847e-07
1.18366e-06
3.64497e-06
9.30982e-07
2.29371e-06
1.90624e-05
1.90729e-05
2.29405e-06
9.29968e-07
3.6445e-06
1.18377e-06
9.31072e-07
3.64499e-06
2.29372e-06
5.64524e-06
5.64699e-06
1.41446e-06
5.64632e-06
5.64807e-06
9.56148e-06
4.23829e-06
1.90831e-05
9.56287e-06
4.23835e-06
6.57973e-07
6.58125e-07
6.58113e-07
2.29551e-06
3.64704e-06
9.34065e-07
2.2953e-06
9.3504e-07
1.90846e-05
2.29552e-06
9.34191e-07
3.64704e-06
2.29532e-06
9.35124e-07
5.6496e-06
5.65135e-06
1.41714e-06
5.65059e-06
5.65236e-06
1.90587e-05
1.90692e-05
1.9062e-05
1.90724e-05
5.6452e-06
5.64695e-06
1.41442e-06
5.64627e-06
5.64803e-06
1.90802e-05
1.90698e-05
1.90834e-05
1.90731e-05
1.41661e-06
5.64844e-06
5.65021e-06
5.64742e-06
5.64916e-06
4.23627e-06
9.54987e-06
9.55504e-06
4.2356e-06
2.29395e-06
3.64432e-06
9.29826e-07
1.18377e-06
3.64479e-06
9.30939e-07
2.29368e-06
2.29391e-06
3.64472e-06
9.29751e-07
1.18368e-06
3.64516e-06
9.30885e-07
2.29358e-06
4.23702e-06
9.56046e-06
9.55573e-06
4.23761e-06
4.23694e-06
9.56082e-06
9.55574e-06
4.23757e-06
2.29452e-06
1.18455e-06
3.64605e-06
9.3305e-07
3.64562e-06
9.32019e-07
2.29474e-06
2.29443e-06
1.1844e-06
3.64642e-06
9.32999e-07
3.64603e-06
9.31942e-07
2.29469e-06
5.64676e-06
5.6454e-06
1.41437e-06
5.64775e-06
5.64649e-06
1.90601e-05
1.90706e-05
1.90826e-05
1.90721e-05
1.41663e-06
5.64993e-06
5.64867e-06
5.64899e-06
5.64762e-06
1.90816e-05
1.90712e-05
2.29397e-06
3.64485e-06
9.29812e-07
1.18358e-06
3.64534e-06
9.30919e-07
2.2937e-06
4.23632e-06
9.55086e-06
9.55564e-06
4.23568e-06
2.29391e-06
9.2985e-07
3.64475e-06
1.18376e-06
9.30958e-07
3.64525e-06
2.29364e-06
4.2371e-06
9.56183e-06
9.55712e-06
4.23766e-06
2.29454e-06
1.18437e-06
3.6466e-06
9.33029e-07
3.64615e-06
9.32006e-07
2.29475e-06
4.23702e-06
9.56143e-06
9.55672e-06
4.2376e-06
2.29448e-06
1.18455e-06
9.33067e-07
3.64651e-06
9.32045e-07
3.64606e-06
2.2947e-06
4.2365e-06
9.5505e-06
9.55567e-06
4.23592e-06
2.29397e-06
9.29896e-07
3.6444e-06
1.18374e-06
9.30989e-07
3.64488e-06
2.29369e-06
4.23636e-06
9.55058e-06
9.55536e-06
4.23574e-06
2.29455e-06
1.18444e-06
3.64623e-06
9.3309e-07
3.64581e-06
9.32039e-07
2.29481e-06
4.23724e-06
9.56144e-06
9.55637e-06
4.23779e-06
2.29453e-06
1.18463e-06
9.33094e-07
3.64615e-06
9.32091e-07
3.64571e-06
2.29475e-06
4.23707e-06
9.56118e-06
9.55644e-06
4.23766e-06
5.64674e-06
5.64537e-06
1.41449e-06
5.64787e-06
5.64645e-06
1.90599e-05
1.90704e-05
1.90839e-05
1.90736e-05
1.41668e-06
5.65004e-06
5.64863e-06
5.64896e-06
5.64759e-06
1.90814e-05
1.90711e-05
2.29397e-06
9.2989e-07
3.6449e-06
1.18364e-06
9.30986e-07
3.64538e-06
2.29365e-06
4.23649e-06
9.55065e-06
9.55582e-06
4.2359e-06
4.23644e-06
9.5513e-06
9.55609e-06
4.23592e-06
2.29456e-06
1.18455e-06
9.33178e-07
3.64625e-06
9.32161e-07
3.64581e-06
2.29483e-06
2.29448e-06
1.1844e-06
9.33093e-07
3.64664e-06
9.32082e-07
3.6462e-06
2.29475e-06
4.23723e-06
9.56155e-06
9.55652e-06
4.23779e-06
4.23725e-06
9.56187e-06
9.55716e-06
4.23774e-06
1.90609e-05
1.90714e-05
1.90632e-05
1.90737e-05
1.41672e-06
5.6485e-06
5.65025e-06
5.64747e-06
5.6492e-06
1.90824e-05
1.90721e-05
1.90847e-05
1.90744e-05
1.90808e-05
1.90841e-05
5.64957e-06
5.65131e-06
9.56149e-06
4.23822e-06
3.64685e-06
9.34049e-07
2.29526e-06
3.64727e-06
9.33972e-07
2.29518e-06
5.65114e-06
5.64977e-06
1.90822e-05
3.64738e-06
9.34033e-07
2.29528e-06
9.56244e-06
4.23829e-06
9.34073e-07
3.64729e-06
2.29523e-06
4.23901e-06
9.56212e-06
4.23851e-06
2.29546e-06
9.34121e-07
3.64693e-06
1.18657e-06
2.29528e-06
9.35027e-07
3.64731e-06
4.23888e-06
9.56211e-06
4.23834e-06
9.56698e-06
5.65112e-06
5.64973e-06
1.90821e-05
2.29544e-06
9.34112e-07
3.64743e-06
1.18656e-06
2.29524e-06
9.35038e-07
3.64782e-06
4.23901e-06
9.56242e-06
4.2385e-06
4.23896e-06
9.56289e-06
4.23852e-06
9.56749e-06
1.90831e-05
1.90933e-05
1.90854e-05
1.90956e-05
1.26407e-05
1.12333e-05
4.88179e-06
4.23637e-06
1.12311e-05
4.88188e-06
1.26432e-05
2.27383e-05
9.55179e-06
7.23921e-06
7.23903e-06
2.27313e-05
2.27378e-05
7.2403e-06
9.55282e-06
7.2405e-06
2.27447e-05
1.26393e-05
4.23563e-06
1.12276e-05
4.88113e-06
1.12299e-05
4.88104e-06
1.26368e-05
1.9066e-05
1.90666e-05
1.26401e-05
4.8818e-06
1.12335e-05
4.23644e-06
4.88186e-06
1.12313e-05
1.26438e-05
2.2738e-05
9.55313e-06
7.23922e-06
7.23903e-06
2.27311e-05
2.27375e-05
7.2403e-06
9.55419e-06
7.2405e-06
2.27444e-05
1.26399e-05
4.23569e-06
4.88111e-06
1.12277e-05
4.88107e-06
1.123e-05
1.26362e-05
1.90673e-05
1.9068e-05
9.95762e-06
2.2374e-05
2.23733e-05
2.23677e-05
2.2367e-05
9.95731e-06
4.7006e-06
2.97316e-06
5.64521e-06
9.91435e-06
2.97298e-06
9.91624e-06
4.70094e-06
4.7064e-06
2.97433e-06
5.64695e-06
9.91913e-06
2.97416e-06
9.92103e-06
4.7067e-06
4.70165e-06
9.91917e-06
5.64636e-06
2.9734e-06
2.97358e-06
9.91729e-06
4.70131e-06
4.70742e-06
9.92395e-06
5.6481e-06
2.97458e-06
2.97475e-06
9.92208e-06
4.70711e-06
9.95551e-06
2.23619e-05
2.23612e-05
2.23681e-05
2.23674e-05
9.95581e-06
2.27638e-05
7.24427e-06
9.56335e-06
2.27569e-05
7.24406e-06
1.26545e-05
4.23823e-06
1.12416e-05
4.88402e-06
1.26521e-05
1.12437e-05
4.88391e-06
1.90881e-05
2.27634e-05
7.24427e-06
9.56459e-06
2.27566e-05
7.24405e-06
1.2655e-05
4.23828e-06
4.884e-06
1.12418e-05
1.26515e-05
4.88391e-06
1.1244e-05
1.90894e-05
9.96471e-06
2.23969e-05
2.23962e-05
2.23907e-05
2.239e-05
9.96434e-06
4.70331e-06
2.97471e-06
9.92603e-06
5.64956e-06
4.70369e-06
2.97451e-06
9.92784e-06
4.70909e-06
2.97588e-06
9.93081e-06
5.65131e-06
4.70945e-06
2.9757e-06
9.93262e-06
9.96261e-06
2.2385e-05
2.23843e-05
9.96297e-06
2.23912e-05
2.23905e-05
4.70431e-06
9.93057e-06
5.65064e-06
2.97485e-06
2.97504e-06
9.92882e-06
4.70395e-06
4.7101e-06
9.9354e-06
5.6524e-06
2.97603e-06
2.97622e-06
9.93364e-06
4.70974e-06
1.90636e-05
1.90643e-05
1.90668e-05
1.90675e-05
9.95765e-06
2.23734e-05
2.23727e-05
2.23672e-05
2.23664e-05
9.95733e-06
4.70047e-06
2.9731e-06
5.64516e-06
9.91367e-06
9.91624e-06
2.97292e-06
4.70084e-06
4.70626e-06
2.97424e-06
5.64692e-06
9.91911e-06
9.921e-06
2.97406e-06
4.70662e-06
4.70155e-06
9.91917e-06
5.64632e-06
2.97333e-06
9.91664e-06
4.70118e-06
2.97352e-06
4.70733e-06
9.92393e-06
5.64806e-06
2.97447e-06
9.92205e-06
4.70697e-06
2.97466e-06
9.95552e-06
2.23613e-05
2.23606e-05
2.23676e-05
2.23669e-05
9.95584e-06
1.90754e-05
1.90747e-05
1.90786e-05
1.90779e-05
9.95912e-06
2.2373e-05
2.23723e-05
9.95945e-06
2.23792e-05
2.23785e-05
4.70293e-06
2.9741e-06
5.6485e-06
9.92499e-06
9.92245e-06
2.9743e-06
4.70254e-06
4.70871e-06
2.97525e-06
5.65025e-06
9.92974e-06
9.92791e-06
2.97544e-06
4.70833e-06
4.70187e-06
9.91959e-06
2.97392e-06
5.64736e-06
4.70225e-06
9.92207e-06
2.97373e-06
4.70766e-06
9.92501e-06
2.97506e-06
5.64913e-06
4.70803e-06
9.92691e-06
2.97487e-06
9.96124e-06
2.2385e-05
2.23842e-05
2.23787e-05
2.2378e-05
9.9609e-06
1.26403e-05
1.12336e-05
4.88169e-06
4.23628e-06
1.12306e-05
4.88171e-06
1.26439e-05
2.27386e-05
9.55212e-06
7.23789e-06
7.23774e-06
2.27317e-05
2.27382e-05
7.23901e-06
9.55282e-06
7.23918e-06
2.27451e-05
1.264e-05
4.2356e-06
1.12272e-05
4.88096e-06
1.12301e-05
4.88094e-06
1.26363e-05
1.2647e-05
1.12346e-05
4.88261e-06
4.23697e-06
1.26445e-05
1.12369e-05
4.88251e-06
2.27506e-05
9.55863e-06
7.24282e-06
2.27574e-05
7.24303e-06
2.27511e-05
7.24177e-06
9.55761e-06
2.27442e-05
7.24157e-06
1.26483e-05
4.23766e-06
1.12404e-05
4.88322e-06
1.26508e-05
1.12381e-05
4.88332e-06
1.26477e-05
1.12342e-05
4.88244e-06
4.23693e-06
1.26441e-05
1.12371e-05
4.88241e-06
2.2751e-05
9.55862e-06
7.24154e-06
7.24171e-06
2.27578e-05
2.27515e-05
7.24045e-06
9.55793e-06
2.27446e-05
7.24028e-06
1.26479e-05
4.23759e-06
1.12406e-05
4.88313e-06
1.12377e-05
4.88316e-06
1.26515e-05
9.95774e-06
2.23732e-05
2.23738e-05
2.2367e-05
2.23675e-05
9.95739e-06
4.70636e-06
2.97419e-06
5.64664e-06
9.91843e-06
9.92098e-06
2.97402e-06
4.70667e-06
4.70056e-06
2.97318e-06
5.64538e-06
9.91454e-06
2.97299e-06
9.91647e-06
4.70091e-06
4.70739e-06
9.92392e-06
5.64788e-06
2.97444e-06
9.9214e-06
2.97461e-06
4.70707e-06
4.70163e-06
9.91952e-06
5.64652e-06
2.97341e-06
2.9736e-06
9.91734e-06
4.70127e-06
9.95558e-06
2.23611e-05
2.23617e-05
2.23674e-05
2.2368e-05
9.95592e-06
1.9065e-05
1.90657e-05
1.90777e-05
1.90771e-05
9.95918e-06
2.23728e-05
2.23733e-05
9.95954e-06
2.2379e-05
2.23796e-05
4.70878e-06
2.97521e-06
5.65007e-06
9.92974e-06
2.9754e-06
9.92721e-06
4.70843e-06
4.70301e-06
2.97418e-06
5.6487e-06
9.92546e-06
9.92295e-06
2.97438e-06
4.70263e-06
4.70776e-06
9.92435e-06
2.97502e-06
5.64885e-06
2.97484e-06
4.70809e-06
9.92681e-06
4.70196e-06
9.92011e-06
2.974e-06
5.64759e-06
4.70233e-06
9.92256e-06
2.9738e-06
9.96133e-06
2.23848e-05
2.23854e-05
2.23785e-05
2.23791e-05
9.96096e-06
1.90767e-05
1.90761e-05
1.26403e-05
1.12336e-05
4.88161e-06
4.23636e-06
1.1231e-05
4.88167e-06
1.26439e-05
2.27378e-05
9.55273e-06
7.23758e-06
7.23738e-06
2.27309e-05
2.27374e-05
7.23866e-06
9.55378e-06
7.23885e-06
2.27443e-05
1.264e-05
4.23565e-06
1.12274e-05
4.88094e-06
1.12302e-05
4.88088e-06
1.26363e-05
1.26476e-05
4.88259e-06
1.12348e-05
4.237e-06
1.2644e-05
4.88252e-06
1.1237e-05
2.27503e-05
9.56e-06
7.24282e-06
2.27571e-05
7.24303e-06
2.27508e-05
7.24177e-06
9.55898e-06
2.27439e-05
7.24157e-06
1.26478e-05
4.23772e-06
4.88322e-06
1.12405e-05
1.26513e-05
4.8833e-06
1.12383e-05
1.26477e-05
1.12347e-05
4.8824e-06
4.23697e-06
1.26441e-05
1.1237e-05
4.88234e-06
2.27502e-05
9.55963e-06
7.24119e-06
7.24139e-06
2.2757e-05
2.27507e-05
7.24013e-06
9.55859e-06
2.27438e-05
7.23993e-06
1.2648e-05
4.23766e-06
1.12404e-05
4.88305e-06
1.12382e-05
4.88312e-06
1.26515e-05
1.26398e-05
4.8818e-06
1.12338e-05
4.23659e-06
4.88201e-06
1.12308e-05
1.26432e-05
2.27371e-05
9.55275e-06
7.23906e-06
7.23867e-06
2.27299e-05
2.27364e-05
7.23995e-06
9.55345e-06
7.24034e-06
2.27436e-05
1.26392e-05
4.23583e-06
4.88127e-06
1.12274e-05
4.88106e-06
1.12303e-05
1.26362e-05
1.26407e-05
1.12333e-05
4.88161e-06
4.23641e-06
1.12311e-05
4.8817e-06
1.26432e-05
2.27379e-05
9.55246e-06
7.23743e-06
7.23725e-06
2.2731e-05
2.27374e-05
7.23852e-06
9.55351e-06
7.23872e-06
2.27443e-05
1.26394e-05
4.23569e-06
1.12275e-05
4.88096e-06
1.12298e-05
4.88086e-06
1.26369e-05
1.2647e-05
4.88274e-06
1.12344e-05
4.23715e-06
1.26435e-05
4.88252e-06
1.12373e-05
2.27492e-05
9.55926e-06
7.24247e-06
7.24287e-06
2.27563e-05
2.27499e-05
7.24161e-06
9.55856e-06
2.27428e-05
7.24122e-06
1.26472e-05
4.23788e-06
4.88323e-06
1.12408e-05
4.88345e-06
1.12379e-05
1.26508e-05
1.2647e-05
1.12346e-05
4.88243e-06
4.23702e-06
1.26445e-05
1.12368e-05
4.88233e-06
2.27502e-05
9.55933e-06
7.24104e-06
7.24125e-06
2.27571e-05
2.27507e-05
7.23999e-06
9.55832e-06
2.27439e-05
7.23979e-06
1.26484e-05
4.23772e-06
1.12403e-05
4.88304e-06
1.12381e-05
4.88314e-06
1.26509e-05
9.9572e-06
2.23726e-05
2.2373e-05
2.23663e-05
2.23668e-05
9.95686e-06
4.7063e-06
2.97422e-06
5.64676e-06
9.91838e-06
9.92092e-06
2.97409e-06
4.70661e-06
4.70037e-06
2.97313e-06
5.64534e-06
9.91371e-06
2.97296e-06
9.91625e-06
4.70069e-06
4.70733e-06
9.92386e-06
5.64786e-06
2.9745e-06
9.92136e-06
2.97464e-06
4.70701e-06
4.70141e-06
9.91918e-06
5.64649e-06
2.97338e-06
2.97355e-06
9.91668e-06
4.70108e-06
9.95505e-06
2.23605e-05
2.23609e-05
2.23668e-05
2.23672e-05
9.95538e-06
1.90648e-05
1.90655e-05
1.90791e-05
1.90784e-05
9.95865e-06
2.23722e-05
2.23726e-05
9.959e-06
2.23784e-05
2.23788e-05
4.70871e-06
2.97528e-06
5.65004e-06
9.92965e-06
2.97542e-06
9.92716e-06
4.70837e-06
4.70279e-06
2.97415e-06
5.64868e-06
9.92498e-06
9.92248e-06
2.97434e-06
4.70245e-06
4.7077e-06
9.9243e-06
2.97504e-06
5.64897e-06
2.9749e-06
4.70803e-06
9.92677e-06
4.70178e-06
9.91963e-06
2.97396e-06
5.64755e-06
4.70211e-06
9.9221e-06
2.97377e-06
9.96079e-06
2.23841e-05
2.23846e-05
2.23779e-05
2.23783e-05
9.96043e-06
1.90766e-05
1.9076e-05
1.26405e-05
4.88183e-06
1.12337e-05
4.23657e-06
4.88187e-06
1.12307e-05
1.2643e-05
2.27373e-05
9.5529e-06
7.23882e-06
7.23866e-06
2.27303e-05
2.27368e-05
7.23994e-06
9.5536e-06
7.24011e-06
2.27437e-05
1.26391e-05
4.23582e-06
4.88113e-06
1.12273e-05
4.88108e-06
1.12302e-05
1.26366e-05
1.26408e-05
4.88168e-06
1.12335e-05
4.23659e-06
4.88185e-06
1.12305e-05
1.26433e-05
2.27389e-05
9.55318e-06
7.23789e-06
7.23769e-06
2.27319e-05
2.27384e-05
7.23896e-06
9.55422e-06
7.23917e-06
2.27453e-05
1.26395e-05
4.23577e-06
4.88111e-06
1.12271e-05
4.88094e-06
1.123e-05
1.2637e-05
1.26468e-05
4.8826e-06
1.12343e-05
4.23715e-06
1.26443e-05
4.88255e-06
1.12372e-05
2.27496e-05
9.55944e-06
7.24246e-06
7.24265e-06
2.27564e-05
2.27501e-05
7.24139e-06
9.5587e-06
2.27432e-05
7.24121e-06
1.26481e-05
4.23788e-06
4.88326e-06
1.12407e-05
4.88332e-06
1.12378e-05
1.26506e-05
1.26472e-05
4.88258e-06
1.12341e-05
4.2371e-06
1.26446e-05
4.8824e-06
1.12371e-05
2.27511e-05
9.56006e-06
7.24148e-06
7.2417e-06
2.2758e-05
2.27517e-05
7.24044e-06
9.55903e-06
2.27448e-05
7.24023e-06
1.26485e-05
4.23789e-06
4.88312e-06
1.12405e-05
4.88329e-06
1.12376e-05
1.2651e-05
1.90658e-05
1.90665e-05
1.90681e-05
1.90688e-05
9.9591e-06
2.23735e-05
2.23728e-05
9.95942e-06
2.23797e-05
2.2379e-05
4.70303e-06
2.97417e-06
5.64853e-06
9.925e-06
4.70268e-06
2.97434e-06
9.92314e-06
4.7088e-06
2.97536e-06
5.65028e-06
9.92978e-06
4.70847e-06
2.97553e-06
9.92793e-06
4.702e-06
9.92025e-06
2.97398e-06
5.64744e-06
4.70235e-06
2.9738e-06
9.92215e-06
4.7078e-06
9.92503e-06
2.97515e-06
5.64917e-06
4.70811e-06
2.97497e-06
9.92693e-06
9.9612e-06
2.23855e-05
2.23848e-05
9.96088e-06
2.23793e-05
2.23786e-05
1.90776e-05
1.90769e-05
1.90799e-05
1.90792e-05
1.90857e-05
1.90889e-05
4.7032e-06
2.97467e-06
9.92533e-06
5.64951e-06
4.7036e-06
9.92791e-06
2.97446e-06
4.70899e-06
2.9758e-06
9.93069e-06
5.65128e-06
4.70937e-06
9.93273e-06
2.9756e-06
9.96266e-06
2.23845e-05
2.23838e-05
9.96301e-06
2.23907e-05
2.239e-05
2.27641e-05
7.24296e-06
9.56371e-06
2.27573e-05
7.24278e-06
1.26554e-05
4.23819e-06
1.12411e-05
4.88386e-06
1.12441e-05
1.26517e-05
4.88383e-06
4.70909e-06
2.97576e-06
9.93009e-06
5.651e-06
9.93266e-06
4.70944e-06
2.97557e-06
4.7033e-06
2.97474e-06
9.92592e-06
5.64974e-06
2.97455e-06
4.70368e-06
9.92829e-06
9.96272e-06
2.23843e-05
2.23848e-05
2.23905e-05
9.9631e-06
2.23911e-05
2.27633e-05
7.24264e-06
9.5643e-06
2.27565e-05
7.24244e-06
1.26553e-05
4.23822e-06
1.12417e-05
4.88382e-06
1.12439e-05
1.26518e-05
4.88375e-06
1.26553e-05
4.23911e-06
1.12477e-05
4.88485e-06
1.12447e-05
2.27626e-05
7.24411e-06
9.56431e-06
7.2437e-06
2.27555e-05
1.26547e-05
4.23841e-06
4.88415e-06
1.12413e-05
4.88392e-06
1.26512e-05
1.12442e-05
2.27618e-05
1.26559e-05
4.23894e-06
1.12471e-05
4.88442e-06
1.1245e-05
4.88453e-06
1.26587e-05
2.27634e-05
7.2425e-06
9.56409e-06
2.27566e-05
7.24228e-06
1.26547e-05
4.23828e-06
1.12415e-05
4.88384e-06
1.26521e-05
1.12438e-05
4.88374e-06
2.27629e-05
7.24351e-06
9.56479e-06
7.24373e-06
2.27697e-05
4.70903e-06
2.97578e-06
9.93009e-06
5.65111e-06
9.93251e-06
4.70938e-06
2.97562e-06
4.70311e-06
2.97469e-06
9.92536e-06
5.64972e-06
2.97451e-06
4.70344e-06
9.92781e-06
9.96219e-06
2.23837e-05
2.23841e-05
2.23899e-05
9.96256e-06
2.23903e-05
1.90869e-05
1.26556e-05
4.23911e-06
4.88463e-06
1.12476e-05
4.8847e-06
1.12446e-05
1.26581e-05
2.27628e-05
7.2439e-06
9.56428e-06
7.2437e-06
2.27559e-05
1.26544e-05
4.2384e-06
4.88401e-06
1.12412e-05
4.88396e-06
1.26518e-05
1.12441e-05
2.27622e-05
7.24492e-06
7.24513e-06
2.2769e-05
1.26559e-05
4.23913e-06
4.8845e-06
1.12474e-05
4.88468e-06
1.12444e-05
1.26587e-05
2.27643e-05
7.24295e-06
9.56471e-06
2.27575e-05
7.24272e-06
1.26548e-05
4.23836e-06
4.88399e-06
1.1241e-05
1.26522e-05
4.88382e-06
1.12439e-05
2.27638e-05
7.24395e-06
9.56574e-06
7.24418e-06
2.27706e-05
1.90878e-05
1.90885e-05
1.90902e-05
1.90908e-05
4.41759e-07
4.41704e-07
6.53434e-07
4.43652e-07
4.43586e-07
2.35631e-07
2.33701e-07
2.8269e-06
1.96716e-06
1.96739e-06
1.41369e-06
1.96646e-06
1.96669e-06
2.82721e-06
4.49133e-07
4.49072e-07
2.43232e-07
2.41359e-07
2.82817e-06
1.96866e-06
1.96889e-06
1.41658e-06
2.82851e-06
1.96793e-06
1.96816e-06
2.82684e-06
1.96713e-06
1.96734e-06
1.41365e-06
1.96646e-06
1.96666e-06
2.82715e-06
2.82817e-06
1.41733e-06
1.96761e-06
1.9678e-06
1.9683e-06
1.96851e-06
2.82785e-06
2.82687e-06
1.96726e-06
1.9672e-06
1.41361e-06
1.9665e-06
1.96655e-06
2.8272e-06
2.82822e-06
1.41733e-06
1.96772e-06
1.96765e-06
1.96843e-06
1.96836e-06
2.82788e-06
2.82684e-06
1.9673e-06
1.9672e-06
1.41373e-06
1.96652e-06
1.96661e-06
2.82714e-06
2.82816e-06
1.4174e-06
1.96776e-06
1.96766e-06
1.96846e-06
1.96837e-06
2.82785e-06
2.82823e-06
1.41743e-06
1.96761e-06
1.96784e-06
2.82792e-06
1.96832e-06
1.96855e-06
2.82815e-06
1.96865e-06
1.96885e-06
1.41654e-06
2.82847e-06
1.96795e-06
1.96814e-06
2.82818e-06
1.96877e-06
1.9687e-06
1.41653e-06
1.96799e-06
2.82852e-06
1.96806e-06
2.82814e-06
1.96881e-06
1.96871e-06
1.41661e-06
1.968e-06
2.82846e-06
1.96809e-06
4.41741e-07
4.41734e-07
6.53441e-07
4.43644e-07
4.43611e-07
2.35638e-07
2.33709e-07
4.41848e-07
4.41835e-07
6.53564e-07
4.43728e-07
4.43725e-07
2.35709e-07
2.33779e-07
4.41878e-07
4.41797e-07
6.53524e-07
4.43735e-07
4.43717e-07
2.35719e-07
2.33779e-07
6.54993e-07
4.47337e-07
4.4727e-07
4.45515e-07
4.4546e-07
2.37557e-07
2.3946e-07
6.54974e-07
4.4733e-07
4.47295e-07
4.45496e-07
4.45492e-07
2.37565e-07
2.39467e-07
6.55131e-07
4.4741e-07
4.47409e-07
4.45604e-07
4.4559e-07
2.37636e-07
2.39538e-07
6.55113e-07
4.47416e-07
4.47407e-07
4.45638e-07
4.45547e-07
2.37634e-07
2.3955e-07
1.66434e-06
2.53951e-06
1.54155e-06
2.29414e-06
2.53972e-06
1.5424e-06
1.66307e-06
1.84156e-06
2.22243e-06
3.64432e-06
3.02095e-06
2.22194e-06
3.02057e-06
1.84266e-06
1.84317e-06
3.02104e-06
3.64516e-06
2.22229e-06
2.22279e-06
3.02142e-06
1.8421e-06
1.66252e-06
2.29361e-06
2.53932e-06
1.54182e-06
2.53911e-06
1.54098e-06
1.66384e-06
1.6644e-06
1.5416e-06
2.53958e-06
2.29415e-06
1.54243e-06
2.53978e-06
1.66323e-06
1.84165e-06
2.22243e-06
3.64433e-06
3.02095e-06
2.22196e-06
3.02063e-06
1.84272e-06
1.84323e-06
3.02111e-06
3.64516e-06
2.22232e-06
2.2228e-06
3.02143e-06
1.8422e-06
1.66273e-06
2.29362e-06
1.54185e-06
2.53937e-06
1.54102e-06
2.53918e-06
1.66389e-06
2.82757e-06
1.41597e-06
1.96687e-06
1.96709e-06
1.96757e-06
1.9678e-06
2.82726e-06
4.49115e-07
4.49111e-07
4.50838e-07
2.4324e-07
2.41367e-07
4.49217e-07
4.49205e-07
4.50958e-07
2.43311e-07
2.41438e-07
4.49257e-07
4.49156e-07
6.59527e-07
4.5095e-07
4.50974e-07
2.43324e-07
2.41435e-07
1.66602e-06
2.29564e-06
2.5409e-06
1.54357e-06
2.54111e-06
1.54442e-06
1.66485e-06
1.84356e-06
2.22376e-06
3.02274e-06
3.64684e-06
1.84453e-06
2.22323e-06
3.02236e-06
1.66449e-06
2.29517e-06
2.5408e-06
1.54396e-06
1.66565e-06
2.54057e-06
1.5431e-06
1.66613e-06
2.29566e-06
1.54361e-06
2.54096e-06
1.54446e-06
2.54117e-06
1.66496e-06
1.84362e-06
2.22377e-06
3.02275e-06
3.64685e-06
1.84466e-06
2.22325e-06
3.02242e-06
1.66459e-06
2.29519e-06
1.544e-06
2.54086e-06
1.66575e-06
1.54316e-06
2.54065e-06
1.8451e-06
3.02282e-06
3.02315e-06
1.84401e-06
2.8288e-06
1.41875e-06
1.96822e-06
1.96844e-06
1.96897e-06
1.96919e-06
2.82846e-06
2.82751e-06
1.41587e-06
1.96687e-06
1.96706e-06
2.8272e-06
1.96754e-06
1.96776e-06
2.82754e-06
1.41515e-06
1.96793e-06
1.96815e-06
2.82785e-06
1.96725e-06
1.96744e-06
1.66442e-06
2.53952e-06
1.54146e-06
2.29411e-06
2.53975e-06
1.5424e-06
1.66285e-06
1.84148e-06
2.22236e-06
3.64413e-06
3.02098e-06
3.02059e-06
2.22188e-06
1.84273e-06
1.84327e-06
3.02106e-06
3.64498e-06
2.22224e-06
3.02146e-06
2.22273e-06
1.84195e-06
1.66243e-06
2.29353e-06
2.53935e-06
1.54182e-06
2.53913e-06
1.54088e-06
1.66388e-06
1.66422e-06
2.53937e-06
1.54144e-06
2.29402e-06
2.53955e-06
1.54231e-06
1.66293e-06
1.84141e-06
2.22257e-06
3.6445e-06
3.02064e-06
3.02031e-06
2.22208e-06
1.84253e-06
1.84304e-06
3.02078e-06
3.64539e-06
2.22244e-06
3.02112e-06
1.84196e-06
2.22293e-06
1.66236e-06
2.29348e-06
2.53915e-06
1.54173e-06
2.53897e-06
1.54085e-06
1.66372e-06
1.6632e-06
2.54013e-06
1.54296e-06
2.29436e-06
1.665e-06
2.53989e-06
1.542e-06
1.84442e-06
2.22287e-06
3.64625e-06
3.02195e-06
2.22339e-06
3.02236e-06
1.84272e-06
1.84236e-06
3.02192e-06
2.22307e-06
3.64543e-06
2.22256e-06
1.84382e-06
3.02152e-06
1.66566e-06
2.2949e-06
2.54025e-06
1.54253e-06
2.54049e-06
1.54348e-06
1.66358e-06
1.66347e-06
2.53994e-06
1.54285e-06
2.29431e-06
1.66468e-06
2.53974e-06
1.54199e-06
1.844e-06
2.22308e-06
3.64666e-06
3.02168e-06
3.02202e-06
2.2236e-06
1.84302e-06
1.84251e-06
3.02158e-06
2.22328e-06
3.6458e-06
1.84353e-06
3.02124e-06
2.22277e-06
1.66511e-06
2.29482e-06
2.54011e-06
1.54251e-06
2.5403e-06
1.54337e-06
1.66394e-06
2.82756e-06
1.41589e-06
1.96696e-06
1.9669e-06
1.96761e-06
1.96768e-06
2.82723e-06
2.82757e-06
1.41512e-06
1.96807e-06
1.968e-06
1.96735e-06
2.8279e-06
1.96729e-06
1.66432e-06
2.53952e-06
1.54145e-06
2.29413e-06
2.53974e-06
1.5424e-06
1.66298e-06
1.84154e-06
2.22268e-06
3.64469e-06
3.02106e-06
3.0207e-06
2.22219e-06
1.84267e-06
1.84318e-06
3.02116e-06
3.64551e-06
2.22255e-06
3.02153e-06
2.22304e-06
1.84204e-06
1.66246e-06
2.29354e-06
2.53933e-06
1.54181e-06
2.53913e-06
1.54087e-06
1.66382e-06
1.66462e-06
1.5414e-06
2.53938e-06
2.29408e-06
1.54238e-06
2.53958e-06
1.66263e-06
1.84134e-06
2.22262e-06
3.64459e-06
3.02066e-06
3.02029e-06
2.22214e-06
1.84263e-06
1.8432e-06
3.02077e-06
3.64541e-06
2.2225e-06
3.02112e-06
1.8418e-06
2.22298e-06
1.66217e-06
2.29348e-06
1.54179e-06
2.53919e-06
1.54082e-06
2.53899e-06
1.66397e-06
1.66344e-06
2.54011e-06
1.54295e-06
2.29437e-06
1.66479e-06
2.53989e-06
1.542e-06
1.84416e-06
2.22319e-06
3.64678e-06
3.02204e-06
2.2237e-06
3.02243e-06
1.84286e-06
1.84248e-06
3.02199e-06
2.22338e-06
3.64598e-06
2.22288e-06
1.84367e-06
3.02161e-06
1.66521e-06
2.29492e-06
2.54024e-06
1.5425e-06
2.54046e-06
1.54347e-06
1.66372e-06
1.66306e-06
1.54294e-06
2.53996e-06
2.29432e-06
1.66512e-06
1.54196e-06
2.53976e-06
1.8444e-06
2.22315e-06
3.64668e-06
3.02165e-06
3.02202e-06
2.22365e-06
1.84268e-06
1.84221e-06
3.02158e-06
2.22332e-06
3.64589e-06
1.84378e-06
3.02122e-06
2.22283e-06
1.66564e-06
2.29487e-06
1.54247e-06
2.54011e-06
1.54346e-06
2.54032e-06
1.66359e-06
1.6643e-06
1.54151e-06
2.53939e-06
2.29412e-06
1.54238e-06
2.53961e-06
1.66286e-06
1.84136e-06
2.22237e-06
3.64422e-06
3.02057e-06
2.22188e-06
3.02018e-06
1.84262e-06
1.84316e-06
3.02065e-06
3.64507e-06
2.22224e-06
2.22273e-06
3.02104e-06
1.84183e-06
1.6624e-06
2.29354e-06
1.5418e-06
2.53921e-06
1.54094e-06
2.539e-06
1.66379e-06
1.6636e-06
2.5401e-06
1.54295e-06
2.29443e-06
1.6648e-06
2.53988e-06
1.5421e-06
1.84411e-06
2.22294e-06
3.64643e-06
3.02194e-06
1.84314e-06
2.22345e-06
3.02232e-06
1.84263e-06
3.02188e-06
2.22313e-06
3.64561e-06
1.84365e-06
2.22263e-06
3.02149e-06
1.66523e-06
2.29494e-06
2.54023e-06
1.54261e-06
1.66406e-06
2.54046e-06
1.54347e-06
1.66323e-06
1.54293e-06
2.53999e-06
2.29437e-06
1.66482e-06
1.54205e-06
2.53977e-06
1.84431e-06
2.22288e-06
3.64633e-06
3.02155e-06
3.02195e-06
2.22339e-06
1.84261e-06
1.84224e-06
3.0215e-06
2.22307e-06
3.64553e-06
1.84371e-06
3.02111e-06
2.22257e-06
1.66543e-06
2.29492e-06
1.54256e-06
2.54012e-06
1.54345e-06
2.54035e-06
1.66355e-06
2.8275e-06
1.41594e-06
1.96702e-06
1.96692e-06
1.96762e-06
1.96771e-06
2.82719e-06
2.82753e-06
1.41522e-06
1.9681e-06
1.96801e-06
1.9674e-06
2.82784e-06
1.96731e-06
1.66433e-06
1.5415e-06
2.53938e-06
2.29408e-06
1.54237e-06
2.53961e-06
1.66278e-06
1.84137e-06
2.2227e-06
3.64473e-06
3.02073e-06
2.2222e-06
3.02036e-06
1.84265e-06
1.8432e-06
3.02083e-06
3.64556e-06
2.22257e-06
2.22306e-06
3.02121e-06
1.84184e-06
1.66236e-06
2.29354e-06
1.54179e-06
2.53921e-06
1.54093e-06
2.53899e-06
1.6638e-06
1.66367e-06
1.54298e-06
2.54016e-06
2.29445e-06
1.66486e-06
1.54214e-06
2.53996e-06
1.84418e-06
2.22296e-06
3.64643e-06
3.022e-06
1.84319e-06
2.22347e-06
3.02233e-06
1.84273e-06
3.02188e-06
2.22314e-06
3.64563e-06
1.84372e-06
2.22265e-06
3.02156e-06
1.66529e-06
2.29495e-06
1.54266e-06
2.54032e-06
1.66414e-06
1.54351e-06
2.54052e-06
1.66314e-06
1.54291e-06
2.53999e-06
2.29437e-06
1.66489e-06
1.54204e-06
2.53975e-06
1.84437e-06
2.22321e-06
3.64683e-06
3.02172e-06
3.02211e-06
2.22373e-06
1.84264e-06
1.84225e-06
3.02167e-06
2.2234e-06
3.64602e-06
1.84377e-06
3.02128e-06
2.2229e-06
1.66553e-06
2.29487e-06
1.54255e-06
2.54011e-06
1.54344e-06
2.54035e-06
1.66355e-06
2.8276e-06
1.4152e-06
1.96796e-06
1.96819e-06
2.82791e-06
1.96725e-06
1.96747e-06
1.84299e-06
2.22369e-06
3.02279e-06
3.64665e-06
3.02237e-06
1.84507e-06
2.22316e-06
1.66386e-06
2.29509e-06
2.54083e-06
1.54397e-06
2.54059e-06
1.66623e-06
1.54304e-06
1.84344e-06
2.2239e-06
3.02245e-06
3.64702e-06
1.84442e-06
3.02211e-06
2.22338e-06
1.66435e-06
2.29505e-06
2.54064e-06
1.54387e-06
1.66552e-06
2.54045e-06
1.54301e-06
1.84322e-06
2.224e-06
3.02285e-06
3.6472e-06
3.02245e-06
1.84472e-06
2.22347e-06
1.66405e-06
2.29511e-06
2.5408e-06
1.54397e-06
2.54057e-06
1.66585e-06
1.54299e-06
1.84315e-06
2.22395e-06
3.02244e-06
3.64711e-06
1.84482e-06
3.02208e-06
2.22343e-06
1.66405e-06
2.29506e-06
1.54395e-06
2.54065e-06
1.666e-06
1.54297e-06
2.54045e-06
1.66666e-06
2.29562e-06
1.5435e-06
2.54076e-06
1.54442e-06
2.54101e-06
1.66403e-06
1.84294e-06
2.22368e-06
3.02237e-06
3.64674e-06
2.22315e-06
1.84493e-06
3.02197e-06
1.66387e-06
2.2951e-06
1.54395e-06
2.54069e-06
1.54304e-06
1.66605e-06
2.54046e-06
1.84554e-06
3.02234e-06
3.64752e-06
2.22341e-06
2.22396e-06
3.02277e-06
1.84333e-06
1.6663e-06
2.29558e-06
1.5435e-06
2.54076e-06
1.54441e-06
2.54101e-06
1.66442e-06
1.84297e-06
2.22402e-06
3.02253e-06
3.64724e-06
2.2235e-06
1.84495e-06
3.02213e-06
1.664e-06
2.2951e-06
1.54394e-06
2.54069e-06
1.54304e-06
1.666e-06
2.54044e-06
1.84556e-06
3.02251e-06
3.64802e-06
2.22377e-06
2.22431e-06
3.02294e-06
1.84337e-06
8.63155e-07
1.14872e-06
8.63031e-07
9.16198e-06
3.47542e-06
1.84287e-05
5.46342e-06
5.46218e-06
1.84266e-05
3.47516e-06
9.16209e-06
2.20549e-05
9.159e-06
7.08873e-06
7.08907e-06
2.20615e-05
1.84237e-05
4.54492e-06
2.81261e-06
5.4634e-06
9.50419e-06
2.81162e-06
9.50124e-06
4.54506e-06
4.53886e-06
2.81148e-06
5.46192e-06
9.49994e-06
9.49629e-06
2.8105e-06
4.53889e-06
9.73631e-06
2.17294e-05
2.17297e-05
2.17231e-05
2.17234e-05
9.73592e-06
1.84215e-05
2.20522e-05
9.15912e-06
7.0895e-06
7.09004e-06
2.20591e-05
2.66784e-06
1.14927e-06
1.76796e-06
1.76792e-06
1.76815e-06
1.76799e-06
2.66878e-06
1.61837e-06
2.03237e-06
3.47481e-06
2.86026e-06
2.86002e-06
2.03225e-06
1.61649e-06
1.61721e-06
2.03235e-06
3.47454e-06
2.86074e-06
2.03165e-06
2.86008e-06
1.61763e-06
3.2378e-07
8.69038e-07
8.6917e-07
1.15429e-06
3.39811e-07
8.92472e-07
8.9259e-07
1.17364e-06
3.56087e-07
9.14908e-07
9.15023e-07
1.19203e-06
3.72527e-07
9.36341e-07
9.36451e-07
1.20957e-06
3.8905e-07
9.56758e-07
9.56864e-07
1.22625e-06
4.05575e-07
9.76174e-07
9.76283e-07
1.24215e-06
4.22023e-07
9.94598e-07
9.94712e-07
1.25718e-06
4.3832e-07
1.01204e-06
1.01216e-06
1.27131e-06
4.54392e-07
1.02851e-06
1.02863e-06
1.28469e-06
4.70174e-07
1.04402e-06
1.04415e-06
1.29732e-06
4.85605e-07
1.05861e-06
1.05875e-06
1.30919e-06
5.00634e-07
1.0723e-06
1.07243e-06
1.32042e-06
5.15212e-07
1.08511e-06
1.08524e-06
1.33099e-06
5.29298e-07
1.09706e-06
1.09719e-06
1.3409e-06
5.42855e-07
1.10819e-06
1.10831e-06
1.35018e-06
5.55855e-07
1.11851e-06
1.11863e-06
1.35888e-06
5.68269e-07
1.12805e-06
1.12817e-06
1.36695e-06
5.80078e-07
1.13685e-06
1.13696e-06
1.37443e-06
5.9127e-07
1.14491e-06
1.14502e-06
1.38133e-06
6.01832e-07
1.15226e-06
1.15238e-06
1.38768e-06
6.11759e-07
1.15894e-06
1.15905e-06
1.39352e-06
6.21046e-07
1.16495e-06
1.16506e-06
1.39883e-06
6.29694e-07
1.17033e-06
1.17044e-06
1.40363e-06
6.37706e-07
1.17509e-06
1.1752e-06
1.40797e-06
6.45086e-07