/*--------------------------------*- C++ -*----------------------------------*\
| =========                 |                                                 |
| \\      /  F ield         | OpenFOAM: The Open Source CFD Toolbox           |
|  \\    /   O peration     | Version:  2312                                  |
|   \\  /    A nd           | Website:  www.openfoam.com                      |
|    \\/     M anipulation  |                                                 |
\*---------------------------------------------------------------------------*/
FoamFile
{
    version     2.0;
    format      ascii;
    arch        "LSB;label=32;scalar=64";
    class       volScalarField;
    location    "600";
    object      k;
}
// * * * * * * * * * * * * * * * * * * * * * * * * * * * * * * * * * * * * * //

dimensions      [0 2 -2 0 0 0 0];

internalField   nonuniform List<scalar> 
43496
(
6.85743e-05
7.11957e-05
5.14161e-05
6.47961e-05
6.06285e-05
4.67098e-05
6.85728e-05
7.34405e-05
6.06272e-05
5.14114e-05
4.67104e-05
6.47923e-05
5.35251e-05
6.99407e-05
6.99383e-05
7.11944e-05
7.34445e-05
7.18502e-05
6.85627e-05
7.16004e-05
7.16305e-05
7.15887e-05
7.16181e-05
7.18596e-05
7.1683e-05
7.97873e-05
7.97796e-05
7.16973e-05
7.11838e-05
7.18491e-05
6.85613e-05
7.16299e-05
7.15955e-05
7.16175e-05
7.15839e-05
7.18587e-05
7.16811e-05
7.97682e-05
7.34296e-05
7.97602e-05
7.16954e-05
9.49812e-05
7.34964e-05
7.35026e-05
7.34829e-05
7.34891e-05
9.4983e-05
7.41993e-05
7.3279e-05
6.99365e-05
6.52488e-05
7.32704e-05
6.52359e-05
7.42029e-05
7.41517e-05
7.3271e-05
6.99339e-05
6.52441e-05
6.52318e-05
7.32624e-05
7.41555e-05
7.11825e-05
7.34333e-05
3.19039e-05
3.8908e-05
3.19092e-05
6.47856e-05
6.0377e-05
6.03765e-05
5.6296e-05
6.061e-05
6.23224e-05
5.50188e-05
6.23043e-05
5.50158e-05
5.62901e-05
5.73869e-05
6.42054e-05
6.41928e-05
5.73886e-05
5.62928e-05
6.06087e-05
5.50178e-05
6.23188e-05
5.50148e-05
6.23005e-05
5.62877e-05
5.73825e-05
6.41983e-05
6.47812e-05
6.03751e-05
6.41855e-05
5.73844e-05
6.03675e-05
6.59271e-05
5.35453e-05
5.94746e-05
5.94761e-05
5.94796e-05
5.94779e-05
6.59321e-05
3.83864e-05
5.11094e-05
5.11128e-05
5.32891e-05
3.88041e-05
5.13551e-05
5.13586e-05
5.34846e-05
5.33001e-05
5.34316e-05
5.11094e-05
5.11042e-05
5.12956e-05
5.12911e-05
5.32895e-05
5.34307e-05
5.11068e-05
5.1108e-05
5.12931e-05
5.12942e-05
5.11092e-05
5.12949e-05
5.12936e-05
5.33025e-05
5.34345e-05
5.11063e-05
5.1299e-05
5.12932e-05
5.34414e-05
5.34966e-05
5.13551e-05
5.13494e-05
5.34934e-05
5.13527e-05
5.13538e-05
5.13561e-05
5.34961e-05
5.13521e-05
6.85149e-05
7.33584e-05
7.33849e-05
6.84863e-05
7.11139e-05
7.11401e-05
6.85139e-05
7.33601e-05
7.33865e-05
6.84853e-05
3.83854e-05
3.83913e-05
3.83899e-05
3.87019e-05
3.87014e-05
3.87066e-05
3.8705e-05
6.05218e-05
6.46957e-05
4.63283e-05
5.11721e-05
6.47262e-05
4.64084e-05
6.04767e-05
7.11151e-05
7.11412e-05
6.05218e-05
4.6332e-05
6.46958e-05
5.11761e-05
4.64117e-05
6.47267e-05
6.04767e-05
6.98611e-05
6.98693e-05
5.33437e-05
6.98798e-05
6.98886e-05
7.34179e-05
6.85493e-05
7.1169e-05
7.34194e-05
6.85483e-05
3.88032e-05
3.88089e-05
3.88076e-05
6.06265e-05
6.47683e-05
4.66382e-05
6.05869e-05
4.67116e-05
7.11703e-05
6.06265e-05
4.6642e-05
6.47687e-05
6.0587e-05
4.67146e-05
6.99163e-05
6.99246e-05
5.35331e-05
6.99338e-05
6.99423e-05
7.11126e-05
7.11387e-05
7.11157e-05
7.11418e-05
6.98655e-05
6.98728e-05
5.33341e-05
6.98833e-05
6.98921e-05
7.11662e-05
7.11404e-05
7.11692e-05
7.11434e-05
5.33988e-05
6.99108e-05
6.99194e-05
6.98937e-05
6.99011e-05
6.8512e-05
7.33561e-05
7.33806e-05
6.84858e-05
6.05235e-05
6.46939e-05
4.63272e-05
5.11727e-05
6.47247e-05
4.6407e-05
6.04748e-05
6.05198e-05
6.46899e-05
4.63246e-05
5.11679e-05
6.47207e-05
4.64048e-05
6.04747e-05
6.85185e-05
7.34145e-05
7.33884e-05
6.85461e-05
6.85179e-05
7.34102e-05
7.33861e-05
6.85431e-05
6.05314e-05
5.12351e-05
6.47606e-05
4.6562e-05
6.47309e-05
4.64857e-05
6.0577e-05
6.05315e-05
5.12296e-05
6.47565e-05
4.65598e-05
6.47272e-05
4.64829e-05
6.05739e-05
6.98657e-05
6.9867e-05
5.33431e-05
6.98833e-05
6.98851e-05
7.11142e-05
7.11403e-05
7.11676e-05
7.11417e-05
5.33868e-05
6.99107e-05
6.99125e-05
6.9894e-05
6.98954e-05
7.11677e-05
7.1142e-05
6.05228e-05
6.46956e-05
4.63269e-05
5.11701e-05
6.47267e-05
4.64066e-05
6.04739e-05
6.85124e-05
7.33557e-05
7.33822e-05
6.84838e-05
6.05216e-05
4.63277e-05
6.46915e-05
5.11713e-05
4.64073e-05
6.47229e-05
6.04727e-05
6.85175e-05
7.34159e-05
7.33901e-05
6.85451e-05
6.05306e-05
5.12325e-05
6.47625e-05
4.65615e-05
6.47328e-05
4.64853e-05
6.05769e-05
6.8516e-05
7.34117e-05
7.33857e-05
6.85434e-05
6.05294e-05
5.12337e-05
4.65622e-05
6.47587e-05
4.64861e-05
6.47288e-05
6.05757e-05
6.85117e-05
7.33598e-05
7.33844e-05
6.84855e-05
6.0521e-05
4.6329e-05
6.46906e-05
5.11715e-05
4.64083e-05
6.4722e-05
6.04759e-05
6.85134e-05
7.33554e-05
7.33819e-05
6.84849e-05
6.05333e-05
5.12351e-05
6.47621e-05
4.65633e-05
6.47329e-05
4.64867e-05
6.05756e-05
6.85177e-05
7.3414e-05
7.33899e-05
6.85426e-05
6.05327e-05
5.12353e-05
4.65631e-05
6.47577e-05
4.64875e-05
6.47279e-05
6.05751e-05
6.8517e-05
7.34116e-05
7.33855e-05
6.85444e-05
6.98682e-05
6.98658e-05
5.33361e-05
6.98865e-05
6.98838e-05
7.11138e-05
7.11399e-05
7.11686e-05
7.11429e-05
5.34008e-05
6.99139e-05
6.99113e-05
6.98966e-05
6.98941e-05
7.11673e-05
7.11416e-05
6.05188e-05
4.6329e-05
6.46929e-05
5.11703e-05
4.64084e-05
6.47244e-05
6.04737e-05
6.8511e-05
7.33605e-05
7.3385e-05
6.84847e-05
6.85073e-05
7.33571e-05
7.33836e-05
6.84809e-05
6.05334e-05
5.12385e-05
4.65665e-05
6.47624e-05
4.64904e-05
6.47331e-05
6.05756e-05
6.05304e-05
5.12319e-05
4.65632e-05
6.476e-05
4.64874e-05
6.47302e-05
6.05728e-05
6.85169e-05
7.3415e-05
7.33905e-05
6.85419e-05
6.85132e-05
7.34131e-05
7.33871e-05
6.85382e-05
7.11135e-05
7.11397e-05
7.11163e-05
7.11424e-05
5.33877e-05
6.99073e-05
6.99159e-05
6.98894e-05
6.98976e-05
7.11671e-05
7.11413e-05
7.11699e-05
7.1144e-05
7.11677e-05
7.11708e-05
6.99207e-05
6.99283e-05
7.34157e-05
6.8549e-05
6.47663e-05
4.66373e-05
6.05868e-05
6.47628e-05
4.66345e-05
6.05857e-05
6.9921e-05
6.99222e-05
7.11693e-05
6.47682e-05
4.6637e-05
6.05842e-05
7.34152e-05
6.85467e-05
4.66377e-05
6.47643e-05
6.0583e-05
6.85717e-05
7.34194e-05
6.85483e-05
6.06263e-05
4.66392e-05
6.47634e-05
5.14099e-05
6.05864e-05
4.6711e-05
6.47911e-05
6.85729e-05
7.34151e-05
6.85477e-05
7.34394e-05
6.99236e-05
6.99211e-05
7.1169e-05
6.06238e-05
4.6639e-05
6.47657e-05
5.14109e-05
6.0584e-05
4.67114e-05
6.47939e-05
6.85711e-05
7.34191e-05
6.85476e-05
6.85674e-05
7.34166e-05
6.85439e-05
7.34421e-05
7.11687e-05
7.11941e-05
7.11714e-05
7.11969e-05
7.17908e-05
7.15713e-05
7.1547e-05
6.85024e-05
7.15589e-05
7.15347e-05
7.18047e-05
7.16305e-05
7.33697e-05
7.97179e-05
7.97266e-05
7.16159e-05
7.16295e-05
7.97397e-05
7.33734e-05
7.9731e-05
7.1644e-05
7.179e-05
6.84989e-05
7.15443e-05
7.15202e-05
7.15565e-05
7.15325e-05
7.17759e-05
7.11263e-05
7.11278e-05
7.17931e-05
7.15441e-05
7.15714e-05
6.85014e-05
7.15341e-05
7.15589e-05
7.18025e-05
7.16307e-05
7.33716e-05
7.97156e-05
7.97243e-05
7.16161e-05
7.16297e-05
7.97373e-05
7.33752e-05
7.97289e-05
7.16442e-05
7.1788e-05
6.84978e-05
7.15199e-05
7.15439e-05
7.15292e-05
7.15564e-05
7.17784e-05
7.11273e-05
7.11291e-05
9.49251e-05
7.3453e-05
7.34463e-05
7.34393e-05
7.34327e-05
9.49278e-05
7.40735e-05
6.51179e-05
6.98657e-05
7.31882e-05
6.51321e-05
7.32008e-05
7.40678e-05
7.41214e-05
6.51258e-05
6.98743e-05
7.3198e-05
6.51405e-05
7.32105e-05
7.41159e-05
7.40851e-05
7.32152e-05
6.98753e-05
6.51552e-05
6.51413e-05
7.32028e-05
7.40905e-05
7.41332e-05
7.32249e-05
6.98836e-05
6.51636e-05
6.51491e-05
7.32126e-05
7.41384e-05
9.49132e-05
7.34265e-05
7.34199e-05
7.34402e-05
7.34336e-05
9.49104e-05
7.1684e-05
7.97695e-05
7.34288e-05
7.16696e-05
7.97776e-05
7.18479e-05
6.85605e-05
7.16034e-05
7.15774e-05
7.18337e-05
7.16162e-05
7.15896e-05
7.11811e-05
7.16841e-05
7.97672e-05
7.34307e-05
7.16698e-05
7.97751e-05
7.18455e-05
6.85597e-05
7.15755e-05
7.16039e-05
7.18361e-05
7.15869e-05
7.16158e-05
7.11822e-05
9.49815e-05
7.35031e-05
7.34965e-05
7.34896e-05
7.3483e-05
9.49838e-05
7.41392e-05
6.52078e-05
7.32456e-05
6.99207e-05
7.41343e-05
6.52203e-05
7.32579e-05
7.41869e-05
6.52155e-05
7.32554e-05
6.99291e-05
7.41822e-05
6.52288e-05
7.32676e-05
9.49703e-05
7.34772e-05
7.34706e-05
9.49679e-05
7.34907e-05
7.34841e-05
7.41501e-05
7.3272e-05
6.99292e-05
6.52408e-05
6.52287e-05
7.32595e-05
7.41537e-05
7.41979e-05
7.32817e-05
6.99377e-05
6.52493e-05
6.52365e-05
7.32693e-05
7.42018e-05
7.11249e-05
7.11266e-05
7.11279e-05
7.11296e-05
9.49288e-05
7.34527e-05
7.34459e-05
7.3439e-05
7.34322e-05
9.4931e-05
7.40747e-05
6.51206e-05
6.98692e-05
7.31909e-05
7.32002e-05
6.5133e-05
7.40709e-05
7.41218e-05
6.5127e-05
6.98779e-05
7.31985e-05
7.32112e-05
6.51409e-05
7.4116e-05
7.4088e-05
7.32146e-05
6.98798e-05
6.5156e-05
7.32054e-05
7.40917e-05
6.5144e-05
7.41332e-05
7.32256e-05
6.98872e-05
6.5164e-05
7.32131e-05
7.41387e-05
6.51504e-05
9.49163e-05
7.34262e-05
7.34195e-05
7.344e-05
7.34332e-05
9.49141e-05
7.11541e-05
7.11525e-05
7.11571e-05
7.11555e-05
9.49455e-05
7.34517e-05
7.34449e-05
9.49433e-05
7.34654e-05
7.34586e-05
7.41211e-05
6.52003e-05
6.99073e-05
7.32433e-05
7.32342e-05
6.51889e-05
7.41246e-05
7.41664e-05
6.52082e-05
6.99148e-05
7.32539e-05
7.32416e-05
6.51952e-05
7.41712e-05
7.41083e-05
7.322e-05
6.51667e-05
6.98974e-05
7.41047e-05
7.32293e-05
6.51785e-05
7.41554e-05
7.32276e-05
6.51731e-05
6.99057e-05
7.41501e-05
7.32399e-05
6.51863e-05
9.49576e-05
7.3478e-05
7.34712e-05
7.34643e-05
7.34576e-05
9.49596e-05
7.1792e-05
7.15696e-05
7.154e-05
6.85021e-05
7.15602e-05
7.15309e-05
7.18014e-05
7.16298e-05
7.33657e-05
7.96995e-05
7.97079e-05
7.16153e-05
7.16289e-05
7.97209e-05
7.33711e-05
7.97129e-05
7.16433e-05
7.17869e-05
6.84961e-05
7.15453e-05
7.15161e-05
7.15548e-05
7.15254e-05
7.17774e-05
7.1819e-05
7.15741e-05
7.15495e-05
6.85306e-05
7.18054e-05
7.15863e-05
7.15614e-05
7.16563e-05
7.34031e-05
7.97652e-05
7.16708e-05
7.97568e-05
7.16574e-05
7.97441e-05
7.33996e-05
7.16429e-05
7.97525e-05
7.18199e-05
6.85341e-05
7.16011e-05
7.15756e-05
7.18334e-05
7.1589e-05
7.15638e-05
7.18159e-05
7.1575e-05
7.15455e-05
6.85279e-05
7.18065e-05
7.15847e-05
7.15546e-05
7.16557e-05
7.3401e-05
7.97466e-05
7.97388e-05
7.16701e-05
7.16568e-05
7.9726e-05
7.33956e-05
7.16423e-05
7.9734e-05
7.18211e-05
6.85335e-05
7.15994e-05
7.15687e-05
7.15899e-05
7.15598e-05
7.18305e-05
9.49274e-05
7.34469e-05
7.3453e-05
7.34331e-05
7.34392e-05
9.49301e-05
7.41217e-05
6.51243e-05
6.98691e-05
7.31987e-05
7.3208e-05
6.51374e-05
7.41163e-05
7.40754e-05
6.51214e-05
6.98709e-05
7.31903e-05
6.5135e-05
7.32026e-05
7.407e-05
7.41336e-05
7.32224e-05
6.988e-05
6.51604e-05
7.32131e-05
6.51478e-05
7.41388e-05
7.40873e-05
7.32167e-05
6.98814e-05
6.5158e-05
6.51448e-05
7.32056e-05
7.40924e-05
9.49155e-05
7.34203e-05
7.34264e-05
7.34341e-05
7.34402e-05
9.49126e-05
7.11264e-05
7.11281e-05
7.11554e-05
7.11539e-05
9.49445e-05
7.34458e-05
7.34519e-05
9.49419e-05
7.34596e-05
7.34656e-05
7.41667e-05
6.52046e-05
6.99076e-05
7.32511e-05
6.51927e-05
7.3242e-05
7.41717e-05
7.41204e-05
6.5202e-05
6.99091e-05
7.32442e-05
7.32351e-05
6.51896e-05
7.41254e-05
7.41554e-05
7.32278e-05
6.51705e-05
6.98972e-05
6.51828e-05
7.41504e-05
7.3237e-05
7.41091e-05
7.32205e-05
6.51674e-05
6.98991e-05
7.4104e-05
7.32303e-05
6.51803e-05
9.49562e-05
7.34721e-05
7.34782e-05
7.34585e-05
7.34646e-05
9.49587e-05
7.11557e-05
7.1154e-05
7.17916e-05
7.15703e-05
7.15399e-05
6.85e-05
7.15595e-05
7.15276e-05
7.18011e-05
7.16287e-05
7.33672e-05
7.96961e-05
7.97046e-05
7.16142e-05
7.16278e-05
7.97178e-05
7.33708e-05
7.97093e-05
7.16422e-05
7.17865e-05
6.84964e-05
7.15451e-05
7.1513e-05
7.15549e-05
7.15252e-05
7.17769e-05
7.18169e-05
7.15478e-05
7.15741e-05
6.85296e-05
7.18075e-05
7.15588e-05
7.15864e-05
7.16565e-05
7.34048e-05
7.97628e-05
7.16709e-05
7.97547e-05
7.16576e-05
7.9742e-05
7.34013e-05
7.16432e-05
7.97502e-05
7.18221e-05
6.8533e-05
7.15734e-05
7.16014e-05
7.18315e-05
7.15616e-05
7.1589e-05
7.18156e-05
7.15736e-05
7.15424e-05
6.85282e-05
7.1806e-05
7.15857e-05
7.15545e-05
7.16546e-05
7.34004e-05
7.97435e-05
7.97353e-05
7.1669e-05
7.16557e-05
7.97224e-05
7.3397e-05
7.16412e-05
7.97308e-05
7.18207e-05
6.85315e-05
7.16007e-05
7.15685e-05
7.15884e-05
7.15567e-05
7.18301e-05
7.17912e-05
7.15402e-05
7.15694e-05
6.85018e-05
7.15313e-05
7.156e-05
7.1802e-05
7.16297e-05
7.33694e-05
7.97137e-05
7.97169e-05
7.16146e-05
7.16282e-05
7.973e-05
7.33748e-05
7.97269e-05
7.16432e-05
7.17878e-05
6.84958e-05
7.15164e-05
7.15451e-05
7.15257e-05
7.15546e-05
7.17757e-05
7.17896e-05
7.1571e-05
7.15411e-05
6.8501e-05
7.15585e-05
7.15288e-05
7.18034e-05
7.16293e-05
7.3367e-05
7.96957e-05
7.97045e-05
7.16147e-05
7.16283e-05
7.97176e-05
7.33706e-05
7.9709e-05
7.16428e-05
7.17889e-05
6.84973e-05
7.15438e-05
7.15142e-05
7.15561e-05
7.15264e-05
7.17748e-05
7.18158e-05
7.15458e-05
7.15749e-05
6.85275e-05
7.1806e-05
7.15547e-05
7.15845e-05
7.1655e-05
7.34047e-05
7.97557e-05
7.97526e-05
7.167e-05
7.16566e-05
7.97399e-05
7.33994e-05
7.16416e-05
7.97431e-05
7.18204e-05
6.85331e-05
7.15686e-05
7.15991e-05
7.15601e-05
7.15898e-05
7.18299e-05
7.18178e-05
7.15736e-05
7.15436e-05
6.85291e-05
7.18042e-05
7.1586e-05
7.15557e-05
7.16551e-05
7.34002e-05
7.97431e-05
7.97351e-05
7.16696e-05
7.16562e-05
7.9722e-05
7.33967e-05
7.16417e-05
7.97304e-05
7.18187e-05
6.85325e-05
7.16007e-05
7.15697e-05
7.15884e-05
7.15578e-05
7.18321e-05
9.49244e-05
7.34461e-05
7.34523e-05
7.34325e-05
7.34387e-05
9.49268e-05
7.41217e-05
6.5125e-05
6.98723e-05
7.31989e-05
7.32082e-05
6.514e-05
7.41176e-05
7.40742e-05
6.5121e-05
6.98697e-05
7.31909e-05
6.51351e-05
7.32002e-05
7.40699e-05
7.41348e-05
7.32226e-05
6.98826e-05
6.5163e-05
7.32134e-05
6.51484e-05
7.41389e-05
7.40871e-05
7.32146e-05
6.98801e-05
6.51583e-05
6.51444e-05
7.32054e-05
7.40913e-05
9.49121e-05
7.34197e-05
7.34259e-05
7.34334e-05
7.34396e-05
9.49096e-05
7.1126e-05
7.11278e-05
7.11566e-05
7.11549e-05
9.49412e-05
7.34452e-05
7.34514e-05
9.49389e-05
7.34588e-05
7.3465e-05
7.41679e-05
6.52073e-05
6.99103e-05
7.32512e-05
6.51933e-05
7.32423e-05
7.41718e-05
7.41203e-05
6.52026e-05
6.99078e-05
7.32432e-05
7.32343e-05
6.51893e-05
7.41243e-05
7.41555e-05
7.3228e-05
6.51713e-05
6.99003e-05
6.51853e-05
7.41515e-05
7.32373e-05
7.41078e-05
7.322e-05
6.51671e-05
6.98979e-05
7.41039e-05
7.32293e-05
6.51807e-05
9.49532e-05
7.34714e-05
7.34776e-05
7.34579e-05
7.3464e-05
9.49554e-05
7.11554e-05
7.11536e-05
7.17907e-05
7.15443e-05
7.1569e-05
6.85011e-05
7.15352e-05
7.15596e-05
7.18044e-05
7.16307e-05
7.33701e-05
7.97141e-05
7.97226e-05
7.16162e-05
7.16298e-05
7.97358e-05
7.33755e-05
7.97274e-05
7.16442e-05
7.17899e-05
6.8495e-05
7.15203e-05
7.15447e-05
7.15297e-05
7.15543e-05
7.17759e-05
7.17886e-05
7.15372e-05
7.1568e-05
6.84973e-05
7.15255e-05
7.15586e-05
7.18027e-05
7.16299e-05
7.33687e-05
7.96972e-05
7.97058e-05
7.16153e-05
7.16289e-05
7.97189e-05
7.33722e-05
7.97105e-05
7.16434e-05
7.17881e-05
6.84913e-05
7.15108e-05
7.15437e-05
7.15226e-05
7.15533e-05
7.17739e-05
7.18189e-05
7.15498e-05
7.15745e-05
6.85268e-05
7.18053e-05
7.15589e-05
7.15841e-05
7.16566e-05
7.34051e-05
7.97613e-05
7.97534e-05
7.1671e-05
7.16577e-05
7.97404e-05
7.34002e-05
7.16432e-05
7.97487e-05
7.18198e-05
6.85325e-05
7.15728e-05
7.15987e-05
7.1564e-05
7.15893e-05
7.1833e-05
7.18171e-05
7.15402e-05
7.15735e-05
6.85231e-05
7.18032e-05
7.15518e-05
7.15831e-05
7.16557e-05
7.34018e-05
7.97444e-05
7.97363e-05
7.16702e-05
7.16568e-05
7.97235e-05
7.33984e-05
7.16423e-05
7.97318e-05
7.18177e-05
6.85287e-05
7.15657e-05
7.15977e-05
7.15544e-05
7.15883e-05
7.18312e-05
7.11258e-05
7.11275e-05
7.11286e-05
7.11302e-05
9.49423e-05
7.3452e-05
7.34454e-05
9.49395e-05
7.34656e-05
7.3459e-05
7.41183e-05
6.51992e-05
6.99028e-05
7.32438e-05
7.41234e-05
6.51862e-05
7.32313e-05
7.41663e-05
6.52077e-05
6.99112e-05
7.32535e-05
7.41713e-05
6.51941e-05
7.32411e-05
7.41071e-05
7.32173e-05
6.5164e-05
6.98938e-05
7.41018e-05
6.51775e-05
7.32294e-05
7.4155e-05
7.32271e-05
6.51719e-05
6.99022e-05
7.41499e-05
6.51858e-05
7.32391e-05
9.49538e-05
7.34782e-05
7.34716e-05
9.49565e-05
7.34646e-05
7.3458e-05
7.11551e-05
7.11534e-05
7.11578e-05
7.11562e-05
7.11797e-05
7.11827e-05
7.41403e-05
6.52105e-05
7.32484e-05
6.99238e-05
7.41371e-05
7.32571e-05
6.52215e-05
7.41864e-05
6.52168e-05
7.32563e-05
6.9932e-05
7.41826e-05
7.32675e-05
6.52293e-05
9.49734e-05
7.34769e-05
7.34701e-05
9.49717e-05
7.34905e-05
7.34837e-05
7.16834e-05
7.97512e-05
7.34245e-05
7.1669e-05
7.9759e-05
7.18444e-05
6.85577e-05
7.16049e-05
7.15741e-05
7.16138e-05
7.18354e-05
7.15822e-05
7.41877e-05
6.52143e-05
7.32562e-05
6.99238e-05
7.32649e-05
7.41826e-05
6.52257e-05
7.41413e-05
6.52112e-05
7.3249e-05
6.99264e-05
6.52234e-05
7.41363e-05
7.32589e-05
9.49728e-05
7.3471e-05
7.34771e-05
7.34847e-05
9.49703e-05
7.34907e-05
7.16823e-05
7.97479e-05
7.34262e-05
7.16679e-05
7.97559e-05
7.18444e-05
6.85582e-05
7.16032e-05
7.15706e-05
7.16152e-05
7.18347e-05
7.15821e-05
7.18489e-05
6.8563e-05
7.1628e-05
7.15876e-05
7.16191e-05
7.16832e-05
7.97651e-05
7.34283e-05
7.9768e-05
7.16683e-05
7.18445e-05
6.85575e-05
7.1574e-05
7.16045e-05
7.15823e-05
7.18345e-05
7.16139e-05
7.16815e-05
7.18475e-05
6.85628e-05
7.16299e-05
7.15967e-05
7.16176e-05
7.15851e-05
7.18611e-05
7.16828e-05
7.97476e-05
7.34258e-05
7.16684e-05
7.97555e-05
7.18466e-05
6.8559e-05
7.16032e-05
7.15718e-05
7.18332e-05
7.16152e-05
7.15833e-05
7.16817e-05
7.97676e-05
7.34303e-05
7.97599e-05
7.1696e-05
7.41877e-05
6.52149e-05
7.32562e-05
6.99274e-05
7.32654e-05
7.41837e-05
6.52283e-05
7.41401e-05
6.52107e-05
7.32482e-05
6.99249e-05
6.52236e-05
7.41361e-05
7.32575e-05
9.49694e-05
7.34704e-05
7.34766e-05
7.34839e-05
9.49673e-05
7.34901e-05
7.11809e-05
7.18478e-05
6.85624e-05
7.15995e-05
7.16276e-05
7.15915e-05
7.16187e-05
7.18624e-05
7.16843e-05
7.97659e-05
7.34299e-05
7.97738e-05
7.167e-05
7.18475e-05
6.85569e-05
7.1578e-05
7.16041e-05
7.15866e-05
7.18343e-05
7.16135e-05
7.16832e-05
7.97858e-05
7.97782e-05
7.16974e-05
7.18469e-05
6.85587e-05
7.15927e-05
7.16266e-05
7.15817e-05
7.16176e-05
7.18596e-05
7.16834e-05
7.97489e-05
7.34277e-05
7.1669e-05
7.97568e-05
7.18454e-05
6.85532e-05
7.15684e-05
7.16031e-05
7.18323e-05
7.15793e-05
7.16124e-05
7.16822e-05
7.9769e-05
7.3431e-05
7.97612e-05
7.16966e-05
7.11807e-05
7.11822e-05
7.11834e-05
7.11849e-05
3.12703e-05
3.12684e-05
3.84932e-05
3.14008e-05
3.13985e-05
2.22638e-05
2.21124e-05
6.58128e-05
5.93024e-05
5.93026e-05
5.3294e-05
5.93074e-05
5.93083e-05
6.58059e-05
3.17829e-05
3.17807e-05
2.28616e-05
2.27138e-05
6.59085e-05
5.94401e-05
5.94412e-05
5.34885e-05
6.59025e-05
5.94451e-05
5.94461e-05
6.58134e-05
5.93052e-05
5.9307e-05
5.32843e-05
5.93055e-05
5.9306e-05
6.58083e-05
6.58818e-05
5.34488e-05
5.94108e-05
5.94117e-05
5.94109e-05
5.94118e-05
6.58865e-05
6.58145e-05
5.93011e-05
5.93053e-05
5.32941e-05
5.931e-05
5.93062e-05
6.5807e-05
6.58811e-05
5.34357e-05
5.94085e-05
5.94104e-05
5.94066e-05
5.94094e-05
6.58864e-05
6.58134e-05
5.93067e-05
5.93086e-05
5.32866e-05
5.93076e-05
5.93064e-05
6.5808e-05
6.58815e-05
5.34511e-05
5.94098e-05
5.94135e-05
5.94106e-05
5.94139e-05
6.58868e-05
6.58794e-05
5.34375e-05
5.94116e-05
5.94125e-05
6.58857e-05
5.94066e-05
5.94082e-05
6.59094e-05
5.94449e-05
5.94452e-05
5.34764e-05
6.5905e-05
5.94425e-05
5.94424e-05
6.59094e-05
5.94426e-05
5.94464e-05
5.34733e-05
5.94433e-05
6.59045e-05
5.94389e-05
6.591e-05
5.94432e-05
5.9446e-05
5.34807e-05
5.94459e-05
6.59046e-05
5.94424e-05
3.12694e-05
3.12695e-05
3.84926e-05
3.14003e-05
3.13993e-05
2.22641e-05
2.21128e-05
3.12742e-05
3.12741e-05
3.84979e-05
3.14043e-05
3.14046e-05
2.22681e-05
2.21168e-05
3.12753e-05
3.12725e-05
3.84963e-05
3.14044e-05
3.14042e-05
2.22686e-05
2.21168e-05
3.85987e-05
3.1657e-05
3.16547e-05
3.15299e-05
3.15281e-05
2.24148e-05
2.25645e-05
3.85977e-05
3.16565e-05
3.16555e-05
3.15291e-05
3.15293e-05
2.24152e-05
2.25648e-05
3.86036e-05
3.16603e-05
3.16607e-05
3.15339e-05
3.15337e-05
2.24191e-05
2.25688e-05
3.86022e-05
3.16604e-05
3.16606e-05
3.15352e-05
3.15318e-05
2.24191e-05
2.25693e-05
5.61427e-05
6.2224e-05
5.48428e-05
6.05057e-05
6.22098e-05
5.48555e-05
5.61326e-05
5.7209e-05
6.02302e-05
6.47076e-05
6.40865e-05
6.02311e-05
6.40985e-05
5.72196e-05
5.72556e-05
6.41208e-05
6.47145e-05
6.02616e-05
6.02607e-05
6.41091e-05
5.72453e-05
5.60912e-05
6.04935e-05
6.21839e-05
5.48084e-05
6.21985e-05
5.47968e-05
5.61009e-05
5.61453e-05
5.48438e-05
6.22263e-05
6.05057e-05
5.48566e-05
6.22121e-05
5.61334e-05
5.72115e-05
6.02311e-05
6.47081e-05
6.40883e-05
6.02322e-05
6.41009e-05
5.72219e-05
5.72578e-05
6.41231e-05
6.47147e-05
6.02628e-05
6.02616e-05
6.4111e-05
5.72477e-05
5.6092e-05
6.04936e-05
5.48096e-05
6.21862e-05
5.47979e-05
6.22008e-05
5.61041e-05
6.58312e-05
5.33396e-05
5.93424e-05
5.93446e-05
5.93376e-05
5.93375e-05
6.58378e-05
3.1782e-05
3.17823e-05
3.19047e-05
2.2862e-05
2.27142e-05
3.17866e-05
3.17865e-05
3.19102e-05
2.28659e-05
2.27181e-05
3.17881e-05
3.17843e-05
3.89074e-05
3.19092e-05
3.19109e-05
2.28665e-05
2.2718e-05
5.62994e-05
6.06129e-05
6.23198e-05
5.50091e-05
6.23076e-05
5.50261e-05
5.62876e-05
5.73497e-05
6.0349e-05
6.41741e-05
6.4779e-05
5.73629e-05
6.03477e-05
6.4184e-05
5.62515e-05
6.06018e-05
6.22844e-05
5.49828e-05
5.62619e-05
6.22972e-05
5.49698e-05
5.63015e-05
6.06129e-05
5.501e-05
6.2322e-05
5.50267e-05
6.23097e-05
5.6289e-05
5.73525e-05
6.03483e-05
6.4176e-05
6.47795e-05
5.73641e-05
6.03483e-05
6.41867e-05
5.62533e-05
6.06018e-05
5.49836e-05
6.22866e-05
5.62642e-05
5.49706e-05
6.22995e-05
5.73982e-05
6.42061e-05
6.41961e-05
5.73831e-05
6.59252e-05
5.35306e-05
5.94777e-05
5.94785e-05
5.9473e-05
5.9474e-05
6.59314e-05
6.58334e-05
5.33499e-05
5.93415e-05
5.93417e-05
6.58385e-05
5.93414e-05
5.9343e-05
6.58627e-05
5.33841e-05
5.93763e-05
5.93781e-05
6.5858e-05
5.9377e-05
5.93776e-05
5.61399e-05
6.22278e-05
5.48494e-05
6.05034e-05
6.22084e-05
5.48455e-05
5.61346e-05
5.72146e-05
6.02281e-05
6.47062e-05
6.40864e-05
6.41004e-05
6.02296e-05
5.72111e-05
5.72477e-05
6.41227e-05
6.47126e-05
6.02601e-05
6.41087e-05
6.02577e-05
5.7251e-05
5.60925e-05
6.04952e-05
6.21827e-05
5.47994e-05
6.2202e-05
5.48035e-05
5.60978e-05
5.61365e-05
6.22201e-05
5.48392e-05
6.05036e-05
6.22057e-05
5.48503e-05
5.61272e-05
5.72018e-05
6.02246e-05
6.4702e-05
6.40788e-05
6.40915e-05
6.02256e-05
5.72123e-05
5.72485e-05
6.41138e-05
6.47088e-05
6.02561e-05
6.41016e-05
5.72382e-05
6.02553e-05
5.60855e-05
6.04916e-05
6.21796e-05
5.48032e-05
6.21944e-05
5.47949e-05
5.60941e-05
5.61751e-05
6.22342e-05
5.48886e-05
6.05509e-05
5.61808e-05
6.22531e-05
5.48922e-05
5.73194e-05
6.0321e-05
6.47487e-05
6.4166e-05
6.03141e-05
6.41525e-05
5.73223e-05
5.72872e-05
6.41311e-05
6.02869e-05
6.47429e-05
6.02914e-05
5.72843e-05
6.41446e-05
5.62206e-05
6.05591e-05
6.22774e-05
5.4931e-05
6.2259e-05
5.49311e-05
5.62144e-05
5.61679e-05
6.22313e-05
5.48944e-05
6.05474e-05
5.61777e-05
6.22455e-05
5.48827e-05
5.73201e-05
6.03156e-05
6.47452e-05
6.41571e-05
6.41457e-05
6.03147e-05
5.7309e-05
5.72734e-05
6.41237e-05
6.02847e-05
6.47388e-05
5.72846e-05
6.41359e-05
6.02857e-05
5.62178e-05
6.05587e-05
6.227e-05
5.4924e-05
6.22562e-05
5.49377e-05
5.62077e-05
6.58324e-05
5.33395e-05
5.93414e-05
5.93448e-05
5.93402e-05
5.93366e-05
6.5839e-05
6.58625e-05
5.33894e-05
5.93701e-05
5.93731e-05
5.93755e-05
6.58568e-05
5.93788e-05
5.61395e-05
6.22247e-05
5.48492e-05
6.05026e-05
6.22084e-05
5.48449e-05
5.61315e-05
5.72059e-05
6.02255e-05
6.47082e-05
6.40863e-05
6.40989e-05
6.02341e-05
5.72163e-05
5.72525e-05
6.41211e-05
6.47145e-05
6.02643e-05
6.41088e-05
6.02563e-05
5.72428e-05
5.60896e-05
6.04943e-05
6.21835e-05
5.4799e-05
6.21985e-05
5.48031e-05
5.60978e-05
5.61341e-05
5.48483e-05
6.22224e-05
6.05014e-05
5.48438e-05
6.22026e-05
5.61302e-05
5.72093e-05
6.02225e-05
6.47043e-05
6.4078e-05
6.40926e-05
6.02316e-05
5.72056e-05
5.72423e-05
6.41148e-05
6.47103e-05
6.02618e-05
6.41004e-05
5.72456e-05
6.02532e-05
5.60876e-05
6.04932e-05
5.47976e-05
6.2177e-05
5.48025e-05
6.21966e-05
5.60912e-05
5.61727e-05
6.22324e-05
5.48881e-05
6.05502e-05
5.61802e-05
6.22506e-05
5.48923e-05
5.73205e-05
6.03226e-05
6.47506e-05
6.41647e-05
6.0315e-05
6.41513e-05
5.7321e-05
5.72837e-05
6.41302e-05
6.02854e-05
6.47448e-05
6.02933e-05
5.72866e-05
6.41432e-05
5.62199e-05
6.05578e-05
6.22754e-05
5.49354e-05
6.22568e-05
5.49315e-05
5.62128e-05
5.61708e-05
5.4887e-05
6.22284e-05
6.0549e-05
5.61755e-05
5.48913e-05
6.22476e-05
5.73137e-05
6.032e-05
6.47468e-05
6.4158e-05
6.41441e-05
6.03118e-05
5.73166e-05
5.72817e-05
6.41226e-05
6.02827e-05
6.47409e-05
5.72787e-05
6.41366e-05
6.02906e-05
5.62156e-05
6.05566e-05
5.49343e-05
6.2272e-05
5.49304e-05
6.22532e-05
5.62105e-05
5.61383e-05
5.48412e-05
6.22238e-05
6.05047e-05
5.48538e-05
6.22044e-05
5.61311e-05
5.72116e-05
6.02223e-05
6.47033e-05
6.40788e-05
6.02313e-05
6.40931e-05
5.72079e-05
5.72445e-05
6.41155e-05
6.47095e-05
6.02616e-05
6.0253e-05
6.41014e-05
5.72478e-05
5.60893e-05
6.04928e-05
5.48067e-05
6.21787e-05
5.47961e-05
6.2198e-05
5.60962e-05
5.61733e-05
6.22352e-05
5.48982e-05
6.05492e-05
5.61835e-05
6.22493e-05
5.48858e-05
5.73268e-05
6.03195e-05
6.47507e-05
6.41639e-05
5.73161e-05
6.03195e-05
6.41529e-05
5.72803e-05
6.4131e-05
6.02899e-05
6.47444e-05
5.72917e-05
6.02911e-05
6.41428e-05
5.62233e-05
6.05604e-05
6.22737e-05
5.49272e-05
5.62132e-05
6.226e-05
5.49411e-05
5.6172e-05
5.48974e-05
6.22302e-05
6.05486e-05
5.61793e-05
5.48846e-05
6.22491e-05
5.7316e-05
6.03196e-05
6.47459e-05
6.41588e-05
6.41454e-05
6.03115e-05
5.7319e-05
5.72839e-05
6.41236e-05
6.02825e-05
6.47399e-05
5.7281e-05
6.41372e-05
6.02903e-05
5.62191e-05
6.05599e-05
5.49272e-05
6.22735e-05
5.49407e-05
6.22551e-05
5.62116e-05
6.58332e-05
5.3352e-05
5.93409e-05
5.93433e-05
5.93447e-05
5.93407e-05
6.58385e-05
6.58629e-05
5.33857e-05
5.93757e-05
5.93797e-05
5.9376e-05
6.58578e-05
5.9379e-05
5.61367e-05
5.48404e-05
6.22214e-05
6.05026e-05
5.48531e-05
6.22022e-05
5.61298e-05
5.72102e-05
6.0224e-05
6.47058e-05
6.40783e-05
6.02329e-05
6.4093e-05
5.72065e-05
5.72432e-05
6.41154e-05
6.47118e-05
6.02631e-05
6.02546e-05
6.41009e-05
5.72464e-05
5.60879e-05
6.04906e-05
5.48062e-05
6.21765e-05
5.47953e-05
6.21957e-05
5.60945e-05
5.61747e-05
5.48991e-05
6.22375e-05
6.05493e-05
5.61861e-05
5.48867e-05
6.22516e-05
5.73286e-05
6.03206e-05
6.47512e-05
6.41663e-05
5.73186e-05
6.03204e-05
6.41549e-05
5.72826e-05
6.4133e-05
6.02909e-05
6.47448e-05
5.72938e-05
6.02922e-05
6.41452e-05
5.62259e-05
6.05605e-05
5.4928e-05
6.22761e-05
5.62149e-05
5.4942e-05
6.22622e-05
5.61704e-05
5.48966e-05
6.22279e-05
6.05463e-05
5.61777e-05
5.48837e-05
6.22466e-05
5.73146e-05
6.03213e-05
6.47481e-05
6.41585e-05
6.41448e-05
6.03131e-05
5.73176e-05
5.72825e-05
6.4123e-05
6.02841e-05
6.47423e-05
5.72796e-05
6.4137e-05
6.02919e-05
5.62174e-05
6.05576e-05
5.49262e-05
6.2271e-05
5.49397e-05
6.22527e-05
5.62099e-05
6.5862e-05
5.33916e-05
5.93719e-05
5.93723e-05
6.58555e-05
5.93768e-05
5.93781e-05
5.73569e-05
6.03418e-05
6.41737e-05
6.47778e-05
6.41864e-05
5.73542e-05
6.03493e-05
5.62524e-05
6.06009e-05
6.22833e-05
5.49799e-05
6.23005e-05
5.62595e-05
5.49664e-05
5.73419e-05
6.03412e-05
6.41667e-05
6.47735e-05
5.73553e-05
6.41773e-05
6.03398e-05
5.62453e-05
6.05995e-05
6.22808e-05
5.49826e-05
5.62567e-05
6.22935e-05
5.4964e-05
5.7355e-05
6.03447e-05
6.41725e-05
6.47795e-05
6.41852e-05
5.73537e-05
6.03492e-05
5.62513e-05
6.06029e-05
6.22811e-05
5.49737e-05
6.22991e-05
5.62584e-05
5.49772e-05
5.73507e-05
6.03401e-05
6.41653e-05
6.47757e-05
5.73484e-05
6.41782e-05
6.0347e-05
5.62489e-05
6.06016e-05
5.49727e-05
6.22774e-05
5.62547e-05
5.49761e-05
6.22956e-05
5.62958e-05
6.06125e-05
5.50089e-05
6.23205e-05
5.50262e-05
6.23025e-05
5.62876e-05
5.73532e-05
6.03399e-05
6.41664e-05
6.47748e-05
6.03462e-05
5.73507e-05
6.41793e-05
5.62502e-05
6.06014e-05
5.49827e-05
6.22794e-05
5.49701e-05
5.6258e-05
6.22972e-05
5.73838e-05
6.41993e-05
6.47805e-05
6.03719e-05
6.03676e-05
6.41866e-05
5.73861e-05
5.62941e-05
6.061e-05
5.5008e-05
6.23176e-05
5.50249e-05
6.23e-05
5.62858e-05
5.73518e-05
6.03414e-05
6.41659e-05
6.47772e-05
6.03486e-05
5.73493e-05
6.41789e-05
5.62484e-05
6.0599e-05
5.49817e-05
6.22769e-05
5.49691e-05
5.62563e-05
6.22945e-05
5.73825e-05
6.4199e-05
6.47825e-05
6.0375e-05
6.03701e-05
6.41861e-05
5.7385e-05
3.64649e-05
4.17716e-05
3.64638e-05
7.13539e-05
6.0188e-05
6.95324e-05
6.68976e-05
6.68936e-05
6.95301e-05
6.01878e-05
7.13552e-05
7.01867e-05
7.1341e-05
7.73924e-05
7.73708e-05
7.02007e-05
6.95197e-05
7.00878e-05
5.93341e-05
6.68827e-05
7.11461e-05
5.92839e-05
7.1128e-05
7.01104e-05
7.00368e-05
5.93259e-05
6.68791e-05
7.11353e-05
7.11206e-05
5.92778e-05
7.00578e-05
9.23412e-05
7.2031e-05
7.20364e-05
7.2017e-05
7.20225e-05
9.23534e-05
6.95175e-05
7.01839e-05
7.13422e-05
7.74004e-05
7.73804e-05
7.01987e-05
5.95231e-05
4.17761e-05
5.05058e-05
5.05049e-05
5.04773e-05
5.04775e-05
5.95542e-05
4.80638e-05
5.25191e-05
6.0144e-05
5.85165e-05
5.84577e-05
5.24892e-05
4.80763e-05
4.80652e-05
5.2522e-05
6.0145e-05
5.85182e-05
5.24886e-05
5.84623e-05
4.80782e-05
2.10419e-05
3.66942e-05
3.66986e-05
4.19556e-05
2.18001e-05
3.75998e-05
3.7604e-05
4.26791e-05
2.25767e-05
3.84796e-05
3.84835e-05
4.33737e-05
2.33677e-05
3.93326e-05
3.93361e-05
4.40491e-05
2.41693e-05
4.01576e-05
4.01609e-05
4.46966e-05
2.49776e-05
4.09539e-05
4.09574e-05
4.53145e-05
2.57889e-05
4.17215e-05
4.17251e-05
4.59213e-05
2.65996e-05
4.24602e-05
4.24637e-05
4.64926e-05
2.74064e-05
4.317e-05
4.31737e-05
4.70477e-05
2.8206e-05
4.38509e-05
4.38549e-05
4.75816e-05
2.89956e-05
4.45036e-05
4.45078e-05
4.80896e-05
2.97728e-05
4.5128e-05
4.51322e-05
4.85896e-05
3.05349e-05
4.57247e-05
4.57288e-05
4.90529e-05
3.12798e-05
4.62938e-05
4.62979e-05
4.94978e-05
3.20056e-05
4.68356e-05
4.68398e-05
4.992e-05
3.27108e-05
4.73506e-05
4.73546e-05
5.03192e-05
3.33937e-05
4.78391e-05
4.78431e-05
5.07048e-05
3.40532e-05
4.83016e-05
4.83054e-05
5.107e-05
3.46881e-05
4.87383e-05
4.8742e-05
5.14135e-05
3.52975e-05
4.91496e-05
4.91533e-05
5.17382e-05
3.58806e-05
4.9536e-05
4.95397e-05
5.2045e-05
3.6437e-05
4.98979e-05
4.99015e-05
5.23335e-05
3.6966e-05
5.02357e-05
5.02393e-05
5.26022e-05
3.74673e-05
5.055e-05
5.05534e-05