/*--------------------------------*- C++ -*----------------------------------*\
| =========                 |                                                 |
| \\      /  F ield         | OpenFOAM: The Open Source CFD Toolbox           |
|  \\    /   O peration     | Version:  2312                                  |
|   \\  /    A nd           | Website:  www.openfoam.com                      |
|    \\/     M anipulation  |                                                 |
\*---------------------------------------------------------------------------*/
FoamFile
{
    version     2.0;
    format      ascii;
    arch        "LSB;label=32;scalar=64";
    class       surfaceScalarField;
    location    "600";
    object      phi;
}
// * * * * * * * * * * * * * * * * * * * * * * * * * * * * * * * * * * * * * //

dimensions      [0 3 -1 0 0 0 0];

oriented        oriented;

internalField   nonuniform List<scalar> 
125567
(
-7.0211e-08
-1.24844e-10
-0.000229369
2.11875e-09
2.99827e-08
-6.92834e-09
-1.97185e-08
-9.80153e-05
1.241e-06
-1.22921e-07
2.6911e-07
-2.15102e-07
-1.1937e-06
2.77494e-07
-2.36797e-07
-0.00113202
-5.54553e-08
-8.52599e-07
9.11311e-07
2.08066e-08
4.36113e-08
-0.000245491
-1.02564e-07
-1.67264e-08
-1.63814e-09
-0.00025013
4.02616e-09
-1.9321e-07
-3.14833e-09
-1.53019e-07
-9.38545e-07
8.31123e-07
-7.56614e-07
1.01141e-06
-0.00115229
-7.0189e-08
-0.000229329
2.99666e-08
2.22139e-09
-4.3546e-08
3.23203e-09
-0.000193597
-0.000250104
-1.93196e-07
4.37106e-09
-4.99236e-08
1.27246e-06
-1.28187e-07
-8.57946e-07
2.6902e-07
9.16503e-07
-2.15185e-07
-1.22789e-06
2.80234e-07
-2.4237e-07
-0.00113153
-1.58785e-07
-9.38578e-07
8.31125e-07
-7.56653e-07
1.01141e-06
-0.00115224
2.32408e-08
-1.67523e-08
-0.000245388
-1.0249e-07
-0.000268079
2.41861e-07
2.46807e-07
1.0528e-08
-0.00027816
-4.61717e-08
1.97973e-08
1.05419e-08
-0.000278296
-4.84564e-08
-6.87339e-09
-9.80381e-05
-0.000193654
3.32466e-09
1.2404e-08
-7.71214e-10
0.000143419
-6.87142e-11
-0.00014343
7.07076e-10
-1.11213e-08
4.56284e-11
2.8654e-08
-0.000229387
-0.000223421
2.88716e-08
4.34859e-09
-7.17143e-08
-0.000171124
-3.55841e-10
2.87248e-11
8.66977e-10
3.30104e-08
-0.000223442
1.82578e-11
-0.000171136
1.44628e-09
1.70042e-08
7.9298e-05
-7.93151e-05
-0.000263317
2.42779e-08
-6.16039e-08
3.32103e-08
-0.000263336
4.9977e-09
1.12907e-08
-9.80316e-05
-8.00241e-10
1.23554e-08
0.000143346
-2.84747e-11
-0.000143358
-1.11203e-08
9.57152e-10
2.86537e-08
-0.000229348
-0.000171089
-1.19218e-10
-0.000223323
2.881e-08
4.40953e-09
-6.92216e-08
-0.000171101
9.42954e-10
3.05529e-08
-0.000223341
1.51462e-09
1.69921e-08
7.92537e-05
-7.92707e-05
-0.00026319
2.41485e-08
-5.91178e-08
-3.89983e-09
2.25753e-08
-0.000193611
3.08255e-08
-0.000263206
-7.03041e-09
-7.01349e-09
0.000213784
1.22243e-08
1.01581e-08
-0.000213792
-8.05424e-05
-1.22715e-08
-1.20117e-08
-8.0566e-05
-1.22384e-08
-1.20422e-08
9.38626e-09
-8.05588e-05
9.3977e-09
-8.05824e-05
-2.70444e-08
-2.49752e-08
-1.43152e-08
1.57775e-08
0.000221868
2.90782e-08
-0.000221886
-0.000183016
-3.11576e-08
-7.33092e-09
2.03768e-08
1.21732e-08
-0.000278174
-0.000250575
3.60305e-08
-5.49697e-08
-9.97397e-08
-0.000183028
3.1969e-08
6.12501e-08
-0.000250632
-5.75082e-08
1.57944e-08
-1.42841e-08
0.000221956
3.11925e-08
-0.000221979
-0.000183097
-3.11457e-08
2.25827e-08
-7.31811e-09
-1.13148e-08
9.72133e-09
-0.00027831
-0.000250748
3.6108e-08
-5.24149e-08
-9.97697e-08
2.93899e-08
6.11648e-08
-0.000250801
-0.00018311
-5.95797e-08
4.98136e-09
-9.80544e-05
2.25504e-08
-0.000193668
-3.88801e-09
2.30541e-09
-0.00121558
-1.00054e-07
-7.52138e-08
-0.00118363
-1.03977e-07
-0.0012147
-1.17959e-07
6.40303e-08
-0.000245527
4.01804e-09
-0.000260376
-2.74044e-08
-0.000260506
8.00724e-09
-1.5304e-07
1.56386e-09
0.000265679
-1.05879e-08
-0.000266455
4.61317e-10
1.32114e-07
3.36953e-10
-0.000250234
-0.000249561
-2.11787e-07
1.03255e-08
-0.000265854
7.03152e-09
-6.58009e-09
7.65788e-10
-0.000249682
3.90096e-09
-0.000266481
2.7042e-08
-1.39134e-07
0.000264002
-0.000264719
-0.000250757
-1.86137e-07
-0.000250855
-2.27201e-09
-1.5042e-07
0.000265609
2.24223e-09
-0.000266398
1.32124e-07
1.41951e-09
-0.000250208
-0.000265836
5.59275e-09
-0.000249476
-2.11722e-07
1.04112e-08
-0.000266459
8.07521e-10
-0.000249595
1.42771e-08
-1.36676e-07
0.000263902
-8.06899e-09
-0.000264613
-0.000250651
-1.88616e-07
4.02039e-09
6.16764e-08
-0.000245419
-2.74362e-08
-0.000260269
-0.000250752
-0.000260398
7.49153e-08
7.75178e-08
0.00024288
-0.000242972
-2.0319e-07
-1.98245e-07
-0.000270099
-0.000261131
1.12526e-07
-0.000260783
1.09922e-07
-0.000261087
-0.000261433
1.19247e-07
1.19639e-07
-7.10373e-08
-7.10595e-08
0.00118445
-0.00118455
-1.19688e-06
-1.19625e-07
-5.42782e-08
0.00113224
-2.3705e-07
1.24124e-06
2.74917e-07
9.11281e-07
-2.15429e-07
2.69181e-07
-8.53082e-07
-0.00113226
-1.1942e-06
-1.19642e-07
-4.86227e-08
0.0011321
-2.34316e-07
1.23849e-06
2.74916e-07
9.11265e-07
-2.15451e-07
2.69222e-07
-8.53055e-07
-0.00113213
1.22548e-06
1.18892e-06
-1.98238e-07
-2.00935e-07
0.000268045
-0.000270061
1.21956e-07
1.28076e-07
-0.00118417
-7.43188e-08
-7.43692e-08
-0.00113216
-1.19651e-06
-1.224e-07
-3.87198e-08
-2.36835e-07
1.24108e-06
2.74758e-07
9.112e-07
-2.15188e-07
-8.52608e-07
2.69111e-07
-0.00113203
-1.19377e-06
-1.2234e-07
-6.6452e-08
-2.36832e-07
1.23834e-06
2.74798e-07
9.11279e-07
-2.15159e-07
-8.52677e-07
2.69133e-07
-0.000270066
1.22771e-06
1.18316e-06
-1.92875e-07
-2.03321e-07
0.000268051
1.23635e-06
1.19444e-06
-1.9574e-07
-2.03509e-07
0.000268099
-0.000270131
-1.28051e-06
-1.23859e-06
0.000270136
-0.000268103
2.39189e-07
2.47085e-07
-4.85335e-08
0.00113168
-2.39797e-07
1.2806e-06
2.77521e-07
9.13964e-07
-2.12757e-07
2.66371e-07
-8.55893e-07
-0.00113171
-1.23379e-06
-1.19273e-07
-4.84357e-08
0.00113175
-2.42681e-07
1.27803e-06
2.80352e-07
9.19137e-07
-2.15465e-07
2.69084e-07
-8.60995e-07
-0.00113178
0.00113162
-1.21302e-07
-0.00113164
-4.93822e-08
-1.23603e-06
2.77433e-07
-2.39599e-07
-8.55566e-07
2.66331e-07
-2.1252e-07
9.13967e-07
1.27522e-06
0.00113169
-1.21462e-07
-0.0011317
-4.93723e-08
-1.23347e-06
2.7753e-07
-2.4247e-07
-8.60647e-07
2.69067e-07
-2.15215e-07
9.16495e-07
-1.98394e-07
-2.00839e-07
0.000268084
-0.000270116
-1.24113e-06
0.000270119
-0.000268089
2.41976e-07
2.4434e-07
-4.85354e-08
0.00113269
-2.37218e-07
1.23869e-06
2.75017e-07
9.16643e-07
-2.15486e-07
2.69283e-07
-8.58388e-07
-0.00113271
-1.22837e-06
-1.19276e-07
-4.85124e-08
0.00113162
-2.42662e-07
1.27259e-06
2.80359e-07
9.16539e-07
-2.12793e-07
2.66415e-07
-8.58448e-07
-0.00113165
0.00113261
-1.21704e-07
-0.00113264
-4.93509e-08
-1.19412e-06
2.74933e-07
-2.37025e-07
-8.58073e-07
2.69239e-07
-2.15272e-07
9.16642e-07
1.27252e-06
0.00113155
-1.27013e-07
-0.00113157
-4.93939e-08
-1.22806e-06
2.80274e-07
-2.42461e-07
-8.58118e-07
2.66361e-07
-2.12568e-07
9.16539e-07
-1.19467e-07
-4.85433e-08
0.00113125
-2.3977e-07
1.26971e-06
2.7751e-07
9.08464e-07
-2.09959e-07
2.6369e-07
-8.50326e-07
-0.00113128
-1.21793e-07
-0.00113219
-4.39461e-08
-1.19658e-06
2.74821e-07
-2.36856e-07
-8.52711e-07
2.69134e-07
9.11323e-07
-2.15184e-07
1.26961e-06
0.00113118
-1.21339e-07
-0.00113121
-4.94039e-08
-1.22518e-06
2.77432e-07
-2.39596e-07
-8.50043e-07
2.66308e-07
-2.09789e-07
9.08429e-07
-1.9846e-07
-2.03438e-07
0.000268068
-0.000270089
-1.23836e-06
0.000270097
-0.000268075
2.41979e-07
2.46911e-07
-1.19622e-07
-4.8592e-08
0.00113224
-2.3717e-07
1.23319e-06
2.74981e-07
9.13722e-07
-2.15444e-07
2.69219e-07
-8.55451e-07
-0.00113227
-1.21677e-07
-0.00113205
-5.49845e-08
-1.19119e-06
2.74822e-07
-2.3689e-07
-8.52754e-07
2.69152e-07
9.11314e-07
-2.15229e-07
1.23306e-06
0.00113215
-1.21795e-07
-0.0011322
-3.2643e-08
-1.18859e-06
2.74843e-07
-2.3696e-07
-8.55199e-07
2.69127e-07
-2.15226e-07
9.13801e-07
-0.00026805
2.41729e-07
2.44456e-07
1.23594e-06
1.19403e-06
-1.95551e-07
-2.03328e-07
0.000268105
-5.52465e-08
-2.39581e-07
1.28048e-06
2.77425e-07
9.13937e-07
-2.15207e-07
-8.55475e-07
2.69002e-07
-1.2307e-06
-1.2184e-07
-4.39882e-08
-2.39698e-07
1.2752e-06
2.77483e-07
9.16449e-07
-2.15203e-07
-8.57943e-07
2.68985e-07
-1.9823e-07
-2.00677e-07
0.00026809
-4.96385e-08
-2.36977e-07
1.23857e-06
2.749e-07
9.16649e-07
-2.1518e-07
-8.57979e-07
2.69216e-07
-1.22797e-06
-1.27665e-07
-4.96903e-08
-2.42397e-07
1.2725e-06
2.80265e-07
9.1653e-07
-2.12502e-07
-8.58027e-07
2.69047e-07
-1.44971e-07
-4.39861e-08
0.00113117
-2.42267e-07
1.26956e-06
2.80223e-07
9.11189e-07
-2.12392e-07
2.69018e-07
-8.49899e-07
-1.98273e-07
-2.03223e-07
0.000268077
-1.22259e-07
-1.56552e-08
0.00113208
-2.31451e-07
1.23842e-06
2.74867e-07
9.13835e-07
-2.15132e-07
2.69104e-07
-8.55135e-07
-1.26618e-10
-7.02683e-08
0.000229341
3.00632e-08
1.96674e-09
-0.000229303
-5.08673e-09
2.2559e-08
0.000193573
-3.78969e-09
-0.000193587
6.79286e-09
-4.37494e-08
0.000193627
3.41576e-09
-0.000193593
5.02918e-11
2.88315e-08
0.000229283
-1.1151e-08
1.19009e-09
-0.000229302
5.1491e-09
1.34563e-08
9.79676e-05
-9.79862e-05
-6.76923e-09
-2.23179e-08
9.80072e-05
-9.79781e-05
-7.02773e-08
-1.22675e-10
0.000229329
1.88273e-09
3.00684e-08
-0.00022929
-5.15825e-09
2.25205e-08
0.000193556
-3.68301e-09
-0.00019357
6.78187e-09
-4.37908e-08
0.000193609
3.4724e-09
-0.000193576
2.88363e-08
1.82575e-10
0.000229271
1.13141e-09
-1.11475e-08
-0.00022929
-7.1053e-08
-7.10347e-08
0.00118423
-0.00118433
-7.11111e-08
-7.10833e-08
0.00118399
-0.00118409
-7.11399e-08
-7.12282e-08
0.00118396
-0.00118406
-0.00118427
-7.93488e-08
-6.76929e-08
0.00118394
-0.00118404
-7.36259e-08
-6.78158e-08
0.00118371
-0.0011838
-7.36563e-08
-7.93566e-08
0.00118366
-0.00118377
-7.36721e-08
-6.21336e-08
7.01533e-08
-1.53717e-09
0.00025019
3.77348e-09
-1.93091e-07
-0.000250069
-1.22529e-08
-2.24879e-08
6.64946e-08
0.000245407
6.57782e-09
-0.000245445
0.00115237
3.70007e-09
-1.40168e-07
1.00565e-06
-7.52198e-07
8.27974e-07
-9.31436e-07
-0.00115244
-4.3336e-08
1.24121e-06
0.00113221
-1.20401e-07
-8.52915e-07
2.69172e-07
-2.15333e-07
9.11331e-07
-1.19676e-06
2.74891e-07
-2.36967e-07
2.32205e-08
4.37373e-08
0.000245483
-1.91627e-08
-0.000245426
-1.05113e-07
-3.317e-09
0.00115233
-1.41747e-07
-9.33876e-07
8.25338e-07
-7.54684e-07
1.00307e-06
-2.87033e-08
1.54588e-09
0.000250056
2.17055e-09
1.32596e-07
-0.000250164
5.12802e-09
1.1151e-08
9.7963e-05
-9.79793e-05
-6.82968e-09
-1.99388e-08
9.80003e-05
-9.79736e-05
-8.655e-10
7.01401e-08
0.00025018
-1.93076e-07
3.86625e-09
-0.00025006
0.00115219
3.1096e-09
-1.40182e-07
1.0057e-06
-7.54975e-07
8.27967e-07
-9.34179e-07
-0.00115225
-1.22205e-08
-2.25076e-08
6.41292e-08
0.000245398
4.14207e-09
-0.000245432
-4.88501e-08
1.23575e-06
0.00113207
-1.20358e-07
-8.52965e-07
2.6919e-07
-2.1537e-07
9.11317e-07
-1.19138e-06
2.74883e-07
-2.37014e-07
-4.85581e-09
0.00115215
-1.41665e-07
-9.3393e-07
8.28051e-07
-7.54736e-07
1.00577e-06
2.31581e-08
4.37611e-08
0.00024547
-1.67301e-08
-0.000245417
-1.02728e-07
7.65027e-10
-2.87433e-08
0.000250047
1.32649e-07
2.31362e-09
-0.000250154
1.22697e-08
-1.11797e-08
2.48584e-08
0.000278111
-7.01554e-09
-0.00027813
1.22928e-08
-1.11468e-08
2.2544e-08
0.000278036
-7.53054e-09
-0.000278053
-1.26969e-06
-1.23316e-06
0.000270063
-0.000268047
2.41852e-07
2.44595e-07
-2.31707e-08
1.99964e-08
0.000278181
9.95172e-09
-0.000278137
-5.10231e-08
-2.32143e-08
1.99685e-08
0.000278103
1.05077e-08
-0.000278062
-4.87227e-08
-0.000193666
-4.97578e-09
2.26097e-08
-3.9208e-09
0.000193652
-0.00022938
3.28659e-11
2.86818e-08
0.000229361
-1.11164e-08
1.21451e-09
-9.80281e-05
5.03703e-09
1.35753e-08
9.80095e-05
-0.000193649
-5.03543e-09
2.25493e-08
-3.81778e-09
0.000193635
-0.000229368
2.86799e-08
1.92163e-10
0.000229349
9.29409e-10
-1.11264e-08
-6.27778e-08
-5.11372e-08
-7.44901e-08
-9.75704e-08
-3.92889e-08
-4.53089e-08
0.00118348
7.00768e-08
-8.37534e-10
-0.000250126
3.03629e-09
-1.93137e-07
-0.000245519
-1.21408e-08
-2.25169e-08
6.64294e-08
4.02748e-09
0.000245483
0.00115217
-0.00115222
1.37166e-08
-1.51763e-07
1.00592e-06
-7.54006e-07
-9.33266e-07
8.28278e-07
-0.000250217
-2.85373e-08
1.74491e-09
0.000250109
1.95198e-09
1.32112e-07
2.56886e-08
-1.70416e-07
-9.33063e-07
8.31119e-07
-7.53796e-07
1.00879e-06
-9.80212e-05
5.02056e-09
1.12627e-08
9.80049e-05
-1.68993e-09
7.0068e-08
-0.000250114
-1.93097e-07
4.11237e-09
0.00115201
-0.00115205
-2.25967e-08
-1.45989e-07
1.00591e-06
-7.54068e-07
-9.33351e-07
8.28253e-07
-0.000245508
-1.21328e-08
-2.25276e-08
6.4026e-08
4.0441e-09
0.000245475
-0.000250207
2.86652e-10
-2.85792e-08
0.0002501
1.32166e-07
2.3485e-09
-5.79715e-08
-1.53099e-07
-9.33161e-07
8.28302e-07
-7.51159e-07
1.00598e-06
-0.000278232
1.21995e-08
-1.1303e-08
2.26323e-08
-6.89505e-09
0.000278215
-0.000278154
1.21832e-08
-1.12654e-08
2.25943e-08
-7.38602e-09
0.000278138
-1.26472e-06
-1.30802e-06
-0.000268073
2.54522e-07
2.41867e-07
-2.32038e-08
1.97903e-08
1.05502e-08
-0.000278243
-4.84731e-08
-2.32365e-08
1.97661e-08
1.06114e-08
-0.000278163
-4.852e-08
1.12534e-08
9.79902e-05
-9.80066e-05
-2.00318e-08
9.80276e-05
-9.80007e-05
1.11656e-08
9.79792e-05
-9.79955e-05
-2.00238e-08
9.80165e-05
-9.79897e-05
1.22028e-08
2.48846e-08
0.000278161
-9.54774e-09
-0.000278177
9.90333e-09
2.48005e-08
0.000278093
-6.9796e-09
-0.000278109
0.000270133
-1.28058e-06
-1.23866e-06
-0.0002681
2.39316e-07
2.47207e-07
0.000278228
-2.31391e-08
1.2509e-08
-0.000278186
-5.09944e-08
0.00027816
-2.08034e-08
9.93992e-09
-0.000278118
-5.10229e-08
-1.99232e-08
-6.83837e-09
9.80484e-05
-9.80217e-05
1.13119e-08
5.02741e-09
9.80112e-05
-1.99158e-08
-6.82675e-09
9.80374e-05
-9.80107e-05
1.12237e-08
5.09701e-09
9.80002e-05
1.23611e-06
1.19421e-06
0.000268102
-1.95628e-07
-2.03393e-07
-2.31494e-08
0.000278278
-5.08833e-08
-0.000278237
1.25564e-08
-2.08158e-08
0.000278211
-5.09148e-08
-0.000278169
9.99072e-09
1.21427e-08
-9.47689e-09
2.49117e-08
0.000278211
9.8465e-09
-6.90815e-09
2.4825e-08
0.000278143
-7.02722e-08
0.000229301
3.00594e-08
2.10974e-09
-0.000229263
2.47192e-08
0.00019351
-3.82541e-09
-0.000193525
-4.59577e-08
0.000193565
3.59103e-09
-0.00019353
2.88301e-08
0.000229244
-1.11456e-08
9.07904e-10
-0.000229262
-9.05505e-10
0.000250204
3.111e-09
-1.93165e-07
-0.000250083
6.65471e-08
0.000245408
4.11544e-09
-0.000245444
0.00115266
3.46082e-09
-1.39982e-07
1.00859e-06
-7.57777e-07
8.3078e-07
-9.37085e-07
-0.00115271
-4.88395e-08
0.00113166
-1.19963e-07
-1.23622e-06
2.77496e-07
-2.39722e-07
-8.55767e-07
2.66359e-07
-2.12667e-07
9.13971e-07
0.000245482
-1.67077e-08
-0.000245427
-1.05057e-07
-4.04698e-09
0.00115261
-1.4151e-07
-9.36842e-07
8.3088e-07
-7.57528e-07
1.00868e-06
8.22267e-10
0.00025007
2.89012e-09
1.32693e-07
-0.000250178
0.000250176
4.71539e-09
-1.93172e-07
-0.000250059
-1.22189e-08
6.65254e-08
0.000245306
4.07644e-09
-0.00024534
0.0011526
-1.39989e-07
1.01381e-06
-7.57744e-07
8.30762e-07
-9.42266e-07
-0.00115265
-4.88127e-08
0.00113173
1.278e-06
-1.20112e-07
-8.60855e-07
2.69083e-07
9.1916e-07
-2.15357e-07
-1.23366e-06
2.80324e-07
-2.42596e-07
0.000245378
2.30525e-08
-1.65812e-08
-0.000245325
-1.05068e-07
0.00115254
-1.41543e-07
-9.4204e-07
8.30851e-07
-7.57495e-07
1.01389e-06
0.000250046
1.15899e-09
1.32693e-07
-0.00025015
4.63881e-11
2.87434e-08
-1.11311e-08
1.19926e-09
0.000229322
-4.36745e-08
-0.000193633
3.35015e-09
2.25704e-08
-3.85445e-09
0.000193613
-1.3475e-10
-7.02383e-08
-0.000229342
3.00177e-08
1.97619e-09
2.87402e-08
-1.11271e-08
9.19287e-10
0.000229282
-4.58861e-08
6.81496e-09
0.000193605
-0.000193569
3.52714e-09
2.47274e-08
-5.08924e-09
-3.89075e-09
0.000193549
-7.02453e-08
0.00022934
-0.000229302
3.00243e-08
2.11616e-09
8.11887e-10
2.90685e-09
1.32443e-07
0.000250097
-5.47225e-08
-1.20702e-07
1.28055e-06
-2.3966e-07
2.77465e-07
9.13975e-07
-2.12586e-07
2.66343e-07
-8.55664e-07
0.00024552
-1.0497e-07
-0.000245465
-1.67227e-08
-0.00115255
-4.97695e-09
0.0011525
-1.44411e-07
-9.36419e-07
8.31028e-07
-7.57072e-07
1.0088e-06
4.06096e-09
6.64857e-08
0.000245446
2.99144e-09
-1.4303e-07
1.00873e-06
-7.57303e-07
-9.36645e-07
8.30954e-07
-9.46856e-10
0.000250231
-0.00025011
3.36192e-09
-1.93189e-07
1.17587e-09
1.32439e-07
0.000250072
-4.90303e-08
-1.23357e-06
-1.20692e-07
9.19147e-07
-2.15304e-07
-8.60781e-07
2.69045e-07
1.27797e-06
-2.42559e-07
2.80292e-07
2.30723e-08
0.000245416
-1.04989e-07
-0.000245363
-1.65912e-08
-0.00115249
0.00115244
-1.4444e-07
-9.41601e-07
8.31006e-07
-7.57033e-07
1.01129e-06
-1.21646e-08
4.02123e-09
6.64687e-08
0.000245344
-1.43036e-07
1.01395e-06
-7.57264e-07
-9.41827e-07
8.3092e-07
0.000250203
-0.000250086
4.48308e-09
-1.93202e-07
2.25019e-08
0.000278036
-7.62385e-09
-0.000278049
-1.11816e-08
2.4854e-08
0.000278176
-6.96486e-09
-0.000278195
0.000270118
-0.000268086
2.42119e-07
2.44467e-07
0.0002781
1.04713e-08
-0.000278061
-4.8682e-08
1.99834e-08
0.000278245
1.00105e-08
-0.000278201
-5.10537e-08
5.16812e-09
9.7986e-05
-9.80023e-05
9.80233e-05
-6.84898e-09
-9.79965e-05
-2.22114e-08
-9.79991e-05
1.35138e-08
9.79886e-05
1.19667e-06
0.000268087
-1.98302e-07
-2.00739e-07
0.00027815
-4.85727e-08
-0.000278112
1.05246e-08
1.98685e-08
-2.32287e-08
0.000278296
-5.093e-08
-0.000278252
1.00622e-08
-7.55624e-09
2.25297e-08
0.000278086
-1.12345e-08
1.21954e-08
-6.89924e-09
2.4882e-08
0.000278226
-6.89333e-09
9.80442e-05
-9.80175e-05
5.10491e-09
9.8007e-05
-1.64922e-09
0.000250197
3.75981e-09
-1.9577e-07
-0.000250074
6.41435e-08
0.000245371
6.64519e-09
-0.00024541
0.00115249
3.7178e-09
-1.40087e-07
1.01113e-06
-7.57732e-07
8.30751e-07
-9.39597e-07
-0.00115255
-4.88107e-08
0.00113266
-1.20362e-07
-1.19432e-06
2.74984e-07
-2.37152e-07
-8.58258e-07
2.69268e-07
-2.15402e-07
9.16647e-07
0.000245448
-1.91624e-08
-0.00024539
-1.0278e-07
-3.55654e-09
0.00115244
-1.41588e-07
-9.39356e-07
8.30844e-07
-7.57483e-07
1.01121e-06
1.68618e-09
0.000250061
2.13135e-09
1.35282e-07
-0.000250171
-7.02544e-08
0.000229289
3.00406e-08
2.2163e-09
-0.000229251
2.25238e-08
0.000193498
-3.75789e-09
-0.000193512
-4.37017e-08
0.000193552
3.37556e-09
-0.000193518
2.88352e-08
0.000229232
-1.11424e-08
9.22032e-10
-0.00022925
0.000250167
-1.95757e-07
4.34187e-09
-0.000250047
0.00115243
-1.40053e-07
1.01116e-06
-7.57771e-07
8.30758e-07
-9.39627e-07
-0.00115248
-1.22905e-08
6.17634e-08
0.000245293
4.14513e-09
-0.000245324
-4.8825e-08
0.00113159
1.27258e-06
-1.19968e-07
-8.58318e-07
2.66399e-07
9.16543e-07
-2.12713e-07
-1.22826e-06
2.80334e-07
-2.42584e-07
0.00115237
-1.41524e-07
-9.39386e-07
8.30846e-07
-7.57524e-07
1.01122e-06
0.000245362
2.32257e-08
-1.67577e-08
-0.000245312
-1.00241e-07
0.000250034
1.35299e-07
1.62567e-09
-0.000250141
2.87481e-08
1.89678e-10
1.13921e-09
-1.11379e-08
0.00022931
-4.37092e-08
-0.000193616
3.40362e-09
2.25336e-08
-3.7543e-09
0.000193596
-7.02524e-08
-1.19974e-10
-0.00022933
2.11379e-09
3.0026e-08
1.69594e-09
2.14601e-09
1.32432e-07
0.00025009
-4.91267e-08
-1.21085e-07
1.23863e-06
-2.37079e-07
2.74962e-07
9.16636e-07
-2.15324e-07
2.69257e-07
-8.58143e-07
0.000245486
-1.02694e-07
-0.000245428
-1.91716e-08
-0.00115238
-3.36711e-09
0.00115234
-1.50337e-07
-9.38941e-07
8.31004e-07
-7.57018e-07
1.01135e-06
6.58953e-09
6.4084e-08
0.000245409
3.82847e-09
-1.43142e-07
1.01127e-06
-7.57249e-07
-9.3915e-07
8.30925e-07
-1.64618e-09
0.000250224
-0.000250103
4.01384e-09
-1.93201e-07
2.87445e-08
-1.11272e-08
9.3732e-10
0.000229271
-4.36323e-08
6.87867e-09
0.000193591
-0.000193558
3.30656e-09
2.25368e-08
-5.07364e-09
-3.82151e-09
0.000193538
-7.02325e-08
0.000229328
-0.00022929
3.00134e-08
2.22186e-09
1.3245e-07
1.64881e-09
0.000250063
-4.91328e-08
-1.22814e-06
-1.2071e-07
9.16548e-07
-2.12628e-07
-8.58211e-07
2.66385e-07
1.27255e-06
-2.42516e-07
2.80308e-07
-0.00115233
0.00115228
-1.50252e-07
-9.38972e-07
8.31004e-07
-7.57056e-07
1.01135e-06
2.32432e-08
0.0002454
-1.00159e-07
-0.00024535
-1.67755e-08
-1.43099e-07
1.01128e-06
-7.57287e-07
-9.39178e-07
8.30928e-07
-1.22399e-08
4.0879e-09
6.17068e-08
0.000245331
0.000250194
-0.000250077
-1.93188e-07
4.35047e-09
-4.08371e-11
0.000229324
2.06454e-09
3.21205e-08
-0.000229288
0.00019356
-3.60664e-09
-0.000193574
0.000193613
3.31544e-09
-0.00019358
4.583e-11
0.000229269
1.01388e-09
-1.31994e-08
-0.000229285
7.02143e-08
0.000250157
-1.90517e-07
4.54526e-09
-0.000250043
0.00115229
-1.40205e-07
1.00565e-06
-7.54961e-07
8.27997e-07
-9.341e-07
-0.00115234
-2.2493e-08
6.64543e-08
0.000245328
4.17024e-09
-0.000245364
-4.88152e-08
0.00113122
-1.1433e-07
-1.22538e-06
2.77474e-07
-2.39717e-07
-8.50229e-07
2.63656e-07
-2.09911e-07
9.08457e-07
0.00115222
-1.35815e-07
-9.33863e-07
8.28083e-07
-7.54714e-07
1.00572e-06
4.3725e-08
0.000245402
-1.6718e-08
-0.000245347
-1.0503e-07
-2.87787e-08
0.00025003
1.30042e-07
1.39344e-09
-0.000250131
0.000229287
3.00392e-08
2.20717e-09
-0.000229249
-5.13183e-09
0.000193503
-3.70727e-09
-0.000193517
0.000193557
6.7969e-09
3.41531e-09
-0.000193523
0.000229229
-1.11337e-08
8.70505e-10
-0.000229248
-2.86147e-08
1.58009e-09
2.18001e-09
1.32339e-07
0.000250082
-5.48774e-08
-1.21078e-07
1.24118e-06
-2.36925e-07
2.74857e-07
9.11294e-07
-2.15266e-07
-8.52866e-07
2.69152e-07
4.3654e-08
-1.05029e-07
-0.000245464
-1.67371e-08
-0.00115226
-4.95174e-10
-1.44676e-07
-9.33433e-07
8.28229e-07
1.0059e-06
-7.54208e-07
-2.24914e-08
6.52398e-09
6.64349e-08
0.000245445
4.49121e-09
-1.43235e-07
1.0058e-06
-7.51712e-07
-9.30994e-07
8.28138e-07
7.01263e-08
-1.41017e-09
-0.000250096
3.53472e-09
-1.93122e-07
6.22392e-11
1.02136e-09
-1.31821e-08
0.000229308
0.000193653
-0.00019362
3.25217e-09
-3.67475e-09
0.0001936
3.36576e-13
0.000229363
-0.000229327
1.84621e-09
3.20783e-08
-2.8695e-08
1.29784e-07
1.41202e-09
0.000250056
-4.91566e-08
-1.22524e-06
-1.26633e-07
9.08481e-07
-2.09783e-07
-8.50089e-07
2.63663e-07
1.26965e-06
-2.39625e-07
2.77456e-07
-0.00115218
0.00115213
-1.44536e-07
-9.33445e-07
8.28227e-07
-7.54249e-07
1.00584e-06
4.36637e-08
2.32139e-08
0.00024544
-1.02557e-07
-0.000245387
-1.6716e-08
-1.49088e-07
1.00579e-06
-7.54471e-07
-9.33653e-07
8.28158e-07
-2.25041e-08
-1.22079e-08
4.10886e-09
6.63878e-08
0.000245366
7.01906e-08
0.000250187
-0.00025007
-1.93137e-07
4.32418e-09
-1.11143e-08
8.87928e-10
0.000229268
6.84296e-09
0.000193596
-0.000193563
3.35299e-09
-5.06972e-09
-3.78274e-09
0.000193543
0.000229326
-0.000229288
2.99919e-08
2.21981e-09
2.02874e-08
0.000278034
-7.49787e-09
-0.000278048
-1.11784e-08
2.25666e-08
0.00027817
-1.0083e-08
-0.000278184
0.000270091
-0.000268072
2.42116e-07
2.47036e-07
0.000278098
1.04408e-08
-0.000278059
-4.64033e-08
2.00028e-08
0.000278234
1.30406e-08
-0.000278195
-4.87508e-08
5.12785e-09
9.79858e-05
-9.80021e-05
9.80231e-05
-6.78958e-09
-9.79963e-05
-1.98304e-08
-9.79945e-05
1.12067e-08
9.7984e-05
1.19127e-06
0.000268074
-1.98352e-07
-2.03305e-07
0.000278149
-4.62909e-08
-0.00027811
1.04885e-08
1.98992e-08
-2.31745e-08
0.000278285
-4.86442e-08
-0.000278246
1.31068e-08
-7.42935e-09
2.03134e-08
0.000278084
-1.12287e-08
1.21721e-08
-1.00202e-08
2.25889e-08
0.000278221
-6.82528e-09
9.8044e-05
-9.80173e-05
5.06634e-09
9.80068e-05
7.00805e-08
0.000250153
-1.9306e-07
4.99386e-09
-0.000250035
0.00115212
-1.4017e-07
1.00812e-06
-7.54927e-07
8.27925e-07
-9.36611e-07
-0.00115217
-2.24942e-08
6.41094e-08
0.000245295
4.21519e-09
-0.000245329
-4.88908e-08
0.00113222
-1.20421e-07
-1.18879e-06
2.74952e-07
-2.37082e-07
-8.55335e-07
2.69181e-07
-2.15372e-07
9.13789e-07
0.00115207
-1.41673e-07
-9.36375e-07
8.28018e-07
-7.54676e-07
1.0082e-06
4.37524e-08
0.000245367
-1.67577e-08
-0.000245314
-1.02724e-07
-2.86807e-08
0.000250022
1.32623e-07
9.09082e-10
-0.000250126
-1.9072e-10
0.000229316
2.27631e-09
3.21075e-08
-0.00022928
0.000193555
-3.72142e-09
-0.000193569
0.000193609
3.44419e-09
-0.000193575
1.35778e-10
0.000229261
8.1002e-10
-1.32253e-08
-0.000229277
0.000229276
2.18126e-09
3.41909e-08
-0.000229243
-5.17343e-09
0.000193496
-3.63784e-09
-0.000193509
0.000193549
6.83424e-09
3.38227e-09
-0.000193515
0.000229223
8.55195e-10
-1.53066e-08
-0.000229237
6.8837e-10
-2.86543e-08
1.32387e-07
2.09322e-09
0.000250073
-4.91978e-08
-1.21093e-07
1.23572e-06
-2.36937e-07
2.74862e-07
9.11323e-07
-2.15285e-07
-8.52857e-07
2.69181e-07
-0.00115209
-1.32666e-08
-1.44549e-07
-9.33519e-07
8.28202e-07
1.0059e-06
-7.54269e-07
4.36786e-08
-1.02641e-07
-0.000245455
-1.67365e-08
2.07774e-10
-1.43232e-07
1.00583e-06
-7.54488e-07
-9.33736e-07
8.28131e-07
-2.25097e-08
4.09396e-09
6.40628e-08
0.000245436
-1.21795e-09
7.01169e-08
-0.000250086
-1.93099e-07
4.11185e-09
-2.85909e-08
1.32366e-07
6.8845e-10
0.000250049
-4.92621e-08
-1.18869e-06
-1.21092e-07
9.13787e-07
-2.15265e-07
-8.55272e-07
2.69165e-07
1.23312e-06
-2.37021e-07
2.74918e-07
-0.00115201
0.00115197
-1.4454e-07
-9.35946e-07
8.28184e-07
-7.54201e-07
1.00838e-06
4.36758e-08
2.32268e-08
0.000245405
-1.02632e-07
-0.000245353
-1.67738e-08
-1.43192e-07
1.00826e-06
-7.54443e-07
-9.36164e-07
8.28092e-07
-2.25057e-08
-1.22361e-08
4.15844e-09
6.40462e-08
0.000245333
7.00508e-08
0.000250179
-0.000250062
-1.93087e-07
4.75806e-09
1.10312e-10
8.19198e-10
-1.32056e-08
0.0002293
0.000193648
-0.000193615
3.38764e-09
-3.78712e-09
0.000193595
-2.9343e-10
0.000229355
-0.000229319
2.2834e-09
3.20691e-08
6.45698e-10
-1.52861e-08
0.000229262
6.87979e-09
0.000193589
-0.000193555
3.31231e-09
-5.11272e-09
-3.70632e-09
0.000193535
0.000229315
-0.000229282
2.18862e-09
3.41483e-08
9.79657e-05
-9.7982e-05
9.8003e-05
-9.79762e-05
9.79619e-05
-9.79782e-05
9.79992e-05
-9.79724e-05
0.000268048
-1.98132e-07
-2.0082e-07
1.98956e-08
-4.86219e-08
-0.00027819
1.00072e-08
1.98583e-08
-4.86071e-08
-0.000278112
1.05615e-08
-1.12331e-08
-6.94984e-09
2.48845e-08
0.000278162
-1.12031e-08
-7.45979e-09
2.25658e-08
0.000278087
9.80239e-05
-9.79971e-05
9.79867e-05
9.80201e-05
-9.79933e-05
9.79829e-05
1.13731e-08
9.80321e-05
1.12889e-08
9.80211e-05
1.21028e-08
2.49589e-08
-9.41661e-09
0.000278262
9.79717e-09
2.48717e-08
-6.8468e-09
0.000278194
2.47545e-08
-3.95078e-09
0.000193589
2.86801e-08
0.000229322
-1.11203e-08
9.31021e-10
6.64875e-08
4.00172e-09
0.000245484
1.33232e-09
-1.45828e-07
1.0088e-06
-7.56897e-07
-9.36246e-07
8.31074e-07
7.71723e-10
0.000250124
2.67618e-09
1.32233e-07
-1.21164e-08
6.64478e-08
3.9673e-09
0.000245382
-1.45796e-07
1.01132e-06
-7.56852e-07
-9.38706e-07
8.31054e-07
0.000250099
1.42348e-09
1.32232e-07
2.25824e-08
-7.49283e-09
0.000278137
-1.12979e-08
2.49273e-08
-6.8311e-09
0.000278277
5.04804e-09
6.40418e-08
6.55067e-09
0.000245447
4.10086e-09
-1.51751e-07
1.0114e-06
-7.56816e-07
-9.38761e-07
8.31047e-07
1.69985e-09
0.000250117
1.91561e-09
1.32207e-07
2.25588e-08
-3.87732e-09
0.000193578
2.86804e-08
0.00022931
-1.11232e-08
9.52863e-10
-1.51709e-07
1.0114e-06
-7.56857e-07
-9.38786e-07
8.31048e-07
-1.21899e-08
6.16713e-08
4.04355e-09
0.000245369
0.00025009
1.32228e-07
1.66374e-09
1.36382e-10
-0.000229366
3.20267e-08
-3.7431e-09
0.000193639
1.16727e-10
0.000229347
1.03716e-09
-1.31648e-08
7.01304e-08
-0.000250097
-1.95726e-07
4.56315e-09
0.00115211
-1.63391e-07
1.0059e-06
-7.51302e-07
8.28272e-07
-9.30531e-07
-2.25597e-08
6.15733e-08
6.49337e-09
0.000245407
-4.38873e-08
-3.60912e-07
-1.23307e-06
2.74812e-07
-2.44907e-07
-8.4725e-07
2.7166e-07
-2.09667e-07
9.13793e-07
-2.86228e-08
0.000250083
1.32145e-07
1.66216e-09
-1.99137e-07
-9.30355e-07
8.31071e-07
-7.53846e-07
1.00866e-06
4.35855e-08
-1.91572e-08
-0.000245426
-1.04891e-07
-0.000229327
2.99381e-08
2.21984e-09
-5.01691e-09
-3.8535e-09
0.000193583
0.000229308
-1.10975e-08
9.05552e-10
6.88764e-09
3.29529e-09
-0.000193602
2.03537e-08
-7.36237e-09
0.000278135
-1.12796e-08
2.25979e-08
-7.34768e-09
0.000278269
5.00751e-09
9.80277e-05
7.00086e-08
-0.00025009
-1.93103e-07
3.80492e-09
0.00115193
-1.51789e-07
1.00847e-06
-7.54001e-07
8.2825e-07
-9.35797e-07
-2.25298e-08
6.40129e-08
4.09943e-09
0.000245372
1.48719e-07
-1.44806e-07
-1.15597e-06
2.83185e-07
-2.28575e-07
-8.52303e-07
2.69109e-07
-2.15098e-07
9.1397e-07
-2.85209e-08
0.000250075
1.32138e-07
4.63337e-10
-1.94677e-07
-9.32852e-07
8.28328e-07
-7.51064e-07
1.00861e-06
4.35977e-08
-1.678e-08
-0.000245391
-1.02549e-07
-3.30943e-10
-0.000229359
2.28392e-09
3.20205e-08
-3.85393e-09
0.000193635
-2.44552e-11
0.000229339
1.05463e-09
-1.31882e-08
-0.000229321
1.97319e-09
3.41026e-08
-5.05127e-09
-3.78091e-09
0.000193575
0.000229301
6.57554e-10
-1.52774e-08
6.92052e-09
3.25192e-09
-0.000193595
9.80076e-05
-9.80179e-05
9.80037e-05
-9.80141e-05
-7.88089e-10
1.24312e-08
0.000143358
-9.40467e-11
-0.000143369
-0.000171053
-3.1839e-10
-3.6095e-11
0.000171084
-0.000223351
2.8951e-08
4.36898e-09
0.000223391
-7.17805e-08
-1.11376e-08
9.70449e-10
-0.000229321
-9.8574e-11
2.87853e-08
-0.000171065
-2.79833e-11
8.77303e-10
-0.000223371
3.31255e-08
1.43832e-09
0.000143385
-2.44478e-08
-7.92527e-05
7.92786e-05
-1.42301e-09
3.44802e-09
0.000193607
6.76661e-09
-4.37797e-08
0.000263191
-1.69733e-08
-8.60119e-10
3.32047e-08
-0.000263211
0.000263237
-4.35734e-09
-6.178e-08
1.16154e-10
-7.92698e-05
1.69894e-08
7.92615e-05
-0.000263217
2.44073e-08
0.000263262
-6.17382e-08
-3.82233e-09
-5.05569e-09
2.25614e-08
3.32026e-08
7.92873e-05
3.26876e-10
-2.89685e-08
-0.000143342
3.00784e-08
2.18582e-09
2.47699e-11
-7.02772e-08
0.000171035
7.80863e-10
-1.92454e-11
-0.000171047
0.000223331
-1.24429e-08
3.31786e-08
-0.000223351
-2.84886e-11
-7.17849e-08
-0.000143354
9.79967e-05
-6.74441e-09
-2.23661e-08
5.11724e-09
1.34825e-08
1.24414e-08
-7.37637e-10
0.000143356
-1.54384e-10
-0.000143368
-0.000223341
2.89665e-08
4.29757e-09
0.000223382
-7.18085e-08
-0.00017105
-3.84942e-10
3.8852e-11
0.000171081
9.11436e-10
-1.11403e-08
-0.000229309
4.03506e-11
2.87912e-08
8.05883e-10
-0.000223362
3.31462e-08
-0.000171062
1.57502e-11
1.38695e-09
0.000143383
-2.44978e-08
-7.92544e-05
7.92803e-05
-1.37151e-09
3.50594e-09
0.00019359
6.75647e-09
-4.38255e-08
0.000263187
-1.69104e-08
-7.91589e-10
3.31703e-08
-0.000263206
0.000263232
-4.28553e-09
-6.18408e-08
1.77132e-10
-7.92715e-05
1.69281e-08
7.92632e-05
-0.000263213
2.44559e-08
0.000263258
-6.17967e-08
-3.71968e-09
-5.12571e-09
2.25234e-08
3.31677e-08
7.9289e-05
-2.89834e-08
3.93982e-10
-0.00014334
2.10246e-09
3.00852e-08
2.71868e-11
-7.02929e-08
0.000223321
-1.24537e-08
3.31941e-08
-0.000223342
0.000171032
7.31062e-10
2.41051e-11
-0.000171044
-7.18147e-08
4.91441e-11
-0.000143352
9.79898e-05
-6.80289e-09
-1.99895e-08
5.10029e-09
1.1179e-08