/*--------------------------------*- C++ -*----------------------------------*\
| =========                 |                                                 |
| \\      /  F ield         | OpenFOAM: The Open Source CFD Toolbox           |
|  \\    /   O peration     | Version:  2312                                  |
|   \\  /    A nd           | Website:  www.openfoam.com                      |
|    \\/     M anipulation  |                                                 |
\*---------------------------------------------------------------------------*/
FoamFile
{
    version     2.0;
    format      ascii;
    arch        "LSB;label=32;scalar=64";
    class       volScalarField;
    location    "600";
    object      epsilon;
}
// * * * * * * * * * * * * * * * * * * * * * * * * * * * * * * * * * * * * * //

dimensions      [0 2 -3 0 0 0 0];

internalField   nonuniform List<scalar> 
43168
(
6.63538e-07
1.18841e-06
1.18852e-06
1.42056e-06
1.4184e-06
1.18793e-06
1.18781e-06
1.41834e-06
1.18774e-06
1.18792e-06
1.18783e-06
1.18795e-06
1.41848e-06
1.18793e-06
1.1878e-06
1.41843e-06
1.42047e-06
1.18852e-06
1.18841e-06
1.42044e-06
1.18834e-06
1.18851e-06
1.18854e-06
1.42055e-06
1.18838e-06
9.56627e-06
9.56746e-06
6.62195e-07
6.62202e-07
6.62323e-07
6.62299e-07
4.24108e-06
9.57241e-06
4.24062e-06
9.57717e-06
1.91047e-05
1.91147e-05
4.24113e-06
9.57398e-06
4.24068e-06
9.57835e-06
6.63538e-07
6.63666e-07
6.6363e-07
2.29662e-06
3.6493e-06
9.37665e-07
1.18895e-06
2.29653e-06
3.64955e-06
9.3847e-07
1.91061e-05
1.9116e-05
2.29664e-06
9.37765e-07
3.64928e-06
1.18906e-06
2.29655e-06
9.38553e-07
3.64956e-06
5.6537e-06
5.65546e-06
1.41955e-06
5.65462e-06
5.65637e-06
1.90911e-05
1.90943e-05
1.41719e-06
5.65055e-06
5.65233e-06
1.91018e-05
1.90917e-05
1.9105e-05
1.90949e-05
1.41929e-06
5.65259e-06
5.65437e-06
5.65165e-06
5.65339e-06
1.18668e-06
3.64723e-06
4.23949e-06
9.57179e-06
9.56693e-06
4.24e-06
4.23942e-06
9.572e-06
9.56715e-06
4.23996e-06
2.29591e-06
1.18732e-06
3.64833e-06
9.36789e-07
3.64801e-06
9.35923e-07
2.29605e-06
2.29585e-06
1.18713e-06
3.64873e-06
9.36724e-07
3.64843e-06
9.35842e-07
2.296e-06
1.91042e-05
1.9094e-05
1.41927e-06
5.65408e-06
5.6529e-06
5.65323e-06
1.91031e-05
1.18649e-06
3.64778e-06
4.23955e-06
9.57298e-06
9.56848e-06
4.24005e-06
2.29594e-06
1.18715e-06
3.64888e-06
9.36769e-07
3.64854e-06
9.35903e-07
2.29605e-06
4.23948e-06
9.57277e-06
9.56787e-06
4.23998e-06
2.29589e-06
1.18732e-06
9.36809e-07
3.64879e-06
9.35939e-07
3.64844e-06
2.29599e-06
3.64855e-06
9.36823e-07
2.2961e-06
9.5726e-06
4.24016e-06
9.36841e-07
3.64843e-06
2.29606e-06
9.57248e-06
4.24004e-06
1.91055e-05
1.90954e-05
1.41937e-06
5.65419e-06
5.65276e-06
5.65321e-06
5.65178e-06
1.9103e-05
1.9093e-05
2.29597e-06
1.18732e-06
9.36914e-07
3.64853e-06
9.36053e-07
3.64819e-06
2.29612e-06
2.2959e-06
1.1872e-06
9.36852e-07
3.64892e-06
9.35988e-07
3.64859e-06
2.29604e-06
4.2397e-06
9.57259e-06
9.56813e-06
4.24016e-06
4.23972e-06
9.57303e-06
9.56859e-06
4.24012e-06
1.41937e-06
5.65265e-06
5.6544e-06
5.65344e-06
1.9104e-05
1.91063e-05
1.90962e-05
1.91023e-05
1.91123e-05
1.91056e-05
1.91155e-05
5.65366e-06
5.6554e-06
1.4195e-06
5.65455e-06
5.65633e-06
1.91128e-05
1.91161e-05
1.42154e-06
5.6556e-06
5.65734e-06
4.24104e-06
9.57263e-06
4.24056e-06
9.5774e-06
2.29656e-06
3.64909e-06
9.37636e-07
1.18905e-06
2.29648e-06
3.64935e-06
9.38425e-07
2.29652e-06
3.64952e-06
9.37575e-07
1.18894e-06
2.29643e-06
3.64975e-06
9.38365e-07
4.24167e-06
9.57777e-06
4.24162e-06
9.57801e-06
2.29696e-06
1.18958e-06
3.65009e-06
9.39199e-07
2.29692e-06
1.18947e-06
3.65052e-06
9.3914e-07
5.65524e-06
5.65393e-06
1.41946e-06
5.65605e-06
5.6548e-06
1.91037e-05
1.91136e-05
1.91151e-05
1.42151e-06
5.65718e-06
5.65582e-06
1.91142e-05
2.29657e-06
3.64962e-06
9.37619e-07
1.18887e-06
2.29651e-06
3.6499e-06
9.3841e-07
4.24107e-06
9.57341e-06
4.24061e-06
9.57817e-06
2.29651e-06
9.37656e-07
3.64953e-06
1.18905e-06
2.29646e-06
9.38447e-07
3.64981e-06
4.24174e-06
9.57934e-06
2.297e-06
1.1894e-06
3.65063e-06
9.39185e-07
4.24167e-06
9.57877e-06
2.29695e-06
1.18958e-06
9.39222e-07
3.65054e-06
4.24124e-06
9.57324e-06
4.24083e-06
9.57799e-06
2.29658e-06
9.37688e-07
3.64917e-06
1.18907e-06
2.29649e-06
9.38481e-07
3.64945e-06
4.24113e-06
9.57312e-06
4.24065e-06
9.57789e-06
2.29702e-06
1.18947e-06
3.65029e-06
9.39225e-07
4.24188e-06
9.5786e-06
2.29698e-06
1.1896e-06
9.39254e-07
3.65018e-06
4.24171e-06
9.57849e-06
5.65523e-06
5.65382e-06
1.41958e-06
5.65616e-06
5.65473e-06
1.91036e-05
1.91136e-05
1.91166e-05
1.42162e-06
5.65718e-06
5.65579e-06
1.91141e-05
2.29655e-06
9.37699e-07
3.64967e-06
1.18891e-06
2.29647e-06
9.38486e-07
3.64995e-06
4.24125e-06
9.57356e-06
4.24083e-06
9.57806e-06
4.2412e-06
9.57403e-06
4.24085e-06
9.57851e-06
2.29703e-06
1.18958e-06
9.39327e-07
3.65028e-06
2.29696e-06
1.18944e-06
9.39259e-07
3.65068e-06
4.24189e-06
9.57872e-06
4.24192e-06
9.57916e-06
1.91046e-05
1.91145e-05
1.91069e-05
1.91168e-05
1.42162e-06
5.65566e-06
5.6574e-06
1.91151e-05
1.91174e-05
2.27632e-05
7.24528e-06
9.56404e-06
7.2455e-06
2.277e-05
9.56574e-06
1.26705e-05
4.24115e-06
1.12605e-05
4.88715e-06
1.12585e-05
4.88728e-06
1.26728e-05
2.27885e-05
7.24912e-06
9.57451e-06
2.27818e-05
7.24887e-06
1.26692e-05
4.24055e-06
1.12552e-05
4.88666e-06
1.26668e-05
1.12573e-05
4.88654e-06
2.27879e-05
7.25004e-06
9.57511e-06
7.25029e-06
2.27946e-05
1.91095e-05
1.91099e-05
1.26701e-05
4.24122e-06
4.88714e-06
1.12607e-05
4.88725e-06
1.12586e-05
1.26732e-05
2.27882e-05
7.24911e-06
9.57569e-06
2.27814e-05
7.24887e-06
1.26697e-05
4.2406e-06
4.88663e-06
1.12553e-05
1.26663e-05
4.88653e-06
1.12575e-05
2.27876e-05
7.25004e-06
9.57666e-06
7.25029e-06
2.27943e-05
1.91108e-05
1.91114e-05
9.97153e-06
2.24192e-05
2.24185e-05
2.24131e-05
2.24124e-05
9.97115e-06
4.70578e-06
2.97597e-06
9.93725e-06
5.65363e-06
4.70617e-06
2.97576e-06
9.93899e-06
4.71158e-06
2.97715e-06
9.94203e-06
5.6554e-06
4.71195e-06
2.97694e-06
9.94376e-06
9.96947e-06
2.24076e-05
2.24069e-05
9.96984e-06
2.24137e-05
2.2413e-05
4.70676e-06
9.94164e-06
5.6547e-06
2.97602e-06
2.97625e-06
9.93992e-06
4.70635e-06
4.71252e-06
9.94642e-06
5.65644e-06
2.9772e-06
2.97741e-06
9.94469e-06
4.71215e-06
1.90863e-05
1.90895e-05
9.96476e-06
2.23964e-05
2.23956e-05
2.23902e-05
2.23894e-05
9.9644e-06
4.70425e-06
9.93066e-06
5.65062e-06
2.97481e-06
9.92819e-06
4.70384e-06
2.97501e-06
4.71001e-06
9.9357e-06
5.65236e-06
2.97594e-06
9.9331e-06
4.70962e-06
2.97614e-06
1.9097e-05
1.90964e-05
1.91003e-05
1.90997e-05
9.96612e-06
2.23958e-05
2.23951e-05
9.96649e-06
2.2402e-05
2.24013e-05
4.70549e-06
2.97542e-06
5.65267e-06
9.93618e-06
9.93373e-06
2.97564e-06
4.70506e-06
4.71125e-06
2.97656e-06
5.6544e-06
9.94124e-06
9.93879e-06
2.97677e-06
4.71085e-06
4.70446e-06
9.93102e-06
2.97533e-06
5.65158e-06
4.70488e-06
9.93343e-06
2.97512e-06
4.71025e-06
9.93609e-06
2.97647e-06
5.65336e-06
4.71064e-06
9.93849e-06
2.97626e-06
9.96821e-06
2.24076e-05
2.24069e-05
2.24014e-05
2.24007e-05
9.96783e-06
1.26619e-05
1.12485e-05
4.88538e-06
4.23943e-06
1.26595e-05
1.12506e-05
4.88527e-06
2.27756e-05
9.56966e-06
7.24769e-06
2.27824e-05
7.24793e-06
2.27762e-05
7.24672e-06
9.56903e-06
2.27694e-05
7.2465e-06
1.26632e-05
4.24006e-06
1.1254e-05
4.88591e-06
1.26657e-05
1.12518e-05
4.88603e-06
1.26626e-05
1.12481e-05
4.88524e-06
4.23938e-06
1.26591e-05
1.12509e-05
4.88517e-06
2.2776e-05
9.56988e-06
7.24642e-06
7.24663e-06
2.27828e-05
2.27766e-05
7.24542e-06
9.56925e-06
2.27698e-05
7.24522e-06
1.26629e-05
4.24e-06
1.12542e-05
4.88583e-06
1.12514e-05
4.8859e-06
1.26663e-05
1.90993e-05
1.90988e-05
4.7114e-06
2.97652e-06
5.65424e-06
9.94094e-06
2.97673e-06
9.93851e-06
4.71097e-06
4.70559e-06
2.9755e-06
5.65297e-06
9.93647e-06
9.93472e-06
2.97571e-06
4.70516e-06
2.97643e-06
5.65307e-06
2.97622e-06
9.96846e-06
2.24076e-05
2.24084e-05
2.24014e-05
2.24021e-05
9.96798e-06
1.90982e-05
1.26622e-05
4.88535e-06
1.12487e-05
4.23948e-06
1.26593e-05
4.88525e-06
1.12508e-05
2.27753e-05
9.57125e-06
7.24768e-06
2.27821e-05
7.24792e-06
2.27759e-05
7.24672e-06
9.57027e-06
2.27691e-05
7.24649e-06
1.26626e-05
4.24012e-06
4.8859e-06
1.12541e-05
1.26661e-05
4.88599e-06
1.12519e-05
1.26623e-05
1.12486e-05
4.88518e-06
4.23941e-06
1.26597e-05
1.12507e-05
4.88509e-06
2.27753e-05
9.57064e-06
7.24608e-06
7.24631e-06
2.2782e-05
2.27758e-05
7.2451e-06
9.56999e-06
2.27691e-05
7.24488e-06
1.26634e-05
4.24005e-06
1.1254e-05
4.88573e-06
1.12518e-05
4.88583e-06
1.26658e-05
2.27742e-05
9.57044e-06
7.24736e-06
7.24779e-06
2.27812e-05
1.26623e-05
4.24027e-06
4.88591e-06
1.12543e-05
4.88615e-06
1.12515e-05
1.26658e-05
2.27753e-05
9.57036e-06
7.24592e-06
7.24615e-06
2.27821e-05
1.26634e-05
4.2401e-06
1.12541e-05
4.88573e-06
1.12514e-05
4.88585e-06
1.26658e-05
1.91008e-05
1.91001e-05
9.96567e-06
2.2395e-05
2.23955e-05
9.96605e-06
2.24012e-05
2.24016e-05
4.71127e-06
2.97659e-06
5.65423e-06
9.94069e-06
2.97676e-06
9.93867e-06
4.71089e-06
4.70534e-06
2.97546e-06
5.65281e-06
9.93615e-06
9.93373e-06
2.97566e-06
4.70498e-06
4.71029e-06
9.93573e-06
2.97645e-06
5.65318e-06
2.97628e-06
4.71066e-06
9.93805e-06
4.70438e-06
9.93098e-06
2.97535e-06
5.65174e-06
4.70473e-06
9.9334e-06
2.97516e-06
9.96777e-06
2.24068e-05
2.24072e-05
2.24007e-05
2.24011e-05
9.96737e-06
1.90983e-05
1.90977e-05
1.26619e-05
4.88536e-06
1.1248e-05
4.23959e-06
1.26594e-05
4.8853e-06
1.12509e-05
2.27747e-05
9.57085e-06
7.24733e-06
7.24755e-06
2.27814e-05
2.27752e-05
7.24635e-06
9.56986e-06
2.27685e-05
7.24614e-06
1.2663e-05
4.24027e-06
4.88594e-06
1.12543e-05
4.88601e-06
1.12514e-05
1.26655e-05
1.26623e-05
4.88535e-06
1.12478e-05
4.23955e-06
1.26597e-05
4.88516e-06
1.12507e-05
2.27762e-05
9.5713e-06
7.24635e-06
7.24661e-06
2.2783e-05
2.27768e-05
7.2454e-06
9.5703e-06
2.277e-05
7.24516e-06
1.26632e-05
4.2403e-06
4.8858e-06
1.12541e-05
4.886e-06
1.12512e-05
1.26658e-05
9.96605e-06
2.24025e-05
2.24018e-05
4.70557e-06
2.97548e-06
5.6527e-06
9.93627e-06
4.70519e-06
2.97568e-06
9.93448e-06
4.71136e-06
2.97666e-06
5.65446e-06
9.94104e-06
4.711e-06
2.97686e-06
9.93926e-06
4.70457e-06
5.6516e-06
2.97517e-06
9.93346e-06
4.71038e-06
2.97655e-06
5.65339e-06
2.97637e-06
9.93828e-06
9.96814e-06
2.24081e-05
2.24074e-05
9.96778e-06
2.2402e-05
2.24013e-05
1.90992e-05
1.90986e-05
1.91016e-05
1.91009e-05
1.9107e-05
1.91076e-05
1.91103e-05
1.91109e-05
9.97159e-06
2.24187e-05
2.24179e-05
2.24126e-05
2.24118e-05
9.97119e-06
4.70565e-06
2.97592e-06
9.93652e-06
5.65358e-06
4.70609e-06
9.93892e-06
2.9757e-06
4.71143e-06
2.97706e-06
9.94158e-06
5.65536e-06
4.71185e-06
9.94398e-06
2.97684e-06
9.96952e-06
2.2407e-05
2.24063e-05
9.96991e-06
2.24132e-05
2.24124e-05
4.70666e-06
9.94161e-06
5.65464e-06
2.97596e-06
9.93921e-06
4.70621e-06
2.97619e-06
4.71242e-06
9.94667e-06
5.65638e-06
2.9771e-06
9.94428e-06
4.712e-06
2.97732e-06
1.91175e-05
1.91207e-05
9.97285e-06
2.24181e-05
2.24173e-05
9.97326e-06
2.24242e-05
2.24234e-05
4.70676e-06
9.94189e-06
2.97643e-06
5.65551e-06
4.70722e-06
9.94426e-06
2.9762e-06
4.71255e-06
9.94697e-06
2.97757e-06
5.65729e-06
4.71298e-06
9.94933e-06
2.97734e-06
1.26702e-05
4.2411e-06
1.12608e-05
4.88708e-06
1.1258e-05
4.88715e-06
1.26736e-05
2.27889e-05
7.24782e-06
9.57472e-06
2.27822e-05
7.24761e-06
1.26701e-05
4.24051e-06
1.12548e-05
4.88652e-06
1.12575e-05
1.26665e-05
4.88647e-06
2.27883e-05
7.24878e-06
9.57534e-06
7.249e-06
2.2795e-05
1.26764e-05
1.12617e-05
4.88787e-06
4.2416e-06
1.26741e-05
1.12639e-05
4.88774e-06
2.28006e-05
7.25145e-06
9.57981e-06
2.27939e-05
7.25119e-06
1.26772e-05
1.12613e-05
4.88775e-06
4.24156e-06
1.26737e-05
1.12641e-05
4.88768e-06
2.28011e-05
7.25017e-06
9.58005e-06
2.27944e-05
7.24993e-06
9.97166e-06
2.24184e-05
2.2419e-05
2.24123e-05
2.2413e-05
9.97124e-06
4.71155e-06
2.97702e-06
9.94129e-06
5.65507e-06
9.94368e-06
4.71193e-06
2.97681e-06
4.70571e-06
2.97599e-06
9.9374e-06
5.65385e-06
2.97577e-06
4.70613e-06
9.93913e-06
9.96961e-06
2.24068e-05
2.24076e-05
2.24129e-05
9.97003e-06
2.24136e-05
4.71251e-06
9.94636e-06
5.65622e-06
2.97707e-06
9.94399e-06
2.97729e-06
4.71211e-06
4.70672e-06
9.9418e-06
5.65488e-06
2.97603e-06
2.97626e-06
9.94008e-06
4.70628e-06
1.91084e-05
1.9109e-05
1.91199e-05
9.97288e-06
2.24178e-05
2.24184e-05
9.97329e-06
2.24238e-05
2.24245e-05
4.71266e-06
9.94667e-06
2.97754e-06
5.65701e-06
2.97731e-06
4.71306e-06
9.94901e-06
4.70683e-06
9.94276e-06
2.9765e-06
5.65574e-06
4.70728e-06
9.94447e-06
2.97626e-06
1.91188e-05
1.26707e-05
4.24115e-06
1.12606e-05
4.88698e-06
1.12585e-05
4.88709e-06
1.26731e-05
2.27881e-05
7.2475e-06
9.57549e-06
2.27814e-05
7.24726e-06
1.26695e-05
4.24053e-06
1.12552e-05
4.88647e-06
1.12574e-05
1.2667e-05
4.88637e-06
2.27875e-05
7.24843e-06
9.5761e-06
7.24868e-06
2.27942e-05
1.26766e-05
4.88786e-06
1.12619e-05
4.24165e-06
1.26739e-05
4.88774e-06
1.1264e-05
2.28003e-05
7.25145e-06
9.58103e-06
2.27936e-05
7.25119e-06
1.26766e-05
1.12618e-05
4.88769e-06
4.24158e-06
1.26743e-05
1.12639e-05
4.88757e-06
2.28002e-05
7.24984e-06
9.58082e-06
2.27936e-05
7.24959e-06
1.26694e-05
4.24136e-06
4.88715e-06
1.12609e-05
4.88739e-06
1.12581e-05
1.2673e-05
2.27874e-05
7.24898e-06
9.57532e-06
7.24854e-06
2.27804e-05
1.26694e-05
4.2407e-06
4.88678e-06
1.12549e-05
4.88652e-06
1.26659e-05
1.12577e-05
2.27864e-05
7.2497e-06
9.57593e-06
7.25014e-06
2.27934e-05
1.26706e-05
4.24119e-06
1.12608e-05
4.88697e-06
1.1258e-05
4.8871e-06
1.2673e-05
2.27882e-05
7.24734e-06
9.57521e-06
2.27815e-05
7.2471e-06
1.26694e-05
4.24059e-06
1.12547e-05
4.88648e-06
1.26669e-05
1.12575e-05
4.88636e-06
2.27876e-05
7.24827e-06
9.57582e-06
7.24852e-06
2.27943e-05
1.26765e-05
4.88799e-06
1.12614e-05
4.24175e-06
1.26731e-05
4.88774e-06
1.12642e-05
2.27995e-05
7.2513e-06
9.58064e-06
2.27925e-05
7.25085e-06
1.26765e-05
1.12613e-05
4.8877e-06
4.24164e-06
1.26742e-05
1.12641e-05
4.88757e-06
2.28003e-05
7.24968e-06
9.58053e-06
2.27936e-05
7.24942e-06
9.97115e-06
2.24179e-05
2.24183e-05
2.24118e-05
2.24122e-05
9.97074e-06
4.71148e-06
2.97704e-06
9.94153e-06
5.65518e-06
9.94332e-06
4.71187e-06
2.97687e-06
4.70556e-06
2.97596e-06
9.93656e-06
5.65374e-06
2.97574e-06
4.70595e-06
9.93895e-06
9.96907e-06
2.24062e-05
2.24067e-05
2.24123e-05
9.96947e-06
2.24128e-05
4.71244e-06
9.94598e-06
5.65621e-06
2.97713e-06
9.94425e-06
2.97731e-06
4.71205e-06
4.70653e-06
9.94164e-06
5.65482e-06
2.976e-06
2.97622e-06
9.93927e-06
4.70613e-06
1.91083e-05
1.91089e-05
1.91212e-05
9.9724e-06
2.24173e-05
2.24177e-05
9.97282e-06
2.24233e-05
2.24238e-05
4.7126e-06
9.94696e-06
2.97756e-06
5.65712e-06
2.97737e-06
4.713e-06
9.94867e-06
4.70668e-06
9.94196e-06
2.97647e-06
5.6557e-06
4.70709e-06
9.9443e-06
2.97625e-06
1.91188e-05
1.26698e-05
4.24137e-06
4.88719e-06
1.12609e-05
4.88726e-06
1.1258e-05
1.26731e-05
2.27875e-05
7.24874e-06
9.57535e-06
7.24851e-06
2.27808e-05
1.26694e-05
4.24071e-06
4.88664e-06
1.12548e-05
4.88657e-06
1.26665e-05
1.12576e-05
2.27869e-05
7.24968e-06
9.57618e-06
7.24992e-06
2.27936e-05
1.26707e-05
4.24139e-06
4.88705e-06
1.12607e-05
4.88725e-06
1.12578e-05
1.2673e-05
2.27891e-05
7.2478e-06
9.57577e-06
2.27824e-05
7.24754e-06
1.26695e-05
4.24067e-06
4.88663e-06
1.12546e-05
1.2667e-05
4.88644e-06
1.12574e-05
2.27885e-05
7.24871e-06
9.57657e-06
7.24898e-06
2.27952e-05
1.26767e-05
4.88786e-06
1.12614e-05
4.24176e-06
1.26732e-05
4.88778e-06
1.12642e-05
2.27996e-05
7.25108e-06
9.58078e-06
2.2793e-05
7.25083e-06
1.26766e-05
4.88786e-06
1.12612e-05
4.24172e-06
1.26742e-05
4.88765e-06
1.1264e-05
2.28012e-05
7.25014e-06
9.58124e-06
2.27945e-05
7.24986e-06
1.91092e-05
1.91098e-05
1.91116e-05
1.91122e-05
9.97281e-06
2.24186e-05
2.24179e-05
9.97319e-06
2.24247e-05
2.2424e-05
4.7069e-06
9.94262e-06
2.97649e-06
5.65558e-06
4.70732e-06
2.97626e-06
9.94433e-06
4.71269e-06
9.9474e-06
2.97766e-06
5.65733e-06
4.71308e-06
2.97745e-06
9.9491e-06
1.91197e-05
1.9122e-05
6.59423e-07
4.55951e-07
4.55888e-07
6.64822e-07
4.57556e-07
4.57497e-07
2.5059e-07
2.48783e-07
2.82921e-06
1.9698e-06
1.97003e-06
1.41901e-06
2.82955e-06
1.96906e-06
1.96928e-06
2.82926e-06
1.41989e-06
1.96881e-06
1.96901e-06
1.96953e-06
1.96974e-06
2.82892e-06
2.82932e-06
1.41984e-06
1.9689e-06
1.96884e-06
1.96963e-06
1.96957e-06
2.82895e-06
2.82925e-06
1.41998e-06
1.96897e-06
1.96887e-06
1.9697e-06
1.9696e-06
2.82892e-06
2.82933e-06
1.41999e-06
1.96881e-06
1.96903e-06
2.829e-06
1.96955e-06
1.96978e-06
2.82914e-06
1.96978e-06
1.96999e-06
1.41896e-06
2.82949e-06
1.96906e-06
1.96925e-06
2.82918e-06
1.96989e-06
1.96983e-06
1.41892e-06
1.96909e-06
2.82953e-06
1.96915e-06
2.82914e-06
1.96995e-06
1.96985e-06
1.41905e-06
1.96912e-06
2.82948e-06
1.96922e-06
6.60837e-07
4.5429e-07
4.54223e-07
4.52615e-07
4.52544e-07
2.45102e-07
2.46944e-07
6.60839e-07
4.54279e-07
4.54268e-07
4.52605e-07
4.52588e-07
2.45111e-07
2.46954e-07
6.60962e-07
4.54365e-07
4.54356e-07
4.52682e-07
4.52683e-07
2.4518e-07
2.47021e-07
6.6094e-07
4.54397e-07
4.54334e-07
4.52707e-07
4.52665e-07
2.45194e-07
2.47035e-07
4.55939e-07
4.55925e-07
6.64814e-07
4.57544e-07
4.57535e-07
2.50601e-07
2.48792e-07
4.56028e-07
4.56017e-07
6.64953e-07
4.57637e-07
4.57624e-07
2.50668e-07
2.4886e-07
4.56051e-07
4.55996e-07
6.64916e-07
4.57663e-07
4.576e-07
2.5068e-07
2.48873e-07
6.66093e-07
4.59151e-07
4.59093e-07
2.52396e-07
6.66084e-07
4.59139e-07
4.59122e-07
2.52406e-07
6.6622e-07
4.59233e-07
4.59217e-07
2.52473e-07
6.66187e-07
4.59252e-07
4.59196e-07
2.52485e-07
1.66729e-06
2.29679e-06
2.54197e-06
1.54514e-06
2.54216e-06
1.54599e-06
1.66601e-06
1.84502e-06
2.22472e-06
3.02423e-06
3.64906e-06
1.84606e-06
2.22415e-06
3.02382e-06
1.66574e-06
2.29637e-06
2.54194e-06
1.54564e-06
1.66698e-06
2.54175e-06
1.54477e-06
1.84638e-06
3.02414e-06
3.6498e-06
2.22431e-06
2.2249e-06
3.02455e-06
1.84531e-06
1.66747e-06
2.2968e-06
1.54519e-06
2.54209e-06
1.54603e-06
2.54225e-06
1.66618e-06
1.84509e-06
2.22474e-06
3.02424e-06
3.64905e-06
1.84618e-06
2.22418e-06
3.02389e-06
1.66591e-06
2.29639e-06
1.54567e-06
2.54199e-06
1.66719e-06
1.54481e-06
2.5418e-06
1.84648e-06
3.0242e-06
3.64979e-06
2.22435e-06
2.22492e-06
3.02456e-06
1.84539e-06
2.82976e-06
1.4211e-06
1.96928e-06
1.9695e-06
1.97003e-06
1.97026e-06
2.82941e-06
2.82876e-06
1.41867e-06
1.96826e-06
1.96845e-06
2.82843e-06
1.96897e-06
1.96917e-06
2.82869e-06
1.41781e-06
1.96925e-06
1.96946e-06
2.82902e-06
1.96854e-06
1.96874e-06
1.84574e-06
3.02278e-06
3.64744e-06
2.22343e-06
3.02319e-06
2.22397e-06
1.84368e-06
1.66486e-06
2.54144e-06
1.54485e-06
2.29576e-06
1.66688e-06
2.54119e-06
1.54392e-06
1.84622e-06
2.22389e-06
3.64856e-06
3.02352e-06
2.22446e-06
3.02393e-06
1.84433e-06
1.84401e-06
3.02357e-06
2.22422e-06
3.64779e-06
2.22367e-06
1.84581e-06
3.02317e-06
1.66721e-06
2.29621e-06
2.54146e-06
1.54432e-06
2.54172e-06
1.54525e-06
1.66514e-06
1.66508e-06
2.54128e-06
1.54476e-06
2.2957e-06
1.66636e-06
2.54106e-06
1.54387e-06
1.84567e-06
2.22411e-06
3.64899e-06
3.02324e-06
3.02361e-06
2.22466e-06
1.84463e-06
1.84427e-06
3.02324e-06
2.22444e-06
3.64817e-06
1.8453e-06
3.02287e-06
2.22388e-06
1.6667e-06
2.29615e-06
2.54134e-06
1.54429e-06
2.54156e-06
1.54517e-06
1.66543e-06
1.41771e-06
1.96939e-06
1.96863e-06
3.64797e-06
2.22374e-06
2.22428e-06
1.66459e-06
2.54143e-06
1.5449e-06
2.29576e-06
1.66687e-06
2.54116e-06
1.54388e-06
1.8461e-06
2.2242e-06
3.64909e-06
3.02357e-06
2.22477e-06
3.02401e-06
1.84439e-06
1.84404e-06
3.02366e-06
2.22453e-06
3.64834e-06
2.22398e-06
1.84564e-06
3.02322e-06
1.66742e-06
2.29624e-06
2.54143e-06
1.54427e-06
2.54171e-06
1.54531e-06
1.66494e-06
1.66453e-06
1.54488e-06
2.54127e-06
2.29571e-06
1.6669e-06
1.54386e-06
2.54104e-06
1.84602e-06
2.22417e-06
3.649e-06
3.02319e-06
3.02359e-06
2.22471e-06
1.84432e-06
1.84387e-06
3.02323e-06
2.22448e-06
3.64824e-06
1.8457e-06
3.02283e-06
2.22394e-06
1.66739e-06
2.29618e-06
1.54425e-06
2.5413e-06
1.54528e-06
2.54156e-06
1.66492e-06
1.84572e-06
2.22396e-06
3.64877e-06
3.02349e-06
1.8447e-06
2.22451e-06
3.02388e-06
1.6667e-06
2.29625e-06
2.54145e-06
1.54439e-06
1.66548e-06
2.54167e-06
1.54525e-06
1.84607e-06
2.22389e-06
3.64864e-06
3.02309e-06
3.02353e-06
2.22444e-06
1.84424e-06
1.66717e-06
2.29622e-06
1.54434e-06
2.54132e-06
1.54527e-06
2.5416e-06
1.66503e-06
2.82868e-06
1.41789e-06
1.96942e-06
1.96932e-06
1.9687e-06
2.82901e-06
1.9686e-06
1.66521e-06
1.54488e-06
2.54146e-06
2.29583e-06
1.66646e-06
1.54403e-06
2.54124e-06
1.84583e-06
2.22398e-06
3.64875e-06
3.02355e-06
1.84472e-06
2.22453e-06
3.02389e-06
1.84446e-06
3.02353e-06
2.2243e-06
3.64799e-06
1.84552e-06
2.22376e-06
3.02318e-06
1.66683e-06
2.29627e-06
1.54442e-06
2.54152e-06
1.66555e-06
1.54529e-06
2.54174e-06
1.66458e-06
1.54484e-06
2.54132e-06
2.29575e-06
1.66677e-06
1.54393e-06
2.54103e-06
1.84614e-06
2.22424e-06
3.64914e-06
3.02326e-06
3.0237e-06
2.2248e-06
1.84429e-06
1.84388e-06
3.02334e-06
2.22457e-06
3.64839e-06
1.84583e-06
3.02291e-06
2.22402e-06
1.66731e-06
2.2962e-06
1.54432e-06
2.54131e-06
1.54525e-06
2.54158e-06
1.66489e-06
2.82876e-06
1.41783e-06
1.96951e-06
1.96853e-06
1.96877e-06
2.82969e-06
1.42102e-06
1.96927e-06
1.96947e-06
2.82934e-06
1.97e-06
1.97021e-06
2.82952e-06
1.42001e-06
1.97021e-06
1.97042e-06
2.82988e-06
1.96947e-06
1.96967e-06
1.66782e-06
2.29673e-06
2.54199e-06
1.54503e-06
2.5422e-06
1.54597e-06
1.66562e-06
1.84457e-06
2.22466e-06
3.02428e-06
3.64885e-06
3.02386e-06
1.84659e-06
2.22409e-06
1.66536e-06
2.29632e-06
2.54197e-06
1.54562e-06
2.54173e-06
1.66754e-06
1.54469e-06
1.84698e-06
3.02418e-06
3.6496e-06
2.22426e-06
3.0246e-06
2.22485e-06
1.84497e-06
1.66724e-06
2.29668e-06
2.54189e-06
1.54502e-06
2.54206e-06
1.54591e-06
1.66597e-06
1.84493e-06
2.22488e-06
3.02395e-06
3.64925e-06
1.84598e-06
3.02358e-06
2.2243e-06
1.66571e-06
2.29627e-06
2.54181e-06
1.54555e-06
1.66698e-06
2.5416e-06
1.54466e-06
1.84628e-06
3.02391e-06
3.65003e-06
2.22448e-06
3.02429e-06
1.84522e-06
2.22506e-06
1.66579e-06
2.54242e-06
1.54629e-06
2.29679e-06
1.66802e-06
2.54223e-06
1.54535e-06
1.84524e-06
3.0249e-06
2.22501e-06
3.64984e-06
2.22442e-06
1.84717e-06
3.02448e-06
1.66617e-06
2.54226e-06
1.54623e-06
2.29674e-06
1.66749e-06
2.5421e-06
1.54537e-06
1.8455e-06
3.0246e-06
2.22523e-06
3.65023e-06
1.8466e-06
3.02422e-06
2.22463e-06
2.82974e-06
1.42099e-06
1.96937e-06
1.96931e-06
1.97005e-06
1.97012e-06
2.82937e-06
2.82955e-06
1.41998e-06
1.97033e-06
1.97026e-06
1.96957e-06
2.82992e-06
1.9695e-06
1.66779e-06
2.29677e-06
2.5419e-06
1.54495e-06
2.54231e-06
1.54608e-06
1.66558e-06
1.84468e-06
2.22497e-06
3.02436e-06
3.6494e-06
3.02392e-06
1.84634e-06
2.2244e-06
1.66531e-06
2.29632e-06
2.54198e-06
1.5457e-06
2.54167e-06
1.66751e-06
1.54464e-06
1.84673e-06
3.02424e-06
3.65013e-06
2.22457e-06
3.02469e-06
2.22516e-06
1.84498e-06
1.66772e-06
2.29671e-06
1.54491e-06
2.54177e-06
1.54606e-06
2.5421e-06
1.66553e-06
1.84459e-06
2.22492e-06
3.02393e-06
3.64931e-06
1.84624e-06
3.02353e-06
2.22436e-06
1.66527e-06
2.29627e-06
1.54567e-06
2.5418e-06
1.66746e-06
1.54461e-06
2.54155e-06
1.84662e-06
3.02385e-06
3.65004e-06
2.22453e-06
3.02425e-06
1.8449e-06
2.2251e-06
1.66575e-06
2.54251e-06
1.54646e-06
2.29679e-06
1.66805e-06
2.54208e-06
1.54521e-06
1.84524e-06
3.025e-06
2.22532e-06
3.65039e-06
2.22473e-06
1.84711e-06
3.02454e-06
1.6657e-06
1.54644e-06
2.54235e-06
2.29674e-06
1.66797e-06
1.54518e-06
2.54195e-06
1.84515e-06
3.02456e-06
2.22526e-06
3.6503e-06
1.84699e-06
3.02414e-06
2.22468e-06
1.66765e-06
2.29675e-06
1.54505e-06
2.54177e-06
1.54599e-06
2.5422e-06
1.66556e-06
1.8444e-06
2.22465e-06
3.02388e-06
3.64895e-06
2.22409e-06
1.84646e-06
3.02343e-06
1.6652e-06
2.29633e-06
1.54564e-06
2.54186e-06
1.54472e-06
1.66746e-06
2.54156e-06
1.84683e-06
3.02375e-06
3.64969e-06
2.22426e-06
2.22484e-06
3.02421e-06
1.84483e-06
1.66622e-06
2.54238e-06
1.54631e-06
2.29684e-06
1.66753e-06
2.54219e-06
1.54548e-06
1.84558e-06
3.02485e-06
2.22506e-06
3.65003e-06
1.84667e-06
2.22446e-06
3.02444e-06
1.66573e-06
1.54631e-06
2.54239e-06
2.29681e-06
1.66788e-06
1.54537e-06
2.54196e-06
1.84511e-06
3.02451e-06
2.22499e-06
3.64993e-06
1.847e-06
3.02405e-06
2.22441e-06
2.82969e-06
1.4211e-06
1.96944e-06
1.96934e-06
1.97008e-06
1.97017e-06
2.82934e-06
2.82952e-06
1.4201e-06
1.97038e-06
1.97028e-06
1.96964e-06
2.82987e-06
1.96954e-06
1.66775e-06
2.29672e-06
1.54504e-06
2.5418e-06
1.54598e-06
2.54215e-06
1.66552e-06
1.84444e-06
2.225e-06
3.02404e-06
3.64945e-06
2.22443e-06
1.84651e-06
3.0236e-06
1.66523e-06
2.29631e-06
1.54562e-06
2.54187e-06
1.5447e-06
1.66747e-06
2.54155e-06
1.84688e-06
3.02392e-06
3.65018e-06
2.2246e-06
2.22519e-06
3.02437e-06
1.84486e-06
1.66635e-06
1.54634e-06
2.54242e-06
2.29686e-06
1.66769e-06
1.54552e-06
2.54226e-06
1.84566e-06
3.02486e-06
2.22508e-06
3.65004e-06
1.84676e-06
2.2245e-06
3.0245e-06
1.66568e-06
1.5463e-06
2.5424e-06
2.29678e-06
1.66798e-06
1.54536e-06
2.54195e-06
1.84512e-06
3.02467e-06
2.22534e-06
3.65043e-06
1.84707e-06
3.02421e-06
2.22475e-06
2.82959e-06
1.42007e-06
1.97023e-06
1.97046e-06
2.82995e-06
1.96947e-06
1.9697e-06
6.68502e-07
1.1904e-06
1.19052e-06
1.42258e-06
6.72896e-07
1.1919e-06
1.19202e-06
1.42419e-06
6.7674e-07
1.19293e-06
1.19305e-06
1.42558e-06
6.80055e-07
1.19351e-06
1.19363e-06
1.42651e-06
6.82864e-07
1.19365e-06
1.19377e-06
1.42667e-06
6.85189e-07
1.19341e-06
1.19353e-06
1.42678e-06
6.87052e-07
1.19279e-06
1.19291e-06
1.42655e-06
6.88477e-07
1.19181e-06
1.19192e-06
1.42599e-06
6.89486e-07
1.19048e-06
1.1906e-06
1.42511e-06
6.90099e-07
1.18884e-06
1.18896e-06
1.42395e-06
6.90345e-07
1.18691e-06
1.18703e-06
1.42252e-06
6.90263e-07
1.18472e-06
1.18483e-06
1.42084e-06
6.89886e-07
1.18227e-06
1.18238e-06
1.41896e-06
6.89218e-07
1.1796e-06
1.17972e-06
1.41683e-06
6.88288e-07
1.17673e-06
1.17685e-06
1.41446e-06
6.87113e-07
1.17368e-06
1.17381e-06
1.41192e-06
6.85723e-07
1.17048e-06
1.17062e-06
1.40922e-06
6.84144e-07
1.16717e-06
1.16728e-06
1.40636e-06
6.81233e-07
1.16247e-06
1.16258e-06
1.4028e-06
7.37728e-07
1.07606e-06
1.07613e-06
1.35242e-06
1.4205e-06
1.19005e-06
1.18994e-06
1.42046e-06
1.18987e-06
1.19005e-06
1.18994e-06
1.19007e-06
1.42058e-06
1.19005e-06
1.18991e-06
1.42056e-06
1.42251e-06
1.42219e-06
1.19052e-06
1.19041e-06
1.19167e-06
1.19156e-06
1.42248e-06
1.42215e-06
1.19034e-06
1.19051e-06
1.19149e-06
1.19167e-06
1.19053e-06
1.19156e-06
1.19169e-06
1.42259e-06
1.42227e-06
1.19037e-06
1.19167e-06
1.19153e-06
1.42225e-06
1.42413e-06
1.42357e-06
1.19202e-06
1.19191e-06
1.19282e-06
1.19271e-06
1.42409e-06
1.42353e-06
1.19184e-06
1.19202e-06
1.19264e-06
1.19282e-06
1.19203e-06
1.1927e-06
1.19283e-06
1.42421e-06
1.42366e-06
1.19188e-06
1.19282e-06
1.19267e-06
1.42346e-06
1.42534e-06
1.42451e-06
1.19305e-06
1.19294e-06
1.19351e-06
1.1934e-06
1.4253e-06
1.42446e-06
1.19288e-06
1.19306e-06
1.19334e-06
1.19352e-06
1.19306e-06
1.19339e-06
1.19352e-06
1.42542e-06
1.42459e-06
1.19291e-06
1.19351e-06
1.19337e-06
1.4243e-06
1.42617e-06
1.42502e-06
1.19363e-06
1.19352e-06
1.19378e-06
1.19366e-06
1.42613e-06
1.42497e-06
1.19346e-06
1.19364e-06
1.1936e-06
1.19378e-06
1.19364e-06
1.19365e-06
1.19379e-06
1.42625e-06
1.42509e-06
1.19349e-06
1.19377e-06
1.19363e-06
1.42507e-06
1.42663e-06
1.42516e-06
1.19377e-06
1.19366e-06
1.19361e-06
1.19349e-06
1.42659e-06
1.42481e-06
1.1936e-06
1.19378e-06
1.19344e-06
1.19362e-06
1.19378e-06
1.19348e-06
1.19362e-06
1.42671e-06
1.42524e-06
1.19363e-06
1.1936e-06
1.19347e-06
1.42521e-06
1.42674e-06
1.42496e-06
1.19354e-06
1.19343e-06
1.19305e-06
1.19294e-06
1.42698e-06
1.42464e-06
1.19336e-06
1.19354e-06
1.19288e-06
1.19306e-06
1.19355e-06
1.19292e-06
1.19306e-06
1.42681e-06
1.42504e-06
1.19339e-06
1.19305e-06
1.19291e-06
1.42502e-06
1.4265e-06
1.42444e-06
1.19291e-06
1.1928e-06
1.19212e-06
1.19201e-06
1.42673e-06
1.42411e-06
1.19274e-06
1.19292e-06
1.19195e-06
1.19214e-06
1.19293e-06
1.192e-06
1.19214e-06
1.42657e-06
1.42451e-06
1.19278e-06
1.19212e-06
1.19199e-06
1.4245e-06
1.42593e-06
1.42359e-06
1.19193e-06
1.19182e-06
1.19086e-06
1.19075e-06
1.42616e-06
1.42327e-06
1.19176e-06
1.19194e-06
1.19069e-06
1.19087e-06
1.19195e-06
1.19074e-06
1.19088e-06
1.426e-06
1.42366e-06
1.19179e-06
1.19085e-06
1.19073e-06
1.42366e-06
1.42505e-06
1.42246e-06
1.1906e-06
1.19049e-06
1.18927e-06
1.18916e-06
1.42529e-06
1.42214e-06
1.19043e-06
1.19061e-06
1.1891e-06
1.18928e-06
1.19062e-06
1.18915e-06
1.18929e-06
1.42512e-06
1.42253e-06
1.19047e-06
1.18926e-06
1.18914e-06
1.42253e-06
1.42389e-06
1.42106e-06
1.18896e-06
1.18885e-06
1.18739e-06
1.18728e-06
1.42412e-06
1.42074e-06
1.18879e-06
1.18897e-06
1.18722e-06
1.1874e-06
1.18898e-06
1.18727e-06
1.18741e-06
1.42395e-06
1.42113e-06
1.18883e-06
1.18738e-06
1.18726e-06
1.42113e-06
1.42246e-06
1.4194e-06
1.18703e-06
1.18692e-06
1.18523e-06
1.18512e-06
1.42269e-06
1.41909e-06
1.18686e-06
1.18704e-06
1.18506e-06
1.18524e-06
1.18706e-06
1.18511e-06
1.18525e-06
1.42252e-06
1.41947e-06
1.18691e-06
1.18522e-06
1.1851e-06
1.41948e-06
1.4208e-06
1.41742e-06
1.18484e-06
1.18473e-06
1.18282e-06
1.18271e-06
1.42099e-06
1.41729e-06
1.18467e-06
1.18485e-06
1.18265e-06
1.18283e-06
1.18486e-06
1.1827e-06
1.18284e-06
1.42085e-06
1.41754e-06
1.18471e-06
1.18281e-06
1.1827e-06
1.41755e-06
1.41895e-06
1.41521e-06
1.18239e-06
1.18229e-06
1.18018e-06
1.18007e-06
1.41894e-06
1.41519e-06
1.18222e-06
1.1824e-06
1.18001e-06
1.1802e-06
1.18241e-06
1.18006e-06
1.18021e-06
1.41899e-06
1.4153e-06
1.18227e-06
1.18017e-06
1.18006e-06
1.4153e-06
1.41675e-06
1.41285e-06
1.17973e-06
1.17963e-06
1.17733e-06
1.17723e-06
1.41673e-06
1.41283e-06
1.17955e-06
1.17973e-06
1.17717e-06
1.17735e-06
1.17974e-06
1.17723e-06
1.17737e-06
1.41682e-06
1.41293e-06
1.1796e-06
1.17732e-06
1.17721e-06
1.41293e-06
1.41438e-06
1.41033e-06
1.17686e-06
1.17676e-06
1.1743e-06
1.1742e-06
1.41435e-06
1.41031e-06
1.17667e-06
1.17686e-06
1.17416e-06
1.17434e-06
1.17687e-06
1.17421e-06
1.17435e-06
1.41445e-06
1.4104e-06
1.17674e-06
1.17429e-06
1.17418e-06
1.41041e-06
1.41184e-06
1.40765e-06
1.17382e-06
1.17373e-06
1.17112e-06
1.17102e-06
1.41182e-06
1.40763e-06
1.17363e-06
1.17381e-06
1.17098e-06
1.17116e-06
1.17382e-06
1.17103e-06
1.17118e-06
1.41191e-06
1.40772e-06
1.1737e-06
1.1711e-06
1.171e-06
1.40773e-06
1.40915e-06
1.40485e-06
1.17064e-06
1.17054e-06
1.16778e-06
1.1677e-06
1.40912e-06
1.40482e-06
1.17043e-06
1.17061e-06
1.16767e-06
1.16784e-06
1.17062e-06
1.16771e-06
1.16785e-06
1.40921e-06
1.40491e-06
1.17052e-06
1.16778e-06
1.16767e-06
1.40493e-06
1.40629e-06