/*--------------------------------*- C++ -*----------------------------------*\
| =========                 |                                                 |
| \\      /  F ield         | OpenFOAM: The Open Source CFD Toolbox           |
|  \\    /   O peration     | Version:  2312                                  |
|   \\  /    A nd           | Website:  www.openfoam.com                      |
|    \\/     M anipulation  |                                                 |
\*---------------------------------------------------------------------------*/
FoamFile
{
    version     2.0;
    format      ascii;
    arch        "LSB;label=32;scalar=64";
    class       volScalarField;
    location    "600";
    object      nut;
}
// * * * * * * * * * * * * * * * * * * * * * * * * * * * * * * * * * * * * * //

dimensions      [0 2 -1 0 0 0 0];

internalField   nonuniform List<scalar> 
43168
(
0.000208361
0.000201473
0.000201484
0.000182433
0.000182386
0.000201133
0.000201114
0.000182399
0.000201145
0.000201124
0.000201148
0.000201125
0.000182397
0.000201159
0.000201134
0.000182439
0.000182489
0.000201458
0.000201438
0.000182469
0.000201469
0.000201448
0.00020145
0.000182521
0.000201459
5.07454e-05
5.07422e-05
0.000207768
0.000207761
0.000207777
0.000207768
9.99447e-05
5.07586e-05
9.98955e-05
5.07643e-05
2.38967e-05
2.39008e-05
9.99442e-05
5.07511e-05
9.98879e-05
5.07615e-05
0.000208354
0.00020837
0.00020836
0.000144484
0.000103664
0.000211326
0.000201788
0.000144324
0.000103733
0.000211741
2.38957e-05
2.38999e-05
0.000144482
0.00021133
0.000103666
0.0002018
0.000144321
0.000211749
0.000103735
7.79276e-05
7.79221e-05
0.000182844
7.79503e-05
7.79451e-05
2.3894e-05
2.3892e-05
0.000181944
7.7905e-05
7.78986e-05
2.38984e-05
2.38943e-05
2.38964e-05
2.38922e-05
0.000182076
7.79326e-05
7.7926e-05
7.79113e-05
7.79049e-05
0.000200473
0.000103599
9.9843e-05
5.07548e-05
5.07486e-05
9.98954e-05
9.98399e-05
5.07492e-05
5.07432e-05
9.98917e-05
0.000144136
0.000200807
0.000103669
0.00021089
0.000103594
0.000210459
0.000144304
0.000144133
0.000200789
0.000103645
0.000210883
0.000103571
0.000210453
0.000144301
2.38964e-05
2.38923e-05
0.000182048
7.7912e-05
7.79327e-05
7.78903e-05
2.38978e-05
0.000200484
0.000103589
9.98344e-05
5.0752e-05
5.07414e-05
9.98954e-05
0.000144121
0.000200819
0.00010366
0.000210892
0.000103585
0.000210461
0.000144312
9.98316e-05
5.0746e-05
5.07401e-05
9.98918e-05
0.000144118
0.000200797
0.000210889
0.00010365
0.000210458
0.000103575
0.000144309
0.000103667
0.000210892
0.000144302
5.07511e-05
9.98847e-05
0.000210891
0.000103656
0.000144304
5.07471e-05
9.98894e-05
2.38955e-05
2.38913e-05
0.000182099
7.79189e-05
7.79334e-05
7.78952e-05
7.79089e-05
2.38978e-05
2.38935e-05
0.000144135
0.000200833
0.000210901
0.000103669
0.00021047
0.000103595
0.000144299
0.000144125
0.000200808
0.000210891
0.000103651
0.00021046
0.000103575
0.000144292
9.98302e-05
5.07534e-05
5.07425e-05
9.98828e-05
9.98187e-05
5.07476e-05
5.07367e-05
9.98733e-05
0.000181993
7.79245e-05
7.79194e-05
7.7895e-05
2.38963e-05
2.38953e-05
2.3891e-05
2.38987e-05
2.39028e-05
2.38967e-05
2.39008e-05
7.7938e-05
7.79317e-05
0.00018284
7.79584e-05
7.7952e-05
2.39031e-05
2.3901e-05
0.000182905
7.79633e-05
7.7957e-05
9.99418e-05
5.07529e-05
9.98927e-05
5.07587e-05
0.000144488
0.000103664
0.00021132
0.000201773
0.000144327
0.000103735
0.000211739
0.000144485
0.000103641
0.000211313
0.000201754
0.000144323
0.000103712
0.000211732
9.99444e-05
5.07681e-05
9.99416e-05
5.07625e-05
0.000144507
0.000202089
0.00010373
0.000212158
0.000144504
0.000202069
0.000103707
0.000212151
7.79172e-05
7.79367e-05
0.000182834
7.79377e-05
7.79589e-05
2.3898e-05
2.39022e-05
2.39011e-05
0.000182889
7.79425e-05
7.79619e-05
2.39024e-05
0.000144495
0.000103655
0.000211322
0.000201785
0.000144312
0.000103726
0.000211741
9.99417e-05
5.07495e-05
9.98848e-05
5.07554e-05
0.000144492
0.000211319
0.000103645
0.000201763
0.000144309
0.000211738
0.000103716
9.9937e-05
5.07606e-05
0.000144495
0.000202101
0.000103721
0.00021216
9.99344e-05
5.07591e-05
0.000144492
0.000202079
0.000212158
0.000103711
9.99345e-05
5.07547e-05
9.98834e-05
5.07605e-05
0.000144486
0.000211322
0.000103652
0.000201765
0.000144324
0.00021174
0.000103723
9.99391e-05
5.07507e-05
9.98895e-05
5.07565e-05
0.000144504
0.000202104
0.00010373
0.000212164
9.99328e-05
5.07643e-05
0.000144505
0.00020208
0.00021216
0.000103718
9.9939e-05
5.07603e-05
7.79224e-05
7.79362e-05
0.000182839
7.79448e-05
7.79593e-05
2.38979e-05
2.39021e-05
2.39001e-05
0.000182915
7.79476e-05
7.79613e-05
2.39023e-05
0.000144475
0.000211321
0.000103645
0.000201774
0.000144313
0.00021174
0.000103717
9.99328e-05
5.07527e-05
9.98822e-05
5.0762e-05
9.99234e-05
5.07469e-05
9.98709e-05
5.07559e-05
0.000144502
0.000202115
0.000212168
0.000103731
0.000144494
0.00020209
0.000212159
0.000103711
9.99312e-05
5.07643e-05
9.99203e-05
5.07586e-05
2.38966e-05
2.39007e-05
2.38955e-05
2.38997e-05
0.000182861
7.79527e-05
7.79475e-05
2.3901e-05
2.38999e-05
2.03161e-05
7.90825e-05
5.07447e-05
7.90649e-05
2.03181e-05
5.07361e-05
3.67241e-05
9.99204e-05
4.10736e-05
9.45448e-05
4.10677e-05
9.4515e-05
3.67308e-05
2.03236e-05
7.90959e-05
5.07596e-05
2.03216e-05
7.91122e-05
3.67273e-05
9.99208e-05
4.1064e-05
9.44963e-05
3.67204e-05
4.10695e-05
9.4526e-05
2.03234e-05
7.91216e-05
5.07632e-05
7.91054e-05
2.03254e-05
2.38986e-05
2.38989e-05
3.67271e-05
9.99122e-05
9.45396e-05
4.1073e-05
9.45098e-05
4.10671e-05
3.67278e-05
2.0324e-05
7.90907e-05
5.07568e-05
2.0322e-05
7.9108e-05
3.67239e-05
9.99199e-05
9.44911e-05
4.10634e-05
3.67242e-05
9.45207e-05
4.10689e-05
2.03238e-05
7.91174e-05
5.0756e-05
7.91004e-05
2.03258e-05
2.38977e-05
2.38979e-05
8.15154e-05
2.17175e-05
2.17143e-05
2.17156e-05
2.17123e-05
8.1522e-05
0.000105292
0.000128907
4.86625e-05
7.79378e-05
0.000105274
0.000128959
4.86695e-05
0.000105298
0.000128888
4.86521e-05
7.79322e-05
0.00010528
0.000128943
4.8659e-05
8.15138e-05
2.17138e-05
2.17105e-05
8.15071e-05
2.17158e-05
2.17125e-05
0.0001053
4.8674e-05
7.79404e-05
0.00012902
0.000128968
4.8667e-05
0.000105318
0.000105306
4.86635e-05
7.79352e-05
0.000129003
0.000128949
4.86566e-05
0.000105324
2.38921e-05
2.389e-05
8.14875e-05
2.17107e-05
2.17074e-05
2.17087e-05
2.17054e-05
8.14932e-05
0.000105198
4.86554e-05
7.7897e-05
0.000128778
4.86562e-05
0.000105216
0.000128726
0.000105198
4.86433e-05
7.78907e-05
0.00012876
4.86445e-05
0.000105218
0.000128702
2.38965e-05
2.38962e-05
2.38945e-05
2.38942e-05
8.15023e-05
2.17105e-05
2.17072e-05
8.14964e-05
2.17125e-05
2.17092e-05
0.000105254
0.000128906
7.79249e-05
4.86645e-05
4.86651e-05
0.000128857
0.000105272
0.000105255
0.000128888
7.79187e-05
4.86519e-05
4.86525e-05
0.000128833
0.000105274
0.000105244
4.86605e-05
0.000128792
7.79193e-05
0.000105226
4.86604e-05
0.000128843
0.000105246
4.86475e-05
0.000128768
7.79126e-05
0.000105227
4.86477e-05
0.000128824
8.15052e-05
2.17143e-05
2.1711e-05
2.17124e-05
2.17091e-05
8.15111e-05
3.67201e-05
4.10558e-05
9.44551e-05
9.98695e-05
3.67133e-05
4.10614e-05
9.44859e-05
2.03198e-05
5.07539e-05
7.91026e-05
2.03218e-05
7.9086e-05
2.03199e-05
7.90753e-05
5.07503e-05
2.03179e-05
7.90928e-05
3.67175e-05
9.98691e-05
4.10658e-05
9.45069e-05
3.67234e-05
4.10599e-05
9.44761e-05
3.6715e-05
4.10585e-05
9.44483e-05
9.98665e-05
3.67162e-05
4.10588e-05
9.44709e-05
2.03191e-05
5.07483e-05
7.90806e-05
7.90638e-05
2.03211e-05
2.03192e-05
7.90536e-05
5.07446e-05
2.03172e-05
7.90705e-05
3.67193e-05
9.98664e-05
4.10627e-05
9.44909e-05
4.10626e-05
9.44691e-05
3.67187e-05
2.38945e-05
2.38942e-05
0.000105253
0.000128876
7.79041e-05
4.86515e-05
0.000128824
4.8652e-05
0.000105275
0.00010525
0.000128909
7.79231e-05
4.86663e-05
4.86589e-05
0.000128857
0.000105272
0.00012876
7.78986e-05
0.000128813
8.14994e-05
2.17108e-05
2.17139e-05
2.17089e-05
2.17119e-05
8.15067e-05
2.38961e-05
3.67176e-05
9.44486e-05
4.10546e-05
9.98685e-05
3.67168e-05
9.448e-05
4.10608e-05
2.03201e-05
5.07461e-05
7.90983e-05
2.03221e-05
7.90808e-05
2.03203e-05
7.90705e-05
5.07468e-05
2.03183e-05
7.90882e-05
3.67206e-05
9.98616e-05
9.45015e-05
4.10653e-05
3.67205e-05
9.44704e-05
4.10593e-05
3.67172e-05
4.10544e-05
9.44392e-05
9.98659e-05
3.67124e-05
4.10607e-05
9.44707e-05
2.03192e-05
5.0745e-05
7.9078e-05
7.90607e-05
2.03212e-05
2.03193e-05
7.90503e-05
5.07417e-05
2.03173e-05
7.90679e-05
3.67158e-05
9.98588e-05
4.10648e-05
9.44911e-05
4.10589e-05
9.44606e-05
3.67214e-05
2.03203e-05
5.07504e-05
7.90879e-05
7.90784e-05
2.03224e-05
3.67211e-05
9.9858e-05
9.44876e-05
4.10616e-05
9.44634e-05
4.10618e-05
3.67201e-05
2.03194e-05
5.07461e-05
7.90787e-05
7.90612e-05
2.03214e-05
3.67155e-05
9.98638e-05
4.10633e-05
9.44937e-05
4.10616e-05
9.44628e-05
3.67221e-05
2.38935e-05
2.38933e-05
8.14989e-05
2.17075e-05
2.17107e-05
8.14927e-05
2.17095e-05
2.17127e-05
0.000105258
0.000128882
7.7909e-05
4.86538e-05
0.000128828
4.86505e-05
0.000105276
0.000105256
0.000128913
7.7923e-05
4.86646e-05
4.8665e-05
0.000128859
0.000105273
0.000105248
4.8648e-05
0.000128763
7.79052e-05
0.000128819
0.00010523
4.86482e-05
0.000105246
4.86608e-05
0.000128794
7.79196e-05
0.000105228
4.86603e-05
0.000128849
8.15016e-05
2.17113e-05
2.17145e-05
2.17093e-05
2.17126e-05
8.15076e-05
2.38957e-05
2.38955e-05
3.67205e-05
9.4456e-05
4.10579e-05
9.98574e-05
3.67138e-05
9.44779e-05
4.10575e-05
2.03208e-05
5.07476e-05
7.90991e-05
7.90824e-05
2.03228e-05
2.0321e-05
7.90722e-05
5.07484e-05
2.0319e-05
7.90892e-05
3.67185e-05
9.9856e-05
9.4498e-05
4.10615e-05
9.44761e-05
4.10615e-05
3.67233e-05
3.67166e-05
9.44302e-05
4.10574e-05
9.98477e-05
3.67117e-05
9.44618e-05
4.10569e-05
2.03189e-05
5.07418e-05
7.90763e-05
7.90591e-05
2.03209e-05
2.03191e-05
7.90487e-05
5.07426e-05
2.0317e-05
7.90663e-05
3.67158e-05
9.98447e-05
9.44822e-05
4.10609e-05
9.44516e-05
4.1061e-05
3.67202e-05
8.14966e-05
2.17121e-05
2.17089e-05
0.000105247
0.000128898
7.79143e-05
4.86653e-05
0.000105265
0.000128844
4.8658e-05
0.000105253
0.000128881
7.79088e-05
4.86548e-05
0.000105271
0.000128825
4.86476e-05
0.000105238
7.79114e-05
0.000128835
4.86608e-05
0.000105243
0.00012876
7.79054e-05
0.000128817
4.86501e-05
8.14985e-05
2.1714e-05
2.17107e-05
8.15053e-05
2.1712e-05
2.17087e-05
2.38944e-05
2.38941e-05
2.38933e-05
2.38931e-05
2.39006e-05
2.39009e-05
2.38986e-05
2.38989e-05
8.15218e-05
2.17179e-05
2.17146e-05
2.1716e-05
2.17127e-05
8.15278e-05
0.000105299
0.000128919
4.86691e-05
7.79458e-05
0.000105282
4.86689e-05
0.000128968
0.000105301
0.000128896
4.86565e-05
7.79394e-05
0.000105282
4.86564e-05
0.00012895
8.15196e-05
2.17142e-05
2.17109e-05
8.15136e-05
2.17161e-05
2.17128e-05
0.000105308
4.86732e-05
7.79509e-05
0.000129028
4.86737e-05
0.000105325
0.000128981
0.000105309
4.86606e-05
7.79446e-05
0.000129009
4.86611e-05
0.000105327
0.000128957
2.3905e-05
2.3903e-05
8.15357e-05
2.17177e-05
2.17144e-05
8.15296e-05
2.17197e-05
2.17164e-05
0.00010535
4.86781e-05
0.00012904
7.79707e-05
0.000105333
4.86777e-05
0.000129086
0.000105352
4.86655e-05
0.000129017
7.79645e-05
0.000105334
4.86651e-05
0.000129068
3.67266e-05
9.99179e-05
4.10708e-05
9.45297e-05
4.10709e-05
9.45094e-05
3.67257e-05
2.03229e-05
7.90738e-05
5.07541e-05
2.03209e-05
7.90905e-05
3.6722e-05
9.99179e-05
4.10666e-05
9.44899e-05
4.10671e-05
3.67229e-05
9.45113e-05
2.03227e-05
7.91e-05
5.07578e-05
7.90833e-05
2.03247e-05
3.67342e-05
4.1072e-05
9.45344e-05
9.99687e-05
3.67277e-05
4.10775e-05
9.45631e-05
2.03272e-05
7.91147e-05
5.07692e-05
2.03252e-05
7.91307e-05
3.6729e-05
4.10745e-05
9.45279e-05
9.99655e-05
3.673e-05
4.10748e-05
9.45484e-05
2.03265e-05
7.90927e-05
5.07635e-05
2.03245e-05
7.9109e-05
8.15167e-05
2.17146e-05
2.17177e-05
2.17126e-05
2.17157e-05
8.15237e-05
0.000105301
0.000128886
4.86561e-05
7.7925e-05
4.8656e-05
0.000105281
0.000128937
0.0001053
0.000128919
4.86641e-05
7.79461e-05
0.000128971
0.000105278
4.86712e-05
8.15153e-05
2.17109e-05
2.1714e-05
2.17128e-05
8.15082e-05
2.17159e-05
0.000105306
4.86603e-05
7.79301e-05
0.000128997
4.86607e-05
0.000128947
0.000105327
0.000105304
4.86757e-05
7.79495e-05
0.000129031
0.00012898
4.86685e-05
0.000105326
2.39e-05
2.39002e-05
2.3903e-05
8.15318e-05
2.17144e-05
2.17175e-05
8.15249e-05
2.17164e-05
2.17194e-05
0.000105352
4.86651e-05
0.000129007
7.79499e-05
0.000129056
0.000105332
4.86648e-05
0.000105351
4.86728e-05
0.000129039
7.79713e-05
0.000105329
4.86799e-05
0.000129089
2.39043e-05
3.67223e-05
9.99095e-05
4.10728e-05
9.45301e-05
4.10668e-05
9.45002e-05
3.67288e-05
2.0323e-05
7.90706e-05
5.07508e-05
2.0321e-05
7.90877e-05
3.67255e-05
9.99172e-05
4.1063e-05
9.44812e-05
4.10686e-05
3.67189e-05
9.45111e-05
2.03228e-05
7.90971e-05
5.07544e-05
7.90803e-05
2.03248e-05
3.67321e-05
9.45293e-05
4.10714e-05
9.9968e-05
3.67293e-05
9.45583e-05
4.10769e-05
2.03275e-05
7.91096e-05
5.07661e-05
2.03256e-05
7.91265e-05
3.67323e-05
4.10711e-05
9.45199e-05
9.99655e-05
3.67257e-05
4.10768e-05
9.45492e-05
2.03266e-05
7.90896e-05
5.07602e-05
2.03246e-05
7.91061e-05
3.6728e-05
9.9909e-05
9.45264e-05
4.10696e-05
9.45033e-05
4.10699e-05
3.6727e-05
2.03242e-05
7.90882e-05
5.07559e-05
7.90979e-05
2.03221e-05
3.67236e-05
9.99104e-05
9.44832e-05
4.10655e-05
9.45079e-05
3.67241e-05
4.10659e-05
2.03239e-05
7.91072e-05
5.07595e-05
7.90977e-05
2.0326e-05
3.67228e-05
9.9915e-05
4.10705e-05
9.45326e-05
4.10706e-05
9.45028e-05
3.67293e-05
2.03232e-05
7.90712e-05
5.07519e-05
2.03212e-05
7.90884e-05
3.67258e-05
9.99151e-05
4.10664e-05
9.44838e-05
3.672e-05
4.10668e-05
9.45137e-05
2.0323e-05
7.90978e-05
5.07555e-05
7.90807e-05
2.0325e-05
3.67306e-05
9.45217e-05
4.10736e-05
9.99582e-05
3.6731e-05
9.4545e-05
4.10737e-05
2.03278e-05
7.91069e-05
5.07653e-05
2.03257e-05
7.91165e-05
3.67329e-05
4.10743e-05
9.45224e-05
9.99629e-05
3.67263e-05
4.10745e-05
9.45509e-05
2.03268e-05
7.909e-05
5.07613e-05
2.03248e-05
7.91067e-05
8.15182e-05
2.17149e-05
2.17181e-05
2.17129e-05
2.17162e-05
8.15244e-05
0.000105303
0.000128891
4.86532e-05
7.79321e-05
4.86595e-05
0.000105285
0.000128944
0.0001053
0.000128922
4.8669e-05
7.79465e-05
0.000128974
0.000105283
4.86689e-05
8.15161e-05
2.17111e-05
2.17144e-05
2.17131e-05
8.151e-05
2.17163e-05
0.000105311
4.86644e-05
7.79351e-05
0.000129003
4.86575e-05
0.000128952
0.000105329
0.000105309
4.86732e-05
7.7949e-05
0.000129034
0.000128983
4.86735e-05
0.000105326
2.39e-05
2.39002e-05
2.3902e-05
8.15323e-05
2.17147e-05
2.17179e-05
8.15261e-05
2.17166e-05
2.17199e-05
0.000105354
4.86617e-05
0.000129012
7.79571e-05
0.000129062
0.000105337
4.86686e-05
0.000105352
4.8678e-05
0.000129042
7.79712e-05
0.000105335
4.86776e-05
0.000129093
2.39043e-05
3.67282e-05
9.99075e-05
9.45367e-05
4.10696e-05
9.45164e-05
4.10699e-05
3.67282e-05
2.03246e-05
7.90921e-05
5.07579e-05
7.91089e-05
2.03226e-05
3.67259e-05
9.99088e-05
9.44969e-05
4.10656e-05
9.45184e-05
3.67225e-05
4.10659e-05
2.03245e-05
7.91182e-05
5.07585e-05
7.91016e-05
2.03264e-05
3.67216e-05
9.98963e-05
9.45211e-05
4.1069e-05
9.44912e-05
4.10693e-05
3.67281e-05
2.03227e-05
7.9069e-05
5.07522e-05
2.03207e-05
7.9086e-05
3.67247e-05
9.98993e-05
9.44721e-05
4.10651e-05
3.6718e-05
9.45021e-05
4.10653e-05
2.03225e-05
7.90954e-05
5.07531e-05
7.90787e-05
2.03245e-05
3.67309e-05
9.45349e-05
4.10735e-05
9.99565e-05
3.6732e-05
9.45554e-05
4.10736e-05
2.03282e-05
7.91109e-05
5.07656e-05
2.03263e-05
7.91272e-05
3.67317e-05
9.45107e-05
4.1073e-05
9.99471e-05
3.6725e-05
9.45398e-05
4.1073e-05
2.03263e-05
7.90879e-05
5.07598e-05
2.03243e-05
7.91045e-05
2.38985e-05
2.38988e-05
2.38975e-05
2.38977e-05
8.15299e-05
2.17173e-05
2.17141e-05
8.15234e-05
2.17193e-05
2.17161e-05
0.000105343
4.86712e-05
0.000129027
7.79623e-05
0.000105325
0.000129078
4.86781e-05
0.000105349
4.86608e-05
0.000129009
7.79569e-05
0.000105331
0.000129061
4.86676e-05
2.39029e-05
2.39018e-05
0.000206567
0.000205524
0.000205526
0.000208943
0.000206282
0.000206284
0.000197398
0.000196403
0.000138546
0.000162104
0.000162094
0.000182631
0.000138506
0.000162185
0.000162176
0.000138443
0.000182301
0.00016204
0.000162024
0.000161991
0.000161978
0.000138476
0.00013844
0.000182253
0.000162017
0.00016204
0.00016196
0.000161994
0.000138473
0.000138445
0.00018232
0.000162025
0.000162047
0.000161984
0.000162006
0.000138479
0.000138433
0.000182222
0.000162046
0.000162037
0.000138471
0.000161962
0.000161952
0.000138551
0.00016213
0.000162117
0.000182623
0.000138519
0.000162185
0.000162169
0.000138549
0.000162099
0.00016213
0.000182618
0.000162183
0.000138515
0.000162155
0.000138553
0.000162123
0.000162146
0.00018261
0.000162188
0.000138519
0.000162165
0.000207172
0.000204757
0.000204758
0.000203985
0.000203986
0.000194399
0.000195403
0.00020717
0.000204754
0.000204758
0.000203984
0.000203989
0.000194399
0.000195403
0.000207181
0.000204766
0.00020477
0.000203994
0.000203999
0.000194409
0.000195412
0.000207172
0.000204765
0.000204767
0.000203994
0.000203996
0.000194409
0.000195412
0.000205522
0.000205526
0.000208935
0.00020628
0.000206283
0.000197398
0.000196404
0.000205534
0.000205538
0.000208952
0.000206292
0.000206296
0.000197407
0.000196413
0.000205533
0.000205535
0.000208942
0.000206291
0.000206292
0.000197407
0.000196412
0.000209523
0.000207037
0.000207039
0.000198389
0.000209515
0.000207035
0.000207038
0.00019839
0.000209531
0.000207047
0.000207051
0.000198399
0.000209522
0.000207045
0.000207047
0.000198398
0.000171949
0.000144415
0.000137879
0.000177243
0.000137822
0.00017724
0.000172012
0.000161154
0.000147826
0.000122856
0.0001037
0.000161131
0.000147861
0.000122907
0.000171836
0.000144394
0.000137744
0.000177044
0.000171778
0.000137804
0.000177051
0.000161264
0.00012296
0.000103697
0.000147971
0.000147936
0.000122911
0.000161294
0.000171942
0.000144413
0.000177237
0.000137884
0.000177236
0.000137827
0.000172001
0.000161155
0.000147831
0.000122862
0.000103703
0.000161125
0.000147873
0.000122912
0.000171829
0.000144393
0.000177034
0.000137752
0.000171771
0.000177044
0.000137813
0.000161262
0.000122966
0.000103699
0.000147975
0.000147933
0.000122917
0.000161296
0.00013858
0.000182651
0.000162323
0.000162313
0.000162244
0.000162232
0.00013862
0.000138288
0.000181865
0.000161747
0.00016173
0.000138323
0.000161702
0.000161687
0.0001384
0.000182161
0.000161848
0.000161833
0.000138366
0.000161896
0.000161881
0.000160583
0.000122741
0.000103557
0.000147555
0.000122683
0.000147487
0.000160778
0.000171507
0.00013759
0.000176628
0.000144212
0.000171349
0.000137656
0.000176653
0.000160897
0.000147768
0.00010363
0.000122855
0.000147709
0.0001228
0.00016106
0.000160926
0.000122742
0.000147591
0.000103634
0.000147657
0.00016076
0.000122798
0.000171531
0.000144232
0.000137736
0.000176838
0.00013767
0.000176821
0.000171691
0.00017145
0.000137578
0.000176629
0.000144209
0.000171387
0.000137645
0.000176647
0.000160958
0.000147722
0.000103606
0.000122837
0.000122784
0.000147687
0.00016098
0.000160837
0.000122726
0.000147579
0.000103611
0.000160817
0.00012278
0.000147619
0.000171568
0.000144229
0.000137724
0.000176831
0.000137659
0.000176821
0.00017163
0.0001822
0.000161822
0.000161878
0.000103549
0.000147531
0.000147471
0.000171537
0.000137568
0.00017658
0.000144218
0.000171336
0.00013766
0.000176717
0.000160897
0.000147752
0.00010362
0.000122851
0.000147691
0.000122788
0.000161052
0.000160913
0.00012273
0.000147578
0.000103624
0.000147639
0.000160758
0.000122793
0.000171493
0.000144218
0.00013774
0.000176916
0.000137651
0.000176781
0.000171715
0.000171529
0.000176576
0.00013756
0.000144215
0.000171315
0.000176714
0.00013765
0.000160882
0.000147745
0.000103611
0.00012284
0.000122777
0.000147681
0.000161038
0.000160906
0.000122719
0.000147571
0.000103615
0.00016073
0.000122782
0.000147636
0.000171478
0.000144215
0.000176913
0.000137731
0.000176777
0.000137642
0.000171703
0.000160984
0.000147763
0.00010363
0.000122851
0.000161009
0.000147726
0.0001228
0.000171599
0.00014423
0.000137729
0.000176854
0.000171657
0.000137665
0.000176853
0.000160891
0.00014774
0.000103618
0.000122847
0.000122784
0.000147701
0.00016104
0.000171527
0.00014423
0.000176866
0.000137737
0.000176852
0.000137648
0.000171694
0.000138402
0.000182177
0.000161838
0.00016186
0.000161883
0.000138367
0.000161905
0.000171473
0.000176651
0.000137592
0.000144208
0.000171423
0.000176658
0.000137657
0.000160986
0.000147768
0.000103631
0.000122857
0.000161022
0.000147727
0.000122806
0.000160865
0.000122748
0.000147618
0.000103635
0.000160841
0.000147662
0.000122801
0.000171602
0.000144227
0.000176842
0.000137736
0.000171658
0.000176841
0.000137671
0.000171515
0.000176644
0.000137555
0.000144199
0.00017134
0.000176657
0.000137645
0.000160878
0.000147748
0.000103611
0.000122839
0.000122776
0.000147682
0.000161031
0.000160913
0.000122717
0.000147568
0.000103616
0.000160732
0.000122781
0.000147641
0.0001715
0.000144219
0.000176851
0.000137725
0.000176837
0.000137638
0.000171696
0.000138396
0.000182216
0.000161803
0.000161904
0.00016189
0.000138592
0.000182697
0.000162324
0.000162307
0.000138624
0.000162267
0.000162255
0.000138696
0.000183053
0.000162403
0.000162392
0.000138665
0.000162462
0.000162444
0.000171885
0.000144419
0.000137888
0.000177241
0.000137828
0.00017723
0.000172049
0.000161214
0.000147814
0.000122857
0.000103703
0.000122911
0.000161042
0.000147871
0.000171877
0.000144399
0.000137751
0.000177022
0.000137815
0.000171708
0.000177042
0.000161176
0.000122964
0.000103697
0.000147976
0.000122912
0.000147918
0.000161345
0.000171928
0.000144416
0.000137875
0.000177231
0.000137817
0.000177228
0.000171986
0.000161122
0.000147792
0.000122841
0.000103679
0.000161099
0.000122893
0.00014783
0.000171813
0.000144396
0.00013774
0.000177021
0.00017175
0.000137803
0.000177037
0.00016124
0.000122947
0.000103674
0.00014794
0.000122897
0.000161266
0.000147898
0.00017223
0.000137903
0.000177414
0.000144576
0.000172063
0.000137961
0.000177428
0.000161482
0.000122967
0.000148015
0.000103767
0.000148081
0.000161325
0.000123018
0.000172166
0.000137893
0.000177412
0.000144572
0.000172102
0.00013795
0.000177416
0.000161402
0.000122951
0.000147994
0.000103744
0.00016137
0.000123
0.000148032
0.000138588
0.00018268
0.000162302
0.000162321
0.000162267
0.000162241
0.00013862
0.000138692
0.000183045
0.000162376
0.000162404
0.000162437
0.00013866
0.000162458
0.000171875
0.000144404
0.000137896
0.000177314
0.000137803
0.000177168
0.000172064
0.0001612
0.000147798
0.000122846
0.000103693
0.000122907
0.000161047
0.000147856
0.000171885
0.000144404
0.000137731
0.00017697
0.000137819
0.000171697
0.000177108
0.00016118
0.000122962
0.000103688
0.00014796
0.000122901
0.000147903
0.000161341
0.000171866
0.000144401
0.00017731
0.000137887
0.000177165
0.000137797
0.000172055
0.000161187
0.000147786
0.000122835
0.000103684
0.000161034
0.000122895
0.000147848
0.000171875
0.000144401
0.000176967
0.000137724
0.000171686
0.000177105
0.00013781
0.000161169
0.00012295
0.000103679
0.000147951
0.00012289
0.000161327
0.000147889
0.000172243
0.000137881
0.000177353
0.000144583
0.000172048
0.000137972
0.000177505
0.000161481
0.000122955
0.000148005
0.000103758
0.000148061
0.000161312
0.000123014
0.000172233
0.000177349
0.000137873
0.00014458
0.000172041
0.000177502
0.000137963
0.000161457
0.000122944
0.000147992
0.000103748
0.000161297
0.000123002
0.000148052
0.000171894
0.000144416
0.000177256
0.000137893
0.000177237
0.0001378
0.00017205
0.000161207
0.000147813
0.000122842
0.00010369
0.000147853
0.000161034
0.000122903
0.000171886
0.000144397
0.000177037
0.000137729
0.000177058
0.000171708
0.000137816
0.000161172
0.000122957
0.000103685
0.000147962
0.000147915
0.000122897
0.000161335
0.000172188
0.000137897
0.000177421
0.000144572
0.000172122
0.000137954
0.00017743
0.000161442
0.000122964
0.000148033
0.000103765
0.000161385
0.000148072
0.000123014
0.000172232
0.000177404
0.000137878
0.000144574
0.00017207
0.000177461
0.000137966
0.000161472
0.000122951
0.000148013
0.000103754
0.000161321
0.00012301
0.00014805
0.000138593
0.000182708
0.000162304
0.000162326
0.000162283
0.000162261
0.000138626
0.000138698
0.000183055
0.000162398
0.00016242
0.000162442
0.000138666
0.000162464
0.000171871
0.000144406
0.000177243
0.000137879
0.000177234
0.000137791
0.000172041
0.000161197
0.000147789
0.000122833
0.000103684
0.000147852
0.000161023
0.000122895
0.000171869
0.000144386
0.000177031
0.000137717
0.000177049
0.000171695
0.000137805
0.000161159
0.000122949
0.000103679
0.000147956
0.000147891
0.000122889
0.000161326
0.000172182
0.000177417
0.000137905
0.00014457
0.000172117
0.000177419
0.000137961
0.000161445
0.000122971
0.000148033
0.000103767
0.000161386
0.000148072
0.000123019
0.000172223
0.000177417
0.000137866
0.000144563
0.000172047
0.000177428
0.000137958
0.000161465
0.000122943
0.000147995
0.000103749
0.000161307
0.000123002
0.000148056
0.000138691
0.000183053
0.000162379
0.000162367
0.000138651
0.000162459
0.000162448
0.000210657
0.000202715
0.000202726
0.000183277
0.000212845
0.000203879
0.00020389
0.000184052
0.000214923
0.000204965
0.000204976
0.000184743
0.000216892
0.000205976
0.000205987
0.000185387
0.000218751
0.000206913
0.000206924
0.000186026
0.000220502
0.00020777
0.000207781
0.000186568
0.000222145
0.000208555
0.000208565
0.000187056
0.000223684
0.000209269
0.000209279
0.000187492
0.000225121
0.000209914
0.000209923
0.000187875
0.000226458
0.000210489
0.000210498
0.000188213
0.000227695
0.000210996
0.000211006
0.000188535
0.000228829
0.000211437
0.000211446
0.000188787
0.000229856
0.000211825
0.000211834
0.000188917
0.000230788
0.000212156
0.000212165
0.000189053
0.000231631
0.000212429
0.000212438
0.000189165
0.000232393
0.000212646
0.000212656
0.000189241
0.000233073
0.000212813
0.000212823
0.000189277
0.000233659
0.000212932
0.000212945
0.000189277
0.000234283
0.000213176
0.000213186
0.000189238
0.000233957
0.000213722
0.000213735
0.000193747
0.00018326
0.000202394
0.000202374
0.000183251
0.000202406
0.000202384
0.000202408
0.000202385
0.000183262
0.00020242
0.000202395
0.000183257
0.000183308
0.000184046
0.0002027
0.00020268
0.000203576
0.000203556
0.000183294
0.000184037
0.000202712
0.00020269
0.000203589
0.000203566
0.000202691
0.00020359
0.000203567
0.000183316
0.000184049
0.000202701
0.000203602
0.000203577
0.00018404
0.000184075
0.000184762
0.000203864
0.000203843
0.000204681
0.00020466
0.000184065
0.000184752
0.000203877
0.000203854
0.000204694
0.00020467
0.000203855
0.000204694
0.00020467
0.000184079
0.000184763
0.000203865
0.000204706
0.000204681
0.000184775
0.000184789
0.000185426
0.000204952
0.00020493
0.000205708
0.000205686
0.000184779
0.000185417
0.000204965
0.000204941
0.000205721
0.000205697
0.000204941
0.000205721
0.000205697
0.000184791
0.000185426
0.000204952
0.000205733
0.000205708
0.000185444
0.000185444
0.00018604
0.000205963
0.000205941
0.000206658
0.000206636
0.000185433
0.000186031
0.000205976
0.000205952
0.000206672
0.000206647
0.000205952
0.000206672
0.000206647
0.000185444
0.000186038
0.000205963
0.000206683
0.000206659
0.000186023
0.00018604
0.000186598
0.0002069
0.000206877
0.000207538
0.000207516
0.000186028
0.00018663
0.000206913
0.000206888
0.000207551
0.000207526
0.000206888
0.000207551
0.000207527
0.000186039
0.000186596
0.0002069
0.000207562
0.000207538
0.000186582
0.000186583
0.000187101
0.000207757
0.000207734
0.000208344
0.000208322
0.000186534
0.000187129
0.000207771
0.000207745
0.000208358
0.000208332
0.000207745
0.000208358
0.000208333
0.000186581
0.000187098
0.000207758
0.000208368
0.000208345
0.000187085
0.000187071
0.00018755
0.000208542
0.000208519
0.000209079
0.000209056
0.000187024
0.000187579
0.000208556
0.00020853
0.000209093
0.000209066
0.00020853
0.000209092
0.000209067
0.000187068
0.000187547
0.000208542
0.000209102
0.000209079
0.000187534
0.000187506
0.000187947
0.000209256
0.000209232
0.000209743
0.00020972
0.000187459
0.000187976
0.00020927
0.000209243
0.000209757
0.00020973
0.000209243
0.000209756
0.000209731
0.000187503
0.000187944
0.000209256
0.000209767
0.000209744
0.000187932
0.00018789
0.000188293
0.0002099
0.000209877
0.00021034
0.000210317
0.000187843
0.000188324
0.000209914
0.000209887
0.000210354
0.000210327
0.000209888
0.000210353
0.000210328
0.000187886
0.000188289
0.000209901
0.000210364
0.000210341
0.000188278
0.000188226
0.000188585
0.000210475
0.000210452
0.000210873
0.000210851
0.000188177
0.000188639
0.00021049
0.000210462
0.000210889
0.00021086
0.000210463
0.000210887
0.000210862
0.000188223
0.000188575
0.000210476
0.000210897
0.000210875
0.000188574
0.000188552
0.000188863
0.000210982
0.000210958
0.000211346
0.000211323
0.000188474
0.000188893
0.000210997
0.000210969
0.000211361
0.000211333
0.00021097
0.00021136
0.000211334
0.000188558
0.000188812
0.000210984
0.00021137
0.000211348
0.000188819
0.000188756
0.000189065
0.000211421
0.000211399
0.000211748
0.000211726
0.000188724
0.000189071
0.000211437
0.000211408
0.000211763
0.000211735
0.00021141
0.000211764
0.000211736
0.000188799
0.000189015
0.000211424
0.000211773
0.00021175
0.000189033
0.00018893
0.00018922
0.000211809
0.000211787
0.000212089
0.000212066
0.000188922
0.000189212
0.000211826
0.000211797
0.000212103
0.000212074
0.000211798
0.000212105
0.000212075
0.000188964
0.000189183
0.000211812
0.000212114
0.00021209
0.000189197
0.000189074
0.000189332
0.00021214
0.000212116
0.000212372
0.00021235
0.000189065
0.000189296
0.000212157
0.000212128
0.000212385
0.000212355
0.00021213
0.000212387
0.000212355
0.000189095
0.000189308
0.000212143
0.000212396
0.000212372
0.00018931
0.000189189
0.0001894
0.000212412
0.000212387
0.0002126
0.00021258
0.000189189
0.000189386
0.000212431
0.000212402
0.000212612
0.000212579
0.000212405
0.000212613
0.000212579
0.000189191
0.000189391
0.000212416
0.000212623
0.000212598
0.00018938
0.000189263
0.000189435
0.000212629
0.000212602
0.000212776
0.000212756
0.000189255
0.000189424
0.00021265
0.000212622
0.000212785
0.000212751
0.000212626
0.000212788
0.000212752
0.00018926
0.000189429
0.000212635
0.000212798
0.000212773
0.000189416
0.000189297
0.000189436
0.000212795
0.000212767
0.000212905
0.000212884
0.000189287
0.000189426
0.000212819
0.000212792
0.000212911
0.000212877
0.000212795
0.000212915
0.000212879
0.000189292
0.000189431
0.0002128
0.000212925
0.000212901
0.000189417
0.000189295
0.000189435
0.000212918