/*--------------------------------*- C++ -*----------------------------------*\
| =========                 |                                                 |
| \\      /  F ield         | OpenFOAM: The Open Source CFD Toolbox           |
|  \\    /   O peration     | Version:  2312                                  |
|   \\  /    A nd           | Website:  www.openfoam.com                      |
|    \\/     M anipulation  |                                                 |
\*---------------------------------------------------------------------------*/
FoamFile
{
    version     2.0;
    format      ascii;
    arch        "LSB;label=32;scalar=64";
    class       volScalarField;
    location    "50";
    object      nut;
}
// * * * * * * * * * * * * * * * * * * * * * * * * * * * * * * * * * * * * * //

dimensions      [0 2 -1 0 0 0 0];

internalField   nonuniform List<scalar> 
172512
(
0.000197023
0.000155835
0.000155771
0.00012794
0.000128009
0.000155793
0.000155787
0.000127441
0.000155815
0.000155755
0.000155845
0.0001558
0.000127474
0.000155773
0.000155753
0.000128157
0.000127975
0.000155774
0.000155776
0.000127112
0.000155789
0.000155722
0.000155804
0.000127248
0.00015581
4.91277e-05
3.99355e-05
4.91287e-05
0.000197032
0.000196969
0.000197001
0.000196928
2.40422e-05
0.000155781
4.61136e-05
3.99475e-05
4.91302e-05
3.9943e-05
4.91305e-05
2.4041e-05
2.40413e-05
3.99294e-05
4.9127e-05
3.99286e-05
4.91237e-05
0.000196944
0.000196971
0.000196961
6.69838e-05
4.61515e-05
0.000178603
0.000155831
6.648e-05
4.61568e-05
0.000178581
2.40406e-05
2.40405e-05
6.7033e-05
0.000178588
4.6094e-05
0.000155793
6.66782e-05
0.00017856
4.60996e-05
4.22281e-05
4.1964e-05
0.000127968
4.21652e-05
4.20296e-05
2.40463e-05
2.40429e-05
0.000128056
4.21267e-05
4.19594e-05
2.40461e-05
2.4046e-05
2.40414e-05
2.40419e-05
0.000127648
4.2233e-05
4.19563e-05
4.21852e-05
4.19186e-05
0.00015579
4.61196e-05
3.99327e-05
4.91303e-05
4.91301e-05
3.99487e-05
3.9902e-05
4.91286e-05
4.91292e-05
3.99047e-05
6.68409e-05
0.000155794
4.61358e-05
0.00017861
4.61315e-05
0.000178615
6.6853e-05
6.67335e-05
0.000155792
4.61189e-05
0.000178585
4.61044e-05
0.000178582
6.66905e-05
2.40419e-05
2.40427e-05
0.000128241
4.20537e-05
4.21443e-05
4.21199e-05
2.40466e-05
6.67527e-05
0.000155778
4.61057e-05
0.000178479
3.99114e-05
4.91274e-05
6.67501e-05
0.000155737
0.000178505
4.60996e-05
3.99318e-05
4.91273e-05
4.91296e-05
3.99344e-05
6.67249e-05
0.000155818
4.61087e-05
0.000178586
4.61121e-05
0.000178565
6.67228e-05
3.99046e-05
4.91239e-05
4.91252e-05
3.9899e-05
6.6743e-05
0.000155766
0.000178583
4.60957e-05
0.000178566
4.6093e-05
6.67538e-05
4.61597e-05
0.000178605
6.64054e-05
4.913e-05
3.9889e-05
0.000178596
4.61245e-05
6.68295e-05
4.91228e-05
3.99058e-05
0.000127924
4.18856e-05
4.21406e-05
2.4046e-05
2.40411e-05
2.40417e-05
0.000127983
4.19558e-05
4.1858e-05
4.19276e-05
4.21758e-05
2.40448e-05
2.40456e-05
4.91299e-05
6.63977e-05
0.000155776
0.000178592
4.61026e-05
0.000178593
4.61082e-05
6.65896e-05
6.6838e-05
0.000155737
0.000178544
4.60997e-05
0.000178571
4.60851e-05
6.69205e-05
3.98731e-05
4.91296e-05
4.91299e-05
3.98797e-05
3.98863e-05
4.91198e-05
4.91156e-05
3.98881e-05
0.000128668
4.2145e-05
4.19323e-05
4.18431e-05
2.40453e-05
2.40403e-05
2.40384e-05
2.40457e-05
2.40459e-05
2.40408e-05
2.40402e-05
4.22449e-05
4.19731e-05
0.000127574
4.22237e-05
4.18941e-05
2.40455e-05
2.40401e-05
0.000127357
4.22024e-05
4.19604e-05
3.99045e-05
4.91295e-05
3.99035e-05
4.91265e-05
6.68513e-05
4.61379e-05
0.00017857
0.000155775
6.68692e-05
4.61457e-05
0.000178568
6.67803e-05
4.61195e-05
0.000178555
0.000155778
6.66634e-05
4.61259e-05
0.00017855
3.99444e-05
4.91319e-05
3.99015e-05
4.91241e-05
6.69339e-05
0.000155787
4.61415e-05
0.000178569
6.68089e-05
0.000155791
4.61217e-05
0.000178555
4.196e-05
4.21647e-05
0.000127646
4.20652e-05
4.20749e-05
2.40459e-05
2.4045e-05
2.40409e-05
0.000128083
4.20717e-05
4.21387e-05
2.40445e-05
6.68247e-05
4.61095e-05
0.000178567
0.00015579
6.66952e-05
4.6115e-05
0.000178566
3.98996e-05
4.91249e-05
3.98951e-05
4.9121e-05
6.69107e-05
0.000178542
4.60928e-05
0.000155737
6.6836e-05
0.000178559
4.61e-05
3.99246e-05
4.91233e-05
6.67814e-05
0.000155791
4.61105e-05
0.000178566
3.98984e-05
4.91168e-05
6.67946e-05
0.00015576
0.000178573
4.60987e-05
3.98948e-05
4.91296e-05
3.98854e-05
4.91269e-05
6.69601e-05
0.000178584
4.61226e-05
0.00015581
6.69442e-05
0.00017857
4.61288e-05
3.99025e-05
4.91218e-05
3.99012e-05
4.91219e-05
6.69788e-05
0.000155825
4.61515e-05
0.000178564
3.98958e-05
4.91282e-05
6.6914e-05
0.00015581
0.000178562
4.6124e-05
3.99011e-05
4.91228e-05
4.1966e-05
4.18824e-05
0.000127825
4.1988e-05
4.19273e-05
2.40429e-05
2.40425e-05
2.40399e-05
0.000128153
4.19951e-05
4.19287e-05
2.40417e-05
6.67254e-05
0.000178527
4.60993e-05
0.000155827
6.67639e-05
0.000178535
4.61133e-05
3.98895e-05
4.91284e-05
3.98782e-05
4.91301e-05
3.98854e-05
4.9122e-05
3.98822e-05
4.91217e-05
6.70198e-05
0.000155811
0.000178556
4.60975e-05
6.66893e-05
0.000155838
0.000178563
4.61114e-05
3.98911e-05
4.91265e-05
3.98835e-05
4.9122e-05
2.4045e-05
2.40446e-05
2.40402e-05
2.40409e-05
0.000128157
4.19579e-05
4.19315e-05
2.4044e-05
2.40407e-05
2.0292e-05
4.81094e-05
4.91271e-05
4.79436e-05
2.02941e-05
3.71046e-05
3.99304e-05
4.14875e-05
4.19047e-05
4.15278e-05
4.19049e-05
3.71048e-05
2.02969e-05
4.8294e-05
4.91291e-05
4.8287e-05
2.02977e-05
2.40429e-05
3.71053e-05
3.99431e-05
4.19054e-05
4.12984e-05
4.19058e-05
4.12991e-05
3.71052e-05
2.02947e-05
4.81082e-05
4.91291e-05
2.02943e-05
4.80868e-05
3.71053e-05
3.9948e-05
4.19057e-05
4.1302e-05
3.71054e-05
4.19056e-05
4.1303e-05
2.02947e-05
4.8119e-05
4.91306e-05
4.82644e-05
2.02962e-05
2.40413e-05
2.40409e-05
3.71054e-05
3.99273e-05
4.1116e-05
4.19047e-05
4.12187e-05
4.1905e-05
3.7102e-05
2.0296e-05
4.8179e-05
4.91254e-05
2.02954e-05
4.81338e-05
3.71059e-05
3.99339e-05
4.13409e-05
4.1905e-05
3.71055e-05
4.1248e-05
4.19047e-05
2.02944e-05
4.79364e-05
4.91246e-05
4.78995e-05
2.02955e-05
2.40409e-05
2.40403e-05
4.74663e-05
2.15882e-05
2.1585e-05
2.15866e-05
2.15834e-05
4.744e-05
4.72129e-05
5.57516e-05
4.66108e-05
4.2109e-05
4.72327e-05
5.57701e-05
4.66099e-05
4.73173e-05
5.57293e-05
4.65927e-05
4.19151e-05
4.72759e-05
5.57528e-05
4.65912e-05
4.73152e-05
2.15869e-05
2.15837e-05
4.7393e-05
2.15869e-05
2.15836e-05
4.7201e-05
4.66112e-05
4.21698e-05
5.57675e-05
5.57588e-05
4.66061e-05
4.71788e-05
4.73378e-05
4.65939e-05
4.20558e-05
5.57677e-05
5.57503e-05
4.66031e-05
4.73642e-05
2.40459e-05
2.40439e-05
4.73983e-05
2.15872e-05
2.15843e-05
2.15864e-05
2.15836e-05
4.73777e-05
4.71912e-05
4.66107e-05
4.2087e-05
5.58393e-05
4.66114e-05
4.71716e-05
5.57364e-05
4.72129e-05
4.66064e-05
4.19852e-05
5.58263e-05
4.6628e-05
4.71979e-05
5.57284e-05
2.40458e-05
2.40461e-05
2.40409e-05
2.40412e-05
4.73594e-05
2.15853e-05
2.15824e-05
4.72689e-05
2.15862e-05
2.15832e-05
4.71002e-05
5.58764e-05
4.22246e-05
4.66096e-05
4.66101e-05
5.58812e-05
4.709e-05
4.71414e-05
5.58589e-05
4.19607e-05
4.65946e-05
4.65954e-05
5.58628e-05
4.71346e-05
4.71248e-05
4.66104e-05
5.5956e-05
4.2229e-05
4.71439e-05
4.66097e-05
5.59113e-05
4.71613e-05
4.66005e-05
5.59396e-05
4.18159e-05
4.71754e-05
4.65961e-05
5.58916e-05
4.73509e-05
2.15863e-05
2.15832e-05
2.15854e-05
2.15823e-05
4.73233e-05
3.71063e-05
4.19057e-05
4.13039e-05
3.99518e-05
3.71074e-05
4.19055e-05
4.13246e-05
2.02952e-05
4.91321e-05
4.81228e-05
2.02956e-05
4.81962e-05
2.02958e-05
4.82453e-05
4.91309e-05
2.02941e-05
4.82596e-05
3.71058e-05
3.99455e-05
4.19055e-05
4.13094e-05
3.71055e-05
4.19058e-05
4.13134e-05
3.71042e-05
4.19055e-05
4.0664e-05
3.99106e-05
3.70996e-05
4.19054e-05
4.05571e-05
2.02967e-05
4.91288e-05
4.82674e-05
4.81742e-05
2.02979e-05
2.02979e-05
4.83433e-05
4.91287e-05
2.02966e-05
4.83235e-05
3.71029e-05
3.99032e-05
4.19053e-05
4.06551e-05
4.19057e-05
4.06959e-05
3.71057e-05
2.40417e-05
2.40427e-05
4.71486e-05
5.57521e-05
4.20245e-05
4.6595e-05
5.57442e-05
4.65957e-05
4.71257e-05
4.71001e-05
5.58922e-05
4.21523e-05
4.66115e-05
4.66127e-05
5.58988e-05
4.70914e-05
5.57304e-05
4.20255e-05
5.5758e-05
4.71583e-05
2.15812e-05
2.1584e-05
2.15798e-05
2.15826e-05
4.73149e-05
2.4047e-05
3.70963e-05
3.99085e-05
4.19044e-05
4.09632e-05
4.19046e-05
4.11108e-05
3.71015e-05
2.02958e-05
4.81235e-05
4.91295e-05
4.81591e-05
2.02965e-05
3.71053e-05
4.1406e-05
4.1905e-05
3.99359e-05
3.71051e-05
4.13903e-05
4.19047e-05
2.02961e-05
4.91287e-05
4.81922e-05
2.02967e-05
4.82302e-05
2.02977e-05
4.82868e-05
4.91289e-05
2.02969e-05
4.82692e-05
3.71055e-05
3.99306e-05
4.1359e-05
4.19047e-05
3.71054e-05
4.13723e-05
4.1905e-05
3.71043e-05
4.19047e-05
4.07039e-05
3.99055e-05
3.71022e-05
4.19045e-05
4.06334e-05
2.02956e-05
4.91252e-05
4.81143e-05
4.82299e-05
2.02961e-05
2.0296e-05
4.80233e-05
4.91242e-05
2.02947e-05
4.81984e-05
3.71016e-05
3.98975e-05
4.19046e-05
4.06481e-05
4.19048e-05
4.06567e-05
3.70997e-05
2.02962e-05
4.91318e-05
4.80418e-05
4.79327e-05
2.02971e-05
3.71041e-05
3.98849e-05
4.11918e-05
4.19034e-05
4.11924e-05
4.19037e-05
3.71041e-05
2.02916e-05
4.91255e-05
4.79451e-05
4.7952e-05
2.02924e-05
3.70984e-05
3.99039e-05
4.19047e-05
4.09027e-05
4.1905e-05
4.09232e-05
3.71034e-05
4.73493e-05
2.15842e-05
2.15871e-05
2.15833e-05
2.15862e-05
4.73124e-05
4.73679e-05
4.65997e-05
4.18783e-05
5.57221e-05
4.6603e-05
5.57233e-05
4.73128e-05
4.73579e-05
4.66121e-05
4.21126e-05
5.57527e-05
5.57483e-05
4.66126e-05
4.73049e-05
2.4046e-05
2.4041e-05
2.4042e-05
4.7404e-05
2.15831e-05
2.1586e-05
4.73238e-05
2.15841e-05
2.15871e-05
4.71914e-05
5.5708e-05
4.19375e-05
4.65956e-05
5.57001e-05
4.65966e-05
4.72001e-05
4.72073e-05
5.57348e-05
4.19175e-05
4.66085e-05
4.66094e-05
5.57296e-05
4.72224e-05
4.72187e-05
4.65984e-05
5.57085e-05
4.19185e-05
5.5714e-05
4.72465e-05
4.65972e-05
4.72241e-05
4.66054e-05
5.57429e-05
4.19098e-05
4.72419e-05
4.66098e-05
5.57461e-05
4.74064e-05
2.15845e-05
2.15876e-05
2.15834e-05
2.15865e-05
4.741e-05
2.40444e-05
2.40454e-05
4.91314e-05
3.71118e-05
4.07508e-05
4.19039e-05
3.98781e-05
3.71215e-05
4.08646e-05
4.19034e-05
2.02964e-05
4.91269e-05
4.81179e-05
4.82072e-05
2.02975e-05
2.02973e-05
4.81099e-05
4.91291e-05
2.02967e-05
4.81776e-05
3.7105e-05
3.98739e-05
4.0948e-05
4.19033e-05
4.09171e-05
4.19037e-05
3.71043e-05
3.71016e-05
4.10698e-05
4.19025e-05
3.98908e-05
3.71011e-05
4.09843e-05
4.19022e-05
2.02929e-05
4.91186e-05
4.82212e-05
4.81705e-05
2.0295e-05
2.02925e-05
4.80441e-05
4.91153e-05
2.02911e-05
4.79843e-05
3.71016e-05
3.98845e-05
4.08981e-05
4.19021e-05
4.09444e-05
4.19025e-05
3.71015e-05
4.74972e-05
2.15883e-05
2.1585e-05
4.72592e-05
5.57605e-05
4.22769e-05
4.66103e-05
4.72558e-05
5.57497e-05
4.66117e-05
4.7272e-05
5.57371e-05
4.20371e-05
4.65918e-05
4.72666e-05
5.57256e-05
4.6592e-05
4.72664e-05
4.21733e-05
5.57583e-05
4.66115e-05
4.72833e-05
5.57262e-05
4.19909e-05
5.57351e-05
4.65904e-05
4.75203e-05
2.15882e-05
2.15849e-05
4.73702e-05
2.15878e-05
2.15845e-05
2.40455e-05
2.40458e-05
2.40396e-05
2.40392e-05
2.4046e-05
2.40455e-05
2.40411e-05
2.40403e-05
4.73394e-05
2.15864e-05
2.15832e-05
2.15854e-05
2.15822e-05
4.73548e-05
4.70617e-05
5.58652e-05
4.66101e-05
4.22526e-05
4.70712e-05
4.66096e-05
5.58606e-05
4.71094e-05
5.58481e-05
4.65939e-05
4.1945e-05
4.71181e-05
4.65933e-05
5.58419e-05
4.74439e-05
2.15853e-05
2.15821e-05
4.73848e-05
2.15865e-05
2.15834e-05
4.70513e-05
4.6609e-05
4.22468e-05
5.58333e-05
4.66099e-05
4.68462e-05
5.58371e-05
4.70987e-05
4.65913e-05
4.19808e-05
5.58138e-05
4.6593e-05
4.68927e-05
5.58171e-05
2.40456e-05
2.40409e-05
4.74998e-05
2.15851e-05
2.15819e-05
4.72535e-05
2.15874e-05
2.15842e-05
4.69142e-05
4.66095e-05
5.58101e-05
4.21162e-05
4.69042e-05
4.66086e-05
5.58107e-05
4.69519e-05
4.6592e-05
5.57922e-05
4.19361e-05
4.69469e-05
4.65929e-05
5.57943e-05
3.71031e-05
3.99007e-05
4.19054e-05
4.0722e-05
4.19058e-05
4.07654e-05
3.71225e-05
2.02989e-05
4.83102e-05
4.91295e-05
2.02973e-05
4.84028e-05
3.71051e-05
3.99063e-05
4.19058e-05
4.07279e-05
4.19055e-05
3.71033e-05
4.07595e-05
2.0298e-05
4.81743e-05
4.91307e-05
4.81363e-05
2.02978e-05
3.71054e-05
4.19058e-05
4.12936e-05
3.99495e-05
3.71053e-05
4.19054e-05
4.12932e-05
2.02976e-05
4.81672e-05
4.91317e-05
2.02961e-05
4.81904e-05
3.71117e-05
4.19058e-05
4.07589e-05
3.99073e-05
3.71313e-05
4.19053e-05
4.07844e-05
2.02958e-05
4.80685e-05
4.91271e-05
2.02961e-05
4.81751e-05
4.74104e-05
2.15848e-05
2.15876e-05
2.15831e-05
2.15859e-05
4.73722e-05
4.70171e-05
5.57537e-05
4.65946e-05
4.20229e-05
4.65944e-05
4.71004e-05
5.57599e-05
4.69953e-05
5.58787e-05
4.66115e-05
4.21763e-05
5.58718e-05
4.70738e-05
4.66113e-05
4.73704e-05
2.15812e-05
2.15841e-05
2.15833e-05
4.73994e-05
2.15861e-05
4.70032e-05
4.65947e-05
4.20493e-05
5.57521e-05
4.65946e-05
5.57459e-05
4.69332e-05
4.69877e-05
4.66103e-05
4.21811e-05
5.58449e-05
5.5848e-05
4.66112e-05
4.69181e-05
2.40459e-05
2.40453e-05
2.40414e-05
4.72855e-05
2.15836e-05
2.15865e-05
4.72857e-05
2.1584e-05
2.15868e-05
4.68946e-05
4.65951e-05
5.57457e-05
4.20841e-05
5.57527e-05
4.69e-05
4.65946e-05
4.68796e-05
4.66105e-05
5.58234e-05
4.20674e-05
4.68847e-05
4.66056e-05
5.5828e-05
2.40448e-05
3.71064e-05
3.98941e-05
4.19048e-05
4.0801e-05
4.19051e-05
4.07786e-05
3.71111e-05
2.02967e-05
4.8239e-05
4.91245e-05
2.02959e-05
4.81066e-05
3.71113e-05
3.98989e-05
4.19051e-05
4.0711e-05
4.19048e-05
3.71204e-05
4.07401e-05
2.02959e-05
4.77807e-05
4.91239e-05
4.79608e-05
2.02952e-05
3.71323e-05
4.10622e-05
4.19051e-05
3.9928e-05
3.7117e-05
4.10881e-05
4.19049e-05
2.02941e-05
4.79248e-05
4.91215e-05
2.0294e-05
4.78417e-05
3.71281e-05
4.1905e-05
4.08255e-05
3.99035e-05
3.71057e-05
4.19048e-05
4.07675e-05
2.02923e-05
4.78368e-05
4.91247e-05
2.02927e-05
4.78068e-05
3.71034e-05
3.98872e-05
4.11839e-05
4.19034e-05
4.1182e-05
4.19037e-05
3.71031e-05
2.02947e-05
4.80448e-05
4.9126e-05
4.79169e-05
2.02954e-05
3.71035e-05
3.98906e-05
4.11868e-05
4.19037e-05
4.1186e-05
3.71037e-05
4.19034e-05
2.02933e-05
4.79902e-05
4.91252e-05
4.8118e-05
2.02934e-05
3.71049e-05
3.98985e-05
4.19048e-05
4.08025e-05
4.19051e-05
4.08268e-05
3.71057e-05
2.02932e-05
4.79957e-05
4.91212e-05
2.02917e-05
4.8038e-05
3.71069e-05
3.99041e-05
4.19051e-05
4.08932e-05
3.71134e-05
4.19048e-05
4.0838e-05
2.02928e-05
4.80826e-05
4.91221e-05
4.80745e-05
2.02943e-05
3.71029e-05
4.11843e-05
4.19037e-05
3.99034e-05
3.71031e-05
4.11882e-05
4.19033e-05
2.02946e-05
4.81562e-05
4.91294e-05
2.0293e-05
4.81882e-05
3.71079e-05
4.19052e-05
4.08094e-05
3.99062e-05
3.71161e-05
4.19049e-05
4.08088e-05
2.02945e-05
4.80878e-05
4.91223e-05
2.02936e-05
4.8095e-05
4.73497e-05
2.15846e-05
2.15877e-05
2.15829e-05
2.1586e-05
4.73707e-05
4.70994e-05
5.57051e-05
4.65954e-05
4.19767e-05
4.6595e-05
4.71805e-05
5.57125e-05
4.71227e-05
5.57296e-05
4.66252e-05
4.19056e-05
5.57359e-05
4.72051e-05
4.6628e-05
4.71993e-05
2.15828e-05
2.15859e-05
2.15832e-05
4.73107e-05
2.15863e-05
4.70862e-05
4.65942e-05
4.19805e-05
5.57098e-05
4.65949e-05
5.57008e-05
4.70781e-05
4.71067e-05
4.66256e-05
4.19194e-05
5.57281e-05
5.57222e-05
4.66193e-05
4.70931e-05
2.40428e-05
2.40423e-05
2.40403e-05
4.71038e-05
2.15832e-05
2.15862e-05
4.7198e-05
2.15828e-05
2.15858e-05
4.70566e-05
4.65942e-05
5.57103e-05
4.19571e-05
5.57201e-05
4.70636e-05
4.65939e-05
4.70618e-05
4.66116e-05
5.57242e-05
4.1888e-05
4.70735e-05
4.6608e-05
5.57322e-05
2.40425e-05
3.71138e-05
3.98817e-05
4.09002e-05
4.19033e-05
4.09106e-05
4.19036e-05
3.71068e-05
2.02968e-05
4.81223e-05
4.91273e-05
4.80573e-05
2.0296e-05
3.71044e-05
3.98842e-05
4.09643e-05
4.19035e-05
4.09174e-05
3.71041e-05
4.19032e-05
2.02953e-05
4.7875e-05
4.91269e-05
4.80491e-05
2.02951e-05
3.71071e-05
3.98803e-05
4.08871e-05
4.19022e-05
4.08613e-05
4.19025e-05
3.71004e-05
2.02965e-05
4.82444e-05
4.91222e-05
2.02952e-05
4.81548e-05
3.7104e-05
3.98862e-05
4.07547e-05
4.19025e-05
3.71113e-05
4.0816e-05
4.19022e-05
2.02951e-05
4.79811e-05
4.91223e-05
4.79737e-05
2.0296e-05
3.71249e-05
4.09169e-05
4.19037e-05
3.9899e-05
3.71032e-05
4.08686e-05
4.19035e-05
2.02934e-05
4.78272e-05
4.91361e-05
2.02935e-05
4.78358e-05
3.71098e-05
4.09001e-05
4.19027e-05
3.98891e-05
3.7119e-05
4.08863e-05
4.19024e-05
2.02945e-05
4.80532e-05
4.91203e-05
2.02946e-05
4.79401e-05
2.40449e-05
2.40444e-05
2.40403e-05
2.40403e-05
4.7444e-05
2.15875e-05
2.15844e-05
4.74669e-05
2.15888e-05
2.15857e-05
4.71328e-05
4.66044e-05
5.57607e-05
4.19165e-05
4.71515e-05
5.57667e-05
4.66088e-05
4.74763e-05
4.66079e-05
5.57718e-05
4.17498e-05
4.74295e-05
5.57834e-05
4.65961e-05
2.40437e-05
2.4041e-05
0.00019702
0.000210591
0.000210626
0.000210602
0.000197021
0.000210637
0.000210609
0.000219947
0.000219947
6.37476e-05
9.44831e-05
9.43949e-05
0.000127928
6.37306e-05
9.44955e-05
9.45097e-05
6.36344e-05
0.000127723
9.43315e-05
9.44317e-05
9.4281e-05
9.44699e-05
6.36506e-05
6.36443e-05
0.000127373
9.44506e-05
9.47629e-05
9.43707e-05
9.46182e-05
6.36607e-05
6.36877e-05
0.000127409
9.44819e-05
9.4345e-05
9.42591e-05
9.43657e-05
6.37366e-05
6.37134e-05
0.000128047
9.46864e-05
9.45922e-05
6.37537e-05
9.44595e-05
9.43647e-05
6.36296e-05
9.4267e-05
9.43681e-05
0.000127656
6.36201e-05
9.42943e-05
9.43555e-05
6.36357e-05
9.43379e-05
9.44677e-05
0.00012726
9.44564e-05
6.36278e-05
9.45692e-05
6.37101e-05
9.42472e-05
9.43165e-05
0.000127548
9.44384e-05
6.37043e-05
9.42704e-05
0.000196934
0.000210536
0.000197028
0.000210617
0.000210601
0.000210593
0.000210603
0.000219939
0.000219943
0.000196978
0.000210608
0.000210585
0.000210632
0.000210569
0.000219912
0.000219921
0.000196992
0.000210625
0.00021063
0.000210623
0.000210666
0.000219923
0.000219919
0.000196957
0.000210556
0.000210593
0.000210536
0.000210586
0.000219979
0.000219942
4.61097e-05
7.36668e-05
7.35752e-05
0.00021058
0.000210539
0.000196942
0.000210577
0.000210559
0.000219944
0.000219942
0.00021058
0.000210607
0.000196966
0.000210593
0.000210585
0.000219959
0.000219963
0.000210551
0.00021055
0.000196974
0.000210554
0.000210592
0.000219932
0.00021993
0.000196996
0.00021063
0.000210582
0.000219918
0.000196941
0.000210578
0.000210578
0.000219929
0.000196963
0.000210608
0.000210583
0.00021993
0.000196985
0.000210563
0.00021061
0.000219936
0.000108047
6.67777e-05
6.10473e-05
0.000115845
6.10293e-05
0.000116099
0.000108486
9.13338e-05
7.38553e-05
5.12932e-05
4.61583e-05
9.13751e-05
7.39371e-05
5.13037e-05
0.00010811
6.65531e-05
6.09491e-05
0.000115762
0.000108337
6.0979e-05
0.000115899
9.15769e-05
5.12976e-05
4.61515e-05
7.40176e-05
7.39421e-05
5.12894e-05
9.15993e-05
0.000108708
6.70147e-05
0.00011586
6.1288e-05
0.000115744
6.12416e-05
0.000109108
9.16773e-05
7.39348e-05
5.11261e-05
4.61018e-05
9.16098e-05
7.39705e-05
5.11477e-05
0.000108785
6.66952e-05
0.000115925
6.10424e-05
0.000108223
0.000115896
6.11335e-05
9.17655e-05
5.11505e-05
4.60942e-05
7.39546e-05
7.39156e-05
5.11383e-05
9.17423e-05
6.37495e-05
0.000128073
9.44669e-05
9.47629e-05
9.44765e-05
9.47544e-05
6.3763e-05
6.36729e-05
0.00012799
9.45014e-05
9.4758e-05
6.36861e-05
9.42616e-05
9.45326e-05
6.36649e-05
0.000127703
9.43459e-05
9.45186e-05
6.36558e-05
9.43699e-05
9.45121e-05
9.13496e-05
5.12751e-05
4.61155e-05
7.36355e-05
5.11466e-05
7.35895e-05
9.13874e-05
0.000108567
6.11132e-05
0.000115555
6.6817e-05
0.000108562
6.11509e-05
0.000115283
9.1394e-05
7.36884e-05
4.61301e-05
5.13119e-05
7.36277e-05
5.13026e-05
9.16124e-05
9.14854e-05
5.13193e-05
7.36093e-05
4.61368e-05
7.36568e-05
9.13116e-05
5.13146e-05
0.000108457
6.68931e-05
6.12117e-05
0.000115336
6.11944e-05
0.000115522
0.00010876
0.000108592
6.09774e-05
0.000115434
6.67351e-05
0.000108569
6.10171e-05
0.000115454
9.13814e-05
7.4159e-05
4.61128e-05
5.11767e-05
5.11636e-05
7.41237e-05
9.14514e-05
9.13603e-05
5.1143e-05
7.37824e-05
4.61199e-05
9.11569e-05
5.11775e-05
7.39749e-05
0.000108314
6.66949e-05
6.10793e-05
0.000115501
6.10347e-05
0.000115202
0.000108457
0.000127891
9.43976e-05
9.44914e-05
0.000108337
6.67523e-05
6.10372e-05
0.000116222
6.10167e-05
0.00011561
0.000108562
9.10392e-05
5.11352e-05
4.61057e-05
7.36051e-05
5.11239e-05
7.35569e-05
9.14143e-05
0.000108378
6.67194e-05
0.000116158
6.09781e-05
0.00011569
6.09583e-05
0.000108379
9.1152e-05
5.11274e-05
4.60979e-05
7.36488e-05
5.1117e-05
9.12519e-05
7.35562e-05
0.000108132
6.10181e-05
0.000116067
6.67397e-05
0.000108092
6.10331e-05
0.000116322
9.14336e-05
7.37796e-05
4.61047e-05
5.11291e-05
7.35762e-05
5.11243e-05
9.14313e-05
9.11843e-05
5.11284e-05
7.35788e-05
4.61134e-05
7.36234e-05
9.11084e-05
5.1138e-05
0.000107882
6.67183e-05
6.10758e-05
0.00011614
6.1007e-05
0.000116358
0.000107955
0.000108312
0.000115678
6.09609e-05
6.67719e-05
0.000108304
0.000115671
6.09742e-05
9.14457e-05
7.3855e-05
4.60899e-05
5.11349e-05
5.11232e-05
7.38043e-05
9.12743e-05
9.13803e-05
5.11193e-05
7.36212e-05
4.60969e-05
9.11818e-05
5.1133e-05
7.37055e-05
0.000108252
6.67724e-05
0.000115924
6.09974e-05
0.000115497
6.09717e-05
0.000108412
9.11383e-05
7.38349e-05
4.61566e-05
5.13111e-05
9.12149e-05
7.37799e-05
5.12959e-05
0.000108302
6.63956e-05
6.09591e-05
0.000116046
0.000108323
6.09378e-05
0.000115564
9.12664e-05
7.39015e-05
4.61193e-05
5.11314e-05
5.11168e-05
7.3847e-05
9.13555e-05
0.0001084
6.67835e-05
0.000115746
6.1074e-05
0.000115601
6.10474e-05
0.000108336
6.37063e-05
0.000127697
9.43989e-05
9.46742e-05
9.45484e-05
9.45763e-05
6.37188e-05
6.37209e-05
0.000127704
9.4296e-05
9.46079e-05
9.4516e-05
6.37127e-05
9.47074e-05
0.000108676
0.000115539
6.09114e-05
6.66056e-05
0.000108332
0.000115519
6.09334e-05
9.1275e-05
7.39879e-05
4.60996e-05
5.11353e-05
9.17052e-05
7.38335e-05
5.112e-05
9.11967e-05
5.11183e-05
7.36396e-05
4.61095e-05
9.11537e-05
7.3692e-05
5.11298e-05
0.000108136
6.65865e-05
0.000115619
6.09958e-05
0.000108582
0.000115784
6.09472e-05
0.000108406
0.000115516
6.0936e-05
6.68514e-05
0.000108041
0.000115483
6.09561e-05
9.14761e-05
7.39054e-05
4.60917e-05
5.11204e-05
5.11062e-05
7.3847e-05
9.13242e-05
9.14486e-05
5.11032e-05
7.37677e-05
4.60947e-05
9.13757e-05
5.11162e-05
7.38438e-05
0.000107919
6.68848e-05
0.000115439
6.09751e-05
0.000115642
6.09447e-05
0.000108336
6.37405e-05
0.000128374
9.44331e-05
9.45823e-05
9.45009e-05
6.36177e-05
0.000127488
9.46246e-05
9.45931e-05
6.36266e-05
9.45834e-05
9.45055e-05
6.3609e-05
0.000127688
9.44901e-05
9.45844e-05
6.35982e-05
9.45034e-05
9.45657e-05
0.000108463
6.68776e-05
6.12814e-05
0.000115286
6.12522e-05
0.000115539
0.000108362
9.14933e-05
7.37817e-05
5.13082e-05
4.61444e-05
5.13116e-05
9.15121e-05
7.38661e-05
0.000108316
6.68825e-05
6.12239e-05
0.000115161
6.12479e-05
0.000108329
0.000115326
9.15748e-05
5.13004e-05
4.61385e-05
7.39427e-05
5.12928e-05
7.38068e-05
9.18527e-05
0.000108678
6.67951e-05
6.1289e-05
0.000115232
6.12011e-05
0.00011555
0.000108574
9.15748e-05
7.40776e-05
5.11819e-05
4.61256e-05
9.13533e-05
5.12001e-05
7.4132e-05
0.000108519
6.6677e-05
6.11444e-05
0.000115402
0.000108634
6.11703e-05
0.000115464
9.16631e-05
5.12037e-05
4.61194e-05
7.41204e-05
5.11878e-05
9.18164e-05
7.41729e-05
0.000108973
6.13084e-05
0.000115509
6.68958e-05
0.000108396
6.13891e-05
0.000115384
9.22378e-05
5.12813e-05
7.41682e-05
4.615e-05
7.42807e-05
9.19332e-05
5.1295e-05
0.00010878
6.13031e-05
0.000115532
6.68644e-05
0.000108597
6.13231e-05
0.000115496
9.16667e-05
5.11969e-05
7.40737e-05
4.6129e-05
9.1864e-05
5.12108e-05
7.41126e-05
6.36178e-05
0.000127071
9.44811e-05
9.44863e-05
9.44624e-05
9.43772e-05
6.36274e-05
6.36098e-05
0.000127963
9.46578e-05
9.44359e-05
9.45427e-05
6.35983e-05
9.44875e-05
0.000108075
6.67765e-05
6.11974e-05
0.000115938
6.11563e-05
0.000115601
0.000108297
9.14307e-05
7.37597e-05
5.12867e-05
4.61142e-05
5.12977e-05
9.12844e-05
7.38036e-05
0.000108177
6.67941e-05
6.11115e-05
0.00011595
6.11417e-05
0.000108001
0.000116213
9.12156e-05
5.12731e-05
4.6108e-05
7.40865e-05
5.12694e-05
7.37964e-05
9.12886e-05
0.000108146
6.68185e-05
0.000115686
6.13145e-05
0.000115685
6.12472e-05
0.000108208
9.14349e-05
7.38667e-05
5.11332e-05
4.60994e-05
9.11309e-05
5.11469e-05
7.39129e-05
0.000108334
6.68071e-05
0.000115742
6.10447e-05
0.000108538
0.000115737
6.11308e-05
9.11342e-05
5.11439e-05
4.60934e-05
7.39802e-05
5.11337e-05
9.12362e-05
7.39095e-05
0.000108624
6.12447e-05
0.000115747
6.69041e-05
0.000108353
6.126e-05
0.000115701
9.14447e-05
5.12603e-05
7.40574e-05
4.61183e-05
7.40937e-05
9.13009e-05
5.1268e-05
0.000108802
0.000115576
6.13154e-05
6.69151e-05
0.000108306
0.000115635
6.13347e-05
9.14187e-05
5.11394e-05
7.39532e-05
4.61052e-05
9.10984e-05
5.11508e-05
7.40065e-05
0.000108167
6.70236e-05
0.00011604
6.11419e-05
0.00011565
6.1139e-05
0.000108254
9.13677e-05
7.39737e-05
5.11281e-05
4.61286e-05
7.4167e-05
9.12513e-05
5.11443e-05
0.000108458
6.69531e-05
0.000115685
6.11076e-05
0.000115687
0.000108448
6.11079e-05
9.13744e-05
5.11518e-05
4.61225e-05
7.40765e-05
7.40622e-05
5.11359e-05
9.14574e-05
0.000108151
6.11387e-05
0.000115644
6.69661e-05
0.000108096
6.11588e-05
0.000115745
9.17411e-05
5.12845e-05
7.40855e-05
4.61583e-05
9.14497e-05
7.43104e-05
5.12956e-05
0.000108407
0.000115991
6.11534e-05
6.69011e-05
0.000108019
0.0001161
6.11818e-05
9.15499e-05
5.11504e-05
7.40085e-05
4.61273e-05
9.13564e-05
5.1166e-05
7.40374e-05
6.36944e-05
0.000127329
9.41811e-05
9.43507e-05
9.4544e-05
9.41842e-05
6.36999e-05
6.36836e-05
0.000128295
9.44949e-05
9.43018e-05
9.44723e-05
6.36713e-05
9.45225e-05
0.000108773
6.67314e-05
0.000115682
6.12463e-05
0.000115384
6.12083e-05
0.000108929
9.13339e-05
7.39823e-05
5.11175e-05
4.61078e-05
7.40639e-05
9.13801e-05
5.11319e-05
0.000108412
6.68065e-05
0.000115311
6.0993e-05
0.000115734
0.000107973
6.10989e-05
9.12368e-05
5.11345e-05
4.61049e-05
7.40422e-05
7.4005e-05
5.112e-05
9.15309e-05
0.000108593
0.00011562
6.1285e-05
6.70339e-05
0.000108574
0.000115633
6.13099e-05
9.15699e-05
5.11447e-05
7.40306e-05
4.61032e-05
9.15007e-05
7.40218e-05
5.11546e-05
0.000108865
0.000115931
6.12456e-05
6.66941e-05
0.000109059
0.000115673
6.1261e-05
9.13149e-05
5.11326e-05
7.40498e-05
4.61155e-05
9.12413e-05
5.11455e-05
7.41078e-05
6.37506e-05
0.000128066
9.45103e-05
9.47706e-05
6.37367e-05
9.47295e-05
9.4896e-05
0.000197014
0.000155859
0.000155864
0.000127555
0.000196921
0.000155813
0.000155846
0.000127546
0.000196726
0.000155679
0.000155758
0.000127218
0.000196543
0.000155604
0.000155598
0.000127263
0.00019655
0.000155594
0.000155576
0.000127576
0.000196581
0.000155557
0.000155575
0.000127731
0.000196592
0.000155549
0.000155586
0.000127737
0.000196642
0.000155553
0.000155598
0.000127555
0.000196754
0.000155643
0.000155615
0.000127236
0.000196845
0.000155708
0.000155708
0.000127704
0.000196917
0.000155728
0.000155723
0.000127481
0.000196943
0.000155755
0.000155727
0.00012762
0.000196946
0.000155762
0.000155755
0.00012749
0.000196949
0.000155777
0.000155764
0.000127869
0.00019695
0.000155781
0.000155775
0.000128326
0.000196955
0.000155782
0.000155778
0.000127601
0.000196958
0.0001558
0.000155813
0.000127756
0.000196965
0.000155832
0.000155855
0.000127632
0.000197019
0.000155944
0.000155985
0.000127391
0.00019085
0.000162118
0.00016221
0.000131464
0.000128268
0.000155791
0.000155791
0.000127834
0.000155799
0.00015577
0.000155865
0.000155807
0.000128127
0.000155849
0.000155834
0.000127826
0.000127671
0.00012768
0.000155813
0.0001558
0.000155809
0.000155791
0.000127538
0.000127858
0.00015581
0.000155792
0.000155785
0.000155798
0.000155803
0.000155823
0.000155808
0.00012816
0.000128412
0.000155834
0.000155854
0.000155834
0.000127775
0.000127902
0.000127809
0.000155743
0.00015576
0.000155684
0.00015566
0.000127696
0.000127787
0.000155757
0.000155761
0.000155701
0.000155678
0.000155769
0.000155703
0.000155686
0.000127711
0.000127785
0.000155807
0.000155788
0.000155711
0.000127532
0.000127631
0.000128083
0.000155662
0.000155589
0.000155596
0.000155568
0.000127515
0.00012819
0.000155658
0.000155624
0.000155619
0.000155543
0.000155609
0.000155594
0.000155522
0.000127881
0.000127555
0.000155648
0.000155607
0.000155548
0.00012796
0.000127765
0.000127701
0.000155571
0.000155551
0.000155543
0.00015556
0.00012764
0.000128119
0.000155602
0.000155522
0.000155591
0.000155526
0.000155473
0.000155584
0.000155497
0.000127416
0.000127622
0.000155503
0.000155566
0.000155522
0.000127641
0.000127459
0.000127667
0.000155518
0.000155532
0.000155539
0.000155519
0.000127451
0.000127229
0.00015556
0.000155494
0.000155551
0.000155506
0.000155483
0.00015554
0.000155542
0.000127391
0.0001273
0.000155498
0.000155571
0.00015556
0.000128293
0.000127462
0.000127469
0.000155515
0.000155497
0.000155548
0.000155521
0.00012711
0.000127657
0.000155545
0.000155447
0.000155574
0.000155511
0.000155517
0.000155539
0.000155532
0.000127114
0.000127704
0.000155538
0.00015557
0.000155544
0.000127735
0.0001273
0.000127634
0.000155532
0.000155483
0.000155574
0.000155503
0.000126979
0.000127269
0.000155558
0.000155507
0.000155589
0.000155527
0.000155522
0.000155545
0.000155539
0.000127508
0.000127715
0.000155533
0.000155586
0.000155566
0.000127746
0.000127375
0.000127973
0.000155564
0.000155494
0.000155624
0.000155576
0.000127028
0.000127886
0.000155587
0.000155517
0.00015565
0.000155566
0.000155531
0.000155588
0.000155574
0.000127667
0.00012811
0.000155566
0.000155598
0.000155607
0.000127531
0.000127846
0.000128338
0.000155642
0.000155604
0.000155687
0.000155673
0.000127672
0.000127854
0.000155663
0.000155589
0.000155723
0.000155667
0.000155569
0.000155685
0.00015563
0.000127562
0.000127855
0.000155596
0.000155673
0.000155655
0.000127987
0.000128405
0.000128139
0.000155669
0.000155668
0.000155717
0.000155691
0.000128039
0.000127765
0.000155712
0.00015565
0.000155753
0.000155696
0.000155635
0.000155723
0.000155651
0.000128001
0.000128135
0.000155649
0.00015572
0.000155687
0.000127807
0.00012758
0.000127694
0.000155722
0.000155693
0.000155731
0.000155702
0.000127495
0.00012787
0.000155742
0.000155689
0.000155762
0.000155699
0.000155678
0.000155745
0.000155728
0.00012765
0.000128105
0.00015568
0.000155724
0.000155723
0.000127922
0.000127507
0.000127775
0.000155731
0.000155704
0.00015574
0.000155714
0.000127893
0.000127731
0.000155769
0.000155686
0.000155769
0.000155712
0.000155705
0.000155755
0.000155714
0.000127503
0.000128251
0.000155713
0.000155743
0.000155725
0.000128201
0.00012783
0.000127913
0.000155725
0.000155706
0.000155733