/*--------------------------------*- C++ -*----------------------------------*\
| =========                 |                                                 |
| \\      /  F ield         | OpenFOAM: The Open Source CFD Toolbox           |
|  \\    /   O peration     | Version:                                        |
|   \\  /    A nd           | Website:  www.openfoam.com                      |
|    \\/     M anipulation  |                                                 |
\*---------------------------------------------------------------------------*/
FoamFile
{
    version     2.0;
    format      ascii;
    class       volScalarField;
    location    "100";
    object      epsilon;
}
// * * * * * * * * * * * * * * * * * * * * * * * * * * * * * * * * * * * * * //

dimensions      [0 2 -3 0 0 0 0];


internalField   nonuniform List<scalar> 
172512
(
4.9917e-07
4.99976e-07
4.99976e-07
4.99864e-07
4.45574e-07
4.54114e-07
4.54114e-07
4.63753e-07
4.03788e-07
4.18749e-07
4.18751e-07
4.3954e-07
3.68406e-07
3.88705e-07
3.88708e-07
4.17791e-07
3.38054e-07
3.62205e-07
3.62208e-07
3.9618e-07
3.11679e-07
3.38343e-07
3.38346e-07
3.74653e-07
2.88499e-07
3.16686e-07
3.1669e-07
3.53759e-07
2.67942e-07
2.97056e-07
2.9706e-07
3.34179e-07
2.49593e-07
2.79396e-07
2.794e-07
3.16504e-07
2.33146e-07
2.637e-07
2.63704e-07
3.01174e-07
2.18372e-07
2.49974e-07
2.49978e-07
2.88502e-07
2.05095e-07
2.38219e-07
2.38223e-07
2.78703e-07
1.93173e-07
2.28433e-07
2.28437e-07
2.71886e-07
1.82499e-07
2.20625e-07
2.2063e-07
2.68174e-07
1.72979e-07
2.14801e-07
2.14806e-07
2.67658e-07
1.64541e-07
2.10979e-07
2.10984e-07
2.70512e-07
1.57124e-07
2.09155e-07
2.0916e-07
2.76711e-07
1.50657e-07
2.09328e-07
2.09334e-07
2.86268e-07
1.45127e-07
2.11509e-07
2.11516e-07
2.99028e-07
1.4039e-07
2.15465e-07
2.15474e-07
3.14572e-07
1.36263e-07
2.20338e-07
2.20346e-07
3.31008e-07
1.32605e-07
2.24653e-07
2.24661e-07
3.44544e-07
1.2801e-07
2.25248e-07
2.25258e-07
3.5031e-07
1.23606e-07
2.23175e-07
2.23191e-07
3.50149e-07
1.21479e-07
2.22928e-07
2.2295e-07
3.50417e-07
1.20979e-07
2.23458e-07
2.23484e-07
3.51437e-07
1.20965e-07
2.2381e-07
2.23837e-07
3.51997e-07
1.21004e-07
2.23944e-07
2.23971e-07
3.52174e-07
1.21025e-07
2.23991e-07
2.24019e-07
3.52234e-07
1.21035e-07
2.24007e-07
2.24039e-07
3.52258e-07
1.2104e-07
2.24011e-07
2.24043e-07
3.5227e-07
1.21045e-07
2.24015e-07
2.24048e-07
3.52279e-07
1.21049e-07
2.24019e-07
2.24053e-07
3.52279e-07
1.21052e-07
2.24023e-07
2.24057e-07
3.5229e-07
1.21055e-07
2.24026e-07
2.24061e-07
3.523e-07
1.21057e-07
2.24027e-07
2.24064e-07
3.52298e-07
1.21058e-07
2.24028e-07
2.24064e-07
3.52282e-07
1.21058e-07
2.24027e-07
2.24065e-07
3.52253e-07
1.21058e-07
2.24027e-07
2.24064e-07
3.52253e-07
1.21058e-07
2.24027e-07
2.24064e-07
3.52269e-07
1.21059e-07
2.24027e-07
2.24064e-07
3.52269e-07
1.21059e-07
2.24027e-07
2.24064e-07
3.52267e-07
1.21058e-07
2.24027e-07
2.24064e-07
3.52272e-07
1.21058e-07
2.24027e-07
2.24064e-07
3.52269e-07
1.21058e-07
2.24027e-07
2.24064e-07
3.52259e-07
1.21058e-07
2.24028e-07
2.24064e-07
3.52252e-07
1.21058e-07
2.24028e-07
2.24064e-07
3.52255e-07
1.21057e-07
2.24028e-07
2.24064e-07
3.52263e-07
1.21057e-07
2.24028e-07
2.24064e-07
3.52271e-07
1.21057e-07
2.24028e-07
2.24064e-07
3.52278e-07
1.21057e-07
2.24029e-07
2.24064e-07
3.52283e-07
1.21057e-07
2.24028e-07
2.24064e-07
3.52284e-07
1.21057e-07
2.24028e-07
2.24064e-07
3.52285e-07
1.21057e-07
2.24029e-07
2.24064e-07
3.52286e-07
1.21057e-07
2.24029e-07
2.24064e-07
3.52286e-07
1.21057e-07
2.24029e-07
2.24064e-07
3.52287e-07
1.21057e-07
2.24029e-07
2.24065e-07
3.52288e-07
1.21057e-07
2.24031e-07
2.24065e-07
3.52288e-07
1.21057e-07
2.2403e-07
2.24065e-07
3.52287e-07
1.21057e-07
2.2403e-07
2.24065e-07
3.52286e-07
1.21057e-07
2.2403e-07
2.24065e-07
3.52286e-07
1.21057e-07
2.24031e-07
2.24065e-07
3.52287e-07
1.21057e-07
2.24032e-07
2.24065e-07
3.52288e-07
1.21057e-07
2.24033e-07
2.24065e-07
3.52286e-07
1.21057e-07
2.24034e-07
2.24064e-07
3.52285e-07
1.21057e-07
2.24035e-07
2.24064e-07
3.52285e-07
1.21057e-07
2.24036e-07
2.24064e-07
3.52284e-07
1.21057e-07
2.24036e-07
2.24064e-07
3.52284e-07
1.21057e-07
2.24037e-07
2.24064e-07
3.52285e-07
1.21057e-07
2.24038e-07
2.24065e-07
3.52287e-07
1.21057e-07
2.24039e-07
2.24065e-07
3.52287e-07
1.21057e-07
2.24039e-07
2.24065e-07
3.52285e-07
1.21057e-07
2.2404e-07
2.24065e-07
3.52285e-07
1.21057e-07
2.2404e-07
2.24065e-07
3.52288e-07
1.21057e-07
2.2404e-07
2.24065e-07
3.52291e-07
1.21057e-07
2.2404e-07
2.24065e-07
3.5229e-07
1.21057e-07
2.24041e-07
2.24065e-07
3.52288e-07
1.21057e-07
2.24041e-07
2.24064e-07
3.52287e-07
1.21057e-07
2.24041e-07
2.24065e-07
3.52286e-07
1.21057e-07
2.24041e-07
2.24065e-07
3.52284e-07
1.21057e-07
2.24041e-07
2.24064e-07
3.52282e-07
1.21057e-07
2.2404e-07
2.24063e-07
3.52281e-07
1.21056e-07
2.24039e-07
2.24064e-07
3.52283e-07
1.21057e-07
2.24038e-07
2.24063e-07
3.52286e-07
1.21057e-07
2.24037e-07
2.24061e-07
3.52288e-07
1.21057e-07
2.24035e-07
2.24059e-07
3.52287e-07
1.21056e-07
2.2403e-07
2.24054e-07
3.52283e-07
1.21056e-07
2.24023e-07
2.24047e-07
3.52273e-07
1.21055e-07
2.24013e-07
2.24036e-07
3.52261e-07
1.21055e-07
2.23997e-07
2.2402e-07
3.5225e-07
1.21054e-07
2.23972e-07
2.23995e-07
3.52235e-07
1.21052e-07
2.23932e-07
2.23955e-07
3.5221e-07
1.21048e-07
2.23832e-07
2.23859e-07
3.52163e-07
1.20934e-07
2.23179e-07
2.23198e-07
3.51845e-07
1.27197e-07
2.03411e-07
2.03424e-07
3.25923e-07
5.06203e-07
5.05586e-07
5.05585e-07
5.06203e-07
5.05585e-07
5.05585e-07
5.05986e-07
5.05986e-07
5.05986e-07
5.05987e-07
5.05587e-07
5.05586e-07
5.06203e-07
5.05587e-07
5.05585e-07
5.06203e-07
4.99865e-07
4.67264e-07
4.99977e-07
4.99979e-07
4.6414e-07
4.64148e-07
4.99865e-07
4.67263e-07
4.99979e-07
4.99979e-07
4.64144e-07
4.64149e-07
4.99977e-07
4.64135e-07
4.6414e-07
4.99864e-07
4.67266e-07
4.99978e-07
4.64135e-07
4.64144e-07
4.67268e-07
4.63753e-07
4.41544e-07
4.54119e-07
4.54127e-07
4.27004e-07
4.27013e-07
4.63753e-07
4.41543e-07
4.54123e-07
4.54129e-07
4.27004e-07
4.27015e-07
4.5412e-07
4.26996e-07
4.27006e-07
4.63753e-07
4.41549e-07
4.54123e-07
4.26998e-07
4.27007e-07
4.41556e-07
4.39534e-07
4.19396e-07
4.18757e-07
4.18766e-07
3.95844e-07
3.95853e-07
4.39537e-07
4.19399e-07
4.18757e-07
4.18769e-07
3.95839e-07
3.95856e-07
4.18761e-07
3.95834e-07
3.9585e-07
4.39538e-07
4.19404e-07
4.1876e-07
3.95836e-07
3.95845e-07
4.19413e-07
4.17775e-07
3.9773e-07
3.88717e-07
3.88725e-07
3.68571e-07
3.6858e-07
4.17779e-07
3.97735e-07
3.88711e-07
3.88729e-07
3.68562e-07
3.68583e-07
3.88723e-07
3.68559e-07
3.68578e-07
4.17783e-07
3.97741e-07
3.88717e-07
3.68561e-07
3.68569e-07
3.97751e-07
3.96161e-07
3.76141e-07
3.62219e-07
3.62226e-07
3.44105e-07
3.44112e-07
3.96167e-07
3.76147e-07
3.62208e-07
3.6223e-07
3.44092e-07
3.44116e-07
3.62226e-07
3.44091e-07
3.44113e-07
3.96172e-07
3.76154e-07
3.62216e-07
3.44094e-07
3.44101e-07
3.76164e-07
3.74632e-07
3.55142e-07
3.38358e-07
3.38364e-07
3.21922e-07
3.21928e-07
3.74638e-07
3.55148e-07
3.38344e-07
3.38368e-07
3.21906e-07
3.21932e-07
3.38366e-07
3.21907e-07
3.21931e-07
3.74644e-07
3.55156e-07
3.38353e-07
3.2191e-07
3.21916e-07
3.55167e-07
3.53736e-07
3.35408e-07
3.16703e-07
3.16708e-07
3.01795e-07
3.018e-07
3.53743e-07
3.35414e-07
3.16686e-07
3.16712e-07
3.01777e-07
3.01804e-07
3.16711e-07
3.01779e-07
3.01804e-07
3.5375e-07
3.35422e-07
3.16695e-07
3.01782e-07
3.01787e-07
3.35433e-07
3.34156e-07
3.17534e-07
2.97074e-07
2.97079e-07
2.83646e-07
2.8365e-07
3.34163e-07
3.1754e-07
2.97055e-07
2.97082e-07
2.83626e-07
2.83654e-07
2.97082e-07
2.83628e-07
2.83654e-07
3.3417e-07
3.17548e-07
2.97065e-07
2.83632e-07
2.83636e-07
3.17559e-07
3.1648e-07
3.01968e-07
2.79415e-07
2.7942e-07
2.67459e-07
2.67464e-07
3.16488e-07
3.01974e-07
2.79394e-07
2.79422e-07
2.67438e-07
2.67467e-07
2.79423e-07
2.67441e-07
2.67467e-07
3.16495e-07
3.01983e-07
2.79405e-07
2.67444e-07
2.67448e-07
3.01994e-07
3.01149e-07
2.89029e-07
2.6372e-07
2.63724e-07
2.53242e-07
2.53247e-07
3.01158e-07
2.89035e-07
2.63698e-07
2.63727e-07
2.53219e-07
2.5325e-07
2.63728e-07
2.53222e-07
2.5325e-07
3.01165e-07
2.89044e-07
2.63709e-07
2.53226e-07
2.5323e-07
2.89056e-07
2.88476e-07
2.78936e-07
2.49995e-07
2.5e-07
2.40995e-07
2.41e-07
2.88485e-07
2.78942e-07
2.49972e-07
2.50003e-07
2.40971e-07
2.41003e-07
2.50003e-07
2.40974e-07
2.41002e-07
2.88492e-07
2.78952e-07
2.49983e-07
2.40977e-07
2.40982e-07
2.78964e-07
2.78676e-07
2.71816e-07
2.38241e-07
2.38246e-07
2.30718e-07
2.30724e-07
2.78685e-07
2.71823e-07
2.38216e-07
2.38249e-07
2.30692e-07
2.30727e-07
2.38248e-07
2.30695e-07
2.30725e-07
2.78693e-07
2.71833e-07
2.38228e-07
2.30698e-07
2.30704e-07
2.71845e-07
2.71856e-07
2.67849e-07
2.28457e-07
2.28463e-07
2.22417e-07
2.22425e-07
2.71867e-07
2.67859e-07
2.28431e-07
2.28466e-07
2.22391e-07
2.22429e-07
2.28464e-07
2.22392e-07
2.22425e-07
2.71874e-07
2.67868e-07
2.28443e-07
2.22396e-07
2.22403e-07
2.67882e-07
2.68142e-07
2.66968e-07
2.20651e-07
2.2066e-07
2.16097e-07
2.16108e-07
2.68155e-07
2.66979e-07
2.20624e-07
2.20663e-07
2.16069e-07
2.16111e-07
2.20659e-07
2.1607e-07
2.16105e-07
2.68162e-07
2.6699e-07
2.20638e-07
2.16073e-07
2.16083e-07
2.67005e-07
2.6762e-07
2.69142e-07
2.14829e-07
2.14841e-07
2.11769e-07
2.11785e-07
2.67635e-07
2.69156e-07
2.14801e-07
2.14844e-07
2.11742e-07
2.11787e-07
2.14838e-07
2.11741e-07
2.11777e-07
2.67644e-07
2.69167e-07
2.14816e-07
2.11745e-07
2.11758e-07
2.69185e-07
2.70469e-07
2.74643e-07
2.11007e-07
2.11025e-07
2.09429e-07
2.09453e-07
2.70486e-07
2.7466e-07
2.10981e-07
2.11027e-07
2.09405e-07
2.09454e-07
2.11016e-07
2.09401e-07
2.09438e-07
2.70496e-07
2.74672e-07
2.10997e-07
2.09406e-07
2.09422e-07
2.74692e-07
2.76663e-07
2.83506e-07
2.09183e-07
2.09209e-07
2.09146e-07
2.09175e-07
2.76685e-07
2.83527e-07
2.0916e-07
2.09209e-07
2.09122e-07
2.09175e-07
2.09193e-07
2.09115e-07
2.09155e-07
2.76694e-07
2.83539e-07
2.09177e-07
2.09121e-07
2.09141e-07
2.83561e-07
2.86215e-07
2.95617e-07
2.09359e-07
2.0939e-07
2.10802e-07
2.10837e-07
2.86244e-07
2.95641e-07
2.09335e-07
2.0939e-07
2.10777e-07
2.10837e-07
2.09368e-07
2.10767e-07
2.1081e-07
2.86251e-07
2.95653e-07
2.09355e-07
2.10773e-07
2.10798e-07
2.95677e-07
2.98968e-07
3.10678e-07
2.11545e-07
2.1158e-07
2.14413e-07
2.14455e-07
2.98997e-07
3.10704e-07
2.1152e-07
2.1158e-07
2.14388e-07
2.14454e-07
2.11554e-07
2.14375e-07
2.14423e-07
2.99008e-07
3.1072e-07
2.11542e-07
2.14381e-07
2.14413e-07
3.10746e-07
3.14507e-07
3.26999e-07
2.15504e-07
2.15545e-07
2.19102e-07
2.19147e-07
3.14532e-07
3.27022e-07
2.15478e-07
2.15546e-07
2.19073e-07
2.19147e-07
2.15514e-07
2.19058e-07
2.19112e-07
3.14549e-07
3.27044e-07
2.15504e-07
2.19066e-07
2.19102e-07
3.27077e-07
3.30934e-07
3.41415e-07
2.20384e-07
2.20427e-07
2.23898e-07
2.23939e-07
3.30953e-07
3.41437e-07
2.20353e-07
2.20428e-07
2.23861e-07
2.23941e-07
2.20393e-07
2.23846e-07
2.23902e-07
3.30976e-07
3.41461e-07
2.20383e-07
2.23853e-07
2.23892e-07
3.41492e-07
3.44467e-07
3.48771e-07
2.24707e-07
2.24746e-07
2.25448e-07
2.25484e-07
3.44486e-07
3.48786e-07
2.24669e-07
2.24749e-07
2.25407e-07
2.25489e-07
2.2471e-07
2.25389e-07
2.2545e-07
3.44509e-07
3.48812e-07
2.24699e-07
2.25398e-07
2.25436e-07
3.48844e-07
3.50227e-07
3.49079e-07
2.25305e-07
2.2534e-07
2.23603e-07
2.23635e-07
3.50238e-07
3.49093e-07
2.25265e-07
2.25347e-07
2.23563e-07
2.23651e-07
2.25308e-07
2.23541e-07
2.23609e-07
3.50267e-07
3.49137e-07
2.25294e-07
2.23555e-07
2.23596e-07
3.49164e-07
3.50057e-07
3.49027e-07
2.23235e-07
2.23267e-07
2.22975e-07
2.23007e-07
3.50068e-07
3.49044e-07
2.23195e-07
2.23285e-07
2.22935e-07
2.2303e-07
2.23242e-07
2.2291e-07
2.22983e-07
3.50112e-07
3.49097e-07
2.2323e-07
2.22931e-07
2.22972e-07
3.49121e-07
3.50312e-07
3.50147e-07
2.22991e-07
2.23023e-07
2.23384e-07
2.23414e-07
3.50326e-07
3.50159e-07
2.22951e-07
2.23047e-07
2.23343e-07
2.23441e-07
2.22999e-07
2.23314e-07
2.2339e-07
3.50381e-07
3.50217e-07
2.22988e-07
2.23339e-07
2.23381e-07
3.50234e-07
3.51339e-07
3.50775e-07
2.23524e-07
2.23553e-07
2.23821e-07
2.23848e-07
3.51347e-07
3.50784e-07
2.23482e-07
2.2358e-07
2.23778e-07
2.23874e-07
2.23529e-07
2.23748e-07
2.23826e-07
3.51406e-07
3.50841e-07
2.2352e-07
2.23773e-07
2.23815e-07
3.50861e-07
3.51907e-07
3.50981e-07
2.2388e-07
2.23907e-07
2.23996e-07
2.24022e-07
3.51912e-07
3.50988e-07
2.23837e-07
2.23933e-07
2.23952e-07
2.24047e-07
2.23885e-07
2.23921e-07
2.24e-07
3.5197e-07
3.51045e-07
2.23874e-07
2.23947e-07
2.23989e-07
3.51069e-07
3.52083e-07
3.51051e-07
2.24016e-07
2.24042e-07
2.24059e-07
2.24085e-07
3.52086e-07
3.51056e-07
2.23972e-07
2.24067e-07
2.24015e-07
2.24109e-07
2.24021e-07
2.23984e-07
2.24064e-07
3.52143e-07
3.51114e-07
2.24009e-07
2.24011e-07
2.24052e-07
3.51138e-07
3.52144e-07
3.51077e-07
2.24066e-07
2.24093e-07
2.24086e-07
2.24108e-07
3.52145e-07
3.5108e-07
2.24021e-07
2.24117e-07
2.24041e-07
2.24135e-07
2.24072e-07
2.24006e-07
2.24088e-07
3.52204e-07
3.5114e-07
2.24059e-07
2.24037e-07
2.24077e-07
3.51163e-07
3.52169e-07
3.51094e-07
2.24088e-07
2.24108e-07
2.24091e-07
2.24113e-07
3.52167e-07
3.51092e-07
2.2404e-07
2.24135e-07
2.24045e-07
2.2414e-07
2.24088e-07
2.24009e-07
2.24093e-07
3.52228e-07
3.51156e-07
2.24077e-07
2.24041e-07
2.24081e-07
3.51177e-07
3.52183e-07
3.51102e-07
2.24091e-07
2.24113e-07
2.24096e-07
2.24119e-07
3.52177e-07
3.51099e-07
2.24045e-07
2.2414e-07
2.2405e-07
2.24146e-07
2.24093e-07
2.24014e-07
2.24099e-07
3.52242e-07
3.51164e-07
2.24081e-07
2.24046e-07
2.24087e-07
3.51184e-07
3.52193e-07
3.51106e-07
2.24096e-07
2.24119e-07
2.24102e-07
2.24125e-07
3.52186e-07
3.51101e-07
2.2405e-07
2.24146e-07
2.24055e-07
2.24152e-07
2.24099e-07
2.24018e-07
2.24104e-07
3.52252e-07
3.51167e-07
2.24087e-07
2.24051e-07
2.24093e-07
3.51186e-07
3.52195e-07
3.51117e-07
2.24102e-07
2.24125e-07
2.24108e-07
2.2413e-07
3.52186e-07
3.51112e-07
2.24055e-07
2.24152e-07
2.2406e-07
2.24157e-07
2.24104e-07
2.24022e-07
2.24109e-07
3.52253e-07
3.51178e-07
2.24092e-07
2.24056e-07
2.24098e-07
3.51201e-07
3.52204e-07
3.51125e-07
2.24108e-07
2.2413e-07
2.24113e-07
2.24135e-07
3.52195e-07
3.51118e-07
2.2406e-07
2.24157e-07
2.24065e-07
2.24162e-07
2.24109e-07
2.24024e-07
2.24114e-07
3.52263e-07
3.51185e-07
2.24097e-07
2.2406e-07
2.24102e-07
3.51207e-07
3.52213e-07
3.51126e-07
2.24111e-07
2.24135e-07
2.24115e-07
2.24139e-07
3.52204e-07
3.5112e-07
2.24064e-07
2.24161e-07
2.24067e-07
2.24164e-07
2.24113e-07
2.24026e-07
2.24115e-07
3.52272e-07
3.51187e-07
2.24101e-07
2.24062e-07
2.24103e-07
3.512e-07
3.52222e-07
3.51109e-07
2.24113e-07
2.24137e-07
2.24116e-07
2.2414e-07
3.52212e-07
3.51103e-07
2.24065e-07
2.24162e-07
2.24068e-07
2.24165e-07
2.24113e-07
2.24026e-07
2.24116e-07
3.5228e-07
3.5117e-07
2.24101e-07
2.24063e-07
2.24104e-07
3.51182e-07
3.52214e-07
3.51094e-07
2.24114e-07
2.24137e-07
2.24116e-07
2.24139e-07
3.52202e-07
3.51089e-07
2.24066e-07
2.24163e-07
2.24068e-07
2.24165e-07
2.24114e-07
2.24026e-07
2.24116e-07
3.5227e-07
3.51157e-07
2.24102e-07
2.24063e-07
2.24104e-07
3.5117e-07
3.52193e-07
3.51101e-07
2.24114e-07
2.24137e-07
2.24117e-07
2.24139e-07
3.52183e-07
3.51093e-07
2.24066e-07
2.24163e-07
2.24068e-07
2.24165e-07
2.24114e-07
2.24026e-07
2.24116e-07
3.52251e-07
3.51163e-07
2.24101e-07
2.24063e-07
2.24104e-07
3.51193e-07
3.52193e-07
3.51104e-07
2.24114e-07
2.24137e-07
2.24117e-07
2.24139e-07
3.5218e-07
3.51099e-07
2.24066e-07
2.24163e-07
2.24068e-07
2.24165e-07
2.24113e-07
2.24026e-07
2.24116e-07
3.52251e-07
3.51168e-07
2.24101e-07
2.24063e-07
2.24104e-07
3.51216e-07
3.52197e-07
3.51104e-07
2.24113e-07
2.24137e-07
2.24118e-07
2.2414e-07
3.52185e-07
3.51099e-07
2.24066e-07
2.24163e-07
2.24068e-07
2.24165e-07
2.24113e-07
2.24026e-07
2.24116e-07
3.52256e-07
3.51165e-07
2.24101e-07
2.24062e-07
2.24104e-07
3.5122e-07
3.52192e-07
3.51112e-07
2.24116e-07
2.24139e-07
2.24118e-07
2.24143e-07
3.52186e-07
3.51107e-07
2.24065e-07
2.24163e-07
2.24067e-07
2.24165e-07
2.24113e-07
2.24026e-07
2.24116e-07
3.52255e-07
3.51169e-07
2.24101e-07
2.24062e-07
2.24103e-07
3.51224e-07
3.52197e-07
3.51118e-07
2.24112e-07
2.24143e-07
2.24113e-07
2.24147e-07
3.52192e-07
3.51116e-07
2.24065e-07
2.24163e-07
2.24067e-07
2.24165e-07
2.24113e-07
2.24026e-07
2.24116e-07
3.52257e-07
3.51175e-07
2.24101e-07
2.24062e-07
2.24103e-07
3.5123e-07
3.52207e-07
3.51114e-07
2.24109e-07
2.24146e-07
2.2411e-07
2.24149e-07
3.52205e-07
3.51111e-07
2.24065e-07
2.24163e-07
2.24067e-07
2.24166e-07
2.24113e-07
2.24026e-07
2.24116e-07
3.52264e-07
3.51174e-07
2.24101e-07
2.24062e-07
2.24103e-07
3.51226e-07
3.52208e-07
3.51108e-07
2.24106e-07
2.24148e-07
2.24108e-07
2.24151e-07
3.52207e-07
3.51103e-07
2.24065e-07
2.24163e-07
2.24067e-07
2.24166e-07
2.24113e-07
2.24027e-07
2.24116e-07
3.52267e-07
3.5117e-07
2.24101e-07
2.24062e-07
2.24103e-07
3.51219e-07
3.52201e-07
3.51108e-07
2.24104e-07
2.24149e-07
2.24106e-07
2.24151e-07
3.52199e-07
3.51102e-07
2.24064e-07
2.24164e-07
2.24066e-07
2.24166e-07
2.24113e-07
2.24027e-07
2.24116e-07
3.52263e-07
3.5117e-07
2.24101e-07
2.24062e-07
2.24103e-07
3.51219e-07
3.52198e-07
3.51112e-07
2.24103e-07
2.24149e-07
2.24105e-07
2.24151e-07
3.52193e-07
3.51109e-07
2.24064e-07
2.24164e-07
2.24066e-07
2.24166e-07
2.24113e-07
2.24028e-07
2.24116e-07
3.5226e-07
3.51175e-07
2.24101e-07
2.24062e-07
2.24103e-07
3.51226e-07
3.52199e-07
3.51116e-07
2.24102e-07
2.24149e-07
2.24103e-07
2.24151e-07
3.52195e-07
3.51115e-07
2.24064e-07
2.24164e-07
2.24066e-07
2.24166e-07
2.24113e-07
2.24028e-07
2.24116e-07
3.52263e-07
3.51179e-07
2.24101e-07
2.24062e-07
2.24103e-07
3.51235e-07
3.52203e-07
3.51116e-07
2.24101e-07
2.24148e-07
2.24102e-07
2.2415e-07
3.522e-07
3.51117e-07
2.24064e-07
2.24164e-07
2.24066e-07
2.24166e-07
2.24113e-07
2.24028e-07
2.24116e-07
3.52267e-07
3.51179e-07
2.24101e-07
2.24062e-07
2.24104e-07
3.51242e-07
3.52204e-07
3.51115e-07
2.241e-07
2.24147e-07
2.24102e-07
2.24149e-07
3.52204e-07
3.51117e-07
2.24063e-07
2.24164e-07
2.24066e-07
2.24166e-07
2.24113e-07
2.24028e-07
2.24116e-07
3.52269e-07
3.51179e-07
2.24101e-07
2.24062e-07
2.24104e-07
3.51246e-07
3.52205e-07
3.51114e-07
2.24099e-07
2.24147e-07
2.24101e-07
2.24149e-07
3.52206e-07
3.51115e-07
2.24063e-07
2.24164e-07
2.24065e-07
2.24166e-07
2.24113e-07
2.24028e-07
2.24116e-07
3.52269e-07
3.51179e-07
2.24101e-07
2.24062e-07
2.24104e-07
3.51248e-07
3.52204e-07
3.51114e-07
2.24098e-07
2.24146e-07
2.241e-07
2.24148e-07
3.52206e-07
3.51115e-07
2.24063e-07
2.24164e-07
2.24065e-07
2.24166e-07
2.24113e-07
2.24027e-07
2.24116e-07
3.5227e-07
3.51179e-07
2.24101e-07
2.24062e-07
2.24104e-07
3.51247e-07
3.52204e-07
3.51113e-07
2.24098e-07
2.24146e-07
2.241e-07
2.24147e-07
3.52206e-07
3.51114e-07
2.24063e-07
2.24164e-07
2.24065e-07
2.24166e-07
2.24113e-07
2.24027e-07
2.24116e-07
3.5227e-07
3.51177e-07
2.24102e-07
2.24063e-07
2.24104e-07
3.51247e-07
3.52204e-07
3.51112e-07
2.24098e-07
2.24145e-07
2.241e-07
2.24147e-07
3.52206e-07
3.51114e-07
2.24063e-07
2.24164e-07
2.24065e-07
2.24166e-07
2.24113e-07
2.24028e-07
2.24116e-07
3.52269e-07
3.51177e-07
2.24101e-07
2.24063e-07
2.24104e-07
3.51248e-07
3.52203e-07
3.51111e-07
2.24097e-07
2.24145e-07
2.24099e-07
2.24147e-07
3.52205e-07
3.51115e-07
2.24063e-07
2.24164e-07
2.24065e-07
2.24166e-07
2.24113e-07
2.24029e-07
2.24116e-07
3.52268e-07
3.51178e-07
2.24101e-07
2.24063e-07
2.24104e-07
3.51248e-07
3.52202e-07
3.51112e-07
2.24097e-07
2.24144e-07
2.24099e-07
2.24146e-07
3.52206e-07
3.51115e-07
2.24063e-07
2.24164e-07
2.24065e-07
2.24166e-07
2.24113e-07
2.24029e-07
2.24116e-07
3.52269e-07
3.51179e-07
2.24101e-07
2.24063e-07
2.24104e-07
3.51249e-07
3.52203e-07
3.51113e-07
2.24097e-07
2.24144e-07
2.24099e-07
2.24146e-07
3.52206e-07
3.51114e-07
2.24063e-07
2.24164e-07
2.24065e-07
2.24166e-07
2.24113e-07
2.2403e-07
2.24116e-07
3.5227e-07
3.51179e-07
2.24101e-07
2.24063e-07
2.24103e-07
3.51249e-07
3.52204e-07
3.51112e-07
2.24097e-07
2.24143e-07
2.24099e-07
2.24145e-07
3.52206e-07
3.51114e-07
2.24063e-07
2.24164e-07
2.24065e-07
2.24166e-07
2.24113e-07
2.24029e-07
2.24116e-07
3.52271e-07
3.51178e-07
2.24101e-07
2.24063e-07
2.24103e-07
3.51248e-07
3.52205e-07
3.51109e-07
2.24097e-07
2.24143e-07
2.24099e-07
2.24145e-07
3.52206e-07
3.51114e-07
2.24063e-07
2.24164e-07
2.24065e-07
2.24166e-07
2.24113e-07
2.24028e-07
2.24116e-07
3.52269e-07
3.51178e-07
2.241e-07
2.24063e-07
2.24103e-07
3.51247e-07
3.52203e-07
3.51107e-07
2.24097e-07
2.24143e-07
2.24099e-07
2.24145e-07
3.52205e-07
3.51116e-07
2.24063e-07
2.24164e-07
2.24065e-07
2.24166e-07
2.24113e-07
2.24028e-07
2.24116e-07
3.52269e-07
3.51178e-07
2.241e-07
2.24063e-07
2.24103e-07
3.51246e-07
3.52201e-07
3.51107e-07
2.24097e-07
2.24143e-07
2.24099e-07
2.24145e-07
3.52206e-07
3.51117e-07
2.24063e-07
2.24163e-07
2.24065e-07
2.24166e-07
2.24113e-07
2.24029e-07
2.24116e-07
3.5227e-07
3.51178e-07
2.241e-07
2.24063e-07
2.24102e-07
3.51247e-07
3.522e-07
3.51107e-07
2.24096e-07
2.24142e-07
2.24099e-07
2.24144e-07
3.52207e-07
3.51119e-07
2.24063e-07
2.24164e-07
2.24065e-07
2.24166e-07
2.24113e-07
2.2403e-07
2.24116e-07
3.5227e-07
3.51178e-07
2.241e-07
2.24063e-07
2.24102e-07
3.51248e-07
3.522e-07
3.51108e-07
2.24096e-07
2.24142e-07
2.24098e-07
2.24144e-07
3.52208e-07
3.5112e-07
2.24063e-07
2.24164e-07
2.24065e-07
2.24166e-07
2.24113e-07
2.24031e-07
2.24116e-07
3.5227e-07
3.51178e-07
2.241e-07
2.24063e-07
2.24102e-07
3.51248e-07
3.522e-07
3.51108e-07
2.24096e-07
2.24142e-07
2.24098e-07
2.24144e-07
3.5221e-07
3.51121e-07
2.24063e-07
2.24164e-07
2.24065e-07
2.24166e-07
2.24113e-07
2.24032e-07
2.24116e-07
3.52269e-07
3.51178e-07
2.241e-07
2.24063e-07
2.24102e-07
3.51246e-07
3.522e-07
3.51108e-07
2.24096e-07
2.24142e-07
2.24098e-07
2.24144e-07
3.52211e-07
3.51122e-07
2.24063e-07
2.24164e-07
2.24065e-07
2.24166e-07
2.24113e-07
2.24033e-07
2.24116e-07
3.5227e-07
3.51178e-07
2.241e-07
2.24063e-07
2.24102e-07
3.51246e-07
3.52199e-07
3.51109e-07
2.24096e-07
2.24142e-07
2.24098e-07
2.24144e-07
3.52212e-07
3.51121e-07
2.24062e-07
2.24164e-07
2.24065e-07
2.24166e-07
2.24113e-07
2.24033e-07
2.24116e-07
3.5227e-07
3.51178e-07
2.241e-07
2.24063e-07
2.24102e-07
3.51246e-07
3.52199e-07
3.5111e-07
2.24096e-07
2.24142e-07
2.24098e-07
2.24144e-07
3.52213e-07
3.51122e-07
2.24062e-07
2.24163e-07
2.24065e-07
2.24166e-07
2.24113e-07
2.24034e-07
2.24115e-07
3.52269e-07
3.51178e-07
2.241e-07
2.24063e-07
2.24102e-07
3.51245e-07
3.522e-07
3.51111e-07
2.24096e-07
2.24142e-07
2.24098e-07
2.24144e-07
3.52213e-07
3.51122e-07
2.24062e-07
2.24163e-07
2.24065e-07
2.24166e-07
2.24113e-07
2.24035e-07
2.24115e-07
3.5227e-07
3.51177e-07
2.241e-07
2.24063e-07
2.24102e-07
3.51246e-07
3.52202e-07
3.51111e-07
2.24096e-07
2.24142e-07
2.24098e-07
2.24144e-07
3.52214e-07
3.51121e-07
2.24063e-07
2.24163e-07
2.24065e-07
2.24166e-07
2.24113e-07
2.24036e-07
2.24115e-07
3.5227e-07
3.51176e-07
2.241e-07
2.24063e-07
2.24102e-07
3.51248e-07
3.52203e-07
3.5111e-07
2.24096e-07
2.24142e-07
2.24098e-07
2.24144e-07
3.52213e-07
3.51122e-07
2.24063e-07
2.24163e-07
2.24065e-07
2.24166e-07
2.24113e-07
2.24037e-07
2.24115e-07
3.52269e-07
3.51176e-07
2.241e-07
2.24063e-07
2.24102e-07
3.51249e-07
3.52203e-07
3.5111e-07
2.24096e-07
2.24142e-07
2.24098e-07
2.24144e-07
3.52213e-07
3.51122e-07
2.24063e-07
2.24163e-07
2.24065e-07
2.24166e-07
2.24113e-07
2.24037e-07
2.24115e-07
3.52268e-07
3.51177e-07
2.241e-07
2.24063e-07
2.24102e-07
3.51248e-07
3.52202e-07
3.51109e-07
2.24096e-07
2.24142e-07
2.24098e-07
2.24144e-07
3.52214e-07
3.51122e-07
2.24063e-07
2.24164e-07
2.24065e-07
2.24166e-07
2.24113e-07
2.24038e-07
2.24115e-07
3.52268e-07
3.51177e-07
2.241e-07
2.24063e-07
2.24102e-07
3.51246e-07
3.52201e-07
3.51109e-07
2.24096e-07
2.24142e-07
2.24098e-07
2.24144e-07
3.52214e-07
3.51123e-07
2.24063e-07
2.24164e-07
2.24065e-07
2.24166e-07
2.24113e-07
2.24038e-07
2.24115e-07
3.52268e-07
3.51178e-07
2.241e-07
2.24063e-07
2.24102e-07
3.51248e-07
3.52201e-07
3.51109e-07
2.24096e-07
2.24142e-07
2.24098e-07
2.24145e-07
3.52214e-07
3.51125e-07
2.24063e-07
2.24164e-07
2.24065e-07
2.24166e-07
2.24113e-07
2.24039e-07
2.24115e-07
3.52268e-07
3.51178e-07
2.241e-07
2.24063e-07
2.24102e-07
3.51251e-07
3.52201e-07
3.51109e-07
2.24096e-07
2.24142e-07
2.24098e-07
2.24145e-07
3.52215e-07
3.51125e-07
2.24063e-07
2.24163e-07
2.24065e-07
2.24166e-07
2.24113e-07
2.24039e-07
2.24115e-07
3.52269e-07
3.51179e-07
2.241e-07
2.24063e-07
2.24102e-07
3.51251e-07
3.52201e-07
3.51109e-07
2.24096e-07
2.24142e-07
2.24098e-07
2.24145e-07
3.52216e-07
3.51124e-07
2.24063e-07
2.24163e-07
2.24065e-07
2.24165e-07
2.24113e-07
2.24039e-07
2.24115e-07
3.5227e-07
3.51178e-07
2.241e-07
2.24063e-07
2.24102e-07
3.51249e-07
3.52201e-07
3.51109e-07
2.24096e-07
2.24143e-07
2.24098e-07
2.24144e-07
3.52216e-07
3.51123e-07
2.24063e-07
2.24163e-07
2.24064e-07
2.24165e-07
2.24113e-07
2.24039e-07
2.24115e-07
3.5227e-07
3.51177e-07
2.241e-07
2.24063e-07
2.24102e-07
3.51247e-07
3.522e-07
3.51109e-07
2.24096e-07
2.24143e-07
2.24098e-07
2.24144e-07
3.52215e-07
3.51123e-07
2.24062e-07
2.24163e-07
2.24064e-07
2.24165e-07
2.24113e-07
2.24039e-07
2.24115e-07
3.52269e-07
3.51177e-07
2.241e-07
2.24063e-07
2.24102e-07
3.51246e-07
3.52201e-07
3.5111e-07
2.24096e-07
2.24143e-07
2.24098e-07
2.24144e-07
3.52215e-07
3.51123e-07
2.24062e-07
2.24163e-07
2.24064e-07
2.24165e-07
2.24113e-07
2.24039e-07
2.24115e-07
3.52269e-07
3.51177e-07
2.24099e-07
2.24063e-07
2.24101e-07
3.51245e-07
3.52201e-07
3.5111e-07
2.24096e-07
2.24143e-07
2.24098e-07
2.24144e-07
3.52214e-07
3.51124e-07
2.24062e-07
2.24163e-07
2.24064e-07
2.24165e-07
2.24113e-07
2.24039e-07
2.24115e-07
3.52269e-07
3.51176e-07
2.24099e-07
2.24063e-07
2.24101e-07
3.51244e-07
3.52202e-07
3.51109e-07
2.24096e-07
2.24143e-07
2.24098e-07
2.24144e-07
3.52214e-07
3.51125e-07
2.24062e-07
2.24163e-07
2.24064e-07
2.24165e-07
2.24113e-07
2.24039e-07
2.24115e-07
3.52268e-07
3.51176e-07
2.24099e-07
2.24062e-07
2.24101e-07
3.51244e-07
3.52201e-07
3.51108e-07
2.24096e-07
2.24142e-07
2.24097e-07
2.24144e-07
3.52216e-07
3.51125e-07
2.24062e-07
2.24163e-07
2.24064e-07
2.24164e-07
2.24113e-07
2.24038e-07
2.24114e-07
3.52267e-07
3.51178e-07
2.24099e-07
2.24061e-07
2.241e-07
3.51244e-07
3.522e-07
3.51109e-07
2.24096e-07
2.24142e-07
2.24097e-07
2.24143e-07
3.52216e-07
3.51123e-07
2.24062e-07
2.24163e-07
2.24063e-07
2.24164e-07
2.24113e-07
2.24037e-07
2.24114e-07
3.52269e-07
3.51178e-07
2.24099e-07
2.24061e-07
2.241e-07
3.51247e-07
3.522e-07
3.51109e-07
2.24097e-07
2.24143e-07
2.24097e-07
2.24143e-07
3.52215e-07
3.51124e-07
2.24063e-07
2.24164e-07
2.24063e-07
2.24164e-07
2.24114e-07
2.24036e-07
2.24114e-07
3.52269e-07
3.51177e-07
2.241e-07
2.24061e-07
2.241e-07
3.51249e-07
3.52201e-07
3.5111e-07
2.24097e-07
2.24143e-07
2.24097e-07
2.24143e-07
3.52215e-07
3.51123e-07
2.24063e-07
2.24164e-07
2.24063e-07
2.24164e-07
2.24114e-07
2.24035e-07
2.24114e-07
3.52269e-07
3.51177e-07
2.241e-07
2.24059e-07
2.24099e-07
3.51249e-07
3.52201e-07
3.51108e-07
2.24097e-07
2.24143e-07
2.24095e-07
2.24141e-07
3.52215e-07
3.51121e-07
2.24063e-07
2.24164e-07
2.24061e-07
2.24162e-07
2.24114e-07
2.24032e-07
2.24112e-07
3.52268e-07
3.51176e-07
2.24099e-07
2.24056e-07
2.24098e-07
3.51247e-07
3.522e-07
3.51105e-07
2.24095e-07
2.24141e-07
2.24091e-07
2.24137e-07
3.52212e-07
3.51117e-07
2.24062e-07
2.24162e-07
2.24057e-07
2.24158e-07
2.24112e-07
2.24028e-07
2.24108e-07
3.52267e-07
3.51173e-07
2.24098e-07
2.24052e-07
2.24093e-07
3.51243e-07
3.52196e-07
3.511e-07
2.24091e-07
2.24137e-07
2.24084e-07
2.2413e-07
3.52207e-07
3.51113e-07
2.24057e-07
2.24158e-07
2.2405e-07
2.24151e-07
2.24108e-07
2.24021e-07
2.241e-07
3.52263e-07
3.51167e-07
2.24093e-07
2.24045e-07
2.24086e-07
3.51235e-07
3.52189e-07
3.51092e-07
2.24084e-07
2.2413e-07
2.24072e-07
2.24119e-07
3.52201e-07
3.51107e-07
2.2405e-07
2.24151e-07
2.24039e-07
2.2414e-07
2.241e-07
2.24011e-07
2.24089e-07
3.52256e-07
3.51158e-07
2.24086e-07
2.24034e-07
2.24075e-07
3.51226e-07
3.52179e-07
3.51082e-07
2.24072e-07
2.24118e-07
2.24056e-07
2.24103e-07
3.52192e-07
3.51097e-07
2.24039e-07
2.2414e-07
2.24023e-07
2.24124e-07
2.24089e-07
2.23996e-07
2.24073e-07
3.52245e-07
3.51149e-07
2.24075e-07
2.24019e-07
2.24059e-07
3.51218e-07
3.52167e-07
3.51071e-07
2.24056e-07
2.24103e-07
2.24033e-07
2.2408e-07
3.52181e-07
3.51086e-07
2.24023e-07
2.24124e-07
2.24e-07
2.24101e-07
2.24073e-07
2.23973e-07
2.2405e-07
3.52233e-07
3.51141e-07
2.24058e-07
2.23996e-07
2.24036e-07
3.51209e-07
3.5215e-07
3.51058e-07
2.24031e-07
2.24078e-07
2.23995e-07
2.24043e-07
3.52164e-07
3.51073e-07
2.23998e-07
2.24099e-07
2.23963e-07
2.24064e-07
2.24048e-07
2.23938e-07
2.24013e-07
3.52219e-07
3.51129e-07
2.24033e-07
2.23962e-07
2.23999e-07
3.51196e-07
3.52125e-07
3.51036e-07
2.23987e-07
2.24036e-07
2.2393e-07
2.23987e-07
3.5214e-07
3.51053e-07
2.23956e-07
2.24057e-07
2.23906e-07
2.24007e-07
2.24006e-07
2.23881e-07
2.23954e-07
3.52196e-07
3.51107e-07
2.23991e-07
2.23909e-07
2.23942e-07
3.51179e-07
3.5208e-07
3.50916e-07
2.23887e-07
2.23935e-07
2.23865e-07
2.2391e-07
3.52096e-07
3.50931e-07
2.23856e-07
2.23956e-07
2.23829e-07
2.2393e-07
2.23909e-07
2.23806e-07
2.2389e-07
3.52146e-07
3.50976e-07
2.23886e-07
2.23828e-07
2.23861e-07
3.51015e-07
3.51769e-07
3.36254e-07
2.23238e-07
2.23279e-07
2.08715e-07
2.08749e-07
3.5179e-07
3.36277e-07
2.23199e-07
2.23296e-07
2.08702e-07
2.08764e-07
2.23256e-07
2.08688e-07
2.08729e-07
3.51831e-07
3.36303e-07
2.23229e-07
2.08701e-07
2.08727e-07
3.36319e-07
3.25845e-07
2.03427e-07
2.03459e-07
3.25871e-07
2.03417e-07
2.03471e-07
1.27203e-07
1.27207e-07
1.27207e-07
2.03443e-07
3.25902e-07
2.03446e-07
5.35653e-07
5.35523e-07
5.35636e-07
5.35636e-07
5.34569e-07
5.35437e-07
5.33636e-07
5.35608e-07
5.34569e-07
5.35437e-07
5.35608e-07
5.33636e-07
5.35196e-07
5.35984e-07
5.35983e-07
1.10753e-06
3.87722e-06
9.31517e-07
4.60261e-06
1.25997e-05
1.65955e-05
1.10797e-06
3.87754e-06
9.31279e-07
4.60354e-06
4.9917e-07
4.9917e-07
4.9917e-07
4.57218e-07
4.57218e-07
4.57218e-07
4.57218e-07
5.43023e-07
1.21905e-06
4.99137e-07
4.86017e-07
5.2498e-07
1.20925e-06
4.82349e-07
1.26009e-05
1.6597e-05
5.43031e-07
4.99137e-07
1.21904e-06
4.86017e-07
5.24978e-07
4.82349e-07
1.20923e-06
2.51858e-06
2.51918e-06
4.84044e-07
2.37585e-06
2.37656e-06
1.43239e-06
5.59164e-06
1.33111e-06
6.1342e-06
2.12866e-05
2.31122e-05
1.43275e-06
5.59241e-06
1.33091e-06
6.13546e-06
4.45574e-07
4.45575e-07
4.45575e-07