/*--------------------------------*- C++ -*----------------------------------*\
| =========                 |                                                 |
| \\      /  F ield         | OpenFOAM: The Open Source CFD Toolbox           |
|  \\    /   O peration     | Version:                                        |
|   \\  /    A nd           | Website:  www.openfoam.com                      |
|    \\/     M anipulation  |                                                 |
\*---------------------------------------------------------------------------*/
FoamFile
{
    version     2.0;
    format      ascii;
    class       volScalarField;
    location    "100";
    object      k;
}
// * * * * * * * * * * * * * * * * * * * * * * * * * * * * * * * * * * * * * //

dimensions      [0 2 -2 0 0 0 0];


internalField   nonuniform List<scalar> 
172512
(
3.60232e-05
3.60198e-05
3.60198e-05
3.60083e-05
3.39295e-05
3.38866e-05
3.38866e-05
3.39613e-05
3.21573e-05
3.20054e-05
3.20054e-05
3.19506e-05
3.05337e-05
3.02265e-05
3.02264e-05
2.99864e-05
2.90316e-05
2.85512e-05
2.85511e-05
2.81204e-05
2.76339e-05
2.69845e-05
2.69843e-05
2.63886e-05
2.63291e-05
2.55284e-05
2.55283e-05
2.48054e-05
2.51095e-05
2.41824e-05
2.41823e-05
2.33766e-05
2.39692e-05
2.29482e-05
2.29481e-05
2.21035e-05
2.2904e-05
2.18246e-05
2.18244e-05
2.09852e-05
2.19103e-05
2.08093e-05
2.08091e-05
2.0013e-05
2.09848e-05
1.98993e-05
1.98992e-05
1.91811e-05
2.01223e-05
1.90928e-05
1.90927e-05
1.84896e-05
1.93222e-05
1.83869e-05
1.83868e-05
1.79336e-05
1.85831e-05
1.77779e-05
1.77778e-05
1.75072e-05
1.79023e-05
1.72641e-05
1.7264e-05
1.72016e-05
1.72786e-05
1.68456e-05
1.68456e-05
1.70241e-05
1.67074e-05
1.65195e-05
1.65195e-05
1.69829e-05
1.61913e-05
1.62873e-05
1.62873e-05
1.70768e-05
1.5722e-05
1.61421e-05
1.61422e-05
1.72865e-05
1.52942e-05
1.60614e-05
1.60615e-05
1.75738e-05
1.4926e-05
1.60379e-05
1.60381e-05
1.78653e-05
1.45179e-05
1.58955e-05
1.58958e-05
1.79713e-05
1.41615e-05
1.5716e-05
1.57165e-05
1.79038e-05
1.4005e-05
1.56864e-05
1.56873e-05
1.79086e-05
1.39829e-05
1.57199e-05
1.5721e-05
1.7963e-05
1.39893e-05
1.57466e-05
1.57477e-05
1.79926e-05
1.39948e-05
1.57565e-05
1.57576e-05
1.80061e-05
1.3997e-05
1.57597e-05
1.57608e-05
1.80087e-05
1.3998e-05
1.57609e-05
1.57621e-05
1.80097e-05
1.39986e-05
1.57616e-05
1.57629e-05
1.80104e-05
1.39991e-05
1.57621e-05
1.57634e-05
1.80111e-05
1.39996e-05
1.57625e-05
1.57638e-05
1.80109e-05
1.4e-05
1.57628e-05
1.57642e-05
1.80117e-05
1.40003e-05
1.57631e-05
1.57645e-05
1.80122e-05
1.40006e-05
1.57633e-05
1.57647e-05
1.80123e-05
1.40008e-05
1.57633e-05
1.57648e-05
1.80114e-05
1.4001e-05
1.57633e-05
1.57648e-05
1.80095e-05
1.4001e-05
1.57632e-05
1.57648e-05
1.80096e-05
1.4001e-05
1.57632e-05
1.57648e-05
1.80111e-05
1.4001e-05
1.57632e-05
1.57648e-05
1.80112e-05
1.4001e-05
1.57632e-05
1.57648e-05
1.8011e-05
1.4001e-05
1.57631e-05
1.57648e-05
1.80113e-05
1.4001e-05
1.57632e-05
1.57648e-05
1.80111e-05
1.4001e-05
1.57632e-05
1.57648e-05
1.80103e-05
1.4001e-05
1.57632e-05
1.57647e-05
1.80096e-05
1.4001e-05
1.57632e-05
1.57647e-05
1.80097e-05
1.4001e-05
1.57632e-05
1.57648e-05
1.80102e-05
1.4001e-05
1.57632e-05
1.57648e-05
1.80107e-05
1.4001e-05
1.57632e-05
1.57648e-05
1.80113e-05
1.4001e-05
1.57632e-05
1.57648e-05
1.80117e-05
1.4001e-05
1.57631e-05
1.57648e-05
1.80119e-05
1.4001e-05
1.57632e-05
1.57648e-05
1.80119e-05
1.4001e-05
1.57632e-05
1.57648e-05
1.8012e-05
1.4001e-05
1.57632e-05
1.57648e-05
1.8012e-05
1.4001e-05
1.57632e-05
1.57648e-05
1.80121e-05
1.4001e-05
1.57632e-05
1.57648e-05
1.80123e-05
1.4001e-05
1.57632e-05
1.57648e-05
1.80123e-05
1.4001e-05
1.57632e-05
1.57647e-05
1.80122e-05
1.4001e-05
1.57632e-05
1.57647e-05
1.80121e-05
1.4001e-05
1.57633e-05
1.57647e-05
1.80121e-05
1.4001e-05
1.57634e-05
1.57647e-05
1.80122e-05
1.4001e-05
1.57634e-05
1.57647e-05
1.80122e-05
1.4001e-05
1.57635e-05
1.57647e-05
1.80121e-05
1.4001e-05
1.57635e-05
1.57647e-05
1.8012e-05
1.4001e-05
1.57636e-05
1.57647e-05
1.8012e-05
1.4001e-05
1.57636e-05
1.57647e-05
1.80119e-05
1.4001e-05
1.57636e-05
1.57647e-05
1.80118e-05
1.4001e-05
1.57637e-05
1.57647e-05
1.80119e-05
1.4001e-05
1.57637e-05
1.57647e-05
1.80121e-05
1.4001e-05
1.57637e-05
1.57647e-05
1.80122e-05
1.4001e-05
1.57637e-05
1.57648e-05
1.8012e-05
1.4001e-05
1.57638e-05
1.57648e-05
1.80119e-05
1.4001e-05
1.57638e-05
1.57647e-05
1.80121e-05
1.4001e-05
1.57638e-05
1.57647e-05
1.80125e-05
1.4001e-05
1.57637e-05
1.57647e-05
1.80125e-05
1.4001e-05
1.57637e-05
1.57647e-05
1.80124e-05
1.4001e-05
1.57637e-05
1.57647e-05
1.80123e-05
1.4001e-05
1.57637e-05
1.57647e-05
1.80122e-05
1.4001e-05
1.57637e-05
1.57648e-05
1.80121e-05
1.4001e-05
1.57637e-05
1.57647e-05
1.80119e-05
1.4001e-05
1.57637e-05
1.57647e-05
1.80117e-05
1.4001e-05
1.57637e-05
1.57647e-05
1.80118e-05
1.4001e-05
1.57638e-05
1.57647e-05
1.8012e-05
1.4001e-05
1.57638e-05
1.57647e-05
1.80122e-05
1.4001e-05
1.57638e-05
1.57648e-05
1.80123e-05
1.4001e-05
1.57639e-05
1.57648e-05
1.80123e-05
1.40011e-05
1.57639e-05
1.57648e-05
1.8012e-05
1.40011e-05
1.57639e-05
1.57648e-05
1.80117e-05
1.40013e-05
1.57639e-05
1.57648e-05
1.80118e-05
1.40014e-05
1.5764e-05
1.57649e-05
1.80119e-05
1.40015e-05
1.57639e-05
1.57648e-05
1.80119e-05
1.40017e-05
1.57636e-05
1.57645e-05
1.80118e-05
1.40013e-05
1.57528e-05
1.57537e-05
1.80058e-05
1.4127e-05
1.52886e-05
1.52893e-05
1.75387e-05
3.62984e-05
3.62919e-05
3.62919e-05
3.62984e-05
3.62919e-05
3.62919e-05
3.62908e-05
3.62908e-05
3.62908e-05
3.62908e-05
3.62919e-05
3.62919e-05
3.62984e-05
3.62919e-05
3.62919e-05
3.62984e-05
3.60083e-05
3.42678e-05
3.60198e-05
3.60198e-05
3.43746e-05
3.43745e-05
3.60083e-05
3.42678e-05
3.60198e-05
3.60198e-05
3.43746e-05
3.43745e-05
3.60198e-05
3.43746e-05
3.43746e-05
3.60083e-05
3.42678e-05
3.60198e-05
3.43746e-05
3.43746e-05
3.42678e-05
3.39613e-05
3.22621e-05
3.38865e-05
3.38865e-05
3.24657e-05
3.24656e-05
3.39613e-05
3.22621e-05
3.38865e-05
3.38865e-05
3.24658e-05
3.24656e-05
3.38865e-05
3.24658e-05
3.24657e-05
3.39613e-05
3.2262e-05
3.38866e-05
3.24658e-05
3.24657e-05
3.2262e-05
3.19506e-05
3.02976e-05
3.20052e-05
3.20051e-05
3.06615e-05
3.06613e-05
3.19506e-05
3.02976e-05
3.20053e-05
3.20051e-05
3.06616e-05
3.06613e-05
3.20052e-05
3.06617e-05
3.06614e-05
3.19506e-05
3.02975e-05
3.20053e-05
3.06617e-05
3.06616e-05
3.02974e-05
2.99865e-05
2.84236e-05
3.02261e-05
3.0226e-05
2.89596e-05
2.89594e-05
2.99865e-05
2.84235e-05
3.02263e-05
3.02259e-05
2.89598e-05
2.89593e-05
3.02261e-05
2.89599e-05
2.89595e-05
2.99865e-05
2.84234e-05
3.02263e-05
2.89599e-05
2.89597e-05
2.84232e-05
2.81206e-05
2.66722e-05
2.85508e-05
2.85506e-05
2.73652e-05
2.7365e-05
2.81206e-05
2.66721e-05
2.8551e-05
2.85505e-05
2.73656e-05
2.73649e-05
2.85507e-05
2.73657e-05
2.73651e-05
2.81205e-05
2.66719e-05
2.85509e-05
2.73657e-05
2.73655e-05
2.66718e-05
2.6389e-05
2.50647e-05
2.69839e-05
2.69836e-05
2.58814e-05
2.58812e-05
2.63889e-05
2.50646e-05
2.69842e-05
2.69835e-05
2.58819e-05
2.5881e-05
2.69838e-05
2.5882e-05
2.58813e-05
2.63888e-05
2.50644e-05
2.69841e-05
2.5882e-05
2.58817e-05
2.50642e-05
2.48059e-05
2.36112e-05
2.55277e-05
2.55274e-05
2.45077e-05
2.45074e-05
2.48058e-05
2.36111e-05
2.55282e-05
2.55273e-05
2.45082e-05
2.45072e-05
2.55276e-05
2.45084e-05
2.45075e-05
2.48056e-05
2.36109e-05
2.5528e-05
2.45083e-05
2.4508e-05
2.36106e-05
2.33771e-05
2.23115e-05
2.41816e-05
2.41813e-05
2.32454e-05
2.32451e-05
2.3377e-05
2.23114e-05
2.41822e-05
2.41812e-05
2.3246e-05
2.32449e-05
2.41815e-05
2.32463e-05
2.32453e-05
2.33768e-05
2.23112e-05
2.4182e-05
2.32462e-05
2.32459e-05
2.23109e-05
2.2104e-05
2.11676e-05
2.29473e-05
2.2947e-05
2.20942e-05
2.20939e-05
2.21039e-05
2.11675e-05
2.29479e-05
2.29468e-05
2.2095e-05
2.20938e-05
2.29471e-05
2.20952e-05
2.20941e-05
2.21037e-05
2.11672e-05
2.29478e-05
2.20951e-05
2.20948e-05
2.11669e-05
2.09858e-05
2.01706e-05
2.18235e-05
2.18232e-05
2.1052e-05
2.10517e-05
2.09857e-05
2.01705e-05
2.18243e-05
2.18231e-05
2.10529e-05
2.10516e-05
2.18234e-05
2.10531e-05
2.10519e-05
2.09855e-05
2.01702e-05
2.18241e-05
2.1053e-05
2.10527e-05
2.017e-05
2.00136e-05
1.93149e-05
2.08081e-05
2.08079e-05
2.0116e-05
2.01157e-05
2.00135e-05
1.93148e-05
2.0809e-05
2.08077e-05
2.01169e-05
2.01155e-05
2.08081e-05
2.01171e-05
2.01159e-05
2.00132e-05
1.93145e-05
2.08088e-05
2.0117e-05
2.01167e-05
1.93142e-05
1.91816e-05
1.85915e-05
1.98982e-05
1.98979e-05
1.92838e-05
1.92835e-05
1.91816e-05
1.85913e-05
1.98991e-05
1.98978e-05
1.92847e-05
1.92834e-05
1.98981e-05
1.92849e-05
1.92837e-05
1.91813e-05
1.8591e-05
1.98989e-05
1.92848e-05
1.92845e-05
1.85908e-05
1.849e-05
1.79992e-05
1.90917e-05
1.90915e-05
1.85531e-05
1.85529e-05
1.84901e-05
1.79991e-05
1.90926e-05
1.90913e-05
1.8554e-05
1.85527e-05
1.90917e-05
1.85542e-05
1.85531e-05
1.84898e-05
1.79988e-05
1.90925e-05
1.85541e-05
1.85539e-05
1.79986e-05
1.79339e-05
1.75407e-05
1.83858e-05
1.83856e-05
1.792e-05
1.79198e-05
1.7934e-05
1.75406e-05
1.83867e-05
1.83855e-05
1.79209e-05
1.79197e-05
1.83858e-05
1.7921e-05
1.792e-05
1.79337e-05
1.75404e-05
1.83867e-05
1.79209e-05
1.79208e-05
1.75402e-05
1.75075e-05
1.72192e-05
1.77768e-05
1.77767e-05
1.73829e-05
1.73829e-05
1.75076e-05
1.72193e-05
1.77777e-05
1.77766e-05
1.73838e-05
1.73828e-05
1.77768e-05
1.73839e-05
1.7383e-05
1.75073e-05
1.7219e-05
1.77777e-05
1.73839e-05
1.73838e-05
1.7219e-05
1.72018e-05
1.70274e-05
1.72631e-05
1.72631e-05
1.69405e-05
1.69405e-05
1.72019e-05
1.70276e-05
1.7264e-05
1.7263e-05
1.69413e-05
1.69404e-05
1.72632e-05
1.69414e-05
1.69406e-05
1.72017e-05
1.70274e-05
1.7264e-05
1.69413e-05
1.69414e-05
1.70274e-05
1.70241e-05
1.69738e-05
1.68447e-05
1.68448e-05
1.65918e-05
1.65919e-05
1.70243e-05
1.6974e-05
1.68455e-05
1.68447e-05
1.65925e-05
1.65918e-05
1.68448e-05
1.65925e-05
1.65919e-05
1.7024e-05
1.69738e-05
1.68456e-05
1.65925e-05
1.65927e-05
1.69739e-05
1.69827e-05
1.70417e-05
1.65188e-05
1.65189e-05
1.63354e-05
1.63356e-05
1.69829e-05
1.7042e-05
1.65195e-05
1.65188e-05
1.63361e-05
1.63355e-05
1.65189e-05
1.6336e-05
1.63356e-05
1.69828e-05
1.70419e-05
1.65196e-05
1.6336e-05
1.63363e-05
1.70421e-05
1.70764e-05
1.72309e-05
1.62866e-05
1.62868e-05
1.6172e-05
1.61723e-05
1.70767e-05
1.72312e-05
1.62873e-05
1.62868e-05
1.61726e-05
1.61723e-05
1.62868e-05
1.61725e-05
1.61722e-05
1.70766e-05
1.72312e-05
1.62875e-05
1.61726e-05
1.61729e-05
1.72314e-05
1.7286e-05
1.75045e-05
1.61415e-05
1.61418e-05
1.60734e-05
1.60737e-05
1.72863e-05
1.75047e-05
1.61421e-05
1.61419e-05
1.60738e-05
1.60737e-05
1.61418e-05
1.60737e-05
1.60737e-05
1.72863e-05
1.75049e-05
1.61425e-05
1.60738e-05
1.60743e-05
1.75052e-05
1.75732e-05
1.78055e-05
1.6061e-05
1.60613e-05
1.60465e-05
1.60468e-05
1.75733e-05
1.78057e-05
1.60614e-05
1.60614e-05
1.60468e-05
1.6047e-05
1.60613e-05
1.60467e-05
1.60468e-05
1.75735e-05
1.78059e-05
1.60619e-05
1.60469e-05
1.60474e-05
1.78064e-05
1.78644e-05
1.79528e-05
1.60377e-05
1.6038e-05
1.59458e-05
1.5946e-05
1.78646e-05
1.79528e-05
1.6038e-05
1.60382e-05
1.59461e-05
1.59463e-05
1.6038e-05
1.59459e-05
1.59462e-05
1.78648e-05
1.79532e-05
1.60386e-05
1.59461e-05
1.59466e-05
1.79535e-05
1.79705e-05
1.78891e-05
1.58953e-05
1.58955e-05
1.5748e-05
1.57482e-05
1.79704e-05
1.78891e-05
1.58956e-05
1.58959e-05
1.57483e-05
1.57489e-05
1.58958e-05
1.5748e-05
1.57486e-05
1.79709e-05
1.789e-05
1.58962e-05
1.57485e-05
1.5749e-05
1.78903e-05
1.79024e-05
1.7879e-05
1.57159e-05
1.57161e-05
1.5686e-05
1.56863e-05
1.79023e-05
1.78791e-05
1.57162e-05
1.57169e-05
1.56863e-05
1.56873e-05
1.57165e-05
1.5686e-05
1.56868e-05
1.79033e-05
1.78805e-05
1.5717e-05
1.56868e-05
1.56873e-05
1.78805e-05
1.79068e-05
1.79356e-05
1.56864e-05
1.56868e-05
1.57097e-05
1.571e-05
1.79069e-05
1.79355e-05
1.56868e-05
1.56877e-05
1.57101e-05
1.57111e-05
1.56872e-05
1.57095e-05
1.57105e-05
1.79083e-05
1.79371e-05
1.56877e-05
1.57106e-05
1.5711e-05
1.79369e-05
1.79614e-05
1.79703e-05
1.57202e-05
1.57205e-05
1.57423e-05
1.57426e-05
1.79613e-05
1.79702e-05
1.57205e-05
1.57215e-05
1.57426e-05
1.57437e-05
1.57209e-05
1.5742e-05
1.57431e-05
1.79629e-05
1.79717e-05
1.57215e-05
1.57431e-05
1.57436e-05
1.79717e-05
1.7991e-05
1.79856e-05
1.57469e-05
1.57471e-05
1.57553e-05
1.57556e-05
1.79908e-05
1.79854e-05
1.57472e-05
1.57482e-05
1.57556e-05
1.57566e-05
1.57476e-05
1.57549e-05
1.57561e-05
1.79924e-05
1.79869e-05
1.57482e-05
1.5756e-05
1.57566e-05
1.79869e-05
1.80046e-05
1.79889e-05
1.57568e-05
1.57571e-05
1.57596e-05
1.57599e-05
1.80044e-05
1.79887e-05
1.5757e-05
1.57581e-05
1.57598e-05
1.57608e-05
1.57576e-05
1.57592e-05
1.57604e-05
1.80059e-05
1.79902e-05
1.57581e-05
1.57603e-05
1.57609e-05
1.79903e-05
1.80071e-05
1.79899e-05
1.576e-05
1.57603e-05
1.5761e-05
1.57614e-05
1.80068e-05
1.79896e-05
1.57603e-05
1.57613e-05
1.57613e-05
1.57623e-05
1.57608e-05
1.57607e-05
1.57619e-05
1.80084e-05
1.79912e-05
1.57614e-05
1.57618e-05
1.57624e-05
1.79913e-05
1.80082e-05
1.79908e-05
1.57612e-05
1.57616e-05
1.57619e-05
1.57622e-05
1.80078e-05
1.79905e-05
1.57615e-05
1.57625e-05
1.57621e-05
1.57632e-05
1.57621e-05
1.57615e-05
1.57627e-05
1.80095e-05
1.79922e-05
1.57626e-05
1.57627e-05
1.57632e-05
1.79922e-05
1.80089e-05
1.79913e-05
1.5762e-05
1.57623e-05
1.57625e-05
1.57628e-05
1.80085e-05
1.79909e-05
1.57622e-05
1.57633e-05
1.57627e-05
1.57638e-05
1.57628e-05
1.5762e-05
1.57633e-05
1.80103e-05
1.79927e-05
1.57633e-05
1.57633e-05
1.57638e-05
1.79926e-05
1.80096e-05
1.79914e-05
1.57626e-05
1.57629e-05
1.5763e-05
1.57634e-05
1.80092e-05
1.7991e-05
1.57628e-05
1.57639e-05
1.57632e-05
1.57643e-05
1.57634e-05
1.57624e-05
1.57638e-05
1.80109e-05
1.79928e-05
1.57639e-05
1.57637e-05
1.57643e-05
1.79927e-05
1.80096e-05
1.79922e-05
1.57631e-05
1.57635e-05
1.57634e-05
1.57638e-05
1.80091e-05
1.79917e-05
1.57633e-05
1.57644e-05
1.57636e-05
1.57648e-05
1.57639e-05
1.57628e-05
1.57643e-05
1.80109e-05
1.79935e-05
1.57644e-05
1.57641e-05
1.57648e-05
1.79937e-05
1.80102e-05
1.79926e-05
1.57635e-05
1.57639e-05
1.57638e-05
1.57642e-05
1.80097e-05
1.7992e-05
1.57637e-05
1.57649e-05
1.5764e-05
1.57652e-05
1.57643e-05
1.57631e-05
1.57646e-05
1.80115e-05
1.79939e-05
1.57649e-05
1.57645e-05
1.57652e-05
1.7994e-05
1.80107e-05
1.79928e-05
1.57638e-05
1.57643e-05
1.5764e-05
1.57645e-05
1.80101e-05
1.79923e-05
1.5764e-05
1.57653e-05
1.57642e-05
1.57654e-05
1.57647e-05
1.57632e-05
1.57648e-05
1.8012e-05
1.79941e-05
1.57652e-05
1.57647e-05
1.57653e-05
1.79938e-05
1.80113e-05
1.79918e-05
1.5764e-05
1.57645e-05
1.5764e-05
1.57645e-05
1.80107e-05
1.79913e-05
1.57642e-05
1.57654e-05
1.57642e-05
1.57655e-05
1.57648e-05
1.57633e-05
1.57648e-05
1.80126e-05
1.79931e-05
1.57653e-05
1.57647e-05
1.57653e-05
1.79927e-05
1.80108e-05
1.79907e-05
1.5764e-05
1.57645e-05
1.5764e-05
1.57645e-05
1.80102e-05
1.79903e-05
1.57642e-05
1.57654e-05
1.57642e-05
1.57655e-05
1.57648e-05
1.57633e-05
1.57648e-05
1.8012e-05
1.79922e-05
1.57653e-05
1.57648e-05
1.57653e-05
1.79918e-05
1.80094e-05
1.79914e-05
1.5764e-05
1.57645e-05
1.57641e-05
1.57645e-05
1.80089e-05
1.79908e-05
1.57642e-05
1.57655e-05
1.57642e-05
1.57655e-05
1.57648e-05
1.57632e-05
1.57648e-05
1.80107e-05
1.79928e-05
1.57653e-05
1.57648e-05
1.57653e-05
1.79934e-05
1.80095e-05
1.79917e-05
1.57641e-05
1.57645e-05
1.57641e-05
1.57645e-05
1.80088e-05
1.79913e-05
1.57642e-05
1.57654e-05
1.57642e-05
1.57655e-05
1.57648e-05
1.57632e-05
1.57648e-05
1.80108e-05
1.79932e-05
1.57653e-05
1.57648e-05
1.57653e-05
1.79951e-05
1.80099e-05
1.79915e-05
1.57641e-05
1.57645e-05
1.57641e-05
1.57645e-05
1.80093e-05
1.79912e-05
1.57642e-05
1.57654e-05
1.57642e-05
1.57655e-05
1.57648e-05
1.57632e-05
1.57648e-05
1.80113e-05
1.7993e-05
1.57653e-05
1.57648e-05
1.57653e-05
1.79952e-05
1.80097e-05
1.7992e-05
1.57641e-05
1.57645e-05
1.57641e-05
1.57646e-05
1.80092e-05
1.79916e-05
1.57642e-05
1.57654e-05
1.57642e-05
1.57655e-05
1.57648e-05
1.57632e-05
1.57648e-05
1.80112e-05
1.79931e-05
1.57653e-05
1.57647e-05
1.57653e-05
1.79952e-05
1.801e-05
1.79925e-05
1.57641e-05
1.57646e-05
1.57641e-05
1.57646e-05
1.80096e-05
1.79921e-05
1.57642e-05
1.57654e-05
1.57642e-05
1.57655e-05
1.57648e-05
1.57631e-05
1.57648e-05
1.80113e-05
1.79935e-05
1.57653e-05
1.57648e-05
1.57653e-05
1.79955e-05
1.80108e-05
1.79921e-05
1.5764e-05
1.57646e-05
1.5764e-05
1.57646e-05
1.80104e-05
1.79917e-05
1.57642e-05
1.57654e-05
1.57642e-05
1.57655e-05
1.57648e-05
1.57631e-05
1.57648e-05
1.80118e-05
1.79934e-05
1.57653e-05
1.57648e-05
1.57653e-05
1.79952e-05
1.80108e-05
1.79916e-05
1.5764e-05
1.57646e-05
1.5764e-05
1.57647e-05
1.80105e-05
1.79909e-05
1.57642e-05
1.57654e-05
1.57642e-05
1.57655e-05
1.57648e-05
1.57632e-05
1.57648e-05
1.80119e-05
1.7993e-05
1.57653e-05
1.57647e-05
1.57653e-05
1.79945e-05
1.80103e-05
1.79916e-05
1.5764e-05
1.57646e-05
1.5764e-05
1.57646e-05
1.80098e-05
1.79908e-05
1.57642e-05
1.57654e-05
1.57642e-05
1.57655e-05
1.57648e-05
1.57632e-05
1.57648e-05
1.80116e-05
1.7993e-05
1.57652e-05
1.57647e-05
1.57653e-05
1.79941e-05
1.80101e-05
1.7992e-05
1.57639e-05
1.57646e-05
1.5764e-05
1.57646e-05
1.80093e-05
1.79912e-05
1.57642e-05
1.57654e-05
1.57642e-05
1.57655e-05
1.57648e-05
1.57632e-05
1.57648e-05
1.80113e-05
1.79934e-05
1.57652e-05
1.57647e-05
1.57653e-05
1.79942e-05
1.80102e-05
1.79923e-05
1.57639e-05
1.57645e-05
1.5764e-05
1.57645e-05
1.80093e-05
1.79917e-05
1.57642e-05
1.57654e-05
1.57642e-05
1.57655e-05
1.57648e-05
1.57632e-05
1.57648e-05
1.80115e-05
1.79936e-05
1.57653e-05
1.57648e-05
1.57653e-05
1.79948e-05
1.80105e-05
1.79924e-05
1.57639e-05
1.57644e-05
1.5764e-05
1.57644e-05
1.80097e-05
1.79919e-05
1.57642e-05
1.57654e-05
1.57642e-05
1.57655e-05
1.57648e-05
1.57632e-05
1.57648e-05
1.80118e-05
1.79937e-05
1.57653e-05
1.57648e-05
1.57653e-05
1.79954e-05
1.80107e-05
1.79923e-05
1.5764e-05
1.57644e-05
1.5764e-05
1.57644e-05
1.801e-05
1.79918e-05
1.57642e-05
1.57654e-05
1.57642e-05
1.57655e-05
1.57648e-05
1.57632e-05
1.57648e-05
1.80119e-05
1.79937e-05
1.57653e-05
1.57648e-05
1.57653e-05
1.79958e-05
1.80107e-05
1.79923e-05
1.5764e-05
1.57643e-05
1.5764e-05
1.57643e-05
1.80101e-05
1.79917e-05
1.57642e-05
1.57654e-05
1.57643e-05
1.57655e-05
1.57648e-05
1.57631e-05
1.57648e-05
1.8012e-05
1.79937e-05
1.57653e-05
1.57648e-05
1.57653e-05
1.79961e-05
1.80107e-05
1.79922e-05
1.5764e-05
1.57643e-05
1.5764e-05
1.57643e-05
1.80101e-05
1.79916e-05
1.57642e-05
1.57654e-05
1.57643e-05
1.57655e-05
1.57648e-05
1.57631e-05
1.57648e-05
1.8012e-05
1.79936e-05
1.57653e-05
1.57648e-05
1.57653e-05
1.79962e-05
1.80107e-05
1.79922e-05
1.5764e-05
1.57642e-05
1.5764e-05
1.57642e-05
1.80101e-05
1.79915e-05
1.57642e-05
1.57654e-05
1.57643e-05
1.57655e-05
1.57648e-05
1.57631e-05
1.57648e-05
1.8012e-05
1.79935e-05
1.57653e-05
1.57648e-05
1.57653e-05
1.79962e-05
1.80107e-05
1.79921e-05
1.5764e-05
1.57642e-05
1.5764e-05
1.57642e-05
1.801e-05
1.79915e-05
1.57642e-05
1.57654e-05
1.57643e-05
1.57655e-05
1.57648e-05
1.57632e-05
1.57648e-05
1.80119e-05
1.79935e-05
1.57653e-05
1.57648e-05
1.57653e-05
1.79963e-05
1.80107e-05
1.79921e-05
1.5764e-05
1.57642e-05
1.5764e-05
1.57642e-05
1.801e-05
1.79915e-05
1.57642e-05
1.57654e-05
1.57643e-05
1.57655e-05
1.57648e-05
1.57632e-05
1.57648e-05
1.80119e-05
1.79936e-05
1.57653e-05
1.57648e-05
1.57653e-05
1.79963e-05
1.80106e-05
1.79922e-05
1.5764e-05
1.57642e-05
1.5764e-05
1.57642e-05
1.801e-05
1.79915e-05
1.57642e-05
1.57654e-05
1.57643e-05
1.57655e-05
1.57648e-05
1.57632e-05
1.57648e-05
1.80119e-05
1.79937e-05
1.57652e-05
1.57648e-05
1.57653e-05
1.79964e-05
1.80106e-05
1.79922e-05
1.5764e-05
1.57642e-05
1.5764e-05
1.57642e-05
1.801e-05
1.79915e-05
1.57642e-05
1.57654e-05
1.57643e-05
1.57655e-05
1.57648e-05
1.57632e-05
1.57648e-05
1.8012e-05
1.79936e-05
1.57652e-05
1.57648e-05
1.57653e-05
1.79964e-05
1.80108e-05
1.79922e-05
1.5764e-05
1.57641e-05
1.5764e-05
1.57642e-05
1.801e-05
1.79915e-05
1.57642e-05
1.57654e-05
1.57643e-05
1.57655e-05
1.57648e-05
1.57632e-05
1.57648e-05
1.80121e-05
1.79935e-05
1.57652e-05
1.57648e-05
1.57652e-05
1.79964e-05
1.80108e-05
1.7992e-05
1.5764e-05
1.57641e-05
1.5764e-05
1.57642e-05
1.80099e-05
1.79914e-05
1.57642e-05
1.57654e-05
1.57643e-05
1.57654e-05
1.57648e-05
1.57632e-05
1.57648e-05
1.8012e-05
1.79935e-05
1.57652e-05
1.57647e-05
1.57652e-05
1.79964e-05
1.80107e-05
1.79919e-05
1.5764e-05
1.57641e-05
1.5764e-05
1.57641e-05
1.80099e-05
1.79915e-05
1.57642e-05
1.57654e-05
1.57643e-05
1.57654e-05
1.57648e-05
1.57632e-05
1.57648e-05
1.80119e-05
1.79936e-05
1.57652e-05
1.57647e-05
1.57652e-05
1.79963e-05
1.80105e-05
1.79919e-05
1.5764e-05
1.57641e-05
1.5764e-05
1.57641e-05
1.80099e-05
1.79916e-05
1.57642e-05
1.57654e-05
1.57642e-05
1.57654e-05
1.57648e-05
1.57633e-05
1.57648e-05
1.8012e-05
1.79936e-05
1.57652e-05
1.57647e-05
1.57652e-05
1.79963e-05
1.80105e-05
1.79919e-05
1.5764e-05
1.57641e-05
1.5764e-05
1.57641e-05
1.801e-05
1.79917e-05
1.57642e-05
1.57654e-05
1.57642e-05
1.57655e-05
1.57648e-05
1.57633e-05
1.57648e-05
1.8012e-05
1.79936e-05
1.57652e-05
1.57647e-05
1.57652e-05
1.79964e-05
1.80105e-05
1.79919e-05
1.5764e-05
1.57641e-05
1.5764e-05
1.57641e-05
1.801e-05
1.79918e-05
1.57642e-05
1.57654e-05
1.57643e-05
1.57655e-05
1.57648e-05
1.57634e-05
1.57648e-05
1.8012e-05
1.79936e-05
1.57652e-05
1.57647e-05
1.57652e-05
1.79964e-05
1.80105e-05
1.79919e-05
1.5764e-05
1.57641e-05
1.5764e-05
1.57641e-05
1.80101e-05
1.79919e-05
1.57642e-05
1.57654e-05
1.57643e-05
1.57655e-05
1.57648e-05
1.57634e-05
1.57648e-05
1.8012e-05
1.79936e-05
1.57652e-05
1.57647e-05
1.57652e-05
1.79963e-05
1.80105e-05
1.79919e-05
1.5764e-05
1.57641e-05
1.5764e-05
1.57641e-05
1.80102e-05
1.79919e-05
1.57642e-05
1.57654e-05
1.57642e-05
1.57655e-05
1.57648e-05
1.57635e-05
1.57648e-05
1.8012e-05
1.79936e-05
1.57652e-05
1.57647e-05
1.57652e-05
1.79963e-05
1.80104e-05
1.7992e-05
1.5764e-05
1.57641e-05
1.5764e-05
1.57641e-05
1.80103e-05
1.79918e-05
1.57642e-05
1.57654e-05
1.57642e-05
1.57654e-05
1.57648e-05
1.57636e-05
1.57648e-05
1.8012e-05
1.79936e-05
1.57652e-05
1.57647e-05
1.57652e-05
1.79962e-05
1.80104e-05
1.79921e-05
1.5764e-05
1.57641e-05
1.5764e-05
1.57641e-05
1.80103e-05
1.79919e-05
1.57642e-05
1.57654e-05
1.57642e-05
1.57654e-05
1.57647e-05
1.57636e-05
1.57648e-05
1.8012e-05
1.79936e-05
1.57652e-05
1.57647e-05
1.57652e-05
1.79962e-05
1.80105e-05
1.79921e-05
1.5764e-05
1.57641e-05
1.5764e-05
1.57641e-05
1.80103e-05
1.79918e-05
1.57642e-05
1.57654e-05
1.57642e-05
1.57654e-05
1.57647e-05
1.57636e-05
1.57648e-05
1.80121e-05
1.79935e-05
1.57651e-05
1.57647e-05
1.57652e-05
1.79962e-05
1.80106e-05
1.79922e-05
1.5764e-05
1.57641e-05
1.5764e-05
1.57641e-05
1.80103e-05
1.79917e-05
1.57642e-05
1.57654e-05
1.57643e-05
1.57654e-05
1.57647e-05
1.57636e-05
1.57648e-05
1.80121e-05
1.79934e-05
1.57651e-05
1.57647e-05
1.57652e-05
1.79962e-05
1.80107e-05
1.79921e-05
1.5764e-05
1.57641e-05
1.5764e-05
1.57641e-05
1.80102e-05
1.79918e-05
1.57642e-05
1.57654e-05
1.57643e-05
1.57654e-05
1.57647e-05
1.57637e-05
1.57648e-05
1.80119e-05
1.79934e-05
1.57651e-05
1.57647e-05
1.57652e-05
1.79963e-05
1.80107e-05
1.7992e-05
1.5764e-05
1.57641e-05
1.5764e-05
1.57641e-05
1.80102e-05
1.79918e-05
1.57642e-05
1.57654e-05
1.57643e-05
1.57655e-05
1.57647e-05
1.57637e-05
1.57648e-05
1.80119e-05
1.79935e-05
1.57652e-05
1.57647e-05
1.57652e-05
1.79963e-05
1.80106e-05
1.7992e-05
1.5764e-05
1.57641e-05
1.5764e-05
1.57641e-05
1.80103e-05
1.79918e-05
1.57642e-05
1.57654e-05
1.57643e-05
1.57655e-05
1.57647e-05
1.57637e-05
1.57648e-05
1.80119e-05
1.79935e-05
1.57652e-05
1.57647e-05
1.57652e-05
1.79962e-05
1.80106e-05
1.7992e-05
1.5764e-05
1.57641e-05
1.5764e-05
1.57641e-05
1.80102e-05
1.79919e-05
1.57642e-05
1.57654e-05
1.57643e-05
1.57655e-05
1.57647e-05
1.57638e-05
1.57648e-05
1.80119e-05
1.79935e-05
1.57652e-05
1.57647e-05
1.57652e-05
1.79962e-05
1.80105e-05
1.7992e-05
1.5764e-05
1.57641e-05
1.5764e-05
1.57641e-05
1.80102e-05
1.79919e-05
1.57642e-05
1.57654e-05
1.57642e-05
1.57654e-05
1.57647e-05
1.57638e-05
1.57648e-05
1.80119e-05
1.79936e-05
1.57652e-05
1.57647e-05
1.57652e-05
1.79964e-05
1.80105e-05
1.7992e-05
1.5764e-05
1.57641e-05
1.5764e-05
1.57641e-05
1.80103e-05
1.7992e-05
1.57642e-05
1.57654e-05
1.57642e-05
1.57654e-05
1.57647e-05
1.57637e-05
1.57648e-05
1.8012e-05
1.79936e-05
1.57652e-05
1.57647e-05
1.57652e-05
1.79965e-05
1.80105e-05
1.7992e-05
1.5764e-05
1.57641e-05
1.5764e-05
1.57641e-05
1.80104e-05
1.79919e-05
1.57642e-05
1.57654e-05
1.57642e-05
1.57654e-05
1.57647e-05
1.57637e-05
1.57648e-05
1.8012e-05
1.79935e-05
1.57652e-05
1.57647e-05
1.57652e-05
1.79965e-05
1.80105e-05
1.7992e-05
1.5764e-05
1.57641e-05
1.5764e-05
1.57641e-05
1.80104e-05
1.79918e-05
1.57642e-05
1.57654e-05
1.57642e-05
1.57654e-05
1.57648e-05
1.57637e-05
1.57648e-05
1.8012e-05
1.79935e-05
1.57652e-05
1.57647e-05
1.57652e-05
1.79964e-05
1.80105e-05
1.7992e-05
1.5764e-05
1.57641e-05
1.5764e-05
1.57641e-05
1.80103e-05
1.79918e-05
1.57642e-05
1.57654e-05
1.57642e-05
1.57654e-05
1.57648e-05
1.57637e-05
1.57648e-05
1.80119e-05
1.79935e-05
1.57652e-05
1.57647e-05
1.57652e-05
1.79964e-05
1.80105e-05
1.79921e-05
1.5764e-05
1.57641e-05
1.5764e-05
1.57641e-05
1.80103e-05
1.79918e-05
1.57642e-05
1.57654e-05
1.57642e-05
1.57654e-05
1.57648e-05
1.57637e-05
1.57648e-05
1.80119e-05
1.79935e-05
1.57651e-05
1.57647e-05
1.57652e-05
1.79963e-05
1.80106e-05
1.79921e-05
1.5764e-05
1.57641e-05
1.5764e-05
1.57642e-05
1.80102e-05
1.79918e-05
1.57642e-05
1.57654e-05
1.57642e-05
1.57654e-05
1.57647e-05
1.57637e-05
1.57648e-05
1.8012e-05
1.79935e-05
1.57651e-05
1.57647e-05
1.57652e-05
1.79962e-05
1.80106e-05
1.7992e-05
1.5764e-05
1.57642e-05
1.5764e-05
1.57642e-05
1.80102e-05
1.7992e-05
1.57642e-05
1.57654e-05
1.57642e-05
1.57654e-05
1.57647e-05
1.57637e-05
1.57648e-05
1.80119e-05
1.79935e-05
1.57651e-05
1.57647e-05
1.57651e-05
1.79961e-05
1.80106e-05
1.7992e-05
1.5764e-05
1.57642e-05
1.5764e-05
1.57641e-05
1.80103e-05
1.7992e-05
1.57642e-05
1.57654e-05
1.57642e-05
1.57654e-05
1.57647e-05
1.57637e-05
1.57647e-05
1.80118e-05
1.79936e-05
1.57651e-05
1.57647e-05
1.57651e-05
1.79961e-05
1.80105e-05
1.7992e-05
1.5764e-05
1.57641e-05
1.5764e-05
1.57641e-05
1.80104e-05
1.79919e-05
1.57642e-05
1.57654e-05
1.57642e-05
1.57654e-05
1.57647e-05
1.57637e-05
1.57647e-05
1.8012e-05
1.79936e-05
1.57651e-05
1.57647e-05
1.57651e-05
1.79961e-05
1.80105e-05
1.7992e-05
1.5764e-05
1.57641e-05
1.57639e-05
1.57641e-05
1.80103e-05
1.79919e-05
1.57642e-05
1.57654e-05
1.57642e-05
1.57654e-05
1.57647e-05
1.57637e-05
1.57647e-05
1.8012e-05
1.79935e-05
1.57651e-05
1.57646e-05
1.57651e-05
1.79963e-05
1.80106e-05
1.79921e-05
1.57639e-05
1.57641e-05
1.57639e-05
1.5764e-05
1.80104e-05
1.79919e-05
1.57642e-05
1.57654e-05
1.57641e-05
1.57653e-05
1.57647e-05
1.57637e-05
1.57646e-05
1.8012e-05
1.79935e-05
1.57651e-05
1.57646e-05
1.5765e-05
1.79964e-05
1.80106e-05
1.7992e-05
1.57639e-05
1.5764e-05
1.57638e-05
1.5764e-05
1.80104e-05
1.79918e-05
1.57641e-05
1.57653e-05
1.57641e-05
1.57653e-05
1.57646e-05
1.57637e-05
1.57646e-05
1.80119e-05
1.79935e-05
1.5765e-05
1.57647e-05
1.5765e-05
1.79964e-05
1.80106e-05
1.79919e-05
1.57639e-05
1.5764e-05
1.57638e-05
1.5764e-05
1.80103e-05
1.79917e-05
1.57641e-05
1.57653e-05
1.57641e-05
1.57653e-05
1.57646e-05
1.57637e-05
1.57646e-05
1.8012e-05
1.79935e-05
1.5765e-05
1.57647e-05
1.57649e-05
1.79964e-05
1.80105e-05
1.79919e-05
1.57639e-05
1.5764e-05
1.57638e-05
1.5764e-05
1.80101e-05
1.79918e-05
1.57641e-05
1.57653e-05
1.57641e-05
1.57653e-05
1.57646e-05
1.57637e-05
1.57646e-05
1.80119e-05
1.79934e-05
1.5765e-05
1.57647e-05
1.57649e-05
1.79962e-05
1.80104e-05
1.79918e-05
1.57639e-05
1.5764e-05
1.57638e-05
1.5764e-05
1.80101e-05
1.79918e-05
1.57642e-05
1.57653e-05
1.57641e-05
1.57653e-05
1.57646e-05
1.57637e-05
1.57646e-05
1.80119e-05
1.79933e-05
1.5765e-05
1.57646e-05
1.57649e-05
1.79961e-05
1.80103e-05
1.79918e-05
1.57639e-05
1.57641e-05
1.57638e-05
1.5764e-05
1.80101e-05
1.79919e-05
1.57642e-05
1.57654e-05
1.57641e-05
1.57653e-05
1.57647e-05
1.57637e-05
1.57646e-05
1.80117e-05
1.79933e-05
1.5765e-05
1.57646e-05
1.57649e-05
1.79962e-05
1.80103e-05
1.79919e-05
1.57639e-05
1.57641e-05
1.57638e-05
1.5764e-05
1.80101e-05
1.79919e-05
1.57642e-05
1.57654e-05
1.57641e-05
1.57653e-05
1.57647e-05
1.57637e-05
1.57646e-05
1.80116e-05
1.79936e-05
1.5765e-05
1.57646e-05
1.57649e-05
1.79964e-05
1.80102e-05
1.79922e-05
1.5764e-05
1.57641e-05
1.57637e-05
1.57639e-05
1.80101e-05
1.79921e-05
1.57642e-05
1.57654e-05
1.5764e-05
1.57652e-05
1.57647e-05
1.57637e-05
1.57645e-05
1.80117e-05
1.79939e-05
1.5765e-05
1.57646e-05
1.57649e-05
1.79968e-05
1.80102e-05
1.79926e-05
1.57639e-05
1.57641e-05
1.57634e-05
1.57637e-05
1.80101e-05
1.79925e-05
1.57642e-05
1.57654e-05
1.57638e-05
1.57649e-05
1.57647e-05
1.57634e-05
1.57643e-05
1.80118e-05
1.79942e-05
1.5765e-05
1.57644e-05
1.57646e-05
1.79974e-05
1.801e-05
1.79916e-05
1.57636e-05
1.57638e-05
1.57635e-05
1.57636e-05
1.80098e-05
1.79914e-05
1.57639e-05
1.57651e-05
1.57636e-05
1.57648e-05
1.57644e-05
1.57633e-05
1.57643e-05
1.80114e-05
1.79929e-05
1.57646e-05
1.57643e-05
1.57645e-05
1.79961e-05
1.80051e-05
1.77454e-05
1.5753e-05
1.57531e-05
1.54109e-05
1.54109e-05
1.80049e-05
1.77455e-05
1.57531e-05
1.57542e-05
1.54114e-05
1.54119e-05
1.57537e-05
1.54112e-05
1.54114e-05
1.80063e-05
1.77465e-05
1.57538e-05
1.54119e-05
1.5412e-05
1.77459e-05
1.75377e-05
1.52881e-05
1.52881e-05
1.75379e-05
1.52887e-05
1.5289e-05
1.4127e-05
1.41274e-05
1.41273e-05
1.52887e-05
1.7539e-05
1.52893e-05
3.73769e-05
3.73764e-05
3.73767e-05
3.73767e-05
3.73694e-05
3.73755e-05
3.73043e-05
3.73764e-05
3.73694e-05
3.73755e-05
3.73764e-05
3.73043e-05
3.73714e-05
3.72959e-05
3.72959e-05
3.58867e-05
4.08626e-05
3.66004e-05
4.51342e-05
5.51055e-05
6.48915e-05
3.58873e-05
4.08622e-05
3.66003e-05
4.51369e-05
3.60232e-05
3.60232e-05
3.60232e-05
3.44005e-05
3.44005e-05
3.44005e-05
3.44005e-05
3.52764e-05
3.56367e-05
3.60241e-05
3.53762e-05
3.60476e-05
3.42381e-05
3.53827e-05
5.51075e-05
6.48934e-05
3.52765e-05
3.60241e-05
3.56363e-05
3.53762e-05
3.60475e-05
3.53827e-05
3.42386e-05
3.65906e-05
3.65914e-05
3.52783e-05
3.40725e-05
3.40716e-05
3.39713e-05
5.13457e-05
3.46828e-05
5.46135e-05
7.6549e-05
8.08627e-05
3.39722e-05
5.13462e-05
3.46821e-05
5.46168e-05
3.39295e-05
3.39295e-05
3.39295e-05
3.2585e-05
3.2585e-05
3.2585e-05
3.2585e-05
3.30544e-05
3.2472e-05
3.39291e-05
3.34062e-05