/*--------------------------------*- C++ -*----------------------------------*\
| =========                 |                                                 |
| \\      /  F ield         | OpenFOAM: The Open Source CFD Toolbox           |
|  \\    /   O peration     | Version:                                        |
|   \\  /    A nd           | Website:  www.openfoam.com                      |
|    \\/     M anipulation  |                                                 |
\*---------------------------------------------------------------------------*/
FoamFile
{
    version     2.0;
    format      ascii;
    class       volScalarField;
    location    "100";
    object      nut;
}
// * * * * * * * * * * * * * * * * * * * * * * * * * * * * * * * * * * * * * //

dimensions      [0 2 -1 0 0 0 0];


internalField   nonuniform List<scalar> 
172512
(
0.000233969
0.000233548
0.000233548
0.000233451
0.000232529
0.00022758
0.00022758
0.000223833
0.000230487
0.000220158
0.000220157
0.000209027
0.000227758
0.000211542
0.00021154
0.000193702
0.000224387
0.000202552
0.000202549
0.000179636
0.000220505
0.000193693
0.000193689
0.000167281
0.000216258
0.000185208
0.000185204
0.000156541
0.000211776
0.000177176
0.000177171
0.000147172
0.000207165
0.000169636
0.000169632
0.000138926
0.000202505
0.000162564
0.000162559
0.000131599
0.000197852
0.000155905
0.0001559
0.000124944
0.00019324
0.000149604
0.000149599
0.000118809
0.000188647
0.000143624
0.000143619
0.000113165
0.000184118
0.000137913
0.000137908
0.000107934
0.000179674
0.000132424
0.000132419
0.000103061
0.000175301
0.000127143
0.000127138
9.84453e-05
0.000171008
0.000122109
0.000122105
9.42632e-05
0.000166752
0.000117331
0.000117327
9.06759e-05
0.000162577
0.000112878
0.000112875
8.77692e-05
0.00015846
0.000108839
0.000108836
8.54943e-05
0.000154495
0.000105371
0.000105368
8.39724e-05
0.000151206
0.000103045
0.000103044
8.33715e-05
0.000148186
0.000100955
0.000100954
8.29749e-05
0.000146023
9.96045e-05
9.96045e-05
8.23909e-05
0.000145314
9.93401e-05
9.93412e-05
8.23719e-05
0.000145454
9.95285e-05
9.95302e-05
8.2633e-05
0.000145604
9.97095e-05
9.97115e-05
8.27739e-05
0.000145672
9.97749e-05
9.9777e-05
8.28564e-05
0.000145694
9.97947e-05
9.9797e-05
8.28658e-05
0.000145701
9.98029e-05
9.98038e-05
8.28696e-05
0.000145708
9.981e-05
9.98117e-05
8.28731e-05
0.000145713
9.98141e-05
9.98162e-05
8.2877e-05
0.000145718
9.98173e-05
9.98195e-05
8.28759e-05
0.000145722
9.98201e-05
9.98222e-05
8.28805e-05
0.000145726
9.98227e-05
9.98247e-05
8.28831e-05
0.000145729
9.98237e-05
9.98263e-05
8.28837e-05
0.000145732
9.98239e-05
9.98264e-05
8.28798e-05
0.000145735
9.98236e-05
9.98265e-05
8.28687e-05
0.000145735
9.98234e-05
9.98264e-05
8.287e-05
0.000145735
9.98233e-05
9.98265e-05
8.28796e-05
0.000145735
9.9823e-05
9.98264e-05
8.2881e-05
0.000145735
9.98227e-05
9.98264e-05
8.28794e-05
0.000145735
9.98223e-05
9.98265e-05
8.28809e-05
0.000145735
9.98224e-05
9.98264e-05
8.28798e-05
0.000145736
9.98226e-05
9.98264e-05
8.28744e-05
0.000145736
9.98225e-05
9.98263e-05
8.28702e-05
0.000145736
9.98223e-05
9.98263e-05
8.28702e-05
0.000145737
9.98221e-05
9.98264e-05
8.28726e-05
0.000145737
9.9822e-05
9.98265e-05
8.28759e-05
0.000145737
9.98219e-05
9.98265e-05
8.28794e-05
0.000145737
9.98216e-05
9.98265e-05
8.28822e-05
0.000145738
9.98218e-05
9.98265e-05
8.28833e-05
0.000145738
9.98219e-05
9.98264e-05
8.28835e-05
0.000145738
9.98219e-05
9.98263e-05
8.28841e-05
0.000145738
9.98219e-05
9.98262e-05
8.28843e-05
0.000145738
9.98219e-05
9.98261e-05
8.28849e-05
0.000145738
9.98218e-05
9.98261e-05
8.28859e-05
0.000145738
9.98214e-05
9.98261e-05
8.28863e-05
0.000145738
9.98219e-05
9.98258e-05
8.2886e-05
0.000145738
9.98225e-05
9.98258e-05
8.28854e-05
0.000145738
9.98229e-05
9.98258e-05
8.28849e-05
0.000145738
9.98232e-05
9.98257e-05
8.28853e-05
0.000145738
9.98236e-05
9.98255e-05
8.28858e-05
0.000145738
9.98239e-05
9.98254e-05
8.28852e-05
0.000145738
9.98241e-05
9.98254e-05
8.28846e-05
0.000145738
9.98243e-05
9.98254e-05
8.28844e-05
0.000145738
9.98244e-05
9.98255e-05
8.28836e-05
0.000145738
9.98243e-05
9.98252e-05
8.28831e-05
0.000145738
9.98244e-05
9.98253e-05
8.28833e-05
0.000145738
9.98244e-05
9.98256e-05
8.28846e-05
0.000145738
9.98244e-05
9.98258e-05
8.28852e-05
0.000145738
9.98245e-05
9.98259e-05
8.2884e-05
0.000145738
9.98245e-05
9.98259e-05
8.28832e-05
0.000145738
9.98244e-05
9.98256e-05
8.28847e-05
0.000145738
9.98242e-05
9.98256e-05
8.28871e-05
0.000145738
9.98239e-05
9.98258e-05
8.28878e-05
0.000145738
9.98237e-05
9.98257e-05
8.2887e-05
0.000145738
9.98236e-05
9.98254e-05
8.28863e-05
0.000145738
9.98238e-05
9.98257e-05
8.28858e-05
0.000145738
9.98238e-05
9.98261e-05
8.2885e-05
0.000145738
9.98239e-05
9.98262e-05
8.28836e-05
0.000145738
9.98241e-05
9.98262e-05
8.28824e-05
0.000145738
9.98247e-05
9.98259e-05
8.28826e-05
0.000145738
9.98251e-05
9.98261e-05
8.28844e-05
0.000145738
9.98261e-05
9.98271e-05
8.28858e-05
0.000145738
9.98279e-05
9.98289e-05
8.28869e-05
0.000145739
9.98303e-05
9.98314e-05
8.28875e-05
0.00014574
9.98337e-05
9.98347e-05
8.28872e-05
0.000145742
9.98386e-05
9.98397e-05
8.28876e-05
0.000145745
9.98461e-05
9.98471e-05
8.28904e-05
0.000145749
9.98573e-05
9.98584e-05
8.28953e-05
0.000145754
9.98745e-05
9.98758e-05
8.29015e-05
0.000145763
9.99149e-05
9.99149e-05
8.29111e-05
0.000145893
0.000100071
0.000100073
8.29308e-05
0.000141211
0.00010342
0.000103422
8.49422e-05
0.000234257
0.000234459
0.00023446
0.000234257
0.00023446
0.00023446
0.000234259
0.000234259
0.000234259
0.000234259
0.000234459
0.000234459
0.000234257
0.000234459
0.00023446
0.000234257
0.000233451
0.000226179
0.000233548
0.000233547
0.000229123
0.000229118
0.000233451
0.00022618
0.000233547
0.000233547
0.00022912
0.000229117
0.000233548
0.000229126
0.000229123
0.000233451
0.000226179
0.000233547
0.000229126
0.00022912
0.000226177
0.000223834
0.000212155
0.000227577
0.000227572
0.000222157
0.000222151
0.000223833
0.000212155
0.000227575
0.00022757
0.000222158
0.00022215
0.000227576
0.000222163
0.000222156
0.000223834
0.000212152
0.000227575
0.000222162
0.000222156
0.000212148
0.00020903
0.000196986
0.000220151
0.000220146
0.000213749
0.000213742
0.000209029
0.000196984
0.000220153
0.000220143
0.000213753
0.00021374
0.000220149
0.000213758
0.000213745
0.000209028
0.00019698
0.000220151
0.000213757
0.00021375
0.000196975
0.00019371
0.000182815
0.000211531
0.000211525
0.000204788
0.000204781
0.000193708
0.000182812
0.000211537
0.000211522
0.000204797
0.000204778
0.000211527
0.000204801
0.000204783
0.000193706
0.000182807
0.000211533
0.000204799
0.000204792
0.000182801
0.000179647
0.000170219
0.000202538
0.000202531
0.000195862
0.000195855
0.000179645
0.000170216
0.000202548
0.000202528
0.000195874
0.000195851
0.000202533
0.000195877
0.000195856
0.000179641
0.000170211
0.000202542
0.000195875
0.000195868
0.000170204
0.000167295
0.000159208
0.000193675
0.000193668
0.00018727
0.000187263
0.000167291
0.000159204
0.000193689
0.000193665
0.000187286
0.000187258
0.000193669
0.000187288
0.000187263
0.000167287
0.000159198
0.000193682
0.000187285
0.000187278
0.000159191
0.000156556
0.00014959
0.000185188
0.000185181
0.000179116
0.000179109
0.000156553
0.000149587
0.000185205
0.000185177
0.000179135
0.000179104
0.000185182
0.000179137
0.000179109
0.000156548
0.00014958
0.000185197
0.000179134
0.000179126
0.000149573
0.000147188
0.000141095
0.000177153
0.000177146
0.000171451
0.000171444
0.000147184
0.000141091
0.000177173
0.000177142
0.000171473
0.000171439
0.000177146
0.000171474
0.000171444
0.000147178
0.000141084
0.000177164
0.000171471
0.000171464
0.000141076
0.000138943
0.000133544
0.000169611
0.000169604
0.000164264
0.000164257
0.000138939
0.00013354
0.000169634
0.0001696
0.000164288
0.000164252
0.000169605
0.00016429
0.000164258
0.000138933
0.000133533
0.000169625
0.000164286
0.000164279
0.000133524
0.000131617
0.000126689
0.000162536
0.000162529
0.000157505
0.000157498
0.000131613
0.000126686
0.000162561
0.000162525
0.000157532
0.000157493
0.00016253
0.000157533
0.000157499
0.000131606
0.000126678
0.000162552
0.000157529
0.000157522
0.000126669
0.000124963
0.000120371
0.000155875
0.000155868
0.000151118
0.000151111
0.000124959
0.000120367
0.000155903
0.000155864
0.000151147
0.000151106
0.00015587
0.000151148
0.000151113
0.000124952
0.000120359
0.000155893
0.000151144
0.000151137
0.000120351
0.000118826
0.000114445
0.000149573
0.000149566
0.000145059
0.000145051
0.000118822
0.00011444
0.000149602
0.000149562
0.000145089
0.000145047
0.000149568
0.00014509
0.000145054
0.000118815
0.000114432
0.000149592
0.000145087
0.000145079
0.000114424
0.000113182
0.000108858
0.000143591
0.000143584
0.000139285
0.000139277
0.000113179
0.000108852
0.000143622
0.00014358
0.000139316
0.000139273
0.000143586
0.000139317
0.00013928
0.000113171
0.000108845
0.000143612
0.000139314
0.000139306
0.000108837
0.000107952
0.000103723
0.00013788
0.000137872
0.000133742
0.000133733
0.000107947
0.000103718
0.000137911
0.000137868
0.000133773
0.000133729
0.000137875
0.000133774
0.000133737
0.00010794
0.000103711
0.000137901
0.000133771
0.000133763
0.000103703
0.000103079
9.91488e-05
0.00013239
0.000132381
0.000128418
0.000128407
0.000103075
9.9144e-05
0.000132421
0.000132378
0.000128447
0.000128405
0.000132386
0.00012845
0.000128414
0.000103068
9.91373e-05
0.000132412
0.000128446
0.000128438
9.91304e-05
9.84631e-05
9.50106e-05
0.000127111
0.000127099
0.000123327
0.000123313
9.84579e-05
9.50061e-05
0.000127139
0.000127097
0.000123353
0.000123311
0.000127107
0.000123356
0.000123323
9.84515e-05
9.49999e-05
0.00012713
0.000123353
0.000123344
9.49935e-05
9.42796e-05
9.14612e-05
0.00012208
0.000122065
0.000118462
0.000118447
9.42744e-05
9.14566e-05
0.000122105
0.000122064
0.000118486
0.000118446
0.000122075
0.00011849
0.000118458
9.42689e-05
9.14511e-05
0.000122096
0.000118487
0.000118477
9.14453e-05
9.06907e-05
8.84181e-05
0.000117302
0.000117286
0.000113927
0.000113911
9.06843e-05
8.84134e-05
0.000117326
0.000117285
0.00011395
0.000113911
0.000117299
0.000113955
0.000113925
9.06802e-05
8.84087e-05
0.000117317
0.000113952
0.000113942
8.84035e-05
8.7783e-05
8.60097e-05
0.00011285
0.000112834
0.000109779
0.000109761
8.77778e-05
8.60054e-05
0.000112872
0.000112834
0.0001098
0.000109762
0.000112848
0.000109805
0.000109777
8.77735e-05
8.60011e-05
0.000112864
0.000109803
0.000109792
8.59963e-05
8.55068e-05
8.43322e-05
0.000108812
0.000108795
0.000106123
0.000106105
8.55027e-05
8.43284e-05
0.000108833
0.000108795
0.000106143
0.000106106
0.000108811
0.000106148
0.000106122
8.54984e-05
8.43243e-05
0.000108825
0.000106146
0.000106135
8.43195e-05
8.39848e-05
8.35732e-05
0.000105344
0.000105327
0.000103503
0.000103488
8.39812e-05
8.35697e-05
0.000105364
0.000105328
0.000103524
0.00010349
0.000105344
0.00010353
0.000103505
8.39771e-05
8.35661e-05
0.000105356
0.000103529
0.000103517
8.3563e-05
8.3382e-05
8.31703e-05
0.000103018
0.000103003
0.000101506
0.000101492
8.33789e-05
8.31668e-05
0.000103039
0.000103005
0.000101527
0.000101494
0.00010302
0.000101533
0.000101509
8.33753e-05
8.31636e-05
0.000103033
0.000101532
0.000101521
8.31589e-05
8.29879e-05
8.25076e-05
0.000100928
0.000100914
9.98193e-05
9.98077e-05
8.29845e-05
8.25044e-05
0.000100949
0.000100916
9.98411e-05
9.98093e-05
0.000100932
9.98473e-05
9.98246e-05
8.29814e-05
8.25027e-05
0.000100943
9.98473e-05
9.98359e-05
8.24987e-05
8.23997e-05
8.2427e-05
9.95763e-05
9.95652e-05
9.93139e-05
9.93038e-05
8.23967e-05
8.24239e-05
9.95981e-05
9.95668e-05
9.93359e-05
9.9306e-05
9.9582e-05
9.93426e-05
9.93204e-05
8.23953e-05
8.24242e-05
9.95932e-05
9.93439e-05
9.93318e-05
8.24191e-05
8.23806e-05
8.26843e-05
9.93122e-05
9.93022e-05
9.94322e-05
9.94228e-05
8.23777e-05
8.26808e-05
9.93342e-05
9.93043e-05
9.94548e-05
9.94248e-05
9.93187e-05
9.94611e-05
9.9439e-05
8.23782e-05
8.26819e-05
9.93301e-05
9.94632e-05
9.94506e-05
8.26763e-05
8.26412e-05
8.2856e-05
9.95022e-05
9.9493e-05
9.96506e-05
9.96421e-05
8.26381e-05
8.28528e-05
9.95247e-05
9.94947e-05
9.96735e-05
9.96439e-05
9.95092e-05
9.96796e-05
9.96581e-05
8.2639e-05
8.28535e-05
9.95206e-05
9.9682e-05
9.96699e-05
8.28487e-05
8.27799e-05
8.29481e-05
9.96816e-05
9.96733e-05
9.97365e-05
9.97289e-05
8.27769e-05
8.29448e-05
9.97048e-05
9.96752e-05
9.97598e-05
9.97301e-05
9.96894e-05
9.97657e-05
9.97447e-05
8.27777e-05
8.29457e-05
9.97012e-05
9.97681e-05
9.97565e-05
8.29402e-05
8.2864e-05
8.29619e-05
9.97463e-05
9.97385e-05
9.97624e-05
9.97553e-05
8.2861e-05
8.29589e-05
9.97696e-05
9.97403e-05
9.97857e-05
9.97563e-05
9.97545e-05
9.97915e-05
9.97711e-05
8.28618e-05
8.29596e-05
9.97666e-05
9.97934e-05
9.9783e-05
8.2955e-05
8.28724e-05
8.2965e-05
9.97652e-05
9.97573e-05
9.9769e-05
9.97641e-05
8.28697e-05
8.29622e-05
9.97885e-05
9.97589e-05
9.97924e-05
9.97639e-05
9.97732e-05
9.98001e-05
9.97793e-05
8.28703e-05
8.2963e-05
9.97854e-05
9.98015e-05
9.97907e-05
8.29582e-05
8.28763e-05
8.29698e-05
9.97708e-05
9.97665e-05
9.97776e-05
9.97723e-05
8.28739e-05
8.29671e-05
9.97951e-05
9.97663e-05
9.98008e-05
9.97723e-05
9.97818e-05
9.98089e-05
9.97873e-05
8.28746e-05
8.29678e-05
9.97931e-05
9.98103e-05
9.97988e-05
8.29628e-05
8.28802e-05
8.29723e-05
9.97794e-05
9.9774e-05
9.9783e-05
9.97774e-05
8.28777e-05
8.29698e-05
9.98025e-05
9.9774e-05
9.98063e-05
9.97775e-05
9.9789e-05
9.98137e-05
9.97924e-05
8.28784e-05
8.29707e-05
9.98004e-05
9.98157e-05
9.9804e-05
8.29652e-05
8.28839e-05
8.29726e-05
9.97843e-05
9.97789e-05
9.97867e-05
9.97816e-05
8.28815e-05
8.29696e-05
9.98077e-05
9.9779e-05
9.98102e-05
9.97817e-05
9.97938e-05
9.98169e-05
9.97966e-05
8.28824e-05
8.29707e-05
9.98055e-05
9.9819e-05
9.98083e-05
8.29654e-05
8.28832e-05
8.29773e-05
9.97879e-05
9.9783e-05
9.97896e-05
9.9785e-05
8.28806e-05
8.29741e-05
9.98115e-05
9.9783e-05
9.98133e-05
9.97853e-05
9.97979e-05
9.98199e-05
9.97998e-05
8.28816e-05
8.29752e-05
9.98097e-05
9.98219e-05
9.98116e-05
8.29711e-05
8.2887e-05
8.2979e-05
9.97907e-05
9.97863e-05
9.97924e-05
9.97881e-05
8.28842e-05
8.29756e-05
9.98144e-05
9.97865e-05
9.98162e-05
9.97883e-05
9.98009e-05
9.98226e-05
9.98028e-05
8.28853e-05
8.29768e-05
9.98127e-05
9.98246e-05
9.98145e-05
8.29726e-05
8.28894e-05
8.29805e-05
9.97936e-05
9.97893e-05
9.97936e-05
9.97903e-05
8.28864e-05
8.29775e-05
9.98174e-05
9.97896e-05
9.98177e-05
9.97904e-05
9.9804e-05
9.9824e-05
9.98034e-05
8.28876e-05
8.29785e-05
9.98158e-05
9.98266e-05
9.98154e-05
8.29721e-05
8.28924e-05
8.29751e-05
9.97943e-05
9.97908e-05
9.97936e-05
9.979e-05
8.28896e-05
8.29721e-05
9.98182e-05
9.97909e-05
9.98176e-05
9.97902e-05
9.98042e-05
9.98243e-05
9.98037e-05
8.28908e-05
8.29731e-05
9.98161e-05
9.98267e-05
9.98156e-05
8.29667e-05
8.28902e-05
8.29691e-05
9.97946e-05
9.97906e-05
9.97939e-05
9.979e-05
8.28873e-05
8.29662e-05
9.98185e-05
9.9791e-05
9.98179e-05
9.97904e-05
9.98044e-05
9.98242e-05
9.98039e-05
8.2888e-05
8.2968e-05
9.98164e-05
9.9827e-05
9.98158e-05
8.29609e-05
8.28821e-05
8.29733e-05
9.97948e-05
9.97906e-05
9.97942e-05
9.979e-05
8.28793e-05
8.29697e-05
9.98186e-05
9.97911e-05
9.98182e-05
9.97904e-05
9.98045e-05
9.98241e-05
9.9804e-05
8.28806e-05
8.2972e-05
9.98164e-05
9.98271e-05
9.98158e-05
8.29704e-05
8.28828e-05
8.29757e-05
9.97949e-05
9.97905e-05
9.97944e-05
9.97899e-05
8.2879e-05
8.2973e-05
9.98187e-05
9.9791e-05
9.98181e-05
9.97902e-05
9.98047e-05
9.98239e-05
9.98041e-05
8.28812e-05
8.29748e-05
9.98164e-05
9.98271e-05
9.98158e-05
8.29809e-05
8.28862e-05
8.2974e-05
9.97958e-05
9.97906e-05
9.97944e-05
9.97897e-05
8.28828e-05
8.29719e-05
9.98188e-05
9.97909e-05
9.98181e-05
9.97902e-05
9.98045e-05
9.98234e-05
9.98039e-05
8.28849e-05
8.29729e-05
9.98163e-05
9.98269e-05
9.98156e-05
8.29805e-05
8.2885e-05
8.29767e-05
9.97949e-05
9.97901e-05
9.97941e-05
9.97888e-05
8.28823e-05
8.29738e-05
9.98188e-05
9.9791e-05
9.98182e-05
9.97903e-05
9.98045e-05
9.98232e-05
9.98039e-05
8.28842e-05
8.29736e-05
9.98161e-05
9.98269e-05
9.98155e-05
8.29799e-05
8.28869e-05
8.29794e-05
9.97961e-05
9.97888e-05
9.97957e-05
9.97877e-05
8.28837e-05
8.29766e-05
9.98189e-05
9.97909e-05
9.98184e-05
9.97903e-05
9.98046e-05
9.98227e-05
9.9804e-05
8.28842e-05
8.29758e-05
9.98162e-05
9.9827e-05
9.98156e-05
8.29812e-05
8.28913e-05
8.2977e-05
9.9797e-05
9.97879e-05
9.97966e-05
9.97869e-05
8.28883e-05
8.2974e-05
9.9819e-05
9.97908e-05
9.98185e-05
9.97902e-05
9.98046e-05
9.98227e-05
9.9804e-05
8.28871e-05
8.29749e-05
9.98163e-05
9.9827e-05
9.98157e-05
8.29791e-05
8.28914e-05
8.2974e-05
9.97978e-05
9.97872e-05
9.97973e-05
9.97863e-05
8.28891e-05
8.29688e-05
9.98192e-05
9.97908e-05
9.98186e-05
9.97901e-05
9.98045e-05
9.98227e-05
9.98039e-05
8.2888e-05
8.29723e-05
9.98162e-05
9.98269e-05
9.98156e-05
8.29748e-05
8.28883e-05
8.29742e-05
9.97983e-05
9.97867e-05
9.97977e-05
9.9786e-05
8.28846e-05
8.29674e-05
9.98193e-05
9.97907e-05
9.98187e-05
9.979e-05
9.98045e-05
9.98225e-05
9.98038e-05
8.28857e-05
8.29721e-05
9.98162e-05
9.98268e-05
9.98155e-05
8.29704e-05
8.28868e-05
8.29763e-05
9.97987e-05
9.97863e-05
9.97982e-05
9.97855e-05
8.28807e-05
8.29702e-05
9.98194e-05
9.97906e-05
9.98188e-05
9.97899e-05
9.98045e-05
9.98223e-05
9.98038e-05
8.2884e-05
8.29744e-05
9.98161e-05
9.98269e-05
9.98155e-05
8.29698e-05
8.28876e-05
8.29784e-05
9.97991e-05
9.97856e-05
9.97987e-05
9.97847e-05
8.28809e-05
8.29731e-05
9.98195e-05
9.97905e-05
9.9819e-05
9.97899e-05
9.98045e-05
9.98221e-05
9.98038e-05
8.28852e-05
8.29759e-05
9.98161e-05
9.98271e-05
9.98155e-05
8.29731e-05
8.28896e-05
8.29791e-05
9.97998e-05
9.97848e-05
9.97994e-05
9.97841e-05
8.28832e-05
8.29743e-05
9.98196e-05
9.97905e-05
9.98191e-05
9.97899e-05
9.98045e-05
9.9822e-05
9.98039e-05
8.2887e-05
8.2976e-05
9.98161e-05
9.98272e-05
9.98155e-05
8.29769e-05
8.2891e-05
8.29787e-05
9.98003e-05
9.97843e-05
9.98e-05
9.97836e-05
8.28852e-05
8.29739e-05
9.98197e-05
9.97905e-05
9.98192e-05
9.97899e-05
9.98045e-05
9.98219e-05
9.98039e-05
8.28876e-05
8.2976e-05
9.98162e-05
9.98272e-05
9.98156e-05
8.29802e-05
8.28913e-05
8.29784e-05
9.9801e-05
9.97839e-05
9.98005e-05
9.97832e-05
8.28857e-05
8.29732e-05
9.98198e-05
9.97905e-05
9.98193e-05
9.979e-05
9.98045e-05
9.98219e-05
9.98039e-05
8.28878e-05
8.29761e-05
9.98162e-05
9.98272e-05
9.98156e-05
8.29825e-05
8.28912e-05
8.29785e-05
9.98013e-05
9.97835e-05
9.98009e-05
9.97829e-05
8.28855e-05
8.29725e-05
9.98199e-05
9.97906e-05
9.98194e-05
9.979e-05
9.98045e-05
9.98221e-05
9.98039e-05
8.28881e-05
8.29758e-05
9.98162e-05
9.98272e-05
9.98155e-05
8.29834e-05
8.28913e-05
8.29784e-05
9.98016e-05
9.97833e-05
9.98011e-05
9.97826e-05
8.28852e-05
8.29718e-05
9.98201e-05
9.97906e-05
9.98195e-05
9.979e-05
9.98045e-05
9.98221e-05
9.98039e-05
8.28882e-05
8.29751e-05
9.98161e-05
9.98271e-05
9.98155e-05
8.29836e-05
8.28916e-05
8.2978e-05
9.98019e-05
9.97831e-05
9.98013e-05
9.97825e-05
8.28847e-05
8.29716e-05
9.98201e-05
9.97906e-05
9.98195e-05
9.979e-05
9.98045e-05
9.98219e-05
9.98039e-05
8.28876e-05
8.2975e-05
9.9816e-05
9.9827e-05
9.98154e-05
8.2984e-05
8.28913e-05
8.29779e-05
9.98021e-05
9.97831e-05
9.98016e-05
9.97825e-05
8.28843e-05
8.29717e-05
9.98202e-05
9.97906e-05
9.98196e-05
9.979e-05
9.98045e-05
9.98217e-05
9.98039e-05
8.2887e-05
8.29758e-05
9.9816e-05
9.98269e-05
9.98153e-05
8.29842e-05
8.28911e-05
8.29782e-05
9.98022e-05
9.97831e-05
9.98016e-05
9.97825e-05
8.28843e-05
8.29716e-05
9.98202e-05
9.97905e-05
9.98196e-05
9.97899e-05
9.98045e-05
9.98218e-05
9.98039e-05
8.28875e-05
8.29763e-05
9.98159e-05
9.98269e-05
9.98152e-05
8.29845e-05
8.28912e-05
8.29786e-05
9.98022e-05
9.97831e-05
9.98016e-05
9.97826e-05
8.28843e-05
8.29714e-05
9.98202e-05
9.97905e-05
9.98196e-05
9.97899e-05
9.98045e-05
9.98218e-05
9.98039e-05
8.28882e-05
8.29759e-05
9.98158e-05
9.98268e-05
9.98151e-05
8.29851e-05
8.2892e-05
8.29781e-05
9.98022e-05
9.97831e-05
9.98016e-05
9.97825e-05
8.28842e-05
8.29711e-05
9.98202e-05
9.97904e-05
9.98196e-05
9.97898e-05
9.98045e-05
9.98218e-05
9.98039e-05
8.28883e-05
8.29753e-05
9.98157e-05
9.98266e-05
9.98151e-05
8.29852e-05
8.28921e-05
8.2977e-05
9.98022e-05
9.97831e-05
9.98016e-05
9.97825e-05
8.28839e-05
8.29709e-05
9.98202e-05
9.97904e-05
9.98196e-05
9.97898e-05
9.98045e-05
9.98222e-05
9.98039e-05
8.28877e-05
8.29753e-05
9.98157e-05
9.98263e-05
9.98151e-05
8.29851e-05
8.28913e-05
8.29765e-05
9.98022e-05
9.97831e-05
9.98016e-05
9.97825e-05
8.28834e-05
8.29713e-05
9.98202e-05
9.97904e-05
9.98196e-05
9.97898e-05
9.98044e-05
9.98228e-05
9.98039e-05
8.28875e-05
8.29757e-05
9.98157e-05
9.98262e-05
9.98151e-05
8.29847e-05
8.28904e-05
8.29765e-05
9.98021e-05
9.97831e-05
9.98015e-05
9.97825e-05
8.28835e-05
8.29718e-05
9.98202e-05
9.97904e-05
9.98195e-05
9.97898e-05
9.98044e-05
9.98232e-05
9.98038e-05
8.28878e-05
8.29757e-05
9.98157e-05
9.98263e-05
9.9815e-05
8.29844e-05
8.28902e-05
8.29767e-05
9.98021e-05
9.97831e-05
9.98015e-05
9.97825e-05
8.28838e-05
8.29724e-05
9.98201e-05
9.97904e-05
9.98195e-05
9.97898e-05
9.98044e-05
9.98236e-05
9.98038e-05
8.28879e-05
8.29756e-05
9.98156e-05
9.98264e-05
9.9815e-05
8.29847e-05
8.28902e-05
8.29768e-05
9.98021e-05
9.9783e-05
9.98015e-05
9.97825e-05
8.28842e-05
8.29729e-05
9.98201e-05
9.97904e-05
9.98195e-05
9.97898e-05
9.98044e-05
9.98239e-05
9.98039e-05
8.2888e-05
8.29754e-05
9.98155e-05
9.98262e-05
9.98149e-05
8.29849e-05
8.28903e-05
8.29767e-05
9.98021e-05
9.9783e-05
9.98015e-05
9.97825e-05
8.28849e-05
8.29733e-05
9.98202e-05
9.97905e-05
9.98196e-05
9.97899e-05
9.98044e-05
9.98242e-05
9.98038e-05
8.28878e-05
8.29756e-05
9.98155e-05
9.98261e-05
9.98149e-05
8.29846e-05
8.28901e-05
8.29767e-05
9.98021e-05
9.97831e-05
9.98015e-05
9.97825e-05
8.28855e-05
8.29732e-05
9.98202e-05
9.97905e-05
9.98196e-05
9.97899e-05
9.98044e-05
9.98245e-05
9.98038e-05
8.28879e-05
8.29755e-05
9.98155e-05
9.98261e-05
9.98149e-05
8.29843e-05
8.28898e-05
8.29771e-05
9.98021e-05
9.97831e-05
9.98015e-05
9.97826e-05
8.28857e-05
8.2973e-05
9.98202e-05
9.97904e-05
9.98195e-05
9.97898e-05
9.98044e-05
9.98247e-05
9.98038e-05
8.28878e-05
8.29756e-05
9.98155e-05
9.98261e-05
9.98148e-05
8.29841e-05
8.28899e-05
8.29777e-05
9.98021e-05
9.97832e-05
9.98015e-05
9.97826e-05
8.28857e-05
8.29729e-05
9.98202e-05
9.97904e-05
9.98196e-05
9.97898e-05
9.98044e-05
9.98247e-05
9.98037e-05
8.28878e-05
8.29759e-05
9.98155e-05
9.9826e-05
9.98148e-05
8.29836e-05
8.28903e-05
8.29782e-05
9.98021e-05
9.97832e-05
9.98015e-05
9.97826e-05
8.28859e-05
8.29725e-05
9.98202e-05
9.97904e-05
9.98196e-05
9.97898e-05
9.98044e-05
9.98247e-05
9.98037e-05
8.28884e-05
8.29753e-05
9.98154e-05
9.98257e-05
9.98148e-05
8.29832e-05
8.28909e-05
8.29783e-05
9.98021e-05
9.97832e-05
9.98015e-05
9.97826e-05
8.28857e-05
8.29719e-05
9.98202e-05
9.97904e-05
9.98196e-05
9.97898e-05
9.98043e-05
9.98247e-05
9.98037e-05
8.28883e-05
8.29745e-05
9.98154e-05
9.98257e-05
9.98148e-05
8.29834e-05
8.28914e-05
8.2978e-05
9.98021e-05
9.97832e-05
9.98015e-05
9.97826e-05
8.2885e-05
8.29721e-05
9.98202e-05
9.97904e-05
9.98196e-05
9.97898e-05
9.98043e-05
9.98247e-05
9.98037e-05
8.28874e-05
8.29745e-05
9.98154e-05
9.9826e-05
9.98148e-05
8.29842e-05
8.28914e-05
8.29775e-05
9.98021e-05
9.97832e-05
9.98015e-05
9.97826e-05
8.28849e-05
8.29723e-05
9.98202e-05
9.97904e-05
9.98195e-05
9.97898e-05
9.98043e-05
9.98248e-05
9.98038e-05
8.28871e-05
8.29748e-05
9.98154e-05
9.98262e-05
9.98149e-05
8.29844e-05
8.28912e-05
8.29772e-05
9.98022e-05
9.97833e-05
9.98015e-05
9.97827e-05
8.2885e-05
8.29722e-05
9.98202e-05
9.97905e-05
9.98196e-05
9.97899e-05
9.98044e-05
9.98249e-05
9.98038e-05
8.28871e-05
8.29751e-05
9.98155e-05
9.98263e-05
9.98149e-05
8.29838e-05
8.28908e-05
8.29772e-05
9.98021e-05
9.97833e-05
9.98015e-05
9.97827e-05
8.28849e-05
8.29725e-05
9.98202e-05
9.97905e-05
9.98196e-05
9.97898e-05
9.98044e-05
9.9825e-05
9.98037e-05
8.28872e-05
8.29753e-05
9.98155e-05
9.98264e-05
9.98149e-05
8.29834e-05
8.28906e-05
8.29771e-05
9.98021e-05
9.97833e-05
9.98015e-05
9.97827e-05
8.28849e-05
8.29731e-05
9.98201e-05
9.97904e-05
9.98195e-05
9.97898e-05
9.98044e-05
9.98249e-05
9.98038e-05
8.28873e-05
8.29757e-05
9.98155e-05
9.98261e-05
9.98149e-05
8.29843e-05
8.28906e-05
8.29771e-05
9.98021e-05
9.97833e-05
9.98014e-05
9.97826e-05
8.28855e-05
8.29731e-05
9.98201e-05
9.97904e-05
9.98195e-05
9.97898e-05
9.98044e-05
9.98247e-05
9.98038e-05
8.28877e-05
8.29758e-05
9.98155e-05
9.9826e-05
9.98149e-05
8.29856e-05
8.28905e-05
8.29772e-05
9.9802e-05
9.97832e-05
9.98014e-05
9.97826e-05
8.28858e-05
8.29726e-05
9.98201e-05
9.97904e-05
9.98194e-05
9.97898e-05
9.98044e-05
9.98242e-05
9.98038e-05
8.28882e-05
8.29754e-05
9.98156e-05
9.98262e-05
9.98149e-05
8.29859e-05
8.28905e-05
8.29772e-05
9.9802e-05
9.97832e-05
9.98014e-05
9.97826e-05
8.28857e-05
8.29721e-05
9.98201e-05
9.97904e-05
9.98194e-05
9.97897e-05
9.98044e-05
9.98241e-05
9.98038e-05
8.2888e-05
8.2975e-05
9.98156e-05
9.98262e-05
9.98149e-05
8.29855e-05
8.28904e-05
8.29774e-05
9.98021e-05
9.97832e-05
9.98014e-05
9.97826e-05
8.28852e-05
8.2972e-05
9.98201e-05
9.97903e-05
9.98195e-05
9.97897e-05
9.98044e-05
9.9824e-05
9.98038e-05
8.28875e-05
8.2975e-05
9.98155e-05
9.98259e-05
9.98148e-05
8.29852e-05
8.28906e-05
8.29778e-05
9.98022e-05
9.97833e-05
9.98016e-05
9.97826e-05
8.28849e-05
8.29719e-05
9.98201e-05
9.97904e-05
9.98196e-05
9.97898e-05
9.98044e-05
9.98242e-05
9.98038e-05
8.28875e-05
8.2975e-05
9.98155e-05
9.9826e-05
9.98148e-05
8.29849e-05
8.28909e-05
8.29777e-05
9.98024e-05
9.97834e-05
9.98018e-05
9.97829e-05
8.28846e-05
8.29723e-05
9.98204e-05
9.97906e-05
9.98198e-05
9.979e-05
9.98044e-05
9.98242e-05
9.98038e-05
8.28876e-05
8.29748e-05
9.98154e-05
9.98265e-05
9.98148e-05
8.29844e-05
8.28912e-05
8.29774e-05
9.98025e-05
9.97836e-05
9.98018e-05
9.9783e-05
8.28845e-05
8.29732e-05
9.98205e-05
9.97908e-05
9.98199e-05
9.97901e-05
9.98043e-05
9.98242e-05
9.98038e-05
8.28873e-05
8.29749e-05
9.98153e-05
9.98266e-05
9.98148e-05
8.29836e-05
8.28909e-05
8.29772e-05
9.98025e-05
9.97837e-05
9.98017e-05
9.97829e-05
8.28854e-05
8.29732e-05
9.98205e-05
9.97908e-05
9.98197e-05
9.979e-05
9.98042e-05
9.98244e-05
9.98038e-05
8.28869e-05
8.29759e-05
9.98152e-05
9.98266e-05
9.98148e-05
8.29828e-05
8.28906e-05
8.29774e-05
9.98023e-05
9.97835e-05
9.98015e-05
9.97827e-05
8.28859e-05
8.29727e-05
9.98203e-05
9.97906e-05
9.98195e-05
9.97898e-05
9.98042e-05
9.98249e-05
9.98038e-05
8.28877e-05
8.29759e-05
9.98152e-05
9.98263e-05
9.98148e-05
8.2983e-05
8.28906e-05
8.29776e-05
9.98016e-05
9.97827e-05
9.98009e-05
9.9782e-05
8.28855e-05
8.2973e-05
9.98195e-05
9.97899e-05
9.98189e-05
9.97892e-05
9.98036e-05
9.98252e-05
9.98032e-05
8.28882e-05
8.29754e-05
9.98145e-05
9.98262e-05
9.98142e-05
8.2984e-05
8.28908e-05
8.29777e-05
9.9801e-05
9.97822e-05
9.98005e-05
9.97816e-05
8.28857e-05
8.29729e-05
9.9819e-05
9.97893e-05
9.98185e-05
9.97888e-05
9.98032e-05
9.98259e-05
9.98027e-05
8.28879e-05
8.29754e-05
9.98142e-05
9.9827e-05
9.98137e-05
8.29848e-05
8.28911e-05
8.29777e-05
9.98008e-05
9.97819e-05
9.98009e-05
9.97821e-05
8.2886e-05
8.29725e-05
9.98188e-05
9.97891e-05
9.9819e-05
9.97892e-05
9.98027e-05
9.98274e-05
9.98031e-05
8.28878e-05
8.29758e-05
9.98137e-05
9.98285e-05
9.9814e-05
8.29855e-05
8.28914e-05
8.29778e-05
9.98013e-05
9.97826e-05
9.98026e-05
9.97838e-05
8.28857e-05
8.29727e-05
9.98194e-05
9.97896e-05
9.98206e-05
9.97909e-05
9.98034e-05
9.98295e-05
9.98047e-05
8.28883e-05
8.29762e-05
9.98143e-05
9.98307e-05
9.98157e-05
8.2986e-05
8.28916e-05
8.29787e-05
9.98033e-05
9.97845e-05
9.98057e-05
9.97869e-05
8.28855e-05
8.29742e-05
9.98214e-05
9.97916e-05
9.98238e-05
9.9794e-05
9.98052e-05
9.98326e-05
9.98079e-05
8.28889e-05
8.29768e-05
9.98162e-05
9.98337e-05
9.98188e-05
8.29862e-05
8.28924e-05
8.298e-05
9.98067e-05
9.9788e-05
9.98106e-05
9.97918e-05
8.28864e-05
8.29763e-05
9.98248e-05
9.97951e-05
9.98287e-05
9.97989e-05
9.98087e-05
9.9837e-05
9.98128e-05
8.28897e-05
8.29778e-05
9.98196e-05
9.98381e-05
9.98237e-05
8.29872e-05
8.28938e-05
8.29821e-05
9.9812e-05
9.97932e-05
9.98177e-05
9.97989e-05
8.28886e-05
8.29787e-05
9.983e-05
9.98003e-05
9.98357e-05
9.98059e-05
9.9814e-05
9.98437e-05
9.98198e-05
8.28906e-05
8.298e-05
9.98248e-05
9.98448e-05
9.98307e-05
8.299e-05
8.28962e-05
8.29856e-05
9.98194e-05
9.98006e-05
9.98278e-05
9.98091e-05
8.28916e-05
8.29817e-05
9.98375e-05
9.98077e-05
9.98458e-05
9.98161e-05
9.98215e-05
9.98538e-05
9.983e-05
8.28928e-05
8.29842e-05
9.98324e-05
9.98549e-05
9.98407e-05
8.29944e-05
8.28999e-05
8.29912e-05
9.98308e-05
9.98121e-05
9.98442e-05
9.98252e-05
8.28952e-05
8.29869e-05
9.98489e-05
9.98191e-05
9.98621e-05
9.98323e-05
9.98329e-05
9.98689e-05
9.98461e-05
8.28971e-05
8.29901e-05
9.98436e-05
9.98698e-05
9.98568e-05
8.3001e-05
8.29056e-05
8.29998e-05
9.98492e-05
9.98301e-05
9.9869e-05
9.9847e-05
8.29006e-05
8.29952e-05
9.9867e-05
9.98369e-05
9.9884e-05
9.98541e-05
9.98509e-05
9.98904e-05
9.98691e-05
8.29034e-05
8.29978e-05
9.98618e-05
9.98905e-05
9.98782e-05
8.30111e-05
8.29142e-05
8.3019e-05
9.98912e-05
9.98717e-05
9.98987e-05
9.98803e-05
8.29088e-05
8.30141e-05
9.99084e-05
9.98785e-05
9.99172e-05
9.98872e-05
9.98911e-05
9.99234e-05
9.98984e-05
8.29119e-05
8.3017e-05
9.9904e-05
9.99253e-05
9.99128e-05
8.30371e-05
8.2942e-05
8.42847e-05
0.000100046
0.000100029
0.00010241
0.000102394
8.29357e-05
8.42795e-05
0.000100065
0.000100036
0.000102423
0.0001024
0.000100047
0.000102428
0.00010241
8.29388e-05
8.42828e-05
0.000100061
0.000102431
0.000102419
8.42724e-05
8.49526e-05
0.000103405
0.000103389
8.49475e-05
0.000103417
0.000103395
0.000141204
0.000141206
0.000141205
0.000103405
8.49502e-05
0.000103412
0.000234728
0.000234779
0.000234733
0.000234733
0.00023511
0.000234806
0.000234702
0.000234742
0.000235111
0.000234806
0.000234742
0.000234702
0.00023486
0.000233567
0.000233568
0.000104653
3.87592e-05
0.000129427
3.98337e-05
2.16907e-05
2.28364e-05
0.000104616
3.87552e-05
0.000129459
3.98304e-05
0.000233969
0.000233969
0.000233969
0.000232942
0.000232942
0.000232942
0.000232942
0.000206249
9.37595e-05
0.000233996
0.000231746
0.000222768
8.7246e-05
0.000233595
2.169e-05
2.28357e-05
0.000206248
0.000233996
9.37584e-05
0.000231746
0.000222768
0.000233595
8.72499e-05
4.78437e-05
4.78344e-05
0.000231405
4.39777e-05
4.3962e-05
7.25111e-05
4.24337e-05
8.13312e-05
4.37607e-05
2.47751e-05
2.54624e-05
7.2497e-05
4.24287e-05
8.13401e-05
4.37571e-05
0.000232529
0.000232529