/*--------------------------------*- C++ -*----------------------------------*\
| =========                 |                                                 |
| \\      /  F ield         | OpenFOAM: The Open Source CFD Toolbox           |
|  \\    /   O peration     | Version:                                        |
|   \\  /    A nd           | Website:  www.openfoam.com                      |
|    \\/     M anipulation  |                                                 |
\*---------------------------------------------------------------------------*/
FoamFile
{
    version     2.0;
    format      ascii;
    class       volScalarField;
    location    "100";
    object      p;
}
// * * * * * * * * * * * * * * * * * * * * * * * * * * * * * * * * * * * * * //

dimensions      [0 2 -2 0 0 0 0];


internalField   nonuniform List<scalar> 
172512
(
0.00359547
0.00359591
0.00359591
0.00359583
0.0035371
0.00353742
0.00353742
0.00354023
0.00348578
0.00348579
0.00348579
0.00348855
0.00343353
0.00343353
0.00343353
0.00343625
0.00338216
0.00338217
0.00338217
0.00338487
0.00333219
0.0033322
0.0033322
0.00333486
0.00328366
0.00328368
0.00328368
0.0032863
0.00323642
0.00323646
0.00323646
0.00323905
0.00319029
0.00319033
0.00319033
0.00319288
0.00314505
0.00314509
0.00314509
0.00314762
0.00310054
0.00310058
0.00310058
0.00310308
0.00305662
0.00305666
0.00305666
0.00305914
0.00301323
0.00301326
0.00301326
0.00301571
0.0029703
0.00297033
0.00297033
0.00297278
0.0029278
0.00292782
0.00292782
0.00293027
0.00288571
0.00288573
0.00288573
0.00288816
0.00284401
0.00284402
0.00284402
0.00284645
0.00280268
0.00280269
0.00280269
0.0028051
0.00276174
0.00276173
0.00276173
0.00276413
0.00272126
0.00272124
0.00272124
0.00272361
0.0026816
0.00268152
0.00268152
0.00268386
0.00264291
0.00264281
0.00264281
0.00264508
0.00260522
0.00260512
0.00260512
0.00260734
0.00256829
0.00256821
0.00256821
0.00257038
0.00253179
0.00253172
0.00253172
0.00253388
0.0024955
0.00249542
0.00249542
0.00249757
0.00245928
0.00245921
0.00245921
0.00246135
0.00242308
0.00242301
0.00242301
0.00242515
0.00238688
0.00238681
0.00238681
0.00238895
0.00235068
0.00235061
0.00235061
0.00235275
0.00231448
0.00231441
0.00231441
0.00231655
0.00227828
0.00227821
0.00227821
0.00228035
0.00224207
0.00224201
0.00224201
0.00224415
0.00220587
0.0022058
0.00220581
0.00220795
0.00216967
0.0021696
0.0021696
0.00217174
0.00213347
0.0021334
0.0021334
0.00213554
0.00209726
0.0020972
0.0020972
0.00209934
0.00206106
0.002061
0.002061
0.00206314
0.00202487
0.0020248
0.0020248
0.00202694
0.00198867
0.0019886
0.0019886
0.00199074
0.00195247
0.0019524
0.0019524
0.00195454
0.00191627
0.0019162
0.0019162
0.00191835
0.00188007
0.00188001
0.00188001
0.00188215
0.00184387
0.0018438
0.0018438
0.00184595
0.00180767
0.0018076
0.0018076
0.00180974
0.00177147
0.0017714
0.0017714
0.00177354
0.00173527
0.0017352
0.0017352
0.00173734
0.00169907
0.001699
0.001699
0.00170114
0.00166287
0.0016628
0.0016628
0.00166494
0.00162667
0.0016266
0.0016266
0.00162874
0.00159047
0.0015904
0.0015904
0.00159254
0.00155427
0.0015542
0.0015542
0.00155634
0.00151807
0.001518
0.001518
0.00152014
0.00148187
0.0014818
0.0014818
0.00148394
0.00144567
0.0014456
0.0014456
0.00144774
0.00140946
0.0014094
0.0014094
0.00141154
0.00137326
0.00137319
0.00137319
0.00137534
0.00133706
0.00133699
0.00133699
0.00133913
0.00130086
0.00130079
0.00130079
0.00130293
0.00126466
0.00126459
0.00126459
0.00126673
0.00122846
0.00122839
0.00122839
0.00123053
0.00119226
0.00119219
0.00119219
0.00119433
0.00115606
0.00115599
0.00115599
0.00115814
0.00111986
0.00111979
0.00111979
0.00112194
0.00108366
0.00108359
0.00108359
0.00108573
0.00104746
0.00104739
0.00104739
0.00104953
0.00101126
0.00101119
0.00101119
0.00101334
0.000975062
0.000974995
0.000974995
0.000977136
0.000938864
0.000938796
0.000938797
0.000940938
0.000902666
0.000902599
0.000902599
0.00090474
0.000866469
0.000866401
0.000866401
0.000868543
0.000830271
0.000830204
0.000830204
0.000832346
0.000794074
0.000794007
0.000794007
0.000796148
0.000757876
0.000757809
0.000757809
0.00075995
0.000721679
0.000721612
0.000721612
0.000723753
0.000685483
0.000685416
0.000685416
0.000687557
0.000649287
0.00064922
0.00064922
0.000651361
0.000613091
0.000613024
0.000613024
0.000615165
0.000576895
0.000576828
0.000576828
0.00057897
0.000540699
0.000540632
0.000540632
0.000542773
0.000504502
0.000504435
0.000504435
0.000506576
0.000468304
0.000468237
0.000468237
0.000470379
0.000432107
0.00043204
0.00043204
0.000434181
0.000395908
0.000395841
0.000395842
0.000397983
0.00035971
0.000359644
0.000359644
0.000361785
0.000323513
0.000323447
0.000323447
0.000325588
0.000287314
0.000287248
0.000287248
0.000289388
0.000251114
0.00025105
0.00025105
0.00025319
0.000214911
0.000214849
0.000214849
0.000216988
0.000178699
0.000178643
0.000178643
0.000180782
0.000142476
0.000142428
0.000142428
0.000144567
0.000106229
0.000106195
0.000106195
0.000108336
6.9978e-05
6.99363e-05
6.9936e-05
7.20825e-05
3.43815e-05
3.41768e-05
3.41724e-05
3.60315e-05
6.03618e-06
5.62202e-06
5.61937e-06
4.69371e-06
0.00360564
0.00360469
0.00360469
0.00360563
0.00360469
0.00360469
0.00360359
0.00360359
0.00360359
0.00360359
0.00360469
0.00360469
0.00360564
0.00360469
0.00360469
0.00360563
0.00359583
0.00354667
0.00359591
0.00359591
0.00354881
0.00354881
0.00359583
0.00354667
0.00359591
0.00359591
0.00354881
0.00354881
0.00359591
0.00354881
0.00354881
0.00359583
0.00354667
0.00359591
0.00354881
0.00354881
0.00354667
0.00354023
0.00349562
0.00353742
0.00353742
0.00349899
0.00349899
0.00354023
0.00349562
0.00353742
0.00353742
0.00349899
0.00349899
0.00353742
0.00349899
0.00349899
0.00354023
0.00349562
0.00353742
0.00349899
0.00349899
0.00349562
0.00348855
0.00344324
0.00348579
0.00348579
0.00344652
0.00344652
0.00348854
0.00344324
0.00348579
0.00348579
0.00344652
0.00344652
0.00348579
0.00344652
0.00344652
0.00348855
0.00344324
0.00348579
0.00344652
0.00344652
0.00344324
0.00343625
0.00339168
0.00343353
0.00343353
0.00339489
0.00339489
0.00343625
0.00339168
0.00343353
0.00343353
0.00339489
0.00339489
0.00343353
0.00339489
0.00339489
0.00343625
0.00339168
0.00343353
0.00339489
0.00339489
0.00339168
0.00338487
0.00334146
0.00338217
0.00338217
0.00334456
0.00334456
0.00338487
0.00334146
0.00338217
0.00338217
0.00334455
0.00334456
0.00338217
0.00334456
0.00334456
0.00338487
0.00334146
0.00338217
0.00334455
0.00334456
0.00334146
0.00333486
0.0032927
0.0033322
0.00333221
0.00329569
0.00329569
0.00333486
0.0032927
0.0033322
0.0033322
0.00329569
0.00329569
0.0033322
0.00329569
0.00329569
0.00333486
0.0032927
0.0033322
0.00329568
0.00329569
0.0032927
0.0032863
0.00324527
0.00328368
0.00328369
0.00324815
0.00324815
0.0032863
0.00324526
0.00328368
0.00328368
0.00324816
0.00324815
0.00328369
0.00324816
0.00324816
0.0032863
0.00324526
0.00328369
0.00324817
0.00324816
0.00324526
0.00323905
0.00319896
0.00323645
0.00323645
0.00320177
0.00320177
0.00323905
0.00319895
0.00323646
0.00323645
0.00320177
0.00320176
0.00323646
0.00320177
0.00320177
0.00323904
0.00319895
0.00323646
0.00320177
0.00320177
0.00319896
0.00319288
0.00315357
0.00319033
0.00319033
0.00315633
0.00315633
0.00319288
0.00315357
0.00319033
0.00319032
0.00315633
0.00315633
0.00319033
0.00315633
0.00315633
0.00319288
0.00315357
0.00319033
0.00315633
0.00315633
0.00315357
0.00314762
0.00310894
0.00314509
0.00314509
0.00311165
0.00311165
0.00314762
0.00310893
0.00314509
0.00314509
0.00311165
0.00311165
0.00314509
0.00311165
0.00311165
0.00314762
0.00310894
0.00314509
0.00311165
0.00311165
0.00310894
0.00310308
0.00306491
0.00310058
0.00310058
0.00306759
0.00306759
0.00310308
0.00306491
0.00310058
0.00310058
0.00306759
0.00306759
0.00310058
0.00306759
0.00306759
0.00310308
0.00306491
0.00310058
0.00306759
0.00306759
0.00306491
0.00305914
0.00302141
0.00305666
0.00305666
0.00302407
0.00302407
0.00305914
0.00302141
0.00305666
0.00305666
0.00302407
0.00302407
0.00305666
0.00302407
0.00302407
0.00305914
0.00302141
0.00305666
0.00302407
0.00302407
0.00302141
0.00301571
0.0029784
0.00301326
0.00301326
0.00298102
0.00298102
0.00301571
0.00297841
0.00301326
0.00301326
0.00298102
0.00298102
0.00301326
0.00298102
0.00298102
0.00301571
0.00297841
0.00301326
0.00298102
0.00298102
0.0029784
0.00297277
0.00293584
0.00297033
0.00297033
0.00293841
0.00293841
0.00297278
0.00293584
0.00297033
0.00297033
0.00293841
0.00293842
0.00297033
0.00293841
0.00293841
0.00297278
0.00293584
0.00297033
0.00293841
0.00293841
0.00293584
0.00293027
0.00289368
0.00292784
0.00292782
0.00289622
0.00289621
0.00293027
0.00289368
0.00292783
0.00292783
0.00289621
0.00289621
0.00292784
0.00289621
0.00289622
0.00293027
0.00289368
0.00292783
0.00289621
0.00289621
0.00289368
0.00288816
0.00285192
0.00288573
0.00288573
0.00285441
0.00285441
0.00288816
0.00285192
0.00288573
0.00288573
0.00285441
0.00285441
0.00288573
0.00285441
0.00285441
0.00288816
0.00285192
0.00288573
0.00285441
0.00285441
0.00285192
0.00284645
0.00281052
0.00284402
0.00284402
0.00281299
0.00281299
0.00284645
0.00281053
0.00284402
0.00284402
0.00281299
0.00281299
0.00284402
0.00281299
0.00281299
0.00284645
0.00281052
0.00284402
0.00281299
0.00281299
0.00281052
0.0028051
0.00276951
0.00280269
0.00280269
0.00277193
0.00277193
0.0028051
0.00276951
0.00280269
0.00280269
0.00277193
0.00277193
0.00280269
0.00277193
0.00277193
0.0028051
0.00276951
0.00280269
0.00277193
0.00277193
0.00276951
0.00276413
0.00272891
0.00276173
0.00276173
0.0027313
0.0027313
0.00276413
0.00272891
0.00276173
0.00276173
0.0027313
0.0027313
0.00276173
0.0027313
0.0027313
0.00276413
0.00272891
0.00276173
0.0027313
0.0027313
0.00272891
0.00272361
0.00268906
0.00272124
0.00272124
0.00269137
0.00269136
0.00272361
0.00268905
0.00272124
0.00272124
0.00269137
0.00269137
0.00272124
0.00269136
0.00269137
0.00272361
0.00268905
0.00272124
0.00269137
0.00269136
0.00268905
0.00268386
0.00265013
0.00268152
0.00268152
0.00265238
0.00265238
0.00268386
0.00265013
0.00268152
0.00268152
0.00265238
0.00265238
0.00268152
0.00265238
0.00265238
0.00268386
0.00265013
0.00268152
0.00265238
0.00265238
0.00265013
0.00264508
0.00261226
0.00264281
0.00264281
0.00261446
0.00261446
0.00264508
0.00261227
0.00264281
0.00264281
0.00261446
0.00261446
0.00264281
0.00261446
0.00261446
0.00264508
0.00261227
0.00264281
0.00261446
0.00261446
0.00261227
0.00260734
0.00257523
0.00260512
0.00260512
0.00257739
0.00257739
0.00260734
0.00257523
0.00260512
0.00260512
0.00257739
0.00257739
0.00260512
0.00257739
0.00257739
0.00260734
0.00257523
0.00260512
0.00257739
0.00257739
0.00257523
0.00257038
0.00253868
0.00256821
0.00256821
0.00254082
0.00254082
0.00257038
0.00253868
0.00256821
0.00256821
0.00254082
0.00254082
0.00256821
0.00254082
0.00254082
0.00257038
0.00253868
0.00256821
0.00254082
0.00254082
0.00253868
0.00253388
0.00250236
0.00253172
0.00253172
0.00250449
0.00250449
0.00253388
0.00250236
0.00253172
0.00253172
0.00250449
0.00250449
0.00253172
0.00250449
0.00250449
0.00253388
0.00250236
0.00253172
0.00250449
0.00250449
0.00250236
0.00249757
0.00246613
0.00249542
0.00249542
0.00246826
0.00246826
0.00249757
0.00246613
0.00249542
0.00249542
0.00246826
0.00246826
0.00249542
0.00246826
0.00246826
0.00249757
0.00246613
0.00249542
0.00246826
0.00246826
0.00246613
0.00246135
0.00242993
0.00245921
0.00245921
0.00243206
0.00243206
0.00246135
0.00242993
0.00245921
0.00245921
0.00243206
0.00243206
0.00245921
0.00243206
0.00243206
0.00246135
0.00242993
0.00245921
0.00243206
0.00243206
0.00242993
0.00242515
0.00239373
0.00242301
0.00242301
0.00239586
0.00239586
0.00242515
0.00239373
0.00242301
0.00242301
0.00239586
0.00239586
0.00242301
0.00239586
0.00239586
0.00242515
0.00239373
0.00242301
0.00239586
0.00239586
0.00239373
0.00238895
0.00235753
0.00238681
0.00238681
0.00235966
0.00235966
0.00238895
0.00235753
0.00238681
0.00238681
0.00235966
0.00235966
0.00238681
0.00235966
0.00235966
0.00238895
0.00235753
0.00238681
0.00235966
0.00235966
0.00235753
0.00235275
0.00232133
0.00235061
0.00235061
0.00232346
0.00232346
0.00235275
0.00232133
0.00235061
0.00235061
0.00232346
0.00232346
0.00235061
0.00232346
0.00232346
0.00235275
0.00232133
0.00235061
0.00232346
0.00232346
0.00232133
0.00231655
0.00228513
0.00231441
0.00231441
0.00228726
0.00228726
0.00231655
0.00228513
0.00231441
0.00231441
0.00228726
0.00228726
0.00231441
0.00228726
0.00228726
0.00231655
0.00228513
0.00231441
0.00228726
0.00228726
0.00228513
0.00228035
0.00224893
0.00227821
0.00227821
0.00225106
0.00225106
0.00228035
0.00224893
0.00227821
0.00227821
0.00225106
0.00225106
0.00227821
0.00225106
0.00225106
0.00228035
0.00224893
0.00227821
0.00225106
0.00225106
0.00224893
0.00224415
0.00221273
0.00224201
0.00224201
0.00221486
0.00221486
0.00224415
0.00221273
0.00224201
0.00224201
0.00221486
0.00221486
0.00224201
0.00221486
0.00221486
0.00224415
0.00221273
0.00224201
0.00221486
0.00221486
0.00221273
0.00220795
0.00217653
0.0022058
0.0022058
0.00217865
0.00217865
0.00220795
0.00217653
0.0022058
0.0022058
0.00217865
0.00217865
0.00220581
0.00217865
0.00217865
0.00220795
0.00217653
0.0022058
0.00217865
0.00217865
0.00217653
0.00217174
0.00214032
0.0021696
0.0021696
0.00214245
0.00214245
0.00217174
0.00214032
0.0021696
0.0021696
0.00214245
0.00214245
0.0021696
0.00214245
0.00214245
0.00217174
0.00214032
0.0021696
0.00214245
0.00214245
0.00214032
0.00213554
0.00210412
0.0021334
0.0021334
0.00210625
0.00210625
0.00213554
0.00210412
0.0021334
0.0021334
0.00210625
0.00210625
0.0021334
0.00210625
0.00210625
0.00213554
0.00210412
0.0021334
0.00210625
0.00210625
0.00210412
0.00209934
0.00206792
0.0020972
0.0020972
0.00207005
0.00207005
0.00209934
0.00206792
0.0020972
0.0020972
0.00207005
0.00207005
0.0020972
0.00207005
0.00207005
0.00209934
0.00206792
0.0020972
0.00207005
0.00207005
0.00206792
0.00206314
0.00203172
0.002061
0.002061
0.00203385
0.00203385
0.00206314
0.00203172
0.002061
0.002061
0.00203385
0.00203385
0.002061
0.00203385
0.00203385
0.00206314
0.00203172
0.002061
0.00203385
0.00203385
0.00203172
0.00202694
0.00199552
0.0020248
0.0020248
0.00199765
0.00199765
0.00202694
0.00199552
0.0020248
0.0020248
0.00199765
0.00199765
0.0020248
0.00199765
0.00199765
0.00202694
0.00199552
0.0020248
0.00199765
0.00199765
0.00199552
0.00199074
0.00195933
0.0019886
0.0019886
0.00196145
0.00196145
0.00199074
0.00195933
0.0019886
0.0019886
0.00196145
0.00196145
0.0019886
0.00196145
0.00196145
0.00199074
0.00195933
0.0019886
0.00196145
0.00196145
0.00195933
0.00195454
0.00192313
0.0019524
0.0019524
0.00192525
0.00192525
0.00195454
0.00192313
0.0019524
0.0019524
0.00192525
0.00192525
0.0019524
0.00192525
0.00192525
0.00195454
0.00192313
0.0019524
0.00192525
0.00192525
0.00192313
0.00191835
0.00188693
0.0019162
0.0019162
0.00188906
0.00188906
0.00191835
0.00188693
0.0019162
0.0019162
0.00188905
0.00188906
0.00191621
0.00188906
0.00188906
0.00191835
0.00188693
0.0019162
0.00188906
0.00188906
0.00188693
0.00188215
0.00185073
0.00188001
0.00188001
0.00185285
0.00185285
0.00188215
0.00185073
0.00188
0.00188001
0.00185285
0.00185285
0.00188001
0.00185285
0.00185286
0.00188215
0.00185073
0.00188001
0.00185285
0.00185285
0.00185073
0.00184595
0.00181453
0.0018438
0.0018438
0.00181665
0.00181665
0.00184595
0.00181453
0.0018438
0.0018438
0.00181665
0.00181665
0.0018438
0.00181665
0.00181665
0.00184595
0.00181453
0.0018438
0.00181665
0.00181665
0.00181453
0.00180974
0.00177833
0.0018076
0.0018076
0.00178045
0.00178045
0.00180974
0.00177833
0.0018076
0.0018076
0.00178045
0.00178045
0.0018076
0.00178045
0.00178045
0.00180974
0.00177833
0.0018076
0.00178045
0.00178045
0.00177832
0.00177354
0.00174212
0.0017714
0.0017714
0.00174425
0.00174425
0.00177354
0.00174212
0.0017714
0.0017714
0.00174425
0.00174425
0.0017714
0.00174425
0.00174425
0.00177354
0.00174212
0.0017714
0.00174425
0.00174425
0.00174212
0.00173734
0.00170592
0.0017352
0.0017352
0.00170805
0.00170805
0.00173734
0.00170592
0.0017352
0.0017352
0.00170805
0.00170805
0.0017352
0.00170805
0.00170805
0.00173734
0.00170592
0.0017352
0.00170805
0.00170805
0.00170592
0.00170114
0.00166972
0.001699
0.001699
0.00167185
0.00167185
0.00170114
0.00166972
0.001699
0.001699
0.00167185
0.00167185
0.001699
0.00167185
0.00167185
0.00170114
0.00166972
0.001699
0.00167185
0.00167185
0.00166972
0.00166494
0.00163352
0.0016628
0.0016628
0.00163565
0.00163565
0.00166494
0.00163352
0.0016628
0.0016628
0.00163565
0.00163565
0.0016628
0.00163565
0.00163565
0.00166494
0.00163352
0.0016628
0.00163565
0.00163565
0.00163352
0.00162874
0.00159732
0.0016266
0.0016266
0.00159945
0.00159945
0.00162874
0.00159732
0.0016266
0.0016266
0.00159945
0.00159945
0.0016266
0.00159945
0.00159945
0.00162874
0.00159732
0.0016266
0.00159945
0.00159945
0.00159732
0.00159254
0.00156112
0.0015904
0.0015904
0.00156325
0.00156325
0.00159254
0.00156112
0.0015904
0.0015904
0.00156325
0.00156325
0.0015904
0.00156325
0.00156325
0.00159254
0.00156112
0.0015904
0.00156325
0.00156325
0.00156112
0.00155634
0.00152492
0.0015542
0.0015542
0.00152705
0.00152705
0.00155634
0.00152492
0.0015542
0.0015542
0.00152705
0.00152705
0.0015542
0.00152705
0.00152705
0.00155634
0.00152492
0.0015542
0.00152705
0.00152705
0.00152492
0.00152014
0.00148872
0.001518
0.001518
0.00149085
0.00149085
0.00152014
0.00148872
0.001518
0.001518
0.00149085
0.00149085
0.001518
0.00149085
0.00149085
0.00152014
0.00148872
0.001518
0.00149085
0.00149085
0.00148872
0.00148394
0.00145252
0.0014818
0.0014818
0.00145465
0.00145465
0.00148394
0.00145252
0.0014818
0.0014818
0.00145465
0.00145465
0.0014818
0.00145465
0.00145465
0.00148394
0.00145252
0.0014818
0.00145465
0.00145465
0.00145252
0.00144774
0.00141632
0.0014456
0.0014456
0.00141845
0.00141845
0.00144774
0.00141632
0.0014456
0.0014456
0.00141845
0.00141845
0.0014456
0.00141845
0.00141845
0.00144774
0.00141632
0.0014456
0.00141845
0.00141845
0.00141632
0.00141154
0.00138012
0.0014094
0.0014094
0.00138224
0.00138224
0.00141154
0.00138012
0.0014094
0.0014094
0.00138224
0.00138224
0.0014094
0.00138224
0.00138224
0.00141154
0.00138012
0.0014094
0.00138224
0.00138224
0.00138012
0.00137534
0.00134392
0.00137319
0.00137319
0.00134604
0.00134604
0.00137534
0.00134392
0.00137319
0.00137319
0.00134604
0.00134604
0.00137319
0.00134604
0.00134604
0.00137534
0.00134392
0.00137319
0.00134604
0.00134604
0.00134392
0.00133913
0.00130772
0.00133699
0.00133699
0.00130984
0.00130984
0.00133913
0.00130772
0.00133699
0.00133699
0.00130984
0.00130984
0.00133699
0.00130984
0.00130984
0.00133913
0.00130772
0.00133699
0.00130984
0.00130984
0.00130772
0.00130293
0.00127152
0.00130079
0.00130079
0.00127364
0.00127364
0.00130293
0.00127152
0.00130079
0.00130079
0.00127364
0.00127364
0.00130079
0.00127364
0.00127364
0.00130293
0.00127152
0.00130079
0.00127364
0.00127364
0.00127152
0.00126673
0.00123532
0.00126459
0.00126459
0.00123744
0.00123744
0.00126673
0.00123532
0.00126459
0.00126459
0.00123744
0.00123744
0.00126459
0.00123744
0.00123744
0.00126673
0.00123532
0.00126459
0.00123744
0.00123744
0.00123532
0.00123053
0.00119912
0.00122839
0.00122839
0.00120124
0.00120124
0.00123053
0.00119912
0.00122839
0.00122839
0.00120124
0.00120124
0.00122839
0.00120124
0.00120124
0.00123053
0.00119912
0.00122839
0.00120124
0.00120124
0.00119912
0.00119433
0.00116292
0.00119219
0.00119219
0.00116504
0.00116504
0.00119433
0.00116292
0.00119219
0.00119219
0.00116504
0.00116504
0.00119219
0.00116504
0.00116504
0.00119433
0.00116292
0.00119219
0.00116504
0.00116504
0.00116292
0.00115814
0.00112672
0.00115599
0.00115599
0.00112884
0.00112884
0.00115814
0.00112672
0.00115599
0.00115599
0.00112884
0.00112884
0.00115599
0.00112884
0.00112884
0.00115814
0.00112672
0.00115599
0.00112884
0.00112884
0.00112672
0.00112194
0.00109052
0.00111979
0.00111979
0.00109264
0.00109264
0.00112194
0.00109052
0.00111979
0.00111979
0.00109264
0.00109264
0.00111979
0.00109264
0.00109264
0.00112194
0.00109052
0.00111979
0.00109264
0.00109264
0.00109052
0.00108573
0.00105432
0.00108359
0.00108359
0.00105644
0.00105644
0.00108573
0.00105432
0.00108359
0.00108359
0.00105644
0.00105644
0.00108359
0.00105644
0.00105644
0.00108573
0.00105432
0.00108359
0.00105644
0.00105644
0.00105432
0.00104953
0.00101812
0.00104739
0.00104739
0.00102024
0.00102024
0.00104953
0.00101812
0.00104739
0.00104739
0.00102024
0.00102024
0.00104739
0.00102024
0.00102024
0.00104953
0.00101812
0.00104739
0.00102024
0.00102024
0.00101812
0.00101333
0.000981918
0.00101119
0.00101119
0.000984044
0.000984044
0.00101333
0.000981918
0.00101119
0.00101119
0.000984044
0.000984044
0.00101119
0.000984044
0.000984045
0.00101333
0.000981918
0.00101119
0.000984044
0.000984044
0.000981918
0.000977136
0.00094572
0.000974995
0.000974995
0.000947846
0.000947846
0.000977136
0.00094572
0.000974994
0.000974995
0.000947846
0.000947846
0.000974995
0.000947846
0.000947846
0.000977136
0.00094572
0.000974995
0.000947846
0.000947846
0.00094572
0.000940938
0.000909522
0.000938797
0.000938797
0.000911648
0.000911648
0.000940938
0.000909522
0.000938796
0.000938797
0.000911648
0.000911648
0.000938797
0.000911648
0.000911648
0.000940938
0.000909522
0.000938796
0.000911648
0.000911648
0.000909522
0.00090474
0.000873324
0.000902599
0.000902599
0.000875451
0.000875451
0.00090474
0.000873324
0.000902599
0.000902599
0.00087545
0.000875451
0.000902599
0.000875451
0.000875451
0.00090474
0.000873324
0.000902599
0.000875451
0.00087545
0.000873324
0.000868543
0.000837127
0.000866401
0.000866401
0.000839254
0.000839253
0.000868543
0.000837127
0.000866401
0.000866401
0.000839253
0.000839253
0.000866402
0.000839253
0.000839254
0.000868543
0.000837127
0.000866401
0.000839254
0.000839253
0.000837127
0.000832345
0.00080093
0.000830204
0.000830204
0.000803056
0.000803056
0.000832345
0.00080093
0.000830204
0.000830204
0.000803056
0.000803056
0.000830204
0.000803056
0.000803056
0.000832345
0.00080093
0.000830204
0.000803056
0.000803056
0.00080093
0.000796148
0.000764732
0.000794007
0.000794007
0.000766859
0.000766858
0.000796148
0.000764732
0.000794006
0.000794007
0.000766858
0.000766858
0.000794007
0.000766858
0.000766859
0.000796148
0.000764732
0.000794007
0.000766858
0.000766858
0.000764732
0.00075995
0.000728535
0.000757809
0.000757809
0.000730661
0.000730661
0.00075995
0.000728535
0.000757809
0.000757809
0.000730661
0.000730661
0.000757809
0.000730661
0.000730661
0.00075995
0.000728535
0.000757809
0.000730661
0.000730661
0.000728535
0.000723753
0.000692338
0.000721612
0.000721612
0.000694465
0.000694465
0.000723753
0.000692339
0.000721612
0.000721612
0.000694464
0.000694465
0.000721612
0.000694465
0.000694465
0.000723753
0.000692338
0.000721612
0.000694465
0.000694465
0.000692338
0.000687557
0.000656142
0.000685416
0.000685416
0.000658269
0.000658268
0.000687557
0.000656142
0.000685415
0.000685416
0.000658268
0.000658268
0.000685416
0.000658269
0.000658269
0.000687557
0.000656142
0.000685415
0.000658269
0.000658268
0.000656142
0.000651361
0.000619947
0.00064922
0.00064922
0.000622073
0.000622073
0.000651361
0.000619947
0.000649219
0.00064922
0.000622073
0.000622073
0.00064922
0.000622073
0.000622073
0.000651361
0.000619947
0.000649219
0.000622073
0.000622073
0.000619946
0.000615165
0.000583751
0.000613024
0.000613024
0.000585877
0.000585877
0.000615165
0.000583751
0.000613024
0.000613024
0.000585877
0.000585877
0.000613024
0.000585877
0.000585877
0.000615165
0.000583751
0.000613024
0.000585877
0.000585877
0.000583751
0.000578969
0.000547555
0.000576828
0.000576828
0.000549681
0.000549681
0.000578969
0.000547555
0.000576828
0.000576828
0.000549681
0.000549681
0.000576828
0.000549681
0.000549681
0.000578969
0.000547555
0.000576828
0.000549681
0.000549681
0.000547555
0.000542773
0.000511358
0.000540632
0.000540632
0.000513484
0.000513484
0.000542773
0.000511358
0.000540632
0.000540632
0.000513484
0.000513484
0.000540632
0.000513484
0.000513484
0.000542773
0.000511358
0.000540632
0.000513484
0.000513484
0.000511358
0.000506576
0.000475161
0.000504435
0.000504435
0.000477287
0.000477287
0.000506576
0.000475161
0.000504435
0.000504435
0.000477286
0.000477287
0.000504435
0.000477287
0.000477287
0.000506576
0.00047516
0.000504435
0.000477287
0.000477286
0.00047516
0.000470379
0.000438963
0.000468238
0.000468237
0.000441089
0.000441089
0.000470379
0.000438963
0.000468237
0.000468237
0.000441089
0.000441089
0.000468238
0.000441089
0.000441089
0.000470378
0.000438963
0.000468237
0.000441089
0.000441089
0.000438963
0.000434181
0.000402765
0.00043204
0.00043204
0.000404891
0.000404891
0.000434181
0.000402765
0.00043204
0.00043204
0.000404891
0.000404891
0.00043204
0.000404891
0.000404891
0.000434181
0.000402765
0.000432039
0.000404891
0.000404891
0.000402764
0.000397982
0.000366567
0.000395842
0.000395841
0.000368693
0.000368693
0.000397982
0.000366567
0.000395841
0.000395842
0.000368693
0.000368693
0.000395842
0.000368693
0.000368693
0.000397982
0.000366567
0.000395841
0.000368693
0.000368693
0.000366567
0.000361785
0.00033037
0.000359644
0.000359644
0.000332496
0.000332496
0.000361785
0.00033037
0.000359644
0.000359644
0.000332496
0.000332496
0.000359644
0.000332496
0.000332496
0.000361785
0.00033037
0.000359644
0.000332496
0.000332496
0.00033037
0.000325587
0.000294172
0.000323447
0.000323447
0.000296298
0.000296297
0.000325588
0.000294172
0.000323447
0.000323447
0.000296297
0.000296298
0.000323447
0.000296297
0.000296298
0.000325587
0.000294171
0.000323447
0.000296298
0.000296297
0.000294171
0.000289388
0.000257973
0.000287248
0.000287248
0.000260099
0.000260099
0.000289388
0.000257973
0.000287248
0.000287248
0.000260099
0.000260099
0.000287248
0.000260099
0.0002601
0.000289388
0.000257973
0.000287248
0.000260099
0.000260099
0.000257973
0.000253189
0.000221773
0.00025105
0.00025105
0.000223899
0.000223899
0.00025319
0.000221773
0.00025105
0.00025105
0.000223899
0.000223899
0.00025105
0.000223899
0.0002239
0.000253189
0.000221773
0.00025105
0.0002239
0.0002239
0.000221773
0.000216988
0.000185567
0.000214849
0.000214849
0.000187696
0.000187696
0.000216988
0.000185567
0.000214849
0.000214849
0.000187695
0.000187696
0.000214849
0.000187695
0.000187696
0.000216988
0.000185567
0.000214849
0.000187695
0.000187696
0.000185567
0.000180782
0.000149353
0.000178643
0.000178643
0.000151485
0.000151485
0.000180782
0.000149353
0.000178643
0.000178643
0.000151484
0.000151485
0.000178643
0.000151484
0.000151485
0.000180782
0.000149352
0.000178643
0.000151485
0.000151484
0.000149352
0.000144567
0.000113118
0.000142428
0.000142428
0.000115259
0.000115259
0.000144567
0.000113118
0.000142428
0.000142428
0.000115259
0.000115259
0.000142428
0.000115259
0.000115259
0.000144567
0.000113118
0.000142427
0.000115259
0.000115259
0.000113118
0.000108336
7.6849e-05
0.000106195
0.000106195
7.90078e-05
7.90083e-05
0.000108336
7.6849e-05
0.000106195
0.000106195
7.9008e-05
7.90073e-05
0.000106195
7.90077e-05
7.90079e-05
0.000108336
7.68489e-05
0.000106195
7.9008e-05
7.90074e-05
7.68486e-05
7.20821e-05
4.06902e-05
6.99365e-05
6.99367e-05
4.29481e-05
4.29485e-05
7.20826e-05
4.06904e-05
6.99361e-05
6.99358e-05
4.29487e-05
4.29459e-05
6.99363e-05
4.29492e-05
4.29462e-05
7.20824e-05
4.06878e-05
6.99357e-05
4.29459e-05
4.29472e-05
4.0688e-05
3.60344e-05
6.26167e-06
3.41742e-05
3.41751e-05
6.67079e-06
6.67257e-06
3.60336e-05
6.26378e-06
3.4177e-05
3.41713e-05
6.66905e-06
6.66781e-06
3.41717e-05
6.67111e-06
6.66979e-06
3.60308e-05
6.25932e-06
3.41747e-05
6.66846e-06
6.66905e-06
6.26172e-06
4.69398e-06
5.62434e-06
5.62607e-06
4.69589e-06
5.62109e-06
5.6223e-06
6.03731e-06
6.03523e-06
6.03562e-06
5.6232e-06
4.69151e-06
5.6209e-06
0.00361351
0.00362369
0.00361822
0.00361822
0.00364076
0.00362769
0.00365593
0.00362163
0.00364076
0.00362769
0.00362163
0.00365593
0.00363221
0.00365965
0.00365965
0.00356768
0.00359165
0.00359654
0.00355809
0.00356838
0.00356024
0.00356767
0.00359167
0.00359652
0.00355807
0.00359547
0.00359547
0.00359547
0.00354849
0.00354849
0.00354849
0.00354849
0.00356547
0.00359261
0.00359526
0.00357304
0.00359524
0.00356295
0.00357394
0.00356845
0.00356022
0.00356547
0.00359526
0.00359262
0.00357303
0.00359525
0.00357394
0.00356295
0.00359731
0.00359731
0.00356817
0.00356333
0.00356333
0.00352271
0.00354226
0.00354324
0.0035212
0.00354094
0.00352073
0.00352271
0.00354227
0.00354324
0.00352119
0.0035371
0.0035371
0.0035371
0.00349905
0.00349905
0.00349905
0.00349905
0.00352131
0.00354199
0.00353725
0.00352512
0.00354075
0.00352167
0.00352502
0.00354096
0.00352073
0.00352131
0.00353725
0.00354199
0.00352513
0.00354075
0.00352502
0.00352167
0.00354316
0.00354316
0.00352168
0.00352211
0.00352212
0.00347024
0.00348905
0.00349012
0.00346923
0.00348868
0.00346894
0.00347024
0.00348905
0.00349011
0.00346923
0.00348578
0.00348578
0.00348578
0.00344652
0.00344652
0.00344652
0.00344652
0.00346933
0.00348939
0.00348572
0.00347265
0.0034889
0.00346965
0.00347257
0.00348868
0.00346894
0.00346933
0.00348572
0.00348939
0.00347265
0.0034889
0.00347257
0.00346965
0.00348967
0.00348967
0.00346938
0.00346975
0.00346975
0.00341773
0.00343638
0.00343723
0.00341697
0.00343617
0.00341678
0.00341773
0.00343638
0.00343723
0.00341697
0.00343353
0.00343353
0.00343353
0.00339489
0.00339489
0.00339489
0.00339489
0.00341722
0.00343676
0.0034335
0.00342058
0.00343651
0.00341738
0.00342056
0.00343617
0.00341678
0.00341722
0.0034335
0.00343676
0.00342058
0.00343651
0.00342056
0.00341738
0.00343681
0.00343681
0.00341733
0.00341733
0.00341733
0.00336653
0.00338489
0.00338551
0.00336598
0.00338474
0.00336584
0.00336653
0.00338489
0.00338551
0.00336598
0.00338217
0.00338216
0.00338216
0.00334454
0.00334454
0.00334454
0.00334454
0.00336626
0.00338523
0.00338214
0.00336954
0.00338507
0.00336635
0.00336951
0.00338474
0.00336584
0.00336625
0.00338214
0.00338523
0.00336954
0.00338507
0.00336951
0.00336635
0.00338521
0.00338521
0.00336639
0.00336627
0.00336627
0.00331689
0.00333484
0.00333529
0.0033165
0.00333472
0.00331637
0.00331689
0.00333484
0.00333529
0.0033165
0.00333219
0.00333219
0.00333219
0.00329566
0.00329566
0.00329566
0.00329566
0.00331677
0.00333513
0.00333217
0.00331994
0.00333503
0.00331683
0.00331991
0.00333471
0.00331637