/*--------------------------------*- C++ -*----------------------------------*\
| =========                 |                                                 |
| \\      /  F ield         | OpenFOAM: The Open Source CFD Toolbox           |
|  \\    /   O peration     | Version:  2312                                  |
|   \\  /    A nd           | Website:  www.openfoam.com                      |
|    \\/     M anipulation  |                                                 |
\*---------------------------------------------------------------------------*/
FoamFile
{
    version     2.0;
    format      ascii;
    arch        "LSB;label=32;scalar=64";
    class       volScalarField;
    location    "600";
    object      nut;
}
// * * * * * * * * * * * * * * * * * * * * * * * * * * * * * * * * * * * * * //

dimensions      [0 2 -1 0 0 0 0];

internalField   nonuniform List<scalar> 
43496
(
9.98421e-05
2.3891e-05
0.000200499
0.000103598
0.000144122
0.000210019
9.98393e-05
5.07379e-05
0.000144119
0.000200463
0.000210017
0.000103579
0.000181931
7.78913e-05
7.79055e-05
2.38933e-05
5.07439e-05
3.67133e-05
9.98068e-05
9.44594e-05
4.10572e-05
9.44268e-05
4.10507e-05
3.67128e-05
2.03164e-05
7.90778e-05
7.90601e-05
2.03185e-05
2.3889e-05
3.67114e-05
9.9804e-05
4.10569e-05
9.44498e-05
4.10504e-05
9.44175e-05
3.6712e-05
2.03155e-05
7.90576e-05
5.07325e-05
7.90396e-05
2.03175e-05
8.14836e-05
2.17076e-05
2.17109e-05
2.17057e-05
2.17089e-05
8.14898e-05
0.000105201
4.86427e-05
7.78815e-05
0.000128754
4.86434e-05
0.000128696
0.000105219
0.000105198
4.86551e-05
7.78953e-05
0.000128784
0.000128727
4.8656e-05
0.000105217
2.38912e-05
5.07377e-05
0.000203205
0.000206575
0.000203213
0.00010356
0.000147552
0.000147515
0.000171171
0.000144023
0.000137577
0.000176515
0.000137484
0.000176378
0.00017133
0.000160622
0.000122736
0.000122671
0.000160768
0.000171156
0.00014402
0.000176511
0.000137569
0.000176374
0.000137476
0.000171326
0.000160608
0.000122725
0.000103538
0.000147531
0.000122659
0.000160759
0.000147459
0.000138286
0.000181879
0.00016173
0.000161746
0.000161706
0.000161689
0.000138322
0.000203448
0.000198753
0.000198761
0.000180593
0.000205957
0.000200154
0.000200162
0.000181547
0.000180681
0.000181476
0.000198735
0.000198717
0.000199792
0.000199769
0.000180607
0.000181473
0.000198745
0.000198725
0.000199804
0.000199782
0.000198723
0.000199805
0.000199786
0.000180687
0.000181486
0.000198736
0.000199818
0.000199794
0.000181536
0.000181641
0.000200137
0.000200118
0.00018162
0.000200147
0.000200126
0.000200125
0.000181629
0.000200137
9.97296e-05
5.0716e-05
5.0727e-05
9.96607e-05
2.38785e-05
2.38828e-05
9.97258e-05
5.07109e-05
5.07221e-05
9.96563e-05
0.000203443
0.000203457
0.000203448
0.000205338
0.00020533
0.000205348
0.000205343
0.000143703
0.000103361
0.000207742
0.000199105
0.000103445
0.000208206
0.000143509
2.38775e-05
2.38819e-05
0.000143702
0.000207748
0.000103361
0.000199118
0.000208216
0.000103446
0.000143509
7.78091e-05
7.78033e-05
0.000181058
7.7836e-05
7.78314e-05
5.07366e-05
9.97834e-05
2.38877e-05
5.07313e-05
9.97791e-05
0.000205953
0.000205966
0.000205956
0.000144108
0.000103521
0.00020958
0.000143933
0.00021002
2.38868e-05
0.000144107
0.000209585
0.000103522
0.000143932
0.000210029
7.7872e-05
7.78663e-05
0.000182001
7.78975e-05
7.7892e-05
2.38805e-05
2.38849e-05
2.38784e-05
2.38829e-05
7.78196e-05
7.78117e-05
0.000180999
7.78446e-05
7.78398e-05
2.38895e-05
2.38852e-05
2.38875e-05
2.38831e-05
0.000181157
7.78758e-05
7.78704e-05
7.78519e-05
7.78443e-05
9.97224e-05
5.07128e-05
5.07192e-05
9.96617e-05
0.000143717
0.00010336
0.000207737
0.000199091
0.000103445
0.000208204
0.000143502
0.000143702
0.000103336
0.00020773
0.000199069
0.000103422
0.000208195
0.000143508
9.97235e-05
5.07374e-05
5.07264e-05
9.97902e-05
9.97237e-05
5.07294e-05
5.07231e-05
9.97822e-05
0.000143718
0.000199446
0.000103524
0.000209122
0.000103441
0.000208668
0.000143922
0.000143724
0.000199428
0.000103501
0.000209114
0.000103418
0.000208661
0.000143909
7.77984e-05
7.78202e-05
0.000181066
7.7824e-05
7.78453e-05
2.38798e-05
2.38841e-05
2.38874e-05
2.38831e-05
0.000181073
7.78549e-05
7.78765e-05
7.78308e-05
7.78527e-05
2.38888e-05
2.38845e-05
0.000143712
0.00010335
0.000207737
0.000199102
0.000103436
0.000208204
0.000143497
9.97225e-05
5.0707e-05
5.07182e-05
9.96542e-05
0.00014371
0.000207735
0.00010334
0.000199082
0.000208203
0.000103427
0.000143495
9.97186e-05
5.0732e-05
5.07214e-05
9.97861e-05
0.000143714
0.000199456
0.000103515
0.000209123
0.000103432
0.000208668
0.00014392
9.97163e-05
5.07283e-05
5.07174e-05
9.97824e-05
0.000143711
0.000199435
0.000209121
0.000103505
0.000208666
0.000103422
0.000143917
9.97161e-05
5.07146e-05
5.07211e-05
9.96536e-05
0.000143704
0.000207737
0.000103347
0.000199086
0.000208204
0.000103434
0.000143507
9.97241e-05
5.07081e-05
5.07193e-05
9.96558e-05
0.000143726
0.000199463
0.000103524
0.000209125
0.000103443
0.000208673
0.00014391
9.97158e-05
5.07314e-05
5.07249e-05
9.97756e-05
0.000143724
0.000199434
0.000209122
0.000103512
0.000208668
0.000103429
0.000143912
9.9718e-05
5.07295e-05
5.07186e-05
9.97838e-05
7.78044e-05
7.78179e-05
0.000181002
7.78295e-05
7.78431e-05
2.38798e-05
2.38841e-05
2.38865e-05
2.38822e-05
0.000181162
7.78606e-05
7.78743e-05
7.7837e-05
7.78503e-05
2.38887e-05
2.38844e-05
0.000143693
0.000207738
0.000103341
0.000199094
0.000208206
0.000103427
0.000143499
9.9714e-05
5.07147e-05
5.07212e-05
9.96515e-05
9.97044e-05
5.07066e-05
5.07178e-05
9.96399e-05
0.000143725
0.000199471
0.000209134
0.000103524
0.000208679
0.000103443
0.000143909
0.000143716
0.000199446
0.000209124
0.000103506
0.000208669
0.000103423
0.000143901
9.97139e-05
5.07322e-05
5.0725e-05
9.97737e-05
9.97026e-05
5.07279e-05
5.0717e-05
9.97641e-05
2.38783e-05
2.38828e-05
2.38773e-05
2.38817e-05
0.000181068
7.78671e-05
7.78623e-05
7.78415e-05
7.78359e-05
2.38874e-05
2.3883e-05
2.38863e-05
2.38819e-05
2.38897e-05
2.38877e-05
7.78822e-05
7.78752e-05
5.07335e-05
9.9784e-05
0.00010352
0.000209575
0.000143935
0.000103497
0.000209568
0.000143935
7.78614e-05
7.78829e-05
2.38891e-05
0.000103511
0.000209576
0.000143922
5.07278e-05
9.97758e-05
0.000209573
0.000103501
0.000143919
9.98315e-05
5.07352e-05
9.97752e-05
0.00014411
0.000209576
0.000103508
0.000200466
0.000143932
0.000210018
0.000103586
9.9838e-05
5.07294e-05
9.97775e-05
5.07371e-05
7.78675e-05
7.78809e-05
2.3889e-05
0.0001441
0.000209577
0.000103501
0.000200476
0.000143923
0.000210019
0.00010358
9.98297e-05
5.07332e-05
9.97735e-05
9.98202e-05
5.07272e-05
9.9762e-05
5.07382e-05
2.38876e-05
2.38919e-05
2.38865e-05
2.38909e-05
3.66953e-05
4.10405e-05
9.43728e-05
9.96921e-05
4.10344e-05
9.43384e-05
3.67022e-05
2.03086e-05
5.07214e-05
7.90065e-05
7.90257e-05
2.03066e-05
2.03085e-05
7.90378e-05
5.0721e-05
7.90185e-05
2.03106e-05
3.66984e-05
9.96991e-05
4.10304e-05
9.43145e-05
4.10361e-05
9.43488e-05
3.66913e-05
2.38805e-05
2.38808e-05
3.66991e-05
9.43647e-05
4.10399e-05
9.96872e-05
9.43375e-05
4.10337e-05
3.66983e-05
2.0309e-05
5.07169e-05
7.9002e-05
7.90211e-05
2.0307e-05
2.03089e-05
7.90331e-05
5.07162e-05
7.90144e-05
2.03109e-05
3.66946e-05
9.96948e-05
9.43144e-05
4.10294e-05
9.43398e-05
4.10353e-05
3.66955e-05
2.38796e-05
2.38799e-05
8.14421e-05
2.17029e-05
2.16997e-05
2.17009e-05
2.16977e-05
8.14493e-05
0.000105054
0.000128359
7.78198e-05
4.8625e-05
0.000128422
4.86325e-05
0.000105031
0.000105061
0.000128339
7.7815e-05
4.86147e-05
0.000128405
4.8622e-05
0.000105039
0.000105064
4.86373e-05
7.78254e-05
0.000128495
0.000128433
4.863e-05
0.000105087
0.000105071
4.86268e-05
7.78201e-05
0.000128478
0.000128413
4.86197e-05
0.000105093
8.1439e-05
2.1699e-05
2.16958e-05
2.1701e-05
2.16978e-05
8.14317e-05
2.03162e-05
7.90536e-05
5.07417e-05
2.03142e-05
7.90719e-05
3.67136e-05
9.98173e-05
4.1047e-05
9.44097e-05
3.6706e-05
4.10539e-05
9.4444e-05
2.38896e-05
2.03166e-05
7.90491e-05
5.07378e-05
2.03146e-05
7.9067e-05
3.67096e-05
9.98139e-05
9.44053e-05
4.10469e-05
3.671e-05
9.44369e-05
4.10526e-05
2.38888e-05
8.1481e-05
2.17103e-05
2.17071e-05
2.17083e-05
2.17051e-05
8.14879e-05
0.00010518
0.000128646
4.86441e-05
7.78823e-05
0.000105158
0.000128704
4.86515e-05
0.000105187
0.000128626
4.86337e-05
7.78771e-05
0.000105165
0.000128686
4.8641e-05
8.14789e-05
2.17065e-05
2.17033e-05
8.14718e-05
2.17085e-05
2.17053e-05
0.000105189
4.86569e-05
7.78865e-05
0.00012877
0.000128714
4.86489e-05
0.000105207
0.000105195
4.86462e-05
7.7881e-05
0.000128753
0.000128694
4.86383e-05
0.000105214
2.38825e-05
2.38828e-05
2.38805e-05
2.38808e-05
8.14483e-05
2.17033e-05
2.17e-05
2.17013e-05
2.1698e-05
8.14546e-05
0.000105061
0.000128372
7.78285e-05
4.8632e-05
4.86318e-05
0.000128428
0.000105042
0.000105065
0.000128348
7.78235e-05
4.86155e-05
4.8623e-05
0.000128411
0.000105041
0.000105074
4.86366e-05
7.78359e-05
0.000128501
4.86367e-05
0.000105093
0.000128446
0.000105074
4.86278e-05
7.78285e-05
0.000128484
4.86205e-05
0.000105097
0.000128422
8.14443e-05
2.16994e-05
2.16961e-05
2.17014e-05
2.16981e-05
8.14379e-05
2.38875e-05
2.38872e-05
2.38854e-05
2.38852e-05
8.14648e-05
2.17032e-05
2.16998e-05
8.14583e-05
2.17052e-05
2.17019e-05
0.000105137
0.000128643
7.78672e-05
4.86461e-05
4.86465e-05
0.000128589
0.000105156
0.000105137
0.000128625
7.78598e-05
4.86369e-05
4.86296e-05
0.000128565
0.000105159
0.000105125
4.86416e-05
0.000128518
7.78607e-05
0.000105106
4.86418e-05
0.000128573
0.000105129
4.86252e-05
0.000128494
7.7855e-05
0.000105106
4.86322e-05
0.000128555
8.14683e-05
2.1707e-05
2.17037e-05
2.1705e-05
2.17017e-05
8.14746e-05
3.66977e-05
4.10376e-05
9.43562e-05
9.96932e-05
4.10375e-05
9.43319e-05
3.66968e-05
2.03079e-05
5.0714e-05
7.89845e-05
7.90028e-05
2.03059e-05
2.03078e-05
7.90146e-05
5.07179e-05
7.89969e-05
2.03099e-05
3.66931e-05
9.96918e-05
4.1033e-05
9.43072e-05
4.10335e-05
9.43321e-05
3.66941e-05
3.67058e-05
4.1039e-05
9.43634e-05
9.976e-05
3.66991e-05
4.10446e-05
9.43968e-05
2.03123e-05
5.07312e-05
7.90608e-05
2.03143e-05
7.90421e-05
2.03125e-05
7.90305e-05
5.07319e-05
2.03104e-05
7.90494e-05
3.67028e-05
9.97537e-05
4.10489e-05
9.44203e-05
3.67093e-05
4.10433e-05
9.43873e-05
3.67005e-05
4.10415e-05
9.43561e-05
9.9753e-05
3.67013e-05
4.1042e-05
9.43807e-05
2.03116e-05
5.07283e-05
7.9038e-05
7.90206e-05
2.03137e-05
2.03118e-05
7.9009e-05
5.07247e-05
2.03097e-05
7.90267e-05
3.67052e-05
9.97538e-05
4.10461e-05
9.44041e-05
4.10458e-05
9.438e-05
3.67043e-05
8.1445e-05
2.17e-05
2.17031e-05
2.1698e-05
2.1701e-05
8.14526e-05
0.000105062
0.000128339
7.78077e-05
4.8619e-05
4.86189e-05
0.000128398
0.00010504
0.000105061
0.000128372
7.78291e-05
4.86269e-05
0.000128433
4.86338e-05
0.000105038
0.000105073
4.86236e-05
7.78149e-05
0.000128471
4.86236e-05
0.000128414
0.000105095
0.000105071
4.86376e-05
7.78368e-05
0.000128506
0.000128446
4.86335e-05
0.000105093
8.14423e-05
2.16961e-05
2.16991e-05
2.16981e-05
2.17012e-05
8.14345e-05
2.38818e-05
2.38822e-05
2.38854e-05
2.38851e-05
8.14627e-05
2.16999e-05
2.17029e-05
8.14553e-05
2.17019e-05
2.17049e-05
0.000105136
0.000128612
7.78463e-05
4.86332e-05
0.000128557
4.86335e-05
0.000105158
0.000105134
0.000128646
7.78683e-05
4.8645e-05
4.86452e-05
0.000128589
0.000105156
0.000105127
4.86286e-05
0.000128486
7.78399e-05
0.000128542
0.000105105
4.86289e-05
0.000105125
4.86397e-05
0.000128518
7.78614e-05
0.000105103
4.86407e-05
0.000128577
8.14652e-05
2.17038e-05
2.17068e-05
2.17017e-05
2.17048e-05
8.14725e-05
2.38868e-05
2.38865e-05
3.66973e-05
4.10383e-05
9.43574e-05
9.96852e-05
4.10353e-05
9.43238e-05
3.66964e-05
2.0308e-05
5.0713e-05
7.89811e-05
7.90002e-05
2.0306e-05
2.03079e-05
7.90123e-05
5.07123e-05
7.89935e-05
2.03099e-05
3.66927e-05
9.96915e-05
4.10322e-05
9.42996e-05
4.10331e-05
9.43329e-05
3.66936e-05
3.6702e-05
9.43594e-05
4.10384e-05
9.97562e-05
3.67027e-05
9.43898e-05
4.10441e-05
2.03127e-05
5.07264e-05
7.90561e-05
2.03147e-05
7.90378e-05
2.03128e-05
7.90263e-05
5.07269e-05
2.03108e-05
7.90448e-05
3.67064e-05
9.97495e-05
9.44148e-05
4.10487e-05
3.67061e-05
9.4382e-05
4.10427e-05
3.67001e-05
4.10382e-05
9.43486e-05
9.9753e-05
3.67008e-05
4.10437e-05
9.43817e-05
2.03117e-05
5.07223e-05
7.90357e-05
7.90172e-05
2.03137e-05
2.03118e-05
7.90055e-05
5.07231e-05
2.03098e-05
7.90241e-05
3.67047e-05
9.97464e-05
4.10483e-05
9.4405e-05
4.10423e-05
9.43725e-05
3.67041e-05
3.66982e-05
9.43546e-05
4.10366e-05
9.96852e-05
9.4327e-05
4.10366e-05
3.66994e-05
2.03092e-05
5.07159e-05
7.89999e-05
7.90105e-05
2.03071e-05
2.0309e-05
7.90225e-05
5.07197e-05
7.9012e-05
2.03111e-05
3.66966e-05
9.96854e-05
9.43018e-05
4.10321e-05
9.43305e-05
4.10325e-05
3.66929e-05
3.66939e-05
4.10402e-05
9.43607e-05
9.96868e-05
4.1034e-05
9.43264e-05
3.67008e-05
2.03083e-05
5.07141e-05
7.8982e-05
7.90014e-05
2.03062e-05
2.03081e-05
7.90134e-05
5.07135e-05
7.89943e-05
2.03102e-05
3.6697e-05
9.96932e-05
4.103e-05
9.43023e-05
4.10358e-05
9.43363e-05
3.66899e-05
3.67023e-05
9.43512e-05
4.10407e-05
9.97466e-05
3.67027e-05
9.43788e-05
4.10409e-05
2.03128e-05
5.07301e-05
7.90459e-05
7.90354e-05
2.03149e-05
2.0313e-05
7.90239e-05
5.07266e-05
2.03109e-05
7.90346e-05
3.67066e-05
9.97458e-05
9.44018e-05
4.10451e-05
9.43751e-05
4.10451e-05
3.67057e-05
3.67044e-05
4.10386e-05
9.43512e-05
9.97546e-05
3.66977e-05
4.10445e-05
9.43851e-05
2.03119e-05
5.07236e-05
7.90365e-05
7.90183e-05
2.0314e-05
2.03121e-05
7.90063e-05
5.07241e-05
2.031e-05
7.9025e-05
3.67014e-05
9.9748e-05
4.10488e-05
9.44082e-05
4.10427e-05
9.4375e-05
3.67078e-05
8.14443e-05
2.17002e-05
2.17035e-05
2.16982e-05
2.17015e-05
8.14513e-05
0.000105064
0.000128341
7.78132e-05
4.86195e-05
4.86194e-05
0.000128406
0.000105045
0.000105062
0.000128372
7.78269e-05
4.86318e-05
0.000128435
4.86317e-05
0.000105042
0.000105078
4.86242e-05
7.7821e-05
0.000128479
4.86242e-05
0.000128415
0.000105097
0.000105075
4.86365e-05
7.78344e-05
0.000128509
0.000128446
4.86365e-05
0.000105094
8.14409e-05
2.16963e-05
2.16996e-05
2.16983e-05
2.17016e-05
8.14338e-05
2.38817e-05
2.38821e-05
2.38845e-05
2.38842e-05
8.14614e-05
2.17001e-05
2.17033e-05
8.14546e-05
2.17021e-05
2.17054e-05
0.000105141
0.00012862
7.78526e-05
4.86338e-05
0.000128558
4.86341e-05
0.00010516
0.000105138
0.00012865
7.78659e-05
4.86461e-05
4.86464e-05
0.000128589
0.000105157
0.000105128
4.86291e-05
0.000128488
7.78452e-05
0.000128549
0.00010511
4.86294e-05
0.000105126
4.86415e-05
0.000128518
7.78592e-05
0.000105107
4.86417e-05
0.00012858
8.14645e-05
2.1704e-05
2.17072e-05
2.1702e-05
2.17052e-05
8.14712e-05
2.38867e-05
2.38864e-05
3.66958e-05
9.43648e-05
4.10365e-05
9.96833e-05
9.43399e-05
4.10365e-05
3.67025e-05
2.03097e-05
5.07161e-05
7.90033e-05
7.90219e-05
2.03076e-05
2.03095e-05
7.9034e-05
5.07198e-05
7.90154e-05
2.03116e-05
3.66987e-05
9.96833e-05
9.43152e-05
4.10321e-05
9.43408e-05
4.10324e-05
3.66919e-05
3.66925e-05
9.43491e-05
4.10359e-05
9.96718e-05
9.43148e-05
4.10361e-05
3.66997e-05
2.03078e-05
5.07126e-05
7.898e-05
7.89991e-05
2.03057e-05
2.03076e-05
7.90112e-05
5.07119e-05
7.89923e-05
2.03097e-05
3.66958e-05
9.96737e-05
9.42905e-05
4.10316e-05
9.43247e-05
4.10319e-05
3.66887e-05
3.67062e-05
9.43643e-05
4.10406e-05
9.97447e-05
3.66997e-05
9.43893e-05
4.10409e-05
2.03133e-05
5.07297e-05
7.90572e-05
7.90393e-05
2.03154e-05
2.03135e-05
7.90274e-05
5.07269e-05
2.03114e-05
7.90458e-05
3.67032e-05
9.9744e-05
9.44123e-05
4.1045e-05
9.43881e-05
4.10449e-05
3.67096e-05
3.67033e-05
9.43395e-05
4.10402e-05
9.9735e-05
3.66964e-05
9.43733e-05
4.10403e-05
2.03114e-05
5.07219e-05
7.90343e-05
7.90158e-05
2.03135e-05
2.03116e-05
7.90042e-05
5.07227e-05
2.03095e-05
7.90229e-05
3.67e-05
9.97327e-05
9.43964e-05
4.10444e-05
9.43632e-05
4.10444e-05
3.67067e-05
2.38804e-05
2.38807e-05
2.38794e-05
2.38796e-05
8.14594e-05
2.17028e-05
2.16995e-05
8.14522e-05
2.17048e-05
2.17015e-05
0.000105127
0.000128636
7.78567e-05
4.86467e-05
0.00010515
0.000128577
4.86392e-05
0.000105135
0.000128618
7.78513e-05
4.86362e-05
0.000105156
0.000128557
4.86289e-05
0.000105119
4.86348e-05
0.000128505
7.78516e-05
0.000105096
0.000128566
4.86416e-05
0.000105125
4.86244e-05
0.000128486
7.78466e-05
0.000105103
0.000128548
4.86311e-05
8.1462e-05
2.17067e-05
2.17034e-05
8.14692e-05
2.17046e-05
2.17014e-05
2.38853e-05
2.38851e-05
2.38842e-05
2.3884e-05
2.38917e-05
2.38897e-05
0.000105186
0.000128658
4.86512e-05
7.78901e-05
0.000105168
4.86501e-05
0.000128711
0.000105187
0.000128635
4.86355e-05
7.78838e-05
0.000105168
4.86404e-05
0.000128692
8.14838e-05
2.17069e-05
2.17036e-05
8.1478e-05
2.17089e-05
2.17056e-05
2.03155e-05
7.90317e-05
5.07338e-05
2.03135e-05
7.90491e-05
3.67074e-05
9.981e-05
4.10505e-05
9.4404e-05
4.10497e-05
3.67089e-05
9.4426e-05
0.000105189
0.000128626
4.86383e-05
7.78694e-05
4.86372e-05
0.000105166
0.00012868
0.000105187
0.000128658
4.86492e-05
7.78927e-05
0.000128714
0.000105164
4.86506e-05
8.14822e-05
2.17036e-05
2.17066e-05
2.17056e-05
8.14748e-05
2.17087e-05
2.03156e-05
7.90286e-05
5.0733e-05
2.03136e-05
7.90467e-05
3.67077e-05
9.98109e-05
4.10465e-05
9.43957e-05
4.10522e-05
3.67079e-05
9.44274e-05
3.67123e-05
9.98039e-05
4.10531e-05
9.44208e-05
4.10537e-05
2.03168e-05
7.90465e-05
5.07359e-05
7.90568e-05
2.03147e-05
3.67096e-05
9.98045e-05
9.43983e-05
4.10492e-05
9.44245e-05
3.67095e-05
4.10495e-05
2.03166e-05
3.67089e-05
9.98072e-05
4.10573e-05
9.44531e-05
4.10509e-05
9.44202e-05
3.67147e-05
2.03159e-05
7.90294e-05
5.07336e-05
2.03138e-05
7.90475e-05
3.67117e-05
9.98118e-05
4.10471e-05
9.43985e-05
3.67053e-05
4.10527e-05
9.44306e-05
2.03157e-05
7.90582e-05
5.07362e-05
7.90405e-05
2.03177e-05
0.00010519
0.000128628
4.86383e-05
7.7876e-05
4.86387e-05
0.000105171
0.000128687
0.000105187
0.000128658
4.86508e-05
7.78897e-05
0.000128717
0.000105169
4.86511e-05
8.14808e-05
2.17038e-05
2.17071e-05
2.17058e-05
8.14742e-05
2.17091e-05
2.3891e-05
3.67101e-05
9.98022e-05
9.44562e-05
4.1053e-05
9.44338e-05
4.10536e-05
3.67179e-05
2.03173e-05
7.90504e-05
5.07383e-05
7.90683e-05
2.03152e-05
3.67134e-05
9.98028e-05
9.44115e-05
4.10491e-05
9.44352e-05
3.67073e-05
4.10494e-05
2.03171e-05
7.90787e-05
7.90615e-05
2.03191e-05
3.67083e-05
9.97908e-05
9.4441e-05
4.10524e-05
9.44085e-05
4.10531e-05
3.67134e-05
2.03154e-05
7.90272e-05
5.0733e-05
2.03133e-05
7.90453e-05
3.671e-05
9.9793e-05
9.43866e-05
4.10487e-05
3.67043e-05
9.44188e-05
4.10488e-05
2.03152e-05
7.9056e-05
5.07321e-05
7.90381e-05
2.03172e-05
2.38896e-05
2.38899e-05
2.38886e-05
2.38888e-05
0.000199214
0.000199215
0.000204084
0.000200024
0.000200025
0.000189325
0.000188302
0.000137896
0.000160897
0.000160879
0.000180819
0.000160981
0.000160968
0.000137852
0.00020242
0.000202421
0.000193391
0.000192379
0.000138236
0.000161522
0.000161509
0.00018177
0.000138194
0.000161609
0.000161595
0.000137901
0.000160915
0.000160907
0.000180758
0.000160971
0.000160957
0.000137865
0.000138123
0.000181405
0.000161449
0.000161438
0.000161393
0.00016138
0.000138159
0.000137905
0.000160881
0.000160909
0.000180831
0.000160992
0.000160967
0.000137858
0.000138118
0.000181316
0.000161427
0.000161443
0.000161359
0.000161379
0.000138157
0.000137902
0.000160909
0.000160927
0.000180764
0.000160978
0.000160963
0.000137865
0.000138123
0.000181411
0.000161431
0.000161459
0.000161377
0.000161403
0.00013816
0.000138111
0.000181315
0.000161453
0.000161439
0.000138152
0.000161368
0.000161357
0.00013824
0.000161549
0.000161534
0.000181692
0.000138206
0.000161593
0.000161577
0.000138239
0.000161526
0.000161552
0.000181673
0.000161594
0.000138202
0.000161564
0.000138243
0.000161526
0.000161549
0.000181713
0.000161608
0.000138205
0.000161581
0.000199212
0.000199216
0.000204076
0.000200021
0.000200023
0.000189325
0.000188303
0.000199225
0.000199229
0.000204093
0.000200034
0.000200039
0.000189336
0.000188313
0.000199225
0.000199225
0.000204088
0.000200033
0.000200037
0.000189336
0.000188314
0.000204715
0.000201627
0.000201627
0.000200829
0.00020083
0.000190346
0.000191364
0.000204711
0.000201624
0.000201626
0.000200827
0.000200832
0.000190347
0.000191364
0.000204725
0.000201636
0.000201641
0.000200839
0.000200843
0.000190357
0.000191374
0.000204715
0.000201634
0.000201641
0.00020084
0.000200839
0.000190357
0.000191374
0.000170446
0.000137217
0.000175599
0.00014362
0.000137143
0.000175584
0.000170514
0.000159951
0.000146907
0.000103404
0.000122358
0.000146944
0.000122419
0.000159914
0.000160071
0.000122485
0.000103402
0.000147069
0.000147032
0.000122425
0.000160107
0.00017032
0.000143596
0.00013705
0.000175349
0.000137126
0.00017537
0.000170243
0.000170456
0.000175601
0.000137223
0.000143619
0.000175588
0.00013715
0.000170503
0.000159957
0.000146911
0.000103405
0.000122365
0.000146948
0.000122426
0.000159922
0.000160078
0.000122491
0.000103403
0.000147074
0.000147036
0.000122432
0.000160111
0.000170303
0.000143595
0.000175353
0.000137058
0.000175372
0.000137132
0.000170257
0.000137941
0.000180837
0.000161138
0.000161131
0.000161054
0.000161035
0.000137984
0.000202417
0.000202423
0.000203203
0.000193391
0.00019238
0.00020243
0.000202434
0.000203219
0.000193401
0.000192389
0.000202431
0.000202428
0.000206573
0.000203211
0.000203221
0.000193401
0.00019239
0.000171226
0.000144035
0.000137565
0.000176435
0.000137499
0.000176447
0.000171274
0.000160564
0.000147399
0.00012262
0.000103561
0.000160553
0.000147428
0.000122673
0.000171091
0.000144012
0.000137414
0.000176222
0.000171036
0.000137483
0.000176237
0.000171227
0.000144034
0.000176436
0.000137571
0.000176447
0.000137506
0.000171272
0.000160575
0.000147395
0.000122627
0.000103562
0.000160549
0.00014743
0.000122681
0.000171093
0.000144011
0.000176223
0.000137421
0.00017104
0.000176236
0.000137489
0.000160701
0.000122739
0.000122688
0.000160711
0.000138274
0.000181778
0.000161762
0.000161748
0.000161675
0.000161662
0.000138317
0.000137953
0.00018092
0.000161133
0.000161118
0.000137989
0.000161077
0.000161068
0.000138075
0.000181244
0.000161235
0.000161227
0.00013804
0.000161295
0.000161282
0.000170421
0.000137233
0.000175653
0.000143611
0.000137136
0.000175521
0.00017055
0.000159989
0.000146901
0.000103405
0.000122356
0.000122425
0.00014694
0.00015986
0.000160019
0.000122492
0.000103401
0.000147066
0.000122422
0.000147022
0.000160151
0.000170337
0.000143609
0.000137044
0.000175292
0.000137141
0.000175424
0.00017022
0.00017042
0.000137208
0.00017559
0.000143618
0.000137134
0.000175562
0.000170497
0.000159923
0.000146871
0.000103381
0.000122341
0.000122403
0.000146908
0.000159885
0.000160042
0.000122469
0.000103377
0.000147033
0.000122409
0.000160079
0.000146996
0.000170302
0.000143594
0.000137041
0.000175326
0.000137116
0.000175372
0.000170214
0.00017076
0.000137229
0.000175733
0.000143821
0.00017061
0.000137325
0.000175865
0.000160319
0.000147321
0.000103481
0.000122621
0.000147253
0.000122553
0.000160484
0.000160318
0.000122489
0.000147142
0.000103485
0.000147197
0.000160176
0.000122557
0.000170783
0.000143826
0.000137413
0.000176053
0.000137319
0.000175946
0.00017096
0.000170688
0.000137226
0.000175782
0.000143808
0.000170623
0.0001373
0.000175806
0.00016036
0.000147281
0.000103458
0.000122598
0.00012254
0.000147242
0.000160383
0.000160228
0.000122474
0.000147117
0.000103462
0.000160202
0.000122535
0.000147155
0.000170823
0.000143829
0.000137388
0.000176011
0.000137316
0.000176
0.000170882
0.000137946
0.000180847
0.000161125
0.000161148
0.000161065
0.00016104
0.00013799
0.000138072
0.000181284
0.00016119
0.000161212
0.000161278
0.000138032
0.000161301
0.000170429
0.000137219
0.000175652
0.000143606
0.000137136
0.000175517
0.000170517
0.000159935
0.000146868
0.000103395
0.000122353
0.000122415
0.000146942
0.000159895
0.000160053
0.000122481
0.000103392
0.000147066
0.00012242
0.000146994
0.000160097
0.000170316
0.000143604
0.000137048
0.000175289
0.000137125
0.000175423
0.000170226
0.000170366
0.000175652
0.000137217
0.000143604
0.000175511
0.000137119
0.000170546
0.000159972
0.000146857
0.000103386
0.000122337
0.000122408
0.000146933
0.000159838
0.000159994
0.000122473
0.000103381
0.000147057
0.000122404
0.000160135
0.000146983
0.000170334
0.000143602
0.000175283
0.000137027
0.000175424
0.000137125
0.000170172
0.00017072
0.000137222
0.000175731
0.000143817
0.000170628
0.000137314
0.000175866
0.000160348
0.000147308
0.000103472
0.000122613
0.000147237
0.000122545
0.000160464
0.000160288
0.000122482
0.000147114
0.000103476
0.000147186
0.000160201
0.000122548
0.000170826
0.000143819
0.000137405
0.000176084
0.00013731
0.000175949
0.000170935
0.000170748
0.000175725
0.000137212
0.000143815
0.000170565
0.000175864
0.000137308
0.000160289
0.000147298
0.000103462
0.000122603
0.000122535
0.000147225
0.000160455
0.000160301
0.00012247
0.000147104
0.000103466
0.000160147
0.000122538
0.000147175
0.000170756
0.000143816
0.000176081
0.000137396
0.000175942
0.000137302
0.000170935
0.000170423
0.000175594
0.000137223
0.000143617
0.000175576
0.000137125
0.000170528
0.000159982
0.000146873
0.000103393
0.000122344
0.000146949
0.000122414
0.000159853
0.000160011
0.000122481
0.000103389
0.000147073
0.000146999
0.000122411
0.000160144
0.000170321
0.000143596
0.000175341
0.000137033
0.00017537
0.00013713
0.00017022
0.000170708
0.000137235
0.000175795
0.000143808
0.000170647
0.000137309
0.000175813
0.000160387
0.000147309
0.000103482
0.000122614
0.000160412
0.000147275
0.000122556
0.000160257
0.00012249
0.000147152
0.000103485
0.000160231
0.000147191
0.000122551
0.000170845
0.00014383
0.000137397
0.000176019
0.000170903
0.000137325
0.000176011
0.000170738
0.000175793
0.000137218
0.000143809
0.000170619
0.00017581
0.000137314
0.00016031
0.000147314
0.000103469
0.00012261
0.000122542
0.000147241
0.000160475
0.00016031
0.000122477
0.00014712
0.000103473
0.000160167
0.000122545
0.000147192
0.000170799
0.000143829
0.000176025
0.000137403
0.00017601
0.000137309
0.000170946
0.000137953
0.000180925
0.000161118
0.000161138
0.000161089
0.00016106
0.00013799
0.000138076
0.000181246
0.000161218
0.000161247
0.000161277
0.000138039
0.000161301
0.000170411
0.00017559
0.000137212
0.000143609
0.000175573
0.000137116
0.000170528
0.000159973
0.000146859
0.000103386
0.000122336
0.000146935
0.000122407
0.000159842
0.000159999
0.000122473
0.000103382
0.000147059
0.000146985
0.000122403
0.000160136
0.000170316
0.000143586
0.000175338
0.000137024
0.000175367
0.00013712
0.000170209
0.00017071
0.000175798
0.000137242
0.000143808
0.000170657
0.000175814
0.000137315
0.000160391
0.000147313
0.000103483
0.00012262
0.000160422
0.000147279
0.000122563
0.00016026
0.000122498
0.000147156
0.000103486
0.000160237
0.000147195
0.000122557
0.000170854
0.000143829
0.00017602
0.000137403
0.000170905
0.000176013
0.000137331
0.000170738
0.000175789
0.000137208
0.000143798
0.000170602
0.000175806
0.000137304
0.000160297
0.0001473
0.000103462
0.000122602
0.000122534
0.000147226
0.000160464
0.000160302
0.000122468
0.000147106
0.000103467
0.000160154
0.000122538
0.000147177
0.000170777
0.00014382
0.00017602
0.000137392
0.000176005
0.000137298
0.000170935
0.000138069
0.000181289
0.000161208
0.000161192
0.000138026
0.000161293
0.000161282
0.000160654
0.000147368
0.000122617
0.000103562
0.000122682
0.000160457
0.00014744
0.000171162
0.000144013
0.000137408
0.000176203
0.000137496
0.000170962
0.000176222
0.000160531
0.000147352
0.000122604
0.000103538
0.00016052
0.000122658
0.000147379
0.000171068
0.000144008
0.000137407
0.000176231
0.000171018
0.000137473
0.000176209
0.000160623
0.000147362
0.000122609
0.000103552
0.000122674
0.000160485
0.000147419
0.000171136
0.000144021
0.000137399
0.000176162
0.000137491
0.000170994
0.000176296
0.000160605
0.000147343
0.000122598
0.000103542
0.000160447
0.000122663
0.000147411
0.000171122
0.000144018
0.000176158
0.000137391
0.000170956
0.000176292
0.000137482
0.000171138
0.000144035
0.000176442
0.000137575
0.000176447
0.000137482
0.000171359
0.000160638
0.00014736
0.000122606
0.00010355
0.000147426
0.000160451
0.000122671
0.000171148
0.000144015
0.000176223
0.000137397
0.000176245
0.000170971
0.000137489
0.000160582
0.000122733
0.000103546
0.000147535
0.000147477
0.000122667
0.000160788
0.000171165
0.000144025
0.000176436
0.000137563
0.000176441
0.000137471
0.000171307
0.000160627
0.000147345
0.000122597
0.000103543
0.000147415
0.00016044
0.000122663
0.000171124
0.000144003
0.000176218
0.000137387
0.000176239
0.000170966
0.000137478
0.000160574
0.000122725
0.000103538
0.000147526
0.000147466
0.000122658
0.000160778
0.000138645
0.000136707
0.000138656
5.00136e-05
9.38114e-05
2.36114e-05
7.37224e-05
7.37302e-05
2.36126e-05
9.38178e-05
5.00148e-05
2.01023e-05
5.00118e-05
7.60451e-05
7.59989e-05
2.01043e-05
2.36093e-05
9.7275e-05
0.000112653
7.36899e-05
4.79324e-05
0.000112502
4.79229e-05
9.73347e-05
9.72631e-05
0.000112667
7.37018e-05
4.79393e-05
4.79379e-05
0.000112523
9.73208e-05
7.88205e-05
2.14899e-05
2.14928e-05
2.14878e-05
2.14907e-05
7.88444e-05
2.36105e-05
2.01032e-05
5.00129e-05
7.60524e-05
7.60074e-05
2.01053e-05
0.000119524
0.000136671
0.000129853
0.000129851
0.000129693
0.000129705
0.000119607
0.00012847
0.000122144
9.36907e-05
0.000107744
0.000107537
0.000122012
0.000128686
0.00012857
0.000122159
9.3701e-05
0.000107732
0.000122046
0.000107551
0.000128605
0.000123073
0.000139444
0.000139456
0.000137248
0.00012587
0.000142567
0.00014258
0.000139681
0.000128827
0.000145655
0.000145666
0.000142039
0.000131922
0.000148701
0.00014871
0.000144372
0.000135134
0.000151696
0.000151705
0.000146626
0.000138444
0.000154635
0.000154644
0.00014878
0.000141831
0.000157512
0.000157521
0.000150964
0.000145279
0.000160328
0.000160336
0.000153024
0.00014877
0.000163079
0.000163088
0.000155068
0.000152288
0.000165763
0.000165773
0.000157063
0.00015582
0.000168382
0.000168393
0.00015898
0.000159353
0.00017093
0.000170941
0.000160922
0.000162873
0.000173408
0.000173419
0.000162704
0.000166368
0.000175815
0.000175827
0.000164443
0.000169829
0.000178148
0.00017816
0.000166112
0.000173246
0.000180408
0.000180419
0.000167699
0.000176611
0.000182591
0.000182602
0.000169274
0.000179916
0.000184698
0.000184709
0.000170786
0.000183154
0.000186729
0.000186739
0.000172226
0.000186318
0.000188682
0.000188692
0.00017361
0.000189401
0.000190556
0.000190566
0.000174939
0.000192399
0.000192353
0.000192363
0.000176213
0.000195307
0.000194071
0.00019408
0.000177417
0.000198119