/*--------------------------------*- C++ -*----------------------------------*\
| =========                 |                                                 |
| \\      /  F ield         | OpenFOAM: The Open Source CFD Toolbox           |
|  \\    /   O peration     | Version:  2312                                  |
|   \\  /    A nd           | Website:  www.openfoam.com                      |
|    \\/     M anipulation  |                                                 |
\*---------------------------------------------------------------------------*/
FoamFile
{
    version     2.0;
    format      ascii;
    arch        "LSB;label=32;scalar=64";
    class       volScalarField;
    location    "600";
    object      p;
}
// * * * * * * * * * * * * * * * * * * * * * * * * * * * * * * * * * * * * * //

dimensions      [0 2 -2 0 0 0 0];

internalField   nonuniform List<scalar> 
43496
(
0.000735137
0.000735138
0.0007373
0.000735174
0.000735219
0.00073732
0.000735137
0.000735139
0.000735219
0.0007373
0.00073732
0.000735174
0.000735689
0.000735132
0.000735132
0.000735138
0.000735139
0.000739449
0.000739427
0.000735135
0.000735131
0.000739431
0.000739447
0.000735131
0.000739451
0.000735126
0.000739444
0.000735135
0.000739447
0.00073945
0.000739427
0.000735131
0.000735135
0.000739447
0.000739431
0.00073513
0.000739451
0.000735126
0.000739439
0.000739444
0.000735135
0.000739453
0.000735133
0.000735133
0.000739456
0.000739456
0.000735124
0.000739416
0.00073514
0.000739439
0.000735185
0.000739442
0.000739382
0.000735155
0.000739416
0.00073514
0.000739439
0.000735186
0.000739382
0.000739442
0.000735155
0.000739447
0.000739439
0.000737387
0.000737354
0.000737387
0.000739392
0.000735335
0.000739244
0.000739112
0.000739344
0.000735216
0.000735456
0.000739348
0.000739115
0.000735461
0.00073914
0.000735201
0.000739362
0.000735421
0.000739113
0.000739344
0.000735456
0.000735216
0.000739115
0.000739348
0.000735461
0.00073914
0.0007352
0.000739392
0.000735335
0.000739362
0.000735421
0.000739244
0.000739314
0.000738874
0.00073543
0.00073543
0.000739152
0.000739152
0.000735257
0.000781497
0.000781439
0.000781439
0.000783011
0.000746185
0.00074613
0.000746131
0.000747705
0.00078301
0.000753349
0.000781439
0.000781439
0.00075496
0.00075496
0.00078301
0.000753349
0.000781439
0.000781439
0.00075496
0.00075496
0.000781439
0.00075496
0.00075496
0.00078301
0.000753349
0.000781439
0.00075496
0.00075496
0.000753349
0.000747704
0.000746131
0.000746131
0.000747703
0.000746131
0.000746131
0.000746131
0.000747704
0.000746131
0.000770449
0.000783572
0.000770451
0.00078356
0.000783579
0.000770449
0.000770449
0.000783572
0.000770451
0.00078356
0.000781497
0.000781497
0.000781497
0.000755015
0.000755015
0.000755015
0.000755015
0.000770533
0.000783525
0.000781461
0.000772614
0.000770487
0.000772636
0.000783477
0.000783579
0.000770449
0.000770533
0.000781461
0.000783525
0.000772614
0.000772636
0.000770487
0.000783477
0.000783572
0.000783572
0.000771003
0.000770444
0.000770444
0.000748269
0.000748257
0.000748276
0.000748269
0.000748257
0.000746185
0.000746185
0.000746185
0.000735219
0.000748221
0.000746151
0.000748173
0.00073732
0.000748276
0.000735219
0.000746151
0.000748221
0.000748173
0.00073732
0.000748268
0.000748269
0.000735689
0.000735132
0.000735132
0.000783579
0.00077045
0.000783579
0.00077045
0.000783572
0.000783572
0.000771003
0.000770444
0.000770444
0.000752797
0.00076593
0.000752797
0.00076593
0.00076536
0.000752791
0.000752791
0.000765923
0.000765923
0.000770449
0.000783572
0.000770451
0.00078356
0.000770532
0.000783525
0.000781461
0.000772614
0.000770487
0.000772636
0.000783477
0.000770532
0.000783524
0.000781461
0.000772614
0.000770487
0.000772636
0.000783477
0.000765911
0.000752798
0.000765923
0.000752796
0.000765911
0.000752798
0.000765923
0.000752796
0.000765828
0.000763788
0.000752833
0.000754981
0.000765876
0.000763809
0.000752879
0.000765828
0.000763788
0.000752834
0.000754981
0.000765875
0.000763809
0.000752879
0.000783571
0.000783572
0.000771003
0.000770444
0.000770444
0.000783579
0.00077045
0.000752796
0.00076593
0.000765359
0.000752791
0.000752791
0.000765922
0.000765923
0.000752797
0.00076593
0.000770532
0.000783525
0.000781461
0.000772614
0.000770486
0.000772636
0.000783477
0.000770449
0.000783572
0.00077045
0.00078356
0.000770532
0.000781461
0.000783525
0.000772614
0.000772636
0.000770486
0.000783477
0.000765911
0.000752798
0.000765923
0.000752796
0.000765828
0.000763788
0.000752833
0.000754981
0.000765876
0.000763809
0.000752879
0.000765911
0.000752797
0.000765923
0.000752796
0.000765828
0.000763788
0.000754981
0.000752833
0.000763809
0.000765876
0.000752879
0.000770449
0.000783572
0.000770451
0.00078356
0.000770532
0.000781461
0.000783525
0.000772614
0.000772636
0.000770487
0.000783477
0.000770449
0.000783572
0.000770451
0.00078356
0.000765828
0.000763788
0.000752833
0.000754981
0.000765876
0.000763809
0.000752879
0.000765911
0.000752798
0.000765923
0.000752796
0.000765828
0.000763787
0.000754981
0.000752833
0.000763809
0.000765876
0.000752879
0.000765911
0.000752798
0.000765923
0.000752796
0.000783572
0.000783572
0.000771003
0.000770444
0.000770444
0.000783579
0.000770449
0.000752796
0.00076593
0.00076536
0.000752791
0.000752791
0.000765923
0.000765923
0.000752796
0.00076593
0.000770533
0.000781461
0.000783525
0.000772614
0.000772636
0.000770487
0.000783477
0.000770449
0.000783572
0.000770451
0.00078356
0.00077045
0.000783572
0.000770451
0.00078356
0.000765828
0.000763788
0.000754981
0.000752833
0.000763809
0.000765876
0.000752879
0.000765828
0.000763788
0.000754981
0.000752833
0.000763809
0.000765876
0.000752879
0.000765911
0.000752797
0.000765923
0.000752796
0.000765911
0.000752798
0.000765923
0.000752796
0.000783579
0.000770449
0.000783579
0.00077045
0.00076536
0.000752791
0.000752791
0.000765923
0.000765923
0.000752797
0.00076593
0.000752797
0.00076593
0.000748276
0.000748276
0.000748268
0.000748269
0.000748268
0.000748257
0.000748221
0.000746151
0.000748173
0.000748221
0.000746151
0.000748173
0.000748268
0.000748268
0.000748276
0.000748222
0.000746151
0.000748173
0.000748269
0.000748257
0.000746151
0.000748221
0.000748173
0.000735137
0.000748269
0.000748256
0.000735219
0.000746151
0.000748222
0.000737301
0.000748173
0.00073732
0.000735174
0.000735137
0.000748269
0.000748257
0.000735139
0.000748268
0.000748268
0.000748276
0.000735219
0.000746152
0.000748222
0.000737301
0.000748173
0.00073732
0.000735174
0.000735137
0.000748269
0.000748256
0.000735138
0.000748269
0.000748256
0.000735139
0.000748276
0.000735138
0.000748276
0.000735138
0.000774758
0.000770442
0.000770447
0.000774737
0.000774756
0.00077474
0.000770443
0.000779271
0.000779275
0.000783576
0.000779262
0.000783584
0.00077476
0.000770438
0.000774748
0.000774753
0.000770447
0.000779267
0.000779273
0.00078358
0.000783563
0.000779267
0.000779272
0.000783582
0.000779274
0.000774755
0.000774758
0.000770447
0.000770442
0.000774736
0.00077474
0.000774756
0.000770442
0.000779271
0.000779275
0.000783576
0.000779262
0.000783584
0.00077476
0.000770438
0.000774748
0.000774753
0.000770447
0.000779267
0.000779273
0.000783563
0.00078358
0.000779272
0.000779267
0.000783582
0.000779274
0.000774756
0.000774762
0.000770445
0.000770445
0.000774765
0.000774765
0.000770436
0.000779292
0.000783516
0.000779269
0.000783575
0.000779323
0.000779277
0.000783549
0.000779292
0.000783516
0.000779269
0.000783575
0.000779323
0.000779277
0.000783549
0.000774725
0.000770452
0.000774748
0.000770498
0.000774691
0.000774751
0.000770468
0.000774725
0.000770452
0.000774748
0.000770498
0.000774692
0.000774751
0.000770468
0.00077926
0.000783589
0.000783589
0.000779269
0.000779269
0.000783586
0.000743965
0.000748273
0.000743969
0.00074828
0.000743956
0.000743961
0.000743967
0.000748277
0.00074826
0.000748279
0.000743961
0.000743966
0.000743968
0.000743965
0.000748273
0.000743969
0.00074828
0.000743956
0.000743961
0.000743967
0.00074826
0.000748277
0.000748279
0.000743965
0.000743961
0.000743968
0.000739453
0.000735133
0.000735133
0.000739456
0.000739456
0.000735124
0.000743986
0.000748212
0.000748272
0.000743962
0.000748245
0.000744016
0.00074397
0.000743986
0.000748212
0.000748272
0.000743962
0.000748245
0.000744016
0.00074397
0.000743954
0.000748286
0.000748286
0.000748283
0.000743963
0.000743963
0.000739416
0.00073514
0.000739439
0.000735185
0.000739382
0.000739442
0.000735156
0.000739416
0.00073514
0.000739439
0.000735185
0.000739382
0.000739442
0.000735155
0.000779274
0.000774756
0.000779274
0.000774756
0.000774762
0.000770445
0.000770445
0.000774766
0.000774766
0.000770436
0.000779293
0.000783515
0.000779269
0.000783575
0.000779277
0.000779323
0.000783548
0.000779292
0.000783515
0.000779269
0.000783575
0.000779277
0.000779323
0.000783548
0.000774724
0.000770452
0.000774748
0.000770498
0.000774751
0.000770468
0.000774691
0.000774724
0.000770452
0.000774748
0.000770498
0.000774751
0.000770468
0.000774692
0.00077926
0.000783589
0.000783589
0.000779269
0.000779269
0.000783586
0.000757104
0.000761624
0.000757104
0.000761624
0.00076161
0.00076594
0.00076594
0.000765937
0.000761619
0.000761619
0.000757073
0.000752845
0.000757096
0.000752799
0.000757099
0.000757039
0.000752815
0.000757073
0.000752845
0.000757096
0.000752799
0.000757099
0.000757039
0.000752814
0.000761642
0.000765926
0.000765866
0.000761618
0.000765899
0.000761626
0.000761672
0.000761642
0.000765926
0.000765866
0.000761618
0.000765899
0.000761626
0.000761672
0.00075711
0.000752792
0.000752792
0.000757114
0.000757114
0.000752783
0.000774758
0.000770442
0.000770447
0.000774736
0.000774756
0.00077474
0.000770442
0.000779271
0.000779275
0.000783576
0.000779262
0.000783584
0.00077476
0.000770438
0.000774748
0.000774753
0.000770446
0.000779267
0.000779273
0.00078358
0.000783563
0.000779267
0.000779272
0.000783582
0.000761617
0.000765931
0.000765914
0.000761623
0.000765933
0.000761617
0.000761621
0.000757108
0.000757097
0.000752785
0.000752794
0.000757101
0.000761621
0.000765927
0.000761625
0.000765935
0.000761612
0.000757107
0.000757085
0.000752789
0.000752794
0.000752789
0.000757105
0.000757088
0.000761617
0.000765931
0.000765914
0.000761623
0.000765933
0.000761617
0.000761621
0.000757108
0.000757096
0.000752785
0.000757101
0.000752794
0.000761621
0.000765927
0.000761625
0.000765935
0.000761612
0.000757107
0.000757085
0.000752789
0.000752794
0.000757105
0.000757088
0.00075279
0.000774762
0.000770445
0.000770445
0.000774765
0.000774765
0.000770436
0.000779292
0.000783515
0.000779269
0.000783575
0.000779277
0.000779323
0.000783548
0.000779292
0.000783515
0.000779269
0.000783575
0.000779323
0.000779277
0.000783548
0.000774725
0.000770452
0.000774747
0.000770498
0.000774751
0.000774691
0.000770468
0.000774724
0.000770452
0.000774748
0.000770498
0.000774691
0.000774751
0.000770468
0.00077926
0.000783589
0.000783589
0.000779269
0.00077927
0.000783586
0.000779274
0.000774755
0.000757104
0.000761623
0.00076161
0.00076594
0.00076594
0.000765937
0.000761619
0.000761619
0.000757073
0.000752845
0.000757096
0.000752799
0.000757039
0.000757099
0.000752814
0.000757072
0.000752845
0.000757096
0.000752799
0.000757099
0.000757039
0.000752814
0.000761642
0.000765926
0.000765866
0.000761619
0.000761672
0.000765899
0.000761626
0.000761642
0.000765926
0.000765866
0.000761618
0.000765899
0.000761626
0.000761672
0.00075711
0.000752792
0.000752792
0.000757113
0.000757114
0.000752783
0.000757104
0.000761624
0.000774758
0.000770442
0.000770447
0.000774736
0.000774756
0.00077474
0.000770442
0.000779271
0.000779275
0.000783576
0.000779262
0.000783584
0.00077476
0.000770438
0.000774748
0.000774753
0.000770446
0.000779267
0.000779273
0.00078358
0.000783563
0.000779267
0.000779272
0.000783582
0.000761617
0.000765914
0.000765931
0.000761623
0.000765933
0.000761621
0.000761617
0.000757108
0.000757097
0.000752785
0.000752794
0.000757101
0.000761621
0.000765928
0.000761625
0.000765935
0.000761612
0.000757107
0.000757085
0.000752794
0.000752789
0.000752789
0.000757088
0.000757105
0.000761617
0.000765931
0.000765914
0.000761623
0.000765933
0.000761617
0.000761621
0.000757108
0.000757097
0.000752785
0.000757101
0.000752793
0.000761621
0.000765927
0.000761624
0.000765935
0.000761612
0.000757107
0.000757085
0.000752789
0.000752794
0.000757105
0.000757088
0.000752789
0.000774758
0.000770448
0.000770442
0.000774736
0.000774739
0.000774756
0.000770443
0.000779271
0.000779275
0.000783576
0.000779263
0.000783584
0.00077476
0.000770438
0.000774748
0.000774752
0.000770447
0.000779267
0.000779274
0.000783562
0.00078358
0.000779273
0.000779267
0.000783582
0.000774758
0.000770442
0.000770447
0.000774736
0.000774756
0.000774739
0.000770443
0.000779271
0.000779275
0.000783576
0.000779262
0.000783584
0.00077476
0.000770438
0.000774748
0.000774753
0.000770447
0.000779267
0.000779273
0.00078358
0.000783563
0.000779267
0.000779272
0.000783582
0.000761617
0.000765913
0.000765931
0.000761623
0.000765933
0.000761622
0.000761617
0.000757108
0.000757097
0.000752785
0.0007571
0.000752793
0.000761621
0.000765927
0.000761625
0.000765935
0.000761613
0.000757106
0.000757084
0.000752795
0.00075279
0.000757087
0.000757105
0.00075279
0.000761617
0.000765931
0.000765914
0.000761623
0.000765933
0.000761617
0.000761621
0.000757108
0.000757097
0.000752785
0.000757101
0.000752794
0.000761621
0.000765927
0.000761625
0.000765935
0.000761612
0.000757107
0.000757085
0.000752789
0.000752794
0.000757105
0.000757088
0.00075279
0.000774762
0.000770445
0.000770445
0.000774766
0.000774766
0.000770436
0.000779292
0.000783516
0.000779268
0.000783575
0.000779276
0.000779322
0.000783549
0.000779292
0.000783516
0.000779269
0.000783575
0.000779323
0.000779277
0.000783549
0.000774725
0.000770452
0.000774748
0.000770498
0.000774751
0.000774692
0.000770467
0.000774725
0.000770452
0.000774748
0.000770498
0.000774691
0.000774751
0.000770468
0.00077926
0.000783589
0.000783589
0.000779269
0.000779269
0.000783586
0.000779274
0.000774756
0.000757104
0.000761623
0.00076161
0.00076594
0.00076594
0.000765937
0.000761619
0.000761619
0.000757073
0.000752844
0.000757096
0.000752799
0.00075704
0.0007571
0.000752814
0.000757073
0.000752845
0.000757096
0.000752799
0.0007571
0.00075704
0.000752814
0.000761641
0.000765926
0.000765867
0.000761618
0.000761671
0.0007659
0.000761626
0.000761642
0.000765926
0.000765866
0.000761618
0.0007659
0.000761626
0.000761672
0.00075711
0.000752792
0.000752792
0.000757114
0.000757114
0.000752783
0.000757104
0.000761624
0.000774758
0.000770447
0.000770442
0.000774736
0.00077474
0.000774756
0.000770443
0.000779271
0.000779275
0.000783576
0.000779262
0.000783584
0.00077476
0.000770438
0.000774748
0.000774753
0.000770447
0.000779267
0.000779274
0.000783563
0.00078358
0.000779272
0.000779267
0.000783582
0.000774758
0.000770448
0.000770443
0.000774736
0.000774739
0.000774756
0.000770443
0.000779271
0.000779275
0.000783576
0.000779262
0.000783584
0.00077476
0.000770438
0.000774748
0.000774753
0.000770447
0.000779267
0.000779274
0.000783563
0.00078358
0.000779272
0.000779267
0.000783582
0.000761617
0.000765914
0.000765931
0.000761623
0.000765933
0.000761621
0.000761617
0.000757108
0.000757097
0.000752785
0.000757101
0.000752794
0.000761621
0.000765928
0.000761625
0.000765935
0.000761612
0.000757107
0.000757084
0.000752794
0.00075279
0.000757088
0.000757105
0.00075279
0.000761617
0.000765914
0.000765931
0.000761624
0.000765933
0.000761622
0.000761617
0.000757109
0.000757097
0.000752785
0.000757101
0.000752794
0.000761621
0.000765927
0.000761625
0.000765935
0.000761612
0.000757107
0.000757084
0.000752795
0.00075279
0.000757087
0.000757105
0.00075279
0.000779274
0.000774756
0.000779274
0.000774756
0.00076161
0.00076594
0.00076594
0.000765937
0.000761619
0.000761619
0.000757073
0.000752845
0.000757096
0.000752799
0.000752814
0.00075704
0.000757099
0.000757073
0.000752845
0.000757096
0.000752799
0.000752814
0.00075704
0.0007571
0.000761642
0.000765926
0.000765866
0.000761618
0.000765899
0.000761672
0.000761626
0.000761642
0.000765926
0.000765866
0.000761618
0.0007659
0.000761672
0.000761626
0.00075711
0.000752792
0.000752792
0.000752783
0.000757114
0.000757114
0.000757104
0.000761624
0.000757104
0.000761624
0.000743968
0.000743968
0.000743986
0.000748211
0.000748271
0.000743963
0.000748245
0.000743971
0.000744016
0.000743986
0.000748212
0.000748272
0.000743962
0.000748245
0.000743971
0.000744016
0.000743954
0.000748286
0.000748286
0.000748282
0.000743963
0.000743964
0.000743965
0.000748273
0.000743969
0.00074828
0.000743956
0.000743961
0.000743967
0.000748277
0.00074826
0.000743961
0.000748279
0.000743965
0.000743986
0.000748211
0.000748271
0.000743963
0.00074397
0.000748245
0.000744016
0.000743986
0.000748211
0.000748271
0.000743963
0.000744016
0.000748244
0.00074397
0.000743954
0.000748286
0.000748286
0.000743963
0.000748282
0.000743963
0.000743965
0.000748273
0.000743969
0.00074828
0.000743956
0.000743961
0.000743967
0.000748277
0.00074826
0.000743961
0.000748279
0.000743965
0.000739449
0.000739427
0.000735131
0.00073943
0.000739447
0.000743965
0.000748272
0.000743969
0.000743957
0.00074828
0.000743961
0.000743967
0.000748259
0.000748277
0.000743967
0.000748279
0.000743961
0.000739451
0.000739449
0.000739427
0.000735131
0.000735135
0.000739447
0.00073943
0.000735131
0.000743965
0.000748273
0.000743969
0.00074828
0.000743956
0.000743961
0.000743967
0.000748277
0.00074826
0.000748279
0.000743961
0.000743965
0.000739451
0.000735126
0.000739439
0.000739443
0.000735135
0.000743985
0.000748212
0.000748272
0.000743962
0.00074397
0.000748245
0.000744015
0.000743985
0.000748212
0.000748272
0.000743962
0.000744015
0.000748245
0.00074397
0.000743954
0.000748286
0.000748286
0.000743963
0.000748283
0.000743963
0.000743968
0.000739449
0.000739427
0.000735135
0.000735131
0.00073943
0.000739447
0.000735131
0.000743965
0.000748273
0.000743969
0.000743956
0.00074828
0.000743961
0.000743967
0.00074826
0.000748277
0.000743965
0.000748279
0.000743961
0.000739451
0.000735126
0.000739444
0.000735135
0.000739449
0.000739427
0.000735136
0.000735131
0.00073943
0.000739447
0.000735131
0.000743965
0.000748273
0.000743969
0.00074828
0.000743956
0.000743961
0.000743967
0.000748259
0.000748277
0.000748279
0.000743966
0.000743961
0.000739451
0.000735126
0.000739439
0.000739444
0.000735135
0.000743968
0.000739446
0.000743968
0.000739447
0.000781531
0.000781531
0.000772671
0.000772705
0.000772705
0.000772753
0.000781579
0.000779395
0.000783287
0.000783288
0.000779828
0.000779569
0.000779568
0.000783447
0.000746219
0.000746219
0.000737434
0.000746266
0.000744088
0.000747982
0.000747985
0.00074452
0.000748143
0.000744261
0.000744261
0.000779395
0.000783287
0.000783288
0.000779828
0.000779569
0.000779568
0.000783447
0.000756971
0.000756533
0.00075309
0.000753089
0.00075681
0.000756811
0.000752916
0.000779395
0.000783286
0.000783287
0.000779829
0.000779569
0.000779569
0.000783447
0.000756971
0.000756533
0.00075309
0.00075309
0.00075681
0.00075681
0.000752916
0.000779395
0.000783287
0.000783288
0.000779828
0.000779569
0.000779569
0.000783448
0.000756971
0.000756533
0.00075309
0.00075309
0.00075681
0.00075681
0.000752916
0.000756971
0.000756532
0.00075309
0.00075309
0.000752916
0.00075681
0.00075681
0.000744088
0.000747982
0.000747983
0.00074452
0.000748143
0.000744261
0.00074426
0.000744088
0.000747981
0.000747981
0.00074452
0.000744261
0.000748142
0.000744261
0.000744087
0.000747982
0.000747982
0.000744519
0.000744261
0.000748143
0.000744261
0.000781531
0.000781531
0.000772671
0.000772705
0.000772705
0.000772753
0.000781579
0.000781531
0.000781531
0.000772671
0.000772705
0.000772705
0.000772753
0.000781579
0.000781531
0.000781531
0.000772671
0.000772705
0.000772705
0.000772753
0.000781579
0.000763844
0.000755049
0.000755049
0.000763878
0.000763878
0.000763925
0.000755096
0.000763844
0.000755049
0.000755049
0.000763878
0.000763878
0.000763925
0.000755096
0.000763844
0.000755049
0.000755049
0.000763878
0.000763878
0.000763925
0.000755096
0.000763844
0.000755049
0.000755049
0.000763878
0.000763878
0.000763925
0.000755096
0.000774423
0.000770529
0.00077077
0.000774653
0.000774657
0.000774426
0.000770774
0.00077956
0.000783377
0.000779311
0.000783495
0.000779473
0.000779338
0.000783275
0.000774451
0.000770514
0.000774701
0.000770649
0.000774553
0.000774672
0.000770735
0.000779599
0.000779357
0.000783481
0.000783251
0.000779354
0.000779595
0.000783248
0.000774423
0.00077077
0.000770529
0.000774653
0.000774426
0.000774657
0.000770774
0.000779559
0.000783378
0.000779311
0.000783496
0.000779473
0.000779338
0.000783276
0.000774451
0.000770513
0.000774701
0.000770648
0.000774554
0.000774672
0.000770734
0.000779599
0.000779357
0.000783251
0.000783481
0.000779595
0.000779354
0.000783248
0.000774623
0.000774186
0.000770744
0.000770744
0.000774462
0.000774463
0.00077057
0.000746218
0.000746218
0.000737386
0.000737434
0.000746266
0.000746219
0.000746218
0.000737387
0.000737434
0.000746265
0.000746218
0.000746219
0.000737354
0.000737386
0.000737388
0.000737434
0.000746266
0.000739113
0.000739343
0.000735216
0.000735455
0.000739348
0.000739115
0.00073546
0.000744251
0.000748073
0.000748191
0.000744005
0.00074797
0.000744166
0.000744031
0.000744291
0.00074405
0.000748177
0.000747945
0.000747942
0.000744047
0.000744286
0.000739112
0.000739343
0.000735455
0.000735216
0.000739115
0.000739348
0.000735461
0.000744251
0.000748074
0.000748192
0.000744004
0.00074797
0.000744166
0.000744031
0.000744291
0.000744049
0.000747945
0.000748177
0.000747942
0.000744286
0.000744046
0.00073914
0.000735201
0.000739362
0.000735421
0.000739314
0.000738873
0.000735429
0.00073543
0.000739149
0.000739154
0.000735257
0.000774623
0.000774186
0.000770744
0.000770743
0.00077057
0.000774463
0.000774463
0.000761744
0.000762177
0.000765637
0.000765638
0.000765798
0.000761917
0.000761917
0.000774423
0.000770529
0.00077077
0.000774653
0.000774657
0.000774426
0.000770774
0.00077956
0.000783378
0.000779311
0.000783495
0.000779338
0.000779473
0.000783275
0.000774451
0.000770514
0.000774701
0.000770648
0.000774672
0.000774554
0.000770735
0.000779599
0.000779357
0.000783481
0.00078325
0.000779354
0.000779595
0.000783248
0.000774423
0.000770529
0.00077077
0.000774653
0.000774657
0.000774426
0.000770775
0.00077956
0.000783377
0.000779312
0.000783495
0.000779338
0.000779473
0.000783274
0.000774451
0.000770513
0.000774701
0.000770649
0.000774672
0.000770735
0.000774554
0.0007796
0.000779357
0.000783481
0.00078325
0.000779354
0.000779595
0.000783247
0.000761948
0.000765832
0.0007656
0.000761706
0.000765598
0.000761703
0.000761943
0.000756798
0.000752994
0.000757049
0.00075286
0.000756902
0.00075702
0.000753081
0.000761908
0.000765846
0.000765729
0.000761661
0.000761822
0.000765625
0.000761687
0.000756771
0.000757001
0.000752875
0.000753115
0.000757005
0.000756773
0.00075312
0.000761948
0.000765832
0.0007656
0.000761706
0.000765597
0.000761703
0.000761943
0.000756798
0.000752995
0.000757049
0.00075286
0.00075702
0.000756901
0.000753081
0.000761909
0.000765846
0.000765727
0.000761661
0.000765624
0.000761688
0.000761823
0.00075677
0.000757001
0.000752875
0.000753115
0.000757006
0.000756773
0.00075312
0.000774623
0.000774186
0.000770744
0.000770744
0.000774463
0.000774463
0.00077057
0.000761744
0.000762177
0.000765636
0.000765637
0.000761918
0.000765797
0.000761918
0.000774423
0.000770529
0.00077077
0.000774653
0.000774657
0.000774426
0.000770775
0.00077956
0.000783378
0.000779311
0.000783496
0.000779338
0.000779473
0.000783275
0.000774451
0.000770514
0.000774701
0.000770648
0.000774672
0.000774554
0.000770735
0.0007796
0.000779357
0.000783481
0.00078325
0.000779354
0.000779595
0.000783247
0.000774423
0.00077077
0.000770529
0.000774653
0.000774426
0.000774658
0.000770774
0.000779559
0.000783379
0.000779311
0.000783496
0.000779338
0.000779472
0.000783276
0.000774451
0.000770513
0.000774701
0.000770648
0.000774672
0.000770734
0.000774555
0.000779599
0.000779357
0.00078325
0.000783482
0.000779595
0.000779354
0.000783248
0.000761948
0.000765832
0.0007656
0.000761706
0.000765597
0.000761703
0.000761943
0.000756798
0.000752995
0.000757049
0.00075286
0.000756902
0.00075702
0.000753081
0.000761909
0.000765847
0.000765728
0.00076166
0.000761822
0.000765625
0.000761687
0.00075677
0.000757001
0.000752875
0.000753116
0.000757005
0.000756773
0.000753121
0.000761948
0.0007656
0.000765832
0.000761706
0.000765598
0.000761943
0.000761703
0.000756799
0.000752994
0.000757049
0.00075286
0.00075702
0.000756903
0.00075308
0.000761908
0.000765847
0.00076573
0.00076166
0.000765626
0.000761687
0.000761822
0.000756771
0.000757001
0.000753115
0.000752875
0.000756773
0.000757006
0.00075312
0.000774424
0.000770769
0.000770529
0.000774653
0.000774426
0.000774657
0.000770774
0.000779559
0.000783379
0.000779311
0.000783496
0.000779472
0.000779338
0.000783276
0.000774451
0.000770514
0.000774701
0.000770648
0.000774554
0.000774672
0.000770734
0.000779599
0.000779357
0.000783251
0.000783481
0.000779594
0.000779354
0.000783248
0.000761948
0.000765832
0.0007656
0.000761706
0.000765598
0.000761703
0.000761943
0.000756799
0.000752995
0.000757049
0.00075286
0.000753081
0.000756901
0.00075702
0.000761908
0.000765846
0.000765728
0.000761661
0.000765625
0.000761822
0.000761688
0.000756771
0.000757001
0.000752876
0.000753115
0.00075312
0.000757005
0.000756773
0.000761948
0.000765601
0.000765832
0.000761706
0.000765598
0.000761943
0.000761703
0.000756798
0.000752995
0.000757049
0.00075286
0.00075702
0.000756902
0.00075308
0.000761908
0.000765847
0.00076573
0.00076166
0.000765626
0.000761687
0.000761822
0.000756771
0.000757001
0.000753115
0.000752875
0.000756773
0.000757005
0.00075312
0.000774624
0.000774186
0.000770744
0.000770744
0.000774463
0.000774462
0.00077057
0.000761744
0.000762176
0.000765637
0.000765638
0.000761917
0.000765798
0.000761917
0.000774423
0.00077077
0.000770529
0.000774653
0.000774426
0.000774657
0.000770774
0.00077956
0.000783378
0.000779311
0.000783496
0.000779473
0.000779338
0.000783275
0.000774451
0.000770514
0.000774701
0.000770648
0.000774554
0.000774672
0.000770735
0.000779599
0.000779357
0.00078325
0.000783481
0.000779595
0.000779354
0.000783247
0.000761948
0.0007656
0.000765832
0.000761706
0.000765598
0.000761943
0.000761703
0.000756799
0.000752995
0.000757049
0.00075286
0.000753081
0.000756902
0.00075702
0.000761908
0.000765847
0.000765729
0.000761661
0.000765626
0.000761822
0.000761687
0.000756771
0.000757001
0.000753115
0.000752875
0.00075312
0.000756773
0.000757006
0.000761948
0.0007656
0.000765832
0.000761706
0.000765598
0.000761943
0.000761703
0.000756798
0.000752995
0.000757049
0.00075286
0.00075702
0.000756902
0.000753081
0.000761908
0.000765847
0.000765729
0.000761661
0.000765626
0.000761687
0.000761822
0.000756771
0.000757001
0.000753115
0.000752875
0.000756773
0.000757005
0.00075312
0.000761744
0.000762176
0.000765637
0.000765638
0.000765798
0.000761917
0.000761917
0.000744252
0.000748073
0.000748192
0.000744005
0.000744031
0.00074797
0.000744166
0.000744291
0.00074405
0.000748177
0.000747945
0.000744047
0.000747942
0.000744286
0.000744252
0.000748072
0.000748192
0.000744005
0.000747969
0.000744031
0.000744166
0.000744292
0.00074405
0.000748177
0.000747944
0.000747942
0.000744047
0.000744286
0.000744252
0.000748074
0.000748192
0.000744005
0.000744031
0.00074797
0.000744166
0.000744291
0.000744049
0.000748177
0.000747945
0.000744046
0.000747942
0.000744286
0.000744251
0.000748075
0.000748192
0.000744004
0.00074797
0.000744031
0.000744165
0.000744291
0.000744049
0.000747945
0.000748178
0.000747943
0.000744286
0.000744046
0.000739113
0.000739343
0.000735455
0.000735216
0.000739114
0.000739348
0.00073546
0.000744251
0.000748075
0.000748192
0.000744004
0.000744166
0.000747971
0.000744031
0.000744291
0.00074405
0.000747945
0.000748177
0.000744286
0.000747943
0.000744046
0.00073914
0.000735201
0.000739392
0.000735336
0.000739244
0.000739362
0.000735421
0.000739112
0.000739343
0.000735455
0.000735216
0.000739115
0.000739348
0.00073546
0.000744252
0.000748074
0.000748192
0.000744004
0.000744166
0.00074797
0.000744031
0.000744291
0.00074405
0.000747945
0.000748177
0.000744286
0.000747942
0.000744047
0.00073914
0.000735201
0.000739392
0.000735336
0.000739244
0.000739362
0.000735421
0.00167478
0.00167313
0.00167478
0.00167244
0.00167251
0.00167243
0.00167245
0.00167245
0.00167243
0.00167251
0.00167244
0.00167681
0.00167679
0.00167243
0.00167681
0.00167243
0.0016768
0.00167679
0.00167253
0.0016768
0.00167244
0.00167677
0.0016768
0.00167248
0.00167678
0.00167253
0.0016768
0.00167244
0.0016768
0.00167677
0.00167248
0.00167681
0.00167243
0.00167243
0.00167681
0.00167681
0.00167243
0.0016768
0.00167681
0.00167679
0.00167244
0.00167681
0.00167243
0.00167669
0.00167635
0.00167283
0.00167283
0.00167656
0.00167656
0.00167263
0.00167657
0.00167268
0.00167676
0.00167256
0.00167675
0.00167663
0.00167281
0.00167657
0.00167268
0.00167676
0.00167256
0.00167663
0.00167675
0.00167281
0.00166589
0.00166581
0.00166581
0.00166739
0.00163008
0.00163
0.00163
0.00163157
0.00159434
0.00159426
0.00159426
0.00159582
0.00155866
0.00155858
0.00155858
0.00156014
0.00152304
0.00152295
0.00152295
0.00152452
0.00148748
0.00148739
0.00148739
0.00148895
0.00145197
0.00145187
0.00145187
0.00145343
0.0014165
0.00141641
0.00141641
0.00141797
0.00138108
0.00138098
0.00138098
0.00138254
0.00134569
0.00134559
0.00134559
0.00134715
0.00131034
0.00131024
0.00131024
0.00131179
0.00127502
0.00127491
0.00127491
0.00127647
0.00123972
0.00123962
0.00123962
0.00124117
0.00120444
0.00120434
0.00120434
0.0012059
0.00116918
0.00116909
0.00116909
0.00117064
0.00113393
0.00113385
0.00113385
0.0011354
0.0010987
0.00109862
0.00109862
0.00110017
0.00106347
0.00106339
0.00106339
0.00106495
0.00102825
0.00102817
0.00102817
0.00102973
0.000993025
0.00099295
0.00099295
0.00099451
0.000957797
0.000957725
0.000957725
0.000959286
0.000922563
0.000922493
0.000922493
0.000924056
0.000887318
0.000887252
0.000887252
0.000888817
0.000852061
0.000851997
0.000851997
0.000853564
0.000816788
0.000816728
0.000816727
0.000818297
0.00166739
0.0016373
0.00166582
0.00166581
0.00163895
0.00163895
0.00166739
0.0016373