/*--------------------------------*- C++ -*----------------------------------*\
| =========                 |                                                 |
| \\      /  F ield         | OpenFOAM: The Open Source CFD Toolbox           |
|  \\    /   O peration     | Version:  2312                                  |
|   \\  /    A nd           | Website:  www.openfoam.com                      |
|    \\/     M anipulation  |                                                 |
\*---------------------------------------------------------------------------*/
FoamFile
{
    version     2.0;
    format      ascii;
    arch        "LSB;label=32;scalar=64";
    class       volVectorField;
    location    "600";
    object      U;
}
// * * * * * * * * * * * * * * * * * * * * * * * * * * * * * * * * * * * * * //

dimensions      [0 1 -1 0 0 0 0];

internalField   nonuniform List<vector> 
43496
(
(-1.66066e-05 -2.74532e-07 0.0914272)
(-5.84943e-06 3.36407e-06 0.0716036)
(-6.11819e-06 1.13167e-05 0.107488)
(-7.77634e-06 2.04175e-05 0.0930677)
(-2.73001e-05 -6.78179e-07 0.098581)
(-1.44063e-05 -2.59564e-06 0.109908)
(-1.66012e-05 3.17405e-07 0.0914271)
(-1.2036e-05 1.23648e-06 0.0822862)
(-2.72944e-05 7.23319e-07 0.0985808)
(-1.12769e-05 6.11311e-06 0.107486)
(-1.43955e-05 2.60532e-06 0.109907)
(-2.03938e-05 7.79335e-06 0.0930664)
(-4.16112e-05 4.16223e-05 0.104317)
(-9.86583e-06 6.93342e-06 0.087605)
(-6.9276e-06 9.8762e-06 0.0876078)
(-3.34665e-06 5.87663e-06 0.071604)
(-1.20568e-06 1.20511e-05 0.0822865)
(4.26322e-06 -7.03287e-07 0.0768853)
(5.01657e-06 -2.44855e-07 0.0913835)
(-1.59997e-05 -1.12839e-06 0.0899498)
(-7.44169e-06 1.5173e-07 0.0787027)
(5.53165e-06 -5.42716e-07 0.0899002)
(3.86809e-06 -1.77943e-07 0.0786623)
(-7.43733e-06 5.44075e-07 0.0769321)
(4.9209e-06 -8.89141e-07 0.0684137)
(-1.22993e-05 -1.37943e-06 0.0858856)
(5.8702e-06 -7.5773e-07 0.0858295)
(-6.08249e-06 1.72851e-07 0.0684745)
(4.33623e-06 -2.56702e-06 0.0715505)
(4.24571e-06 7.18348e-07 0.0768848)
(5.01737e-06 2.54863e-07 0.0913835)
(-7.43961e-06 -1.12398e-07 0.0787026)
(-1.59837e-05 1.17277e-06 0.0899494)
(3.86753e-06 1.91058e-07 0.0786622)
(5.51643e-06 5.54709e-07 0.0899003)
(-7.42001e-06 -4.99761e-07 0.0769315)
(4.91406e-06 9.12311e-07 0.0684157)
(-1.22713e-05 1.41549e-06 0.0858856)
(7.18096e-06 -6.2295e-07 0.0822354)
(5.86309e-06 7.799e-07 0.0858303)
(-6.05977e-06 -1.28269e-07 0.0684762)
(3.13643e-06 -3.12326e-06 0.0836177)
(-3.59268e-06 5.12251e-06 0.068375)
(-5.13898e-06 3.58053e-06 0.0683807)
(2.64724e-06 -4.06115e-06 0.0683195)
(4.0699e-06 -2.64319e-06 0.0683249)
(-7.23953e-06 7.22433e-06 0.0836639)
(7.83263e-06 -3.80241e-06 0.091673)
(-8.0638e-06 4.0207e-06 0.0816084)
(3.5866e-06 -3.46579e-06 0.0875569)
(-2.39858e-05 1.42152e-05 0.0963245)
(3.87776e-06 -3.00932e-06 0.0815579)
(1.10543e-05 -5.53102e-06 0.0962765)
(-1.67676e-05 1.02687e-05 0.0917201)
(3.80626e-06 -7.81941e-06 0.0916797)
(-4.02918e-06 8.05078e-06 0.0816145)
(3.45542e-06 -3.58607e-06 0.0875585)
(-1.42292e-05 2.39825e-05 0.0963281)
(5.53231e-06 -1.10151e-05 0.0962794)
(3.00668e-06 -3.86518e-06 0.0815631)
(-1.02885e-05 1.67709e-05 0.0917271)
(2.5603e-06 -4.3467e-06 0.0715504)
(6.16665e-07 -7.17131e-06 0.0822358)
(-1.16385e-05 -3.47498e-06 0.115012)
(-1.00309e-05 1.00542e-05 0.112469)
(-1.16333e-05 3.49923e-06 0.11501)
(3.10082e-06 -8.77881e-06 0.0930117)
(-1.16661e-05 4.96115e-05 0.0995932)
(3.80059e-06 -3.18392e-05 0.0995327)
(2.74015e-05 -1.19267e-06 0.102872)
(8.05785e-06 -4.1963e-07 0.0985248)
(-2.72102e-05 -2.52596e-06 0.0976284)
(-5.22866e-05 -1.00354e-06 0.10362)
(8.98729e-06 -8.59477e-07 0.097563)
(2.58975e-05 -8.70142e-07 0.103526)
(-5.29763e-05 -3.56726e-06 0.102988)
(3.12568e-05 3.84903e-07 0.101328)
(-2.46889e-05 -5.06152e-06 0.0956755)
(1.03763e-05 5.24144e-08 0.095608)
(-5.24053e-05 -7.69684e-06 0.101433)
(2.73995e-05 1.18632e-06 0.102871)
(8.05928e-06 4.15956e-07 0.0985247)
(-5.22819e-05 1.04896e-06 0.10362)
(-2.71966e-05 2.56965e-06 0.0976279)
(2.59037e-05 8.58334e-07 0.103526)
(8.9758e-06 8.58072e-07 0.0975632)
(-5.29859e-05 3.61117e-06 0.102987)
(3.12811e-05 -3.85272e-07 0.101328)
(-2.46583e-05 5.08939e-06 0.0956748)
(8.78181e-06 -3.10916e-06 0.0930108)
(-4.96072e-05 1.16725e-05 0.099591)
(1.03754e-05 -2.98799e-08 0.0956083)
(-5.23926e-05 7.71915e-06 0.101431)
(3.18755e-05 -3.81854e-06 0.0995309)
(1.0145e-05 -1.01647e-05 0.0975423)
(2.38223e-05 -2.38378e-05 0.104202)
(-2.6337e-05 4.13724e-05 0.101507)
(-4.13809e-05 2.63419e-05 0.10151)
(2.74465e-05 -1.10364e-05 0.101443)
(1.1048e-05 -2.7461e-05 0.10144)
(-2.21795e-05 2.21826e-05 0.0975978)
(-9.59676e-06 -9.58608e-06 0.112516)
(1.11374e-05 -5.98184e-06 0.107501)
(-5.97491e-06 1.11318e-05 0.1075)
(-2.3983e-05 -2.39736e-05 0.104199)
(-9.96287e-06 -9.95424e-06 0.112479)
(1.12841e-05 -6.10746e-06 0.107492)
(-6.10298e-06 1.12892e-05 0.107491)
(-2.3851e-05 -2.38432e-05 0.104201)
(2.39741e-05 2.39892e-05 0.104199)
(-4.16806e-05 -4.16699e-05 0.104316)
(-5.95323e-06 -1.10994e-05 0.107499)
(5.95267e-06 -1.11102e-05 0.107499)
(-6.05083e-06 -1.12159e-05 0.107492)
(6.04699e-06 -1.12352e-05 0.107491)
(-2.39929e-05 2.39589e-05 0.104199)
(4.16825e-05 -4.1681e-05 0.104317)
(-1.11338e-05 -5.96649e-06 0.107501)
(-1.10973e-05 5.95428e-06 0.107497)
(-1.12518e-05 -6.06048e-06 0.107493)
(-1.12128e-05 6.05398e-06 0.10749)
(1.1117e-05 5.95179e-06 0.107498)
(1.12579e-05 -6.07822e-06 0.107494)
(1.12154e-05 6.05945e-06 0.107492)
(2.3971e-05 -2.39956e-05 0.104198)
(-4.16626e-05 4.16766e-05 0.104316)
(5.97506e-06 1.11326e-05 0.1075)
(-6.0665e-06 1.12493e-05 0.107493)
(6.07488e-06 1.12502e-05 0.107493)
(4.16656e-05 4.16716e-05 0.104316)
(2.38501e-05 2.38648e-05 0.104202)
(-6.07839e-06 -1.12573e-05 0.10749)
(6.08161e-06 -1.12494e-05 0.10749)
(-2.38782e-05 2.38498e-05 0.104202)
(-1.12905e-05 -6.0944e-06 0.107491)
(-1.12495e-05 6.0874e-06 0.107488)
(1.1279e-05 6.08478e-06 0.107488)
(2.38439e-05 -2.38618e-05 0.104201)
(6.10133e-06 1.12847e-05 0.10749)
(-3.09991e-07 -1.66452e-05 0.091396)
(6.51128e-07 7.16208e-06 0.0821925)
(-1.184e-06 -1.2111e-05 0.0822523)
(-2.68169e-07 5.03601e-06 0.0913444)
(-2.59897e-06 4.27013e-06 0.0715102)
(3.241e-06 -5.89194e-06 0.0715755)
(-1.66479e-05 -2.75662e-07 0.0913961)
(7.14422e-06 6.81921e-07 0.0821933)
(-1.21159e-05 -1.17296e-06 0.082253)
(5.0372e-06 -2.4988e-07 0.0913445)
(9.59748e-06 -9.58622e-06 0.112516)
(-9.59233e-06 9.60232e-06 0.112514)
(9.60251e-06 9.60232e-06 0.112514)
(-9.87586e-06 -9.86313e-06 0.112488)
(9.88278e-06 -9.87137e-06 0.112488)
(-9.86449e-06 9.8833e-06 0.112487)
(9.88779e-06 9.88898e-06 0.112487)
(2.72613e-05 -6.79099e-07 0.0985604)
(-8.77369e-06 3.15325e-06 0.0929755)
(1.39481e-05 -2.50618e-06 0.109933)
(1.11768e-05 -6.01174e-06 0.107498)
(2.04619e-05 -7.79806e-06 0.0930398)
(1.40551e-05 -2.52796e-06 0.109927)
(-8.12665e-06 -4.43991e-07 0.0984988)
(4.30999e-06 -2.63963e-06 0.0715123)
(-5.90586e-06 3.31583e-06 0.0715732)
(-7.17079e-07 2.72575e-05 0.09856)
(-2.50317e-06 1.39476e-05 0.109931)
(3.14296e-06 -8.77413e-06 0.0929754)
(-6.00294e-06 1.11728e-05 0.107497)
(-2.51985e-06 1.40453e-05 0.109926)
(-7.78148e-06 2.0465e-05 0.0930389)
(-4.02461e-07 -8.14623e-06 0.0984983)
(-3.54945e-06 -3.51921e-06 0.0875182)
(-3.52462e-06 -3.54236e-06 0.0875172)
(4.17293e-05 4.17305e-05 0.104315)
(9.95634e-06 6.91826e-06 0.0875759)
(6.93304e-06 9.95397e-06 0.0875744)
(6.15195e-07 7.19527e-06 0.0822263)
(-2.6643e-07 5.0179e-06 0.0913756)
(-2.54107e-06 4.29251e-06 0.0715408)
(7.16387e-06 6.39662e-07 0.0822271)
(5.01774e-06 -2.46374e-07 0.0913757)
(9.97352e-06 -9.95945e-06 0.11248)
(-9.95851e-06 9.97331e-06 0.112478)
(9.9502e-06 9.9773e-06 0.112478)
(2.72588e-05 -6.68551e-07 0.0985814)
(-8.77514e-06 3.11483e-06 0.0930045)
(1.4329e-05 -2.60315e-06 0.109913)
(-8.02894e-06 -4.39514e-07 0.0985198)
(1.44184e-05 -2.615e-06 0.109908)
(4.33073e-06 -2.58093e-06 0.0715429)
(-7.16237e-07 2.72545e-05 0.0985809)
(-2.58739e-06 1.43322e-05 0.109912)
(3.10839e-06 -8.77389e-06 0.0930045)
(-4.05519e-07 -8.04768e-06 0.0985194)
(-2.60638e-06 1.44075e-05 0.109907)
(-3.58656e-06 -3.4802e-06 0.0875502)
(-3.48236e-06 -3.57656e-06 0.0875492)
(4.16487e-05 4.16053e-05 0.104318)
(9.88196e-06 6.93769e-06 0.0876078)
(6.953e-06 9.88553e-06 0.0876062)
(2.61667e-06 4.34265e-06 0.0715115)
(-3.29528e-06 -5.93966e-06 0.0715734)
(4.31343e-06 2.64682e-06 0.0715116)
(-5.92811e-06 -3.29861e-06 0.0715731)
(3.49207e-06 3.54478e-06 0.0875177)
(3.554e-06 3.52076e-06 0.0875167)
(-4.17379e-05 -4.17265e-05 0.104315)
(-6.90061e-06 -9.93606e-06 0.0875764)
(-9.97304e-06 -6.91753e-06 0.0875743)
(-3.32111e-06 -5.91246e-06 0.0715886)
(2.58532e-06 4.35418e-06 0.0715268)
(-5.8996e-06 -3.3238e-06 0.0715883)
(4.32436e-06 2.61484e-06 0.071527)
(2.39006e-05 2.39163e-05 0.1042)
(-6.91089e-06 -9.89993e-06 0.0875923)
(-9.93845e-06 -6.92611e-06 0.0875902)
(3.46991e-06 3.56379e-06 0.0875337)
(3.57276e-06 3.49875e-06 0.0875327)
(2.8376e-07 -1.66487e-05 0.0913961)
(-6.37872e-07 7.13134e-06 0.0821922)
(1.1316e-06 -1.21019e-05 0.0822536)
(2.43782e-07 5.03624e-06 0.0913446)
(-7.07918e-07 -2.72928e-05 0.0985598)
(3.1439e-06 8.7892e-06 0.0929742)
(-2.50274e-06 -1.39318e-05 0.109933)
(-5.98774e-06 -1.11394e-05 0.107496)
(-7.7801e-06 -2.0447e-05 0.0930384)
(-2.52234e-06 -1.40325e-05 0.109927)
(-4.3451e-07 8.16852e-06 0.0984983)
(6.81681e-07 -2.72991e-05 0.0985601)
(-3.13654e-06 8.7788e-06 0.0929741)
(2.49691e-06 -1.39356e-05 0.109933)
(5.97906e-06 -1.11536e-05 0.107496)
(7.74084e-06 -2.04518e-05 0.0930391)
(2.51878e-06 -1.40343e-05 0.109927)
(4.15876e-07 8.17061e-06 0.0984985)
(-2.66245e-07 5.02439e-06 0.09136)
(-1.20111e-06 -1.20832e-05 0.0822691)
(6.32183e-07 7.17462e-06 0.0822094)
(-3.08639e-07 -1.66275e-05 0.0914115)
(2.42337e-07 5.02352e-06 0.0913602)
(1.14839e-06 -1.20734e-05 0.0822704)
(-6.17433e-07 7.13978e-06 0.0822092)
(2.82882e-07 -1.66305e-05 0.0914116)
(-4.3431e-07 8.1169e-06 0.0985088)
(-6.02007e-06 -1.11831e-05 0.107494)
(-7.78229e-06 -2.04244e-05 0.0930528)
(-2.56349e-06 -1.42209e-05 0.109917)
(3.12457e-06 8.78927e-06 0.0929887)
(-2.54386e-06 -1.41317e-05 0.109923)
(-7.09695e-07 -2.72974e-05 0.0985702)
(4.15339e-07 8.11852e-06 0.098509)
(6.01978e-06 -1.11887e-05 0.107494)
(7.74423e-06 -2.04288e-05 0.0930535)
(2.55794e-06 -1.42237e-05 0.109917)
(-3.11811e-06 8.77751e-06 0.0929886)
(2.54447e-06 -1.41345e-05 0.109923)
(6.8244e-07 -2.73025e-05 0.0985705)
(-3.5251e-06 3.5217e-06 0.0875163)
(-3.5559e-06 3.50985e-06 0.0875186)
(4.17414e-05 -4.1739e-05 0.104316)
(6.89465e-06 -9.93884e-06 0.0875756)
(9.96234e-06 -6.93694e-06 0.0875767)
(-4.3157e-06 2.64194e-06 0.071512)
(5.91833e-06 -3.32012e-06 0.0715741)
(3.26649e-06 -5.86442e-06 0.0715907)
(-2.56849e-06 4.2811e-06 0.0715255)
(-2.39246e-05 2.38934e-05 0.1042)
(6.90629e-06 -9.90215e-06 0.0875914)
(9.92019e-06 -6.94623e-06 0.0875926)
(-3.50402e-06 3.53975e-06 0.0875323)
(-3.57159e-06 3.48699e-06 0.0875346)
(5.88876e-06 -3.34489e-06 0.0715894)
(-4.32607e-06 2.60944e-06 0.0715273)
(-2.73004e-05 -6.75437e-07 0.09856)
(8.7836e-06 3.16735e-06 0.0929749)
(-1.39428e-05 -2.49917e-06 0.109932)
(-1.11746e-05 -5.99611e-06 0.107498)
(-2.0483e-05 -7.78527e-06 0.0930384)
(-1.40427e-05 -2.51754e-06 0.109927)
(8.17225e-06 -4.26726e-07 0.0984983)
(-1.66445e-05 3.2263e-07 0.091396)
(7.15072e-06 -6.63028e-07 0.0821933)
(-1.20908e-05 1.19586e-06 0.0822526)
(5.03669e-06 2.53228e-07 0.0913445)
(-2.72946e-05 7.1891e-07 0.0985598)
(-1.39349e-05 2.50013e-06 0.109931)
(8.7707e-06 -3.15091e-06 0.0929746)
(-1.11375e-05 5.98746e-06 0.107495)
(-1.40336e-05 2.52209e-06 0.109926)
(-2.04424e-05 7.7922e-06 0.0930375)
(8.17388e-06 4.1345e-07 0.0984983)
(5.02673e-06 -2.46781e-07 0.0913601)
(-1.20811e-05 -1.18967e-06 0.0822698)
(7.15638e-06 6.6076e-07 0.0822103)
(-1.66289e-05 -2.75077e-07 0.0914116)
(8.11876e-06 -4.25108e-07 0.0985088)
(-1.12183e-05 -6.03304e-06 0.107496)
(-2.04594e-05 -7.78622e-06 0.0930528)
(-1.42331e-05 -2.55979e-06 0.109917)
(8.78268e-06 3.14771e-06 0.0929894)
(-1.41458e-05 -2.54297e-06 0.109922)
(-2.73041e-05 -6.79058e-07 0.0985704)
(5.02588e-06 2.53956e-07 0.09136)
(-1.20636e-05 1.21501e-06 0.0822694)
(7.16163e-06 -6.46464e-07 0.0822102)
(-1.66253e-05 3.21197e-07 0.0914115)
(8.12039e-06 4.17042e-07 0.0985088)
(-1.11817e-05 6.02514e-06 0.107493)
(-1.42225e-05 2.56654e-06 0.109917)
(-2.04223e-05 7.79748e-06 0.0930519)
(-1.41375e-05 2.54512e-06 0.109921)
(8.77173e-06 -3.13382e-06 0.0929891)
(-2.72982e-05 7.20909e-07 0.0985702)
(1.66056e-05 -2.45092e-07 0.0913969)
(-7.13031e-06 7.05205e-07 0.0821932)
(1.20948e-05 -1.22029e-06 0.0822537)
(-4.99303e-06 -3.06535e-07 0.0913441)
(2.72746e-05 7.13057e-07 0.0985601)
(1.39477e-05 2.49561e-06 0.109932)
(-8.76096e-06 -3.16387e-06 0.092975)
(1.11515e-05 5.99455e-06 0.107496)
(1.40469e-05 2.52398e-06 0.109927)
(2.0443e-05 7.78229e-06 0.0930388)
(-8.14529e-06 4.06495e-07 0.0984987)
(1.66338e-05 3.34794e-07 0.0913963)
(-7.14422e-06 -6.73178e-07 0.0821934)
(1.21036e-05 1.1823e-06 0.0822531)
(-5.02362e-06 2.19196e-07 0.0913446)
(-8.07487e-06 -4.3907e-07 0.0985092)
(1.12192e-05 -6.04861e-06 0.107497)
(2.04356e-05 -7.79921e-06 0.0930541)
(1.42457e-05 -2.56937e-06 0.109918)
(-8.77025e-06 3.13418e-06 0.09299)
(1.41497e-05 -2.55369e-06 0.109923)
(2.72638e-05 -6.77393e-07 0.0985709)
(-4.98149e-06 -3.02408e-07 0.0913597)
(1.20643e-05 -1.23701e-06 0.0822705)
(-7.1385e-06 6.84081e-07 0.0822101)
(1.65856e-05 -2.41343e-07 0.0914125)
(-8.09497e-06 4.09032e-07 0.0985091)
(1.12072e-05 6.02232e-06 0.107493)
(1.42349e-05 2.57325e-06 0.109917)
(2.04276e-05 7.78175e-06 0.0930532)
(1.415e-05 2.53394e-06 0.109922)
(-8.76028e-06 -3.14231e-06 0.0929895)
(2.72789e-05 7.16718e-07 0.0985707)
(-5.0131e-06 2.20696e-07 0.0913601)
(1.20825e-05 1.20056e-06 0.0822699)
(-7.15748e-06 -6.51459e-07 0.0822103)
(1.6613e-05 3.36772e-07 0.0914118)
(3.53851e-06 -3.51518e-06 0.0875169)
(3.49962e-06 -3.52952e-06 0.0875184)
(-4.1726e-05 4.17357e-05 0.104315)
(-9.94307e-06 6.9187e-06 0.0875733)
(-6.90842e-06 9.9432e-06 0.087576)
(2.6344e-06 -4.31921e-06 0.0715122)
(-3.29956e-06 5.92662e-06 0.0715735)
(-5.87842e-06 3.34132e-06 0.0715884)
(4.32023e-06 -2.60937e-06 0.0715277)
(2.38979e-05 -2.39191e-05 0.1042)
(-9.90574e-06 6.92922e-06 0.0875892)
(-6.92131e-06 9.91217e-06 0.0875918)
(3.55662e-06 -3.4943e-06 0.0875329)
(3.48054e-06 -3.54921e-06 0.0875345)
(-3.32354e-06 5.89779e-06 0.0715888)
(2.60371e-06 -4.32699e-06 0.0715275)
(6.8658e-07 2.72489e-05 0.0985603)
(2.50011e-06 1.39481e-05 0.109932)
(-3.16757e-06 -8.77268e-06 0.0929753)
(6.00997e-06 1.11798e-05 0.107497)
(2.52701e-06 1.40474e-05 0.109926)
(7.7964e-06 2.04689e-05 0.0930389)
(4.25948e-07 -8.133e-06 0.0984985)
(-3.46389e-07 1.66009e-05 0.0913965)
(6.67494e-07 -7.14286e-06 0.0821935)
(-1.17477e-06 1.21089e-05 0.082253)
(-2.1069e-07 -5.00625e-06 0.0913438)
(2.82186e-07 1.65793e-05 0.0913972)
(-6.8971e-07 -7.13922e-06 0.0821939)
(1.19575e-06 1.21074e-05 0.0822536)
(2.58925e-07 -4.98389e-06 0.0913434)
(-4.0388e-07 -8.09266e-06 0.0985088)
(-6.04377e-06 1.12178e-05 0.107495)
(-2.56276e-06 1.42348e-05 0.109916)
(-7.78399e-06 2.04437e-05 0.0930532)
(-2.54533e-06 1.41511e-05 0.109921)
(3.12673e-06 -8.77071e-06 0.0929899)
(-7.18392e-07 2.72601e-05 0.0985704)
(4.26565e-07 -8.08002e-06 0.098509)
(6.04377e-06 1.1218e-05 0.107495)
(2.57548e-06 1.42383e-05 0.109916)
(7.79834e-06 2.04456e-05 0.0930533)
(2.54271e-06 1.41478e-05 0.109922)
(-3.14837e-06 -8.77056e-06 0.0929898)
(6.86429e-07 2.72505e-05 0.0985707)
(-2.08485e-07 -4.99429e-06 0.0913594)
(-1.18584e-06 1.20714e-05 0.0822698)
(6.46168e-07 -7.14844e-06 0.0822105)
(-3.45146e-07 1.65823e-05 0.0914121)
(2.5829e-07 -4.97155e-06 0.091359)
(1.21349e-06 1.2077e-05 0.0822704)
(-6.6914e-07 -7.15062e-06 0.0822108)
(2.81378e-07 1.6559e-05 0.0914127)
(-4.31968e-06 -2.63672e-06 0.0715124)
(5.92413e-06 3.30292e-06 0.0715739)
(-2.65293e-06 -4.31052e-06 0.0715125)
(3.31975e-06 5.91717e-06 0.0715738)
(-2.39091e-05 -2.3898e-05 0.1042)
(9.92372e-06 6.92934e-06 0.0875918)
(6.94384e-06 9.91792e-06 0.0875903)
(-3.56639e-06 -3.49681e-06 0.0875343)
(-3.50239e-06 -3.55962e-06 0.0875332)
(5.89902e-06 3.32632e-06 0.0715892)
(-4.33067e-06 -2.60503e-06 0.0715277)
(3.34571e-06 5.88898e-06 0.0715891)
(-2.62189e-06 -4.32124e-06 0.0715279)
(2.5561e-06 4.36644e-06 0.0715421)
(4.33709e-06 2.58521e-06 0.0715423)
(3.45291e-06 3.58615e-06 0.0875497)
(3.5967e-06 3.47908e-06 0.0875486)
(-6.00238e-07 7.15492e-06 0.082226)
(2.41665e-07 5.01616e-06 0.0913758)
(3.10707e-06 8.80029e-06 0.0930032)
(-2.58175e-06 -1.43135e-05 0.109913)
(-4.35365e-07 8.07313e-06 0.0985194)
(-3.09948e-06 8.78157e-06 0.0930031)
(2.58976e-06 -1.43148e-05 0.109913)
(4.1255e-07 8.07787e-06 0.0985196)
(-3.48551e-06 3.56215e-06 0.0875483)
(-3.59358e-06 3.46621e-06 0.0875506)
(-4.3382e-06 2.57748e-06 0.0715426)
(8.78859e-06 3.13386e-06 0.0930039)
(-1.43266e-05 -2.57993e-06 0.109913)
(8.07559e-06 -4.24453e-07 0.0985194)
(7.1713e-06 -6.29439e-07 0.082227)
(5.01773e-06 2.55069e-07 0.0913756)
(-1.43183e-05 2.58823e-06 0.109912)
(8.77803e-06 -3.11709e-06 0.0930035)
(8.07763e-06 4.19025e-07 0.0985194)
(1.65602e-05 -2.38936e-07 0.091428)
(-7.15565e-06 6.64282e-07 0.0822269)
(-4.96948e-06 -3.04e-07 0.0913753)
(2.72697e-05 7.14819e-07 0.0985812)
(1.43316e-05 2.56247e-06 0.109912)
(-8.76498e-06 -3.12228e-06 0.093004)
(1.1257e-05 6.10965e-06 0.107488)
(-8.04981e-06 4.09444e-07 0.0985197)
(1.44083e-05 2.61907e-06 0.109907)
(2.04117e-05 7.78578e-06 0.0930678)
(1.65858e-05 3.33693e-07 0.0914274)
(-7.18049e-06 -6.33719e-07 0.0822272)
(-5.00098e-06 2.21696e-07 0.0913757)
(1.20439e-05 1.21371e-06 0.0822867)
(3.57697e-06 -3.47468e-06 0.0875489)
(3.46353e-06 -3.57598e-06 0.0875505)
(2.57457e-06 -4.33823e-06 0.0715428)
(6.88083e-07 2.72464e-05 0.0985813)
(2.58501e-06 1.43222e-05 0.109912)
(-3.12804e-06 -8.77653e-06 0.0930043)
(6.11827e-06 1.13011e-05 0.107488)
(4.27918e-07 -8.03565e-06 0.0985196)
(2.61627e-06 1.44109e-05 0.109907)
(7.79759e-06 2.04225e-05 0.0930677)
(-3.43392e-07 1.65569e-05 0.0914276)
(6.25304e-07 -7.15876e-06 0.0822273)
(-2.08618e-07 -4.98324e-06 0.091375)
(2.80095e-07 1.65348e-05 0.0914283)
(-6.46238e-07 -7.1609e-06 0.0822277)
(2.58397e-07 -4.96264e-06 0.0913746)
(1.22671e-06 1.20421e-05 0.0822872)
(-4.34531e-06 -2.57641e-06 0.071543)
(5.8725e-06 3.35088e-06 0.0716043)
(-2.59199e-06 -4.33218e-06 0.0715432)
(3.36866e-06 5.86048e-06 0.0716042)
(-6.99563e-07 4.27228e-06 0.0768514)
(1.21215e-07 -7.46725e-06 0.0786687)
(-1.14422e-06 -1.60369e-05 0.0899173)
(-2.67094e-07 5.02947e-06 0.0913522)
(-1.98773e-07 3.8706e-06 0.0786281)
(-5.51619e-07 5.54368e-06 0.0898675)
(5.38318e-07 -7.46887e-06 0.0768984)
(2.10419e-07 -6.12043e-06 0.0684363)
(-1.17444e-06 -1.21237e-05 0.0822439)
(-7.44331e-07 5.84902e-06 0.0857866)
(-1.36668e-06 -1.23741e-05 0.0858429)
(-8.50325e-07 4.92602e-06 0.0683752)
(-8.66056e-07 4.92615e-06 0.0683828)
(-1.37322e-06 -1.23578e-05 0.0858514)
(6.4142e-07 7.16772e-06 0.082201)
(-7.53275e-07 5.85555e-06 0.0857951)
(1.97705e-07 -6.1122e-06 0.0684438)
(5.45306e-07 -7.47496e-06 0.07689)
(-3.11223e-07 -1.66558e-05 0.0913882)
(-1.98974e-07 3.87559e-06 0.0786196)
(-5.46065e-07 5.55159e-06 0.0898594)
(1.20684e-07 -7.46884e-06 0.0786602)
(-1.14129e-06 -1.60459e-05 0.0899092)
(-6.9134e-07 4.27347e-06 0.076843)
(3.22704e-06 -5.90456e-06 0.0715678)
(-2.58308e-06 4.27533e-06 0.0715178)
(4.27664e-06 -6.7045e-07 0.0768518)
(-1.6044e-05 -1.11289e-06 0.0899176)
(-7.46888e-06 1.54146e-07 0.0786688)
(5.03023e-06 -2.48384e-07 0.0913523)
(5.5483e-06 -5.23186e-07 0.0898678)
(3.87186e-06 -1.80239e-07 0.0786282)
(-7.47147e-06 5.70135e-07 0.0768988)
(-6.12735e-06 2.37179e-07 0.068437)
(-1.21304e-05 -1.16366e-06 0.0822446)
(5.83455e-06 -7.08793e-07 0.0857871)
(-1.23862e-05 -1.34261e-06 0.0858434)
(4.91881e-06 -8.10976e-07 0.0683759)
(4.91952e-06 -8.26606e-07 0.0683835)
(-1.23702e-05 -1.34962e-06 0.0858519)
(7.14891e-06 6.70914e-07 0.0822018)
(5.84152e-06 -7.1796e-07 0.0857956)
(-6.11843e-06 2.24576e-07 0.0684446)
(-7.47728e-06 5.77142e-07 0.0768904)
(-1.66592e-05 -2.77093e-07 0.0913884)
(5.55468e-06 -5.18507e-07 0.0898597)
(3.87116e-06 -1.8062e-07 0.0786197)
(-1.60537e-05 -1.11007e-06 0.0899096)
(-7.47249e-06 1.54809e-07 0.0786603)
(4.27941e-06 -6.62515e-07 0.0768434)
(-5.91913e-06 3.30164e-06 0.0715655)
(4.31492e-06 -2.62409e-06 0.07152)
(-3.11428e-06 -3.13046e-06 0.0835876)
(3.6115e-06 5.15064e-06 0.068354)
(5.15195e-06 3.61337e-06 0.0683478)
(-2.63049e-06 -4.09323e-06 0.0682982)
(-4.07973e-06 -2.64152e-06 0.0682922)
(7.27669e-06 7.27015e-06 0.0836336)
(1.68845e-05 1.0317e-05 0.0916922)
(-1.10199e-05 -5.56396e-06 0.0962497)
(9.97528e-06 6.91537e-06 0.087568)
(-3.82061e-06 -3.04842e-06 0.0815235)
(2.41091e-05 1.4221e-05 0.0962989)
(8.1311e-06 4.00747e-06 0.0815755)
(-7.7787e-06 -3.804e-06 0.0916443)
(1.03456e-05 1.68894e-05 0.0916855)
(-5.57463e-06 -1.09971e-05 0.0962472)
(6.9273e-06 9.9708e-06 0.0875665)
(-3.05771e-06 -3.83793e-06 0.081519)
(1.4243e-05 2.41036e-05 0.0962963)
(4.03102e-06 8.14906e-06 0.08157)
(-3.81236e-06 -7.79256e-06 0.091638)
(-7.78572e-06 -3.80365e-06 0.0916514)
(8.11554e-06 4.01156e-06 0.0815832)
(-3.55881e-06 -3.50868e-06 0.0875262)
(2.40831e-05 1.42159e-05 0.0963047)
(-1.1023e-05 -5.55615e-06 0.0962556)
(-3.82994e-06 -3.04084e-06 0.0815313)
(1.68596e-05 1.03067e-05 0.0916992)
(-3.80991e-06 -7.79936e-06 0.091645)
(4.03577e-06 8.13346e-06 0.0815778)
(-3.51363e-06 -3.55091e-06 0.0875252)
(1.42423e-05 2.40767e-05 0.0963022)
(-5.56536e-06 -1.09985e-05 0.0962531)
(-3.04865e-06 -3.84702e-06 0.0815268)
(1.03371e-05 1.68636e-05 0.0916925)
(7.28654e-06 7.28063e-06 0.083626)
(-2.62814e-06 -4.0967e-06 0.0682915)
(-4.08405e-06 -2.63844e-06 0.0682854)
(3.61953e-06 5.15233e-06 0.0683473)
(5.15344e-06 3.62165e-06 0.068341)
(-3.11138e-06 -3.12738e-06 0.0835801)
(1.57731e-07 -6.08318e-06 0.0684664)
(-7.83348e-07 5.87608e-06 0.0858205)
(-1.21422e-06 -1.20767e-05 0.0822775)
(-9.1502e-07 4.92676e-06 0.0684055)
(-1.39636e-06 -1.23073e-05 0.0858767)
(5.17058e-07 -7.45164e-06 0.0769234)
(-3.0844e-07 -1.6614e-05 0.0914192)
(-1.99121e-07 3.86528e-06 0.0786536)
(-5.6964e-07 5.53158e-06 0.0898918)
(-7.28577e-07 4.2617e-06 0.0768766)
(1.2283e-07 -7.44315e-06 0.0786941)
(-1.15611e-06 -1.6004e-05 0.0899414)
(3.2775e-06 -5.84907e-06 0.0715983)
(-6.09201e-06 1.86595e-07 0.0684671)
(5.86246e-06 -7.46866e-07 0.085821)
(-1.20684e-05 -1.19711e-06 0.0822782)
(4.92008e-06 -8.74441e-07 0.0684062)
(-1.23193e-05 -1.3698e-06 0.0858772)
(-7.45347e-06 5.50423e-07 0.0769238)
(-1.66196e-05 -2.74832e-07 0.0914194)
(5.53758e-06 -5.39161e-07 0.0898921)
(3.87157e-06 -1.77954e-07 0.0786538)
(4.26673e-06 -6.95053e-07 0.076877)
(-1.60131e-05 -1.12469e-06 0.0899418)
(-7.4461e-06 1.52773e-07 0.0786943)
(-5.86523e-06 3.35256e-06 0.071596)
(-3.1219e-06 -3.14323e-06 0.0836176)
(3.57569e-06 5.14403e-06 0.0683808)
(5.14307e-06 3.57579e-06 0.0683745)
(-2.63163e-06 -4.0877e-06 0.0683251)
(-4.06332e-06 -2.64499e-06 0.0683191)
(7.23273e-06 7.23129e-06 0.0836637)
(1.6794e-05 1.02884e-05 0.0917203)
(-1.10343e-05 -5.53207e-06 0.0962733)
(-3.85921e-06 -3.02475e-06 0.0815548)
(9.90751e-06 6.93722e-06 0.0875998)
(-7.81384e-06 -3.80979e-06 0.0916725)
(2.40176e-05 1.42347e-05 0.0963224)
(8.0675e-06 4.02853e-06 0.0816065)
(1.03177e-05 1.67972e-05 0.0917136)
(-5.54359e-06 -1.09999e-05 0.0962709)
(-3.02411e-06 -3.87275e-06 0.0815503)
(6.9501e-06 9.90587e-06 0.0875983)
(-3.8077e-06 -7.82702e-06 0.0916661)
(1.42442e-05 2.4027e-05 0.0963197)
(4.04941e-06 8.08153e-06 0.0816011)
(7.24671e-06 7.24049e-06 0.0836562)
(-2.63461e-06 -4.08865e-06 0.0683184)
(-4.06741e-06 -2.64907e-06 0.0683124)
(-3.12241e-06 -3.14459e-06 0.0836101)
(3.58712e-06 5.14699e-06 0.0683741)
(5.14799e-06 3.58782e-06 0.0683678)
(-7.82051e-06 -3.8164e-06 0.0916796)
(8.04939e-06 4.02861e-06 0.0816144)
(-3.59805e-06 -3.46877e-06 0.0875582)
(2.39587e-05 1.42242e-05 0.0963283)
(-1.10436e-05 -5.52524e-06 0.0962793)
(-3.86508e-06 -3.01964e-06 0.0815626)
(1.67597e-05 1.02695e-05 0.0917273)
(-3.81197e-06 -7.83123e-06 0.0916732)
(4.0507e-06 8.06234e-06 0.0816089)
(-3.47554e-06 -3.58574e-06 0.0875571)
(1.42429e-05 2.40084e-05 0.0963257)
(-5.5432e-06 -1.10009e-05 0.0962768)
(-3.01453e-06 -3.87588e-06 0.0815581)
(1.03066e-05 1.67662e-05 0.0917206)
(-3.28134e-06 -5.95306e-06 0.0715657)
(2.60059e-06 4.34861e-06 0.0715192)
(-5.94147e-06 -3.28424e-06 0.0715654)
(4.31897e-06 2.62997e-06 0.0715193)
(3.13528e-06 3.1293e-06 0.0835869)
(-5.14485e-06 -3.62254e-06 0.0683538)
(-3.61988e-06 -5.15831e-06 0.0683474)
(4.08809e-06 2.64173e-06 0.0682974)
(2.65141e-06 4.08303e-06 0.0682912)
(-7.27762e-06 -7.28674e-06 0.0836337)
(-1.03115e-05 -1.68651e-05 0.0916923)
(5.56637e-06 1.10154e-05 0.0962494)
(-6.89483e-06 -9.9523e-06 0.0875684)
(3.02381e-06 3.79876e-06 0.081523)
(-3.98611e-06 -8.09906e-06 0.0815763)
(-1.42121e-05 -2.40739e-05 0.0962988)
(3.8005e-06 7.77646e-06 0.0916438)
(-1.68736e-05 -1.03336e-05 0.0916858)
(1.0986e-05 5.57142e-06 0.0962468)
(-9.98982e-06 -6.91127e-06 0.0875663)
(3.83202e-06 3.0349e-06 0.0815181)
(-8.14586e-06 -4.00839e-06 0.0815703)
(-2.41003e-05 -1.42268e-05 0.0962964)
(7.76995e-06 3.80504e-06 0.0916373)
(3.7997e-06 7.78243e-06 0.0916508)
(-3.99074e-06 -8.08422e-06 0.0815841)
(3.48029e-06 3.5541e-06 0.0875257)
(-1.42129e-05 -2.40527e-05 0.0963046)
(3.01453e-06 3.80664e-06 0.0815309)
(-1.03043e-05 -1.68426e-05 0.0916993)
(5.55737e-06 1.10156e-05 0.0962553)
(7.77599e-06 3.80403e-06 0.0916444)
(-8.12947e-06 -4.01258e-06 0.0815781)
(3.56325e-06 3.50901e-06 0.0875247)
(-2.40782e-05 -1.42262e-05 0.0963022)
(3.84059e-06 3.02571e-06 0.0815259)
(-1.68504e-05 -1.03251e-05 0.0916928)
(1.09859e-05 5.5623e-06 0.0962527)
(-7.28756e-06 -7.2965e-06 0.0836262)
(4.09161e-06 2.63986e-06 0.0682906)
(2.64936e-06 4.08689e-06 0.0682844)
(-5.14694e-06 -3.63101e-06 0.0683471)
(-3.62858e-06 -5.15981e-06 0.0683407)
(3.13244e-06 3.12647e-06 0.0835794)
(2.57046e-06 4.35985e-06 0.0715345)
(-3.30764e-06 -5.92624e-06 0.071581)
(4.33064e-06 2.60065e-06 0.0715346)
(-5.91462e-06 -3.31094e-06 0.0715807)
(-7.26745e-06 -7.27724e-06 0.0836412)
(4.08447e-06 2.64426e-06 0.0683041)
(2.65357e-06 4.07868e-06 0.0682979)
(3.13794e-06 3.1319e-06 0.0835945)
(-5.14152e-06 -3.61459e-06 0.0683605)
(-3.61205e-06 -5.15613e-06 0.0683541)
(3.80219e-06 7.79785e-06 0.0916649)
(-1.42108e-05 -2.4005e-05 0.0963163)
(3.45936e-06 3.57335e-06 0.0875417)
(-3.99622e-06 -8.05088e-06 0.0815997)
(2.99993e-06 3.82561e-06 0.0815465)
(5.5444e-06 1.10226e-05 0.096267)
(-1.02833e-05 -1.6795e-05 0.0917133)
(7.79194e-06 3.8064e-06 0.0916584)
(-2.4031e-05 -1.42234e-05 0.0963139)
(3.58302e-06 3.48934e-06 0.0875407)
(-8.10351e-06 -4.02511e-06 0.0815937)
(3.86033e-06 3.01034e-06 0.0815415)
(1.09922e-05 5.54925e-06 0.0962645)
(-1.68033e-05 -1.03071e-05 0.0917068)
(-1.02947e-05 -1.68194e-05 0.0917063)
(3.00604e-06 3.81386e-06 0.0815387)
(5.5513e-06 1.10183e-05 0.0962612)
(-6.90544e-06 -9.91963e-06 0.0875843)
(3.80058e-06 7.78896e-06 0.0916578)
(-3.99449e-06 -8.06941e-06 0.0815919)
(-1.4212e-05 -2.40295e-05 0.0963105)
(-1.68277e-05 -1.03175e-05 0.0916998)
(3.8511e-06 3.0191e-06 0.0815337)
(1.09879e-05 5.55553e-06 0.0962586)
(-9.95615e-06 -6.92295e-06 0.0875822)
(7.78218e-06 3.80399e-06 0.0916514)
(-8.11128e-06 -4.01506e-06 0.0815859)
(-2.40554e-05 -1.42247e-05 0.096308)
(3.14236e-06 3.13581e-06 0.083602)
(-5.13916e-06 -3.60675e-06 0.0683672)
(-3.60196e-06 -5.15317e-06 0.0683608)
(4.08092e-06 2.64612e-06 0.0683109)
(2.65581e-06 4.07493e-06 0.0683047)
(-7.2552e-06 -7.26615e-06 0.0836487)
(6.77605e-07 4.2646e-06 0.0768514)
(-1.46487e-07 -7.46524e-06 0.0786687)
(1.11596e-06 -1.60447e-05 0.0899173)
(2.43459e-07 5.02945e-06 0.0913524)
(1.78803e-07 3.8698e-06 0.0786282)
(5.29136e-07 5.5423e-06 0.0898682)
(-5.64717e-07 -7.46886e-06 0.0768981)
(-2.44803e-07 -6.1236e-06 0.0684387)
(1.12222e-06 -1.21131e-05 0.0822452)
(7.47432e-07 5.84423e-06 0.085788)
(1.31895e-06 -1.23886e-05 0.0858437)
(8.39369e-07 4.91785e-06 0.068378)
(8.54971e-07 4.91775e-06 0.0683856)
(1.32547e-06 -1.23752e-05 0.0858522)
(-6.27814e-07 7.13531e-06 0.0822007)
(7.56568e-07 5.84947e-06 0.0857965)
(-2.32909e-07 -6.11631e-06 0.0684463)
(-5.70895e-07 -7.47291e-06 0.0768898)
(2.85613e-07 -1.66595e-05 0.0913883)
(1.78099e-07 3.87195e-06 0.0786197)
(5.23456e-07 5.55026e-06 0.0898601)
(-1.46307e-07 -7.47481e-06 0.0786603)
(1.11357e-06 -1.60532e-05 0.0899093)
(6.68642e-07 4.26776e-06 0.076843)
(5.31676e-07 -7.46271e-06 0.0769067)
(-1.982e-07 3.87065e-06 0.0786366)
(-5.56879e-07 5.5388e-06 0.0898756)
(-3.09591e-07 -1.66351e-05 0.0914037)
(-7.08443e-07 4.27016e-06 0.0768598)
(1.20945e-07 -7.4582e-06 0.0786771)
(-1.14829e-06 -1.60254e-05 0.0899253)
(-8.97762e-07 4.92541e-06 0.068398)
(6.22127e-07 7.17957e-06 0.0822179)
(-1.38879e-06 -1.23242e-05 0.0858683)
(1.71587e-07 -6.09396e-06 0.0684589)
(-7.73143e-07 5.86662e-06 0.0858121)
(1.84675e-07 -6.1025e-06 0.0684514)
(-7.63641e-07 5.86079e-06 0.0858036)
(-1.19031e-06 -1.20928e-05 0.0822607)
(-8.82354e-07 4.92569e-06 0.0683904)
(-1.38051e-06 -1.23402e-05 0.0858598)
(-7.17571e-07 4.26913e-06 0.0768682)
(-2.66614e-07 5.01719e-06 0.0913678)
(1.20823e-07 -7.44652e-06 0.0786856)
(-1.15316e-06 -1.60161e-05 0.0899334)
(5.24255e-07 -7.45304e-06 0.0769151)
(-1.98964e-07 3.86705e-06 0.0786452)
(-5.63427e-07 5.53309e-06 0.0898837)
(-5.57506e-07 -7.46494e-06 0.0769065)
(1.78305e-07 3.86951e-06 0.0786367)
(5.3451e-07 5.53768e-06 0.0898762)
(2.83357e-07 -1.66388e-05 0.0914038)
(6.85439e-07 4.26258e-06 0.0768598)
(-1.47295e-07 -7.46024e-06 0.0786772)
(1.11985e-06 -1.60328e-05 0.0899254)
(8.85891e-07 4.91775e-06 0.0684007)
(-6.08571e-07 7.14695e-06 0.0822176)
(1.34022e-06 -1.23428e-05 0.0858691)
(7.75921e-07 5.85925e-06 0.0858135)
(-2.07601e-07 -6.09841e-06 0.0684613)
(-2.20008e-07 -6.10625e-06 0.0684538)
(7.66619e-07 5.85599e-06 0.085805)
(1.13999e-06 -1.20852e-05 0.082262)
(8.70744e-07 4.91839e-06 0.0683932)
(1.33317e-06 -1.23552e-05 0.0858606)
(6.9453e-07 4.25809e-06 0.0768682)
(2.42262e-07 5.01806e-06 0.091368)
(-1.46858e-07 -7.45609e-06 0.0786857)
(1.12302e-06 -1.60253e-05 0.0899334)
(1.78751e-07 3.87073e-06 0.0786453)
(5.40113e-07 5.53069e-06 0.0898843)
(-5.5058e-07 -7.45948e-06 0.0769149)
(-3.12911e-06 3.11067e-06 0.0835874)
(5.13955e-06 -3.63532e-06 0.0683487)
(3.61234e-06 -5.15978e-06 0.0683541)
(-4.09875e-06 2.63547e-06 0.068292)