/*--------------------------------*- C++ -*----------------------------------*\
| =========                 |                                                 |
| \\      /  F ield         | OpenFOAM: The Open Source CFD Toolbox           |
|  \\    /   O peration     | Version:  2312                                  |
|   \\  /    A nd           | Website:  www.openfoam.com                      |
|    \\/     M anipulation  |                                                 |
\*---------------------------------------------------------------------------*/
FoamFile
{
    version     2.0;
    format      ascii;
    arch        "LSB;label=32;scalar=64";
    class       volScalarField;
    location    "150";
    object      epsilon;
}
// * * * * * * * * * * * * * * * * * * * * * * * * * * * * * * * * * * * * * //

dimensions      [0 2 -3 0 0 0 0];

internalField   nonuniform List<scalar> 
42840
(
1.31373e-07
2.40842e-07
2.40858e-07
3.83652e-07
1.29993e-07
2.53334e-07
2.53347e-07
4.11337e-07
1.29364e-07
2.67604e-07
2.67611e-07
4.41686e-07
1.29437e-07
2.83397e-07
2.83392e-07
4.72217e-07
1.30149e-07
3.00358e-07
3.00344e-07
5.02637e-07
1.31388e-07
3.1799e-07
3.1798e-07
5.32345e-07
1.33013e-07
3.35692e-07
3.35741e-07
5.60131e-07
1.3484e-07
3.52837e-07
3.53085e-07
5.87678e-07
1.36691e-07
3.68904e-07
3.69467e-07
6.11019e-07
1.38452e-07
3.8346e-07
3.84461e-07
6.31031e-07
1.40076e-07
3.96153e-07
3.97812e-07
6.49101e-07
1.41529e-07
4.07109e-07
4.08983e-07
6.64885e-07
1.42788e-07
4.17185e-07
4.17915e-07
6.79039e-07
1.43956e-07
4.25813e-07
4.25758e-07
6.91095e-07
1.44985e-07
4.32303e-07
4.32047e-07
7.00044e-07
1.4575e-07
4.36539e-07
4.3646e-07
7.06349e-07
1.46196e-07
4.38903e-07
4.39071e-07
7.09319e-07
1.46424e-07
4.40571e-07
4.40497e-07
7.09564e-07
1.46584e-07
4.41774e-07
4.4184e-07
7.12147e-07
1.46705e-07
4.42259e-07
4.42622e-07
7.14249e-07
1.46902e-07
4.4262e-07
4.431e-07
7.15077e-07
1.4716e-07
4.43013e-07
4.4357e-07
7.15542e-07
1.47443e-07
4.43593e-07
4.44038e-07
7.15235e-07
1.47677e-07
4.43942e-07
4.44973e-07
7.15111e-07
1.47806e-07
4.44226e-07
4.458e-07
7.15651e-07
3.83031e-07
4.05372e-07
2.40905e-07
2.40951e-07
2.5009e-07
2.50139e-07
3.83873e-07
4.04357e-07
2.40855e-07
2.40959e-07
2.50034e-07
2.50151e-07
2.40912e-07
2.49996e-07
2.501e-07
3.83548e-07
4.05536e-07
2.40905e-07
2.50005e-07
2.50093e-07
4.05301e-07
4.11146e-07
4.33911e-07
2.53396e-07
2.53448e-07
2.63924e-07
2.63976e-07
4.11903e-07
4.33785e-07
2.53339e-07
2.53453e-07
2.6386e-07
2.63983e-07
2.53399e-07
2.63821e-07
2.63923e-07
4.11257e-07
4.33568e-07
2.53388e-07
2.63822e-07
2.63906e-07
4.33864e-07
4.41698e-07
4.64177e-07
2.6767e-07
2.67713e-07
2.79345e-07
2.794e-07
4.41568e-07
4.64079e-07
2.67601e-07
2.67719e-07
2.79273e-07
2.79407e-07
2.6766e-07
2.79233e-07
2.79336e-07
4.4163e-07
4.6445e-07
2.67642e-07
2.79225e-07
2.79308e-07
4.64317e-07
4.72235e-07
4.95308e-07
2.83462e-07
2.8351e-07
2.96039e-07
2.96094e-07
4.72488e-07
4.94742e-07
2.8338e-07
2.83508e-07
2.95934e-07
2.96083e-07
2.83439e-07
2.9591e-07
2.96004e-07
4.71851e-07
4.95645e-07
2.83404e-07
2.95894e-07
2.95954e-07
4.9471e-07
5.03052e-07
5.25631e-07
3.00424e-07
3.00475e-07
3.13536e-07
3.13598e-07
5.02956e-07
5.25671e-07
3.00313e-07
3.00459e-07
3.13378e-07
3.13601e-07
3.00372e-07
3.13378e-07
3.13438e-07
5.02267e-07
5.25455e-07
3.0031e-07
3.13373e-07
3.13389e-07
5.24847e-07
5.32941e-07
5.53884e-07
3.1806e-07
3.18121e-07
3.31274e-07
3.31332e-07
5.3271e-07
5.53912e-07
3.17895e-07
3.18125e-07
3.31044e-07
3.31403e-07
3.1795e-07
3.31085e-07
3.31075e-07
5.32764e-07
5.54484e-07
3.17897e-07
3.31104e-07
3.31082e-07
5.53209e-07
5.61012e-07
5.815e-07
3.35793e-07
3.3584e-07
3.48605e-07
3.48702e-07
5.60297e-07
5.81022e-07
3.35546e-07
3.35934e-07
3.48309e-07
3.48939e-07
3.3556e-07
3.48372e-07
3.48294e-07
5.6085e-07
5.81652e-07
3.35575e-07
3.48556e-07
3.48429e-07
5.81058e-07
5.88194e-07
6.05559e-07
3.52937e-07
3.53057e-07
3.6495e-07
3.65089e-07
5.87834e-07
6.04876e-07
3.52635e-07
3.53345e-07
3.64588e-07
3.65637e-07
3.52608e-07
3.64705e-07
3.64512e-07
5.89431e-07
6.04644e-07
3.52784e-07
3.6518e-07
3.64876e-07
6.05195e-07
6.11398e-07
6.26427e-07
3.68995e-07
3.69116e-07
3.79975e-07
3.79998e-07
6.09713e-07
6.2526e-07
3.68627e-07
3.6975e-07
3.7955e-07
3.80961e-07
3.68519e-07
3.79609e-07
3.79263e-07
6.12614e-07
6.27556e-07
3.68936e-07
3.8049e-07
3.79946e-07
6.2556e-07
6.32183e-07
6.4539e-07
3.83685e-07
3.83613e-07
3.93573e-07
3.9322e-07
6.30728e-07
6.44728e-07
3.83242e-07
3.84726e-07
3.9305e-07
3.94692e-07
3.82867e-07
3.92785e-07
3.92412e-07
6.34255e-07
6.49189e-07
3.83627e-07
3.94256e-07
3.93453e-07
6.43833e-07
6.5058e-07
6.62546e-07
3.96909e-07
3.96446e-07
4.05569e-07
4.04609e-07
6.49747e-07
6.60517e-07
3.96342e-07
3.98019e-07
4.0499e-07
4.06591e-07
3.95626e-07
4.04085e-07
4.04066e-07
6.5484e-07
6.67207e-07
3.96728e-07
4.06015e-07
4.04996e-07
6.60252e-07
6.67505e-07
6.77096e-07
4.08397e-07
4.07302e-07
4.15464e-07
4.14477e-07
6.6493e-07
6.74989e-07
4.07823e-07
4.09394e-07
4.14802e-07
4.16369e-07
4.06905e-07
4.14358e-07
4.14319e-07
6.72087e-07
6.80385e-07
4.07671e-07
4.15392e-07
4.14454e-07
6.74607e-07
6.81398e-07
6.88393e-07
4.17798e-07
4.16937e-07
4.23734e-07
4.23319e-07
6.79569e-07
6.87837e-07
4.17123e-07
4.18647e-07
4.23194e-07
4.24396e-07
4.16843e-07
4.23461e-07
4.23358e-07
6.84396e-07
6.90214e-07
4.16721e-07
4.23498e-07
4.22905e-07
6.87059e-07
6.92299e-07
6.97288e-07
4.25713e-07
4.25374e-07
4.30684e-07
4.30522e-07
6.91774e-07
6.97361e-07
4.25197e-07
4.26288e-07
4.30252e-07
4.30831e-07
4.25463e-07
4.30547e-07
4.30533e-07
6.93822e-07
6.97806e-07
4.25017e-07
4.30316e-07
4.30075e-07
6.96663e-07
7.00705e-07
7.03823e-07
4.3221e-07
4.32083e-07
4.36008e-07
4.3593e-07
7.00756e-07
7.03488e-07
4.31796e-07
4.32143e-07
4.35626e-07
4.35423e-07
4.32043e-07
4.35451e-07
4.35727e-07
7.00884e-07
7.02917e-07
4.31563e-07
4.35305e-07
4.35229e-07
7.03404e-07
7.06479e-07
7.06495e-07
4.36922e-07
4.36811e-07
4.39206e-07
4.3892e-07
7.06236e-07
7.0619e-07
4.36592e-07
4.3629e-07
4.389e-07
4.38698e-07
4.36613e-07
4.38283e-07
4.38821e-07
7.05569e-07
7.06241e-07
4.36167e-07
4.38422e-07
4.38551e-07
7.06724e-07
7.08416e-07
7.06339e-07
4.39482e-07
4.3918e-07
4.40585e-07
4.4051e-07
7.08416e-07
7.0787e-07
4.3915e-07
4.39065e-07
4.40253e-07
4.40376e-07
4.39081e-07
4.40015e-07
4.40251e-07
7.08315e-07
7.07342e-07
4.38912e-07
4.40083e-07
4.40415e-07
7.07301e-07
7.08234e-07
7.06856e-07
4.40576e-07
4.40683e-07
4.41299e-07
4.41753e-07
7.1037e-07
7.11256e-07
4.40279e-07
4.40466e-07
4.40807e-07
4.41543e-07
4.40282e-07
4.41494e-07
4.41281e-07
7.09531e-07
7.09453e-07
4.40565e-07
4.41444e-07
4.41587e-07
7.09668e-07
7.09187e-07
7.09481e-07
4.41336e-07
4.41736e-07
4.41747e-07
4.42309e-07
7.13497e-07
7.12877e-07
4.40878e-07
4.41684e-07
4.41402e-07
4.42473e-07
4.41464e-07
4.42079e-07
4.42284e-07
7.12026e-07
7.12092e-07
4.41577e-07
4.42366e-07
4.42125e-07
7.12171e-07
7.12225e-07
7.11073e-07
4.41731e-07
4.423e-07
4.42167e-07
4.42595e-07
7.14869e-07
7.13198e-07
4.41383e-07
4.42442e-07
4.41839e-07
4.42763e-07
4.42355e-07
4.42447e-07
4.43293e-07
7.14793e-07
7.13236e-07
4.42112e-07
4.42888e-07
4.42436e-07
7.13169e-07
7.13789e-07
7.12213e-07
4.42192e-07
4.42709e-07
4.42862e-07
4.4325e-07
7.15746e-07
7.12493e-07
4.41904e-07
4.42906e-07
4.42557e-07
4.43382e-07
4.4334e-07
4.42786e-07
4.44114e-07
7.1591e-07
7.14144e-07
4.42423e-07
4.43416e-07
4.42871e-07
7.13139e-07
7.14898e-07
7.13178e-07
4.42941e-07
4.43198e-07
4.43902e-07
4.44008e-07
7.14964e-07
7.12241e-07
4.42672e-07
4.43515e-07
4.4366e-07
4.44326e-07
4.44173e-07
4.43345e-07
4.4464e-07
7.16423e-07
7.15262e-07
4.42941e-07
4.43837e-07
4.43709e-07
7.12848e-07
7.15347e-07
7.13384e-07
4.44044e-07
4.44059e-07
4.44992e-07
4.44503e-07
7.14822e-07
7.12559e-07
4.43832e-07
4.4449e-07
4.44831e-07
4.45532e-07
4.44582e-07
4.43773e-07
4.44856e-07
7.17227e-07
7.15886e-07
4.43788e-07
4.44544e-07
4.44318e-07
7.13038e-07
7.15272e-07
7.13888e-07
4.45044e-07
4.44507e-07
4.45616e-07
4.44913e-07
7.15182e-07
7.13505e-07
4.44819e-07
4.45598e-07
4.45489e-07
4.46227e-07
4.44923e-07
4.44195e-07
4.45346e-07
7.18136e-07
7.16672e-07
4.44342e-07
4.45594e-07
4.44649e-07
7.13672e-07
7.15845e-07
4.45636e-07
4.44929e-07
7.15472e-07
4.45483e-07
4.4629e-07
4.45354e-07
7.1928e-07
4.44664e-07
3.75572e-06
8.91896e-06
8.92238e-06
3.73288e-06
1.84349e-05
1.84258e-05
3.75589e-06
8.91989e-06
8.92376e-06
3.73333e-06
1.31378e-07
1.31388e-07
1.31388e-07
1.30264e-07
1.30268e-07
1.30277e-07
1.30283e-07
1.23963e-06
2.86657e-06
1.59653e-07
2.43749e-07
2.88605e-06
1.6017e-07
1.21326e-06
1.84356e-05
1.84266e-05
1.23997e-06
1.59684e-07
2.8677e-06
2.43768e-07
1.60179e-07
2.88663e-06
1.21369e-06
5.16739e-06
5.16927e-06
3.91569e-07
5.17672e-06
5.17823e-06
3.8122e-06
8.92636e-06
3.79558e-06
8.92888e-06
1.84011e-05
1.83916e-05
3.81243e-06
8.92759e-06
3.79571e-06
8.93012e-06
1.29999e-07
1.30007e-07
1.30009e-07
1.29448e-07
1.29453e-07
1.2946e-07
1.29465e-07
1.31756e-06
2.92831e-06
1.6227e-07
2.56691e-07
1.29304e-06
2.94444e-06
1.63089e-07
1.84016e-05
1.8392e-05
1.31806e-06
1.62305e-07
2.9282e-06
2.56701e-07
1.29317e-06
1.63097e-07
2.94435e-06
5.19415e-06
5.19586e-06
4.19682e-07
5.20155e-06
5.20305e-06
3.85562e-06
8.93092e-06
3.84376e-06
8.93186e-06
1.83656e-05
1.8355e-05
3.85699e-06
8.9322e-06
3.84363e-06
8.93314e-06
1.2937e-07
1.29377e-07
1.2938e-07
1.29357e-07
1.29363e-07
1.29368e-07
1.29372e-07
1.38903e-06
2.9812e-06
1.66122e-07
2.71345e-07
1.36708e-06
2.99492e-06
1.67223e-07
1.83655e-05
1.83548e-05
1.38918e-06
1.66156e-07
2.98085e-06
2.71343e-07
1.36646e-06
1.67227e-07
2.99601e-06
5.21605e-06
5.21753e-06
4.49011e-07
5.22169e-06
5.22316e-06
3.88838e-06
8.9306e-06
3.87964e-06
8.92952e-06
1.83262e-05
1.83142e-05
3.88954e-06
8.93189e-06
3.88036e-06
8.93076e-06
1.29444e-07
1.29449e-07
1.2945e-07
1.29892e-07
1.29894e-07
1.29898e-07
1.29905e-07
1.45344e-06
3.02687e-06
1.71111e-07
2.87431e-07
1.43313e-06
3.03825e-06
1.72452e-07
1.83256e-05
1.83133e-05
1.45247e-06
1.7113e-07
3.02519e-06
2.87414e-07
1.43277e-06
1.7244e-07
3.03916e-06
5.23397e-06
5.23564e-06
4.79234e-07
5.23837e-06
5.23982e-06
3.9145e-06
8.92531e-06
3.90675e-06
8.92319e-06
1.82825e-05
1.82691e-05
3.91544e-06
8.9264e-06
3.90891e-06
8.92406e-06
1.30153e-07
1.30156e-07
1.30153e-07
1.30999e-07
1.31002e-07
1.31003e-07
1.31006e-07
1.5092e-06
3.06531e-06
1.77063e-07
3.0456e-07
1.49144e-06
3.07637e-06
1.78583e-07
1.82814e-05
1.82679e-05
1.50792e-06
1.77056e-07
3.06391e-06
3.04554e-07
1.49067e-06
1.7854e-07
3.0756e-06
5.24834e-06
5.25031e-06
5.10775e-07
5.25147e-06
5.25382e-06
3.93354e-06
8.91615e-06
3.9287e-06
8.91311e-06
1.82347e-05
1.82202e-05
3.93592e-06
8.9173e-06
3.93056e-06
8.91378e-06
1.31388e-07
1.3139e-07
1.3138e-07
1.32528e-07
1.32533e-07
1.32534e-07
1.32524e-07
1.55593e-06
3.09706e-06
1.83732e-07
3.22214e-07
1.54201e-06
3.1064e-06
1.85353e-07
1.82336e-05
1.82191e-05
1.55543e-06
1.83697e-07
3.0962e-06
3.22216e-07
1.54121e-06
1.85277e-07
3.10545e-06
5.25894e-06
5.26231e-06
5.39263e-07
5.26087e-06
5.26471e-06
3.94733e-06
8.9045e-06
3.94432e-06
8.90066e-06
1.81856e-05
1.81718e-05
3.94877e-06
8.90548e-06
3.94574e-06
8.90185e-06
1.33006e-07
1.33011e-07
1.32986e-07
1.34309e-07
1.34315e-07
1.34333e-07
1.34289e-07
1.59492e-06
3.12321e-06
1.90841e-07
3.39773e-07
1.58345e-06
3.12996e-06
1.92484e-07
1.81848e-05
1.81715e-05
1.59446e-06
1.90772e-07
3.12261e-06
3.39851e-07
1.58363e-06
1.92383e-07
3.12794e-06
5.26632e-06
5.27063e-06
5.67281e-07
5.26706e-06
5.27173e-06
3.95598e-06
8.89185e-06
3.95419e-06
8.88768e-06
1.81405e-05
1.81291e-05
3.95672e-06
8.8918e-06
3.95488e-06
8.88794e-06
1.34831e-07
1.34857e-07
1.34793e-07
1.36155e-07
1.36173e-07
1.36238e-07
1.36128e-07
1.62809e-06
3.14365e-06
1.9808e-07
3.56626e-07
1.61797e-06
3.14922e-06
1.99681e-07
1.81413e-05
1.81307e-05
1.62682e-06
1.98008e-07
3.14307e-06
3.56944e-07
1.61733e-06
1.99556e-07
3.14726e-06
5.27031e-06
5.27566e-06
5.93512e-07
5.27007e-06
5.27592e-06
3.96152e-06
8.87917e-06
3.96085e-06
8.87591e-06
1.81039e-05
1.80964e-05
3.961e-06
8.87928e-06
3.96052e-06
8.87688e-06
1.36681e-07
1.36764e-07
1.36628e-07
1.37935e-07
1.37946e-07
1.38103e-07
1.37892e-07
1.65594e-06
3.15969e-06
2.05196e-07
3.72271e-07
1.64693e-06
3.1622e-06
2.06658e-07
1.81076e-05
1.81014e-05
1.65078e-06
2.05015e-07
3.15771e-06
3.72937e-07
1.64381e-06
2.06416e-07
3.16082e-06
5.27176e-06
5.27858e-06
6.1563e-07
5.27114e-06
5.27858e-06
3.95944e-06
8.87045e-06
3.96122e-06
8.86908e-06
1.80799e-05
1.80772e-05
3.96222e-06
8.87264e-06
3.96256e-06
8.8716e-06
1.38416e-07
1.38598e-07
1.38357e-07
1.39587e-07
1.39543e-07
1.39812e-07
1.39499e-07
1.67834e-06
3.17093e-06
2.11911e-07
3.8635e-07
1.67122e-06
3.17415e-06
2.13204e-07
1.80861e-05
1.80837e-05
1.67459e-06
2.11617e-07
3.16841e-06
3.87492e-07
1.66662e-06
2.1288e-07
3.17148e-06
5.27237e-06
5.28081e-06
6.35025e-07
5.27088e-06
5.28056e-06
3.95664e-06
8.86679e-06
3.95817e-06
8.86627e-06
1.80681e-05
1.8069e-05
3.96344e-06
8.86939e-06
3.96331e-06
8.86881e-06
1.39946e-07
1.40249e-07
1.39914e-07
1.41094e-07
1.40937e-07
1.41297e-07
1.40934e-07
1.69579e-06
3.17906e-06
2.17958e-07
3.98498e-07
1.69227e-06
3.1792e-06
2.19002e-07
1.80746e-05
1.80752e-05
1.69322e-06
2.17796e-07
3.17875e-06
4.00315e-07
1.68756e-06
2.18894e-07
3.17936e-06
5.2702e-06
5.28099e-06
6.52452e-07
5.26785e-06
5.27874e-06
3.95564e-06
8.86594e-06
3.95611e-06
8.86695e-06
1.80644e-05
1.80671e-05
3.96247e-06
8.86714e-06
3.96442e-06
8.86694e-06
1.41293e-07
1.41638e-07
1.41288e-07
1.42398e-07
1.42255e-07
1.42525e-07
1.42218e-07
1.70756e-06
3.18257e-06
2.23093e-07
4.0915e-07
1.70544e-06
3.1839e-06
2.23942e-07
1.807e-05
1.80719e-05
1.71052e-06
2.23299e-07
3.18164e-06
4.10798e-07
1.70652e-06
2.24191e-07
3.18229e-06
5.26803e-06
5.27623e-06
6.67487e-07
5.26791e-06
5.27354e-06
3.95668e-06
8.86945e-06
3.95647e-06
8.87195e-06
1.80652e-05
1.80701e-05
3.95963e-06
8.8683e-06
3.96123e-06
8.8713e-06
1.42611e-07
1.42813e-07
1.42548e-07
1.43593e-07
1.43562e-07
1.43635e-07
1.43468e-07
1.71012e-06
3.18951e-06
2.27828e-07
4.18965e-07
1.7105e-06
3.1919e-06
2.28647e-07
1.80683e-05
1.80722e-05
1.71686e-06
2.28187e-07
3.18729e-06
4.19359e-07
1.71734e-06
2.28959e-07
3.18819e-06
5.2713e-06
5.27346e-06
6.81127e-07
5.27244e-06
5.27399e-06
3.95939e-06
8.87496e-06
3.95879e-06
8.87732e-06
1.80716e-05
1.8077e-05
3.96006e-06
8.87563e-06
3.95985e-06
8.87778e-06
1.4386e-07
1.43883e-07
1.43769e-07
1.44685e-07
1.44685e-07
1.4464e-07
1.44598e-07
1.72227e-06
3.19606e-06
2.32238e-07
4.27131e-07
1.71962e-06
3.19724e-06
2.32924e-07
1.80728e-05
1.80779e-05
1.72648e-06
2.32566e-07
3.19517e-06
4.26965e-07
1.72349e-06
2.3323e-07
3.19656e-06
5.27632e-06
5.27828e-06
6.92266e-07
5.27757e-06
5.2794e-06
3.9627e-06
8.88016e-06
3.96195e-06
8.88236e-06
1.80773e-05
1.80816e-05
3.96233e-06
8.88078e-06
3.96172e-06
8.88285e-06
1.44887e-07
1.44828e-07
1.44803e-07
1.45547e-07
1.45526e-07
1.45447e-07
1.45455e-07
1.73402e-06
3.20198e-06
2.36084e-07
4.33009e-07
1.73191e-06
3.20304e-06
2.36586e-07
1.80783e-05
1.80826e-05
1.73512e-06
2.36363e-07
3.20112e-06
4.32771e-07
1.73099e-06
2.36827e-07
3.20264e-06
5.28088e-06
5.28303e-06
7.00234e-07
5.2813e-06
5.28344e-06
3.96466e-06
8.88402e-06
3.96456e-06
8.88489e-06
1.80797e-05
1.80828e-05
3.96515e-06
8.88478e-06
3.96455e-06
8.88581e-06
1.45615e-07
1.45546e-07
1.45555e-07
1.46087e-07
1.46027e-07
1.46014e-07
1.46008e-07
1.73966e-06
3.20628e-06
2.38976e-07
4.36861e-07
1.73871e-06
3.20701e-06
2.39248e-07
1.80815e-05
1.80854e-05
1.73886e-06
2.39108e-07
3.20629e-06
4.36873e-07
1.73886e-06
2.39347e-07
3.20668e-06
5.28309e-06
5.28499e-06
7.05624e-07
5.28244e-06
5.28459e-06
3.96394e-06
8.88512e-06
3.96471e-06
8.8853e-06
1.80793e-05
1.80823e-05
3.96642e-06
8.8863e-06
3.96685e-06
8.88645e-06
1.4608e-07
1.46077e-07
1.46066e-07
1.4636e-07
1.46348e-07
1.46389e-07
1.46353e-07
1.74146e-06
3.20917e-06
2.40848e-07
4.3913e-07
1.74168e-06
3.2085e-06
2.41044e-07
1.8084e-05
1.80879e-05
1.73933e-06
2.40937e-07
3.2085e-06
4.39213e-07
1.74206e-06
2.41141e-07
3.20774e-06
5.28328e-06
5.28611e-06
7.06937e-07
5.28232e-06
5.2856e-06
3.96372e-06
8.88481e-06
3.9642e-06
8.885e-06
1.808e-05
1.80838e-05
3.96433e-06
8.88572e-06
3.96568e-06
8.88574e-06
1.46379e-07
1.46403e-07
1.46379e-07
1.46524e-07
1.46608e-07
1.46676e-07
1.46621e-07
1.74125e-06
3.20898e-06
2.41927e-07
4.40693e-07
1.74082e-06
3.20861e-06
2.41979e-07
1.80858e-05
1.80896e-05
1.73985e-06
2.4206e-07
3.20797e-06
4.40534e-07
1.74035e-06
2.42041e-07
3.20724e-06
5.28326e-06
5.28726e-06
7.08145e-07
5.2827e-06
5.28648e-06
3.9636e-06
8.88464e-06
3.96431e-06
8.8849e-06
1.80816e-05
1.80853e-05
3.96161e-06
8.88516e-06
3.96307e-06
8.8855e-06
1.46596e-07
1.46693e-07
1.46635e-07
1.46651e-07
1.46767e-07
1.46907e-07
1.46838e-07
1.74174e-06
3.20901e-06
2.42403e-07
4.41671e-07
1.7419e-06
3.20828e-06
2.42411e-07
1.80869e-05
1.809e-05
1.74084e-06
2.42535e-07
3.20794e-06
4.41803e-07
1.74089e-06
2.42472e-07
3.20732e-06
5.28395e-06
5.28714e-06
7.11202e-07
5.28353e-06
5.28661e-06
3.96264e-06
8.88471e-06
3.96316e-06
8.8851e-06
1.80844e-05
1.80889e-05
3.96172e-06
8.88521e-06
3.96206e-06
8.88566e-06
1.46763e-07
1.46883e-07
1.46831e-07
1.46812e-07
1.46921e-07
1.47056e-07
1.47036e-07
1.74195e-06
3.20937e-06
2.42735e-07
4.42158e-07
1.74249e-06
3.2088e-06
2.42754e-07
1.80886e-05
1.80927e-05
1.7407e-06
2.42716e-07
3.20739e-06
4.42636e-07
1.74136e-06
2.42722e-07
3.20673e-06
5.28471e-06
5.28771e-06
7.12723e-07
5.28429e-06
5.28725e-06
3.96303e-06
8.88619e-06
3.96327e-06
8.88753e-06
1.8089e-05
1.8094e-05
3.96123e-06
8.88594e-06
3.96232e-06
8.88702e-06
1.46932e-07
1.47059e-07
1.47044e-07
1.47028e-07
1.47087e-07
1.47242e-07
1.47221e-07
1.74115e-06
3.20954e-06
2.43083e-07
4.42574e-07
1.74064e-06
3.20872e-06
2.43087e-07
1.80922e-05
1.80969e-05
1.74116e-06
2.42876e-07
3.20722e-06
4.43117e-07
1.74153e-06
2.4289e-07
3.20647e-06
5.28599e-06
5.28773e-06
7.13173e-07
5.28576e-06
5.28666e-06
3.96158e-06
8.88927e-06
3.96275e-06
8.89092e-06
1.80932e-05
1.80977e-05
3.96022e-06
8.88866e-06
3.96054e-06
8.89013e-06
1.47088e-07
1.47264e-07
1.47235e-07
1.4731e-07
1.47272e-07
1.47477e-07
1.47403e-07
1.73825e-06
3.20962e-06
2.43506e-07
4.43025e-07
1.7426e-06
3.20943e-06
2.43523e-07
1.80973e-05
1.81022e-05
1.741e-06
2.43065e-07
3.20721e-06
4.43479e-07
1.74187e-06
2.43071e-07
3.20637e-06
5.2865e-06
5.28798e-06
7.1294e-07
5.28524e-06
5.28804e-06
3.96048e-06
8.89285e-06
3.96132e-06
8.89439e-06
1.80966e-05
1.8101e-05
3.96026e-06
8.89219e-06
3.96067e-06
8.89384e-06
1.47269e-07
1.4747e-07
1.47378e-07
1.4758e-07
1.4737e-07
1.47691e-07
1.47523e-07
1.74081e-06
3.21058e-06
2.43809e-07
4.43624e-07
1.74074e-06
3.20997e-06
2.43867e-07
1.81019e-05
1.8106e-05
1.74086e-06
2.43245e-07
3.20731e-06
4.44053e-07
1.7411e-06
2.43291e-07
3.20701e-06
5.28598e-06
5.28996e-06
7.12678e-07
5.28543e-06
5.28964e-06
3.96039e-06
8.89541e-06
3.96079e-06
8.89609e-06
1.81001e-05
1.81045e-05
3.95977e-06
8.8956e-06
3.96038e-06
8.89694e-06
1.4739e-07
1.47724e-07
1.47533e-07
1.47788e-07
1.47505e-07
1.4789e-07
1.47633e-07
1.7414e-06
3.21077e-06
2.44104e-07
4.44021e-07
1.7418e-06
3.21006e-06
2.44083e-07
1.81049e-05
1.8109e-05
1.7408e-06
2.43552e-07
3.20815e-06
4.45053e-07
1.74154e-06
2.43567e-07
3.20797e-06
5.28646e-06
5.2908e-06
7.13372e-07
5.28592e-06
5.28997e-06
3.95977e-06
8.89655e-06
3.96046e-06
8.89738e-06
1.81033e-05
1.81074e-05
3.95925e-06
8.89899e-06
3.96014e-06
8.90012e-06
1.47472e-07
1.47889e-07
1.47644e-07
1.74107e-06
3.21124e-06
2.44367e-07
4.44506e-07
1.7422e-06
3.21082e-06
2.44446e-07
1.8107e-05
1.81103e-05
1.74087e-06
2.43865e-07
3.20922e-06
4.46023e-07
1.7415e-06
2.44017e-07
3.20861e-06
5.28719e-06
5.29107e-06
7.13962e-07
5.28672e-06
5.29023e-06
1.84322e-05
1.84231e-05
1.84351e-05
1.84259e-05
5.1676e-06
5.17048e-06
3.91107e-07
5.17641e-06
5.17784e-06
1.84061e-05
1.84154e-05
1.84088e-05
1.84182e-05
3.96581e-07
5.18904e-06
5.19091e-06
5.18205e-06
5.18418e-06
3.75568e-06
8.91896e-06
8.923e-06
3.73285e-06
1.23957e-06
2.86763e-06
1.59674e-07
2.43845e-07
2.8865e-06
1.60179e-07
1.21329e-06
1.23983e-06
2.86708e-06
1.59679e-07
2.43889e-07
2.88856e-06
1.60185e-07
1.21347e-06
3.76621e-06
8.926e-06
8.92301e-06
3.78641e-06
3.76644e-06
8.92647e-06
8.9232e-06
3.78665e-06
1.25396e-06
2.46919e-07
2.91637e-06
1.61482e-07
2.89886e-06
1.60827e-07
1.27963e-06
1.25391e-06
2.46963e-07
2.91845e-06
1.61491e-07
2.89824e-06
1.60832e-07
1.27936e-06
5.17008e-06
5.16877e-06
3.90436e-07
5.17748e-06
5.17633e-06
1.84331e-05
1.84241e-05
1.84089e-05
1.84181e-05
3.97503e-07
5.1912e-06
5.18874e-06
5.1837e-06
5.18253e-06
1.84072e-05
1.84164e-05
1.24022e-06
2.8682e-06
1.59675e-07
2.43792e-07
2.88709e-06
1.60178e-07
1.21328e-06
3.75608e-06
8.91952e-06
8.92361e-06
3.73342e-06
1.23981e-06
1.59695e-07
2.86827e-06
2.43899e-07
1.602e-07
2.88721e-06
1.21331e-06
3.76633e-06
8.92724e-06
8.92421e-06
3.78661e-06
1.25352e-06
2.46864e-07
2.91689e-06
1.61481e-07
2.89941e-06
1.60826e-07
1.27908e-06
3.76643e-06
8.92706e-06
8.92402e-06
3.78684e-06
1.25417e-06
2.46973e-07
1.61503e-07
2.91709e-06
1.60848e-07
2.89958e-06
1.28023e-06
3.75619e-06
8.91945e-06
8.92302e-06
3.73294e-06
1.24034e-06
1.59674e-07
2.86707e-06
2.43851e-07
1.60185e-07
2.88664e-06
1.21333e-06
3.7554e-06
8.91924e-06
8.9232e-06
3.73347e-06
1.25393e-06
2.46852e-07
2.91648e-06
1.61474e-07
2.89898e-06
1.60801e-07
1.27981e-06
3.76659e-06
8.92663e-06
8.92355e-06
3.78593e-06
1.25372e-06
2.46927e-07
1.61488e-07
2.91808e-06
1.60829e-07
2.89923e-06
1.27975e-06
3.76707e-06
8.92687e-06
8.92322e-06
3.78703e-06
5.16866e-06
5.1687e-06
3.90798e-07
5.17856e-06
5.17543e-06
1.84333e-05
1.84241e-05
1.84095e-05
1.84189e-05
3.97107e-07
5.19119e-06
5.1891e-06
5.1831e-06
5.1826e-06
1.84069e-05
1.84164e-05
1.24029e-06
1.59697e-07
2.86822e-06
2.43845e-07
1.60197e-07
2.88709e-06
1.21334e-06
3.75631e-06
8.91977e-06
8.9232e-06
3.733e-06
3.75633e-06
8.92012e-06
8.92354e-06
3.73345e-06
1.25422e-06
2.4687e-07
1.61483e-07
2.9165e-06
1.60836e-07
2.89902e-06
1.27998e-06
1.25397e-06
2.4692e-07
1.61498e-07
2.91837e-06
1.6085e-07
2.89949e-06
1.27939e-06
3.76663e-06
8.92687e-06
8.92378e-06
3.78599e-06
3.76654e-06
8.9271e-06
8.92415e-06
3.78693e-06
1.84341e-05
1.84249e-05
1.84358e-05
1.84266e-05
3.97507e-07
5.18958e-06
5.1913e-06
5.18208e-06
5.18365e-06
1.84079e-05
1.84172e-05
1.84094e-05
1.84189e-05
1.83982e-05
1.83886e-05
1.84009e-05
1.83912e-05
5.19478e-06
5.19664e-06
4.18777e-07
5.20119e-06
5.20283e-06
1.83703e-05
1.83805e-05
1.8373e-05
1.83832e-05
4.26631e-07
5.21223e-06
5.21335e-06
5.20596e-06
5.20798e-06
3.81239e-06
8.92675e-06
3.7956e-06
8.92931e-06
1.31769e-06
2.92808e-06
1.62293e-07
2.56787e-07
1.29256e-06
2.94428e-06
1.63093e-07
1.3179e-06
2.92746e-06
1.62304e-07
2.5684e-07
1.29295e-06
2.94463e-06
1.63107e-07
3.82157e-06
8.931e-06
8.92907e-06
3.83563e-06
3.82178e-06
8.93163e-06
8.92962e-06
3.83595e-06
1.33033e-06
2.60326e-07
2.97158e-06
1.65009e-07
2.95534e-06
1.64062e-07
1.35362e-06
1.33049e-06
2.60368e-07
2.97114e-06
1.65032e-07
2.95602e-06
1.6408e-07
1.354e-06
5.19626e-06
5.19531e-06
4.18851e-07
5.20282e-06
5.20157e-06
1.83994e-05
1.83899e-05
1.83738e-05
1.83836e-05
4.26614e-07
5.21367e-06
5.21258e-06
5.20785e-06
5.20664e-06
1.8372e-05
1.83819e-05
1.31761e-06
2.92867e-06
1.62293e-07
2.56725e-07
1.29314e-06
2.94485e-06
1.63096e-07
3.81267e-06
8.92719e-06
3.79575e-06
8.92988e-06
1.31762e-06
1.62316e-07
2.92887e-06
2.56849e-07
1.29265e-06
1.63122e-07
2.94526e-06
3.82186e-06
8.93226e-06
8.93031e-06
3.83677e-06
1.33062e-06
2.60264e-07
2.97086e-06
1.65016e-07
2.95587e-06
1.64069e-07
1.35428e-06
3.822e-06
8.93208e-06
8.93009e-06
3.8362e-06
1.33095e-06
2.60381e-07
1.65045e-07
2.97255e-06
1.6409e-07
2.95567e-06
1.35436e-06
3.81383e-06
8.92703e-06
3.79679e-06
8.92955e-06
1.31796e-06
1.62294e-07
2.92729e-06
2.5679e-07
1.29309e-06
1.63104e-07
2.94608e-06
3.81288e-06
8.92691e-06
3.796e-06
8.92967e-06
1.33092e-06
2.60255e-07
2.97059e-06
1.65012e-07
2.9557e-06
1.64045e-07
1.35423e-06
3.82179e-06
8.93185e-06
8.92983e-06
3.8361e-06
1.33084e-06
2.60321e-07
1.65027e-07
2.97036e-06
1.64072e-07
2.95451e-06
1.35498e-06
3.82228e-06
8.93183e-06
8.92981e-06
3.83643e-06
5.19605e-06
5.19511e-06
4.19908e-07
5.20318e-06
5.20076e-06
1.8399e-05
1.83893e-05
1.83739e-05
1.8384e-05
4.26146e-07
5.21391e-06
5.21202e-06
5.20714e-06
5.20655e-06
1.8371e-05
1.83812e-05
1.31778e-06
1.62316e-07
2.92764e-06
2.56779e-07
1.29345e-06
1.63115e-07
2.94632e-06
3.81383e-06
8.92705e-06
3.79681e-06
8.92973e-06
3.81381e-06
8.92743e-06
3.79639e-06
8.93003e-06
1.33065e-06
2.60267e-07
1.6502e-07
2.97043e-06
1.6408e-07
2.95544e-06
1.35488e-06
1.33095e-06
2.60305e-07
1.65034e-07
2.97061e-06
1.64092e-07
2.95478e-06
1.3543e-06
3.82169e-06
8.9318e-06
8.9298e-06
3.83711e-06
3.82171e-06
8.93208e-06
8.93015e-06
3.83597e-06
1.84e-05
1.83903e-05
1.84016e-05
1.83917e-05
4.2571e-07
5.21225e-06
5.21368e-06
5.20568e-06
5.20742e-06
1.83721e-05
1.83822e-05
1.83733e-05
1.83836e-05
1.83619e-05
1.8351e-05
1.83646e-05
1.83537e-05
5.21633e-06
5.21839e-06
4.48817e-07
5.22107e-06
5.22376e-06
1.83307e-05
1.83423e-05
1.83333e-05
1.8345e-05
4.56959e-07
5.23019e-06
5.23183e-06
5.22587e-06
5.22755e-06
3.85679e-06
8.93162e-06
3.84369e-06
8.93272e-06
1.38877e-06
2.97979e-06
1.66131e-07
2.71452e-07
1.3663e-06
2.99443e-06
1.67213e-07
1.38904e-06
2.98126e-06
1.66153e-07
2.71502e-07
1.36656e-06
2.9968e-06
1.67243e-07
3.86269e-06
8.9314e-06
8.93148e-06
3.87305e-06
3.86254e-06
8.93254e-06
8.93241e-06
3.8743e-06
1.39971e-06
2.75393e-07
3.01693e-06
1.69694e-07
3.00415e-06
1.68478e-07
1.42123e-06
1.40016e-06
2.75438e-07
3.01767e-06
1.6973e-07
3.00405e-06
1.68506e-07
1.42185e-06
5.21818e-06
5.21701e-06
4.48542e-07
5.22295e-06
5.22175e-06
1.83637e-05
1.83532e-05
1.83352e-05
1.83465e-05
4.5691e-07
5.23233e-06
5.23088e-06
5.22777e-06
5.2265e-06
1.83333e-05
1.83446e-05
1.3892e-06
2.9813e-06
1.66141e-07
2.71384e-07
1.36649e-06
2.99516e-06
1.6723e-07
3.85643e-06
8.93202e-06
3.84427e-06
8.93307e-06
1.38954e-06
1.66167e-07
2.98036e-06
2.71509e-07
1.36671e-06
1.67259e-07
2.99672e-06
3.86293e-06
8.93267e-06
8.93277e-06
3.8739e-06
1.40038e-06
2.75319e-07
3.01747e-06
1.69716e-07
3.00486e-06
1.68493e-07
1.42153e-06
3.86377e-06
8.93281e-06
8.93273e-06
3.87429e-06
1.40078e-06
2.75445e-07
1.69756e-07
3.0176e-06
1.68527e-07
3.00402e-06
1.42212e-06
3.85668e-06
8.93182e-06
3.84475e-06
8.93295e-06
1.38987e-06
1.66148e-07
2.98108e-06
2.71443e-07
1.36685e-06
1.67242e-07
2.99502e-06
3.85676e-06
8.93179e-06
3.8446e-06
8.93285e-06
1.40105e-06
2.75319e-07
3.01748e-06
1.69713e-07
3.00491e-06
1.68477e-07
1.42263e-06
3.86434e-06
8.93283e-06
8.93264e-06
3.87558e-06
1.40089e-06
2.75378e-07
1.69737e-07
3.01737e-06
1.68508e-07
3.00474e-06
1.42259e-06
3.86419e-06
8.93258e-06
8.93251e-06
3.87555e-06
5.21773e-06
5.21656e-06
4.49044e-07
5.22356e-06
5.22213e-06
1.83626e-05
1.83517e-05
1.83346e-05
1.83461e-05
4.5709e-07
5.23236e-06
5.23092e-06
5.227e-06
5.2257e-06
1.83313e-05
1.83429e-05
1.38909e-06
1.66166e-07
2.9812e-06
2.71421e-07
1.36687e-06
1.67247e-07
2.99533e-06
3.85615e-06
8.93171e-06
3.84379e-06
8.93265e-06
3.85631e-06
8.932e-06
3.84446e-06
8.93291e-06
1.40068e-06
2.75321e-07
1.69716e-07
3.01844e-06
1.68507e-07
3.00332e-06
1.42176e-06
1.40093e-06
2.75349e-07
1.69734e-07
3.01882e-06
1.68522e-07
3.00444e-06
1.4219e-06
3.86381e-06
8.93221e-06
8.93228e-06
3.87499e-06
3.86383e-06
8.93241e-06
8.93253e-06
3.87405e-06
1.83638e-05
1.83529e-05
1.83649e-05
1.83538e-05
4.56791e-07
5.23056e-06
5.23186e-06
5.22561e-06
5.2271e-06
1.83326e-05
1.83442e-05
1.83333e-05
1.83451e-05
1.83216e-05
1.83092e-05
1.83242e-05
1.83116e-05
5.23437e-06
5.2361e-06
4.79841e-07
5.23837e-06
5.24012e-06
1.82867e-05
1.82998e-05
1.82888e-05
1.83021e-05
4.87764e-07
5.24573e-06
5.24737e-06
5.24196e-06
5.24362e-06
3.88881e-06
8.9318e-06
3.8796e-06
8.93086e-06
1.45162e-06
3.02612e-06
1.71092e-07
2.8755e-07
1.43156e-06
3.03771e-06
1.72414e-07
1.45175e-06
3.02699e-06
1.71125e-07
2.87603e-07
1.43229e-06
3.0401e-06
1.7246e-07
3.89428e-06
8.92685e-06
8.9284e-06
3.90277e-06
3.89473e-06
8.92836e-06
8.92977e-06
3.90252e-06
1.46158e-06
2.91819e-07
3.05691e-06
1.75376e-07
3.04626e-06
1.73944e-07
1.48001e-06
1.46235e-06
2.91872e-07
3.05917e-06
1.75432e-07
3.04626e-06
1.73985e-07
1.48069e-06
5.23618e-06
5.23494e-06
4.79242e-07
5.24047e-06
5.23895e-06
1.83243e-05
1.83122e-05
1.82922e-05
1.83049e-05
4.88126e-07
5.24768e-06
5.2461e-06
5.24378e-06
5.24252e-06
1.82898e-05
1.83028e-05
1.45214e-06
3.0267e-06
1.71115e-07
2.87462e-07
1.43264e-06
3.03947e-06
1.72445e-07
3.88993e-06
8.93206e-06
3.88079e-06
8.93112e-06
1.4532e-06
1.71158e-07
3.02688e-06
2.87602e-07
1.43305e-06
1.72495e-07
3.03997e-06
3.89562e-06
8.92794e-06
8.92961e-06
3.90358e-06
1.46284e-06
2.91728e-07
3.0585e-06
1.75414e-07
3.04573e-06
1.73975e-07
1.48114e-06
3.89565e-06
8.92865e-06
8.93003e-06
3.90458e-06
1.46286e-06
2.9186e-07
1.7548e-07
3.05899e-06
1.74026e-07
3.04615e-06
1.48178e-06
3.89136e-06
8.93215e-06
3.88078e-06
8.93123e-06
1.45313e-06
1.71138e-07
3.02665e-06
2.87528e-07
1.43344e-06
1.72479e-07
3.03952e-06
3.89038e-06
8.93181e-06
3.88075e-06
8.93082e-06
1.46321e-06
2.9174e-07
3.05751e-06
1.75423e-07
3.04716e-06
1.73971e-07
1.48242e-06
3.89606e-06
8.92869e-06
8.93014e-06
3.90455e-06
1.46385e-06
2.91788e-07
1.75462e-07
3.05853e-06
1.74009e-07
3.04573e-06
1.48256e-06
3.8967e-06
8.92815e-06
8.92967e-06
3.90564e-06
5.23566e-06
5.23423e-06
4.8053e-07
5.2403e-06
5.23888e-06
1.83222e-05
1.83098e-05
1.82911e-05
1.8304e-05
4.87302e-07
5.24749e-06
5.24597e-06
5.24343e-06
5.24199e-06
1.82871e-05
1.83003e-05
1.45249e-06
1.71139e-07
3.02549e-06
2.87483e-07
1.43275e-06
1.72464e-07
3.03783e-06
3.88942e-06
8.93142e-06
3.8801e-06
8.93036e-06
3.88967e-06
8.9316e-06
3.88077e-06
8.93049e-06
1.4627e-06
2.91729e-07
1.754e-07
3.0582e-06
1.73972e-07
3.04535e-06
1.48112e-06
1.46301e-06
2.91737e-07
1.75429e-07
3.05725e-06
1.73997e-07
3.04658e-06
1.48152e-06
3.89581e-06
8.92758e-06
8.92922e-06
3.90368e-06
3.89594e-06
8.92778e-06
8.92934e-06
3.90383e-06
1.83235e-05
1.83109e-05
1.83241e-05
1.83116e-05
4.87707e-07
5.24539e-06
5.24718e-06
5.24163e-06
5.2433e-06
1.8288e-05
1.83014e-05
1.82891e-05
1.83022e-05
1.8277e-05
1.82632e-05
1.82789e-05
1.82648e-05
5.24888e-06
5.25044e-06
5.10249e-07
5.25223e-06
5.25375e-06
1.82386e-05
1.8253e-05
1.82399e-05
1.82546e-05
5.1785e-07
5.25763e-06
5.25919e-06
5.25485e-06
5.25637e-06
3.91411e-06
8.92692e-06
3.90738e-06
8.92489e-06