/*--------------------------------*- C++ -*----------------------------------*\
| =========                 |                                                 |
| \\      /  F ield         | OpenFOAM: The Open Source CFD Toolbox           |
|  \\    /   O peration     | Version:  2312                                  |
|   \\  /    A nd           | Website:  www.openfoam.com                      |
|    \\/     M anipulation  |                                                 |
\*---------------------------------------------------------------------------*/
FoamFile
{
    version     2.0;
    format      ascii;
    arch        "LSB;label=32;scalar=64";
    class       volScalarField;
    location    "150";
    object      k;
}
// * * * * * * * * * * * * * * * * * * * * * * * * * * * * * * * * * * * * * //

dimensions      [0 2 -2 0 0 0 0];

internalField   nonuniform List<scalar> 
42840
(
1.45942e-05
1.62416e-05
1.62425e-05
1.86812e-05
1.43152e-05
1.64577e-05
1.64583e-05
1.93468e-05
1.40803e-05
1.67507e-05
1.6751e-05
2.00737e-05
1.38874e-05
1.7111e-05
1.71107e-05
2.08356e-05
1.37337e-05
1.7526e-05
1.75254e-05
2.16146e-05
1.36149e-05
1.79791e-05
1.79793e-05
2.23837e-05
1.35258e-05
1.8453e-05
1.84552e-05
2.31026e-05
1.34595e-05
1.89251e-05
1.89363e-05
2.37734e-05
1.34088e-05
1.9379e-05
1.94039e-05
2.43495e-05
1.337e-05
1.97962e-05
1.98407e-05
2.4867e-05
1.334e-05
2.01617e-05
2.02312e-05
2.53596e-05
1.33183e-05
2.04889e-05
2.05692e-05
2.5932e-05
1.3306e-05
2.08108e-05
2.08396e-05
2.64268e-05
1.33069e-05
2.1095e-05
2.10889e-05
2.68383e-05
1.33161e-05
2.13051e-05
2.12975e-05
2.70958e-05
1.33287e-05
2.1451e-05
2.14501e-05
2.73157e-05
1.33379e-05
2.15445e-05
2.15497e-05
2.74228e-05
1.3343e-05
2.16137e-05
2.16087e-05
2.74227e-05
1.33471e-05
2.1673e-05
2.16664e-05
2.75257e-05
1.33526e-05
2.17e-05
2.1709e-05
2.76408e-05
1.33592e-05
2.17156e-05
2.1733e-05
2.76872e-05
1.33703e-05
2.17299e-05
2.17504e-05
2.76438e-05
1.33851e-05
2.17521e-05
2.17679e-05
2.7612e-05
1.33986e-05
2.17743e-05
2.17992e-05
2.76601e-05
1.34092e-05
2.17899e-05
2.18437e-05
2.77017e-05
1.86808e-05
1.9189e-05
1.62413e-05
1.62419e-05
1.64011e-05
1.64016e-05
1.86795e-05
1.92103e-05
1.62411e-05
1.62425e-05
1.64005e-05
1.64022e-05
1.62415e-05
1.63987e-05
1.6402e-05
1.86714e-05
1.91895e-05
1.62421e-05
1.63995e-05
1.64027e-05
1.91866e-05
1.93452e-05
1.99267e-05
1.64571e-05
1.64579e-05
1.66764e-05
1.66772e-05
1.93346e-05
1.99267e-05
1.64565e-05
1.64582e-05
1.66756e-05
1.66775e-05
1.64572e-05
1.66737e-05
1.66772e-05
1.93484e-05
1.99269e-05
1.64576e-05
1.66741e-05
1.66776e-05
1.98964e-05
2.00693e-05
2.0667e-05
1.67498e-05
1.67506e-05
1.7022e-05
1.70229e-05
2.00606e-05
2.06848e-05
1.67491e-05
1.67506e-05
1.70211e-05
1.7023e-05
1.67494e-05
1.70186e-05
1.70225e-05
2.00601e-05
2.06612e-05
1.67495e-05
1.70185e-05
1.70224e-05
2.06591e-05
2.08497e-05
2.14586e-05
1.711e-05
1.71106e-05
1.74262e-05
1.74269e-05
2.08334e-05
2.14421e-05
1.71091e-05
1.71103e-05
1.74245e-05
1.74265e-05
1.71091e-05
1.74215e-05
1.74263e-05
2.08432e-05
2.14323e-05
1.71085e-05
1.74211e-05
1.74251e-05
2.14732e-05
2.16401e-05
2.222e-05
1.75255e-05
1.75261e-05
1.78741e-05
1.78748e-05
2.16237e-05
2.2219e-05
1.75234e-05
1.75252e-05
1.78706e-05
1.7875e-05
1.75238e-05
1.78674e-05
1.78725e-05
2.16244e-05
2.2221e-05
1.75218e-05
1.78672e-05
1.78712e-05
2.22459e-05
2.2408e-05
2.29746e-05
1.79803e-05
1.79804e-05
1.83479e-05
1.83486e-05
2.23951e-05
2.29689e-05
1.79762e-05
1.7981e-05
1.8342e-05
1.83514e-05
1.79766e-05
1.83387e-05
1.8343e-05
2.23935e-05
2.29675e-05
1.79742e-05
1.83397e-05
1.83431e-05
2.29745e-05
2.31495e-05
2.36802e-05
1.84561e-05
1.84567e-05
1.88253e-05
1.88286e-05
2.31324e-05
2.36113e-05
1.84499e-05
1.84604e-05
1.88177e-05
1.88382e-05
1.84484e-05
1.88135e-05
1.88157e-05
2.31494e-05
2.36972e-05
1.8448e-05
1.88215e-05
1.882e-05
2.36055e-05
2.37894e-05
2.42041e-05
1.89297e-05
1.89339e-05
1.92854e-05
1.92919e-05
2.38149e-05
2.4198e-05
1.89214e-05
1.89459e-05
1.92743e-05
1.93162e-05
1.89173e-05
1.92731e-05
1.92707e-05
2.38785e-05
2.43498e-05
1.89225e-05
1.92952e-05
1.92817e-05
2.41675e-05
2.43662e-05
2.4788e-05
1.93828e-05
1.93893e-05
1.97187e-05
1.97218e-05
2.44034e-05
2.48151e-05
1.93716e-05
1.94171e-05
1.97073e-05
1.97642e-05
1.93657e-05
1.97015e-05
1.96951e-05
2.45028e-05
2.4914e-05
1.93773e-05
1.97417e-05
1.97159e-05
2.47321e-05
2.49141e-05
2.52709e-05
1.98087e-05
1.98087e-05
2.01174e-05
2.01057e-05
2.49552e-05
2.5303e-05
1.97964e-05
1.98543e-05
2.01015e-05
2.01638e-05
1.97801e-05
2.00802e-05
2.00768e-05
2.50793e-05
2.54832e-05
1.98028e-05
2.01436e-05
2.01122e-05
2.52673e-05
2.54261e-05
2.58338e-05
2.01987e-05
2.01814e-05
2.04812e-05
2.04432e-05
2.54702e-05
2.57635e-05
2.018e-05
2.02419e-05
2.04614e-05
2.0521e-05
2.01538e-05
2.04137e-05
2.04284e-05
2.5624e-05
2.60779e-05
2.01885e-05
2.04973e-05
2.04586e-05
2.57941e-05
2.60155e-05
2.64068e-05
2.05519e-05
2.05079e-05
2.07903e-05
2.07485e-05
2.58967e-05
2.62496e-05
2.05314e-05
2.05887e-05
2.0768e-05
2.08257e-05
2.04985e-05
2.07354e-05
2.07498e-05
2.62186e-05
2.652e-05
2.05204e-05
2.07809e-05
2.07503e-05
2.62981e-05
2.65266e-05
2.67907e-05
2.08492e-05
2.08123e-05
2.10549e-05
2.10378e-05
2.64133e-05
2.67605e-05
2.08268e-05
2.08802e-05
2.10399e-05
2.10793e-05
2.08154e-05
2.10342e-05
2.10442e-05
2.66144e-05
2.68053e-05
2.08069e-05
2.10329e-05
2.10275e-05
2.67368e-05
2.68879e-05
2.7053e-05
2.11062e-05
2.10933e-05
2.12797e-05
2.12765e-05
2.68671e-05
2.70582e-05
2.10924e-05
2.11252e-05
2.12674e-05
2.12858e-05
2.10986e-05
2.12635e-05
2.12745e-05
2.68956e-05
2.7048e-05
2.10817e-05
2.12562e-05
2.12607e-05
2.70169e-05
2.71308e-05
2.72144e-05
2.13201e-05
2.13173e-05
2.1455e-05
2.1455e-05
2.71391e-05
2.72464e-05
2.13093e-05
2.13169e-05
2.14455e-05
2.14311e-05
2.13128e-05
2.14221e-05
2.14445e-05
2.71215e-05
2.72044e-05
2.12978e-05
2.14196e-05
2.14298e-05
2.72363e-05
2.72807e-05
2.73374e-05
2.14825e-05
2.14819e-05
2.15657e-05
2.15594e-05
2.73131e-05
2.73459e-05
2.14739e-05
2.14559e-05
2.1556e-05
2.15442e-05
2.14707e-05
2.15281e-05
2.15522e-05
2.72354e-05
2.72961e-05
2.14583e-05
2.15313e-05
2.15479e-05
2.73773e-05
2.73298e-05
2.72944e-05
2.15805e-05
2.15717e-05
2.16197e-05
2.16196e-05
2.73918e-05
2.73937e-05
2.15705e-05
2.15607e-05
2.16096e-05
2.1609e-05
2.15663e-05
2.15982e-05
2.16093e-05
2.73565e-05
2.73652e-05
2.15619e-05
2.15979e-05
2.16139e-05
2.73761e-05
2.73378e-05
2.72361e-05
2.1627e-05
2.16307e-05
2.16472e-05
2.16731e-05
2.74538e-05
2.7539e-05
2.16156e-05
2.16175e-05
2.16319e-05
2.16557e-05
2.16176e-05
2.16644e-05
2.16518e-05
2.74131e-05
2.74449e-05
2.16242e-05
2.16539e-05
2.16606e-05
2.74568e-05
2.73061e-05
2.74287e-05
2.16537e-05
2.16829e-05
2.16715e-05
2.17012e-05
2.76045e-05
2.76288e-05
2.16367e-05
2.16645e-05
2.16597e-05
2.16992e-05
2.16611e-05
2.16969e-05
2.16932e-05
2.75125e-05
2.75851e-05
2.167e-05
2.17036e-05
2.16922e-05
2.75861e-05
2.74964e-05
2.75437e-05
2.16758e-05
2.17059e-05
2.16868e-05
2.17144e-05
2.76816e-05
2.76558e-05
2.16653e-05
2.17061e-05
2.16786e-05
2.17203e-05
2.17008e-05
2.17132e-05
2.17329e-05
2.76431e-05
2.76541e-05
2.16977e-05
2.17297e-05
2.17048e-05
2.76406e-05
2.75979e-05
2.76095e-05
2.169e-05
2.17185e-05
2.17122e-05
2.17309e-05
2.77051e-05
2.75368e-05
2.16841e-05
2.17244e-05
2.17045e-05
2.17366e-05
2.17408e-05
2.17271e-05
2.17726e-05
2.77029e-05
2.76925e-05
2.17072e-05
2.17481e-05
2.17184e-05
2.7597e-05
2.76601e-05
2.75968e-05
2.17196e-05
2.17356e-05
2.17527e-05
2.17602e-05
2.75825e-05
2.75833e-05
2.17111e-05
2.17411e-05
2.17462e-05
2.1771e-05
2.17806e-05
2.17479e-05
2.17967e-05
2.77398e-05
2.77271e-05
2.1722e-05
2.17641e-05
2.17484e-05
2.75626e-05
2.75812e-05
2.75828e-05
2.17613e-05
2.17689e-05
2.17977e-05
2.17887e-05
2.76331e-05
2.76283e-05
2.17549e-05
2.17798e-05
2.17931e-05
2.18193e-05
2.17986e-05
2.17717e-05
2.18068e-05
2.7775e-05
2.77653e-05
2.17569e-05
2.17927e-05
2.17794e-05
2.7612e-05
2.76356e-05
2.76485e-05
2.18049e-05
2.17932e-05
2.18265e-05
2.18007e-05
2.76754e-05
2.7661e-05
2.18009e-05
2.18286e-05
2.18233e-05
2.1854e-05
2.18107e-05
2.17859e-05
2.18196e-05
2.78126e-05
2.77985e-05
2.17851e-05
2.18319e-05
2.17935e-05
2.76536e-05
2.76989e-05
2.18362e-05
2.18061e-05
2.7707e-05
2.18331e-05
2.18656e-05
2.1829e-05
2.78453e-05
2.17973e-05
5.47784e-05
7.00918e-05
7.01131e-05
5.43125e-05
6.95492e-05
6.95268e-05
5.47801e-05
7.00943e-05
7.01131e-05
5.43115e-05
1.45943e-05
1.45948e-05
1.45946e-05
1.43829e-05
1.43826e-05
1.43831e-05
1.43837e-05
3.10077e-05
4.63952e-05
1.47104e-05
1.62903e-05
4.67626e-05
1.46781e-05
3.046e-05
6.95496e-05
6.9527e-05
3.10068e-05
1.47112e-05
4.63941e-05
1.62914e-05
1.46789e-05
4.6762e-05
3.04668e-05
5.96711e-05
5.96792e-05
1.88545e-05
5.9863e-05
5.98714e-05
5.5811e-05
7.01329e-05
5.54294e-05
7.01469e-05
6.94656e-05
6.94423e-05
5.58156e-05
7.01337e-05
5.54304e-05
7.01479e-05
1.43155e-05
1.43159e-05
1.43157e-05
1.41376e-05
1.41374e-05
1.41377e-05
1.41384e-05
3.25943e-05
4.74771e-05
1.46019e-05
1.65268e-05
3.2078e-05
4.78074e-05
1.45855e-05
6.94655e-05
6.94418e-05
3.25941e-05
1.46026e-05
4.7473e-05
1.65274e-05
3.20826e-05
1.45862e-05
4.78024e-05
6.02233e-05
6.02304e-05
1.95589e-05
6.03899e-05
6.03965e-05
5.66395e-05
7.01591e-05
5.6326e-05
7.01652e-05
6.93783e-05
6.93526e-05
5.66517e-05
7.01602e-05
5.63328e-05
7.01664e-05
1.40807e-05
1.40809e-05
1.40808e-05
1.39349e-05
1.39348e-05
1.3935e-05
1.39358e-05
3.40567e-05
4.84447e-05
1.4557e-05
1.68382e-05
3.35904e-05
4.87351e-05
1.45573e-05
6.93769e-05
6.93507e-05
3.40535e-05
1.45577e-05
4.84373e-05
1.68382e-05
3.35826e-05
1.45576e-05
4.8726e-05
6.07039e-05
6.07085e-05
2.02764e-05
6.08495e-05
6.08524e-05
5.73053e-05
7.01616e-05
5.70463e-05
7.01571e-05
6.92822e-05
6.92529e-05
5.73312e-05
7.01627e-05
5.7066e-05
7.01582e-05
1.38878e-05
1.38879e-05
1.38878e-05
1.37721e-05
1.3772e-05
1.37721e-05
1.3773e-05
3.53705e-05
4.92985e-05
1.45719e-05
1.72138e-05
3.49555e-05
4.95557e-05
1.45866e-05
6.92793e-05
6.92494e-05
3.53515e-05
1.45717e-05
4.92832e-05
1.72132e-05
3.49371e-05
1.45861e-05
4.95398e-05
6.11194e-05
6.11242e-05
2.10774e-05
6.12456e-05
6.12511e-05
5.78478e-05
7.01375e-05
5.7633e-05
7.01266e-05
6.91751e-05
6.91422e-05
5.78842e-05
7.01376e-05
5.7666e-05
7.0127e-05
1.37342e-05
1.37341e-05
1.37338e-05
1.36454e-05
1.36455e-05
1.36454e-05
1.36462e-05
3.65219e-05
5.00371e-05
1.46384e-05
1.76401e-05
3.61566e-05
5.02578e-05
1.46661e-05
6.9171e-05
6.91378e-05
3.64931e-05
1.46368e-05
5.00182e-05
1.76396e-05
3.61282e-05
1.46641e-05
5.02359e-05
6.14748e-05
6.14872e-05
2.18521e-05
6.15793e-05
6.15996e-05
5.8294e-05
7.00941e-05
5.81195e-05
7.00771e-05
6.90574e-05
6.90214e-05
5.83361e-05
7.00928e-05
5.81593e-05
7.0078e-05
1.36154e-05
1.36153e-05
1.36148e-05
1.35498e-05
1.35501e-05
1.35501e-05
1.35504e-05
3.75057e-05
5.06605e-05
1.47486e-05
1.81009e-05
3.71924e-05
5.08423e-05
1.47859e-05
6.90532e-05
6.90173e-05
3.74926e-05
1.47451e-05
5.06358e-05
1.81012e-05
3.71715e-05
1.47818e-05
5.08252e-05
6.17614e-05
6.18003e-05
2.26191e-05
6.18516e-05
6.18942e-05
5.86436e-05
7.00346e-05
5.85072e-05
7.00166e-05
6.89343e-05
6.88995e-05
5.86862e-05
7.0034e-05
5.85517e-05
7.00137e-05
1.35264e-05
1.35265e-05
1.35252e-05
1.34788e-05
1.34795e-05
1.34805e-05
1.34788e-05
3.83462e-05
5.11743e-05
1.48912e-05
1.85771e-05
3.80737e-05
5.13305e-05
1.49357e-05
6.89312e-05
6.88969e-05
3.83336e-05
1.48869e-05
5.11546e-05
1.85801e-05
3.80642e-05
1.49305e-05
5.13065e-05
6.20007e-05
6.20511e-05
2.32971e-05
6.20775e-05
6.21285e-05
5.89184e-05
6.99681e-05
5.8805e-05
6.99496e-05
6.8819e-05
6.87894e-05
5.89567e-05
6.99662e-05
5.88544e-05
6.99439e-05
1.34606e-05
1.3462e-05
1.34587e-05
1.34249e-05
1.34265e-05
1.34301e-05
1.34243e-05
3.9075e-05
5.16023e-05
1.50561e-05
1.90457e-05
3.88342e-05
5.17278e-05
1.51048e-05
6.88197e-05
6.87917e-05
3.90166e-05
1.50527e-05
5.15739e-05
1.90601e-05
3.87904e-05
1.51005e-05
5.17053e-05
6.21852e-05
6.22549e-05
2.39312e-05
6.22455e-05
6.23181e-05
5.91591e-05
6.99013e-05
5.90603e-05
6.98849e-05
6.87231e-05
6.87019e-05
5.91724e-05
6.98994e-05
5.90826e-05
6.98824e-05
1.34112e-05
1.34159e-05
1.34085e-05
1.33828e-05
1.33847e-05
1.33927e-05
1.33814e-05
3.96995e-05
5.19529e-05
1.52337e-05
1.94925e-05
3.94844e-05
5.20582e-05
1.5284e-05
6.87305e-05
6.87125e-05
3.96033e-05
1.52265e-05
5.19252e-05
1.95218e-05
3.93995e-05
1.52739e-05
5.20224e-05
6.23325e-05
6.24221e-05
2.44888e-05
6.23842e-05
6.24814e-05
5.92765e-05
6.98521e-05
5.92193e-05
6.98436e-05
6.86573e-05
6.86483e-05
5.93615e-05
6.9857e-05
5.9286e-05
6.98511e-05
1.33717e-05
1.33818e-05
1.3369e-05
1.33499e-05
1.33488e-05
1.33626e-05
1.33469e-05
4.0295e-05
5.22412e-05
1.54107e-05
1.98974e-05
4.00836e-05
5.23715e-05
1.5457e-05
6.86712e-05
6.86635e-05
4.01587e-05
1.53949e-05
5.22067e-05
1.99485e-05
3.99584e-05
1.5441e-05
5.23351e-05
6.24676e-05
6.25743e-05
2.49753e-05
6.25089e-05
6.26288e-05
5.93689e-05
6.98301e-05
5.93297e-05
6.98264e-05
6.86227e-05
6.86238e-05
5.9547e-05
6.98392e-05
5.94631e-05
6.98357e-05
1.33375e-05
1.33533e-05
1.33369e-05
1.33256e-05
1.33186e-05
1.3337e-05
1.332e-05
4.07829e-05
5.24867e-05
1.55693e-05
2.02501e-05
4.06292e-05
5.25005e-05
1.56108e-05
6.86382e-05
6.86384e-05
4.06689e-05
1.55617e-05
5.2524e-05
2.03271e-05
4.04753e-05
1.56058e-05
5.25631e-05
6.25521e-05
6.27078e-05
2.54914e-05
6.2564e-05
6.2736e-05
5.95102e-05
6.98222e-05
5.9443e-05
6.98255e-05
6.86109e-05
6.86171e-05
5.97053e-05
6.98265e-05
5.96708e-05
6.98242e-05
1.33115e-05
1.33292e-05
1.33126e-05
1.33097e-05
1.33025e-05
1.33167e-05
1.33025e-05
4.1059e-05
5.26111e-05
1.57064e-05
2.05726e-05
4.0996e-05
5.26985e-05
1.57416e-05
6.86245e-05
6.86291e-05
4.11533e-05
1.57151e-05
5.26041e-05
2.06464e-05
4.09803e-05
1.57541e-05
5.26717e-05
6.2588e-05
6.27308e-05
2.60514e-05
6.26286e-05
6.27353e-05
5.96585e-05
6.98357e-05
5.95924e-05
6.9848e-05
6.86107e-05
6.86218e-05
5.97288e-05
6.9825e-05
5.97419e-05
6.9839e-05
1.33019e-05
1.33126e-05
1.33007e-05
1.33062e-05
1.33047e-05
1.33081e-05
1.33022e-05
4.11594e-05
5.28873e-05
1.58402e-05
2.08908e-05
4.11871e-05
5.29674e-05
1.58804e-05
6.86186e-05
6.86272e-05
4.1469e-05
1.58569e-05
5.28298e-05
2.09062e-05
4.13482e-05
1.58944e-05
5.29161e-05
6.27171e-05
6.27374e-05
2.65338e-05
6.277e-05
6.27725e-05
5.98178e-05
6.98661e-05
5.97557e-05
6.98773e-05
6.86254e-05
6.86394e-05
5.98266e-05
6.98606e-05
5.97696e-05
6.98747e-05
1.3306e-05
1.33088e-05
1.33034e-05
1.33141e-05
1.33135e-05
1.33123e-05
1.33108e-05
4.15571e-05
5.30692e-05
1.59815e-05
2.11588e-05
4.13405e-05
5.31133e-05
1.60179e-05
6.86273e-05
6.86404e-05
4.16883e-05
1.59931e-05
5.30882e-05
2.11506e-05
4.15739e-05
1.60283e-05
5.31465e-05
6.2851e-05
6.28639e-05
2.68941e-05
6.29026e-05
6.29051e-05
5.99582e-05
6.98927e-05
5.98967e-05
6.99047e-05
6.86414e-05
6.86532e-05
5.99244e-05
6.98899e-05
5.98793e-05
6.99029e-05
1.33162e-05
1.33138e-05
1.33128e-05
1.33268e-05
1.33248e-05
1.33214e-05
1.3322e-05
4.1913e-05
5.32317e-05
1.61111e-05
2.13485e-05
4.1872e-05
5.32886e-05
1.61429e-05
6.86422e-05
6.8654e-05
4.19821e-05
1.6122e-05
5.32288e-05
2.13422e-05
4.18663e-05
1.61528e-05
5.32866e-05
6.29634e-05
6.29795e-05
2.71251e-05
6.29951e-05
6.30073e-05
6.00172e-05
6.99169e-05
5.99981e-05
6.99224e-05
6.86499e-05
6.86583e-05
6.00031e-05
6.99149e-05
5.99845e-05
6.99218e-05
1.33271e-05
1.33236e-05
1.33245e-05
1.33368e-05
1.33344e-05
1.33326e-05
1.3333e-05
4.20305e-05
5.33396e-05
1.62187e-05
2.14812e-05
4.19985e-05
5.33746e-05
1.62429e-05
6.86517e-05
6.86614e-05
4.20546e-05
1.62246e-05
5.33664e-05
2.14817e-05
4.20619e-05
1.62471e-05
5.33768e-05
6.30185e-05
6.30351e-05
2.73313e-05
6.30161e-05
6.30329e-05
5.99803e-05
6.99247e-05
5.99857e-05
6.99268e-05
6.86496e-05
6.8657e-05
6.00751e-05
6.99253e-05
6.00572e-05
6.99274e-05
1.33365e-05
1.33348e-05
1.33352e-05
1.33424e-05
1.3343e-05
1.33426e-05
1.33419e-05
4.20886e-05
5.34487e-05
1.63003e-05
2.15633e-05
4.2077e-05
5.34448e-05
1.63195e-05
6.86583e-05
6.86682e-05
4.20826e-05
1.63033e-05
5.34402e-05
2.15691e-05
4.21458e-05
1.63224e-05
5.3458e-05
6.30353e-05
6.30643e-05
2.73769e-05
6.30314e-05
6.30632e-05
5.99923e-05
6.99244e-05
5.9993e-05
6.99251e-05
6.86505e-05
6.866e-05
6.00249e-05
6.99236e-05
6.00303e-05
6.99241e-05
1.33447e-05
1.33448e-05
1.33435e-05
1.33463e-05
1.33517e-05
1.33529e-05
1.33505e-05
4.21571e-05
5.34479e-05
1.63574e-05
2.16329e-05
4.2156e-05
5.3492e-05
1.63681e-05
6.86629e-05
6.86722e-05
4.21144e-05
1.6361e-05
5.34362e-05
2.16237e-05
4.21257e-05
1.63718e-05
5.34467e-05
6.30444e-05
6.30676e-05
2.74016e-05
6.30415e-05
6.30725e-05
6.00093e-05
6.99229e-05
6.00132e-05
6.9924e-05
6.86548e-05
6.86638e-05
5.99624e-05
6.99204e-05
5.99641e-05
6.99218e-05
1.33536e-05
1.33549e-05
1.33525e-05
1.33516e-05
1.33584e-05
1.3363e-05
1.33601e-05
4.21248e-05
5.34865e-05
1.63837e-05
2.16845e-05
4.21096e-05
5.34877e-05
1.63893e-05
6.86662e-05
6.86738e-05
4.21339e-05
1.63889e-05
5.34715e-05
2.16819e-05
4.21347e-05
1.63952e-05
5.34842e-05
6.3053e-05
6.30791e-05
2.75324e-05
6.30642e-05
6.30705e-05
6.00107e-05
6.99222e-05
5.99834e-05
6.99243e-05
6.8661e-05
6.86722e-05
5.99665e-05
6.99202e-05
5.99581e-05
6.99217e-05
1.33594e-05
1.33652e-05
1.3362e-05
1.33578e-05
1.33646e-05
1.33713e-05
1.33696e-05
4.2158e-05
5.35078e-05
1.63976e-05
2.17063e-05
4.21556e-05
5.34863e-05
1.64019e-05
6.86697e-05
6.86798e-05
4.20844e-05
1.6402e-05
5.34488e-05
2.17183e-05
4.20907e-05
1.64052e-05
5.34697e-05
6.30682e-05
6.30909e-05
2.76198e-05
6.30692e-05
6.30876e-05
6.0022e-05
6.99271e-05
6.0003e-05
6.9934e-05
6.86717e-05
6.86846e-05
5.99554e-05
6.99223e-05
5.99924e-05
6.99266e-05
1.33666e-05
1.33733e-05
1.33716e-05
1.33681e-05
1.33736e-05
1.33799e-05
1.33795e-05
4.2125e-05
5.34975e-05
1.64117e-05
2.17188e-05
4.21501e-05
5.34844e-05
1.64172e-05
6.86778e-05
6.86892e-05
4.21338e-05
1.64088e-05
5.34803e-05
2.17401e-05
4.2123e-05
1.64105e-05
5.34775e-05
6.30764e-05
6.30989e-05
2.76604e-05
6.30939e-05
6.30872e-05
5.99739e-05
6.99423e-05
6.00092e-05
6.99507e-05
6.8683e-05
6.86944e-05
5.99487e-05
6.99339e-05
5.99483e-05
6.99415e-05
1.33754e-05
1.33817e-05
1.33814e-05
1.33826e-05
1.33832e-05
1.33906e-05
1.33889e-05
4.22011e-05
5.35045e-05
1.643e-05
2.1736e-05
4.21356e-05
5.35116e-05
1.64363e-05
6.86898e-05
6.87025e-05
4.21185e-05
1.64147e-05
5.34707e-05
2.17548e-05
4.21355e-05
1.64168e-05
5.34626e-05
6.30899e-05
6.30936e-05
2.76215e-05
6.30764e-05
6.3105e-05
5.99858e-05
6.99606e-05
5.99866e-05
6.99691e-05
6.86921e-05
6.87032e-05
5.99816e-05
6.99521e-05
5.99584e-05
6.99606e-05
1.33853e-05
1.33931e-05
1.33907e-05
1.33967e-05
1.3391e-05
1.34029e-05
1.33961e-05
4.22135e-05
5.35335e-05
1.64484e-05
2.17616e-05
4.22065e-05
5.35516e-05
1.64539e-05
6.87027e-05
6.87135e-05
4.21319e-05
1.64227e-05
5.3479e-05
2.17756e-05
4.20546e-05
1.64254e-05
5.3464e-05
6.30892e-05
6.31231e-05
2.75888e-05
6.30831e-05
6.3123e-05
5.99965e-05
6.99764e-05
5.99724e-05
6.99806e-05
6.87007e-05
6.87122e-05
5.99654e-05
6.99714e-05
5.99791e-05
6.9978e-05
1.33925e-05
1.34052e-05
1.33977e-05
1.34065e-05
1.33947e-05
1.34129e-05
1.34009e-05
4.21789e-05
5.35659e-05
1.64625e-05
2.17811e-05
4.21575e-05
5.35601e-05
1.64673e-05
6.87109e-05
6.87214e-05
4.20931e-05
1.64339e-05
5.34988e-05
2.18128e-05
4.21314e-05
1.64391e-05
5.35205e-05
6.31009e-05
6.31372e-05
2.76332e-05
6.31049e-05
6.31398e-05
5.99958e-05
6.9983e-05
5.99998e-05
6.99872e-05
6.87091e-05
6.87195e-05
5.99837e-05
6.99876e-05
5.99847e-05
6.99957e-05
1.33969e-05
1.34168e-05
1.34034e-05
4.21939e-05
5.35749e-05
1.64763e-05
2.17931e-05
4.22236e-05
5.35912e-05
1.64794e-05
6.8717e-05
6.87254e-05
4.20654e-05
1.6451e-05
5.3561e-05
2.18508e-05
4.21208e-05
1.64523e-05
5.35639e-05
6.31146e-05
6.31479e-05
2.76739e-05
6.31187e-05
6.31368e-05
6.95474e-05
6.9525e-05
6.95497e-05
6.95272e-05
5.96743e-05
5.96839e-05
1.88552e-05
5.98641e-05
5.98749e-05
6.9483e-05
6.95059e-05
6.9485e-05
6.9508e-05
1.90063e-05
6.01383e-05
6.0148e-05
5.99605e-05
5.99682e-05
5.47798e-05
7.00904e-05
7.0109e-05
5.43143e-05
3.10067e-05
4.63931e-05
1.47106e-05
1.62926e-05
4.67653e-05
1.46785e-05
3.04606e-05
3.10089e-05
4.64001e-05
1.47106e-05
1.6293e-05
4.67683e-05
1.46785e-05
3.04655e-05
5.49014e-05
7.01316e-05
7.01135e-05
5.53217e-05
5.49037e-05
7.01284e-05
7.01123e-05
5.53223e-05
3.12789e-05
1.63391e-05
4.72976e-05
1.46239e-05
4.69485e-05
1.46481e-05
3.18092e-05
3.1281e-05
1.63398e-05
4.73051e-05
1.4624e-05
4.69514e-05
1.46481e-05
3.18104e-05
5.968e-05
5.96774e-05
1.88733e-05
5.98702e-05
5.98677e-05
6.95482e-05
6.95262e-05
6.9485e-05
6.95077e-05
1.89938e-05
6.01435e-05
6.01426e-05
5.99657e-05
5.99632e-05
6.94844e-05
6.95069e-05
3.1003e-05
4.63967e-05
1.47104e-05
1.62922e-05
4.67662e-05
1.46783e-05
3.04649e-05
5.47817e-05
7.00904e-05
7.01093e-05
5.43129e-05
3.10048e-05
1.47106e-05
4.63994e-05
1.62938e-05
1.46784e-05
4.6765e-05
3.04671e-05
5.49013e-05
7.01324e-05
7.01153e-05
5.53248e-05
3.12823e-05
1.63387e-05
4.72989e-05
1.46237e-05
4.69533e-05
1.46478e-05
3.181e-05
5.49034e-05
7.01278e-05
7.01121e-05
5.53253e-05
3.12851e-05
1.63402e-05
1.46237e-05
4.73017e-05
1.4648e-05
4.69554e-05
3.18096e-05
5.4776e-05
7.00907e-05
7.01117e-05
5.43193e-05
3.10066e-05
1.47109e-05
4.63964e-05
1.62936e-05
1.46787e-05
4.67612e-05
3.04667e-05
5.47816e-05
7.009e-05
7.01089e-05
5.43169e-05
3.12804e-05
1.63395e-05
4.7299e-05
1.46237e-05
4.69514e-05
1.4648e-05
3.1811e-05
5.49093e-05
7.01309e-05
7.01135e-05
5.53209e-05
3.12865e-05
1.63393e-05
1.46242e-05
4.72976e-05
1.46484e-05
4.69518e-05
3.18143e-05
5.49077e-05
7.01273e-05
7.01117e-05
5.53268e-05
5.96809e-05
5.96748e-05
1.88521e-05
5.98713e-05
5.9866e-05
6.95481e-05
6.95257e-05
6.9485e-05
6.9508e-05
1.9006e-05
6.01448e-05
6.01386e-05
5.99667e-05
5.99601e-05
6.94834e-05
6.95065e-05
3.10105e-05
1.47113e-05
4.63979e-05
1.62943e-05
1.46793e-05
4.67638e-05
3.04639e-05
5.47783e-05
7.00912e-05
7.01132e-05
5.43206e-05
5.47771e-05
7.00886e-05
7.01108e-05
5.43199e-05
3.12858e-05
1.63404e-05
1.46243e-05
4.72991e-05
1.46486e-05
4.69504e-05
3.1811e-05
3.1284e-05
1.63398e-05
1.46248e-05
4.7303e-05
1.46488e-05
4.69527e-05
3.18099e-05
5.49106e-05
7.01314e-05
7.01142e-05
5.53219e-05
5.49098e-05
7.01288e-05
7.01109e-05
5.5321e-05
6.95477e-05
6.95252e-05
6.95492e-05
6.95266e-05
1.90048e-05
6.01357e-05
6.01428e-05
5.9956e-05
5.99643e-05
6.9483e-05
6.9506e-05
6.94842e-05
6.95073e-05
6.94635e-05
6.94398e-05
6.94654e-05
6.94417e-05
6.02257e-05
6.0234e-05
1.95627e-05
6.03927e-05
6.04025e-05
6.9395e-05
6.94199e-05
6.93969e-05
6.94217e-05
1.96927e-05
6.06324e-05
6.06429e-05
6.04732e-05
6.04829e-05
5.5815e-05
7.01305e-05
5.54327e-05
7.01447e-05
3.25866e-05
4.74755e-05
1.4602e-05
1.65294e-05
3.20734e-05
4.78032e-05
1.45856e-05
3.25929e-05
4.74768e-05
1.46022e-05
1.65301e-05
3.20779e-05
4.78113e-05
1.45859e-05
5.59032e-05
7.01592e-05
7.01481e-05
5.62463e-05
5.59072e-05
7.01578e-05
7.01454e-05
5.62493e-05
3.28428e-05
1.65944e-05
4.82839e-05
1.45635e-05
4.79693e-05
1.45719e-05
3.33303e-05
3.28466e-05
1.65953e-05
4.82906e-05
1.45639e-05
4.7974e-05
1.45721e-05
3.33369e-05
6.02329e-05
6.02312e-05
1.95619e-05
6.03994e-05
6.03961e-05
6.94649e-05
6.94416e-05
6.93985e-05
6.94226e-05
1.96911e-05
6.0641e-05
6.06368e-05
6.04814e-05
6.04804e-05
6.93977e-05
6.94218e-05
3.25868e-05
4.74786e-05
1.46017e-05
1.65286e-05
3.20762e-05
4.78075e-05
1.45854e-05
5.5819e-05
7.01305e-05
5.54345e-05
7.0144e-05
3.25915e-05
1.46018e-05
4.74808e-05
1.65304e-05
3.2083e-05
1.45855e-05
4.78067e-05
5.59061e-05
7.01603e-05
7.01491e-05
5.62537e-05
3.28484e-05
1.65937e-05
4.82864e-05
1.45634e-05
4.7972e-05
1.45716e-05
3.33322e-05
5.5911e-05
7.01569e-05
7.01454e-05
5.62555e-05
3.28545e-05
1.65953e-05
1.45636e-05
4.82882e-05
1.45717e-05
4.79768e-05
3.3338e-05
5.5816e-05
7.01324e-05
5.54405e-05
7.01468e-05
3.25976e-05
1.46023e-05
4.7477e-05
1.65303e-05
3.20819e-05
1.45861e-05
4.7804e-05
5.58215e-05
7.01304e-05
5.54394e-05
7.01436e-05
3.28491e-05
1.65952e-05
4.82847e-05
1.45636e-05
4.79754e-05
1.45718e-05
3.33383e-05
5.59177e-05
7.01597e-05
7.01478e-05
5.62548e-05
3.28547e-05
1.65942e-05
1.45641e-05
4.82861e-05
1.45722e-05
4.79734e-05
3.33455e-05
5.59169e-05
7.01568e-05
7.01454e-05
5.62602e-05
6.02316e-05
6.02256e-05
1.95362e-05
6.03996e-05
6.03918e-05
6.94638e-05
6.94398e-05
6.93973e-05
6.94221e-05
1.97017e-05
6.06389e-05
6.06319e-05
6.04813e-05
6.04742e-05
6.93949e-05
6.94198e-05
3.25927e-05
1.46028e-05
4.74746e-05
1.65308e-05
3.20838e-05
1.45866e-05
4.78069e-05
5.5816e-05
7.01335e-05
5.54407e-05
7.01467e-05
5.58147e-05
7.01304e-05
5.54394e-05
7.0144e-05
3.28506e-05
1.65956e-05
1.45641e-05
4.82805e-05
1.45725e-05
4.79701e-05
3.33425e-05
3.2854e-05
1.65944e-05
1.45646e-05
4.82824e-05
1.45728e-05
4.79701e-05
3.33412e-05
5.59156e-05
7.01592e-05
7.01483e-05
5.6252e-05
5.59145e-05
7.01563e-05
7.01454e-05
5.62505e-05
6.94636e-05
6.94398e-05
6.94647e-05
6.94405e-05
1.96908e-05
6.06288e-05
6.06334e-05
6.04721e-05
6.04789e-05
6.93952e-05
6.94199e-05
6.93953e-05
6.94206e-05
6.93744e-05
6.9348e-05
6.93762e-05
6.93499e-05
6.07052e-05
6.07143e-05
2.02822e-05
6.08523e-05
6.08624e-05
6.92983e-05
6.93265e-05
6.93001e-05
6.93284e-05
2.04609e-05
6.10623e-05
6.10727e-05
6.09205e-05
6.09292e-05
5.6647e-05
7.01578e-05
5.63327e-05
7.01646e-05
3.4039e-05
4.84367e-05
1.45571e-05
1.68413e-05
3.35743e-05
4.87268e-05
1.4557e-05
3.40487e-05
4.84437e-05
1.45574e-05
1.6842e-05
3.35818e-05
4.87352e-05
1.45576e-05
5.67062e-05
7.0165e-05
7.01637e-05
5.69877e-05
5.67142e-05
7.01658e-05
7.01635e-05
5.69929e-05
3.42689e-05
1.69222e-05
4.91499e-05
1.45643e-05
4.88765e-05
1.45587e-05
3.46992e-05
3.42795e-05
1.69229e-05
4.91594e-05
1.45649e-05
4.88862e-05
1.45595e-05
3.4712e-05
6.07153e-05
6.0714e-05
2.03036e-05
6.08621e-05
6.08571e-05
6.93773e-05
6.93516e-05
6.93042e-05
6.93316e-05
2.0439e-05
6.10732e-05
6.10659e-05
6.09309e-05
6.09316e-05
6.93031e-05
6.93305e-05
3.40518e-05
4.84408e-05
1.45568e-05
1.68404e-05
3.35861e-05
4.87347e-05
1.4557e-05
5.66567e-05
7.0157e-05
5.63393e-05
7.01635e-05
3.40589e-05
1.4557e-05
4.84457e-05
1.68421e-05
3.35929e-05
1.45575e-05
4.87339e-05
5.67185e-05
7.01662e-05
7.01649e-05
5.70067e-05
3.42843e-05
1.69214e-05
4.91547e-05
1.45642e-05
4.88785e-05
1.45589e-05
3.47226e-05
5.67253e-05
7.01642e-05
7.01622e-05
5.70088e-05
3.42931e-05
1.69227e-05
1.45652e-05
4.91585e-05
1.45594e-05
4.88837e-05
3.47341e-05
5.6659e-05
7.01598e-05
5.63468e-05
7.01668e-05
3.40672e-05
1.45574e-05
4.84409e-05
1.68419e-05
3.35949e-05
1.45578e-05
4.87315e-05
5.66636e-05
7.01569e-05
5.63463e-05
7.01635e-05
3.42952e-05
1.69232e-05
4.91588e-05
1.45647e-05
4.88875e-05
1.45591e-05
3.47321e-05
5.67337e-05
7.01681e-05
7.01655e-05
5.70144e-05
3.42999e-05
1.69217e-05
1.45654e-05
4.91543e-05
1.45598e-05
4.88815e-05
3.47435e-05
5.67336e-05
7.01641e-05
7.01622e-05
5.70195e-05
6.07125e-05
6.07057e-05
2.02985e-05
6.08593e-05
6.08516e-05
6.93743e-05
6.93477e-05
6.93015e-05
6.93295e-05
2.04442e-05
6.10698e-05
6.10618e-05
6.09284e-05
6.09209e-05
6.9298e-05
6.93263e-05
3.40558e-05
1.4558e-05
4.84382e-05
1.68421e-05
3.35878e-05
1.45582e-05
4.87282e-05
5.66509e-05
7.01592e-05
5.63413e-05
7.01652e-05
5.66496e-05
7.01562e-05
5.63408e-05
7.01622e-05
3.4283e-05
1.69232e-05
1.45646e-05
4.91513e-05
1.45594e-05
4.88754e-05
3.47222e-05
3.4286e-05
1.69214e-05
1.45655e-05
4.91494e-05
1.45599e-05
4.88748e-05
3.47214e-05
5.67241e-05
7.01651e-05
7.01638e-05
5.70007e-05
5.67239e-05
7.01617e-05
7.01607e-05
5.70006e-05
6.93746e-05
6.93483e-05
6.93747e-05
6.93478e-05
2.04546e-05
6.10548e-05
6.10596e-05
6.092e-05
6.09251e-05
6.92986e-05
6.93268e-05
6.92977e-05
6.93263e-05
6.92758e-05
6.92457e-05
6.92775e-05
6.92471e-05
6.11205e-05
6.11293e-05
2.10541e-05
6.12515e-05
6.12597e-05
6.91907e-05
6.92224e-05
6.91913e-05
6.92236e-05
2.12498e-05
6.14363e-05
6.14429e-05
6.13081e-05
6.1316e-05
5.73156e-05
7.01627e-05
5.70567e-05
7.01592e-05
3.53373e-05
4.92848e-05
1.4571e-05
1.72176e-05
3.4927e-05
4.95411e-05
1.45862e-05
3.53499e-05
4.9298e-05
1.45722e-05
1.72188e-05
3.49402e-05
4.95481e-05
1.4587e-05
5.73548e-05
7.01446e-05
7.01516e-05
5.75867e-05
5.73654e-05
7.01473e-05
7.01538e-05
5.75934e-05
3.55333e-05
1.73115e-05
4.99056e-05
1.46201e-05
4.96658e-05
1.45971e-05
3.59134e-05
3.55496e-05
1.73124e-05
4.99178e-05
1.46214e-05
4.96806e-05
1.45985e-05
3.593e-05
6.11317e-05
6.11319e-05
2.10459e-05
6.12628e-05
6.12578e-05
6.92809e-05
6.92515e-05
6.91989e-05
6.923e-05
2.12352e-05
6.14468e-05
6.14378e-05
6.13195e-05
6.13192e-05
6.91968e-05
6.92283e-05
3.53611e-05
4.92884e-05
1.45717e-05
1.72164e-05
3.49458e-05
4.95445e-05
1.45864e-05
5.73383e-05
7.0161e-05
5.7075e-05
7.01575e-05
3.53728e-05
1.45724e-05
4.92957e-05
1.72185e-05
3.49564e-05
1.4588e-05
4.95449e-05
5.73822e-05
7.01451e-05
7.01525e-05
5.76187e-05
3.55606e-05
1.73103e-05
4.99045e-05
1.46211e-05
4.9667e-05
1.45981e-05
3.59436e-05
5.73908e-05
7.01456e-05
7.01521e-05
5.76244e-05
3.55757e-05
1.73117e-05
1.46231e-05
4.99158e-05
1.45992e-05
4.96793e-05
3.59602e-05
5.73479e-05
7.01652e-05
5.70859e-05
7.01621e-05
3.53864e-05
1.45728e-05
4.92931e-05
1.72181e-05
3.49661e-05
1.45882e-05
4.95435e-05
5.73533e-05
7.0161e-05
5.70865e-05
7.01572e-05
3.55806e-05
1.73127e-05
4.99211e-05
1.4621e-05
4.96819e-05
1.45992e-05
3.59665e-05
5.7406e-05
7.01501e-05
7.01566e-05
5.76405e-05
3.55889e-05
1.73105e-05
1.46232e-05
4.99101e-05
1.45997e-05
4.96755e-05
3.59778e-05
5.74081e-05
7.01446e-05
7.01517e-05
5.76477e-05
6.11291e-05
6.11218e-05
2.10732e-05
6.12588e-05
6.12507e-05
6.92757e-05
6.92454e-05
6.91948e-05
6.92264e-05
2.12178e-05
6.14434e-05
6.14334e-05
6.13173e-05
6.13095e-05
6.919e-05
6.92221e-05
3.53612e-05
1.45723e-05
4.92837e-05
1.72175e-05
3.49494e-05
1.45877e-05
4.95376e-05
5.73292e-05
7.01618e-05
5.70701e-05
7.01573e-05
5.7331e-05
7.01583e-05
5.7071e-05
7.01537e-05
3.5557e-05
1.73121e-05
1.46195e-05
4.99027e-05
1.45982e-05
4.96672e-05
3.59393e-05
3.55645e-05
1.73092e-05
1.4622e-05
4.99021e-05
1.45987e-05
4.96637e-05
3.59515e-05
5.73849e-05
7.01447e-05
7.01518e-05
5.7617e-05
5.7387e-05
7.01409e-05
7.01481e-05
5.76217e-05
6.92763e-05
6.92459e-05
6.92752e-05
6.92446e-05
2.12166e-05
6.14234e-05
6.14318e-05
6.13069e-05
6.1313e-05
6.919e-05
6.92225e-05
6.91894e-05
6.92214e-05
6.91666e-05
6.91328e-05
6.91668e-05
6.91325e-05
6.14816e-05
6.14881e-05
2.18374e-05
6.15969e-05
6.16025e-05
6.90723e-05
6.91079e-05
6.90712e-05
6.91072e-05
2.2032e-05
6.17485e-05
6.17533e-05
6.164e-05
6.16454e-05
5.78611e-05
7.01406e-05