/*--------------------------------*- C++ -*----------------------------------*\
| =========                 |                                                 |
| \\      /  F ield         | OpenFOAM: The Open Source CFD Toolbox           |
|  \\    /   O peration     | Version:  2312                                  |
|   \\  /    A nd           | Website:  www.openfoam.com                      |
|    \\/     M anipulation  |                                                 |
\*---------------------------------------------------------------------------*/
FoamFile
{
    version     2.0;
    format      ascii;
    arch        "LSB;label=32;scalar=64";
    class       surfaceScalarField;
    location    "150";
    object      phi;
}
// * * * * * * * * * * * * * * * * * * * * * * * * * * * * * * * * * * * * * //

dimensions      [0 3 -1 0 0 0 0];

oriented        oriented;

internalField   nonuniform List<scalar> 
123680
(
-8.22703e-07
-8.23708e-07
4.35415e-07
4.35881e-07
0.00115007
-0.0011493
-1.50478e-06
8.23187e-07
4.02481e-07
0.00113926
-5.01124e-07
1.12953e-06
1.46808e-07
7.46954e-07
-5.4797e-07
8.3928e-08
-1.23257e-06
-0.00113881
-1.502e-06
8.23224e-07
4.07951e-07
0.00113913
-4.98288e-07
1.12689e-06
1.4386e-07
7.47001e-07
-5.48112e-07
8.41939e-08
-1.23262e-06
-0.00113868
1.53371e-06
1.49679e-06
-4.78632e-07
-4.81579e-07
0.000274438
-0.000276509
-8.07042e-07
-8.08035e-07
-0.00115237
4.29644e-07
4.30146e-07
0.00115312
-0.00114053
-1.49767e-06
8.0738e-07
3.95083e-07
0.00114094
-4.91093e-07
1.13507e-06
1.52587e-07
7.53142e-07
-5.35749e-07
-1.21941e-06
9.04974e-08
-0.00114041
-1.49476e-06
8.07612e-07
4.00409e-07
0.00114081
-4.88243e-07
1.13239e-06
1.49603e-07
7.53177e-07
-5.3586e-07
-1.21957e-06
9.05843e-08
-0.000276533
1.52653e-06
1.48956e-06
-4.67777e-07
-4.70606e-07
0.000274455
-7.92876e-07
-7.93588e-07
-0.00115536
4.24609e-07
4.25059e-07
0.0011561
-0.00114209
-1.49007e-06
7.92672e-07
3.88214e-07
0.00114246
-4.81838e-07
1.14008e-06
1.57883e-07
7.58566e-07
-5.24582e-07
-1.20701e-06
9.60981e-08
-0.00114196
-1.48716e-06
7.93302e-07
3.93596e-07
0.00114233
-4.78934e-07
1.13742e-06
1.54983e-07
7.58386e-07
-5.24851e-07
-1.20733e-06
9.59994e-08
-0.000276508
1.51896e-06
1.48184e-06
-4.5711e-07
-4.60212e-07
0.000274425
-7.78539e-07
-7.78808e-07
-0.00115828
4.19246e-07
4.19815e-07
0.001159
-0.00114349
-1.48212e-06
7.7789e-07
3.81231e-07
0.00114383
-4.72822e-07
1.14476e-06
1.62783e-07
7.63407e-07
-5.14438e-07
-1.19503e-06
1.00848e-07
-0.00114337
-1.47901e-06
7.78817e-07
3.86455e-07
0.00114369
-4.69657e-07
1.14209e-06
1.60012e-07
7.63098e-07
-5.1486e-07
-1.19555e-06
1.00524e-07
-0.000276445
1.51095e-06
1.47371e-06
-4.46971e-07
-4.50144e-07
0.000274358
-7.60758e-07
-7.60198e-07
-0.00116112
4.11764e-07
4.12793e-07
0.00116182
-0.00114475
-1.47303e-06
7.59696e-07
3.72859e-07
0.00114505
-4.63469e-07
1.14981e-06
1.68035e-07
7.68415e-07
-5.04291e-07
-1.18305e-06
1.05843e-07
-0.00114463
-1.4698e-06
7.60467e-07
3.77694e-07
0.00114492
-4.60143e-07
1.14721e-06
1.65342e-07
7.68266e-07
-5.04751e-07
-1.18346e-06
1.05629e-07
-0.000276354
1.50204e-06
1.46476e-06
-4.36637e-07
-4.40017e-07
0.000274264
-7.33131e-07
-7.31753e-07
-0.00116386
3.98896e-07
4.00484e-07
0.00116453
-0.00114588
-1.46159e-06
7.31987e-07
3.59911e-07
0.00114614
-4.52523e-07
1.15644e-06
1.74697e-07
7.75316e-07
-4.92319e-07
-1.16866e-06
1.13156e-07
-0.00114575
-1.4584e-06
7.3166e-07
3.64459e-07
0.00114601
-4.49237e-07
1.15372e-06
1.71883e-07
7.75611e-07
-4.92247e-07
-1.16872e-06
1.13307e-07
-0.000276246
1.49057e-06
1.45352e-06
-4.24807e-07
-4.28104e-07
0.000274154
-6.88228e-07
-6.86669e-07
-0.00116646
3.77108e-07
3.79105e-07
0.00116708
-0.00114685
-1.44671e-06
6.88474e-07
3.3906e-07
0.00114707
-4.38487e-07
1.16591e-06
1.84072e-07
7.85952e-07
-4.76131e-07
-1.15027e-06
1.24951e-07
-0.00114672
-1.44347e-06
6.86338e-07
3.43619e-07
0.00114694
-4.35138e-07
1.16275e-06
1.81053e-07
7.87224e-07
-4.75114e-07
-1.14935e-06
1.25832e-07
-0.000276124
1.47573e-06
1.43898e-06
-4.10314e-07
-4.1307e-07
0.000274033
-6.22027e-07
-6.21627e-07
-0.00116884
3.44518e-07
3.4543e-07
0.0011694
-0.00114765
-1.42707e-06
6.25224e-07
3.07383e-07
0.00114783
-4.20879e-07
1.1794e-06
1.97111e-07
8.01562e-07
-4.5443e-07
-1.12667e-06
1.42172e-07
-0.00114752
-1.42403e-06
6.21825e-07
3.14342e-07
0.00114768
-4.17463e-07
1.17565e-06
1.93727e-07
8.03655e-07
-4.52639e-07
-1.12469e-06
1.43511e-07
-0.000275994
1.4569e-06
1.42023e-06
-3.91924e-07
-3.94708e-07
0.000273903
-5.36106e-07
-5.4035e-07
-0.00117094
3.0385e-07
3.00059e-07
0.00117141
-0.00114826
-1.40419e-06
5.44613e-07
2.65561e-07
0.00114838
-4.00097e-07
1.19532e-06
2.12769e-07
8.23439e-07
-4.28104e-07
-1.0968e-06
1.63895e-07
-0.0011481
-1.40185e-06
5.41535e-07
2.79042e-07
0.00114821
-3.97574e-07
1.19083e-06
2.08148e-07
8.25395e-07
-4.263e-07
-1.09496e-06
1.65115e-07
-0.000275856
1.43444e-06
1.39725e-06
-3.69385e-07
-3.72811e-07
0.000273766
-4.41734e-07
-4.5322e-07
-0.0011727
2.55332e-07
2.50349e-07
0.00117309
-0.00114865
-1.38049e-06
4.5206e-07
2.23607e-07
0.00114873
-3.79276e-07
1.21198e-06
2.2807e-07
8.47939e-07
-3.99977e-07
-1.06469e-06
1.87087e-07
-0.00114846
-1.37912e-06
4.52284e-07
2.38833e-07
0.00114852
-3.77729e-07
1.20656e-06
2.22659e-07
8.49731e-07
-3.98048e-07
-1.06301e-06
1.88306e-07
-0.000275704
1.41103e-06
1.37211e-06
-3.44569e-07
-3.4955e-07
0.000273615
-3.56004e-07
-3.67612e-07
-0.0011741
2.11094e-07
2.07377e-07
0.00117441
-0.00114886
-1.35853e-06
3.57182e-07
1.84275e-07
0.00114889
-3.59048e-07
1.22764e-06
2.43256e-07
8.71436e-07
-3.71973e-07
-1.03459e-06
2.10303e-07
-0.00114863
-1.35673e-06
3.6106e-07
1.9698e-07
0.00114865
-3.5754e-07
1.2226e-06
2.38409e-07
8.71579e-07
-3.70731e-07
-1.03393e-06
2.11055e-07
-0.000275537
1.38735e-06
1.34853e-06
-3.22049e-07
-3.26062e-07
0.000273449
-2.83484e-07
-2.80738e-07
-0.00117518
1.62736e-07
1.70812e-07
0.00117542
-0.00114889
-1.33713e-06
2.76055e-07
1.50534e-07
0.00114888
-3.41801e-07
1.24333e-06
2.56302e-07
8.91395e-07
-3.47659e-07
-1.0079e-06
2.30426e-07
-0.00114866
-1.33524e-06
2.76176e-07
1.50684e-07
0.00114866
-3.39059e-07
1.23901e-06
2.53556e-07
8.89289e-07
-3.48183e-07
-1.01007e-06
2.29229e-07
-0.000275371
1.36446e-06
1.32963e-06
-3.05803e-07
-3.04637e-07
0.000273287
-2.18605e-07
-2.06035e-07
-0.00117599
1.17559e-07
1.37751e-07
0.00117616
-0.00114877
-1.31973e-06
2.12265e-07
1.15506e-07
0.00114872
-3.27123e-07
1.25571e-06
2.67229e-07
9.06685e-07
-3.27915e-07
-9.87004e-07
2.45964e-07
-0.00114861
-1.31516e-06
2.09169e-07
1.08052e-07
0.00114858
-3.2215e-07
1.25496e-06
2.67278e-07
9.03635e-07
-3.31085e-07
-9.90635e-07
2.43364e-07
-0.000275217
1.34713e-06
1.31388e-06
-2.91013e-07
-2.89551e-07
0.000273136
-1.59381e-07
-1.50709e-07
-0.00117657
8.5805e-08
1.0228e-07
0.00117669
-0.00114858
-1.30712e-06
1.55417e-07
8.26014e-08
0.00114854
-3.16236e-07
1.26503e-06
2.75888e-07
9.16129e-07
-3.15448e-07
-9.73304e-07
2.55843e-07
-0.00114847
-1.30181e-06
1.53199e-07
7.92826e-08
0.00114843
-3.11811e-07
1.26508e-06
2.75049e-07
9.161e-07
-3.15619e-07
-9.73566e-07
2.56266e-07
-0.000275084
1.33536e-06
1.29924e-06
-2.79148e-07
-2.81581e-07
0.00027301
-1.07022e-07
-1.0441e-07
-0.00117697
5.98621e-08
7.02551e-08
0.00117706
-0.00114842
-1.29619e-06
1.01386e-07
5.19215e-08
0.00114839
-3.08022e-07
1.27371e-06
2.82726e-07
9.24715e-07
-3.04643e-07
-9.61803e-07
2.65081e-07
-0.00114831
-1.29266e-06
1.04116e-07
5.58557e-08
0.00114827
-3.05161e-07
1.2722e-06
2.79528e-07
9.25261e-07
-3.04632e-07
-9.6151e-07
2.65124e-07
-0.000274995
1.32564e-06
1.28774e-06
-2.70431e-07
-2.74159e-07
0.000272926
-6.43402e-08
-6.4096e-08
-0.00117723
3.798e-08
4.22561e-08
0.00117727
-0.00114829
-1.28789e-06
5.92724e-08
2.97462e-08
0.00114826
-3.01022e-07
1.28022e-06
2.88182e-07
9.32152e-07
-2.95851e-07
-9.52352e-07
2.72163e-07
-0.00114816
-1.28507e-06
6.21916e-08
3.80882e-08
0.00114812
-2.98183e-07
1.2779e-06
2.85397e-07
9.31744e-07
-2.96418e-07
-9.52802e-07
2.7216e-07
-0.000274925
1.31795e-06
1.27892e-06
-2.63096e-07
-2.67868e-07
0.000272859
-3.21662e-08
-3.69118e-08
-0.00117736
2.03995e-08
2.12693e-08
0.00117739
-0.00114818
-1.28248e-06
3.06497e-08
1.2441e-08
0.00114816
-2.97234e-07
1.2843e-06
2.91015e-07
9.37681e-07
-2.90442e-07
-9.45078e-07
2.76715e-07
-0.00114803
-1.28054e-06
3.38535e-08
2.21053e-08
0.00114801
-2.9464e-07
1.28104e-06
2.88098e-07
9.37304e-07
-2.91405e-07
-9.45632e-07
2.75946e-07
-0.000274884
1.31283e-06
1.27433e-06
-2.61624e-07
-2.64865e-07
0.000272823
-1.35653e-08
-1.6074e-08
-0.00117743
1.22963e-08
7.9783e-09
0.00117744
-0.00114808
-1.2803e-06
1.74365e-08
1.1924e-08
0.00114806
-2.96144e-07
1.28525e-06
2.91204e-07
9.40847e-07
-2.87231e-07
-9.41122e-07
2.78794e-07
-0.00114794
-1.27776e-06
1.88199e-08
1.66706e-08
0.00114792
-2.93029e-07
1.2827e-06
2.88831e-07
9.39574e-07
-2.88053e-07
-9.42553e-07
2.7803e-07
-0.000274863
1.31143e-06
1.27279e-06
-2.59733e-07
-2.6336e-07
0.000272802
-3.88438e-09
-3.99364e-09
-0.00117746
4.06822e-09
1.23075e-09
0.00117746
-0.00114799
-1.27965e-06
7.95674e-09
7.03391e-09
0.00114798
-2.94973e-07
1.28507e-06
2.91709e-07
9.40535e-07
-2.86132e-07
-9.40804e-07
2.79476e-07
-0.00114785
-1.27666e-06
1.08751e-08
1.57528e-08
0.00114783
-2.91456e-07
1.28265e-06
2.89606e-07
9.40638e-07
-2.86855e-07
-9.40731e-07
2.78627e-07
-0.000274831
1.31006e-06
1.27279e-06
-2.58775e-07
-2.62198e-07
0.000272769
8.39015e-10
3.35678e-09
-0.00117747
-1.20168e-09
-1.16457e-09
0.00117747
-0.00114795
-1.27928e-06
2.22346e-09
3.4329e-09
0.00114794
-2.94724e-07
1.28536e-06
2.91911e-07
9.41071e-07
-2.85544e-07
-9.40099e-07
2.80034e-07
-0.00114777
-1.27629e-06
2.99018e-09
1.17933e-08
0.00114776
-2.91197e-07
1.28227e-06
2.89322e-07
9.40891e-07
-2.85622e-07
-9.4024e-07
2.79715e-07
-0.000274805
1.30801e-06
1.27225e-06
-2.59394e-07
-2.61601e-07
0.000272746
1.17195e-09
4.89176e-09
-0.00117746
-2.02743e-09
2.50181e-10
0.00117746
-0.00114791
-1.27909e-06
-2.49116e-09
2.29761e-09
0.00114791
-2.94205e-07
1.28623e-06
2.92131e-07
9.41496e-07
-2.84702e-07
-9.39403e-07
2.80651e-07
-0.00114773
-1.27607e-06
-4.17764e-09
1.12103e-08
0.00114772
-2.91367e-07
1.28216e-06
2.89046e-07
9.41728e-07
-2.84558e-07
-9.39231e-07
2.81031e-07
-0.000274793
1.30607e-06
1.27104e-06
-2.58486e-07
-2.60457e-07
0.000272735
1.05968e-09
2.17593e-09
-0.00117744
1.95436e-10
2.51926e-09
0.00117744
-0.00114788
-1.27776e-06
-4.72244e-09
1.59795e-09
0.00114787
-2.92931e-07
1.28699e-06
2.9353e-07
9.41256e-07
-2.84914e-07
-9.39258e-07
2.80349e-07
-0.00114769
-1.27612e-06
-8.52996e-09
1.13986e-08
0.00114769
-2.91485e-07
1.28191e-06
2.88853e-07
9.42066e-07
-2.83429e-07
-9.38745e-07
2.81736e-07
-0.000274787
1.30591e-06
1.26978e-06
-2.58017e-07
-2.60026e-07
0.000272729
1.6797e-09
-1.28865e-10
-0.00117742
2.95582e-09
1.95795e-09
0.00117742
-0.00114784
-1.27698e-06
-4.62595e-09
1.59498e-09
0.00114783
-2.91769e-07
1.28738e-06
2.94621e-07
9.41336e-07
-2.85707e-07
-9.38926e-07
2.78986e-07
-0.00114766
-1.27539e-06
-8.09722e-09
1.1974e-08
0.00114765
-2.90615e-07
1.28232e-06
2.89647e-07
9.42282e-07
-2.83704e-07
-9.38253e-07
2.8166e-07
-0.000274784
1.30662e-06
1.26937e-06
-2.57985e-07
-2.60382e-07
0.000272726
3.90811e-09
4.14449e-10
-0.0011774
1.61831e-09
-9.4317e-10
0.0011774
-0.0011478
-1.27739e-06
-5.80659e-09
-5.22468e-10
0.0011478
-2.92659e-07
1.28675e-06
2.93571e-07
9.41238e-07
-2.84147e-07
-9.38826e-07
2.80229e-07
-0.0011476
-1.27423e-06
-3.40039e-09
1.20604e-08
0.00114759
-2.89656e-07
1.28334e-06
2.90433e-07
9.41938e-07
-2.84772e-07
-9.38047e-07
2.7989e-07
-0.000274779
1.30735e-06
1.26986e-06
-2.57992e-07
-2.61392e-07
0.000272721
3.12782e-09
1.09312e-09
-0.00117738
6.45328e-11
-2.18677e-09
0.00117738
-0.00114778
-1.27775e-06
-4.53902e-09
9.44548e-11
0.00114777
-2.92955e-07
1.28626e-06
2.93049e-07
9.40704e-07
-2.84069e-07
-9.38964e-07
2.80008e-07
-0.00114754
-1.27448e-06
-1.23598e-09
1.09509e-08
0.00114752
-2.90353e-07
1.28285e-06
2.89614e-07
9.40867e-07
-2.84387e-07
-9.38734e-07
2.79765e-07
-0.000274772
1.30735e-06
1.27057e-06
-2.58623e-07
-2.61309e-07
0.000272714
1.54492e-06
1.50507e-06
-4.78718e-07
-4.84301e-07
0.000274497
-0.000276584
-1.17391e-06
-1.1338e-06
0.000276608
-0.000274514
1.04299e-07
1.09734e-07
4.09426e-07
0.00113871
-5.06686e-07
1.16979e-06
1.52557e-07
7.52522e-07
-5.48361e-07
8.38936e-08
-1.23834e-06
-0.00113826
-1.54225e-06
8.22974e-07
4.09354e-07
0.00113878
-5.06755e-07
1.16714e-06
1.52466e-07
7.52455e-07
-5.45393e-07
8.07865e-08
-1.23806e-06
-0.00113834
0.00113999
8.10379e-07
-0.00113957
4.03428e-07
-1.53962e-06
1.56923e-07
-4.99106e-07
-1.22828e-06
8.89101e-08
-5.389e-07
7.5721e-07
1.17135e-06
0.00114006
8.10604e-07
-0.00113964
4.03387e-07
-1.53698e-06
1.56852e-07
-4.99156e-07
-1.22799e-06
8.58367e-08
-5.3606e-07
7.57146e-07
-4.79029e-07
-4.81183e-07
0.000274478
-0.000276564
-1.13371e-06
0.000276589
-0.000274495
1.04434e-07
1.07023e-07
4.08146e-07
0.00113971
-5.01256e-07
1.12969e-06
1.46763e-07
7.52377e-07
-5.48296e-07
8.41474e-08
-1.23825e-06
-0.00113926
-1.53673e-06
8.22487e-07
4.09324e-07
0.00113866
-5.06735e-07
1.16181e-06
1.52596e-07
7.52487e-07
-5.4543e-07
8.08877e-08
-1.23801e-06
-0.00113822
0.00114099
8.11413e-07
-0.00114057
4.02181e-07
-1.49975e-06
1.51156e-07
-4.93707e-07
-1.22817e-06
8.91425e-08
-5.38902e-07
7.57211e-07
1.16592e-06
0.00113994
8.10207e-07
-0.00113953
4.0333e-07
-1.53145e-06
1.5696e-07
-4.99189e-07
-1.228e-06
8.59213e-08
-5.36019e-07
7.57199e-07
8.22392e-07
4.08913e-07
0.00113828
-5.03651e-07
1.15899e-06
1.49875e-07
7.44287e-07
-5.42411e-07
7.76272e-08
-1.22951e-06
-0.00113784
8.11026e-07
-0.00114012
4.07858e-07
-1.49949e-06
1.51175e-07
-4.93565e-07
-1.22253e-06
8.89808e-08
7.51776e-07
-5.38761e-07
1.16308e-06
0.00113956
8.09924e-07
-0.00113915
4.03086e-07
-1.52841e-06
1.5423e-07
-4.9612e-07
-1.21948e-06
8.27744e-08
-5.33096e-07
7.49014e-07
-4.79077e-07
-4.83827e-07
0.000274463
-0.000276539
-1.13103e-06
0.000276564
-0.000274481
1.04561e-07
1.09729e-07
8.23192e-07
4.0795e-07
0.00113927
-5.01266e-07
1.12142e-06
1.46725e-07
7.49617e-07
-5.48097e-07
8.42944e-08
-1.23491e-06
-0.00113882
8.11181e-07
-0.00113999
4.02004e-07
-1.49668e-06
1.48158e-07
-4.90643e-07
-1.22266e-06
8.90717e-08
7.51783e-07
-5.38733e-07
1.12555e-06
0.00114055
8.10944e-07
-0.00114013
4.01988e-07
-1.49145e-06
1.51093e-07
-4.9362e-07
-1.22509e-06
8.93755e-08
-5.38645e-07
7.54284e-07
-0.000274456
1.04353e-07
1.07227e-07
1.53774e-06
1.49787e-06
-4.67812e-07
-4.73352e-07
0.000274514
-1.17913e-06
-1.139e-06
0.000276583
-0.000274494
1.12008e-07
1.17559e-07
4.01663e-07
0.00114039
-4.96677e-07
1.17532e-06
1.58295e-07
7.58538e-07
-5.35916e-07
-1.22502e-06
9.03727e-08
-1.53513e-06
8.07331e-07
4.01643e-07
0.00114046
-4.96745e-07
1.17275e-06
1.58253e-07
7.58533e-07
-5.33146e-07
-1.22492e-06
8.72875e-08
0.00114154
7.95829e-07
-0.00114117
3.9653e-07
-1.53213e-06
1.62217e-07
-4.89685e-07
-1.21573e-06
9.4512e-08
-5.27595e-07
7.62823e-07
1.17659e-06
0.00114162
7.95983e-07
-0.00114124
3.96044e-07
-1.52943e-06
1.62349e-07
-4.89697e-07
-1.21544e-06
9.15091e-08
-5.24751e-07
7.62695e-07
-4.68191e-07
-4.70269e-07
0.000274494
-1.13883e-06
0.000276564
-0.000274475
1.12162e-07
1.14816e-07
4.00426e-07
0.00114139
-4.91204e-07
1.13521e-06
1.52554e-07
7.58583e-07
-5.35999e-07
-1.22506e-06
9.06233e-08
-1.52959e-06
8.06941e-07
4.016e-07
0.00114035
-4.96738e-07
1.16726e-06
1.58317e-07
7.58606e-07
-5.33076e-07
-1.2248e-06
8.74074e-08
0.00114255
7.96689e-07
-0.00114217
3.95143e-07
-1.49224e-06
1.56554e-07
-4.84243e-07
-1.21557e-06
9.48657e-08
-5.27541e-07
7.62794e-07
1.171e-06
0.0011415
7.95591e-07
-0.00114112
3.96087e-07
-1.52402e-06
1.62231e-07
-4.89779e-07
-1.21529e-06
9.17823e-08
-5.24648e-07
7.62781e-07
8.0643e-07
4.01329e-07
0.00113997
-4.93694e-07
1.16446e-06
1.55653e-07
7.50391e-07
-5.30181e-07
8.42166e-08
-1.21626e-06
7.96106e-07
-0.00114172
4.00806e-07
-1.492e-06
1.56523e-07
-4.84093e-07
-1.20985e-06
9.47889e-08
7.57427e-07
-5.27306e-07
1.16831e-06
0.00114112
7.94844e-07
-0.00114074
3.96022e-07
-1.52098e-06
1.59556e-07
-4.86706e-07
-1.2068e-06
8.8756e-08
-5.21707e-07
7.54669e-07
-4.68126e-07
-4.72983e-07
0.000274481
-1.13616e-06
0.000276539
-0.000274461
1.12213e-07
1.17426e-07
8.07649e-07
4.0016e-07
0.00114095
-4.91088e-07
1.12692e-06
1.52542e-07
7.55674e-07
-5.35762e-07
9.07575e-08
-1.2219e-06
7.96662e-07
-0.00114159
3.95073e-07
-1.48915e-06
1.53647e-07
-4.81231e-07
-1.21016e-06
9.47802e-08
7.57266e-07
-5.27467e-07
1.13088e-06
0.0011421
7.96425e-07
-0.00114173
3.94767e-07
-1.4839e-06
1.56629e-07
-4.84161e-07
-1.21245e-06
9.49541e-08
-5.27477e-07
7.59823e-07
-0.000274436
1.12195e-07
1.15029e-07
1.53019e-06
1.49035e-06
-4.57364e-07
-4.62841e-07
0.000274482
-1.18387e-06
-1.14361e-06
0.000276519
-0.000274434
1.18603e-07
1.24309e-07
3.94996e-07
0.00114191
-4.87387e-07
1.18039e-06
1.63565e-07
7.63855e-07
-5.24951e-07
-1.21289e-06
9.57694e-08
-1.52744e-06
7.93013e-07
3.94427e-07
0.00114198
-4.87337e-07
1.17788e-06
1.63662e-07
7.63822e-07
-5.22153e-07
-1.21252e-06
9.26926e-08
0.00114294
7.81795e-07
-0.00114261
3.89766e-07
-1.52421e-06
1.67195e-07
-4.80542e-07
-1.20386e-06
9.9223e-08
-5.17502e-07
7.67454e-07
1.18144e-06
0.00114302
7.81825e-07
-0.00114268
3.89049e-07
-1.52147e-06
1.6737e-07
-4.80447e-07
-1.20343e-06
9.62655e-08
-5.14631e-07
7.67398e-07
-4.57703e-07
-4.59703e-07
0.000274463
-1.14355e-06
0.0002765
-0.000274416
1.18808e-07
1.21676e-07
3.93602e-07
0.00114291
-4.81984e-07
1.14021e-06
1.57839e-07
7.64023e-07
-5.24917e-07
-1.21262e-06
9.61232e-08
-1.52204e-06
7.92578e-07
3.94451e-07
0.00114186
-4.87426e-07
1.17223e-06
1.6355e-07
7.6388e-07
-5.21933e-07
-1.21234e-06
9.29986e-08
0.00114395
7.82228e-07
-0.00114361
3.88485e-07
-1.48444e-06
1.61427e-07
-4.7529e-07
-1.20359e-06
9.97823e-08
-5.17306e-07
7.67765e-07
1.17561e-06
0.0011429
7.81122e-07
-0.00114256
3.89343e-07
-1.51622e-06
1.67161e-07
-4.80641e-07
-1.20326e-06
9.67005e-08
-5.14276e-07
7.67629e-07
7.91718e-07
3.94357e-07
0.00114148
-4.84367e-07
1.16949e-06
1.60896e-07
7.55832e-07
-5.19106e-07
8.99272e-08
-1.20381e-06
7.81589e-07
-0.00114316
3.93929e-07
-1.48419e-06
1.61475e-07
-4.75086e-07
-1.19785e-06
9.97463e-08
7.62298e-07
-5.16891e-07
1.1729e-06
0.00114252
7.80314e-07
-0.00114218
3.88881e-07
-1.5131e-06
1.6452e-07
-4.77778e-07
-1.19474e-06
9.37534e-08
-5.11294e-07
7.59694e-07
-4.57554e-07
-4.62567e-07
0.00027445
-1.1409e-06
0.000276475
-0.000274402
1.19009e-07
1.23956e-07
7.93427e-07
3.93064e-07
0.00114247
-4.818e-07
1.13209e-06
1.57939e-07
7.60932e-07
-5.24885e-07
9.61094e-08
-1.20956e-06
7.82418e-07
-0.00114303
3.88202e-07
-1.48123e-06
1.587e-07
-4.72014e-07
-1.19835e-06
9.94082e-08
7.62015e-07
-5.17346e-07
1.13559e-06
0.00114351
7.82274e-07
-0.00114317
3.87613e-07
-1.47589e-06
1.61646e-07
-4.75112e-07
-1.20057e-06
9.96614e-08
-5.1731e-07
7.64527e-07
-0.000274377
1.19022e-07
1.21601e-07
1.52204e-06
1.48231e-06
-4.4735e-07
-4.52642e-07
0.000274414
-1.18892e-06
-1.14844e-06
0.000276427
-0.000274345
1.24926e-07
1.30928e-07
3.88259e-07
0.00114327
-4.78291e-07
1.18513e-06
1.68534e-07
7.6847e-07
-5.15054e-07
-1.2012e-06
1.00266e-07
-1.51936e-06
7.78652e-07
3.87384e-07
0.00114334
-4.78126e-07
1.18272e-06
1.68703e-07
7.68352e-07
-5.12169e-07
-1.20086e-06
9.72511e-08
0.0011442
7.65505e-07
-0.0011439
3.8196e-07
-1.51548e-06
1.72327e-07
-4.71302e-07
-1.19212e-06
1.03861e-07
-5.07564e-07
7.72124e-07
1.18629e-06
0.00114427
7.65333e-07
-0.00114397
3.81078e-07
-1.51271e-06
1.72559e-07
-4.71202e-07
-1.19149e-06
1.00857e-07
-5.0475e-07
7.72095e-07
-4.47666e-07
-4.49521e-07
0.000274396
-1.14828e-06
0.000276409
-0.000274328
1.25101e-07
1.28124e-07
3.8685e-07
0.00114428
-4.73011e-07
1.14482e-06
1.62675e-07
7.68763e-07
-5.14794e-07
-1.20076e-06
1.00808e-07
-1.51402e-06
7.77828e-07
3.87514e-07
0.00114323
-4.7837e-07
1.17679e-06
1.68428e-07
7.68667e-07
-5.11826e-07
-1.20043e-06
9.77877e-08
0.00114521
7.65017e-07
-0.00114491
3.80805e-07
-1.4759e-06
1.66436e-07
-4.66226e-07
-1.19124e-06
1.04603e-07
-5.0728e-07
7.72605e-07
1.18037e-06
0.00114416
7.64131e-07
-0.00114386
3.81199e-07
-1.50749e-06
1.72215e-07
-4.71462e-07
-1.19115e-06
1.01667e-07
-5.04135e-07
7.72515e-07
7.76968e-07
3.87277e-07
0.00114285
-4.75468e-07
1.17416e-06
1.65876e-07
7.60626e-07
-5.08828e-07
9.48662e-08
-1.19196e-06
7.64723e-07
-0.00114446
3.86203e-07
-1.47556e-06
1.6661e-07
-4.66006e-07
-1.18573e-06
1.04477e-07
7.67075e-07
-5.0697e-07
1.17768e-06
0.00114378
7.63574e-07
-0.00114347
3.80792e-07
-1.50448e-06
1.69553e-07
-4.68583e-07
-1.18281e-06
9.86881e-08
-5.01289e-07
7.64528e-07
-4.47361e-07
-4.52467e-07
0.000274382
-1.14575e-06
0.000276384
-0.000274314
1.25501e-07
1.30246e-07
7.7882e-07
3.86005e-07
0.00114384
-4.72671e-07
1.13685e-06
1.63047e-07
7.65567e-07
-5.14899e-07
1.00707e-07
-1.19781e-06
7.65644e-07
-0.00114432
3.80087e-07
-1.47242e-06
1.63833e-07
-4.62708e-07
-1.18649e-06
1.0423e-07
7.66894e-07
-5.07379e-07
1.14043e-06
0.00114477
7.6544e-07
-0.00114447
3.79894e-07
-1.46719e-06
1.66773e-07
-4.65775e-07
-1.1888e-06
1.04382e-07
-5.07386e-07
7.69341e-07
-0.00027429
1.25451e-07
1.27912e-07
1.51287e-06
1.47334e-06
-4.37141e-07
-4.42191e-07
0.00027432
-1.19496e-06
-1.15435e-06
0.000276316
-0.000274238
1.32152e-07
1.38317e-07
3.79724e-07
0.0011445
-4.68813e-07
1.19025e-06
1.73847e-07
7.73168e-07
-5.05014e-07
-1.18911e-06
1.0498e-07
-1.51017e-06
7.60741e-07
3.7913e-07
0.00114457
-4.68712e-07
1.18783e-06
1.7396e-07
7.73201e-07
-5.02129e-07
-1.18881e-06
1.02139e-07
0.00114532
7.4106e-07
-0.00114506
3.70347e-07
-1.50474e-06
1.78505e-07
-4.60873e-07
-1.17842e-06
1.10199e-07
-4.96274e-07
7.78415e-07
1.19237e-06
0.00114539
7.40743e-07
-0.00114513
3.69908e-07
-1.50206e-06
1.78593e-07
-4.60851e-07
-1.17807e-06
1.07395e-07
-4.93437e-07
7.78411e-07
-4.37415e-07
-4.39115e-07
0.000274302
-1.15445e-06
0.0002763
-0.000274221
1.32492e-07
1.35443e-07
3.78695e-07
0.00114551
-4.63755e-07
1.14975e-06
1.67848e-07
7.73758e-07
-5.04567e-07
-1.18849e-06
1.0589e-07
-1.50488e-06
7.59333e-07
3.78908e-07
0.00114445
-4.68916e-07
1.18185e-06
1.73588e-07
7.73683e-07
-5.01521e-07
-1.18808e-06
1.02952e-07
0.00114634
7.39915e-07
-0.00114607
3.69641e-07
-1.46535e-06
1.72516e-07
-4.55979e-07
-1.17766e-06
1.11259e-07
-4.95705e-07
7.79098e-07
1.18644e-06
0.00114528
7.39192e-07
-0.00114501
3.69578e-07
-1.49669e-06
1.78401e-07
-4.60853e-07
-1.17726e-06
1.08414e-07
-4.92553e-07
7.78945e-07
7.58839e-07
3.78336e-07
0.00114407
-4.66079e-07
1.1793e-06
1.71069e-07
7.65516e-07
-4.98738e-07
9.99523e-08
-1.17967e-06
7.40027e-07
-0.00114561
3.74611e-07
-1.46482e-06
1.72805e-07
-4.55557e-07
-1.17208e-06
1.10892e-07
7.73447e-07
-4.95715e-07
1.18395e-06
0.0011449
7.38943e-07
-0.00114463
3.68969e-07
-1.49381e-06
1.75916e-07
-4.5815e-07
-1.16923e-06
1.05215e-07
-4.90021e-07
7.70747e-07
-4.36854e-07
-4.42075e-07
0.000274288
-1.15166e-06
0.000276273
-0.000274206
1.32829e-07
1.37752e-07
7.60599e-07
3.77585e-07
0.00114506
-4.63354e-07
1.14203e-06
1.68159e-07
7.70656e-07
-5.0476e-07
1.05605e-07
-1.18576e-06
7.40226e-07
-0.00114548
3.68125e-07
-1.46172e-06
1.70022e-07
-4.52203e-07
-1.17246e-06
1.10992e-07
7.7349e-07
-4.95569e-07
1.14652e-06
0.00114589
7.40164e-07
-0.00114563
3.68748e-07
-1.45664e-06
1.72792e-07
-4.55591e-07
-1.17474e-06
1.10921e-07
-4.95814e-07
7.75898e-07
-0.000274183
1.32852e-07
1.35334e-07
1.50154e-06
1.46215e-06
-4.25296e-07
-4.30302e-07
0.000274208
-1.20355e-06
-1.16295e-06
0.000276193
-0.000274117
1.42121e-07
1.48032e-07
3.66543e-07
0.00114558
-4.57779e-07
1.1969e-06
1.80389e-07
7.80245e-07
-4.9292e-07
-1.1746e-06
1.12332e-07
-1.49888e-06
7.32786e-07
3.66222e-07
0.00114565
-4.57754e-07
1.19427e-06
1.80497e-07
7.80267e-07
-4.90021e-07
-1.17413e-06
1.09668e-07
0.00114629
7.01044e-07
-0.00114606
3.51718e-07
-1.49076e-06
1.8705e-07
-4.47886e-07
-1.16073e-06
1.20814e-07
-4.8102e-07
7.88504e-07
1.20053e-06
0.00114636
7.00915e-07
-0.00114614
3.52602e-07
-1.48868e-06
1.86678e-07
-4.48095e-07
-1.16004e-06
1.1841e-07
-4.78163e-07
7.88645e-07
-4.2535e-07
-4.27295e-07
0.000274192
-1.16294e-06
0.000276176
-0.0002741
1.42445e-07
1.44871e-07
3.66145e-07
0.00114659
-4.53058e-07
1.15629e-06
1.74386e-07
7.80931e-07
-4.92271e-07
-1.17391e-06
1.13469e-07
-1.49333e-06
7.31202e-07
3.65655e-07
0.00114553
-4.57772e-07
1.18848e-06
1.80361e-07
7.80712e-07
-4.89046e-07
-1.17359e-06
1.10507e-07
0.00114731
6.99533e-07
-0.00114708
3.51716e-07
-1.45141e-06
1.80963e-07
-4.42988e-07
-1.15985e-06
1.21812e-07
-4.80416e-07
7.88963e-07
1.19497e-06
0.00114624
6.99213e-07
-0.00114602
3.51022e-07
-1.48252e-06
1.8695e-07
-4.47504e-07
-1.15944e-06
1.19377e-07
-4.77143e-07
7.89188e-07
7.31323e-07
3.64975e-07
0.00114516
-4.55075e-07
1.18597e-06
1.77984e-07
7.72399e-07
-4.86834e-07
1.07237e-07
-1.16556e-06
7.01109e-07
-0.00114663
3.56119e-07
-1.45115e-06
1.81315e-07
-4.42369e-07
-1.15489e-06
1.21391e-07
7.83115e-07
-4.80724e-07
1.19267e-06
0.00114587
7.00357e-07
-0.00114564
3.49824e-07
-1.47995e-06
1.84564e-07
-4.45185e-07
-1.15186e-06
1.15511e-07
-4.75134e-07
7.80216e-07
-4.24722e-07
-4.29899e-07
0.000274176
-1.16e-06
0.000276146
-0.000274082
1.42631e-07
1.47797e-07
7.32201e-07
3.65275e-07
0.00114615
-4.52698e-07
1.14844e-06
1.7449e-07
7.77728e-07
-4.92396e-07
1.13214e-07
-1.17107e-06
6.99284e-07
-0.00114649
3.49538e-07
-1.44776e-06
1.78262e-07
-4.3915e-07
-1.15429e-06
1.22217e-07
7.84038e-07
-4.80057e-07
1.15492e-06
0.00114687
6.9974e-07
-0.00114664
3.51511e-07
-1.4431e-06
1.80608e-07
-4.43135e-07
-1.157e-06
1.21986e-07
-4.80227e-07
7.85912e-07
-0.000274064
1.42473e-07
1.45215e-07
1.48675e-06
1.44725e-06
-4.10348e-07
-4.15497e-07
0.000274085
-1.21574e-06
-1.17548e-06
0.000276061
-0.000273987
1.5589e-07
1.61384e-07
3.45579e-07
0.00114651
-4.44136e-07
1.2063e-06
1.89542e-07
7.91379e-07
-4.76333e-07
-1.1555e-06
1.244e-07
-1.48433e-06
6.8787e-07
3.46991e-07
0.00114658
-4.44372e-07
1.20338e-06
1.89166e-07
7.91688e-07
-4.73347e-07
-1.15518e-06
1.21998e-07
0.00114709
6.40556e-07
-0.00114691
3.23758e-07
-1.47285e-06
1.98444e-07
-4.31677e-07
-1.13737e-06
1.37076e-07
-4.60169e-07
8.0339e-07
1.21226e-06
0.00114716
6.40204e-07
-0.00114698
3.26543e-07
-1.47074e-06
1.97758e-07
-4.3223e-07
-1.1369e-06
1.34998e-07
-4.57311e-07
8.03743e-07
-4.1035e-07
-4.12618e-07
0.000274068
-1.17533e-06
0.000276044
-0.00027397
1.56249e-07
1.57901e-07
3.45749e-07
0.00114753
-4.39297e-07
1.16584e-06
1.83774e-07
7.91998e-07
-4.75832e-07
-1.15516e-06
1.25308e-07
-1.47824e-06
6.86303e-07
3.45066e-07
0.00114646
-4.43593e-07
1.1977e-06
1.89497e-07
7.92278e-07
-4.72277e-07
-1.1543e-06
1.22952e-07
0.00114812
6.39624e-07
-0.00114793
3.22497e-07
-1.43317e-06
1.9299e-07
-4.26545e-07
-1.13675e-06
1.37599e-07
-4.60122e-07
8.04052e-07
1.20686e-06
0.00114703
6.39378e-07
-0.00114685
3.24594e-07
-1.46432e-06
1.98577e-07
-4.30871e-07
-1.13598e-06
1.35964e-07
-4.56027e-07
8.04342e-07
6.88013e-07
3.43742e-07
0.00114609
-4.41287e-07
1.19543e-06
1.87158e-07
7.83044e-07
-4.70719e-07
1.1893e-07
-1.14696e-06
6.42999e-07
-0.00114748
3.27552e-07
-1.43268e-06
1.93294e-07
-4.25962e-07
-1.13243e-06
1.3712e-07
7.9731e-07
-4.60617e-07
1.20473e-06
0.00114668
6.41992e-07
-0.0011465
3.22013e-07
-1.46197e-06
1.96368e-07
-4.28862e-07
-1.12937e-06
1.31351e-07
-4.55209e-07
7.94643e-07
-4.09568e-07
-4.14301e-07
0.000274048
-1.17202e-06
0.000276004
-0.000273943
1.56347e-07
1.61586e-07
6.86863e-07
3.45777e-07
0.00114708
-4.39286e-07
1.15757e-06
1.8324e-07
7.89085e-07
-4.75667e-07
1.25436e-07
-1.15171e-06
6.39559e-07
-0.00114734
3.22336e-07
-1.42951e-06
1.90078e-07
-4.22411e-07
-1.13093e-06
1.38613e-07
7.99257e-07
-4.58867e-07
1.1668e-06
0.00114767
6.40525e-07
-0.00114749
3.25114e-07
-1.42537e-06
1.92023e-07
-4.27338e-07
-1.13365e-06
1.38125e-07
-4.5957e-07
8.00901e-07
-0.000273936
1.55698e-07
1.58581e-07
1.46762e-06
1.42777e-06
-3.9138e-07
-3.96934e-07
0.000273954
-1.23067e-06
-1.19166e-06
0.000275921
-0.000273851
1.73765e-07
1.78195e-07
3.14818e-07
0.00114726
-4.26802e-07
1.21941e-06
2.01958e-07
8.08171e-07
-4.54021e-07
-1.13084e-06
1.42218e-07
-1.46547e-06
6.21829e-07
3.18684e-07
0.00114733
-4.27764e-07
1.21597e-06
2.01091e-07
8.08021e-07
-4.51197e-07
-1.1305e-06
1.39984e-07
0.0011477
5.59121e-07
-0.00114757
2.87676e-07
-1.45131e-06
2.12623e-07
-4.1198e-07
-1.10784e-06
1.59119e-07
-4.33583e-07
8.24941e-07
1.22654e-06
0.00114776
5.59467e-07
-0.00114763
2.92628e-07
-1.44953e-06
2.11561e-07
-4.13226e-07
-1.10815e-06
1.56706e-07
-4.31232e-07
8.24845e-07
-3.91175e-07
-3.94234e-07
0.000273936
-1.19092e-06
0.000275901
-0.000273831
1.73619e-07
1.74221e-07
3.13259e-07
0.00114829
-4.21435e-07
1.17935e-06
1.9693e-07
8.08159e-07
-4.54057e-07
-1.1306e-06
1.42499e-07
-1.45886e-06
6.21598e-07
3.16162e-07
0.00114719
-4.2594e-07
1.21043e-06
2.02176e-07
8.08622e-07
-4.49947e-07
-1.12938e-06
1.40935e-07
0.00114872
5.61624e-07
-0.00114859
2.82645e-07
-1.41052e-06
2.08691e-07
-4.05734e-07
-1.10863e-06
1.59092e-07
-4.33789e-07
8.24025e-07
1.22145e-06
0.0011476
5.61627e-07
-0.00114748
2.90086e-07
-1.44249e-06
2.12781e-07
-4.11395e-07
-1.107e-06
1.57402e-07
-4.30049e-07
8.2479e-07
6.24485e-07
3.1302e-07
0.00114685
-4.24034e-07
1.20842e-06
1.99559e-07
7.98987e-07
-4.49176e-07
1.36226e-07
-1.12296e-06
5.66241e-07
-0.00114813
2.87849e-07
-1.41013e-06
2.08639e-07
-4.054e-07
-1.10446e-06
1.58166e-07
8.17565e-07
-4.35102e-07
1.21981e-06
0.00114729
5.63072e-07
-0.00114716
2.84843e-07
-1.44029e-06
2.1085e-07
-4.09009e-07
-1.10111e-06
1.5285e-07
-4.29353e-07
8.15122e-07
-3.90244e-07
-3.95032e-07
0.000273907
-1.1869e-06
0.000275848
-0.000273791
1.73326e-07
1.7818e-07
6.22848e-07
3.16371e-07
0.00114784
-4.22353e-07
1.17054e-06
1.95476e-07
8.0517e-07
-4.53558e-07
1.42649e-07
-1.12769e-06
5.62832e-07
-0.00114797
2.88243e-07
-1.40748e-06
2.04341e-07
-4.02938e-07
-1.10235e-06
1.59303e-07
8.19786e-07
-4.33375e-07
1.18233e-06
0.00114827
5.63874e-07
-0.00114814
2.87498e-07
-1.40333e-06
2.07263e-07
-4.06914e-07
-1.10594e-06
1.5841e-07
-4.34268e-07
8.20556e-07
-0.000273802
1.72878e-07
1.75311e-07
1.44537e-06
1.40412e-06
-3.68176e-07
-3.74841e-07
0.000273815
-1.24633e-06
-1.20883e-06
0.000275763
-0.000273698
1.93064e-07
1.9702e-07
2.78662e-07
0.00114781
-4.06934e-07
1.23476e-06
2.16465e-07
8.30848e-07
-4.26017e-07
-1.10041e-06
1.65383e-07
-1.44389e-06
5.36943e-07
2.82306e-07
0.00114788
-4.08152e-07
1.23061e-06
2.15093e-07
8.30685e-07
-4.23518e-07
-1.09997e-06
1.62652e-07
0.00114808
4.65551e-07