/*--------------------------------*- C++ -*----------------------------------*\
| =========                 |                                                 |
| \\      /  F ield         | OpenFOAM: The Open Source CFD Toolbox           |
|  \\    /   O peration     | Version:  2312                                  |
|   \\  /    A nd           | Website:  www.openfoam.com                      |
|    \\/     M anipulation  |                                                 |
\*---------------------------------------------------------------------------*/
FoamFile
{
    version     2.0;
    format      ascii;
    arch        "LSB;label=32;scalar=64";
    class       volScalarField;
    location    "875";
    object      epsilon;
}
// * * * * * * * * * * * * * * * * * * * * * * * * * * * * * * * * * * * * * //

dimensions      [0 2 -3 0 0 0 0];

internalField   nonuniform List<scalar> 
42973
(
3.26831e-07
8.74461e-07
1.15966e-06
3.4301e-07
8.97982e-07
8.98119e-07
1.17907e-06
3.59422e-07
9.2049e-07
9.20628e-07
1.19752e-06
3.75988e-07
9.41973e-07
9.4211e-07
1.21507e-06
3.92623e-07
9.62432e-07
9.62571e-07
1.23173e-06
4.09251e-07
9.81886e-07
9.82026e-07
1.24755e-06
4.25792e-07
1.00034e-06
1.00048e-06
1.26255e-06
4.42164e-07
1.01778e-06
1.01792e-06
1.27671e-06
4.58299e-07
1.03425e-06
1.03439e-06
1.29012e-06
4.74159e-07
1.0498e-06
1.04994e-06
1.30283e-06
4.89626e-07
1.06436e-06
1.0645e-06
1.31474e-06
5.04696e-07
1.07804e-06
1.07817e-06
1.32597e-06
5.19314e-07
1.09082e-06
1.09095e-06
1.33652e-06
5.33417e-07
1.10274e-06
1.10287e-06
1.34641e-06
5.46996e-07
1.11383e-06
1.11395e-06
1.35565e-06
5.60011e-07
1.1241e-06
1.12422e-06
1.36427e-06
5.72418e-07
1.13359e-06
1.13371e-06
1.37228e-06
5.84233e-07
1.14236e-06
1.14248e-06
1.37977e-06
5.95411e-07
1.15033e-06
1.15045e-06
1.38659e-06
6.05944e-07
1.15763e-06
1.15774e-06
1.39291e-06
6.15847e-07
1.16422e-06
1.16434e-06
1.39867e-06
6.25099e-07
1.17016e-06
1.17028e-06
1.40392e-06
6.33716e-07
1.17549e-06
1.17561e-06
1.40871e-06
6.41682e-07
1.18014e-06
1.18025e-06
1.41287e-06
6.49002e-07
1.18422e-06
1.18433e-06
1.41667e-06
6.55711e-07
1.18775e-06
1.18786e-06
1.41996e-06
6.61784e-07
1.19066e-06
1.19077e-06
1.42275e-06
1.15952e-06
1.17343e-06
8.74633e-07
8.74577e-07
8.92367e-07
8.92302e-07
1.15951e-06
1.17342e-06
8.74421e-07
8.92155e-07
8.9242e-07
8.74727e-07
8.92195e-07
8.92459e-07
1.17353e-06
8.74521e-07
8.92336e-07
8.92257e-07
1.17358e-06
1.17892e-06
1.19209e-06
8.98153e-07
8.98086e-07
9.15126e-07
9.15056e-07
1.17891e-06
1.19208e-06
8.9794e-07
8.98204e-07
9.14914e-07
9.15176e-07
8.98246e-07
9.1496e-07
9.15218e-07
1.17902e-06
1.19219e-06
8.9804e-07
9.15101e-07
9.15017e-07
1.19224e-06
1.19738e-06
1.20982e-06
9.20656e-07
9.20585e-07
9.36862e-07
9.36784e-07
1.19737e-06
1.20981e-06
9.20444e-07
9.20705e-07
9.3665e-07
9.36906e-07
9.20749e-07
9.36698e-07
9.36951e-07
1.19748e-06
1.20992e-06
9.20543e-07
9.36839e-07
9.36751e-07
1.20997e-06
1.21493e-06
1.22668e-06
9.42136e-07
9.42057e-07
9.57574e-07
9.57489e-07
1.21492e-06
1.22667e-06
9.41923e-07
9.42178e-07
9.57362e-07
9.57613e-07
9.42226e-07
9.57412e-07
9.57659e-07
1.21502e-06
1.22678e-06
9.42022e-07
9.57553e-07
9.57459e-07
1.22682e-06
1.2316e-06
1.24267e-06
9.62594e-07
9.62507e-07
9.77274e-07
9.77185e-07
1.23158e-06
1.24266e-06
9.62382e-07
9.62631e-07
9.77062e-07
9.77312e-07
9.62679e-07
9.77116e-07
9.7736e-07
1.23169e-06
1.24277e-06
9.62476e-07
9.77258e-07
9.77161e-07
1.24282e-06
1.24741e-06
1.25785e-06
9.82042e-07
9.81953e-07
9.95978e-07
9.9588e-07
1.2474e-06
1.25783e-06
9.81829e-07
9.82079e-07
9.95766e-07
9.96007e-07
9.82131e-07
9.9582e-07
9.96057e-07
1.24751e-06
1.25794e-06
9.81929e-07
9.9596e-07
9.9586e-07
1.25799e-06
1.26243e-06
1.27219e-06
1.0005e-06
1.0004e-06
1.01367e-06
1.01357e-06
1.2624e-06
1.27217e-06
1.00029e-06
1.00052e-06
1.01346e-06
1.0137e-06
1.00058e-06
1.01352e-06
1.01375e-06
1.2625e-06
1.27228e-06
1.00038e-06
1.01366e-06
1.01355e-06
1.27232e-06
1.27658e-06
1.28573e-06
1.01793e-06
1.01784e-06
1.03036e-06
1.03027e-06
1.27656e-06
1.28572e-06
1.01772e-06
1.01796e-06
1.03015e-06
1.0304e-06
1.01801e-06
1.03022e-06
1.03045e-06
1.27667e-06
1.28584e-06
1.01782e-06
1.03036e-06
1.03025e-06
1.28588e-06
1.28998e-06
1.29865e-06
1.0344e-06
1.0343e-06
1.04618e-06
1.04605e-06
1.28997e-06
1.2986e-06
1.03419e-06
1.03443e-06
1.04597e-06
1.04617e-06
1.03448e-06
1.04601e-06
1.04622e-06
1.29008e-06
1.2987e-06
1.03428e-06
1.04614e-06
1.04603e-06
1.29874e-06
1.30274e-06
1.31066e-06
1.04997e-06
1.04985e-06
1.06095e-06
1.06085e-06
1.30269e-06
1.31066e-06
1.04976e-06
1.04997e-06
1.06074e-06
1.06098e-06
1.05002e-06
1.06081e-06
1.06103e-06
1.30279e-06
1.31077e-06
1.04983e-06
1.06095e-06
1.06084e-06
1.31082e-06
1.31458e-06
1.32205e-06
1.06449e-06
1.0644e-06
1.07484e-06
1.07474e-06
1.31459e-06
1.32204e-06
1.06428e-06
1.06453e-06
1.07464e-06
1.07486e-06
1.06458e-06
1.07471e-06
1.07491e-06
1.3147e-06
1.32214e-06
1.06439e-06
1.07484e-06
1.07473e-06
1.32218e-06
1.32587e-06
1.33278e-06
1.07819e-06
1.07808e-06
1.08787e-06
1.08775e-06
1.32584e-06
1.33274e-06
1.07799e-06
1.0782e-06
1.08766e-06
1.08787e-06
1.07825e-06
1.08772e-06
1.08791e-06
1.32594e-06
1.33284e-06
1.07806e-06
1.08784e-06
1.08773e-06
1.33287e-06
1.33643e-06
1.34275e-06
1.09098e-06
1.09086e-06
1.09997e-06
1.09986e-06
1.3364e-06
1.34274e-06
1.09077e-06
1.09098e-06
1.09977e-06
1.09999e-06
1.09103e-06
1.09984e-06
1.10004e-06
1.33649e-06
1.34285e-06
1.09084e-06
1.09997e-06
1.09986e-06
1.34289e-06
1.34627e-06
1.35215e-06
1.10287e-06
1.10276e-06
1.11127e-06
1.11115e-06
1.34627e-06
1.35213e-06
1.10266e-06
1.10289e-06
1.11106e-06
1.11127e-06
1.10294e-06
1.11114e-06
1.11132e-06
1.34637e-06
1.35223e-06
1.10275e-06
1.11126e-06
1.11114e-06
1.35226e-06
1.35555e-06
1.36091e-06
1.11396e-06
1.11385e-06
1.12175e-06
1.12163e-06
1.35553e-06
1.36088e-06
1.11376e-06
1.11397e-06
1.12155e-06
1.12175e-06
1.11402e-06
1.12162e-06
1.1218e-06
1.35562e-06
1.36097e-06
1.11383e-06
1.12173e-06
1.12162e-06
1.36101e-06
1.36418e-06
1.36902e-06
1.12424e-06
1.12412e-06
1.13141e-06
1.1313e-06
1.36415e-06
1.369e-06
1.12404e-06
1.12424e-06
1.13121e-06
1.13142e-06
1.12429e-06
1.13129e-06
1.13147e-06
1.36424e-06
1.36909e-06
1.12411e-06
1.1314e-06
1.13129e-06
1.36913e-06
1.37217e-06
1.37662e-06
1.13371e-06
1.1336e-06
1.14036e-06
1.14025e-06
1.37216e-06
1.37661e-06
1.13351e-06
1.13372e-06
1.14016e-06
1.14037e-06
1.13377e-06
1.14025e-06
1.14042e-06
1.37225e-06
1.37671e-06
1.13359e-06
1.14036e-06
1.14024e-06
1.37674e-06
1.37966e-06
1.3836e-06
1.14248e-06
1.14237e-06
1.14854e-06
1.14842e-06
1.37965e-06
1.38356e-06
1.14229e-06
1.14249e-06
1.14835e-06
1.14854e-06
1.14254e-06
1.14841e-06
1.14858e-06
1.37975e-06
1.38365e-06
1.14236e-06
1.14853e-06
1.1484e-06
1.38368e-06
1.38651e-06
1.38998e-06
1.15047e-06
1.15034e-06
1.15598e-06
1.15587e-06
1.38648e-06
1.38997e-06
1.15027e-06
1.15046e-06
1.15579e-06
1.15599e-06
1.15051e-06
1.15587e-06
1.15604e-06
1.38657e-06
1.39006e-06
1.15033e-06
1.15598e-06
1.15586e-06
1.3901e-06
1.3928e-06
1.39588e-06
1.15774e-06
1.15763e-06
1.16277e-06
1.16265e-06
1.3928e-06
1.39585e-06
1.15755e-06
1.15775e-06
1.16257e-06
1.16276e-06
1.1578e-06
1.16265e-06
1.16281e-06
1.39288e-06
1.39594e-06
1.15762e-06
1.16276e-06
1.16263e-06
1.39597e-06
1.39859e-06
1.4012e-06
1.16435e-06
1.16423e-06
1.16886e-06
1.16874e-06
1.39856e-06
1.40118e-06
1.16416e-06
1.16435e-06
1.16866e-06
1.16886e-06
1.16439e-06
1.16874e-06
1.1689e-06
1.39865e-06
1.40127e-06
1.16422e-06
1.16885e-06
1.16873e-06
1.40131e-06
1.40381e-06
1.40609e-06
1.17028e-06
1.17017e-06
1.17433e-06
1.17422e-06
1.4038e-06
1.40607e-06
1.17009e-06
1.17029e-06
1.17414e-06
1.17434e-06
1.17033e-06
1.17422e-06
1.17438e-06
1.40389e-06
1.40616e-06
1.17016e-06
1.17433e-06
1.17421e-06
1.4062e-06
1.40861e-06
1.41041e-06
1.17561e-06
1.1755e-06
1.17916e-06
1.17905e-06
1.40859e-06
1.41038e-06
1.17542e-06
1.17561e-06
1.17897e-06
1.17916e-06
1.17566e-06
1.17905e-06
1.17919e-06
1.40868e-06
1.41047e-06
1.17549e-06
1.17915e-06
1.17902e-06
1.41048e-06
1.4128e-06
1.41422e-06
1.18026e-06
1.18015e-06
1.18336e-06
1.18324e-06
1.41278e-06
1.4142e-06
1.18007e-06
1.18026e-06
1.18317e-06
1.18336e-06
1.18029e-06
1.18325e-06
1.18341e-06
1.41286e-06
1.41428e-06
1.18012e-06
1.18335e-06
1.18324e-06
1.41433e-06
1.41656e-06
1.41766e-06
1.18434e-06
1.18422e-06
1.18704e-06
1.18693e-06
1.41654e-06
1.41763e-06
1.18415e-06
1.18434e-06
1.18686e-06
1.18705e-06
1.18439e-06
1.18693e-06
1.18708e-06
1.41663e-06
1.41773e-06
1.18422e-06
1.18704e-06
1.18692e-06
1.41775e-06
1.41988e-06
1.4205e-06
1.18786e-06
1.18775e-06
1.19008e-06
1.18998e-06
1.41986e-06
1.42051e-06
1.18768e-06
1.18787e-06
1.18989e-06
1.19008e-06
1.1879e-06
1.18998e-06
1.19012e-06
1.41995e-06
1.42057e-06
1.18773e-06
1.19007e-06
1.18995e-06
1.4206e-06
1.42266e-06
1.19078e-06
1.19067e-06
1.42266e-06
1.19059e-06
1.19077e-06
1.19082e-06
1.42272e-06
1.19065e-06
4.09738e-06
9.16512e-06
4.09423e-06
9.17168e-06
1.84333e-05
1.84436e-05
4.09746e-06
9.1664e-06
4.09429e-06
9.17295e-06
3.26843e-07
3.26938e-07
3.3894e-07
3.38953e-07
3.39045e-07
3.3905e-07
2.11723e-06
3.47871e-06
5.68221e-07
8.80435e-07
2.1115e-06
3.48209e-06
5.7416e-07
1.84448e-05
2.11729e-06
5.68359e-07
8.80574e-07
2.11156e-06
5.74247e-07
3.4822e-06
5.46412e-06
5.46582e-06
1.16389e-06
5.46715e-06
5.46887e-06
4.10508e-06
9.18123e-06
4.10195e-06
9.18842e-06
1.8456e-05
1.84664e-05
4.10515e-06
9.18255e-06
4.10202e-06
9.18977e-06
3.43021e-07
3.43116e-07
3.43121e-07
3.55302e-07
3.55314e-07
3.55412e-07
3.55416e-07
2.13111e-06
3.48979e-06
5.91721e-07
9.03705e-07
2.12568e-06
3.49304e-06
5.97584e-07
1.8458e-05
1.84682e-05
2.13118e-06
5.91861e-07
3.48982e-06
9.03846e-07
2.12573e-06
5.97674e-07
3.49315e-06
5.47352e-06
5.47523e-06
1.18303e-06
5.47651e-06
5.47823e-06
4.1127e-06
9.19765e-06
4.10961e-06
9.20458e-06
1.84789e-05
1.84901e-05
4.11277e-06
9.19896e-06
4.10967e-06
9.20586e-06
3.59433e-07
3.59533e-07
3.59537e-07
3.71837e-07
3.71847e-07
3.7195e-07
3.71953e-07
2.14428e-06
3.50046e-06
6.14879e-07
9.25957e-07
2.13914e-06
3.50355e-06
6.20639e-07
1.848e-05
1.84911e-05
2.14434e-06
6.1502e-07
3.50048e-06
9.26098e-07
2.13919e-06
6.20731e-07
3.50366e-06
5.48273e-06
5.48444e-06
1.20122e-06
5.48566e-06
5.48738e-06
4.12018e-06
9.21491e-06
4.11714e-06
9.22218e-06
1.85038e-05
1.85147e-05
4.12025e-06
9.21621e-06
4.1172e-06
9.22352e-06
3.75997e-07
3.76102e-07
3.76105e-07
3.88462e-07
3.88471e-07
3.8858e-07
3.88581e-07
2.15676e-06
3.51067e-06
6.37592e-07
9.47183e-07
2.1519e-06
3.51365e-06
6.43227e-07
1.85055e-05
1.85166e-05
2.15682e-06
6.37734e-07
3.51069e-06
9.47324e-07
2.15195e-06
6.43319e-07
3.51374e-06
5.49185e-06
5.49356e-06
1.21851e-06
5.49476e-06
5.49649e-06
4.12756e-06
9.23129e-06
4.12457e-06
9.23821e-06
1.85278e-05
1.85394e-05
4.12763e-06
9.23263e-06
4.12464e-06
9.23953e-06
3.92631e-07
3.92742e-07
3.92743e-07
4.05099e-07
4.05107e-07
4.0522e-07
4.05221e-07
2.16857e-06
3.52052e-06
6.5977e-07
9.67389e-07
2.16399e-06
3.52335e-06
6.65256e-07
1.85293e-05
1.85404e-05
2.16863e-06
6.59912e-07
3.52053e-06
9.67531e-07
2.16404e-06
6.6535e-07
3.52345e-06
5.50083e-06
5.50254e-06
1.23493e-06
5.50368e-06
5.5054e-06
4.13475e-06
9.24836e-06
4.13183e-06
9.25562e-06
1.85531e-05
1.85646e-05
4.13482e-06
9.24967e-06
4.1319e-06
9.25694e-06
4.09257e-07
4.09373e-07
4.09373e-07
4.21669e-07
4.21675e-07
4.21792e-07
4.21792e-07
2.17975e-06
3.52994e-06
6.81327e-07
9.86593e-07
2.17542e-06
3.53266e-06
6.86645e-07
1.85546e-05
1.85661e-05
2.17981e-06
6.8147e-07
3.52996e-06
9.86735e-07
2.17547e-06
6.86741e-07
3.53275e-06
5.50972e-06
5.51143e-06
1.25051e-06
5.51254e-06
5.51427e-06
4.14187e-06
9.26541e-06
4.13898e-06
9.27281e-06
1.85791e-05
1.85914e-05
4.14193e-06
9.26673e-06
4.13904e-06
9.27414e-06
4.25796e-07
4.25915e-07
4.25915e-07
4.38092e-07
4.38096e-07
4.38217e-07
4.38215e-07
2.19032e-06
3.53902e-06
7.02189e-07
1.00479e-06
2.18624e-06
3.54161e-06
7.07321e-07
1.85806e-05
1.85928e-05
2.19037e-06
7.02331e-07
3.53902e-06
1.00493e-06
2.18629e-06
7.07417e-07
3.54169e-06
5.51843e-06
5.52015e-06
1.26526e-06
5.52118e-06
5.52291e-06
4.14864e-06
9.28276e-06
4.14594e-06
9.28955e-06
1.86054e-05
1.86167e-05
4.14871e-06
9.28412e-06
4.146e-06
9.29091e-06
4.42167e-07
4.42291e-07
4.42289e-07
4.54288e-07
4.54295e-07
4.5442e-07
4.54417e-07
2.20025e-06
3.54759e-06
7.22289e-07
1.02199e-06
2.19644e-06
3.55005e-06
7.27221e-07
1.8607e-05
1.86182e-05
2.20031e-06
7.2243e-07
3.54766e-06
1.02213e-06
2.19649e-06
7.27319e-07
3.55016e-06
5.52689e-06
5.5286e-06
1.27919e-06
5.52951e-06
5.53124e-06
4.15546e-06
9.29889e-06
4.15262e-06
9.30631e-06
1.86312e-05
1.86436e-05
4.15552e-06
9.30023e-06
4.15269e-06
9.30762e-06
4.58303e-07
4.5843e-07
4.58427e-07
4.70227e-07
4.70224e-07
4.7035e-07
4.70346e-07
2.20966e-06
3.55582e-06
7.41591e-07
1.03823e-06
2.20604e-06
3.55831e-06
7.4632e-07
1.86325e-05
1.86448e-05
2.20971e-06
7.41732e-07
3.55593e-06
1.03837e-06
2.20609e-06
7.46419e-07
3.5584e-06
5.53521e-06
5.53693e-06
1.2924e-06
5.53799e-06
5.53972e-06
4.16212e-06
9.31684e-06
4.15953e-06
9.32393e-06
1.86582e-05
1.867e-05
4.16217e-06
9.31815e-06
4.15957e-06
9.32525e-06
4.74154e-07
4.74282e-07
4.74278e-07
4.85797e-07
4.858e-07
4.85932e-07
4.85925e-07
2.21855e-06
3.56399e-06
7.60075e-07
1.05354e-06
2.21519e-06
3.56625e-06
7.64583e-07
1.86596e-05
1.86714e-05
2.2186e-06
7.6021e-07
3.56404e-06
1.05367e-06
2.21522e-06
7.64682e-07
3.56632e-06
5.54371e-06
5.54543e-06
1.30488e-06
5.54621e-06
5.54794e-06
4.16831e-06
9.33213e-06
4.16575e-06
9.33861e-06
1.86844e-05
1.8697e-05
4.16838e-06
9.33349e-06
4.16582e-06
9.34001e-06
4.89628e-07
4.89763e-07
4.89757e-07
5.00966e-07
5.00969e-07
5.01103e-07
5.01096e-07
2.2268e-06
3.57145e-06
7.7765e-07
1.06786e-06
2.22367e-06
3.57363e-06
7.81925e-07
1.86862e-05
1.86989e-05
2.22686e-06
7.77785e-07
3.57154e-06
1.068e-06
2.22372e-06
7.82029e-07
3.57373e-06
5.55147e-06
5.5532e-06
1.31658e-06
5.55404e-06
5.55578e-06
4.17474e-06
9.35139e-06
4.17217e-06
9.36087e-06
1.87147e-05
1.87279e-05
4.17479e-06
9.35276e-06
4.17221e-06
9.36216e-06
5.04694e-07
5.04829e-07
5.04822e-07
5.15708e-07
5.15701e-07
5.15835e-07
5.15826e-07
2.23467e-06
3.57886e-06
7.94321e-07
1.08133e-06
2.2317e-06
3.58096e-06
7.9837e-07
1.87156e-05
1.87283e-05
2.2347e-06
7.94449e-07
3.57887e-06
1.08145e-06
2.23174e-06
7.98473e-07
3.58097e-06
5.55952e-06
5.56124e-06
1.32762e-06
5.56195e-06
5.56368e-06
4.18066e-06
9.36696e-06
4.17831e-06
9.36936e-06
1.87379e-05
1.87457e-05
4.18072e-06
9.36825e-06
4.17835e-06
9.37075e-06
5.19306e-07
5.19443e-07
5.19434e-07
5.29939e-07
5.29938e-07
5.30075e-07
5.30066e-07
2.24197e-06
3.5858e-06
8.1007e-07
1.09389e-06
2.23924e-06
3.58772e-06
8.13881e-07
1.87398e-05
1.87485e-05
2.24202e-06
8.10195e-07
3.58581e-06
1.09401e-06
2.23928e-06
8.13985e-07
3.58777e-06
5.56709e-06
5.56881e-06
1.33797e-06
5.56951e-06
5.57125e-06
4.1865e-06
9.37833e-06
4.18415e-06
9.39053e-06
1.8762e-05
1.87805e-05
4.18656e-06
9.3798e-06
4.1842e-06
9.39186e-06
5.33415e-07
5.33554e-07
5.33546e-07
5.43652e-07
5.4365e-07
5.43788e-07
5.43778e-07
2.24882e-06
3.5924e-06
8.24878e-07
1.10559e-06
2.24628e-06
3.59425e-06
8.28456e-07
1.8764e-05
1.87802e-05
2.24887e-06
8.25004e-07
3.59242e-06
1.10572e-06
2.24632e-06
8.2856e-07
3.59427e-06
5.57461e-06
5.57633e-06
1.34766e-06
5.57687e-06
5.57861e-06
4.19217e-06
9.40428e-06
4.18992e-06
9.40858e-06
1.87985e-05
1.88069e-05
4.19224e-06
9.40549e-06
4.18995e-06
9.40985e-06
5.46992e-07
5.47131e-07
5.4712e-07
5.56813e-07
5.56806e-07
5.56945e-07
5.56932e-07
2.25523e-06
3.59872e-06
8.38757e-07
1.11648e-06
2.25288e-06
3.60049e-06
8.42105e-07
1.87984e-05
1.88085e-05
2.25527e-06
8.38881e-07
3.59871e-06
1.1166e-06
2.2529e-06
8.42205e-07
3.6005e-06
5.58185e-06
5.58357e-06
1.35672e-06
5.58419e-06
5.58593e-06
4.19754e-06
9.41214e-06
4.19547e-06
9.41782e-06
1.88164e-05
1.88292e-05
4.19761e-06
9.41364e-06
4.19551e-06
9.41937e-06
5.60001e-07
5.60142e-07
5.6013e-07
5.69372e-07
5.69367e-07
5.69506e-07
5.69494e-07
2.26113e-06
3.60471e-06
8.51714e-07
1.12655e-06
2.25902e-06
3.60627e-06
8.54829e-07
1.88198e-05
1.88319e-05
2.26118e-06
8.51836e-07
3.60471e-06
1.12666e-06
2.25905e-06
8.54929e-07
3.60629e-06
5.58894e-06
5.59067e-06
1.36514e-06
5.59095e-06
5.59269e-06
4.20268e-06
9.43116e-06
4.2006e-06
9.43983e-06
1.88483e-05
1.88609e-05
4.20273e-06
9.43248e-06
4.20063e-06
9.44103e-06
5.72413e-07
5.72554e-07
5.72542e-07
5.81336e-07
5.81334e-07
5.81474e-07
5.8146e-07
2.26664e-06
3.61026e-06
8.63752e-07
1.13586e-06
2.26466e-06
3.61188e-06
8.66647e-07
1.88488e-05
1.88611e-05
2.26668e-06
8.63872e-07
3.61025e-06
1.13597e-06
2.26469e-06
8.66745e-07
3.61188e-06
5.59563e-06
5.59735e-06
1.37301e-06
5.59797e-06
5.5997e-06
4.20777e-06
9.44771e-06
4.20587e-06
9.45285e-06
1.8874e-05
1.88848e-05
4.20785e-06
9.44901e-06
4.20591e-06
9.45429e-06
5.84227e-07
5.8437e-07
5.84356e-07
5.92678e-07
5.92668e-07
5.92809e-07
5.92793e-07
2.27173e-06
3.61584e-06
8.74921e-07
1.14443e-06
2.27e-06
3.61719e-06
8.77592e-07
1.88754e-05
1.88868e-05
2.27178e-06
8.75041e-07
3.61585e-06
1.14454e-06
2.27004e-06
8.77691e-07
3.61723e-06
5.60274e-06
5.60447e-06
1.3803e-06
5.60458e-06
5.60634e-06
4.21225e-06
9.4604e-06
4.21053e-06
9.4658e-06
1.88977e-05
1.89089e-05
4.21231e-06
9.46188e-06
4.21056e-06
9.46716e-06
5.954e-07
5.95542e-07
5.95527e-07
6.03369e-07
6.03365e-07
6.03503e-07
6.03488e-07
2.27626e-06
3.62062e-06
8.85182e-07
1.15223e-06
2.27472e-06
3.62194e-06
8.87632e-07
1.88996e-05
1.89104e-05
2.27629e-06
8.853e-07
3.62062e-06
1.15233e-06
2.27475e-06
8.87727e-07
3.62192e-06
5.60862e-06
5.61035e-06
1.38695e-06
5.61063e-06
5.61236e-06
4.21674e-06
9.47502e-06
4.21505e-06
9.48367e-06
1.89269e-05
1.89407e-05
4.21681e-06
9.47625e-06
4.21507e-06
9.485e-06
6.05939e-07
6.0608e-07
6.06065e-07
6.13431e-07
6.13424e-07
6.13564e-07
6.13547e-07
2.28048e-06
3.62543e-06
8.94596e-07
1.15935e-06
2.27911e-06
3.62663e-06
8.96839e-07
1.89277e-05
1.89418e-05
2.28052e-06
8.94709e-07
3.62541e-06
1.15946e-06
2.27913e-06
8.96933e-07
3.62665e-06
5.61514e-06
5.61686e-06
1.39311e-06
5.61697e-06
5.61872e-06
4.22083e-06
9.49251e-06
4.21935e-06
9.4957e-06
1.895e-05
1.89566e-05
4.2209e-06
9.49403e-06
4.2194e-06
9.49717e-06
6.15837e-07
6.15979e-07
6.15961e-07
6.22845e-07
6.22836e-07
6.22978e-07
6.2296e-07
2.28419e-06
3.62973e-06
9.03177e-07
1.16577e-06
2.28303e-06
3.63078e-06
9.05212e-07
1.89519e-05
1.89582e-05
2.28423e-06
9.03291e-07
3.62974e-06
1.16588e-06
2.28307e-06
9.05306e-07
3.6308e-06
5.62079e-06
5.62253e-06
1.39869e-06
5.6225e-06
5.62424e-06
4.22466e-06
9.50013e-06
4.22325e-06
9.50746e-06
1.89712e-05
1.89888e-05
4.22473e-06
9.50131e-06
4.22329e-06
9.50856e-06
6.2509e-07
6.25233e-07
6.25216e-07
6.31619e-07
6.31614e-07
6.31753e-07
6.31736e-07
2.28756e-06
3.63375e-06
9.10949e-07
1.17156e-06
2.28654e-06
3.63477e-06
9.1279e-07
1.89716e-05
1.89894e-05
2.2876e-06
9.11063e-07
3.63375e-06
1.17166e-06
2.28657e-06
9.12884e-07
3.6348e-06
5.62651e-06
5.62823e-06
1.40382e-06
5.62833e-06
5.63008e-06
4.22847e-06
9.52049e-06
4.22716e-06
9.52655e-06
1.90053e-05
1.90134e-05
4.22853e-06
9.52205e-06
4.22719e-06
9.5282e-06
6.33709e-07
6.33849e-07
6.33832e-07
6.39752e-07
6.39743e-07
6.39882e-07
6.3986e-07
2.29055e-06
3.63768e-06
9.17959e-07
1.17673e-06
2.28974e-06
3.63858e-06
9.19608e-07
1.90078e-05
1.90159e-05
2.29059e-06
9.1807e-07
3.6377e-06
1.17683e-06
2.28978e-06
9.19699e-07
3.6386e-06
5.63232e-06
5.63406e-06
1.40842e-06
5.63385e-06
5.6356e-06
4.23142e-06
9.53125e-06
4.23048e-06
9.53509e-06
1.90225e-05
1.90336e-05
4.2315e-06
9.5327e-06
4.23053e-06
9.53634e-06
6.41671e-07
6.41811e-07
6.41789e-07
6.47224e-07
6.47216e-07
6.47354e-07
6.47337e-07
2.29296e-06
3.64092e-06
9.24185e-07
1.18121e-06
2.29238e-06
3.64158e-06
9.25638e-07
1.90238e-05
1.90341e-05
2.29298e-06
9.24294e-07
3.6409e-06
1.18131e-06
2.29239e-06
9.25726e-07
3.64157e-06
5.63687e-06
5.63859e-06
1.41244e-06
5.63824e-06
5.63997e-06
4.23473e-06
9.54265e-06
4.23354e-06
9.54902e-06
1.90488e-05
1.906e-05
4.23479e-06
9.54389e-06
4.23355e-06
9.55032e-06
6.48991e-07
6.49133e-07
6.49116e-07
6.54092e-07
6.54083e-07
6.54223e-07
6.54203e-07
2.29524e-06
3.64403e-06
9.29684e-07
1.18516e-06
2.29466e-06
3.64485e-06
9.30973e-07
1.905e-05
1.90613e-05
2.29528e-06
9.29795e-07
3.64404e-06
1.18528e-06
2.29468e-06
9.31065e-07
3.64491e-06
5.6422e-06
5.64394e-06
1.41613e-06
5.64396e-06
5.64573e-06
4.23731e-06
9.55699e-06
4.23665e-06
9.56043e-06
1.90711e-05
1.90779e-05
4.23739e-06
9.55835e-06
4.23675e-06
9.56192e-06
6.55704e-07
6.55843e-07
6.55822e-07
6.60316e-07
6.60312e-07
6.60446e-07
6.60424e-07
2.29698e-06
3.64699e-06
9.34513e-07
1.18853e-06
2.29664e-06
3.64743e-06
9.35617e-07
1.90723e-05
1.90794e-05
2.29698e-06
9.3462e-07
3.64703e-06
1.18862e-06
2.29666e-06
9.35702e-07
3.64741e-06
5.64682e-06
5.64854e-06
1.41921e-06
5.64767e-06
5.64939e-06
9.56299e-06
4.23889e-06
1.90865e-05
4.23981e-06
9.56467e-06
4.23885e-06
6.61775e-07
6.61912e-07
6.61891e-07
3.64926e-06
9.38624e-07
2.29804e-06
1.90885e-05
1.9102e-05
2.29839e-06
9.3873e-07
3.64916e-06
1.19142e-06
2.29804e-06
9.39658e-07
3.64985e-06
5.65073e-06
5.65244e-06
1.42193e-06
5.65257e-06
5.65438e-06
1.84316e-05
1.84411e-05
1.84347e-05
1.84442e-05
5.46411e-06
5.46585e-06
1.16375e-06
5.46711e-06
5.46891e-06
1.84528e-05
1.8442e-05
1.84559e-05
1.84451e-05
1.16934e-06
5.47175e-06
5.47355e-06
5.46881e-06
5.47056e-06
4.09733e-06
9.16512e-06
4.09417e-06
9.17184e-06
2.11718e-06
3.47856e-06
5.68234e-07
8.80607e-07
2.11144e-06
3.48202e-06
5.74136e-07
2.11713e-06
3.47897e-06
5.68205e-07
8.80547e-07
2.11139e-06
3.48237e-06
5.74104e-07
4.0981e-06
9.17989e-06
9.17291e-06
4.10125e-06
4.09805e-06
9.18011e-06
9.17311e-06
4.10119e-06
2.11862e-06
8.86519e-07
3.48754e-06
5.85887e-07
3.48417e-06
5.80021e-07
2.12421e-06
2.11857e-06
8.86457e-07
3.48789e-06
5.85854e-07
3.48457e-06
5.79989e-07
2.12415e-06
5.46559e-06
5.46422e-06
1.16373e-06
5.46846e-06
5.46708e-06
1.84314e-05
1.84416e-05
1.84551e-05
1.84445e-05
1.16933e-06
5.47312e-06
5.47174e-06
5.47027e-06
5.4689e-06
1.84532e-05
1.84425e-05
2.11721e-06
3.47908e-06
5.6822e-07
8.80395e-07
2.11148e-06
3.48257e-06
5.74121e-07
4.0974e-06
9.17247e-06
2.11716e-06
8.80662e-07
5.74195e-07
3.48252e-06
4.09817e-06
9.18121e-06
9.17418e-06
4.10132e-06
2.11866e-06
8.86306e-07
3.48809e-06
5.85871e-07
3.48469e-06
5.80005e-07
2.12424e-06
4.09811e-06
9.181e-06
9.17376e-06
4.10126e-06
2.11861e-06
8.86572e-07
5.85946e-07
3.48805e-06
5.8008e-07
3.48465e-06
2.12419e-06
4.09726e-06
9.16533e-06
4.09468e-06
9.17203e-06
2.11722e-06
5.68327e-07
3.47867e-06
8.80699e-07
2.11148e-06
5.74227e-07
3.48212e-06
4.09737e-06
9.16544e-06
4.09431e-06
9.17195e-06
2.11868e-06
8.86346e-07
3.48762e-06
5.85911e-07
3.48431e-06
5.80007e-07
2.12426e-06
4.09855e-06
9.18037e-06
9.17331e-06
4.10113e-06
2.11866e-06
8.86611e-07
5.85979e-07
3.48766e-06
5.80113e-07
3.48428e-06
2.12425e-06
4.09818e-06
9.18055e-06
9.17323e-06
4.10123e-06
1.16384e-06
5.46872e-06
5.46729e-06
1.84423e-05
1.8457e-05
1.84459e-05
1.16944e-06
5.47338e-06
5.47195e-06
5.47036e-06
5.46898e-06
1.84546e-05
1.84434e-05
2.1172e-06
5.68318e-07
3.47914e-06
8.80497e-07
2.11156e-06
5.74206e-07
3.48261e-06
4.09733e-06
4.0947e-06
9.17234e-06
4.09724e-06
9.16613e-06
4.09467e-06
9.17263e-06
2.11873e-06
8.86483e-07
5.86e-07
3.48773e-06
5.80146e-07
3.48434e-06
2.12433e-06
2.11873e-06
8.86405e-07
5.85957e-07
3.48815e-06
5.80103e-07
3.48474e-06
2.12423e-06
4.09858e-06
9.18094e-06
9.17364e-06
4.1012e-06
4.09854e-06
9.18127e-06
9.17391e-06
4.10111e-06
1.84326e-05
1.84425e-05
1.84348e-05
1.84447e-05
1.16948e-06
5.47185e-06
5.47357e-06
5.46883e-06
5.47053e-06
1.84553e-05
1.84437e-05
1.84575e-05
1.84459e-05
1.84539e-05
1.84646e-05
1.8457e-05
1.84677e-05
5.47344e-06
5.47519e-06
1.18288e-06
5.47638e-06
5.47818e-06
1.84756e-05
1.84655e-05
1.84787e-05
1.84686e-05
1.18827e-06
5.48102e-06
5.48282e-06
5.47808e-06
5.47982e-06
4.10503e-06
9.18142e-06
4.1019e-06
9.18846e-06
2.13106e-06
3.48965e-06
5.91734e-07
9.03874e-07
2.12562e-06
3.49295e-06
5.97559e-07
2.131e-06
3.49005e-06
5.917e-07
9.03806e-07
2.12556e-06
3.49331e-06
5.97524e-07
4.10579e-06
9.19642e-06
9.18969e-06
4.10891e-06
4.10574e-06
9.19653e-06
9.18974e-06
4.10885e-06
2.13243e-06
9.09532e-07
3.49827e-06
6.09139e-07
3.49502e-06
6.03362e-07
2.13773e-06
2.13238e-06
9.09464e-07
3.49862e-06
6.09103e-07
3.49544e-06
6.03326e-07
2.13767e-06
5.47492e-06
5.47356e-06
1.18286e-06
5.47778e-06
5.47641e-06
1.84541e-05
1.84646e-05
1.84779e-05
1.84673e-05
1.18826e-06
5.48241e-06
5.48104e-06
5.47958e-06
5.47822e-06
1.8476e-05
1.84654e-05
2.13109e-06
3.49017e-06
5.91718e-07
9.03662e-07
2.12566e-06
3.4935e-06
5.97542e-07
4.10509e-06
9.18235e-06
4.10196e-06
9.18949e-06
2.13104e-06
5.91792e-07
3.49013e-06
9.03925e-07
2.12561e-06
5.97617e-07
3.49346e-06
4.10586e-06
9.19774e-06
9.19103e-06
4.10898e-06
2.13247e-06
9.09319e-07
3.49882e-06
6.09121e-07
3.49555e-06
6.03344e-07
2.13776e-06
4.1058e-06
9.19732e-06
9.19073e-06
4.10892e-06
2.13243e-06
9.09582e-07
6.09196e-07
3.49878e-06
6.03419e-07
3.49551e-06
2.13771e-06
4.10498e-06
9.18169e-06
4.10241e-06
9.18875e-06
2.1311e-06
5.91828e-07
3.48978e-06
9.03967e-07
2.12566e-06
5.97653e-07
3.49309e-06
4.10508e-06
9.18193e-06
4.10204e-06
9.18926e-06
2.1325e-06
9.09364e-07
3.49836e-06
6.09165e-07
3.49518e-06
6.0335e-07
2.13779e-06
4.10625e-06
9.19681e-06
9.19002e-06
4.1088e-06
2.13248e-06
9.09626e-07
6.09234e-07
3.49839e-06
6.03457e-07
3.49516e-06
2.13777e-06
4.10588e-06
9.1972e-06
9.19053e-06
4.1089e-06
5.47501e-06
5.47363e-06
1.18298e-06
5.47802e-06
5.4766e-06
1.84556e-05
1.84658e-05
1.84789e-05
1.84691e-05
1.18837e-06
5.48265e-06
5.48123e-06
5.47965e-06
5.47828e-06
1.84765e-05
1.84667e-05
2.13109e-06
5.91817e-07
3.49024e-06
9.03766e-07
2.12573e-06
5.9763e-07
3.49357e-06
4.10505e-06
9.1823e-06
4.10244e-06
9.18945e-06
4.10496e-06
9.18266e-06
4.1024e-06
9.19001e-06
2.13255e-06
9.09502e-07
6.09255e-07
3.49846e-06
6.0349e-07
3.49521e-06
2.13785e-06
2.13255e-06
9.09421e-07
6.0921e-07
3.49887e-06
6.03445e-07
3.49563e-06
2.13776e-06
4.10627e-06
9.19726e-06
9.19068e-06
4.10887e-06
4.10623e-06
9.19792e-06
9.19128e-06
4.10878e-06
1.84565e-05
1.84673e-05
1.84587e-05
1.84696e-05
1.18841e-06
5.4811e-06
5.48282e-06
5.47815e-06
5.47986e-06
1.84778e-05
1.84682e-05
1.848e-05
1.84704e-05
1.84766e-05
1.84878e-05
1.84797e-05
1.84909e-05
5.4827e-06
5.48445e-06
1.20107e-06
5.48559e-06
5.48739e-06
1.85011e-05
1.84891e-05
1.85042e-05
1.84922e-05
1.20626e-06
5.4901e-06
5.49191e-06
5.48724e-06
5.48899e-06
4.11264e-06
9.1978e-06
4.10955e-06
9.20482e-06
2.14422e-06
3.5003e-06
6.1489e-07
9.26122e-07
2.13907e-06
3.50346e-06
6.20614e-07
2.14417e-06
3.50071e-06
6.14853e-07
9.26048e-07
2.13902e-06
3.50381e-06
6.20576e-07
4.11339e-06
9.21351e-06
9.20594e-06
4.11645e-06
4.11333e-06
9.21357e-06
9.20618e-06
4.1164e-06
2.14554e-06
9.31524e-07
3.50855e-06
6.31972e-07
3.50546e-06
6.26308e-07
2.15054e-06
2.14549e-06
9.31449e-07
3.5089e-06
6.31932e-07
3.50587e-06
6.26269e-07
2.15049e-06
5.48419e-06
5.48283e-06
1.20106e-06
5.48697e-06
5.48559e-06
1.8477e-05
1.84882e-05
1.85027e-05
1.84912e-05
1.20625e-06
5.4915e-06
5.49013e-06
5.48873e-06
5.48737e-06
1.85008e-05
1.84893e-05
2.14425e-06
3.50082e-06
6.14872e-07
9.2591e-07
2.13911e-06
3.50401e-06
6.20595e-07
4.11271e-06
9.19853e-06
4.10961e-06
9.20542e-06
2.14421e-06
6.14947e-07
3.50078e-06
9.26169e-07
2.13907e-06
6.20669e-07
3.50397e-06
4.11346e-06
9.21481e-06
9.20722e-06
4.11652e-06
2.14558e-06
9.31312e-07
3.5091e-06
6.31952e-07
3.50598e-06
6.26289e-07
2.15057e-06
4.1134e-06
9.21431e-06
9.20677e-06
4.11646e-06
2.14553e-06
9.3157e-07
6.32026e-07
3.50905e-06
6.26363e-07
3.50594e-06
2.15052e-06
4.11259e-06
9.19808e-06
4.11006e-06
9.2051e-06
2.14426e-06
6.14986e-07
3.50042e-06
9.26213e-07
2.13911e-06
6.20708e-07
3.50358e-06
4.11269e-06
9.1984e-06
4.10969e-06
9.20512e-06
2.1456e-06
9.3136e-07
3.50864e-06
6.31997e-07
3.50561e-06
6.26297e-07
2.1506e-06
4.11384e-06
9.21378e-06
9.20644e-06
4.11635e-06
2.14558e-06
9.31615e-07
6.32066e-07
3.50868e-06
6.26404e-07
3.50558e-06
2.15058e-06
4.11346e-06
9.21373e-06
9.20642e-06
4.11645e-06
5.48426e-06
5.48289e-06
1.20117e-06
5.48722e-06
5.48579e-06
1.84775e-05
1.84886e-05
1.85043e-05
1.84924e-05
1.20636e-06
5.49174e-06
5.49032e-06
5.48881e-06
5.48743e-06
1.85018e-05
1.84899e-05
2.14426e-06
6.14974e-07
3.50089e-06
9.26012e-07
2.13918e-06
6.20684e-07
3.50406e-06
4.11266e-06
9.19847e-06
4.11009e-06
9.20534e-06
4.11257e-06
9.1991e-06
4.11004e-06
9.20579e-06
2.14566e-06
9.31498e-07
6.32089e-07
3.50874e-06
6.26439e-07
3.50564e-06
2.15066e-06
2.14564e-06
9.3141e-07
6.32041e-07
3.50916e-06
6.26391e-07
3.50604e-06
2.15059e-06
4.11386e-06
9.2142e-06
9.20669e-06
4.11642e-06
4.11382e-06
9.21443e-06
9.20709e-06
4.11633e-06
1.84787e-05
1.84892e-05
1.84809e-05
1.84914e-05
1.20641e-06
5.49022e-06
5.49195e-06
5.48729e-06
5.489e-06
1.85021e-05
1.84904e-05
1.85043e-05
1.84926e-05
1.85023e-05
1.85131e-05
1.85054e-05
1.85162e-05
5.49176e-06
5.4935e-06
1.21836e-06
5.49465e-06
5.49645e-06
1.85242e-05
1.8514e-05
1.85273e-05
1.85171e-05
1.22337e-06
5.49919e-06
5.50099e-06
5.49631e-06
5.49806e-06
4.12013e-06
9.21493e-06
4.11708e-06
9.22208e-06
2.1567e-06
3.51051e-06
6.37603e-07
9.47346e-07
2.15183e-06
3.51355e-06
6.43201e-07
2.15664e-06
3.51092e-06
6.37563e-07
9.47264e-07
2.15178e-06
3.5139e-06
6.43159e-07
4.12087e-06
9.23006e-06
9.22343e-06
4.12389e-06
4.12081e-06
9.23021e-06
9.22336e-06
4.12384e-06
2.15796e-06
9.52492e-07
3.51846e-06
6.5429e-07
3.51548e-06
6.48763e-07
2.16269e-06
2.1579e-06
9.52409e-07
3.51881e-06
6.54247e-07
3.51589e-06
6.48721e-07
2.16263e-06
5.49327e-06
5.49191e-06
1.21835e-06
5.49606e-06
5.49469e-06
1.85018e-05
1.85128e-05
1.85267e-05
1.85157e-05
1.22336e-06
5.50056e-06
5.49919e-06
5.49782e-06
5.49646e-06
1.85249e-05
1.85138e-05
2.15673e-06
3.51103e-06
6.37582e-07
9.47133e-07
2.15187e-06
3.5141e-06
6.43179e-07
4.12019e-06
9.21571e-06
4.11714e-06
9.22306e-06
2.15668e-06
6.37656e-07
3.51099e-06
9.47387e-07
2.15182e-06
6.43253e-07
3.51405e-06
4.12093e-06
9.23141e-06
9.22477e-06
4.12396e-06
2.15799e-06
9.52279e-07
3.51901e-06
6.54268e-07
3.516e-06
6.48742e-07
2.16272e-06
4.12087e-06
9.23113e-06
9.22434e-06
4.1239e-06
2.15794e-06
9.52531e-07
6.54342e-07
3.51896e-06
6.48815e-07
3.51596e-06
2.16267e-06
4.12009e-06
9.21514e-06
4.1176e-06
9.2223e-06
2.15674e-06
6.37698e-07
3.51064e-06
9.47434e-07
2.15187e-06
6.43295e-07
3.51368e-06
4.12019e-06
9.21512e-06
4.11722e-06
9.22256e-06
2.15803e-06
9.5233e-07