/*--------------------------------*- C++ -*----------------------------------*\
| =========                 |                                                 |
| \\      /  F ield         | OpenFOAM: The Open Source CFD Toolbox           |
|  \\    /   O peration     | Version:  2312                                  |
|   \\  /    A nd           | Website:  www.openfoam.com                      |
|    \\/     M anipulation  |                                                 |
\*---------------------------------------------------------------------------*/
FoamFile
{
    version     2.0;
    format      ascii;
    arch        "LSB;label=32;scalar=64";
    class       volScalarField;
    location    "875";
    object      nut;
}
// * * * * * * * * * * * * * * * * * * * * * * * * * * * * * * * * * * * * * //

dimensions      [0 2 -1 0 0 0 0];

internalField   nonuniform List<scalar> 
42973
(
0.000123735
0.000140146
0.000137751
0.000126556
0.000143268
0.000143278
0.000140148
0.000129529
0.000146347
0.000146365
0.000142545
0.000132644
0.000149399
0.000149403
0.000144825
0.00013589
0.000152398
0.000152417
0.000147152
0.000139199
0.000155332
0.000155337
0.000149316
0.000142602
0.0001582
0.00015821
0.000151479
0.000146083
0.000161045
0.000161058
0.000153612
0.000149581
0.000163786
0.000163799
0.00015565
0.000153107
0.000166471
0.000166476
0.000157604
0.000156643
0.000169072
0.000169084
0.000159507
0.000160177
0.000171655
0.000171672
0.00016147
0.00016382
0.000174213
0.000174204
0.000163302
0.00016715
0.000176415
0.00017646
0.000164824
0.000170663
0.000178877
0.000178853
0.000166669
0.000174223
0.000181188
0.000181196
0.000168336
0.000177422
0.000183275
0.000183316
0.000169844
0.00018084
0.000185459
0.000185442
0.000171347
0.000184081
0.000187455
0.00018747
0.000172804
0.000187176
0.000189374
0.000189387
0.000174169
0.000190318
0.000191359
0.000191366
0.000175565
0.00019331
0.000192953
0.000192958
0.000176562
0.000196117
0.000194805
0.000194802
0.000178021
0.000199093
0.000196487
0.000196528
0.000179134
0.000201756
0.000197983
0.000197971
0.000180157
0.000204352
0.00019951
0.000199517
0.000181206
0.000206833
0.000200757
0.000200763
0.000181913
0.000137769
0.000139753
0.000140149
0.000140125
0.000142483
0.000142471
0.000137743
0.00013976
0.000140148
0.000142481
0.000142471
0.000140152
0.00014249
0.000142469
0.000139761
0.000140146
0.000142493
0.000142463
0.000139727
0.000140163
0.000142125
0.000143262
0.000143248
0.000145577
0.00014556
0.000140164
0.000142122
0.00014326
0.000143257
0.000145576
0.000145582
0.000143254
0.000145581
0.0001456
0.000140177
0.000142144
0.000143248
0.000145605
0.000145595
0.000142162
0.000142506
0.000144483
0.000146339
0.000146325
0.000148629
0.000148615
0.000142511
0.000144475
0.000146338
0.000146342
0.000148628
0.000148617
0.000146366
0.000148637
0.000148625
0.000142523
0.000144468
0.000146362
0.00014864
0.000148621
0.000144446
0.000144877
0.000146778
0.000149397
0.000149377
0.000151665
0.000151634
0.00014486
0.000146756
0.000149395
0.000149379
0.000151664
0.000151651
0.000149378
0.000151654
0.000151655
0.000144858
0.000146778
0.000149374
0.000151673
0.000151652
0.000146779
0.000147132
0.000148965
0.000152401
0.000152376
0.000154586
0.000154582
0.00014712
0.000148982
0.000152401
0.000152395
0.000154586
0.000154588
0.000152407
0.000154605
0.000154605
0.00014714
0.000148979
0.000152404
0.000154613
0.000154603
0.000148977
0.000149317
0.000151145
0.000155313
0.000155308
0.000157482
0.000157462
0.00014933
0.000151131
0.000155313
0.000155312
0.000157482
0.000157471
0.000155323
0.000157483
0.000157474
0.000149327
0.000151139
0.000155321
0.000157494
0.000157472
0.000151131
0.00015149
0.000153305
0.0001582
0.000158177
0.000160342
0.000160316
0.000151475
0.000153286
0.0001582
0.000158187
0.000160342
0.000160328
0.000158194
0.000160339
0.000160336
0.000151483
0.000153297
0.000158192
0.000160353
0.000160335
0.000153286
0.000153634
0.000155324
0.000161047
0.000161021
0.000163104
0.000163086
0.000153613
0.00015533
0.000161048
0.000161034
0.000163106
0.000163101
0.000161038
0.000163108
0.000163106
0.000153627
0.000155341
0.000161037
0.000163124
0.000163106
0.00015534
0.000155622
0.000157343
0.000163772
0.000163762
0.000165795
0.000165779
0.000155636
0.000157322
0.000163774
0.000163775
0.000165797
0.000165785
0.000163786
0.000165805
0.000165798
0.000155646
0.00015732
0.000163786
0.000165812
0.000165799
0.000157315
0.000157659
0.00015923
0.000166474
0.000166444
0.000168438
0.000168406
0.00015762
0.000159229
0.000166476
0.000166448
0.00016844
0.000168413
0.000166456
0.000168426
0.000168408
0.000157616
0.000159238
0.000166457
0.000168436
0.000168409
0.00015922
0.000159476
0.000161121
0.000169062
0.000169051
0.000170951
0.000170974
0.000159506
0.000161155
0.000169063
0.000169062
0.000170954
0.000170995
0.00016906
0.000171002
0.000171009
0.000159521
0.000161175
0.000169061
0.000171025
0.000171012
0.000161178
0.00016146
0.000163233
0.000171625
0.000171622
0.000173679
0.000173578
0.000161454
0.000163102
0.000171629
0.00017164
0.000173683
0.000173569
0.000171657
0.0001736
0.000173573
0.000161465
0.000163075
0.000171661
0.000173592
0.000173576
0.000163067
0.000163437
0.000164391
0.000174283
0.000174195
0.000175776
0.000175846
0.000163337
0.000164561
0.000174285
0.000174186
0.000175779
0.000175883
0.000174182
0.000175871
0.000175879
0.000163316
0.000164624
0.000174184
0.000175908
0.000175882
0.000164606
0.000164591
0.000166553
0.000176292
0.000176381
0.000178243
0.000178193
0.000164769
0.000166434
0.000176297
0.000176427
0.00017825
0.000178192
0.000176431
0.000178228
0.000178212
0.000164837
0.000166396
0.000176436
0.000178228
0.000178218
0.0001664
0.000166899
0.000168227
0.000178953
0.000178848
0.000180741
0.000180655
0.000166729
0.000168164
0.000178958
0.000178824
0.000180742
0.000180637
0.000178838
0.000180665
0.000180622
0.000166668
0.000168155
0.000178842
0.000180649
0.000180622
0.000168135
0.00016833
0.000169433
0.000181204
0.000181172
0.000182613
0.000182687
0.00016833
0.000169574
0.000181206
0.000181181
0.000182622
0.000182741
0.000181169
0.000182727
0.000182766
0.000168352
0.000169637
0.000181171
0.000182781
0.000182775
0.000169649
0.000169679
0.000171312
0.000183171
0.000183231
0.000184956
0.000184903
0.000169791
0.000171226
0.000183181
0.000183272
0.000184962
0.000184891
0.000183299
0.00018493
0.000184879
0.000169836
0.000171192
0.000183309
0.000184919
0.000184884
0.000171154
0.000171521
0.000172669
0.000185511
0.000185437
0.000186997
0.000186945
0.00017142
0.000172623
0.000185515
0.000185421
0.000187003
0.000186953
0.000185401
0.000186968
0.000186957
0.000171386
0.000172636
0.000185405
0.000186976
0.000186961
0.00017264
0.000172799
0.000173907
0.000187462
0.000187427
0.000188841
0.00018885
0.000172772
0.00017397
0.000187469
0.000187443
0.00018885
0.00018887
0.000187457
0.000188881
0.000188884
0.000172792
0.000173985
0.000187463
0.000188902
0.000188894
0.000173992
0.000174081
0.000175477
0.000189316
0.00018934
0.000190849
0.000190852
0.000174158
0.000175469
0.000189324
0.000189354
0.000190855
0.000190856
0.000189366
0.000190887
0.000190857
0.000174168
0.000175471
0.000189375
0.000190891
0.000190862
0.000175438
0.000175651
0.000176578
0.000191358
0.000191326
0.000192645
0.000192546
0.000175593
0.000176473
0.000191366
0.000191333
0.000192655
0.000192559
0.000191326
0.000192565
0.00019254
0.000175601
0.000176475
0.000191332
0.000192579
0.000192551
0.000176459
0.000176643
0.000177707
0.000193005
0.000192933
0.000194219
0.000194271
0.000176573
0.000177832
0.000193015
0.000192938
0.000194223
0.000194262
0.00019293
0.000194309
0.000194296
0.000176569
0.000177816
0.00019294
0.000194298
0.000194299
0.000177837
0.000177892
0.000179148
0.000194704
0.00019476
0.000196133
0.000196085
0.000178009
0.000179064
0.00019471
0.000194761
0.000196147
0.000196123
0.000194794
0.000196116
0.000196108
0.000178007
0.000179112
0.000194798
0.000196158
0.000196123
0.000179069
0.000179238
0.000180051
0.000196537
0.000196462
0.000197599
0.000197563
0.000179136
0.000180049
0.000196552
0.000196499
0.000197609
0.000197568
0.000196473
0.000197588
0.000197564
0.000179177
0.000180039
0.000196489
0.000197589
0.000197571
0.000180045
0.000180123
0.000181146
0.000197954
0.000197949
0.000199099
0.000199105
0.000180153
0.000181167
0.000197962
0.000197944
0.000199106
0.000199103
0.000197961
0.000199148
0.000199132
0.000180139
0.000181157
0.000197966
0.000199148
0.000199142
0.000181155
0.000181242
0.000181982
0.000199485
0.000199472
0.0002005
0.000200448
0.000181236
0.000181932
0.000199493
0.000199474
0.000200512
0.000200456
0.000199481
0.000200468
0.000200408
0.000181231
0.000181943
0.000199493
0.000200475
0.000200417
0.000181877
0.000181982
0.000200774
0.000200732
0.000181945
0.000200789
0.000200746
0.000200711
0.000181956
0.000200719
9.23993e-05
5.00269e-05
9.21931e-05
5.00388e-05
2.36134e-05
2.36178e-05
9.23935e-05
5.00219e-05
9.21898e-05
5.00338e-05
0.000123735
0.000123751
0.000125838
0.000125837
0.000125842
0.000125839
0.00012216
9.39918e-05
0.000135575
0.00014093
0.000121591
9.42759e-05
0.000136446
2.36168e-05
0.000122158
0.000135579
0.000140928
0.000121593
0.000136455
9.42703e-05
7.3836e-05
7.38313e-05
0.000138514
7.39296e-05
7.39241e-05
9.2875e-05
5.00561e-05
9.26668e-05
5.00692e-05
2.36231e-05
2.36275e-05
9.28737e-05
5.00512e-05
9.26623e-05
5.00643e-05
0.000126556
0.000126563
0.000126558
0.000128772
0.000128772
0.000128788
0.000128789
0.000123479
9.45933e-05
0.000139082
0.000144042
0.000122917
9.48784e-05
0.000139959
2.36225e-05
2.36268e-05
0.000123483
0.000139081
9.46045e-05
0.000144061
0.000122916
0.000139967
9.49001e-05
7.41075e-05
7.41025e-05
0.000140974
7.42556e-05
7.42516e-05
9.33259e-05
5.0086e-05
9.31387e-05
5.00985e-05
2.36328e-05
2.36376e-05
9.33214e-05
5.0081e-05
9.31374e-05
5.00935e-05
0.00012953
0.000129547
0.000129551
0.000131851
0.000131852
0.000131863
0.000131867
0.000124758
9.51746e-05
0.000142626
0.000147111
0.000124227
9.54425e-05
0.000143509
2.36318e-05
2.36365e-05
0.000124758
0.000142635
9.51861e-05
0.000147122
0.000124233
0.000143524
9.54393e-05
7.43598e-05
7.43554e-05
0.000143305
7.44521e-05
7.44464e-05
9.37869e-05
5.01172e-05
9.35859e-05
5.01305e-05
2.36434e-05
2.36481e-05
9.37834e-05
5.01122e-05
9.35798e-05
5.01255e-05
0.000132643
0.000132652
0.000132652
0.000135071
0.000135063
0.000135077
0.000135072
0.000125995
9.57475e-05
0.000146173
0.000150155
0.000125467
9.60156e-05
0.000147057
2.36427e-05
2.36474e-05
0.000125995
0.000146174
9.57499e-05
0.000150165
0.000125463
0.000147064
9.6029e-05
7.45955e-05
7.45899e-05
0.00014561
7.47301e-05
7.47254e-05
9.41983e-05
5.0147e-05
9.40274e-05
5.01595e-05
2.36537e-05
2.36586e-05
9.41956e-05
5.01421e-05
9.40262e-05
5.01545e-05
0.000135882
0.000135898
0.000135895
0.000138364
0.000138366
0.00013838
0.000138385
0.000127198
9.62885e-05
0.000149729
0.000153137
0.000126695
9.65389e-05
0.000150609
2.36528e-05
2.36576e-05
0.000127201
0.000149735
9.63051e-05
0.000153154
0.0001267
0.000150624
9.65438e-05
7.48599e-05
7.48556e-05
0.000147903
7.49536e-05
7.49485e-05
9.46155e-05
5.01778e-05
9.44349e-05
5.0191e-05
2.36645e-05
2.36693e-05
9.4611e-05
5.01728e-05
9.44299e-05
5.0186e-05
0.000139204
0.000139216
0.000139221
0.000141743
0.000141744
0.000141756
0.000141754
0.000128343
9.6811e-05
0.000153253
0.000156051
0.000127859
9.70485e-05
0.000154122
2.36636e-05
2.36685e-05
0.000128341
0.000153256
9.68124e-05
0.000156058
0.000127857
0.000154131
9.70549e-05
7.50483e-05
7.50428e-05
0.000150042
7.51525e-05
7.51472e-05
9.50112e-05
5.02086e-05
9.48404e-05
5.0222e-05
2.36755e-05
2.36807e-05
9.50073e-05
5.02037e-05
9.48367e-05
5.0217e-05
0.000142599
0.000142612
0.00014261
0.000145207
0.000145198
0.000145213
0.000145212
0.000129468
9.73059e-05
0.000156733
0.000158914
0.000128986
9.75535e-05
0.000157594
2.36746e-05
2.36798e-05
0.000129469
0.000156737
9.73167e-05
0.000158926
0.000128988
0.000157605
9.75602e-05
7.52893e-05
7.52843e-05
0.000152223
7.54004e-05
7.53952e-05
9.54025e-05
5.024e-05
9.52394e-05
5.02523e-05
2.36867e-05
2.36915e-05
9.54004e-05
5.02351e-05
9.52362e-05
5.02474e-05
0.000146074
0.000146089
0.000146088
0.000148708
0.000148703
0.000148722
0.000148719
0.000130563
9.78171e-05
0.000160193
0.00016174
0.000130105
9.80353e-05
0.000161045
2.36859e-05
2.36906e-05
0.000130566
0.000160199
9.78259e-05
0.000161756
0.000130106
0.000161057
9.80449e-05
7.5501e-05
7.5496e-05
0.000154322
7.55903e-05
7.55854e-05
9.57505e-05
5.02691e-05
9.5599e-05
5.02824e-05
2.36976e-05
2.37028e-05
9.57458e-05
5.02641e-05
9.55958e-05
5.02774e-05
0.000149579
0.000149597
0.000149596
0.000152221
0.000152221
0.000152234
0.000152237
0.000131598
9.82648e-05
0.000163576
0.00016446
0.000131155
9.84867e-05
0.000164404
2.36967e-05
2.37019e-05
0.000131598
0.000163583
9.82689e-05
0.000164472
0.000131157
0.000164416
9.84865e-05
7.56985e-05
7.56935e-05
0.000156341
7.57916e-05
7.57862e-05
9.61226e-05
5.03014e-05
9.59609e-05
5.03142e-05
2.3709e-05
2.3714e-05
9.61176e-05
5.02963e-05
9.59559e-05
5.03092e-05
0.000153104
0.000153116
0.000153117
0.000155762
0.00015575
0.000155763
0.000155757
0.000132611
9.87207e-05
0.000166886
0.000167128
0.000132182
9.8924e-05
0.000167697
2.37081e-05
2.37131e-05
0.00013261
0.000166889
9.87204e-05
0.000167133
0.000132181
0.000167706
9.89238e-05
7.58695e-05
7.58641e-05
0.000158267
7.59521e-05
7.59465e-05
9.64231e-05
5.0329e-05
9.63051e-05
5.03405e-05
2.37201e-05
2.37255e-05
9.64209e-05
5.0324e-05
9.63005e-05
5.03356e-05
0.000156635
0.000156649
0.000156642
0.000159283
0.0001593
0.00015932
0.000159319
0.000133586
9.91382e-05
0.000170121
0.000169713
0.00013317
9.93365e-05
0.000170916
2.37194e-05
2.37247e-05
0.000133588
0.000170125
9.91416e-05
0.000169731
0.00013317
0.000170926
9.9346e-05
7.60634e-05
7.60581e-05
0.000160191
7.61602e-05
7.61554e-05
9.68308e-05
5.03632e-05
9.66219e-05
5.03805e-05
2.37329e-05
2.37385e-05
9.68261e-05
5.03583e-05
9.66219e-05
5.03754e-05
0.000160192
0.000160212
0.000160214
0.00016292
0.000162881
0.000162891
0.000162893
0.000134572
9.95773e-05
0.000173295
0.000172309
0.000134136
9.98199e-05
0.000174079
2.37318e-05
2.37372e-05
0.000134572
0.000173305
9.95838e-05
0.000172319
0.000134142
0.000174093
9.98087e-05
7.628e-05
7.62758e-05
0.000162159
7.63911e-05
7.63854e-05
9.70782e-05
5.03918e-05
9.70392e-05
5.0396e-05
2.37428e-05
2.37461e-05
9.70727e-05
5.03867e-05
9.70288e-05
5.03911e-05
0.000163773
0.00016378
0.000163778
0.00016634
0.000166358
0.000166381
0.000166372
0.000135483
0.000100026
0.000176442
0.000174789
0.000135132
0.000100119
0.0001772
2.37421e-05
2.37458e-05
0.000135479
0.00017644
0.00010001
0.000174792
0.000135123
0.000177202
0.000100129
7.64391e-05
7.64322e-05
0.000163857
7.64289e-05
7.64234e-05
9.72881e-05
5.04114e-05
9.71107e-05
5.04331e-05
2.37528e-05
2.37606e-05
9.72904e-05
5.04066e-05
9.71166e-05
5.04281e-05
0.000167194
0.000167224
0.000167215
0.000169738
0.00016975
0.000169771
0.000169774
0.000136215
0.000100198
0.000179353
0.000176984
0.000135861
0.000100426
0.000180046
2.37522e-05
2.3759e-05
0.000136228
0.000179369
0.000100232
0.000177026
0.000135876
0.000180071
0.000100434
7.64574e-05
7.6455e-05
0.00016545
7.66065e-05
7.66022e-05
9.78097e-05
5.04584e-05
9.76417e-05
5.04663e-05
2.37683e-05
2.3772e-05
9.77917e-05
5.04531e-05
9.76276e-05
5.04612e-05
0.00017064
0.000170648
0.000170652
0.000173386
0.00017332
0.000173313
0.000173306
0.000137267
0.000100782
0.000182257
0.00017951
0.000136819
0.000100984
0.000183021
2.37668e-05
2.37711e-05
0.000137243
0.000182258
0.000100741
0.000179474
0.000136807
0.000183016
0.000100946
7.6806e-05
7.67977e-05
0.000167322
7.68576e-05
7.68496e-05
9.78453e-05
5.04725e-05
9.78258e-05
5.04823e-05
2.37759e-05
2.37812e-05
9.78552e-05
5.04678e-05
9.78246e-05
5.04777e-05
0.000174179
0.00017418
0.00017417
0.000176609
0.000176649
0.000176688
0.000176688
0.000137961
0.000101034
0.00018522
0.000181691
0.000137687
0.000101129
0.000185889
2.37758e-05
2.37808e-05
0.000137979
0.000185212
0.000101054
0.000181727
0.000137684
0.000185898
0.000101174
7.68499e-05
7.68459e-05
0.000168891
7.6917e-05
7.69152e-05
9.82282e-05
5.0506e-05
9.80323e-05
5.05217e-05
2.37893e-05
2.37946e-05
9.82182e-05
5.0501e-05
9.80357e-05
5.05164e-05
0.000177472
0.000177512
0.000177517
0.000179984
0.000179985
0.000179998
0.000179991
0.00013875
0.000101348
0.000187873
0.000183831
0.00013838
0.000101553
0.000188543
2.3788e-05
2.37932e-05
0.000138749
0.0001879
0.000101361
0.000183854
0.0001384
0.000188569
0.000101532
7.70164e-05
7.70125e-05
0.000170402
7.70677e-05
7.70608e-05
9.84656e-05
5.0536e-05
9.83913e-05
5.05451e-05
2.38001e-05
2.38047e-05
9.84589e-05
5.05309e-05
9.83779e-05
5.05402e-05
0.000180817
0.000180823
0.00018081
0.000183293
0.000183253
0.000183261
0.000183253
0.000139502
0.000101701
0.000190564
0.00018597
0.000139184
0.000101831
0.000191213
2.37992e-05
2.3804e-05
0.000139492
0.000190558
0.000101678
0.00018596
0.000139167
0.000191209
0.000101828
7.71254e-05
7.71177e-05
0.000171914
7.7217e-05
7.72106e-05
9.86345e-05
5.05585e-05
9.85577e-05
5.05681e-05
2.38101e-05
2.38147e-05
9.86345e-05
5.05537e-05
9.85595e-05
5.05631e-05
0.000184051
0.000184064
0.000184062
0.000186406
0.00018641
0.000186432
0.000186436
0.000140169
0.00010196
0.000193135
0.00018793
0.00013989
0.000102063
0.000193753
2.38094e-05
2.38139e-05
0.000140179
0.000193139
0.000101974
0.000187952
0.000139897
0.000193766
0.000102073
7.72637e-05
7.72602e-05
0.000173307
7.72701e-05
7.72671e-05
9.88753e-05
5.05843e-05
9.87355e-05
5.05996e-05
2.38222e-05
2.38281e-05
9.88661e-05
5.0579e-05
9.87292e-05
5.05945e-05
0.000187191
0.000187212
0.000187214
0.000189524
0.000189543
0.000189556
0.000189551
0.000140835
0.000102201
0.000195569
0.000189877
0.000140501
0.000102413
0.00019617
2.38211e-05
2.38271e-05
0.000140828
0.000195579
0.000102197
0.000189886
0.000140501
0.000196181
0.000102402
7.73534e-05
7.73461e-05
0.000174739
7.74946e-05
7.74853e-05
9.91239e-05
5.06158e-05
9.90674e-05
5.06215e-05
2.38321e-05
2.38348e-05
9.91251e-05
5.0611e-05
9.90655e-05
5.06167e-05
0.000190322
0.000190335
0.000190326
0.000192604
0.000192549
0.000192565
0.000192549
0.000141508
0.00010258
0.000198025
0.00019179
0.00014127
0.0001026
0.000198614
2.38314e-05
2.3834e-05
0.000141515
0.000198026
0.000102582
0.000191803
0.000141268
0.000198622
0.000102612
7.75124e-05
7.75073e-05
0.000175977
7.74465e-05
7.74451e-05
9.91461e-05
5.06291e-05
9.90875e-05
5.06418e-05
2.38407e-05
2.38481e-05
9.91302e-05
5.06238e-05
9.90828e-05
5.06363e-05
0.000193256
0.00019327
0.000193257
0.000195387
0.000195407
0.000195411
0.000195417
0.000141911
0.000102574
0.000200231
0.000193368
0.000141667
0.000102757
0.000200744
2.38395e-05
2.38469e-05
0.000141895
0.000200238
0.000102568
0.000193364
0.000141669
0.00020075
0.000102729
7.73995e-05
7.73953e-05
0.000177066
7.7591e-05
7.75785e-05
9.95291e-05
5.06651e-05
9.93739e-05
5.06761e-05
2.38552e-05
2.38586e-05
9.95352e-05
5.06604e-05
9.93671e-05
5.06716e-05
0.000196153
0.00019616
0.000196168
0.000198371
0.00019837
0.000198397
0.000198391
0.000142727
0.000103055
0.000202441
0.000195278
0.000142384
0.000103181
0.00020303
2.38547e-05
2.38582e-05
0.000142738
0.000202435
0.000103051
0.000195294
0.00014237
0.000203034
0.000103209
7.78042e-05
7.7799e-05
0.00017855
7.77986e-05
7.7798e-05
9.95797e-05
5.06845e-05
9.9568e-05
5.06912e-05
2.38624e-05
2.3867e-05
9.95752e-05
5.06797e-05
9.9573e-05
5.0686e-05
0.000199068
0.000199101
0.000199088
0.000201107
0.000201073
0.000201093
0.000201079
0.000143087
0.000103159
0.000204671
0.000196844
0.000142936
0.000103213
0.000205155
2.38614e-05
2.38657e-05
0.000143092
0.000204696
0.000103186
0.000196875
0.000142964
0.000205183
0.000103203
7.77027e-05
7.7702e-05
0.00017952
7.77169e-05
7.7708e-05
9.97229e-05
5.07044e-05
9.96364e-05
5.07157e-05
2.38733e-05
2.3878e-05
9.97144e-05
5.06992e-05
9.96245e-05
5.07105e-05
0.00020174
0.000201748
0.000201743
0.000203703
0.000203718
0.000203722
0.00020373
0.000143621
0.000103361
0.000206615
0.000198377
0.000143354
0.000103491
0.000207106
2.38723e-05
2.38771e-05
0.000143603
0.000206608
0.000103336
0.000198367
0.000143328
0.0002071
0.000103484
7.78652e-05
7.78533e-05
0.000180633
7.79234e-05
7.79192e-05
9.98925e-05
5.073e-05
9.98292e-05
5.07362e-05
2.38827e-05
2.38856e-05
9.9887e-05
5.07249e-05
9.98213e-05
5.07314e-05
0.00020436
0.00020437
0.00020437
0.000206242
0.000206217
0.000206227
0.000206198
0.000144039
0.000103566
0.000208569
0.000199852
0.000143874
0.000103611
0.00020903
2.38817e-05
2.38847e-05
0.000144045
0.000208573
0.000103573
0.00019986
0.000143882
0.000209038
0.000103611
7.78878e-05
7.78873e-05
0.000181542
7.78557e-05
7.785e-05
5.07407e-05
9.98546e-05
2.3889e-05
9.98488e-05
5.07362e-05
9.98605e-05
0.000206808
0.000206818
0.000206791
0.000103574
0.000210335
0.000144166
2.38884e-05
2.38938e-05
0.000144286
0.000210335
0.000103571
0.000201053
0.000144156
0.000210741
0.000103611
7.78101e-05
7.77992e-05
0.000182335
7.78986e-05
7.78924e-05
2.36157e-05
2.36197e-05
2.36136e-05
2.36177e-05
7.38665e-05
7.38615e-05
0.000138555
7.39655e-05
7.39592e-05
2.36247e-05
2.36201e-05
2.36227e-05
2.36181e-05
0.000138955
7.40947e-05
7.40886e-05
7.39703e-05
7.39644e-05
9.23956e-05
5.0021e-05
9.21893e-05
5.00332e-05
0.000122169
9.40128e-05
0.000135559
0.000140929
0.000121595
9.42884e-05
0.000136436
0.000122164
9.39794e-05
0.00013555
0.000140909
0.00012159
9.42652e-05
0.000136427
9.24316e-05
5.00537e-05
5.0041e-05
9.26332e-05
9.24284e-05
5.00482e-05
5.00355e-05
9.26307e-05
0.000122269
0.000141706
9.45786e-05
0.000138191
9.43008e-05
0.000137314
0.000122827
0.000122264
0.000141691
9.45671e-05
0.000138182
9.42798e-05
0.000137304
0.000122824
7.38277e-05
7.38392e-05
0.000138547
7.39506e-05
7.39607e-05
2.36147e-05
2.3619e-05
2.36227e-05
2.36182e-05
0.000138958
7.40875e-05
7.40982e-05
7.39584e-05
7.39684e-05
2.3624e-05
2.36194e-05
0.000122163
9.40053e-05
0.000135556
0.000140928
0.000121591
9.42797e-05
0.000136433
9.23896e-05
5.00297e-05
0.000122158
0.000140906
0.000136431
9.42561e-05
9.24258e-05
5.00487e-05
5.0036e-05
9.2628e-05
0.000122263
0.000141704
9.45698e-05
0.000138186
9.42923e-05
0.00013731
0.00012282
9.24222e-05
5.00452e-05
5.0032e-05
9.2626e-05
0.000122258
0.000141687
0.000138183
9.45702e-05
0.000137306
9.42728e-05
0.000122818
9.23918e-05
5.00224e-05
9.21776e-05
5.00346e-05
0.00012216
0.00013558
9.39957e-05
0.00014092
0.000121594
0.000136453
9.42554e-05
9.23901e-05
5.00186e-05
9.2188e-05
5.00304e-05
0.00012226
0.000141712
9.45778e-05
0.000138199
9.42902e-05
0.000137327
0.000122817
9.24115e-05
5.00497e-05
5.00369e-05
9.26277e-05
0.000122259
0.000141691
0.0001382
9.45614e-05
0.000137326
9.42688e-05
0.000122816
9.24202e-05
5.00459e-05
5.00327e-05
9.26259e-05
0.000138525
7.39415e-05
7.39525e-05
2.36189e-05
2.3622e-05
2.36173e-05
0.000138938
7.41012e-05
7.41127e-05
7.3954e-05
7.39643e-05
2.36242e-05
2.36194e-05
0.000122156
0.000135573
9.39903e-05
0.000140914
0.000121587
0.000136449
9.42491e-05
9.23888e-05
9.2178e-05
5.00347e-05
9.2386e-05
5.0017e-05
9.21752e-05
5.00288e-05
0.000122257
0.000141708
0.000138204
9.45845e-05
0.000137327
9.42867e-05
0.000122815
0.00012225
0.000141684
0.000138194
9.45549e-05
0.000137319
9.42625e-05
0.00012281
9.24092e-05
5.00503e-05
5.00371e-05
9.2626e-05
9.24051e-05
5.00445e-05
5.00311e-05
9.26223e-05
2.36131e-05
2.36173e-05
2.3612e-05
2.36162e-05
0.000138912
7.40908e-05
7.40854e-05
7.39393e-05
7.39339e-05
2.36227e-05
2.36178e-05
2.36217e-05
2.36167e-05
2.36252e-05
2.36298e-05
2.36231e-05
2.36277e-05
7.4107e-05
7.41015e-05
0.000140964
7.42441e-05
7.42392e-05
2.36344e-05
2.36301e-05
2.36324e-05
2.36281e-05
0.000141358
7.43504e-05
7.43453e-05
7.42507e-05
7.42463e-05
9.2872e-05
5.00506e-05
9.26644e-05
5.00634e-05
0.000123485
9.4596e-05
0.00013907
0.000144039
0.000122927
9.48891e-05
0.000139951
0.000123481
9.45823e-05
0.000139062
0.000144022
0.000122923
9.48658e-05
0.000139944
9.29087e-05
5.00838e-05
5.00715e-05
9.31082e-05
9.29055e-05
5.00781e-05
5.00657e-05
9.31045e-05
0.000123584
0.000144811
9.51734e-05
0.000141724
9.49051e-05
0.000140836
0.000124134
0.00012358
0.000144793
9.5149e-05
0.000141716
9.48792e-05
0.000140829
0.000124129
7.40951e-05
7.41058e-05
0.000140952
7.42157e-05
7.42277e-05
2.36244e-05
2.36288e-05
2.36324e-05
2.36279e-05
0.000141345
7.43306e-05
7.43429e-05
7.42204e-05
7.42324e-05
2.36337e-05
2.36292e-05
0.000123482
9.45878e-05
0.000139064
0.000144037
0.00012292
9.48818e-05
0.000139946
9.28724e-05
5.00476e-05
9.26605e-05
5.00606e-05
0.000123481
0.000139063
9.459e-05
0.000144039
0.000122918
0.000139947
9.4884e-05
9.29078e-05
5.00788e-05
5.00666e-05
9.31074e-05
0.000123582
0.00014481
9.51666e-05
0.000141721
9.48984e-05
0.000140832
0.000124134
9.29064e-05
5.00749e-05
5.00629e-05
9.31051e-05
0.000123581
0.000144815
0.000141725
9.51593e-05
0.000140835
9.48989e-05
0.000124133
9.28733e-05
5.00521e-05
9.26495e-05
5.0065e-05
0.000123481
0.000139078
9.45827e-05
0.000144041
0.000122916
0.000139961
9.48908e-05
9.28737e-05
5.00485e-05
9.26586e-05
5.00618e-05
0.000123579
0.000144814
9.51626e-05
0.000141732
9.48919e-05
0.000140849
0.000124131
9.28946e-05
5.00796e-05
5.00673e-05
9.31072e-05
0.000123581
0.000144824
0.000141741
9.51795e-05
0.00014085
9.49083e-05
0.000124136
9.2906e-05
5.00763e-05
5.00641e-05
9.31085e-05
7.41141e-05
7.41252e-05
0.000140982
7.42399e-05
7.42526e-05
2.36246e-05
2.3629e-05
2.36314e-05
2.36272e-05
0.000141377
7.43351e-05
7.43479e-05
7.42444e-05
7.42566e-05
2.36336e-05
2.36294e-05
0.000123479
0.000139069
9.45765e-05
0.000144035
0.000122907
0.000139955
9.48859e-05
9.28767e-05
5.00528e-05
9.26496e-05
5.00658e-05
9.28739e-05
5.0047e-05
9.26449e-05
5.00604e-05
0.000123584
0.000144837
0.000141747
9.5176e-05
0.000140854
9.4915e-05
0.000124138
0.000123576
0.000144819
0.000141737
9.5175e-05
0.000140842
9.49038e-05
0.000124136
9.28995e-05
5.008e-05
5.00681e-05
9.31106e-05
9.28959e-05
5.00748e-05
5.00627e-05
9.31091e-05
2.36233e-05
2.36279e-05
2.36222e-05
2.36269e-05
0.00014138
7.43585e-05
7.43543e-05
7.42628e-05
7.42589e-05
2.36324e-05
2.36283e-05
2.36313e-05
2.36272e-05
2.36348e-05
2.36396e-05
2.36328e-05
2.36376e-05
7.43534e-05
7.43486e-05
0.000143285
7.44639e-05
7.44576e-05
2.36453e-05
2.36402e-05
2.36432e-05
2.36381e-05
0.000143678
7.46219e-05
7.46153e-05
7.44754e-05
7.44695e-05
9.33233e-05
5.00804e-05
9.31351e-05
5.00931e-05
0.000124759
9.51845e-05
0.000142612
0.0001471
0.000124229
9.5442e-05
0.000143498
0.000124755
9.5161e-05
0.000142603
0.000147089
0.000124224
9.54287e-05
0.00014349
9.33565e-05
5.01147e-05
5.0101e-05
9.35527e-05
9.3354e-05
5.01089e-05
5.00955e-05
9.35499e-05
0.000124851
0.000147863
9.57402e-05
0.00014527
9.54571e-05
0.000144384
0.000125379
0.000124847
0.000147852
9.57203e-05
0.000145263
9.5443e-05
0.000144376
0.000125376
7.43359e-05
7.4348e-05
0.000143296
7.44566e-05
7.44687e-05
2.36341e-05
2.36389e-05
2.3643e-05
2.36381e-05
0.000143687
7.45963e-05
7.46074e-05
7.44653e-05
7.44772e-05
2.36443e-05
2.36394e-05
0.000124755
9.51778e-05
0.00014261
0.000147099
0.000124228
9.54338e-05
0.000143496
9.33185e-05
5.00771e-05
9.31349e-05
5.00895e-05
0.000124753
0.000142614
9.51695e-05
0.000147099
0.000124227
0.0001435
9.54227e-05
9.33514e-05
5.01097e-05
5.00959e-05
9.35464e-05
0.000124847
0.000147862
9.5731e-05
0.000145266
9.5449e-05
0.000144382
0.000125372
9.33486e-05
5.01056e-05
5.0092e-05
9.35434e-05
0.000124844
0.000147856
0.000145267
9.57158e-05
0.000144384
9.54374e-05
0.000125369
9.33253e-05
5.00819e-05
9.31253e-05
5.00946e-05
0.00012476
0.000142633
9.51897e-05
0.000147123
0.000124231
0.00014352
9.54367e-05
9.33247e-05
5.00785e-05
9.31371e-05
5.00906e-05
0.000124849
0.000147875
9.57328e-05
0.000145281
9.54565e-05
0.0001444
0.000125374
9.33432e-05
5.01103e-05
5.0097e-05
9.35479e-05
0.000124851
0.000147875
0.000145288
9.57109e-05
0.000144406
9.54479e-05
0.000125373
9.33528e-05
5.01062e-05
5.0093e-05
9.35455e-05
7.43384e-05
7.43506e-05
0.00014329
7.44464e-05
7.44589e-05
2.3634e-05
2.36387e-05
2.36421e-05
2.36371e-05
0.000143676
7.45977e-05
7.46096e-05
7.44576e-05
7.44695e-05
2.36443e-05
2.36392e-05
0.000124757
0.000142627
9.51851e-05
0.000147119
0.000124228
0.000143518
9.54306e-05
9.33231e-05
5.00822e-05
9.31288e-05
5.00946e-05
9.33213e-05
5.00769e-05
9.31264e-05
5.0089e-05
0.000124849
0.00014788
0.000145291
9.57315e-05
0.000144406
9.54537e-05
0.00012537
0.000124845
0.000147871
0.000145284
9.57039e-05
0.0001444
9.54417e-05
0.000125366
9.33412e-05
5.01107e-05
5.00971e-05
9.35442e-05
9.33382e-05
5.01047e-05
5.00914e-05
9.35405e-05
2.36328e-05
2.36372e-05
2.36317e-05
2.36361e-05
0.00014368
7.45837e-05
7.45779e-05
7.44589e-05
7.44532e-05
2.36427e-05
2.36377e-05
2.36416e-05
2.36366e-05
2.36458e-05
2.36504e-05
2.36438e-05
2.36484e-05
7.46344e-05
7.46284e-05
0.000145661
7.47566e-05
7.47509e-05
2.36552e-05
2.36508e-05
2.36531e-05
2.36488e-05
0.000146033
7.48387e-05
7.48335e-05
7.47589e-05
7.47538e-05
9.37824e-05
5.01114e-05
9.35828e-05
5.01244e-05
0.000126009
9.57594e-05
0.000146159
0.000150162
0.000125473
9.60397e-05
0.000147051
0.000126003
9.57354e-05
0.000146151
0.000150134
0.00012547
9.60047e-05
0.000147042
9.3818e-05
5.01448e-05
5.01327e-05
9.40004e-05
9.38133e-05
5.01391e-05
5.01267e-05
9.39963e-05
0.000126101
0.000150918
9.62934e-05
0.000148837
9.60526e-05
0.000147945
0.000126618
0.000126095
0.000150887
9.62657e-05
0.000148825
9.60162e-05
0.000147934
0.000126612
7.46037e-05
7.46145e-05
0.00014563
7.47176e-05
7.47279e-05
2.36447e-05
2.36494e-05
2.36532e-05
2.36485e-05
0.000146001
7.48203e-05
7.48321e-05
7.47205e-05
7.47308e-05
2.36545e-05
2.36498e-05
0.000126003
9.57506e-05
0.000146154
0.00015016
0.000125466
9.60313e-05
0.000147046
9.37801e-05
5.01082e-05
9.35767e-05
5.01215e-05
0.000125999
0.000146154
9.57347e-05
0.000150142
0.000125463
0.000147044
9.60146e-05
9.3815e-05
5.01399e-05
5.01278e-05
9.39993e-05
0.000126096
0.000150917
9.62861e-05
0.000148833
9.60448e-05
0.00014794
0.000126616
9.38117e-05
5.01362e-05
5.01238e-05
9.39969e-05
0.000126092
0.0001509
0.000148831
9.62793e-05
0.000147938
9.60292e-05
0.000126613
9.37765e-05
5.01128e-05
9.35675e-05
5.01258e-05
0.000125994
0.000146172
9.57273e-05
0.000150136
0.000125466
0.000147058
9.60067e-05
9.3775e-05
5.01087e-05
9.35758e-05
5.01222e-05
0.000126087
0.000150908
9.62781e-05
0.000148836
9.6027e-05
0.000147952