/*--------------------------------*- C++ -*----------------------------------*\
| =========                 |                                                 |
| \\      /  F ield         | OpenFOAM: The Open Source CFD Toolbox           |
|  \\    /   O peration     | Version:  2312                                  |
|   \\  /    A nd           | Website:  www.openfoam.com                      |
|    \\/     M anipulation  |                                                 |
\*---------------------------------------------------------------------------*/
FoamFile
{
    version     2.0;
    format      ascii;
    arch        "LSB;label=32;scalar=64";
    class       volScalarField;
    location    "875";
    object      p;
}
// * * * * * * * * * * * * * * * * * * * * * * * * * * * * * * * * * * * * * //

dimensions      [0 2 -2 0 0 0 0];

internalField   nonuniform List<scalar> 
42973
(
0.0016748
0.00167471
0.00167678
0.00163882
0.00163872
0.00163873
0.0016408
0.00160291
0.00160281
0.0016028
0.00160486
0.00156706
0.00156695
0.00156696
0.00156901
0.00153127
0.00153116
0.00153116
0.00153321
0.00149554
0.00149542
0.00149542
0.00149747
0.00145986
0.00145975
0.00145975
0.00146178
0.00142423
0.00142411
0.00142411
0.00142614
0.00138864
0.00138851
0.00138851
0.00139054
0.00135308
0.00135295
0.00135295
0.00135498
0.00131757
0.00131744
0.00131744
0.00131946
0.0012821
0.00128196
0.00128196
0.00128398
0.00124656
0.00124645
0.00124646
0.00124847
0.00121117
0.00121104
0.00121103
0.00121305
0.00117575
0.00117563
0.00117563
0.00117763
0.00114029
0.00114018
0.00114019
0.0011422
0.00110492
0.00110481
0.0011048
0.0011068
0.00106951
0.0010694
0.0010694
0.00107141
0.00103409
0.001034
0.001034
0.001036
0.000998723
0.000998628
0.000998627
0.00100063
0.000963291
0.000963183
0.000963183
0.000965186
0.000927879
0.000927805
0.000927802
0.000929814
0.0008925
0.0008924
0.000892406
0.000894406
0.000857028
0.000856944
0.000856939
0.000858949
0.000821587
0.000821511
0.000821512
0.000823523
0.000786094
0.000786006
0.000786007
0.00078801
0.000750595
0.000750527
0.000750526
0.000752549
0.00167678
0.00164562
0.00167471
0.00167471
0.00164772
0.00164772
0.00167679
0.00164562
0.00167471
0.00164772
0.00164772
0.00167471
0.00164772
0.00164772
0.00164562
0.00167471
0.00164772
0.00164772
0.00164562
0.00164079
0.00160968
0.00163872
0.00163872
0.00161178
0.00161178
0.00164079
0.00160969
0.00163872
0.00163873
0.00161178
0.00161178
0.00163873
0.00161178
0.00161178
0.00164079
0.00160968
0.00163873
0.00161178
0.00161178
0.00160968
0.00160487
0.00157383
0.00160281
0.00160281
0.00157592
0.00157591
0.00160487
0.00157382
0.00160281
0.0016028
0.00157592
0.00157591
0.0016028
0.00157591
0.00157591
0.00160486
0.00157383
0.0016028
0.00157591
0.00157591
0.00157383
0.00156901
0.00153802
0.00156696
0.00156695
0.0015401
0.0015401
0.00156901
0.00153802
0.00156696
0.00156696
0.0015401
0.0015401
0.00156696
0.00154011
0.00154011
0.00156901
0.00153802
0.00156696
0.0015401
0.00154011
0.00153802
0.00153321
0.00150227
0.00153116
0.00153116
0.00150435
0.00150435
0.00153321
0.00150227
0.00153116
0.00153116
0.00150435
0.00150435
0.00153116
0.00150435
0.00150435
0.00153321
0.00150227
0.00153116
0.00150435
0.00150435
0.00150227
0.00149747
0.00146659
0.00149543
0.00149542
0.00146866
0.00146866
0.00149747
0.00146659
0.00149543
0.00149542
0.00146866
0.00146866
0.00149542
0.00146866
0.00146866
0.00149747
0.00146659
0.00149542
0.00146866
0.00146866
0.00146659
0.00146179
0.00143094
0.00145975
0.00145975
0.00143301
0.00143301
0.00146179
0.00143094
0.00145975
0.00145975
0.00143301
0.00143301
0.00145975
0.00143301
0.00143301
0.00146179
0.00143094
0.00145975
0.00143301
0.00143301
0.00143094
0.00142614
0.00139534
0.0014241
0.00142411
0.0013974
0.00139741
0.00142614
0.00139534
0.0014241
0.00142411
0.0013974
0.0013974
0.00142411
0.00139741
0.00139741
0.00142614
0.00139534
0.00142411
0.00139741
0.00139741
0.00139534
0.00139054
0.00135978
0.00138851
0.00138851
0.00136184
0.00136184
0.00139054
0.00135977
0.00138851
0.00138851
0.00136184
0.00136184
0.00138851
0.00136184
0.00136184
0.00139054
0.00135977
0.00138851
0.00136184
0.00136184
0.00135977
0.00135498
0.00132424
0.00135295
0.00135295
0.0013263
0.00132631
0.00135498
0.00132425
0.00135295
0.00135295
0.0013263
0.00132631
0.00135295
0.00132631
0.00132631
0.00135498
0.00132425
0.00135295
0.00132631
0.00132631
0.00132425
0.00131945
0.0012888
0.00131743
0.00131743
0.00129085
0.00129084
0.00131946
0.00128878
0.00131743
0.00131744
0.00129085
0.00129083
0.00131744
0.00129084
0.00129083
0.00131946
0.00128877
0.00131744
0.00129083
0.00129083
0.00128877
0.001284
0.00125324
0.00128198
0.00128197
0.00125531
0.00125533
0.00128399
0.00125326
0.00128198
0.00128196
0.00125531
0.00125533
0.00128196
0.00125533
0.00125533
0.00128398
0.00125327
0.00128196
0.00125533
0.00125533
0.00125327
0.00124844
0.00121785
0.00124643
0.00124645
0.00121989
0.00121988
0.00124846
0.00121783
0.00124643
0.00124645
0.00121989
0.00121988
0.00124646
0.00121988
0.00121988
0.00124847
0.00121783
0.00124646
0.00121988
0.00121988
0.00121783
0.00121308
0.00118244
0.00121106
0.00121104
0.0011845
0.0011845
0.00121305
0.00118243
0.00121106
0.00121104
0.0011845
0.00118449
0.00121104
0.00118449
0.00118448
0.00121305
0.00118243
0.00121104
0.00118449
0.00118448
0.00118243
0.00117763
0.00114696
0.00117563
0.00117563
0.00114902
0.00114903
0.00117764
0.00114698
0.00117563
0.00117563
0.00114902
0.00114904
0.00117562
0.00114904
0.00114905
0.00117764
0.00114699
0.00117562
0.00114904
0.00114905
0.00114699
0.00114217
0.00111162
0.00114017
0.00114018
0.00111367
0.00111366
0.00114219
0.00111161
0.00114017
0.00114019
0.00111366
0.00111365
0.00114019
0.00111365
0.00111365
0.0011422
0.0011116
0.00114019
0.00111365
0.00111364
0.00111159
0.00110683
0.0010762
0.00110482
0.00110481
0.00107826
0.00107826
0.00110681
0.0010762
0.00110482
0.0011048
0.00107826
0.00107826
0.0011048
0.00107825
0.00107826
0.00110681
0.00107621
0.0011048
0.00107826
0.00107826
0.00107621
0.00107141
0.00104079
0.0010694
0.0010694
0.00104284
0.00104284
0.00107141
0.00104079
0.0010694
0.0010694
0.00104284
0.00104284
0.00106941
0.00104284
0.00104285
0.00107141
0.00104079
0.00106941
0.00104284
0.00104285
0.00104079
0.00103599
0.00100543
0.00103399
0.00103399
0.00100747
0.00100747
0.001036
0.00100543
0.00103399
0.00103399
0.00100747
0.00100747
0.001034
0.00100747
0.00100747
0.001036
0.00100543
0.001034
0.00100747
0.00100747
0.00100543
0.00100064
0.000970006
0.00099863
0.000998628
0.000972061
0.000972049
0.00100064
0.000969992
0.00099863
0.000998627
0.000972061
0.000972051
0.000998625
0.000972046
0.000972046
0.00100063
0.000969993
0.000998625
0.000972048
0.000972046
0.00096999
0.000965196
0.000934583
0.000963192
0.000963185
0.000936624
0.000936637
0.000965186
0.000934605
0.000963192
0.000963185
0.000936623
0.000936633
0.000963183
0.00093664
0.000936641
0.000965187
0.000934599
0.000963183
0.000936635
0.00093664
0.000934606
0.000929791
0.00089923
0.000927787
0.000927802
0.000901271
0.000901265
0.000929811
0.000899216
0.000927787
0.000927799
0.000901272
0.00090127
0.000927807
0.000901264
0.000901266
0.000929808
0.000899223
0.000927806
0.00090127
0.000901267
0.000899217
0.000894422
0.000863757
0.000892414
0.000892402
0.000865806
0.000865804
0.000894406
0.000863759
0.000892415
0.000892408
0.000865805
0.000865801
0.0008924
0.000865802
0.0008658
0.000894412
0.000863754
0.000892401
0.0008658
0.0008658
0.000863755
0.000858944
0.000828326
0.000856939
0.000856944
0.000830365
0.000830371
0.000858951
0.000828332
0.000856938
0.00085694
0.000830364
0.00083037
0.000856943
0.000830374
0.000830377
0.000858945
0.000828332
0.000856942
0.000830373
0.000830377
0.000828336
0.000823519
0.000792851
0.000821508
0.00082151
0.000794899
0.000794892
0.000823521
0.000792842
0.000821508
0.00082151
0.000794899
0.000794893
0.000821512
0.000794889
0.000794882
0.000823521
0.000792843
0.000821512
0.00079489
0.000794883
0.000792831
0.000788024
0.000757335
0.000786014
0.000786009
0.000759377
0.000759382
0.000788017
0.000757344
0.000786014
0.00078601
0.000759378
0.000759382
0.000786002
0.000759385
0.000759392
0.000788018
0.000757342
0.000786002
0.000759384
0.000759391
0.000757356
0.000752526
0.000750518
0.000750524
0.000752534
0.000750518
0.000750523
0.000750537
0.000752533
0.000750537
0.00166333
0.00167679
0.0016768
0.00166331
0.00167679
0.00166332
0.00166333
0.00167679
0.0016768
0.00166331
0.0016748
0.0016748
0.00164781
0.0016478
0.00164781
0.00164781
0.00166344
0.00167678
0.00167478
0.00166571
0.00167679
0.00166337
0.00166577
0.00166332
0.00166344
0.00167478
0.00166571
0.00167679
0.00166577
0.00166337
0.0016768
0.0016768
0.00166361
0.00166332
0.00166332
0.00162737
0.0016408
0.00164081
0.00162735
0.0016408
0.00162736
0.00162737
0.0016408
0.00164081
0.00162735
0.00163882
0.00163882
0.00163882
0.00161188
0.00161188
0.00161187
0.00161187
0.00162748
0.00164079
0.00163879
0.00162974
0.0016408
0.00162741
0.0016298
0.0016408
0.00162736
0.00162748
0.00163879
0.00164079
0.00162974
0.00164081
0.0016298
0.00162741
0.00164082
0.00164082
0.00162764
0.00162736
0.00162736
0.00159148
0.00160489
0.0016049
0.00159147
0.00160489
0.00159147
0.00159148
0.00160489
0.0016049
0.00159147
0.00160291
0.0016029
0.0016029
0.00157602
0.00157602
0.00157602
0.00157602
0.00159158
0.00160487
0.00160287
0.00159384
0.00160488
0.00159152
0.0015939
0.00160489
0.00159147
0.00159158
0.00160286
0.00160487
0.00159384
0.00160488
0.0015939
0.00159152
0.0016049
0.0016049
0.00159174
0.00159147
0.00159147
0.00155565
0.00156904
0.00156905
0.00155564
0.00156904
0.00155564
0.00155565
0.00156904
0.00156905
0.00155564
0.00156706
0.00156706
0.00156706
0.00154021
0.00154021
0.00154021
0.00154022
0.00155576
0.00156903
0.00156701
0.001558
0.00156903
0.00155569
0.00155806
0.00156904
0.00155564
0.00155576
0.00156702
0.00156903
0.001558
0.00156904
0.00155806
0.00155569
0.00156905
0.00156905
0.00155592
0.00155565
0.00155565
0.00151989
0.00153326
0.00153326
0.00151988
0.00153326
0.00151988
0.00151989
0.00153326
0.00153326
0.00151988
0.00153127
0.00153127
0.00153127
0.00150447
0.00150447
0.00150447
0.00150447
0.00151998
0.00153324
0.00153122
0.00152222
0.00153324
0.00151992
0.00152228
0.00153326
0.00151988
0.00151998
0.00153122
0.00153324
0.00152222
0.00153324
0.00152228
0.00151992
0.00153327
0.00153327
0.00152013
0.00151988
0.00151988
0.00148418
0.00149752
0.00149753
0.00148416
0.00149752
0.00148417
0.00148418
0.00149752
0.00149753
0.00148416
0.00149554
0.00149554
0.00149554
0.00146878
0.00146878
0.00146878
0.00146878
0.00148427
0.0014975
0.00149548
0.0014865
0.00149751
0.00148421
0.00148656
0.00149752
0.00148417
0.00148427
0.00149548
0.0014975
0.0014865
0.00149751
0.00148656
0.00148421
0.00149753
0.00149753
0.00148442
0.00148417
0.00148417
0.00144852
0.00146185
0.00146185
0.00144851
0.00146185
0.00144851
0.00144852
0.00146185
0.00146185
0.00144851
0.00145986
0.00145986
0.00145986
0.00143313
0.00143313
0.00143313
0.00143313
0.00144861
0.00146183
0.0014598
0.00145083
0.00146183
0.00144855
0.00145089
0.00146185
0.00144851
0.00144861
0.0014598
0.00146183
0.00145083
0.00146183
0.00145089
0.00144855
0.00146185
0.00146185
0.00144876
0.00144851
0.00144851
0.0014129
0.00142622
0.00142622
0.00141289
0.00142622
0.00141289
0.0014129
0.00142622
0.00142622
0.00141289
0.00142423
0.00142423
0.00142423
0.00139753
0.00139753
0.00139753
0.00139753
0.00141298
0.00142619
0.00142416
0.0014152
0.00142619
0.00141293
0.00141526
0.00142622
0.00141289
0.00141298
0.00142416
0.00142619
0.0014152
0.00142619
0.00141526
0.00141293
0.00142622
0.00142622
0.00141313
0.00141289
0.00141289
0.00137733
0.00139063
0.00139063
0.00137732
0.00139063
0.00137732
0.00137733
0.00139063
0.00139063
0.00137732
0.00138864
0.00138864
0.00138864
0.00136197
0.00136197
0.00136197
0.00136197
0.00137741
0.0013906
0.00138856
0.00137962
0.0013906
0.00137736
0.00137967
0.00139063
0.00137732
0.00137741
0.00138856
0.0013906
0.00137962
0.0013906
0.00137967
0.00137736
0.00139063
0.00139063
0.00137755
0.00137731
0.00137731
0.00134178
0.00135508
0.00135508
0.00134177
0.00135508
0.00134178
0.00134178
0.00135508
0.00135508
0.00134177
0.00135308
0.00135308
0.00135308
0.00132644
0.00132644
0.00132644
0.00132644
0.00134186
0.00135505
0.001353
0.00134407
0.00135504
0.00134181
0.00134412
0.00135508
0.00134178
0.00134186
0.001353
0.00135505
0.00134407
0.00135504
0.00134412
0.00134181
0.00135508
0.00135508
0.00134201
0.00134177
0.00134177
0.00130629
0.00131956
0.00131956
0.00130628
0.00131956
0.00130628
0.00130629
0.00131956
0.00131956
0.00130628
0.00131757
0.00131757
0.00131757
0.00129098
0.00129096
0.00129096
0.00129096
0.00130636
0.00131953
0.00131749
0.00130857
0.00131953
0.00130632
0.00130861
0.00131956
0.00130628
0.00130636
0.00131749
0.00131953
0.00130857
0.00131953
0.00130861
0.00130632
0.00131956
0.00131956
0.00130651
0.00130627
0.00130627
0.00127082
0.00128409
0.00128409
0.00127081
0.00128409
0.00127081
0.00127082
0.00128409
0.00128409
0.00127081
0.00128209
0.00128209
0.00128208
0.00125544
0.00125545
0.00125545
0.00125546
0.00127089
0.00128406
0.00128201
0.00127309
0.00128405
0.00127085
0.00127313
0.00128409
0.00127081
0.00127089
0.001282
0.00128406
0.00127309
0.00128405
0.00127313
0.00127084
0.00128409
0.00128409
0.00127102
0.00127081
0.00127081
0.00123532
0.0012486
0.00124859
0.00123533
0.00124861
0.00123533
0.00123533
0.0012486
0.0012486
0.00123533
0.00124658
0.00124658
0.00124658
0.00122
0.00122
0.00122
0.00122
0.0012354
0.00124857
0.0012465
0.00123758
0.00124856
0.00123536
0.00123763
0.00124861
0.00123534
0.0012354
0.0012465
0.00124857
0.00123759
0.00124856
0.00123763
0.00123536
0.00124861
0.00124861
0.00123553
0.00123533
0.00123533
0.00119994
0.00121317
0.00121317
0.00119992
0.00121317
0.00119992
0.00119993
0.00121317
0.00121317
0.00119992
0.00121116
0.00121115
0.00121115
0.00118462
0.00118461
0.0011846
0.0011846
0.0012
0.00121314
0.00121107
0.0012022
0.00121313
0.00119996
0.00120223
0.00121317
0.00119992
0.0012
0.00121107
0.00121314
0.00120219
0.00121312
0.00120222
0.00119995
0.00121316
0.00121316
0.00120014
0.00119991
0.00119991
0.0011645
0.00117777
0.00117777
0.0011645
0.00117777
0.00116451
0.0011645
0.00117777
0.00117777
0.0011645
0.00117575
0.00117574
0.00117574
0.00114914
0.00114915
0.00114916
0.00114916
0.00116457
0.00117773
0.00117567
0.00116676
0.00117773
0.00116453
0.0011668
0.00117776
0.00116451
0.00116457
0.00117567
0.00117773
0.00116676
0.00117772
0.00116681
0.00116453
0.00117776
0.00117776
0.0011647
0.0011645
0.0011645
0.00112909
0.00114234
0.00114233
0.00112909
0.00114235
0.00112909
0.0011291
0.00114235
0.00114233
0.00112909
0.0011403
0.0011403
0.00114031
0.00111377
0.00111376
0.00111376
0.00111375
0.00112916
0.00114231
0.00114023
0.00113134
0.00114229
0.00112912
0.00113138
0.00114235
0.0011291
0.00112916
0.00114023
0.00114231
0.00113134
0.00114229
0.00113138
0.00112912
0.00114235
0.00114235
0.00112929
0.00112909
0.00112909
0.00109371
0.00110695
0.00110696
0.00109371
0.00110695
0.00109371
0.00109371
0.00110695
0.00110695
0.00109371
0.00110491
0.00110491
0.00110491
0.00107836
0.00107836
0.00107836
0.00107836
0.00109377
0.00110692
0.00110484
0.00109596
0.00110691
0.00109373
0.00109599
0.00110695
0.00109371
0.00109377
0.00110484
0.00110692
0.00109595
0.0011069
0.00109599
0.00109373
0.00110695
0.00110695
0.0010939
0.0010937
0.0010937
0.00105831
0.00107157
0.00107156
0.00105832
0.00107157
0.00105832
0.00105831
0.00107157
0.00107156
0.00105832
0.00106951
0.00106951
0.00106951
0.00104294
0.00104295
0.00104295
0.00104295
0.00105838
0.00107153
0.00106944
0.00106055
0.00107151
0.00105834
0.00106059
0.00107157
0.00105832
0.00105838
0.00106944
0.00107153
0.00106055
0.00107151
0.00106059
0.00105834
0.00107156
0.00107156
0.0010585
0.00105831
0.00105831
0.00102292
0.00103616
0.00103616
0.00102292
0.00103616
0.00102292
0.00102292
0.00103616
0.00103616
0.00102292
0.0010341
0.0010341
0.0010341
0.00100757
0.00100757
0.00100757
0.00100757
0.00102298
0.00103612
0.00103403
0.00102515
0.00103611
0.00102294
0.00102519
0.00103616
0.00102292
0.00102298
0.00103403
0.00103612
0.00102515
0.00103611
0.00102519
0.00102294
0.00103616
0.00103616
0.00102311
0.00102291
0.00102291
0.000987543
0.00100079
0.00100078
0.000987539
0.00100078
0.000987538
0.000987543
0.00100079
0.00100078
0.000987539
0.000998722
0.000998721
0.00099872
0.000972157
0.000972148
0.000972149
0.000972146
0.000987603
0.00100075
0.000998657
0.000989774
0.00100074
0.000987566
0.000989806
0.00100078
0.000987539
0.000987604
0.000998656
0.00100075
0.000989775
0.00100074
0.000989806
0.000987567
0.00100078
0.00100078
0.000987722
0.000987532
0.000987532
0.000952113
0.000965378
0.00096537
0.000952119
0.00096538
0.000952126
0.000952113
0.000965378
0.00096537
0.000952119
0.000963284
0.000963285
0.000963283
0.00093672
0.00093673
0.000936727
0.000936732
0.000952159
0.00096533
0.000963221
0.000954326
0.000965309
0.000952132
0.000954362
0.000965381
0.000952125
0.000952159
0.000963221
0.000965331
0.000954324
0.00096531
0.000954362
0.000952131
0.000965373
0.000965373
0.000952279
0.000952106
0.000952106
0.00091673
0.000929973
0.000929962
0.000916728
0.000929969
0.000916724
0.00091673
0.000929973
0.00092996
0.000916728
0.000927891
0.000927889
0.000927893
0.000901356
0.000901352
0.000901356
0.000901354
0.0009168
0.000929937
0.000927832
0.000918967
0.000929916
0.000916762
0.000918994
0.000929971
0.000916723
0.000916799
0.00092783
0.000929934
0.000918967
0.000929913
0.000918993
0.000916762
0.000929965
0.000929964
0.000916931
0.000916721
0.000916721
0.000881318
0.000894579
0.000894577
0.00088132
0.000894581
0.000881324
0.000881319
0.00089458
0.000894579
0.00088132
0.000892491
0.000892496
0.000892491
0.000865896
0.000865893
0.000865891
0.00086589
0.000881363
0.00089454
0.000892433
0.000883532
0.000894525
0.000881334
0.000883566
0.000894581
0.000881325
0.000881366
0.000892437
0.000894544
0.000883536
0.00089453
0.000883569
0.000881336
0.000894578
0.000894579
0.000881479
0.000881308
0.000881308
0.000845871
0.000859143
0.000859131
0.000845875
0.000859146
0.000845876
0.00084587
0.000859143
0.000859131
0.000845875
0.00085703
0.000857027
0.000857029
0.000830446
0.000830453
0.000830451
0.000830456
0.000845927
0.000859098
0.000856973
0.000848088
0.00085907
0.000845898
0.000848116
0.000859146
0.000845877
0.000845923
0.00085697
0.000859096
0.000848084
0.000859068
0.000848112
0.000845896
0.000859135
0.000859135
0.000846051
0.000845865
0.000845864
0.000810427
0.0008237
0.000823692
0.000810429
0.0008237
0.000810431
0.000810427
0.0008237
0.000823692
0.000810429
0.000821589
0.000821589
0.000821591
0.000794976
0.00079497
0.000794971
0.000794964
0.000810477
0.000823662
0.000821538
0.000812643
0.000823643
0.000810449
0.000812669
0.000823698
0.000810431
0.000810479
0.000821538
0.000823663
0.000812644
0.000823644
0.00081267
0.000810449
0.000823699
0.000823699
0.000810594
0.00081042
0.00081042
0.000774927
0.000788224
0.000788216
0.00077493
0.000788226
0.000774935
0.000774927
0.000788223
0.000788215
0.00077493
0.000786089
0.00078609
0.000786084
0.000759459
0.000759463
0.000759463
0.000759469
0.000774971
0.000788178
0.000786035
0.000777126
0.00078815
0.000774945
0.000777156
0.000788226
0.000774935
0.000774969
0.000786036
0.000788177
0.000777126
0.000788149
0.000777156
0.000774945
0.000788218
0.000788218
0.000775077
0.000774918
0.000774918
0.000752729
0.000752713
0.000752731
0.000739452
0.000752729
0.000752714
0.000750601
0.000750601
0.00075061
0.000752683
0.000750554
0.000752658
0.00075273
0.000739456
0.000739511
0.000750554
0.000752682
0.000741676
0.000752659
0.000741698
0.000739481
0.000752716
0.000752717
0.000739653
0.000739444
0.000739444
0.00167679
0.00166332
0.00167679
0.00166332
0.0016768
0.0016768
0.00166361
0.00166332
0.00166332
0.00164533
0.00165879
0.00164533
0.00165879
0.00165878
0.00164533
0.00164533
0.0016588
0.0016588
0.00166333
0.00167679
0.0016768
0.00166331
0.00166344
0.00167678
0.00167478
0.00166571
0.00167679
0.00166337
0.00166577
0.00166344
0.00167678
0.00167478
0.00166571
0.00167679
0.00166337
0.00166577
0.0016588
0.00164532
0.00165879
0.00164534
0.0016588
0.00164532
0.00165879
0.00164534
0.00165879
0.00165671
0.00164538
0.00164778
0.00165878
0.00165677
0.00164545
0.00165879
0.00165671
0.00164538
0.00164778
0.00165878
0.00165677
0.00164545
0.0016768
0.0016768
0.00166361
0.00166332
0.00166332
0.00167679
0.00166332
0.00164533
0.00165879
0.00165878
0.00164533
0.00164533
0.0016588
0.0016588
0.00164533
0.00165879
0.00166344
0.00167678
0.00167478
0.00166571
0.00167679
0.00166337
0.00166577
0.00166333
0.00166331
0.00166344
0.00166571
0.00166577
0.00166337
0.0016588
0.00164533
0.00165879
0.00164534
0.00165879
0.00165671
0.00164538
0.00164778
0.00165878
0.00165677
0.00164545
0.0016588
0.00164532
0.00165879
0.00164534
0.00165879
0.00165671
0.00164778
0.00164538
0.00165677
0.00165878
0.00164545
0.00166333
0.00167679
0.0016768
0.00166331
0.00166344
0.00167477
0.00167678
0.00166571
0.00167679
0.00166577
0.00166337
0.00166333
0.00167679
0.0016768
0.00166331
0.00165879
0.00165671
0.00164538
0.00164778
0.00165878
0.00165677
0.00164545
0.0016588
0.00164532
0.00165879
0.00164534
0.00165879
0.00165671
0.00164778
0.00164538
0.00165677
0.00165878
0.00164545
0.0016588
0.00164532
0.00165879
0.00164534
0.00166361
0.00166332
0.00166332
0.00166332
0.00164533
0.00165879
0.00165879
0.00164533
0.00164533
0.0016588
0.0016588
0.00164533
0.00165879
0.00166344
0.00167477
0.00167678
0.00166571
0.00167679
0.00166577
0.00166337
0.00166333
0.0016768
0.00166331
0.00166333
0.00167679
0.0016768
0.00166331
0.00165879
0.00165671
0.00164778
0.00164538
0.00165677
0.00165878
0.00164545
0.00165879
0.00165672
0.00164778
0.00164539
0.00165677
0.00165878
0.00164545
0.0016588
0.00164532
0.00165879
0.00164534
0.0016588
0.00164533
0.00165879
0.00164534
0.00167679
0.00166332
0.00167679
0.00166332
0.00165879
0.00164533
0.00164533
0.0016588
0.0016588
0.00164533
0.00165879
0.00164533
0.00165879
0.0016408
0.00162735
0.0016408
0.00162736
0.00164082
0.00164082
0.00162764
0.00162736
0.00162736
0.0016094
0.00162284
0.0016094
0.00162284
0.00162281
0.00160941
0.0016094
0.00162285
0.00162285
0.00162737
0.0016408
0.00164081
0.00162735
0.00162748
0.00164079
0.00163879
0.00162974
0.0016408
0.00162741
0.0016298
0.00162748
0.00164079
0.00163879
0.00162974
0.0016408
0.00162741
0.0016298
0.00162285
0.0016094
0.00162284
0.00160941
0.00162285
0.0016094
0.00162284
0.00160941
0.00162283
0.00162075
0.00160945
0.00161184
0.00162282
0.00162082
0.00160952
0.00162283
0.00162075
0.00160945
0.00161184
0.00162282
0.00162082
0.00160952
0.00164082
0.00164082
0.00162764
0.00162736
0.00162736
0.00164081
0.00162736
0.0016094
0.00162284
0.00162282
0.00160941
0.00160941
0.00162285
0.00162285
0.0016094
0.00162284
0.00162748
0.00164079
0.00163879
0.00162974
0.0016408
0.00162741
0.0016298
0.00162737
0.0016408
0.00164081
0.00162735
0.00162748
0.00163879
0.00164079
0.00162974
0.0016408
0.0016298
0.00162741
0.00162285
0.0016094
0.00162284
0.00160941
0.00162283
0.00162075
0.00160945
0.00161184
0.00162282
0.00162082
0.00160952
0.00162285
0.0016094
0.00162284
0.00160941
0.00162283
0.00162075
0.00161184
0.00160945
0.00162082
0.00162282
0.00160952
0.00162737
0.0016408
0.00164081
0.00162735
0.00162748
0.00163879
0.00164079
0.00162974
0.0016408
0.0016298
0.00162741
0.00162737
0.0016408
0.00164081
0.00162735
0.00162283
0.00162076
0.00160945
0.00161184
0.00162282
0.00162082
0.00160952
0.00162285
0.0016094
0.00162284
0.00160941
0.00162283
0.00162076
0.00161184
0.00160945
0.00162082
0.00162282
0.00160952
0.00162285
0.0016094
0.00162284
0.00160941
0.00164082
0.00164082
0.00162764
0.00162736
0.00162736
0.0016408
0.00162736
0.0016094
0.00162284
0.00162282
0.00160941
0.00160941
0.00162285
0.00162285
0.0016094
0.00162284
0.00162748
0.00163879
0.0016408
0.00162974
0.00164081
0.0016298
0.00162741
0.00162737
0.0016408
0.00164081
0.00162735
0.00162737
0.0016408
0.00164081
0.00162735
0.00162283
0.00162075
0.00161184
0.00160945
0.00162082
0.00162282
0.00160952
0.00162283
0.00162075
0.00161184
0.00160945
0.00162082
0.00162282
0.00160952
0.00162285
0.0016094
0.00162284
0.00160941
0.00162285
0.0016094
0.00162284
0.00160941
0.0016408
0.00162736
0.0016408
0.00162736
0.00162282
0.00160941
0.00160941
0.00162285
0.00162285
0.0016094
0.00162284
0.0016094
0.00162284
0.00160489
0.00159147
0.00160489
0.00159147
0.0016049
0.0016049
0.00159175
0.00159147
0.00159147
0.00157355
0.00158696
0.00157355
0.00158696
0.00158694
0.00157355
0.00157355
0.00158697
0.00158697
0.00159148
0.00160489
0.0016049
0.00159147
0.00159158
0.00160487
0.00160287
0.00159384
0.00160488
0.00159152
0.0015939
0.00159158
0.00160487
0.00160287
0.00159384
0.00160488
0.00159152
0.0015939
0.00158697
0.00157355
0.00158696
0.00157356
0.00158697
0.00157355
0.00158696
0.00157356
0.00158695
0.00158488
0.0015736
0.00157597
0.00158695
0.00158493
0.00157366
0.00158695
0.00158487
0.0015736
0.00157597
0.00158694
0.00158493
0.00157366
0.0016049
0.0016049
0.00159175
0.00159147
0.00159147
0.00160489
0.00159147
0.00157355
0.00158696
0.00158693
0.00157355
0.00157355
0.00158697
0.00158697
0.00157355
0.00158696
0.00159158
0.00160487
0.00160287
0.00159384
0.00160488
0.00159152
0.0015939
0.00159148
0.00160489
0.0016049
0.00159147
0.00159158
0.00160287
0.00160487
0.00159384
0.00160488
0.0015939
0.00159152
0.00158697
0.00157355
0.00158696
0.00157356
0.00158695
0.00158488
0.0015736
0.00157597
0.00158695
0.00158493
0.00157366
0.00158697
0.00157355
0.00158696
0.00157356
0.00158695
0.00158488
0.00157597
0.0015736
0.00158493
0.00158694
0.00157366
0.00159148
0.00160489
0.0016049
0.00159147
0.00159158
0.00160286
0.00160487
0.00159383
0.00160488
0.0015939
0.00159152
0.00159148
0.00160489
0.0016049
0.00159146
0.00158695
0.00158487
0.0015736
0.00157597
0.00158694
0.00158493
0.00157366
0.00158697
0.00157355
0.00158696
0.00157356
0.00158695
0.00158487
0.00157597
0.0015736
0.00158493
0.00158694
0.00157366
0.00158697
0.00157355
0.00158696
0.00157356
0.0016049
0.0016049
0.00159175
0.00159147
0.00159147
0.00160489
0.00159147
0.00157355
0.00158696
0.00158693
0.00157355
0.00157355
0.00158697
0.00158697
0.00157355
0.00158696
0.00159158
0.00160286
0.00160487
0.00159383
0.00160488
0.0015939
0.00159152
0.00159148
0.00160489
0.0016049
0.00159147
0.00159148
0.00160489
0.0016049
0.00159146
0.00158695
0.00158487
0.00157597
0.0015736
0.00158493
0.00158694
0.00157366
0.00158695
0.00158487
0.00157597
0.0015736
0.00158493
0.00158694
0.00157366
0.00158697
0.00157355
0.00158696
0.00157356
0.00158696
0.00157355
0.00158696
0.00157356
0.00160489
0.00159147
0.00160489
0.00159147
0.00158693
0.00157355
0.00157355
0.00158697
0.00158697
0.00157355
0.00158696
0.00157355
0.00158696
0.00156904
0.00155564
0.00156904
0.00155564
0.00156905
0.00156905
0.00155591
0.00155565
0.00155565
0.00153776
0.00155114
0.00153776
0.00155114
0.0015511
0.00153775
0.00153775
0.00155115
0.00155115
0.00155565
0.00156904
0.00156905
0.00155564
0.00155575
0.00156903
0.00156702
0.001558
0.00156904
0.00155569
0.00155806
0.00155575
0.00156903
0.00156701
0.001558
0.00156904
0.00155569
0.00155806
0.00155115
0.00153775
0.00155114
0.00153776
0.00155115
0.00153775
0.00155114
0.00153776
0.00155113
0.00154905
0.0015378
0.00154016
0.00155112
0.00154911
0.00153786
0.00155113
0.00154905
0.0015378
0.00154016
0.00155112
0.00154911
0.00153786
0.00156905
0.00156905
0.00155591
0.00155565
0.00155565
0.00156904
0.00155564
0.00153776
0.00155114
0.0015511
0.00153776
0.00153776
0.00155115
0.00155115
0.00153776
0.00155114
0.00155575
0.00156903
0.00156702
0.001558
0.00156904
0.00155569
0.00155806
0.00155566
0.00156904
0.00156905
0.00155564
0.00155576
0.00156702
0.00156903
0.001558
0.00156904
0.00155806
0.00155569
0.00155115
0.00153775
0.00155114
0.00153776
0.00155113
0.00154905
0.0015378
0.00154016
0.00155112
0.00154911
0.00153786
0.00155115
0.00153775
0.00155114
0.00153776
0.00155113
0.00154905
0.00154016
0.0015378
0.00154911
0.00155112
0.00153786
0.00155566
0.00156904
0.00156905
0.00155564
0.00155576
0.00156702
0.00156903
0.00155801
0.00156903
0.00155806
0.00155569
0.00155566
0.00156904
0.00156905
0.00155564
0.00155113
0.00154905
0.0015378
0.00154016
0.00155112
0.00154911
0.00153786
0.00155115
0.00153775
0.00155114
0.00153776
0.00155113
0.00154905
0.00154016
0.0015378
0.00154911
0.00155113
0.00153786
0.00155115
0.00153775
0.00155114
0.00153776
0.00156905
0.00156905
0.00155591
0.00155565
0.00155565
0.00156904
0.00155564
0.00153776
0.00155114
0.0015511
0.00153775
0.00153776
0.00155115
0.00155115
0.00153776
0.00155114
0.00155576
0.00156702
0.00156903
0.00155801
0.00156904
0.00155806
0.00155569
0.00155566
0.00156904
0.00156905
0.00155564
0.00155566
0.00156904
0.00156905
0.00155564
0.00155113
0.00154905
0.00154016
0.0015378
0.00154911
0.00155112
0.00153786
0.00155113
0.00154905
0.00154016
0.0015378
0.00154911
0.00155113
0.00153786
0.00155115
0.00153775
0.00155114
0.00153776
0.00155115
0.00153775
0.00155114
0.00153776
0.00156904
0.00155564
0.00156904
0.00155564
0.00155111
0.00153776
0.00153776
0.00155115
0.00155115
0.00153776
0.00155114
0.00153775
0.00155114
0.00153326
0.00151988
0.00153326
0.00151988
0.00153326
0.00153326
0.00152014
0.00151988
0.00151988
0.00150201
0.00151538
0.00150201
0.00151538
0.00151533
0.00150201
0.00150201
0.00151539
0.00151539
0.00151989
0.00153326
0.00153326
0.00151988
0.00151998
0.00153324
0.00153122
0.00152222
0.00153324
0.00151992
0.00152228
0.00151998
0.00153324
0.00153122
0.00152222
0.00153324
0.00151992
0.00152228
0.00151539
0.00150201
0.00151538
0.00150202
0.00151539
0.00150201
0.00151538
0.00150202
0.00151537
0.00151329
0.00150206
0.00150441
0.00151536
0.00151334
0.00150212
0.00151537
0.00151329
0.00150206
0.00150441
0.00151536
0.00151334
0.00150212
0.00153326
0.00153326
0.00152014
0.00151988
0.00151988
0.00153326
0.00151988
0.00150201
0.00151538
0.00151533
0.00150202
0.00150202
0.00151539
0.00151539
0.00150201
0.00151538
0.00151998
0.00153324
0.00153122
0.00152222
0.00153324
0.00151992
0.00152228
0.00151989
0.00153326
0.00153326
0.00151987
0.00151998
0.00153122
0.00153324
0.00152222
0.00153324
0.00152228
0.00151992
0.00151539
0.00150201
0.00151538
0.00150202
0.00151537
0.00151329
0.00150206
0.00150441
0.00151536
0.00151334
0.00150212