/*--------------------------------*- C++ -*----------------------------------*\
| =========                 |                                                 |
| \\      /  F ield         | OpenFOAM: The Open Source CFD Toolbox           |
|  \\    /   O peration     | Version:  2312                                  |
|   \\  /    A nd           | Website:  www.openfoam.com                      |
|    \\/     M anipulation  |                                                 |
\*---------------------------------------------------------------------------*/
FoamFile
{
    version     2.0;
    format      ascii;
    arch        "LSB;label=32;scalar=64";
    class       surfaceScalarField;
    location    "875";
    object      phi;
}
// * * * * * * * * * * * * * * * * * * * * * * * * * * * * * * * * * * * * * //

dimensions      [0 3 -1 0 0 0 0];

oriented        oriented;

internalField   nonuniform List<scalar> 
124041
(
-2.18557e-07
-2.18169e-07
1.91868e-07
1.92534e-07
0.00119123
-1.24752e-06
2.18734e-07
6.65391e-08
0.00114026
-2.53472e-07
1.2204e-06
2.29015e-07
8.5431e-07
-2.46714e-07
-9.00266e-07
1.99251e-07
1.27551e-06
1.23847e-06
-2.34313e-07
-2.36962e-07
0.000269439
-1.94633e-07
-1.94705e-07
-0.00119136
1.77986e-07
1.77967e-07
0.00119139
-0.00113983
-1.24193e-06
1.94288e-07
5.50862e-08
0.00113969
-2.48811e-07
1.22193e-06
2.31348e-07
8.56774e-07
-2.41332e-07
-8.94181e-07
2.0221e-07
-0.00113969
-1.23943e-06
1.95096e-07
6.17742e-08
0.00113955
-2.4625e-07
1.21896e-06
2.28492e-07
8.56584e-07
-2.41485e-07
-8.94218e-07
2.02e-07
-0.000271338
1.27149e-06
1.23433e-06
-2.31437e-07
-2.34185e-07
0.000269297
-1.69881e-07
-1.69542e-07
-0.00119146
1.62384e-07
1.62826e-07
0.00119147
-0.00113927
-1.23712e-06
1.70036e-07
4.6948e-08
0.00113914
-2.45358e-07
1.22261e-06
2.32194e-07
8.59786e-07
-2.35649e-07
-8.87904e-07
2.05686e-07
-0.00113913
-1.2341e-06
1.6944e-07
5.16931e-08
0.001139
-2.42349e-07
1.22001e-06
2.29527e-07
8.59798e-07
-2.35582e-07
-8.87846e-07
2.05814e-07
-0.000271203
1.2657e-06
1.22869e-06
-2.27365e-07
-2.30004e-07
0.000269166
-1.47969e-07
-1.47775e-07
-0.00119149
1.48719e-07
1.489e-07
0.00119149
-0.00113873
-1.23235e-06
1.4672e-07
3.7945e-08
0.0011386
-2.41301e-07
1.22381e-06
2.3421e-07
8.61977e-07
-2.3089e-07
-8.82507e-07
2.08288e-07
-0.00113859
-1.22981e-06
1.47136e-07
4.43306e-08
0.00113846
-2.38751e-07
1.22084e-06
2.31286e-07
8.61904e-07
-2.30899e-07
-8.82449e-07
2.08234e-07
-0.000271077
1.26156e-06
1.22449e-06
-2.24349e-07
-2.27035e-07
0.000269043
-1.23933e-07
-1.23686e-07
-0.00119146
1.32214e-07
1.32411e-07
0.00119144
-0.00113821
-1.22814e-06
1.2468e-07
3.01812e-08
0.00113809
-2.3842e-07
1.22437e-06
2.34853e-07
8.64463e-07
-2.25995e-07
-8.77082e-07
2.11148e-07
-0.00113808
-1.2252e-06
1.24437e-07
3.52375e-08
0.00113795
-2.35414e-07
1.22177e-06
2.32314e-07
8.64383e-07
-2.26029e-07
-8.77084e-07
2.11139e-07
-0.000270959
1.25691e-06
1.21989e-06
-2.21111e-07
-2.23776e-07
0.000268927
-1.02973e-07
-1.02599e-07
-0.00119137
1.17805e-07
1.18083e-07
0.00119134
-0.00113772
-1.22377e-06
1.02204e-07
2.24323e-08
0.0011376
-2.34632e-07
1.22543e-06
2.36566e-07
8.66633e-07
-2.21611e-07
-8.72171e-07
2.13735e-07
-0.00113758
-1.22116e-06
1.02324e-07
2.83383e-08
0.00113746
-2.32064e-07
1.22253e-06
2.33661e-07
8.66583e-07
-2.21575e-07
-8.721e-07
2.13726e-07
-0.000270852
1.25277e-06
1.21577e-06
-2.18221e-07
-2.20864e-07
0.000268822
-8.28029e-08
-8.24868e-08
-0.00119123
1.03735e-07
1.03875e-07
0.00119119
-0.00113725
-1.22043e-06
8.24201e-08
1.6348e-08
0.00113714
-2.32418e-07
1.22569e-06
2.37064e-07
8.68799e-07
-2.17262e-07
-8.673e-07
2.16159e-07
-0.00113711
-1.21764e-06
8.23912e-08
2.19058e-08
0.00113699
-2.29613e-07
1.22292e-06
2.34284e-07
8.68776e-07
-2.17203e-07
-8.67233e-07
2.16206e-07
-0.000270751
1.24928e-06
1.21228e-06
-2.15792e-07
-2.18455e-07
0.000268724
-6.34404e-08
-6.31799e-08
-0.00119105
8.93605e-08
8.93801e-08
0.001191
-0.0011368
-1.21667e-06
6.27367e-08
9.35648e-09
0.00113669
-2.29395e-07
1.22647e-06
2.38181e-07
8.70626e-07
-2.13536e-07
-8.63084e-07
2.18263e-07
-0.00113666
-1.21396e-06
6.28856e-08
1.50276e-08
0.00113655
-2.26627e-07
1.22368e-06
2.35475e-07
8.70517e-07
-2.13574e-07
-8.63077e-07
2.18188e-07
-0.000270658
1.2456e-06
1.2086e-06
-2.13288e-07
-2.15958e-07
0.000268633
-4.39648e-08
-4.3499e-08
-0.00119083
7.43488e-08
7.45814e-08
0.00119076
-0.00113637
-1.21353e-06
4.43386e-08
3.86765e-09
0.00113627
-2.27138e-07
1.22681e-06
2.38724e-07
8.72418e-07
-2.0981e-07
-8.5895e-07
2.20341e-07
-0.00113623
-1.21078e-06
4.42331e-08
9.17177e-09
0.00113613
-2.24386e-07
1.22405e-06
2.35996e-07
8.72357e-07
-2.09799e-07
-8.58903e-07
2.20325e-07
-0.000270574
1.24247e-06
1.20553e-06
-2.11268e-07
-2.13893e-07
0.000268551
-2.82848e-08
-2.78165e-08
-0.00119057
6.22999e-08
6.2525e-08
0.0011905
-0.00113597
-1.21048e-06
2.60645e-08
-1.39725e-09
0.00113588
-2.24665e-07
1.22736e-06
2.39745e-07
8.74052e-07
-2.06477e-07
-8.55139e-07
2.22158e-07
-0.00113583
-1.20771e-06
2.59155e-08
4.03828e-09
0.00113574
-2.21864e-07
1.22457e-06
2.36967e-07
8.74057e-07
-2.06389e-07
-8.55051e-07
2.22244e-07
-0.000270497
1.2391e-06
1.20217e-06
-2.08931e-07
-2.1156e-07
0.000268476
-6.51375e-09
-6.37001e-09
-0.00119028
4.50571e-08
4.48528e-08
0.0011902
-0.00113559
-1.20725e-06
9.37328e-09
-8.26802e-09
0.0011355
-2.22223e-07
1.22801e-06
2.40453e-07
8.76044e-07
-2.02845e-07
-8.51224e-07
2.24464e-07
-0.00113545
-1.20477e-06
9.89056e-09
-1.52842e-09
0.00113536
-2.1977e-07
1.225e-06
2.37447e-07
8.75895e-07
-2.02902e-07
-8.51231e-07
2.24332e-07
-0.000270427
1.23658e-06
1.19956e-06
-2.07105e-07
-2.09793e-07
0.000268408
-8.58081e-10
-3.55533e-10
-0.00118997
4.01455e-08
4.05911e-08
0.00118989
-0.00113523
-1.2062e-06
-4.62395e-09
-7.86113e-09
0.00113515
-2.22098e-07
1.22683e-06
2.39386e-07
8.77158e-07
-2.0003e-07
-8.47992e-07
2.25633e-07
-0.00113509
-1.20308e-06
-5.48713e-09
-3.61427e-09
0.00113501
-2.18856e-07
1.22447e-06
2.37134e-07
8.77119e-07
-2.00051e-07
-8.47993e-07
2.25677e-07
-0.000270361
1.2345e-06
1.19764e-06
-2.06062e-07
-2.08657e-07
0.000268343
2.48751e-08
2.51445e-08
-0.00118964
1.84498e-08
1.82847e-08
0.00118955
-0.0011349
-1.20139e-06
-2.14164e-08
-2.01602e-08
0.00113483
-2.17062e-07
1.22982e-06
2.43251e-07
8.77604e-07
-1.98723e-07
-8.46091e-07
2.26101e-07
-0.00113476
-1.1992e-06
-2.05495e-08
-1.23414e-08
0.00113469
-2.15076e-07
1.2264e-06
2.39657e-07
8.77693e-07
-1.98481e-07
-8.45853e-07
2.26232e-07
-0.000270306
1.2308e-06
1.19381e-06
-2.03544e-07
-2.06221e-07
0.000268292
3.55065e-08
3.55502e-08
-0.00118928
9.6444e-09
9.33327e-09
0.00118919
-0.00113459
-1.20107e-06
-3.52692e-08
-1.78048e-08
0.00113452
-2.1879e-07
1.22755e-06
2.39849e-07
8.80788e-07
-1.93635e-07
-8.41125e-07
2.29784e-07
-0.00113445
-1.19796e-06
-3.51334e-08
-1.31576e-08
0.00113438
-2.1534e-07
1.22526e-06
2.37872e-07
8.80325e-07
-1.94132e-07
-8.41499e-07
2.29316e-07
-0.000270258
1.22989e-06
1.19292e-06
-2.02829e-07
-2.05544e-07
0.000268244
3.95501e-08
4.09617e-08
-0.00118892
5.55955e-09
6.93783e-09
0.00118883
-0.00113429
-1.19889e-06
-4.59387e-08
-2.09093e-08
0.00113423
-2.15728e-07
1.22862e-06
2.42479e-07
8.8011e-07
-1.93352e-07
-8.40252e-07
2.28861e-07
-0.00113416
-1.19594e-06
-4.74855e-08
-1.63653e-08
0.00113409
-2.1291e-07
1.22589e-06
2.39545e-07
8.80512e-07
-1.92802e-07
-8.39792e-07
2.29444e-07
-0.00027021
1.22668e-06
1.19002e-06
-2.00891e-07
-2.03326e-07
0.000268198
6.59243e-08
6.50517e-08
-0.00118854
-1.65148e-08
-1.79258e-08
0.00118845
-0.00113402
-1.19538e-06
-5.91337e-08
-3.16297e-08
0.00113397
-2.13666e-07
1.22977e-06
2.42595e-07
8.81798e-07
-1.9059e-07
-8.3728e-07
2.30838e-07
-0.00113389
-1.19324e-06
-5.70536e-08
-2.32729e-08
0.00113382
-2.11452e-07
1.22654e-06
2.3957e-07
8.81431e-07
-1.90858e-07
-8.37453e-07
2.30431e-07
-0.000270172
1.22578e-06
1.18853e-06
-2.00127e-07
-2.0304e-07
0.000268161
6.46093e-08
6.54426e-08
-0.00118816
-1.7214e-08
-1.67392e-08
0.00118806
-0.00113377
-1.19532e-06
-6.74936e-08
-2.8358e-08
0.00113372
-2.13456e-07
1.22858e-06
2.42359e-07
8.82305e-07
-1.88986e-07
-8.35475e-07
2.31388e-07
-0.00113364
-1.1921e-06
-6.85854e-08
-2.46295e-08
0.00113358
-2.10213e-07
1.22621e-06
2.39939e-07
8.82298e-07
-1.88969e-07
-8.35439e-07
2.31467e-07
-0.000270139
1.22308e-06
1.18633e-06
-1.98567e-07
-2.01107e-07
0.000268129
7.56972e-08
7.62564e-08
-0.00118777
-2.61264e-08
-2.57428e-08
0.00118767
-0.00113354
-1.19331e-06
-7.78238e-08
-3.38819e-08
0.00113349
-2.12193e-07
1.22916e-06
2.42711e-07
8.82899e-07
-1.87408e-07
-8.33586e-07
2.31975e-07
-0.0011334
-1.19077e-06
-7.77505e-08
-2.76808e-08
0.00113335
-2.09619e-07
1.22621e-06
2.39826e-07
8.82883e-07
-1.87311e-07
-8.33477e-07
2.32018e-07
-0.000270111
1.22234e-06
1.18548e-06
-1.98215e-07
-2.00834e-07
0.000268102
8.81536e-08
8.80484e-08
-0.00118737
-3.79701e-08
-3.84817e-08
0.00118727
-0.00113333
-1.1907e-06
-8.68938e-08
-4.03771e-08
0.00113328
-2.0949e-07
1.23021e-06
2.44081e-07
8.83725e-07
-1.86009e-07
-8.32008e-07
2.32947e-07
-0.00113319
-1.18803e-06
-8.63811e-08
-3.4258e-08
0.00113314
-2.06821e-07
1.22738e-06
2.41269e-07
8.83599e-07
-1.86076e-07
-8.3203e-07
2.32845e-07
-0.000270088
1.21989e-06
1.18286e-06
-1.96222e-07
-1.98994e-07
0.000268081
9.22005e-08
9.28379e-08
-0.00118697
-4.29467e-08
-4.26889e-08
0.00118687
-0.00113313
-1.19161e-06
-9.03093e-08
-3.68322e-08
0.00113309
-2.11445e-07
1.22828e-06
2.41948e-07
8.83831e-07
-1.84534e-07
-8.30435e-07
2.33091e-07
-0.00113299
-1.18875e-06
-9.07162e-08
-3.16147e-08
0.00113294
-2.08573e-07
1.22558e-06
2.39232e-07
8.83868e-07
-1.8445e-07
-8.30305e-07
2.3318e-07
-0.000270067
1.22019e-06
1.18339e-06
-1.97031e-07
-1.99603e-07
0.000268061
9.72597e-08
9.71778e-08
-0.00118657
-4.67984e-08
-4.71032e-08
0.00118647
-0.00113295
-1.18805e-06
-1.02754e-07
-4.65692e-08
0.00113292
-2.07109e-07
1.2308e-06
2.45305e-07
8.84029e-07
-1.84494e-07
-8.29945e-07
2.33108e-07
-0.00113281
-1.18547e-06
-1.02043e-07
-4.03415e-08
0.00113277
-2.0449e-07
1.22791e-06
2.42479e-07
8.83751e-07
-1.84669e-07
-8.30079e-07
2.32862e-07
-0.000270055
1.21675e-06
1.17974e-06
-1.94508e-07
-1.97275e-07
0.00026805
1.10075e-07
1.11182e-07
-0.00118616
-5.98209e-08
-5.91336e-08
0.00118606
-0.00113279
-1.18877e-06
-1.06184e-07
-4.40456e-08
0.00113276
-2.09618e-07
1.22877e-06
2.42161e-07
8.85743e-07
-1.81285e-07
-8.26916e-07
2.35156e-07
-0.00113265
-1.1857e-06
-1.07349e-07
-3.96183e-08
0.00113261
-2.06545e-07
1.22624e-06
2.39545e-07
8.86026e-07
-1.81028e-07
-8.26612e-07
2.35481e-07
-0.000270047
1.21767e-06
1.18099e-06
-1.95329e-07
-1.97814e-07
0.000268041
1.08211e-07
1.07634e-07
-0.00118577
-5.86095e-08
-5.95195e-08
0.00118567
-0.00113263
-1.18693e-06
-1.09027e-07
-4.8873e-08
0.0011326
-2.06636e-07
1.23003e-06
2.44662e-07
8.8443e-07
-1.8255e-07
-8.27877e-07
2.3361e-07
-0.00113249
-1.18465e-06
-1.07478e-07
-4.13248e-08
0.00113246
-2.04395e-07
1.22684e-06
2.41497e-07
8.84166e-07
-1.82649e-07
-8.27968e-07
2.3338e-07
-0.000270035
1.21603e-06
1.17885e-06
-1.94022e-07
-1.96911e-07
0.000268031
1.1662e-07
1.17096e-07
-0.00118537
-6.60364e-08
-6.60358e-08
0.00118526
-0.0011325
-1.18639e-06
-1.19196e-07
-4.98794e-08
0.00113247
-2.07188e-07
1.22947e-06
2.43363e-07
8.85834e-07
-1.8057e-07
-8.25727e-07
2.35053e-07
-0.00113236
-1.18329e-06
-1.19892e-07
-4.5384e-08
0.00113233
-2.0392e-07
1.22698e-06
2.40946e-07
8.85854e-07
-1.80636e-07
-8.25711e-07
2.35081e-07
-0.000270035
1.21475e-06
1.17797e-06
-1.93519e-07
-1.96116e-07
0.000268031
1.19686e-07
1.20413e-07
-0.00118497
-7.17597e-08
-7.12076e-08
0.00118487
-0.00113237
-1.18597e-06
-1.16752e-07
-5.11784e-08
0.00113235
-2.06801e-07
1.22923e-06
2.43266e-07
8.8497e-07
-1.80916e-07
-8.26199e-07
2.34306e-07
-0.00113224
-1.18328e-06
-1.16939e-07
-4.57583e-08
0.00113221
-2.04009e-07
1.22651e-06
2.40698e-07
8.84827e-07
-1.80912e-07
-8.26169e-07
2.34235e-07
-0.000270034
1.21535e-06
1.17853e-06
-1.94144e-07
-1.96756e-07
0.000268031
1.19724e-07
1.20058e-07
-0.00118458
-7.19133e-08
-7.20576e-08
0.00118449
-0.00113227
-1.18537e-06
-1.2358e-07
-5.25497e-08
0.00113225
-2.0577e-07
1.22949e-06
2.44374e-07
8.84605e-07
-1.81222e-07
-8.26015e-07
2.33573e-07
-0.00113213
-1.18272e-06
-1.2315e-07
-4.65171e-08
0.00113211
-2.03256e-07
1.22657e-06
2.41309e-07
8.84644e-07
-1.8116e-07
-8.25922e-07
2.33632e-07
-0.000270038
1.21317e-06
1.17622e-06
-1.92742e-07
-1.95459e-07
0.000268037
1.31888e-07
1.31576e-07
-0.00118419
-8.10813e-08
-8.16039e-08
-0.00113217
-1.18368e-06
-1.29159e-07
-5.74707e-08
-2.05151e-07
1.22988e-06
2.43393e-07
8.87135e-07
-1.78243e-07
-8.23413e-07
2.3659e-07
-0.00113204
-1.18081e-06
-1.29735e-07
-5.21783e-08
0.00113201
-2.01988e-07
1.22729e-06
2.4101e-07
8.8705e-07
-1.78181e-07
-8.23352e-07
2.36618e-07
-0.000270048
1.21373e-06
1.17687e-06
-1.92741e-07
-1.95362e-07
0.000268045
1.28678e-06
1.24426e-06
-2.3193e-07
-2.39625e-07
0.000269493
-1.26094e-06
-1.21845e-06
0.000271409
-0.000269387
2.24755e-07
2.32519e-07
7.05611e-08
0.0011397
-2.54905e-07
1.26115e-06
2.32571e-07
8.56754e-07
-2.44428e-07
-9.03423e-07
1.96249e-07
-1.28487e-06
2.19202e-07
7.19126e-08
0.00113976
-2.58923e-07
1.2579e-06
2.34509e-07
8.6217e-07
-2.46847e-07
-9.08392e-07
1.99086e-07
0.00113927
2.00935e-07
-0.00113941
6.55048e-08
-1.28397e-06
2.32518e-07
-2.53741e-07
-8.98281e-07
1.98711e-07
-2.39849e-07
8.59029e-07
1.25877e-06
0.00113933
2.00517e-07
-0.00113948
6.43276e-08
-1.28091e-06
2.35973e-07
-2.55739e-07
-9.03613e-07
2.01377e-07
-2.42706e-07
8.64178e-07
-2.35337e-07
-2.37595e-07
0.000269478
-1.22144e-06
0.000271394
-0.000269371
2.27894e-07
2.30184e-07
7.04022e-08
0.00114071
-2.52271e-07
1.21852e-06
2.30037e-07
8.59534e-07
-2.47024e-07
-9.05894e-07
1.99248e-07
0.00114028
2.00917e-07
-0.00114042
6.46055e-08
-1.24136e-06
2.30111e-07
-2.50991e-07
-9.00822e-07
2.01658e-07
-2.4248e-07
8.61733e-07
1.25287e-06
0.00113921
2.01209e-07
-0.00113935
6.58487e-08
-1.27581e-06
2.35583e-07
-2.5617e-07
-9.00902e-07
1.98619e-07
-2.40005e-07
8.61526e-07
2.17483e-07
6.95207e-08
0.00113926
-2.54951e-07
1.25009e-06
2.32232e-07
8.51411e-07
-2.41365e-07
1.93947e-07
-8.97629e-07
2.00442e-07
-0.00113997
6.92752e-08
-1.24344e-06
2.30645e-07
-2.50142e-07
-8.95562e-07
2.01481e-07
8.56229e-07
-2.42614e-07
1.24969e-06
0.00113884
2.01012e-07
-0.00113898
6.61773e-08
-1.27311e-06
2.32431e-07
-2.53819e-07
-8.92535e-07
1.96087e-07
-2.37026e-07
8.53534e-07
-1.2183e-06
0.000271367
-0.000269356
2.27657e-07
2.3247e-07
2.17158e-07
6.93886e-08
0.00114026
-2.52341e-07
1.21291e-06
2.29623e-07
8.56913e-07
-2.46636e-07
1.9961e-07
-9.0277e-07
2.01196e-07
-0.00113983
6.51881e-08
-1.24107e-06
2.27519e-07
-2.4783e-07
-8.95493e-07
2.01413e-07
8.56152e-07
-2.42607e-07
1.21266e-06
0.00113984
2.01058e-07
-0.00113998
6.52778e-08
-1.23597e-06
2.29951e-07
-2.51093e-07
-8.97747e-07
2.01694e-07
-2.42336e-07
8.58958e-07
-0.000269332
2.27171e-07
2.29876e-07
1.28237e-06
1.23974e-06
-2.28872e-07
-2.36658e-07
0.000269353
-1.26286e-06
-1.2203e-06
0.000271275
-0.000269253
2.26789e-07
2.34629e-07
6.2345e-08
0.00113913
-2.51973e-07
1.26163e-06
2.33757e-07
8.59457e-07
-2.38783e-07
-8.9696e-07
1.99218e-07
-1.27945e-06
1.94186e-07
6.15303e-08
0.00113919
-2.54461e-07
1.2592e-06
2.36627e-07
8.64773e-07
-2.41396e-07
-9.02163e-07
2.02128e-07
0.00113871
1.75493e-07
-0.00113885
5.36394e-08
-1.27779e-06
2.34978e-07
-2.48257e-07
-8.92412e-07
2.02081e-07
-2.34505e-07
8.61723e-07
1.25991e-06
0.00113878
1.75761e-07
-0.00113891
5.46193e-08
-1.27559e-06
2.37484e-07
-2.51574e-07
-8.97476e-07
2.04763e-07
-2.37137e-07
8.67029e-07
-2.3128e-07
-2.33668e-07
0.000269337
-1.22262e-06
0.000271259
-0.000269238
2.29335e-07
2.31627e-07
6.13749e-08
0.00114014
-2.492e-07
1.21917e-06
2.31366e-07
8.6214e-07
-2.41435e-07
-8.99525e-07
2.02147e-07
-1.27422e-06
1.94924e-07
6.27475e-08
0.00113906
-2.54644e-07
1.25348e-06
2.36507e-07
8.61981e-07
-2.38856e-07
-8.99595e-07
1.99228e-07
0.00113972
1.75289e-07
-0.00113986
5.33223e-08
-1.23526e-06
2.32478e-07
-2.45577e-07
-8.94935e-07
2.05052e-07
-2.37123e-07
8.64457e-07
1.25472e-06
0.00113865
1.75253e-07
-0.00113878
5.37576e-08
-1.26974e-06
2.37871e-07
-2.51049e-07
-8.9495e-07
2.0205e-07
-2.34533e-07
8.64293e-07
1.95055e-07
6.33775e-08
0.00113869
-2.52043e-07
1.25035e-06
2.33572e-07
8.53903e-07
-2.36027e-07
1.96554e-07
-8.91295e-07
1.75893e-07
-0.00113941
5.93346e-08
-1.23808e-06
2.32172e-07
-2.45931e-07
-8.8946e-07
2.04859e-07
8.59069e-07
-2.37068e-07
1.2517e-06
0.00113828
1.76062e-07
-0.00113841
5.42228e-08
-1.26692e-06
2.34994e-07
-2.48429e-07
-8.86944e-07
1.99092e-07
-2.31991e-07
8.55913e-07
-2.31523e-07
-2.36459e-07
0.000269321
-1.22018e-06
0.000271233
-0.000269222
2.29621e-07
2.34436e-07
1.95192e-07
6.24326e-08
0.00113969
-2.49292e-07
1.21335e-06
2.31109e-07
8.59304e-07
-2.41358e-07
2.02141e-07
-8.96534e-07
1.75421e-07
-0.00113927
5.28806e-08
-1.23497e-06
2.29818e-07
-2.42669e-07
-8.89564e-07
2.04837e-07
8.58916e-07
-2.37154e-07
1.2146e-06
0.00113927
1.7592e-07
-0.00113941
5.39228e-08
-1.22987e-06
2.3242e-07
-2.45773e-07
-8.92143e-07
2.0472e-07
-2.3729e-07
8.61365e-07
-0.000269198
2.29166e-07
2.31948e-07
1.27696e-06
1.23448e-06
-2.24948e-07
-2.32624e-07
0.000269221
-1.26303e-06
-1.22052e-06
0.000271148
-0.000269127
2.27402e-07
2.35225e-07
5.23369e-08
0.00113857
-2.4806e-07
1.26266e-06
2.34639e-07
8.62613e-07
-2.32905e-07
-8.90676e-07
2.03057e-07
-1.27455e-06
1.70116e-07
5.28202e-08
0.00113864
-2.50933e-07
1.25997e-06
2.3758e-07
8.67757e-07
-2.35737e-07
-8.95896e-07
2.05568e-07
0.00113817
1.53872e-07
-0.0011383
4.76417e-08
-1.274e-06
2.35825e-07
-2.45661e-07
-8.86631e-07
2.04636e-07
-2.29501e-07
8.64068e-07
1.26084e-06
0.00113824
1.53363e-07
-0.00113837
4.5892e-08
-1.27097e-06
2.39098e-07
-2.47943e-07
-8.91888e-07
2.07399e-07
-2.32226e-07
8.6929e-07
-2.27757e-07
-2.30096e-07
0.000269206
-1.22334e-06
0.000271133
-0.000269112
2.30373e-07
2.3282e-07
5.21886e-08
0.00113959
-2.45419e-07
1.22008e-06
2.32107e-07
8.65376e-07
-2.35497e-07
-8.93169e-07
2.06052e-07
-1.2688e-06
1.69489e-07
5.20952e-08
0.00113851
-2.50662e-07
1.25462e-06
2.37651e-07
8.65153e-07
-2.32983e-07
-8.93254e-07
2.03005e-07
0.00113918
1.53554e-07
-0.00113932
4.72093e-08
-1.23151e-06
2.33352e-07
-2.42983e-07
-8.89123e-07
2.07617e-07
-2.32092e-07
8.66813e-07
1.25508e-06
0.00113811
1.53441e-07
-0.00113824
4.66304e-08
-1.26572e-06
2.38801e-07
-2.48229e-07
-8.89132e-07
2.0478e-07
-2.29427e-07
8.66724e-07
1.6966e-07
5.14499e-08
0.00113814
-2.47579e-07
1.25195e-06
2.35325e-07
8.56731e-07
-2.30491e-07
2.0002e-07
-8.85298e-07
1.52669e-07
-0.00113887
5.19642e-08
-1.23372e-06
2.33577e-07
-2.42526e-07
-8.8375e-07
2.07604e-07
8.61464e-07
-2.32049e-07
1.25226e-06
0.00113774
1.52298e-07
-0.00113787
4.58726e-08
-1.26248e-06
2.3594e-07
-2.4518e-07
-8.80877e-07
2.0235e-07
-2.26506e-07
8.58732e-07
-2.27596e-07
-2.32481e-07
0.00026919
-1.22034e-06
0.000271106
-0.000269096
2.30226e-07
2.35187e-07
1.69363e-07
5.13459e-08
0.00113914
-2.44962e-07
1.21482e-06
2.32719e-07
8.62213e-07
-2.3576e-07
2.05674e-07
-8.90462e-07
1.52812e-07
-0.00113873
4.71064e-08
-1.23119e-06
2.30552e-07
-2.40067e-07
-8.83636e-07
2.07665e-07
8.61461e-07
-2.31947e-07
1.2152e-06
0.00113874
1.52051e-07
-0.00113887
4.54412e-08
-1.22545e-06
2.33401e-07
-2.4252e-07
-8.86048e-07
2.07984e-07
-2.31778e-07
8.64187e-07
-0.000269073
2.30101e-07
2.32866e-07
1.27256e-06
1.23003e-06
-2.21846e-07
-2.29562e-07
0.000269096
-1.26453e-06
-1.22207e-06
0.000271031
-0.00026901
2.28943e-07
2.36744e-07
4.48342e-08
0.00113804
-2.44246e-07
1.26359e-06
2.36671e-07
8.64464e-07
-2.28518e-07
-8.855e-07
2.05159e-07
-1.26962e-06
1.47362e-07
4.32518e-08
0.00113811
-2.46753e-07
1.26125e-06
2.39679e-07
8.69835e-07
-2.31071e-07
-8.90617e-07
2.08084e-07
0.00113765
1.29471e-07
-0.00113778
3.68951e-08
-1.26872e-06
2.37614e-07
-2.41335e-07
-8.81331e-07
2.07669e-07
-2.24648e-07
8.66555e-07
1.26152e-06
0.00113772
1.29763e-07
-0.00113785
3.81594e-08
-1.26651e-06
2.39944e-07
-2.44667e-07
-8.86353e-07
2.10476e-07
-2.27191e-07
8.71926e-07
-2.2437e-07
-2.26594e-07
0.000269082
-1.22434e-06
0.000271016
-0.000268995
2.31479e-07
2.337e-07
4.42015e-08
0.00113905
-2.4153e-07
1.22111e-06
2.34236e-07
8.67181e-07
-2.31133e-07
-8.8802e-07
2.08116e-07
-1.26436e-06
1.47706e-07
4.41879e-08
0.00113798
-2.46952e-07
1.25552e-06
2.39479e-07
8.67167e-07
-2.28384e-07
-8.87953e-07
2.0535e-07
0.00113866
1.29324e-07
-0.00113879
3.63503e-08
-1.22619e-06
2.35163e-07
-2.38617e-07
-8.83865e-07
2.10622e-07
-2.27277e-07
8.69273e-07
1.25611e-06
0.00113759
1.29817e-07
-0.00113772
3.81075e-08
-1.26093e-06
2.40126e-07
-2.44461e-07
-8.83822e-07
2.07688e-07
-2.24619e-07
8.69169e-07
1.47063e-07
4.46283e-08
0.00113761
-2.4455e-07
1.25229e-06
2.36076e-07
8.5929e-07
-2.25325e-07
2.02985e-07
-8.79544e-07
1.29931e-07
-0.00113835
4.25365e-08
-1.229e-06
2.3472e-07
-2.38969e-07
-8.78358e-07
2.1055e-07
8.63943e-07
-2.27135e-07
1.25311e-06
0.00113722
1.30573e-07
-0.00113735
3.87308e-08
-1.25817e-06
2.3742e-07
-2.4174e-07
-8.75755e-07
2.04727e-07
-2.22047e-07
8.6082e-07
-2.24567e-07
-2.29343e-07
0.000269066
-1.22169e-06
0.000270989
-0.000268979
2.31602e-07
2.36346e-07
1.4695e-07
4.40165e-08
0.00113861
-2.4185e-07
1.21528e-06
2.33574e-07
8.64716e-07
-2.30623e-07
2.08593e-07
-8.84745e-07
1.30005e-07
-0.0011382
3.69199e-08
-1.22615e-06
2.3217e-07
-2.36024e-07
-8.78461e-07
2.1045e-07
8.63758e-07
-2.27247e-07
1.21609e-06
0.00113822
1.30503e-07
-0.00113835
3.82053e-08
-1.22111e-06
2.34897e-07
-2.39043e-07
-8.80964e-07
2.10329e-07
-2.27361e-07
8.6625e-07
-0.000268955
2.31187e-07
2.33933e-07
1.26786e-06
1.22537e-06
-2.18554e-07
-2.26253e-07
0.000268983
-1.265e-06
-1.2225e-06
0.000270923
-0.000268903
2.29671e-07
2.37513e-07
3.52972e-08
0.00113753
-2.40909e-07
1.2645e-06
2.37562e-07
8.67256e-07
-2.23327e-07
-8.79869e-07
2.08442e-07
-1.26567e-06
1.24397e-07
3.68099e-08
0.0011376
-2.44132e-07
1.26154e-06
2.40081e-07
8.725e-07
-2.26017e-07
-8.84999e-07
2.11098e-07
0.00113716
1.08279e-07
-0.00113728
3.04578e-08
-1.26497e-06
2.38702e-07
-2.38483e-07
-8.76232e-07
2.1013e-07
-2.20141e-07
8.68706e-07
1.26261e-06
0.00113723
1.08139e-07
-0.00113735
2.99343e-08
-1.26218e-06
2.41814e-07
-2.40987e-07
-8.81494e-07
2.12791e-07
-2.22921e-07
8.73879e-07
-2.21429e-07
-2.23873e-07
0.000268967
-1.22524e-06
0.000270907
-0.000268887
2.32579e-07
2.34968e-07
3.49482e-08
0.00113854
-2.38226e-07
1.222e-06
2.35077e-07
8.69992e-07
-2.2594e-07
-8.82382e-07
2.1141e-07
-1.26001e-06
1.24148e-07
3.64009e-08
0.00113747
-2.43865e-07
1.25619e-06
2.40274e-07
8.69811e-07
-2.23374e-07
-8.82416e-07
2.08396e-07
0.00113817
1.07865e-07
-0.00113829
3.02009e-08
-1.22253e-06
2.36201e-07
-2.35831e-07
-8.78712e-07
2.13116e-07
-2.22728e-07
8.71468e-07
1.25695e-06
0.0011371
1.08043e-07
-0.00113722
3.02044e-08
-1.25679e-06
2.4158e-07
-2.41138e-07
-8.78793e-07
2.10167e-07
-2.20155e-07
8.71285e-07
1.24746e-07
3.60511e-08
0.00113709
-2.40675e-07
1.25349e-06
2.37941e-07
8.61349e-07
-2.20938e-07
2.05368e-07
-8.74509e-07
1.07827e-07
-0.00113785
3.54252e-08
-1.22485e-06
2.36369e-07
-2.35477e-07
-8.73406e-07
2.12958e-07
8.6603e-07
-2.22805e-07
1.25416e-06
0.00113673
1.07507e-07
-0.00113685
2.93997e-08
-1.2536e-06
2.38791e-07
-2.38152e-07
-8.70603e-07
2.07598e-07
-2.1734e-07
8.63211e-07
-2.2134e-07
-2.26321e-07
0.000268952
-1.22234e-06
0.000270881
-0.000268872
2.32482e-07
2.37385e-07
1.24551e-07
3.57527e-08
0.00113809
-2.38014e-07
1.21644e-06
2.35382e-07
8.66804e-07
-2.2623e-07
2.1099e-07
-8.79693e-07
1.07759e-07
-0.0011377
3.01422e-08
-1.22218e-06
2.33415e-07
-2.32881e-07
-8.73347e-07
2.13012e-07
8.65989e-07
-2.22721e-07
1.21711e-06
0.00113772
1.07155e-07
-0.00113785
2.91544e-08
-1.21662e-06
2.36224e-07
-2.35517e-07
-8.75759e-07
2.13236e-07
-2.22606e-07
8.68681e-07
-0.000268848
2.32292e-07
2.35081e-07
1.26386e-06
1.22141e-06
-2.15732e-07
-2.23403e-07
0.000268877
-1.26537e-06
-1.22293e-06
0.000270822
-0.000268802
2.30327e-07
2.38132e-07
2.86417e-08
0.00113704
-2.37522e-07
1.26526e-06
2.39072e-07
8.69252e-07
-2.1906e-07
-8.75049e-07
2.10798e-07
-1.26104e-06
1.0271e-07
2.7774e-08
0.00113711
-2.40095e-07
1.26284e-06
2.42042e-07
8.74485e-07
-2.21762e-07
-8.80261e-07
2.13539e-07
0.00113669
8.77687e-08
-0.0011368
2.4196e-08
-1.26128e-06
2.39164e-07
-2.35942e-07
-8.71235e-07
2.12857e-07
-2.15599e-07
8.71081e-07
1.26278e-06
0.00113675
8.7542e-08
-0.00113687
2.36939e-08
-1.25868e-06
2.42027e-07
-2.38767e-07
-8.76377e-07
2.15585e-07
-2.18261e-07
8.76345e-07
-2.18298e-07
-2.20548e-07
0.000268861
-1.22549e-06
0.000270807
-0.000268787
2.33064e-07
2.35395e-07
2.82888e-08
0.00113805
-2.34854e-07
1.22278e-06
2.36589e-07
8.72006e-07
-2.21656e-07
-8.77536e-07
2.13772e-07
-1.25571e-06
1.02797e-07
2.8241e-08
0.00113698
-2.40279e-07
1.25717e-06
2.41855e-07
8.71849e-07
-2.19047e-07
-8.77588e-07
2.10849e-07
0.0011377
8.74538e-08
-0.00113781
2.37863e-08
-1.21881e-06
2.36697e-07
-2.33255e-07
-8.73729e-07
2.15817e-07
-2.18213e-07
8.73831e-07
1.25732e-06
0.00113662
8.75056e-08
-0.00113674
2.3739e-08
-1.25313e-06
2.42096e-07
-2.38609e-07
-8.73762e-07
2.12903e-07
-2.15591e-07
8.73681e-07
1.02272e-07
2.81065e-08
0.00113661
-2.3764e-07
1.25414e-06
2.38774e-07
8.63858e-07
-2.16127e-07
2.08336e-07
-8.69279e-07
8.71886e-08
-0.00113737
2.89886e-08
-1.22135e-06
2.36649e-07
-2.33225e-07
-8.6832e-07
2.15725e-07
8.68445e-07
-2.18161e-07
1.25432e-06
0.00113626
8.76888e-08
-0.00113637
2.42571e-08
-1.2503e-06
2.3933e-07
-2.35842e-07
-8.65699e-07
2.10034e-07
-2.12974e-07
8.65379e-07
-2.18474e-07
-2.23267e-07
0.000268846
-1.22278e-06
0.00027078
-0.000268771
2.33154e-07
2.38004e-07
1.01968e-07
2.77832e-08
0.0011376
-2.34986e-07
1.21711e-06
2.36227e-07
8.69317e-07
-2.21404e-07
2.13959e-07
-8.74445e-07
8.71592e-08
-0.00113723
2.3489e-08
-1.21853e-06
2.33997e-07
-2.3032e-07
-8.68333e-07
2.15721e-07
8.68347e-07
-2.18162e-07
1.21733e-06
0.00113725
8.74485e-08
-0.00113737
2.38589e-08
-1.2133e-06
2.36798e-07
-2.33168e-07
-8.70872e-07
2.15643e-07
-2.1827e-07
8.70836e-07
-0.000268748
2.32818e-07
2.35569e-07
1.2604e-06
1.21794e-06
-2.13366e-07
-2.21058e-07
0.000268778
-1.26604e-06
-1.22364e-06
0.000270729
-0.000268709
2.31055e-07
2.38843e-07
2.24438e-08
0.00113657
-2.35243e-07
1.26552e-06
2.39494e-07
8.71532e-07
-2.14618e-07
-8.70099e-07
2.13356e-07
-1.25779e-06
8.26579e-08
2.21429e-08
0.00113664
-2.37987e-07
1.26295e-06
2.42423e-07
8.76749e-07
-2.1733e-07
-8.75288e-07
2.16041e-07
0.00113624
6.85234e-08
-0.00113635
1.73741e-08
-1.25762e-06
2.40383e-07
-2.32942e-07
-8.67171e-07
2.14621e-07
-2.12078e-07
8.72605e-07
1.26363e-06
0.00113631
6.81338e-08
-0.00113642
1.66026e-08
-1.25485e-06
2.43418e-07
-2.35526e-07
-8.72277e-07
2.17487e-07
-2.14666e-07
8.77957e-07
-2.16041e-07
-2.18385e-07
0.000268763
-1.22632e-06
0.000270714
-0.000268694
2.33953e-07
2.36318e-07
2.20285e-08
0.00113758
-2.32556e-07
1.22309e-06
2.37029e-07
8.74283e-07
-2.17229e-07
-8.7259e-07
2.16317e-07
-1.25228e-06
8.26288e-08
2.22783e-08
0.00113651
-2.3793e-07
1.25743e-06
2.42362e-07
8.74127e-07
-2.14607e-07
-8.72635e-07
2.13409e-07
0.00113725
6.82502e-08
-0.00113736
1.68781e-08
-1.21515e-06
2.37937e-07
-2.30238e-07
-8.69673e-07
2.17568e-07
-2.14699e-07
8.75343e-07
1.25802e-06
0.00113617
6.83575e-08
-0.00113628
1.70072e-08
-1.24947e-06
2.43317e-07
-2.3562e-07
-8.69651e-07
2.14755e-07
-2.11996e-07
8.75266e-07
8.27699e-08
2.23054e-08
0.00113614
-2.34938e-07
1.2546e-06
2.39781e-07
8.65785e-07
-2.12056e-07
2.10517e-07
-8.64651e-07
6.7721e-08
-0.00113691
2.20277e-08
-1.21754e-06
2.38003e-07
-2.30008e-07
-8.64169e-07
2.17662e-07
8.70127e-07
-2.14546e-07
1.25517e-06
0.00113581
6.77467e-08
-0.00113592
1.66313e-08
-1.24638e-06
2.40514e-07
-2.32704e-07
-8.61382e-07
2.12222e-07
-2.09128e-07
8.67262e-07
-2.16036e-07
-2.20915e-07
0.000268747
-1.22346e-06
0.000270687
-0.000268679
2.33897e-07
2.38783e-07
8.25136e-08
2.19259e-08
0.00113714
-2.32266e-07
1.21761e-06
2.3725e-07
8.71246e-07
-2.17346e-07
2.16131e-07
-8.69817e-07
6.79209e-08
-0.00113677
1.69336e-08
-1.21489e-06
2.3518e-07
-2.27357e-07
-8.64172e-07
2.17611e-07
8.70006e-07
-2.14544e-07
1.21821e-06
0.0011368
6.75149e-08
-0.00113691
1.61652e-08
-1.20938e-06
2.38e-07
-2.30016e-07
-8.6656e-07
2.17827e-07
-2.14422e-07
8.72706e-07
-0.000268655
2.33719e-07
2.36462e-07
1.25668e-06
1.21422e-06
-2.10907e-07
-2.1861e-07
0.000268688
-1.26699e-06
-1.22455e-06
0.000270646
-0.000268626
2.32092e-07
2.39917e-07
1.52955e-08
0.00113613
-2.32205e-07
1.26631e-06
2.40779e-07
8.7308e-07
-2.11163e-07
-8.6612e-07
2.15146e-07
-1.25397e-06
6.31289e-08
1.49911e-08
0.0011362
-2.3492e-07
1.26376e-06
2.43575e-07
8.78497e-07
-2.13665e-07
-8.71156e-07
2.18089e-07
0.00113581
4.77963e-08
-0.00113592
9.47885e-09
-1.25369e-06
2.41559e-07
-2.29744e-07
-8.62641e-07
2.17318e-07
-2.0791e-07
8.74894e-07
1.26394e-06
0.00113588
4.85223e-08
-0.00113598
1.12683e-08
-1.25165e-06
2.43944e-07
-2.33258e-07
-8.67844e-07
2.19828e-07
-2.10688e-07
8.80026e-07
-2.13474e-07
-2.1577e-07
0.000268673
-1.22682e-06
0.00027063
-0.00026861
2.34562e-07
2.36786e-07
1.48112e-08
0.00113714
-2.29501e-07
1.22392e-06
2.38333e-07
8.75807e-07
-2.13791e-07
-8.68634e-07
2.18089e-07
-1.24853e-06
6.33285e-08
1.52445e-08
0.00113607
-2.34897e-07
1.25823e-06
2.43592e-07
8.75776e-07
-2.11044e-07
-8.6857e-07
2.1532e-07
0.00113682
4.74032e-08
-0.00113693
9.22848e-09
-1.21129e-06
2.39064e-07
-2.27084e-07
-8.65129e-07
2.20281e-07
-2.10521e-07
8.77652e-07
1.2584e-06
0.00113575
4.85643e-08
-0.00113585
1.13292e-08
-1.24618e-06
2.43863e-07
-2.33277e-07
-8.65233e-07
2.1711e-07
-2.08038e-07
8.77353e-07
6.28788e-08
1.52238e-08
0.0011357
-2.32199e-07
1.25522e-06
2.40589e-07
8.67797e-07
-2.08117e-07
2.12808e-07
-8.6024e-07
4.86656e-08
-0.00113648
1.5667e-08
-1.2142e-06
2.38698e-07
-2.27581e-07
-8.59864e-07
2.19893e-07
8.72059e-07
-2.10661e-07
1.25546e-06
0.00113538
4.92247e-08
-0.00113548
1.14209e-08
-1.2433e-06
2.41114e-07
-2.30488e-07
-8.57223e-07
2.14204e-07
-2.05456e-07
8.6901e-07
-2.13563e-07
-2.18386e-07
0.000268657
-1.22403e-06
0.000270603
-0.000268595
2.34538e-07
2.3929e-07
6.26462e-08
1.47985e-08
0.00113669
-2.29512e-07
1.21826e-06
2.38073e-07
8.73234e-07
-2.13415e-07
2.18409e-07
-8.65426e-07
4.86621e-08
-0.00113634
1.02634e-08
-1.21146e-06
2.35901e-07
-2.24853e-07
-8.59875e-07
2.19869e-07
8.71954e-07
-2.10665e-07
1.21846e-06
0.00113638
4.88757e-08
-0.00113648
1.12026e-08
-1.20634e-06
2.38554e-07
-2.27843e-07
-8.62388e-07
2.19823e-07
-2.10738e-07
8.74472e-07
-0.000268571