/*--------------------------------*- C++ -*----------------------------------*\
| =========                 |                                                 |
| \\      /  F ield         | OpenFOAM: The Open Source CFD Toolbox           |
|  \\    /   O peration     | Version:  2312                                  |
|   \\  /    A nd           | Website:  www.openfoam.com                      |
|    \\/     M anipulation  |                                                 |
\*---------------------------------------------------------------------------*/
FoamFile
{
    version     2.0;
    format      ascii;
    arch        "LSB;label=32;scalar=64";
    class       volVectorField;
    location    "875";
    object      U;
}
// * * * * * * * * * * * * * * * * * * * * * * * * * * * * * * * * * * * * * //

dimensions      [0 1 -1 0 0 0 0];

internalField   nonuniform List<vector> 
42973
(
(2.3942e-05 2.39864e-05 0.113152)
(-1.67674e-05 1.01647e-05 0.108269)
(-4.75467e-05 -4.75236e-05 0.104719)
(2.19852e-05 2.1976e-05 0.113168)
(-1.44416e-05 8.68313e-06 0.108214)
(8.78157e-06 -1.45083e-05 0.108213)
(-4.61614e-05 -4.61835e-05 0.104666)
(1.9781e-05 1.98085e-05 0.113177)
(-1.21318e-05 7.54966e-06 0.108161)
(7.45807e-06 -1.20889e-05 0.10816)
(-4.41918e-05 -4.41699e-05 0.104616)
(1.78187e-05 1.78272e-05 0.113179)
(-9.9691e-06 6.30754e-06 0.10811)
(6.39129e-06 -1.00061e-05 0.108109)
(-4.27389e-05 -4.27372e-05 0.104569)
(1.55532e-05 1.55618e-05 0.113176)
(-7.95205e-06 5.27786e-06 0.108061)
(5.20604e-06 -7.93025e-06 0.10806)
(-4.11424e-05 -4.11344e-05 0.104525)
(1.35309e-05 1.35486e-05 0.113167)
(-5.93987e-06 4.16224e-06 0.108015)
(4.20448e-06 -5.95384e-06 0.108014)
(-3.97346e-05 -3.97172e-05 0.104485)
(1.15793e-05 1.15873e-05 0.113153)
(-4.18239e-06 3.33733e-06 0.10797)
(3.33372e-06 -4.17573e-06 0.107969)
(-3.85358e-05 -3.85283e-05 0.104448)
(9.61843e-06 9.6165e-06 0.113135)
(-2.47374e-06 2.35697e-06 0.107928)
(2.36411e-06 -2.48347e-06 0.107927)
(-3.72814e-05 -3.72775e-05 0.104414)
(7.60663e-06 7.62361e-06 0.113113)
(-9.12813e-07 1.58848e-06 0.107888)
(1.57257e-06 -9.03199e-07 0.107886)
(-3.62428e-05 -3.62195e-05 0.104383)
(5.9476e-06 5.96462e-06 0.113089)
(6.35652e-07 8.00916e-07 0.10785)
(7.95185e-07 6.50145e-07 0.107849)
(-3.50862e-05 -3.50653e-05 0.104355)
(3.69857e-06 3.6828e-06 0.113061)
(2.08609e-06 -2.74486e-08 0.107814)
(5.37859e-08 2.03992e-06 0.107813)
(-3.41875e-05 -3.41943e-05 0.104329)
(2.92387e-06 2.95888e-06 0.113031)
(3.19282e-06 -9.28765e-08 0.10778)
(-2.70614e-07 3.25642e-06 0.107779)
(-3.35657e-05 -3.35314e-05 0.104305)
(3.53306e-07 3.50108e-07 0.113)
(4.41078e-06 -1.6993e-06 0.107749)
(-1.46294e-06 4.3432e-06 0.107748)
(-3.22352e-05 -3.22375e-05 0.104285)
(-7.19642e-07 -7.414e-07 0.112966)
(5.51736e-06 -1.3958e-06 0.10772)
(-1.54806e-06 5.49272e-06 0.107719)
(-3.19264e-05 -3.19431e-05 0.104268)
(-1.36627e-06 -1.24692e-06 0.112931)
(6.23344e-06 -2.04384e-06 0.107692)
(-2.11607e-06 6.35928e-06 0.107691)
(-3.09141e-05 -3.08084e-05 0.10425)
(-3.91781e-06 -4.02988e-06 0.112895)
(7.25259e-06 -3.13107e-06 0.107667)
(-2.9006e-06 7.09725e-06 0.107665)
(-3.04336e-05 -3.05378e-05 0.104237)
(-4.06357e-06 -4.00587e-06 0.112859)
(7.80964e-06 -2.96697e-06 0.107643)
(-3.15844e-06 7.88645e-06 0.107642)
(-2.96766e-05 -2.96183e-05 0.104225)
(-5.20642e-06 -5.16136e-06 0.112821)
(8.53354e-06 -3.59726e-06 0.107621)
(-3.53425e-06 8.51813e-06 0.10762)
(-2.94154e-05 -2.93878e-05 0.104215)
(-6.55613e-06 -6.58721e-06 0.112783)
(9.21517e-06 -4.37511e-06 0.107601)
(-4.34149e-06 9.17349e-06 0.1076)
(-2.84568e-05 -2.84991e-05 0.104207)
(-7.09766e-06 -7.05495e-06 0.112745)
(9.39675e-06 -3.96895e-06 0.107582)
(-4.00756e-06 9.42706e-06 0.107581)
(-2.87329e-05 -2.86888e-05 0.1042)
(-7.6819e-06 -7.6986e-06 0.112708)
(1.02716e-05 -5.2386e-06 0.107566)
(-5.18411e-06 1.01909e-05 0.107565)
(-2.74357e-05 -2.74719e-05 0.104196)
(-9.09832e-06 -9.01399e-06 0.112669)
(1.0567e-05 -4.80742e-06 0.107551)
(-4.9189e-06 1.0671e-05 0.10755)
(-2.78855e-05 -2.78064e-05 0.104194)
(-8.92846e-06 -8.99545e-06 0.112631)
(1.06536e-05 -5.46071e-06 0.107536)
(-5.27822e-06 1.05142e-05 0.107534)
(-2.7138e-05 -2.72265e-05 0.10419)
(-9.88493e-06 -9.86393e-06 0.112593)
(1.14235e-05 -5.59497e-06 0.107523)
(-5.71168e-06 1.14861e-05 0.107522)
(-2.68429e-05 -2.68096e-05 0.104191)
(-1.0398e-05 -1.03344e-05 0.112555)
(1.11031e-05 -5.68158e-06 0.107512)
(-5.70302e-06 1.11028e-05 0.107511)
(-2.70571e-05 -2.70234e-05 0.104191)
(-1.04786e-05 -1.04701e-05 0.112519)
(1.15449e-05 -5.97515e-06 0.107502)
(-5.92362e-06 1.15086e-05 0.1075)
(-2.62737e-05 -2.6294e-05 0.104194)
(-1.15336e-05 -1.15766e-05 0.112481)
(1.20928e-05 -6.3758e-06 0.107493)
(-6.42679e-06 1.21444e-05 0.107491)
(-2.6425e-05 -2.64019e-05 0.104198)
(4.75771e-05 4.75934e-05 0.10472)
(-4.32073e-05 -4.32149e-05 0.104836)
(9.98291e-06 1.6798e-05 0.108266)
(-1.01647e-05 1.68478e-05 0.108266)
(9.29289e-06 1.50954e-05 0.108225)
(-9.15466e-06 1.5071e-05 0.108225)
(-4.78826e-05 4.7884e-05 0.10472)
(4.33889e-05 -4.33874e-05 0.104836)
(1.6724e-05 9.96885e-06 0.108268)
(1.50471e-05 9.22255e-06 0.108227)
(1.51165e-05 -9.31024e-06 0.108224)
(-1.67098e-05 -9.89404e-06 0.108265)
(-1.50238e-05 9.09303e-06 0.108227)
(-1.50853e-05 -9.35411e-06 0.108224)
(-4.32588e-05 4.32627e-05 0.104835)
(-9.88548e-06 -1.66443e-05 0.108267)
(9.2414e-06 -1.50816e-05 0.108226)
(-9.28769e-06 -1.50461e-05 0.108226)
(4.31534e-05 4.31447e-05 0.104835)
(4.61244e-05 4.60976e-05 0.104666)
(-4.38448e-05 -4.38211e-05 0.104783)
(8.84852e-06 1.45069e-05 0.108212)
(-8.77004e-06 1.44793e-05 0.108211)
(7.71344e-06 1.27019e-05 0.108172)
(-7.83513e-06 1.27281e-05 0.108171)
(-4.6005e-05 4.59492e-05 0.104666)
(4.37289e-05 -4.37317e-05 0.104783)
(1.44664e-05 8.77079e-06 0.108214)
(1.45304e-05 -8.87362e-06 0.10821)
(1.26391e-05 7.68287e-06 0.108174)
(1.26838e-05 -7.70831e-06 0.10817)
(-1.45252e-05 -8.94035e-06 0.108211)
(-1.26912e-05 7.7563e-06 0.108174)
(-1.27435e-05 -7.74312e-06 0.108171)
(4.60438e-05 -4.61126e-05 0.104665)
(-4.38462e-05 4.3847e-05 0.104782)
(-8.8676e-06 -1.44949e-05 0.108213)
(7.62526e-06 -1.26569e-05 0.108173)
(-7.71833e-06 -1.26903e-05 0.108173)
(4.37909e-05 4.38141e-05 0.104781)
(4.42175e-05 4.42339e-05 0.104616)
(-4.38574e-05 -4.38388e-05 0.104732)
(7.54567e-06 1.21549e-05 0.108159)
(-7.59594e-06 1.21832e-05 0.108158)
(6.83883e-06 1.06482e-05 0.10812)
(-6.66418e-06 1.0611e-05 0.10812)
(-4.43025e-05 4.4265e-05 0.104616)
(4.40055e-05 -4.39356e-05 0.104732)
(1.20804e-05 7.53012e-06 0.108161)
(1.21301e-05 -7.50704e-06 0.108157)
(1.05743e-05 6.80312e-06 0.108122)
(1.0611e-05 -6.74386e-06 0.108119)
(-1.21371e-05 -7.40377e-06 0.108158)
(-1.05152e-05 6.69195e-06 0.108123)
(-1.0525e-05 -6.66249e-06 0.10812)
(4.41731e-05 -4.4222e-05 0.104616)
(-4.38452e-05 4.3914e-05 0.104731)
(-7.3956e-06 -1.20702e-05 0.10816)
(6.76415e-06 -1.05271e-05 0.108122)
(-6.63054e-06 -1.0462e-05 0.108121)
(4.39184e-05 4.39352e-05 0.104731)
(4.27089e-05 4.27075e-05 0.104569)
(-4.43058e-05 -4.42982e-05 0.104685)
(6.44272e-06 1.01144e-05 0.108108)
(-6.30335e-06 1.0064e-05 0.108107)
(5.43091e-06 8.43639e-06 0.108071)
(-5.58616e-06 8.45811e-06 0.108071)
(-4.26047e-05 4.26219e-05 0.104569)
(4.41632e-05 -4.41948e-05 0.104686)
(1.00513e-05 6.39042e-06 0.10811)
(1.0089e-05 -6.39327e-06 0.108106)
(8.37618e-06 5.38132e-06 0.108073)
(8.46021e-06 -5.54713e-06 0.108069)
(-1.00362e-05 -6.46016e-06 0.108107)
(-8.43078e-06 5.48083e-06 0.108073)
(-8.51517e-06 -5.59974e-06 0.10807)
(4.27006e-05 -4.26998e-05 0.104569)
(-4.42369e-05 4.42079e-05 0.104684)
(-6.41209e-06 -9.98576e-06 0.108109)
(5.43764e-06 -8.43679e-06 0.108072)
(-5.55645e-06 -8.46753e-06 0.108072)
(4.41829e-05 4.41904e-05 0.104684)
(4.10993e-05 4.11015e-05 0.104526)
(-4.44137e-05 -4.43862e-05 0.104642)
(5.23137e-06 7.93252e-06 0.108059)
(-5.38661e-06 7.96803e-06 0.108059)
(4.51107e-06 6.52289e-06 0.108024)
(-4.44164e-06 6.50472e-06 0.108023)
(-4.12529e-05 4.11748e-05 0.104526)
(4.45026e-05 -4.44607e-05 0.104642)
(7.86451e-06 5.19683e-06 0.108061)
(7.94428e-06 -5.31683e-06 0.108057)
(6.44002e-06 4.48635e-06 0.108026)
(6.50231e-06 -4.47409e-06 0.108022)
(-7.99054e-06 -5.25323e-06 0.108058)
(-6.4377e-06 4.42598e-06 0.108026)
(-6.45471e-06 -4.38822e-06 0.108023)
(4.11169e-05 -4.12063e-05 0.104525)
(-4.44033e-05 4.44437e-05 0.104641)
(-5.22666e-06 -7.9321e-06 0.10806)
(4.45262e-06 -6.43807e-06 0.108025)
(-4.36842e-06 -6.38209e-06 0.108025)
(4.44479e-05 4.44749e-05 0.104641)
(3.97168e-05 3.97302e-05 0.104486)
(-4.4473e-05 -4.44602e-05 0.104602)
(4.24537e-06 6.04674e-06 0.108012)
(-4.16322e-06 6.02374e-06 0.108012)
(3.63864e-06 4.68046e-06 0.107979)
(-3.61139e-06 4.66118e-06 0.107978)
(-3.96486e-05 3.96555e-05 0.104486)
(4.44763e-05 -4.44564e-05 0.104602)
(5.96825e-06 4.21341e-06 0.108014)
(6.03529e-06 -4.21059e-06 0.108011)
(4.60731e-06 3.59941e-06 0.107981)
(4.65859e-06 -3.59516e-06 0.107977)
(-5.98684e-06 -4.2088e-06 0.108012)
(-4.6005e-06 3.5786e-06 0.107981)
(-4.67965e-06 -3.63123e-06 0.107978)
(3.97162e-05 -3.97251e-05 0.104485)
(-4.44772e-05 4.44977e-05 0.104601)
(-4.18151e-06 -5.91971e-06 0.108013)
(3.55662e-06 -4.5957e-06 0.10798)
(-3.59621e-06 -4.61804e-06 0.10798)
(4.44633e-05 4.4475e-05 0.104601)
(3.85555e-05 3.85585e-05 0.104448)
(-4.46448e-05 -4.4639e-05 0.104564)
(3.39658e-06 4.23881e-06 0.107968)
(-3.38186e-06 4.23037e-06 0.107967)
(2.69855e-06 3.02985e-06 0.107936)
(-2.61612e-06 2.97732e-06 0.107935)
(-3.85661e-05 3.85377e-05 0.104449)
(4.47171e-05 -4.46856e-05 0.104565)
(4.16537e-06 3.35676e-06 0.10797)
(4.22781e-06 -3.38303e-06 0.107966)
(2.95945e-06 2.6502e-06 0.107937)
(3.00112e-06 -2.64698e-06 0.107934)
(-4.24639e-06 -3.35931e-06 0.107967)
(-2.90904e-06 2.59601e-06 0.107938)
(-2.94186e-06 -2.6005e-06 0.107935)
(3.85219e-05 -3.85631e-05 0.104448)
(-4.46454e-05 4.46796e-05 0.104564)
(-3.32455e-06 -4.18249e-06 0.107969)
(2.62262e-06 -2.92449e-06 0.107937)
(-2.55862e-06 -2.87856e-06 0.107937)
(4.46876e-05 4.46951e-05 0.104563)
(3.72945e-05 3.72916e-05 0.104414)
(-4.4896e-05 -4.48732e-05 0.104531)
(2.41179e-06 2.58713e-06 0.107925)
(-2.38809e-06 2.54237e-06 0.107925)
(1.64922e-06 1.23499e-06 0.107895)
(-1.83706e-06 1.28935e-06 0.107895)
(-3.7256e-05 3.72457e-05 0.104415)
(4.47443e-05 -4.47718e-05 0.104531)
(2.5188e-06 2.36414e-06 0.107927)
(2.56508e-06 -2.397e-06 0.107924)
(1.15544e-06 1.62312e-06 0.107897)
(1.30334e-06 -1.83598e-06 0.107894)
(-2.51824e-06 -2.40529e-06 0.107924)
(-1.26928e-06 1.73874e-06 0.107897)
(-1.35798e-06 -1.8447e-06 0.107894)
(3.72684e-05 -3.72884e-05 0.104414)
(-4.47522e-05 4.47286e-05 0.10453)
(-2.36488e-06 -2.45599e-06 0.107926)
(1.73383e-06 -1.27015e-06 0.107896)
(-1.82364e-06 -1.28663e-06 0.107896)
(4.46979e-05 4.47217e-05 0.104529)
(3.61563e-05 3.61746e-05 0.104383)
(-4.46361e-05 -4.46091e-05 0.104499)
(1.64409e-06 9.12953e-07 0.107885)
(-1.66687e-06 9.29493e-07 0.107885)
(1.30524e-06 -2.78977e-09 0.107857)
(-9.68413e-07 -1.41501e-07 0.107856)
(-3.62383e-05 3.61765e-05 0.104383)
(4.49037e-05 -4.48049e-05 0.1045)
(8.2894e-07 1.62691e-06 0.107887)
(9.32446e-07 -1.65538e-06 0.107884)
(-8.85024e-08 1.28941e-06 0.107858)
(-1.48312e-07 -9.38257e-07 0.107855)
(-9.86288e-07 -1.62395e-06 0.107884)
(2.43372e-07 1.04345e-06 0.107859)
(2.27359e-07 -9.01231e-07 0.107856)
(3.61897e-05 -3.62614e-05 0.104383)
(-4.48193e-05 4.49227e-05 0.104499)
(-1.61077e-06 -9.09804e-07 0.107886)
(1.00902e-06 2.64209e-07 0.107858)
(-8.88437e-07 3.03059e-07 0.107858)
(4.49151e-05 4.49416e-05 0.104499)
(3.52429e-05 3.52599e-05 0.104355)
(-4.54277e-05 -4.54319e-05 0.104472)
(8.9683e-07 -4.0032e-07 0.107847)
(-7.28865e-07 -5.16754e-07 0.107847)
(-2.46036e-07 -1.88768e-06 0.107821)
(-2.79885e-07 -1.7324e-06 0.10782)
(-3.50804e-05 3.51406e-05 0.104355)
(4.49504e-05 -4.50527e-05 0.104472)
(-4.81805e-07 8.75257e-07 0.107849)
(-5.1722e-07 -7.28209e-07 0.107846)
(-1.94598e-06 -2.97439e-07 0.107822)
(-1.68726e-06 -3.77698e-07 0.107819)
(5.9951e-07 -7.41668e-07 0.107847)
(1.73801e-06 1.10232e-07 0.107823)
(1.67031e-06 -3.03423e-07 0.10782)
(3.51362e-05 -3.5082e-05 0.104354)
(-4.49464e-05 4.48629e-05 0.10447)
(-7.21891e-07 6.71472e-07 0.107848)
(2.00823e-07 1.70265e-06 0.107822)
(-2.54087e-07 1.72375e-06 0.107821)
(4.49054e-05 4.49045e-05 0.10447)
(3.37653e-05 3.37523e-05 0.10433)
(-4.41319e-05 -4.41002e-05 0.104444)
(-2.09004e-07 -2.30679e-06 0.107812)
(-1.97972e-07 -2.14101e-06 0.107811)
(5.27649e-07 -2.75952e-06 0.107786)
(1.28713e-07 -2.92861e-06 0.107785)
(-3.41851e-05 3.40216e-05 0.10433)
(4.47106e-05 -4.46149e-05 0.104445)
(-2.35531e-06 -2.69241e-07 0.107814)
(-2.08081e-06 -2.84236e-07 0.10781)
(-2.82511e-06 5.13069e-07 0.107788)
(-2.92912e-06 2.42269e-07 0.107784)
(2.02587e-06 -1.71968e-07 0.107811)
(2.98215e-06 -5.45323e-08 0.107788)
(2.91763e-06 1.54198e-07 0.107785)
(3.41275e-05 -3.42854e-05 0.104329)
(-4.47022e-05 4.48129e-05 0.104444)
(-1.18624e-07 2.07218e-06 0.107813)
(-1.71865e-07 2.99282e-06 0.107787)
(1.59392e-07 2.97354e-06 0.107787)
(4.47004e-05 4.47259e-05 0.104444)
(3.41993e-05 3.42341e-05 0.104305)
(-4.57608e-05 -4.57414e-05 0.104422)
(4.86682e-07 -2.73502e-06 0.107778)
(3.28151e-07 -3.02189e-06 0.107777)
(-1.68982e-06 -3.88707e-06 0.107754)
(1.23406e-06 -3.85289e-06 0.107754)
(-3.35597e-05 3.36862e-05 0.104305)
(4.52559e-05 -4.52219e-05 0.104423)
(-2.81734e-06 5.05894e-07 0.107779)
(-3.08312e-06 4.95146e-07 0.107776)
(-3.97074e-06 -1.7024e-06 0.107756)
(-3.87686e-06 1.127e-06 0.107753)
(3.14131e-06 3.41038e-07 0.107777)
(4.00643e-06 -1.22637e-06 0.107757)
(3.96291e-06 1.19134e-06 0.107753)
(3.35727e-05 -3.34512e-05 0.104305)
(-4.50862e-05 4.51241e-05 0.104422)
(3.1721e-07 3.21465e-06 0.107778)
(-1.12594e-06 4.02635e-06 0.107755)
(1.20508e-06 4.03515e-06 0.107755)
(4.51552e-05 4.51743e-05 0.104421)
(3.14702e-05 3.14643e-05 0.104285)
(-4.45671e-05 -4.46089e-05 0.104405)
(-2.37249e-06 -4.65901e-06 0.107747)
(1.45401e-06 -4.41681e-06 0.107747)
(-1.42183e-06 -5.69694e-06 0.107726)
(1.32125e-06 -5.57271e-06 0.107724)
(-3.21488e-05 3.20464e-05 0.104286)
(4.47404e-05 -4.49769e-05 0.104403)
(-4.70805e-06 -2.43955e-06 0.107748)
(-4.34909e-06 1.21382e-06 0.107745)
(-5.68937e-06 -1.529e-06 0.107728)
(-5.45474e-06 1.29751e-06 0.107723)
(4.36387e-06 1.40997e-06 0.107746)
(5.35563e-06 -1.674e-06 0.107727)
(5.33042e-06 1.41682e-06 0.107724)
(3.22423e-05 -3.23531e-05 0.104285)
(-4.49979e-05 4.47786e-05 0.104402)
(1.47569e-06 4.40469e-06 0.107748)
(-1.64416e-06 5.2533e-06 0.107726)
(1.50975e-06 5.31938e-06 0.107726)
(4.48806e-05 4.48384e-05 0.104402)
(3.24398e-05 3.24197e-05 0.104269)
(-4.4651e-05 -4.45277e-05 0.104381)
(-8.33898e-07 -5.5223e-06 0.107719)
(1.30599e-06 -5.58627e-06 0.107717)
(-1.32782e-06 -5.31247e-06 0.107696)
(2.08158e-06 -5.56886e-06 0.107696)
(-3.20712e-05 3.19238e-05 0.104268)
(4.51026e-05 -4.46526e-05 0.104383)
(-5.54669e-06 -8.75168e-07 0.10772)
(-5.55963e-06 1.46098e-06 0.107716)
(-5.44901e-06 -1.20573e-06 0.107698)
(-5.75846e-06 2.31503e-06 0.107695)
(5.47217e-06 1.40612e-06 0.107717)
(5.94864e-06 -1.56875e-06 0.107699)
(5.92035e-06 2.12149e-06 0.107696)
(3.18025e-05 -3.19573e-05 0.104267)
(-4.4802e-05 4.52486e-05 0.104382)
(1.43503e-06 5.48935e-06 0.107718)
(-1.81835e-06 6.12413e-06 0.107698)
(2.00539e-06 6.04565e-06 0.107697)
(4.50035e-05 4.51252e-05 0.104382)
(3.10678e-05 3.11703e-05 0.104249)
(-4.57097e-05 -4.58125e-05 0.104368)
(-2.09313e-06 -5.72942e-06 0.107689)
(2.43465e-06 -5.8785e-06 0.107689)
(-3.53608e-06 -7.45942e-06 0.10767)
(2.71432e-06 -7.27986e-06 0.10767)
(-3.08188e-05 3.11734e-05 0.10425)
(4.51019e-05 -4.54492e-05 0.104368)
(-5.85743e-06 -2.00785e-06 0.10769)
(-6.01535e-06 2.49636e-06 0.107688)
(-7.43418e-06 -3.69456e-06 0.107672)
(-7.12234e-06 2.39062e-06 0.107669)
(6.21441e-06 2.41176e-06 0.107689)
(7.12051e-06 -3.15561e-06 0.107673)
(7.04944e-06 2.51506e-06 0.10767)
(3.11055e-05 -3.07627e-05 0.10425)
(-4.51697e-05 4.48358e-05 0.104367)
(2.33181e-06 6.33199e-06 0.107691)
(-2.82724e-06 6.97275e-06 0.107672)
(2.6641e-06 7.02316e-06 0.107671)
(4.49812e-05 4.48848e-05 0.104367)
(2.97942e-05 2.96781e-05 0.104238)
(-4.44924e-05 -4.44554e-05 0.104355)
(-3.36802e-06 -7.74154e-06 0.107664)
(2.55674e-06 -7.54521e-06 0.107664)
(-2.57844e-06 -7.57043e-06 0.107647)
(2.85157e-06 -7.61102e-06 0.107646)
(-3.04113e-05 2.99773e-05 0.104238)
(4.47975e-05 -4.47459e-05 0.104354)
(-7.6831e-06 -3.55068e-06 0.107666)
(-7.37565e-06 2.32975e-06 0.107663)
(-7.60561e-06 -2.57926e-06 0.107649)
(-7.6677e-06 3.03926e-06 0.107645)
(7.20551e-06 2.49076e-06 0.107663)
(7.58486e-06 -2.88412e-06 0.107649)
(7.64024e-06 3.14212e-06 0.107646)
(3.0195e-05 -3.06254e-05 0.104237)
(-4.49155e-05 4.49575e-05 0.104353)
(2.66158e-06 7.14954e-06 0.107665)
(-3.08105e-06 7.62224e-06 0.107647)
(3.14229e-06 7.66346e-06 0.107647)
(4.50192e-05 4.50516e-05 0.104353)
(3.02037e-05 3.0262e-05 0.104226)
(-4.49711e-05 -4.49295e-05 0.104341)
(-2.68691e-06 -7.56119e-06 0.107642)
(3.19562e-06 -7.65297e-06 0.107641)
(-3.43775e-06 -8.16631e-06 0.107624)
(3.6621e-06 -8.18312e-06 0.107624)
(-2.98357e-05 2.99612e-05 0.104226)
(4.50428e-05 -4.48242e-05 0.104342)
(-7.64136e-06 -2.6258e-06 0.107643)
(-7.74989e-06 3.37577e-06 0.107639)
(-8.24361e-06 -3.41102e-06 0.107625)
(-8.20189e-06 3.62509e-06 0.107623)
(7.84511e-06 3.39134e-06 0.10764)
(8.43551e-06 -3.4059e-06 0.107626)
(8.33033e-06 3.47729e-06 0.107623)
(2.98057e-05 -2.97003e-05 0.104225)
(-4.47434e-05 4.49704e-05 0.104341)
(3.33182e-06 7.91108e-06 0.107642)
(-3.3681e-06 8.44849e-06 0.107625)
(3.44269e-06 8.40387e-06 0.107625)
(4.47759e-05 4.48239e-05 0.104341)
(2.91991e-05 2.92139e-05 0.104214)
(-4.50895e-05 -4.51402e-05 0.104333)
(-3.61958e-06 -8.41258e-06 0.107618)
(3.67498e-06 -8.40041e-06 0.107618)
(-4.21638e-06 -9.03842e-06 0.107604)
(4.11592e-06 -9.081e-06 0.107604)
(-2.92083e-05 2.93063e-05 0.104215)
(4.50984e-05 -4.52496e-05 0.104333)
(-8.455e-06 -3.64218e-06 0.10762)
(-8.38754e-06 3.61242e-06 0.107617)
(-9.02329e-06 -4.30285e-06 0.107605)
(-9.04459e-06 4.05953e-06 0.107602)
(8.42772e-06 3.49939e-06 0.107618)
(9.00964e-06 -4.336e-06 0.107606)
(8.98902e-06 4.10224e-06 0.107603)
(2.93863e-05 -2.9292e-05 0.104215)
(-4.52166e-05 4.50582e-05 0.104332)
(3.5112e-06 8.47186e-06 0.10762)
(-4.2836e-06 8.95321e-06 0.107605)
(4.18738e-06 8.96957e-06 0.107605)
(4.5164e-05 4.51136e-05 0.104332)
(2.84703e-05 2.84264e-05 0.104208)
(-4.46325e-05 -4.45956e-05 0.104325)
(-4.38806e-06 -9.26719e-06 0.107599)
(4.16582e-06 -9.2798e-06 0.107599)
(-4.18621e-06 -9.6267e-06 0.107585)
(3.80959e-06 -9.48312e-06 0.107584)
(-2.85319e-05 2.83615e-05 0.104208)
(4.43676e-05 -4.44246e-05 0.104324)
(-9.2608e-06 -4.45816e-06 0.107601)
(-9.25016e-06 4.12465e-06 0.107597)
(-9.67946e-06 -4.18228e-06 0.107587)
(-9.52435e-06 3.86928e-06 0.107583)
(9.21937e-06 4.18872e-06 0.107598)
(9.44727e-06 -3.94792e-06 0.107587)
(9.46706e-06 4.00027e-06 0.107584)
(2.83892e-05 -2.85788e-05 0.104207)
(-4.44675e-05 4.44069e-05 0.104323)
(4.26032e-06 9.19947e-06 0.1076)
(-4.0083e-06 9.47458e-06 0.107586)
(3.98975e-06 9.50933e-06 0.107585)
(4.44457e-05 4.44833e-05 0.104323)
(2.86089e-05 2.86423e-05 0.104201)
(-4.46919e-05 -4.47311e-05 0.104317)
(-4.05736e-06 -9.56864e-06 0.107581)
(3.89023e-06 -9.42694e-06 0.10758)
(-4.4605e-06 -9.55817e-06 0.107567)
(5.1888e-06 -9.69504e-06 0.107567)
(-2.88163e-05 2.87443e-05 0.104201)
(4.52966e-05 -4.50582e-05 0.104318)
(-9.62309e-06 -4.05078e-06 0.107582)
(-9.46598e-06 3.92792e-06 0.107578)
(-9.54893e-06 -4.51645e-06 0.107569)
(-9.65382e-06 5.11348e-06 0.107566)
(9.41088e-06 4.06579e-06 0.107579)
(9.886e-06 -4.94107e-06 0.10757)
(9.81553e-06 5.00772e-06 0.107567)
(2.87059e-05 -2.87925e-05 0.1042)
(-4.49793e-05 4.52119e-05 0.104317)
(4.04677e-06 9.46817e-06 0.107581)
(-4.86895e-06 9.82544e-06 0.107568)
(5.06052e-06 9.81442e-06 0.107568)
(4.51405e-05 4.51097e-05 0.104317)
(2.78357e-05 2.77928e-05 0.104196)
(-4.50154e-05 -4.49531e-05 0.104314)
(-4.82682e-06 -9.82533e-06 0.107563)
(5.52383e-06 -1.00192e-05 0.107563)
(-5.40785e-06 -1.08127e-05 0.107552)
(4.81131e-06 -1.07236e-05 0.107552)
(-2.72758e-05 2.74968e-05 0.104197)
(4.44324e-05 -4.4553e-05 0.104315)
(-9.80676e-06 -4.88727e-06 0.107565)
(-9.95915e-06 5.45831e-06 0.107562)
(-1.0881e-05 -5.37414e-06 0.107553)
(-1.08009e-05 4.95992e-06 0.107551)
(1.0176e-05 5.26999e-06 0.107563)
(1.07319e-05 -4.96688e-06 0.107554)
(1.0727e-05 4.93606e-06 0.107552)
(2.75638e-05 -2.73666e-05 0.104196)
(-4.46837e-05 4.45694e-05 0.104314)
(5.33458e-06 1.01481e-05 0.107565)
(-5.1112e-06 1.08035e-05 0.107553)
(4.89767e-06 1.07748e-05 0.107553)
(4.44952e-05 4.45554e-05 0.104314)
(2.73323e-05 2.74006e-05 0.104194)
(-4.43799e-05 -4.4449e-05 0.10431)
(-5.28595e-06 -1.08795e-05 0.107548)
(4.47408e-06 -1.0708e-05 0.107548)
(-4.97056e-06 -1.05705e-05 0.107537)
(5.02771e-06 -1.05244e-05 0.107537)
(-2.79993e-05 2.77738e-05 0.104194)
(4.45666e-05 -4.46632e-05 0.104309)
(-1.09736e-05 -5.23648e-06 0.10755)
(-1.08098e-05 4.59671e-06 0.107547)
(-1.05571e-05 -5.05561e-06 0.107539)
(-1.04713e-05 4.84864e-06 0.107535)
(1.06074e-05 4.7345e-06 0.107548)
(1.03963e-05 -5.20905e-06 0.107539)
(1.04074e-05 5.02935e-06 0.107536)
(2.76575e-05 -2.78909e-05 0.104194)
(-4.44931e-05 4.43884e-05 0.104308)
(4.66827e-06 1.07005e-05 0.107549)
(-5.04141e-06 1.0335e-05 0.107538)
(5.11118e-06 1.04048e-05 0.107538)
(4.45763e-05 4.45156e-05 0.104308)
(2.74646e-05 2.73723e-05 0.104191)
(-4.46303e-05 -4.46393e-05 0.104307)
(-5.02632e-06 -1.05725e-05 0.107534)
(5.4929e-06 -1.06225e-05 0.107533)
(-5.53103e-06 -1.10519e-05 0.107524)
(5.90618e-06 -1.11336e-05 0.107524)
(-2.71253e-05 2.70984e-05 0.104191)
(4.48174e-05 -4.45559e-05 0.104309)
(-1.05125e-05 -5.15656e-06 0.107536)
(-1.05186e-05 5.28642e-06 0.107532)
(-1.10392e-05 -5.57304e-06 0.107525)
(-1.1142e-05 6.01115e-06 0.107522)
(1.062e-05 5.34513e-06 0.107533)
(1.14119e-05 -5.62448e-06 0.107526)
(1.13738e-05 5.82237e-06 0.107523)
(2.7266e-05 -2.73245e-05 0.10419)
(-4.46792e-05 4.49405e-05 0.104307)
(5.48786e-06 1.05478e-05 0.107534)
(-5.73557e-06 1.13968e-05 0.107525)
(5.86646e-06 1.1334e-05 0.107525)
(4.47696e-05 4.47571e-05 0.104307)
(2.68072e-05 2.68252e-05 0.10419)
(-4.44185e-05 -4.43742e-05 0.104308)
(-5.74454e-06 -1.12326e-05 0.107521)
(5.73592e-06 -1.12386e-05 0.107521)
(-5.84218e-06 -1.1397e-05 0.107512)
(5.3715e-06 -1.13276e-05 0.107512)
(-2.68125e-05 2.69653e-05 0.104191)
(4.41121e-05 -4.43917e-05 0.104308)
(-1.12721e-05 -5.72997e-06 0.107522)
(-1.12805e-05 5.87102e-06 0.107519)
(-1.14622e-05 -5.81252e-06 0.107514)
(-1.13246e-05 5.36565e-06 0.107511)
(1.13907e-05 5.72521e-06 0.10752)
(1.11162e-05 -5.69639e-06 0.107514)
(1.10843e-05 5.44415e-06 0.107512)
(2.6834e-05 -2.66726e-05 0.10419)
(-4.43163e-05 4.40643e-05 0.104307)
(5.68764e-06 1.14352e-05 0.107522)
(-5.67137e-06 1.11597e-05 0.107513)
(5.38724e-06 1.11809e-05 0.107513)
(4.40929e-05 4.41601e-05 0.104307)
(2.68515e-05 2.68786e-05 0.104192)
(-4.40493e-05 -4.40539e-05 0.104308)
(-5.66522e-06 -1.13489e-05 0.10751)
(5.38644e-06 -1.13186e-05 0.107509)
(-5.57438e-06 -1.11203e-05 0.107502)
(5.95246e-06 -1.11482e-05 0.107501)
(-2.70814e-05 2.67942e-05 0.104192)
(4.43922e-05 -4.41105e-05 0.104308)
(-1.13928e-05 -5.66021e-06 0.107511)
(-1.13196e-05 5.39081e-06 0.107508)
(-1.11479e-05 -5.60488e-06 0.107503)
(-1.11887e-05 5.91586e-06 0.1075)
(1.10766e-05 5.47698e-06 0.107509)
(1.13748e-05 -5.72524e-06 0.107504)
(1.14072e-05 6.0719e-06 0.107501)
(2.68321e-05 -2.71292e-05 0.104191)
(-4.41231e-05 4.43377e-05 0.104307)
(5.47722e-06 1.11096e-05 0.10751)
(-5.73372e-06 1.13102e-05 0.107503)
(6.14063e-06 1.136e-05 0.107503)
(4.45012e-05 4.44568e-05 0.104308)
(2.66672e-05 2.66553e-05 0.104193)
(-4.47829e-05 -4.4851e-05 0.104312)
(-5.9001e-06 -1.12049e-05 0.107499)
(6.27986e-06 -1.12227e-05 0.107499)
(-6.65016e-06 -1.21671e-05 0.107493)
(6.43526e-06 -1.21305e-05 0.107493)
(-2.63527e-05 2.66292e-05 0.104194)
(4.45564e-05 -4.47211e-05 0.104312)
(-1.12324e-05 -5.9392e-06 0.107501)
(-1.12438e-05 6.22193e-06 0.107498)
(-1.21062e-05 -6.72734e-06 0.107494)
(-1.20598e-05 6.5092e-06 0.107491)
(1.15942e-05 6.36629e-06 0.107499)
(1.20761e-05 -6.57944e-06 0.107495)
(1.20379e-05 6.2588e-06 0.107492)
(2.66601e-05 -2.64348e-05 0.104193)
(-4.47142e-05 4.46771e-05 0.104311)
(6.40519e-06 1.15882e-05 0.1075)
(-6.57717e-06 1.2158e-05 0.107494)
(6.25601e-06 1.2098e-05 0.107494)
(4.43419e-05 4.43806e-05 0.104311)
(2.5895e-05 2.58373e-05 0.104198)
(-6.4195e-06 -1.23489e-05 0.10749)
(6.04733e-06 -1.22904e-05 0.10749)
(-2.62205e-05 2.59572e-05 0.104198)
(-1.23054e-05 -6.48336e-06 0.107492)
(-1.22571e-05 6.14022e-06 0.107489)
(1.20194e-05 5.85865e-06 0.10749)
(2.5913e-05 -2.61001e-05 0.104197)
(5.87676e-06 1.20436e-05 0.107491)
(-5.84245e-07 -8.70423e-06 0.0910046)
(1.51657e-07 6.4768e-06 0.0815664)
(-6.40898e-07 5.89081e-06 0.0909749)
(-1.71457e-06 -7.53637e-06 0.0816093)
(-3.43927e-06 2.28779e-06 0.0708682)
(5.59289e-07 -3.85056e-06 0.0709161)
(-8.71429e-06 -5.79605e-07 0.0910046)
(6.44816e-06 1.75616e-07 0.0815671)
(5.90356e-06 -6.05564e-07 0.0909747)
(-7.57058e-06 -1.70173e-06 0.0816099)
(-2.39921e-05 2.40458e-05 0.113152)
(-2.38735e-05 -2.38312e-05 0.113151)
(2.25166e-05 2.25175e-05 0.113165)
(-2.24699e-05 2.24796e-05 0.113164)
(2.25574e-05 -2.25469e-05 0.113164)
(-2.25351e-05 -2.25365e-05 0.113163)
(1.01193e-05 -2.73875e-07 0.0985701)
(-1.40053e-05 2.94795e-06 0.0926072)
(-2.50781e-05 3.57684e-06 0.11083)
(-1.61764e-05 9.84597e-06 0.108255)
(-1.64503e-05 -2.22098e-07 0.0985203)
(7.74598e-06 -4.06083e-06 0.0926593)
(-2.43313e-05 3.42307e-06 0.110819)
(-3.92274e-06 6.98715e-07 0.0709138)
(-2.73546e-07 1.01506e-05 0.0985694)
(3.53702e-06 -2.50265e-05 0.110829)
(9.90713e-06 -1.61605e-05 0.108254)
(-2.55984e-07 -1.64557e-05 0.09852)
(3.44681e-06 -2.42955e-05 0.110819)
(-4.14115e-06 7.90708e-06 0.092658)
(-3.32374e-06 -4.70497e-06 0.0869811)
(-4.68332e-06 -3.32293e-06 0.0869801)
(4.30731e-05 4.30948e-05 0.104864)
(4.64563e-06 3.45923e-06 0.0870188)
(3.49964e-06 4.63697e-06 0.087017)
(-5.83759e-07 -9.02747e-06 0.0909896)
(1.20691e-07 6.14411e-06 0.0815708)
(-5.51252e-07 5.33564e-06 0.090959)
(-1.68019e-06 -7.67432e-06 0.0816144)
(-3.44509e-06 2.15234e-06 0.0708798)
(5.35234e-07 -3.87693e-06 0.070928)
(-9.01417e-06 -5.5485e-07 0.0909897)
(6.11061e-06 1.34816e-07 0.0815716)
(5.32637e-06 -5.55755e-07 0.090959)
(-7.71609e-06 -1.65225e-06 0.0816151)
(-2.19429e-05 2.19294e-05 0.113168)
(2.20147e-05 -2.2027e-05 0.113167)
(-2.20331e-05 -2.2044e-05 0.113167)
(2.02817e-05 2.02972e-05 0.113176)
(-2.03449e-05 2.03207e-05 0.113175)
(2.02805e-05 -2.0301e-05 0.113174)
(-2.03679e-05 -2.03542e-05 0.113174)
(1.09796e-05 -4.05171e-07 0.0985321)
(-1.32058e-05 2.75102e-06 0.0925937)
(-2.22729e-05 2.89855e-06 0.110788)
(-1.38557e-05 8.30815e-06 0.108201)
(-1.51898e-05 -3.81537e-07 0.0984816)
(8.37557e-06 -4.15225e-06 0.0926463)
(-2.15929e-05 2.74069e-06 0.110776)
(2.18606e-06 -3.51498e-06 0.0708825)
(-3.96045e-06 5.25978e-07 0.0709261)
(-4.05784e-07 1.09415e-05 0.0985314)
(3.01039e-06 -2.2276e-05 0.110786)
(2.75146e-06 -1.32758e-05 0.0925943)
(8.30254e-06 -1.38933e-05 0.1082)
(-3.11941e-07 -1.51842e-05 0.0984814)
(2.80903e-06 -2.16142e-05 0.110776)
(-4.13831e-06 8.25154e-06 0.0926448)
(-3.41317e-06 -4.61112e-06 0.0869798)
(-4.56411e-06 -3.42601e-06 0.0869789)
(4.36313e-05 4.3621e-05 0.104807)
(4.46671e-06 3.22441e-06 0.0870182)
(3.2573e-06 4.45454e-06 0.0870164)
(-5.08293e-07 -9.40825e-06 0.0909786)
(2.91815e-07 6.00156e-06 0.081578)
(-5.73423e-07 4.94017e-06 0.0909469)
(-1.64306e-06 -7.85214e-06 0.0816225)
(-3.28969e-06 2.16115e-06 0.0708933)
(6.80223e-07 -3.90621e-06 0.0709424)
(-9.40019e-06 -4.78816e-07 0.0909787)
(5.9735e-06 3.27286e-07 0.0815787)
(4.96812e-06 -5.22543e-07 0.0909468)
(-7.88661e-06 -1.61724e-06 0.0816231)
(-1.98299e-05 1.9829e-05 0.113177)
(1.97727e-05 -1.97688e-05 0.113176)
(-1.97978e-05 -1.97706e-05 0.113176)
(1.83545e-05 1.83763e-05 0.113179)
(-1.82595e-05 1.83238e-05 0.113179)
(1.83373e-05 -1.82717e-05 0.113178)
(-1.82136e-05 -1.81946e-05 0.113178)
(1.19288e-05 -2.51019e-07 0.0984987)
(-1.21619e-05 2.68598e-06 0.0925841)
(-1.95196e-05 2.49785e-06 0.110743)
(-1.15908e-05 7.32882e-06 0.108148)
(-1.40835e-05 -2.82431e-07 0.0984474)
(9.25779e-06 -4.175e-06 0.0926373)
(-1.88277e-05 2.44555e-06 0.110731)
(2.28181e-06 -3.34044e-06 0.0708951)
(-3.96288e-06 7.94366e-07 0.07094)
(-2.84623e-07 1.19321e-05 0.098498)
(2.44453e-06 -1.94824e-05 0.110742)
(2.67936e-06 -1.21985e-05 0.0925848)
(7.3032e-06 -1.15552e-05 0.108147)
(-3.31964e-07 -1.41187e-05 0.0984471)
(2.41569e-06 -1.87917e-05 0.11073)
(-4.22744e-06 9.35691e-06 0.0926361)
(-2.82022e-06 -4.42219e-06 0.0869819)
(-4.4038e-06 -2.81537e-06 0.086981)
(4.38905e-05 4.39299e-05 0.104756)
(4.96938e-06 3.52265e-06 0.087021)
(3.55122e-06 4.96462e-06 0.0870192)
(-5.26296e-07 -9.56757e-06 0.0909713)
(3.61538e-07 5.72021e-06 0.0815887)
(-5.02494e-07 4.46497e-06 0.0909388)
(-1.40485e-06 -7.86189e-06 0.0816336)
(-3.29998e-06 2.03805e-06 0.0709099)
(6.25318e-07 -3.89041e-06 0.0709589)
(-9.57076e-06 -5.12845e-07 0.0909714)
(5.68896e-06 3.75531e-07 0.0815895)
(4.4513e-06 -5.0121e-07 0.0909388)
(-7.90168e-06 -1.38432e-06 0.0816343)
(-1.77105e-05 1.77656e-05 0.113179)
(1.78057e-05 -1.77505e-05 0.113178)
(-1.77349e-05 -1.77292e-05 0.113178)
(1.60884e-05 1.60874e-05 0.113177)
(-1.61472e-05 1.61162e-05 0.113177)
(1.61289e-05 -1.61583e-05 0.113176)
(-1.62116e-05 -1.62144e-05 0.113176)
(1.27317e-05 -4.24214e-07 0.0984698)
(-1.14879e-05 2.55166e-06 0.0925779)
(-1.69112e-05 2.03155e-06 0.110697)
(-9.4321e-06 5.96072e-06 0.108098)
(-1.2948e-05 -3.37221e-07 0.0984181)
(9.80116e-06 -4.24382e-06 0.0926317)
(-1.62816e-05 1.859e-06 0.110685)
(2.08209e-06 -3.33273e-06 0.0709124)
(-3.97722e-06 6.54929e-07 0.070957)
(-3.98223e-07 1.27294e-05 0.0984692)
(2.10739e-06 -1.68961e-05 0.110696)
(2.51491e-06 -1.14876e-05 0.0925786)
(6.02089e-06 -9.47878e-06 0.108097)
(-2.84541e-07 -1.29276e-05 0.0984178)
(1.93993e-06 -1.62951e-05 0.110684)
(-4.25463e-06 9.76814e-06 0.0926303)
(-2.4198e-06 -4.18763e-06 0.0869871)
(-4.13713e-06 -2.42862e-06 0.0869862)
(4.3983e-05 4.39775e-05 0.104707)
(5.1959e-06 3.5489e-06 0.0870269)
(3.59426e-06 5.18242e-06 0.0870251)
(-4.88322e-07 -9.86524e-06 0.0909676)
(4.82575e-07 5.64688e-06 0.0816012)
(-5.3479e-07 4.19411e-06 0.0909341)