/*--------------------------------*- C++ -*----------------------------------*\
| =========                 |                                                 |
| \\      /  F ield         | OpenFOAM: The Open Source CFD Toolbox           |
|  \\    /   O peration     | Version:  2312                                  |
|   \\  /    A nd           | Website:  www.openfoam.com                      |
|    \\/     M anipulation  |                                                 |
\*---------------------------------------------------------------------------*/
FoamFile
{
    version     2.0;
    format      ascii;
    arch        "LSB;label=32;scalar=64";
    class       volScalarField;
    location    "950";
    object      k;
}
// * * * * * * * * * * * * * * * * * * * * * * * * * * * * * * * * * * * * * //

dimensions      [0 2 -2 0 0 0 0];

internalField   nonuniform List<scalar> 
43008
(
1.571e-05
1.6115e-05
1.52903e-05
1.60662e-05
1.6066e-05
1.76121e-05
1.72535e-05
1.75282e-05
1.61148e-05
1.61146e-05
1.60674e-05
1.60673e-05
1.75284e-05
1.61147e-05
1.61148e-05
1.60674e-05
1.60675e-05
1.60677e-05
1.6067e-05
1.72551e-05
1.75306e-05
1.61149e-05
1.60676e-05
1.60675e-05
1.75181e-05
1.76027e-05
1.60659e-05
1.60658e-05
1.76034e-05
1.60658e-05
1.6066e-05
1.60654e-05
1.7604e-05
1.6066e-05
5.00964e-05
6.99078e-05
4.9337e-05
6.99368e-05
6.97735e-05
5.00982e-05
6.99084e-05
4.93359e-05
6.99376e-05
1.571e-05
1.57099e-05
1.57097e-05
1.53906e-05
1.53906e-05
1.53905e-05
1.53904e-05
2.60099e-05
1.60925e-05
4.29296e-05
1.53537e-05
6.97975e-05
6.97735e-05
2.60117e-05
1.54375e-05
4.24516e-05
1.60923e-05
2.54923e-05
1.53534e-05
4.2934e-05
1.7336e-05
5.77563e-05
5.77671e-05
5.19458e-05
6.99788e-05
5.12822e-05
7.00056e-05
6.9713e-05
6.96909e-05
5.19477e-05
6.99795e-05
5.12815e-05
7.00067e-05
1.52903e-05
1.52902e-05
1.529e-05
2.76535e-05
4.38824e-05
1.51275e-05
1.60686e-05
2.71071e-05
4.43312e-05
1.50599e-05
6.9713e-05
6.96909e-05
2.76574e-05
1.51272e-05
4.38849e-05
1.60686e-05
2.71095e-05
1.50597e-05
4.43335e-05
5.83097e-05
5.83196e-05
1.77273e-05
5.85655e-05
5.85769e-05
6.97959e-05
6.97719e-05
6.97975e-05
6.97736e-05
5.74663e-05
5.74782e-05
1.73506e-05
5.77584e-05
5.77703e-05
6.97298e-05
6.97528e-05
6.97315e-05
6.97545e-05
1.74098e-05
5.81765e-05
5.81881e-05
5.79031e-05
5.79147e-05
5.00963e-05
6.99045e-05
4.93362e-05
6.99335e-05
2.60167e-05
4.24539e-05
1.54378e-05
1.60921e-05
2.54892e-05
4.29308e-05
1.53537e-05
2.60162e-05
4.24563e-05
1.54375e-05
1.6092e-05
2.54881e-05
4.29347e-05
1.53533e-05
5.03434e-05
6.99723e-05
6.9944e-05
5.10556e-05
5.03427e-05
6.99688e-05
6.99406e-05
5.10555e-05
2.62857e-05
1.60787e-05
4.36441e-05
1.51985e-05
4.31815e-05
1.52743e-05
2.68265e-05
2.62849e-05
1.60787e-05
4.36477e-05
1.51981e-05
4.31845e-05
1.5274e-05
2.68276e-05
1.73504e-05
5.77656e-05
5.77601e-05
6.97719e-05
6.97315e-05
6.97546e-05
1.74116e-05
5.81834e-05
5.81776e-05
5.79104e-05
5.7905e-05
6.97298e-05
6.97527e-05
2.60158e-05
4.24553e-05
1.54377e-05
1.60921e-05
2.54878e-05
4.29358e-05
1.53536e-05
5.00978e-05
6.9904e-05
4.93352e-05
6.99332e-05
2.60166e-05
1.54375e-05
4.24552e-05
1.60921e-05
2.54885e-05
1.53533e-05
4.29332e-05
5.03425e-05
6.9973e-05
6.99446e-05
5.10575e-05
2.62862e-05
1.60787e-05
4.36487e-05
1.51984e-05
4.31846e-05
1.52742e-05
2.68287e-05
5.03417e-05
6.99685e-05
6.99403e-05
5.10571e-05
2.62854e-05
1.60788e-05
1.51981e-05
4.36477e-05
1.52739e-05
4.31841e-05
2.68286e-05
5.00819e-05
6.99355e-05
2.60153e-05
1.60916e-05
1.53533e-05
4.293e-05
5.0091e-05
6.99324e-05
2.62871e-05
1.60791e-05
4.36442e-05
1.51985e-05
4.31809e-05
1.52743e-05
2.68233e-05
5.03504e-05
6.99705e-05
6.99421e-05
5.10422e-05
2.62834e-05
1.60783e-05
1.51981e-05
4.36422e-05
1.5274e-05
4.31796e-05
2.68288e-05
5.03454e-05
6.99675e-05
6.99389e-05
5.10507e-05
5.7473e-05
5.74678e-05
1.73466e-05
5.77668e-05
5.77605e-05
6.97966e-05
6.97727e-05
6.97315e-05
6.97545e-05
1.74083e-05
5.81846e-05
5.81783e-05
5.79096e-05
5.79046e-05
6.97307e-05
6.97537e-05
2.60183e-05
1.54376e-05
4.2456e-05
1.60922e-05
2.54897e-05
1.53535e-05
4.29375e-05
5.00918e-05
6.99079e-05
4.93451e-05
6.99371e-05
5.00918e-05
6.99042e-05
4.93448e-05
6.99335e-05
2.62899e-05
1.6079e-05
1.51982e-05
4.36446e-05
1.5274e-05
4.31814e-05
2.68264e-05
2.62858e-05
1.60789e-05
1.51983e-05
4.3649e-05
1.52741e-05
4.31847e-05
2.68306e-05
5.03516e-05
6.99724e-05
6.99442e-05
5.1051e-05
5.03511e-05
6.99688e-05
6.99405e-05
5.10506e-05
6.97716e-05
6.97734e-05
1.74192e-05
5.81744e-05
5.81845e-05
5.7901e-05
5.79113e-05
6.97295e-05
6.97526e-05
6.97315e-05
6.97545e-05
6.97111e-05
6.96893e-05
6.9713e-05
6.96911e-05
5.83118e-05
5.83233e-05
1.77438e-05
5.85688e-05
5.85805e-05
5.19455e-05
6.99751e-05
5.12813e-05
7.00024e-05
2.76581e-05
4.38841e-05
1.51275e-05
1.60685e-05
2.71081e-05
4.43274e-05
1.506e-05
2.76608e-05
4.38858e-05
1.51272e-05
1.60682e-05
2.71065e-05
4.43338e-05
1.50597e-05
5.83184e-05
5.83137e-05
1.77445e-05
5.85744e-05
5.8569e-05
6.97112e-05
6.96893e-05
2.76549e-05
4.38879e-05
1.51275e-05
1.60683e-05
2.71074e-05
4.43385e-05
1.506e-05
5.1947e-05
6.99749e-05
5.12805e-05
7.00019e-05
2.76551e-05
1.51271e-05
4.38859e-05
1.60686e-05
2.71066e-05
1.50596e-05
4.43334e-05
5.19332e-05
6.99769e-05
5.12884e-05
7.0004e-05
2.76592e-05
1.51272e-05
4.38838e-05
1.60677e-05
2.71027e-05
1.50596e-05
4.43349e-05
5.19407e-05
6.99737e-05
5.12838e-05
7.00011e-05
5.83182e-05
5.83133e-05
1.77446e-05
5.8576e-05
5.85695e-05
6.97122e-05
6.96902e-05
2.76562e-05
1.51274e-05
4.38881e-05
1.60684e-05
2.71066e-05
1.50599e-05
4.43377e-05
5.19408e-05
6.99789e-05
5.12904e-05
7.00061e-05
5.19404e-05
6.99752e-05
5.12898e-05
7.00024e-05
6.9711e-05
6.9689e-05
6.9713e-05
6.9691e-05
6.97453e-05
4.98484e-05
6.90333e-05
5.70682e-05
6.90256e-05
5.68493e-05
6.97565e-05
7.11551e-05
7.30054e-05
6.99189e-05
7.11512e-05
7.31036e-05
6.97445e-05
4.95911e-05
6.9019e-05
5.64659e-05
6.97339e-05
6.90253e-05
5.66908e-05
7.11316e-05
7.32521e-05
6.99258e-05
7.31579e-05
7.11354e-05
6.97952e-05
6.9776e-05
6.97453e-05
4.98478e-05
5.7068e-05
6.90338e-05
5.68481e-05
6.9026e-05
6.97565e-05
7.11548e-05
7.30009e-05
6.99198e-05
7.1151e-05
7.31035e-05
6.97446e-05
4.9593e-05
5.64646e-05
6.90195e-05
6.9734e-05
5.66908e-05
6.90258e-05
7.11313e-05
7.32512e-05
6.99265e-05
7.3154e-05
7.11351e-05
6.97951e-05
6.97758e-05
8.651e-05
7.26168e-05
7.26107e-05
7.2616e-05
7.26099e-05
8.66062e-05
5.44787e-05
5.75363e-05
3.58083e-05
6.84881e-05
5.45453e-05
5.75477e-05
3.58277e-05
6.8499e-05
8.64591e-05
7.26394e-05
7.26333e-05
5.47232e-05
6.85363e-05
5.76863e-05
3.62393e-05
3.61031e-05
6.85044e-05
5.48316e-05
5.479e-05
6.85473e-05
5.76965e-05
3.6258e-05
3.61217e-05
6.8517e-05
5.49009e-05
6.97974e-05
5.17256e-05
6.90942e-05
5.84309e-05
6.9081e-05
5.82346e-05
6.98096e-05
7.10756e-05
7.35766e-05
6.99892e-05
7.10722e-05
7.36546e-05
6.9796e-05
5.15093e-05
6.90629e-05
5.79097e-05
6.97838e-05
6.90759e-05
5.81113e-05
7.10523e-05
7.37749e-05
6.99955e-05
7.36994e-05
7.10555e-05
6.9711e-05
6.96926e-05
6.97973e-05
5.17251e-05
5.84305e-05
6.90948e-05
5.82333e-05
6.90813e-05
6.98096e-05
7.10754e-05
7.35709e-05
6.99902e-05
7.1072e-05
7.36553e-05
6.97959e-05
5.15113e-05
5.79085e-05
6.90631e-05
6.97837e-05
5.81112e-05
6.90764e-05
7.1052e-05
7.37742e-05
6.99962e-05
7.3696e-05
7.10553e-05
6.9711e-05
6.96928e-05
8.7055e-05
7.25262e-05
7.25201e-05
7.25256e-05
7.25196e-05
8.71321e-05
5.58352e-05
3.7369e-05
6.86433e-05
5.83733e-05
5.57351e-05
3.75004e-05
6.86713e-05
5.59021e-05
3.73877e-05
6.86555e-05
5.83839e-05
5.58026e-05
3.75194e-05
6.8683e-05
8.70106e-05
7.25482e-05
7.25422e-05
8.69256e-05
7.25488e-05
7.25427e-05
5.60523e-05
6.87129e-05
5.85039e-05
3.79114e-05
3.77795e-05
6.86865e-05
5.61528e-05
5.61185e-05
6.87246e-05
5.85132e-05
3.79295e-05
3.77988e-05
6.86986e-05
5.62194e-05
6.97936e-05
6.97741e-05
6.9795e-05
6.97759e-05
8.65163e-05
7.26182e-05
7.26117e-05
7.26174e-05
7.26109e-05
8.66105e-05
5.44777e-05
3.56693e-05
6.84558e-05
5.75385e-05
5.43658e-05
6.8489e-05
3.58098e-05
5.45465e-05
3.56854e-05
6.84682e-05
5.75512e-05
5.44319e-05
6.85007e-05
3.58308e-05
8.64635e-05
7.264e-05
7.26335e-05
8.63666e-05
7.2641e-05
7.26344e-05
5.47231e-05
6.8537e-05
5.76883e-05
3.62398e-05
6.85053e-05
5.48332e-05
3.61006e-05
5.47898e-05
6.85487e-05
5.77e-05
3.626e-05
6.85175e-05
5.49005e-05
3.61172e-05
6.97318e-05
6.97507e-05
6.97336e-05
6.97524e-05
8.67503e-05
7.25947e-05
7.25882e-05
8.66602e-05
7.25954e-05
7.25889e-05
5.54065e-05
3.70847e-05
5.81111e-05
6.86287e-05
6.85996e-05
3.69492e-05
5.55118e-05
5.54748e-05
3.71039e-05
5.81224e-05
6.86408e-05
6.8612e-05
3.69676e-05
5.55779e-05
5.51761e-05
6.85529e-05
3.65271e-05
5.79708e-05
5.50699e-05
6.8584e-05
3.66644e-05
5.52446e-05
6.85651e-05
3.65443e-05
5.79831e-05
5.51369e-05
6.85959e-05
3.66833e-05
8.67992e-05
7.25726e-05
7.25662e-05
7.2572e-05
7.25655e-05
8.68857e-05
6.97441e-05
4.98479e-05
6.90327e-05
5.70663e-05
6.90249e-05
5.68451e-05
6.97553e-05
7.11539e-05
7.29859e-05
6.99156e-05
7.11502e-05
7.30866e-05
6.97434e-05
4.95909e-05
6.90183e-05
5.64616e-05
6.90246e-05
6.97329e-05
5.66891e-05
7.11304e-05
7.32345e-05
6.99226e-05
7.31377e-05
7.11341e-05
6.97692e-05
6.90349e-05
5.72174e-05
5.05845e-05
6.97575e-05
6.90448e-05
5.74303e-05
7.10922e-05
6.99615e-05
7.3529e-05
7.10956e-05
7.34423e-05
7.11156e-05
7.3305e-05
6.99551e-05
7.11119e-05
7.33946e-05
6.97704e-05
5.08213e-05
6.90591e-05
5.77779e-05
6.97824e-05
6.90474e-05
5.75707e-05
6.9768e-05
6.90342e-05
5.72133e-05
5.05844e-05
6.97563e-05
6.90442e-05
5.74285e-05
7.10907e-05
6.99583e-05
7.35105e-05
7.34227e-05
7.1094e-05
7.11141e-05
7.32831e-05
6.99519e-05
7.11106e-05
7.33769e-05
6.97691e-05
5.08205e-05
6.90586e-05
5.77757e-05
6.90467e-05
5.75667e-05
6.97811e-05
8.65123e-05
7.26125e-05
7.26177e-05
7.26116e-05
7.26168e-05
8.66135e-05
5.45487e-05
5.75466e-05
6.85008e-05
3.58303e-05
5.44824e-05
5.75408e-05
3.5811e-05
6.84909e-05
8.6467e-05
7.26352e-05
7.26404e-05
5.47866e-05
6.85491e-05
5.76955e-05
3.62599e-05
6.85147e-05
3.61179e-05
5.4903e-05
5.47162e-05
6.8539e-05
5.76901e-05
3.62406e-05
3.60981e-05
6.85043e-05
5.48349e-05
6.97935e-05
6.9774e-05
6.97336e-05
6.97524e-05
8.67541e-05
7.2589e-05
7.25942e-05
8.66559e-05
7.25898e-05
7.2595e-05
5.54701e-05
3.71053e-05
5.81179e-05
6.86411e-05
3.69676e-05
6.86085e-05
5.55811e-05
5.5403e-05
3.70859e-05
5.8113e-05
6.86308e-05
6.85981e-05
3.69465e-05
5.55128e-05
5.52495e-05
6.85626e-05
3.65452e-05
5.79782e-05
3.6684e-05
5.5134e-05
6.85958e-05
5.51788e-05
6.85523e-05
3.65253e-05
5.79721e-05
5.50644e-05
6.85856e-05
3.66657e-05
8.67941e-05
7.25672e-05
7.25722e-05
7.25664e-05
7.25715e-05
8.6888e-05
6.97318e-05
6.97507e-05
6.97439e-05
4.98469e-05
6.90331e-05
5.70635e-05
6.90253e-05
5.68443e-05
6.97551e-05
7.11523e-05
7.29776e-05
6.99154e-05
7.11484e-05
7.30828e-05
6.97432e-05
4.95923e-05
6.90187e-05
5.64609e-05
6.9025e-05
6.97326e-05
5.66864e-05
7.11288e-05
7.32283e-05
6.99222e-05
7.31346e-05
7.11326e-05
6.97692e-05
5.72162e-05
6.90352e-05
5.05865e-05
6.97575e-05
5.74303e-05
6.90453e-05
7.10918e-05
6.99623e-05
7.35273e-05
7.10953e-05
7.34399e-05
7.11152e-05
7.32985e-05
6.99559e-05
7.11116e-05
7.33943e-05
6.97704e-05
5.08205e-05
5.77778e-05
6.90596e-05
6.97824e-05
5.75696e-05
6.90477e-05
6.97677e-05
6.90346e-05
5.72128e-05
5.0586e-05
6.97561e-05
6.90446e-05
5.74255e-05
7.10893e-05
6.9958e-05
7.35058e-05
7.34193e-05
7.10927e-05
7.11127e-05
7.32813e-05
6.99514e-05
7.11091e-05
7.33712e-05
6.97689e-05
5.08197e-05
6.90589e-05
5.77728e-05
6.90472e-05
5.75662e-05
6.97809e-05
6.97434e-05
4.98561e-05
5.70472e-05
6.9032e-05
5.68583e-05
6.90244e-05
6.97544e-05
7.11286e-05
7.32444e-05
6.99246e-05
7.31454e-05
7.1133e-05
6.97432e-05
4.98507e-05
6.9032e-05
5.70617e-05
6.90243e-05
5.68459e-05
6.97543e-05
7.11287e-05
7.32297e-05
6.99214e-05
7.31318e-05
7.11323e-05
6.9767e-05
5.72256e-05
6.90336e-05
5.05707e-05
6.97555e-05
5.74103e-05
6.90434e-05
7.10889e-05
6.99599e-05
7.35197e-05
7.34302e-05
7.10931e-05
7.11131e-05
7.32919e-05
6.99534e-05
7.11088e-05
7.33846e-05
6.97682e-05
5.08279e-05
5.77586e-05
6.90578e-05
5.75782e-05
6.90461e-05
6.97801e-05
6.9767e-05
6.90335e-05
5.72139e-05
5.05794e-05
6.97553e-05
6.90434e-05
5.74238e-05
7.1089e-05
6.99567e-05
7.35039e-05
7.34163e-05
7.10924e-05
7.11125e-05
7.32771e-05
6.99503e-05
7.11089e-05
7.337e-05
6.97681e-05
5.08232e-05
6.90578e-05
5.77714e-05
6.9046e-05
5.75671e-05
6.97801e-05
8.651e-05
7.26121e-05
7.26176e-05
7.26113e-05
7.26168e-05
8.66103e-05
5.45498e-05
3.56886e-05
6.84647e-05
5.75471e-05
6.85008e-05
5.44282e-05
3.58287e-05
5.44791e-05
3.56721e-05
6.84563e-05
5.75407e-05
3.58083e-05
5.43653e-05
6.84895e-05
8.64639e-05
7.26339e-05
7.26394e-05
7.26348e-05
8.63596e-05
7.26403e-05
5.47863e-05
6.85492e-05
5.7695e-05
3.62592e-05
6.85143e-05
3.61202e-05
5.49024e-05
5.47232e-05
6.85374e-05
5.76898e-05
3.62382e-05
3.61035e-05
6.85056e-05
5.48335e-05
6.97942e-05
6.9775e-05
6.97336e-05
6.97523e-05
8.67502e-05
7.25886e-05
7.25942e-05
8.6654e-05
7.25893e-05
7.25949e-05
5.54729e-05
3.71056e-05
5.81174e-05
6.86394e-05
3.69685e-05
6.86101e-05
5.55803e-05
5.54077e-05
3.70841e-05
5.81124e-05
6.86294e-05
6.85998e-05
3.69524e-05
5.55115e-05
5.52462e-05
6.85619e-05
3.65471e-05
5.7979e-05
3.66852e-05
5.51348e-05
6.85954e-05
5.51782e-05
6.8553e-05
3.65302e-05
5.79729e-05
5.50703e-05
6.85845e-05
3.66642e-05
8.67921e-05
7.25666e-05
7.25722e-05
7.2566e-05
7.25715e-05
8.68852e-05
6.97328e-05
6.97515e-05
6.97453e-05
4.98568e-05
5.70651e-05
6.90331e-05
5.68512e-05
6.90253e-05
6.97564e-05
7.11553e-05
7.29964e-05
6.99191e-05
7.30998e-05
7.11515e-05
6.97444e-05
4.95867e-05
5.64678e-05
6.90187e-05
5.66879e-05
6.97339e-05
6.90249e-05
7.11319e-05
7.32472e-05
6.99259e-05
7.31498e-05
7.11356e-05
6.97432e-05
4.98563e-05
5.70651e-05
6.90323e-05
5.68469e-05
6.90245e-05
6.97545e-05
7.11526e-05
7.29786e-05
6.99155e-05
7.11488e-05
7.30874e-05
6.97425e-05
4.95866e-05
5.64637e-05
6.90179e-05
6.97319e-05
5.66881e-05
6.90241e-05
7.11291e-05
7.32347e-05
6.99222e-05
7.31315e-05
7.11328e-05
6.97692e-05
5.72191e-05
6.90347e-05
5.05801e-05
6.97575e-05
5.74275e-05
6.90446e-05
7.10925e-05
6.99618e-05
7.3523e-05
7.34372e-05
7.10959e-05
7.11158e-05
7.32949e-05
6.99553e-05
7.11122e-05
7.33908e-05
6.97704e-05
5.08296e-05
5.77751e-05
6.90591e-05
5.75724e-05
6.90472e-05
6.97824e-05
6.97671e-05
5.7215e-05
6.90339e-05
5.05798e-05
6.97554e-05
5.74273e-05
6.90438e-05
7.10895e-05
6.9958e-05
7.35105e-05
7.34164e-05
7.1093e-05
7.11129e-05
7.32772e-05
6.99516e-05
7.11093e-05
7.33755e-05
6.97683e-05
5.08291e-05
5.77747e-05
6.90583e-05
5.75681e-05
6.90464e-05
6.97803e-05
6.97931e-05
6.97739e-05
6.97949e-05
6.97758e-05
8.6746e-05
7.25934e-05
7.25873e-05
8.66544e-05
7.25941e-05
7.2588e-05
5.54082e-05
3.70841e-05
5.81089e-05
6.86279e-05
5.55114e-05
3.69526e-05
6.85984e-05
5.54742e-05
3.71031e-05
5.81188e-05
6.86394e-05
5.55785e-05
3.69708e-05
6.86109e-05
5.51762e-05
6.8552e-05
3.65299e-05
5.7969e-05
5.50703e-05
3.6664e-05
6.8583e-05
5.52454e-05
6.85643e-05
3.65484e-05
5.79796e-05
5.51367e-05
3.66836e-05
6.85946e-05
8.67929e-05
7.25714e-05
7.25654e-05
8.68815e-05
7.25708e-05
7.25647e-05
6.97316e-05
6.97504e-05
6.97336e-05
6.97523e-05
6.97093e-05
6.9691e-05
6.97111e-05
6.96928e-05
8.70599e-05
7.25273e-05
7.2521e-05
7.25267e-05
7.25204e-05
8.71375e-05
5.58359e-05
3.7366e-05
6.86439e-05
5.8376e-05
5.57324e-05
6.86723e-05
3.74992e-05
5.59026e-05
3.73852e-05
6.86562e-05
5.83874e-05
5.58017e-05
6.86844e-05
3.75196e-05
8.70145e-05
7.25493e-05
7.25428e-05
8.69307e-05
7.255e-05
7.25435e-05
5.60504e-05
6.8714e-05
5.85062e-05
3.79092e-05
6.86875e-05
5.61496e-05
3.77772e-05
5.61195e-05
6.87261e-05
5.85172e-05
3.79301e-05
6.86997e-05
5.62168e-05
3.7796e-05
6.97959e-05
5.17248e-05
6.90957e-05
5.84282e-05
6.90786e-05
5.82302e-05
6.98083e-05
7.10738e-05
7.35527e-05
6.99861e-05
7.10706e-05
7.36379e-05
6.97946e-05
5.15091e-05
6.90619e-05
5.79056e-05
6.90758e-05
6.97824e-05
5.81088e-05
7.10505e-05
7.37583e-05
6.99922e-05
7.36785e-05
7.10536e-05
8.70541e-05
7.25218e-05
7.2527e-05
7.25211e-05
7.25263e-05
8.71406e-05
5.59056e-05
3.73849e-05
6.86535e-05
5.83822e-05
6.86846e-05
5.57992e-05
3.75192e-05
5.58363e-05
3.73644e-05
6.8643e-05
5.83765e-05
3.75014e-05
5.57303e-05
6.86744e-05
8.70177e-05
7.25438e-05
7.25489e-05
7.25444e-05
8.69274e-05
7.25496e-05
5.61168e-05
6.87269e-05
5.85128e-05
3.79294e-05
6.86963e-05
3.77968e-05
5.62153e-05
5.60497e-05
6.87166e-05
5.85081e-05
3.79114e-05
3.77757e-05
6.8686e-05
5.61473e-05
6.97094e-05
6.9691e-05
6.97958e-05
5.17244e-05
6.9094e-05
5.84254e-05
6.90808e-05
5.82299e-05
6.98081e-05
7.10727e-05
7.35519e-05
6.99856e-05
7.10694e-05
7.36312e-05
6.97944e-05
5.15106e-05
6.90626e-05
5.79053e-05
6.90757e-05
6.97822e-05
5.81059e-05
7.10494e-05
7.37512e-05
6.99921e-05
7.3677e-05
7.10526e-05
6.97949e-05
5.17323e-05
5.84131e-05
6.90949e-05
5.82401e-05
6.90776e-05
6.98071e-05
7.1073e-05
7.35626e-05
6.99876e-05
7.36464e-05
7.1069e-05
6.97935e-05
5.14963e-05
5.79161e-05
6.90611e-05
5.80927e-05
6.97815e-05
6.9075e-05
7.1049e-05
7.37675e-05
6.9994e-05
7.36869e-05
7.10529e-05
6.97949e-05
5.17277e-05
6.9095e-05
5.84242e-05
6.90774e-05
5.82306e-05
6.98073e-05
7.10724e-05
7.35478e-05
6.99846e-05
7.1069e-05
7.36308e-05
6.97936e-05
5.15043e-05
6.9061e-05
5.79058e-05
6.97814e-05
6.90751e-05
5.81048e-05
7.1049e-05
7.37517e-05
6.99907e-05
7.3672e-05
7.10522e-05
8.70521e-05
7.25214e-05
7.2527e-05
7.25208e-05
7.25264e-05
8.71381e-05
5.59033e-05
3.7386e-05
6.86546e-05
5.83832e-05
6.86832e-05
5.58002e-05
3.75216e-05
5.58351e-05
3.73679e-05
6.8644e-05
5.83769e-05
3.75016e-05
5.57352e-05
6.86731e-05
8.70143e-05
7.25434e-05
7.25489e-05
7.2544e-05
8.69245e-05
7.25496e-05
5.61179e-05
6.87247e-05
5.85128e-05
3.79307e-05
6.86982e-05
3.7797e-05
5.62212e-05
5.60514e-05
6.87151e-05
5.8508e-05
3.79124e-05
3.7778e-05
6.86872e-05
5.61571e-05
6.97103e-05
6.9692e-05
6.97973e-05
5.17339e-05
5.84279e-05
6.90963e-05
5.82357e-05
6.90791e-05
6.98096e-05
7.10759e-05
7.35673e-05
6.99896e-05
7.36508e-05
7.10726e-05
6.97959e-05
5.15044e-05
5.79111e-05
6.90624e-05
5.81084e-05
6.97837e-05
6.90764e-05
7.10526e-05
7.37705e-05
6.9996e-05
7.36933e-05
7.10558e-05
6.97952e-05
5.17336e-05
5.84269e-05
6.90956e-05
5.82315e-05
6.90781e-05
6.98076e-05
7.1073e-05
7.35485e-05
6.99859e-05
7.10697e-05
7.36372e-05
6.97939e-05
5.15038e-05
5.79067e-05
6.90615e-05
6.97816e-05
5.81077e-05
6.90756e-05
7.10497e-05
7.37576e-05
6.99922e-05
7.36745e-05
7.10529e-05
6.97091e-05
6.96908e-05
6.9711e-05
6.96928e-05
1.59857e-05
1.59859e-05
1.56004e-05
1.58592e-05
1.58594e-05
1.62836e-05
1.64159e-05
3.44231e-05
1.72596e-05
2.26219e-05
2.26225e-05
1.54944e-05
1.54946e-05
1.51929e-05
1.53774e-05
1.53776e-05
1.57732e-05
1.58981e-05
3.61853e-05
2.36777e-05
2.36824e-05
1.76183e-05
3.60551e-05
2.37457e-05
2.37512e-05
3.44255e-05
2.25448e-05
2.25496e-05
1.72681e-05
3.42906e-05
2.26413e-05
2.26422e-05
3.5619e-05
1.74999e-05
2.34722e-05
2.34728e-05
2.33779e-05
2.33807e-05
3.57491e-05
3.4436e-05
1.72678e-05
2.26394e-05
2.26273e-05
3.56093e-05
1.75011e-05
2.34655e-05
2.34693e-05
2.33907e-05
2.3378e-05
3.57539e-05
3.44254e-05
2.2553e-05
2.25616e-05
1.72683e-05
2.26233e-05
3.42937e-05
2.26424e-05
3.56205e-05
1.75025e-05
2.34743e-05
2.34567e-05
2.3383e-05
2.33912e-05
3.57485e-05
3.56198e-05
1.75131e-05
2.34586e-05
2.34627e-05
3.57508e-05
2.33873e-05
2.33929e-05
3.61813e-05
2.36665e-05
2.36711e-05
1.76308e-05
3.60518e-05
2.37536e-05
2.37618e-05
3.61864e-05
2.36812e-05
2.36686e-05
1.76319e-05
2.37631e-05
3.6047e-05
2.37525e-05
3.6182e-05
2.36722e-05
2.36775e-05
1.76324e-05
2.37505e-05
3.60539e-05
2.37614e-05
1.59856e-05
1.59859e-05
1.56004e-05
1.58591e-05
1.58594e-05
1.62836e-05
1.64158e-05
1.59855e-05
1.59857e-05
1.56003e-05
1.58591e-05
1.58593e-05
1.62835e-05
1.64157e-05
1.59854e-05
1.59856e-05
1.56001e-05
1.5859e-05
1.58592e-05
1.62834e-05
1.64156e-05
1.54941e-05
1.56136e-05
1.56138e-05
1.57353e-05
1.57355e-05
1.61533e-05
1.60248e-05
1.54941e-05
1.56135e-05
1.56138e-05
1.57352e-05
1.57355e-05
1.61532e-05
1.60247e-05
1.54941e-05
1.56134e-05
1.56136e-05
1.57351e-05
1.57353e-05
1.61531e-05
1.60246e-05
1.54939e-05
1.56134e-05
1.56136e-05
1.57351e-05
1.57353e-05
1.61531e-05
1.60246e-05
1.82997e-05
2.58862e-05
3.01505e-05
1.69911e-05
3.00117e-05
1.69785e-05
1.83163e-05
2.07167e-05
3.69318e-05
4.28201e-05
2.53555e-05
2.52647e-05
3.68183e-05
2.07559e-05
1.82863e-05
2.58886e-05
1.69998e-05
3.01477e-05
1.69707e-05
3.00177e-05
1.83302e-05
2.0547e-05
2.49523e-05
3.64071e-05
4.25641e-05
2.05156e-05
2.50333e-05
3.65186e-05
1.81979e-05
2.56141e-05
1.68835e-05
2.95921e-05
1.81573e-05
1.69105e-05
2.97233e-05
2.07153e-05
3.69333e-05
4.28199e-05
2.53587e-05
2.52638e-05
3.68188e-05
2.07512e-05
3.47389e-05
1.73362e-05
2.2898e-05
2.29026e-05
2.28293e-05
2.28338e-05
3.48714e-05
1.54943e-05
1.54946e-05
1.51929e-05
1.53773e-05
1.53776e-05
1.57731e-05
1.5898e-05
1.54942e-05
1.54944e-05
1.51928e-05
1.53772e-05
1.53774e-05
1.5773e-05
1.58979e-05
1.54942e-05
1.54944e-05
1.51926e-05
1.53772e-05
1.53774e-05
1.5773e-05
1.58979e-05
1.88962e-05
2.75245e-05
3.18591e-05
1.74263e-05
3.17202e-05
1.7408e-05
1.89169e-05
2.14139e-05
2.62379e-05
3.80338e-05
4.39913e-05
2.13671e-05
2.6327e-05
3.81436e-05
1.87591e-05
2.72372e-05
3.12935e-05
1.72863e-05
1.87361e-05
3.14327e-05
1.73048e-05
2.15976e-05
3.85384e-05
4.42235e-05
2.66565e-05
2.65709e-05
3.84311e-05
2.16407e-05
1.88804e-05
2.75267e-05
1.744e-05
3.18586e-05
1.73995e-05
3.17267e-05
1.89413e-05
2.14112e-05
2.62356e-05
3.80349e-05
4.39899e-05
2.13672e-05
2.63303e-05
3.81439e-05
1.87705e-05
2.72401e-05
1.72791e-05
3.12988e-05
1.87217e-05
1.73142e-05
3.14313e-05
2.15913e-05
3.85378e-05
4.42247e-05
2.66681e-05
2.65673e-05
3.84324e-05
2.16623e-05
3.64779e-05
1.77211e-05
2.40431e-05
2.40466e-05
2.39742e-05
2.39787e-05
3.66237e-05
3.47378e-05
1.73263e-05
2.29154e-05
2.29157e-05
3.4868e-05
2.28195e-05
2.28226e-05
3.53115e-05
1.74339e-05
2.30913e-05
2.30962e-05
3.5179e-05
2.318e-05
2.31846e-05
1.82892e-05
2.58831e-05
3.0152e-05
1.70029e-05
3.00158e-05
1.69702e-05
1.83338e-05
2.05548e-05
2.49495e-05
3.64066e-05
4.25648e-05
3.65274e-05
2.05163e-05
2.50383e-05
1.82016e-05
2.56184e-05
2.95883e-05
1.68838e-05
2.97274e-05
1.81603e-05
1.69124e-05
2.07163e-05
3.69382e-05
4.28206e-05
2.53544e-05
3.68205e-05
2.52642e-05
2.07559e-05
1.83003e-05
2.58828e-05
3.01529e-05
1.70022e-05
3.00101e-05
1.69697e-05
1.83167e-05
2.05484e-05
2.49427e-05
3.64041e-05
4.25678e-05
2.05176e-05
3.65185e-05
2.5055e-05
1.8186e-05
2.56174e-05
2.95857e-05
1.68833e-05
1.81713e-05
2.97264e-05
1.69116e-05
2.0718e-05
3.69296e-05
4.28237e-05
2.53717e-05
3.68164e-05
2.07513e-05
2.52611e-05
1.84743e-05
3.04427e-05
1.7064e-05
2.64192e-05
1.84287e-05
3.05784e-05
1.70988e-05
2.11429e-05
2.60022e-05
4.35367e-05
3.77486e-05
2.59056e-05
3.76362e-05
2.11854e-05
2.09642e-05
3.72303e-05
2.55832e-05
4.32917e-05
2.56748e-05
2.09251e-05
3.73449e-05
1.85716e-05
2.66939e-05
3.10078e-05
1.72051e-05
3.08703e-05
1.71659e-05
1.86192e-05
1.84579e-05
3.0437e-05
1.70633e-05
2.6417e-05
1.84392e-05
3.05787e-05
1.7098e-05
2.11445e-05
2.6017e-05
4.3539e-05
3.77404e-05
3.76328e-05
2.5903e-05
2.11806e-05
2.09598e-05
3.72251e-05
2.55781e-05
4.32951e-05
2.09262e-05
3.7341e-05
2.56861e-05
1.85845e-05
2.66941e-05
3.1006e-05
1.72045e-05
3.08648e-05
1.71656e-05
1.86046e-05
3.47261e-05
1.7326e-05
2.29036e-05
2.29076e-05
2.28195e-05
2.28329e-05
3.48778e-05
3.53204e-05
1.74346e-05
2.31091e-05
2.30977e-05
2.31805e-05
3.51705e-05
2.3184e-05
1.83013e-05
2.5884e-05
3.01499e-05
1.69938e-05
3.00171e-05
1.69776e-05
1.83185e-05
2.05525e-05
2.49463e-05
3.64078e-05
4.25701e-05
3.65247e-05
2.05165e-05
2.50503e-05
1.81879e-05
2.56181e-05
2.95916e-05
1.689e-05
2.97248e-05
1.81728e-05
1.69045e-05
2.0716e-05
3.69402e-05
4.2823e-05
2.53644e-05
3.68195e-05
2.52606e-05
2.07557e-05
1.82871e-05
2.58837e-05
1.69933e-05
3.01531e-05
1.6977e-05
3.00112e-05
1.83313e-05
2.05492e-05
2.49577e-05
3.64031e-05
4.25686e-05
2.05163e-05
3.65178e-05
2.50396e-05
1.81996e-05
2.56177e-05
1.68896e-05
2.95849e-05
1.81588e-05
1.69041e-05
2.97273e-05
2.0716e-05
3.69296e-05
4.28235e-05
2.53561e-05
3.6816e-05
2.07521e-05
2.52713e-05
1.84596e-05
3.0444e-05
1.7071e-05
2.6419e-05
1.84406e-05
3.0576e-05
1.70895e-05
2.11429e-05
2.60101e-05
4.35395e-05
3.7751e-05
2.59024e-05
3.7634e-05
2.11856e-05
2.09631e-05
3.72292e-05
2.55809e-05
4.32957e-05
2.56858e-05
2.09253e-05
3.73463e-05
1.85849e-05
2.66942e-05
3.10044e-05
1.71955e-05
3.08719e-05
1.71746e-05
1.86063e-05
1.84715e-05
1.70705e-05
3.04383e-05
2.64199e-05
1.84266e-05
1.70891e-05
3.05788e-05
2.11428e-05
2.60032e-05
4.35386e-05
3.77424e-05
3.76316e-05
2.59156e-05
2.11823e-05
2.09619e-05
3.72244e-05
2.55904e-05
4.32967e-05
2.09249e-05
3.73396e-05
2.56796e-05
1.85693e-05
2.66928e-05
1.71943e-05
3.10064e-05
1.71735e-05
3.0866e-05
1.8616e-05
1.82983e-05
2.58812e-05
1.69913e-05
3.01461e-05
1.6977e-05
3.00148e-05
1.83158e-05
2.07162e-05
3.69265e-05
4.28191e-05
2.53659e-05
2.52532e-05
3.68154e-05
2.07503e-05
1.84576e-05
3.04388e-05
1.70717e-05
2.64153e-05
1.84386e-05
3.05779e-05
1.70868e-05
2.11429e-05
2.60003e-05
4.35359e-05
3.77441e-05
2.11879e-05
2.59085e-05
3.76333e-05
2.09677e-05
3.72264e-05
2.55847e-05
4.32901e-05
2.0925e-05
2.56716e-05
3.73428e-05
1.8583e-05
2.66943e-05
3.1006e-05
1.71902e-05
1.86044e-05
3.08658e-05
1.71747e-05
1.84565e-05
1.70703e-05
3.04411e-05
2.64188e-05
1.84376e-05
1.70879e-05
3.05723e-05
2.11439e-05
2.60133e-05
4.3536e-05
3.77371e-05
3.76303e-05
2.5899e-05
2.11801e-05
2.09607e-05
3.72208e-05
2.5573e-05
4.32896e-05
2.09233e-05
3.73368e-05
2.56793e-05
1.85827e-05
2.66905e-05
1.71937e-05
3.09992e-05
1.71739e-05
3.08689e-05
1.86032e-05
3.4739e-05
1.73315e-05
2.29157e-05
2.28949e-05
2.28325e-05
2.28239e-05
3.487e-05
3.53097e-05
1.74334e-05
2.30984e-05
2.31078e-05
2.31853e-05
3.51819e-05
2.31778e-05
1.82891e-05
2.58831e-05
1.70022e-05
3.01527e-05
1.69705e-05
3.00138e-05
1.83339e-05
2.05712e-05
2.49545e-05
3.63908e-05
4.25709e-05
2.50431e-05
2.05007e-05
3.65303e-05
1.82018e-05
2.56192e-05
1.68838e-05
2.95892e-05
1.69116e-05
1.81602e-05
2.97271e-05
2.07021e-05
3.6945e-05
4.28231e-05
2.53607e-05
2.52693e-05
3.68081e-05
2.07713e-05
1.84708e-05
1.70652e-05
3.04436e-05
2.64169e-05
1.84263e-05
1.70952e-05
3.05766e-05
2.11406e-05
2.60031e-05
4.35366e-05
3.77426e-05
2.1181e-05
2.59057e-05
3.76342e-05
2.09602e-05
3.7228e-05
2.55841e-05
4.32895e-05
2.09241e-05
2.56739e-05
3.73407e-05
1.85702e-05
2.66968e-05
1.72008e-05
3.10021e-05
1.86136e-05
1.71677e-05
3.08707e-05
1.84746e-05
1.70644e-05
3.04408e-05
2.64226e-05
1.84287e-05
1.70986e-05
3.05788e-05
2.11272e-05
2.60069e-05
4.35393e-05
3.7756e-05
3.76218e-05
2.59126e-05
2.12031e-05
2.09853e-05
3.7215e-05
2.55894e-05
4.32961e-05
2.0911e-05
3.73469e-05
2.5679e-05
1.85723e-05
2.66924e-05
1.72049e-05
3.10066e-05
1.71664e-05
3.08678e-05
1.862e-05
3.53138e-05
1.74245e-05
2.31049e-05
2.31099e-05
3.51808e-05
2.31765e-05
2.31795e-05
3.64827e-05
1.77096e-05
2.40544e-05
2.40578e-05
3.66038e-05
2.39645e-05
2.39663e-05
1.88827e-05
2.75236e-05
3.18645e-05
1.74455e-05
3.17239e-05
1.73953e-05
1.89452e-05
2.14291e-05
2.62346e-05
3.80375e-05
4.39904e-05
3.81485e-05
2.13629e-05
2.63319e-05
1.87751e-05
2.72412e-05
3.12975e-05
1.72786e-05
3.14353e-05
1.8724e-05
1.7318e-05
2.15841e-05
3.85514e-05
4.42269e-05
2.66678e-05
3.84322e-05
2.65659e-05
2.1673e-05
1.88976e-05
2.75209e-05
3.18625e-05
1.74448e-05
3.17206e-05
1.7395e-05
1.89185e-05
2.14063e-05
2.62338e-05
3.80319e-05
4.39957e-05
2.13677e-05
3.81468e-05
2.63358e-05
1.87586e-05
2.72422e-05
3.12931e-05
1.72779e-05
1.87357e-05
3.14329e-05
1.73174e-05
2.16009e-05
3.85534e-05
4.42278e-05
2.66715e-05
3.8426e-05
2.16367e-05
2.65701e-05
3.64771e-05
1.771e-05
2.40409e-05
2.40659e-05
2.39595e-05
2.39792e-05
3.66044e-05
1.88908e-05
2.75242e-05
3.18591e-05
1.74307e-05
3.17287e-05
1.74063e-05
1.89401e-05
2.14279e-05
2.62341e-05
3.80373e-05
4.39975e-05
3.81499e-05
2.13629e-05
2.63463e-05
1.87609e-05
2.72419e-05
3.13001e-05
1.72861e-05
3.14306e-05
1.8735e-05
1.73099e-05
2.15843e-05
3.85468e-05
4.42262e-05
2.66809e-05
3.84303e-05
2.65627e-05
2.16722e-05
1.88797e-05
2.7524e-05
1.74297e-05
3.18603e-05
1.74057e-05
3.17218e-05
1.89405e-05
2.14252e-05
2.62423e-05
3.80309e-05
4.39948e-05
2.13621e-05
3.81428e-05
2.63343e-05
1.87713e-05
2.72407e-05
1.72856e-05
3.12946e-05
1.87215e-05
1.73088e-05
3.14327e-05
2.15829e-05
3.85379e-05
4.42279e-05
2.66669e-05
3.84297e-05
2.16705e-05
2.65766e-05
1.88962e-05
2.75199e-05
1.74297e-05
3.18532e-05
1.74052e-05
3.17251e-05
1.8917e-05
2.14063e-05
2.62285e-05
3.80288e-05
4.39903e-05
2.63271e-05
2.13652e-05
3.81427e-05
1.87576e-05
2.72404e-05
1.72852e-05
3.12967e-05
1.73087e-05
1.87346e-05
3.14276e-05
2.15992e-05
3.85532e-05
4.42238e-05
2.66555e-05
2.65692e-05
3.8421e-05
2.16341e-05
3.64808e-05
1.77099e-05
2.40604e-05
2.40438e-05
2.39735e-05
2.39681e-05
3.66189e-05
1.88834e-05
2.75252e-05
1.74458e-05
3.1859e-05
1.73961e-05
3.17223e-05
1.89453e-05
2.14312e-05
2.62429e-05
3.80235e-05
4.39953e-05
2.63387e-05
2.13544e-05
3.8145e-05
1.87754e-05
2.72414e-05
1.72792e-05
3.12967e-05
1.73183e-05
1.87251e-05
3.14348e-05
2.15796e-05
3.85421e-05
4.42273e-05
2.66723e-05
2.65688e-05
3.84267e-05
2.16683e-05
3.60233e-05
3.60197e-05
3.60197e-05
3.60085e-05
3.39295e-05
3.38854e-05
3.38855e-05
3.39587e-05
3.21567e-05
3.2002e-05
3.2002e-05
3.19431e-05
3.05324e-05
3.0221e-05
3.02207e-05
2.99756e-05
2.90295e-05
2.85443e-05
2.85436e-05
2.81078e-05
2.76309e-05
2.69764e-05
2.69756e-05
2.63745e-05
2.63254e-05
2.55194e-05
2.55185e-05
2.47908e-05
2.51052e-05
2.41726e-05
2.41717e-05
2.33616e-05
2.39643e-05
2.29376e-05
2.29367e-05
2.20875e-05
2.28986e-05
2.18132e-05
2.18125e-05
2.09692e-05
2.19043e-05
2.07969e-05
2.07963e-05
1.99958e-05
2.09783e-05
1.98859e-05
1.98854e-05
1.91632e-05
2.01155e-05
1.9078e-05
1.90776e-05
1.84695e-05
1.93148e-05
1.83701e-05
1.83697e-05
1.79096e-05
1.8575e-05
1.77588e-05
1.77585e-05
1.74787e-05
1.78936e-05
1.72426e-05
1.72423e-05
1.71688e-05
1.72683e-05
1.68207e-05
1.68205e-05
1.69868e-05
1.6697e-05
1.64922e-05
1.6492e-05
1.69391e-05
1.61784e-05
1.62569e-05
1.62568e-05
1.70336e-05
1.61151e-05
1.72603e-05
3.62977e-05
3.62919e-05
3.62919e-05
3.62977e-05
3.62919e-05
3.62919e-05
3.62908e-05
3.62908e-05
3.62908e-05
3.62908e-05
3.62919e-05
3.62919e-05
3.62977e-05
3.62919e-05
3.62919e-05
3.62977e-05
3.60085e-05
3.42654e-05