/*--------------------------------*- C++ -*----------------------------------*\
| =========                 |                                                 |
| \\      /  F ield         | OpenFOAM: The Open Source CFD Toolbox           |
|  \\    /   O peration     | Version:  2312                                  |
|   \\  /    A nd           | Website:  www.openfoam.com                      |
|    \\/     M anipulation  |                                                 |
\*---------------------------------------------------------------------------*/
FoamFile
{
    version     2.0;
    format      ascii;
    arch        "LSB;label=32;scalar=64";
    class       volScalarField;
    location    "950";
    object      nut;
}
// * * * * * * * * * * * * * * * * * * * * * * * * * * * * * * * * * * * * * //

dimensions      [0 2 -1 0 0 0 0];

internalField   nonuniform List<scalar> 
43008
(
0.000158327
0.000108544
0.00015417
0.000104788
0.000104786
8.34896e-05
8.51447e-05
8.3949e-05
0.000108518
0.000108504
0.000105633
0.000105618
8.3862e-05
0.000108536
0.000108503
0.000105651
0.000105617
0.000105659
0.000105627
8.51213e-05
8.39991e-05
0.000108527
0.000105657
0.000105641
8.37425e-05
8.33964e-05
0.00010476
0.000104746
8.34658e-05
0.000104778
0.000104745
0.000104755
8.33823e-05
0.000104771
6.51199e-05
4.95122e-05
6.39826e-05
4.95178e-05
2.36523e-05
6.51364e-05
4.95069e-05
6.39626e-05
4.95128e-05
0.000158325
0.000158321
0.000158316
0.000155203
0.0001552
0.000155195
0.000155191
6.16035e-05
0.000107543
6.22935e-05
0.000133382
2.36553e-05
2.36512e-05
6.16051e-05
0.000134458
6.16353e-05
0.000107538
6.08578e-05
0.000133377
6.22978e-05
8.4605e-05
5.93216e-05
5.93219e-05
6.77181e-05
4.95378e-05
6.67022e-05
4.95421e-05
2.3642e-05
2.3638e-05
6.77461e-05
4.95318e-05
6.66841e-05
4.95371e-05
0.000154167
0.000154163
0.000154159
6.41304e-05
6.37335e-05
0.000130145
0.000103914
6.33317e-05
6.4374e-05
0.0001291
2.3641e-05
2.36372e-05
6.41547e-05
0.000130137
6.37405e-05
0.000103911
6.33174e-05
0.000129096
6.44346e-05
6.00773e-05
6.00771e-05
8.30042e-05
6.04494e-05
6.0424e-05
2.36583e-05
2.36546e-05
2.3656e-05
2.3652e-05
5.89307e-05
5.89484e-05
8.48561e-05
5.93442e-05
5.93266e-05
2.36473e-05
2.36514e-05
2.36448e-05
2.36489e-05
8.41323e-05
5.99084e-05
5.98918e-05
5.95135e-05
5.95292e-05
6.51227e-05
4.95066e-05
6.39779e-05
4.95122e-05
6.16706e-05
6.16361e-05
0.000134458
0.000107516
6.08238e-05
6.22971e-05
0.000133376
6.16209e-05
6.16286e-05
0.000134452
0.000107502
6.08492e-05
6.22957e-05
0.000133372
6.53786e-05
4.9531e-05
4.9525e-05
6.64581e-05
6.53752e-05
4.95247e-05
4.95189e-05
6.64609e-05
6.20064e-05
0.000106586
6.33599e-05
0.000131216
6.26939e-05
0.000132281
6.28939e-05
6.20426e-05
0.000106572
6.33573e-05
0.000131215
6.26869e-05
0.000132277
6.28563e-05
8.47177e-05
5.9322e-05
5.93273e-05
2.36533e-05
2.36449e-05
2.36492e-05
8.42491e-05
5.98849e-05
5.98913e-05
5.95226e-05
5.95289e-05
2.36464e-05
2.36502e-05
6.16276e-05
6.16319e-05
0.000134456
0.000107534
6.08439e-05
6.22965e-05
0.000133375
6.51321e-05
4.95027e-05
6.3966e-05
4.95087e-05
6.1645e-05
0.000134443
6.16262e-05
0.000107499
6.08478e-05
0.000133363
6.22901e-05
6.53624e-05
4.95255e-05
4.95194e-05
6.64803e-05
6.20383e-05
0.000106604
6.33561e-05
0.000131217
6.26918e-05
0.000132279
6.28668e-05
6.53656e-05
4.95215e-05
4.95159e-05
6.64728e-05
6.20281e-05
0.000106571
0.000131204
6.33507e-05
0.000132266
6.26861e-05
6.28793e-05
6.50921e-05
4.95138e-05
6.16315e-05
0.000107509
0.000133377
6.22958e-05
6.51155e-05
4.951e-05
6.20442e-05
0.000106613
6.33577e-05
0.000131223
6.26895e-05
0.000132289
6.2827e-05
6.53905e-05
4.95265e-05
4.952e-05
6.64347e-05
6.20267e-05
0.000106581
0.000131218
6.33888e-05
0.000132281
6.26781e-05
6.28816e-05
6.53761e-05
4.95225e-05
4.9516e-05
6.6457e-05
5.89403e-05
5.89485e-05
8.48499e-05
5.93226e-05
5.93281e-05
2.36576e-05
2.36534e-05
2.3644e-05
2.36481e-05
8.40747e-05
5.9887e-05
5.98925e-05
5.95216e-05
5.95298e-05
2.36463e-05
2.36504e-05
6.16386e-05
0.000134452
6.16304e-05
0.000107522
6.08524e-05
0.000133372
6.22962e-05
6.51057e-05
4.95082e-05
6.39973e-05
4.9514e-05
6.51073e-05
4.95022e-05
6.39911e-05
4.95081e-05
6.2049e-05
0.000106611
0.000131219
6.33518e-05
0.00013228
6.26965e-05
6.28629e-05
6.20274e-05
0.000106596
0.000131214
6.33507e-05
0.000132276
6.26895e-05
6.28741e-05
6.53934e-05
4.95268e-05
4.9521e-05
6.64447e-05
6.53897e-05
4.95207e-05
4.9515e-05
6.64475e-05
2.36519e-05
2.36507e-05
8.43601e-05
5.98859e-05
5.98848e-05
5.95224e-05
5.95221e-05
2.36448e-05
2.36488e-05
2.36436e-05
2.36477e-05
2.36441e-05
2.36403e-05
2.36419e-05
2.36381e-05
6.00684e-05
6.00822e-05
8.33472e-05
6.04532e-05
6.04588e-05
6.77191e-05
4.95306e-05
6.66983e-05
4.95364e-05
6.41942e-05
6.37258e-05
0.000130136
0.000103889
6.32939e-05
6.4413e-05
0.000129095
6.41617e-05
6.37161e-05
0.000130133
0.000103874
6.33233e-05
6.44162e-05
0.000129092
6.00753e-05
6.00831e-05
8.33349e-05
6.04492e-05
6.04293e-05
2.36434e-05
2.36395e-05
6.41607e-05
6.37249e-05
0.000130135
0.000103908
6.3317e-05
6.44302e-05
0.000129095
6.77479e-05
4.95278e-05
6.66867e-05
4.95325e-05
6.41719e-05
0.000130121
6.37259e-05
0.000103875
6.3305e-05
0.000129082
6.43672e-05
6.77111e-05
4.95326e-05
6.67085e-05
4.95379e-05
6.42138e-05
0.000130138
6.3705e-05
0.000103882
6.32869e-05
0.000129097
6.44291e-05
6.77263e-05
4.95284e-05
6.66956e-05
4.95341e-05
6.0075e-05
6.00831e-05
8.33335e-05
6.04245e-05
6.04295e-05
2.36433e-05
2.36394e-05
6.41492e-05
0.000130133
6.37318e-05
0.000103894
6.33039e-05
0.000129093
6.43772e-05
6.77028e-05
4.9533e-05
6.67167e-05
4.95382e-05
6.77332e-05
4.95271e-05
6.67098e-05
4.95323e-05
2.36418e-05
2.3638e-05
2.36406e-05
2.36367e-05
3.61704e-05
6.46904e-05
4.0305e-05
6.7547e-05
4.03029e-05
6.71567e-05
3.61733e-05
2.02411e-05
6.67636e-05
4.95115e-05
2.02406e-05
6.69249e-05
3.61702e-05
6.44213e-05
4.03009e-05
6.66397e-05
3.61674e-05
4.03027e-05
6.70369e-05
2.02378e-05
6.71439e-05
4.95182e-05
6.6981e-05
2.02383e-05
2.36559e-05
2.36529e-05
3.61703e-05
6.46732e-05
6.75501e-05
4.03047e-05
6.71494e-05
4.03024e-05
3.61732e-05
2.02414e-05
6.67462e-05
4.95064e-05
2.02409e-05
6.69294e-05
3.61701e-05
6.4438e-05
6.66305e-05
4.03005e-05
3.61674e-05
6.70397e-05
4.03023e-05
2.02381e-05
6.71493e-05
4.95131e-05
6.69743e-05
2.02386e-05
2.36548e-05
2.36517e-05
6.9316e-05
2.1579e-05
2.15759e-05
2.15789e-05
2.15758e-05
6.94721e-05
7.01578e-05
5.90285e-05
6.60172e-05
4.70388e-05
7.02038e-05
5.90294e-05
6.60206e-05
4.70276e-05
6.92589e-05
2.15824e-05
2.15792e-05
7.05212e-05
4.7055e-05
5.92359e-05
6.66653e-05
6.6476e-05
4.70461e-05
7.06581e-05
7.05642e-05
4.70442e-05
5.9235e-05
6.66764e-05
6.64899e-05
4.7039e-05
7.07075e-05
3.6184e-05
6.73366e-05
4.03208e-05
6.94462e-05
4.0321e-05
6.90764e-05
3.6187e-05
2.02299e-05
6.76122e-05
4.95369e-05
2.02295e-05
6.77501e-05
3.61835e-05
6.71043e-05
4.03143e-05
6.86181e-05
3.61804e-05
4.03168e-05
6.89948e-05
2.02266e-05
6.79398e-05
4.95433e-05
6.78036e-05
2.0227e-05
2.36415e-05
2.36384e-05
3.61838e-05
6.73152e-05
6.94397e-05
4.03206e-05
6.90763e-05
4.03201e-05
3.61869e-05
2.02301e-05
6.7601e-05
4.95317e-05
2.02296e-05
6.77555e-05
3.61834e-05
6.71224e-05
6.86134e-05
4.03135e-05
3.61803e-05
6.89915e-05
4.03166e-05
2.02268e-05
6.79388e-05
4.95375e-05
6.77958e-05
2.02273e-05
2.36406e-05
2.36376e-05
7.01251e-05
2.15655e-05
2.15624e-05
2.15655e-05
2.15624e-05
7.02569e-05
7.20897e-05
6.84161e-05
4.70946e-05
6.01598e-05
7.19494e-05
6.86101e-05
4.71006e-05
7.216e-05
6.84301e-05
4.70862e-05
6.01583e-05
7.19894e-05
6.86239e-05
4.70907e-05
7.00725e-05
2.15688e-05
2.15657e-05
6.99293e-05
2.15689e-05
2.15658e-05
7.24274e-05
4.71141e-05
6.0336e-05
6.92543e-05
6.90578e-05
4.71096e-05
7.25487e-05
7.24477e-05
4.71043e-05
6.03421e-05
6.92919e-05
6.90597e-05
4.7101e-05
7.2631e-05
2.36581e-05
2.3655e-05
2.36554e-05
2.36525e-05
6.93235e-05
2.15796e-05
2.15764e-05
2.15795e-05
2.15763e-05
6.94767e-05
7.01597e-05
6.58358e-05
4.70319e-05
5.9052e-05
7.0024e-05
4.70414e-05
6.60189e-05
7.02121e-05
6.58267e-05
4.70218e-05
5.90364e-05
7.00655e-05
4.70298e-05
6.60477e-05
6.9263e-05
2.15828e-05
2.15796e-05
6.91068e-05
2.1583e-05
2.15797e-05
7.05221e-05
4.70579e-05
5.92251e-05
6.66671e-05
4.70488e-05
7.06633e-05
6.64799e-05
7.05638e-05
4.70461e-05
5.92393e-05
6.66903e-05
4.70388e-05
7.07094e-05
6.64711e-05
2.36478e-05
2.3651e-05
2.36454e-05
2.36484e-05
6.96822e-05
2.15762e-05
2.15729e-05
6.95337e-05
2.15765e-05
2.1573e-05
7.14955e-05
6.79645e-05
5.97922e-05
4.70889e-05
4.70827e-05
6.77811e-05
7.16319e-05
7.15407e-05
6.7975e-05
5.98099e-05
4.70776e-05
4.70719e-05
6.7782e-05
7.16731e-05
7.11474e-05
4.70652e-05
6.7128e-05
5.96293e-05
7.10134e-05
4.7074e-05
6.73237e-05
7.11943e-05
4.70547e-05
6.71219e-05
5.96169e-05
7.10564e-05
4.70628e-05
6.73332e-05
6.97394e-05
2.15733e-05
2.15696e-05
2.15732e-05
2.15696e-05
6.98835e-05
3.61689e-05
6.46864e-05
4.03048e-05
6.75496e-05
4.03027e-05
6.71397e-05
3.61718e-05
2.02403e-05
6.67335e-05
4.9506e-05
2.02399e-05
6.69171e-05
3.61687e-05
6.44237e-05
4.03007e-05
6.66223e-05
4.03025e-05
3.61659e-05
6.70383e-05
2.0237e-05
6.71309e-05
4.95126e-05
6.69529e-05
2.02375e-05
3.61766e-05
4.03056e-05
6.76587e-05
6.58064e-05
3.61736e-05
4.03084e-05
6.80475e-05
2.02322e-05
4.95317e-05
6.75573e-05
2.02327e-05
6.74036e-05
2.02355e-05
6.72037e-05
4.95253e-05
2.0235e-05
6.73539e-05
3.61769e-05
6.6048e-05
4.03124e-05
6.85273e-05
3.618e-05
4.03094e-05
6.81443e-05
3.61751e-05
4.03054e-05
6.7643e-05
6.58033e-05
3.6172e-05
4.03082e-05
6.80446e-05
2.02314e-05
4.95255e-05
6.75391e-05
6.73794e-05
2.02319e-05
2.02347e-05
6.71677e-05
4.95191e-05
2.02342e-05
6.73378e-05
3.61753e-05
6.60474e-05
4.03124e-05
6.85275e-05
4.0309e-05
6.81303e-05
3.61785e-05
6.93165e-05
2.15764e-05
2.15793e-05
2.15763e-05
2.15792e-05
6.94812e-05
7.02392e-05
5.90306e-05
4.70331e-05
6.60684e-05
7.01994e-05
5.90362e-05
6.60626e-05
4.70431e-05
6.9269e-05
2.15796e-05
2.15825e-05
7.05341e-05
4.70496e-05
5.92341e-05
6.67108e-05
4.7034e-05
6.64517e-05
7.07376e-05
7.04844e-05
4.70596e-05
5.92421e-05
6.67001e-05
6.64478e-05
4.70439e-05
7.06936e-05
2.36569e-05
2.36538e-05
2.36456e-05
2.36486e-05
6.96876e-05
2.15729e-05
2.15758e-05
6.95261e-05
2.15731e-05
2.15759e-05
7.15048e-05
6.80057e-05
5.98032e-05
4.70814e-05
6.77484e-05
4.70657e-05
7.17032e-05
7.14642e-05
6.80002e-05
5.98102e-05
4.70911e-05
4.70759e-05
6.77356e-05
7.166e-05
7.12332e-05
4.70507e-05
6.71044e-05
5.96097e-05
6.7353e-05
7.10268e-05
4.70652e-05
7.11828e-05
4.70609e-05
6.70952e-05
5.96163e-05
7.09816e-05
4.70754e-05
6.73578e-05
6.97302e-05
2.15698e-05
2.15726e-05
2.15695e-05
2.15724e-05
6.98867e-05
2.36469e-05
2.365e-05
3.61685e-05
6.46763e-05
4.03043e-05
6.75454e-05
4.03021e-05
6.71375e-05
3.61714e-05
2.02404e-05
6.67309e-05
4.95026e-05
2.02398e-05
6.6905e-05
3.61683e-05
6.44316e-05
4.03002e-05
6.6621e-05
4.0302e-05
3.61655e-05
6.70361e-05
2.02371e-05
6.71189e-05
4.95093e-05
6.69572e-05
2.02376e-05
3.61765e-05
6.76519e-05
4.0305e-05
6.58178e-05
3.61735e-05
6.80462e-05
4.0308e-05
2.02325e-05
4.95262e-05
6.75557e-05
2.02329e-05
6.73994e-05
2.02358e-05
6.71849e-05
4.952e-05
2.02353e-05
6.73557e-05
3.61768e-05
6.60341e-05
6.85265e-05
4.03121e-05
3.61799e-05
6.81405e-05
4.03087e-05
3.61747e-05
4.03049e-05
6.76418e-05
6.58119e-05
3.61716e-05
4.03076e-05
6.80404e-05
2.02314e-05
4.95226e-05
6.75337e-05
6.73804e-05
2.02318e-05
2.02347e-05
6.7179e-05
4.95158e-05
2.02343e-05
6.73294e-05
3.6175e-05
6.60375e-05
4.03117e-05
6.85209e-05
4.03087e-05
6.81307e-05
3.61781e-05
3.61701e-05
6.47059e-05
6.75097e-05
4.03038e-05
6.71707e-05
4.03017e-05
3.6173e-05
2.02381e-05
6.71422e-05
4.95146e-05
6.69593e-05
2.02387e-05
3.61688e-05
6.4688e-05
4.03045e-05
6.75426e-05
4.03023e-05
6.71415e-05
3.61717e-05
2.02372e-05
6.71179e-05
4.95106e-05
6.69561e-05
2.02377e-05
3.61763e-05
6.76712e-05
4.03044e-05
6.5773e-05
3.61733e-05
6.80092e-05
4.03071e-05
2.02324e-05
4.95272e-05
6.75503e-05
6.73863e-05
2.0233e-05
2.02358e-05
6.71773e-05
4.95207e-05
2.02353e-05
6.7346e-05
3.61765e-05
6.60609e-05
6.84932e-05
4.03113e-05
6.81562e-05
4.0308e-05
3.61797e-05
3.6175e-05
4.0305e-05
6.76451e-05
6.57971e-05
3.61719e-05
4.03078e-05
6.80372e-05
2.02315e-05
4.9523e-05
6.75312e-05
6.73775e-05
2.0232e-05
2.02349e-05
6.71666e-05
4.95166e-05
2.02344e-05
6.73296e-05
3.61753e-05
6.60464e-05
4.03121e-05
6.85182e-05
4.03086e-05
6.81326e-05
3.61784e-05
6.93156e-05
2.15767e-05
2.15798e-05
2.15766e-05
2.15797e-05
6.94791e-05
7.02161e-05
6.58349e-05
4.70177e-05
5.90306e-05
4.70332e-05
7.00556e-05
6.60241e-05
7.01632e-05
6.58288e-05
4.70322e-05
5.90361e-05
6.60287e-05
7.0027e-05
4.70417e-05
6.92663e-05
2.15799e-05
2.15831e-05
2.15801e-05
6.90981e-05
2.15832e-05
7.05562e-05
4.70501e-05
5.92322e-05
6.66754e-05
4.70349e-05
6.6489e-05
7.07132e-05
7.05255e-05
4.70581e-05
5.92401e-05
6.66755e-05
6.64776e-05
4.70492e-05
7.06655e-05
2.3657e-05
2.3654e-05
2.36445e-05
2.36476e-05
6.96846e-05
2.15732e-05
2.15763e-05
6.95259e-05
2.15733e-05
2.15764e-05
7.1535e-05
6.79815e-05
5.98024e-05
4.70781e-05
6.77812e-05
4.70713e-05
7.16783e-05
7.14974e-05
6.79723e-05
5.98103e-05
4.70894e-05
4.70818e-05
6.77799e-05
7.16337e-05
7.11969e-05
4.70514e-05
6.71354e-05
5.96112e-05
6.7338e-05
7.10506e-05
4.70646e-05
7.11509e-05
4.70648e-05
6.71235e-05
5.96174e-05
7.10154e-05
4.70744e-05
6.73253e-05
6.97299e-05
2.15699e-05
2.15731e-05
2.15698e-05
2.15729e-05
6.98852e-05
2.36468e-05
2.36498e-05
3.61708e-05
6.47052e-05
6.75389e-05
4.03043e-05
6.7162e-05
4.03022e-05
3.61737e-05
2.02421e-05
6.67519e-05
4.95077e-05
6.69264e-05
2.02416e-05
3.61706e-05
6.4406e-05
6.66417e-05
4.03002e-05
6.70275e-05
3.61679e-05
4.03019e-05
2.02388e-05
6.7139e-05
4.95143e-05
6.69778e-05
2.02393e-05
3.61677e-05
6.47017e-05
6.75458e-05
4.03036e-05
6.71409e-05
4.03014e-05
3.61707e-05
2.024e-05
6.67318e-05
4.95017e-05
2.02395e-05
6.69111e-05
3.61676e-05
6.4408e-05
6.66242e-05
4.02995e-05
3.61648e-05
6.70358e-05
4.03012e-05
2.02367e-05
6.71261e-05
4.95082e-05
6.69519e-05
2.02372e-05
3.6177e-05
6.76625e-05
4.03049e-05
6.57855e-05
3.6174e-05
6.80339e-05
4.03077e-05
2.02332e-05
4.95276e-05
6.75523e-05
6.74025e-05
2.02337e-05
2.02365e-05
6.71866e-05
4.95211e-05
2.0236e-05
6.73542e-05
3.61774e-05
6.60663e-05
6.85146e-05
4.0312e-05
6.81515e-05
4.03085e-05
3.61804e-05
3.6174e-05
6.7644e-05
4.03042e-05
6.57876e-05
3.61709e-05
6.80422e-05
4.0307e-05
2.0231e-05
4.95213e-05
6.75403e-05
6.73736e-05
2.02316e-05
2.02344e-05
6.7166e-05
4.9515e-05
2.02338e-05
6.73361e-05
3.61742e-05
6.60613e-05
6.85224e-05
4.03113e-05
6.81318e-05
4.03078e-05
3.61774e-05
2.36555e-05
2.36524e-05
2.36543e-05
2.36513e-05
6.96774e-05
2.15756e-05
2.15724e-05
6.95268e-05
2.15757e-05
2.15725e-05
7.1475e-05
6.79649e-05
5.98036e-05
4.70859e-05
7.16508e-05
6.7774e-05
4.70789e-05
7.1519e-05
6.79681e-05
5.98031e-05
4.70761e-05
7.16941e-05
6.77909e-05
4.70711e-05
7.11769e-05
4.70626e-05
6.71241e-05
5.96112e-05
7.10044e-05
6.73224e-05
4.70711e-05
7.12251e-05
4.70542e-05
6.71314e-05
5.96107e-05
7.10481e-05
6.73279e-05
4.70613e-05
6.97312e-05
2.15723e-05
2.15691e-05
6.98788e-05
2.15722e-05
2.15691e-05
2.36453e-05
2.36483e-05
2.36441e-05
2.36471e-05
2.36437e-05
2.36406e-05
2.36414e-05
2.36384e-05
7.0131e-05
2.15664e-05
2.15627e-05
2.15664e-05
2.15627e-05
7.02636e-05
7.20973e-05
6.842e-05
4.70972e-05
6.0184e-05
7.19629e-05
4.71038e-05
6.86154e-05
7.21382e-05
6.84271e-05
4.70862e-05
6.01683e-05
7.20101e-05
4.70925e-05
6.86114e-05
7.0077e-05
2.15698e-05
2.15662e-05
6.99354e-05
2.15699e-05
2.15663e-05
7.24329e-05
4.71173e-05
6.03345e-05
6.92518e-05
4.71128e-05
7.25441e-05
6.90631e-05
7.24797e-05
4.71061e-05
6.03428e-05
6.9248e-05
4.71017e-05
7.25858e-05
6.90785e-05
3.61822e-05
6.73349e-05
4.03249e-05
6.94445e-05
4.03169e-05
6.90631e-05
3.61855e-05
2.02291e-05
6.75798e-05
4.9531e-05
2.02286e-05
6.77337e-05
3.61819e-05
6.71067e-05
4.03133e-05
6.86035e-05
4.03178e-05
3.61787e-05
6.89914e-05
2.02258e-05
6.79225e-05
4.95373e-05
6.7778e-05
2.02262e-05
7.01208e-05
2.15632e-05
2.15658e-05
2.15631e-05
2.15657e-05
7.02682e-05
7.21732e-05
6.83998e-05
4.70827e-05
6.01607e-05
4.7097e-05
7.1983e-05
6.8645e-05
7.21008e-05
6.83893e-05
4.7092e-05
6.01654e-05
6.86448e-05
7.19443e-05
4.71061e-05
7.00816e-05
2.15665e-05
2.15691e-05
2.15666e-05
6.99296e-05
2.15692e-05
7.244e-05
4.71118e-05
6.03363e-05
6.92875e-05
4.70971e-05
6.90463e-05
7.2627e-05
7.24242e-05
4.7121e-05
6.0352e-05
6.92914e-05
6.90328e-05
4.71063e-05
7.25396e-05
2.3643e-05
2.364e-05
3.6182e-05
6.73181e-05
4.03202e-05
6.94393e-05
4.03202e-05
6.90634e-05
3.61851e-05
2.0229e-05
6.7587e-05
4.95274e-05
2.02286e-05
6.77254e-05
3.61816e-05
6.7119e-05
4.03136e-05
6.86046e-05
4.03161e-05
3.61784e-05
6.89857e-05
2.02257e-05
6.79139e-05
4.95343e-05
6.77797e-05
2.02262e-05
3.61834e-05
6.73404e-05
6.94178e-05
4.03241e-05
6.90832e-05
4.03155e-05
3.61868e-05
2.02301e-05
6.75901e-05
4.95325e-05
6.77437e-05
2.02296e-05
3.61832e-05
6.70865e-05
6.86266e-05
4.03122e-05
6.89626e-05
3.618e-05
4.03168e-05
2.02267e-05
6.79339e-05
4.95389e-05
6.77851e-05
2.02273e-05
3.61822e-05
6.73298e-05
4.03249e-05
6.94394e-05
4.0316e-05
6.90639e-05
3.61855e-05
2.02292e-05
6.75796e-05
4.95286e-05
2.02287e-05
6.77275e-05
3.61819e-05
6.71047e-05
4.03127e-05
6.86056e-05
3.61787e-05
4.03177e-05
6.89859e-05
2.02258e-05
6.79175e-05
4.95345e-05
6.7774e-05
2.02263e-05
7.01205e-05
2.15632e-05
2.15663e-05
2.15631e-05
2.15662e-05
7.02673e-05
7.21398e-05
6.84226e-05
4.7086e-05
6.016e-05
4.7093e-05
7.20044e-05
6.8638e-05
7.21274e-05
6.84163e-05
4.70962e-05
6.01655e-05
6.86215e-05
7.19608e-05
4.71045e-05
7.00792e-05
2.15665e-05
2.15696e-05
2.15665e-05
6.99276e-05
2.15697e-05
7.24739e-05
4.71065e-05
6.03443e-05
6.92724e-05
4.71017e-05
6.9063e-05
7.26002e-05
7.24086e-05
4.71189e-05
6.03523e-05
6.92661e-05
6.90603e-05
4.71112e-05
7.26083e-05
2.36428e-05
2.36399e-05
3.61843e-05
6.7352e-05
6.94334e-05
4.03246e-05
6.90844e-05
4.03163e-05
3.61875e-05
2.02308e-05
6.76011e-05
4.95328e-05
6.77496e-05
2.02304e-05
3.61839e-05
6.70909e-05
6.86239e-05
4.03128e-05
6.89844e-05
3.61808e-05
4.03174e-05
2.02275e-05
6.79374e-05
4.95393e-05
6.77982e-05
2.0228e-05
3.61811e-05
6.73366e-05
6.94396e-05
4.0324e-05
6.9065e-05
4.03152e-05
3.61845e-05
2.02287e-05
6.75758e-05
4.95268e-05
2.02282e-05
6.77358e-05
3.61809e-05
6.7098e-05
6.86054e-05
4.03119e-05
3.61777e-05
6.89851e-05
4.03168e-05
2.02254e-05
6.79256e-05
4.95332e-05
6.77727e-05
2.02259e-05
2.36413e-05
2.36383e-05
2.36402e-05
2.36372e-05
0.000180012
0.000180021
0.000157281
0.000179147
0.000179157
0.000197121
0.000197822
6.88013e-05
8.51033e-05
7.02434e-05
7.02329e-05
0.000176562
0.000176571
0.000153131
0.000175701
0.00017571
0.000194314
0.000195016
7.15201e-05
7.1375e-05
7.13784e-05
8.33623e-05
7.12615e-05
7.12411e-05
7.12328e-05
6.88364e-05
7.02818e-05
7.02831e-05
8.53461e-05
6.86745e-05
7.04207e-05
7.03799e-05
7.06471e-05
8.36963e-05
7.112e-05
7.10635e-05
7.10006e-05
7.10059e-05
7.08095e-05
6.89094e-05
8.51657e-05
7.04792e-05
7.02753e-05
7.05701e-05
8.37935e-05
7.10122e-05
7.11424e-05
7.10654e-05
7.09287e-05
7.08618e-05
6.88345e-05
7.02231e-05
7.04165e-05
8.52841e-05
7.02378e-05
6.8675e-05
7.04905e-05
7.06468e-05
8.37194e-05
7.11829e-05
7.09491e-05
7.09157e-05
7.11159e-05
7.0804e-05
7.06047e-05
8.39523e-05
7.09652e-05
7.09585e-05
7.08555e-05
7.10787e-05
7.10835e-05
7.14698e-05
7.12711e-05
7.1268e-05
8.37095e-05
7.12996e-05
7.13577e-05
7.13776e-05
7.1504e-05
7.13294e-05
7.12301e-05
8.35472e-05
7.14578e-05
7.12584e-05
7.13146e-05
7.14689e-05
7.1221e-05
7.13619e-05
8.36995e-05
7.12717e-05
7.12987e-05
7.13356e-05
0.00018001
0.000180022
0.000157278
0.000179146
0.000179156
0.00019712
0.000197821
0.000180006
0.000180017
0.000157274
0.000179141
0.000179153
0.000197117
0.000197817
0.000180007
0.000180013
0.000157269
0.000179142
0.000179149
0.000197115
0.000197816
0.000156246
0.000177421
0.000177431
0.000178284
0.000178293
0.00019642
0.000195718
0.000156243
0.00017742
0.00017743
0.000178282
0.000178294
0.000196419
0.000195718
0.000156239
0.000177415
0.000177427
0.000178278
0.000178289
0.000196415
0.000195714
0.000156235
0.000177416
0.000177424
0.000178279
0.000178286
0.000196414
0.000195712
7.29954e-05
6.14488e-05
6.32122e-05
7.66783e-05
6.29601e-05
7.69407e-05
7.31024e-05
6.70082e-05
6.376e-05
6.21658e-05
6.5092e-05
6.50694e-05
6.36205e-05
6.68958e-05
7.30504e-05
6.14493e-05
7.67483e-05
6.31916e-05
7.68663e-05
6.30011e-05
7.30069e-05
6.67244e-05
6.46826e-05
6.3002e-05
6.17614e-05
6.68913e-05
6.46405e-05
6.31125e-05
7.32089e-05
6.10159e-05
7.72692e-05
6.23409e-05
7.32643e-05
7.71474e-05
6.25427e-05
6.70065e-05
6.37355e-05
6.21598e-05
6.50828e-05
6.50522e-05
6.36225e-05
6.68828e-05
6.93262e-05
8.47658e-05
7.04724e-05
7.04696e-05
7.05884e-05
7.05874e-05
6.94661e-05
0.000176559
0.000176571
0.000153128
0.000175699
0.000175709
0.000194313
0.000195016
0.000176555
0.000176566
0.000153123
0.000175694
0.000175706
0.000194309
0.000195011
0.000176556
0.000176563
0.000153119
0.000175695
0.000175703
0.000194308
0.00019501
7.23639e-05
6.4003e-05
6.59164e-05
7.54793e-05
6.56347e-05
7.57749e-05
7.26048e-05
6.7462e-05
6.64584e-05
6.55202e-05
6.38723e-05
6.75578e-05
6.64728e-05
6.56242e-05
7.26935e-05
6.34877e-05
6.49609e-05
7.60092e-05
7.25446e-05
6.5231e-05
7.57661e-05
6.78121e-05
6.62355e-05
6.42411e-05
6.69021e-05
6.69508e-05
6.61578e-05
6.76409e-05
7.23938e-05
6.39895e-05
7.58039e-05
6.58468e-05
7.56356e-05
6.57019e-05
7.25579e-05
6.74567e-05
6.64611e-05
6.55304e-05
6.38764e-05
6.75699e-05
6.64845e-05
6.56298e-05
7.25849e-05
6.35113e-05
7.59352e-05
6.49962e-05
7.2608e-05
7.5866e-05
6.51905e-05
6.77789e-05
6.62392e-05
6.42274e-05
6.69686e-05
6.69343e-05
6.61562e-05
6.77895e-05
7.19045e-05
8.31868e-05
7.15662e-05
7.15095e-05
7.16703e-05
7.16828e-05
7.22221e-05
6.9322e-05
8.45706e-05
7.06262e-05
7.05794e-05
6.94747e-05
7.04927e-05
7.04906e-05
7.01427e-05
8.43567e-05
7.0708e-05
7.07139e-05
6.99807e-05
7.08109e-05
7.07934e-05
7.29279e-05
6.13911e-05
6.32202e-05
7.69135e-05
6.29744e-05
7.67349e-05
7.32535e-05
6.67616e-05
6.46578e-05
6.29992e-05
6.17657e-05
6.31189e-05
6.68889e-05
6.46481e-05
7.34627e-05
6.1069e-05
6.23128e-05
7.71553e-05
6.25763e-05
7.31404e-05
7.72922e-05
6.7006e-05
6.37525e-05
6.21621e-05
6.50696e-05
6.36264e-05
6.50599e-05
6.6905e-05
7.3161e-05
6.14374e-05
6.32016e-05
7.6912e-05
6.29771e-05
7.67398e-05
7.29705e-05
6.67296e-05
6.45649e-05
6.29788e-05
6.17623e-05
6.68919e-05
6.31158e-05
6.47541e-05
7.31881e-05
6.10262e-05
6.23364e-05
7.71544e-05
7.32826e-05
6.2552e-05
7.72909e-05
6.70141e-05
6.37569e-05
6.2156e-05
6.51845e-05
6.36166e-05
6.68849e-05
6.49977e-05
7.30691e-05
6.36344e-05
7.63985e-05
6.22793e-05
7.27386e-05
6.38788e-05
7.65847e-05
6.73663e-05
6.59999e-05
6.32244e-05
6.50185e-05
6.59748e-05
6.4904e-05
6.725e-05
6.70424e-05
6.42625e-05
6.55108e-05
6.2842e-05
6.55645e-05
6.71687e-05
6.43994e-05
7.25877e-05
6.2638e-05
6.45676e-05
7.6285e-05
6.4299e-05
7.60698e-05
7.29095e-05
7.27755e-05
6.36381e-05
7.64002e-05
6.22198e-05
7.30106e-05
6.3868e-05
7.65804e-05
6.73718e-05
6.61049e-05
6.32171e-05
6.50131e-05
6.49006e-05
6.59067e-05
6.72364e-05
6.70201e-05
6.42369e-05
6.54237e-05
6.28374e-05
6.71701e-05
6.43818e-05
6.55985e-05
7.28757e-05
6.26815e-05
6.45254e-05
7.62894e-05
6.43057e-05
7.60815e-05
7.26593e-05
6.92344e-05
8.46451e-05
7.05049e-05
7.06559e-05
7.0437e-05
7.05766e-05
6.95648e-05
7.02195e-05
8.42946e-05
7.07958e-05
7.06827e-05
7.07643e-05
6.99139e-05
7.08746e-05
7.31871e-05
6.14364e-05
6.31911e-05
7.66831e-05
6.30055e-05
7.69206e-05
7.29254e-05
6.67539e-05
6.46155e-05
6.29845e-05
6.17642e-05
6.31426e-05
6.68897e-05
6.47041e-05
7.31629e-05
6.10289e-05
6.23644e-05
7.73133e-05
6.25384e-05
7.34264e-05
7.70737e-05
6.70014e-05
6.37731e-05
6.21585e-05
6.51056e-05
6.36059e-05
6.50066e-05
6.69049e-05
7.28738e-05
6.14298e-05
7.66917e-05
6.32363e-05
7.69206e-05
6.29516e-05
7.32036e-05
6.67321e-05
6.46707e-05
6.29792e-05
6.1759e-05
6.68865e-05
6.31154e-05
6.46222e-05
7.34042e-05
6.1032e-05
7.72963e-05
6.2302e-05
7.3088e-05
7.70843e-05
6.25805e-05
6.70011e-05
6.37635e-05
6.21566e-05
6.50482e-05
6.36096e-05
6.68871e-05
6.50601e-05
7.27528e-05
6.36607e-05
7.65698e-05
6.22358e-05
7.29842e-05
6.38577e-05
7.63553e-05
6.73626e-05
6.60341e-05
6.32203e-05
6.50283e-05
6.59172e-05
6.48836e-05
6.72564e-05
6.70359e-05
6.42445e-05
6.54666e-05
6.28401e-05
6.56107e-05
6.71658e-05
6.44051e-05
7.28514e-05
6.267e-05
6.45279e-05
7.60522e-05
6.43266e-05
7.62695e-05
7.26447e-05
7.30199e-05
7.65667e-05
6.36143e-05
6.22446e-05
7.27005e-05
7.63589e-05
6.38914e-05
6.73567e-05
6.59755e-05
6.32174e-05
6.50346e-05
6.48795e-05
6.59843e-05
6.72603e-05
6.70324e-05
6.42313e-05
6.55112e-05
6.28377e-05
6.71629e-05
6.43954e-05
6.5559e-05
7.25524e-05
6.26588e-05
7.60489e-05
6.45651e-05
7.62589e-05
6.42804e-05
7.28672e-05
7.31748e-05
6.14278e-05
7.66819e-05
6.31719e-05
7.69427e-05
6.30111e-05
7.29655e-05
6.70168e-05
6.37571e-05
6.21617e-05
6.51759e-05
6.49932e-05
6.363e-05
6.68918e-05
7.29165e-05
6.36197e-05
7.65815e-05
6.22037e-05
7.2807e-05
6.38788e-05
7.63485e-05
6.73521e-05
6.60084e-05
6.32225e-05
6.50176e-05
6.72719e-05
6.59709e-05
6.48967e-05
6.70467e-05
6.42383e-05
6.55089e-05
6.28365e-05
6.71461e-05
6.55763e-05
6.43943e-05
7.26777e-05
6.26835e-05
6.45511e-05
7.60164e-05
7.27768e-05
6.42902e-05
7.6276e-05
7.27298e-05
7.65614e-05
6.36607e-05
6.22438e-05
7.29788e-05
7.63439e-05
6.3828e-05
6.73612e-05
6.61055e-05
6.32035e-05
6.5012e-05
6.48982e-05
6.58994e-05
6.72445e-05
6.70156e-05
6.42292e-05
6.54226e-05
6.28384e-05
6.71416e-05
6.43739e-05
6.55947e-05
7.2865e-05
6.26515e-05
7.60407e-05
6.44881e-05
7.62651e-05
6.43354e-05
7.26475e-05
6.93231e-05
8.46314e-05
7.06853e-05
7.04382e-05
7.0594e-05
7.04166e-05
6.94923e-05
7.01341e-05
8.43061e-05
7.06406e-05
7.08301e-05
7.08648e-05
6.99827e-05
7.07525e-05
7.29847e-05
6.14197e-05
7.67714e-05
6.32337e-05
7.68569e-05
6.29505e-05
7.32573e-05
6.70213e-05
6.46404e-05
6.29174e-05
6.17621e-05
6.467e-05
6.66526e-05
6.31758e-05
7.34286e-05
6.10362e-05
7.72608e-05
6.23096e-05
7.71536e-05
7.31367e-05
6.25821e-05
6.67991e-05
6.3827e-05
6.21551e-05
6.50939e-05
6.5041e-05
6.35618e-05
6.71446e-05
7.28286e-05
7.65187e-05
6.36487e-05
6.22338e-05
7.28558e-05
7.64174e-05
6.38519e-05
6.73637e-05
6.6011e-05
6.32245e-05
6.49955e-05
6.72403e-05
6.59756e-05
6.49016e-05
6.70243e-05
6.42627e-05
6.55197e-05
6.28359e-05
6.71708e-05
6.55677e-05
6.43966e-05
7.27252e-05
6.26711e-05
7.61031e-05
6.45174e-05
7.27147e-05
7.621e-05
6.43238e-05
7.30899e-05
7.651e-05
6.36182e-05
6.22603e-05
7.27361e-05
7.64441e-05
6.38795e-05
6.71415e-05
6.59881e-05
6.32189e-05
6.50863e-05
6.48243e-05
6.5979e-05
6.75133e-05
6.73506e-05
6.41879e-05
6.54942e-05
6.28352e-05
6.69613e-05
6.4428e-05
6.55391e-05
7.26096e-05
6.26478e-05
7.61392e-05
6.45565e-05
7.61941e-05
6.42821e-05
7.29374e-05
7.02035e-05
8.41844e-05
7.07963e-05
7.07992e-05
6.99748e-05
7.07526e-05
7.07453e-05
7.1982e-05
8.29768e-05
7.16644e-05
7.17704e-05
7.20529e-05
7.16184e-05
7.15815e-05
7.23062e-05
6.39595e-05
6.59145e-05
7.5837e-05
6.56695e-05
7.55308e-05
7.28547e-05
6.75718e-05
6.64364e-05
6.55197e-05
6.39157e-05
6.56695e-05
6.75267e-05
6.64823e-05
7.28755e-05
6.35402e-05
6.49706e-05
7.58087e-05
6.52288e-05
7.25011e-05
7.59992e-05
6.77347e-05
6.63387e-05
6.42241e-05
6.69496e-05
6.61342e-05
6.69442e-05
6.78597e-05
7.25717e-05
6.39876e-05
6.59359e-05
7.58354e-05
6.56568e-05
7.55363e-05
7.24378e-05
6.74209e-05
6.6377e-05
6.55065e-05
6.39156e-05
6.75517e-05
6.56361e-05
6.65176e-05
7.25405e-05
6.35193e-05
6.49815e-05
7.58113e-05
7.27514e-05
6.5222e-05
7.60034e-05
6.784e-05
6.63036e-05
6.42131e-05
6.70267e-05
6.61393e-05
6.76229e-05
6.68971e-05
7.19145e-05
8.30901e-05
7.16741e-05
7.18235e-05
7.15199e-05
7.1655e-05
7.21533e-05
7.25007e-05
6.39823e-05
6.58773e-05
7.57521e-05
6.57003e-05
7.57071e-05
7.25874e-05
6.75628e-05
6.63888e-05
6.55173e-05
6.39212e-05
6.56519e-05
6.75219e-05
6.66333e-05
7.25382e-05
6.35266e-05
6.50008e-05
7.59631e-05
6.51961e-05
7.27241e-05
7.58722e-05
6.77337e-05
6.62666e-05
6.42089e-05
6.71047e-05
6.61408e-05
6.68299e-05
6.7851e-05
7.22617e-05
6.39775e-05
7.57476e-05
6.58619e-05
7.57066e-05
6.56643e-05
7.2798e-05
6.77371e-05
6.64271e-05
6.54931e-05
6.38685e-05
6.74706e-05
6.56535e-05
6.65093e-05
7.28242e-05
6.35215e-05
7.59637e-05
6.49602e-05
7.24647e-05
7.58636e-05
6.52133e-05
6.75867e-05
6.62779e-05
6.42443e-05
6.70862e-05
6.61344e-05
6.8076e-05
6.69046e-05
7.25697e-05
6.39557e-05
7.57433e-05
6.5824e-05
7.57072e-05
6.57124e-05
7.24312e-05
6.7452e-05
6.63703e-05
6.55004e-05
6.39023e-05
6.65108e-05
6.75388e-05
6.56341e-05
7.25399e-05
6.35355e-05
7.5961e-05
6.50096e-05
7.58653e-05
7.27544e-05
6.51777e-05
6.77734e-05
6.63397e-05
6.42094e-05
6.69785e-05
6.69035e-05
6.61219e-05
6.78934e-05
7.1952e-05
8.29681e-05
7.16391e-05
7.1527e-05
7.1703e-05
7.16173e-05
7.22231e-05
7.23089e-05
6.39817e-05
7.56521e-05
6.58595e-05
7.56781e-05
6.5657e-05
7.28526e-05
6.75957e-05
6.6448e-05
6.54619e-05
6.38692e-05
6.64822e-05
6.74061e-05
6.56661e-05
7.28794e-05
6.35164e-05
7.59212e-05
6.49638e-05
7.58852e-05
7.2516e-05
6.52263e-05
6.76707e-05
6.63045e-05
6.42408e-05
6.69557e-05
6.69222e-05
6.61098e-05
6.7814e-05
0.000233968
0.000233543
0.000233542
0.000233427
0.00023252
0.000227493
0.000227494
0.000223683
0.000230465
0.000220032
0.000220032
0.00020885
0.00022772
0.000211401
0.000211397
0.000193567
0.000224336
0.000202416
0.000202407
0.00017952
0.000220444
0.000193569
0.000193556
0.000167198
0.000216193
0.000185101
0.000185086
0.000156489
0.000211709
0.000177085
0.000177069
0.000147161
0.000207099
0.00016956
0.000169545
0.000138932
0.000202442
0.000162498
0.000162485
0.000131644
0.000197792
0.000155845
0.000155835
0.000124987
0.000193183
0.000149549
0.00014954
0.000118894
0.000188597
0.000143569
0.000143561
0.000113139
0.000184069
0.000137849
0.000137842
0.000107907
0.000179627
0.00013235
0.000132343
0.000102981
0.00017526
0.000127061
0.000127056
9.83323e-05
0.000170957
0.000122004
0.000122001
9.41137e-05
0.000166705
0.000117208
0.000117204
9.05095e-05
0.000162503
0.000112702
0.000112699
8.75767e-05
0.000108546
8.52648e-05
0.000234252
0.000234467
0.000234467
0.000234255
0.000234467
0.000234467
0.00023426
0.00023426
0.00023426
0.000234261
0.000234466
0.000234471
0.000234251
0.000234465
0.00023447
0.000234255
0.000233424
0.00022605
0.000233539