/*--------------------------------*- C++ -*----------------------------------*\
| =========                 |                                                 |
| \\      /  F ield         | OpenFOAM: The Open Source CFD Toolbox           |
|  \\    /   O peration     | Version:  2312                                  |
|   \\  /    A nd           | Website:  www.openfoam.com                      |
|    \\/     M anipulation  |                                                 |
\*---------------------------------------------------------------------------*/
FoamFile
{
    version     2.0;
    format      ascii;
    arch        "LSB;label=32;scalar=64";
    class       surfaceScalarField;
    location    "950";
    object      phi;
}
// * * * * * * * * * * * * * * * * * * * * * * * * * * * * * * * * * * * * * //

dimensions      [0 3 -1 0 0 0 0];

oriented        oriented;

internalField   nonuniform List<scalar> 
124832
(
-8.75673e-07
-8.82624e-07
4.55985e-07
4.56859e-07
0.00114043
-0.00113959
-1.519e-06
8.76777e-07
4.45296e-07
0.00113302
-5.32616e-07
1.1075e-06
1.27563e-07
7.24874e-07
-5.90628e-07
-1.27324e-06
5.85634e-08
-0.00113244
-8.56573e-07
-8.57713e-07
-0.00114291
4.42676e-07
4.43345e-07
0.00114374
-0.00113482
-1.51673e-06
8.57441e-07
4.19101e-07
0.00113536
-5.2153e-07
1.11689e-06
1.342e-07
7.32368e-07
-5.75189e-07
-1.25937e-06
6.76446e-08
-0.00113469
-1.51395e-06
8.57271e-07
4.24513e-07
0.00113523
-5.21604e-07
1.11429e-06
1.34192e-07
7.32475e-07
-5.75226e-07
-1.2594e-06
6.79547e-08
-0.000276279
1.54554e-06
1.50867e-06
-4.99878e-07
-5.02892e-07
0.000274228
1.56158e-06
1.52202e-06
-5.0778e-07
-5.15996e-07
0.00027407
-0.00027613
-1.15825e-06
-1.11539e-06
0.000276354
-0.000274237
7.58127e-08
8.12198e-08
4.35977e-07
0.0011326
-5.35251e-07
1.1505e-06
1.30629e-07
7.30257e-07
-5.90723e-07
-1.27879e-06
5.84157e-08
-0.00113201
8.70904e-07
4.36252e-07
0.00113266
1.14765e-06
1.33225e-07
7.30034e-07
-5.90776e-07
-1.27868e-06
5.82911e-08
-0.00113208
-1.5565e-06
-5.35694e-07
0.00113427
8.6133e-07
-0.00113374
4.38977e-07
-1.55803e-06
1.4152e-07
-5.29958e-07
-1.26857e-06
6.54087e-08
-5.7934e-07
7.36093e-07
1.15278e-06
0.00113435
8.61815e-07
-0.0011338
4.28522e-07
-1.55555e-06
1.38225e-07
-5.2744e-07
-1.26847e-06
6.53429e-08
-5.79215e-07
7.3585e-07
-1.11525e-06
0.000276334
-0.000274221
7.58168e-08
7.84312e-08
4.34776e-07
0.00113358
-5.32761e-07
1.1104e-06
1.27613e-07
7.30198e-07
-5.90736e-07
-1.27868e-06
5.86174e-08
-0.001133
-1.55365e-06
8.7609e-07
4.36049e-07
0.00113255
-5.38239e-07
1.14233e-06
1.33454e-07
7.30283e-07
-5.90735e-07
-1.2786e-06
5.4994e-08
-0.00113197
0.00113527
8.62501e-07
-0.00113472
4.2734e-07
-1.51836e-06
1.32489e-07
-5.24595e-07
-1.26848e-06
6.55196e-08
-5.79304e-07
7.35963e-07
1.14746e-06
0.00113424
8.61281e-07
-0.00113368
4.28506e-07
-1.54994e-06
1.38465e-07
-5.30014e-07
-1.26832e-06
6.21708e-08
-5.7642e-07
7.35991e-07
8.62284e-07
-0.00113427
4.32665e-07
-1.5181e-06
1.32581e-07
-5.24347e-07
-1.26289e-06
6.53687e-08
7.30493e-07
-5.7907e-07
1.14456e-06
0.00113386
8.61734e-07
-0.0011333
4.28376e-07
-1.5469e-06
1.3556e-07
-5.26982e-07
-1.25996e-06
5.87173e-08
-5.73405e-07
7.27701e-07
-5.1093e-07
-5.15649e-07
0.000274045
-0.000276092
-1.10987e-06
0.000276309
-0.000274209
7.60957e-08
8.12144e-08
7.75985e-07
2.55501e-07
0.00113308
1.0663e-06
1.15312e-07
7.27317e-07
-5.87867e-07
5.86829e-08
-1.27574e-06
-1.58665e-06
-0.00113209
-5.43583e-07
8.61992e-07
-0.00113414
4.26964e-07
-1.51255e-06
1.3254e-07
-5.24381e-07
-1.26297e-06
6.5676e-08
7.30634e-07
-5.79098e-07
1.10707e-06
0.00113484
8.61989e-07
-0.00113428
4.27338e-07
-1.51006e-06
1.32461e-07
-5.24582e-07
-1.26539e-06
6.57478e-08
-5.79131e-07
7.33265e-07
-0.000274182
7.57562e-08
7.86466e-08
1.55946e-06
1.51702e-06
-5.00096e-07
-5.05581e-07
0.000274283
4.14506e-07
0.00113482
-5.30071e-07
1.1599e-06
1.43011e-07
7.3793e-07
-5.75507e-07
-1.26501e-06
6.7591e-08
-1.55416e-06
8.57356e-07
4.26069e-07
0.00113489
-5.27308e-07
1.15446e-06
1.39853e-07
7.37873e-07
-5.75377e-07
-1.26492e-06
6.42916e-08
-5.00375e-07
-5.02515e-07
0.000274266
4.24833e-07
0.00113581
-5.21867e-07
1.11704e-06
1.34035e-07
7.37907e-07
-5.75346e-07
-1.26485e-06
6.78208e-08
-1.54859e-06
8.56485e-07
4.26033e-07
0.00113477
-5.27232e-07
1.14913e-06
1.40056e-07
7.37921e-07
-5.72583e-07
-1.2647e-06
6.44668e-08
8.56941e-07
4.25916e-07
0.00113439
-5.24142e-07
1.14621e-06
1.37186e-07
7.29571e-07
-5.69651e-07
6.10066e-08
-1.25646e-06
-5.00433e-07
-5.05145e-07
0.000274252
8.57264e-07
4.24839e-07
0.00113537
-5.21732e-07
1.10871e-06
1.34109e-07
7.35012e-07
-5.75218e-07
6.80761e-08
-1.26186e-06
-2.49563e-10
9.35866e-08
0.000237628
-0.000237702
-1.05731e-08
-8.31081e-09
-3.76909e-09
1.5134e-07
-2.07429e-08
0.00019805
-0.000198177
-8.97957e-11
2.7682e-07
0.000237945
-9.49416e-08
-1.30037e-08
-0.000238114
1.50412e-08
3.10734e-08
0.000197841
-5.56431e-09
-0.000197882
-1.49244e-08
5.46374e-09
9.92821e-05
-9.92727e-05
9.35294e-08
-2.25419e-10
0.000237615
-0.000237689
-8.36894e-09
-1.05243e-08
-3.90568e-09
1.51329e-07
-2.08628e-08
0.000198031
-0.000198157
2.76795e-07
1.46739e-10
0.000237932
-1.33618e-08
-9.49117e-08
-0.000238101
1.54185e-08
3.09054e-08
0.000197823
-5.90394e-09
-0.000197864
4.62051e-07
4.35146e-07
0.00114019
-8.77016e-07
-0.00113934
4.56437e-07
4.84138e-07
0.00114001
-0.0011392
4.06447e-07
4.29378e-07
0.00113994
-1.04342e-06
-0.00113896
-0.00114209
4.55648e-07
4.50838e-07
0.00114269
-0.00114187
4.50542e-07
4.50912e-07
0.00114249
-0.00114167
4.50212e-07
4.50543e-07
0.00114245
-0.00114163
4.50249e-07
4.51042e-07
-9.38019e-08
-1.74353e-09
0.000261358
-0.000261287
-2.7544e-08
5.21803e-08
4.26916e-07
1.1119e-06
0.0011337
8.72075e-07
-1.26974e-06
6.06879e-08
-5.86777e-07
7.26519e-07
-1.52064e-06
1.29235e-07
-5.29894e-07
-0.00113312
4.75966e-09
-3.11908e-08
0.000254115
2.01979e-08
-0.000254149
4.05291e-08
-1.77725e-08
0.00113384
9.24291e-07
-1.38039e-06
5.74443e-07
-1.20858e-06
7.71401e-07
-0.00113308
4.25006e-09
6.7596e-08
9.93322e-05
-9.94041e-05
-1.49326e-08
7.86834e-09
9.92747e-05
-9.92677e-05
-4.66547e-10
-9.37057e-08
0.000261345
-0.000261278
5.48525e-08
-2.80064e-08
0.00113295
5.28318e-08
9.28048e-07
7.71689e-07
-1.21084e-06
-1.38323e-06
5.72164e-07
-0.00113223
-7.06653e-08
-1.5117e-07
3.37596e-07
7.63253e-08
0.000254365
-0.000254557
4.42894e-07
1.10656e-06
0.00113358
8.71796e-07
-1.26987e-06
6.10162e-08
-5.86841e-07
7.26805e-07
-1.51779e-06
1.29248e-07
-5.29889e-07
1.69091e-09
-2.76776e-07
0.000261429
5.30981e-07
-3.52969e-08
-0.000261649
1.86532e-08
0.00113368
9.23807e-07
-1.38052e-06
5.77293e-07
-1.20591e-06
7.7424e-07
4.41182e-09
-3.09217e-08
0.000254105
2.0261e-08
-0.000254142
4.28669e-08
-1.14666e-06
-1.09818e-06
0.000276178
-0.000274074
6.53702e-08
7.61136e-08
-4.78968e-09
-7.82998e-09
0.000285614
2.2715e-08
-0.000285685
6.07664e-08
-4.72218e-09
-7.85478e-09
0.000285532
2.32011e-08
-0.000285603
6.06064e-08
-2.03277e-10
7.70837e-08
-0.000236783
-5.77046e-09
-6.57157e-09
-0.000197529
-3.35759e-09
1.40521e-07
-1.77253e-08
0.000197409
-0.000237162
-8.38484e-11
2.57415e-07
0.000237005
-8.82587e-08
-1.12646e-08
1.40082e-08
2.26702e-08
-3.76224e-09
-0.000197259
-9.91577e-05
4.8631e-09
6.37428e-08
9.90891e-05
-1.40362e-08
4.67846e-09
-9.9029e-05
7.70025e-08
-1.19676e-10
-0.00023677
-6.69868e-09
-5.71403e-09
-0.000197507
-4.90555e-09
1.40278e-07
-1.80124e-08
0.000197389
-0.00023715
2.57368e-07
1.88071e-10
0.000236992
-1.15697e-08
-8.82795e-08
1.39799e-08
2.26016e-08
-3.66083e-09
-0.00019724
4.48665e-07
4.49094e-07
0.00114351
4.48271e-07
4.48635e-07
0.00114331
4.4832e-07
4.49075e-07
0.00114327
-7.73288e-08
-1.41943e-09
-0.000260653
-2.28671e-08
3.61254e-08
-0.000253674
-6.78075e-08
-1.42471e-07
3.23024e-07
6.89463e-08
0.000253493
0.00113602
-0.00113532
2.71762e-09
9.10918e-07
7.81118e-07
-1.19895e-06
-1.36958e-06
5.84165e-07
4.2774e-07
1.11851e-06
8.52648e-07
-1.25575e-06
6.98194e-08
-5.71334e-07
7.34225e-07
-1.51526e-06
1.35825e-07
-5.18774e-07
-0.000261044
-2.57278e-07
1.62396e-09
0.000260816
-3.03516e-08
5.14057e-07
7.68066e-09
-2.05348e-08
1.47376e-08
-0.000253281
2.85469e-08
-4.18362e-09
9.06583e-07
-1.36926e-06
5.83602e-07
-1.19921e-06
7.80556e-07
-9.91513e-05
4.90391e-09
6.34964e-08
9.90829e-05
-1.41138e-08
4.68956e-09
-9.90242e-05
-7.88873e-10
-7.72479e-08
-0.000260644
3.61047e-08
-2.27386e-08
0.00113587
-0.00113515
4.38619e-09
9.1086e-07
7.81226e-07
-1.20189e-06
-1.37248e-06
5.8129e-07
-0.000253667
-6.80526e-08
-1.40201e-07
3.2047e-07
6.9154e-08
0.000253486
4.22206e-07
1.1159e-06
8.52477e-07
-1.25576e-06
7.01528e-08
-5.71422e-07
7.34329e-07
-1.51246e-06
1.32785e-07
-5.18725e-07
-0.000261034
9.50159e-10
-2.57378e-07
0.000260806
5.14222e-07
-3.05599e-08
-3.37593e-09
9.06507e-07
-1.36942e-06
5.86423e-07
-1.19654e-06
7.83464e-07
7.45695e-09
-2.25608e-08
1.47145e-08
-0.000253275
3.09675e-08
-0.000285134
6.79784e-08
-6.35446e-08
1.79767e-07
-1.3519e-08
0.000284963
-0.000285052
6.80206e-08
-6.34998e-08
1.74892e-07
-1.38979e-08
0.000284887
-1.14779e-06
-1.1103e-06
-0.000274269
8.08168e-08
8.36745e-08
-7.74704e-09
-4.61502e-09
2.12703e-08
-0.000284735
4.90525e-08
-7.72645e-09
-4.66971e-09
2.18313e-08
-0.000284659
5.3576e-08
6.93367e-08
9.93599e-05
-9.9433e-05
7.82267e-09
9.93046e-05
-9.92974e-05
6.75027e-08
9.93483e-05
-9.94197e-05
7.42861e-09
9.92907e-05
-9.92827e-05
7.30267e-08
1.88742e-07
-1.32842e-08
0.000285991
-0.00028617
7.02736e-08
1.90867e-07
-1.29459e-08
0.000285913
-0.000286094
0.000276249
-1.15221e-06
-1.1121e-06
-0.000274129
6.81305e-08
7.61638e-08
0.000285669
-1.93956e-09
2.52087e-08
-0.000285742
5.82306e-08
0.000285592
-2.1589e-09
2.25537e-08
-0.000285663
5.79306e-08
6.1061e-09
-1.40165e-08
9.91791e-05
-9.91712e-05
6.5674e-08
4.7504e-09
9.92342e-05
6.08245e-09
-1.44655e-08
9.91673e-05
-9.91589e-05
6.56006e-08
4.56004e-09
9.92205e-05
1.5593e-06
1.51967e-06
0.000274184
-5.02716e-07
-5.10877e-07
-6.07938e-09
0.000285189
5.34913e-08
-0.000285252
2.18382e-08
-3.59999e-09
0.000285113
5.33896e-08
-0.000285178
2.18994e-08
6.80067e-08
-1.59481e-08
1.85542e-07
0.000285497
6.79178e-08
-1.33036e-08
1.85169e-07
0.000285418
9.35582e-08
0.000237585
-0.00023766
-1.05597e-08
-8.37802e-09
1.53559e-07
-2.05026e-08
0.000197984
-4.13346e-09
-0.000198113
2.76785e-07
0.000237903
-9.48932e-08
-1.35912e-08
-0.000238071
2.87919e-08
0.000197781
-5.27478e-09
-0.000197819
-9.71355e-10
0.000261373
-0.000261302
-2.77629e-08
5.19196e-08
3.4031e-07
7.60897e-08
0.000254377
-0.000254569
0.00113336
3.77972e-09
9.28885e-07
7.77636e-07
-1.21629e-06
-1.38867e-06
5.80716e-07
-0.00113261
4.328e-07
0.00113317
8.70744e-07
-1.56045e-06
1.35258e-07
-5.32629e-07
-1.27544e-06
6.07329e-08
-5.86896e-07
7.32161e-07
7.72718e-10
0.000261452
-3.40334e-08
5.30979e-07
-0.000261673
0.000254115
2.017e-08
-0.000254147
4.04726e-08
-3.51344e-09
0.00113412
9.18691e-07
-1.38613e-06
5.83032e-07
-1.21417e-06
7.79995e-07
0.000261344
-0.000261276
-2.66461e-08
5.1891e-08
3.4019e-07
7.62475e-08
0.000254269
-0.000254459
-7.30438e-08
0.00113331
9.23391e-07
7.77414e-07
-1.21629e-06
-1.38845e-06
5.80678e-07
-0.00113255
4.33775e-07
0.00113324
1.14937e-06
8.71595e-07
-1.27536e-06
6.07355e-08
7.31958e-07
-5.86969e-07
-1.55809e-06
1.34874e-07
-5.35738e-07
0.000261426
-3.58054e-08
5.30954e-07
-0.000261644
0.000254007
4.43203e-09
2.0377e-08
-0.000254043
4.03622e-08
0.00113406
9.1892e-07
-1.38591e-06
5.83002e-07
-1.21416e-06
7.79753e-07
-1.02921e-10
2.66924e-07
-9.13996e-08
-1.2054e-08
0.000237464
2.65556e-08
-0.000197565
-4.07953e-09
1.45691e-07
-2.16299e-08
0.000197722
-3.05352e-10
8.50739e-08
-0.000237232
-7.90778e-09
-7.3154e-09
2.66911e-07
-9.14003e-08
-1.26637e-08
0.000237422
2.68085e-08
1.41519e-08
0.000197457
-0.000197494
-3.97631e-09
1.47984e-07
-4.75846e-09
-1.90084e-08
0.000197656
8.50861e-08
0.00023712
-0.00023719
-7.97459e-09
-7.72245e-09
7.66302e-10
-3.18648e-08
5.22715e-07
0.000261148
4.24985e-07
8.66255e-07
1.15387e-06
-5.32762e-07
1.36801e-07
7.3409e-07
-5.83102e-07
6.30929e-08
-1.27212e-06
0.000253677
3.41544e-08
-0.000253708
1.74061e-08
-0.00113485
-3.56648e-09
0.00113559
9.15441e-07
-1.38082e-06
5.84859e-07
-1.20693e-06
7.84669e-07
7.00459e-08
3.31743e-07
0.000253927
3.62789e-09
9.19926e-07
7.82296e-07
-1.20924e-06
-1.38357e-06
5.82525e-07
-9.81507e-10
0.000261059
-0.000260991
-2.55866e-08
4.38829e-08
-3.38784e-08
5.22697e-07
0.000261122
4.31417e-07
-1.55682e-06
8.66672e-07
7.33902e-07
-5.83079e-07
-1.27199e-06
6.3005e-08
1.15113e-06
-5.30194e-07
1.33593e-07
3.51272e-09
0.000253569
3.43792e-08
-0.000253598
1.75352e-08
-0.0011348
0.00113553
9.15616e-07
-1.38054e-06
5.84815e-07
-1.20691e-06
7.84498e-07
-7.04903e-08
7.26008e-08
3.31645e-07
0.000253821
9.2011e-07
7.82139e-07
-1.20921e-06
-1.38329e-06
5.82494e-07
0.000261029
-0.000260965
-2.4273e-08
4.38913e-08
0.000276233
-0.000274116
7.07441e-08
7.32921e-08
0.00028553
2.3055e-08
-0.000285604
6.0718e-08
-7.91658e-09
0.000285682
2.28883e-08
-0.00028575
5.85119e-08
9.92978e-05
-1.49292e-08
-9.92908e-05
6.66828e-09
-9.91502e-05
6.79924e-08
9.92094e-05
1.51938e-06
0.00027417
-5.05729e-07
-5.07919e-07
0.000285056
5.37056e-08
-0.000285122
2.24054e-08
-3.97967e-09
-6.31502e-09
0.0002852
5.36824e-08
-0.000285265
2.22466e-08
-1.33222e-08
1.85341e-07
0.000285356
-6.54605e-08
7.0305e-08
-1.33296e-08
1.8533e-07
0.000285505
-1.45874e-08
9.91769e-05
-9.91663e-05
4.53647e-09
9.92278e-05
-1.77206e-09
0.000261366
-0.000261295
-2.73313e-08
5.19574e-08
3.37688e-07
7.61022e-08
0.000254337
-0.000254529
0.00113321
2.9878e-09
9.33827e-07
7.77346e-07
-1.21349e-06
-1.38854e-06
5.77835e-07
-0.00113247
4.31924e-07
0.00113416
8.72059e-07
-1.52081e-06
1.29248e-07
-5.3002e-07
-1.27538e-06
6.10284e-08
-5.86872e-07
7.32155e-07
1.73331e-09
0.000261445
-3.51514e-08
5.30961e-07
-0.000261666
0.000254077
1.9921e-08
-0.000254111
4.29e-08
-4.28785e-09
0.00113396
9.23686e-07
-1.386e-06
5.8016e-07
-1.21134e-06
7.79741e-07
9.3522e-08
0.000237573
-0.000237648
-1.0529e-08
-8.69689e-09
1.51352e-07
-2.05523e-08
0.000197972
-0.000198098
2.76743e-07
0.000237891
-9.48834e-08
-1.32016e-08
-0.000238059
3.12406e-08
0.000197764
-5.56587e-09
-0.000197805
0.000261334
-0.000261268
5.19553e-08
-2.71121e-08
0.00113317
9.28154e-07
7.77545e-07
-1.21349e-06
-1.38838e-06
5.77865e-07
-0.00113241
-7.31142e-08
3.35204e-07
7.61718e-08
0.000254256
-0.000254443
4.3365e-07
0.00113312
1.1441e-06
8.82057e-07
-1.27525e-06
5.74728e-08
7.3222e-07
-5.84118e-07
-1.55248e-06
1.3513e-07
-5.35532e-07
0.000261418
5.30905e-07
-3.55131e-08
-0.000261635
0.00113391
9.295e-07
-1.38573e-06
5.80209e-07
-1.21134e-06
7.80108e-07
0.000253991
4.78476e-09
1.98047e-08
-0.00025403
4.59227e-08
2.66896e-07
1.21267e-10
-1.23916e-08
-9.13863e-08
0.000237452
2.66219e-08
-0.000197543
-4.50109e-09
1.45671e-07
-1.93116e-08
0.000197702
8.505e-08
-1.64406e-10
-0.000237219
-7.51269e-09
-7.95272e-09
1.72492e-09
-3.2998e-08
5.22686e-07
0.000261141
4.29528e-07
8.67263e-07
1.11377e-06
-5.27426e-07
1.30819e-07
7.34025e-07
-5.83074e-07
6.32916e-08
-1.27194e-06
0.000253639
3.69425e-08
-0.00025367
1.71863e-08
-0.00113469
-4.03051e-09
0.00113543
9.15147e-07
-1.38068e-06
5.84765e-07
-1.20684e-06
7.84401e-07
7.25041e-08
3.29088e-07
0.000253889
3.00936e-09
9.24909e-07
7.82036e-07
-1.20917e-06
-1.38339e-06
5.82435e-07
-1.73813e-09
0.000261052
-0.000260981
-2.46768e-08
4.11431e-08
2.6687e-07
-9.13789e-08
-1.22857e-08
0.00023741
2.68882e-08
1.44802e-08
0.000197448
-0.000197484
-4.69849e-09
1.45682e-07
-4.62262e-09
-1.92094e-08
0.000197642
8.50444e-08
0.000237108
-0.000237178
-7.96124e-09
-7.71431e-09
5.2268e-07
-3.33601e-08
0.000261114
4.25652e-07
-1.55128e-06
8.66154e-07
7.34097e-07
-5.80239e-07
-1.27185e-06
5.99109e-08
1.14576e-06
-5.32802e-07
1.36753e-07
-0.00113464
0.00113537
9.15254e-07
-1.38048e-06
5.84811e-07
-1.20685e-06
7.84688e-07
6.35951e-09
0.000253553
3.98614e-08
-0.000253589
1.69176e-08
9.25076e-07
7.82358e-07
-1.20917e-06
-1.38317e-06
5.82477e-07
-7.04888e-08
7.25266e-08
3.26544e-07
0.000253808
0.00026102
-0.000260954
4.11212e-08
-2.43691e-08
3.02778e-11
0.000237609
-0.000237686
-8.67623e-09
-8.53212e-09
0.000197828
-5.47003e-09
-0.000197868
-9.36919e-08
0.000261327
-0.00026126
5.2061e-08
-2.72477e-08
4.49516e-07
0.00113275
8.76918e-07
-1.54936e-06
1.3526e-07
-5.32628e-07
-1.26964e-06
5.73491e-08
-5.86684e-07
7.23838e-07
-0.0011322
0.00113376
9.24061e-07
-1.38035e-06
5.77333e-07
-1.2086e-06
7.74224e-07
-0.00113301
-3.12625e-08
0.000254032
1.98774e-08
-0.000254071
4.60277e-08
0.00023757
-0.000237645
-1.0628e-08
-8.71311e-09
0.000197768
1.49398e-08
-5.60498e-09
-0.000197809
-2.66816e-07
1.43022e-09
-3.27112e-08
5.22679e-07
0.000261133
4.24289e-07
8.67176e-07
1.11361e-06
-5.2718e-07
1.3089e-07
7.28458e-07
-5.82829e-07
-1.26646e-06
6.30629e-08
-2.45458e-08
3.4407e-08
-0.000253708
1.73281e-08
-0.00113457
-5.46027e-09
9.15371e-07
-1.3751e-06
5.7905e-07
7.76046e-07
-1.2041e-06
-1.45499e-07
7.24087e-08
3.31397e-07
0.000253927
-1.22156e-09
9.19823e-07
7.7643e-07
-1.20366e-06
-1.3751e-06
5.79528e-07
-8.53556e-08
-1.47709e-09
-0.000260976
-2.51416e-08
4.41494e-08
4.05318e-11
-1.24251e-08
-9.35147e-08
0.000237448
0.000197513
-0.000197547
-4.58487e-09
-1.90994e-08
0.000197706
7.52274e-11
0.000237144
-0.000237216
-7.94182e-09
-5.98336e-09
-2.66881e-07
5.22654e-07
-3.34788e-08
0.000261106
4.36195e-07
-1.55092e-06
8.66734e-07
7.25705e-07
-5.80018e-07
-1.26356e-06
5.6263e-08
1.14562e-06
-5.32491e-07
1.3696e-07
-0.0011345
0.00113523
9.15479e-07
-1.37497e-06
5.81933e-07
-1.20409e-06
7.78882e-07
-2.68626e-08
6.33074e-09
0.000253594
3.45977e-08
-0.000253625
1.7194e-08
9.19787e-07
7.76495e-07
-1.20642e-06
-1.3777e-06
5.79615e-07
-1.4566e-07
-7.04536e-08
7.23828e-08
3.2897e-07
0.000253846
-8.52474e-08
0.00026101
-0.000260949
4.68636e-08
-2.4336e-08
-9.13901e-08
-1.24471e-08
0.000237407
1.44532e-08
0.000197452
-0.000197488
-4.65712e-09
-4.5658e-09
-1.92368e-08
0.000197646
0.000237105
-0.000237175
-8.06485e-09
-7.33384e-09
1.86389e-07
-1.35883e-08
0.000285855
-0.000286033
-6.75159e-08
1.886e-07
-1.3831e-08
0.000285997
-0.000286175
0.000276208
-0.000274105
7.0994e-08
7.61295e-08
0.00028553
2.31646e-08
-0.000285603
6.31336e-08
-7.63683e-09
0.000285672
2.28424e-08
-0.000285743
6.06271e-08
4.29454e-09
9.9356e-05
-9.94278e-05
9.92986e-05
-1.4743e-08
-9.92915e-05
6.20454e-09
-9.91431e-05
6.54868e-08
9.92046e-05
1.51389e-06
0.000274159
-5.05792e-07
-5.10511e-07
0.00028505
5.82965e-08
-0.000285118
2.24444e-08
-5.9711e-09
-6.01795e-09
0.000285192
5.57537e-08
-0.000285261
2.48313e-08
-1.37795e-08
1.80593e-07
0.000285358
-6.54129e-08
7.05051e-08
-1.6566e-08
1.82838e-07
0.0002855
-1.42832e-08
9.91752e-05
-9.91669e-05
4.69721e-09
9.92284e-05
-9.11349e-08
0.000261312
-0.000261248
5.20573e-08
-2.56278e-08
0.00113287
9.57134e-07
7.74315e-07
-1.21073e-06
5.72105e-07
-1.38553e-06
-0.00113227
-1.51318e-07
3.40137e-07
7.62812e-08
0.000254253
-7.30749e-08
-0.000254445
3.94211e-07
0.00113372
8.66378e-07
-1.51535e-06
1.23007e-07
-5.32869e-07
-1.27233e-06
6.11163e-08
-5.84074e-07
7.29387e-07
-2.79226e-07
0.000261398
5.33593e-07
-3.55106e-08
-0.000261616
0.00113359
9.23965e-07
-1.38287e-06
5.77252e-07
-1.20581e-06
7.76794e-07
-3.10351e-08
0.000253993
2.00594e-08
-0.00025403
4.28336e-08
5.26712e-11
0.000237603
-0.000237678
-8.46024e-09
-1.06422e-08
-2.03404e-08
0.000198032
-0.000198158
2.625e-10
0.000237921
-1.35316e-08
-9.48634e-08
-0.00023809
0.000197825
-5.14047e-09
-0.000197865
0.000237563
-0.000237635
-8.19687e-09
-1.06014e-08
-2.05133e-08
0.000197966
-0.000198093
-4.23837e-09
0.000237878
-1.34612e-08
-9.48488e-08
-0.000238049
0.000197759
1.49617e-08
-5.47548e-09
-0.000197799
1.20717e-09
-2.66886e-07
5.20073e-07
-3.29123e-08
0.000261124
4.35029e-07
8.66932e-07
1.10818e-06
-5.27163e-07
1.30932e-07
7.28693e-07
-5.82843e-07
-1.26644e-06
6.33956e-08
-0.00113442
-1.10724e-09
9.15137e-07
-1.37524e-06
5.81886e-07
7.78968e-07
-1.20146e-06
-2.65545e-08
3.67909e-08
-0.000253701
1.73531e-08
1.11968e-08
9.19736e-07
7.76658e-07
-1.20652e-06
-1.37789e-06
5.76759e-07
-1.45501e-07
7.26578e-08
3.28838e-07
0.00025392
-7.80423e-10
-8.52538e-08
-0.000260967
4.41122e-08
-2.52254e-08
-2.69359e-07
5.22592e-07
-3.3797e-08
0.000261094
4.24296e-07
-1.51139e-06
8.66971e-07
7.31283e-07
-5.8291e-07
-1.26883e-06
6.3471e-08
1.10538e-06
-5.27291e-07
1.3082e-07
-0.00113434
0.00113507
9.14927e-07
-1.37757e-06
5.81891e-07
-1.20129e-06
7.81403e-07
-2.67109e-08
6.31379e-09
0.000253555
3.94749e-08
-0.000253592
1.71056e-08
9.19403e-07
7.78993e-07
-1.20639e-06
-1.38031e-06
5.76728e-07
-1.45607e-07
-7.04484e-08
7.25886e-08
3.28929e-07
0.000253807
-8.26598e-08
0.000261001
-0.000260937
4.12151e-08
-2.3385e-08
2.78257e-10
-1.26515e-08
-9.13429e-08
0.00023744
0.000197508
-0.000197545
-4.2434e-09
-1.89908e-08
0.000197703
-5.36996e-12
0.000237139
-0.000237208
-7.55634e-09
-8.11089e-09
-1.24943e-08
-9.13421e-08
0.000237397
1.44915e-08
0.000197442
-0.000197479
-4.61502e-09
-4.58779e-09
-1.91898e-08
0.000197637
0.000237098
-0.000237165
-7.18091e-09
-8.05912e-09
9.9277e-05
-9.92699e-05
9.92724e-05
-9.92653e-05
0.000274129
-5.05319e-07
-5.08231e-07
-6.13598e-09
5.35819e-08
-0.000285197
2.19537e-08
-6.18509e-09
5.81207e-08
-0.000285121
2.24958e-08
-6.55633e-08
-1.33142e-08
1.83005e-07
0.000285439
-6.55067e-08
-1.37506e-08
1.82894e-07
0.000285358
9.91536e-05
-9.91453e-05
9.92068e-05
9.91491e-05
-9.91408e-05
9.92023e-05
6.38817e-08
9.91119e-05
4.46478e-09
-9.90528e-05
6.34623e-08
9.90989e-05
4.44475e-09
-9.90403e-05
6.80821e-08
1.7997e-07
-1.35693e-08
0.000285019
6.79564e-08
1.79669e-07
-1.36679e-08
0.000284942
-1.15878e-06
-1.1186e-06
-0.000274327
8.07633e-08
8.62334e-08
-7.51061e-09
2.07799e-08
-0.00028479
5.1289e-08
-7.51051e-09
2.08506e-08
-0.000284714
4.88924e-08
7.70869e-08
-0.000236741
-5.81078e-09
-6.77602e-09
1.40396e-07
-1.80508e-08
0.00019734
2.57408e-07
0.000236963
-8.82724e-08
-1.17819e-08
2.27334e-08
-3.66885e-09
-0.000197192
-9.67577e-10
-0.000260668
-2.25475e-08
3.58614e-08
3.23305e-07
6.91251e-08
0.000253493
0.0011363
3.64789e-09
9.11119e-07
7.86881e-07
-1.20734e-06
-1.37811e-06
5.89897e-07
4.28888e-07
8.51935e-07
-1.55524e-06
1.41628e-07
-5.24408e-07
-1.26147e-06
6.98272e-08
-5.71718e-07
7.39786e-07
7.77474e-10
0.000260831
-2.9773e-08
5.14132e-07
1.46152e-08
-0.000253282
3.11788e-08
-3.57734e-09
9.07016e-07
-1.37503e-06
5.92203e-07
-1.20482e-06
7.89168e-07
-0.000260642
-2.17023e-08
3.58671e-08
-6.52154e-08
3.23228e-07
6.89588e-08
0.000253382
0.00113626
9.1126e-07
7.86838e-07
-1.20732e-06
-1.37779e-06
5.89863e-07
4.23637e-07
1.15608e-06
8.5255e-07
-1.26132e-06
6.65396e-08
7.39665e-07
-5.68794e-07
-1.55269e-06
1.4146e-07
-5.24468e-07
0.000260805
-3.1477e-08
5.14115e-07
4.87306e-09
1.4696e-08
-0.000253173
3.13202e-08
9.07089e-07
-1.37477e-06
5.92166e-07
-1.20481e-06
7.89073e-07
1.79714e-07
-1.29532e-08
0.000284888
-6.58008e-08
1.79695e-07
-1.3448e-08
0.000285031
-0.000274308
8.0867e-08
8.3499e-08
2.37341e-08
-0.000284658
4.9017e-08
-2.46271e-09
2.15195e-08
-0.000284803
4.91112e-08
4.93443e-09
9.91061e-05
-1.41907e-08
-9.90475e-05
-1.73879e-09
-0.000260659
-2.21684e-08
3.30684e-08
3.20583e-07
6.90771e-08
0.000253458
0.00113615
3.25896e-09
9.10818e-07
7.86696e-07
-1.20445e-06
-1.37789e-06
5.87022e-07
4.22505e-07
8.52919e-07
-1.51558e-06
1.35625e-07
-5.19004e-07
-1.26133e-06
7.00528e-08
-5.71574e-07
7.39719e-07
1.75837e-09
0.000260821
-3.08824e-08
5.16817e-07
1.46073e-08
-0.000253246
3.10355e-08
-3.90072e-09
9.06502e-07
-1.37482e-06
5.89279e-07
-1.20198e-06
7.89029e-07
7.70132e-08
-0.000236729
-5.73019e-09
-6.81114e-09
1.40369e-07
-1.81336e-08
0.00019733
2.57342e-07
0.000236951
-8.82646e-08
-1.1352e-08
2.28715e-08
-3.99286e-09
-0.00019718
-0.000260631
3.30675e-08
-2.18298e-08
0.00113609
9.10864e-07
7.86976e-07
-1.20446e-06
-1.37768e-06
5.87058e-07
-6.80071e-08
3.1813e-07
6.90296e-08
0.000253374
4.2349e-07
1.15075e-06
8.51607e-07
-1.26114e-06
6.67038e-08
7.39842e-07
-5.68723e-07
-1.54713e-06
1.41707e-07
-5.24352e-07
0.000260794
5.16826e-07
-3.11797e-08
9.06588e-07
-1.37466e-06
5.89318e-07
-1.20199e-06
7.89195e-07
7.78542e-09
1.42478e-08
-0.000253163
3.40355e-08
8.67162e-11
-0.000236766
-7.08396e-09
-3.76838e-09
-1.79984e-08
0.000197393
8.59811e-11
0.000236988
-1.12971e-08
-9.03859e-08
-3.83085e-09
-0.000197243
-7.72284e-08
-0.000260626
3.89005e-08
-2.15961e-08
0.00113595
9.11037e-07
7.81223e-07
-1.20168e-06
5.84198e-07
-1.37217e-06
-1.40366e-07
3.23167e-07
6.90035e-08
0.00025341
4.23372e-07
8.52026e-07
-1.54409e-06
1.38826e-07
-5.213e-07
-1.25269e-06
6.327e-08
-5.65779e-07
7.31476e-07
-2.57347e-07
0.000260789
5.1134e-07
-3.13079e-08
9.06711e-07
-1.36911e-06
5.86446e-07
-1.19919e-06
7.83437e-07
-2.28285e-08
1.4565e-08
-0.000253198
2.86926e-08
-0.000236726
-5.86477e-09
-6.48817e-09
-4.90061e-09
-1.81246e-08
0.000197334
0.000236948
-8.82744e-08
-1.15765e-08
1.40704e-08
-3.90516e-09
-0.000197184
1.75016e-07
-1.39514e-08
0.000284885
-6.34049e-08
1.77252e-07
-1.67438e-08
0.000285027
-0.000274294
8.11463e-08
8.63371e-08
2.17846e-08
-0.000284656
5.37536e-08
-4.46852e-09
2.41769e-08
-0.000284799
5.12296e-08
5.01089e-09
9.91068e-05
-1.39079e-08
-9.90481e-05
-7.46361e-08
-0.000260614
3.3156e-08
-2.10638e-08
0.0011358
9.10655e-07
7.8367e-07
-1.20172e-06
5.81286e-07
-1.37477e-06
-1.40307e-07
3.17977e-07
6.91252e-08
0.000253377
4.22268e-07
8.52494e-07
-1.50719e-06
1.35734e-07
-5.18879e-07
-1.25815e-06
7.0247e-08
-5.71445e-07
7.36907e-07
-2.59817e-07
0.000260777
5.16754e-07
-3.18845e-08
9.06366e-07
-1.37175e-06
5.8643e-07
-1.19643e-06
7.85926e-07
-2.27086e-08
1.44738e-08
-0.000253165
3.36613e-08
6.89378e-12
-0.000236759
-6.71304e-09
-5.92258e-09
-1.78587e-08
0.000197391
2.36778e-10
0.000236981
-1.18023e-08
-8.82308e-08
-3.49386e-09
-0.000197241
-0.000236716
-6.48481e-09
-5.86707e-09
-4.89689e-09
-1.80905e-08
0.000197325
0.000236938
-1.1576e-08
-8.82134e-08
1.4112e-08
-3.89508e-09
-0.000197175
9.90852e-05
-9.90264e-05
9.90807e-05
-9.9022e-05
-4.96673e-10
8.64054e-08
0.000145584
-0.000145667
-3.68983e-09
-9.31173e-08
-1.2719e-08
-0.000237868
-2.96594e-10
2.71824e-07
-0.000173727
-1.01234e-10
-2.22224e-10
0.000173717
-0.000230529
-7.3013e-09
-8.58504e-09
0.000230467
6.9876e-08
-0.000173821
-2.80325e-10
-0.000230687
-1.71693e-08
2.48821e-07
-1.50699e-10
0.000145577
-8.0366e-05
-1.38653e-08
-1.71607e-10
8.03801e-05
-6.16005e-08
0.000270221
1.76306e-08
1.98976e-07
-0.000270397
-6.58356e-09
0.000198006
1.74053e-08
3.3534e-08
3.44445e-09
-8.04311e-05
8.89316e-09
0.00027015
4.25117e-08
-0.000145675
-2.52724e-10
8.58408e-09
-1.20347e-08
-8.75951e-09
-9.30111e-11
9.7977e-08
8.20719e-10
0.000173833
-2.13274e-10
-0.000173928
-8.80202e-08
0.000230753
2.53371e-07
-0.000230913
-0.000145759
-1.94108e-10
7.38248e-08
6.04589e-08
8.03159e-05
-0.000269978
1.47093e-08
0.000269909
3.95401e-08
-1.99435e-08
-4.45505e-09
1.4857e-07
1.95393e-07
8.03305e-05
9.93462e-05
-1.53203e-08
6.34899e-09
-9.93372e-05
4.5154e-09
6.89937e-08
8.64599e-08
-3.28501e-10
0.000145583
-0.000145665
-3.82453e-09
-1.30857e-08
-9.30896e-08
-0.000237855
-1.32955e-11
2.71786e-07
-0.000230519
-7.28381e-09
-8.50873e-09
0.000230457
6.98371e-08
-0.000173724
-1.84291e-10
-3.96674e-11
0.000173714
-0.000230677
-1.72328e-08
2.48856e-07
-0.000173818
-3.43129e-11
-1.20967e-10
0.000145575
-8.03673e-05
-1.41309e-08
-1.0309e-10
8.03816e-05
-6.16307e-08
0.000270216
1.77375e-08
1.98945e-07
-0.000270392
-6.0482e-09
0.000197988
1.54411e-08
3.32625e-08
3.54417e-09
-8.04325e-05
9.11406e-09
0.000270144
4.23699e-08
-0.000145674
8.52947e-09
-1.48676e-10
-8.68621e-09
-1.1978e-08
-2.04557e-11
9.79433e-08
-8.80152e-08
0.000230742
2.53408e-07
-0.000230903
6.71648e-10
0.00017383
-2.49316e-11
-0.000173925
-0.000145757
7.38302e-08
-1.81676e-11
6.05852e-08
8.03172e-05
-0.000269972
1.47715e-08
0.000269903
3.94061e-08
-2.00896e-08
-3.76582e-09
1.48351e-07
1.9545e-07
8.03318e-05
9.93386e-05
-1.51786e-08
8.76294e-09
4.44056e-09
6.65247e-08
-4.09482e-08
-4.09774e-08
0.000218974
-0.000219099
1.02389e-07
1.04761e-07
-8.19487e-05
8.42499e-09
-1.72031e-08
8.19574e-05
-8.19368e-05
8.39817e-09
-1.72017e-08
8.19456e-05
-8.20139e-05
2.42455e-08
-8.2002e-05
2.42222e-08
3.85378e-08
3.85936e-08
0.000218913
7.02955e-08
-3.85649e-08
-4.02818e-08
0.00022902
5.74877e-08
-0.000229069
6.33377e-08
2.35799e-08
0.000285865
-8.74103e-09
-0.000285939
-3.89576e-09
0.000260211
7.79224e-08
-0.000260235
7.91784e-08
1.73745e-08
0.000187189
-0.000187221
7.28425e-08
-3.84422e-08
-3.83048e-08
0.000228944
5.74552e-08
-0.000228998
6.31332e-08
2.35081e-08
0.00028578
-8.73602e-09
-3.82625e-09
-0.000285854
0.000260089
7.31724e-08
8.41338e-08
-0.000260111
1.73295e-08
0.000187135
-0.000187167
-9.13523e-09
-9.06466e-09
-0.000219159
-8.20056e-05
-8.19937e-05
1.46282e-07
-1.28212e-07
0.000228869
2.35293e-07
-0.000187072
3.48341e-08
0.000187043
1.88289e-07
-1.31967e-08
-6.66255e-08
7.16762e-08
-0.000260028
-6.99257e-08
0.000260008
7.24586e-08
7.85552e-08
3.28231e-07
1.89569e-07
0.000228815
5.7357e-08
1.46374e-07
-1.26184e-07
0.000228798
2.30946e-07
-0.000187019
3.67606e-08
0.000186988
1.85787e-07
-1.3677e-08
-6.65429e-08
7.1744e-08
-0.000259909
-7.23044e-08
0.000259891
6.99011e-08
8.097e-08
3.22918e-07
1.89636e-07
0.000228746
5.50698e-08
8.97047e-10
8.06897e-08
0.000145247
-0.000145323
-4.78348e-09
-8.68709e-08
-1.1108e-08
-0.000236937
-1.75101e-10
2.52805e-07
-0.000173341
-1.19632e-09
-6.35295e-11
-0.000229693
-2.81384e-09
-6.87934e-09
5.52504e-08
-0.000173427
-6.65126e-11
-0.00022984
-1.56798e-08
2.31705e-07
-7.46644e-10
-8.01732e-05
-1.67362e-08
7.04584e-10
8.01893e-05
-5.75108e-08
0.000269285
1.62024e-08
-0.000269447
1.85189e-07
-3.89498e-09
0.000197374
1.40769e-08
2.47424e-08
4.62224e-09
-8.02354e-05
7.44356e-09
0.000269226
3.12107e-08
-0.000145328
1.02493e-09
3.88787e-09
-6.82285e-09
-7.05394e-09
-3.15466e-11
8.10387e-08
-5.56411e-10
0.000173433
-0.00017352
-1.58869e-10
-8.20189e-08
0.000229894
-0.000230043
2.35911e-07
-0.000145406
-3.67844e-11
5.88104e-08
5.66906e-08
8.01278e-05
-0.000269067
1.73758e-08
2.85463e-08
-1.75776e-08
-5.06619e-09
1.37836e-07
1.82023e-07
9.90971e-05
-1.39616e-08
5.95859e-09
5.22723e-09
6.28554e-08
8.06762e-08
9.74642e-10
0.000145245
-0.000145321
-4.82876e-09
-1.14269e-08
-8.6869e-08
-0.000236925
4.48955e-11
2.52776e-07
-0.000229682
-2.76607e-09
-6.95672e-09
5.51751e-08
-0.000173338
-1.28343e-09
7.1192e-11