/*--------------------------------*- C++ -*----------------------------------*\
| =========                 |                                                 |
| \\      /  F ield         | OpenFOAM: The Open Source CFD Toolbox           |
|  \\    /   O peration     | Version:  2312                                  |
|   \\  /    A nd           | Website:  www.openfoam.com                      |
|    \\/     M anipulation  |                                                 |
\*---------------------------------------------------------------------------*/
FoamFile
{
    version     2.0;
    format      ascii;
    arch        "LSB;label=32;scalar=64";
    class       volScalarField;
    location    "150";
    object      nut;
}
// * * * * * * * * * * * * * * * * * * * * * * * * * * * * * * * * * * * * * //

dimensions      [0 2 -1 0 0 0 0];

internalField   nonuniform List<scalar> 
42840
(
0.000145914
9.85753e-05
9.85794e-05
8.18678e-05
0.000141879
9.62248e-05
9.62274e-05
8.1896e-05
0.000137929
9.43664e-05
9.43672e-05
8.21074e-05
0.0001341
9.29815e-05
9.29803e-05
8.27396e-05
0.00013043
9.20384e-05
9.20359e-05
8.3653e-05
0.000126974
9.14887e-05
9.1493e-05
8.47057e-05
0.000123787
9.12922e-05
9.13011e-05
8.57579e-05
0.000120915
9.13577e-05
9.14013e-05
8.65535e-05
0.000118381
9.16198e-05
9.17158e-05
8.73307e-05
0.0001162
9.19787e-05
9.21518e-05
8.81936e-05
0.000114338
9.23498e-05
9.25989e-05
8.91689e-05
0.000112796
9.28047e-05
9.3105e-05
9.10263e-05
0.000111596
9.34313e-05
9.35262e-05
9.25628e-05
0.000110705
9.40554e-05
9.4013e-05
9.38024e-05
0.000110071
9.44979e-05
9.44862e-05
9.43892e-05
0.000109701
9.48671e-05
9.4876e-05
9.50713e-05
0.000109518
9.51804e-05
9.51895e-05
9.54171e-05
0.00010943
9.54302e-05
9.54014e-05
9.53828e-05
0.000109378
9.56933e-05
9.56209e-05
9.57527e-05
0.000109378
9.58263e-05
9.58269e-05
9.62707e-05
0.000109339
9.58859e-05
9.5936e-05
9.64823e-05
0.000109329
9.59273e-05
9.59877e-05
9.61177e-05
0.00010936
9.59978e-05
9.60409e-05
9.59379e-05
0.000109408
9.61183e-05
9.61145e-05
9.62887e-05
0.000109485
9.61938e-05
9.63289e-05
9.6506e-05
8.19977e-05
8.17513e-05
9.85459e-05
9.85344e-05
9.68036e-05
9.67907e-05
8.18059e-05
8.2138e-05
9.85633e-05
9.85381e-05
9.6818e-05
9.67927e-05
9.85453e-05
9.68115e-05
9.68109e-05
8.18046e-05
8.17226e-05
9.85556e-05
9.68182e-05
9.68209e-05
8.1745e-05
8.19207e-05
8.2359e-05
9.61947e-05
9.61846e-05
9.48352e-05
9.48258e-05
8.16809e-05
8.23832e-05
9.62092e-05
9.61851e-05
9.48488e-05
9.48258e-05
9.61938e-05
9.48419e-05
9.48444e-05
8.19255e-05
8.24259e-05
9.62033e-05
9.48449e-05
9.48555e-05
8.21179e-05
8.20699e-05
8.2816e-05
9.43331e-05
9.4327e-05
9.3352e-05
9.33436e-05
8.2022e-05
8.29758e-05
9.43491e-05
9.4324e-05
9.33657e-05
9.33422e-05
9.43318e-05
9.33521e-05
9.33609e-05
8.20068e-05
8.27211e-05
9.43391e-05
9.33533e-05
9.33688e-05
8.27274e-05
8.28486e-05
8.367e-05
9.29496e-05
9.29406e-05
9.2321e-05
9.23112e-05
8.26745e-05
8.36367e-05
9.29669e-05
9.29382e-05
9.23348e-05
9.23104e-05
9.29478e-05
9.23107e-05
9.23326e-05
8.28642e-05
8.34085e-05
9.29524e-05
9.23114e-05
9.23357e-05
8.38851e-05
8.37816e-05
8.45373e-05
9.20131e-05
9.20039e-05
9.17069e-05
9.16968e-05
8.36702e-05
8.45233e-05
9.20253e-05
9.1999e-05
9.17173e-05
9.16975e-05
9.2011e-05
9.16847e-05
9.17193e-05
8.37904e-05
8.45733e-05
9.20088e-05
9.16846e-05
9.17201e-05
8.48613e-05
8.47951e-05
8.5767e-05
9.14803e-05
9.14639e-05
9.14596e-05
9.14503e-05
8.47339e-05
8.572e-05
9.14865e-05
9.14691e-05
9.14641e-05
9.14585e-05
9.14738e-05
9.14196e-05
9.14657e-05
8.47136e-05
8.56214e-05
9.14649e-05
9.1424e-05
9.14645e-05
8.58708e-05
8.5971e-05
8.67885e-05
9.12958e-05
9.12889e-05
9.14941e-05
9.15012e-05
8.59536e-05
8.63553e-05
9.13015e-05
9.12998e-05
9.14976e-05
9.15318e-05
9.12826e-05
9.14406e-05
9.14823e-05
8.59956e-05
8.68911e-05
9.12755e-05
9.14702e-05
9.14885e-05
8.63079e-05
8.65944e-05
8.70687e-05
9.13764e-05
9.13858e-05
9.172e-05
9.17476e-05
8.68332e-05
8.71237e-05
9.13742e-05
9.14267e-05
9.1706e-05
9.18405e-05
9.13411e-05
9.16654e-05
9.1691e-05
8.70608e-05
8.82536e-05
9.13465e-05
9.17558e-05
9.17038e-05
8.68584e-05
8.73964e-05
8.82785e-05
9.1634e-05
9.1665e-05
9.20971e-05
9.212e-05
8.7906e-05
8.86366e-05
9.16187e-05
9.17704e-05
9.20935e-05
9.22828e-05
9.15899e-05
9.20244e-05
9.2049e-05
8.8204e-05
8.90181e-05
9.15966e-05
9.21864e-05
9.20776e-05
8.80029e-05
8.8367e-05
8.90555e-05
9.20403e-05
9.20579e-05
9.25468e-05
9.25218e-05
8.88632e-05
8.9374e-05
9.20325e-05
9.22149e-05
9.2523e-05
9.27106e-05
9.19714e-05
9.239e-05
9.24464e-05
8.92499e-05
9.00281e-05
9.19998e-05
9.26271e-05
9.25273e-05
8.92457e-05
8.9434e-05
9.06572e-05
9.2512e-05
9.24618e-05
9.30866e-05
9.29619e-05
8.98592e-05
9.04417e-05
9.24731e-05
9.26486e-05
9.30394e-05
9.32144e-05
9.23999e-05
9.28145e-05
9.29519e-05
9.02402e-05
9.17335e-05
9.24604e-05
9.31312e-05
9.30129e-05
9.0693e-05
9.12542e-05
9.2688e-05
9.30812e-05
9.29326e-05
9.3633e-05
9.34795e-05
9.07729e-05
9.18733e-05
9.30267e-05
9.31882e-05
9.35819e-05
9.37486e-05
9.29378e-05
9.33883e-05
9.35266e-05
9.20528e-05
9.30327e-05
9.29618e-05
9.3565e-05
9.3501e-05
9.22655e-05
9.29403e-05
9.38368e-05
9.3639e-05
9.35e-05
9.41576e-05
9.40968e-05
9.23962e-05
9.37015e-05
9.35889e-05
9.37267e-05
9.41436e-05
9.42292e-05
9.35492e-05
9.40333e-05
9.41454e-05
9.31471e-05
9.36915e-05
9.34998e-05
9.40135e-05
9.40965e-05
9.36416e-05
9.39855e-05
9.44628e-05
9.41771e-05
9.41369e-05
9.46271e-05
9.46339e-05
9.39121e-05
9.44891e-05
9.4168e-05
9.42196e-05
9.46124e-05
9.46489e-05
9.41646e-05
9.45131e-05
9.4614e-05
9.38333e-05
9.43579e-05
9.41127e-05
9.44991e-05
9.45919e-05
9.42951e-05
9.45438e-05
9.47058e-05
9.46517e-05
9.46543e-05
9.50182e-05
9.50345e-05
9.45945e-05
9.49736e-05
9.46457e-05
9.46379e-05
9.50172e-05
9.49335e-05
9.46227e-05
9.48475e-05
9.49859e-05
9.44546e-05
9.47584e-05
9.4595e-05
9.48573e-05
9.49645e-05
9.4915e-05
9.48103e-05
9.52022e-05
9.50622e-05
9.50813e-05
9.53018e-05
9.53078e-05
9.5068e-05
9.53029e-05
9.50583e-05
9.4964e-05
9.52824e-05
9.5222e-05
9.50252e-05
9.51698e-05
9.52657e-05
9.46176e-05
9.49492e-05
9.50125e-05
9.51681e-05
9.52863e-05
9.54498e-05
9.48916e-05
9.49243e-05
9.53728e-05
9.53604e-05
9.54801e-05
9.54955e-05
9.53226e-05
9.54094e-05
9.5356e-05
9.52884e-05
9.54624e-05
9.54312e-05
9.53343e-05
9.54138e-05
9.54604e-05
9.50906e-05
9.5282e-05
9.53317e-05
9.5396e-05
9.54659e-05
9.53631e-05
9.49713e-05
9.445e-05
9.55467e-05
9.5556e-05
9.55682e-05
9.56987e-05
9.54907e-05
9.5965e-05
9.55103e-05
9.54861e-05
9.55399e-05
9.55902e-05
9.5527e-05
9.56776e-05
9.56124e-05
9.53206e-05
9.55522e-05
9.55239e-05
9.55957e-05
9.56236e-05
9.56067e-05
9.46236e-05
9.54363e-05
9.56176e-05
9.57889e-05
9.56854e-05
9.58262e-05
9.61193e-05
9.63722e-05
9.55666e-05
9.56379e-05
9.56565e-05
9.57733e-05
9.56549e-05
9.58381e-05
9.5761e-05
9.56768e-05
9.61734e-05
9.57089e-05
9.5835e-05
9.57865e-05
9.61695e-05
9.55379e-05
9.60225e-05
9.57273e-05
9.58699e-05
9.57299e-05
9.58809e-05
9.64714e-05
9.65176e-05
9.57094e-05
9.58408e-05
9.57287e-05
9.58962e-05
9.58126e-05
9.59026e-05
9.58927e-05
9.62137e-05
9.65e-05
9.58382e-05
9.59521e-05
9.58305e-05
9.64153e-05
9.60339e-05
9.6327e-05
9.57526e-05
9.58924e-05
9.58039e-05
9.58843e-05
9.65166e-05
9.57828e-05
9.57632e-05
9.59015e-05
9.58017e-05
9.59062e-05
9.59526e-05
9.59515e-05
9.60657e-05
9.64793e-05
9.66451e-05
9.58541e-05
9.60002e-05
9.58563e-05
9.61154e-05
9.63177e-05
9.61083e-05
9.58522e-05
9.59375e-05
9.5936e-05
9.59788e-05
9.57692e-05
9.61412e-05
9.58352e-05
9.59173e-05
9.59313e-05
9.60063e-05
9.61235e-05
9.60141e-05
9.61649e-05
9.66672e-05
9.67356e-05
9.58734e-05
9.60504e-05
9.59398e-05
9.59146e-05
9.57085e-05
9.5983e-05
9.5981e-05
9.60446e-05
9.60975e-05
9.61234e-05
9.61402e-05
9.64115e-05
9.59709e-05
9.60477e-05
9.60916e-05
9.61711e-05
9.61944e-05
9.61315e-05
9.62067e-05
9.6804e-05
9.69177e-05
9.59977e-05
9.61504e-05
9.60819e-05
9.62331e-05
9.60966e-05
9.63728e-05
9.61493e-05
9.61624e-05
9.62169e-05
9.61406e-05
9.63857e-05
9.6512e-05
9.61633e-05
9.62389e-05
9.62162e-05
9.63273e-05
9.62267e-05
9.61655e-05
9.62141e-05
9.69436e-05
9.70431e-05
9.61264e-05
9.62689e-05
9.61342e-05
9.64379e-05
9.646e-05
9.62975e-05
9.61847e-05
9.65671e-05
9.63033e-05
9.64154e-05
9.62952e-05
9.70173e-05
9.61648e-05
7.19064e-05
4.95751e-05
4.95861e-05
7.11211e-05
2.36149e-05
2.36113e-05
7.19078e-05
4.95733e-05
4.95785e-05
7.111e-05
0.000145911
0.000145911
0.000145905
0.000142926
0.000142915
0.000142916
0.000142921
6.98056e-05
6.75814e-05
0.000121988
9.79844e-05
6.81923e-05
0.000121061
6.88251e-05
2.36142e-05
2.36105e-05
6.97822e-05
0.000121977
6.75514e-05
9.79905e-05
0.000121067
6.81769e-05
6.88315e-05
6.20154e-05
6.20098e-05
8.17078e-05
6.23023e-05
6.23017e-05
7.35372e-05
4.9592e-05
7.28526e-05
4.95978e-05
2.36014e-05
2.35978e-05
7.35446e-05
4.95864e-05
7.28526e-05
4.95923e-05
0.000141877
0.000141877
0.000141871
0.000138963
0.000138953
0.000138952
0.000138961
7.25696e-05
6.92778e-05
0.000118256
9.57657e-05
7.16218e-05
6.98603e-05
0.000117398
2.36007e-05
2.35969e-05
7.2541e-05
0.000118241
6.92682e-05
9.57691e-05
7.1635e-05
0.000117403
6.98477e-05
6.2843e-05
6.28372e-05
8.2037e-05
6.31013e-05
6.30969e-05
7.48838e-05
4.96037e-05
7.42855e-05
4.96071e-05
2.35877e-05
2.35838e-05
7.48894e-05
4.95982e-05
7.43059e-05
4.96018e-05
0.000137929
0.000137927
0.000137921
0.0001351
0.000135093
0.000135092
0.000135103
7.51513e-05
7.08505e-05
0.000114805
9.40395e-05
7.42813e-05
7.13741e-05
0.000114053
2.35868e-05
2.35827e-05
7.51289e-05
0.000114791
7.08374e-05
9.40402e-05
7.42804e-05
0.000114055
7.13216e-05
6.3582e-05
6.35735e-05
8.24077e-05
6.38183e-05
6.38065e-05
7.60087e-05
4.96091e-05
7.54928e-05
4.96087e-05
2.35729e-05
2.35684e-05
7.60548e-05
4.96035e-05
7.55311e-05
4.96033e-05
0.0001341
0.000134096
0.000134093
0.000131419
0.000131417
0.000131415
0.000131423
7.7469e-05
7.22629e-05
0.000111686
9.27814e-05
7.67342e-05
7.27458e-05
0.000111041
2.35717e-05
2.35671e-05
7.74373e-05
0.000111671
7.22584e-05
9.27811e-05
7.66724e-05
0.00011104
7.26771e-05
6.42346e-05
6.42242e-05
8.34317e-05
6.44461e-05
6.44398e-05
7.69377e-05
4.96043e-05
7.65191e-05
4.96008e-05
2.35562e-05
2.35512e-05
7.70162e-05
4.95984e-05
7.65642e-05
4.95965e-05
0.000130434
0.000130429
0.000130428
0.000127922
0.000127921
0.000127919
0.000127931
7.95432e-05
7.3511e-05
0.000108919
9.19546e-05
7.88884e-05
7.38945e-05
0.000108401
2.35549e-05
2.35497e-05
7.94852e-05
0.000108899
7.3489e-05
9.19507e-05
7.88051e-05
0.000108397
7.38484e-05
6.48061e-05
6.48076e-05
8.41393e-05
6.49878e-05
6.50015e-05
7.77511e-05
4.95939e-05
7.73817e-05
4.95867e-05
2.35377e-05
2.35319e-05
7.78165e-05
4.95857e-05
7.74509e-05
4.95843e-05
0.000126984
0.000126979
0.000126979
0.000124681
0.000124681
0.000124682
0.000124696
8.13668e-05
7.45818e-05
0.000106551
9.15165e-05
8.07353e-05
7.48919e-05
0.000106154
2.35363e-05
2.35305e-05
8.1336e-05
0.000106521
7.45296e-05
9.15192e-05
8.06866e-05
0.00010614
7.48646e-05
6.52799e-05
6.53201e-05
8.53874e-05
6.54465e-05
6.5489e-05
7.84116e-05
4.95745e-05
7.81068e-05
4.95704e-05
2.35173e-05
2.35114e-05
7.84971e-05
4.95682e-05
7.81976e-05
4.95596e-05
0.000123804
0.000123802
0.000123801
0.000121742
0.000121748
0.00012175
0.00012176
8.29754e-05
7.5465e-05
0.000104575
9.14129e-05
8.23929e-05
7.57626e-05
0.000104304
2.35161e-05
2.351e-05
8.29446e-05
0.000104553
7.54213e-05
9.14217e-05
8.23424e-05
0.000104285
7.57405e-05
6.56943e-05
6.57475e-05
8.61092e-05
6.5848e-05
6.58979e-05
7.89753e-05
4.95507e-05
7.87071e-05
4.95478e-05
2.34969e-05
2.34915e-05
7.90632e-05
4.95484e-05
7.88255e-05
4.95382e-05
0.000120943
0.000120946
0.000120942
0.000119132
0.000119145
0.000119151
0.000119145
8.44039e-05
7.62334e-05
0.000102997
9.15421e-05
8.38884e-05
7.64693e-05
0.000102834
2.34963e-05
2.34909e-05
8.42175e-05
0.000102988
7.6164e-05
9.15992e-05
8.37323e-05
0.00010284
7.64506e-05
6.60361e-05
6.61171e-05
8.68448e-05
6.6167e-05
6.6248e-05
7.95103e-05
4.95268e-05
7.92585e-05
4.95217e-05
2.34788e-05
2.3474e-05
7.95566e-05
4.95235e-05
7.9325e-05
4.95129e-05
0.000118432
0.000118444
0.00011843
0.000116859
0.000116883
0.000116889
0.000116872
8.56582e-05
7.68808e-05
0.000101785
9.18588e-05
8.51956e-05
7.71313e-05
0.000101733
2.3479e-05
2.34749e-05
8.55096e-05
0.000101779
7.68469e-05
9.19704e-05
8.4991e-05
0.000101719
7.70591e-05
6.6331e-05
6.64359e-05
8.76713e-05
6.64487e-05
6.6562e-05
7.98681e-05
4.95057e-05
7.96785e-05
4.95014e-05
2.3465e-05
2.34623e-05
8.00413e-05
4.95005e-05
7.98309e-05
4.94979e-05
0.00011626
0.000116283
0.000116263
0.000114909
0.000114926
0.000114942
0.00011493
8.70695e-05
7.74608e-05
0.000100863
9.22267e-05
8.65252e-05
7.77688e-05
0.000100855
2.34665e-05
2.34643e-05
8.6675e-05
0.000100797
7.742e-05
9.24271e-05
8.62225e-05
0.000100799
7.77261e-05
6.6611e-05
6.67321e-05
8.84042e-05
6.6718e-05
6.68514e-05
8.01741e-05
4.94951e-05
8.00374e-05
4.94926e-05
2.34566e-05
2.34562e-05
8.05176e-05
4.94934e-05
8.02933e-05
4.94917e-05
0.000114402
0.000114425
0.000114418
0.000113268
0.000113276
0.000113298
0.000113301
8.82729e-05
7.79906e-05
0.000100094
9.2613e-05
8.77911e-05
7.80282e-05
0.000100149
2.34588e-05
2.34582e-05
8.79134e-05
0.000100071
7.81092e-05
9.28944e-05
8.73704e-05
0.000100134
7.82105e-05
6.68188e-05
6.70148e-05
8.96356e-05
6.68741e-05
6.71036e-05
8.05765e-05
4.94886e-05
8.03851e-05
4.94876e-05
2.34533e-05
2.34542e-05
8.09658e-05
4.9488e-05
8.08325e-05
4.94858e-05
0.00011287
0.000112895
0.000112892
0.000111963
0.000111955
0.000111981
0.000111984
8.88555e-05
7.82744e-05
9.95194e-05
9.30972e-05
8.86931e-05
7.85016e-05
9.95877e-05
2.34554e-05
2.34561e-05
8.91096e-05
9.95379e-05
7.82763e-05
9.33903e-05
8.8569e-05
9.96343e-05
7.84617e-05
6.69231e-05
6.71244e-05
9.15083e-05
6.70116e-05
6.71684e-05
8.09575e-05
4.94881e-05
8.07824e-05
4.94916e-05
2.34522e-05
2.34534e-05
8.10877e-05
4.94793e-05
8.10905e-05
4.94825e-05
0.000111665
0.000111686
0.000111694
0.000110972
0.000110972
0.000110973
0.000111003
8.91568e-05
7.89262e-05
9.91195e-05
9.37505e-05
8.9257e-05
7.91059e-05
9.92661e-05
2.34536e-05
2.34544e-05
9.01475e-05
9.91714e-05
7.88094e-05
9.38012e-05
8.95984e-05
9.93058e-05
7.9045e-05
6.71578e-05
6.71739e-05
9.30277e-05
6.72567e-05
6.72421e-05
8.13346e-05
4.95004e-05
8.1178e-05
4.95032e-05
2.34539e-05
2.34565e-05
8.13447e-05
4.94889e-05
8.1194e-05
4.94969e-05
0.000110764
0.000110793
0.000110791
0.000110267
0.000110257
0.00011027
0.000110277
9.02469e-05
7.93072e-05
9.89791e-05
9.43333e-05
8.94463e-05
7.94099e-05
9.91384e-05
2.34537e-05
2.34561e-05
9.0596e-05
9.89832e-05
7.93861e-05
9.42967e-05
9.02559e-05
9.91366e-05
7.95259e-05
6.73807e-05
6.73833e-05
9.40337e-05
6.74753e-05
6.74574e-05
8.16486e-05
4.95091e-05
8.14966e-05
4.95139e-05
2.34575e-05
2.346e-05
8.15642e-05
4.95017e-05
8.14538e-05
4.95086e-05
0.000110147
0.000110152
0.000110155
0.000109823
0.000109805
0.000109808
0.000109813
9.11773e-05
7.96459e-05
9.89517e-05
9.47284e-05
9.11096e-05
7.979e-05
9.91322e-05
2.34568e-05
2.34592e-05
9.142e-05
9.89688e-05
7.96588e-05
9.47249e-05
9.11333e-05
9.91528e-05
7.9794e-05
6.75635e-05
6.75706e-05
9.45672e-05
6.76261e-05
6.7625e-05
8.17688e-05
4.95219e-05
8.17189e-05
4.95249e-05
2.34602e-05
2.34619e-05
8.17203e-05
4.95148e-05
8.1682e-05
4.95189e-05
0.000109775
0.00010977
0.000109779
0.00010958
0.000109587
0.000109567
0.000109578
9.13919e-05
7.9862e-05
9.90654e-05
9.50641e-05
9.13026e-05
7.99485e-05
9.92474e-05
2.3459e-05
2.34606e-05
9.15391e-05
9.90829e-05
7.9942e-05
9.50658e-05
9.15707e-05
9.92583e-05
7.99636e-05
6.76535e-05
6.76649e-05
9.52776e-05
6.76566e-05
6.76652e-05
8.16832e-05
4.95268e-05
8.16819e-05
4.95288e-05
2.34605e-05
2.34616e-05
8.18903e-05
4.95211e-05
8.18327e-05
4.95232e-05
0.000109582
0.000109556
0.00010957
0.000109468
0.000109487
0.000109451
0.000109464
9.15498e-05
8.01168e-05
9.92868e-05
9.52974e-05
9.14879e-05
8.0122e-05
9.94393e-05
2.34603e-05
2.3462e-05
9.16357e-05
9.92868e-05
8.01081e-05
9.53307e-05
9.17671e-05
9.94351e-05
8.01805e-05
6.76873e-05
6.77132e-05
9.54183e-05
6.76911e-05
6.77173e-05
8.17205e-05
4.95281e-05
8.17123e-05
4.95281e-05
2.34601e-05
2.34617e-05
8.17968e-05
4.9522e-05
8.17836e-05
4.95225e-05
0.000109492
0.000109476
0.000109471
0.00010941
0.000109435
0.000109404
0.000109406
9.18589e-05
8.01191e-05
9.95373e-05
9.55731e-05
9.1877e-05
8.02608e-05
9.9646e-05
2.34612e-05
2.34626e-05
9.17471e-05
9.95267e-05
8.01093e-05
9.55264e-05
9.17698e-05
9.9666e-05
8.01591e-05
6.7707e-05
6.77056e-05
9.5427e-05
6.7708e-05
6.77261e-05
8.17692e-05
4.95269e-05
8.17651e-05
4.95271e-05
2.34611e-05
2.34624e-05
8.16825e-05
4.95206e-05
8.1657e-05
4.95206e-05
0.000109476
0.000109424
0.000109429
0.000109402
0.000109426
0.000109398
0.000109403
9.16927e-05
8.02344e-05
9.96622e-05
9.58169e-05
9.1618e-05
8.02562e-05
9.97263e-05
2.3462e-05
2.34631e-05
9.178e-05
9.96703e-05
8.02159e-05
9.57657e-05
9.17807e-05
9.97735e-05
8.02696e-05
6.77166e-05
6.77318e-05
9.59263e-05
6.77461e-05
6.77202e-05
8.17927e-05
4.95255e-05
8.17076e-05
4.95264e-05
2.34617e-05
2.34635e-05
8.16914e-05
4.95199e-05
8.16616e-05
4.95196e-05
0.000109446
0.000109451
0.000109438
0.000109384
0.000109414
0.000109423
0.000109409
9.18262e-05
8.02892e-05
9.96938e-05
9.5904e-05
9.17878e-05
8.02388e-05
9.97382e-05
2.34621e-05
2.34637e-05
9.15715e-05
9.97557e-05
8.01616e-05
9.59063e-05
9.15643e-05
9.97924e-05
8.0241e-05
6.77396e-05
6.77499e-05
9.63303e-05
6.7747e-05
6.77487e-05
8.18158e-05
4.95243e-05
8.17589e-05
4.95265e-05
2.34631e-05
2.34653e-05
8.16712e-05
4.95188e-05
8.17494e-05
4.95189e-05
0.000109438
0.000109452
0.000109437
0.000109391
0.000109437
0.000109425
0.000109434
9.1725e-05
8.0254e-05
9.97233e-05
9.59246e-05
9.18612e-05
8.02351e-05
9.97875e-05
2.3463e-05
2.34647e-05
9.17621e-05
9.9773e-05
8.02604e-05
9.59943e-05
9.1696e-05
9.97879e-05
8.02709e-05
6.77407e-05
6.77668e-05
9.65529e-05
6.77814e-05
6.77554e-05
8.17146e-05
4.95286e-05
8.17864e-05
4.95314e-05
2.34652e-05
2.34672e-05
8.16737e-05
4.95201e-05
8.1666e-05
4.95226e-05
0.000109465
0.000109438
0.000109455
0.000109418
0.000109457
0.000109425
0.000109453
9.22101e-05
8.02729e-05
9.97716e-05
9.59784e-05
9.16941e-05
8.02991e-05
9.98415e-05
2.34646e-05
2.34669e-05
9.17044e-05
9.97671e-05
8.02319e-05
9.60465e-05
9.17324e-05
9.97895e-05
8.02287e-05
6.77633e-05
6.77522e-05
9.63129e-05
6.77503e-05
6.7776e-05
8.17697e-05
4.95346e-05
8.17544e-05
4.9538e-05
2.34671e-05
2.34689e-05
8.17628e-05
4.95262e-05
8.1691e-05
4.95291e-05
0.000109494
0.000109471
0.000109501
0.000109448
0.000109511
0.000109468
0.000109482
9.21286e-05
8.03362e-05
9.98709e-05
9.60748e-05
9.21016e-05
8.04058e-05
9.99145e-05
2.34674e-05
2.34696e-05
9.17698e-05
9.97898e-05
8.02543e-05
9.6105e-05
9.14213e-05
9.98045e-05
8.02167e-05
6.77683e-05
6.77901e-05
9.61199e-05
6.77625e-05
6.7794e-05
8.18006e-05
4.95427e-05
8.17267e-05
4.95448e-05
2.34685e-05
2.34706e-05
8.17286e-05
4.95345e-05
8.17533e-05
4.95364e-05
0.000109521
0.000109481
0.000109501
0.000109454
0.000109472
0.000109484
0.000109479
9.19466e-05
8.04285e-05
9.99208e-05
9.61608e-05
9.18321e-05
8.04288e-05
9.99885e-05
2.34692e-05
2.3471e-05
9.16045e-05
9.98e-05
8.02927e-05
9.62175e-05
9.17322e-05
9.98578e-05
8.03625e-05
6.77874e-05
6.78098e-05
9.63362e-05
6.78028e-05
6.78259e-05
8.18114e-05
4.95457e-05
8.18082e-05
4.9547e-05
2.347e-05
2.34719e-05
8.17893e-05
4.95387e-05
8.17735e-05
4.95438e-05
0.000109532
0.000109549
0.000109511
9.20292e-05
8.04437e-05
9.99811e-05
9.61621e-05
9.20991e-05
8.05033e-05
9.99865e-05
2.34706e-05
2.3472e-05
9.148e-05
9.98794e-05
8.04526e-05
9.63432e-05
9.16877e-05
9.98337e-05
8.04769e-05
6.78074e-05
6.78293e-05
9.65405e-05
6.78222e-05
6.78161e-05
2.36171e-05
2.36136e-05
2.3615e-05
2.36115e-05
6.20194e-05
6.20049e-05
8.18105e-05
6.23084e-05
6.23137e-05
2.36069e-05
2.36104e-05
2.36047e-05
2.36083e-05
8.19798e-05
6.27275e-05
6.27251e-05
6.24411e-05
6.24317e-05
7.19108e-05
4.9573e-05
4.95769e-05
7.11264e-05
6.98046e-05
6.755e-05
0.000121975
9.79739e-05
6.81898e-05
0.00012106
6.88265e-05
6.97996e-05
6.75836e-05
0.00012197
9.79611e-05
6.81498e-05
0.000121055
6.88384e-05
7.20285e-05
4.95921e-05
4.95832e-05
7.27457e-05
7.20303e-05
4.9585e-05
4.95804e-05
7.27424e-05
7.022e-05
9.73075e-05
6.90364e-05
0.000119191
6.8432e-05
0.000120072
7.11643e-05
7.02322e-05
9.72984e-05
6.90089e-05
0.000119186
6.8455e-05
0.00012007
7.11849e-05
6.20016e-05
6.20118e-05
8.21087e-05
6.23084e-05
6.23169e-05
2.36166e-05
2.36131e-05
2.36046e-05
2.36082e-05
8.16815e-05
6.27122e-05
6.274e-05
6.24322e-05
6.24411e-05
2.36064e-05
2.36099e-05
6.97513e-05
6.75471e-05
0.00012197
9.79899e-05
6.81784e-05
0.000121058
6.88466e-05
7.19084e-05
4.95699e-05
4.95739e-05
7.11118e-05
6.97824e-05
0.000121959
6.75535e-05
9.79657e-05
0.000121042
6.8172e-05
6.88546e-05
7.20259e-05
4.95865e-05
4.95791e-05
7.27499e-05
7.026e-05
9.73242e-05
6.90279e-05
0.000119189
6.84329e-05
0.00012007
7.11985e-05
7.20296e-05
4.95809e-05
4.95756e-05
7.27467e-05
7.02361e-05
9.72992e-05
0.000119173
6.90314e-05
0.000120056
6.8435e-05
7.11327e-05
7.18911e-05
4.95706e-05
4.95806e-05
7.11377e-05
6.97603e-05
0.000121979
6.7573e-05
9.79835e-05
0.00012106
6.81746e-05
6.88518e-05
7.19211e-05
4.95709e-05
4.95756e-05
7.11212e-05
7.02287e-05
9.73386e-05
6.90377e-05
0.000119194
6.84378e-05
0.00012009
7.1163e-05
7.2042e-05
4.95878e-05
4.95801e-05
7.27526e-05
7.02678e-05
9.73063e-05
0.000119192
6.8996e-05
0.000120078
6.84329e-05
7.11804e-05
7.20285e-05
4.95813e-05
4.95795e-05
7.27471e-05
6.20204e-05
6.20074e-05
8.18485e-05
6.22976e-05
6.23242e-05
2.36162e-05
2.36128e-05
2.36038e-05
2.36075e-05
8.18684e-05
6.27151e-05
6.27274e-05
6.24415e-05
6.24338e-05
2.3606e-05
2.36096e-05
6.97809e-05
0.000121968
6.75501e-05
9.79935e-05
0.000121059
6.81715e-05
6.88387e-05
7.18949e-05
4.95697e-05
4.95817e-05
7.11399e-05
7.18913e-05
4.9564e-05
4.95764e-05
7.11294e-05
7.02365e-05
9.73413e-05
0.000119198
6.90378e-05
0.000120075
6.84335e-05
7.11529e-05
7.02425e-05
9.7315e-05
0.000119193
6.90048e-05
0.000120068
6.84291e-05
7.11812e-05
7.20448e-05
4.9587e-05
4.95799e-05
7.27541e-05
7.20442e-05
4.95822e-05
4.95732e-05
7.27335e-05
2.3615e-05
2.36114e-05
2.36137e-05
2.36101e-05
8.17755e-05
6.27154e-05
6.27096e-05
6.24316e-05
6.24299e-05
2.36046e-05
2.36083e-05
2.36033e-05
2.3607e-05
2.36037e-05
2.36e-05
2.36015e-05
2.35978e-05
6.28405e-05
6.28353e-05
8.22465e-05
6.31115e-05
6.31122e-05
2.3593e-05
2.35968e-05
2.35908e-05
2.35946e-05
8.18087e-05
6.34787e-05
6.34871e-05
6.32219e-05
6.32176e-05
7.35438e-05
4.95864e-05
7.28607e-05
4.95923e-05
7.2528e-05
6.92785e-05
0.000118241
9.57598e-05
7.1628e-05
6.98516e-05
0.000117398
7.25445e-05
6.92971e-05
0.000118236
9.57484e-05
7.16265e-05
6.9867e-05
0.000117391
7.35994e-05
4.96034e-05
4.95984e-05
7.42323e-05
7.36058e-05
4.95979e-05
4.95915e-05
7.42342e-05
7.29734e-05
9.52029e-05
7.06089e-05
0.000115683
7.00748e-05
0.000116483
7.38625e-05
7.29812e-05
9.51968e-05
7.06391e-05
0.000115672
7.00722e-05
0.000116475
7.38709e-05
6.28377e-05
6.28455e-05
8.22255e-05
6.31058e-05
6.3114e-05
2.36032e-05
2.35995e-05
2.35909e-05
2.35946e-05
8.17984e-05
6.34793e-05
6.34836e-05
6.32161e-05
6.32288e-05
2.35926e-05
2.35964e-05
7.25336e-05
6.92736e-05
0.000118237
9.57733e-05
7.16085e-05
6.9851e-05
0.000117392
7.3549e-05
4.95839e-05
7.28627e-05
4.95881e-05
7.25539e-05
0.000118221
6.92752e-05
9.57483e-05
7.16653e-05
0.000117374
6.98389e-05
7.36014e-05
4.95979e-05
4.95929e-05
7.423e-05
7.29821e-05
9.52169e-05
7.06336e-05
0.000115676
7.007e-05
0.000116475
7.38352e-05
7.36115e-05
4.95942e-05
4.95889e-05
7.42457e-05
7.29907e-05
9.51928e-05
0.000115659
7.05983e-05
0.00011646
7.00888e-05
7.38563e-05
7.35188e-05
4.95875e-05
7.28583e-05
4.95939e-05
7.25624e-05
0.000118246
6.93017e-05
9.57686e-05
7.16363e-05
0.000117396
6.98114e-05
7.35517e-05
4.95854e-05
7.28708e-05
4.95888e-05
7.29685e-05
9.52374e-05
7.06348e-05
0.000115682
7.0084e-05
0.000116494
7.38648e-05
7.36334e-05
4.95994e-05
4.95939e-05
7.42457e-05
7.29984e-05
9.52016e-05
0.000115679
7.06445e-05
0.000116482
7.01065e-05
7.3856e-05
7.36219e-05
4.95955e-05
4.95906e-05
7.42537e-05
6.28372e-05
6.28363e-05
8.18031e-05
6.31017e-05
6.31149e-05
2.36028e-05
2.35991e-05
2.359e-05
2.35938e-05
8.19766e-05
6.34719e-05
6.34803e-05
6.32245e-05
6.32169e-05
2.35921e-05
2.35959e-05
7.25508e-05
0.000118238
6.92864e-05
9.57791e-05
7.16252e-05
0.000117396
6.98141e-05
7.35189e-05
4.9589e-05
7.28586e-05
4.95928e-05
7.35159e-05
4.95825e-05
7.28632e-05
4.95874e-05
7.29901e-05
9.52382e-05
0.000115684
7.06265e-05
0.000116481
7.00749e-05
7.3848e-05
7.29891e-05
9.52105e-05
0.000115682
7.06276e-05
0.000116477
7.00904e-05
7.38739e-05
7.36297e-05
4.9599e-05
4.95947e-05
7.42188e-05
7.36264e-05
4.95933e-05
4.95887e-05
7.4237e-05
2.36015e-05
2.35978e-05
2.36002e-05
2.35964e-05
8.19704e-05
6.34711e-05
6.34632e-05
6.3223e-05
6.3216e-05
2.35908e-05
2.35946e-05
2.35894e-05
2.35933e-05
2.35897e-05
2.35858e-05
2.35875e-05
2.35836e-05
6.35813e-05
6.35752e-05
8.24902e-05
6.38317e-05
6.38201e-05
2.35781e-05
2.35823e-05
2.3576e-05
2.35801e-05
8.24547e-05
6.4161e-05
6.41627e-05
6.39161e-05
6.39139e-05
7.48807e-05
4.95981e-05
7.43046e-05
4.96015e-05
7.50873e-05
7.08606e-05
0.000114799
9.40374e-05
7.42526e-05
7.13614e-05
0.000114056
7.51155e-05
7.08463e-05
0.00011479
9.40283e-05
7.42715e-05
7.13298e-05
0.000114045
7.49228e-05
4.96094e-05
4.96072e-05
7.54661e-05
7.49468e-05
4.96041e-05
4.96016e-05
7.54556e-05
7.551e-05
9.35845e-05
7.20647e-05
0.0001125
7.15686e-05
0.000113226
7.62461e-05
7.55321e-05
9.35766e-05
7.20748e-05
0.000112486
7.15991e-05
0.000113219
7.62688e-05
6.35798e-05
6.35915e-05
8.27155e-05
6.38294e-05
6.38335e-05
2.35894e-05
2.35855e-05
2.35763e-05
2.35805e-05
8.22866e-05
6.41578e-05
6.41601e-05
6.39147e-05
6.39317e-05
2.3578e-05
2.35822e-05
7.512e-05
7.08367e-05
0.000114789
9.40507e-05
7.42941e-05
7.13673e-05
0.000114044
7.49134e-05
4.95946e-05
7.43107e-05
4.9598e-05
7.51334e-05
0.000114774
7.08736e-05
9.40269e-05
7.43121e-05
0.000114033
7.13279e-05
7.49505e-05
4.9604e-05
4.96017e-05
7.54997e-05
7.55418e-05
9.36008e-05
7.20657e-05
0.000112485
7.15572e-05
0.000113218
7.63326e-05
7.49522e-05
4.96004e-05
4.95981e-05
7.54977e-05
7.55588e-05
9.35718e-05
0.000112474
7.20739e-05
0.000113204
7.15924e-05
7.63517e-05
7.49146e-05
4.95996e-05
7.43213e-05
4.96033e-05
7.5152e-05
0.000114793
7.08424e-05
9.40471e-05
7.43135e-05
0.000114048
7.13613e-05
7.49253e-05
4.95958e-05
7.43227e-05
4.95992e-05
7.55534e-05
9.36209e-05
7.20777e-05
0.000112494
7.15824e-05
0.000113233
7.63153e-05
7.49634e-05
4.96058e-05
4.96033e-05
7.54876e-05
7.55833e-05
9.35837e-05
0.000112489
7.20669e-05
0.000113223
7.1569e-05
7.63679e-05
7.49659e-05
4.96017e-05
4.95993e-05
7.55015e-05
6.35794e-05
6.35794e-05
8.25814e-05
6.38161e-05
6.38174e-05
2.35888e-05
2.35847e-05
2.35752e-05
2.35794e-05
8.22963e-05
6.41502e-05
6.4151e-05
6.3919e-05
6.39191e-05
2.35771e-05
2.35814e-05
7.51439e-05
0.000114791
7.08317e-05
9.4057e-05
7.4281e-05
0.00011405
7.13442e-05
7.49034e-05
4.95995e-05
7.43251e-05
4.96027e-05
7.48969e-05
4.95936e-05
7.43109e-05
4.95971e-05
7.55201e-05
9.36203e-05
0.000112491
7.20328e-05
0.000113218
7.15849e-05
7.63183e-05
7.55197e-05
9.35908e-05
0.000112493
7.20181e-05
0.000113216
7.15564e-05
7.63073e-05
7.49483e-05
4.9605e-05
4.96028e-05
7.54628e-05
7.49474e-05
4.95992e-05
4.9597e-05
7.54808e-05
2.35875e-05
2.35835e-05
2.35861e-05
2.3582e-05
8.24341e-05
6.41408e-05
6.41348e-05
6.39183e-05
6.39108e-05
2.35759e-05
2.35801e-05
2.35743e-05
2.35787e-05
2.35745e-05
2.357e-05
2.35724e-05
2.35678e-05
6.42321e-05
6.42293e-05
8.31419e-05
6.44584e-05
6.44542e-05
2.35614e-05
2.35662e-05
2.35592e-05
2.3564e-05
8.33187e-05
6.4757e-05
6.47506e-05
6.45334e-05
6.45297e-05
7.60278e-05
4.96039e-05
7.55214e-05
4.96042e-05
7.74208e-05
7.22407e-05
0.000111684
9.27846e-05
7.66927e-05
7.27155e-05
0.000111059
7.74687e-05
7.22586e-05
0.000111681
9.27796e-05
7.67119e-05
7.26788e-05
0.000111041
7.60247e-05
4.96059e-05
4.96071e-05
7.6474e-05
7.60441e-05
4.96013e-05
4.96027e-05
7.64969e-05
7.77481e-05
9.24269e-05
7.3326e-05
0.000109692
7.2877e-05
0.000110247
7.84317e-05
7.77784e-05
9.242e-05
7.33076e-05
0.000109676
7.29205e-05
0.000110242
7.84683e-05
6.42335e-05
6.4249e-05
8.31808e-05
6.44564e-05
6.44645e-05
2.35745e-05
2.35701e-05
2.356e-05
2.35648e-05
8.31428e-05
6.4755e-05
6.47556e-05
6.45349e-05
6.45499e-05
2.35617e-05
2.35664e-05
7.74972e-05
7.22376e-05
0.00011168
9.28e-05
7.67179e-05
7.26833e-05
0.000111042
7.60658e-05
4.96001e-05
7.55465e-05
4.96004e-05
7.74918e-05
0.000111663
7.22545e-05
9.27772e-05
7.6742e-05
0.000111034
7.26726e-05
7.60714e-05
4.96005e-05
4.96017e-05
7.65432e-05
7.7801e-05
9.24429e-05
7.32848e-05
0.000109683
7.28933e-05
0.000110243
7.85037e-05
7.60934e-05
4.95973e-05
4.95988e-05
7.65385e-05
7.78655e-05
9.24161e-05
0.000109672
7.33064e-05
0.000110227
7.29191e-05
7.85423e-05
7.60634e-05
4.96055e-05
7.55754e-05
4.96063e-05
7.75549e-05
0.000111681
7.22522e-05
9.2797e-05
7.67637e-05
0.000111048
7.26791e-05
7.6097e-05
4.96015e-05
7.55776e-05
4.96016e-05
7.78686e-05
9.24646e-05
7.33573e-05
0.000109675
7.29027e-05
0.000110261
7.85356e-05
7.61257e-05
4.96034e-05
4.96045e-05
7.65821e-05
7.78711e-05
9.24264e-05
0.000109684
7.33005e-05
0.000110246
7.29179e-05
7.85779e-05
7.6119e-05
4.95987e-05
4.96002e-05
7.65798e-05
6.42344e-05
6.42365e-05
8.31731e-05
6.44499e-05
6.44504e-05
2.35736e-05
2.3569e-05
2.35586e-05
2.35635e-05
8.31467e-05
6.47502e-05
6.4748e-05
6.45346e-05
6.4536e-05
2.35604e-05
2.35653e-05
7.74791e-05
0.000111673
7.22525e-05
9.2805e-05
7.67273e-05
0.00011105
7.27023e-05
7.60519e-05
4.96047e-05
7.5547e-05
4.96043e-05
7.60516e-05
4.95988e-05
7.55364e-05
4.95985e-05
7.77925e-05
9.24618e-05
0.000109668
7.32867e-05
0.000110246
7.29029e-05
7.84856e-05
7.78089e-05
9.24283e-05
0.000109687
7.33077e-05
0.000110237
7.28632e-05
7.85178e-05
7.60745e-05
4.96019e-05
4.96028e-05
7.65365e-05
7.60778e-05
4.95954e-05
4.95969e-05
7.65462e-05
2.35724e-05
2.35678e-05
2.35708e-05
2.35661e-05
8.30684e-05
6.47339e-05
6.47296e-05
6.4535e-05
6.45272e-05
2.35593e-05
2.35641e-05
2.35574e-05
2.35625e-05
2.35576e-05
2.35524e-05
2.35552e-05
2.355e-05
6.48137e-05
6.48081e-05
8.4113e-05
6.50154e-05
6.50084e-05
2.35429e-05
2.35485e-05
2.35404e-05
2.3546e-05
8.4362e-05
6.52688e-05
6.52596e-05
6.5074e-05
6.50666e-05
7.69811e-05
4.95998e-05
7.6541e-05
4.95971e-05
7.95188e-05
7.34812e-05