/*--------------------------------*- C++ -*----------------------------------*\
| =========                 |                                                 |
| \\      /  F ield         | OpenFOAM: The Open Source CFD Toolbox           |
|  \\    /   O peration     | Version:  2312                                  |
|   \\  /    A nd           | Website:  www.openfoam.com                      |
|    \\/     M anipulation  |                                                 |
\*---------------------------------------------------------------------------*/
FoamFile
{
    version     2.0;
    format      ascii;
    arch        "LSB;label=32;scalar=64";
    class       volVectorField;
    location    "150";
    object      U;
}
// * * * * * * * * * * * * * * * * * * * * * * * * * * * * * * * * * * * * * //

dimensions      [0 1 -1 0 0 0 0];

internalField   nonuniform List<vector> 
42840
(
(6.01004e-05 6.00713e-05 0.109208)
(-9.01549e-05 5.60817e-05 0.108145)
(5.60351e-05 -9.01898e-05 0.108145)
(-0.000143239 -0.000143205 0.106656)
(5.91149e-05 5.90939e-05 0.109499)
(-8.83758e-05 5.50714e-05 0.108307)
(5.50098e-05 -8.8408e-05 0.108307)
(-0.000139573 -0.000139552 0.106659)
(5.82506e-05 5.8235e-05 0.109782)
(-8.66677e-05 5.40708e-05 0.108453)
(5.40252e-05 -8.67225e-05 0.108453)
(-0.000135729 -0.000135763 0.106643)
(5.74104e-05 5.74147e-05 0.110059)
(-8.49346e-05 5.30812e-05 0.108584)
(5.29964e-05 -8.50148e-05 0.108584)
(-0.000131783 -0.000131877 0.106613)
(5.63308e-05 5.63772e-05 0.110328)
(-8.28779e-05 5.18286e-05 0.108702)
(5.17254e-05 -8.29452e-05 0.108702)
(-0.000127605 -0.000127731 0.106574)
(5.45266e-05 5.46291e-05 0.110587)
(-7.99264e-05 5.00076e-05 0.108807)
(4.99248e-05 -7.9847e-05 0.108807)
(-0.000122579 -0.000122636 0.106528)
(5.15018e-05 5.15983e-05 0.110831)
(-7.54469e-05 4.72252e-05 0.108898)
(4.71444e-05 -7.51336e-05 0.108898)
(-0.000116391 -0.00011634 0.106479)
(4.67844e-05 4.68229e-05 0.111055)
(-6.88628e-05 4.30171e-05 0.108972)
(4.31196e-05 -6.83118e-05 0.108971)
(-0.000108673 -0.000108621 0.106427)
(4.09381e-05 4.05114e-05 0.11125)
(-6.01847e-05 3.75507e-05 0.109027)
(3.83284e-05 -5.96589e-05 0.109023)
(-9.93069e-05 -9.95e-05 0.106372)
(3.45645e-05 3.34835e-05 0.111413)
(-5.02565e-05 3.20378e-05 0.109062)
(3.29989e-05 -4.98749e-05 0.109055)
(-8.92349e-05 -9.00665e-05 0.106313)
(2.81088e-05 2.72467e-05 0.111543)
(-3.95361e-05 2.63332e-05 0.10908)
(2.69834e-05 -3.9844e-05 0.10907)
(-8.0066e-05 -8.06232e-05 0.106248)
(2.16822e-05 2.19329e-05 0.111642)
(-3.03826e-05 2.12437e-05 0.109081)
(2.09563e-05 -3.0927e-05 0.109071)
(-7.30939e-05 -7.17102e-05 0.106185)
(1.58127e-05 1.70857e-05 0.111715)
(-2.30656e-05 1.64317e-05 0.109067)
(1.48849e-05 -2.33565e-05 0.109066)
(-6.69192e-05 -6.53148e-05 0.106126)
(1.15193e-05 1.23973e-05 0.111768)
(-1.71363e-05 1.23102e-05 0.109049)
(1.12435e-05 -1.69572e-05 0.109052)
(-6.16611e-05 -6.1381e-05 0.106076)
(7.88551e-06 8.26542e-06 0.111805)
(-1.17136e-05 8.30264e-06 0.109035)
(8.10483e-06 -1.1915e-05 0.109036)
(-5.75244e-05 -5.79169e-05 0.106043)
(4.88071e-06 4.80061e-06 0.111827)
(-7.27467e-06 5.38609e-06 0.109023)
(5.61401e-06 -7.39566e-06 0.109022)
(-5.44198e-05 -5.52648e-05 0.106017)
(2.41223e-06 1.98845e-06 0.111839)
(-4.43592e-06 3.33211e-06 0.109013)
(3.79661e-06 -4.66046e-06 0.109011)
(-5.34367e-05 -5.3864e-05 0.106003)
(5.18529e-07 2.23735e-07 0.111845)
(-2.75296e-06 2.91016e-06 0.109003)
(2.87357e-06 -3.06147e-06 0.109002)
(-5.27197e-05 -5.33336e-05 0.105995)
(-5.09837e-07 -6.93551e-07 0.111847)
(-1.96473e-06 2.5742e-06 0.108995)
(2.75399e-06 -2.144e-06 0.108993)
(-5.26433e-05 -5.26603e-05 0.105982)
(-1.16926e-06 -1.17238e-06 0.111848)
(-1.45481e-06 2.12126e-06 0.108991)
(2.28037e-06 -1.43477e-06 0.108987)
(-5.27548e-05 -5.21694e-05 0.105973)
(-1.39048e-06 -1.1345e-06 0.111847)
(-1.09889e-06 1.87011e-06 0.108988)
(2.14434e-06 -9.89689e-07 0.108982)
(-5.23642e-05 -5.15909e-05 0.105969)
(-1.16923e-06 -1.04333e-06 0.111845)
(-1.0599e-06 1.6381e-06 0.108985)
(2.17323e-06 -7.1169e-07 0.108979)
(-5.19045e-05 -5.16054e-05 0.105966)
(-9.13188e-07 -1.02252e-06 0.111843)
(-1.04021e-06 1.35751e-06 0.108981)
(2.09689e-06 -6.39115e-07 0.108976)
(-5.17944e-05 -5.19083e-05 0.105965)
(-1.04523e-06 -1.30873e-06 0.111841)
(-1.0353e-06 1.39448e-06 0.108977)
(1.8771e-06 -9.15122e-07 0.10897)
(-5.19567e-05 -5.22325e-05 0.105963)
(-1.21086e-06 -1.44135e-06 0.111839)
(-1.19608e-06 1.53842e-06 0.108975)
(1.96519e-06 -1.26968e-06 0.108964)
(-5.2304e-05 -5.21602e-05 0.105961)
(0.000143202 0.000143162 0.106656)
(4.3068e-06 4.36064e-06 0.106847)
(5.62426e-05 9.02856e-05 0.108144)
(-5.62517e-05 9.02682e-05 0.108144)
(5.54697e-05 8.8863e-05 0.108267)
(-5.54767e-05 8.88425e-05 0.108267)
(-0.000143167 0.000143153 0.106656)
(-4.26831e-06 4.32499e-06 0.106847)
(9.02793e-05 5.612e-05 0.108145)
(9.02427e-05 -5.62223e-05 0.108144)
(8.88538e-05 5.53368e-05 0.108268)
(8.88297e-05 -5.54594e-05 0.108267)
(-9.00726e-05 -5.61267e-05 0.108144)
(-8.8781e-05 5.53289e-05 0.108268)
(-8.86441e-05 -5.53687e-05 0.108267)
(0.000143171 -0.000143188 0.106656)
(4.30138e-06 -4.21083e-06 0.106846)
(-5.6083e-05 -9.02433e-05 0.108144)
(5.52686e-05 -8.88101e-05 0.108268)
(-5.53093e-05 -8.88405e-05 0.108267)
(-4.30704e-06 -4.20712e-06 0.106846)
(0.00013953 0.000139501 0.106659)
(1.92147e-06 1.98656e-06 0.106843)
(5.52155e-05 8.84938e-05 0.108306)
(-5.52194e-05 8.8479e-05 0.108306)
(5.44866e-05 8.71613e-05 0.108417)
(-5.4451e-05 8.71267e-05 0.108417)
(-0.000139528 0.000139526 0.106659)
(-1.87644e-06 1.97825e-06 0.106843)
(8.84785e-05 5.50857e-05 0.108307)
(8.84584e-05 -5.52103e-05 0.108306)
(8.71233e-05 5.43461e-05 0.108418)
(8.70793e-05 -5.44735e-05 0.108416)
(-8.82719e-05 -5.50996e-05 0.108306)
(-8.70649e-05 5.43328e-05 0.108418)
(-8.69045e-05 -5.43769e-05 0.108417)
(0.000139487 -0.000139538 0.106659)
(1.97738e-06 -1.88989e-06 0.106843)
(-5.50353e-05 -8.84757e-05 0.108306)
(5.42801e-05 -8.71081e-05 0.108418)
(-5.42912e-05 -8.71199e-05 0.108417)
(-1.87484e-06 -1.82125e-06 0.106843)
(0.000135743 0.000135736 0.106643)
(-2.25041e-07 -9.95765e-08 0.106824)
(5.42247e-05 8.683e-05 0.108452)
(-5.41878e-05 8.67964e-05 0.108452)
(5.35078e-05 8.54876e-05 0.108552)
(-5.34602e-05 8.54431e-05 0.108551)
(-0.000135692 0.000135737 0.106643)
(3.20933e-07 -1.48922e-07 0.106824)
(8.67879e-05 5.4104e-05 0.108453)
(8.67405e-05 -5.42222e-05 0.108451)
(8.54004e-05 5.33885e-05 0.108553)
(8.53531e-05 -5.34907e-05 0.108551)
(-8.65543e-05 -5.41025e-05 0.108452)
(-8.53449e-05 5.33521e-05 0.108553)
(-8.51777e-05 -5.33939e-05 0.108552)
(0.000135693 -0.000135765 0.106643)
(-1.66861e-07 1.77222e-07 0.106823)
(-5.40195e-05 -8.67884e-05 0.108452)
(5.32858e-05 -8.5421e-05 0.108553)
(-5.33093e-05 -8.54252e-05 0.108552)
(2.6894e-07 2.47889e-07 0.106823)
(0.000131786 0.000131849 0.106613)
(-2.4768e-06 -2.25051e-06 0.106793)
(5.32364e-05 8.51442e-05 0.108583)
(-5.31766e-05 8.51031e-05 0.108583)
(5.23413e-05 8.35914e-05 0.108673)
(-5.22792e-05 8.3534e-05 0.108672)
(-0.000131773 0.000131886 0.106613)
(2.46329e-06 -2.24095e-06 0.106793)
(8.50495e-05 5.31226e-05 0.108584)
(8.4999e-05 -5.3202e-05 0.108583)
(8.34286e-05 5.22606e-05 0.108674)
(8.33758e-05 -5.23104e-05 0.108672)
(-8.48117e-05 -5.309e-05 0.108583)
(-8.34268e-05 5.21991e-05 0.108674)
(-8.32445e-05 -5.22312e-05 0.108673)
(0.000131748 -0.000131879 0.106613)
(-2.34003e-06 2.28248e-06 0.106792)
(-5.30074e-05 -8.50749e-05 0.108584)
(5.21213e-05 -8.34926e-05 0.108674)
(-5.21572e-05 -8.35047e-05 0.108673)
(2.43847e-06 2.37806e-06 0.106793)
(0.000127501 0.000127662 0.106573)
(-5.12216e-06 -4.82949e-06 0.106753)
(5.19942e-05 8.31539e-05 0.108701)
(-5.19336e-05 8.30861e-05 0.108701)
(5.07131e-05 8.09569e-05 0.108781)
(-5.06713e-05 8.08765e-05 0.10878)
(-0.000127486 0.000127658 0.106574)
(5.1239e-06 -4.93477e-06 0.106754)
(8.29733e-05 5.19076e-05 0.108702)
(8.29105e-05 -5.1939e-05 0.108701)
(8.07187e-05 5.06808e-05 0.108782)
(8.06627e-05 -5.06394e-05 0.108781)
(-8.27734e-05 -5.18199e-05 0.108701)
(-8.07695e-05 5.05603e-05 0.108782)
(-8.06118e-05 -5.05581e-05 0.108781)
(0.000127438 -0.00012761 0.106574)
(-4.91188e-06 4.92379e-06 0.106753)
(-5.17784e-05 -8.30358e-05 0.108702)
(5.04825e-05 -8.07384e-05 0.108782)
(-5.05691e-05 -8.08228e-05 0.108782)
(5.08824e-06 5.07318e-06 0.106754)
(0.000122448 0.000122669 0.106527)
(-8.76729e-06 -8.50345e-06 0.106709)
(5.01729e-05 8.01837e-05 0.108806)
(-5.0124e-05 8.01032e-05 0.108805)
(4.81981e-05 7.68107e-05 0.108875)
(-4.82455e-05 7.67215e-05 0.108874)
(-0.000122445 0.000122567 0.106528)
(8.60249e-06 -8.56707e-06 0.106709)
(7.9936e-05 5.01688e-05 0.108807)
(7.98883e-05 -5.0098e-05 0.108805)
(7.65802e-05 4.82032e-05 0.108877)
(7.6471e-05 -4.81247e-05 0.108874)
(-7.98683e-05 -4.99478e-05 0.108806)
(-7.67436e-05 4.80725e-05 0.108877)
(-7.66325e-05 -4.80244e-05 0.108876)
(0.000122344 -0.000122448 0.106527)
(-8.49596e-06 8.59881e-06 0.106707)
(-5.00181e-05 -8.003e-05 0.108807)
(4.79624e-05 -7.64885e-05 0.108876)
(-4.81955e-05 -7.66295e-05 0.108876)
(8.69774e-06 8.79815e-06 0.10671)
(0.000116162 0.000116334 0.106476)
(-1.39298e-05 -1.38158e-05 0.10666)
(4.74089e-05 7.55628e-05 0.108896)
(-4.74505e-05 7.5465e-05 0.108895)
(4.45028e-05 7.05556e-05 0.108953)
(-4.46668e-05 7.04974e-05 0.108952)
(-0.000116256 0.000116236 0.106478)
(1.35994e-05 -1.37861e-05 0.10666)
(7.53449e-05 4.73871e-05 0.108898)
(7.52346e-05 -4.73378e-05 0.108895)
(7.04198e-05 4.43849e-05 0.108955)
(7.02879e-05 -4.44818e-05 0.108951)
(-7.54338e-05 -4.71684e-05 0.108897)
(-7.07422e-05 4.42647e-05 0.108955)
(-7.06056e-05 -4.43051e-05 0.108954)
(0.000115961 -0.000115972 0.106476)
(-1.36119e-05 1.36857e-05 0.106654)
(-4.73578e-05 -7.54017e-05 0.108898)
(4.42803e-05 -7.02299e-05 0.108954)
(-4.46351e-05 -7.05299e-05 0.108955)
(1.37297e-05 1.38692e-05 0.106662)
(0.00010834 0.000108384 0.106424)
(-2.01917e-05 -2.05312e-05 0.106608)
(4.33133e-05 6.86595e-05 0.10897)
(-4.35662e-05 6.86454e-05 0.108969)
(3.95531e-05 6.18623e-05 0.109013)
(-3.99904e-05 6.19627e-05 0.109012)
(-0.000108415 0.000108141 0.106425)
(1.96158e-05 -2.02928e-05 0.106607)
(6.85749e-05 4.31364e-05 0.108972)
(6.84486e-05 -4.33379e-05 0.108967)
(6.20185e-05 3.90857e-05 0.109016)
(6.19961e-05 -3.97174e-05 0.109008)
(-6.87872e-05 -4.31084e-05 0.108971)
(-6.25683e-05 3.9044e-05 0.109015)
(-6.22412e-05 -3.91967e-05 0.109015)
(0.00010792 -0.000107947 0.106419)
(-1.99146e-05 1.98402e-05 0.106596)
(-4.34564e-05 -6.87122e-05 0.108971)
(3.95828e-05 -6.19945e-05 0.109012)
(-3.95968e-05 -6.23482e-05 0.109014)
(2.02603e-05 2.01615e-05 0.10661)
(9.92615e-05 9.88071e-05 0.106368)
(-2.69462e-05 -2.77005e-05 0.106548)
(3.82194e-05 5.94316e-05 0.109025)
(-3.87386e-05 5.9602e-05 0.109024)
(3.44546e-05 5.18258e-05 0.109052)
(-3.46634e-05 5.19984e-05 0.109051)
(-9.96046e-05 9.88937e-05 0.106368)
(2.63723e-05 -2.73251e-05 0.106547)
(5.97519e-05 3.75599e-05 0.109027)
(5.9748e-05 -3.83708e-05 0.109019)
(5.26375e-05 3.31371e-05 0.109055)
(5.2647e-05 -3.44117e-05 0.109045)
(-5.98659e-05 -3.77047e-05 0.109027)
(-5.29295e-05 3.35376e-05 0.109055)
(-5.23432e-05 -3.35423e-05 0.109056)
(9.88627e-05 -9.9031e-05 0.106358)
(-2.66429e-05 2.67219e-05 0.106531)
(-3.80475e-05 -6.00595e-05 0.109026)
(3.45198e-05 -5.24854e-05 0.109049)
(-3.34868e-05 -5.28087e-05 0.109053)
(2.78019e-05 2.70426e-05 0.106553)
(8.9913e-05 8.90898e-05 0.106306)
(-3.3805e-05 -3.44112e-05 0.106481)
(3.30766e-05 4.9197e-05 0.109059)
(-3.30802e-05 4.94736e-05 0.109058)
(2.8819e-05 4.17199e-05 0.109071)
(-2.82205e-05 4.19901e-05 0.109072)
(-9.03243e-05 8.9399e-05 0.106306)
(3.42307e-05 -3.38319e-05 0.106484)
(5.02354e-05 3.16515e-05 0.109061)
(5.02863e-05 -3.29472e-05 0.109051)
(4.28466e-05 2.74675e-05 0.109074)
(4.30191e-05 -2.85007e-05 0.109064)
(-4.97466e-05 -3.20871e-05 0.109063)
(-4.22676e-05 2.78116e-05 0.109077)
(-4.19523e-05 -2.80172e-05 0.109077)
(8.97081e-05 -8.9682e-05 0.106291)
(-3.31628e-05 3.35327e-05 0.106463)
(-3.1814e-05 -5.02611e-05 0.10906)
(2.86141e-05 -4.24218e-05 0.109067)
(-2.72872e-05 -4.26138e-05 0.109073)
(3.48796e-05 3.41327e-05 0.106489)
(8.07202e-05 8.01614e-05 0.106239)
(-3.99737e-05 -4.0152e-05 0.106414)
(2.7242e-05 3.9325e-05 0.109072)
(-2.64682e-05 3.96254e-05 0.109075)
(2.24502e-05 3.32076e-05 0.109072)
(-2.1769e-05 3.30387e-05 0.109077)
(-8.04622e-05 8.08911e-05 0.106242)
(4.09532e-05 -4.04856e-05 0.106421)
(4.03422e-05 2.61061e-05 0.109076)
(4.05333e-05 -2.68554e-05 0.109066)
(3.32512e-05 2.24339e-05 0.109076)
(3.34417e-05 -2.22239e-05 0.109067)
(-3.95369e-05 -2.65017e-05 0.10908)
(-3.26253e-05 2.26014e-05 0.109082)
(-3.29469e-05 -2.23676e-05 0.10908)
(8.10534e-05 -8.0699e-05 0.106222)
(-3.93617e-05 4.03869e-05 0.106398)
(-2.56862e-05 -4.00883e-05 0.109075)
(2.26281e-05 -3.31501e-05 0.109071)
(-2.17224e-05 -3.26968e-05 0.109078)
(4.00721e-05 4.12182e-05 0.106425)
(7.26869e-05 7.26424e-05 0.106174)
(-4.63463e-05 -4.51309e-05 0.106357)
(2.05487e-05 3.12748e-05 0.109071)
(-2.02314e-05 3.09527e-05 0.109076)
(1.61716e-05 2.5821e-05 0.109064)
(-1.67219e-05 2.53309e-05 0.109069)
(-7.20862e-05 7.23687e-05 0.10618)
(4.5481e-05 -4.58332e-05 0.10636)
(3.08919e-05 2.10365e-05 0.109076)
(3.11144e-05 -2.05822e-05 0.109066)
(2.45618e-05 1.77379e-05 0.109069)
(2.48351e-05 -1.6579e-05 0.10906)
(-3.09393e-05 -2.07618e-05 0.109079)
(-2.48938e-05 1.77822e-05 0.109071)
(-2.54335e-05 -1.69815e-05 0.10907)
(7.3134e-05 -7.21675e-05 0.106159)
(-4.55989e-05 4.62388e-05 0.106349)
(-2.04089e-05 -3.02924e-05 0.109078)
(1.63774e-05 -2.52806e-05 0.109068)
(-1.76638e-05 -2.40157e-05 0.109072)
(4.47179e-05 4.65121e-05 0.106365)
(6.52557e-05 6.63584e-05 0.106118)
(-4.98443e-05 -4.92647e-05 0.106309)
(1.48752e-05 2.40376e-05 0.109062)
(-1.55845e-05 2.3692e-05 0.109065)
(1.2574e-05 1.92012e-05 0.10905)
(-1.31168e-05 1.91983e-05 0.109052)
(-6.61886e-05 6.577e-05 0.10612)
(4.93762e-05 -4.93124e-05 0.106307)
(2.27695e-05 1.65821e-05 0.109067)
(2.29712e-05 -1.53037e-05 0.109058)
(1.83232e-05 1.35663e-05 0.109054)
(1.82332e-05 -1.26896e-05 0.109048)
(-2.3687e-05 -1.57233e-05 0.109066)
(-1.86785e-05 1.35786e-05 0.109053)
(-1.90459e-05 -1.30042e-05 0.109052)
(6.57957e-05 -6.54882e-05 0.106112)
(-5.04248e-05 4.96925e-05 0.106309)
(-1.66746e-05 -2.23442e-05 0.10907)
(1.22707e-05 -1.85726e-05 0.109055)
(-1.36264e-05 -1.82321e-05 0.109057)
(4.92797e-05 4.97379e-05 0.106312)
(6.11808e-05 6.15991e-05 0.106071)
(-5.27565e-05 -5.28139e-05 0.106273)
(1.15842e-05 1.75814e-05 0.109047)
(-1.19533e-05 1.76662e-05 0.109047)
(9.15043e-06 1.33074e-05 0.109034)
(-9.0943e-06 1.33975e-05 0.109034)
(-6.14185e-05 6.1521e-05 0.106071)
(5.30647e-05 -5.23354e-05 0.106272)
(1.69251e-05 1.23134e-05 0.109051)
(1.67826e-05 -1.15946e-05 0.109045)
(1.30862e-05 9.43868e-06 0.109038)
(1.29952e-05 -9.31058e-06 0.109035)
(-1.74991e-05 -1.18121e-05 0.109048)
(-1.31908e-05 9.42507e-06 0.109037)
(-1.31842e-05 -9.43365e-06 0.109035)
(6.0598e-05 -6.14769e-05 0.106073)
(-5.3052e-05 5.23332e-05 0.106275)
(-1.23364e-05 -1.69415e-05 0.109053)
(9.04472e-06 -1.33076e-05 0.10904)
(-9.33574e-06 -1.32742e-05 0.10904)
(5.28751e-05 5.25564e-05 0.106277)
(5.77609e-05 5.76942e-05 0.106038)
(-5.55753e-05 -5.57484e-05 0.106247)
(8.15025e-06 1.19486e-05 0.109031)
(-8.02908e-06 1.20598e-05 0.10903)
(6.49588e-06 8.63084e-06 0.109019)
(-5.98875e-06 8.60312e-06 0.109019)
(-5.71428e-05 5.78877e-05 0.106038)
(5.55435e-05 -5.49376e-05 0.106248)
(1.17932e-05 8.36327e-06 0.109034)
(1.17459e-05 -8.39519e-06 0.109032)
(8.56792e-06 6.44134e-06 0.109022)
(8.42195e-06 -6.44533e-06 0.109023)
(-1.17271e-05 -8.50989e-06 0.109032)
(-8.37041e-06 6.31602e-06 0.109025)
(-8.13483e-06 -6.80691e-06 0.109021)
(5.75311e-05 -5.83144e-05 0.106041)
(-5.54901e-05 5.55045e-05 0.10625)
(-8.26156e-06 -1.20229e-05 0.109036)
(6.46301e-06 -8.55901e-06 0.109025)
(-6.42283e-06 -8.66863e-06 0.109025)
(5.57686e-05 5.49038e-05 0.106249)
(5.501e-05 5.47818e-05 0.106013)
(-5.63337e-05 -5.66194e-05 0.106231)
(5.78277e-06 7.60379e-06 0.109016)
(-5.12611e-06 7.56577e-06 0.109016)
(4.58195e-06 5.36115e-06 0.109007)
(-3.95806e-06 5.23859e-06 0.109009)
(-5.44948e-05 5.49792e-05 0.106016)
(5.64029e-05 -5.63845e-05 0.106235)
(7.63977e-06 5.63282e-06 0.109019)
(7.51147e-06 -5.62836e-06 0.10902)
(5.70566e-06 4.04521e-06 0.10901)
(5.49723e-06 -4.33946e-06 0.10901)
(-7.22094e-06 -6.03516e-06 0.109018)
(-5.16452e-06 3.99481e-06 0.109015)
(-5.06516e-06 -4.6236e-06 0.10901)
(5.47988e-05 -5.46811e-05 0.106017)
(-5.64679e-05 5.66999e-05 0.106231)
(-5.6183e-06 -7.76192e-06 0.109021)
(4.43479e-06 -5.33866e-06 0.109013)
(-3.97697e-06 -5.55659e-06 0.109012)
(5.64977e-05 5.61235e-05 0.106232)
(5.40598e-05 5.37183e-05 0.105999)
(-5.70001e-05 -5.69632e-05 0.106225)
(4.05063e-06 4.67045e-06 0.109005)
(-3.47482e-06 4.53408e-06 0.109007)
(3.50594e-06 3.32415e-06 0.109)
(-3.5258e-06 3.07874e-06 0.109001)
(-5.34672e-05 5.32902e-05 0.106004)
(5.67963e-05 -5.72102e-05 0.106224)
(5.11638e-06 3.461e-06 0.109008)
(4.96022e-06 -3.8382e-06 0.109008)
(3.62174e-06 3.03523e-06 0.109003)
(3.60247e-06 -3.53072e-06 0.109001)
(-4.45901e-06 -3.98974e-06 0.109008)
(-3.23239e-06 3.20241e-06 0.109005)
(-3.14683e-06 -3.67818e-06 0.109002)
(5.35509e-05 -5.35429e-05 0.106)
(-5.70457e-05 5.66608e-05 0.10622)
(-3.29254e-06 -5.00099e-06 0.109009)
(3.26908e-06 -3.52925e-06 0.109004)
(-3.00166e-06 -3.71795e-06 0.109002)
(5.71225e-05 5.65314e-05 0.106224)
(5.34435e-05 5.34699e-05 0.105994)
(-5.74253e-05 -5.73558e-05 0.106218)
(3.05827e-06 2.91442e-06 0.108999)
(-3.32658e-06 2.70192e-06 0.108999)
(2.92886e-06 2.03589e-06 0.108996)
(-3.43375e-06 1.99494e-06 0.108993)
(-5.28278e-05 5.22763e-05 0.105993)
(5.67017e-05 -5.71218e-05 0.106209)
(3.12671e-06 2.65127e-06 0.109002)
(3.14956e-06 -3.25224e-06 0.108999)
(1.88764e-06 2.64159e-06 0.108999)
(2.16371e-06 -3.43587e-06 0.108993)
(-2.81634e-06 -3.33313e-06 0.109001)
(-2.24026e-06 3.00372e-06 0.108997)
(-2.17826e-06 -3.45198e-06 0.108995)
(5.26299e-05 -5.31829e-05 0.105991)
(-5.7529e-05 5.65882e-05 0.106208)
(-2.77254e-06 -3.30111e-06 0.109)
(3.02677e-06 -2.44784e-06 0.108995)
(-3.0813e-06 -2.47406e-06 0.108995)
(5.69562e-05 5.68603e-05 0.106211)
(5.25921e-05 5.25976e-05 0.105987)
(-5.71046e-05 -5.72076e-05 0.106206)
(2.58815e-06 1.72112e-06 0.108995)
(-3.10053e-06 1.83147e-06 0.108992)
(2.47037e-06 1.37678e-06 0.108992)
(-2.89502e-06 1.54873e-06 0.108989)
(-5.27604e-05 5.23165e-05 0.10598)
(5.67602e-05 -5.69189e-05 0.106201)
(1.51973e-06 2.40927e-06 0.108999)
(1.86191e-06 -3.23264e-06 0.108991)
(1.13832e-06 2.5554e-06 0.108995)
(1.51165e-06 -3.09905e-06 0.108986)
(-2.05976e-06 -3.11854e-06 0.108994)
(-1.69485e-06 2.4251e-06 0.108992)
(-1.82763e-06 -2.82162e-06 0.108989)
(5.19866e-05 -5.28805e-05 0.105979)
(-5.69695e-05 5.67078e-05 0.106196)
(-2.85689e-06 -2.27557e-06 0.108994)
(2.66779e-06 -1.74447e-06 0.108988)
(-2.83485e-06 -1.66594e-06 0.10899)
(5.6636e-05 5.71255e-05 0.106201)
(5.25591e-05 5.24396e-05 0.105977)
(-5.74213e-05 -5.73222e-05 0.106199)
(2.08645e-06 1.26996e-06 0.108991)
(-2.52621e-06 1.45655e-06 0.108988)
(2.06234e-06 1.25426e-06 0.108989)
(-2.38472e-06 1.45432e-06 0.108986)
(-5.26431e-05 5.24129e-05 0.105973)
(5.73929e-05 -5.70435e-05 0.106198)
(1.02526e-06 2.30285e-06 0.108994)
(1.41383e-06 -2.74322e-06 0.108986)
(1.01289e-06 2.40935e-06 0.108991)
(1.21935e-06 -2.49189e-06 0.108983)
(-1.69044e-06 -2.37472e-06 0.108987)
(-1.28802e-06 2.23095e-06 0.108988)
(-1.46421e-06 -2.03044e-06 0.108981)
(5.22769e-05 -5.24828e-05 0.105968)
(-5.681e-05 5.69815e-05 0.10619)
(-2.50848e-06 -1.44489e-06 0.10899)
(2.44191e-06 -1.19506e-06 0.108983)
(-2.47434e-06 -1.03837e-06 0.108988)
(5.70251e-05 5.78488e-05 0.106196)
(5.19998e-05 5.20696e-05 0.105971)
(-5.74839e-05 -5.74692e-05 0.106194)
(1.83149e-06 1.19771e-06 0.108988)
(-2.05687e-06 1.41386e-06 0.108985)
(2.20163e-06 1.19245e-06 0.108984)
(-2.1114e-06 1.38954e-06 0.108982)
(-5.21964e-05 5.25062e-05 0.105969)
(5.77982e-05 -5.74917e-05 0.106197)
(9.67221e-07 2.13382e-06 0.10899)
(1.2385e-06 -2.13895e-06 0.108982)
(1.05937e-06 2.29424e-06 0.108986)
(1.33607e-06 -2.09431e-06 0.108979)
(-1.46437e-06 -1.70518e-06 0.10898)
(-1.14957e-06 2.0275e-06 0.108985)
(-1.33292e-06 -1.63626e-06 0.108975)
(5.22705e-05 -5.20191e-05 0.105963)
(-5.65962e-05 5.75533e-05 0.106185)
(-2.21787e-06 -9.23652e-07 0.108988)
(2.46045e-06 -8.98114e-07 0.10898)
(-2.2601e-06 -8.08724e-07 0.108985)
(5.76088e-05 5.80745e-05 0.106193)
(5.19044e-05 5.18076e-05 0.105966)
(-5.79956e-05 -5.8177e-05 0.106189)
(1.98215e-06 1.11276e-06 0.108982)
(-1.7337e-06 1.34843e-06 0.108981)
(2.3359e-06 1.00266e-06 0.108977)
(-1.77909e-06 1.17566e-06 0.108977)
(-5.17229e-05 5.19318e-05 0.105969)
(5.78234e-05 -5.75925e-05 0.106196)
(1.05648e-06 1.98387e-06 0.108985)
(1.36695e-06 -1.79773e-06 0.108978)
(1.11115e-06 2.01105e-06 0.108979)
(1.28477e-06 -1.95419e-06 0.108973)
(-1.32556e-06 -1.4088e-06 0.108974)
(-1.04831e-06 1.63405e-06 0.108981)
(-1.14728e-06 -1.7527e-06 0.108971)
(5.22982e-05 -5.13643e-05 0.105959)
(-5.68394e-05 5.78296e-05 0.106181)
(-1.99375e-06 -8.21376e-07 0.108984)
(2.38324e-06 -7.13195e-07 0.108976)
(-2.05359e-06 -9.03703e-07 0.10898)
(5.77425e-05 5.76639e-05 0.106192)
(5.1523e-05 5.13219e-05 0.105961)
(-5.74488e-05 -5.76502e-05 0.106185)
(2.20811e-06 9.97408e-07 0.108975)
(-1.58929e-06 1.21263e-06 0.108976)
(2.42527e-06 9.77923e-07 0.108969)
(-1.80853e-06 1.05888e-06 0.108973)
(-5.15592e-05 5.16894e-05 0.105968)
(5.74636e-05 -5.74175e-05 0.106194)
(1.15504e-06 1.79688e-06 0.108977)
(1.29966e-06 -1.79282e-06 0.108971)
(1.13792e-06 1.91597e-06 0.108971)
(1.02855e-06 -2.03299e-06 0.108966)
(-1.1383e-06 -1.59063e-06 0.10897)
(-9.91648e-07 1.55939e-06 0.108978)
(-1.06721e-06 -1.85248e-06 0.108968)
(5.19957e-05 -5.10998e-05 0.105954)
(-5.72724e-05 5.7532e-05 0.106176)
(-1.81365e-06 -1.00435e-06 0.108979)
(2.14197e-06 -8.26444e-07 0.108971)
(-1.96802e-06 -1.02871e-06 0.108976)
(5.74173e-05 5.71233e-05 0.10619)
(5.20501e-05 5.18855e-05 0.105957)
(-5.70022e-05 -5.71958e-05 0.106181)
(2.25192e-06 1.01883e-06 0.108968)
(-1.68153e-06 1.12082e-06 0.108972)
(2.3541e-06 1.04164e-06 0.108964)
(-1.93108e-06 1.03147e-06 0.108971)
(-5.18715e-05 5.18415e-05 0.105967)
(5.72823e-05 -5.72478e-05 0.106192)
(1.21615e-06 1.74679e-06 0.10897)
(1.09105e-06 -1.92078e-06 0.108964)
(1.18482e-06 1.99266e-06 0.108966)
(9.59018e-07 -2.11364e-06 0.10896)
(-1.13709e-06 -1.72907e-06 0.108968)
(-1.05725e-06 1.65475e-06 0.108975)
(-1.13662e-06 -2.03089e-06 0.108965)
(5.15431e-05 -5.14817e-05 0.10595)
(-5.72778e-05 5.69021e-05 0.106172)
(-1.80767e-06 -1.11769e-06 0.108975)
(2.08135e-06 -1.14519e-06 0.108965)
(-1.98935e-06 -1.0048e-06 0.108974)
(5.69454e-05 5.70987e-05 0.106187)
(5.23493e-05 5.21911e-05 0.105954)
(2.16383e-06 1.2201e-06 0.108964)
(-1.88118e-06 1.29604e-06 0.10897)
(-5.19595e-05 5.19992e-05 0.105965)
(1.27949e-06 1.8699e-06 0.108965)
(1.15783e-06 -2.03261e-06 0.108959)
(-1.37438e-06 -1.92516e-06 0.108965)
(5.16478e-05 -5.213e-05 0.105945)
(-1.91423e-06 -1.1502e-06 0.108973)
(7.96311e-07 7.72332e-06 0.0937517)
(-1.4101e-06 3.15559e-05 0.0833515)
(-4.25043e-06 -5.4991e-06 0.0833646)
(1.51529e-06 5.40114e-05 0.0937647)
(-3.5867e-06 1.46765e-05 0.0720022)
(5.61827e-06 -5.5897e-06 0.0720473)
(7.72705e-06 7.9603e-07 0.0937514)
(3.1553e-05 -1.38074e-06 0.0833513)
(-5.5348e-06 -4.18634e-06 0.0833646)
(5.39676e-05 1.4748e-06 0.0937644)
(-6.00963e-05 6.00833e-05 0.109208)
(6.00601e-05 -6.00952e-05 0.109208)
(-6.00813e-05 -6.0083e-05 0.109208)
(5.93398e-05 5.93145e-05 0.109427)
(-5.93475e-05 5.93289e-05 0.109427)
(5.93033e-05 -5.93516e-05 0.109427)
(-5.93184e-05 -5.93311e-05 0.109426)
(-4.36212e-05 3.04673e-06 0.102222)
(-6.15082e-05 2.47882e-05 0.0954212)
(-0.000100686 1.96168e-05 0.108865)
(-8.966e-05 5.58302e-05 0.108187)
(-1.87256e-05 -1.26591e-06 0.09545)
(-0.000100366 1.94991e-05 0.108927)
(-0.000104907 4.82245e-06 0.102195)
(1.46226e-05 -3.67431e-06 0.0720024)
(-5.59861e-06 5.56619e-06 0.0720466)
(2.96122e-06 -4.3603e-05 0.10222)
(1.96249e-05 -0.000100706 0.108864)
(2.48064e-05 -6.15471e-05 0.0954224)
(5.57746e-05 -8.96982e-05 0.108187)
(1.94987e-05 -0.000100394 0.108927)
(-1.26849e-06 -1.86127e-05 0.0954484)
(4.8732e-06 -0.000105005 0.102194)
(-3.03564e-05 -1.67492e-05 0.0891352)
(-1.67693e-05 -3.03281e-05 0.0891342)
(-5.54149e-06 -5.43067e-06 0.106841)
(-9.44637e-06 3.43938e-06 0.08915)
(3.35562e-06 -9.38171e-06 0.0891467)
(5.55508e-07 5.95497e-06 0.0934742)
(-1.45725e-06 3.05227e-05 0.0831472)
(1.25054e-06 5.09257e-05 0.0934799)
(-4.37542e-06 -5.55076e-06 0.0831648)
(-3.47762e-06 1.44054e-05 0.0718584)
(5.63612e-06 -5.44163e-06 0.0719055)
(5.95003e-06 5.57878e-07 0.093474)
(3.04918e-05 -1.38083e-06 0.083147)
(5.08949e-05 1.23005e-06 0.0934798)
(-5.64118e-06 -4.26546e-06 0.0831647)
(-5.91105e-05 5.91121e-05 0.109499)
(5.90787e-05 -5.91196e-05 0.109499)
(-5.9081e-05 -5.91043e-05 0.109499)
(5.84481e-05 5.84235e-05 0.109712)
(-5.84305e-05 5.84305e-05 0.109712)
(5.84088e-05 -5.84595e-05 0.109712)
(-5.83964e-05 -5.84375e-05 0.109711)
(-3.86843e-05 2.44503e-06 0.101955)
(-5.85743e-05 2.33484e-05 0.0951503)
(-9.9589e-05 1.91691e-05 0.109111)
(-8.79069e-05 5.48381e-05 0.108345)
(-9.9134e-05 4.15825e-06 0.101926)
(-1.6383e-05 -1.88474e-06 0.0951831)
(-9.93012e-05 1.90667e-05 0.10917)
(1.43177e-05 -3.66998e-06 0.0718585)
(-5.49673e-06 5.50507e-06 0.0719047)
(2.36838e-06 -3.87293e-05 0.101953)
(1.91641e-05 -9.96215e-05 0.109111)
(2.33949e-05 -5.86456e-05 0.0951516)
(5.47715e-05 -8.79414e-05 0.108345)
(4.25046e-06 -9.92068e-05 0.101926)
(1.90648e-05 -9.93564e-05 0.10917)
(-1.89228e-06 -1.63787e-05 0.0951815)
(-2.89716e-05 -1.61162e-05 0.0889009)
(-1.61007e-05 -2.89627e-05 0.0889)
(-3.06621e-06 -2.97691e-06 0.106847)
(-8.24189e-06 3.55583e-06 0.0889202)
(3.63696e-06 -8.29007e-06 0.088917)
(3.94967e-07 5.38657e-06 0.0932177)
(-1.68765e-06 3.01139e-05 0.0829566)
(1.05664e-06 4.90201e-05 0.0932179)
(-4.65027e-06 -5.02655e-06 0.082977)
(-3.31248e-06 1.43223e-05 0.071722)
(5.72582e-06 -5.07488e-06 0.07177)
(5.33763e-06 4.22851e-07 0.093218)
(3.00121e-05 -1.51031e-06 0.0829565)
(4.89369e-05 1.0587e-06 0.093218)
(-5.2127e-06 -4.42748e-06 0.0829771)
(-5.82164e-05 5.82384e-05 0.109782)
(5.82108e-05 -5.8249e-05 0.109782)
(-5.81876e-05 -5.82341e-05 0.109782)
(5.76104e-05 5.76011e-05 0.10999)
(-5.75914e-05 5.76092e-05 0.10999)
(5.75588e-05 -5.7615e-05 0.10999)
(-5.75432e-05 -5.76008e-05 0.10999)
(-3.44788e-05 2.11976e-06 0.101695)
(-5.63934e-05 2.21971e-05 0.0948975)
(-9.85765e-05 1.8789e-05 0.109346)
(-8.62047e-05 5.38457e-05 0.108487)
(-9.41511e-05 3.71506e-06 0.101663)
(-1.48477e-05 -2.24978e-06 0.0949338)
(-9.82824e-05 1.8696e-05 0.109403)
(1.41756e-05 -3.59212e-06 0.0717218)
(-5.1917e-06 5.49229e-06 0.0717686)
(2.08691e-06 -3.46758e-05 0.101693)
(1.87865e-05 -9.86349e-05 0.109346)
(2.21968e-05 -5.65471e-05 0.0948986)
(5.37909e-05 -8.62607e-05 0.108487)
(3.84168e-06 -9.43374e-05 0.101663)
(1.86945e-05 -9.8355e-05 0.109403)
(-2.33054e-06 -1.49625e-05 0.0949319)
(-2.79729e-05 -1.56715e-05 0.0886831)
(-1.55201e-05 -2.80761e-05 0.0886821)
(-7.91996e-07 -7.72971e-07 0.106835)
(-7.48849e-06 3.55557e-06 0.0887057)
(3.77741e-06 -7.64918e-06 0.0887023)
(2.40976e-07 5.58816e-06 0.0929774)
(-2.07273e-06 3.00738e-05 0.0827753)
(9.1209e-07 4.81063e-05 0.0929735)
(-5.05639e-06 -4.27812e-06 0.082797)
(-3.0683e-06 1.44047e-05 0.0715896)
(5.85976e-06 -4.65839e-06 0.0716374)
(5.44805e-06 3.68274e-07 0.0929785)
(2.98469e-05 -1.73697e-06 0.0827753)
(4.79477e-05 9.60388e-07 0.0929744)
(-4.59823e-06 -4.64037e-06 0.0827973)
(-5.73737e-05 5.74109e-05 0.110058)
(5.73531e-05 -5.74047e-05 0.110058)
(-5.73457e-05 -5.74107e-05 0.110058)
(5.66295e-05 5.66767e-05 0.110261)
(-5.65982e-05 5.66368e-05 0.110261)
(5.65576e-05 -5.6642e-05 0.110261)
(-5.65842e-05 -5.66347e-05 0.11026)
(-3.11922e-05 1.90374e-06 0.101447)
(-5.495e-05 2.12893e-05 0.0946607)
(-9.74742e-05 1.84552e-05 0.10957)
(-8.44196e-05 5.28216e-05 0.108615)
(-8.99744e-05 3.45683e-06 0.101412)
(-1.40141e-05 -2.43911e-06 0.0947)
(-9.70811e-05 1.83704e-05 0.109624)
(1.41773e-05 -3.44427e-06 0.0715888)
(-4.82218e-06 5.57197e-06 0.0716353)
(1.84337e-06 -3.14677e-05 0.101446)
(1.84538e-05 -9.75393e-05 0.10957)
(2.11847e-05 -5.52141e-05 0.0946615)
(5.27418e-05 -8.45006e-05 0.108615)
(3.55204e-06 -9.03105e-05 0.101412)
(1.83636e-05 -9.71563e-05 0.109624)
(-2.64587e-06 -1.42027e-05 0.0946976)
(-2.74321e-05 -1.53235e-05 0.088478)
(-1.50498e-05 -2.76235e-05 0.0884767)
(1.37738e-06 1.34644e-06 0.106809)
(-7.21059e-06 3.49333e-06 0.0885028)
(3.75399e-06 -7.42136e-06 0.0884991)
(1.36812e-07 5.77918e-06 0.0927506)
(-2.31461e-06 2.9986e-05 0.0825994)
(7.72442e-07 4.75174e-05 0.092743)
(-5.13086e-06 -3.75986e-06 0.0826218)
(-2.94402e-06 1.43466e-05 0.0714588)
(5.73301e-06 -4.47161e-06 0.0715058)
(5.54049e-06 3.65799e-07 0.0927531)
(2.96501e-05 -1.85485e-06 0.0825995)
(4.72454e-05 9.02869e-07 0.0927452)
(-4.18588e-06 -4.60908e-06 0.0826221)
(-5.63131e-05 5.63589e-05 0.110327)
(5.62631e-05 -5.63217e-05 0.110327)
(-5.62924e-05 -5.63317e-05 0.110327)
(5.50508e-05 5.51533e-05 0.110523)
(-5.50752e-05 5.51071e-05 0.110523)
(5.50099e-05 -5.50552e-05 0.110522)
(-5.50641e-05 -5.5073e-05 0.110522)
(-2.82519e-05 1.72044e-06 0.101214)
(-5.3972e-05 2.05743e-05 0.0944381)
(-9.57655e-05 1.81018e-05 0.109783)
(-8.2205e-05 5.14768e-05 0.10873)
(-8.63917e-05 3.2274e-06 0.101174)
(-1.33887e-05 -2.52626e-06 0.0944799)
(-9.51526e-05 1.79563e-05 0.109834)
(1.413e-05 -3.23368e-06 0.0714575)
(-4.55888e-06 5.61876e-06 0.0715033)
(1.60442e-06 -2.85146e-05 0.101213)
(1.808e-05 -9.58227e-05 0.109783)
(2.03104e-05 -5.42168e-05 0.0944386)
(5.13543e-05 -8.22485e-05 0.10873)
(3.30704e-06 -8.67605e-05 0.101174)
(1.79444e-05 -9.52079e-05 0.109834)
(-2.83563e-06 -1.35797e-05 0.0944775)
(-2.7138e-05 -1.49775e-05 0.0882824)
(-1.47709e-05 -2.72882e-05 0.0882811)
(3.72028e-06 3.65372e-06 0.106774)
(-7.04253e-06 3.44704e-06 0.0883089)
(3.53254e-06 -7.14841e-06 0.0883053)
(1.39822e-07 5.16342e-06 0.0925386)
(-2.05359e-06 2.93289e-05 0.0824276)
(6.9248e-07 4.63909e-05 0.0925262)
(-4.64465e-06 -3.93732e-06 0.0824508)
(-3.18146e-06 1.39353e-05 0.0713287)
(5.24538e-06 -4.63605e-06 0.0713753)
(4.80916e-06 4.54368e-07 0.0925428)
(2.89089e-05 -1.58164e-06 0.0824279)
(4.59855e-05 9.49338e-07 0.0925301)