/*--------------------------------*- C++ -*----------------------------------*\
| =========                 |                                                 |
| \\      /  F ield         | OpenFOAM: The Open Source CFD Toolbox           |
|  \\    /   O peration     | Version:  2312                                  |
|   \\  /    A nd           | Website:  www.openfoam.com                      |
|    \\/     M anipulation  |                                                 |
\*---------------------------------------------------------------------------*/
FoamFile
{
    version     2.0;
    format      ascii;
    arch        "LSB;label=32;scalar=64";
    class       volScalarField;
    location    "400";
    object      epsilon;
}
// * * * * * * * * * * * * * * * * * * * * * * * * * * * * * * * * * * * * * //

dimensions      [0 2 -3 0 0 0 0];

internalField   nonuniform List<scalar> 
43496
(
4.23915e-06
1.90988e-05
1.18688e-06
3.64763e-06
2.29577e-06
9.35268e-07
4.23907e-06
9.56925e-06
2.2957e-06
1.18686e-06
9.35291e-07
3.6479e-06
1.41744e-06
5.65248e-06
5.65106e-06
1.90962e-05
9.56909e-06
1.26587e-05
4.23922e-06
4.88477e-06
1.12499e-05
4.88488e-06
1.12476e-05
1.26611e-05
2.27673e-05
7.24552e-06
7.24573e-06
2.27742e-05
1.90938e-05
1.26586e-05
4.23913e-06
1.12498e-05
4.88455e-06
1.12475e-05
4.88464e-06
1.26611e-05
2.27669e-05
7.2439e-06
9.56723e-06
7.2441e-06
2.27739e-05
9.9642e-06
2.23994e-05
2.23998e-05
2.23931e-05
2.23935e-05
9.96384e-06
4.70983e-06
9.93748e-06
5.65249e-06
2.97591e-06
9.9349e-06
2.97608e-06
4.70948e-06
4.70386e-06
9.93273e-06
5.65107e-06
2.97479e-06
2.97497e-06
9.93014e-06
4.70352e-06
1.90912e-05
9.56721e-06
4.50981e-07
6.59732e-07
4.51099e-07
3.64781e-06
2.22362e-06
2.22415e-06
1.66684e-06
2.29595e-06
2.54114e-06
1.5438e-06
2.54138e-06
1.54483e-06
1.66465e-06
1.84572e-06
3.02299e-06
3.02343e-06
1.84383e-06
1.66682e-06
2.29588e-06
1.54376e-06
2.54097e-06
1.54478e-06
2.54119e-06
1.66444e-06
1.84555e-06
3.02259e-06
3.64809e-06
2.22382e-06
3.02299e-06
1.84362e-06
2.22435e-06
2.82858e-06
1.41893e-06
1.96843e-06
1.96833e-06
1.96906e-06
1.96916e-06
2.82825e-06
6.52005e-07
1.18303e-06
1.18312e-06
1.41539e-06
6.58207e-07
1.18611e-06
1.1862e-06
1.41835e-06
1.41531e-06
1.41606e-06
1.18316e-06
1.18302e-06
1.18553e-06
1.18545e-06
1.41529e-06
1.41606e-06
1.18296e-06
1.18312e-06
1.18533e-06
1.18547e-06
1.18321e-06
1.18539e-06
1.18547e-06
1.41532e-06
1.41608e-06
1.18301e-06
1.18548e-06
1.18541e-06
1.41614e-06
1.41828e-06
1.18625e-06
1.18609e-06
1.41823e-06
1.18605e-06
1.1862e-06
1.18635e-06
1.41826e-06
1.18612e-06
4.23666e-06
9.55135e-06
9.55674e-06
4.23596e-06
1.9064e-05
1.9075e-05
4.23658e-06
9.55274e-06
9.55773e-06
4.23599e-06
6.51983e-07
6.52122e-07
6.52126e-07
6.56703e-07
6.56702e-07
6.56797e-07
6.56793e-07
2.29427e-06
3.64467e-06
9.3006e-07
1.18384e-06
3.64515e-06
9.31201e-07
2.29399e-06
1.9065e-05
1.90758e-05
2.29435e-06
9.30187e-07
3.64466e-06
1.18394e-06
9.31297e-07
3.64516e-06
2.29401e-06
5.64557e-06
5.64735e-06
1.41467e-06
5.64669e-06
5.64845e-06
9.56345e-06
4.2386e-06
1.90871e-05
9.56471e-06
4.2386e-06
6.58183e-07
6.58313e-07
6.58334e-07
2.29579e-06
3.64724e-06
9.34343e-07
2.29563e-06
9.35333e-07
1.90881e-05
2.29588e-06
9.34476e-07
3.64722e-06
2.29566e-06
9.35426e-07
5.65e-06
5.65179e-06
1.41742e-06
5.65105e-06
5.65284e-06
1.90617e-05
1.90726e-05
1.90649e-05
1.90757e-05
5.64555e-06
5.64727e-06
1.41458e-06
5.64665e-06
5.64841e-06
1.90841e-05
1.90733e-05
1.90872e-05
1.90765e-05
1.41686e-06
5.64887e-06
5.65061e-06
5.64781e-06
5.64952e-06
4.2366e-06
9.55172e-06
9.55675e-06
4.2359e-06
2.29431e-06
3.64458e-06
9.30073e-07
1.18398e-06
3.64508e-06
9.31197e-07
2.29397e-06
2.29425e-06
3.64499e-06
9.29997e-07
1.18388e-06
3.64544e-06
9.31143e-07
2.29391e-06
4.23731e-06
9.56277e-06
9.55746e-06
4.23797e-06
4.23726e-06
9.5629e-06
9.55761e-06
4.23792e-06
2.29484e-06
1.18477e-06
3.64636e-06
9.33345e-07
3.64591e-06
9.32301e-07
2.29513e-06
2.29478e-06
1.18462e-06
3.64672e-06
9.33293e-07
3.64633e-06
9.32222e-07
2.29507e-06
5.64711e-06
5.64571e-06
1.41457e-06
5.64813e-06
5.64678e-06
1.90629e-05
1.90738e-05
1.90865e-05
1.90756e-05
1.41682e-06
5.65035e-06
5.64901e-06
5.64938e-06
5.64795e-06
1.90853e-05
1.90745e-05
2.29425e-06
3.64507e-06
9.30032e-07
1.18378e-06
3.64557e-06
9.31146e-07
2.29396e-06
4.2365e-06
9.55223e-06
9.55722e-06
4.23592e-06
2.29418e-06
9.30063e-07
3.64494e-06
1.18393e-06
9.31175e-07
3.64544e-06
2.2939e-06
4.23735e-06
9.56375e-06
9.55884e-06
4.23789e-06
2.29482e-06
1.18457e-06
3.64685e-06
9.33288e-07
3.64639e-06
9.32257e-07
2.29506e-06
4.23727e-06
9.56323e-06
9.55832e-06
4.23781e-06
2.29476e-06
1.18472e-06
9.33314e-07
3.64671e-06
9.32286e-07
3.64626e-06
2.29499e-06
4.23671e-06
9.55192e-06
9.55727e-06
4.23612e-06
2.29425e-06
9.30122e-07
3.64464e-06
1.18394e-06
9.31225e-07
3.64513e-06
2.29396e-06
4.23657e-06
9.55196e-06
9.55735e-06
4.23598e-06
2.29485e-06
1.18463e-06
3.64643e-06
9.33348e-07
3.64599e-06
9.32282e-07
2.29508e-06
4.23747e-06
9.56313e-06
9.55812e-06
4.23801e-06
2.29482e-06
1.18484e-06
9.33367e-07
3.64641e-06
9.32348e-07
3.64596e-06
2.29505e-06
4.23733e-06
9.56321e-06
9.55808e-06
4.23789e-06
5.647e-06
5.64561e-06
1.4146e-06
5.64812e-06
5.64669e-06
1.90625e-05
1.90733e-05
1.90873e-05
1.90766e-05
1.41686e-06
5.65033e-06
5.64891e-06
5.64924e-06
5.64786e-06
1.90848e-05
1.9074e-05
2.29429e-06
9.30132e-07
3.64516e-06
1.18386e-06
9.31239e-07
3.64566e-06
2.29395e-06
4.23675e-06
9.55201e-06
9.55738e-06
4.23616e-06
4.23673e-06
9.5527e-06
9.55807e-06
4.2362e-06
2.29488e-06
1.18473e-06
9.33443e-07
3.64643e-06
9.3241e-07
3.64598e-06
2.29516e-06
2.29482e-06
1.18462e-06
9.33386e-07
3.64694e-06
9.32358e-07
3.64648e-06
2.2951e-06
4.23751e-06
9.5632e-06
9.55808e-06
4.23806e-06
4.23756e-06
9.56398e-06
9.55889e-06
4.23804e-06
1.90639e-05
1.90747e-05
1.90662e-05
1.90771e-05
1.41693e-06
5.64892e-06
5.65068e-06
5.64784e-06
5.6496e-06
1.90862e-05
1.90755e-05
1.90886e-05
1.90778e-05
1.90848e-05
1.9088e-05
5.65002e-06
5.65173e-06
9.56361e-06
4.23855e-06
3.64717e-06
9.34375e-07
2.29563e-06
3.64758e-06
9.34295e-07
2.29558e-06
5.65158e-06
5.65015e-06
1.9086e-05
3.64764e-06
9.34323e-07
2.29559e-06
9.56434e-06
4.23852e-06
9.34348e-07
3.6475e-06
2.29553e-06
4.23925e-06
9.56418e-06
4.23875e-06
2.29576e-06
9.34415e-07
3.64721e-06
1.18683e-06
2.29559e-06
9.35332e-07
3.6476e-06
4.23914e-06
9.56424e-06
4.23859e-06
9.56909e-06
5.65142e-06
5.65003e-06
1.90855e-05
2.29582e-06
9.34428e-07
3.64773e-06
1.18683e-06
2.2956e-06
9.35366e-07
3.64815e-06
4.23929e-06
9.56424e-06
4.23879e-06
4.23929e-06
9.56472e-06
4.23884e-06
9.57002e-06
1.9087e-05
1.90976e-05
1.90893e-05
1.91e-05
1.26424e-05
1.12358e-05
4.88204e-06
4.23664e-06
1.12328e-05
4.88207e-06
1.26461e-05
2.27417e-05
9.5537e-06
7.23952e-06
7.23935e-06
2.27346e-05
2.27413e-05
7.24064e-06
9.55443e-06
7.24082e-06
2.27483e-05
1.26421e-05
4.23598e-06
1.12291e-05
4.88131e-06
1.12321e-05
4.88129e-06
1.26384e-05
1.90692e-05
1.90698e-05
1.26428e-05
4.88194e-06
1.12355e-05
4.23668e-06
4.88203e-06
1.12331e-05
1.26454e-05
2.27412e-05
9.55469e-06
7.2394e-06
7.23921e-06
2.27341e-05
2.27408e-05
7.2405e-06
9.55582e-06
7.24069e-06
2.27478e-05
1.26414e-05
4.2359e-06
4.88128e-06
1.12294e-05
4.88118e-06
1.12318e-05
1.26388e-05
1.907e-05
1.90708e-05
9.95771e-06
2.23773e-05
2.23766e-05
2.23709e-05
2.23703e-05
9.95742e-06
4.70057e-06
2.9732e-06
5.64555e-06
9.91557e-06
2.97303e-06
9.91824e-06
4.7009e-06
4.70639e-06
2.9744e-06
5.64732e-06
9.9208e-06
2.97423e-06
9.92279e-06
4.70669e-06
4.70161e-06
9.92135e-06
5.64671e-06
2.97344e-06
2.97362e-06
9.91871e-06
4.70127e-06
4.7074e-06
9.92587e-06
5.64849e-06
2.97465e-06
2.97481e-06
9.92391e-06
4.70709e-06
9.95561e-06
2.23649e-05
2.23642e-05
2.23712e-05
2.23705e-05
9.95589e-06
2.27681e-05
7.24465e-06
9.56578e-06
2.27611e-05
7.24445e-06
1.26576e-05
4.23859e-06
1.12437e-05
4.88424e-06
1.26546e-05
1.12467e-05
4.88418e-06
1.90922e-05
2.27677e-05
7.24449e-06
9.56683e-06
2.27607e-05
7.24428e-06
1.26573e-05
4.23853e-06
4.88419e-06
1.1244e-05
1.26547e-05
4.88408e-06
1.12463e-05
1.90931e-05
9.96486e-06
2.24013e-05
2.24006e-05
2.2395e-05
2.23943e-05
9.96451e-06
4.70325e-06
2.97475e-06
9.92785e-06
5.65e-06
4.70362e-06
2.97456e-06
9.93044e-06
4.70907e-06
2.97595e-06
9.9326e-06
5.65177e-06
4.70942e-06
2.97577e-06
9.93524e-06
9.96276e-06
2.2389e-05
2.23883e-05
9.9631e-06
2.23953e-05
2.23946e-05
4.70424e-06
9.93341e-06
5.65106e-06
2.97489e-06
2.97508e-06
9.93079e-06
4.70389e-06
4.71007e-06
9.93821e-06
5.65286e-06
2.9761e-06
2.97629e-06
9.93563e-06
4.70973e-06
1.90668e-05
1.90675e-05
1.90699e-05
1.90707e-05
9.95771e-06
2.23767e-05
2.2376e-05
2.23703e-05
2.23696e-05
9.9574e-06
4.7004e-06
2.97315e-06
5.64551e-06
9.91531e-06
9.91797e-06
2.97297e-06
4.70077e-06
4.70625e-06
2.97429e-06
5.64728e-06
9.92038e-06
9.92308e-06
2.97412e-06
4.70659e-06
4.70148e-06
9.92103e-06
5.64669e-06
2.97338e-06
9.91839e-06
4.7011e-06
2.97356e-06
4.7073e-06
9.92601e-06
5.6484e-06
2.97453e-06
9.92347e-06
4.70695e-06
2.97471e-06
9.95559e-06
2.23643e-05
2.23636e-05
2.23707e-05
2.237e-05
9.9559e-06
1.9079e-05
1.90783e-05
1.90823e-05
1.90815e-05
9.95919e-06
2.23763e-05
2.23757e-05
9.95952e-06
2.23827e-05
2.2382e-05
4.70284e-06
2.97414e-06
5.64892e-06
9.9271e-06
9.9245e-06
2.97434e-06
4.70244e-06
4.70867e-06
2.9753e-06
5.65063e-06
9.93183e-06
9.9299e-06
2.97549e-06
4.70829e-06
4.70178e-06
9.92145e-06
2.97396e-06
5.64777e-06
4.70217e-06
9.92409e-06
2.97377e-06
4.70763e-06
9.92683e-06
2.97511e-06
5.64951e-06
4.708e-06
9.9289e-06
2.97492e-06
9.96131e-06
2.23887e-05
2.2388e-05
2.23823e-05
2.23817e-05
9.96098e-06
1.2643e-05
1.12357e-05
4.88191e-06
4.23659e-06
1.12327e-05
4.88195e-06
1.26457e-05
2.2742e-05
9.55367e-06
7.23817e-06
7.23803e-06
2.2735e-05
2.27417e-05
7.23932e-06
9.55481e-06
7.23947e-06
2.27487e-05
1.26417e-05
4.23592e-06
1.12289e-05
4.8812e-06
1.1232e-05
4.88116e-06
1.2639e-05
1.265e-05
1.12364e-05
4.88281e-06
4.23732e-06
1.26463e-05
1.12395e-05
4.88277e-06
2.27545e-05
9.56049e-06
7.24319e-06
2.27615e-05
7.24339e-06
2.27549e-05
7.24211e-06
9.55978e-06
2.27479e-05
7.24192e-06
1.26503e-05
4.23797e-06
1.12431e-05
4.88348e-06
1.26539e-05
1.124e-05
4.88353e-06
1.26496e-05
1.12363e-05
4.88269e-06
4.23727e-06
1.2647e-05
1.12394e-05
4.88265e-06
2.27549e-05
9.56059e-06
7.24186e-06
7.24203e-06
2.27619e-05
2.27553e-05
7.24076e-06
9.55986e-06
2.27483e-05
7.2406e-06
1.26505e-05
4.23791e-06
1.12429e-05
4.88337e-06
1.12399e-05
4.88341e-06
1.2654e-05
9.95777e-06
2.23765e-05
2.23771e-05
2.23701e-05
2.23707e-05
9.95743e-06
4.70631e-06
2.97425e-06
5.64699e-06
9.92009e-06
9.92274e-06
2.97408e-06
4.70663e-06
4.7005e-06
2.9732e-06
5.64565e-06
9.91613e-06
2.97301e-06
9.91811e-06
4.70085e-06
4.70733e-06
9.9258e-06
5.64825e-06
2.97449e-06
9.92317e-06
2.97466e-06
4.70701e-06
4.70156e-06
9.92118e-06
5.64684e-06
2.97342e-06
2.97361e-06
9.91923e-06
4.7012e-06
9.95562e-06
2.23641e-05
2.23646e-05
2.23705e-05
2.2371e-05
9.95595e-06
1.9068e-05
1.90687e-05
1.90814e-05
1.90808e-05
9.95923e-06
2.23762e-05
2.23767e-05
9.95958e-06
2.23825e-05
2.23831e-05
4.7087e-06
2.97526e-06
5.65048e-06
9.93187e-06
2.97544e-06
9.92928e-06
4.70835e-06
4.70293e-06
2.97419e-06
5.64906e-06
9.92724e-06
9.92531e-06
2.97439e-06
4.70254e-06
4.70769e-06
9.92623e-06
2.97506e-06
5.64925e-06
2.97488e-06
4.70803e-06
9.92887e-06
4.70188e-06
9.92227e-06
2.97401e-06
5.6479e-06
4.70226e-06
9.92421e-06
2.97382e-06
9.96138e-06
2.23886e-05
2.23891e-05
2.23822e-05
2.23827e-05
9.96102e-06
1.90803e-05
1.90795e-05
1.26428e-05
1.12353e-05
4.88173e-06
4.2366e-06
1.1233e-05
4.88181e-06
1.26454e-05
2.27408e-05
9.55418e-06
7.23775e-06
7.23756e-06
2.27338e-05
2.27405e-05
7.23885e-06
9.55531e-06
7.23903e-06
2.27475e-05
1.26414e-05
4.23582e-06
1.12293e-05
4.88108e-06
1.12316e-05
4.88099e-06
1.26388e-05
1.26494e-05
4.88277e-06
1.12368e-05
4.23724e-06
1.26468e-05
4.88267e-06
1.12391e-05
2.27541e-05
9.56184e-06
7.24303e-06
2.27611e-05
7.24323e-06
2.27545e-05
7.24197e-06
9.56074e-06
2.27475e-05
7.24177e-06
1.26508e-05
4.238e-06
4.88339e-06
1.12427e-05
1.26533e-05
4.88349e-06
1.12404e-05
1.26494e-05
1.12367e-05
4.88255e-06
4.23716e-06
1.26468e-05
1.1239e-05
4.88246e-06
2.27537e-05
9.56133e-06
7.24139e-06
7.24159e-06
2.27607e-05
2.27541e-05
7.24032e-06
9.56023e-06
2.27471e-05
7.24013e-06
1.26508e-05
4.23792e-06
1.12426e-05
4.88318e-06
1.12403e-05
4.88326e-06
1.26533e-05
1.26416e-05
4.88189e-06
1.12359e-05
4.2368e-06
4.88211e-06
1.12328e-05
1.26456e-05
2.27402e-05
9.55428e-06
7.23918e-06
7.2388e-06
2.27329e-05
2.27396e-05
7.24009e-06
9.55498e-06
7.24047e-06
2.27469e-05
1.26416e-05
4.23603e-06
4.88136e-06
1.12291e-05
4.88115e-06
1.12322e-05
1.26377e-05
1.26423e-05
1.12354e-05
4.88177e-06
4.23667e-06
1.1233e-05
4.88184e-06
1.26461e-05
2.27412e-05
9.55431e-06
7.23767e-06
7.23749e-06
2.27342e-05
2.27408e-05
7.23878e-06
9.55503e-06
7.23897e-06
2.27479e-05
1.26421e-05
4.23589e-06
1.12293e-05
4.8811e-06
1.12317e-05
4.88103e-06
1.26383e-05
1.26495e-05
4.88284e-06
1.12364e-05
4.23737e-06
1.26456e-05
4.88262e-06
1.12395e-05
2.27529e-05
9.56121e-06
7.24263e-06
7.24302e-06
2.27602e-05
2.27535e-05
7.24175e-06
9.56022e-06
2.27463e-05
7.24137e-06
1.26496e-05
4.23812e-06
4.88333e-06
1.12431e-05
4.88356e-06
1.12401e-05
1.26535e-05
1.265e-05
1.12367e-05
4.88258e-06
4.23723e-06
1.26463e-05
1.1239e-05
4.8825e-06
2.27541e-05
9.5612e-06
7.24132e-06
7.24152e-06
2.27611e-05
2.27545e-05
7.24025e-06
9.56035e-06
2.27475e-05
7.24006e-06
1.26502e-05
4.23796e-06
1.12426e-05
4.88321e-06
1.12403e-05
4.88329e-06
1.2654e-05
9.95707e-06
2.23754e-05
2.23758e-05
2.23691e-05
2.23695e-05
9.95674e-06
4.70617e-06
2.97421e-06
5.64699e-06
9.91971e-06
9.92228e-06
2.97408e-06
4.70649e-06
4.70021e-06
2.97312e-06
5.64557e-06
9.9154e-06
2.97294e-06
9.91738e-06
4.70054e-06
4.70719e-06
9.9254e-06
5.64813e-06
2.97448e-06
9.92279e-06
2.97462e-06
4.70686e-06
4.70124e-06
9.92045e-06
5.64675e-06
2.97335e-06
2.97353e-06
9.9185e-06
4.70091e-06
9.95494e-06
2.2363e-05
2.23634e-05
2.23694e-05
2.23697e-05
9.95526e-06
1.90675e-05
1.90683e-05
1.90824e-05
1.90816e-05
9.95854e-06
2.23751e-05
2.23755e-05
9.95888e-06
2.23815e-05
2.23818e-05
4.70854e-06
2.97524e-06
5.65034e-06
9.93149e-06
2.97539e-06
9.92892e-06
4.7082e-06
4.70259e-06
2.97411e-06
5.64896e-06
9.92676e-06
9.92414e-06
2.97429e-06
4.70224e-06
4.70754e-06
9.92586e-06
2.97501e-06
5.64923e-06
2.97487e-06
4.70788e-06
9.92846e-06
4.70158e-06
9.92124e-06
2.97392e-06
5.64781e-06
4.70192e-06
9.92363e-06
2.97373e-06
9.96067e-06
2.23875e-05
2.23878e-05
2.23811e-05
2.23815e-05
9.96032e-06
1.90798e-05
1.9079e-05
1.26424e-05
4.88196e-06
1.12354e-05
4.23684e-06
4.882e-06
1.12331e-05
1.2645e-05
2.27401e-05
9.55435e-06
7.239e-06
7.23883e-06
2.2733e-05
2.27397e-05
7.24012e-06
9.55506e-06
7.24029e-06
2.27467e-05
1.26412e-05
4.23607e-06
4.88125e-06
1.12294e-05
4.88122e-06
1.12317e-05
1.26383e-05
1.26424e-05
4.88192e-06
1.12353e-05
4.23689e-06
4.88204e-06
1.12329e-05
1.26463e-05
2.27423e-05
9.55507e-06
7.23815e-06
7.23795e-06
2.27352e-05
2.27419e-05
7.23924e-06
9.55576e-06
7.23944e-06
2.2749e-05
1.26422e-05
4.23605e-06
4.88129e-06
1.12292e-05
4.88117e-06
1.12316e-05
1.26384e-05
1.2649e-05
4.88273e-06
1.12367e-05
4.23741e-06
1.26464e-05
4.88269e-06
1.1239e-05
2.27529e-05
9.56125e-06
7.24266e-06
7.24285e-06
2.27599e-05
2.27533e-05
7.24158e-06
9.56036e-06
2.27463e-05
7.2414e-06
1.26504e-05
4.23816e-06
4.88339e-06
1.12426e-05
4.88345e-06
1.12403e-05
1.26529e-05
1.265e-05
4.88277e-06
1.12366e-05
4.23739e-06
1.26463e-05
4.88265e-06
1.12389e-05
2.27552e-05
9.56193e-06
7.24178e-06
7.24199e-06
2.27622e-05
2.27556e-05
7.24072e-06
9.56102e-06
2.27486e-05
7.24052e-06
1.26508e-05
4.23821e-06
4.88336e-06
1.12425e-05
4.8835e-06
1.12402e-05
1.26538e-05
1.90689e-05
1.90697e-05
1.90713e-05
1.9072e-05
9.95922e-06
2.2377e-05
2.23763e-05
9.95952e-06
2.23833e-05
2.23826e-05
4.70296e-06
2.97421e-06
5.64892e-06
9.92743e-06
4.70262e-06
2.97439e-06
9.92485e-06
4.70877e-06
2.97542e-06
5.6507e-06
9.93215e-06
4.70845e-06
2.9756e-06
9.92961e-06
4.70195e-06
9.92177e-06
2.97402e-06
5.64784e-06
4.7023e-06
2.97384e-06
9.92442e-06
4.70778e-06
9.92674e-06
2.97521e-06
5.64957e-06
4.70809e-06
2.97504e-06
9.92904e-06
9.96132e-06
2.23893e-05
2.23886e-05
9.96101e-06
2.2383e-05
2.23823e-05
1.90812e-05
1.90805e-05
1.90836e-05
1.90828e-05
1.90898e-05
1.9093e-05
4.70309e-06
2.97471e-06
9.92751e-06
5.64996e-06
4.70349e-06
9.93004e-06
2.9745e-06
4.70894e-06
2.97585e-06
9.93288e-06
5.65169e-06
4.70933e-06
9.93484e-06
2.97565e-06
9.96275e-06
2.23883e-05
2.23877e-05
9.96308e-06
2.23947e-05
2.2394e-05
2.27685e-05
7.24329e-06
9.56594e-06
2.27615e-05
7.24312e-06
1.2658e-05
4.23854e-06
1.12436e-05
4.88411e-06
1.12466e-05
1.26542e-05
4.88407e-06
4.709e-06
2.97581e-06
9.93227e-06
5.65144e-06
9.93491e-06
4.70935e-06
2.97562e-06
4.70321e-06
2.97475e-06
9.92833e-06
5.65011e-06
2.97456e-06
4.70359e-06
9.9303e-06
9.96279e-06
2.23882e-05
2.23887e-05
2.23945e-05
9.96316e-06
2.23951e-05
2.27673e-05
7.24285e-06
9.56623e-06
2.27604e-05
7.24265e-06
1.26572e-05
4.23845e-06
1.12439e-05
4.88396e-06
1.12462e-05
1.26547e-05
4.88387e-06
1.26574e-05
4.23937e-06
1.125e-05
4.88495e-06
1.12475e-05
2.27667e-05
7.24428e-06
9.56617e-06
7.24387e-06
2.27595e-05
1.26573e-05
4.23864e-06
4.88426e-06
1.12437e-05
4.88402e-06
1.26535e-05
1.12467e-05
2.2766e-05
1.26581e-05
4.2392e-06
1.12498e-05
4.88458e-06
1.12475e-05
4.88467e-06
1.26618e-05
2.27677e-05
7.24278e-06
9.56615e-06
2.27607e-05
7.24257e-06
1.26579e-05
4.23852e-06
1.12439e-05
4.88399e-06
1.26541e-05
1.12462e-05
4.8839e-06
2.27673e-05
7.24381e-06
9.56723e-06
7.24403e-06
2.27742e-05
4.70885e-06
2.97574e-06
9.93191e-06
5.65141e-06
9.93448e-06
4.7092e-06
2.97558e-06
4.70289e-06
2.97464e-06
9.92715e-06
5.65002e-06
2.97446e-06
4.70323e-06
9.92974e-06
9.96208e-06
2.23871e-05
2.23875e-05
2.23935e-05
9.96244e-06
2.23938e-05
1.90905e-05
1.26582e-05
4.23941e-06
4.88476e-06
1.12498e-05
4.88483e-06
1.12475e-05
1.26607e-05
2.27665e-05
7.2441e-06
9.56614e-06
7.24391e-06
2.27595e-05
1.26568e-05
4.23868e-06
4.88415e-06
1.12439e-05
4.88409e-06
1.26543e-05
1.12462e-05
2.27661e-05
7.24515e-06
7.24535e-06
2.2773e-05
1.26587e-05
4.23945e-06
4.88473e-06
1.125e-05
4.88489e-06
1.12471e-05
1.26613e-05
2.27688e-05
7.24325e-06
9.56706e-06
2.27618e-05
7.24303e-06
1.26574e-05
4.23867e-06
4.88421e-06
1.12438e-05
1.26549e-05
4.88405e-06
1.12462e-05
2.27684e-05
7.24427e-06
9.56772e-06
7.24449e-06
2.27754e-05
1.90919e-05
1.90927e-05
1.90943e-05
1.9095e-05
4.41884e-07
4.41816e-07
6.53601e-07
4.43784e-07
4.43705e-07
2.35688e-07
2.33746e-07
2.82688e-06
1.96725e-06
1.96749e-06
1.41389e-06
1.96655e-06
1.96679e-06
2.82719e-06
4.49308e-07
4.4923e-07
2.43317e-07
2.41429e-07
2.82813e-06
1.96877e-06
1.96901e-06
1.41683e-06
2.82847e-06
1.96804e-06
1.96828e-06
2.82681e-06
1.96723e-06
1.96744e-06
1.41381e-06
1.96655e-06
1.96674e-06
2.82712e-06
2.82811e-06
1.41758e-06
1.96771e-06
1.9679e-06
1.96841e-06
1.96862e-06
2.82779e-06
2.82683e-06
1.96736e-06
1.96728e-06
1.41378e-06
1.96658e-06
1.96665e-06
2.82716e-06
2.82815e-06
1.41753e-06
1.96781e-06
1.96773e-06
1.96852e-06
1.96845e-06
2.82781e-06
2.82674e-06
1.96734e-06
1.96724e-06
1.41383e-06
1.96656e-06
1.96664e-06
2.82704e-06
2.82802e-06
1.41758e-06
1.96778e-06
1.9677e-06
1.9685e-06
1.9684e-06
2.8277e-06
2.82819e-06
1.41766e-06
1.96772e-06
1.96795e-06
2.82788e-06
1.96843e-06
1.96867e-06
2.82808e-06
1.96876e-06
1.96896e-06
1.41675e-06
2.82841e-06
1.96804e-06
1.96824e-06
2.8281e-06
1.96887e-06
1.96879e-06
1.41675e-06
1.96807e-06
2.82844e-06
1.96816e-06
2.82798e-06
1.96884e-06
1.96874e-06
1.41677e-06
1.96803e-06
2.82831e-06
1.96812e-06
4.41865e-07
4.41846e-07
6.53602e-07
4.43773e-07
4.43727e-07
2.35689e-07
2.33758e-07
4.41955e-07
4.41944e-07
6.53707e-07
4.43838e-07
4.43839e-07
2.35756e-07
2.33825e-07
4.41995e-07
4.41919e-07
6.53695e-07
4.43856e-07
4.43843e-07
2.35769e-07
2.33829e-07
6.55177e-07
4.47496e-07
4.47414e-07
4.45661e-07
4.45592e-07
2.37613e-07
2.39529e-07
6.55154e-07
4.47482e-07
4.47436e-07
4.45642e-07
4.45624e-07
2.37626e-07
2.39529e-07
6.55293e-07
4.47539e-07
4.47547e-07
4.45731e-07
4.45719e-07
2.37692e-07
2.39596e-07
6.55302e-07
4.47562e-07
4.47559e-07
4.45776e-07
4.4569e-07
2.37696e-07
2.39611e-07
1.66493e-06
2.53968e-06
1.54179e-06
2.29443e-06
2.53992e-06
1.54276e-06
1.66299e-06
1.84165e-06
2.22255e-06
3.64449e-06
3.02105e-06
2.22204e-06
3.02068e-06
1.84293e-06
1.84347e-06
3.02115e-06
3.64534e-06
2.2224e-06
2.22292e-06
3.02153e-06
1.84214e-06
1.66254e-06
2.29383e-06
2.53951e-06
1.54216e-06
2.53928e-06
1.54119e-06
1.66429e-06
1.66463e-06
1.54192e-06
2.5398e-06
2.29445e-06
1.54275e-06
2.53999e-06
1.66348e-06
1.84183e-06
2.22254e-06
3.6445e-06
3.02108e-06
2.22207e-06
3.02077e-06
1.84291e-06
1.84343e-06
3.02124e-06
3.64533e-06
2.22242e-06
2.22291e-06
3.02156e-06
1.84237e-06
1.66294e-06
2.29391e-06
1.54215e-06
2.53958e-06
1.54133e-06
2.5394e-06
1.66412e-06
2.82754e-06
1.41617e-06
1.96697e-06
1.9672e-06
1.96767e-06
1.96791e-06
2.82723e-06
4.49288e-07
4.49269e-07
4.51e-07
2.43319e-07
2.41443e-07
4.49368e-07
4.4936e-07
4.51118e-07
2.43384e-07
2.41508e-07
4.49423e-07
4.49326e-07
6.59756e-07
4.51119e-07
4.51149e-07
2.43401e-07
2.41511e-07
1.66697e-06
2.29597e-06
2.54108e-06
1.54383e-06
2.54134e-06
1.54487e-06
1.66456e-06
1.84337e-06
2.22389e-06
3.02286e-06
3.64704e-06
1.84516e-06
2.22336e-06
3.02245e-06
1.6644e-06
2.29544e-06
2.54102e-06
1.54439e-06
1.66648e-06
2.54077e-06
1.54337e-06
1.66649e-06
2.29601e-06
1.54402e-06
2.5412e-06
1.54486e-06
2.54141e-06
1.66522e-06
1.84384e-06
2.22388e-06
3.02289e-06
3.64704e-06
1.84485e-06
2.22336e-06
3.02256e-06
1.66487e-06
2.29553e-06
1.54438e-06
2.54109e-06
1.66605e-06
1.54355e-06
2.54088e-06
1.8453e-06
3.02296e-06
3.0233e-06
1.84423e-06
2.82876e-06
1.419e-06
1.96834e-06
1.96858e-06
1.96909e-06
1.96932e-06
2.82842e-06
2.82747e-06
1.41609e-06
1.96696e-06
1.96715e-06
2.82716e-06
1.96765e-06
1.96786e-06
2.82748e-06
1.41534e-06
1.96804e-06
1.96825e-06
2.8278e-06
1.96735e-06
1.96754e-06
1.66463e-06
2.53982e-06
1.54188e-06
2.29442e-06
2.54003e-06
1.54271e-06
1.66346e-06
1.84186e-06
2.22254e-06
3.64441e-06
3.0212e-06
3.02084e-06
2.22207e-06
1.84295e-06
1.84347e-06
3.02132e-06
3.64526e-06
2.22243e-06
3.02168e-06
2.22291e-06
1.8424e-06
1.6629e-06
2.29387e-06
2.53961e-06
1.54211e-06
2.53941e-06
1.54128e-06
1.66412e-06
1.66452e-06
2.53967e-06
1.54182e-06
2.29435e-06
2.53985e-06
1.54265e-06
1.66335e-06
1.84171e-06
2.22275e-06
3.64477e-06
3.02086e-06
3.02053e-06
2.22226e-06
1.84279e-06
1.84332e-06
3.02101e-06
3.64567e-06
2.22263e-06
3.02134e-06
1.84226e-06
2.22312e-06
1.66282e-06
2.29381e-06
2.53943e-06
1.54205e-06
2.53926e-06
1.54123e-06
1.664e-06
1.66393e-06
2.54042e-06
1.54328e-06
2.29473e-06
1.66511e-06
2.5402e-06
1.54244e-06
1.84444e-06
2.22309e-06
3.64655e-06
3.02222e-06
2.22359e-06
3.0226e-06
1.84344e-06
1.84292e-06
3.02215e-06
2.22327e-06
3.64573e-06
2.22277e-06
1.84397e-06
3.02178e-06
1.66557e-06
2.29525e-06
2.54058e-06
1.54299e-06
2.54079e-06
1.54383e-06
1.6644e-06
1.66381e-06
2.54024e-06
1.54322e-06
2.29467e-06
1.665e-06
2.54006e-06
1.54238e-06
1.8443e-06
2.22329e-06
3.64696e-06
3.02192e-06
3.02226e-06
2.2238e-06
1.84331e-06
1.84279e-06
3.02181e-06
2.22347e-06
3.64609e-06
1.84382e-06
3.02147e-06
2.22297e-06
1.66546e-06
2.29519e-06
2.54043e-06
1.54293e-06
2.54062e-06
1.54377e-06
1.66429e-06
2.82751e-06
1.41607e-06
1.96706e-06
1.96698e-06
1.96769e-06
1.96777e-06
2.82718e-06
2.82751e-06
1.41533e-06
1.96816e-06
1.96808e-06
1.96745e-06
2.82784e-06
1.96737e-06
1.6649e-06
2.53974e-06
1.54174e-06
2.2944e-06
2.53996e-06
1.54272e-06
1.66297e-06
1.84167e-06
2.22284e-06
3.64491e-06
3.02122e-06
3.02083e-06
2.22235e-06
1.843e-06
1.84356e-06
3.02131e-06
3.64574e-06
2.22271e-06
3.0217e-06
2.22321e-06
1.84215e-06
1.66255e-06
2.2938e-06
2.53955e-06
1.54211e-06
2.53934e-06
1.54114e-06
1.66428e-06
1.66477e-06
1.5417e-06
2.5396e-06
2.29434e-06
1.54268e-06
2.53979e-06
1.6629e-06
1.84157e-06
2.22274e-06
3.64478e-06
3.02081e-06
3.02044e-06
2.22227e-06
1.84285e-06
1.8434e-06
3.02092e-06
3.64561e-06
2.22262e-06
3.02127e-06
1.84206e-06
2.2231e-06
1.66248e-06
2.29374e-06
1.54207e-06
2.53939e-06
1.54111e-06
2.5392e-06
1.66416e-06
1.66341e-06
2.54035e-06
1.54329e-06
2.29466e-06
1.6655e-06
2.54013e-06
1.54231e-06
1.84472e-06
2.22337e-06
3.64702e-06
3.0222e-06
2.22388e-06
3.0226e-06
1.843e-06
1.84259e-06
3.02216e-06
2.22356e-06
3.64622e-06
2.22305e-06
1.84413e-06
3.02176e-06
1.66603e-06
2.29522e-06
2.54049e-06
1.54285e-06
2.54072e-06
1.54383e-06
1.66394e-06
1.66334e-06
1.54325e-06
2.54017e-06
2.2946e-06
1.66536e-06
1.54227e-06
2.53998e-06
1.8445e-06
2.22327e-06
3.64689e-06
3.0218e-06
3.02216e-06
2.22377e-06
1.84291e-06
1.84251e-06
3.02173e-06
2.22345e-06
3.64608e-06
1.84394e-06
3.02137e-06
2.22296e-06
1.6659e-06
2.29515e-06
1.54281e-06
2.54034e-06
1.54379e-06
2.54053e-06
1.66384e-06
1.66488e-06
1.54178e-06
2.53963e-06
2.2944e-06
1.54274e-06
2.53985e-06
1.66295e-06
1.84159e-06
2.22253e-06
3.64447e-06
3.02074e-06
2.22204e-06
3.02036e-06
1.84288e-06
1.84343e-06
3.02084e-06
3.64531e-06
2.2224e-06
2.2229e-06
3.02123e-06
1.84208e-06
1.66253e-06
2.29381e-06
1.54214e-06
2.53944e-06
1.54118e-06
2.53923e-06
1.66425e-06
1.66343e-06
2.54031e-06
1.54334e-06
2.29468e-06
1.66548e-06
2.54007e-06
1.54236e-06
1.84457e-06
2.22306e-06
3.64663e-06
3.02204e-06
1.84299e-06
2.22359e-06
3.02244e-06
1.84259e-06
3.022e-06
2.22326e-06
3.6458e-06
1.84401e-06
2.22275e-06
3.0216e-06
1.66601e-06
2.29525e-06
2.54043e-06
1.54289e-06
1.66397e-06
2.54068e-06
1.54388e-06
1.66341e-06
1.54332e-06
2.54024e-06
2.29466e-06
1.66546e-06
1.54235e-06
2.54002e-06
1.84453e-06
2.22306e-06
3.64659e-06
3.02174e-06
3.02213e-06
2.22356e-06
1.84294e-06
1.84254e-06
3.02169e-06
2.22324e-06
3.64579e-06
1.84398e-06
3.02129e-06
2.22274e-06
1.66598e-06
2.29522e-06
1.54288e-06
2.54037e-06
1.54386e-06
2.54061e-06
1.66391e-06
2.82738e-06
1.4161e-06
1.96705e-06
1.96696e-06
1.96765e-06
1.96775e-06
2.82708e-06
2.8274e-06
1.41535e-06
1.96814e-06
1.96804e-06
1.96743e-06
2.82771e-06
1.96734e-06
1.66455e-06
1.54186e-06
2.53967e-06
2.29439e-06
1.5427e-06
2.53988e-06
1.66339e-06
1.84176e-06
2.22287e-06
3.64499e-06
3.02092e-06
2.2224e-06
3.02057e-06
1.84284e-06
1.84336e-06
3.02105e-06
3.64583e-06
2.22276e-06
2.22324e-06
3.0214e-06
1.8423e-06
1.66285e-06
2.29385e-06
1.5421e-06
2.53947e-06
1.54128e-06
2.53926e-06
1.66404e-06
1.66393e-06
1.54332e-06
2.54038e-06
2.29476e-06
1.66512e-06
1.54248e-06
2.54018e-06
1.84439e-06
2.22307e-06
3.64661e-06
3.02214e-06
1.84341e-06
2.22358e-06
3.02247e-06
1.8429e-06
3.02203e-06
2.22325e-06
3.6458e-06
1.84392e-06
2.22276e-06
3.0217e-06
1.66558e-06
2.29528e-06
1.54302e-06
2.54055e-06
1.66442e-06
1.54386e-06
2.54074e-06
1.66385e-06
1.54326e-06
2.54027e-06
2.2947e-06
1.66502e-06
1.54243e-06
2.54005e-06
1.84433e-06
2.22342e-06
3.64712e-06
3.02195e-06
3.02231e-06
2.22392e-06
1.84334e-06
1.84282e-06
3.02186e-06
2.22359e-06
3.64631e-06
1.84386e-06
3.02151e-06
2.2231e-06
1.66548e-06
2.29522e-06
1.54296e-06
2.54042e-06
1.54381e-06
2.54064e-06
1.66432e-06
2.82756e-06
1.41542e-06
1.96806e-06
1.9683e-06
2.82788e-06
1.96736e-06
1.96758e-06
1.84388e-06
2.2239e-06
3.02302e-06
3.64698e-06
3.02265e-06
1.8449e-06
2.22339e-06
1.66482e-06
2.29551e-06
2.54114e-06
1.54435e-06
2.54092e-06
1.66603e-06
1.54351e-06
1.84374e-06
2.22411e-06
3.02269e-06
3.64734e-06
1.84475e-06
3.02235e-06
2.22359e-06
1.66471e-06
2.29545e-06
2.54097e-06
1.54429e-06
1.66592e-06
2.54077e-06
1.54345e-06
1.84344e-06
2.22419e-06
3.02302e-06
3.64746e-06
3.02262e-06
1.84528e-06
2.22367e-06
1.66437e-06
2.29542e-06
2.54106e-06
1.54434e-06
2.54083e-06
1.66644e-06
1.54336e-06
1.84332e-06
2.22407e-06
3.02258e-06
3.64732e-06
1.84505e-06
3.02222e-06
2.22356e-06
1.66423e-06
2.29536e-06
1.5443e-06
2.54087e-06
1.66634e-06
1.54332e-06
2.54067e-06
1.66687e-06
2.29595e-06
1.54382e-06
2.54102e-06
1.54485e-06
2.54127e-06
1.66451e-06
1.84334e-06
2.22387e-06
3.02255e-06
3.64701e-06
2.22334e-06
1.84509e-06
3.02216e-06
1.66432e-06
2.29542e-06
1.54437e-06
2.54094e-06
1.54338e-06
1.6664e-06
2.54071e-06
1.84564e-06
3.02252e-06
3.64781e-06
2.22361e-06
2.22415e-06
3.02296e-06
1.84374e-06
1.66637e-06
2.29596e-06
1.54397e-06
2.54108e-06
1.54481e-06
2.54132e-06
1.66513e-06
1.84379e-06
2.22423e-06
3.02273e-06
3.64755e-06
2.22372e-06
1.84478e-06
3.02236e-06
1.66475e-06
2.29547e-06
1.54433e-06
2.54099e-06
1.54347e-06
1.66594e-06
2.54075e-06
1.84522e-06
3.02278e-06
3.64833e-06
2.224e-06
2.22452e-06
3.02314e-06
1.84421e-06
8.63145e-07
1.14829e-06
8.63013e-07
9.16218e-06
3.47545e-06
1.84289e-05
5.46351e-06
5.46213e-06
1.84268e-05
3.47514e-06
9.16223e-06
2.20554e-05
9.15921e-06
7.08878e-06
7.08911e-06
2.2062e-05
1.84239e-05
4.54484e-06
2.81254e-06
5.46325e-06
9.50421e-06
2.81156e-06
9.50111e-06
4.54507e-06
4.5388e-06
2.81141e-06
5.46188e-06
9.49962e-06
9.49656e-06
2.81045e-06
4.5388e-06
9.73621e-06
2.17294e-05
2.17297e-05
2.17231e-05
2.17234e-05
9.73581e-06
1.84217e-05
2.20527e-05
9.15925e-06
7.08952e-06
7.09005e-06
2.20596e-05
2.66775e-06
1.14938e-06
1.76773e-06
1.76764e-06
1.76816e-06
1.76804e-06
2.66867e-06
1.61718e-06
2.0328e-06
3.47483e-06
2.86029e-06
2.86002e-06
2.032e-06
1.61759e-06
1.6172e-06
2.03231e-06
3.47434e-06
2.86066e-06
2.03168e-06
2.85995e-06
1.61762e-06
3.23772e-07
8.69019e-07
8.69154e-07
1.15427e-06
3.39805e-07
8.9245e-07
8.92573e-07
1.17359e-06
3.56083e-07
9.14885e-07
9.15002e-07
1.19196e-06
3.72524e-07
9.36309e-07
9.36426e-07
1.20947e-06
3.89048e-07
9.5672e-07
9.56837e-07
1.22616e-06
4.05572e-07
9.76133e-07
9.76251e-07
1.24209e-06
4.22019e-07
9.94561e-07
9.94678e-07
1.25711e-06
4.38313e-07
1.01201e-06
1.01212e-06
1.27132e-06
4.54383e-07
1.02848e-06
1.0286e-06
1.28471e-06
4.70163e-07
1.044e-06
1.04413e-06
1.29731e-06
4.85593e-07
1.05859e-06
1.05872e-06
1.30917e-06
5.00621e-07
1.07228e-06
1.07241e-06
1.32039e-06
5.15199e-07
1.08509e-06
1.08522e-06
1.33095e-06
5.29286e-07
1.09705e-06
1.09717e-06
1.34086e-06
5.42845e-07
1.10817e-06
1.10829e-06
1.35015e-06
5.55848e-07
1.1185e-06
1.11862e-06
1.35884e-06
5.68267e-07
1.12805e-06
1.12817e-06
1.36692e-06
5.80082e-07
1.13686e-06
1.13697e-06
1.37441e-06
5.91281e-07
1.14493e-06
1.14504e-06
1.38136e-06
6.01852e-07
1.1523e-06
1.15241e-06
1.38775e-06
6.11789e-07
1.15899e-06
1.15909e-06
1.39359e-06
6.21091e-07
1.16502e-06
1.16512e-06
1.39891e-06
6.29757e-07
1.17042e-06
1.17052e-06
1.40374e-06
6.37792e-07
1.1752e-06