/*--------------------------------*- C++ -*----------------------------------*\
| =========                 |                                                 |
| \\      /  F ield         | OpenFOAM: The Open Source CFD Toolbox           |
|  \\    /   O peration     | Version:  2312                                  |
|   \\  /    A nd           | Website:  www.openfoam.com                      |
|    \\/     M anipulation  |                                                 |
\*---------------------------------------------------------------------------*/
FoamFile
{
    version     2.0;
    format      ascii;
    arch        "LSB;label=32;scalar=64";
    class       volScalarField;
    location    "400";
    object      nut;
}
// * * * * * * * * * * * * * * * * * * * * * * * * * * * * * * * * * * * * * //

dimensions      [0 2 -1 0 0 0 0];

internalField   nonuniform List<scalar> 
43496
(
9.98711e-05
2.38923e-05
0.000200558
0.000103628
0.000144189
0.000210086
9.98678e-05
5.07404e-05
0.000144186
0.000200525
0.000210082
0.00010361
0.000181998
7.79009e-05
7.79145e-05
2.38945e-05
5.07465e-05
3.6712e-05
9.98345e-05
9.44827e-05
4.10595e-05
9.44489e-05
4.10532e-05
3.6719e-05
2.03174e-05
7.90882e-05
7.90698e-05
2.03195e-05
2.38902e-05
3.67099e-05
9.98312e-05
4.10592e-05
9.44718e-05
4.10529e-05
9.44385e-05
3.67171e-05
2.03164e-05
7.90667e-05
5.07355e-05
7.90483e-05
2.03184e-05
8.14864e-05
2.17086e-05
2.17118e-05
2.17066e-05
2.17098e-05
8.14926e-05
0.00010522
4.86453e-05
7.78919e-05
0.000128798
4.86456e-05
0.000128738
0.000105239
0.000105217
4.86577e-05
7.79061e-05
0.000128827
0.000128768
4.86581e-05
0.000105236
2.38924e-05
5.07404e-05
0.000203252
0.000206632
0.000203263
0.000103586
0.000147612
0.000147555
0.000171222
0.000144087
0.000137639
0.000176584
0.000137543
0.000176443
0.000171409
0.000160674
0.000122787
0.000122718
0.000160853
0.000171205
0.000144083
0.000176581
0.000137629
0.00017644
0.000137533
0.000171411
0.000160656
0.000122772
0.000103567
0.000147586
0.000122704
0.000160829
0.000147514
0.000138331
0.000181911
0.000161801
0.000161819
0.00016176
0.00016174
0.000138368
0.000203471
0.000198788
0.000198789
0.000180644
0.000205992
0.000200205
0.000200205
0.000181611
0.00018067
0.000181613
0.000198778
0.000198758
0.000199853
0.000199829
0.000180644
0.000181536
0.000198785
0.000198755
0.00019986
0.000199835
0.000198761
0.000199858
0.000199848
0.000180661
0.00018156
0.000198774
0.000199868
0.000199858
0.000181594
0.000181627
0.000200196
0.000200176
0.00018169
0.000200202
0.000200171
0.000200178
0.00018165
0.00020019
9.97517e-05
5.07206e-05
5.07274e-05
9.96881e-05
2.38794e-05
2.38839e-05
9.97492e-05
5.07129e-05
5.07244e-05
9.96754e-05
0.000203466
0.000203472
0.000203468
0.000205386
0.00020538
0.000205396
0.000205399
0.000143767
0.000103381
0.000207772
0.000199151
0.00010347
0.000208255
0.000143546
2.38783e-05
2.38828e-05
0.000143755
0.000207775
0.000103381
0.000199161
0.000208263
0.000103467
0.000143557
7.78186e-05
7.78139e-05
0.000181116
7.78465e-05
7.78425e-05
5.07419e-05
9.9817e-05
2.3889e-05
5.07349e-05
9.9804e-05
0.000205989
0.000205993
0.000205989
0.000144191
0.000103548
0.000209623
0.000143984
0.000210085
2.38878e-05
0.000144179
0.000209627
0.000103547
0.000143995
0.000210092
7.78852e-05
7.78801e-05
0.000182066
7.79092e-05
7.79048e-05
2.38815e-05
2.38859e-05
2.38794e-05
2.38839e-05
7.78298e-05
7.78231e-05
0.000181133
7.78558e-05
7.78492e-05
2.38907e-05
2.38863e-05
2.38887e-05
2.38842e-05
0.000181154
7.78884e-05
7.78828e-05
7.78634e-05
7.78569e-05
9.9748e-05
5.07124e-05
5.07235e-05
9.96842e-05
0.000143767
0.000103386
0.000207777
0.000199144
0.000103474
0.000208257
0.000143568
0.000143762
0.000103362
0.000207769
0.00019912
0.00010345
0.000208248
0.000143563
9.97546e-05
5.07378e-05
5.07314e-05
9.98145e-05
9.97508e-05
5.07323e-05
5.07255e-05
9.98109e-05
0.000143793
0.000199497
0.000103556
0.000209185
0.000103472
0.000208715
0.000143984
0.000143788
0.000199477
0.000103533
0.000209176
0.000103447
0.000208708
0.000143979
7.78089e-05
7.78279e-05
0.000181089
7.78351e-05
7.78568e-05
2.38807e-05
2.38852e-05
2.38887e-05
2.38842e-05
0.000181149
7.78677e-05
7.78892e-05
7.78427e-05
7.78617e-05
2.389e-05
2.38855e-05
0.000143764
0.000103374
0.000207766
0.000199151
0.000103463
0.000208254
0.000143543
9.97459e-05
5.07088e-05
5.07202e-05
9.96723e-05
0.000143761
0.000207763
0.000103361
0.000199127
0.00020825
0.000103449
0.000143539
9.97412e-05
5.07348e-05
5.07236e-05
9.98111e-05
0.000143767
0.000199503
0.000103545
0.000209181
0.000103459
0.000208704
0.00014398
9.97381e-05
5.07308e-05
5.07196e-05
9.98081e-05
0.000143763
0.000199473
0.000209177
0.000103531
0.000208701
0.000103446
0.000143976
9.97416e-05
5.07165e-05
5.07235e-05
9.96701e-05
0.000143768
0.00020777
0.000103372
0.00019914
0.000208258
0.00010346
0.000143547
9.97483e-05
5.07127e-05
5.07195e-05
9.9675e-05
0.000143769
0.000199506
0.000103551
0.00020918
0.000103467
0.000208709
0.000143982
9.97357e-05
5.07359e-05
5.07258e-05
9.98038e-05
0.000143771
0.000199479
0.000209183
0.000103542
0.000208707
0.000103457
0.000143984
9.97407e-05
5.07314e-05
5.07232e-05
9.98102e-05
7.78114e-05
7.78242e-05
0.000181121
7.78391e-05
7.78525e-05
2.38805e-05
2.3885e-05
2.38876e-05
2.38831e-05
0.000181142
7.78714e-05
7.78838e-05
7.78447e-05
7.78576e-05
2.38898e-05
2.38853e-05
0.000143749
0.000207771
0.000103367
0.00019915
0.00020826
0.000103454
0.000143551
9.97384e-05
5.07165e-05
5.07232e-05
9.96728e-05
9.97298e-05
5.07113e-05
5.07182e-05
9.96625e-05
0.000143781
0.000199507
0.000209188
0.000103549
0.000208713
0.000103466
0.000143972
0.000143775
0.000199492
0.000209185
0.000103536
0.000208708
0.000103452
0.000143966
9.97384e-05
5.07354e-05
5.07272e-05
9.98007e-05
9.97282e-05
5.07294e-05
5.07207e-05
9.97922e-05
2.38793e-05
2.38838e-05
2.38783e-05
2.38828e-05
0.000181136
7.78778e-05
7.78748e-05
7.78527e-05
7.78478e-05
2.38886e-05
2.38841e-05
2.38875e-05
2.38831e-05
2.38911e-05
2.38889e-05
7.78952e-05
7.78878e-05
5.07362e-05
9.9813e-05
0.000103554
0.000209631
0.000144007
0.00010353
0.000209623
0.000144002
7.78747e-05
7.78938e-05
2.38902e-05
0.00010354
0.000209619
0.000143982
5.07298e-05
9.98012e-05
0.000209615
0.000103527
0.000143979
9.98642e-05
5.07353e-05
9.97981e-05
0.000144193
0.000209622
0.000103539
0.000200539
0.000143986
0.000210089
0.000103622
9.98704e-05
5.07312e-05
9.98038e-05
5.07428e-05
7.78765e-05
7.78904e-05
2.389e-05
0.000144174
0.000209623
0.000103534
0.00020055
0.000143989
0.000210091
0.000103615
9.98605e-05
5.07351e-05
9.98002e-05
9.98519e-05
5.07327e-05
9.97902e-05
5.07386e-05
2.38889e-05
2.38933e-05
2.38878e-05
2.38922e-05
3.6701e-05
4.10397e-05
9.43893e-05
9.97215e-05
4.10393e-05
9.43636e-05
3.67001e-05
2.03094e-05
5.0722e-05
7.9015e-05
7.90342e-05
2.03073e-05
2.03093e-05
7.90465e-05
5.07261e-05
7.90279e-05
2.03114e-05
3.66963e-05
9.97187e-05
4.1035e-05
9.43373e-05
4.10352e-05
9.43633e-05
3.66971e-05
2.38815e-05
2.38818e-05
3.66968e-05
9.43868e-05
4.10419e-05
9.97093e-05
9.43513e-05
4.10358e-05
3.67037e-05
2.03097e-05
5.07191e-05
7.90092e-05
7.90287e-05
2.03076e-05
2.03096e-05
7.90411e-05
5.07183e-05
7.9022e-05
2.03117e-05
3.67e-05
9.97167e-05
9.43246e-05
4.10311e-05
9.43612e-05
4.10375e-05
3.6693e-05
2.38804e-05
2.38807e-05
8.14468e-05
2.17037e-05
2.17005e-05
2.17017e-05
2.16984e-05
8.14528e-05
0.000105071
0.000128394
7.783e-05
4.86311e-05
0.000128459
4.86312e-05
0.00010505
0.000105078
0.000128376
7.78255e-05
4.86167e-05
0.000128442
4.86243e-05
0.000105058
0.000105084
4.86359e-05
7.78356e-05
0.000128534
0.00012847
4.86359e-05
0.000105105
0.000105092
4.86286e-05
7.78309e-05
0.000128517
0.000128453
4.86216e-05
0.000105112
8.1442e-05
2.16997e-05
2.16965e-05
2.17018e-05
2.16985e-05
8.14362e-05
2.03172e-05
7.90643e-05
5.07431e-05
2.03152e-05
7.90825e-05
3.67135e-05
9.98458e-05
4.10526e-05
9.4438e-05
3.67105e-05
4.10528e-05
9.44623e-05
2.3891e-05
2.03176e-05
7.90581e-05
5.07389e-05
2.03155e-05
7.90769e-05
3.67153e-05
9.98416e-05
9.44249e-05
4.10487e-05
3.67082e-05
9.44594e-05
4.10551e-05
2.389e-05
8.1487e-05
2.17114e-05
2.17082e-05
2.17094e-05
2.17062e-05
8.14932e-05
0.000105202
0.000128692
4.86507e-05
7.78937e-05
0.000105182
0.000128754
4.86505e-05
0.000105209
0.000128674
4.86403e-05
7.78893e-05
0.00010519
0.000128736
4.864e-05
8.14834e-05
2.17075e-05
2.17042e-05
8.14775e-05
2.17095e-05
2.17063e-05
0.000105214
4.86554e-05
7.79006e-05
0.000128824
0.000128763
4.86559e-05
0.000105234
0.000105222
4.8645e-05
7.78961e-05
0.000128807
0.000128745
4.86452e-05
0.000105241
2.38835e-05
2.38839e-05
2.38815e-05
2.38818e-05
8.14525e-05
2.17041e-05
2.17008e-05
2.17021e-05
2.16988e-05
8.14579e-05
0.000105078
0.000128408
7.78392e-05
4.8634e-05
4.86339e-05
0.000128467
0.000105059
0.000105081
0.000128383
7.78325e-05
4.86215e-05
4.86212e-05
0.000128448
0.000105061
0.000105093
4.86389e-05
7.78467e-05
0.000128543
4.86391e-05
0.000105112
0.000128485
0.000105095
4.8627e-05
7.78404e-05
0.000128523
4.86266e-05
0.000105115
0.00012846
8.14471e-05
2.17001e-05
2.16968e-05
2.17022e-05
2.16989e-05
8.1442e-05
2.38887e-05
2.38883e-05
2.38866e-05
2.38863e-05
8.14684e-05
2.1704e-05
2.17007e-05
8.14629e-05
2.1706e-05
2.17027e-05
0.000105158
0.000128691
7.78794e-05
4.86487e-05
4.86488e-05
0.000128633
0.000105177
0.00010516
0.000128671
7.78723e-05
4.86396e-05
4.86319e-05
0.000128608
0.00010518
0.000105145
4.8644e-05
0.00012856
7.78724e-05
0.000105126
4.86436e-05
0.000128618
0.000105148
4.8628e-05
0.000128535
7.78669e-05
0.000105128
4.86337e-05
0.000128598
8.14729e-05
2.17079e-05
2.17047e-05
2.17059e-05
2.17026e-05
8.14786e-05
3.66954e-05
4.10396e-05
9.43773e-05
9.97178e-05
4.10392e-05
9.43511e-05
3.67025e-05
2.03087e-05
5.07188e-05
7.89928e-05
7.90115e-05
2.03066e-05
2.03086e-05
7.90239e-05
5.07177e-05
7.90056e-05
2.03107e-05
3.66985e-05
9.97149e-05
4.10349e-05
9.43246e-05
4.1035e-05
9.43511e-05
3.66918e-05
3.6704e-05
4.10441e-05
9.43893e-05
9.97836e-05
3.67049e-05
4.1044e-05
9.44142e-05
2.03132e-05
5.07366e-05
7.90705e-05
2.03153e-05
7.90525e-05
2.03133e-05
7.90403e-05
5.07325e-05
2.03113e-05
7.90588e-05
3.67084e-05
9.97863e-05
4.10484e-05
9.44383e-05
3.6708e-05
4.10485e-05
9.44142e-05
3.67053e-05
4.10439e-05
9.43769e-05
9.978e-05
3.66992e-05
4.10439e-05
9.44022e-05
2.03125e-05
5.07312e-05
7.90481e-05
7.90303e-05
2.03146e-05
2.03127e-05
7.90181e-05
5.07277e-05
2.03106e-05
7.90362e-05
3.67062e-05
9.97827e-05
4.10484e-05
9.44262e-05
4.10484e-05
9.44021e-05
3.67074e-05
8.14486e-05
2.17008e-05
2.17039e-05
2.16988e-05
2.17018e-05
8.14566e-05
0.000105081
0.000128375
7.78185e-05
4.8621e-05
4.8621e-05
0.000128437
0.000105058
0.000105079
0.000128404
7.78399e-05
4.86287e-05
0.000128468
4.86363e-05
0.000105054
0.000105091
4.8626e-05
7.78259e-05
0.000128511
4.86261e-05
0.000128452
0.000105115
0.000105088
4.86413e-05
7.78449e-05
0.000128543
0.00012848
4.86336e-05
0.000105112
8.1446e-05
2.16968e-05
2.16998e-05
2.16989e-05
2.17019e-05
8.1438e-05
2.38828e-05
2.38831e-05
2.38866e-05
2.38863e-05
8.14668e-05
2.17007e-05
2.17037e-05
8.1459e-05
2.17027e-05
2.17058e-05
0.000105157
0.000128659
7.78588e-05
4.86357e-05
0.0001286
4.86359e-05
0.000105177
0.000105153
0.000128691
7.7878e-05
4.86511e-05
4.86436e-05
0.000128628
0.000105177
0.000105147
4.86309e-05
0.000128527
7.78516e-05
0.000128586
0.000105125
4.86307e-05
0.000105145
4.86386e-05
0.000128555
7.78734e-05
0.000105121
4.86464e-05
0.000128618
8.14693e-05
2.17047e-05
2.17077e-05
2.17026e-05
2.17057e-05
8.14768e-05
2.38878e-05
2.38876e-05
3.66948e-05
4.10417e-05
9.43756e-05
9.9706e-05
4.10355e-05
9.43406e-05
3.67018e-05
2.03087e-05
5.07149e-05
7.89876e-05
7.90072e-05
2.03066e-05
2.03086e-05
7.90196e-05
5.07141e-05
7.90005e-05
2.03106e-05
3.6698e-05
9.97135e-05
4.10308e-05
9.43139e-05
4.10373e-05
9.43498e-05
3.66911e-05
3.67076e-05
9.43764e-05
4.10399e-05
9.97809e-05
3.67006e-05
9.44115e-05
4.10463e-05
2.03135e-05
5.0729e-05
7.90652e-05
2.03156e-05
7.90465e-05
2.03137e-05
7.90344e-05
5.07298e-05
2.03116e-05
7.90534e-05
3.67042e-05
9.97729e-05
9.44352e-05
4.10505e-05
3.67116e-05
9.44011e-05
4.10444e-05
3.67056e-05
4.10397e-05
9.43658e-05
9.97776e-05
3.66986e-05
4.1046e-05
9.44003e-05
2.03125e-05
5.07249e-05
7.90436e-05
7.9025e-05
2.03146e-05
2.03126e-05
7.90129e-05
5.07256e-05
2.03105e-05
7.90318e-05
3.67024e-05
9.97696e-05
4.10504e-05
9.44246e-05
4.10442e-05
9.43907e-05
3.67096e-05
3.67009e-05
9.43743e-05
4.10385e-05
9.97036e-05
9.43401e-05
4.10383e-05
3.66996e-05
2.03099e-05
5.07178e-05
7.90061e-05
7.9017e-05
2.03078e-05
2.03097e-05
7.90295e-05
5.0722e-05
7.90187e-05
2.03119e-05
3.66958e-05
9.97093e-05
9.43135e-05
4.10339e-05
9.43487e-05
4.1034e-05
3.66969e-05
3.66995e-05
4.10423e-05
9.43794e-05
9.97086e-05
4.10362e-05
9.43447e-05
3.66986e-05
2.0309e-05
5.07141e-05
7.89894e-05
7.9009e-05
2.03069e-05
2.03089e-05
7.90213e-05
5.07182e-05
7.90022e-05
2.0311e-05
3.66948e-05
9.97158e-05
4.10315e-05
9.4318e-05
4.10379e-05
9.43538e-05
3.66955e-05
3.67034e-05
9.43654e-05
4.10428e-05
9.97734e-05
3.67047e-05
9.43992e-05
4.10429e-05
2.03137e-05
5.07296e-05
7.90536e-05
7.90431e-05
2.03158e-05
2.03138e-05
7.90311e-05
5.07296e-05
2.03117e-05
7.90417e-05
3.67084e-05
9.97672e-05
9.44232e-05
4.10473e-05
9.43902e-05
4.10472e-05
3.67072e-05
3.67025e-05
4.10404e-05
9.43699e-05
9.978e-05
3.67033e-05
4.10467e-05
9.44042e-05
2.03128e-05
5.07271e-05
7.90453e-05
7.90266e-05
2.03149e-05
2.0313e-05
7.90146e-05
5.0725e-05
2.03109e-05
7.90335e-05
3.67071e-05
9.97729e-05
4.1051e-05
9.44284e-05
4.10448e-05
9.43947e-05
3.67061e-05
8.14468e-05
2.17009e-05
2.17041e-05
2.16989e-05
2.17021e-05
8.14527e-05
0.000105078
0.00012837
7.78224e-05
4.8621e-05
4.86217e-05
0.000128436
0.000105059
0.000105075
0.0001284
7.7836e-05
4.86295e-05
0.000128465
4.86372e-05
0.000105055
0.000105092
4.86261e-05
7.78282e-05
0.000128511
4.8626e-05
0.000128446
0.000105112
0.000105089
4.86412e-05
7.7841e-05
0.000128539
0.000128476
4.86344e-05
0.000105109
8.14421e-05
2.16969e-05
2.17001e-05
2.1699e-05
2.17022e-05
8.14363e-05
2.38826e-05
2.38829e-05
2.38854e-05
2.38852e-05
8.14631e-05
2.17008e-05
2.1704e-05
8.14571e-05
2.17028e-05
2.17061e-05
0.000105157
0.000128657
7.78608e-05
4.86358e-05
0.000128595
4.86358e-05
0.000105176
0.000105154
0.000128686
7.78739e-05
4.86482e-05
4.86483e-05
0.000128624
0.000105174
0.000105144
4.8631e-05
0.000128521
7.78556e-05
0.000128585
0.000105125
4.86309e-05
0.000105141
4.86423e-05
0.000128551
7.7869e-05
0.000105122
4.86447e-05
0.000128614
8.14671e-05
2.17047e-05
2.1708e-05
2.17027e-05
2.1706e-05
8.14732e-05
2.38877e-05
2.38874e-05
3.66975e-05
9.4383e-05
4.10415e-05
9.97059e-05
9.43571e-05
4.10352e-05
3.67036e-05
2.03103e-05
5.07179e-05
7.90095e-05
7.90285e-05
2.03082e-05
2.03102e-05
7.90409e-05
5.0722e-05
7.90223e-05
2.03123e-05
3.66984e-05
9.97058e-05
9.4331e-05
4.10305e-05
9.43572e-05
4.10371e-05
3.66952e-05
3.66984e-05
9.4366e-05
4.10411e-05
9.96957e-05
9.43388e-05
4.10346e-05
3.66973e-05
2.03086e-05
5.07125e-05
7.89887e-05
7.90078e-05
2.03065e-05
2.03085e-05
7.90203e-05
5.07168e-05
7.90015e-05
2.03106e-05
3.66935e-05
9.96972e-05
9.43125e-05
4.103e-05
9.434e-05
4.10367e-05
3.66944e-05
3.67079e-05
9.43826e-05
4.10394e-05
9.977e-05
3.67008e-05
9.44077e-05
4.10459e-05
2.03141e-05
5.07303e-05
7.90647e-05
7.90466e-05
2.03162e-05
2.03142e-05
7.90346e-05
5.07288e-05
2.03121e-05
7.9053e-05
3.67047e-05
9.97699e-05
9.44319e-05
4.10502e-05
9.44072e-05
4.10439e-05
3.67118e-05
3.67015e-05
9.43646e-05
4.10389e-05
9.97616e-05
3.67024e-05
9.43909e-05
4.10455e-05
2.03124e-05
5.07254e-05
7.90444e-05
7.90261e-05
2.03145e-05
2.03125e-05
7.90139e-05
5.07241e-05
2.03104e-05
7.90326e-05
3.67036e-05
9.97597e-05
9.44154e-05
4.10498e-05
9.43892e-05
4.10433e-05
3.67071e-05
2.38814e-05
2.38817e-05
2.38804e-05
2.38807e-05
8.14632e-05
2.17036e-05
2.17004e-05
8.14572e-05
2.17056e-05
2.17024e-05
0.00010515
0.000128681
7.78694e-05
4.86457e-05
0.00010517
0.000128619
4.86457e-05
0.000105158
0.000128664
7.78643e-05
4.86358e-05
0.000105177
0.000128601
4.86353e-05
0.000105138
4.8641e-05
0.000128545
7.78615e-05
0.000105117
0.000128609
4.86406e-05
0.000105145
4.86288e-05
0.000128528
7.78592e-05
0.000105125
0.000128591
4.86323e-05
8.14674e-05
2.17076e-05
2.17043e-05
8.14733e-05
2.17056e-05
2.17023e-05
2.38865e-05
2.38862e-05
2.38854e-05
2.38852e-05
2.38931e-05
2.3891e-05
0.000105209
0.000128705
4.86536e-05
7.79044e-05
0.00010519
4.86541e-05
0.000128763
0.000105212
0.00012868
4.86372e-05
7.78986e-05
0.000105192
4.86448e-05
0.000128743
8.14885e-05
2.17078e-05
2.17045e-05
8.14826e-05
2.17099e-05
2.17066e-05
2.03165e-05
7.90421e-05
5.07375e-05
2.03145e-05
7.90603e-05
3.67099e-05
9.98427e-05
4.10524e-05
9.44259e-05
4.10527e-05
3.67112e-05
9.44506e-05
0.000105209
0.000128672
4.86408e-05
7.78838e-05
4.86405e-05
0.00010519
0.000128731
0.000105209
0.000128701
4.86483e-05
7.79048e-05
0.000128762
0.000105185
4.86558e-05
8.14865e-05
2.17045e-05
2.17076e-05
2.17066e-05
8.14792e-05
2.17096e-05
2.03165e-05
7.90368e-05
5.07361e-05
2.03144e-05
7.90554e-05
3.67132e-05
9.98382e-05
4.10485e-05
9.44148e-05
4.10548e-05
3.67061e-05
9.44484e-05
3.6716e-05
9.9828e-05
4.10579e-05
9.44379e-05
4.1054e-05
2.03177e-05
7.90548e-05
5.0741e-05
7.90656e-05
2.03156e-05
3.6711e-05
9.98343e-05
9.44146e-05
4.10514e-05
9.44468e-05
3.67122e-05
4.10519e-05
2.03176e-05
3.67146e-05
9.98339e-05
4.10599e-05
9.44758e-05
4.10536e-05
9.44427e-05
3.67137e-05
2.03168e-05
7.90383e-05
5.07375e-05
2.03148e-05
7.90571e-05
3.67099e-05
9.98407e-05
4.10493e-05
9.44189e-05
3.67111e-05
4.10555e-05
9.44523e-05
2.03167e-05
7.90684e-05
5.07365e-05
7.90498e-05
2.03188e-05
0.000105208
0.000128666
4.86408e-05
7.78872e-05
4.86406e-05
0.000105189
0.000128728
0.000105205
0.000128696
4.86532e-05
7.78988e-05
0.000128758
0.000105186
4.8653e-05
8.1483e-05
2.17046e-05
2.17079e-05
2.17067e-05
8.14769e-05
2.17099e-05
2.38921e-05
3.67123e-05
9.98304e-05
9.44787e-05
4.1059e-05
9.44547e-05
4.10526e-05
3.67194e-05
2.03181e-05
7.90585e-05
5.07412e-05
7.90764e-05
2.0316e-05
3.67155e-05
9.98309e-05
9.4431e-05
4.10482e-05
9.44555e-05
3.67084e-05
4.10547e-05
2.0318e-05
7.90875e-05
7.907e-05
2.032e-05
3.67092e-05
9.98205e-05
9.44625e-05
4.10563e-05
9.44369e-05
4.10543e-05
3.67165e-05
2.03164e-05
7.90381e-05
5.07337e-05
2.03143e-05
7.90562e-05
3.67121e-05
9.98224e-05
9.44131e-05
4.10478e-05
3.67058e-05
9.44392e-05
4.10538e-05
2.03163e-05
7.90675e-05
5.07378e-05
7.90497e-05
2.03183e-05
2.38909e-05
2.38912e-05
2.38899e-05
2.38902e-05
0.000199227
0.000199222
0.000204125
0.000200058
0.000200059
0.000189342
0.000188306
0.000137936
0.000160941
0.000160923
0.000180868
0.000161025
0.00016102
0.00013789
0.000202442
0.000202436
0.000193414
0.000192388
0.000138288
0.000161585
0.00016157
0.000181832
0.000138244
0.000161666
0.000161657
0.000137945
0.000160958
0.000160934
0.000180886
0.000161043
0.000161029
0.000137899
0.000138166
0.000181391
0.000161524
0.000161507
0.000161441
0.000161423
0.000138211
0.000137943
0.000160921
0.000160947
0.000180867
0.000161035
0.00016102
0.000137895
0.000138165
0.000181443
0.000161484
0.000161513
0.000161426
0.000161445
0.000138203
0.000137933
0.000160928
0.000160961
0.000180875
0.000161016
0.000161012
0.000137894
0.00013816
0.00018137
0.000161494
0.000161496
0.000161406
0.000161444
0.000138198
0.000138157
0.000181372
0.000161509
0.000161496
0.000138201
0.000161426
0.00016141
0.000138297
0.000161598
0.000161581
0.000181848
0.000138252
0.000161681
0.000161663
0.000138289
0.000161588
0.000161605
0.000181777
0.00016167
0.000138251
0.000161645
0.000138284
0.000161571
0.000161613
0.000181773
0.000161669
0.000138246
0.000161639
0.000199226
0.000199223
0.000204118
0.000200058
0.000200064
0.000189354
0.0001883
0.000199229
0.000199233
0.000204135
0.000200071
0.000200077
0.000189363
0.000188308
0.000199232
0.000199232
0.000204138
0.000200075
0.000200079
0.000189366
0.000188309
0.000204745
0.000201666
0.000201667
0.000200848
0.000200842
0.000190353
0.000191385
0.000204741
0.000201668
0.000201671
0.000200846
0.000200843
0.000190346
0.000191397
0.000204746
0.000201679
0.000201684
0.000200849
0.000200853
0.000190354
0.000191406
0.000204742
0.000201681
0.000201687
0.000200853
0.000200851
0.000190355
0.000191409
0.00017042
0.000137275
0.000175717
0.00014366
0.000137176
0.000175576
0.000170605
0.000160041
0.00014693
0.000103428
0.000122385
0.000147006
0.000122457
0.000159909
0.000160074
0.000122525
0.000103424
0.000147134
0.000147057
0.000122456
0.000160211
0.000170415
0.000143656
0.000137078
0.000175352
0.00013718
0.000175496
0.000170234
0.000170503
0.00017565
0.000137269
0.000143669
0.000175639
0.000137192
0.000170558
0.000159992
0.000146947
0.000103425
0.000122394
0.000146986
0.000122457
0.000159958
0.000160127
0.000122525
0.000103424
0.000147112
0.000147075
0.000122464
0.000160159
0.000170349
0.000143644
0.000175416
0.000137095
0.000175425
0.000137173
0.000170298
0.000137981
0.000180892
0.000161188
0.000161178
0.000161102
0.000161095
0.000138026
0.000202442
0.000202439
0.000203258
0.000193426
0.000192382
0.000202444
0.000202448
0.000203271
0.000193433
0.00019239
0.000202449
0.000202446
0.000206639
0.000203267
0.000203277
0.000193437
0.000192391
0.00017121
0.00014409
0.000137638
0.000176593
0.000137544
0.00017645
0.000171422
0.000160707
0.000147428
0.000122656
0.000103592
0.000160534
0.0001475
0.000122725
0.000171205
0.000144088
0.000137453
0.000176238
0.000171023
0.000137549
0.00017638
0.000171286
0.0001441
0.000176522
0.000137632
0.000176517
0.000137561
0.000171357
0.000160639
0.000147443
0.000122664
0.000103589
0.000160606
0.000147486
0.000122723
0.000171157
0.000144076
0.000176306
0.000137471
0.000171097
0.000176311
0.000137543
0.000160746
0.000122787
0.000122729
0.000160812
0.000138329
0.000181845
0.000161822
0.000161812
0.000161741
0.000161727
0.000138372
0.00013799
0.000180911
0.000161205
0.000161189
0.000138036
0.000161119
0.000161106
0.000138125
0.000181378
0.000161283
0.000161265
0.000138079
0.000161368
0.000161351
0.000170513
0.000137278
0.000175659
0.000143681
0.0001372
0.000175647
0.000170568
0.000159997
0.000146951
0.000103432
0.000122399
0.000122463
0.000146991
0.000159963
0.000160133
0.000122532
0.00010343
0.000147117
0.000122469
0.00014708
0.000160164
0.000170361
0.000143655
0.000137103
0.000175424
0.000137182
0.000175433
0.000170307
0.000170499
0.000137263
0.000175653
0.000143676
0.000137187
0.000175641
0.000170541
0.00015997
0.000146918
0.000103409
0.000122379
0.000122443
0.000146957
0.000159936
0.000160107
0.000122512
0.000103405
0.000147083
0.00012245
0.000160137
0.000147047
0.000170315
0.00014365
0.000137089
0.000175418
0.000137167
0.000175427
0.000170319
0.000170774
0.000137296
0.000175876
0.000143877
0.000170717
0.000137371
0.000175886
0.000160459
0.000147366
0.000103513
0.000122665
0.000147329
0.000122605
0.000160483
0.000160327
0.000122538
0.000147207
0.000103516
0.000147242
0.000160297
0.000122599
0.000170916
0.000143902
0.000137462
0.00017611
0.000137389
0.000176098
0.000170974
0.000170749
0.000137282
0.000175871
0.000143872
0.00017071
0.000137356
0.000175879
0.000160433
0.000147333
0.000103489
0.000122645
0.000122586
0.000147297
0.000160455
0.000160299
0.000122519
0.000147174
0.000103492
0.000160272
0.000122579
0.000147209
0.000170901
0.000143897
0.000137447
0.000176103
0.000137375
0.000176092
0.000170949
0.000137985
0.000180888
0.000161177
0.000161195
0.00016111
0.000161086
0.000138033
0.000138115
0.000181308
0.000161256
0.000161269
0.000161329
0.000138075
0.00016135
0.000170439
0.000137275
0.000175709
0.000143656
0.000137175
0.000175568
0.000170608
0.000160032
0.000146913
0.000103421
0.000122382
0.000122456
0.000146989
0.000159896
0.00016006
0.000122524
0.000103417
0.000147117
0.000122452
0.000147041
0.000160203
0.000170392
0.000143654
0.000137077
0.000175343
0.00013718
0.000175486
0.000170239
0.000170434
0.000175706
0.000137265
0.000143653
0.000175564
0.000137165
0.000170598
0.000160016
0.000146897
0.000103408
0.000122368
0.000122442
0.000146972
0.000159884
0.000160049
0.00012251
0.000103404
0.000147099
0.000122439
0.000160186
0.000147024
0.000170382
0.00014365
0.000175339
0.000137067
0.000175482
0.000137169
0.000170233
0.000170815
0.000137269
0.000175792
0.000143874
0.000170633
0.000137368
0.000175934
0.000160371
0.000147365
0.0001035
0.000122657
0.000147291
0.000122588
0.000160538
0.000160371
0.000122521
0.000147168
0.000103504
0.000147243
0.000160218
0.000122591
0.000170828
0.000143875
0.000137459
0.000176153
0.000137362
0.000176013
0.000171008
0.000170805
0.000175789
0.000137259
0.00014387
0.000170629
0.00017593
0.000137358
0.000160364
0.000147347
0.000103487
0.000122643
0.000122574
0.000147273
0.00016052
0.000160353
0.000122507
0.00014715
0.000103491
0.000160209
0.000122577
0.000147225
0.000170823
0.000143872
0.000176149
0.000137449
0.00017601
0.000137352
0.000171
0.000170421
0.000175717
0.000137275
0.000143661
0.000175576
0.000137175
0.000170605
0.000160034
0.000146919
0.000103418
0.00012238
0.000146995
0.000122453
0.000159901
0.000160066
0.000122521
0.000103415
0.000147122
0.000147046
0.00012245
0.000160204
0.000170413
0.000143658
0.000175352
0.000137077
0.000175495
0.00013718
0.000170234
0.000170816
0.00013727
0.0001758
0.000143876
0.000170629
0.000137368
0.000175941
0.00016039
0.000147382
0.000103508
0.000122658
0.000160545
0.000147308
0.000122592
0.000160378
0.000122525
0.000147184
0.000103511
0.000160235
0.00014726
0.000122593
0.000170828
0.000143878
0.000137458
0.00017616
0.000171008
0.000137363
0.00017602
0.000170815
0.0001758
0.000137269
0.000143877
0.000170627
0.000175941
0.000137367
0.000160381
0.00014737
0.000103498
0.000122654
0.000122586
0.000147297
0.000160538
0.000160371
0.000122519
0.000147173
0.000103502
0.000160226
0.000122588
0.000147249
0.000170827
0.000143879
0.00017616
0.000137459
0.00017602
0.000137362
0.00017101
0.000137984
0.0001809
0.000161181
0.00016119
0.000161127
0.000161081
0.000138024
0.000138112
0.000181362
0.000161259
0.000161285
0.00016134
0.000138074
0.000161344
0.000170495
0.000175648
0.000137256
0.000143663
0.000175636
0.000137179
0.000170538
0.000159976
0.000146924
0.000103412
0.000122378
0.000146963
0.000122442
0.000159942
0.000160112
0.000122511
0.00010341
0.00014709
0.000147052
0.000122448
0.000160143
0.000170314
0.000143638
0.000175413
0.000137082
0.000175422
0.00013716
0.000170318
0.000170765
0.000175868
0.000137288
0.000143865
0.000170706
0.000175878
0.000137362
0.000160454
0.00014736
0.000103507
0.000122658
0.000160477
0.000147323
0.000122599
0.000160321
0.000122533
0.000147202
0.000103509
0.000160291
0.000147237
0.000122593
0.000170905
0.000143889
0.000176099
0.000137452
0.000170962
0.000176087
0.00013738
0.000170749
0.000175863
0.000137273
0.000143859
0.000170698
0.000175874
0.000137348
0.000160438
0.000147337
0.000103493
0.000122643
0.000122584
0.000147301
0.000160461
0.000160305
0.000122517
0.000147179
0.000103496
0.000160276
0.000122578
0.000147215
0.000170896
0.000143883
0.000176092
0.00013744
0.000176082
0.000137366
0.00017095
0.000138114
0.00018136
0.000161267
0.000161254
0.00013807
0.000161352
0.000161339
0.000160641
0.000147451
0.000122671
0.000103597
0.000122732
0.000160617
0.000147489
0.000171172
0.000144091
0.000137479
0.000176309
0.000137554
0.00017111
0.000176325
0.000160614
0.000147418
0.000122652
0.000103574
0.00016059
0.000122712
0.000147456
0.000171149
0.000144087
0.000137465
0.000176303
0.000171093
0.000137538
0.000176318
0.000160697
0.000147413
0.000122653
0.000103586
0.000122722
0.00016052
0.000147485
0.000171205
0.000144086
0.000137454
0.000176231
0.00013755
0.000171028
0.00017637
0.000160679
0.000147395
0.00012264
0.000103571
0.000160512
0.000122708
0.000147469
0.0001712
0.000144082
0.000176228
0.000137444
0.000171019
0.000176366
0.000137539
0.000171216
0.000144091
0.000176592
0.000137638
0.00017645
0.000137543
0.000171423
0.000160699
0.000147426
0.000122651
0.000103583
0.000147486
0.00016053
0.000122719
0.00017121
0.000144089
0.000176238
0.000137453
0.000176377
0.000171028
0.000137549
0.000160675
0.000122784
0.000103578
0.000147608
0.000147535
0.000122716
0.000160854
0.00017128
0.000144094
0.000176517
0.000137618
0.00017651
0.000137546
0.000171345
0.000160622
0.000147425
0.00012265
0.000103576
0.000147459
0.000160598
0.000122709
0.000171146
0.000144071
0.000176301
0.000137457
0.000176308
0.000171089
0.00013753
0.000160748
0.000122772
0.000103574
0.000147585
0.000147545
0.000122715
0.000160777
0.000138645
0.000136838
0.000138655
5.0014e-05
9.38103e-05
2.36115e-05
7.37191e-05
7.37303e-05
2.36127e-05
9.38185e-05
5.0015e-05
2.01025e-05
5.00118e-05
7.60422e-05
7.60027e-05
2.01045e-05
2.36094e-05
9.72717e-05
0.000112649
7.36906e-05
4.79319e-05
0.000112498
4.79233e-05
9.73296e-05
9.72608e-05
0.000112665
7.37019e-05
4.79432e-05
4.79341e-05
0.000112521
9.73194e-05
7.88201e-05
2.14898e-05
2.14928e-05
2.14877e-05
2.14907e-05
7.88438e-05
2.36106e-05
2.01034e-05
5.00129e-05
7.60519e-05
7.60095e-05
2.01055e-05
0.000119513
0.000136521
0.0001299
0.000129906
0.000129639
0.000129649
0.000119606
0.000128565
0.000122126
9.36898e-05
0.000107744
0.000107541
0.000122019
0.000128605
0.000128557
0.000122152
9.3708e-05
0.000107735
0.000122038
0.000107556
0.000128596
0.000123073
0.000139443
0.000139455
0.000137308
0.000125872
0.000142569
0.00014258
0.000139678
0.000128829
0.000145656
0.000145667
0.000142045
0.000131925
0.0001487
0.00014871
0.000144421
0.000135138
0.000151694
0.000151705
0.000146551
0.000138448
0.000154631
0.000154644
0.000148764
0.000141835
0.00015751
0.000157521
0.00015088
0.000145282
0.000160325
0.000160337
0.000152998
0.000148773
0.000163077
0.000163089
0.000155043
0.000152291
0.000165764
0.000165775
0.00015709
0.000155823
0.000168383
0.000168392
0.000159021
0.000159355
0.00017093
0.000170941
0.000160895
0.000162874
0.000173409
0.000173418
0.000162713
0.000166369
0.000175816
0.000175825
0.000164422
0.000169829
0.000178148
0.000178158
0.000166113
0.000173246
0.000180408
0.000180417
0.000167703
0.000176612
0.000182592
0.000182601
0.000169272
0.000179917
0.0001847
0.000184708
0.000170803
0.000183155
0.00018673
0.000186739
0.000172236
0.000186319
0.000188684
0.000188692
0.000173608
0.000189403
0.000190561
0.000190568
0.000174928
0.000192403
0.00019236
0.000192367
0.000176235
0.000195313
0.000194082
0.000194088
0.000177458
0.000198129
0.000195726