/*--------------------------------*- C++ -*----------------------------------*\
| =========                 |                                                 |
| \\      /  F ield         | OpenFOAM: The Open Source CFD Toolbox           |
|  \\    /   O peration     | Version:  2312                                  |
|   \\  /    A nd           | Website:  www.openfoam.com                      |
|    \\/     M anipulation  |                                                 |
\*---------------------------------------------------------------------------*/
FoamFile
{
    version     2.0;
    format      ascii;
    arch        "LSB;label=32;scalar=64";
    class       surfaceScalarField;
    location    "400";
    object      phi;
}
// * * * * * * * * * * * * * * * * * * * * * * * * * * * * * * * * * * * * * //

dimensions      [0 3 -1 0 0 0 0];

oriented        oriented;

internalField   nonuniform List<scalar> 
125567
(
-7.07917e-08
1.31911e-11
-0.000229373
2.03751e-09
3.02994e-08
-6.97835e-09
-1.98784e-08
-9.80213e-05
1.24144e-06
-1.24661e-07
2.696e-07
-2.14409e-07
-1.19307e-06
2.77998e-07
-2.3613e-07
-0.001132
-5.67454e-08
-8.51882e-07
9.11773e-07
2.12154e-08
4.3834e-08
-0.000245496
-1.0299e-07
-1.71212e-08
-1.5432e-09
-0.000250129
4.01464e-09
-1.93862e-07
-3.00325e-09
-1.54783e-07
-9.3775e-07
8.31711e-07
-7.558e-07
1.01201e-06
-0.00115227
-7.07535e-08
-0.000229334
3.02644e-08
2.40793e-09
-4.38538e-08
3.12596e-09
-0.000193606
-0.000250103
-1.93832e-07
4.54364e-09
-5.09431e-08
1.27282e-06
-1.30066e-07
-8.5718e-07
2.69584e-07
9.1703e-07
-2.14419e-07
-1.22734e-06
2.80615e-07
-2.41825e-07
-0.00113151
-1.60501e-07
-9.37806e-07
8.31698e-07
-7.55854e-07
1.012e-06
-0.00115221
2.34544e-08
-1.6999e-08
-0.000245393
-1.02996e-07
-0.000268075
2.42397e-07
2.47251e-07
1.05523e-08
-0.000278172
-4.66148e-08
1.97797e-08
1.08646e-08
-0.000278307
-4.87792e-08
-7.0819e-09
-9.80438e-05
-0.000193663
3.01781e-09
1.20642e-08
-6.42192e-10
0.000143426
-1.57265e-10
-0.000143437
6.37044e-10
-1.07521e-08
1.74189e-10
2.79902e-08
-0.000229392
-0.000223428
2.91893e-08
4.27931e-09
-7.22896e-08
-0.000171132
-4.904e-10
1.77233e-10
8.24342e-10
3.23692e-08
-0.000223448
1.63557e-10
-0.000171144
1.35044e-09
1.67005e-08
7.93031e-05
-7.932e-05
-0.000263328
2.45251e-08
-6.21173e-08
3.26248e-08
-0.000263347
4.93221e-09
1.10885e-08
-9.80373e-05
-9.47792e-10
1.20608e-08
0.000143354
8.81286e-11
-0.000143365
-1.07651e-08
1.13429e-09
2.80049e-08
-0.000229352
-0.000171097
8.12127e-12
-0.000223329
2.90843e-08
4.59697e-09
-6.97522e-08
-0.000171109
1.11384e-09
2.99611e-08
-0.000223347
1.62734e-09
1.68905e-08
7.92584e-05
-7.92752e-05
-0.0002632
2.41964e-08
-5.95242e-08
-3.98793e-09
2.21973e-08
-0.00019362
3.03465e-08
-0.000263216
-6.8198e-09
-6.98734e-09
0.000213794
1.19788e-08
9.72873e-09
-0.000213802
-8.05474e-05
-1.24536e-08
-1.19982e-08
-8.05711e-05
-1.22343e-08
-1.22126e-08
9.36999e-09
-8.05636e-05
9.19676e-09
-8.05873e-05
-2.725e-08
-2.53705e-08
-1.39436e-08
1.54277e-08
0.000221875
2.85004e-08
-0.000221893
-0.000183025
-3.14818e-08
-7.2851e-09
1.9875e-08
1.1928e-08
-0.000278185
-0.000250578
3.63409e-08
-5.53209e-08
-1.00295e-07
-0.000183037
3.15781e-08
6.06006e-08
-0.000250635
-5.80078e-08
1.5253e-08
-1.40289e-08
0.000221963
3.07464e-08
-0.000221986
-0.000183107
-3.13466e-08
2.21929e-08
-6.97477e-09
-1.12855e-08
9.27454e-09
-0.00027832
-0.000250751
3.66124e-08
-5.29181e-08
-1.00219e-07
2.88454e-08
6.06173e-08
-0.000250803
-0.000183119
-5.99432e-08
4.7596e-09
-9.80599e-05
2.22514e-08
-0.000193676
-4.17168e-09
2.38487e-09
-0.00121556
-1.0084e-07
-7.60585e-08
-0.00118361
-1.04954e-07
-0.00121468
-1.1873e-07
6.34785e-08
-0.000245531
3.59445e-09
-0.000260375
-2.78311e-08
-0.000260505
7.55031e-09
-1.52267e-07
1.51131e-09
0.000265675
-1.04426e-08
-0.000266451
4.72891e-10
1.31322e-07
4.26315e-10
-0.000250233
-0.000249562
-2.12451e-07
1.03815e-08
-0.000265849
7.07511e-09
-6.51517e-09
8.32305e-10
-0.000249682
3.96001e-09
-0.000266476
2.71704e-08
-1.38365e-07
0.000264
-0.000264716
-0.000250759
-1.86766e-07
-0.000250858
-2.4382e-09
-1.49685e-07
0.000265605
2.49994e-09
-0.000266394
1.31348e-07
1.6013e-09
-0.000250207
-0.000265832
5.76111e-09
-0.000249476
-2.12353e-07
1.06501e-08
-0.000266455
1.03543e-09
-0.000249595
1.45335e-08
-1.35988e-07
0.000263899
-7.73814e-09
-0.00026461
-0.000250654
-1.89169e-07
3.75308e-09
6.10527e-08
-0.000245424
-2.77438e-08
-0.000260268
-0.000250755
-0.000260398
7.42589e-08
7.69969e-08
0.000242882
-0.000242974
-2.02626e-07
-1.97591e-07
-0.000270095
-0.000261129
1.12939e-07
-0.000260782
1.10474e-07
-0.000261086
-0.000261431
1.20503e-07
1.20946e-07
-7.1608e-08
-7.16028e-08
0.00118444
-0.00118454
-1.19645e-06
-1.20988e-07
-5.50361e-08
0.00113223
-2.3661e-07
1.24152e-06
2.75221e-07
9.11683e-07
-2.14856e-07
2.69603e-07
-8.52495e-07
-0.00113225
-1.19376e-06
-1.2084e-07
-4.9466e-08
0.00113208
-2.33845e-07
1.23879e-06
2.75262e-07
9.11606e-07
-2.14954e-07
2.69575e-07
-8.52537e-07
-0.00113211
1.22506e-06
1.18848e-06
-1.97773e-07
-2.00477e-07
0.000268042
-0.000270058
1.2353e-07
1.29848e-07
-0.00118415
-7.51514e-08
-7.50219e-08
-0.00113214
-1.19595e-06
-1.24169e-07
-3.96152e-08
-2.36285e-07
1.24141e-06
2.75136e-07
9.11729e-07
-2.14434e-07
-8.5186e-07
2.69652e-07
-0.00113201
-1.19319e-06
-1.23929e-07
-6.7619e-08
-2.36222e-07
1.23875e-06
2.75265e-07
9.11732e-07
-2.14517e-07
-8.52021e-07
2.69594e-07
-0.000270062
1.22715e-06
1.18263e-06
-1.92305e-07
-2.02721e-07
0.000268047
1.23588e-06
1.19402e-06
-1.95293e-07
-2.03016e-07
0.000268096
-0.000270127
-1.28091e-06
-1.2389e-06
0.000270132
-0.000268099
2.3959e-07
2.47589e-07
-4.92893e-08
0.00113166
-2.39316e-07
1.2809e-06
2.77868e-07
9.14348e-07
-2.12203e-07
2.66762e-07
-8.55313e-07
-0.00113169
-1.23334e-06
-1.2057e-07
-4.92522e-08
0.00113173
-2.42215e-07
1.27833e-06
2.80689e-07
9.19524e-07
-2.14906e-07
2.69482e-07
-8.60415e-07
-0.00113176
0.00113159
-1.22873e-07
-0.00113162
-5.03946e-08
-1.23545e-06
2.77883e-07
-2.39004e-07
-8.54907e-07
2.66793e-07
-2.1187e-07
9.14433e-07
1.2756e-06
0.00113166
-1.23072e-07
-0.00113168
-5.03597e-08
-1.23291e-06
2.77942e-07
-2.41904e-07
-8.59971e-07
2.69548e-07
-2.1453e-07
9.1698e-07
-1.97939e-07
-2.00351e-07
0.000268081
-0.000270113
-1.24147e-06
0.000270115
-0.000268085
2.42401e-07
2.44819e-07
-4.92108e-08
0.00113267
-2.36802e-07
1.23894e-06
2.75299e-07
9.17047e-07
-2.14912e-07
2.69703e-07
-8.57801e-07
-0.00113269
-1.22798e-06
-1.20567e-07
-4.92042e-08
0.0011316
-2.42258e-07
1.27283e-06
2.8063e-07
9.16913e-07
-2.12255e-07
2.66809e-07
-8.57895e-07
-0.00113163
0.00113259
-1.2345e-07
-0.00113261
-5.01297e-08
-1.19363e-06
2.75248e-07
-2.36558e-07
-8.57351e-07
2.69778e-07
-2.14535e-07
9.17167e-07
1.27284e-06
0.00113153
-1.28659e-07
-0.00113155
-5.02759e-08
-1.22757e-06
2.80618e-07
-2.41969e-07
-8.5745e-07
2.6686e-07
-2.1189e-07
9.1701e-07
-1.20817e-07
-4.92094e-08
0.00113124
-2.39327e-07
1.26997e-06
2.77809e-07
9.08853e-07
-2.09398e-07
2.64093e-07
-8.49749e-07
-0.00113126
-1.23526e-07
-0.00113217
-4.48521e-08
-1.19606e-06
2.75191e-07
-2.36344e-07
-8.5201e-07
2.69675e-07
9.11838e-07
-2.14476e-07
1.26996e-06
0.00113116
-1.22934e-07
-0.00113118
-5.02414e-08
-1.22465e-06
2.77813e-07
-2.39074e-07
-8.49362e-07
2.66791e-07
-2.09106e-07
9.08911e-07
-1.97991e-07
-2.03032e-07
0.000268065
-0.000270086
-1.23876e-06
0.000270094
-0.000268072
2.4247e-07
2.47309e-07
-1.20861e-07
-4.9304e-08
0.00113223
-2.36727e-07
1.23346e-06
2.75281e-07
9.141e-07
-2.14891e-07
2.69615e-07
-8.54884e-07
-0.00113225
-1.23181e-07
-0.00113203
-5.60685e-08
-1.19063e-06
2.75254e-07
-2.36313e-07
-8.52148e-07
2.69599e-07
9.11745e-07
-2.1461e-07
1.23339e-06
0.00113213
-1.23347e-07
-0.00113217
-3.3429e-08
-1.18808e-06
2.7519e-07
-2.36461e-07
-8.54517e-07
2.69631e-07
-2.14529e-07
9.14294e-07
-0.000268046
2.42158e-07
2.44909e-07
1.23532e-06
1.19352e-06
-1.95008e-07
-2.02666e-07
0.000268101
-5.63133e-08
-2.38932e-07
1.2809e-06
2.77897e-07
9.14392e-07
-2.14516e-07
-8.54786e-07
2.69467e-07
-1.23009e-06
-1.23502e-07
-4.50086e-08
-2.39091e-07
1.27558e-06
2.7792e-07
9.16943e-07
-2.14488e-07
-8.57225e-07
2.69498e-07
-1.97643e-07
-2.00038e-07
0.000268086
-5.03961e-08
-2.36488e-07
1.23888e-06
2.75214e-07
9.17189e-07
-2.14434e-07
-8.57226e-07
2.69785e-07
-1.22748e-06
-1.29408e-07
-5.06279e-08
-2.41896e-07
1.27283e-06
2.80624e-07
9.17041e-07
-2.11803e-07
-8.57335e-07
2.69569e-07
-1.46649e-07
-4.48931e-08
0.00113115
-2.41697e-07
1.26993e-06
2.80631e-07
9.11686e-07
-2.11686e-07
2.69523e-07
-8.49203e-07
-1.97666e-07
-2.02702e-07
0.000268073
-1.23922e-07
-1.64767e-08
0.00113206
-2.30927e-07
1.23876e-06
2.75223e-07
9.1435e-07
-2.144e-07
2.6963e-07
-8.54422e-07
-1.49015e-10
-7.07424e-08
0.000229345
3.03248e-08
2.07162e-09
-0.000229306
-4.95009e-09
2.2289e-08
0.00019358
-3.933e-09
-0.000193594
6.94059e-09
-4.39641e-08
0.000193634
3.22515e-09
-0.000193601
3.72977e-11
2.83198e-08
0.000229287
-1.08573e-08
1.26932e-09
-0.000229306
5.05958e-09
1.33482e-08
9.79722e-05
-9.79906e-05
-6.85675e-09
-2.23902e-08
9.80123e-05
-9.7983e-05
-7.07344e-08
-5.10079e-11
0.000229332
1.8581e-09
3.03183e-08
-0.000229293
-5.19504e-09
2.21759e-08
0.000193562
-3.58294e-09
-0.000193576
6.71268e-09
-4.411e-08
0.000193617
3.59843e-09
-0.000193583
2.83544e-08
2.30806e-10
0.000229274
1.12125e-09
-1.08761e-08
-0.000229293
-7.17015e-08
-7.16392e-08
0.00118421
-0.00118431
-7.16712e-08
-7.16968e-08
0.00118397
-0.00118407
-7.16388e-08
-7.18488e-08
0.00118395
-0.00118404
-0.00118425
-8.01624e-08
-6.83824e-08
0.00118391
-0.00118402
-7.44287e-08
-6.85697e-08
0.00118369
-0.00118379
-7.43834e-08
-8.01797e-08
0.00118364
-0.00118375
-7.43354e-08
-6.28302e-08
7.06294e-08
-1.52699e-09
0.000250189
3.8524e-09
-1.9362e-07
-0.000250069
-1.20784e-08
-2.21675e-08
6.60041e-08
0.00024541
6.38927e-09
-0.000245448
0.00115235
3.6446e-09
-1.41422e-07
1.0061e-06
-7.51613e-07
8.28404e-07
-9.30853e-07
-0.00115242
-4.41259e-08
1.2415e-06
0.00113219
-1.21892e-07
-8.52296e-07
2.69637e-07
-2.14709e-07
9.11767e-07
-1.19631e-06
2.75225e-07
-2.36509e-07
2.33742e-08
4.40179e-08
0.000245487
-1.93335e-08
-0.00024543
-1.05541e-07
-3.36333e-09
0.00115231
-1.43111e-07
-9.33218e-07
8.25809e-07
-7.54028e-07
1.00353e-06
-2.81991e-08
1.54855e-09
0.000250056
2.24792e-09
1.32001e-07
-0.000250163
5.09546e-09
1.09889e-08
9.7967e-05
-9.79831e-05
-6.85746e-09
-2.00712e-08
9.80048e-05
-9.79779e-05
-9.46695e-10
7.05865e-08
0.000250178
-1.93571e-07
4.04187e-09
-0.000250058
0.00115217
3.06672e-09
-1.41268e-07
1.00608e-06
-7.54434e-07
8.28353e-07
-9.3364e-07
-0.00115223
-1.19184e-08
-2.22791e-08
6.37219e-08
0.000245401
3.85661e-09
-0.000245434
-4.97698e-08
1.23608e-06
0.00113205
-1.2165e-07
-8.52419e-07
2.69579e-07
-2.14828e-07
9.11681e-07
-1.19091e-06
2.7527e-07
-2.36504e-07
-4.91339e-09
0.00115213
-1.42859e-07
-9.33355e-07
8.28481e-07
-7.54123e-07
1.00618e-06
2.34675e-08
4.39411e-08
0.000245473
-1.70232e-08
-0.00024542
-1.03069e-07
7.01431e-10
-2.82694e-08
0.000250045
1.32091e-07
2.46116e-09
-0.000250152
1.20404e-08
-1.10652e-08
2.44958e-08
0.00027812
-6.87608e-09
-0.000278138
1.21406e-08
-1.095e-08
2.21525e-08
0.000278045
-7.51365e-09
-0.000278061
-1.26997e-06
-1.23345e-06
0.000270059
-0.000268043
2.42233e-07
2.44982e-07
-2.33997e-08
2.00695e-08
0.00027819
1.00979e-08
-0.000278146
-5.1343e-08
-2.33359e-08
2.01528e-08
0.000278113
1.0496e-08
-0.000278071
-4.90884e-08
-0.000193675
-4.75998e-09
2.22846e-08
-4.1606e-09
0.000193662
-0.000229385
-9.62579e-12
2.80337e-08
0.000229366
-1.0757e-08
1.35707e-09
-9.8034e-05
4.92469e-09
1.34409e-08
9.80156e-05
-0.000193658
-5.13637e-09
2.21048e-08
-3.6223e-09
0.000193644
-0.000229372
2.80577e-08
3.01796e-10
0.000229353
8.6858e-10
-1.07731e-08
-6.36002e-08
-5.18951e-08
-7.52632e-08
-9.84681e-08
-4.00173e-08
-4.60526e-08
0.00118346
7.06639e-08
-8.00244e-10
-0.000250125
3.10982e-09
-1.93799e-07
-0.000245523
-1.19376e-08
-2.21004e-08
6.57904e-08
3.81828e-09
0.000245488
0.00115214
-0.00115219
1.37279e-08
-1.53383e-07
1.00648e-06
-7.53257e-07
-9.32512e-07
8.28834e-07
-0.000250216
-2.79036e-08
1.76742e-09
0.000250109
2.03411e-09
1.31359e-07
2.56659e-08
-1.7219e-07
-9.32255e-07
8.31709e-07
-7.52967e-07
1.00937e-06
-9.80265e-05
4.96302e-09
1.10721e-08
9.80105e-05
-1.82681e-09
7.06194e-08
-0.000250113
-1.93714e-07
4.36383e-09
0.00115198
-0.00115203
-2.27521e-08
-1.47459e-07
1.00642e-06
-7.53365e-07
-9.32653e-07
8.28761e-07
-0.000245512
-1.17209e-08
-2.22487e-08
6.35089e-08
3.65434e-09
0.000245479
-0.000250205
1.67874e-10
-2.79818e-08
0.000250099
1.31455e-07
2.57262e-09
-5.81824e-08
-1.54721e-07
-9.32414e-07
8.28848e-07
-7.50376e-07
1.00649e-06
-0.000278243
1.18765e-08
-1.11931e-08
2.21935e-08
-6.67303e-09
0.000278226
-0.000278165
1.20282e-08
-1.09965e-08
2.20831e-08
-7.40586e-09
0.000278149
-1.26511e-06
-1.30837e-06
-0.000268068
2.54985e-07
2.42384e-07
-2.35168e-08
1.98442e-08
1.07736e-08
-0.000278255
-4.88512e-08
-2.33476e-08
2.00163e-08
1.05471e-08
-0.000278175
-4.90007e-08
1.12018e-08
9.79948e-05
-9.80109e-05
-2.00328e-08
9.80326e-05
-9.80056e-05
1.09311e-08
9.79837e-05
-9.79998e-05
-2.02564e-08
9.80215e-05
-9.79945e-05
1.18968e-08
2.45566e-08
0.000278169
-9.30224e-09
-0.000278185
9.79333e-09
2.43866e-08
0.000278101
-7.03766e-09
-0.000278117
0.000270129
-1.28091e-06
-1.23893e-06
-0.000268097
2.39676e-07
2.47636e-07
0.000278237
-2.34514e-08
1.27744e-08
-0.000278195
-5.12749e-08
0.000278169
-2.08684e-08
9.82196e-09
-0.000278127
-5.14197e-08
-1.99061e-08
-7.0213e-09
9.80542e-05
-9.80273e-05
1.12752e-08
4.85616e-09
9.80165e-05
-2.01929e-08
-6.73267e-09
9.80432e-05
-9.80162e-05
1.09413e-08
5.16156e-09
9.80054e-05
1.2356e-06
1.19376e-06
0.000268098
-1.95143e-07
-2.02836e-07
-2.35175e-08
0.000278289
-5.11853e-08
-0.000278247
1.28793e-08
-2.08603e-08
0.000278221
-5.13791e-08
-0.000278179
9.83301e-09
1.17798e-08
-9.17194e-09
2.45637e-08
0.000278221
9.74927e-09
-7.00302e-09
2.43494e-08
0.000278153
-7.07539e-08
0.000229305
3.03298e-08
2.16811e-09
-0.000229267
2.44215e-08
0.000193517
-3.9019e-09
-0.000193532
-4.62209e-08
0.000193573
3.49841e-09
-0.000193537
2.83165e-08
0.000229247
-1.08522e-08
9.63903e-10
-0.000229265
-9.13155e-10
0.000250203
3.22527e-09
-1.93687e-07
-0.000250082
6.60849e-08
0.000245412
3.8343e-09
-0.000245447
0.00115264
3.4912e-09
-1.41141e-07
1.00901e-06
-7.5719e-07
8.31197e-07
-9.36481e-07
-0.00115269
-4.96798e-08
0.00113164
-1.21348e-07
-1.23574e-06
2.77877e-07
-2.39214e-07
-8.55167e-07
2.6678e-07
-2.1208e-07
9.14382e-07
0.000245486
-1.69972e-08
-0.000245431
-1.05436e-07
-4.01619e-09
0.00115259
-1.42815e-07
-9.36209e-07
8.31332e-07
-7.5688e-07
1.00913e-06
8.22988e-10
0.000250069
2.98236e-09
1.32094e-07
-0.000250177
0.000250175
4.81129e-09
-1.937e-07
-0.000250058
-1.19631e-08
6.60502e-08
0.00024531
3.83034e-09
-0.000245343
0.00115258
-1.41165e-07
1.01424e-06
-7.57158e-07
8.31179e-07
-9.4167e-07
-0.00115263
-4.96732e-08
0.00113171
1.27832e-06
-1.21535e-07
-8.60251e-07
2.69518e-07
9.19569e-07
-2.14758e-07
-1.23318e-06
2.80693e-07
-2.42092e-07
0.000245382
2.3292e-08
-1.68199e-08
-0.000245329
-1.05471e-07
0.00115252
-1.42858e-07
-9.41393e-07
8.3131e-07
-7.56847e-07
1.01434e-06
0.000250045
1.24942e-09
1.32094e-07
-0.000250149
1.79315e-11
2.81698e-08
-1.08042e-08
1.31239e-09
0.000229326
-4.39029e-08
-0.000193641
3.11026e-09
2.22842e-08
-4.04421e-09
0.000193621
-1.76233e-10
-7.0759e-08
-0.000229346
3.03047e-08
2.10353e-09
2.81644e-08
-1.07989e-08
9.75494e-10
0.000229286
-4.61642e-08
6.90398e-09
0.000193614
-0.000193578
3.42753e-09
2.44052e-08
-4.99377e-09
-3.97051e-09
0.000193557
-7.0772e-08
0.000229344
-0.000229306
3.03109e-08
2.17058e-09
7.9856e-10
3.03339e-09
1.31765e-07
0.000250096
-5.56134e-08
-1.2208e-07
1.28091e-06
-2.3911e-07
2.77874e-07
9.14403e-07
-2.11981e-07
2.66778e-07
-8.55038e-07
0.000245525
-1.05384e-07
-0.00024547
-1.70602e-08
-0.00115252
-4.95932e-09
0.00115247
-1.45895e-07
-9.35702e-07
8.31532e-07
-7.56354e-07
1.0093e-06
3.72776e-09
6.59842e-08
0.00024545
3.03149e-09
-1.44324e-07
1.00919e-06
-7.56634e-07
-9.35979e-07
8.31412e-07
-9.66692e-10
0.000250229
-0.000250109
3.50072e-09
-1.93764e-07
1.267e-09
1.31766e-07
0.000250071
-4.99234e-08
-1.23307e-06
-1.22137e-07
9.19584e-07
-2.14683e-07
-8.60143e-07
2.69503e-07
1.2783e-06
-2.42027e-07
2.80682e-07
2.33391e-08
0.00024542
-1.05432e-07
-0.000245368
-1.68555e-08
-0.00115247
0.00115241
-1.45922e-07
-9.40877e-07
8.31516e-07
-7.56315e-07
1.0118e-06
-1.18765e-08
3.74424e-09
6.59442e-08
0.000245348
-1.44356e-07
1.01443e-06
-7.56596e-07
-9.41122e-07
8.31398e-07
0.000250202
-0.000250084
4.57979e-09
-1.93787e-07
2.21463e-08
0.000278044
-7.46815e-09
-0.000278057
-1.10058e-08
2.44599e-08
0.000278184
-6.9213e-09
-0.000278202
0.000270115
-0.000268082
2.42498e-07
2.4488e-07
0.000278109
1.0622e-08
-0.00027807
-4.90038e-08
2.01432e-08
0.000278255
1.00229e-08
-0.00027821
-5.14226e-08
5.14846e-09
9.79904e-05
-9.80065e-05
9.80282e-05
-6.84902e-09
-9.80012e-05
-2.22951e-08
-9.80048e-05
1.33951e-08
9.79939e-05
1.1962e-06
0.000268083
-1.97796e-07
-2.00193e-07
0.000278161
-4.89251e-08
-0.000278122
1.06883e-08
2.00461e-08
-2.33896e-08
0.000278307
-5.13494e-08
-0.000278262
1.00725e-08
-7.37652e-09
2.21385e-08
0.000278096
-1.10315e-08
1.20063e-08
-6.85982e-09
2.44387e-08
0.000278236
-6.89455e-09
9.80499e-05
-9.8023e-05
5.08915e-09
9.80121e-05
-1.60858e-09
0.000250196
3.79254e-09
-1.96281e-07
-0.000250073
6.36461e-08
0.000245375
6.51064e-09
-0.000245413
0.00115247
3.72656e-09
-1.41253e-07
1.01154e-06
-7.5717e-07
8.31163e-07
-9.3902e-07
-0.00115253
-4.95282e-08
0.00113264
-1.21839e-07
-1.19389e-06
2.75286e-07
-2.36714e-07
-8.57643e-07
2.69736e-07
-2.14775e-07
9.17093e-07
0.000245452
-1.92629e-08
-0.000245394
-1.03223e-07
-3.53655e-09
0.00115242
-1.42884e-07
-9.38731e-07
8.31296e-07
-7.56855e-07
1.01166e-06
1.71488e-09
0.000250059
2.16951e-09
1.34711e-07
-0.00025017
-7.07008e-08
0.000229292
3.02921e-08
2.32048e-09
-0.000229254
2.22378e-08
0.000193504
-3.79044e-09
-0.000193517
-4.39495e-08
0.000193558
3.32101e-09
-0.000193525
2.83628e-08
0.000229234
-1.08807e-08
1.00346e-09
-0.000229253
0.000250166
-1.96257e-07
4.45132e-09
-0.000250046
0.00115241
-1.41198e-07
1.01155e-06
-7.57216e-07
8.31162e-07
-9.39062e-07
-0.00115246
-1.21325e-08
6.13103e-08
0.000245296
3.96889e-09
-0.000245327
-4.95764e-08
0.00113158
1.27284e-06
-1.21361e-07
-8.57733e-07
2.66833e-07
9.16949e-07
-2.12122e-07
-1.22785e-06
2.80628e-07
-2.42172e-07
0.00115235
-1.42778e-07
-9.38782e-07
8.31288e-07
-7.56906e-07
1.01166e-06
0.000245365
2.33744e-08
-1.69307e-08
-0.000245315
-1.00635e-07
0.000250033
1.34738e-07
1.71499e-09
-0.00025014
2.81977e-08
2.65135e-10
1.10882e-09
-1.08239e-08
0.000229313
-4.40923e-08
-0.000193624
3.57768e-09
2.21327e-08
-3.6025e-09
0.000193603
-7.07694e-08
-1.82081e-11
-0.000229333
2.05762e-09
3.03115e-08
1.74471e-09
2.17315e-09
1.31778e-07
0.000250089
-4.985e-08
-1.22597e-07
1.23892e-06
-2.36637e-07
2.75265e-07
9.17123e-07
-2.14659e-07
2.69751e-07
-8.57499e-07
0.000245491
-1.03209e-07
-0.000245433
-1.92599e-08
-0.00115236
-3.29945e-09
0.00115232
-1.51856e-07
-9.38214e-07
8.31519e-07
-7.56309e-07
1.01186e-06
6.46899e-09
6.35095e-08
0.000245414
3.87725e-09
-1.44491e-07
1.01175e-06
-7.56605e-07
-9.38491e-07
8.31399e-07
-1.57711e-09
0.000250223
-0.000250102
4.0237e-09
-1.93783e-07
2.82092e-08
-1.08318e-08
1.05323e-09
0.000229274
-4.39069e-08
6.91772e-09
0.000193599
-0.000193565
3.22421e-09
2.22155e-08
-5.02961e-09
-3.86972e-09
0.000193545
-7.07332e-08
0.000229332
-0.000229294
3.02822e-08
2.36201e-09
1.31809e-07
1.7672e-09
0.000250062
-4.99494e-08
-1.22771e-06
-1.22207e-07
9.16975e-07
-2.12009e-07
-8.57593e-07
2.66845e-07
1.27285e-06
-2.42066e-07
2.80625e-07
-0.0011523
0.00115225
-1.51721e-07
-9.38265e-07
8.31506e-07
-7.56361e-07
1.01184e-06
2.34204e-08
0.000245404
-1.00608e-07
-0.000245354
-1.69816e-08
-1.44435e-07
1.01175e-06
-7.56654e-07
-9.38534e-07
8.3139e-07
-1.20499e-08
3.87791e-09
6.11884e-08
0.000245335
0.000250193
-0.000250076
-1.93755e-07
4.49166e-09
-1.87024e-11
0.000229328
2.09779e-09
3.23852e-08
-0.000229292
0.000193567
-3.59146e-09
-0.00019358
0.000193621
3.33041e-09
-0.000193587
6.15912e-11
0.000229272
1.05038e-09
-1.29143e-08
-0.000229289
7.06838e-08
0.000250157
-1.91039e-07
4.64145e-09
-0.000250043
0.00115227
-1.41462e-07
1.0061e-06
-7.54377e-07
8.28424e-07
-9.33518e-07
-0.00115232
-2.2198e-08
6.59771e-08
0.000245332
3.95035e-09
-0.000245368
-4.95244e-08
0.00113121
-1.15738e-07
-1.22493e-06
2.778e-07
-2.39265e-07
-8.49626e-07
2.6409e-07
-2.09304e-07
9.08873e-07
0.0011522
-1.37155e-07
-9.33214e-07
8.28544e-07
-7.54067e-07
1.00619e-06
4.39674e-08
0.000245406
-1.69414e-08
-0.000245351
-1.05427e-07
-2.8274e-08
0.00025003
1.29447e-07
1.47351e-09
-0.000250131
0.000229291
3.02933e-08
2.29157e-09
-0.000229253
-5.05304e-09
0.00019351
-3.77618e-09
-0.000193524
0.000193564
6.87681e-09
3.31386e-09
-0.000193531
0.000229233
-1.08459e-08
9.35519e-10
-0.000229251
-2.80483e-08
1.59097e-09
2.25844e-09
1.31671e-07
0.000250082
-5.56921e-08
-1.22607e-07
1.24148e-06
-2.36436e-07
2.75194e-07
9.11755e-07
-2.14617e-07
-8.52205e-07
2.6964e-07
4.39892e-08
-1.05527e-07
-0.000245468
-1.69151e-08
-0.00115224
-5.16507e-10
-1.46217e-07
-9.32715e-07
8.28753e-07
1.00644e-06
-7.53486e-07
-2.21254e-08
6.31775e-09
6.58809e-08
0.000245449
4.46804e-09
-1.44636e-07
1.00627e-06
-7.51052e-07
-9.30311e-07
8.28623e-07
7.06526e-08
-1.39356e-09
-0.000250095
3.61008e-09
-1.93713e-07
8.77171e-11
1.05593e-09
-1.28596e-08
0.000229312
0.000193662
-0.000193628
3.27992e-09
-3.64679e-09
0.000193607
4.11235e-11
0.000229368
-0.000229332
1.86978e-09
3.2367e-08
-2.81321e-08
1.29118e-07
1.51617e-09
0.000250056
-4.99216e-08
-1.22477e-06
-1.28112e-07
9.08924e-07
-2.09154e-07
-8.49454e-07
2.64119e-07
1.26997e-06
-2.3914e-07
2.77803e-07
-0.00115216
0.00115211
-1.46049e-07
-9.32723e-07
8.28751e-07
-7.5353e-07
1.00636e-06
4.39234e-08
2.34875e-08
0.000245445
-1.02999e-07
-0.000245393
-1.6983e-08
-1.50488e-07
1.00627e-06
-7.53813e-07
-9.32981e-07
8.2864e-07
-2.21798e-08
-1.19315e-08
3.84516e-09
6.58593e-08
0.000245371
7.0712e-08
0.000250186
-0.000250069
-1.93728e-07
4.44549e-09
-1.07968e-08
9.77286e-10
0.000229273
6.94349e-09
0.000193605
-0.000193572
3.21784e-09
-4.96733e-09
-3.87814e-09
0.000193551
0.000229331
-0.000229293
3.02776e-08
2.3258e-09
1.99178e-08
0.000278041
-7.48192e-09
-0.000278055
-1.11463e-08
2.22753e-08
0.000278177
-9.8471e-09
-0.00027819
0.000270088
-0.000268069
2.42525e-07
2.4738e-07
0.000278107
1.04492e-08
-0.000278067
-4.67463e-08
1.99946e-08
0.000278242
1.32948e-08
-0.000278203
-4.90073e-08
4.98212e-09
9.79896e-05
-9.80057e-05
9.80274e-05
-6.94296e-09
-9.80005e-05
-1.99793e-08
-9.79996e-05
1.10329e-08
9.79887e-05
1.19077e-06
0.00026807
-1.9782e-07
-2.02856e-07
0.000278159
-4.66893e-08
-0.000278119
1.0507e-08
1.98805e-08
-2.35263e-08
0.000278294
-4.89349e-08
-0.000278255
1.33915e-08
-7.39791e-09
1.98982e-08
0.000278093
-1.1202e-08
1.18193e-08
-9.75016e-09
2.2273e-08
0.000278229
-7.01455e-09
9.8049e-05
-9.80221e-05
4.88987e-09
9.80113e-05
7.05381e-08
0.000250151
-1.93561e-07
5.00947e-09
-0.000250034
0.0011521
-1.4128e-07
1.00853e-06
-7.54377e-07
8.28317e-07
-9.36048e-07
-0.00115215
-2.21602e-08
6.36212e-08
0.000245299
4.05387e-09
-0.000245333
-4.96144e-08
0.0011322
-1.21745e-07
-1.18834e-06
2.75268e-07
-2.36627e-07
-8.54739e-07
2.69614e-07
-2.14769e-07
9.14199e-07
0.00115204
-1.42877e-07
-9.35733e-07
8.28449e-07
-7.54057e-07
1.00864e-06
4.40445e-08
0.000245371
-1.68923e-08
-0.000245318
-1.03141e-07
-2.8194e-08
0.000250021
1.32054e-07
9.34941e-10
-0.000250125
-2.95025e-10
0.00022932
2.44913e-09
3.23514e-08
-0.000229283
0.000193561
-3.89814e-09
-0.000193574
0.000193615
3.22425e-09
-0.000193581
5.25724e-11
0.000229264
9.4988e-10
-1.29513e-08
-0.00022928
0.00022928
2.14423e-09
3.44486e-08
-0.000229246
-5.17948e-09
0.000193502
-3.56935e-09
-0.000193516
0.000193557
6.79885e-09
3.46508e-09
-0.000193523
0.000229226
8.30235e-10
-1.50223e-08
-0.00022924
5.98199e-10
-2.81176e-08
1.31754e-07
2.2789e-09
0.000250072
-5.0174e-08
-1.22447e-07
1.23609e-06
-2.36412e-07
2.75267e-07
9.11712e-07
-2.14722e-07
-8.52282e-07
2.69588e-07
-0.00115207
-1.33947e-08
-1.45928e-07
-9.3285e-07
8.28681e-07
1.00637e-06
-7.53589e-07
4.38904e-08
-1.03027e-07
-0.000245459
-1.70825e-08
1.17821e-10
-1.4448e-07
1.00626e-06
-7.53868e-07
-9.33118e-07
8.28573e-07
-2.22571e-08
3.75695e-09
6.36061e-08
0.00024544
-1.32688e-09
7.06077e-08
-0.000250085
-1.93651e-07
4.32003e-09
-2.80408e-08
1.31718e-07
7.04344e-10
0.000250048
-5.00074e-08
-1.18823e-06
-1.22507e-07
9.14232e-07
-2.14631e-07
-8.5464e-07
2.69627e-07
1.23342e-06
-2.36552e-07
2.75248e-07
-0.00115199
0.00115194
-1.45939e-07
-9.35235e-07
8.2868e-07
-7.53507e-07
1.00886e-06
4.40326e-08
2.33381e-08
0.00024541
-1.03119e-07
-0.000245357
-1.6907e-08
-1.44472e-07
1.00872e-06
-7.53809e-07
-9.3551e-07
8.28545e-07
-2.2122e-08
-1.2083e-08
3.99674e-09
6.3492e-08
0.000245338
7.05626e-08
0.000250178
-0.000250061
-1.93659e-07
4.76347e-09
-4.43037e-12
1.00226e-09
-1.29006e-08
0.000229303
0.000193656
-0.000193622
3.11857e-09
-4.00597e-09
0.000193602
-4.31833e-10
0.000229359
-0.000229323
2.48921e-09
3.23377e-08
6.06103e-10
-1.49714e-08
0.000229266
6.84143e-09
0.000193597
-0.000193564
3.42266e-09
-5.13195e-09
-3.60766e-09
0.000193543
0.000229319
-0.000229286
2.12355e-09
3.44382e-08
9.79702e-05
-9.79864e-05
9.80081e-05
-9.79811e-05
9.79664e-05
-9.79825e-05
9.80042e-05
-9.79773e-05
0.000268044
-1.9763e-07
-2.00303e-07
1.99628e-08
-4.89764e-08
-0.0002782
1.01952e-08
2.00695e-08
-4.90304e-08
-0.000278123
1.05265e-08
-1.11224e-08
-6.77043e-09
2.44963e-08
0.000278172
-1.09711e-08
-7.46524e-09
2.21242e-08
0.000278097
9.80297e-05
-9.80028e-05
9.7992e-05
9.80259e-05
-9.7999e-05
9.79881e-05
1.13473e-08
9.80381e-05
1.09467e-08
9.80271e-05
1.167e-08
2.45699e-08
-9.04332e-09
0.000278273
9.71687e-09
2.43108e-08
-6.98792e-09
0.000278205
2.43832e-08
-4.03934e-09
0.000193598
2.80286e-08
0.000229326
-1.0751e-08
9.89694e-10
6.59209e-08
3.61975e-09
0.000245489
1.33198e-09
-1.47312e-07
1.00931e-06
-7.56117e-07
-9.35501e-07
8.31589e-07
7.53263e-10
0.000250122
2.83855e-09
1.31461e-07
-1.17974e-08
6.58484e-08
3.66886e-09
0.000245387
-1.47315e-07
1.01186e-06
-7.56079e-07
-9.37954e-07
8.31579e-07
0.000250098
1.53734e-09
1.31462e-07
2.21353e-08
-7.29472e-09
0.000278148
-1.1062e-08
2.44173e-08
-6.80546e-09
0.000278288
5.03562e-09
6.3394e-08
6.43674e-09
0.000245453
4.2075e-09
-1.5336e-07
1.01194e-06
-7.56076e-07
-9.38002e-07
8.31608e-07
1.77495e-09
0.000250116
1.92459e-09
1.31468e-07
2.22064e-08
-3.95393e-09
0.000193586
2.80728e-08
0.000229314
-1.07845e-08
1.10496e-09
-1.53298e-07
1.01193e-06
-7.56129e-07
-9.38047e-07
8.31598e-07
-1.19659e-08
6.10916e-08
3.79519e-09
0.000245374
0.000250089
1.31502e-07
1.81694e-09
1.98237e-10
-0.000229372
3.23427e-08
-3.70319e-09
0.000193648
1.61142e-10
0.000229352
1.06112e-09
-1.28011e-08
7.07121e-08
-0.000250097
-1.96383e-07
4.72181e-09
0.00115209
-1.64999e-07
1.00644e-06
-7.50555e-07
8.28829e-07
-9.29791e-07
-2.22004e-08
6.09845e-08
6.18714e-09
0.000245412
-4.48466e-08
-3.62649e-07
-1.23248e-06
2.75242e-07
-2.44301e-07
-8.46478e-07
2.72185e-07
-2.08928e-07
9.14293e-07
-2.79919e-08
0.000250083
1.31395e-07
1.79665e-09
-2.00842e-07
-9.29554e-07
8.31653e-07
-7.53023e-07
1.00922e-06
4.38699e-08
-1.94676e-08
-0.000245432
-1.05371e-07
-0.000229333
3.02547e-08
2.36057e-09
-4.88538e-09
-3.98567e-09
0.000193592
0.000229313
-1.07401e-08
1.02254e-09
7.01597e-09
3.12312e-09
-0.000193612
1.98851e-08
-7.32015e-09
0.000278145
-1.12569e-08
2.22366e-08
-7.02596e-09
0.000278279
4.8006e-09
9.8033e-05
7.0587e-08
-0.000250088
-1.93741e-07
3.7908e-09
0.00115191
-1.53301e-07
1.00899e-06
-7.53276e-07
8.28782e-07
-9.35058e-07
-2.20993e-08
6.33784e-08
3.94354e-09
0.000245377
1.47929e-07
-1.46596e-07
-1.15542e-06
2.83554e-07
-2.28045e-07
-8.51508e-07
2.69696e-07
-2.14317e-07
9.14487e-07
-2.79029e-08
0.000250074
1.31406e-07
4.65685e-10
-1.96294e-07
-9.32067e-07
8.28891e-07
-7.50266e-07
1.00919e-06
4.3992e-08
-1.68973e-08
-0.000245396
-1.03105e-07
-5.02352e-10
-0.000229363
2.53939e-09
3.2316e-08
-4.11633e-09
0.000193643
-1.71414e-10
0.000229343
1.2746e-09
-1.28509e-08
-0.000229326
1.88885e-09
3.44323e-08
-5.08611e-09
-3.65109e-09
0.000193584
0.000229306
5.92657e-10
-1.49304e-08
6.85297e-09
3.40477e-09
-0.000193604
9.80136e-05
-9.80244e-05
9.80098e-05
-9.80206e-05
-8.64453e-10
1.21627e-08
0.000143364
-1.66151e-12
-0.000143375
-0.00017106
-2.44272e-10
-7.28902e-11
0.00017109
-0.000223356
2.91682e-08
4.54031e-09
0.000223396
-7.22189e-08
-1.08283e-08
1.07066e-09
-0.000229325
-1.18253e-10
2.82363e-08
-0.000171071
-6.07306e-11
1.02667e-09
-0.000223376
3.26167e-08
1.53095e-09
0.000143391
-2.44651e-08
-7.92563e-05
7.92822e-05
-1.50503e-09
3.28077e-09
0.000193614
6.89791e-09
-4.39897e-08
0.000263199
-1.69072e-08
-9.90929e-10
3.28297e-08
-0.000263218
0.000263245
-4.5094e-09
-6.20866e-08
3.34563e-11
-7.92732e-05
1.69281e-08
7.92653e-05
-0.000263226
2.44179e-08
0.000263271
-6.20561e-08
-3.98772e-09
-4.90301e-09
2.22845e-08
3.2818e-08
7.92913e-05
2.64189e-10
-2.91743e-08
-0.000143348
3.03264e-08
2.2739e-09
8.84222e-12
-7.07255e-08
0.000171041
8.43318e-10
-4.36391e-11
-0.000171052
0.000223335
-1.21864e-08
3.26899e-08
-0.000223355
-5.53547e-11
-7.22056e-08
-0.000143359
9.80014e-05
-6.82229e-09
-2.24368e-08
5.02852e-09
1.33665e-08
1.21644e-08
-6.64863e-10
0.000143362
-1.97851e-10
-0.000143373
-0.000223346
2.92048e-08
4.289e-09
0.000223386
-7.22547e-08
-0.000171056
-4.65898e-10
1.28825e-10
0.000171087
8.94656e-10
-1.08457e-08
-0.000229312
1.01929e-10
2.82678e-08
8.07997e-10
-0.000223366
3.26383e-08
-0.000171068
1.02025e-10
1.33291e-09
0.000143389
-2.46546e-08
-7.92578e-05
7.92838e-05
-1.32977e-09
3.60756e-09
0.000193596
6.7009e-09
-4.41188e-08
0.000263195
-1.67127e-08
-8.01191e-10
3.27469e-08
-0.000263214
0.00026324
-4.28926e-09
-6.22081e-08
2.09071e-10
-7.92747e-05
1.67105e-08
7.92669e-05
-0.000263221
2.46316e-08
0.000263267
-6.21931e-08
-3.59323e-09
-5.17707e-09
2.2153e-08
3.27206e-08
7.92929e-05
-2.92061e-08
4.59263e-10
-0.000143346
2.08661e-09
3.03235e-08
8.26954e-11
-7.07225e-08
0.000223325
-1.21946e-08
3.27206e-08
-0.000223345
0.000171037
6.69626e-10
9.59915e-11
-0.000171049
-7.22348e-08
1.24662e-10
-0.000143357
9.79939e-05
-6.82459e-09
-2.01181e-08
5.06358e-09