/*--------------------------------*- C++ -*----------------------------------*\
| =========                 |                                                 |
| \\      /  F ield         | OpenFOAM: The Open Source CFD Toolbox           |
|  \\    /   O peration     | Version:  2312                                  |
|   \\  /    A nd           | Website:  www.openfoam.com                      |
|    \\/     M anipulation  |                                                 |
\*---------------------------------------------------------------------------*/
FoamFile
{
    version     2.0;
    format      ascii;
    arch        "LSB;label=32;scalar=64";
    class       volScalarField;
    location    "800";
    object      k;
}
// * * * * * * * * * * * * * * * * * * * * * * * * * * * * * * * * * * * * * //

dimensions      [0 2 -2 0 0 0 0];

internalField   nonuniform List<scalar> 
172512
(
3.91946e-05
5.15797e-05
5.15827e-05
5.3662e-05
5.36144e-05
5.15255e-05
5.15209e-05
5.36173e-05
5.1523e-05
5.1524e-05
5.15253e-05
5.15251e-05
5.36165e-05
5.15282e-05
5.15229e-05
5.36227e-05
5.36687e-05
5.15799e-05
5.15753e-05
5.3662e-05
5.15774e-05
5.15784e-05
5.15793e-05
5.36737e-05
5.15771e-05
7.34425e-05
6.85733e-05
7.34451e-05
3.90992e-05
3.90989e-05
3.91036e-05
3.91021e-05
7.11956e-05
5.14163e-05
6.47964e-05
6.86279e-05
7.34759e-05
6.86073e-05
7.34983e-05
7.12225e-05
7.12473e-05
6.86268e-05
7.34766e-05
6.86061e-05
7.35009e-05
3.91941e-05
3.9199e-05
3.91971e-05
6.07223e-05
6.4833e-05
4.69232e-05
5.16316e-05
6.06838e-05
6.48576e-05
4.69894e-05
7.12237e-05
7.12484e-05
6.07222e-05
4.69258e-05
6.48332e-05
5.16346e-05
6.06835e-05
4.6992e-05
6.48581e-05
6.9967e-05
6.99756e-05
5.37034e-05
6.99827e-05
6.99912e-05
7.11932e-05
7.11963e-05
5.35267e-05
6.99372e-05
6.99455e-05
7.12198e-05
7.11948e-05
7.12229e-05
7.11978e-05
5.35858e-05
6.99622e-05
6.99705e-05
6.99467e-05
6.9955e-05
5.14138e-05
6.47948e-05
6.85802e-05
7.34709e-05
7.34477e-05
6.86023e-05
6.85785e-05
7.34674e-05
7.34445e-05
6.86005e-05
6.06389e-05
5.14707e-05
6.48266e-05
4.6853e-05
6.48002e-05
4.67835e-05
6.0676e-05
6.06372e-05
5.14644e-05
6.48227e-05
4.68507e-05
6.47967e-05
4.67808e-05
6.06744e-05
7.12212e-05
7.1196e-05
5.35744e-05
6.99622e-05
6.99642e-05
6.99472e-05
7.12213e-05
6.06269e-05
5.14112e-05
6.47967e-05
4.67106e-05
6.85731e-05
7.34409e-05
6.06278e-05
5.1412e-05
4.67114e-05
6.47931e-05
6.85791e-05
7.34734e-05
7.34484e-05
6.86011e-05
6.06383e-05
5.14683e-05
6.48284e-05
4.68525e-05
6.48024e-05
4.67829e-05
6.06752e-05
6.85758e-05
7.3469e-05
7.34441e-05
6.86005e-05
6.06343e-05
5.14691e-05
4.68533e-05
6.48249e-05
4.67837e-05
6.47985e-05
6.06757e-05
6.48279e-05
4.68539e-05
6.06773e-05
7.34712e-05
6.85994e-05
4.68542e-05
6.48236e-05
6.06769e-05
7.34686e-05
6.86011e-05
5.35249e-05
6.99406e-05
6.99382e-05
7.11943e-05
7.12223e-05
7.11972e-05
5.35894e-05
6.99658e-05
6.99632e-05
6.99493e-05
6.9946e-05
7.12209e-05
7.11958e-05
7.34434e-05
6.06356e-05
5.14734e-05
4.68568e-05
6.48282e-05
4.67873e-05
6.48015e-05
6.06771e-05
6.06334e-05
5.14681e-05
4.68544e-05
6.48263e-05
4.67849e-05
6.47998e-05
6.06745e-05
6.85755e-05
7.34717e-05
7.34489e-05
6.85997e-05
6.85723e-05
7.34703e-05
7.34454e-05
6.85961e-05
5.35748e-05
6.99589e-05
6.99673e-05
6.99507e-05
7.12208e-05
7.12235e-05
7.11984e-05
7.12213e-05
7.1246e-05
7.12244e-05
7.12491e-05
6.99713e-05
6.99795e-05
5.37018e-05
6.9986e-05
6.99944e-05
7.12474e-05
7.12505e-05
5.375e-05
6.99947e-05
7.00029e-05
6.86264e-05
7.34725e-05
6.86056e-05
7.3495e-05
6.07212e-05
6.48316e-05
4.6922e-05
5.16319e-05
6.0686e-05
6.48565e-05
4.69882e-05
6.07195e-05
6.48281e-05
4.69197e-05
5.16272e-05
6.06844e-05
6.48526e-05
4.69859e-05
6.86325e-05
7.35034e-05
6.8631e-05
7.35001e-05
6.07303e-05
5.16837e-05
6.48612e-05
4.70541e-05
6.07287e-05
5.1679e-05
6.48577e-05
4.70518e-05
6.99717e-05
6.99722e-05
5.37015e-05
6.99859e-05
6.99876e-05
7.12227e-05
7.12474e-05
7.12486e-05
5.37451e-05
6.9995e-05
6.99953e-05
7.12487e-05
6.07206e-05
6.48338e-05
4.69215e-05
5.16294e-05
6.06855e-05
6.48583e-05
4.69878e-05
6.86264e-05
7.34723e-05
6.86031e-05
7.34967e-05
6.0721e-05
4.69223e-05
6.483e-05
5.16304e-05
6.0682e-05
4.69886e-05
6.48547e-05
6.86314e-05
7.3504e-05
6.07299e-05
5.16812e-05
6.48634e-05
4.70537e-05
6.86287e-05
7.34998e-05
6.07267e-05
5.16821e-05
4.70545e-05
6.48593e-05
6.86252e-05
7.34762e-05
6.86043e-05
7.34987e-05
6.07222e-05
4.69232e-05
6.48286e-05
5.16313e-05
6.06833e-05
4.69895e-05
6.48534e-05
6.86269e-05
7.34719e-05
6.86039e-05
7.34963e-05
6.07283e-05
5.16834e-05
6.48625e-05
4.70553e-05
6.86297e-05
7.35037e-05
6.07279e-05
5.16831e-05
4.70555e-05
6.48582e-05
6.86294e-05
7.34993e-05
6.99739e-05
6.9971e-05
5.37022e-05
6.99896e-05
6.99871e-05
7.12224e-05
7.12471e-05
7.12498e-05
5.3752e-05
6.99972e-05
6.99946e-05
7.12485e-05
6.07199e-05
4.69234e-05
6.48313e-05
5.16291e-05
6.06811e-05
4.69896e-05
6.48562e-05
6.86257e-05
7.34768e-05
6.86029e-05
7.34993e-05
6.86222e-05
7.34736e-05
6.85997e-05
7.3498e-05
6.07281e-05
5.16864e-05
4.70578e-05
6.48628e-05
6.07259e-05
5.16809e-05
4.70555e-05
6.48609e-05
6.86286e-05
7.35044e-05
6.86255e-05
7.35011e-05
7.12222e-05
7.12469e-05
7.12249e-05
7.12497e-05
5.3745e-05
6.99904e-05
6.9999e-05
7.12483e-05
7.12511e-05
7.16828e-05
7.97897e-05
7.34335e-05
7.9782e-05
7.16971e-05
7.18503e-05
6.85646e-05
7.15993e-05
7.16288e-05
7.15914e-05
7.16198e-05
7.18595e-05
7.16831e-05
7.97877e-05
7.3434e-05
7.97799e-05
7.16974e-05
7.11838e-05
7.19037e-05
6.86201e-05
7.1687e-05
7.1652e-05
7.16752e-05
7.16416e-05
7.1917e-05
7.1736e-05
7.98175e-05
7.34847e-05
7.17218e-05
7.98248e-05
7.19033e-05
6.86154e-05
7.16616e-05
7.163e-05
7.18897e-05
7.16731e-05
7.16404e-05
7.17347e-05
7.9836e-05
7.34896e-05
7.98289e-05
7.17487e-05
7.12343e-05
7.12356e-05
7.19059e-05
6.8619e-05
7.16486e-05
7.16856e-05
7.16415e-05
7.16768e-05
7.19148e-05
7.17362e-05
7.98155e-05
7.34873e-05
7.17221e-05
7.98226e-05
7.19013e-05
6.86143e-05
7.16297e-05
7.16629e-05
7.18922e-05
7.16371e-05
7.16718e-05
7.17349e-05
7.98336e-05
7.34904e-05
7.98268e-05
7.1749e-05
7.12354e-05
7.12368e-05
9.50344e-05
7.3552e-05
7.35453e-05
7.35387e-05
7.35321e-05
9.50364e-05
7.41983e-05
6.52884e-05
7.33026e-05
6.9971e-05
7.4195e-05
6.52994e-05
7.33112e-05
7.42462e-05
6.52965e-05
7.33108e-05
6.99794e-05
7.42429e-05
6.53081e-05
7.33223e-05
9.50236e-05
7.35266e-05
7.352e-05
9.50216e-05
7.35399e-05
7.35333e-05
7.42089e-05
7.33242e-05
6.99789e-05
6.53175e-05
6.53069e-05
7.33158e-05
7.42121e-05
7.42566e-05
7.33355e-05
6.99874e-05
6.53262e-05
6.5315e-05
7.3324e-05
7.42598e-05
7.11814e-05
7.11844e-05
9.49855e-05
7.3503e-05
7.34963e-05
7.34895e-05
7.34827e-05
9.49877e-05
7.41531e-05
7.32713e-05
6.9934e-05
6.52429e-05
7.32628e-05
7.41562e-05
6.5232e-05
7.4199e-05
7.32809e-05
6.99421e-05
6.52508e-05
7.32722e-05
7.42026e-05
6.52386e-05
7.12081e-05
7.12066e-05
7.12112e-05
7.12097e-05
9.50011e-05
7.35019e-05
7.34951e-05
9.49991e-05
7.35154e-05
7.35086e-05
7.41827e-05
6.52819e-05
6.99592e-05
7.32985e-05
7.329e-05
6.52718e-05
7.41856e-05
7.42287e-05
6.529e-05
6.99674e-05
7.33078e-05
7.32992e-05
6.52785e-05
7.42321e-05
7.4171e-05
7.32765e-05
6.52522e-05
6.99499e-05
7.4168e-05
7.32853e-05
6.52625e-05
7.42175e-05
7.32855e-05
6.52587e-05
6.99583e-05
7.4214e-05
7.32945e-05
6.52706e-05
9.50124e-05
7.35276e-05
7.35209e-05
7.35142e-05
7.35074e-05
9.50144e-05
7.18753e-05
7.1633e-05
7.16047e-05
6.85888e-05
7.18619e-05
7.16448e-05
7.16157e-05
7.17089e-05
7.34619e-05
7.98134e-05
7.17231e-05
7.98059e-05
7.17102e-05
7.97941e-05
7.34569e-05
7.16959e-05
7.98017e-05
7.18764e-05
6.85937e-05
7.16593e-05
7.16285e-05
7.18893e-05
7.16472e-05
7.16174e-05
7.18725e-05
7.1634e-05
7.15997e-05
6.85871e-05
7.18634e-05
7.1643e-05
7.16107e-05
7.17084e-05
7.34586e-05
7.97953e-05
7.97875e-05
7.17225e-05
7.17096e-05
7.97757e-05
7.34535e-05
7.16954e-05
7.97835e-05
7.18773e-05
6.85921e-05
7.16571e-05
7.16232e-05
7.16481e-05
7.16124e-05
7.18866e-05
7.12093e-05
7.12079e-05
7.4229e-05
6.52865e-05
6.99597e-05
7.33063e-05
6.52754e-05
7.32977e-05
7.42334e-05
7.4182e-05
6.52835e-05
6.99602e-05
7.33011e-05
7.3289e-05
6.52723e-05
7.41866e-05
6.5256e-05
6.99499e-05
6.52671e-05
9.50103e-05
7.35215e-05
7.35282e-05
7.35081e-05
7.35144e-05
9.50124e-05
7.12095e-05
7.18492e-05
6.85616e-05
7.16282e-05
7.1596e-05
7.16193e-05
7.15844e-05
7.18582e-05
7.16812e-05
7.97685e-05
7.34297e-05
7.97607e-05
7.16955e-05
7.18739e-05
7.16048e-05
7.16346e-05
6.85876e-05
7.1865e-05
7.16125e-05
7.16434e-05
7.17092e-05
7.34625e-05
7.98111e-05
7.17234e-05
7.98039e-05
7.17104e-05
7.97921e-05
7.34592e-05
7.16962e-05
7.97995e-05
7.18782e-05
6.85925e-05
7.1625e-05
7.16577e-05
7.18878e-05
7.16171e-05
7.16484e-05
7.18726e-05
7.16339e-05
7.15976e-05
6.8587e-05
7.18639e-05
7.16429e-05
7.16088e-05
7.17074e-05
7.34582e-05
7.97921e-05
7.97847e-05
7.17215e-05
7.17086e-05
7.9773e-05
7.3455e-05
7.16943e-05
7.97804e-05
7.18774e-05
6.85897e-05
7.16569e-05
7.16213e-05
7.16479e-05
7.16105e-05
7.18864e-05
7.17075e-05
7.34624e-05
7.9804e-05
7.98015e-05
7.17223e-05
7.1877e-05
6.85911e-05
7.1621e-05
7.16566e-05
7.16135e-05
7.16477e-05
7.18863e-05
7.17077e-05
7.34578e-05
7.97911e-05
7.97836e-05
7.17219e-05
7.18774e-05
6.85904e-05
7.16569e-05
7.16217e-05
7.16479e-05
7.16109e-05
7.18866e-05
9.49807e-05
7.34962e-05
7.35024e-05
7.34828e-05
7.34889e-05
9.49829e-05
7.41988e-05
7.32802e-05
6.99365e-05
6.52487e-05
7.32692e-05
6.52362e-05
7.42023e-05
7.4151e-05
7.32727e-05
6.99332e-05
6.52439e-05
6.52314e-05
7.32603e-05
7.41548e-05
7.11824e-05
7.12105e-05
7.1209e-05
9.49964e-05
7.34951e-05
7.35013e-05
9.49943e-05
7.35086e-05
7.35148e-05
7.4229e-05
6.52883e-05
6.99617e-05
7.33076e-05
6.52764e-05
7.32958e-05
7.42323e-05
7.41814e-05
6.52833e-05
6.99588e-05
7.32997e-05
7.32878e-05
6.52718e-05
7.41848e-05
7.42176e-05
7.32821e-05
6.52566e-05
6.99534e-05
6.52688e-05
7.42142e-05
7.3294e-05
7.41701e-05
7.32743e-05
6.52518e-05
6.99506e-05
7.41665e-05
7.32862e-05
6.52638e-05
9.50076e-05
7.35208e-05
7.3527e-05
7.35075e-05
7.35136e-05
9.50096e-05
7.12092e-05
7.12076e-05
7.34345e-05
7.18744e-05
7.16026e-05
7.16313e-05
6.85862e-05
7.18637e-05
7.16139e-05
7.16437e-05
7.17092e-05
7.34628e-05
7.98094e-05
7.98017e-05
7.17233e-05
7.17104e-05
7.979e-05
7.34577e-05
7.16962e-05
7.97977e-05
7.1877e-05
6.85895e-05
7.16264e-05
7.16578e-05
7.16155e-05
7.16458e-05
7.18887e-05
7.18713e-05
7.15953e-05
7.16301e-05
6.85826e-05
7.18621e-05
7.16059e-05
7.16426e-05
7.17084e-05
7.34595e-05
7.97928e-05
7.97855e-05
7.17226e-05
7.17096e-05
7.97735e-05
7.34563e-05
7.16953e-05
7.97811e-05
7.18764e-05
6.85863e-05
7.16184e-05
7.16569e-05
7.16082e-05
7.16446e-05
7.18856e-05
9.49972e-05
7.35155e-05
7.35089e-05
7.41808e-05
6.52808e-05
6.99548e-05
7.32978e-05
7.41843e-05
6.52693e-05
7.3289e-05
7.42287e-05
6.52894e-05
6.99633e-05
7.33091e-05
7.42322e-05
6.52773e-05
7.32971e-05
7.41696e-05
6.99465e-05
6.52614e-05
7.32842e-05
7.42173e-05
6.52575e-05
6.99549e-05
6.527e-05
7.32953e-05
9.50084e-05
7.35277e-05
7.35211e-05
9.50105e-05
7.35144e-05
7.35078e-05
7.1209e-05
7.12075e-05
7.12117e-05
7.12103e-05
7.1233e-05
7.12344e-05
7.12361e-05
7.12375e-05
9.50383e-05
7.35519e-05
7.35451e-05
7.35385e-05
7.35318e-05
9.50401e-05
7.41997e-05
6.52908e-05
7.33033e-05
6.99743e-05
7.4197e-05
7.3312e-05
6.53006e-05
7.42462e-05
6.52974e-05
7.33126e-05
6.99827e-05
7.4243e-05
7.33213e-05
6.53086e-05
9.50273e-05
7.35264e-05
7.35197e-05
9.50255e-05
7.35398e-05
7.3533e-05
7.42108e-05
7.33252e-05
6.99831e-05
6.53186e-05
7.33167e-05
7.42133e-05
6.53092e-05
7.42568e-05
7.33345e-05
6.99913e-05
6.53266e-05
7.3326e-05
7.42598e-05
6.53158e-05
7.12589e-05
7.1262e-05
9.50526e-05
7.35506e-05
7.35438e-05
9.50509e-05
7.35639e-05
7.35571e-05
7.42266e-05
7.333e-05
6.5327e-05
6.99974e-05
7.42242e-05
7.33383e-05
6.53361e-05
7.4273e-05
7.33393e-05
6.53336e-05
7.00058e-05
7.42702e-05
7.33477e-05
6.53441e-05
7.19053e-05
6.86186e-05
7.16853e-05
7.1647e-05
7.16765e-05
7.16364e-05
7.19141e-05
7.17354e-05
7.97991e-05
7.34814e-05
7.17213e-05
7.98067e-05
7.19006e-05
6.86139e-05
7.16624e-05
7.16247e-05
7.16715e-05
7.18912e-05
7.16353e-05
7.17341e-05
7.98179e-05
7.34864e-05
7.98105e-05
7.17481e-05
7.19303e-05
7.16893e-05
7.16534e-05
6.86403e-05
7.19173e-05
7.17009e-05
7.16634e-05
7.17614e-05
7.984e-05
7.3512e-05
7.17474e-05
7.98469e-05
7.19275e-05
7.16902e-05
7.16482e-05
6.86387e-05
7.19186e-05
7.16992e-05
7.16584e-05
7.17608e-05
7.98216e-05
7.35086e-05
7.17468e-05
7.98288e-05
9.50356e-05
7.35456e-05
7.3552e-05
7.35323e-05
7.35387e-05
9.50378e-05
7.42473e-05
6.52944e-05
7.33111e-05
6.99742e-05
7.33198e-05
7.42429e-05
6.53051e-05
7.42006e-05
6.52914e-05
7.33028e-05
6.9976e-05
6.53021e-05
7.41962e-05
7.33146e-05
9.50251e-05
7.35203e-05
7.35268e-05
7.35336e-05
9.50229e-05
7.35401e-05
7.42565e-05
7.33329e-05
6.99835e-05
6.53231e-05
7.33244e-05
6.53129e-05
7.42608e-05
7.42099e-05
7.33277e-05
6.99838e-05
6.53202e-05
6.53097e-05
7.3316e-05
7.42142e-05
7.12344e-05
7.12358e-05
7.12602e-05
9.50503e-05
7.35443e-05
7.35506e-05
9.50482e-05
7.35576e-05
7.35638e-05
7.42739e-05
7.33377e-05
6.53307e-05
6.99973e-05
6.53406e-05
7.42697e-05
7.3346e-05
7.42274e-05
7.33291e-05
6.53275e-05
6.9999e-05
7.42232e-05
7.33407e-05
6.53376e-05
7.12603e-05
7.1905e-05
6.8616e-05
7.16851e-05
7.16451e-05
7.16762e-05
7.16346e-05
7.19138e-05
7.17344e-05
7.97962e-05
7.3483e-05
7.17203e-05
7.98035e-05
7.19003e-05
6.86136e-05
7.16621e-05
7.16229e-05
7.16713e-05
7.1891e-05
7.16334e-05
7.17331e-05
7.98147e-05
7.34861e-05
7.98076e-05
7.17471e-05
7.19282e-05
7.1653e-05
7.16906e-05
6.86392e-05
7.19194e-05
7.16601e-05
7.16996e-05
7.17616e-05
7.98379e-05
7.35144e-05
7.17476e-05
7.98446e-05
7.19272e-05
7.169e-05
7.16465e-05
6.86387e-05
7.19183e-05
7.16991e-05
7.16566e-05
7.17598e-05
7.98187e-05
7.35102e-05
7.17458e-05
7.98256e-05
7.19046e-05
6.86173e-05
7.16447e-05
7.16847e-05
7.16375e-05
7.16759e-05
7.19137e-05
7.17351e-05
7.9813e-05
7.34851e-05
7.98154e-05
7.17204e-05
7.19002e-05
6.86126e-05
7.16256e-05
7.16617e-05
7.16331e-05
7.18907e-05
7.1671e-05
7.17332e-05
7.98265e-05
7.349e-05
7.98242e-05
7.17479e-05
7.1905e-05
6.86167e-05
7.1685e-05
7.16456e-05
7.16761e-05
7.16352e-05
7.19138e-05
7.17347e-05
7.97952e-05
7.34826e-05
7.17206e-05
7.98026e-05
7.19004e-05
6.86142e-05
7.16619e-05
7.16235e-05
7.18908e-05
7.16712e-05
7.16339e-05
7.17334e-05
7.98138e-05
7.34857e-05
7.98065e-05
7.17475e-05
7.19274e-05
7.1649e-05
7.16897e-05
6.86374e-05
7.19177e-05
7.1656e-05
7.16987e-05
7.17605e-05
7.98351e-05
7.35123e-05
7.17459e-05
7.98375e-05
7.19271e-05
7.16899e-05
7.1647e-05
6.86392e-05
7.19182e-05
7.1699e-05
7.16571e-05
7.17601e-05
7.98176e-05
7.35098e-05
7.17461e-05
7.98247e-05
9.50335e-05
7.35451e-05
7.35513e-05
7.35318e-05
7.3538e-05
9.50353e-05
7.42464e-05
6.52955e-05
7.33095e-05
6.99779e-05
7.33212e-05
7.42433e-05
6.53069e-05
7.41989e-05
6.52909e-05
7.33015e-05
6.99751e-05
6.5302e-05
7.41957e-05
7.33132e-05
9.50226e-05
7.35197e-05
7.35258e-05
7.3533e-05
9.50207e-05
7.35392e-05
7.42571e-05
7.33344e-05
6.99856e-05
6.53249e-05
7.33228e-05
6.53139e-05
7.426e-05
7.42096e-05
7.33265e-05
6.9983e-05
6.53201e-05
6.53095e-05
7.33148e-05
7.42126e-05
7.12341e-05
7.12355e-05
7.12613e-05
9.50478e-05
7.35438e-05
7.355e-05
9.50461e-05
7.35571e-05
7.35633e-05
7.42733e-05
7.3336e-05
6.53317e-05
7.00011e-05
6.53424e-05
7.42705e-05
7.33475e-05
7.42259e-05
7.3328e-05
6.53273e-05
6.99984e-05
7.4223e-05
7.33396e-05
6.53377e-05
7.126e-05
7.19037e-05
6.86159e-05
7.16503e-05
7.16859e-05
7.16398e-05
7.16738e-05
7.19168e-05
7.17362e-05
7.98134e-05
7.34857e-05
7.98208e-05
7.17221e-05
7.19032e-05
6.86129e-05
7.1628e-05
7.166e-05
7.16386e-05
7.189e-05
7.16719e-05
7.17349e-05
7.9832e-05
7.34906e-05
7.98247e-05
7.1749e-05
7.19039e-05
6.86128e-05
7.16424e-05
7.16849e-05
7.16326e-05
7.16727e-05
7.1913e-05
7.17354e-05
7.97971e-05
7.34843e-05
7.17213e-05
7.98043e-05
7.18995e-05
6.86093e-05
7.16206e-05
7.16589e-05
7.18897e-05
7.16306e-05
7.16709e-05
7.17341e-05
7.98155e-05
7.34874e-05
7.98085e-05
7.17482e-05
7.19302e-05
7.16516e-05
7.1688e-05
6.8638e-05
7.19171e-05
7.16618e-05
7.16999e-05
7.17616e-05
7.98358e-05
7.3513e-05
7.17476e-05
7.98429e-05
7.19264e-05
7.16444e-05
7.16869e-05
6.86345e-05
7.19172e-05
7.16539e-05
7.16989e-05
7.17609e-05
7.98196e-05
7.35116e-05
7.17468e-05
7.98264e-05
7.12339e-05
7.12353e-05
7.12367e-05
7.12381e-05
9.5049e-05
7.35507e-05
7.35441e-05
9.50471e-05
7.3564e-05
7.35573e-05
7.42253e-05
7.3329e-05
6.53247e-05
6.99942e-05
7.42223e-05
6.53351e-05
7.33375e-05
7.4273e-05
7.33371e-05
6.53329e-05
7.00027e-05
7.427e-05
6.53437e-05
7.33485e-05
7.12598e-05
7.12626e-05
3.89043e-05
3.19042e-05
3.22683e-05
3.2266e-05
3.92873e-05
3.23846e-05
3.23825e-05
2.34438e-05
2.33001e-05
6.59953e-05
5.95652e-05
5.95667e-05
5.36619e-05
6.59896e-05
5.95688e-05
5.95704e-05
6.59713e-05
5.36302e-05
5.95384e-05
5.95386e-05
5.95406e-05
5.95413e-05
6.59752e-05
6.59703e-05
5.36188e-05
5.95367e-05
5.9541e-05
5.9534e-05
5.95372e-05
6.59761e-05
6.59706e-05
5.36334e-05
5.95372e-05
5.95395e-05
5.95406e-05
5.9543e-05
6.59748e-05
6.59695e-05
5.36201e-05
5.95396e-05
5.95411e-05
6.59749e-05
5.95353e-05
5.95368e-05
6.59957e-05
5.95697e-05
5.95705e-05
5.36597e-05
6.5992e-05
5.95687e-05
5.95688e-05
6.5996e-05
5.95642e-05
5.95676e-05
5.366e-05
5.95705e-05
6.59906e-05
5.95664e-05
6.5995e-05
5.957e-05
5.95724e-05
5.36585e-05
5.95691e-05
6.59911e-05
5.95667e-05
3.89083e-05
3.19095e-05
3.9003e-05
3.21492e-05
3.21468e-05
3.20294e-05
3.20268e-05
2.30088e-05
2.31546e-05
3.9003e-05
3.21487e-05
3.21483e-05
3.2029e-05
3.20285e-05
2.30091e-05
2.3155e-05
3.90073e-05
3.21524e-05
3.21522e-05
3.20323e-05
3.20325e-05
2.30128e-05
2.31587e-05
3.90059e-05
3.21533e-05
3.21512e-05
3.20329e-05
3.20316e-05
2.30133e-05
2.31591e-05
6.47849e-05
6.03803e-05
6.03726e-05
3.22677e-05
3.22672e-05
3.92865e-05
3.2384e-05
3.23837e-05
2.34442e-05
2.33005e-05
3.22716e-05
3.22713e-05
3.92917e-05
3.2388e-05
3.23877e-05
2.34478e-05
2.33041e-05
3.22721e-05
3.22703e-05
3.92899e-05
3.23886e-05
3.23866e-05
2.34482e-05
2.33046e-05
3.93794e-05
3.25003e-05
3.24983e-05
2.35871e-05
3.93785e-05
3.24997e-05
3.24991e-05
2.35875e-05
3.93836e-05
3.25038e-05
3.25033e-05
2.35911e-05
3.93819e-05
3.25042e-05
3.25023e-05
2.35915e-05
5.64385e-05
6.07063e-05
6.24067e-05
5.51722e-05
6.23914e-05
5.51699e-05
5.6431e-05
5.74863e-05
6.04483e-05
6.42509e-05
6.4843e-05
5.74859e-05
6.04522e-05
6.42616e-05
5.63975e-05
6.07001e-05
6.23713e-05
5.51337e-05
5.6405e-05
6.23867e-05
5.51357e-05
5.75145e-05
6.42792e-05
6.4848e-05
6.04765e-05
6.04721e-05
6.42689e-05
5.75153e-05
5.64392e-05
6.0706e-05
5.51714e-05
6.24093e-05
5.51691e-05
6.23932e-05
5.64325e-05
5.74835e-05
6.04485e-05
6.42521e-05
6.48434e-05
5.74846e-05
6.04546e-05
6.42638e-05
5.63988e-05
6.06999e-05
5.5132e-05
6.23733e-05
5.64054e-05
5.51341e-05
6.23894e-05
5.75148e-05
6.42813e-05
6.48483e-05
6.0477e-05
6.04739e-05
6.427e-05
5.75133e-05
6.60099e-05
5.37043e-05
5.95975e-05
5.95988e-05
5.95943e-05
5.95956e-05
6.60151e-05
6.59285e-05
5.3543e-05
5.94763e-05
5.94765e-05
6.59328e-05
5.94791e-05
5.94795e-05
6.59543e-05
5.35703e-05
5.951e-05
5.95106e-05
6.59502e-05
5.95079e-05
5.95082e-05
5.73878e-05
6.42072e-05
6.47837e-05
6.03773e-05
6.41945e-05
6.03711e-05
5.73907e-05
5.6328e-05
6.23304e-05
5.50548e-05
6.06526e-05
5.63345e-05
6.23472e-05
5.50531e-05
5.74513e-05
6.04269e-05
6.48163e-05
6.42452e-05
6.04226e-05
6.42335e-05
5.74513e-05
5.74223e-05
6.42143e-05
6.03956e-05
6.48108e-05
6.04013e-05
5.74205e-05
6.42264e-05
5.637e-05
6.06625e-05
6.23687e-05
5.50935e-05
6.23521e-05
5.50947e-05
5.6363e-05
5.63236e-05
6.23255e-05
5.50529e-05
6.0651e-05
5.63302e-05
6.23427e-05
5.50515e-05
5.74466e-05
6.04236e-05
6.48126e-05
6.42375e-05
6.42255e-05
6.04192e-05
5.74481e-05
5.74172e-05
6.42067e-05
6.03925e-05
6.4807e-05
5.74151e-05
6.42187e-05
6.03983e-05
5.63658e-05
6.06609e-05
6.23642e-05
5.50916e-05
6.23472e-05
5.50927e-05
5.63588e-05
5.35716e-05
5.95034e-05
5.95061e-05
5.62987e-05
6.06131e-05
6.23206e-05
5.50094e-05
6.23084e-05
5.50255e-05
5.62866e-05
5.73945e-05
6.4205e-05
6.47861e-05
6.03746e-05
6.4195e-05
6.03737e-05
5.73798e-05
5.62946e-05
6.06094e-05
5.50186e-05
6.23199e-05
5.50157e-05
6.23017e-05
5.62894e-05
5.7384e-05
6.41994e-05
6.47819e-05
6.03759e-05
6.41866e-05
5.73858e-05
6.03684e-05
5.63241e-05
6.23315e-05
5.50655e-05
6.06519e-05
5.63366e-05
6.23433e-05
5.50514e-05
5.74537e-05
6.04254e-05
6.48187e-05
6.42434e-05
6.04257e-05
6.42337e-05
5.74479e-05
5.74141e-05
6.42149e-05
6.03984e-05
6.48128e-05
6.03993e-05
5.74254e-05
6.42249e-05
5.63723e-05
6.0662e-05
6.23646e-05
5.50889e-05
6.23529e-05
5.51029e-05
5.63598e-05
5.63255e-05
5.50553e-05
6.23244e-05
6.06521e-05
5.63305e-05
5.50582e-05
6.2342e-05
5.74461e-05
6.04261e-05
6.48143e-05
6.42373e-05
6.42252e-05
6.04205e-05
5.74474e-05
5.7417e-05
6.42063e-05
6.03949e-05
6.48092e-05
5.74141e-05
6.42185e-05
6.04007e-05
5.63656e-05
6.06586e-05
5.50963e-05
6.23634e-05
5.50939e-05
6.23464e-05
5.63604e-05
5.74553e-05
6.04269e-05
6.48177e-05
6.42434e-05
5.74536e-05
6.04243e-05
6.42323e-05
5.63707e-05
6.06602e-05
6.23662e-05
5.50991e-05
5.63628e-05
6.23496e-05
5.50967e-05
5.74479e-05
6.04244e-05
6.48131e-05
6.42375e-05
6.42257e-05
6.04198e-05
5.74465e-05
5.6368e-05
6.06597e-05
5.50983e-05
6.23641e-05
5.50955e-05
6.23474e-05
5.63609e-05
6.59268e-05
5.35451e-05
5.94734e-05
5.9477e-05
5.948e-05
5.94769e-05
6.59314e-05
6.59536e-05
5.35729e-05
5.95098e-05
5.95118e-05
5.9507e-05
6.5949e-05
5.95093e-05
5.63298e-05
5.50562e-05
6.23294e-05
6.06533e-05
5.6335e-05
5.50597e-05
6.23468e-05
5.74532e-05
6.04294e-05
6.48176e-05
6.42456e-05
5.7452e-05
6.04252e-05
6.42334e-05
5.74244e-05
6.42143e-05
6.03983e-05
6.48124e-05
5.74225e-05
6.04043e-05
6.42267e-05
5.63702e-05
6.06601e-05
5.50977e-05
6.23689e-05
5.63644e-05
5.50951e-05
6.23516e-05
5.6325e-05
5.50556e-05
6.23234e-05
6.06508e-05
5.63302e-05
5.50588e-05
6.23405e-05
5.74469e-05
6.04276e-05
6.48157e-05
6.42378e-05
6.42258e-05
6.04213e-05
5.74455e-05
5.7418e-05
6.42065e-05
6.03967e-05
6.48105e-05
5.7416e-05
6.42188e-05
6.04015e-05
5.63654e-05
6.06577e-05
5.50967e-05
6.23622e-05
5.50941e-05
6.23456e-05
5.63599e-05
6.59545e-05
5.35785e-05
5.95054e-05
5.95093e-05
5.95103e-05
6.60118e-05
5.37097e-05
5.95973e-05
5.95974e-05
6.60153e-05
5.95982e-05
5.95993e-05
6.60344e-05
5.37428e-05
5.96264e-05
5.96276e-05
6.60312e-05
5.96256e-05
5.96256e-05
5.64384e-05
6.07086e-05
6.24094e-05
5.51668e-05
6.23936e-05
5.51693e-05
5.64306e-05
5.74824e-05
6.04458e-05
6.42521e-05
6.48418e-05
6.42634e-05
5.74831e-05
6.04517e-05
5.63971e-05
6.06993e-05
6.23734e-05
5.51324e-05
6.23895e-05
5.64047e-05
5.51307e-05
5.75131e-05
6.42809e-05
6.48467e-05
6.04755e-05
6.42701e-05
6.04702e-05
5.7512e-05
5.64341e-05
6.0707e-05
6.24049e-05
5.5165e-05
6.23886e-05
5.51675e-05
5.64265e-05
5.74782e-05
6.04424e-05
6.42442e-05
6.48379e-05
5.74768e-05
6.42558e-05
6.04483e-05
5.63929e-05
6.06977e-05
6.23685e-05
5.51305e-05
5.64004e-05
6.23849e-05
5.51288e-05
5.75062e-05
6.42734e-05
6.48431e-05
6.04718e-05
6.42621e-05
5.75074e-05
6.04671e-05
5.64627e-05
6.24135e-05
5.52051e-05
6.07426e-05
5.64709e-05
6.24288e-05
5.52019e-05
5.75406e-05
6.42874e-05
6.04934e-05
6.48706e-05
6.0498e-05
5.75425e-05
6.42979e-05
5.64585e-05
6.24086e-05
5.52032e-05
6.07409e-05
5.64667e-05
6.24243e-05
5.52e-05
5.75342e-05
6.42795e-05
6.04902e-05
6.48668e-05
5.75346e-05
6.42904e-05
6.04942e-05
6.60107e-05
5.37042e-05
5.95954e-05
5.95993e-05
5.95968e-05
5.95935e-05
6.60159e-05
6.60348e-05
5.37419e-05
5.96219e-05
5.96251e-05
5.96235e-05
6.60297e-05
5.96274e-05
5.64394e-05
6.07082e-05
6.24056e-05
5.51661e-05
6.23947e-05
5.51736e-05
5.64275e-05
5.74778e-05
6.04501e-05
6.4252e-05
6.48437e-05
6.42616e-05
5.74832e-05
6.04519e-05
5.63946e-05
6.06987e-05
6.23743e-05
5.51396e-05
6.23858e-05
5.64064e-05
5.51273e-05
5.75135e-05
6.42791e-05
6.4849e-05
6.04738e-05
6.427e-05
6.04729e-05
5.7508e-05
5.64345e-05
6.07046e-05
5.51699e-05
6.24043e-05
5.51678e-05
6.2388e-05
5.64283e-05
5.74781e-05
6.04447e-05
6.42439e-05
6.48401e-05
5.74765e-05
6.42554e-05
6.04497e-05
5.63945e-05
6.06988e-05
5.51305e-05
6.23678e-05
5.64006e-05
5.51327e-05
6.23842e-05
5.75062e-05
6.42729e-05
6.48448e-05
6.04732e-05
6.42617e-05
5.75076e-05
6.04682e-05
5.64604e-05
6.24144e-05
5.52076e-05
6.0742e-05
5.64717e-05
6.24251e-05
5.52016e-05
5.75372e-05
6.42874e-05
6.04959e-05
6.48725e-05
6.04967e-05
5.75423e-05
6.42961e-05
5.64603e-05
5.52032e-05
6.24081e-05
6.07425e-05
5.64673e-05
5.52044e-05
6.24237e-05
5.75346e-05
6.42791e-05
6.04912e-05
6.48688e-05
5.75349e-05
6.42897e-05
6.04958e-05
5.64366e-05
6.07058e-05
5.51713e-05
6.24052e-05
5.51693e-05
6.23893e-05
5.64292e-05
5.74784e-05
6.0444e-05
6.42445e-05
6.48387e-05
6.04482e-05
5.74796e-05
6.42557e-05
5.63956e-05
6.06999e-05
5.51319e-05
6.23691e-05
5.51343e-05
5.64028e-05
6.2385e-05
5.75097e-05
6.42733e-05
6.48437e-05
6.04718e-05
6.04679e-05
6.42625e-05
5.75082e-05
5.64632e-05
6.24115e-05
5.52045e-05
6.07437e-05
5.6471e-05
6.24262e-05
5.52061e-05
5.75415e-05
6.42863e-05
6.04948e-05
6.48718e-05
5.75421e-05
6.04991e-05
6.42962e-05
5.64614e-05
5.52041e-05
6.24094e-05
6.07436e-05
5.64693e-05
5.5204e-05
6.24247e-05
5.7537e-05
6.42798e-05
6.04906e-05
6.48677e-05
5.75391e-05
6.42903e-05
6.04954e-05
6.6011e-05
5.37117e-05
5.95954e-05
5.95979e-05
5.96012e-05
5.95987e-05
6.60147e-05
6.6034e-05
5.37436e-05
5.96269e-05
5.96295e-05
5.96238e-05
6.60306e-05
5.96264e-05
5.64347e-05
6.07038e-05
5.51701e-05
6.24033e-05
5.51681e-05
6.23874e-05
5.64281e-05
5.74774e-05
6.04471e-05
6.42445e-05
6.48414e-05
6.04506e-05
5.74785e-05
6.42559e-05
5.63943e-05
6.06975e-05
5.51306e-05
6.23671e-05
5.51331e-05
5.64007e-05
6.23831e-05
5.75086e-05
6.42736e-05
6.48464e-05
6.04752e-05
6.04694e-05
6.42625e-05
5.75072e-05
5.64644e-05
5.52037e-05
6.24133e-05
6.07436e-05
5.64717e-05
5.52054e-05
6.24288e-05
5.75421e-05
6.42874e-05
6.04961e-05
6.48723e-05
5.75441e-05
6.04997e-05
6.42983e-05
5.646e-05
5.52027e-05
6.24075e-05
6.07413e-05
5.64675e-05
5.52026e-05
6.24227e-05
5.7536e-05
6.42799e-05
6.04934e-05
6.48704e-05
5.7538e-05
6.42906e-05
6.04977e-05
6.60337e-05
5.37438e-05
5.96223e-05
5.96234e-05
6.60291e-05
5.96253e-05
5.96266e-05
3.95572e-05
5.17818e-05
5.17849e-05
5.38242e-05
3.98925e-05
5.19629e-05
5.19662e-05
5.39688e-05
4.02011e-05
5.21237e-05
5.21271e-05
5.40971e-05
4.04836e-05
5.22647e-05
5.22681e-05
5.42087e-05
4.07406e-05
5.23864e-05
5.23899e-05
5.43048e-05
4.09729e-05
5.24896e-05
5.24931e-05
5.43858e-05
4.11813e-05
5.25749e-05
5.25785e-05
5.44523e-05
4.13665e-05
5.26431e-05
5.26466e-05
5.45048e-05
4.15295e-05
5.26947e-05
5.26982e-05
5.45437e-05
4.16712e-05
5.27304e-05
5.2734e-05
5.45701e-05
4.17923e-05
5.2751e-05
5.27546e-05
5.45844e-05
4.18938e-05
5.27573e-05
5.27608e-05
5.45875e-05
4.19763e-05
5.27511e-05
5.27547e-05
5.45773e-05
4.2041e-05
5.27325e-05
5.27362e-05
5.45552e-05
4.20892e-05
5.27022e-05
5.2706e-05
5.45254e-05
4.21224e-05
5.26609e-05
5.26649e-05
5.44873e-05
4.21412e-05
5.26098e-05
5.26138e-05
5.44403e-05
4.21455e-05
5.255e-05
5.25538e-05
5.43849e-05
4.21119e-05
5.24742e-05
5.24774e-05
5.43107e-05
4.37928e-05
5.05508e-05
5.05538e-05
5.3954e-05
5.37823e-05
5.17329e-05
5.17282e-05
5.37812e-05
5.17304e-05
5.17313e-05
5.17325e-05
5.17323e-05
5.37833e-05
5.17357e-05
5.17301e-05
5.37829e-05
5.38274e-05
5.39296e-05
5.17821e-05
5.17774e-05
5.19191e-05
5.19143e-05
5.38236e-05
5.39284e-05
5.17797e-05
5.17806e-05
5.19167e-05
5.19175e-05
5.17815e-05
5.19186e-05
5.19184e-05
5.38291e-05
5.39308e-05
5.17794e-05
5.19219e-05
5.19163e-05
5.3929e-05
5.39705e-05
5.40604e-05
5.19634e-05
5.19585e-05
5.20847e-05
5.20798e-05
5.39677e-05
5.40594e-05
5.1961e-05
5.19618e-05
5.20824e-05
5.20832e-05
5.19627e-05
5.20842e-05
5.2084e-05
5.39719e-05
5.40616e-05
5.19606e-05
5.20875e-05
5.2082e-05
5.40594e-05
5.4098e-05
5.41753e-05
5.21243e-05
5.21194e-05
5.22304e-05
5.22254e-05
5.40953e-05
5.4174e-05
5.2122e-05
5.21227e-05
5.22282e-05
5.22288e-05
5.21236e-05
5.22298e-05
5.22297e-05
5.40992e-05
5.41763e-05
5.21216e-05
5.22332e-05
5.22277e-05
5.41743e-05
5.42095e-05
5.42745e-05
5.22653e-05
5.22604e-05
5.23567e-05
5.23516e-05
5.42069e-05
5.4273e-05
5.22632e-05
5.22638e-05
5.23545e-05
5.23552e-05
5.22647e-05
5.2356e-05
5.23559e-05
5.42106e-05
5.42755e-05
5.22627e-05
5.23594e-05
5.2354e-05
5.42737e-05
5.43054e-05
5.43586e-05
5.23872e-05
5.23821e-05
5.24643e-05
5.24592e-05
5.43031e-05
5.43569e-05
5.23851e-05
5.23857e-05
5.24622e-05
5.24628e-05
5.23865e-05
5.24636e-05
5.24636e-05
5.43064e-05
5.43595e-05
5.23845e-05
5.24671e-05
5.24617e-05
5.43579e-05
5.43864e-05
5.4428e-05
5.24904e-05
5.24853e-05
5.25539e-05
5.25487e-05
5.43842e-05
5.44262e-05
5.24883e-05
5.24889e-05
5.25518e-05
5.25524e-05
5.24897e-05
5.2553e-05
5.25531e-05
5.43873e-05
5.44288e-05
5.24878e-05
5.25566e-05
5.25513e-05
5.44273e-05
5.44529e-05
5.44832e-05
5.25758e-05
5.25706e-05
5.2626e-05
5.26208e-05
5.44507e-05
5.44814e-05
5.25738e-05
5.25743e-05
5.2624e-05
5.26245e-05
5.2575e-05
5.26251e-05
5.26252e-05
5.44537e-05
5.4484e-05
5.25732e-05
5.26287e-05
5.26234e-05
5.44826e-05
5.45054e-05
5.45248e-05
5.26439e-05
5.26387e-05
5.26815e-05
5.26762e-05
5.45032e-05
5.45229e-05
5.2642e-05
5.26424e-05
5.26796e-05
5.268e-05
5.26431e-05
5.26806e-05
5.26807e-05
5.45062e-05
5.45255e-05
5.26414e-05
5.26841e-05
5.26789e-05
5.45241e-05
5.45443e-05
5.45538e-05
5.26955e-05
5.26903e-05
5.27212e-05
5.2716e-05
5.45422e-05
5.45517e-05
5.26937e-05
5.26941e-05
5.27194e-05
5.27198e-05
5.26947e-05
5.27204e-05
5.27204e-05
5.45451e-05
5.45539e-05
5.2693e-05
5.27239e-05
5.27187e-05
5.45526e-05
5.45704e-05
5.4569e-05
5.27313e-05
5.27261e-05
5.27463e-05
5.27411e-05
5.45684e-05
5.45705e-05
5.27295e-05
5.27299e-05
5.27444e-05
5.27448e-05
5.27305e-05
5.27454e-05
5.27454e-05
5.45717e-05
5.45684e-05
5.27288e-05
5.2749e-05
5.27438e-05
5.45716e-05
5.45895e-05
5.45747e-05
5.27519e-05
5.27467e-05
5.27573e-05
5.27521e-05
5.45839e-05
5.45758e-05
5.27501e-05
5.27505e-05
5.27555e-05
5.27559e-05
5.2751e-05
5.27565e-05
5.27564e-05
5.45928e-05
5.45709e-05
5.27494e-05
5.276e-05
5.27548e-05
5.45758e-05
5.45911e-05
5.45623e-05
5.2758e-05
5.27529e-05
5.27538e-05
5.27486e-05
5.4587e-05
5.45628e-05
5.27563e-05
5.27566e-05
5.2752e-05
5.27523e-05
5.27571e-05
5.2753e-05
5.27528e-05
5.45956e-05
5.4563e-05
5.27555e-05
5.27565e-05
5.27512e-05
5.45668e-05
5.45828e-05
5.45435e-05
5.2752e-05
5.27468e-05
5.27373e-05
5.27321e-05