/*--------------------------------*- C++ -*----------------------------------*\
| =========                 |                                                 |
| \\      /  F ield         | OpenFOAM: The Open Source CFD Toolbox           |
|  \\    /   O peration     | Version:  2312                                  |
|   \\  /    A nd           | Website:  www.openfoam.com                      |
|    \\/     M anipulation  |                                                 |
\*---------------------------------------------------------------------------*/
FoamFile
{
    version     2.0;
    format      ascii;
    arch        "LSB;label=32;scalar=64";
    class       volScalarField;
    location    "750";
    object      epsilon;
}
// * * * * * * * * * * * * * * * * * * * * * * * * * * * * * * * * * * * * * //

dimensions      [0 2 -3 0 0 0 0];

internalField   nonuniform List<scalar> 
43008
(
1.40297e-07
2.1534e-07
1.36485e-07
2.21694e-07
2.2171e-07
3.34225e-07
3.14672e-07
3.29148e-07
2.15377e-07
2.15408e-07
2.19963e-07
2.19995e-07
3.29717e-07
2.15344e-07
2.15408e-07
2.1993e-07
2.19999e-07
2.19909e-07
2.1996e-07
3.14772e-07
3.29186e-07
2.15364e-07
2.19926e-07
2.19947e-07
3.2978e-07
3.34484e-07
2.21751e-07
2.21781e-07
3.33958e-07
2.21714e-07
2.21783e-07
2.21743e-07
3.34601e-07
2.2173e-07
3.46814e-06
8.88335e-06
3.42452e-06
8.88972e-06
1.85248e-05
3.46752e-06
8.88461e-06
3.42489e-06
8.89097e-06
1.40299e-07
1.40302e-07
1.40299e-07
1.37362e-07
1.37364e-07
1.37368e-07
1.37365e-07
9.88645e-07
2.16723e-07
2.6628e-06
1.59067e-07
1.8535e-05
1.85256e-05
9.88535e-07
1.59528e-07
2.63181e-06
2.16736e-07
9.60969e-07
1.5907e-07
2.66267e-06
3.19738e-07
5.06095e-06
5.06276e-06
3.5848e-06
8.89682e-06
3.54866e-06
8.90282e-06
1.85008e-05
1.84921e-05
3.58497e-06
8.89818e-06
3.54943e-06
8.90412e-06
1.36487e-07
1.36491e-07
1.36488e-07
1.07277e-06
2.71936e-06
1.58254e-07
2.23621e-07
1.0443e-06
2.74729e-06
1.58113e-07
1.85014e-05
1.84927e-05
1.07296e-06
1.58266e-07
2.71946e-06
2.23634e-07
1.04441e-06
1.5812e-07
2.74557e-06
5.09353e-06
5.09527e-06
3.4064e-07
5.10697e-06
5.11065e-06
1.85318e-05
1.8522e-05
1.85347e-05
1.85251e-05
5.04345e-06
5.04416e-06
3.19609e-07
5.05932e-06
5.06289e-06
1.85052e-05
1.85143e-05
1.85083e-05
1.85174e-05
3.24174e-07
5.08432e-06
5.08812e-06
5.07047e-06
5.07108e-06
3.46845e-06
8.8836e-06
3.42418e-06
8.89e-06
9.88022e-07
2.63181e-06
1.59527e-07
2.16772e-07
9.61426e-07
2.66265e-06
1.59072e-07
9.88506e-07
2.63238e-06
1.59535e-07
2.16805e-07
9.60886e-07
2.66316e-06
1.59077e-07
3.48921e-06
8.89636e-06
8.89024e-06
3.52939e-06
3.48896e-06
8.89674e-06
8.89056e-06
3.52938e-06
1.00289e-06
2.18306e-07
2.70607e-06
1.58437e-07
2.67667e-06
1.58736e-07
1.02974e-06
1.00228e-06
2.18337e-07
2.70662e-06
1.5844e-07
2.67729e-06
1.58741e-07
1.0304e-06
3.19852e-07
5.06249e-06
5.06108e-06
1.8523e-05
1.85082e-05
1.85171e-05
3.23856e-07
5.08779e-06
5.08626e-06
5.07069e-06
5.06927e-06
1.85061e-05
1.85153e-05
9.883e-07
2.63228e-06
1.59536e-07
2.1674e-07
9.61052e-07
2.66321e-06
1.59078e-07
3.46869e-06
8.88415e-06
3.42418e-06
8.89049e-06
9.88274e-07
1.59539e-07
2.63238e-06
2.16808e-07
9.61016e-07
1.59082e-07
2.66325e-06
3.48985e-06
8.89768e-06
8.89154e-06
3.52885e-06
1.00252e-06
2.18273e-07
2.70672e-06
1.58442e-07
2.67723e-06
1.58743e-07
1.03041e-06
3.48889e-06
8.89718e-06
8.89106e-06
3.52987e-06
1.00248e-06
2.18337e-07
1.58446e-07
2.70688e-06
1.58748e-07
2.67735e-06
1.03028e-06
3.46709e-06
8.89021e-06
9.87781e-07
2.16766e-07
1.59069e-07
2.66293e-06
3.46807e-06
8.89022e-06
1.00219e-06
2.18248e-07
2.7062e-06
1.58431e-07
2.67661e-06
1.58727e-07
1.03048e-06
3.49004e-06
8.89683e-06
8.89075e-06
3.52859e-06
1.00292e-06
2.18296e-07
1.58433e-07
2.70424e-06
1.58733e-07
2.6769e-06
1.02979e-06
3.48932e-06
8.89686e-06
8.89081e-06
3.5295e-06
5.0439e-06
5.04233e-06
3.19328e-07
5.06259e-06
5.06106e-06
1.85326e-05
1.85232e-05
1.85088e-05
1.85179e-05
3.24268e-07
5.08789e-06
5.08637e-06
5.07081e-06
5.0693e-06
1.85065e-05
1.85155e-05
9.88323e-07
1.5953e-07
2.63238e-06
2.16755e-07
9.60922e-07
1.59072e-07
2.66325e-06
3.46881e-06
8.88407e-06
3.42414e-06
8.89041e-06
3.46868e-06
8.88436e-06
3.42425e-06
8.89075e-06
1.00245e-06
2.18264e-07
1.58436e-07
2.70641e-06
1.58736e-07
2.67675e-06
1.03058e-06
1.00256e-06
2.18286e-07
1.58438e-07
2.70697e-06
1.58738e-07
2.67737e-06
1.03062e-06
3.48916e-06
8.89711e-06
8.89099e-06
3.52993e-06
3.48919e-06
8.89745e-06
8.8913e-06
3.52992e-06
1.85241e-05
1.85259e-05
3.23658e-07
5.08618e-06
5.08798e-06
5.06906e-06
5.07087e-06
1.85073e-05
1.85164e-05
1.85092e-05
1.85182e-05
1.84979e-05
1.84893e-05
1.85008e-05
1.84921e-05
5.09476e-06
5.09539e-06
3.40071e-07
5.10712e-06
5.10882e-06
3.58532e-06
8.89728e-06
3.54877e-06
8.90316e-06
1.07233e-06
2.71965e-06
1.58266e-07
2.23678e-07
1.04497e-06
2.74563e-06
1.58121e-07
1.07286e-06
2.72024e-06
1.58269e-07
2.2371e-07
1.04437e-06
2.74626e-06
1.58123e-07
5.09507e-06
5.09364e-06
3.40013e-07
5.10852e-06
5.10895e-06
1.84985e-05
1.849e-05
1.0728e-06
2.72024e-06
1.58272e-07
2.23642e-07
1.04451e-06
2.74622e-06
1.58126e-07
3.58621e-06
8.8977e-06
3.54851e-06
8.90366e-06
1.07282e-06
1.58277e-07
2.7199e-06
2.23717e-07
1.0446e-06
1.58129e-07
2.74795e-06
3.58467e-06
8.89733e-06
3.54956e-06
8.90333e-06
1.07245e-06
1.58262e-07
2.72076e-06
2.23675e-07
1.04497e-06
1.58116e-07
2.74595e-06
3.58517e-06
8.89739e-06
3.54892e-06
8.90334e-06
5.09509e-06
5.09363e-06
3.3962e-07
5.11056e-06
5.10905e-06
1.8499e-05
1.84903e-05
1.07335e-06
1.58268e-07
2.71989e-06
2.23658e-07
1.04447e-06
1.58122e-07
2.748e-06
3.58493e-06
8.89763e-06
3.54903e-06
8.90359e-06
3.58486e-06
8.89796e-06
3.549e-06
8.90393e-06
1.84998e-05
1.84911e-05
1.85017e-05
1.8493e-05
1.21036e-05
3.45758e-06
1.06414e-05
4.33944e-06
1.06396e-05
4.33119e-06
1.21066e-05
2.2512e-05
7.18484e-06
8.88632e-06
2.25101e-05
7.18676e-06
1.21034e-05
3.43546e-06
1.06381e-05
4.3061e-06
1.21007e-05
1.06396e-05
4.31496e-06
2.25008e-05
7.19244e-06
8.88681e-06
7.1914e-06
2.25027e-05
1.85334e-05
1.85257e-05
1.21037e-05
3.458e-06
4.33909e-06
1.06417e-05
4.33135e-06
1.06399e-05
1.21067e-05
2.25118e-05
7.18565e-06
8.88757e-06
2.251e-05
7.1863e-06
1.21035e-05
3.43496e-06
4.3062e-06
1.06384e-05
1.21008e-05
4.31459e-06
1.06398e-05
2.25006e-05
7.19175e-06
8.88809e-06
7.19171e-06
2.25024e-05
1.85342e-05
1.85264e-05
9.71727e-06
2.19931e-05
2.19925e-05
2.19927e-05
2.19922e-05
9.71698e-06
3.80742e-06
5.04743e-06
1.74825e-06
8.97476e-06
3.81418e-06
5.04929e-06
1.75021e-06
8.97961e-06
9.71384e-06
2.20034e-05
2.20028e-05
3.82174e-06
8.98429e-06
5.05598e-06
1.77318e-06
1.76454e-06
8.97745e-06
3.82971e-06
3.82882e-06
8.9891e-06
5.0578e-06
1.77477e-06
1.76594e-06
8.98216e-06
3.83652e-06
1.21172e-05
3.57666e-06
1.06561e-05
4.42463e-06
1.0652e-05
4.41832e-06
1.21205e-05
2.24742e-05
7.20602e-06
8.8996e-06
2.24726e-05
7.20658e-06
1.21169e-05
3.55822e-06
1.06481e-05
4.39834e-06
1.21137e-05
1.06515e-05
4.40514e-06
2.24631e-05
7.20998e-06
8.90007e-06
7.20968e-06
2.24647e-05
1.85001e-05
1.84928e-05
1.21173e-05
3.5771e-06
4.42471e-06
1.06563e-05
4.41848e-06
1.06522e-05
1.21205e-05
2.24741e-05
7.20626e-06
8.90092e-06
2.24724e-05
7.20645e-06
1.21169e-05
3.55756e-06
4.39861e-06
1.06484e-05
1.21137e-05
4.40506e-06
1.06516e-05
2.2463e-05
7.20999e-06
8.90139e-06
7.20989e-06
2.24645e-05
1.85007e-05
1.84933e-05
9.72658e-06
2.19519e-05
2.19514e-05
2.19516e-05
2.19511e-05
9.72549e-06
3.89209e-06
1.83679e-06
9.00466e-06
5.09763e-06
3.8857e-06
1.84477e-06
9.01094e-06
3.89771e-06
1.83853e-06
9.00944e-06
5.09952e-06
3.89294e-06
1.84624e-06
9.01583e-06
9.72389e-06
2.19619e-05
2.19614e-05
9.7248e-06
2.19622e-05
2.19616e-05
3.90427e-06
9.01925e-06
5.10505e-06
1.86754e-06
1.85998e-06
9.01314e-06
3.91114e-06
3.91216e-06
9.02418e-06
5.10646e-06
1.86924e-06
1.86171e-06
9.01795e-06
3.91699e-06
1.85307e-05
1.85228e-05
1.85338e-05
1.8526e-05
9.71764e-06
2.19933e-05
2.19928e-05
2.1993e-05
2.19924e-05
9.71735e-06
3.80707e-06
1.73957e-06
8.96757e-06
5.04576e-06
3.79886e-06
8.97442e-06
1.74807e-06
3.81415e-06
1.74128e-06
8.97282e-06
5.04932e-06
3.8058e-06
8.97971e-06
1.74945e-06
9.71426e-06
2.20033e-05
2.20028e-05
9.7144e-06
2.20037e-05
2.20031e-05
3.82173e-06
8.98385e-06
5.05733e-06
1.77294e-06
8.97729e-06
3.8296e-06
1.76445e-06
3.82856e-06
8.98917e-06
5.05792e-06
1.7743e-06
8.98248e-06
3.83652e-06
1.7662e-06
1.8506e-05
1.85135e-05
1.8509e-05
1.85166e-05
9.71997e-06
2.19826e-05
2.19821e-05
9.72053e-06
2.19828e-05
2.19824e-05
3.86436e-06
1.82126e-06
5.08266e-06
9.00195e-06
8.99554e-06
1.81305e-06
3.87189e-06
3.87141e-06
1.82306e-06
5.08369e-06
9.00732e-06
9.00091e-06
1.81467e-06
3.87889e-06
3.85119e-06
8.98661e-06
1.78887e-06
5.07199e-06
3.84353e-06
8.99308e-06
1.79735e-06
3.85817e-06
8.99191e-06
1.79062e-06
5.07577e-06
3.85044e-06
8.99839e-06
1.79895e-06
9.72298e-06
2.19722e-05
2.19721e-05
2.19719e-05
2.19718e-05
9.72225e-06
1.21039e-05
3.45731e-06
1.06413e-05
4.33892e-06
1.06395e-05
4.33147e-06
1.21068e-05
2.25125e-05
7.18402e-06
8.88655e-06
2.25107e-05
7.18407e-06
1.21037e-05
3.43578e-06
1.0638e-05
4.30654e-06
1.06394e-05
1.2101e-05
4.31441e-06
2.25014e-05
7.1909e-06
8.88713e-06
7.19049e-06
2.25032e-05
1.21099e-05
1.06418e-05
4.35481e-06
3.49956e-06
1.21068e-05
1.06441e-05
4.36261e-06
2.24821e-05
8.89349e-06
7.20257e-06
2.24837e-05
7.20198e-06
2.24933e-05
7.19642e-06
8.89303e-06
2.24915e-05
7.19793e-06
1.21102e-05
3.51955e-06
1.06475e-05
4.38453e-06
1.21133e-05
1.06447e-05
4.37717e-06
1.21101e-05
1.06417e-05
4.35525e-06
3.49954e-06
1.21071e-05
1.0644e-05
4.36214e-06
2.24825e-05
8.89391e-06
7.20075e-06
7.20055e-06
2.2484e-05
2.24937e-05
7.19562e-06
8.89342e-06
2.2492e-05
7.1954e-06
1.21104e-05
3.5195e-06
1.06473e-05
4.38398e-06
1.06446e-05
4.37764e-06
1.21135e-05
9.71765e-06
2.19932e-05
2.19934e-05
2.19928e-05
2.1993e-05
9.71733e-06
3.81291e-06
5.04897e-06
8.9791e-06
1.74906e-06
3.80562e-06
5.04745e-06
1.74704e-06
8.9745e-06
9.71414e-06
2.20037e-05
2.20039e-05
3.82988e-06
8.98861e-06
5.05766e-06
1.77383e-06
8.98255e-06
1.76683e-06
3.83523e-06
3.82279e-06
8.98396e-06
5.05608e-06
1.77187e-06
1.76494e-06
8.97796e-06
3.82793e-06
1.85316e-05
1.85237e-05
1.85089e-05
1.85165e-05
9.72004e-06
2.19826e-05
2.19827e-05
9.72059e-06
2.1983e-05
2.19831e-05
3.8729e-06
1.8227e-06
5.08332e-06
9.00674e-06
1.81489e-06
9.00108e-06
3.87743e-06
3.86576e-06
1.82026e-06
5.08191e-06
9.00208e-06
8.99641e-06
1.81354e-06
3.87018e-06
3.857e-06
8.99194e-06
1.79106e-06
5.07538e-06
1.79868e-06
3.85175e-06
8.99793e-06
3.84974e-06
8.98727e-06
1.78957e-06
5.07381e-06
3.84456e-06
8.99321e-06
1.79631e-06
9.72308e-06
2.19725e-05
2.19727e-05
2.19723e-05
2.19724e-05
9.72232e-06
1.85067e-05
1.85144e-05
1.21039e-05
3.45732e-06
1.06415e-05
4.33882e-06
1.06397e-05
4.33139e-06
1.21068e-05
2.25114e-05
7.18269e-06
8.88709e-06
2.25095e-05
7.1849e-06
1.21037e-05
3.43583e-06
1.06382e-05
4.30647e-06
1.06397e-05
1.21009e-05
4.31422e-06
2.25002e-05
7.19044e-06
8.88763e-06
7.18943e-06
2.2502e-05
1.211e-05
4.35506e-06
1.0642e-05
3.49893e-06
1.21069e-05
4.36226e-06
1.06443e-05
2.24819e-05
8.89482e-06
7.202e-06
2.24836e-05
7.20198e-06
2.2493e-05
7.19717e-06
8.89432e-06
2.24913e-05
7.19731e-06
1.21103e-05
3.52023e-06
4.38421e-06
1.06477e-05
1.21134e-05
4.37748e-06
1.06449e-05
1.21101e-05
1.06419e-05
4.35518e-06
3.49985e-06
1.2107e-05
1.06442e-05
4.36209e-06
2.24814e-05
8.89434e-06
7.20054e-06
7.19998e-06
2.24831e-05
2.24925e-05
7.19444e-06
8.89387e-06
2.24908e-05
7.19604e-06
1.21104e-05
3.51939e-06
1.06475e-05
4.38404e-06
1.06447e-05
4.37754e-06
1.21135e-05
1.21031e-05
3.45814e-06
4.33813e-06
1.06414e-05
4.33167e-06
1.06396e-05
1.21059e-05
2.24987e-05
7.19104e-06
8.88723e-06
7.19119e-06
2.25009e-05
1.21037e-05
3.45763e-06
1.06413e-05
4.33855e-06
1.06395e-05
4.33161e-06
1.21066e-05
2.25005e-05
7.19085e-06
8.88731e-06
7.189e-06
2.25022e-05
1.21092e-05
4.35543e-06
1.06418e-05
3.49861e-06
1.21063e-05
4.3615e-06
1.0644e-05
2.24799e-05
8.89396e-06
7.20153e-06
7.20142e-06
2.2482e-05
2.24914e-05
7.19674e-06
8.89352e-06
2.24894e-05
7.19685e-06
1.21096e-05
3.5205e-06
4.3834e-06
1.06473e-05
4.37778e-06
1.06447e-05
1.21127e-05
1.21099e-05
1.06416e-05
4.3553e-06
3.49941e-06
1.21069e-05
1.06439e-05
4.36198e-06
2.24815e-05
8.89405e-06
7.20047e-06
7.19971e-06
2.24831e-05
2.24927e-05
7.19497e-06
8.89358e-06
2.2491e-05
7.19577e-06
1.21102e-05
3.51974e-06
1.06472e-05
4.38386e-06
1.06445e-05
4.37761e-06
1.21133e-05
9.71724e-06
2.19926e-05
2.19928e-05
2.19922e-05
2.19924e-05
9.71691e-06
3.81412e-06
1.74106e-06
8.97258e-06
5.04909e-06
8.97902e-06
3.80586e-06
1.74983e-06
3.80699e-06
1.7395e-06
8.96741e-06
5.04752e-06
1.74803e-06
3.79874e-06
8.97456e-06
9.7138e-06
2.20024e-05
2.20026e-05
2.20028e-05
9.71394e-06
2.2003e-05
3.82865e-06
8.98857e-06
5.05761e-06
1.77463e-06
8.98214e-06
1.76597e-06
3.83656e-06
3.82152e-06
8.98403e-06
5.05606e-06
1.77295e-06
1.76436e-06
8.97714e-06
3.82949e-06
1.85318e-05
1.85239e-05
1.85095e-05
1.85171e-05
9.71957e-06
2.19819e-05
2.19821e-05
9.72014e-06
2.19823e-05
2.19825e-05
3.87152e-06
1.82328e-06
5.08341e-06
9.00681e-06
1.81473e-06
9.00047e-06
3.8789e-06
3.86444e-06
1.8214e-06
5.08194e-06
9.00209e-06
8.99574e-06
1.81315e-06
3.87168e-06
3.85813e-06
8.99143e-06
1.79053e-06
5.07553e-06
1.79912e-06
3.85053e-06
8.99786e-06
3.85101e-06
8.98656e-06
1.78886e-06
5.07397e-06
3.84339e-06
8.99318e-06
1.79722e-06
9.72263e-06
2.1972e-05
2.19721e-05
2.19717e-05
2.19718e-05
9.72187e-06
1.85071e-05
1.85147e-05
1.21034e-05
3.45743e-06
4.33924e-06
1.06415e-05
4.33133e-06
1.06397e-05
1.21063e-05
2.25108e-05
7.18428e-06
8.887e-06
7.18582e-06
2.2509e-05
1.21032e-05
3.43606e-06
4.30632e-06
1.06382e-05
4.31476e-06
1.21004e-05
1.06396e-05
2.24996e-05
7.19198e-06
8.88755e-06
7.19009e-06
2.25014e-05
1.2104e-05
3.45747e-06
4.33893e-06
1.06415e-05
4.33158e-06
1.06397e-05
1.2107e-05
2.25122e-05
7.18296e-06
8.88733e-06
2.25104e-05
7.18498e-06
1.21038e-05
3.43592e-06
4.30663e-06
1.06382e-05
1.21011e-05
4.31443e-06
1.06397e-05
2.25011e-05
7.19082e-06
8.88787e-06
7.18932e-06
2.25028e-05
1.21096e-05
4.35503e-06
1.06418e-05
3.49977e-06
1.21065e-05
4.36257e-06
1.06441e-05
2.24808e-05
8.89426e-06
7.20193e-06
7.20114e-06
2.24825e-05
2.24919e-05
7.19637e-06
8.89378e-06
2.24902e-05
7.19721e-06
1.21099e-05
3.51975e-06
4.38436e-06
1.06475e-05
4.37738e-06
1.06447e-05
1.2113e-05
1.21103e-05
4.35536e-06
1.06419e-05
3.49987e-06
1.21072e-05
4.36218e-06
1.06442e-05
2.24823e-05
8.89463e-06
7.20089e-06
7.20004e-06
2.24839e-05
2.24934e-05
7.19484e-06
8.89412e-06
2.24917e-05
7.19615e-06
1.21106e-05
3.5197e-06
4.38414e-06
1.06475e-05
4.37772e-06
1.06448e-05
1.21137e-05
1.85327e-05
1.85249e-05
1.85345e-05
1.85267e-05
9.71966e-06
2.19824e-05
2.19819e-05
9.72018e-06
2.19827e-05
2.19822e-05
3.86591e-06
1.82165e-06
5.08173e-06
9.00234e-06
3.87053e-06
1.81321e-06
8.99584e-06
3.87278e-06
1.82298e-06
5.0835e-06
9.00722e-06
3.87758e-06
1.81491e-06
9.00062e-06
3.84967e-06
8.98685e-06
1.78895e-06
5.07368e-06
3.84412e-06
1.79751e-06
8.99341e-06
3.85666e-06
8.99161e-06
1.7906e-06
5.07552e-06
3.85113e-06
1.79893e-06
8.99827e-06
9.72267e-06
2.19724e-05
2.19719e-05
9.72195e-06
2.19721e-05
2.19716e-05
1.8508e-05
1.85156e-05
1.85099e-05
1.85175e-05
1.84973e-05
1.849e-05
1.85002e-05
1.84928e-05
9.72683e-06
2.19518e-05
2.19518e-05
2.19514e-05
2.19513e-05
9.72578e-06
3.89161e-06
1.83652e-06
9.00437e-06
5.09612e-06
3.88441e-06
9.01054e-06
1.84465e-06
3.89868e-06
1.83808e-06
9.00974e-06
5.09946e-06
3.89151e-06
9.01592e-06
1.84647e-06
9.72417e-06
2.19616e-05
2.19615e-05
9.7251e-06
2.19619e-05
2.19618e-05
3.90396e-06
9.01888e-06
5.10584e-06
1.86807e-06
9.01281e-06
3.91098e-06
1.85968e-06
3.91106e-06
9.02427e-06
5.10703e-06
1.86954e-06
9.01818e-06
3.91807e-06
1.86129e-06
1.21174e-05
3.57664e-06
1.06555e-05
4.42417e-06
1.06523e-05
4.41873e-06
1.21206e-05
2.24745e-05
7.20477e-06
8.89998e-06
2.24729e-05
7.20497e-06
1.2117e-05
3.55791e-06
1.06481e-05
4.39886e-06
1.06512e-05
1.21139e-05
4.40461e-06
2.24634e-05
7.20849e-06
8.90044e-06
7.20835e-06
2.24649e-05
9.72694e-06
2.19518e-05
2.19522e-05
2.19515e-05
2.19519e-05
9.72584e-06
3.89781e-06
1.83858e-06
9.00963e-06
5.09913e-06
9.01517e-06
3.89301e-06
1.84569e-06
3.89169e-06
1.83723e-06
9.00511e-06
5.09777e-06
1.84394e-06
3.88558e-06
9.01066e-06
9.72425e-06
2.19618e-05
2.19621e-05
2.19621e-05
9.72516e-06
2.19624e-05
3.91183e-06
9.02342e-06
5.10675e-06
1.8684e-06
9.01814e-06
1.86198e-06
3.917e-06
3.90406e-06
9.01888e-06
5.10493e-06
1.86696e-06
1.86034e-06
9.01366e-06
3.91076e-06
1.84979e-05
1.84905e-05
1.21174e-05
3.57639e-06
1.06562e-05
4.42442e-06
1.0652e-05
4.41843e-06
1.21206e-05
2.24736e-05
7.20403e-06
8.90045e-06
2.24719e-05
7.20455e-06
1.2117e-05
3.5585e-06
1.06482e-05
4.39871e-06
1.06516e-05
1.21138e-05
4.40482e-06
2.24625e-05
7.20804e-06
8.90091e-06
7.20779e-06
2.2464e-05
1.21166e-05
3.57717e-06
4.42376e-06
1.06554e-05
4.41878e-06
1.06524e-05
1.21197e-05
2.24725e-05
7.20565e-06
8.9001e-06
7.20574e-06
2.24705e-05
1.21162e-05
3.55744e-06
4.399e-06
1.06482e-05
4.40409e-06
1.2113e-05
1.06512e-05
2.24611e-05
7.20915e-06
8.90053e-06
7.20921e-06
2.2463e-05
1.21171e-05
3.57666e-06
1.06553e-05
4.42404e-06
1.06522e-05
4.4187e-06
1.21203e-05
2.24735e-05
7.2039e-06
8.90013e-06
2.2472e-05
7.20442e-06
1.21168e-05
3.55788e-06
1.0648e-05
4.39881e-06
1.21136e-05
1.06511e-05
4.40457e-06
2.24624e-05
7.20785e-06
8.90056e-06
7.20753e-06
2.24639e-05
9.72649e-06
2.19514e-05
2.19516e-05
2.19511e-05
2.19513e-05
9.72535e-06
3.89864e-06
1.83815e-06
9.0093e-06
5.09937e-06
9.01541e-06
3.89164e-06
1.8465e-06
3.89007e-06
1.83675e-06
9.00454e-06
5.09786e-06
1.84392e-06
3.8849e-06
9.01066e-06
9.72378e-06
2.19614e-05
2.19616e-05
2.19617e-05
9.72473e-06
2.19618e-05
3.91117e-06
9.02374e-06
5.10638e-06
1.86984e-06
9.0178e-06
1.86138e-06
3.91798e-06
3.90475e-06
9.01897e-06
5.10493e-06
1.86732e-06
1.86015e-06
9.01301e-06
3.90989e-06
1.84983e-05
1.84909e-05
1.21169e-05
3.57709e-06
4.42462e-06
1.06556e-05
4.41858e-06
1.06525e-05
1.21201e-05
2.2473e-05
7.20538e-06
8.90038e-06
7.20591e-06
2.24714e-05
1.21165e-05
3.55806e-06
4.39863e-06
1.06483e-05
4.40502e-06
1.21133e-05
1.06513e-05
2.24619e-05
7.20939e-06
8.90084e-06
7.20907e-06
2.24634e-05
1.21176e-05
3.57712e-06
4.42437e-06
1.06556e-05
4.41873e-06
1.06526e-05
1.21207e-05
2.24744e-05
7.20428e-06
8.90073e-06
2.24729e-05
7.20477e-06
1.21172e-05
3.55805e-06
4.39894e-06
1.06484e-05
1.2114e-05
4.40482e-06
1.06514e-05
2.24634e-05
7.20816e-06
8.90118e-06
7.20811e-06
2.24649e-05
1.84991e-05
1.84917e-05
1.8501e-05
1.84937e-05
1.27764e-07
1.27762e-07
1.39267e-07
1.26358e-07
1.26355e-07
1.21064e-07
1.22602e-07
1.55068e-06
3.15085e-07
6.55784e-07
6.56036e-07
1.22377e-07
1.22375e-07
1.35666e-07
1.21127e-07
1.21124e-07
1.15234e-07
1.16645e-07
1.64818e-06
7.07088e-07
7.07317e-07
3.35027e-07
1.64153e-06
7.12197e-07
7.12767e-07
1.54949e-06
6.50816e-07
6.51038e-07
3.14483e-07
1.54137e-06
6.55247e-07
6.55707e-07
1.61654e-06
3.29186e-07
6.97393e-07
6.97912e-07
6.93031e-07
6.93242e-07
1.62454e-06
1.54873e-06
3.15165e-07
6.54656e-07
6.55427e-07
1.61706e-06
3.29118e-07
6.97811e-07
6.96598e-07
6.93171e-07
6.93257e-07
1.62365e-06
1.55027e-06
6.51794e-07
6.50986e-07
3.14682e-07
6.55243e-07
1.54102e-06
6.54663e-07
1.61626e-06
3.29239e-07
6.96774e-07
6.97377e-07
6.93735e-07
6.93024e-07
1.62495e-06
1.61736e-06
3.29087e-07
6.97976e-07
6.98525e-07
1.62362e-06
6.92845e-07
6.93103e-07
1.64801e-06
7.07228e-07
7.07664e-07
3.34323e-07
1.64068e-06
7.11612e-07
7.11093e-07
1.64825e-06
7.07703e-07
7.07873e-07
3.34995e-07
7.11275e-07
1.64137e-06
7.11109e-07
1.64877e-06
7.08093e-07
7.07308e-07
3.34451e-07
7.116e-07
1.64042e-06
7.12262e-07
1.27765e-07
1.2776e-07
1.39269e-07
1.26358e-07
1.26355e-07
1.21064e-07
1.22602e-07
1.27766e-07
1.27762e-07
1.39272e-07
1.2636e-07
1.26355e-07
1.21065e-07
1.22603e-07
1.27763e-07
1.27762e-07
1.39269e-07
1.26357e-07
1.26355e-07
1.21064e-07
1.22602e-07
1.38286e-07
1.23665e-07
1.23663e-07
1.24993e-07
1.24991e-07
1.19559e-07
1.18086e-07
1.38288e-07
1.23666e-07
1.23662e-07
1.24994e-07
1.24989e-07
1.19559e-07
1.18086e-07
1.38291e-07
1.23668e-07
1.23663e-07
1.24996e-07
1.24991e-07
1.1956e-07
1.18087e-07
1.38288e-07
1.23665e-07
1.23663e-07
1.24993e-07
1.24991e-07
1.19559e-07
1.18086e-07
4.12835e-07
9.81444e-07
1.29392e-06
3.3887e-07
1.28761e-06
3.37178e-07
4.13027e-07
5.76394e-07
1.92634e-06
2.65448e-06
8.8834e-07
8.8302e-07
1.91767e-06
5.79607e-07
4.1204e-07
9.81685e-07
3.38879e-07
1.29473e-06
3.37195e-07
1.28712e-06
4.14161e-07
5.6945e-07
8.66548e-07
1.89383e-06
2.6402e-06
5.6624e-07
8.72641e-07
1.9015e-06
4.07206e-07
9.67773e-07
3.3205e-07
1.26376e-06
4.05127e-07
3.33609e-07
1.27171e-06
5.76432e-07
1.92578e-06
2.65441e-06
8.88922e-07
8.82583e-07
1.91773e-06
5.79624e-07
1.56645e-06
3.19072e-07
6.69683e-07
6.69913e-07
6.64442e-07
6.6472e-07
1.57533e-06
1.22378e-07
1.22373e-07
1.35668e-07
1.21127e-07
1.21124e-07
1.15234e-07
1.16644e-07
1.2238e-07
1.22376e-07
1.35672e-07
1.21129e-07
1.21125e-07
1.15234e-07
1.16645e-07
1.22378e-07
1.22376e-07
1.35669e-07
1.21127e-07
1.21124e-07
1.15234e-07
1.16645e-07
4.43697e-07
1.0656e-06
1.38667e-06
3.62056e-07
1.37944e-06
3.59949e-07
4.44011e-07
6.11607e-07
9.32582e-07
1.98723e-06
2.72684e-06
6.08233e-07
9.3784e-07
1.99418e-06
4.35299e-07
1.05149e-06
1.357e-06
3.53836e-07
4.35404e-07
1.36298e-06
3.55718e-07
6.19275e-07
2.01583e-06
2.7397e-06
9.54584e-07
9.49294e-07
2.0098e-06
6.22835e-07
4.43263e-07
1.06572e-06
3.61273e-07
1.38729e-06
3.60142e-07
1.37912e-06
4.44962e-07
6.11616e-07
9.32283e-07
1.98706e-06
2.72688e-06
6.08095e-07
9.38646e-07
1.99518e-06
4.37005e-07
1.05167e-06
3.53898e-07
1.35635e-06
4.34664e-07
3.55669e-07
1.36418e-06
6.19237e-07
2.01732e-06
2.73987e-06
9.55628e-07
9.48798e-07
2.00938e-06
6.22844e-07
1.66546e-06
3.39625e-07
7.27028e-07
7.27506e-07
7.21462e-07
7.21702e-07
1.67169e-06
1.5668e-06
3.19502e-07
6.69042e-07
6.69528e-07
1.57467e-06
6.64603e-07
6.64839e-07
1.59953e-06
3.24245e-07
6.78743e-07
6.78934e-07
1.59185e-06
6.83222e-07
6.83728e-07
4.12761e-07
9.81842e-07
1.29391e-06
3.38212e-07
1.28777e-06
3.37645e-07
4.12947e-07
5.69472e-07
8.66986e-07
1.8937e-06
2.64013e-06
1.90216e-06
5.66307e-07
8.722e-07
4.05755e-07
9.67343e-07
1.26469e-06
3.32615e-07
1.27065e-06
4.05641e-07
3.32967e-07
5.76505e-07
1.92618e-06
2.65435e-06
8.88548e-07
1.91743e-06
8.83173e-07
5.79647e-07
4.11921e-07
9.81463e-07
1.29457e-06
3.38193e-07
1.28708e-06
3.37654e-07
4.13898e-07
5.69469e-07
8.67331e-07
1.89333e-06
2.64068e-06
5.66328e-07
1.90218e-06
8.7261e-07
4.06616e-07
9.67881e-07
1.26389e-06
3.32622e-07
4.05406e-07
1.27133e-06
3.32961e-07
5.76524e-07
1.92598e-06
2.65498e-06
8.89053e-07
1.9171e-06
5.79637e-07
8.83536e-07
4.20314e-07
1.31094e-06
3.43103e-07
1.00873e-06
4.20195e-07
1.31722e-06
3.43605e-07
5.97302e-07
9.21712e-07
2.69849e-06
1.973e-06
9.15994e-07
1.96473e-06
6.00591e-07
5.90065e-07
1.94128e-06
8.99484e-07
2.68472e-06
9.05308e-07
5.86819e-07
1.94916e-06
4.27793e-07
1.02384e-06
1.34031e-06
3.49175e-07
1.33396e-06
3.48608e-07
4.27647e-07
4.21339e-07
1.31025e-06
3.43082e-07
1.00937e-06
4.19115e-07
1.31785e-06
3.43576e-07
5.97329e-07
9.22344e-07
2.69905e-06
1.97287e-06
1.96437e-06
9.16362e-07
6.00595e-07
5.90061e-07
1.94091e-06
8.99795e-07
2.6854e-06
5.86835e-07
1.94937e-06
9.05881e-07
4.26625e-07
1.02329e-06
1.34095e-06
3.4918e-07
1.33326e-06
3.48596e-07
4.28877e-07
1.56732e-06
3.19058e-07
6.69537e-07
6.68277e-07
6.65222e-07
6.6492e-07
1.5742e-06
1.59927e-06
3.2464e-07
6.78853e-07
6.79479e-07
6.83628e-07
1.59229e-06
6.82283e-07
4.12054e-07
9.81671e-07
1.2948e-06
3.38907e-07
1.28724e-06
3.37226e-07
4.14044e-07
5.69506e-07
8.67211e-07
1.89401e-06
2.64058e-06
1.90189e-06
5.66339e-07
8.72616e-07
4.06996e-07
9.67608e-07
1.26399e-06
3.32149e-07
1.27154e-06
4.05067e-07
3.33657e-07
5.76527e-07
1.92634e-06
2.65489e-06
8.88905e-07
1.91781e-06
8.83421e-07
5.79682e-07
4.12752e-07
9.816e-07
3.38854e-07
1.29459e-06
3.37205e-07
1.28711e-06
4.12925e-07
5.69468e-07
8.67014e-07
1.89385e-06
2.64091e-06
5.66302e-07
1.90158e-06
8.73178e-07
4.0576e-07
9.67641e-07
3.32145e-07
1.26387e-06
4.05624e-07
3.33611e-07
1.27135e-06
5.76499e-07
1.92529e-06
2.65496e-06
8.89439e-07
1.91773e-06
5.79625e-07
8.83074e-07
4.21239e-07
1.31024e-06
3.42586e-07
1.00927e-06
4.19085e-07
1.3182e-06
3.44318e-07
5.97326e-07
9.21743e-07
2.69908e-06
1.97294e-06
9.16373e-07
1.96474e-06
6.0063e-07
5.90094e-07
1.94133e-06
8.9976e-07
2.68526e-06
9.05614e-07
5.86831e-07
1.94937e-06
4.26604e-07
1.02347e-06
1.34115e-06
3.4996e-07
1.33318e-06
3.48147e-07
4.28849e-07
4.20314e-07
3.42547e-07
1.31031e-06
1.00925e-06
4.20185e-07
3.44262e-07
1.31765e-06
5.97353e-07
9.22834e-07
2.69915e-06
1.97149e-06
1.96455e-06
9.16462e-07
6.00403e-07
5.90052e-07
1.9413e-06
8.9967e-07
2.6855e-06
5.86808e-07
1.94905e-06
9.05787e-07
4.27758e-07
1.02345e-06
3.49894e-07
1.34069e-06
3.48112e-07
1.33346e-06
4.27626e-07
4.11893e-07
9.81856e-07
3.38952e-07
1.29466e-06
3.37276e-07
1.28726e-06
4.13897e-07
5.76229e-07
1.92602e-06
2.65479e-06
8.89216e-07
8.82998e-07
1.91726e-06
5.79551e-07
4.20331e-07
1.31098e-06
3.42529e-07
1.0094e-06
4.20235e-07
1.31691e-06
3.44256e-07
5.97287e-07
9.21234e-07
2.6984e-06
1.97252e-06
6.00575e-07
9.15955e-07
1.96437e-06
5.89993e-07
1.94091e-06
8.99392e-07
2.68464e-06
5.86745e-07
9.0493e-07
1.949e-06
4.27909e-07
1.02317e-06
1.34023e-06
3.4989e-07
4.27572e-07
1.3339e-06
3.48061e-07
4.2148e-07
3.42518e-07
1.31026e-06
1.00868e-06
4.19155e-07
3.44272e-07
1.31776e-06
5.97255e-07
9.22222e-07
2.69913e-06
1.97225e-06
1.96417e-06
9.15923e-07
6.00647e-07
5.89962e-07
1.94064e-06
8.99135e-07
2.68428e-06
5.86659e-07
1.94883e-06
9.05349e-07
4.26652e-07
1.02391e-06
3.49943e-07
1.34108e-06
3.48111e-07
1.33334e-06
4.28915e-07
1.56631e-06
3.19462e-07
6.68608e-07
6.69183e-07
6.64738e-07
6.65748e-07
1.57546e-06
1.59973e-06
3.24249e-07
6.79952e-07
6.78778e-07
6.8232e-07
1.59143e-06
6.83276e-07
4.12806e-07
9.81676e-07
3.38861e-07
1.29433e-06
3.37208e-07
1.28745e-06
4.12939e-07
5.68002e-07
8.66971e-07
1.89466e-06
2.64077e-06
8.73154e-07
5.67218e-07
1.90044e-06
4.05825e-07
9.67726e-07
3.32066e-07
1.26456e-06
3.33621e-07
4.05602e-07
1.27101e-06
5.77671e-07
1.92561e-06
2.65498e-06
8.89363e-07
8.83e-07
1.91843e-06
5.78176e-07
4.21543e-07
3.42552e-07
1.31035e-06
1.00951e-06
4.19278e-07
3.44282e-07
1.3179e-06
5.9721e-07
9.22294e-07
2.69851e-06
1.97299e-06
6.00502e-07
9.15886e-07
1.96439e-06
5.90081e-07
1.94115e-06
8.99129e-07
2.68497e-06
5.86745e-07
9.05439e-07
1.9496e-06
4.26843e-07
1.02335e-06
3.49938e-07
1.34087e-06
4.29094e-07
3.48108e-07
1.33344e-06
4.2035e-07
3.42561e-07
1.31081e-06
1.00939e-06
4.20227e-07
3.44291e-07
1.31745e-06
5.9755e-07
9.22462e-07
2.6992e-06
1.97228e-06
1.96427e-06
9.16445e-07
6.00354e-07
5.89409e-07
1.94106e-06
8.99672e-07
2.68534e-06
5.8779e-07
1.94905e-06
9.05749e-07
4.27805e-07
1.02348e-06
3.49937e-07
1.34035e-06
3.48128e-07
1.33385e-06
4.27664e-07
1.599e-06
3.24681e-07
6.78427e-07
6.78733e-07
1.59205e-06
6.83531e-07
6.8396e-07
1.66481e-06
3.40124e-07
7.26577e-07
7.26229e-07
1.67276e-06
7.21763e-07
7.22425e-07
4.43672e-07
1.06595e-06
1.38657e-06
3.61266e-07
1.37927e-06
3.60388e-07
4.43775e-07
6.11463e-07
9.32365e-07
1.98726e-06
2.72498e-06
1.99442e-06
6.08065e-07
9.38719e-07
4.35304e-07
1.05101e-06
1.35692e-06
3.54534e-07
1.36342e-06
4.35531e-07
3.55075e-07
6.19271e-07
2.01777e-06
2.7408e-06
9.55729e-07
2.00994e-06
9.48991e-07
6.22847e-07
4.42931e-07
1.06562e-06
1.38572e-06
3.61227e-07
1.37935e-06
3.60375e-07
4.44661e-07
6.11511e-07
9.32706e-07
1.98696e-06
2.72561e-06
6.08075e-07
1.99453e-06
9.39067e-07
4.36639e-07
1.05163e-06
1.35631e-06
3.54474e-07
4.34329e-07
1.36343e-06
3.5506e-07
6.19297e-07
2.01579e-06
2.74132e-06
9.55815e-07
2.00976e-06
6.22904e-07
9.49435e-07
1.66465e-06
3.39711e-07
7.2613e-07
7.25968e-07
7.22141e-07
7.22406e-07
1.67208e-06
4.42954e-07
1.06577e-06
1.38672e-06
3.61139e-07
1.37913e-06
3.60202e-07
4.44655e-07
6.11502e-07
9.3315e-07
1.98728e-06
2.72558e-06
1.99485e-06
6.08096e-07
9.37599e-07
4.36671e-07
1.05149e-06
1.35616e-06
3.53987e-07
1.36389e-06
4.34342e-07
3.55572e-07
6.19318e-07
2.01753e-06
2.74138e-06
9.54086e-07
2.00989e-06
9.50169e-07
6.22891e-07
4.43657e-07
1.0658e-06
3.61115e-07
1.3864e-06
3.60171e-07
1.37925e-06
4.43774e-07
6.09936e-07
9.32825e-07
1.98751e-06
2.72746e-06
6.08465e-07
1.99448e-06
9.38429e-07
4.35297e-07
1.05137e-06
3.53971e-07
1.35647e-06
4.35503e-07
3.55557e-07
1.36372e-06
6.2004e-07
2.01691e-06
2.74043e-06
9.54614e-07
2.00983e-06
6.21766e-07
9.4975e-07
4.42922e-07
1.06593e-06
3.61157e-07
1.38726e-06
3.60172e-07
1.3789e-06
4.44645e-07
6.11302e-07
9.32328e-07
1.98712e-06
2.72553e-06
9.38608e-07
6.08128e-07
1.99343e-06
4.3664e-07
1.05111e-06
3.53977e-07
1.3561e-06
3.55571e-07
4.34314e-07
1.36421e-06
6.19433e-07
2.01619e-06
2.74116e-06
9.55821e-07
9.49111e-07
2.0099e-06
6.21342e-07
1.66436e-06
3.40002e-07
7.26991e-07
7.2624e-07
7.21895e-07
7.22069e-07
1.67213e-06
4.43728e-07
1.06571e-06
3.62087e-07
1.38619e-06
3.60046e-07
1.37937e-06
4.43731e-07
6.11352e-07
9.32838e-07
1.98706e-06
2.72745e-06
9.38613e-07
6.07998e-07
1.99443e-06
4.35341e-07
1.05176e-06
3.53902e-07
1.35688e-06
3.55828e-07
4.35541e-07
1.36339e-06
6.19114e-07
2.01676e-06
2.74046e-06
9.55863e-07
9.4966e-07
2.00968e-06
6.22675e-07
4.99174e-07
4.99988e-07
4.9999e-07
4.99915e-07
4.4559e-07
4.54248e-07
4.54261e-07
4.64024e-07
4.03814e-07
4.1889e-07
4.18905e-07
4.39761e-07
3.68436e-07
3.88815e-07
3.8883e-07
4.17822e-07
3.38081e-07
3.62259e-07
3.62278e-07
3.96089e-07
3.11696e-07
3.38344e-07
3.38358e-07
3.74427e-07
2.88502e-07
3.16644e-07
3.16646e-07
3.53469e-07
2.67931e-07
2.96974e-07
2.96967e-07
3.33809e-07
2.49569e-07
2.79274e-07
2.79262e-07
3.16041e-07
2.33109e-07
2.63543e-07
2.63526e-07
3.00608e-07
2.18321e-07
2.49786e-07
2.49768e-07
2.87912e-07
2.0503e-07
2.37996e-07
2.37979e-07
2.77979e-07
1.93097e-07
2.28176e-07
2.28163e-07
2.71337e-07
1.82408e-07
2.20331e-07
2.20324e-07
2.67524e-07
1.72875e-07
2.14466e-07
2.14466e-07
2.66993e-07
1.64422e-07
2.10594e-07
2.106e-07
2.69792e-07
1.56986e-07
2.0872e-07
2.0873e-07
2.75946e-07
1.50515e-07
2.08855e-07
2.08867e-07
2.85327e-07
1.44964e-07
2.11051e-07
2.11066e-07
2.98191e-07
2.15325e-07
3.14497e-07
5.06215e-07
5.05579e-07
5.05581e-07
5.06221e-07
5.05573e-07
5.05573e-07
5.05986e-07
5.05986e-07
5.05986e-07
5.05985e-07
5.05578e-07
5.05568e-07
5.062e-07
5.05576e-07
5.05569e-07
5.06182e-07