/*--------------------------------*- C++ -*----------------------------------*\
| =========                 |                                                 |
| \\      /  F ield         | OpenFOAM: The Open Source CFD Toolbox           |
|  \\    /   O peration     | Version:  2312                                  |
|   \\  /    A nd           | Website:  www.openfoam.com                      |
|    \\/     M anipulation  |                                                 |
\*---------------------------------------------------------------------------*/
FoamFile
{
    version     2.0;
    format      ascii;
    arch        "LSB;label=32;scalar=64";
    class       volScalarField;
    location    "750";
    object      k;
}
// * * * * * * * * * * * * * * * * * * * * * * * * * * * * * * * * * * * * * //

dimensions      [0 2 -2 0 0 0 0];

internalField   nonuniform List<scalar> 
43008
(
1.57103e-05
1.61153e-05
1.52906e-05
1.60662e-05
1.60664e-05
1.76124e-05
1.72544e-05
1.75305e-05
1.6115e-05
1.61152e-05
1.60677e-05
1.60678e-05
1.75305e-05
1.61155e-05
1.6115e-05
1.60681e-05
1.60677e-05
1.60678e-05
1.60671e-05
1.72552e-05
1.75285e-05
1.6115e-05
1.60679e-05
1.60677e-05
1.75192e-05
1.7604e-05
1.60661e-05
1.60663e-05
1.76044e-05
1.60666e-05
1.60663e-05
1.60656e-05
1.76035e-05
1.60662e-05
5.00971e-05
6.99073e-05
4.93372e-05
6.99363e-05
6.97738e-05
5.00982e-05
6.99088e-05
4.93359e-05
6.99378e-05
1.57102e-05
1.57101e-05
1.57098e-05
1.5391e-05
1.53909e-05
1.53907e-05
1.53904e-05
2.60122e-05
1.60925e-05
4.29318e-05
1.53539e-05
6.97975e-05
6.97735e-05
2.60127e-05
1.54379e-05
4.24524e-05
1.60927e-05
2.54931e-05
1.53537e-05
4.29308e-05
1.73363e-05
5.77568e-05
5.77668e-05
5.19458e-05
6.99783e-05
5.12817e-05
7.00053e-05
6.97133e-05
6.96912e-05
5.19473e-05
6.99796e-05
5.12808e-05
7.00067e-05
1.52905e-05
1.52904e-05
1.52901e-05
2.76557e-05
4.38819e-05
1.51277e-05
1.60686e-05
2.71083e-05
4.43307e-05
1.50602e-05
6.9713e-05
6.96909e-05
2.76568e-05
1.51276e-05
4.38835e-05
1.60689e-05
2.711e-05
1.50601e-05
4.43326e-05
5.83098e-05
5.83199e-05
1.77291e-05
5.8566e-05
5.85766e-05
6.97958e-05
6.97718e-05
6.9798e-05
6.97741e-05
5.74668e-05
5.74785e-05
1.7346e-05
5.77591e-05
5.7771e-05
6.97296e-05
6.97526e-05
6.97319e-05
6.9755e-05
1.74078e-05
5.81769e-05
5.81885e-05
5.79033e-05
5.79151e-05
5.00969e-05
6.99045e-05
4.93368e-05
6.99335e-05
2.60163e-05
4.24528e-05
1.5438e-05
1.60923e-05
2.54889e-05
4.29332e-05
1.53539e-05
2.60174e-05
4.24568e-05
1.54379e-05
1.60925e-05
2.5488e-05
4.29345e-05
1.53538e-05
5.03433e-05
6.99717e-05
6.99435e-05
5.10562e-05
5.03431e-05
6.99689e-05
6.99408e-05
5.10558e-05
2.62869e-05
1.6079e-05
4.36443e-05
1.51987e-05
4.31806e-05
1.52745e-05
2.68308e-05
2.6286e-05
1.60792e-05
4.36479e-05
1.51986e-05
4.31847e-05
1.52744e-05
2.68318e-05
1.73456e-05
5.7766e-05
5.77596e-05
6.97719e-05
6.97318e-05
6.97549e-05
1.74095e-05
5.81839e-05
5.81777e-05
5.79109e-05
5.79046e-05
6.97298e-05
6.97527e-05
2.60174e-05
4.24563e-05
1.54383e-05
1.60929e-05
2.54909e-05
4.29368e-05
1.53542e-05
5.00974e-05
6.99041e-05
4.93355e-05
6.99332e-05
2.60195e-05
1.54378e-05
4.24546e-05
1.60924e-05
2.54894e-05
1.53537e-05
4.29347e-05
5.03422e-05
6.99732e-05
6.99448e-05
5.10573e-05
2.62869e-05
1.60795e-05
4.36493e-05
1.5199e-05
4.31856e-05
1.52748e-05
2.68299e-05
5.03421e-05
6.99684e-05
6.99401e-05
5.10564e-05
2.62849e-05
1.6079e-05
1.51985e-05
4.36461e-05
1.52743e-05
4.31848e-05
2.68311e-05
5.00822e-05
6.99354e-05
2.60144e-05
1.60917e-05
1.53536e-05
4.29294e-05
5.00918e-05
6.99331e-05
2.62882e-05
1.60792e-05
4.36453e-05
1.51987e-05
4.31793e-05
1.52745e-05
2.68238e-05
5.0351e-05
6.99703e-05
6.99421e-05
5.10424e-05
2.62868e-05
1.60784e-05
1.51984e-05
4.36433e-05
1.52743e-05
4.31805e-05
2.68286e-05
5.03461e-05
6.9968e-05
6.99396e-05
5.10512e-05
5.74741e-05
5.74682e-05
1.73516e-05
5.77663e-05
5.77608e-05
6.97962e-05
6.97722e-05
6.97315e-05
6.97546e-05
1.74112e-05
5.81841e-05
5.81786e-05
5.79108e-05
5.79055e-05
6.97302e-05
6.97532e-05
2.6018e-05
1.54377e-05
4.24551e-05
1.60924e-05
2.54864e-05
1.53536e-05
4.29373e-05
5.00914e-05
6.99073e-05
4.93447e-05
6.99364e-05
5.00907e-05
6.99043e-05
4.93439e-05
6.99337e-05
2.62905e-05
1.60793e-05
1.51985e-05
4.36457e-05
1.52744e-05
4.31817e-05
2.68261e-05
2.62856e-05
1.60791e-05
1.51984e-05
4.36484e-05
1.52743e-05
4.31851e-05
2.68276e-05
5.03515e-05
6.99716e-05
6.99434e-05
5.10504e-05
5.03506e-05
6.9969e-05
6.99407e-05
5.10498e-05
6.9772e-05
6.97735e-05
1.74194e-05
5.81749e-05
5.81847e-05
5.79012e-05
5.79115e-05
6.97298e-05
6.9753e-05
6.97315e-05
6.97546e-05
6.97109e-05
6.96891e-05
6.97133e-05
6.96913e-05
5.83123e-05
5.83237e-05
1.77445e-05
5.8568e-05
5.858e-05
5.19455e-05
6.99752e-05
5.12817e-05
7.00026e-05
2.76588e-05
4.38839e-05
1.51277e-05
1.60687e-05
2.71058e-05
4.43368e-05
1.50602e-05
2.76572e-05
4.38874e-05
1.51277e-05
1.60687e-05
2.71056e-05
4.43382e-05
1.50602e-05
5.8319e-05
5.83132e-05
1.77442e-05
5.85747e-05
5.85697e-05
6.97112e-05
6.96893e-05
2.76641e-05
4.38886e-05
1.51281e-05
1.60691e-05
2.7107e-05
4.43394e-05
1.50606e-05
5.19462e-05
6.99748e-05
5.12807e-05
7.0002e-05
2.76567e-05
1.51276e-05
4.38877e-05
1.60688e-05
2.71058e-05
1.50601e-05
4.43378e-05
5.1934e-05
6.99769e-05
5.1289e-05
7.00038e-05
2.76623e-05
1.51276e-05
4.38834e-05
1.60679e-05
2.71072e-05
1.506e-05
4.43343e-05
5.19411e-05
6.99742e-05
5.12844e-05
7.00013e-05
5.83192e-05
5.83142e-05
1.77459e-05
5.85757e-05
5.85716e-05
6.97117e-05
6.96897e-05
2.76578e-05
1.51275e-05
4.38883e-05
1.60687e-05
2.71086e-05
1.506e-05
4.43393e-05
5.19403e-05
6.99781e-05
5.12903e-05
7.00053e-05
5.19396e-05
6.99754e-05
5.12895e-05
7.00026e-05
6.97113e-05
6.96891e-05
6.97131e-05
6.9691e-05
6.97449e-05
4.98487e-05
6.90333e-05
5.70687e-05
6.90255e-05
5.68495e-05
6.97561e-05
7.11544e-05
7.3005e-05
6.99185e-05
7.11505e-05
7.3104e-05
6.97441e-05
4.95919e-05
6.90189e-05
5.64665e-05
6.97336e-05
6.90252e-05
5.66917e-05
7.11309e-05
7.3252e-05
6.99254e-05
7.31579e-05
7.11347e-05
6.97954e-05
6.97762e-05
6.97452e-05
4.98474e-05
5.70677e-05
6.90337e-05
5.68477e-05
6.90259e-05
6.97564e-05
7.11549e-05
7.30014e-05
6.992e-05
7.1151e-05
7.31039e-05
6.97445e-05
4.95928e-05
5.64643e-05
6.90194e-05
6.97339e-05
5.66905e-05
6.90257e-05
7.11313e-05
7.32511e-05
6.99268e-05
7.31542e-05
7.11351e-05
6.9795e-05
6.97758e-05
8.65101e-05
7.26169e-05
7.26107e-05
7.26161e-05
7.26099e-05
8.66072e-05
5.44797e-05
5.7537e-05
3.58092e-05
6.8488e-05
5.45459e-05
5.7547e-05
3.58293e-05
6.84988e-05
8.64609e-05
7.26396e-05
7.26333e-05
5.47232e-05
6.8536e-05
5.76865e-05
3.62384e-05
3.61025e-05
6.85052e-05
5.48336e-05
5.47909e-05
6.85472e-05
5.76968e-05
3.62593e-05
3.61221e-05
6.8517e-05
5.49005e-05
6.97971e-05
5.17253e-05
6.90943e-05
5.84305e-05
6.9081e-05
5.82342e-05
6.98094e-05
7.1075e-05
7.35763e-05
6.99887e-05
7.10716e-05
7.36541e-05
6.97957e-05
5.15096e-05
6.90629e-05
5.79095e-05
6.97835e-05
6.90759e-05
5.81113e-05
7.10517e-05
7.37743e-05
6.99949e-05
7.3699e-05
7.1055e-05
6.97114e-05
6.9693e-05
6.97972e-05
5.17245e-05
5.84299e-05
6.90946e-05
5.82328e-05
6.90812e-05
6.98094e-05
7.10753e-05
7.35704e-05
6.99903e-05
7.10719e-05
7.36551e-05
6.97958e-05
5.15108e-05
5.7908e-05
6.9063e-05
6.97836e-05
5.81106e-05
6.90762e-05
7.10519e-05
7.37742e-05
6.99963e-05
7.36958e-05
7.10552e-05
6.9711e-05
6.96928e-05
8.70529e-05
7.25263e-05
7.25201e-05
7.25257e-05
7.25195e-05
8.71344e-05
5.58357e-05
3.73689e-05
6.86437e-05
5.83739e-05
5.57349e-05
3.75005e-05
6.86713e-05
5.59021e-05
3.73884e-05
6.86557e-05
5.83836e-05
5.58033e-05
3.75198e-05
6.86828e-05
8.70114e-05
7.25482e-05
7.25421e-05
8.69251e-05
7.25488e-05
7.25426e-05
5.60521e-05
6.87129e-05
5.85042e-05
3.79116e-05
3.77796e-05
6.86867e-05
5.6151e-05
5.61202e-05
6.87245e-05
5.85138e-05
3.79308e-05
3.77999e-05
6.86987e-05
5.62175e-05
6.97935e-05
6.9774e-05
6.97955e-05
6.97764e-05
8.65159e-05
7.26184e-05
7.26121e-05
7.26176e-05
7.26113e-05
8.66112e-05
5.44778e-05
3.56685e-05
6.8456e-05
5.75395e-05
5.4367e-05
6.84894e-05
3.58116e-05
5.45464e-05
3.56862e-05
6.84684e-05
5.75513e-05
5.44314e-05
6.85015e-05
3.5829e-05
8.64643e-05
7.26403e-05
7.2634e-05
8.63667e-05
7.26412e-05
7.26349e-05
5.4724e-05
6.85373e-05
5.76886e-05
3.6242e-05
6.85055e-05
5.48326e-05
3.61002e-05
5.47895e-05
6.85495e-05
5.77004e-05
3.62596e-05
6.85178e-05
5.49003e-05
3.6118e-05
6.97316e-05
6.97505e-05
6.9734e-05
6.97528e-05
8.67512e-05
7.25949e-05
7.25886e-05
8.66599e-05
7.25956e-05
7.25893e-05
5.54072e-05
3.70871e-05
5.81115e-05
6.86289e-05
6.85998e-05
3.69487e-05
5.55113e-05
5.54746e-05
3.71054e-05
5.81228e-05
6.86413e-05
6.86122e-05
3.69654e-05
5.55783e-05
5.51768e-05
6.85531e-05
3.65265e-05
5.79715e-05
5.50708e-05
6.85842e-05
3.66658e-05
5.52446e-05
6.85653e-05
3.65447e-05
5.79831e-05
5.51366e-05
6.85965e-05
3.66849e-05
8.67987e-05
7.25728e-05
7.25665e-05
7.25722e-05
7.25659e-05
8.68865e-05
6.97444e-05
4.98481e-05
6.90328e-05
5.70666e-05
6.9025e-05
5.68456e-05
6.97555e-05
7.11541e-05
7.29864e-05
6.99155e-05
7.11504e-05
7.30854e-05
6.97436e-05
4.95918e-05
6.90184e-05
5.6462e-05
6.90247e-05
6.97331e-05
5.66894e-05
7.11307e-05
7.32327e-05
6.99226e-05
7.3139e-05
7.11343e-05
6.97689e-05
6.90348e-05
5.72176e-05
5.05854e-05
6.97572e-05
6.90448e-05
5.74308e-05
7.10915e-05
6.9961e-05
7.35287e-05
7.1095e-05
7.34419e-05
7.11149e-05
7.33047e-05
6.99546e-05
7.11113e-05
7.33944e-05
6.97701e-05
5.08212e-05
6.90591e-05
5.77781e-05
6.97821e-05
6.90474e-05
5.75706e-05
6.97682e-05
6.90343e-05
5.72137e-05
5.05851e-05
6.97565e-05
6.90443e-05
5.74287e-05
7.1091e-05
6.99583e-05
7.35113e-05
7.34213e-05
7.10943e-05
7.11144e-05
7.32857e-05
6.99518e-05
7.11109e-05
7.33756e-05
6.97693e-05
5.08209e-05
6.90588e-05
5.77758e-05
6.90469e-05
5.7567e-05
6.97813e-05
8.65121e-05
7.26128e-05
7.26179e-05
7.26119e-05
7.26171e-05
8.66138e-05
5.45483e-05
5.75468e-05
6.85011e-05
3.58293e-05
5.44784e-05
5.754e-05
3.58092e-05
6.84907e-05
8.64674e-05
7.26355e-05
7.26406e-05
5.47882e-05
6.85495e-05
5.7696e-05
3.62597e-05
6.85149e-05
3.6119e-05
5.49029e-05
5.47185e-05
6.85389e-05
5.76897e-05
3.62397e-05
3.60981e-05
6.85047e-05
5.48334e-05
6.97934e-05
6.97739e-05
6.97339e-05
6.97527e-05
8.67539e-05
7.25894e-05
7.25945e-05
8.66569e-05
7.25902e-05
7.25952e-05
5.54729e-05
3.71056e-05
5.81182e-05
6.86417e-05
3.69676e-05
6.86087e-05
5.55823e-05
5.54035e-05
3.70863e-05
5.81123e-05
6.86309e-05
6.85982e-05
3.69465e-05
5.55134e-05
5.5247e-05
6.85627e-05
3.65457e-05
5.79787e-05
3.66846e-05
5.51351e-05
6.85963e-05
5.51777e-05
6.85523e-05
3.65253e-05
5.79725e-05
5.50654e-05
6.85856e-05
3.66652e-05
8.6795e-05
7.25676e-05
7.25725e-05
7.25668e-05
7.25718e-05
8.68884e-05
6.97318e-05
6.97507e-05
6.97439e-05
4.9847e-05
6.90329e-05
5.70636e-05
6.90252e-05
5.68448e-05
6.97551e-05
7.11523e-05
7.29808e-05
6.99153e-05
7.11485e-05
7.30813e-05
6.97432e-05
4.9592e-05
6.90186e-05
5.64611e-05
6.90249e-05
6.97326e-05
5.66865e-05
7.11288e-05
7.3231e-05
6.99221e-05
7.31318e-05
7.11325e-05
6.97691e-05
5.72158e-05
6.90351e-05
5.05864e-05
6.97574e-05
5.74298e-05
6.90452e-05
7.10918e-05
6.99625e-05
7.35277e-05
7.10953e-05
7.344e-05
7.11152e-05
7.32987e-05
6.99561e-05
7.11116e-05
7.33946e-05
6.97703e-05
5.082e-05
5.77773e-05
6.90595e-05
6.97823e-05
5.75692e-05
6.90476e-05
6.97677e-05
6.90345e-05
5.7213e-05
5.05856e-05
6.9756e-05
6.90444e-05
5.74257e-05
7.10892e-05
6.99578e-05
7.35062e-05
7.34181e-05
7.10926e-05
7.11126e-05
7.32784e-05
6.99514e-05
7.1109e-05
7.33714e-05
6.97688e-05
5.08199e-05
6.90588e-05
5.7773e-05
6.90471e-05
5.75666e-05
6.97808e-05
6.97431e-05
4.98566e-05
5.70473e-05
6.90321e-05
5.68577e-05
6.90244e-05
6.97541e-05
7.11282e-05
7.32419e-05
6.99246e-05
7.31488e-05
7.11325e-05
6.9744e-05
4.98515e-05
6.90324e-05
5.70625e-05
6.90248e-05
5.68468e-05
6.97551e-05
7.11299e-05
7.32297e-05
6.99222e-05
7.31342e-05
7.11335e-05
6.97668e-05
5.72252e-05
6.90336e-05
5.05708e-05
6.97553e-05
5.74101e-05
6.90436e-05
7.10886e-05
6.996e-05
7.35181e-05
7.34325e-05
7.10927e-05
7.11127e-05
7.3291e-05
6.99533e-05
7.11084e-05
7.33848e-05
6.97681e-05
5.08285e-05
5.77584e-05
6.9058e-05
5.75777e-05
6.9046e-05
6.97799e-05
6.97677e-05
6.9034e-05
5.72147e-05
5.05801e-05
6.97561e-05
6.90439e-05
5.74246e-05
7.10899e-05
6.99574e-05
7.35046e-05
7.34179e-05
7.10932e-05
7.11134e-05
7.32774e-05
6.9951e-05
7.11099e-05
7.33719e-05
6.97688e-05
5.08238e-05
6.90582e-05
5.77722e-05
6.90464e-05
5.75678e-05
6.97807e-05
8.65086e-05
7.26121e-05
7.26177e-05
7.26113e-05
7.26169e-05
8.66108e-05
5.45492e-05
3.56866e-05
6.84649e-05
5.75467e-05
6.85008e-05
5.44278e-05
3.58299e-05
5.44777e-05
3.56714e-05
6.84572e-05
5.75413e-05
3.58086e-05
5.43647e-05
6.84887e-05
8.64642e-05
7.26338e-05
7.26394e-05
7.26347e-05
8.63582e-05
7.26404e-05
5.47872e-05
6.85488e-05
5.76961e-05
3.62593e-05
6.85146e-05
3.61195e-05
5.49042e-05
5.47228e-05
6.85368e-05
5.76904e-05
3.62392e-05
3.61023e-05
6.85064e-05
5.48324e-05
6.97937e-05
6.97745e-05
6.97336e-05
6.97523e-05
8.67506e-05
7.25887e-05
7.25943e-05
8.66541e-05
7.25894e-05
7.2595e-05
5.54712e-05
3.71057e-05
5.81185e-05
6.86396e-05
3.69678e-05
6.86096e-05
5.55823e-05
5.54077e-05
3.70848e-05
5.81134e-05
6.86294e-05
6.86001e-05
3.69511e-05
5.55115e-05
5.52493e-05
6.85628e-05
3.65467e-05
5.7979e-05
3.66849e-05
5.51343e-05
6.85947e-05
5.51756e-05
6.85543e-05
3.65295e-05
5.79733e-05
5.50705e-05
6.8584e-05
3.66641e-05
8.6792e-05
7.25667e-05
7.25723e-05
7.25661e-05
7.25716e-05
8.68846e-05
6.97323e-05
6.9751e-05
6.97445e-05
4.98564e-05
5.70655e-05
6.90327e-05
5.68518e-05
6.9025e-05
6.97556e-05
7.11542e-05
7.29977e-05
6.99185e-05
7.31e-05
7.11504e-05
6.97437e-05
4.95861e-05
5.64682e-05
6.90184e-05
5.66882e-05
6.97332e-05
6.90246e-05
7.11307e-05
7.32482e-05
6.99252e-05
7.31497e-05
7.11344e-05
6.97438e-05
4.98555e-05
5.70645e-05
6.90325e-05
5.68462e-05
6.90247e-05
6.9755e-05
7.11532e-05
7.29764e-05
6.99157e-05
7.11493e-05
7.30877e-05
6.9743e-05
4.95855e-05
5.64626e-05
6.90181e-05
6.97325e-05
5.66871e-05
6.90243e-05
7.11297e-05
7.32364e-05
6.99224e-05
7.31299e-05
7.11334e-05
6.97683e-05
5.72196e-05
6.90343e-05
5.05795e-05
6.97567e-05
5.74278e-05
6.90442e-05
7.10912e-05
6.99611e-05
7.35242e-05
7.3436e-05
7.10946e-05
7.11145e-05
7.32946e-05
6.99547e-05
7.1111e-05
7.33914e-05
6.97696e-05
5.08294e-05
5.77753e-05
6.90587e-05
5.75728e-05
6.90468e-05
6.97815e-05
6.97677e-05
5.72143e-05
6.9034e-05
5.05788e-05
6.9756e-05
5.74266e-05
6.9044e-05
7.10902e-05
6.99582e-05
7.35108e-05
7.3417e-05
7.10936e-05
7.11135e-05
7.32751e-05
6.99518e-05
7.11099e-05
7.33757e-05
6.97688e-05
5.08286e-05
5.77743e-05
6.90585e-05
5.75676e-05
6.90466e-05
6.97808e-05
6.97936e-05
6.97743e-05
6.9795e-05
6.97759e-05
8.67475e-05
7.25935e-05
7.25873e-05
8.66541e-05
7.25942e-05
7.2588e-05
5.54077e-05
3.70842e-05
5.81089e-05
6.86277e-05
5.5512e-05
3.6952e-05
6.85992e-05
5.5476e-05
3.71053e-05
5.81189e-05
6.86392e-05
5.55786e-05
3.6971e-05
6.86111e-05
5.51777e-05
6.85527e-05
3.65293e-05
5.79696e-05
5.50701e-05
3.66651e-05
6.8583e-05
5.52438e-05
6.85643e-05
3.65493e-05
5.79794e-05
5.51383e-05
3.66844e-05
6.85944e-05
8.67925e-05
7.25715e-05
7.25653e-05
8.68823e-05
7.25709e-05
7.25647e-05
6.97319e-05
6.97508e-05
6.97337e-05
6.97524e-05
6.97091e-05
6.96908e-05
6.97114e-05
6.96931e-05
8.70591e-05
7.25275e-05
7.25213e-05
7.25269e-05
7.25206e-05
8.71386e-05
5.5835e-05
3.73651e-05
6.86441e-05
5.83758e-05
5.57335e-05
6.86725e-05
3.75008e-05
5.59028e-05
3.73838e-05
6.86565e-05
5.83872e-05
5.58014e-05
6.86849e-05
3.75202e-05
8.70153e-05
7.25495e-05
7.25432e-05
8.69304e-05
7.25501e-05
7.25438e-05
5.60513e-05
6.87141e-05
5.85068e-05
3.79119e-05
6.86875e-05
5.61494e-05
3.77772e-05
5.61193e-05
6.87265e-05
5.8518e-05
3.79317e-05
6.87001e-05
5.6217e-05
3.7796e-05
6.97962e-05
5.17253e-05
6.9096e-05
5.84285e-05
6.90788e-05
5.82304e-05
6.98085e-05
7.10742e-05
7.35539e-05
6.99862e-05
7.1071e-05
7.3637e-05
6.97948e-05
5.15092e-05
6.9062e-05
5.79058e-05
6.9076e-05
6.97826e-05
5.81091e-05
7.1051e-05
7.37575e-05
6.99922e-05
7.36785e-05
7.10541e-05
8.70556e-05
7.25222e-05
7.25272e-05
7.25215e-05
7.25266e-05
8.7141e-05
5.59048e-05
3.73849e-05
6.86536e-05
5.83823e-05
6.86851e-05
5.5799e-05
3.75176e-05
5.5836e-05
3.73647e-05
6.86431e-05
5.83773e-05
3.74996e-05
5.57298e-05
6.86745e-05
8.70179e-05
7.25442e-05
7.25491e-05
7.25448e-05
8.69278e-05
7.25498e-05
5.6118e-05
6.87274e-05
5.85134e-05
3.79271e-05
6.86965e-05
3.77983e-05
5.62147e-05
5.60498e-05
6.87167e-05
5.85077e-05
3.79091e-05
3.77776e-05
6.86862e-05
5.61472e-05
6.97094e-05
6.9691e-05
6.97957e-05
5.1724e-05
6.90938e-05
5.84254e-05
6.90807e-05
5.82304e-05
6.9808e-05
7.10726e-05
7.35509e-05
6.99856e-05
7.10693e-05
7.36318e-05
6.97943e-05
5.15099e-05
6.90625e-05
5.79056e-05
6.90755e-05
6.97821e-05
5.81061e-05
7.10493e-05
7.37535e-05
6.99918e-05
7.36741e-05
7.10525e-05
6.97948e-05
5.1732e-05
5.84127e-05
6.90951e-05
5.82399e-05
6.90775e-05
6.98071e-05
7.10728e-05
7.35619e-05
6.99875e-05
7.36462e-05
7.10687e-05
6.97934e-05
5.14965e-05
5.79158e-05
6.9061e-05
5.80923e-05
6.97813e-05
6.90753e-05
7.10487e-05
7.37661e-05
6.9994e-05
7.36884e-05
7.10527e-05
6.97954e-05
5.17282e-05
6.90953e-05
5.84249e-05
6.90778e-05
5.82311e-05
6.98077e-05
7.1073e-05
7.35477e-05
6.99851e-05
7.10698e-05
7.36323e-05
6.97941e-05
5.15048e-05
6.90614e-05
5.79064e-05
6.9782e-05
6.90755e-05
5.81054e-05
7.10496e-05
7.37519e-05
6.99913e-05
7.36736e-05
7.10527e-05
8.70518e-05
7.25215e-05
7.25271e-05
7.25209e-05
7.25264e-05
8.71379e-05
5.59076e-05
3.73857e-05
6.86544e-05
5.83835e-05
6.86833e-05
5.5799e-05
3.75201e-05
5.5834e-05
3.7368e-05
6.86444e-05
5.83781e-05
3.75007e-05
5.57349e-05
6.8673e-05
8.70129e-05
7.25434e-05
7.2549e-05
7.25441e-05
8.69258e-05
7.25497e-05
5.61147e-05
6.87253e-05
5.85136e-05
3.79297e-05
6.86977e-05
3.77975e-05
5.62245e-05
5.60523e-05
6.87149e-05
5.85084e-05
3.79124e-05
3.77783e-05
6.86877e-05
5.61558e-05
6.97098e-05
6.96915e-05
6.97964e-05
5.17342e-05
5.8428e-05
6.90959e-05
5.82361e-05
6.90784e-05
6.98086e-05
7.10745e-05
7.35665e-05
6.99888e-05
7.36519e-05
7.10713e-05
6.9795e-05
5.15037e-05
5.79114e-05
6.90619e-05
5.81085e-05
6.97829e-05
6.9076e-05
7.10512e-05
7.37726e-05
6.99951e-05
7.36912e-05
7.10544e-05
6.97956e-05
5.17334e-05
5.84272e-05
6.90957e-05
5.82313e-05
6.90782e-05
6.9808e-05
7.10736e-05
7.35478e-05
6.99862e-05
7.10702e-05
7.36375e-05
6.97944e-05
5.1503e-05
5.79065e-05
6.90617e-05
6.97821e-05
5.81076e-05
6.90758e-05
7.10502e-05
7.37585e-05
6.99924e-05
7.36738e-05
7.10534e-05
6.97093e-05
6.9691e-05
6.97111e-05
6.96929e-05
1.59858e-05
1.59862e-05
1.56007e-05
1.58594e-05
1.58597e-05
1.62838e-05
1.6416e-05
3.44276e-05
1.726e-05
2.26242e-05
2.2627e-05
1.54946e-05
1.54949e-05
1.51932e-05
1.53776e-05
1.53779e-05
1.57733e-05
1.58982e-05
3.61842e-05
2.36772e-05
2.36814e-05
1.76193e-05
3.60545e-05
2.37499e-05
2.37561e-05
3.44245e-05
2.25457e-05
2.25489e-05
1.72683e-05
3.42912e-05
2.26396e-05
2.26463e-05
3.56186e-05
1.75019e-05
2.34756e-05
2.34763e-05
2.33765e-05
2.33759e-05
3.57498e-05
3.44315e-05
1.72677e-05
2.26359e-05
2.2624e-05
3.56117e-05
1.7503e-05
2.34588e-05
2.34737e-05
2.33954e-05
2.33738e-05
3.5756e-05
3.44265e-05
2.25558e-05
2.25617e-05
1.72693e-05
2.26255e-05
3.4292e-05
2.26414e-05
3.56194e-05
1.75008e-05
2.34786e-05
2.34589e-05
2.33754e-05
2.33889e-05
3.57507e-05
3.56216e-05
1.7513e-05
2.34631e-05
2.34669e-05
3.57517e-05
2.33855e-05
2.33917e-05
3.61804e-05
2.36647e-05
2.36701e-05
1.76326e-05
3.60516e-05
2.37676e-05
2.37735e-05
3.61874e-05
2.3682e-05
2.36649e-05
1.76322e-05
2.37653e-05
3.60451e-05
2.37505e-05
3.61814e-05
2.36689e-05
2.36778e-05
1.76324e-05
2.37516e-05
3.60538e-05
2.37734e-05
1.59858e-05
1.5986e-05
1.56006e-05
1.58593e-05
1.58596e-05
1.62837e-05
1.64159e-05
1.59857e-05
1.59859e-05
1.56005e-05
1.58593e-05
1.58594e-05
1.62836e-05
1.64158e-05
1.59855e-05
1.59857e-05
1.56002e-05
1.58591e-05
1.58593e-05
1.62835e-05
1.64157e-05
1.54945e-05
1.56138e-05
1.56141e-05
1.57355e-05
1.57358e-05
1.61534e-05
1.60249e-05
1.54944e-05
1.56137e-05
1.56139e-05
1.57354e-05
1.57356e-05
1.61534e-05
1.60249e-05
1.54942e-05
1.56137e-05
1.56138e-05
1.57353e-05
1.57355e-05
1.61532e-05
1.60247e-05
1.54939e-05
1.56135e-05
1.56137e-05
1.57352e-05
1.57353e-05
1.61532e-05
1.60246e-05
1.83e-05
2.58859e-05
3.01511e-05
1.69922e-05
3.00102e-05
1.69787e-05
1.83164e-05
2.07192e-05
3.69347e-05
4.28175e-05
2.53506e-05
2.52671e-05
3.68157e-05
2.07508e-05
1.82878e-05
2.58892e-05
1.70004e-05
3.01491e-05
1.69714e-05
3.00198e-05
1.83318e-05
2.05517e-05
2.49506e-05
3.64084e-05
4.25666e-05
2.05152e-05
2.50362e-05
3.65205e-05
1.81994e-05
2.56143e-05
1.68842e-05
2.95939e-05
1.81587e-05
1.6911e-05
2.97238e-05
2.07149e-05
3.69338e-05
4.28204e-05
2.53508e-05
2.52659e-05
3.68203e-05
2.07539e-05
3.47383e-05
1.73365e-05
2.28994e-05
2.29011e-05
2.28287e-05
2.28338e-05
3.48715e-05
1.54945e-05
1.54947e-05
1.51931e-05
1.53775e-05
1.53777e-05
1.57733e-05
1.58982e-05
1.54945e-05
1.54946e-05
1.5193e-05
1.53774e-05
1.53776e-05
1.57731e-05
1.5898e-05
1.54943e-05
1.54945e-05
1.51927e-05
1.53773e-05
1.53775e-05
1.57731e-05
1.58979e-05
1.8897e-05
2.75248e-05
3.18526e-05
1.74318e-05
3.17224e-05
1.74064e-05
1.89166e-05
2.14067e-05
2.62357e-05
3.80322e-05
4.39908e-05
2.13696e-05
2.63261e-05
3.81443e-05
1.87589e-05
2.72376e-05
3.1294e-05
1.72861e-05
1.87367e-05
3.14308e-05
1.73082e-05
2.16005e-05
3.85412e-05
4.42238e-05
2.66571e-05
2.65712e-05
3.84301e-05
2.1636e-05
1.88811e-05
2.75278e-05
1.74395e-05
3.18606e-05
1.74001e-05
3.17278e-05
1.8942e-05
2.14112e-05
2.62377e-05
3.8036e-05
4.39929e-05
2.13693e-05
2.6327e-05
3.81459e-05
1.87711e-05
2.72404e-05
1.72795e-05
3.12999e-05
1.87224e-05
1.73143e-05
3.14326e-05
2.1592e-05
3.85452e-05
4.42256e-05
2.66583e-05
2.65721e-05
3.84328e-05
2.16657e-05
3.64836e-05
1.77213e-05
2.40403e-05
2.40497e-05
2.39761e-05
2.39796e-05
3.66122e-05
3.47376e-05
1.73308e-05
2.29149e-05
2.29153e-05
3.48696e-05
2.28197e-05
2.28224e-05
3.53086e-05
1.74331e-05
2.30922e-05
2.3098e-05
3.51799e-05
2.31821e-05
2.31915e-05
1.82892e-05
2.58848e-05
3.01573e-05
1.70033e-05
3.00132e-05
1.69707e-05
1.83344e-05
2.05527e-05
2.49507e-05
3.6407e-05
4.25671e-05
3.6526e-05
2.05175e-05
2.50359e-05
1.82021e-05
2.5619e-05
2.95885e-05
1.68842e-05
2.973e-05
1.81605e-05
1.6913e-05
2.07173e-05
3.69409e-05
4.2819e-05
2.5351e-05
3.68198e-05
2.5267e-05
2.07554e-05
1.83021e-05
2.58847e-05
3.01523e-05
1.70032e-05
3.00133e-05
1.69705e-05
1.83183e-05
2.05491e-05
2.49458e-05
3.64037e-05
4.25694e-05
2.05194e-05
3.65207e-05
2.50535e-05
1.81875e-05
2.56186e-05
2.95885e-05
1.68839e-05
1.81731e-05
2.97269e-05
1.69127e-05
2.07193e-05
3.69356e-05
4.28236e-05
2.53721e-05
3.68154e-05
2.07529e-05
2.52615e-05
1.84748e-05
3.04395e-05
1.70646e-05
2.64218e-05
1.84288e-05
3.05803e-05
1.70995e-05
2.11433e-05
2.59963e-05
4.35351e-05
3.77517e-05
2.59114e-05
3.76333e-05
2.11858e-05
2.09647e-05
3.72298e-05
2.5586e-05
4.32923e-05
2.56746e-05
2.09258e-05
3.73437e-05
1.85717e-05
2.6693e-05
3.10091e-05
1.72061e-05
3.08682e-05
1.71665e-05
1.86198e-05
1.84596e-05
3.04404e-05
1.70642e-05
2.64219e-05
1.8441e-05
3.05785e-05
1.70991e-05
2.11455e-05
2.60171e-05
4.35385e-05
3.77494e-05
3.76279e-05
2.59037e-05
2.11818e-05
2.09602e-05
3.72249e-05
2.55792e-05
4.32969e-05
2.09278e-05
3.73425e-05
2.5687e-05
1.85863e-05
2.66926e-05
3.10058e-05
1.72055e-05
3.08678e-05
1.71666e-05
1.86063e-05
3.47296e-05
1.73306e-05
2.28992e-05
2.29073e-05
2.28192e-05
2.28356e-05
3.48752e-05
3.53175e-05
1.74335e-05
2.31105e-05
2.3097e-05
2.31766e-05
3.51721e-05
2.31871e-05
1.83027e-05
2.58847e-05
3.0151e-05
1.69932e-05
3.00184e-05
1.69796e-05
1.8319e-05
2.0553e-05
2.49436e-05
3.64087e-05
4.25698e-05
3.65239e-05
2.05192e-05
2.50529e-05
1.81885e-05
2.56186e-05
2.95935e-05
1.68916e-05
2.97243e-05
1.81742e-05
1.69044e-05
2.07191e-05
3.69422e-05
4.28241e-05
2.53715e-05
3.68214e-05
2.5261e-05
2.07561e-05
1.82886e-05
2.58828e-05
1.69924e-05
3.01548e-05
1.6979e-05
3.00128e-05
1.83332e-05
2.05497e-05
2.49542e-05
3.64037e-05
4.25709e-05
2.05168e-05
3.65194e-05
2.50437e-05
1.8201e-05
2.56196e-05
1.68911e-05
2.95876e-05
1.81598e-05
1.69037e-05
2.97264e-05
2.07166e-05
3.69288e-05
4.28231e-05
2.53623e-05
3.6816e-05
2.07529e-05
2.52695e-05
1.84614e-05
3.04448e-05
1.70731e-05
2.64207e-05
1.84422e-05
3.05762e-05
1.70886e-05
2.11458e-05
2.60187e-05
4.35402e-05
3.77532e-05
2.59019e-05
3.76361e-05
2.11862e-05
2.0965e-05
3.72314e-05
2.55779e-05
4.32949e-05
2.56863e-05
2.09277e-05
3.73429e-05
1.85868e-05
2.66943e-05
3.10055e-05
1.71938e-05
3.08727e-05
1.71771e-05
1.86078e-05
1.84736e-05
1.70727e-05
3.04385e-05
2.64219e-05
1.84284e-05
1.70878e-05
3.05818e-05
2.11432e-05
2.60074e-05
4.35402e-05
3.77452e-05
3.76293e-05
2.59128e-05
2.11828e-05
2.09623e-05
3.72244e-05
2.55898e-05
4.3295e-05
2.09253e-05
3.73457e-05
2.56784e-05
1.85714e-05
2.66926e-05
1.71927e-05
3.10093e-05
1.71761e-05
3.08652e-05
1.86181e-05
1.82994e-05
2.58827e-05
1.69919e-05
3.01465e-05
1.69781e-05
3.00182e-05
1.83166e-05
2.07172e-05
3.69301e-05
4.28201e-05
2.53589e-05
2.52541e-05
3.68128e-05
2.07511e-05
1.84573e-05
3.04379e-05
1.7072e-05
2.64145e-05
1.8439e-05
3.05788e-05
1.70882e-05
2.11454e-05
2.59985e-05
4.35331e-05
3.77486e-05
2.11825e-05
2.59081e-05
3.76288e-05
2.09611e-05
3.72257e-05
2.55846e-05
4.32908e-05
2.09268e-05
2.56739e-05
3.73416e-05
1.85833e-05
2.66953e-05
3.10048e-05
1.7193e-05
1.86045e-05
3.08645e-05
1.71745e-05
1.84573e-05
1.70716e-05
3.04436e-05
2.64203e-05
1.8439e-05
1.70887e-05
3.0574e-05
2.11442e-05
2.60056e-05
4.35362e-05
3.7747e-05
3.76255e-05
2.58985e-05
2.11823e-05
2.09597e-05
3.72215e-05
2.55766e-05
4.3291e-05
2.0926e-05
3.73391e-05
2.56811e-05
1.85842e-05
2.66935e-05
1.71945e-05
3.10028e-05
1.71753e-05
3.08708e-05
1.86045e-05
3.47375e-05
1.73278e-05
2.29145e-05
2.29016e-05
2.28297e-05
2.28238e-05
3.48734e-05
3.53097e-05
1.74349e-05
2.31005e-05
2.31073e-05
2.31943e-05
3.51808e-05
2.31751e-05
1.82896e-05
2.58828e-05
1.70009e-05
3.0151e-05
1.69713e-05
3.00137e-05
1.83337e-05
2.05702e-05
2.49551e-05
3.63895e-05
4.25695e-05
2.50446e-05
2.05004e-05
3.65332e-05
1.82021e-05
2.562e-05
1.68841e-05
2.95871e-05
1.69113e-05
1.81607e-05
2.97262e-05
2.07019e-05
3.69455e-05
4.28235e-05
2.53635e-05
2.527e-05
3.68042e-05
2.07711e-05
1.8472e-05
1.70658e-05
3.04454e-05
2.64168e-05
1.84275e-05
1.70956e-05
3.05781e-05
2.11407e-05
2.59973e-05
4.35356e-05
3.77472e-05
2.1184e-05
2.5909e-05
3.76345e-05
2.09636e-05
3.72291e-05
2.55851e-05
4.32944e-05
2.09239e-05
2.56752e-05
3.73457e-05
1.85714e-05
2.66978e-05
1.72009e-05
3.10049e-05
1.86147e-05
1.71683e-05
3.0872e-05
1.84746e-05
1.70654e-05
3.04407e-05
2.64185e-05
1.84294e-05
1.70966e-05
3.05775e-05
2.11266e-05
2.6008e-05
4.35402e-05
3.77569e-05
3.76177e-05
2.5913e-05
2.1203e-05
2.09848e-05
3.72126e-05
2.55905e-05
4.32935e-05
2.09104e-05
3.73482e-05
2.56814e-05
1.85722e-05
2.66952e-05
1.72019e-05
3.10079e-05
1.7168e-05
3.08682e-05
1.86192e-05
3.53108e-05
1.74251e-05
2.31051e-05
2.31102e-05
3.51814e-05
2.31754e-05
2.31802e-05
3.6482e-05
1.77095e-05
2.40717e-05
2.4064e-05
3.66067e-05
2.39551e-05
2.39616e-05
1.88821e-05
2.75236e-05
3.1866e-05
1.74454e-05
3.17208e-05
1.7396e-05
1.89447e-05
2.14291e-05
2.62378e-05
3.80362e-05
4.39907e-05
3.81518e-05
2.13631e-05
2.63273e-05
1.87752e-05
2.72417e-05
3.12963e-05
1.72789e-05
3.14373e-05
1.87238e-05
1.73182e-05
2.15844e-05
3.85576e-05
4.42234e-05
2.66618e-05
3.84257e-05
2.65703e-05
2.16734e-05
1.88994e-05
2.75235e-05
3.18615e-05
1.74449e-05
3.17226e-05
1.73964e-05
1.89201e-05
2.14061e-05
2.62351e-05
3.80295e-05
4.3993e-05
2.13696e-05
3.81489e-05
2.63335e-05
1.87601e-05
2.72421e-05
3.12963e-05
1.72789e-05
1.87375e-05
3.14341e-05
1.7318e-05
2.16025e-05
3.85442e-05
4.42279e-05
2.66712e-05
3.84267e-05
2.16381e-05
2.65725e-05
3.64766e-05
1.771e-05
2.40436e-05
2.4063e-05
2.39567e-05
2.39796e-05
3.66031e-05
1.88927e-05
2.75227e-05
3.18589e-05
1.74276e-05
3.17294e-05
1.74099e-05
1.89421e-05
2.1429e-05
2.62326e-05
3.80385e-05
4.39961e-05
3.81475e-05
2.13654e-05
2.63373e-05
1.87624e-05
2.72435e-05
3.13008e-05
1.72886e-05
3.143e-05
1.87366e-05
1.73083e-05
2.15865e-05
3.85498e-05
4.42277e-05
2.667e-05
3.84332e-05
2.65696e-05
2.1674e-05
1.88827e-05
2.7525e-05
1.74276e-05
3.18627e-05
1.74094e-05
3.17226e-05
1.89421e-05
2.14247e-05
2.62435e-05
3.80302e-05
4.39966e-05
2.13629e-05
3.81476e-05
2.63321e-05
1.87732e-05
2.72407e-05
1.72881e-05
3.12935e-05
1.8724e-05
1.73073e-05
3.14333e-05
2.15857e-05
3.85437e-05
4.42259e-05
2.66738e-05
3.84273e-05
2.16664e-05
2.65743e-05
1.88977e-05
2.75212e-05
1.74315e-05
3.18582e-05
1.74065e-05
3.17258e-05
1.89188e-05
2.14042e-05
2.62313e-05
3.80271e-05
4.39931e-05
2.63324e-05
2.13684e-05
3.81475e-05
1.87588e-05
2.72441e-05
1.72867e-05
3.12983e-05
1.731e-05
1.87361e-05
3.14297e-05
2.1601e-05
3.85457e-05
4.4224e-05
2.66592e-05
2.65653e-05
3.84228e-05
2.16373e-05
3.64813e-05
1.77099e-05
2.40712e-05
2.40493e-05
2.39687e-05
2.39596e-05
3.66216e-05
1.88833e-05
2.75252e-05
1.744e-05
3.18669e-05
1.73989e-05
3.17214e-05
1.89435e-05
2.14333e-05
2.62437e-05
3.80207e-05
4.39956e-05
2.63373e-05
2.13543e-05
3.81585e-05
1.87742e-05
2.72413e-05
1.72808e-05
3.1295e-05
1.73152e-05
1.8725e-05
3.14352e-05
2.15786e-05
3.85585e-05
4.42272e-05
2.66858e-05
2.65704e-05
3.84147e-05
2.16712e-05
3.60233e-05
3.60197e-05
3.60197e-05
3.60085e-05
3.39295e-05
3.38856e-05
3.38855e-05
3.39584e-05
3.21567e-05
3.2002e-05
3.20019e-05
3.19434e-05
3.05324e-05
3.02209e-05
3.02208e-05
2.99759e-05
2.90295e-05
2.8544e-05
2.85439e-05
2.81078e-05
2.7631e-05
2.6976e-05
2.69756e-05
2.63747e-05
2.63255e-05
2.55192e-05
2.55184e-05
2.47908e-05
2.51052e-05
2.41727e-05
2.41716e-05
2.3361e-05
2.39643e-05
2.29379e-05
2.29366e-05
2.20869e-05
2.28986e-05
2.18137e-05
2.18122e-05
2.09684e-05
2.19045e-05
2.07976e-05
2.0796e-05
1.99953e-05
2.09785e-05
1.98866e-05
1.98851e-05
1.91628e-05
2.01157e-05
1.90786e-05
1.90774e-05
1.84691e-05
1.93149e-05
1.83706e-05
1.83696e-05
1.79092e-05
1.85752e-05
1.77592e-05
1.77584e-05
1.74785e-05
1.78939e-05
1.7243e-05
1.72425e-05
1.71689e-05
1.72686e-05
1.6821e-05
1.68207e-05
1.69861e-05
1.66974e-05
1.64924e-05
1.64923e-05
1.69394e-05
1.61787e-05
1.62571e-05
1.62572e-05
1.70338e-05
1.61153e-05
1.72608e-05
3.62977e-05
3.62919e-05
3.62919e-05
3.62977e-05
3.62919e-05
3.62919e-05
3.62908e-05
3.62908e-05
3.62908e-05
3.62908e-05
3.62919e-05
3.62919e-05
3.62977e-05
3.62919e-05
3.62919e-05
3.62977e-05
3.60085e-05
3.4265e-05