/*--------------------------------*- C++ -*----------------------------------*\
| =========                 |                                                 |
| \\      /  F ield         | OpenFOAM: The Open Source CFD Toolbox           |
|  \\    /   O peration     | Version:  2312                                  |
|   \\  /    A nd           | Website:  www.openfoam.com                      |
|    \\/     M anipulation  |                                                 |
\*---------------------------------------------------------------------------*/
FoamFile
{
    version     2.0;
    format      ascii;
    arch        "LSB;label=32;scalar=64";
    class       surfaceScalarField;
    location    "750";
    object      phi;
}
// * * * * * * * * * * * * * * * * * * * * * * * * * * * * * * * * * * * * * //

dimensions      [0 3 -1 0 0 0 0];

oriented        oriented;

internalField   nonuniform List<scalar> 
124832
(
-8.75799e-07
-8.8274e-07
4.56068e-07
4.56931e-07
0.00114043
-0.00113959
-1.51901e-06
8.76909e-07
4.45391e-07
0.00113301
-5.32615e-07
1.1075e-06
1.27571e-07
7.24812e-07
-5.90725e-07
-1.2733e-06
5.8501e-08
-0.00113244
-8.56554e-07
-8.57807e-07
-0.00114291
4.42735e-07
4.43317e-07
0.00114374
-0.00113482
-1.51658e-06
8.57742e-07
4.18675e-07
0.00113536
-5.21395e-07
1.11705e-06
1.34376e-07
7.32237e-07
-5.75328e-07
-1.25948e-06
6.74357e-08
-0.00113469
-1.51395e-06
8.57451e-07
4.2459e-07
0.00113523
-5.21538e-07
1.11425e-06
1.34171e-07
7.32399e-07
-5.75319e-07
-1.25945e-06
6.78638e-08
-0.000276279
1.54557e-06
1.50861e-06
-4.99824e-07
-5.0291e-07
0.000274228
1.56164e-06
1.52207e-06
-5.07811e-07
-5.16075e-07
0.00027407
-0.00027613
-1.15819e-06
-1.11538e-06
0.000276354
-0.000274237
7.58014e-08
8.11159e-08
4.36128e-07
0.0011326
-5.35311e-07
1.15045e-06
1.30557e-07
7.30243e-07
-5.90782e-07
-1.27881e-06
5.84004e-08
-0.00113201
8.70785e-07
4.36157e-07
0.00113266
1.1476e-06
1.33194e-07
7.30067e-07
-5.90722e-07
-1.27862e-06
5.83648e-08
-0.00113208
-1.55653e-06
-5.35699e-07
0.00113427
8.6133e-07
-0.00113374
4.39129e-07
-1.5581e-06
1.41408e-07
-5.30027e-07
-1.26857e-06
6.54732e-08
-5.79301e-07
7.36096e-07
1.15271e-06
0.00113435
8.61538e-07
-0.0011338
4.28532e-07
-1.55561e-06
1.38126e-07
-5.27492e-07
-1.26838e-06
6.54886e-08
-5.79098e-07
7.35932e-07
-1.11538e-06
0.000276334
-0.000274221
7.59546e-08
7.83237e-08
4.34922e-07
0.00113358
-5.32807e-07
1.11037e-06
1.27576e-07
7.30171e-07
-5.90795e-07
-1.2787e-06
5.85586e-08
-0.001133
-1.55366e-06
8.7619e-07
4.36008e-07
0.00113255
-5.38224e-07
1.14234e-06
1.33457e-07
7.30255e-07
-5.90766e-07
-1.27861e-06
5.49459e-08
-0.00113197
0.00113527
8.62601e-07
-0.00113472
4.274e-07
-1.51839e-06
1.32413e-07
-5.24642e-07
-1.26847e-06
6.55781e-08
-5.79295e-07
7.35925e-07
1.14743e-06
0.00113424
8.61364e-07
-0.00113368
4.28542e-07
-1.54998e-06
1.3844e-07
-5.30021e-07
-1.26834e-06
6.21363e-08
-5.76486e-07
7.35971e-07
8.6254e-07
-0.00113427
4.32262e-07
-1.51795e-06
1.32746e-07
-5.24212e-07
-1.26301e-06
6.52011e-08
7.30362e-07
-5.79145e-07
1.14452e-06
0.00113386
8.61617e-07
-0.00113331
4.28577e-07
-1.54696e-06
1.35519e-07
-5.27043e-07
-1.25996e-06
5.87504e-08
-5.73372e-07
7.27709e-07
-5.10951e-07
-5.15662e-07
0.000274045
-0.000276092
-1.10986e-06
0.00027631
-0.00027421
7.60764e-08
8.1165e-08
7.76062e-07
2.55231e-07
0.00113308
1.0664e-06
1.15398e-07
7.27281e-07
-5.87906e-07
5.86107e-08
-1.27577e-06
-1.58656e-06
-0.00113209
-5.43511e-07
8.62173e-07
-0.00113414
4.27064e-07
-1.51257e-06
1.32553e-07
-5.24405e-07
-1.26304e-06
6.55854e-08
7.30562e-07
-5.79141e-07
1.1071e-06
0.00113484
8.62121e-07
-0.00113428
4.27199e-07
-1.51004e-06
1.3253e-07
-5.24525e-07
-1.26545e-06
6.56826e-08
-5.79129e-07
7.33122e-07
-0.000274182
7.5806e-08
7.86173e-08
1.55949e-06
1.517e-06
-5.00083e-07
-5.05632e-07
0.000274283
4.14673e-07
0.00113482
-5.30112e-07
1.15986e-06
1.42933e-07
7.37944e-07
-5.7553e-07
-1.26501e-06
6.7567e-08
-1.55423e-06
8.56994e-07
4.26132e-07
0.00113489
-5.27394e-07
1.15438e-06
1.39745e-07
7.37982e-07
-5.75269e-07
-1.26477e-06
6.44375e-08
-5.00197e-07
-5.02646e-07
0.000274266
4.24902e-07
0.00113581
-5.21828e-07
1.11706e-06
1.34044e-07
7.37872e-07
-5.75478e-07
-1.26487e-06
6.77494e-08
-1.54861e-06
8.56533e-07
4.26074e-07
0.00113477
-5.27245e-07
1.14907e-06
1.4005e-07
7.37896e-07
-5.72527e-07
-1.2647e-06
6.44359e-08
8.56804e-07
4.26126e-07
0.00113439
-5.24203e-07
1.14617e-06
1.37138e-07
7.29587e-07
-5.69593e-07
6.10902e-08
-1.25637e-06
-5.00434e-07
-5.05154e-07
0.000274253
8.57375e-07
4.24699e-07
0.00113537
-5.2168e-07
1.10875e-06
1.34151e-07
7.34979e-07
-5.75245e-07
6.79846e-08
-1.26183e-06
-3.06205e-10
9.35866e-08
0.000237627
-0.000237702
-1.05803e-08
-8.27127e-09
-3.79609e-09
1.51366e-07
-2.07514e-08
0.000198049
-0.000198176
-1.29367e-10
2.76859e-07
0.000237944
-9.49626e-08
-1.29772e-08
-0.000238113
1.50085e-08
3.10724e-08
0.00019784
-5.54858e-09
-0.00019788
-1.47962e-08
5.31637e-09
9.92823e-05
-9.92729e-05
9.35571e-08
-2.35827e-10
0.000237614
-0.000237689
-8.36945e-09
-1.05466e-08
-3.88643e-09
1.51344e-07
-2.0849e-08
0.000198032
-0.000198158
2.76792e-07
1.56883e-10
0.000237932
-1.33571e-08
-9.49232e-08
-0.0002381
1.54277e-08
3.09153e-08
0.000197824
-5.88779e-09
-0.000197864
4.62058e-07
4.35095e-07
0.00114019
-8.7717e-07
-0.00113934
4.56492e-07
4.84243e-07
0.00114001
-0.0011392
4.06438e-07
4.29174e-07
0.00113994
-1.04318e-06
-0.00113896
-0.00114209
4.55717e-07
4.5084e-07
0.0011427
-0.00114187
4.50643e-07
4.50723e-07
0.00114249
-0.00114167
4.50311e-07
4.50635e-07
0.00114245
-0.00114163
4.50317e-07
4.50914e-07
-9.38994e-08
-2.01586e-09
0.000261357
-0.000261286
-2.72886e-08
5.22965e-08
4.26607e-07
1.112e-06
0.0011337
8.72244e-07
-1.26984e-06
6.06036e-08
-5.86884e-07
7.26415e-07
-1.5205e-06
1.29364e-07
-5.29768e-07
-0.00113312
4.99162e-09
-3.13064e-08
0.000254115
1.99962e-08
-0.000254149
4.06439e-08
-1.79451e-08
0.00113384
9.24473e-07
-1.38048e-06
5.74344e-07
-1.20867e-06
7.71307e-07
-0.00113308
4.21378e-09
6.76221e-08
9.93322e-05
-9.9404e-05
-1.493e-08
7.86337e-09
9.92747e-05
-9.92676e-05
-3.94e-10
-9.37899e-08
0.000261344
-0.000261277
5.49272e-08
-2.80601e-08
0.00113295
5.30154e-08
9.28243e-07
7.71612e-07
-1.21091e-06
-1.3833e-06
5.72089e-07
-0.00113223
-7.06351e-08
-1.51247e-07
3.37689e-07
7.63268e-08
0.000254364
-0.000254556
4.42991e-07
1.10651e-06
0.00113358
8.71932e-07
-1.26992e-06
6.09413e-08
-5.86826e-07
7.26732e-07
-1.51782e-06
1.29247e-07
-5.29914e-07
1.75766e-09
-2.76854e-07
0.000261428
5.31051e-07
-3.5346e-08
-0.000261648
1.88087e-08
0.00113368
9.23993e-07
-1.38058e-06
5.77221e-07
-1.20599e-06
7.74175e-07
4.48703e-09
-3.09854e-08
0.000254104
2.0241e-08
-0.00025414
4.29365e-08
-1.14664e-06
-1.09826e-06
0.000276178
-0.000274074
6.54524e-08
7.60909e-08
-4.57494e-09
-7.72317e-09
0.000285615
2.25616e-08
-0.000285686
6.06883e-08
-4.72141e-09
-7.85448e-09
0.000285532
2.31853e-08
-0.000285603
6.06426e-08
-3.08793e-10
7.70263e-08
-0.000236783
-5.74943e-09
-6.48411e-09
-0.000197528
-3.37433e-09
1.40509e-07
-1.77434e-08
0.000197408
-0.000237162
-1.73705e-10
2.57388e-07
0.000237004
-8.82568e-08
-1.12049e-08
1.39908e-08
2.26494e-08
-3.77622e-09
-0.000197258
-9.9158e-05
5.00436e-09
6.35696e-08
9.90894e-05
-1.38661e-08
4.50719e-09
-9.90293e-05
7.70079e-08
-1.7151e-10
-0.00023677
-6.6733e-09
-5.72425e-09
-0.000197507
-4.87897e-09
1.40321e-07
-1.80378e-08
0.00019739
-0.00023715
2.57372e-07
1.63802e-10
0.000236992
-1.15721e-08
-8.82921e-08
1.40057e-08
2.26067e-08
-3.66114e-09
-0.00019724
4.48775e-07
4.48853e-07
0.00114351
4.48381e-07
4.48713e-07
0.00114331
4.4841e-07
4.48954e-07
0.00114327
-7.73891e-08
-1.75282e-09
-0.000260653
-2.25819e-08
3.62189e-08
-0.000253674
-6.7606e-08
-1.42585e-07
3.23153e-07
6.87154e-08
0.000253493
0.00113602
-0.00113532
2.41587e-09
9.11187e-07
7.81001e-07
-1.19904e-06
-1.36969e-06
5.84057e-07
4.27309e-07
1.11865e-06
8.52966e-07
-1.25589e-06
6.97028e-08
-5.71475e-07
7.34094e-07
-1.51511e-06
1.35993e-07
-5.18631e-07
-0.000261043
-2.57354e-07
1.29776e-09
0.000260815
-3.00493e-08
5.14138e-07
7.87374e-09
-2.06256e-08
1.45301e-08
-0.000253281
2.86665e-08
-4.51796e-09
9.06873e-07
-1.36938e-06
5.83498e-07
-1.19931e-06
7.80431e-07
-9.91513e-05
4.94058e-09
6.34491e-08
9.90829e-05
-1.40581e-08
4.63603e-09
-9.90242e-05
-8.02794e-10
-7.73173e-08
-0.000260643
3.6188e-08
-2.27276e-08
0.00113587
-0.00113514
4.51857e-09
9.11047e-07
7.81158e-07
-1.20197e-06
-1.37254e-06
5.81212e-07
-0.000253666
-6.79857e-08
-1.40284e-07
3.20585e-07
6.91028e-08
0.000253485
4.22263e-07
1.11593e-06
8.52653e-07
-1.25582e-06
7.00482e-08
-5.71464e-07
7.3426e-07
-1.51246e-06
1.32822e-07
-5.18716e-07
-0.000261033
9.57003e-10
-2.57447e-07
0.000260806
5.14316e-07
-3.05741e-08
-3.25408e-09
9.06713e-07
-1.36949e-06
5.86347e-07
-1.19662e-06
7.83394e-07
7.54378e-09
-2.26384e-08
1.46519e-08
-0.000253273
3.10666e-08
-0.000285135
6.81007e-08
-6.3471e-08
1.79708e-07
-1.35977e-08
0.000284964
-0.000285052
6.80109e-08
-6.34904e-08
1.74905e-07
-1.39053e-08
0.000284887
-1.14775e-06
-1.11034e-06
-0.000274269
8.08449e-08
8.36276e-08
-7.61259e-09
-4.55917e-09
2.12196e-08
-0.000284736
4.89948e-08
-7.72494e-09
-4.65428e-09
2.18186e-08
-0.000284659
5.35743e-08
6.93125e-08
9.93596e-05
-9.94327e-05
7.79123e-09
9.93044e-05
-9.92972e-05
6.75557e-08
9.93488e-05
-9.94203e-05
7.46858e-09
9.92911e-05
-9.92831e-05
7.30884e-08
1.88744e-07
-1.33801e-08
0.000285991
-0.00028617
7.02998e-08
1.90951e-07
-1.28846e-08
0.000285915
-0.000286096
0.00027625
-1.15215e-06
-1.11207e-06
-0.00027413
6.81175e-08
7.6081e-08
0.000285668
-1.85138e-09
2.51113e-08
-0.000285742
5.81988e-08
0.000285594
-2.13539e-09
2.26201e-08
-0.000285665
5.79953e-08
6.06963e-09
-1.39862e-08
9.91789e-05
-9.9171e-05
6.56493e-08
4.76963e-09
9.9234e-05
6.12339e-09
-1.44824e-08
9.91676e-05
-9.91593e-05
6.56526e-08
4.53809e-09
9.92209e-05
1.55936e-06
1.51971e-06
0.000274184
-5.02738e-07
-5.10936e-07
-6.01886e-09
0.000285189
5.34472e-08
-0.000285252
2.17612e-08
-3.61705e-09
0.000285114
5.34521e-08
-0.00028518
2.19712e-08
6.80817e-08
-1.60478e-08
1.8553e-07
0.000285496
6.79475e-08
-1.3241e-08
1.85238e-07
0.000285419
9.35518e-08
0.000237585
-0.00023766
-1.05557e-08
-8.43726e-09
1.53507e-07
-2.03959e-08
0.000197984
-4.22438e-09
-0.000198112
2.76799e-07
0.000237903
-9.48904e-08
-1.36351e-08
-0.000238071
2.87093e-08
0.00019778
-5.10108e-09
-0.000197819
-9.59966e-10
0.000261372
-0.000261302
-2.77746e-08
5.19209e-08
3.40348e-07
7.61213e-08
0.000254376
-0.000254568
0.00113336
3.89174e-09
9.28971e-07
7.7762e-07
-1.21633e-06
-1.38871e-06
5.80688e-07
-0.00113261
4.32958e-07
0.00113317
8.70826e-07
-1.56051e-06
1.35196e-07
-5.32697e-07
-1.27546e-06
6.07396e-08
-5.86903e-07
7.32153e-07
7.95574e-10
0.000261452
-3.40412e-08
5.31013e-07
-0.000261673
0.000254114
2.0223e-08
-0.000254146
4.04689e-08
-3.39687e-09
0.00113412
9.18727e-07
-1.38616e-06
5.83026e-07
-1.21417e-06
7.79999e-07
0.000261343
-0.000261276
-2.6639e-08
5.18799e-08
3.40141e-07
7.62615e-08
0.000254268
-0.000254458
-7.31107e-08
0.00113331
9.23434e-07
7.77404e-07
-1.2163e-06
-1.38844e-06
5.80656e-07
-0.00113255
4.33726e-07
0.00113324
1.14932e-06
8.71428e-07
-1.27531e-06
6.08336e-08
7.32008e-07
-5.86902e-07
-1.5581e-06
1.3483e-07
-5.35784e-07
0.000261426
-3.57767e-08
5.30963e-07
-0.000261643
0.000254006
4.3049e-09
2.04415e-08
-0.000254043
4.02727e-08
0.00113406
9.18897e-07
-1.38588e-06
5.83007e-07
-1.21415e-06
7.79768e-07
-1.68676e-10
2.66935e-07
-9.14125e-08
-1.20081e-08
0.000237464
2.65397e-08
-0.000197564
-4.07414e-09
1.457e-07
-2.16393e-08
0.000197721
-3.81654e-10
8.50326e-08
-0.000237232
-7.89485e-09
-7.24727e-09
2.66875e-07
-9.13843e-08
-1.27266e-08
0.000237422
2.66941e-08
1.39892e-08
0.000197457
-0.000197494
-3.73558e-09
1.47897e-07
-4.87387e-09
-1.88596e-08
0.000197656
8.50345e-08
0.00023712
-0.000237189
-7.94964e-09
-7.79356e-09
7.76126e-10
-3.18578e-08
5.22702e-07
0.000261148
4.25156e-07
8.66317e-07
1.15379e-06
-5.32806e-07
1.36735e-07
7.34101e-07
-5.8316e-07
6.30639e-08
-1.27211e-06
0.000253677
3.41252e-08
-0.000253708
1.74776e-08
-0.00113485
-3.51439e-09
0.00113559
9.15375e-07
-1.38081e-06
5.84889e-07
-1.2069e-06
7.84716e-07
7.00685e-08
3.3175e-07
0.000253926
3.73146e-09
9.1993e-07
7.82308e-07
-1.20923e-06
-1.38358e-06
5.82538e-07
-9.92799e-10
0.000261058
-0.000260991
-2.56052e-08
4.3839e-08
-3.38803e-08
5.22641e-07
0.000261122
4.31403e-07
-1.55691e-06
8.66467e-07
7.33999e-07
-5.82992e-07
-1.27189e-06
6.3136e-08
1.15103e-06
-5.30252e-07
1.33512e-07
3.33666e-09
0.000253569
3.42493e-08
-0.000253597
1.7651e-08
-0.0011348
0.00113553
9.15454e-07
-1.38048e-06
5.84865e-07
-1.20685e-06
7.84546e-07
-7.05982e-08
7.26682e-08
3.31558e-07
0.000253821
9.2002e-07
7.82173e-07
-1.20917e-06
-1.38324e-06
5.82523e-07
0.000261029
-0.000260964
-2.43e-08
4.38193e-08
0.000276233
-0.000274116
7.08634e-08
7.31921e-08
0.000285531
2.28085e-08
-0.000285604
6.05695e-08
-8.06278e-09
0.000285682
2.31653e-08
-0.000285751
5.86518e-08
9.92978e-05
-1.50799e-08
-9.92908e-05
6.49916e-09
-9.91505e-05
6.78457e-08
9.92096e-05
1.5193e-06
0.00027417
-5.05625e-07
-5.08016e-07
0.000285057
5.3541e-08
-0.000285122
2.21318e-08
-4.11192e-09
-6.52382e-09
0.0002852
5.38333e-08
-0.000285266
2.24848e-08
-1.35578e-08
1.85207e-07
0.000285356
-6.56228e-08
7.01137e-08
-1.30646e-08
1.85475e-07
0.000285505
-1.47246e-08
9.91769e-05
-9.91663e-05
4.37795e-09
9.92278e-05
-1.75062e-09
0.000261365
-0.000261294
-2.73293e-08
5.19576e-08
3.37704e-07
7.61377e-08
0.000254338
-0.00025453
0.00113321
3.00485e-09
9.33896e-07
7.77301e-07
-1.21348e-06
-1.38849e-06
5.77811e-07
-0.00113247
4.32006e-07
0.00113416
8.72177e-07
-1.52084e-06
1.29199e-07
-5.30056e-07
-1.27537e-06
6.10248e-08
-5.86865e-07
7.32125e-07
1.77034e-09
0.000261445
-3.521e-08
5.30943e-07
-0.000261665
0.000254078
1.99903e-08
-0.000254112
4.29188e-08
-4.2576e-09
0.00113396
9.23767e-07
-1.38597e-06
5.80142e-07
-1.21134e-06
7.79643e-07
9.35428e-08
0.000237573
-0.000237648
-1.05428e-08
-8.69644e-09
1.51402e-07
-2.05947e-08
0.000197972
-0.000198098
2.76762e-07
0.000237891
-9.48936e-08
-1.31848e-08
-0.000238059
3.12801e-08
0.000197764
-5.56919e-09
-0.000197805
0.000261334
-0.000261267
5.197e-08
-2.70841e-08
0.00113317
9.28263e-07
7.77437e-07
-1.21349e-06
-1.38842e-06
5.77842e-07
-0.00113241
-7.30687e-08
3.35241e-07
7.61382e-08
0.000254255
-0.000254442
4.33641e-07
0.00113312
1.14407e-06
8.8215e-07
-1.27527e-06
5.74368e-08
7.3219e-07
-5.84167e-07
-1.5525e-06
1.35111e-07
-5.35522e-07
0.000261418
5.30893e-07
-3.54575e-08
-0.000261634
0.00113391
9.29608e-07
-1.38573e-06
5.80187e-07
-1.21134e-06
7.8003e-07
0.00025399
4.79848e-09
1.9795e-08
-0.00025403
4.59685e-08
2.66905e-07
1.07123e-10
-1.23804e-08
-9.14034e-08
0.000237451
2.66183e-08
-0.000197544
-4.4799e-09
1.45704e-07
-1.93227e-08
0.000197702
8.50577e-08
-1.9096e-10
-0.000237219
-7.4982e-09
-7.96896e-09
1.73585e-09
-3.29965e-08
5.22664e-07
0.000261141
4.29616e-07
8.67402e-07
1.11372e-06
-5.27404e-07
1.30815e-07
7.33991e-07
-5.83153e-07
6.31764e-08
-1.27195e-06
0.00025364
3.69286e-08
-0.000253671
1.72629e-08
-0.00113469
-4.03141e-09
0.00113543
9.15179e-07
-1.38063e-06
5.84749e-07
-1.20683e-06
7.84372e-07
7.25377e-08
3.29124e-07
0.00025389
3.04511e-09
9.24969e-07
7.81985e-07
-1.20917e-06
-1.38342e-06
5.82422e-07
-1.7333e-09
0.000261051
-0.000260981
-2.46956e-08
4.1145e-08
2.66873e-07
-9.13796e-08
-1.229e-08
0.00023741
2.69061e-08
1.44429e-08
0.000197447
-0.000197484
-4.66297e-09
1.45692e-07
-4.63087e-09
-1.9189e-08
0.000197642
8.50552e-08
0.000237108
-0.000237178
-7.97233e-09
-7.73395e-09
5.22666e-07
-3.33415e-08
0.000261113
4.25637e-07
-1.55126e-06
8.66212e-07
7.34055e-07
-5.80232e-07
-1.27187e-06
5.98614e-08
1.14578e-06
-5.32787e-07
1.36763e-07
-0.00113464
0.00113537
9.15328e-07
-1.38048e-06
5.84798e-07
-1.20684e-06
7.84632e-07
6.32737e-09
0.000253553
3.99003e-08
-0.000253589
1.69255e-08
9.25161e-07
7.82289e-07
-1.20917e-06
-1.38317e-06
5.82458e-07
-7.04623e-08
7.25105e-08
3.26542e-07
0.000253807
0.00026102
-0.000260954
4.11274e-08
-2.43597e-08
-3.53129e-10
0.000237609
-0.000237685
-8.35373e-09
-8.58227e-09
0.000197828
-5.75283e-09
-0.000197868
-9.37295e-08
0.000261326
-0.000261259
5.2131e-08
-2.75132e-08
4.49579e-07
0.00113275
8.76725e-07
-1.54938e-06
1.35221e-07
-5.32652e-07
-1.26961e-06
5.73944e-08
-5.86622e-07
7.23863e-07
-0.0011322
0.00113376
9.24103e-07
-1.38039e-06
5.77277e-07
-1.20864e-06
7.74187e-07
-0.00113301
-3.11659e-08
0.000254033
2.01112e-08
-0.000254072
4.59561e-08
0.00023757
-0.000237644
-1.06534e-08
-9.11465e-09
0.00019777
1.47807e-08
-5.2455e-09
-0.00019781
-2.66882e-07
1.13279e-09
-3.24403e-08
5.22737e-07
0.000261133
4.23972e-07
8.67413e-07
1.11368e-06
-5.27023e-07
1.31047e-07
7.28357e-07
-5.82994e-07
-1.26655e-06
6.28809e-08
-2.46653e-08
3.45544e-08
-0.000253708
1.71034e-08
-0.00113457
-5.71037e-09
9.1561e-07
-1.37521e-06
5.78942e-07
7.75933e-07
-1.20419e-06
-1.45638e-07
7.21826e-08
3.31552e-07
0.000253927
-1.41469e-09
9.20026e-07
7.76332e-07
-1.20374e-06
-1.37519e-06
5.79432e-07
-8.54333e-08
-1.80235e-09
-0.000260975
-2.48578e-08
4.4259e-08
-3.39877e-10
-1.20805e-08
-9.35464e-08
0.000237448
0.000197513
-0.000197547
-4.8426e-09
-1.94009e-08
0.000197706
-3.09105e-10
0.000237144
-0.000237215
-7.60987e-09
-6.02015e-09
-2.66918e-07
5.227e-07
-3.37556e-08
0.000261105
4.36304e-07
-1.55094e-06
8.66532e-07
7.25745e-07
-5.79939e-07
-1.26348e-06
5.64043e-08
1.14558e-06
-5.32528e-07
1.369e-07
-0.0011345
0.00113523
9.15571e-07
-1.375e-06
5.81862e-07
-1.20414e-06
7.78855e-07
-2.6778e-08
6.16745e-09
0.000253595
3.45255e-08
-0.000253626
1.74013e-08
9.19846e-07
7.76474e-07
-1.20646e-06
-1.37771e-06
5.79554e-07
-1.45552e-07
-7.06067e-08
7.26116e-08
3.2889e-07
0.000253848
-8.52929e-08
0.000261009
-0.000260948
4.69408e-08
-2.46528e-08
-9.14207e-08
-1.28451e-08
0.000237407
1.43274e-08
0.000197453
-0.000197489
-4.33348e-09
-4.69432e-09
-1.89344e-08
0.000197648
0.000237105
-0.000237175
-8.09641e-09
-7.72517e-09
1.8641e-07
-1.35716e-08
0.000285854
-0.000286033
-6.75898e-08
1.88645e-07
-1.37384e-08
0.000285997
-0.000286175
0.000276208
-0.000274105
7.09472e-08
7.60964e-08
0.000285529
2.31336e-08
-0.000285603
6.31362e-08
-7.72057e-09
0.000285671
2.29721e-08
-0.000285743
6.06902e-08
4.25288e-09
9.93555e-05
-9.94274e-05
9.92981e-05
-1.48109e-08
-9.9291e-05
6.16958e-09
-9.9143e-05
6.54657e-08
9.92046e-05
1.51386e-06
0.000274159
-5.05778e-07
-5.10509e-07
0.00028505
5.82778e-08
-0.000285118
2.23672e-08
-6.06427e-09
-6.11237e-09
0.000285192
5.58395e-08
-0.00028526
2.49609e-08
-1.38183e-08
1.80585e-07
0.000285358
-6.54859e-08
7.04689e-08
-1.64613e-08
1.82887e-07
0.0002855
-1.43634e-08
9.91747e-05
-9.91664e-05
4.65036e-09
9.92279e-05
-9.11758e-08
0.000261312
-0.000261248
5.21053e-08
-2.55757e-08
0.00113287
9.57272e-07
7.74323e-07
-1.2108e-06
5.72046e-07
-1.38563e-06
-0.00113227
-1.51327e-07
3.40161e-07
7.62589e-08
0.000254253
-7.30624e-08
-0.000254445
3.93957e-07
0.00113372
8.6645e-07
-1.51527e-06
1.23093e-07
-5.32761e-07
-1.27237e-06
6.10176e-08
-5.84108e-07
7.2935e-07
-2.79285e-07
0.000261399
5.33666e-07
-3.54428e-08
-0.000261616
0.00113359
9.24148e-07
-1.38299e-06
5.77199e-07
-1.20588e-06
7.76715e-07
-3.10519e-08
0.000253994
2.00353e-08
-0.00025403
4.28805e-08
9.58128e-11
0.000237603
-0.000237677
-8.50575e-09
-1.06809e-08
-2.03838e-08
0.00019803
-0.000198157
3.5402e-10
0.00023792
-1.36193e-08
-9.4907e-08
-0.000238089
0.000197823
-5.20714e-09
-0.000197864
0.000237563
-0.000237635
-8.16351e-09
-1.06152e-08
-2.04981e-08
0.000197967
-0.000198094
-4.2469e-09
0.000237879
-1.34099e-08
-9.48789e-08
-0.000238049
0.00019776
1.49492e-08
-5.45158e-09
-0.0001978
1.24937e-09
-2.66951e-07
5.20162e-07
-3.29661e-08
0.000261123
4.35132e-07
8.67093e-07
1.10821e-06
-5.2714e-07
1.30892e-07
7.28626e-07
-5.82952e-07
-1.26653e-06
6.33426e-08
-0.00113442
-9.56177e-10
9.15327e-07
-1.3753e-06
5.81801e-07
7.78905e-07
-1.20155e-06
-2.66273e-08
3.68721e-08
-0.0002537
1.73035e-08
1.13799e-08
9.19912e-07
7.76602e-07
-1.2066e-06
-1.37794e-06
5.76682e-07
-1.45589e-07
7.26402e-08
3.28953e-07
0.000253918
-7.49249e-10
-8.53393e-08
-0.000260966
4.42184e-08
-2.52531e-08
-2.6941e-07
5.22689e-07
-3.37887e-08
0.000261094
4.24119e-07
-1.51131e-06
8.67076e-07
7.31212e-07
-5.82878e-07
-1.26889e-06
6.34248e-08
1.10544e-06
-5.27239e-07
1.30876e-07
-0.00113434
0.00113507
9.15091e-07
-1.37762e-06
5.8182e-07
-1.20136e-06
7.81343e-07
-2.67278e-08
6.31032e-09
0.000253556
3.95229e-08
-0.000253592
1.71143e-08
9.19548e-07
7.78987e-07
-1.20646e-06
-1.38032e-06
5.7666e-07
-1.4559e-07
-7.04263e-08
7.25917e-08
3.28925e-07
0.000253808
-8.272e-08
0.000261001
-0.000260937
4.12957e-08
-2.33742e-08
3.10852e-10
-1.26898e-08
-9.13834e-08
0.000237439
0.000197506
-0.000197543
-4.34138e-09
-1.90641e-08
0.000197701
-3.05423e-11
0.000237138
-0.000237207
-7.55765e-09
-8.15767e-09
-1.2487e-08
-9.13686e-08
0.000237398
1.44652e-08
0.000197443
-0.00019748
-4.55221e-09
-4.59963e-09
-1.91438e-08
0.000197638
0.000237098
-0.000237166
-7.20369e-09
-8.08269e-09
9.92774e-05
-9.92703e-05
9.92725e-05
-9.92654e-05
0.000274129
-5.05231e-07
-5.08265e-07
-6.05965e-09
5.35208e-08
-0.000285198
2.18494e-08
-6.1729e-09
5.81343e-08
-0.00028512
2.24911e-08
-6.54673e-08
-1.34434e-08
1.82937e-07
0.00028544
-6.54907e-08
-1.37406e-08
1.82902e-07
0.000285358
9.91539e-05
-9.91456e-05
9.92072e-05
9.91492e-05
-9.91409e-05
9.92024e-05
6.38542e-08
9.91117e-05
4.43773e-09
-9.90526e-05
6.35149e-08
9.90992e-05
4.48056e-09
-9.90405e-05
6.81408e-08
1.79937e-07
-1.36567e-08
0.000285018
6.79822e-08
1.79728e-07
-1.36155e-08
0.000284943
-1.15872e-06
-1.1186e-06
-0.000274327
8.07903e-08
8.61496e-08
-7.46003e-09
2.07049e-08
-0.00028479
5.12502e-08
-7.51163e-09
2.0899e-08
-0.000284715
4.89441e-08
7.69898e-08
-0.000236741
-5.76649e-09
-6.88375e-09
1.40279e-07
-1.78522e-08
0.00019734
2.57355e-07
0.000236962
-8.82515e-08
-1.18913e-08
2.2583e-08
-3.38176e-09
-0.000197193
-9.83447e-10
-0.000260668
-2.25495e-08
3.57908e-08
3.23288e-07
6.91557e-08
0.000253493
0.0011363
3.67718e-09
9.11002e-07
7.86955e-07
-1.20731e-06
-1.37807e-06
5.8993e-07
4.29048e-07
8.51905e-07
-1.55531e-06
1.41611e-07
-5.24481e-07
-1.26146e-06
6.98558e-08
-5.71687e-07
7.39806e-07
7.64764e-10
0.000260831
-2.97761e-08
5.14107e-07
1.46388e-08
-0.000253281
3.11362e-08
-3.56583e-09
9.06869e-07
-1.37499e-06
5.92265e-07
-1.20478e-06
7.8924e-07
-0.000260642
-2.17555e-08
3.57635e-08
-6.53655e-08
3.23099e-07
6.90396e-08
0.000253382
0.00113626
9.11043e-07
7.86907e-07
-1.20725e-06
-1.37769e-06
5.89924e-07
4.23765e-07
1.15598e-06
8.52155e-07
-1.2612e-06
6.67294e-08
7.3978e-07
-5.68705e-07
-1.55279e-06
1.41372e-07
-5.24609e-07
0.000260804
-3.14976e-08
5.14054e-07
4.68363e-09
1.48295e-08
-0.000253173
3.11397e-08
9.06837e-07
-1.37467e-06
5.92253e-07
-1.20473e-06
7.89163e-07
1.79537e-07
-1.31867e-08
0.000284888
-6.59495e-08
1.79851e-07
-1.32119e-08
0.000285032
-0.000274308
8.10438e-08
8.33508e-08
2.34806e-08
-0.000284658
4.88317e-08
-2.57487e-09
2.17216e-08
-0.000284803
4.92565e-08
4.78558e-09
9.91061e-05
-1.4311e-08
-9.90475e-05
-1.75158e-09
-0.000260658
-2.21652e-08
3.30752e-08
3.2064e-07
6.90731e-08
0.000253458
0.00113615
3.23922e-09
9.10825e-07
7.86662e-07
-1.20444e-06
-1.37785e-06
5.8701e-07
4.22561e-07
8.53007e-07
-1.51558e-06
1.35639e-07
-5.19051e-07
-1.26131e-06
7.00648e-08
-5.71662e-07
7.39712e-07
1.762e-09
0.000260821
-3.08839e-08
5.16807e-07
1.4649e-08
-0.000253247
3.10391e-08
-3.92168e-09
9.06523e-07
-1.37478e-06
5.89278e-07
-1.20194e-06
7.88989e-07
7.70105e-08
-0.000236729
-5.73198e-09
-6.85409e-09
1.40351e-07
-1.80745e-08
0.00019733
2.57343e-07
0.000236951
-8.82735e-08
-1.13749e-08
2.2858e-08
-3.92471e-09
-0.00019718
-0.000260631
3.30462e-08
-2.18285e-08
0.00113609
9.10929e-07
7.86928e-07
-1.20445e-06
-1.37767e-06
5.87042e-07
-6.80182e-08
3.18104e-07
6.90522e-08
0.000253374
4.23555e-07
1.15075e-06
8.51651e-07
-1.26118e-06
6.67196e-08
7.39825e-07
-5.68768e-07
-1.54717e-06
1.41691e-07
-5.24386e-07
0.000260794
5.16821e-07
-3.11759e-08
9.06629e-07
-1.37462e-06
5.89318e-07
-1.20196e-06
7.8917e-07
7.73076e-09
1.42875e-08
-0.000253162
3.40299e-08
-2.79688e-10
-0.000236766
-6.76649e-09
-3.79134e-09
-1.82663e-08
0.000197393
-2.99865e-10
0.000236988
-1.09626e-08
-9.04165e-08
-4.04262e-09
-0.000197243
-7.72616e-08
-0.000260626
3.89526e-08
-2.19332e-08
0.00113595
9.11142e-07
7.81186e-07
-1.20173e-06
5.84126e-07
-1.37218e-06
-1.40288e-07
3.23114e-07
6.92032e-08
0.000253411
4.23633e-07
8.51953e-07
-1.54413e-06
1.38781e-07
-5.21376e-07
-1.25272e-06
6.32899e-08
-5.65791e-07
7.31477e-07
-2.57371e-07
0.000260788
5.11378e-07
-3.16305e-08
9.06849e-07
-1.36915e-06
5.86378e-07
-1.19925e-06
7.83394e-07
-2.27771e-08
1.47564e-08
-0.000253199
2.86537e-08
-0.000236726
-5.88053e-09
-6.83654e-09
-5.00152e-09
-1.78836e-08
0.000197335
0.000236947
-8.82929e-08
-1.1957e-08
1.39746e-08
-3.64768e-09
-0.000197185
1.74987e-07
-1.40236e-08
0.000284884
-6.34828e-08
1.77303e-07
-1.66112e-08
0.000285026
-0.000274294
8.11847e-08
8.6314e-08
2.1674e-08
-0.000284656
5.37198e-08
-4.55064e-09
2.42895e-08
-0.000284798
5.13164e-08
4.93462e-09
9.91062e-05
-1.399e-08
-9.90475e-05
-7.47224e-08
-0.000260614
3.32788e-08
-2.10818e-08
0.0011358
9.1082e-07
7.83616e-07
-1.2018e-06
5.81224e-07
-1.37483e-06
-1.40312e-07
3.18005e-07
6.91021e-08
0.000253377
4.22152e-07
8.52607e-07
-1.50715e-06
1.35782e-07
-5.18859e-07
-1.25818e-06
7.02284e-08
-5.71467e-07
7.36846e-07
-2.59877e-07
0.000260777
5.16833e-07
-3.18871e-08
9.06547e-07
-1.3718e-06
5.86342e-07
-1.1965e-06
7.85882e-07
-2.27059e-08
1.44898e-08
-0.000253166
3.36856e-08
-6.11271e-11
-0.000236758
-6.65531e-09
-5.95954e-09
-1.79779e-08
0.000197389
1.97139e-10
0.00023698
-1.17916e-08
-8.82628e-08
-3.62352e-09
-0.000197239
-0.000236717
-6.59055e-09
-5.90372e-09
-4.90897e-09
-1.80672e-08
0.000197326
0.000236938
-1.16197e-08
-8.82326e-08
1.40951e-08
-3.83974e-09
-0.000197176
9.90854e-05
-9.90266e-05
9.90808e-05
-9.90221e-05
-5.66779e-10
8.64218e-08
0.000145584
-0.000145666
-3.6574e-09
-9.31309e-08
-1.26707e-08
-0.000237867
-3.40427e-10
2.71834e-07
-0.000173727
-1.96748e-11
-3.27076e-10
0.000173717
-0.000230529
-7.3117e-09
-8.55944e-09
0.000230466
6.98758e-08
-0.00017382
-3.85471e-10
-0.000230687
-1.71449e-08
2.48832e-07
-1.16212e-10
0.000145576
-8.03655e-05
-1.38484e-08
-2.0731e-10
8.03795e-05
-6.16126e-08
0.00027022
1.76233e-08
1.98979e-07
-0.000270395
-6.57771e-09
0.000198005
1.73805e-08
3.35348e-08
3.42852e-09
-8.04305e-05
8.88677e-09
0.000270148
4.25082e-08
-0.000145674
-3.0589e-10
8.5945e-09
-1.20535e-08
-8.73373e-09
-1.31695e-10
9.80006e-08
8.75729e-10
0.000173832
-2.98195e-10
-0.000173928
-8.8033e-08
0.000230752
2.534e-07
-0.000230912
-0.000145758
-2.95563e-10
7.38439e-08
6.049e-08
8.03154e-05
-0.000269976
1.46828e-08
0.000269907
3.95602e-08
-1.99273e-08
-4.48645e-09
1.48572e-07
1.95417e-07
8.033e-05
9.93463e-05
-1.52219e-08
6.22271e-09
-9.93373e-05
4.62622e-09
6.88496e-08
8.64631e-08
-3.34938e-10
0.000145583
-0.000145665
-3.82515e-09
-1.3084e-08
-9.31115e-08
-0.000237854
-2.46286e-11
2.71805e-07
-0.000230519
-7.2934e-09
-8.51609e-09
0.000230456
6.9857e-08
-0.000173724
-1.62844e-10
-7.78369e-11
0.000173714
-0.000230677
-1.72438e-08
2.48849e-07
-0.000173818
-6.37997e-11
-1.20354e-10
0.000145575
-8.03674e-05
-1.41266e-08
-9.77216e-11
8.03816e-05
-6.16331e-08
0.000270216
1.77533e-08
1.98945e-07
-0.000270392
-6.03468e-09
0.000197989
1.5456e-08
3.32767e-08
3.54871e-09
-8.04325e-05
9.12709e-09
0.000270144
4.2371e-08
-0.000145673
8.55009e-09
-1.6185e-10
-8.68712e-09
-1.20021e-08
-2.57355e-11
9.79637e-08
-8.8025e-08
0.000230742
2.5339e-07
-0.000230903
6.78889e-10
0.00017383
-4.59317e-11
-0.000173925
-0.000145757
7.38439e-08
-4.19166e-11
6.05891e-08
8.03172e-05
-0.000269972
1.47675e-08
0.000269903
3.94232e-08
-2.0074e-08
-3.7533e-09
1.48353e-07
1.95452e-07
8.03318e-05
9.93386e-05
-1.51949e-08
8.77583e-09
4.42823e-09
6.65306e-08
-4.09152e-08
-4.09833e-08
0.000218974
-0.000219099
1.02424e-07
1.0471e-07
-8.19487e-05
8.39111e-09
-1.71584e-08
8.19575e-05
-8.19367e-05
8.40384e-09
-1.72022e-08
8.19455e-05
-8.20139e-05
2.42878e-08
-8.20019e-05
2.42229e-08
3.8578e-08
3.85608e-08
0.000218913
7.0363e-08
-3.8498e-08
-4.03223e-08
0.00022902
5.74142e-08
-0.000229069
6.32395e-08
2.34333e-08
0.000285866
-8.62698e-09
-0.00028594
-3.69706e-09
0.000260212
7.78227e-08
-0.000260236
7.9268e-08
1.73213e-08
0.00018719
-0.000187222
7.27927e-08
-3.84591e-08
-3.82653e-08
0.000228944
5.74955e-08
-0.000228998
6.31533e-08
2.34956e-08
0.00028578
-8.73128e-09
-3.83098e-09
-0.000285854
0.000260089
7.32041e-08
8.40781e-08
-0.00026011
1.73248e-08
0.000187134
-0.000187167
-9.09959e-09
-9.07577e-09
-0.000219159
-8.20057e-05
-8.19936e-05
1.46374e-07
-1.28134e-07
0.000228869
2.352e-07
-0.000187072
3.47656e-08
0.000187043
1.88193e-07
-1.33277e-08
-6.65095e-08
7.18693e-08
-0.000260029
-7.0011e-08
0.000260008
7.23752e-08
7.86503e-08
3.28139e-07
1.89662e-07
0.000228815
5.72788e-08
1.46328e-07
-1.26186e-07
0.000228798
2.30965e-07
-0.000187019
3.67639e-08
0.000186988
1.85795e-07
-1.36811e-08
-6.65311e-08
7.17335e-08
-0.000259909
-7.22746e-08
0.000259891
6.99453e-08
8.0952e-08
3.22954e-07
1.89587e-07
0.000228746
5.50981e-08
7.588e-10
8.07037e-08
0.000145246
-0.000145323
-4.71359e-09
-8.68486e-08
-1.10316e-08
-0.000236937
-2.88105e-10
2.52754e-07
-0.000173341
-1.05618e-09
-2.34494e-10
-0.000229693
-2.81587e-09
-6.81631e-09
5.51994e-08
-0.000173427
-2.21215e-10
-0.000229839
-1.56236e-08
2.31673e-07
-6.66637e-10
-8.01728e-05
-1.67126e-08
6.53134e-10
8.01889e-05
-5.75332e-08
0.000269284
1.6174e-08
-0.000269445
1.85175e-07
-3.93769e-09
0.000197373
1.40622e-08
2.47442e-08
4.56617e-09
-8.02349e-05
7.41348e-09
0.000269225
3.11733e-08
-0.000145327
9.18418e-10
3.89378e-09
-6.82245e-09
-7.00196e-09
-1.15172e-10
8.10267e-08
-4.27562e-10
0.000173433
-0.00017352
-3.18302e-10
-8.20341e-08
0.000229894
-0.000230043
2.35895e-07
-0.000145405
-1.97284e-10
5.87809e-08
5.67405e-08
8.01274e-05
-0.000269066
1.73184e-08
2.85476e-08
-1.75922e-08
-5.084e-09
1.37816e-07
1.82026e-07
9.90974e-05
-1.38117e-08
5.80066e-09
5.38369e-09
6.26863e-08
8.06661e-08
9.48594e-10
0.000145245
-0.000145321
-4.81343e-09
-1.14043e-08
-8.6859e-08
-0.000236925
2.98481e-11
2.52752e-07
-0.000229682
-2.79378e-09
-6.96861e-09
5.51969e-08
-0.000173338
-1.25741e-09
2.22529e-11
-0.000229829