/*--------------------------------*- C++ -*----------------------------------*\
| =========                 |                                                 |
| \\      /  F ield         | OpenFOAM: The Open Source CFD Toolbox           |
|  \\    /   O peration     | Version:  2312                                  |
|   \\  /    A nd           | Website:  www.openfoam.com                      |
|    \\/     M anipulation  |                                                 |
\*---------------------------------------------------------------------------*/
FoamFile
{
    version     2.0;
    format      ascii;
    arch        "LSB;label=32;scalar=64";
    class       volScalarField;
    location    "1000";
    object      epsilon;
}
// * * * * * * * * * * * * * * * * * * * * * * * * * * * * * * * * * * * * * //

dimensions      [0 2 -3 0 0 0 0];

internalField   nonuniform List<scalar> 
43211
(
4.9917e-07
4.99974e-07
4.99974e-07
4.99867e-07
4.45574e-07
4.54107e-07
4.54107e-07
4.63745e-07
4.03788e-07
4.18744e-07
4.18746e-07
4.39534e-07
3.68405e-07
3.88705e-07
3.88708e-07
4.17793e-07
3.38054e-07
3.62209e-07
3.62212e-07
3.96187e-07
3.11679e-07
3.38348e-07
3.38352e-07
3.74663e-07
2.885e-07
3.16691e-07
3.16695e-07
3.53771e-07
2.67943e-07
2.97059e-07
2.97063e-07
3.34191e-07
2.49595e-07
2.79396e-07
2.794e-07
3.16513e-07
2.33147e-07
2.63696e-07
2.637e-07
3.0118e-07
2.18372e-07
2.49965e-07
2.49969e-07
2.88504e-07
2.05093e-07
2.38203e-07
2.38208e-07
2.787e-07
1.93172e-07
2.28412e-07
2.28416e-07
2.71875e-07
1.82496e-07
2.20598e-07
2.20603e-07
2.68159e-07
1.72975e-07
2.1477e-07
2.14774e-07
2.67642e-07
1.64535e-07
2.10936e-07
2.10941e-07
2.70499e-07
1.57114e-07
2.09107e-07
2.09112e-07
2.76705e-07
1.50659e-07
2.09296e-07
2.09302e-07
2.86287e-07
1.45126e-07
2.11549e-07
2.11558e-07
2.99232e-07
1.40479e-07
2.15888e-07
2.15895e-07
3.15604e-07
1.36691e-07
2.22327e-07
2.22337e-07
3.3537e-07
5.06203e-07
5.05587e-07
5.05586e-07
5.06203e-07
5.05586e-07
5.05586e-07
5.05987e-07
5.05987e-07
5.05987e-07
5.05987e-07
5.05588e-07
5.05588e-07
5.06203e-07
5.05588e-07
5.05587e-07
5.06204e-07
4.99868e-07
4.67259e-07
4.99975e-07
4.99976e-07
4.6413e-07
4.64138e-07
4.99868e-07
4.67258e-07
4.99976e-07
4.99976e-07
4.64134e-07
4.64139e-07
4.99974e-07
4.64124e-07
4.64129e-07
4.99867e-07
4.67261e-07
4.99976e-07
4.64125e-07
4.64134e-07
4.67263e-07
4.63745e-07
4.41544e-07
4.54112e-07
4.5412e-07
4.26998e-07
4.27007e-07
4.63745e-07
4.41543e-07
4.54116e-07
4.54123e-07
4.26998e-07
4.27009e-07
4.54113e-07
4.2699e-07
4.27e-07
4.63745e-07
4.41549e-07
4.54116e-07
4.26992e-07
4.27001e-07
4.41556e-07
4.39527e-07
4.19399e-07
4.18753e-07
4.18761e-07
3.95843e-07
3.95852e-07
4.3953e-07
4.19402e-07
4.18752e-07
4.18764e-07
3.95838e-07
3.95855e-07
4.18757e-07
3.95833e-07
3.95848e-07
4.39531e-07
4.19407e-07
4.18755e-07
3.95835e-07
3.95843e-07
4.19415e-07
4.17778e-07
3.97737e-07
3.88717e-07
3.88725e-07
3.68574e-07
3.68582e-07
4.17781e-07
3.97742e-07
3.8871e-07
3.88728e-07
3.68564e-07
3.68585e-07
3.88722e-07
3.68561e-07
3.68581e-07
4.17786e-07
3.97748e-07
3.88716e-07
3.68564e-07
3.68572e-07
3.97758e-07
3.96168e-07
3.76152e-07
3.62222e-07
3.6223e-07
3.4411e-07
3.44117e-07
3.96173e-07
3.76158e-07
3.62212e-07
3.62234e-07
3.44097e-07
3.44121e-07
3.6223e-07
3.44096e-07
3.44118e-07
3.96178e-07
3.76165e-07
3.62219e-07
3.44099e-07
3.44106e-07
3.76175e-07
3.74642e-07
3.55156e-07
3.38363e-07
3.3837e-07
3.21928e-07
3.21934e-07
3.74648e-07
3.55162e-07
3.38349e-07
3.38374e-07
3.21912e-07
3.21937e-07
3.38371e-07
3.21912e-07
3.21936e-07
3.74654e-07
3.55169e-07
3.38358e-07
3.21915e-07
3.21921e-07
3.5518e-07
3.53749e-07
3.35422e-07
3.16708e-07
3.16713e-07
3.01799e-07
3.01804e-07
3.53755e-07
3.35429e-07
3.16691e-07
3.16717e-07
3.01781e-07
3.01808e-07
3.16716e-07
3.01783e-07
3.01807e-07
3.53762e-07
3.35436e-07
3.16701e-07
3.01786e-07
3.01791e-07
3.35446e-07
3.34168e-07
3.17546e-07
2.97077e-07
2.97082e-07
2.83646e-07
2.83651e-07
3.34175e-07
3.17552e-07
2.97058e-07
2.97085e-07
2.83626e-07
2.83655e-07
2.97085e-07
2.83629e-07
2.83654e-07
3.34182e-07
3.1756e-07
2.97068e-07
2.83632e-07
2.83637e-07
3.1757e-07
3.1649e-07
3.01977e-07
2.79415e-07
2.79419e-07
2.67455e-07
2.6746e-07
3.16498e-07
3.01982e-07
2.79394e-07
2.79422e-07
2.67434e-07
2.67464e-07
2.79423e-07
2.67437e-07
2.67463e-07
3.16505e-07
3.0199e-07
2.79405e-07
2.6744e-07
2.67445e-07
3.02002e-07
3.01156e-07
2.89033e-07
2.63715e-07
2.6372e-07
2.53233e-07
2.53237e-07
3.01164e-07
2.89038e-07
2.63693e-07
2.63723e-07
2.5321e-07
2.53241e-07
2.63723e-07
2.53213e-07
2.5324e-07
3.01171e-07
2.89046e-07
2.63704e-07
2.53216e-07
2.53221e-07
2.8906e-07
2.88479e-07
2.78933e-07
2.49985e-07
2.4999e-07
2.4098e-07
2.40985e-07
2.88487e-07
2.7894e-07
2.49962e-07
2.49993e-07
2.40955e-07
2.40988e-07
2.49993e-07
2.40959e-07
2.40987e-07
2.88493e-07
2.7895e-07
2.49973e-07
2.40962e-07
2.40967e-07
2.78963e-07
2.78672e-07
2.7181e-07
2.38226e-07
2.38231e-07
2.30696e-07
2.30702e-07
2.78681e-07
2.71816e-07
2.38201e-07
2.38234e-07
2.3067e-07
2.30705e-07
2.38233e-07
2.30673e-07
2.30703e-07
2.78688e-07
2.71825e-07
2.38213e-07
2.30676e-07
2.30683e-07
2.71836e-07
2.71848e-07
2.67834e-07
2.28436e-07
2.28443e-07
2.22388e-07
2.22397e-07
2.71857e-07
2.67845e-07
2.2841e-07
2.28445e-07
2.22362e-07
2.224e-07
2.28443e-07
2.22364e-07
2.22396e-07
2.71865e-07
2.67854e-07
2.28422e-07
2.22367e-07
2.22375e-07
2.67869e-07
2.68126e-07
2.6695e-07
2.20624e-07
2.20633e-07
2.16063e-07
2.16074e-07
2.6814e-07
2.66963e-07
2.20597e-07
2.20636e-07
2.16035e-07
2.16078e-07
2.20632e-07
2.16036e-07
2.16072e-07
2.68147e-07
2.66974e-07
2.20611e-07
2.1604e-07
2.1605e-07
2.6699e-07
2.676e-07
2.69119e-07
2.14797e-07
2.1481e-07
2.11728e-07
2.11745e-07
2.67619e-07
2.69144e-07
2.14769e-07
2.14812e-07
2.117e-07
2.11747e-07
2.14807e-07
2.11701e-07
2.11738e-07
2.67628e-07
2.69152e-07
2.14784e-07
2.11704e-07
2.11717e-07
2.69172e-07
2.70448e-07
2.74633e-07
2.10964e-07
2.10982e-07
2.09392e-07
2.09416e-07
2.70474e-07
2.74652e-07
2.10937e-07
2.10984e-07
2.09367e-07
2.09417e-07
2.10974e-07
2.09363e-07
2.09402e-07
2.70482e-07
2.74664e-07
2.10954e-07
2.09369e-07
2.09385e-07
2.74684e-07
2.76655e-07
2.83519e-07
2.09134e-07
2.0916e-07
2.09103e-07
2.09131e-07
2.76678e-07
2.83535e-07
2.09111e-07
2.0916e-07
2.09079e-07
2.09132e-07
2.09145e-07
2.09072e-07
2.09112e-07
2.76688e-07
2.83547e-07
2.09128e-07
2.09077e-07
2.09097e-07
2.83568e-07
2.86242e-07
2.95787e-07
2.0933e-07
2.09358e-07
2.10824e-07
2.10856e-07
2.86263e-07
2.95794e-07
2.09305e-07
2.09359e-07
2.10798e-07
2.10857e-07
2.09338e-07
2.10786e-07
2.10828e-07
2.8627e-07
2.95813e-07
2.09324e-07
2.10794e-07
2.10817e-07
2.95831e-07
2.99189e-07
3.1146e-07
2.11591e-07
2.11621e-07
2.1464e-07
2.14683e-07
2.992e-07
3.11479e-07
2.11565e-07
2.11623e-07
2.14614e-07
2.14682e-07
2.11593e-07
2.14602e-07
2.14648e-07
2.99219e-07
3.11496e-07
2.11582e-07
2.14609e-07
2.14638e-07
3.11514e-07
3.15549e-07
3.30527e-07
2.15927e-07
2.1597e-07
2.2057e-07
2.20606e-07
3.15575e-07
3.3054e-07
2.15901e-07
2.1597e-07
2.20541e-07
2.20609e-07
2.15937e-07
2.20518e-07
2.20572e-07
3.15588e-07
3.30552e-07
2.15926e-07
2.20526e-07
2.20563e-07
3.30591e-07
3.35323e-07
2.22386e-07
2.22419e-07
3.35321e-07
2.22355e-07
2.22422e-07
2.22384e-07
3.35335e-07
2.22375e-07
5.35653e-07
5.35523e-07
5.35636e-07
5.35636e-07
5.34569e-07
5.35438e-07
5.33635e-07
5.35608e-07
5.34569e-07
5.35438e-07
5.35608e-07
5.33635e-07
5.35198e-07
5.35984e-07
5.35983e-07
1.10651e-06
3.87795e-06
9.32087e-07
4.60325e-06
1.26012e-05
1.65943e-05
1.10694e-06
3.87828e-06
9.31846e-07
4.60417e-06
4.9917e-07
4.9917e-07
4.9917e-07
4.57217e-07
4.57217e-07
4.57217e-07
4.57217e-07
5.4296e-07
1.2178e-06
4.99137e-07
4.86008e-07
5.25011e-07
1.20859e-06
4.82348e-07
1.26025e-05
1.65956e-05
5.42967e-07
4.99137e-07
1.21778e-06
4.86008e-07
5.25009e-07
4.82348e-07
1.20857e-06
2.51892e-06
2.51951e-06
4.84042e-07
2.37147e-06
2.37214e-06
1.43151e-06
5.59224e-06
1.3307e-06
6.1352e-06
2.12846e-05
2.31118e-05
1.43187e-06
5.593e-06
1.3305e-06
6.13645e-06
4.45574e-07
4.45574e-07
4.45575e-07
4.13573e-07
4.13573e-07
4.13574e-07
4.13574e-07
5.87299e-07
1.19528e-06
4.46483e-07
4.44622e-07
5.74002e-07
1.20483e-06
4.35743e-07
2.12863e-05
2.31128e-05
5.87309e-07
4.46484e-07
1.19533e-06
4.44623e-07
5.74008e-07
4.35743e-07
1.20486e-06
2.31294e-06
2.31338e-06
4.53586e-07
2.35426e-06
2.35453e-06
1.66354e-06
6.91688e-06
1.5961e-06
7.3189e-06
2.46419e-05
2.49387e-05
1.66359e-06
6.91798e-06
1.59612e-06
7.32032e-06
4.03788e-07
4.03789e-07
4.03789e-07
3.76731e-07
3.76731e-07
3.76732e-07
3.76733e-07
6.15706e-07
1.24319e-06
4.06598e-07
4.10825e-07
6.08546e-07
1.26593e-06
3.97781e-07
2.46435e-05
2.494e-05
6.15715e-07
4.06599e-07
1.24314e-06
4.10826e-07
6.08557e-07
3.9778e-07
1.26592e-06
2.47448e-06
2.47492e-06
4.30312e-07
2.5331e-06
2.53357e-06
1.81239e-06
7.8449e-06
1.77232e-06
8.09822e-06
2.4738e-05
2.44323e-05
1.81247e-06
7.84634e-06
1.77239e-06
8.09968e-06
3.68405e-07
3.68407e-07
3.68407e-07
3.45233e-07
3.45234e-07
3.45235e-07
3.45236e-07
6.26359e-07
1.31336e-06
3.73523e-07
3.81796e-07
6.2497e-07
1.33396e-06
3.66073e-07
2.47395e-05
2.44328e-05
6.26371e-07
3.73526e-07
1.31335e-06
3.81798e-07
6.24978e-07
3.66074e-07
1.33396e-06
2.63557e-06
2.63605e-06
4.0859e-07
2.67961e-06
2.68013e-06
1.89281e-06
8.39416e-06
1.87305e-06
8.52845e-06
2.36934e-05
2.32667e-05
1.8929e-06
8.39561e-06
1.87313e-06
8.5299e-06
3.38055e-07
3.38056e-07
3.38057e-07
3.17947e-07
3.17948e-07
3.1795e-07
3.17951e-07
6.22128e-07
1.37227e-06
3.45276e-07
3.5602e-07
6.2548e-07
1.3873e-06
3.38801e-07
2.36948e-05
2.32669e-05
6.22143e-07
3.45279e-07
1.37227e-06
3.56023e-07
6.25491e-07
3.38803e-07
1.38731e-06
2.76367e-06
2.76422e-06
3.86933e-07
2.80544e-06
2.80603e-06
1.92984e-06
8.66199e-06
1.92163e-06
8.71795e-06
2.2502e-05
2.21216e-05
1.92992e-06
8.66338e-06
1.92171e-06
8.71931e-06
3.1168e-07
3.11682e-07
3.11683e-07
2.94029e-07
2.94031e-07
2.94033e-07
2.94033e-07
6.0888e-07
1.41613e-06
3.2052e-07
3.32738e-07
6.1538e-07
1.42767e-06
3.14774e-07
2.25035e-05
2.21215e-05
6.08896e-07
3.20525e-07
1.41614e-06
3.32741e-07
6.15392e-07
3.14776e-07
1.42769e-06
2.89512e-06
2.89577e-06
3.65562e-07
2.94362e-06
2.94426e-06
1.94785e-06
8.75863e-06
1.94346e-06
8.77007e-06
2.14773e-05
2.11799e-05
1.94794e-06
8.75993e-06
1.94355e-06
8.77136e-06
2.88501e-07
2.88503e-07
2.88504e-07
2.72861e-07
2.72863e-07
2.72865e-07
2.72866e-07
5.91844e-07
1.45279e-06
2.98431e-07
3.11598e-07
5.99354e-07
1.46411e-06
2.93265e-07
2.14788e-05
2.11795e-05
5.9186e-07
2.98436e-07
1.45281e-06
3.11601e-07
5.99366e-07
2.93267e-07
1.46413e-06
3.04867e-06
3.0494e-06
3.45115e-07
3.10622e-06
3.10695e-06
1.96555e-06
8.76795e-06
1.95942e-06
8.76283e-06
2.06742e-05
2.04539e-05
1.96564e-06
8.76915e-06
1.9595e-06
8.76408e-06
2.67945e-07
2.67947e-07
2.67948e-07
2.53993e-07
2.53994e-07
2.53997e-07
2.53998e-07
5.75423e-07
1.49169e-06
2.78515e-07
2.92461e-07
5.82249e-07
1.50553e-06
2.73841e-07
2.06755e-05
2.04538e-05
5.75438e-07
2.7852e-07
1.4917e-06
2.92464e-07
5.82261e-07
2.73844e-07
1.50556e-06
3.22555e-06
3.22644e-06
3.26244e-07
3.29177e-06
3.2927e-06
1.9955e-06
8.74883e-06
1.98418e-06
8.74278e-06
2.00724e-05
1.99106e-05
1.99559e-06
8.74997e-06
1.98425e-06
8.74396e-06
2.49596e-07
2.49598e-07
2.49599e-07
2.37094e-07
2.37096e-07
2.37098e-07
2.37099e-07
5.62874e-07
1.5398e-06
2.60483e-07
2.75288e-07
5.67802e-07
1.55772e-06
2.56251e-07
2.0073e-05
1.99115e-05
5.62886e-07
2.60489e-07
1.53979e-06
2.75291e-07
5.67812e-07
2.56253e-07
1.55778e-06
3.42107e-06
3.42213e-06
3.09475e-07
3.49252e-06
3.49364e-06
2.04517e-06
8.73339e-06
2.02659e-06
8.73132e-06
1.96322e-05
1.95163e-05
2.04528e-06
8.73452e-06
2.02667e-06
8.73247e-06
2.33149e-07
2.33151e-07
2.33152e-07
2.21919e-07
2.2192e-07
2.21923e-07
2.21924e-07
5.56472e-07
1.60093e-06
2.44162e-07
2.60079e-07
5.58615e-07
1.62363e-06
2.40338e-07
1.9633e-05
1.95172e-05
5.56484e-07
2.44168e-07
1.60095e-06
2.60082e-07
5.58623e-07
2.4034e-07
1.6237e-06
3.62695e-06
3.62817e-06
2.95186e-07
3.701e-06
3.7023e-06
2.11895e-06
8.73102e-06
2.09177e-06
8.73382e-06
1.93173e-05
1.92361e-05
2.11903e-06
8.73213e-06
2.09188e-06
8.73493e-06
2.18374e-07
2.18376e-07
2.18377e-07
2.0828e-07
2.08282e-07
2.08284e-07
2.08285e-07
5.57585e-07
1.67636e-06
2.29439e-07
2.4684e-07
5.56706e-07
1.70377e-06
2.26001e-07
1.93181e-05
1.9237e-05
5.57592e-07
2.29445e-07
1.67641e-06
2.46843e-07
5.56716e-07
2.26003e-07
1.70382e-06
3.83527e-06
3.8366e-06
2.83648e-07
3.90902e-06
3.91044e-06
2.21871e-06
8.74056e-06
2.18262e-06
8.74773e-06
1.90961e-05
1.90401e-05
2.21875e-06
8.74163e-06
2.18274e-06
8.74878e-06
2.05095e-07
2.05097e-07
2.05098e-07
1.96031e-07
1.96032e-07
1.96035e-07
1.96036e-07
5.66917e-07
1.76533e-06
2.16235e-07
2.3557e-07
5.63077e-07
1.79675e-06
2.13167e-07
1.9097e-05
1.9041e-05
5.66945e-07
2.16241e-07
1.76539e-06
2.35573e-07
5.63078e-07
2.13169e-07
1.79681e-06
4.03827e-06
4.03966e-06
2.75012e-07
4.10917e-06
4.11075e-06
2.34416e-06
8.75869e-06
2.29908e-06
8.76757e-06
1.89423e-05
1.89037e-05
2.34422e-06
8.75976e-06
2.29914e-06
8.76866e-06
1.93174e-07
1.93176e-07
1.93177e-07
1.85052e-07
1.85054e-07
1.85056e-07
1.85057e-07
5.85819e-07
1.86562e-06
2.04489e-07
2.26271e-07
5.78745e-07
1.90032e-06
2.01777e-07
1.89432e-05
1.89045e-05
5.85857e-07
2.04496e-07
1.86567e-06
2.26275e-07
5.78751e-07
2.01779e-07
1.90038e-06
4.22938e-06
4.23086e-06
2.69469e-07
4.29516e-06
4.29689e-06
2.49226e-06
8.77988e-06
2.43822e-06
8.78887e-06
1.88345e-05
1.88074e-05
2.49252e-06
8.78097e-06
2.43817e-06
8.78993e-06
1.82497e-07
1.825e-07
1.82501e-07
1.75249e-07
1.75251e-07
1.75254e-07
1.75255e-07
6.14889e-07
1.97454e-06
1.94149e-07
2.18952e-07
6.04322e-07
2.01134e-06
1.91782e-07
1.88353e-05
1.88083e-05
6.14899e-07
1.94157e-07
1.97459e-06
2.18956e-07
6.04369e-07
1.91784e-07
2.01144e-06
4.40359e-06
4.4052e-06
2.67052e-07
4.46261e-06
4.46436e-06
2.65722e-06
8.80061e-06
2.59639e-06
8.80897e-06
1.87568e-05
1.87368e-05
2.65726e-06
8.80176e-06
2.59655e-06
8.81011e-06
1.72977e-07
1.72979e-07
1.7298e-07
1.66545e-07
1.66548e-07
1.6655e-07
1.66551e-07
6.54283e-07
2.08867e-06
1.85172e-07
2.13619e-07
6.40307e-07
2.12652e-06
1.8314e-07
1.87575e-05
1.87377e-05
6.54318e-07
1.8518e-07
2.08875e-06
2.13623e-07
6.40327e-07
1.83142e-07
2.12657e-06
4.5578e-06
4.55942e-06
2.67669e-07
4.60928e-06
4.61112e-06
2.83154e-06
8.81973e-06
2.7673e-06
8.82726e-06
1.86968e-05
1.86813e-05
2.83183e-06
8.82084e-06
2.76725e-06
8.82848e-06
1.64538e-07
1.6454e-07
1.64541e-07
1.58874e-07
1.58877e-07
1.5888e-07
1.58881e-07
7.04038e-07
2.20464e-06
1.77523e-07
2.10281e-07
6.86667e-07
2.24234e-06
1.75816e-07
1.86979e-05
1.86823e-05
7.04088e-07
1.77532e-07
2.20468e-06
2.10285e-07
6.86678e-07
1.75818e-07
2.24242e-06
4.69081e-06
4.69249e-06
2.7151e-07
4.73471e-06
4.7365e-06
3.00767e-06
8.83706e-06
2.94273e-06
8.84391e-06
1.86482e-05
1.86349e-05
3.00775e-06
8.83817e-06
2.94293e-06
8.84515e-06
1.57117e-07
1.57119e-07
1.5712e-07
1.52183e-07
1.52186e-07
1.52189e-07
1.5219e-07
7.63644e-07
2.31917e-06
1.71173e-07
2.08952e-07
7.43087e-07
2.3558e-06
1.69786e-07
1.86491e-05
1.86359e-05
7.63675e-07
1.71183e-07
2.31921e-06
2.08957e-07
7.43138e-07
1.69788e-07
2.35588e-06
4.80325e-06
4.8049e-06
2.787e-07
4.83999e-06
4.84188e-06
3.17713e-06
8.85296e-06
3.11473e-06
8.85948e-06
1.86054e-05
1.85938e-05
3.17725e-06
8.85414e-06
3.11476e-06
8.86072e-06
1.50662e-07
1.50665e-07
1.50666e-07
1.46424e-07
1.46427e-07
1.4643e-07
1.4643e-07
8.32114e-07
2.42957e-06
1.66105e-07
2.0966e-07
8.08755e-07
2.4643e-06
1.65035e-07
1.86065e-05
1.85947e-05
8.32154e-07
1.66116e-07
2.42962e-06
2.09665e-07
8.08781e-07
1.65037e-07
2.46436e-06
4.89703e-06
4.89869e-06
2.89273e-07
4.92689e-06
4.92879e-06
3.3328e-06
8.86804e-06
3.27599e-06
8.87427e-06
1.85667e-05
1.8556e-05
3.33294e-06
8.86921e-06
3.27607e-06
8.8755e-06
1.45129e-07
1.45132e-07
1.45132e-07
1.4156e-07
1.41563e-07
1.41566e-07
1.41567e-07
9.07887e-07
2.5336e-06
1.6231e-07
2.12431e-07
8.82334e-07
2.56593e-06
1.61555e-07
1.85678e-05
1.8557e-05
9.07928e-07
1.62322e-07
2.53367e-06
2.12439e-07
8.82368e-07
1.61558e-07
2.56599e-06
4.97413e-06
4.97582e-06
3.0324e-07
4.99833e-06
5.00019e-06
3.47048e-06
8.88253e-06
3.42029e-06
8.88829e-06
1.85312e-05
1.85212e-05
3.47059e-06
8.88363e-06
3.42037e-06
8.88946e-06
1.40484e-07
1.40486e-07
1.40487e-07
1.37562e-07
1.37563e-07
1.37567e-07
1.37569e-07
9.89027e-07
2.62991e-06
1.5979e-07
2.17297e-07
9.61991e-07
2.65939e-06
1.59347e-07
1.85319e-05
1.8522e-05
9.8914e-07
1.59802e-07
2.62994e-06
2.17303e-07
9.61986e-07
1.59353e-07
2.65945e-06
5.03731e-06
5.03901e-06
3.20634e-07
5.0568e-06
5.05863e-06
3.58703e-06
8.89597e-06
3.54492e-06
8.90143e-06
1.84979e-05
1.84888e-05
3.58722e-06
8.89715e-06
3.54493e-06
8.90268e-06
1.36694e-07
1.36697e-07
1.36698e-07
1.07336e-06
2.71758e-06
1.58552e-07
2.24272e-07
1.04549e-06
2.74405e-06
1.58421e-07
1.84987e-05
1.07346e-06
1.58566e-07
2.71757e-06
1.04558e-06
1.58431e-07
5.08898e-06
5.09064e-06
3.41372e-07
5.10457e-06
5.10643e-06
5.35197e-07
5.35994e-07
5.35991e-07
1.09111e-05
5.81361e-07
1.09125e-05
5.81358e-07
5.28303e-07
2.43028e-06
2.43092e-06
5.40842e-07
5.40835e-07
5.34569e-07
5.35439e-07
5.33635e-07
5.35608e-07
5.34569e-07
5.35438e-07
5.33634e-07
5.35608e-07
5.30398e-07
3.47031e-06
5.68226e-07
8.19949e-07
5.30398e-07
3.47044e-06
5.68213e-07
8.19869e-07
5.29522e-07
5.28493e-07
1.16562e-06
5.06099e-07
5.32668e-07
5.28418e-07
5.191e-07
5.29522e-07
5.28493e-07
1.16566e-06
5.06099e-07
5.32665e-07
5.28418e-07
5.19098e-07
5.35197e-07
5.35989e-07
5.35988e-07
1.0912e-05
5.81341e-07
5.28303e-07
2.43059e-06
2.4307e-06
5.40836e-07
5.40831e-07
1.09126e-05
5.81344e-07
5.34569e-07
5.35438e-07
5.33635e-07
5.35608e-07
5.34569e-07
5.35438e-07
5.35608e-07
5.33635e-07
5.30397e-07
3.47071e-06
5.68221e-07
8.20183e-07
5.29521e-07
5.28493e-07
1.16582e-06
5.06099e-07
5.32666e-07
5.28418e-07
5.19105e-07
5.30398e-07
3.47076e-06
5.68197e-07
8.20179e-07
5.29522e-07
5.28493e-07
5.06099e-07
1.16578e-06
5.28418e-07
5.32662e-07
5.191e-07
5.35653e-07
5.35523e-07
5.35636e-07
5.35636e-07
5.35653e-07
5.35523e-07
5.35636e-07
5.35636e-07
5.35653e-07
5.35523e-07
5.35636e-07
5.35636e-07
5.28432e-07
5.28492e-07
5.06195e-07
5.06195e-07
5.28422e-07
5.28422e-07
5.06264e-07
5.28432e-07
5.28492e-07
5.06195e-07
5.06195e-07
5.28422e-07
5.28422e-07
5.06264e-07
5.28432e-07
5.28492e-07
5.06195e-07
5.06195e-07
5.28422e-07
5.28422e-07
5.06264e-07
5.28432e-07
5.28492e-07
5.06195e-07
5.06195e-07
5.28422e-07
5.28422e-07
5.06264e-07
5.34569e-07
5.35439e-07
5.35608e-07
5.33634e-07
5.29522e-07
5.28493e-07
1.16575e-06
5.06099e-07
5.32662e-07
5.28418e-07
5.19101e-07
5.30397e-07
3.47074e-06
5.68206e-07
8.19913e-07
5.29522e-07
5.28493e-07
5.06099e-07
1.16564e-06
5.28418e-07
5.32659e-07
5.19096e-07
5.30397e-07
3.47078e-06
5.68192e-07
8.19854e-07
5.35198e-07
5.35987e-07
5.35987e-07
1.09129e-05
5.81317e-07
5.28303e-07
2.43082e-06
2.4307e-06
5.40828e-07
5.40826e-07
1.09125e-05
5.81334e-07
5.34569e-07
5.35438e-07
5.35608e-07
5.33634e-07
5.29522e-07
5.28493e-07
5.06099e-07
1.16573e-06
5.28418e-07
5.3266e-07
5.19104e-07
5.29522e-07
5.28493e-07
5.06099e-07
1.16577e-06
5.28418e-07
5.32658e-07
5.19102e-07
5.30397e-07
3.47075e-06
5.68194e-07
8.20053e-07
5.30397e-07
3.47095e-06
5.68187e-07
8.20112e-07
5.28302e-07
2.43055e-06
2.43114e-06
5.40823e-07
5.4082e-07
1.0913e-05
5.81311e-07
1.09136e-05
5.81315e-07
1.25997e-05
1.65918e-05
1.26014e-05
1.65947e-05
2.51875e-06
2.51941e-06
4.84041e-07
2.37139e-06
2.37203e-06
2.05278e-05
1.7679e-05
2.05314e-05
1.76824e-05
4.79192e-07
2.30695e-06
2.3076e-06
2.33936e-06
2.34019e-06
1.10659e-06
3.87812e-06
9.32008e-07
4.60414e-06
5.42963e-07
1.21771e-06
4.99137e-07
4.86012e-07
5.2503e-07
1.20854e-06
4.82348e-07
5.42959e-07
1.21784e-06
4.99137e-07
4.86018e-07
5.25024e-07
1.20872e-06
4.82348e-07
1.16125e-06
5.40682e-06
4.80823e-06
1.28145e-06
1.16122e-06
5.40785e-06
4.80862e-06
1.28149e-06
5.50947e-07
4.7476e-07
1.19366e-06
4.5781e-07
1.2043e-06
4.69755e-07
5.66564e-07
5.50956e-07
4.74768e-07
1.19385e-06
4.5781e-07
1.20444e-06
4.69756e-07
5.66568e-07
2.51925e-06
2.51892e-06
4.8404e-07
2.37196e-06
2.37134e-06
1.26013e-05
1.65939e-05
2.0531e-05
1.76816e-05
4.79192e-07
2.30762e-06
2.30696e-06
2.33997e-06
2.33959e-06
2.05295e-05
1.7681e-05
5.42996e-07
1.21794e-06
4.99137e-07
4.86016e-07
5.25012e-07
1.2088e-06
4.82348e-07
1.10695e-06
3.87864e-06
9.31659e-07
4.60439e-06
5.42995e-07
4.99137e-07
1.21797e-06
4.86018e-07
5.24997e-07
4.82348e-07
1.20882e-06
1.16098e-06
5.40797e-06
4.80878e-06
1.28174e-06
5.50949e-07
4.74765e-07
1.19386e-06
4.5781e-07
1.20452e-06
4.69755e-07
5.66574e-07
1.16086e-06
5.40825e-06
4.80931e-06
1.28172e-06
5.50949e-07
4.74769e-07
4.57811e-07
1.19386e-06
4.69756e-07
1.20454e-06
5.6658e-07
1.10657e-06
3.87824e-06
9.32002e-07
4.60395e-06
5.42964e-07
4.99137e-07
1.21773e-06
4.8601e-07
5.24999e-07
4.82348e-07
1.20855e-06
1.10656e-06
3.87859e-06
9.31876e-07
4.60411e-06
5.50951e-07
4.74757e-07
1.19368e-06
4.57809e-07
1.20431e-06
4.69755e-07
5.66542e-07
1.16118e-06
5.40756e-06
4.80858e-06
1.28125e-06
5.50941e-07
4.7476e-07
4.5781e-07
1.19373e-06
4.69755e-07
1.20432e-06
5.66555e-07
1.16111e-06
5.40805e-06
4.80922e-06
1.28133e-06
2.51961e-06
2.51901e-06
4.84042e-07
2.3722e-06
2.37151e-06
1.26013e-05
1.65935e-05
2.05322e-05
1.76835e-05
4.79191e-07
2.30763e-06
2.30707e-06
2.34024e-06
2.3396e-06
2.05296e-05
1.7681e-05
5.42985e-07
4.99137e-07
1.21792e-06
4.86015e-07
5.25e-07
4.82348e-07
1.20877e-06
1.10671e-06
3.87829e-06
9.31904e-07
4.60395e-06
1.10677e-06
3.87868e-06
9.31758e-07
4.60467e-06
5.50957e-07
4.74757e-07
4.5781e-07
1.19369e-06
4.69755e-07
1.20433e-06
5.66561e-07
5.50946e-07
4.74764e-07
4.5781e-07
1.19386e-06
4.69755e-07
1.20451e-06
5.66586e-07
1.16109e-06
5.40746e-06
4.80862e-06
1.28144e-06
1.16099e-06
5.40825e-06
4.80943e-06
1.28176e-06
1.26019e-05
1.65946e-05
1.26028e-05
1.65961e-05
4.79191e-07
2.30732e-06
2.3076e-06
2.33985e-06
2.34017e-06
2.05313e-05
1.76823e-05
2.05327e-05
1.76839e-05
2.1281e-05
2.31076e-05
2.12848e-05
2.31116e-05
2.31248e-06
2.31317e-06
4.53579e-07
2.35378e-06
2.35431e-06
2.44691e-05
2.35325e-05
2.44733e-05
2.35376e-05
4.50982e-07
2.44287e-06
2.44338e-06
2.38167e-06
2.38252e-06
1.43162e-06
5.59289e-06
1.33065e-06
6.13628e-06
5.87299e-07
1.19528e-06
4.46484e-07
4.44628e-07
5.73995e-07
1.20483e-06
4.35743e-07
5.87305e-07
1.19546e-06
4.46486e-07
4.44637e-07
5.74006e-07
1.20499e-06
4.35745e-07
1.47563e-06
6.77682e-06
6.30012e-06
1.55834e-06
1.47551e-06
6.77796e-06
6.30083e-06
1.55834e-06
5.9353e-07
4.35608e-07
1.23161e-06
4.15841e-07
1.21279e-06
4.25543e-07
6.03791e-07
5.93535e-07
4.35616e-07
1.23179e-06
4.15843e-07
1.2129e-06
4.25544e-07
6.03801e-07
2.31332e-06
2.3125e-06
4.53577e-07
2.35459e-06
2.35381e-06
2.12827e-05
2.31092e-05
2.44732e-05
2.35368e-05
4.50983e-07
2.44367e-06
2.44288e-06
2.38248e-06
2.38204e-06
2.44708e-05
2.35351e-05
5.87311e-07
1.19545e-06
4.46485e-07
4.4463e-07
5.74015e-07
1.20499e-06
4.35744e-07
1.43199e-06
5.59359e-06
1.33049e-06
6.13696e-06
5.87316e-07
4.46486e-07
1.19553e-06
4.44639e-07
5.74017e-07
4.35745e-07
1.20501e-06
1.47538e-06
6.7782e-06
6.3011e-06
1.55835e-06
5.93549e-07
4.3561e-07
1.23176e-06
4.15842e-07
1.213e-06
4.25543e-07
6.03815e-07
1.47535e-06
6.77874e-06
6.30161e-06
1.55833e-06
5.93558e-07
4.35619e-07
4.15844e-07
1.23183e-06
4.25545e-07
1.213e-06
6.03821e-07
1.43159e-06
5.59283e-06
1.33088e-06
6.13597e-06
5.87303e-07
4.46485e-07
1.19536e-06
4.44628e-07
5.74003e-07
4.35744e-07
1.20489e-06
1.43175e-06
5.59341e-06
1.33079e-06
6.1367e-06
5.93538e-07
4.356e-07
1.23164e-06
4.15841e-07
1.21283e-06
4.25542e-07
6.03802e-07
1.47572e-06
6.77789e-06
6.30074e-06
1.55819e-06
5.93536e-07
4.35611e-07
4.15842e-07
1.23171e-06
4.25543e-07
1.21282e-06
6.03803e-07
1.4755e-06
6.77851e-06
6.30136e-06
1.55835e-06
2.31339e-06
2.31272e-06
4.53582e-07
2.35452e-06
2.35398e-06
2.12835e-05
2.31101e-05
2.44745e-05
2.35382e-05
4.50983e-07
2.44374e-06
2.443e-06
2.38257e-06
2.38185e-06
2.44713e-05
2.35352e-05
5.8732e-07
4.46485e-07
1.1955e-06
4.44632e-07
5.74007e-07
4.35745e-07
1.20504e-06
1.43169e-06
5.59298e-06
1.33078e-06
6.13603e-06
1.4319e-06
5.5939e-06
1.33054e-06
6.13695e-06
5.93546e-07
4.35602e-07
4.15841e-07
1.23165e-06
4.25542e-07
1.21282e-06
6.03814e-07
5.93552e-07
4.35611e-07
4.15843e-07
1.23186e-06
4.25544e-07
1.21303e-06
6.0382e-07
1.47571e-06
6.77788e-06
6.30082e-06
1.55816e-06
1.47543e-06
6.77898e-06
6.30184e-06
1.55838e-06
2.12849e-05
2.31116e-05
2.12868e-05
2.31132e-05
4.50985e-07
2.4433e-06
2.44373e-06
2.38214e-06
2.38256e-06
2.44732e-05
2.35368e-05
2.44751e-05
2.35387e-05
2.46379e-05
2.49349e-05
2.46426e-05
2.49394e-05
2.47401e-06
2.47484e-06
4.30297e-07
2.53272e-06
2.53335e-06
2.48365e-05
2.49369e-05
2.48408e-05
2.49413e-05
4.28599e-07
2.61107e-06
2.6117e-06
2.56076e-06
2.56144e-06
1.66354e-06
6.91767e-06
1.5961e-06
7.31998e-06
6.15693e-07
1.24308e-06
4.06599e-07
4.10834e-07
6.08533e-07
1.26586e-06
3.9778e-07
6.157e-07
1.24326e-06
4.06601e-07
4.10843e-07
6.08544e-07
1.26604e-06
3.97783e-07
1.69473e-06
7.75788e-06
7.43221e-06
1.74788e-06
1.69473e-06
7.75892e-06
7.43314e-06
1.74788e-06
6.18952e-07
4.03207e-07
1.30117e-06
3.81274e-07
1.27844e-06
3.89349e-07
6.23109e-07
6.18958e-07
4.03216e-07
1.30135e-06
3.81277e-07
1.27862e-06
3.89351e-07
6.23114e-07
2.47487e-06
2.47434e-06
4.30299e-07
2.53353e-06
2.53284e-06
2.46401e-05
2.4937e-05
2.48402e-05
2.49406e-05
4.28601e-07
2.61188e-06
2.61115e-06
2.56161e-06
2.56091e-06
2.48385e-05
2.49389e-05
6.15713e-07
1.24329e-06
4.066e-07
4.10831e-07
6.08558e-07
1.26606e-06
3.97782e-07
1.66358e-06
6.91852e-06
1.59611e-06
7.32082e-06
6.15715e-07
4.06602e-07
1.24329e-06
4.10846e-07
6.08562e-07
3.97784e-07
1.26609e-06
1.69478e-06
7.75931e-06
7.43354e-06
1.74794e-06
6.18974e-07
4.03203e-07
1.30137e-06
3.81276e-07
1.27864e-06
3.89351e-07
6.2313e-07
1.69477e-06
7.75975e-06
7.43403e-06
1.74794e-06
6.18976e-07
4.03219e-07
3.81278e-07
1.30141e-06
3.89353e-07
1.27867e-06
6.2313e-07
1.66359e-06
6.91765e-06
1.5963e-06
7.32e-06
6.15705e-07
4.066e-07
1.24319e-06
4.10838e-07
6.08547e-07
3.97782e-07
1.26596e-06
1.66358e-06
6.91825e-06
1.59612e-06
7.32055e-06
6.18967e-07
4.03197e-07
1.30123e-06
3.81275e-07
1.27852e-06
3.89348e-07
6.23126e-07
1.6949e-06
7.75893e-06
7.43316e-06
1.74792e-06
6.18963e-07
4.03212e-07
3.81276e-07
1.30128e-06
3.89351e-07
1.27856e-06
6.23123e-07
1.69477e-06
7.75949e-06
7.43375e-06
1.74793e-06
2.47493e-06
2.4742e-06
4.30304e-07
2.53359e-06
2.53282e-06
2.46403e-05
2.49369e-05
2.48413e-05
2.49419e-05
4.28604e-07
2.61193e-06
2.61113e-06
2.56166e-06
2.56096e-06
2.48385e-05
2.49389e-05
6.1572e-07
4.06601e-07
1.24334e-06
4.10835e-07
6.08562e-07
3.97783e-07
1.26613e-06
1.66358e-06
6.91768e-06
1.59629e-06
7.31995e-06
1.66362e-06
6.91881e-06
1.59616e-06
7.32109e-06
6.18976e-07
4.03199e-07
3.81275e-07
1.30123e-06
3.8935e-07
1.2785e-06
6.23135e-07
6.18982e-07
4.03208e-07
3.81277e-07
1.30146e-06
3.89352e-07
1.27872e-06
6.23138e-07
1.6949e-06
7.75891e-06
7.43317e-06
1.74801e-06
1.69481e-06
7.76004e-06
7.43431e-06
1.74798e-06
2.4642e-05
2.49387e-05
2.46441e-05
2.49405e-05
4.28609e-07
2.61145e-06
2.61192e-06
2.56121e-06
2.56165e-06
2.48401e-05
2.49406e-05
2.48418e-05
2.49424e-05
2.47347e-05
2.44286e-05
2.47388e-05
2.44324e-05
2.63517e-06
2.63583e-06
4.08572e-07
2.67924e-06
2.67989e-06
2.38683e-05
2.42702e-05
2.38717e-05
2.4274e-05
4.0698e-07
2.74224e-06
2.74291e-06
2.701e-06
2.70168e-06
1.81239e-06
7.84588e-06
1.77232e-06
8.09925e-06
6.26342e-07
1.31327e-06
3.73525e-07
3.81807e-07
6.24952e-07
1.33389e-06
3.66073e-07
6.26344e-07
1.31346e-06
3.73527e-07
3.81816e-07
6.24956e-07
1.33407e-06
3.66075e-07
1.83082e-06
8.35054e-06
8.16178e-06
1.85967e-06
1.83082e-06
8.35157e-06
8.16271e-06
1.85967e-06
6.26773e-07
3.75098e-07
1.3626e-06
3.5197e-07
1.34482e-06
3.58896e-07
6.25664e-07
6.26775e-07
3.75106e-07
1.36278e-06
3.51972e-07
1.34501e-06
3.58898e-07
6.25664e-07
2.63599e-06
2.63528e-06
4.08576e-07
2.68006e-06
2.67933e-06
2.47367e-05
2.44305e-05
2.38718e-05
2.42732e-05
4.06984e-07
2.74307e-06
2.74234e-06
2.70184e-06
2.70111e-06
2.38699e-05
2.4272e-05
6.26362e-07
1.31348e-06
3.73526e-07
3.818e-07
6.24975e-07
1.33409e-06
3.66075e-07
1.81246e-06
7.8468e-06
1.77238e-06
8.10006e-06
6.2636e-07
3.73529e-07
1.31352e-06
3.81819e-07
6.24975e-07
3.66078e-07
1.33414e-06
1.8309e-06
8.352e-06
8.16324e-06
1.85975e-06
6.26794e-07
3.7509e-07
1.36281e-06
3.51972e-07
1.34504e-06
3.58897e-07
6.25683e-07
1.83089e-06
8.35229e-06
8.16363e-06
1.85974e-06
6.26793e-07
3.7511e-07
3.51975e-07
1.36285e-06
3.589e-07
1.34508e-06
6.2568e-07
1.81242e-06
7.84594e-06
1.77249e-06
8.09928e-06
6.26357e-07
3.73526e-07
1.3134e-06
3.81814e-07
6.24965e-07
3.66075e-07
1.33401e-06
1.81245e-06
7.84651e-06
1.77237e-06
8.09981e-06
6.26791e-07
3.75085e-07
1.36267e-06
3.51971e-07
1.34491e-06
3.58894e-07
6.2568e-07
1.83098e-06
8.35161e-06
8.16284e-06
1.85969e-06
6.26787e-07
3.75105e-07
3.51972e-07
1.36272e-06
3.58897e-07
1.34495e-06
6.25678e-07
1.83088e-06
8.3521e-06
8.16336e-06
1.85972e-06
2.63605e-06
2.63533e-06
4.08581e-07
2.68012e-06
2.67931e-06
2.47367e-05
2.44302e-05
2.38721e-05
2.42747e-05
4.06989e-07
2.74313e-06
2.74232e-06
2.7019e-06
2.70116e-06
2.38697e-05
2.42721e-05
6.26371e-07
3.73528e-07
1.31357e-06
3.81806e-07
6.24982e-07
3.66077e-07
1.33419e-06
1.81252e-06
7.84595e-06
1.77245e-06
8.09928e-06
1.8125e-06
7.84706e-06
1.77242e-06
8.10034e-06
6.26802e-07
3.75088e-07
3.51972e-07
1.36267e-06
3.58897e-07
1.34491e-06
6.25695e-07
6.26804e-07
3.75096e-07
3.51974e-07
1.36291e-06
3.58899e-07
1.34513e-06
6.25694e-07
1.83095e-06
8.35158e-06
8.16279e-06
1.8598e-06
1.83093e-06
8.35254e-06
8.16386e-06
1.85978e-06
2.47382e-05
2.4432e-05
2.474e-05
2.44332e-05
4.06997e-07
2.74259e-06
2.74316e-06
2.7014e-06
2.7019e-06
2.38714e-05
2.42735e-05
2.38725e-05
2.42751e-05
2.36907e-05
2.32634e-05
2.36941e-05
2.32664e-05
2.76332e-06
2.76402e-06
3.86912e-07
2.80513e-06
2.80583e-06
2.26705e-05
2.30845e-05
2.26733e-05
2.30876e-05
3.85367e-07
2.87151e-06
2.87227e-06
2.82692e-06
2.82765e-06
1.89281e-06
8.39501e-06
1.87305e-06
8.52944e-06
6.22111e-07
1.37218e-06
3.45278e-07
3.56033e-07
6.25462e-07
1.38724e-06
3.38801e-07
6.2211e-07
1.37237e-06
3.4528e-07
3.56041e-07
6.25463e-07
1.38741e-06
3.38803e-07
1.90222e-06
8.64637e-06
8.55609e-06
1.91512e-06
1.90221e-06
8.64721e-06
8.55682e-06
1.91511e-06
6.21491e-07
3.49998e-07
1.40853e-06