/*--------------------------------*- C++ -*----------------------------------*\
| =========                 |                                                 |
| \\      /  F ield         | OpenFOAM: The Open Source CFD Toolbox           |
|  \\    /   O peration     | Version:  2312                                  |
|   \\  /    A nd           | Website:  www.openfoam.com                      |
|    \\/     M anipulation  |                                                 |
\*---------------------------------------------------------------------------*/
FoamFile
{
    version     2.0;
    format      ascii;
    arch        "LSB;label=32;scalar=64";
    class       volScalarField;
    location    "1000";
    object      nut;
}
// * * * * * * * * * * * * * * * * * * * * * * * * * * * * * * * * * * * * * //

dimensions      [0 2 -1 0 0 0 0];

internalField   nonuniform List<scalar> 
43211
(
0.000233969
0.000233549
0.000233549
0.00023345
0.000232529
0.000227583
0.000227583
0.000223835
0.000230489
0.000220163
0.000220162
0.00020903
0.00022776
0.000211546
0.000211543
0.0001937
0.00022439
0.000202555
0.000202552
0.00017963
0.000220508
0.000193694
0.000193691
0.000167269
0.000216261
0.00018521
0.000185206
0.000156525
0.000211779
0.000177178
0.000177173
0.000147152
0.000207168
0.000169639
0.000169635
0.000138902
0.000202509
0.000162568
0.000162563
0.000131572
0.000197856
0.000155911
0.000155906
0.000124915
0.000193244
0.000149612
0.000149607
0.000118782
0.000188653
0.000143633
0.000143629
0.000113138
0.000184123
0.000137922
0.000137917
0.000107904
0.000179681
0.000132434
0.000132431
0.000103028
0.000175315
0.000127164
0.00012716
9.84092e-05
0.000171014
0.000122126
0.000122122
9.42312e-05
0.000166764
0.000117347
0.000117343
9.06427e-05
0.000162568
0.000112868
0.000112863
8.77186e-05
0.000158399
0.000108732
0.000108733
8.53681e-05
0.000154245
0.000105007
0.000105002
8.36506e-05
0.000234257
0.000234459
0.00023446
0.000234257
0.000234459
0.000234459
0.000234259
0.000234259
0.000234259
0.000234259
0.000234459
0.000234459
0.000234257
0.000234458
0.000234459
0.000234257
0.00023345
0.00022618
0.000233549
0.000233548
0.000229126
0.000229122
0.00023345
0.00022618
0.000233548
0.000233548
0.000229124
0.000229121
0.000233549
0.000229129
0.000229127
0.00023345
0.000226179
0.000233548
0.000229129
0.000229124
0.000226178
0.000223836
0.000212153
0.00022758
0.000227575
0.000222162
0.000222156
0.000223835
0.000212153
0.000227578
0.000227574
0.000222162
0.000222155
0.000227579
0.000222168
0.000222161
0.000223836
0.00021215
0.000227578
0.000222167
0.000222161
0.000212146
0.000209033
0.000196981
0.000220156
0.00022015
0.000213753
0.000213746
0.000209032
0.000196979
0.000220157
0.000220148
0.000213758
0.000213744
0.000220154
0.000213762
0.00021375
0.000209031
0.000196976
0.000220156
0.000213761
0.000213754
0.00019697
0.000193708
0.000182805
0.000211535
0.000211528
0.000204791
0.000204784
0.000193707
0.000182802
0.000211541
0.000211526
0.0002048
0.000204781
0.000211531
0.000204804
0.000204786
0.000193704
0.000182798
0.000211537
0.000204802
0.000204795
0.000182792
0.000179642
0.000170207
0.000202541
0.000202534
0.000195864
0.000195857
0.000179639
0.000170204
0.000202551
0.000202531
0.000195876
0.000195853
0.000202536
0.000195879
0.000195858
0.000179635
0.000170198
0.000202545
0.000195877
0.000195869
0.000170192
0.000167283
0.000159191
0.000193677
0.00019367
0.000187271
0.000187264
0.00016728
0.000159187
0.000193691
0.000193666
0.000187287
0.00018726
0.000193671
0.000187289
0.000187264
0.000167275
0.000159182
0.000193684
0.000187286
0.000187279
0.000159174
0.00015654
0.00014957
0.00018519
0.000185183
0.000179118
0.000179111
0.000156537
0.000149566
0.000185206
0.000185179
0.000179137
0.000179106
0.000185183
0.000179138
0.000179111
0.000156531
0.00014956
0.000185198
0.000179135
0.000179128
0.000149552
0.000147168
0.00014107
0.000177155
0.000177148
0.000171454
0.000171447
0.000147164
0.000141066
0.000177175
0.000177144
0.000171475
0.000171442
0.000177148
0.000171477
0.000171447
0.000147158
0.000141059
0.000177166
0.000171474
0.000171466
0.000141052
0.000138919
0.000133516
0.000169614
0.000169607
0.000164268
0.000164261
0.000138915
0.000133512
0.000169637
0.000169603
0.000164292
0.000164256
0.000169608
0.000164294
0.000164262
0.000138909
0.000133505
0.000169628
0.00016429
0.000164283
0.000133497
0.00013159
0.000126659
0.000162541
0.000162533
0.000157511
0.000157503
0.000131585
0.000126656
0.000162566
0.000162529
0.000157537
0.000157499
0.000162534
0.000157539
0.000157504
0.000131579
0.000126648
0.000162556
0.000157535
0.000157528
0.000126639
0.000124934
0.00012034
0.000155881
0.000155874
0.000151126
0.000151118
0.000124929
0.000120336
0.000155909
0.00015587
0.000151154
0.000151114
0.000155875
0.000151155
0.00015112
0.000124923
0.000120328
0.000155899
0.000151152
0.000151145
0.000120319
0.000118799
0.000114407
0.00014958
0.000149573
0.000145068
0.00014506
0.000118796
0.000114402
0.000149609
0.00014957
0.000145098
0.000145057
0.000149575
0.000145099
0.000145063
0.000118788
0.000114396
0.0001496
0.000145096
0.000145088
0.000114386
0.000113153
0.00010882
0.000143601
0.000143594
0.000139295
0.000139286
0.00011315
0.000108814
0.000143631
0.00014359
0.000139325
0.000139283
0.000143597
0.000139326
0.000139289
0.000113144
0.000108807
0.000143622
0.000139323
0.000139315
0.000108798
0.000107923
0.000103687
0.000137889
0.000137881
0.000133753
0.000133745
0.000107917
0.000103682
0.00013792
0.000137877
0.000133784
0.00013374
0.000137884
0.000133786
0.000133748
0.000107911
0.000103674
0.00013791
0.000133782
0.000133774
0.000103667
0.000103047
9.91154e-05
0.000132403
0.000132392
0.000128426
0.000128413
0.000103043
9.9106e-05
0.000132433
0.00013239
0.000128455
0.000128412
0.000132397
0.000128456
0.000128421
0.000103035
9.91025e-05
0.000132423
0.000128454
0.000128446
9.90925e-05
9.84302e-05
9.49747e-05
0.000127133
0.000127121
0.000123329
0.000123316
9.84212e-05
9.49737e-05
0.000127161
0.000127118
0.000123355
0.000123314
0.000127127
0.000123359
0.000123326
9.84176e-05
9.49672e-05
0.000127151
0.000123356
0.000123347
9.49612e-05
9.4244e-05
9.1425e-05
0.000122096
0.000122082
0.000118466
0.00011845
9.42426e-05
9.14223e-05
0.000122121
0.000122081
0.00011849
0.000118449
0.000122092
0.000118492
0.000118461
9.42357e-05
9.14166e-05
0.000122113
0.00011849
0.00011848
9.14113e-05
9.0655e-05
8.83689e-05
0.000117316
0.000117303
0.000113909
0.000113895
9.06506e-05
8.8369e-05
0.000117341
0.000117302
0.000113932
0.000113892
0.000117315
0.00011394
0.000113908
9.06468e-05
8.83608e-05
0.000117333
0.000113934
0.000113925
8.83588e-05
8.77263e-05
8.59058e-05
0.000112835
0.000112822
0.000109684
0.000109664
8.77284e-05
8.58956e-05
0.000112858
0.000112821
0.000109705
0.000109666
0.000112838
0.000109708
0.000109681
8.77192e-05
8.5895e-05
0.000112854
0.000109707
0.000109696
8.58908e-05
8.53852e-05
8.40612e-05
0.000108707
0.000108688
0.000105835
0.000105824
8.53742e-05
8.40589e-05
0.000108728
0.000108691
0.000105855
0.000105823
0.000108704
0.000105867
0.000105838
8.53765e-05
8.40544e-05
0.00010872
0.000105863
0.00010585
8.40456e-05
8.36585e-05
0.000104972
0.000104964
8.36646e-05
0.000104992
0.000104963
0.000104978
8.36564e-05
0.00010499
0.000234728
0.000234779
0.000234733
0.000234733
0.000235111
0.000234805
0.000234701
0.000234742
0.000235111
0.000234806
0.000234742
0.000234701
0.000234859
0.000233567
0.000233568
0.000104728
3.87617e-05
0.000129351
3.98355e-05
2.16916e-05
2.28358e-05
0.000104691
3.87577e-05
0.000129384
3.98322e-05
0.000233969
0.000233969
0.000233969
0.000232943
0.000232943
0.000232943
0.000232943
0.000206273
9.38644e-05
0.000233996
0.00023175
0.000222758
8.73169e-05
0.000233595
2.16909e-05
2.28351e-05
0.000206271
0.000233996
9.38633e-05
0.00023175
0.000222758
0.000233595
8.73207e-05
4.78467e-05
4.78373e-05
0.000231405
4.40453e-05
4.40307e-05
7.2548e-05
4.24352e-05
8.13597e-05
4.3763e-05
2.47743e-05
2.54623e-05
7.25339e-05
4.24302e-05
8.13687e-05
4.37594e-05
0.000232529
0.000232529
0.000232529
0.000231062
0.000231062
0.000231062
0.000231062
0.000167435
7.94465e-05
0.000232049
0.000225895
0.000180159
7.45125e-05
0.000231341
2.47741e-05
2.54617e-05
0.000167434
0.000232048
7.94402e-05
0.000225894
0.000180155
0.000231341
7.45165e-05
3.91547e-05
3.9148e-05
0.000219528
3.65674e-05
3.65592e-05
5.62743e-05
4.55474e-05
6.1117e-05
4.64133e-05
2.60122e-05
2.61162e-05
5.62725e-05
4.55431e-05
6.11154e-05
4.64091e-05
0.000230489
0.000230488
0.000230488
0.000228506
0.000228506
0.000228505
0.000228505
0.000138568
6.74276e-05
0.000228606
0.000218084
0.000148027
6.35216e-05
0.000227497
2.60114e-05
2.61153e-05
0.000138568
0.000228604
6.74276e-05
0.000218083
0.000148022
0.000227497
6.35217e-05
3.32126e-05
3.32063e-05
0.000204526
3.19868e-05
3.19795e-05
4.69627e-05
4.74996e-05
4.99065e-05
4.80054e-05
2.6046e-05
2.59382e-05
4.6961e-05
4.74951e-05
4.99047e-05
4.80009e-05
0.00022776
0.000227759
0.000227759
0.000225286
0.000225285
0.000225284
0.000225284
0.00011753
5.82085e-05
0.000223682
0.000209307
0.000124582
5.54876e-05
0.000222268
2.60452e-05
2.59371e-05
0.00011753
0.000223679
5.82088e-05
0.000209305
0.000124577
0.000222268
5.54875e-05
3.06118e-05
3.06061e-05
0.000189694
3.02985e-05
3.02927e-05
4.14273e-05
4.85832e-05
4.32435e-05
4.88409e-05
2.56741e-05
2.5519e-05
4.14259e-05
4.85785e-05
4.3242e-05
4.88361e-05
0.000224389
0.000224388
0.000224387
0.000221518
0.000221517
0.000221515
0.000221515
0.000102103
5.18793e-05
0.000217733
0.000200313
0.00010737
5.00775e-05
0.000216141
2.56733e-05
2.55178e-05
0.000102104
0.000217729
5.18793e-05
0.000200311
0.000107364
0.000216139
5.00771e-05
3.01712e-05
3.0167e-05
0.000176292
3.03924e-05
3.03841e-05
3.81553e-05
4.90946e-05
3.92424e-05
4.92e-05
2.52363e-05
2.50933e-05
3.81541e-05
4.90896e-05
3.92412e-05
4.9195e-05
0.000220507
0.000220505
0.000220504
0.000217349
0.000217348
0.000217345
0.000217345
9.049e-05
4.77389e-05
0.000211234
0.000191532
9.44558e-05
4.66128e-05
0.000209565
2.52356e-05
2.5092e-05
9.04922e-05
0.000211229
4.77387e-05
0.000191529
9.44496e-05
0.000209563
4.66128e-05
3.09551e-05
3.09532e-05
0.000164494
3.15544e-05
3.1545e-05
3.63739e-05
4.92764e-05
3.694e-05
4.92978e-05
2.48473e-05
2.47318e-05
3.63729e-05
4.92713e-05
3.6939e-05
4.92927e-05
0.000216259
0.000216257
0.000216256
0.000212915
0.000212913
0.000212911
0.00021291
8.15856e-05
4.51672e-05
0.000204546
0.000183155
8.46707e-05
4.45511e-05
0.000202872
2.48466e-05
2.47306e-05
8.15887e-05
0.00020454
4.5167e-05
0.000183152
8.46645e-05
0.000202869
4.45511e-05
3.25043e-05
3.2499e-05
0.000154208
3.33455e-05
3.3339e-05
3.56753e-05
4.9294e-05
3.58214e-05
4.92843e-05
2.45334e-05
2.44459e-05
3.56744e-05
4.92886e-05
3.58206e-05
4.9279e-05
0.000211777
0.000211774
0.000211773
0.000208328
0.000208326
0.000208322
0.000208321
7.46426e-05
4.37693e-05
0.000197909
0.000175245
7.71194e-05
4.35202e-05
0.000196271
2.45329e-05
2.44449e-05
7.46438e-05
0.000197901
4.37694e-05
0.000175242
7.71126e-05
0.000196268
4.35209e-05
3.45435e-05
3.45388e-05
0.000145167
3.55082e-05
3.55014e-05
3.57583e-05
4.92581e-05
3.56383e-05
4.92467e-05
2.4293e-05
2.42279e-05
3.57577e-05
4.92526e-05
3.56375e-05
4.92413e-05
0.000207166
0.000207163
0.000207161
0.000203674
0.000203672
0.000203668
0.000203667
6.91752e-05
4.32404e-05
0.000191456
0.000167829
7.12029e-05
4.32324e-05
0.000189871
2.42922e-05
2.42269e-05
6.91758e-05
0.000191448
4.32416e-05
0.000167825
7.11972e-05
0.000189867
4.32322e-05
3.68652e-05
3.68619e-05
0.000137171
3.78916e-05
3.78856e-05
3.65632e-05
4.92291e-05
3.62068e-05
4.92251e-05
2.41145e-05
2.40669e-05
3.65652e-05
4.92236e-05
3.62063e-05
4.92197e-05
0.000202506
0.000202503
0.000202501
0.000199015
0.000199013
0.000199008
0.000199007
6.48674e-05
4.33803e-05
0.000185216
0.000160866
6.65088e-05
4.35633e-05
0.000183689
2.41134e-05
2.40659e-05
6.48669e-05
0.000185207
4.33808e-05
0.000160863
6.65066e-05
0.000183686
4.35634e-05
3.93358e-05
3.93343e-05
0.000129993
4.03964e-05
4.03905e-05
3.80651e-05
4.92246e-05
3.73648e-05
4.92299e-05
2.39848e-05
2.39512e-05
3.80636e-05
4.92191e-05
3.73636e-05
4.92243e-05
0.000197853
0.000197849
0.000197848
0.00019439
0.000194387
0.000194382
0.000194381
6.15084e-05
4.40616e-05
0.000179233
0.000154304
6.27545e-05
4.44022e-05
0.000177777
2.39838e-05
2.39502e-05
6.15083e-05
0.000179223
4.40622e-05
0.0001543
6.27527e-05
0.000177773
4.44024e-05
4.18633e-05
4.18608e-05
0.00012342
4.29199e-05
4.29156e-05
4.01186e-05
4.92425e-05
3.91162e-05
4.9256e-05
2.3893e-05
2.38696e-05
4.0111e-05
4.92369e-05
3.91152e-05
4.92503e-05
0.000193242
0.000193237
0.000193235
0.000189801
0.000189798
0.000189793
0.000189792
5.90043e-05
4.51909e-05
0.00017353
0.000148087
5.98521e-05
4.56636e-05
0.00017214
2.38919e-05
2.38686e-05
5.90052e-05
0.00017352
4.51914e-05
0.000148083
5.9852e-05
0.000172136
4.56641e-05
4.43575e-05
4.4354e-05
0.000117311
4.53859e-05
4.53863e-05
4.26393e-05
4.92765e-05
4.14276e-05
4.92932e-05
2.38286e-05
2.38124e-05
4.26432e-05
4.92709e-05
4.14179e-05
4.92876e-05
0.000188651
0.000188646
0.000188645
0.000185247
0.000185244
0.000185239
0.000185238
5.72075e-05
4.66933e-05
0.000168079
0.000142182
5.77186e-05
4.72725e-05
0.000166747
2.38276e-05
2.38114e-05
5.72045e-05
0.000168069
4.66934e-05
0.000142178
5.77193e-05
0.000166743
4.72738e-05
4.6755e-05
4.67538e-05
0.000111542
4.77315e-05
4.77324e-05
4.55821e-05
4.93163e-05
4.4209e-05
4.93331e-05
2.37833e-05
2.37719e-05
4.55842e-05
4.93107e-05
4.42121e-05
4.93274e-05
0.00018412
0.000184115
0.000184113
0.000180782
0.00018078
0.000180774
0.000180773
5.60328e-05
4.84937e-05
0.000162845
0.00013653
5.63309e-05
4.91558e-05
0.000161563
2.37823e-05
2.3771e-05
5.60341e-05
0.000162834
4.84937e-05
0.000136527
5.6327e-05
0.000161558
4.9156e-05
4.90042e-05
4.9004e-05
0.000106166
4.99155e-05
4.99151e-05
4.88083e-05
4.93553e-05
4.73721e-05
4.93709e-05
2.37505e-05
2.3742e-05
4.88078e-05
4.93496e-05
4.73666e-05
4.93651e-05
0.000179677
0.000179673
0.000179671
0.000176398
0.000176394
0.000176389
0.000176388
5.55211e-05
5.05174e-05
0.000157796
0.000131094
5.55996e-05
5.12354e-05
0.000156556
2.37495e-05
2.37412e-05
5.55198e-05
0.000157786
5.05176e-05
0.000131091
5.56008e-05
0.000156552
5.12373e-05
5.10782e-05
5.1077e-05
0.000101324
5.19184e-05
5.1919e-05
5.22481e-05
4.9391e-05
5.07248e-05
4.94051e-05
2.37255e-05
2.37189e-05
5.22557e-05
4.93852e-05
5.0724e-05
4.93994e-05
0.000175312
0.000175307
0.000175305
0.000172082
0.000172079
0.000172073
0.000172072
5.56456e-05
5.26889e-05
0.000152902
0.000125879
5.55134e-05
5.3444e-05
0.000151699
2.37243e-05
2.37178e-05
5.56432e-05
0.000152891
5.2691e-05
0.000125875
5.55167e-05
0.000151694
5.34435e-05
5.29646e-05
5.29647e-05
9.69668e-05
5.37411e-05
5.374e-05
5.57099e-05
4.94234e-05
5.42144e-05
4.94361e-05
2.37047e-05
2.36992e-05
5.56997e-05
4.94175e-05
5.42158e-05
4.94305e-05
0.000171011
0.000171006
0.000171004
0.000167821
0.000167815
0.00016781
0.000167809
5.63833e-05
5.4945e-05
0.000148159
0.0001209
5.60543e-05
5.57123e-05
0.000146987
2.37037e-05
2.36981e-05
5.63844e-05
0.000148147
5.49453e-05
0.000120897
5.60512e-05
0.000146983
5.57141e-05
5.46739e-05
5.4674e-05
9.31126e-05
5.539e-05
5.53888e-05
5.90998e-05
4.9453e-05
5.76323e-05
4.94651e-05
2.36867e-05
2.36818e-05
5.9113e-05
4.94473e-05
5.76198e-05
4.94595e-05
0.000166761
0.000166756
0.000166754
0.000163608
0.000163605
0.000163599
0.000163599
5.76907e-05
5.72242e-05
0.000143529
0.000116183
5.71807e-05
5.7991e-05
0.000142389
2.36856e-05
2.36806e-05
5.76904e-05
0.000143517
5.72252e-05
0.000116181
5.71828e-05
0.000142385
5.79911e-05
5.62199e-05
5.6217e-05
8.98076e-05
5.68671e-05
5.68676e-05
6.22693e-05
4.9481e-05
6.09043e-05
4.94923e-05
2.36705e-05
2.36659e-05
6.22635e-05
4.94753e-05
6.09131e-05
4.9487e-05
0.000162566
0.000162561
0.00016256
0.000159434
0.000159429
0.000159425
0.000159424
5.95074e-05
5.94816e-05
0.000139006
0.000111778
5.88343e-05
6.02294e-05
0.000137889
2.36692e-05
2.36646e-05
5.95058e-05
0.000138994
5.94817e-05
0.000111776
5.88373e-05
0.000137885
6.02295e-05
5.76188e-05
5.76153e-05
8.70514e-05
5.8201e-05
5.82021e-05
6.51663e-05
4.95073e-05
6.39373e-05
4.9518e-05
2.36551e-05
2.36508e-05
6.51679e-05
4.95021e-05
6.39341e-05
4.95129e-05
0.000158393
0.00015839
0.000158388
0.000155277
0.000155276
0.00015527
0.000155268
6.17461e-05
6.16752e-05
0.000134585
0.000107732
6.09417e-05
6.2399e-05
0.000133504
2.36539e-05
2.36497e-05
6.17371e-05
0.000134577
6.16767e-05
0.000107734
6.09457e-05
0.000133498
6.24005e-05
5.88828e-05
5.88797e-05
8.48857e-05
5.94082e-05
5.94085e-05
6.77772e-05
4.95328e-05
6.66497e-05
4.95429e-05
2.36407e-05
2.36367e-05
6.77709e-05
4.95272e-05
6.66515e-05
4.95374e-05
0.000154245
0.000154238
0.000154239
6.4304e-05
6.37868e-05
0.000130292
0.000104136
6.34183e-05
6.44775e-05
0.000129254
2.36398e-05
6.43071e-05
0.00013028
6.37735e-05
6.34067e-05
0.000129242
6.00292e-05
6.00255e-05
8.33684e-05
6.05088e-05
6.05097e-05
0.000234859
0.000233563
0.000233564
2.32642e-05
0.000214153
2.32631e-05
0.000214154
0.000234445
5.13552e-05
5.13404e-05
0.000229986
0.000229989
0.000235111
0.000234805
0.000234701
0.000234742
0.000235111
0.000234806
0.000234701
0.000234742
0.000234476
4.02776e-05
0.000218806
0.000148036
0.000234476
4.02761e-05
0.000218812
0.000148048
0.000233902
0.000234468
0.000100207
0.000234211
0.000233357
0.000234571
0.000228523
0.000233902
0.000234468
0.000100204
0.000234211
0.000233358
0.000234571
0.000228524
0.000234859
0.000233565
0.000233565
2.32633e-05
0.000214161
0.000234445
5.13489e-05
5.1344e-05
0.000229989
0.000229991
2.32633e-05
0.000214159
0.000235111
0.000234806
0.000234701
0.000234742
0.000235111
0.000234806
0.000234742
0.000234701
0.000234477
4.02743e-05
0.000218809
0.000147994
0.000233902
0.000234468
0.000100188
0.000234211
0.000233357
0.000234571
0.000228522
0.000234477
4.02735e-05
0.000218818
0.000147993
0.000233902
0.000234468
0.000234211
0.000100191
0.000234571
0.000233359
0.000228523
0.000234728
0.000234779
0.000234733
0.000234733
0.000234728
0.000234779
0.000234733
0.000234733
0.000234728
0.000234779
0.000234733
0.000234733
0.000234594
0.000234516
0.000234184
0.000234184
0.000234587
0.000234587
0.000234179
0.000234594
0.000234516
0.000234184
0.000234184
0.000234587
0.000234587
0.000234179
0.000234594
0.000234516
0.000234184
0.000234184
0.000234587
0.000234587
0.000234179
0.000234594
0.000234516
0.000234184
0.000234184
0.000234587
0.000234587
0.000234179
0.000235111
0.000234805
0.000234742
0.000234701
0.000233903
0.000234468
0.000100193
0.000234211
0.000233359
0.000234571
0.000228522
0.000234477
4.02744e-05
0.000218814
0.000148043
0.000233902
0.000234468
0.000234211
0.000100205
0.000234571
0.00023336
0.000228525
0.000234477
4.02733e-05
0.00021882
0.000148051
0.000234859
0.000233566
0.000233566
2.32629e-05
0.00021417
0.000234445
5.13418e-05
5.13444e-05
0.000229992
0.000229993
2.32633e-05
0.000214163
0.000235111
0.000234806
0.000234742
0.000234701
0.000233902
0.000234468
0.000234211
0.000100196
0.000234571
0.00023336
0.000228522
0.000233902
0.000234468
0.000234211
0.000100193
0.000234571
0.000233361
0.000228522
0.000234477
4.02739e-05
0.000218819
0.000148018
0.000234477
4.02723e-05
0.000218822
0.000148006
0.000234445
5.13497e-05
5.13372e-05
0.000229994
0.000229996
2.32632e-05
0.000214172
2.32623e-05
0.00021417
2.1693e-05
2.2838e-05
2.16917e-05
2.28358e-05
4.78493e-05
4.78408e-05
0.000231406
4.40467e-05
4.40314e-05
2.44823e-05
2.33085e-05
2.44804e-05
2.33066e-05
0.000229711
4.00656e-05
4.00487e-05
4.31074e-05
4.30961e-05
0.00010472
3.8759e-05
0.000129361
3.98338e-05
0.000206272
9.387e-05
0.000233996
0.000231749
0.000222749
8.73245e-05
0.000233595
0.000206273
9.38587e-05
0.000233996
0.000231745
0.000222751
8.73114e-05
0.000233595
9.84297e-05
4.19634e-05
4.03842e-05
8.55392e-05
9.84313e-05
4.19608e-05
4.0381e-05
8.5535e-05
0.000200111
0.000230511
8.0821e-05
0.000232654
8.5735e-05
0.000233165
0.000185592
0.000200107
0.000230507
8.08082e-05
0.000232653
8.57235e-05
0.000233164
0.00018559
4.7842e-05
4.78499e-05
0.000231406
4.40357e-05
4.40433e-05
2.16921e-05
2.28369e-05
2.448e-05
2.33066e-05
0.000229711
4.00533e-05
4.00608e-05
4.30976e-05
4.31077e-05
2.44818e-05
2.3308e-05
0.000206261
9.38524e-05
0.000233996
0.000231746
0.000222756
8.73023e-05
0.000233595
0.000104689
3.87568e-05
0.000129407
3.98303e-05
0.000206261
0.000233996
9.38508e-05
0.000231745
0.000222762
0.000233595
8.73011e-05
9.84492e-05
4.19597e-05
4.03797e-05
8.55223e-05
0.00020011
0.000230509
8.08024e-05
0.000232654
8.57202e-05
0.000233165
0.000185589
9.84572e-05
4.19583e-05
4.03787e-05
8.55222e-05
0.000200109
0.000230506
0.000232653
8.08022e-05
0.000233164
8.5718e-05
0.000185586
0.000104721
3.87582e-05
0.000129365
3.98336e-05
0.000206272
0.000233996
9.38685e-05
0.000231749
0.000222762
0.000233595
8.73224e-05
0.000104722
3.87573e-05
0.000129379
3.98312e-05
0.000200112
0.000230513
8.08154e-05
0.000232654
8.57358e-05
0.000233165
0.000185597
9.84379e-05
4.19613e-05
4.03817e-05
8.55467e-05
0.000200114
0.000230511
0.000232653
8.08173e-05
0.000233165
8.5733e-05
0.000185594
9.84398e-05
4.19591e-05
4.03803e-05
8.55442e-05
4.78375e-05
4.78466e-05
0.000231406
4.40289e-05
4.40424e-05
2.16921e-05
2.28371e-05
2.44795e-05
2.33061e-05
0.000229711
4.00487e-05
4.00609e-05
4.30933e-05
4.31049e-05
2.44816e-05
2.33078e-05
0.000206264
0.000233996
9.38541e-05
0.000231747
0.000222761
0.000233595
8.73058e-05
0.00010471
3.87581e-05
0.000129377
3.98334e-05
0.000104704
3.87561e-05
0.000129395
3.98305e-05
0.000200108
0.000230513
0.000232654
8.08182e-05
0.000233165
8.57327e-05
0.000185592
0.000200111
0.000230509
0.000232653
8.08057e-05
0.000233165
8.57204e-05
0.000185585
9.84433e-05
4.19606e-05
4.03811e-05
8.55381e-05
9.84492e-05
4.19577e-05
4.03784e-05
8.55205e-05
2.16917e-05
2.28364e-05
2.16907e-05
2.2835e-05
0.000229711
4.00601e-05
4.00509e-05
4.30996e-05
4.30941e-05
2.44805e-05
2.33071e-05
2.44794e-05
2.3306e-05
2.47769e-05
2.54651e-05
2.47751e-05
2.54626e-05
3.91613e-05
3.91519e-05
0.000219532
3.6574e-05
3.65592e-05
2.59555e-05
2.56202e-05
2.59528e-05
2.56177e-05
0.000216711
3.38495e-05
3.38375e-05
3.57261e-05
3.57153e-05
7.25424e-05
4.24311e-05
8.13606e-05
4.37602e-05
0.000167437
7.94448e-05
0.000232048
0.000225891
0.000180157
7.45187e-05
0.000231341
0.000167434
7.94314e-05
0.000232047
0.000225885
0.000180152
7.45079e-05
0.00023134
6.96013e-05
4.52379e-05
4.41513e-05
6.3221e-05
6.96037e-05
4.52346e-05
4.41478e-05
6.32193e-05
0.000162832
0.00022408
6.86788e-05
0.000229617
7.3159e-05
0.00023053
0.000151861
0.000162829
0.000224074
6.86678e-05
0.000229616
7.31489e-05
0.000230529
0.000151856
3.91489e-05
3.9165e-05
0.000219533
3.65608e-05
3.65682e-05
2.47765e-05
2.54642e-05
2.59527e-05
2.56174e-05
0.00021671
3.38375e-05
3.38459e-05
3.57146e-05
3.57256e-05
2.59545e-05
2.56193e-05
0.000167434
7.9434e-05
0.000232048
0.00022589
0.00018015
7.44997e-05
0.00023134
7.25279e-05
4.24293e-05
8.13679e-05
4.37579e-05
0.000167431
0.000232047
7.94268e-05
0.000225884
0.000180148
0.00023134
7.45023e-05
6.96084e-05
4.52342e-05
4.4147e-05
6.32195e-05
0.000162826
0.000224079
6.8664e-05
0.000229616
7.31486e-05
0.00023053
0.000151854
6.96079e-05
4.52323e-05
4.41454e-05
6.32185e-05
0.000162822
0.000224072
0.000229615
6.86636e-05
0.000230529
7.31431e-05
0.000151851
7.25412e-05
4.24324e-05
8.13558e-05
4.37612e-05
0.000167435
0.000232048
7.94391e-05
0.000225891
0.000180155
0.00023134
7.45154e-05
7.25379e-05
4.24302e-05
8.13563e-05
4.37587e-05
0.000162834
0.000224085
6.86735e-05
0.000229617
7.31602e-05
0.000230531
0.000151856
6.96038e-05
4.52355e-05
4.41489e-05
6.32185e-05
0.00016283
0.000224077
0.000229616
6.86733e-05
0.00023053
7.31545e-05
0.000151856
6.96053e-05
4.52333e-05
4.41466e-05
6.32192e-05
3.91473e-05
3.91593e-05
0.00021953
3.6558e-05
3.65685e-05
2.47758e-05
2.54638e-05
2.59518e-05
2.5617e-05
0.00021671
3.38354e-05
3.38449e-05
3.57124e-05
3.57248e-05
2.59542e-05
2.5619e-05
0.000167431
0.000232048
7.94289e-05
0.000225889
0.000180152
0.00023134
7.45031e-05
7.2539e-05
4.2432e-05
8.13585e-05
4.37604e-05
7.25316e-05
4.24293e-05
8.13671e-05
4.37572e-05
0.00016283
0.000224084
0.000229617
6.86761e-05
0.000230531
7.31566e-05
0.000151855
0.000162825
0.000224078
0.000229616
6.86641e-05
0.000230529
7.31432e-05
0.000151852
6.96016e-05
4.52352e-05
4.41481e-05
6.32211e-05
6.96064e-05
4.52318e-05
4.41451e-05
6.32175e-05
2.47749e-05
2.54629e-05
2.47739e-05
2.54617e-05
0.000216709
3.38444e-05
3.38363e-05
3.57198e-05
3.57131e-05
2.5953e-05
2.56179e-05
2.59514e-05
2.56168e-05
2.6015e-05
2.61191e-05
2.60125e-05
2.61161e-05
3.32183e-05
3.32063e-05
0.000204535
3.1991e-05
3.1981e-05
2.60849e-05
2.61198e-05
2.60816e-05
2.61168e-05
0.000201268
3.08761e-05
3.08668e-05
3.15673e-05
3.15567e-05
5.62727e-05
4.55432e-05
6.11153e-05
4.64095e-05
0.000138573
6.74307e-05
0.000228604
0.000218077
0.000148026
6.35248e-05
0.000227497
0.000138569
6.74197e-05
0.000228603
0.00021807
0.000148021
6.35144e-05
0.000227495
5.47621e-05
4.73233e-05
4.66516e-05
5.10015e-05
5.47605e-05
4.73192e-05
4.66475e-05
5.10001e-05
0.000135385
0.000215939
5.91393e-05
0.000225027
6.24295e-05
0.000226302
0.000127231
0.000135381
0.000215932
5.91297e-05
0.000225025
6.24191e-05
0.0002263
0.000127228
3.32072e-05
3.32157e-05
0.000204534
3.19801e-05
3.19891e-05
2.60142e-05
2.61178e-05
2.60818e-05
2.61169e-05
0.000201267
3.08664e-05
3.08748e-05
3.15568e-05
3.15653e-05
2.60834e-05
2.61185e-05
0.000138568
6.74192e-05
0.000228603
0.000218079
0.000148019
6.35131e-05
0.000227496
5.62715e-05
4.55411e-05
6.11143e-05
4.64072e-05
0.000138565
0.000228602
6.74164e-05
0.000218068
0.000148017
0.000227494
6.35102e-05
5.47602e-05
4.73189e-05
4.66472e-05
5.09997e-05
0.000135379
0.000215942
5.91285e-05
0.000225026
6.24178e-05
0.000226301
0.000127226
5.47591e-05
4.73168e-05
4.66452e-05
5.09987e-05
0.000135377
0.00021593
0.000225023
5.91257e-05
0.000226299
6.24152e-05
0.000127224
5.62674e-05
4.55443e-05
6.11189e-05
4.64105e-05
0.000138568
0.000228604
6.74247e-05
0.000218074
0.000148022
0.000227496
6.3519e-05
5.62724e-05
4.5542e-05
6.11159e-05
4.64082e-05
0.000135385
0.000215947
5.91361e-05
0.000225027
6.24258e-05
0.000226304
0.000127227
5.47625e-05
4.73202e-05
4.66484e-05
5.0999e-05
0.000135382
0.000215935
0.000225026
5.91333e-05
0.000226301
6.24229e-05
0.000127226
5.47604e-05
4.73178e-05
4.66461e-05
5.09997e-05
3.32055e-05
3.32173e-05
0.000204531
3.19787e-05
3.19879e-05
2.60138e-05
2.61178e-05
2.60808e-05
2.6116e-05
0.000201265
3.08653e-05
3.08745e-05
3.15555e-05
3.15654e-05
2.60834e-05
2.61185e-05
0.000138565
0.000228603
6.74157e-05
0.000218077
0.000148017
0.000227495
6.35103e-05
5.62695e-05
4.55441e-05
6.11168e-05
4.64103e-05
5.62708e-05
4.55407e-05
6.11137e-05
4.64067e-05
0.00013538
0.000215945
0.000225027
5.91361e-05
0.000226302
6.24261e-05
0.000127227
0.000135376
0.000215939
0.000225024
5.91256e-05
0.0002263
6.24152e-05
0.000127224
5.476e-05
4.732e-05
4.66484e-05
5.09993e-05
5.47586e-05
4.73162e-05
4.66447e-05
5.09983e-05
2.60125e-05
2.61165e-05
2.6011e-05
2.61149e-05
0.000201262
3.08723e-05
3.08661e-05
3.15624e-05
3.15564e-05
2.6082e-05
2.61172e-05
2.60804e-05
2.61156e-05
2.60492e-05
2.59413e-05
2.60459e-05
2.59379e-05
3.06159e-05
3.06064e-05
0.000189706
3.03018e-05
3.02931e-05
2.57415e-05
2.58852e-05
2.5738e-05
2.58817e-05
0.000186474
3.01705e-05
3.01629e-05
3.02031e-05
3.01942e-05
4.69616e-05
4.74954e-05
4.99053e-05
4.80012e-05
0.000117535
5.82124e-05
0.00022368
0.000209296
0.000124582
5.54906e-05
0.000222269
0.000117533
5.82027e-05
0.000223677
0.000209289
0.000124579
5.5482e-05
0.000222266
4.61542e-05
4.84989e-05
4.81307e-05
4.38422e-05
4.61532e-05
4.84946e-05
4.81263e-05
4.38412e-05
0.000115356
0.000207046
5.25008e-05
0.000219286
5.4728e-05
0.000220801
0.000109263
0.000115354
0.000207039
5.2493e-05
0.000219284
5.4719e-05
0.000220799
0.000109261
3.06063e-05
3.06144e-05
0.000189704
3.02928e-05
3.03007e-05
2.60477e-05
2.59398e-05
2.57383e-05
2.58818e-05
0.000186472
3.01692e-05
3.0172e-05
3.0194e-05
3.02017e-05
2.57399e-05
2.58836e-05
0.000117531
5.82014e-05
0.000223678
0.000209303
0.000124577
5.54806e-05
0.000222267
4.69602e-05
4.7493e-05
4.99037e-05
4.79986e-05
0.000117529
0.000223676
5.81989e-05
0.000209286
0.000124575
0.000222264
5.54781e-05
4.61525e-05
4.84942e-05
4.81261e-05
4.38406e-05
0.000115351
0.000207053
5.24915e-05
0.000219285
5.47178e-05
0.0002208
0.000109259
4.61517e-05
4.84918e-05
4.81238e-05
4.38398e-05
0.00011535
0.000207036
0.000219281
5.24891e-05
0.000220797
5.47153e-05
0.000109258
4.6961e-05
4.74964e-05
4.99033e-05
4.80022e-05
0.00011753
0.000223678
5.82057e-05
0.000209292
0.000124579
0.000222267
5.54848e-05
4.69611e-05
4.7494e-05
4.99048e-05
4.79997e-05
0.000115356
0.000207058
5.2498e-05
0.000219286
5.47242e-05
0.000220804
0.000109257
4.6151e-05
4.84956e-05
4.81275e-05
4.38406e-05
0.000115353
0.000207041
0.000219284
5.24952e-05
0.0002208
5.47216e-05
0.000109258
4.61527e-05
4.84929e-05
4.81249e-05
4.38407e-05
3.06053e-05
3.06144e-05
0.0001897
3.02919e-05
3.03008e-05
2.60477e-05
2.59397e-05
2.57372e-05
2.5881e-05
0.000186468
3.0157e-05
3.01661e-05
3.01934e-05
3.02019e-05
2.57398e-05
2.58836e-05
0.000117528
0.000223677
5.81987e-05
0.000209298
0.000124574
0.000222265
5.54778e-05
4.69607e-05
4.74963e-05
4.99044e-05
4.80021e-05
4.69598e-05
4.74925e-05
4.99033e-05
4.7998e-05
0.000115351
0.000207055
0.000219285
5.24978e-05
0.000220801
5.47244e-05
0.000109258
0.000115348
0.000207048
0.000219283
5.24889e-05
0.000220798
5.47151e-05
0.000109257
4.61523e-05
4.84955e-05
4.81273e-05
4.38403e-05
4.61514e-05
4.84911e-05
4.81232e-05
4.38395e-05
2.60463e-05
2.59384e-05
2.60447e-05
2.59366e-05
0.000186464
3.01679e-05
3.01613e-05
3.01995e-05
3.01941e-05
2.57385e-05
2.58822e-05
2.57367e-05
2.58806e-05
2.56775e-05
2.55221e-05
2.5674e-05
2.55186e-05
3.01803e-05
3.01713e-05
0.000176307
3.04036e-05
3.03964e-05
2.53035e-05
2.54566e-05
2.52999e-05
2.5453e-05
0.000173248
3.08883e-05
3.08815e-05
3.04539e-05
3.04448e-05
4.14266e-05
4.85786e-05
4.32426e-05
4.88364e-05
0.000102109
5.1883e-05
0.000217731
0.000200299
0.00010737
5.00801e-05
0.000216141
0.000102108
5.18747e-05
0.000217728
0.000200292
0.000107367
5.00731e-05
0.000216138
4.09848e-05
4.9065e-05
4.88937e-05
3.9568e-05
4.09841e-05
4.90602e-05
4.88887e-05
3.95674e-05
0.000100451