/*--------------------------------*- C++ -*----------------------------------*\
| =========                 |                                                 |
| \\      /  F ield         | OpenFOAM: The Open Source CFD Toolbox           |
|  \\    /   O peration     | Version:  2312                                  |
|   \\  /    A nd           | Website:  www.openfoam.com                      |
|    \\/     M anipulation  |                                                 |
\*---------------------------------------------------------------------------*/
FoamFile
{
    version     2.0;
    format      ascii;
    arch        "LSB;label=32;scalar=64";
    class       surfaceScalarField;
    location    "1000";
    object      phi;
}
// * * * * * * * * * * * * * * * * * * * * * * * * * * * * * * * * * * * * * //

dimensions      [0 3 -1 0 0 0 0];

oriented        oriented;

internalField   nonuniform List<scalar> 
125397
(
-0.000260899
-3.9613e-06
-3.95675e-06
3.15348e-06
3.16137e-06
0.000262502
-0.00026147
-3.75459e-06
3.95647e-06
-4.51671e-06
2.97044e-06
0.000262815
-0.000261463
-3.75972e-06
3.95644e-06
2.97055e-06
-4.51425e-06
0.00026281
-0.000261159
3.75112e-06
3.7597e-06
-4.23388e-06
-4.22708e-06
0.000262109
-1.77522e-06
-1.77684e-06
-0.00106079
1.0049e-06
1.00629e-06
0.00106233
-0.00106272
-1.63876e-06
1.77644e-06
8.94162e-07
0.00106396
-6.72961e-07
7.67581e-07
-1.60629e-07
3.55203e-07
-8.26683e-07
-1.42935e-06
-3.07214e-07
-0.00106261
-1.6387e-06
1.78165e-06
8.94108e-07
0.00106384
-6.75566e-07
7.67577e-07
-1.581e-07
3.55248e-07
-8.2923e-07
-1.42933e-06
-3.07138e-07
-0.000261524
1.66599e-06
1.62854e-06
-7.37847e-07
-7.43506e-07
0.000259711
-1.36169e-06
-1.36256e-06
-0.00106652
6.83535e-07
6.7935e-07
0.00106788
-0.00106786
-1.55987e-06
1.36252e-06
6.99534e-07
0.0010692
-6.24564e-07
8.38042e-07
-1.04539e-07
4.2583e-07
-7.79774e-07
-1.35553e-06
-2.42492e-07
-0.00106774
-1.55463e-06
1.3625e-06
6.94457e-07
0.00106909
-6.24584e-07
8.32708e-07
-1.04569e-07
4.25866e-07
-7.79745e-07
-1.35289e-06
-2.42451e-07
-0.000262743
1.59e-06
1.54696e-06
-6.75237e-07
-6.7827e-07
0.00026096
-1.34152e-06
-1.34252e-06
-0.00107199
6.6434e-07
6.65368e-07
0.00107334
-0.00107321
-1.55675e-06
1.34242e-06
6.66569e-07
0.00107453
-6.21085e-07
8.62606e-07
-8.25171e-08
4.38682e-07
-7.82699e-07
-1.3691e-06
-2.18204e-07
-0.00107309
-1.5541e-06
1.34233e-06
6.71908e-07
0.0010744
-6.18424e-07
8.59901e-07
-8.50609e-08
4.38685e-07
-7.82647e-07
-1.36904e-06
-2.18183e-07
-0.000264021
1.58436e-06
1.54899e-06
-6.65805e-07
-6.68851e-07
0.000262223
-1.29588e-06
-1.29682e-06
-0.00107734
6.42082e-07
6.43116e-07
0.00107864
-0.00107838
-1.5482e-06
1.29672e-06
6.31877e-07
0.00107964
-6.08181e-07
8.90797e-07
-5.69118e-08
4.60739e-07
-7.71015e-07
-1.37132e-06
-1.86553e-07
-0.00107826
-1.54558e-06
1.29663e-06
6.3726e-07
0.00107952
-6.05538e-07
8.88093e-07
-5.94437e-08
4.60714e-07
-7.7104e-07
-1.37123e-06
-1.86544e-07
-0.00026524
1.57595e-06
1.54041e-06
-6.48441e-07
-6.51471e-07
0.000263424
-1.24877e-06
-1.24961e-06
-0.00108249
6.20549e-07
6.21615e-07
0.00108375
-0.00108332
-1.53974e-06
1.24951e-06
6.0164e-07
0.00108452
-5.95912e-07
9.16594e-07
-3.43807e-08
4.84735e-07
-7.56754e-07
-1.36899e-06
-1.56071e-07
-0.0010832
-1.53717e-06
1.2494e-06
6.07055e-07
0.00108439
-5.93371e-07
9.13814e-07
-3.69712e-08
4.84818e-07
-7.56756e-07
-1.36886e-06
-1.55946e-07
-0.000266386
1.56764e-06
1.53191e-06
-6.3144e-07
-6.34511e-07
0.000264552
-1.20487e-06
-1.20549e-06
-0.00108744
6.0114e-07
6.02259e-07
0.00108865
-0.001088
-1.53306e-06
1.20537e-06
5.77399e-07
0.00108914
-5.86161e-07
9.3957e-07
-1.56571e-08
5.09411e-07
-7.42997e-07
-1.36497e-06
-1.28082e-07
-0.00108788
-1.53053e-06
1.20524e-06
5.82797e-07
0.00108902
-5.83784e-07
9.36792e-07
-1.81066e-08
5.0934e-07
-7.42986e-07
-1.36477e-06
-1.28012e-07
-0.000267457
1.56107e-06
1.52517e-06
-6.16682e-07
-6.19772e-07
0.000265607
-1.16602e-06
-1.16723e-06
-0.0010922
5.84775e-07
5.85845e-07
0.00109336
-0.00109245
-1.52852e-06
1.16712e-06
5.58949e-07
0.00109354
-5.79563e-07
9.59814e-07
-1.09824e-09
5.3337e-07
-7.30834e-07
-1.36087e-06
-1.03255e-07
-0.00109233
-1.52606e-06
1.16711e-06
5.64583e-07
0.00109341
-5.7734e-07
9.56923e-07
-3.373e-09
5.33302e-07
-7.30851e-07
-1.36084e-06
-1.03223e-07
-0.00026846
1.55666e-06
1.52055e-06
-6.04506e-07
-6.07612e-07
0.000266595
-1.1324e-06
-1.13358e-06
-0.00109679
5.70771e-07
5.71534e-07
0.00109791
-0.0010967
-1.52732e-06
1.13357e-06
5.44939e-07
0.00109773
-5.76622e-07
9.76569e-07
1.69306e-08
5.55828e-07
-7.20377e-07
-1.35769e-06
-8.16496e-08
-0.00109658
-1.52467e-06
1.13376e-06
5.50601e-07
0.00109761
-5.74065e-07
9.73639e-07
1.30247e-08
5.55966e-07
-7.20295e-07
-1.35771e-06
-8.14642e-08
-0.0002694
1.55522e-06
1.51897e-06
-5.95889e-07
-5.98984e-07
0.000267521
-1.1039e-06
-1.10488e-06
-0.00110123
5.59102e-07
5.59838e-07
0.00110232
-0.00110075
-1.52773e-06
1.10505e-06
5.34152e-07
0.00110174
-5.75204e-07
9.91609e-07
3.07088e-08
5.77256e-07
-7.10927e-07
-1.355e-06
-6.26826e-08
-0.00110063
-1.52488e-06
1.10509e-06
5.39741e-07
0.00110162
-5.72031e-07
9.8868e-07
2.71226e-08
5.77268e-07
-7.10941e-07
-1.35516e-06
-6.26109e-08
-0.000270282
1.55572e-06
1.51933e-06
-5.89593e-07
-5.92718e-07
0.000268389
-1.0793e-06
-1.08015e-06
-0.00110555
5.49262e-07
5.50035e-07
0.00110661
-0.00110464
-1.52887e-06
1.08019e-06
5.25106e-07
0.00110559
-5.7434e-07
1.00551e-06
4.21346e-08
5.97405e-07
-7.01761e-07
-1.35218e-06
-4.63816e-08
-0.00110452
-1.52588e-06
1.08006e-06
5.30428e-07
0.00110546
-5.70606e-07
1.00277e-06
3.951e-08
5.97165e-07
-7.01754e-07
-1.35236e-06
-4.64488e-08
-0.000271109
1.55729e-06
1.52078e-06
-5.84899e-07
-5.88074e-07
0.000269204
-1.05654e-06
-1.05739e-06
-0.00110974
5.40222e-07
5.40971e-07
0.00111078
-0.00110837
-1.53007e-06
1.05717e-06
5.1581e-07
0.00110928
-5.72793e-07
1.01919e-06
5.40024e-08
6.16241e-07
-6.91938e-07
-1.3487e-06
-3.26072e-08
-0.00110824
-1.52728e-06
1.0569e-06
5.21019e-07
0.00110915
-5.70217e-07
1.01681e-06
5.23585e-08
6.16124e-07
-6.91568e-07
-1.34845e-06
-3.25232e-08
-0.000271883
1.55908e-06
1.5225e-06
-5.80386e-07
-5.83424e-07
0.000269966
-1.03464e-06
-1.03553e-06
-0.00111384
5.31336e-07
5.32079e-07
0.00111484
-0.00111194
-1.53141e-06
1.03539e-06
5.05863e-07
0.00111282
-5.72028e-07
1.03311e-06
6.56571e-08
6.33213e-07
-6.80415e-07
-1.3443e-06
-2.03949e-08
-0.00111182
-1.52901e-06
1.03559e-06
5.11895e-07
0.00111269
-5.70536e-07
1.03028e-06
6.1509e-08
6.33715e-07
-6.80378e-07
-1.34412e-06
-1.99095e-08
-0.000272607
1.56026e-06
1.52356e-06
-5.74958e-07
-5.78094e-07
0.000270676
-1.01412e-06
-1.01494e-06
-0.00111783
5.22839e-07
5.23612e-07
0.00111881
-0.00111537
-1.53336e-06
1.01475e-06
4.96262e-07
0.00111621
-5.70428e-07
1.04558e-06
7.34672e-08
6.49299e-07
-6.67888e-07
-1.33789e-06
-9.41638e-09
-0.00111525
-1.53036e-06
1.01476e-06
5.01715e-07
0.00111608
-5.66587e-07
1.04264e-06
7.0408e-08
6.48934e-07
-6.6819e-07
-1.33822e-06
-9.62023e-09
-0.000273276
1.56174e-06
1.52492e-06
-5.70033e-07
-5.7307e-07
0.000271332
-9.92676e-07
-9.93414e-07
-0.00112172
5.13715e-07
5.1449e-07
0.00112268
-0.00111865
-1.53354e-06
9.93757e-07
4.85909e-07
0.00111945
-5.6537e-07
1.0584e-06
8.21757e-08
6.62681e-07
-6.54116e-07
-1.33038e-06
-1.28844e-09
-0.00111853
-1.53067e-06
9.93351e-07
4.91058e-07
0.00111932
-5.62748e-07
1.05597e-06
8.04583e-08
6.62853e-07
-6.53644e-07
-1.33e-06
-1.22623e-09
-0.00027389
1.56252e-06
1.52561e-06
-5.6317e-07
-5.66254e-07
0.000271932
-9.72212e-07
-9.72381e-07
-0.00112552
5.0477e-07
5.05323e-07
0.00112645
-0.00112177
-1.53344e-06
9.72422e-07
4.72946e-07
0.00112254
-5.60563e-07
1.07093e-06
9.0637e-08
6.74803e-07
-6.38699e-07
-1.32113e-06
1.04575e-08
-0.00112165
-1.53052e-06
9.72255e-07
4.78696e-07
0.00112241
-5.56892e-07
1.06782e-06
8.70696e-08
6.74852e-07
-6.3906e-07
-1.32144e-06
1.06696e-08
-0.000274447
1.56205e-06
1.52522e-06
-5.54976e-07
-5.58029e-07
0.000272473
-9.50488e-07
-9.51277e-07
-0.00112922
4.952e-07
4.95789e-07
0.00113013
-0.00112474
-1.53233e-06
9.51064e-07
4.61251e-07
0.00112546
-5.5256e-07
1.08217e-06
9.75002e-08
6.8517e-07
-6.22978e-07
-1.31104e-06
2.02054e-08
-0.00112462
-1.5298e-06
9.50998e-07
4.66939e-07
0.00112533
-5.5048e-07
1.07924e-06
9.41336e-08
6.85507e-07
-6.22629e-07
-1.31078e-06
2.05614e-08
-0.000274941
1.56126e-06
1.52432e-06
-5.46924e-07
-5.50012e-07
0.000272952
-9.29299e-07
-9.29999e-07
-0.00113283
4.852e-07
4.85907e-07
0.00113372
-0.00112755
-1.5304e-06
9.29575e-07
4.55885e-07
0.00112822
-5.43579e-07
1.09276e-06
1.04296e-07
6.94236e-07
-6.06234e-07
-1.29935e-06
2.87026e-08
-0.00112742
-1.52766e-06
9.29308e-07
4.55937e-07
0.00112809
-5.40866e-07
1.08991e-06
1.01215e-07
6.94472e-07
-6.06165e-07
-1.29911e-06
2.89132e-08
-0.00027537
1.55921e-06
1.52219e-06
-5.37369e-07
-5.40406e-07
0.000273366
-9.07674e-07
-9.08122e-07
-0.00113635
4.7513e-07
4.75853e-07
0.00113721
-0.00113018
-1.5273e-06
9.07822e-07
4.45192e-07
0.00113081
-5.33196e-07
1.10235e-06
1.10462e-07
7.02738e-07
-5.89032e-07
-1.28597e-06
3.63714e-08
-0.00113005
-1.52476e-06
9.07665e-07
4.45615e-07
0.00113068
-5.30749e-07
1.09939e-06
1.07429e-07
7.02943e-07
-5.88831e-07
-1.28584e-06
3.66418e-08
-0.00027573
1.55658e-06
1.51953e-06
-5.28064e-07
-5.30973e-07
0.000273713
-8.85991e-07
-8.86416e-07
-0.00113977
4.64982e-07
4.65984e-07
0.00114061
-0.00113263
-1.52317e-06
8.87326e-07
4.29592e-07
0.00113322
-5.2139e-07
1.11097e-06
1.16651e-07
7.1001e-07
-5.72103e-07
-1.27144e-06
4.28898e-08
-0.0011325
-1.52044e-06
8.86696e-07
4.34914e-07
0.00113309
-5.18769e-07
1.10824e-06
1.13738e-07
7.10271e-07
-5.71903e-07
-1.27114e-06
4.32287e-08
-0.000276022
1.55233e-06
1.51526e-06
-5.17017e-07
-5.19921e-07
0.000273992
-8.66076e-07
-8.66686e-07
-0.0011431
4.56558e-07
4.573e-07
0.00114392
-0.0011349
-1.51743e-06
8.65848e-07
4.19786e-07
0.00113545
-5.08761e-07
1.11865e-06
1.21516e-07
7.17142e-07
-5.55225e-07
-1.25581e-06
4.95893e-08
-0.00113478
-1.515e-06
8.6602e-07
4.25387e-07
-5.0692e-07
1.11581e-06
1.18596e-07
7.17318e-07
-5.54855e-07
-1.2555e-06
4.98343e-08
-0.000276242
1.54679e-06
1.50965e-06
-5.04956e-07
-5.07845e-07
0.000274199
4.90981e-06
4.92067e-06
0.00026121
-0.00025962
-5.71645e-06
-5.70449e-06
5.15733e-06
0.000261468
-0.000259454
-6.14602e-06
3.88445e-06
-4.91472e-06
5.15191e-06
0.00026146
-0.000259438
-6.15054e-06
3.89181e-06
4.91009e-06
0.00026119
-0.000259594
-5.68962e-06
-5.73059e-06
5.15008e-06
0.000261506
-0.000259471
-6.15091e-06
3.88688e-06
5.14946e-06
-4.91216e-06
0.000261455
-0.000259431
3.88921e-06
-6.15058e-06
-0.000258103
3.75434e-06
3.7568e-06
-5.14732e-06
0.000260876
-0.000258087
3.75666e-06
3.75406e-06
-5.14478e-06
0.000260871
-0.000258082
3.75413e-06
3.75161e-06
-5.15174e-06
-5.14198e-06
0.00026085
-0.000258062
3.75141e-06
3.75395e-06
-0.000259446
-6.1406e-06
3.87908e-06
-4.90669e-06
0.000261417
-0.000259408
3.88141e-06
-6.13515e-06
4.90502e-06
0.000261185
-0.000259589
-5.68715e-06
-5.72542e-06
-0.000259444
3.87661e-06
-6.13554e-06
-4.91511e-06
0.000261458
-0.000259431
3.88662e-06
-6.14021e-06
-0.000259577
-5.70818e-06
-5.69616e-06
3.75171e-06
3.76017e-06
-4.23714e-06
-4.23274e-06
0.000262168
-7.40751e-07
-6.99434e-07
0.000261591
-0.000259518
-3.17627e-07
-3.15309e-07
-4.52471e-06
2.9707e-06
0.000262812
-3.75668e-06
3.96099e-06
-4.52929e-06
2.98067e-06
0.000262804
0.00106222
2.37803e-06
-0.00106122
1.14834e-06
-1.80474e-06
-2.01957e-07
-7.51059e-07
-1.56153e-06
-3.53137e-07
-8.96969e-07
2.94733e-07
7.35544e-07
0.00106231
2.37272e-06
-0.00106129
1.14813e-06
-1.79978e-06
-2.04593e-07
-7.51341e-07
-1.56122e-06
-3.50301e-07
-8.99209e-07
2.94739e-07
-4.23143e-06
-4.23261e-06
0.000262143
-7.01941e-07
0.000261575
-0.000259502
-3.20487e-07
-3.15089e-07
-4.52969e-06
2.97318e-06
0.000262866
-3.75674e-06
3.96364e-06
2.98321e-06
-4.52934e-06
0.000262794
0.00106314
2.38535e-06
-0.00106211
1.12664e-06
-1.76747e-06
-2.07152e-07
-7.51599e-07
-1.56156e-06
-3.50532e-07
-8.99533e-07
2.94595e-07
7.35575e-07
0.00106219
2.38236e-06
-0.0010612
1.1583e-06
-1.79969e-06
-2.02024e-07
-7.51241e-07
-1.56111e-06
-3.50123e-07
-8.98938e-07
2.92153e-07
3.95824e-06
2.9779e-06
-4.51897e-06
0.000262751
2.37975e-06
-0.0010617
1.13697e-06
-1.76977e-06
-2.06954e-07
-7.48607e-07
-1.55615e-06
-3.50579e-07
2.89285e-07
-8.99455e-07
7.3277e-07
0.00106183
2.38238e-06
-0.00106084
1.15844e-06
-1.79679e-06
-2.01936e-07
-7.50972e-07
-1.55581e-06
-3.52756e-07
-8.96402e-07
2.86763e-07
-4.23411e-06
-4.23005e-06
0.000262132
-6.9676e-07
0.00026156
-0.000259492
-3.20359e-07
-3.15073e-07
3.95629e-06
2.97544e-06
-4.52407e-06
0.00026281
2.38994e-06
-0.0010616
1.14707e-06
-1.76704e-06
-2.06815e-07
-7.48426e-07
-1.55623e-06
-3.48031e-07
2.89343e-07
-8.9941e-07
6.88818e-07
0.00106275
2.3901e-06
-0.00106174
1.14177e-06
-1.75945e-06
-2.07077e-07
-7.48808e-07
-1.55327e-06
-3.52848e-07
-8.96689e-07
2.86584e-07
-0.000259467
-3.20305e-07
-3.15301e-07
1.67396e-06
1.63907e-06
-7.35227e-07
-7.4104e-07
0.000259754
-8.7226e-07
-8.31021e-07
0.000262808
-0.000260684
-2.15142e-07
-2.0494e-07
8.95331e-07
0.00106346
-6.78205e-07
8.0625e-07
-1.55787e-07
3.63288e-07
-8.26633e-07
-1.43476e-06
-3.0469e-07
-1.67411e-06
1.77994e-06
9.05426e-07
0.00106353
-6.81067e-07
8.06341e-07
-1.53321e-07
3.66083e-07
-8.31553e-07
-1.43697e-06
-3.01875e-07
0.00106736
1.37355e-06
-0.00106603
7.10111e-07
-1.59941e-06
-1.02839e-07
-6.3073e-07
-1.35518e-06
-2.50081e-07
-7.75532e-07
4.27938e-07
8.64415e-07
0.00106744
1.37323e-06
-0.0010661
7.04809e-07
-1.59437e-06
-1.05374e-07
-6.28313e-07
-1.35751e-06
-2.44878e-07
-7.77921e-07
4.30531e-07
-7.38311e-07
-7.40449e-07
0.000259741
-8.33486e-07
0.000262787
-0.000260672
-2.10086e-07
-2.07464e-07
8.99426e-07
0.00106437
-6.76046e-07
7.67699e-07
-1.5833e-07
3.63143e-07
-8.29403e-07
-1.43469e-06
-3.02241e-07
-1.66886e-06
1.77965e-06
9.0544e-07
0.00106342
-6.8101e-07
7.98482e-07
-1.53322e-07
3.607e-07
-8.26235e-07
-1.43171e-06
-3.06728e-07
0.00106828
1.37446e-06
-0.00106696
7.14324e-07
-1.5564e-06
-1.0773e-07
-6.23083e-07
-1.35259e-06
-2.47565e-07
-7.75673e-07
4.25133e-07
8.6179e-07
0.00106732
1.37308e-06
-0.00106599
7.04866e-07
-1.58909e-06
-1.0783e-07
-6.28281e-07
-1.35234e-06
-2.47322e-07
-7.75237e-07
4.25167e-07
1.77465e-06
9.05533e-07
0.00106305
-6.80764e-07
7.98303e-07
-1.5324e-07
3.57934e-07
-8.26242e-07
-3.04359e-07
-1.42637e-06
1.37956e-06
-0.00106653
7.03874e-07
-1.56133e-06
-1.07636e-07
-6.25443e-07
-1.35255e-06
-2.50105e-07
4.25053e-07
-7.75592e-07
8.64259e-07
0.00106695
1.37316e-06
-0.00106563
7.09974e-07
-1.58876e-06
-1.0523e-07
-6.27978e-07
-1.34961e-06
-2.44899e-07
-7.75166e-07
4.25105e-07
-7.38241e-07
-7.37865e-07
0.000259729
-8.30792e-07
0.000262769
-0.000260656
-2.12753e-07
-2.07407e-07
1.7766e-06
8.99231e-07
0.00106398
-6.75885e-07
7.5704e-07
-1.60784e-07
3.57825e-07
-8.26524e-07
-3.04481e-07
-1.42909e-06
1.37443e-06
-0.00106641
7.09189e-07
-1.55872e-06
-1.07654e-07
-6.25431e-07
-1.34728e-06
-2.50063e-07
4.1976e-07
-7.75541e-07
8.20267e-07
0.00106789
1.3795e-06
-0.00106656
7.09027e-07
-1.54847e-06
-1.12692e-07
-6.23045e-07
-1.34957e-06
-2.47399e-07
-7.7802e-07
4.22341e-07
-0.000260636
-2.12682e-07
-2.10212e-07
1.59537e-06
1.5575e-06
-6.72598e-07
-6.80861e-07
0.000261008
-8.97114e-07
-8.55638e-07
0.000264091
-0.000261961
-1.90198e-07
-1.87799e-07
7.00517e-07
0.00106869
-6.29838e-07
8.76872e-07
-9.97238e-08
4.28706e-07
-7.79698e-07
-1.35827e-06
-2.42467e-07
-1.59292e-06
1.36658e-06
6.95227e-07
0.00106877
-6.30097e-07
8.74273e-07
-9.98428e-08
4.31313e-07
-7.79504e-07
-1.35793e-06
-2.42229e-07
0.0010727
1.35093e-06
-0.00107138
6.8123e-07
-1.59912e-06
-8.42962e-08
-6.29003e-07
-1.37247e-06
-2.25739e-07
-7.84293e-07
4.39428e-07
8.91806e-07
0.00107278
1.35064e-06
-0.00107146
6.81119e-07
-1.59408e-06
-8.68973e-08
-6.26524e-07
-1.37217e-06
-2.28082e-07
-7.81484e-07
4.39366e-07
-6.78254e-07
-6.82981e-07
0.000260995
-8.55457e-07
0.000264073
-0.000261951
-1.90407e-07
-1.85128e-07
6.9431e-07
0.00106963
-6.27506e-07
8.35546e-07
-1.04696e-07
4.31197e-07
-7.79891e-07
-1.35822e-06
-2.42413e-07
-1.59027e-06
1.36643e-06
7.00579e-07
0.00106865
-6.30027e-07
8.71649e-07
-9.98226e-08
4.3131e-07
-7.79497e-07
-1.35799e-06
-2.44673e-07
0.00107364
1.35195e-06
-0.00107231
6.80214e-07
-1.5585e-06
-8.92301e-08
-6.23993e-07
-1.37244e-06
-2.23215e-07
-7.87122e-07
4.39308e-07
8.86521e-07
0.00107266
1.35064e-06
-0.00107134
6.81246e-07
-1.58877e-06
-8.43847e-08
-6.29161e-07
-1.37221e-06
-2.28003e-07
-7.81478e-07
4.39436e-07
1.36124e-06
7.00409e-07
0.0010683
-6.29741e-07
8.66206e-07
-1.02168e-07
4.23192e-07
-7.79396e-07
-2.47211e-07
-1.35263e-06
1.35183e-06
-0.00107188
6.8547e-07
-1.55827e-06
-8.9091e-08
-6.2369e-07
-1.36709e-06
-2.25772e-07
4.33957e-07
-7.84362e-07
8.83745e-07
0.0010723
1.35055e-06
-0.00107098
6.81065e-07
-1.58586e-06
-8.67252e-08
-6.26201e-07
-1.3642e-06
-2.30574e-07
-7.78766e-07
4.31239e-07
-6.75699e-07
-6.80343e-07
0.00026098
-8.52782e-07
0.00026405
-0.000261935
-1.90344e-07
-1.85128e-07
1.36767e-06
6.99482e-07
0.00106922
-6.22117e-07
8.27412e-07
-1.07166e-07
4.23095e-07
-7.76992e-07
-2.44755e-07
-1.34997e-06
1.35176e-06
-0.00107176
6.80303e-07
-1.55563e-06
-9.1595e-08
-6.21034e-07
-1.36707e-06
-2.25745e-07
4.339e-07
-7.8435e-07
8.47487e-07
0.00107323
1.35181e-06
-0.0010719
6.80174e-07
-1.55054e-06
-8.92306e-08
-6.23893e-07
-1.36946e-06
-2.25535e-07
-7.84232e-07
4.36543e-07
-0.000261912
-1.90376e-07
-1.87817e-07
1.59764e-06
1.55698e-06
-6.65765e-07
-6.68912e-07
0.000262272
-9.25776e-07
-8.84129e-07
0.000265311
-0.000263179
-1.62055e-07
-1.59593e-07
6.72839e-07
0.00107402
-6.26402e-07
9.04298e-07
-7.77481e-08
4.44209e-07
-7.82601e-07
-1.37446e-06
-2.18155e-07
-1.59261e-06
1.34123e-06
6.72708e-07
0.0010741
-6.23921e-07
8.98982e-07
-8.03429e-08
4.44167e-07
-7.79789e-07
-1.37416e-06
-2.20505e-07
0.00107788
1.30765e-06
-0.00107661
6.46538e-07
-1.5915e-06
-5.83319e-08
-6.16816e-07
-1.37679e-06
-1.94418e-07
-7.74323e-07
4.60493e-07
9.20449e-07
0.00107796
1.30741e-06
-0.00107669
6.46454e-07
-1.58645e-06
-6.08893e-08
-6.143e-07
-1.37656e-06
-1.96787e-07
-7.71556e-07
4.60423e-07
-6.66315e-07
-6.71044e-07
0.000262261
-8.83938e-07
0.000265293
-0.000263169
-1.6224e-07
-1.5695e-07
6.71816e-07
0.00107495
-6.21387e-07
8.62778e-07
-8.26732e-08
4.44103e-07
-7.85428e-07
-1.37442e-06
-2.15632e-07
-1.58729e-06
1.34125e-06
6.72841e-07
0.00107398
-6.26556e-07
8.9368e-07
-7.785e-08
4.44222e-07
-7.79794e-07
-1.37419e-06
-2.2044e-07
0.00107882
1.30862e-06
-0.00107754
6.45526e-07
-1.55069e-06
-6.32268e-08
-6.1178e-07
-1.37676e-06
-1.91884e-07
-7.77168e-07
4.604e-07
9.15104e-07
0.00107784
1.30739e-06
-0.00107657
6.4654e-07
-1.58112e-06
-5.84148e-08
-6.16946e-07
-1.37653e-06
-1.96698e-07
-7.71497e-07
4.60614e-07
1.34114e-06
6.72666e-07
0.00107362
-6.23571e-07
8.9091e-07
-8.01686e-08
4.36007e-07
-7.77092e-07
-2.22998e-07
-1.36618e-06
1.30848e-06
-0.00107712
6.50801e-07
-1.55047e-06
-6.30868e-08
-6.11487e-07
-1.3714e-06
-1.94475e-07
4.55063e-07
-7.7439e-07
9.12361e-07
0.00107748
1.30729e-06
-0.0010762
6.46393e-07
-1.57819e-06
-6.07176e-08
-6.14014e-07
-1.36848e-06
-1.99283e-07
-7.68832e-07
4.52253e-07
-6.6634e-07
-6.71042e-07
0.000262246
-8.81241e-07
0.000265269
-0.000263154
-1.62177e-07
-1.56971e-07
1.34239e-06
6.71754e-07
0.00107454
-6.21265e-07
8.54613e-07
-8.26675e-08
4.41267e-07
-7.82552e-07
-2.17973e-07
-1.37136e-06
1.30839e-06
-0.00107699
6.45606e-07
-1.54779e-06
-6.5585e-08
-6.08795e-07
-1.37143e-06
-1.94401e-07
4.55035e-07
-7.74349e-07
8.75946e-07
0.0010784
1.30845e-06
-0.00107713
6.45466e-07
-1.54268e-06
-6.32183e-08
-6.11694e-07
-1.3737e-06
-1.94219e-07
-7.74263e-07
4.57672e-07
-0.00026313
-1.62198e-07
-1.5958e-07
1.58928e-06
1.54843e-06
-6.48393e-07
-6.51522e-07
0.000263473
-9.52312e-07
-9.10492e-07
0.000266457
-0.000264326
-1.34985e-07
-1.32445e-07
6.38166e-07
0.00107913
-6.13504e-07
9.32662e-07
-5.21877e-08
4.66394e-07
-7.70935e-07
-1.37675e-06
-1.86525e-07
-1.58421e-06
1.29563e-06
6.38067e-07
0.00107921
-6.11001e-07
9.27325e-07
-5.47108e-08
4.66323e-07
-7.68123e-07
-1.37635e-06
-1.86445e-07
0.00108281
1.26053e-06
-0.0010816
6.15045e-07
-1.58299e-06
-3.51503e-08
-6.04121e-07
-1.37537e-06
-1.63424e-07
-7.60367e-07
4.84179e-07
9.47007e-07
0.00108288
1.26035e-06
-0.00108167
6.14998e-07
-1.57786e-06
-3.52639e-08
-6.04234e-07
-1.37514e-06
-1.63267e-07
-7.60265e-07
4.84248e-07
-6.48916e-07
-6.53643e-07
0.000263463
-9.10305e-07
0.000266438
-0.000264316
-1.35121e-07
-1.29766e-07
6.3715e-07
0.00108007
-6.08467e-07
8.90979e-07
-5.70618e-08
4.66269e-07
-7.73792e-07
-1.37668e-06
-1.84004e-07
-1.57892e-06
1.29568e-06
6.38186e-07
0.00107909
-6.13674e-07
9.22018e-07
-5.22669e-08
4.66267e-07
-7.68218e-07
-1.37644e-06
-1.8883e-07
0.00108375
1.26141e-06
-0.00108254
6.14062e-07
-1.542e-06
-3.99845e-08
-5.99071e-07
-1.37535e-06
-1.60883e-07
-7.63226e-07
4.84132e-07
9.41546e-07
0.00108277
1.26025e-06
-0.00108156
6.15e-07
-1.57254e-06
-3.5241e-08
-6.04149e-07
-1.37501e-06
-1.65811e-07
-7.57505e-07
4.84501e-07
1.29551e-06
6.38012e-07
0.00107873
-6.10651e-07
9.19186e-07
-5.46106e-08
4.58175e-07
-7.65441e-07
-1.91445e-07
-1.36843e-06
1.26122e-06
-0.00108211
6.19311e-07
-1.54175e-06
-3.99265e-08
-5.98738e-07
-1.36993e-06
-1.63435e-07
4.78969e-07
-7.60457e-07
9.38877e-07
0.0010824
1.26012e-06
-0.0010812
6.14885e-07
-1.56961e-06
-3.74056e-08
-6.01361e-07
-1.36705e-06
-1.68293e-07
-7.54811e-07
4.75965e-07
-6.49038e-07
-6.53733e-07
0.000263447
-9.07578e-07
0.000266415
-0.0002643
-1.35089e-07
-1.29895e-07
1.2967e-06
6.37101e-07
0.00107966
-6.08336e-07
8.82777e-07
-5.70692e-08
4.63305e-07
-7.70928e-07
-1.86373e-07
-1.37365e-06
1.26113e-06
-0.00108199
6.14099e-07
-1.53904e-06
-4.23105e-08
-5.95973e-07
-1.37e-06
-1.63496e-07
4.78815e-07
-7.60384e-07
9.0232e-07
0.00108334
1.26118e-06
-0.00108213
6.13949e-07
-1.53394e-06
-3.98771e-08
-5.99043e-07
-1.37215e-06
-1.63232e-07
-7.60246e-07
4.81433e-07
-0.000264277
-1.35009e-07
-1.32341e-07
1.58101e-06
1.53998e-06
-6.31404e-07
-6.34501e-07
0.000264601
-9.76113e-07
-9.34106e-07
0.000267529
-0.0002654
-1.10546e-07
-1.07911e-07
6.07949e-07
0.001084
-6.01186e-07
9.58543e-07
-2.98038e-08
4.90577e-07
-7.56677e-07
-1.37436e-06
-1.56029e-07
-1.57589e-06
1.24859e-06
6.07876e-07
0.00108408
-6.01405e-07
9.53246e-07
-2.97981e-08
4.90451e-07
-7.56529e-07
-1.37398e-06
-1.55907e-07
0.00108749
1.21543e-06
-0.00108634
5.89259e-07
-1.57597e-06
-1.56934e-08
-5.93781e-07
-1.37163e-06
-1.34724e-07
-7.46302e-07
5.08939e-07
9.70743e-07
0.00108757
1.21525e-06
-0.00108642
5.89177e-07
-1.57081e-06
-1.58852e-08
-5.93896e-07
-1.37121e-06
-1.34598e-07
-7.46153e-07
5.09012e-07
-6.31899e-07
-6.36672e-07
0.000264591
-9.33873e-07
0.00026751
-0.000265389
-1.10753e-07
-1.05331e-07
6.06953e-07
0.00108495
-5.96139e-07
9.16699e-07
-3.45986e-08
4.90438e-07
-7.59551e-07
-1.3743e-06
-1.53486e-07
-1.57064e-06
1.24863e-06
6.07974e-07
0.00108396
-6.01506e-07
9.47887e-07
-2.98831e-08
4.90352e-07
-7.53981e-07
-1.37417e-06
-1.5824e-07
0.00108844
1.2161e-06
-0.00108729
5.88292e-07
-1.53483e-06
-2.04001e-08
-5.88738e-07
-1.37155e-06
-1.32135e-07
-7.49111e-07
5.08948e-07
9.65258e-07
0.00108745
1.21506e-06
-0.0010863
5.89119e-07
-1.56543e-06
-1.58634e-08
-5.93624e-07
-1.37106e-06
-1.37061e-07
-7.43415e-07
5.09307e-07
1.24841e-06
6.07816e-07
0.0010836
-5.98313e-07
9.44954e-07
-3.23459e-08
4.8228e-07
-7.51256e-07
-1.60968e-07
-1.36599e-06
1.21592e-06
-0.00108686
5.93557e-07
-1.53455e-06
-2.04392e-08
-5.88418e-07
-1.36595e-06
-1.34728e-07
5.03656e-07
-7.46328e-07
9.62691e-07
0.00108708
1.21488e-06
-0.00108594
5.89018e-07
-1.56256e-06
-1.77246e-08
-5.90969e-07
-1.36322e-06
-1.39567e-07
-7.40708e-07
5.00748e-07
-6.32143e-07
-6.36827e-07
0.000264576
-9.31167e-07
0.000267486
-0.000265374
-1.10619e-07
-1.05428e-07
1.24952e-06
6.06923e-07
0.00108453
-5.9597e-07
9.08428e-07
-3.47556e-08
4.87471e-07
-7.56751e-07
-1.55842e-07
-1.37137e-06
1.21575e-06
-0.00108673
5.88224e-07
-1.53179e-06
-2.27372e-08
-5.85436e-07
-1.3661e-06
-1.34753e-07
5.03603e-07
-7.46283e-07
9.25994e-07
0.00108802
1.21582e-06
-0.00108687
5.8809e-07
-1.52675e-06
-2.01253e-08
-5.88657e-07
-1.36819e-06
-1.3451e-07
-7.46161e-07
5.06167e-07
-0.00026535
-1.10389e-07
-1.07661e-07
1.57449e-06
1.53331e-06
-6.16736e-07
-6.1979e-07
0.000265657
-9.97085e-07
-9.54997e-07
0.000268532
-0.000266402
-9.16317e-08
-8.63501e-08
5.8376e-07
0.00108862
-5.91452e-07
9.81635e-07
-1.13702e-08
5.15168e-07
-7.42979e-07
-1.3702e-06
-1.28083e-07
-1.56934e-06
1.20469e-06
5.83663e-07
0.0010887
-5.91635e-07
9.76403e-07
-1.12314e-08
5.15049e-07
-7.42836e-07
-1.37e-06
-1.27959e-07
0.00109194
1.17549e-06
-0.00109085
5.6941e-07
-1.57115e-06
-5.47503e-10
-5.86441e-07
-1.36758e-06
-1.09084e-07
-7.33629e-07
5.33222e-07
9.91605e-07
0.00109202
1.17536e-06
-0.00109092
5.69414e-07
-1.56596e-06
-9.41659e-10
-5.86512e-07
-1.36697e-06
-1.09008e-07
-7.33542e-07
5.332e-07
-6.17224e-07
-6.21983e-07
0.000265647
-9.54687e-07
0.000268513
-0.000266394
-8.92809e-08
-8.39214e-08
5.82752e-07
0.00108957
-5.8641e-07
9.39613e-07
-1.59803e-08
5.1501e-07
-7.45798e-07
-1.37013e-06
-1.25503e-07
-1.56414e-06
1.20469e-06
5.8374e-07
0.00108858
-5.9193e-07
9.71014e-07
-1.12771e-08
5.14938e-07
-7.40178e-07
-1.37014e-06
-1.30288e-07
0.00109289
1.17635e-06
-0.0010918
5.68582e-07
-1.52975e-06
-4.75637e-09
-5.81349e-07
-1.3675e-06
-1.06548e-07
-7.36494e-07
5.33224e-07
9.86169e-07
0.0010919
1.17516e-06
-0.00109081
5.693e-07
-1.5605e-06
-7.85295e-10
-5.86071e-07
-1.36685e-06
-1.11442e-07
-7.30855e-07
5.33535e-07
1.20442e-06
5.83584e-07
0.00108822
-5.88615e-07
9.67895e-07
-1.39152e-08
5.06812e-07
-7.37448e-07
-1.3301e-07
-1.36181e-06
1.17622e-06
-0.00109137
5.73931e-07
-1.52946e-06
-4.91977e-09
-5.80982e-07
-1.36186e-06
-1.09167e-07
5.27825e-07
-7.33743e-07
9.83714e-07
0.00109153
1.17515e-06
-0.00109044
5.69382e-07
-1.55776e-06
-2.36642e-09
-5.83739e-07
-1.35909e-06
-1.13998e-07
-7.28147e-07
5.25013e-07
-6.1756e-07
-6.22312e-07
0.000265631
-9.51988e-07
0.000268489
-0.000266378
-8.90039e-08
-8.38205e-08
1.2054e-06
5.82701e-07
0.00108916
-5.86248e-07
9.31265e-07
-1.62235e-08
5.12101e-07
-7.42924e-07
-1.27867e-07
-1.36736e-06
1.17593e-06
-0.00109124
5.68515e-07
-1.52665e-06
-6.93403e-09
-5.77836e-07
-1.36192e-06
-1.09154e-07
5.27822e-07
-7.3368e-07
9.46904e-07
0.00109247
1.17604e-06
-0.00109138
5.68471e-07
-1.52178e-06
-4.43225e-09
-5.81413e-07
-1.36396e-06
-1.08947e-07
-7.33621e-07
5.30351e-07
-0.000266355
-8.87267e-08
-8.5976e-08
1.57029e-06
1.52873e-06
-6.02155e-07
-6.0777e-07
0.000266643
-1.01469e-06
-9.72448e-07
0.000269472
-0.000267342
-7.38119e-08
-6.83228e-08
5.64932e-07
0.00109302
-5.84891e-07
1.00189e-06
4.95826e-09
5.3899e-07
-7.30855e-07
-1.36609e-06
-1.03332e-07
-1.56514e-06
1.16583e-06
5.64806e-07
0.0010931
-5.85214e-07
9.96738e-07
5.36923e-09
5.39017e-07
-7.30676e-07
-1.36609e-06
-1.03172e-07
0.00109618
1.14042e-06
-0.00109514
5.54414e-07
-1.5691e-06
1.80417e-08
-5.82504e-07
-1.36177e-06
-8.6774e-08
-7.22967e-07
5.53423e-07
1.00917e-06
0.00109626
1.14027e-06
-0.00109522
5.54346e-07
-1.56381e-06
1.76019e-08
-5.82244e-07
-1.36379e-06
-8.6743e-08
-7.22904e-07
5.55846e-07
-6.05396e-07
-6.10122e-07
0.000266635
-9.7209e-07
0.000269453
-0.000267334
-7.14574e-08
-6.59053e-08
5.64361e-07
0.00109397
-5.79656e-07
9.59836e-07
-1.5466e-09
5.38871e-07
-7.33684e-07
-1.36604e-06
-1.00724e-07
-1.56005e-06
1.16602e-06
5.65012e-07
0.00109298
-5.85697e-07
9.91201e-07
5.00077e-09
5.38904e-07
-7.28046e-07
-1.36625e-06
-1.05565e-07
0.00109714
1.14167e-06
-0.00109609
5.53635e-07
-1.52756e-06
1.18406e-08
-5.77236e-07
-1.36423e-06
-8.40583e-08
-7.25697e-07
5.56265e-07
1.00395e-06
0.00109614
1.13997e-06
-0.0010951
5.54098e-07
-1.55831e-06
1.82051e-08
-5.81893e-07
-1.36353e-06
-8.92577e-08
-7.20233e-07
5.56038e-07
1.16595e-06
5.65037e-07
0.00109261
-5.81801e-07
9.88129e-07
6.62094e-10
5.3065e-07
-7.25288e-07
-1.08175e-07
-1.35783e-06
1.14153e-06
-0.00109566
5.58914e-07
-1.5272e-06
1.15706e-08
-5.76551e-07
-1.35851e-06
-8.67182e-08
5.50794e-07
-7.22973e-07
1.00125e-06
0.00109577
1.14017e-06
-0.00109473
5.54284e-07
-1.55568e-06
1.53926e-08
-5.80088e-07
-1.35555e-06
-9.16783e-08
-7.17343e-07
5.47944e-07
-6.0584e-07
-6.10642e-07
0.000266619
-9.69581e-07
0.000269429
-0.000267319
-7.09645e-08
-6.54042e-08
1.16701e-06
5.64253e-07
0.00109355
-5.79379e-07
9.51401e-07
-1.69045e-09
5.36137e-07
-7.30767e-07
-1.0301e-07
-1.36342e-06
1.14144e-06
-0.00109553
5.53534e-07
-1.52435e-06
8.97453e-09
-5.73406e-07
-1.35834e-06
-8.66655e-08
5.50769e-07
-7.22861e-07
9.64366e-07
0.00109672
1.14143e-06
-0.00109567
5.53406e-07
-1.51958e-06
1.22627e-08
-5.77685e-07
-1.3605e-06
-8.65642e-08
-7.22725e-07
5.5317e-07
-0.000267295
-7.09137e-08
-6.80699e-08
1.569e-06
1.52742e-06
-5.93743e-07
-5.99334e-07
0.000267568
-1.03027e-06
-9.87909e-07
0.000270354
-0.000268224
-5.81762e-08
-5.2682e-08
5.51239e-07
0.00109721
-5.81606e-07
1.01882e-06
2.25489e-08
5.58679e-07
-7.20499e-07
-1.36033e-06
-8.18721e-08
-1.56391e-06
1.13226e-06
5.51171e-07
0.00109729
-5.82255e-07
1.01359e-06
2.27258e-08
5.61624e-07
-7.20315e-07
-1.36296e-06
-8.16311e-08
0.00110023
1.11083e-06
-0.00109924
5.43066e-07
-1.56922e-06
3.2784e-08
-5.80268e-07
-1.35905e-06
-6.72602e-08
-7.13378e-07
5.74961e-07
1.0249e-06
0.00110031
1.11059e-06
-0.00109931
5.42806e-07
-1.56387e-06
3.30038e-08
-5.79878e-07
-1.36373e-06
-6.72734e-08
-7.13333e-07
5.80001e-07
-5.97253e-07
-6.01981e-07
0.000267561
-9.87734e-07
0.000270332
-0.000268217
-5.5428e-08
-4.71354e-08
5.50341e-07
0.00109817
-5.76345e-07
9.76585e-07
1.65282e-08
5.61338e-07
-7.2325e-07
-1.36281e-06
-7.91661e-08
-1.55859e-06
1.13242e-06
5.51225e-07
0.00109717
-5.82465e-07
1.00806e-06
2.20635e-08
5.61532e-07
-7.17731e-07
-1.36334e-06
-8.39397e-08
0.00110119
1.11182e-06
-0.0011002
5.42142e-07
-1.5275e-06
2.68383e-08
-5.74963e-07
-1.36164e-06
-6.70274e-08
-7.13446e-07
5.7776e-07
1.01967e-06
0.00110019
1.11034e-06
-0.0010992
5.48107e-07
-1.55849e-06
3.35193e-08
-5.80075e-07
-1.36087e-06
-6.9669e-08
-7.10546e-07
5.77721e-07
1.13225e-06
5.51016e-07
0.0010968
-5.782e-07
1.00512e-06
1.92262e-08
5.52941e-07
-7.1502e-07
-8.66456e-08
-1.35498e-06
1.11155e-06
-0.00109976
5.47311e-07
-1.52706e-06
2.72512e-08
-5.74145e-07
-1.35583e-06
-6.72576e-08
5.72383e-07
-7.1335e-07
1.01663e-06
0.00109982
1.11059e-06
-0.00109883
5.43017e-07
-1.5558e-06
2.97383e-08
-5.77933e-07
-1.35285e-06
-7.2077e-08