/*--------------------------------*- C++ -*----------------------------------*\
| =========                 |                                                 |
| \\      /  F ield         | OpenFOAM: The Open Source CFD Toolbox           |
|  \\    /   O peration     | Version:                                        |
|   \\  /    A nd           | Website:  www.openfoam.com                      |
|    \\/     M anipulation  |                                                 |
\*---------------------------------------------------------------------------*/
FoamFile
{
    version     2.0;
    format      ascii;
    class       volScalarField;
    location    "7850.5";
    object      p;
}
// * * * * * * * * * * * * * * * * * * * * * * * * * * * * * * * * * * * * * //

dimensions      [0 2 -2 0 0 0 0];


internalField   nonuniform List<scalar> 
247096
(
1.44074e-07
1.44077e-07
1.4422e-07
1.44307e-07
1.4434e-07
1.44298e-07
1.44207e-07
1.44053e-07
1.44077e-07
1.44275e-07
1.44452e-07
1.44545e-07
1.44569e-07
1.44538e-07
1.44434e-07
1.44251e-07
1.4422e-07
1.44452e-07
1.44593e-07
1.44635e-07
1.44642e-07
1.44633e-07
1.44583e-07
1.44425e-07
1.44193e-07
1.44307e-07
1.44545e-07
1.44635e-07
1.44646e-07
1.44645e-07
1.44647e-07
1.4463e-07
1.44523e-07
1.44274e-07
1.44074e-07
1.4434e-07
1.44569e-07
1.44642e-07
1.44645e-07
1.44641e-07
1.44646e-07
1.44638e-07
1.44549e-07
1.44305e-07
1.44298e-07
1.44538e-07
1.44633e-07
1.44647e-07
1.44646e-07
1.44646e-07
1.44627e-07
1.44516e-07
1.44265e-07
1.44207e-07
1.44434e-07
1.44583e-07
1.4463e-07
1.44638e-07
1.44627e-07
1.44571e-07
1.44406e-07
1.44181e-07
1.44053e-07
1.44251e-07
1.44425e-07
1.44523e-07
1.44549e-07
1.44516e-07
1.44406e-07
1.44229e-07
1.44193e-07
1.44274e-07
1.44305e-07
1.44265e-07
1.44181e-07
1.41321e-07
1.41295e-07
1.41305e-07
1.4115e-07
1.41158e-07
1.41174e-07
1.41157e-07
1.41349e-07
1.41296e-07
1.41305e-07
1.41166e-07
1.40982e-07
1.41002e-07
1.41002e-07
1.40982e-07
1.41228e-07
1.41177e-07
1.4115e-07
1.40982e-07
1.41018e-07
1.41038e-07
1.41038e-07
1.41018e-07
1.40982e-07
1.41298e-07
1.41344e-07
1.41321e-07
1.41158e-07
1.41002e-07
1.41038e-07
1.41057e-07
1.41057e-07
1.41038e-07
1.41002e-07
1.41328e-07
1.41358e-07
1.41295e-07
1.41174e-07
1.41002e-07
1.41038e-07
1.41057e-07
1.41057e-07
1.41038e-07
1.41002e-07
1.4133e-07
1.41181e-07
1.41157e-07
1.40982e-07
1.41018e-07
1.41038e-07
1.41038e-07
1.41018e-07
1.40982e-07
1.4132e-07
1.41366e-07
1.41349e-07
1.41228e-07
1.40982e-07
1.41002e-07
1.41002e-07
1.40982e-07
1.41319e-07
1.41234e-07
1.4135e-07
1.41296e-07
1.41177e-07
1.41298e-07
1.41328e-07
1.4133e-07
1.4132e-07
1.41234e-07
1.41364e-07
1.41344e-07
1.41358e-07
1.41181e-07
1.41366e-07
1.4135e-07
1.39671e-07
1.3966e-07
1.3967e-07
1.39536e-07
1.39534e-07
1.39541e-07
1.39536e-07
1.39697e-07
1.39665e-07
1.3967e-07
1.39531e-07
1.39319e-07
1.39326e-07
1.39326e-07
1.39319e-07
1.3956e-07
1.39555e-07
1.39536e-07
1.39319e-07
1.3934e-07
1.39345e-07
1.39345e-07
1.3934e-07
1.39319e-07
1.39609e-07
1.39695e-07
1.39671e-07
1.39534e-07
1.39326e-07
1.39345e-07
1.39351e-07
1.39351e-07
1.39345e-07
1.39326e-07
1.39614e-07
1.39689e-07
1.3966e-07
1.39541e-07
1.39326e-07
1.39345e-07
1.39351e-07
1.39351e-07
1.39345e-07
1.39326e-07
1.39612e-07
1.3956e-07
1.39536e-07
1.39319e-07
1.3934e-07
1.39345e-07
1.39345e-07
1.3934e-07
1.39319e-07
1.39613e-07
1.39695e-07
1.39697e-07
1.3956e-07
1.39319e-07
1.39326e-07
1.39326e-07
1.39319e-07
1.39593e-07
1.39582e-07
1.39701e-07
1.39665e-07
1.39555e-07
1.39609e-07
1.39614e-07
1.39612e-07
1.39613e-07
1.39582e-07
1.39709e-07
1.39695e-07
1.39689e-07
1.3956e-07
1.39695e-07
1.39701e-07
1.38147e-07
1.38136e-07
1.38145e-07
1.38014e-07
1.3801e-07
1.38017e-07
1.38013e-07
1.38171e-07
1.38141e-07
1.38145e-07
1.38011e-07
1.37814e-07
1.37816e-07
1.37816e-07
1.37814e-07
1.38042e-07
1.38034e-07
1.38014e-07
1.37814e-07
1.37823e-07
1.37822e-07
1.37822e-07
1.37823e-07
1.37814e-07
1.38092e-07
1.38172e-07
1.38147e-07
1.3801e-07
1.37816e-07
1.37822e-07
1.37822e-07
1.37822e-07
1.37822e-07
1.37816e-07
1.38093e-07
1.38166e-07
1.38136e-07
1.38017e-07
1.37816e-07
1.37822e-07
1.37822e-07
1.37822e-07
1.37822e-07
1.37816e-07
1.3809e-07
1.38039e-07
1.38013e-07
1.37814e-07
1.37823e-07
1.37822e-07
1.37822e-07
1.37823e-07
1.37814e-07
1.38092e-07
1.38172e-07
1.38171e-07
1.38042e-07
1.37814e-07
1.37816e-07
1.37816e-07
1.37814e-07
1.38075e-07
1.38061e-07
1.38176e-07
1.38141e-07
1.38034e-07
1.38092e-07
1.38093e-07
1.3809e-07
1.38092e-07
1.38061e-07
1.38185e-07
1.38172e-07
1.38166e-07
1.38039e-07
1.38172e-07
1.38176e-07
1.36643e-07
1.36632e-07
1.36642e-07
1.3651e-07
1.36506e-07
1.36513e-07
1.36509e-07
1.36668e-07
1.36638e-07
1.36642e-07
1.36508e-07
1.36311e-07
1.36312e-07
1.36312e-07
1.36311e-07
1.36539e-07
1.36531e-07
1.3651e-07
1.36311e-07
1.36316e-07
1.36315e-07
1.36315e-07
1.36316e-07
1.36311e-07
1.36589e-07
1.36669e-07
1.36643e-07
1.36506e-07
1.36312e-07
1.36315e-07
1.36314e-07
1.36314e-07
1.36315e-07
1.36312e-07
1.36589e-07
1.36663e-07
1.36632e-07
1.36513e-07
1.36312e-07
1.36315e-07
1.36314e-07
1.36314e-07
1.36315e-07
1.36312e-07
1.36587e-07
1.36536e-07
1.36509e-07
1.36311e-07
1.36316e-07
1.36315e-07
1.36315e-07
1.36316e-07
1.36311e-07
1.36588e-07
1.36669e-07
1.36668e-07
1.36539e-07
1.36311e-07
1.36312e-07
1.36312e-07
1.36311e-07
1.36572e-07
1.36558e-07
1.36673e-07
1.36638e-07
1.36531e-07
1.36589e-07
1.36589e-07
1.36587e-07
1.36588e-07
1.36558e-07
1.36682e-07
1.36669e-07
1.36663e-07
1.36536e-07
1.36669e-07
1.36673e-07
1.35136e-07
1.35125e-07
1.35135e-07
1.35002e-07
1.34998e-07
1.35005e-07
1.35001e-07
1.3516e-07
1.3513e-07
1.35135e-07
1.34999e-07
1.34801e-07
1.34802e-07
1.34802e-07
1.34801e-07
1.3503e-07
1.35023e-07
1.35002e-07
1.34801e-07
1.34806e-07
1.34804e-07
1.34804e-07
1.34806e-07
1.34801e-07
1.35081e-07
1.35161e-07
1.35136e-07
1.34998e-07
1.34802e-07
1.34804e-07
1.34803e-07
1.34803e-07
1.34804e-07
1.34802e-07
1.35081e-07
1.35155e-07
1.35125e-07
1.35005e-07
1.34802e-07
1.34804e-07
1.34803e-07
1.34803e-07
1.34804e-07
1.34802e-07
1.35078e-07
1.35028e-07
1.35001e-07
1.34801e-07
1.34806e-07
1.34804e-07
1.34804e-07
1.34806e-07
1.34801e-07
1.3508e-07
1.35161e-07
1.3516e-07
1.3503e-07
1.34801e-07
1.34802e-07
1.34802e-07
1.34801e-07
1.35063e-07
1.3505e-07
1.35166e-07
1.3513e-07
1.35023e-07
1.35081e-07
1.35081e-07
1.35078e-07
1.3508e-07
1.3505e-07
1.35175e-07
1.35161e-07
1.35155e-07
1.35028e-07
1.35161e-07
1.35166e-07
1.33626e-07
1.33614e-07
1.33625e-07
1.33492e-07
1.33488e-07
1.33495e-07
1.3349e-07
1.3365e-07
1.3362e-07
1.33625e-07
1.33489e-07
1.33291e-07
1.33291e-07
1.33291e-07
1.33291e-07
1.3352e-07
1.33512e-07
1.33492e-07
1.33291e-07
1.33296e-07
1.33293e-07
1.33293e-07
1.33296e-07
1.33291e-07
1.3357e-07
1.33651e-07
1.33626e-07
1.33488e-07
1.33291e-07
1.33293e-07
1.33292e-07
1.33292e-07
1.33293e-07
1.33291e-07
1.33571e-07
1.33645e-07
1.33614e-07
1.33495e-07
1.33291e-07
1.33293e-07
1.33292e-07
1.33292e-07
1.33293e-07
1.33291e-07
1.33568e-07
1.33517e-07
1.3349e-07
1.33291e-07
1.33296e-07
1.33293e-07
1.33293e-07
1.33296e-07
1.33291e-07
1.3357e-07
1.33651e-07
1.3365e-07
1.3352e-07
1.33291e-07
1.33291e-07
1.33291e-07
1.33291e-07
1.33553e-07
1.3354e-07
1.33656e-07
1.3362e-07
1.33512e-07
1.3357e-07
1.33571e-07
1.33568e-07
1.3357e-07
1.3354e-07
1.33664e-07
1.33651e-07
1.33645e-07
1.33517e-07
1.33651e-07
1.33656e-07
1.32115e-07
1.32104e-07
1.32114e-07
1.31981e-07
1.31977e-07
1.31984e-07
1.31979e-07
1.32139e-07
1.32109e-07
1.32114e-07
1.31978e-07
1.3178e-07
1.31781e-07
1.31781e-07
1.3178e-07
1.32009e-07
1.32002e-07
1.31981e-07
1.3178e-07
1.31785e-07
1.31783e-07
1.31783e-07
1.31785e-07
1.3178e-07
1.3206e-07
1.3214e-07
1.32115e-07
1.31977e-07
1.31781e-07
1.31783e-07
1.31782e-07
1.31782e-07
1.31783e-07
1.31781e-07
1.3206e-07
1.32134e-07
1.32104e-07
1.31984e-07
1.31781e-07
1.31783e-07
1.31782e-07
1.31782e-07
1.31783e-07
1.31781e-07
1.32057e-07
1.32007e-07
1.31979e-07
1.3178e-07
1.31785e-07
1.31783e-07
1.31783e-07
1.31785e-07
1.3178e-07
1.32059e-07
1.3214e-07
1.32139e-07
1.32009e-07
1.3178e-07
1.31781e-07
1.31781e-07
1.3178e-07
1.32042e-07
1.32029e-07
1.32145e-07
1.32109e-07
1.32002e-07
1.3206e-07
1.3206e-07
1.32057e-07
1.32059e-07
1.32029e-07
1.32154e-07
1.3214e-07
1.32134e-07
1.32007e-07
1.3214e-07
1.32145e-07
1.30604e-07
1.30593e-07
1.30603e-07
1.3047e-07
1.30466e-07
1.30473e-07
1.30469e-07
1.30628e-07
1.30598e-07
1.30603e-07
1.30467e-07
1.30269e-07
1.3027e-07
1.3027e-07
1.30269e-07
1.30498e-07
1.30491e-07
1.3047e-07
1.30269e-07
1.30274e-07
1.30272e-07
1.30272e-07
1.30274e-07
1.30269e-07
1.30549e-07
1.30629e-07
1.30604e-07
1.30466e-07
1.3027e-07
1.30272e-07
1.30271e-07
1.30271e-07
1.30272e-07
1.3027e-07
1.30549e-07
1.30623e-07
1.30593e-07
1.30473e-07
1.3027e-07
1.30272e-07
1.30271e-07
1.30271e-07
1.30272e-07
1.3027e-07
1.30546e-07
1.30496e-07
1.30469e-07
1.30269e-07
1.30274e-07
1.30272e-07
1.30272e-07
1.30274e-07
1.30269e-07
1.30548e-07
1.30629e-07
1.30628e-07
1.30498e-07
1.30269e-07
1.3027e-07
1.3027e-07
1.30269e-07
1.30531e-07
1.30518e-07
1.30634e-07
1.30598e-07
1.30491e-07
1.30549e-07
1.30549e-07
1.30546e-07
1.30548e-07
1.30518e-07
1.30643e-07
1.30629e-07
1.30623e-07
1.30496e-07
1.30629e-07
1.30634e-07
1.29093e-07
1.29082e-07
1.29092e-07
1.28959e-07
1.28955e-07
1.28962e-07
1.28958e-07
1.29118e-07
1.29088e-07
1.29092e-07
1.28956e-07
1.28758e-07
1.28759e-07
1.28759e-07
1.28758e-07
1.28987e-07
1.2898e-07
1.28959e-07
1.28758e-07
1.28763e-07
1.28761e-07
1.28761e-07
1.28763e-07
1.28758e-07
1.29038e-07
1.29119e-07
1.29093e-07
1.28955e-07
1.28759e-07
1.28761e-07
1.2876e-07
1.2876e-07
1.28761e-07
1.28759e-07
1.29038e-07
1.29112e-07
1.29082e-07
1.28962e-07
1.28759e-07
1.28761e-07
1.2876e-07
1.2876e-07
1.28761e-07
1.28759e-07
1.29035e-07
1.28985e-07
1.28958e-07
1.28758e-07
1.28763e-07
1.28761e-07
1.28761e-07
1.28763e-07
1.28758e-07
1.29037e-07
1.29118e-07
1.29118e-07
1.28987e-07
1.28758e-07
1.28759e-07
1.28759e-07
1.28758e-07
1.29021e-07
1.29007e-07
1.29123e-07
1.29088e-07
1.2898e-07
1.29038e-07
1.29038e-07
1.29035e-07
1.29037e-07
1.29007e-07
1.29132e-07
1.29119e-07
1.29112e-07
1.28985e-07
1.29118e-07
1.29123e-07
1.27582e-07
1.27571e-07
1.27581e-07
1.27449e-07
1.27445e-07
1.27451e-07
1.27447e-07
1.27607e-07
1.27577e-07
1.27581e-07
1.27446e-07
1.27247e-07
1.27248e-07
1.27248e-07
1.27247e-07
1.27476e-07
1.27469e-07
1.27449e-07
1.27247e-07
1.27252e-07
1.2725e-07
1.2725e-07
1.27252e-07
1.27247e-07
1.27527e-07
1.27608e-07
1.27582e-07
1.27445e-07
1.27248e-07
1.2725e-07
1.27249e-07
1.27249e-07
1.2725e-07
1.27248e-07
1.27527e-07
1.27601e-07
1.27571e-07
1.27451e-07
1.27248e-07
1.2725e-07
1.27249e-07
1.27249e-07
1.2725e-07
1.27248e-07
1.27525e-07
1.27474e-07
1.27447e-07
1.27247e-07
1.27252e-07
1.2725e-07
1.2725e-07
1.27252e-07
1.27247e-07
1.27526e-07
1.27607e-07
1.27607e-07
1.27476e-07
1.27247e-07
1.27248e-07
1.27248e-07
1.27247e-07
1.2751e-07
1.27496e-07
1.27612e-07
1.27577e-07
1.27469e-07
1.27527e-07
1.27527e-07
1.27525e-07
1.27526e-07
1.27496e-07
1.27621e-07
1.27608e-07
1.27601e-07
1.27474e-07
1.27607e-07
1.27612e-07
1.26071e-07
1.2606e-07
1.2607e-07
1.25938e-07
1.25934e-07
1.25941e-07
1.25936e-07
1.26096e-07
1.26066e-07
1.2607e-07
1.25935e-07
1.25736e-07
1.25737e-07
1.25737e-07
1.25736e-07
1.25966e-07
1.25958e-07
1.25938e-07
1.25736e-07
1.25741e-07
1.25739e-07
1.25739e-07
1.25741e-07
1.25736e-07
1.26016e-07
1.26097e-07
1.26071e-07
1.25934e-07
1.25737e-07
1.25739e-07
1.25738e-07
1.25738e-07
1.25739e-07
1.25737e-07
1.26017e-07
1.26091e-07
1.2606e-07
1.25941e-07
1.25737e-07
1.25739e-07
1.25738e-07
1.25738e-07
1.25739e-07
1.25737e-07
1.26014e-07
1.25963e-07
1.25936e-07
1.25736e-07
1.25741e-07
1.25739e-07
1.25739e-07
1.25741e-07
1.25736e-07
1.26016e-07
1.26097e-07
1.26096e-07
1.25966e-07
1.25736e-07
1.25737e-07
1.25737e-07
1.25736e-07
1.25999e-07
1.25986e-07
1.26101e-07
1.26066e-07
1.25958e-07
1.26016e-07
1.26017e-07
1.26014e-07
1.26016e-07
1.25986e-07
1.2611e-07
1.26097e-07
1.26091e-07
1.25963e-07
1.26097e-07
1.26102e-07
1.24561e-07
1.24549e-07
1.2456e-07
1.24427e-07
1.24423e-07
1.2443e-07
1.24425e-07
1.24585e-07
1.24555e-07
1.2456e-07
1.24424e-07
1.24226e-07
1.24226e-07
1.24226e-07
1.24226e-07
1.24455e-07
1.24447e-07
1.24427e-07
1.24226e-07
1.24231e-07
1.24228e-07
1.24228e-07
1.24231e-07
1.24226e-07
1.24505e-07
1.24586e-07
1.24561e-07
1.24423e-07
1.24226e-07
1.24228e-07
1.24227e-07
1.24227e-07
1.24228e-07
1.24226e-07
1.24506e-07
1.2458e-07
1.24549e-07
1.2443e-07
1.24226e-07
1.24228e-07
1.24227e-07
1.24227e-07
1.24228e-07
1.24226e-07
1.24503e-07
1.24452e-07
1.24425e-07
1.24226e-07
1.24231e-07
1.24228e-07
1.24228e-07
1.24231e-07
1.24226e-07
1.24505e-07
1.24586e-07
1.24585e-07
1.24455e-07
1.24226e-07
1.24226e-07
1.24226e-07
1.24226e-07
1.24488e-07
1.24475e-07
1.24591e-07
1.24555e-07
1.24447e-07
1.24505e-07
1.24506e-07
1.24503e-07
1.24505e-07
1.24475e-07
1.24599e-07
1.24586e-07
1.2458e-07
1.24452e-07
1.24586e-07
1.24591e-07
1.2305e-07
1.23039e-07
1.23049e-07
1.22916e-07
1.22912e-07
1.22919e-07
1.22914e-07
1.23074e-07
1.23044e-07
1.23049e-07
1.22913e-07
1.22715e-07
1.22716e-07
1.22716e-07
1.22715e-07
1.22944e-07
1.22937e-07
1.22916e-07
1.22715e-07
1.2272e-07
1.22718e-07
1.22718e-07
1.2272e-07
1.22715e-07
1.22995e-07
1.23075e-07
1.2305e-07
1.22912e-07
1.22716e-07
1.22718e-07
1.22717e-07
1.22717e-07
1.22718e-07
1.22716e-07
1.22995e-07
1.23069e-07
1.23039e-07
1.22919e-07
1.22716e-07
1.22718e-07
1.22717e-07
1.22717e-07
1.22718e-07
1.22716e-07
1.22992e-07
1.22942e-07
1.22914e-07
1.22715e-07
1.2272e-07
1.22718e-07
1.22718e-07
1.2272e-07
1.22715e-07
1.22994e-07
1.23075e-07
1.23074e-07
1.22944e-07
1.22715e-07
1.22716e-07
1.22716e-07
1.22715e-07
1.22977e-07
1.22964e-07
1.2308e-07
1.23044e-07
1.22937e-07
1.22995e-07
1.22995e-07
1.22992e-07
1.22994e-07
1.22964e-07
1.23089e-07
1.23075e-07
1.23069e-07
1.22942e-07
1.23075e-07
1.2308e-07
1.21539e-07
1.21528e-07
1.21538e-07
1.21405e-07
1.21401e-07
1.21408e-07
1.21404e-07
1.21563e-07
1.21533e-07
1.21538e-07
1.21402e-07
1.21204e-07
1.21205e-07
1.21205e-07
1.21204e-07
1.21433e-07
1.21426e-07
1.21405e-07
1.21204e-07
1.21209e-07
1.21207e-07
1.21207e-07
1.21209e-07
1.21204e-07
1.21484e-07
1.21564e-07
1.21539e-07
1.21401e-07
1.21205e-07
1.21207e-07
1.21206e-07
1.21206e-07
1.21207e-07
1.21205e-07
1.21484e-07
1.21558e-07
1.21528e-07
1.21408e-07
1.21205e-07
1.21207e-07
1.21206e-07
1.21206e-07
1.21207e-07
1.21205e-07
1.21481e-07
1.21431e-07
1.21404e-07
1.21204e-07
1.21209e-07
1.21207e-07
1.21207e-07
1.21209e-07
1.21204e-07
1.21483e-07
1.21564e-07
1.21563e-07
1.21433e-07
1.21204e-07
1.21205e-07
1.21205e-07
1.21204e-07
1.21466e-07
1.21453e-07
1.21569e-07
1.21533e-07
1.21426e-07
1.21484e-07
1.21484e-07
1.21481e-07
1.21483e-07
1.21453e-07
1.21578e-07
1.21564e-07
1.21558e-07
1.21431e-07
1.21564e-07
1.21569e-07
1.20028e-07
1.20017e-07
1.20027e-07
1.19895e-07
1.1989e-07
1.19897e-07
1.19893e-07
1.20053e-07
1.20023e-07
1.20027e-07
1.19891e-07
1.19693e-07
1.19694e-07
1.19694e-07
1.19693e-07
1.19922e-07
1.19915e-07
1.19895e-07
1.19693e-07
1.19698e-07
1.19696e-07
1.19696e-07
1.19698e-07
1.19693e-07
1.19973e-07
1.20054e-07
1.20028e-07
1.1989e-07
1.19694e-07
1.19696e-07
1.19695e-07
1.19695e-07
1.19696e-07
1.19694e-07
1.19973e-07
1.20047e-07
1.20017e-07
1.19897e-07
1.19694e-07
1.19696e-07
1.19695e-07
1.19695e-07
1.19696e-07
1.19694e-07
1.1997e-07
1.1992e-07
1.19893e-07
1.19693e-07
1.19698e-07
1.19696e-07
1.19696e-07
1.19698e-07
1.19693e-07
1.19972e-07
1.20053e-07
1.20053e-07
1.19922e-07
1.19693e-07
1.19694e-07
1.19694e-07
1.19693e-07
1.19956e-07
1.19942e-07
1.20058e-07
1.20023e-07
1.19915e-07
1.19973e-07
1.19973e-07
1.1997e-07
1.19972e-07
1.19942e-07
1.20067e-07
1.20054e-07
1.20047e-07
1.1992e-07
1.20053e-07
1.20058e-07
1.18517e-07
1.18506e-07
1.18516e-07
1.18384e-07
1.1838e-07
1.18386e-07
1.18382e-07
1.18542e-07
1.18512e-07
1.18516e-07
1.18381e-07
1.18182e-07
1.18183e-07
1.18183e-07
1.18182e-07
1.18412e-07
1.18404e-07
1.18384e-07
1.18182e-07
1.18187e-07
1.18185e-07
1.18185e-07
1.18187e-07
1.18182e-07
1.18462e-07
1.18543e-07
1.18517e-07
1.1838e-07
1.18183e-07
1.18185e-07
1.18184e-07
1.18184e-07
1.18185e-07
1.18183e-07
1.18462e-07
1.18536e-07
1.18506e-07
1.18386e-07
1.18183e-07
1.18185e-07
1.18184e-07
1.18184e-07
1.18185e-07
1.18183e-07
1.1846e-07
1.18409e-07
1.18382e-07
1.18182e-07
1.18187e-07
1.18185e-07
1.18185e-07
1.18187e-07
1.18182e-07
1.18461e-07
1.18542e-07
1.18542e-07
1.18412e-07
1.18182e-07
1.18183e-07
1.18183e-07
1.18182e-07
1.18445e-07
1.18431e-07
1.18547e-07
1.18512e-07
1.18404e-07
1.18462e-07
1.18463e-07
1.1846e-07
1.18461e-07
1.18431e-07
1.18556e-07
1.18543e-07
1.18536e-07
1.18409e-07
1.18542e-07
1.18547e-07
1.17006e-07
1.16995e-07
1.17005e-07
1.16873e-07
1.16869e-07
1.16876e-07
1.16871e-07
1.17031e-07
1.17001e-07
1.17005e-07
1.1687e-07
1.16671e-07
1.16672e-07
1.16672e-07
1.16671e-07
1.16901e-07
1.16893e-07
1.16873e-07
1.16672e-07
1.16676e-07
1.16674e-07
1.16674e-07
1.16676e-07
1.16671e-07
1.16951e-07
1.17032e-07
1.17006e-07
1.16869e-07
1.16672e-07
1.16674e-07
1.16673e-07
1.16673e-07
1.16674e-07
1.16672e-07
1.16952e-07
1.17026e-07
1.16995e-07
1.16876e-07
1.16672e-07
1.16674e-07
1.16673e-07
1.16673e-07
1.16674e-07
1.16672e-07
1.16949e-07
1.16898e-07
1.16871e-07
1.16672e-07
1.16676e-07
1.16674e-07
1.16674e-07
1.16676e-07
1.16672e-07
1.16951e-07
1.17032e-07
1.17031e-07
1.16901e-07
1.16672e-07
1.16672e-07
1.16672e-07
1.16672e-07
1.16934e-07
1.16921e-07
1.17037e-07
1.17001e-07
1.16893e-07
1.16951e-07
1.16952e-07
1.16949e-07
1.16951e-07
1.16921e-07
1.17045e-07
1.17032e-07
1.17026e-07
1.16898e-07
1.17032e-07
1.17037e-07
1.15496e-07
1.15484e-07
1.15495e-07
1.15362e-07
1.15358e-07
1.15365e-07
1.1536e-07
1.1552e-07
1.1549e-07
1.15495e-07
1.15359e-07
1.15161e-07
1.15161e-07
1.15161e-07
1.15161e-07
1.1539e-07
1.15382e-07
1.15362e-07
1.15161e-07
1.15166e-07
1.15164e-07
1.15164e-07
1.15166e-07
1.15161e-07
1.1544e-07
1.15521e-07
1.15496e-07
1.15358e-07
1.15161e-07
1.15164e-07
1.15162e-07
1.15162e-07
1.15164e-07
1.15161e-07
1.15441e-07
1.15515e-07
1.15484e-07
1.15365e-07
1.15161e-07
1.15164e-07
1.15162e-07
1.15162e-07
1.15164e-07
1.15161e-07
1.15438e-07
1.15387e-07
1.1536e-07
1.15161e-07
1.15166e-07
1.15164e-07
1.15164e-07
1.15166e-07
1.15161e-07
1.1544e-07
1.15521e-07
1.1552e-07
1.1539e-07
1.15161e-07
1.15161e-07
1.15161e-07
1.15161e-07
1.15423e-07
1.1541e-07
1.15526e-07
1.1549e-07
1.15382e-07
1.1544e-07
1.15441e-07
1.15438e-07
1.1544e-07
1.1541e-07
1.15534e-07
1.15521e-07
1.15515e-07
1.15387e-07
1.15521e-07
1.15526e-07
1.13985e-07
1.13974e-07
1.13984e-07
1.13851e-07
1.13847e-07
1.13854e-07
1.1385e-07
1.14009e-07
1.13979e-07
1.13984e-07
1.13848e-07
1.1365e-07
1.13651e-07
1.13651e-07
1.1365e-07
1.13879e-07
1.13872e-07
1.13851e-07
1.1365e-07
1.13655e-07
1.13653e-07
1.13653e-07
1.13655e-07
1.1365e-07
1.1393e-07
1.1401e-07
1.13985e-07
1.13847e-07
1.13651e-07
1.13653e-07
1.13652e-07
1.13652e-07
1.13653e-07
1.13651e-07
1.1393e-07
1.14004e-07
1.13974e-07
1.13854e-07
1.13651e-07
1.13653e-07
1.13652e-07
1.13652e-07
1.13653e-07
1.13651e-07
1.13927e-07
1.13877e-07
1.1385e-07
1.1365e-07
1.13655e-07
1.13653e-07
1.13653e-07
1.13655e-07
1.1365e-07
1.13929e-07
1.1401e-07
1.14009e-07
1.13879e-07
1.1365e-07
1.13651e-07
1.13651e-07
1.1365e-07
1.13912e-07
1.13899e-07
1.14015e-07
1.13979e-07
1.13872e-07
1.1393e-07
1.1393e-07
1.13927e-07
1.13929e-07
1.13899e-07
1.14024e-07
1.1401e-07
1.14004e-07
1.13877e-07
1.1401e-07
1.14015e-07
1.12474e-07
1.12463e-07
1.12473e-07
1.1234e-07
1.12336e-07
1.12343e-07
1.12339e-07
1.12498e-07
1.12468e-07
1.12473e-07
1.12337e-07
1.12139e-07
1.1214e-07
1.1214e-07
1.12139e-07
1.12368e-07
1.12361e-07
1.1234e-07
1.12139e-07
1.12144e-07
1.12142e-07
1.12142e-07
1.12144e-07
1.12139e-07
1.12419e-07
1.12499e-07
1.12474e-07
1.12336e-07
1.1214e-07
1.12142e-07
1.12141e-07
1.12141e-07
1.12142e-07
1.1214e-07
1.12419e-07
1.12493e-07
1.12463e-07
1.12343e-07
1.1214e-07
1.12142e-07
1.12141e-07
1.12141e-07
1.12142e-07
1.1214e-07
1.12416e-07
1.12366e-07
1.12339e-07
1.12139e-07
1.12144e-07
1.12142e-07
1.12142e-07
1.12144e-07
1.12139e-07
1.12418e-07
1.12499e-07
1.12498e-07
1.12368e-07
1.12139e-07
1.1214e-07
1.1214e-07
1.12139e-07
1.12401e-07
1.12388e-07
1.12504e-07
1.12468e-07
1.12361e-07
1.12419e-07
1.12419e-07
1.12416e-07
1.12418e-07
1.12388e-07
1.12513e-07
1.12499e-07
1.12493e-07
1.12366e-07
1.12499e-07
1.12504e-07
1.10963e-07
1.10952e-07
1.10962e-07
1.1083e-07
1.10825e-07
1.10832e-07
1.10828e-07
1.10988e-07
1.10958e-07
1.10962e-07
1.10827e-07
1.10628e-07
1.10629e-07
1.10629e-07
1.10628e-07
1.10857e-07
1.1085e-07
1.1083e-07
1.10628e-07
1.10633e-07
1.10631e-07
1.10631e-07
1.10633e-07
1.10628e-07
1.10908e-07
1.10989e-07
1.10963e-07
1.10825e-07
1.10629e-07
1.10631e-07
1.1063e-07
1.1063e-07
1.10631e-07
1.10629e-07
1.10908e-07
1.10982e-07
1.10952e-07
1.10832e-07
1.10629e-07
1.10631e-07
1.1063e-07
1.1063e-07
1.10631e-07
1.10629e-07
1.10905e-07
1.10855e-07
1.10828e-07
1.10628e-07
1.10633e-07
1.10631e-07
1.10631e-07
1.10633e-07
1.10628e-07
1.10907e-07
1.10988e-07
1.10988e-07
1.10857e-07
1.10628e-07
1.10629e-07
1.10629e-07
1.10628e-07
1.10891e-07
1.10877e-07
1.10993e-07
1.10958e-07
1.1085e-07
1.10908e-07
1.10908e-07
1.10905e-07
1.10907e-07
1.10877e-07
1.11002e-07
1.10989e-07
1.10982e-07
1.10855e-07
1.10988e-07
1.10993e-07
1.09452e-07
1.09441e-07
1.09451e-07
1.09319e-07
1.09315e-07
1.09321e-07
1.09317e-07
1.09477e-07
1.09447e-07
1.09451e-07
1.09316e-07
1.09117e-07
1.09118e-07
1.09118e-07
1.09117e-07
1.09347e-07
1.09339e-07
1.09319e-07
1.09117e-07
1.09122e-07
1.0912e-07
1.0912e-07
1.09122e-07
1.09117e-07
1.09397e-07
1.09478e-07
1.09452e-07
1.09315e-07
1.09118e-07
1.0912e-07
1.09119e-07
1.09119e-07
1.0912e-07
1.09118e-07
1.09398e-07
1.09471e-07
1.09441e-07
1.09321e-07
1.09118e-07
1.0912e-07
1.09119e-07
1.09119e-07
1.0912e-07
1.09118e-07
1.09395e-07
1.09344e-07
1.09317e-07
1.09117e-07
1.09122e-07
1.0912e-07
1.0912e-07
1.09122e-07
1.09117e-07
1.09396e-07
1.09477e-07
1.09477e-07
1.09347e-07
1.09117e-07
1.09118e-07
1.09118e-07
1.09117e-07
1.0938e-07
1.09366e-07
1.09482e-07
1.09447e-07
1.09339e-07
1.09397e-07
1.09398e-07
1.09395e-07
1.09396e-07
1.09366e-07
1.09491e-07
1.09478e-07
1.09471e-07
1.09344e-07
1.09477e-07
1.09482e-07
1.07941e-07
1.0793e-07
1.0794e-07
1.07808e-07
1.07804e-07
1.07811e-07
1.07806e-07
1.07966e-07
1.07936e-07
1.0794e-07
1.07805e-07
1.07607e-07
1.07607e-07
1.07607e-07
1.07607e-07
1.07836e-07
1.07828e-07
1.07808e-07
1.07607e-07
1.07611e-07
1.07609e-07
1.07609e-07
1.07611e-07
1.07607e-07
1.07886e-07
1.07967e-07
1.07941e-07
1.07804e-07
1.07607e-07
1.07609e-07
1.07608e-07
1.07608e-07
1.07609e-07
1.07607e-07
1.07887e-07
1.07961e-07
1.0793e-07
1.07811e-07
1.07607e-07
1.07609e-07
1.07608e-07
1.07608e-07
1.07609e-07
1.07607e-07
1.07884e-07
1.07833e-07
1.07806e-07
1.07607e-07
1.07611e-07
1.07609e-07
1.07609e-07
1.07611e-07
1.07607e-07
1.07886e-07
1.07967e-07
1.07966e-07
1.07836e-07
1.07607e-07
1.07607e-07
1.07607e-07
1.07607e-07
1.07869e-07
1.07856e-07
1.07972e-07
1.07936e-07
1.07828e-07
1.07886e-07
1.07887e-07
1.07884e-07
1.07886e-07
1.07856e-07
1.0798e-07
1.07967e-07
1.07961e-07
1.07833e-07
1.07967e-07
1.07972e-07
1.06431e-07
1.06419e-07
1.0643e-07
1.06297e-07
1.06293e-07
1.063e-07
1.06295e-07
1.06455e-07
1.06425e-07
1.0643e-07
1.06294e-07
1.06096e-07
1.06096e-07
1.06096e-07
1.06096e-07
1.06325e-07
1.06317e-07
1.06297e-07
1.06096e-07
1.06101e-07
1.06099e-07
1.06099e-07
1.06101e-07
1.06096e-07
1.06375e-07
1.06456e-07
1.06431e-07
1.06293e-07
1.06096e-07
1.06099e-07
1.06097e-07
1.06097e-07
1.06099e-07
1.06096e-07
1.06376e-07
1.0645e-07
1.06419e-07
1.063e-07
1.06096e-07
1.06099e-07
1.06097e-07
1.06097e-07
1.06099e-07
1.06096e-07
1.06373e-07
1.06322e-07
1.06295e-07
1.06096e-07
1.06101e-07
1.06099e-07
1.06099e-07
1.06101e-07
1.06096e-07
1.06375e-07
1.06456e-07
1.06455e-07
1.06325e-07
1.06096e-07
1.06096e-07
1.06096e-07
1.06096e-07
1.06358e-07
1.06345e-07
1.06461e-07
1.06425e-07
1.06317e-07
1.06375e-07
1.06376e-07
1.06373e-07
1.06375e-07
1.06345e-07
1.06469e-07
1.06456e-07
1.0645e-07
1.06322e-07
1.06456e-07
1.06461e-07
1.0492e-07
1.04909e-07
1.04919e-07
1.04786e-07
1.04782e-07
1.04789e-07
1.04785e-07
1.04944e-07
1.04914e-07
1.04919e-07
1.04783e-07
1.04585e-07
1.04586e-07
1.04586e-07
1.04585e-07
1.04814e-07
1.04807e-07
1.04786e-07
1.04585e-07
1.0459e-07
1.04588e-07
1.04588e-07
1.0459e-07
1.04585e-07
1.04865e-07
1.04945e-07
1.0492e-07
1.04782e-07
1.04586e-07
1.04588e-07
1.04587e-07
1.04587e-07
1.04588e-07
1.04586e-07
1.04865e-07
1.04939e-07
1.04909e-07
1.04789e-07
1.04586e-07
1.04588e-07
1.04587e-07
1.04587e-07
1.04588e-07
1.04586e-07
1.04862e-07
1.04812e-07
1.04785e-07
1.04585e-07
1.0459e-07
1.04588e-07
1.04588e-07
1.0459e-07
1.04585e-07
1.04864e-07
1.04945e-07
1.04944e-07
1.04814e-07
1.04585e-07
1.04586e-07
1.04586e-07
1.04585e-07
1.04847e-07
1.04834e-07
1.0495e-07
1.04914e-07
1.04807e-07
1.04865e-07
1.04865e-07
1.04862e-07
1.04864e-07
1.04834e-07
1.04959e-07
1.04945e-07
1.04939e-07
1.04812e-07
1.04945e-07
1.0495e-07
1.03409e-07
1.03398e-07
1.03408e-07
1.03275e-07
1.03271e-07
1.03278e-07
1.03274e-07
1.03434e-07
1.03403e-07
1.03408e-07
1.03272e-07
1.03074e-07
1.03075e-07
1.03075e-07
1.03074e-07
1.03303e-07
1.03296e-07
1.03275e-07
1.03074e-07
1.03079e-07
1.03077e-07
1.03077e-07
1.03079e-07
1.03074e-07
1.03354e-07
1.03434e-07
1.03409e-07
1.03271e-07
1.03075e-07
1.03077e-07
1.03076e-07
1.03076e-07
1.03077e-07
1.03075e-07
1.03354e-07
1.03428e-07
1.03398e-07
1.03278e-07
1.03075e-07
1.03077e-07
1.03076e-07
1.03076e-07
1.03077e-07
1.03075e-07
1.03351e-07
1.03301e-07
1.03274e-07
1.03074e-07
1.03079e-07
1.03077e-07
1.03077e-07
1.03079e-07
1.03074e-07
1.03353e-07
1.03434e-07
1.03433e-07
1.03303e-07
1.03074e-07
1.03075e-07
1.03075e-07
1.03074e-07
1.03336e-07
1.03323e-07
1.03439e-07
1.03403e-07
1.03296e-07
1.03354e-07
1.03354e-07
1.03351e-07
1.03353e-07
1.03323e-07
1.03448e-07
1.03435e-07
1.03428e-07
1.03301e-07
1.03434e-07
1.03439e-07
1.01898e-07
1.01887e-07
1.01897e-07
1.01765e-07
1.0176e-07
1.01767e-07
1.01763e-07
1.01923e-07
1.01893e-07
1.01897e-07
1.01762e-07
1.01563e-07
1.01564e-07
1.01564e-07
1.01563e-07
1.01792e-07
1.01785e-07
1.01765e-07
1.01563e-07
1.01568e-07
1.01566e-07
1.01566e-07
1.01568e-07
1.01563e-07
1.01843e-07
1.01924e-07
1.01898e-07
1.0176e-07
1.01564e-07
1.01566e-07
1.01565e-07
1.01565e-07
1.01566e-07
1.01564e-07
1.01843e-07
1.01917e-07
1.01887e-07
1.01767e-07
1.01564e-07
1.01566e-07
1.01565e-07
1.01565e-07
1.01566e-07
1.01564e-07
1.0184e-07
1.0179e-07
1.01763e-07
1.01563e-07
1.01568e-07
1.01566e-07
1.01566e-07
1.01568e-07
1.01563e-07
1.01842e-07
1.01923e-07
1.01923e-07
1.01792e-07
1.01563e-07
1.01564e-07
1.01564e-07
1.01563e-07
1.01826e-07
1.01812e-07
1.01928e-07
1.01893e-07
1.01785e-07
1.01843e-07
1.01843e-07
1.0184e-07
1.01842e-07
1.01812e-07
1.01937e-07
1.01924e-07
1.01917e-07
1.0179e-07
1.01923e-07
1.01928e-07
1.00387e-07
1.00376e-07
1.00386e-07
1.00254e-07
1.0025e-07
1.00257e-07
1.00252e-07
1.00412e-07
1.00382e-07
1.00386e-07
1.00251e-07
1.00052e-07
1.00053e-07
1.00053e-07
1.00052e-07
1.00282e-07
1.00274e-07
1.00254e-07
1.00052e-07
1.00057e-07
1.00055e-07
1.00055e-07
1.00057e-07
1.00052e-07
1.00332e-07
1.00413e-07
1.00387e-07
1.0025e-07
1.00053e-07
1.00055e-07
1.00054e-07
1.00054e-07
1.00055e-07
1.00053e-07
1.00333e-07
1.00406e-07
1.00376e-07
1.00257e-07
1.00053e-07
1.00055e-07
1.00054e-07
1.00054e-07
1.00055e-07
1.00053e-07
1.0033e-07
1.00279e-07
1.00252e-07
1.00052e-07
1.00057e-07
1.00055e-07
1.00055e-07
1.00057e-07
1.00052e-07
1.00332e-07
1.00413e-07
1.00412e-07
1.00282e-07
1.00052e-07
1.00053e-07
1.00053e-07
1.00052e-07
1.00315e-07
1.00301e-07
1.00417e-07
1.00382e-07
1.00274e-07
1.00332e-07
1.00333e-07
1.0033e-07
1.00332e-07
1.00302e-07
1.00426e-07
1.00413e-07
1.00406e-07
1.00279e-07
1.00413e-07
1.00417e-07
9.88765e-08
9.88653e-08
9.88755e-08
9.87429e-08
9.87388e-08
9.87457e-08
9.87412e-08
9.8901e-08
9.8871e-08
9.88755e-08
9.87399e-08
9.85416e-08
9.85423e-08
9.85423e-08
9.85416e-08
9.87707e-08
9.87633e-08
9.87429e-08
9.85416e-08
9.85465e-08
9.85444e-08
9.85444e-08
9.85465e-08
9.85416e-08
9.88213e-08
9.8902e-08
9.88765e-08
9.87388e-08
9.85423e-08
9.85444e-08
9.85434e-08
9.85434e-08
9.85444e-08
9.85423e-08
9.88217e-08
9.88956e-08
9.88653e-08
9.87457e-08
9.85423e-08
9.85444e-08
9.85434e-08
9.85434e-08
9.85444e-08
9.85423e-08
9.88188e-08
9.87683e-08
9.87412e-08
9.85416e-08
9.85465e-08
9.85444e-08
9.85444e-08
9.85465e-08
9.85416e-08
9.88207e-08
9.89017e-08
9.8901e-08
9.87707e-08
9.85416e-08
9.85423e-08
9.85423e-08
9.85416e-08
9.88039e-08
9.87906e-08
9.89066e-08
9.8871e-08
9.87633e-08
9.88213e-08
9.88217e-08
9.88188e-08
9.88207e-08
9.87907e-08
9.89153e-08
9.8902e-08
9.88956e-08
9.87683e-08
9.89017e-08
9.89066e-08
9.73657e-08
9.73545e-08
9.73647e-08
9.72321e-08
9.7228e-08
9.72348e-08
9.72304e-08
9.73902e-08
9.73601e-08
9.73647e-08
9.72291e-08
9.70307e-08
9.70315e-08
9.70315e-08
9.70307e-08
9.72599e-08
9.72524e-08
9.72321e-08
9.70307e-08
9.70357e-08
9.70336e-08
9.70336e-08
9.70357e-08
9.70307e-08
9.73105e-08
9.73912e-08
9.73657e-08
9.7228e-08
9.70315e-08
9.70336e-08
9.70325e-08
9.70325e-08
9.70336e-08
9.70315e-08
9.73109e-08
9.73848e-08
9.73544e-08
9.72348e-08
9.70315e-08
9.70336e-08
9.70325e-08
9.70325e-08
9.70336e-08
9.70315e-08
9.7308e-08
9.72575e-08
9.72304e-08
9.70307e-08
9.70357e-08
9.70336e-08
9.70336e-08
9.70357e-08
9.70307e-08
9.73099e-08
9.73908e-08
9.73902e-08
9.72599e-08
9.70307e-08
9.70315e-08
9.70315e-08
9.70307e-08
9.72931e-08
9.72798e-08
9.73957e-08
9.73601e-08
9.72524e-08
9.73105e-08
9.73109e-08
9.7308e-08
9.73098e-08
9.72798e-08
9.74045e-08
9.73912e-08
9.73848e-08
9.72575e-08
9.73909e-08
9.73958e-08
9.58548e-08
9.58436e-08
9.58538e-08
9.57212e-08
9.57171e-08
9.5724e-08
9.57196e-08
9.58793e-08
9.58493e-08
9.58538e-08
9.57182e-08
9.55199e-08
9.55207e-08
9.55207e-08
9.55199e-08
9.57491e-08
9.57416e-08
9.57212e-08
9.55199e-08
9.55248e-08
9.55227e-08
9.55227e-08
9.55248e-08
9.55199e-08
9.57996e-08
9.58803e-08
9.58548e-08
9.57171e-08
9.55207e-08
9.55227e-08
9.55217e-08
9.55217e-08
9.55227e-08
9.55207e-08
9.58001e-08
9.58739e-08
9.58436e-08
9.5724e-08
9.55207e-08
9.55227e-08
9.55217e-08
9.55217e-08
9.55227e-08
9.55207e-08
9.57971e-08
9.57467e-08
9.57196e-08
9.55199e-08
9.55248e-08
9.55227e-08
9.55227e-08
9.55248e-08
9.55199e-08
9.5799e-08
9.588e-08
9.58793e-08
9.57491e-08
9.55199e-08
9.55207e-08
9.55207e-08
9.55199e-08
9.57823e-08