/*--------------------------------*- C++ -*----------------------------------*\
| =========                 |                                                 |
| \\      /  F ield         | OpenFOAM: The Open Source CFD Toolbox           |
|  \\    /   O peration     | Version:  2312                                  |
|   \\  /    A nd           | Website:  www.openfoam.com                      |
|    \\/     M anipulation  |                                                 |
\*---------------------------------------------------------------------------*/
FoamFile
{
    version     2.0;
    format      ascii;
    arch        "LSB;label=32;scalar=64";
    class       volScalarField;
    location    "550";
    object      k;
}
// * * * * * * * * * * * * * * * * * * * * * * * * * * * * * * * * * * * * * //

dimensions      [0 2 -2 0 0 0 0];

internalField   nonuniform List<scalar> 
172512
(
3.91942e-05
5.15786e-05
5.15826e-05
5.36678e-05
5.3622e-05
5.15248e-05
5.152e-05
5.36162e-05
5.15223e-05
5.15234e-05
5.15242e-05
5.15241e-05
5.36259e-05
5.15282e-05
5.1522e-05
5.36137e-05
5.3662e-05
5.15792e-05
5.15744e-05
5.36609e-05
5.15767e-05
5.15777e-05
5.15783e-05
5.36644e-05
5.15763e-05
7.34434e-05
6.85733e-05
7.34442e-05
3.90988e-05
3.90985e-05
3.91033e-05
3.91016e-05
7.11957e-05
5.14162e-05
6.47966e-05
6.86285e-05
7.34748e-05
6.86057e-05
7.34992e-05
7.12224e-05
7.12474e-05
6.86269e-05
7.34776e-05
6.86063e-05
7.35e-05
3.91936e-05
3.91987e-05
3.91967e-05
6.07217e-05
6.48323e-05
4.69223e-05
5.16304e-05
6.06833e-05
6.48568e-05
4.69885e-05
7.12238e-05
7.12484e-05
6.07217e-05
4.69254e-05
6.48333e-05
5.16346e-05
6.06832e-05
4.69916e-05
6.48579e-05
6.9967e-05
6.99755e-05
5.36999e-05
6.99818e-05
6.99906e-05
7.11933e-05
7.11963e-05
5.35354e-05
6.99378e-05
6.99458e-05
7.12199e-05
7.11947e-05
7.12229e-05
7.11978e-05
5.35736e-05
6.99627e-05
6.9971e-05
6.99459e-05
6.99541e-05
5.14131e-05
6.47942e-05
6.85785e-05
7.34717e-05
7.34467e-05
6.86031e-05
6.85768e-05
7.34684e-05
7.34436e-05
6.86012e-05
6.06361e-05
5.14699e-05
6.48262e-05
4.68522e-05
6.48002e-05
4.67827e-05
6.06771e-05
6.06345e-05
5.14635e-05
6.48221e-05
4.68499e-05
6.47962e-05
4.678e-05
6.06755e-05
7.12212e-05
7.11959e-05
5.35733e-05
6.99626e-05
6.99631e-05
6.99461e-05
7.12212e-05
6.06267e-05
5.14105e-05
6.47964e-05
4.67098e-05
6.85717e-05
7.34407e-05
6.06251e-05
5.14113e-05
4.67104e-05
6.4792e-05
6.85792e-05
7.34725e-05
7.34494e-05
6.86011e-05
6.06382e-05
5.14675e-05
6.48284e-05
4.68517e-05
6.48021e-05
4.67821e-05
6.06751e-05
6.85776e-05
7.34683e-05
7.3444e-05
6.85994e-05
6.06367e-05
5.14685e-05
4.68523e-05
6.4824e-05
4.67827e-05
6.47983e-05
6.06736e-05
6.4827e-05
4.6853e-05
6.06768e-05
7.34718e-05
6.86e-05
4.68533e-05
6.4823e-05
6.06765e-05
7.34677e-05
6.86008e-05
5.35373e-05
6.99399e-05
6.99376e-05
7.11944e-05
7.12223e-05
7.11973e-05
5.35789e-05
6.99652e-05
6.99628e-05
6.99497e-05
6.99469e-05
7.1221e-05
7.1196e-05
7.34444e-05
6.06356e-05
5.14733e-05
4.68564e-05
6.48282e-05
4.6787e-05
6.48017e-05
6.06769e-05
6.0633e-05
5.14672e-05
4.68538e-05
6.48256e-05
4.67842e-05
6.47996e-05
6.06739e-05
6.85757e-05
7.34727e-05
7.34477e-05
6.85997e-05
6.85722e-05
7.34703e-05
7.34454e-05
6.85959e-05
5.35859e-05
6.9958e-05
6.99668e-05
6.9951e-05
7.12207e-05
7.12235e-05
7.11985e-05
7.12213e-05
7.1246e-05
7.12244e-05
7.12491e-05
6.99707e-05
6.99787e-05
5.37034e-05
6.99865e-05
6.99948e-05
7.12473e-05
7.12505e-05
5.37463e-05
6.9994e-05
7.00021e-05
6.8627e-05
7.34716e-05
6.86039e-05
7.3496e-05
6.07223e-05
6.48316e-05
4.69211e-05
5.16312e-05
6.06833e-05
6.4856e-05
4.69874e-05
6.07207e-05
6.48275e-05
4.69189e-05
5.16263e-05
6.06817e-05
6.4852e-05
4.69851e-05
6.8631e-05
7.35023e-05
6.86294e-05
7.3499e-05
6.0728e-05
5.1683e-05
6.4861e-05
4.70533e-05
6.07263e-05
5.16781e-05
6.4857e-05
4.7051e-05
6.99705e-05
6.9972e-05
5.37004e-05
6.99863e-05
6.99866e-05
7.12226e-05
7.12473e-05
7.12485e-05
5.37442e-05
6.99938e-05
6.99952e-05
7.12486e-05
6.07206e-05
6.48336e-05
4.69207e-05
5.16287e-05
6.06855e-05
6.48582e-05
4.6987e-05
6.86254e-05
7.3473e-05
6.86046e-05
7.34956e-05
6.07191e-05
4.69213e-05
6.48296e-05
5.16298e-05
6.0684e-05
4.69876e-05
6.48538e-05
6.86316e-05
7.3505e-05
6.07299e-05
5.16805e-05
6.48631e-05
4.7053e-05
6.863e-05
7.35007e-05
6.07285e-05
5.16815e-05
4.70536e-05
6.48592e-05
6.86258e-05
7.3475e-05
6.86033e-05
7.34993e-05
6.07216e-05
4.69224e-05
6.48281e-05
5.16303e-05
6.06828e-05
4.69886e-05
6.48529e-05
6.86266e-05
7.34728e-05
6.86037e-05
7.34952e-05
6.07276e-05
5.16822e-05
6.48617e-05
4.70543e-05
6.86288e-05
7.35024e-05
6.07273e-05
5.16821e-05
4.70546e-05
6.48576e-05
6.86292e-05
7.35002e-05
6.99743e-05
6.99717e-05
5.37052e-05
6.9989e-05
6.99866e-05
7.12225e-05
7.12472e-05
7.125e-05
5.37476e-05
6.99977e-05
6.99952e-05
7.12486e-05
6.07191e-05
4.69227e-05
6.48311e-05
5.16282e-05
6.06805e-05
4.69889e-05
6.48553e-05
6.86255e-05
7.3476e-05
6.86029e-05
7.35004e-05
6.86217e-05
7.34735e-05
6.85994e-05
7.34979e-05
6.07276e-05
5.16863e-05
4.70574e-05
6.48628e-05
6.07251e-05
5.168e-05
4.70547e-05
6.48603e-05
6.86284e-05
7.35034e-05
6.8625e-05
7.3501e-05
7.12222e-05
7.12468e-05
7.1225e-05
7.12497e-05
5.37477e-05
6.99904e-05
6.99989e-05
7.12483e-05
7.12511e-05
7.16829e-05
7.97897e-05
7.34323e-05
7.97818e-05
7.16972e-05
7.18503e-05
6.85646e-05
7.15991e-05
7.16288e-05
7.15912e-05
7.16199e-05
7.1861e-05
7.16831e-05
7.97875e-05
7.34353e-05
7.97799e-05
7.16975e-05
7.11838e-05
7.1906e-05
6.86184e-05
7.16857e-05
7.16502e-05
7.16769e-05
7.16429e-05
7.19148e-05
7.17361e-05
7.98173e-05
7.34856e-05
7.17219e-05
7.98247e-05
7.19012e-05
6.8616e-05
7.1663e-05
7.16311e-05
7.18922e-05
7.16719e-05
7.16387e-05
7.17347e-05
7.98358e-05
7.34887e-05
7.98287e-05
7.17488e-05
7.12344e-05
7.12355e-05
7.1906e-05
6.86192e-05
7.16485e-05
7.16857e-05
7.16414e-05
7.1677e-05
7.19149e-05
7.17363e-05
7.98154e-05
7.34864e-05
7.17222e-05
7.98226e-05
7.19014e-05
6.86144e-05
7.16296e-05
7.1663e-05
7.18921e-05
7.1637e-05
7.1672e-05
7.1735e-05
7.98337e-05
7.34913e-05
7.98267e-05
7.17491e-05
7.12354e-05
7.12369e-05
9.50341e-05
7.35519e-05
7.35453e-05
7.35386e-05
7.3532e-05
9.50363e-05
7.41985e-05
6.52876e-05
7.33006e-05
6.99701e-05
7.41939e-05
6.52987e-05
7.33124e-05
7.42462e-05
6.5296e-05
7.33122e-05
6.99788e-05
7.42419e-05
6.53075e-05
7.33209e-05
9.50235e-05
7.35265e-05
7.35199e-05
9.50212e-05
7.35399e-05
7.35332e-05
7.42079e-05
7.33256e-05
6.99789e-05
6.53168e-05
6.53061e-05
7.33139e-05
7.42123e-05
7.42557e-05
7.33344e-05
6.99874e-05
6.53254e-05
6.53144e-05
7.33248e-05
7.426e-05
7.11813e-05
7.11844e-05
9.49852e-05
7.3503e-05
7.34962e-05
7.34895e-05
7.34827e-05
9.49881e-05
7.41518e-05
7.32729e-05
6.99332e-05
6.52425e-05
7.32607e-05
7.4157e-05
6.52317e-05
7.41979e-05
7.32822e-05
6.99413e-05
6.52505e-05
7.327e-05
7.42031e-05
6.52381e-05
7.12081e-05
7.12066e-05
7.12112e-05
7.12096e-05
9.50015e-05
7.35018e-05
7.34951e-05
9.49988e-05
7.35154e-05
7.35086e-05
7.41818e-05
6.52817e-05
6.99584e-05
7.33e-05
7.3288e-05
6.52715e-05
7.41865e-05
7.42279e-05
6.52897e-05
6.99665e-05
7.33094e-05
7.32973e-05
6.5278e-05
7.42326e-05
7.4172e-05
7.32746e-05
6.5252e-05
6.99502e-05
7.41672e-05
7.32865e-05
6.52623e-05
7.42181e-05
7.32839e-05
6.52583e-05
6.99584e-05
7.42132e-05
7.32958e-05
6.52703e-05
9.50122e-05
7.35276e-05
7.35209e-05
7.35142e-05
7.35074e-05
9.50147e-05
7.18734e-05
7.16344e-05
7.16061e-05
6.85894e-05
7.18645e-05
7.16436e-05
7.16141e-05
7.1709e-05
7.34607e-05
7.98133e-05
7.17232e-05
7.98057e-05
7.17103e-05
7.9794e-05
7.34575e-05
7.1696e-05
7.98016e-05
7.18783e-05
6.85922e-05
7.16578e-05
7.16267e-05
7.18877e-05
7.16486e-05
7.16186e-05
7.18745e-05
7.16325e-05
7.15993e-05
6.85878e-05
7.18611e-05
7.16446e-05
7.16103e-05
7.17085e-05
7.34575e-05
7.9795e-05
7.97874e-05
7.17226e-05
7.17097e-05
7.97756e-05
7.34543e-05
7.16955e-05
7.97833e-05
7.18755e-05
6.85905e-05
7.16586e-05
7.16227e-05
7.16468e-05
7.16119e-05
7.18886e-05
7.12092e-05
7.1208e-05
7.4229e-05
6.52857e-05
6.99583e-05
7.33075e-05
6.52747e-05
7.32956e-05
7.42321e-05
7.41821e-05
6.52825e-05
6.99602e-05
7.32993e-05
7.32907e-05
6.52712e-05
7.41852e-05
6.52553e-05
6.99502e-05
6.52664e-05
9.50102e-05
7.35214e-05
7.35281e-05
7.3508e-05
7.35143e-05
9.50117e-05
7.12094e-05
7.18492e-05
6.85631e-05
7.16283e-05
7.1594e-05
7.16194e-05
7.1586e-05
7.18598e-05
7.16812e-05
7.97682e-05
7.34296e-05
7.97604e-05
7.16955e-05
7.18733e-05
7.16046e-05
7.16347e-05
6.85877e-05
7.18643e-05
7.16123e-05
7.16435e-05
7.17093e-05
7.34636e-05
7.98112e-05
7.17235e-05
7.98038e-05
7.17105e-05
7.97921e-05
7.34586e-05
7.16963e-05
7.97994e-05
7.18786e-05
6.85926e-05
7.16249e-05
7.16578e-05
7.18878e-05
7.1617e-05
7.16485e-05
7.18721e-05
7.1634e-05
7.15994e-05
6.85861e-05
7.18631e-05
7.16429e-05
7.16072e-05
7.17074e-05
7.34587e-05
7.97918e-05
7.97844e-05
7.17215e-05
7.17086e-05
7.97725e-05
7.34547e-05
7.16944e-05
7.97801e-05
7.18774e-05
6.85911e-05
7.1657e-05
7.16196e-05
7.1648e-05
7.16118e-05
7.18864e-05
7.17075e-05
7.3461e-05
7.98042e-05
7.98005e-05
7.17223e-05
7.18747e-05
6.85898e-05
7.16215e-05
7.16581e-05
7.1612e-05
7.1646e-05
7.18883e-05
7.17078e-05
7.34588e-05
7.97909e-05
7.97834e-05
7.17219e-05
7.18771e-05
6.85901e-05
7.16583e-05
7.16212e-05
7.16463e-05
7.16103e-05
7.18865e-05
9.4981e-05
7.34964e-05
7.35026e-05
7.3483e-05
7.34891e-05
9.49834e-05
7.41992e-05
7.32791e-05
6.99369e-05
6.52488e-05
7.32704e-05
6.5236e-05
7.4204e-05
7.41509e-05
7.3273e-05
6.99339e-05
6.52444e-05
6.52316e-05
7.32605e-05
7.41565e-05
7.11826e-05
7.12106e-05
7.1209e-05
9.49968e-05
7.34954e-05
7.35015e-05
9.49945e-05
7.35088e-05
7.35149e-05
7.42288e-05
6.52884e-05
6.99622e-05
7.33064e-05
6.52762e-05
7.32977e-05
7.42332e-05
7.4181e-05
6.52836e-05
6.99594e-05
7.32999e-05
7.3288e-05
6.5272e-05
7.41857e-05
7.42189e-05
7.32845e-05
6.52564e-05
6.99529e-05
6.52689e-05
7.42141e-05
7.32929e-05
7.41713e-05
7.32745e-05
6.52521e-05
6.99503e-05
7.41661e-05
7.32864e-05
6.52642e-05
9.50078e-05
7.3521e-05
7.35272e-05
7.35077e-05
7.35138e-05
9.50101e-05
7.12093e-05
7.12078e-05
7.34337e-05
7.18759e-05
7.16029e-05
7.16315e-05
6.85863e-05
7.18623e-05
7.16142e-05
7.16439e-05
7.17093e-05
7.34619e-05
7.98095e-05
7.9802e-05
7.17235e-05
7.17105e-05
7.97901e-05
7.34587e-05
7.16963e-05
7.97979e-05
7.18767e-05
6.85895e-05
7.16265e-05
7.1658e-05
7.16157e-05
7.16459e-05
7.18891e-05
7.18721e-05
7.15968e-05
7.16304e-05
6.85824e-05
7.18628e-05
7.16045e-05
7.16428e-05
7.17084e-05
7.34594e-05
7.97925e-05
7.97852e-05
7.17226e-05
7.17097e-05
7.97735e-05
7.34562e-05
7.16954e-05
7.97809e-05
7.18762e-05
6.85861e-05
7.16169e-05
7.1657e-05
7.16091e-05
7.16448e-05
7.18859e-05
9.49972e-05
7.35155e-05
7.35088e-05
7.41798e-05
6.528e-05
6.99548e-05
7.32989e-05
7.41844e-05
6.52686e-05
7.32868e-05
7.42279e-05
6.52887e-05
6.99634e-05
7.33075e-05
7.42323e-05
6.52769e-05
7.32987e-05
7.417e-05
6.99456e-05
6.52606e-05
7.32847e-05
7.42177e-05
6.52571e-05
6.99544e-05
6.52694e-05
7.32939e-05
9.50081e-05
7.35277e-05
7.35211e-05
9.50104e-05
7.35143e-05
7.35077e-05
7.1209e-05
7.12075e-05
7.12118e-05
7.12103e-05
7.1233e-05
7.12344e-05
7.1236e-05
7.12375e-05
9.50381e-05
7.35519e-05
7.35451e-05
7.35385e-05
7.35317e-05
9.50404e-05
7.42007e-05
6.52906e-05
7.33017e-05
6.99747e-05
7.41962e-05
7.33135e-05
6.53004e-05
7.42468e-05
6.5297e-05
7.33111e-05
6.99829e-05
7.42422e-05
7.33229e-05
6.53083e-05
9.50277e-05
7.35264e-05
7.35196e-05
9.50253e-05
7.35398e-05
7.3533e-05
7.42099e-05
7.33267e-05
6.99825e-05
6.53184e-05
7.3315e-05
7.42143e-05
6.5309e-05
7.42559e-05
7.33361e-05
6.99906e-05
6.53263e-05
7.33243e-05
7.42604e-05
6.53154e-05
7.12589e-05
7.1262e-05
9.50528e-05
7.35505e-05
7.35438e-05
9.50507e-05
7.35638e-05
7.35571e-05
7.42276e-05
7.33281e-05
6.53267e-05
6.99979e-05
7.42233e-05
7.33398e-05
6.53359e-05
7.42736e-05
7.33375e-05
6.53332e-05
7.0006e-05
7.42693e-05
7.33491e-05
6.53438e-05
7.19032e-05
6.86167e-05
7.16867e-05
7.16464e-05
7.16749e-05
7.16359e-05
7.19162e-05
7.17355e-05
7.97989e-05
7.34823e-05
7.17214e-05
7.98064e-05
7.19028e-05
6.86143e-05
7.1661e-05
7.16242e-05
7.16727e-05
7.18893e-05
7.16348e-05
7.17342e-05
7.98175e-05
7.34854e-05
7.98102e-05
7.17482e-05
7.19282e-05
7.16907e-05
7.16544e-05
6.86408e-05
7.19195e-05
7.16997e-05
7.16616e-05
7.17614e-05
7.98397e-05
7.35127e-05
7.17474e-05
7.98467e-05
7.19296e-05
7.1689e-05
7.16477e-05
6.86393e-05
7.19166e-05
7.17006e-05
7.16579e-05
7.17608e-05
7.98213e-05
7.35095e-05
7.17469e-05
7.98285e-05
9.50354e-05
7.35455e-05
7.35519e-05
7.35322e-05
7.35386e-05
9.50372e-05
7.4246e-05
6.52937e-05
7.33093e-05
6.99746e-05
7.3321e-05
7.42427e-05
6.53043e-05
7.41993e-05
6.52904e-05
7.3304e-05
6.9975e-05
6.53012e-05
7.41962e-05
7.33128e-05
9.50245e-05
7.35201e-05
7.35267e-05
7.35335e-05
9.50227e-05
7.354e-05
7.42564e-05
7.33342e-05
6.99823e-05
6.53224e-05
7.33226e-05
6.53121e-05
7.42595e-05
7.421e-05
7.33259e-05
6.99838e-05
6.53193e-05
6.53088e-05
7.33174e-05
7.42129e-05
7.12343e-05
7.12357e-05
7.12603e-05
9.50497e-05
7.35442e-05
7.35505e-05
9.5048e-05
7.35575e-05
7.35637e-05
7.42726e-05
7.33357e-05
6.53299e-05
6.99976e-05
6.53398e-05
7.42696e-05
7.33472e-05
7.42261e-05
7.33306e-05
6.53266e-05
6.9998e-05
7.42233e-05
7.3339e-05
6.53367e-05
7.12601e-05
7.19049e-05
6.86176e-05
7.16852e-05
7.16435e-05
7.16764e-05
7.16363e-05
7.19137e-05
7.17344e-05
7.9796e-05
7.3482e-05
7.17203e-05
7.98032e-05
7.19002e-05
6.86129e-05
7.16623e-05
7.16243e-05
7.16715e-05
7.18908e-05
7.1632e-05
7.17331e-05
7.98144e-05
7.34869e-05
7.98074e-05
7.17472e-05
7.19283e-05
7.16529e-05
7.16908e-05
6.86393e-05
7.19196e-05
7.16601e-05
7.16998e-05
7.17617e-05
7.98378e-05
7.35137e-05
7.17477e-05
7.98446e-05
7.19271e-05
7.16902e-05
7.16478e-05
6.86377e-05
7.19183e-05
7.16992e-05
7.1655e-05
7.17598e-05
7.98185e-05
7.35093e-05
7.17458e-05
7.98254e-05
7.19028e-05
6.86161e-05
7.16453e-05
7.16863e-05
7.16362e-05
7.16742e-05
7.19152e-05
7.17352e-05
7.98121e-05
7.34857e-05
7.98156e-05
7.17204e-05
7.19021e-05
6.86131e-05
7.16244e-05
7.16604e-05
7.16336e-05
7.18892e-05
7.16723e-05
7.17332e-05
7.98268e-05
7.34888e-05
7.98233e-05
7.17479e-05
7.19048e-05
6.86165e-05
7.16864e-05
7.16452e-05
7.16745e-05
7.16348e-05
7.19139e-05
7.17348e-05
7.97949e-05
7.34816e-05
7.17206e-05
7.98023e-05
7.19005e-05
6.8614e-05
7.16607e-05
7.1623e-05
7.18909e-05
7.16724e-05
7.16334e-05
7.17334e-05
7.98134e-05
7.34866e-05
7.98063e-05
7.17475e-05
7.19288e-05
7.16478e-05
7.16884e-05
6.8638e-05
7.19167e-05
7.16564e-05
7.17002e-05
7.17605e-05
7.98343e-05
7.35129e-05
7.17459e-05
7.98377e-05
7.19272e-05
7.16887e-05
7.16466e-05
6.86389e-05
7.19183e-05
7.17002e-05
7.16566e-05
7.17601e-05
7.98173e-05
7.35088e-05
7.17461e-05
7.98244e-05
9.50337e-05
7.35453e-05
7.35514e-05
7.3532e-05
7.35381e-05
9.50358e-05
7.42475e-05
6.52952e-05
7.3311e-05
6.99773e-05
7.33202e-05
7.42429e-05
6.5307e-05
7.42e-05
6.52912e-05
7.33017e-05
6.99748e-05
6.53023e-05
7.41953e-05
7.33134e-05
9.50231e-05
7.35199e-05
7.3526e-05
7.35332e-05
9.50208e-05
7.35394e-05
7.42567e-05
7.3334e-05
6.99861e-05
6.5325e-05
7.33233e-05
6.53137e-05
7.42611e-05
7.42091e-05
7.33267e-05
6.99836e-05
6.53203e-05
6.53096e-05
7.3315e-05
7.42136e-05
7.12342e-05
7.12356e-05
7.12614e-05
9.50483e-05
7.3544e-05
7.35502e-05
9.50463e-05
7.35572e-05
7.35634e-05
7.42744e-05
7.33359e-05
6.53315e-05
7.00005e-05
6.53426e-05
7.42701e-05
7.33475e-05
7.42269e-05
7.33282e-05
6.53274e-05
6.9998e-05
7.42226e-05
7.33397e-05
6.53378e-05
7.12601e-05
7.19039e-05
6.86157e-05
7.16502e-05
7.1686e-05
7.16398e-05
7.1674e-05
7.19169e-05
7.17363e-05
7.98136e-05
7.34867e-05
7.98209e-05
7.17222e-05
7.19035e-05
6.86128e-05
7.16281e-05
7.16602e-05
7.16386e-05
7.18901e-05
7.16721e-05
7.1735e-05
7.9832e-05
7.34898e-05
7.98248e-05
7.1749e-05
7.19037e-05
6.86124e-05
7.16414e-05
7.1685e-05
7.16321e-05
7.16728e-05
7.1913e-05
7.17354e-05
7.97968e-05
7.34842e-05
7.17213e-05
7.9804e-05
7.18995e-05
6.8609e-05
7.16214e-05
7.1659e-05
7.18897e-05
7.16294e-05
7.1671e-05
7.17341e-05
7.98151e-05
7.34873e-05
7.98081e-05
7.17482e-05
7.19303e-05
7.16515e-05
7.16881e-05
6.86378e-05
7.19173e-05
7.16616e-05
7.17e-05
7.17617e-05
7.98359e-05
7.35139e-05
7.17477e-05
7.98428e-05
7.19267e-05
7.16434e-05
7.16869e-05
6.8634e-05
7.19166e-05
7.1653e-05
7.16989e-05
7.17608e-05
7.98191e-05
7.35114e-05
7.17468e-05
7.9826e-05
7.12338e-05
7.12353e-05
7.12366e-05
7.12381e-05
9.50489e-05
7.35507e-05
7.35441e-05
9.50467e-05
7.35639e-05
7.35573e-05
7.42254e-05
7.33271e-05
6.5324e-05
6.99933e-05
7.42212e-05
6.53343e-05
7.33386e-05
7.42731e-05
7.33372e-05
6.53322e-05
7.00019e-05
7.4269e-05
6.53428e-05
7.33479e-05
7.12597e-05
7.12626e-05
3.89039e-05
3.1904e-05
3.22683e-05
3.22658e-05
3.92869e-05
3.23846e-05
3.23823e-05
2.34445e-05
2.33008e-05
6.59942e-05
5.95667e-05
5.95686e-05
5.36585e-05
6.59891e-05
5.95663e-05
5.95672e-05
6.597e-05
5.36193e-05
5.95406e-05
5.95411e-05
5.95367e-05
5.95371e-05
6.59761e-05
6.59693e-05
5.36178e-05
5.95365e-05
5.95399e-05
5.95323e-05
5.95361e-05
6.59748e-05
6.59703e-05
5.36232e-05
5.95412e-05
5.95438e-05
5.95368e-05
5.95395e-05
6.5976e-05
6.59687e-05
5.36292e-05
5.95356e-05
5.95371e-05
6.59743e-05
5.95378e-05
5.95396e-05
6.59964e-05
5.95668e-05
5.95672e-05
5.36619e-05
6.59907e-05
5.95698e-05
5.95704e-05
6.59952e-05
5.9563e-05
5.95664e-05
5.3659e-05
5.95694e-05
6.59898e-05
5.9566e-05
6.59964e-05
5.95662e-05
5.95689e-05
5.36666e-05
5.9573e-05
6.59904e-05
5.95703e-05
3.89081e-05
3.19093e-05
3.90026e-05
3.21492e-05
3.21466e-05
3.20294e-05
3.20266e-05
2.30095e-05
2.31553e-05
3.90026e-05
3.21488e-05
3.21484e-05
3.20291e-05
3.20286e-05
2.30101e-05
2.3156e-05
3.9007e-05
3.21522e-05
3.21523e-05
3.2032e-05
3.20326e-05
2.30136e-05
2.31594e-05
3.90055e-05
3.21534e-05
3.21513e-05
3.2033e-05
3.20317e-05
2.30143e-05
2.31601e-05
6.47852e-05
6.03801e-05
6.03725e-05
3.22678e-05
3.22673e-05
3.92861e-05
3.23841e-05
3.23837e-05
2.34451e-05
2.33014e-05
3.22714e-05
3.22714e-05
3.92915e-05
3.23878e-05
3.23878e-05
2.34485e-05
2.33048e-05
3.22722e-05
3.22704e-05
3.92894e-05
3.23887e-05
3.23866e-05
2.34491e-05
2.33055e-05
3.93789e-05
3.25002e-05
3.24981e-05
2.35878e-05
3.93781e-05
3.24997e-05
3.24992e-05
2.35884e-05
3.93834e-05
3.25036e-05
3.25034e-05
2.35918e-05
3.93815e-05
3.25042e-05
3.25024e-05
2.35924e-05
5.64371e-05
6.07057e-05
6.24061e-05
5.51708e-05
6.23907e-05
5.51685e-05
5.643e-05
5.74837e-05
6.04466e-05
6.42503e-05
6.48421e-05
5.7482e-05
6.0452e-05
6.42609e-05
5.63967e-05
6.06996e-05
6.23707e-05
5.5132e-05
5.64034e-05
6.23861e-05
5.51342e-05
5.75112e-05
6.42784e-05
6.48472e-05
6.04754e-05
6.04703e-05
6.4268e-05
5.75124e-05
5.64387e-05
6.07056e-05
5.51709e-05
6.24091e-05
5.51685e-05
6.2393e-05
5.64323e-05
5.74855e-05
6.04489e-05
6.42522e-05
6.48433e-05
5.74838e-05
6.04541e-05
6.42637e-05
5.63987e-05
6.06995e-05
5.51315e-05
6.23731e-05
5.64049e-05
5.51336e-05
6.23892e-05
5.75134e-05
6.42811e-05
6.48483e-05
6.04772e-05
6.04725e-05
6.42699e-05
5.75145e-05
6.6009e-05
5.37074e-05
5.95954e-05
5.95962e-05
5.95941e-05
5.95959e-05
6.60143e-05
6.59268e-05
5.35323e-05
5.94793e-05
5.94798e-05
6.59333e-05
5.94747e-05
5.94751e-05
6.5955e-05
5.35772e-05
5.95051e-05
5.95053e-05
6.59488e-05
5.95096e-05
5.95099e-05
5.73955e-05
6.42067e-05
6.47835e-05
6.0373e-05
6.41938e-05
6.03733e-05
5.73844e-05
5.63259e-05
6.23293e-05
5.50544e-05
6.06536e-05
5.63346e-05
6.23464e-05
5.50557e-05
5.74554e-05
6.04252e-05
6.4816e-05
6.42446e-05
6.04239e-05
6.4233e-05
5.74496e-05
5.74154e-05
6.4214e-05
6.0399e-05
6.48104e-05
6.03994e-05
5.74261e-05
6.4226e-05
5.637e-05
6.066e-05
6.23678e-05
5.50944e-05
6.23512e-05
5.5092e-05
5.63614e-05
5.63227e-05
6.23246e-05
5.50525e-05
6.0652e-05
5.63288e-05
6.23418e-05
5.50539e-05
5.74455e-05
6.04231e-05
6.4812e-05
6.42368e-05
6.42247e-05
6.0417e-05
5.74471e-05
5.74162e-05
6.4206e-05
6.03911e-05
6.48065e-05
5.7414e-05
6.4218e-05
6.03972e-05
5.63643e-05
6.06584e-05
6.23633e-05
5.50925e-05
6.23463e-05
5.509e-05
5.63579e-05
5.35706e-05
5.95025e-05
5.95052e-05
5.62985e-05
6.0613e-05
6.23201e-05
5.5009e-05
6.23079e-05
5.50261e-05
5.6286e-05
5.73942e-05
6.42048e-05
6.47857e-05
6.03737e-05
6.41944e-05
6.03729e-05
5.7379e-05
5.62954e-05
6.06115e-05
5.50078e-05
6.2316e-05
5.50248e-05
6.23038e-05
5.6283e-05
5.73903e-05
6.41971e-05
6.47818e-05
6.03701e-05
6.41868e-05
5.73753e-05
6.03714e-05
5.63235e-05
6.23311e-05
5.50655e-05
6.06518e-05
5.63366e-05
6.23429e-05
5.50511e-05
5.7456e-05
6.04269e-05
6.48181e-05
6.42431e-05
6.04258e-05
6.42333e-05
5.7444e-05
5.74126e-05
6.42142e-05
6.03994e-05
6.48126e-05
6.03997e-05
5.74257e-05
6.42245e-05
5.63722e-05
6.06619e-05
6.23643e-05
5.50886e-05
6.23525e-05
5.51031e-05
5.63591e-05
5.63207e-05
5.50644e-05
6.23269e-05
6.06502e-05
5.63336e-05
5.50499e-05
6.23389e-05
5.74522e-05
6.04222e-05
6.48143e-05
6.42356e-05
6.42257e-05
6.0423e-05
5.74405e-05
5.74089e-05
6.42067e-05
6.0398e-05
6.48084e-05
5.74219e-05
6.42169e-05
6.03975e-05
5.63694e-05
6.06604e-05
5.50874e-05
6.23602e-05
5.51019e-05
6.23484e-05
5.63565e-05
5.74509e-05
6.04275e-05
6.48168e-05
6.42429e-05
5.74525e-05
6.04215e-05
6.42316e-05
5.63687e-05
6.06597e-05
6.23657e-05
5.50977e-05
5.63621e-05
6.23491e-05
5.50947e-05
5.74473e-05
6.04243e-05
6.48125e-05
6.42368e-05
6.42251e-05
6.04187e-05
5.74458e-05
5.63672e-05
6.06592e-05
5.50978e-05
6.23634e-05
5.5095e-05
6.23467e-05
5.63601e-05
6.59262e-05
5.35342e-05
5.94792e-05
5.94818e-05
5.9477e-05
5.94744e-05
6.59336e-05
6.5955e-05
5.35819e-05
5.95057e-05
5.95084e-05
5.95102e-05
6.59485e-05
5.95129e-05
5.63298e-05
5.50559e-05
6.23294e-05
6.06531e-05
5.63347e-05
5.50593e-05
6.23468e-05
5.74536e-05
6.043e-05
6.48177e-05
6.42457e-05
5.74543e-05
6.04245e-05
6.42335e-05
5.74247e-05
6.42145e-05
6.03988e-05
6.48125e-05
5.74226e-05
6.04046e-05
6.42267e-05
5.63698e-05
6.06599e-05
5.50973e-05
6.23689e-05
5.63644e-05
5.50947e-05
6.23516e-05
5.63224e-05
5.5055e-05
6.23259e-05
6.06503e-05
5.63311e-05
5.50582e-05
6.23379e-05
5.74509e-05
6.04242e-05
6.48156e-05
6.42365e-05
6.42261e-05
6.04247e-05
5.74463e-05
5.74111e-05
6.42077e-05
6.03977e-05
6.48098e-05
5.74218e-05
6.42177e-05
6.03986e-05
5.63665e-05
6.06572e-05
5.50959e-05
6.23594e-05
5.50934e-05
6.2347e-05
5.6358e-05
6.5953e-05
5.35702e-05
5.95093e-05
5.95047e-05
5.95067e-05
6.60107e-05
5.37048e-05
5.95984e-05
5.95992e-05
6.60161e-05
5.9596e-05
5.95964e-05
6.60351e-05
5.3744e-05
5.96245e-05
5.96248e-05
6.60299e-05
5.96265e-05
5.96274e-05
5.64377e-05
6.07059e-05
6.24086e-05
5.51692e-05
6.23927e-05
5.51669e-05
5.64295e-05
5.74799e-05
6.04476e-05
6.42516e-05
6.48412e-05
6.42628e-05
5.74852e-05
6.04492e-05
5.63958e-05
6.07e-05
6.23725e-05
5.5129e-05
6.23885e-05
5.64043e-05
5.51315e-05
5.75152e-05
6.42803e-05
6.48465e-05
6.04723e-05
6.42695e-05
6.04715e-05
5.75098e-05
5.64327e-05
6.07042e-05
6.2404e-05
5.51674e-05
6.23877e-05
5.5165e-05
5.64259e-05
5.74772e-05
6.04418e-05
6.42434e-05
6.48373e-05
5.74757e-05
6.4255e-05
6.04468e-05
5.63921e-05
6.06984e-05
6.23676e-05
5.51271e-05
5.6399e-05
6.2384e-05
5.51296e-05
5.75051e-05
6.42726e-05
6.48425e-05
6.04706e-05
6.42613e-05
5.75065e-05
6.04659e-05
5.64616e-05
6.24127e-05
5.52026e-05
6.07437e-05
5.647e-05
6.2428e-05
5.52042e-05
5.75389e-05
6.42868e-05
6.04942e-05
6.48701e-05
6.04935e-05
5.75438e-05
6.42973e-05
5.6458e-05
6.24077e-05
5.52007e-05
6.07421e-05
5.64653e-05
6.24234e-05
5.52023e-05
5.75349e-05
6.42787e-05
6.04896e-05
6.48661e-05
5.75341e-05
6.42896e-05
6.04926e-05
6.60098e-05
5.37031e-05
5.95946e-05
5.95982e-05
5.95957e-05
5.9593e-05
6.60149e-05
6.6034e-05
5.37409e-05
5.96213e-05
5.96241e-05
5.96228e-05
6.6029e-05
5.96262e-05
5.64393e-05
6.07083e-05
6.24052e-05
5.51627e-05
6.23944e-05
5.51779e-05
5.64268e-05
5.74738e-05
6.04486e-05
6.42516e-05
6.48434e-05
6.42612e-05
5.74861e-05
6.04502e-05
5.63939e-05
6.06985e-05
6.2374e-05
5.51397e-05
6.23855e-05
5.64062e-05
5.51261e-05
5.75163e-05
6.42787e-05
6.48486e-05
6.04735e-05
6.42697e-05
6.04724e-05
5.7504e-05
5.64367e-05
6.07068e-05
5.51614e-05
6.24013e-05
5.51766e-05
6.23903e-05
5.64243e-05
5.74703e-05
6.04469e-05
6.4244e-05
6.48393e-05
5.74823e-05
6.42537e-05
6.04466e-05
5.63913e-05
6.0697e-05
5.51386e-05
6.23699e-05
5.64035e-05
5.51251e-05
6.23815e-05
5.75122e-05
6.42712e-05
6.48448e-05
6.04698e-05
6.42621e-05
5.75013e-05
6.04702e-05
5.64597e-05
6.2414e-05
5.52115e-05
6.0742e-05
5.64719e-05
6.24247e-05
5.51982e-05
5.75326e-05
6.4287e-05
6.04951e-05
6.48723e-05
6.04962e-05
5.75454e-05
6.42957e-05
5.64573e-05
5.52105e-05
6.241e-05
6.07405e-05
5.64693e-05
5.51971e-05
6.24208e-05
5.7532e-05
6.42794e-05
6.04929e-05
6.48682e-05
5.75387e-05
6.42882e-05
6.04932e-05
5.64358e-05
6.07053e-05
5.51705e-05
6.24045e-05
5.51685e-05
6.23886e-05
5.64284e-05
5.74778e-05
6.04429e-05
6.42438e-05
6.48381e-05
6.04482e-05
5.74789e-05
6.42549e-05
5.63948e-05
6.06994e-05
5.51313e-05
6.23683e-05
5.51336e-05
5.64019e-05
6.23843e-05
5.7509e-05
6.42725e-05
6.48431e-05
6.0472e-05
6.04671e-05
6.42618e-05
5.75075e-05
5.64622e-05
6.24107e-05
5.52031e-05
6.07431e-05
5.64697e-05
6.24255e-05
5.52047e-05
5.75392e-05
6.42854e-05
6.04933e-05
6.4871e-05
5.75396e-05
6.04977e-05
6.42954e-05
5.64605e-05
5.52032e-05
6.24086e-05
6.0743e-05
5.64684e-05
5.52031e-05
6.2424e-05
5.75362e-05
6.42792e-05
6.04906e-05
6.4867e-05
5.75384e-05
6.42896e-05
6.04945e-05
6.60106e-05
5.37053e-05
5.95989e-05
5.96016e-05
5.95979e-05
5.95953e-05
6.60161e-05
6.60353e-05
5.37462e-05
5.96237e-05
5.96264e-05
5.96271e-05
6.60299e-05
5.96297e-05
5.64343e-05
6.07031e-05
5.51695e-05
6.24013e-05
5.51673e-05
6.23865e-05
5.64261e-05
5.74751e-05
6.04485e-05
6.4244e-05
6.48407e-05
6.04501e-05
5.74797e-05
6.42548e-05
5.63924e-05
6.06968e-05
5.51298e-05
6.23681e-05
5.51323e-05
5.64009e-05
6.23807e-05
5.75098e-05
6.42725e-05
6.4846e-05
6.04719e-05
6.0471e-05
6.42615e-05
5.75051e-05
5.64642e-05
5.52032e-05
6.24129e-05
6.0743e-05
5.64713e-05
5.52051e-05
6.24284e-05
5.75414e-05
6.42872e-05
6.04961e-05
6.48721e-05
5.75417e-05
6.0499e-05
6.42981e-05
5.64583e-05
5.52027e-05
6.24058e-05
6.07404e-05
5.64666e-05
5.52043e-05
6.24212e-05
5.75343e-05
6.42788e-05
6.04934e-05
6.48696e-05
5.75384e-05
6.42895e-05
6.04941e-05
6.60332e-05
5.37412e-05
5.96229e-05
5.96246e-05
6.60282e-05
5.96246e-05
5.96258e-05
3.95568e-05
5.17806e-05
5.17848e-05
5.38242e-05
3.98921e-05
5.19618e-05
5.1966e-05
5.39679e-05
4.02007e-05
5.21226e-05
5.21269e-05
5.40956e-05
4.04831e-05
5.22637e-05
5.22679e-05
5.42071e-05
4.07401e-05
5.23856e-05
5.23896e-05
5.43033e-05
4.09724e-05
5.24888e-05
5.24928e-05
5.43845e-05
4.11807e-05
5.25743e-05
5.2578e-05
5.44512e-05
4.13659e-05
5.26425e-05
5.26461e-05
5.45039e-05
4.15289e-05
5.26942e-05
5.26977e-05
5.45429e-05
4.16705e-05
5.273e-05
5.27335e-05
5.45695e-05
4.17916e-05
5.27506e-05
5.27541e-05
5.45891e-05
4.18931e-05
5.27568e-05
5.27602e-05
5.45863e-05
4.19757e-05
5.27508e-05
5.27542e-05
5.4576e-05
4.20406e-05
5.27324e-05
5.27357e-05
5.45545e-05
4.20892e-05
5.27022e-05
5.27053e-05
5.4525e-05
4.21223e-05
5.26611e-05
5.26639e-05
5.44868e-05
4.21407e-05
5.26101e-05
5.26128e-05
5.44399e-05
4.21449e-05
5.25501e-05
5.2553e-05
5.43845e-05
4.21112e-05
5.24739e-05
5.2477e-05
5.43102e-05
4.37924e-05
5.05493e-05
5.05524e-05
5.39412e-05
5.37832e-05
5.17322e-05
5.17272e-05
5.37802e-05
5.17298e-05
5.17308e-05
5.17314e-05
5.17312e-05
5.37854e-05
5.17356e-05
5.17292e-05
5.37812e-05
5.3825e-05
5.393e-05
5.17815e-05
5.17764e-05
5.19185e-05
5.19133e-05
5.38226e-05
5.39269e-05
5.1779e-05
5.178e-05
5.19161e-05
5.1917e-05
5.17805e-05
5.19175e-05
5.19174e-05
5.38267e-05
5.3932e-05
5.17784e-05
5.19218e-05
5.19155e-05
5.3929e-05
5.39691e-05
5.40608e-05
5.19628e-05
5.19576e-05
5.20841e-05
5.20789e-05
5.3967e-05
5.40575e-05
5.19604e-05
5.19614e-05
5.20818e-05
5.20827e-05
5.19618e-05
5.20831e-05
5.20831e-05
5.39709e-05
5.40625e-05
5.19598e-05
5.20873e-05
5.20813e-05
5.40601e-05
5.40967e-05
5.41755e-05
5.21237e-05
5.21185e-05
5.22298e-05
5.22245e-05
5.40951e-05
5.41726e-05
5.21214e-05
5.21223e-05
5.22275e-05
5.22284e-05
5.21227e-05
5.22287e-05
5.22288e-05
5.40983e-05
5.41769e-05
5.21209e-05
5.22329e-05
5.2227e-05
5.41746e-05
5.42083e-05
5.42744e-05
5.22648e-05
5.22595e-05
5.23561e-05
5.23508e-05
5.42069e-05
5.4272e-05
5.22625e-05
5.22634e-05
5.23539e-05
5.23547e-05
5.22638e-05
5.23551e-05
5.23551e-05
5.42097e-05
5.42757e-05
5.2262e-05
5.23591e-05
5.23533e-05
5.42735e-05
5.43046e-05
5.43583e-05
5.23866e-05
5.23814e-05
5.24638e-05
5.24585e-05
5.43029e-05
5.43562e-05
5.23844e-05
5.23852e-05
5.24616e-05
5.24624e-05
5.23856e-05
5.24628e-05
5.24627e-05
5.43058e-05
5.43595e-05
5.23838e-05
5.24667e-05
5.24609e-05
5.43574e-05
5.43857e-05
5.44277e-05
5.24898e-05
5.24846e-05
5.25533e-05
5.25481e-05
5.4384e-05
5.44257e-05
5.24877e-05
5.24884e-05
5.25511e-05
5.25519e-05
5.24888e-05
5.25524e-05
5.25522e-05
5.43868e-05
5.44287e-05
5.2487e-05
5.25562e-05
5.25505e-05
5.44267e-05
5.44523e-05
5.44828e-05
5.25752e-05
5.257e-05
5.26254e-05
5.26203e-05
5.44506e-05
5.4481e-05
5.25731e-05
5.25738e-05
5.26233e-05
5.2624e-05
5.25741e-05
5.26246e-05
5.26243e-05
5.44532e-05
5.44838e-05
5.25724e-05
5.26282e-05
5.26226e-05
5.44818e-05
5.45047e-05
5.45243e-05
5.26434e-05
5.26382e-05
5.26809e-05
5.26758e-05
5.45032e-05
5.45226e-05
5.26413e-05
5.26419e-05
5.26788e-05
5.26795e-05
5.26422e-05
5.26801e-05
5.26797e-05
5.45056e-05
5.45253e-05
5.26405e-05
5.26837e-05
5.26781e-05
5.45234e-05
5.45439e-05
5.45527e-05
5.2695e-05
5.26899e-05
5.27207e-05
5.27156e-05
5.45422e-05
5.45513e-05
5.26929e-05
5.26935e-05
5.27187e-05
5.27192e-05
5.26938e-05
5.272e-05
5.27195e-05
5.45445e-05
5.45541e-05
5.26922e-05
5.27234e-05
5.27179e-05
5.45518e-05
5.45704e-05
5.4569e-05
5.27308e-05
5.27257e-05
5.27458e-05
5.27407e-05
5.45682e-05
5.457e-05
5.27288e-05
5.27293e-05
5.27438e-05
5.27443e-05
5.27296e-05
5.2745e-05
5.27446e-05
5.45706e-05
5.45727e-05
5.2728e-05
5.27485e-05
5.2743e-05
5.45675e-05
5.45893e-05
5.45745e-05
5.27514e-05
5.27463e-05
5.27568e-05
5.27517e-05
5.45839e-05
5.45745e-05
5.27494e-05
5.27499e-05
5.27549e-05
5.27553e-05
5.27503e-05
5.27561e-05
5.27557e-05
5.45865e-05
5.45771e-05
5.27487e-05
5.27595e-05
5.27541e-05
5.45743e-05
5.45909e-05
5.45617e-05
5.27575e-05
5.27524e-05
5.27533e-05
5.27481e-05
5.45869e-05
5.45659e-05
5.27556e-05
5.2756e-05
5.27514e-05
5.27518e-05
5.27564e-05
5.27526e-05
5.27521e-05
5.45894e-05
5.45685e-05
5.27548e-05
5.2756e-05
5.27506e-05
5.45664e-05
5.45822e-05
5.4543e-05
5.27514e-05
5.27463e-05
5.27367e-05
5.27315e-05
5.4576e-05
5.45457e-05
5.27495e-05