/*--------------------------------*- C++ -*----------------------------------*\
| =========                 |                                                 |
| \\      /  F ield         | OpenFOAM: The Open Source CFD Toolbox           |
|  \\    /   O peration     | Version:  2312                                  |
|   \\  /    A nd           | Website:  www.openfoam.com                      |
|    \\/     M anipulation  |                                                 |
\*---------------------------------------------------------------------------*/
FoamFile
{
    version     2.0;
    format      ascii;
    arch        "LSB;label=32;scalar=64";
    class       volScalarField;
    location    "300";
    object      epsilon;
}
// * * * * * * * * * * * * * * * * * * * * * * * * * * * * * * * * * * * * * //

dimensions      [0 2 -3 0 0 0 0];

internalField   nonuniform List<scalar> 
43496
(
4.25313e-06
1.8951e-05
1.20091e-06
3.66218e-06
2.31845e-06
9.41724e-07
4.25257e-06
9.50798e-06
2.31808e-06
1.20118e-06
9.41658e-07
3.6616e-06
1.43127e-06
5.64939e-06
5.64879e-06
1.89509e-05
9.50927e-06
1.25666e-05
4.25325e-06
4.89734e-06
1.11626e-05
4.89746e-06
1.11616e-05
1.25682e-05
2.26049e-05
7.23799e-06
7.23849e-06
2.26101e-05
1.89481e-05
1.25641e-05
4.25272e-06
1.11616e-05
4.89603e-06
1.11605e-05
4.89623e-06
1.25655e-05
2.26003e-05
7.23505e-06
9.50721e-06
7.23562e-06
2.26054e-05
9.94986e-06
2.22478e-05
2.22488e-05
2.22433e-05
2.22442e-05
9.94893e-06
4.72741e-06
9.87894e-06
5.64968e-06
3.00021e-06
9.8779e-06
3.00036e-06
4.72691e-06
4.72153e-06
9.87507e-06
5.64906e-06
2.9993e-06
2.99945e-06
9.87409e-06
4.72105e-06
1.89479e-05
9.50862e-06
4.33948e-07
6.52172e-07
4.34656e-07
3.66246e-06
2.24947e-06
2.24996e-06
1.68919e-06
2.31851e-06
2.5655e-06
1.56374e-06
2.56567e-06
1.56497e-06
1.68796e-06
1.86698e-06
3.04444e-06
3.04486e-06
1.8656e-06
1.68842e-06
2.31813e-06
1.56342e-06
2.56451e-06
1.56467e-06
2.56459e-06
1.6872e-06
1.86616e-06
3.04309e-06
3.66193e-06
2.24937e-06
3.04339e-06
1.86456e-06
2.24988e-06
2.85611e-06
1.43263e-06
1.99323e-06
1.99312e-06
1.99382e-06
1.99394e-06
2.85579e-06
6.47091e-07
1.19881e-06
1.19817e-06
1.43004e-06
6.51087e-07
1.20111e-06
1.20043e-06
1.43189e-06
1.43075e-06
1.43065e-06
1.19848e-06
1.1988e-06
1.20009e-06
1.20056e-06
1.43118e-06
1.43082e-06
1.19858e-06
1.19826e-06
1.20022e-06
1.20015e-06
1.19824e-06
1.20041e-06
1.19988e-06
1.43023e-06
1.43036e-06
1.1979e-06
1.19997e-06
1.19963e-06
1.42989e-06
1.43264e-06
1.2008e-06
1.201e-06
1.43326e-06
1.20095e-06
1.20049e-06
1.20053e-06
1.43217e-06
1.2001e-06
4.25101e-06
9.49897e-06
9.50156e-06
4.25069e-06
1.89394e-05
1.89452e-05
4.25112e-06
9.50258e-06
9.50521e-06
4.25072e-06
6.47293e-07
6.47257e-07
6.46831e-07
6.4985e-07
6.5033e-07
6.50441e-07
6.49781e-07
2.31714e-06
3.66067e-06
9.37954e-07
1.19955e-06
3.66075e-06
9.39137e-07
2.31693e-06
1.89362e-05
1.89419e-05
2.31635e-06
9.3746e-07
3.66006e-06
1.19903e-06
9.38635e-07
3.66026e-06
2.31621e-06
5.64514e-06
5.64645e-06
1.42905e-06
5.64522e-06
5.64669e-06
9.50551e-06
4.25248e-06
1.89488e-05
9.50839e-06
4.25273e-06
6.51131e-07
6.51021e-07
6.50716e-07
2.31831e-06
3.66226e-06
9.40941e-07
2.3183e-06
9.41586e-07
1.89458e-05
2.31782e-06
9.40482e-07
3.662e-06
2.3175e-06
9.41124e-07
5.64709e-06
5.64855e-06
1.43082e-06
5.64721e-06
5.64874e-06
1.89334e-05
1.89394e-05
1.89386e-05
1.89445e-05
5.64594e-06
5.64761e-06
1.42967e-06
5.64632e-06
5.64807e-06
1.89445e-05
1.89388e-05
1.89496e-05
1.89439e-05
1.43172e-06
5.64766e-06
5.64945e-06
5.64721e-06
5.64895e-06
4.251e-06
9.50121e-06
9.50385e-06
4.25067e-06
2.31658e-06
3.65996e-06
9.37231e-07
1.19911e-06
3.66014e-06
9.38162e-07
2.31635e-06
2.3165e-06
3.66139e-06
9.37438e-07
1.1995e-06
3.66158e-06
9.38386e-07
2.31633e-06
4.25155e-06
9.50486e-06
9.50189e-06
4.25189e-06
4.25154e-06
9.50654e-06
9.50441e-06
4.2519e-06
2.317e-06
1.19973e-06
3.66116e-06
9.39552e-07
3.66088e-06
9.38895e-07
2.31724e-06
2.31703e-06
1.20002e-06
3.66252e-06
9.39803e-07
3.66235e-06
9.39084e-07
2.31727e-06
5.64881e-06
5.64689e-06
1.42991e-06
5.64916e-06
5.64722e-06
1.89379e-05
1.89437e-05
1.89498e-05
1.89443e-05
1.43229e-06
5.65051e-06
5.64844e-06
5.65012e-06
5.64808e-06
1.89485e-05
1.8943e-05
2.31689e-06
3.66069e-06
9.37889e-07
1.19924e-06
3.66093e-06
9.39012e-07
2.31656e-06
4.25078e-06
9.49992e-06
9.50269e-06
4.25041e-06
2.31656e-06
9.37826e-07
3.65995e-06
1.19911e-06
9.3894e-07
3.66005e-06
2.31628e-06
4.25169e-06
9.50821e-06
9.50557e-06
4.25212e-06
2.31734e-06
1.19985e-06
3.66197e-06
9.40383e-07
3.66166e-06
9.39503e-07
2.31765e-06
4.25134e-06
9.50534e-06
9.50293e-06
4.2517e-06
2.31702e-06
1.19948e-06
9.40303e-07
3.66082e-06
9.39413e-07
3.66073e-06
2.3173e-06
4.25163e-06
9.50168e-06
9.50447e-06
4.25138e-06
2.31727e-06
9.37809e-07
3.66026e-06
1.19905e-06
9.38941e-07
3.6604e-06
2.31707e-06
4.25203e-06
9.50089e-06
9.50317e-06
4.25168e-06
2.31768e-06
1.20008e-06
3.66153e-06
9.40293e-07
3.66144e-06
9.39544e-07
2.31786e-06
4.25224e-06
9.50735e-06
9.50489e-06
4.2524e-06
2.31776e-06
1.19949e-06
9.40098e-07
3.6612e-06
9.39439e-07
3.66111e-06
2.31777e-06
4.25257e-06
9.50582e-06
9.50387e-06
4.25277e-06
5.64682e-06
5.64592e-06
1.42934e-06
5.64713e-06
5.64625e-06
1.89356e-05
1.89414e-05
1.89466e-05
1.89412e-05
1.43123e-06
5.64826e-06
5.64752e-06
5.64794e-06
5.64712e-06
1.89464e-05
1.89408e-05
2.31618e-06
9.37337e-07
3.65969e-06
1.19876e-06
9.38461e-07
3.65975e-06
2.31605e-06
4.25096e-06
9.5011e-06
9.50361e-06
4.25076e-06
4.25077e-06
9.49919e-06
9.50168e-06
4.2506e-06
2.31687e-06
1.19943e-06
9.39796e-07
3.66123e-06
9.39056e-07
3.66099e-06
2.31708e-06
2.31671e-06
1.19908e-06
9.3964e-07
3.66052e-06
9.38956e-07
3.66043e-06
2.31692e-06
4.25154e-06
9.50665e-06
9.50391e-06
4.25178e-06
4.2514e-06
9.50456e-06
9.50226e-06
4.25161e-06
1.8934e-05
1.89394e-05
1.89347e-05
1.89405e-05
1.43098e-06
5.64623e-06
5.64771e-06
5.64601e-06
5.64747e-06
1.8944e-05
1.89387e-05
1.89453e-05
1.89398e-05
1.89438e-05
1.89489e-05
5.64857e-06
5.65035e-06
9.50711e-06
4.25247e-06
3.66194e-06
9.40241e-07
2.31769e-06
3.6633e-06
9.40425e-07
2.31773e-06
5.65148e-06
5.64931e-06
1.89477e-05
3.66274e-06
9.40835e-07
2.31814e-06
9.50556e-06
4.25226e-06
9.40744e-07
3.6615e-06
2.3178e-06
4.2529e-06
9.50743e-06
4.25293e-06
2.31825e-06
9.40808e-07
3.66188e-06
1.20091e-06
2.31832e-06
9.41539e-07
3.66181e-06
4.25316e-06
9.50634e-06
4.25325e-06
9.50806e-06
5.64909e-06
5.64841e-06
1.89456e-05
2.3176e-06
9.40353e-07
3.66121e-06
1.20072e-06
2.3174e-06
9.41147e-07
3.66132e-06
4.2527e-06
9.50701e-06
4.25239e-06
4.25254e-06
9.50517e-06
4.2523e-06
9.50737e-06
1.89432e-05
1.89484e-05
1.89446e-05
1.89499e-05
1.25547e-05
1.11522e-05
4.89494e-06
4.25114e-06
1.1151e-05
4.89509e-06
1.25565e-05
2.25902e-05
9.49989e-06
7.23461e-06
7.23409e-06
2.25847e-05
2.2588e-05
7.23485e-06
9.50058e-06
7.23534e-06
2.25936e-05
1.25544e-05
4.25054e-06
1.11489e-05
4.89458e-06
1.11504e-05
4.89441e-06
1.25526e-05
1.89427e-05
1.89419e-05
1.25591e-05
4.895e-06
1.11566e-05
4.25121e-06
4.89513e-06
1.11547e-05
1.25608e-05
2.25955e-05
9.50365e-06
7.23462e-06
7.23413e-06
2.259e-05
2.25932e-05
7.23493e-06
9.50388e-06
7.23542e-06
2.25987e-05
1.25588e-05
4.2506e-06
4.89457e-06
1.11529e-05
4.89443e-06
1.11547e-05
1.25571e-05
1.89394e-05
1.89387e-05
9.94543e-06
2.22354e-05
2.2235e-05
2.22308e-05
2.22303e-05
9.94447e-06
4.71837e-06
2.99751e-06
5.64475e-06
9.86513e-06
2.99728e-06
9.86609e-06
4.71886e-06
4.72469e-06
2.99895e-06
5.64615e-06
9.86997e-06
2.99877e-06
9.87118e-06
4.72513e-06
4.71925e-06
9.86742e-06
5.64558e-06
2.99754e-06
2.99775e-06
9.86648e-06
4.71876e-06
4.72557e-06
9.87253e-06
5.64699e-06
2.99915e-06
2.99933e-06
9.87133e-06
4.72511e-06
9.94372e-06
2.22284e-05
2.2228e-05
2.22331e-05
2.22327e-05
9.94464e-06
2.2603e-05
7.23761e-06
9.5065e-06
2.25976e-05
7.23709e-06
1.25624e-05
4.25233e-06
1.11559e-05
4.89665e-06
1.25608e-05
1.11578e-05
4.89647e-06
1.89519e-05
2.26074e-05
7.23771e-06
9.51004e-06
2.26022e-05
7.23721e-06
1.25664e-05
4.25262e-06
4.89687e-06
1.116e-05
1.25648e-05
4.89673e-06
1.11614e-05
1.89488e-05
9.94814e-06
2.22438e-05
2.22433e-05
2.22394e-05
2.22389e-05
9.94707e-06
4.71989e-06
2.99851e-06
9.87019e-06
5.64671e-06
4.72045e-06
2.99828e-06
9.87119e-06
4.72612e-06
3.00015e-06
9.87519e-06
5.64821e-06
4.7267e-06
2.99994e-06
9.87642e-06
9.94648e-06
2.22373e-05
2.22368e-05
9.94749e-06
2.22418e-05
2.22413e-05
4.72071e-06
9.87226e-06
5.64756e-06
2.99854e-06
2.99874e-06
9.87124e-06
4.72012e-06
4.72689e-06
9.87706e-06
5.64907e-06
3.00006e-06
3.00028e-06
9.8764e-06
4.72629e-06
1.89367e-05
1.89361e-05
1.89418e-05
1.89413e-05
9.94722e-06
2.22408e-05
2.22402e-05
2.2236e-05
2.22354e-05
9.94637e-06
4.71945e-06
2.99823e-06
5.64566e-06
9.86744e-06
9.8687e-06
2.99803e-06
4.71996e-06
4.72513e-06
2.99922e-06
5.64737e-06
9.87281e-06
9.87421e-06
2.99902e-06
4.72561e-06
4.72041e-06
9.87013e-06
5.64659e-06
2.99836e-06
9.86896e-06
4.7199e-06
2.99857e-06
4.72607e-06
9.8754e-06
5.6483e-06
2.99939e-06
9.87443e-06
4.72559e-06
2.99958e-06
9.94538e-06
2.22333e-05
2.22327e-05
2.22382e-05
2.22376e-05
9.9462e-06
1.89414e-05
1.8942e-05
1.89465e-05
1.89471e-05
9.94737e-06
2.22385e-05
2.2238e-05
9.94821e-06
2.22433e-05
2.22427e-05
4.72139e-06
2.99906e-06
5.64792e-06
9.87294e-06
9.87188e-06
2.99925e-06
4.72085e-06
4.72711e-06
3.00013e-06
5.64968e-06
9.87848e-06
9.87721e-06
3.00032e-06
4.7266e-06
4.72039e-06
9.87044e-06
2.99888e-06
5.64696e-06
4.7209e-06
9.87157e-06
2.99869e-06
4.72612e-06
9.8758e-06
2.99993e-06
5.64872e-06
4.72659e-06
9.87696e-06
2.99975e-06
9.94914e-06
2.22457e-05
2.22452e-05
2.2241e-05
2.22405e-05
9.94832e-06
1.25555e-05
1.1152e-05
4.89521e-06
4.25112e-06
1.11508e-05
4.89534e-06
1.25573e-05
2.25932e-05
9.50258e-06
7.23396e-06
7.23347e-06
2.25879e-05
2.25908e-05
7.23416e-06
9.50276e-06
7.23465e-06
2.25961e-05
1.25552e-05
4.25053e-06
1.11489e-05
4.89481e-06
1.11504e-05
4.89466e-06
1.25535e-05
1.25585e-05
1.11527e-05
4.89556e-06
4.25143e-06
1.25568e-05
1.1154e-05
4.89542e-06
2.25946e-05
9.50349e-06
7.23634e-06
2.25999e-05
7.23685e-06
2.25968e-05
7.23605e-06
9.50324e-06
2.25914e-05
7.23558e-06
1.25588e-05
4.25202e-06
1.11557e-05
4.89596e-06
1.25605e-05
1.11541e-05
4.89611e-06
1.25593e-05
1.11527e-05
4.89583e-06
4.25143e-06
1.25575e-05
1.11539e-05
4.89571e-06
2.25964e-05
9.50542e-06
7.23548e-06
7.23599e-06
2.26015e-05
2.25989e-05
7.23528e-06
9.50523e-06
2.25936e-05
7.23481e-06
1.25595e-05
4.25203e-06
1.11556e-05
4.89626e-06
1.11546e-05
4.89639e-06
1.25612e-05
9.94896e-06
2.22434e-05
2.22436e-05
2.22387e-05
2.22388e-05
9.94808e-06
4.72638e-06
3.00015e-06
5.64848e-06
9.87465e-06
9.87572e-06
2.99997e-06
4.72682e-06
4.72028e-06
2.99885e-06
5.6466e-06
9.86947e-06
2.99866e-06
9.87072e-06
4.72077e-06
4.72729e-06
9.87716e-06
5.64948e-06
3.00035e-06
9.87613e-06
3.00053e-06
4.72684e-06
4.72125e-06
9.87211e-06
5.64751e-06
2.99905e-06
2.99924e-06
9.87094e-06
4.72078e-06
9.94711e-06
2.22362e-05
2.22363e-05
2.2241e-05
2.22411e-05
9.94795e-06
1.89411e-05
1.89405e-05
1.89467e-05
1.89475e-05
9.94908e-06
2.22411e-05
2.22413e-05
9.94995e-06
2.22458e-05
2.2246e-05
4.72829e-06
3.00111e-06
5.65083e-06
9.87999e-06
3.00128e-06
9.87895e-06
4.72781e-06
4.72232e-06
2.9998e-06
5.64874e-06
9.87486e-06
9.87376e-06
3e-06
4.7218e-06
4.72734e-06
9.87751e-06
3.00088e-06
5.64981e-06
3.0007e-06
4.7278e-06
9.87861e-06
4.72132e-06
9.87238e-06
2.99961e-06
5.6478e-06
4.72179e-06
9.87353e-06
2.99941e-06
9.95087e-06
2.2248e-05
2.22482e-05
2.22433e-05
2.22436e-05
9.95e-06
1.89454e-05
1.89461e-05
1.25569e-05
1.11555e-05
4.89417e-06
4.25089e-06
1.1154e-05
4.89432e-06
1.25585e-05
2.25913e-05
9.50129e-06
7.23227e-06
7.23173e-06
2.25859e-05
2.25889e-05
7.23242e-06
9.50179e-06
7.23294e-06
2.25943e-05
1.25566e-05
4.25028e-06
1.11522e-05
4.89385e-06
1.11535e-05
4.89367e-06
1.2555e-05
1.25627e-05
4.89568e-06
1.11564e-05
4.2516e-06
1.2561e-05
4.89554e-06
1.11582e-05
2.25993e-05
9.50733e-06
7.23644e-06
2.26046e-05
7.23694e-06
2.26017e-05
7.23615e-06
9.50675e-06
2.25964e-05
7.23567e-06
1.2563e-05
4.25222e-06
4.89613e-06
1.11596e-05
1.25646e-05
4.89628e-06
1.11583e-05
1.25604e-05
1.11556e-05
4.89479e-06
4.25123e-06
1.25588e-05
1.11574e-05
4.89464e-06
2.25948e-05
9.50454e-06
7.23376e-06
7.23429e-06
2.26001e-05
2.25972e-05
7.23358e-06
9.50403e-06
2.25919e-05
7.23306e-06
1.25606e-05
4.25182e-06
1.11584e-05
4.89513e-06
1.11574e-05
4.89529e-06
1.25622e-05
1.25574e-05
4.8951e-06
1.1156e-05
4.25182e-06
4.89543e-06
1.11547e-05
1.2559e-05
2.25934e-05
9.50315e-06
7.23507e-06
7.23433e-06
2.25878e-05
2.25907e-05
7.23498e-06
9.50319e-06
7.23572e-06
2.25963e-05
1.25573e-05
4.25116e-06
4.895e-06
1.1153e-05
4.89465e-06
1.11544e-05
1.25557e-05
1.25582e-05
1.11566e-05
4.89514e-06
4.25216e-06
1.11553e-05
4.89533e-06
1.25596e-05
2.25929e-05
9.50206e-06
7.23306e-06
7.23248e-06
2.25876e-05
2.25904e-05
7.23312e-06
9.50237e-06
7.23371e-06
2.25956e-05
1.2558e-05
4.25155e-06
1.11537e-05
4.89486e-06
1.1155e-05
4.89467e-06
1.25564e-05
1.25607e-05
4.89582e-06
1.11562e-05
4.25205e-06
1.25592e-05
4.89549e-06
1.11575e-05
2.25964e-05
9.5065e-06
7.23626e-06
7.237e-06
2.26019e-05
2.25991e-05
7.2363e-06
9.50598e-06
2.25935e-05
7.23559e-06
1.25609e-05
4.25267e-06
4.89592e-06
1.11588e-05
4.89627e-06
1.11577e-05
1.25624e-05
1.25612e-05
1.11568e-05
4.89571e-06
4.25241e-06
1.25598e-05
1.11579e-05
4.89551e-06
2.25956e-05
9.50479e-06
7.23425e-06
7.23486e-06
2.26007e-05
2.25982e-05
7.23426e-06
9.50459e-06
2.2593e-05
7.23367e-06
1.25613e-05
4.25294e-06
1.11592e-05
4.89583e-06
1.11581e-05
4.89611e-06
1.25626e-05
9.94622e-06
2.22387e-05
2.22396e-05
2.2234e-05
2.22349e-05
9.94532e-06
4.72467e-06
2.99868e-06
5.64654e-06
9.87138e-06
9.87248e-06
2.99853e-06
4.72512e-06
4.71866e-06
2.99764e-06
5.64562e-06
9.86723e-06
2.99745e-06
9.86827e-06
4.71912e-06
4.72558e-06
9.87383e-06
5.64741e-06
2.99887e-06
9.87285e-06
2.99903e-06
4.72511e-06
4.71956e-06
9.86969e-06
5.64653e-06
2.99781e-06
2.998e-06
9.86871e-06
4.71911e-06
9.9444e-06
2.22315e-05
2.22324e-05
2.22363e-05
2.22371e-05
9.94525e-06
1.89388e-05
1.89382e-05
1.89435e-05
1.89443e-05
9.94624e-06
2.22365e-05
2.22374e-05
9.94713e-06
2.22411e-05
2.2242e-05
4.7265e-06
2.99955e-06
5.64854e-06
9.87649e-06
2.9997e-06
9.87546e-06
4.72601e-06
4.72056e-06
2.99853e-06
5.64779e-06
9.8725e-06
9.87149e-06
2.99871e-06
4.72007e-06
4.72557e-06
9.87416e-06
2.99935e-06
5.64768e-06
2.99921e-06
4.72605e-06
9.8752e-06
4.7196e-06
9.87006e-06
2.99833e-06
5.64685e-06
4.72006e-06
9.87113e-06
2.99815e-06
9.94798e-06
2.22434e-05
2.22444e-05
2.22388e-05
2.22397e-05
9.94709e-06
1.89432e-05
1.89439e-05
1.25551e-05
4.89485e-06
1.11529e-05
4.25116e-06
4.89501e-06
1.11511e-05
1.25567e-05
2.25913e-05
9.50203e-06
7.23462e-06
7.23414e-06
2.25859e-05
2.2589e-05
7.23489e-06
9.50273e-06
7.23539e-06
2.25943e-05
1.25549e-05
4.25054e-06
4.89458e-06
1.11493e-05
4.89439e-06
1.11512e-05
1.25532e-05
1.25551e-05
4.8944e-06
1.11525e-05
4.25103e-06
4.89463e-06
1.1151e-05
1.25568e-05
2.25899e-05
9.5002e-06
7.23231e-06
7.23177e-06
2.25844e-05
2.25875e-05
7.23248e-06
9.50045e-06
7.23302e-06
2.2593e-05
1.25548e-05
4.25033e-06
4.89419e-06
1.1149e-05
4.89392e-06
1.11508e-05
1.25531e-05
1.25585e-05
4.89543e-06
1.1153e-05
4.25135e-06
1.25569e-05
4.89527e-06
1.11545e-05
2.25947e-05
9.50541e-06
7.23627e-06
7.2368e-06
2.25998e-05
2.25971e-05
7.23608e-06
9.50528e-06
2.25919e-05
7.23558e-06
1.25588e-05
4.25197e-06
4.89574e-06
1.1156e-05
4.89591e-06
1.11546e-05
1.25603e-05
1.25587e-05
4.89507e-06
1.11527e-05
4.25116e-06
1.2557e-05
4.89483e-06
1.11542e-05
2.25935e-05
9.50339e-06
7.23386e-06
7.23439e-06
2.25989e-05
2.25959e-05
7.23366e-06
9.50318e-06
2.25906e-05
7.23314e-06
1.25589e-05
4.25186e-06
4.89533e-06
1.11557e-05
4.89556e-06
1.11543e-05
1.25606e-05
1.89371e-05
1.89364e-05
1.89379e-05
1.89373e-05
9.94521e-06
2.2233e-05
2.22326e-05
9.94616e-06
2.22376e-05
2.22372e-05
4.72011e-06
2.99805e-06
5.64656e-06
9.86998e-06
4.71955e-06
2.99825e-06
9.86902e-06
4.72641e-06
2.99974e-06
5.64802e-06
9.875e-06
4.72587e-06
2.99995e-06
9.87399e-06
4.71919e-06
9.86774e-06
2.99799e-06
5.64569e-06
4.7197e-06
2.99779e-06
9.86875e-06
4.72554e-06
9.87274e-06
2.99967e-06
5.64716e-06
4.72602e-06
2.99947e-06
9.87382e-06
9.94679e-06
2.22398e-05
2.22393e-05
9.94583e-06
2.22352e-05
2.22347e-05
1.8941e-05
1.89418e-05
1.89422e-05
1.89429e-05
1.89469e-05
1.8952e-05
4.72135e-06
2.99963e-06
9.87326e-06
5.6483e-06
4.72187e-06
9.87454e-06
2.99945e-06
4.72713e-06
3.00069e-06
9.87874e-06
5.65014e-06
4.7276e-06
9.87995e-06
3.00053e-06
9.94931e-06
2.22433e-05
2.22429e-05
9.95017e-06
2.2248e-05
2.22476e-05
2.26041e-05
7.23663e-06
9.50796e-06
2.2599e-05
7.23613e-06
1.2563e-05
4.25235e-06
1.11561e-05
4.89688e-06
1.11576e-05
1.25614e-05
4.89674e-06
4.7283e-06
3.0017e-06
9.88036e-06
5.65113e-06
9.88159e-06
4.72877e-06
3.00153e-06
4.72234e-06
3.00037e-06
9.8751e-06
5.64901e-06
3.0002e-06
4.72281e-06
9.87636e-06
9.95094e-06
2.22455e-05
2.22458e-05
2.225e-05
9.95186e-06
2.22504e-05
2.26028e-05
7.23494e-06
9.50669e-06
2.25976e-05
7.2344e-06
1.25639e-05
4.25214e-06
1.11588e-05
4.89576e-06
1.11602e-05
1.25624e-05
4.89558e-06
1.25641e-05
4.25321e-06
1.11614e-05
4.89708e-06
1.11604e-05
2.26046e-05
7.2376e-06
9.5087e-06
7.23686e-06
2.25991e-05
1.2564e-05
4.25265e-06
4.89665e-06
1.11591e-05
4.89631e-06
1.25625e-05
1.11602e-05
2.26017e-05
1.2564e-05
4.25345e-06
1.11615e-05
4.8963e-06
1.11606e-05
4.89659e-06
1.25653e-05
2.26033e-05
7.2354e-06
9.50712e-06
2.25982e-05
7.23481e-06
1.2564e-05
4.25301e-06
1.11594e-05
4.89635e-06
1.25627e-05
1.11605e-05
4.89605e-06
2.26007e-05
7.23535e-06
9.50717e-06
7.23599e-06
2.26057e-05
4.72647e-06
3.00002e-06
9.8767e-06
5.64881e-06
9.87782e-06
4.72695e-06
2.99985e-06
4.72058e-06
2.99906e-06
9.87276e-06
5.64814e-06
2.9989e-06
4.72103e-06
9.87386e-06
9.94803e-06
2.22411e-05
2.2242e-05
2.22457e-05
9.94892e-06
2.22466e-05
1.89487e-05
1.25623e-05
4.25288e-06
4.89673e-06
1.11591e-05
4.89687e-06
1.1158e-05
1.25638e-05
2.26023e-05
7.23744e-06
9.50813e-06
7.2369e-06
2.25972e-05
1.25621e-05
4.25221e-06
4.89635e-06
1.11564e-05
4.89621e-06
1.25605e-05
1.11577e-05
2.25997e-05
7.23748e-06
7.23807e-06
2.26047e-05
1.25626e-05
4.25279e-06
4.89634e-06
1.1159e-05
4.89657e-06
1.11578e-05
1.25642e-05
2.26018e-05
7.23508e-06
9.50599e-06
2.25964e-05
7.23457e-06
1.25624e-05
4.25206e-06
4.89604e-06
1.11561e-05
1.25608e-05
4.89581e-06
1.11575e-05
2.25992e-05
7.23528e-06
9.50665e-06
7.23584e-06
2.26045e-05
1.89462e-05
1.89454e-05
1.89476e-05
1.89469e-05
4.28296e-07
4.28774e-07
6.48401e-07
4.2977e-07
4.30437e-07
2.16552e-07
2.15822e-07
2.85413e-06
1.99189e-06
1.99225e-06
1.42852e-06
1.99115e-06
1.99153e-06
2.85444e-06
4.32731e-07
4.33075e-07
2.20538e-07
2.19387e-07
2.85523e-06
1.9931e-06
1.9935e-06
1.43036e-06
2.85559e-06
1.99234e-06
1.99276e-06
2.85491e-06
1.99271e-06
1.99288e-06
1.42914e-06
1.99198e-06
1.99214e-06
2.85521e-06
2.85622e-06
1.4322e-06
1.99299e-06
1.99318e-06
1.99371e-06
1.99389e-06
2.8559e-06
2.85555e-06
1.99336e-06
1.99316e-06
1.42946e-06
1.99241e-06
1.99262e-06
2.85588e-06
2.8569e-06
1.43278e-06
1.99368e-06
1.99348e-06
1.99442e-06
1.99422e-06
2.85658e-06
2.85423e-06
1.99217e-06
1.99209e-06
1.42875e-06
1.99138e-06
1.99145e-06
2.85453e-06
2.8555e-06
1.43172e-06
1.99256e-06
1.99243e-06
1.99326e-06
1.99315e-06
2.85519e-06
2.85538e-06
1.43142e-06
1.99209e-06
1.99251e-06
2.85507e-06
1.9928e-06
1.99323e-06
2.85627e-06
1.99405e-06
1.99424e-06
1.43119e-06
2.85657e-06
1.99336e-06
1.99354e-06
2.85692e-06
1.99476e-06
1.99456e-06
1.4313e-06
1.99383e-06
2.85724e-06
1.99405e-06
2.85548e-06
1.99359e-06
1.99348e-06
1.43082e-06
1.99277e-06
2.85579e-06
1.99289e-06
4.28432e-07
4.28691e-07
6.48553e-07
4.29857e-07
4.30378e-07
2.16808e-07
2.1557e-07
4.29008e-07
4.28667e-07
6.48698e-07
4.30667e-07
4.30362e-07
2.17083e-07
2.15842e-07
4.28616e-07
4.28405e-07
6.4829e-07
4.30312e-07
4.30135e-07
2.16859e-07
2.15588e-07
6.49309e-07
4.31509e-07
4.32177e-07
4.3081e-07
4.31197e-07
2.17899e-07
2.18801e-07
6.49425e-07
4.31938e-07
4.32105e-07
4.30882e-07
4.31064e-07
2.17532e-07
2.18932e-07
6.49303e-07
4.32683e-07
4.32084e-07
4.31353e-07
4.31019e-07
2.17803e-07
2.19196e-07
6.48929e-07
4.32059e-07
4.31889e-07
4.30998e-07
4.30754e-07
2.17563e-07
2.18968e-07
1.68765e-06
2.56377e-06
1.56228e-06
2.31734e-06
2.56401e-06
1.56327e-06
1.68627e-06
1.86368e-06
2.24909e-06
3.66033e-06
3.04278e-06
2.24855e-06
3.04235e-06
1.86566e-06
1.86605e-06
3.04268e-06
3.66107e-06
2.24891e-06
2.24942e-06
3.04312e-06
1.8641e-06
1.68554e-06
2.31687e-06
2.56367e-06
1.56281e-06
2.56349e-06
1.56187e-06
1.6872e-06
1.68738e-06
1.5615e-06
2.56337e-06
2.31657e-06
1.56252e-06
2.56361e-06
1.68528e-06
1.86311e-06
2.24821e-06
3.65977e-06
3.04246e-06
2.2477e-06
3.0421e-06
1.86509e-06
1.86555e-06
3.04248e-06
3.66054e-06
2.24809e-06
2.24857e-06
3.04285e-06
1.8637e-06
1.68493e-06
2.31614e-06
1.56212e-06
2.56339e-06
1.56106e-06
2.56297e-06
1.6869e-06
2.85475e-06
1.43054e-06
1.99147e-06
1.99188e-06
1.9922e-06
1.99259e-06
2.85444e-06
4.32887e-07
4.33116e-07
4.34323e-07
2.20558e-07
2.19284e-07
4.33342e-07
4.33071e-07
4.34311e-07
2.20829e-07
2.19551e-07
4.33068e-07
4.32818e-07
6.51715e-07
4.3426e-07
4.34126e-07
2.20613e-07
2.19305e-07
1.6889e-06
2.3185e-06
2.56494e-06
1.56386e-06
2.56514e-06
1.56475e-06
1.68755e-06
1.86551e-06
2.25037e-06
3.04406e-06
3.66191e-06
1.86664e-06
2.24984e-06
3.04367e-06
1.68718e-06
2.31822e-06
2.56486e-06
1.56453e-06
1.68887e-06
2.5647e-06
1.56351e-06
1.68845e-06
2.31791e-06
1.56324e-06
2.56478e-06
1.56407e-06
2.56493e-06
1.68716e-06
1.86508e-06
2.24964e-06
3.04393e-06
3.6617e-06
1.86614e-06
2.24912e-06
3.04355e-06
1.68685e-06
2.31732e-06
1.56368e-06
2.56455e-06
1.68812e-06
1.56279e-06
2.56432e-06
1.8665e-06
3.04398e-06
3.0443e-06
1.86527e-06
2.85572e-06
1.43231e-06
1.99262e-06
1.99297e-06
1.99335e-06
1.99371e-06
2.85536e-06
2.85553e-06
1.43126e-06
1.99235e-06
1.9925e-06
2.85522e-06
1.99304e-06
1.99322e-06
2.85558e-06
1.43014e-06
1.99336e-06
1.99353e-06
2.85589e-06
1.99266e-06
1.9928e-06
1.68716e-06
2.56358e-06
1.56154e-06
2.31669e-06
2.56385e-06
1.56266e-06
1.68589e-06
1.86365e-06
2.2486e-06
3.65965e-06
3.04257e-06
3.04209e-06
2.24807e-06
1.86474e-06
1.86518e-06
3.04248e-06
3.66042e-06
2.24838e-06
3.04292e-06
2.24889e-06
1.86366e-06
1.68555e-06
2.31623e-06
2.56351e-06
1.56229e-06
2.56327e-06
1.56117e-06
1.68689e-06
1.68782e-06
2.56374e-06
1.56156e-06
2.31671e-06
2.56399e-06
1.56268e-06
1.68596e-06
1.86408e-06
2.24961e-06
3.66108e-06
3.04276e-06
3.04235e-06
2.24911e-06
1.86514e-06
1.86563e-06
3.04277e-06
3.66189e-06
2.24947e-06
3.04315e-06
1.86415e-06
2.24998e-06
1.68529e-06
2.31627e-06
2.56361e-06
1.56232e-06
2.56338e-06
1.56117e-06
1.68713e-06
1.68584e-06
2.56418e-06
1.56312e-06
2.31678e-06
1.68755e-06
2.56388e-06
1.56181e-06
1.86616e-06
2.24908e-06
3.66142e-06
3.04335e-06
2.24957e-06
3.04371e-06
1.8649e-06
1.86398e-06
3.04331e-06
2.24919e-06
3.66062e-06
2.2487e-06
1.8658e-06
3.04291e-06
1.68824e-06
2.31735e-06
2.56429e-06
1.56222e-06
2.5645e-06
1.56355e-06
1.68607e-06
1.68663e-06
2.56431e-06
1.56315e-06
2.31681e-06
1.6879e-06
2.56407e-06
1.56189e-06
1.86671e-06
2.25016e-06
3.66284e-06
3.04358e-06
3.0439e-06
2.25066e-06
1.86525e-06
1.86451e-06
3.04354e-06
2.25031e-06
3.66203e-06
1.86643e-06
3.04321e-06
2.24981e-06
1.68818e-06
2.31738e-06
2.56442e-06
1.56229e-06
2.56465e-06
1.56358e-06
1.68656e-06
2.85619e-06
1.43171e-06
1.99297e-06
1.99279e-06
1.99351e-06
1.99371e-06
2.85586e-06
2.85622e-06
1.43036e-06
1.99405e-06
1.99385e-06
1.99334e-06
2.85655e-06
1.99313e-06
1.68802e-06
2.56386e-06
1.56205e-06
2.31699e-06
2.56408e-06
1.56321e-06
1.68589e-06
1.86373e-06
2.24896e-06
3.66042e-06
3.04279e-06
3.04237e-06
2.24845e-06
1.86514e-06
1.86575e-06
3.04286e-06
3.66118e-06
2.24879e-06
3.04322e-06
2.2493e-06
1.86397e-06
1.68554e-06
2.31648e-06
2.56366e-06
1.56273e-06
2.56346e-06
1.56164e-06
1.68725e-06
1.68701e-06
1.56172e-06
2.56307e-06
2.31668e-06
1.56287e-06
2.56331e-06
1.68568e-06
1.86306e-06
2.24837e-06
3.65963e-06
3.04178e-06
3.04136e-06
2.24785e-06
1.86501e-06
1.86523e-06
3.04173e-06
3.66036e-06
2.24818e-06
3.0421e-06
1.86378e-06
2.24868e-06
1.68545e-06
2.31611e-06
1.56249e-06
2.56297e-06
1.56136e-06
2.56274e-06
1.68675e-06
1.68611e-06
2.56445e-06
1.56366e-06
2.31714e-06
1.68846e-06
2.5642e-06
1.56238e-06
1.86632e-06
2.24949e-06
3.66222e-06
3.04367e-06
2.24998e-06
3.04399e-06
1.8653e-06
1.86472e-06
3.04359e-06
2.24962e-06
3.66142e-06
2.24912e-06
1.86631e-06
3.04327e-06
1.68897e-06
2.31775e-06
2.56465e-06
1.56279e-06
2.56485e-06
1.5641e-06
1.68693e-06
1.68555e-06
1.56337e-06
2.56362e-06
2.31682e-06
1.68767e-06
1.56205e-06
2.56342e-06
1.8656e-06
2.24877e-06
3.66114e-06
3.04245e-06
3.04276e-06
2.24927e-06
1.86453e-06
1.86419e-06
3.04244e-06
2.24896e-06
3.66042e-06
1.86535e-06
3.0421e-06
2.24846e-06
1.68815e-06
2.31741e-06
1.56249e-06
2.56373e-06
1.56378e-06
2.56395e-06
1.68639e-06
1.68735e-06
1.56209e-06
2.56376e-06
2.31745e-06
1.56327e-06
2.5639e-06
1.68607e-06
1.86372e-06
2.24846e-06
3.65995e-06
3.04221e-06
2.24793e-06
3.04189e-06
1.86483e-06
1.86518e-06
3.04227e-06
3.66071e-06
2.24826e-06
2.24877e-06
3.04258e-06
1.86419e-06
1.68575e-06
2.31688e-06
1.56289e-06
2.56358e-06
1.56175e-06
2.5633e-06
1.68709e-06
1.68659e-06
2.56431e-06
1.5637e-06
2.31746e-06
1.68785e-06
2.56416e-06
1.56257e-06
1.86662e-06
2.24951e-06
3.66186e-06
3.04333e-06
1.86507e-06
2.25003e-06
3.04376e-06
1.86424e-06
3.04344e-06
2.24971e-06
3.66111e-06
1.86618e-06
2.2492e-06
3.04302e-06
1.68836e-06
2.31802e-06
2.56429e-06
1.56283e-06
1.6864e-06
2.56452e-06
1.56418e-06
1.68584e-06
1.56379e-06
2.56411e-06
2.31744e-06
1.68797e-06
1.56244e-06
2.56394e-06
1.86617e-06
2.24883e-06
3.66154e-06
3.04293e-06
3.04323e-06
2.24934e-06
1.8643e-06
1.86404e-06
3.04289e-06
2.24903e-06
3.6608e-06
1.86552e-06
3.04259e-06
2.24851e-06
1.68838e-06
2.31799e-06
1.56279e-06
2.56413e-06
1.56411e-06
2.5643e-06
1.68631e-06
2.85484e-06
1.43076e-06
1.99185e-06
1.99175e-06
1.99245e-06
1.99255e-06
2.85453e-06
2.85488e-06
1.42986e-06
1.99289e-06
1.99279e-06
1.99218e-06
2.85519e-06
1.99207e-06
1.68674e-06
1.56138e-06
2.56301e-06
2.31641e-06
1.56244e-06
2.5633e-06
1.68546e-06
1.8631e-06
2.24841e-06
3.65935e-06
3.04157e-06
2.24789e-06
3.04107e-06
1.86418e-06
1.86457e-06
3.04135e-06
3.66007e-06
2.24822e-06
2.24873e-06
3.04191e-06
1.86361e-06
1.68512e-06
2.31597e-06
1.5621e-06
2.56296e-06
1.56099e-06
2.56272e-06
1.68642e-06
1.68602e-06
1.56289e-06
2.56398e-06
2.31664e-06
1.68765e-06
1.5619e-06
2.56384e-06
1.86583e-06
2.24879e-06
3.6615e-06
3.0432e-06
1.86478e-06
2.24927e-06
3.0436e-06
1.8644e-06
3.04323e-06
2.24891e-06
3.66073e-06
1.8655e-06
2.24843e-06
3.04282e-06
1.6878e-06
2.31719e-06
1.56236e-06
2.56404e-06
1.68648e-06
1.56328e-06
2.56421e-06
1.68578e-06
1.56286e-06
2.56359e-06
2.31647e-06
1.68702e-06
1.56165e-06
2.56336e-06
1.86556e-06
2.24872e-06
3.66085e-06
3.04202e-06
3.04258e-06
2.24926e-06
1.86381e-06
1.86342e-06
3.04224e-06
2.24899e-06
3.66011e-06
1.86494e-06
3.04167e-06
2.24846e-06
1.68731e-06
2.31705e-06
1.56199e-06
2.56361e-06
1.5633e-06
2.56389e-06
1.68566e-06
2.85477e-06
1.42951e-06
1.99248e-06
1.9929e-06
2.85509e-06
1.99176e-06
1.99219e-06
1.86533e-06
2.24991e-06
3.04405e-06
3.66168e-06
3.04375e-06
1.86636e-06
2.24943e-06
1.6869e-06
2.31754e-06
2.56488e-06
1.564e-06
2.56469e-06
1.6887e-06
1.56269e-06
1.8658e-06
2.25099e-06
3.04425e-06
3.66298e-06
1.86688e-06
3.04398e-06
2.25048e-06
1.68683e-06
2.31758e-06
2.56505e-06
1.56405e-06
1.68908e-06
2.56484e-06
1.56272e-06
1.86565e-06
2.25032e-06
3.04438e-06
3.6625e-06
3.04405e-06
1.86672e-06
2.24983e-06
1.68758e-06
2.31805e-06
2.56526e-06
1.56457e-06
2.56507e-06
1.68891e-06
1.56327e-06
1.86488e-06
2.24955e-06
3.04305e-06
3.6612e-06
1.86591e-06
3.04277e-06
2.24905e-06
1.68683e-06
2.3177e-06
1.56426e-06
2.56441e-06
1.68816e-06
1.56296e-06
2.56397e-06
1.68871e-06
2.31837e-06
1.56361e-06
2.56462e-06
1.5649e-06
2.56473e-06
1.68725e-06
1.86502e-06
2.24961e-06
3.04353e-06
3.66153e-06
2.2491e-06
1.86637e-06
3.04319e-06
1.68664e-06
2.31801e-06
1.56456e-06
2.56453e-06
1.56317e-06
1.68863e-06
2.56439e-06
1.86652e-06
3.04337e-06
3.66222e-06
2.24935e-06
2.24991e-06
3.0438e-06
1.86528e-06
1.68816e-06
2.31778e-06
1.56295e-06
2.56444e-06
1.56412e-06
2.56463e-06
1.68699e-06
1.86449e-06
2.24948e-06
3.04294e-06
3.66089e-06
2.24894e-06
1.86575e-06
3.0424e-06
1.68627e-06
2.31718e-06
1.56379e-06
2.56427e-06
1.56246e-06
1.68818e-06
2.56401e-06
1.86604e-06
3.04283e-06
3.66164e-06
2.24917e-06
2.24973e-06
3.04332e-06
1.86484e-06
8.63103e-07
1.14863e-06
8.62976e-07
9.16179e-06
3.47531e-06
1.84283e-05
5.46356e-06
5.46204e-06
1.84263e-05
3.47508e-06
9.16174e-06
2.20545e-05
9.15881e-06
7.08878e-06
7.08913e-06
2.2061e-05
1.84233e-05
4.54484e-06
2.81263e-06
5.46328e-06
9.50433e-06
2.81162e-06
9.50067e-06
4.54526e-06
4.53878e-06
2.81153e-06
5.462e-06
9.49953e-06
9.49643e-06
2.81052e-06
4.53915e-06
9.73636e-06
2.17291e-05
2.17295e-05
2.17228e-05
2.17231e-05
9.736e-06
1.84213e-05
2.20519e-05
9.1592e-06
7.08958e-06
7.09011e-06
2.20589e-05
2.66775e-06
1.14911e-06
1.76838e-06
1.76826e-06
1.76778e-06
1.76766e-06
2.66877e-06
1.61701e-06
2.03253e-06
3.47485e-06
2.86022e-06
2.85997e-06
2.0318e-06
1.61742e-06
1.61713e-06
2.03257e-06
3.47433e-06
2.86073e-06
2.03174e-06
2.86006e-06
1.61756e-06
3.23774e-07
8.69e-07
8.6914e-07
1.15442e-06
3.39802e-07
8.92446e-07
8.92584e-07
1.1738e-06
3.56077e-07
9.14923e-07
9.15061e-07
1.19236e-06
3.72525e-07
9.36436e-07
9.36574e-07
1.21e-06
3.89071e-07
9.57003e-07
9.57139e-07
1.22682e-06
4.0565e-07
9.7667e-07
9.76796e-07
1.24283e-06
4.222e-07
9.95477e-07
9.95586e-07
1.25829e-06
4.38665e-07
1.01347e-06
1.01355e-06
1.27317e-06
4.54995e-07
1.0307e-06
1.03075e-06
1.28754e-06
4.71148e-07
1.04723e-06
1.04725e-06
1.30139e-06
4.87078e-07
1.06312e-06
1.06309e-06
1.31471e-06
5.02736e-07
1.07839e-06
1.07832e-06
1.32763e-06
5.18059e-07
1.09305e-06
1.09294e-06
1.34001e-06
5.32966e-07
1.10705e-06
1.1069e-06
1.35187e-06
5.47356e-07
1.12031e-06
1.12013e-06
1.36311e-06
5.61114e-07
1.13271e-06
1.13252e-06
1.37358e-06
5.74119e-07
1.14414e-06
1.14396e-06
1.3832e-06
5.86255e-07
1.15447e-06
1.15434e-06
1.39189e-06
5.97425e-07
1.16364e-06
1.16355e-06
1.39964e-06
6.07567e-07
1.17163e-06
1.17158e-06
1.40645e-06
6.16652e-07
1.17851e-06
1.17841e-06
1.41251e-06
6.24672e-07
1.18431e-06
1.18409e-06
1.41761e-06
6.31653e-07
1.18914e-06
1.18875e-06
1.42176e-06
6.37666e-07
1.19307e-06