/*--------------------------------*- C++ -*----------------------------------*\
| =========                 |                                                 |
| \\      /  F ield         | OpenFOAM: The Open Source CFD Toolbox           |
|  \\    /   O peration     | Version:  2312                                  |
|   \\  /    A nd           | Website:  www.openfoam.com                      |
|    \\/     M anipulation  |                                                 |
\*---------------------------------------------------------------------------*/
FoamFile
{
    version     2.0;
    format      ascii;
    arch        "LSB;label=32;scalar=64";
    class       volScalarField;
    location    "300";
    object      k;
}
// * * * * * * * * * * * * * * * * * * * * * * * * * * * * * * * * * * * * * //

dimensions      [0 2 -2 0 0 0 0];

internalField   nonuniform List<scalar> 
43496
(
6.86753e-05
7.08492e-05
5.11676e-05
6.48582e-05
6.06918e-05
4.62286e-05
6.86625e-05
7.31508e-05
6.06795e-05
5.1161e-05
4.62205e-05
6.48396e-05
5.33518e-05
6.99311e-05
6.99397e-05
7.08536e-05
7.31595e-05
7.15232e-05
6.86675e-05
7.1708e-05
7.12806e-05
7.17005e-05
7.12762e-05
7.15291e-05
7.13614e-05
7.97808e-05
7.97761e-05
7.13724e-05
7.08417e-05
7.15119e-05
6.86587e-05
7.12759e-05
7.16786e-05
7.12711e-05
7.16723e-05
7.15173e-05
7.135e-05
7.97439e-05
7.31427e-05
7.97404e-05
7.13608e-05
9.49622e-05
7.31833e-05
7.31906e-05
7.31733e-05
7.31806e-05
9.49633e-05
7.42984e-05
7.30147e-05
6.99298e-05
6.53413e-05
7.30109e-05
6.53341e-05
7.43017e-05
7.42519e-05
7.3011e-05
6.99362e-05
6.534e-05
6.53323e-05
7.30065e-05
7.42554e-05
7.08461e-05
7.31547e-05
3.05082e-05
3.79078e-05
3.04983e-05
6.48514e-05
6.04653e-05
6.04642e-05
5.63194e-05
6.06862e-05
6.24294e-05
5.49848e-05
6.24228e-05
5.49935e-05
5.62952e-05
5.74281e-05
6.43066e-05
6.43019e-05
5.74135e-05
5.62941e-05
6.06745e-05
5.49739e-05
6.23948e-05
5.49827e-05
6.23907e-05
5.62695e-05
5.74053e-05
6.42711e-05
6.48355e-05
6.04441e-05
6.42673e-05
5.73897e-05
6.04493e-05
6.60332e-05
5.33622e-05
5.95033e-05
5.94914e-05
5.95005e-05
5.95031e-05
6.60378e-05
3.7646e-05
5.10175e-05
5.09964e-05
5.3207e-05
3.787e-05
5.11522e-05
5.11351e-05
5.33155e-05
5.32356e-05
5.33093e-05
5.09924e-05
5.09977e-05
5.10969e-05
5.10996e-05
5.3246e-05
5.33206e-05
5.10061e-05
5.0992e-05
5.11119e-05
5.11013e-05
5.0978e-05
5.11213e-05
5.10918e-05
5.32251e-05
5.33014e-05
5.09666e-05
5.11057e-05
5.10817e-05
5.32799e-05
5.33447e-05
5.11299e-05
5.11344e-05
5.33556e-05
5.11438e-05
5.11286e-05
5.11143e-05
5.33368e-05
5.11021e-05
6.86123e-05
7.31079e-05
7.31231e-05
6.85917e-05
7.08217e-05
7.08363e-05
6.8628e-05
7.31208e-05
7.31357e-05
6.86062e-05
3.76277e-05
3.7631e-05
3.75981e-05
3.78171e-05
3.77922e-05
3.78111e-05
3.77868e-05
6.06256e-05
6.47975e-05
4.60143e-05
5.10539e-05
6.48176e-05
4.60672e-05
6.05904e-05
7.08116e-05
7.08257e-05
6.0589e-05
4.5995e-05
6.47861e-05
5.10373e-05
4.60475e-05
6.48067e-05
6.05568e-05
6.98762e-05
6.98807e-05
5.32264e-05
6.98857e-05
6.98912e-05
7.31413e-05
6.86391e-05
7.0846e-05
7.31547e-05
6.86566e-05
3.78515e-05
3.78533e-05
3.78214e-05
6.07058e-05
6.48435e-05
4.61838e-05
6.06733e-05
4.62307e-05
7.0836e-05
6.06609e-05
4.61659e-05
6.48382e-05
6.06343e-05
4.6213e-05
6.99036e-05
6.99107e-05
5.33279e-05
6.99127e-05
6.99198e-05
7.0811e-05
7.08261e-05
7.08186e-05
7.08337e-05
6.98925e-05
6.99023e-05
5.32548e-05
6.99058e-05
6.99147e-05
7.08392e-05
7.08246e-05
7.08467e-05
7.08323e-05
5.32919e-05
6.99243e-05
6.99356e-05
6.99114e-05
6.99219e-05
6.86121e-05
7.3119e-05
7.3131e-05
6.85945e-05
6.05883e-05
6.47817e-05
4.59802e-05
5.1031e-05
6.48029e-05
4.60237e-05
6.0558e-05
6.05916e-05
6.48038e-05
4.59808e-05
5.10331e-05
6.48257e-05
4.60252e-05
6.05627e-05
6.8615e-05
7.31396e-05
7.31265e-05
6.86333e-05
6.86173e-05
7.31452e-05
7.31323e-05
6.86346e-05
6.05998e-05
5.10643e-05
6.48325e-05
4.61077e-05
6.48098e-05
4.60728e-05
6.06262e-05
6.05998e-05
5.10702e-05
6.48511e-05
4.61099e-05
6.48308e-05
4.60734e-05
6.06285e-05
6.99139e-05
6.9904e-05
5.32654e-05
6.99256e-05
6.99169e-05
7.08204e-05
7.0835e-05
7.08483e-05
7.08343e-05
5.33024e-05
6.99466e-05
6.99347e-05
6.99339e-05
6.99222e-05
7.08473e-05
7.08333e-05
6.06179e-05
6.48001e-05
4.60145e-05
5.1046e-05
6.48192e-05
4.60641e-05
6.05822e-05
6.86206e-05
7.31092e-05
7.31213e-05
6.85991e-05
6.0607e-05
4.60069e-05
6.47828e-05
5.10314e-05
4.60567e-05
6.47978e-05
6.05794e-05
6.86335e-05
7.31518e-05
7.31389e-05
6.86508e-05
6.06233e-05
5.10785e-05
6.48447e-05
4.61527e-05
6.48229e-05
4.61067e-05
6.06548e-05
6.86229e-05
7.31352e-05
7.31242e-05
6.86412e-05
6.06187e-05
5.10643e-05
4.61455e-05
6.48198e-05
4.60982e-05
6.48034e-05
6.06456e-05
6.86291e-05
7.31221e-05
7.31338e-05
6.86078e-05
6.06278e-05
4.59967e-05
6.47883e-05
5.10236e-05
4.60542e-05
6.48096e-05
6.05955e-05
6.86415e-05
7.31113e-05
7.3126e-05
6.862e-05
6.06322e-05
5.10886e-05
6.48357e-05
4.6153e-05
6.48221e-05
4.61058e-05
6.06649e-05
6.86323e-05
7.31491e-05
7.31367e-05
6.8649e-05
6.06391e-05
5.10498e-05
4.61423e-05
6.48333e-05
4.60882e-05
6.48148e-05
6.06686e-05
6.86445e-05
7.31396e-05
7.31277e-05
6.86634e-05
6.98894e-05
6.98909e-05
5.32454e-05
6.98987e-05
6.99013e-05
7.08146e-05
7.08292e-05
7.08378e-05
7.08241e-05
5.32833e-05
6.99161e-05
6.992e-05
6.99049e-05
6.99085e-05
7.08418e-05
7.08277e-05
6.05826e-05
4.59768e-05
6.47704e-05
5.10124e-05
4.60341e-05
6.47844e-05
6.05532e-05
6.86084e-05
7.31149e-05
7.31297e-05
6.85898e-05
6.8601e-05
7.31008e-05
7.31154e-05
6.85819e-05
6.05949e-05
5.10692e-05
4.61338e-05
6.48321e-05
4.60866e-05
6.48122e-05
6.06215e-05
6.05944e-05
5.10382e-05
4.61227e-05
6.48076e-05
4.60681e-05
6.47919e-05
6.06163e-05
6.86111e-05
7.31449e-05
7.3133e-05
6.86277e-05
6.86072e-05
7.31305e-05
7.31169e-05
6.8621e-05
7.08087e-05
7.08223e-05
7.0807e-05
7.08215e-05
5.32629e-05
6.98985e-05
6.99076e-05
6.98896e-05
6.98966e-05
7.08338e-05
7.08204e-05
7.08338e-05
7.08199e-05
7.08375e-05
7.08451e-05
6.99293e-05
6.99404e-05
7.3146e-05
6.86382e-05
6.4837e-05
4.6156e-05
6.06389e-05
6.4855e-05
4.61565e-05
6.06398e-05
6.99529e-05
6.9939e-05
7.08454e-05
6.48514e-05
4.61885e-05
6.06676e-05
7.31381e-05
6.8647e-05
4.61795e-05
6.4825e-05
6.06506e-05
6.86611e-05
7.31521e-05
6.86544e-05
6.07122e-05
4.61686e-05
6.48369e-05
5.11515e-05
6.06815e-05
4.62202e-05
6.48539e-05
6.86804e-05
7.31404e-05
6.86687e-05
7.31514e-05
6.9922e-05
6.99274e-05
7.08402e-05
6.0656e-05
4.61498e-05
6.48156e-05
5.11441e-05
6.06262e-05
4.62028e-05
6.4828e-05
6.86518e-05
7.3148e-05
6.86329e-05
6.86451e-05
7.31314e-05
6.86261e-05
7.31445e-05
7.08319e-05
7.08449e-05
7.0832e-05
7.08455e-05
7.14778e-05
7.12367e-05
7.16482e-05
6.86046e-05
7.12289e-05
7.16394e-05
7.14846e-05
7.13291e-05
7.31156e-05
7.97246e-05
7.9731e-05
7.13173e-05
7.13244e-05
7.97387e-05
7.31167e-05
7.97332e-05
7.13361e-05
7.14766e-05
6.8601e-05
7.122e-05
7.1631e-05
7.12289e-05
7.16375e-05
7.14698e-05
7.083e-05
7.08281e-05
7.1494e-05
7.16615e-05
7.12534e-05
6.86215e-05
7.16546e-05
7.12472e-05
7.15004e-05
7.13407e-05
7.31281e-05
7.973e-05
7.97359e-05
7.13291e-05
7.1336e-05
7.97453e-05
7.31313e-05
7.97404e-05
7.13475e-05
7.14928e-05
6.86158e-05
7.16404e-05
7.12389e-05
7.165e-05
7.12445e-05
7.14863e-05
7.08195e-05
7.08179e-05
9.49153e-05
7.31598e-05
7.31537e-05
7.31496e-05
7.31435e-05
9.49164e-05
7.41856e-05
6.52469e-05
6.98787e-05
7.2959e-05
6.5252e-05
7.2965e-05
7.4182e-05
7.42432e-05
6.52588e-05
6.98843e-05
7.29696e-05
6.52697e-05
7.29749e-05
7.42396e-05
7.41922e-05
7.29713e-05
6.98816e-05
6.52644e-05
6.52569e-05
7.29653e-05
7.41964e-05
7.42526e-05
7.29817e-05
6.9888e-05
6.52863e-05
6.52777e-05
7.2977e-05
7.42568e-05
9.49093e-05
7.31443e-05
7.31382e-05
7.31546e-05
7.31485e-05
9.49082e-05
7.13564e-05
7.97592e-05
7.31485e-05
7.1345e-05
7.97657e-05
7.15075e-05
6.86451e-05
7.12531e-05
7.16709e-05
7.15013e-05
7.12599e-05
7.16804e-05
7.08539e-05
7.13665e-05
7.9766e-05
7.31613e-05
7.13554e-05
7.97728e-05
7.15223e-05
6.86636e-05
7.16859e-05
7.12686e-05
7.15161e-05
7.16961e-05
7.12745e-05
7.08435e-05
9.49396e-05
7.31788e-05
7.31726e-05
7.31689e-05
7.31628e-05
9.49399e-05
7.42272e-05
6.52955e-05
7.29851e-05
6.99067e-05
7.42244e-05
6.53027e-05
7.29897e-05
7.42915e-05
6.53287e-05
7.29962e-05
6.99135e-05
7.42898e-05
6.53367e-05
7.30024e-05
9.4935e-05
7.31644e-05
7.31582e-05
9.49347e-05
7.31743e-05
7.31682e-05
7.42366e-05
7.29965e-05
6.99098e-05
6.5317e-05
6.5312e-05
7.29912e-05
7.42382e-05
7.42941e-05
7.30059e-05
6.99178e-05
6.53387e-05
6.53395e-05
7.30032e-05
7.42932e-05
7.08193e-05
7.08179e-05
7.08269e-05
7.08256e-05
9.49386e-05
7.31718e-05
7.31653e-05
7.31612e-05
7.31547e-05
9.494e-05
7.42135e-05
6.52618e-05
6.98954e-05
7.29731e-05
7.29786e-05
6.52711e-05
7.42078e-05
7.42575e-05
6.52718e-05
6.9906e-05
7.29828e-05
7.29899e-05
6.52823e-05
7.42536e-05
7.42186e-05
7.2986e-05
6.9901e-05
6.52849e-05
7.29805e-05
7.4224e-05
6.52782e-05
7.4264e-05
7.29968e-05
6.99116e-05
6.52961e-05
7.29919e-05
7.42663e-05
6.52886e-05
9.49309e-05
7.31552e-05
7.31487e-05
7.31659e-05
7.31594e-05
9.49296e-05
7.08312e-05
7.08327e-05
7.08388e-05
7.08403e-05
9.4949e-05
7.31669e-05
7.31605e-05
9.49478e-05
7.31774e-05
7.3171e-05
7.42391e-05
6.53155e-05
6.99212e-05
7.30003e-05
7.29948e-05
6.53062e-05
7.42435e-05
7.42857e-05
6.53278e-05
6.99325e-05
7.30112e-05
7.30059e-05
6.53199e-05
7.42904e-05
7.42313e-05
7.29877e-05
6.52919e-05
6.99138e-05
7.42304e-05
7.29933e-05
6.53001e-05
7.42785e-05
7.29979e-05
6.53041e-05
6.99264e-05
7.42745e-05
7.30041e-05
6.53128e-05
9.4957e-05
7.31829e-05
7.31765e-05
7.31725e-05
7.31661e-05
9.49583e-05
7.14794e-05
7.12365e-05
7.16515e-05
6.86069e-05
7.12303e-05
7.16425e-05
7.1486e-05
7.13344e-05
7.31234e-05
7.97185e-05
7.97239e-05
7.13231e-05
7.13293e-05
7.9731e-05
7.31268e-05
7.97262e-05
7.13405e-05
7.14783e-05
6.86005e-05
7.12226e-05
7.16338e-05
7.12285e-05
7.16404e-05
7.14717e-05
7.14925e-05
7.12382e-05
7.16525e-05
6.86234e-05
7.14858e-05
7.12442e-05
7.16588e-05
7.13384e-05
7.31348e-05
7.97559e-05
7.13498e-05
7.97521e-05
7.13431e-05
7.97425e-05
7.31312e-05
7.13315e-05
7.9748e-05
7.14936e-05
6.86272e-05
7.12507e-05
7.16692e-05
7.15002e-05
7.12461e-05
7.16608e-05
7.14937e-05
7.12358e-05
7.1656e-05
6.8624e-05
7.14872e-05
7.12447e-05
7.16628e-05
7.13414e-05
7.31409e-05
7.97467e-05
7.97427e-05
7.13524e-05
7.13466e-05
7.9734e-05
7.3138e-05
7.13355e-05
7.97396e-05
7.14948e-05
6.86266e-05
7.12514e-05
7.16733e-05
7.1244e-05
7.16642e-05
7.15012e-05
9.49539e-05
7.31725e-05
7.31775e-05
7.3162e-05
7.31671e-05
9.49553e-05
7.42749e-05
6.52903e-05
6.99165e-05
7.29921e-05
7.29985e-05
6.52997e-05
7.42721e-05
7.42255e-05
6.52821e-05
6.99074e-05
7.29816e-05
6.52931e-05
7.29871e-05
7.42216e-05
7.4283e-05
7.30055e-05
6.99235e-05
6.53131e-05
7.29993e-05
6.5306e-05
7.42855e-05
7.42325e-05
7.29942e-05
6.99122e-05
6.53076e-05
6.52993e-05
7.2989e-05
7.42364e-05
9.4946e-05
7.31564e-05
7.31614e-05
7.3167e-05
7.31719e-05
9.49446e-05
7.08285e-05
7.0827e-05
7.08403e-05
7.08424e-05
9.49646e-05
7.31674e-05
7.31726e-05
9.49633e-05
7.31778e-05
7.31829e-05
7.43047e-05
6.53483e-05
6.99434e-05
7.30196e-05
6.5338e-05
7.30138e-05
7.43096e-05
7.4257e-05
6.53393e-05
6.99318e-05
7.30081e-05
7.30031e-05
6.53305e-05
7.42601e-05
7.42974e-05
7.30068e-05
6.53207e-05
6.99362e-05
6.53293e-05
7.42936e-05
7.30126e-05
7.42487e-05
7.2996e-05
6.53154e-05
6.99254e-05
7.42452e-05
7.30013e-05
6.53234e-05
9.4973e-05
7.31829e-05
7.31882e-05
7.31726e-05
7.31779e-05
9.49743e-05
7.08395e-05
7.08413e-05
7.14841e-05
7.12489e-05
7.1642e-05
6.86119e-05
7.12428e-05
7.16363e-05
7.14903e-05
7.13305e-05
7.31139e-05
7.97021e-05
7.97059e-05
7.13192e-05
7.13256e-05
7.97139e-05
7.31152e-05
7.971e-05
7.13369e-05
7.14831e-05
6.86089e-05
7.12341e-05
7.16266e-05
7.12415e-05
7.16317e-05
7.14769e-05
7.15079e-05
7.16631e-05
7.12547e-05
6.86401e-05
7.15015e-05
7.16731e-05
7.12595e-05
7.13492e-05
7.31457e-05
7.97624e-05
7.13604e-05
7.97578e-05
7.13541e-05
7.97501e-05
7.31443e-05
7.13427e-05
7.97548e-05
7.15088e-05
6.8643e-05
7.16843e-05
7.12667e-05
7.15152e-05
7.16747e-05
7.1262e-05
7.14974e-05
7.12508e-05
7.16435e-05
6.86311e-05
7.14912e-05
7.1256e-05
7.16517e-05
7.13382e-05
7.31295e-05
7.97294e-05
7.97244e-05
7.13494e-05
7.13432e-05
7.97168e-05
7.31286e-05
7.1332e-05
7.9722e-05
7.14984e-05
6.86367e-05
7.12625e-05
7.16613e-05
7.12585e-05
7.16559e-05
7.15044e-05
7.1489e-05
7.16494e-05
7.12515e-05
6.86206e-05
7.16454e-05
7.12461e-05
7.14949e-05
7.13376e-05
7.31266e-05
7.97264e-05
7.97291e-05
7.13257e-05
7.13319e-05
7.97351e-05
7.31301e-05
7.97338e-05
7.13437e-05
7.14883e-05
6.86166e-05
7.1636e-05
7.12388e-05
7.16404e-05
7.12444e-05
7.14822e-05
7.14901e-05
7.1255e-05
7.16603e-05
6.8632e-05
7.12496e-05
7.16478e-05
7.14959e-05
7.13346e-05
7.31193e-05
7.97069e-05
7.97122e-05
7.13236e-05
7.13295e-05
7.97189e-05
7.31215e-05
7.97158e-05
7.13405e-05
7.14894e-05
6.86303e-05
7.12419e-05
7.16411e-05
7.12482e-05
7.16476e-05
7.14835e-05
7.15015e-05
7.16539e-05
7.12529e-05
6.86429e-05
7.14956e-05
7.16584e-05
7.12581e-05
7.13441e-05
7.31432e-05
7.97511e-05
7.97495e-05
7.13558e-05
7.13498e-05
7.9741e-05
7.31423e-05
7.1338e-05
7.97436e-05
7.15021e-05
6.86459e-05
7.16656e-05
7.12641e-05
7.16608e-05
7.12595e-05
7.1508e-05
7.1502e-05
7.12563e-05
7.16614e-05
6.86525e-05
7.14966e-05
7.12611e-05
7.16675e-05
7.13408e-05
7.31356e-05
7.97318e-05
7.973e-05
7.13516e-05
7.13461e-05
7.97239e-05
7.31331e-05
7.13353e-05
7.9726e-05
7.15026e-05
6.86578e-05
7.12667e-05
7.1673e-05
7.12625e-05
7.16687e-05
7.15077e-05
9.49284e-05
7.31628e-05
7.31699e-05
7.31524e-05
7.31595e-05
9.49296e-05
7.42497e-05
6.52628e-05
6.98921e-05
7.29769e-05
7.2983e-05
6.52717e-05
7.42472e-05
7.42001e-05
6.52559e-05
6.9894e-05
7.29708e-05
6.52651e-05
7.29775e-05
7.41971e-05
7.42564e-05
7.29898e-05
6.98969e-05
6.52841e-05
7.2984e-05
6.52773e-05
7.42624e-05
7.42064e-05
7.29843e-05
6.98985e-05
6.52788e-05
6.52705e-05
7.29779e-05
7.42106e-05
9.49212e-05
7.31466e-05
7.31537e-05
7.31572e-05
7.31643e-05
9.492e-05
7.08227e-05
7.08212e-05
7.08301e-05
7.08319e-05
9.49377e-05
7.31578e-05
7.3165e-05
9.49367e-05
7.31681e-05
7.31753e-05
7.42772e-05
6.53163e-05
6.99135e-05
7.30028e-05
6.53086e-05
7.29979e-05
7.4282e-05
7.42282e-05
6.53094e-05
6.99174e-05
7.29981e-05
7.29925e-05
6.53015e-05
7.42346e-05
7.4273e-05
7.29911e-05
6.52927e-05
6.99091e-05
6.53008e-05
7.42677e-05
7.29966e-05
7.42217e-05
7.29856e-05
6.5285e-05
6.99113e-05
7.42179e-05
7.29914e-05
6.52951e-05
9.4945e-05
7.31734e-05
7.31806e-05
7.31631e-05
7.31703e-05
9.49461e-05
7.0834e-05
7.08356e-05
7.14804e-05
7.16474e-05
7.12369e-05
6.8604e-05
7.16427e-05
7.1232e-05
7.14864e-05
7.13338e-05
7.31223e-05
7.9728e-05
7.97331e-05
7.13223e-05
7.1329e-05
7.97402e-05
7.31236e-05
7.97358e-05
7.13403e-05
7.14793e-05
6.85978e-05
7.16306e-05
7.12242e-05
7.16386e-05
7.12306e-05
7.1473e-05
7.14766e-05
7.16338e-05
7.12354e-05
6.85949e-05
7.16284e-05
7.123e-05
7.14831e-05
7.13267e-05
7.31078e-05
7.96964e-05
7.97005e-05
7.13151e-05
7.13218e-05
7.97081e-05
7.31107e-05
7.97037e-05
7.13332e-05
7.14756e-05
6.85902e-05
7.16159e-05
7.12217e-05
7.1624e-05
7.12275e-05
7.14689e-05
7.14935e-05
7.16517e-05
7.12394e-05
6.86184e-05
7.14875e-05
7.1657e-05
7.12444e-05
7.13414e-05
7.3141e-05
7.97561e-05
7.9752e-05
7.13523e-05
7.13465e-05
7.97443e-05
7.31376e-05
7.13354e-05
7.97491e-05
7.14943e-05
6.86241e-05
7.16662e-05
7.12514e-05
7.16583e-05
7.12468e-05
7.15004e-05
7.14905e-05
7.16356e-05
7.12377e-05
6.86121e-05
7.1484e-05
7.16432e-05
7.12428e-05
7.13346e-05
7.3126e-05
7.97236e-05
7.97193e-05
7.13459e-05
7.13396e-05
7.97113e-05
7.3123e-05
7.13283e-05
7.97159e-05
7.14914e-05
6.86136e-05
7.1653e-05
7.12498e-05
7.16474e-05
7.12449e-05
7.14977e-05
7.08164e-05
7.08146e-05
7.0815e-05
7.08135e-05
9.49232e-05
7.31547e-05
7.31486e-05
9.49223e-05
7.31648e-05
7.31587e-05
7.42146e-05
6.52885e-05
6.98977e-05
7.29838e-05
7.42179e-05
6.52836e-05
7.2979e-05
7.42772e-05
6.53187e-05
6.99045e-05
7.29947e-05
7.42799e-05
6.53142e-05
7.29903e-05
7.42091e-05
7.29724e-05
6.52701e-05
6.98913e-05
7.42031e-05
6.52774e-05
7.29778e-05
7.42687e-05
7.29836e-05
6.52983e-05
6.99011e-05
7.42642e-05
6.53069e-05
7.29885e-05
9.49288e-05
7.31696e-05
7.31635e-05
9.49294e-05
7.31596e-05
7.31535e-05
7.08262e-05
7.08281e-05
7.08261e-05
7.08277e-05
7.08454e-05
7.08529e-05
7.42573e-05
6.53224e-05
7.30018e-05
6.99346e-05
7.42517e-05
7.30075e-05
6.53322e-05
7.43018e-05
6.53334e-05
7.30131e-05
6.99459e-05
7.42979e-05
7.30185e-05
6.5345e-05
9.49674e-05
7.31778e-05
7.31716e-05
9.49661e-05
7.31881e-05
7.31819e-05
7.1358e-05
7.97493e-05
7.31525e-05
7.13472e-05
7.97548e-05
7.15082e-05
6.86475e-05
7.12532e-05
7.1678e-05
7.12594e-05
7.15022e-05
7.16866e-05
7.43207e-05
6.53558e-05
7.30207e-05
6.99562e-05
7.30281e-05
7.43182e-05
6.53674e-05
7.42724e-05
6.53449e-05
7.30098e-05
6.99427e-05
6.53566e-05
7.42692e-05
7.30149e-05
9.49836e-05
7.31775e-05
7.31829e-05
7.31877e-05
9.49823e-05
7.31931e-05
7.13552e-05
7.97327e-05
7.31427e-05
7.13443e-05
7.97374e-05
7.15111e-05
6.86531e-05
7.12638e-05
7.16626e-05
7.12696e-05
7.15052e-05
7.16711e-05
7.15147e-05
6.86608e-05
7.12755e-05
7.16788e-05
7.12716e-05
7.13616e-05
7.97551e-05
7.31573e-05
7.97584e-05
7.13499e-05
7.15142e-05
6.86564e-05
7.16705e-05
7.12656e-05
7.16743e-05
7.15085e-05
7.12703e-05
7.13555e-05
7.15134e-05
6.86774e-05
7.12773e-05
7.16803e-05
7.12737e-05
7.16796e-05
7.15179e-05
7.1357e-05
7.97362e-05
7.31461e-05
7.13463e-05
7.97384e-05
7.1513e-05
6.86766e-05
7.1268e-05
7.16747e-05
7.15081e-05
7.12727e-05
7.16801e-05
7.13516e-05
7.97432e-05
7.31486e-05
7.97429e-05
7.13622e-05
7.42944e-05
6.53212e-05
7.30044e-05
6.99237e-05
7.30092e-05
7.42892e-05
6.53294e-05
7.42469e-05
6.53177e-05
7.29996e-05
6.99301e-05
6.5326e-05
7.42411e-05
7.3005e-05
9.49548e-05
7.31683e-05
7.31755e-05
7.31784e-05
9.49536e-05
7.31857e-05
7.08479e-05
7.15081e-05
6.86452e-05
7.16875e-05
7.12655e-05
7.16814e-05
7.12605e-05
7.15137e-05
7.13579e-05
7.97602e-05
7.31535e-05
7.97644e-05
7.13471e-05
7.15072e-05
6.86405e-05
7.16705e-05
7.1253e-05
7.16763e-05
7.15013e-05
7.1259e-05
7.13525e-05
7.97705e-05
7.97691e-05
7.13631e-05
7.15055e-05
6.8639e-05
7.1674e-05
7.12642e-05
7.16685e-05
7.12592e-05
7.15114e-05
7.13521e-05
7.97289e-05
7.31386e-05
7.13409e-05
7.97334e-05
7.15047e-05
6.86348e-05
7.16554e-05
7.12516e-05
7.14985e-05
7.16637e-05
7.12577e-05
7.13469e-05
7.97398e-05
7.31391e-05
7.97358e-05
7.1358e-05
7.08394e-05
7.08374e-05
7.08397e-05
7.08378e-05
3.0158e-05
3.01769e-05
3.77056e-05
3.02173e-05
3.02559e-05
2.07375e-05
2.06607e-05
6.59465e-05
5.93772e-05
5.93794e-05
5.31978e-05
5.93776e-05
5.9374e-05
6.59431e-05
3.04295e-05
3.04471e-05
2.1017e-05
2.0954e-05
6.60143e-05
5.94647e-05
5.94647e-05
5.33056e-05
6.60141e-05
5.94653e-05
5.94581e-05
6.59742e-05
5.94037e-05
5.94097e-05
5.32274e-05
5.94053e-05
5.94109e-05
6.59711e-05
6.60153e-05
5.33186e-05
5.94704e-05
5.94644e-05
5.94694e-05
5.94683e-05
6.60217e-05
6.59885e-05
5.94182e-05
5.94231e-05
5.32375e-05
5.94237e-05
5.94183e-05
6.59861e-05
6.60335e-05
5.33297e-05
5.94853e-05
5.94889e-05
5.94847e-05
5.94879e-05
6.60401e-05
6.59608e-05
5.93946e-05
5.93911e-05
5.32166e-05
5.93903e-05
5.93958e-05
6.59571e-05
6.60049e-05
5.33105e-05
5.94536e-05
5.94617e-05
5.94563e-05
5.94605e-05
6.60105e-05
6.59938e-05
5.32896e-05
5.94325e-05
5.94396e-05
6.60017e-05
5.94393e-05
5.94464e-05
6.60399e-05
5.94864e-05
5.94908e-05
5.33346e-05
6.60335e-05
5.94787e-05
5.9483e-05
6.60585e-05
5.95012e-05
5.9507e-05
5.33458e-05
5.95057e-05
6.60523e-05
5.94975e-05
6.60233e-05
5.94799e-05
5.94799e-05
5.3327e-05
5.94804e-05
6.60222e-05
5.94718e-05
3.01346e-05
3.01366e-05
3.76858e-05
3.02021e-05
3.02254e-05
2.07099e-05
2.06224e-05
3.0166e-05
3.01384e-05
3.76968e-05
3.02446e-05
3.02268e-05
2.07293e-05
2.06398e-05
3.01295e-05
3.01204e-05
3.76731e-05
3.02187e-05
3.02102e-05
2.07088e-05
2.06167e-05
3.77641e-05
3.03536e-05
3.03888e-05
3.0301e-05
3.03186e-05
2.08122e-05
2.08844e-05
3.77458e-05
3.0332e-05
3.03631e-05
3.02774e-05
3.02779e-05
2.07714e-05
2.08556e-05
3.77486e-05
3.03835e-05
3.03641e-05
3.03073e-05
3.02792e-05
2.07884e-05
2.08743e-05
3.7716e-05
3.03569e-05
3.03481e-05
3.02715e-05
3.02617e-05
2.07654e-05
2.08541e-05
5.62188e-05
6.23471e-05
5.48849e-05
6.06139e-05
6.23418e-05
5.48923e-05
5.61956e-05
5.73153e-05
6.03894e-05
6.48059e-05
6.42131e-05
6.03916e-05
6.42213e-05
5.73294e-05
5.73492e-05
6.42346e-05
6.48099e-05
6.041e-05
6.04055e-05
6.42289e-05
5.73348e-05
5.61717e-05
6.06052e-05
6.23252e-05
5.48645e-05
6.23312e-05
5.48574e-05
5.61947e-05
5.61981e-05
5.48503e-05
6.23346e-05
6.05828e-05
5.48577e-05
6.23278e-05
5.61777e-05
5.73042e-05
6.03606e-05
6.47962e-05
6.42102e-05
6.0367e-05
6.42162e-05
5.73091e-05
5.73331e-05
6.42297e-05
6.47994e-05
6.03892e-05
6.0382e-05
6.42218e-05
5.73278e-05
5.61501e-05
6.05699e-05
5.48291e-05
6.2311e-05
5.48207e-05
6.23174e-05
5.61728e-05
6.59602e-05
5.32355e-05
5.93994e-05
5.93947e-05
5.93983e-05
5.9401e-05
6.59664e-05
3.04063e-05
3.04044e-05
3.04877e-05
2.09809e-05
2.09123e-05
3.04334e-05
3.04064e-05
3.04894e-05
2.09979e-05
2.0929e-05
3.03979e-05
3.03898e-05
3.78906e-05
3.04835e-05
3.04754e-05
2.09779e-05
2.09062e-05
5.63059e-05
6.06986e-05
6.24047e-05
5.49812e-05
6.23971e-05
5.49906e-05
5.62823e-05
5.73921e-05
6.04585e-05
6.42643e-05
6.48489e-05
5.74067e-05
6.04654e-05
6.42711e-05
5.6262e-05
6.06866e-05
6.2382e-05
5.49681e-05
5.62855e-05
6.23923e-05
5.49598e-05
5.62923e-05
6.06555e-05
5.495e-05
6.24021e-05
5.49625e-05
6.23944e-05
5.62827e-05
5.73952e-05
6.04397e-05
6.42643e-05
6.48476e-05
5.74008e-05
6.04443e-05
6.42738e-05
5.62615e-05
6.0643e-05
5.49378e-05
6.23718e-05
5.62706e-05
5.4931e-05
6.23843e-05
5.74213e-05
6.42875e-05
6.42797e-05
5.74118e-05
6.60272e-05
5.33396e-05
5.94752e-05
5.94737e-05
5.94835e-05
5.94822e-05
6.60288e-05
6.59852e-05
5.3264e-05
5.9418e-05
5.94198e-05
6.59895e-05
5.94228e-05
5.94273e-05
6.60045e-05
5.32827e-05
5.94454e-05
5.9451e-05
6.60026e-05
5.94388e-05
5.94517e-05
5.61953e-05
6.23329e-05
5.48534e-05
6.0583e-05
6.23251e-05
5.486e-05
5.61854e-05
5.72955e-05
6.0361e-05
6.47914e-05
6.4203e-05
6.42112e-05
6.03611e-05
5.72999e-05
5.7322e-05
6.42251e-05
6.47956e-05
6.03851e-05
6.42177e-05
6.03837e-05
5.73191e-05
5.6157e-05
6.05702e-05
6.23028e-05
5.4832e-05
6.23145e-05
5.48254e-05
5.6169e-05
5.62003e-05
6.23392e-05
5.48534e-05
6.05844e-05
6.23269e-05
5.48598e-05
5.619e-05
5.73098e-05
6.03884e-05
6.48138e-05
6.42151e-05
6.42204e-05
6.03904e-05
5.7314e-05
5.73401e-05
6.42367e-05
6.48189e-05
6.04103e-05
6.42311e-05
5.73354e-05
6.04082e-05
5.61613e-05
6.05717e-05
6.23128e-05
5.48306e-05
6.23216e-05
5.48247e-05
5.61699e-05
5.62095e-05
6.23378e-05
5.48868e-05
6.06074e-05
5.62184e-05
6.23492e-05
5.48801e-05
5.73657e-05
6.04184e-05
6.48247e-05
6.42558e-05
6.04202e-05
6.42493e-05
5.73618e-05
5.73403e-05
6.42326e-05
6.03953e-05
6.48179e-05
6.03994e-05
5.7343e-05
6.42401e-05
5.6242e-05
6.06195e-05
6.23672e-05
5.4906e-05
6.23595e-05
5.4913e-05
5.62325e-05
5.62182e-05
6.23497e-05
5.48877e-05
6.06094e-05
5.62298e-05
6.23572e-05
5.4881e-05
5.7387e-05
6.04449e-05
6.48432e-05
6.42673e-05
6.42628e-05
6.04403e-05
5.73737e-05
5.73551e-05
6.42431e-05
6.04273e-05
6.48387e-05
5.73646e-05
6.42514e-05
6.04298e-05
5.62577e-05
6.06212e-05
6.23764e-05
5.49079e-05
6.2368e-05
5.49149e-05
5.62454e-05
6.60008e-05
5.32744e-05
5.94383e-05
5.94368e-05
5.944e-05
5.94384e-05
6.60037e-05
6.60208e-05
5.32929e-05
5.94601e-05
5.94623e-05
5.94534e-05
6.60172e-05
5.94597e-05
5.62265e-05
6.23588e-05
5.48833e-05
6.06059e-05
6.23506e-05
5.48902e-05
5.62075e-05
5.73073e-05
6.03749e-05
6.48058e-05
6.42235e-05
6.42286e-05
6.03705e-05
5.7321e-05
5.73431e-05
6.42443e-05
6.48139e-05
6.03992e-05
6.42376e-05
6.03977e-05
5.73291e-05
5.61851e-05
6.05974e-05
6.23321e-05
5.48617e-05
6.23399e-05
5.48553e-05
5.6198e-05
5.62039e-05
5.48722e-05
6.23338e-05
6.06007e-05
5.48797e-05
6.23232e-05
5.6181e-05
5.72982e-05
6.03649e-05
6.47885e-05
6.41994e-05
6.42063e-05
6.03666e-05
5.73097e-05
5.73318e-05
6.42197e-05
6.47923e-05
6.03851e-05
6.42169e-05
5.73179e-05
6.03832e-05
5.61561e-05
6.05885e-05
5.48509e-05
6.23111e-05
5.48437e-05
6.23184e-05
5.61787e-05
5.62295e-05
6.23639e-05
5.49175e-05
6.06374e-05
5.62515e-05
6.23759e-05
5.49102e-05
5.73854e-05
6.0436e-05
6.48376e-05
6.42742e-05
6.04298e-05
6.42673e-05
5.73714e-05
5.73504e-05
6.42548e-05
6.04149e-05
6.48324e-05
6.04171e-05
5.73645e-05
6.42595e-05
5.6275e-05
6.06432e-05
6.2393e-05
5.49361e-05
6.23864e-05
5.49438e-05
5.62517e-05
5.62047e-05
5.4907e-05
6.23437e-05
6.06261e-05
5.62278e-05
5.48993e-05
6.23496e-05
5.737e-05
6.04191e-05
6.48173e-05
6.42471e-05
6.42436e-05
6.04174e-05
5.73553e-05
5.7337e-05
6.423e-05
6.04006e-05
6.48098e-05
5.73514e-05
6.42335e-05
6.04028e-05
5.62509e-05
6.06386e-05
5.49255e-05
6.2366e-05
5.49334e-05
6.23597e-05
5.62276e-05
5.62029e-05
5.48829e-05
6.2345e-05
6.06211e-05
5.48889e-05
6.23395e-05
5.61953e-05
5.72984e-05
6.03628e-05
6.47983e-05
6.42065e-05
6.03568e-05
6.42153e-05
5.72998e-05
5.73226e-05
6.42311e-05
6.48026e-05
6.03886e-05
6.03862e-05
6.42231e-05
5.73209e-05
5.61708e-05
6.06088e-05
5.48608e-05
6.23187e-05
5.48552e-05
6.23297e-05
5.61778e-05
5.62182e-05
6.23572e-05
5.49186e-05
6.06452e-05
5.62417e-05
6.23623e-05
5.49109e-05
5.73874e-05
6.04402e-05
6.48322e-05
6.42586e-05
5.73749e-05
6.04403e-05
6.42551e-05
5.73541e-05
6.42436e-05
6.04265e-05
6.48277e-05
5.73687e-05
6.04257e-05
6.42499e-05
5.62642e-05
6.06528e-05
6.23777e-05
5.49362e-05
5.62407e-05
6.23723e-05
5.4944e-05
5.62183e-05
5.49153e-05
6.23545e-05
6.06495e-05
5.62263e-05
5.49089e-05
6.23602e-05
5.73641e-05
6.04225e-05
6.48269e-05
6.42572e-05
6.42495e-05
6.04198e-05
5.73616e-05
5.73415e-05
6.42372e-05
6.04027e-05
6.48231e-05
5.7344e-05
6.42433e-05
6.04043e-05
5.62485e-05
6.06574e-05
5.49339e-05
6.23726e-05
5.49407e-05
6.23643e-05
5.62402e-05
6.59729e-05
5.32547e-05
5.94075e-05
5.9408e-05
5.94163e-05
5.94141e-05
6.59755e-05
6.59953e-05
5.32745e-05
5.94392e-05
5.94404e-05
5.94401e-05
6.59916e-05
5.94411e-05
5.61809e-05
5.4848e-05
6.23187e-05
6.05732e-05
5.48557e-05
6.23075e-05
5.6158e-05
5.72646e-05
6.03509e-05
6.47757e-05
6.4179e-05
6.03476e-05
6.41873e-05
5.72777e-05
5.73016e-05
6.42015e-05
6.47795e-05
6.03678e-05
6.03693e-05
6.41957e-05
5.72896e-05
5.61328e-05
6.05651e-05
5.48285e-05
6.22948e-05
5.48209e-05
6.23023e-05
5.61556e-05
5.62101e-05
5.48852e-05
6.23389e-05
6.06068e-05
5.62232e-05
5.48782e-05
6.23499e-05
5.73793e-05
6.04207e-05
6.48262e-05
6.42577e-05
5.73738e-05
6.04206e-05
6.42515e-05
5.73512e-05
6.4238e-05
6.04063e-05
6.4821e-05
5.73568e-05
6.04035e-05
6.4246e-05
5.62491e-05
6.06115e-05
5.49052e-05
6.23673e-05
5.62389e-05
5.4912e-05
6.23599e-05
5.6182e-05
5.4882e-05
6.23235e-05
6.06014e-05
5.62052e-05
5.48741e-05
6.23339e-05
5.73487e-05
6.04057e-05
6.48034e-05
6.4231e-05
6.42228e-05
6.04029e-05
5.73419e-05
5.73178e-05
6.42125e-05
6.03883e-05
6.47969e-05
5.73254e-05
6.42179e-05
6.03858e-05
5.62293e-05
6.06045e-05
5.48996e-05
6.2351e-05
5.49075e-05
6.23438e-05
5.62061e-05
6.59832e-05
5.32534e-05
5.94182e-05
5.9424e-05
6.59774e-05
5.94194e-05
5.94178e-05
5.73861e-05
6.04365e-05
6.42673e-05
6.48466e-05
6.42726e-05
5.73905e-05
6.04361e-05
5.62577e-05
6.06446e-05
6.23724e-05
5.49388e-05
6.23846e-05
5.62684e-05
5.49322e-05
5.73923e-05
6.0464e-05
6.4275e-05
6.4865e-05
5.74072e-05
6.42838e-05
6.04636e-05
5.62645e-05
6.06498e-05
6.23817e-05
5.49413e-05
5.62835e-05
6.23951e-05
5.49337e-05
5.73928e-05
6.04512e-05
6.42824e-05
6.48604e-05
6.42906e-05
5.74068e-05
6.04495e-05
5.6274e-05
6.06741e-05
6.2404e-05
5.49693e-05
6.24117e-05
5.62974e-05
5.49613e-05
5.73732e-05
6.0434e-05
6.42512e-05
6.48314e-05
5.73878e-05
6.42594e-05
6.04351e-05
5.62493e-05
6.06622e-05
5.49587e-05
6.23705e-05
5.62727e-05
5.49504e-05
6.23808e-05
5.62896e-05
6.07031e-05
5.49791e-05
6.23956e-05
5.49869e-05
6.23897e-05
5.628e-05
5.73805e-05
6.04366e-05
6.42667e-05
6.48464e-05
6.04338e-05
5.73836e-05
6.42698e-05
5.62609e-05
6.06898e-05
5.49648e-05
6.23819e-05
5.49574e-05
5.62697e-05
6.23865e-05
5.74042e-05
6.4277e-05
6.48492e-05
6.0464e-05
6.04627e-05
6.42786e-05
5.74004e-05
5.6275e-05
6.06494e-05
5.49415e-05
6.23855e-05
5.49568e-05
6.23781e-05
5.62507e-05
5.73646e-05
6.04285e-05
6.42369e-05
6.48202e-05
6.04297e-05
5.73713e-05
6.42468e-05
5.62291e-05
6.0637e-05
5.49326e-05
6.23566e-05
5.49247e-05
5.62524e-05
6.23677e-05
5.73922e-05
6.42594e-05
6.48229e-05
6.04456e-05
6.04461e-05
6.42518e-05
5.73787e-05
3.64633e-05
4.1768e-05
3.64623e-05
7.1353e-05
6.01856e-05
6.95314e-05
6.68967e-05
6.68935e-05
6.95295e-05
6.01863e-05
7.13556e-05
7.01857e-05
7.13398e-05
7.73921e-05
7.73705e-05
7.01997e-05
6.95188e-05
7.00876e-05
5.93323e-05
6.68819e-05
7.11437e-05
5.92824e-05
7.11286e-05
7.01097e-05
7.00369e-05
5.93246e-05
6.68786e-05
7.11358e-05
7.11182e-05
5.9277e-05
7.0058e-05
9.23433e-05
7.20304e-05
7.20359e-05
7.20164e-05
7.20219e-05
9.2352e-05
6.95168e-05
7.01834e-05
7.134e-05
7.74004e-05
7.73806e-05
7.01981e-05
5.95215e-05
4.17523e-05
5.05027e-05
5.05026e-05
5.04692e-05
5.04694e-05
5.95536e-05
4.80472e-05
5.25228e-05
6.01419e-05
5.85141e-05
5.84547e-05
5.248e-05
4.80861e-05
4.80555e-05
5.25153e-05
6.01443e-05
5.85161e-05
5.24855e-05
5.84603e-05
4.8071e-05
2.10431e-05
3.66932e-05
3.66982e-05
4.19479e-05
2.18012e-05
3.75989e-05
3.76036e-05
4.26722e-05
2.25776e-05
3.84789e-05
3.84836e-05
4.33668e-05
2.33686e-05
3.9333e-05
3.93376e-05
4.40435e-05
2.41705e-05
4.0161e-05
4.01653e-05
4.46941e-05
2.498e-05
4.09634e-05
4.09675e-05
4.53511e-05
2.57939e-05
4.17406e-05
4.17439e-05
4.59658e-05
2.66092e-05
4.24932e-05
4.24957e-05
4.65619e-05
2.74234e-05
4.32224e-05
4.32238e-05
4.71268e-05
2.82338e-05
4.3929e-05
4.39296e-05
4.76878e-05
2.9038e-05
4.46143e-05
4.46136e-05
4.82473e-05
2.98332e-05
4.52784e-05
4.52761e-05
4.8765e-05
3.06162e-05
4.59199e-05
4.59162e-05
4.92778e-05
3.13829e-05
4.65364e-05
4.65318e-05
4.97609e-05
3.21285e-05
4.71245e-05
4.71192e-05
5.02078e-05
3.28473e-05
4.76806e-05
4.76751e-05
5.06394e-05
3.35336e-05
4.82001e-05
4.81949e-05
5.10286e-05
3.41818e-05
4.86794e-05
4.86747e-05
5.13886e-05
3.47865e-05
4.91155e-05
4.9112e-05
5.17152e-05
3.53443e-05
4.95075e-05
4.95052e-05
5.20132e-05
3.5853e-05
4.98578e-05
4.98549e-05
5.23024e-05
3.63108e-05
5.01662e-05
5.01599e-05
5.25475e-05
3.67176e-05
5.04343e-05
5.04226e-05
5.27548e-05
3.70741e-05
5.06635e-05
5.06457e-05
5.29327e-05