/*--------------------------------*- C++ -*----------------------------------*\
| =========                 |                                                 |
| \\      /  F ield         | OpenFOAM: The Open Source CFD Toolbox           |
|  \\    /   O peration     | Version:  2312                                  |
|   \\  /    A nd           | Website:  www.openfoam.com                      |
|    \\/     M anipulation  |                                                 |
\*---------------------------------------------------------------------------*/
FoamFile
{
    version     2.0;
    format      ascii;
    arch        "LSB;label=32;scalar=64";
    class       volVectorField;
    location    "300";
    object      U;
}
// * * * * * * * * * * * * * * * * * * * * * * * * * * * * * * * * * * * * * //

dimensions      [0 1 -1 0 0 0 0];

internalField   nonuniform List<vector> 
43496
(
(-1.34957e-05 -2.1971e-07 0.0911885)
(-5.71796e-06 2.88027e-06 0.0713725)
(-1.70077e-06 3.33251e-06 0.107568)
(-6.41624e-06 1.70216e-05 0.0928506)
(-2.16889e-05 -3.78721e-07 0.098429)
(-4.09151e-06 -7.55987e-07 0.110063)
(-1.35165e-05 2.00116e-09 0.0911876)
(-1.08649e-05 9.80934e-07 0.0820262)
(-2.16982e-05 2.43978e-07 0.0984287)
(-3.38284e-06 1.45354e-06 0.107562)
(-4.1205e-06 8.07762e-07 0.110061)
(-1.69698e-05 6.30583e-06 0.0928464)
(-3.74397e-05 3.72715e-05 0.104309)
(-8.22483e-06 5.64843e-06 0.0873565)
(-5.75328e-06 8.22049e-06 0.0873617)
(-2.94931e-06 5.70571e-06 0.0713757)
(-1.00976e-06 1.08927e-05 0.0820295)
(5.48266e-06 -5.50948e-07 0.0766317)
(8.7871e-06 -1.66369e-07 0.0911448)
(-1.32199e-05 -6.2009e-07 0.0897031)
(-6.59627e-06 7.49638e-08 0.0784435)
(8.9248e-06 3.33925e-08 0.0896533)
(5.16457e-06 -2.28655e-07 0.0784029)
(-6.69597e-06 6.28687e-07 0.0766791)
(5.49819e-06 -5.13468e-07 0.0681912)
(-1.07086e-05 -7.5029e-07 0.0856267)
(7.95128e-06 -5.24706e-08 0.0855705)
(-5.99493e-06 4.39603e-07 0.0682532)
(4.90337e-06 -3.21446e-06 0.0713184)
(5.46073e-06 4.24608e-07 0.0766275)
(8.76271e-06 -8.72148e-08 0.091144)
(-6.5795e-06 -2.23024e-07 0.0784418)
(-1.32444e-05 4.54159e-07 0.0897002)
(5.18039e-06 6.23197e-08 0.0784013)
(8.88395e-06 -2.42696e-07 0.089651)
(-6.68983e-06 -7.18559e-07 0.0766747)
(5.4753e-06 4.77089e-07 0.0681892)
(-1.07153e-05 6.70417e-07 0.0856232)
(8.93236e-06 -9.68083e-07 0.0819755)
(7.91472e-06 -5.36378e-08 0.0855679)
(-5.98953e-06 -4.47614e-07 0.0682509)
(4.51446e-06 -4.52545e-06 0.0833773)
(-3.54418e-06 4.91218e-06 0.0681648)
(-4.96648e-06 3.49877e-06 0.0681712)
(3.02075e-06 -4.6344e-06 0.0681079)
(4.61618e-06 -3.04056e-06 0.068114)
(-6.1813e-06 6.13803e-06 0.0834237)
(1.07176e-05 -6.09667e-06 0.0914542)
(-7.17395e-06 3.65995e-06 0.0813648)
(5.62891e-06 -5.00708e-06 0.0873083)
(-2.05306e-05 1.13538e-05 0.0961479)
(5.20748e-06 -3.60329e-06 0.0813137)
(1.54058e-05 -8.83509e-06 0.0960991)
(-1.45851e-05 8.38013e-06 0.0915015)
(6.01224e-06 -1.07376e-05 0.091462)
(-3.70825e-06 7.12556e-06 0.0813728)
(4.87851e-06 -5.64137e-06 0.0873123)
(-1.1516e-05 2.05017e-05 0.0961535)
(8.6897e-06 -1.53961e-05 0.096104)
(3.55928e-06 -5.22199e-06 0.0813207)
(-8.49031e-06 1.45595e-05 0.0915096)
(3.10762e-06 -4.9503e-06 0.071321)
(8.73491e-07 -8.92785e-06 0.0819786)
(-3.17189e-06 -6.79615e-07 0.115369)
(-3.39746e-06 3.19838e-06 0.11273)
(-3.27462e-06 9.29833e-07 0.115367)
(4.78004e-06 -1.27943e-05 0.0927941)
(-9.11173e-06 4.4666e-05 0.0994702)
(6.71593e-06 -3.85144e-05 0.0994078)
(3.652e-05 5.18728e-07 0.102812)
(1.46041e-05 -9.16416e-08 0.0983711)
(-2.19723e-05 -1.47413e-06 0.0974607)
(-4.48012e-05 -3.60534e-07 0.103583)
(1.51328e-05 3.05958e-07 0.0973936)
(3.54431e-05 -2.33248e-07 0.103483)
(-4.58853e-05 -1.9486e-06 0.102934)
(3.88393e-05 3.05054e-06 0.101236)
(-2.07171e-05 -3.60829e-06 0.0954834)
(1.51398e-05 1.74397e-06 0.0954146)
(-4.67558e-05 -5.28157e-06 0.101345)
(3.65049e-05 -6.48632e-07 0.102811)
(1.45879e-05 -9.13835e-08 0.0983709)
(-4.48285e-05 3.19176e-07 0.103582)
(-2.19915e-05 1.30761e-06 0.0974594)
(3.54433e-05 1.35517e-07 0.103483)
(1.51131e-05 -5.19334e-07 0.0973931)
(-4.59537e-05 1.8816e-06 0.102933)
(3.88329e-05 -3.18282e-06 0.101235)
(-2.06991e-05 3.46297e-06 0.0954814)
(1.28366e-05 -4.93422e-06 0.0927902)
(-4.46524e-05 8.92956e-06 0.0994648)
(1.51352e-05 -1.90078e-06 0.0954136)
(-4.68087e-05 5.17931e-06 0.101342)
(3.86118e-05 -6.93497e-06 0.0994027)
(1.40453e-05 -1.4175e-05 0.0973861)
(2.9837e-05 -3.00377e-05 0.104188)
(-2.22333e-05 3.77604e-05 0.101427)
(-3.7954e-05 2.21265e-05 0.101431)
(3.25234e-05 -1.62753e-05 0.101361)
(1.61645e-05 -3.27172e-05 0.101356)
(-1.91306e-05 1.90266e-05 0.0974429)
(-3.7412e-06 -3.65157e-06 0.112754)
(4.25013e-06 -2.13175e-06 0.107578)
(-2.07619e-06 4.26947e-06 0.107575)
(-2.94813e-05 -2.92141e-05 0.104193)
(-3.51348e-06 -3.25226e-06 0.112739)
(3.54412e-06 -1.77967e-06 0.107572)
(-1.8219e-06 3.56586e-06 0.107569)
(-2.99708e-05 -2.96767e-05 0.104191)
(2.93079e-05 2.9375e-05 0.104192)
(-3.77121e-05 -3.75851e-05 0.104313)
(-2.04231e-06 -4.15379e-06 0.107579)
(1.87386e-06 -4.34485e-06 0.107577)
(-1.88258e-06 -3.67627e-06 0.107574)
(1.62619e-06 -3.92384e-06 0.10757)
(-2.94358e-05 2.91405e-05 0.104193)
(3.74751e-05 -3.77785e-05 0.104313)
(-4.19073e-06 -1.93533e-06 0.107575)
(-4.18165e-06 1.94002e-06 0.10757)
(-3.76087e-06 -1.70714e-06 0.107571)
(-3.76383e-06 1.66975e-06 0.107565)
(4.12502e-06 2.07175e-06 0.107576)
(3.70013e-06 -1.86806e-06 0.107572)
(3.5922e-06 1.8204e-06 0.107572)
(2.92946e-05 -2.93485e-05 0.10419)
(-3.77182e-05 3.75696e-05 0.10431)
(1.786e-06 4.35755e-06 0.107578)
(-1.89983e-06 3.74938e-06 0.107571)
(1.60594e-06 3.86674e-06 0.107574)
(3.74684e-05 3.77688e-05 0.104313)
(2.97097e-05 2.98551e-05 0.104191)
(-1.80594e-06 -3.50533e-06 0.107572)
(1.53844e-06 -3.70773e-06 0.10757)
(-2.99648e-05 2.96389e-05 0.104191)
(-3.61717e-06 -1.62574e-06 0.107569)
(-3.58457e-06 1.56488e-06 0.107564)
(3.47904e-06 1.73942e-06 0.107569)
(2.96952e-05 -2.9884e-05 0.104188)
(1.55644e-06 3.69126e-06 0.107572)
(-4.16632e-07 -1.38946e-05 0.0911738)
(9.64047e-07 8.7019e-06 0.0819569)
(-9.48516e-07 -1.1105e-05 0.0820126)
(-3.47744e-07 8.36903e-06 0.0911257)
(-3.58095e-06 4.59573e-06 0.0713041)
(2.44072e-06 -5.95083e-06 0.0713662)
(-1.37749e-05 -2.3707e-07 0.0911753)
(8.75092e-06 9.29952e-07 0.0819609)
(-1.10111e-05 -9.64435e-07 0.0820163)
(8.48151e-06 -1.9869e-07 0.0911278)
(3.81803e-06 -3.81205e-06 0.112756)
(-3.74095e-06 3.80072e-06 0.112749)
(3.6163e-06 3.82803e-06 0.112756)
(-3.54228e-06 -3.32899e-06 0.112742)
(3.54386e-06 -3.58972e-06 0.112743)
(-3.58774e-06 3.46358e-06 0.112737)
(3.34434e-06 3.53037e-06 0.112744)
(2.22029e-05 -2.94298e-07 0.098427)
(-1.24221e-05 4.65262e-06 0.0927819)
(5.15646e-06 -1.07384e-06 0.110079)
(4.08561e-06 -2.06067e-06 0.107576)
(1.72767e-05 -6.61833e-06 0.0928426)
(5.02796e-06 -1.03978e-06 0.110076)
(-1.38802e-05 -4.24686e-08 0.0983667)
(4.8185e-06 -3.22908e-06 0.0713024)
(-5.80234e-06 2.84835e-06 0.07136)
(-5.5182e-07 2.23658e-05 0.0984247)
(-1.11874e-06 5.20502e-06 0.110078)
(4.7625e-06 -1.23378e-05 0.0927791)
(-2.02626e-06 4.12119e-06 0.107574)
(-1.11118e-06 5.08718e-06 0.110076)
(-6.47262e-06 1.73818e-05 0.0928393)
(-1.99389e-07 -1.37716e-05 0.0983642)
(-5.54181e-06 -4.63562e-06 0.0872943)
(-5.1365e-06 -5.17427e-06 0.0872918)
(3.77133e-05 3.79988e-05 0.104314)
(8.24044e-06 6.0554e-06 0.0873475)
(5.59789e-06 8.61346e-06 0.0873447)
(8.65338e-07 8.90307e-06 0.0819727)
(-3.62189e-07 8.59333e-06 0.0911407)
(-3.37975e-06 4.75289e-06 0.071317)
(8.8735e-06 9.15373e-07 0.081976)
(8.69413e-06 -1.49256e-07 0.0911416)
(3.39607e-06 -3.44295e-06 0.112741)
(-3.50296e-06 3.33846e-06 0.112734)
(3.26131e-06 3.44282e-06 0.11274)
(2.1643e-05 -1.56206e-07 0.0984342)
(-1.28249e-05 4.68374e-06 0.0927931)
(4.40084e-06 -8.91027e-07 0.110069)
(-1.44762e-05 5.31246e-08 0.0983745)
(4.12668e-06 -7.70924e-07 0.110066)
(4.88345e-06 -3.22312e-06 0.0713154)
(-4.93774e-07 2.17794e-05 0.0984324)
(-1.05556e-06 4.44617e-06 0.110068)
(4.7663e-06 -1.27038e-05 0.0927913)
(-1.79219e-07 -1.42945e-05 0.0983728)
(-1.00221e-06 4.13442e-06 0.110066)
(-5.88535e-06 -4.63876e-06 0.0873072)
(-5.05943e-06 -5.50013e-06 0.0873052)
(3.72838e-05 3.75013e-05 0.104313)
(7.92613e-06 6.00678e-06 0.0873599)
(5.64193e-06 8.2761e-06 0.0873574)
(3.21784e-06 4.83041e-06 0.0713022)
(-2.8498e-06 -5.83865e-06 0.0713612)
(4.84176e-06 3.15903e-06 0.0713043)
(-5.79166e-06 -2.91435e-06 0.0713627)
(4.88426e-06 5.33042e-06 0.0872938)
(5.41364e-06 4.83086e-06 0.0872937)
(-3.79058e-05 -3.78264e-05 0.104314)
(-5.75433e-06 -8.48e-06 0.0873482)
(-8.45199e-06 -5.81972e-06 0.0873469)
(-2.8956e-06 -5.78514e-06 0.0713681)
(3.18955e-06 4.87405e-06 0.0713094)
(-5.76076e-06 -2.92063e-06 0.0713695)
(4.8769e-06 3.15745e-06 0.0713113)
(2.94992e-05 2.95908e-05 0.104192)
(-5.7667e-06 -8.36196e-06 0.0873549)
(-8.35155e-06 -5.78966e-06 0.0873534)
(4.86729e-06 5.43215e-06 0.0873008)
(5.49567e-06 4.84444e-06 0.0873005)
(-2.88128e-07 -1.3918e-05 0.0911738)
(-1.42163e-06 8.47494e-06 0.081959)
(4.21206e-07 -1.12439e-05 0.082016)
(-3.59418e-07 8.35056e-06 0.0911258)
(-5.9903e-07 -2.2379e-05 0.0984256)
(4.75227e-06 1.23602e-05 0.0927774)
(-1.06849e-06 -5.09477e-06 0.110086)
(-1.99732e-06 -4.01342e-06 0.107577)
(-6.47497e-06 -1.73722e-05 0.0928382)
(-1.0822e-06 -4.96283e-06 0.110082)
(-2.70456e-07 1.38641e-05 0.0983651)
(8.67424e-09 -2.24135e-05 0.0984253)
(-5.26687e-06 1.21672e-05 0.0927775)
(8.57121e-07 -5.15826e-06 0.110084)
(1.78868e-06 -4.22749e-06 0.107574)
(5.92262e-06 -1.75737e-05 0.092839)
(8.18084e-07 -5.02761e-06 0.110081)
(-2.90639e-07 1.38265e-05 0.0983648)
(-3.59768e-07 8.45464e-06 0.0911334)
(-9.9787e-07 -1.09516e-05 0.0820205)
(9.20681e-07 8.75549e-06 0.081965)
(-4.21596e-07 -1.37842e-05 0.0911811)
(-3.47008e-07 8.43465e-06 0.0911335)
(5.15623e-07 -1.11538e-05 0.0820232)
(-1.36886e-06 8.54825e-06 0.0819667)
(-2.74981e-07 -1.38022e-05 0.0911811)
(-2.91484e-07 1.40514e-05 0.0983696)
(-1.95568e-06 -3.8762e-06 0.107575)
(-6.49823e-06 -1.72098e-05 0.0928441)
(-1.04415e-06 -4.56886e-06 0.110077)
(4.73836e-06 1.25192e-05 0.0927836)
(-1.05634e-06 -4.77401e-06 0.11008)
(-6.07538e-07 -2.21347e-05 0.0984297)
(-2.89634e-07 1.40196e-05 0.0983694)
(1.71107e-06 -4.09349e-06 0.107573)
(5.97136e-06 -1.74064e-05 0.0928447)
(7.63404e-07 -4.65762e-06 0.110076)
(-5.24313e-06 1.23079e-05 0.0927835)
(8.01295e-07 -4.85286e-06 0.110079)
(1.22324e-08 -2.21785e-05 0.0984295)
(-5.36067e-06 5.09101e-06 0.0872943)
(-5.52126e-06 4.68119e-06 0.0872979)
(3.7735e-05 -3.80498e-05 0.104314)
(5.32263e-06 -8.67325e-06 0.087349)
(8.30868e-06 -6.00154e-06 0.0873515)
(-4.94137e-06 2.99242e-06 0.0713064)
(5.68057e-06 -3.11563e-06 0.0713652)
(2.56783e-06 -5.86402e-06 0.0713725)
(-3.50514e-06 4.64475e-06 0.0713108)
(-2.97052e-05 2.93429e-05 0.104192)
(5.40871e-06 -8.53114e-06 0.0873554)
(8.20317e-06 -5.95696e-06 0.0873578)
(-5.30495e-06 5.22434e-06 0.0873009)
(-5.6302e-06 4.66518e-06 0.0873046)
(5.66631e-06 -3.09659e-06 0.0713718)
(-4.97339e-06 2.97177e-06 0.0713131)
(-2.22149e-05 -3.94008e-07 0.0984217)
(1.24412e-05 4.76276e-06 0.0927781)
(-5.02277e-06 -8.95497e-07 0.110075)
(-4.06553e-06 -1.8673e-06 0.107574)
(-1.73275e-05 -6.48056e-06 0.092838)
(-4.92003e-06 -8.88224e-07 0.110072)
(1.40055e-05 -9.47067e-08 0.0983613)
(-1.37819e-05 -3.75849e-08 0.0911745)
(8.70682e-06 -1.04551e-06 0.081958)
(-1.10355e-05 8.48286e-07 0.0820125)
(8.47429e-06 -1.28133e-07 0.091127)
(-2.22171e-05 2.47275e-07 0.0984212)
(-5.03219e-06 9.74254e-07 0.110073)
(1.24196e-05 -4.89577e-06 0.0927764)
(-4.07971e-06 1.85658e-06 0.107568)
(-4.93764e-06 9.46508e-07 0.11007)
(-1.73124e-05 6.32737e-06 0.0928356)
(1.3998e-05 -7.82575e-08 0.0983609)
(8.56154e-06 -1.82485e-07 0.0911349)
(-1.09712e-05 -9.94259e-07 0.0820236)
(8.79359e-06 9.20204e-07 0.0819687)
(-1.36655e-05 -2.01606e-07 0.0911822)
(1.41997e-05 -1.10153e-07 0.0983656)
(-3.94024e-06 -1.81603e-06 0.107572)
(-1.71698e-05 -6.45348e-06 0.0928436)
(-4.53124e-06 -8.325e-07 0.110067)
(1.2584e-05 4.77293e-06 0.0927841)
(-4.72445e-06 -8.65345e-07 0.110069)
(-2.19741e-05 -3.91513e-07 0.0984256)
(8.55724e-06 -1.21293e-07 0.0911341)
(-1.0963e-05 8.91019e-07 0.0820195)
(8.7708e-06 -1.0456e-06 0.0819652)
(-1.36706e-05 -2.65513e-08 0.0911813)
(1.4196e-05 -8.70595e-08 0.0983653)
(-3.93059e-06 1.76479e-06 0.107567)
(-4.55094e-06 8.82892e-07 0.110065)
(-1.71641e-05 6.32414e-06 0.0928412)
(-4.74813e-06 9.20706e-07 0.110068)
(1.25615e-05 -4.91801e-06 0.0927822)
(-2.19761e-05 2.4277e-07 0.0984252)
(1.37289e-05 1.43504e-09 0.0911802)
(-8.76377e-06 8.48839e-07 0.0819626)
(1.092e-05 -1.14446e-06 0.0820184)
(-8.3855e-06 -3.05984e-08 0.0911313)
(2.21827e-05 4.17243e-07 0.0984261)
(5.07807e-06 9.4115e-07 0.110079)
(-1.25049e-05 -4.63599e-06 0.0927794)
(3.98372e-06 2.01085e-06 0.107575)
(4.96295e-06 9.36245e-07 0.110076)
(1.71549e-05 6.65652e-06 0.0928397)
(-1.39237e-05 5.74124e-08 0.0983661)
(1.37512e-05 2.17687e-07 0.0911793)
(-8.86776e-06 -7.62408e-07 0.0819609)
(1.08329e-05 1.22756e-06 0.0820162)
(-8.43614e-06 8.7871e-08 0.0911316)
(-1.41519e-05 -8.54029e-09 0.0983708)
(3.91334e-06 -1.99506e-06 0.107575)
(1.70781e-05 -6.57926e-06 0.0928479)
(4.58512e-06 -9.39883e-07 0.110071)
(-1.26048e-05 4.62175e-06 0.0927878)
(4.78678e-06 -1.02084e-06 0.110074)
(2.18819e-05 -2.31598e-07 0.0984307)
(-8.54428e-06 -3.5909e-08 0.0911384)
(1.08589e-05 -1.15423e-06 0.0820254)
(-8.87318e-06 8.1655e-07 0.0819699)
(1.35879e-05 1.29143e-08 0.0911868)
(-1.42001e-05 9.73639e-08 0.0983701)
(3.80568e-06 1.91959e-06 0.107572)
(4.5167e-06 8.91695e-07 0.110071)
(1.69206e-05 6.67339e-06 0.0928452)
(4.7292e-06 8.94801e-07 0.110074)
(-1.27298e-05 -4.57188e-06 0.0927854)
(2.18853e-05 4.62291e-07 0.0984299)
(-8.58282e-06 9.8242e-08 0.0911386)
(1.06947e-05 1.32125e-06 0.0820232)
(-9.0071e-06 -6.35751e-07 0.0819685)
(1.35542e-05 2.48635e-07 0.0911859)
(5.38924e-06 -4.93347e-06 0.0872925)
(4.85096e-06 -5.32302e-06 0.0872954)
(-3.79388e-05 3.78413e-05 0.104311)
(-8.43601e-06 5.70476e-06 0.0873443)
(-5.77388e-06 8.44613e-06 0.0873488)
(3.19992e-06 -4.8467e-06 0.0713042)
(-2.89312e-06 5.7771e-06 0.0713625)
(-5.76181e-06 2.85657e-06 0.0713664)
(4.84264e-06 -3.23407e-06 0.071309)
(2.94609e-05 -2.9609e-05 0.104189)
(-8.33538e-06 5.67139e-06 0.0873506)
(-5.77725e-06 8.33158e-06 0.0873554)
(5.47219e-06 -4.96272e-06 0.0872991)
(4.85675e-06 -5.46042e-06 0.0873025)
(-2.93609e-06 5.7403e-06 0.0713693)
(3.15749e-06 -4.89673e-06 0.0713112)
(1.02464e-07 2.23822e-05 0.098425)
(7.41554e-07 5.20888e-06 0.11008)
(-5.07867e-06 -1.21734e-05 0.0927774)
(1.7314e-06 4.23857e-06 0.107577)
(7.33831e-07 5.10448e-06 0.110077)
(6.21162e-06 1.75278e-05 0.0928376)
(-1.93296e-07 -1.37412e-05 0.0983643)
(-3.10411e-07 1.38569e-05 0.0911747)
(9.54031e-07 -8.69948e-06 0.0819596)
(-9.82521e-07 1.103e-05 0.0820148)
(-1.58443e-07 -8.29076e-06 0.0911256)
(-8.10309e-08 1.38548e-05 0.0911751)
(-1.2272e-06 -8.59294e-06 0.0819567)
(7.58693e-07 1.11247e-05 0.0820122)
(-1.47351e-07 -8.26434e-06 0.091125)
(-2.04011e-07 -1.40022e-05 0.0983687)
(-1.98427e-06 3.94601e-06 0.107572)
(-1.0774e-06 4.6426e-06 0.110071)
(-6.45764e-06 1.72013e-05 0.0928452)
(-1.10211e-06 4.85055e-06 0.110073)
(4.74889e-06 -1.25217e-05 0.0927855)
(-5.39648e-07 2.20908e-05 0.0984289)
(-1.85926e-07 -1.39733e-05 0.0983688)
(1.66613e-06 4.05285e-06 0.107575)
(7.00773e-07 4.64799e-06 0.110072)
(6.23104e-06 1.72949e-05 0.0928433)
(7.05673e-07 4.86532e-06 0.110075)
(-5.04217e-06 -1.23947e-05 0.0927835)
(1.20575e-07 2.20763e-05 0.098429)
(-1.49885e-07 -8.43147e-06 0.0911331)
(-1.01023e-06 1.09386e-05 0.0820225)
(8.90704e-07 -8.80978e-06 0.0819676)
(-2.8442e-07 1.3706e-05 0.0911818)
(-1.16825e-07 -8.38922e-06 0.0911325)
(8.18718e-07 1.10176e-05 0.0820197)
(-1.14746e-06 -8.69078e-06 0.0819646)
(-4.83645e-08 1.36974e-05 0.0911822)
(-4.99784e-06 -2.96744e-06 0.0713024)
(5.6214e-06 3.17846e-06 0.0713606)
(-3.40808e-06 -4.7448e-06 0.0713006)
(2.75325e-06 5.8585e-06 0.0713589)
(-2.97375e-05 -2.94363e-05 0.104192)
(8.06122e-06 6.0382e-06 0.0873538)
(5.62804e-06 8.43877e-06 0.0873514)
(-5.7148e-06 -4.6025e-06 0.087301)
(-5.07244e-06 -5.32684e-06 0.0872988)
(5.56707e-06 3.2549e-06 0.0713671)
(-5.06044e-06 -2.86819e-06 0.071309)
(2.81286e-06 5.81365e-06 0.0713656)
(-3.33452e-06 -4.81082e-06 0.0713076)
(3.13683e-06 4.94372e-06 0.0713161)
(4.91954e-06 3.15711e-06 0.0713179)
(4.83465e-06 5.54956e-06 0.0873075)
(5.60207e-06 4.88043e-06 0.0873069)
(-1.2704e-06 8.66044e-06 0.0819738)
(-3.24689e-07 8.57424e-06 0.0911407)
(4.71466e-06 1.27011e-05 0.0927895)
(-1.02526e-06 -4.31264e-06 0.110075)
(-3.04108e-07 1.4308e-05 0.0983737)
(-5.18994e-06 1.25102e-05 0.0927892)
(7.39925e-07 -4.39514e-06 0.110074)
(-2.8412e-07 1.42728e-05 0.0983734)
(-5.2236e-06 5.38206e-06 0.0873072)
(-5.72556e-06 4.74028e-06 0.0873109)
(-4.99067e-06 3.00453e-06 0.0713194)
(1.27544e-05 4.80163e-06 0.0927896)
(-4.33128e-06 -8.06383e-07 0.110065)
(1.44591e-05 -1.02369e-07 0.0983694)
(8.8591e-06 -1.00063e-06 0.0819721)
(8.68845e-06 -1.01064e-07 0.0911408)
(-4.3501e-06 8.52377e-07 0.110063)
(1.27381e-05 -4.92633e-06 0.0927877)
(1.44605e-05 -9.48952e-08 0.0983691)
(1.33681e-05 -1.64112e-08 0.0911926)
(-8.95277e-06 8.21519e-07 0.0819767)
(-8.7111e-06 -3.68442e-08 0.0911449)
(2.16228e-05 4.93964e-07 0.0984335)
(4.36553e-06 8.54741e-07 0.110069)
(-1.29817e-05 -4.56439e-06 0.0927909)
(3.22078e-06 1.60773e-06 0.107569)
(-1.45042e-05 1.34416e-07 0.0983738)
(4.09961e-06 8.68385e-07 0.110067)
(1.67335e-05 6.65839e-06 0.0928506)
(1.33952e-05 3.32396e-07 0.0911917)
(-9.15059e-06 -5.43197e-07 0.0819754)
(-8.76608e-06 1.33675e-07 0.091145)
(1.05842e-05 1.37532e-06 0.0820296)
(5.57845e-06 -4.99768e-06 0.0873053)
(4.86455e-06 -5.58296e-06 0.0873092)
(3.11899e-06 -4.92861e-06 0.0713179)
(1.71975e-07 2.17788e-05 0.0984325)
(6.80744e-07 4.4519e-06 0.11007)
(-5.02423e-06 -1.26445e-05 0.0927892)
(1.46652e-06 3.43712e-06 0.107571)
(-1.54533e-07 -1.42842e-05 0.0983727)
(6.67272e-07 4.14751e-06 0.110067)
(6.25536e-06 1.70523e-05 0.0928486)
(-2.52984e-07 1.35481e-05 0.0911884)
(8.63691e-07 -8.8878e-06 0.0819751)
(-1.18193e-07 -8.58898e-06 0.0911402)
(1.08108e-08 1.354e-05 0.0911887)
(-1.07567e-06 -8.79709e-06 0.081972)
(-7.41187e-08 -8.5551e-06 0.0911395)
(9.2829e-07 1.09371e-05 0.0820268)
(-5.11761e-06 -2.79838e-06 0.0713153)
(5.52688e-06 3.30563e-06 0.0713731)
(-3.28027e-06 -4.85264e-06 0.0713141)
(2.86788e-06 5.75865e-06 0.0713719)
(-6.2593e-07 5.36303e-06 0.0766096)
(-1.1772e-07 -6.71814e-06 0.0784215)
(-7.61734e-07 -1.35926e-05 0.089687)
(-3.5321e-07 8.40396e-06 0.0911296)
(-4.18251e-07 5.06859e-06 0.0783805)
(-9.64272e-08 8.57761e-06 0.0896368)
(5.48629e-07 -6.82e-06 0.0766574)
(4.36048e-07 -6.06088e-06 0.0682304)
(-9.18943e-07 -1.11112e-05 0.0820086)
(-8.59578e-08 7.68024e-06 0.0855481)
(-7.89622e-07 -1.09868e-05 0.0856048)
(-5.29027e-07 5.43173e-06 0.068168)
(-5.41494e-07 5.43617e-06 0.0681718)
(-8.09453e-07 -1.09601e-05 0.0856088)
(9.50345e-07 8.72973e-06 0.081961)
(-1.00663e-07 7.70942e-06 0.0855523)
(4.19078e-07 -6.05396e-06 0.0682342)
(5.59938e-07 -6.83195e-06 0.076653)
(-4.10663e-07 -1.39284e-05 0.0911699)
(-4.1391e-07 5.07025e-06 0.0783759)
(-8.28463e-08 8.53411e-06 0.0896328)
(-1.16145e-07 -6.6897e-06 0.078417)
(-7.52304e-07 -1.36216e-05 0.089683)
(-6.20054e-07 5.35879e-06 0.0766052)
(2.40225e-06 -5.97153e-06 0.0713628)
(-3.54952e-06 4.61932e-06 0.0713075)
(5.39969e-06 -5.95681e-07 0.0766165)
(-1.34724e-05 -6.63709e-07 0.0896895)
(-6.67438e-06 6.03826e-08 0.0784281)
(8.51746e-06 -1.94073e-07 0.0911314)
(8.68819e-06 -1.75994e-08 0.0896394)
(5.08718e-06 -2.64113e-07 0.0783872)
(-6.78196e-06 6.12082e-07 0.0766641)
(-6.04632e-06 4.18631e-07 0.0682364)
(-1.10525e-05 -9.69594e-07 0.0820124)
(7.751e-06 -8.91397e-08 0.085552)
(-1.09094e-05 -7.85213e-07 0.0856085)
(5.44548e-06 -5.50256e-07 0.0681741)
(5.44936e-06 -5.33456e-07 0.0681778)
(-1.09e-05 -7.76737e-07 0.0856124)
(8.76693e-06 9.25111e-07 0.0819649)
(7.77297e-06 -7.50268e-08 0.085556)
(-6.04083e-06 4.4221e-07 0.06824)
(-6.79635e-06 5.80466e-07 0.0766601)
(-1.38141e-05 -2.44338e-07 0.0911718)
(8.65564e-06 -2.63292e-08 0.0896357)
(5.07547e-06 -2.91146e-07 0.0783831)
(-1.35132e-05 -6.77941e-07 0.0896858)
(-6.69092e-06 3.27033e-08 0.078424)
(5.38934e-06 -6.17942e-07 0.0766124)
(-5.81089e-06 2.85194e-06 0.0713567)
(4.82808e-06 -3.2337e-06 0.0713058)
(-4.64754e-06 -4.14778e-06 0.0833638)
(3.33831e-06 5.20781e-06 0.0681577)
(4.78931e-06 3.6869e-06 0.0681511)
(-3.20677e-06 -4.37011e-06 0.0681004)
(-4.79995e-06 -2.8543e-06 0.068094)
(6.04299e-06 6.53504e-06 0.08341)
(1.47255e-05 8.88141e-06 0.0914956)
(-1.50079e-05 -8.27383e-06 0.0960934)
(8.32155e-06 6.03973e-06 0.0873442)
(-5.22624e-06 -3.3009e-06 0.0813017)
(2.09044e-05 1.19179e-05 0.0961434)
(7.10542e-06 3.96485e-06 0.0813544)
(-1.05624e-05 -5.61272e-06 0.0914475)
(8.42889e-06 1.5177e-05 0.0914882)
(-8.75502e-06 -1.46698e-05 0.0960897)
(5.5593e-06 8.6806e-06 0.0873412)
(-3.82589e-06 -4.83426e-06 0.0812959)
(1.14788e-05 2.12344e-05 0.0961397)
(3.49398e-06 7.53325e-06 0.0813476)
(-6.10535e-06 -1.01254e-05 0.0914404)
(-1.06394e-05 -5.64189e-06 0.0914503)
(7.02973e-06 3.97117e-06 0.0813576)
(-5.62574e-06 -4.6123e-06 0.0872977)
(2.07795e-05 1.18813e-05 0.0961455)
(-1.51397e-05 -8.30259e-06 0.0960956)
(-5.30831e-06 -3.29751e-06 0.081305)
(1.46357e-05 8.83702e-06 0.0914984)
(-6.12645e-06 -1.02098e-05 0.0914433)
(3.52342e-06 7.44507e-06 0.0813511)
(-5.10466e-06 -5.24573e-06 0.0872953)
(1.14614e-05 2.11232e-05 0.0961418)
(-8.7684e-06 -1.47679e-05 0.0960919)
(-3.78457e-06 -4.91313e-06 0.0812994)
(8.41609e-06 1.50942e-05 0.0914911)
(6.06553e-06 6.59226e-06 0.0834068)
(-3.19929e-06 -4.34445e-06 0.0680975)
(-4.81407e-06 -2.80951e-06 0.0680911)
(3.33919e-06 5.22927e-06 0.0681549)
(4.77201e-06 3.72281e-06 0.0681482)
(-4.62643e-06 -4.09298e-06 0.0833606)
(3.54402e-07 -6.00516e-06 0.068245)
(-1.75398e-07 7.85401e-06 0.0855639)
(-1.04234e-06 -1.09471e-05 0.0820242)
(-6.01398e-07 5.4864e-06 0.0681828)
(-8.77354e-07 -1.08023e-05 0.0856204)
(5.2386e-07 -6.73527e-06 0.0766698)
(-4.20463e-07 -1.36811e-05 0.0911846)
(-4.0307e-07 5.13926e-06 0.0783935)
(-1.14528e-07 8.75803e-06 0.0896481)
(-6.50849e-07 5.44982e-06 0.0766222)
(-9.83437e-08 -6.63079e-06 0.0784344)
(-7.8002e-07 -1.33942e-05 0.0896981)
(2.61749e-06 -5.80785e-06 0.0713756)
(-6.00571e-06 4.60102e-07 0.0682501)
(7.88838e-06 -4.45009e-08 0.085567)
(-1.08999e-05 -9.76004e-07 0.0820272)
(5.48206e-06 -5.08691e-07 0.068188)
(-1.07638e-05 -7.41042e-07 0.0856233)
(-6.7225e-06 6.44209e-07 0.0766754)
(-1.35708e-05 -2.05594e-07 0.0911854)
(8.84943e-06 3.18945e-08 0.08965)
(5.14398e-06 -2.12649e-07 0.0783991)
(5.46089e-06 -5.4273e-07 0.076628)
(-1.33044e-05 -6.21042e-07 0.0896999)
(-6.60906e-06 9.06399e-08 0.0784398)
(-5.74407e-06 2.86911e-06 0.0713695)
(-4.68413e-06 -4.40422e-06 0.0833756)
(3.37175e-06 5.07667e-06 0.068168)
(4.86414e-06 3.56417e-06 0.0681616)
(-3.16522e-06 -4.51428e-06 0.0681109)
(-4.72294e-06 -2.97026e-06 0.0681047)
(6.00144e-06 6.27243e-06 0.0834217)
(1.43705e-05 8.64151e-06 0.0915065)
(-1.55642e-05 -8.50673e-06 0.0961019)
(-5.48719e-06 -3.33823e-06 0.0813146)
(7.99163e-06 6.02682e-06 0.0873569)
(-1.09238e-05 -5.84234e-06 0.0914584)
(2.03733e-05 1.16975e-05 0.0961518)
(6.87081e-06 3.93581e-06 0.0813669)
(8.34329e-06 1.47809e-05 0.0914994)
(-8.84832e-06 -1.51255e-05 0.0960983)
(-3.70053e-06 -5.13571e-06 0.0813093)
(5.62709e-06 8.35127e-06 0.0873544)
(-6.20442e-06 -1.05319e-05 0.0914516)
(1.1408e-05 2.07848e-05 0.0961481)
(3.60781e-06 7.22318e-06 0.0813607)
(6.01589e-06 6.33921e-06 0.083419)
(-3.17747e-06 -4.47615e-06 0.0681084)
(-4.74159e-06 -2.94589e-06 0.0681022)
(-4.67904e-06 -4.3424e-06 0.0833727)
(3.36674e-06 5.107e-06 0.0681655)
(4.85218e-06 3.59451e-06 0.068159)
(-1.10074e-05 -5.9134e-06 0.091461)
(6.84211e-06 3.91829e-06 0.0813699)
(-5.95694e-06 -4.65324e-06 0.0873103)
(2.01978e-05 1.15977e-05 0.0961538)
(-1.56962e-05 -8.57845e-06 0.096104)
(-5.52405e-06 -3.3603e-06 0.0813176)
(1.42978e-05 8.58367e-06 0.091509)
(-6.23535e-06 -1.06397e-05 0.0914542)
(3.65189e-06 7.19356e-06 0.0813638)
(-5.0589e-06 -5.58749e-06 0.0873082)
(1.1374e-05 2.0642e-05 0.0961501)
(-8.86681e-06 -1.52511e-05 0.0961004)
(-3.66444e-06 -5.18465e-06 0.0813123)
(8.31426e-06 1.46624e-05 0.0915019)
(-2.83259e-06 -5.86168e-06 0.0713577)
(3.19981e-06 4.84994e-06 0.0713059)
(-5.80267e-06 -2.91158e-06 0.0713592)
(4.85803e-06 3.15522e-06 0.0713079)
(4.44379e-06 4.34985e-06 0.0833653)
(-4.94276e-06 -3.5887e-06 0.0681606)
(-3.53494e-06 -5.01713e-06 0.0681543)
(4.63593e-06 2.9667e-06 0.0681027)
(3.03157e-06 4.55948e-06 0.0680966)
(-6.2558e-06 -6.35008e-06 0.0834123)
(-8.63074e-06 -1.49605e-05 0.0914964)
(8.46865e-06 1.48429e-05 0.0960929)
(-5.73872e-06 -8.51882e-06 0.0873448)
(3.58198e-06 4.93431e-06 0.0813028)
(-3.64134e-06 -7.35123e-06 0.0813568)
(-1.17142e-05 -2.10418e-05 0.096143)
(5.84903e-06 1.02976e-05 0.0914475)
(-1.49003e-05 -8.71216e-06 0.0914899)
(1.48667e-05 8.46228e-06 0.0960897)
(-8.48459e-06 -5.81929e-06 0.0873435)
(5.06198e-06 3.51937e-06 0.0812984)
(-7.30053e-06 -3.72546e-06 0.0813513)
(-2.09991e-05 -1.17273e-05 0.0961399)
(1.03696e-05 5.80176e-06 0.0914412)
(5.87473e-06 1.03591e-05 0.0914504)
(-3.64482e-06 -7.29841e-06 0.0813602)
(4.86502e-06 5.3679e-06 0.0872974)
(-1.16988e-05 -2.09642e-05 0.0961452)
(3.57068e-06 4.98078e-06 0.0813063)
(-8.60914e-06 -1.49003e-05 0.0914992)
(8.4944e-06 1.49246e-05 0.0960951)
(1.04212e-05 5.82033e-06 0.091444)
(-7.27736e-06 -3.73712e-06 0.0813547)
(5.44865e-06 4.83592e-06 0.0872971)
(-2.09191e-05 -1.17005e-05 0.0961421)
(5.09413e-06 3.51085e-06 0.0813019)
(-1.48306e-05 -8.67601e-06 0.0914927)
(1.49535e-05 8.49321e-06 0.0960918)
(-6.28899e-06 -6.3872e-06 0.0834092)
(4.63362e-06 2.94568e-06 0.0680997)
(3.02122e-06 4.54794e-06 0.0680937)
(-4.93829e-06 -3.60303e-06 0.0681577)
(-3.54084e-06 -5.02681e-06 0.0681514)
(4.41529e-06 4.31429e-06 0.0833622)
(3.15908e-06 4.90146e-06 0.0713129)
(-2.86197e-06 -5.81315e-06 0.0713647)
(4.88998e-06 3.15408e-06 0.0713147)
(-5.77257e-06 -2.91311e-06 0.0713662)
(-6.23835e-06 -6.31541e-06 0.0834153)
(4.62832e-06 2.97989e-06 0.0681055)
(3.03012e-06 4.57421e-06 0.0680995)
(4.46388e-06 4.38265e-06 0.0833684)
(-4.94671e-06 -3.57127e-06 0.0681634)
(-3.53359e-06 -5.00256e-06 0.0681571)
(5.92881e-06 1.05007e-05 0.0914559)
(-1.16366e-05 -2.07466e-05 0.0961494)
(4.86589e-06 5.49383e-06 0.0873042)
(-3.6737e-06 -7.2064e-06 0.0813669)
(3.55059e-06 5.07958e-06 0.081313)
(8.55345e-06 1.51218e-05 0.0960994)
(-8.54942e-06 -1.4744e-05 0.0915047)
(1.05592e-05 5.90747e-06 0.0914494)
(-2.07326e-05 -1.16069e-05 0.0961461)
(5.5517e-06 4.86333e-06 0.0873038)
(-7.19219e-06 -3.71207e-06 0.0813612)
(5.17268e-06 3.528e-06 0.0813085)
(1.51377e-05 8.58136e-06 0.096096)
(-1.4698e-05 -8.58701e-06 0.0914981)
(-8.58071e-06 -1.48262e-05 0.091502)
(3.56253e-06 5.03011e-06 0.0813097)
(8.52085e-06 1.50134e-05 0.0960973)
(-5.75534e-06 -8.42198e-06 0.0873516)
(5.90095e-06 1.042e-05 0.0914532)
(-3.65503e-06 -7.25379e-06 0.0813636)
(-1.1672e-05 -2.08591e-05 0.0961474)
(-1.47645e-05 -8.63763e-06 0.0914954)
(5.13893e-06 3.52487e-06 0.0813052)
(1.50475e-05 8.54105e-06 0.0960939)
(-8.40284e-06 -5.80688e-06 0.0873502)
(1.04878e-05 5.86608e-06 0.0914467)
(-7.23749e-06 -3.72521e-06 0.081358)
(-2.0827e-05 -1.16613e-05 0.0961441)
(4.48921e-06 4.42343e-06 0.0833714)
(-4.95147e-06 -3.55476e-06 0.0681661)
(-3.53907e-06 -4.98674e-06 0.0681598)
(4.62659e-06 2.99829e-06 0.0681083)
(3.03503e-06 4.58798e-06 0.0681022)
(-6.22145e-06 -6.27765e-06 0.0834183)
(-5.78374e-08 5.24243e-06 0.07661)
(-5.63845e-07 -6.73842e-06 0.0784215)
(4.96231e-08 -1.36785e-05 0.0896871)
(-3.46721e-07 8.38709e-06 0.0911297)
(-2.71288e-07 5.02245e-06 0.0783806)
(-6.0219e-07 8.49461e-06 0.0896376)
(-1.2486e-06 -6.92593e-06 0.0766575)
(-1.01674e-06 -6.1604e-06 0.068235)
(3.96792e-07 -1.12753e-05 0.0820121)
(-4.66254e-07 7.53801e-06 0.0855512)
(1.8164e-07 -1.11331e-05 0.0856072)
(-7.82017e-09 5.31993e-06 0.0681731)
(2.56865e-11 5.3291e-06 0.0681766)
(1.88843e-07 -1.11127e-05 0.0856111)
(-1.39361e-06 8.49562e-06 0.0819629)
(-4.59846e-07 7.56894e-06 0.0855552)
(-9.9936e-07 -6.15154e-06 0.0682385)
(-1.26413e-06 -6.94765e-06 0.0766533)
(-2.90458e-07 -1.39533e-05 0.0911699)
(-2.94712e-07 5.02307e-06 0.0783761)
(-6.04232e-07 8.44886e-06 0.0896337)
(-5.87176e-07 -6.73951e-06 0.0784171)
(4.74884e-08 -1.37137e-05 0.0896833)
(-7.31861e-08 5.22369e-06 0.0766058)
(5.42314e-07 -6.79647e-06 0.0766616)
(-4.1575e-07 5.07993e-06 0.0783849)
(-1.07468e-07 8.61511e-06 0.0896407)
(-4.21047e-07 -1.38335e-05 0.0911775)
(-6.41547e-07 5.38206e-06 0.0766139)
(-1.12922e-07 -6.71496e-06 0.0784259)
(-7.66066e-07 -1.35358e-05 0.0896908)
(-5.78646e-07 5.46454e-06 0.0681793)
(8.73698e-07 8.79898e-06 0.081969)
(-8.63574e-07 -1.0875e-05 0.0856166)
(3.8046e-07 -6.02329e-06 0.0682416)
(-1.51841e-07 7.7921e-06 0.0855602)
(3.99417e-07 -6.04041e-06 0.0682379)
(-1.25492e-07 7.74659e-06 0.0855563)
(-9.69835e-07 -1.10379e-05 0.0820166)
(-5.65197e-07 5.44674e-06 0.0681756)
(-8.38246e-07 -1.09216e-05 0.0856128)
(-6.47636e-07 5.40594e-06 0.0766181)
(-3.62249e-07 8.51568e-06 0.0911371)
(-1.02982e-07 -6.66404e-06 0.0784302)
(-7.73171e-07 -1.34758e-05 0.0896945)
(5.38102e-07 -6.76635e-06 0.0766658)
(-4.10837e-07 5.08644e-06 0.0783893)
(-1.1059e-07 8.67771e-06 0.0896445)
(-1.2189e-06 -6.89616e-06 0.0766616)
(-2.52602e-07 5.057e-06 0.078385)
(-5.93463e-07 8.54508e-06 0.0896414)
(-2.8264e-07 -1.38616e-05 0.0911775)
(-3.9259e-08 5.26801e-06 0.0766142)
(-5.4263e-07 -6.70587e-06 0.0784259)
(6.26968e-08 -1.36108e-05 0.0896909)
(6.60453e-08 5.36509e-06 0.0681834)
(-1.30905e-06 8.56909e-06 0.0819703)
(2.33846e-07 -1.10155e-05 0.0856185)
(-4.23569e-07 7.6586e-06 0.0855627)
(-9.15018e-07 -6.11645e-06 0.0682451)
(-9.63091e-07 -6.13822e-06 0.0682418)
(-4.42097e-07 7.61566e-06 0.085559)
(4.75396e-07 -1.12385e-05 0.0820197)
(2.96356e-08 5.35032e-06 0.06818)
(2.01251e-07 -1.10597e-05 0.0856149)
(-6.25254e-09 5.29339e-06 0.0766183)
(-3.43489e-07 8.49373e-06 0.0911372)
(-5.22164e-07 -6.70002e-06 0.0784301)
(7.91064e-08 -1.35555e-05 0.0896945)
(-2.24989e-07 5.08038e-06 0.0783893)
(-5.79333e-07 8.61038e-06 0.0896452)
(-1.18702e-06 -6.85981e-06 0.0766657)
(-4.66241e-06 4.11379e-06 0.0833673)
(4.7504e-06 -3.76712e-06 0.0681569)