/*--------------------------------*- C++ -*----------------------------------*\
| =========                 |                                                 |
| \\      /  F ield         | OpenFOAM: The Open Source CFD Toolbox           |
|  \\    /   O peration     | Version:  2312                                  |
|   \\  /    A nd           | Website:  www.openfoam.com                      |
|    \\/     M anipulation  |                                                 |
\*---------------------------------------------------------------------------*/
FoamFile
{
    version     2.0;
    format      ascii;
    arch        "LSB;label=32;scalar=64";
    class       volScalarField;
    location    "650";
    object      epsilon;
}
// * * * * * * * * * * * * * * * * * * * * * * * * * * * * * * * * * * * * * //

dimensions      [0 2 -3 0 0 0 0];

internalField   nonuniform List<scalar> 
43496
(
4.23891e-06
1.90948e-05
1.18668e-06
3.64743e-06
2.29548e-06
9.34999e-07
4.23885e-06
9.56729e-06
2.29543e-06
1.18668e-06
9.35038e-07
3.6477e-06
1.41724e-06
5.65217e-06
5.65072e-06
1.90923e-05
9.56702e-06
1.26558e-05
4.23896e-06
4.8846e-06
1.12473e-05
4.88471e-06
1.12452e-05
1.26586e-05
2.27629e-05
7.24528e-06
7.24551e-06
2.27697e-05
1.909e-05
1.26556e-05
4.23889e-06
1.12472e-05
4.88446e-06
1.12451e-05
4.88451e-06
1.26591e-05
2.27628e-05
7.24366e-06
9.5651e-06
7.24387e-06
2.27696e-05
9.96432e-06
2.23955e-05
2.23959e-05
2.23894e-05
2.23898e-05
9.96394e-06
4.71005e-06
9.93502e-06
5.65219e-06
2.97598e-06
9.93327e-06
2.97614e-06
4.70968e-06
4.7041e-06
9.93026e-06
5.65075e-06
2.97485e-06
2.97503e-06
9.92851e-06
4.70375e-06
1.90875e-05
9.56529e-06
4.50824e-07
6.59555e-07
4.50957e-07
3.64762e-06
2.22351e-06
2.22404e-06
1.66673e-06
2.29562e-06
2.5409e-06
1.54352e-06
2.54116e-06
1.54444e-06
1.6642e-06
1.84565e-06
3.02285e-06
3.02329e-06
1.8434e-06
1.66595e-06
2.29556e-06
1.54353e-06
2.54078e-06
1.54439e-06
2.54098e-06
1.66478e-06
1.84494e-06
3.02249e-06
3.64789e-06
2.22372e-06
3.02284e-06
1.84381e-06
2.22425e-06
2.82876e-06
1.41879e-06
1.96841e-06
1.96831e-06
1.96905e-06
1.96915e-06
2.82843e-06
6.51863e-07
1.18287e-06
1.18298e-06
1.41521e-06
6.58008e-07
1.18591e-06
1.18602e-06
1.4181e-06
1.41513e-06
1.41587e-06
1.18298e-06
1.18284e-06
1.18531e-06
1.18523e-06
1.41509e-06
1.41585e-06
1.1828e-06
1.18298e-06
1.18513e-06
1.18531e-06
1.18304e-06
1.1852e-06
1.18526e-06
1.41522e-06
1.41592e-06
1.18284e-06
1.18531e-06
1.18519e-06
1.41595e-06
1.41803e-06
1.18602e-06
1.18586e-06
1.41801e-06
1.18584e-06
1.18602e-06
1.18613e-06
1.41813e-06
1.18588e-06
4.23634e-06
9.54985e-06
9.55465e-06
4.23567e-06
1.9061e-05
1.90715e-05
4.23639e-06
9.55105e-06
9.55622e-06
4.23576e-06
6.51841e-07
6.51996e-07
6.51976e-07
6.56522e-07
6.56527e-07
6.56646e-07
6.56606e-07
2.29402e-06
3.6445e-06
9.29865e-07
1.18367e-06
3.64497e-06
9.30999e-07
2.29376e-06
1.90624e-05
1.90729e-05
2.29408e-06
9.29993e-07
3.64451e-06
1.18379e-06
9.31094e-07
3.64499e-06
2.29376e-06
5.64526e-06
5.64699e-06
1.4145e-06
5.64634e-06
5.6481e-06
9.56149e-06
4.23829e-06
1.90831e-05
9.56264e-06
4.23835e-06
6.57985e-07
6.58139e-07
6.58127e-07
2.2955e-06
3.64703e-06
9.34082e-07
2.29535e-06
9.35056e-07
1.90846e-05
2.29551e-06
9.34212e-07
3.64704e-06
2.29536e-06
9.35142e-07
5.64962e-06
5.65136e-06
1.41721e-06
5.65062e-06
5.65239e-06
1.90587e-05
1.90691e-05
1.90619e-05
1.90724e-05
5.6452e-06
5.64693e-06
1.41444e-06
5.64625e-06
5.64804e-06
1.90802e-05
1.90698e-05
1.90834e-05
1.90731e-05
1.41663e-06
5.64843e-06
5.65022e-06
5.64742e-06
5.64915e-06
4.23628e-06
9.55006e-06
9.55483e-06
4.23563e-06
2.294e-06
3.64431e-06
9.29855e-07
1.18379e-06
3.64479e-06
9.30967e-07
2.29367e-06
2.29394e-06
3.64473e-06
9.2978e-07
1.1837e-06
3.64516e-06
9.30914e-07
2.29361e-06
4.23702e-06
9.56044e-06
9.55571e-06
4.23763e-06
4.23697e-06
9.56062e-06
9.55592e-06
4.23756e-06
2.29451e-06
1.18457e-06
3.64605e-06
9.33077e-07
3.64562e-06
9.32047e-07
2.29478e-06
2.29445e-06
1.18442e-06
3.64641e-06
9.33027e-07
3.64603e-06
9.3197e-07
2.29472e-06
5.64677e-06
5.64539e-06
1.41441e-06
5.64773e-06
5.64649e-06
1.906e-05
1.90705e-05
1.90825e-05
1.90721e-05
1.4166e-06
5.6499e-06
5.64866e-06
5.64899e-06
5.64761e-06
1.90815e-05
1.90712e-05
2.29399e-06
3.64485e-06
9.29838e-07
1.18361e-06
3.64535e-06
9.30945e-07
2.29372e-06
4.23634e-06
9.55068e-06
9.55585e-06
4.23569e-06
2.29396e-06
9.29878e-07
3.64477e-06
1.18378e-06
9.30985e-07
3.64527e-06
2.29364e-06
4.2371e-06
9.56197e-06
9.55692e-06
4.23769e-06
2.29455e-06
1.18439e-06
3.64661e-06
9.33055e-07
3.64616e-06
9.32031e-07
2.29479e-06
4.23702e-06
9.56162e-06
9.55654e-06
4.23763e-06
2.29447e-06
1.18457e-06
9.33093e-07
3.64653e-06
9.32071e-07
3.64608e-06
2.29474e-06
4.23649e-06
9.55068e-06
9.55546e-06
4.23593e-06
2.294e-06
9.29919e-07
3.64442e-06
1.18377e-06
9.31012e-07
3.6449e-06
2.29372e-06
4.23638e-06
9.55041e-06
9.55558e-06
4.23575e-06
2.2946e-06
1.18446e-06
3.64623e-06
9.33107e-07
3.6458e-06
9.32057e-07
2.29481e-06
4.23727e-06
9.56125e-06
9.55653e-06
4.23779e-06
2.29456e-06
1.18465e-06
9.33118e-07
3.64616e-06
9.32115e-07
3.64572e-06
2.29477e-06
4.23709e-06
9.56135e-06
9.55627e-06
4.23769e-06
5.64678e-06
5.64538e-06
1.41447e-06
5.64787e-06
5.64644e-06
1.90599e-05
1.90704e-05
1.90839e-05
1.90736e-05
1.41674e-06
5.65005e-06
5.64861e-06
5.649e-06
5.6476e-06
1.90814e-05
1.90711e-05
2.294e-06
9.29917e-07
3.64491e-06
1.18367e-06
9.31013e-07
3.6454e-06
2.29368e-06
4.23652e-06
9.55086e-06
9.55563e-06
4.23593e-06
4.23648e-06
9.55111e-06
9.55628e-06
4.23595e-06
2.29459e-06
1.18457e-06
9.33201e-07
3.64624e-06
9.32184e-07
3.64581e-06
2.29482e-06
2.29452e-06
1.18442e-06
9.3312e-07
3.64666e-06
9.3211e-07
3.64622e-06
2.29478e-06
4.23726e-06
9.56141e-06
9.55671e-06
4.2378e-06
4.23728e-06
9.56206e-06
9.55698e-06
4.23776e-06
1.90609e-05
1.90714e-05
1.90632e-05
1.90737e-05
1.41671e-06
5.64852e-06
5.65028e-06
5.64749e-06
5.64921e-06
1.90824e-05
1.90721e-05
1.90847e-05
1.90744e-05
1.90808e-05
1.90841e-05
5.64957e-06
5.65131e-06
9.56169e-06
4.23824e-06
3.64685e-06
9.34076e-07
2.29526e-06
3.64727e-06
9.33999e-07
2.29521e-06
5.65114e-06
5.64976e-06
1.90822e-05
3.64739e-06
9.34059e-07
2.29528e-06
9.5623e-06
4.23829e-06
9.34099e-07
3.64731e-06
2.29522e-06
4.239e-06
9.5623e-06
4.23853e-06
2.29546e-06
9.34145e-07
3.64694e-06
1.18659e-06
2.29531e-06
9.3505e-07
3.64732e-06
4.23891e-06
9.56203e-06
4.23834e-06
9.56701e-06
5.65114e-06
5.64974e-06
1.90821e-05
2.29543e-06
9.34139e-07
3.64745e-06
1.18658e-06
2.29527e-06
9.35065e-07
3.64785e-06
4.23901e-06
9.56243e-06
4.23853e-06
4.23898e-06
9.56273e-06
4.23855e-06
9.56772e-06
1.90831e-05
1.90933e-05
1.90854e-05
1.90956e-05
1.26401e-05
1.12333e-05
4.88181e-06
4.23636e-06
1.12311e-05
4.88185e-06
1.26437e-05
2.27382e-05
9.55174e-06
7.23919e-06
7.23901e-06
2.27313e-05
2.27378e-05
7.24028e-06
9.55279e-06
7.24047e-06
2.27447e-05
1.26399e-05
4.23566e-06
1.12274e-05
4.8811e-06
1.123e-05
4.88107e-06
1.26361e-05
1.90659e-05
1.90666e-05
1.26407e-05
4.88179e-06
1.12335e-05
4.23644e-06
4.88188e-06
1.12313e-05
1.26432e-05
2.27379e-05
9.5533e-06
7.23921e-06
7.23902e-06
2.2731e-05
2.27375e-05
7.2403e-06
9.554e-06
7.24049e-06
2.27444e-05
1.26394e-05
4.23571e-06
4.88114e-06
1.12278e-05
4.88104e-06
1.123e-05
1.26368e-05
1.90673e-05
1.9068e-05
9.95766e-06
2.2374e-05
2.23733e-05
2.23678e-05
2.23671e-05
9.95735e-06
4.70063e-06
2.97318e-06
5.64523e-06
9.91439e-06
2.973e-06
9.91629e-06
4.70096e-06
4.70642e-06
2.97434e-06
5.64699e-06
9.91882e-06
2.97418e-06
9.92137e-06
4.70671e-06
4.70168e-06
9.91921e-06
5.64638e-06
2.97341e-06
2.97359e-06
9.91733e-06
4.70134e-06
4.70743e-06
9.92429e-06
5.6481e-06
2.97459e-06
2.97476e-06
9.92179e-06
4.70713e-06
9.95555e-06
2.2362e-05
2.23612e-05
2.23682e-05
2.23675e-05
9.95585e-06
2.27637e-05
7.24425e-06
9.56321e-06
2.27569e-05
7.24404e-06
1.26552e-05
4.23825e-06
1.12416e-05
4.884e-06
1.26514e-05
1.12438e-05
4.88395e-06
1.9088e-05
2.27634e-05
7.24427e-06
9.56487e-06
2.27566e-05
7.24406e-06
1.26546e-05
4.2383e-06
4.88403e-06
1.12418e-05
1.26521e-05
4.88392e-06
1.1244e-05
1.90894e-05
9.96475e-06
2.23969e-05
2.23962e-05
2.23908e-05
2.23901e-05
9.96437e-06
4.70333e-06
2.97472e-06
9.92604e-06
5.64959e-06
4.70371e-06
2.97452e-06
9.92791e-06
4.70911e-06
2.97589e-06
9.9305e-06
5.65134e-06
4.70947e-06
2.97571e-06
9.93298e-06
9.96265e-06
2.23851e-05
2.23844e-05
9.96301e-06
2.23913e-05
2.23906e-05
4.70433e-06
9.93086e-06
5.65065e-06
2.97486e-06
2.97506e-06
9.92863e-06
4.70396e-06
4.71011e-06
9.93585e-06
5.65242e-06
2.97605e-06
2.97624e-06
9.93332e-06
4.70976e-06
1.90636e-05
1.90643e-05
1.90668e-05
1.90675e-05
9.95764e-06
2.23734e-05
2.23727e-05
2.23671e-05
2.23664e-05
9.95731e-06
4.70046e-06
2.9731e-06
5.64514e-06
9.91401e-06
9.9159e-06
2.97292e-06
4.70084e-06
4.70626e-06
2.97424e-06
5.64694e-06
9.91875e-06
9.92131e-06
2.97407e-06
4.70661e-06
4.70155e-06
9.91883e-06
5.64632e-06
2.97334e-06
9.91695e-06
4.70117e-06
2.97352e-06
4.70732e-06
9.92424e-06
5.64805e-06
2.97448e-06
9.92172e-06
4.70697e-06
2.97466e-06
9.9555e-06
2.23613e-05
2.23606e-05
2.23676e-05
2.23668e-05
9.95582e-06
1.90753e-05
1.90747e-05
1.90786e-05
1.90779e-05
9.9591e-06
2.23729e-05
2.23722e-05
9.95944e-06
2.23792e-05
2.23785e-05
4.70293e-06
2.9741e-06
5.6485e-06
9.92466e-06
9.92281e-06
2.9743e-06
4.70253e-06
4.7087e-06
2.97525e-06
5.65024e-06
9.93001e-06
9.92751e-06
2.97544e-06
4.70833e-06
4.70186e-06
9.91992e-06
2.97392e-06
5.64735e-06
4.70225e-06
9.9218e-06
2.97373e-06
4.70766e-06
9.92467e-06
2.97506e-06
5.64914e-06
4.70802e-06
9.92715e-06
2.97488e-06
9.96122e-06
2.23849e-05
2.23842e-05
2.23787e-05
2.2378e-05
9.96088e-06
1.26403e-05
1.12332e-05
4.8817e-06
4.23631e-06
1.1231e-05
4.88173e-06
1.26439e-05
2.27386e-05
9.55192e-06
7.23788e-06
7.23772e-06
2.27317e-05
2.27381e-05
7.239e-06
9.55299e-06
7.23916e-06
2.2745e-05
1.264e-05
4.23561e-06
1.12275e-05
4.88098e-06
1.12298e-05
4.88096e-06
1.26363e-05
1.26475e-05
1.12346e-05
4.88258e-06
4.23699e-06
1.26439e-05
1.12369e-05
4.88253e-06
2.27506e-05
9.55861e-06
7.2428e-06
2.27574e-05
7.24301e-06
2.27511e-05
7.24175e-06
9.55759e-06
2.27442e-05
7.24155e-06
1.26478e-05
4.23766e-06
1.12404e-05
4.88325e-06
1.26513e-05
1.12381e-05
4.8833e-06
1.26477e-05
1.12345e-05
4.88246e-06
4.23693e-06
1.26441e-05
1.12368e-05
4.88243e-06
2.27509e-05
9.55881e-06
7.24152e-06
7.24169e-06
2.27578e-05
2.27514e-05
7.24044e-06
9.55777e-06
2.27446e-05
7.24027e-06
1.26479e-05
4.23761e-06
1.12403e-05
4.88314e-06
1.1238e-05
4.88317e-06
1.26515e-05
9.95772e-06
2.23732e-05
2.23738e-05
2.23669e-05
2.23675e-05
9.95737e-06
4.70636e-06
2.9742e-06
5.64662e-06
9.91876e-06
9.92065e-06
2.97403e-06
4.70668e-06
4.70055e-06
2.97318e-06
5.64538e-06
9.9142e-06
2.973e-06
9.91676e-06
4.7009e-06
4.7074e-06
9.92358e-06
5.64789e-06
2.97444e-06
9.9217e-06
2.97462e-06
4.70707e-06
4.70162e-06
9.91969e-06
5.64651e-06
2.97341e-06
2.9736e-06
9.91716e-06
4.70126e-06
9.95557e-06
2.23611e-05
2.23617e-05
2.23674e-05
2.2368e-05
9.95591e-06
1.90649e-05
1.90656e-05
1.90776e-05
1.9077e-05
9.95916e-06
2.23727e-05
2.23733e-05
9.95952e-06
2.2379e-05
2.23796e-05
4.70878e-06
2.97521e-06
5.65007e-06
9.9294e-06
2.9754e-06
9.92756e-06
4.70843e-06
4.703e-06
2.97418e-06
5.64869e-06
9.92551e-06
9.92297e-06
2.97438e-06
4.70262e-06
4.70776e-06
9.92467e-06
2.97502e-06
5.64883e-06
2.97484e-06
4.7081e-06
9.92655e-06
4.70195e-06
9.92011e-06
2.974e-06
5.64758e-06
4.70232e-06
9.92258e-06
2.97381e-06
9.96131e-06
2.23848e-05
2.23853e-05
2.23785e-05
2.23791e-05
9.96094e-06
1.90767e-05
1.90761e-05
1.26403e-05
1.12334e-05
4.88165e-06
4.23637e-06
1.12312e-05
4.88168e-06
1.26439e-05
2.27379e-05
9.55293e-06
7.23759e-06
7.23739e-06
2.2731e-05
2.27374e-05
7.23867e-06
9.55363e-06
7.23885e-06
2.27443e-05
1.26401e-05
4.23567e-06
1.12277e-05
4.88095e-06
1.12299e-05
4.88092e-06
1.26364e-05
1.2647e-05
4.88261e-06
1.12348e-05
4.23705e-06
1.26445e-05
4.88251e-06
1.12371e-05
2.27503e-05
9.5598e-06
7.24282e-06
2.27571e-05
7.24303e-06
2.27508e-05
7.24177e-06
9.55911e-06
2.27439e-05
7.24157e-06
1.26484e-05
4.23773e-06
4.88323e-06
1.12405e-05
1.26509e-05
4.88333e-06
1.12383e-05
1.26477e-05
1.12347e-05
4.88241e-06
4.23699e-06
1.26441e-05
1.1237e-05
4.88237e-06
2.27502e-05
9.55941e-06
7.24119e-06
7.24139e-06
2.27571e-05
2.27507e-05
7.24013e-06
9.55874e-06
2.27438e-05
7.23994e-06
1.2648e-05
4.23766e-06
1.12404e-05
4.88309e-06
1.12382e-05
4.88312e-06
1.26515e-05
1.26402e-05
4.88177e-06
1.12334e-05
4.23661e-06
4.88202e-06
1.12312e-05
1.26427e-05
2.2737e-05
9.55255e-06
7.23905e-06
7.23865e-06
2.27299e-05
2.27363e-05
7.23993e-06
9.5536e-06
7.24033e-06
2.27435e-05
1.26389e-05
4.23582e-06
4.88128e-06
1.12277e-05
4.88104e-06
1.12299e-05
1.26363e-05
1.26407e-05
1.12333e-05
4.88164e-06
4.23643e-06
1.12311e-05
4.88172e-06
1.26433e-05
2.2738e-05
9.55266e-06
7.23745e-06
7.23727e-06
2.2731e-05
2.27375e-05
7.23854e-06
9.55336e-06
7.23873e-06
2.27444e-05
1.26394e-05
4.2357e-06
1.12276e-05
4.88098e-06
1.12298e-05
4.88089e-06
1.26369e-05
1.26465e-05
4.88275e-06
1.12347e-05
4.23715e-06
1.2644e-05
4.8825e-06
1.1237e-05
2.27491e-05
9.55943e-06
7.24245e-06
7.24286e-06
2.27562e-05
2.27499e-05
7.2416e-06
9.5584e-06
2.27427e-05
7.2412e-06
1.26478e-05
4.23791e-06
4.8832e-06
1.12404e-05
4.88346e-06
1.12382e-05
1.26503e-05
1.26473e-05
1.12346e-05
4.88245e-06
4.23705e-06
1.26443e-05
1.12369e-05
4.88237e-06
2.27503e-05
9.55914e-06
7.24106e-06
7.24127e-06
2.27571e-05
2.27508e-05
7.24001e-06
9.55847e-06
2.27439e-05
7.23981e-06
1.2648e-05
4.23772e-06
1.12405e-05
4.88308e-06
1.12378e-05
4.88315e-06
1.26512e-05
9.9572e-06
2.23726e-05
2.2373e-05
2.23663e-05
2.23667e-05
9.95686e-06
4.70632e-06
2.97424e-06
5.64676e-06
9.91874e-06
9.92063e-06
2.97411e-06
4.70664e-06
4.70037e-06
2.97314e-06
5.64533e-06
9.91403e-06
2.97297e-06
9.91592e-06
4.70069e-06
4.70735e-06
9.92356e-06
5.6479e-06
2.97452e-06
9.92168e-06
2.97466e-06
4.70703e-06
4.70141e-06
9.91885e-06
5.6465e-06
2.97338e-06
2.97356e-06
9.91697e-06
4.70108e-06
9.95505e-06
2.23605e-05
2.23609e-05
2.23667e-05
2.23671e-05
9.95538e-06
1.90648e-05
1.90655e-05
1.90791e-05
1.90784e-05
9.95865e-06
2.23722e-05
2.23725e-05
9.95901e-06
2.23784e-05
2.23788e-05
4.70874e-06
2.97529e-06
5.65008e-06
9.92938e-06
2.97544e-06
9.92755e-06
4.70839e-06
4.70279e-06
2.97416e-06
5.64868e-06
9.92466e-06
9.92284e-06
2.97434e-06
4.70245e-06
4.70772e-06
9.92465e-06
2.97506e-06
5.64897e-06
2.97492e-06
4.70805e-06
9.92654e-06
4.70177e-06
9.91994e-06
2.97396e-06
5.64754e-06
4.70211e-06
9.92182e-06
2.97378e-06
9.96079e-06
2.23841e-05
2.23845e-05
2.23779e-05
2.23783e-05
9.96043e-06
1.90766e-05
1.90759e-05
1.26399e-05
4.88185e-06
1.12337e-05
4.23661e-06
4.88188e-06
1.12307e-05
1.26435e-05
2.27373e-05
9.55273e-06
7.23884e-06
7.23866e-06
2.27303e-05
2.27368e-05
7.23994e-06
9.55378e-06
7.24012e-06
2.27437e-05
1.26397e-05
4.23585e-06
4.88114e-06
1.12273e-05
4.88112e-06
1.12302e-05
1.2636e-05
1.26402e-05
4.88173e-06
1.12336e-05
4.23663e-06
4.88185e-06
1.12305e-05
1.26439e-05
2.27389e-05
9.55336e-06
7.2379e-06
7.2377e-06
2.27319e-05
2.27384e-05
7.23898e-06
9.55406e-06
7.23918e-06
2.27453e-05
1.26401e-05
4.23581e-06
4.88111e-06
1.12271e-05
4.88099e-06
1.123e-05
1.26363e-05
1.26473e-05
4.88261e-06
1.12343e-05
4.23716e-06
1.26437e-05
4.88257e-06
1.12373e-05
2.27496e-05
9.55961e-06
7.24245e-06
7.24265e-06
2.27564e-05
2.27501e-05
7.24139e-06
9.55857e-06
2.27432e-05
7.2412e-06
1.26476e-05
4.2379e-06
4.88327e-06
1.12407e-05
4.88332e-06
1.12378e-05
1.26511e-05
1.26477e-05
4.88258e-06
1.12341e-05
4.23713e-06
1.26441e-05
4.88245e-06
1.12371e-05
2.27511e-05
9.55985e-06
7.2415e-06
7.24172e-06
2.2758e-05
2.27517e-05
7.24046e-06
9.55918e-06
2.27448e-05
7.24025e-06
1.26479e-05
4.23793e-06
4.88316e-06
1.12405e-05
4.8833e-06
1.12376e-05
1.26515e-05
1.90658e-05
1.90665e-05
1.90681e-05
1.90688e-05
9.95914e-06
2.23736e-05
2.23729e-05
9.95946e-06
2.23798e-05
2.23791e-05
4.70305e-06
2.97418e-06
5.64855e-06
9.92504e-06
4.7027e-06
2.97436e-06
9.92318e-06
4.70881e-06
2.97537e-06
5.65029e-06
9.93011e-06
4.70849e-06
2.97555e-06
9.92759e-06
4.70203e-06
9.92029e-06
2.97399e-06
5.64746e-06
4.70238e-06
2.97381e-06
9.92219e-06
4.70782e-06
9.92475e-06
2.97516e-06
5.6492e-06
4.70813e-06
2.97499e-06
9.92719e-06
9.96124e-06
2.23856e-05
2.23849e-05
9.96092e-06
2.23794e-05
2.23787e-05
1.90776e-05
1.90769e-05
1.90799e-05
1.90792e-05
1.90856e-05
1.90889e-05
4.70319e-06
2.97467e-06
9.9257e-06
5.64949e-06
4.7036e-06
9.92746e-06
2.97446e-06
4.70898e-06
2.97581e-06
9.9305e-06
5.65128e-06
4.70937e-06
9.93278e-06
2.97561e-06
9.96264e-06
2.23845e-05
2.23837e-05
9.963e-06
2.23907e-05
2.23899e-05
2.27641e-05
7.24295e-06
9.5634e-06
2.27573e-05
7.24276e-06
1.26553e-05
4.23818e-06
1.12416e-05
4.88387e-06
1.12436e-05
1.26517e-05
4.88383e-06
4.70908e-06
2.97576e-06
9.93044e-06
5.65096e-06
9.93221e-06
4.70944e-06
2.97557e-06
4.7033e-06
2.97474e-06
9.92585e-06
5.64974e-06
2.97456e-06
4.70367e-06
9.92847e-06
9.9627e-06
2.23842e-05
2.23848e-05
2.23905e-05
9.96308e-06
2.2391e-05
2.27634e-05
7.24264e-06
9.56445e-06
2.27566e-05
7.24244e-06
1.26553e-05
4.23825e-06
1.12417e-05
4.88382e-06
1.12439e-05
1.26518e-05
4.88378e-06
1.26551e-05
4.23914e-06
1.12472e-05
4.88485e-06
1.12451e-05
2.27625e-05
7.2441e-06
9.56404e-06
7.24368e-06
2.27554e-05
1.26542e-05
4.2384e-06
4.88416e-06
1.12417e-05
4.8839e-06
1.26515e-05
1.12439e-05
2.27617e-05
1.26552e-05
4.23895e-06
1.12475e-05
4.88446e-06
1.12446e-05
4.88452e-06
1.26591e-05
2.27634e-05
7.24251e-06
9.56419e-06
2.27566e-05
7.24229e-06
1.26551e-05
4.23831e-06
1.12411e-05
4.88384e-06
1.26516e-05
1.1244e-05
4.88377e-06
2.27629e-05
7.24352e-06
9.56484e-06
7.24374e-06
2.27697e-05
4.70904e-06
2.9758e-06
9.93039e-06
5.65112e-06
9.93226e-06
4.7094e-06
2.97564e-06
4.7031e-06
2.97469e-06
9.92563e-06
5.6497e-06
2.97451e-06
4.70345e-06
9.92751e-06
9.96219e-06
2.23837e-05
2.23841e-05
2.23898e-05
9.96256e-06
2.23902e-05
1.90868e-05
1.26552e-05
4.23913e-06
4.88462e-06
1.12474e-05
4.8847e-06
1.12447e-05
1.26586e-05
2.27627e-05
7.24389e-06
9.56426e-06
7.24369e-06
2.27559e-05
1.26549e-05
4.23841e-06
4.88402e-06
1.12413e-05
4.88395e-06
1.26514e-05
1.12441e-05
2.27622e-05
7.24491e-06
7.24512e-06
2.27689e-05
1.26556e-05
4.23915e-06
4.88454e-06
1.12474e-05
4.88468e-06
1.12444e-05
1.2659e-05
2.27644e-05
7.24297e-06
9.5649e-06
2.27575e-05
7.24274e-06
1.26553e-05
4.23838e-06
4.884e-06
1.12411e-05
1.26517e-05
4.88386e-06
1.12439e-05
2.27638e-05
7.24397e-06
9.56555e-06
7.2442e-06
2.27706e-05
1.90879e-05
1.90885e-05
1.90902e-05
1.90908e-05
4.41774e-07
4.41716e-07
6.53452e-07
4.43666e-07
4.43598e-07
2.35631e-07
2.33701e-07
2.82692e-06
1.96717e-06
1.9674e-06
1.41373e-06
1.96649e-06
1.96671e-06
2.82723e-06
4.49147e-07
4.49084e-07
2.43234e-07
2.4136e-07
2.82819e-06
1.96867e-06
1.9689e-06
1.41663e-06
2.82853e-06
1.96795e-06
1.96818e-06
2.82685e-06
1.96714e-06
1.96736e-06
1.41367e-06
1.96647e-06
1.96667e-06
2.82715e-06
2.82817e-06
1.41734e-06
1.96761e-06
1.96781e-06
1.96831e-06
1.96852e-06
2.82785e-06
2.82688e-06
1.96727e-06
1.9672e-06
1.41364e-06
1.96651e-06
1.96657e-06
2.8272e-06
2.82822e-06
1.41731e-06
1.96772e-06
1.96765e-06
1.96843e-06
1.96837e-06
2.82789e-06
2.82685e-06
1.96732e-06
1.96722e-06
1.41371e-06
1.96652e-06
1.96662e-06
2.82715e-06
2.82817e-06
1.41745e-06
1.96777e-06
1.96767e-06
1.96849e-06
1.96839e-06
2.82786e-06
2.82824e-06
1.41742e-06
1.96763e-06
1.96786e-06
2.82794e-06
1.96833e-06
1.96857e-06
2.82815e-06
1.96865e-06
1.96886e-06
1.41653e-06
2.82848e-06
1.96794e-06
1.96814e-06
2.82818e-06
1.96878e-06
1.96871e-06
1.41654e-06
1.96799e-06
2.82852e-06
1.96806e-06
2.82815e-06
1.96883e-06
1.96873e-06
1.4166e-06
1.96801e-06
2.82848e-06
1.9681e-06
4.41754e-07
4.41739e-07
6.53455e-07
4.43657e-07
4.43616e-07
2.35636e-07
2.33707e-07
4.41858e-07
4.41842e-07
6.53578e-07
4.43738e-07
4.43732e-07
2.35707e-07
2.33777e-07
4.41883e-07
4.41805e-07
6.53538e-07
4.4374e-07
4.43725e-07
2.35715e-07
2.33775e-07
6.55011e-07
4.47351e-07
4.47282e-07
4.45529e-07
4.45473e-07
2.37558e-07
2.39461e-07
6.54987e-07
4.47342e-07
4.473e-07
4.45509e-07
4.45497e-07
2.37563e-07
2.39465e-07
6.55145e-07
4.47421e-07
4.47417e-07
4.45615e-07
4.45597e-07
2.37633e-07
2.39536e-07
6.55127e-07
4.47421e-07
4.47415e-07
4.45643e-07
4.45555e-07
2.3763e-07
2.39546e-07
1.66438e-06
2.5395e-06
1.54152e-06
2.29419e-06
2.53974e-06
1.54247e-06
1.66293e-06
1.84148e-06
2.22244e-06
3.64431e-06
3.02095e-06
2.22193e-06
3.02056e-06
1.84272e-06
1.84325e-06
3.02103e-06
3.64516e-06
2.22229e-06
2.2228e-06
3.02143e-06
1.84195e-06
1.66247e-06
2.29359e-06
2.53934e-06
1.54188e-06
2.53911e-06
1.54094e-06
1.66387e-06
1.66443e-06
1.54161e-06
2.5396e-06
2.29419e-06
1.54246e-06
2.53979e-06
1.66311e-06
1.84158e-06
2.22245e-06
3.64433e-06
3.02097e-06
2.22196e-06
3.02064e-06
1.84274e-06
1.84326e-06
3.0211e-06
3.64517e-06
2.22231e-06
2.22281e-06
3.02145e-06
1.84207e-06
1.66259e-06
2.29366e-06
1.54188e-06
2.5394e-06
1.54104e-06
2.53921e-06
1.66393e-06
2.82759e-06
1.41597e-06
1.96689e-06
1.96711e-06
1.96758e-06
1.96781e-06
2.82728e-06
4.49127e-07
4.49116e-07
4.50842e-07
2.43238e-07
2.41365e-07
4.49228e-07
4.49213e-07
4.50967e-07
2.43309e-07
2.41436e-07
4.49263e-07
4.49164e-07
6.59541e-07
4.50955e-07
4.50982e-07
2.4332e-07
2.41431e-07
1.66639e-06
2.29568e-06
2.54088e-06
1.54348e-06
2.54113e-06
1.54451e-06
1.66456e-06
1.84328e-06
2.22377e-06
3.02275e-06
3.64683e-06
1.84493e-06
2.22323e-06
3.02233e-06
1.66418e-06
2.29516e-06
2.54082e-06
1.54404e-06
1.66608e-06
2.54056e-06
1.54304e-06
1.66662e-06
2.2957e-06
1.54351e-06
2.54093e-06
1.54452e-06
2.54117e-06
1.6642e-06
1.84319e-06
2.22377e-06
3.02276e-06
3.64684e-06
1.84489e-06
2.22324e-06
3.02238e-06
1.6641e-06
2.29518e-06
1.54404e-06
2.54085e-06
1.6658e-06
1.5431e-06
2.54063e-06
1.84559e-06
3.02275e-06
3.02317e-06
1.84344e-06
2.82882e-06
1.41874e-06
1.96825e-06
1.96847e-06
1.96898e-06
1.9692e-06
2.82848e-06
2.82751e-06
1.41589e-06
1.96688e-06
1.96707e-06
2.8272e-06
1.96756e-06
1.96777e-06
2.82754e-06
1.41516e-06
1.96794e-06
1.96816e-06
2.82785e-06
1.96726e-06
1.96745e-06
1.66436e-06
2.53954e-06
1.54154e-06
2.2941e-06
2.53975e-06
1.54239e-06
1.66308e-06
1.84157e-06
2.22238e-06
3.64413e-06
3.02097e-06
3.02061e-06
2.22189e-06
1.84269e-06
1.8432e-06
3.02108e-06
3.64498e-06
2.22225e-06
3.02145e-06
2.22274e-06
1.8421e-06
1.66253e-06
2.29357e-06
2.53935e-06
1.54181e-06
2.53914e-06
1.54096e-06
1.66386e-06
1.66423e-06
2.53939e-06
1.54148e-06
2.29405e-06
2.53958e-06
1.54233e-06
1.66299e-06
1.84143e-06
2.22258e-06
3.6445e-06
3.02065e-06
3.02032e-06
2.22208e-06
1.84254e-06
1.84305e-06
3.0208e-06
3.64539e-06
2.22244e-06
3.02113e-06
1.84197e-06
2.22294e-06
1.66242e-06
2.29351e-06
2.53918e-06
1.54175e-06
2.539e-06
1.5409e-06
1.66374e-06
1.66361e-06
2.54013e-06
1.54294e-06
2.2944e-06
1.66482e-06
2.53991e-06
1.54208e-06
1.84415e-06
2.22289e-06
3.64625e-06
3.02198e-06
2.2234e-06
3.02235e-06
1.84315e-06
1.84263e-06
3.02191e-06
2.22308e-06
3.64543e-06
2.22258e-06
1.84368e-06
3.02153e-06
1.66525e-06
2.2949e-06
2.54027e-06
1.5426e-06
2.54049e-06
1.54346e-06
1.66408e-06
1.6635e-06
2.53996e-06
1.54288e-06
2.29434e-06
1.6647e-06
2.53977e-06
1.54203e-06
1.844e-06
2.22308e-06
3.64666e-06
3.02169e-06
3.02203e-06
2.22361e-06
1.843e-06
1.84251e-06
3.02159e-06
2.22329e-06
3.6458e-06
1.84354e-06
3.02125e-06
2.22278e-06
1.66513e-06
2.29484e-06
2.54012e-06
1.54255e-06
2.54032e-06
1.5434e-06
1.66394e-06
2.82756e-06
1.41586e-06
1.96698e-06
1.96692e-06
1.96762e-06
1.96768e-06
2.82723e-06
2.82757e-06
1.41514e-06
1.96807e-06
1.968e-06
1.96736e-06
2.8279e-06
1.9673e-06
1.66446e-06
2.53954e-06
1.5415e-06
2.29415e-06
2.53976e-06
1.54241e-06
1.66282e-06
1.84146e-06
2.2227e-06
3.64469e-06
3.02108e-06
3.0207e-06
2.2222e-06
1.84277e-06
1.84334e-06
3.02117e-06
3.64551e-06
2.22256e-06
3.02156e-06
2.22306e-06
1.84191e-06
1.66241e-06
2.29356e-06
2.53936e-06
1.54183e-06
2.53914e-06
1.54092e-06
1.66391e-06
1.66424e-06
1.5415e-06
2.53941e-06
2.29407e-06
1.54235e-06
2.5396e-06
1.66307e-06
1.8415e-06
2.22263e-06
3.64462e-06
3.02067e-06
3.02033e-06
2.22217e-06
1.84257e-06
1.84308e-06
3.02081e-06
3.64543e-06
2.22253e-06
3.02113e-06
1.84205e-06
2.223e-06
1.66256e-06
2.29353e-06
1.54177e-06
2.53921e-06
1.54092e-06
2.53902e-06
1.66373e-06
1.66317e-06
2.54014e-06
1.54296e-06
2.2944e-06
1.66506e-06
2.53991e-06
1.54205e-06
1.84456e-06
2.22321e-06
3.64678e-06
3.02206e-06
2.22372e-06
3.02246e-06
1.84275e-06
1.84232e-06
3.02202e-06
2.2234e-06
3.64599e-06
2.2229e-06
1.84393e-06
3.02162e-06
1.66573e-06
2.29493e-06
2.54027e-06
1.54257e-06
2.5405e-06
1.54348e-06
1.66361e-06
1.66352e-06
1.54289e-06
2.53997e-06
2.29436e-06
1.6647e-06
1.54204e-06
2.53978e-06
1.84403e-06
2.22317e-06
3.6467e-06
3.02169e-06
3.02202e-06
2.22367e-06
1.84305e-06
1.84258e-06
3.02158e-06
2.22334e-06
3.64591e-06
1.84357e-06
3.02125e-06
2.22286e-06
1.66514e-06
2.29486e-06
1.54256e-06
2.54014e-06
1.54342e-06
2.54033e-06
1.66398e-06
1.66436e-06
1.5415e-06
2.53943e-06
2.29415e-06
1.54245e-06
2.53964e-06
1.66286e-06
1.84139e-06
2.22237e-06
3.64424e-06
3.02059e-06
2.22189e-06
3.02021e-06
1.84264e-06
1.84316e-06
3.02068e-06
3.64508e-06
2.22225e-06
2.22274e-06
3.02107e-06
1.8419e-06
1.66242e-06
2.29357e-06
1.54186e-06
2.53924e-06
1.54092e-06
2.53903e-06
1.66384e-06
1.66328e-06
2.54012e-06
1.54302e-06
2.29443e-06
1.66493e-06
2.53987e-06
1.54206e-06
1.84438e-06
2.22294e-06
3.64643e-06
3.02192e-06
1.84277e-06
2.22346e-06
3.02232e-06
1.84236e-06
3.02188e-06
2.22314e-06
3.6456e-06
1.84379e-06
2.22263e-06
3.02149e-06
1.66556e-06
2.29498e-06
2.54023e-06
1.54257e-06
1.66368e-06
2.54048e-06
1.54355e-06
1.66323e-06
1.543e-06
2.54002e-06
2.2944e-06
1.66491e-06
1.54204e-06
2.5398e-06
1.84409e-06
2.22289e-06
3.64634e-06
3.02158e-06
3.02196e-06
2.22339e-06
1.84288e-06
1.84239e-06
3.02152e-06
2.22308e-06
3.64554e-06
1.84365e-06
3.02114e-06
2.22258e-06
1.66552e-06
2.29494e-06
1.54255e-06
2.54015e-06
1.54353e-06
2.54038e-06
1.66359e-06
2.82751e-06
1.41599e-06
1.96703e-06
1.96693e-06
1.96764e-06
1.96773e-06
2.8272e-06
2.82754e-06
1.41521e-06
1.96812e-06
1.96803e-06
1.96741e-06
2.82785e-06
1.96731e-06
1.66429e-06
1.54154e-06
2.53942e-06
2.29411e-06
1.54239e-06
2.53963e-06
1.66303e-06
1.84151e-06
2.22271e-06
3.64475e-06
3.02074e-06
2.22223e-06
3.02039e-06
1.8426e-06
1.84311e-06
3.02087e-06
3.64558e-06
2.22259e-06
2.22307e-06
3.02122e-06
1.84205e-06
1.66248e-06
2.29358e-06
1.54182e-06
2.53923e-06
1.54097e-06
2.53902e-06
1.66379e-06
1.6636e-06
1.54301e-06
2.54017e-06
2.29446e-06
1.66489e-06
1.54215e-06
2.53997e-06
1.84427e-06
2.22295e-06
3.64643e-06
3.02198e-06
1.84289e-06
2.22347e-06
3.02234e-06
1.84252e-06
3.0219e-06
2.22315e-06
3.64563e-06
1.84376e-06
2.22264e-06
3.02155e-06
1.6653e-06
2.29499e-06
1.54263e-06
2.54032e-06
1.66396e-06
1.54353e-06
2.54052e-06
1.66355e-06
1.54294e-06
2.54001e-06
2.2944e-06
1.66475e-06
1.54209e-06
2.53979e-06
1.84406e-06
2.22324e-06
3.64684e-06
3.02176e-06
3.02212e-06
2.22374e-06
1.84309e-06
1.84258e-06
3.02167e-06
2.22342e-06
3.64604e-06
1.84359e-06
3.02132e-06
2.22292e-06
1.66518e-06
2.29491e-06
1.54258e-06
2.54015e-06
1.54346e-06
2.54037e-06
1.664e-06
2.82761e-06
1.41524e-06
1.96797e-06
1.9682e-06
2.82793e-06
1.96727e-06
1.9675e-06
1.8436e-06
2.2237e-06
3.02277e-06
3.64665e-06
3.0224e-06
1.84457e-06
2.22317e-06
1.66449e-06
2.29513e-06
2.54083e-06
1.54395e-06
2.54061e-06
1.66565e-06
1.54311e-06
1.84341e-06
2.22391e-06
3.02246e-06
3.64701e-06
1.84445e-06
3.02209e-06
2.22337e-06
1.66433e-06
2.29505e-06
2.54066e-06
1.5439e-06
1.66557e-06
2.54046e-06
1.54305e-06
1.8431e-06
2.22402e-06
3.02289e-06
3.64721e-06
3.02249e-06
1.84507e-06
2.2235e-06
1.66395e-06
2.29514e-06
2.54084e-06
1.54397e-06
2.5406e-06
1.66618e-06
1.54306e-06
1.84346e-06
2.22396e-06
3.02243e-06
3.64713e-06
1.84448e-06
3.0221e-06
2.22346e-06
1.66441e-06
2.29509e-06
1.54392e-06
2.54067e-06
1.66558e-06
1.54305e-06
2.54047e-06
1.66661e-06
2.29565e-06
1.54346e-06
2.54078e-06
1.54449e-06
2.54102e-06
1.66398e-06
1.84338e-06
2.22369e-06
3.02237e-06
3.64675e-06
2.22316e-06
1.8445e-06
3.02199e-06
1.66396e-06
2.29513e-06
1.54402e-06
2.54072e-06
1.54304e-06
1.66607e-06
2.54049e-06
1.8449e-06
3.02239e-06
3.64753e-06
2.22342e-06
2.22396e-06
3.02276e-06
1.84385e-06
1.66597e-06
2.29562e-06
1.54351e-06
2.5408e-06
1.54444e-06
2.54103e-06
1.6648e-06
1.84351e-06
2.22404e-06
3.02254e-06
3.64726e-06
2.22353e-06
1.84448e-06
3.02216e-06
1.66441e-06
2.29511e-06
1.54397e-06
2.54071e-06
1.54306e-06
1.6656e-06
2.54047e-06
1.84488e-06
3.02259e-06
3.64804e-06
2.2238e-06
2.22432e-06
3.02295e-06
1.84391e-06
8.63135e-07
1.14864e-06
8.63014e-07
9.16183e-06
3.47529e-06
1.84287e-05
5.46353e-06
5.46203e-06
1.84266e-05
3.47477e-06
9.16187e-06
2.20549e-05
9.15932e-06
7.08874e-06
7.08907e-06
2.20615e-05
1.84236e-05
4.54467e-06
2.81233e-06
5.46322e-06
9.50445e-06
2.81179e-06
9.50082e-06
4.54516e-06
4.53872e-06
2.81116e-06
5.46194e-06
9.49965e-06
9.49669e-06
2.81067e-06
4.53896e-06
9.7362e-06
2.17293e-05
2.17296e-05
2.1723e-05
2.17233e-05
9.73584e-06
1.84215e-05
2.20523e-05
9.15938e-06
7.0895e-06
7.09003e-06
2.20592e-05
2.66819e-06
1.14923e-06
1.76826e-06
1.76811e-06
1.7679e-06
1.76781e-06
2.66828e-06
1.61712e-06
2.03271e-06
3.47473e-06
2.86051e-06
2.85982e-06
2.03195e-06
1.61752e-06
1.61832e-06
2.03176e-06
3.47479e-06
2.86043e-06
2.03193e-06
2.86028e-06
1.61653e-06
3.23772e-07
8.69024e-07
8.6917e-07
1.15478e-06
3.39807e-07
8.92452e-07
8.92597e-07
1.17374e-06
3.56086e-07
9.14893e-07
9.15035e-07
1.19216e-06
3.72529e-07
9.36326e-07
9.36463e-07
1.20968e-06
3.89055e-07
9.5674e-07
9.56877e-07
1.22628e-06
4.05583e-07
9.76162e-07
9.76297e-07
1.24204e-06
4.22034e-07
9.94597e-07
9.94726e-07
1.25701e-06
4.38331e-07
1.01205e-06
1.01217e-06
1.27114e-06
4.54403e-07
1.02853e-06
1.02864e-06
1.28456e-06
4.70184e-07
1.04405e-06
1.04416e-06
1.29722e-06
4.85614e-07
1.05865e-06
1.05875e-06
1.30917e-06
5.00641e-07
1.07234e-06
1.07244e-06
1.32044e-06
5.15218e-07
1.08515e-06
1.08524e-06
1.33102e-06
5.29304e-07
1.0971e-06
1.0972e-06
1.34095e-06
5.42862e-07
1.10822e-06
1.10832e-06
1.35026e-06
5.55863e-07
1.11854e-06
1.11865e-06
1.35892e-06
5.68279e-07
1.12809e-06
1.12819e-06
1.36697e-06
5.80091e-07
1.13688e-06
1.13698e-06
1.37443e-06
5.91284e-07
1.14494e-06
1.14505e-06
1.38134e-06
6.01849e-07
1.15229e-06
1.1524e-06
1.38771e-06
6.11778e-07
1.15896e-06
1.15908e-06
1.39354e-06
6.21066e-07
1.16498e-06
1.16509e-06
1.39887e-06
6.29715e-07
1.17035e-06
1.17046e-06
1.40369e-06
6.37726e-07
1.17511e-06