/*--------------------------------*- C++ -*----------------------------------*\
| =========                 |                                                 |
| \\      /  F ield         | OpenFOAM: The Open Source CFD Toolbox           |
|  \\    /   O peration     | Version:  2312                                  |
|   \\  /    A nd           | Website:  www.openfoam.com                      |
|    \\/     M anipulation  |                                                 |
\*---------------------------------------------------------------------------*/
FoamFile
{
    version     2.0;
    format      ascii;
    arch        "LSB;label=32;scalar=64";
    class       volScalarField;
    location    "650";
    object      k;
}
// * * * * * * * * * * * * * * * * * * * * * * * * * * * * * * * * * * * * * //

dimensions      [0 2 -2 0 0 0 0];

internalField   nonuniform List<scalar> 
43496
(
6.8573e-05
7.11956e-05
5.14165e-05
6.47962e-05
6.06267e-05
4.67105e-05
6.85716e-05
7.34397e-05
6.06253e-05
5.1412e-05
4.67112e-05
6.47925e-05
5.35375e-05
6.99404e-05
6.99371e-05
7.11942e-05
7.34445e-05
7.18484e-05
6.85643e-05
7.16009e-05
7.16305e-05
7.15892e-05
7.16181e-05
7.1862e-05
7.1683e-05
7.97875e-05
7.97798e-05
7.16973e-05
7.11838e-05
7.18493e-05
6.8563e-05
7.16299e-05
7.15941e-05
7.16176e-05
7.15861e-05
7.18584e-05
7.16812e-05
7.97681e-05
7.34308e-05
7.97607e-05
7.16955e-05
9.49809e-05
7.34964e-05
7.35025e-05
7.34829e-05
7.3489e-05
9.49836e-05
7.41988e-05
7.32809e-05
6.99367e-05
6.52493e-05
7.32686e-05
6.52362e-05
7.42044e-05
7.41509e-05
7.32728e-05
6.99337e-05
6.52442e-05
6.52316e-05
7.32604e-05
7.41566e-05
7.11824e-05
7.34333e-05
3.19043e-05
3.89084e-05
3.19095e-05
6.47849e-05
6.03786e-05
6.03737e-05
5.6297e-05
6.06129e-05
6.23231e-05
5.50093e-05
6.23051e-05
5.50262e-05
5.62889e-05
5.73866e-05
6.42062e-05
6.41934e-05
5.73883e-05
5.6296e-05
6.06117e-05
5.50081e-05
6.23164e-05
5.50251e-05
6.23041e-05
5.62835e-05
5.73906e-05
6.41973e-05
6.4782e-05
6.03725e-05
6.41873e-05
5.73761e-05
6.03719e-05
6.59264e-05
5.35345e-05
5.94797e-05
5.94822e-05
5.94779e-05
5.94752e-05
6.59341e-05
3.8387e-05
5.11096e-05
5.11132e-05
5.32893e-05
3.88047e-05
5.13554e-05
5.13589e-05
5.34955e-05
5.32993e-05
5.34338e-05
5.11102e-05
5.11046e-05
5.12963e-05
5.12915e-05
5.32991e-05
5.34301e-05
5.11076e-05
5.11087e-05
5.12938e-05
5.12949e-05
5.11097e-05
5.12952e-05
5.12942e-05
5.32926e-05
5.34444e-05
5.11069e-05
5.12993e-05
5.12938e-05
5.34314e-05
5.34919e-05
5.13559e-05
5.13497e-05
5.34959e-05
5.13534e-05
5.13544e-05
5.13566e-05
5.34877e-05
5.13528e-05
6.85142e-05
7.33583e-05
7.33848e-05
6.8488e-05
7.11138e-05
7.11401e-05
6.85143e-05
7.3361e-05
7.33855e-05
6.84858e-05
3.83857e-05
3.83917e-05
3.83902e-05
3.87025e-05
3.87017e-05
3.8707e-05
3.87053e-05
6.05237e-05
6.46951e-05
4.63287e-05
5.11723e-05
6.47264e-05
4.64087e-05
6.0475e-05
7.11152e-05
7.11412e-05
6.05225e-05
4.63326e-05
6.46955e-05
5.11765e-05
4.64123e-05
6.47267e-05
6.04774e-05
6.98611e-05
6.98701e-05
5.33357e-05
6.98803e-05
6.98881e-05
7.34177e-05
6.85507e-05
7.11688e-05
7.34206e-05
6.85495e-05
3.88034e-05
3.88093e-05
3.88079e-05
6.06291e-05
6.47679e-05
4.66385e-05
6.05853e-05
4.67119e-05
7.11703e-05
6.06289e-05
4.66426e-05
6.47679e-05
6.05846e-05
4.67153e-05
6.99164e-05
6.99254e-05
5.35212e-05
6.9933e-05
6.99419e-05
7.11125e-05
7.11387e-05
7.11156e-05
7.11416e-05
6.98651e-05
6.98733e-05
5.33352e-05
6.98839e-05
6.98915e-05
7.11661e-05
7.11403e-05
7.11691e-05
7.11434e-05
5.33996e-05
6.99112e-05
6.9919e-05
6.98934e-05
6.99017e-05
6.85126e-05
7.3355e-05
7.33814e-05
6.84863e-05
6.05227e-05
6.46939e-05
4.63281e-05
5.11735e-05
6.4725e-05
4.6408e-05
6.04776e-05
6.05209e-05
6.46899e-05
4.63255e-05
5.11683e-05
6.47207e-05
4.64057e-05
6.04759e-05
6.85201e-05
7.34142e-05
7.33883e-05
6.85452e-05
6.85178e-05
7.34111e-05
7.3385e-05
6.85443e-05
6.05344e-05
5.12358e-05
6.47606e-05
4.65629e-05
6.47311e-05
4.64866e-05
6.05766e-05
6.05327e-05
5.123e-05
6.47565e-05
4.65607e-05
6.47272e-05
4.64838e-05
6.05748e-05
6.98649e-05
6.98669e-05
5.33329e-05
6.98841e-05
6.98852e-05
7.11141e-05
7.11402e-05
7.11675e-05
7.11415e-05
5.33976e-05
6.99115e-05
6.99126e-05
6.98932e-05
6.98951e-05
7.11676e-05
7.11418e-05
6.05217e-05
6.46958e-05
4.63277e-05
5.11709e-05
6.47271e-05
4.64073e-05
6.04747e-05
6.85117e-05
7.33568e-05
7.33813e-05
6.84854e-05
6.05202e-05
4.63285e-05
6.46923e-05
5.1172e-05
4.64081e-05
6.47231e-05
6.04753e-05
6.8518e-05
7.34152e-05
7.3391e-05
6.85441e-05
6.05329e-05
5.12333e-05
6.47628e-05
4.65623e-05
6.47332e-05
4.64861e-05
6.05756e-05
6.85176e-05
7.34109e-05
7.33868e-05
6.85426e-05
6.0532e-05
5.12344e-05
4.6563e-05
6.47587e-05
4.64869e-05
6.47295e-05
6.05742e-05
6.85128e-05
7.33587e-05
7.33852e-05
6.84847e-05
6.05237e-05
4.63296e-05
6.4691e-05
5.1172e-05
4.64089e-05
6.47219e-05
6.04747e-05
6.8514e-05
7.33566e-05
7.33811e-05
6.84853e-05
6.05318e-05
5.12353e-05
6.4762e-05
4.65636e-05
6.47324e-05
4.6487e-05
6.05779e-05
6.85169e-05
7.34148e-05
7.33888e-05
6.85437e-05
6.05316e-05
5.12358e-05
4.65637e-05
6.47574e-05
4.64881e-05
6.47283e-05
6.05778e-05
6.85173e-05
7.34107e-05
7.33866e-05
6.85437e-05
6.98681e-05
6.98654e-05
5.33467e-05
6.98875e-05
6.98842e-05
7.11138e-05
7.11399e-05
7.11687e-05
7.1143e-05
5.33907e-05
6.99148e-05
6.99116e-05
6.98964e-05
6.98936e-05
7.11673e-05
7.11415e-05
6.05198e-05
4.63298e-05
6.46935e-05
5.11709e-05
4.64092e-05
6.47245e-05
6.04747e-05
6.85117e-05
7.33596e-05
7.3386e-05
6.84854e-05
6.85079e-05
7.33582e-05
7.33827e-05
6.84817e-05
6.05342e-05
5.12388e-05
4.65671e-05
6.47624e-05
4.6491e-05
6.47327e-05
6.05769e-05
6.05313e-05
5.12325e-05
4.6564e-05
6.47601e-05
4.64882e-05
6.47308e-05
6.0574e-05
6.85167e-05
7.34155e-05
7.33896e-05
6.8543e-05
6.85139e-05
7.34123e-05
7.33882e-05
6.85391e-05
7.11137e-05
7.11398e-05
7.11164e-05
7.11424e-05
5.33945e-05
6.99077e-05
6.99155e-05
6.98895e-05
6.98984e-05
7.11672e-05
7.11415e-05
7.11698e-05
7.11442e-05
7.11677e-05
7.11707e-05
6.99203e-05
6.99285e-05
7.34144e-05
6.85475e-05
6.47667e-05
4.66382e-05
6.05879e-05
6.47625e-05
4.66354e-05
6.0586e-05
6.99201e-05
6.9922e-05
7.11692e-05
6.47689e-05
4.66378e-05
6.05869e-05
7.34161e-05
6.85482e-05
4.66385e-05
6.47648e-05
6.05856e-05
6.85729e-05
7.34182e-05
6.85474e-05
6.06291e-05
4.66398e-05
6.47637e-05
5.14104e-05
6.05852e-05
4.67117e-05
6.47912e-05
6.85727e-05
7.3416e-05
6.85491e-05
7.34395e-05
6.99236e-05
6.99207e-05
7.11688e-05
6.06261e-05
4.66398e-05
6.47663e-05
5.14115e-05
6.05824e-05
4.67122e-05
6.47937e-05
6.85722e-05
7.3419e-05
6.85468e-05
6.85684e-05
7.34176e-05
6.85435e-05
7.3441e-05
7.11688e-05
7.11941e-05
7.11715e-05
7.11968e-05
7.17929e-05
7.15712e-05
7.15457e-05
6.85043e-05
7.15589e-05
7.15368e-05
7.18024e-05
7.16304e-05
7.33698e-05
7.9718e-05
7.97263e-05
7.16158e-05
7.16294e-05
7.97394e-05
7.33733e-05
7.97312e-05
7.16439e-05
7.17879e-05
6.84983e-05
7.15452e-05
7.15219e-05
7.15558e-05
7.15312e-05
7.17782e-05
7.11263e-05
7.11277e-05
7.17908e-05
7.15455e-05
7.15715e-05
6.85019e-05
7.15331e-05
7.15591e-05
7.18047e-05
7.16306e-05
7.33706e-05
7.97157e-05
7.97244e-05
7.1616e-05
7.16296e-05
7.97375e-05
7.3376e-05
7.97289e-05
7.16441e-05
7.17901e-05
6.84983e-05
7.15186e-05
7.15444e-05
7.15309e-05
7.15566e-05
7.17759e-05
7.11274e-05
7.11291e-05
9.49253e-05
7.34531e-05
7.34464e-05
7.34394e-05
7.34328e-05
9.49284e-05
7.40739e-05
6.51183e-05
6.98662e-05
7.31884e-05
6.51321e-05
7.3201e-05
7.40682e-05
7.41215e-05
6.51262e-05
6.9874e-05
7.31998e-05
6.51407e-05
7.32091e-05
7.41166e-05
7.40855e-05
7.32154e-05
6.98755e-05
6.51553e-05
6.51416e-05
7.3203e-05
7.40909e-05
7.41338e-05
7.32235e-05
6.98844e-05
6.51638e-05
6.51496e-05
7.32143e-05
7.41385e-05
9.49138e-05
7.34266e-05
7.342e-05
7.34404e-05
7.34337e-05
9.49106e-05
7.16839e-05
7.97695e-05
7.3429e-05
7.16696e-05
7.97775e-05
7.18453e-05
6.85605e-05
7.16034e-05
7.15795e-05
7.18363e-05
7.16164e-05
7.15877e-05
7.11811e-05
7.16841e-05
7.97674e-05
7.34294e-05
7.16697e-05
7.97753e-05
7.18473e-05
6.85589e-05
7.15762e-05
7.16039e-05
7.1834e-05
7.15875e-05
7.16159e-05
7.11822e-05
9.49819e-05
7.35032e-05
7.34966e-05
7.34898e-05
7.34832e-05
9.49843e-05
7.41388e-05
6.52081e-05
7.32458e-05
6.99207e-05
7.41349e-05
6.52204e-05
7.32577e-05
7.41868e-05
6.5216e-05
7.32572e-05
6.99289e-05
7.4183e-05
6.5229e-05
7.32661e-05
9.49706e-05
7.34773e-05
7.34707e-05
9.49682e-05
7.34909e-05
7.34842e-05
7.41503e-05
7.32709e-05
6.99297e-05
6.52408e-05
6.5229e-05
7.32608e-05
7.41551e-05
7.41983e-05
7.32798e-05
6.99384e-05
6.52494e-05
6.52369e-05
7.32712e-05
7.42033e-05
7.11248e-05
7.11265e-05
7.11278e-05
7.11295e-05
9.49283e-05
7.34527e-05
7.34459e-05
7.34389e-05
7.34322e-05
9.49314e-05
7.40757e-05
6.51209e-05
6.98697e-05
7.31891e-05
7.32018e-05
6.51333e-05
7.40701e-05
7.41212e-05
6.51273e-05
6.98774e-05
7.32002e-05
7.32095e-05
6.51413e-05
7.41168e-05
7.40873e-05
7.32162e-05
6.98794e-05
6.51564e-05
7.32037e-05
7.40927e-05
6.51441e-05
7.41339e-05
7.32239e-05
6.98877e-05
6.51644e-05
7.32146e-05
7.41382e-05
6.51507e-05
9.49167e-05
7.34261e-05
7.34194e-05
7.34399e-05
7.34331e-05
9.49136e-05
7.1154e-05
7.11524e-05
7.11571e-05
7.11554e-05
9.49458e-05
7.34516e-05
7.34449e-05
9.49429e-05
7.34653e-05
7.34585e-05
7.41204e-05
6.52005e-05
6.99069e-05
7.32449e-05
7.32323e-05
6.51891e-05
7.41256e-05
7.41671e-05
6.52086e-05
6.99154e-05
7.32525e-05
7.32435e-05
6.51956e-05
7.4171e-05
7.41094e-05
7.32183e-05
6.51669e-05
6.98977e-05
7.41041e-05
7.32305e-05
6.51787e-05
7.41547e-05
7.32292e-05
6.51734e-05
6.99056e-05
7.41507e-05
7.32386e-05
6.51867e-05
9.49572e-05
7.34779e-05
7.34711e-05
7.34643e-05
7.34575e-05
9.496e-05
7.1792e-05
7.1571e-05
7.15404e-05
6.85024e-05
7.15586e-05
7.15313e-05
7.18015e-05
7.16298e-05
7.33665e-05
7.96995e-05
7.9708e-05
7.16152e-05
7.16288e-05
7.97211e-05
7.33701e-05
7.97128e-05
7.16433e-05
7.1787e-05
6.84966e-05
7.15439e-05
7.15165e-05
7.15561e-05
7.15258e-05
7.17774e-05
7.18169e-05
7.15739e-05
7.15512e-05
6.853e-05
7.18074e-05
7.15862e-05
7.15603e-05
7.16563e-05
7.34031e-05
7.97651e-05
7.16707e-05
7.9757e-05
7.16573e-05
7.97443e-05
7.33995e-05
7.16429e-05
7.97523e-05
7.1822e-05
6.85356e-05
7.16012e-05
7.15743e-05
7.18315e-05
7.15889e-05
7.15655e-05
7.1816e-05
7.15737e-05
7.15459e-05
6.85286e-05
7.18065e-05
7.15859e-05
7.1555e-05
7.16557e-05
7.33998e-05
7.97467e-05
7.97388e-05
7.167e-05
7.16567e-05
7.97258e-05
7.33962e-05
7.16423e-05
7.9734e-05
7.18211e-05
6.85326e-05
7.16009e-05
7.15688e-05
7.15886e-05
7.15602e-05
7.18305e-05
9.49274e-05
7.34468e-05
7.34529e-05
7.34331e-05
7.34391e-05
9.49299e-05
7.41218e-05
6.51243e-05
6.98699e-05
7.3197e-05
7.32095e-05
6.51373e-05
7.41163e-05
7.40748e-05
6.51212e-05
6.9871e-05
7.31919e-05
6.51347e-05
7.32012e-05
7.40704e-05
7.41335e-05
7.32239e-05
6.98793e-05
6.51603e-05
7.32116e-05
6.51477e-05
7.41389e-05
7.40876e-05
7.32156e-05
6.98811e-05
6.51578e-05
6.51446e-05
7.32063e-05
7.40917e-05
9.49153e-05
7.34203e-05
7.34264e-05
7.34341e-05
7.34401e-05
9.49126e-05
7.11263e-05
7.1128e-05
7.11552e-05
7.11539e-05
9.49443e-05
7.34458e-05
7.34518e-05
9.49419e-05
7.34595e-05
7.34656e-05
7.41666e-05
6.52045e-05
6.99067e-05
7.32526e-05
6.51926e-05
7.32401e-05
7.41715e-05
7.41208e-05
6.5202e-05
6.99087e-05
7.32442e-05
7.32351e-05
6.51895e-05
7.41245e-05
7.41556e-05
7.32261e-05
6.51704e-05
6.98978e-05
6.51827e-05
7.41502e-05
7.32382e-05
7.41083e-05
7.32209e-05
6.51673e-05
6.98989e-05
7.41044e-05
7.32302e-05
6.51801e-05
9.49562e-05
7.34721e-05
7.34781e-05
7.34584e-05
7.34645e-05
9.49585e-05
7.11555e-05
7.11539e-05
7.17918e-05
7.1571e-05
7.15389e-05
6.85017e-05
7.15586e-05
7.15298e-05
7.18012e-05
7.16288e-05
7.33664e-05
7.96964e-05
7.97048e-05
7.16143e-05
7.16279e-05
7.9718e-05
7.33718e-05
7.97096e-05
7.16423e-05
7.17867e-05
6.84958e-05
7.15439e-05
7.15151e-05
7.15561e-05
7.15243e-05
7.17771e-05
7.1819e-05
7.15479e-05
7.15742e-05
6.85296e-05
7.18054e-05
7.15599e-05
7.15865e-05
7.16565e-05
7.34058e-05
7.9763e-05
7.16709e-05
7.97549e-05
7.16575e-05
7.9742e-05
7.34006e-05
7.16431e-05
7.97503e-05
7.18201e-05
6.85342e-05
7.15742e-05
7.16015e-05
7.18331e-05
7.15621e-05
7.15891e-05
7.18156e-05
7.15737e-05
7.15444e-05
6.85275e-05
7.18062e-05
7.1586e-05
7.15535e-05
7.16547e-05
7.34017e-05
7.97436e-05
7.97357e-05
7.16691e-05
7.16557e-05
7.97228e-05
7.33964e-05
7.16413e-05
7.97309e-05
7.18208e-05
6.85331e-05
7.16007e-05
7.15674e-05
7.15885e-05
7.15587e-05
7.18301e-05
7.17889e-05
7.1541e-05
7.15709e-05
6.85008e-05
7.153e-05
7.15582e-05
7.18034e-05
7.16296e-05
7.33702e-05
7.97131e-05
7.97172e-05
7.16144e-05
7.1628e-05
7.97303e-05
7.33738e-05
7.97263e-05
7.16431e-05
7.17888e-05
6.84967e-05
7.15152e-05
7.15436e-05
7.15263e-05
7.1556e-05
7.17743e-05
7.17897e-05
7.15711e-05
7.15416e-05
6.85014e-05
7.15586e-05
7.15293e-05
7.18031e-05
7.16294e-05
7.33662e-05
7.96961e-05
7.97047e-05
7.16148e-05
7.16284e-05
7.97178e-05
7.33716e-05
7.97094e-05
7.16429e-05
7.17888e-05
6.84977e-05
7.15439e-05
7.15147e-05
7.15561e-05
7.15269e-05
7.17748e-05
7.18178e-05
7.15447e-05
7.15733e-05
6.85285e-05
7.18036e-05
7.15554e-05
7.15859e-05
7.16548e-05
7.34035e-05
7.97557e-05
7.9752e-05
7.16698e-05
7.16565e-05
7.97393e-05
7.34e-05
7.16415e-05
7.97431e-05
7.18181e-05
6.85324e-05
7.15694e-05
7.16006e-05
7.15589e-05
7.15881e-05
7.18319e-05
7.1817e-05
7.15737e-05
7.15441e-05
6.85295e-05
7.18056e-05
7.15859e-05
7.15558e-05
7.16552e-05
7.34015e-05
7.97432e-05
7.97353e-05
7.16696e-05
7.16563e-05
7.97225e-05
7.33962e-05
7.16419e-05
7.97306e-05
7.18204e-05
6.85339e-05
7.15998e-05
7.15687e-05
7.15894e-05
7.15594e-05
7.18306e-05
9.49242e-05
7.34461e-05
7.34522e-05
7.34325e-05
7.34386e-05
9.49272e-05
7.41231e-05
6.51254e-05
6.98732e-05
7.31974e-05
7.32099e-05
6.51404e-05
7.4117e-05
7.4075e-05
6.51208e-05
6.987e-05
7.31891e-05
6.51352e-05
7.32016e-05
7.40691e-05
7.41343e-05
7.32243e-05
6.98825e-05
6.51635e-05
7.3212e-05
6.51488e-05
7.414e-05
7.40864e-05
7.32161e-05
6.98796e-05
6.51583e-05
6.51441e-05
7.32037e-05
7.4092e-05
9.49125e-05
7.34197e-05
7.34258e-05
7.34334e-05
7.34395e-05
9.49094e-05
7.1126e-05
7.11277e-05
7.11567e-05
7.1155e-05
9.49416e-05
7.34452e-05
7.34513e-05
9.49388e-05
7.34588e-05
7.34649e-05
7.41674e-05
6.52076e-05
6.99101e-05
7.32528e-05
6.51938e-05
7.32405e-05
7.41728e-05
7.41195e-05
6.52026e-05
6.99071e-05
7.32446e-05
7.32323e-05
6.51889e-05
7.4125e-05
7.41568e-05
7.32265e-05
6.51715e-05
6.9901e-05
6.51858e-05
7.41511e-05
7.32386e-05
7.41088e-05
7.32183e-05
6.51668e-05
6.98981e-05
7.41032e-05
7.32304e-05
6.51806e-05
9.4953e-05
7.34714e-05
7.34775e-05
7.34578e-05
7.34639e-05
9.49558e-05
7.11552e-05
7.11536e-05
7.1793e-05
7.15447e-05
7.15691e-05
6.85015e-05
7.15357e-05
7.15598e-05
7.18024e-05
7.16307e-05
7.33711e-05
7.97143e-05
7.97228e-05
7.16162e-05
7.16298e-05
7.97359e-05
7.33746e-05
7.97274e-05
7.16442e-05
7.17879e-05
6.84957e-05
7.1521e-05
7.15449e-05
7.15303e-05
7.15544e-05
7.17784e-05
7.17909e-05
7.15365e-05
7.15681e-05
6.84981e-05
7.15276e-05
7.15587e-05
7.18004e-05
7.16299e-05
7.33678e-05
7.96975e-05
7.9706e-05
7.16153e-05
7.16289e-05
7.97191e-05
7.33732e-05
7.97108e-05
7.16434e-05
7.17859e-05
6.8492e-05
7.15127e-05
7.15438e-05
7.1522e-05
7.15533e-05
7.17763e-05
7.18168e-05
7.15501e-05
7.15746e-05
6.85277e-05
7.18074e-05
7.15593e-05
7.15842e-05
7.16566e-05
7.34042e-05
7.97613e-05
7.97532e-05
7.16709e-05
7.16576e-05
7.97404e-05
7.34008e-05
7.16432e-05
7.97487e-05
7.18219e-05
6.85317e-05
7.15735e-05
7.15988e-05
7.15634e-05
7.15895e-05
7.18313e-05
7.18148e-05
7.15421e-05
7.15736e-05
6.85238e-05
7.18053e-05
7.15511e-05
7.15831e-05
7.16557e-05
7.3403e-05
7.97447e-05
7.97367e-05
7.16702e-05
7.16568e-05
7.97239e-05
7.33977e-05
7.16423e-05
7.9732e-05
7.18199e-05
6.8529e-05
7.1565e-05
7.15977e-05
7.15564e-05
7.15884e-05
7.18293e-05
7.11259e-05
7.11276e-05
7.11285e-05
7.11303e-05
9.49427e-05
7.34522e-05
7.34455e-05
9.49399e-05
7.34658e-05
7.34591e-05
7.41186e-05
6.51993e-05
6.9903e-05
7.32439e-05
7.41232e-05
6.51865e-05
7.32315e-05
7.41669e-05
6.5208e-05
6.99121e-05
7.32522e-05
7.41712e-05
6.51946e-05
7.32431e-05
7.41073e-05
7.32175e-05
6.51642e-05
6.9894e-05
7.41023e-05
6.51775e-05
7.32296e-05
7.4155e-05
7.32288e-05
6.51723e-05
6.99021e-05
7.41505e-05
6.51861e-05
7.32382e-05
9.49541e-05
7.34784e-05
7.34717e-05
9.49568e-05
7.34648e-05
7.34582e-05
7.11552e-05
7.11535e-05
7.11579e-05
7.11562e-05
7.11797e-05
7.11826e-05
7.41416e-05
6.52106e-05
7.32465e-05
6.99246e-05
7.41363e-05
7.32592e-05
6.52218e-05
7.41876e-05
6.5217e-05
7.32572e-05
6.99329e-05
7.41827e-05
7.32672e-05
6.52296e-05
9.49741e-05
7.34768e-05
7.34701e-05
9.49712e-05
7.34905e-05
7.34836e-05
7.16833e-05
7.97509e-05
7.34258e-05
7.1669e-05
7.97593e-05
7.18444e-05
6.85595e-05
7.16031e-05
7.15739e-05
7.16159e-05
7.18354e-05
7.1583e-05
7.41866e-05
6.5214e-05
7.32543e-05
6.9925e-05
7.32669e-05
7.41828e-05
6.52257e-05
7.41403e-05
6.5211e-05
7.32493e-05
6.99258e-05
6.52233e-05
7.41368e-05
7.3258e-05
9.49723e-05
7.34709e-05
7.3477e-05
7.34846e-05
9.49703e-05
7.34906e-05
7.16823e-05
7.97482e-05
7.34255e-05
7.1668e-05
7.97561e-05
7.18445e-05
6.85575e-05
7.16033e-05
7.15726e-05
7.16153e-05
7.18349e-05
7.15812e-05
7.18479e-05
6.85621e-05
7.16298e-05
7.15862e-05
7.16172e-05
7.1683e-05
7.97646e-05
7.34294e-05
7.97682e-05
7.16681e-05
7.1846e-05
6.85584e-05
7.15728e-05
7.16029e-05
7.1583e-05
7.18328e-05
7.16151e-05
7.16813e-05
7.18493e-05
6.85639e-05
7.16283e-05
7.15951e-05
7.16193e-05
7.15871e-05
7.186e-05
7.16829e-05
7.97478e-05
7.34253e-05
7.16685e-05
7.97557e-05
7.18446e-05
6.85586e-05
7.16045e-05
7.15735e-05
7.18349e-05
7.16141e-05
7.15822e-05
7.16817e-05
7.97678e-05
7.34306e-05
7.976e-05
7.1696e-05
7.41888e-05
6.52154e-05
7.32549e-05
6.99277e-05
7.32668e-05
7.41835e-05
6.52286e-05
7.41409e-05
6.52105e-05
7.32467e-05
6.99247e-05
6.52236e-05
7.41355e-05
7.32587e-05
9.49698e-05
7.34704e-05
7.34765e-05
7.34839e-05
9.49671e-05
7.349e-05
7.11808e-05
7.18503e-05
6.85613e-05
7.1601e-05
7.16284e-05
7.15894e-05
7.16183e-05
7.18596e-05
7.16841e-05
7.97656e-05
7.343e-05
7.97737e-05
7.16698e-05
7.18456e-05
6.85578e-05
7.15759e-05
7.1604e-05
7.15876e-05
7.1836e-05
7.16136e-05
7.1683e-05
7.97858e-05
7.97778e-05
7.16973e-05
7.18483e-05
6.8558e-05
7.15917e-05
7.16266e-05
7.15838e-05
7.16176e-05
7.18577e-05
7.16834e-05
7.97492e-05
7.34269e-05
7.1669e-05
7.9757e-05
7.18437e-05
6.8554e-05
7.15703e-05
7.16031e-05
7.1834e-05
7.15788e-05
7.16125e-05
7.16822e-05
7.97692e-05
7.34321e-05
7.97616e-05
7.16966e-05
7.11807e-05
7.11823e-05
7.11834e-05
7.1185e-05
3.12707e-05
3.12687e-05
3.84938e-05
3.14013e-05
3.13989e-05
2.22635e-05
2.21122e-05
6.58126e-05
5.93017e-05
5.93027e-05
5.32925e-05
5.93046e-05
5.93054e-05
6.58064e-05
3.17833e-05
3.17811e-05
2.28614e-05
2.27136e-05
6.59084e-05
5.94435e-05
5.94443e-05
5.34787e-05
6.59034e-05
5.94415e-05
5.94426e-05
6.5814e-05
5.9307e-05
5.93067e-05
5.32849e-05
5.93061e-05
5.93065e-05
6.58084e-05
6.5882e-05
5.34491e-05
5.94102e-05
5.94122e-05
5.94108e-05
5.9413e-05
6.58866e-05
6.58133e-05
5.93047e-05
5.93064e-05
5.32832e-05
5.93062e-05
5.93042e-05
6.58078e-05
6.58815e-05
5.34477e-05
5.94076e-05
5.94118e-05
5.94082e-05
5.94123e-05
6.58861e-05
6.58151e-05
5.9304e-05
5.93065e-05
5.32973e-05
5.93112e-05
5.9309e-05
6.5807e-05
6.58808e-05
5.34404e-05
5.94129e-05
5.94154e-05
5.94083e-05
5.94114e-05
6.58879e-05
6.58802e-05
5.34469e-05
5.94099e-05
5.941e-05
6.58855e-05
5.94104e-05
5.94106e-05
6.59108e-05
5.94446e-05
5.94446e-05
5.34849e-05
6.59047e-05
5.94471e-05
5.94445e-05
6.5909e-05
5.94426e-05
5.94456e-05
5.3474e-05
5.94424e-05
6.59046e-05
5.94385e-05
6.59109e-05
5.9441e-05
5.94436e-05
5.34907e-05
5.94487e-05
6.59041e-05
5.94462e-05
3.12698e-05
3.12695e-05
3.84929e-05
3.14006e-05
3.13992e-05
2.22637e-05
2.21124e-05
3.12744e-05
3.12741e-05
3.84983e-05
3.14045e-05
3.14046e-05
2.22677e-05
2.21163e-05
3.12752e-05
3.12725e-05
3.84966e-05
3.14043e-05
3.14042e-05
2.2268e-05
2.21162e-05
3.85993e-05
3.16575e-05
3.16551e-05
3.15304e-05
3.15285e-05
2.24146e-05
2.25642e-05
3.8598e-05
3.16569e-05
3.16554e-05
3.15294e-05
3.15292e-05
2.24148e-05
2.25644e-05
3.8604e-05
3.16606e-05
3.16608e-05
3.15341e-05
3.15338e-05
2.24187e-05
2.25684e-05
3.86025e-05
3.16603e-05
3.16607e-05
3.15351e-05
3.15319e-05
2.24185e-05
2.25688e-05
5.61404e-05
6.22259e-05
5.48515e-05
6.05037e-05
6.2207e-05
5.48469e-05
5.61345e-05
5.72156e-05
6.02262e-05
6.47078e-05
6.4085e-05
6.02352e-05
6.40991e-05
5.7212e-05
5.72485e-05
6.41216e-05
6.47139e-05
6.02654e-05
6.0257e-05
6.41076e-05
5.72517e-05
5.60926e-05
6.04953e-05
6.21812e-05
5.48009e-05
6.22001e-05
5.48054e-05
5.60985e-05
5.61448e-05
5.48444e-05
6.22268e-05
6.05064e-05
5.4857e-05
6.22124e-05
5.61354e-05
5.72151e-05
6.0227e-05
6.47081e-05
6.40876e-05
6.02359e-05
6.41013e-05
5.72179e-05
5.72537e-05
6.4124e-05
6.47143e-05
6.02662e-05
6.02578e-05
6.41095e-05
5.72539e-05
5.6094e-05
6.04943e-05
5.481e-05
6.21867e-05
5.47984e-05
6.22013e-05
5.61032e-05
6.58318e-05
5.33429e-05
5.93408e-05
5.93417e-05
5.93403e-05
5.93411e-05
6.58377e-05
3.17823e-05
3.17822e-05
3.19046e-05
2.28616e-05
2.27138e-05
3.17869e-05
3.17866e-05
3.19103e-05
2.28655e-05
2.27177e-05
3.17881e-05
3.17844e-05
3.89077e-05
3.19092e-05
3.1911e-05
2.2866e-05
2.27175e-05
5.62971e-05
6.0611e-05
6.23223e-05
5.50199e-05
6.23048e-05
5.50168e-05
5.62915e-05
5.73579e-05
6.03459e-05
6.41727e-05
6.47792e-05
5.73552e-05
6.03513e-05
6.41852e-05
5.62533e-05
6.06037e-05
6.22819e-05
5.49748e-05
5.62596e-05
6.22991e-05
5.49786e-05
5.63002e-05
6.06107e-05
5.50221e-05
6.23248e-05
5.50201e-05
6.23064e-05
5.62941e-05
5.73602e-05
6.03445e-05
6.41744e-05
6.47795e-05
5.73576e-05
6.03522e-05
6.41876e-05
5.62556e-05
6.06033e-05
5.49791e-05
6.22833e-05
5.6263e-05
5.49797e-05
6.23014e-05
5.73907e-05
6.42075e-05
6.41945e-05
5.73928e-05
6.5926e-05
5.35415e-05
5.94725e-05
5.94735e-05
5.94772e-05
5.94775e-05
6.59307e-05
6.58335e-05
5.33509e-05
5.93433e-05
5.93417e-05
6.58389e-05
5.9343e-05
5.93425e-05
6.58631e-05
5.3385e-05
5.93768e-05
5.93781e-05
6.58581e-05
5.93773e-05
5.93773e-05
5.6143e-05
6.2226e-05
5.48429e-05
6.05066e-05
6.22117e-05
5.48558e-05
5.61329e-05
5.72085e-05
6.02251e-05
6.47064e-05
6.40876e-05
6.40996e-05
6.02337e-05
5.72189e-05
5.72552e-05
6.4122e-05
6.47127e-05
6.02639e-05
6.41102e-05
6.02559e-05
5.72451e-05
5.60914e-05
6.04944e-05
6.21857e-05
5.48088e-05
6.22004e-05
5.47971e-05
5.61011e-05
5.61384e-05
6.22209e-05
5.48408e-05
6.05048e-05
6.22066e-05
5.48538e-05
5.61282e-05
5.72018e-05
6.0221e-05
6.47021e-05
6.40792e-05
6.40917e-05
6.02296e-05
5.72122e-05
5.72484e-05
6.4114e-05
6.47088e-05
6.02597e-05
6.41019e-05
5.72383e-05
6.02518e-05
5.60866e-05
6.04927e-05
6.21806e-05
5.4807e-05
6.21953e-05
5.47952e-05
5.60965e-05
5.61738e-05
6.22372e-05
5.48986e-05
6.05502e-05
5.6184e-05
6.22514e-05
5.48859e-05
5.73267e-05
6.03219e-05
6.47491e-05
6.41653e-05
6.03142e-05
6.41541e-05
5.73159e-05
5.72801e-05
6.41324e-05
6.0285e-05
6.4743e-05
6.02928e-05
5.72912e-05
6.41441e-05
5.6224e-05
6.05616e-05
6.22758e-05
5.49271e-05
6.22621e-05
5.49416e-05
5.62136e-05
5.61691e-05
6.22321e-05
5.48967e-05
6.05485e-05
5.61793e-05
6.22464e-05
5.4884e-05
5.73196e-05
6.03172e-05
6.4745e-05
6.41576e-05
6.41458e-05
6.03105e-05
5.73097e-05
5.72734e-05
6.41239e-05
6.02809e-05
6.47388e-05
5.72843e-05
6.41362e-05
6.02885e-05
5.62193e-05
6.05598e-05
6.22706e-05
5.49251e-05
6.2257e-05
5.49396e-05
5.62089e-05
6.58331e-05
5.33489e-05
5.93387e-05
5.93423e-05
5.93425e-05
5.93388e-05
6.58381e-05
6.58623e-05
5.33829e-05
5.93738e-05
5.93765e-05
5.93742e-05
6.58577e-05
5.93763e-05
5.61392e-05
6.22267e-05
5.48428e-05
6.05049e-05
6.22073e-05
5.48496e-05
5.61329e-05
5.72136e-05
6.02262e-05
6.47085e-05
6.40857e-05
6.41001e-05
6.02352e-05
5.721e-05
5.72467e-05
6.41224e-05
6.47147e-05
6.02654e-05
6.41082e-05
6.02569e-05
5.72499e-05
5.60911e-05
6.04946e-05
6.21816e-05
5.47994e-05
6.2201e-05
5.47993e-05
5.60969e-05
5.61386e-05
5.48402e-05
6.22205e-05
6.05042e-05
5.4853e-05
6.22062e-05
5.61273e-05
5.72035e-05
6.02266e-05
6.47045e-05
6.40797e-05
6.40921e-05
6.0228e-05
5.72137e-05
5.72498e-05
6.41143e-05
6.47111e-05
6.02585e-05
6.41022e-05
5.72398e-05
6.02571e-05
5.60857e-05
6.04921e-05
5.48059e-05
6.21804e-05
5.47948e-05
6.2195e-05
5.60969e-05
5.61735e-05
6.22331e-05
5.48953e-05
6.05491e-05
5.61804e-05
6.2252e-05
5.48855e-05
5.7318e-05
6.0323e-05
6.47511e-05
6.41657e-05
6.03154e-05
6.4152e-05
5.73208e-05
5.7286e-05
6.41304e-05
6.02864e-05
6.47452e-05
6.02941e-05
5.72831e-05
6.41442e-05
5.62202e-05
6.05604e-05
6.22764e-05
5.49277e-05
6.22579e-05
5.49405e-05
5.6213e-05
5.61687e-05
5.48963e-05
6.22317e-05
6.05478e-05
5.61797e-05
5.48834e-05
6.22459e-05
5.7321e-05
6.03169e-05
6.47478e-05
6.41575e-05
6.41461e-05
6.03162e-05
5.73112e-05
5.7275e-05
6.41242e-05
6.02865e-05
6.47412e-05
5.72859e-05
6.41362e-05
6.02879e-05
5.62198e-05
6.05592e-05
5.49262e-05
6.22701e-05
5.49398e-05
6.22566e-05
5.62086e-05
5.61388e-05
5.48511e-05
6.22248e-05
6.05035e-05
5.48465e-05
6.22054e-05
5.61336e-05
5.72119e-05
6.02257e-05
6.47033e-05
6.40794e-05
6.0227e-05
6.40936e-05
5.72084e-05
5.7245e-05
6.4116e-05
6.47099e-05
6.02573e-05
6.0256e-05
6.4102e-05
5.72481e-05
5.60915e-05
6.04953e-05
5.48004e-05
6.21796e-05
5.48052e-05
6.2199e-05
5.60966e-05
5.61752e-05
6.22327e-05
5.48902e-05
6.05511e-05
5.61811e-05
6.2251e-05
5.48943e-05
5.73198e-05
6.03235e-05
6.47502e-05
6.41646e-05
5.73228e-05
6.03156e-05
6.41513e-05
5.72878e-05
6.41299e-05
6.02864e-05
6.47444e-05
5.72849e-05
6.02941e-05
6.41432e-05
5.62208e-05
6.05591e-05
6.22758e-05
5.49372e-05
5.62147e-05
6.22576e-05
5.49335e-05
5.6174e-05
5.48898e-05
6.22312e-05
6.05512e-05
5.61798e-05
5.48941e-05
6.225e-05
5.73181e-05
6.03154e-05
6.47465e-05
6.41582e-05
6.41462e-05
6.03151e-05
5.7315e-05
5.72816e-05
6.41243e-05
6.02856e-05
6.47399e-05
5.72809e-05
6.41376e-05
6.02869e-05
5.62197e-05
6.05588e-05
5.49371e-05
6.22744e-05
5.49331e-05
6.22562e-05
5.62134e-05
6.58324e-05
5.33428e-05
5.93439e-05
5.93465e-05
5.93418e-05
5.93391e-05
6.58399e-05
6.58643e-05
5.33948e-05
5.93735e-05
5.9375e-05
5.93784e-05
6.58568e-05
5.93814e-05
5.61395e-05
5.48419e-05
6.222e-05
6.05036e-05
5.48547e-05
6.22057e-05
5.61293e-05
5.72042e-05
6.02281e-05
6.47059e-05
6.40798e-05
6.02292e-05
6.40927e-05
5.72146e-05
5.72508e-05
6.4115e-05
6.47125e-05
6.02597e-05
6.02585e-05
6.41026e-05
5.72407e-05
5.60879e-05
6.04916e-05
5.4808e-05
6.21797e-05
5.47963e-05
6.21944e-05
5.60977e-05
5.61766e-05
5.48993e-05
6.22374e-05
6.055e-05
5.61853e-05
5.4888e-05
6.22522e-05
5.73229e-05
6.03244e-05
6.47504e-05
6.41671e-05
5.73253e-05
6.03163e-05
6.41532e-05
5.72904e-05
6.41318e-05
6.02871e-05
6.47447e-05
5.72886e-05
6.02949e-05
6.41456e-05
5.62248e-05
6.05596e-05
5.49326e-05
6.22775e-05
5.62167e-05
5.494e-05
6.22602e-05
5.61703e-05
5.48971e-05
6.22312e-05
6.05475e-05
5.61804e-05
5.48858e-05
6.22454e-05
5.73221e-05
6.03179e-05
6.47491e-05
6.41582e-05
6.41467e-05
6.03175e-05
5.73118e-05
5.72758e-05
6.41244e-05
6.02879e-05
6.47425e-05
5.72869e-05
6.4137e-05
6.02891e-05
5.62201e-05
6.05574e-05
5.49297e-05
6.22696e-05
5.49374e-05
6.22561e-05
5.62102e-05
6.5862e-05
5.33845e-05
5.93743e-05
5.93756e-05
6.58563e-05
5.93746e-05
5.93766e-05
5.73488e-05
6.03441e-05
6.4175e-05
6.47779e-05
6.41856e-05
5.73618e-05
6.03491e-05
5.62512e-05
6.06034e-05
6.22867e-05
5.49861e-05
6.22992e-05
5.62627e-05
5.49676e-05
5.735e-05
6.03388e-05
6.41654e-05
6.47736e-05
5.73521e-05
6.41787e-05
6.03457e-05
5.62475e-05
6.06016e-05
6.22811e-05
5.49841e-05
5.62579e-05
6.22951e-05
5.49656e-05
5.73548e-05
6.03441e-05
6.41732e-05
6.47794e-05
6.4186e-05
5.73527e-05
6.0347e-05
5.62514e-05
6.06019e-05
6.22821e-05
5.49828e-05
6.22999e-05
5.62592e-05
5.49703e-05
5.73445e-05
6.03434e-05
6.41667e-05
6.47759e-05
5.7355e-05
6.41779e-05
6.03446e-05
5.62477e-05
6.06006e-05
5.49816e-05
6.22807e-05
5.62584e-05
5.49691e-05
6.22941e-05
5.62967e-05
6.06108e-05
5.50202e-05
6.23182e-05
5.50173e-05
6.23055e-05
5.62897e-05
5.73472e-05
6.03436e-05
6.41675e-05
6.47747e-05
6.03453e-05
5.73573e-05
6.41787e-05
5.62516e-05
6.06037e-05
5.49754e-05
6.2281e-05
5.49789e-05
5.62587e-05
6.22964e-05
5.73933e-05
6.41984e-05
6.47808e-05
6.03701e-05
6.03698e-05
6.4188e-05
5.73785e-05
5.62958e-05
6.06082e-05
5.50196e-05
6.23158e-05
5.50178e-05
6.23035e-05
5.62861e-05
5.73446e-05
6.03451e-05
6.41673e-05
6.47772e-05
6.03453e-05
5.73566e-05
6.41786e-05
5.62492e-05
6.06006e-05
5.49785e-05
6.22802e-05
5.4978e-05
5.62586e-05
6.22934e-05
5.73919e-05
6.41982e-05
6.47835e-05
6.03719e-05
6.0373e-05
6.41879e-05
5.73767e-05
3.6464e-05
4.17628e-05
3.64632e-05
7.13551e-05
6.01879e-05
6.95323e-05
6.68969e-05
6.68932e-05
6.95302e-05
6.01875e-05
7.13564e-05
7.01867e-05
7.13391e-05
7.73912e-05
7.73722e-05
7.02006e-05
6.95197e-05
7.00869e-05
5.93334e-05
6.68825e-05
7.11442e-05
5.92828e-05
7.11296e-05
7.01095e-05
7.00358e-05
5.93251e-05
6.68788e-05
7.11366e-05
7.11176e-05
5.92766e-05
7.00572e-05
9.23424e-05
7.20308e-05
7.20362e-05
7.20168e-05
7.20223e-05
9.2351e-05
6.95175e-05
7.01841e-05
7.13409e-05
7.74003e-05
7.73809e-05
7.01989e-05
5.95218e-05
4.17734e-05
5.05087e-05
5.05087e-05
5.04699e-05
5.04702e-05
5.95534e-05
4.80518e-05
5.25237e-05
6.01436e-05
5.85165e-05
5.84579e-05
5.24844e-05
4.809e-05
4.80502e-05
5.25244e-05
6.01447e-05
5.85184e-05
5.24826e-05
5.84618e-05
4.80905e-05
2.10416e-05
3.66937e-05
3.66987e-05
4.19437e-05
2.18e-05
3.75992e-05
3.76045e-05
4.26618e-05
2.25767e-05
3.84791e-05
3.84845e-05
4.33702e-05
2.33679e-05
3.93319e-05
3.93371e-05
4.40396e-05
2.41697e-05
4.01568e-05
4.0162e-05
4.4683e-05
2.49781e-05
4.09534e-05
4.09585e-05
4.53131e-05
2.57895e-05
4.17214e-05
4.17261e-05
4.59138e-05
2.66003e-05
4.24604e-05
4.24648e-05
4.64989e-05
2.7407e-05
4.31705e-05
4.31745e-05
4.70612e-05
2.82066e-05
4.38518e-05
4.38555e-05
4.75876e-05
2.89962e-05
4.45046e-05
4.4508e-05
4.81013e-05
2.97732e-05
4.51292e-05
4.51324e-05
4.85872e-05
3.05353e-05
4.5726e-05
4.57291e-05
4.90531e-05
3.12801e-05
4.62951e-05
4.62981e-05
4.94917e-05
3.20059e-05
4.68369e-05
4.684e-05
4.99178e-05
3.27111e-05
4.73518e-05
4.73551e-05
5.03232e-05
3.33941e-05
4.78402e-05
4.78436e-05
5.0704e-05
3.40535e-05
4.83026e-05
4.8306e-05
5.10716e-05
3.46885e-05
4.87392e-05
4.87426e-05
5.14158e-05
3.5298e-05
4.91505e-05
4.91539e-05
5.174e-05
3.58812e-05
4.95369e-05
4.95403e-05
5.20442e-05
3.64376e-05
4.98987e-05
4.99022e-05
5.23296e-05
3.69666e-05
5.02365e-05
5.024e-05
5.25953e-05
3.7468e-05
5.05505e-05
5.05541e-05