/*--------------------------------*- C++ -*----------------------------------*\
| =========                 |                                                 |
| \\      /  F ield         | OpenFOAM: The Open Source CFD Toolbox           |
|  \\    /   O peration     | Version:  2312                                  |
|   \\  /    A nd           | Website:  www.openfoam.com                      |
|    \\/     M anipulation  |                                                 |
\*---------------------------------------------------------------------------*/
FoamFile
{
    version     2.0;
    format      ascii;
    arch        "LSB;label=32;scalar=64";
    class       volVectorField;
    location    "650";
    object      U;
}
// * * * * * * * * * * * * * * * * * * * * * * * * * * * * * * * * * * * * * //

dimensions      [0 1 -1 0 0 0 0];

internalField   nonuniform List<vector> 
43496
(
(-1.6604e-05 -2.96529e-07 0.0914271)
(-5.85888e-06 3.34595e-06 0.0716035)
(-6.12319e-06 1.13142e-05 0.107488)
(-7.78899e-06 2.04102e-05 0.0930676)
(-2.72971e-05 -6.95875e-07 0.0985809)
(-1.44031e-05 -2.61103e-06 0.109908)
(-1.66012e-05 2.94008e-07 0.091427)
(-1.20328e-05 1.21172e-06 0.0822861)
(-2.72938e-05 6.99207e-07 0.0985807)
(-1.12804e-05 6.1026e-06 0.107486)
(-1.43955e-05 2.59411e-06 0.109907)
(-2.04023e-05 7.7718e-06 0.0930663)
(-4.16209e-05 4.16139e-05 0.104317)
(-9.87943e-06 6.91296e-06 0.087605)
(-6.94177e-06 9.86626e-06 0.0876077)
(-3.36291e-06 5.86868e-06 0.0716039)
(-1.22056e-06 1.20419e-05 0.0822865)
(4.27566e-06 -7.22911e-07 0.0768853)
(5.01946e-06 -2.67161e-07 0.0913834)
(-1.59986e-05 -1.14892e-06 0.0899498)
(-7.43976e-06 1.32363e-07 0.0787027)
(5.53704e-06 -5.65061e-07 0.0899001)
(3.87025e-06 -1.98337e-07 0.0786622)
(-7.44245e-06 5.22512e-07 0.0769321)
(4.92538e-06 -9.06665e-07 0.0684137)
(-1.22971e-05 -1.39777e-06 0.0858855)
(5.87515e-06 -7.74644e-07 0.0858294)
(-6.0781e-06 1.56526e-07 0.0684745)
(4.32744e-06 -2.58628e-06 0.0715505)
(4.24703e-06 6.95972e-07 0.0768848)
(5.01758e-06 2.32377e-07 0.0913834)
(-7.43949e-06 -1.31503e-07 0.0787026)
(-1.59874e-05 1.14821e-06 0.0899493)
(3.86845e-06 1.72446e-07 0.0786621)
(5.51676e-06 5.30109e-07 0.0899002)
(-7.42711e-06 -5.20014e-07 0.0769315)
(4.91035e-06 8.89279e-07 0.0684157)
(-1.22771e-05 1.39313e-06 0.0858856)
(7.16862e-06 -6.41711e-07 0.0822354)
(5.85853e-06 7.55194e-07 0.0858303)
(-6.06387e-06 -1.48695e-07 0.0684762)
(3.12006e-06 -3.13933e-06 0.0836176)
(-3.60477e-06 5.10729e-06 0.068375)
(-5.15383e-06 3.56786e-06 0.0683807)
(2.6349e-06 -4.07658e-06 0.0683195)
(4.05532e-06 -2.65551e-06 0.0683249)
(-7.25525e-06 7.20658e-06 0.0836638)
(7.81664e-06 -3.8194e-06 0.0916729)
(-8.08198e-06 4.00575e-06 0.0816083)
(3.57546e-06 -3.48822e-06 0.0875568)
(-2.3998e-05 1.41964e-05 0.0963245)
(3.86034e-06 -3.02469e-06 0.0815578)
(1.10422e-05 -5.55087e-06 0.0962765)
(-1.6783e-05 1.02505e-05 0.09172)
(3.79034e-06 -7.83083e-06 0.0916797)
(-4.04489e-06 8.0391e-06 0.0816145)
(3.44109e-06 -3.59835e-06 0.0875584)
(-1.42423e-05 2.39719e-05 0.0963281)
(5.52011e-06 -1.10248e-05 0.0962794)
(2.98883e-06 -3.87446e-06 0.0815631)
(-1.03042e-05 1.67577e-05 0.0917271)
(2.54454e-06 -4.35535e-06 0.0715503)
(6.02892e-07 -7.18163e-06 0.0822357)
(-1.16335e-05 -3.48237e-06 0.115012)
(-1.00305e-05 1.00518e-05 0.112469)
(-1.16293e-05 3.4955e-06 0.11501)
(3.09128e-06 -8.78691e-06 0.0930117)
(-1.16743e-05 4.96019e-05 0.0995931)
(3.79252e-06 -3.18455e-05 0.0995327)
(2.74175e-05 -1.20895e-06 0.102871)
(8.06033e-06 -4.41661e-07 0.0985246)
(-2.72059e-05 -2.54098e-06 0.0976283)
(-5.22822e-05 -1.02168e-06 0.10362)
(8.99313e-06 -8.78729e-07 0.0975629)
(2.59021e-05 -8.89019e-07 0.103526)
(-5.29878e-05 -3.58735e-06 0.102988)
(3.12656e-05 3.68835e-07 0.101328)
(-2.46846e-05 -5.0809e-06 0.0956753)
(1.0383e-05 3.8357e-08 0.0956079)
(-5.24074e-05 -7.71747e-06 0.101433)
(2.74074e-05 1.1658e-06 0.102871)
(8.05968e-06 3.9585e-07 0.0985246)
(-5.2279e-05 1.02938e-06 0.10362)
(-2.72001e-05 2.54556e-06 0.0976278)
(2.59083e-05 8.39897e-07 0.103526)
(8.97436e-06 8.35501e-07 0.0975631)
(-5.30031e-05 3.59436e-06 0.102987)
(3.12856e-05 -4.07747e-07 0.101328)
(-2.46639e-05 5.06747e-06 0.0956748)
(8.77335e-06 -3.13348e-06 0.0930107)
(-4.9613e-05 1.16537e-05 0.099591)
(1.03725e-05 -5.57964e-08 0.0956082)
(-5.2402e-05 7.70195e-06 0.101431)
(3.18636e-05 -3.83805e-06 0.0995308)
(1.01318e-05 -1.01773e-05 0.0975423)
(2.3812e-05 -2.38463e-05 0.104202)
(-2.63444e-05 4.13562e-05 0.101507)
(-4.13938e-05 2.6333e-05 0.10151)
(2.74295e-05 -1.10407e-05 0.101443)
(1.10356e-05 -2.74713e-05 0.10144)
(-2.21934e-05 2.21696e-05 0.0975978)
(-9.59023e-06 -9.59007e-06 0.112516)
(1.11403e-05 -5.98579e-06 0.107501)
(-5.97513e-06 1.1134e-05 0.1075)
(-2.39777e-05 -2.3972e-05 0.104199)
(-9.95733e-06 -9.96064e-06 0.112479)
(1.12839e-05 -6.11281e-06 0.107492)
(-6.10692e-06 1.12889e-05 0.107491)
(-2.38488e-05 -2.38442e-05 0.104201)
(2.39807e-05 2.39803e-05 0.104199)
(-4.16734e-05 -4.16788e-05 0.104316)
(-5.94704e-06 -1.11042e-05 0.107499)
(5.95513e-06 -1.11126e-05 0.107499)
(-6.04416e-06 -1.12218e-05 0.107492)
(6.04788e-06 -1.12386e-05 0.107491)
(-2.39948e-05 2.39561e-05 0.104199)
(4.16781e-05 -4.16854e-05 0.104317)
(-1.11277e-05 -5.97505e-06 0.1075)
(-1.10987e-05 5.94895e-06 0.107497)
(-1.12448e-05 -6.06994e-06 0.107493)
(-1.12162e-05 6.04474e-06 0.10749)
(1.1122e-05 5.95442e-06 0.107498)
(1.12587e-05 -6.08256e-06 0.107494)
(1.12214e-05 6.06065e-06 0.107492)
(2.39685e-05 -2.40007e-05 0.104198)
(-4.16726e-05 4.16703e-05 0.104316)
(5.98063e-06 1.11345e-05 0.1075)
(-6.06843e-06 1.12504e-05 0.107493)
(6.07867e-06 1.12528e-05 0.107493)
(4.16685e-05 4.16712e-05 0.104316)
(2.38455e-05 2.38445e-05 0.104202)
(-6.0725e-06 -1.12623e-05 0.10749)
(6.08161e-06 -1.12536e-05 0.10749)
(-2.38801e-05 2.38421e-05 0.104202)
(-1.12832e-05 -6.10458e-06 0.107491)
(-1.12533e-05 6.0774e-06 0.107488)
(1.12853e-05 6.08497e-06 0.107488)
(2.38339e-05 -2.38692e-05 0.104201)
(6.10481e-06 1.12873e-05 0.10749)
(-3.10825e-07 -1.66444e-05 0.0913958)
(6.58402e-07 7.16088e-06 0.0821924)
(-1.17646e-06 -1.21129e-05 0.0822522)
(-2.69522e-07 5.03662e-06 0.0913443)
(-2.60858e-06 4.26604e-06 0.0715101)
(3.23188e-06 -5.89595e-06 0.0715754)
(-1.66471e-05 -2.98618e-07 0.091396)
(7.15238e-06 6.67362e-07 0.0821933)
(-1.21074e-05 -1.18785e-06 0.0822529)
(5.03732e-06 -2.72731e-07 0.0913444)
(9.60309e-06 -9.58839e-06 0.112516)
(-9.58942e-06 9.60597e-06 0.112515)
(9.61109e-06 9.60486e-06 0.112515)
(-9.86841e-06 -9.86796e-06 0.112488)
(9.88656e-06 -9.87429e-06 0.112488)
(-9.86233e-06 9.88237e-06 0.112487)
(9.89532e-06 9.89134e-06 0.112488)
(2.72641e-05 -6.84634e-07 0.0985604)
(-8.77662e-06 3.14766e-06 0.0929754)
(1.3953e-05 -2.51014e-06 0.109933)
(1.11795e-05 -6.01564e-06 0.107498)
(2.04591e-05 -7.8057e-06 0.0930397)
(1.40597e-05 -2.53111e-06 0.109928)
(-8.12462e-06 -4.46952e-07 0.0984988)
(4.29989e-06 -2.65957e-06 0.0715123)
(-5.91575e-06 3.29552e-06 0.0715731)
(-7.24917e-07 2.72598e-05 0.0985599)
(-2.50124e-06 1.39536e-05 0.109931)
(3.13239e-06 -8.77822e-06 0.0929754)
(-6.00519e-06 1.11751e-05 0.107497)
(-2.51906e-06 1.40503e-05 0.109926)
(-7.79106e-06 2.04599e-05 0.0930388)
(-4.08981e-07 -8.14369e-06 0.0984982)
(-3.54449e-06 -3.52306e-06 0.0875182)
(-3.5279e-06 -3.53731e-06 0.0875172)
(4.17296e-05 4.17269e-05 0.104315)
(9.96001e-06 6.91364e-06 0.087576)
(6.92971e-06 9.95562e-06 0.0875744)
(6.18314e-07 7.18151e-06 0.0822262)
(-2.67856e-07 5.01422e-06 0.0913755)
(-2.54768e-06 4.28849e-06 0.0715407)
(7.17803e-06 6.28701e-07 0.082227)
(5.01932e-06 -2.68329e-07 0.0913756)
(9.97761e-06 -9.96494e-06 0.11248)
(-9.9574e-06 9.97134e-06 0.112478)
(9.95758e-06 9.97906e-06 0.112478)
(2.72589e-05 -6.79383e-07 0.0985813)
(-8.77885e-06 3.10578e-06 0.0930044)
(1.43323e-05 -2.60774e-06 0.109913)
(-8.02819e-06 -4.48837e-07 0.0985198)
(1.44216e-05 -2.6199e-06 0.109908)
(4.3211e-06 -2.60051e-06 0.0715429)
(-7.24863e-07 2.72534e-05 0.0985808)
(-2.58494e-06 1.43352e-05 0.109912)
(3.09905e-06 -8.78159e-06 0.0930044)
(-4.16353e-07 -8.04584e-06 0.0985193)
(-2.60508e-06 1.44097e-05 0.109907)
(-3.5847e-06 -3.48668e-06 0.0875503)
(-3.48442e-06 -3.57373e-06 0.0875491)
(4.16517e-05 4.16065e-05 0.104318)
(9.88381e-06 6.92958e-06 0.0876078)
(6.95023e-06 9.88594e-06 0.0876062)
(2.62472e-06 4.33885e-06 0.0715114)
(-3.28589e-06 -5.94418e-06 0.0715733)
(4.31984e-06 2.63413e-06 0.0715115)
(-5.92234e-06 -3.31034e-06 0.071573)
(3.50162e-06 3.53869e-06 0.0875176)
(3.56202e-06 3.5067e-06 0.0875166)
(-4.17319e-05 -4.1738e-05 0.104315)
(-6.89008e-06 -9.94438e-06 0.0875763)
(-9.96571e-06 -6.9304e-06 0.0875742)
(-3.31145e-06 -5.917e-06 0.0715886)
(2.5951e-06 4.34952e-06 0.0715268)
(-5.89467e-06 -3.33633e-06 0.0715882)
(4.33036e-06 2.60329e-06 0.0715269)
(2.39085e-05 2.39064e-05 0.1042)
(-6.90006e-06 -9.90626e-06 0.0875922)
(-9.92899e-06 -6.94317e-06 0.0875901)
(3.48119e-06 3.55553e-06 0.0875336)
(3.57994e-06 3.4858e-06 0.0875326)
(2.78883e-07 -1.66477e-05 0.0913959)
(-6.46659e-07 7.12622e-06 0.0821921)
(1.12314e-06 -1.21065e-05 0.0822535)
(2.39053e-07 5.03526e-06 0.0913445)
(-7.07347e-07 -2.72928e-05 0.0985597)
(3.15144e-06 8.78527e-06 0.0929741)
(-2.49708e-06 -1.39339e-05 0.109932)
(-5.98098e-06 -1.11445e-05 0.107496)
(-7.7719e-06 -2.04514e-05 0.0930383)
(-2.51774e-06 -1.40342e-05 0.109927)
(-4.35406e-07 8.16711e-06 0.0984981)
(6.7917e-07 -2.73004e-05 0.0985599)
(-3.14499e-06 8.77479e-06 0.092974)
(2.50185e-06 -1.39366e-05 0.109933)
(5.98055e-06 -1.11569e-05 0.107496)
(7.73161e-06 -2.0456e-05 0.093039)
(2.52301e-06 -1.40361e-05 0.109927)
(4.13269e-07 8.16955e-06 0.0984984)
(-2.67326e-07 5.02539e-06 0.0913598)
(-1.19214e-06 -1.20809e-05 0.082269)
(6.39973e-07 7.17327e-06 0.0822093)
(-3.10325e-07 -1.66265e-05 0.0914113)
(2.3751e-07 5.0225e-06 0.09136)
(1.13965e-06 -1.20744e-05 0.0822703)
(-6.26601e-07 7.13818e-06 0.082209)
(2.78164e-07 -1.66306e-05 0.0914115)
(-4.34681e-07 8.11503e-06 0.0985086)
(-6.01385e-06 -1.11887e-05 0.107494)
(-7.77353e-06 -2.04292e-05 0.0930527)
(-2.55848e-06 -1.42242e-05 0.109917)
(3.13477e-06 8.78517e-06 0.0929886)
(-2.53982e-06 -1.41346e-05 0.109922)
(-7.0974e-07 -2.72968e-05 0.0985701)
(4.11562e-07 8.11757e-06 0.0985088)
(6.0208e-06 -1.11927e-05 0.107494)
(7.73506e-06 -2.04324e-05 0.0930534)
(2.56193e-06 -1.42264e-05 0.109917)
(-3.12707e-06 8.77298e-06 0.0929884)
(2.54732e-06 -1.4137e-05 0.109923)
(6.79512e-07 -2.73038e-05 0.0985703)
(-3.53494e-06 3.51656e-06 0.0875162)
(-3.5615e-06 3.50205e-06 0.0875185)
(4.17346e-05 -4.17393e-05 0.104316)
(6.88555e-06 -9.94459e-06 0.0875755)
(9.95513e-06 -6.94646e-06 0.0875766)
(-4.32147e-06 2.63322e-06 0.071512)
(5.91344e-06 -3.33e-06 0.071574)
(3.25844e-06 -5.86796e-06 0.0715906)
(-2.5773e-06 4.27673e-06 0.0715254)
(-2.39247e-05 2.38858e-05 0.1042)
(6.89665e-06 -9.90732e-06 0.0875914)
(9.91587e-06 -6.95578e-06 0.0875925)
(-3.51298e-06 3.53377e-06 0.0875322)
(-3.57635e-06 3.47771e-06 0.0875345)
(5.88393e-06 -3.35467e-06 0.0715893)
(-4.33056e-06 2.59973e-06 0.0715273)
(-2.72983e-05 -6.9563e-07 0.0985598)
(8.79079e-06 3.15166e-06 0.0929748)
(-1.3939e-05 -2.50746e-06 0.109932)
(-1.1169e-05 -6.00535e-06 0.107498)
(-2.04763e-05 -7.80094e-06 0.0930384)
(-1.40393e-05 -2.52633e-06 0.109927)
(8.17426e-06 -4.45827e-07 0.0984982)
(-1.66435e-05 2.98585e-07 0.0913959)
(7.14035e-06 -6.83716e-07 0.0821932)
(-1.21015e-05 1.17445e-06 0.0822525)
(5.03494e-06 2.3044e-07 0.0913444)
(-2.72951e-05 6.97311e-07 0.0985597)
(-1.39336e-05 2.49297e-06 0.109931)
(8.76271e-06 -3.17148e-06 0.0929746)
(-1.11401e-05 5.98104e-06 0.107495)
(-1.40327e-05 2.5139e-06 0.109926)
(-2.0451e-05 7.77052e-06 0.0930375)
(8.17359e-06 3.9601e-07 0.0984981)
(5.0283e-06 -2.69809e-07 0.09136)
(-1.20798e-05 -1.20486e-06 0.0822697)
(7.16044e-06 6.45883e-07 0.0822102)
(-1.66274e-05 -2.9804e-07 0.0914115)
(8.12102e-06 -4.43566e-07 0.0985087)
(-1.12118e-05 -6.04489e-06 0.107496)
(-2.04539e-05 -7.80399e-06 0.0930528)
(-1.42287e-05 -2.56913e-06 0.109917)
(8.78929e-06 3.13296e-06 0.0929893)
(-1.41415e-05 -2.55198e-06 0.109922)
(-2.73013e-05 -6.96806e-07 0.0985703)
(5.02551e-06 2.30249e-07 0.0913599)
(-1.20684e-05 1.19189e-06 0.0822694)
(7.14903e-06 -6.66096e-07 0.0822101)
(-1.66259e-05 2.97108e-07 0.0914114)
(8.11965e-06 3.95213e-07 0.0985087)
(-1.11849e-05 6.01712e-06 0.107493)
(-1.4222e-05 2.55686e-06 0.109917)
(-2.04299e-05 7.77449e-06 0.0930519)
(-1.41367e-05 2.53669e-06 0.109921)
(8.7636e-06 -3.15589e-06 0.092989)
(-2.72986e-05 6.98415e-07 0.0985701)
(1.66056e-05 -2.51979e-07 0.0913969)
(-7.13567e-06 6.9761e-07 0.0821931)
(1.20895e-05 -1.22977e-06 0.0822536)
(-4.9934e-06 -3.10933e-07 0.091344)
(2.72775e-05 7.08313e-07 0.0985601)
(1.39524e-05 2.49605e-06 0.109932)
(-8.75639e-06 -3.16884e-06 0.092975)
(1.11561e-05 5.99762e-06 0.107496)
(1.40516e-05 2.52462e-06 0.109927)
(2.04469e-05 7.77735e-06 0.0930389)
(-8.14256e-06 4.03422e-07 0.0984987)
(1.66347e-05 3.28246e-07 0.0913962)
(-7.13992e-06 -6.81223e-07 0.0821934)
(1.21077e-05 1.17398e-06 0.0822531)
(-5.02307e-06 2.1478e-07 0.0913445)
(-8.07303e-06 -4.45511e-07 0.0985092)
(1.1221e-05 -6.05286e-06 0.107497)
(2.04321e-05 -7.80879e-06 0.093054)
(1.42494e-05 -2.5733e-06 0.109918)
(-8.77311e-06 3.12575e-06 0.0929899)
(1.41539e-05 -2.5568e-06 0.109923)
(2.72649e-05 -6.85657e-07 0.0985708)
(-4.98143e-06 -3.11332e-07 0.0913596)
(1.20586e-05 -1.2468e-06 0.0822704)
(-7.14643e-06 6.75786e-07 0.08221)
(1.65857e-05 -2.52261e-07 0.0914124)
(-8.09297e-06 4.03434e-07 0.0985091)
(1.1213e-05 6.02375e-06 0.107493)
(1.42401e-05 2.5722e-06 0.109917)
(2.04314e-05 7.77631e-06 0.0930532)
(1.41555e-05 2.53342e-06 0.109922)
(-8.75665e-06 -3.1481e-06 0.0929895)
(2.72811e-05 7.10062e-07 0.0985706)
(-5.01222e-06 2.12493e-07 0.0913601)
(1.20785e-05 1.19016e-06 0.0822699)
(-7.15031e-06 -6.58552e-07 0.0822103)
(1.66143e-05 3.25439e-07 0.0914118)
(3.52644e-06 -3.53637e-06 0.0875169)
(3.48547e-06 -3.53788e-06 0.0875184)
(-4.17305e-05 4.17294e-05 0.104315)
(-9.95477e-06 6.89736e-06 0.0875732)
(-6.92279e-06 9.93291e-06 0.087576)
(2.62081e-06 -4.32593e-06 0.0715121)
(-3.31393e-06 5.91858e-06 0.0715735)
(-5.88789e-06 3.32093e-06 0.0715884)
(4.31062e-06 -2.62909e-06 0.0715277)
(2.38929e-05 -2.39267e-05 0.1042)
(-9.91921e-06 6.90746e-06 0.0875891)
(-6.93555e-06 9.90002e-06 0.0875918)
(3.54574e-06 -3.51551e-06 0.0875329)
(3.46584e-06 -3.55952e-06 0.0875344)
(-3.33975e-06 5.88829e-06 0.0715887)
(2.58936e-06 -4.33498e-06 0.0715275)
(6.8314e-07 2.72508e-05 0.0985602)
(2.50651e-06 1.39524e-05 0.109932)
(-3.17074e-06 -8.76925e-06 0.0929753)
(6.01732e-06 1.1182e-05 0.107497)
(2.53425e-06 1.4052e-05 0.109926)
(7.79377e-06 2.04717e-05 0.0930388)
(4.23738e-07 -8.1304e-06 0.0984984)
(-3.53935e-07 1.65998e-05 0.0913965)
(6.5674e-07 -7.14728e-06 0.0821935)
(-1.1873e-06 1.21024e-05 0.0822529)
(-2.16566e-07 -5.00636e-06 0.0913437)
(2.77258e-07 1.65796e-05 0.0913971)
(-6.95025e-07 -7.13646e-06 0.0821938)
(1.1912e-06 1.21098e-05 0.0822535)
(2.55251e-07 -4.98308e-06 0.0913434)
(-4.1374e-07 -8.08852e-06 0.0985087)
(-6.04661e-06 1.12194e-05 0.107495)
(-2.56e-06 1.42387e-05 0.109917)
(-7.79039e-06 2.04351e-05 0.0930532)
(-2.54415e-06 1.41545e-05 0.109921)
(3.118e-06 -8.77628e-06 0.0929898)
(-7.30476e-07 2.72612e-05 0.0985703)
(4.22649e-07 -8.07724e-06 0.0985089)
(6.04963e-06 1.12209e-05 0.107495)
(2.57922e-06 1.42421e-05 0.109916)
(7.7963e-06 2.04482e-05 0.0930533)
(2.54828e-06 1.4151e-05 0.109922)
(-3.15179e-06 -8.7682e-06 0.0929897)
(6.79536e-07 2.72521e-05 0.0985706)
(-2.16749e-07 -4.99262e-06 0.0913593)
(-1.20384e-06 1.20724e-05 0.0822697)
(6.35228e-07 -7.15994e-06 0.0822104)
(-3.54981e-07 1.65799e-05 0.091412)
(2.5377e-07 -4.96992e-06 0.0913589)
(1.20897e-06 1.20773e-05 0.0822704)
(-6.72669e-07 -7.14574e-06 0.0822108)
(2.75403e-07 1.65602e-05 0.0914126)
(-4.31616e-06 -2.64188e-06 0.0715124)
(5.92743e-06 3.29708e-06 0.0715739)
(-2.65719e-06 -4.30787e-06 0.0715125)
(3.31599e-06 5.91899e-06 0.0715738)
(-2.39061e-05 -2.3899e-05 0.1042)
(9.9288e-06 6.92426e-06 0.0875919)
(6.942e-06 9.92023e-06 0.0875903)
(-3.56229e-06 -3.50167e-06 0.0875343)
(-3.50526e-06 -3.55745e-06 0.0875332)
(5.90296e-06 3.32069e-06 0.0715892)
(-4.32721e-06 -2.61094e-06 0.0715278)
(3.34327e-06 5.89145e-06 0.0715891)
(-2.62516e-06 -4.31931e-06 0.0715279)
(2.56497e-06 4.36136e-06 0.0715421)
(4.34273e-06 2.57401e-06 0.0715422)
(3.46321e-06 3.57744e-06 0.0875496)
(3.59948e-06 3.46609e-06 0.0875486)
(-6.05124e-07 7.1461e-06 0.0822259)
(2.38208e-07 5.01491e-06 0.0913757)
(3.1148e-06 8.79491e-06 0.0930031)
(-2.57718e-06 -1.43162e-05 0.109913)
(-4.3343e-07 8.07145e-06 0.0985192)
(-3.10643e-06 8.77751e-06 0.0930029)
(2.59508e-06 -1.4318e-05 0.109913)
(4.11661e-07 8.07355e-06 0.0985194)
(-3.49362e-06 3.55584e-06 0.0875482)
(-3.6007e-06 3.4564e-06 0.0875505)
(-4.34403e-06 2.56921e-06 0.0715425)
(8.79437e-06 3.11439e-06 0.0930038)
(-1.43231e-05 -2.5923e-06 0.109913)
(8.07748e-06 -4.42262e-07 0.0985193)
(7.16153e-06 -6.49455e-07 0.082227)
(5.01648e-06 2.31602e-07 0.0913755)
(-1.43184e-05 2.5772e-06 0.109912)
(8.76929e-06 -3.13984e-06 0.0930035)
(8.07689e-06 3.96242e-07 0.0985193)
(1.65593e-05 -2.5125e-07 0.0914279)
(-7.15684e-06 6.53295e-07 0.0822268)
(-4.96999e-06 -3.13975e-07 0.0913752)
(2.72725e-05 7.06712e-07 0.0985812)
(1.43372e-05 2.56095e-06 0.109912)
(-8.76206e-06 -3.13186e-06 0.093004)
(1.12628e-05 6.10894e-06 0.107488)
(-8.04777e-06 4.025e-07 0.0985197)
(1.44136e-05 2.61527e-06 0.109907)
(2.04134e-05 7.77598e-06 0.0930678)
(1.65851e-05 3.21105e-07 0.0914273)
(-7.17188e-06 -6.38294e-07 0.0822272)
(-4.99995e-06 2.10693e-07 0.0913757)
(1.20448e-05 1.2061e-06 0.0822867)
(3.56512e-06 -3.49699e-06 0.0875488)
(3.44939e-06 -3.58787e-06 0.0875505)
(2.55848e-06 -4.34734e-06 0.0715427)
(6.79604e-07 2.72469e-05 0.0985812)
(2.58897e-06 1.43262e-05 0.109912)
(-3.13062e-06 -8.77414e-06 0.0930042)
(6.12083e-06 1.13039e-05 0.107489)
(4.20666e-07 -8.03156e-06 0.0985195)
(2.61949e-06 1.44144e-05 0.109907)
(7.79473e-06 2.04243e-05 0.0930677)
(-3.53047e-07 1.65568e-05 0.0914275)
(6.12793e-07 -7.17174e-06 0.0822273)
(-2.18391e-07 -4.98539e-06 0.0913749)
(2.73412e-07 1.65362e-05 0.0914282)
(-6.50312e-07 -7.15953e-06 0.0822276)
(2.51769e-07 -4.96019e-06 0.0913746)
(1.22366e-06 1.20453e-05 0.0822871)
(-4.34218e-06 -2.58198e-06 0.071543)
(5.87369e-06 3.34481e-06 0.0716044)
(-2.59502e-06 -4.33004e-06 0.0715431)
(3.36591e-06 5.86247e-06 0.0716042)
(-6.97518e-07 4.27385e-06 0.0768513)
(1.19375e-07 -7.46905e-06 0.0786686)
(-1.14113e-06 -1.60373e-05 0.0899172)
(-2.68427e-07 5.02914e-06 0.091352)
(-2.00966e-07 3.86573e-06 0.078628)
(-5.49241e-07 5.54387e-06 0.0898674)
(5.40123e-07 -7.46699e-06 0.0768983)
(2.14876e-07 -6.12189e-06 0.0684362)
(-1.16779e-06 -1.21275e-05 0.0822438)
(-7.3891e-07 5.84685e-06 0.0857865)
(-1.36158e-06 -1.23765e-05 0.0858428)
(-8.46237e-07 4.92486e-06 0.0683751)
(-8.61585e-07 4.92497e-06 0.0683827)
(-1.36817e-06 -1.23605e-05 0.0858513)
(6.4895e-07 7.16568e-06 0.0822009)
(-7.48051e-07 5.8533e-06 0.085795)
(2.02279e-07 -6.11339e-06 0.0684438)
(5.48101e-07 -7.47247e-06 0.0768899)
(-3.1257e-07 -1.66574e-05 0.0913881)
(-2.00911e-07 3.86694e-06 0.0786195)
(-5.43528e-07 5.55112e-06 0.0898593)
(1.1991e-07 -7.45724e-06 0.0786601)
(-1.1402e-06 -1.60478e-05 0.0899091)
(-6.89697e-07 4.27672e-06 0.0768429)
(3.21768e-06 -5.90865e-06 0.0715677)
(-2.59214e-06 4.27103e-06 0.0715178)
(4.27741e-06 -6.92827e-07 0.0768518)
(-1.60406e-05 -1.13542e-06 0.0899175)
(-7.46801e-06 1.3208e-07 0.0786688)
(5.03046e-06 -2.71633e-07 0.0913522)
(5.55151e-06 -5.46352e-07 0.0898677)
(3.87348e-06 -2.01507e-07 0.0786282)
(-7.47111e-06 5.47698e-07 0.0768988)
(-6.12322e-06 2.17937e-07 0.0684369)
(-1.21217e-05 -1.1784e-06 0.0822445)
(5.84071e-06 -7.28719e-07 0.085787)
(-1.23809e-05 -1.36223e-06 0.0858433)
(4.92335e-06 -8.31308e-07 0.0683759)
(4.92363e-06 -8.46874e-07 0.0683835)
(-1.23644e-05 -1.36908e-06 0.0858518)
(7.15685e-06 6.56937e-07 0.0822017)
(5.84729e-06 -7.37935e-07 0.0857955)
(-6.11448e-06 2.05523e-07 0.0684445)
(-7.47787e-06 5.54643e-07 0.0768904)
(-1.66602e-05 -3.00299e-07 0.0913883)
(5.55877e-06 -5.40882e-07 0.0898596)
(3.87709e-06 -2.02176e-07 0.0786197)
(-1.60507e-05 -1.13326e-06 0.0899095)
(-7.47127e-06 1.31912e-07 0.0786603)
(4.27805e-06 -6.84737e-07 0.0768434)
(-5.9292e-06 3.28133e-06 0.0715655)
(4.30507e-06 -2.64408e-06 0.07152)
(-3.1133e-06 -3.12994e-06 0.0835876)
(3.6126e-06 5.15049e-06 0.0683541)
(5.15209e-06 3.61396e-06 0.0683478)
(-2.6291e-06 -4.09362e-06 0.0682983)
(-4.07924e-06 -2.64103e-06 0.0682922)
(7.27743e-06 7.27084e-06 0.0836336)
(1.68917e-05 1.0319e-05 0.0916923)
(-1.10149e-05 -5.56597e-06 0.0962497)
(9.98159e-06 6.91058e-06 0.0875681)
(-3.81599e-06 -3.0504e-06 0.0815235)
(2.41158e-05 1.4219e-05 0.096299)
(8.13575e-06 4.00541e-06 0.0815755)
(-7.77307e-06 -3.80284e-06 0.0916444)
(1.03479e-05 1.68966e-05 0.0916855)
(-5.57531e-06 -1.09931e-05 0.0962472)
(6.92358e-06 9.97589e-06 0.0875665)
(-3.05921e-06 -3.83387e-06 0.081519)
(1.42422e-05 2.41092e-05 0.0962964)
(4.02871e-06 8.15214e-06 0.08157)
(-3.80989e-06 -7.78717e-06 0.0916381)
(-7.78106e-06 -3.80396e-06 0.0916514)
(8.11875e-06 4.00946e-06 0.0815833)
(-3.55443e-06 -3.51375e-06 0.0875263)
(2.40867e-05 1.42143e-05 0.0963048)
(-1.10181e-05 -5.55791e-06 0.0962556)
(-3.82658e-06 -3.04358e-06 0.0815313)
(1.68616e-05 1.03057e-05 0.0916993)
(-3.80876e-06 -7.79472e-06 0.0916451)
(4.03354e-06 8.13456e-06 0.0815778)
(-3.51729e-06 -3.54714e-06 0.0875252)
(1.42422e-05 2.40791e-05 0.0963022)
(-5.56555e-06 -1.09942e-05 0.0962531)
(-3.05001e-06 -3.84406e-06 0.0815268)
(1.03364e-05 1.68655e-05 0.0916925)
(7.2887e-06 7.28311e-06 0.0836261)
(-2.62636e-06 -4.09703e-06 0.0682915)
(-4.0837e-06 -2.63727e-06 0.0682854)
(3.62091e-06 5.15223e-06 0.0683474)
(5.15362e-06 3.62282e-06 0.0683411)
(-3.10882e-06 -3.12492e-06 0.0835801)
(1.63813e-07 -6.08461e-06 0.0684663)
(-7.77747e-07 5.87197e-06 0.0858204)
(-1.20038e-06 -1.20671e-05 0.0822774)
(-9.10307e-07 4.92487e-06 0.0684054)
(-1.38996e-06 -1.23091e-05 0.0858766)
(5.2044e-07 -7.44881e-06 0.0769233)
(-3.08237e-07 -1.661e-05 0.0914191)
(-2.00641e-07 3.87144e-06 0.0786536)
(-5.67184e-07 5.52996e-06 0.0898917)
(-7.25415e-07 4.26845e-06 0.0768765)
(1.20073e-07 -7.45003e-06 0.078694)
(-1.15123e-06 -1.6005e-05 0.0899413)
(3.26996e-06 -5.85137e-06 0.0715982)
(-6.08736e-06 1.68445e-07 0.068467)
(5.86568e-06 -7.67383e-07 0.0858209)
(-1.20614e-05 -1.20928e-06 0.0822781)
(4.92376e-06 -8.92782e-07 0.0684062)
(-1.23153e-05 -1.38822e-06 0.0858771)
(-7.45901e-06 5.27276e-07 0.0769238)
(-1.66185e-05 -2.98446e-07 0.0914193)
(5.53788e-06 -5.61185e-07 0.089892)
(3.87308e-06 -1.99196e-07 0.0786537)
(4.26997e-06 -7.17095e-07 0.076877)
(-1.60111e-05 -1.14665e-06 0.0899417)
(-7.44446e-06 1.3255e-07 0.0786942)
(-5.8744e-06 3.33305e-06 0.071596)
(-3.12001e-06 -3.14385e-06 0.0836177)
(3.57656e-06 5.14263e-06 0.0683809)
(5.14361e-06 3.57568e-06 0.0683745)
(-2.62954e-06 -4.08862e-06 0.0683252)
(-4.06335e-06 -2.64434e-06 0.0683191)
(7.23367e-06 7.22965e-06 0.0836637)
(1.67958e-05 1.02844e-05 0.0917203)
(-1.10309e-05 -5.53661e-06 0.0962733)
(-3.86035e-06 -3.03183e-06 0.0815548)
(9.91214e-06 6.93086e-06 0.0875998)
(-7.80895e-06 -3.8119e-06 0.0916725)
(2.40218e-05 1.42321e-05 0.0963224)
(8.08512e-06 4.03491e-06 0.0816066)
(1.03179e-05 1.67967e-05 0.0917136)
(-5.54317e-06 -1.09982e-05 0.0962709)
(-3.02658e-06 -3.87292e-06 0.0815503)
(6.94832e-06 9.90833e-06 0.0875983)
(-3.80583e-06 -7.82494e-06 0.0916661)
(1.42442e-05 2.40283e-05 0.0963198)
(4.04925e-06 8.08458e-06 0.0816011)
(7.24643e-06 7.23857e-06 0.0836562)
(-2.63228e-06 -4.09019e-06 0.0683185)
(-4.06712e-06 -2.6483e-06 0.0683124)
(-3.11981e-06 -3.14447e-06 0.0836101)
(3.58671e-06 5.14484e-06 0.0683742)
(5.14774e-06 3.58812e-06 0.0683679)
(-7.81693e-06 -3.81826e-06 0.0916796)
(8.06044e-06 4.03079e-06 0.0816144)
(-3.59591e-06 -3.47473e-06 0.0875583)
(2.39621e-05 1.42204e-05 0.0963283)
(-1.10403e-05 -5.52846e-06 0.0962793)
(-3.87453e-06 -3.03322e-06 0.0815627)
(1.67613e-05 1.02652e-05 0.0917273)
(-3.81017e-06 -7.82946e-06 0.0916732)
(4.05035e-06 8.06409e-06 0.0816089)
(-3.47823e-06 -3.58521e-06 0.0875571)
(1.42429e-05 2.40089e-05 0.0963257)
(-5.54319e-06 -1.10003e-05 0.0962768)
(-3.01978e-06 -3.87972e-06 0.0815581)
(1.03064e-05 1.67652e-05 0.0917206)
(-3.27273e-06 -5.95771e-06 0.0715657)
(2.60987e-06 4.34411e-06 0.0715191)
(-5.93565e-06 -3.29654e-06 0.0715653)
(4.32467e-06 2.61835e-06 0.0715192)
(3.14399e-06 3.1184e-06 0.0835869)
(-5.13591e-06 -3.63025e-06 0.0683538)
(-3.61263e-06 -5.16724e-06 0.0683474)
(4.09701e-06 2.63411e-06 0.0682973)
(2.65867e-06 4.07373e-06 0.0682911)
(-7.26916e-06 -7.29805e-06 0.0836337)
(-1.03035e-05 -1.6875e-05 0.0916923)
(5.57486e-06 1.10081e-05 0.0962493)
(-6.88503e-06 -9.95968e-06 0.0875683)
(3.03237e-06 3.79068e-06 0.081523)
(-3.9782e-06 -8.10878e-06 0.0815763)
(-1.42037e-05 -2.40826e-05 0.0962987)
(3.81013e-06 7.76795e-06 0.0916437)
(-1.68655e-05 -1.03452e-05 0.0916858)
(1.09943e-05 5.55893e-06 0.0962468)
(-9.98258e-06 -6.92534e-06 0.0875662)
(3.84186e-06 3.02437e-06 0.081518)
(-8.13626e-06 -4.01805e-06 0.0815703)
(-2.40933e-05 -1.42394e-05 0.0962963)
(7.77889e-06 3.79322e-06 0.0916373)
(3.80805e-06 7.7719e-06 0.0916507)
(-3.98117e-06 -8.0931e-06 0.0815841)
(3.49105e-06 3.54655e-06 0.0875256)
(-1.4204e-05 -2.40611e-05 0.0963045)
(3.02386e-06 3.79756e-06 0.0815308)
(-1.02964e-05 -1.68541e-05 0.0916993)
(5.56669e-06 1.10076e-05 0.0962552)
(7.78328e-06 3.79215e-06 0.0916443)
(-8.12124e-06 -4.02263e-06 0.0815781)
(3.57056e-06 3.49555e-06 0.0875246)
(-2.40709e-05 -1.42389e-05 0.0963021)
(3.84926e-06 3.01538e-06 0.0815259)
(-1.6844e-05 -1.03374e-05 0.0916928)
(1.09935e-05 5.54997e-06 0.0962526)
(-7.27923e-06 -7.30718e-06 0.0836262)
(4.10019e-06 2.63256e-06 0.0682906)
(2.65661e-06 4.07751e-06 0.0682844)
(-5.13829e-06 -3.63827e-06 0.068347)
(-3.6215e-06 -5.16879e-06 0.0683406)
(3.14157e-06 3.11631e-06 0.0835793)
(2.57993e-06 4.35529e-06 0.0715344)
(-3.29806e-06 -5.93095e-06 0.071581)
(4.33614e-06 2.58889e-06 0.0715346)
(-5.90792e-06 -3.32276e-06 0.0715806)
(-7.25823e-06 -7.2885e-06 0.0836412)
(4.09322e-06 2.63597e-06 0.0683041)
(2.66133e-06 4.06963e-06 0.0682979)
(3.1473e-06 3.12057e-06 0.0835944)
(-5.13284e-06 -3.62311e-06 0.0683605)
(-3.60414e-06 -5.16475e-06 0.0683541)
(3.81144e-06 7.78673e-06 0.0916648)
(-1.42013e-05 -2.40121e-05 0.0963163)
(3.47111e-06 3.56573e-06 0.0875416)
(-3.9854e-06 -8.05857e-06 0.0815996)
(3.00756e-06 3.81329e-06 0.0815465)
(5.55398e-06 1.10128e-05 0.096267)
(-1.02716e-05 -1.68031e-05 0.0917133)
(7.79932e-06 3.79329e-06 0.0916584)
(-2.40209e-05 -1.42369e-05 0.0963138)
(3.58928e-06 3.47538e-06 0.0875406)
(-8.08087e-06 -4.02672e-06 0.0815936)
(3.86529e-06 2.99751e-06 0.0815415)
(1.09986e-05 5.53431e-06 0.0962644)
(-1.67913e-05 -1.03193e-05 0.0917068)
(-1.02864e-05 -1.68307e-05 0.0917063)
(3.0181e-06 3.80768e-06 0.0815386)
(5.56099e-06 1.10092e-05 0.0962611)
(-6.89538e-06 -9.92776e-06 0.0875843)
(3.80957e-06 7.77735e-06 0.0916578)
(-3.98244e-06 -8.07507e-06 0.0815919)
(-1.42031e-05 -2.4038e-05 0.0963104)
(-1.68194e-05 -1.03288e-05 0.0916998)
(3.85651e-06 3.0067e-06 0.0815337)
(1.09951e-05 5.54259e-06 0.0962585)
(-9.9487e-06 -6.93613e-06 0.0875822)
(7.78953e-06 3.79186e-06 0.0916514)
(-8.10548e-06 -4.02723e-06 0.0815859)
(-2.40473e-05 -1.42381e-05 0.0963079)
(3.15248e-06 3.12495e-06 0.083602)
(-5.12981e-06 -3.61455e-06 0.0683672)
(-3.5966e-06 -5.16335e-06 0.0683608)
(4.08973e-06 2.63775e-06 0.0683108)
(2.66404e-06 4.06533e-06 0.0683046)
(-7.24686e-06 -7.27822e-06 0.0836487)
(6.70268e-07 4.26417e-06 0.0768513)
(-1.50006e-07 -7.46805e-06 0.0786687)
(1.10802e-06 -1.6045e-05 0.0899172)
(2.38904e-07 5.02833e-06 0.0913522)
(1.7423e-07 3.87038e-06 0.0786281)
(5.20946e-07 5.54134e-06 0.089868)
(-5.71897e-07 -7.46904e-06 0.0768981)
(-2.54466e-07 -6.12545e-06 0.0684387)
(1.11394e-06 -1.21188e-05 0.0822451)
(7.37354e-07 5.84029e-06 0.0857879)
(1.30914e-06 -1.23915e-05 0.0858436)
(8.2927e-07 4.9162e-06 0.0683779)
(8.45575e-07 4.91589e-06 0.0683855)
(1.31604e-06 -1.2378e-05 0.0858521)
(-6.3604e-07 7.12996e-06 0.0822006)
(7.4679e-07 5.84612e-06 0.0857964)
(-2.42023e-07 -6.11776e-06 0.0684462)
(-5.78891e-07 -7.47359e-06 0.0768897)
(2.82279e-07 -1.66609e-05 0.0913882)
(1.73938e-07 3.87426e-06 0.0786196)
(5.15245e-07 5.5494e-06 0.08986)
(-1.51585e-07 -7.47126e-06 0.0786602)
(1.10614e-06 -1.6054e-05 0.0899092)
(6.60308e-07 4.26779e-06 0.0768429)
(5.33214e-07 -7.46301e-06 0.0769066)
(-2.00468e-07 3.86918e-06 0.0786365)
(-5.53771e-07 5.53923e-06 0.0898755)
(-3.10545e-07 -1.66359e-05 0.0914036)
(-7.06993e-07 4.27062e-06 0.0768597)
(1.19442e-07 -7.45774e-06 0.0786771)
(-1.14506e-06 -1.60265e-05 0.0899252)
(-8.93119e-07 4.92461e-06 0.0683979)
(6.28941e-07 7.17654e-06 0.0822178)
(-1.38344e-06 -1.2326e-05 0.0858682)
(1.75938e-07 -6.09488e-06 0.0684588)
(-7.6831e-07 5.86442e-06 0.0858119)
(1.89188e-07 -6.10372e-06 0.0684513)
(-7.58576e-07 5.85934e-06 0.0858035)
(-1.18311e-06 -1.20961e-05 0.0822606)
(-8.77755e-07 4.92463e-06 0.0683903)
(-1.37543e-06 -1.23427e-05 0.0858597)
(-7.16355e-07 4.26672e-06 0.0768681)
(-2.67188e-07 5.01889e-06 0.0913677)
(1.20225e-07 -7.44825e-06 0.0786855)
(-1.14975e-06 -1.6017e-05 0.0899333)
(5.25724e-07 -7.46021e-06 0.076915)
(-2.0143e-07 3.8675e-06 0.0786451)
(-5.60242e-07 5.53289e-06 0.0898836)
(-5.63853e-07 -7.46426e-06 0.0769064)
(1.74586e-07 3.87053e-06 0.0786367)
(5.26518e-07 5.53706e-06 0.0898761)
(2.78699e-07 -1.66395e-05 0.0914037)
(6.79356e-07 4.26208e-06 0.0768598)
(-1.5066e-07 -7.45835e-06 0.0786771)
(1.11252e-06 -1.60332e-05 0.0899253)
(8.77976e-07 4.91676e-06 0.0684007)
(-6.14951e-07 7.1408e-06 0.0822175)
(1.33191e-06 -1.23441e-05 0.085869)
(7.67255e-07 5.85769e-06 0.0858134)
(-2.14601e-07 -6.09972e-06 0.0684613)
(-2.28204e-07 -6.10753e-06 0.0684538)
(7.57407e-07 5.85407e-06 0.0858049)
(1.13093e-06 -1.20874e-05 0.0822619)
(8.62403e-07 4.91657e-06 0.0683931)
(1.32458e-06 -1.23582e-05 0.0858605)
(6.89823e-07 4.25692e-06 0.0768682)
(2.38227e-07 5.01738e-06 0.0913678)
(-1.50883e-07 -7.4476e-06 0.0786856)
(1.11683e-06 -1.60265e-05 0.0899333)
(1.75982e-07 3.86711e-06 0.0786452)
(5.33104e-07 5.52975e-06 0.0898842)
(-5.56233e-07 -7.4581e-06 0.0769148)
(-3.1379e-06 3.10296e-06 0.0835873)
(5.13202e-06 -3.64189e-06 0.0683486)
(3.60615e-06 -5.16787e-06 0.0683541)