/*--------------------------------*- C++ -*----------------------------------*\
| =========                 |                                                 |
| \\      /  F ield         | OpenFOAM: The Open Source CFD Toolbox           |
|  \\    /   O peration     | Version:  2312                                  |
|   \\  /    A nd           | Website:  www.openfoam.com                      |
|    \\/     M anipulation  |                                                 |
\*---------------------------------------------------------------------------*/
FoamFile
{
    version     2.0;
    format      ascii;
    arch        "LSB;label=32;scalar=64";
    class       volScalarField;
    location    "700";
    object      k;
}
// * * * * * * * * * * * * * * * * * * * * * * * * * * * * * * * * * * * * * //

dimensions      [0 2 -2 0 0 0 0];

internalField   nonuniform List<scalar> 
42840
(
1.45939e-05
1.62412e-05
1.62414e-05
1.86744e-05
1.43153e-05
1.64638e-05
1.64641e-05
1.93717e-05
1.40825e-05
1.67734e-05
1.67738e-05
2.01626e-05
1.38951e-05
1.71669e-05
1.71674e-05
2.10344e-05
1.37528e-05
1.76408e-05
1.76413e-05
2.19746e-05
1.36556e-05
1.81911e-05
1.81918e-05
2.29693e-05
1.36034e-05
1.88132e-05
1.88143e-05
2.40032e-05
1.35969e-05
1.95021e-05
1.95037e-05
2.50647e-05
1.36346e-05
2.02526e-05
2.02546e-05
2.61439e-05
1.37184e-05
2.10592e-05
2.10614e-05
2.72173e-05
1.38481e-05
2.19154e-05
2.19178e-05
2.82835e-05
1.4024e-05
2.28147e-05
2.28173e-05
2.93434e-05
1.42462e-05
2.37507e-05
2.37533e-05
3.03842e-05
1.45146e-05
2.47172e-05
2.47197e-05
3.14163e-05
1.48293e-05
2.5708e-05
2.57108e-05
3.24092e-05
1.51899e-05
2.67173e-05
2.67198e-05
3.33945e-05
1.55959e-05
2.77382e-05
2.77408e-05
3.43651e-05
1.60463e-05
2.87656e-05
2.87679e-05
3.53026e-05
1.65399e-05
2.97936e-05
2.97961e-05
3.62147e-05
1.70754e-05
3.08191e-05
3.08219e-05
3.71077e-05
1.7651e-05
3.18375e-05
3.18406e-05
3.79804e-05
1.82645e-05
3.28445e-05
3.28481e-05
3.88139e-05
1.89133e-05
3.38363e-05
3.38404e-05
3.96373e-05
1.95946e-05
3.481e-05
3.48144e-05
4.043e-05
2.03051e-05
3.57629e-05
3.57679e-05
4.1198e-05
1.86873e-05
1.9219e-05
1.62417e-05
1.62419e-05
1.64004e-05
1.64006e-05
1.86861e-05
1.92178e-05
1.62419e-05
1.62418e-05
1.64006e-05
1.64007e-05
1.62411e-05
1.63998e-05
1.64001e-05
1.8687e-05
1.92187e-05
1.62418e-05
1.64002e-05
1.64009e-05
1.92377e-05
1.93875e-05
1.99911e-05
1.64646e-05
1.64648e-05
1.66888e-05
1.66891e-05
1.93855e-05
1.99907e-05
1.64647e-05
1.64649e-05
1.66889e-05
1.66893e-05
1.64642e-05
1.66879e-05
1.66886e-05
1.93862e-05
1.9991e-05
1.64649e-05
1.66885e-05
1.66894e-05
2.00123e-05
2.01802e-05
2.0846e-05
1.67744e-05
1.67746e-05
1.7062e-05
1.70622e-05
2.01785e-05
2.0845e-05
1.67745e-05
1.67749e-05
1.70619e-05
1.70627e-05
1.67742e-05
1.70608e-05
1.7062e-05
2.01793e-05
2.08473e-05
1.67748e-05
1.70614e-05
1.70625e-05
2.08706e-05
2.1054e-05
2.17717e-05
1.71683e-05
1.71685e-05
1.75165e-05
1.75168e-05
2.10522e-05
2.17716e-05
1.71681e-05
1.71689e-05
1.75162e-05
1.75173e-05
1.71683e-05
1.7515e-05
1.75168e-05
2.10529e-05
2.17729e-05
1.71686e-05
1.75157e-05
1.75171e-05
2.17994e-05
2.19959e-05
2.27546e-05
1.76426e-05
1.76427e-05
1.80485e-05
1.80487e-05
2.19939e-05
2.27541e-05
1.76422e-05
1.76433e-05
1.80479e-05
1.80494e-05
1.76428e-05
1.80467e-05
1.80491e-05
2.19953e-05
2.27563e-05
1.76429e-05
1.80475e-05
1.80492e-05
2.27848e-05
2.29921e-05
2.37798e-05
1.81933e-05
1.81933e-05
1.86536e-05
1.86538e-05
2.29904e-05
2.3779e-05
1.81926e-05
1.81941e-05
1.86529e-05
1.86546e-05
1.81938e-05
1.86515e-05
1.86546e-05
2.29915e-05
2.378e-05
1.81937e-05
1.86525e-05
1.86543e-05
2.38133e-05
2.40283e-05
2.48335e-05
1.8816e-05
1.8816e-05
1.93268e-05
1.93271e-05
2.40268e-05
2.48324e-05
1.88151e-05
1.88169e-05
1.9326e-05
1.93279e-05
1.88168e-05
1.93241e-05
1.93282e-05
2.4028e-05
2.48332e-05
1.88164e-05
1.93256e-05
1.93276e-05
2.48699e-05
2.50906e-05
2.59048e-05
1.95054e-05
1.95055e-05
2.00632e-05
2.00632e-05
2.50895e-05
2.59045e-05
1.95043e-05
1.95064e-05
2.00617e-05
2.00641e-05
1.95067e-05
2.00598e-05
2.00648e-05
2.50904e-05
2.59051e-05
1.9506e-05
2.00617e-05
2.00639e-05
2.59455e-05
2.61679e-05
2.69977e-05
2.02564e-05
2.02566e-05
2.08568e-05
2.08567e-05
2.61671e-05
2.69966e-05
2.02549e-05
2.02574e-05
2.08549e-05
2.08576e-05
2.02582e-05
2.08529e-05
2.08584e-05
2.61678e-05
2.69831e-05
2.02571e-05
2.08551e-05
2.08572e-05
2.70106e-05
2.7243e-05
2.80455e-05
2.10634e-05
2.10634e-05
2.17014e-05
2.17014e-05
2.72414e-05
2.8044e-05
2.10616e-05
2.10645e-05
2.16992e-05
2.17023e-05
2.10653e-05
2.16972e-05
2.1703e-05
2.72535e-05
2.80589e-05
2.10638e-05
2.16996e-05
2.17016e-05
2.8083e-05
2.83192e-05
2.91012e-05
2.19199e-05
2.192e-05
2.25912e-05
2.25908e-05
2.83171e-05
2.90983e-05
2.19178e-05
2.1921e-05
2.25886e-05
2.25918e-05
2.19216e-05
2.25864e-05
2.25923e-05
2.83075e-05
2.91054e-05
2.19199e-05
2.25889e-05
2.25906e-05
2.91261e-05
2.93719e-05
3.01509e-05
2.28198e-05
2.28196e-05
2.3519e-05
2.35183e-05
2.93684e-05
3.01465e-05
2.28172e-05
2.28206e-05
2.35162e-05
2.35195e-05
2.28211e-05
2.35137e-05
2.35202e-05
2.9359e-05
3.01373e-05
2.2819e-05
2.35164e-05
2.3518e-05
3.01808e-05
3.04016e-05
3.11898e-05
2.37561e-05
2.37557e-05
2.44786e-05
2.44778e-05
3.03936e-05
3.12066e-05
2.37533e-05
2.37568e-05
2.44756e-05
2.4479e-05
2.37576e-05
2.44732e-05
2.44799e-05
3.04081e-05
3.11716e-05
2.37552e-05
2.44759e-05
2.44773e-05
3.1202e-05
3.14245e-05
3.21846e-05
2.47227e-05
2.47221e-05
2.54642e-05
2.54629e-05
3.14108e-05
3.22023e-05
2.47198e-05
2.47231e-05
2.5461e-05
2.54644e-05
2.47244e-05
2.54585e-05
2.54654e-05
3.14202e-05
3.21851e-05
2.47216e-05
2.54614e-05
2.54623e-05
3.22081e-05
3.2438e-05
3.31747e-05
2.57137e-05
2.57127e-05
2.64693e-05
2.64677e-05
3.24185e-05
3.3175e-05
2.57107e-05
2.57139e-05
2.64658e-05
2.64691e-05
2.57153e-05
2.64637e-05
2.64703e-05
3.24351e-05
3.3168e-05
2.5712e-05
2.64665e-05
2.64669e-05
3.31961e-05
3.342e-05
3.41373e-05
2.67227e-05
2.67215e-05
2.74874e-05
2.74861e-05
3.34235e-05
3.41369e-05
2.67194e-05
2.67225e-05
2.74839e-05
2.74872e-05
2.67241e-05
2.74823e-05
2.74888e-05
3.34261e-05
3.41382e-05
2.67204e-05
2.74851e-05
2.7485e-05
3.41616e-05
3.43763e-05
3.50879e-05
2.77432e-05
2.77421e-05
2.85131e-05
2.85121e-05
3.43786e-05
3.50861e-05
2.77397e-05
2.7743e-05
2.85094e-05
2.85127e-05
2.7745e-05
2.85086e-05
2.85148e-05
3.43781e-05
3.51102e-05
2.7741e-05
2.85111e-05
2.85108e-05
3.51089e-05
3.53134e-05
3.59972e-05
2.87699e-05
2.87692e-05
2.95412e-05
2.95398e-05
3.53153e-05
3.59927e-05
2.87663e-05
2.87696e-05
2.95372e-05
2.95407e-05
2.8772e-05
2.95368e-05
2.95429e-05
3.5307e-05
3.60208e-05
2.87677e-05
2.95395e-05
2.95385e-05
3.60262e-05
3.62382e-05
3.68971e-05
2.97981e-05
2.97967e-05
3.05675e-05
3.05657e-05
3.62338e-05
3.6887e-05
2.97942e-05
2.97975e-05
3.05634e-05
3.05668e-05
2.97999e-05
3.05632e-05
3.05695e-05
3.62086e-05
3.68955e-05
2.97952e-05
3.05662e-05
3.05645e-05
3.69176e-05
3.71155e-05
3.77796e-05
3.08234e-05
3.08216e-05
3.1588e-05
3.15859e-05
3.71249e-05
3.77745e-05
3.08193e-05
3.08227e-05
3.15837e-05
3.15872e-05
3.08255e-05
3.15839e-05
3.159e-05
3.7123e-05
3.77715e-05
3.08202e-05
3.1587e-05
3.15847e-05
3.77948e-05
3.7984e-05
3.86401e-05
3.18418e-05
3.18394e-05
3.25982e-05
3.25955e-05
3.79817e-05
3.86151e-05
3.18374e-05
3.18409e-05
3.25936e-05
3.25974e-05
3.18438e-05
3.25941e-05
3.26003e-05
3.79822e-05
3.86185e-05
3.18383e-05
3.25977e-05
3.25948e-05
3.86412e-05
3.88123e-05
3.94621e-05
3.28487e-05
3.28458e-05
3.35942e-05
3.3591e-05
3.88244e-05
3.94419e-05
3.28442e-05
3.28479e-05
3.35896e-05
3.35935e-05
3.28508e-05
3.35899e-05
3.35964e-05
3.88324e-05
3.94514e-05
3.28452e-05
3.35942e-05
3.3591e-05
3.94636e-05
3.96272e-05
4.02645e-05
3.38407e-05
3.38373e-05
3.45728e-05
3.45693e-05
3.96424e-05
4.02409e-05
3.38361e-05
3.38398e-05
3.45682e-05
3.45719e-05
3.38429e-05
3.45684e-05
3.45751e-05
3.964e-05
4.02642e-05
3.38373e-05
3.4573e-05
3.45697e-05
4.02671e-05
4.04285e-05
4.10374e-05
3.48145e-05
3.48108e-05
3.55311e-05
3.55273e-05
4.04366e-05
4.10349e-05
3.48098e-05
3.48135e-05
3.55265e-05
3.55304e-05
3.48167e-05
3.55267e-05
3.55333e-05
4.04332e-05
4.10384e-05
3.48113e-05
3.55318e-05
3.55282e-05
4.1039e-05
4.11946e-05
3.57675e-05
3.57634e-05
4.11988e-05
3.57628e-05
3.57666e-05
3.57695e-05
4.12001e-05
3.57643e-05
5.4845e-05
7.01004e-05
7.01258e-05
5.43659e-05
6.95611e-05
6.95429e-05
5.48462e-05
7.01015e-05
7.0127e-05
5.43654e-05
1.45938e-05
1.45937e-05
1.45935e-05
1.43806e-05
1.43805e-05
1.43804e-05
1.43803e-05
3.10578e-05
4.64244e-05
1.47092e-05
1.62884e-05
4.68117e-05
1.46751e-05
3.04953e-05
6.95611e-05
6.95429e-05
3.10592e-05
1.47091e-05
4.64258e-05
1.62889e-05
1.46751e-05
4.68108e-05
3.04997e-05
5.97055e-05
5.97161e-05
1.88892e-05
5.99066e-05
5.99174e-05
5.5947e-05
7.01522e-05
5.5543e-05
7.01748e-05
6.94939e-05
6.94776e-05
5.5948e-05
7.01535e-05
5.55425e-05
7.01761e-05
1.43151e-05
1.43151e-05
1.4315e-05
1.41364e-05
1.41363e-05
1.41363e-05
1.41362e-05
3.27274e-05
4.75432e-05
1.46025e-05
1.65331e-05
3.21819e-05
4.78948e-05
1.45855e-05
6.94938e-05
6.94775e-05
3.27307e-05
1.46025e-05
4.75438e-05
1.65336e-05
3.21855e-05
1.45855e-05
4.78962e-05
6.02886e-05
6.02984e-05
1.96177e-05
6.04686e-05
6.04774e-05
5.68644e-05
7.01972e-05
5.65223e-05
7.02174e-05
6.94326e-05
6.94182e-05
5.68653e-05
7.01986e-05
5.65215e-05
7.02188e-05
1.40823e-05
1.40823e-05
1.40822e-05
1.39378e-05
1.39376e-05
1.39376e-05
1.39376e-05
3.4336e-05
4.85659e-05
1.45651e-05
1.6864e-05
3.38141e-05
4.88858e-05
1.45669e-05
6.94324e-05
6.94179e-05
3.43372e-05
1.45652e-05
4.85667e-05
1.68646e-05
3.38168e-05
1.45669e-05
4.88895e-05
6.08107e-05
6.08199e-05
2.04359e-05
6.0972e-05
6.09806e-05
5.76336e-05
7.02365e-05
5.73402e-05
7.02541e-05
6.93772e-05
6.93647e-05
5.76342e-05
7.0238e-05
5.73394e-05
7.02555e-05
1.38949e-05
1.38949e-05
1.3895e-05
1.37843e-05
1.37842e-05
1.37842e-05
1.37843e-05
3.5863e-05
4.95004e-05
1.45958e-05
1.7278e-05
3.53666e-05
4.97951e-05
1.46143e-05
6.93769e-05
6.93644e-05
3.58621e-05
1.4596e-05
4.95033e-05
1.72786e-05
3.53708e-05
1.46145e-05
4.97978e-05
6.12801e-05
6.12882e-05
2.13315e-05
6.14263e-05
6.14343e-05
5.82864e-05
7.02708e-05
5.80315e-05
7.02864e-05
6.93272e-05
6.93166e-05
5.82865e-05
7.02724e-05
5.80308e-05
7.02877e-05
1.37527e-05
1.37527e-05
1.37529e-05
1.36759e-05
1.36757e-05
1.36759e-05
1.3676e-05
3.72912e-05
5.03592e-05
1.46957e-05
1.77715e-05
3.68278e-05
5.06275e-05
1.47313e-05
6.93269e-05
6.93163e-05
3.72904e-05
1.46961e-05
5.03601e-05
1.77722e-05
3.68312e-05
1.47316e-05
5.06312e-05
6.17052e-05
6.17138e-05
2.22905e-05
6.18381e-05
6.1846e-05
5.88484e-05
7.03016e-05
5.86249e-05
7.03158e-05
6.92826e-05
6.92739e-05
5.88481e-05
7.03033e-05
5.86243e-05
7.0317e-05
1.36554e-05
1.36556e-05
1.36558e-05
1.36125e-05
1.36123e-05
1.36125e-05
1.36128e-05
3.86188e-05
5.11451e-05
1.48637e-05
1.83402e-05
3.81897e-05
5.13934e-05
1.49163e-05
6.92824e-05
6.92738e-05
3.86184e-05
1.48644e-05
5.11485e-05
1.83411e-05
3.8193e-05
1.49169e-05
5.1396e-05
6.20925e-05
6.21008e-05
2.32987e-05
6.2214e-05
6.22223e-05
5.93404e-05
7.03303e-05
5.9143e-05
7.03438e-05
6.92434e-05
6.92368e-05
5.93404e-05
7.03322e-05
5.91428e-05
7.0345e-05
1.36032e-05
1.36034e-05
1.36038e-05
1.35947e-05
1.35945e-05
1.35948e-05
1.35952e-05
3.98484e-05
5.18712e-05
1.50992e-05
1.89795e-05
3.9451e-05
5.21002e-05
1.51685e-05
6.92435e-05
6.92368e-05
3.98479e-05
1.51003e-05
5.18751e-05
1.89809e-05
3.94548e-05
1.51694e-05
5.21032e-05
6.24482e-05
6.24563e-05
2.43427e-05
6.25605e-05
6.25692e-05
5.9779e-05
7.03583e-05
5.96027e-05
7.03718e-05
6.92099e-05
6.92053e-05
5.97789e-05
7.03601e-05
5.96017e-05
7.03731e-05
1.35967e-05
1.3597e-05
1.35974e-05
1.36209e-05
1.36207e-05
1.3621e-05
1.36216e-05
4.09846e-05
5.25434e-05
1.5401e-05
1.96844e-05
4.06183e-05
5.27565e-05
1.54867e-05
6.92102e-05
6.92056e-05
4.09883e-05
1.54025e-05
5.25472e-05
1.96862e-05
4.06191e-05
1.54879e-05
5.276e-05
6.27781e-05
6.27866e-05
2.54099e-05
6.28828e-05
6.28917e-05
6.01762e-05
7.03866e-05
6.00159e-05
7.04007e-05
6.91823e-05
6.91798e-05
6.01767e-05
7.03884e-05
6.0015e-05
7.04021e-05
1.36344e-05
1.36348e-05
1.36354e-05
1.36933e-05
1.3693e-05
1.36935e-05
1.36942e-05
4.20416e-05
5.31686e-05
1.57678e-05
2.04495e-05
4.16945e-05
5.33688e-05
1.58696e-05
6.91826e-05
6.91801e-05
4.20455e-05
1.57697e-05
5.31736e-05
2.04516e-05
4.16939e-05
1.5871e-05
5.33722e-05
6.30866e-05
6.30953e-05
2.64767e-05
6.31853e-05
6.31942e-05
6.05407e-05
7.04161e-05
6.03932e-05
7.04315e-05
6.91605e-05
6.91602e-05
6.05408e-05
7.04177e-05
6.03918e-05
7.0433e-05
1.37182e-05
1.37187e-05
1.37195e-05
1.38116e-05
1.38112e-05
1.38118e-05
1.38126e-05
4.30228e-05
5.37541e-05
1.61978e-05
2.1269e-05
4.26916e-05
5.39421e-05
1.63151e-05
6.9161e-05
6.91605e-05
4.30267e-05
1.61999e-05
5.37599e-05
2.12714e-05
4.26912e-05
1.63168e-05
5.39456e-05
6.33777e-05
6.33864e-05
2.75533e-05
6.34711e-05
6.34801e-05
6.08779e-05
7.04481e-05
6.07415e-05
7.04648e-05
6.91448e-05
6.91466e-05
6.0878e-05
7.04495e-05
6.07399e-05
7.04662e-05
1.38479e-05
1.38486e-05
1.38494e-05
1.39759e-05
1.39755e-05
1.39762e-05
1.39771e-05
4.39373e-05
5.43067e-05
1.66889e-05
2.21366e-05
4.36198e-05
5.44849e-05
1.6821e-05
6.91452e-05
6.91469e-05
4.39415e-05
1.66914e-05
5.43109e-05
2.2139e-05
4.36198e-05
1.68231e-05
5.44867e-05
6.36541e-05
6.3663e-05
2.85992e-05
6.37434e-05
6.37522e-05
6.11937e-05
7.04833e-05
6.10657e-05
7.05012e-05
6.91351e-05
6.9139e-05
6.11939e-05
7.04846e-05
6.10636e-05
7.05025e-05
1.40237e-05
1.40245e-05
1.40254e-05
1.41864e-05
1.41859e-05
1.41869e-05
1.41877e-05
4.47944e-05
5.48308e-05
1.72383e-05
2.30456e-05
4.44884e-05
5.49977e-05
1.73847e-05
6.91355e-05
6.91394e-05
4.47987e-05
1.72413e-05
5.48316e-05
2.30482e-05
4.44888e-05
1.7387e-05
5.49992e-05
6.39187e-05
6.39275e-05
2.96534e-05
6.40044e-05
6.40134e-05
6.1493e-05
7.05217e-05
6.13707e-05
7.0541e-05
6.91313e-05
6.91374e-05
6.14929e-05
7.05231e-05
6.13689e-05
7.05424e-05
1.42458e-05
1.42467e-05
1.42477e-05
1.44433e-05
1.44427e-05
1.44438e-05
1.44447e-05
4.56022e-05
5.53264e-05
1.78435e-05
2.39897e-05
4.5306e-05
5.54867e-05
1.80033e-05
6.91318e-05
6.91378e-05
4.56066e-05
1.78466e-05
5.5325e-05
2.39925e-05
4.53066e-05
1.80058e-05
5.54901e-05
6.41734e-05
6.41822e-05
3.06966e-05
6.42562e-05
6.42652e-05
6.17787e-05
7.05652e-05
6.16614e-05
7.05834e-05
6.91334e-05
6.91416e-05
6.17789e-05
7.05653e-05
6.166e-05
7.05859e-05
1.45141e-05
1.45152e-05
1.45163e-05
1.47464e-05
1.47458e-05
1.47471e-05
1.47479e-05
4.63677e-05
5.57998e-05
1.8501e-05
2.49631e-05
4.60799e-05
5.5953e-05
1.86735e-05
6.91339e-05
6.91421e-05
4.63722e-05
1.85044e-05
5.57962e-05
2.49657e-05
4.60807e-05
1.86761e-05
5.59577e-05
6.44198e-05
6.44277e-05
3.17009e-05
6.45e-05
6.45096e-05
6.20541e-05
7.06115e-05
6.19416e-05
7.06313e-05
6.91413e-05
6.91516e-05
6.20551e-05
7.06128e-05
6.19394e-05
7.06327e-05
1.48287e-05
1.48299e-05
1.4831e-05
1.50956e-05
1.50949e-05
1.50963e-05
1.50972e-05
4.70973e-05
5.62504e-05
1.92075e-05
2.5959e-05
4.68165e-05
5.64e-05
1.93918e-05
6.91418e-05
6.9152e-05
4.71011e-05
1.92111e-05
5.62468e-05
2.59619e-05
4.68175e-05
1.93945e-05
5.64052e-05
6.46585e-05
6.46659e-05
3.27056e-05
6.47371e-05
6.47467e-05
6.23229e-05
7.0662e-05
6.22135e-05
7.06835e-05
6.91548e-05
6.91671e-05
6.2324e-05
7.06633e-05
6.22109e-05
7.06848e-05
1.51893e-05
1.51906e-05
1.51917e-05
1.54902e-05
1.54896e-05
1.54911e-05
1.5492e-05
4.77954e-05
5.66819e-05
1.99595e-05
2.69717e-05
4.75211e-05
5.68285e-05
2.01547e-05
6.91552e-05
6.91673e-05
4.77981e-05
1.99632e-05
5.66793e-05
2.69745e-05
4.75218e-05
2.01575e-05
5.68341e-05
6.48904e-05
6.48976e-05
3.36808e-05
6.49679e-05
6.49772e-05
6.25868e-05
7.07166e-05
6.24788e-05
7.07397e-05
6.91736e-05
6.91878e-05
6.25878e-05
7.0718e-05
6.24766e-05
7.07413e-05
1.55953e-05
1.55967e-05
1.55977e-05
1.59296e-05
1.59291e-05
1.59306e-05
1.59315e-05
4.84652e-05
5.70964e-05
2.07532e-05
2.79948e-05
4.81978e-05
5.72402e-05
2.09581e-05
6.9174e-05
6.91879e-05
4.84679e-05
2.07572e-05
5.70941e-05
2.79975e-05
4.81982e-05
2.09612e-05
5.72456e-05
6.51164e-05
6.51233e-05
3.46363e-05
6.51928e-05
6.52017e-05
6.28484e-05
7.07752e-05
6.27389e-05
7.08e-05
6.91975e-05
6.92136e-05
6.28482e-05
7.07768e-05
6.27381e-05
7.08017e-05
1.60458e-05
1.60472e-05
1.60483e-05
1.64125e-05
1.64121e-05
1.64137e-05
1.64146e-05
4.91106e-05
5.74952e-05
2.15842e-05
2.90228e-05
4.88498e-05
5.76361e-05
2.17979e-05
6.91978e-05
6.92135e-05
4.91127e-05
2.15883e-05
5.74931e-05
2.90254e-05
4.88504e-05
2.18011e-05
5.76423e-05
6.53367e-05
6.53435e-05
3.55681e-05
6.54119e-05
6.54206e-05
6.31059e-05
7.08377e-05
6.29968e-05
7.0864e-05
6.92261e-05
6.92438e-05
6.31054e-05
7.08395e-05
6.29971e-05
7.08659e-05
1.65394e-05
1.6541e-05
1.65421e-05
1.69377e-05
1.69372e-05
1.69389e-05
1.694e-05
4.97331e-05
5.78795e-05
2.24483e-05
3.00504e-05
4.94799e-05
5.80175e-05
2.26695e-05
6.92263e-05
6.92437e-05
4.97348e-05
2.24526e-05
5.78776e-05
3.00533e-05
4.94815e-05
2.2673e-05
5.80235e-05
6.55518e-05
6.55584e-05
3.6481e-05
6.56256e-05
6.56341e-05
6.33613e-05
7.09039e-05
6.32533e-05
7.09318e-05
6.92592e-05
6.92783e-05
6.33608e-05
7.09058e-05
6.32531e-05
7.09336e-05
1.70749e-05
1.70767e-05
1.70777e-05
1.75034e-05
1.7503e-05
1.75049e-05
1.75059e-05
5.03355e-05
5.82501e-05
2.3341e-05
3.10746e-05
5.00899e-05
5.83854e-05
2.35687e-05
6.92593e-05
6.92782e-05
5.03366e-05
2.33456e-05
5.82491e-05
3.10776e-05
5.00922e-05
2.35724e-05
5.83912e-05
6.57619e-05
6.57683e-05
3.73566e-05
6.58344e-05
6.58424e-05
6.36149e-05
7.09738e-05
6.35077e-05
7.1003e-05
6.92962e-05
6.93168e-05
6.36143e-05
7.09755e-05
6.35076e-05
7.10046e-05
1.76505e-05
1.76525e-05
1.76534e-05
1.81076e-05
1.81072e-05
1.81094e-05
1.81102e-05
5.0918e-05
5.86086e-05
2.4258e-05
3.20905e-05
5.06794e-05
5.87399e-05
2.44913e-05
6.92965e-05
6.93168e-05
5.09195e-05
2.42629e-05
5.8607e-05
3.20939e-05
5.06827e-05
2.44954e-05
5.87463e-05
6.59672e-05
6.59736e-05
3.82187e-05
6.60382e-05
6.60462e-05
6.38661e-05
7.10454e-05
6.37601e-05
7.10786e-05
6.93371e-05
6.93589e-05
6.38639e-05
7.10485e-05
6.37604e-05
7.10788e-05
1.82639e-05
1.82662e-05
1.82671e-05
1.87479e-05
1.87473e-05
1.87499e-05
1.87507e-05
5.14819e-05
5.89536e-05
2.51967e-05
3.30941e-05
5.12511e-05
5.90817e-05
2.54348e-05
6.93376e-05
6.93591e-05
5.14833e-05
2.52016e-05
5.89528e-05
3.30979e-05
5.12542e-05
2.54388e-05
5.90884e-05
6.61679e-05
6.61746e-05
3.90611e-05
6.62374e-05
6.62455e-05
6.41143e-05
7.11216e-05
6.40099e-05
7.11557e-05
6.93814e-05
6.94046e-05
6.41118e-05
7.11244e-05
6.40102e-05
7.11558e-05
1.89126e-05
1.89154e-05
1.89161e-05
1.94214e-05
1.94206e-05
1.94237e-05
1.94244e-05
5.20258e-05
5.92865e-05
2.6153e-05
3.40815e-05
5.1803e-05
5.94119e-05
2.63947e-05
6.9382e-05
6.9405e-05
5.20283e-05
2.61581e-05
5.92865e-05
3.40859e-05
5.1806e-05
2.63991e-05
5.94182e-05
6.6364e-05
6.63706e-05
3.98664e-05
6.64318e-05
6.64401e-05
6.43586e-05
7.12003e-05
6.42558e-05
7.12354e-05
6.94291e-05
6.94536e-05
6.43562e-05
7.12029e-05
6.42561e-05
7.12353e-05
1.95938e-05
1.9597e-05
1.95976e-05
2.01249e-05
2.0124e-05
2.01275e-05
2.01281e-05
5.25494e-05
5.96085e-05
2.71223e-05
3.50503e-05
5.23357e-05
5.97306e-05
2.73664e-05
6.94299e-05
6.94541e-05
5.25527e-05
2.71278e-05
5.96087e-05
3.50551e-05
5.23388e-05
2.73713e-05
5.97368e-05
6.65552e-05
6.6562e-05
4.06541e-05
6.66207e-05
6.66297e-05
6.45975e-05
7.12812e-05
6.44965e-05
7.13171e-05
6.948e-05
6.95056e-05
6.45958e-05
7.12836e-05
6.44968e-05
7.13169e-05
2.03041e-05
2.03078e-05
2.03083e-05
5.30529e-05
5.99191e-05
2.80993e-05
3.59976e-05
5.28471e-05
6.00379e-05
2.83446e-05
6.94808e-05
6.95062e-05
5.3056e-05
2.81052e-05
5.99193e-05
3.60029e-05
5.28514e-05
2.835e-05
6.00435e-05
6.67415e-05
6.67484e-05
4.14229e-05
6.68049e-05
6.68141e-05
6.95595e-05
6.95414e-05
6.95618e-05
6.95437e-05
5.97097e-05
5.97209e-05
1.88707e-05
5.99109e-05
5.99208e-05
6.9508e-05
6.95252e-05
6.95104e-05
6.95276e-05
1.90264e-05
6.01997e-05
6.02091e-05
6.00094e-05
6.00205e-05
5.48441e-05
7.00969e-05
7.01225e-05
5.43651e-05
3.10571e-05
4.64262e-05
1.47096e-05
1.6289e-05
4.68108e-05
1.46756e-05
3.05011e-05
3.10578e-05
4.64287e-05
1.47096e-05
1.62892e-05
4.68146e-05
1.46756e-05
3.05001e-05
5.49814e-05
7.01513e-05
7.01273e-05
5.54214e-05
5.49806e-05
7.01477e-05
7.01237e-05
5.54205e-05
3.13486e-05
1.63422e-05
4.73643e-05
1.46221e-05
4.69982e-05
1.46477e-05
3.18984e-05
3.13471e-05
1.63423e-05
4.73668e-05
1.46221e-05
4.69996e-05
1.46477e-05
3.18979e-05
5.97154e-05
5.97091e-05
1.88684e-05
5.99153e-05
5.99102e-05
6.95595e-05
6.95414e-05
6.95096e-05
6.95267e-05
1.90247e-05
6.02046e-05
6.01978e-05
6.00148e-05
6.00088e-05
6.95079e-05
6.9525e-05
3.10587e-05
4.64333e-05
1.47098e-05
1.62892e-05
4.68122e-05
1.46758e-05
3.04983e-05
5.48454e-05
7.00971e-05
7.01226e-05
5.43648e-05
3.10614e-05
1.47093e-05
4.64335e-05
1.62892e-05
1.46752e-05
4.68089e-05
3.04955e-05
5.4981e-05
7.01525e-05
7.01285e-05
5.54225e-05
3.13462e-05
1.63423e-05
4.73659e-05
1.46225e-05
4.70047e-05
1.4648e-05
3.19013e-05
5.49801e-05
7.01478e-05
7.0124e-05
5.54216e-05
3.13433e-05
1.63423e-05
1.46219e-05
4.73639e-05
1.46474e-05
4.70045e-05
3.1902e-05
5.48361e-05
7.00992e-05
7.01248e-05
5.43699e-05
3.10604e-05
1.47093e-05
4.64255e-05
1.62886e-05
1.46752e-05
4.68104e-05
3.04927e-05
5.48408e-05
7.00959e-05
7.01216e-05
5.43669e-05
3.13429e-05
1.63415e-05
4.73647e-05
1.46217e-05
4.69957e-05
1.46472e-05
3.18984e-05
5.4985e-05
7.01499e-05
7.01259e-05
5.54128e-05
3.13416e-05
1.63416e-05
1.46218e-05
4.73612e-05
1.46473e-05
4.6997e-05
3.19014e-05
5.49824e-05
7.0147e-05
7.01229e-05
5.54175e-05
5.97151e-05
5.97106e-05
1.88699e-05
5.99155e-05
5.99108e-05
6.95598e-05
6.95416e-05
6.95095e-05
6.95267e-05
1.90252e-05
6.02034e-05
6.02002e-05
6.00152e-05
6.00101e-05
6.95083e-05
6.95254e-05
3.10563e-05
1.47095e-05
4.64311e-05
1.62894e-05
1.46756e-05
4.68138e-05
3.05017e-05
5.48396e-05
7.01e-05
7.01255e-05
5.43728e-05
5.48386e-05
7.00976e-05
7.01231e-05
5.43721e-05
3.13476e-05
1.63417e-05
1.46217e-05
4.73657e-05
1.46472e-05
4.69978e-05
3.19005e-05
3.13493e-05
1.63424e-05
1.46222e-05
4.73677e-05
1.46477e-05
4.70018e-05
3.18982e-05
5.49873e-05
7.01507e-05
7.01268e-05
5.54154e-05
5.49865e-05
7.01483e-05
7.01245e-05
5.54144e-05
6.95591e-05
6.95409e-05
6.95615e-05
6.95434e-05
1.90136e-05
6.01956e-05
6.02052e-05
6.00057e-05
6.00158e-05
6.95076e-05
6.95248e-05
6.951e-05
6.95272e-05
6.94924e-05
6.94761e-05
6.94947e-05
6.94784e-05
6.02924e-05
6.03029e-05
1.95948e-05
6.04727e-05
6.04817e-05
6.94456e-05
6.9461e-05
6.9448e-05
6.94633e-05
1.97735e-05
6.07304e-05
6.07401e-05
6.05606e-05
6.05712e-05
5.5946e-05
7.01489e-05
5.5542e-05
7.01716e-05
3.27281e-05
4.75457e-05
1.4603e-05
1.65339e-05
3.21867e-05
4.78955e-05
1.4586e-05
3.27278e-05
4.7548e-05
1.4603e-05
1.65341e-05
3.21856e-05
4.78974e-05
1.45859e-05
5.60548e-05
7.0197e-05
7.01757e-05
5.64265e-05
5.60539e-05
7.01936e-05
7.01724e-05
5.64254e-05
3.30111e-05
1.66088e-05
4.84026e-05
1.45672e-05
4.80682e-05
1.45756e-05
3.35416e-05
3.30096e-05
1.6609e-05
4.84054e-05
1.45671e-05
4.80709e-05
1.45756e-05
3.35424e-05
6.02972e-05
6.02925e-05
1.95924e-05
6.04773e-05
6.04705e-05
6.94921e-05
6.94759e-05
6.94472e-05
6.94625e-05
1.97716e-05
6.07356e-05
6.07284e-05
6.05659e-05
6.056e-05
6.94454e-05
6.94606e-05
3.27316e-05
4.75513e-05
1.46034e-05
1.6534e-05
3.21836e-05
4.78967e-05
1.45864e-05
5.5947e-05
7.01489e-05
5.55413e-05
7.01716e-05
3.27299e-05
1.46028e-05
4.75507e-05
1.65342e-05
3.21822e-05
1.45858e-05
4.78945e-05
5.60543e-05
7.01982e-05
7.0177e-05
5.64275e-05
3.30073e-05
1.66089e-05
4.84041e-05
1.45676e-05
4.8074e-05
1.45761e-05
3.35451e-05
5.60532e-05
7.01935e-05
7.01724e-05
5.64263e-05
3.30079e-05
1.66093e-05
1.4567e-05
4.84027e-05
1.45755e-05
4.80729e-05
3.35435e-05
5.59386e-05
7.01509e-05
5.55459e-05
7.01736e-05
3.27289e-05
1.46027e-05
4.75457e-05
1.65337e-05
3.2181e-05
1.45856e-05
4.78908e-05
5.59432e-05
7.01481e-05
5.55438e-05
7.01708e-05
3.30069e-05
1.66079e-05
4.84012e-05
1.45666e-05
4.8066e-05
1.45752e-05
3.35415e-05
5.60575e-05
7.01955e-05
7.01743e-05
5.64182e-05
3.30074e-05
1.66085e-05
1.45668e-05
4.8398e-05
1.45753e-05
4.80693e-05
3.35419e-05
5.60558e-05
7.01928e-05
7.01717e-05
5.64229e-05
6.02981e-05
6.02935e-05
1.95934e-05
6.04764e-05
6.04727e-05
6.94926e-05
6.94763e-05
6.9447e-05
6.94624e-05
1.97727e-05
6.07351e-05
6.07308e-05
6.05661e-05
6.05614e-05
6.94458e-05
6.94612e-05
3.27289e-05
1.46031e-05
4.7548e-05
1.65345e-05
3.21869e-05
1.45861e-05
4.78966e-05
5.59405e-05
7.01518e-05
5.55477e-05
7.01745e-05
5.59396e-05
7.01494e-05
5.55469e-05
7.01721e-05
3.30097e-05
1.66083e-05
1.45667e-05
4.84038e-05
1.45752e-05
4.80673e-05
3.35435e-05
3.301e-05
1.66092e-05
1.45673e-05
4.84047e-05
1.45758e-05
4.80714e-05
3.35412e-05
5.60586e-05
7.01964e-05
7.01752e-05
5.64196e-05
5.60578e-05
7.01941e-05
7.01729e-05
5.64187e-05
6.9492e-05
6.94757e-05
6.94943e-05
6.94779e-05
1.97594e-05
6.07265e-05
6.07363e-05
6.05573e-05
6.05661e-05
6.94453e-05
6.94606e-05
6.94475e-05
6.94628e-05
6.94311e-05
6.94166e-05
6.94334e-05
6.9419e-05
6.08149e-05
6.08248e-05
2.04094e-05
6.09762e-05
6.09855e-05
6.93892e-05
6.94026e-05
6.93915e-05
6.94049e-05
2.06084e-05
6.1209e-05
6.12185e-05
6.10559e-05
6.10656e-05
5.68634e-05
7.01941e-05
5.65209e-05
7.02143e-05
3.43373e-05
4.85679e-05
1.45657e-05
1.6865e-05
3.38185e-05
4.8887e-05
1.45674e-05
3.43361e-05
4.85697e-05
1.45656e-05
1.68653e-05
3.38173e-05
4.88898e-05
1.45673e-05
5.69489e-05
7.02363e-05
7.02178e-05
5.72654e-05
5.69477e-05
7.02325e-05
7.02146e-05
5.72644e-05
3.46058e-05
1.69611e-05
4.93517e-05
1.4582e-05
4.90471e-05
1.45722e-05
3.5112e-05
3.46052e-05
1.69613e-05
4.9354e-05
1.45819e-05
4.90487e-05
1.45721e-05
3.51104e-05
6.08192e-05
6.08135e-05
2.04079e-05
6.09806e-05
6.09733e-05
6.94306e-05
6.94164e-05
6.93908e-05
6.94042e-05
2.06067e-05
6.12131e-05
6.12051e-05
6.10603e-05
6.10539e-05
6.93888e-05
6.9402e-05
3.43396e-05
4.85734e-05
1.45662e-05
1.68651e-05
3.38149e-05
4.88895e-05
1.45679e-05
5.68641e-05
7.0194e-05
5.65201e-05
7.02141e-05
3.43382e-05
1.45656e-05
4.85719e-05
1.68656e-05
3.38154e-05
1.45673e-05
4.88874e-05
5.69482e-05
7.02377e-05
7.02191e-05
5.72663e-05
3.46032e-05
1.69611e-05
4.93537e-05
1.45826e-05
4.90518e-05
1.45727e-05
3.51142e-05
5.69469e-05
7.02331e-05
7.02144e-05
5.72649e-05
3.46031e-05
1.69617e-05
1.45819e-05
4.93528e-05
1.45721e-05
4.90501e-05
3.51118e-05
5.68562e-05
7.01959e-05
5.65245e-05
7.02157e-05
3.43376e-05
1.45654e-05
4.85688e-05
1.6865e-05
3.3816e-05
1.45671e-05
4.88861e-05
5.68612e-05
7.01934e-05
5.65228e-05
7.02135e-05
3.46027e-05
1.69599e-05
4.93513e-05
1.45815e-05
4.90448e-05
1.45716e-05
3.5113e-05
5.69508e-05
7.02345e-05
7.0216e-05
5.72574e-05
3.46033e-05
1.6961e-05
1.45817e-05
4.93506e-05
1.45719e-05
4.9045e-05
3.51123e-05
5.69496e-05
7.02324e-05
7.02139e-05
5.72624e-05
6.08195e-05
6.0815e-05
2.04099e-05
6.09799e-05
6.09757e-05
6.94312e-05
6.94168e-05
6.93905e-05
6.94039e-05
2.06076e-05
6.12128e-05
6.1208e-05
6.10601e-05
6.1056e-05
6.93893e-05
6.94027e-05
3.43369e-05
1.45658e-05
4.85703e-05
1.68657e-05
3.38175e-05
1.45676e-05
4.88879e-05
5.68573e-05
7.01969e-05
5.65248e-05
7.02171e-05
5.68565e-05
7.01946e-05
5.65239e-05
7.02148e-05
3.46052e-05
1.69603e-05
1.45816e-05
4.93524e-05
1.45718e-05
4.90449e-05
3.51109e-05
3.46048e-05
1.69614e-05
1.45823e-05
4.93514e-05
1.45724e-05
4.90495e-05
3.51092e-05
5.69508e-05
7.02359e-05
7.02174e-05
5.72583e-05
5.695e-05
7.02336e-05
7.02151e-05
5.72574e-05
6.94307e-05
6.94163e-05
6.94329e-05
6.94184e-05
2.05925e-05
6.12048e-05
6.1214e-05
6.10519e-05
6.10601e-05
6.93889e-05
6.94023e-05
6.93909e-05
6.94044e-05
6.93756e-05
6.93631e-05
6.93779e-05
6.93654e-05
6.12841e-05
6.1294e-05
2.13012e-05
6.14301e-05
6.14393e-05
6.93384e-05
6.93499e-05
6.93406e-05
6.93522e-05
2.15182e-05
6.16411e-05
6.16495e-05
6.15016e-05
6.15113e-05
5.76325e-05
7.02332e-05
5.73388e-05
7.02512e-05
3.58619e-05
4.95039e-05
1.45965e-05
1.72793e-05
3.5372e-05
4.97967e-05
1.46148e-05
3.58613e-05
4.95059e-05
1.45964e-05
1.72796e-05
3.53713e-05
4.97983e-05
1.46148e-05
5.76996e-05
7.02706e-05
7.02543e-05
5.79729e-05
5.76983e-05
7.02675e-05
7.02513e-05
5.79716e-05
3.61152e-05
1.73956e-05
5.02231e-05
1.46649e-05
4.99417e-05
1.46379e-05
3.65896e-05
3.6114e-05
1.73958e-05
5.02238e-05
1.46648e-05
4.9944e-05
1.46379e-05
3.65886e-05
6.12887e-05
6.12818e-05
2.13001e-05
6.14342e-05
6.14257e-05
6.93748e-05
6.93625e-05
6.934e-05
6.93515e-05
2.15162e-05
6.16448e-05
6.16358e-05
6.15061e-05
6.1499e-05
6.93376e-05
6.93489e-05
3.58641e-05
4.95089e-05
1.4597e-05
1.72791e-05
3.53687e-05
4.97978e-05
1.46154e-05
5.76329e-05
7.02335e-05
5.73379e-05
7.02507e-05
3.58618e-05
1.45965e-05
4.9507e-05
1.72801e-05
3.53692e-05
1.46148e-05
4.97967e-05
5.76989e-05
7.02719e-05
7.02557e-05
5.79733e-05
3.61123e-05
1.73954e-05
5.02241e-05
1.46655e-05
4.99467e-05
1.46385e-05
3.65912e-05
5.76974e-05
7.02673e-05
7.0251e-05
5.79719e-05
3.61125e-05
1.73963e-05
1.46649e-05
5.02221e-05
1.4638e-05
4.99451e-05
3.65889e-05
5.76259e-05
7.0235e-05
5.73414e-05
7.02523e-05
3.58643e-05
1.45963e-05
4.95024e-05
1.72796e-05
3.53691e-05
1.46146e-05
4.9796e-05
5.76308e-05
7.02331e-05
5.73405e-05
7.02501e-05
3.611e-05
1.7394e-05
5.02192e-05
1.46643e-05
4.99389e-05
1.46372e-05
3.65899e-05
5.77004e-05
7.02684e-05
7.02525e-05
5.79653e-05
3.61111e-05
1.73957e-05
1.46647e-05
5.02218e-05
1.46377e-05
4.99404e-05
3.65907e-05
5.76997e-05
7.02665e-05
7.02508e-05
5.79701e-05
6.12889e-05
6.1284e-05
2.13017e-05
6.14339e-05
6.14288e-05
6.93757e-05
6.93631e-05
6.93397e-05
6.93512e-05
2.15171e-05
6.16444e-05
6.16394e-05
6.15062e-05
6.15016e-05
6.93384e-05
6.93499e-05
3.58597e-05
1.45968e-05
4.95067e-05
1.728e-05
3.53712e-05
1.46152e-05
4.97969e-05
5.76266e-05
7.02366e-05
5.73412e-05
7.02536e-05
5.76258e-05
7.02341e-05
5.73404e-05
7.02516e-05
3.61131e-05
1.73945e-05
1.46645e-05
5.02234e-05
1.46375e-05
4.99408e-05
3.65889e-05
3.61137e-05
1.7396e-05
1.46653e-05
5.02228e-05
1.46383e-05
4.99445e-05
3.65869e-05
5.77e-05
7.02703e-05
7.0254e-05
5.7966e-05
5.76992e-05
7.0268e-05
7.0252e-05
5.79652e-05
6.93753e-05
6.93629e-05
6.93773e-05
6.93648e-05
2.15006e-05
6.1637e-05
6.16453e-05
6.1498e-05
6.15059e-05
6.93382e-05
6.93496e-05
6.93401e-05
6.93516e-05
6.93256e-05
6.9315e-05
6.93278e-05
6.93172e-05
6.17093e-05
6.17183e-05
2.22561e-05
6.18416e-05
6.18502e-05
6.9293e-05
6.93026e-05
6.92951e-05
6.93048e-05
2.24885e-05
6.20337e-05
6.2042e-05
6.19071e-05
6.19161e-05