/*--------------------------------*- C++ -*----------------------------------*\
| =========                 |                                                 |
| \\      /  F ield         | OpenFOAM: The Open Source CFD Toolbox           |
|  \\    /   O peration     | Version:  2312                                  |
|   \\  /    A nd           | Website:  www.openfoam.com                      |
|    \\/     M anipulation  |                                                 |
\*---------------------------------------------------------------------------*/
FoamFile
{
    version     2.0;
    format      ascii;
    arch        "LSB;label=32;scalar=64";
    class       volVectorField;
    location    "700";
    object      U;
}
// * * * * * * * * * * * * * * * * * * * * * * * * * * * * * * * * * * * * * //

dimensions      [0 1 -1 0 0 0 0];

internalField   nonuniform List<vector> 
42840
(
(5.98094e-05 5.97713e-05 0.109207)
(-8.96405e-05 5.58088e-05 0.108145)
(5.5754e-05 -8.97203e-05 0.108144)
(-0.000142271 -0.000142281 0.106657)
(5.85498e-05 5.85265e-05 0.109495)
(-8.74014e-05 5.45794e-05 0.108304)
(5.45226e-05 -8.743e-05 0.108303)
(-0.000138009 -0.000137966 0.106656)
(5.72997e-05 5.72957e-05 0.109774)
(-8.50226e-05 5.33137e-05 0.108444)
(5.32619e-05 -8.50202e-05 0.108444)
(-0.000133362 -0.000133303 0.106632)
(5.59871e-05 5.59979e-05 0.110044)
(-8.24887e-05 5.19951e-05 0.108566)
(5.19461e-05 -8.24507e-05 0.108565)
(-0.000128521 -0.000128455 0.106589)
(5.46249e-05 5.4641e-05 0.110303)
(-7.98199e-05 5.05816e-05 0.108669)
(5.0527e-05 -7.97668e-05 0.108669)
(-0.000123429 -0.000123396 0.106528)
(5.32145e-05 5.32309e-05 0.110553)
(-7.69798e-05 4.90329e-05 0.108754)
(4.90007e-05 -7.69329e-05 0.108754)
(-0.000118218 -0.000118197 0.106454)
(5.17882e-05 5.1793e-05 0.110792)
(-7.40136e-05 4.73259e-05 0.108822)
(4.72927e-05 -7.39759e-05 0.108821)
(-0.000112876 -0.000112892 0.106368)
(5.03376e-05 5.03372e-05 0.111021)
(-7.09107e-05 4.55198e-05 0.108872)
(4.54713e-05 -7.08885e-05 0.108872)
(-0.00010759 -0.000107623 0.106274)
(4.88562e-05 4.88509e-05 0.111238)
(-6.77206e-05 4.35969e-05 0.108908)
(4.35434e-05 -6.77223e-05 0.108907)
(-0.000102401 -0.000102452 0.106175)
(4.73771e-05 4.73646e-05 0.111445)
(-6.44694e-05 4.15792e-05 0.108928)
(4.15406e-05 -6.44676e-05 0.108927)
(-9.72951e-05 -9.7339e-05 0.106072)
(4.58936e-05 4.58722e-05 0.11164)
(-6.11844e-05 3.94907e-05 0.108935)
(3.94504e-05 -6.11775e-05 0.108935)
(-9.23624e-05 -9.23936e-05 0.105969)
(4.44269e-05 4.44054e-05 0.111823)
(-5.78884e-05 3.73344e-05 0.10893)
(3.73074e-05 -5.78767e-05 0.10893)
(-8.76396e-05 -8.76563e-05 0.105865)
(4.29643e-05 4.29374e-05 0.111993)
(-5.46005e-05 3.51207e-05 0.108915)
(3.50896e-05 -5.45835e-05 0.108914)
(-8.31563e-05 -8.31809e-05 0.105763)
(4.15067e-05 4.14802e-05 0.112152)
(-5.13349e-05 3.28802e-05 0.10889)
(3.28411e-05 -5.13223e-05 0.108889)
(-7.88759e-05 -7.89126e-05 0.105663)
(4.0046e-05 4.00257e-05 0.112299)
(-4.8101e-05 3.06261e-05 0.108857)
(3.05911e-05 -4.80931e-05 0.108856)
(-7.48428e-05 -7.48775e-05 0.105565)
(3.85729e-05 3.85544e-05 0.112433)
(-4.49172e-05 2.83818e-05 0.108817)
(2.83544e-05 -4.49103e-05 0.108816)
(-7.10346e-05 -7.10795e-05 0.105471)
(3.70859e-05 3.70663e-05 0.112554)
(-4.17945e-05 2.61619e-05 0.108772)
(2.61547e-05 -4.17886e-05 0.108771)
(-6.74419e-05 -6.74826e-05 0.10538)
(3.55581e-05 3.55525e-05 0.112664)
(-3.87398e-05 2.40098e-05 0.108722)
(2.3997e-05 -3.87253e-05 0.108721)
(-6.40629e-05 -6.40855e-05 0.105293)
(3.40185e-05 3.4016e-05 0.112761)
(-3.57532e-05 2.19247e-05 0.108669)
(2.19161e-05 -3.57312e-05 0.108668)
(-6.09364e-05 -6.09384e-05 0.105209)
(3.24421e-05 3.24471e-05 0.112847)
(-3.28291e-05 1.99027e-05 0.108613)
(1.98981e-05 -3.28016e-05 0.108612)
(-5.79896e-05 -5.79922e-05 0.10513)
(3.08414e-05 3.08434e-05 0.112922)
(-2.99866e-05 1.79794e-05 0.108556)
(1.79851e-05 -2.99586e-05 0.108555)
(-5.52011e-05 -5.52095e-05 0.105054)
(2.91992e-05 2.91977e-05 0.112985)
(-2.72278e-05 1.61384e-05 0.108498)
(1.61626e-05 -2.72009e-05 0.108497)
(-5.26303e-05 -5.26451e-05 0.104982)
(2.75274e-05 2.7519e-05 0.113038)
(-2.45531e-05 1.44125e-05 0.10844)
(1.44355e-05 -2.45366e-05 0.108439)
(-5.02294e-05 -5.02609e-05 0.104913)
(2.58154e-05 2.58064e-05 0.113081)
(-2.19886e-05 1.27896e-05 0.108382)
(1.28048e-05 -2.19656e-05 0.108381)
(-4.79801e-05 -4.80293e-05 0.104849)
(2.40707e-05 2.40628e-05 0.113115)
(-1.95126e-05 1.12479e-05 0.108325)
(1.12793e-05 -1.94979e-05 0.108324)
(-4.59398e-05 -4.59885e-05 0.104788)
(0.000142283 0.000142229 0.106657)
(4.35025e-06 4.38648e-06 0.106843)
(5.59688e-05 8.97424e-05 0.108144)
(-5.59915e-05 8.97392e-05 0.108144)
(5.50475e-05 8.80459e-05 0.108265)
(-5.50828e-05 8.80281e-05 0.108265)
(-0.000142323 0.000142272 0.106658)
(-4.38133e-06 4.38689e-06 0.106843)
(8.97355e-05 5.58213e-05 0.108144)
(8.97094e-05 -5.59681e-05 0.108144)
(8.80228e-05 5.49045e-05 0.108265)
(8.80055e-05 -5.50452e-05 0.108265)
(-8.95044e-05 -5.58725e-05 0.108144)
(-8.79649e-05 5.48968e-05 0.108266)
(-8.78326e-05 -5.4949e-05 0.108265)
(0.000142271 -0.000142336 0.106657)
(4.39699e-06 -4.3189e-06 0.106842)
(-5.579e-05 -8.97483e-05 0.108144)
(5.48342e-05 -8.80051e-05 0.108265)
(-5.48951e-05 -8.80379e-05 0.108265)
(-4.43115e-06 -4.31095e-06 0.106842)
(0.000138005 0.000137963 0.106656)
(1.80185e-06 1.8537e-06 0.106831)
(5.47246e-05 8.74697e-05 0.108303)
(-5.47727e-05 8.74546e-05 0.108303)
(5.37796e-05 8.57127e-05 0.10841)
(-5.38119e-05 8.5674e-05 0.10841)
(-0.000138033 0.000137971 0.106656)
(-1.83434e-06 1.84856e-06 0.106831)
(8.74423e-05 5.45842e-05 0.108303)
(8.74247e-05 -5.47301e-05 0.108303)
(8.56684e-05 5.36513e-05 0.108411)
(8.56424e-05 -5.37892e-05 0.108409)
(-8.72645e-05 -5.46333e-05 0.108303)
(-8.56319e-05 5.36327e-05 0.108411)
(-8.54978e-05 -5.36713e-05 0.10841)
(0.000137981 -0.000138053 0.106656)
(1.87979e-06 -1.74126e-06 0.106831)
(-5.45904e-05 -8.74574e-05 0.108303)
(5.35806e-05 -8.56341e-05 0.108411)
(-5.36435e-05 -8.5654e-05 0.10841)
(-1.89289e-06 -1.75681e-06 0.10683)
(0.000133369 0.00013335 0.106633)
(-6.75885e-07 -6.14666e-07 0.106798)
(5.34615e-05 8.50995e-05 0.108443)
(-5.34972e-05 8.50645e-05 0.108443)
(5.24814e-05 8.32018e-05 0.108536)
(-5.25146e-05 8.31621e-05 0.108536)
(-0.000133411 0.000133362 0.106633)
(6.49375e-07 -6.32636e-07 0.106798)
(8.50518e-05 5.33364e-05 0.108444)
(8.50295e-05 -5.34671e-05 0.108443)
(8.31402e-05 5.23726e-05 0.108537)
(8.31198e-05 -5.24804e-05 0.108536)
(-8.48923e-05 -5.33559e-05 0.108443)
(-8.31286e-05 5.2341e-05 0.108537)
(-8.30053e-05 -5.23604e-05 0.108536)
(0.000133387 -0.000133395 0.106633)
(-5.98275e-07 7.35124e-07 0.106797)
(-5.33333e-05 -8.50422e-05 0.108443)
(5.22809e-05 -8.30984e-05 0.108537)
(-5.2351e-05 -8.3119e-05 0.108536)
(5.94152e-07 7.33176e-07 0.106797)
(0.000128511 0.000128509 0.106589)
(-3.15614e-06 -3.09779e-06 0.106745)
(5.21416e-05 8.25585e-05 0.108565)
(-5.21736e-05 8.25158e-05 0.108564)
(5.10844e-05 8.05761e-05 0.108644)
(-5.11085e-05 8.0525e-05 0.108643)
(-0.000128544 0.000128506 0.106589)
(3.14141e-06 -3.10517e-06 0.106745)
(8.24945e-05 5.20342e-05 0.108565)
(8.24649e-05 -5.21393e-05 0.108564)
(8.04969e-05 5.09894e-05 0.108645)
(8.04625e-05 -5.10737e-05 0.108643)
(-8.23661e-05 -5.2024e-05 0.108565)
(-8.05016e-05 5.09479e-05 0.108645)
(-8.03847e-05 -5.09667e-05 0.108644)
(0.00012853 -0.000128531 0.106589)
(-3.09768e-06 3.23015e-06 0.106745)
(-5.20167e-05 -8.24633e-05 0.108565)
(5.08901e-05 -8.04481e-05 0.108645)
(-5.09624e-05 -8.04539e-05 0.108644)
(3.10098e-06 3.20243e-06 0.106744)
(0.000123463 0.000123455 0.106529)
(-5.68215e-06 -5.604e-06 0.106677)
(5.07211e-05 7.98903e-05 0.108668)
(-5.0745e-05 7.98405e-05 0.108667)
(4.95801e-05 7.77787e-05 0.108733)
(-4.95995e-05 7.77224e-05 0.108733)
(-0.000123449 0.00012343 0.106529)
(5.67381e-06 -5.60375e-06 0.106677)
(7.98129e-05 5.06259e-05 0.108669)
(7.97779e-05 -5.07023e-05 0.108667)
(7.76954e-05 4.94823e-05 0.108734)
(7.76582e-05 -4.95674e-05 0.108733)
(-7.97036e-05 -5.06091e-05 0.108668)
(-7.77019e-05 4.94442e-05 0.108734)
(-7.75896e-05 -4.94773e-05 0.108733)
(0.000123454 -0.000123452 0.106529)
(-5.6054e-06 5.73571e-06 0.106676)
(-5.0602e-05 -7.97698e-05 0.108668)
(4.94016e-05 -7.7649e-05 0.108734)
(-4.94528e-05 -7.76576e-05 0.108733)
(5.62275e-06 5.71576e-06 0.106676)
(0.000118219 0.000118216 0.106454)
(-8.22075e-06 -8.16607e-06 0.106596)
(4.91768e-05 7.70584e-05 0.108753)
(-4.91927e-05 7.69999e-05 0.108752)
(4.79131e-05 7.48452e-05 0.108805)
(-4.79113e-05 7.47798e-05 0.108804)
(-0.000118222 0.000118227 0.106454)
(8.23761e-06 -8.17815e-06 0.106596)
(7.69762e-05 4.90778e-05 0.108754)
(7.69325e-05 -4.91762e-05 0.108752)
(7.47674e-05 4.78086e-05 0.108806)
(7.47141e-05 -4.79004e-05 0.108804)
(-7.6868e-05 -4.90739e-05 0.108752)
(-7.47608e-05 4.77639e-05 0.108806)
(-7.46541e-05 -4.78139e-05 0.108805)
(0.000118217 -0.000118229 0.106454)
(-8.17033e-06 8.27108e-06 0.106595)
(-4.90432e-05 -7.69386e-05 0.108753)
(4.7725e-05 -7.47221e-05 0.108806)
(-4.77612e-05 -7.47311e-05 0.108805)
(8.22914e-06 8.27586e-06 0.106594)
(0.000112936 0.000112926 0.106368)
(-1.07338e-05 -1.06958e-05 0.106505)
(4.74774e-05 7.40884e-05 0.10882)
(-4.74703e-05 7.40292e-05 0.10882)
(4.61292e-05 7.1773e-05 0.10886)
(-4.61189e-05 7.17153e-05 0.108859)
(-0.000112897 0.000112897 0.106368)
(1.07588e-05 -1.07032e-05 0.106505)
(7.40128e-05 4.73679e-05 0.108821)
(7.39642e-05 -4.74632e-05 0.10882)
(7.17081e-05 4.60192e-05 0.108861)
(7.16541e-05 -4.61276e-05 0.108859)
(-7.39002e-05 -4.73783e-05 0.10882)
(-7.1691e-05 4.59891e-05 0.108861)
(-7.1585e-05 -4.60473e-05 0.108859)
(0.000112916 -0.000112942 0.106368)
(-1.07303e-05 1.08074e-05 0.106504)
(-4.73366e-05 -7.39826e-05 0.10882)
(4.59452e-05 -7.16686e-05 0.108861)
(-4.5975e-05 -7.16664e-05 0.10886)
(1.07521e-05 1.07766e-05 0.106504)
(0.000107629 0.00010761 0.106275)
(-1.32148e-05 -1.31874e-05 0.106407)
(4.56654e-05 7.09878e-05 0.108871)
(-4.56582e-05 7.09322e-05 0.10887)
(4.42317e-05 6.86042e-05 0.108899)
(-4.42208e-05 6.85464e-05 0.108898)
(-0.000107619 0.000107617 0.106275)
(1.32445e-05 -1.31925e-05 0.106407)
(7.09291e-05 4.55526e-05 0.108872)
(7.08706e-05 -4.56522e-05 0.10887)
(6.85505e-05 4.41252e-05 0.1089)
(6.84943e-05 -4.42259e-05 0.108898)
(-7.08037e-05 -4.5583e-05 0.10887)
(-6.85224e-05 4.4089e-05 0.1089)
(-6.84281e-05 -4.41683e-05 0.108898)
(0.000107613 -0.000107655 0.106275)
(-1.32205e-05 1.32552e-05 0.106407)
(-4.55133e-05 -7.08891e-05 0.108871)
(4.40326e-05 -6.85177e-05 0.1089)
(-4.40765e-05 -6.85266e-05 0.108899)
(1.32907e-05 1.32912e-05 0.106406)
(0.000102411 0.000102383 0.106175)
(-1.56482e-05 -1.56422e-05 0.106305)
(4.37409e-05 6.7799e-05 0.108906)
(-4.37316e-05 6.77435e-05 0.108905)
(4.22353e-05 6.53539e-05 0.108922)
(-4.22302e-05 6.53074e-05 0.108922)
(-0.000102392 0.000102389 0.106175)
(1.56675e-05 -1.56368e-05 0.106305)
(6.77454e-05 4.3634e-05 0.108907)
(6.76842e-05 -4.37399e-05 0.108905)
(6.531e-05 4.21269e-05 0.108924)
(6.52481e-05 -4.22307e-05 0.108922)
(-6.76231e-05 -4.36804e-05 0.108905)
(-6.52808e-05 4.20936e-05 0.108924)
(-6.51955e-05 -4.2185e-05 0.108922)
(0.000102376 -0.00010245 0.106175)
(-1.56521e-05 1.56841e-05 0.106304)
(-4.35887e-05 -6.77208e-05 0.108906)
(4.20512e-05 -6.52852e-05 0.108924)
(-4.20923e-05 -6.5293e-05 0.108923)
(1.57013e-05 1.57039e-05 0.106304)
(9.73294e-05 9.72821e-05 0.106073)
(-1.79879e-05 -1.79907e-05 0.1062)
(4.17233e-05 6.45331e-05 0.108926)
(-4.17229e-05 6.44852e-05 0.108926)
(4.01695e-05 6.20681e-05 0.108933)
(-4.01612e-05 6.20162e-05 0.108932)
(-9.73226e-05 9.73004e-05 0.106073)
(1.80336e-05 -1.80073e-05 0.1062)
(6.44905e-05 4.16109e-05 0.108927)
(6.44293e-05 -4.17162e-05 0.108926)
(6.20316e-05 4.00468e-05 0.108934)
(6.19712e-05 -4.01552e-05 0.108932)
(-6.43773e-05 -4.16703e-05 0.108926)
(-6.20004e-05 4.00235e-05 0.108934)
(-6.19221e-05 -4.01127e-05 0.108932)
(9.72985e-05 -9.73663e-05 0.106073)
(-1.80289e-05 1.80731e-05 0.1062)
(-4.15889e-05 -6.44751e-05 0.108926)
(3.99825e-05 -6.1998e-05 0.108934)
(-4.00208e-05 -6.20066e-05 0.108933)
(1.80428e-05 1.80547e-05 0.106199)
(9.24089e-05 9.23598e-05 0.105969)
(-2.02426e-05 -2.02459e-05 0.106095)
(3.96385e-05 6.12425e-05 0.108933)
(-3.963e-05 6.11915e-05 0.108933)
(3.80248e-05 5.87612e-05 0.108931)
(-3.80126e-05 5.87172e-05 0.10893)
(-9.23921e-05 9.23686e-05 0.105969)
(2.02756e-05 -2.02529e-05 0.106095)
(6.12056e-05 3.9515e-05 0.108934)
(6.11498e-05 -3.96214e-05 0.108933)
(5.87295e-05 3.78933e-05 0.108932)
(5.86805e-05 -3.80137e-05 0.10893)
(-6.10989e-05 -3.95796e-05 0.108933)
(-5.87031e-05 3.78839e-05 0.108932)
(-5.86251e-05 -3.7949e-05 0.10893)
(9.23821e-05 -9.24381e-05 0.105969)
(-2.02832e-05 2.03276e-05 0.106095)
(-3.94988e-05 -6.11846e-05 0.108934)
(3.78496e-05 -5.86985e-05 0.108932)
(-3.78808e-05 -5.87056e-05 0.108931)
(2.0268e-05 2.02911e-05 0.106094)
(8.76749e-05 8.76268e-05 0.105865)
(-2.23555e-05 -2.23658e-05 0.105991)
(3.74776e-05 5.79386e-05 0.108928)
(-3.7464e-05 5.78945e-05 0.108928)
(3.58229e-05 5.54676e-05 0.108917)
(-3.58055e-05 5.54291e-05 0.108917)
(-8.76573e-05 8.76331e-05 0.105866)
(2.23941e-05 -2.23688e-05 0.105991)
(5.79062e-05 3.73461e-05 0.108929)
(5.78569e-05 -3.74612e-05 0.108928)
(5.54409e-05 3.56912e-05 0.108919)
(5.53897e-05 -3.57983e-05 0.108917)
(-5.78031e-05 -3.73921e-05 0.108928)
(-5.54123e-05 3.56856e-05 0.108919)
(-5.53423e-05 -3.57411e-05 0.108917)
(8.76676e-05 -8.77187e-05 0.105865)
(-2.2372e-05 2.2414e-05 0.10599)
(-3.73378e-05 -5.78879e-05 0.108929)
(3.56504e-05 -5.54017e-05 0.108919)
(-3.56788e-05 -5.54209e-05 0.108918)
(2.23496e-05 2.23672e-05 0.105989)
(8.31923e-05 8.3139e-05 0.105763)
(-2.43189e-05 -2.43227e-05 0.105887)
(3.52624e-05 5.4648e-05 0.108913)
(-3.52468e-05 5.46095e-05 0.108912)
(3.35794e-05 5.21969e-05 0.108895)
(-3.35542e-05 5.21561e-05 0.108894)
(-8.31605e-05 8.3141e-05 0.105763)
(2.43438e-05 -2.43175e-05 0.105888)
(5.46204e-05 3.51319e-05 0.108914)
(5.45696e-05 -3.52371e-05 0.108912)
(5.21751e-05 3.34597e-05 0.108896)
(5.21195e-05 -3.35545e-05 0.108894)
(-5.45234e-05 -3.51845e-05 0.108912)
(-5.21388e-05 3.3441e-05 0.108897)
(-5.20758e-05 -3.35048e-05 0.108894)
(8.31551e-05 -8.3208e-05 0.105763)
(-2.43607e-05 2.43923e-05 0.105887)
(-3.51231e-05 -5.46046e-05 0.108913)
(3.34106e-05 -5.21334e-05 0.108896)
(-3.34364e-05 -5.21552e-05 0.108895)
(2.43422e-05 2.43479e-05 0.105886)
(7.89047e-05 7.88604e-05 0.105663)
(-2.61338e-05 -2.61361e-05 0.105787)
(3.30142e-05 5.13864e-05 0.108888)
(-3.29943e-05 5.13481e-05 0.108887)
(3.13097e-05 4.89541e-05 0.108863)
(-3.12941e-05 4.89196e-05 0.108863)
(-7.88875e-05 7.88693e-05 0.105663)
(2.61788e-05 -2.6149e-05 0.105787)
(5.13653e-05 3.28916e-05 0.108889)
(5.13077e-05 -3.29895e-05 0.108887)
(4.89402e-05 3.1202e-05 0.108865)
(4.88758e-05 -3.1294e-05 0.108863)
(-5.12627e-05 -3.29446e-05 0.108887)
(-4.89146e-05 3.11875e-05 0.108866)
(-4.88355e-05 -3.12513e-05 0.108863)
(7.88924e-05 -7.89542e-05 0.105663)
(-2.61517e-05 2.6176e-05 0.105786)
(-3.28724e-05 -5.13451e-05 0.108888)
(3.11545e-05 -4.88948e-05 0.108865)
(-3.11889e-05 -4.89254e-05 0.108864)
(2.61673e-05 2.61705e-05 0.105785)
(7.48575e-05 7.48168e-05 0.105565)
(-2.78262e-05 -2.78282e-05 0.105689)
(3.07415e-05 4.81507e-05 0.108854)
(-3.07237e-05 4.81197e-05 0.108854)
(2.90532e-05 4.57595e-05 0.108825)
(-2.90387e-05 4.57212e-05 0.108825)
(-7.4859e-05 7.48445e-05 0.105566)
(2.78522e-05 -2.78271e-05 0.105689)
(4.81385e-05 3.06395e-05 0.108856)
(4.80723e-05 -3.07267e-05 0.108854)
(4.5742e-05 2.89523e-05 0.108827)
(4.56763e-05 -2.90339e-05 0.108824)
(-4.80348e-05 -3.06802e-05 0.108854)
(-4.57215e-05 2.89359e-05 0.108827)
(-4.56504e-05 -2.90117e-05 0.108825)
(7.48358e-05 -7.48999e-05 0.105565)
(-2.78196e-05 2.78426e-05 0.105688)
(-3.06215e-05 -4.81248e-05 0.108855)
(2.89052e-05 -4.56998e-05 0.108827)
(-2.89374e-05 -4.57322e-05 0.108826)
(2.7831e-05 2.78177e-05 0.105687)
(7.10466e-05 7.10067e-05 0.105471)
(-2.93822e-05 -2.93867e-05 0.105594)
(2.84984e-05 4.49737e-05 0.108815)
(-2.84739e-05 4.49297e-05 0.108814)
(2.68385e-05 4.2617e-05 0.108781)
(-2.68108e-05 4.25734e-05 0.108781)
(-7.10276e-05 7.10052e-05 0.105472)
(2.94168e-05 -2.93991e-05 0.105594)
(4.49516e-05 2.83943e-05 0.108816)
(4.48886e-05 -2.84834e-05 0.108814)
(4.25966e-05 2.67428e-05 0.108782)
(4.25421e-05 -2.6819e-05 0.10878)
(-4.48577e-05 -2.84574e-05 0.108814)
(-4.25775e-05 2.67131e-05 0.108783)
(-4.25057e-05 -2.67911e-05 0.10878)
(7.1021e-05 -7.10809e-05 0.105471)
(-2.94085e-05 2.94302e-05 0.105593)
(-2.83823e-05 -4.49409e-05 0.108815)
(2.66936e-05 -4.25604e-05 0.108783)
(-2.67219e-05 -4.25857e-05 0.108782)
(2.94097e-05 2.93983e-05 0.105592)
(6.74806e-05 6.7441e-05 0.10538)
(-3.08217e-05 -3.08146e-05 0.105502)
(2.62878e-05 4.18416e-05 0.108769)
(-2.6268e-05 4.17977e-05 0.108769)
(2.46561e-05 3.95296e-05 0.108732)
(-2.46543e-05 3.94908e-05 0.108732)
(-6.74593e-05 6.74213e-05 0.105381)
(3.084e-05 -3.08443e-05 0.105503)
(4.18185e-05 2.61941e-05 0.108771)
(4.17708e-05 -2.6279e-05 0.108768)
(3.95099e-05 2.45691e-05 0.108734)
(3.94638e-05 -2.46461e-05 0.108731)
(-4.1731e-05 -2.62432e-05 0.108769)
(-3.9503e-05 2.45399e-05 0.108735)
(-3.94322e-05 -2.46171e-05 0.108732)
(6.74217e-05 -6.74822e-05 0.10538)
(-3.08332e-05 3.08576e-05 0.105502)
(-2.61779e-05 -4.18097e-05 0.10877)
(2.45312e-05 -3.94852e-05 0.108734)
(-2.45602e-05 -3.95038e-05 0.108733)
(3.08328e-05 3.08364e-05 0.105501)
(6.40984e-05 6.40742e-05 0.105293)
(-3.21247e-05 -3.21199e-05 0.105414)
(2.41155e-05 3.87668e-05 0.10872)
(-2.41243e-05 3.87312e-05 0.108719)
(2.25274e-05 3.65159e-05 0.10868)
(-2.25435e-05 3.64742e-05 0.108679)
(-6.40945e-05 6.40286e-05 0.105294)
(3.2095e-05 -3.2138e-05 0.105415)
(3.87419e-05 2.40301e-05 0.108721)
(3.87033e-05 -2.41087e-05 0.108719)
(3.64825e-05 2.24498e-05 0.108682)
(3.64503e-05 -2.25306e-05 0.108679)
(-3.86764e-05 -2.40831e-05 0.108719)
(-3.64976e-05 2.24357e-05 0.108682)
(-3.64277e-05 -2.2497e-05 0.108679)
(6.40558e-05 -6.41078e-05 0.105293)
(-3.21592e-05 3.21947e-05 0.105414)
(-2.40308e-05 -3.87433e-05 0.10872)
(2.24309e-05 -3.64713e-05 0.108682)
(-2.24595e-05 -3.64771e-05 0.108681)
(3.21229e-05 3.2145e-05 0.105413)
(6.09152e-05 6.09065e-05 0.10521)
(-3.33449e-05 -3.33444e-05 0.10533)
(2.20072e-05 3.57769e-05 0.108666)
(-2.20304e-05 3.57396e-05 0.108666)
(2.04927e-05 3.35717e-05 0.108625)
(-2.05062e-05 3.35422e-05 0.108624)
(-6.09712e-05 6.08697e-05 0.10521)
(3.32988e-05 -3.33183e-05 0.105331)
(3.57317e-05 2.19331e-05 0.108668)
(3.57123e-05 -2.20147e-05 0.108665)
(3.35382e-05 2.04269e-05 0.108627)
(3.35183e-05 -2.04765e-05 0.108624)
(-3.56867e-05 -2.19769e-05 0.108666)
(-3.35539e-05 2.04013e-05 0.108627)
(-3.35004e-05 -2.04565e-05 0.108624)
(6.09114e-05 -6.09524e-05 0.10521)
(-3.33075e-05 3.33521e-05 0.10533)
(-2.19431e-05 -3.57309e-05 0.108667)
(2.03944e-05 -3.35256e-05 0.108627)
(-2.04191e-05 -3.35266e-05 0.108626)
(3.33199e-05 3.3342e-05 0.105329)
(5.79924e-05 5.79883e-05 0.10513)
(-3.44323e-05 -3.44354e-05 0.10525)
(1.99893e-05 3.28478e-05 0.108611)
(-2.00091e-05 3.28221e-05 0.10861)
(1.85376e-05 3.07093e-05 0.108568)
(-1.85578e-05 3.0696e-05 0.108568)
(-5.80046e-05 5.79281e-05 0.10513)
(3.44149e-05 -3.44346e-05 0.10525)
(3.28154e-05 1.99226e-05 0.108612)
(3.27969e-05 -1.99793e-05 0.10861)
(3.06776e-05 1.84766e-05 0.10857)
(3.06648e-05 -1.85229e-05 0.108567)
(-3.27759e-05 -1.99563e-05 0.10861)
(-3.0694e-05 1.84611e-05 0.10857)
(-3.06396e-05 -1.84982e-05 0.108567)
(5.79778e-05 -5.80073e-05 0.10513)
(-3.43981e-05 3.44468e-05 0.10525)
(-1.99196e-05 -3.28006e-05 0.108612)
(1.8458e-05 -3.06592e-05 0.10857)
(-1.84607e-05 -3.06595e-05 0.108569)
(3.44172e-05 3.44325e-05 0.105249)
(5.52322e-05 5.52231e-05 0.105054)
(-3.53853e-05 -3.53959e-05 0.105174)
(1.80637e-05 3.00066e-05 0.108554)
(-1.80771e-05 2.99967e-05 0.108553)
(1.66727e-05 2.79325e-05 0.10851)
(-1.6694e-05 2.79258e-05 0.10851)
(-5.526e-05 5.51859e-05 0.105054)
(3.53737e-05 -3.53958e-05 0.105174)
(2.99749e-05 1.80033e-05 0.108555)
(2.99664e-05 -1.8047e-05 0.108553)
(2.79076e-05 1.6607e-05 0.108512)
(2.78983e-05 -1.66601e-05 0.108509)
(-2.99377e-05 -1.80196e-05 0.108553)
(-2.7912e-05 1.65932e-05 0.108513)
(-2.78622e-05 -1.66345e-05 0.10851)
(5.52245e-05 -5.52497e-05 0.105054)
(-3.53643e-05 3.54159e-05 0.105173)
(-1.79822e-05 -2.99565e-05 0.108554)
(1.66114e-05 -2.78814e-05 0.108512)
(-1.6591e-05 -2.78813e-05 0.108511)
(3.53979e-05 3.5403e-05 0.105172)
(5.26863e-05 5.2671e-05 0.104982)
(-3.627e-05 -3.62875e-05 0.105101)
(1.62259e-05 2.72489e-05 0.108496)
(-1.62403e-05 2.72443e-05 0.108495)
(1.49178e-05 2.52418e-05 0.108452)
(-1.49305e-05 2.52362e-05 0.108452)
(-5.26855e-05 5.26117e-05 0.104982)
(3.62537e-05 -3.6267e-05 0.105101)
(2.72253e-05 1.61608e-05 0.108497)
(2.72193e-05 -1.62138e-05 0.108495)
(2.52206e-05 1.48486e-05 0.108454)
(2.52197e-05 -1.49021e-05 0.108451)
(-2.71827e-05 -1.61823e-05 0.108495)
(-2.52182e-05 1.48397e-05 0.108454)
(-2.51735e-05 -1.48844e-05 0.108451)
(5.26585e-05 -5.26769e-05 0.104982)
(-3.62663e-05 3.6319e-05 0.1051)
(-1.61412e-05 -2.72028e-05 0.108496)
(1.48617e-05 -2.51948e-05 0.108453)
(-1.48235e-05 -2.5197e-05 0.108453)
(3.62941e-05 3.62793e-05 0.1051)
(5.02694e-05 5.0251e-05 0.104914)
(-3.7058e-05 -3.7073e-05 0.105032)
(1.44965e-05 2.45841e-05 0.108437)
(-1.45004e-05 2.45744e-05 0.108437)
(1.32717e-05 2.26495e-05 0.108394)
(-1.3273e-05 2.2649e-05 0.108393)
(-5.02838e-05 5.02201e-05 0.104914)
(3.70444e-05 -3.70582e-05 0.105033)
(2.4563e-05 1.44274e-05 0.108439)
(2.45636e-05 -1.44774e-05 0.108436)
(2.26314e-05 1.32048e-05 0.108396)
(2.26327e-05 -1.32505e-05 0.108393)
(-2.45152e-05 -1.44617e-05 0.108437)
(-2.26242e-05 1.31895e-05 0.108396)
(-2.25826e-05 -1.32391e-05 0.108393)
(5.02505e-05 -5.02666e-05 0.104913)
(-3.70428e-05 3.7092e-05 0.105032)
(-1.44011e-05 -2.45407e-05 0.108438)
(1.32088e-05 -2.26004e-05 0.108395)
(-1.31684e-05 -2.26139e-05 0.108395)
(3.70885e-05 3.70546e-05 0.105031)
(4.80349e-05 4.80221e-05 0.104849)
(-3.776e-05 -3.77655e-05 0.104967)
(1.28699e-05 2.20167e-05 0.108379)
(-1.28764e-05 2.20174e-05 0.108379)
(1.17071e-05 2.01593e-05 0.108336)
(-1.17151e-05 2.01525e-05 0.108336)
(-4.80359e-05 4.7973e-05 0.104849)
(3.77426e-05 -3.77597e-05 0.104968)
(2.19969e-05 1.2804e-05 0.108381)
(2.19973e-05 -1.28501e-05 0.108378)
(2.01359e-05 1.16479e-05 0.108338)
(2.01413e-05 -1.16951e-05 0.108335)
(-2.19438e-05 -1.28403e-05 0.108379)
(-2.01265e-05 1.16266e-05 0.108339)
(-2.00851e-05 -1.16842e-05 0.108336)
(4.80256e-05 -4.80444e-05 0.104848)
(-3.77526e-05 3.77955e-05 0.104966)
(-1.27662e-05 -2.19758e-05 0.10838)
(1.16498e-05 -2.01079e-05 0.108338)
(-1.16024e-05 -2.01192e-05 0.108337)
(3.77816e-05 3.77458e-05 0.104966)
(4.59958e-05 4.59936e-05 0.104788)
(1.13279e-05 1.95492e-05 0.108322)
(-1.13307e-05 1.95402e-05 0.108322)
(-4.59716e-05 4.5907e-05 0.104788)
(1.95243e-05 1.12728e-05 0.108324)
(1.9531e-05 -1.13166e-05 0.108321)
(-1.94767e-05 -1.1306e-05 0.108322)
(4.59587e-05 -4.59813e-05 0.104787)
(-1.12245e-05 -1.95094e-05 0.108323)
(8.66688e-07 6.98177e-06 0.0937512)
(-1.25989e-06 3.06958e-05 0.0833541)
(-3.99645e-06 -6.01586e-06 0.0833635)
(1.559e-06 5.28583e-05 0.0937676)
(-3.51101e-06 1.42261e-05 0.0720083)
(5.39025e-06 -5.754e-06 0.0720491)
(6.96387e-06 8.68324e-07 0.0937511)
(3.06777e-05 -1.24678e-06 0.0833541)
(-6.05454e-06 -3.97466e-06 0.0833636)
(5.28439e-05 1.54845e-06 0.0937674)
(-5.98097e-05 5.97935e-05 0.109207)
(5.97761e-05 -5.98493e-05 0.109207)
(-5.97681e-05 -5.98268e-05 0.109207)
(5.88632e-05 5.88331e-05 0.109424)
(-5.88833e-05 5.88577e-05 0.109424)
(5.8825e-05 -5.89011e-05 0.109424)
(-5.88425e-05 -5.88739e-05 0.109424)
(-4.27594e-05 2.97789e-06 0.102218)
(-6.06632e-05 2.42226e-05 0.0954237)
(-0.000100176 1.95414e-05 0.108864)
(-8.90809e-05 5.55142e-05 0.108186)
(-1.79645e-05 -1.50156e-06 0.0954473)
(-9.97806e-05 1.94104e-05 0.108926)
(-0.000103768 4.82407e-06 0.102196)
(1.42168e-05 -3.50845e-06 0.0720085)
(-5.70922e-06 5.44585e-06 0.0720484)
(2.85423e-06 -4.27936e-05 0.102216)
(1.95488e-05 -0.00010027 0.108863)
(2.42577e-05 -6.06795e-05 0.0954244)
(5.54523e-05 -8.91511e-05 0.108186)
(1.94071e-05 -9.98756e-05 0.108926)
(-1.43856e-06 -1.78903e-05 0.095445)
(4.80017e-06 -0.000103872 0.102195)
(-2.98365e-05 -1.62519e-05 0.089139)
(-1.63617e-05 -2.97755e-05 0.0891383)
(-5.71815e-06 -5.62018e-06 0.106839)
(-8.89916e-06 3.6973e-06 0.0891501)
(3.54302e-06 -8.81088e-06 0.0891471)
(6.03851e-07 4.22031e-06 0.0934792)
(-1.14093e-06 2.89227e-05 0.0831547)
(1.28588e-06 4.86841e-05 0.0934881)
(-3.84247e-06 -6.76541e-06 0.0831694)
(-3.4823e-06 1.36517e-05 0.0718717)
(5.17865e-06 -5.73804e-06 0.0719153)
(4.23662e-06 6.27803e-07 0.0934791)
(2.88944e-05 -1.09792e-06 0.0831547)
(4.86617e-05 1.2948e-06 0.0934879)
(-6.80527e-06 -3.79837e-06 0.0831696)
(-5.85753e-05 5.85478e-05 0.109495)
(5.85149e-05 -5.85886e-05 0.109495)
(-5.85336e-05 -5.8559e-05 0.109495)
(5.76151e-05 5.7606e-05 0.109705)
(-5.76394e-05 5.76198e-05 0.109705)
(5.75808e-05 -5.76392e-05 0.109705)
(-5.76024e-05 -5.76135e-05 0.109705)
(-3.66284e-05 2.28523e-06 0.101946)
(-5.68501e-05 2.24347e-05 0.0951544)
(-9.86266e-05 1.90245e-05 0.109108)
(-8.68201e-05 5.42642e-05 0.108341)
(-9.68188e-05 4.04683e-06 0.101925)
(-1.46847e-05 -2.36018e-06 0.0951813)
(-9.82216e-05 1.88916e-05 0.109166)
(1.36419e-05 -3.47847e-06 0.0718718)
(-5.70617e-06 5.2531e-06 0.0719144)
(2.20503e-06 -3.66804e-05 0.101944)
(1.90167e-05 -9.86883e-05 0.109107)
(2.25047e-05 -5.68803e-05 0.0951552)
(5.42039e-05 -8.68381e-05 0.10834)
(4.08426e-06 -9.68856e-05 0.101924)
(1.8881e-05 -9.8274e-05 0.109166)
(-2.26504e-06 -1.46284e-05 0.0951794)
(-2.7934e-05 -1.53464e-05 0.08891)
(-1.54617e-05 -2.78374e-05 0.0889093)
(-3.12992e-06 -2.99641e-06 0.106839)
(-7.16968e-06 4.04931e-06 0.0889262)
(3.91895e-06 -7.07867e-06 0.0889232)
(3.8137e-07 2.22551e-06 0.0932334)
(-1.04281e-06 2.74781e-05 0.0829745)
(1.04181e-06 4.52506e-05 0.0932357)
(-3.76698e-06 -7.22926e-06 0.0829939)
(-3.48746e-06 1.31853e-05 0.0717478)
(4.97865e-06 -5.7127e-06 0.0717937)
(2.23595e-06 4.25305e-07 0.0932334)
(2.74453e-05 -9.84105e-07 0.0829746)
(4.52595e-05 1.07699e-06 0.0932355)
(-7.27241e-06 -3.71041e-06 0.0829942)
(-5.73267e-05 5.73074e-05 0.109774)
(5.72678e-05 -5.73208e-05 0.109774)
(-5.72891e-05 -5.72947e-05 0.109774)
(5.63172e-05 5.63238e-05 0.109977)
(-5.63498e-05 5.633e-05 0.109977)
(5.62859e-05 -5.63295e-05 0.109977)
(-5.63164e-05 -5.63062e-05 0.109977)
(-3.07449e-05 1.87377e-06 0.101678)
(-5.33839e-05 2.08241e-05 0.0949051)
(-9.70428e-05 1.85088e-05 0.109338)
(-8.43952e-05 5.29992e-05 0.108476)
(-9.00528e-05 3.47712e-06 0.101657)
(-1.17992e-05 -3.02029e-06 0.0949354)
(-9.6617e-05 1.83757e-05 0.109393)
(1.31723e-05 -3.49698e-06 0.0717477)
(-5.67582e-06 5.05591e-06 0.0717927)
(1.81572e-06 -3.07524e-05 0.101677)
(1.849e-05 -9.70561e-05 0.109338)
(2.09379e-05 -5.33973e-05 0.0949061)
(5.29398e-05 -8.43913e-05 0.108476)
(3.54866e-06 -9.01127e-05 0.101657)
(1.83586e-05 -9.66332e-05 0.109393)
(-2.94402e-06 -1.17121e-05 0.0949337)
(-2.61303e-05 -1.45476e-05 0.0887017)
(-1.46759e-05 -2.60426e-05 0.0887009)
(-6.41268e-07 -5.00762e-07 0.106816)
(-5.56665e-06 4.32492e-06 0.0887222)
(4.22007e-06 -5.47034e-06 0.0887194)
(1.60619e-07 6.64263e-07 0.0930109)
(-1.08649e-06 2.6277e-05 0.0828115)
(8.05304e-07 4.2427e-05 0.0930074)
(-3.82294e-06 -7.30673e-06 0.0828351)
(-3.50955e-06 1.27457e-05 0.0716353)
(4.86479e-06 -5.64628e-06 0.0716831)
(6.615e-07 2.25344e-07 0.0930109)
(2.62233e-05 -1.0197e-06 0.0828117)
(4.24387e-05 8.56926e-07 0.0930074)
(-7.34814e-06 -3.76133e-06 0.0828354)
(-5.60204e-05 5.6e-05 0.110044)
(5.59527e-05 -5.59954e-05 0.110044)
(-5.5989e-05 -5.59734e-05 0.110044)
(5.49678e-05 5.49832e-05 0.110239)
(-5.49957e-05 5.49861e-05 0.110239)
(5.49347e-05 -5.49683e-05 0.110239)
(-5.49689e-05 -5.49577e-05 0.110239)
(-2.54274e-05 1.50274e-06 0.10142)
(-5.03266e-05 1.94241e-05 0.0946751)
(-9.52833e-05 1.79967e-05 0.109554)
(-8.18358e-05 5.16553e-05 0.108593)
(-8.36942e-05 3.0279e-06 0.101398)
(-9.24089e-06 -3.50934e-06 0.0947084)
(-9.48032e-05 1.78673e-05 0.109606)
(1.27353e-05 -3.51361e-06 0.0716353)
(-5.60788e-06 4.92874e-06 0.0716822)
(1.44665e-06 -2.54129e-05 0.101419)
(1.79773e-05 -9.52748e-05 0.109554)
(1.95096e-05 -5.03309e-05 0.0946762)
(5.15973e-05 -8.1791e-05 0.108593)
(3.11682e-06 -8.37231e-05 0.101398)
(1.78471e-05 -9.47974e-05 0.109606)
(-3.43526e-06 -9.16032e-06 0.0947068)
(-2.44716e-05 -1.3813e-05 0.088512)
(-1.39058e-05 -2.43964e-05 0.0885114)
(1.83147e-06 1.95427e-06 0.106772)
(-4.1348e-06 4.43896e-06 0.0885364)
(4.40378e-06 -4.08041e-06 0.0885337)
(-6.12991e-08 -6.35204e-07 0.0928088)
(-1.15454e-06 2.53321e-05 0.0826641)
(5.82054e-07 3.99837e-05 0.0928005)
(-3.87357e-06 -7.20453e-06 0.0826913)
(-3.48588e-06 1.23899e-05 0.0715332)
(4.82012e-06 -5.54514e-06 0.0715828)
(-6.3917e-07 1.64408e-08 0.092809)
(2.52968e-05 -1.09033e-06 0.0826643)
(3.99886e-05 6.47842e-07 0.0928005)
(-7.23955e-06 -3.80788e-06 0.0826915)
(-5.46512e-05 5.46403e-05 0.110303)
(5.45945e-05 -5.46234e-05 0.110303)
(-5.46246e-05 -5.46133e-05 0.110303)
(5.35713e-05 5.35881e-05 0.110492)
(-5.35879e-05 5.35844e-05 0.110492)
(5.35439e-05 -5.35662e-05 0.110491)
(-5.35654e-05 -5.35598e-05 0.110491)
(-2.06255e-05 1.20631e-06 0.101174)
(-4.75608e-05 1.81697e-05 0.094463)
(-9.32921e-05 1.74804e-05 0.109756)
(-7.91222e-05 5.02227e-05 0.108692)
(-7.78332e-05 2.63715e-06 0.101149)
(-7.02132e-06 -3.96658e-06 0.0944992)
(-9.27497e-05 1.73473e-05 0.109803)
(1.23578e-05 -3.51636e-06 0.0715332)
(-5.51506e-06 4.86282e-06 0.0715819)
(1.1447e-06 -2.06189e-05 0.101173)
(1.74711e-05 -9.3274e-05 0.109755)
(1.82388e-05 -4.75768e-05 0.0944642)
(5.01545e-05 -7.9069e-05 0.108692)
(2.73438e-06 -7.78608e-05 0.101149)
(1.73408e-05 -9.27383e-05 0.109803)
(-3.90978e-06 -6.96028e-06 0.0944978)
(-2.29615e-05 -1.31826e-05 0.0883393)
(-1.32226e-05 -2.29144e-05 0.0883387)
(4.34155e-06 4.42517e-06 0.106712)
(-2.90194e-06 4.50375e-06 0.0883671)
(4.51553e-06 -2.87665e-06 0.0883645)
(-1.87544e-07 -1.71175e-06 0.0926248)
(-1.23537e-06 2.45183e-05 0.0825305)
(3.71285e-07 3.78019e-05 0.0926124)
(-3.94331e-06 -7.1512e-06 0.0825609)
(-3.45518e-06 1.20418e-05 0.0714406)
(4.72334e-06 -5.50033e-06 0.0714916)
(-1.71892e-06 -1.36251e-07 0.0926251)
(2.44897e-05 -1.18391e-06 0.0825308)
(3.78048e-05 4.26186e-07 0.0926125)