/*--------------------------------*- C++ -*----------------------------------*\
| =========                 |                                                 |
| \\      /  F ield         | OpenFOAM: The Open Source CFD Toolbox           |
|  \\    /   O peration     | Version:  2312                                  |
|   \\  /    A nd           | Website:  www.openfoam.com                      |
|    \\/     M anipulation  |                                                 |
\*---------------------------------------------------------------------------*/
FoamFile
{
    version     2.0;
    format      ascii;
    arch        "LSB;label=32;scalar=64";
    class       volScalarField;
    location    "350";
    object      nut;
}
// * * * * * * * * * * * * * * * * * * * * * * * * * * * * * * * * * * * * * //

dimensions      [0 2 -1 0 0 0 0];

internalField   nonuniform List<scalar> 
42840
(
0.000145944
9.86106e-05
9.86059e-05
8.18895e-05
0.000141916
9.6275e-05
9.62748e-05
8.20057e-05
0.000137975
9.44611e-05
9.44612e-05
8.24625e-05
0.000134139
9.31644e-05
9.31661e-05
8.36154e-05
0.00013046
9.23725e-05
9.23762e-05
8.49656e-05
0.000126966
9.20673e-05
9.20703e-05
8.66779e-05
0.000123694
9.22181e-05
9.22213e-05
8.86957e-05
0.000120689
9.2797e-05
9.2802e-05
9.08034e-05
0.000117952
9.3768e-05
9.37743e-05
9.30003e-05
0.000115536
9.50949e-05
9.51002e-05
9.54019e-05
0.000113457
9.67388e-05
9.6745e-05
9.78061e-05
0.000111728
9.86626e-05
9.86716e-05
0.000100374
0.00011036
0.000100831
0.000100842
0.000102905
0.000109359
0.000103216
0.000103227
0.00010549
0.000108725
0.000105783
0.000105795
0.000108311
0.000108455
0.000108503
0.000108515
0.000110873
0.000108541
0.00011135
0.000111358
0.000113675
0.000108975
0.000114295
0.000114306
0.000116298
0.000109743
0.000117323
0.000117335
0.000118979
0.000110832
0.000120419
0.000120432
0.000121631
0.000112225
0.000123563
0.000123575
0.000124446
0.000113904
0.000126737
0.000126749
0.000127058
0.000115849
0.000129924
0.000129937
0.000129511
0.00011804
0.000133112
0.000133124
0.000132073
0.000120455
0.000136287
0.000136298
0.000134658
8.17234e-05
8.22299e-05
9.85775e-05
9.85736e-05
9.67823e-05
9.67748e-05
8.18182e-05
8.23093e-05
9.86013e-05
9.85719e-05
9.68035e-05
9.67724e-05
9.85845e-05
9.68062e-05
9.67842e-05
8.17785e-05
8.22213e-05
9.85966e-05
9.68052e-05
9.67935e-05
8.20264e-05
8.1872e-05
8.26698e-05
9.62465e-05
9.62425e-05
9.48399e-05
9.48335e-05
8.17861e-05
8.24707e-05
9.6267e-05
9.62399e-05
9.4859e-05
9.48298e-05
9.62544e-05
9.48636e-05
9.48442e-05
8.1847e-05
8.2741e-05
9.62654e-05
9.48632e-05
9.48532e-05
8.25053e-05
8.24229e-05
8.35782e-05
9.44361e-05
9.44319e-05
9.34178e-05
9.34115e-05
8.25431e-05
8.34284e-05
9.44532e-05
9.44273e-05
9.34349e-05
9.34077e-05
9.44454e-05
9.34402e-05
9.34244e-05
8.23207e-05
8.34999e-05
9.44535e-05
9.34396e-05
9.34309e-05
8.31772e-05
8.33825e-05
8.46966e-05
9.3142e-05
9.31388e-05
9.25035e-05
9.24981e-05
8.34924e-05
8.47909e-05
9.31577e-05
9.31346e-05
9.25206e-05
9.24973e-05
9.31527e-05
9.25236e-05
9.25089e-05
8.3366e-05
8.49706e-05
9.31573e-05
9.25257e-05
9.25155e-05
8.44964e-05
8.48061e-05
8.64503e-05
9.23532e-05
9.23497e-05
9.20803e-05
9.20756e-05
8.47164e-05
8.64521e-05
9.23697e-05
9.23489e-05
9.20959e-05
9.20758e-05
9.23629e-05
9.20988e-05
9.20869e-05
8.47278e-05
8.62484e-05
9.23665e-05
9.21023e-05
9.20925e-05
8.61062e-05
8.63843e-05
8.84141e-05
9.20489e-05
9.20474e-05
9.21251e-05
9.2118e-05
8.64113e-05
8.83362e-05
9.20644e-05
9.20481e-05
9.21402e-05
9.21198e-05
9.20599e-05
9.21388e-05
9.21343e-05
8.66415e-05
8.83558e-05
9.20626e-05
9.21425e-05
9.21378e-05
8.80526e-05
8.84207e-05
9.0111e-05
9.2205e-05
9.2201e-05
9.26029e-05
9.25964e-05
8.83585e-05
9.06093e-05
9.22188e-05
9.22022e-05
9.26164e-05
9.25998e-05
9.22165e-05
9.26138e-05
9.26124e-05
8.83625e-05
9.02243e-05
9.2221e-05
9.26197e-05
9.26174e-05
9.01985e-05
9.07928e-05
9.2506e-05
9.27867e-05
9.2783e-05
9.34832e-05
9.34744e-05
9.05196e-05
9.248e-05
9.27984e-05
9.27859e-05
9.34934e-05
9.34784e-05
9.27992e-05
9.34887e-05
9.34928e-05
9.07815e-05
9.24758e-05
9.28045e-05
9.34966e-05
9.34974e-05
9.27452e-05
9.31125e-05
9.47718e-05
9.37608e-05
9.37549e-05
9.47254e-05
9.47154e-05
9.31326e-05
9.48163e-05
9.37692e-05
9.37601e-05
9.47349e-05
9.47226e-05
9.3774e-05
9.47296e-05
9.47364e-05
9.31635e-05
9.49567e-05
9.37798e-05
9.47375e-05
9.47395e-05
9.51778e-05
9.56289e-05
9.72568e-05
9.50887e-05
9.50832e-05
9.62951e-05
9.62877e-05
9.55554e-05
9.73173e-05
9.50967e-05
9.5088e-05
9.63045e-05
9.62933e-05
9.51026e-05
9.62978e-05
9.63085e-05
9.54945e-05
9.73902e-05
9.51043e-05
9.63061e-05
9.63094e-05
9.77479e-05
9.80648e-05
9.97612e-05
9.6734e-05
9.67306e-05
9.81561e-05
9.81491e-05
9.80859e-05
9.99756e-05
9.67422e-05
9.67357e-05
9.81637e-05
9.81525e-05
9.67512e-05
9.81565e-05
9.81713e-05
9.80637e-05
9.9884e-05
9.67504e-05
9.8166e-05
9.81691e-05
0.000100313
0.000100652
0.000102288
9.86606e-05
9.86581e-05
0.000100268
0.000100261
0.00010048
0.000102775
9.86669e-05
9.86622e-05
0.000100274
0.000100266
9.8681e-05
0.000100266
0.000100288
0.00010065
0.000102556
9.86765e-05
0.00010028
0.000100283
0.000102871
0.000103266
0.000104981
0.000100832
0.00010083
0.000102602
0.000102596
0.000102853
0.000105425
0.000100836
0.000100834
0.000102606
0.000102601
0.000100855
0.0001026
0.000102622
0.000103138
0.000105502
0.00010085
0.000102614
0.000102618
0.000105476
0.000105823
0.000107707
0.000103216
0.000103216
0.000105127
0.000105122
0.000105506
0.000107844
0.000103218
0.000103219
0.00010513
0.000105125
0.000103241
0.000105126
0.000105149
0.00010564
0.00010815
0.000103235
0.000105139
0.000105146
0.000108202
0.000108458
0.000110386
0.000105782
0.000105783
0.00010781
0.000107807
0.00010837
0.000110392
0.000105785
0.000105786
0.000107813
0.000107809
0.00010581
0.000107811
0.000107834
0.0001083
0.000110801
0.000105807
0.000107824
0.000107832
0.000110825
0.000111118
0.000113035
0.000108501
0.000108504
0.000110625
0.000110625
0.000111243
0.000113081
0.000108504
0.000108505
0.000110628
0.000110623
0.00010853
0.00011063
0.000110651
0.000110974
0.000113347
0.000108528
0.000110639
0.00011065
0.000113565
0.000113902
0.000115911
0.000111345
0.00011135
0.000113547
0.000113547
0.000113956
0.000115732
0.000111348
0.000111347
0.000113551
0.000113546
0.000111374
0.000113551
0.000113575
0.000113682
0.000116141
0.000111373
0.000113563
0.000113574
0.000116245
0.000116484
0.000118584
0.000114291
0.000114296
0.000116557
0.000116555
0.000116563
0.000118456
0.000114295
0.000114294
0.000116559
0.000116555
0.00011432
0.00011656
0.000116582
0.000116296
0.000118817
0.000114319
0.000116572
0.00011658
0.000118875
0.000119055
0.000121154
0.00011732
0.000117322
0.000119639
0.000119635
0.000119216
0.000121126
0.000117323
0.000117324
0.000119641
0.000119638
0.000117348
0.000119641
0.000119663
0.000118926
0.000121466
0.000117346
0.000119654
0.00011966
0.000121583
0.000121868
0.000123958
0.000120419
0.000120415
0.000122775
0.000122767
0.000121865
0.000123817
0.000120421
0.00012042
0.000122775
0.000122773
0.000120443
0.000122775
0.000122796
0.000121592
0.000124114
0.00012044
0.000122788
0.000122792
0.000124057
0.000124423
0.000126557
0.000123565
0.000123558
0.000125945
0.000125933
0.000124486
0.000126542
0.000123566
0.000123564
0.000125944
0.000125939
0.000123587
0.000125942
0.000125966
0.000124208
0.000126595
0.000123583
0.000125954
0.00012596
0.000126691
0.000127057
0.000129154
0.000126741
0.000126731
0.000129131
0.000129118
0.000127122
0.00012919
0.00012674
0.000126737
0.000129129
0.000129126
0.000126761
0.000129127
0.00012915
0.000127025
0.000129234
0.000126755
0.00012914
0.000129144
0.000129415
0.000129595
0.000131774
0.000129929
0.000129917
0.00013232
0.000132306
0.000129679
0.00013163
0.000129928
0.000129923
0.000132318
0.000132313
0.000129947
0.000132315
0.000132339
0.000129587
0.000131904
0.000129941
0.000132328
0.000132333
0.000131977
0.000132169
0.000134325
0.000133116
0.000133103
0.000135499
0.000135485
0.000132288
0.000134163
0.000133115
0.00013311
0.000135498
0.000135491
0.000133136
0.000135495
0.00013552
0.000132036
0.000134319
0.000133129
0.000135507
0.000135514
0.000134388
0.000134635
0.000136291
0.000136277
0.000134769
0.000136291
0.000136284
0.000136312
0.000134653
0.000136305
7.20262e-05
4.95763e-05
4.95896e-05
7.12248e-05
2.3616e-05
2.3613e-05
7.20279e-05
4.9571e-05
4.95844e-05
7.12154e-05
0.000145944
0.000145939
0.000145939
0.000142906
0.000142904
0.000142899
0.000142899
6.98892e-05
6.76369e-05
0.000122028
9.79715e-05
6.82394e-05
0.000121042
6.89455e-05
2.36153e-05
2.36121e-05
6.99194e-05
0.000122003
6.76317e-05
9.79703e-05
0.000121036
6.82712e-05
6.89455e-05
6.20496e-05
6.20578e-05
8.19561e-05
6.23716e-05
6.23529e-05
7.37726e-05
4.95951e-05
7.30657e-05
4.96069e-05
2.36047e-05
2.36019e-05
7.37729e-05
4.95896e-05
7.30593e-05
4.96017e-05
0.000141916
0.000141911
0.000141911
0.000138935
0.000138934
0.000138929
0.000138929
7.28904e-05
6.94347e-05
0.0001183
9.57698e-05
7.19333e-05
6.99987e-05
0.000117377
2.36039e-05
2.3601e-05
7.29426e-05
0.000118276
6.94226e-05
9.57694e-05
7.1917e-05
0.000117372
7.00279e-05
6.29268e-05
6.29228e-05
8.21983e-05
6.32128e-05
6.32035e-05
7.53217e-05
4.9611e-05
7.46671e-05
4.96213e-05
2.35943e-05
2.35918e-05
7.53074e-05
4.96061e-05
7.46737e-05
4.96157e-05
0.000137974
0.00013797
0.000137971
0.000135084
0.000135082
0.000135077
0.000135079
7.58855e-05
7.11334e-05
0.000114866
9.40877e-05
7.4899e-05
7.16713e-05
0.000114044
2.35935e-05
2.3591e-05
7.59105e-05
0.000114844
7.11181e-05
9.40873e-05
7.48753e-05
0.000114045
7.16909e-05
6.37259e-05
6.37236e-05
8.28125e-05
6.39962e-05
6.3986e-05
7.66833e-05
4.96251e-05
7.60892e-05
4.96339e-05
2.35849e-05
2.35827e-05
7.66684e-05
4.96206e-05
7.60972e-05
4.96287e-05
0.000134137
0.000134133
0.000134134
0.000131367
0.000131365
0.00013136
0.000131362
7.88247e-05
7.2731e-05
0.000111746
9.29194e-05
7.78362e-05
7.32377e-05
0.000111013
2.3584e-05
2.35819e-05
7.88174e-05
0.000111728
7.27211e-05
9.29208e-05
7.7825e-05
0.000111013
7.32654e-05
6.44677e-05
6.44646e-05
8.37707e-05
6.47125e-05
6.47094e-05
7.79024e-05
4.96401e-05
7.73593e-05
4.96435e-05
2.35764e-05
2.35746e-05
7.78875e-05
4.9633e-05
7.7368e-05
4.96388e-05
0.000130458
0.000130454
0.000130455
0.000127824
0.000127822
0.000127818
0.000127819
8.16494e-05
7.42356e-05
0.000109009
9.22508e-05
8.06774e-05
7.47117e-05
0.000108373
2.35755e-05
2.35737e-05
8.16442e-05
0.000108994
7.4219e-05
9.2254e-05
8.06948e-05
0.000108376
7.47459e-05
6.5155e-05
6.51524e-05
8.52614e-05
6.53835e-05
6.53782e-05
7.90054e-05
4.96515e-05
7.85078e-05
4.96538e-05
2.35688e-05
2.35673e-05
7.89897e-05
4.9646e-05
7.85164e-05
4.96483e-05
0.000126964
0.00012696
0.000126961
0.000124494
0.000124492
0.000124488
0.00012449
8.43311e-05
7.56573e-05
0.000106676
9.20622e-05
8.34579e-05
7.61008e-05
0.000106144
2.3568e-05
2.35665e-05
8.43493e-05
0.000106662
7.56417e-05
9.20671e-05
8.34555e-05
0.000106149
7.61355e-05
6.57935e-05
6.57914e-05
8.70571e-05
6.60043e-05
6.59996e-05
8.0019e-05
4.96617e-05
7.9556e-05
4.96639e-05
2.35621e-05
2.3561e-05
8.00033e-05
4.96562e-05
7.95666e-05
4.96586e-05
0.000123691
0.000123688
0.000123689
0.000121422
0.000121419
0.000121416
0.000121418
8.69313e-05
7.69967e-05
0.00010477
9.23245e-05
8.60889e-05
7.74126e-05
0.000104347
2.35613e-05
2.35602e-05
8.69286e-05
0.000104759
7.69832e-05
9.23288e-05
8.60991e-05
0.000104353
7.74473e-05
6.63889e-05
6.63866e-05
8.90884e-05
6.65879e-05
6.65827e-05
8.09524e-05
4.96713e-05
8.05308e-05
4.96744e-05
2.35564e-05
2.35556e-05
8.09379e-05
4.96648e-05
8.05324e-05
4.96701e-05
0.000120684
0.000120681
0.000120683
0.000118605
0.000118602
0.000118599
0.000118601
8.94264e-05
7.82641e-05
0.000103309
9.30033e-05
8.86087e-05
7.86763e-05
0.000102999
2.35557e-05
2.35549e-05
8.94409e-05
0.000103299
7.82508e-05
9.30112e-05
8.86155e-05
0.000103006
7.86956e-05
6.69471e-05
6.69455e-05
9.16133e-05
6.71351e-05
6.71319e-05
8.18186e-05
4.96792e-05
8.14327e-05
4.96861e-05
2.35517e-05
2.35513e-05
8.18112e-05
4.96733e-05
8.14374e-05
4.96804e-05
0.000117948
0.000117946
0.000117948
0.000116109
0.000116105
0.000116104
0.000116106
9.18393e-05
7.9448e-05
0.000102298
9.40674e-05
9.09999e-05
7.98772e-05
0.000102101
2.35509e-05
2.35505e-05
9.18411e-05
0.000102288
7.9454e-05
9.40732e-05
9.10017e-05
0.000102104
7.98795e-05
6.74752e-05
6.74732e-05
9.39169e-05
6.76538e-05
6.7651e-05
8.26377e-05
4.96889e-05
8.22777e-05
4.96975e-05
2.3548e-05
2.35479e-05
8.26334e-05
4.96847e-05
8.22721e-05
4.96916e-05
0.000115532
0.000115531
0.000115534
0.000113944
0.00011394
0.000113939
0.000113941
9.41361e-05
8.05955e-05
0.000101731
9.54771e-05
9.3294e-05
8.09861e-05
0.000101642
2.35472e-05
2.35472e-05
9.41369e-05
0.00010172
8.06083e-05
9.5483e-05
9.3301e-05
0.000101644
8.09877e-05
6.79751e-05
6.79736e-05
9.63894e-05
6.81459e-05
6.81427e-05
8.34104e-05
4.97003e-05
8.3069e-05
4.97093e-05
2.35453e-05
2.35456e-05
8.34051e-05
4.9695e-05
8.30666e-05
4.97039e-05
0.000113453
0.000113452
0.000113455
0.000112126
0.000112122
0.000112121
0.000112125
9.63366e-05
8.16923e-05
0.000101589
9.71949e-05
9.54918e-05
8.20741e-05
0.000101606
2.35446e-05
2.35449e-05
9.63454e-05
0.000101581
8.17113e-05
9.72018e-05
9.54992e-05
0.00010161
8.2063e-05
6.84516e-05
6.84507e-05
9.89869e-05
6.86135e-05
6.86118e-05
8.414e-05
4.97128e-05
8.38214e-05
4.97217e-05
2.35437e-05
2.35444e-05
8.41388e-05
4.97074e-05
8.38139e-05
4.97167e-05
0.000111724
0.000111723
0.000111728
0.000110667
0.000110663
0.000110663
0.000110668
9.84495e-05
8.27313e-05
0.000101864
9.9182e-05
9.76099e-05
8.31078e-05
0.00010198
2.35429e-05
2.35436e-05
9.8462e-05
0.000101859
8.27454e-05
9.91954e-05
9.76179e-05
0.000101987
8.30949e-05
6.89065e-05
6.89058e-05
0.000101494
6.90614e-05
6.90598e-05
8.48387e-05
4.97299e-05
8.45354e-05
4.97328e-05
2.35431e-05
2.35441e-05
8.48384e-05
4.97209e-05
8.45262e-05
4.97308e-05
0.000110356
0.000110357
0.000110362
0.000109574
0.00010957
0.000109571
0.000109576
0.000100489
8.37379e-05
0.000102526
0.000101408
9.96518e-05
8.40971e-05
0.000102736
2.35423e-05
2.35433e-05
0.000100499
0.000102522
8.37446e-05
0.000101422
9.96607e-05
0.000102744
8.40917e-05
6.93422e-05
6.93412e-05
0.000104132
6.94912e-05
6.94897e-05
8.55126e-05
4.97449e-05
8.52129e-05
4.9749e-05
2.35434e-05
2.35448e-05
8.55079e-05
4.97359e-05
8.52096e-05
4.97463e-05
0.000109355
0.000109357
0.000109363
0.000108848
0.000108844
0.000108846
0.000108853
0.000102457
8.47006e-05
0.000103552
0.000103843
0.000101626
8.5039e-05
0.000103851
2.35427e-05
2.35441e-05
0.000102475
0.000103552
8.47102e-05
0.000103855
0.000101631
0.000103861
8.5045e-05
6.97614e-05
6.97573e-05
0.000106808
6.99039e-05
6.99035e-05
8.6158e-05
4.97573e-05
8.58699e-05
4.97684e-05
2.35448e-05
2.35465e-05
8.61567e-05
4.97522e-05
8.58659e-05
4.97632e-05
0.000108721
0.000108723
0.000108732
0.000108487
0.000108483
0.000108486
0.000108495
0.000104363
8.56297e-05
0.000104914
0.00010645
0.000103534
8.59507e-05
0.000105293
2.3544e-05
2.35458e-05
0.000104381
0.000104916
8.56209e-05
0.000106463
0.000103542
0.000105306
8.59695e-05
7.01632e-05
7.01581e-05
0.000109471
7.03028e-05
7.03018e-05
8.67839e-05
4.97751e-05
8.65102e-05
4.97864e-05
2.35471e-05
2.35491e-05
8.67852e-05
4.977e-05
8.64995e-05
4.97815e-05
0.000108451
0.000108454
0.000108464
0.000108485
0.000108482
0.000108485
0.000108495
0.000106219
8.65101e-05
0.000106588
0.000109205
0.000105386
8.6837e-05
0.000107042
2.35463e-05
2.35484e-05
0.000106228
0.000106595
8.65066e-05
0.000109217
0.0001054
0.000107058
8.6853e-05
7.05504e-05
7.05447e-05
0.000112172
7.06875e-05
7.06854e-05
8.73954e-05
4.97978e-05
8.71261e-05
4.9803e-05
2.35503e-05
2.35527e-05
8.73888e-05
4.97892e-05
8.71192e-05
4.98012e-05
0.000108539
0.000108541
0.000108552
0.000108833
0.000108831
0.000108834
0.000108845
0.000108013
8.73677e-05
0.000108544
0.000112079
0.000107193
8.76872e-05
0.000109065
2.35495e-05
2.35519e-05
0.000108025
0.000108555
8.73631e-05
0.000112089
0.000107202
0.000109085
8.77007e-05
7.09237e-05
7.09185e-05
0.000114845
7.10586e-05
7.10553e-05
8.79899e-05
4.98183e-05
8.77279e-05
4.98243e-05
2.35543e-05
2.35571e-05
8.79891e-05
4.98098e-05
8.77256e-05
4.98223e-05
0.000108973
0.000108975
0.000108988
0.000109519
0.000109517
0.000109521
0.000109533
0.000109759
8.81913e-05
0.000110757
0.000115047
0.000108948
8.85032e-05
0.00011134
2.35535e-05
2.35562e-05
0.000109765
0.000110773
8.81843e-05
0.000115058
0.000108958
0.000111362
8.85375e-05
7.12842e-05
7.12794e-05
0.000117517
7.14159e-05
7.14128e-05
8.85727e-05
4.984e-05
8.83196e-05
4.98464e-05
2.35593e-05
2.35625e-05
8.85764e-05
4.98317e-05
8.8307e-05
4.98447e-05
0.000109742
0.000109745
0.000109758
0.000110528
0.000110528
0.000110532
0.000110544
0.000111452
8.89882e-05
0.000113202
0.000118092
0.00011066
8.93004e-05
0.000113837
2.35584e-05
2.35613e-05
0.000111454
0.000113218
8.89764e-05
0.000118106
0.000110671
0.000113859
8.93212e-05
7.16321e-05
7.16274e-05
0.000120206
7.17615e-05
7.17574e-05
8.9145e-05
4.98597e-05
8.88949e-05
4.98734e-05
2.35651e-05
2.35683e-05
8.91404e-05
4.98548e-05
8.88889e-05
4.98676e-05
0.000110831
0.000110835
0.000110847
0.000111847
0.000111846
0.000111852
0.000111864
0.000113099
8.97471e-05
0.000115847
0.000121203
0.000112331
9.00629e-05
0.000116529
2.3564e-05
2.35672e-05
0.000113102
0.000115861
8.97389e-05
0.000121217
0.00011234
0.000116549
9.00872e-05
7.19684e-05
7.19642e-05
0.000122674
7.20955e-05
7.20902e-05
8.9714e-05
4.98845e-05
8.94511e-05
4.98984e-05
2.35714e-05
2.35749e-05
8.96992e-05
4.98828e-05
8.94553e-05
4.98904e-05
0.000112223
0.000112229
0.000112241
0.000113456
0.000113455
0.000113461
0.000113474
0.000114706
9.04984e-05
0.000118669
0.000124355
0.000113953
9.07971e-05
0.000119395
2.35703e-05
2.35738e-05
0.000114712
0.000118683
9.04967e-05
0.000124368
0.000113963
0.000119415
9.08119e-05
7.22939e-05
7.229e-05
0.000125369
7.24178e-05
7.24111e-05
9.02633e-05
4.99101e-05
9.00049e-05
4.99236e-05
2.35783e-05
2.3582e-05
9.025e-05
4.99084e-05
9.00108e-05
4.99165e-05
0.000113902
0.000113908
0.000113921
0.000115337
0.000115335
0.000115342
0.000115355
0.000116269
9.12209e-05
0.00012166
0.000127533
0.000115533
9.15218e-05
0.000122425
2.35773e-05
2.3581e-05
0.000116271
0.000121673
9.12098e-05
0.000127546
0.000115541
0.000122443
9.15226e-05
7.26088e-05
7.26032e-05
0.000128032
7.27261e-05
7.27222e-05
9.0801e-05
4.994e-05
9.05461e-05
4.99486e-05
2.35859e-05
2.35898e-05
9.07896e-05
4.9935e-05
9.0547e-05
4.99436e-05
0.000115847
0.000115854
0.000115866
0.000117469
0.000117466
0.000117474
0.000117487
0.00011778
9.19036e-05
0.000124805
0.000130722
0.000117068
9.22045e-05
0.000125604
2.35849e-05
2.35888e-05
0.000117784
0.000124816
9.1908e-05
0.000130734
0.000117077
0.000125621
9.22258e-05
7.29138e-05
7.29096e-05
0.000130723
7.303e-05
7.30227e-05
9.13138e-05
4.99674e-05
9.10794e-05
4.99766e-05
2.35939e-05
2.35981e-05
9.13128e-05
4.99626e-05
9.10739e-05
4.99724e-05
0.000118037
0.000118045
0.000118059
0.000119831
0.000119827
0.000119836
0.00011985
0.000119239
9.25788e-05
0.000128076
0.000133907
0.000118553
9.28742e-05
0.000128903
2.3593e-05
2.35971e-05
0.000119244
0.000128087
9.25702e-05
0.00013392
0.000118565
0.000128921
9.28812e-05
7.32079e-05
7.32034e-05
0.000133241
7.33204e-05
7.33135e-05
9.18177e-05
4.99958e-05
9.16017e-05
5.00052e-05
2.36026e-05
2.36069e-05
9.18197e-05
4.99877e-05
9.15893e-05
5.00029e-05
0.000120452
0.000120461
0.000120475
0.000120655
9.32289e-05
0.000131447
0.00013708
0.00011999
9.35114e-05
0.000132297
2.36017e-05
2.3606e-05
0.000120655
0.00013146
9.32205e-05
0.000137091
0.000119997
0.000132314
9.35358e-05
7.34921e-05
7.34874e-05
0.000135617
7.3602e-05
7.35937e-05
2.36182e-05
2.36153e-05
2.36161e-05
2.36131e-05
6.20561e-05
6.20559e-05
8.21586e-05
6.23695e-05
6.23683e-05
2.36096e-05
2.36124e-05
2.36074e-05
2.36103e-05
8.1761e-05
6.28077e-05
6.28072e-05
6.2506e-05
6.25044e-05
7.20397e-05
4.95705e-05
4.95822e-05
7.12087e-05
6.99318e-05
6.76223e-05
0.000122003
9.79464e-05
6.82642e-05
0.000121033
6.89417e-05
6.99063e-05
6.76498e-05
0.000122003
9.79394e-05
6.82309e-05
0.000121032
6.8951e-05
7.21722e-05
4.95985e-05
4.95861e-05
7.29282e-05
7.2162e-05
4.95881e-05
4.95839e-05
7.29311e-05
7.04187e-05
9.73467e-05
6.91685e-05
0.000119165
6.85372e-05
0.000120106
7.14209e-05
7.04348e-05
9.7341e-05
6.91273e-05
0.000119164
6.85624e-05
0.000120106
7.14122e-05
6.20465e-05
6.20678e-05
8.20896e-05
6.23763e-05
6.23668e-05
2.36177e-05
2.36146e-05
2.36073e-05
2.36102e-05
8.17225e-05
6.27982e-05
6.28012e-05
6.24905e-05
6.25055e-05
2.36089e-05
2.36118e-05
6.98926e-05
6.7618e-05
0.000122006
9.7967e-05
6.82725e-05
0.000121036
6.89598e-05
7.20231e-05
4.95719e-05
4.95759e-05
7.1214e-05
6.99061e-05
0.000121992
6.76336e-05
9.79353e-05
0.000121022
6.82295e-05
6.89518e-05
7.21646e-05
4.95933e-05
4.95804e-05
7.29294e-05
7.04432e-05
9.73666e-05
6.91624e-05
0.000119168
6.853e-05
0.00012011
7.14068e-05
7.21667e-05
4.95851e-05
4.95814e-05
7.29286e-05
7.04305e-05
9.73392e-05
0.000119153
6.91357e-05
0.000120093
6.85548e-05
7.13953e-05
7.19979e-05
4.9572e-05
4.95852e-05
7.12286e-05
6.9905e-05
0.000122012
6.76262e-05
9.79473e-05
0.00012104
6.82548e-05
6.89635e-05
7.2028e-05
4.95728e-05
4.95767e-05
7.12143e-05
7.0438e-05
9.73755e-05
6.91317e-05
0.000119176
6.85496e-05
0.00012013
7.13894e-05
7.2179e-05
4.95943e-05
4.95813e-05
7.29035e-05
7.04396e-05
9.73515e-05
0.000119174
6.91647e-05
0.000120116
6.85327e-05
7.14132e-05
7.21644e-05
4.95856e-05
4.95822e-05
7.29223e-05
6.20589e-05
6.20657e-05
8.20591e-05
6.23583e-05
6.23668e-05
2.36175e-05
2.36144e-05
2.36065e-05
2.36095e-05
8.17136e-05
6.27883e-05
6.27969e-05
6.25067e-05
6.25134e-05
2.36088e-05
2.36117e-05
6.99089e-05
0.000122007
6.76397e-05
9.79603e-05
0.000121042
6.82357e-05
6.89434e-05
7.20036e-05
4.95772e-05
4.9582e-05
7.12322e-05
7.20001e-05
4.95665e-05
4.95795e-05
7.12306e-05
7.04196e-05
9.73728e-05
0.000119171
6.91759e-05
0.000120105
6.85324e-05
7.14217e-05
7.04301e-05
9.73647e-05
0.000119174
6.91265e-05
0.000120109
6.8551e-05
7.14081e-05
7.21821e-05
4.95941e-05
4.95811e-05
7.29071e-05
7.21804e-05
4.95886e-05
4.95759e-05
7.29047e-05
2.3616e-05
2.36129e-05
2.36148e-05
2.36117e-05
8.18797e-05
6.27984e-05
6.27887e-05
6.24883e-05
6.25046e-05
2.36072e-05
2.36102e-05
2.36061e-05
2.3609e-05
2.36069e-05
2.36042e-05
2.36047e-05
2.3602e-05
6.29298e-05
6.29275e-05
8.23772e-05
6.32214e-05
6.32179e-05
2.3599e-05
2.36016e-05
2.35968e-05
2.35994e-05
8.20832e-05
6.36221e-05
6.36167e-05
6.33448e-05
6.33427e-05
7.37731e-05
4.95937e-05
7.30584e-05
4.95962e-05
7.29027e-05
6.9432e-05
0.000118275
9.57462e-05
7.19179e-05
7.00333e-05
0.000117369
7.2883e-05
6.94436e-05
0.000118275
9.57397e-05
7.19272e-05
7.00021e-05
0.000117366
7.38952e-05
4.96146e-05
4.96032e-05
7.45834e-05
7.3891e-05
4.96042e-05
4.96019e-05
7.45768e-05
7.34225e-05
9.5275e-05
7.0878e-05
0.000115649
7.02908e-05
0.000116521
7.44036e-05
7.34343e-05
9.52714e-05
7.08418e-05
0.000115645
7.0308e-05
0.000116518
7.43872e-05
6.29275e-05
6.29325e-05
8.23724e-05
6.32145e-05
6.3213e-05
2.36062e-05
2.36035e-05
2.35967e-05
2.35994e-05
8.21213e-05
6.36146e-05
6.36099e-05
6.33373e-05
6.33446e-05
2.35983e-05
2.36009e-05
7.29014e-05
6.9429e-05
0.00011828
9.57661e-05
7.19282e-05
7.00245e-05
0.000117372
7.37712e-05
4.95903e-05
7.30556e-05
4.95933e-05
7.28834e-05
0.000118263
6.94268e-05
9.57353e-05
7.19307e-05
0.000117355
6.99984e-05
7.38906e-05
4.96094e-05
4.95976e-05
7.45642e-05
7.34214e-05
9.5295e-05
7.08563e-05
0.000115651
7.02926e-05
0.000116523
7.43882e-05
7.38843e-05
4.96012e-05
4.95985e-05
7.45765e-05
7.34302e-05
9.52674e-05
0.000115635
7.08435e-05
0.000116506
7.02991e-05
7.43909e-05
7.37472e-05
4.95902e-05
7.30667e-05
4.96023e-05
7.29089e-05
0.000118286
6.94235e-05
9.57486e-05
7.19244e-05
0.000117378
7.00209e-05
7.37634e-05
4.95915e-05
7.30603e-05
4.95942e-05
7.34209e-05
9.53031e-05
7.08442e-05
0.000115657
7.03059e-05
0.000116543
7.44207e-05
7.38959e-05
4.96101e-05
4.95989e-05
7.45594e-05
7.34163e-05
9.52831e-05
0.000115658
7.08758e-05
0.00011653
7.0284e-05
7.4402e-05
7.38939e-05
4.96021e-05
4.95996e-05
7.45717e-05
6.29195e-05
6.29291e-05
8.23791e-05
6.32089e-05
6.32169e-05
2.36061e-05
2.36033e-05
2.35959e-05
2.35986e-05
8.20404e-05
6.36033e-05
6.3613e-05
6.33424e-05
6.335e-05
2.35982e-05
2.36007e-05
7.2905e-05
0.000118279
6.94343e-05
9.57586e-05
7.19197e-05
0.000117376
7.00082e-05
7.37504e-05
4.95906e-05
7.30698e-05
4.96027e-05
7.37478e-05
4.95848e-05
7.30681e-05
4.95971e-05
7.33865e-05
9.53004e-05
0.000115652
7.08907e-05
0.00011652
7.02864e-05
7.44399e-05
7.34162e-05
9.52933e-05
0.000115656
7.0848e-05
0.000116523
7.02944e-05
7.43941e-05
7.3899e-05
4.96098e-05
4.95986e-05
7.45442e-05
7.38973e-05
4.96037e-05
4.9593e-05
7.45419e-05
2.36046e-05
2.36019e-05
2.36035e-05
2.36007e-05
8.2234e-05
6.3622e-05
6.36025e-05
6.33355e-05
6.33375e-05
2.35967e-05
2.35993e-05
2.35955e-05
2.35981e-05
2.35965e-05
2.35941e-05
2.35943e-05
2.35919e-05
6.37351e-05
6.37309e-05
8.30749e-05
6.39993e-05
6.40065e-05
2.35894e-05
2.35917e-05
2.35872e-05
2.35895e-05
8.28505e-05
6.43785e-05
6.43673e-05
6.41137e-05
6.41094e-05
7.5322e-05
4.96096e-05
7.46648e-05
4.96124e-05
7.58843e-05
7.11299e-05
0.000114844
9.40645e-05
7.49152e-05
7.17008e-05
0.000114039
7.58773e-05
7.11417e-05
0.000114842
9.40589e-05
7.49276e-05
7.16695e-05
0.000114034
7.53999e-05
4.96277e-05
4.962e-05
7.60241e-05
7.53981e-05
4.96208e-05
4.96148e-05
7.60196e-05
7.63959e-05
9.37235e-05
7.24982e-05
0.000112471
7.19389e-05
0.000113239
7.73847e-05
7.6404e-05
9.37201e-05
7.24605e-05
0.000112468
7.19536e-05
0.000113234
7.73594e-05
6.37265e-05
6.37327e-05
8.29e-05
6.39873e-05
6.39939e-05
2.35958e-05
2.35934e-05
2.35872e-05
2.35894e-05
8.29721e-05
6.4369e-05
6.43592e-05
6.41066e-05
6.41093e-05
2.35887e-05
2.35909e-05
7.58711e-05
7.11353e-05
0.000114847
9.4083e-05
7.49231e-05
7.16728e-05
0.00011404
7.5321e-05
4.96062e-05
7.46603e-05
4.96087e-05
7.58659e-05
0.000114829
7.11307e-05
9.40534e-05
7.49198e-05
0.000114026
7.16702e-05
7.5405e-05
4.96228e-05
4.96121e-05
7.6008e-05
7.64005e-05
9.37418e-05
7.24693e-05
0.000112472
7.19494e-05
0.000113241
7.73406e-05
7.53938e-05
4.9616e-05
4.96131e-05
7.6019e-05
7.64011e-05
9.37167e-05
0.000112456
7.24608e-05
0.000113223
7.1941e-05
7.73455e-05
7.5298e-05
4.96067e-05
7.4669e-05
4.96169e-05
7.58864e-05
0.000114853
7.11201e-05
9.40702e-05
7.49142e-05
0.000114048
7.16889e-05
7.53112e-05
4.96059e-05
7.46677e-05
4.96095e-05
7.63784e-05
9.37493e-05
7.24614e-05
0.000112477
7.19461e-05
0.00011326
7.73593e-05
7.53984e-05
4.96235e-05
4.96141e-05
7.59981e-05
7.63854e-05
9.37346e-05
0.000112478
7.24905e-05
0.000113245
7.19286e-05
7.73531e-05
7.5398e-05
4.96166e-05
4.96141e-05
7.60115e-05
6.3728e-05
6.37326e-05
8.31021e-05
6.39887e-05
6.39977e-05
2.35957e-05
2.35932e-05
2.35863e-05
2.35886e-05
8.27499e-05
6.43546e-05
6.43629e-05
6.41059e-05
6.41157e-05
2.35885e-05
2.35908e-05
7.58797e-05
0.000114849
7.11259e-05
9.40788e-05
7.49127e-05
0.000114049
7.16743e-05
7.52859e-05
4.96089e-05
7.46798e-05
4.96163e-05
7.52835e-05
4.96038e-05
7.46776e-05
4.9611e-05
7.63693e-05
9.3747e-05
0.000112474
7.25017e-05
0.000113239
7.1934e-05
7.73762e-05
7.63829e-05
9.37427e-05
0.000112479
7.24607e-05
0.000113241
7.19399e-05
7.73515e-05
7.54099e-05
4.96233e-05
4.9617e-05
7.59885e-05
7.54074e-05
4.96173e-05
4.96075e-05
7.59863e-05
2.35943e-05
2.35918e-05
2.35931e-05
2.35906e-05
8.30456e-05
6.43638e-05
6.43537e-05
6.41035e-05
6.41086e-05
2.35872e-05
2.35895e-05
2.3586e-05
2.35882e-05
2.35871e-05
2.3585e-05
2.35849e-05
2.35828e-05
6.44767e-05
6.4473e-05
8.39863e-05
6.47195e-05
6.47217e-05
2.35808e-05
2.35827e-05
2.35786e-05
2.35806e-05
8.41456e-05
6.50657e-05
6.5062e-05
6.48272e-05
6.48231e-05
7.66822e-05
4.9623e-05
7.60871e-05
4.96253e-05
7.88312e-05
7.27259e-05
0.000111728
9.2899e-05
7.78465e-05
7.3269e-05
0.000111009
7.87912e-05
7.27373e-05
0.000111724
9.28936e-05
7.7857e-05
7.32332e-05
0.000111005
7.67422e-05
4.96386e-05
4.9633e-05
7.73104e-05
7.67395e-05
4.96312e-05
4.96285e-05
7.73057e-05
7.92833e-05
9.26854e-05
7.40196e-05
0.00010964
7.34899e-05
0.000110314
8.02536e-05
7.92974e-05
9.26828e-05
7.39792e-05
0.000109635
7.35063e-05
0.00011031
8.02558e-05
6.44671e-05
6.44714e-05
8.40611e-05
6.47164e-05
6.47133e-05
2.35863e-05
2.35842e-05
2.35785e-05
2.35805e-05
8.40703e-05
6.50549e-05
6.50529e-05
6.48161e-05
6.48201e-05
2.358e-05
2.35819e-05
7.87817e-05
7.27311e-05
0.00011173
9.29169e-05
7.78655e-05
7.32747e-05
0.000111008
7.66815e-05
4.9618e-05
7.60838e-05
4.96247e-05
7.8792e-05
0.000111714
7.27244e-05
9.2889e-05
7.78628e-05
0.000110994
7.32751e-05
7.67482e-05
4.96347e-05
4.96262e-05
7.7295e-05
7.93069e-05
9.27026e-05
7.40163e-05
0.00010964
7.34892e-05
0.000110314
8.02197e-05
7.67367e-05
4.9631e-05
4.96221e-05
7.73054e-05
7.92984e-05
9.26794e-05
0.000109626
7.40158e-05
0.0001103
7.34769e-05
8.02316e-05
7.6662e-05
4.96211e-05
7.60869e-05
4.96296e-05
7.87931e-05
0.000111741
7.27171e-05
9.29042e-05
7.78543e-05
0.000111019
7.32413e-05
7.66747e-05
4.96208e-05
7.60879e-05
4.96234e-05
7.9268e-05
9.27076e-05
7.39809e-05
0.000109644
7.34983e-05
0.00011033
8.02444e-05
7.67383e-05
4.96353e-05
4.9627e-05
7.72864e-05
7.92905e-05
9.26949e-05
0.000109651
7.39788e-05
0.000110326
7.34979e-05
8.02231e-05
7.67397e-05
4.96295e-05
4.96251e-05
7.7299e-05
6.44687e-05
6.44762e-05
8.41898e-05
6.47092e-05
6.47186e-05
2.35862e-05
2.35841e-05
2.35777e-05
2.35796e-05
8.40013e-05
6.50498e-05
6.50578e-05
6.4819e-05
6.48273e-05
2.35799e-05
2.35819e-05
7.88187e-05
0.000111734
7.27269e-05
9.29109e-05
7.78453e-05
0.000111016
7.32391e-05
7.6648e-05
4.96198e-05
7.61004e-05
4.96295e-05
7.66462e-05
4.96177e-05
7.60974e-05
4.9624e-05
7.92772e-05
9.27068e-05
0.000109643
7.40285e-05
0.000110314
7.3482e-05
8.02422e-05
7.92731e-05
9.27015e-05
0.000109649
7.39749e-05
0.000110317
7.34961e-05
8.02405e-05
7.67495e-05
4.9636e-05
4.96284e-05
7.72765e-05
7.67444e-05
4.96302e-05
4.96208e-05
7.72917e-05
2.35849e-05
2.35828e-05
2.35837e-05
2.35816e-05
8.42968e-05
6.50596e-05
6.50497e-05
6.48173e-05
6.48197e-05
2.35786e-05
2.35805e-05
2.35774e-05
2.35793e-05
2.35786e-05
2.35768e-05
2.35765e-05
2.35747e-05
6.51632e-05
6.51594e-05
8.56144e-05
6.53934e-05
6.53879e-05
2.35731e-05
2.35747e-05
2.35709e-05
2.35725e-05
8.54999e-05
6.57092e-05
6.57037e-05
6.54867e-05
6.54833e-05
7.79005e-05
4.96345e-05