/*--------------------------------*- C++ -*----------------------------------*\
| =========                 |                                                 |
| \\      /  F ield         | OpenFOAM: The Open Source CFD Toolbox           |
|  \\    /   O peration     | Version:  2312                                  |
|   \\  /    A nd           | Website:  www.openfoam.com                      |
|    \\/     M anipulation  |                                                 |
\*---------------------------------------------------------------------------*/
FoamFile
{
    version     2.0;
    format      ascii;
    arch        "LSB;label=32;scalar=64";
    class       volScalarField;
    location    "300";
    object      k;
}
// * * * * * * * * * * * * * * * * * * * * * * * * * * * * * * * * * * * * * //

dimensions      [0 2 -2 0 0 0 0];

internalField   nonuniform List<scalar> 
43168
(
3.80463e-05
5.12575e-05
5.12464e-05
5.34029e-05
5.34078e-05
5.12128e-05
5.12144e-05
5.34124e-05
5.1226e-05
5.12116e-05
5.12312e-05
5.1199e-05
5.3397e-05
5.12184e-05
5.11893e-05
5.33713e-05
5.34402e-05
5.12383e-05
5.12357e-05
5.3446e-05
5.12509e-05
5.12337e-05
5.12197e-05
5.34287e-05
5.1211e-05
7.31549e-05
7.31668e-05
3.79978e-05
3.79818e-05
3.7991e-05
3.79657e-05
6.87028e-05
7.31729e-05
6.86815e-05
7.31839e-05
7.08654e-05
7.08763e-05
6.87146e-05
7.31823e-05
6.87002e-05
7.31964e-05
3.80147e-05
3.80254e-05
3.79984e-05
6.07211e-05
6.48871e-05
4.63236e-05
5.12783e-05
6.07113e-05
6.49085e-05
4.63486e-05
7.08576e-05
7.08695e-05
6.07358e-05
4.63103e-05
6.48846e-05
5.12665e-05
6.07075e-05
4.63364e-05
6.49072e-05
6.99325e-05
6.994e-05
5.34011e-05
6.99425e-05
6.99502e-05
7.08511e-05
7.08587e-05
5.33601e-05
6.99409e-05
6.99537e-05
7.08619e-05
7.08492e-05
7.08696e-05
7.08569e-05
5.33947e-05
6.99608e-05
6.99737e-05
6.99481e-05
6.99618e-05
5.11575e-05
6.48589e-05
6.86585e-05
7.317e-05
7.31587e-05
6.86787e-05
6.86619e-05
7.31709e-05
7.31613e-05
6.86768e-05
6.0672e-05
5.11853e-05
6.48846e-05
4.62591e-05
6.48654e-05
4.62226e-05
6.06966e-05
6.06735e-05
5.11844e-05
6.48986e-05
4.62598e-05
6.48837e-05
4.62221e-05
6.07e-05
7.08684e-05
7.08564e-05
5.34031e-05
6.99822e-05
6.99661e-05
6.99703e-05
7.08685e-05
5.11712e-05
6.48724e-05
6.86774e-05
7.31816e-05
7.3169e-05
6.86955e-05
6.06952e-05
5.11987e-05
6.48999e-05
4.62931e-05
6.48777e-05
4.62591e-05
6.07219e-05
6.86644e-05
7.31619e-05
7.31515e-05
6.86785e-05
6.06901e-05
5.11841e-05
4.62844e-05
6.48588e-05
4.62492e-05
6.48432e-05
6.07054e-05
6.48816e-05
4.62898e-05
6.07057e-05
7.31737e-05
6.86716e-05
4.6277e-05
6.48651e-05
6.07112e-05
7.31635e-05
6.86817e-05
7.08598e-05
7.08472e-05
5.3385e-05
6.99475e-05
6.99552e-05
6.99368e-05
6.99445e-05
7.08639e-05
7.08516e-05
6.06674e-05
5.11934e-05
4.62748e-05
6.48801e-05
4.62427e-05
6.48621e-05
6.06957e-05
6.06594e-05
5.11614e-05
4.62631e-05
6.48513e-05
4.62268e-05
6.48325e-05
6.06907e-05
6.8656e-05
7.31711e-05
7.31618e-05
6.86745e-05
6.86492e-05
7.31589e-05
7.31474e-05
6.86678e-05
5.33614e-05
6.99276e-05
6.99348e-05
6.99246e-05
7.08554e-05
7.08565e-05
7.08435e-05
7.08597e-05
7.08714e-05
7.08674e-05
7.0879e-05
6.99664e-05
6.99812e-05
5.34494e-05
6.99775e-05
6.99957e-05
7.08688e-05
7.08764e-05
5.34787e-05
6.99845e-05
7.00024e-05
6.86984e-05
7.31716e-05
6.86806e-05
7.31818e-05
6.07312e-05
6.48894e-05
4.62888e-05
5.12637e-05
6.07084e-05
6.491e-05
4.6322e-05
6.07326e-05
6.49079e-05
4.62872e-05
5.12601e-05
6.07073e-05
6.4926e-05
4.63207e-05
6.87061e-05
7.31847e-05
6.87027e-05
7.31848e-05
6.07391e-05
5.12849e-05
6.49159e-05
4.63468e-05
6.07394e-05
5.12774e-05
6.49297e-05
4.63435e-05
6.99872e-05
6.99722e-05
5.34515e-05
6.99975e-05
6.99826e-05
7.08662e-05
7.08779e-05
7.0873e-05
5.34794e-05
7.00019e-05
6.99883e-05
7.08753e-05
6.07541e-05
6.49058e-05
4.63221e-05
5.12758e-05
6.073e-05
6.49268e-05
4.63536e-05
6.8695e-05
7.31627e-05
6.86809e-05
7.3174e-05
6.07308e-05
4.63115e-05
6.4867e-05
5.12592e-05
6.07121e-05
4.6344e-05
6.48822e-05
6.87191e-05
7.31971e-05
6.07596e-05
5.12964e-05
6.49321e-05
4.63765e-05
6.86968e-05
7.31768e-05
6.07352e-05
5.12774e-05
4.63657e-05
6.48854e-05
6.8685e-05
7.31767e-05
6.86727e-05
7.31867e-05
6.07202e-05
4.63036e-05
6.48716e-05
5.12449e-05
6.07137e-05
4.63354e-05
6.48742e-05
6.86867e-05
7.31648e-05
6.86806e-05
7.31741e-05
6.07246e-05
5.13016e-05
6.4913e-05
4.63786e-05
6.8687e-05
7.31894e-05
6.0724e-05
5.12631e-05
4.63581e-05
6.4878e-05
6.86882e-05
7.31741e-05
6.99533e-05
6.99614e-05
5.34376e-05
6.9964e-05
6.99747e-05
7.08616e-05
7.08732e-05
7.08672e-05
5.34676e-05
6.99697e-05
6.99803e-05
7.08705e-05
6.0729e-05
4.62914e-05
6.48543e-05
5.12369e-05
6.06992e-05
4.63245e-05
6.48772e-05
6.86993e-05
7.31736e-05
6.86792e-05
7.31839e-05
6.86931e-05
7.31599e-05
6.86736e-05
7.31723e-05
6.0748e-05
5.12907e-05
4.63681e-05
6.49129e-05
6.07415e-05
5.1256e-05
4.63485e-05
6.48835e-05
6.87015e-05
7.31833e-05
6.86968e-05
7.3173e-05
7.08532e-05
7.08654e-05
7.08545e-05
7.0867e-05
5.34358e-05
6.99477e-05
6.99569e-05
7.08629e-05
7.08648e-05
7.13513e-05
7.97741e-05
7.3151e-05
7.97687e-05
7.13626e-05
7.3163e-05
7.15352e-05
6.86953e-05
7.12918e-05
7.17365e-05
7.12869e-05
7.17294e-05
7.1541e-05
7.13788e-05
7.97949e-05
7.31766e-05
7.13683e-05
7.98012e-05
7.15346e-05
6.86911e-05
7.12801e-05
7.1715e-05
7.1529e-05
7.1286e-05
7.17248e-05
7.13729e-05
7.98091e-05
7.31779e-05
7.98046e-05
7.13832e-05
7.08726e-05
7.08694e-05
7.15486e-05
6.87081e-05
7.17529e-05
7.1304e-05
7.17464e-05
7.12998e-05
7.15534e-05
7.1388e-05
7.98015e-05
7.31897e-05
7.13775e-05
7.98069e-05
7.15485e-05
6.87061e-05
7.17328e-05
7.1294e-05
7.15433e-05
7.17423e-05
7.1299e-05
7.13821e-05
7.98159e-05
7.31892e-05
7.9811e-05
7.13924e-05
7.08648e-05
7.08625e-05
9.49626e-05
7.31967e-05
7.31903e-05
7.31869e-05
7.31805e-05
9.49637e-05
7.42546e-05
6.53512e-05
7.30069e-05
6.9937e-05
7.42492e-05
6.53588e-05
7.30116e-05
7.43021e-05
6.53611e-05
7.30166e-05
6.99419e-05
7.43034e-05
6.53603e-05
7.30214e-05
9.49569e-05
7.31824e-05
7.3176e-05
9.49562e-05
7.31922e-05
7.31858e-05
7.42589e-05
7.30173e-05
6.99407e-05
6.53761e-05
6.53698e-05
7.30126e-05
7.42628e-05
7.43078e-05
7.30272e-05
6.99478e-05
6.53682e-05
6.53629e-05
7.30221e-05
7.43112e-05
7.08434e-05
7.08511e-05
9.49748e-05
7.3193e-05
7.3187e-05
7.31829e-05
7.31768e-05
9.49761e-05
7.42632e-05
7.30129e-05
6.99376e-05
6.53466e-05
7.30091e-05
7.42663e-05
6.53417e-05
7.43092e-05
7.30247e-05
6.99498e-05
6.53582e-05
7.30199e-05
7.43124e-05
6.5352e-05
7.08546e-05
7.08567e-05
7.08623e-05
7.08643e-05
9.4985e-05
7.31878e-05
7.31818e-05
9.49837e-05
7.31978e-05
7.31919e-05
7.42848e-05
6.53731e-05
6.99562e-05
7.30249e-05
7.30203e-05
6.53661e-05
7.42873e-05
7.43313e-05
6.5389e-05
6.9971e-05
7.30384e-05
7.30334e-05
6.53798e-05
7.43359e-05
7.42759e-05
7.30142e-05
6.53542e-05
6.99511e-05
7.42746e-05
7.30192e-05
6.53608e-05
7.4324e-05
7.30265e-05
6.53657e-05
6.99641e-05
7.43203e-05
7.30317e-05
6.5374e-05
9.49932e-05
7.32024e-05
7.31967e-05
7.31925e-05
7.31867e-05
9.49946e-05
7.15215e-05
7.12667e-05
7.16924e-05
6.86676e-05
7.15153e-05
7.12728e-05
7.17018e-05
7.13631e-05
7.31661e-05
7.97918e-05
7.13739e-05
7.97874e-05
7.13684e-05
7.9779e-05
7.3163e-05
7.13574e-05
7.97837e-05
7.15223e-05
6.86727e-05
7.12792e-05
7.17131e-05
7.15282e-05
7.12735e-05
7.17065e-05
7.15212e-05
7.12669e-05
7.16972e-05
6.86678e-05
7.15154e-05
7.12724e-05
7.17051e-05
7.13628e-05
7.31654e-05
7.97755e-05
7.97711e-05
7.13733e-05
7.13685e-05
7.97652e-05
7.31649e-05
7.13579e-05
7.97685e-05
7.15219e-05
6.86698e-05
7.12784e-05
7.17127e-05
7.12732e-05
7.17071e-05
7.15274e-05
7.08611e-05
7.08638e-05
7.43536e-05
6.54067e-05
6.99778e-05
7.30449e-05
6.53996e-05
7.3038e-05
7.43597e-05
7.43031e-05
6.53992e-05
6.99628e-05
7.30316e-05
7.30273e-05
6.53918e-05
7.43057e-05
6.53873e-05
6.99713e-05
6.53928e-05
9.50075e-05
7.31998e-05
7.32062e-05
7.31903e-05
7.31963e-05
9.50074e-05
7.08612e-05
7.15357e-05
7.17098e-05
7.12807e-05
6.86861e-05
7.15299e-05
7.17195e-05
7.12873e-05
7.13724e-05
7.31766e-05
7.97979e-05
7.13831e-05
7.97934e-05
7.13779e-05
7.97844e-05
7.31741e-05
7.1367e-05
7.97894e-05
7.15368e-05
6.86884e-05
7.17309e-05
7.12931e-05
7.15426e-05
7.17238e-05
7.12876e-05
7.15232e-05
7.1277e-05
7.16817e-05
6.86707e-05
7.15179e-05
7.12817e-05
7.1686e-05
7.13604e-05
7.31584e-05
7.97567e-05
7.97528e-05
7.13709e-05
7.13659e-05
7.97464e-05
7.31552e-05
7.13553e-05
7.97493e-05
7.1524e-05
6.86744e-05
7.12872e-05
7.16935e-05
7.12829e-05
7.16868e-05
7.15294e-05
7.13664e-05
7.31685e-05
7.97779e-05
7.97765e-05
7.13777e-05
7.15268e-05
6.86693e-05
7.16972e-05
7.12863e-05
7.16914e-05
7.12818e-05
7.15326e-05
7.13616e-05
7.3159e-05
7.97541e-05
7.97515e-05
7.13721e-05
7.15238e-05
6.86807e-05
7.12866e-05
7.16917e-05
7.12825e-05
7.16876e-05
7.15293e-05
7.08525e-05
7.08546e-05
9.49722e-05
7.31781e-05
7.31854e-05
9.49708e-05
7.3188e-05
7.31953e-05
7.43187e-05
6.53691e-05
6.99443e-05
7.30266e-05
6.53605e-05
7.3022e-05
7.43222e-05
7.42718e-05
6.53688e-05
6.9953e-05
7.30229e-05
7.30183e-05
6.53599e-05
7.42762e-05
7.43106e-05
7.30163e-05
6.53464e-05
6.99383e-05
6.53541e-05
7.4308e-05
7.30204e-05
7.42659e-05
7.30123e-05
6.53459e-05
6.99484e-05
7.42608e-05
7.30168e-05
6.53544e-05
9.49806e-05
7.31925e-05
7.31998e-05
7.31827e-05
7.319e-05
9.49821e-05
7.08567e-05
7.08589e-05
7.15202e-05
7.1689e-05
7.12667e-05
6.86635e-05
7.15144e-05
7.16984e-05
7.12716e-05
7.13625e-05
7.31657e-05
7.97829e-05
7.9781e-05
7.13729e-05
7.1368e-05
7.97749e-05
7.3165e-05
7.13576e-05
7.97767e-05
7.15212e-05
6.86678e-05
7.17099e-05
7.12777e-05
7.1703e-05
7.12728e-05
7.15274e-05
7.15178e-05
7.16786e-05
7.12655e-05
6.86567e-05
7.15122e-05
7.16847e-05
7.12705e-05
7.1358e-05
7.31545e-05
7.97565e-05
7.97515e-05
7.13688e-05
7.13635e-05
7.97429e-05
7.31514e-05
7.13526e-05
7.9748e-05
7.15189e-05
6.86631e-05
7.16959e-05
7.12767e-05
7.1688e-05
7.12718e-05
7.15248e-05
9.49448e-05
7.31832e-05
7.3177e-05
7.42436e-05
6.53431e-05
6.99238e-05
7.30058e-05
7.42454e-05
6.53357e-05
7.30016e-05
7.43029e-05
6.53586e-05
6.99318e-05
7.30158e-05
7.43034e-05
6.53558e-05
7.30115e-05
7.42431e-05
6.9918e-05
6.53276e-05
7.30003e-05
7.42995e-05
6.5346e-05
6.99261e-05
6.53489e-05
7.30106e-05
9.49501e-05
7.31877e-05
7.31814e-05
9.49507e-05
7.31779e-05
7.31716e-05
7.08479e-05
7.08501e-05
7.0849e-05
7.0851e-05
7.08669e-05
7.08644e-05
7.08745e-05
7.08721e-05
9.50116e-05
7.32104e-05
7.32049e-05
7.32009e-05
7.31954e-05
9.50131e-05
7.42984e-05
6.53798e-05
7.30265e-05
6.99696e-05
7.42963e-05
7.30307e-05
6.53886e-05
7.43477e-05
6.5397e-05
7.30402e-05
6.99859e-05
7.43446e-05
7.30458e-05
6.54065e-05
9.50042e-05
7.31968e-05
7.31912e-05
9.50029e-05
7.32066e-05
7.3201e-05
7.43072e-05
7.30361e-05
6.99745e-05
6.54006e-05
7.30321e-05
7.43117e-05
6.53953e-05
7.4356e-05
7.30522e-05
6.99915e-05
6.54247e-05
7.30473e-05
7.43607e-05
6.54168e-05
7.08757e-05
7.08831e-05
9.50199e-05
7.32045e-05
7.3199e-05
9.50198e-05
7.32138e-05
7.32083e-05
7.43229e-05
7.30373e-05
6.54113e-05
6.99874e-05
7.43194e-05
7.30414e-05
6.54186e-05
7.43734e-05
7.30535e-05
6.54324e-05
7.00074e-05
7.43688e-05
7.30587e-05
6.54411e-05
7.15339e-05
6.86906e-05
7.12905e-05
7.17348e-05
7.12859e-05
7.17289e-05
7.1539e-05
7.13779e-05
7.9778e-05
7.31774e-05
7.13675e-05
7.97834e-05
7.15333e-05
6.86882e-05
7.12799e-05
7.17156e-05
7.1285e-05
7.15279e-05
7.17245e-05
7.1372e-05
7.97915e-05
7.31766e-05
7.9787e-05
7.13822e-05
7.15462e-05
7.12926e-05
7.17385e-05
6.8714e-05
7.15412e-05
7.1297e-05
7.17477e-05
7.13874e-05
7.98142e-05
7.31905e-05
7.13772e-05
7.9819e-05
7.15437e-05
7.12915e-05
7.1737e-05
6.87096e-05
7.1539e-05
7.12959e-05
7.17455e-05
7.13862e-05
7.97961e-05
7.31878e-05
7.13762e-05
7.98003e-05
9.50179e-05
7.32059e-05
7.32124e-05
7.31969e-05
7.32033e-05
9.50171e-05
7.43696e-05
6.54149e-05
7.30462e-05
6.99913e-05
7.3051e-05
7.43642e-05
6.54231e-05
7.43199e-05
6.54059e-05
7.3033e-05
6.99751e-05
6.54113e-05
7.43178e-05
7.30373e-05
9.50127e-05
7.31938e-05
7.32002e-05
7.3203e-05
9.50131e-05
7.32094e-05
7.43719e-05
7.30561e-05
6.99942e-05
6.54362e-05
7.30519e-05
6.5434e-05
7.43733e-05
7.43238e-05
7.30425e-05
6.99792e-05
6.54201e-05
6.54157e-05
7.30386e-05
7.4325e-05
7.08733e-05
7.08708e-05
7.08797e-05
9.50209e-05
7.31996e-05
7.32062e-05
9.5022e-05
7.32085e-05
7.32153e-05
7.43838e-05
7.30561e-05
6.54456e-05
7.00045e-05
6.54526e-05
7.43825e-05
7.30599e-05
7.43323e-05
7.30435e-05
6.54279e-05
6.99929e-05
7.43305e-05
7.30487e-05
6.54345e-05
7.08822e-05
7.15355e-05
6.86907e-05
7.1298e-05
7.17111e-05
7.12939e-05
7.17024e-05
7.15403e-05
7.13756e-05
7.9759e-05
7.31683e-05
7.13652e-05
7.97636e-05
7.1535e-05
6.86865e-05
7.12884e-05
7.16969e-05
7.12928e-05
7.15298e-05
7.17019e-05
7.13697e-05
7.97698e-05
7.31709e-05
7.97675e-05
7.138e-05
7.15577e-05
7.17545e-05
7.13049e-05
6.8724e-05
7.15531e-05
7.17631e-05
7.13088e-05
7.13964e-05
7.98201e-05
7.32003e-05
7.13864e-05
7.98255e-05
7.15459e-05
7.1299e-05
7.17123e-05
6.87037e-05
7.15408e-05
7.13033e-05
7.17212e-05
7.13844e-05
7.97733e-05
7.31806e-05
7.13742e-05
7.97788e-05
7.15391e-05
6.86797e-05
7.17141e-05
7.12976e-05
7.17097e-05
7.12929e-05
7.15446e-05
7.13827e-05
7.97849e-05
7.31806e-05
7.97865e-05
7.13715e-05
7.15391e-05
6.86773e-05
7.16995e-05
7.12874e-05
7.17053e-05
7.15329e-05
7.12919e-05
7.13763e-05
7.97931e-05
7.31835e-05
7.97918e-05
7.13873e-05
7.15358e-05
6.86834e-05
7.12972e-05
7.1709e-05
7.12927e-05
7.17033e-05
7.15414e-05
7.1377e-05
7.97575e-05
7.31683e-05
7.13665e-05
7.97612e-05
7.15352e-05
6.86809e-05
7.12875e-05
7.16923e-05
7.15298e-05
7.12917e-05
7.16996e-05
7.13713e-05
7.97672e-05
7.31713e-05
7.9765e-05
7.13817e-05
7.15499e-05
7.17163e-05
7.12985e-05
6.86948e-05
7.15446e-05
7.17232e-05
7.13035e-05
7.13918e-05
7.97983e-05
7.31935e-05
7.13808e-05
7.9801e-05
7.15475e-05
7.12982e-05
7.17103e-05
6.86965e-05
7.15419e-05
7.13032e-05
7.172e-05
7.13863e-05
7.97711e-05
7.31802e-05
7.1376e-05
7.97752e-05
9.49989e-05
7.32006e-05
7.32077e-05
7.31911e-05
7.31983e-05
9.49991e-05
7.43346e-05
6.53777e-05
7.30279e-05
6.99556e-05
7.30327e-05
7.43295e-05
6.53857e-05
7.42859e-05
6.53752e-05
7.30246e-05
6.99649e-05
6.53826e-05
7.42834e-05
7.3029e-05
9.49916e-05
7.31871e-05
7.31943e-05
7.31968e-05
9.49897e-05
7.3204e-05
7.43411e-05
7.30383e-05
6.996e-05
6.54033e-05
7.30334e-05
6.53953e-05
7.43441e-05
7.4294e-05
7.30349e-05
6.9972e-05
6.53997e-05
6.53917e-05
7.30308e-05
7.42975e-05
7.08687e-05
7.08662e-05
7.08741e-05
9.50046e-05
7.31948e-05
7.32018e-05
9.5005e-05
7.3204e-05
7.32111e-05
7.43539e-05
7.30396e-05
6.54151e-05
6.99736e-05
6.54198e-05
7.43489e-05
7.30444e-05
7.43074e-05
7.30367e-05
6.54074e-05
6.99837e-05
7.43033e-05
7.30416e-05
6.54141e-05
7.08773e-05
7.1534e-05
6.86931e-05
7.17324e-05
7.1289e-05
7.17262e-05
7.12848e-05
7.15389e-05
7.13778e-05
7.97873e-05
7.31775e-05
7.97919e-05
7.13673e-05
7.15339e-05
6.86872e-05
7.17123e-05
7.1279e-05
7.17216e-05
7.15283e-05
7.12837e-05
7.1372e-05
7.97984e-05
7.31802e-05
7.97945e-05
7.13822e-05
7.15314e-05
6.86851e-05
7.17208e-05
7.12883e-05
7.17142e-05
7.12838e-05
7.15366e-05
7.13738e-05
7.976e-05
7.31658e-05
7.13632e-05
7.97649e-05
7.15313e-05
6.86809e-05
7.17013e-05
7.12779e-05
7.15257e-05
7.17083e-05
7.12828e-05
7.1368e-05
7.97728e-05
7.31685e-05
7.97687e-05
7.13784e-05
7.15433e-05
7.17327e-05
7.12898e-05
6.87104e-05
7.15387e-05
7.17452e-05
7.12938e-05
7.13862e-05
7.98022e-05
7.31907e-05
7.13762e-05
7.98072e-05
7.15412e-05
7.17237e-05
7.12891e-05
6.87057e-05
7.15364e-05
7.17309e-05
7.12933e-05
7.13825e-05
7.97758e-05
7.31795e-05
7.13724e-05
7.978e-05
7.08605e-05
7.08582e-05
7.08619e-05
7.08597e-05
9.49711e-05
7.31913e-05
7.31849e-05
9.49699e-05
7.32011e-05
7.31947e-05
7.4275e-05
7.30183e-05
6.53874e-05
6.99498e-05
7.42693e-05
6.53904e-05
7.3023e-05
7.43187e-05
7.30281e-05
6.5372e-05
6.99599e-05
7.43149e-05
6.53791e-05
7.3033e-05
7.087e-05
7.0872e-05
3.79109e-05
3.064e-05
3.06655e-05
3.80766e-05
3.06755e-05
3.06987e-05
2.12368e-05
2.1183e-05
6.60526e-05
5.953e-05
5.95337e-05
5.3384e-05
6.605e-05
5.95206e-05
5.95331e-05
6.60818e-05
5.34179e-05
5.9539e-05
5.95526e-05
5.95445e-05
5.95519e-05
6.60865e-05
6.60999e-05
5.34246e-05
5.95652e-05
5.95688e-05
5.95659e-05
5.95671e-05
6.61046e-05
6.60627e-05
5.34071e-05
5.95364e-05
5.95382e-05
5.95361e-05
5.95381e-05
6.607e-05
6.604e-05
5.33827e-05
5.95107e-05
5.95176e-05
6.60399e-05
5.9516e-05
5.95181e-05
6.61059e-05
5.95656e-05
5.95708e-05
5.34314e-05
6.60967e-05
5.95582e-05
5.95718e-05
6.61273e-05
5.9588e-05
5.95875e-05
5.34367e-05
5.95886e-05
6.61235e-05
5.95872e-05
6.60881e-05
5.9554e-05
5.95548e-05
5.34181e-05
5.95476e-05
6.60807e-05
5.95548e-05
3.79607e-05
3.05799e-05
3.06057e-05
3.05343e-05
3.05606e-05
2.10717e-05
2.11326e-05
3.79335e-05
3.05666e-05
3.05799e-05
3.05069e-05
3.0521e-05
2.10328e-05
2.1101e-05
3.7944e-05
3.05992e-05
3.05808e-05
3.05423e-05
3.05217e-05
2.10485e-05
2.1116e-05
3.79171e-05
3.05744e-05
3.05662e-05
3.05142e-05
3.05071e-05
2.10283e-05
2.10968e-05
3.0608e-05
3.06198e-05
3.80589e-05
3.06631e-05
3.06745e-05
2.12082e-05
2.11445e-05
3.06408e-05
3.06211e-05
3.80694e-05
3.06941e-05
3.0676e-05
2.12218e-05
2.1159e-05
3.06136e-05
3.06063e-05
3.80436e-05
3.06688e-05
3.06617e-05
2.12033e-05
2.11391e-05
3.81205e-05
3.07301e-05
3.07522e-05
2.12845e-05
3.80863e-05
3.06976e-05
3.07071e-05
2.12451e-05
3.80965e-05
3.07269e-05
3.0709e-05
2.12584e-05
3.80709e-05
3.0701e-05
3.06946e-05
2.12391e-05
5.63783e-05
6.07144e-05
6.24521e-05
5.50481e-05
6.24472e-05
5.50583e-05
5.636e-05
5.74669e-05
6.0527e-05
6.43186e-05
6.48959e-05
5.74773e-05
6.05276e-05
6.43222e-05
5.63375e-05
6.07121e-05
6.24311e-05
5.50428e-05
5.63608e-05
6.24382e-05
5.50323e-05
5.74949e-05
6.43364e-05
6.49013e-05
6.05443e-05
6.05436e-05
6.43312e-05
5.74875e-05
5.63864e-05
6.07235e-05
5.50392e-05
6.24732e-05
5.50479e-05
6.24665e-05
5.63726e-05
5.74693e-05
6.05094e-05
6.43272e-05
6.48939e-05
5.74751e-05
6.05115e-05
6.43325e-05
5.63524e-05
6.07169e-05
5.5026e-05
6.24433e-05
5.63649e-05
5.50165e-05
6.24564e-05
5.74924e-05
6.43438e-05
6.48993e-05
6.05285e-05
6.05244e-05
6.4338e-05
5.74815e-05
6.60647e-05
5.34201e-05
5.95356e-05
5.95476e-05
5.95449e-05
5.95483e-05
6.60724e-05
6.60496e-05
5.33696e-05
5.95087e-05
5.95135e-05
6.60589e-05
5.95079e-05
5.95127e-05
6.60691e-05
5.33849e-05
5.95252e-05
5.95345e-05
6.60666e-05
5.95184e-05
5.95351e-05
5.74121e-05
6.42876e-05
6.48509e-05
6.04605e-05
6.42789e-05
6.04536e-05
5.74071e-05
5.63058e-05
6.24055e-05
5.49859e-05
6.06805e-05
5.63185e-05
6.24175e-05
5.49739e-05
5.74558e-05
6.04974e-05
6.48771e-05
6.43155e-05
6.04926e-05
6.43096e-05
5.74503e-05
5.74292e-05
6.42944e-05
6.04763e-05
6.48731e-05
6.04788e-05
5.74347e-05
6.43001e-05
5.63425e-05
6.06875e-05
6.24353e-05
5.49995e-05
6.24277e-05
5.50086e-05
5.63297e-05
5.63018e-05
6.24165e-05
5.49879e-05
6.06832e-05
5.6326e-05
6.24294e-05
5.49771e-05
5.74595e-05
6.05181e-05
6.48939e-05
6.43261e-05
6.43167e-05
6.05128e-05
5.74542e-05
5.74297e-05
6.43041e-05
6.04947e-05
6.48888e-05
5.74413e-05
6.43116e-05
6.04987e-05
5.63453e-05
6.06892e-05
6.24464e-05
5.50013e-05
6.24396e-05
5.50102e-05
5.6322e-05
5.33856e-05
5.95455e-05
5.95455e-05
6.48647e-05
6.04688e-05
6.04635e-05
5.63167e-05
6.24392e-05
5.50155e-05
6.07082e-05
5.63405e-05
6.24475e-05
5.50071e-05
5.7469e-05
6.05102e-05
6.48911e-05
6.4335e-05
6.0505e-05
6.43265e-05
5.7464e-05
5.74346e-05
6.43115e-05
6.04865e-05
6.48856e-05
6.04893e-05
5.74483e-05
6.43197e-05
5.6362e-05
6.07115e-05
6.24648e-05
5.50282e-05
6.24528e-05
5.50369e-05
5.63384e-05
5.62897e-05
5.50042e-05
6.24035e-05
6.06956e-05
5.63136e-05
5.4996e-05
6.24088e-05
5.74377e-05
6.04793e-05
6.48535e-05
6.4293e-05
6.42907e-05
6.04783e-05
5.74311e-05
5.74066e-05
6.4276e-05
6.04665e-05
6.48478e-05
5.74213e-05
6.42809e-05
6.04671e-05
5.63333e-05
6.06978e-05
5.50161e-05
6.24211e-05
5.50246e-05
6.24124e-05
5.63093e-05
5.74596e-05
6.05146e-05
6.48756e-05
6.43076e-05
5.74473e-05
6.05148e-05
6.43033e-05
5.63431e-05
6.0706e-05
6.24277e-05
5.50153e-05
5.63205e-05
6.24238e-05
5.50273e-05
5.7435e-05
6.04813e-05
6.48637e-05
6.42927e-05
6.42932e-05
6.04834e-05
5.74258e-05
5.63255e-05
6.07152e-05
5.5014e-05
6.24162e-05
5.50222e-05
6.24091e-05
5.63124e-05
6.60505e-05
5.33747e-05
5.95207e-05
5.95172e-05
5.95204e-05
6.60466e-05
5.95081e-05
5.63053e-05
5.49846e-05
6.2407e-05
6.06784e-05
5.6317e-05
5.4969e-05
6.24194e-05
5.74579e-05
6.04958e-05
6.48733e-05
6.43175e-05
5.74514e-05
6.0492e-05
6.43134e-05
5.74271e-05
6.42952e-05
6.04806e-05
6.48689e-05
5.74407e-05
6.04829e-05
6.43022e-05
5.6342e-05
6.06863e-05
5.49901e-05
6.24382e-05
5.633e-05
5.50053e-05
6.24297e-05
5.62715e-05
5.49772e-05
6.23901e-05
6.06725e-05
5.62953e-05
5.49608e-05
6.24014e-05
5.74253e-05
6.04642e-05
6.48455e-05
6.42877e-05
6.42809e-05
6.04597e-05
5.74182e-05
5.73938e-05
6.42656e-05
6.04482e-05
6.48397e-05
5.74092e-05
6.42723e-05
6.04496e-05
5.63169e-05
6.06803e-05
5.49811e-05
6.2419e-05
5.49973e-05
6.24121e-05
5.62929e-05
6.60363e-05
5.33506e-05
5.94988e-05
5.95008e-05
5.9489e-05
6.61142e-05
5.34585e-05
5.95836e-05
5.95911e-05
6.61237e-05
5.95887e-05
5.95899e-05
6.61383e-05
5.34685e-05
5.96088e-05
5.96097e-05
6.61338e-05
5.96003e-05
5.96111e-05
5.63847e-05
6.07194e-05
6.2469e-05
5.50412e-05
6.24624e-05
5.50506e-05
5.63625e-05
5.74696e-05
6.05115e-05
6.43223e-05
6.48972e-05
6.43305e-05
5.74764e-05
6.05106e-05
5.63481e-05
6.07162e-05
6.24407e-05
5.50304e-05
6.24522e-05
5.63646e-05
5.50212e-05
5.74948e-05
6.4347e-05
6.49047e-05
6.05234e-05
6.43391e-05
6.05257e-05
5.74876e-05
5.63798e-05
6.0723e-05
6.24873e-05
5.50415e-05
6.24739e-05
5.50508e-05
5.63567e-05
5.74694e-05
6.05378e-05
6.43333e-05
6.49132e-05
5.74752e-05
6.43434e-05
6.05385e-05
5.63392e-05
6.07193e-05
6.24567e-05
5.50314e-05
5.63629e-05
6.24685e-05
5.50224e-05
5.74924e-05
6.43601e-05
6.49204e-05
6.05544e-05
6.43517e-05
5.74862e-05
6.05546e-05
5.63779e-05
6.24793e-05
5.50694e-05
6.07484e-05
5.64017e-05
6.24871e-05
5.50598e-05
5.75046e-05
6.43537e-05
6.05426e-05
6.49217e-05
6.05369e-05
5.75126e-05
6.43617e-05
5.63816e-05
6.24961e-05
5.50683e-05
6.07476e-05
5.63966e-05
6.25051e-05
5.50591e-05
5.75013e-05
6.437e-05
6.05686e-05
6.49344e-05
5.75072e-05
6.43757e-05
6.05694e-05
6.61337e-05
5.34614e-05
5.9594e-05
5.96042e-05
5.96044e-05
5.96018e-05
6.61363e-05
6.61454e-05
5.34685e-05
5.96156e-05
5.96186e-05
5.96065e-05
6.61424e-05
5.96175e-05
5.6401e-05
6.0748e-05
6.24996e-05
5.50585e-05
6.24865e-05
5.50752e-05
5.63768e-05
5.74832e-05
6.05241e-05
6.43436e-05
6.49143e-05
6.43517e-05
5.74872e-05
6.05234e-05
5.63587e-05
6.07382e-05
6.24747e-05
5.50576e-05
6.24832e-05
5.63823e-05
5.50444e-05
5.75043e-05
6.43674e-05
6.4922e-05
6.0536e-05
6.43625e-05
6.05415e-05
5.7499e-05
5.63705e-05
6.07272e-05
5.50524e-05
6.24482e-05
5.50621e-05
6.24384e-05
5.63477e-05
5.74495e-05
6.05001e-05
6.42977e-05
6.48712e-05
5.74546e-05
6.43048e-05
6.05012e-05
5.63287e-05
6.07178e-05
5.50443e-05
6.24297e-05
5.63524e-05
5.50351e-05
6.24351e-05
5.74699e-05
6.43151e-05
6.48779e-05
6.05172e-05
6.43078e-05
5.7464e-05
6.05143e-05
5.63944e-05
6.25056e-05
5.50909e-05
6.0771e-05
5.64185e-05
6.25192e-05
5.50785e-05
5.75149e-05
6.4379e-05
6.05654e-05
6.49386e-05
6.05673e-05
5.75244e-05
6.43868e-05
5.63634e-05
5.50788e-05
6.24573e-05
6.07434e-05
5.63878e-05
5.50688e-05
6.24642e-05
5.74828e-05
6.43202e-05
6.05382e-05
6.48936e-05
5.74882e-05
6.43278e-05
6.05385e-05
5.63654e-05
6.07138e-05
5.50422e-05
6.24413e-05
5.50514e-05
6.24323e-05
5.63427e-05
5.74394e-05
6.04982e-05
6.42979e-05
6.48737e-05
6.04982e-05
5.74526e-05
6.43004e-05
5.63274e-05
6.07131e-05
5.50362e-05
6.24244e-05
5.50274e-05
5.63477e-05
6.24289e-05
5.74674e-05
6.43101e-05
6.48756e-05
6.05053e-05
6.05114e-05
6.43094e-05
5.74529e-05
5.6375e-05
6.24561e-05
5.50739e-05
6.07336e-05
5.63965e-05
6.24648e-05
5.50639e-05
5.75055e-05
6.43444e-05
6.05581e-05
6.49203e-05
5.7513e-05
6.05591e-05
6.43497e-05
5.63575e-05
5.50672e-05
6.24507e-05
6.07337e-05
5.63814e-05
5.50577e-05
6.2457e-05
5.74669e-05
6.43197e-05
6.05275e-05
6.48818e-05
5.7481e-05
6.4322e-05
6.05224e-05
6.60999e-05
5.34487e-05
5.95659e-05
5.95731e-05
5.95774e-05
5.95724e-05
6.6109e-05
6.61202e-05
5.34557e-05
5.9593e-05
5.95969e-05
5.95843e-05
6.61174e-05
5.9588e-05
5.63562e-05
6.0718e-05
5.50289e-05
6.24575e-05
5.5038e-05
6.24441e-05
5.63351e-05
5.74361e-05
6.04735e-05
6.42989e-05
6.48632e-05
6.0477e-05
5.74427e-05
6.43036e-05
5.63127e-05
6.07103e-05
5.50174e-05
6.24299e-05
5.50045e-05
5.63368e-05
6.24383e-05
5.74604e-05
6.43214e-05
6.48682e-05
6.04895e-05
6.04921e-05
6.43142e-05
5.74538e-05
5.63922e-05
5.5069e-05
6.24835e-05
6.07571e-05
5.64066e-05
5.50605e-05
6.24933e-05
5.74939e-05
6.43541e-05
6.05441e-05
6.49235e-05
5.75089e-05
6.05419e-05
6.43586e-05
5.63518e-05
5.50592e-05
6.2468e-05
6.07506e-05
5.63754e-05
5.505e-05
6.24772e-05
5.74711e-05
6.43326e-05
6.05108e-05
6.48919e-05
5.74781e-05
6.43408e-05
6.05112e-05
6.60857e-05
5.34155e-05
5.95655e-05
5.9563e-05
6.6084e-05
5.95649e-05
5.95627e-05
3.81766e-05
5.13362e-05
5.13253e-05
5.34651e-05
3.82804e-05
5.13922e-05
5.13818e-05
5.35187e-05
3.83523e-05
5.14273e-05
5.14196e-05
5.35531e-05
3.84055e-05
5.14517e-05
5.14465e-05
5.35726e-05
3.84423e-05
5.14679e-05
5.14649e-05
5.35731e-05
3.84663e-05
5.14757e-05
5.14762e-05
5.35742e-05
3.84805e-05
5.14769e-05
5.14834e-05
5.35796e-05
3.84875e-05
5.14754e-05
5.14844e-05
5.35807e-05
3.84901e-05
5.1472e-05
5.14833e-05
5.35831e-05
3.84901e-05
5.14701e-05
5.14788e-05
5.3592e-05
3.84899e-05
5.14701e-05
5.14738e-05
5.3594e-05
3.84896e-05
5.14705e-05
5.14697e-05
5.35996e-05
3.849e-05
5.14715e-05
5.14677e-05
5.35963e-05
3.84902e-05
5.14733e-05
5.14688e-05
5.35956e-05
3.84911e-05
5.14772e-05
5.14729e-05
5.36026e-05
3.84933e-05
5.14811e-05
5.14793e-05
5.36145e-05
3.84967e-05
5.14852e-05
5.14861e-05
5.36202e-05
3.85007e-05
5.14894e-05
5.14951e-05
5.36086e-05
3.84699e-05
5.14843e-05
5.14931e-05
5.3578e-05
4.0356e-05
4.9235e-05
4.92465e-05
5.32351e-05
5.34868e-05
5.13077e-05
5.12986e-05
5.34836e-05
5.13188e-05
5.13e-05
5.1319e-05
5.1286e-05
5.34725e-05
5.13079e-05
5.12798e-05
5.34298e-05
5.35144e-05
5.35379e-05
5.13248e-05
5.13121e-05
5.13729e-05
5.1355e-05
5.35099e-05
5.35296e-05
5.13349e-05
5.13147e-05
5.1379e-05
5.13605e-05
5.13014e-05
5.13813e-05
5.13509e-05
5.34988e-05
5.3515e-05
5.1296e-05
5.13697e-05
5.13468e-05
5.34938e-05
5.35559e-05
5.35583e-05
5.13858e-05
5.13668e-05
5.14185e-05
5.1399e-05
5.35503e-05
5.35543e-05
5.13907e-05
5.13724e-05
5.14196e-05
5.14028e-05
5.13644e-05
5.14197e-05
5.13998e-05
5.35338e-05
5.3541e-05
5.13602e-05
5.1411e-05
5.13952e-05
5.35312e-05
5.35779e-05
5.35755e-05
5.14275e-05
5.14074e-05
5.14519e-05
5.14318e-05
5.35709e-05
5.35618e-05
5.14275e-05
5.14103e-05
5.14496e-05
5.14315e-05
5.14087e-05
5.14466e-05
5.14337e-05
5.35582e-05
5.35563e-05
5.14039e-05
5.14402e-05
5.14301e-05
5.355e-05
5.35975e-05
5.35821e-05
5.14592e-05
5.14392e-05
5.14764e-05
5.14567e-05
5.3577e-05
5.35588e-05
5.14566e-05
5.14376e-05
5.14731e-05
5.14539e-05
5.14407e-05
5.14649e-05
5.14578e-05
5.35783e-05
5.35584e-05
5.14378e-05
5.14618e-05
5.14574e-05
5.35691e-05
5.36116e-05
5.35769e-05
5.14819e-05
5.14615e-05
5.14914e-05
5.14716e-05
5.35777e-05
5.35392e-05
5.14782e-05
5.1458e-05
5.14873e-05
5.14685e-05
5.14624e-05
5.14743e-05
5.14716e-05
5.35808e-05
5.35637e-05
5.14621e-05
5.14742e-05
5.14721e-05
5.35485e-05
5.35927e-05
5.35859e-05
5.14948e-05
5.14757e-05
5.14976e-05
5.14792e-05
5.35556e-05
5.35452e-05
5.14901e-05
5.14717e-05
5.14935e-05
5.1477e-05
5.14757e-05
5.14767e-05
5.14794e-05
5.35912e-05
5.35761e-05
5.14758e-05
5.14819e-05
5.14804e-05
5.35579e-05
5.36069e-05
5.35936e-05
5.14988e-05
5.14794e-05
5.14992e-05
5.14773e-05
5.35602e-05
5.3532e-05
5.14953e-05
5.14794e-05
5.14953e-05
5.1481e-05
5.14801e-05
5.14752e-05
5.14799e-05
5.35914e-05
5.35791e-05
5.14827e-05
5.14842e-05
5.14826e-05
5.35637e-05
5.36084e-05
5.35914e-05
5.14995e-05
5.14776e-05
5.14984e-05
5.14758e-05
5.3552e-05
5.35356e-05
5.14955e-05
5.14815e-05
5.14948e-05
5.14809e-05
5.14799e-05
5.14723e-05
5.14788e-05
5.35936e-05
5.35732e-05
5.14823e-05
5.14834e-05
5.14793e-05
5.35565e-05
5.36057e-05
5.35875e-05
5.14981e-05
5.14757e-05
5.14943e-05
5.14733e-05
5.3556e-05
5.35574e-05
5.14945e-05
5.14808e-05
5.14901e-05
5.14777e-05
5.14789e-05
5.147e-05
5.14777e-05
5.35938e-05
5.35652e-05
5.14794e-05
5.14793e-05
5.14781e-05
5.3569e-05
5.36013e-05
5.35883e-05
5.14939e-05
5.14733e-05
5.14899e-05
5.14716e-05
5.35761e-05
5.35721e-05
5.14898e-05
5.14778e-05
5.14864e-05
5.14737e-05
5.14778e-05
5.14695e-05
5.14768e-05
5.35806e-05
5.35653e-05
5.14782e-05
5.14744e-05
5.14774e-05
5.35787e-05
5.36035e-05
5.35898e-05
5.14898e-05
5.14718e-05
5.14877e-05
5.14711e-05
5.35871e-05
5.35697e-05
5.14864e-05
5.14731e-05
5.1484e-05
5.1468e-05
5.14773e-05
5.14698e-05
5.1477e-05
5.35829e-05
5.35473e-05
5.14778e-05
5.14698e-05
5.14762e-05
5.35839e-05
5.36116e-05
5.35808e-05
5.14877e-05
5.14715e-05
5.14851e-05
5.14703e-05
5.35944e-05
5.35771e-05
5.14838e-05
5.14678e-05
5.14793e-05
5.1464e-05
5.14776e-05
5.14705e-05
5.14768e-05
5.35682e-05
5.35503e-05
5.14763e-05
5.14673e-05
5.14744e-05
5.35769e-05
5.36012e-05
5.35898e-05
5.14851e-05
5.14708e-05
5.14815e-05
5.14692e-05
5.3594e-05
5.35839e-05
5.14791e-05
5.14638e-05
5.14756e-05
5.14618e-05
5.14775e-05
5.14718e-05
5.14768e-05
5.35633e-05
5.35594e-05
5.14746e-05
5.14673e-05
5.14731e-05
5.35773e-05
5.36049e-05
5.35653e-05
5.14815e-05
5.14698e-05
5.14775e-05
5.14684e-05
5.35994e-05
5.35911e-05
5.14757e-05
5.14628e-05
5.14727e-05
5.14633e-05
5.14781e-05
5.1475e-05
5.14791e-05
5.35737e-05
5.3568e-05
5.1474e-05
5.14704e-05
5.14734e-05
5.35766e-05
5.3581e-05
5.35813e-05
5.14782e-05
5.14695e-05
5.14775e-05
5.14687e-05
5.36056e-05
5.35918e-05
5.14737e-05
5.14656e-05
5.14734e-05
5.14687e-05
5.14811e-05
5.14788e-05
5.14832e-05
5.3587e-05
5.35854e-05
5.14748e-05
5.14764e-05
5.14758e-05
5.35955e-05
5.35996e-05
5.3584e-05
5.14795e-05
5.14706e-05
5.14806e-05
5.14713e-05
5.36062e-05
5.35872e-05
5.14756e-05
5.1472e-05
5.14775e-05
5.1476e-05
5.14859e-05
5.14826e-05
5.1488e-05
5.35997e-05
5.3576e-05
5.14783e-05
5.14825e-05
5.14806e-05
5.3604e-05
5.35951e-05
5.35787e-05
5.14833e-05
5.1474e-05
5.14847e-05
5.14754e-05
5.35892e-05
5.35748e-05
5.14806e-05
5.14796e-05
5.14836e-05
5.14829e-05
5.14909e-05
5.14863e-05
5.14925e-05
5.36071e-05
5.35899e-05
5.14837e-05
5.14907e-05
5.14868e-05
5.36083e-05
5.36061e-05
5.35832e-05