/*--------------------------------*- C++ -*----------------------------------*\
| =========                 |                                                 |
| \\      /  F ield         | OpenFOAM: The Open Source CFD Toolbox           |
|  \\    /   O peration     | Version:  2312                                  |
|   \\  /    A nd           | Website:  www.openfoam.com                      |
|    \\/     M anipulation  |                                                 |
\*---------------------------------------------------------------------------*/
FoamFile
{
    version     2.0;
    format      ascii;
    arch        "LSB;label=32;scalar=64";
    class       volScalarField;
    location    "300";
    object      nut;
}
// * * * * * * * * * * * * * * * * * * * * * * * * * * * * * * * * * * * * * //

dimensions      [0 2 -1 0 0 0 0];

internalField   nonuniform List<scalar> 
43168
(
0.000199069
0.000196555
0.000196519
0.000179059
0.000179219
0.000196334
0.00019629
0.000179251
0.000196414
0.000196305
0.000196432
0.00019623
0.000179179
0.000196394
0.000196206
0.000179075
0.000179206
0.000196461
0.000196405
0.000179167
0.000196537
0.000196441
0.000196362
0.000179173
0.000196343
5.06576e-05
5.06566e-05
0.00019883
0.000198518
0.00019854
0.000198363
9.98472e-05
5.06679e-05
9.97933e-05
5.067e-05
2.38431e-05
2.38452e-05
9.98749e-05
5.06604e-05
9.98383e-05
5.06705e-05
0.000198717
0.000198799
0.000198612
0.000143092
0.000103422
0.000204631
0.000196671
0.000143048
0.000103485
0.000204785
2.38401e-05
2.38423e-05
0.000143147
0.000204593
0.000103418
0.000196636
0.00014303
0.000204756
0.000103485
7.79153e-05
7.79099e-05
0.000179216
7.79352e-05
7.79287e-05
2.38422e-05
2.38409e-05
0.00017899
7.79374e-05
7.79393e-05
2.38444e-05
2.3842e-05
2.3843e-05
2.38407e-05
0.000179012
7.79654e-05
7.79654e-05
7.79425e-05
7.79463e-05
0.000196051
0.000103382
9.97484e-05
5.06641e-05
5.06611e-05
9.98e-05
9.97581e-05
5.06616e-05
5.06582e-05
9.97961e-05
0.000142897
0.000196193
0.000103436
0.000204341
0.000103383
0.000204159
0.000143008
0.000142904
0.000196145
0.00010345
0.000204307
0.000103403
0.00020412
0.000143018
2.38435e-05
2.38412e-05
0.000178968
7.79748e-05
7.79693e-05
7.79504e-05
2.38444e-05
0.000196139
0.000103402
9.97937e-05
5.06625e-05
5.06564e-05
9.98382e-05
0.000142976
0.000196275
0.000103459
0.00020446
0.000103398
0.000204325
0.000143088
9.97698e-05
5.06543e-05
5.0653e-05
9.98063e-05
0.000142978
0.00019619
0.000204401
0.000103375
0.000204256
0.000103328
0.000143047
0.000103427
0.000204481
0.000143054
5.06616e-05
9.9783e-05
0.000204336
0.0001034
0.000143083
5.06568e-05
9.98132e-05
2.38404e-05
2.38382e-05
0.000178979
7.79292e-05
7.79542e-05
7.79093e-05
7.79343e-05
2.38437e-05
2.38414e-05
0.000142884
0.000196268
0.000204437
0.000103425
0.000204269
0.000103372
0.00014301
0.00014285
0.000196083
0.000204284
0.000103357
0.000204134
0.000103301
0.000142984
9.97406e-05
5.0661e-05
5.06595e-05
9.97878e-05
9.97225e-05
5.06515e-05
5.06489e-05
9.97715e-05
0.000178876
7.79164e-05
7.79103e-05
7.78915e-05
2.38408e-05
2.38394e-05
2.38371e-05
2.38441e-05
2.38462e-05
2.38428e-05
2.38451e-05
7.7965e-05
7.79692e-05
0.00017943
7.79856e-05
7.79956e-05
2.38459e-05
2.38447e-05
0.00017932
7.79892e-05
7.79985e-05
9.98393e-05
5.06594e-05
9.97945e-05
5.06646e-05
0.000143128
0.00010343
0.000204507
0.00019659
0.000143029
0.000103491
0.000204679
0.000143132
0.000103459
0.000204462
0.000196536
0.000143026
0.000103518
0.00020464
9.98436e-05
5.0668e-05
9.98388e-05
5.06683e-05
0.000143129
0.000196703
0.000103488
0.000204818
0.000143142
0.000196633
0.000103511
0.000204771
7.79735e-05
7.79711e-05
0.000179427
7.79961e-05
7.79907e-05
2.38441e-05
2.38463e-05
2.38447e-05
0.000179311
7.79939e-05
7.79917e-05
2.38459e-05
0.00014321
0.000103455
0.000204657
0.000196664
0.0001431
0.000103516
0.000204825
9.98375e-05
5.0652e-05
9.98012e-05
5.06573e-05
0.000143145
0.000204585
0.000103382
0.00019657
0.000143046
0.000204762
0.000103427
9.98757e-05
5.06715e-05
0.000143203
0.000196772
0.000103512
0.000204951
9.98299e-05
5.06607e-05
0.000143132
0.000196666
0.00020488
0.000103417
9.98065e-05
5.06646e-05
9.97735e-05
5.06657e-05
0.000143095
0.000204522
0.000103404
0.000196495
0.000143063
0.000204696
0.000103418
9.9815e-05
5.06587e-05
9.98002e-05
5.06605e-05
0.000143083
0.00019677
0.000103479
0.000204916
9.97984e-05
5.06687e-05
0.000143085
0.000196595
0.000204825
0.000103411
9.98064e-05
5.06574e-05
7.7931e-05
7.79564e-05
0.000179393
7.79514e-05
7.79816e-05
2.38434e-05
2.38456e-05
2.3842e-05
0.000179292
7.79523e-05
7.79823e-05
2.38452e-05
0.000143119
0.000204478
0.000103346
0.000196478
0.000142996
0.000204655
0.000103412
9.98402e-05
5.06643e-05
9.97871e-05
5.06673e-05
9.98243e-05
5.065e-05
9.97729e-05
5.06567e-05
0.000143181
0.000196741
0.000204889
0.000103483
0.000143155
0.000196582
0.000204789
0.00010341
9.98327e-05
5.0664e-05
9.98191e-05
5.06548e-05
2.38405e-05
2.38427e-05
2.38391e-05
2.38413e-05
0.000179169
7.79356e-05
7.7932e-05
2.38423e-05
2.3841e-05
2.02735e-05
7.91344e-05
5.06593e-05
7.91187e-05
2.02751e-05
5.06577e-05
3.66408e-05
9.98225e-05
4.09704e-05
9.45383e-05
4.09685e-05
9.45168e-05
3.66428e-05
2.02779e-05
7.91456e-05
5.0667e-05
2.02763e-05
7.91641e-05
3.66406e-05
9.98249e-05
4.09661e-05
9.44891e-05
3.66389e-05
4.09686e-05
9.4518e-05
2.02772e-05
7.91725e-05
5.06664e-05
7.91573e-05
2.02787e-05
2.38444e-05
2.38439e-05
3.66446e-05
9.98519e-05
9.45742e-05
4.09731e-05
9.45535e-05
4.09717e-05
3.6646e-05
2.02795e-05
7.91559e-05
5.06667e-05
2.02779e-05
7.91728e-05
3.66444e-05
9.98597e-05
9.45269e-05
4.09697e-05
3.66428e-05
9.45555e-05
4.09716e-05
2.02787e-05
7.91829e-05
5.06637e-05
7.91671e-05
2.02803e-05
2.38414e-05
2.38411e-05
8.15627e-05
2.16699e-05
2.16667e-05
2.16685e-05
2.16652e-05
8.15723e-05
0.000105116
0.000128137
4.85792e-05
7.79305e-05
0.000105089
0.000128175
4.85808e-05
0.000105119
0.000128134
4.85687e-05
7.79188e-05
0.000105111
0.000128141
4.85707e-05
8.15673e-05
2.16678e-05
2.16646e-05
8.15586e-05
2.16692e-05
2.1666e-05
0.000105109
4.85827e-05
7.79264e-05
0.000128229
0.000128196
4.85811e-05
0.000105131
0.000105117
4.85724e-05
7.79195e-05
0.000128162
0.000128132
4.85701e-05
0.000105137
2.38409e-05
2.38396e-05
8.15809e-05
2.16696e-05
2.16663e-05
2.1668e-05
2.16648e-05
8.15901e-05
0.000105108
4.85833e-05
7.79261e-05
0.000128113
4.85822e-05
0.000105128
0.000128086
0.00010511
4.85708e-05
7.79277e-05
0.000128112
4.85695e-05
0.000105129
0.00012808
2.3843e-05
2.38433e-05
2.38417e-05
2.3842e-05
8.15974e-05
2.16688e-05
2.16656e-05
8.15881e-05
2.16704e-05
2.16671e-05
0.000105146
0.000128189
7.79511e-05
4.85877e-05
4.85859e-05
0.000128153
0.000105166
0.000105149
0.000128199
7.79562e-05
4.85755e-05
4.85744e-05
0.000128156
0.000105173
0.000105144
4.85834e-05
0.000128122
7.79528e-05
0.000105129
4.85856e-05
0.000128156
0.00010515
4.85716e-05
0.000128119
7.79541e-05
0.000105129
4.85733e-05
0.000128159
8.1597e-05
2.16711e-05
2.1668e-05
2.16696e-05
2.16664e-05
8.16065e-05
3.66368e-05
4.09615e-05
9.44508e-05
9.9779e-05
3.6635e-05
4.09644e-05
9.44792e-05
2.02754e-05
5.06642e-05
7.91532e-05
2.0277e-05
7.91387e-05
2.02761e-05
7.91313e-05
5.06611e-05
2.02745e-05
7.91456e-05
3.66371e-05
9.97796e-05
4.09663e-05
9.4498e-05
3.66387e-05
4.09636e-05
9.44779e-05
3.66358e-05
4.09622e-05
9.44597e-05
9.97804e-05
3.66341e-05
4.09642e-05
9.44853e-05
2.0275e-05
5.06569e-05
7.91354e-05
7.91206e-05
2.02765e-05
2.02757e-05
7.91148e-05
5.06591e-05
2.02742e-05
7.91284e-05
3.66361e-05
9.97723e-05
4.0966e-05
9.44962e-05
4.09638e-05
9.44782e-05
3.66375e-05
2.38421e-05
2.38425e-05
0.000105187
0.000128236
7.79595e-05
4.85786e-05
0.0001282
4.85731e-05
0.000105218
0.000105179
0.000128262
7.79578e-05
4.85882e-05
4.85866e-05
0.000128225
0.000105199
0.000128162
7.79588e-05
0.000128194
8.16096e-05
2.16685e-05
2.16715e-05
2.1667e-05
2.167e-05
8.16191e-05
2.38434e-05
3.66399e-05
9.44881e-05
4.09642e-05
9.98218e-05
3.66386e-05
9.45163e-05
4.09681e-05
2.0277e-05
5.06611e-05
7.91625e-05
2.02786e-05
7.91479e-05
2.02777e-05
7.91384e-05
5.06597e-05
2.02761e-05
7.91538e-05
3.66404e-05
9.98143e-05
9.45352e-05
4.09697e-05
3.66421e-05
9.4514e-05
4.09669e-05
3.66356e-05
4.09643e-05
9.44416e-05
9.97923e-05
3.66344e-05
4.09659e-05
9.44571e-05
2.02746e-05
5.06533e-05
7.91162e-05
7.91021e-05
2.02761e-05
2.02753e-05
7.9096e-05
5.06498e-05
2.02738e-05
7.91082e-05
3.6636e-05
9.97901e-05
4.09677e-05
9.44691e-05
4.09665e-05
9.44471e-05
3.66374e-05
2.02765e-05
5.06583e-05
7.9133e-05
7.91221e-05
2.02781e-05
3.66383e-05
9.97698e-05
9.44656e-05
4.09671e-05
9.44434e-05
4.0966e-05
3.66399e-05
2.0275e-05
5.06565e-05
7.91094e-05
7.90973e-05
2.02765e-05
3.66366e-05
9.98035e-05
4.09684e-05
9.44619e-05
4.09674e-05
9.44466e-05
3.66379e-05
2.38392e-05
2.38395e-05
8.15883e-05
2.16653e-05
2.16687e-05
8.15789e-05
2.16668e-05
2.16702e-05
0.000105134
0.000128154
7.79179e-05
4.85728e-05
0.000128114
4.85716e-05
0.000105156
0.000105131
0.000128191
7.79453e-05
4.85866e-05
4.85855e-05
0.000128148
0.000105155
0.000105132
4.85697e-05
0.000128074
7.79168e-05
0.000128111
0.000105114
4.85705e-05
0.000105136
4.85831e-05
0.000128109
7.79473e-05
0.000105111
4.85846e-05
0.00012815
8.1589e-05
2.16676e-05
2.1671e-05
2.16661e-05
2.16695e-05
8.15987e-05
2.38424e-05
2.38427e-05
3.6637e-05
9.44464e-05
4.09614e-05
9.97667e-05
3.66354e-05
9.4474e-05
4.0963e-05
2.02765e-05
5.06576e-05
7.91429e-05
7.91325e-05
2.0278e-05
2.02772e-05
7.91264e-05
5.06592e-05
2.02757e-05
7.91365e-05
3.66373e-05
9.97638e-05
9.44942e-05
4.0965e-05
9.44732e-05
4.09633e-05
3.66388e-05
3.66335e-05
9.44247e-05
4.09606e-05
9.97502e-05
3.66325e-05
9.44452e-05
4.09622e-05
2.02739e-05
5.06514e-05
7.91109e-05
7.90951e-05
2.02755e-05
2.02746e-05
7.90857e-05
5.06482e-05
2.0273e-05
7.91019e-05
3.66342e-05
9.97521e-05
9.44646e-05
4.09643e-05
9.44395e-05
4.09627e-05
3.66354e-05
8.15589e-05
2.16679e-05
2.16647e-05
0.000105079
0.000128128
7.79036e-05
4.85789e-05
0.000105098
0.000128091
4.85776e-05
0.000105113
0.000128141
7.78997e-05
4.8569e-05
0.00010513
0.000128119
4.85672e-05
0.000105097
7.79031e-05
0.000128082
4.8577e-05
0.000105121
0.000128086
7.78992e-05
0.000128108
4.85672e-05
8.15556e-05
2.16686e-05
2.16654e-05
8.15638e-05
2.16671e-05
2.16639e-05
2.38395e-05
2.38399e-05
2.38381e-05
2.38384e-05
2.38453e-05
2.3845e-05
2.38441e-05
2.38438e-05
8.16137e-05
2.16727e-05
2.16695e-05
2.16712e-05
2.1668e-05
8.16246e-05
0.000105186
0.000128192
4.8589e-05
7.79764e-05
0.000105169
4.85896e-05
0.000128235
0.000105194
0.000128205
4.85762e-05
7.7983e-05
0.000105175
4.85782e-05
0.000128249
8.16154e-05
2.16704e-05
2.16672e-05
8.16057e-05
2.16719e-05
2.16688e-05
0.00010519
4.85918e-05
7.79744e-05
0.000128267
4.85909e-05
0.000105214
0.000128238
0.000105196
4.85806e-05
7.79824e-05
0.000128303
4.85791e-05
0.00010522
0.000128264
2.38471e-05
2.3846e-05
8.1631e-05
2.16719e-05
2.16688e-05
8.16222e-05
2.16733e-05
2.16702e-05
0.000105236
4.85926e-05
0.000128286
7.80002e-05
0.000105213
4.85938e-05
0.000128323
0.000105245
4.85809e-05
0.000128307
7.80141e-05
0.00010522
4.85833e-05
0.00012835
3.66398e-05
9.98134e-05
4.097e-05
9.45372e-05
4.09682e-05
9.4518e-05
3.66413e-05
2.02773e-05
7.91283e-05
5.06648e-05
2.02758e-05
7.91448e-05
3.66392e-05
9.98203e-05
4.09664e-05
9.44917e-05
4.09682e-05
3.66376e-05
9.45185e-05
2.02765e-05
7.91539e-05
5.06614e-05
7.9139e-05
2.0278e-05
3.66444e-05
4.09704e-05
9.45312e-05
9.98701e-05
3.6643e-05
4.09721e-05
9.4559e-05
2.02795e-05
7.917e-05
5.0673e-05
2.0278e-05
7.91858e-05
3.66429e-05
4.09702e-05
9.45313e-05
9.98627e-05
3.66415e-05
4.09717e-05
9.4558e-05
2.02788e-05
7.91508e-05
5.06681e-05
2.02773e-05
7.91656e-05
8.16197e-05
2.16699e-05
2.16729e-05
2.16685e-05
2.16715e-05
8.16282e-05
0.000105238
0.000128249
4.8579e-05
7.79885e-05
4.85812e-05
0.000105211
0.000128289
0.000105232
0.000128268
4.85894e-05
7.79818e-05
0.000128299
0.000105213
4.85905e-05
8.16239e-05
2.16679e-05
2.16709e-05
2.16694e-05
8.16156e-05
2.16724e-05
0.000105227
4.85842e-05
7.79823e-05
0.00012833
4.85825e-05
0.000128312
0.000105243
0.000105224
4.85921e-05
7.79789e-05
0.000128324
0.000128296
4.85917e-05
0.00010524
2.38454e-05
2.3845e-05
2.38459e-05
8.16313e-05
2.1669e-05
2.1672e-05
8.16237e-05
2.16704e-05
2.16734e-05
0.000105268
4.85845e-05
0.000128351
7.80063e-05
0.000128388
0.00010525
4.85861e-05
0.000105254
4.85921e-05
0.000128334
7.80063e-05
0.000105236
4.85944e-05
0.00012837
2.38471e-05
3.66392e-05
9.98211e-05
4.09711e-05
9.44992e-05
4.09699e-05
9.44728e-05
3.66404e-05
2.02769e-05
7.91086e-05
5.06556e-05
2.02754e-05
7.91239e-05
3.66388e-05
9.98218e-05
4.09682e-05
9.4467e-05
4.09695e-05
3.66375e-05
9.44838e-05
2.02761e-05
7.91299e-05
5.06588e-05
7.91188e-05
2.02776e-05
3.66475e-05
9.45669e-05
4.09734e-05
9.98944e-05
3.66461e-05
9.4594e-05
4.09744e-05
2.0281e-05
7.91784e-05
5.06703e-05
2.02795e-05
7.91955e-05
3.66422e-05
4.09713e-05
9.44899e-05
9.98541e-05
3.66407e-05
4.09725e-05
9.45168e-05
2.02783e-05
7.9124e-05
5.06607e-05
2.02768e-05
7.91411e-05
3.66419e-05
9.97854e-05
9.44944e-05
4.09704e-05
9.4476e-05
4.09689e-05
3.66434e-05
2.02789e-05
7.91318e-05
5.06634e-05
7.91431e-05
2.02773e-05
3.66418e-05
9.97929e-05
9.44573e-05
4.09675e-05
9.44794e-05
3.66399e-05
4.09687e-05
2.02781e-05
7.91497e-05
5.06673e-05
7.91388e-05
2.02797e-05
3.66395e-05
9.9801e-05
4.0971e-05
9.4491e-05
4.09698e-05
9.44725e-05
3.66408e-05
2.02772e-05
7.91038e-05
5.0656e-05
2.02757e-05
7.91178e-05
3.66393e-05
9.98063e-05
4.09687e-05
9.44522e-05
3.66379e-05
4.09696e-05
9.44753e-05
2.02764e-05
7.91237e-05
5.06597e-05
7.91126e-05
2.02779e-05
3.66449e-05
9.44855e-05
4.09704e-05
9.98262e-05
3.66434e-05
9.451e-05
4.09722e-05
2.02804e-05
7.91456e-05
5.0669e-05
2.02788e-05
7.91592e-05
3.66423e-05
4.09711e-05
9.44817e-05
9.98345e-05
3.6641e-05
4.09727e-05
9.45106e-05
2.02787e-05
7.91188e-05
5.06627e-05
2.02772e-05
7.91335e-05
8.16053e-05
2.16691e-05
2.16725e-05
2.16676e-05
2.1671e-05
8.16143e-05
0.00010518
0.000128166
4.85733e-05
7.79404e-05
4.85753e-05
0.000105155
0.000128204
0.000105172
0.000128194
4.85878e-05
7.79681e-05
0.000128231
0.000105154
4.85881e-05
8.16073e-05
2.16669e-05
2.16703e-05
2.16684e-05
8.15965e-05
2.16718e-05
0.000105179
4.85772e-05
7.79381e-05
0.000128257
4.85749e-05
0.000128219
0.000105198
0.000105175
4.85901e-05
7.79711e-05
0.000128282
0.000128243
4.85902e-05
0.000105196
2.38446e-05
2.38443e-05
2.38432e-05
8.16186e-05
2.16683e-05
2.16717e-05
8.16104e-05
2.16697e-05
2.16731e-05
0.000105217
4.85777e-05
0.000128282
7.79648e-05
0.000128306
0.000105192
4.85791e-05
0.000105214
4.85914e-05
0.00012829
7.79949e-05
0.000105191
4.85925e-05
0.000128325
2.38465e-05
3.66416e-05
9.98171e-05
9.45363e-05
4.09689e-05
9.45158e-05
4.09674e-05
3.66431e-05
2.02788e-05
7.91394e-05
5.06618e-05
7.91545e-05
2.02772e-05
3.66413e-05
9.98149e-05
9.44885e-05
4.09654e-05
9.4516e-05
3.66395e-05
4.09671e-05
2.0278e-05
7.91607e-05
5.06648e-05
7.91465e-05
2.02795e-05
3.66382e-05
9.97949e-05
9.45108e-05
4.09683e-05
9.44885e-05
4.09667e-05
3.66397e-05
2.02763e-05
7.91049e-05
5.06539e-05
2.02747e-05
7.91208e-05
3.66379e-05
9.97996e-05
9.44653e-05
4.09647e-05
3.66363e-05
9.44878e-05
4.09664e-05
2.02756e-05
7.91294e-05
5.06568e-05
7.91146e-05
2.02771e-05
3.66446e-05
9.45257e-05
4.09692e-05
9.98645e-05
3.66432e-05
9.45637e-05
4.09707e-05
2.02803e-05
7.91557e-05
5.06705e-05
2.02788e-05
7.91721e-05
3.66413e-05
9.45053e-05
4.09686e-05
9.98521e-05
3.66399e-05
9.45306e-05
4.09701e-05
2.02778e-05
7.91226e-05
5.066e-05
2.02763e-05
7.91378e-05
2.38418e-05
2.38414e-05
2.38404e-05
2.38401e-05
8.15781e-05
2.16691e-05
2.16659e-05
8.15686e-05
2.16706e-05
2.16674e-05
0.000105156
4.85829e-05
0.000128253
7.79448e-05
0.000105128
0.000128274
4.85849e-05
0.000105149
4.85723e-05
0.000128157
7.79422e-05
0.000105128
0.000128193
4.85745e-05
2.38435e-05
2.38423e-05
0.000198328
0.000193316
0.000193459
0.000199251
0.000193549
0.00019367
0.00018137
0.000180858
0.000137499
0.00015994
0.000159941
0.000179144
0.000137473
0.000159949
0.00016
0.000137532
0.000179113
0.000159975
0.000160032
0.00015995
0.00015997
0.000137567
0.000137578
0.000179088
0.000160067
0.000160101
0.000160011
0.000160031
0.000137614
0.000137495
0.000179071
0.000159995
0.000160013
0.000159935
0.000159954
0.000137541
0.000137438
0.000178973
0.000159917
0.000159933
0.000137457
0.000159887
0.000159875
0.000137632
0.000160035
0.000160042
0.000179353
0.000137578
0.000160051
0.000160107
0.000137697
0.000160107
0.000160116
0.000179364
0.000160184
0.000137664
0.000160166
0.000137599
0.000160007
0.000160019
0.000179301
0.000160037
0.000137554
0.00016007
0.000198607
0.000193016
0.00019317
0.000192746
0.000192951
0.000180123
0.000180611
0.000198279
0.000192738
0.000192628
0.00019244
0.000192405
0.000179754
0.000179944
0.000198354
0.000192808
0.00019265
0.000192599
0.000192426
0.00017981
0.000179999
0.000198164
0.000192563
0.000192546
0.000192327
0.000192324
0.000179627
0.00017982
0.000193012
0.000192974
0.000198964
0.000193327
0.000193324
0.000180781
0.000180359
0.000193168
0.000193001
0.000199056
0.000193502
0.000193348
0.00018083
0.00018041
0.000192905
0.000192895
0.000198883
0.000193261
0.000193249
0.00018066
0.000180219
0.000199424
0.00019377
0.000193953
0.000181273
0.000199126
0.000193544
0.000193519
0.000180973
0.00019921
0.000193702
0.000193547
0.000181016
0.00019904
0.000193454
0.000193446
0.000180827
0.000169267
0.000143051
0.00013681
0.000174283
0.000136763
0.00017423
0.000169295
0.000159205
0.000146442
0.000122262
0.000103459
0.00015917
0.00014648
0.000122291
0.000169221
0.000143063
0.000136706
0.000174168
0.000169147
0.000136754
0.000174214
0.000159244
0.00012233
0.000103454
0.000146541
0.000146503
0.000122293
0.000159296
0.00016931
0.000143082
0.000174271
0.000136882
0.000174182
0.000136846
0.000169374
0.000159244
0.000146392
0.000122289
0.000103456
0.000159189
0.000146435
0.000122324
0.000169341
0.000143087
0.000174096
0.000136759
0.000169213
0.000174152
0.000136822
0.000159261
0.000122352
0.000103452
0.000146496
0.000146443
0.000122314
0.000159312
0.000137521
0.000179101
0.000160007
0.000160058
0.000159999
0.000160001
0.000137568
0.000137432
0.000178879
0.000159865
0.000159873
0.000137486
0.000159804
0.000159812
0.000137511
0.000179116
0.000159875
0.000159906
0.000137486
0.000159894
0.000159967
0.000158916
0.000122189
0.000103349
0.000146234
0.000122144
0.00014617
0.000158984
0.000169049
0.000136614
0.000173893
0.000142953
0.000168995
0.000136676
0.00017395
0.000159057
0.000146369
0.000103404
0.000122266
0.000146313
0.000122231
0.000159166
0.000159092
0.00012219
0.000146259
0.000103414
0.000146302
0.000158992
0.000122222
0.000169082
0.000142951
0.000136746
0.000174077
0.000136698
0.000174015
0.000169209
0.000168991
0.000136656
0.000173901
0.000142966
0.000169006
0.000136726
0.000173967
0.000159082
0.000146414
0.000103425
0.000122297
0.000122249
0.000146354
0.000159187
0.000159028
0.000122215
0.000146282
0.000103431
0.000159006
0.000122258
0.00014634
0.000169106
0.000142959
0.000136778
0.000174099
0.000136742
0.000174017
0.000169114
0.000179103
0.000159921
0.000159986
0.00010337
0.000146249
0.000146192
0.000169116
0.000136735
0.000174012
0.000143044
0.000169114
0.000136783
0.000174086
0.000159108
0.000146398
0.000103424
0.000122324
0.000146342
0.00012227
0.000159223
0.000159105
0.00012223
0.000146281
0.00010343
0.000146324
0.000159037
0.000122281
0.000169153
0.000143032
0.00013684
0.000174169
0.000136774
0.000174116
0.000169229
0.000169032
0.000173974
0.000136642
0.000143017
0.00016903
0.000174073
0.000136673
0.000159021
0.000146309
0.000103349
0.000122226
0.000122205
0.000146272
0.000159113
0.000159018
0.000122161
0.000146237
0.000103352
0.000158937
0.000122191
0.000146273
0.000169061
0.000142995
0.000174162
0.000136719
0.000174063
0.000136666
0.000169122
0.000159068
0.000146436
0.0001034
0.000122248
0.000159152
0.000146403
0.000122217
0.000169088
0.000143029
0.000136726
0.000174128
0.000169176
0.00013669
0.000174102
0.00015901
0.000146336
0.000103383
0.000122231
0.000122202
0.000146309
0.000159115
0.000169029
0.000143074
0.000174154
0.000136698
0.000174045
0.00013665
0.00016917
0.000137477
0.000179078
0.000159879
0.00015987
0.000159936
0.000137446
0.000159877
0.000169088
0.000173928
0.000136633
0.000142942
0.000169041
0.000173923
0.000136708
0.000159085
0.000146381
0.000103394
0.00012228
0.000159186
0.00014633
0.000122252
0.000159113
0.000122196
0.000146298
0.000103402
0.00015903
0.000146341
0.000122235
0.000169136
0.000142952
0.000174022
0.000136771
0.000169232
0.000174013
0.00013672
0.000168919
0.000173869
0.000136577
0.00014292
0.000168926
0.000173897
0.000136637
0.000158996
0.000146262
0.00010333
0.000122211
0.000122163
0.000146206
0.0001591
0.000158935
0.00012212
0.000146166
0.000103333
0.00015894
0.000122169
0.000146208
0.00016904
0.000142929
0.000173994
0.000136697
0.000173953
0.000136657
0.000169016
0.000137448
0.000178974
0.000159788
0.000159886
0.000159794
0.000137636
0.000179244
0.000160161
0.000160183
0.000137691
0.000160131
0.000160117
0.000137735
0.000179509
0.000160214
0.000160196
0.000137701
0.000160226
0.000160264
0.000169254
0.000143059
0.000136851
0.000174234
0.000136809
0.000174196
0.000169288
0.000159222
0.000146383
0.000122264
0.000103463
0.000122307
0.000159166
0.00014641
0.000169293
0.000143079
0.000136734
0.000174107
0.000136794
0.000169156
0.000174157
0.000159241
0.000122354
0.000103465
0.00014645
0.000122312
0.000146429
0.000159297
0.000169244
0.00014308
0.000136932
0.000174264
0.00013686
0.00017418
0.00016924
0.000159227
0.000146458
0.000122299
0.000103487
0.000159116
0.000122348
0.000146498
0.000169199
0.000143089
0.000136801
0.000174095
0.000169139
0.000136858
0.000174198
0.00015921
0.000122401
0.000103488
0.00014656
0.000122355
0.000159278
0.000146523
0.000169336
0.000136862
0.000174284
0.000143188
0.000169352
0.000136918
0.000174319
0.00015936
0.000122352
0.000146491
0.000103516
0.000146495
0.000159317
0.000122394
0.000169383
0.000136947
0.000174261
0.000143197
0.000169333
0.000137002
0.000174364
0.000159361
0.000122416
0.00014658
0.000103539
0.000159287
0.000122451
0.000146622
0.000137697
0.000179237
0.000160183
0.000160248
0.000160187
0.000160162
0.000137725
0.000137755
0.000179498
0.000160222
0.000160247
0.000160238
0.000137725
0.000160304
0.00016936
0.000143166
0.000136959
0.00017428
0.000136881
0.000174289
0.000169324
0.000159275
0.000146409
0.000122318
0.00010349
0.00012237
0.000159191
0.000146437
0.000169285
0.000143146
0.00013685
0.000174208
0.000136899
0.000169252
0.000174224
0.000159273
0.000122414
0.000103492
0.000146472
0.000122373
0.000146468
0.000159342
0.000169264
0.000143108
0.00017432
0.000136808
0.000174229
0.000136751
0.000169247
0.000159177
0.000146358
0.000122222
0.000103404
0.000159102
0.00012226
0.000146394
0.000169197
0.000143097
0.000174143
0.000136729
0.000169166
0.000174244
0.000136767
0.000159173
0.000122287
0.000103405
0.000146447
0.000122248
0.000159226
0.000146403
0.000169442
0.000136952
0.000174359
0.000143272
0.000169425
0.00013703
0.000174377
0.000159416
0.000122418
0.000146559
0.000103542
0.0001466
0.000159338
0.000122471
0.000169321
0.000174301
0.000136818
0.000143191
0.000169335
0.000174383
0.00013686
0.000159331
0.000122281
0.000146496
0.000103451
0.000159249
0.000122322
0.00014653
0.000169207
0.000143056
0.000174259
0.000136786
0.000174183
0.000136723
0.000169249
0.000159154
0.00014637
0.000122209
0.000103424
0.000146405
0.000159077
0.000122253
0.000169213
0.000143088
0.000174103
0.000136705
0.00017423
0.000169113
0.000136738
0.000159152
0.00012228
0.000103411
0.000146422
0.000146417
0.000122251
0.000159174
0.000169346
0.000136792
0.000174291
0.000143142
0.000169351
0.000136839
0.000174359
0.000159395
0.000122329
0.000146557
0.000103511
0.000159327
0.000146597
0.000122367
0.000169284
0.000174274
0.000136791
0.000143139
0.000169293
0.000174311
0.00013683
0.000159235
0.00012228
0.000146481
0.000103434
0.000159218
0.000122312
0.000146493
0.000137618
0.000179226
0.000160102
0.000160149
0.000160113
0.000160079
0.000137671
0.000137703
0.00017947
0.000160165
0.000160194
0.000160179
0.000137676
0.000160207
0.000169161
0.000143062
0.000174222
0.000136828
0.000174132
0.000136758
0.000169221
0.00015918
0.000146258
0.000122217
0.000103383
0.000146309
0.000159026
0.000122257
0.000169147
0.000143055
0.000174032
0.000136716
0.000174093
0.000169129
0.000136764
0.0001591
0.000122307
0.000103376
0.000146348
0.000146327
0.000122258
0.00015921
0.000169457
0.000174265
0.000136906
0.000143236
0.00016942
0.000174346
0.000136958
0.000159395
0.000122362
0.000146518
0.000103526
0.000159291
0.00014654
0.000122396
0.000169269
0.000174222
0.000136846
0.000143204
0.000169273
0.000174285
0.000136902
0.000159258
0.000122309
0.000146399
0.000103445
0.000159203
0.000122363
0.000146435
0.000137608
0.000179252
0.000160089
0.000160061
0.000137586
0.000160145
0.00016012
0.000199831
0.000196983
0.000196946
0.000179325
0.000200385
0.00019727
0.000197239
0.000179571
0.000200755
0.000197455
0.000197432
0.000179734
0.000201015
0.00019759
0.00019756
0.000179823
0.000201175
0.000197672
0.00019765
0.000179801
0.000201278
0.000197719
0.00019771
0.000179833
0.00020133
0.000197746
0.000197763
0.000179885
0.000201362
0.000197759
0.000197789
0.000179897
0.000201368
0.000197762
0.000197808
0.000179925
0.000201388
0.000197776
0.000197804
0.000179944
0.00020142
0.000197787
0.000197797
0.00017995
0.000201424
0.0001978
0.000197788
0.000179977
0.000201459
0.000197817
0.000197789
0.000179956
0.000201476
0.000197838
0.000197802
0.000179995
0.000201511
0.000197864
0.000197826
0.000180046
0.000201545
0.000197887
0.000197858
0.000180101
0.00020158
0.000197907
0.000197888
0.00018008
0.000201615
0.000197926
0.000197929
0.000180017
0.000201644
0.000197915
0.000197931
0.000179905
0.000203609
0.000196437
0.000196466
0.000183362
0.000179596
0.000196818
0.000196749
0.000179577
0.000196888
0.00019678
0.000196882
0.000196712
0.000179551
0.000196851
0.0001967
0.0001793
0.000179478
0.000179831
0.000196918
0.000196828
0.000197183
0.000197082
0.000179451
0.000179753
0.00019698
0.000196863
0.000197229
0.000197116
0.0001968
0.000197208
0.000197077
0.000179425
0.000179732
0.000196793
0.000197169
0.000197075
0.000179611
0.000179663
0.000179884
0.000197233
0.000197126
0.000197412
0.000197308
0.00017969
0.000179878
0.000197279
0.000197157
0.000197439
0.000197322
0.000197126
0.000197411
0.000197316
0.000179569
0.00017985
0.000197123
0.000197385
0.000197314
0.000179809
0.000179819
0.000179989
0.000197447
0.000197342
0.000197575
0.000197483
0.000179789
0.000179906
0.000197477
0.000197349
0.000197594
0.000197464
0.000197349
0.000197558
0.000197483
0.000179679
0.000179897
0.000197344
0.000197526
0.000197479
0.000179877
0.000179862
0.000180004
0.000197607
0.000197519
0.000197694
0.000197612
0.000179811
0.000179887
0.000197624
0.000197488
0.000197703
0.000197573
0.000197513
0.000197658
0.000197606
0.000179823
0.000179874
0.000197512
0.000197634
0.000197614
0.000179966
0.000179918
0.000179977
0.000197711
0.000197625
0.000197761
0.000197688
0.000179831
0.000179821
0.000197715
0.00019758
0.000197764
0.000197642
0.000197618
0.000197704
0.000197677
0.000179827
0.000179953
0.000197625
0.000197698
0.000197687
0.000179852
0.000179811
0.000180015
0.00019777
0.000197701
0.000197805
0.000197742
0.000179653
0.000179893
0.000197765
0.000197658
0.000197801
0.000197706
0.000197701
0.000197742
0.000197746
0.000179859
0.00018004
0.000197707
0.000197748
0.000197753
0.000179932
0.000179962
0.000180075
0.000197805
0.00019774
0.000197825
0.000197749
0.000179718
0.000179839
0.000197806
0.000197719
0.000197824
0.000197749
0.000197746
0.000197746
0.00019777
0.000179863
0.000180071
0.000197764
0.000197782
0.000197787
0.000179976
0.000179979
0.000180061
0.000197822
0.000197746
0.000197837
0.000197759
0.000179695
0.000179877
0.00019782
0.000197745
0.00019784
0.000197768
0.000197764
0.000197758
0.000197779
0.00017989
0.000180015
0.00019778
0.000197802
0.000197788
0.000179947
0.000179973
0.000180103
0.00019783
0.000197752
0.000197837
0.000197766
0.000179733
0.000180017
0.000197834
0.000197764
0.000197837
0.000197773
0.000197775
0.000197775
0.000197789
0.000179963
0.000180011
0.000197785
0.000197797
0.0001978
0.000180067
0.000179914
0.000180093
0.000197831
0.000197761
0.000197839
0.000197779
0.000179861
0.000180104
0.000197831
0.000197769
0.00019784
0.000197777
0.000197781
0.000197782
0.000197795
0.000179864
0.000180055
0.000197792
0.000197801
0.000197809
0.000180119
0.000180003
0.00018015
0.000197833
0.000197772
0.000197849
0.000197793
0.000179923
0.000180039
0.000197834
0.000197768
0.00019785
0.000197768
0.000197789
0.000197795
0.000197804
0.000179896
0.000179943
0.000197804
0.000197791
0.000197815
0.000180143
0.000180019
0.000180068
0.000197841
0.000197786
0.000197857
0.000197804
0.00018001
0.000180092
0.000197841
0.000197759
0.000197848
0.000197765
0.000197797
0.000197812
0.000197802
0.000179863
0.00017996
0.000197806
0.000197788
0.000197817
0.000180097
0.000180014
0.000180183
0.000197848
0.000197797
0.000197857
0.00019781
0.000180009
0.00018013
0.000197839
0.000197754
0.000197847
0.000197758
0.000197808
0.000197831
0.000197813
0.000179854
0.000180019
0.000197807
0.000197796
0.00019781
0.000180072
0.000180003
0.000180007
0.000197847
0.000197803
0.000197838
0.000197812
0.000180037
0.000180169
0.000197836
0.000197763
0.000197834
0.000197778
0.000197823
0.000197856
0.000197835
0.000179919
0.000180055
0.000197815
0.000197818
0.000197823
0.000180065
0.000179922
0.000180108
0.000197841
0.000197821
0.000197849
0.000197827
0.000180071
0.00018017
0.000197842
0.00019779
0.000197849
0.000197809
0.000197848
0.00019788
0.000197865
0.000179984
0.000180132
0.000197833
0.000197849
0.000197848
0.000180173
0.000180034
0.000180091
0.00019786
0.000197838
0.000197872
0.000197845
0.000180071
0.000180125
0.000197862
0.000197826
0.000197874
0.000197844
0.00019788
0.0001979
0.000197896
0.000180031
0.000180039
0.000197863
0.000197877
0.000197881
0.000180247
0.000179974
0.000180089
0.000197884
0.000197857
0.000197892
0.000197865
0.000179948
0.000180028
0.000197888
0.000197858
0.000197899
0.00019787
0.000197909
0.000197917
0.000197923
0.000180056
0.000180101
0.000197896
0.000197914
0.000197915
0.000180206
0.000179964
0.000180149