/*--------------------------------*- C++ -*----------------------------------*\
| =========                 |                                                 |
| \\      /  F ield         | OpenFOAM: The Open Source CFD Toolbox           |
|  \\    /   O peration     | Version:  2312                                  |
|   \\  /    A nd           | Website:  www.openfoam.com                      |
|    \\/     M anipulation  |                                                 |
\*---------------------------------------------------------------------------*/
FoamFile
{
    version     2.0;
    format      ascii;
    arch        "LSB;label=32;scalar=64";
    class       volScalarField;
    location    "300";
    object      p;
}
// * * * * * * * * * * * * * * * * * * * * * * * * * * * * * * * * * * * * * //

dimensions      [0 2 -2 0 0 0 0];

internalField   nonuniform List<scalar> 
43168
(
0.000714699
0.000714674
0.000714676
0.000716274
0.000721977
0.000723588
0.000723588
0.000721976
0.000723588
0.000723589
0.000723586
0.000723585
0.000721977
0.000723588
0.000723586
0.000721974
0.000716277
0.000714676
0.000714674
0.000716275
0.000714676
0.000714675
0.000714673
0.000716277
0.000714674
0.000739222
0.000739223
0.000723611
0.000723608
0.000723611
0.000723608
0.000703586
0.000716838
0.000716833
0.000703581
0.000716842
0.000703578
0.000703585
0.000716837
0.000716833
0.00070358
0.000714697
0.000714698
0.000714697
0.000703673
0.000716795
0.000714682
0.000705758
0.000716748
0.000703622
0.000705766
0.000716843
0.000703577
0.000703674
0.000714685
0.000716796
0.000705759
0.00071675
0.000705769
0.000703623
0.000716839
0.00071684
0.000704145
0.000703576
0.000703577
0.000739219
0.000739219
0.000739789
0.000739219
0.000739219
0.000721407
0.000734659
0.000721406
0.000734659
0.000734094
0.000721407
0.000721406
0.000734656
0.000734657
0.0007414
0.000739264
0.000734649
0.000721411
0.000734654
0.000721416
0.000734649
0.00072141
0.000734655
0.000721415
0.000734567
0.000732497
0.000721453
0.000723598
0.000734612
0.000732507
0.000721503
0.000734567
0.000732496
0.000721452
0.000723596
0.000734612
0.000732506
0.000721503
0.000721407
0.00073466
0.000734093
0.000721407
0.000721406
0.000734657
0.000721407
0.0007414
0.000739264
0.000734651
0.00072141
0.000734655
0.000721415
0.000734568
0.000732496
0.000721453
0.000723597
0.000734612
0.000732506
0.000721503
0.000734651
0.000721411
0.000734658
0.000721416
0.000734568
0.000732496
0.000723597
0.000721452
0.000732506
0.000734615
0.000721503
0.000721452
0.000723595
0.000721501
0.000721411
0.000721417
0.000723595
0.000721451
0.0007215
0.00072141
0.000721417
0.000721407
0.000734663
0.000734095
0.000721407
0.000721406
0.00073466
0.000734659
0.000721407
0.000734662
0.000734569
0.000732497
0.000723598
0.000721451
0.000732506
0.000734613
0.000721503
0.000734569
0.000732494
0.000723597
0.000721451
0.000732505
0.000734615
0.000721503
0.000734649
0.00072141
0.000734656
0.000721415
0.000734649
0.000721409
0.000734656
0.000721415
0.000734092
0.000721405
0.000721407
0.00073466
0.000721406
0.000721406
0.000734662
0.000716843
0.000703577
0.000716842
0.000703577
0.00071684
0.00071684
0.000704148
0.000703577
0.000703577
0.000699008
0.000699009
0.000698443
0.000699007
0.000699007
0.000703586
0.000716837
0.000716832
0.000703582
0.000703675
0.000716796
0.000714685
0.00070576
0.00071675
0.000703623
0.000705768
0.000703675
0.000716795
0.000714684
0.000705758
0.000716751
0.000703624
0.000705768
0.000698999
0.000699004
0.000699
0.000699007
0.000698918
0.000696839
0.000698963
0.000696847
0.000698918
0.000696837
0.000698963
0.000696846
0.00071684
0.00071684
0.000704146
0.000703579
0.000703577
0.000716842
0.000703576
0.000699011
0.00069844
0.000699009
0.000699007
0.000699008
0.000703674
0.000716796
0.000714684
0.00070576
0.00071675
0.000703622
0.000705767
0.000703586
0.000716839
0.000716834
0.000703581
0.000703674
0.000714684
0.000716796
0.000705759
0.00071675
0.000705767
0.000703623
0.000698998
0.000699004
0.000698918
0.00069684
0.000698962
0.000696847
0.000698999
0.000699005
0.000698917
0.000696838
0.000696846
0.000698963
0.000703585
0.000716837
0.000716833
0.00070358
0.000703673
0.000714682
0.000716794
0.000705757
0.000716748
0.000705766
0.000703621
0.000703585
0.000716838
0.000716833
0.00070358
0.000698916
0.000696838
0.000698962
0.000696846
0.000698998
0.000699003
0.000698916
0.000696837
0.000696846
0.000698962
0.000698998
0.000699004
0.000716841
0.00071684
0.000704148
0.000703577
0.000703578
0.000716842
0.000703578
0.000699009
0.000698442
0.000699008
0.000699007
0.000699009
0.000703674
0.000714684
0.000716795
0.000705758
0.00071675
0.000705768
0.000703623
0.000703585
0.000716838
0.000716831
0.000703581
0.000703585
0.000716837
0.000716831
0.000703579
0.000698917
0.000696839
0.000696848
0.000698962
0.000698916
0.000696838
0.000696848
0.000698962
0.000698997
0.000699004
0.000698997
0.000699003
0.000716842
0.000703577
0.000716842
0.000703576
0.000698441
0.000699007
0.000699007
0.000699009
0.000699008
0.000743567
0.000739213
0.000743558
0.000743566
0.000739217
0.000743558
0.000707932
0.000707918
0.000703573
0.000703583
0.000707932
0.00070792
0.000703572
0.000712491
0.000716846
0.000712497
0.000716848
0.000712488
0.000712489
0.000712502
0.000716846
0.000716834
0.000716847
0.00071249
0.0007125
0.000707932
0.000703571
0.000707923
0.000707931
0.000703574
0.000712494
0.000707928
0.000707933
0.000707918
0.000703582
0.000703573
0.00070792
0.000707932
0.000703571
0.000712491
0.000716846
0.000712497
0.000716848
0.000712488
0.000712489
0.000712503
0.000716835
0.000716848
0.000716848
0.0007125
0.000712491
0.000707932
0.00070357
0.000707923
0.000707931
0.000703573
0.000712494
0.000707928
0.000707937
0.00070357
0.00070357
0.000707935
0.000707935
0.000703565
0.000712516
0.000716784
0.000716839
0.000712492
0.000716816
0.000712549
0.000712496
0.000712517
0.000716784
0.000716839
0.000712493
0.000716817
0.00071255
0.000712497
0.000712482
0.000716851
0.000716851
0.000716853
0.000712487
0.000712487
0.000707901
0.00070358
0.000707924
0.000703634
0.000707869
0.000707923
0.0007036
0.000707902
0.00070358
0.000707925
0.000703634
0.00070787
0.000707924
0.000703601
0.000743563
0.000743563
0.000743573
0.000739214
0.000739214
0.000743572
0.000743572
0.000739208
0.000743537
0.000739223
0.00074356
0.000739277
0.00074356
0.000739244
0.000743505
0.000743538
0.000739223
0.000743561
0.000739276
0.00074356
0.000739244
0.000743506
0.000725755
0.000730315
0.000725754
0.000730315
0.000730304
0.000734668
0.000734668
0.000734669
0.000730309
0.000730309
0.000725728
0.000721464
0.000725752
0.000721411
0.000725751
0.000725696
0.000721432
0.000725729
0.000721465
0.000725752
0.00072141
0.000725751
0.000725697
0.000721432
0.00073034
0.000734656
0.000734601
0.000730315
0.000734633
0.000730319
0.000730372
0.00073034
0.000734656
0.000734602
0.000730315
0.000734634
0.000730319
0.000730373
0.000725764
0.000721401
0.0007214
0.000725763
0.000725762
0.000721396
0.00073031
0.000734663
0.000734651
0.000730322
0.000734664
0.000730311
0.00073032
0.000725759
0.000725749
0.000721401
0.000721404
0.000725757
0.000730313
0.000734663
0.000730319
0.000734665
0.000730309
0.000725758
0.000725743
0.000721403
0.000721412
0.000721402
0.000725757
0.000725745
0.00073031
0.000734664
0.000734651
0.000730322
0.000734665
0.00073031
0.00073032
0.000725758
0.000725748
0.0007214
0.000725757
0.000721404
0.000730313
0.000734663
0.000730318
0.000734666
0.000730309
0.000725758
0.000725743
0.000721403
0.000721412
0.000725757
0.000725745
0.000721401
0.000725754
0.000730315
0.000725728
0.000721464
0.000725751
0.00072141
0.000725696
0.00072575
0.000721431
0.000725727
0.000721463
0.000725751
0.00072141
0.00072575
0.000725695
0.000721431
0.000734603
0.000730315
0.000730372
0.000725763
0.0007214
0.0007214
0.000725762
0.000725762
0.000721395
0.000725754
0.00073031
0.000734652
0.000734665
0.000730324
0.000734666
0.00073032
0.000730312
0.000725758
0.000725749
0.000721401
0.000721404
0.000725756
0.000730312
0.000734663
0.000730319
0.000734665
0.000730309
0.000725758
0.000725743
0.000721413
0.000721403
0.000721402
0.000725745
0.000725757
0.000730312
0.000734666
0.000734654
0.000730324
0.000734667
0.000730312
0.000730322
0.00072576
0.00072575
0.000721402
0.000725758
0.000721405
0.000730314
0.000734666
0.000730319
0.000734668
0.000730311
0.000725759
0.000725744
0.000721404
0.000721413
0.000725758
0.000725746
0.000721403
0.000725759
0.000725749
0.000721401
0.000725757
0.000721404
0.000725759
0.000725744
0.000721414
0.000721404
0.000725745
0.000725759
0.000721403
0.000725759
0.000725749
0.0007214
0.000725757
0.000721404
0.000725759
0.000725744
0.000721405
0.000721413
0.00072576
0.000725745
0.000721402
0.000725754
0.000730316
0.000730305
0.00073467
0.00073467
0.000734671
0.00073031
0.00073031
0.000725729
0.000721464
0.000725752
0.00072141
0.000725697
0.000725751
0.000721431
0.000725729
0.000721464
0.000725751
0.00072141
0.00072575
0.000725697
0.000721431
0.00073034
0.000734659
0.000734606
0.000730316
0.000730373
0.000734637
0.00073032
0.00073034
0.000734658
0.000734604
0.000730315
0.000734636
0.000730319
0.000730373
0.000725764
0.0007214
0.0007214
0.000725762
0.000725762
0.000721395
0.000725754
0.000730316
0.00073031
0.000734651
0.000734664
0.000730323
0.000734665
0.00073032
0.000730311
0.000725758
0.000725749
0.0007214
0.000725756
0.000721403
0.000730313
0.000734663
0.000730319
0.000734666
0.000730309
0.000725757
0.000725742
0.000721411
0.000721401
0.000725744
0.000725756
0.0007214
0.000730309
0.000734651
0.000734663
0.000730323
0.000734665
0.00073032
0.000730311
0.000725757
0.000725748
0.0007214
0.000725755
0.000721403
0.000730312
0.000734664
0.000730318
0.000734666
0.000730309
0.000725757
0.000725741
0.000721411
0.000721402
0.000725743
0.000725756
0.0007214
0.000730305
0.00073031
0.000730311
0.000725727
0.000721462
0.00072575
0.000721409
0.000721429
0.000725695
0.000725749
0.000725728
0.000721462
0.000725751
0.000721411
0.00072143
0.000725695
0.00072575
0.00073034
0.000730315
0.000730373
0.00073032
0.00073034
0.000734602
0.000730315
0.000730371
0.00073032
0.000725763
0.0007214
0.0007214
0.000721395
0.000725762
0.000725763
0.000725753
0.000730316
0.000725753
0.000730316
0.000712493
0.000707928
0.000712493
0.000707927
0.000707937
0.00070357
0.00070357
0.000707936
0.000707936
0.000703565
0.000712519
0.000716786
0.000716839
0.000712494
0.000716817
0.000712497
0.000712552
0.000712519
0.000716786
0.000716839
0.000712493
0.000716818
0.000712497
0.000712552
0.000712482
0.000716851
0.000716851
0.000716853
0.000712487
0.000712487
0.000707902
0.00070358
0.000707926
0.000703636
0.000707924
0.000703602
0.000707871
0.000707902
0.00070358
0.000707926
0.000703635
0.000707924
0.000703601
0.000707871
0.000694655
0.000694655
0.000694645
0.000699017
0.000699017
0.000699019
0.00069465
0.000694649
0.000694681
0.000699005
0.000698952
0.000694656
0.000698983
0.00069466
0.000694715
0.000694681
0.000699004
0.000698952
0.000694656
0.000698983
0.000694659
0.000694714
0.000707933
0.000707918
0.000703573
0.000703584
0.000707932
0.00070792
0.000703572
0.00071249
0.000716845
0.000712497
0.000716847
0.000712487
0.000712489
0.000712502
0.000716846
0.000716834
0.00071249
0.000716847
0.000712499
0.000707933
0.000703572
0.000707923
0.000707931
0.000703575
0.000694651
0.000699013
0.000699001
0.000694665
0.000699014
0.000694653
0.000694661
0.000694653
0.000699013
0.000694659
0.000699013
0.00069465
0.000694654
0.000699013
0.000699003
0.000694666
0.000699015
0.000694653
0.000694664
0.000694657
0.000699015
0.000694663
0.000699016
0.000694654
0.000707938
0.000703572
0.000703572
0.000707937
0.000707937
0.000703567
0.000712518
0.000716786
0.000716839
0.000712494
0.000712498
0.000716817
0.000712552
0.000712519
0.000716784
0.000716839
0.000712493
0.000712551
0.000716817
0.000712498
0.000712483
0.000716851
0.000716851
0.000712488
0.000716853
0.000712488
0.000707903
0.000703582
0.000707926
0.000703636
0.000707925
0.000707871
0.000703603
0.000707902
0.000703581
0.000707925
0.000703635
0.00070787
0.000707925
0.000703603
0.000712493
0.000707927
0.000694659
0.000694647
0.00069902
0.000699019
0.000699021
0.000694652
0.000694651
0.000694683
0.000699008
0.000698953
0.000694659
0.000694715
0.000698985
0.000694662
0.000694683
0.000699006
0.000698952
0.000694657
0.000698985
0.000694661
0.000694714
0.000694656
0.000707934
0.000707919
0.000703574
0.000703583
0.000707933
0.000707921
0.000703572
0.000712492
0.000716847
0.000712498
0.000716849
0.000712489
0.00071249
0.000712504
0.000716848
0.000716836
0.000712491
0.000716849
0.000712501
0.000707934
0.000703572
0.000707924
0.000707932
0.000703575
0.000694651
0.000699
0.000699013
0.000694664
0.000699013
0.000694662
0.000694652
0.000694653
0.000699011
0.000694659
0.000699013
0.00069465
0.000694651
0.000699013
0.000699001
0.000694665
0.000699014
0.000694653
0.000694662
0.000694653
0.000699013
0.000694659
0.000699014
0.00069465
0.000707932
0.000707917
0.000703583
0.000703573
0.000707918
0.000707931
0.000703572
0.00071249
0.000716845
0.000712496
0.000712487
0.000716847
0.000712489
0.000712502
0.000716833
0.000716847
0.0007125
0.000716847
0.00071249
0.000707932
0.000703571
0.000707922
0.000707929
0.000703573
0.000707932
0.000707917
0.000703572
0.000703582
0.000707932
0.000707918
0.000703571
0.000712491
0.000716846
0.000712497
0.000716847
0.000712488
0.000712489
0.000712502
0.000716848
0.000716834
0.000716848
0.00071249
0.000712499
0.000707932
0.00070357
0.000707923
0.000707931
0.000703573
0.000694651
0.000698999
0.000699012
0.000694665
0.000699013
0.000694662
0.000694651
0.000694653
0.000699011
0.000694659
0.000699013
0.000694651
0.00069465
0.000699012
0.000699
0.000694664
0.000699013
0.000694651
0.000694661
0.000694653
0.000699012
0.00069466
0.000699013
0.00069465
0.000707938
0.000703571
0.000703571
0.000707937
0.000707937
0.000703566
0.000712518
0.000716787
0.00071684
0.000712493
0.000712498
0.000716818
0.000712551
0.000712518
0.000716785
0.000716839
0.000712494
0.000712552
0.000716818
0.000712497
0.000712483
0.000716851
0.000716851
0.000712488
0.000716853
0.000712488
0.000707903
0.000703581
0.000707926
0.000703634
0.000707925
0.000707871
0.000703602
0.000707903
0.000703581
0.000707926
0.000703635
0.000707872
0.000707925
0.000703602
0.000712493
0.000707928
0.000694656
0.000694646
0.000699018
0.000699018
0.00069902
0.000694651
0.00069465
0.000694682
0.000699007
0.000698953
0.000694657
0.000694714
0.000698985
0.000694661
0.000694683
0.000699006
0.000698953
0.000694657
0.000698985
0.00069466
0.000694715
0.000694657
0.000707932
0.000707916
0.000703582
0.000703572
0.000707919
0.000707931
0.000703571
0.000712491
0.000716846
0.000712496
0.000712488
0.000716847
0.000712488
0.000712501
0.000716834
0.000716845
0.000712499
0.000716847
0.000712489
0.000707933
0.000703571
0.000707923
0.000707931
0.000703574
0.000707931
0.000707916
0.000703582
0.000703572
0.000707917
0.00070793
0.000703571
0.000712489
0.000716845
0.000712496
0.000716846
0.000712486
0.000712487
0.000712502
0.000716833
0.000716845
0.000716846
0.000712498
0.000712488
0.000707931
0.00070357
0.000707921
0.000707929
0.000703573
0.00069465
0.000699
0.000699011
0.000694664
0.000699013
0.00069466
0.000694651
0.000694653
0.000699012
0.00069466
0.000699013
0.00069465
0.000694651
0.000698999
0.000699011
0.000694664
0.000699012
0.000694661
0.000694651
0.000694653
0.000699011
0.000694659
0.000699013
0.00069465
0.000712493
0.000707927
0.000712493
0.000707927
0.000694645
0.000699017
0.000699017
0.000699019
0.00069465
0.00069465
0.000694681
0.000699005
0.000698952
0.000694656
0.000698983
0.000694714
0.00069466
0.000694681
0.000699006
0.000698952
0.000694656
0.000698984
0.000694714
0.00069466
0.000694656
0.000694656
0.000741424
0.000714707
0.000714707
0.000705783
0.000705791
0.000705791
0.000705803
0.000714717
0.000712623
0.000716549
0.000716549
0.000713061
0.000716714
0.000712796
0.000712795
0.000725627
0.000725187
0.00072171
0.00072171
0.000725462
0.000725463
0.000721538
0.000725626
0.000725187
0.000721711
0.000721708
0.000725463
0.00072546
0.000721537
0.000725628
0.000725188
0.000721711
0.00072171
0.000725463
0.000725463
0.000721538
0.000725625
0.000725186
0.000721709
0.000721707
0.000721535
0.000725461
0.00072546
0.000712625
0.000716552
0.000716552
0.000713065
0.000716716
0.000712798
0.000712797
0.000712625
0.000716551
0.000716549
0.000713063
0.000712796
0.000716716
0.000712798
0.000712625
0.000716552
0.000716552
0.000713064
0.000712798
0.000716716
0.000712798
0.00073252
0.000723619
0.000723618
0.000732527
0.000732527
0.000732534
0.000723626
0.000732518
0.000723618
0.000723616
0.000732526
0.000732524
0.000732533
0.000723625
0.00073252
0.000723618
0.000723616
0.000732527
0.000732524
0.000732532
0.000723623
0.000732515
0.000723615
0.000723615
0.000732525
0.000732523
0.000732532
0.000723623
0.000714707
0.000714705
0.000705782
0.000705791
0.000705791
0.000705803
0.000714717
0.000714706
0.000714706
0.000705782
0.00070579
0.000705791
0.000705803
0.000714716
0.000714705
0.000714706
0.000705782
0.00070579
0.000705791
0.000705803
0.000714716
0.000696862
0.00069687
0.000696869
0.000696881
0.000696861
0.00069687
0.00069687
0.000696882
0.000696861
0.000696869
0.000696871
0.000696882
0.000696862
0.00069687
0.000696871
0.000696882
0.000707596
0.000707834
0.000703669
0.000703907
0.000707837
0.000707599
0.000703912
0.000712791
0.000716639
0.000716767
0.000712538
0.000716542
0.000712697
0.000712568
0.000712827
0.000712589
0.000716752
0.000716513
0.00071651
0.000712585
0.000712823
0.000707629
0.000703652
0.00070788
0.000703781
0.000707725
0.000707852
0.000703875
0.000707598
0.000707835
0.00070391
0.00070367
0.000707602
0.000707838
0.000703914
0.000712793
0.000716642
0.000716769
0.00071254
0.000716546
0.000712699
0.00071257
0.00071283
0.00071259
0.000716517
0.000716754
0.000716513
0.000712826
0.000712586
0.000707631
0.000703653
0.000707882
0.000703782
0.000707727
0.000707854
0.000703877
0.0007078
0.00070736
0.00070388
0.000703879
0.000707635
0.000707635
0.000703707
0.000743436
0.000742996
0.000739523
0.000739522
0.00073935
0.000743271
0.000743272
0.000730446
0.000730885
0.000734368
0.000734369
0.000734532
0.000730618
0.000730618
0.000743266
0.000739295
0.000743515
0.000739424
0.000743488
0.000743362
0.000739519
0.000730651
0.00073457
0.000734335
0.000730411
0.000734331
0.000730406
0.000730648
0.000725455
0.00072161
0.000725707
0.000721483
0.000725552
0.000725679
0.000721705
0.000730613
0.000734584
0.000734459
0.00073036
0.000730519
0.000734363
0.00073039
0.000725424
0.000725661
0.000721499
0.000721738
0.000725664
0.000725428
0.000721743
0.000730651
0.000734571
0.000734335
0.000730411
0.000734331
0.000730407
0.000730648
0.000725456
0.00072161
0.000725705
0.000721482
0.000725679
0.000725552
0.000721706
0.000730614
0.000734585
0.00073446
0.00073036
0.000734362
0.00073039
0.000730519
0.000725423
0.000725661
0.000721499
0.000721739
0.000725665
0.000725427
0.000721743
0.000730887
0.000734366
0.000730619
0.000743516
0.000739424
0.000743362
0.000730653
0.000734572
0.000734336
0.000730412
0.000734332
0.000730407
0.000730649
0.000725456
0.000721611
0.000725707
0.000721483
0.000725553
0.000725679
0.000721706
0.000730615
0.000734585
0.000734459
0.00073036
0.00073052
0.000734363
0.00073039
0.000725424
0.000725661
0.000721499
0.000721739
0.000725664
0.000725428
0.000721743
0.000730652
0.000734336
0.000734572
0.000730412
0.000734332
0.000730648
0.000730407
0.000725456
0.00072161
0.000725706
0.000721482
0.000725679
0.000725553
0.000721705
0.000730615
0.000734587
0.000734461
0.000730362
0.000734364
0.000730391
0.00073052
0.000725424
0.000725661
0.000721739
0.000721498
0.000725428
0.000725664
0.000721742
0.000725454
0.000721609
0.000725707
0.000721482
0.000721703
0.00072555
0.000725678
0.000725421
0.000725658
0.000721498
0.000721734
0.00072174
0.000725663
0.000725424
0.000725452
0.000721607
0.000725705
0.00072148
0.000725676
0.00072555
0.000721702
0.000725421
0.000725658
0.000721734
0.000721497
0.000725423
0.000725661
0.000721739
0.000730447
0.000730886
0.00073437
0.00073437
0.00073062
0.000734535
0.00073062
0.000730652
0.000734338
0.000734572
0.000730412
0.000734333
0.000730649
0.000730406
0.000725456
0.000721611
0.000725706
0.000721482
0.000721705
0.000725553
0.000725678
0.000730615
0.000734586
0.000734461
0.000730361
0.000734365
0.00073052
0.000730391
0.000725424
0.000725661
0.000721739
0.000721498
0.000721743
0.000725428
0.000725664
0.000730652
0.000734338
0.000734571
0.000730412
0.000734332
0.000730649
0.000730407
0.000725455
0.000721609
0.000725705
0.000721481
0.000725678
0.000725551
0.000721704
0.000730614
0.000734587
0.00073446
0.00073036
0.000734363
0.00073039
0.000730519
0.000725423
0.00072566
0.000721738
0.000721497
0.000725428
0.000725663
0.000721742
0.000730445
0.000730883
0.000734364
0.00073062
0.000730615
0.000707802
0.000707362
0.000703881
0.000703881
0.000703708
0.000707637
0.000707637
0.000694787
0.000695227
0.000698718
0.000698718
0.000698882
0.00069496
0.000694959
0.000707598
0.000707836
0.000703671
0.00070391
0.000707839
0.000707602
0.000703914
0.000712793
0.000716642
0.000716768
0.00071254
0.00071257
0.000716545
0.000712698
0.00071283
0.000712591
0.000716754
0.000716516
0.000712586
0.000716513
0.000712826
0.00070763
0.000703654
0.000707881
0.000703782
0.000707854
0.000707727
0.000703877
0.000707598
0.000707836
0.00070367
0.000703909
0.00070784
0.000707601
0.000703913
0.000712794
0.000716641
0.000716768
0.00071254
0.000716545
0.000712571
0.000712698
0.000712831
0.000712591
0.000716754
0.000716517
0.000716513
0.000712587
0.000712826
0.00070763
0.000703654
0.000707881
0.000703781
0.000707854
0.000703877
0.000707726
0.000694993
0.000698922
0.000698683
0.000694753
0.00069868
0.00069475
0.000694988
0.000694957
0.000698936
0.000698808
0.000694702
0.000694861
0.000698712
0.000694733
0.000694991
0.000698922
0.000698682
0.000694753
0.000698678
0.000694749
0.000694988
0.000694955
0.000698936
0.000698807
0.000694705
0.00069871
0.000694733
0.00069486
0.000707801
0.00070736
0.00070388
0.00070388
0.000707635
0.000707636
0.000703708
0.000694788
0.000695225
0.000698716
0.000698716
0.00069496
0.000698883
0.000694959
0.000707598
0.000707836
0.00070367
0.00070391
0.00070784
0.000707601
0.000703914
0.000712794
0.000716642
0.000716768
0.000712539
0.00071257
0.000716545
0.000712698
0.000712831
0.000712591
0.000716753
0.000716516
0.000712587
0.000716512
0.000712825
0.000707631
0.000703653
0.000707881
0.000703782
0.000707854
0.000707727
0.000703878
0.000707598
0.000707836
0.000703909
0.000703669
0.000707601
0.00070784
0.000703913
0.000712793
0.000716642
0.000716768
0.000712539
0.000716545
0.00071257
0.000712697
0.000712829
0.000712591
0.000716516
0.000716753
0.000716512
0.000712825
0.000712587
0.000707631
0.000703653
0.00070788
0.000703781
0.000707854
0.000703876
0.000707727
0.000694993
0.000698921
0.000698683
0.000694753
0.00069868
0.000694749
0.000694989
0.000694957
0.000698935
0.000698808
0.000694701
0.00069486
0.000698712
0.000694732
0.000694992
0.000698682
0.000698921
0.000694753
0.000698679
0.000694988
0.000694749
0.000694956
0.000698936
0.000698809
0.000694703
0.000698712
0.000694733
0.00069486
0.000707596
0.000707834
0.000703907
0.000703669
0.000707599
0.000707837
0.000703911
0.000712789
0.000716639
0.000716766
0.000712538
0.000712694
0.000716542
0.000712567
0.000712827
0.000712588
0.000716512
0.000716751
0.000712822
0.00071651
0.000712584
0.000707628
0.000703652
0.000707878
0.000703779
0.000707724
0.000707851
0.000703874
0.000694991
0.000698919
0.000698682
0.000694752
0.000698678
0.000694748
0.000694987
0.000694954
0.000698934
0.000698807
0.000694702
0.000698711
0.00069486
0.000694732
0.000694991
0.000698681
0.000698919
0.000694752
0.000698678
0.000694987
0.000694748
0.000694954
0.000698934
0.000698807
0.000694702
0.00069871
0.000694732
0.000694859
0.000707802
0.000707362
0.000703881
0.000703881
0.000707637
0.000707636
0.000703708
0.000694788
0.000695226
0.000698717
0.000698718
0.00069496
0.000698884
0.00069496
0.000707597
0.000707835
0.000703909
0.00070367
0.000707602
0.000707838
0.000703913
0.000712792
0.000716639
0.000716767
0.000712537
0.000712696
0.000716544
0.000712569
0.00071283
0.00071259
0.000716516
0.000716753
0.000712826
0.000716512
0.000712586
0.00070763
0.000703653
0.000707879
0.000703781
0.000707725
0.000707852
0.000703877
0.000694994
0.000698684
0.000698921
0.000694754
0.00069868
0.00069499
0.000694749
0.000694957
0.000698936
0.000698809
0.000694702
0.000698713
0.000694861
0.000694733
0.000694993
0.000698683
0.00069892
0.000694754
0.000698679
0.00069499
0.000694749
0.000694956
0.000698935
0.000698807
0.000694702
0.000698711
0.000694732
0.00069486
0.000694787
0.000695225
0.000698716
0.000698717
0.000698882
0.000694959
0.000694959
0.000679006
0.000678985
0.000678985
0.000680592
0.000643249
0.000643233
0.000643232
0.000644845
0.000607449
0.00060743
0.000607432
0.000609045
0.000571616
0.000571598
0.000571601
0.000573214
0.000535762
0.000535744
0.000535743
0.00053736
0.000499889
0.000499873
0.000499872
0.000501489
0.000464005
0.000463989
0.00046399
0.000465608
0.000428124
0.000428108
0.000428106
0.000429724
0.000392238
0.000392224
0.000392223
0.000393843
0.00035635
0.000356337
0.000356336
0.000357956
0.000320463
0.00032045
0.000320449
0.00032207
0.000284575
0.000284562
0.00028456
0.000286181
0.00024868
0.000248665
0.000248666
0.000250285
0.000212783
0.000212769
0.00021277
0.00021439
0.000176889
0.000176873
0.000176875
0.000178494
0.000140991
0.000140976
0.000140974
0.000142597
0.000105083
0.000105066
0.000105067
0.000106693
6.91745e-05
6.91472e-05
6.91497e-05
7.07778e-05
3.39142e-05
3.33829e-05
3.338e-05
3.48501e-05
1.122e-05
7.25552e-06
7.25262e-06
5.75139e-06
0.000686301
0.000687914
0.000687912
0.000686301
0.000687914
0.000687912
0.000687913
0.000687913
0.000686301
0.000687914
0.000687913
0.000686301
0.000680591
0.00065056
0.000678986
0.000678984
0.000652174
0.000652175
0.000680591
0.000650561
0.000678985
0.000678985
0.000652173
0.000652175
0.000678986
0.000652175
0.000652178
0.000680591
0.000650561
0.000678985
0.000652175
0.000652176
0.000650563
0.00064484
0.000614769
0.000643231
0.000643232
0.000616384
0.000616382
0.000644842
0.000614769
0.000643231
0.000643233
0.000616384
0.000616385
0.000643235
0.000616384
0.000616385
0.000644843
0.00061477
0.000643234
0.000616385
0.000616384
0.00061477
0.000609044
0.000578945
0.000607431
0.000607429
0.000580559
0.000580557
0.000609043
0.000578943
0.000607432
0.000607432
0.00058056
0.00058056
0.000607431
0.000580558
0.000580558
0.000609045
0.000578946
0.000607432
0.000580561
0.000580559
0.000578943
0.000573215
0.000543095
0.000571599
0.000571597
0.00054471
0.000544708
0.000573212
0.000543093
0.000571601
0.000571601
0.000544711
0.00054471
0.000571598
0.000544709
0.000544707
0.000573217
0.000543093
0.000571599
0.000544708
0.000544708
0.000543092
0.000537363
0.000507226
0.000535745
0.000535744
0.000508841
0.00050884
0.00053736
0.000507225
0.000535746
0.000535746
0.000508842
0.00050884
0.000535742
0.000508842
0.00050884
0.000537361
0.000507225
0.000535742
0.000508841
0.00050884
0.000507224
0.000501491
0.000471344
0.000499873
0.000499871
0.000472961
0.000472959
0.00050149
0.000471345
0.000499873
0.000499871
0.00047296
0.000472958
0.000499871
0.00047296
0.000472959
0.00050149
0.000471342
0.000499871
0.00047296
0.000472959
0.000471343
0.000465608
0.000435463
0.00046399
0.000463988
0.000437078
0.000437077
0.000465608
0.000435462
0.000463989
0.000463988
0.000437078
0.000437076
0.000463988
0.000437078
0.000437076
0.000465607
0.00043546
0.000463988
0.000437077
0.000437075
0.000435459
0.000429727
0.000399577
0.000428108
0.000428107
0.000401194
0.000401193
0.000429726
0.000399579
0.000428108
0.000428106
0.000401192
0.000401192
0.000428106
0.000401194
0.000401193
0.000429725
0.000399576
0.000428105
0.000401193
0.000401194
0.000399578
0.000393841
0.000363689
0.000392223
0.000392223
0.000365305
0.000365307
0.000393842
0.000363692
0.000392221
0.000392222
0.000365306
0.000365307
0.000392222
0.000365308
0.000365307
0.000393841
0.000363692
0.000392224
0.000365307
0.000365308
0.000363692
0.000357953
0.000327805
0.000356334
0.000356336
0.00032942
0.00032942
0.000357955
0.000327805
0.000356335
0.000356336
0.00032942
0.000329419
0.000356336
0.000329421
0.000329421
0.000357956
0.000327805
0.000356338
0.00032942
0.000329422
0.000327806
0.000322069
0.000291916
0.000320449
0.00032045
0.000293531
0.000293533
0.000322068
0.000291918
0.000320449
0.00032045
0.000293531
0.000293533
0.000320451
0.000293534
0.000293533
0.000322069
0.000291917
0.000320451
0.000293532
0.000293533
0.000291918
0.000286178
0.000256024
0.000284559
0.000284562
0.000257638
0.00025764
0.00028618
0.000256024
0.000284559
0.000284561
0.000257638
0.000257638
0.000284561
0.000257639
0.000257639
0.00028618
0.000256023
0.000284561
0.000257638
0.000257639
0.000256023
0.000250286
0.000220129
0.000248666
0.000248667
0.000221742
0.000221743
0.000250285
0.000220129
0.000248665
0.000248666
0.000221742
0.000221744
0.000248666
0.000221743
0.000221744
0.000250285
0.000220129
0.000248666
0.000221743
0.000221744
0.000220129
0.000214389
0.000184234
0.000212768
0.00021277
0.000185848
0.000185847
0.000214389
0.000184233
0.000212768
0.000212771
0.000185847
0.00018585
0.00021277
0.000185847
0.000185848
0.00021439
0.000184236
0.00021277
0.00018585
0.000185848
0.000184233
0.000178494
0.00014834
0.000176874
0.000176873
0.000149953
0.000149952
0.000178493
0.00014834
0.000176874
0.000176876
0.000149953
0.000149953
0.000176874
0.000149952
0.000149951
0.000178496
0.00014834
0.000176874
0.000149952
0.000149951
0.000148337
0.000142599
0.00011244
0.000140976
0.000140975
0.000114052
0.000114051
0.000142598
0.000112439
0.000140977
0.000140976
0.000114053
0.000114051
0.000140974
0.00011405
0.000114048
0.000142598
0.000112437
0.000140974
0.00011405
0.000114048
0.000112435
0.000106698
7.65227e-05
0.000105069
0.000105068
7.81405e-05
7.81402e-05
0.000106695
7.65208e-05
0.000105069
0.000105068
7.81424e-05
7.81396e-05
0.000105065
7.81384e-05
7.81382e-05
0.000106695
7.65213e-05
0.000105065
7.81405e-05
7.81397e-05
7.65196e-05
7.07797e-05
4.05882e-05
6.91491e-05
6.91487e-05
4.22716e-05