/*--------------------------------*- C++ -*----------------------------------*\
| =========                 |                                                 |
| \\      /  F ield         | OpenFOAM: The Open Source CFD Toolbox           |
|  \\    /   O peration     | Version:                                        |
|   \\  /    A nd           | Website:  www.openfoam.com                      |
|    \\/     M anipulation  |                                                 |
\*---------------------------------------------------------------------------*/
FoamFile
{
    version     2.0;
    format      ascii;
    class       volScalarField;
    location    "31850.5";
    object      p;
}
// * * * * * * * * * * * * * * * * * * * * * * * * * * * * * * * * * * * * * //

dimensions      [0 2 -2 0 0 0 0];


internalField   nonuniform List<scalar> 
247096
(
1.09416e-07
1.09419e-07
1.09562e-07
1.09649e-07
1.09682e-07
1.0964e-07
1.09549e-07
1.09395e-07
1.09419e-07
1.09617e-07
1.09794e-07
1.09887e-07
1.0991e-07
1.0988e-07
1.09776e-07
1.09593e-07
1.09562e-07
1.09794e-07
1.09935e-07
1.09976e-07
1.09983e-07
1.09974e-07
1.09924e-07
1.09767e-07
1.09535e-07
1.09649e-07
1.09887e-07
1.09976e-07
1.09988e-07
1.09987e-07
1.09988e-07
1.09972e-07
1.09865e-07
1.09616e-07
1.09416e-07
1.09681e-07
1.0991e-07
1.09983e-07
1.09987e-07
1.09983e-07
1.09988e-07
1.0998e-07
1.09891e-07
1.09647e-07
1.0964e-07
1.0988e-07
1.09974e-07
1.09988e-07
1.09988e-07
1.09988e-07
1.09969e-07
1.09857e-07
1.09607e-07
1.09549e-07
1.09776e-07
1.09924e-07
1.09972e-07
1.0998e-07
1.09969e-07
1.09913e-07
1.09748e-07
1.09523e-07
1.09395e-07
1.09593e-07
1.09767e-07
1.09865e-07
1.09891e-07
1.09857e-07
1.09748e-07
1.09571e-07
1.09535e-07
1.09616e-07
1.09647e-07
1.09607e-07
1.09523e-07
1.06603e-07
1.06578e-07
1.06587e-07
1.06438e-07
1.06451e-07
1.0647e-07
1.0645e-07
1.06636e-07
1.06574e-07
1.06587e-07
1.06459e-07
1.06255e-07
1.06272e-07
1.06272e-07
1.06255e-07
1.06516e-07
1.06462e-07
1.06438e-07
1.06255e-07
1.06292e-07
1.06313e-07
1.06313e-07
1.06292e-07
1.06255e-07
1.06579e-07
1.06625e-07
1.06603e-07
1.06451e-07
1.06272e-07
1.06313e-07
1.06336e-07
1.06336e-07
1.06313e-07
1.06272e-07
1.06607e-07
1.06643e-07
1.06578e-07
1.0647e-07
1.06272e-07
1.06313e-07
1.06336e-07
1.06336e-07
1.06313e-07
1.06272e-07
1.06609e-07
1.06466e-07
1.0645e-07
1.06255e-07
1.06292e-07
1.06313e-07
1.06313e-07
1.06292e-07
1.06255e-07
1.06603e-07
1.06652e-07
1.06636e-07
1.06516e-07
1.06255e-07
1.06272e-07
1.06272e-07
1.06255e-07
1.06597e-07
1.06521e-07
1.06635e-07
1.06574e-07
1.06462e-07
1.06579e-07
1.06607e-07
1.06609e-07
1.06603e-07
1.06521e-07
1.06645e-07
1.06625e-07
1.06643e-07
1.06466e-07
1.06652e-07
1.06635e-07
1.04826e-07
1.04817e-07
1.04826e-07
1.04695e-07
1.04695e-07
1.04705e-07
1.04697e-07
1.0486e-07
1.04817e-07
1.04826e-07
1.0469e-07
1.04457e-07
1.04465e-07
1.04465e-07
1.04457e-07
1.04713e-07
1.04707e-07
1.04695e-07
1.04457e-07
1.04476e-07
1.04488e-07
1.04488e-07
1.04476e-07
1.04457e-07
1.04758e-07
1.0485e-07
1.04826e-07
1.04695e-07
1.04465e-07
1.04488e-07
1.04501e-07
1.04501e-07
1.04488e-07
1.04465e-07
1.04762e-07
1.04847e-07
1.04817e-07
1.04705e-07
1.04465e-07
1.04488e-07
1.04501e-07
1.04501e-07
1.04488e-07
1.04465e-07
1.04761e-07
1.04714e-07
1.04697e-07
1.04457e-07
1.04476e-07
1.04488e-07
1.04488e-07
1.04476e-07
1.04457e-07
1.04765e-07
1.04855e-07
1.0486e-07
1.04713e-07
1.04457e-07
1.04465e-07
1.04465e-07
1.04457e-07
1.04746e-07
1.04736e-07
1.0486e-07
1.04817e-07
1.04707e-07
1.04758e-07
1.04762e-07
1.04761e-07
1.04765e-07
1.04736e-07
1.04863e-07
1.0485e-07
1.04847e-07
1.04714e-07
1.04855e-07
1.0486e-07
1.03227e-07
1.03218e-07
1.03227e-07
1.03103e-07
1.03102e-07
1.0311e-07
1.03104e-07
1.03258e-07
1.0322e-07
1.03227e-07
1.03099e-07
1.02891e-07
1.02896e-07
1.02896e-07
1.02891e-07
1.03123e-07
1.03117e-07
1.03103e-07
1.02891e-07
1.02903e-07
1.02908e-07
1.02908e-07
1.02903e-07
1.02891e-07
1.03164e-07
1.0325e-07
1.03227e-07
1.03102e-07
1.02896e-07
1.02908e-07
1.02916e-07
1.02916e-07
1.02908e-07
1.02896e-07
1.03168e-07
1.03248e-07
1.03218e-07
1.0311e-07
1.02896e-07
1.02908e-07
1.02916e-07
1.02916e-07
1.02908e-07
1.02896e-07
1.03167e-07
1.03122e-07
1.03104e-07
1.02891e-07
1.02903e-07
1.02908e-07
1.02908e-07
1.02903e-07
1.02891e-07
1.0317e-07
1.03255e-07
1.03258e-07
1.03123e-07
1.02891e-07
1.02896e-07
1.02896e-07
1.02891e-07
1.03151e-07
1.03143e-07
1.03258e-07
1.0322e-07
1.03117e-07
1.03164e-07
1.03168e-07
1.03167e-07
1.0317e-07
1.03143e-07
1.03263e-07
1.0325e-07
1.03248e-07
1.03122e-07
1.03255e-07
1.03258e-07
1.01764e-07
1.01755e-07
1.01763e-07
1.01646e-07
1.01644e-07
1.01651e-07
1.01646e-07
1.01791e-07
1.01758e-07
1.01763e-07
1.01641e-07
1.01449e-07
1.01453e-07
1.01453e-07
1.01449e-07
1.01664e-07
1.0166e-07
1.01646e-07
1.01449e-07
1.01457e-07
1.0146e-07
1.0146e-07
1.01457e-07
1.01449e-07
1.01703e-07
1.01787e-07
1.01764e-07
1.01644e-07
1.01453e-07
1.0146e-07
1.01465e-07
1.01465e-07
1.0146e-07
1.01453e-07
1.01705e-07
1.01785e-07
1.01755e-07
1.01651e-07
1.01453e-07
1.0146e-07
1.01465e-07
1.01465e-07
1.0146e-07
1.01453e-07
1.01704e-07
1.01664e-07
1.01646e-07
1.01449e-07
1.01457e-07
1.0146e-07
1.0146e-07
1.01457e-07
1.01449e-07
1.01707e-07
1.01791e-07
1.01791e-07
1.01664e-07
1.01449e-07
1.01453e-07
1.01453e-07
1.01449e-07
1.01691e-07
1.01684e-07
1.01793e-07
1.01758e-07
1.0166e-07
1.01703e-07
1.01705e-07
1.01704e-07
1.01707e-07
1.01684e-07
1.01798e-07
1.01787e-07
1.01785e-07
1.01664e-07
1.01791e-07
1.01793e-07
1.00394e-07
1.00386e-07
1.00394e-07
1.00281e-07
1.00278e-07
1.00284e-07
1.0028e-07
1.00419e-07
1.00389e-07
1.00394e-07
1.00276e-07
1.00095e-07
1.00097e-07
1.00097e-07
1.00095e-07
1.00298e-07
1.00295e-07
1.00281e-07
1.00095e-07
1.001e-07
1.00102e-07
1.00102e-07
1.001e-07
1.00095e-07
1.00336e-07
1.00417e-07
1.00394e-07
1.00278e-07
1.00097e-07
1.00102e-07
1.00105e-07
1.00105e-07
1.00102e-07
1.00097e-07
1.00337e-07
1.00415e-07
1.00386e-07
1.00284e-07
1.00097e-07
1.00102e-07
1.00105e-07
1.00105e-07
1.00102e-07
1.00097e-07
1.00336e-07
1.00299e-07
1.0028e-07
1.00095e-07
1.001e-07
1.00102e-07
1.00102e-07
1.001e-07
1.00095e-07
1.00339e-07
1.0042e-07
1.00419e-07
1.00298e-07
1.00095e-07
1.00097e-07
1.00097e-07
1.00095e-07
1.00323e-07
1.00317e-07
1.00421e-07
1.00389e-07
1.00295e-07
1.00336e-07
1.00337e-07
1.00336e-07
1.00339e-07
1.00317e-07
1.00427e-07
1.00417e-07
1.00415e-07
1.00299e-07
1.0042e-07
1.00421e-07
9.90957e-08
9.90873e-08
9.90948e-08
9.89856e-08
9.89826e-08
9.8988e-08
9.89846e-08
9.91189e-08
9.90906e-08
9.90948e-08
9.89803e-08
9.88083e-08
9.88099e-08
9.88099e-08
9.88083e-08
9.90024e-08
9.89998e-08
9.89856e-08
9.88083e-08
9.88122e-08
9.88133e-08
9.88133e-08
9.88122e-08
9.88083e-08
9.90391e-08
9.91175e-08
9.90957e-08
9.89826e-08
9.88099e-08
9.88133e-08
9.88151e-08
9.88151e-08
9.88133e-08
9.88099e-08
9.90397e-08
9.91155e-08
9.90873e-08
9.89879e-08
9.88099e-08
9.88133e-08
9.88151e-08
9.88151e-08
9.88133e-08
9.88099e-08
9.9038e-08
9.90039e-08
9.89845e-08
9.88083e-08
9.88122e-08
9.88133e-08
9.88133e-08
9.88122e-08
9.88083e-08
9.90411e-08
9.91204e-08
9.91189e-08
9.90023e-08
9.88083e-08
9.88099e-08
9.88099e-08
9.88083e-08
9.9026e-08
9.9021e-08
9.91215e-08
9.90906e-08
9.89998e-08
9.90391e-08
9.90397e-08
9.9038e-08
9.90411e-08
9.9021e-08
9.9127e-08
9.91175e-08
9.91155e-08
9.90038e-08
9.91204e-08
9.91215e-08
9.78563e-08
9.78479e-08
9.78552e-08
9.7749e-08
9.77456e-08
9.77503e-08
9.77474e-08
9.78782e-08
9.78515e-08
9.78552e-08
9.77432e-08
9.7579e-08
9.75801e-08
9.75801e-08
9.7579e-08
9.77649e-08
9.77631e-08
9.7749e-08
9.7579e-08
9.75821e-08
9.75827e-08
9.75827e-08
9.75821e-08
9.7579e-08
9.78012e-08
9.78777e-08
9.78563e-08
9.77456e-08
9.75801e-08
9.75827e-08
9.75839e-08
9.75839e-08
9.75827e-08
9.75801e-08
9.78015e-08
9.78757e-08
9.78479e-08
9.77503e-08
9.75801e-08
9.75827e-08
9.75839e-08
9.75839e-08
9.75827e-08
9.75801e-08
9.77998e-08
9.7767e-08
9.77474e-08
9.7579e-08
9.75821e-08
9.75827e-08
9.75827e-08
9.75821e-08
9.7579e-08
9.78025e-08
9.78803e-08
9.78782e-08
9.7765e-08
9.7579e-08
9.75801e-08
9.75801e-08
9.7579e-08
9.7788e-08
9.77832e-08
9.7881e-08
9.78516e-08
9.77631e-08
9.78012e-08
9.78015e-08
9.77998e-08
9.78025e-08
9.77832e-08
9.78868e-08
9.78777e-08
9.78757e-08
9.7767e-08
9.78803e-08
9.7881e-08
9.6665e-08
9.66567e-08
9.66639e-08
9.65599e-08
9.65561e-08
9.65604e-08
9.65578e-08
9.6686e-08
9.66607e-08
9.66639e-08
9.65538e-08
9.6396e-08
9.63968e-08
9.63968e-08
9.6396e-08
9.65755e-08
9.6574e-08
9.65599e-08
9.6396e-08
9.63987e-08
9.63988e-08
9.63988e-08
9.63987e-08
9.6396e-08
9.66117e-08
9.66862e-08
9.6665e-08
9.65561e-08
9.63968e-08
9.63988e-08
9.63994e-08
9.63994e-08
9.63988e-08
9.63968e-08
9.66116e-08
9.66843e-08
9.66567e-08
9.65604e-08
9.63968e-08
9.63988e-08
9.63994e-08
9.63994e-08
9.63988e-08
9.63968e-08
9.66098e-08
9.65777e-08
9.65578e-08
9.6396e-08
9.63987e-08
9.63988e-08
9.63988e-08
9.63987e-08
9.6396e-08
9.66122e-08
9.66885e-08
9.6686e-08
9.65755e-08
9.63959e-08
9.63968e-08
9.63968e-08
9.6396e-08
9.65983e-08
9.65933e-08
9.6689e-08
9.66607e-08
9.6574e-08
9.66117e-08
9.66116e-08
9.66098e-08
9.66122e-08
9.65934e-08
9.66952e-08
9.66862e-08
9.66843e-08
9.65777e-08
9.66885e-08
9.6689e-08
9.55082e-08
9.54998e-08
9.5507e-08
9.54045e-08
9.54005e-08
9.54045e-08
9.54021e-08
9.55286e-08
9.55041e-08
9.5507e-08
9.53982e-08
9.52447e-08
9.52454e-08
9.52454e-08
9.52447e-08
9.542e-08
9.54187e-08
9.54045e-08
9.52447e-08
9.52474e-08
9.5247e-08
9.5247e-08
9.52474e-08
9.52447e-08
9.54564e-08
9.55293e-08
9.55082e-08
9.54005e-08
9.52454e-08
9.5247e-08
9.52471e-08
9.52471e-08
9.5247e-08
9.52454e-08
9.54561e-08
9.55274e-08
9.54998e-08
9.54045e-08
9.52454e-08
9.5247e-08
9.52471e-08
9.52471e-08
9.5247e-08
9.52454e-08
9.54542e-08
9.54222e-08
9.54021e-08
9.52447e-08
9.52474e-08
9.52469e-08
9.52469e-08
9.52474e-08
9.52447e-08
9.54562e-08
9.55314e-08
9.55286e-08
9.542e-08
9.52447e-08
9.52454e-08
9.52454e-08
9.52447e-08
9.54427e-08
9.54375e-08
9.55316e-08
9.55041e-08
9.54187e-08
9.54564e-08
9.5456e-08
9.54541e-08
9.54562e-08
9.54375e-08
9.55382e-08
9.55293e-08
9.55273e-08
9.54222e-08
9.55314e-08
9.55316e-08
9.43719e-08
9.43635e-08
9.43708e-08
9.42691e-08
9.42649e-08
9.42687e-08
9.42664e-08
9.43918e-08
9.43678e-08
9.43705e-08
9.42626e-08
9.41116e-08
9.41121e-08
9.41121e-08
9.41116e-08
9.42845e-08
9.42839e-08
9.42689e-08
9.41115e-08
9.41142e-08
9.41135e-08
9.41135e-08
9.41142e-08
9.41116e-08
9.43212e-08
9.43931e-08
9.43718e-08
9.42648e-08
9.41121e-08
9.41134e-08
9.41132e-08
9.41132e-08
9.41135e-08
9.41121e-08
9.43207e-08
9.43911e-08
9.43634e-08
9.42687e-08
9.41121e-08
9.41134e-08
9.41132e-08
9.41132e-08
9.41134e-08
9.41121e-08
9.43187e-08
9.42867e-08
9.42664e-08
9.41116e-08
9.41142e-08
9.41134e-08
9.41134e-08
9.41142e-08
9.41116e-08
9.43206e-08
9.4395e-08
9.4392e-08
9.42846e-08
9.41115e-08
9.4112e-08
9.4112e-08
9.41115e-08
9.43072e-08
9.43021e-08
9.43952e-08
9.4368e-08
9.42825e-08
9.43209e-08
9.43205e-08
9.43185e-08
9.43204e-08
9.43015e-08
9.44018e-08
9.43928e-08
9.43909e-08
9.42865e-08
9.43948e-08
9.43949e-08
9.32458e-08
9.32374e-08
9.32446e-08
9.31433e-08
9.31391e-08
9.31428e-08
9.31406e-08
9.32658e-08
9.32419e-08
9.32443e-08
9.31368e-08
9.29869e-08
9.29874e-08
9.29874e-08
9.29869e-08
9.31588e-08
9.31569e-08
9.31431e-08
9.29868e-08
9.29896e-08
9.29886e-08
9.29886e-08
9.29896e-08
9.29868e-08
9.31953e-08
9.32667e-08
9.32456e-08
9.3139e-08
9.29873e-08
9.29886e-08
9.29882e-08
9.29882e-08
9.29886e-08
9.29873e-08
9.31949e-08
9.32648e-08
9.32372e-08
9.31427e-08
9.29873e-08
9.29885e-08
9.29881e-08
9.29881e-08
9.29886e-08
9.29873e-08
9.31929e-08
9.31608e-08
9.31405e-08
9.29868e-08
9.29895e-08
9.29885e-08
9.29885e-08
9.29895e-08
9.29868e-08
9.31947e-08
9.32687e-08
9.32657e-08
9.31587e-08
9.29867e-08
9.29872e-08
9.29872e-08
9.29867e-08
9.31814e-08
9.31762e-08
9.32689e-08
9.32418e-08
9.31568e-08
9.31952e-08
9.31948e-08
9.31928e-08
9.31945e-08
9.31757e-08
9.32756e-08
9.32666e-08
9.32647e-08
9.31607e-08
9.32685e-08
9.32686e-08
9.21238e-08
9.21154e-08
9.21226e-08
9.20215e-08
9.20173e-08
9.2021e-08
9.20188e-08
9.21438e-08
9.212e-08
9.21224e-08
9.20149e-08
9.18654e-08
9.18659e-08
9.18659e-08
9.18654e-08
9.2037e-08
9.20351e-08
9.20213e-08
9.18654e-08
9.18683e-08
9.18671e-08
9.18671e-08
9.18683e-08
9.18654e-08
9.20737e-08
9.21448e-08
9.21237e-08
9.20172e-08
9.18659e-08
9.18671e-08
9.18666e-08
9.18666e-08
9.18671e-08
9.18659e-08
9.20732e-08
9.21429e-08
9.21153e-08
9.20209e-08
9.18659e-08
9.18671e-08
9.18666e-08
9.18666e-08
9.18671e-08
9.18659e-08
9.20712e-08
9.2039e-08
9.20187e-08
9.18654e-08
9.18682e-08
9.18671e-08
9.18671e-08
9.18682e-08
9.18654e-08
9.20729e-08
9.21468e-08
9.21437e-08
9.20369e-08
9.18653e-08
9.18658e-08
9.18658e-08
9.18653e-08
9.20596e-08
9.20543e-08
9.21469e-08
9.21199e-08
9.2035e-08
9.20736e-08
9.20731e-08
9.20711e-08
9.20727e-08
9.20539e-08
9.21537e-08
9.21447e-08
9.21428e-08
9.20389e-08
9.21466e-08
9.21466e-08
9.10034e-08
9.09949e-08
9.10022e-08
9.09011e-08
9.08969e-08
9.09005e-08
9.08983e-08
9.10231e-08
9.09994e-08
9.10019e-08
9.08945e-08
9.07452e-08
9.07456e-08
9.07456e-08
9.07452e-08
9.09165e-08
9.09158e-08
9.09009e-08
9.07451e-08
9.07481e-08
9.07469e-08
9.07469e-08
9.07481e-08
9.07452e-08
9.09535e-08
9.10245e-08
9.10032e-08
9.08968e-08
9.07456e-08
9.07469e-08
9.07463e-08
9.07463e-08
9.07469e-08
9.07456e-08
9.09529e-08
9.10225e-08
9.09948e-08
9.09004e-08
9.07456e-08
9.07468e-08
9.07463e-08
9.07463e-08
9.07469e-08
9.07456e-08
9.09509e-08
9.09187e-08
9.08983e-08
9.07451e-08
9.07481e-08
9.07468e-08
9.07468e-08
9.07481e-08
9.07452e-08
9.09526e-08
9.10263e-08
9.10233e-08
9.09165e-08
9.07451e-08
9.07455e-08
9.07455e-08
9.07451e-08
9.09392e-08
9.09339e-08
9.10264e-08
9.09995e-08
9.09146e-08
9.09532e-08
9.09528e-08
9.09507e-08
9.09524e-08
9.09335e-08
9.10332e-08
9.10243e-08
9.10223e-08
9.09185e-08
9.10261e-08
9.10262e-08
8.98834e-08
8.9875e-08
8.98822e-08
8.97812e-08
8.9777e-08
8.97806e-08
8.97784e-08
8.99034e-08
8.98796e-08
8.9882e-08
8.97746e-08
8.96253e-08
8.96257e-08
8.96257e-08
8.96253e-08
8.97967e-08
8.97948e-08
8.9781e-08
8.96253e-08
8.96281e-08
8.9627e-08
8.9627e-08
8.96282e-08
8.96253e-08
8.98334e-08
8.99044e-08
8.98833e-08
8.97768e-08
8.96257e-08
8.9627e-08
8.96264e-08
8.96264e-08
8.9627e-08
8.96257e-08
8.98329e-08
8.99025e-08
8.98749e-08
8.97805e-08
8.96257e-08
8.9627e-08
8.96263e-08
8.96263e-08
8.9627e-08
8.96257e-08
8.98309e-08
8.97987e-08
8.97784e-08
8.96253e-08
8.96281e-08
8.9627e-08
8.9627e-08
8.96281e-08
8.96253e-08
8.98326e-08
8.99064e-08
8.99033e-08
8.97966e-08
8.96252e-08
8.96256e-08
8.96256e-08
8.96252e-08
8.98193e-08
8.9814e-08
8.99065e-08
8.98795e-08
8.97947e-08
8.98333e-08
8.98329e-08
8.98308e-08
8.98324e-08
8.98135e-08
8.99133e-08
8.99043e-08
8.99024e-08
8.97986e-08
8.99062e-08
8.99062e-08
8.87636e-08
8.87552e-08
8.87624e-08
8.86614e-08
8.86572e-08
8.86608e-08
8.86586e-08
8.87836e-08
8.87598e-08
8.87622e-08
8.86548e-08
8.85055e-08
8.8506e-08
8.8506e-08
8.85055e-08
8.86769e-08
8.8675e-08
8.86611e-08
8.85055e-08
8.85083e-08
8.85072e-08
8.85072e-08
8.85084e-08
8.85055e-08
8.87136e-08
8.87846e-08
8.87635e-08
8.8657e-08
8.85059e-08
8.85072e-08
8.85066e-08
8.85066e-08
8.85072e-08
8.85059e-08
8.87132e-08
8.87827e-08
8.87551e-08
8.86607e-08
8.85059e-08
8.85072e-08
8.85066e-08
8.85066e-08
8.85072e-08
8.85059e-08
8.87111e-08
8.86789e-08
8.86585e-08
8.85055e-08
8.85083e-08
8.85072e-08
8.85072e-08
8.85083e-08
8.85055e-08
8.87128e-08
8.87866e-08
8.87835e-08
8.86768e-08
8.85055e-08
8.85059e-08
8.85059e-08
8.85055e-08
8.86995e-08
8.86942e-08
8.87867e-08
8.87597e-08
8.86749e-08
8.87135e-08
8.87131e-08
8.8711e-08
8.87127e-08
8.86938e-08
8.87935e-08
8.87845e-08
8.87826e-08
8.86788e-08
8.87864e-08
8.87865e-08
8.76438e-08
8.76354e-08
8.76427e-08
8.75416e-08
8.75374e-08
8.7541e-08
8.75388e-08
8.76636e-08
8.76399e-08
8.76424e-08
8.7535e-08
8.73858e-08
8.73862e-08
8.73862e-08
8.73858e-08
8.7557e-08
8.75563e-08
8.75414e-08
8.73857e-08
8.73886e-08
8.73875e-08
8.73875e-08
8.73886e-08
8.73858e-08
8.7594e-08
8.7665e-08
8.76437e-08
8.75372e-08
8.73861e-08
8.73874e-08
8.73868e-08
8.73868e-08
8.73875e-08
8.73862e-08
8.75935e-08
8.7663e-08
8.76353e-08
8.75409e-08
8.73861e-08
8.73874e-08
8.73868e-08
8.73868e-08
8.73875e-08
8.73862e-08
8.75914e-08
8.75592e-08
8.75387e-08
8.73857e-08
8.73886e-08
8.73875e-08
8.73875e-08
8.73886e-08
8.73858e-08
8.7593e-08
8.76668e-08
8.76635e-08
8.75569e-08
8.73858e-08
8.73862e-08
8.73862e-08
8.73858e-08
8.75798e-08
8.7574e-08
8.76668e-08
8.76398e-08
8.75563e-08
8.7594e-08
8.75935e-08
8.75914e-08
8.75931e-08
8.75745e-08
8.76738e-08
8.7665e-08
8.7663e-08
8.75592e-08
8.76668e-08
8.76669e-08
8.65241e-08
8.65156e-08
8.65229e-08
8.64218e-08
8.64176e-08
8.64212e-08
8.6419e-08
8.65438e-08
8.65201e-08
8.65226e-08
8.64153e-08
8.6266e-08
8.62664e-08
8.62664e-08
8.6266e-08
8.64373e-08
8.64366e-08
8.64216e-08
8.6266e-08
8.62688e-08
8.62677e-08
8.62677e-08
8.62689e-08
8.62661e-08
8.64743e-08
8.65453e-08
8.65239e-08
8.64175e-08
8.62664e-08
8.62677e-08
8.62671e-08
8.62671e-08
8.62678e-08
8.62665e-08
8.64738e-08
8.65433e-08
8.65155e-08
8.64211e-08
8.62664e-08
8.62677e-08
8.62671e-08
8.62671e-08
8.62678e-08
8.62665e-08
8.64717e-08
8.64395e-08
8.64189e-08
8.6266e-08
8.62688e-08
8.62677e-08
8.62677e-08
8.62689e-08
8.62661e-08
8.64734e-08
8.65471e-08
8.65438e-08
8.64372e-08
8.6266e-08
8.62664e-08
8.62664e-08
8.6266e-08
8.646e-08
8.64548e-08
8.65472e-08
8.652e-08
8.64365e-08
8.64742e-08
8.64737e-08
8.64716e-08
8.64732e-08
8.64543e-08
8.6554e-08
8.65452e-08
8.65432e-08
8.64394e-08
8.6547e-08
8.6547e-08
8.54043e-08
8.53959e-08
8.54032e-08
8.53021e-08
8.52979e-08
8.53015e-08
8.52993e-08
8.54241e-08
8.54004e-08
8.54029e-08
8.52956e-08
8.51463e-08
8.51467e-08
8.51467e-08
8.51463e-08
8.53175e-08
8.53169e-08
8.53019e-08
8.51463e-08
8.51491e-08
8.5148e-08
8.5148e-08
8.51491e-08
8.51463e-08
8.53546e-08
8.54256e-08
8.54042e-08
8.52978e-08
8.51467e-08
8.5148e-08
8.51474e-08
8.51474e-08
8.5148e-08
8.51467e-08
8.5354e-08
8.54236e-08
8.53958e-08
8.53015e-08
8.51467e-08
8.5148e-08
8.51473e-08
8.51473e-08
8.5148e-08
8.51467e-08
8.5352e-08
8.53198e-08
8.52993e-08
8.51463e-08
8.51491e-08
8.5148e-08
8.5148e-08
8.51491e-08
8.51463e-08
8.53536e-08
8.54274e-08
8.54243e-08
8.53176e-08
8.51462e-08
8.51466e-08
8.51466e-08
8.51463e-08
8.53403e-08
8.5335e-08
8.54275e-08
8.54005e-08
8.53157e-08
8.53543e-08
8.53539e-08
8.53518e-08
8.53534e-08
8.53345e-08
8.54343e-08
8.54253e-08
8.54234e-08
8.53196e-08
8.54272e-08
8.54272e-08
8.42847e-08
8.42762e-08
8.42835e-08
8.41824e-08
8.41782e-08
8.41818e-08
8.41797e-08
8.43046e-08
8.42809e-08
8.42832e-08
8.41759e-08
8.40266e-08
8.4027e-08
8.4027e-08
8.40266e-08
8.4198e-08
8.41961e-08
8.41822e-08
8.40265e-08
8.40294e-08
8.40283e-08
8.40283e-08
8.40294e-08
8.40266e-08
8.42347e-08
8.43057e-08
8.42845e-08
8.41781e-08
8.4027e-08
8.40283e-08
8.40276e-08
8.40276e-08
8.40283e-08
8.4027e-08
8.42342e-08
8.43038e-08
8.42761e-08
8.41818e-08
8.4027e-08
8.40283e-08
8.40276e-08
8.40276e-08
8.40283e-08
8.4027e-08
8.42322e-08
8.42e-08
8.41796e-08
8.40266e-08
8.40294e-08
8.40282e-08
8.40282e-08
8.40294e-08
8.40266e-08
8.42339e-08
8.43076e-08
8.43045e-08
8.41979e-08
8.40265e-08
8.40269e-08
8.40269e-08
8.40265e-08
8.42206e-08
8.42153e-08
8.43077e-08
8.42808e-08
8.4196e-08
8.42345e-08
8.42341e-08
8.42321e-08
8.42337e-08
8.42148e-08
8.43145e-08
8.43056e-08
8.43036e-08
8.41998e-08
8.43075e-08
8.43075e-08
8.31649e-08
8.31565e-08
8.31637e-08
8.30627e-08
8.30584e-08
8.30621e-08
8.30598e-08
8.31847e-08
8.31609e-08
8.31635e-08
8.30561e-08
8.29069e-08
8.29073e-08
8.29073e-08
8.29069e-08
8.30781e-08
8.30774e-08
8.30625e-08
8.29068e-08
8.29097e-08
8.29086e-08
8.29086e-08
8.29097e-08
8.29069e-08
8.31151e-08
8.31861e-08
8.31648e-08
8.30584e-08
8.29072e-08
8.29085e-08
8.29079e-08
8.29079e-08
8.29086e-08
8.29073e-08
8.31146e-08
8.31841e-08
8.31564e-08
8.3062e-08
8.29072e-08
8.29085e-08
8.29079e-08
8.29079e-08
8.29086e-08
8.29073e-08
8.31125e-08
8.30803e-08
8.30599e-08
8.29068e-08
8.29096e-08
8.29085e-08
8.29085e-08
8.29097e-08
8.29069e-08
8.31142e-08
8.31879e-08
8.31848e-08
8.30782e-08
8.29068e-08
8.29072e-08
8.29072e-08
8.29068e-08
8.31008e-08
8.30956e-08
8.3188e-08
8.3161e-08
8.30762e-08
8.31148e-08
8.31144e-08
8.31123e-08
8.3114e-08
8.30951e-08
8.31948e-08
8.31858e-08
8.31839e-08
8.30801e-08
8.31877e-08
8.31878e-08
8.20452e-08
8.20367e-08
8.2044e-08
8.19429e-08
8.19387e-08
8.19423e-08
8.19401e-08
8.20649e-08
8.20412e-08
8.20438e-08
8.19364e-08
8.17871e-08
8.17875e-08
8.17875e-08
8.17871e-08
8.19584e-08
8.19577e-08
8.19428e-08
8.17871e-08
8.179e-08
8.17888e-08
8.17888e-08
8.179e-08
8.17872e-08
8.19954e-08
8.20664e-08
8.20451e-08
8.19386e-08
8.17875e-08
8.17888e-08
8.17882e-08
8.17882e-08
8.17889e-08
8.17876e-08
8.19949e-08
8.20644e-08
8.20367e-08
8.19423e-08
8.17875e-08
8.17888e-08
8.17882e-08
8.17882e-08
8.17889e-08
8.17876e-08
8.19928e-08
8.19606e-08
8.19402e-08
8.17871e-08
8.17899e-08
8.17888e-08
8.17888e-08
8.179e-08
8.17872e-08
8.19945e-08
8.20682e-08
8.20651e-08
8.19584e-08
8.17871e-08
8.17875e-08
8.17875e-08
8.17871e-08
8.19811e-08
8.19758e-08
8.20683e-08
8.20413e-08
8.19565e-08
8.19951e-08
8.19947e-08
8.19926e-08
8.19943e-08
8.19754e-08
8.20751e-08
8.20661e-08
8.20642e-08
8.19604e-08
8.2068e-08
8.20681e-08
8.09254e-08
8.0917e-08
8.09243e-08
8.08232e-08
8.0819e-08
8.08226e-08
8.08204e-08
8.09452e-08
8.09215e-08
8.09241e-08
8.08167e-08
8.06674e-08
8.06678e-08
8.06678e-08
8.06674e-08
8.08386e-08
8.0838e-08
8.08231e-08
8.06674e-08
8.06702e-08
8.06691e-08
8.06691e-08
8.06703e-08
8.06675e-08
8.08757e-08
8.09467e-08
8.09254e-08
8.08189e-08
8.06678e-08
8.06691e-08
8.06685e-08
8.06685e-08
8.06691e-08
8.06679e-08
8.08752e-08
8.09447e-08
8.0917e-08
8.08226e-08
8.06678e-08
8.06691e-08
8.06685e-08
8.06685e-08
8.06691e-08
8.06679e-08
8.08731e-08
8.08409e-08
8.08205e-08
8.06674e-08
8.06702e-08
8.06691e-08
8.06691e-08
8.06702e-08
8.06675e-08
8.08747e-08
8.09485e-08
8.09454e-08
8.08387e-08
8.06674e-08
8.06678e-08
8.06678e-08
8.06674e-08
8.08614e-08
8.08561e-08
8.09486e-08
8.09216e-08
8.08368e-08
8.08754e-08
8.0875e-08
8.08729e-08
8.08746e-08
8.08557e-08
8.09554e-08
8.09464e-08
8.09445e-08
8.08407e-08
8.09483e-08
8.09483e-08
7.98057e-08
7.97972e-08
7.98043e-08
7.97033e-08
7.96992e-08
7.97029e-08
7.97006e-08
7.98255e-08
7.98018e-08
7.98046e-08
7.9697e-08
7.95477e-08
7.95481e-08
7.95481e-08
7.95477e-08
7.97189e-08
7.97183e-08
7.97035e-08
7.95477e-08
7.95505e-08
7.95494e-08
7.95494e-08
7.95506e-08
7.95478e-08
7.9756e-08
7.9827e-08
7.98057e-08
7.96993e-08
7.95481e-08
7.95494e-08
7.95488e-08
7.95488e-08
7.95494e-08
7.95482e-08
7.97554e-08
7.9825e-08
7.97973e-08
7.97029e-08
7.95481e-08
7.95494e-08
7.95488e-08
7.95488e-08
7.95494e-08
7.95482e-08
7.97534e-08
7.97212e-08
7.97008e-08
7.95477e-08
7.95505e-08
7.95494e-08
7.95494e-08
7.95505e-08
7.95478e-08
7.9755e-08
7.98288e-08
7.98257e-08
7.9719e-08
7.95477e-08
7.95481e-08
7.95481e-08
7.95477e-08
7.97417e-08
7.97364e-08
7.98289e-08
7.98019e-08
7.97171e-08
7.97557e-08
7.97553e-08
7.97532e-08
7.97549e-08
7.9736e-08
7.98357e-08
7.98267e-08
7.98248e-08
7.9721e-08
7.98286e-08
7.98287e-08
7.8686e-08
7.86776e-08
7.86849e-08
7.85838e-08
7.85796e-08
7.85832e-08
7.8581e-08
7.87058e-08
7.86821e-08
7.86846e-08
7.85773e-08
7.8428e-08
7.84284e-08
7.84284e-08
7.8428e-08
7.85992e-08
7.85985e-08
7.85836e-08
7.8428e-08
7.84308e-08
7.84297e-08
7.84297e-08
7.84308e-08
7.8428e-08
7.86363e-08
7.87073e-08
7.86859e-08
7.85795e-08
7.84284e-08
7.84297e-08
7.84291e-08
7.84291e-08
7.84297e-08
7.84284e-08
7.86357e-08
7.87053e-08
7.86775e-08
7.85831e-08
7.84284e-08
7.84297e-08
7.84291e-08
7.84291e-08
7.84297e-08
7.84284e-08
7.86337e-08
7.86015e-08
7.85809e-08
7.8428e-08
7.84308e-08
7.84297e-08
7.84297e-08
7.84308e-08
7.8428e-08
7.86353e-08
7.87091e-08
7.87058e-08
7.85992e-08
7.8428e-08
7.84284e-08
7.84284e-08
7.8428e-08
7.8622e-08
7.86167e-08
7.87092e-08
7.8682e-08
7.85985e-08
7.86362e-08
7.86357e-08
7.86336e-08
7.86352e-08
7.86163e-08
7.8716e-08
7.87072e-08
7.87052e-08
7.86014e-08
7.8709e-08
7.8709e-08
7.75663e-08
7.75579e-08
7.75652e-08
7.74641e-08
7.74599e-08
7.74635e-08
7.74613e-08
7.75861e-08
7.75624e-08
7.75649e-08
7.74576e-08
7.73083e-08
7.73087e-08
7.73087e-08
7.73083e-08
7.74795e-08
7.74788e-08
7.74639e-08
7.73083e-08
7.73111e-08
7.731e-08
7.731e-08
7.73111e-08
7.73083e-08
7.75165e-08
7.75875e-08
7.75662e-08
7.74598e-08
7.73087e-08
7.731e-08
7.73094e-08
7.73094e-08
7.731e-08
7.73087e-08
7.7516e-08
7.75855e-08
7.75578e-08
7.74634e-08
7.73087e-08
7.731e-08
7.73094e-08
7.73094e-08
7.731e-08
7.73087e-08
7.75139e-08
7.74817e-08
7.74612e-08
7.73083e-08
7.73111e-08
7.731e-08
7.731e-08
7.73111e-08
7.73083e-08
7.75155e-08
7.75893e-08
7.7586e-08
7.74795e-08
7.73083e-08
7.73087e-08
7.73087e-08
7.73083e-08
7.75023e-08
7.74966e-08
7.75893e-08
7.75623e-08
7.74788e-08
7.75165e-08
7.7516e-08
7.75139e-08
7.75156e-08
7.7497e-08
7.75963e-08
7.75875e-08
7.75855e-08
7.74817e-08
7.75894e-08
7.75895e-08
7.64467e-08
7.64383e-08
7.64455e-08
7.63444e-08
7.63402e-08
7.63439e-08
7.63417e-08
7.64666e-08
7.64429e-08
7.64452e-08
7.63379e-08
7.61886e-08
7.6189e-08
7.6189e-08
7.61886e-08
7.636e-08
7.63581e-08
7.63442e-08
7.61886e-08
7.61914e-08
7.61903e-08
7.61903e-08
7.61914e-08
7.61886e-08
7.63966e-08
7.64677e-08
7.64466e-08
7.63401e-08
7.6189e-08
7.61903e-08
7.61897e-08
7.61897e-08
7.61903e-08
7.6189e-08
7.63962e-08
7.64657e-08
7.64382e-08
7.63438e-08
7.6189e-08
7.61903e-08
7.61897e-08
7.61897e-08
7.61903e-08
7.6189e-08
7.63941e-08
7.63619e-08
7.63416e-08
7.61886e-08
7.61914e-08
7.61903e-08
7.61903e-08
7.61914e-08
7.61886e-08
7.63958e-08
7.64695e-08
7.64666e-08
7.63599e-08
7.61886e-08
7.6189e-08
7.6189e-08
7.61886e-08
7.63826e-08
7.63768e-08
7.64695e-08
7.64428e-08
7.6358e-08
7.63966e-08
7.63962e-08
7.63942e-08
7.63959e-08
7.63773e-08
7.64766e-08
7.64677e-08
7.64657e-08
7.6362e-08
7.64696e-08
7.64697e-08
7.5327e-08
7.53186e-08
7.53258e-08
7.52247e-08
7.52205e-08
7.52242e-08
7.5222e-08
7.5347e-08
7.53232e-08
7.53255e-08
7.52182e-08
7.50689e-08
7.50693e-08
7.50693e-08
7.50689e-08
7.52403e-08
7.52384e-08
7.52245e-08
7.50689e-08
7.50717e-08
7.50706e-08
7.50706e-08
7.50718e-08
7.50689e-08
7.5277e-08
7.5348e-08
7.53269e-08
7.52204e-08
7.50693e-08
7.50706e-08
7.507e-08
7.507e-08
7.50706e-08
7.50693e-08
7.52765e-08
7.53461e-08
7.53185e-08
7.52241e-08
7.50693e-08
7.50706e-08
7.507e-08
7.507e-08
7.50706e-08
7.50693e-08
7.52745e-08
7.52423e-08
7.5222e-08
7.50689e-08
7.50717e-08
7.50706e-08
7.50706e-08
7.50717e-08
7.50689e-08
7.52762e-08
7.53499e-08
7.53469e-08
7.52402e-08
7.50689e-08
7.50693e-08
7.50693e-08
7.50689e-08
7.52629e-08
7.52576e-08
7.535e-08
7.53231e-08
7.52383e-08
7.52769e-08
7.52765e-08
7.52744e-08
7.5276e-08
7.52571e-08
7.53569e-08
7.53479e-08
7.5346e-08
7.52422e-08
7.53498e-08
7.53498e-08
7.42072e-08
7.41988e-08
7.42061e-08
7.4105e-08
7.41008e-08
7.41044e-08
7.41022e-08
7.4227e-08
7.42033e-08
7.42058e-08
7.40985e-08
7.39492e-08
7.39496e-08
7.39496e-08
7.39492e-08
7.41204e-08
7.41197e-08
7.41048e-08
7.39492e-08
7.3952e-08
7.39509e-08
7.39509e-08
7.3952e-08
7.39492e-08
7.41575e-08
7.42284e-08
7.42072e-08
7.41007e-08
7.39496e-08
7.39509e-08
7.39503e-08
7.39503e-08
7.39509e-08
7.39496e-08
7.41569e-08
7.42265e-08
7.41988e-08
7.41044e-08
7.39496e-08
7.39509e-08
7.39503e-08
7.39503e-08
7.39509e-08
7.39496e-08
7.41548e-08
7.41226e-08
7.41023e-08
7.39492e-08
7.3952e-08
7.39509e-08
7.39509e-08
7.3952e-08
7.39492e-08
7.41565e-08
7.42303e-08
7.42272e-08
7.41205e-08
7.39492e-08
7.39496e-08
7.39496e-08
7.39492e-08
7.41432e-08
7.41379e-08
7.42304e-08
7.42034e-08
7.41186e-08
7.41572e-08
7.41568e-08
7.41548e-08
7.41564e-08
7.41375e-08
7.42372e-08
7.42282e-08
7.42263e-08
7.41225e-08
7.42301e-08
7.42302e-08
7.30874e-08
7.3079e-08
7.30861e-08
7.29851e-08
7.2981e-08
7.29846e-08
7.29824e-08
7.31073e-08
7.30835e-08
7.30864e-08
7.29788e-08
7.28295e-08
7.28299e-08
7.28299e-08
7.28295e-08
7.30007e-08
7.3e-08
7.29853e-08
7.28295e-08
7.28323e-08
7.28312e-08
7.28312e-08
7.28323e-08
7.28295e-08
7.30378e-08
7.31087e-08
7.30875e-08
7.29811e-08
7.28299e-08
7.28312e-08
7.28306e-08
7.28306e-08
7.28312e-08
7.28299e-08
7.30372e-08
7.31067e-08
7.30791e-08
7.29847e-08
7.28299e-08
7.28312e-08
7.28306e-08
7.28306e-08
7.28312e-08
7.28299e-08
7.30351e-08
7.30029e-08
7.29825e-08
7.28295e-08
7.28324e-08
7.28312e-08
7.28312e-08
7.28324e-08
7.28295e-08
7.30367e-08
7.31105e-08
7.31073e-08
7.30007e-08
7.28296e-08
7.283e-08
7.283e-08
7.28296e-08
7.30235e-08
7.30178e-08
7.31105e-08
7.30836e-08
7.30001e-08
7.30378e-08
7.30372e-08
7.30352e-08
7.30368e-08
7.30183e-08
7.31175e-08
7.31087e-08
7.31068e-08
7.3003e-08
7.31106e-08
7.31107e-08
7.19677e-08
7.19593e-08
7.19664e-08
7.18654e-08
7.18613e-08
7.1865e-08
7.18627e-08
7.19876e-08
7.19638e-08
7.19667e-08
7.18591e-08
7.17098e-08
7.17102e-08
7.17102e-08
7.17098e-08
7.1881e-08
7.18803e-08
7.18656e-08
7.17098e-08
7.17126e-08
7.17115e-08
7.17115e-08
7.17126e-08
7.17098e-08
7.1918e-08
7.1989e-08
7.19678e-08
7.18614e-08
7.17102e-08
7.17115e-08
7.17109e-08
7.17109e-08
7.17115e-08
7.17102e-08
7.19175e-08
7.1987e-08
7.19594e-08
7.1865e-08
7.17102e-08
7.17115e-08
7.17109e-08
7.17109e-08
7.17115e-08
7.17102e-08
7.19154e-08
7.18832e-08
7.18628e-08
7.17098e-08
7.17126e-08
7.17115e-08
7.17115e-08
7.17127e-08
7.17098e-08
7.1917e-08
7.19908e-08
7.19876e-08
7.1881e-08
7.17098e-08
7.17102e-08
7.17102e-08
7.17098e-08
7.19038e-08
7.18981e-08
7.19908e-08
7.19639e-08
7.18803e-08
7.19181e-08
7.19175e-08
7.19155e-08
7.19171e-08
7.18986e-08
7.19978e-08
7.19891e-08
7.19871e-08
7.18832e-08
7.19909e-08
7.1991e-08
7.08482e-08
7.08397e-08
7.0847e-08
7.07459e-08
7.07417e-08
7.07454e-08
7.07432e-08
7.08681e-08
7.08444e-08
7.08467e-08
7.07394e-08
7.05901e-08
7.05905e-08
7.05905e-08
7.05901e-08
7.07615e-08
7.07596e-08
7.07457e-08
7.05901e-08
7.05929e-08
7.05918e-08
7.05918e-08
7.0593e-08
7.05901e-08
7.07982e-08
7.08692e-08
7.08481e-08
7.07416e-08
7.05905e-08
7.05918e-08
7.05912e-08
7.05912e-08
7.05918e-08
7.05905e-08
7.07978e-08
7.08673e-08
7.08397e-08
7.07453e-08
7.05905e-08
7.05918e-08
7.05912e-08
7.05912e-08
7.05918e-08
7.05905e-08
7.07957e-08
7.07635e-08
7.07432e-08
7.05901e-08
7.05929e-08
7.05918e-08
7.05918e-08
7.05929e-08
7.05901e-08
7.07974e-08
7.08711e-08
7.08681e-08
7.07614e-08
7.05901e-08
7.05905e-08
7.05905e-08
7.05901e-08
7.07841e-08
7.07788e-08
7.08713e-08
7.08443e-08
7.07595e-08
7.07981e-08