/*--------------------------------*- C++ -*----------------------------------*\
| =========                 |                                                 |
| \\      /  F ield         | OpenFOAM: The Open Source CFD Toolbox           |
|  \\    /   O peration     | Version:                                        |
|   \\  /    A nd           | Website:  www.openfoam.com                      |
|    \\/     M anipulation  |                                                 |
\*---------------------------------------------------------------------------*/
FoamFile
{
    version     2.0;
    format      ascii;
    class       volScalarField;
    location    "25000";
    object      p;
}
// * * * * * * * * * * * * * * * * * * * * * * * * * * * * * * * * * * * * * //

dimensions      [0 2 -2 0 0 0 0];


internalField   nonuniform List<scalar> 
172512
(
1.31338e-07
1.31307e-07
1.31307e-07
1.31261e-07
1.28239e-07
1.28156e-07
1.28156e-07
1.28285e-07
1.26071e-07
1.26045e-07
1.26045e-07
1.26154e-07
1.24243e-07
1.24235e-07
1.24235e-07
1.2433e-07
1.22587e-07
1.22587e-07
1.22587e-07
1.22676e-07
1.21035e-07
1.21037e-07
1.21037e-07
1.21121e-07
1.19552e-07
1.19555e-07
1.19555e-07
1.19636e-07
1.1813e-07
1.18131e-07
1.18131e-07
1.18211e-07
1.16755e-07
1.16755e-07
1.16755e-07
1.16832e-07
1.15399e-07
1.15399e-07
1.15399e-07
1.15476e-07
1.14049e-07
1.14049e-07
1.14049e-07
1.14125e-07
1.12699e-07
1.12699e-07
1.12699e-07
1.12775e-07
1.11349e-07
1.11349e-07
1.11349e-07
1.11426e-07
1.1e-07
1.09999e-07
1.09999e-07
1.10076e-07
1.0865e-07
1.0865e-07
1.0865e-07
1.08726e-07
1.073e-07
1.073e-07
1.073e-07
1.07376e-07
1.0595e-07
1.0595e-07
1.0595e-07
1.06026e-07
1.046e-07
1.046e-07
1.046e-07
1.04677e-07
1.03251e-07
1.0325e-07
1.0325e-07
1.03327e-07
1.01901e-07
1.01901e-07
1.01901e-07
1.01977e-07
1.00551e-07
1.00551e-07
1.00551e-07
1.00627e-07
9.92013e-08
9.9201e-08
9.9201e-08
9.92775e-08
9.78515e-08
9.78513e-08
9.78513e-08
9.79277e-08
9.65018e-08
9.65016e-08
9.65016e-08
9.6578e-08
9.51521e-08
9.51519e-08
9.51519e-08
9.52283e-08
9.38025e-08
9.38022e-08
9.38022e-08
9.38787e-08
9.24528e-08
9.24526e-08
9.24526e-08
9.2529e-08
9.11031e-08
9.11029e-08
9.11029e-08
9.11793e-08
8.97536e-08
8.97533e-08
8.97533e-08
8.98297e-08
8.8404e-08
8.84038e-08
8.84038e-08
8.84802e-08
8.70545e-08
8.70542e-08
8.70542e-08
8.71307e-08
8.57049e-08
8.57047e-08
8.57047e-08
8.57811e-08
8.43553e-08
8.4355e-08
8.4355e-08
8.44314e-08
8.30056e-08
8.30054e-08
8.30054e-08
8.30818e-08
8.16559e-08
8.16557e-08
8.16557e-08
8.17321e-08
8.03062e-08
8.0306e-08
8.0306e-08
8.03824e-08
7.89565e-08
7.89562e-08
7.89562e-08
7.90327e-08
7.76068e-08
7.76066e-08
7.76066e-08
7.7683e-08
7.62571e-08
7.62569e-08
7.62569e-08
7.63333e-08
7.49074e-08
7.49072e-08
7.49072e-08
7.49836e-08
7.35577e-08
7.35575e-08
7.35575e-08
7.36339e-08
7.2208e-08
7.22078e-08
7.22078e-08
7.22842e-08
7.08583e-08
7.08581e-08
7.08581e-08
7.09345e-08
6.95086e-08
6.95084e-08
6.95084e-08
6.95848e-08
6.81589e-08
6.81587e-08
6.81587e-08
6.82351e-08
6.68092e-08
6.68089e-08
6.68089e-08
6.68853e-08
6.54594e-08
6.54591e-08
6.54591e-08
6.55356e-08
6.41096e-08
6.41093e-08
6.41093e-08
6.41858e-08
6.27597e-08
6.27595e-08
6.27595e-08
6.28359e-08
6.14099e-08
6.14097e-08
6.14097e-08
6.14861e-08
6.006e-08
6.00598e-08
6.00598e-08
6.01362e-08
5.87101e-08
5.87098e-08
5.87098e-08
5.87863e-08
5.736e-08
5.73598e-08
5.73598e-08
5.74363e-08
5.601e-08
5.60098e-08
5.60098e-08
5.60862e-08
5.466e-08
5.46598e-08
5.46598e-08
5.47362e-08
5.33101e-08
5.33098e-08
5.33098e-08
5.33863e-08
5.19602e-08
5.19599e-08
5.19599e-08
5.20364e-08
5.06103e-08
5.061e-08
5.061e-08
5.06865e-08
4.92604e-08
4.92601e-08
4.92601e-08
4.93366e-08
4.79104e-08
4.79102e-08
4.79102e-08
4.79866e-08
4.65605e-08
4.65603e-08
4.65603e-08
4.66367e-08
4.52106e-08
4.52103e-08
4.52103e-08
4.52868e-08
4.38605e-08
4.38603e-08
4.38603e-08
4.39368e-08
4.25105e-08
4.25103e-08
4.25103e-08
4.25867e-08
4.11605e-08
4.11603e-08
4.11603e-08
4.12367e-08
3.98105e-08
3.98102e-08
3.98102e-08
3.98867e-08
3.84604e-08
3.84602e-08
3.84602e-08
3.85366e-08
3.71103e-08
3.71101e-08
3.71101e-08
3.71865e-08
3.57602e-08
3.576e-08
3.576e-08
3.58365e-08
3.44101e-08
3.44099e-08
3.44099e-08
3.44863e-08
3.306e-08
3.30598e-08
3.30598e-08
3.31362e-08
3.17098e-08
3.17096e-08
3.17096e-08
3.17861e-08
3.03597e-08
3.03594e-08
3.03594e-08
3.04359e-08
2.90095e-08
2.90093e-08
2.90093e-08
2.90857e-08
2.76594e-08
2.76592e-08
2.76592e-08
2.77356e-08
2.63093e-08
2.6309e-08
2.6309e-08
2.63855e-08
2.49591e-08
2.49589e-08
2.49589e-08
2.50353e-08
2.3609e-08
2.36087e-08
2.36087e-08
2.36852e-08
2.22588e-08
2.22586e-08
2.22586e-08
2.2335e-08
2.09087e-08
2.09084e-08
2.09084e-08
2.09849e-08
1.95585e-08
1.95583e-08
1.95583e-08
1.96348e-08
1.82085e-08
1.82083e-08
1.82083e-08
1.82847e-08
1.68585e-08
1.68582e-08
1.68582e-08
1.69346e-08
1.55085e-08
1.55082e-08
1.55082e-08
1.55846e-08
1.41585e-08
1.41583e-08
1.41583e-08
1.42347e-08
1.28086e-08
1.28083e-08
1.28083e-08
1.28848e-08
1.14586e-08
1.14584e-08
1.14584e-08
1.15348e-08
1.01087e-08
1.01085e-08
1.01085e-08
1.01849e-08
8.75886e-09
8.75862e-09
8.75862e-09
8.83504e-09
7.40902e-09
7.40878e-09
7.40878e-09
7.48519e-09
6.05919e-09
6.05897e-09
6.05897e-09
6.13534e-09
4.70938e-09
4.7092e-09
4.7092e-09
4.78543e-09
3.35989e-09
3.35956e-09
3.35956e-09
3.43543e-09
2.01643e-09
2.01466e-09
2.01464e-09
2.08964e-09
8.64933e-10
7.8207e-10
7.82048e-10
7.50255e-10
1.31741e-07
1.31764e-07
1.31764e-07
1.31741e-07
1.31764e-07
1.31764e-07
1.3177e-07
1.3177e-07
1.3177e-07
1.3177e-07
1.31764e-07
1.31764e-07
1.31741e-07
1.31764e-07
1.31764e-07
1.31741e-07
1.31261e-07
1.28626e-07
1.31307e-07
1.31307e-07
1.28771e-07
1.28771e-07
1.31261e-07
1.28626e-07
1.31307e-07
1.31307e-07
1.28771e-07
1.28771e-07
1.31307e-07
1.28771e-07
1.28771e-07
1.31261e-07
1.28626e-07
1.31307e-07
1.28771e-07
1.28771e-07
1.28626e-07
1.28285e-07
1.26424e-07
1.28156e-07
1.28156e-07
1.26535e-07
1.26535e-07
1.28285e-07
1.26424e-07
1.28156e-07
1.28156e-07
1.26535e-07
1.26535e-07
1.28156e-07
1.26535e-07
1.26535e-07
1.28285e-07
1.26424e-07
1.28156e-07
1.26535e-07
1.26535e-07
1.26424e-07
1.26154e-07
1.24566e-07
1.26045e-07
1.26045e-07
1.24669e-07
1.24669e-07
1.26154e-07
1.24566e-07
1.26045e-07
1.26045e-07
1.24669e-07
1.24669e-07
1.26045e-07
1.24669e-07
1.24669e-07
1.26154e-07
1.24566e-07
1.26045e-07
1.24669e-07
1.24669e-07
1.24566e-07
1.2433e-07
1.22894e-07
1.24235e-07
1.24235e-07
1.22988e-07
1.22988e-07
1.2433e-07
1.22894e-07
1.24235e-07
1.24235e-07
1.22988e-07
1.22988e-07
1.24235e-07
1.22988e-07
1.22988e-07
1.2433e-07
1.22894e-07
1.24235e-07
1.22988e-07
1.22988e-07
1.22894e-07
1.22676e-07
1.21328e-07
1.22587e-07
1.22587e-07
1.21417e-07
1.21417e-07
1.22676e-07
1.21328e-07
1.22587e-07
1.22587e-07
1.21417e-07
1.21417e-07
1.22587e-07
1.21417e-07
1.21417e-07
1.22676e-07
1.21328e-07
1.22587e-07
1.21417e-07
1.21417e-07
1.21328e-07
1.21121e-07
1.19835e-07
1.21037e-07
1.21037e-07
1.1992e-07
1.1992e-07
1.21121e-07
1.19835e-07
1.21037e-07
1.21037e-07
1.1992e-07
1.1992e-07
1.21037e-07
1.1992e-07
1.1992e-07
1.21121e-07
1.19835e-07
1.21037e-07
1.1992e-07
1.1992e-07
1.19835e-07
1.19636e-07
1.18402e-07
1.19555e-07
1.19555e-07
1.18482e-07
1.18482e-07
1.19636e-07
1.18402e-07
1.19555e-07
1.19555e-07
1.18482e-07
1.18482e-07
1.19555e-07
1.18482e-07
1.18482e-07
1.19636e-07
1.18402e-07
1.19555e-07
1.18482e-07
1.18482e-07
1.18402e-07
1.18211e-07
1.17019e-07
1.18131e-07
1.18131e-07
1.17096e-07
1.17096e-07
1.18211e-07
1.17019e-07
1.18131e-07
1.18131e-07
1.17096e-07
1.17096e-07
1.18131e-07
1.17096e-07
1.17096e-07
1.18211e-07
1.17019e-07
1.18131e-07
1.17096e-07
1.17096e-07
1.17019e-07
1.16832e-07
1.15661e-07
1.16755e-07
1.16755e-07
1.15737e-07
1.15737e-07
1.16832e-07
1.15661e-07
1.16755e-07
1.16755e-07
1.15737e-07
1.15737e-07
1.16755e-07
1.15737e-07
1.15737e-07
1.16832e-07
1.15661e-07
1.16755e-07
1.15737e-07
1.15737e-07
1.15661e-07
1.15476e-07
1.1431e-07
1.15399e-07
1.15399e-07
1.14386e-07
1.14386e-07
1.15476e-07
1.1431e-07
1.15399e-07
1.15399e-07
1.14386e-07
1.14386e-07
1.15399e-07
1.14386e-07
1.14386e-07
1.15476e-07
1.1431e-07
1.15399e-07
1.14386e-07
1.14386e-07
1.1431e-07
1.14125e-07
1.1296e-07
1.14049e-07
1.14049e-07
1.13036e-07
1.13036e-07
1.14125e-07
1.1296e-07
1.14049e-07
1.14049e-07
1.13036e-07
1.13036e-07
1.14049e-07
1.13036e-07
1.13036e-07
1.14125e-07
1.1296e-07
1.14049e-07
1.13036e-07
1.13036e-07
1.1296e-07
1.12775e-07
1.1161e-07
1.12699e-07
1.12699e-07
1.11687e-07
1.11687e-07
1.12775e-07
1.1161e-07
1.12699e-07
1.12699e-07
1.11687e-07
1.11687e-07
1.12699e-07
1.11687e-07
1.11687e-07
1.12775e-07
1.1161e-07
1.12699e-07
1.11687e-07
1.11687e-07
1.1161e-07
1.11426e-07
1.1026e-07
1.11349e-07
1.11349e-07
1.10337e-07
1.10337e-07
1.11426e-07
1.1026e-07
1.11349e-07
1.11349e-07
1.10337e-07
1.10337e-07
1.11349e-07
1.10337e-07
1.10337e-07
1.11426e-07
1.1026e-07
1.11349e-07
1.10337e-07
1.10337e-07
1.1026e-07
1.10076e-07
1.08911e-07
1.09999e-07
1.09999e-07
1.08987e-07
1.08987e-07
1.10076e-07
1.08911e-07
1.09999e-07
1.09999e-07
1.08987e-07
1.08987e-07
1.09999e-07
1.08987e-07
1.08987e-07
1.10076e-07
1.08911e-07
1.09999e-07
1.08987e-07
1.08987e-07
1.08911e-07
1.08726e-07
1.07561e-07
1.0865e-07
1.0865e-07
1.07637e-07
1.07637e-07
1.08726e-07
1.07561e-07
1.0865e-07
1.0865e-07
1.07637e-07
1.07637e-07
1.0865e-07
1.07637e-07
1.07637e-07
1.08726e-07
1.07561e-07
1.0865e-07
1.07637e-07
1.07637e-07
1.07561e-07
1.07376e-07
1.06211e-07
1.073e-07
1.073e-07
1.06287e-07
1.06287e-07
1.07376e-07
1.06211e-07
1.073e-07
1.073e-07
1.06287e-07
1.06287e-07
1.073e-07
1.06287e-07
1.06287e-07
1.07376e-07
1.06211e-07
1.073e-07
1.06287e-07
1.06287e-07
1.06211e-07
1.06026e-07
1.04861e-07
1.0595e-07
1.0595e-07
1.04938e-07
1.04938e-07
1.06026e-07
1.04861e-07
1.0595e-07
1.0595e-07
1.04938e-07
1.04938e-07
1.0595e-07
1.04938e-07
1.04938e-07
1.06026e-07
1.04861e-07
1.0595e-07
1.04938e-07
1.04938e-07
1.04861e-07
1.04677e-07
1.03512e-07
1.046e-07
1.046e-07
1.03588e-07
1.03588e-07
1.04677e-07
1.03512e-07
1.046e-07
1.046e-07
1.03588e-07
1.03588e-07
1.046e-07
1.03588e-07
1.03588e-07
1.04677e-07
1.03512e-07
1.046e-07
1.03588e-07
1.03588e-07
1.03511e-07
1.03327e-07
1.02162e-07
1.0325e-07
1.0325e-07
1.02238e-07
1.02238e-07
1.03327e-07
1.02162e-07
1.0325e-07
1.0325e-07
1.02238e-07
1.02238e-07
1.0325e-07
1.02238e-07
1.02238e-07
1.03327e-07
1.02162e-07
1.0325e-07
1.02238e-07
1.02238e-07
1.02162e-07
1.01977e-07
1.00812e-07
1.01901e-07
1.01901e-07
1.00888e-07
1.00888e-07
1.01977e-07
1.00812e-07
1.01901e-07
1.01901e-07
1.00888e-07
1.00888e-07
1.01901e-07
1.00888e-07
1.00888e-07
1.01977e-07
1.00812e-07
1.01901e-07
1.00888e-07
1.00888e-07
1.00812e-07
1.00627e-07
9.94622e-08
1.00551e-07
1.00551e-07
9.95385e-08
9.95385e-08
1.00627e-07
9.94621e-08
1.00551e-07
1.00551e-07
9.95385e-08
9.95385e-08
1.00551e-07
9.95385e-08
9.95385e-08
1.00627e-07
9.94622e-08
1.00551e-07
9.95385e-08
9.95385e-08
9.94621e-08
9.92774e-08
9.81124e-08
9.9201e-08
9.9201e-08
9.81887e-08
9.81887e-08
9.92774e-08
9.81124e-08
9.9201e-08
9.9201e-08
9.81887e-08
9.81887e-08
9.9201e-08
9.81887e-08
9.81887e-08
9.92775e-08
9.81124e-08
9.9201e-08
9.81887e-08
9.81887e-08
9.81124e-08
9.79277e-08
9.67627e-08
9.78513e-08
9.78513e-08
9.6839e-08
9.6839e-08
9.79277e-08
9.67627e-08
9.78513e-08
9.78513e-08
9.6839e-08
9.6839e-08
9.78513e-08
9.6839e-08
9.6839e-08
9.79277e-08
9.67627e-08
9.78513e-08
9.6839e-08
9.6839e-08
9.67626e-08
9.6578e-08
9.5413e-08
9.65016e-08
9.65016e-08
9.54893e-08
9.54893e-08
9.6578e-08
9.5413e-08
9.65016e-08
9.65016e-08
9.54893e-08
9.54893e-08
9.65016e-08
9.54893e-08
9.54893e-08
9.6578e-08
9.5413e-08
9.65016e-08
9.54893e-08
9.54893e-08
9.5413e-08
9.52283e-08
9.40633e-08
9.51519e-08
9.51519e-08
9.41396e-08
9.41397e-08
9.52283e-08
9.40633e-08
9.51519e-08
9.51519e-08
9.41396e-08
9.41396e-08
9.51519e-08
9.41397e-08
9.41397e-08
9.52283e-08
9.40633e-08
9.51519e-08
9.41396e-08
9.41396e-08
9.40633e-08
9.38786e-08
9.27137e-08
9.38022e-08
9.38022e-08
9.279e-08
9.279e-08
9.38786e-08
9.27137e-08
9.38022e-08
9.38022e-08
9.279e-08
9.279e-08
9.38022e-08
9.279e-08
9.279e-08
9.38786e-08
9.27136e-08
9.38022e-08
9.279e-08
9.279e-08
9.27136e-08
9.2529e-08
9.1364e-08
9.24526e-08
9.24526e-08
9.14403e-08
9.14403e-08
9.2529e-08
9.1364e-08
9.24526e-08
9.24526e-08
9.14403e-08
9.14403e-08
9.24526e-08
9.14403e-08
9.14403e-08
9.2529e-08
9.1364e-08
9.24526e-08
9.14403e-08
9.14403e-08
9.1364e-08
9.11793e-08
9.00144e-08
9.11029e-08
9.11029e-08
9.00907e-08
9.00907e-08
9.11793e-08
9.00144e-08
9.11029e-08
9.11029e-08
9.00907e-08
9.00907e-08
9.11029e-08
9.00907e-08
9.00907e-08
9.11793e-08
9.00144e-08
9.11029e-08
9.00907e-08
9.00907e-08
9.00144e-08
8.98297e-08
8.86649e-08
8.97533e-08
8.97533e-08
8.87412e-08
8.87412e-08
8.98297e-08
8.86649e-08
8.97533e-08
8.97533e-08
8.87412e-08
8.87412e-08
8.97533e-08
8.87412e-08
8.87412e-08
8.98297e-08
8.86649e-08
8.97533e-08
8.87412e-08
8.87412e-08
8.86648e-08
8.84802e-08
8.73153e-08
8.84038e-08
8.84038e-08
8.73916e-08
8.73916e-08
8.84802e-08
8.73153e-08
8.84038e-08
8.84038e-08
8.73916e-08
8.73916e-08
8.84038e-08
8.73916e-08
8.73916e-08
8.84802e-08
8.73153e-08
8.84038e-08
8.73916e-08
8.73916e-08
8.73153e-08
8.71306e-08
8.59657e-08
8.70542e-08
8.70542e-08
8.60421e-08
8.60421e-08
8.71306e-08
8.59657e-08
8.70542e-08
8.70542e-08
8.60421e-08
8.60421e-08
8.70542e-08
8.60421e-08
8.60421e-08
8.71307e-08
8.59657e-08
8.70542e-08
8.60421e-08
8.60421e-08
8.59657e-08
8.57811e-08
8.46161e-08
8.57047e-08
8.57047e-08
8.46924e-08
8.46924e-08
8.57811e-08
8.46161e-08
8.57047e-08
8.57047e-08
8.46924e-08
8.46924e-08
8.57047e-08
8.46924e-08
8.46924e-08
8.57811e-08
8.46161e-08
8.57047e-08
8.46924e-08
8.46924e-08
8.46161e-08
8.44314e-08
8.32665e-08
8.4355e-08
8.4355e-08
8.33428e-08
8.33428e-08
8.44314e-08
8.32665e-08
8.4355e-08
8.4355e-08
8.33428e-08
8.33428e-08
8.4355e-08
8.33428e-08
8.33428e-08
8.44314e-08
8.32665e-08
8.4355e-08
8.33428e-08
8.33428e-08
8.32665e-08
8.30818e-08
8.19168e-08
8.30054e-08
8.30054e-08
8.19931e-08
8.19931e-08
8.30818e-08
8.19168e-08
8.30054e-08
8.30054e-08
8.19931e-08
8.19931e-08
8.30054e-08
8.19931e-08
8.19931e-08
8.30818e-08
8.19168e-08
8.30054e-08
8.19931e-08
8.19931e-08
8.19168e-08
8.17321e-08
8.05671e-08
8.16557e-08
8.16557e-08
8.06434e-08
8.06434e-08
8.17321e-08
8.05671e-08
8.16557e-08
8.16557e-08
8.06434e-08
8.06434e-08
8.16557e-08
8.06434e-08
8.06434e-08
8.17321e-08
8.05671e-08
8.16557e-08
8.06434e-08
8.06434e-08
8.0567e-08
8.03824e-08
7.92174e-08
8.0306e-08
8.0306e-08
7.92937e-08
7.92937e-08
8.03824e-08
7.92173e-08
8.0306e-08
8.0306e-08
7.92937e-08
7.92937e-08
8.0306e-08
7.92937e-08
7.92937e-08
8.03824e-08
7.92173e-08
8.0306e-08
7.92937e-08
7.92937e-08
7.92173e-08
7.90327e-08
7.78677e-08
7.89562e-08
7.89562e-08
7.7944e-08
7.7944e-08
7.90327e-08
7.78677e-08
7.89563e-08
7.89562e-08
7.7944e-08
7.7944e-08
7.89562e-08
7.7944e-08
7.7944e-08
7.90327e-08
7.78676e-08
7.89562e-08
7.7944e-08
7.7944e-08
7.78676e-08
7.7683e-08
7.6518e-08
7.76066e-08
7.76066e-08
7.65943e-08
7.65943e-08
7.7683e-08
7.6518e-08
7.76066e-08
7.76066e-08
7.65943e-08
7.65943e-08
7.76066e-08
7.65943e-08
7.65943e-08
7.7683e-08
7.6518e-08
7.76066e-08
7.65943e-08
7.65943e-08
7.6518e-08
7.63333e-08
7.51683e-08
7.62569e-08
7.62569e-08
7.52446e-08
7.52446e-08
7.63333e-08
7.51683e-08
7.62569e-08
7.62569e-08
7.52446e-08
7.52446e-08
7.62569e-08
7.52446e-08
7.52446e-08
7.63333e-08
7.51683e-08
7.62569e-08
7.52446e-08
7.52446e-08
7.51683e-08
7.49836e-08
7.38186e-08
7.49072e-08
7.49072e-08
7.38949e-08
7.38949e-08
7.49836e-08
7.38186e-08
7.49072e-08
7.49072e-08
7.38949e-08
7.38949e-08
7.49072e-08
7.38949e-08
7.38949e-08
7.49836e-08
7.38186e-08
7.49072e-08
7.38949e-08
7.38949e-08
7.38185e-08
7.36339e-08
7.24689e-08
7.35575e-08
7.35575e-08
7.25452e-08
7.25452e-08
7.36339e-08
7.24689e-08
7.35575e-08
7.35575e-08
7.25452e-08
7.25452e-08
7.35575e-08
7.25452e-08
7.25452e-08
7.36339e-08
7.24689e-08
7.35575e-08
7.25452e-08
7.25452e-08
7.24689e-08
7.22842e-08
7.11192e-08
7.22078e-08
7.22078e-08
7.11955e-08
7.11955e-08
7.22842e-08
7.11192e-08
7.22078e-08
7.22078e-08
7.11955e-08
7.11955e-08
7.22078e-08
7.11955e-08
7.11955e-08
7.22842e-08
7.11192e-08
7.22078e-08
7.11955e-08
7.11955e-08
7.11192e-08
7.09345e-08
6.97695e-08
7.08581e-08
7.08581e-08
6.98458e-08
6.98458e-08
7.09345e-08
6.97695e-08
7.08581e-08
7.08581e-08
6.98458e-08
6.98458e-08
7.08581e-08
6.98458e-08
6.98458e-08
7.09345e-08
6.97695e-08
7.08581e-08
6.98458e-08
6.98458e-08
6.97695e-08
6.95848e-08
6.84198e-08
6.95084e-08
6.95084e-08
6.84961e-08
6.84961e-08
6.95848e-08
6.84198e-08
6.95084e-08
6.95084e-08
6.84961e-08
6.84961e-08
6.95084e-08
6.84961e-08
6.84961e-08
6.95848e-08
6.84198e-08
6.95084e-08
6.84961e-08
6.84961e-08
6.84198e-08
6.82351e-08
6.707e-08
6.81587e-08
6.81587e-08
6.71464e-08
6.71464e-08
6.82351e-08
6.707e-08
6.81587e-08
6.81587e-08
6.71464e-08
6.71464e-08
6.81587e-08
6.71464e-08
6.71464e-08
6.82351e-08
6.707e-08
6.81587e-08
6.71464e-08
6.71464e-08
6.707e-08
6.68853e-08
6.57203e-08
6.68089e-08
6.68089e-08
6.57966e-08
6.57966e-08
6.68853e-08
6.57203e-08
6.68089e-08
6.68089e-08
6.57966e-08
6.57966e-08
6.68089e-08
6.57966e-08
6.57966e-08
6.68853e-08
6.57203e-08
6.68089e-08
6.57966e-08
6.57966e-08
6.57202e-08
6.55356e-08
6.43705e-08
6.54591e-08
6.54591e-08
6.44468e-08
6.44468e-08
6.55356e-08
6.43705e-08
6.54591e-08
6.54591e-08
6.44468e-08
6.44468e-08
6.54591e-08
6.44468e-08
6.44468e-08
6.55356e-08
6.43704e-08
6.54591e-08
6.44468e-08
6.44468e-08
6.43704e-08
6.41857e-08
6.30206e-08
6.41093e-08
6.41093e-08
6.3097e-08
6.3097e-08
6.41857e-08
6.30206e-08
6.41093e-08
6.41093e-08
6.3097e-08
6.3097e-08
6.41093e-08
6.3097e-08
6.3097e-08
6.41857e-08
6.30206e-08
6.41093e-08
6.3097e-08
6.3097e-08
6.30206e-08
6.28359e-08
6.16708e-08
6.27595e-08
6.27595e-08
6.17471e-08
6.17471e-08
6.28359e-08
6.16708e-08
6.27595e-08
6.27595e-08
6.17471e-08
6.17471e-08
6.27595e-08
6.17471e-08
6.17471e-08
6.28359e-08
6.16708e-08
6.27595e-08
6.17471e-08
6.17471e-08
6.16708e-08
6.14861e-08
6.03209e-08
6.14097e-08
6.14097e-08
6.03973e-08
6.03973e-08
6.14861e-08
6.03209e-08
6.14097e-08
6.14097e-08
6.03973e-08
6.03973e-08
6.14097e-08
6.03973e-08
6.03973e-08
6.14861e-08
6.03209e-08
6.14097e-08
6.03973e-08
6.03973e-08
6.03209e-08
6.01362e-08
5.8971e-08
6.00598e-08
6.00598e-08
5.90473e-08
5.90473e-08
6.01362e-08
5.8971e-08
6.00598e-08
6.00598e-08
5.90473e-08
5.90473e-08
6.00598e-08
5.90473e-08
5.90473e-08
6.01362e-08
5.8971e-08
6.00598e-08
5.90473e-08
5.90473e-08
5.8971e-08
5.87863e-08
5.7621e-08
5.87098e-08
5.87098e-08
5.76973e-08
5.76973e-08
5.87862e-08
5.7621e-08
5.87098e-08
5.87098e-08
5.76973e-08
5.76973e-08
5.87098e-08
5.76973e-08
5.76973e-08
5.87863e-08
5.7621e-08
5.87098e-08
5.76973e-08
5.76973e-08
5.7621e-08
5.74362e-08
5.6271e-08
5.73598e-08
5.73598e-08
5.63473e-08
5.63473e-08
5.74362e-08
5.6271e-08
5.73598e-08
5.73598e-08
5.63473e-08
5.63473e-08
5.73598e-08
5.63473e-08
5.63473e-08
5.74362e-08
5.62709e-08
5.73598e-08
5.63473e-08
5.63473e-08
5.62709e-08
5.60862e-08
5.49209e-08
5.60098e-08
5.60098e-08
5.49973e-08
5.49973e-08
5.60862e-08
5.49209e-08
5.60098e-08
5.60098e-08
5.49973e-08
5.49973e-08
5.60098e-08
5.49973e-08
5.49973e-08
5.60862e-08
5.49209e-08
5.60098e-08
5.49973e-08
5.49973e-08
5.49209e-08
5.47362e-08
5.3571e-08
5.46598e-08
5.46598e-08
5.36473e-08
5.36473e-08
5.47362e-08
5.3571e-08
5.46598e-08
5.46598e-08
5.36473e-08
5.36473e-08
5.46598e-08
5.36473e-08
5.36473e-08
5.47362e-08
5.3571e-08
5.46598e-08
5.36473e-08
5.36473e-08
5.3571e-08
5.33863e-08
5.22211e-08
5.33098e-08
5.33098e-08
5.22974e-08
5.22974e-08
5.33863e-08
5.22211e-08
5.33098e-08
5.33098e-08
5.22974e-08
5.22974e-08
5.33098e-08
5.22974e-08
5.22974e-08
5.33863e-08
5.22211e-08
5.33098e-08
5.22974e-08
5.22974e-08
5.2221e-08
5.20363e-08
5.08712e-08
5.19599e-08
5.19599e-08
5.09475e-08
5.09475e-08
5.20363e-08
5.08712e-08
5.19599e-08
5.19599e-08
5.09475e-08
5.09475e-08
5.19599e-08
5.09475e-08
5.09475e-08
5.20363e-08
5.08712e-08
5.19599e-08
5.09475e-08
5.09475e-08
5.08712e-08
5.06864e-08
4.95213e-08
5.061e-08
5.061e-08
4.95976e-08
4.95976e-08
5.06864e-08
4.95213e-08
5.061e-08
5.061e-08
4.95976e-08
4.95976e-08
5.061e-08
4.95976e-08
4.95976e-08
5.06865e-08
4.95213e-08
5.061e-08
4.95976e-08
4.95976e-08
4.95212e-08
4.93365e-08
4.81714e-08
4.92601e-08
4.92601e-08
4.82477e-08
4.82477e-08
4.93365e-08
4.81714e-08
4.92601e-08
4.92601e-08
4.82477e-08
4.82477e-08
4.92601e-08
4.82477e-08
4.82477e-08
4.93365e-08
4.81713e-08
4.92601e-08
4.82477e-08
4.82477e-08
4.81713e-08
4.79866e-08
4.68214e-08
4.79102e-08
4.79102e-08
4.68978e-08
4.68978e-08
4.79866e-08
4.68214e-08
4.79102e-08
4.79102e-08
4.68978e-08
4.68978e-08
4.79102e-08
4.68978e-08
4.68978e-08
4.79866e-08
4.68214e-08
4.79102e-08
4.68978e-08
4.68978e-08
4.68214e-08
4.66367e-08
4.54715e-08
4.65603e-08
4.65603e-08
4.55478e-08
4.55478e-08
4.66367e-08
4.54715e-08
4.65603e-08
4.65603e-08
4.55478e-08
4.55478e-08
4.65603e-08
4.55478e-08
4.55478e-08
4.66367e-08
4.54715e-08
4.65603e-08
4.55478e-08
4.55478e-08
4.54715e-08
4.52868e-08
4.41215e-08
4.52103e-08
4.52103e-08
4.41978e-08
4.41978e-08
4.52868e-08
4.41215e-08
4.52103e-08
4.52103e-08
4.41978e-08
4.41978e-08
4.52103e-08
4.41978e-08
4.41978e-08
4.52868e-08
4.41215e-08
4.52103e-08
4.41978e-08
4.41978e-08
4.41215e-08
4.39367e-08
4.27714e-08
4.38603e-08
4.38603e-08
4.28478e-08
4.28478e-08
4.39367e-08
4.27714e-08
4.38603e-08
4.38603e-08
4.28478e-08
4.28478e-08
4.38603e-08
4.28478e-08
4.28478e-08
4.39367e-08
4.27714e-08
4.38603e-08
4.28478e-08
4.28478e-08
4.27714e-08
4.25867e-08
4.14214e-08
4.25103e-08
4.25103e-08
4.14978e-08
4.14978e-08
4.25867e-08
4.14214e-08
4.25103e-08
4.25103e-08
4.14978e-08
4.14978e-08
4.25103e-08
4.14978e-08
4.14978e-08
4.25867e-08
4.14214e-08
4.25103e-08
4.14978e-08
4.14978e-08
4.14214e-08
4.12367e-08
4.00714e-08
4.11603e-08
4.11603e-08
4.01477e-08
4.01477e-08
4.12367e-08
4.00714e-08
4.11603e-08
4.11603e-08
4.01477e-08
4.01477e-08
4.11603e-08
4.01477e-08
4.01477e-08
4.12367e-08
4.00714e-08
4.11603e-08
4.01477e-08
4.01477e-08
4.00714e-08
3.98866e-08
3.87213e-08
3.98102e-08
3.98102e-08
3.87977e-08
3.87977e-08
3.98866e-08
3.87213e-08
3.98102e-08
3.98102e-08
3.87977e-08
3.87977e-08
3.98102e-08
3.87977e-08
3.87977e-08
3.98866e-08
3.87213e-08
3.98102e-08
3.87977e-08
3.87977e-08
3.87213e-08
3.85366e-08
3.73713e-08
3.84602e-08
3.84602e-08
3.74476e-08
3.74476e-08
3.85366e-08
3.73713e-08
3.84602e-08
3.84602e-08
3.74476e-08
3.74476e-08
3.84602e-08
3.74476e-08
3.74476e-08
3.85366e-08
3.73713e-08
3.84602e-08
3.74476e-08
3.74476e-08
3.73713e-08
3.71865e-08
3.60212e-08
3.71101e-08
3.71101e-08
3.60975e-08
3.60975e-08
3.71865e-08
3.60212e-08
3.71101e-08
3.71101e-08
3.60975e-08
3.60975e-08
3.71101e-08
3.60975e-08
3.60975e-08
3.71865e-08
3.60212e-08
3.71101e-08
3.60975e-08
3.60975e-08
3.60212e-08
3.58364e-08
3.46711e-08
3.576e-08
3.576e-08
3.47474e-08
3.47474e-08
3.58364e-08
3.46711e-08
3.576e-08
3.576e-08
3.47474e-08
3.47474e-08
3.576e-08
3.47474e-08
3.47474e-08
3.58364e-08
3.46711e-08
3.576e-08
3.47474e-08
3.47474e-08
3.46711e-08
3.44863e-08
3.3321e-08
3.44099e-08
3.44099e-08
3.33973e-08
3.33973e-08
3.44863e-08
3.3321e-08
3.44099e-08
3.44099e-08
3.33973e-08
3.33973e-08
3.44099e-08
3.33973e-08
3.33973e-08
3.44863e-08
3.3321e-08
3.44099e-08
3.33973e-08
3.33973e-08
3.33209e-08
3.31362e-08
3.19708e-08
3.30598e-08
3.30598e-08
3.20471e-08
3.20471e-08
3.31362e-08
3.19708e-08
3.30598e-08
3.30598e-08
3.20471e-08
3.20471e-08
3.30598e-08
3.20471e-08
3.20472e-08
3.31362e-08
3.19708e-08
3.30598e-08
3.20471e-08
3.20472e-08
3.19708e-08
3.1786e-08
3.06206e-08
3.17096e-08
3.17096e-08
3.0697e-08
3.0697e-08
3.1786e-08
3.06206e-08
3.17096e-08
3.17096e-08
3.0697e-08
3.0697e-08
3.17096e-08
3.0697e-08
3.0697e-08
3.1786e-08
3.06206e-08
3.17096e-08
3.0697e-08
3.0697e-08
3.06206e-08
3.04359e-08
2.92705e-08
3.03595e-08
3.03594e-08
2.93468e-08
2.93468e-08
3.04359e-08
2.92705e-08
3.03595e-08
3.03594e-08
2.93468e-08
2.93468e-08
3.03594e-08
2.93468e-08
2.93468e-08
3.04359e-08
2.92705e-08
3.03594e-08
2.93468e-08
2.93468e-08
2.92705e-08
2.90857e-08
2.79203e-08
2.90093e-08
2.90093e-08
2.79967e-08
2.79967e-08
2.90857e-08
2.79203e-08
2.90093e-08
2.90093e-08
2.79967e-08
2.79967e-08
2.90093e-08
2.79967e-08
2.79967e-08
2.90857e-08
2.79203e-08
2.90093e-08
2.79967e-08
2.79967e-08
2.79203e-08
2.77356e-08
2.65702e-08
2.76591e-08
2.76592e-08
2.66465e-08
2.66466e-08
2.77356e-08
2.65702e-08
2.76592e-08
2.76592e-08
2.66465e-08
2.66466e-08
2.76592e-08
2.66466e-08
2.66466e-08
2.77356e-08
2.65702e-08
2.76592e-08
2.66466e-08
2.66466e-08
2.65702e-08
2.63854e-08
2.52201e-08
2.6309e-08
2.6309e-08
2.52964e-08
2.52964e-08
2.63855e-08
2.52201e-08
2.6309e-08
2.6309e-08
2.52964e-08
2.52964e-08
2.6309e-08
2.52964e-08
2.52964e-08
2.63855e-08
2.52201e-08
2.6309e-08
2.52964e-08
2.52964e-08
2.522e-08
2.50353e-08
2.38699e-08
2.49589e-08
2.49589e-08
2.39463e-08
2.39463e-08
2.50353e-08
2.38699e-08
2.49589e-08
2.49589e-08
2.39463e-08
2.39463e-08
2.49589e-08
2.39463e-08
2.39463e-08
2.50353e-08
2.38699e-08
2.49589e-08
2.39463e-08
2.39462e-08
2.38699e-08
2.36852e-08
2.25198e-08
2.36087e-08
2.36087e-08
2.25961e-08
2.25961e-08
2.36852e-08
2.25198e-08
2.36087e-08
2.36087e-08
2.25961e-08
2.25961e-08
2.36087e-08
2.25961e-08
2.25961e-08
2.36852e-08
2.25198e-08
2.36087e-08
2.25961e-08
2.25961e-08
2.25197e-08
2.2335e-08
2.11696e-08
2.22586e-08
2.22586e-08
2.1246e-08
2.1246e-08
2.2335e-08
2.11696e-08
2.22586e-08
2.22586e-08
2.1246e-08
2.1246e-08
2.22586e-08
2.1246e-08
2.1246e-08
2.2335e-08
2.11696e-08
2.22586e-08
2.1246e-08
2.1246e-08
2.11696e-08
2.09849e-08
1.98195e-08
2.09084e-08
2.09084e-08
1.98958e-08
1.98958e-08
2.09849e-08
1.98195e-08
2.09084e-08
2.09084e-08
1.98958e-08
1.98958e-08
2.09084e-08
1.98959e-08
1.98959e-08
2.09849e-08
1.98195e-08
2.09084e-08
1.98959e-08
1.98959e-08
1.98195e-08
1.96347e-08
1.84694e-08
1.95583e-08
1.95583e-08
1.85457e-08
1.85458e-08
1.96347e-08
1.84694e-08
1.95583e-08
1.95583e-08
1.85457e-08
1.85458e-08
1.95583e-08
1.85458e-08
1.85458e-08
1.96348e-08
1.84694e-08
1.95583e-08
1.85458e-08
1.85458e-08
1.84694e-08
1.82847e-08
1.71194e-08
1.82082e-08
1.82082e-08
1.71957e-08
1.71957e-08
1.82847e-08
1.71194e-08
1.82082e-08
1.82082e-08
1.71957e-08
1.71957e-08
1.82083e-08
1.71957e-08
1.71957e-08
1.82847e-08
1.71194e-08
1.82083e-08
1.71957e-08
1.71957e-08
1.71194e-08
1.69346e-08
1.57694e-08
1.68582e-08
1.68582e-08
1.58457e-08
1.58457e-08
1.69346e-08
1.57694e-08
1.68582e-08
1.68582e-08
1.58457e-08
1.58457e-08
1.68582e-08
1.58457e-08
1.58457e-08
1.69346e-08
1.57694e-08
1.68582e-08
1.58457e-08
1.58457e-08
1.57693e-08
1.55847e-08
1.44194e-08
1.55082e-08
1.55082e-08
1.44958e-08
1.44958e-08
1.55846e-08
1.44194e-08
1.55082e-08
1.55082e-08
1.44958e-08
1.44958e-08
1.55082e-08
1.44958e-08
1.44958e-08
1.55846e-08
1.44194e-08
1.55082e-08
1.44958e-08
1.44958e-08
1.44194e-08
1.42347e-08
1.30695e-08
1.41583e-08
1.41583e-08
1.31458e-08
1.31458e-08
1.42347e-08
1.30695e-08
1.41583e-08
1.41583e-08
1.31458e-08
1.31458e-08
1.41583e-08
1.31458e-08
1.31458e-08
1.42347e-08
1.30695e-08
1.41583e-08
1.31458e-08
1.31458e-08
1.30695e-08
1.28848e-08
1.17196e-08
1.28083e-08
1.28083e-08
1.17959e-08
1.17959e-08
1.28848e-08
1.17196e-08
1.28083e-08
1.28083e-08
1.17959e-08
1.17959e-08
1.28083e-08
1.17959e-08
1.17959e-08
1.28848e-08
1.17195e-08
1.28083e-08
1.17959e-08
1.17959e-08
1.17195e-08
1.15348e-08
1.03696e-08
1.14584e-08
1.14584e-08
1.0446e-08
1.0446e-08
1.15348e-08
1.03696e-08
1.14584e-08
1.14584e-08
1.0446e-08
1.0446e-08
1.14584e-08
1.0446e-08
1.0446e-08
1.15348e-08
1.03696e-08
1.14584e-08
1.0446e-08
1.0446e-08
1.03696e-08
1.01849e-08
9.01975e-09
1.01085e-08
1.01085e-08
9.09609e-09
9.09609e-09
1.01849e-08
9.01975e-09
1.01085e-08
1.01085e-08
9.09609e-09
9.09608e-09
1.01085e-08
9.09608e-09
9.09608e-09
1.01849e-08
9.01974e-09
1.01085e-08
9.09608e-09
9.09607e-09
9.01972e-09
8.83504e-09
7.66989e-09
8.75863e-09
8.75862e-09
7.74623e-09
7.74622e-09
8.83503e-09
7.66989e-09
8.75863e-09
8.75862e-09
7.74623e-09
7.74622e-09
8.75862e-09
7.74622e-09
7.74622e-09
8.83503e-09
7.66988e-09
8.75862e-09
7.74622e-09
7.74622e-09
7.66987e-09
7.48519e-09
6.32003e-09
7.40879e-09
7.40879e-09
6.39637e-09
6.39637e-09
7.48518e-09
6.32003e-09
7.40879e-09
7.40879e-09
6.39637e-09
6.39637e-09
7.40878e-09
6.39637e-09
6.39637e-09
7.48518e-09
6.32003e-09
7.40878e-09
6.39637e-09
6.39637e-09
6.32002e-09
6.13533e-09
4.97011e-09
6.05897e-09
6.05897e-09
5.04647e-09
5.04646e-09
6.13532e-09
4.97011e-09
6.05897e-09
6.05897e-09
5.04647e-09
5.04647e-09
6.05897e-09
5.04647e-09
5.04647e-09
6.13533e-09
4.9701e-09
6.05897e-09
5.04646e-09
5.04646e-09
4.97009e-09
4.78542e-09
3.61999e-09
4.7092e-09
4.70919e-09
3.69639e-09
3.69639e-09
4.78542e-09
3.61999e-09
4.7092e-09
4.7092e-09
3.69639e-09
3.69639e-09
4.7092e-09
3.6964e-09
3.6964e-09
4.78542e-09
3.61999e-09
4.70919e-09
3.69639e-09
3.69639e-09
3.61998e-09
3.4354e-09
2.27085e-09
3.35955e-09
3.35955e-09
2.34661e-09
2.34662e-09
3.4354e-09
2.27086e-09
3.35955e-09
3.35956e-09
2.34662e-09
2.34661e-09
3.35956e-09
2.34663e-09
2.34662e-09
3.43542e-09
2.27085e-09
3.35956e-09
2.34662e-09
2.34663e-09
2.27085e-09
2.08961e-09
8.55592e-10
2.01461e-09
2.01462e-09
9.20155e-10
9.20133e-10
2.08961e-09
8.55624e-10
2.01465e-09
2.01461e-09
9.20218e-10
9.20135e-10
2.01462e-09
9.20241e-10
9.20182e-10
2.08962e-09
8.55637e-10
2.01465e-09
9.20204e-10
9.20184e-10
8.55657e-10
7.50216e-10
7.81979e-10
7.81963e-10
7.50234e-10
7.82052e-10
7.81968e-10
8.64933e-10
8.6493e-10
8.6493e-10
7.82014e-10
7.50224e-10
7.82008e-10
1.32471e-07
1.33088e-07
1.32756e-07
1.32756e-07
1.34493e-07
1.3335e-07
1.35876e-07
1.32979e-07
1.34493e-07
1.3335e-07
1.32979e-07
1.35876e-07
1.33647e-07
1.3631e-07
1.3631e-07
1.29827e-07
1.31084e-07
1.31099e-07
1.2979e-07
1.31023e-07
1.29774e-07
1.29827e-07
1.31084e-07
1.31099e-07
1.2979e-07
1.31338e-07
1.31338e-07
1.31338e-07
1.28874e-07
1.28874e-07
1.28874e-07
1.28874e-07
1.2989e-07
1.31137e-07
1.31349e-07
1.30171e-07
1.31173e-07
1.2984e-07
1.30224e-07
1.31023e-07
1.29774e-07
1.2989e-07
1.31349e-07
1.31137e-07
1.30171e-07
1.31173e-07
1.30224e-07
1.2984e-07
1.31156e-07
1.31156e-07
1.30006e-07
1.29824e-07
1.29824e-07
1.27403e-07
1.28208e-07
1.28228e-07
1.27388e-07
1.28202e-07
1.27384e-07
1.27403e-07
1.28208e-07
1.28228e-07
1.27388e-07
1.28239e-07
1.28239e-07
1.28239e-07
1.26569e-07
1.26569e-07
1.26569e-07
1.26569e-07
1.27419e-07
1.28225e-07
1.28187e-07