/*--------------------------------*- C++ -*----------------------------------*\
| =========                 |                                                 |
| \\      /  F ield         | OpenFOAM: The Open Source CFD Toolbox           |
|  \\    /   O peration     | Version:  2312                                  |
|   \\  /    A nd           | Website:  www.openfoam.com                      |
|    \\/     M anipulation  |                                                 |
\*---------------------------------------------------------------------------*/
FoamFile
{
    version     2.0;
    format      ascii;
    arch        "LSB;label=32;scalar=64";
    class       volScalarField;
    location    "950";
    object      nut;
}
// * * * * * * * * * * * * * * * * * * * * * * * * * * * * * * * * * * * * * //

dimensions      [0 2 -1 0 0 0 0];

internalField   nonuniform List<scalar> 
172512
(
0.000208364
0.000201474
0.000201484
0.000182461
0.000182449
0.000201137
0.000201117
0.000182415
0.000201147
0.000201124
0.000201148
0.000201127
0.000182425
0.00020116
0.000201136
0.000182424
0.000182448
0.000201462
0.000201441
0.000182445
0.000201472
0.000201448
0.000201452
0.00018248
0.000201461
5.07471e-05
9.98432e-05
5.07405e-05
0.000207771
0.000207763
0.000207777
0.000207768
2.3891e-05
0.0002005
0.0001036
9.99489e-05
5.07562e-05
9.9893e-05
5.07667e-05
2.38966e-05
2.39009e-05
9.99451e-05
5.07537e-05
9.9889e-05
5.07593e-05
0.000208356
0.00020837
0.00020836
0.000144494
0.000103663
0.000211327
0.000201789
0.000144314
0.000103733
0.000211741
2.38958e-05
2.38998e-05
0.000144492
0.000211332
0.000103665
0.0002018
0.000144312
0.000211751
0.000103737
7.79293e-05
7.79239e-05
0.000182854
7.79494e-05
7.79444e-05
2.38941e-05
2.3892e-05
0.000182017
7.79074e-05
7.79001e-05
2.38985e-05
2.38943e-05
2.38965e-05
2.38923e-05
0.000181996
7.79346e-05
7.79275e-05
7.79098e-05
7.79046e-05
0.000200477
0.000103599
9.98404e-05
5.07571e-05
5.07467e-05
9.99003e-05
9.98367e-05
5.07515e-05
5.0741e-05
9.98961e-05
0.000144131
0.000200811
0.00010367
0.000210895
0.000103596
0.000210464
0.000144317
0.000144126
0.000200792
0.000103646
0.000210887
0.000103572
0.000210457
0.000144313
2.38965e-05
2.38922e-05
0.000181995
7.79143e-05
7.79316e-05
7.78887e-05
2.38978e-05
0.000144124
0.000200488
0.00010359
0.000210021
9.98401e-05
5.07359e-05
0.000144121
0.000200463
0.000210019
0.000103579
9.98355e-05
5.07499e-05
5.07437e-05
9.98964e-05
0.000144124
0.000200821
0.000103661
0.000210894
0.000103586
0.000210463
0.000144314
9.98325e-05
5.07459e-05
5.07402e-05
9.98926e-05
0.000144121
0.000200798
0.000210892
0.000103649
0.00021046
0.000103575
0.000144311
0.000103667
0.000210893
0.000144313
5.07532e-05
9.9888e-05
0.000210892
0.000103658
0.000144315
5.07471e-05
9.98935e-05
0.000181934
7.78895e-05
7.79041e-05
2.38932e-05
2.38954e-05
2.38913e-05
0.000182095
7.79176e-05
7.79319e-05
7.78967e-05
7.79102e-05
2.38977e-05
2.38935e-05
5.07434e-05
0.000144121
0.000200834
0.000210902
0.00010367
0.000210471
0.000103595
0.000144311
0.000144113
0.000200811
0.000210893
0.000103652
0.000210461
0.000103576
0.000144303
9.98266e-05
5.07534e-05
5.07424e-05
9.98865e-05
9.98163e-05
5.07455e-05
5.074e-05
9.98767e-05
0.000182045
7.79236e-05
7.79187e-05
7.7897e-05
2.38963e-05
2.38953e-05
2.38912e-05
2.38987e-05
2.39029e-05
2.38967e-05
2.39009e-05
7.79373e-05
7.79315e-05
0.000182859
7.79605e-05
7.79537e-05
2.39031e-05
2.39011e-05
0.000182885
7.79625e-05
7.79566e-05
9.99458e-05
5.07507e-05
9.98892e-05
5.07611e-05
0.000144499
0.000103666
0.000211325
0.000201777
0.000144318
0.000103736
0.000211744
0.000144495
0.000103641
0.000211318
0.000201757
0.000144314
0.000103712
0.000211736
9.99419e-05
5.07657e-05
9.99385e-05
5.07601e-05
0.000144499
0.000202092
0.000103732
0.000212163
0.000144495
0.000202072
0.000103707
0.000212155
7.79155e-05
7.79372e-05
0.000182844
7.794e-05
7.79578e-05
2.3898e-05
2.39021e-05
2.3901e-05
0.000182876
7.79407e-05
7.79627e-05
2.39024e-05
0.000144498
0.000103656
0.000211324
0.000201788
0.000144315
0.000103727
0.000211743
9.99425e-05
5.07496e-05
9.98856e-05
5.07554e-05
0.000144495
0.000211322
0.000103646
0.000201764
0.000144312
0.000211741
0.000103716
9.9938e-05
5.07631e-05
0.000144497
0.000202103
0.000103721
0.000212163
9.99352e-05
5.07592e-05
0.000144494
0.00020208
0.00021216
0.000103713
9.99377e-05
5.07525e-05
9.98812e-05
5.07628e-05
0.000144497
0.000211323
0.000103653
0.000201767
0.000144315
0.000211741
0.000103724
9.99432e-05
5.07507e-05
9.98869e-05
5.07566e-05
0.000144495
0.000202105
0.000103729
0.000212165
9.99306e-05
5.07618e-05
0.000144496
0.000202082
0.000212161
0.000103719
9.99363e-05
5.07603e-05
7.79236e-05
7.79374e-05
0.000182869
7.79434e-05
7.79577e-05
2.3898e-05
2.39021e-05
2.39002e-05
0.000182888
7.79488e-05
7.79626e-05
2.39023e-05
0.000144486
0.000211323
0.000103647
0.000201777
0.000144304
0.000211742
0.000103718
9.99363e-05
5.07527e-05
9.98794e-05
5.0763e-05
9.99266e-05
5.07492e-05
9.98692e-05
5.0755e-05
0.000144493
0.000202115
0.000212169
0.000103731
0.000144486
0.000202092
0.000212161
0.000103712
9.99289e-05
5.0762e-05
9.99189e-05
5.07588e-05
2.38967e-05
2.39007e-05
2.38956e-05
2.38997e-05
0.000182874
7.79544e-05
7.79492e-05
2.3901e-05
2.39e-05
2.03161e-05
7.90824e-05
5.07408e-05
7.90651e-05
2.03181e-05
3.67094e-05
9.98079e-05
9.44612e-05
4.10573e-05
9.44281e-05
4.10507e-05
3.67175e-05
2.03164e-05
7.90783e-05
5.07397e-05
7.90606e-05
2.03185e-05
2.38891e-05
3.67242e-05
9.99173e-05
4.10737e-05
9.45417e-05
4.10677e-05
9.45207e-05
3.67308e-05
2.03236e-05
7.90959e-05
5.07619e-05
2.03216e-05
7.91128e-05
3.67272e-05
9.99248e-05
4.1064e-05
9.45014e-05
3.67206e-05
4.10696e-05
9.45232e-05
2.03234e-05
7.91221e-05
5.07611e-05
7.91056e-05
2.03254e-05
2.38987e-05
2.38988e-05
3.6724e-05
9.99132e-05
9.45408e-05
4.10731e-05
9.45108e-05
4.10671e-05
3.67308e-05
2.0324e-05
7.90912e-05
5.07547e-05
2.0322e-05
7.91086e-05
3.67272e-05
9.99209e-05
9.44922e-05
4.10634e-05
3.67203e-05
9.45221e-05
4.1069e-05
2.03238e-05
7.9118e-05
5.07583e-05
7.91009e-05
2.03258e-05
2.38977e-05
2.3898e-05
8.15155e-05
2.17176e-05
2.17143e-05
2.17156e-05
2.17124e-05
8.15227e-05
0.000105295
0.000128909
4.86626e-05
7.79371e-05
0.000105272
0.000128961
4.86696e-05
0.000105301
0.00012889
4.86559e-05
7.79318e-05
0.000105279
0.000128944
4.86557e-05
8.15145e-05
2.17138e-05
2.17106e-05
8.15071e-05
2.17158e-05
2.17125e-05
0.000105299
4.86741e-05
7.7942e-05
0.000129022
0.00012897
4.8667e-05
0.000105321
0.000105305
4.86599e-05
7.79368e-05
0.000129005
0.000128951
4.86601e-05
0.000105326
2.3892e-05
2.389e-05
8.14868e-05
2.17108e-05
2.17074e-05
2.17087e-05
2.17054e-05
8.14944e-05
0.000105196
4.86592e-05
7.78959e-05
0.00012878
4.86515e-05
0.000105219
0.000128728
0.000105197
4.86466e-05
7.78903e-05
0.000128763
4.8639e-05
0.000105221
0.000128704
2.38965e-05
2.38963e-05
2.38945e-05
2.38943e-05
8.15034e-05
2.17106e-05
2.17073e-05
8.1496e-05
2.17126e-05
2.17093e-05
0.000105253
0.000128908
7.79237e-05
4.86681e-05
4.86607e-05
0.000128859
0.000105276
0.000105254
0.00012889
7.79179e-05
4.86555e-05
4.86481e-05
0.000128834
0.000105277
0.000105248
4.86564e-05
0.000128795
7.79207e-05
0.000105225
4.86633e-05
0.000128845
0.000105249
4.86439e-05
0.00012877
7.79141e-05
0.000105226
4.86508e-05
0.000128826
8.15047e-05
2.17144e-05
2.17111e-05
2.17124e-05
2.17091e-05
8.15121e-05
3.67201e-05
4.10558e-05
9.446e-05
9.98738e-05
3.67134e-05
4.10614e-05
9.4483e-05
2.03198e-05
5.07513e-05
7.91029e-05
2.03218e-05
7.90862e-05
2.032e-05
7.90758e-05
5.0752e-05
2.03179e-05
7.90929e-05
3.67175e-05
9.9867e-05
4.10659e-05
9.45034e-05
3.67234e-05
4.10599e-05
9.44804e-05
3.67183e-05
4.10556e-05
9.44488e-05
9.98706e-05
3.67124e-05
4.10614e-05
9.44718e-05
2.03191e-05
5.07457e-05
7.90808e-05
7.90641e-05
2.03211e-05
2.03193e-05
7.90539e-05
5.07465e-05
2.03173e-05
7.90707e-05
3.67158e-05
9.98634e-05
4.10656e-05
9.44917e-05
4.10597e-05
9.44694e-05
3.67221e-05
2.38944e-05
2.38943e-05
0.000105255
0.000128877
7.79022e-05
4.8655e-05
0.000128825
4.86477e-05
0.000105274
0.000105252
0.000128909
7.79241e-05
4.86628e-05
4.86634e-05
0.000128856
0.00010527
0.000128761
7.79004e-05
0.000128813
8.14999e-05
2.17108e-05
2.17139e-05
2.17089e-05
2.17119e-05
8.15064e-05
2.38961e-05
3.67084e-05
9.98049e-05
4.1057e-05
9.44507e-05
4.10504e-05
9.44181e-05
3.6714e-05
2.03155e-05
7.90577e-05
5.07352e-05
7.904e-05
2.03175e-05
3.67201e-05
9.44497e-05
4.10547e-05
9.98695e-05
3.6713e-05
9.44815e-05
4.10609e-05
2.03202e-05
5.07489e-05
7.90989e-05
2.03222e-05
7.90814e-05
2.03203e-05
7.90713e-05
5.07454e-05
2.03183e-05
7.90888e-05
3.67179e-05
9.98626e-05
9.45031e-05
4.10653e-05
3.67228e-05
9.44713e-05
4.10593e-05
3.67177e-05
4.10545e-05
9.444e-05
9.98668e-05
3.67132e-05
4.10607e-05
9.44716e-05
2.03192e-05
5.07449e-05
7.90781e-05
7.9061e-05
2.03212e-05
2.03193e-05
7.90508e-05
5.07412e-05
2.03173e-05
7.90681e-05
3.67151e-05
9.98596e-05
4.10649e-05
9.44919e-05
4.1059e-05
9.44613e-05
3.67217e-05
2.03203e-05
5.07476e-05
7.90896e-05
7.90769e-05
2.03224e-05
3.67171e-05
9.98549e-05
9.44905e-05
4.10645e-05
9.446e-05
4.10583e-05
3.67237e-05
2.03194e-05
5.07461e-05
7.90788e-05
7.90612e-05
2.03214e-05
3.67156e-05
9.98605e-05
4.10653e-05
9.44941e-05
4.10592e-05
9.44632e-05
3.67222e-05
8.14833e-05
2.17076e-05
2.17109e-05
2.17057e-05
2.17089e-05
8.14901e-05
0.0001052
4.86451e-05
7.78825e-05
0.000128753
4.86415e-05
0.000128697
0.000105222
0.000105198
4.86551e-05
7.78955e-05
0.000128784
0.000128727
4.8656e-05
0.000105219
2.38913e-05
2.38936e-05
2.38932e-05
8.14992e-05
2.17075e-05
2.17107e-05
8.14923e-05
2.17095e-05
2.17127e-05
0.000105256
0.000128882
7.79104e-05
4.86554e-05
0.000128827
4.86482e-05
0.000105278
0.000105254
0.000128913
7.79242e-05
4.86645e-05
4.86649e-05
0.000128858
0.000105275
0.00010525
4.86432e-05
0.000128762
7.7904e-05
0.000128819
0.000105228
4.86505e-05
0.000105248
4.86608e-05
0.000128793
7.79183e-05
0.000105226
4.86602e-05
0.000128849
8.1501e-05
2.17113e-05
2.17145e-05
2.17093e-05
2.17125e-05
8.1508e-05
2.38957e-05
2.38955e-05
5.07381e-05
3.672e-05
9.44509e-05
4.10539e-05
9.98607e-05
3.67155e-05
9.44825e-05
4.10604e-05
2.03208e-05
5.07475e-05
7.90995e-05
7.90824e-05
2.03228e-05
2.0321e-05
7.90718e-05
5.07483e-05
2.0319e-05
7.90894e-05
3.67174e-05
9.98536e-05
9.45027e-05
4.10645e-05
9.44722e-05
4.10584e-05
3.6724e-05
3.67177e-05
9.44311e-05
4.10533e-05
9.98508e-05
3.67104e-05
9.44627e-05
4.10599e-05
2.03189e-05
5.07445e-05
7.90768e-05
7.90595e-05
2.03209e-05
2.03191e-05
7.90493e-05
5.07409e-05
2.0317e-05
7.90667e-05
3.67148e-05
9.98433e-05
9.4483e-05
4.10641e-05
9.44524e-05
4.10578e-05
3.67206e-05
8.14976e-05
2.17122e-05
2.17089e-05
0.000105246
0.0001289
7.79159e-05
4.86654e-05
0.000105268
0.000128846
4.8658e-05
0.000105252
0.000128883
7.79106e-05
4.86512e-05
0.000105273
0.000128826
4.86514e-05
0.000105241
7.79105e-05
0.000128837
4.86609e-05
0.000105247
0.000128761
7.7905e-05
0.000128819
4.86469e-05
8.14983e-05
2.1714e-05
2.17107e-05
8.1506e-05
2.1712e-05
2.17088e-05
2.38944e-05
2.38941e-05
2.38934e-05
2.38931e-05
2.39007e-05
2.39009e-05
2.38987e-05
2.38989e-05
8.15215e-05
2.1718e-05
2.17147e-05
2.1716e-05
2.17127e-05
8.15287e-05
0.000105303
0.000128921
4.86656e-05
7.79476e-05
0.00010528
4.86726e-05
0.00012897
0.000105304
0.000128897
4.86531e-05
7.79409e-05
0.000105281
4.866e-05
0.000128952
8.15206e-05
2.17142e-05
2.17109e-05
8.15133e-05
2.17162e-05
2.17129e-05
0.000105306
4.86771e-05
7.79501e-05
0.00012903
4.86699e-05
0.000105329
0.000128982
0.000105308
4.86645e-05
7.79442e-05
0.000129011
4.86573e-05
0.00010533
0.000128958
2.39051e-05
2.3903e-05
8.15365e-05
2.17178e-05
2.17145e-05
8.15295e-05
2.17197e-05
2.17164e-05
0.000105354
4.86742e-05
0.000129042
7.79726e-05
0.000105332
4.86813e-05
0.000129088
0.000105355
4.86617e-05
0.000129018
7.79659e-05
0.000105333
4.86687e-05
0.00012907
3.67229e-05
9.99139e-05
4.10736e-05
9.45303e-05
4.10675e-05
9.45095e-05
3.67292e-05
2.03229e-05
7.90739e-05
5.07563e-05
2.03209e-05
7.90906e-05
3.6726e-05
9.99214e-05
4.10638e-05
9.44902e-05
4.10693e-05
3.67195e-05
9.45119e-05
2.03227e-05
7.90999e-05
5.07554e-05
7.90836e-05
2.03247e-05
3.67342e-05
4.1072e-05
9.45393e-05
9.99726e-05
3.67278e-05
4.10776e-05
9.45604e-05
2.03272e-05
7.91149e-05
5.07712e-05
2.03252e-05
7.91312e-05
3.67328e-05
4.10719e-05
9.4528e-05
9.99694e-05
3.67263e-05
4.10776e-05
9.45489e-05
2.03265e-05
7.90929e-05
5.07657e-05
2.03245e-05
7.91089e-05
8.1517e-05
2.17146e-05
2.17177e-05
2.17126e-05
2.17157e-05
8.15235e-05
0.0001053
0.000128887
4.86527e-05
7.79272e-05
4.86595e-05
0.000105282
0.000128938
0.000105298
0.000128919
4.86676e-05
7.79451e-05
0.000128971
0.00010528
4.86677e-05
8.1515e-05
2.17109e-05
2.1714e-05
2.17128e-05
8.15085e-05
2.17159e-05
0.000105308
4.8664e-05
7.79283e-05
0.000128998
4.86569e-05
0.000128949
0.000105326
0.000105306
4.8672e-05
7.79502e-05
0.000129031
0.00012898
4.86725e-05
0.000105324
2.39e-05
2.39002e-05
2.3903e-05
8.15316e-05
2.17144e-05
2.17175e-05
8.15252e-05
2.17164e-05
2.17194e-05
0.000105351
4.86612e-05
0.000129008
7.79521e-05
0.000129057
0.000105333
4.86682e-05
0.000105349
4.86769e-05
0.00012904
7.79702e-05
0.000105331
4.86764e-05
0.00012909
2.39043e-05
3.67223e-05
9.99103e-05
4.10729e-05
9.45309e-05
4.10668e-05
9.4501e-05
3.67289e-05
2.0323e-05
7.9071e-05
5.07508e-05
2.0321e-05
7.90878e-05
3.67255e-05
9.9918e-05
4.10631e-05
9.4482e-05
4.10686e-05
3.67191e-05
9.45118e-05
2.03228e-05
7.90972e-05
5.07544e-05
7.90807e-05
2.03248e-05
3.67341e-05
9.45303e-05
4.10714e-05
9.9969e-05
3.67276e-05
9.45595e-05
4.1077e-05
2.03276e-05
7.91102e-05
5.07642e-05
2.03256e-05
7.91269e-05
3.67324e-05
4.10712e-05
9.45206e-05
9.99663e-05
3.67258e-05
4.10769e-05
9.45499e-05
2.03266e-05
7.90899e-05
5.07602e-05
2.03246e-05
7.91063e-05
3.67239e-05
9.9906e-05
9.45293e-05
4.10726e-05
9.45e-05
4.10664e-05
3.67306e-05
2.03242e-05
7.9087e-05
5.0758e-05
7.90991e-05
2.03221e-05
3.67272e-05
9.99132e-05
9.44809e-05
4.10628e-05
9.45106e-05
3.67211e-05
4.10684e-05
2.03239e-05
7.91087e-05
5.07572e-05
7.90965e-05
2.0326e-05
3.67228e-05
9.99115e-05
4.10733e-05
9.45331e-05
4.10673e-05
9.45031e-05
3.67294e-05
2.03232e-05
7.90712e-05
5.0752e-05
2.03212e-05
7.90885e-05
3.67259e-05
9.99188e-05
4.10636e-05
9.44842e-05
3.67199e-05
4.10691e-05
9.45141e-05
2.0323e-05
7.90979e-05
5.07556e-05
7.90808e-05
2.0325e-05
3.67338e-05
9.45193e-05
4.10707e-05
9.99613e-05
3.6728e-05
9.45478e-05
4.10766e-05
2.03278e-05
7.91056e-05
5.07674e-05
2.03257e-05
7.91175e-05
3.67329e-05
4.10716e-05
9.45227e-05
9.99669e-05
3.67263e-05
4.10773e-05
9.45518e-05
2.03268e-05
7.90901e-05
5.07614e-05
2.03248e-05
7.91069e-05
8.15177e-05
2.17149e-05
2.17181e-05
2.17129e-05
2.17161e-05
8.15246e-05
0.000105305
0.00012889
4.86532e-05
7.79308e-05
4.86599e-05
0.000105283
0.000128943
0.000105302
0.000128921
4.8669e-05
7.79451e-05
0.000128974
0.000105281
4.86689e-05
8.15164e-05
2.17111e-05
2.17143e-05
2.17131e-05
8.15095e-05
2.17163e-05
0.000105309
4.86644e-05
7.79363e-05
0.000129003
4.86574e-05
0.000128952
0.00010533
0.000105307
4.86731e-05
7.79502e-05
0.000129035
0.000128982
4.86735e-05
0.000105328
2.38999e-05
2.39002e-05
2.3902e-05
8.15325e-05
2.17147e-05
2.17179e-05
8.15257e-05
2.17166e-05
2.17199e-05
0.000105356
4.86618e-05
0.000129011
7.79558e-05
0.000129063
0.000105335
4.86686e-05
0.000105354
4.8678e-05
0.000129042
7.79698e-05
0.000105332
4.86776e-05
0.000129093
2.39043e-05
3.67246e-05
9.99042e-05
9.45413e-05
4.10725e-05
9.45116e-05
4.10662e-05
3.67312e-05
2.03246e-05
7.90921e-05
5.07582e-05
7.91091e-05
2.03226e-05
3.67278e-05
9.99118e-05
9.44927e-05
4.10625e-05
9.45225e-05
3.67215e-05
4.10683e-05
2.03244e-05
7.91184e-05
5.07574e-05
7.91017e-05
2.03264e-05
3.67212e-05
9.98942e-05
9.45221e-05
4.10721e-05
9.44921e-05
4.10656e-05
3.67282e-05
2.03227e-05
7.90695e-05
5.07504e-05
2.03207e-05
7.90865e-05
3.67244e-05
9.9902e-05
9.4473e-05
4.10619e-05
3.67188e-05
9.4503e-05
4.10678e-05
2.03225e-05
7.90959e-05
5.0754e-05
7.90791e-05
2.03245e-05
3.67347e-05
9.45311e-05
4.10706e-05
9.99599e-05
3.67281e-05
9.456e-05
4.10765e-05
2.03282e-05
7.91109e-05
5.07676e-05
2.03262e-05
7.91275e-05
3.67318e-05
9.45116e-05
4.107e-05
9.99502e-05
3.67249e-05
9.45408e-05
4.10761e-05
2.03263e-05
7.90884e-05
5.07598e-05
2.03243e-05
7.91049e-05
2.38985e-05
2.38988e-05
2.38975e-05
2.38978e-05
8.15306e-05
2.17174e-05
2.17141e-05
8.15235e-05
2.17193e-05
2.17161e-05
0.000105346
4.86713e-05
0.00012903
7.79617e-05
0.000105324
0.000129081
4.86782e-05
0.000105352
4.86647e-05
0.000129011
7.79566e-05
0.000105331
0.000129063
4.86645e-05
2.39029e-05
2.39018e-05
0.000206569
0.000203205
0.000205527
0.000205526
0.000208946
0.000206285
0.000206285
0.000197396
0.000196401
0.00013855
0.000162118
0.000162106
0.000182646
0.000138507
0.000162189
0.000162179
0.000138441
0.000182231
0.000162058
0.000162045
0.000161977
0.000161962
0.000138484
0.000138437
0.000182227
0.000162025
0.000162055
0.000161949
0.000161973
0.000138478
0.000138442
0.000182283
0.000162031
0.000162056
0.000161971
0.000161994
0.000138482
0.000138432
0.000182254
0.00016205
0.000162035
0.000138473
0.000161971
0.000161959
0.000138558
0.00016212
0.000162105
0.000182647
0.000138517
0.000162197
0.000162185
0.000138553
0.000162092
0.000162116
0.000182631
0.000162194
0.000138512
0.000162166
0.000138556
0.00016211
0.000162131
0.000182649
0.000162206
0.000138514
0.00016218
0.000206575
0.000203212
0.000207175
0.000204759
0.000204758
0.000203987
0.000203986
0.000194397
0.000195401
0.000207172
0.000204756
0.000204757
0.000203986
0.000203988
0.000194397
0.000195401
0.000207181
0.000204765
0.000204769
0.000203993
0.000203998
0.000194405
0.000195409
0.000207172
0.000204764
0.000204765
0.000203993
0.000203995
0.000194405
0.000195408
0.000103558
0.000147563
0.000147503
0.000205524
0.000205525
0.000208937
0.000206282
0.000206283
0.000197396
0.000196401
0.000205534
0.000205537
0.000208952
0.000206292
0.000206295
0.000197404
0.000196409
0.000205531
0.000205533
0.000208943
0.00020629
0.000206291
0.000197404
0.000196409
0.000209526
0.000207039
0.00020704
0.000198388
0.000209517
0.000207037
0.000207038
0.000198388
0.000209531
0.000207047
0.00020705
0.000198396
0.000209522
0.000207044
0.000207046
0.000198395
0.000171886
0.000144405
0.000137896
0.000177315
0.000137802
0.00017717
0.000172065
0.000161226
0.000147825
0.000122852
0.0001037
0.000161042
0.000147864
0.00012291
0.000171892
0.000144404
0.000137732
0.000176979
0.000171696
0.000137818
0.000177114
0.000161181
0.000122964
0.000103697
0.000147966
0.000147929
0.000122906
0.000161357
0.000171875
0.000144403
0.000177312
0.000137903
0.000177165
0.00013781
0.000172069
0.000161221
0.000147828
0.000122856
0.000103704
0.000161042
0.000147883
0.000122918
0.000171888
0.000144402
0.000176971
0.000137741
0.000171691
0.000177108
0.000137827
0.000161192
0.000122972
0.000103698
0.000147989
0.000147926
0.000122912
0.000161356
0.000138581
0.000182669
0.000162329
0.000162317
0.000162255
0.000162242
0.000138622
0.000138285
0.000181798
0.000161772
0.000161757
0.000138329
0.000161687
0.000161672
0.000138407
0.000182221
0.000161828
0.000161811
0.000138364
0.000161912
0.000161897
0.000160694
0.00012274
0.000103559
0.00014754
0.000122685
0.000147506
0.000160719
0.000171469
0.000137593
0.000176623
0.000144226
0.00017141
0.000137661
0.000176698
0.000160979
0.000147764
0.000103631
0.000122857
0.000147722
0.000122804
0.000161009
0.000160859
0.000122746
0.000147615
0.000103635
0.000147653
0.000160835
0.0001228
0.000171595
0.000144226
0.000137739
0.000176878
0.000137674
0.000176806
0.000171655
0.000171457
0.000137581
0.000176617
0.000144221
0.000171393
0.000137647
0.000176689
0.000160962
0.00014773
0.000103607
0.000122838
0.000122786
0.000147692
0.000160983
0.00016084
0.000122728
0.000147582
0.000103612
0.00016082
0.000122782
0.000147619
0.000171573
0.000144221
0.000137726
0.000176871
0.000137661
0.000176801
0.000171637
0.000182181
0.000161804
0.000161881
0.000171156
0.000144025
0.000137581
0.000176518
0.000137487
0.000176381
0.000171361
0.000160619
0.000122738
0.00010355
0.00014754
0.000122672
0.000147475
0.000160772
0.000171126
0.000144022
0.000176516
0.000137572
0.000176378
0.000137478
0.000171364
0.00016058
0.000122726
0.000103539
0.000147508
0.000122661
0.000160788
0.000147476
0.000171541
0.00013757
0.000176582
0.00014422
0.000171305
0.000137662
0.000176719
0.000160889
0.000147753
0.000103621
0.000122853
0.000147695
0.00012279
0.00016104
0.000160917
0.000122731
0.00014758
0.000103626
0.000147643
0.000160741
0.000122795
0.000171493
0.000144221
0.000137742
0.000176919
0.000137653
0.000176783
0.000171705
0.000171512
0.00017658
0.000137563
0.000144217
0.000171306
0.000176717
0.000137652
0.000160874
0.000147738
0.000103612
0.000122837
0.000122782
0.000147694
0.000161024
0.000160903
0.000122722
0.000147588
0.000103615
0.000160706
0.000122781
0.000147623
0.000171511
0.000144218
0.000176916
0.000137733
0.000176781
0.000137645
0.000171685
0.000160904
0.000147759
0.000103629
0.000122855
0.000161077
0.000147719
0.000122795
0.000171522
0.000144219
0.00013774
0.00017692
0.000171704
0.000137651
0.000176782
0.000160893
0.000147761
0.000103618
0.000122848
0.000122785
0.000147697
0.000161038
0.00017152
0.00014422
0.000176924
0.000137738
0.000176788
0.000137649
0.000171699
0.000138286
0.000181876
0.000161732
0.000161753
0.000161709
0.000161688
0.000138322
0.0001384
0.000182182
0.000161833
0.000161856
0.000161885
0.000138367
0.000161908
0.000171547
0.000176574
0.000137577
0.000144216
0.000171321
0.000176715
0.000137667
0.00016091
0.000147783
0.000103631
0.000122863
0.000161063
0.000147715
0.000122799
0.000160942
0.000122741
0.000147602
0.000103635
0.000160764
0.00014767
0.000122805
0.000171502
0.000144218
0.000176914
0.00013775
0.00017171
0.000176778
0.000137659
0.000171531
0.000176578
0.000137557
0.000144209
0.000171301
0.000176715
0.000137647
0.00016088
0.00014775
0.000103612
0.000122841
0.000122778
0.000147681
0.000161034
0.000160915
0.000122719
0.000147577
0.000103617
0.000160735
0.000122783
0.000147636
0.000171487
0.00014421
0.000176914
0.000137728
0.000176779
0.00013764
0.000171698
0.000138398
0.000182188
0.000161817
0.000161907
0.000161882
0.000138591
0.000182669
0.000162335
0.000162323
0.000138631
0.00016226
0.000162245
0.000138702
0.00018307
0.000162398
0.000162383
0.000138662
0.000162471
0.00016246
0.000171944
0.000144409
0.000137889
0.000177273
0.000137831
0.000177197
0.000172009
0.00016115
0.000147824
0.00012286
0.000103703
0.000122912
0.000161119
0.000147868
0.000171836
0.000144409
0.000137754
0.000177005
0.000137817
0.000171769
0.000177078
0.000161258
0.000122966
0.000103699
0.000147972
0.000122916
0.000147928
0.000161292
0.000171929
0.000144405
0.000137876
0.000177267
0.000137818
0.000177191
0.000171993
0.000161123
0.000147793
0.000122842
0.00010368
0.000161102
0.000122894
0.000147827
0.000171819
0.000144405
0.000137742
0.000177
0.000171753
0.000137805
0.000177073
0.000161243
0.000122948
0.000103675
0.000147938
0.000122898
0.00016127
0.000147903
0.000172187
0.000137906
0.000177385
0.000144587
0.000172117
0.000137963
0.000177462
0.000161439
0.000122969
0.000148028
0.000103768
0.000148073
0.00016138
0.000123019
0.000172171
0.000137894
0.000177379
0.000144582
0.000172102
0.000137951
0.000177456
0.000161416
0.000122952
0.000148001
0.000103744
0.000161361
0.000123001
0.000148042
0.000138585
0.000182663
0.000162305
0.000162333
0.000162257
0.000162234
0.000138626
0.000138697
0.000183054
0.000162372
0.000162395
0.000162442
0.000138657
0.000162468
0.000171878
0.000144406
0.000137897
0.000177314
0.000137805
0.000177171
0.000172065
0.000161193
0.000147795
0.000122847
0.000103695
0.000122909
0.000161049
0.000147862
0.000171884
0.000144407
0.000137733
0.000176973
0.000137822
0.000171698
0.000177111
0.000161186
0.000122963
0.000103689
0.000147967
0.000122902
0.000147902
0.000161334
0.000171873
0.000144404
0.000177312
0.000137889
0.000177169
0.0001378
0.000172057
0.000161183
0.000147798
0.00012284
0.000103683
0.000161028
0.000122892
0.000147839
0.000171874
0.000144404
0.000176971
0.000137726
0.000171695
0.000177108
0.000137813
0.000161189
0.000122948
0.00010368
0.000147936
0.000122896
0.000161308
0.0001479
0.000172241
0.000137883
0.00017735
0.000144585
0.000172053
0.000137975
0.000177492
0.000161475
0.000122956
0.000148005
0.000103759
0.000148067
0.000161318
0.000123016
0.00017223
0.000177347
0.000137875
0.000144582
0.000172052
0.000177488
0.000137966
0.000161461
0.00012295
0.000148008
0.000103748
0.000161333
0.000123001
0.000148046
0.000171891
0.000144406
0.000177315
0.000137895
0.000177173
0.000137801
0.000172061
0.000161198
0.000147801
0.000122843
0.000103691
0.000147865
0.000161053
0.000122903
0.000171893
0.000144406
0.000176977
0.00013773
0.000177112
0.000171704
0.000137817
0.000161187
0.000122958
0.000103686
0.000147969
0.000147905
0.000122898
0.000161336
0.000172245
0.000137881
0.000177347
0.000144582
0.000172066
0.000137971
0.000177502
0.000161485
0.00012296
0.000148035
0.000103765
0.000161321
0.000148074
0.000123017
0.00017224
0.000177353
0.000137879
0.000144584
0.000172065
0.000177492
0.00013797
0.000161475
0.000122952
0.000148011
0.000103756
0.000161324
0.000123011
0.00014807
0.000138589
0.000182684
0.000162321
0.000162344
0.000162272
0.00016225
0.000138629
0.000138701
0.000183076
0.000162384
0.000162408
0.000162458
0.000138661
0.000162482
0.000171869
0.000144396
0.000177308
0.000137883
0.000177165
0.000137793
0.000172056
0.000161201
0.000147788
0.000122835
0.000103685
0.000147852
0.000161024
0.000122896
0.000171879
0.000144395
0.000176968
0.00013772
0.000177106
0.000171688
0.000137807
0.000161161
0.000122951
0.00010368
0.000147956
0.000147893
0.00012289
0.00016133
0.000172245
0.000177341
0.000137888
0.00014458
0.00017206
0.000177498
0.000137978
0.000161494
0.000122965
0.00014803
0.000103768
0.000161336
0.000148089
0.000123025
0.000172231
0.000177344
0.000137869
0.000144573
0.000172048
0.000177485
0.00013796
0.000161468
0.000122944
0.000148
0.00010375
0.00016131
0.000123004
0.000148058
0.000138694
0.000183061
0.000162389
0.000162376
0.000138653
0.000162465
0.000162453
0.00021066
0.000202716
0.000202726
0.000183284
0.000212848
0.00020388
0.000203891
0.000184056
0.000214926
0.000204967
0.000204977
0.000184746
0.000216895
0.000205978
0.000205988
0.000185385
0.000218754
0.000206915
0.000206925
0.000185984
0.000220504
0.000207772
0.000207782
0.000186529
0.000222148
0.000208558
0.000208567
0.000187061
0.000223687
0.000209271
0.00020928
0.000187494
0.000225123
0.000209916
0.000209924
0.000187878
0.00022646
0.000210491
0.000210499
0.000188215
0.000227697
0.000210999
0.000211006
0.000188551
0.000228831
0.000211439
0.000211446
0.00018878
0.000229857
0.000211827
0.000211835
0.000188968
0.000230788
0.000212159
0.000212165
0.000189085
0.000231633
0.000212433
0.000212437
0.000189181
0.000232389
0.000212648
0.000212654
0.000189247
0.00023306
0.000212815
0.00021282
0.000189279
0.00023365
0.000212938
0.000212943
0.000189278
0.000234285
0.000213179
0.000213187
0.00018924
0.000233967
0.000213701
0.000213711
0.000193741
0.000183274
0.000202398
0.000202377
0.000183259
0.000202409
0.000202385
0.000202409
0.000202387
0.000183279
0.000202421
0.000202398
0.000183264
0.000183297
0.000184057
0.000202704
0.000202683
0.00020358
0.000203558
0.000183287
0.00018404
0.000202715
0.000202692
0.000203592
0.000203568
0.000202693
0.000203592
0.000203569
0.000183298
0.000184059
0.000202704
0.000203603
0.00020358
0.000184044
0.000184072
0.000184793
0.000203868
0.000203846
0.000204684
0.000204662
0.000184063
0.000184754
0.00020388
0.000203856
0.000204696
0.000204673
0.000203857
0.000204696
0.000204673
0.000184072
0.000184788
0.000203868
0.000204707
0.000204684
0.000184779
0.000184763
0.00018547
0.000204955
0.000204933
0.000205711
0.000205688
0.00018478
0.000185418
0.000204967
0.000204943
0.000205723
0.000205699
0.000204944
0.000205723
0.000205699
0.000184768
0.000185427
0.000204955
0.000205734
0.000205711
0.000185454
0.000185406
0.000186082
0.000205965
0.000205943
0.000206661
0.000206638
0.000185436
0.000186032
0.000205979
0.000205954
0.000206674
0.000206649
0.000205954
0.000206674
0.000206649
0.000185445
0.000186039
0.000205966
0.000206684
0.000206661
0.000186065
0.000186004
0.000186639
0.000206902
0.00020688
0.000207541
0.000207518
0.000186033
0.00018659
0.000206916
0.00020689
0.000207554
0.000207528
0.000206891
0.000207553
0.000207528
0.000186039
0.000186596
0.000206903
0.000207563
0.00020754
0.000186621
0.000186547
0.000187141
0.000207759
0.000207736
0.000208347
0.000208324
0.000186575
0.000187093
0.000207773
0.000207746
0.00020836
0.000208334
0.000207748
0.00020836
0.000208335
0.000186581
0.000187099
0.00020776
0.000208369
0.000208347
0.000187089
0.000187035
0.00018759
0.000208544
0.000208521
0.000209081
0.000209058
0.000187063
0.000187542
0.000208558
0.000208531
0.000209095
0.000209068
0.000208533
0.000209094
0.000209069
0.000187069
0.000187548
0.000208545
0.000209103
0.000209082
0.000187537
0.000187471
0.000187988
0.000209257
0.000209235
0.000209745
0.000209722
0.000187498
0.000187939
0.000209272
0.000209244
0.00020976
0.000209731
0.000209246
0.000209758
0.000209733
0.000187504
0.000187945
0.000209259
0.000209768
0.000209746
0.000187934
0.000187854
0.000188336
0.000209902
0.000209879
0.000210342
0.000210319
0.000187882
0.000188285
0.000209917
0.000209888
0.000210357
0.000210328
0.00020989
0.000210355
0.00021033
0.000187887
0.000188337
0.000209903
0.000210364
0.000210343
0.00018828
0.000188189
0.000188652
0.000210477
0.000210454
0.000210876
0.000210853
0.000188218
0.000188569
0.000210492
0.000210463
0.000210891
0.000210862
0.000210465
0.00021089
0.000210864
0.00018818
0.000188647
0.000210479
0.000210899
0.000210877
0.000188566
0.000188483
0.000188905
0.000210984
0.000210961
0.000211348
0.000211325
0.000188554
0.000188807
0.000210999
0.000210969
0.000211363
0.000211334
0.000210972
0.000211362
0.000211336
0.000188483
0.000188895
0.000210986
0.000211371
0.00021135
0.000188829
0.000188728
0.000189084
0.000211424
0.000211401
0.000211751
0.000211727
0.000188794
0.000189012
0.000211439
0.000211409
0.000211766
0.000211736
0.000211412
0.000211765
0.000211739
0.000188728
0.000189077
0.000211426
0.000211774
0.000211753
0.000189
0.000188932
0.000189223
0.000211812
0.000211788
0.000212091