/*--------------------------------*- C++ -*----------------------------------*\
| =========                 |                                                 |
| \\      /  F ield         | OpenFOAM: The Open Source CFD Toolbox           |
|  \\    /   O peration     | Version:  2312                                  |
|   \\  /    A nd           | Website:  www.openfoam.com                      |
|    \\/     M anipulation  |                                                 |
\*---------------------------------------------------------------------------*/
FoamFile
{
    version     2.0;
    format      ascii;
    arch        "LSB;label=32;scalar=64";
    class       volScalarField;
    location    "1000";
    object      epsilon;
}
// * * * * * * * * * * * * * * * * * * * * * * * * * * * * * * * * * * * * * //

dimensions      [0 2 -3 0 0 0 0];

internalField   nonuniform List<scalar> 
42840
(
1.31329e-07
2.40745e-07
2.40761e-07
3.83674e-07
1.29949e-07
2.53388e-07
2.53409e-07
4.12987e-07
1.29349e-07
2.68061e-07
2.68086e-07
4.44211e-07
1.29532e-07
2.84696e-07
2.84726e-07
4.78289e-07
1.30473e-07
3.03214e-07
3.03243e-07
5.12947e-07
1.32176e-07
3.23502e-07
3.23537e-07
5.49332e-07
1.34637e-07
3.45445e-07
3.45484e-07
5.86725e-07
1.3786e-07
3.68903e-07
3.68945e-07
6.24353e-07
1.41844e-07
3.93734e-07
3.93777e-07
6.62463e-07
1.46596e-07
4.19777e-07
4.19828e-07
7.00107e-07
1.52121e-07
4.46869e-07
4.46928e-07
7.36878e-07
1.58423e-07
4.74842e-07
4.7491e-07
7.7272e-07
1.65507e-07
5.03525e-07
5.03604e-07
8.07577e-07
1.73376e-07
5.3274e-07
5.3283e-07
8.41311e-07
1.82029e-07
5.62317e-07
5.62415e-07
8.73864e-07
1.91463e-07
5.92085e-07
5.9219e-07
9.05268e-07
2.01669e-07
6.21876e-07
6.21985e-07
9.35433e-07
2.12634e-07
6.51531e-07
6.51644e-07
9.64442e-07
2.24335e-07
6.80905e-07
6.81018e-07
9.92229e-07
2.36748e-07
7.09854e-07
7.09976e-07
1.01879e-06
2.49839e-07
7.38269e-07
7.38395e-07
1.04425e-06
2.63567e-07
7.66038e-07
7.66167e-07
1.06858e-06
2.77883e-07
7.93072e-07
7.93199e-07
1.09186e-06
2.92732e-07
8.19291e-07
8.19417e-07
1.11412e-06
3.08048e-07
8.44625e-07
8.44751e-07
1.13529e-06
3.83444e-07
4.05874e-07
2.40823e-07
2.40848e-07
2.50116e-07
2.50147e-07
3.83523e-07
4.05901e-07
2.40768e-07
2.40855e-07
2.50057e-07
2.50157e-07
2.40804e-07
2.5004e-07
2.50106e-07
3.83447e-07
4.0623e-07
2.40793e-07
2.50059e-07
2.50099e-07
4.04857e-07
4.1205e-07
4.36809e-07
2.53479e-07
2.53503e-07
2.64302e-07
2.64329e-07
4.12098e-07
4.37116e-07
2.53419e-07
2.53517e-07
2.64236e-07
2.64346e-07
2.53459e-07
2.6421e-07
2.6429e-07
4.12085e-07
4.36858e-07
2.53452e-07
2.64233e-07
2.64285e-07
4.36304e-07
4.43506e-07
4.70189e-07
2.68165e-07
2.68187e-07
2.80469e-07
2.80491e-07
4.43479e-07
4.70048e-07
2.68098e-07
2.68206e-07
2.80394e-07
2.80513e-07
2.68145e-07
2.80362e-07
2.80457e-07
4.43708e-07
4.70308e-07
2.68138e-07
2.80389e-07
2.80452e-07
4.6885e-07
4.77012e-07
5.04757e-07
2.84817e-07
2.84832e-07
2.98537e-07
2.98558e-07
4.77112e-07
5.04737e-07
2.8474e-07
2.84857e-07
2.98454e-07
2.98582e-07
2.84797e-07
2.98419e-07
2.98525e-07
4.77088e-07
5.04768e-07
2.84788e-07
2.98446e-07
2.98517e-07
5.04213e-07
5.12438e-07
5.40848e-07
3.03345e-07
3.0336e-07
3.18406e-07
3.18424e-07
5.12143e-07
5.40877e-07
3.0326e-07
3.03386e-07
3.18314e-07
3.18453e-07
3.03325e-07
3.18275e-07
3.18394e-07
5.12388e-07
5.40964e-07
3.03313e-07
3.18305e-07
3.18381e-07
5.39989e-07
5.4853e-07
5.77889e-07
3.23643e-07
3.23657e-07
3.39956e-07
3.39974e-07
5.48831e-07
5.77933e-07
3.23551e-07
3.23691e-07
3.39854e-07
3.40007e-07
3.23627e-07
3.39815e-07
3.39952e-07
5.48918e-07
5.77885e-07
3.23609e-07
3.39849e-07
3.39929e-07
5.77278e-07
5.85796e-07
6.15305e-07
3.45594e-07
3.4561e-07
3.63058e-07
3.63075e-07
5.86078e-07
6.15434e-07
3.45494e-07
3.45647e-07
3.62948e-07
3.63115e-07
3.45586e-07
3.62908e-07
3.63063e-07
5.85809e-07
6.15434e-07
3.45557e-07
3.62946e-07
3.63025e-07
6.14404e-07
6.23666e-07
6.52952e-07
3.6906e-07
3.69075e-07
3.87571e-07
3.87588e-07
6.23469e-07
6.52875e-07
3.68954e-07
3.6912e-07
3.87452e-07
3.87628e-07
3.69061e-07
3.87412e-07
3.8758e-07
6.23763e-07
6.52908e-07
3.69021e-07
3.87448e-07
3.87532e-07
6.51681e-07
6.61345e-07
6.90247e-07
3.93898e-07
3.93915e-07
4.13334e-07
4.13349e-07
6.6139e-07
6.90108e-07
3.93784e-07
3.9396e-07
4.13205e-07
4.13396e-07
3.93909e-07
4.13164e-07
4.13353e-07
6.61249e-07
6.90337e-07
3.93855e-07
4.13208e-07
4.13294e-07
6.8893e-07
6.98486e-07
7.27304e-07
4.19951e-07
4.19967e-07
4.40191e-07
4.40208e-07
6.98712e-07
7.271e-07
4.19827e-07
4.20014e-07
4.40049e-07
4.40252e-07
4.1997e-07
4.40009e-07
4.40218e-07
6.98548e-07
7.27375e-07
4.19905e-07
4.4006e-07
4.40146e-07
7.25746e-07
7.35045e-07
7.63477e-07
4.47052e-07
4.47067e-07
4.6797e-07
4.67986e-07
7.35125e-07
7.63386e-07
4.4692e-07
4.47116e-07
4.67821e-07
4.68032e-07
4.4708e-07
4.67777e-07
4.68001e-07
7.35118e-07
7.63563e-07
4.47003e-07
4.6784e-07
4.67918e-07
7.61696e-07
7.70944e-07
7.98529e-07
4.75036e-07
4.75049e-07
4.96503e-07
4.96516e-07
7.70862e-07
7.98534e-07
4.74892e-07
4.75098e-07
4.96343e-07
4.96563e-07
4.7507e-07
4.96298e-07
4.96539e-07
7.71025e-07
7.9864e-07
4.74979e-07
4.96372e-07
4.96442e-07
7.9668e-07
8.05823e-07
8.3248e-07
5.03728e-07
5.0374e-07
5.2561e-07
5.25621e-07
8.05826e-07
8.32559e-07
5.03573e-07
5.03787e-07
5.25439e-07
5.25669e-07
5.03766e-07
5.25396e-07
5.25649e-07
8.05908e-07
8.32587e-07
5.03664e-07
5.25481e-07
5.2554e-07
8.3058e-07
8.39597e-07
8.65288e-07
5.32949e-07
5.3296e-07
5.55113e-07
5.55128e-07
8.3965e-07
8.65339e-07
5.32784e-07
5.33006e-07
5.54937e-07
5.55174e-07
5.32993e-07
5.54899e-07
5.5516e-07
8.39671e-07
8.65355e-07
5.32878e-07
5.54994e-07
5.5504e-07
8.63318e-07
8.72208e-07
8.96838e-07
5.62527e-07
5.62541e-07
5.84847e-07
5.84861e-07
8.72246e-07
8.96902e-07
5.62357e-07
5.62581e-07
5.84663e-07
5.8491e-07
5.62578e-07
5.84634e-07
5.84905e-07
8.72251e-07
8.96929e-07
5.6245e-07
5.84738e-07
5.84774e-07
8.94936e-07
9.03588e-07
9.27207e-07
5.92291e-07
5.92305e-07
6.14639e-07
6.14657e-07
9.03644e-07
9.27274e-07
5.92112e-07
5.92346e-07
6.14447e-07
6.14707e-07
5.92352e-07
6.14434e-07
6.14707e-07
9.03669e-07
9.2731e-07
5.92215e-07
6.14543e-07
6.14566e-07
9.25297e-07
9.33791e-07
9.56408e-07
6.22075e-07
6.22089e-07
6.44336e-07
6.44354e-07
9.33835e-07
9.56468e-07
6.21888e-07
6.22133e-07
6.4414e-07
6.44403e-07
6.22144e-07
6.44136e-07
6.4441e-07
9.33866e-07
9.56495e-07
6.21997e-07
6.4425e-07
6.4426e-07
9.54547e-07
9.62806e-07
9.84391e-07
6.51726e-07
6.51737e-07
6.73786e-07
6.738e-07
9.62849e-07
9.84464e-07
6.51534e-07
6.51782e-07
6.73586e-07
6.73848e-07
6.51802e-07
6.73591e-07
6.73867e-07
9.62872e-07
9.84487e-07
6.51644e-07
6.73706e-07
6.73708e-07
9.82588e-07
9.90585e-07
1.01118e-06
6.81096e-07
6.81103e-07
7.02845e-07
7.02859e-07
9.9066e-07
1.01126e-06
6.80897e-07
6.8115e-07
7.02646e-07
7.02916e-07
6.81173e-07
7.02658e-07
7.02934e-07
9.90686e-07
1.01131e-06
6.81008e-07
7.0278e-07
7.02769e-07
1.00942e-06
1.01718e-06
1.03684e-06
7.10038e-07
7.10044e-07
7.31396e-07
7.31409e-07
1.01725e-06
1.0369e-06
7.09841e-07
7.10104e-07
7.31202e-07
7.31474e-07
7.10125e-07
7.31216e-07
7.31494e-07
1.01731e-06
1.03697e-06
7.09953e-07
7.31343e-07
7.31323e-07
1.03512e-06
1.04265e-06
1.06143e-06
7.38446e-07
7.38449e-07
7.59334e-07
7.59338e-07
1.04271e-06
1.06144e-06
7.3825e-07
7.38516e-07
7.59141e-07
7.59411e-07
7.38541e-07
7.59156e-07
7.59434e-07
1.04277e-06
1.06151e-06
7.38363e-07
7.59288e-07
7.59258e-07
1.05976e-06
1.06705e-06
1.08492e-06
7.66213e-07
7.66207e-07
7.86555e-07
7.86553e-07
1.06706e-06
1.08493e-06
7.66022e-07
7.66281e-07
7.86364e-07
7.86627e-07
7.66312e-07
7.86382e-07
7.86657e-07
1.06712e-06
1.085e-06
7.66128e-07
7.86514e-07
7.86475e-07
1.08331e-06
1.09035e-06
1.10736e-06
7.93242e-07
7.93229e-07
8.1298e-07
8.12968e-07
1.09036e-06
1.10738e-06
7.93051e-07
7.93306e-07
8.1279e-07
8.13044e-07
7.93344e-07
8.12814e-07
8.1308e-07
1.09043e-06
1.10745e-06
7.93153e-07
8.1294e-07
8.12893e-07
1.10581e-06
1.11261e-06
1.12835e-06
8.19453e-07
8.19436e-07
8.38534e-07
8.38513e-07
1.11263e-06
1.12841e-06
8.19263e-07
8.19513e-07
8.38344e-07
8.38591e-07
8.19555e-07
8.38374e-07
8.38635e-07
1.11271e-06
1.12851e-06
8.19364e-07
8.38503e-07
8.38445e-07
1.1273e-06
1.13398e-06
8.44784e-07
8.44757e-07
1.13384e-06
8.44593e-07
8.44837e-07
8.44888e-07
1.13392e-06
8.44692e-07
3.7582e-06
8.92085e-06
8.92501e-06
3.73554e-06
1.84404e-05
1.84331e-05
3.75828e-06
8.92217e-06
8.92635e-06
3.73569e-06
1.31331e-07
1.31335e-07
1.31335e-07
1.30229e-07
1.30232e-07
1.30237e-07
1.30238e-07
1.24125e-06
2.86931e-06
1.59575e-07
2.43721e-07
2.88861e-06
1.60129e-07
1.21459e-06
1.8441e-05
1.84337e-05
1.24164e-06
1.59605e-07
2.86808e-06
2.43736e-07
1.60136e-07
2.89015e-06
1.21469e-06
5.17055e-06
5.17295e-06
3.90463e-07
5.17998e-06
5.18057e-06
3.81799e-06
8.93074e-06
3.80075e-06
8.93438e-06
1.84137e-05
1.84072e-05
3.81805e-06
8.93205e-06
3.80085e-06
8.93571e-06
1.29951e-07
1.29957e-07
1.29957e-07
1.29441e-07
1.29444e-07
1.2945e-07
1.29451e-07
1.32195e-06
2.93111e-06
1.62226e-07
2.56876e-07
1.29654e-06
2.94788e-06
1.63117e-07
1.84143e-05
1.84078e-05
1.32228e-06
1.62261e-07
2.92987e-06
2.56893e-07
1.29669e-06
1.63127e-07
2.94933e-06
5.19842e-06
5.20141e-06
4.2066e-07
5.20645e-06
5.20771e-06
3.86457e-06
8.93934e-06
3.85038e-06
8.94253e-06
1.83894e-05
1.83837e-05
3.8639e-06
8.94064e-06
3.85102e-06
8.94385e-06
1.29351e-07
1.29358e-07
1.29359e-07
1.29417e-07
1.29419e-07
1.29426e-07
1.29429e-07
1.39866e-06
2.98553e-06
1.66222e-07
2.72046e-07
1.37381e-06
3.00005e-06
1.67456e-07
1.83899e-05
1.83841e-05
1.39833e-06
1.66261e-07
2.98434e-06
2.72068e-07
1.37449e-06
1.67467e-07
3.00145e-06
5.2223e-06
5.22458e-06
4.5226e-07
5.22889e-06
5.23056e-06
3.89933e-06
8.94679e-06
3.8885e-06
8.94962e-06
1.83673e-05
1.83624e-05
3.89874e-06
8.9481e-06
3.88916e-06
8.95094e-06
1.29533e-07
1.29542e-07
1.29543e-07
1.30166e-07
1.30168e-07
1.30177e-07
1.3018e-07
1.46905e-06
3.03343e-06
1.7158e-07
2.89161e-07
1.44634e-06
3.04605e-06
1.73157e-07
1.83679e-05
1.83629e-05
1.46876e-06
1.71622e-07
3.03228e-06
2.89188e-07
1.44677e-06
1.73169e-07
3.04735e-06
5.24235e-06
5.24435e-06
4.86348e-07
5.24784e-06
5.2488e-06
3.92572e-06
8.95329e-06
3.91744e-06
8.95582e-06
1.83475e-05
1.83433e-05
3.92517e-06
8.95459e-06
3.91808e-06
8.95716e-06
1.30474e-07
1.30484e-07
1.30487e-07
1.31679e-07
1.3168e-07
1.3169e-07
1.31694e-07
1.53356e-06
3.07572e-06
1.78306e-07
3.08131e-07
1.51262e-06
3.08667e-06
1.80226e-07
1.8348e-05
1.83438e-05
1.53309e-06
1.78351e-07
3.07458e-06
3.08161e-07
1.51326e-06
1.8024e-07
3.08792e-06
5.25938e-06
5.26136e-06
5.21878e-07
5.26394e-06
5.26535e-06
3.94587e-06
8.95911e-06
3.93951e-06
8.96149e-06
1.83298e-05
1.83263e-05
3.94535e-06
8.96041e-06
3.94013e-06
8.96284e-06
1.32176e-07
1.32187e-07
1.32191e-07
1.33951e-07
1.33951e-07
1.33963e-07
1.33969e-07
1.59176e-06
3.11314e-06
1.86401e-07
3.28844e-07
1.57298e-06
3.12265e-06
1.88665e-07
1.83303e-05
1.83269e-05
1.59134e-06
1.8645e-07
3.11205e-06
3.28879e-07
1.57352e-06
1.88679e-07
3.12387e-06
5.27408e-06
5.27597e-06
5.58382e-07
5.27784e-06
5.27924e-06
3.9615e-06
8.96459e-06
3.95655e-06
8.96691e-06
1.83142e-05
1.83115e-05
3.96127e-06
8.96588e-06
3.95717e-06
8.96825e-06
1.34638e-07
1.3465e-07
1.34656e-07
1.36983e-07
1.36983e-07
1.36997e-07
1.37003e-07
1.64371e-06
3.14639e-06
1.95855e-07
3.51179e-07
1.62759e-06
3.15472e-06
1.98461e-07
1.83148e-05
1.83121e-05
1.64363e-06
1.95909e-07
3.14537e-06
3.51216e-07
1.62768e-06
1.98477e-07
3.15589e-06
5.28688e-06
5.28865e-06
5.95747e-07
5.29005e-06
5.29167e-06
3.97368e-06
8.96996e-06
3.96986e-06
8.97229e-06
1.83009e-05
1.8299e-05
3.97355e-06
8.97121e-06
3.97051e-06
8.97365e-06
1.37861e-07
1.37875e-07
1.37882e-07
1.40778e-07
1.40778e-07
1.40793e-07
1.40801e-07
1.69049e-06
3.17617e-06
2.0665e-07
3.74996e-07
1.67618e-06
3.18351e-06
2.09591e-07
1.83015e-05
1.82997e-05
1.69054e-06
2.0671e-07
3.17519e-06
3.75033e-07
1.67618e-06
2.09608e-07
3.18464e-06
5.29826e-06
5.29997e-06
6.33064e-07
5.30105e-06
5.30272e-06
3.98364e-06
8.97542e-06
3.98085e-06
8.97782e-06
1.82898e-05
1.82888e-05
3.98354e-06
8.9766e-06
3.98108e-06
8.97922e-06
1.41845e-07
1.41861e-07
1.4187e-07
1.45339e-07
1.45339e-07
1.45355e-07
1.45365e-07
1.73254e-06
3.20304e-06
2.1876e-07
4.00141e-07
1.71936e-06
3.20957e-06
2.22026e-07
1.82905e-05
1.82895e-05
1.73234e-06
2.18826e-07
3.20211e-06
4.00184e-07
1.71962e-06
2.22052e-07
3.21067e-06
5.30862e-06
5.31031e-06
6.70441e-07
5.31117e-06
5.31285e-06
3.99206e-06
8.98115e-06
3.98959e-06
8.98366e-06
1.82812e-05
1.8281e-05
3.99197e-06
8.98221e-06
3.98988e-06
8.98514e-06
1.46598e-07
1.46616e-07
1.46626e-07
1.5067e-07
1.5067e-07
1.50689e-07
1.507e-07
1.77017e-06
3.2275e-06
2.32153e-07
4.26461e-07
1.75821e-06
3.23336e-06
2.35737e-07
1.82819e-05
1.82818e-05
1.76992e-06
2.32226e-07
3.22664e-06
4.2651e-07
1.75849e-06
2.35767e-07
3.23445e-06
5.31828e-06
5.31997e-06
7.07578e-07
5.32068e-06
5.32237e-06
3.99926e-06
8.9873e-06
3.99732e-06
8.98998e-06
1.82749e-05
1.82756e-05
3.99921e-06
8.98831e-06
3.99745e-06
8.99151e-06
1.52123e-07
1.52143e-07
1.52155e-07
1.56778e-07
1.56778e-07
1.56799e-07
1.56811e-07
1.80394e-06
3.25007e-06
2.46785e-07
4.53789e-07
1.79331e-06
3.25518e-06
2.50671e-07
1.82757e-05
1.82764e-05
1.80385e-06
2.46865e-07
3.24918e-06
4.53845e-07
1.79349e-06
2.50707e-07
3.25637e-06
5.3275e-06
5.32919e-06
7.43938e-07
5.32982e-06
5.33151e-06
4.00568e-06
8.99402e-06
4.00398e-06
8.99691e-06
1.82711e-05
1.82727e-05
4.00565e-06
8.99503e-06
4.0041e-06
8.99845e-06
1.58426e-07
1.58447e-07
1.58462e-07
1.63666e-07
1.63667e-07
1.63691e-07
1.63704e-07
1.83463e-06
3.27043e-06
2.626e-07
4.81955e-07
1.825e-06
3.27542e-06
2.66776e-07
1.82719e-05
1.82734e-05
1.83457e-06
2.62687e-07
3.27021e-06
4.82023e-07
1.8252e-06
2.66816e-07
3.27654e-06
5.33645e-06
5.33814e-06
7.79412e-07
5.33873e-06
5.34043e-06
4.0116e-06
9.00136e-06
4.01003e-06
9.00453e-06
1.82696e-05
1.82721e-05
4.01159e-06
9.00237e-06
4.01013e-06
9.00607e-06
1.6551e-07
1.65534e-07
1.6555e-07
1.71338e-07
1.71339e-07
1.71367e-07
1.71382e-07
1.86281e-06
3.28992e-06
2.79542e-07
5.10786e-07
1.85391e-06
3.29476e-06
2.83989e-07
1.82704e-05
1.82728e-05
1.86276e-06
2.79638e-07
3.28935e-06
5.10866e-07
1.85413e-06
2.84038e-07
3.29559e-06
5.34528e-06
5.34697e-06
8.13838e-07
5.34756e-06
5.34926e-06
4.01722e-06
9.00943e-06
4.01572e-06
9.01291e-06
1.82705e-05
1.82738e-05
4.01719e-06
9.01044e-06
4.01579e-06
9.01445e-06
1.73379e-07
1.73406e-07
1.73424e-07
1.79795e-07
1.79796e-07
1.79829e-07
1.79844e-07
1.88884e-06
3.30841e-06
2.9754e-07
5.40106e-07
1.88059e-06
3.31302e-06
3.02244e-07
1.82713e-05
1.82745e-05
1.88879e-06
2.9765e-07
3.30812e-06
5.40199e-07
1.88078e-06
3.02304e-07
3.3138e-06
5.35407e-06
5.35576e-06
8.47135e-07
5.35638e-06
5.35808e-06
4.02276e-06
9.01828e-06
4.02125e-06
9.02208e-06
1.82737e-05
1.82777e-05
4.02272e-06
9.0193e-06
4.02132e-06
9.02362e-06
1.82032e-07
1.82062e-07
1.82083e-07
1.89034e-07
1.89036e-07
1.89073e-07
1.89091e-07
1.91303e-06
3.3259e-06
3.16527e-07
5.69746e-07
1.90539e-06
3.33025e-06
3.21466e-07
1.82744e-05
1.82785e-05
1.91307e-06
3.16652e-07
3.32567e-06
5.69847e-07
1.90558e-06
3.21539e-07
3.33081e-06
5.3629e-06
5.36459e-06
8.793e-07
5.36524e-06
5.36694e-06
4.02834e-06
9.02793e-06
4.02678e-06
9.03205e-06
1.8279e-05
1.82839e-05
4.02828e-06
9.02895e-06
4.02686e-06
9.0336e-06
1.91467e-07
1.91501e-07
1.91523e-07
1.99046e-07
1.99052e-07
1.99092e-07
1.99111e-07
1.9358e-06
3.34264e-06
3.36421e-07
5.99536e-07
1.9286e-06
3.3466e-06
3.41574e-07
1.82798e-05
1.82846e-05
1.93586e-06
3.36554e-07
3.34243e-06
5.99643e-07
1.92876e-06
3.41657e-07
3.34743e-06
5.37179e-06
5.37348e-06
9.10314e-07
5.37418e-06
5.37586e-06
4.03413e-06
9.03838e-06
4.03245e-06
9.04282e-06
1.82865e-05
1.82921e-05
4.03406e-06
9.0394e-06
4.03255e-06
9.04437e-06
2.01674e-07
2.01712e-07
2.01736e-07
2.09821e-07
2.09829e-07
2.09872e-07
2.09894e-07
1.95729e-06
3.35858e-06
3.57133e-07
6.29307e-07
1.95048e-06
3.36233e-06
3.6248e-07
1.82872e-05
1.82927e-05
1.9574e-06
3.57277e-07
3.35819e-06
6.29418e-07
1.95067e-06
3.62571e-07
3.36311e-06
5.38077e-06
5.38246e-06
9.40084e-07
5.3832e-06
5.38487e-06
4.04015e-06
9.0496e-06
4.03837e-06
9.05436e-06
1.82959e-05
1.83023e-05
4.04003e-06
9.05064e-06
4.03852e-06
9.05592e-06
2.12639e-07
2.12682e-07
2.12706e-07
2.21341e-07
2.2135e-07
2.21396e-07
2.2142e-07
1.97785e-06
3.3739e-06
3.78579e-07
6.58905e-07
1.97134e-06
3.37743e-06
3.84093e-07
1.82966e-05
1.83028e-05
1.97793e-06
3.7873e-07
3.37364e-06
6.59019e-07
1.97147e-06
3.84193e-07
3.37823e-06
5.38985e-06
5.39154e-06
9.68718e-07
5.39232e-06
5.39397e-06
4.04648e-06
9.06163e-06
4.0445e-06
9.06673e-06
1.83071e-05
1.83141e-05
4.04639e-06
9.06264e-06
4.04476e-06
9.06822e-06
2.24343e-07
2.2439e-07
2.24415e-07
2.33578e-07
2.33589e-07
2.3364e-07
2.33666e-07
1.99745e-06
3.38867e-06
4.00659e-07
6.88181e-07
1.99123e-06
3.39201e-06
4.06317e-07
1.83079e-05
1.83148e-05
1.99752e-06
4.0082e-07
3.38817e-06
6.88299e-07
1.99137e-06
4.06424e-07
3.39271e-06
5.39902e-06
5.40073e-06
9.9612e-07
5.40151e-06
5.40314e-06
4.05312e-06
9.0744e-06
4.05116e-06
9.07976e-06
1.83201e-05
1.83278e-05
4.05305e-06
9.07538e-06
4.05129e-06
9.08116e-06
2.36756e-07
2.3681e-07
2.36835e-07
2.46503e-07
2.46514e-07
2.46571e-07
2.46598e-07
2.01628e-06
3.40279e-06
4.23279e-07
7.17007e-07
2.01033e-06
3.40605e-06
4.2905e-07
1.83211e-05
1.83286e-05
2.01636e-06
4.23442e-07
3.4023e-06
7.17133e-07
2.01044e-06
4.29163e-07
3.4067e-06
5.40828e-06
5.41001e-06
1.02239e-06
5.41077e-06
5.41236e-06
4.06012e-06
9.08783e-06
4.05793e-06
9.09345e-06
1.83349e-05
1.8343e-05
4.06001e-06
9.08904e-06
4.05819e-06
9.09468e-06
2.49847e-07
2.49907e-07
2.49934e-07
2.60077e-07
2.60086e-07
2.6015e-07
2.60178e-07
2.03436e-06
3.41621e-06
4.46325e-07
7.4527e-07
2.02867e-06
3.41967e-06
4.52187e-07
1.83359e-05
1.83439e-05
2.03444e-06
4.46494e-07
3.41598e-06
7.45399e-07
2.02875e-06
4.52305e-07
3.4202e-06
5.41761e-06
5.41936e-06
1.04755e-06
5.42006e-06
5.42169e-06
4.06737e-06
9.10188e-06
4.06503e-06
9.10775e-06
1.83511e-05
1.83598e-05
4.06711e-06
9.1031e-06
4.06526e-06
9.10899e-06
2.63574e-07
2.63641e-07
2.63669e-07
2.74251e-07
2.74261e-07
2.7433e-07
2.74359e-07
2.05175e-06
3.42955e-06
4.69696e-07
7.72864e-07
2.04628e-06
3.43258e-06
4.75621e-07
1.83522e-05
1.83608e-05
2.0518e-06
4.69868e-07
3.42915e-06
7.72996e-07
2.04636e-06
4.75742e-07
3.43321e-06
5.42702e-06
5.42864e-06
1.07159e-06
5.42929e-06
5.43126e-06
4.07484e-06
9.11651e-06
4.07239e-06
9.12258e-06
1.83687e-05
1.83779e-05
4.07476e-06
9.11772e-06
4.07279e-06
9.12383e-06
2.7789e-07
2.77962e-07
2.77991e-07
2.88972e-07
2.88981e-07
2.89055e-07
2.89086e-07
2.06843e-06
3.44214e-06
4.93284e-07
7.99702e-07
2.0632e-06
3.44529e-06
4.99246e-07
1.83699e-05
1.8379e-05
2.06849e-06
4.93454e-07
3.44186e-06
7.99832e-07
2.06327e-06
4.99365e-07
3.44577e-06
5.43634e-06
5.43803e-06
1.0946e-06
5.43865e-06
5.44053e-06
4.08253e-06
9.13161e-06
4.07994e-06
9.13787e-06
1.83877e-05
1.83973e-05
4.08228e-06
9.13286e-06
4.08038e-06
9.13916e-06
2.92738e-07
2.92814e-07
2.92845e-07
3.04178e-07
3.04186e-07
3.04263e-07
3.04296e-07
2.08445e-06
3.45457e-06
5.16978e-07
8.25706e-07
2.07944e-06
3.45735e-06
5.22951e-07
1.83889e-05
1.83986e-05
2.08449e-06
5.17147e-07
3.45416e-06
8.25835e-07
2.07948e-06
5.2307e-07
3.45777e-06
5.4457e-06
5.44738e-06
1.1166e-06
5.44799e-06
5.45002e-06
4.09012e-06
9.14716e-06
4.08766e-06
9.15357e-06
1.84078e-05
1.8418e-05
4.08991e-06
9.14842e-06
4.08802e-06
9.15501e-06
3.08053e-07
3.08132e-07
3.08166e-07
2.09972e-06
3.46631e-06
5.40668e-07
8.50813e-07
2.09499e-06
3.46931e-06
5.4662e-07
1.84092e-05
1.84193e-05
2.09983e-06
5.40834e-07
3.46588e-06
8.50939e-07
2.09498e-06
5.46735e-07
3.46951e-06
5.45513e-06
5.45671e-06
1.13742e-06
5.45739e-06
5.45901e-06
1.84376e-05
1.84304e-05
1.84406e-05
1.84333e-05
5.16989e-06
5.17246e-06
3.91394e-07
5.18003e-06
5.18187e-06
1.84171e-05
1.8424e-05
1.842e-05
1.84269e-05
3.97178e-07
5.194e-06
5.19588e-06
5.18484e-06
5.18665e-06
3.75894e-06
8.92117e-06
8.92533e-06
3.73498e-06
1.2414e-06
2.86793e-06
1.59606e-07
2.43794e-07
2.89002e-06
1.60142e-07
1.21459e-06
1.24144e-06
2.86847e-06
1.59605e-07
2.43824e-07
2.89058e-06
1.6014e-07
1.21455e-06
3.77025e-06
8.92989e-06
8.92596e-06
3.78995e-06
3.76955e-06
8.9302e-06
8.9263e-06
3.79071e-06
1.25601e-06
2.46895e-07
2.92042e-06
1.61471e-07
2.89989e-06
1.60768e-07
1.2823e-06
1.25592e-06
2.46919e-07
2.92099e-06
1.61468e-07
2.90042e-06
1.60766e-07
1.28223e-06
5.1716e-06
5.17092e-06
3.91435e-07
5.18149e-06
5.17884e-06
1.84382e-05
1.8431e-05
1.84199e-05
1.84267e-05
3.97219e-07
5.19526e-06
5.19342e-06
5.18622e-06
5.18589e-06
1.84177e-05
1.84246e-05
1.24129e-06
2.86848e-06
1.59603e-07
2.43738e-07
2.89061e-06
1.60139e-07
1.21465e-06
3.7583e-06
8.92174e-06
8.92591e-06
3.73558e-06
1.24143e-06
1.59611e-07
2.86986e-06
2.43833e-07
1.60147e-07
2.88931e-06
1.2146e-06
3.77035e-06
8.93122e-06
8.92728e-06
3.78999e-06
1.25615e-06
2.46837e-07
2.921e-06
1.61467e-07
2.90044e-06
1.60765e-07
1.28218e-06
3.77028e-06
8.93077e-06
8.92687e-06
3.79001e-06
1.25603e-06
2.4693e-07
1.61477e-07
2.91988e-06
1.60775e-07
2.90173e-06
1.28223e-06
3.75811e-06
8.92138e-06
8.9255e-06
3.73576e-06
1.2412e-06
1.59593e-07
2.86817e-06
2.43782e-07
1.60129e-07
2.8902e-06
1.21455e-06
3.75887e-06
8.92132e-06
8.9255e-06
3.73508e-06
1.25606e-06
2.46812e-07
2.91908e-06
1.61455e-07
2.90118e-06
1.60735e-07
1.28198e-06
3.77053e-06
8.93036e-06
8.92651e-06
3.78993e-06
1.25606e-06
2.46878e-07
1.61457e-07
2.92063e-06
1.60754e-07
2.90012e-06
1.28218e-06
3.76969e-06
8.93036e-06
8.92647e-06
3.79075e-06
5.1729e-06
5.17143e-06
3.91418e-07
5.18116e-06
5.17891e-06
1.84386e-05
1.84314e-05
1.84205e-05
1.84274e-05
3.97233e-07
5.1952e-06
5.19378e-06
5.18711e-06
5.18602e-06
1.84181e-05
1.8425e-05
1.24163e-06
1.59609e-07
2.86993e-06
2.43773e-07
1.6014e-07
2.88929e-06
1.21469e-06
3.75833e-06
8.92163e-06
8.9258e-06
3.73591e-06
3.75833e-06
8.92205e-06
8.92622e-06
3.7359e-06
1.2561e-06
2.46832e-07
1.61465e-07
2.92053e-06
1.60768e-07
2.90004e-06
1.2824e-06
1.25606e-06
2.46869e-07
1.61471e-07
2.91985e-06
1.60774e-07
2.9018e-06
1.28239e-06
3.77066e-06
8.93065e-06
8.92676e-06
3.79014e-06
3.77066e-06
8.93106e-06
8.92716e-06
3.79011e-06
1.84394e-05
1.84321e-05
1.84415e-05
1.84342e-05
3.98024e-07
5.19405e-06
5.19455e-06
5.18474e-06
5.18763e-06
1.84189e-05
1.84257e-05
1.84209e-05
1.84278e-05
1.84109e-05
1.84045e-05
1.84138e-05
1.84073e-05
5.19856e-06
5.20045e-06
4.21006e-07
5.20658e-06
5.20841e-06
1.83924e-05
1.83985e-05
1.83952e-05
1.84013e-05
4.27409e-07
5.21831e-06
5.22024e-06
5.21095e-06
5.21278e-06
3.81862e-06
8.93103e-06
3.80013e-06
8.93474e-06
1.32217e-06
2.92989e-06
1.62263e-07
2.56959e-07
1.29652e-06
2.94914e-06
1.63132e-07
1.32218e-06
2.93041e-06
1.6226e-07
2.5699e-07
1.29648e-06
2.94969e-06
1.6313e-07
3.82758e-06
8.93863e-06
8.93521e-06
3.84316e-06
3.82694e-06
8.93895e-06
8.93555e-06
3.84315e-06
1.33595e-06
2.60572e-07
2.97605e-06
1.65135e-07
2.95798e-06
1.64094e-07
1.36086e-06
1.33591e-06
2.60595e-07
2.97659e-06
1.65132e-07
2.95849e-06
1.64091e-07
1.36085e-06
5.19982e-06
5.19917e-06
4.21035e-07
5.20814e-06
5.20594e-06
1.84115e-05
1.8405e-05
1.83951e-05
1.84012e-05
4.27125e-07
5.2199e-06
5.21731e-06
5.2125e-06
5.21164e-06
1.8393e-05
1.8399e-05
1.32214e-06
2.93045e-06
1.6226e-07
2.56899e-07
1.29662e-06
2.94974e-06
1.63129e-07
3.81799e-06
8.93162e-06
3.80082e-06
8.93531e-06
1.32202e-06
1.6227e-07
2.93155e-06
2.57003e-07
1.29659e-06
1.63139e-07
2.94847e-06
3.82764e-06
8.93995e-06
8.93651e-06
3.84242e-06
1.33604e-06
2.60509e-07
2.97665e-06
1.65132e-07
2.95851e-06
1.64091e-07
1.36078e-06
3.82757e-06
8.93952e-06
8.93612e-06
3.84244e-06
1.3361e-06
2.60611e-07
1.65141e-07
2.97546e-06
1.64101e-07
2.95964e-06
1.36076e-06
3.81797e-06
8.93124e-06
3.80106e-06
8.93491e-06
1.3221e-06
1.62248e-07
2.93011e-06
2.5695e-07
1.29651e-06
1.63119e-07
2.94933e-06
3.81868e-06
8.93121e-06
3.80022e-06
8.93492e-06
1.33605e-06
2.60476e-07
2.97471e-06
1.65117e-07
2.95919e-06
1.64057e-07
1.36121e-06
3.82781e-06
8.93913e-06
8.93575e-06
3.84324e-06
1.33595e-06
2.60554e-07
1.65121e-07
2.97623e-06
1.6408e-07
2.95817e-06
1.36078e-06
3.827e-06
8.93913e-06
8.93573e-06
3.84321e-06
5.20065e-06
5.19913e-06
4.21376e-07
5.20708e-06
5.20616e-06
1.84119e-05
1.84054e-05
1.83957e-05
1.84018e-05
4.27525e-07
5.21901e-06
5.21781e-06
5.21334e-06
5.21139e-06
1.83933e-05
1.83995e-05
1.32216e-06
1.62271e-07
2.93163e-06
2.56945e-07
1.29672e-06
1.63135e-07
2.9485e-06
3.81813e-06
8.93148e-06
3.8012e-06
8.93518e-06
3.81811e-06
8.93189e-06
3.80121e-06
8.93559e-06
1.33621e-06
2.60499e-07
1.65128e-07
2.97611e-06
1.64094e-07
2.95805e-06
1.36074e-06
1.33623e-06
2.60548e-07
1.6514e-07
2.97552e-06
1.64105e-07
2.95971e-06
1.36076e-06
3.82793e-06
8.93936e-06
8.93598e-06
3.84257e-06
3.82794e-06
8.93978e-06
8.93636e-06
3.84255e-06
1.84127e-05
1.84062e-05
1.84147e-05
1.84082e-05
4.28063e-07
5.21838e-06
5.21923e-06
5.21095e-06
5.21325e-06
1.83941e-05
1.84002e-05
1.8396e-05
1.84022e-05
1.83866e-05
1.83809e-05
1.83894e-05
1.83837e-05
5.22239e-06
5.2241e-06
4.52954e-07
5.22888e-06
5.23065e-06
1.837e-05
1.83753e-05
1.83728e-05
1.83781e-05
4.59713e-07
5.2387e-06
5.24055e-06
5.23278e-06
5.23436e-06
3.86447e-06
8.93966e-06
3.85034e-06
8.9429e-06
1.39812e-06
2.98436e-06
1.66263e-07
2.72145e-07
1.37428e-06
3.00129e-06
1.67474e-07
1.39821e-06
2.98486e-06
1.6626e-07
2.7217e-07
1.37421e-06
3.00181e-06
1.6747e-07
3.8708e-06
8.94622e-06
8.94323e-06
3.8831e-06
3.87077e-06
8.94651e-06
8.94359e-06
3.88308e-06
1.41121e-06
2.7625e-07
3.02499e-06
1.70156e-07
3.00906e-06
1.68774e-07
1.43411e-06
1.4111e-06
2.76269e-07
3.0255e-06
1.70151e-07
3.00954e-06
1.6877e-07
1.43415e-06
5.22396e-06
5.2231e-06
4.53438e-07
5.23048e-06
5.22826e-06
1.83871e-05
1.83815e-05
1.83727e-05
1.83781e-05
4.59965e-07
5.24025e-06
5.23844e-06
5.23436e-06
5.23338e-06
1.83705e-05
1.83758e-05
1.39812e-06
2.98489e-06
1.6626e-07
2.72076e-07
1.37436e-06
3.00187e-06
1.6747e-07
3.86383e-06
8.94024e-06
3.851e-06
8.94347e-06
1.39822e-06
1.66271e-07
2.98596e-06
2.72188e-07
1.3743e-06
1.6748e-07
3.00062e-06
3.87144e-06
8.94754e-06
8.94453e-06
3.88238e-06
1.41129e-06
2.76177e-07
3.02556e-06
1.70152e-07
3.00958e-06
1.68771e-07
1.4341e-06
3.87137e-06
8.94708e-06
8.94416e-06
3.88242e-06
1.41117e-06
2.7629e-07
1.70162e-07
3.02441e-06
1.68782e-07
3.01068e-06
1.43412e-06
3.86467e-06
8.93987e-06
3.85065e-06
8.94307e-06
1.39823e-06
1.66248e-07
2.98454e-06
2.72133e-07
1.37425e-06
1.6746e-07
3.00146e-06
3.86453e-06
8.93984e-06
3.8504e-06
8.94308e-06
1.41076e-06
2.7614e-07
3.02367e-06
1.70136e-07
3.0102e-06
1.68733e-07
1.43448e-06
3.87094e-06
8.94669e-06
8.94372e-06
3.88323e-06
1.41116e-06
2.76232e-07
1.70141e-07
3.02518e-06
1.68759e-07
3.00922e-06
1.43422e-06
3.87083e-06
8.94675e-06
8.94376e-06
3.88315e-06
5.22455e-06
5.223e-06
4.53092e-07
5.22994e-06
5.22862e-06
1.83876e-05
1.83818e-05
1.83732e-05
1.83786e-05
4.59995e-07
5.24016e-06
5.23847e-06
5.23478e-06
5.2333e-06
1.83709e-05
1.83763e-05
1.39813e-06
1.66277e-07
2.98601e-06
2.72127e-07
1.3745e-06
1.67481e-07
3.0007e-06
3.86394e-06
8.94008e-06
3.85132e-06
8.94331e-06
3.86393e-06
8.94049e-06
3.85134e-06
8.94373e-06
1.41132e-06
2.76166e-07
1.70148e-07
3.02504e-06
1.68773e-07
3.00912e-06
1.43437e-06
1.41141e-06
2.76225e-07
1.70165e-07
3.02447e-06
1.6879e-07
3.01073e-06
1.43412e-06
3.87167e-06
8.94696e-06
8.944e-06
3.8825e-06
3.87169e-06
8.94738e-06
8.94439e-06
3.88249e-06
1.83883e-05
1.83825e-05
1.83903e-05
1.83845e-05
4.6051e-07
5.23878e-06
5.24037e-06
5.23274e-06
5.23466e-06
1.83716e-05
1.8377e-05
1.83736e-05
1.83789e-05
1.83646e-05
1.83596e-05
1.83674e-05
1.83624e-05
5.24219e-06
5.24402e-06
4.87469e-07
5.24785e-06
5.2497e-06
1.83498e-05
1.83544e-05
1.83526e-05
1.83572e-05
4.94411e-07
5.2562e-06
5.25804e-06
5.25116e-06
5.25298e-06
3.89926e-06
8.94712e-06
3.88853e-06
8.95001e-06
1.46875e-06
3.03231e-06
1.71625e-07
2.89277e-07
1.4467e-06
3.04719e-06
1.73176e-07
1.46873e-06
3.03278e-06
1.7162e-07
2.89296e-07
1.44662e-06
3.0477e-06
1.73171e-07
3.90403e-06
8.95281e-06
8.95018e-06
3.91336e-06
3.90402e-06
8.95319e-06
8.95056e-06
3.91335e-06
1.48066e-06
2.93849e-07
3.06812e-06
1.76543e-07
3.05406e-06
1.74818e-07
1.50165e-06
1.48059e-06
2.93867e-07
3.06864e-06
1.76536e-07
3.05455e-06
1.74813e-07
1.50165e-06
5.24376e-06
5.24279e-06
4.87093e-07
5.24931e-06
5.24748e-06
1.8365e-05
1.83601e-05
1.83526e-05
1.83571e-05
4.94504e-07
5.2577e-06
5.2559e-06
5.2528e-06
5.25162e-06
1.83502e-05
1.83547e-05
1.46865e-06
3.03282e-06
1.71621e-07
2.89197e-07
1.4468e-06
3.04777e-06
1.73172e-07
3.89866e-06
8.94771e-06
3.88915e-06
8.95058e-06
1.46848e-06
1.71632e-07
3.03385e-06
2.8932e-07
1.44672e-06
1.73182e-07
3.04657e-06
3.90465e-06
8.95414e-06
8.95149e-06
3.91268e-06
1.48073e-06
2.93769e-07
3.06868e-06
1.76538e-07
3.05459e-06
1.74814e-07
1.50161e-06
3.90461e-06
8.95378e-06
8.95111e-06
3.91273e-06
1.48074e-06
2.93892e-07
1.76548e-07
3.0676e-06
1.74826e-07
3.05562e-06
1.50151e-06
3.89942e-06
8.94729e-06
3.8887e-06
8.95012e-06
1.46868e-06
1.7161e-07
3.03247e-06
2.89264e-07
1.44666e-06
1.73161e-07
3.04738e-06
3.89933e-06
8.94732e-06
3.88859e-06
8.95021e-06
1.48029e-06
2.93728e-07
3.06694e-06
1.76521e-07
3.05518e-06
1.74773e-07
1.50221e-06
3.90421e-06
8.95325e-06
8.95067e-06
3.91349e-06
1.48063e-06
2.93834e-07
1.76527e-07
3.06833e-06
1.74803e-07
3.05425e-06
1.50171e-06
3.90409e-06
8.95338e-06
8.95075e-06
3.91342e-06
5.24417e-06
5.24286e-06
4.87304e-07
5.24898e-06
5.24768e-06
1.83655e-05
1.83605e-05
1.83531e-05
1.83577e-05
4.94584e-07
5.2574e-06
5.25608e-06
5.25309e-06
5.25161e-06
1.83507e-05
1.83553e-05
1.46867e-06
1.71643e-07
3.0339e-06
2.89257e-07
1.44689e-06
1.73187e-07
3.04664e-06
3.89872e-06
8.94754e-06
3.88941e-06
8.9504e-06
3.89872e-06
8.94795e-06
3.88944e-06
8.95082e-06
1.48082e-06
2.93757e-07
1.76534e-07
3.06819e-06
1.74817e-07
3.05411e-06
1.50166e-06
1.4808e-06
2.93825e-07
1.76554e-07
3.06768e-06
1.74838e-07
3.05567e-06
1.50175e-06
3.90485e-06
8.95358e-06
8.95094e-06
3.91276e-06
3.90488e-06
8.95401e-06
8.95135e-06
3.91277e-06
1.83662e-05
1.83613e-05
1.83682e-05
1.83632e-05
4.94947e-07
5.25626e-06
5.25755e-06
5.25117e-06
5.25318e-06
1.83515e-05
1.8356e-05
1.83534e-05
1.8358e-05
1.83447e-05
1.83405e-05
1.83475e-05
1.83433e-05
5.2594e-06
5.26122e-06
5.22639e-07
5.2639e-06
5.26571e-06
1.83318e-05
1.83356e-05
1.83345e-05
1.83384e-05
5.30265e-07
5.27111e-06
5.27292e-06
5.26698e-06
5.26879e-06
3.92566e-06