/*--------------------------------*- C++ -*----------------------------------*\
| =========                 |                                                 |
| \\      /  F ield         | OpenFOAM: The Open Source CFD Toolbox           |
|  \\    /   O peration     | Version:  2312                                  |
|   \\  /    A nd           | Website:  www.openfoam.com                      |
|    \\/     M anipulation  |                                                 |
\*---------------------------------------------------------------------------*/
FoamFile
{
    version     2.0;
    format      ascii;
    arch        "LSB;label=32;scalar=64";
    class       volScalarField;
    location    "1000";
    object      nut;
}
// * * * * * * * * * * * * * * * * * * * * * * * * * * * * * * * * * * * * * //

dimensions      [0 2 -1 0 0 0 0];

internalField   nonuniform List<scalar> 
42840
(
0.000145952
9.86079e-05
9.86048e-05
8.1795e-05
0.000141923
9.62731e-05
9.6271e-05
8.1768e-05
0.000137981
9.44571e-05
9.44552e-05
8.2351e-05
0.000134143
9.31595e-05
9.31589e-05
8.32403e-05
0.000130463
9.23662e-05
9.23687e-05
8.47191e-05
0.000126968
9.20601e-05
9.20622e-05
8.64349e-05
0.000123695
9.22116e-05
9.22148e-05
8.83819e-05
0.000120688
9.279e-05
9.27941e-05
9.05645e-05
0.00011795
9.376e-05
9.37658e-05
9.28648e-05
0.000115534
9.50882e-05
9.50948e-05
9.51813e-05
0.000113454
9.67344e-05
9.67416e-05
9.77995e-05
0.000111725
9.86599e-05
9.86673e-05
0.000100279
0.000110356
0.00010083
0.000100837
0.000102934
0.000109355
0.000103213
0.000103221
0.000105512
0.00010872
0.000105779
0.000105789
0.000108241
0.00010845
0.0001085
0.00010851
0.000110922
0.000108536
0.000111346
0.000111356
0.000113614
0.000108971
0.000114294
0.000114304
0.000116298
0.000109739
0.000117323
0.000117332
0.000118996
0.000110828
0.000120419
0.000120429
0.000121644
0.00011222
0.000123563
0.000123573
0.000124289
0.000113898
0.000126735
0.000126746
0.000126963
0.000115843
0.000129924
0.000129933
0.000129515
0.000118034
0.000133112
0.000133121
0.000132053
0.000120449
0.000136288
0.000136298
0.000134569
8.19636e-05
8.19005e-05
9.85817e-05
9.85707e-05
9.67825e-05
9.67714e-05
8.19371e-05
8.18802e-05
9.86009e-05
9.85691e-05
9.68008e-05
9.67698e-05
9.85869e-05
9.68049e-05
9.67872e-05
8.19529e-05
8.18315e-05
9.8597e-05
9.68057e-05
9.67978e-05
8.22979e-05
8.20855e-05
8.23443e-05
9.62481e-05
9.62386e-05
9.48377e-05
9.48281e-05
8.20675e-05
8.2271e-05
9.62655e-05
9.62357e-05
9.48554e-05
9.48257e-05
9.62547e-05
9.48595e-05
9.48452e-05
8.20744e-05
8.23286e-05
9.62641e-05
9.48603e-05
9.48547e-05
8.26411e-05
8.26295e-05
8.31919e-05
9.4434e-05
9.44249e-05
9.34132e-05
9.34046e-05
8.26264e-05
8.31917e-05
9.4451e-05
9.4422e-05
9.34299e-05
9.34021e-05
9.44424e-05
9.3434e-05
9.34211e-05
8.25906e-05
8.3151e-05
9.44508e-05
9.34359e-05
9.34299e-05
8.3642e-05
8.3628e-05
8.453e-05
9.31381e-05
9.31297e-05
9.24984e-05
9.24887e-05
8.35966e-05
8.45037e-05
9.3154e-05
9.31272e-05
9.25138e-05
9.24883e-05
9.31469e-05
9.25164e-05
9.25083e-05
8.36151e-05
8.45135e-05
9.3155e-05
9.25212e-05
9.25163e-05
8.48544e-05
8.49672e-05
8.6158e-05
9.23483e-05
9.23388e-05
9.2074e-05
9.20653e-05
8.50047e-05
8.61428e-05
9.23625e-05
9.23389e-05
9.20881e-05
9.20664e-05
9.23591e-05
9.2091e-05
9.20864e-05
8.49815e-05
8.61405e-05
9.23664e-05
9.20971e-05
9.20938e-05
8.65488e-05
8.67281e-05
8.80729e-05
9.20435e-05
9.20347e-05
9.21172e-05
9.21082e-05
8.66708e-05
8.80514e-05
9.20566e-05
9.20352e-05
9.21301e-05
9.21102e-05
9.20562e-05
9.21318e-05
9.21295e-05
8.66708e-05
8.80656e-05
9.2063e-05
9.21387e-05
9.21362e-05
8.84154e-05
8.86983e-05
9.02078e-05
9.21978e-05
9.21885e-05
9.25948e-05
9.25866e-05
8.86419e-05
9.01829e-05
9.22096e-05
9.21903e-05
9.26064e-05
9.25882e-05
9.22107e-05
9.26075e-05
9.26069e-05
8.86933e-05
9.01923e-05
9.22175e-05
9.26138e-05
9.26145e-05
9.06033e-05
9.08408e-05
9.24987e-05
9.27792e-05
9.27698e-05
9.3473e-05
9.34635e-05
9.08592e-05
9.25035e-05
9.27892e-05
9.27717e-05
9.34831e-05
9.34664e-05
9.27931e-05
9.34823e-05
9.34865e-05
9.08272e-05
9.25099e-05
9.27987e-05
9.34909e-05
9.34923e-05
9.29665e-05
9.3179e-05
9.49275e-05
9.37514e-05
9.37425e-05
9.47183e-05
9.47097e-05
9.31632e-05
9.49412e-05
9.37604e-05
9.37456e-05
9.47262e-05
9.47104e-05
9.37659e-05
9.47259e-05
9.473e-05
9.3199e-05
9.50262e-05
9.37706e-05
9.47344e-05
9.47338e-05
9.52748e-05
9.56992e-05
9.74156e-05
9.50815e-05
9.5074e-05
9.6289e-05
9.62808e-05
9.56627e-05
9.7443e-05
9.50895e-05
9.50768e-05
9.62966e-05
9.62829e-05
9.50957e-05
9.62969e-05
9.6302e-05
9.56186e-05
9.73194e-05
9.50983e-05
9.63046e-05
9.63035e-05
9.77632e-05
9.81077e-05
9.98506e-05
9.67292e-05
9.67226e-05
9.81495e-05
9.81427e-05
9.8097e-05
9.98685e-05
9.67354e-05
9.67258e-05
9.81546e-05
9.81435e-05
9.67443e-05
9.81563e-05
9.81608e-05
9.81763e-05
9.98001e-05
9.67445e-05
9.81628e-05
9.81612e-05
0.000100351
0.00010062
0.000102368
9.86549e-05
9.86507e-05
0.000100262
0.000100257
0.000100634
0.000102489
9.86604e-05
9.86527e-05
0.000100267
0.000100257
9.86704e-05
0.000100269
0.000100276
0.000100678
0.000102422
9.86696e-05
0.000100275
0.000100275
0.000102851
0.000103279
0.00010506
0.000100826
0.000100824
0.000102596
0.000102593
0.000103251
0.000105076
0.00010083
0.000100822
0.0001026
0.000102589
0.000100844
0.0001026
0.000102612
0.000103188
0.000104985
0.000100842
0.000102608
0.00010261
0.000105507
0.000105901
0.000107801
0.000103209
0.00010321
0.00010512
0.000105118
0.000105898
0.000107744
0.000103213
0.000103207
0.000105124
0.000105114
0.00010323
0.000105124
0.000105138
0.000105908
0.000107653
0.000103226
0.000105133
0.000105134
0.000108122
0.000108519
0.000110497
0.000105776
0.000105777
0.000107805
0.000107803
0.000108514
0.000110442
0.00010578
0.000105774
0.000107807
0.0001078
0.000105799
0.000107809
0.000107826
0.000108561
0.000110371
0.000105794
0.000107819
0.000107821
0.000110864
0.000111186
0.000113126
0.000108497
0.000108498
0.000110622
0.000110619
0.000111165
0.000113167
0.000108499
0.000108495
0.000110622
0.000110616
0.000108521
0.000110627
0.000110643
0.000111238
0.000113084
0.000108515
0.000110637
0.000110637
0.00011349
0.000113941
0.000115811
0.000111343
0.000111342
0.000113547
0.000113542
0.000113861
0.000115775
0.000111343
0.00011134
0.000113546
0.000113541
0.000111366
0.000113551
0.000113567
0.000113922
0.000115753
0.00011136
0.000113561
0.000113562
0.000116214
0.00011661
0.000118485
0.000114292
0.000114289
0.000116556
0.000116552
0.000116565
0.000118499
0.000114291
0.000114287
0.000116557
0.000116549
0.000114313
0.00011656
0.000116577
0.000116584
0.000118546
0.000114308
0.00011657
0.000116572
0.000118859
0.000119249
0.000121144
0.00011732
0.000117317
0.000119637
0.000119632
0.000119244
0.000121163
0.00011732
0.000117314
0.000119638
0.000119631
0.000117341
0.000119641
0.000119658
0.000119207
0.000121222
0.000117336
0.000119652
0.000119653
0.000121563
0.000121945
0.000123828
0.000120417
0.000120412
0.000122772
0.000122764
0.000121932
0.000123788
0.000120417
0.000120412
0.000122772
0.000122766
0.000120439
0.000122775
0.000122793
0.00012189
0.000123884
0.000120433
0.000122786
0.000122788
0.0001242
0.000124542
0.000126441
0.000123562
0.000123555
0.00012594
0.00012593
0.000124568
0.000126462
0.000123562
0.000123556
0.000125941
0.000125933
0.000123583
0.000125942
0.000125961
0.000124512
0.000126434
0.000123578
0.000125953
0.000125956
0.00012683
0.00012722
0.000129046
0.000126737
0.000126726
0.000129126
0.000129115
0.000127128
0.000129052
0.000126737
0.000126729
0.000129126
0.000129119
0.000126757
0.000129127
0.000129146
0.000127132
0.000129099
0.000126752
0.000129139
0.000129142
0.000129396
0.00012976
0.000131627
0.000129923
0.000129913
0.000132314
0.000132303
0.000129761
0.000131637
0.000129924
0.000129916
0.000132314
0.000132307
0.000129943
0.000132316
0.000132335
0.000129714
0.000131675
0.000129939
0.000132327
0.000132331
0.000131965
0.00013229
0.000134194
0.00013311
0.000133099
0.000135494
0.000135481
0.000132308
0.000134193
0.000133111
0.000133104
0.000135495
0.000135488
0.00013313
0.000135495
0.000135514
0.000132281
0.000134216
0.000133126
0.000135507
0.000135511
0.000134498
0.000134827
0.000136287
0.000136274
0.000134819
0.000136288
0.000136279
0.000136305
0.000134785
0.000136302
7.20341e-05
4.95762e-05
4.95892e-05
7.1211e-05
2.3616e-05
2.36129e-05
7.20353e-05
4.95709e-05
4.95837e-05
7.12064e-05
0.000145949
0.000145942
0.000145943
0.000142912
0.000142909
0.000142902
0.000142903
6.99461e-05
6.76079e-05
0.000122024
9.79712e-05
6.82656e-05
0.000121039
6.89037e-05
2.36152e-05
2.36122e-05
6.99152e-05
0.000122003
6.76367e-05
9.79721e-05
0.000121037
6.82414e-05
6.89311e-05
6.20498e-05
6.20416e-05
8.22575e-05
6.2355e-05
6.23685e-05
7.37844e-05
4.95946e-05
7.30529e-05
4.96064e-05
2.36046e-05
2.36019e-05
7.3784e-05
4.95893e-05
7.3048e-05
4.9601e-05
0.00014192
0.000141913
0.000141914
0.000138941
0.000138939
0.000138931
0.000138933
7.29315e-05
6.94051e-05
0.000118295
9.57658e-05
7.18795e-05
7.00306e-05
0.000117375
2.36037e-05
2.3601e-05
7.29121e-05
0.000118273
6.94408e-05
9.57687e-05
7.19062e-05
0.000117371
7.00018e-05
6.29284e-05
6.29109e-05
8.2358e-05
6.32064e-05
6.32106e-05
7.53052e-05
4.96105e-05
7.46763e-05
4.96214e-05
2.35942e-05
2.35918e-05
7.53186e-05
4.96053e-05
7.46598e-05
4.96159e-05
0.000137978
0.000137971
0.000137973
0.000135088
0.000135087
0.00013508
0.000135081
7.58707e-05
7.11036e-05
0.000114861
9.40808e-05
7.49011e-05
7.16953e-05
0.000114043
2.35934e-05
2.35909e-05
7.58955e-05
0.00011484
7.11324e-05
9.40836e-05
7.48876e-05
0.000114039
7.167e-05
6.37295e-05
6.37198e-05
8.31289e-05
6.39874e-05
6.39849e-05
7.66664e-05
4.96248e-05
7.60992e-05
4.9634e-05
2.35848e-05
2.35827e-05
7.6678e-05
4.96195e-05
7.6083e-05
4.96286e-05
0.000134141
0.000134134
0.000134136
0.000131369
0.000131368
0.000131361
0.000131363
7.87822e-05
7.26997e-05
0.000111744
9.29109e-05
7.78411e-05
7.32645e-05
0.000111008
2.35839e-05
2.35818e-05
7.88127e-05
0.000111725
7.2734e-05
9.29151e-05
7.78359e-05
0.000111007
7.3237e-05
6.44698e-05
6.44632e-05
8.42261e-05
6.47087e-05
6.47166e-05
7.78853e-05
4.96372e-05
7.73689e-05
4.96451e-05
2.35763e-05
2.35745e-05
7.78957e-05
4.96322e-05
7.73536e-05
4.96394e-05
0.000130461
0.000130455
0.000130457
0.000127826
0.000127824
0.000127819
0.000127821
8.16039e-05
7.42082e-05
0.000109006
9.22424e-05
8.06977e-05
7.47375e-05
0.000108368
2.35754e-05
2.35736e-05
8.16346e-05
0.00010899
7.4238e-05
9.22483e-05
8.06873e-05
0.00010837
7.47126e-05
6.51548e-05
6.51485e-05
8.57059e-05
6.53785e-05
6.53798e-05
7.89888e-05
4.96484e-05
7.85165e-05
4.96553e-05
2.35687e-05
2.35673e-05
7.89978e-05
4.96435e-05
7.85023e-05
4.96494e-05
0.000126966
0.00012696
0.000126964
0.000124495
0.000124493
0.000124488
0.000124491
8.43233e-05
7.56257e-05
0.00010667
9.20543e-05
8.34478e-05
7.61258e-05
0.000106138
2.35679e-05
2.35664e-05
8.43498e-05
0.000106658
7.56577e-05
9.20602e-05
8.34376e-05
0.000106144
7.61065e-05
6.57914e-05
6.57861e-05
8.75088e-05
6.60024e-05
6.60037e-05
7.9997e-05
4.96587e-05
7.95664e-05
4.9665e-05
2.35621e-05
2.35609e-05
8.0001e-05
4.9654e-05
7.95523e-05
4.9659e-05
0.000123692
0.000123688
0.000123691
0.000121421
0.000121419
0.000121415
0.000121419
8.69421e-05
7.69642e-05
0.000104765
9.23165e-05
8.60701e-05
7.74456e-05
0.000104341
2.35612e-05
2.35601e-05
8.69506e-05
0.000104756
7.69987e-05
9.23231e-05
8.60738e-05
0.00010435
7.74216e-05
6.63865e-05
6.63827e-05
8.95257e-05
6.65855e-05
6.6584e-05
8.09362e-05
4.96688e-05
8.05365e-05
4.96748e-05
2.35563e-05
2.35556e-05
8.09378e-05
4.96643e-05
8.05202e-05
4.96685e-05
0.000120685
0.000120681
0.000120685
0.000118604
0.000118601
0.000118599
0.000118602
8.94285e-05
7.82321e-05
0.000103302
9.2996e-05
8.85928e-05
7.86885e-05
0.00010299
2.35555e-05
2.35547e-05
8.94421e-05
0.000103297
7.82663e-05
9.30043e-05
8.85906e-05
0.000103003
7.86674e-05
6.69453e-05
6.69424e-05
9.17894e-05
6.71338e-05
6.71318e-05
8.18112e-05
4.96787e-05
8.14305e-05
4.96852e-05
2.35516e-05
2.35512e-05
8.18121e-05
4.96749e-05
8.14247e-05
4.96781e-05
0.000117947
0.000117944
0.000117948
0.000116108
0.000116105
0.000116103
0.000116107
9.18181e-05
7.94357e-05
0.000102289
9.40606e-05
9.10003e-05
7.98704e-05
0.00010209
2.35508e-05
2.35504e-05
9.18448e-05
0.000102286
7.94695e-05
9.40682e-05
9.09831e-05
0.000102101
7.98502e-05
6.74738e-05
6.74704e-05
9.41176e-05
6.7652e-05
6.76495e-05
8.26296e-05
4.9689e-05
8.22779e-05
4.96963e-05
2.35479e-05
2.35478e-05
8.26306e-05
4.96862e-05
8.22692e-05
4.96883e-05
0.00011553
0.000115529
0.000115534
0.000113942
0.000113939
0.000113938
0.000113942
9.411e-05
8.05804e-05
0.000101718
9.54733e-05
9.32966e-05
8.09958e-05
0.000101627
2.35471e-05
2.3547e-05
9.41403e-05
0.000101716
8.06144e-05
9.5481e-05
9.32804e-05
0.000101639
8.09788e-05
6.79742e-05
6.79712e-05
9.65005e-05
6.81439e-05
6.8141e-05
8.34022e-05
4.96998e-05
8.30686e-05
4.97085e-05
2.35452e-05
2.35455e-05
8.34026e-05
4.96978e-05
8.3061e-05
4.96998e-05
0.00011345
0.000113449
0.000113454
0.000112124
0.000112121
0.00011212
0.000112124
9.63158e-05
8.16698e-05
0.000101578
9.71919e-05
9.54916e-05
8.20752e-05
0.000101594
2.35444e-05
2.35447e-05
9.63384e-05
0.000101576
8.17044e-05
9.71998e-05
9.5483e-05
0.000101603
8.20536e-05
6.84501e-05
6.84472e-05
9.89961e-05
6.86126e-05
6.86096e-05
8.41343e-05
4.97121e-05
8.38176e-05
4.97213e-05
2.35435e-05
2.35442e-05
8.41344e-05
4.97101e-05
8.38102e-05
4.97126e-05
0.000111721
0.000111721
0.000111726
0.000110664
0.000110662
0.000110661
0.000110666
9.84356e-05
8.27323e-05
0.00010185
9.91833e-05
9.76077e-05
8.31114e-05
0.000101966
2.35428e-05
2.35435e-05
9.84571e-05
0.000101849
8.27438e-05
9.91889e-05
9.75983e-05
0.000101976
8.30887e-05
6.89049e-05
6.89019e-05
0.000101617
6.90606e-05
6.90576e-05
8.4833e-05
4.97256e-05
8.45309e-05
4.97353e-05
2.35429e-05
2.3544e-05
8.48327e-05
4.97237e-05
8.4523e-05
4.97266e-05
0.000110354
0.000110353
0.000110359
0.000109571
0.000109568
0.000109568
0.000109574
0.000100474
8.37363e-05
0.000102513
0.000101408
9.96491e-05
8.40957e-05
0.000102723
2.35421e-05
2.35432e-05
0.000100496
0.000102512
8.37526e-05
0.000101416
9.96399e-05
0.000102732
8.40891e-05
6.93407e-05
6.93379e-05
0.000104198
6.94903e-05
6.94876e-05
8.55046e-05
4.97405e-05
8.52119e-05
4.97507e-05
2.35433e-05
2.35447e-05
8.5504e-05
4.97385e-05
8.5205e-05
4.97421e-05
0.000109352
0.000109353
0.000109359
0.000108845
0.000108842
0.000108842
0.000108849
0.000102445
8.46946e-05
0.000103538
0.000103839
0.000101619
8.50428e-05
0.000103836
2.35425e-05
2.35439e-05
0.000102467
0.000103539
8.46982e-05
0.000103848
0.000101615
0.000103847
8.5045e-05
6.97595e-05
6.97548e-05
0.000106863
6.99034e-05
6.99023e-05
8.61519e-05
4.97568e-05
8.58693e-05
4.97676e-05
2.35447e-05
2.35464e-05
8.61517e-05
4.97548e-05
8.58602e-05
4.97589e-05
0.000108718
0.000108719
0.000108726
0.000108484
0.000108482
0.000108483
0.00010849
0.000104355
8.56142e-05
0.000104902
0.000106448
0.000103528
8.59613e-05
0.000105282
2.35439e-05
2.35456e-05
0.000104373
0.000104904
8.56186e-05
0.000106457
0.000103526
0.000105294
8.59672e-05
7.01618e-05
7.0156e-05
0.000109464
7.03017e-05
7.03008e-05
8.67796e-05
4.97745e-05
8.65043e-05
4.97859e-05
2.3547e-05
2.35491e-05
8.67796e-05
4.97725e-05
8.6495e-05
4.97773e-05
0.000108448
0.00010845
0.000108457
0.000108482
0.000108481
0.000108482
0.00010849
0.000106206
8.64987e-05
0.000106578
0.000109203
0.000105382
8.68469e-05
0.000107032
2.35462e-05
2.35482e-05
0.000106222
0.000106584
8.65012e-05
0.000109213
0.000105383
0.000107045
8.68452e-05
7.05488e-05
7.05428e-05
0.000112224
7.06861e-05
7.06848e-05
8.73879e-05
4.97937e-05
8.71245e-05
4.98056e-05
2.35502e-05
2.35526e-05
8.73901e-05
4.97917e-05
8.71135e-05
4.9797e-05
0.000108536
0.000108537
0.000108546
0.000108831
0.00010883
0.000108832
0.00010884
0.000108006
8.7353e-05
0.00010854
0.000112076
0.000107188
8.76979e-05
0.000109061
2.35494e-05
2.35517e-05
0.000108018
0.000108546
8.73606e-05
0.000112087
0.000107188
0.000109075
8.76977e-05
7.09222e-05
7.09159e-05
0.00011484
7.10567e-05
7.10552e-05
8.7984e-05
4.98144e-05
8.77257e-05
4.98268e-05
2.35542e-05
2.35569e-05
8.79884e-05
4.98123e-05
8.77157e-05
4.98182e-05
0.00010897
0.000108972
0.000108981
0.000109517
0.000109516
0.000109519
0.000109528
0.000109749
8.81757e-05
0.000110756
0.000115046
0.000108943
8.8518e-05
0.000111338
2.35534e-05
2.35561e-05
0.00010976
0.000110765
8.81796e-05
0.000115056
0.000108947
0.000111353
8.85165e-05
7.12828e-05
7.12763e-05
0.000117536
7.14145e-05
7.14128e-05
8.85679e-05
4.98361e-05
8.83159e-05
4.98489e-05
2.35592e-05
2.35624e-05
8.8573e-05
4.98343e-05
8.83044e-05
4.98408e-05
0.000109739
0.000109742
0.000109752
0.000110526
0.000110526
0.000110529
0.00011054
0.000111449
8.89694e-05
0.0001132
0.000118093
0.000110657
8.93076e-05
0.000113835
2.35583e-05
2.35612e-05
0.000111455
0.000113209
8.89799e-05
0.000118102
0.000110664
0.000113851
8.9309e-05
7.16313e-05
7.16246e-05
0.000120206
7.17601e-05
7.17584e-05
8.91412e-05
4.98593e-05
8.88873e-05
4.98728e-05
2.3565e-05
2.35682e-05
8.91467e-05
4.98576e-05
8.88797e-05
4.98658e-05
0.000110828
0.000110831
0.000110842
0.000111844
0.000111844
0.000111848
0.00011186
0.000113101
8.97397e-05
0.000115844
0.000121202
0.000112327
9.00715e-05
0.000116527
2.35639e-05
2.35671e-05
0.000113101
0.000115854
8.97493e-05
0.000121214
0.000112336
0.000116542
9.00727e-05
7.1968e-05
7.19612e-05
0.000122874
7.2094e-05
7.20925e-05
8.97008e-05
4.9884e-05
8.94557e-05
4.98978e-05
2.35713e-05
2.35748e-05
8.97076e-05
4.98788e-05
8.94458e-05
4.98928e-05
0.00011222
0.000112224
0.000112236
0.000113453
0.000113452
0.000113458
0.00011347
0.000114707
9.04906e-05
0.000118667
0.000124354
0.000113952
9.08073e-05
0.000119393
2.35702e-05
2.35737e-05
0.000114707
0.000118676
9.04932e-05
0.000124366
0.000113962
0.000119408
9.0811e-05
7.22934e-05
7.22866e-05
0.000125551
7.2417e-05
7.24147e-05
9.02492e-05
4.99097e-05
9.00111e-05
4.99239e-05
2.35782e-05
2.3582e-05
9.02603e-05
4.99046e-05
9.00004e-05
4.99189e-05
0.000113897
0.000113903
0.000113916
0.000115333
0.000115331
0.000115339
0.000115352
0.000116266
9.12056e-05
0.000121658
0.000127533
0.000115534
9.1525e-05
0.000122423
2.35772e-05
2.35809e-05
0.000116267
0.000121668
9.12121e-05
0.000127544
0.000115544
0.000122439
9.15235e-05
7.26077e-05
7.26026e-05
0.000128111
7.27303e-05
7.27232e-05
9.07871e-05
4.99364e-05
9.05503e-05
4.9951e-05
2.35858e-05
2.35897e-05
9.07928e-05
4.99313e-05
9.05388e-05
4.9946e-05
0.000115841
0.000115849
0.000115862
0.000117464
0.000117462
0.00011747
0.000117484
0.00011778
9.1904e-05
0.000124801
0.000130722
0.00011707
9.221e-05
0.000125602
2.35848e-05
2.35887e-05
0.000117779
0.000124812
9.19074e-05
0.000130732
0.000117077
0.000125617
9.22122e-05
7.29131e-05
7.29069e-05
0.000130687
7.30313e-05
7.30254e-05
9.13056e-05
4.9964e-05
9.10821e-05
4.99789e-05
2.35939e-05
2.35981e-05
9.13179e-05
4.99589e-05
9.10681e-05
4.99739e-05
0.000118032
0.00011804
0.000118054
0.000119825
0.000119823
0.000119832
0.000119846
0.000119242
9.25712e-05
0.000128074
0.000133907
0.000118556
9.28774e-05
0.000128902
2.35929e-05
2.35971e-05
0.000119238
0.000128084
9.25787e-05
0.000133919
0.000118565
0.000128917
9.28807e-05
7.32078e-05
7.32015e-05
0.000133282
7.33219e-05
7.33146e-05
9.18171e-05
4.99924e-05
9.15944e-05
5.00075e-05
2.36025e-05
2.36069e-05
9.18276e-05
4.99874e-05
9.15823e-05
5.00013e-05
0.000120446
0.000120456
0.00012047
0.000120654
9.3222e-05
0.000131447
0.000137079
0.000119991
9.35124e-05
0.000132296
2.36016e-05
2.36059e-05
0.000120649
0.000131457
9.32316e-05
0.00013709
0.000119999
0.000132311
9.35203e-05
7.34909e-05
7.34857e-05
0.00013577
7.36008e-05
7.35996e-05
2.36182e-05
2.36152e-05
2.36161e-05
2.36131e-05
6.20656e-05
6.2057e-05
8.1872e-05
6.23616e-05
6.23603e-05
2.36095e-05
2.36124e-05
2.36074e-05
2.36103e-05
8.2021e-05
6.27942e-05
6.27914e-05
6.25092e-05
6.25092e-05
7.20186e-05
4.95702e-05
4.95831e-05
7.12199e-05
6.99266e-05
6.76374e-05
0.000122005
9.7948e-05
6.82433e-05
0.000121034
6.89318e-05
6.99278e-05
6.76329e-05
0.000122001
9.79362e-05
6.82288e-05
0.000121032
6.89308e-05
7.2162e-05
4.95981e-05
4.95858e-05
7.29403e-05
7.21734e-05
4.95919e-05
4.95797e-05
7.29235e-05
7.04189e-05
9.735e-05
6.91382e-05
0.000119166
6.85484e-05
0.000120106
7.14167e-05
7.04128e-05
9.734e-05
6.91279e-05
0.000119165
6.85487e-05
0.000120103
7.1416e-05
6.20558e-05
6.20543e-05
8.18514e-05
6.23543e-05
6.23728e-05
2.36175e-05
2.36145e-05
2.36073e-05
2.36102e-05
8.20065e-05
6.27899e-05
6.28007e-05
6.25042e-05
6.24964e-05
2.36089e-05
2.36117e-05
6.99462e-05
6.76437e-05
0.000122006
9.79662e-05
6.82243e-05
0.000121036
6.8911e-05
7.20319e-05
4.95669e-05
4.95799e-05
7.12051e-05
6.99471e-05
0.000121992
6.76152e-05
9.79337e-05
0.000121022
6.82525e-05
6.89084e-05
7.21577e-05
4.95926e-05
4.95806e-05
7.29417e-05
7.03947e-05
9.73683e-05
6.91261e-05
0.000119168
6.8558e-05
0.000120106
7.14363e-05
7.21565e-05
4.95887e-05
4.95764e-05
7.29383e-05
7.03926e-05
9.73377e-05
0.000119153
6.91498e-05
0.000120092
6.85254e-05
7.14336e-05
7.20122e-05
4.95716e-05
4.9585e-05
7.12162e-05
6.99403e-05
0.000122014
6.76379e-05
9.79524e-05
0.000121043
6.8235e-05
6.89124e-05
7.20105e-05
4.95677e-05
4.95807e-05
7.12223e-05
7.03835e-05
9.73755e-05
6.91642e-05
0.000119172
6.85203e-05
0.000120125
7.14482e-05
7.21649e-05
4.95937e-05
4.95811e-05
7.29173e-05
7.03977e-05
9.73549e-05
0.000119176
6.91323e-05
0.000120115
6.85432e-05
7.14298e-05
7.21753e-05
4.95895e-05
4.95772e-05
7.29141e-05
6.2042e-05
6.20479e-05
8.18764e-05
6.23588e-05
6.23763e-05
2.36173e-05
2.36143e-05
2.36065e-05
2.36093e-05
8.2002e-05
6.27904e-05
6.27969e-05
6.24945e-05
6.24974e-05
2.36087e-05
2.36115e-05
6.99197e-05
0.000122006
6.76121e-05
9.79634e-05
0.00012104
6.82551e-05
6.89267e-05
7.20173e-05
4.95719e-05
4.95849e-05
7.12207e-05
7.20142e-05
4.95664e-05
4.95792e-05
7.1218e-05
7.04146e-05
9.73722e-05
0.000119168
6.91332e-05
0.000120103
6.85468e-05
7.14105e-05
7.04129e-05
9.73645e-05
0.000119172
6.91506e-05
0.000120106
6.85271e-05
7.14165e-05
7.21689e-05
4.95936e-05
4.95814e-05
7.29211e-05
7.21665e-05
4.9588e-05
4.9576e-05
7.29194e-05
2.3616e-05
2.36129e-05
2.36148e-05
2.36118e-05
8.17337e-05
6.27875e-05
6.28009e-05
6.25023e-05
6.24885e-05
2.36072e-05
2.36101e-05
2.36061e-05
2.3609e-05
2.36068e-05
2.36041e-05
2.36047e-05
2.3602e-05
6.29342e-05
6.29326e-05
8.20732e-05
6.32127e-05
6.32095e-05
2.35989e-05
2.36015e-05
2.35968e-05
2.35994e-05
8.23218e-05
6.36105e-05
6.36082e-05
6.33442e-05
6.33426e-05
7.37698e-05
4.95889e-05
7.3062e-05
4.96004e-05
7.29136e-05
6.94385e-05
0.000118274
9.57447e-05
7.19133e-05
7.00083e-05
0.00011737
7.29057e-05
6.94352e-05
0.000118273
9.57337e-05
7.19102e-05
6.99974e-05
0.000117368
7.38834e-05
4.96142e-05
4.9603e-05
7.45631e-05
7.38935e-05
4.9608e-05
4.95971e-05
7.45601e-05
7.34111e-05
9.52757e-05
7.08555e-05
0.000115648
7.02997e-05
0.000116517
7.4408e-05
7.34094e-05
9.52666e-05
7.08465e-05
0.000115647
7.02967e-05
0.000116515
7.44032e-05
6.29303e-05
6.29254e-05
8.20513e-05
6.32034e-05
6.3217e-05
2.36061e-05
2.36034e-05
2.35967e-05
2.35993e-05
8.23678e-05
6.36022e-05
6.36214e-05
6.33358e-05
6.3334e-05
2.35983e-05
2.36008e-05
7.29214e-05
6.94443e-05
0.000118275
9.5762e-05
7.18924e-05
6.99961e-05
0.000117371
7.37828e-05
4.95855e-05
7.30455e-05
4.95972e-05
7.2935e-05
0.000118261
6.94124e-05
9.57317e-05
7.18892e-05
0.000117356
7.00208e-05
7.38789e-05
4.96086e-05
4.95977e-05
7.45782e-05
7.33947e-05
9.52932e-05
7.08413e-05
0.000115649
7.0305e-05
0.000116518
7.44191e-05
7.3878e-05
4.96049e-05
4.95937e-05
7.45753e-05
7.33837e-05
9.52641e-05
0.000115636
7.08648e-05
0.000116504
7.02754e-05
7.44227e-05
7.37613e-05
4.95903e-05
7.30531e-05
4.96022e-05
7.29292e-05
0.000118285
6.94298e-05
9.57501e-05
7.18969e-05
0.000117379
7.00008e-05
7.37604e-05
4.95864e-05
7.30648e-05
4.95981e-05
7.33786e-05
9.52998e-05
7.08759e-05
0.000115654
7.02686e-05
0.000116538
7.43913e-05
7.38847e-05
4.96095e-05
4.95984e-05
7.4538e-05
7.33894e-05
9.52825e-05
0.000115658
7.08435e-05
0.000116528
7.0291e-05
7.44165e-05
7.38963e-05
4.96057e-05
4.95946e-05
7.45509e-05
6.29194e-05
6.29291e-05
8.19994e-05
6.32168e-05
6.32184e-05
2.3606e-05
2.36032e-05
2.35959e-05
2.35984e-05
8.22919e-05
6.36119e-05
6.36172e-05
6.33267e-05
6.33425e-05
2.35981e-05
2.36006e-05
7.29203e-05
0.000118275
6.9415e-05
9.57599e-05
7.19011e-05
0.000117375
7.00238e-05
7.37652e-05
4.95906e-05
7.30565e-05
4.96021e-05
7.37635e-05
4.95849e-05
7.30541e-05
4.95964e-05
7.33973e-05
9.52972e-05
0.000115651
7.0852e-05
0.000116515
7.0298e-05
7.44147e-05
7.3394e-05
9.52912e-05
0.000115653
7.08661e-05
0.000116518
7.02749e-05
7.44168e-05
7.38876e-05
4.96098e-05
4.95987e-05
7.45578e-05
7.38854e-05
4.96041e-05
4.95933e-05
7.45562e-05
2.36045e-05
2.36018e-05
2.36034e-05
2.36007e-05
8.20755e-05
6.36029e-05
6.3614e-05
6.33363e-05
6.33299e-05
2.35966e-05
2.35992e-05
2.35955e-05
2.35981e-05
2.35964e-05
2.3594e-05
2.35943e-05
2.35918e-05
6.37368e-05
6.37365e-05
8.27708e-05
6.3996e-05
6.39942e-05
2.35893e-05
2.35916e-05
2.35872e-05
2.35895e-05
8.31404e-05
6.43651e-05
6.43598e-05
6.41157e-05
6.41167e-05
7.53047e-05
4.96049e-05
7.46731e-05
4.96155e-05
7.59004e-05
7.11333e-05
0.00011484
9.40606e-05
7.48975e-05
7.16741e-05
0.000114037
7.5892e-05
7.11274e-05
0.000114838
9.40509e-05
7.48967e-05
7.16647e-05
0.000114035
7.54077e-05
4.96277e-05
4.9618e-05
7.60065e-05
7.54052e-05
4.96211e-05
4.96121e-05
7.6004e-05
7.63754e-05
9.37221e-05
7.24686e-05
0.000112464
7.19471e-05
0.000113234
7.73651e-05
7.63744e-05
9.3713e-05
7.24581e-05
0.000112463
7.19411e-05
0.000113231
7.736e-05
6.37277e-05
6.37239e-05
8.2656e-05
6.39865e-05
6.39998e-05
2.35957e-05
2.35933e-05
2.35872e-05
2.35894e-05
8.30817e-05
6.43552e-05
6.43603e-05
6.41068e-05
6.41029e-05
2.35886e-05
2.35909e-05
7.59031e-05
7.1138e-05
0.00011484
9.40774e-05
7.48827e-05
7.16617e-05
0.000114037
7.53176e-05
4.96015e-05
7.46574e-05
4.96123e-05
7.59012e-05
0.000114826
7.11087e-05
9.40486e-05
7.48803e-05
0.000114025
7.16858e-05
7.53913e-05
4.96222e-05
4.96126e-05
7.60213e-05
7.63612e-05
9.37385e-05
7.2457e-05
0.000112465
7.19496e-05
0.000113233
7.73722e-05
7.53904e-05
4.96179e-05
4.96086e-05
7.60178e-05
7.63615e-05
9.37109e-05
0.000112453
7.24789e-05
0.000113221
7.19196e-05
7.73702e-05
7.52799e-05
4.96062e-05
7.46753e-05
4.96173e-05
7.5894e-05
0.000114851
7.11269e-05
9.40688e-05
7.48827e-05
0.000114047
7.16669e-05
7.52957e-05
4.96024e-05
7.46754e-05
4.96131e-05
7.6377e-05
9.37437e-05
7.24948e-05
0.000112472
7.19167e-05
0.000113253
7.73344e-05
7.54083e-05
4.96231e-05
4.96138e-05
7.59808e-05
7.63632e-05
9.37299e-05
0.000112475
7.24591e-05
0.000113243
7.19373e-05
7.73647e-05
7.5407e-05
4.96193e-05
4.96096e-05
7.59956e-05
6.37211e-05
6.37309e-05
8.27359e-05
6.39924e-05
6.39985e-05
2.35956e-05
2.35931e-05
2.35863e-05
2.35885e-05
8.30877e-05
6.43561e-05
6.43675e-05
6.40999e-05
6.41099e-05
2.35885e-05
2.35907e-05
7.58987e-05
0.000114841
7.1111e-05
9.40782e-05
7.48867e-05
0.000114043
7.16869e-05
7.53004e-05
4.96065e-05
7.46658e-05
4.96171e-05
7.52987e-05
4.96009e-05
7.46636e-05
4.96113e-05
7.63704e-05
9.37423e-05
0.00011247
7.24663e-05
0.000113233
7.19437e-05
7.73489e-05
7.63651e-05
9.37383e-05
0.000112472
7.24823e-05
0.000113235
7.19231e-05
7.73669e-05
7.53973e-05
4.96233e-05
4.96136e-05
7.60012e-05
7.53951e-05
4.96177e-05
4.96082e-05
7.59998e-05
2.35941e-05
2.35917e-05
2.3593e-05
2.35905e-05
8.28633e-05
6.43561e-05
6.43537e-05
6.41075e-05
6.41039e-05
2.3587e-05
2.35893e-05
2.35859e-05
2.35881e-05
2.3587e-05
2.35849e-05
2.35849e-05
2.35827e-05
6.44808e-05
6.44778e-05
8.37775e-05
6.47183e-05
6.47135e-05
2.35807e-05
2.35826e-05
2.35785e-05
2.35805e-05
8.42811e-05
6.50591e-05
6.50548e-05
6.48281e-05
6.48257e-05
7.6665e-05
4.96187e-05
7.6095e-05
4.96281e-05
7.88104e-05
7.27359e-05
0.000111725
9.28919e-05
7.78397e-05
7.32402e-05
0.000111002
7.88036e-05
7.27296e-05
0.000111722
9.28828e-05
7.78361e-05
7.32321e-05
0.000111
7.67493e-05
4.96395e-05
4.96311e-05
7.72932e-05
7.67463e-05
4.96335e-05
4.96252e-05
7.72902e-05
7.9277e-05
9.26821e-05
7.39878e-05
0.000109631
7.3501e-05
0.000110308
8.02373e-05
7.92771e-05
9.26721e-05
7.3982e-05
0.000109629
7.34949e-05
0.000110305
8.02309e-05
6.44711e-05
6.4468e-05
8.38156e-05
6.47083e-05
6.47139e-05
2.35863e-05
2.35842e-05
2.35785e-05
2.35804e-05
8.42504e-05
6.50488e-05
6.50538e-05
6.48166e-05
6.4817e-05
2.358e-05
2.35819e-05
7.88217e-05
7.27362e-05
0.000111724
9.29079e-05
7.7823e-05
7.32307e-05
0.000111002
7.6677e-05
4.96151e-05
7.608e-05
4.9625e-05
7.88219e-05
0.000111712
7.2707e-05
9.28812e-05
7.78214e-05
0.000110991
7.32535e-05
7.6734e-05
4.96339e-05
4.96258e-05
7.73069e-05
7.92633e-05
9.26972e-05
7.39781e-05
0.000109632
7.35023e-05
0.000110307
8.02446e-05
7.67322e-05
4.96302e-05
4.96221e-05
7.73027e-05
7.92639e-05
9.26714e-05
0.000109621
7.40004e-05
0.000110296
7.34721e-05
8.02488e-05
7.66425e-05
4.96205e-05
7.6097e-05
4.96296e-05
7.88143e-05
0.000111735
7.27268e-05
9.29011e-05
7.78235e-05
0.000111012
7.32307e-05
7.66572e-05
4.96168e-05
7.60962e-05
4.96256e-05
7.92845e-05
9.27004e-05
7.40116e-05
0.000109639
7.34666e-05
0.000110326
8.02094e-05
7.67465e-05
4.96349e-05
4.96268e-05
7.72691e-05
7.92649e-05
9.26904e-05
0.000109642
7.39829e-05
0.000110317
7.34943e-05
8.02386e-05
7.67469e-05
4.96312e-05
4.96229e-05
7.72833e-05
6.44641e-05
6.44729e-05
8.37973e-05
6.47123e-05
6.47177e-05
2.35861e-05
2.3584e-05
2.35776e-05
2.35796e-05
8.42543e-05
6.50523e-05
6.50585e-05
6.48125e-05
6.48224e-05
2.35798e-05
2.35818e-05
7.88093e-05
0.000111726
7.27093e-05
9.29098e-05
7.78266e-05
0.00011101
7.32552e-05
7.66613e-05
4.96208e-05
7.60857e-05
4.96297e-05
7.66596e-05
4.96153e-05
7.60835e-05
4.96239e-05
7.92694e-05
9.27015e-05
0.000109639
7.39891e-05
0.000110308
7.34973e-05
8.02317e-05
7.92721e-05
9.26981e-05
0.000109641
7.40026e-05
0.00011031
7.34739e-05
8.0228e-05
7.67359e-05
4.96349e-05
4.96269e-05
7.72884e-05
7.67338e-05
4.96293e-05
4.96215e-05
7.72867e-05
2.35847e-05
2.35826e-05
2.35835e-05
2.35814e-05
8.40498e-05
6.50496e-05
6.5052e-05
6.48197e-05
6.4813e-05
2.35784e-05
2.35803e-05
2.35772e-05
2.35792e-05
2.35785e-05
2.35767e-05
2.35764e-05
2.35745e-05
6.51635e-05
6.51598e-05
8.53091e-05
6.53879e-05
6.53822e-05
2.3573e-05
2.35746e-05
2.35708e-05
2.35724e-05
8.58295e-05
6.57043e-05
6.56989e-05
6.54872e-05
6.54836e-05
7.78832e-05