/*--------------------------------*- C++ -*----------------------------------*\
| =========                 |                                                 |
| \\      /  F ield         | OpenFOAM: The Open Source CFD Toolbox           |
|  \\    /   O peration     | Version:                                        |
|   \\  /    A nd           | Website:  www.openfoam.com                      |
|    \\/     M anipulation  |                                                 |
\*---------------------------------------------------------------------------*/
FoamFile
{
    version     2.0;
    format      ascii;
    class       volScalarField;
    location    "35350.5";
    object      p;
}
// * * * * * * * * * * * * * * * * * * * * * * * * * * * * * * * * * * * * * //

dimensions      [0 2 -2 0 0 0 0];


internalField   nonuniform List<scalar> 
247096
(
1.08612e-07
1.08615e-07
1.08758e-07
1.08845e-07
1.08877e-07
1.08836e-07
1.08745e-07
1.08591e-07
1.08615e-07
1.08813e-07
1.0899e-07
1.09083e-07
1.09106e-07
1.09076e-07
1.08972e-07
1.08789e-07
1.08758e-07
1.0899e-07
1.0913e-07
1.09172e-07
1.09179e-07
1.0917e-07
1.0912e-07
1.08963e-07
1.08731e-07
1.08845e-07
1.09083e-07
1.09172e-07
1.09184e-07
1.09183e-07
1.09184e-07
1.09167e-07
1.09061e-07
1.08811e-07
1.08612e-07
1.08877e-07
1.09106e-07
1.09179e-07
1.09183e-07
1.09179e-07
1.09183e-07
1.09175e-07
1.09086e-07
1.08843e-07
1.08836e-07
1.09076e-07
1.0917e-07
1.09184e-07
1.09183e-07
1.09184e-07
1.09165e-07
1.09053e-07
1.08803e-07
1.08745e-07
1.08972e-07
1.0912e-07
1.09167e-07
1.09175e-07
1.09165e-07
1.09108e-07
1.08944e-07
1.08719e-07
1.08591e-07
1.08789e-07
1.08963e-07
1.09061e-07
1.09086e-07
1.09053e-07
1.08944e-07
1.08766e-07
1.08731e-07
1.08811e-07
1.08843e-07
1.08803e-07
1.08719e-07
1.05799e-07
1.05774e-07
1.05783e-07
1.05634e-07
1.05647e-07
1.05666e-07
1.05646e-07
1.05832e-07
1.0577e-07
1.05783e-07
1.05654e-07
1.05451e-07
1.05468e-07
1.05468e-07
1.05451e-07
1.05712e-07
1.05658e-07
1.05634e-07
1.05451e-07
1.05488e-07
1.05509e-07
1.05509e-07
1.05488e-07
1.05451e-07
1.05775e-07
1.05821e-07
1.05799e-07
1.05647e-07
1.05468e-07
1.05509e-07
1.05532e-07
1.05532e-07
1.05509e-07
1.05468e-07
1.05803e-07
1.05839e-07
1.05774e-07
1.05666e-07
1.05468e-07
1.05509e-07
1.05532e-07
1.05532e-07
1.05509e-07
1.05468e-07
1.05805e-07
1.05662e-07
1.05646e-07
1.05451e-07
1.05488e-07
1.05509e-07
1.05509e-07
1.05488e-07
1.05451e-07
1.05799e-07
1.05848e-07
1.05832e-07
1.05712e-07
1.05451e-07
1.05468e-07
1.05468e-07
1.05451e-07
1.05793e-07
1.05716e-07
1.05831e-07
1.0577e-07
1.05658e-07
1.05775e-07
1.05803e-07
1.05805e-07
1.05799e-07
1.05716e-07
1.05841e-07
1.05821e-07
1.05839e-07
1.05662e-07
1.05848e-07
1.05831e-07
1.04021e-07
1.04012e-07
1.04021e-07
1.03891e-07
1.0389e-07
1.039e-07
1.03892e-07
1.04055e-07
1.04012e-07
1.04021e-07
1.03885e-07
1.03652e-07
1.0366e-07
1.0366e-07
1.03652e-07
1.03908e-07
1.03903e-07
1.03891e-07
1.03652e-07
1.03671e-07
1.03683e-07
1.03683e-07
1.03671e-07
1.03652e-07
1.03953e-07
1.04045e-07
1.04021e-07
1.0389e-07
1.0366e-07
1.03683e-07
1.03696e-07
1.03696e-07
1.03683e-07
1.0366e-07
1.03957e-07
1.04043e-07
1.04012e-07
1.039e-07
1.0366e-07
1.03683e-07
1.03696e-07
1.03696e-07
1.03683e-07
1.0366e-07
1.03956e-07
1.0391e-07
1.03892e-07
1.03652e-07
1.03671e-07
1.03683e-07
1.03683e-07
1.03671e-07
1.03652e-07
1.0396e-07
1.04051e-07
1.04055e-07
1.03908e-07
1.03652e-07
1.0366e-07
1.0366e-07
1.03652e-07
1.03941e-07
1.03932e-07
1.04055e-07
1.04012e-07
1.03903e-07
1.03953e-07
1.03957e-07
1.03956e-07
1.0396e-07
1.03932e-07
1.04058e-07
1.04045e-07
1.04043e-07
1.0391e-07
1.04051e-07
1.04055e-07
1.02421e-07
1.02412e-07
1.02421e-07
1.02297e-07
1.02296e-07
1.02304e-07
1.02298e-07
1.02452e-07
1.02414e-07
1.02421e-07
1.02293e-07
1.02085e-07
1.0209e-07
1.0209e-07
1.02085e-07
1.02317e-07
1.02311e-07
1.02297e-07
1.02085e-07
1.02096e-07
1.02102e-07
1.02102e-07
1.02096e-07
1.02085e-07
1.02357e-07
1.02444e-07
1.02421e-07
1.02296e-07
1.0209e-07
1.02102e-07
1.0211e-07
1.0211e-07
1.02102e-07
1.0209e-07
1.02362e-07
1.02443e-07
1.02412e-07
1.02304e-07
1.0209e-07
1.02102e-07
1.0211e-07
1.0211e-07
1.02102e-07
1.0209e-07
1.02361e-07
1.02316e-07
1.02298e-07
1.02085e-07
1.02096e-07
1.02102e-07
1.02102e-07
1.02096e-07
1.02085e-07
1.02363e-07
1.02449e-07
1.02452e-07
1.02317e-07
1.02085e-07
1.0209e-07
1.0209e-07
1.02085e-07
1.02345e-07
1.02337e-07
1.02452e-07
1.02414e-07
1.02311e-07
1.02357e-07
1.02362e-07
1.02361e-07
1.02363e-07
1.02337e-07
1.02457e-07
1.02444e-07
1.02443e-07
1.02316e-07
1.02449e-07
1.02452e-07
1.00959e-07
1.00951e-07
1.00959e-07
1.00841e-07
1.00839e-07
1.00846e-07
1.00841e-07
1.00987e-07
1.00954e-07
1.00959e-07
1.00837e-07
1.00645e-07
1.00649e-07
1.00649e-07
1.00645e-07
1.0086e-07
1.00855e-07
1.00841e-07
1.00645e-07
1.00653e-07
1.00656e-07
1.00656e-07
1.00653e-07
1.00645e-07
1.00899e-07
1.00982e-07
1.00959e-07
1.00839e-07
1.00649e-07
1.00656e-07
1.00661e-07
1.00661e-07
1.00656e-07
1.00649e-07
1.00901e-07
1.0098e-07
1.00951e-07
1.00846e-07
1.00649e-07
1.00656e-07
1.00661e-07
1.00661e-07
1.00656e-07
1.00649e-07
1.00899e-07
1.0086e-07
1.00841e-07
1.00645e-07
1.00653e-07
1.00656e-07
1.00656e-07
1.00653e-07
1.00645e-07
1.00903e-07
1.00986e-07
1.00987e-07
1.0086e-07
1.00645e-07
1.00649e-07
1.00649e-07
1.00645e-07
1.00886e-07
1.00879e-07
1.00988e-07
1.00953e-07
1.00855e-07
1.00899e-07
1.00901e-07
1.00899e-07
1.00903e-07
1.00879e-07
1.00993e-07
1.00982e-07
1.0098e-07
1.0086e-07
1.00986e-07
1.00988e-07
9.95942e-08
9.95855e-08
9.95936e-08
9.94805e-08
9.9478e-08
9.9484e-08
9.948e-08
9.96192e-08
9.95889e-08
9.95936e-08
9.94757e-08
9.92958e-08
9.9298e-08
9.9298e-08
9.92958e-08
9.94985e-08
9.94948e-08
9.94805e-08
9.92958e-08
9.9301e-08
9.93027e-08
9.93027e-08
9.9301e-08
9.92958e-08
9.9536e-08
9.96165e-08
9.95942e-08
9.9478e-08
9.9298e-08
9.93027e-08
9.93052e-08
9.93052e-08
9.93027e-08
9.9298e-08
9.95373e-08
9.96145e-08
9.95856e-08
9.9484e-08
9.92979e-08
9.93027e-08
9.93052e-08
9.93052e-08
9.93027e-08
9.9298e-08
9.95357e-08
9.94991e-08
9.948e-08
9.92958e-08
9.9301e-08
9.93027e-08
9.93027e-08
9.9301e-08
9.92958e-08
9.95389e-08
9.96199e-08
9.96192e-08
9.94985e-08
9.92958e-08
9.9298e-08
9.9298e-08
9.92958e-08
9.95235e-08
9.95173e-08
9.96215e-08
9.95889e-08
9.94948e-08
9.9536e-08
9.95373e-08
9.95357e-08
9.95389e-08
9.95174e-08
9.96268e-08
9.96165e-08
9.96145e-08
9.94991e-08
9.96198e-08
9.96215e-08
9.82964e-08
9.8288e-08
9.82956e-08
9.81863e-08
9.81834e-08
9.81888e-08
9.81853e-08
9.83199e-08
9.82915e-08
9.82957e-08
9.81812e-08
9.80093e-08
9.80109e-08
9.80109e-08
9.80093e-08
9.82035e-08
9.82006e-08
9.81863e-08
9.80093e-08
9.80132e-08
9.80142e-08
9.80142e-08
9.80132e-08
9.80093e-08
9.82403e-08
9.83183e-08
9.82965e-08
9.81834e-08
9.80109e-08
9.80142e-08
9.80159e-08
9.80159e-08
9.80142e-08
9.80109e-08
9.82411e-08
9.83164e-08
9.8288e-08
9.81888e-08
9.80109e-08
9.80142e-08
9.80159e-08
9.80159e-08
9.80142e-08
9.80109e-08
9.82394e-08
9.82046e-08
9.81853e-08
9.80093e-08
9.80132e-08
9.80142e-08
9.80142e-08
9.80132e-08
9.80093e-08
9.82424e-08
9.83213e-08
9.83199e-08
9.82035e-08
9.80093e-08
9.80109e-08
9.80109e-08
9.80093e-08
9.82276e-08
9.8222e-08
9.83224e-08
9.82915e-08
9.82006e-08
9.82403e-08
9.82411e-08
9.82394e-08
9.82424e-08
9.8222e-08
9.8328e-08
9.83183e-08
9.83164e-08
9.82046e-08
9.83213e-08
9.83224e-08
9.70501e-08
9.70418e-08
9.70491e-08
9.69427e-08
9.69395e-08
9.69443e-08
9.69413e-08
9.70723e-08
9.70453e-08
9.70491e-08
9.69371e-08
9.67718e-08
9.6773e-08
9.6773e-08
9.67718e-08
9.69591e-08
9.69568e-08
9.69427e-08
9.67718e-08
9.67749e-08
9.67755e-08
9.67755e-08
9.67749e-08
9.67718e-08
9.69953e-08
9.70716e-08
9.70501e-08
9.69395e-08
9.6773e-08
9.67755e-08
9.67766e-08
9.67766e-08
9.67755e-08
9.6773e-08
9.69958e-08
9.70697e-08
9.70418e-08
9.69443e-08
9.6773e-08
9.67755e-08
9.67766e-08
9.67766e-08
9.67755e-08
9.6773e-08
9.6994e-08
9.69607e-08
9.69413e-08
9.67718e-08
9.67749e-08
9.67755e-08
9.67755e-08
9.67749e-08
9.67718e-08
9.69968e-08
9.70742e-08
9.70723e-08
9.69591e-08
9.67718e-08
9.6773e-08
9.6773e-08
9.67718e-08
9.69824e-08
9.69773e-08
9.70751e-08
9.70453e-08
9.69568e-08
9.69953e-08
9.69958e-08
9.69941e-08
9.69968e-08
9.69773e-08
9.70808e-08
9.70716e-08
9.70697e-08
9.69607e-08
9.70743e-08
9.70751e-08
9.58467e-08
9.58385e-08
9.58456e-08
9.57414e-08
9.57379e-08
9.57424e-08
9.57396e-08
9.5868e-08
9.58422e-08
9.58456e-08
9.57356e-08
9.55759e-08
9.55768e-08
9.55768e-08
9.55759e-08
9.57572e-08
9.57555e-08
9.57414e-08
9.55759e-08
9.55786e-08
9.55788e-08
9.55788e-08
9.55786e-08
9.55759e-08
9.57933e-08
9.58679e-08
9.58467e-08
9.57379e-08
9.55768e-08
9.55788e-08
9.55795e-08
9.55795e-08
9.55788e-08
9.55768e-08
9.57933e-08
9.5866e-08
9.58385e-08
9.57424e-08
9.55768e-08
9.55788e-08
9.55795e-08
9.55795e-08
9.55788e-08
9.55768e-08
9.57916e-08
9.57592e-08
9.57396e-08
9.55759e-08
9.55786e-08
9.55788e-08
9.55788e-08
9.55786e-08
9.55759e-08
9.57941e-08
9.58703e-08
9.5868e-08
9.57572e-08
9.55759e-08
9.55768e-08
9.55768e-08
9.55759e-08
9.578e-08
9.57751e-08
9.58709e-08
9.58422e-08
9.57555e-08
9.57933e-08
9.57933e-08
9.57916e-08
9.57941e-08
9.57752e-08
9.58769e-08
9.58679e-08
9.5866e-08
9.57592e-08
9.58703e-08
9.58709e-08
9.46789e-08
9.46706e-08
9.46777e-08
9.45752e-08
9.45715e-08
9.45756e-08
9.45731e-08
9.46994e-08
9.46747e-08
9.46777e-08
9.45691e-08
9.44141e-08
9.44148e-08
9.44148e-08
9.44141e-08
9.45907e-08
9.45893e-08
9.45753e-08
9.44141e-08
9.44166e-08
9.44165e-08
9.44165e-08
9.44166e-08
9.44141e-08
9.46267e-08
9.46999e-08
9.46789e-08
9.45715e-08
9.44148e-08
9.44165e-08
9.44168e-08
9.44168e-08
9.44165e-08
9.44148e-08
9.46265e-08
9.4698e-08
9.46706e-08
9.45756e-08
9.44148e-08
9.44165e-08
9.44168e-08
9.44168e-08
9.44165e-08
9.44148e-08
9.46247e-08
9.45929e-08
9.45731e-08
9.44141e-08
9.44166e-08
9.44165e-08
9.44165e-08
9.44166e-08
9.44141e-08
9.46269e-08
9.47021e-08
9.46994e-08
9.45907e-08
9.44141e-08
9.44148e-08
9.44148e-08
9.44141e-08
9.46133e-08
9.46083e-08
9.47024e-08
9.46746e-08
9.45893e-08
9.46267e-08
9.46265e-08
9.46247e-08
9.46269e-08
9.46083e-08
9.47087e-08
9.46999e-08
9.4698e-08
9.45929e-08
9.47021e-08
9.47024e-08
9.35372e-08
9.35289e-08
9.3536e-08
9.34347e-08
9.34308e-08
9.34346e-08
9.34323e-08
9.35573e-08
9.35332e-08
9.3536e-08
9.34284e-08
9.32768e-08
9.32774e-08
9.32774e-08
9.32768e-08
9.34501e-08
9.34488e-08
9.34347e-08
9.32768e-08
9.32793e-08
9.32788e-08
9.32788e-08
9.32793e-08
9.32768e-08
9.34862e-08
9.35581e-08
9.35372e-08
9.34308e-08
9.32774e-08
9.32788e-08
9.32788e-08
9.32788e-08
9.32788e-08
9.32774e-08
9.34858e-08
9.35562e-08
9.35289e-08
9.34346e-08
9.32774e-08
9.32788e-08
9.32788e-08
9.32788e-08
9.32788e-08
9.32774e-08
9.34839e-08
9.34522e-08
9.34323e-08
9.32767e-08
9.32792e-08
9.32787e-08
9.32787e-08
9.32792e-08
9.32767e-08
9.34859e-08
9.35602e-08
9.35573e-08
9.34501e-08
9.32767e-08
9.32773e-08
9.32773e-08
9.32767e-08
9.34725e-08
9.34674e-08
9.35604e-08
9.35332e-08
9.34487e-08
9.34861e-08
9.34858e-08
9.34839e-08
9.34859e-08
9.34674e-08
9.35669e-08
9.35581e-08
9.35562e-08
9.34522e-08
9.35601e-08
9.35603e-08
9.24121e-08
9.24038e-08
9.2411e-08
9.23103e-08
9.23062e-08
9.23099e-08
9.23078e-08
9.24321e-08
9.24082e-08
9.24107e-08
9.23039e-08
9.21542e-08
9.21547e-08
9.21547e-08
9.21542e-08
9.23257e-08
9.23237e-08
9.23101e-08
9.21541e-08
9.21567e-08
9.2156e-08
9.2156e-08
9.21567e-08
9.21541e-08
9.23617e-08
9.24328e-08
9.2412e-08
9.23061e-08
9.21547e-08
9.21559e-08
9.21557e-08
9.21557e-08
9.21559e-08
9.21547e-08
9.23613e-08
9.2431e-08
9.24037e-08
9.23099e-08
9.21547e-08
9.21559e-08
9.21557e-08
9.21557e-08
9.21559e-08
9.21547e-08
9.23594e-08
9.23277e-08
9.23077e-08
9.21541e-08
9.21567e-08
9.21559e-08
9.21559e-08
9.21567e-08
9.21542e-08
9.23612e-08
9.24349e-08
9.2432e-08
9.23256e-08
9.21541e-08
9.21546e-08
9.21546e-08
9.21541e-08
9.2348e-08
9.2343e-08
9.2435e-08
9.24082e-08
9.23236e-08
9.23616e-08
9.23612e-08
9.23593e-08
9.2361e-08
9.23424e-08
9.24416e-08
9.24328e-08
9.24309e-08
9.23276e-08
9.24347e-08
9.24348e-08
9.12957e-08
9.12874e-08
9.12946e-08
9.11943e-08
9.11902e-08
9.11938e-08
9.11916e-08
9.13156e-08
9.12919e-08
9.12943e-08
9.11878e-08
9.10391e-08
9.10396e-08
9.10396e-08
9.10391e-08
9.12096e-08
9.12077e-08
9.11941e-08
9.10391e-08
9.10418e-08
9.10408e-08
9.10408e-08
9.10418e-08
9.10391e-08
9.12458e-08
9.13165e-08
9.12956e-08
9.119e-08
9.10395e-08
9.10408e-08
9.10404e-08
9.10404e-08
9.10408e-08
9.10396e-08
9.12454e-08
9.13146e-08
9.12873e-08
9.11937e-08
9.10396e-08
9.10408e-08
9.10404e-08
9.10404e-08
9.10408e-08
9.10396e-08
9.12434e-08
9.12117e-08
9.11916e-08
9.10391e-08
9.10417e-08
9.10407e-08
9.10407e-08
9.10417e-08
9.10391e-08
9.12452e-08
9.13185e-08
9.13155e-08
9.12096e-08
9.1039e-08
9.10395e-08
9.10395e-08
9.1039e-08
9.1232e-08
9.12268e-08
9.13186e-08
9.12918e-08
9.12077e-08
9.12457e-08
9.12453e-08
9.12433e-08
9.1245e-08
9.12263e-08
9.13252e-08
9.13164e-08
9.13145e-08
9.12115e-08
9.13183e-08
9.13183e-08
9.01834e-08
9.01751e-08
9.01823e-08
9.00821e-08
9.0078e-08
9.00816e-08
9.00794e-08
9.0203e-08
9.01794e-08
9.0182e-08
9.00756e-08
8.99274e-08
8.99278e-08
8.99278e-08
8.99274e-08
9.00973e-08
9.00967e-08
9.00819e-08
8.99273e-08
8.99302e-08
8.9929e-08
8.9929e-08
8.99302e-08
8.99274e-08
9.0134e-08
9.02044e-08
9.01833e-08
9.00779e-08
8.99278e-08
8.9929e-08
8.99285e-08
8.99285e-08
8.9929e-08
8.99278e-08
9.01334e-08
9.02024e-08
9.0175e-08
9.00815e-08
8.99278e-08
8.9929e-08
8.99285e-08
8.99285e-08
8.9929e-08
8.99278e-08
9.01313e-08
9.00995e-08
9.00794e-08
8.99273e-08
8.99301e-08
8.9929e-08
8.9929e-08
8.99301e-08
8.99273e-08
9.0133e-08
9.02062e-08
9.02031e-08
9.00974e-08
8.99273e-08
8.99277e-08
8.99277e-08
8.99273e-08
9.01198e-08
9.01147e-08
9.02063e-08
9.01795e-08
9.00955e-08
9.01337e-08
9.01332e-08
9.01312e-08
9.01328e-08
9.01142e-08
9.02129e-08
9.02041e-08
9.02022e-08
9.00994e-08
9.0206e-08
9.0206e-08
8.90728e-08
8.90645e-08
8.90716e-08
8.89716e-08
8.89674e-08
8.8971e-08
8.89689e-08
8.90925e-08
8.9069e-08
8.90713e-08
8.8965e-08
8.88169e-08
8.88174e-08
8.88174e-08
8.88169e-08
8.89869e-08
8.8985e-08
8.89714e-08
8.88169e-08
8.88199e-08
8.88186e-08
8.88186e-08
8.88199e-08
8.88169e-08
8.90232e-08
8.90936e-08
8.90726e-08
8.89673e-08
8.88173e-08
8.88186e-08
8.8818e-08
8.8818e-08
8.88186e-08
8.88173e-08
8.90228e-08
8.90917e-08
8.90644e-08
8.89709e-08
8.88173e-08
8.88186e-08
8.8818e-08
8.8818e-08
8.88186e-08
8.88173e-08
8.90207e-08
8.89889e-08
8.89688e-08
8.88169e-08
8.88198e-08
8.88186e-08
8.88186e-08
8.88198e-08
8.88169e-08
8.90224e-08
8.90955e-08
8.90925e-08
8.89868e-08
8.88168e-08
8.88173e-08
8.88173e-08
8.88168e-08
8.90092e-08
8.90041e-08
8.90956e-08
8.90689e-08
8.8985e-08
8.90231e-08
8.90227e-08
8.90206e-08
8.90223e-08
8.90036e-08
8.91023e-08
8.90935e-08
8.90916e-08
8.89888e-08
8.90954e-08
8.90954e-08
8.79627e-08
8.79544e-08
8.79616e-08
8.78615e-08
8.78574e-08
8.7861e-08
8.78588e-08
8.79825e-08
8.79589e-08
8.79613e-08
8.7855e-08
8.7707e-08
8.77074e-08
8.77074e-08
8.7707e-08
8.78769e-08
8.7875e-08
8.78613e-08
8.77069e-08
8.77098e-08
8.77087e-08
8.77087e-08
8.77098e-08
8.7707e-08
8.79132e-08
8.79835e-08
8.79626e-08
8.78572e-08
8.77074e-08
8.77086e-08
8.7708e-08
8.7708e-08
8.77087e-08
8.77074e-08
8.79128e-08
8.79817e-08
8.79543e-08
8.78609e-08
8.77074e-08
8.77086e-08
8.7708e-08
8.7708e-08
8.77087e-08
8.77074e-08
8.79107e-08
8.78789e-08
8.78587e-08
8.7707e-08
8.77098e-08
8.77086e-08
8.77086e-08
8.77098e-08
8.7707e-08
8.79124e-08
8.79855e-08
8.79824e-08
8.78768e-08
8.77069e-08
8.77073e-08
8.77074e-08
8.77069e-08
8.78992e-08
8.78941e-08
8.79855e-08
8.79589e-08
8.7875e-08
8.79131e-08
8.79127e-08
8.79107e-08
8.79123e-08
8.78936e-08
8.79922e-08
8.79835e-08
8.79816e-08
8.78788e-08
8.79853e-08
8.79853e-08
8.68529e-08
8.68446e-08
8.68517e-08
8.67517e-08
8.67475e-08
8.67511e-08
8.67489e-08
8.68724e-08
8.68489e-08
8.68514e-08
8.67452e-08
8.65972e-08
8.65976e-08
8.65976e-08
8.65972e-08
8.67669e-08
8.67663e-08
8.67515e-08
8.65971e-08
8.66e-08
8.65989e-08
8.65989e-08
8.66e-08
8.65972e-08
8.68036e-08
8.68739e-08
8.68527e-08
8.67474e-08
8.65975e-08
8.65988e-08
8.65982e-08
8.65982e-08
8.65989e-08
8.65976e-08
8.6803e-08
8.68719e-08
8.68444e-08
8.6751e-08
8.65975e-08
8.65988e-08
8.65982e-08
8.65982e-08
8.65989e-08
8.65976e-08
8.68009e-08
8.67691e-08
8.67488e-08
8.65971e-08
8.66e-08
8.65989e-08
8.65989e-08
8.66e-08
8.65972e-08
8.68025e-08
8.68756e-08
8.68724e-08
8.67669e-08
8.65972e-08
8.65976e-08
8.65976e-08
8.65972e-08
8.67895e-08
8.67838e-08
8.68756e-08
8.68489e-08
8.67662e-08
8.68036e-08
8.6803e-08
8.6801e-08
8.68026e-08
8.67843e-08
8.68825e-08
8.68738e-08
8.68719e-08
8.67691e-08
8.68757e-08
8.68757e-08
8.57431e-08
8.57348e-08
8.5742e-08
8.56419e-08
8.56378e-08
8.56413e-08
8.56391e-08
8.57627e-08
8.57392e-08
8.57417e-08
8.56354e-08
8.54875e-08
8.54879e-08
8.54879e-08
8.54875e-08
8.56572e-08
8.56565e-08
8.56417e-08
8.54874e-08
8.54902e-08
8.54891e-08
8.54891e-08
8.54903e-08
8.54875e-08
8.56939e-08
8.57641e-08
8.5743e-08
8.56376e-08
8.54878e-08
8.54891e-08
8.54885e-08
8.54885e-08
8.54892e-08
8.54879e-08
8.56933e-08
8.57622e-08
8.57347e-08
8.56412e-08
8.54878e-08
8.54891e-08
8.54885e-08
8.54885e-08
8.54892e-08
8.54879e-08
8.56913e-08
8.56594e-08
8.56391e-08
8.54874e-08
8.54902e-08
8.54891e-08
8.54891e-08
8.54903e-08
8.54875e-08
8.56929e-08
8.5766e-08
8.57626e-08
8.56571e-08
8.54874e-08
8.54878e-08
8.54878e-08
8.54874e-08
8.56797e-08
8.56745e-08
8.5766e-08
8.57391e-08
8.56565e-08
8.56938e-08
8.56932e-08
8.56912e-08
8.56928e-08
8.56741e-08
8.57727e-08
8.57641e-08
8.57621e-08
8.56593e-08
8.57658e-08
8.57658e-08
8.46334e-08
8.46251e-08
8.46323e-08
8.45322e-08
8.45281e-08
8.45316e-08
8.45294e-08
8.4653e-08
8.46295e-08
8.4632e-08
8.45257e-08
8.43778e-08
8.43782e-08
8.43782e-08
8.43778e-08
8.45475e-08
8.45468e-08
8.4532e-08
8.43777e-08
8.43805e-08
8.43794e-08
8.43794e-08
8.43805e-08
8.43778e-08
8.45842e-08
8.46544e-08
8.46333e-08
8.4528e-08
8.43781e-08
8.43794e-08
8.43788e-08
8.43788e-08
8.43794e-08
8.43782e-08
8.45836e-08
8.46525e-08
8.4625e-08
8.45316e-08
8.43781e-08
8.43794e-08
8.43788e-08
8.43788e-08
8.43794e-08
8.43782e-08
8.45815e-08
8.45497e-08
8.45295e-08
8.43777e-08
8.43805e-08
8.43794e-08
8.43794e-08
8.43805e-08
8.43778e-08
8.45832e-08
8.46562e-08
8.46531e-08
8.45475e-08
8.43777e-08
8.43781e-08
8.43781e-08
8.43777e-08
8.457e-08
8.45648e-08
8.46563e-08
8.46296e-08
8.45457e-08
8.45839e-08
8.45834e-08
8.45814e-08
8.4583e-08
8.45644e-08
8.4663e-08
8.46542e-08
8.46523e-08
8.45496e-08
8.46561e-08
8.46561e-08
8.35237e-08
8.35154e-08
8.35226e-08
8.34226e-08
8.34184e-08
8.3422e-08
8.34198e-08
8.35435e-08
8.352e-08
8.35223e-08
8.3416e-08
8.32681e-08
8.32685e-08
8.32685e-08
8.32681e-08
8.34379e-08
8.34361e-08
8.34224e-08
8.3268e-08
8.32708e-08
8.32697e-08
8.32697e-08
8.32708e-08
8.3268e-08
8.34742e-08
8.35446e-08
8.35236e-08
8.34183e-08
8.32684e-08
8.32697e-08
8.32691e-08
8.32691e-08
8.32697e-08
8.32684e-08
8.34738e-08
8.35427e-08
8.35153e-08
8.34219e-08
8.32684e-08
8.32697e-08
8.32691e-08
8.32691e-08
8.32697e-08
8.32684e-08
8.34718e-08
8.344e-08
8.34198e-08
8.3268e-08
8.32708e-08
8.32697e-08
8.32697e-08
8.32708e-08
8.32681e-08
8.34735e-08
8.35465e-08
8.35434e-08
8.34378e-08
8.3268e-08
8.32684e-08
8.32684e-08
8.3268e-08
8.34603e-08
8.34551e-08
8.35466e-08
8.35199e-08
8.3436e-08
8.34741e-08
8.34737e-08
8.34717e-08
8.34733e-08
8.34546e-08
8.35533e-08
8.35445e-08
8.35426e-08
8.34398e-08
8.35463e-08
8.35463e-08
8.2414e-08
8.24057e-08
8.24129e-08
8.23128e-08
8.23086e-08
8.23122e-08
8.231e-08
8.24336e-08
8.24101e-08
8.24126e-08
8.23063e-08
8.21583e-08
8.21587e-08
8.21587e-08
8.21583e-08
8.2328e-08
8.23274e-08
8.23126e-08
8.21583e-08
8.21611e-08
8.216e-08
8.216e-08
8.21611e-08
8.21584e-08
8.23647e-08
8.2435e-08
8.24139e-08
8.23085e-08
8.21587e-08
8.216e-08
8.21594e-08
8.21594e-08
8.216e-08
8.21588e-08
8.23642e-08
8.24331e-08
8.24056e-08
8.23122e-08
8.21587e-08
8.216e-08
8.21593e-08
8.21594e-08
8.216e-08
8.21587e-08
8.23621e-08
8.23303e-08
8.23101e-08
8.21583e-08
8.21611e-08
8.216e-08
8.216e-08
8.21611e-08
8.21583e-08
8.23638e-08
8.24368e-08
8.24337e-08
8.23281e-08
8.21582e-08
8.21587e-08
8.21587e-08
8.21583e-08
8.23505e-08
8.23454e-08
8.24369e-08
8.24102e-08
8.23263e-08
8.23644e-08
8.2364e-08
8.23619e-08
8.23636e-08
8.23449e-08
8.24435e-08
8.24347e-08
8.24329e-08
8.23301e-08
8.24366e-08
8.24366e-08
8.13043e-08
8.12959e-08
8.13031e-08
8.12031e-08
8.11989e-08
8.12025e-08
8.12003e-08
8.13238e-08
8.13003e-08
8.13029e-08
8.11966e-08
8.10486e-08
8.1049e-08
8.1049e-08
8.10486e-08
8.12183e-08
8.12177e-08
8.12029e-08
8.10486e-08
8.10514e-08
8.10503e-08
8.10503e-08
8.10514e-08
8.10486e-08
8.1255e-08
8.13253e-08
8.13042e-08
8.11988e-08
8.1049e-08
8.10503e-08
8.10496e-08
8.10496e-08
8.10503e-08
8.1049e-08
8.12544e-08
8.13233e-08
8.12959e-08
8.12025e-08
8.1049e-08
8.10503e-08
8.10496e-08
8.10496e-08
8.10503e-08
8.1049e-08
8.12524e-08
8.12206e-08
8.12003e-08
8.10486e-08
8.10513e-08
8.10502e-08
8.10503e-08
8.10514e-08
8.10486e-08
8.1254e-08
8.13271e-08
8.1324e-08
8.12184e-08
8.10485e-08
8.10489e-08
8.10489e-08
8.10486e-08
8.12408e-08
8.12357e-08
8.13272e-08
8.13004e-08
8.12165e-08
8.12547e-08
8.12543e-08
8.12522e-08
8.12538e-08
8.12352e-08
8.13338e-08
8.1325e-08
8.13231e-08
8.12204e-08
8.13269e-08
8.13269e-08
8.01945e-08
8.01862e-08
8.01934e-08
8.00934e-08
8.00892e-08
8.00927e-08
8.00905e-08
8.02141e-08
8.01906e-08
8.01932e-08
8.00869e-08
7.99389e-08
7.99393e-08
7.99393e-08
7.99389e-08
8.01086e-08
8.0108e-08
8.00932e-08
7.99389e-08
7.99417e-08
7.99406e-08
7.99406e-08
7.99417e-08
7.99389e-08
8.01453e-08
8.02156e-08
8.01945e-08
8.00891e-08
7.99393e-08
7.99406e-08
7.99399e-08
7.99399e-08
7.99406e-08
7.99393e-08
8.01447e-08
8.02136e-08
8.01862e-08
8.00928e-08
7.99393e-08
7.99406e-08
7.99399e-08
7.99399e-08
7.99406e-08
7.99393e-08
8.01427e-08
8.01109e-08
8.00906e-08
7.99389e-08
7.99416e-08
7.99405e-08
7.99405e-08
7.99417e-08
7.99389e-08
8.01443e-08
8.02174e-08
8.02143e-08
8.01087e-08
7.99388e-08
7.99392e-08
7.99392e-08
7.99388e-08
8.01311e-08
8.0126e-08
8.02174e-08
8.01907e-08
8.01068e-08
8.0145e-08
8.01446e-08
8.01425e-08
8.01441e-08
8.01255e-08
8.02241e-08
8.02153e-08
8.02134e-08
8.01107e-08
8.02172e-08
8.02172e-08
7.90847e-08
7.90764e-08
7.90834e-08
7.89835e-08
7.89794e-08
7.8983e-08
7.89808e-08
7.91044e-08
7.90809e-08
7.90837e-08
7.89772e-08
7.88291e-08
7.88295e-08
7.88296e-08
7.88292e-08
7.89989e-08
7.89983e-08
7.89837e-08
7.88292e-08
7.88319e-08
7.88308e-08
7.88309e-08
7.8832e-08
7.88292e-08
7.90356e-08
7.91059e-08
7.90848e-08
7.89795e-08
7.88296e-08
7.88309e-08
7.88302e-08
7.88302e-08
7.88309e-08
7.88296e-08
7.9035e-08
7.91039e-08
7.90765e-08
7.89831e-08
7.88296e-08
7.88309e-08
7.88302e-08
7.88302e-08
7.88309e-08
7.88296e-08
7.9033e-08
7.90011e-08
7.89809e-08
7.88292e-08
7.88319e-08
7.88308e-08
7.88308e-08
7.8832e-08
7.88292e-08
7.90346e-08
7.91077e-08
7.91046e-08
7.8999e-08
7.88291e-08
7.88295e-08
7.88295e-08
7.88292e-08
7.90214e-08
7.90163e-08
7.91077e-08
7.9081e-08
7.89971e-08
7.90353e-08
7.90349e-08
7.90328e-08
7.90345e-08
7.90158e-08
7.91144e-08
7.91056e-08
7.91037e-08
7.9001e-08
7.91075e-08
7.91075e-08
7.79751e-08
7.79668e-08
7.7974e-08
7.78739e-08
7.78698e-08
7.78733e-08
7.78711e-08
7.79947e-08
7.79712e-08
7.79737e-08
7.78674e-08
7.77195e-08
7.77199e-08
7.77199e-08
7.77195e-08
7.78892e-08
7.78886e-08
7.78738e-08
7.77194e-08
7.77222e-08
7.77212e-08
7.77212e-08
7.77223e-08
7.77195e-08
7.79259e-08
7.79962e-08
7.7975e-08
7.78697e-08
7.77198e-08
7.77211e-08
7.77205e-08
7.77205e-08
7.77212e-08
7.77199e-08
7.79253e-08
7.79942e-08
7.79667e-08
7.78733e-08
7.77198e-08
7.77211e-08
7.77205e-08
7.77205e-08
7.77212e-08
7.77199e-08
7.79233e-08
7.78914e-08
7.78711e-08
7.77194e-08
7.77223e-08
7.77212e-08
7.77212e-08
7.77223e-08
7.77195e-08
7.79249e-08
7.7998e-08
7.79946e-08
7.78892e-08
7.77195e-08
7.77199e-08
7.77199e-08
7.77195e-08
7.79117e-08
7.79066e-08
7.7998e-08
7.79711e-08
7.78885e-08
7.79258e-08
7.79253e-08
7.79232e-08
7.79248e-08
7.79061e-08
7.80047e-08
7.79961e-08
7.79941e-08
7.78914e-08
7.79979e-08
7.79978e-08
7.68655e-08
7.68571e-08
7.68643e-08
7.67643e-08
7.67601e-08
7.67637e-08
7.67615e-08
7.6885e-08
7.68615e-08
7.6864e-08
7.67578e-08
7.66098e-08
7.66102e-08
7.66102e-08
7.66098e-08
7.67795e-08
7.67789e-08
7.67641e-08
7.66098e-08
7.66126e-08
7.66115e-08
7.66115e-08
7.66126e-08
7.66098e-08
7.68162e-08
7.68864e-08
7.68653e-08
7.676e-08
7.66102e-08
7.66115e-08
7.66108e-08
7.66108e-08
7.66115e-08
7.66102e-08
7.68156e-08
7.68845e-08
7.6857e-08
7.67636e-08
7.66102e-08
7.66115e-08
7.66108e-08
7.66108e-08
7.66115e-08
7.66102e-08
7.68135e-08
7.67817e-08
7.67614e-08
7.66098e-08
7.66126e-08
7.66115e-08
7.66115e-08
7.66126e-08
7.66098e-08
7.68151e-08
7.68882e-08
7.6885e-08
7.67795e-08
7.66098e-08
7.66102e-08
7.66102e-08
7.66098e-08
7.68021e-08
7.67964e-08
7.68882e-08
7.68615e-08
7.67788e-08
7.68162e-08
7.68156e-08
7.68136e-08
7.68152e-08
7.67969e-08
7.68951e-08
7.68864e-08
7.68845e-08
7.67817e-08
7.68883e-08
7.68883e-08
7.57558e-08
7.57475e-08
7.57547e-08
7.56547e-08
7.56505e-08
7.56541e-08
7.56519e-08
7.57756e-08
7.5752e-08
7.57544e-08
7.56481e-08
7.55002e-08
7.55006e-08
7.55006e-08
7.55002e-08
7.567e-08
7.56681e-08
7.56544e-08
7.55001e-08
7.55029e-08
7.55018e-08
7.55018e-08
7.55029e-08
7.55001e-08
7.57063e-08
7.57766e-08
7.57557e-08
7.56504e-08
7.55005e-08
7.55018e-08
7.55012e-08
7.55012e-08
7.55018e-08
7.55005e-08
7.57058e-08
7.57747e-08
7.57474e-08
7.5654e-08
7.55005e-08
7.55018e-08
7.55012e-08
7.55012e-08
7.55018e-08
7.55005e-08
7.57038e-08
7.5672e-08
7.56519e-08
7.55001e-08
7.55029e-08
7.55018e-08
7.55018e-08
7.55029e-08
7.55001e-08
7.57054e-08
7.57785e-08
7.57755e-08
7.56699e-08
7.55001e-08
7.55005e-08
7.55005e-08
7.55001e-08
7.56924e-08
7.56867e-08
7.57784e-08
7.5752e-08
7.56681e-08
7.57063e-08
7.57059e-08
7.57038e-08
7.57055e-08
7.56872e-08
7.57854e-08
7.57766e-08
7.57747e-08
7.5672e-08
7.57786e-08
7.57786e-08
7.46462e-08
7.46379e-08
7.4645e-08
7.4545e-08
7.45408e-08
7.45444e-08
7.45423e-08
7.46659e-08
7.46424e-08
7.46447e-08
7.45385e-08
7.43905e-08
7.43909e-08
7.43909e-08
7.43905e-08
7.45603e-08
7.45585e-08
7.45448e-08
7.43905e-08
7.43933e-08
7.43922e-08
7.43922e-08
7.43933e-08
7.43905e-08
7.45966e-08
7.46669e-08
7.4646e-08
7.45407e-08
7.43909e-08
7.43921e-08
7.43915e-08
7.43915e-08
7.43921e-08
7.43909e-08
7.45962e-08
7.46651e-08
7.46378e-08
7.45443e-08
7.43909e-08
7.43921e-08
7.43915e-08
7.43915e-08
7.43921e-08
7.43909e-08
7.45942e-08
7.45623e-08
7.45422e-08
7.43905e-08
7.43932e-08
7.43921e-08
7.43921e-08
7.43932e-08
7.43905e-08
7.45959e-08
7.46689e-08
7.46659e-08
7.45603e-08
7.43904e-08
7.43908e-08
7.43908e-08
7.43904e-08
7.45827e-08
7.45775e-08
7.4669e-08
7.46423e-08
7.45584e-08
7.45966e-08
7.45961e-08
7.45941e-08
7.45957e-08
7.45771e-08
7.46757e-08
7.46669e-08
7.4665e-08
7.45623e-08
7.46688e-08
7.46688e-08
7.35364e-08
7.35281e-08
7.35353e-08
7.34353e-08
7.34311e-08
7.34347e-08
7.34325e-08
7.3556e-08
7.35325e-08
7.35351e-08
7.34288e-08
7.32808e-08
7.32812e-08
7.32812e-08
7.32808e-08
7.34505e-08
7.34499e-08
7.34351e-08
7.32808e-08
7.32836e-08
7.32825e-08
7.32825e-08
7.32836e-08
7.32808e-08
7.34872e-08
7.35574e-08
7.35364e-08
7.3431e-08
7.32812e-08
7.32825e-08
7.32818e-08
7.32818e-08
7.32825e-08
7.32812e-08
7.34866e-08
7.35555e-08
7.35281e-08
7.34347e-08
7.32812e-08
7.32825e-08
7.32818e-08
7.32818e-08
7.32825e-08
7.32812e-08
7.34846e-08
7.34527e-08
7.34325e-08
7.32808e-08
7.32836e-08
7.32825e-08
7.32825e-08
7.32836e-08
7.32808e-08
7.34862e-08
7.35593e-08
7.35562e-08
7.34506e-08
7.32808e-08
7.32812e-08
7.32812e-08
7.32808e-08
7.3473e-08
7.34678e-08
7.35593e-08
7.35327e-08
7.34488e-08
7.3487e-08
7.34865e-08
7.34845e-08
7.34861e-08
7.34674e-08
7.3566e-08
7.35572e-08
7.35554e-08
7.34526e-08
7.35591e-08
7.35591e-08
7.24267e-08
7.24184e-08
7.24254e-08
7.23254e-08
7.23213e-08
7.23249e-08
7.23228e-08
7.24463e-08
7.24228e-08
7.24256e-08
7.23191e-08
7.21711e-08
7.21715e-08
7.21715e-08
7.21711e-08
7.23408e-08
7.23402e-08
7.23256e-08
7.21711e-08
7.21739e-08
7.21728e-08
7.21728e-08
7.21739e-08
7.21712e-08
7.23775e-08
7.24478e-08
7.24268e-08
7.23214e-08
7.21715e-08
7.21728e-08
7.21722e-08
7.21722e-08
7.21728e-08
7.21715e-08
7.23769e-08
7.24458e-08
7.24184e-08
7.2325e-08
7.21715e-08
7.21728e-08
7.21722e-08
7.21722e-08
7.21728e-08
7.21715e-08
7.23749e-08
7.2343e-08
7.23228e-08
7.21711e-08
7.21739e-08
7.21728e-08
7.21728e-08
7.21739e-08
7.21711e-08
7.23765e-08
7.24495e-08
7.24463e-08
7.23408e-08
7.21712e-08
7.21716e-08
7.21716e-08
7.21712e-08
7.23634e-08
7.23578e-08
7.24495e-08
7.24228e-08
7.23402e-08
7.23775e-08
7.2377e-08
7.23749e-08
7.23766e-08
7.23582e-08
7.24564e-08
7.24478e-08
7.24458e-08
7.23431e-08
7.24496e-08
7.24497e-08
7.1317e-08
7.13087e-08
7.13157e-08
7.12158e-08
7.12117e-08
7.12153e-08
7.12131e-08
7.13366e-08
7.13131e-08
7.1316e-08
7.12094e-08
7.10614e-08
7.10618e-08
7.10618e-08
7.10615e-08
7.12312e-08
7.12305e-08
7.12159e-08
7.10615e-08
7.10642e-08
7.10631e-08
7.10631e-08
7.10643e-08
7.10615e-08
7.12678e-08
7.13381e-08
7.13171e-08
7.12118e-08
7.10619e-08
7.10631e-08
7.10625e-08
7.10625e-08
7.10632e-08
7.10619e-08
7.12673e-08
7.13361e-08
7.13088e-08
7.12153e-08
7.10619e-08
7.10632e-08
7.10625e-08
7.10625e-08
7.10632e-08
7.10619e-08
7.12652e-08
7.12334e-08
7.12131e-08
7.10615e-08
7.10643e-08
7.10632e-08
7.10632e-08
7.10643e-08
7.10615e-08
7.12668e-08
7.13398e-08
7.13367e-08
7.12312e-08
7.10615e-08
7.10619e-08
7.10619e-08
7.10615e-08
7.12537e-08
7.12481e-08
7.13398e-08
7.13132e-08
7.12305e-08
7.12679e-08
7.12673e-08
7.12652e-08
7.12669e-08
7.12486e-08
7.13467e-08
7.13381e-08
7.13362e-08
7.12334e-08
7.13399e-08
7.134e-08
7.02075e-08
7.01992e-08
7.02063e-08
7.01063e-08
7.01021e-08
7.01057e-08
7.01036e-08
7.02272e-08
7.02037e-08
7.02061e-08
7.00998e-08
6.99518e-08
6.99522e-08
6.99522e-08
6.99518e-08
7.01217e-08
7.01198e-08
7.01061e-08
6.99518e-08
6.99546e-08
6.99535e-08
6.99535e-08
6.99546e-08
6.99518e-08
7.0158e-08
7.02283e-08
7.02074e-08
7.0102e-08
6.99522e-08
6.99535e-08
6.99529e-08
6.99529e-08
6.99535e-08
6.99522e-08
7.01576e-08
7.02264e-08
7.01991e-08
7.01057e-08
6.99522e-08
6.99535e-08
6.99528e-08
6.99528e-08
6.99535e-08
6.99522e-08
7.01555e-08
7.01237e-08
7.01036e-08
6.99518e-08
6.99546e-08
6.99535e-08
6.99535e-08
6.99546e-08
6.99518e-08
7.01572e-08
7.02303e-08
7.02272e-08
7.01216e-08
6.99518e-08
6.99522e-08
6.99522e-08
6.99518e-08
7.0144e-08
7.01389e-08
7.02303e-08
7.02037e-08