/*--------------------------------*- C++ -*----------------------------------*\
| =========                 |                                                 |
| \\      /  F ield         | OpenFOAM: The Open Source CFD Toolbox           |
|  \\    /   O peration     | Version:  2312                                  |
|   \\  /    A nd           | Website:  www.openfoam.com                      |
|    \\/     M anipulation  |                                                 |
\*---------------------------------------------------------------------------*/
FoamFile
{
    version     2.0;
    format      ascii;
    arch        "LSB;label=32;scalar=64";
    class       volScalarField;
    location    "1000";
    object      epsilon;
}
// * * * * * * * * * * * * * * * * * * * * * * * * * * * * * * * * * * * * * //

dimensions      [0 2 -3 0 0 0 0];

internalField   nonuniform List<scalar> 
43496
(
4.23894e-06
1.90948e-05
1.18668e-06
3.64745e-06
2.2955e-06
9.35003e-07
4.23887e-06
9.5671e-06
2.29544e-06
1.18668e-06
9.35042e-07
3.6477e-06
1.41723e-06
5.65216e-06
5.65073e-06
1.90923e-05
9.56707e-06
1.26554e-05
4.23897e-06
4.88464e-06
1.12478e-05
4.8847e-06
1.12449e-05
1.2659e-05
2.2763e-05
7.24531e-06
7.24553e-06
2.27698e-05
1.90901e-05
1.26561e-05
4.23891e-06
1.12477e-05
4.88447e-06
1.12448e-05
4.88453e-06
1.26585e-05
2.27629e-05
7.24369e-06
9.56537e-06
7.2439e-06
2.27697e-05
9.96431e-06
2.23955e-05
2.2396e-05
2.23894e-05
2.23898e-05
9.96393e-06
4.71003e-06
9.93502e-06
5.65219e-06
2.97597e-06
9.93325e-06
2.97613e-06
4.70967e-06
4.70409e-06
9.93029e-06
5.65077e-06
2.97485e-06
2.97503e-06
9.92854e-06
4.70375e-06
1.90876e-05
9.56534e-06
4.50826e-07
6.59556e-07
4.50958e-07
3.64764e-06
2.22353e-06
2.22405e-06
1.66609e-06
2.29564e-06
2.54093e-06
1.54358e-06
2.54116e-06
1.54443e-06
1.66476e-06
1.84507e-06
3.02292e-06
3.02328e-06
1.84393e-06
1.66604e-06
2.29558e-06
1.54355e-06
2.54078e-06
1.5444e-06
2.541e-06
1.66469e-06
1.84487e-06
3.0225e-06
3.6479e-06
2.22371e-06
3.02285e-06
1.84386e-06
2.22423e-06
2.82875e-06
1.41878e-06
1.9684e-06
1.9683e-06
1.96904e-06
1.96914e-06
2.82842e-06
6.51865e-07
1.18288e-06
1.18298e-06
1.41523e-06
6.58011e-07
1.18592e-06
1.18602e-06
1.41814e-06
1.41513e-06
1.41589e-06
1.18298e-06
1.18286e-06
1.18532e-06
1.18525e-06
1.41514e-06
1.41584e-06
1.1828e-06
1.18298e-06
1.18513e-06
1.1853e-06
1.18304e-06
1.18521e-06
1.18527e-06
1.41518e-06
1.41591e-06
1.18284e-06
1.18531e-06
1.1852e-06
1.41594e-06
1.41804e-06
1.18602e-06
1.18587e-06
1.41806e-06
1.18585e-06
1.18602e-06
1.18614e-06
1.41812e-06
1.18589e-06
4.23634e-06
9.54993e-06
9.55472e-06
4.2357e-06
1.9061e-05
1.90716e-05
4.23641e-06
9.5511e-06
9.55626e-06
4.23575e-06
6.51848e-07
6.51997e-07
6.51981e-07
6.56524e-07
6.56537e-07
6.56647e-07
6.56612e-07
2.29406e-06
3.6445e-06
9.29868e-07
1.18368e-06
3.64498e-06
9.31003e-07
2.29373e-06
1.90625e-05
1.90729e-05
2.29408e-06
9.29995e-07
3.64452e-06
1.18379e-06
9.31097e-07
3.645e-06
2.29376e-06
5.64527e-06
5.64699e-06
1.41449e-06
5.64636e-06
5.6481e-06
9.56153e-06
4.2383e-06
1.90832e-05
9.56273e-06
4.23836e-06
6.57995e-07
6.5814e-07
6.58134e-07
2.29553e-06
3.64704e-06
9.34089e-07
2.29533e-06
9.35065e-07
1.90846e-05
2.29555e-06
9.34217e-07
3.64706e-06
2.29535e-06
9.35149e-07
5.64961e-06
5.65136e-06
1.41717e-06
5.65061e-06
5.65238e-06
1.90588e-05
1.90693e-05
1.9062e-05
1.90725e-05
5.64522e-06
5.64697e-06
1.41445e-06
5.64629e-06
5.64806e-06
1.90803e-05
1.90699e-05
1.90835e-05
1.90732e-05
1.41664e-06
5.64846e-06
5.65024e-06
5.64744e-06
5.64919e-06
4.23629e-06
9.55013e-06
9.5549e-06
4.23565e-06
2.29398e-06
3.64433e-06
9.2986e-07
1.1838e-06
3.6448e-06
9.30972e-07
2.2937e-06
2.29392e-06
3.64475e-06
9.2979e-07
1.18371e-06
3.64518e-06
9.30924e-07
2.29365e-06
4.23703e-06
9.56051e-06
9.55578e-06
4.23763e-06
4.23698e-06
9.56077e-06
9.55597e-06
4.23758e-06
2.29454e-06
1.18457e-06
3.64606e-06
9.33082e-07
3.64563e-06
9.32052e-07
2.29476e-06
2.29449e-06
1.18443e-06
3.64644e-06
9.33038e-07
3.64606e-06
9.31981e-07
2.29471e-06
5.64677e-06
5.6454e-06
1.41439e-06
5.64776e-06
5.6465e-06
1.906e-05
1.90705e-05
1.90826e-05
1.90722e-05
1.41666e-06
5.64994e-06
5.64867e-06
5.64899e-06
5.64762e-06
1.90816e-05
1.90712e-05
2.29403e-06
3.64486e-06
9.29839e-07
1.18361e-06
3.64536e-06
9.30947e-07
2.2937e-06
4.23635e-06
9.55092e-06
9.5557e-06
4.23568e-06
2.29397e-06
9.29882e-07
3.64479e-06
1.18378e-06
9.30988e-07
3.64528e-06
2.29365e-06
4.23708e-06
9.56206e-06
9.55697e-06
4.23771e-06
2.29454e-06
1.18439e-06
3.64662e-06
9.33057e-07
3.64617e-06
9.32034e-07
2.29481e-06
4.23702e-06
9.56149e-06
9.55678e-06
4.23765e-06
2.29448e-06
1.18457e-06
9.33097e-07
3.64653e-06
9.32076e-07
3.64609e-06
2.29475e-06
4.23652e-06
9.5505e-06
9.55566e-06
4.23593e-06
2.29402e-06
9.2992e-07
3.64443e-06
1.18377e-06
9.31014e-07
3.6449e-06
2.29369e-06
4.2364e-06
9.55063e-06
9.55541e-06
4.23573e-06
2.29457e-06
1.18447e-06
3.64624e-06
9.33113e-07
3.64581e-06
9.32062e-07
2.29484e-06
4.23726e-06
9.56144e-06
9.55636e-06
4.2378e-06
2.29454e-06
1.18466e-06
9.33121e-07
3.64617e-06
9.32118e-07
3.64574e-06
2.2948e-06
4.23707e-06
9.56119e-06
9.55648e-06
4.23769e-06
5.64677e-06
5.64539e-06
1.41447e-06
5.6479e-06
5.64645e-06
1.906e-05
1.90704e-05
1.9084e-05
1.90736e-05
1.41671e-06
5.65005e-06
5.64863e-06
5.64898e-06
5.64761e-06
1.90815e-05
1.90711e-05
2.29401e-06
9.29922e-07
3.64492e-06
1.18367e-06
9.31018e-07
3.64541e-06
2.29368e-06
4.23653e-06
9.55088e-06
9.55568e-06
4.23594e-06
4.23648e-06
9.55134e-06
9.55612e-06
4.23596e-06
2.2946e-06
1.18457e-06
9.33204e-07
3.64626e-06
9.32187e-07
3.64583e-06
2.29486e-06
2.29452e-06
1.18443e-06
9.33126e-07
3.64667e-06
9.32115e-07
3.64623e-06
2.29478e-06
4.23727e-06
9.56146e-06
9.55674e-06
4.23782e-06
4.23729e-06
9.56191e-06
9.5572e-06
4.23777e-06
1.9061e-05
1.90714e-05
1.90633e-05
1.90737e-05
1.41675e-06
5.64853e-06
5.65028e-06
5.64749e-06
5.64921e-06
1.90825e-05
1.90721e-05
1.90848e-05
1.90744e-05
1.90809e-05
1.90842e-05
5.64959e-06
5.65134e-06
9.56148e-06
4.23825e-06
3.64686e-06
9.34081e-07
2.29529e-06
3.64729e-06
9.3401e-07
2.29524e-06
5.65115e-06
5.64978e-06
1.90822e-05
3.6474e-06
9.34063e-07
2.29529e-06
9.5625e-06
4.2383e-06
9.34103e-07
3.64731e-06
2.29523e-06
4.23902e-06
9.56211e-06
4.23852e-06
2.29549e-06
9.34149e-07
3.64695e-06
1.1866e-06
2.29529e-06
9.35057e-07
3.64733e-06
4.23892e-06
9.56222e-06
4.23835e-06
9.5668e-06
5.65114e-06
5.64975e-06
1.90821e-05
2.29548e-06
9.34145e-07
3.64746e-06
1.18659e-06
2.29527e-06
9.35071e-07
3.64785e-06
4.23904e-06
9.56248e-06
4.23853e-06
4.239e-06
9.56293e-06
4.23856e-06
9.56752e-06
1.90831e-05
1.90933e-05
1.90854e-05
1.90956e-05
1.26401e-05
1.12337e-05
4.88179e-06
4.23637e-06
1.12308e-05
4.88185e-06
1.26437e-05
2.27384e-05
9.55181e-06
7.23922e-06
7.23903e-06
2.27314e-05
2.27379e-05
7.24031e-06
9.55286e-06
7.2405e-06
2.27448e-05
1.26399e-05
4.23567e-06
1.12273e-05
4.8811e-06
1.12302e-05
4.88104e-06
1.26362e-05
1.9066e-05
1.90666e-05
1.26402e-05
4.88183e-06
1.12339e-05
4.23642e-06
4.88187e-06
1.1231e-05
1.26438e-05
2.2738e-05
9.55335e-06
7.23923e-06
7.23905e-06
2.27311e-05
2.27375e-05
7.24033e-06
9.55404e-06
7.24052e-06
2.27445e-05
1.264e-05
4.23576e-06
4.88112e-06
1.12275e-05
4.88109e-06
1.12304e-05
1.26362e-05
1.90674e-05
1.90681e-05
9.95766e-06
2.2374e-05
2.23733e-05
2.23678e-05
2.23671e-05
9.95735e-06
4.70064e-06
2.97319e-06
5.64524e-06
9.9144e-06
2.97301e-06
9.9163e-06
4.70097e-06
4.70643e-06
2.97435e-06
5.647e-06
9.91884e-06
2.97419e-06
9.92138e-06
4.70672e-06
4.70168e-06
9.91927e-06
5.64639e-06
2.97343e-06
2.97361e-06
9.91731e-06
4.70134e-06
4.70744e-06
9.9243e-06
5.64811e-06
2.9746e-06
2.97477e-06
9.92181e-06
4.70713e-06
9.95554e-06
2.2362e-05
2.23613e-05
2.23682e-05
2.23675e-05
9.95584e-06
2.27638e-05
7.24428e-06
9.5634e-06
2.2757e-05
7.24406e-06
1.26552e-05
4.23826e-06
1.12412e-05
4.884e-06
1.26515e-05
1.12442e-05
4.88392e-06
1.90881e-05
2.27635e-05
7.2443e-06
9.56485e-06
2.27567e-05
7.24409e-06
1.26551e-05
4.23834e-06
4.88402e-06
1.12415e-05
1.26516e-05
4.88397e-06
1.12443e-05
1.90894e-05
9.96474e-06
2.23969e-05
2.23962e-05
2.23908e-05
2.23901e-05
9.96437e-06
4.70334e-06
2.97473e-06
9.92571e-06
5.6496e-06
4.70371e-06
2.97454e-06
9.9282e-06
4.70912e-06
2.9759e-06
9.93051e-06
5.65134e-06
4.70947e-06
2.97572e-06
9.93299e-06
9.96264e-06
2.23851e-05
2.23844e-05
9.963e-06
2.23913e-05
2.23906e-05
4.70433e-06
9.93104e-06
5.65065e-06
2.97487e-06
2.97507e-06
9.92849e-06
4.70398e-06
4.71012e-06
9.93586e-06
5.65242e-06
2.97606e-06
2.97624e-06
9.93334e-06
4.70977e-06
1.90637e-05
1.90644e-05
1.90669e-05
1.90676e-05
9.95768e-06
2.23735e-05
2.23728e-05
2.23672e-05
2.23665e-05
9.95735e-06
4.70048e-06
2.97311e-06
5.64517e-06
9.91373e-06
9.91629e-06
2.97293e-06
4.70085e-06
4.70628e-06
2.97425e-06
5.64694e-06
9.91915e-06
9.92105e-06
2.97407e-06
4.70663e-06
4.70157e-06
9.91922e-06
5.64634e-06
2.97335e-06
9.91669e-06
4.70119e-06
2.97353e-06
4.70734e-06
9.92398e-06
5.64808e-06
2.97449e-06
9.92209e-06
4.70698e-06
2.97467e-06
9.95554e-06
2.23614e-05
2.23607e-05
2.23677e-05
2.2367e-05
9.95586e-06
1.90755e-05
1.90748e-05
1.90787e-05
1.9078e-05
9.95915e-06
2.23731e-05
2.23723e-05
9.95948e-06
2.23793e-05
2.23786e-05
4.70295e-06
2.97411e-06
5.64852e-06
9.92505e-06
9.9225e-06
2.97431e-06
4.70256e-06
4.70873e-06
2.97526e-06
5.65027e-06
9.9298e-06
9.92796e-06
2.97546e-06
4.70835e-06
4.70188e-06
9.91964e-06
2.97393e-06
5.64738e-06
4.70227e-06
9.92212e-06
2.97374e-06
4.70767e-06
9.92506e-06
2.97508e-06
5.64916e-06
4.70804e-06
9.92696e-06
2.97489e-06
9.96127e-06
2.23851e-05
2.23843e-05
2.23788e-05
2.23781e-05
9.96093e-06
1.26409e-05
1.12336e-05
4.88169e-06
4.23632e-06
1.12307e-05
4.88177e-06
1.26434e-05
2.27387e-05
9.55199e-06
7.23791e-06
7.23775e-06
2.27318e-05
2.27383e-05
7.23903e-06
9.55306e-06
7.23919e-06
2.27452e-05
1.26396e-05
4.23562e-06
1.12272e-05
4.88102e-06
1.12301e-05
4.88095e-06
1.2637e-05
1.26476e-05
1.12343e-05
4.88259e-06
4.23699e-06
1.2644e-05
1.12372e-05
4.88251e-06
2.27507e-05
9.55869e-06
7.24282e-06
2.27575e-05
7.24303e-06
2.27512e-05
7.24177e-06
9.55766e-06
2.27443e-05
7.24157e-06
1.26478e-05
4.23767e-06
1.12407e-05
4.88323e-06
1.26514e-05
1.12378e-05
4.8833e-06
1.26472e-05
1.12342e-05
4.8825e-06
4.23694e-06
1.26447e-05
1.12371e-05
4.88242e-06
2.27511e-05
9.55884e-06
7.24155e-06
7.24172e-06
2.27579e-05
2.27516e-05
7.24047e-06
9.55785e-06
2.27447e-05
7.24029e-06
1.26486e-05
4.23762e-06
1.12407e-05
4.88313e-06
1.12378e-05
4.88321e-06
1.26511e-05
9.95772e-06
2.23732e-05
2.23738e-05
2.23669e-05
2.23675e-05
9.95737e-06
4.70637e-06
2.97421e-06
5.64665e-06
9.91845e-06
9.921e-06
2.97404e-06
4.70668e-06
4.70055e-06
2.97319e-06
5.64538e-06
9.91421e-06
2.973e-06
9.91677e-06
4.7009e-06
4.7074e-06
9.92394e-06
5.64789e-06
2.97446e-06
9.92143e-06
2.97463e-06
4.70708e-06
4.70162e-06
9.9197e-06
5.64652e-06
2.97342e-06
2.97361e-06
9.91718e-06
4.70126e-06
9.95556e-06
2.23611e-05
2.23617e-05
2.23674e-05
2.2368e-05
9.9559e-06
1.9065e-05
1.90656e-05
1.90777e-05
1.90771e-05
9.95916e-06
2.23728e-05
2.23733e-05
9.95952e-06
2.2379e-05
2.23796e-05
4.70879e-06
2.97523e-06
5.65008e-06
9.92976e-06
2.97541e-06
9.92723e-06
4.70844e-06
4.70301e-06
2.97419e-06
5.64871e-06
9.9254e-06
9.92307e-06
2.97439e-06
4.70263e-06
4.70777e-06
9.92437e-06
2.97503e-06
5.64886e-06
2.97485e-06
4.7081e-06
9.92683e-06
4.70195e-06
9.92014e-06
2.97401e-06
5.64759e-06
4.70233e-06
9.92255e-06
2.97381e-06
9.96131e-06
2.23848e-05
2.23853e-05
2.23785e-05
2.23791e-05
9.96094e-06
1.90767e-05
1.90761e-05
1.26409e-05
1.12338e-05
4.88165e-06
4.23636e-06
1.12309e-05
4.8817e-06
1.26434e-05
2.2738e-05
9.5528e-06
7.23761e-06
7.23741e-06
2.27311e-05
2.27375e-05
7.2387e-06
9.55385e-06
7.23888e-06
2.27444e-05
1.26396e-05
4.23568e-06
1.12274e-05
4.88097e-06
1.12303e-05
4.88092e-06
1.2637e-05
1.26476e-05
4.8826e-06
1.12345e-05
4.23707e-06
1.2644e-05
4.88256e-06
1.12374e-05
2.27503e-05
9.55983e-06
7.24285e-06
2.27572e-05
7.24305e-06
2.27509e-05
7.24179e-06
9.55915e-06
2.2744e-05
7.24159e-06
1.26479e-05
4.23773e-06
4.88327e-06
1.1241e-05
1.26513e-05
4.88332e-06
1.1238e-05
1.26472e-05
1.12344e-05
4.88243e-06
4.23701e-06
1.26447e-05
1.12373e-05
4.88238e-06
2.27503e-05
9.55968e-06
7.24122e-06
7.24142e-06
2.27571e-05
2.27508e-05
7.24015e-06
9.55864e-06
2.27439e-05
7.23996e-06
1.26486e-05
4.23767e-06
1.12408e-05
4.88309e-06
1.12379e-05
4.88315e-06
1.26511e-05
1.26395e-05
4.8818e-06
1.12338e-05
4.2366e-06
4.88201e-06
1.12308e-05
1.26433e-05
2.27371e-05
9.55275e-06
7.23905e-06
7.23867e-06
2.27299e-05
2.27363e-05
7.23994e-06
9.55345e-06
7.24033e-06
2.27435e-05
1.26395e-05
4.23585e-06
4.88127e-06
1.12274e-05
4.88107e-06
1.12303e-05
1.26357e-05
1.26402e-05
1.12336e-05
4.88165e-06
4.23641e-06
1.12307e-05
4.8817e-06
1.26438e-05
2.2738e-05
9.5525e-06
7.23745e-06
7.23726e-06
2.27311e-05
2.27375e-05
7.23854e-06
9.55355e-06
7.23873e-06
2.27444e-05
1.264e-05
4.23573e-06
1.12273e-05
4.88095e-06
1.12301e-05
4.88091e-06
1.26363e-05
1.26472e-05
4.88274e-06
1.12344e-05
4.23717e-06
1.26434e-05
4.88253e-06
1.12373e-05
2.27491e-05
9.55924e-06
7.24246e-06
7.24286e-06
2.27562e-05
2.27499e-05
7.2416e-06
9.55855e-06
2.27427e-05
7.24121e-06
1.26472e-05
4.2379e-06
4.88323e-06
1.12408e-05
4.88345e-06
1.12379e-05
1.26509e-05
1.26476e-05
1.12343e-05
4.88242e-06
4.23706e-06
1.2644e-05
1.12372e-05
4.88238e-06
2.27503e-05
9.55938e-06
7.24105e-06
7.24126e-06
2.27571e-05
2.27508e-05
7.24e-06
9.55835e-06
2.27439e-05
7.2398e-06
1.26479e-05
4.23772e-06
1.12406e-05
4.88308e-06
1.12377e-05
4.88314e-06
1.26514e-05
9.9572e-06
2.23726e-05
2.2373e-05
2.23664e-05
2.23668e-05
9.95686e-06
4.70631e-06
2.97423e-06
5.64679e-06
9.91843e-06
9.92096e-06
2.9741e-06
4.70663e-06
4.70037e-06
2.97314e-06
5.64534e-06
9.914e-06
2.97297e-06
9.91605e-06
4.70069e-06
4.70734e-06
9.92389e-06
5.64789e-06
2.97452e-06
9.9214e-06
2.97465e-06
4.70702e-06
4.70141e-06
9.91889e-06
5.64651e-06
2.97338e-06
2.97356e-06
9.917e-06
4.70108e-06
9.95505e-06
2.23605e-05
2.23609e-05
2.23668e-05
2.23672e-05
9.95538e-06
1.90649e-05
1.90656e-05
1.90792e-05
1.90785e-05
9.95865e-06
2.23722e-05
2.23726e-05
9.959e-06
2.23784e-05
2.23788e-05
4.70872e-06
2.97528e-06
5.65007e-06
9.92957e-06
2.97543e-06
9.92733e-06
4.70838e-06
4.70279e-06
2.97416e-06
5.6487e-06
9.92469e-06
9.92287e-06
2.97434e-06
4.70245e-06
4.7077e-06
9.92436e-06
2.97505e-06
5.64898e-06
2.97491e-06
4.70804e-06
9.92675e-06
4.70177e-06
9.91996e-06
2.97396e-06
5.64755e-06
4.70211e-06
9.92185e-06
2.97378e-06
9.96079e-06
2.23842e-05
2.23846e-05
2.2378e-05
2.23784e-05
9.96043e-06
1.90767e-05
1.9076e-05
1.26399e-05
4.88187e-06
1.12337e-05
4.23661e-06
4.88189e-06
1.12308e-05
1.26436e-05
2.27373e-05
9.55278e-06
7.23885e-06
7.23868e-06
2.27304e-05
2.27369e-05
7.23996e-06
9.55382e-06
7.24014e-06
2.27438e-05
1.26397e-05
4.23586e-06
4.88114e-06
1.12273e-05
4.88112e-06
1.12302e-05
1.2636e-05
1.26403e-05
4.88173e-06
1.12336e-05
4.23663e-06
4.88186e-06
1.12306e-05
1.2644e-05
2.27389e-05
9.55322e-06
7.2379e-06
7.2377e-06
2.2732e-05
2.27384e-05
7.23898e-06
9.55426e-06
7.23919e-06
2.27453e-05
1.26401e-05
4.23581e-06
4.88111e-06
1.12271e-05
4.88099e-06
1.12301e-05
1.26364e-05
1.26474e-05
4.88262e-06
1.12343e-05
4.23718e-06
1.26438e-05
4.88259e-06
1.12373e-05
2.27497e-05
9.55965e-06
7.24248e-06
7.24267e-06
2.27565e-05
2.27502e-05
7.24141e-06
9.55861e-06
2.27433e-05
7.24123e-06
1.26476e-05
4.23791e-06
4.8833e-06
1.12407e-05
4.88334e-06
1.12378e-05
1.26511e-05
1.26478e-05
4.88258e-06
1.12341e-05
4.23714e-06
1.26441e-05
4.88246e-06
1.12371e-05
2.27512e-05
9.5601e-06
7.2415e-06
7.24172e-06
2.27581e-05
2.27517e-05
7.24046e-06
9.55907e-06
2.27448e-05
7.24025e-06
1.26479e-05
4.23793e-06
4.88317e-06
1.12406e-05
4.8833e-06
1.12376e-05
1.26515e-05
1.90659e-05
1.90666e-05
1.90682e-05
1.90689e-05
9.95914e-06
2.23736e-05
2.23729e-05
9.95945e-06
2.23798e-05
2.23791e-05
4.70305e-06
2.9742e-06
5.64855e-06
9.92531e-06
4.70271e-06
2.97437e-06
9.92283e-06
4.70882e-06
2.97538e-06
5.65029e-06
9.93012e-06
4.70849e-06
2.97555e-06
9.92761e-06
4.70203e-06
9.92025e-06
2.97401e-06
5.64747e-06
4.70238e-06
2.97383e-06
9.92228e-06
4.70782e-06
9.92476e-06
2.97517e-06
5.6492e-06
4.70814e-06
2.975e-06
9.9272e-06
9.96123e-06
2.23856e-05
2.23849e-05
9.96092e-06
2.23794e-05
2.23787e-05
1.90776e-05
1.9077e-05
1.90799e-05
1.90793e-05
1.90858e-05
1.9089e-05
4.70322e-06
2.97468e-06
9.92539e-06
5.64953e-06
4.70361e-06
9.92797e-06
2.97447e-06
4.70901e-06
2.97582e-06
9.93074e-06
5.65131e-06
4.70939e-06
9.93278e-06
2.97562e-06
9.96269e-06
2.23846e-05
2.23838e-05
9.96304e-06
2.23908e-05
2.239e-05
2.27642e-05
7.24297e-06
9.56374e-06
2.27574e-05
7.24279e-06
1.26547e-05
4.23821e-06
1.12412e-05
4.88391e-06
1.12442e-05
1.26523e-05
4.88382e-06
4.7091e-06
2.97577e-06
9.93011e-06
5.65101e-06
9.93268e-06
4.70945e-06
2.97559e-06
4.7033e-06
2.97475e-06
9.92618e-06
5.64974e-06
2.97456e-06
4.70368e-06
9.92808e-06
9.9627e-06
2.23843e-05
2.23848e-05
2.23905e-05
9.96309e-06
2.2391e-05
2.27634e-05
7.24267e-06
9.56434e-06
2.27566e-05
7.24246e-06
1.26549e-05
4.23827e-06
1.12414e-05
4.88385e-06
1.12442e-05
1.26523e-05
4.88379e-06
1.26546e-05
4.23913e-06
1.12477e-05
4.88484e-06
1.12447e-05
2.27625e-05
7.24411e-06
9.5643e-06
7.24369e-06
2.27554e-05
1.26548e-05
4.23842e-06
4.88415e-06
1.12413e-05
4.88393e-06
1.2651e-05
1.12442e-05
2.27617e-05
1.26553e-05
4.23895e-06
1.12475e-05
4.88446e-06
1.12446e-05
4.88452e-06
1.26592e-05
2.27634e-05
7.2425e-06
9.56403e-06
2.27566e-05
7.24228e-06
1.26552e-05
4.23831e-06
1.12412e-05
4.88384e-06
1.26517e-05
1.12441e-05
4.88378e-06
2.27629e-05
7.24351e-06
9.56506e-06
7.24373e-06
2.27697e-05
4.70903e-06
2.97579e-06
9.93036e-06
5.65111e-06
9.9323e-06
4.70938e-06
2.97563e-06
4.7031e-06
2.97469e-06
9.92566e-06
5.64971e-06
2.97451e-06
4.70344e-06
9.92753e-06
9.96219e-06
2.23837e-05
2.23841e-05
2.23899e-05
9.96256e-06
2.23903e-05
1.90869e-05
1.2655e-05
4.23914e-06
4.88467e-06
1.12476e-05
4.88471e-06
1.12447e-05
1.26589e-05
2.27628e-05
7.24392e-06
9.56431e-06
7.24372e-06
2.2756e-05
1.2655e-05
4.23844e-06
4.88404e-06
1.12413e-05
4.88399e-06
1.26514e-05
1.12442e-05
2.27623e-05
7.24494e-06
7.24515e-06
2.27691e-05
1.26556e-05
4.23916e-06
4.88455e-06
1.12475e-05
4.88469e-06
1.12445e-05
1.26591e-05
2.27644e-05
7.24297e-06
9.56475e-06
2.27575e-05
7.24274e-06
1.26553e-05
4.23839e-06
4.884e-06
1.12411e-05
1.26518e-05
4.88386e-06
1.1244e-05
2.27638e-05
7.24397e-06
9.56578e-06
7.2442e-06
2.27707e-05
1.90879e-05
1.90885e-05
1.90902e-05
1.90909e-05
4.41777e-07
4.41717e-07
6.53454e-07
4.4367e-07
4.43599e-07
2.35634e-07
2.33704e-07
2.82693e-06
1.96719e-06
1.96742e-06
1.41373e-06
1.9665e-06
1.96672e-06
2.82724e-06
4.49152e-07
4.49085e-07
2.43236e-07
2.41363e-07
2.8282e-06
1.96869e-06
1.96891e-06
1.41661e-06
2.82854e-06
1.96796e-06
1.96819e-06
2.82686e-06
1.96715e-06
1.96737e-06
1.41369e-06
1.96648e-06
1.96668e-06
2.82716e-06
2.82819e-06
1.41735e-06
1.96762e-06
1.96782e-06
1.96832e-06
1.96853e-06
2.82787e-06
2.82688e-06
1.96729e-06
1.96722e-06
1.41363e-06
1.96652e-06
1.96658e-06
2.82721e-06
2.82823e-06
1.41737e-06
1.96773e-06
1.96766e-06
1.96845e-06
1.96839e-06
2.82789e-06
2.82684e-06
1.96731e-06
1.96721e-06
1.41372e-06
1.96651e-06
1.96661e-06
2.82714e-06
2.82816e-06
1.41743e-06
1.96776e-06
1.96767e-06
1.96848e-06
1.96838e-06
2.82785e-06
2.82825e-06
1.41746e-06
1.96764e-06
1.96787e-06
2.82795e-06
1.96835e-06
1.96858e-06
2.82816e-06
1.96867e-06
1.96887e-06
1.41657e-06
2.82849e-06
1.96796e-06
1.96816e-06
2.82819e-06
1.96879e-06
1.96873e-06
1.41651e-06
1.96799e-06
2.82854e-06
1.96807e-06
2.82814e-06
1.96882e-06
1.96872e-06
1.41659e-06
1.968e-06
2.82846e-06
1.96809e-06
4.4176e-07
4.41744e-07
6.53463e-07
4.43663e-07
4.43621e-07
2.35641e-07
2.33711e-07
4.41859e-07
4.41845e-07
6.53579e-07
4.43739e-07
4.43735e-07
2.35709e-07
2.33779e-07
4.41887e-07
4.4181e-07
6.53543e-07
4.43745e-07
4.4373e-07
2.3572e-07
2.33779e-07
6.55013e-07
4.47356e-07
4.47284e-07
4.45533e-07
4.45474e-07
2.3756e-07
2.39463e-07
6.54996e-07
4.47349e-07
4.47306e-07
4.45515e-07
4.45503e-07
2.37568e-07
2.3947e-07
6.55146e-07
4.47422e-07
4.4742e-07
4.45616e-07
4.45601e-07
2.37636e-07
2.39539e-07
6.55133e-07
4.47426e-07
4.47421e-07
4.45648e-07
4.4556e-07
2.37635e-07
2.39551e-07
1.66436e-06
2.53952e-06
1.54158e-06
2.29417e-06
2.53974e-06
1.54242e-06
1.6631e-06
1.84157e-06
2.22244e-06
3.64432e-06
3.02096e-06
2.22195e-06
3.02058e-06
1.84267e-06
1.84318e-06
3.02105e-06
3.64517e-06
2.22231e-06
2.2228e-06
3.02143e-06
1.84211e-06
1.66254e-06
2.29363e-06
2.53934e-06
1.54184e-06
2.53913e-06
1.541e-06
1.66386e-06
1.66443e-06
1.54162e-06
2.5396e-06
2.29419e-06
1.54247e-06
2.5398e-06
1.66318e-06
1.84165e-06
2.22245e-06
3.64435e-06
3.02097e-06
2.22197e-06
3.02065e-06
1.84274e-06
1.84325e-06
3.02112e-06
3.64518e-06
2.22233e-06
2.22281e-06
3.02145e-06
1.84219e-06
1.66262e-06
2.29366e-06
1.54189e-06
2.5394e-06
1.54105e-06
2.53921e-06
1.66394e-06
2.8276e-06
1.416e-06
1.9669e-06
1.96712e-06
1.96761e-06
1.96783e-06
2.82729e-06
4.49134e-07
4.49123e-07
4.5085e-07
2.43243e-07
2.4137e-07
4.4923e-07
4.49216e-07
4.5097e-07
2.43311e-07
2.41438e-07
4.49269e-07
4.4917e-07
6.59548e-07
4.50961e-07
4.50988e-07
2.43325e-07
2.41436e-07
1.66606e-06
2.29566e-06
2.54092e-06
1.5436e-06
2.54113e-06
1.54445e-06
1.66487e-06
1.84358e-06
2.22377e-06
3.02275e-06
3.64684e-06
1.84455e-06
2.22325e-06
3.02237e-06
1.66452e-06
2.29519e-06
2.54082e-06
1.54399e-06
1.66568e-06
2.54059e-06
1.54313e-06
1.66616e-06
2.29569e-06
1.54364e-06
2.54097e-06
1.54449e-06
2.54119e-06
1.66488e-06
1.84366e-06
2.22378e-06
3.02277e-06
3.64686e-06
1.84462e-06
2.22326e-06
3.02243e-06
1.66458e-06
2.29522e-06
1.54403e-06
2.54088e-06
1.66575e-06
1.54318e-06
2.54067e-06
1.84502e-06
3.02284e-06
3.02317e-06
1.84405e-06
2.82883e-06
1.41878e-06
1.96825e-06
1.96847e-06
1.969e-06
1.96922e-06
2.82849e-06
2.82752e-06
1.4159e-06
1.96689e-06
1.96709e-06
2.82721e-06
1.96757e-06
1.96778e-06
2.82755e-06
1.41518e-06
1.96795e-06
1.96817e-06
2.82787e-06
1.96727e-06
1.96747e-06
1.66446e-06
2.53953e-06
1.54148e-06
2.29413e-06
2.53976e-06
1.54244e-06
1.66285e-06
1.84148e-06
2.22239e-06
3.64415e-06
3.02099e-06
3.0206e-06
2.2219e-06
1.84277e-06
1.84333e-06
3.02107e-06
3.64499e-06
2.22225e-06
3.02147e-06
2.22275e-06
1.84194e-06
1.66244e-06
2.29355e-06
2.53936e-06
1.54186e-06
2.53914e-06
1.54091e-06
1.66391e-06
1.66441e-06
2.5394e-06
1.54143e-06
2.29408e-06
2.5396e-06
1.54239e-06
1.66269e-06
1.84133e-06
2.2226e-06
3.64452e-06
3.02069e-06
3.02033e-06
2.2221e-06
1.84265e-06
1.84322e-06
3.0208e-06
3.64541e-06
2.22246e-06
3.02116e-06
1.84178e-06
2.22297e-06
1.6623e-06
2.2935e-06
2.5392e-06
1.5418e-06
2.53901e-06
1.54085e-06
1.66383e-06
1.6632e-06
2.54014e-06
1.543e-06
2.29438e-06
1.66507e-06
2.5399e-06
1.54203e-06
1.84452e-06
2.2229e-06
3.64626e-06
3.02196e-06
2.22341e-06
3.02237e-06
1.84273e-06
1.84234e-06
3.02193e-06
2.22309e-06
3.64544e-06
2.22259e-06
1.8439e-06
3.02153e-06
1.66574e-06
2.29493e-06
2.54026e-06
1.54254e-06
2.5405e-06
1.54353e-06
1.66362e-06
1.6631e-06
2.53998e-06
1.54295e-06
2.29433e-06
1.66503e-06
2.53977e-06
1.54197e-06
1.84443e-06
2.2231e-06
3.64668e-06
3.02169e-06
3.02207e-06
2.22363e-06
1.8427e-06
1.8422e-06
3.02163e-06
2.22331e-06
3.64582e-06
1.84381e-06
3.02125e-06
2.2228e-06
1.6656e-06
2.29487e-06
2.54013e-06
1.54249e-06
2.54034e-06
1.54348e-06
1.66362e-06
2.82757e-06
1.41591e-06
1.96699e-06
1.96692e-06
1.96763e-06
1.9677e-06
2.82724e-06
2.82758e-06
1.41513e-06
1.96809e-06
1.96802e-06
1.96737e-06
2.82791e-06
1.96731e-06
1.66435e-06
2.53955e-06
1.54154e-06
2.29414e-06
2.53976e-06
1.54239e-06
1.66309e-06
1.8416e-06
2.22269e-06
3.64471e-06
3.02107e-06
3.02072e-06
2.22222e-06
1.84269e-06
1.8432e-06
3.02119e-06
3.64553e-06
2.22257e-06
3.02155e-06
2.22306e-06
1.84215e-06
1.66253e-06
2.2936e-06
2.53936e-06
1.54181e-06
2.53915e-06
1.54096e-06
1.66385e-06
1.66427e-06
1.54151e-06
2.53942e-06
2.29408e-06
1.54236e-06
2.5396e-06
1.66301e-06
1.84149e-06
2.22264e-06
3.64463e-06
3.02068e-06
3.02035e-06
2.22217e-06
1.84258e-06
1.84309e-06
3.02082e-06
3.64545e-06
2.22252e-06
3.02114e-06
1.84202e-06
2.223e-06
1.66246e-06
2.29354e-06
1.54178e-06
2.53922e-06
1.54093e-06
2.53903e-06
1.66377e-06
1.66361e-06
2.54014e-06
1.54294e-06
2.29442e-06
1.66481e-06
2.53992e-06
1.54209e-06
1.84416e-06
2.22322e-06
3.6468e-06
3.02209e-06
2.22373e-06
3.02245e-06
1.84316e-06
1.84268e-06
3.02201e-06
2.2234e-06
3.646e-06
2.22291e-06
1.84369e-06
3.02165e-06
1.66525e-06
2.29493e-06
2.54028e-06
1.54261e-06
2.5405e-06
1.54346e-06
1.66406e-06
1.66354e-06
1.54291e-06
2.53998e-06
2.29437e-06
1.66473e-06
1.54206e-06
2.53979e-06
1.84404e-06
2.22316e-06
3.64671e-06
3.0217e-06
3.02203e-06
2.22366e-06
1.84306e-06
1.84255e-06
3.02159e-06
2.22334e-06
3.64592e-06
1.84358e-06
3.02127e-06
2.22285e-06
1.66517e-06
2.29487e-06
1.54257e-06
2.54015e-06
1.54343e-06
2.54034e-06
1.66398e-06
1.6643e-06
1.54156e-06
2.53943e-06
2.29413e-06
1.5424e-06
2.53964e-06
1.66305e-06
1.84148e-06
2.22239e-06
3.64425e-06
3.02058e-06
2.22191e-06
3.02022e-06
1.84257e-06
1.84309e-06
3.02069e-06
3.64509e-06
2.22227e-06
2.22275e-06
3.02106e-06
1.84203e-06
1.66249e-06
2.2936e-06
1.54182e-06
2.53924e-06
1.54099e-06
2.53903e-06
1.6638e-06
1.66362e-06
2.54012e-06
1.54297e-06
2.29446e-06
1.66482e-06
2.5399e-06
1.54212e-06
1.84413e-06
2.22295e-06
3.64643e-06
3.02195e-06
1.84315e-06
2.22347e-06
3.02233e-06
1.84264e-06
3.02189e-06
2.22315e-06
3.64562e-06
1.84367e-06
2.22264e-06
3.0215e-06
1.66525e-06
2.29496e-06
2.54025e-06
1.54264e-06
1.66409e-06
2.54048e-06
1.5435e-06
1.66358e-06
1.54295e-06
2.54002e-06
2.29442e-06
1.66476e-06
1.54211e-06
2.5398e-06
1.84404e-06
2.22291e-06
3.64635e-06
3.02159e-06
3.02196e-06
2.22341e-06
1.84304e-06
1.84256e-06
3.02152e-06
2.22309e-06
3.64555e-06
1.84357e-06
3.02114e-06
2.2226e-06
1.6652e-06
2.29492e-06
1.54262e-06
2.54015e-06
1.54347e-06
2.54038e-06
1.66402e-06
2.8275e-06
1.41596e-06
1.96702e-06
1.96692e-06
1.96763e-06
1.96772e-06
2.8272e-06
2.82753e-06
1.4152e-06
1.96811e-06
1.96801e-06
1.9674e-06
2.82784e-06
1.9673e-06
1.66429e-06
1.54155e-06
2.53942e-06
2.29412e-06
1.5424e-06
2.53964e-06
1.66304e-06
1.84151e-06
2.22272e-06
3.64475e-06
3.02075e-06
2.22224e-06
3.0204e-06
1.84261e-06
1.84312e-06
3.02087e-06
3.64559e-06
2.2226e-06
2.22308e-06
3.02122e-06
1.84206e-06
1.66248e-06
2.29358e-06
1.54182e-06
2.53924e-06
1.54098e-06
2.53903e-06
1.6638e-06
1.6637e-06
1.54301e-06
2.54017e-06
2.29448e-06
1.66489e-06
1.54217e-06
2.53998e-06
1.8442e-06
2.22297e-06
3.64645e-06
3.02202e-06
1.84322e-06
2.22348e-06
3.02235e-06
1.84273e-06
3.0219e-06
2.22316e-06
3.64564e-06
1.84373e-06
2.22266e-06
3.02158e-06
1.66532e-06
2.29498e-06
1.54268e-06
2.54034e-06
1.66416e-06
1.54354e-06
2.54053e-06
1.66356e-06
1.54294e-06
2.54002e-06
2.29441e-06
1.66475e-06
1.5421e-06
2.5398e-06
1.84407e-06
2.22325e-06
3.64685e-06
3.02177e-06
3.02212e-06
2.22375e-06
1.84309e-06
1.84259e-06
3.02168e-06
2.22343e-06
3.64605e-06
1.8436e-06
3.02132e-06
2.22293e-06
1.66519e-06
2.29491e-06
1.54261e-06
2.54015e-06
1.54347e-06
2.54038e-06
1.66401e-06
2.82762e-06
1.41523e-06
1.96799e-06
1.96822e-06
2.82794e-06
1.96729e-06
1.9675e-06
1.84305e-06
2.22372e-06
3.02279e-06
3.64666e-06
3.02237e-06
1.84513e-06
2.22319e-06
1.66393e-06
2.29512e-06
2.54084e-06
1.54403e-06
2.54059e-06
1.66624e-06
1.54301e-06
1.84318e-06
2.22393e-06
3.02249e-06
3.64703e-06
1.8448e-06
3.0221e-06
2.2234e-06
1.66407e-06
2.29506e-06
2.54068e-06
1.54397e-06
1.66596e-06
2.54047e-06
1.54295e-06
1.84357e-06
2.22403e-06
3.02287e-06
3.64723e-06
3.0225e-06
1.84461e-06
2.22351e-06
1.66446e-06
2.29516e-06
2.54084e-06
1.54396e-06
2.54062e-06
1.66568e-06
1.54309e-06
1.84349e-06
2.22395e-06
3.02245e-06
3.64713e-06
1.84447e-06
3.02211e-06
2.22344e-06
1.66437e-06
2.2951e-06
1.54392e-06
2.54068e-06
1.6656e-06
1.54306e-06
2.54048e-06
1.66598e-06
2.29563e-06
1.54358e-06
2.5408e-06
1.54444e-06
2.54103e-06
1.66479e-06
1.84345e-06
2.22371e-06
3.02237e-06
3.64676e-06
2.22318e-06
1.84449e-06
3.022e-06
1.66443e-06
2.29515e-06
1.54397e-06
2.54072e-06
1.5431e-06
1.66561e-06
2.54049e-06
1.84493e-06
3.0224e-06
3.64754e-06
2.22344e-06
2.22398e-06
3.02277e-06
1.84386e-06
1.66601e-06
2.29561e-06
1.54358e-06
2.54081e-06
1.54443e-06
2.54104e-06
1.66471e-06
1.84352e-06
2.22405e-06
3.02254e-06
3.64726e-06
2.22353e-06
1.84449e-06
3.02217e-06
1.66441e-06
2.29514e-06
1.54396e-06
2.54072e-06
1.5431e-06
1.66561e-06
2.54048e-06
1.84489e-06
3.02259e-06
3.64805e-06
2.2238e-06
2.22433e-06
3.02295e-06
1.84392e-06
8.6314e-07
1.14889e-06
8.63018e-07
9.162e-06
3.47526e-06
1.84287e-05
5.46343e-06
5.46216e-06
1.84268e-05
3.47468e-06
9.16224e-06
2.2055e-05
9.15892e-06
7.08874e-06
7.08908e-06
2.20615e-05
1.84237e-05
4.5449e-06
2.81258e-06
5.46335e-06
9.50424e-06
2.81157e-06
9.50129e-06
4.54497e-06
4.53873e-06
2.81147e-06
5.46195e-06
9.49998e-06
9.49635e-06
2.81049e-06
4.53903e-06
9.73628e-06
2.17294e-05
2.17298e-05
2.17231e-05
2.17235e-05
9.73589e-06
1.84218e-05
2.20527e-05
9.15924e-06
7.08958e-06
7.09011e-06
2.20597e-05
2.66769e-06
1.14919e-06
1.76841e-06
1.76828e-06
1.76779e-06
1.76765e-06
2.66869e-06
1.61836e-06
2.03236e-06
3.47502e-06
2.86026e-06
2.86002e-06
2.03233e-06
1.61649e-06
1.61845e-06
2.03196e-06
3.47467e-06
2.86075e-06
2.03222e-06
2.86013e-06
1.61661e-06
3.2376e-07
8.69024e-07
8.69153e-07
1.15473e-06
3.39795e-07
8.92453e-07
8.92578e-07
1.17373e-06
3.56076e-07
9.14887e-07
9.15015e-07
1.19215e-06
3.72519e-07
9.36311e-07
9.36444e-07
1.20967e-06
3.89045e-07
9.56725e-07
9.56864e-07
1.22632e-06
4.05572e-07
9.76141e-07
9.76286e-07
1.2421e-06
4.22022e-07
9.9457e-07
9.94716e-07
1.25708e-06
4.38319e-07
1.01202e-06
1.01216e-06
1.27126e-06
4.54392e-07
1.02849e-06
1.02863e-06
1.28465e-06
4.70174e-07
1.04402e-06
1.04415e-06
1.29731e-06
4.85605e-07
1.05861e-06
1.05875e-06
1.30925e-06
5.00633e-07
1.0723e-06
1.07243e-06
1.32048e-06
5.15212e-07
1.08511e-06
1.08524e-06
1.33104e-06
5.29298e-07
1.09707e-06
1.09718e-06
1.34095e-06
5.42856e-07
1.10819e-06
1.10831e-06
1.35022e-06
5.55857e-07
1.11852e-06
1.11863e-06
1.35888e-06
5.68274e-07
1.12806e-06
1.12817e-06
1.36694e-06
5.80086e-07
1.13685e-06
1.13697e-06
1.37443e-06
5.9128e-07
1.14492e-06
1.14503e-06
1.38134e-06
6.01845e-07
1.15227e-06
1.15239e-06
1.38771e-06
6.11774e-07
1.15895e-06
1.15906e-06
1.39355e-06
6.21064e-07
1.16497e-06
1.16508e-06
1.39887e-06
6.29714e-07
1.17035e-06
1.17046e-06
1.40369e-06
6.37726e-07
1.17511e-06
1.17522e-06
1.40802e-06
6.45107e-07