/*--------------------------------*- C++ -*----------------------------------*\
| =========                 |                                                 |
| \\      /  F ield         | OpenFOAM: The Open Source CFD Toolbox           |
|  \\    /   O peration     | Version:  2312                                  |
|   \\  /    A nd           | Website:  www.openfoam.com                      |
|    \\/     M anipulation  |                                                 |
\*---------------------------------------------------------------------------*/
FoamFile
{
    version     2.0;
    format      ascii;
    arch        "LSB;label=32;scalar=64";
    class       volScalarField;
    location    "1000";
    object      k;
}
// * * * * * * * * * * * * * * * * * * * * * * * * * * * * * * * * * * * * * //

dimensions      [0 2 -2 0 0 0 0];

internalField   nonuniform List<scalar> 
43496
(
6.85736e-05
7.11958e-05
5.14166e-05
6.47964e-05
6.06273e-05
4.67108e-05
6.85721e-05
7.3441e-05
6.0626e-05
5.1412e-05
4.67115e-05
6.47927e-05
5.35374e-05
6.99406e-05
6.99385e-05
7.11945e-05
7.34447e-05
7.18505e-05
6.8565e-05
7.15995e-05
7.1629e-05
7.15915e-05
7.16201e-05
7.18597e-05
7.16832e-05
7.97877e-05
7.978e-05
7.16975e-05
7.11839e-05
7.1847e-05
6.85635e-05
7.16285e-05
7.15945e-05
7.16195e-05
7.15865e-05
7.18612e-05
7.16814e-05
7.97684e-05
7.34298e-05
7.97608e-05
7.16956e-05
9.4981e-05
7.34964e-05
7.35026e-05
7.34829e-05
7.34891e-05
9.49831e-05
7.41989e-05
7.32808e-05
6.99364e-05
6.52488e-05
7.32685e-05
6.5236e-05
7.42025e-05
7.41513e-05
7.32729e-05
6.99335e-05
6.52442e-05
6.52317e-05
7.32605e-05
7.41552e-05
7.11825e-05
7.34336e-05
3.19044e-05
3.89085e-05
3.19097e-05
6.47857e-05
6.03749e-05
6.03768e-05
5.62991e-05
6.06137e-05
6.23208e-05
5.50099e-05
6.23086e-05
5.50269e-05
5.62869e-05
5.73947e-05
6.42051e-05
6.41951e-05
5.738e-05
5.62968e-05
6.06123e-05
5.50089e-05
6.23171e-05
5.50259e-05
6.23049e-05
5.62847e-05
5.73908e-05
6.41978e-05
6.47816e-05
6.03743e-05
6.41877e-05
5.73764e-05
6.03677e-05
6.59263e-05
5.35344e-05
5.94793e-05
5.94819e-05
5.94775e-05
5.94744e-05
6.59336e-05
3.83872e-05
5.11101e-05
5.11133e-05
5.32902e-05
3.88049e-05
5.1356e-05
5.13591e-05
5.34856e-05
5.33023e-05
5.3433e-05
5.11106e-05
5.11055e-05
5.12968e-05
5.12923e-05
5.32904e-05
5.34421e-05
5.11079e-05
5.11088e-05
5.12941e-05
5.12949e-05
5.11101e-05
5.12957e-05
5.12946e-05
5.32988e-05
5.34449e-05
5.11074e-05
5.12995e-05
5.12943e-05
5.34425e-05
5.3498e-05
5.13563e-05
5.13507e-05
5.34861e-05
5.13537e-05
5.13544e-05
5.13571e-05
5.34877e-05
5.13532e-05
6.85152e-05
7.33587e-05
7.33851e-05
6.84867e-05
7.1114e-05
7.11403e-05
6.85136e-05
7.33613e-05
7.33858e-05
6.84874e-05
3.83862e-05
3.83918e-05
3.83906e-05
3.87028e-05
3.87023e-05
3.87071e-05
3.87057e-05
6.05225e-05
6.46958e-05
4.63289e-05
5.11728e-05
6.47263e-05
4.6409e-05
6.04774e-05
7.11153e-05
7.11414e-05
6.05228e-05
4.63329e-05
6.46961e-05
5.11766e-05
4.64126e-05
6.4727e-05
6.04778e-05
6.98615e-05
6.98702e-05
5.33448e-05
6.988e-05
6.98882e-05
7.34182e-05
6.85497e-05
7.11691e-05
7.34207e-05
6.85504e-05
3.8804e-05
3.88094e-05
3.88083e-05
6.06272e-05
6.47684e-05
4.66389e-05
6.05877e-05
4.67123e-05
7.11704e-05
6.06274e-05
4.66429e-05
6.47688e-05
6.05879e-05
4.67156e-05
6.99171e-05
6.99254e-05
5.35341e-05
6.99343e-05
6.99426e-05
7.11129e-05
7.1139e-05
7.11158e-05
7.11419e-05
6.98659e-05
6.98731e-05
5.33359e-05
6.98837e-05
6.98925e-05
7.11664e-05
7.11407e-05
7.11693e-05
7.11436e-05
5.34005e-05
6.99111e-05
6.99198e-05
6.98941e-05
6.99015e-05
6.85138e-05
7.33553e-05
7.33818e-05
6.84852e-05
6.05247e-05
6.46942e-05
4.63285e-05
5.11739e-05
6.47255e-05
4.64083e-05
6.04758e-05
6.05231e-05
6.46906e-05
4.63261e-05
5.11691e-05
6.47214e-05
4.64063e-05
6.04742e-05
6.85188e-05
7.34148e-05
7.33887e-05
6.85465e-05
6.85173e-05
7.34112e-05
7.33854e-05
6.85448e-05
6.05326e-05
5.12362e-05
6.47612e-05
4.65633e-05
6.47314e-05
4.6487e-05
6.05787e-05
6.05309e-05
5.12308e-05
6.47572e-05
4.65613e-05
6.47279e-05
4.64844e-05
6.05771e-05
6.9866e-05
6.98671e-05
5.33446e-05
6.98836e-05
6.98852e-05
7.11142e-05
7.11402e-05
7.11677e-05
7.11418e-05
5.33887e-05
6.99109e-05
6.99131e-05
6.98943e-05
6.98954e-05
7.11676e-05
7.11419e-05
6.05222e-05
6.46963e-05
4.63278e-05
5.11712e-05
6.47272e-05
4.64076e-05
6.04772e-05
6.85121e-05
7.3356e-05
7.33825e-05
6.84858e-05
6.05209e-05
4.63287e-05
6.46926e-05
5.11721e-05
4.64084e-05
6.47234e-05
6.04759e-05
6.85195e-05
7.34155e-05
7.33912e-05
6.85446e-05
6.05339e-05
5.12336e-05
6.4763e-05
4.65625e-05
6.47335e-05
4.64863e-05
6.05762e-05
6.8518e-05
7.3412e-05
7.3386e-05
6.8543e-05
6.05326e-05
5.12344e-05
4.65633e-05
6.4759e-05
4.64872e-05
6.47293e-05
6.05749e-05
6.85121e-05
7.33598e-05
7.33843e-05
6.84859e-05
6.05222e-05
4.63298e-05
6.46916e-05
5.11724e-05
4.64091e-05
6.47221e-05
6.04772e-05
6.85129e-05
7.33557e-05
7.33822e-05
6.84867e-05
6.05341e-05
5.12358e-05
6.47621e-05
4.6564e-05
6.4733e-05
4.64874e-05
6.05763e-05
6.85181e-05
7.34139e-05
7.33898e-05
6.8543e-05
6.05339e-05
5.12363e-05
4.6564e-05
6.47579e-05
4.64884e-05
6.47288e-05
6.05761e-05
6.85189e-05
7.34117e-05
7.33857e-05
6.85438e-05
6.98687e-05
6.98654e-05
5.33472e-05
6.98868e-05
6.98847e-05
7.11139e-05
7.114e-05
7.11688e-05
7.11431e-05
5.33942e-05
6.99144e-05
6.9912e-05
6.98969e-05
6.98936e-05
7.11675e-05
7.11417e-05
6.052e-05
4.63302e-05
6.46939e-05
5.11714e-05
4.64095e-05
6.47247e-05
6.0475e-05
6.85117e-05
7.33596e-05
7.33862e-05
6.84855e-05
6.85081e-05
7.33573e-05
7.33838e-05
6.84818e-05
6.05344e-05
5.1239e-05
4.65674e-05
6.47626e-05
4.64913e-05
6.47334e-05
6.05765e-05
6.05317e-05
5.12329e-05
4.65644e-05
6.47604e-05
4.64886e-05
6.4731e-05
6.05739e-05
6.85177e-05
7.34157e-05
7.33897e-05
6.85426e-05
6.85141e-05
7.34133e-05
7.33873e-05
6.8539e-05
7.11137e-05
7.11398e-05
7.11165e-05
7.11425e-05
5.33888e-05
6.99073e-05
6.99157e-05
6.98899e-05
6.98984e-05
7.11672e-05
7.11415e-05
7.11699e-05
7.11442e-05
7.1168e-05
7.1171e-05
6.9921e-05
6.99287e-05
7.34159e-05
6.8548e-05
6.47669e-05
4.66387e-05
6.05862e-05
6.47632e-05
4.66361e-05
6.05846e-05
6.99213e-05
6.99219e-05
7.11693e-05
6.47688e-05
4.6638e-05
6.05876e-05
7.34155e-05
6.85487e-05
4.66388e-05
6.47646e-05
6.05863e-05
6.8572e-05
7.34193e-05
6.85487e-05
6.06271e-05
4.66401e-05
6.47641e-05
5.14109e-05
6.05875e-05
4.67119e-05
6.47914e-05
6.85729e-05
7.34151e-05
6.85495e-05
7.34407e-05
6.99235e-05
6.99207e-05
7.1169e-05
6.06249e-05
4.66402e-05
6.47665e-05
5.14119e-05
6.05852e-05
4.67126e-05
6.4794e-05
6.85717e-05
7.34192e-05
6.85483e-05
6.85681e-05
7.34168e-05
6.85447e-05
7.34423e-05
7.11688e-05
7.11943e-05
7.11716e-05
7.1197e-05
7.17931e-05
7.15701e-05
7.15469e-05
6.85028e-05
7.15607e-05
7.15345e-05
7.18026e-05
7.16306e-05
7.33702e-05
7.97179e-05
7.97267e-05
7.16161e-05
7.16296e-05
7.97398e-05
7.33737e-05
7.97312e-05
7.16441e-05
7.1788e-05
6.84992e-05
7.15458e-05
7.15196e-05
7.15554e-05
7.15321e-05
7.17784e-05
7.11264e-05
7.11279e-05
7.17933e-05
7.15443e-05
7.15703e-05
6.85037e-05
7.15353e-05
7.1561e-05
7.18027e-05
7.16308e-05
7.33709e-05
7.97161e-05
7.97245e-05
7.16162e-05
7.16298e-05
7.97376e-05
7.33763e-05
7.97293e-05
7.16443e-05
7.17882e-05
6.84977e-05
7.15205e-05
7.1546e-05
7.15298e-05
7.15556e-05
7.17786e-05
7.11275e-05
7.11293e-05
9.49257e-05
7.34531e-05
7.34465e-05
7.34395e-05
7.34328e-05
9.4928e-05
7.40735e-05
6.51188e-05
6.98663e-05
7.31885e-05
6.51328e-05
7.3201e-05
7.40691e-05
7.41215e-05
6.51266e-05
6.98741e-05
7.31999e-05
6.51413e-05
7.32092e-05
7.41169e-05
7.40862e-05
7.32156e-05
6.98759e-05
6.51559e-05
6.51422e-05
7.3203e-05
7.40906e-05
7.41341e-05
7.32236e-05
6.98845e-05
6.51643e-05
6.51499e-05
7.32143e-05
7.41386e-05
9.49134e-05
7.34267e-05
7.34201e-05
7.34404e-05
7.34337e-05
9.49111e-05
7.16841e-05
7.97697e-05
7.34291e-05
7.16698e-05
7.97777e-05
7.18454e-05
6.85608e-05
7.16053e-05
7.15774e-05
7.18364e-05
7.16142e-05
7.15897e-05
7.11812e-05
7.16843e-05
7.97678e-05
7.34303e-05
7.167e-05
7.97755e-05
7.18457e-05
6.85595e-05
7.15782e-05
7.16056e-05
7.18364e-05
7.15865e-05
7.16148e-05
7.11823e-05
9.49822e-05
7.35032e-05
7.34966e-05
7.34898e-05
7.34832e-05
9.49838e-05
7.4139e-05
6.52086e-05
7.32475e-05
6.99206e-05
7.41354e-05
6.5221e-05
7.32565e-05
7.41868e-05
6.52163e-05
7.32573e-05
6.9929e-05
7.41832e-05
6.52295e-05
7.32662e-05
9.49704e-05
7.34773e-05
7.34707e-05
9.49685e-05
7.34908e-05
7.34842e-05
7.4151e-05
7.32701e-05
6.99298e-05
6.52415e-05
6.52295e-05
7.32615e-05
7.41544e-05
7.41988e-05
7.32799e-05
6.99383e-05
6.52499e-05
6.52372e-05
7.32712e-05
7.42021e-05
7.11251e-05
7.11268e-05
7.1128e-05
7.11298e-05
9.49287e-05
7.34529e-05
7.34461e-05
7.34392e-05
7.34324e-05
9.49317e-05
7.40751e-05
6.51214e-05
6.98696e-05
7.31912e-05
7.32005e-05
6.51338e-05
7.40713e-05
7.41222e-05
6.51278e-05
6.98782e-05
7.31988e-05
7.32114e-05
6.51416e-05
7.41164e-05
7.40884e-05
7.32149e-05
6.98801e-05
6.51569e-05
7.32057e-05
7.40922e-05
6.51447e-05
7.41337e-05
7.32258e-05
6.98876e-05
6.51647e-05
7.32134e-05
7.41391e-05
6.51512e-05
9.4917e-05
7.34264e-05
7.34196e-05
7.34402e-05
7.34334e-05
9.49139e-05
7.11544e-05
7.11528e-05
7.11573e-05
7.11557e-05
9.4946e-05
7.34519e-05
7.34451e-05
9.49433e-05
7.34656e-05
7.34588e-05
7.41216e-05
6.5201e-05
6.99077e-05
7.32436e-05
7.32345e-05
6.51897e-05
7.41251e-05
7.41669e-05
6.5209e-05
6.99152e-05
7.32542e-05
7.32419e-05
6.51962e-05
7.41718e-05
7.41088e-05
7.32202e-05
6.51675e-05
6.98977e-05
7.41052e-05
7.32295e-05
6.51792e-05
7.41559e-05
7.32279e-05
6.51739e-05
6.99061e-05
7.41505e-05
7.32401e-05
6.51871e-05
9.49576e-05
7.34782e-05
7.34714e-05
7.34646e-05
7.34578e-05
9.49602e-05
7.17901e-05
7.15698e-05
7.15422e-05
6.85013e-05
7.15604e-05
7.15297e-05
7.18038e-05
7.16301e-05
7.33669e-05
7.96998e-05
7.97086e-05
7.16155e-05
7.16291e-05
7.97216e-05
7.33704e-05
7.9713e-05
7.16436e-05
7.17893e-05
6.84977e-05
7.15454e-05
7.15152e-05
7.1555e-05
7.15276e-05
7.17752e-05
7.1817e-05
7.15755e-05
7.15494e-05
6.8531e-05
7.18075e-05
7.15852e-05
7.15614e-05
7.16565e-05
7.34034e-05
7.97652e-05
7.16709e-05
7.97571e-05
7.16576e-05
7.97442e-05
7.33999e-05
7.16431e-05
7.97526e-05
7.18222e-05
6.85344e-05
7.16e-05
7.15756e-05
7.18316e-05
7.15904e-05
7.15638e-05
7.18184e-05
7.15752e-05
7.15445e-05
6.85296e-05
7.18047e-05
7.15849e-05
7.15567e-05
7.16559e-05
7.34001e-05
7.97472e-05
7.97388e-05
7.16703e-05
7.1657e-05
7.9726e-05
7.33965e-05
7.16425e-05
7.97345e-05
7.18191e-05
6.85328e-05
7.15997e-05
7.1571e-05
7.15901e-05
7.15588e-05
7.18328e-05
9.49272e-05
7.34469e-05
7.34529e-05
7.34331e-05
7.34391e-05
9.49302e-05
7.41224e-05
6.5125e-05
6.98694e-05
7.31988e-05
7.32081e-05
6.51381e-05
7.41165e-05
7.40758e-05
6.51217e-05
6.98711e-05
7.31919e-05
6.51353e-05
7.32013e-05
7.40699e-05
7.41337e-05
7.32225e-05
6.98803e-05
6.51611e-05
7.32132e-05
6.51484e-05
7.41393e-05
7.40872e-05
7.32157e-05
6.98814e-05
6.51583e-05
6.51451e-05
7.32064e-05
7.40926e-05
9.49155e-05
7.34203e-05
7.34264e-05
7.34341e-05
7.34401e-05
9.49124e-05
7.11263e-05
7.11281e-05
7.11555e-05
7.1154e-05
9.49446e-05
7.34458e-05
7.34519e-05
9.49418e-05
7.34595e-05
7.34656e-05
7.4167e-05
6.52053e-05
6.99079e-05
7.32512e-05
6.51933e-05
7.32421e-05
7.41721e-05
7.41205e-05
6.52025e-05
6.9909e-05
7.32448e-05
7.32349e-05
6.519e-05
7.41256e-05
7.4156e-05
7.32279e-05
6.51711e-05
6.98975e-05
6.51834e-05
7.41506e-05
7.32371e-05
7.41094e-05
7.32209e-05
6.51678e-05
6.98992e-05
7.41041e-05
7.32303e-05
6.51807e-05
9.49561e-05
7.34721e-05
7.34782e-05
7.34584e-05
7.34645e-05
9.49588e-05
7.11556e-05
7.1154e-05
7.17898e-05
7.15699e-05
7.15391e-05
6.85022e-05
7.15604e-05
7.153e-05
7.18035e-05
7.1629e-05
7.33676e-05
7.96967e-05
7.9705e-05
7.16145e-05
7.1628e-05
7.97182e-05
7.33711e-05
7.97098e-05
7.16425e-05
7.17889e-05
6.84961e-05
7.15455e-05
7.15152e-05
7.15551e-05
7.15245e-05
7.1775e-05
7.18171e-05
7.15498e-05
7.15758e-05
6.85294e-05
7.18078e-05
7.15588e-05
7.15854e-05
7.16567e-05
7.34061e-05
7.9763e-05
7.16711e-05
7.97554e-05
7.16577e-05
7.97424e-05
7.34009e-05
7.16433e-05
7.97505e-05
7.18223e-05
6.85351e-05
7.15729e-05
7.16002e-05
7.18317e-05
7.15641e-05
7.15907e-05
7.1818e-05
7.15753e-05
7.15446e-05
6.85279e-05
7.18044e-05
7.15849e-05
7.15538e-05
7.16549e-05
7.34007e-05
7.97439e-05
7.97358e-05
7.16692e-05
7.16559e-05
7.97229e-05
7.33973e-05
7.16415e-05
7.97312e-05
7.18189e-05
6.85336e-05
7.15996e-05
7.15677e-05
7.15902e-05
7.15589e-05
7.18321e-05
7.17915e-05
7.15404e-05
7.15694e-05
6.85023e-05
7.15315e-05
7.156e-05
7.1801e-05
7.16296e-05
7.33694e-05
7.97137e-05
7.97169e-05
7.16145e-05
7.1628e-05
7.97299e-05
7.33748e-05
7.97269e-05
7.16431e-05
7.17866e-05
6.84962e-05
7.15165e-05
7.15451e-05
7.15258e-05
7.15547e-05
7.17769e-05
7.1792e-05
7.15697e-05
7.15402e-05
6.8503e-05
7.15603e-05
7.15312e-05
7.18014e-05
7.16294e-05
7.33672e-05
7.96963e-05
7.97046e-05
7.16149e-05
7.16284e-05
7.97176e-05
7.33708e-05
7.97095e-05
7.16429e-05
7.17869e-05
6.8497e-05
7.15454e-05
7.15164e-05
7.15549e-05
7.15257e-05
7.17774e-05
7.18155e-05
7.1546e-05
7.15749e-05
6.85279e-05
7.1806e-05
7.15549e-05
7.15845e-05
7.16549e-05
7.34046e-05
7.97556e-05
7.97527e-05
7.16698e-05
7.16565e-05
7.97399e-05
7.33994e-05
7.16415e-05
7.9743e-05
7.18206e-05
6.85336e-05
7.15688e-05
7.15991e-05
7.15602e-05
7.15898e-05
7.183e-05
7.18158e-05
7.15752e-05
7.15457e-05
6.85287e-05
7.18065e-05
7.15848e-05
7.15547e-05
7.16553e-05
7.34004e-05
7.97432e-05
7.97353e-05
7.16696e-05
7.16563e-05
7.97226e-05
7.3397e-05
7.16419e-05
7.97305e-05
7.1821e-05
6.85344e-05
7.15994e-05
7.15686e-05
7.15901e-05
7.156e-05
7.18303e-05
9.49245e-05
7.34462e-05
7.34524e-05
7.34326e-05
7.34387e-05
9.49267e-05
7.4122e-05
6.51253e-05
6.98727e-05
7.31991e-05
7.32084e-05
6.514e-05
7.41177e-05
7.40747e-05
6.51211e-05
6.98704e-05
7.31898e-05
6.51351e-05
7.32013e-05
7.40693e-05
7.41348e-05
7.32228e-05
6.98829e-05
6.51631e-05
7.32136e-05
6.51485e-05
7.4139e-05
7.40865e-05
7.32162e-05
6.98797e-05
6.51584e-05
6.51443e-05
7.32036e-05
7.40917e-05
9.4912e-05
7.34198e-05
7.34259e-05
7.34335e-05
7.34396e-05
9.49098e-05
7.11262e-05
7.11278e-05
7.11568e-05
7.11551e-05
9.49413e-05
7.34453e-05
7.34514e-05
9.4939e-05
7.34589e-05
7.3465e-05
7.41673e-05
6.52072e-05
6.99103e-05
7.32519e-05
6.51935e-05
7.3242e-05
7.41724e-05
7.41196e-05
6.52026e-05
6.99072e-05
7.32447e-05
7.32324e-05
6.51892e-05
7.41247e-05
7.41562e-05
7.32281e-05
6.51714e-05
6.99008e-05
6.51853e-05
7.41514e-05
7.32375e-05
7.41086e-05
7.32184e-05
6.5167e-05
6.98983e-05
7.41033e-05
7.32305e-05
6.51807e-05
9.49532e-05
7.34715e-05
7.34776e-05
7.34579e-05
7.34641e-05
9.49555e-05
7.11554e-05
7.11538e-05
7.17931e-05
7.1545e-05
7.15692e-05
6.85019e-05
7.15359e-05
7.15599e-05
7.18025e-05
7.16309e-05
7.33712e-05
7.97145e-05
7.9723e-05
7.16164e-05
7.16299e-05
7.97361e-05
7.33748e-05
7.97277e-05
7.16444e-05
7.1788e-05
6.84958e-05
7.15211e-05
7.1545e-05
7.15304e-05
7.15545e-05
7.17784e-05
7.17911e-05
7.15366e-05
7.15682e-05
6.84982e-05
7.15277e-05
7.15589e-05
7.18006e-05
7.163e-05
7.33689e-05
7.96977e-05
7.9706e-05
7.16154e-05
7.1629e-05
7.97191e-05
7.33724e-05
7.97109e-05
7.16435e-05
7.17861e-05
6.84922e-05
7.15128e-05
7.1544e-05
7.15221e-05
7.15535e-05
7.17765e-05
7.18169e-05
7.15504e-05
7.15747e-05
6.85275e-05
7.18075e-05
7.15595e-05
7.15843e-05
7.16568e-05
7.34044e-05
7.97616e-05
7.97537e-05
7.16711e-05
7.16578e-05
7.97408e-05
7.3401e-05
7.16434e-05
7.9749e-05
7.18221e-05
6.85332e-05
7.15734e-05
7.15989e-05
7.15647e-05
7.15896e-05
7.18314e-05
7.1815e-05
7.15422e-05
7.15737e-05
6.85239e-05
7.18055e-05
7.15512e-05
7.15833e-05
7.16558e-05
7.3402e-05
7.97447e-05
7.97368e-05
7.16703e-05
7.16569e-05
7.9724e-05
7.33986e-05
7.16424e-05
7.9732e-05
7.18201e-05
6.85296e-05
7.15651e-05
7.15979e-05
7.15566e-05
7.15886e-05
7.18295e-05
7.1126e-05
7.11277e-05
7.11287e-05
7.11304e-05
9.49424e-05
7.34522e-05
7.34456e-05
9.49402e-05
7.34658e-05
7.34591e-05
7.41193e-05
6.51999e-05
6.99037e-05
7.32427e-05
7.41235e-05
6.5187e-05
7.32332e-05
7.41672e-05
6.52084e-05
6.99121e-05
7.32522e-05
7.41714e-05
6.51948e-05
7.32431e-05
7.41072e-05
7.32175e-05
6.51648e-05
6.98938e-05
7.4103e-05
6.51782e-05
7.32294e-05
7.41551e-05
7.32289e-05
6.51726e-05
6.99023e-05
7.41509e-05
6.51866e-05
7.32382e-05
9.49544e-05
7.34783e-05
7.34717e-05
9.49567e-05
7.34648e-05
7.34582e-05
7.11552e-05
7.11536e-05
7.11579e-05
7.11563e-05
7.11799e-05
7.11829e-05
7.41408e-05
6.52112e-05
7.32487e-05
6.99241e-05
7.41376e-05
7.32574e-05
6.52222e-05
7.41869e-05
6.52177e-05
7.32566e-05
6.99325e-05
7.41831e-05
7.32678e-05
6.52302e-05
9.49741e-05
7.34771e-05
7.34703e-05
9.49717e-05
7.34907e-05
7.34839e-05
7.16835e-05
7.97514e-05
7.34247e-05
7.16692e-05
7.97595e-05
7.18473e-05
6.85592e-05
7.16051e-05
7.15725e-05
7.1614e-05
7.18333e-05
7.15849e-05
7.41882e-05
6.52148e-05
7.32563e-05
6.9924e-05
7.3265e-05
7.4183e-05
6.52267e-05
7.41417e-05
6.52115e-05
7.32477e-05
6.99269e-05
6.52237e-05
7.41365e-05
7.32597e-05
9.49729e-05
7.3471e-05
7.3477e-05
7.34846e-05
9.49702e-05
7.34907e-05
7.16825e-05
7.97484e-05
7.34265e-05
7.16682e-05
7.97563e-05
7.18466e-05
6.8558e-05
7.16049e-05
7.1573e-05
7.16143e-05
7.18334e-05
7.15816e-05
7.18482e-05
6.85635e-05
7.1628e-05
7.15878e-05
7.16191e-05
7.16831e-05
7.97651e-05
7.34283e-05
7.97678e-05
7.16682e-05
7.18455e-05
6.85579e-05
7.15741e-05
7.16045e-05
7.15824e-05
7.18347e-05
7.16139e-05
7.16813e-05
7.18495e-05
6.85643e-05
7.16283e-05
7.15953e-05
7.16194e-05
7.15874e-05
7.186e-05
7.16829e-05
7.97478e-05
7.34263e-05
7.16685e-05
7.97555e-05
7.18447e-05
6.85588e-05
7.16048e-05
7.15739e-05
7.18352e-05
7.16142e-05
7.15824e-05
7.16817e-05
7.97676e-05
7.34296e-05
7.97601e-05
7.1696e-05
7.41881e-05
6.5215e-05
7.32552e-05
6.99276e-05
7.32665e-05
7.41833e-05
6.52282e-05
7.41406e-05
6.52107e-05
7.32468e-05
6.99252e-05
6.52237e-05
7.41356e-05
7.32588e-05
9.49695e-05
7.34705e-05
7.34766e-05
7.3484e-05
9.49672e-05
7.34901e-05
7.1181e-05
7.18506e-05
6.85631e-05
7.16e-05
7.16278e-05
7.15921e-05
7.16189e-05
7.18611e-05
7.16844e-05
7.97662e-05
7.34302e-05
7.9774e-05
7.16701e-05
7.18458e-05
6.85576e-05
7.15786e-05
7.16043e-05
7.15872e-05
7.18362e-05
7.16137e-05
7.16833e-05
7.9786e-05
7.97785e-05
7.16976e-05
7.18485e-05
6.85595e-05
7.15918e-05
7.16268e-05
7.1584e-05
7.16179e-05
7.18579e-05
7.16835e-05
7.97493e-05
7.34279e-05
7.16691e-05
7.97571e-05
7.18438e-05
6.85539e-05
7.15704e-05
7.16033e-05
7.18342e-05
7.15789e-05
7.16127e-05
7.16823e-05
7.97692e-05
7.34312e-05
7.97616e-05
7.16966e-05
7.11808e-05
7.11823e-05
7.11835e-05
7.11851e-05
3.1271e-05
3.12688e-05
3.8494e-05
3.14016e-05
3.1399e-05
2.22638e-05
2.21124e-05
6.58142e-05
5.93027e-05
5.93036e-05
5.32952e-05
5.93084e-05
5.93094e-05
6.58064e-05
3.17836e-05
3.17813e-05
2.28616e-05
2.27138e-05
6.59099e-05
5.94413e-05
5.94428e-05
5.34895e-05
6.5903e-05
5.94459e-05
5.94468e-05
6.58144e-05
5.93085e-05
5.93077e-05
5.32864e-05
5.93083e-05
5.93071e-05
6.58091e-05
6.58825e-05
5.34504e-05
5.94101e-05
5.9413e-05
5.94119e-05
5.94136e-05
6.58874e-05
6.58154e-05
5.9302e-05
5.93051e-05
5.32952e-05
5.93108e-05
5.93076e-05
6.58074e-05
6.58812e-05
5.34383e-05
5.94115e-05
5.94142e-05
5.94075e-05
5.94101e-05
6.58877e-05
6.58139e-05
5.93031e-05
5.93058e-05
5.32923e-05
5.93104e-05
5.9308e-05
6.58072e-05
6.58809e-05
5.34417e-05
5.94129e-05
5.94154e-05
5.9409e-05
5.94109e-05
6.58872e-05
6.58797e-05
5.34386e-05
5.94123e-05
5.94139e-05
6.5887e-05
5.94078e-05
5.94079e-05
6.59103e-05
5.94474e-05
5.94468e-05
5.34778e-05
6.59057e-05
5.94445e-05
5.94437e-05
6.5911e-05
5.9441e-05
5.94441e-05
5.34888e-05
5.94487e-05
6.59045e-05
5.94459e-05
6.59101e-05
5.94416e-05
5.94434e-05
5.34906e-05
5.94484e-05
6.59039e-05
5.94455e-05
3.12702e-05
3.12698e-05
3.84934e-05
3.1401e-05
3.13996e-05
2.22641e-05
2.21128e-05
3.12745e-05
3.12744e-05
3.84984e-05
3.14046e-05
3.14049e-05
2.22679e-05
2.21166e-05
3.12756e-05
3.12729e-05
3.8497e-05
3.14047e-05
3.14046e-05
2.22684e-05
2.21166e-05
3.85995e-05
3.16578e-05
3.16552e-05
3.15307e-05
3.15286e-05
2.24148e-05
2.25645e-05
3.85985e-05
3.16573e-05
3.16558e-05
3.15299e-05
3.15297e-05
2.24152e-05
2.25648e-05
3.86041e-05
3.16607e-05
3.16611e-05
3.15343e-05
3.1534e-05
2.24189e-05
2.25686e-05
3.86029e-05
3.16607e-05
3.16611e-05
3.15355e-05
3.15323e-05
2.24189e-05
2.25691e-05
5.61433e-05
6.22244e-05
5.48437e-05
6.05064e-05
6.22102e-05
5.48564e-05
5.61332e-05
5.72094e-05
6.02306e-05
6.47078e-05
6.40867e-05
6.02315e-05
6.40987e-05
5.722e-05
5.7256e-05
6.4121e-05
6.47147e-05
6.02619e-05
6.02611e-05
6.41093e-05
5.72457e-05
5.60917e-05
6.04943e-05
6.21843e-05
5.48093e-05
6.21989e-05
5.47977e-05
5.61015e-05
5.61459e-05
5.48449e-05
6.22271e-05
6.05067e-05
5.48577e-05
6.22129e-05
5.61357e-05
5.7212e-05
6.02315e-05
6.47085e-05
6.40888e-05
6.02326e-05
6.41014e-05
5.72224e-05
5.72584e-05
6.41236e-05
6.47151e-05
6.02631e-05
6.0262e-05
6.41115e-05
5.72483e-05
5.60943e-05
6.04946e-05
5.48106e-05
6.2187e-05
5.4799e-05
6.22017e-05
5.61041e-05
6.58317e-05
5.33407e-05
5.93432e-05
5.93456e-05
5.93385e-05
5.93385e-05
6.5839e-05
3.17828e-05
3.17826e-05
3.1905e-05
2.2862e-05
2.27142e-05
3.1787e-05
3.17868e-05
3.19106e-05
2.28657e-05
2.27179e-05
3.17885e-05
3.17848e-05
3.89081e-05
3.19096e-05
3.19114e-05
2.28664e-05
2.27178e-05
5.63001e-05
6.06136e-05
6.23202e-05
5.50099e-05
6.2308e-05
5.5027e-05
5.62883e-05
5.73501e-05
6.03488e-05
6.4174e-05
6.47791e-05
5.73634e-05
6.03468e-05
6.41844e-05
5.62521e-05
6.06025e-05
6.22849e-05
5.49837e-05
5.62626e-05
6.22977e-05
5.49707e-05
5.63023e-05
6.06138e-05
5.50111e-05
6.23228e-05
5.50279e-05
6.23105e-05
5.62903e-05
5.73531e-05
6.03488e-05
6.41764e-05
6.47798e-05
5.73649e-05
6.03491e-05
6.41872e-05
5.62545e-05
6.06027e-05
5.49848e-05
6.22875e-05
5.62649e-05
5.49718e-05
6.23004e-05
5.73991e-05
6.42067e-05
6.41966e-05
5.73838e-05
6.59255e-05
5.35316e-05
5.94788e-05
5.94795e-05
5.94738e-05
5.94749e-05
6.59328e-05
6.58342e-05
5.33518e-05
5.93428e-05
5.93427e-05
6.58395e-05
5.93425e-05
5.93435e-05
6.58637e-05
5.33857e-05
5.93775e-05
5.9379e-05
6.58588e-05
5.93777e-05
5.93783e-05
5.61411e-05
6.22284e-05
5.48517e-05
6.05045e-05
6.2209e-05
5.48471e-05
5.61359e-05
5.72159e-05
6.02256e-05
6.47069e-05
6.40865e-05
6.41011e-05
6.02347e-05
5.72122e-05
5.72489e-05
6.41235e-05
6.4713e-05
6.02649e-05
6.41092e-05
6.02564e-05
5.72521e-05
5.60938e-05
6.04963e-05
6.21833e-05
5.48009e-05
6.22027e-05
5.48057e-05
5.60989e-05
5.61369e-05
6.22239e-05
5.48498e-05
6.05029e-05
6.22042e-05
5.48452e-05
5.61316e-05
5.72097e-05
6.0222e-05
6.47028e-05
6.4079e-05
6.40935e-05
6.0231e-05
5.72061e-05
5.72427e-05
6.41157e-05
6.47095e-05
6.02612e-05
6.41015e-05
5.72459e-05
6.02528e-05
5.60895e-05
6.04948e-05
6.21785e-05
5.47991e-05
6.21982e-05
5.48039e-05
5.60947e-05
5.61765e-05
6.22348e-05
5.48903e-05
6.05522e-05
5.6182e-05
6.22536e-05
5.48945e-05
5.73204e-05
6.03219e-05
6.47493e-05
6.41666e-05
6.03166e-05
6.41532e-05
5.73235e-05
5.72883e-05
6.41313e-05
6.02858e-05
6.47435e-05
6.02935e-05
5.72854e-05
6.41451e-05
5.62218e-05
6.05597e-05
6.22784e-05
5.49375e-05
6.22598e-05
5.49337e-05
5.62161e-05
5.61721e-05
6.223e-05
5.48885e-05
6.05506e-05
5.61778e-05
6.22491e-05
5.48927e-05
5.73142e-05
6.03182e-05
6.47457e-05
6.41589e-05
6.41453e-05
6.0313e-05
5.73172e-05
5.7282e-05
6.41237e-05
6.02822e-05
6.47395e-05
5.72791e-05
6.41375e-05
6.02898e-05
5.62175e-05
6.05581e-05
6.22739e-05
5.49356e-05
6.22549e-05
5.49317e-05
5.62117e-05
6.58327e-05
5.33407e-05
5.93425e-05
5.93456e-05
5.9341e-05
5.9338e-05
6.58399e-05
6.58642e-05
5.33927e-05
5.93712e-05
5.93753e-05
5.93773e-05
6.58572e-05
5.938e-05
5.61419e-05
6.22248e-05
5.48425e-05
6.05061e-05
6.22105e-05
5.48555e-05
5.61316e-05
5.72072e-05
6.023e-05
6.47085e-05
6.40868e-05
6.40995e-05
6.02312e-05
5.72177e-05
5.72539e-05
6.41217e-05
6.47151e-05
6.02617e-05
6.41096e-05
6.02606e-05
5.72437e-05
5.60901e-05
6.0494e-05
6.21845e-05
5.48085e-05
6.21992e-05
5.47967e-05
5.61e-05
5.61397e-05
5.48414e-05
6.22213e-05
6.05048e-05
5.48544e-05
6.22069e-05
5.61296e-05
5.72042e-05
6.02268e-05
6.47047e-05
6.408e-05
6.40926e-05
6.02288e-05
5.72144e-05
5.72504e-05
6.41148e-05
6.4711e-05
6.02614e-05
6.41026e-05
5.72406e-05
6.02551e-05
5.60881e-05
6.04927e-05
5.48076e-05
6.2181e-05
5.47958e-05
6.21957e-05
5.60978e-05
5.61725e-05
6.22361e-05
5.48983e-05
6.05497e-05
5.61828e-05
6.22502e-05
5.48854e-05
5.73251e-05
6.03198e-05
6.47515e-05
6.41651e-05
6.03199e-05
6.41537e-05
5.73151e-05
5.72788e-05
6.41316e-05
6.029e-05
6.47453e-05
6.02911e-05
5.72901e-05
6.41438e-05
5.62228e-05
6.05611e-05
6.22745e-05
5.49281e-05
6.2261e-05
5.49417e-05
5.62122e-05
5.61704e-05
5.48974e-05
6.22324e-05
6.05484e-05
5.61806e-05
5.48844e-05
6.22467e-05
5.73214e-05
6.03197e-05
6.47472e-05
6.4158e-05
6.41465e-05
6.03119e-05
5.73117e-05
5.72755e-05
6.41246e-05
6.02832e-05
6.47414e-05
5.72864e-05
6.41368e-05
6.02905e-05
5.62206e-05
6.05598e-05
5.49271e-05
6.22709e-05
5.49407e-05
6.22573e-05
5.62101e-05
5.61414e-05
5.4843e-05
6.22225e-05
6.05061e-05
5.48558e-05
6.22083e-05
5.61311e-05
5.72056e-05
6.02267e-05
6.47035e-05
6.40808e-05
6.02278e-05
6.40926e-05
5.72161e-05
5.72522e-05
6.4115e-05
6.47105e-05
6.02584e-05
6.02572e-05
6.41033e-05
5.72421e-05
5.60895e-05
6.0494e-05
5.4809e-05
6.21823e-05
5.47974e-05
6.2197e-05
5.60995e-05
5.61739e-05
6.22357e-05
5.48991e-05
6.055e-05
5.61841e-05
6.22498e-05
5.48867e-05
5.73273e-05
6.032e-05
6.4751e-05
6.41643e-05
5.73165e-05
6.03198e-05
6.4153e-05
5.72808e-05
6.41313e-05
6.02903e-05
6.47445e-05
5.72922e-05
6.02915e-05
6.41431e-05
5.6224e-05
6.05612e-05
6.22742e-05
5.49281e-05
5.62138e-05
6.22605e-05
5.4942e-05
5.6172e-05
5.48989e-05
6.22338e-05
6.05497e-05
5.61822e-05
5.4886e-05
6.22479e-05
5.73236e-05
6.03165e-05
6.47468e-05
6.41584e-05
6.41472e-05
6.03162e-05
5.73133e-05
5.72772e-05
6.41255e-05
6.02866e-05
6.47402e-05
5.72883e-05
6.4137e-05
6.02877e-05
5.62222e-05
6.05611e-05
5.49285e-05
6.22721e-05
5.49421e-05
6.22587e-05
5.62117e-05
6.58325e-05
5.33474e-05
5.93441e-05
5.93466e-05
5.9342e-05
5.93395e-05
6.5839e-05
6.58633e-05
5.33958e-05
5.9373e-05
5.93765e-05
5.9379e-05
6.5857e-05
5.93809e-05
5.614e-05
5.48422e-05
6.22203e-05
6.05039e-05
5.48552e-05
6.2206e-05
5.61297e-05
5.72047e-05
6.02284e-05
6.47061e-05
6.40801e-05
6.02295e-05
6.4093e-05
5.72151e-05
5.72512e-05
6.41153e-05
6.47126e-05
6.026e-05
6.02589e-05
6.41029e-05
5.72411e-05
5.60883e-05
6.04918e-05
5.48085e-05
6.218e-05
5.47967e-05
6.21948e-05
5.60981e-05
5.61764e-05
5.49003e-05
6.22383e-05
6.05503e-05
5.61866e-05
5.48879e-05
6.22525e-05
5.73294e-05
6.0321e-05
6.47516e-05
6.41668e-05
5.73192e-05
6.03208e-05
6.41554e-05
5.72833e-05
6.41335e-05
6.02913e-05
6.47451e-05
5.72945e-05
6.02925e-05
6.41457e-05
5.62264e-05
6.05614e-05
5.49292e-05
6.22769e-05
5.62162e-05
5.49432e-05
6.22631e-05
5.61706e-05
5.48982e-05
6.22315e-05
6.05474e-05
5.61808e-05
5.48852e-05
6.22456e-05
5.73225e-05
6.03183e-05
6.47491e-05
6.41584e-05
6.41469e-05
6.03179e-05
5.73122e-05
5.72762e-05
6.41247e-05
6.02883e-05
6.47427e-05
5.72873e-05
6.41373e-05
6.02894e-05
5.62207e-05
6.05588e-05
5.49277e-05
6.22699e-05
5.49413e-05
6.22564e-05
5.62102e-05
6.58635e-05
5.33927e-05
5.93729e-05
5.93733e-05
6.5856e-05
5.93777e-05
5.93791e-05
5.7358e-05
6.03428e-05
6.41742e-05
6.47783e-05
6.41872e-05
5.73553e-05
6.03505e-05
5.62553e-05
6.06045e-05
6.22836e-05
5.49763e-05
6.23025e-05
5.62606e-05
5.49794e-05
5.73517e-05
6.03391e-05
6.41664e-05
6.47744e-05
5.73491e-05
6.41796e-05
6.0347e-05
5.62509e-05
6.06029e-05
6.22788e-05
5.49745e-05
5.62564e-05
6.22981e-05
5.49775e-05
5.73484e-05
6.03478e-05
6.41743e-05
6.47803e-05
6.41856e-05
5.73591e-05
6.03499e-05
5.62511e-05
6.06026e-05
6.22853e-05
5.49834e-05
6.22984e-05
5.62615e-05
5.49709e-05
5.73449e-05
6.034e-05
6.4167e-05
6.47761e-05
5.73552e-05
6.41784e-05
6.03469e-05
5.62489e-05
6.06012e-05
5.49825e-05
6.22815e-05
5.62592e-05
5.497e-05
6.22948e-05
5.62984e-05
6.06135e-05
5.501e-05
6.23184e-05
5.50274e-05
6.23062e-05
5.62862e-05
5.73463e-05
6.0344e-05
6.4168e-05
6.47749e-05
6.03436e-05
5.73579e-05
6.41787e-05
5.62505e-05
6.06024e-05
5.4984e-05
6.22829e-05
5.49713e-05
5.62609e-05
6.22961e-05
5.73931e-05
6.41983e-05
6.47812e-05
6.037e-05
6.03718e-05
6.41885e-05
5.73779e-05
5.62969e-05
6.06113e-05
5.50093e-05
6.23161e-05
5.50264e-05
6.2304e-05
5.62848e-05
5.7345e-05
6.03455e-05
6.41676e-05
6.47774e-05
6.03456e-05
5.7357e-05
6.41788e-05
5.6249e-05
6.06002e-05
5.49832e-05
6.22806e-05
5.49705e-05
5.62594e-05
6.22937e-05
5.73923e-05
6.41985e-05
6.47835e-05
6.03722e-05
6.03733e-05
6.41882e-05
5.7377e-05
3.64641e-05
4.17667e-05
3.64634e-05
7.13543e-05
6.0187e-05
6.95324e-05
6.68971e-05
6.68939e-05
6.95307e-05
6.01886e-05
7.1356e-05
7.01868e-05
7.13415e-05
7.73922e-05
7.7371e-05
7.02007e-05
6.95198e-05
7.00867e-05
5.93329e-05
6.68823e-05
7.11459e-05
5.92828e-05
7.11271e-05
7.01096e-05
7.00362e-05
5.93254e-05
6.68794e-05
7.11355e-05
7.11208e-05
5.92774e-05
7.00574e-05
9.2341e-05
7.2031e-05
7.20366e-05
7.2017e-05
7.20226e-05
9.23529e-05
6.95181e-05
7.0185e-05
7.13432e-05
7.74011e-05
7.73819e-05
7.01997e-05
5.95216e-05
4.17735e-05
5.05041e-05
5.05034e-05
5.04764e-05
5.04762e-05
5.95537e-05
4.80639e-05
5.25165e-05
6.01429e-05
5.85159e-05
5.84573e-05
5.24884e-05
4.80759e-05
4.80658e-05
5.25181e-05
6.01461e-05
5.85193e-05
5.24897e-05
5.84633e-05
4.80785e-05
2.10408e-05
3.66938e-05
3.66978e-05
4.19395e-05
2.17992e-05
3.75993e-05
3.76033e-05
4.26671e-05
2.2576e-05
3.84789e-05
3.84829e-05
4.33662e-05
2.33672e-05
3.93316e-05
3.93357e-05
4.40354e-05
2.4169e-05
4.01563e-05
4.01607e-05
4.46905e-05
2.49774e-05
4.09527e-05
4.09573e-05
4.53121e-05
2.57888e-05
4.17205e-05
4.17251e-05
4.59154e-05
2.65996e-05
4.24595e-05
4.2464e-05
4.64881e-05
2.74064e-05
4.31696e-05
4.31739e-05
4.70468e-05
2.82061e-05
4.38507e-05
4.38551e-05
4.75821e-05
2.89957e-05
4.45035e-05
4.45079e-05
4.80918e-05
2.97729e-05
4.51282e-05
4.51323e-05
4.85821e-05
3.0535e-05
4.57249e-05
4.57289e-05
4.90449e-05
3.12799e-05
4.6294e-05
4.62979e-05
4.94906e-05
3.20057e-05
4.6836e-05
4.68397e-05
4.99149e-05
3.2711e-05
4.73509e-05
4.73548e-05
5.03182e-05
3.3394e-05
4.78395e-05
4.78432e-05
5.07048e-05
3.40535e-05
4.8302e-05
4.83056e-05
5.10687e-05
3.46885e-05
4.87386e-05
4.87424e-05
5.14162e-05
3.5298e-05
4.915e-05
4.91537e-05
5.17407e-05
3.58813e-05
4.95364e-05
4.95401e-05
5.20448e-05
3.64377e-05
4.98984e-05
4.9902e-05
5.23302e-05
3.69668e-05
5.02363e-05
5.02398e-05
5.25959e-05
3.74681e-05
5.05506e-05
5.0554e-05
5.2845e-05
3.79416e-05