/*--------------------------------*- C++ -*----------------------------------*\
| =========                 |                                                 |
| \\      /  F ield         | OpenFOAM: The Open Source CFD Toolbox           |
|  \\    /   O peration     | Version:  2312                                  |
|   \\  /    A nd           | Website:  www.openfoam.com                      |
|    \\/     M anipulation  |                                                 |
\*---------------------------------------------------------------------------*/
FoamFile
{
    version     2.0;
    format      ascii;
    arch        "LSB;label=32;scalar=64";
    class       volScalarField;
    location    "1000";
    object      nut;
}
// * * * * * * * * * * * * * * * * * * * * * * * * * * * * * * * * * * * * * //

dimensions      [0 2 -1 0 0 0 0];

internalField   nonuniform List<scalar> 
43496
(
9.98388e-05
2.38911e-05
0.0002005
0.000103599
0.000144113
0.000210022
9.9836e-05
5.07387e-05
0.00014411
0.000200464
0.00021002
0.00010358
0.000182019
7.7891e-05
7.7906e-05
2.38933e-05
5.0744e-05
3.67136e-05
9.9813e-05
9.44559e-05
4.10537e-05
9.44338e-05
4.10542e-05
3.67125e-05
2.03165e-05
7.90784e-05
7.90607e-05
2.03185e-05
2.3889e-05
3.67079e-05
9.98101e-05
4.10536e-05
9.44462e-05
4.1054e-05
9.44237e-05
3.67154e-05
2.03155e-05
7.90578e-05
5.07325e-05
7.90404e-05
2.03175e-05
8.14833e-05
2.17077e-05
2.17109e-05
2.17057e-05
2.17089e-05
8.149e-05
0.0001052
4.86468e-05
7.78813e-05
0.000128754
4.86391e-05
0.000128696
0.000105218
0.000105197
4.86595e-05
7.78943e-05
0.000128784
0.000128727
4.86516e-05
0.000105216
2.38912e-05
5.07377e-05
0.000203205
0.000206576
0.000203213
0.000103559
0.000147541
0.000147515
0.000171217
0.000144039
0.000137568
0.000176439
0.000137501
0.000176451
0.00017128
0.000160684
0.000122731
0.000122678
0.000160701
0.000171208
0.000144036
0.000176437
0.000137559
0.000176448
0.000137494
0.000171273
0.00016068
0.00012272
0.000103539
0.000147526
0.000122667
0.000160687
0.000147459
0.000138282
0.0001818
0.000161756
0.000161778
0.000161694
0.000161669
0.000138329
0.00020345
0.000198754
0.000198762
0.000180597
0.00020596
0.000200156
0.000200163
0.000181551
0.000180692
0.000181482
0.00019874
0.000198721
0.000199797
0.000199773
0.00018061
0.00018155
0.00019875
0.000198727
0.000199808
0.000199784
0.000198726
0.000199807
0.000199788
0.000180661
0.000181559
0.000198739
0.000199819
0.000199797
0.000181539
0.000181647
0.000200141
0.000200123
0.000181565
0.000200151
0.000200128
0.000200128
0.000181567
0.00020014
9.973e-05
5.0716e-05
5.07272e-05
9.9662e-05
2.38785e-05
2.38829e-05
9.97235e-05
5.07134e-05
5.07199e-05
9.96628e-05
0.000203445
0.000203458
0.000203449
0.000205341
0.000205332
0.000205348
0.000205345
0.000143705
0.000103361
0.000207743
0.000199107
0.000103445
0.000208207
0.000143511
2.38775e-05
2.38819e-05
0.000143705
0.00020775
0.000103361
0.000199119
0.000208219
0.000103446
0.000143512
7.78096e-05
7.78053e-05
0.000181061
7.7836e-05
7.78303e-05
5.07367e-05
9.97843e-05
2.38877e-05
5.07338e-05
9.97846e-05
0.000205955
0.000205967
0.000205957
0.00014411
0.000103521
0.000209581
0.000143935
0.000210021
2.38868e-05
0.00014411
0.000209588
0.000103522
0.000143935
0.000210032
7.78736e-05
7.7868e-05
0.000182005
7.78981e-05
7.78922e-05
2.38805e-05
2.38849e-05
2.38785e-05
2.38829e-05
7.78201e-05
7.78121e-05
0.000181007
7.78451e-05
7.78404e-05
2.38895e-05
2.38852e-05
2.38875e-05
2.38831e-05
0.000181165
7.78762e-05
7.78711e-05
7.78523e-05
7.78447e-05
9.9727e-05
5.07104e-05
5.07216e-05
9.96588e-05
0.000143721
0.000103361
0.000207741
0.000199096
0.000103447
0.000208208
0.000143506
0.000143716
0.000103337
0.000207734
0.000199073
0.000103424
0.0002082
0.000143501
9.97243e-05
5.07375e-05
5.07265e-05
9.97908e-05
9.9721e-05
5.07311e-05
5.07209e-05
9.97868e-05
0.000143722
0.000199451
0.000103526
0.000209127
0.000103443
0.000208672
0.000143928
0.000143718
0.000199432
0.000103502
0.000209119
0.000103419
0.000208665
0.000143924
7.77991e-05
7.78204e-05
0.000181073
7.78246e-05
7.78455e-05
2.38798e-05
2.38841e-05
2.38874e-05
2.38831e-05
0.000181082
7.78555e-05
7.78778e-05
7.78314e-05
7.78529e-05
2.38888e-05
2.38845e-05
0.000143706
0.000103352
0.000207739
0.000199106
0.000103437
0.000208207
0.000143512
9.97205e-05
5.07071e-05
5.07183e-05
9.966e-05
0.000143703
0.000207738
0.000103343
0.000199084
0.000208205
0.000103427
0.00014351
9.97249e-05
5.07301e-05
5.07237e-05
9.97833e-05
0.000143729
0.00019946
0.000103516
0.000209126
0.000103434
0.000208671
0.000143913
9.9722e-05
5.07284e-05
5.07175e-05
9.97801e-05
0.000143726
0.000199437
0.000209124
0.000103505
0.000208669
0.000103423
0.000143911
9.97169e-05
5.07146e-05
5.0721e-05
9.96545e-05
0.000143706
0.000207739
0.00010335
0.000199089
0.000208206
0.000103434
0.000143513
9.97219e-05
5.07082e-05
5.07194e-05
9.96614e-05
0.000143728
0.000199465
0.000103523
0.000209126
0.000103443
0.000208674
0.000143912
9.97167e-05
5.07313e-05
5.07249e-05
9.97764e-05
0.000143729
0.000199436
0.000209124
0.000103512
0.00020867
0.000103431
0.000143913
9.97234e-05
5.07295e-05
5.07186e-05
9.97814e-05
7.7805e-05
7.78168e-05
0.00018108
7.78299e-05
7.78449e-05
2.38797e-05
2.38842e-05
2.38865e-05
2.38822e-05
0.000181113
7.78616e-05
7.7876e-05
7.78374e-05
7.7849e-05
2.38888e-05
2.38844e-05
0.000143696
0.000207741
0.000103343
0.000199097
0.000208209
0.000103428
0.000143503
9.97154e-05
5.07122e-05
5.07235e-05
9.96531e-05
9.97059e-05
5.07067e-05
5.07179e-05
9.96419e-05
0.000143728
0.000199472
0.000209137
0.000103524
0.000208681
0.000103444
0.000143911
0.00014372
0.000199449
0.000209127
0.000103506
0.000208672
0.000103424
0.000143904
9.97153e-05
5.07337e-05
5.07228e-05
9.97749e-05
9.97042e-05
5.0728e-05
5.07171e-05
9.97655e-05
2.38784e-05
2.38828e-05
2.38773e-05
2.38817e-05
0.000181071
7.78667e-05
7.78614e-05
7.78425e-05
7.78377e-05
2.38874e-05
2.3883e-05
2.38863e-05
2.3882e-05
2.38898e-05
2.38877e-05
7.78827e-05
7.78756e-05
5.07338e-05
9.97806e-05
0.000103521
0.00020958
0.00014393
0.000103497
0.000209573
0.000143926
7.78619e-05
7.7882e-05
2.38891e-05
0.000103512
0.000209578
0.000143937
5.07278e-05
9.97814e-05
0.000209577
0.000103501
0.000143934
9.98322e-05
5.07352e-05
9.97761e-05
0.000144112
0.000209578
0.00010351
0.000200469
0.000143937
0.00021002
0.000103586
9.98372e-05
5.07289e-05
9.97827e-05
5.07398e-05
7.78668e-05
7.78798e-05
2.3889e-05
0.000144102
0.00020958
0.000103503
0.000200479
0.000143927
0.000210022
0.00010358
9.98308e-05
5.07331e-05
9.97747e-05
9.98214e-05
5.07273e-05
9.97636e-05
5.07383e-05
2.38876e-05
2.38919e-05
2.38866e-05
2.38909e-05
3.66992e-05
4.10378e-05
9.43725e-05
9.96929e-05
4.10377e-05
9.43384e-05
3.66984e-05
2.03087e-05
5.0722e-05
7.90065e-05
7.90259e-05
2.03066e-05
2.03085e-05
7.90379e-05
5.07213e-05
7.90188e-05
2.03106e-05
3.66947e-05
9.96992e-05
4.10332e-05
9.43136e-05
4.10336e-05
9.43479e-05
3.66956e-05
2.38805e-05
2.38808e-05
3.66992e-05
9.43646e-05
4.10372e-05
9.96946e-05
9.43403e-05
4.10372e-05
3.66982e-05
2.0309e-05
5.07148e-05
7.90026e-05
7.90214e-05
2.0307e-05
2.03089e-05
7.90334e-05
5.07185e-05
7.90149e-05
2.03109e-05
3.66946e-05
9.96924e-05
9.43157e-05
4.10327e-05
9.43407e-05
4.10331e-05
3.66956e-05
2.38796e-05
2.38799e-05
8.14429e-05
2.17029e-05
2.16997e-05
2.17009e-05
2.16977e-05
8.14493e-05
0.000105054
0.000128361
7.78208e-05
4.86252e-05
0.000128424
4.86325e-05
0.000105034
0.000105061
0.000128341
7.7814e-05
4.86185e-05
0.000128406
4.86185e-05
0.000105041
0.000105067
4.86374e-05
7.78262e-05
0.000128497
0.000128435
4.86303e-05
0.000105087
0.000105074
4.86233e-05
7.78218e-05
0.000128479
0.000128415
4.86233e-05
0.000105093
8.1439e-05
2.1699e-05
2.16958e-05
2.17011e-05
2.16978e-05
8.14326e-05
2.03162e-05
7.90539e-05
5.07418e-05
2.03142e-05
7.9072e-05
3.6709e-05
9.98177e-05
4.10505e-05
9.44101e-05
3.67106e-05
4.10498e-05
9.4444e-05
2.38897e-05
2.03166e-05
7.905e-05
5.07358e-05
2.03146e-05
7.90675e-05
3.67095e-05
9.98119e-05
9.44118e-05
4.10498e-05
3.67103e-05
9.44348e-05
4.10501e-05
2.38888e-05
8.14819e-05
2.17103e-05
2.17071e-05
2.17084e-05
2.17051e-05
8.14876e-05
0.000105179
0.000128648
4.86482e-05
7.78817e-05
0.000105161
0.000128706
4.8648e-05
0.000105186
0.000128628
4.86377e-05
7.78764e-05
0.000105168
0.000128688
4.86374e-05
8.14788e-05
2.17065e-05
2.17033e-05
8.14726e-05
2.17085e-05
2.17053e-05
0.000105191
4.86521e-05
7.78877e-05
0.000128772
0.000128716
4.86531e-05
0.000105209
0.000105197
4.86414e-05
7.78822e-05
0.000128754
0.000128696
4.86423e-05
0.000105215
2.38826e-05
2.38829e-05
2.38805e-05
2.38808e-05
8.14478e-05
2.17033e-05
2.17e-05
2.17013e-05
2.1698e-05
8.14556e-05
0.000105062
0.000128374
7.78289e-05
4.86321e-05
4.86319e-05
0.000128431
0.000105043
0.000105066
0.00012835
7.78239e-05
4.86156e-05
4.8623e-05
0.000128413
0.000105042
0.000105075
4.86367e-05
7.78364e-05
0.000128504
4.86368e-05
0.000105095
0.000128448
0.000105075
4.86279e-05
7.7829e-05
0.000128486
4.86206e-05
0.000105098
0.000128424
8.14452e-05
2.16994e-05
2.16961e-05
2.17014e-05
2.16981e-05
8.14373e-05
2.38875e-05
2.38872e-05
2.38855e-05
2.38852e-05
8.14656e-05
2.17032e-05
2.16999e-05
8.14581e-05
2.17052e-05
2.17019e-05
0.000105138
0.000128645
7.78677e-05
4.86462e-05
4.86466e-05
0.000128592
0.000105157
0.000105138
0.000128627
7.78603e-05
4.8637e-05
4.86297e-05
0.000128568
0.00010516
0.000105126
4.86417e-05
0.000128521
7.78612e-05
0.000105107
4.86419e-05
0.000128575
0.00010513
4.86253e-05
0.000128497
7.78555e-05
0.000105107
4.86322e-05
0.000128557
8.1468e-05
2.17071e-05
2.17038e-05
2.1705e-05
2.17017e-05
8.14753e-05
3.66939e-05
4.10377e-05
9.43619e-05
9.96898e-05
4.10375e-05
9.43276e-05
3.67007e-05
2.0308e-05
5.07164e-05
7.89848e-05
7.9004e-05
2.03059e-05
2.03078e-05
7.9016e-05
5.07157e-05
7.89969e-05
2.03099e-05
3.66969e-05
9.9696e-05
4.1033e-05
9.43036e-05
4.10336e-05
9.43377e-05
3.66899e-05
3.6702e-05
4.10416e-05
9.43636e-05
9.97605e-05
3.67028e-05
4.10423e-05
9.43966e-05
2.03123e-05
5.07313e-05
7.90609e-05
2.03144e-05
7.90426e-05
2.03125e-05
7.90307e-05
5.0732e-05
2.03104e-05
7.90495e-05
3.67067e-05
9.97544e-05
4.10464e-05
9.44203e-05
3.6706e-05
4.10458e-05
9.43878e-05
3.67044e-05
4.10416e-05
9.43525e-05
9.97575e-05
3.66977e-05
4.10421e-05
9.43861e-05
2.03116e-05
5.0726e-05
7.90392e-05
7.90205e-05
2.03137e-05
2.03118e-05
7.90088e-05
5.07262e-05
2.03097e-05
7.90277e-05
3.67012e-05
9.97511e-05
4.10461e-05
9.441e-05
4.10458e-05
9.43764e-05
3.6708e-05
8.14449e-05
2.17e-05
2.17031e-05
2.1698e-05
2.1701e-05
8.14529e-05
0.000105064
0.000128341
7.78083e-05
4.8619e-05
4.86189e-05
0.0001284
0.000105041
0.000105062
0.000128373
7.78295e-05
4.86307e-05
0.000128434
4.86306e-05
0.000105037
0.000105073
4.86237e-05
7.78155e-05
0.000128473
4.86237e-05
0.000128415
0.000105096
0.00010507
4.86354e-05
7.78369e-05
0.000128507
0.000128447
4.86354e-05
0.000105094
8.14426e-05
2.16961e-05
2.16991e-05
2.16981e-05
2.17012e-05
8.14344e-05
2.38818e-05
2.38822e-05
2.38854e-05
2.38852e-05
8.1463e-05
2.16999e-05
2.17029e-05
8.14552e-05
2.17019e-05
2.17049e-05
0.000105137
0.000128614
7.78468e-05
4.86332e-05
0.000128559
4.86335e-05
0.000105159
0.000105134
0.000128648
7.78681e-05
4.86461e-05
4.86444e-05
0.00012859
0.000105157
0.000105129
4.86287e-05
0.000128488
7.78404e-05
0.000128544
0.000105106
4.86289e-05
0.000105126
4.86402e-05
0.000128519
7.78617e-05
0.000105103
4.86409e-05
0.000128578
8.14651e-05
2.17037e-05
2.17068e-05
2.17017e-05
2.17048e-05
8.14728e-05
2.38868e-05
2.38865e-05
3.66935e-05
4.1037e-05
9.43546e-05
9.96914e-05
4.10369e-05
9.43296e-05
3.67002e-05
2.03081e-05
5.07131e-05
7.89818e-05
7.90007e-05
2.0306e-05
2.03079e-05
7.90128e-05
5.07124e-05
7.89942e-05
2.031e-05
3.66965e-05
9.96899e-05
4.10324e-05
9.43047e-05
4.10329e-05
9.43302e-05
3.66896e-05
3.6702e-05
9.43644e-05
4.10412e-05
9.97542e-05
3.67029e-05
9.43891e-05
4.10417e-05
2.03127e-05
5.07291e-05
7.90563e-05
2.03147e-05
7.9039e-05
2.03128e-05
7.90269e-05
5.07254e-05
2.03108e-05
7.90452e-05
3.67064e-05
9.97549e-05
9.44125e-05
4.10457e-05
3.67062e-05
9.43882e-05
4.10454e-05
3.6704e-05
4.1041e-05
9.4354e-05
9.97511e-05
3.66974e-05
4.10414e-05
9.43791e-05
2.03117e-05
5.07224e-05
7.90361e-05
7.9018e-05
2.03138e-05
2.03119e-05
7.90062e-05
5.07232e-05
2.03098e-05
7.90246e-05
3.67009e-05
9.97521e-05
4.10455e-05
9.44021e-05
4.10453e-05
9.43779e-05
3.67073e-05
3.66993e-05
9.4355e-05
4.10366e-05
9.96861e-05
9.43275e-05
4.10367e-05
3.6698e-05
2.03092e-05
5.07159e-05
7.89999e-05
7.90104e-05
2.03071e-05
2.0309e-05
7.90224e-05
5.07197e-05
7.90121e-05
2.03111e-05
3.66945e-05
9.96863e-05
9.43025e-05
4.10322e-05
9.43308e-05
4.10325e-05
3.66956e-05
3.66979e-05
4.10374e-05
9.43573e-05
9.96928e-05
4.10374e-05
9.43328e-05
3.66969e-05
2.03083e-05
5.07142e-05
7.8983e-05
7.90014e-05
2.03062e-05
2.03082e-05
7.90134e-05
5.07136e-05
7.89952e-05
2.03102e-05
3.66933e-05
9.96913e-05
4.10329e-05
9.43081e-05
4.10333e-05
9.43333e-05
3.66943e-05
3.67017e-05
9.43517e-05
4.10407e-05
9.97475e-05
3.67029e-05
9.43792e-05
4.10409e-05
2.03128e-05
5.07301e-05
7.90458e-05
7.90356e-05
2.03149e-05
2.0313e-05
7.90241e-05
5.07265e-05
2.03109e-05
7.90345e-05
3.67067e-05
9.97467e-05
9.44022e-05
4.10451e-05
9.43755e-05
4.10451e-05
3.67056e-05
3.67006e-05
4.10415e-05
9.43571e-05
9.97525e-05
3.67015e-05
4.10418e-05
9.43818e-05
2.0312e-05
5.07236e-05
7.90367e-05
7.90187e-05
2.0314e-05
2.03121e-05
7.90072e-05
5.07243e-05
2.03101e-05
7.90251e-05
3.67053e-05
9.97534e-05
4.10459e-05
9.44046e-05
4.10458e-05
9.4381e-05
3.67046e-05
8.14446e-05
2.17002e-05
2.17035e-05
2.16982e-05
2.17015e-05
8.14511e-05
0.000105065
0.000128341
7.78136e-05
4.86196e-05
4.86195e-05
0.000128405
0.000105045
0.000105063
0.000128372
7.78285e-05
4.8629e-05
0.000128435
4.86341e-05
0.000105041
0.000105078
4.86243e-05
7.78214e-05
0.000128478
4.86242e-05
0.000128415
0.000105097
0.000105073
4.864e-05
7.78332e-05
0.000128508
0.000128446
4.86326e-05
0.000105096
8.14407e-05
2.16963e-05
2.16996e-05
2.16984e-05
2.17016e-05
8.14342e-05
2.38818e-05
2.38821e-05
2.38845e-05
2.38842e-05
8.14614e-05
2.17001e-05
2.17033e-05
8.14546e-05
2.17021e-05
2.17054e-05
0.000105139
0.000128619
7.78521e-05
4.86351e-05
0.000128559
4.86329e-05
0.000105161
0.000105136
0.00012865
7.78642e-05
4.86495e-05
4.86421e-05
0.000128589
0.000105159
0.00010513
4.86291e-05
0.000128488
7.7846e-05
0.000128549
0.000105109
4.86298e-05
0.000105128
4.86377e-05
0.000128518
7.78603e-05
0.000105105
4.86445e-05
0.00012858
8.14644e-05
2.1704e-05
2.17072e-05
2.1702e-05
2.17052e-05
8.14714e-05
2.38867e-05
2.38865e-05
3.66997e-05
9.43658e-05
4.10365e-05
9.96848e-05
9.43415e-05
4.10367e-05
3.66988e-05
2.03097e-05
5.07182e-05
7.90036e-05
7.90224e-05
2.03076e-05
2.03096e-05
7.90344e-05
5.07176e-05
7.90159e-05
2.03116e-05
3.66951e-05
9.96848e-05
9.43169e-05
4.10322e-05
9.43418e-05
4.10324e-05
3.66962e-05
3.66968e-05
9.43465e-05
4.10359e-05
9.96736e-05
9.43206e-05
4.10362e-05
3.66956e-05
2.03078e-05
5.07127e-05
7.89807e-05
7.89995e-05
2.03057e-05
2.03077e-05
7.90114e-05
5.0712e-05
7.89929e-05
2.03097e-05
3.6692e-05
9.96752e-05
9.42957e-05
4.10317e-05
9.43224e-05
4.10318e-05
3.66932e-05
3.67025e-05
9.43657e-05
4.10407e-05
9.9746e-05
3.67033e-05
9.43902e-05
4.10409e-05
2.03134e-05
5.07277e-05
7.90575e-05
7.90396e-05
2.03154e-05
2.03135e-05
7.90278e-05
5.07284e-05
2.03115e-05
7.90461e-05
3.67071e-05
9.97454e-05
9.44131e-05
4.1045e-05
9.43896e-05
4.10451e-05
3.67064e-05
3.66993e-05
9.43448e-05
4.10402e-05
9.97365e-05
3.67004e-05
9.43709e-05
4.10403e-05
2.03115e-05
5.0722e-05
7.90346e-05
7.90166e-05
2.03135e-05
2.03116e-05
7.90049e-05
5.07227e-05
2.03096e-05
7.90232e-05
3.67041e-05
9.97343e-05
9.43938e-05
4.10444e-05
9.43687e-05
4.10446e-05
3.67033e-05
2.38805e-05
2.38807e-05
2.38794e-05
2.38797e-05
8.14594e-05
2.17028e-05
2.16996e-05
8.1453e-05
2.17048e-05
2.17016e-05
0.00010513
0.000128637
7.78584e-05
4.86437e-05
0.000105149
0.000128579
4.86433e-05
0.000105137
0.000128619
7.78531e-05
4.86329e-05
0.000105156
0.000128558
4.86331e-05
0.000105118
4.86351e-05
0.000128507
7.78512e-05
0.000105098
0.000128567
4.8641e-05
0.000105125
4.86281e-05
0.000128487
7.78464e-05
0.000105106
0.00012855
4.86285e-05
8.14628e-05
2.17067e-05
2.17034e-05
8.14693e-05
2.17047e-05
2.17014e-05
2.38854e-05
2.38851e-05
2.38843e-05
2.3884e-05
2.38918e-05
2.38897e-05
0.000105187
0.000128661
4.86513e-05
7.78905e-05
0.000105169
4.86502e-05
0.000128713
0.000105188
0.000128637
4.86356e-05
7.78846e-05
0.000105169
4.86405e-05
0.000128695
8.14847e-05
2.17069e-05
2.17036e-05
8.14778e-05
2.17089e-05
2.17056e-05
2.03156e-05
7.90319e-05
5.0734e-05
2.03135e-05
7.905e-05
3.67121e-05
9.98143e-05
4.10506e-05
9.43989e-05
4.10497e-05
3.67048e-05
9.44334e-05
0.00010519
0.000128628
4.86383e-05
7.78699e-05
4.86372e-05
0.000105167
0.000128683
0.000105188
0.000128659
4.86461e-05
7.78938e-05
0.000128715
0.000105164
4.86527e-05
8.14825e-05
2.17036e-05
2.17066e-05
2.17056e-05
8.14748e-05
2.17087e-05
2.03156e-05
7.90293e-05
5.07333e-05
2.03136e-05
7.90471e-05
3.67111e-05
9.98092e-05
4.10495e-05
9.44013e-05
4.105e-05
3.67051e-05
9.44252e-05
3.67135e-05
9.98048e-05
4.1053e-05
9.44213e-05
4.10538e-05
2.03168e-05
7.90467e-05
5.07359e-05
7.90565e-05
2.03147e-05
3.67101e-05
9.98053e-05
9.43987e-05
4.10492e-05
9.44248e-05
3.67102e-05
4.10495e-05
2.03165e-05
3.67129e-05
9.98113e-05
4.10539e-05
9.44485e-05
4.10544e-05
9.44265e-05
3.67124e-05
2.03159e-05
7.903e-05
5.07346e-05
2.03138e-05
7.90475e-05
3.67081e-05
9.98104e-05
4.105e-05
9.4404e-05
3.67087e-05
4.10504e-05
9.44276e-05
2.03157e-05
7.90582e-05
5.07337e-05
7.90409e-05
2.03177e-05
0.000105191
0.000128628
4.86356e-05
7.78765e-05
4.86411e-05
0.00010517
0.000128687
0.000105189
0.000128658
4.86475e-05
7.78903e-05
0.000128717
0.000105167
4.86543e-05
8.14809e-05
2.17038e-05
2.17071e-05
2.17058e-05
8.1474e-05
2.17091e-05
2.3891e-05
3.67147e-05
9.98034e-05
9.44569e-05
4.1053e-05
9.4435e-05
4.10537e-05
3.67143e-05
2.03173e-05
7.90509e-05
5.07386e-05
7.90685e-05
2.03153e-05
3.671e-05
9.98039e-05
9.44127e-05
4.10492e-05
9.4436e-05
3.67105e-05
4.10495e-05
2.03171e-05
7.9079e-05
7.90619e-05
2.03191e-05
3.67109e-05
9.97923e-05
9.44377e-05
4.10524e-05
9.44142e-05
4.10532e-05
3.67103e-05
2.03154e-05
7.90278e-05
5.0733e-05
2.03133e-05
7.90456e-05
3.6707e-05
9.97944e-05
9.43917e-05
4.10487e-05
3.67074e-05
9.44168e-05
4.10489e-05
2.03152e-05
7.90562e-05
5.07322e-05
7.90387e-05
2.03172e-05
2.38897e-05
2.38899e-05
2.38886e-05
2.38888e-05
0.000199215
0.000199215
0.000204087
0.000200025
0.000200025
0.000189323
0.000188299
0.000137901
0.000160896
0.000160882
0.000180823
0.000160984
0.000160971
0.000137853
0.000202421
0.000202421
0.000193388
0.000192377
0.00013824
0.000161526
0.000161516
0.000181773
0.000138194
0.000161611
0.000161597
0.000137905
0.00016093
0.000160909
0.000180768
0.000160985
0.000160962
0.000137868
0.000138126
0.000181412
0.000161444
0.000161443
0.000161397
0.000161388
0.000138162
0.000137908
0.000160884
0.000160906
0.000180835
0.000160995
0.000160972
0.000137859
0.000138118
0.000181328
0.000161442
0.000161463
0.000161362
0.000161381
0.000138162
0.000137904
0.000160889
0.000160911
0.000180805
0.000160993
0.000160972
0.000137861
0.00013812
0.000181343
0.000161448
0.000161469
0.000161368
0.000161386
0.000138162
0.000138111
0.000181318
0.000161454
0.000161445
0.000138156
0.000161371
0.000161353
0.000138243
0.000161561
0.000161541
0.000181698
0.000138209
0.000161603
0.000161582
0.000138245
0.000161515
0.000161538
0.000181781
0.000161623
0.000138201
0.000161602
0.000138244
0.000161517
0.000161535
0.000181783
0.000161621
0.000138202
0.000161598
0.000199213
0.000199215
0.000204077
0.000200022
0.000200023
0.000189322
0.0001883
0.000199224
0.000199228
0.000204094
0.000200033
0.000200038
0.000189332
0.000188309
0.000199224
0.000199225
0.00020409
0.000200032
0.000200037
0.000189332
0.00018831
0.000204718
0.000201628
0.000201628
0.00020083
0.000200831
0.000190344
0.000191361
0.000204713
0.000201625
0.000201625
0.000200828
0.000200831
0.000190344
0.000191361
0.000204725
0.000201636
0.000201641
0.000200839
0.000200843
0.000190353
0.000191371
0.000204717
0.000201634
0.00020164
0.000200839
0.000200839
0.000190354
0.000191371
0.000170447
0.000137218
0.000175602
0.000143622
0.000137144
0.000175588
0.000170516
0.000159952
0.000146908
0.000103404
0.000122359
0.000146945
0.00012242
0.000159915
0.000160072
0.000122486
0.000103403
0.00014707
0.000147033
0.000122425
0.000160108
0.000170321
0.000143598
0.000137051
0.000175352
0.000137127
0.000175373
0.000170244
0.000170456
0.000175605
0.000137226
0.000143622
0.000175591
0.000137153
0.000170522
0.00015996
0.000146912
0.000103406
0.000122366
0.000146949
0.000122427
0.000159923
0.00016008
0.000122493
0.000103403
0.000147074
0.000147037
0.000122433
0.000160115
0.000170328
0.000143598
0.000175356
0.00013706
0.000175376
0.000137135
0.000170253
0.000137941
0.00018084
0.000161139
0.000161134
0.000161056
0.000161038
0.000137987
0.000202419
0.000202422
0.000203203
0.000193388
0.000192377
0.000202429
0.000202433
0.000203219
0.000193397
0.000192386
0.000202431
0.000202428
0.000206574
0.00020321
0.000203221
0.000193397
0.000192387
0.000171226
0.000144037
0.000137566
0.000176437
0.0001375
0.000176449
0.000171277
0.000160564
0.000147397
0.000122619
0.000103561
0.000160554
0.000147422
0.000122675
0.000171093
0.000144014
0.000137415
0.000176225
0.000171037
0.000137484
0.000176239
0.000171229
0.000144037
0.00017644
0.000137574
0.000176451
0.000137508
0.000171288
0.000160574
0.000147397
0.000122628
0.000103562
0.000160557
0.000147433
0.000122683
0.000171101
0.000144013
0.000176227
0.000137423
0.000171043
0.000176241
0.000137491
0.000160713
0.000122741
0.000122689
0.000160712
0.000138274
0.000181781
0.000161766
0.000161751
0.000161677
0.000161665
0.000138322
0.000137956
0.000180929
0.000161139
0.000161121
0.000137993
0.000161081
0.000161069
0.000138078
0.000181251
0.00016124
0.00016123
0.000138042
0.000161297
0.000161284
0.000170424
0.000137236
0.000175664
0.000143615
0.000137138
0.000175525
0.000170558
0.000159996
0.000146888
0.000103406
0.000122357
0.000122428
0.000146964
0.000159863
0.00016002
0.000122494
0.000103402
0.000147088
0.000122424
0.000147014
0.000160159
0.000170343
0.000143613
0.000137046
0.000175297
0.000137143
0.000175435
0.000170224
0.000170404
0.000137223
0.000175659
0.00014361
0.000137125
0.00017552
0.000170548
0.000159974
0.000146856
0.000103383
0.00012234
0.00012241
0.000146933
0.000159839
0.000159995
0.000122476
0.000103379
0.000147056
0.000122406
0.000160138
0.000146982
0.000170332
0.000143608
0.000137033
0.000175291
0.00013713
0.000175431
0.000170207
0.000170768
0.000137231
0.000175739
0.000143826
0.00017061
0.000137327
0.000175877
0.000160316
0.000147324
0.000103482
0.000122623
0.000147264
0.000122555
0.000160489
0.000160326
0.00012249
0.000147135
0.000103487
0.000147206
0.000160174
0.000122559
0.000170783
0.000143827
0.000137416
0.000176094
0.000137321
0.000175956
0.000170966
0.000170753
0.000137218
0.000175733
0.000143822
0.000170588
0.000137314
0.000175871
0.00016029
0.000147292
0.000103459
0.000122605
0.000122537
0.000147232
0.000160456
0.000160304
0.000122473
0.000147103
0.000103463
0.000160147
0.000122541
0.000147174
0.000170771
0.000143823
0.000137404
0.000176088
0.000137309
0.00017595
0.00017094
0.000137947
0.000180852
0.000161129
0.000161151
0.000161067
0.000161046
0.000137993
0.000138079
0.000181304
0.000161194
0.000161222
0.000161286
0.000138033
0.000161306
0.00017044
0.000137219
0.000175599
0.000143622
0.000137144
0.000175585
0.000170506
0.000159937
0.000146889
0.000103396
0.000122354
0.000122417
0.000146926
0.000159901
0.000160059
0.000122482
0.000103394
0.000147051
0.000122422
0.000147014
0.000160093
0.000170312
0.000143598
0.000137051
0.00017535
0.000137127
0.000175371
0.000170237
0.000170435
0.000175596
0.00013721
0.00014362
0.000175582
0.000137137
0.000170502
0.00015993
0.000146877
0.000103386
0.000122344
0.000122406
0.000146917
0.000159892
0.000160049
0.000122471
0.000103383
0.000147054
0.000122412
0.000160087
0.000146991
0.000170307
0.000143596
0.000175348
0.000137043
0.00017537
0.000137119
0.000170232
0.000170702
0.000137236
0.000175797
0.000143811
0.000170641
0.000137311
0.000175811
0.000160374
0.000147292
0.000103474
0.000122612
0.000147259
0.000122554
0.000160405
0.000160243
0.000122487
0.000147135
0.000103477
0.000147173
0.000160219
0.000122549
0.000170839
0.000143834
0.000137398
0.000176026
0.000137327
0.000176016
0.000170897
0.000170696
0.000175795
0.000137229
0.000143809
0.000170636
0.000175809
0.000137302
0.000160364
0.000147296
0.000103462
0.0001226
0.000122543
0.000147225
0.000160395
0.000160236
0.000122477
0.000147106
0.000103466
0.000160208
0.000122537
0.000147174
0.000170834
0.000143831
0.000176023
0.00013739
0.000176013
0.000137319
0.000170892
0.000170442
0.0001756
0.000137215
0.000143623
0.000175586
0.000137141
0.000170508
0.000159938
0.000146893
0.000103393
0.000122351
0.00014693
0.000122411
0.000159902
0.000160059
0.000122477
0.000103391
0.000147055
0.000147018
0.000122418
0.000160095
0.000170312
0.000143598
0.000175353
0.000137048
0.000175374
0.000137124
0.000170239
0.00017071
0.000137236
0.000175798
0.00014381
0.000170648
0.00013731
0.000175816
0.000160389
0.000147311
0.000103483
0.000122615
0.000160414
0.000147276
0.000122556
0.000160258
0.000122491
0.000147153
0.000103485
0.000160232
0.000147192
0.000122552
0.000170846
0.000143832
0.000137398
0.000176022
0.000170904
0.000137326
0.000176014
0.000170702
0.000175799
0.000137233
0.000143811
0.000170643
0.000175813
0.000137307
0.000160376
0.000147297
0.000103472
0.000122607
0.000122549
0.000147262
0.000160405
0.000160245
0.000122484
0.000147138
0.000103473
0.000160219
0.000122543
0.000147177
0.000170841
0.000143834
0.000176026
0.000137395
0.000176016
0.000137323
0.000170898
0.00013795
0.000180891
0.000161135
0.000161156
0.000161074
0.000161052
0.000137992
0.000138077
0.000181317
0.000161202
0.000161229
0.000161293
0.000138036
0.000161311
0.000170434
0.000175596
0.000137205
0.000143613
0.000175583
0.000137131
0.000170501
0.00015993
0.000146879
0.000103387
0.000122342
0.000146917
0.000122405
0.000159893
0.000160051
0.000122471
0.000103384
0.000147042
0.000147004
0.000122409
0.000160087
0.000170306
0.000143589
0.000175349
0.000137038
0.00017537
0.000137114
0.000170231
0.000170716
0.000175801
0.000137244
0.00014381
0.000170656
0.000175818
0.000137318
0.000160395
0.000147314
0.000103484
0.000122621
0.000160422
0.00014728
0.000122564
0.000160265
0.000122499
0.000147157
0.000103486
0.00016024
0.000147196
0.000122559
0.000170854
0.000143832
0.000176024
0.000137406
0.000170912
0.000176016
0.000137334
0.000170695
0.000175796
0.000137223
0.000143802
0.000170635
0.000175809
0.000137297
0.000160368
0.000147283
0.000103464
0.0001226
0.000122541
0.000147248
0.000160394
0.000160237
0.000122474
0.000147125
0.000103467
0.000160211
0.000122537
0.000147163
0.000170833
0.000143824
0.000176022
0.000137385
0.000176012
0.000137313
0.00017089
0.000138074
0.000181292
0.000161211
0.000161195
0.000138027
0.000161296
0.000161285
0.000160655
0.000147371
0.000122618
0.000103563
0.000122685
0.000160459
0.000147444
0.000171172
0.000144028
0.000137408
0.000176173
0.000137505
0.000170967
0.000176309
0.000160608
0.000147339
0.000122601
0.00010354
0.000160452
0.000122667
0.000147413
0.000171132
0.000144024
0.000137395
0.000176168
0.00017097
0.000137492
0.000176303
0.000160556
0.000147375
0.000122615
0.000103554
0.000122674
0.000160525
0.00014742
0.000171092
0.000144016
0.000137415
0.000176226
0.000137486
0.000171031
0.000176245
0.000160543
0.000147342
0.000122605
0.000103543
0.000160515
0.000122662
0.00014741
0.000171088
0.000144014
0.000176224
0.000137408
0.000171025
0.000176243
0.000137477
0.000171224
0.000144039
0.00017644
0.000137564
0.000176453
0.000137498
0.000171272
0.000160554
0.000147378
0.000122612
0.00010355
0.000147411
0.000160529
0.000122668
0.000171092
0.000144016
0.000176229
0.000137412
0.000176246
0.000171033
0.000137482
0.000160688
0.000122726
0.000103548
0.000147523
0.000147496
0.000122674
0.000160696
0.000171212
0.000144029
0.000176436
0.000137553
0.000176448
0.000137487
0.000171272
0.000160541
0.000147363
0.000122603
0.000103543
0.000147398
0.000160523
0.000122661
0.000171085
0.000144006
0.000176224
0.000137401
0.000176242
0.000171025
0.000137472
0.000160686
0.000122719
0.000103541
0.00014751
0.00014748
0.000122665
0.000160685
0.000138641
0.000136655
0.000138655
5.00141e-05
9.38125e-05
2.36114e-05
7.37211e-05
7.37312e-05
2.36127e-05
9.38332e-05
5.00152e-05
2.01023e-05
5.0013e-05
7.60445e-05
7.59992e-05
2.01044e-05
2.36093e-05
9.72724e-05
0.000112649
7.36895e-05
4.79319e-05
0.0001125
4.79215e-05
9.73343e-05
9.72644e-05
0.000112665
7.3702e-05
4.79394e-05
4.79379e-05
0.000112522
9.73167e-05
7.88203e-05
2.14898e-05
2.14928e-05
2.14877e-05
2.14907e-05
7.88439e-05
2.36106e-05
2.01034e-05
5.00136e-05
7.6053e-05
7.60096e-05
2.01055e-05
0.000119524
0.000136664
0.000129812
0.000129818
0.000129715
0.000129724
0.000119609
0.000128471
0.000122133
9.36816e-05
0.000107742
0.000107535
0.000122004
0.000128684
0.000128474
0.000122165
9.37009e-05
0.000107736
0.000122017
0.000107553
0.000128689
0.000123067
0.000139443
0.000139452
0.000137091
0.000125866
0.000142566
0.000142576
0.000139592
0.000128824
0.000145653
0.000145664
0.000141976
0.000131919
0.000148698
0.000148708
0.000144271
0.000135133
0.000151692
0.000151703
0.000146578
0.000138443
0.000154631
0.000154643
0.00014877
0.000141831
0.000157509
0.000157521
0.000150937
0.000145279
0.000160326
0.000160338
0.000153
0.00014877
0.000163078
0.000163089
0.000155066
0.000152289
0.000165764
0.000165775
0.000157068
0.000155822
0.000168382
0.000168393
0.000158987
0.000159354
0.000170931
0.000170942
0.000160866
0.000162874
0.00017341
0.00017342
0.000162644
0.000166369
0.000175817
0.000175827
0.000164391
0.00016983
0.00017815
0.00017816
0.000166072
0.000173247
0.000180409
0.000180419
0.000167692
0.000176613
0.000182593
0.000182602
0.000169274
0.000179918
0.0001847
0.00018471
0.000170778
0.000183156
0.000186731
0.00018674
0.000172243
0.000186319
0.000188683
0.000188693
0.000173623
0.000189403
0.000190558
0.000190567
0.000174934
0.000192401
0.000192354
0.000192364
0.000176185
0.000195309
0.000194072
0.000194081
0.000177368
0.000198122
0.000195711