/*--------------------------------*- C++ -*----------------------------------*\
| =========                 |                                                 |
| \\      /  F ield         | OpenFOAM: The Open Source CFD Toolbox           |
|  \\    /   O peration     | Version:  2312                                  |
|   \\  /    A nd           | Website:  www.openfoam.com                      |
|    \\/     M anipulation  |                                                 |
\*---------------------------------------------------------------------------*/
FoamFile
{
    version     2.0;
    format      ascii;
    arch        "LSB;label=32;scalar=64";
    class       surfaceScalarField;
    location    "1000";
    object      phi;
}
// * * * * * * * * * * * * * * * * * * * * * * * * * * * * * * * * * * * * * //

dimensions      [0 3 -1 0 0 0 0];

oriented        oriented;

internalField   nonuniform List<scalar> 
125567
(
-7.02115e-08
-1.48789e-10
-0.000229369
2.14077e-09
2.99811e-08
-6.90643e-09
-1.97342e-08
-9.80154e-05
1.24101e-06
-1.22916e-07
2.69103e-07
-2.15104e-07
-1.1937e-06
2.77496e-07
-2.36786e-07
-0.00113202
-5.54448e-08
-8.52607e-07
9.11315e-07
2.08099e-08
4.36092e-08
-0.000245491
-1.0256e-07
-1.67274e-08
-1.66017e-09
-0.00025013
4.03642e-09
-1.93204e-07
-3.19809e-09
-1.53017e-07
-9.38588e-07
8.31121e-07
-7.56624e-07
1.01144e-06
-0.00115229
-7.01899e-08
-0.000229329
2.99639e-08
2.19819e-09
-4.35432e-08
3.25977e-09
-0.000193597
-0.000250104
-1.93191e-07
4.34012e-09
-4.98832e-08
1.27246e-06
-1.28186e-07
-8.57955e-07
2.6902e-07
9.16522e-07
-2.15183e-07
-1.2279e-06
2.80218e-07
-2.42384e-07
-0.00113153
-1.5878e-07
-9.38606e-07
8.31123e-07
-7.56662e-07
1.01144e-06
-0.00115224
2.32204e-08
-1.67321e-08
-0.000245388
-1.02492e-07
-0.000268079
2.41865e-07
2.46802e-07
1.0506e-08
-0.00027816
-4.61778e-08
1.9791e-08
1.05506e-08
-0.000278297
-4.84493e-08
-6.87479e-09
-9.80381e-05
-0.000193655
3.32622e-09
1.24111e-08
-7.91204e-10
0.000143419
-5.38966e-11
-0.00014343
7.35644e-10
-1.11277e-08
1.82835e-11
2.86597e-08
-0.000229387
-0.000223421
2.88692e-08
4.37266e-09
-7.17208e-08
-0.000171124
-3.38075e-10
1.20423e-11
8.88749e-10
3.3028e-08
-0.000223442
3.73369e-13
-0.000171136
1.45883e-09
1.70202e-08
7.92981e-05
-7.93152e-05
-0.000263317
2.42673e-08
-6.16042e-08
3.32199e-08
-0.000263336
5.01045e-09
1.12809e-08
-9.80317e-05
-7.8345e-10
1.23616e-08
0.000143346
-4.60516e-11
-0.000143358
-1.11276e-08
9.31715e-10
2.8659e-08
-0.000229348
-0.000171089
-1.36154e-10
-0.000223323
2.88312e-08
4.38002e-09
-6.92354e-08
-0.000171101
9.18217e-10
3.05601e-08
-0.000223341
1.50834e-09
1.69782e-08
7.92538e-05
-7.92708e-05
-0.00026319
2.41561e-08
-5.91282e-08
-3.87107e-09
2.25624e-08
-0.000193611
3.08248e-08
-0.000263206
-7.02469e-09
-7.02419e-09
0.000213784
1.22401e-08
1.015e-08
-0.000213792
-8.05424e-05
-1.22772e-08
-1.2004e-08
-8.05661e-05
-1.22293e-08
-1.20494e-08
9.39363e-09
-8.05588e-05
9.38805e-09
-8.05825e-05
-2.70284e-08
-2.49821e-08
-1.43037e-08
1.5798e-08
0.000221868
2.90681e-08
-0.000221886
-0.000183016
-3.11693e-08
-7.34973e-09
2.03706e-08
1.21989e-08
-0.000278174
-0.000250575
3.60124e-08
-5.49537e-08
-9.97444e-08
-0.000183028
3.19918e-08
6.12446e-08
-0.000250632
-5.75164e-08
1.57849e-08
-1.42864e-08
0.000221956
3.12012e-08
-0.000221979
-0.000183098
-3.11419e-08
2.25863e-08
-7.30668e-09
-1.13193e-08
9.71795e-09
-0.00027831
-0.000250748
3.61156e-08
-5.24175e-08
-9.97608e-08
2.93911e-08
6.11695e-08
-0.000250801
-0.00018311
-5.95693e-08
4.97928e-09
-9.80544e-05
2.25524e-08
-0.000193668
-3.88668e-09
2.27503e-09
-0.00121558
-1.0005e-07
-7.51962e-08
-0.00118363
-1.03962e-07
-0.0012147
-1.17941e-07
6.40329e-08
-0.000245527
4.02392e-09
-0.000260376
-2.74066e-08
-0.000260506
8.0099e-09
-1.53071e-07
1.54566e-09
0.000265679
-1.05732e-08
-0.000266455
4.89044e-10
1.32119e-07
3.12649e-10
-0.000250234
-0.000249561
-2.11805e-07
1.03513e-08
-0.000265854
7.05529e-09
-6.6016e-09
7.77855e-10
-0.000249682
3.87914e-09
-0.000266481
2.70704e-08
-1.39148e-07
0.000264002
-0.000264718
-0.000250756
-1.86139e-07
-0.000250855
-2.24762e-09
-1.50437e-07
0.000265609
2.21504e-09
-0.000266397
1.32128e-07
1.3981e-09
-0.000250208
-0.000265836
5.5734e-09
-0.000249476
-2.11735e-07
1.0386e-08
-0.000266459
7.77275e-10
-0.000249595
1.42614e-08
-1.36682e-07
0.000263902
-8.09359e-09
-0.000264613
-0.000250651
-1.88629e-07
4.04846e-09
6.16712e-08
-0.000245419
-2.7422e-08
-0.000260269
-0.000250752
-0.000260398
7.49032e-08
7.75331e-08
0.00024288
-0.000242972
-2.03191e-07
-1.98242e-07
-0.000270099
-0.000261131
1.12514e-07
-0.000260783
1.09931e-07
-0.000261087
-0.000261433
1.19273e-07
1.1962e-07
-7.10308e-08
-7.10764e-08
0.00118445
-0.00118455
-1.19686e-06
-1.19563e-07
-5.43595e-08
0.00113224
-2.37028e-07
1.24126e-06
2.74949e-07
9.11264e-07
-2.15448e-07
2.6916e-07
-8.53097e-07
-0.00113226
-1.19419e-06
-1.1965e-07
-4.86056e-08
0.0011321
-2.34314e-07
1.23848e-06
2.74914e-07
9.11258e-07
-2.15453e-07
2.6922e-07
-8.53059e-07
-0.00113213
1.22548e-06
1.18892e-06
-1.98239e-07
-2.00935e-07
0.000268045
-0.00027006
1.21993e-07
1.28072e-07
-0.00118417
-7.4322e-08
-7.43995e-08
-0.00113216
-1.19647e-06
-1.22326e-07
-3.88154e-08
-2.36792e-07
1.24111e-06
2.74787e-07
9.11172e-07
-2.15216e-07
-8.52632e-07
2.69059e-07
-0.00113203
-1.19376e-06
-1.22331e-07
-6.6431e-08
-2.3683e-07
1.23833e-06
2.74796e-07
9.1127e-07
-2.15176e-07
-8.52675e-07
2.69132e-07
-0.000270066
1.22771e-06
1.18315e-06
-1.9287e-07
-2.03325e-07
0.000268051
1.23635e-06
1.19442e-06
-1.95723e-07
-2.03517e-07
0.000268099
-0.000270131
-1.28051e-06
-1.2386e-06
0.000270136
-0.000268103
2.392e-07
2.47079e-07
-4.85412e-08
0.00113168
-2.39803e-07
1.2806e-06
2.77517e-07
9.13967e-07
-2.12747e-07
2.66377e-07
-8.55885e-07
-0.00113171
-1.23382e-06
-1.19318e-07
-4.83719e-08
0.00113175
-2.42724e-07
1.27799e-06
2.80319e-07
9.1915e-07
-2.15442e-07
2.69105e-07
-8.60976e-07
-0.00113178
0.00113161
-1.21329e-07
-0.00113164
-4.9398e-08
-1.23603e-06
2.77423e-07
-2.396e-07
-8.55553e-07
2.66335e-07
-2.12519e-07
9.13973e-07
1.27519e-06
0.00113168
-1.21524e-07
-0.0011317
-4.92967e-08
-1.23348e-06
2.77489e-07
-2.42502e-07
-8.60637e-07
2.69071e-07
-2.15191e-07
9.16511e-07
-1.98368e-07
-2.00868e-07
0.000268084
-0.000270116
-1.24116e-06
0.000270118
-0.000268088
2.41993e-07
2.44308e-07
-4.85843e-08
0.00113269
-2.37209e-07
1.2387e-06
2.75034e-07
9.16641e-07
-2.1549e-07
2.69275e-07
-8.58395e-07
-0.00113271
-1.22835e-06
-1.19273e-07
-4.85126e-08
0.00113162
-2.42662e-07
1.27257e-06
2.80348e-07
9.16536e-07
-2.12785e-07
2.66415e-07
-8.58448e-07
-0.00113165
0.00113261
-1.21702e-07
-0.00113264
-4.94127e-08
-1.19411e-06
2.74945e-07
-2.37011e-07
-8.58066e-07
2.69214e-07
-2.1527e-07
9.16647e-07
1.27252e-06
0.00113155
-1.27012e-07
-0.00113157
-4.93602e-08
-1.22807e-06
2.80265e-07
-2.42465e-07
-8.58116e-07
2.66365e-07
-2.12563e-07
9.16542e-07
-1.19479e-07
-4.85099e-08
0.00113125
-2.39786e-07
1.26971e-06
2.77506e-07
9.08465e-07
-2.09955e-07
2.6369e-07
-8.50326e-07
-0.00113128
-1.21725e-07
-0.00113219
-4.40439e-08
-1.19655e-06
2.74854e-07
-2.36824e-07
-8.52733e-07
2.69111e-07
9.11298e-07
-2.15215e-07
1.2696e-06
0.00113118
-1.21344e-07
-0.0011312
-4.93506e-08
-1.22518e-06
2.77424e-07
-2.3961e-07
-8.50048e-07
2.66303e-07
-2.09788e-07
9.08438e-07
-1.98447e-07
-2.03423e-07
0.000268068
-0.000270089
-1.23836e-06
0.000270097
-0.000268075
2.41985e-07
2.46904e-07
-1.19605e-07
-4.8625e-08
0.00113224
-2.37163e-07
1.23319e-06
2.74986e-07
9.13718e-07
-2.15447e-07
2.69214e-07
-8.55454e-07
-0.00113227
-1.21661e-07
-0.00113205
-5.4952e-08
-1.19119e-06
2.74823e-07
-2.36899e-07
-8.52755e-07
2.69154e-07
9.11304e-07
-2.15229e-07
1.23306e-06
0.00113215
-1.21777e-07
-0.00113219
-3.26613e-08
-1.18859e-06
2.74848e-07
-2.36962e-07
-8.55203e-07
2.69119e-07
-2.1523e-07
9.13799e-07
-0.000268049
2.4173e-07
2.44449e-07
1.23594e-06
1.19402e-06
-1.95534e-07
-2.03331e-07
0.000268105
-5.52628e-08
-2.39582e-07
1.28048e-06
2.7742e-07
9.13937e-07
-2.15198e-07
-8.55467e-07
2.6901e-07
-1.23071e-06
-1.21915e-07
-4.39099e-08
-2.39723e-07
1.27518e-06
2.77451e-07
9.16453e-07
-2.15194e-07
-8.5793e-07
2.6901e-07
-1.98197e-07
-2.007e-07
0.00026809
-4.97051e-08
-2.36962e-07
1.23858e-06
2.74911e-07
9.16654e-07
-2.15196e-07
-8.57982e-07
2.69219e-07
-1.22798e-06
-1.27664e-07
-4.96481e-08
-2.42406e-07
1.27248e-06
2.80252e-07
9.16538e-07
-2.125e-07
-8.58021e-07
2.69051e-07
-1.44971e-07
-4.39293e-08
0.00113117
-2.42268e-07
1.26955e-06
2.80208e-07
9.112e-07
-2.12397e-07
2.69011e-07
-8.49914e-07
-1.98267e-07
-2.03228e-07
0.000268077
-1.22243e-07
-1.56726e-08
0.00113208
-2.31437e-07
1.23842e-06
2.74868e-07
9.13834e-07
-2.15139e-07
2.69099e-07
-8.55143e-07
-1.44144e-10
-7.02659e-08
0.000229341
3.00575e-08
1.97608e-09
-0.000229303
-5.09277e-09
2.25568e-08
0.000193573
-3.78544e-09
-0.000193587
6.78633e-09
-4.37523e-08
0.000193627
3.41861e-09
-0.000193593
3.03532e-11
2.88319e-08
0.000229283
-1.11518e-08
1.1975e-09
-0.000229302
5.17401e-09
1.3431e-08
9.79677e-05
-9.79863e-05
-6.74867e-09
-2.23397e-08
9.80073e-05
-9.79782e-05
-7.02788e-08
-1.47873e-10
0.000229329
1.91059e-09
3.0066e-08
-0.00022929
-5.14137e-09
2.25293e-08
0.000193556
-3.70991e-09
-0.00019357
6.79719e-09
-4.37825e-08
0.000193609
3.44462e-09
-0.000193576
2.88325e-08
1.56911e-10
0.000229271
1.15877e-09
-1.11483e-08
-0.00022929
-7.10322e-08
-7.10633e-08
0.00118423
-0.00118433
-7.11127e-08
-7.10513e-08
0.00118399
-0.00118409
-7.11135e-08
-7.12568e-08
0.00118396
-0.00118406
-0.00118427
-7.93436e-08
-6.77262e-08
0.00118393
-0.00118404
-7.35798e-08
-6.78604e-08
0.00118371
-0.0011838
-7.36363e-08
-7.93307e-08
0.00118366
-0.00118377
-7.36402e-08
-6.21507e-08
7.01462e-08
-1.56828e-09
0.00025019
3.80997e-09
-1.93083e-07
-0.000250069
-1.22035e-08
-2.25118e-08
6.65183e-08
0.000245406
6.53279e-09
-0.000245445
0.00115237
3.63857e-09
-1.40142e-07
1.00564e-06
-7.52202e-07
8.27968e-07
-9.31444e-07
-0.00115244
-4.34115e-08
1.24123e-06
0.00113221
-1.2033e-07
-8.5293e-07
2.69152e-07
-2.15354e-07
9.11314e-07
-1.19674e-06
2.74919e-07
-2.36934e-07
2.32678e-08
4.3715e-08
0.000245483
-1.92075e-08
-0.000245425
-1.0509e-07
-3.3705e-09
0.00115233
-1.41717e-07
-9.33886e-07
8.2533e-07
-7.54689e-07
1.00306e-06
-2.87076e-08
1.51775e-09
0.000250056
2.20527e-09
1.326e-07
-0.000250163
5.14947e-09
1.11299e-08
9.79631e-05
-9.79794e-05
-6.80925e-09
-1.99564e-08
9.80004e-05
-9.79736e-05
-8.64541e-10
7.01424e-08
0.00025018
-1.93078e-07
3.86309e-09
-0.00025006
0.00115219
3.16938e-09
-1.40158e-07
1.0057e-06
-7.54973e-07
8.27968e-07
-9.34188e-07
-0.00115225
-1.22263e-08
-2.25073e-08
6.41298e-08
0.000245398
4.15269e-09
-0.000245432
-4.88184e-08
1.23574e-06
0.00113207
-1.20349e-07
-8.52968e-07
2.69191e-07
-2.1537e-07
9.11313e-07
-1.19139e-06
2.74888e-07
-2.37022e-07
-4.81108e-09
0.00115215
-1.41643e-07
-9.33948e-07
8.28053e-07
-7.54734e-07
1.00578e-06
2.31568e-08
4.376e-08
0.00024547
-1.6724e-08
-0.000245417
-1.02726e-07
7.64955e-10
-2.87424e-08
0.000250046
1.32645e-07
2.31522e-09
-0.000250153
1.22855e-08
-1.11683e-08
2.48559e-08
0.000278111
-7.03164e-09
-0.00027813
1.22934e-08
-1.11459e-08
2.25434e-08
0.000278036
-7.52919e-09
-0.000278053
-1.26968e-06
-1.23316e-06
0.000270063
-0.000268046
2.41853e-07
2.44589e-07
-2.31523e-08
2.00083e-08
0.000278181
9.93559e-09
-0.000278137
-5.10289e-08
-2.32146e-08
1.99673e-08
0.000278103
1.05089e-08
-0.000278062
-4.87209e-08
-0.000193666
-4.98194e-09
2.26044e-08
-3.9153e-09
0.000193653
-0.00022938
1.91349e-11
2.8683e-08
0.000229362
-1.11278e-08
1.22058e-09
-9.80281e-05
5.05275e-09
1.35595e-08
9.80095e-05
-0.000193649
-5.02141e-09
2.25543e-08
-3.84618e-09
0.000193635
-0.000229368
2.86777e-08
1.65162e-10
0.000229349
9.56204e-10
-1.11258e-08
-6.27273e-08
-5.119e-08
-7.44721e-08
-9.75495e-08
-3.92548e-08
-4.53272e-08
0.00118348
7.00633e-08
-8.69821e-10
-0.000250125
3.06821e-09
-1.93122e-07
-0.000245518
-1.21001e-08
-2.25372e-08
6.64493e-08
3.98489e-09
0.000245483
0.00115217
-0.00115222
1.36597e-08
-1.51728e-07
1.00591e-06
-7.54017e-07
-9.33282e-07
8.28266e-07
-0.000250216
-2.85467e-08
1.71044e-09
0.000250109
1.99043e-09
1.32123e-07
2.56167e-08
-1.70378e-07
-9.33084e-07
8.31107e-07
-7.53807e-07
1.00877e-06
-9.80213e-05
5.03816e-09
1.12497e-08
9.8005e-05
-1.68905e-09
7.00677e-08
-0.000250114
-1.93092e-07
4.10776e-09
0.00115201
-0.00115205
-2.25695e-08
-1.4598e-07
1.00592e-06
-7.5407e-07
-9.33354e-07
8.28249e-07
-0.000245508
-1.21329e-08
-2.25371e-08
6.40373e-08
4.04174e-09
0.000245475
-0.000250206
2.88963e-10
-2.85811e-08
0.0002501
1.32168e-07
2.346e-09
-5.79473e-08
-1.53092e-07
-9.33184e-07
8.28299e-07
-7.51164e-07
1.00598e-06
-0.000278232
1.22228e-08
-1.12929e-08
2.26257e-08
-6.91501e-09
0.000278215
-0.000278154
1.21794e-08
-1.12696e-08
2.25945e-08
-7.37807e-09
0.000278138
-1.26471e-06
-1.30802e-06
-0.000268072
2.54524e-07
2.4186e-07
-2.31804e-08
1.97989e-08
1.05287e-08
-0.000278243
-4.84753e-08
-2.32458e-08
1.97558e-08
1.06252e-08
-0.000278163
-4.85128e-08
1.12458e-08
9.79904e-05
-9.80067e-05
-2.00408e-08
9.80277e-05
-9.80009e-05
1.11806e-08
9.79793e-05
-9.79956e-05
-2.00109e-08
9.80166e-05
-9.79898e-05
1.22093e-08
2.4874e-08
0.000278161
-9.56089e-09
-0.000278177
9.87948e-09
2.48114e-08
0.000278093
-6.95428e-09
-0.00027811
0.000270133
-1.28058e-06
-1.23867e-06
-0.0002681
2.39332e-07
2.472e-07
0.000278228
-2.31302e-08
1.24946e-08
-0.000278186
-5.1007e-08
0.00027816
-2.08247e-08
9.9608e-09
-0.000278118
-5.10161e-08
-1.99303e-08
-6.83275e-09
9.80486e-05
-9.80218e-05
1.13027e-08
5.03397e-09
9.80114e-05
-1.9905e-08
-6.83932e-09
9.80375e-05
-9.80107e-05
1.12366e-08
5.08074e-09
9.80003e-05
1.23611e-06
1.19419e-06
0.000268102
-1.9561e-07
-2.03398e-07
-2.3141e-08
0.000278279
-5.08911e-08
-0.000278237
1.25417e-08
-2.08395e-08
0.000278211
-5.09056e-08
-0.000278169
1.00123e-08
1.21522e-08
-9.49253e-09
2.49e-08
0.000278212
9.82634e-09
-6.88771e-09
2.48319e-08
0.000278144
-7.02752e-08
0.000229301
3.00604e-08
2.08554e-09
-0.000229263
2.47011e-08
0.00019351
-3.78656e-09
-0.000193525
-4.5975e-08
0.000193565
3.62468e-09
-0.00019353
2.8829e-08
0.000229243
-1.11472e-08
8.79839e-10
-0.000229262
-9.26198e-10
0.000250204
3.12159e-09
-1.93162e-07
-0.000250083
6.65385e-08
0.000245408
4.11827e-09
-0.000245444
0.00115266
3.43875e-09
-1.39982e-07
1.00859e-06
-7.57774e-07
8.30779e-07
-9.37078e-07
-0.00115271
-4.88494e-08
0.00113166
-1.19991e-07
-1.23622e-06
2.77492e-07
-2.39722e-07
-8.55758e-07
2.66363e-07
-2.12664e-07
9.13976e-07
0.000245482
-1.67059e-08
-0.000245427
-1.05063e-07
-4.07461e-09
0.00115261
-1.41511e-07
-9.36835e-07
8.30872e-07
-7.57526e-07
1.00868e-06
8.01668e-10
0.00025007
2.90007e-09
1.32691e-07
-0.000250178
0.000250176
4.69102e-09
-1.93177e-07
-0.000250059
-1.22544e-08
6.65058e-08
0.000245306
4.11227e-09
-0.000245339
0.0011526
-1.39989e-07
1.01381e-06
-7.57739e-07
8.30761e-07
-9.4225e-07
-0.00115264
-4.87356e-08
0.00113172
1.27796e-06
-1.20166e-07
-8.60831e-07
2.69104e-07
9.1917e-07
-2.15337e-07
-1.23369e-06
2.80296e-07
-2.42626e-07
0.000245377
2.30195e-08
-1.65455e-08
-0.000245325
-1.05088e-07
0.00115254
-1.41553e-07
-9.42014e-07
8.30854e-07
-7.57488e-07
1.01389e-06
0.000250046
1.12954e-09
1.3269e-07
-0.00025015
2.90518e-11
2.87418e-08
-1.11325e-08
1.20729e-09
0.000229322
-4.36772e-08
-0.000193633
3.35395e-09
2.25686e-08
-3.852e-09
0.000193613
-1.53009e-10
-7.02422e-08
-0.000229342
3.00238e-08
1.9844e-09
2.87394e-08
-1.11286e-08
8.94759e-10
0.000229282
-4.59057e-08
6.80556e-09
0.000193605
-0.000193569
3.55008e-09
2.47166e-08
-5.11168e-09
-3.85948e-09
0.000193549
-7.02529e-08
0.00022934
-0.000229302
3.00266e-08
2.09568e-09
7.92993e-10
2.9163e-09
1.32435e-07
0.000250097
-5.47408e-08
-1.20729e-07
1.28054e-06
-2.39664e-07
2.77464e-07
9.13979e-07
-2.12585e-07
2.66349e-07
-8.55653e-07
0.00024552
-1.04974e-07
-0.000245465
-1.67224e-08
-0.00115255
-5.02534e-09
0.0011525
-1.44435e-07
-9.3641e-07
8.3103e-07
-7.57055e-07
1.0088e-06
4.05943e-09
6.6482e-08
0.000245446
2.94994e-09
-1.43044e-07
1.00873e-06
-7.57289e-07
-9.36636e-07
8.30942e-07
-9.62456e-10
0.00025023
-0.00025011
3.37408e-09
-1.93189e-07
1.14809e-09
1.32435e-07
0.000250072
-4.89537e-08
-1.23359e-06
-1.20754e-07
9.19158e-07
-2.15288e-07
-8.60754e-07
2.69067e-07
1.27793e-06
-2.42583e-07
2.8026e-07
2.30367e-08
0.000245416
-1.05001e-07
-0.000245363
-1.6567e-08
-0.00115249
0.00115244
-1.44467e-07
-9.41599e-07
8.31011e-07
-7.57018e-07
1.0113e-06
-1.21959e-08
4.05317e-09
6.64525e-08
0.000245344
-1.43058e-07
1.01395e-06
-7.57254e-07
-9.41808e-07
8.30926e-07
0.000250203
-0.000250085
4.45795e-09
-1.93207e-07
2.24833e-08
0.000278036
-7.66836e-09
-0.000278049
-1.12217e-08
2.48897e-08
0.000278176
-6.90439e-09
-0.000278195
0.000270118
-0.000268085
2.42144e-07
2.44427e-07
0.0002781
1.04365e-08
-0.000278061
-4.87059e-08
1.99473e-08
0.000278245
1.00604e-08
-0.000278201
-5.10212e-08
5.13103e-09
9.79859e-05
-9.80023e-05
9.80233e-05
-6.88523e-09
-9.79964e-05
-2.22216e-08
-9.79991e-05
1.34913e-08
9.79887e-05
1.19663e-06
0.000268087
-1.98267e-07
-2.00766e-07
0.00027815
-4.85893e-08
-0.000278112
1.0495e-08
1.98382e-08
-2.32698e-08
0.000278296
-5.09048e-08
-0.000278252
1.01005e-08
-7.58992e-09
2.25055e-08
0.000278086
-1.12701e-08
1.21487e-08
-6.84192e-09
2.49094e-08
0.000278226
-6.92146e-09
9.80441e-05
-9.80174e-05
5.07042e-09
9.80069e-05
-1.67214e-09
0.000250197
3.77974e-09
-1.9577e-07
-0.000250074
6.41493e-08
0.000245371
6.6235e-09
-0.00024541
0.00115249
3.67457e-09
-1.40073e-07
1.01114e-06
-7.57726e-07
8.30758e-07
-9.39605e-07
-0.00115254
-4.88588e-08
0.00113266
-1.20354e-07
-1.1943e-06
2.75e-07
-2.37132e-07
-8.58271e-07
2.6926e-07
-2.15407e-07
9.16652e-07
0.000245448
-1.91862e-08
-0.00024539
-1.02774e-07
-3.59586e-09
0.00115244
-1.4158e-07
-9.39368e-07
8.30844e-07
-7.57482e-07
1.01122e-06
1.66916e-09
0.00025006
2.15242e-09
1.35275e-07
-0.000250171
-7.02588e-08
0.000229289
3.00522e-08
2.18698e-09
-0.000229251
2.25113e-08
0.000193498
-3.72131e-09
-0.000193512
-4.37164e-08
0.000193552
3.4164e-09
-0.000193518
2.88314e-08
0.000229232
-1.11455e-08
8.99292e-10
-0.00022925
0.000250167
-1.95758e-07
4.31513e-09
-0.000250047
0.00115243
-1.40034e-07
1.01116e-06
-7.57764e-07
8.30762e-07
-9.39627e-07
-0.00115248
-1.23183e-08
6.1753e-08
0.000245293
4.17739e-09
-0.000245324
-4.8809e-08
0.0011316
1.27256e-06
-1.19961e-07
-8.58319e-07
2.66414e-07
9.16547e-07
-2.1269e-07
-1.22827e-06
2.80324e-07
-2.42603e-07
0.00115237
-1.41506e-07
-9.39396e-07
8.30847e-07
-7.5752e-07
1.01123e-06
0.000245362
2.32025e-08
-1.67242e-08
-0.000245312
-1.00254e-07
0.000250034
1.35292e-07
1.60926e-09
-0.000250141
2.87429e-08
1.60797e-10
1.16798e-09
-1.11337e-08
0.00022931
-4.36981e-08
-0.000193616
3.37669e-09
2.25377e-08
-3.77755e-09
0.000193596
-7.02536e-08
-1.47825e-10
-0.00022933
2.14177e-09
3.00268e-08
1.67434e-09
2.16732e-09
1.32427e-07
0.000250089
-4.91836e-08
-1.21084e-07
1.23864e-06
-2.37061e-07
2.74974e-07
9.16655e-07
-2.15327e-07
2.69249e-07
-8.58173e-07
0.000245486
-1.02678e-07
-0.000245428
-1.92062e-08
-0.00115238
-3.41344e-09
0.00115234
-1.50342e-07
-9.38927e-07
8.30997e-07
-7.57018e-07
1.01134e-06
6.5705e-09
6.40886e-08
0.000245409
3.7852e-09
-1.43142e-07
1.01128e-06
-7.57247e-07
-9.39159e-07
8.30924e-07
-1.66731e-09
0.000250224
-0.000250103
4.03204e-09
-1.93197e-07
2.87413e-08
-1.113e-08
9.10925e-10
0.000229271
-4.36413e-08
6.85825e-09
0.000193591
-0.000193558
3.34178e-09
2.2525e-08
-5.09328e-09
-3.78376e-09
0.000193538
-7.02348e-08
0.000229328
-0.00022929
3.00143e-08
2.19417e-09
1.32446e-07
1.62542e-09
0.000250063
-4.9101e-08
-1.22816e-06
-1.207e-07
9.16555e-07
-2.12618e-07
-8.58218e-07
2.66394e-07
1.27253e-06
-2.42526e-07
2.80301e-07
-0.00115233
0.00115228
-1.50249e-07
-9.38956e-07
8.30999e-07
-7.57054e-07
1.01135e-06
2.32175e-08
0.0002454
-1.00167e-07
-0.00024535
-1.67493e-08
-1.4309e-07
1.0113e-06
-7.57284e-07
-9.39178e-07
8.30928e-07
-1.22659e-08
4.12116e-09
6.16973e-08
0.000245331
0.000250194
-0.000250077
-1.93185e-07
4.32343e-09
-7.99225e-11
0.000229324
2.10517e-09
3.21165e-08
-0.000229288
0.00019356
-3.66254e-09
-0.000193574
0.000193613
3.25988e-09
-0.00019358
1.26224e-11
0.000229268
1.05427e-09
-1.32039e-08
-0.000229285
7.0211e-08
0.000250157
-1.90513e-07
4.51816e-09
-0.000250043
0.00115229
-1.40195e-07
1.00565e-06
-7.5496e-07
8.27995e-07
-9.34105e-07
-0.00115234
-2.2485e-08
6.64498e-08
0.000245328
4.1903e-09
-0.000245364
-4.87829e-08
0.00113122
-1.14343e-07
-1.22538e-06
2.77465e-07
-2.39718e-07
-8.50233e-07
2.63654e-07
-2.09907e-07
9.08458e-07
0.00115222
-1.35806e-07
-9.33873e-07
8.28079e-07
-7.54716e-07
1.00573e-06
4.37306e-08
0.000245402
-1.66969e-08
-0.000245347
-1.05031e-07
-2.87783e-08
0.00025003
1.30041e-07
1.37124e-09
-0.000250131
0.000229287
3.00361e-08
2.17409e-09
-0.000229249
-5.14573e-09
0.000193503
-3.679e-09
-0.000193517
0.000193557
6.78067e-09
3.44511e-09
-0.000193523
0.000229229
-1.11315e-08
8.39543e-10
-0.000229248
-2.86211e-08
1.54696e-09
2.21735e-09
1.32347e-07
0.000250082
-5.49682e-08
-1.21009e-07
1.2412e-06
-2.36888e-07
2.74888e-07
9.11275e-07
-2.15289e-07
-8.52883e-07
2.69131e-07
4.36324e-08
-1.05007e-07
-0.000245463
-1.67781e-08
-0.00115226
-5.46102e-10
-1.44644e-07
-9.33447e-07
8.28217e-07
1.00589e-06
-7.54218e-07
-2.25142e-08
6.47894e-09
6.64573e-08
0.000245444
4.44138e-09
-1.43205e-07
1.00578e-06
-7.51719e-07
-9.31006e-07
8.28127e-07
7.0118e-08
-1.4478e-09
-0.000250096
3.57485e-09
-1.9311e-07
2.25384e-11
1.06444e-09
-1.31858e-08
0.000229307
0.000193653
-0.000193619
3.20345e-09
-3.72732e-09
0.0001936
-4.01768e-11
0.000229363
-0.000229327
1.89025e-09
3.20727e-08
-2.86967e-08
1.29786e-07
1.38684e-09
0.000250056
-4.91139e-08
-1.22525e-06
-1.26642e-07
9.08485e-07
-2.09777e-07
-8.50096e-07
2.63663e-07
1.26964e-06
-2.39632e-07
2.77447e-07
-0.00115218
0.00115213
-1.4453e-07
-9.33438e-07
8.28222e-07
-7.5425e-07
1.00584e-06
4.36645e-08
2.31989e-08
0.00024544
-1.02557e-07
-0.000245387
-1.67007e-08
-1.49079e-07
1.0058e-06
-7.54472e-07
-9.3366e-07
8.28155e-07
-2.24963e-08
-1.22259e-08
4.13257e-09
6.63829e-08
0.000245366
7.01861e-08
0.000250187
-0.000250069
-1.93131e-07
4.29297e-09
-1.11151e-08
8.53871e-10
0.000229268
6.82607e-09
0.000193596
-0.000193563
3.38052e-09
-5.08424e-09
-3.75365e-09
0.000193543
0.000229326
-0.000229288
2.99895e-08
2.18347e-09
2.02739e-08
0.000278034
-7.52806e-09
-0.000278048
-1.11785e-08
2.25643e-08
0.00027817
-1.00773e-08
-0.000278184
0.000270091
-0.000268072
2.42109e-07
2.47027e-07
0.000278098
1.04155e-08
-0.000278059
-4.64101e-08
1.99974e-08
0.000278234
1.30472e-08
-0.000278196
-4.87454e-08
5.12986e-09
9.79858e-05
-9.80022e-05
9.80232e-05
-6.79114e-09
-9.79964e-05
-1.98459e-08
-9.79946e-05
1.11914e-08
9.79841e-05
1.19127e-06
0.000268074
-1.98352e-07
-2.03313e-07
0.000278149
-4.63e-08
-0.00027811
1.04619e-08
1.98884e-08
-2.31739e-08
0.000278285
-4.86378e-08
-0.000278246
1.31174e-08
-7.45257e-09
2.03065e-08
0.000278085
-1.12325e-08
1.21727e-08
-1.00148e-08
2.25961e-08
0.000278221
-6.83411e-09
9.8044e-05
-9.80173e-05
5.06617e-09
9.80069e-05
7.00803e-08
0.000250152
-1.9306e-07
4.99536e-09
-0.000250035
0.00115212
-1.40143e-07
1.00812e-06
-7.54925e-07
8.27924e-07
-9.36615e-07
-0.00115217
-2.24946e-08
6.41104e-08
0.000245295
4.21379e-09
-0.000245329
-4.89193e-08
0.00113222
-1.20402e-07
-1.18879e-06
2.74954e-07
-2.37077e-07
-8.55341e-07
2.69176e-07
-2.15374e-07
9.13787e-07
0.00115207
-1.41653e-07
-9.36386e-07
8.28016e-07
-7.54676e-07
1.00821e-06
4.37505e-08
0.000245367
-1.67601e-08
-0.000245314
-1.02721e-07
-2.86805e-08
0.000250022
1.32619e-07
9.13157e-10
-0.000250126
-1.86975e-10
0.000229316
2.27491e-09
3.21093e-08
-0.00022928
0.000193555
-3.71601e-09
-0.000193569
0.000193609
3.44537e-09
-0.000193575
1.38141e-10
0.000229261
8.08874e-10
-1.32241e-08
-0.000229277
0.000229276
2.18519e-09
3.41917e-08
-0.000229243
-5.17525e-09
0.000193496
-3.63695e-09
-0.000193509
0.000193549
6.83457e-09
3.37965e-09
-0.000193515
0.000229223
8.57259e-10
-1.53053e-08
-0.000229237
6.89022e-10
-2.8652e-08
1.32385e-07
2.09141e-09
0.000250073
-4.91598e-08
-1.2108e-07
1.23572e-06
-2.36937e-07
2.74863e-07
9.11323e-07
-2.15282e-07
-8.52861e-07
2.69183e-07
-0.00115209
-1.32289e-08
-1.44538e-07
-9.33515e-07
8.28199e-07
1.00589e-06
-7.5427e-07
4.36857e-08
-1.02642e-07
-0.000245455
-1.67354e-08
2.46687e-10
-1.43218e-07
1.00584e-06
-7.54486e-07
-9.3374e-07
8.2813e-07
-2.25146e-08
4.10152e-09
6.40646e-08
0.000245436
-1.21561e-09
7.01166e-08
-0.000250086
-1.93097e-07
4.10988e-09
-2.85905e-08
1.32364e-07
6.92777e-10
0.000250049
-4.9285e-08
-1.18869e-06
-1.21074e-07
9.13787e-07
-2.15266e-07
-8.55283e-07
2.69162e-07
1.23312e-06
-2.37017e-07
2.7492e-07
-0.00115201
0.00115197
-1.44532e-07
-9.35937e-07
8.2818e-07
-7.54201e-07
1.00836e-06
4.36729e-08
2.32307e-08
0.000245405
-1.02628e-07
-0.000245352
-1.67811e-08
-1.4318e-07
1.00827e-06
-7.54441e-07
-9.36172e-07
8.28091e-07
-2.25074e-08
-1.22343e-08
4.15868e-09
6.40474e-08
0.000245333
7.00511e-08
0.000250179
-0.000250062
-1.93086e-07
4.76349e-09
1.14352e-10
8.17703e-10
-1.32043e-08
0.0002293
0.000193649
-0.000193615
3.38463e-09
-3.78657e-09
0.000193595
-2.89611e-10
0.000229356
-0.000229319
2.28201e-09
3.20694e-08
6.51172e-10
-1.52859e-08
0.000229262
6.8851e-09
0.000193589
-0.000193555
3.30419e-09
-5.11217e-09
-3.70974e-09
0.000193535
0.000229315
-0.000229282
2.19426e-09
3.41491e-08
9.79658e-05
-9.79821e-05
9.80031e-05
-9.79763e-05
9.79619e-05
-9.79782e-05
9.79992e-05
-9.79724e-05
0.000268048
-1.98129e-07
-2.00824e-07
1.99085e-08
-4.86279e-08
-0.00027819
9.99319e-09
1.98535e-08
-4.8604e-08
-0.000278112
1.05695e-08
-1.1221e-08
-6.97155e-09
2.48806e-08
0.000278162
-1.12049e-08
-7.45565e-09
2.25663e-08
0.000278087
9.80239e-05
-9.79972e-05
9.79868e-05
9.80201e-05
-9.79934e-05
9.79829e-05
1.13635e-08
9.80323e-05
1.12993e-08
9.80212e-05
1.21091e-08
2.49477e-08
-9.43059e-09
0.000278262
9.77515e-09
2.4879e-08
-6.8277e-09
0.000278194
2.47498e-08
-3.92941e-09
0.000193589
2.86806e-08
0.000229321
-1.11218e-08
9.1174e-10
6.64802e-08
4.0032e-09
0.000245484
1.29158e-09
-1.45855e-07
1.0088e-06
-7.5688e-07
-9.36236e-07
8.31092e-07
7.59695e-10
0.000250123
2.68938e-09
1.32228e-07
-1.21462e-08
6.64382e-08
3.99484e-09
0.000245382
-1.45834e-07
1.01133e-06
-7.56847e-07
-9.38695e-07
8.31076e-07
0.000250099
1.40067e-09
1.32233e-07
2.25619e-08
-7.52203e-09
0.000278137
-1.13217e-08
2.49466e-08
-6.79361e-09
0.000278277
5.01985e-09
6.4054e-08
6.51983e-09
0.000245448
4.05044e-09
-1.51757e-07
1.0114e-06
-7.56815e-07
-9.38758e-07
8.31052e-07
1.67774e-09
0.000250117
1.93623e-09
1.32206e-07
2.25486e-08
-3.84542e-09
0.000193578
2.8676e-08
0.00022931
-1.11217e-08
9.25594e-10
-1.51708e-07
1.01142e-06
-7.56853e-07
-9.38779e-07
8.31055e-07
-1.22155e-08
6.16652e-08
4.06922e-09
0.000245369
0.00025009
1.32225e-07
1.63778e-09
1.02504e-10
-0.000229366
3.2021e-08
-3.79134e-09
0.000193639
7.82949e-11
0.000229347
1.07677e-09
-1.31719e-08
7.01227e-08
-0.000250097
-1.95721e-07
4.53624e-09
0.00115211
-1.63381e-07
1.0059e-06
-7.51306e-07
8.28269e-07
-9.30538e-07
-2.25488e-08
6.15736e-08
6.51427e-09
0.000245406
-4.38223e-08
-3.60909e-07
-1.23308e-06
2.74803e-07
-2.44923e-07
-8.47241e-07
2.71654e-07
-2.09664e-07
9.13771e-07
-2.86264e-08
0.000250083
1.3215e-07
1.63481e-09
-1.99128e-07
-9.30361e-07
8.31066e-07
-7.53852e-07
1.00866e-06
4.35851e-08
-1.91323e-08
-0.000245426
-1.04886e-07
-0.000229327
2.99319e-08
2.18847e-09
-5.02713e-09
-3.82966e-09
0.000193583
0.000229307
-1.1098e-08
8.70186e-10
6.87224e-09
3.32153e-09
-0.000193602
2.03452e-08
-7.3812e-09
0.000278135
-1.12874e-08
2.26069e-08
-7.33956e-09
0.000278269
5.00686e-09
9.80277e-05
7.00102e-08
-0.000250089
-1.931e-07
3.80369e-09
0.00115193
-1.5178e-07
1.00846e-06
-7.54003e-07
8.28248e-07
-9.35794e-07
-2.25335e-08
6.40165e-08
4.09354e-09
0.000245372
1.48708e-07
-1.44786e-07
-1.15597e-06
2.83187e-07
-2.28576e-07
-8.52302e-07
2.69102e-07
-2.15107e-07
9.13953e-07
-2.85225e-08
0.000250075
1.3214e-07
4.6659e-10
-1.94668e-07
-9.32884e-07
8.28328e-07
-7.51071e-07
1.00864e-06
4.3592e-08
-1.67891e-08
-0.000245391
-1.02541e-07
-3.2581e-10
-0.000229359
2.28036e-09
3.20207e-08
-3.85426e-09
0.000193635
-2.03533e-11
0.000229339
1.05188e-09
-1.31892e-08
-0.000229321
1.98027e-09
3.41042e-08
-5.04676e-09
-3.79034e-09
0.000193575
0.000229301
6.63917e-10
-1.52786e-08
6.92809e-09
3.2391e-09
-0.000193595
9.80076e-05
-9.8018e-05
9.80038e-05
-9.80142e-05
-7.92145e-10
1.24329e-08
0.000143358
-9.49412e-11
-0.000143369
-0.000171053
-3.16696e-10
-4.55621e-11
0.000171084
-0.000223351
2.89488e-08
4.37195e-09
0.000223391
-7.17798e-08
-1.11389e-08
9.7801e-10
-0.000229321
-1.17625e-10
2.87863e-08
-0.000171065
-3.72948e-11
8.79114e-10
-0.000223371
3.31247e-08
1.43598e-09
0.000143385
-2.44496e-08
-7.92528e-05
7.92787e-05
-1.42215e-09
3.45199e-09
0.000193607
6.76153e-09
-4.37846e-08
0.000263192
-1.69709e-08
-8.63167e-10
3.32007e-08
-0.000263211
0.000263237
-4.36117e-09
-6.17819e-08
1.16758e-10
-7.92699e-05
1.69867e-08
7.92616e-05
-0.000263218
2.44097e-08
0.000263263
-6.17428e-08
-3.81971e-09
-5.06218e-09
2.25598e-08
3.31961e-08
7.92874e-05
3.21739e-10
-2.8964e-08
-0.000143342
3.00804e-08
2.19344e-09
5.81288e-12
-7.02779e-08
0.000171035
7.83872e-10
-2.82994e-11
-0.000171047
0.000223331
-1.2448e-08
3.31771e-08
-0.000223351
-3.69828e-11
-7.17845e-08
-0.000143354
9.79968e-05
-6.7213e-09
-2.239e-08
5.13949e-09
1.34594e-08
1.24431e-08
-7.60129e-10
0.000143356
-1.37589e-10
-0.000143368
-0.000223341
2.89651e-08
4.32372e-09
0.000223382
-7.18114e-08
-0.00017105
-3.64622e-10
1.45053e-11
0.000171081
9.39138e-10
-1.11384e-08
-0.000229309
1.29405e-11
2.87889e-08
8.28511e-10
-0.000223362
3.31506e-08
-0.000171062
-6.62904e-12
1.40323e-09
0.000143383
-2.44847e-08
-7.92544e-05
7.92803e-05
-1.38895e-09
3.47708e-09
0.00019359
6.77282e-09
-4.3816e-08
0.000263187
-1.69257e-08
-8.13052e-10
3.31788e-08
-0.000263206
0.000263232
-4.31238e-09
-6.18357e-08
1.60468e-10
-7.92715e-05
1.69434e-08
7.92632e-05
-0.000263213
2.44429e-08
0.000263258
-6.17955e-08
-3.74557e-09
-5.11025e-09
2.2532e-08
3.31768e-08
7.9289e-05
-2.89829e-08
3.71277e-10
-0.000143341
2.12804e-09
3.00893e-08
2.20323e-12
-7.02979e-08
0.000223321
-1.24564e-08
3.32007e-08
-0.000223342
0.000171032
7.53382e-10
2.06268e-12
-0.000171044
-7.18179e-08
2.4931e-11
-0.000143352
9.79899e-05
-6.77984e-09
-2.0011e-08
5.12051e-09
1.11606e-08
-6.97118e-09