/*--------------------------------*- C++ -*----------------------------------*\
| =========                 |                                                 |
| \\      /  F ield         | OpenFOAM: The Open Source CFD Toolbox           |
|  \\    /   O peration     | Version:  2312                                  |
|   \\  /    A nd           | Website:  www.openfoam.com                      |
|    \\/     M anipulation  |                                                 |
\*---------------------------------------------------------------------------*/
FoamFile
{
    version     2.0;
    format      ascii;
    arch        "LSB;label=32;scalar=64";
    class       volVectorField;
    location    "1000";
    object      U;
}
// * * * * * * * * * * * * * * * * * * * * * * * * * * * * * * * * * * * * * //

dimensions      [0 1 -1 0 0 0 0];

internalField   nonuniform List<vector> 
43496
(
(-1.66068e-05 -2.83938e-07 0.0914272)
(-5.85221e-06 3.3578e-06 0.0716036)
(-6.11703e-06 1.13148e-05 0.107488)
(-7.77733e-06 2.04158e-05 0.0930677)
(-2.72994e-05 -6.84759e-07 0.0985809)
(-1.44064e-05 -2.60298e-06 0.109908)
(-1.66016e-05 3.08796e-07 0.0914271)
(-1.20273e-05 1.22431e-06 0.0822862)
(-2.72941e-05 7.13004e-07 0.0985808)
(-1.12776e-05 6.10996e-06 0.107486)
(-1.43959e-05 2.60093e-06 0.109907)
(-2.03968e-05 7.78543e-06 0.0930664)
(-4.16138e-05 4.16209e-05 0.104317)
(-9.86896e-06 6.92543e-06 0.0876051)
(-6.92926e-06 9.87439e-06 0.0876078)
(-3.34756e-06 5.87489e-06 0.071604)
(-1.20553e-06 1.20507e-05 0.0822866)
(4.26443e-06 -7.1336e-07 0.0768854)
(5.0174e-06 -2.55821e-07 0.0913835)
(-1.60008e-05 -1.13764e-06 0.0899499)
(-7.4406e-06 1.43301e-07 0.0787028)
(5.53631e-06 -5.53178e-07 0.0899002)
(3.87334e-06 -1.86941e-07 0.0786623)
(-7.43528e-06 5.35743e-07 0.0769322)
(4.92378e-06 -8.97182e-07 0.0684138)
(-1.22995e-05 -1.38747e-06 0.0858856)
(5.8715e-06 -7.64096e-07 0.0858295)
(-6.08037e-06 1.66332e-07 0.0684746)
(4.33378e-06 -2.57317e-06 0.0715506)
(4.24995e-06 7.09254e-07 0.0768849)
(5.01776e-06 2.44828e-07 0.0913835)
(-7.43779e-06 -1.204e-07 0.0787027)
(-1.59843e-05 1.16231e-06 0.0899494)
(3.87369e-06 1.84526e-07 0.0786622)
(5.51774e-06 5.44e-07 0.0899003)
(-7.43779e-06 -5.04971e-07 0.0769316)
(4.91265e-06 9.01689e-07 0.0684157)
(-1.22719e-05 1.40585e-06 0.0858857)
(7.17237e-06 -6.28937e-07 0.0822355)
(5.86193e-06 7.6906e-07 0.0858304)
(-6.06008e-06 -1.36255e-07 0.0684763)
(3.13318e-06 -3.12824e-06 0.0836177)
(-3.59471e-06 5.11873e-06 0.068375)
(-5.14116e-06 3.57839e-06 0.0683807)
(2.64504e-06 -4.06521e-06 0.0683195)
(4.06734e-06 -2.64592e-06 0.068325)
(-7.24164e-06 7.2187e-06 0.0836639)
(7.82978e-06 -3.80987e-06 0.091673)
(-8.07124e-06 4.0176e-06 0.0816084)
(3.58475e-06 -3.47399e-06 0.0875569)
(-2.39888e-05 1.42089e-05 0.0963245)
(3.86883e-06 -3.01098e-06 0.0815579)
(1.10516e-05 -5.53885e-06 0.0962766)
(-1.67714e-05 1.02621e-05 0.0917201)
(3.80313e-06 -7.82373e-06 0.0916798)
(-4.03272e-06 8.0506e-06 0.0816146)
(3.45388e-06 -3.58806e-06 0.0875585)
(-1.4231e-05 2.39789e-05 0.0963281)
(5.53092e-06 -1.10186e-05 0.0962794)
(3.00116e-06 -3.86323e-06 0.0815631)
(-1.02922e-05 1.67672e-05 0.0917271)
(2.55892e-06 -4.34744e-06 0.0715504)
(6.1675e-07 -7.17261e-06 0.0822358)
(-1.16384e-05 -3.47891e-06 0.115012)
(-1.00297e-05 1.00532e-05 0.112469)
(-1.16317e-05 3.49686e-06 0.11501)
(3.10163e-06 -8.78082e-06 0.0930118)
(-1.1666e-05 4.96094e-05 0.0995932)
(3.80052e-06 -3.18384e-05 0.0995327)
(2.74247e-05 -1.1974e-06 0.102872)
(8.05855e-06 -4.30562e-07 0.0985247)
(-2.721e-05 -2.53207e-06 0.0976284)
(-5.22845e-05 -1.01138e-06 0.10362)
(8.99105e-06 -8.67121e-07 0.0975629)
(2.59027e-05 -8.78958e-07 0.103526)
(-5.29948e-05 -3.57886e-06 0.102988)
(3.12644e-05 3.78915e-07 0.101328)
(-2.46885e-05 -5.07152e-06 0.0956755)
(1.038e-05 4.88083e-08 0.095608)
(-5.24085e-05 -7.70733e-06 0.101433)
(2.74145e-05 1.17549e-06 0.102871)
(8.05993e-06 4.07529e-07 0.0985247)
(-5.228e-05 1.0406e-06 0.10362)
(-2.71992e-05 2.55883e-06 0.0976279)
(2.59083e-05 8.50213e-07 0.103526)
(8.97707e-06 8.48313e-07 0.0975632)
(-5.29969e-05 3.60491e-06 0.102987)
(3.12865e-05 -3.94833e-07 0.101328)
(-2.46599e-05 5.08095e-06 0.0956749)
(8.77951e-06 -3.1195e-06 0.0930108)
(-4.96072e-05 1.16659e-05 0.0995911)
(1.03761e-05 -4.13088e-08 0.0956083)
(-5.2403e-05 7.71493e-06 0.101431)
(3.18751e-05 -3.82723e-06 0.0995309)
(1.01416e-05 -1.01685e-05 0.0975424)
(2.38198e-05 -2.38398e-05 0.104202)
(-2.63375e-05 4.13659e-05 0.101507)
(-4.13834e-05 2.63388e-05 0.10151)
(2.74394e-05 -1.10346e-05 0.101443)
(1.1047e-05 -2.74674e-05 0.10144)
(-2.21828e-05 2.21784e-05 0.0975978)
(-9.59528e-06 -9.58765e-06 0.112516)
(1.11316e-05 -5.99073e-06 0.107501)
(-5.97247e-06 1.11324e-05 0.1075)
(-2.3981e-05 -2.39745e-05 0.104199)
(-9.96311e-06 -9.95652e-06 0.112479)
(1.12751e-05 -6.11675e-06 0.107492)
(-6.10179e-06 1.12879e-05 0.107491)
(-2.38502e-05 -2.38465e-05 0.104201)
(2.39745e-05 2.39824e-05 0.104199)
(-4.16791e-05 -4.16751e-05 0.104316)
(-5.95182e-06 -1.11016e-05 0.107499)
(5.94485e-06 -1.11155e-05 0.107499)
(-6.05066e-06 -1.12188e-05 0.107492)
(6.03741e-06 -1.12409e-05 0.107491)
(-2.40024e-05 2.39476e-05 0.104199)
(4.16691e-05 -4.16894e-05 0.104317)
(-1.11325e-05 -5.97125e-06 0.107501)
(-1.1097e-05 5.95432e-06 0.107497)
(-1.12491e-05 -6.06528e-06 0.107493)
(-1.1214e-05 6.05162e-06 0.10749)
(1.11174e-05 5.95005e-06 0.107498)
(1.12495e-05 -6.08687e-06 0.107494)
(1.1215e-05 6.05567e-06 0.107492)
(2.39618e-05 -2.39855e-05 0.104198)
(-4.16648e-05 4.16743e-05 0.104316)
(5.97747e-06 1.11313e-05 0.1075)
(-6.06552e-06 1.1249e-05 0.107493)
(6.07604e-06 1.12484e-05 0.107493)
(4.16658e-05 4.16682e-05 0.104316)
(2.38501e-05 2.38587e-05 0.104202)
(-6.07823e-06 -1.12596e-05 0.10749)
(6.07155e-06 -1.12548e-05 0.10749)
(-2.38855e-05 2.38351e-05 0.104202)
(-1.12883e-05 -6.09885e-06 0.107491)
(-1.12503e-05 6.0844e-06 0.107488)
(1.12789e-05 6.0807e-06 0.107488)
(2.38418e-05 -2.38639e-05 0.104201)
(6.10223e-06 1.1283e-05 0.10749)
(-3.15416e-07 -1.66455e-05 0.0913959)
(6.53403e-07 7.16333e-06 0.0821926)
(-1.18211e-06 -1.21114e-05 0.0822524)
(-2.73582e-07 5.03688e-06 0.0913444)
(-2.61019e-06 4.26529e-06 0.0715102)
(3.23168e-06 -5.89607e-06 0.0715755)
(-1.66481e-05 -2.86242e-07 0.0913961)
(7.14817e-06 6.74652e-07 0.0821934)
(-1.21121e-05 -1.18023e-06 0.082253)
(5.03598e-06 -2.60451e-07 0.0913445)
(9.59435e-06 -9.58944e-06 0.112516)
(-9.59019e-06 9.60371e-06 0.112515)
(9.60447e-06 9.60034e-06 0.112514)
(-9.8747e-06 -9.86507e-06 0.112488)
(9.87683e-06 -9.87523e-06 0.112488)
(-9.86282e-06 9.88148e-06 0.112487)
(9.88895e-06 9.8867e-06 0.112488)
(2.72586e-05 -6.92429e-07 0.0985603)
(-8.78266e-06 3.13567e-06 0.0929754)
(1.39454e-05 -2.51362e-06 0.109933)
(1.11704e-05 -6.02056e-06 0.107498)
(2.04533e-05 -7.81544e-06 0.0930397)
(1.40519e-05 -2.5343e-06 0.109927)
(-8.12821e-06 -4.56328e-07 0.0984987)
(4.30547e-06 -2.6487e-06 0.0715124)
(-5.91014e-06 3.30759e-06 0.0715732)
(-7.18323e-07 2.72587e-05 0.0985599)
(-2.50077e-06 1.39478e-05 0.109931)
(3.14574e-06 -8.77456e-06 0.0929755)
(-6.00251e-06 1.11733e-05 0.107497)
(-2.51766e-06 1.40451e-05 0.109926)
(-7.78076e-06 2.04642e-05 0.0930389)
(-4.04766e-07 -8.14458e-06 0.0984983)
(-3.54773e-06 -3.52401e-06 0.0875182)
(-3.52467e-06 -3.54197e-06 0.0875172)
(4.17296e-05 4.17277e-05 0.104315)
(9.95979e-06 6.91237e-06 0.087576)
(6.93308e-06 9.95338e-06 0.0875745)
(6.17273e-07 7.19531e-06 0.0822264)
(-2.70557e-07 5.01811e-06 0.0913756)
(-2.5469e-06 4.28989e-06 0.0715408)
(7.16553e-06 6.32067e-07 0.0822272)
(5.01726e-06 -2.56815e-07 0.0913757)
(9.96774e-06 -9.9652e-06 0.11248)
(-9.95697e-06 9.97208e-06 0.112478)
(9.9517e-06 9.9751e-06 0.112478)
(2.72533e-05 -6.81238e-07 0.0985813)
(-8.78277e-06 3.09982e-06 0.0930044)
(1.43243e-05 -2.61052e-06 0.109913)
(-8.03298e-06 -4.53402e-07 0.0985197)
(1.44138e-05 -2.62326e-06 0.109908)
(4.32794e-06 -2.58792e-06 0.071543)
(-7.15928e-07 2.72535e-05 0.0985809)
(-2.58433e-06 1.43308e-05 0.109912)
(3.10815e-06 -8.7758e-06 0.0930045)
(-4.04353e-07 -8.04856e-06 0.0985194)
(-2.60383e-06 1.44062e-05 0.109907)
(-3.58384e-06 -3.4871e-06 0.0875502)
(-3.48027e-06 -3.57715e-06 0.0875492)
(4.16493e-05 4.1603e-05 0.104318)
(9.88347e-06 6.92948e-06 0.0876078)
(6.95605e-06 9.88289e-06 0.0876062)
(2.61949e-06 4.34156e-06 0.0715116)
(-3.29214e-06 -5.94124e-06 0.0715735)
(4.31666e-06 2.63953e-06 0.0715117)
(-5.92529e-06 -3.30461e-06 0.0715731)
(3.49534e-06 3.54184e-06 0.0875178)
(3.55838e-06 3.51285e-06 0.0875168)
(-4.17358e-05 -4.17322e-05 0.104315)
(-6.89709e-06 -9.9401e-06 0.0875765)
(-9.97008e-06 -6.92461e-06 0.0875743)
(-3.31763e-06 -5.91325e-06 0.0715887)
(2.58855e-06 4.35253e-06 0.071527)
(-5.89745e-06 -3.32967e-06 0.0715884)
(4.32722e-06 2.60883e-06 0.071527)
(2.3901e-05 2.39086e-05 0.1042)
(-6.90623e-06 -9.90241e-06 0.0875924)
(-9.93544e-06 -6.93343e-06 0.0875902)
(3.47407e-06 3.56008e-06 0.0875338)
(3.57602e-06 3.49201e-06 0.0875328)
(2.75761e-07 -1.66499e-05 0.091396)
(-6.48432e-07 7.12493e-06 0.0821923)
(1.12311e-06 -1.21084e-05 0.0822536)
(2.34657e-07 5.03589e-06 0.0913446)
(-7.14166e-07 -2.72926e-05 0.0985597)
(3.14552e-06 8.78687e-06 0.0929743)
(-2.50422e-06 -1.39327e-05 0.109932)
(-5.98618e-06 -1.11418e-05 0.107496)
(-7.77765e-06 -2.04492e-05 0.0930385)
(-2.52431e-06 -1.4033e-05 0.109927)
(-4.41121e-07 8.16813e-06 0.0984982)
(6.72986e-07 -2.7301e-05 0.0985599)
(-3.14944e-06 8.7721e-06 0.0929741)
(2.49314e-06 -1.39369e-05 0.109932)
(5.96983e-06 -1.11594e-05 0.107496)
(7.72798e-06 -2.04579e-05 0.093039)
(2.51393e-06 -1.40363e-05 0.109927)
(4.06356e-07 8.16979e-06 0.0984984)
(-2.71227e-07 5.025e-06 0.09136)
(-1.19957e-06 -1.20831e-05 0.0822692)
(6.33964e-07 7.17467e-06 0.0822095)
(-3.14036e-07 -1.66267e-05 0.0914115)
(2.34271e-07 5.02412e-06 0.0913601)
(1.14703e-06 -1.20884e-05 0.0822704)
(-6.27396e-07 7.13911e-06 0.0822092)
(2.75356e-07 -1.66327e-05 0.0914116)
(-4.39616e-07 8.11617e-06 0.0985087)
(-6.01885e-06 -1.11859e-05 0.107494)
(-7.78068e-06 -2.04263e-05 0.0930529)
(-2.56662e-06 -1.42228e-05 0.109917)
(3.12611e-06 8.78686e-06 0.0929888)
(-2.54692e-06 -1.41333e-05 0.109922)
(-7.15677e-07 -2.72969e-05 0.0985702)
(4.0582e-07 8.11793e-06 0.0985089)
(6.01053e-06 -1.1195e-05 0.107494)
(7.73326e-06 -2.04329e-05 0.0930535)
(2.55268e-06 -1.42263e-05 0.109917)
(-3.12979e-06 8.77104e-06 0.0929885)
(2.53873e-06 -1.41373e-05 0.109922)
(6.7406e-07 -2.73052e-05 0.0985704)
(-3.53771e-06 3.51449e-06 0.0875163)
(-3.56848e-06 3.49258e-06 0.0875185)
(4.17251e-05 -4.17452e-05 0.104316)
(6.88404e-06 -9.94623e-06 0.0875755)
(9.94973e-06 -6.95411e-06 0.0875766)
(-4.32455e-06 2.626e-06 0.071512)
(5.91138e-06 -3.33558e-06 0.071574)
(3.25973e-06 -5.86604e-06 0.0715907)
(-2.57729e-06 4.2769e-06 0.0715255)
(-2.3934e-05 2.388e-05 0.1042)
(6.89617e-06 -9.90664e-06 0.0875914)
(9.91117e-06 -6.96042e-06 0.0875925)
(-3.51419e-06 3.53195e-06 0.0875323)
(-3.58269e-06 3.47161e-06 0.0875345)
(5.88204e-06 -3.35633e-06 0.0715893)
(-4.33244e-06 2.59457e-06 0.0715273)
(-2.73012e-05 -6.84597e-07 0.0985599)
(8.78608e-06 3.15872e-06 0.0929749)
(-1.3943e-05 -2.50348e-06 0.109932)
(-1.11734e-05 -6.0012e-06 0.107498)
(-2.04806e-05 -7.79354e-06 0.0930385)
(-1.40424e-05 -2.5222e-06 0.109927)
(8.17027e-06 -4.34686e-07 0.0984982)
(-1.66442e-05 3.12655e-07 0.091396)
(7.14619e-06 -6.72944e-07 0.0821933)
(-1.20969e-05 1.18548e-06 0.0822526)
(5.03592e-06 2.44307e-07 0.0913445)
(-2.72962e-05 7.10628e-07 0.0985598)
(-1.39351e-05 2.49873e-06 0.109931)
(8.76704e-06 -3.16149e-06 0.0929746)
(-1.11382e-05 5.98752e-06 0.107495)
(-1.40336e-05 2.52092e-06 0.109926)
(-2.04463e-05 7.78214e-06 0.0930375)
(8.17164e-06 4.08369e-07 0.0984982)
(5.02541e-06 -2.5808e-07 0.0913601)
(-1.20763e-05 -1.1956e-06 0.0822698)
(7.15739e-06 6.53729e-07 0.0822103)
(-1.663e-05 -2.85981e-07 0.0914116)
(8.11699e-06 -4.3322e-07 0.0985088)
(-1.12165e-05 -6.03886e-06 0.107496)
(-2.04571e-05 -7.79757e-06 0.0930529)
(-1.4232e-05 -2.56468e-06 0.109917)
(8.78481e-06 3.14087e-06 0.0929894)
(-1.41446e-05 -2.54751e-06 0.109922)
(-2.73038e-05 -6.85482e-07 0.0985704)
(5.02474e-06 2.43875e-07 0.09136)
(-1.20667e-05 1.20483e-06 0.0822695)
(7.15579e-06 -6.56285e-07 0.0822102)
(-1.66266e-05 3.10521e-07 0.0914115)
(8.11862e-06 4.0868e-07 0.0985087)
(-1.1183e-05 6.02402e-06 0.107493)
(-1.42225e-05 2.56276e-06 0.109917)
(-2.04255e-05 7.78722e-06 0.0930519)
(-1.41373e-05 2.5425e-06 0.109921)
(8.7682e-06 -3.14482e-06 0.0929891)
(-2.72984e-05 7.10365e-07 0.0985702)
(1.66032e-05 -2.60746e-07 0.0913969)
(-7.13892e-06 6.89206e-07 0.0821931)
(1.20872e-05 -1.23628e-06 0.0822536)
(-4.99505e-06 -3.20937e-07 0.091344)
(2.72733e-05 7.02392e-07 0.0985601)
(1.39466e-05 2.49193e-06 0.109932)
(-8.75896e-06 -3.17016e-06 0.092975)
(1.11515e-05 5.99228e-06 0.107496)
(1.40456e-05 2.52049e-06 0.109927)
(2.04442e-05 7.77518e-06 0.0930388)
(-8.14522e-06 3.97206e-07 0.0984987)
(1.6633e-05 3.20602e-07 0.0913962)
(-7.14017e-06 -6.80086e-07 0.0821934)
(1.21063e-05 1.1743e-06 0.0822531)
(-5.0236e-06 2.06756e-07 0.0913445)
(-8.07762e-06 -4.52708e-07 0.0985091)
(1.12122e-05 -6.05786e-06 0.107497)
(2.04265e-05 -7.81451e-06 0.093054)
(1.42414e-05 -2.57603e-06 0.109918)
(-8.77903e-06 3.11704e-06 0.0929899)
(1.41459e-05 -2.55983e-06 0.109923)
(2.726e-05 -6.92173e-07 0.0985708)
(-4.98369e-06 -3.18626e-07 0.0913596)
(1.20568e-05 -1.25032e-06 0.0822704)
(-7.14623e-06 6.68771e-07 0.08221)
(1.6583e-05 -2.58501e-07 0.0914124)
(-8.096e-06 3.97814e-07 0.0985091)
(1.12072e-05 6.01951e-06 0.107493)
(1.42334e-05 2.56868e-06 0.109917)
(2.04293e-05 7.77614e-06 0.0930532)
(1.41481e-05 2.52959e-06 0.109922)
(-8.75862e-06 -3.15014e-06 0.0929895)
(2.72767e-05 7.02601e-07 0.0985706)
(-5.0137e-06 2.06206e-07 0.0913601)
(1.20814e-05 1.19163e-06 0.0822699)
(-7.15355e-06 -6.58736e-07 0.0822103)
(1.66124e-05 3.20734e-07 0.0914117)
(3.5326e-06 -3.52475e-06 0.087517)
(3.50029e-06 -3.52887e-06 0.0875185)
(-4.17213e-05 4.17287e-05 0.104315)
(-9.94683e-06 6.91173e-06 0.0875733)
(-6.90842e-06 9.94113e-06 0.0875761)
(2.6348e-06 -4.31911e-06 0.0715122)
(-3.3001e-06 5.9251e-06 0.0715736)
(-5.8814e-06 3.33394e-06 0.0715884)
(4.3166e-06 -2.61677e-06 0.0715277)
(2.38989e-05 -2.39232e-05 0.1042)
(-9.9103e-06 6.92256e-06 0.0875892)
(-6.92279e-06 9.90917e-06 0.0875919)
(3.55267e-06 -3.50177e-06 0.0875329)
(3.47987e-06 -3.55136e-06 0.0875345)
(-3.32561e-06 5.8963e-06 0.0715888)
(2.60284e-06 -4.32808e-06 0.0715276)
(6.88394e-07 2.72488e-05 0.0985603)
(2.50411e-06 1.39474e-05 0.109931)
(-3.16747e-06 -8.7727e-06 0.0929753)
(6.0122e-06 1.11781e-05 0.107497)
(2.53124e-06 1.40463e-05 0.109926)
(7.79686e-06 2.04685e-05 0.0930389)
(4.27715e-07 -8.13219e-06 0.0984985)
(-3.46178e-07 1.66013e-05 0.0913966)
(6.68517e-07 -7.14115e-06 0.0821936)
(-1.17533e-06 1.21093e-05 0.082253)
(-2.1079e-07 -5.00615e-06 0.0913438)
(2.8446e-07 1.65794e-05 0.0913972)
(-6.90394e-07 -7.13935e-06 0.0821939)
(1.19604e-06 1.21064e-05 0.0822536)
(2.60351e-07 -4.98362e-06 0.0913434)
(-4.04482e-07 -8.09152e-06 0.0985088)
(-6.04331e-06 1.12183e-05 0.107495)
(-2.55882e-06 1.42336e-05 0.109916)
(-7.78311e-06 2.04414e-05 0.0930533)
(-2.54173e-06 1.41504e-05 0.109921)
(3.12815e-06 -8.77165e-06 0.09299)
(-7.17453e-07 2.72596e-05 0.0985703)
(4.2825e-07 -8.07971e-06 0.0985089)
(6.04539e-06 1.12167e-05 0.107495)
(2.57864e-06 1.4237e-05 0.109916)
(7.80036e-06 2.04452e-05 0.0930533)
(2.54687e-06 1.41464e-05 0.109922)
(-3.14852e-06 -8.77124e-06 0.0929897)
(6.87886e-07 2.72502e-05 0.0985707)
(-2.07837e-07 -4.9939e-06 0.0913594)
(-1.19113e-06 1.20818e-05 0.0822698)
(6.46991e-07 -7.15196e-06 0.0822105)
(-3.44526e-07 1.65826e-05 0.0914121)
(2.60701e-07 -4.97153e-06 0.091359)
(1.21561e-06 1.20757e-05 0.0822704)
(-6.68899e-07 -7.15136e-06 0.0822108)
(2.83817e-07 1.65597e-05 0.0914127)
(-4.31654e-06 -2.64208e-06 0.0715124)
(5.92675e-06 3.29709e-06 0.071574)
(-2.65361e-06 -4.31043e-06 0.0715125)
(3.32004e-06 5.91693e-06 0.0715739)
(-2.39079e-05 -2.38997e-05 0.1042)
(9.92661e-06 6.92476e-06 0.0875918)
(6.94567e-06 9.91588e-06 0.0875903)
(-3.5643e-06 -3.50181e-06 0.0875343)
(-3.50198e-06 -3.55958e-06 0.0875332)
(5.90238e-06 3.32129e-06 0.0715892)
(-4.32779e-06 -2.61082e-06 0.0715278)
(3.34808e-06 5.88813e-06 0.0715891)
(-2.62133e-06 -4.32163e-06 0.0715279)
(2.56001e-06 4.36497e-06 0.0715422)
(4.33918e-06 2.58002e-06 0.0715423)
(3.45744e-06 3.58324e-06 0.0875498)
(3.59986e-06 3.47364e-06 0.0875487)
(-6.07265e-07 7.15627e-06 0.082226)
(2.35173e-07 5.01671e-06 0.0913758)
(3.10863e-06 8.79795e-06 0.0930033)
(-2.58446e-06 -1.43147e-05 0.109913)
(-4.40025e-07 8.07601e-06 0.0985193)
(-3.11023e-06 8.77724e-06 0.093003)
(2.58505e-06 -1.43176e-05 0.109913)
(4.05269e-07 8.07871e-06 0.0985195)
(-3.49551e-06 3.55653e-06 0.0875482)
(-3.59995e-06 3.45271e-06 0.0875505)
(-4.34322e-06 2.56642e-06 0.0715425)
(8.79051e-06 3.12342e-06 0.0930039)
(-1.43265e-05 -2.58602e-06 0.109913)
(8.07515e-06 -4.31711e-07 0.0985194)
(7.16614e-06 -6.37935e-07 0.0822271)
(5.01658e-06 2.44915e-07 0.0913756)
(-1.43186e-05 2.58329e-06 0.109912)
(8.77522e-06 -3.12722e-06 0.0930035)
(8.07666e-06 4.08697e-07 0.0985193)
(1.6557e-05 -2.53803e-07 0.0914279)
(-7.16168e-06 6.52164e-07 0.0822269)
(-4.9725e-06 -3.18309e-07 0.0913752)
(2.72676e-05 7.03434e-07 0.0985811)
(1.43303e-05 2.55799e-06 0.109912)
(-8.76443e-06 -3.13044e-06 0.093004)
(1.12572e-05 6.10528e-06 0.107488)
(-8.05196e-06 3.97042e-07 0.0985196)
(1.4407e-05 2.61312e-06 0.109907)
(2.0412e-05 7.77674e-06 0.0930677)
(1.65826e-05 3.21177e-07 0.0914273)
(-7.17039e-06 -6.37351e-07 0.0822272)
(-5.00156e-06 2.06781e-07 0.0913757)
(1.20436e-05 1.20667e-06 0.0822867)
(3.5736e-06 -3.48266e-06 0.0875489)
(3.46304e-06 -3.57948e-06 0.0875506)
(2.57304e-06 -4.34029e-06 0.0715428)
(6.88195e-07 2.72458e-05 0.0985812)
(2.58731e-06 1.43209e-05 0.109912)
(-3.12659e-06 -8.77755e-06 0.0930043)
(6.11864e-06 1.12997e-05 0.107488)
(4.28794e-07 -8.03654e-06 0.0985195)
(2.61823e-06 1.44096e-05 0.109907)
(7.8008e-06 2.04209e-05 0.0930677)
(-3.41727e-07 1.6557e-05 0.0914276)
(6.26174e-07 -7.16355e-06 0.0822274)
(-2.07142e-07 -4.98379e-06 0.091375)
(2.82603e-07 1.65357e-05 0.0914283)
(-6.44158e-07 -7.16227e-06 0.0822277)
(2.60522e-07 -4.96312e-06 0.0913746)
(1.23018e-06 1.20395e-05 0.0822872)
(-4.34283e-06 -2.58157e-06 0.071543)
(5.87386e-06 3.34446e-06 0.0716043)
(-2.58975e-06 -4.33308e-06 0.0715432)
(3.37202e-06 5.85824e-06 0.0716042)
(-6.99752e-07 4.27414e-06 0.0768514)
(1.18736e-07 -7.46124e-06 0.0786687)
(-1.14614e-06 -1.60364e-05 0.0899173)
(-2.72359e-07 5.02956e-06 0.0913522)
(-2.01552e-07 3.87165e-06 0.0786281)
(-5.52797e-07 5.54381e-06 0.0898675)
(5.38871e-07 -7.46656e-06 0.0768984)
(2.10216e-07 -6.12085e-06 0.0684364)
(-1.17296e-06 -1.21253e-05 0.082244)
(-7.43936e-07 5.84814e-06 0.0857867)
(-1.36643e-06 -1.23745e-05 0.085843)
(-8.50911e-07 4.92564e-06 0.0683753)
(-8.65752e-07 4.92567e-06 0.0683829)
(-1.37343e-06 -1.23587e-05 0.0858515)
(6.43308e-07 7.16791e-06 0.0822011)
(-7.53409e-07 5.85395e-06 0.0857952)
(1.98666e-07 -6.1125e-06 0.0684439)
(5.44893e-07 -7.47111e-06 0.07689)
(-3.16792e-07 -1.66558e-05 0.0913882)
(-2.0124e-07 3.8745e-06 0.0786196)
(-5.47651e-07 5.55104e-06 0.0898594)
(1.1782e-07 -7.47134e-06 0.0786602)
(-1.14314e-06 -1.60454e-05 0.0899092)
(-6.91246e-07 4.27818e-06 0.076843)
(3.21646e-06 -5.90922e-06 0.0715678)
(-2.59295e-06 4.27062e-06 0.0715179)
(4.27708e-06 -6.80754e-07 0.0768519)
(-1.60435e-05 -1.1236e-06 0.0899176)
(-7.46581e-06 1.43679e-07 0.0786689)
(5.0296e-06 -2.59257e-07 0.0913523)
(5.54935e-06 -5.33937e-07 0.0898678)
(3.87184e-06 -1.90193e-07 0.0786283)
(-7.47165e-06 5.60181e-07 0.0768989)
(-6.12587e-06 2.27991e-07 0.068437)
(-1.2126e-05 -1.17119e-06 0.0822446)
(5.8374e-06 -7.18167e-07 0.0857871)
(-1.23843e-05 -1.35213e-06 0.0858434)
(4.92077e-06 -8.20758e-07 0.068376)
(4.92119e-06 -8.36174e-07 0.0683836)
(-1.23685e-05 -1.35905e-06 0.0858519)
(7.15261e-06 6.6395e-07 0.0822018)
(5.84411e-06 -7.27739e-07 0.0857956)
(-6.11721e-06 2.15578e-07 0.0684446)
(-7.47724e-06 5.66783e-07 0.0768905)
(-1.66598e-05 -2.87354e-07 0.0913884)
(5.55669e-06 -5.28806e-07 0.0898597)
(3.87356e-06 -1.9029e-07 0.0786198)
(-1.60537e-05 -1.12067e-06 0.0899096)
(-7.47593e-06 1.43424e-07 0.0786604)
(4.27978e-06 -6.72302e-07 0.0768434)
(-5.92334e-06 3.29167e-06 0.0715656)
(4.31105e-06 -2.63279e-06 0.0715201)
(-3.11201e-06 -3.13134e-06 0.0835876)
(3.61341e-06 5.14832e-06 0.0683541)
(5.15377e-06 3.61229e-06 0.0683478)
(-2.62809e-06 -4.09583e-06 0.0682982)
(-4.07787e-06 -2.64256e-06 0.0682922)
(7.27829e-06 7.26836e-06 0.0836336)
(1.68861e-05 1.03141e-05 0.0916922)
(-1.10179e-05 -5.5676e-06 0.0962497)
(9.97813e-06 6.91001e-06 0.087568)
(-3.81957e-06 -3.05305e-06 0.0815235)
(2.41109e-05 1.42169e-05 0.0962989)
(8.13594e-06 4.00526e-06 0.0815755)
(-7.77697e-06 -3.80687e-06 0.0916443)
(1.03467e-05 1.6889e-05 0.0916855)
(-5.57408e-06 -1.0997e-05 0.0962472)
(6.92734e-06 9.97109e-06 0.0875665)
(-3.05751e-06 -3.83879e-06 0.081519)
(1.42432e-05 2.41034e-05 0.0962963)
(4.03093e-06 8.14781e-06 0.08157)
(-3.81096e-06 -7.793e-06 0.091638)
(-7.78277e-06 -3.80524e-06 0.0916514)
(8.1202e-06 4.00901e-06 0.0815833)
(-3.55581e-06 -3.51408e-06 0.0875263)
(2.40845e-05 1.42116e-05 0.0963047)
(-1.10208e-05 -5.5602e-06 0.0962556)
(-3.82709e-06 -3.04479e-06 0.0815313)
(1.68613e-05 1.03039e-05 0.0916992)
(-3.8089e-06 -7.79865e-06 0.091645)
(4.03601e-06 8.13199e-06 0.0815778)
(-3.51346e-06 -3.55034e-06 0.0875252)
(1.42424e-05 2.40761e-05 0.0963021)
(-5.56535e-06 -1.09982e-05 0.0962531)
(-3.04805e-06 -3.84727e-06 0.0815269)
(1.03381e-05 1.68635e-05 0.0916925)
(7.28851e-06 7.27974e-06 0.0836261)
(-2.62542e-06 -4.09873e-06 0.0682915)
(-4.08216e-06 -2.63919e-06 0.0682854)
(3.62173e-06 5.14994e-06 0.0683474)
(5.15513e-06 3.62079e-06 0.0683411)
(-3.10933e-06 -3.12858e-06 0.0835801)
(1.60712e-07 -6.08432e-06 0.0684664)
(-7.83353e-07 5.87377e-06 0.0858206)
(-1.2116e-06 -1.20775e-05 0.0822776)
(-9.13309e-07 4.92555e-06 0.0684056)
(-1.39501e-06 -1.23084e-05 0.0858768)
(5.1991e-07 -7.44916e-06 0.0769234)
(-3.13299e-07 -1.66163e-05 0.0914192)
(-1.99872e-07 3.87376e-06 0.0786537)
(-5.70727e-07 5.53063e-06 0.0898918)
(-7.25551e-07 4.26817e-06 0.0768766)
(1.21003e-07 -7.44219e-06 0.0786941)
(-1.15669e-06 -1.60049e-05 0.0899415)
(3.27182e-06 -5.85139e-06 0.0715983)
(-6.09027e-06 1.78536e-07 0.0684671)
(5.86305e-06 -7.56967e-07 0.085821)
(-1.20542e-05 -1.19762e-06 0.0822782)
(4.92208e-06 -8.83245e-07 0.0684063)
(-1.23201e-05 -1.3795e-06 0.0858772)
(-7.45336e-06 5.39849e-07 0.0769239)
(-1.66212e-05 -2.84784e-07 0.0914194)
(5.5367e-06 -5.49989e-07 0.0898921)
(3.87029e-06 -1.88402e-07 0.0786538)
(4.26824e-06 -7.05741e-07 0.0768771)
(-1.60153e-05 -1.13435e-06 0.0899418)
(-7.45102e-06 1.42538e-07 0.0786943)
(-5.86806e-06 3.34613e-06 0.071596)
(-3.11896e-06 -3.1468e-06 0.0836177)
(3.57899e-06 5.14041e-06 0.0683808)
(5.14686e-06 3.57263e-06 0.0683746)
(-2.62796e-06 -4.09078e-06 0.0683251)
(-4.05959e-06 -2.64705e-06 0.0683191)
(7.23595e-06 7.2273e-06 0.0836637)
(1.67967e-05 1.02837e-05 0.0917203)
(-1.10328e-05 -5.53776e-06 0.0962733)
(-3.85674e-06 -3.0301e-06 0.0815548)
(9.90975e-06 6.93028e-06 0.0875998)
(-7.80968e-06 -3.81259e-06 0.0916725)
(2.40184e-05 1.42296e-05 0.0963224)
(8.07285e-06 4.02532e-06 0.0816065)
(1.03205e-05 1.67956e-05 0.0917136)
(-5.54281e-06 -1.10013e-05 0.0962708)
(-3.02267e-06 -3.87596e-06 0.0815503)
(6.95277e-06 9.90431e-06 0.0875983)
(-3.80479e-06 -7.82663e-06 0.0916661)
(1.42457e-05 2.40247e-05 0.0963197)
(4.05319e-06 8.08075e-06 0.0816011)
(7.2494e-06 7.23673e-06 0.0836562)
(-2.63149e-06 -4.09153e-06 0.0683184)
(-4.06429e-06 -2.65061e-06 0.0683124)
(-3.11921e-06 -3.14686e-06 0.0836101)
(3.58996e-06 5.14335e-06 0.0683742)
(5.15098e-06 3.58509e-06 0.0683679)
(-7.81814e-06 -3.82108e-06 0.0916796)
(8.05325e-06 4.02412e-06 0.0816144)
(-3.59541e-06 -3.47437e-06 0.0875583)
(2.39597e-05 1.4218e-05 0.0963283)
(-1.10423e-05 -5.53006e-06 0.0962793)
(-3.86725e-06 -3.02808e-06 0.0815626)
(1.6761e-05 1.02633e-05 0.0917273)
(-3.80908e-06 -7.83281e-06 0.0916732)
(4.05534e-06 8.06044e-06 0.0816089)
(-3.47259e-06 -3.58765e-06 0.0875571)
(1.42448e-05 2.40054e-05 0.0963257)
(-5.54171e-06 -1.10032e-05 0.0962768)
(-3.01479e-06 -3.88338e-06 0.0815581)
(1.03083e-05 1.67623e-05 0.0917206)
(-3.27843e-06 -5.95436e-06 0.0715659)
(2.60366e-06 4.34683e-06 0.0715193)
(-5.93862e-06 -3.29109e-06 0.0715655)
(4.32153e-06 2.62368e-06 0.0715194)
(3.13963e-06 3.12334e-06 0.083587)
(-5.14094e-06 -3.62565e-06 0.0683539)
(-3.61654e-06 -5.16243e-06 0.0683475)
(4.0921e-06 2.63814e-06 0.0682975)
(2.65486e-06 4.07819e-06 0.0682913)
(-7.27377e-06 -7.29263e-06 0.0836339)
(-1.03077e-05 -1.687e-05 0.0916924)
(5.56934e-06 1.10105e-05 0.0962495)
(-6.89164e-06 -9.95571e-06 0.0875685)
(3.02742e-06 3.79483e-06 0.0815231)
(-3.98263e-06 -8.10298e-06 0.0815764)
(-1.42088e-05 -2.40787e-05 0.0962988)
(3.8049e-06 7.77128e-06 0.0916439)
(-1.68687e-05 -1.034e-05 0.0916859)
(1.09892e-05 5.56402e-06 0.0962469)
(-9.98574e-06 -6.91895e-06 0.0875664)
(3.83761e-06 3.02877e-06 0.0815182)
(-8.14088e-06 -4.01407e-06 0.0815704)
(-2.40973e-05 -1.42342e-05 0.0962964)
(7.77493e-06 3.7982e-06 0.0916374)
(3.80329e-06 7.77631e-06 0.0916509)
(-3.98713e-06 -8.08852e-06 0.0815842)
(3.48383e-06 3.5502e-06 0.0875258)
(-1.42093e-05 -2.40577e-05 0.0963047)
(3.018e-06 3.80216e-06 0.081531)
(-1.03012e-05 -1.6849e-05 0.0916994)
(5.56065e-06 1.10102e-05 0.0962554)
(7.77957e-06 3.79696e-06 0.0916445)
(-8.12545e-06 -4.01773e-06 0.0815782)
(3.56641e-06 3.50157e-06 0.0875248)
(-2.40755e-05 -1.42334e-05 0.0963022)
(3.84495e-06 3.01982e-06 0.081526)
(-1.68473e-05 -1.0332e-05 0.0916929)
(1.0988e-05 5.5551e-06 0.0962528)
(-7.28284e-06 -7.30216e-06 0.0836263)
(4.09582e-06 2.63627e-06 0.0682907)
(2.6534e-06 4.08168e-06 0.0682845)
(-5.14286e-06 -3.63429e-06 0.0683472)
(-3.62479e-06 -5.16445e-06 0.0683408)
(3.13767e-06 3.12085e-06 0.0835795)
(2.57373e-06 4.35844e-06 0.0715346)
(-3.3043e-06 -5.92781e-06 0.0715811)
(4.33294e-06 2.59374e-06 0.0715347)
(-5.91157e-06 -3.31721e-06 0.0715808)
(-7.26361e-06 -7.28246e-06 0.0836414)
(4.08836e-06 2.64091e-06 0.0683042)
(2.65681e-06 4.07456e-06 0.068298)
(3.14227e-06 3.12648e-06 0.0835946)
(-5.13792e-06 -3.61767e-06 0.0683606)
(-3.60901e-06 -5.15997e-06 0.0683542)
(3.80506e-06 7.79174e-06 0.091665)
(-1.42079e-05 -2.40094e-05 0.0963164)
(3.46307e-06 3.56936e-06 0.0875418)
(-3.99249e-06 -8.05472e-06 0.0815998)
(3.00353e-06 3.8213e-06 0.0815466)
(5.54714e-06 1.1017e-05 0.0962671)
(-1.02792e-05 -1.68e-05 0.0917134)
(7.79506e-06 3.79944e-06 0.0916586)
(-2.40273e-05 -1.42315e-05 0.0963139)
(3.58574e-06 3.48065e-06 0.0875407)
(-8.09973e-06 -4.02995e-06 0.0815938)
(3.8641e-06 3.00542e-06 0.0815417)
(1.09947e-05 5.5408e-06 0.0962646)
(-1.67988e-05 -1.0313e-05 0.0917069)
(-1.02916e-05 -1.68252e-05 0.0917064)
(3.00994e-06 3.80953e-06 0.0815388)
(5.55434e-06 1.10127e-05 0.0962612)
(-6.90186e-06 -9.92342e-06 0.0875844)
(3.80434e-06 7.78243e-06 0.0916579)
(-3.99102e-06 -8.07359e-06 0.081592)
(-1.4209e-05 -2.40346e-05 0.0963105)
(-1.68241e-05 -1.03238e-05 0.0916999)
(3.85509e-06 3.01402e-06 0.0815338)
(1.09902e-05 5.54835e-06 0.0962586)
(-9.95257e-06 -6.92997e-06 0.0875823)
(7.78499e-06 3.7968e-06 0.0916515)
(-8.10739e-06 -4.02e-06 0.081586)
(-2.40525e-05 -1.42323e-05 0.0963081)
(3.14644e-06 3.1305e-06 0.0836021)
(-5.13554e-06 -3.60993e-06 0.0683673)
(-3.59909e-06 -5.15737e-06 0.0683609)
(4.08436e-06 2.64274e-06 0.068311)
(2.65887e-06 4.07085e-06 0.0683048)
(-7.25111e-06 -7.27129e-06 0.0836489)
(6.67797e-07 4.26346e-06 0.0768515)
(-1.51824e-07 -7.46452e-06 0.0786688)
(1.10438e-06 -1.60463e-05 0.0899173)
(2.34439e-07 5.02927e-06 0.0913523)
(1.73184e-07 3.87079e-06 0.0786282)
(5.16266e-07 5.54005e-06 0.0898681)
(-5.73349e-07 -7.4708e-06 0.0768982)
(-2.5615e-07 -6.12532e-06 0.0684388)
(1.1125e-06 -1.21201e-05 0.0822452)
(7.34163e-07 5.83901e-06 0.085788)
(1.30613e-06 -1.23924e-05 0.0858438)
(8.26831e-07 4.91592e-06 0.0683781)
(8.43944e-07 4.91602e-06 0.0683857)
(1.31395e-06 -1.23787e-05 0.0858522)
(-6.37186e-07 7.12956e-06 0.0822007)
(7.44257e-07 5.84481e-06 0.0857965)
(-2.42905e-07 -6.1176e-06 0.0684464)
(-5.80411e-07 -7.47604e-06 0.0768898)
(2.77147e-07 -1.66601e-05 0.0913883)
(1.72251e-07 3.87266e-06 0.0786197)
(5.09987e-07 5.54852e-06 0.0898601)
(-1.51654e-07 -7.47416e-06 0.0786603)
(1.10107e-06 -1.60537e-05 0.0899093)
(6.5802e-07 4.26452e-06 0.076843)
(5.3203e-07 -7.46282e-06 0.0769067)
(-2.00773e-07 3.87116e-06 0.0786366)
(-5.5824e-07 5.53886e-06 0.0898756)
(-3.14819e-07 -1.66357e-05 0.0914037)
(-7.081e-07 4.2711e-06 0.0768599)
(1.19457e-07 -7.45662e-06 0.0786772)
(-1.15005e-06 -1.60253e-05 0.0899254)
(-8.96388e-07 4.92494e-06 0.068398)
(6.23696e-07 7.17833e-06 0.082218)
(-1.38838e-06 -1.23249e-05 0.0858683)
(1.73017e-07 -6.09399e-06 0.068459)
(-7.73436e-07 5.86485e-06 0.0858121)
(1.85539e-07 -6.10269e-06 0.0684514)
(-7.63861e-07 5.85948e-06 0.0858036)
(-1.18822e-06 -1.20937e-05 0.0822608)
(-8.81513e-07 4.92487e-06 0.0683905)
(-1.38059e-06 -1.23407e-05 0.0858599)
(-7.16892e-07 4.2667e-06 0.0768682)
(-2.71337e-07 5.01813e-06 0.0913678)
(1.19886e-07 -7.45447e-06 0.0786856)
(-1.15385e-06 -1.60156e-05 0.0899334)
(5.24606e-07 -7.45994e-06 0.0769151)
(-2.00247e-07 3.87125e-06 0.0786452)
(-5.64934e-07 5.5332e-06 0.0898837)
(-5.65963e-07 -7.46223e-06 0.0769065)
(1.73252e-07 3.87023e-06 0.0786368)
(5.22746e-07 5.53647e-06 0.0898762)
(2.75558e-07 -1.66398e-05 0.0914038)
(6.77281e-07 4.26089e-06 0.0768599)
(-1.51088e-07 -7.45966e-06 0.0786772)
(1.10917e-06 -1.60344e-05 0.0899254)
(8.77932e-07 4.91636e-06 0.0684008)
(-6.17659e-07 7.14587e-06 0.0822176)
(1.33105e-06 -1.23465e-05 0.0858691)
(7.66307e-07 5.85789e-06 0.0858135)
(-2.1532e-07 -6.0992e-06 0.0684614)
(-2.28873e-07 -6.10742e-06 0.0684539)
(7.5566e-07 5.8528e-06 0.085805)
(1.1319e-06 -1.20894e-05 0.082262)
(8.61328e-07 4.91682e-06 0.0683932)
(1.32301e-06 -1.23588e-05 0.0858607)
(6.87337e-07 4.25961e-06 0.0768683)
(2.35307e-07 5.01772e-06 0.0913679)
(-1.49436e-07 -7.45624e-06 0.0786857)
(1.11357e-06 -1.60257e-05 0.0899334)
(1.75116e-07 3.87118e-06 0.0786453)
(5.30325e-07 5.53016e-06 0.0898843)
(-5.57755e-07 -7.4566e-06 0.0769149)
(-3.14311e-06 3.09855e-06 0.0835873)
(5.13058e-06 -3.6424e-06 0.0683486)
(3.60428e-06 -5.17e-06 0.0683541)