/*--------------------------------*- C++ -*----------------------------------*\
| =========                 |                                                 |
| \\      /  F ield         | OpenFOAM: The Open Source CFD Toolbox           |
|  \\    /   O peration     | Version:  2312                                  |
|   \\  /    A nd           | Website:  www.openfoam.com                      |
|    \\/     M anipulation  |                                                 |
\*---------------------------------------------------------------------------*/
FoamFile
{
    version     2.0;
    format      ascii;
    arch        "LSB;label=32;scalar=64";
    class       volScalarField;
    location    "750";
    object      epsilon;
}
// * * * * * * * * * * * * * * * * * * * * * * * * * * * * * * * * * * * * * //

dimensions      [0 2 -3 0 0 0 0];

internalField   nonuniform List<scalar> 
172512
(
4.9917e-07
4.99974e-07
4.99974e-07
4.99867e-07
4.45574e-07
4.54107e-07
4.54107e-07
4.63745e-07
4.03788e-07
4.18744e-07
4.18746e-07
4.39534e-07
3.68405e-07
3.88705e-07
3.88708e-07
4.17793e-07
3.38054e-07
3.62209e-07
3.62212e-07
3.96187e-07
3.11679e-07
3.38348e-07
3.38352e-07
3.74663e-07
2.885e-07
3.16691e-07
3.16695e-07
3.53771e-07
2.67943e-07
2.9706e-07
2.97064e-07
3.34191e-07
2.49595e-07
2.79396e-07
2.794e-07
3.16514e-07
2.33147e-07
2.63696e-07
2.637e-07
3.0118e-07
2.18372e-07
2.49965e-07
2.49969e-07
2.88503e-07
2.05093e-07
2.38203e-07
2.38208e-07
2.78699e-07
1.93172e-07
2.28412e-07
2.28416e-07
2.71875e-07
1.82496e-07
2.20598e-07
2.20603e-07
2.68158e-07
1.72975e-07
2.14769e-07
2.14773e-07
2.67636e-07
1.64535e-07
2.10933e-07
2.10938e-07
2.70487e-07
1.57114e-07
2.09104e-07
2.09109e-07
2.76692e-07
1.50659e-07
2.09294e-07
2.093e-07
2.86279e-07
1.45126e-07
2.1155e-07
2.11557e-07
2.99234e-07
1.40479e-07
2.15888e-07
2.15897e-07
3.15619e-07
1.3669e-07
2.2233e-07
2.22339e-07
3.35379e-07
1.33734e-07
2.3089e-07
2.30901e-07
3.58414e-07
1.3159e-07
2.41559e-07
2.41571e-07
3.8456e-07
1.30243e-07
2.54313e-07
2.54328e-07
4.13556e-07
1.29681e-07
2.69109e-07
2.69127e-07
4.45077e-07
1.29906e-07
2.85882e-07
2.85903e-07
4.78723e-07
1.30894e-07
3.04544e-07
3.04569e-07
5.14071e-07
1.32649e-07
3.24994e-07
3.25023e-07
5.5067e-07
1.35171e-07
3.47106e-07
3.4714e-07
5.88072e-07
1.38461e-07
3.70752e-07
3.70791e-07
6.25859e-07
1.42521e-07
3.9578e-07
3.95824e-07
6.63646e-07
1.47357e-07
4.22033e-07
4.22084e-07
7.01105e-07
1.52976e-07
4.49347e-07
4.49402e-07
7.37958e-07
1.59378e-07
4.77548e-07
4.7761e-07
7.73995e-07
1.66579e-07
5.06473e-07
5.06538e-07
8.09072e-07
1.74565e-07
5.35923e-07
5.35997e-07
8.43025e-07
1.83351e-07
5.65742e-07
5.65822e-07
8.75835e-07
1.92927e-07
5.95743e-07
5.95829e-07
9.07455e-07
2.0328e-07
6.25764e-07
6.25857e-07
9.37876e-07
2.14399e-07
6.55639e-07
6.55739e-07
9.67079e-07
2.26264e-07
6.85225e-07
6.85332e-07
9.95083e-07
2.38839e-07
7.14377e-07
7.14489e-07
1.02189e-06
2.52104e-07
7.42999e-07
7.43117e-07
1.04757e-06
2.66001e-07
7.7094e-07
7.71063e-07
1.0721e-06
2.80483e-07
7.98141e-07
7.98266e-07
1.09555e-06
2.95493e-07
8.24494e-07
8.24626e-07
1.11793e-06
3.10964e-07
8.4995e-07
8.50085e-07
1.1393e-06
3.26831e-07
8.74465e-07
8.74602e-07
1.15967e-06
3.43013e-07
8.97981e-07
8.98117e-07
1.17906e-06
3.59417e-07
9.20487e-07
9.20623e-07
1.19752e-06
3.75992e-07
9.41975e-07
9.42113e-07
1.21508e-06
3.92623e-07
9.62433e-07
9.62565e-07
1.23173e-06
4.09256e-07
9.81887e-07
9.82038e-07
1.24756e-06
4.25776e-07
1.00031e-06
1.00045e-06
1.26251e-06
4.42173e-07
1.0178e-06
1.01793e-06
1.27673e-06
4.58307e-07
1.03427e-06
1.03442e-06
1.29015e-06
4.74159e-07
1.0498e-06
1.04992e-06
1.30282e-06
4.89636e-07
1.06435e-06
1.06453e-06
1.31474e-06
5.04672e-07
1.07799e-06
1.07813e-06
1.32592e-06
5.19292e-07
1.0909e-06
1.09099e-06
1.33659e-06
5.335e-07
1.10269e-06
1.10284e-06
1.34637e-06
5.46857e-07
1.11376e-06
1.11396e-06
1.3556e-06
5.60215e-07
1.12423e-06
1.12425e-06
1.36443e-06
5.72247e-07
1.13365e-06
1.13375e-06
1.37229e-06
5.84257e-07
1.14203e-06
1.14228e-06
1.37942e-06
5.95355e-07
1.15025e-06
1.15024e-06
1.38648e-06
6.05685e-07
1.15783e-06
1.15783e-06
1.393e-06
6.16635e-07
1.16467e-06
1.16499e-06
1.3995e-06
6.24792e-07
1.17017e-06
1.17031e-06
1.40367e-06
6.33958e-07
1.17595e-06
1.17572e-06
1.40944e-06
6.39112e-07
1.17532e-06
1.17506e-06
1.40598e-06
6.51383e-07
1.19089e-06
1.19222e-06
1.42722e-06
6.61042e-07
1.19766e-06
1.1979e-06
1.43447e-06
6.52363e-07
1.16653e-06
1.16453e-06
1.38734e-06
6.5011e-07
1.16569e-06
1.16913e-06
1.39338e-06
6.95812e-07
1.24641e-06
1.25032e-06
1.50469e-06
7.18722e-07
1.26255e-06
1.25566e-06
1.51823e-06
6.68043e-07
1.16091e-06
1.15537e-06
1.38139e-06
6.07447e-07
1.07421e-06
1.09288e-06
1.28012e-06
6.30387e-07
1.13664e-06
1.15302e-06
1.37592e-06
7.43749e-07
1.29389e-06
1.27578e-06
1.54504e-06
7.53862e-07
1.2798e-06
1.25511e-06
1.5351e-06
6.74315e-07
1.15318e-06
1.15289e-06
1.38555e-06
6.48569e-07
1.13334e-06
1.15776e-06
1.36788e-06
6.93722e-07
1.19811e-06
1.22461e-06
1.45216e-06
7.20804e-07
1.2202e-06
1.215e-06
1.45704e-06
6.86979e-07
1.18429e-06
1.14976e-06
1.3958e-06
6.64557e-07
1.15718e-06
1.14345e-06
1.3854e-06
6.83622e-07
1.16968e-06
1.19396e-06
1.43428e-06
6.99964e-07
1.1809e-06
1.20158e-06
1.44214e-06
6.88503e-07
1.17169e-06
1.16858e-06
1.39718e-06
6.78142e-07
1.16642e-06
1.15655e-06
1.38252e-06
6.83573e-07
1.17038e-06
1.16666e-06
1.40775e-06
6.89081e-07
1.17164e-06
1.17023e-06
1.42132e-06
7.44397e-07
1.08349e-06
1.08124e-06
1.36569e-06
5.06203e-07
5.05587e-07
5.05586e-07
5.06203e-07
5.05586e-07
5.05586e-07
5.05987e-07
5.05987e-07
5.05987e-07
5.05987e-07
5.05588e-07
5.05588e-07
5.06203e-07
5.05588e-07
5.05587e-07
5.06204e-07
4.99868e-07
4.67259e-07
4.99975e-07
4.99976e-07
4.6413e-07
4.64138e-07
4.99868e-07
4.67258e-07
4.99976e-07
4.99976e-07
4.64134e-07
4.64139e-07
4.99974e-07
4.64124e-07
4.64129e-07
4.99867e-07
4.67261e-07
4.99976e-07
4.64125e-07
4.64134e-07
4.67263e-07
4.63745e-07
4.41544e-07
4.54112e-07
4.5412e-07
4.26998e-07
4.27007e-07
4.63745e-07
4.41543e-07
4.54116e-07
4.54123e-07
4.26998e-07
4.27009e-07
4.54113e-07
4.2699e-07
4.27e-07
4.63745e-07
4.41549e-07
4.54116e-07
4.26992e-07
4.27001e-07
4.41556e-07
4.39527e-07
4.19399e-07
4.18753e-07
4.18761e-07
3.95843e-07
3.95852e-07
4.3953e-07
4.19402e-07
4.18752e-07
4.18764e-07
3.95838e-07
3.95855e-07
4.18757e-07
3.95833e-07
3.95848e-07
4.39531e-07
4.19407e-07
4.18755e-07
3.95835e-07
3.95843e-07
4.19415e-07
4.17778e-07
3.97737e-07
3.88717e-07
3.88725e-07
3.68574e-07
3.68582e-07
4.17781e-07
3.97742e-07
3.8871e-07
3.88728e-07
3.68564e-07
3.68585e-07
3.88722e-07
3.68561e-07
3.68581e-07
4.17786e-07
3.97748e-07
3.88716e-07
3.68564e-07
3.68571e-07
3.97758e-07
3.96168e-07
3.76152e-07
3.62222e-07
3.6223e-07
3.4411e-07
3.44117e-07
3.96173e-07
3.76158e-07
3.62212e-07
3.62234e-07
3.44097e-07
3.44121e-07
3.6223e-07
3.44096e-07
3.44118e-07
3.96178e-07
3.76165e-07
3.62219e-07
3.44099e-07
3.44106e-07
3.76175e-07
3.74642e-07
3.55156e-07
3.38363e-07
3.3837e-07
3.21928e-07
3.21933e-07
3.74648e-07
3.55162e-07
3.38349e-07
3.38374e-07
3.21911e-07
3.21937e-07
3.38371e-07
3.21912e-07
3.21936e-07
3.74654e-07
3.55169e-07
3.38358e-07
3.21915e-07
3.21921e-07
3.5518e-07
3.53749e-07
3.35422e-07
3.16708e-07
3.16714e-07
3.01799e-07
3.01804e-07
3.53755e-07
3.35428e-07
3.16691e-07
3.16717e-07
3.01781e-07
3.01808e-07
3.16716e-07
3.01783e-07
3.01807e-07
3.53761e-07
3.35436e-07
3.16701e-07
3.01786e-07
3.01791e-07
3.35447e-07
3.34168e-07
3.17546e-07
2.97077e-07
2.97082e-07
2.83646e-07
2.83651e-07
3.34175e-07
3.17552e-07
2.97058e-07
2.97085e-07
2.83626e-07
2.83655e-07
2.97085e-07
2.83629e-07
2.83654e-07
3.34182e-07
3.1756e-07
2.97068e-07
2.83632e-07
2.83637e-07
3.17571e-07
3.1649e-07
3.01976e-07
2.79415e-07
2.79419e-07
2.67455e-07
2.6746e-07
3.16498e-07
3.01982e-07
2.79394e-07
2.79422e-07
2.67434e-07
2.67463e-07
2.79423e-07
2.67437e-07
2.67463e-07
3.16505e-07
3.01991e-07
2.79405e-07
2.6744e-07
2.67445e-07
3.02002e-07
3.01156e-07
2.89032e-07
2.63715e-07
2.6372e-07
2.53232e-07
2.53237e-07
3.01164e-07
2.89038e-07
2.63693e-07
2.63723e-07
2.5321e-07
2.53241e-07
2.63723e-07
2.53213e-07
2.5324e-07
3.01171e-07
2.89047e-07
2.63704e-07
2.53216e-07
2.53221e-07
2.89059e-07
2.88478e-07
2.78934e-07
2.49985e-07
2.4999e-07
2.4098e-07
2.40985e-07
2.88486e-07
2.7894e-07
2.49962e-07
2.49993e-07
2.40955e-07
2.40988e-07
2.49993e-07
2.40959e-07
2.40987e-07
2.88493e-07
2.7895e-07
2.49974e-07
2.40962e-07
2.40967e-07
2.78962e-07
2.78672e-07
2.71807e-07
2.38226e-07
2.38231e-07
2.30696e-07
2.30702e-07
2.78681e-07
2.71815e-07
2.38201e-07
2.38234e-07
2.3067e-07
2.30705e-07
2.38233e-07
2.30673e-07
2.30703e-07
2.78689e-07
2.71824e-07
2.38213e-07
2.30676e-07
2.30683e-07
2.71837e-07
2.71846e-07
2.67835e-07
2.28436e-07
2.28442e-07
2.22388e-07
2.22396e-07
2.71857e-07
2.67844e-07
2.2841e-07
2.28445e-07
2.22361e-07
2.224e-07
2.28443e-07
2.22363e-07
2.22396e-07
2.71864e-07
2.67853e-07
2.28423e-07
2.22367e-07
2.22374e-07
2.67867e-07
2.68126e-07
2.66948e-07
2.20624e-07
2.20633e-07
2.16063e-07
2.16073e-07
2.68139e-07
2.66958e-07
2.20597e-07
2.20635e-07
2.16034e-07
2.16076e-07
2.20632e-07
2.16035e-07
2.1607e-07
2.68146e-07
2.66969e-07
2.2061e-07
2.16039e-07
2.16048e-07
2.66985e-07
2.67599e-07
2.69117e-07
2.14797e-07
2.14808e-07
2.11727e-07
2.11743e-07
2.67613e-07
2.69132e-07
2.14769e-07
2.14811e-07
2.11699e-07
2.11745e-07
2.14806e-07
2.11698e-07
2.11735e-07
2.67622e-07
2.69142e-07
2.14783e-07
2.11702e-07
2.11715e-07
2.6916e-07
2.70444e-07
2.74622e-07
2.10962e-07
2.1098e-07
2.0939e-07
2.09413e-07
2.70461e-07
2.74639e-07
2.10936e-07
2.10982e-07
2.09365e-07
2.09414e-07
2.10971e-07
2.09361e-07
2.09399e-07
2.70471e-07
2.74651e-07
2.10951e-07
2.09366e-07
2.09382e-07
2.74671e-07
2.76644e-07
2.83505e-07
2.09132e-07
2.09157e-07
2.09101e-07
2.09129e-07
2.76666e-07
2.83526e-07
2.09108e-07
2.09158e-07
2.09076e-07
2.0913e-07
2.09142e-07
2.09069e-07
2.0911e-07
2.76674e-07
2.83538e-07
2.09125e-07
2.09075e-07
2.09095e-07
2.83559e-07
2.86226e-07
2.95772e-07
2.09327e-07
2.09357e-07
2.10821e-07
2.10856e-07
2.86255e-07
2.95797e-07
2.09302e-07
2.09357e-07
2.10795e-07
2.10856e-07
2.09336e-07
2.10786e-07
2.10829e-07
2.86262e-07
2.95809e-07
2.09322e-07
2.10792e-07
2.10817e-07
2.95832e-07
2.99174e-07
3.1146e-07
2.11587e-07
2.11622e-07
2.1464e-07
2.14683e-07
2.99205e-07
3.11486e-07
2.11561e-07
2.11622e-07
2.14615e-07
2.14682e-07
2.11596e-07
2.14603e-07
2.1465e-07
2.99215e-07
3.11501e-07
2.11583e-07
2.1461e-07
2.1464e-07
3.11527e-07
3.15555e-07
3.30527e-07
2.15929e-07
2.1597e-07
2.20565e-07
2.2061e-07
3.1558e-07
3.3055e-07
2.15903e-07
2.15971e-07
2.20537e-07
2.20612e-07
2.15939e-07
2.20522e-07
2.20575e-07
3.15597e-07
3.30571e-07
2.15928e-07
2.2053e-07
2.20565e-07
3.30601e-07
3.35314e-07
3.52884e-07
2.2238e-07
2.22422e-07
2.2861e-07
2.28652e-07
3.35332e-07
3.52902e-07
2.22348e-07
2.22424e-07
2.28574e-07
2.28656e-07
2.22387e-07
2.28555e-07
2.28615e-07
3.35355e-07
3.52928e-07
2.22376e-07
2.28564e-07
2.28605e-07
3.52962e-07
3.58344e-07
3.78374e-07
2.3095e-07
2.30991e-07
2.38762e-07
2.38802e-07
3.58358e-07
3.7839e-07
2.30912e-07
2.30997e-07
2.3872e-07
2.38812e-07
2.30954e-07
2.38697e-07
2.38766e-07
3.58385e-07
3.78423e-07
2.30944e-07
2.38709e-07
2.38756e-07
3.78461e-07
3.84483e-07
4.06763e-07
2.41628e-07
2.41668e-07
2.51007e-07
2.51047e-07
3.84493e-07
4.0678e-07
2.41585e-07
2.41679e-07
2.50959e-07
2.51062e-07
2.41631e-07
2.50934e-07
2.5101e-07
3.84528e-07
4.06817e-07
2.4162e-07
2.50947e-07
2.50998e-07
4.06857e-07
4.13473e-07
4.37734e-07
2.54392e-07
2.54431e-07
2.65308e-07
2.65348e-07
4.13484e-07
4.37748e-07
2.54342e-07
2.54447e-07
2.65253e-07
2.65367e-07
2.54395e-07
2.65225e-07
2.65312e-07
4.13524e-07
4.37792e-07
2.54381e-07
2.65241e-07
2.65297e-07
4.37837e-07
4.44985e-07
4.70897e-07
2.69197e-07
2.69237e-07
2.81602e-07
2.81643e-07
4.44994e-07
4.70913e-07
2.69141e-07
2.69258e-07
2.8154e-07
2.81667e-07
2.69202e-07
2.8151e-07
2.81608e-07
4.4504e-07
4.70962e-07
2.69184e-07
2.81529e-07
2.81589e-07
4.71011e-07
4.78622e-07
5.05846e-07
2.85979e-07
2.8602e-07
2.99812e-07
2.99852e-07
4.78632e-07
5.05859e-07
2.85915e-07
2.86045e-07
2.99742e-07
2.99881e-07
2.85986e-07
2.9971e-07
2.9982e-07
4.78682e-07
5.05914e-07
2.85963e-07
2.99733e-07
2.99794e-07
5.05966e-07
5.13964e-07
5.42124e-07
3.04652e-07
3.04692e-07
3.19835e-07
3.19875e-07
5.13971e-07
5.42137e-07
3.04579e-07
3.04722e-07
3.19755e-07
3.19908e-07
3.04661e-07
3.19723e-07
3.19846e-07
5.14027e-07
5.42197e-07
3.04631e-07
3.1975e-07
3.19813e-07
5.42255e-07
5.50553e-07
5.79291e-07
3.2511e-07
3.25151e-07
3.41554e-07
3.41593e-07
5.50561e-07
5.79303e-07
3.25029e-07
3.25186e-07
3.41464e-07
3.41631e-07
3.25123e-07
3.41431e-07
3.41569e-07
5.50622e-07
5.79369e-07
3.25085e-07
3.41464e-07
3.41526e-07
5.79429e-07
5.87949e-07
6.16921e-07
3.47232e-07
3.47273e-07
3.64841e-07
3.64878e-07
5.87954e-07
6.16934e-07
3.47141e-07
3.47312e-07
3.64738e-07
3.64919e-07
3.4725e-07
3.64708e-07
3.64858e-07
5.8802e-07
6.17004e-07
3.47202e-07
3.64745e-07
3.64805e-07
6.17068e-07
6.2573e-07
6.54625e-07
3.70887e-07
3.70927e-07
3.89547e-07
3.89581e-07
6.25735e-07
6.54638e-07
3.70785e-07
3.7097e-07
3.89432e-07
3.89627e-07
3.70909e-07
3.89403e-07
3.89568e-07
6.25805e-07
6.54713e-07
3.7085e-07
3.89446e-07
3.89504e-07
6.5478e-07
6.63507e-07
6.92072e-07
3.95922e-07
3.95962e-07
4.15517e-07
4.15549e-07
6.63514e-07
6.92084e-07
3.95811e-07
3.96009e-07
4.1539e-07
4.15601e-07
3.95951e-07
4.15366e-07
4.15545e-07
6.63589e-07
6.92163e-07
3.95881e-07
4.15415e-07
4.15469e-07
6.92232e-07
7.00963e-07
7.28973e-07
4.22181e-07
4.22221e-07
4.42595e-07
4.42619e-07
7.00968e-07
7.28981e-07
4.22059e-07
4.22273e-07
4.42456e-07
4.42674e-07
4.22219e-07
4.42431e-07
4.42622e-07
7.01047e-07
7.29063e-07
4.22136e-07
4.42485e-07
4.42533e-07
7.29133e-07
7.37818e-07
7.65085e-07
4.49505e-07
4.49538e-07
4.70586e-07
4.70614e-07
7.37817e-07
7.65104e-07
4.49372e-07
4.49594e-07
4.70436e-07
4.70676e-07
4.49544e-07
4.70424e-07
4.7063e-07
7.37898e-07
7.65191e-07
4.49448e-07
4.70485e-07
4.70527e-07
7.65263e-07
7.73836e-07
8.00313e-07
4.77706e-07
4.77741e-07
4.99364e-07
4.99379e-07
7.73848e-07
8.00314e-07
4.77563e-07
4.77802e-07
4.99204e-07
4.99443e-07
4.77759e-07
4.99187e-07
4.99403e-07
7.73934e-07
8.00398e-07
4.7765e-07
4.99252e-07
4.99287e-07
8.00471e-07
8.08935e-07
8.34433e-07
5.06645e-07
5.06668e-07
5.28698e-07
5.28715e-07
8.08927e-07
8.34446e-07
5.06491e-07
5.0673e-07
5.28528e-07
5.28785e-07
5.06695e-07
5.28522e-07
5.28749e-07
8.0901e-07
8.34535e-07
5.06572e-07
5.28595e-07
5.28621e-07
8.34611e-07
8.42861e-07
8.67444e-07
5.36092e-07
5.36118e-07
5.58442e-07
5.58455e-07
8.42871e-07
8.67456e-07
5.35928e-07
5.36185e-07
5.58263e-07
5.58531e-07
5.36157e-07
5.58263e-07
5.58504e-07
8.42959e-07
8.67547e-07
5.36021e-07
5.58344e-07
5.58364e-07
8.67623e-07
8.75674e-07
8.99303e-07
5.65917e-07
5.65935e-07
5.88425e-07
5.88427e-07
8.75679e-07
8.99306e-07
5.65745e-07
5.66004e-07
5.88238e-07
5.88507e-07
5.65986e-07
5.88237e-07
5.88483e-07
8.75768e-07
8.99395e-07
5.65839e-07
5.88322e-07
5.88331e-07
8.99467e-07
9.07306e-07
9.29943e-07
5.95926e-07
5.95934e-07
6.18452e-07
6.18453e-07
9.07303e-07
9.2995e-07
5.95745e-07
5.96007e-07
6.18259e-07
6.18538e-07
5.95995e-07
6.18266e-07
6.18524e-07
9.07392e-07
9.30044e-07
5.95836e-07
6.1836e-07
6.18362e-07
9.30118e-07
9.37716e-07
9.59392e-07
6.25944e-07
6.2595e-07
6.4838e-07
6.48376e-07
9.37717e-07
9.59396e-07
6.25756e-07
6.26029e-07
6.48182e-07
6.48462e-07
6.26026e-07
6.48192e-07
6.48455e-07
9.37811e-07
9.59492e-07
6.25857e-07
6.48292e-07
6.48284e-07
9.59561e-07
9.66927e-07
9.8764e-07
6.55824e-07
6.55821e-07
6.78057e-07
6.78042e-07
9.66925e-07
9.87639e-07
6.55629e-07
6.55905e-07
6.77852e-07
6.78133e-07
6.55906e-07
6.77866e-07
6.78134e-07
9.67019e-07
9.87737e-07
6.55729e-07
6.77973e-07
6.77955e-07
9.87805e-07
9.94929e-07
1.01469e-06
6.85418e-07
6.85404e-07
7.07327e-07
7.07307e-07
9.94926e-07
1.01469e-06
6.85213e-07
6.85491e-07
7.07119e-07
7.07399e-07
6.85497e-07
7.07134e-07
7.07408e-07
9.95023e-07
1.01479e-06
6.85311e-07
7.07248e-07
7.07223e-07
1.01486e-06
1.02174e-06
1.0406e-06
7.14566e-07
7.1455e-07
7.36086e-07
7.36071e-07
1.02174e-06
1.0406e-06
7.14358e-07
7.14641e-07
7.35879e-07
7.36165e-07
7.14653e-07
7.35904e-07
7.3618e-07
1.02183e-06
1.0407e-06
7.14461e-07
7.36023e-07
7.35988e-07
1.04077e-06
1.04741e-06
1.06538e-06
7.43182e-07
7.43166e-07
7.64211e-07
7.64184e-07
1.04741e-06
1.06537e-06
7.42974e-07
7.4326e-07
7.64003e-07
7.64282e-07
7.43277e-07
7.64024e-07
7.64301e-07
1.04751e-06
1.06547e-06
7.43079e-07
7.6415e-07
7.64106e-07
1.06553e-06
1.07195e-06
1.08905e-06
7.71127e-07
7.711e-07
7.91595e-07
7.91567e-07
1.07194e-06
1.08904e-06
7.70918e-07
7.71197e-07
7.91386e-07
7.91667e-07
7.7122e-07
7.91417e-07
7.91692e-07
1.07204e-06
1.08915e-06
7.71018e-07
7.91545e-07
7.91494e-07
1.08921e-06
1.09539e-06
1.11166e-06
7.98318e-07
7.98289e-07
8.18167e-07
8.18128e-07
1.09539e-06
1.11165e-06
7.98108e-07
7.98389e-07
8.17956e-07
8.18234e-07
7.98418e-07
8.17987e-07
8.18262e-07
1.09549e-06
1.11176e-06
7.98214e-07
8.18122e-07
8.18062e-07
1.11182e-06
1.11779e-06
1.13324e-06
8.24673e-07
8.24633e-07
8.4385e-07
8.43803e-07
1.11778e-06
1.13323e-06
8.24463e-07
8.24739e-07
8.43638e-07
8.43912e-07
8.24769e-07
8.43674e-07
8.43944e-07
1.11788e-06
1.13334e-06
8.24564e-07
8.43809e-07
8.43743e-07
1.1334e-06
1.13915e-06
1.15382e-06
8.50125e-07
8.50077e-07
8.68599e-07
8.68545e-07
1.13914e-06
1.15382e-06
8.49914e-07
8.50188e-07
8.68385e-07
8.68658e-07
8.50223e-07
8.68428e-07
8.68698e-07
1.13925e-06
1.15393e-06
8.50017e-07
8.68566e-07
8.68496e-07
1.15398e-06
1.15952e-06
1.17343e-06
8.74636e-07
8.74581e-07
8.92372e-07
8.92307e-07
1.15951e-06
1.17342e-06
8.74423e-07
8.74694e-07
8.92159e-07
8.92423e-07
8.74736e-07
8.92199e-07
8.92459e-07
1.15962e-06
1.17353e-06
8.7453e-07
8.92337e-07
8.92257e-07
1.17358e-06
1.17892e-06
1.19208e-06
8.9815e-07
8.98086e-07
9.15116e-07
9.15045e-07
1.17891e-06
1.19207e-06
8.97937e-07
8.98202e-07
9.14902e-07
9.15163e-07
8.98241e-07
9.14949e-07
9.15208e-07
1.17902e-06
1.19218e-06
8.98034e-07
9.15087e-07
9.15007e-07
1.19223e-06
1.19737e-06
1.20984e-06
9.20653e-07
9.20582e-07
9.36873e-07
9.36791e-07
1.19736e-06
1.20983e-06
9.20438e-07
9.20698e-07
9.36661e-07
9.36915e-07
9.20747e-07
9.36705e-07
9.36962e-07
1.19747e-06
1.20994e-06
9.20541e-07
9.36848e-07
9.36762e-07
1.20999e-06
1.21494e-06
1.22668e-06
9.42141e-07
9.42059e-07
9.57571e-07
9.57491e-07
1.21493e-06
1.22667e-06
9.41928e-07
9.42182e-07
9.57358e-07
9.57613e-07
9.42231e-07
9.57414e-07
9.57655e-07
1.21504e-06
1.22677e-06
9.42026e-07
9.57552e-07
9.57455e-07
1.22682e-06
1.23159e-06
1.24269e-06
9.62591e-07
9.6251e-07
9.77283e-07
9.7719e-07
1.23159e-06
1.24267e-06
9.62375e-07
9.62625e-07
9.77073e-07
9.77321e-07
9.62676e-07
9.77121e-07
9.77368e-07
1.23169e-06
1.24278e-06
9.62472e-07
9.7727e-07
9.77172e-07
1.24283e-06
1.24743e-06
1.25782e-06
9.82056e-07
9.81955e-07
9.95956e-07
9.95859e-07
1.2474e-06
1.2578e-06
9.81847e-07
9.8209e-07
9.95746e-07
9.95991e-07
9.82138e-07
9.95798e-07
9.96034e-07
1.24752e-06
1.25792e-06
9.8194e-07
9.9594e-07
9.95832e-07
1.25796e-06
1.26238e-06
1.27218e-06
1.00046e-06
1.00037e-06
1.01367e-06
1.01358e-06
1.26236e-06
1.27218e-06
1.00025e-06
1.0005e-06
1.01346e-06
1.0137e-06
1.00054e-06
1.01352e-06
1.01375e-06
1.26248e-06
1.27228e-06
1.00034e-06
1.01366e-06
1.01356e-06
1.27233e-06
1.2766e-06
1.28579e-06
1.01796e-06
1.01786e-06
1.0304e-06
1.03029e-06
1.27659e-06
1.28577e-06
1.01775e-06
1.01797e-06
1.03018e-06
1.03042e-06
1.01803e-06
1.03025e-06
1.03047e-06
1.27669e-06
1.28587e-06
1.01784e-06
1.03039e-06
1.03028e-06
1.28592e-06
1.29003e-06
1.29861e-06
1.03442e-06
1.03432e-06
1.04616e-06
1.04605e-06
1.29e-06
1.29859e-06
1.03422e-06
1.03446e-06
1.04595e-06
1.04616e-06
1.0345e-06
1.04601e-06
1.04622e-06
1.29011e-06
1.2987e-06
1.0343e-06
1.04613e-06
1.04602e-06
1.29874e-06
1.3027e-06
1.31068e-06
1.04995e-06
1.04985e-06
1.06096e-06
1.06086e-06
1.30268e-06
1.31067e-06
1.04974e-06
1.04995e-06
1.06076e-06
1.06102e-06
1.05002e-06
1.06083e-06
1.06104e-06
1.30278e-06
1.31079e-06
1.04982e-06
1.06098e-06
1.06086e-06
1.31082e-06
1.31461e-06
1.32202e-06
1.06451e-06
1.0644e-06
1.07482e-06
1.0747e-06
1.3146e-06
1.32197e-06
1.0643e-06
1.06456e-06
1.0746e-06
1.0748e-06
1.06457e-06
1.07466e-06
1.07487e-06
1.31472e-06
1.32208e-06
1.06439e-06
1.07478e-06
1.07468e-06
1.32212e-06
1.32583e-06
1.33279e-06
1.07817e-06
1.07803e-06
1.08785e-06
1.08774e-06
1.32577e-06
1.33277e-06
1.07796e-06
1.07815e-06
1.08765e-06
1.08787e-06
1.07822e-06
1.08772e-06
1.08794e-06
1.32587e-06
1.33285e-06
1.07804e-06
1.08785e-06
1.08775e-06
1.33294e-06
1.33644e-06
1.3428e-06
1.09096e-06
1.09092e-06
1.10007e-06
1.09997e-06
1.33646e-06
1.34285e-06
1.09075e-06
1.09101e-06
1.09985e-06
1.10004e-06
1.09108e-06
1.09994e-06
1.10008e-06
1.33653e-06
1.34288e-06
1.09087e-06
1.10001e-06
1.09988e-06
1.34289e-06
1.3463e-06
1.35199e-06
1.10292e-06
1.10275e-06
1.11106e-06
1.11096e-06
1.34631e-06
1.3519e-06
1.10272e-06
1.10288e-06
1.11089e-06
1.1112e-06
1.10289e-06
1.11096e-06
1.11122e-06
1.34637e-06
1.35216e-06
1.10271e-06
1.11122e-06
1.11108e-06
1.35216e-06
1.35541e-06
1.36118e-06
1.11383e-06
1.11376e-06
1.12204e-06
1.12183e-06
1.35535e-06
1.36113e-06
1.11364e-06
1.11393e-06
1.12182e-06
1.12187e-06
1.114e-06
1.12178e-06
1.12191e-06
1.35558e-06
1.36108e-06
1.11385e-06
1.12178e-06
1.1217e-06
1.36118e-06
1.36447e-06
1.36884e-06
1.12449e-06
1.12427e-06
1.13121e-06
1.13127e-06
1.36439e-06
1.36898e-06
1.12429e-06
1.12433e-06
1.13097e-06
1.13132e-06
1.12439e-06
1.13131e-06
1.13152e-06
1.36433e-06
1.36905e-06
1.12417e-06
1.13138e-06
1.13132e-06
1.36916e-06
1.37192e-06
1.37658e-06
1.13353e-06
1.13363e-06
1.1404e-06
1.14013e-06
1.37214e-06
1.37647e-06
1.13329e-06
1.13369e-06
1.14026e-06
1.14041e-06
1.13381e-06
1.1401e-06
1.1402e-06
1.37222e-06
1.37668e-06
1.13363e-06
1.14035e-06
1.14005e-06
1.37647e-06
1.37963e-06
1.38326e-06
1.1424e-06
1.14205e-06
1.14831e-06
1.14818e-06
1.37937e-06
1.38311e-06
1.14226e-06
1.14234e-06
1.14809e-06
1.14819e-06
1.14222e-06
1.14818e-06
1.14851e-06
1.37962e-06
1.38314e-06
1.14206e-06
1.14821e-06
1.14833e-06
1.38347e-06
1.38619e-06
1.38994e-06
1.15036e-06
1.1503e-06
1.15577e-06
1.15591e-06
1.38619e-06
1.39026e-06
1.15014e-06
1.15024e-06
1.15553e-06
1.15586e-06
1.15049e-06
1.15585e-06
1.15581e-06
1.38611e-06
1.39013e-06
1.15032e-06
1.15582e-06
1.15562e-06
1.39009e-06
1.3928e-06
1.39672e-06
1.15758e-06
1.15783e-06
1.16372e-06
1.16344e-06
1.39317e-06
1.39664e-06
1.15733e-06
1.15782e-06
1.16356e-06
1.16377e-06
1.15785e-06
1.16355e-06
1.16386e-06
1.39311e-06
1.39694e-06
1.15764e-06
1.16378e-06
1.16366e-06
1.39693e-06
1.39959e-06
1.40139e-06
1.16528e-06
1.16463e-06
1.16852e-06
1.16812e-06
1.39915e-06
1.40066e-06
1.16516e-06
1.16507e-06
1.1684e-06
1.16841e-06
1.16501e-06
1.16805e-06
1.16816e-06
1.39955e-06
1.401e-06
1.16484e-06
1.16828e-06
1.16799e-06
1.40083e-06
1.40385e-06
1.40599e-06
1.17004e-06
1.1702e-06
1.17484e-06
1.17557e-06
1.40359e-06
1.40756e-06
1.16988e-06
1.17034e-06
1.17464e-06
1.17534e-06
1.1702e-06
1.17565e-06
1.1757e-06
1.40379e-06
1.40724e-06
1.17003e-06
1.17548e-06
1.17553e-06
1.40749e-06
1.40799e-06
1.40477e-06
1.17544e-06
1.1759e-06
1.17553e-06
1.17534e-06
1.40953e-06
1.40427e-06
1.17524e-06
1.1756e-06
1.17528e-06
1.17495e-06
1.17604e-06
1.17525e-06
1.17541e-06
1.40917e-06
1.40361e-06
1.17586e-06
1.17495e-06
1.17523e-06
1.40424e-06
1.40698e-06
1.42044e-06
1.17585e-06
1.17545e-06
1.18633e-06
1.18499e-06
1.40592e-06
1.41826e-06
1.17556e-06
1.17508e-06
1.18612e-06
1.18592e-06
1.17551e-06
1.18481e-06
1.18571e-06
1.40528e-06
1.41946e-06
1.17534e-06
1.18579e-06
1.18574e-06
1.41977e-06
1.42711e-06
1.43309e-06
1.19187e-06
1.19093e-06
1.19805e-06
1.19822e-06
1.42562e-06
1.43453e-06
1.19179e-06
1.19233e-06
1.19805e-06
1.19931e-06
1.19182e-06
1.19847e-06
1.19846e-06
1.42754e-06
1.43633e-06
1.19185e-06
1.19919e-06
1.19822e-06
1.43399e-06
1.43374e-06
1.39241e-06
1.19714e-06
1.19742e-06
1.17498e-06
1.17504e-06
1.4353e-06
1.39254e-06
1.19711e-06
1.19807e-06
1.17468e-06
1.17278e-06
1.19724e-06
1.17506e-06
1.17306e-06
1.43684e-06
1.38802e-06
1.19687e-06
1.17249e-06
1.17235e-06
1.38906e-06
1.39041e-06
1.37771e-06
1.16663e-06
1.16651e-06
1.16041e-06
1.16036e-06
1.39032e-06
1.37773e-06
1.16636e-06
1.16459e-06
1.16039e-06
1.16085e-06
1.16534e-06
1.16059e-06
1.16209e-06
1.38588e-06
1.37916e-06
1.1649e-06
1.1614e-06
1.16237e-06
1.38184e-06
1.38642e-06
1.47385e-06
1.16498e-06
1.16524e-06
1.22497e-06
1.22612e-06
1.38713e-06
1.47656e-06
1.16513e-06
1.16803e-06
1.225e-06
1.23205e-06
1.1693e-06
1.22646e-06
1.23195e-06
1.39118e-06
1.48667e-06
1.17024e-06
1.2331e-06
1.23293e-06
1.48586e-06
1.49555e-06
1.53156e-06
1.24591e-06
1.24657e-06
1.26757e-06
1.26659e-06
1.49752e-06
1.52818e-06
1.24557e-06
1.25003e-06
1.2667e-06
1.26322e-06
1.24967e-06
1.26565e-06
1.26311e-06
1.50561e-06
1.52001e-06
1.24996e-06
1.26212e-06
1.26206e-06
1.52118e-06
1.53166e-06
1.42001e-06
1.26496e-06
1.26353e-06
1.19836e-06
1.19577e-06
1.52757e-06
1.41502e-06
1.2641e-06
1.25735e-06
1.19856e-06
1.18686e-06
1.25762e-06
1.19542e-06
1.18652e-06
1.51677e-06
1.39681e-06
1.25602e-06
1.18504e-06
1.18512e-06
1.396e-06
1.40235e-06
1.25925e-06
1.16304e-06
1.16071e-06
1.08029e-06
1.07999e-06
1.39784e-06
1.25906e-06
1.16391e-06
1.15626e-06
1.08277e-06
1.09499e-06
1.15526e-06
1.08226e-06
1.09357e-06
1.38313e-06
1.28432e-06
1.15489e-06
1.09732e-06
1.09607e-06
1.28058e-06
1.25468e-06
1.30374e-06
1.0714e-06
1.07166e-06
1.09194e-06
1.09367e-06
1.25494e-06
1.30711e-06
1.07395e-06
1.09008e-06
1.09371e-06
1.11557e-06
1.08889e-06
1.096e-06
1.11577e-06
1.28375e-06
1.34318e-06
1.09169e-06
1.11873e-06
1.11848e-06
1.34341e-06
1.34118e-06
1.53949e-06
1.13278e-06
1.13512e-06
1.26832e-06
1.27102e-06
1.34524e-06
1.54569e-06
1.13374e-06
1.15061e-06
1.26692e-06
1.25856e-06
1.15103e-06
1.27028e-06
1.26062e-06
1.37541e-06
1.52285e-06
1.15309e-06
1.25847e-06
1.25982e-06
1.52486e-06
1.56544e-06
1.5752e-06
1.29237e-06
1.29478e-06
1.29999e-06
1.30088e-06
1.57163e-06
1.57719e-06
1.29052e-06
1.27623e-06
1.29766e-06
1.27714e-06
1.27965e-06
1.30022e-06
1.28374e-06
1.54166e-06
1.53033e-06
1.27809e-06
1.27623e-06
1.28101e-06
1.54269e-06
1.56701e-06
1.40129e-06
1.28129e-06
1.28024e-06
1.18171e-06
1.17939e-06
1.56789e-06
1.3971e-06
1.27885e-06
1.25646e-06
1.18012e-06
1.17158e-06
1.26517e-06
1.17834e-06
1.17557e-06
1.52176e-06
1.38591e-06
1.26175e-06
1.16976e-06
1.17341e-06
1.39394e-06
1.38805e-06
1.3317e-06
1.15517e-06
1.15398e-06
1.12851e-06
1.13003e-06
1.3845e-06
1.33554e-06
1.15428e-06
1.15415e-06
1.1299e-06
1.14629e-06
1.15479e-06
1.13078e-06
1.14052e-06
1.37954e-06
1.37048e-06
1.15368e-06
1.14668e-06
1.1416e-06
1.3581e-06
1.33615e-06
1.41924e-06
1.13034e-06
1.13202e-06
1.18375e-06
1.17859e-06
1.341e-06
1.40872e-06
1.1324e-06
1.15579e-06
1.1887e-06
1.21234e-06
1.14598e-06
1.18045e-06
1.196e-06
1.38438e-06
1.46326e-06
1.14841e-06
1.21379e-06
1.20065e-06
1.43903e-06
1.44214e-06
1.48752e-06
1.20622e-06
1.19764e-06
1.23285e-06
1.2229e-06
1.42666e-06
1.46613e-06
1.21016e-06
1.22438e-06
1.23274e-06
1.2277e-06
1.20921e-06
1.22039e-06
1.21821e-06
1.47535e-06
1.4686e-06
1.21302e-06
1.22604e-06
1.21953e-06
1.45819e-06
1.48932e-06
1.42016e-06
1.23181e-06
1.22283e-06
1.19088e-06
1.19806e-06
1.46961e-06
1.43944e-06
1.23087e-06
1.21757e-06
1.18517e-06
1.16355e-06
1.21446e-06
1.19665e-06
1.17902e-06
1.4646e-06
1.37517e-06
1.21388e-06
1.16262e-06
1.17383e-06
1.398e-06
1.41319e-06
1.35933e-06
1.17271e-06
1.18487e-06
1.14505e-06
1.15795e-06
1.43602e-06
1.39057e-06
1.16677e-06
1.14988e-06
1.14129e-06
1.1393e-06
1.16799e-06
1.15889e-06
1.15625e-06
1.37123e-06
1.35441e-06
1.16265e-06
1.14004e-06
1.15217e-06
1.38013e-06
1.36073e-06
1.3975e-06
1.14479e-06
1.15606e-06
1.16571e-06
1.16193e-06
1.39097e-06
1.39026e-06
1.14135e-06
1.14254e-06
1.16652e-06
1.18121e-06
1.15717e-06
1.16375e-06
1.18075e-06
1.36309e-06
1.4255e-06
1.15364e-06
1.18291e-06
1.18178e-06
1.42424e-06
1.41183e-06
1.43978e-06
1.17714e-06
1.16761e-06
1.19295e-06
1.1794e-06
1.39559e-06
1.4105e-06
1.17915e-06
1.19232e-06
1.19572e-06
1.20176e-06
1.18927e-06
1.18068e-06
1.19614e-06
1.43831e-06
1.45149e-06
1.1911e-06
1.20317e-06
1.19892e-06
1.44182e-06
1.44203e-06
1.41488e-06
1.19276e-06
1.17999e-06
1.17709e-06
1.17546e-06
1.41394e-06
1.41333e-06
1.19555e-06
1.20036e-06
1.17877e-06
1.17775e-06
1.19401e-06
1.1743e-06
1.16879e-06
1.45209e-06
1.41043e-06
1.1971e-06
1.17687e-06
1.17075e-06
1.39861e-06
1.41362e-06
1.39125e-06
1.17045e-06
1.17336e-06
1.15976e-06
1.16843e-06
1.41477e-06
1.40927e-06
1.17134e-06
1.17007e-06
1.15874e-06
1.15884e-06
1.16112e-06
1.16648e-06
1.15226e-06
1.40889e-06
1.3881e-06
1.1622e-06
1.15673e-06
1.15132e-06
1.37955e-06
1.39269e-06
1.4011e-06
1.15965e-06
1.16826e-06
1.16587e-06
1.16957e-06
1.41077e-06
1.40796e-06
1.15838e-06
1.1586e-06
1.16368e-06
1.16348e-06
1.15266e-06
1.16868e-06
1.16466e-06
1.38982e-06
1.4e-06
1.15147e-06
1.16271e-06
1.1625e-06
1.4007e-06
1.40678e-06
1.41708e-06
1.17004e-06
1.17081e-06
1.17593e-06
1.17227e-06
1.40983e-06
1.40963e-06
1.16804e-06
1.16696e-06
1.17453e-06
1.17075e-06
1.17029e-06
1.17266e-06
1.17746e-06
1.40519e-06
1.41149e-06
1.16833e-06
1.17113e-06
1.17621e-06
1.41934e-06
1.41901e-06
1.38413e-06
1.17522e-06
1.17102e-06
1.10794e-06
1.10719e-06
1.41131e-06
1.38225e-06
1.17404e-06
1.16964e-06
1.1076e-06
1.10498e-06
1.17695e-06
1.10813e-06
1.11154e-06
1.41305e-06
1.3796e-06
1.17589e-06
1.10591e-06
1.11116e-06
1.38842e-06
1.36053e-06
1.08234e-06
1.08255e-06
1.36081e-06
1.08213e-06
1.0803e-06
7.44562e-07
7.42964e-07
7.47891e-07
1.08642e-06
1.35745e-06
1.08616e-06
5.35653e-07
5.35523e-07
5.35636e-07
5.35636e-07
5.34569e-07
5.35438e-07
5.33635e-07
5.35608e-07
5.34569e-07
5.35438e-07
5.35608e-07
5.33635e-07
5.35198e-07
5.35984e-07
5.35983e-07
1.10651e-06
3.87795e-06
9.32087e-07
4.60326e-06
1.26012e-05
1.65943e-05
1.10694e-06
3.87827e-06
9.31846e-07
4.60418e-06
4.9917e-07
4.9917e-07
4.9917e-07
4.57217e-07
4.57217e-07
4.57217e-07
4.57217e-07
5.4296e-07
1.2178e-06
4.99137e-07
4.86008e-07
5.2501e-07
1.20859e-06
4.82348e-07
1.26025e-05
1.65956e-05
5.42967e-07
4.99137e-07
1.21778e-06
4.86008e-07
5.25009e-07
4.82348e-07
1.20857e-06
2.51892e-06
2.51951e-06
4.84042e-07
2.37148e-06
2.37214e-06
1.43151e-06
5.59224e-06
1.3307e-06
6.13521e-06
2.12846e-05
2.31118e-05
1.43187e-06
5.593e-06
1.3305e-06
6.13646e-06