/*--------------------------------*- C++ -*----------------------------------*\
| =========                 |                                                 |
| \\      /  F ield         | OpenFOAM: The Open Source CFD Toolbox           |
|  \\    /   O peration     | Version:  2312                                  |
|   \\  /    A nd           | Website:  www.openfoam.com                      |
|    \\/     M anipulation  |                                                 |
\*---------------------------------------------------------------------------*/
FoamFile
{
    version     2.0;
    format      ascii;
    arch        "LSB;label=32;scalar=64";
    class       volScalarField;
    location    "750";
    object      k;
}
// * * * * * * * * * * * * * * * * * * * * * * * * * * * * * * * * * * * * * //

dimensions      [0 2 -2 0 0 0 0];

internalField   nonuniform List<scalar> 
172512
(
3.60232e-05
3.60198e-05
3.60198e-05
3.60083e-05
3.39295e-05
3.38866e-05
3.38866e-05
3.39612e-05
3.21574e-05
3.20055e-05
3.20055e-05
3.19506e-05
3.05338e-05
3.02267e-05
3.02267e-05
2.99864e-05
2.90318e-05
2.85515e-05
2.85515e-05
2.81202e-05
2.76341e-05
2.69848e-05
2.69847e-05
2.6388e-05
2.63294e-05
2.55287e-05
2.55286e-05
2.48046e-05
2.51097e-05
2.41827e-05
2.41826e-05
2.33754e-05
2.39694e-05
2.29484e-05
2.29483e-05
2.21019e-05
2.29042e-05
2.18247e-05
2.18245e-05
2.09833e-05
2.19105e-05
2.08092e-05
2.08091e-05
2.00107e-05
2.09849e-05
1.98992e-05
1.98991e-05
1.91788e-05
2.01226e-05
1.90927e-05
1.90925e-05
1.8487e-05
1.93223e-05
1.83865e-05
1.83864e-05
1.79306e-05
1.85832e-05
1.77774e-05
1.77773e-05
1.75039e-05
1.79026e-05
1.72637e-05
1.72636e-05
1.7198e-05
1.72783e-05
1.68447e-05
1.68446e-05
1.70205e-05
1.67082e-05
1.65194e-05
1.65193e-05
1.69799e-05
1.61908e-05
1.62879e-05
1.62879e-05
1.70773e-05
1.57239e-05
1.61501e-05
1.61502e-05
1.73025e-05
1.53058e-05
1.61058e-05
1.61059e-05
1.76558e-05
1.49359e-05
1.6152e-05
1.61521e-05
1.81332e-05
1.46131e-05
1.62906e-05
1.62908e-05
1.87281e-05
1.43367e-05
1.65188e-05
1.65191e-05
1.94275e-05
1.41065e-05
1.68344e-05
1.68348e-05
2.02207e-05
1.3922e-05
1.72341e-05
1.72347e-05
2.10945e-05
1.37829e-05
1.77145e-05
1.77153e-05
2.20359e-05
1.36892e-05
1.82717e-05
1.82726e-05
2.30309e-05
1.36407e-05
1.89007e-05
1.89018e-05
2.40652e-05
1.36375e-05
1.95971e-05
1.95983e-05
2.51263e-05
1.36798e-05
2.03548e-05
2.03563e-05
2.62022e-05
1.37682e-05
2.11685e-05
2.11702e-05
2.72836e-05
1.39031e-05
2.2032e-05
2.20337e-05
2.83617e-05
1.40836e-05
2.29383e-05
2.29404e-05
2.94302e-05
1.43118e-05
2.38824e-05
2.38845e-05
3.04851e-05
1.4586e-05
2.48564e-05
2.48588e-05
3.1522e-05
1.49067e-05
2.58548e-05
2.58575e-05
3.25387e-05
1.52742e-05
2.68711e-05
2.68739e-05
3.35333e-05
1.56868e-05
2.78989e-05
2.7902e-05
3.45048e-05
1.61441e-05
2.89326e-05
2.89359e-05
3.54517e-05
1.66452e-05
2.99679e-05
2.99714e-05
3.63739e-05
1.7188e-05
3.09992e-05
3.10028e-05
3.72701e-05
1.77712e-05
3.20244e-05
3.20281e-05
3.81427e-05
1.83925e-05
3.30363e-05
3.30403e-05
3.89894e-05
1.90485e-05
3.4033e-05
3.4037e-05
3.98112e-05
1.97368e-05
3.50106e-05
3.50148e-05
4.06083e-05
2.04543e-05
3.59668e-05
3.5971e-05
4.13801e-05
2.11971e-05
3.69001e-05
3.69044e-05
4.21281e-05
2.19626e-05
3.78082e-05
3.78124e-05
4.28505e-05
2.27434e-05
3.86884e-05
3.86926e-05
4.35479e-05
2.35414e-05
3.95434e-05
3.95479e-05
4.42231e-05
2.43468e-05
4.0369e-05
4.03731e-05
4.48712e-05
2.51594e-05
4.11667e-05
4.11716e-05
4.54982e-05
2.59753e-05
4.19332e-05
4.19378e-05
4.60985e-05
2.67873e-05
4.26741e-05
4.26784e-05
4.66781e-05
2.75985e-05
4.33849e-05
4.33892e-05
4.72346e-05
2.84026e-05
4.40661e-05
4.40693e-05
4.77674e-05
2.91951e-05
4.47204e-05
4.47265e-05
4.82792e-05
2.9969e-05
4.53399e-05
4.53433e-05
4.87617e-05
3.07362e-05
4.59378e-05
4.59429e-05
4.92367e-05
3.14905e-05
4.65176e-05
4.65156e-05
4.96804e-05
3.21964e-05
4.70359e-05
4.70512e-05
5.00946e-05
3.29313e-05
4.7574e-05
4.75714e-05
5.05161e-05
3.3588e-05
4.80544e-05
4.8052e-05
5.08926e-05
3.42707e-05
4.85077e-05
4.8522e-05
5.12426e-05
3.48773e-05
4.89331e-05
4.89349e-05
5.15862e-05
3.54794e-05
4.93404e-05
4.93337e-05
5.1904e-05
3.61336e-05
4.98234e-05
4.98318e-05
5.22898e-05
3.66465e-05
5.00331e-05
5.00536e-05
5.24595e-05
3.72263e-05
5.05753e-05
5.05677e-05
5.28767e-05
3.75635e-05
5.05654e-05
5.05386e-05
5.27531e-05
3.78742e-05
5.08507e-05
5.08838e-05
5.32901e-05
3.9215e-05
5.2099e-05
5.21581e-05
5.44343e-05
3.92146e-05
5.11553e-05
5.09423e-05
5.27737e-05
3.78648e-05
4.96669e-05
4.96311e-05
5.13377e-05
3.87175e-05
5.28898e-05
5.34363e-05
5.59218e-05
4.4116e-05
5.694e-05
5.67485e-05
5.9233e-05
4.44874e-05
5.52922e-05
5.39339e-05
5.51189e-05
3.69403e-05
4.62046e-05
4.68081e-05
4.78851e-05
3.37183e-05
4.49967e-05
4.62946e-05
4.8797e-05
4.09175e-05
5.62547e-05
5.57317e-05
5.82833e-05
4.85521e-05
6.04804e-05
5.87181e-05
6.13807e-05
4.63922e-05
5.40201e-05
5.29238e-05
5.45863e-05
3.86606e-05
4.86678e-05
4.98124e-05
5.09265e-05
3.82275e-05
5.079e-05
5.33391e-05
5.46149e-05
4.38043e-05
5.49752e-05
5.53459e-05
5.67808e-05
4.44233e-05
5.49223e-05
5.21874e-05
5.43764e-05
4.05816e-05
5.16683e-05
4.99787e-05
5.26726e-05
3.99103e-05
5.12279e-05
5.23432e-05
5.45477e-05
4.26388e-05
5.27577e-05
5.45336e-05
5.61019e-05
4.32609e-05
5.30023e-05
5.34418e-05
5.45358e-05
4.19079e-05
5.24595e-05
5.1669e-05
5.30342e-05
4.15382e-05
5.23766e-05
5.19085e-05
5.38282e-05
4.24182e-05
5.28123e-05
5.29121e-05
5.50738e-05
4.4517e-05
5.10906e-05
5.10523e-05
5.47801e-05
3.62984e-05
3.62919e-05
3.62919e-05
3.62984e-05
3.62919e-05
3.62919e-05
3.62908e-05
3.62908e-05
3.62908e-05
3.62908e-05
3.62919e-05
3.62919e-05
3.62984e-05
3.62919e-05
3.62919e-05
3.62984e-05
3.60083e-05
3.42676e-05
3.60198e-05
3.60198e-05
3.43745e-05
3.43744e-05
3.60083e-05
3.42677e-05
3.60198e-05
3.60198e-05
3.43745e-05
3.43744e-05
3.60198e-05
3.43745e-05
3.43745e-05
3.60083e-05
3.42677e-05
3.60198e-05
3.43745e-05
3.43745e-05
3.42676e-05
3.39612e-05
3.22619e-05
3.38865e-05
3.38865e-05
3.24658e-05
3.24657e-05
3.39612e-05
3.22619e-05
3.38865e-05
3.38865e-05
3.24659e-05
3.24657e-05
3.38865e-05
3.2466e-05
3.24658e-05
3.39612e-05
3.22619e-05
3.38865e-05
3.24659e-05
3.24659e-05
3.22618e-05
3.19506e-05
3.02973e-05
3.20054e-05
3.20053e-05
3.06617e-05
3.06616e-05
3.19506e-05
3.02973e-05
3.20054e-05
3.20052e-05
3.06618e-05
3.06615e-05
3.20053e-05
3.0662e-05
3.06617e-05
3.19506e-05
3.02972e-05
3.20054e-05
3.06619e-05
3.06618e-05
3.02971e-05
2.99865e-05
2.84231e-05
3.02264e-05
3.02263e-05
2.89599e-05
2.89597e-05
2.99865e-05
2.8423e-05
3.02266e-05
3.02262e-05
2.89601e-05
2.89596e-05
3.02264e-05
2.89603e-05
2.89598e-05
2.99864e-05
2.84229e-05
3.02265e-05
2.89602e-05
2.896e-05
2.84228e-05
2.81204e-05
2.66716e-05
2.85511e-05
2.85509e-05
2.73656e-05
2.73653e-05
2.81204e-05
2.66715e-05
2.85514e-05
2.85508e-05
2.73659e-05
2.73652e-05
2.8551e-05
2.73661e-05
2.73655e-05
2.81203e-05
2.66714e-05
2.85513e-05
2.7366e-05
2.73658e-05
2.66712e-05
2.63884e-05
2.50638e-05
2.69842e-05
2.6984e-05
2.58817e-05
2.58815e-05
2.63883e-05
2.50638e-05
2.69846e-05
2.69839e-05
2.58822e-05
2.58813e-05
2.69841e-05
2.58824e-05
2.58816e-05
2.63882e-05
2.50636e-05
2.69844e-05
2.58823e-05
2.5882e-05
2.50634e-05
2.4805e-05
2.361e-05
2.5528e-05
2.55277e-05
2.45079e-05
2.45077e-05
2.48049e-05
2.36099e-05
2.55285e-05
2.55276e-05
2.45085e-05
2.45075e-05
2.55279e-05
2.45087e-05
2.45078e-05
2.48048e-05
2.36097e-05
2.55283e-05
2.45086e-05
2.45083e-05
2.36095e-05
2.33759e-05
2.231e-05
2.41819e-05
2.41816e-05
2.32456e-05
2.32453e-05
2.33758e-05
2.23099e-05
2.41825e-05
2.41814e-05
2.32462e-05
2.32451e-05
2.41817e-05
2.32465e-05
2.32455e-05
2.33756e-05
2.23096e-05
2.41823e-05
2.32464e-05
2.32461e-05
2.23094e-05
2.21024e-05
2.11657e-05
2.29475e-05
2.29472e-05
2.20943e-05
2.2094e-05
2.21024e-05
2.11656e-05
2.29481e-05
2.2947e-05
2.20951e-05
2.20939e-05
2.29473e-05
2.20953e-05
2.20942e-05
2.21021e-05
2.11653e-05
2.2948e-05
2.20952e-05
2.20949e-05
2.1165e-05
2.09839e-05
2.01684e-05
2.18237e-05
2.18234e-05
2.1052e-05
2.10517e-05
2.09838e-05
2.01683e-05
2.18244e-05
2.18232e-05
2.10528e-05
2.10515e-05
2.18236e-05
2.1053e-05
2.10519e-05
2.09835e-05
2.01679e-05
2.18242e-05
2.10529e-05
2.10527e-05
2.01677e-05
2.00113e-05
1.93123e-05
2.08081e-05
2.08078e-05
2.01158e-05
2.01156e-05
2.00112e-05
1.93122e-05
2.0809e-05
2.08077e-05
2.01167e-05
2.01154e-05
2.08081e-05
2.01169e-05
2.01158e-05
2.00109e-05
1.93119e-05
2.08088e-05
2.01168e-05
2.01166e-05
1.93116e-05
1.91793e-05
1.85882e-05
1.98981e-05
1.98978e-05
1.92834e-05
1.92832e-05
1.91793e-05
1.8588e-05
1.9899e-05
1.98977e-05
1.92843e-05
1.9283e-05
1.9898e-05
1.92845e-05
1.92834e-05
1.9179e-05
1.85877e-05
1.98988e-05
1.92844e-05
1.92842e-05
1.85875e-05
1.84874e-05
1.79956e-05
1.90915e-05
1.90913e-05
1.85524e-05
1.85522e-05
1.84875e-05
1.79955e-05
1.90925e-05
1.90912e-05
1.85533e-05
1.85521e-05
1.90915e-05
1.85535e-05
1.85524e-05
1.84872e-05
1.79952e-05
1.90923e-05
1.85534e-05
1.85532e-05
1.7995e-05
1.7931e-05
1.75371e-05
1.83854e-05
1.83852e-05
1.79193e-05
1.79191e-05
1.7931e-05
1.7537e-05
1.83863e-05
1.8385e-05
1.79202e-05
1.7919e-05
1.83854e-05
1.79203e-05
1.79193e-05
1.79307e-05
1.75368e-05
1.83862e-05
1.79203e-05
1.79202e-05
1.75367e-05
1.75042e-05
1.72155e-05
1.77763e-05
1.77762e-05
1.73818e-05
1.73817e-05
1.75043e-05
1.72156e-05
1.77772e-05
1.77761e-05
1.73826e-05
1.73816e-05
1.77763e-05
1.73827e-05
1.73818e-05
1.7504e-05
1.72153e-05
1.77771e-05
1.73827e-05
1.73826e-05
1.72153e-05
1.71982e-05
1.70239e-05
1.72627e-05
1.72627e-05
1.69391e-05
1.69391e-05
1.71983e-05
1.70239e-05
1.72636e-05
1.72626e-05
1.69399e-05
1.6939e-05
1.72628e-05
1.69399e-05
1.69392e-05
1.7198e-05
1.70238e-05
1.72636e-05
1.69399e-05
1.69399e-05
1.70238e-05
1.70205e-05
1.69704e-05
1.68438e-05
1.68438e-05
1.65901e-05
1.65902e-05
1.70207e-05
1.69706e-05
1.68446e-05
1.68437e-05
1.65908e-05
1.65902e-05
1.68439e-05
1.65909e-05
1.65902e-05
1.70204e-05
1.69705e-05
1.68447e-05
1.65909e-05
1.6591e-05
1.69705e-05
1.69797e-05
1.70414e-05
1.65186e-05
1.65187e-05
1.63349e-05
1.63351e-05
1.698e-05
1.70417e-05
1.65193e-05
1.65187e-05
1.63356e-05
1.63351e-05
1.65187e-05
1.63355e-05
1.63351e-05
1.69798e-05
1.70415e-05
1.65195e-05
1.63356e-05
1.63358e-05
1.70418e-05
1.70769e-05
1.72416e-05
1.62872e-05
1.62874e-05
1.61734e-05
1.61737e-05
1.70773e-05
1.72418e-05
1.62878e-05
1.62874e-05
1.6174e-05
1.61737e-05
1.62874e-05
1.61739e-05
1.61736e-05
1.70771e-05
1.72419e-05
1.62881e-05
1.6174e-05
1.61743e-05
1.72421e-05
1.7302e-05
1.75704e-05
1.61496e-05
1.61499e-05
1.61053e-05
1.61057e-05
1.73022e-05
1.75706e-05
1.61502e-05
1.61499e-05
1.61058e-05
1.61058e-05
1.61499e-05
1.61057e-05
1.61056e-05
1.73022e-05
1.75707e-05
1.61505e-05
1.61058e-05
1.61062e-05
1.75711e-05
1.76552e-05
1.80239e-05
1.61055e-05
1.61058e-05
1.61312e-05
1.61315e-05
1.76553e-05
1.8024e-05
1.61059e-05
1.61059e-05
1.61316e-05
1.61317e-05
1.61058e-05
1.61313e-05
1.61315e-05
1.76555e-05
1.80243e-05
1.61064e-05
1.61316e-05
1.61322e-05
1.80247e-05
1.81325e-05
1.85958e-05
1.61518e-05
1.61522e-05
1.62473e-05
1.62476e-05
1.81325e-05
1.8596e-05
1.61522e-05
1.61524e-05
1.62475e-05
1.6248e-05
1.61522e-05
1.62472e-05
1.62477e-05
1.81328e-05
1.85965e-05
1.61527e-05
1.62476e-05
1.62483e-05
1.85969e-05
1.87271e-05
1.92746e-05
1.62906e-05
1.6291e-05
1.64535e-05
1.64539e-05
1.87271e-05
1.92747e-05
1.62908e-05
1.62913e-05
1.64536e-05
1.64544e-05
1.62911e-05
1.64533e-05
1.6454e-05
1.87276e-05
1.92753e-05
1.62916e-05
1.64538e-05
1.64545e-05
1.92759e-05
1.94265e-05
2.00486e-05
1.6519e-05
1.65194e-05
1.67477e-05
1.67482e-05
1.94265e-05
2.00487e-05
1.65191e-05
1.65199e-05
1.67477e-05
1.67488e-05
1.65195e-05
1.67474e-05
1.67484e-05
1.94271e-05
2.00494e-05
1.65199e-05
1.67479e-05
1.67487e-05
2.00502e-05
2.02193e-05
2.09056e-05
1.68347e-05
1.68352e-05
1.71269e-05
1.71274e-05
2.02193e-05
2.09057e-05
1.68347e-05
1.68359e-05
1.71267e-05
1.71281e-05
1.68354e-05
1.71263e-05
1.71277e-05
2.022e-05
2.09066e-05
1.68356e-05
1.7127e-05
1.71278e-05
2.09075e-05
2.10928e-05
2.18329e-05
1.72347e-05
1.72352e-05
1.75878e-05
1.75884e-05
2.10928e-05
2.18329e-05
1.72344e-05
1.72359e-05
1.75874e-05
1.75892e-05
1.72356e-05
1.75871e-05
1.75888e-05
2.10937e-05
2.1834e-05
1.72355e-05
1.75879e-05
1.75887e-05
2.18349e-05
2.20342e-05
2.2816e-05
1.77154e-05
1.77159e-05
1.81263e-05
1.81269e-05
2.20341e-05
2.2816e-05
1.77149e-05
1.77168e-05
1.81256e-05
1.81279e-05
1.77164e-05
1.81253e-05
1.81275e-05
2.20351e-05
2.28172e-05
1.7716e-05
1.81263e-05
1.81271e-05
2.28184e-05
2.30287e-05
2.38414e-05
1.82727e-05
1.82733e-05
1.87382e-05
1.87387e-05
2.30287e-05
2.38415e-05
1.82719e-05
1.82743e-05
1.87372e-05
1.87399e-05
1.8274e-05
1.87369e-05
1.87395e-05
2.30298e-05
2.38428e-05
1.82733e-05
1.87381e-05
1.87388e-05
2.38439e-05
2.4063e-05
2.48956e-05
1.8902e-05
1.89025e-05
1.94184e-05
1.94189e-05
2.40629e-05
2.48958e-05
1.89009e-05
1.89037e-05
1.94171e-05
1.94202e-05
1.89034e-05
1.94169e-05
1.942e-05
2.40642e-05
2.48972e-05
1.89024e-05
1.94182e-05
1.94188e-05
2.48985e-05
2.51238e-05
2.59674e-05
1.95985e-05
1.95991e-05
2.01616e-05
2.0162e-05
2.51238e-05
2.59674e-05
1.95972e-05
1.96003e-05
2.01599e-05
2.01634e-05
1.96002e-05
2.01598e-05
2.01633e-05
2.51252e-05
2.5969e-05
1.95988e-05
2.01614e-05
2.01618e-05
2.59703e-05
2.61996e-05
2.70464e-05
2.03565e-05
2.0357e-05
2.09621e-05
2.09625e-05
2.61995e-05
2.70464e-05
2.03549e-05
2.03585e-05
2.09601e-05
2.0964e-05
2.03584e-05
2.09601e-05
2.09641e-05
2.62011e-05
2.70481e-05
2.03566e-05
2.09619e-05
2.09621e-05
2.70495e-05
2.72809e-05
2.8124e-05
2.11702e-05
2.11708e-05
2.18142e-05
2.18142e-05
2.72808e-05
2.81239e-05
2.11683e-05
2.11724e-05
2.18118e-05
2.18158e-05
2.11726e-05
2.18118e-05
2.18161e-05
2.72825e-05
2.81258e-05
2.11704e-05
2.18136e-05
2.18136e-05
2.81271e-05
2.83592e-05
2.91928e-05
2.20343e-05
2.20344e-05
2.271e-05
2.27104e-05
2.83589e-05
2.91931e-05
2.20321e-05
2.2036e-05
2.27073e-05
2.27122e-05
2.20363e-05
2.27079e-05
2.27127e-05
2.83606e-05
2.91951e-05
2.20336e-05
2.271e-05
2.27098e-05
2.91965e-05
2.94267e-05
3.02503e-05
2.294e-05
2.29407e-05
2.36458e-05
2.36457e-05
2.94271e-05
3.025e-05
2.29375e-05
2.29426e-05
2.36429e-05
2.36476e-05
2.29432e-05
2.36432e-05
2.36482e-05
2.94291e-05
3.02519e-05
2.29401e-05
2.36454e-05
2.36449e-05
3.02533e-05
3.04828e-05
3.129e-05
2.3885e-05
2.38849e-05
2.46132e-05
2.46129e-05
3.04822e-05
3.12899e-05
2.38822e-05
2.38867e-05
2.46099e-05
2.4615e-05
2.38875e-05
2.46104e-05
2.46157e-05
3.0484e-05
3.12918e-05
2.3884e-05
2.46129e-05
2.46121e-05
3.12933e-05
3.1519e-05
3.23095e-05
2.48588e-05
2.48589e-05
2.56055e-05
2.56055e-05
3.15189e-05
3.23097e-05
2.48556e-05
2.48609e-05
2.5602e-05
2.56078e-05
2.48618e-05
2.5603e-05
2.56089e-05
3.15209e-05
3.2312e-05
2.48579e-05
2.56059e-05
2.56049e-05
3.23134e-05
3.25353e-05
3.33094e-05
2.58571e-05
2.58572e-05
2.66187e-05
2.66181e-05
3.25353e-05
3.33091e-05
2.58537e-05
2.58593e-05
2.6615e-05
2.66204e-05
2.58607e-05
2.66158e-05
2.66215e-05
3.25375e-05
3.33111e-05
2.58564e-05
2.66186e-05
2.66172e-05
3.33123e-05
3.35309e-05
3.42849e-05
2.6874e-05
2.68734e-05
2.76439e-05
2.76432e-05
3.35304e-05
3.42847e-05
2.68704e-05
2.68756e-05
2.764e-05
2.76458e-05
2.6877e-05
2.7641e-05
2.76472e-05
3.35323e-05
3.4287e-05
2.68724e-05
2.76442e-05
2.76426e-05
3.42883e-05
3.45017e-05
3.52371e-05
2.79015e-05
2.7901e-05
2.86768e-05
2.86759e-05
3.45014e-05
3.52369e-05
2.78977e-05
2.79034e-05
2.86727e-05
2.86785e-05
2.79052e-05
2.86738e-05
2.86801e-05
3.45037e-05
3.52393e-05
2.79003e-05
2.86771e-05
2.86752e-05
3.52404e-05
3.54489e-05
3.61646e-05
2.89354e-05
2.89346e-05
2.9712e-05
2.9711e-05
3.54485e-05
3.61642e-05
2.89314e-05
2.89371e-05
2.97078e-05
2.97136e-05
2.89389e-05
2.97092e-05
2.97155e-05
3.54508e-05
3.61667e-05
2.89339e-05
2.97127e-05
2.97105e-05
3.61678e-05
3.63709e-05
3.70668e-05
2.99708e-05
2.99697e-05
3.07453e-05
3.07435e-05
3.63706e-05
3.7066e-05
2.99665e-05
2.99723e-05
3.07409e-05
3.07464e-05
2.99742e-05
3.07419e-05
3.07483e-05
3.6373e-05
3.70686e-05
2.9969e-05
3.07456e-05
3.07432e-05
3.70695e-05
3.72675e-05
3.79441e-05
3.10024e-05
3.10008e-05
3.17718e-05
3.17704e-05
3.72668e-05
3.79438e-05
3.0998e-05
3.10036e-05
3.17673e-05
3.17733e-05
3.10057e-05
3.1769e-05
3.17755e-05
3.72693e-05
3.79465e-05
3.10003e-05
3.17729e-05
3.17702e-05
3.79474e-05
3.81396e-05
3.87973e-05
3.20271e-05
3.20257e-05
3.2788e-05
3.27859e-05
3.81394e-05
3.87964e-05
3.20226e-05
3.20286e-05
3.27835e-05
3.27892e-05
3.20308e-05
3.27847e-05
3.27912e-05
3.8142e-05
3.87993e-05
3.20253e-05
3.27891e-05
3.2786e-05
3.88e-05
3.89869e-05
3.96245e-05
3.30397e-05
3.30374e-05
3.37885e-05
3.37861e-05
3.8986e-05
3.96237e-05
3.30351e-05
3.30405e-05
3.37839e-05
3.37894e-05
3.30427e-05
3.37853e-05
3.37916e-05
3.89889e-05
3.96265e-05
3.30373e-05
3.37895e-05
3.37863e-05
3.96272e-05
3.98086e-05
4.04274e-05
3.4036e-05
3.40337e-05
3.47712e-05
3.47686e-05
3.9808e-05
4.04267e-05
3.40313e-05
3.40369e-05
3.47665e-05
3.47721e-05
3.40392e-05
3.47681e-05
3.47743e-05
3.98107e-05
4.04296e-05
3.40338e-05
3.47725e-05
3.47691e-05
4.04302e-05
4.06058e-05
4.12051e-05
3.50137e-05
3.5011e-05
3.57332e-05
3.57302e-05
4.0605e-05
4.12042e-05
3.5009e-05
3.50144e-05
3.57284e-05
3.57336e-05
3.50167e-05
3.57299e-05
3.57358e-05
4.06079e-05
4.12071e-05
3.50114e-05
3.57342e-05
3.57305e-05
4.12075e-05
4.13779e-05
4.19582e-05
3.59699e-05
3.59669e-05
3.66719e-05
3.66688e-05
4.1377e-05
4.19573e-05
3.59652e-05
3.59704e-05
3.66672e-05
3.66725e-05
3.59727e-05
3.66689e-05
3.66749e-05
4.13799e-05
4.19604e-05
3.59673e-05
3.66734e-05
3.66698e-05
4.1961e-05
4.21255e-05
4.26871e-05
3.69029e-05
3.68998e-05
3.75871e-05
3.75834e-05
4.21246e-05
4.2686e-05
3.68981e-05
3.69034e-05
3.75824e-05
3.75872e-05
3.6906e-05
3.75837e-05
3.75893e-05
4.21277e-05
4.26891e-05
3.69008e-05
3.75883e-05
3.75843e-05
4.26893e-05
4.28487e-05
4.33896e-05
3.78113e-05
3.78077e-05
3.84734e-05
3.84697e-05
4.28476e-05
4.33886e-05
3.78066e-05
3.78113e-05
3.84689e-05
3.84736e-05
3.78135e-05
3.84704e-05
3.84758e-05
4.28506e-05
4.33917e-05
3.78083e-05
3.8475e-05
3.84709e-05
4.33919e-05
4.35457e-05
4.40703e-05
3.86913e-05
3.86876e-05
3.9336e-05
3.93318e-05
4.35447e-05
4.4069e-05
3.86866e-05
3.86912e-05
3.93314e-05
3.93358e-05
3.86937e-05
3.93327e-05
3.93382e-05
4.35477e-05
4.40722e-05
3.86887e-05
3.93376e-05
3.93336e-05
4.40725e-05
4.42211e-05
4.47242e-05
3.95466e-05
3.95422e-05
4.01676e-05
4.01637e-05
4.42197e-05
4.47232e-05
3.9542e-05
3.95463e-05
4.01633e-05
4.0168e-05
3.95488e-05
4.01651e-05
4.01696e-05
4.4223e-05
4.47262e-05
3.9544e-05
4.01697e-05
4.0165e-05
4.47261e-05
4.48694e-05
4.5356e-05
4.03714e-05
4.03676e-05
4.09724e-05
4.09684e-05
4.48686e-05
4.53548e-05
4.03669e-05
4.03714e-05
4.09678e-05
4.0972e-05
4.03733e-05
4.09698e-05
4.09744e-05
4.48715e-05
4.53577e-05
4.03685e-05
4.09742e-05
4.097e-05
4.5358e-05
4.54964e-05
4.5963e-05
4.11695e-05
4.11652e-05
4.17483e-05
4.17429e-05
4.5495e-05
4.59608e-05
4.11652e-05
4.11695e-05
4.17438e-05
4.17471e-05
4.11715e-05
4.17444e-05
4.17492e-05
4.5498e-05
4.59645e-05
4.11672e-05
4.17492e-05
4.17447e-05
4.59643e-05
4.60973e-05
4.65452e-05
4.19362e-05
4.19314e-05
4.24926e-05
4.24888e-05
4.60955e-05
4.65449e-05
4.19319e-05
4.19359e-05
4.24883e-05
4.2493e-05
4.19375e-05
4.2491e-05
4.2495e-05
4.60989e-05
4.65479e-05
4.19328e-05
4.24955e-05
4.24908e-05
4.65476e-05
4.66759e-05
4.7109e-05
4.26764e-05
4.26722e-05
4.32126e-05
4.32079e-05
4.66754e-05
4.71072e-05
4.2672e-05
4.26759e-05
4.32078e-05
4.32106e-05
4.26781e-05
4.32097e-05
4.32137e-05
4.66782e-05
4.71097e-05
4.26741e-05
4.32135e-05
4.32097e-05
4.71103e-05
4.72335e-05
4.76465e-05
4.3387e-05
4.33825e-05
4.39012e-05
4.38957e-05
4.72318e-05
4.76446e-05
4.33825e-05
4.33863e-05
4.38975e-05
4.39007e-05
4.33887e-05
4.3898e-05
4.39016e-05
4.72345e-05
4.76484e-05
4.33845e-05
4.39029e-05
4.38976e-05
4.76474e-05
4.77668e-05
4.81625e-05
4.40691e-05
4.40638e-05
4.45623e-05
4.45582e-05
4.7765e-05
4.81618e-05
4.40648e-05
4.40669e-05
4.45585e-05
4.45624e-05
4.40695e-05
4.45609e-05
4.45645e-05
4.77681e-05
4.81642e-05
4.40651e-05
4.4565e-05
4.45606e-05
4.81645e-05
4.82772e-05
4.86515e-05
4.4722e-05
4.47179e-05
4.5189e-05
4.51846e-05
4.82766e-05
4.86497e-05
4.47187e-05
4.4724e-05
4.51841e-05
4.51874e-05
4.47241e-05
4.51865e-05
4.51885e-05
4.82799e-05
4.86538e-05
4.47206e-05
4.51907e-05
4.51848e-05
4.86516e-05
4.87622e-05
4.91284e-05
4.5343e-05
4.53377e-05
4.57954e-05
4.57857e-05
4.87598e-05
4.91233e-05
4.5338e-05
4.53398e-05
4.57928e-05
4.57931e-05
4.53424e-05
4.57884e-05
4.57957e-05
4.87629e-05
4.91271e-05
4.53386e-05
4.57956e-05
4.57934e-05
4.91298e-05
4.92345e-05
4.95792e-05
4.59407e-05
4.59345e-05
4.63777e-05
4.63795e-05
4.92308e-05
4.95857e-05
4.59377e-05
4.59402e-05
4.63721e-05
4.63758e-05
4.59432e-05
4.63836e-05
4.63801e-05
4.92345e-05
4.95819e-05
4.594e-05
4.63792e-05
4.63739e-05
4.95808e-05
4.96811e-05
4.99958e-05
4.65186e-05
4.65151e-05
4.69056e-05
4.6897e-05
4.96857e-05
4.99874e-05
4.65136e-05
4.65136e-05
4.6904e-05
4.69109e-05
4.65155e-05
4.68997e-05
4.69071e-05
4.96822e-05
5.00008e-05
4.651e-05
4.6915e-05
4.69066e-05
4.99965e-05
5.00903e-05
5.04259e-05
4.70349e-05
4.70312e-05
4.74534e-05
4.74462e-05
5.0084e-05
5.04248e-05
4.70332e-05
4.70448e-05
4.74488e-05
4.74452e-05
4.70438e-05
4.74471e-05
4.74464e-05
5.00986e-05
5.04214e-05
4.70438e-05
4.74462e-05
4.74428e-05
5.0423e-05
5.0525e-05
5.07969e-05
4.75878e-05
4.75741e-05
4.7927e-05
4.79256e-05
5.05201e-05
5.07977e-05
4.75839e-05
4.75733e-05
4.79223e-05
4.79254e-05
4.75727e-05
4.79325e-05
4.79388e-05
5.05143e-05
5.07972e-05
4.75679e-05
4.79306e-05
4.79331e-05
5.08042e-05
5.08767e-05
5.11687e-05
4.80384e-05
4.80471e-05
4.84085e-05
4.84063e-05
5.08855e-05
5.1173e-05
4.80317e-05
4.80434e-05
4.84059e-05
4.84143e-05
4.80592e-05
4.84079e-05
4.83994e-05
5.08853e-05
5.11798e-05
4.80543e-05
4.84175e-05
4.83985e-05
5.1164e-05
5.1258e-05
5.14997e-05
4.85202e-05
4.8506e-05
4.88238e-05
4.88095e-05
5.12512e-05
5.14817e-05
4.85205e-05
4.85219e-05
4.88216e-05
4.88177e-05
4.85017e-05
4.8816e-05
4.88313e-05
5.12623e-05
5.1489e-05
4.85008e-05
4.88228e-05
4.88284e-05
5.15e-05
5.15776e-05
5.18359e-05
4.89381e-05
4.8928e-05
4.9245e-05
4.9242e-05
5.15666e-05
5.18437e-05
4.8934e-05
4.89287e-05
4.92409e-05
4.92343e-05
4.89485e-05
4.9238e-05
4.92291e-05
5.15681e-05
5.18325e-05
4.8946e-05
4.92337e-05
4.92269e-05
5.18308e-05
5.19094e-05
5.21835e-05
4.93315e-05
4.93425e-05
4.96954e-05
4.97171e-05
5.1922e-05
5.22076e-05
4.93259e-05
4.93332e-05
4.96884e-05
4.9719e-05
4.93274e-05
4.97296e-05
4.97305e-05
5.19118e-05
5.22127e-05
4.93237e-05
4.97293e-05
4.97247e-05
5.22127e-05
5.22751e-05
5.24634e-05
4.98172e-05
4.98116e-05
5.00142e-05
4.99452e-05
5.22777e-05
5.23892e-05
4.98142e-05
4.9825e-05
5.00197e-05
4.99736e-05
4.98313e-05
4.99454e-05
4.9957e-05
5.22904e-05
5.24149e-05
4.98269e-05
4.99662e-05
4.99562e-05
5.24034e-05
5.25177e-05
5.27496e-05
5.0083e-05
5.00359e-05
5.04279e-05
5.04746e-05
5.24482e-05
5.28276e-05
5.0086e-05
5.00586e-05
5.0423e-05
5.04712e-05
5.00401e-05
5.04824e-05
5.04755e-05
5.24715e-05
5.28183e-05
5.00407e-05
5.04833e-05
5.04734e-05
5.28183e-05
5.28039e-05
5.27466e-05
5.05146e-05
5.05663e-05
5.0559e-05
5.05945e-05
5.28888e-05
5.27709e-05
5.05093e-05
5.05541e-05
5.05525e-05
5.05682e-05
5.05662e-05
5.06014e-05
5.059e-05
5.28755e-05
5.27355e-05
5.05629e-05
5.05795e-05
5.05843e-05
5.27536e-05
5.27527e-05
5.31029e-05
5.05448e-05
5.05617e-05
5.06665e-05
5.06134e-05
5.27694e-05
5.29564e-05
5.05374e-05
5.05303e-05
5.06561e-05
5.05938e-05
5.05565e-05
5.06095e-05
5.06206e-05
5.27313e-05
5.29436e-05
5.05503e-05
5.05961e-05
5.06196e-05
5.30044e-05
5.33752e-05
5.43068e-05
5.10198e-05
5.08687e-05
5.19922e-05
5.1991e-05
5.32212e-05
5.43453e-05
5.10105e-05
5.0892e-05
5.20019e-05
5.2077e-05
5.09054e-05
5.20039e-05
5.20233e-05
5.32435e-05
5.44701e-05
5.09183e-05
5.20768e-05
5.20259e-05
5.4379e-05
5.4362e-05
5.33108e-05
5.20617e-05
5.20825e-05
5.17648e-05
5.18045e-05
5.44166e-05
5.33675e-05
5.20714e-05
5.216e-05
5.17625e-05
5.17556e-05
5.20985e-05
5.18155e-05
5.1706e-05
5.45373e-05
5.31897e-05
5.2095e-05
5.17292e-05
5.16612e-05
5.31447e-05
5.29499e-05
5.13504e-05
5.11226e-05
5.11546e-05
4.97188e-05
4.97162e-05
5.29833e-05
5.13218e-05
5.11072e-05
5.09734e-05
4.9716e-05
4.96366e-05
5.09682e-05
4.97258e-05
4.97144e-05
5.27783e-05
5.11907e-05
5.09141e-05
4.96558e-05
4.97156e-05
5.1319e-05
5.13456e-05
5.41817e-05
4.96521e-05
4.96534e-05
5.08703e-05
5.09541e-05
5.13208e-05
5.43307e-05
4.96532e-05
4.96047e-05
5.09219e-05
5.14549e-05
4.9685e-05
5.1029e-05
5.14954e-05
5.12096e-05
5.49368e-05
4.96939e-05
5.16073e-05
5.16407e-05
5.49234e-05
5.52303e-05
5.92643e-05
5.27528e-05
5.28313e-05
5.66398e-05
5.65886e-05
5.53692e-05
5.91715e-05
5.27934e-05
5.33214e-05
5.65995e-05
5.65647e-05
5.33278e-05
5.65443e-05
5.65442e-05
5.59527e-05
5.91339e-05
5.34387e-05
5.65257e-05
5.65124e-05
5.91296e-05
5.95137e-05
5.78294e-05
5.70958e-05
5.70064e-05
5.68788e-05
5.67324e-05
5.93842e-05
5.75646e-05
5.70377e-05
5.68206e-05
5.67995e-05
5.60748e-05
5.68053e-05
5.66337e-05
5.60616e-05
5.92236e-05
5.62586e-05
5.67424e-05
5.58787e-05
5.58842e-05
5.62737e-05
5.67132e-05
4.82714e-05
5.56495e-05
5.54383e-05
4.78851e-05
4.78078e-05
5.64583e-05
4.82074e-05
5.55465e-05
5.42174e-05
4.79669e-05
4.79481e-05
5.41689e-05
4.78522e-05
4.77943e-05
5.51412e-05
4.86111e-05
5.39148e-05
4.79647e-05
4.78428e-05
4.84047e-05
4.73904e-05
4.59011e-05
4.61251e-05
4.61012e-05
4.4542e-05
4.45988e-05
4.73576e-05
4.59905e-05
4.62496e-05
4.67052e-05
4.47029e-05
4.57805e-05
4.65676e-05
4.47673e-05
4.57006e-05
4.80859e-05
4.79065e-05
4.66887e-05
4.59796e-05
4.58952e-05
4.78778e-05
4.66389e-05
5.69665e-05
4.47504e-05
4.48258e-05
5.3038e-05
5.32583e-05
4.67774e-05
5.72449e-05
4.49068e-05
4.60765e-05
5.2992e-05
5.33525e-05
4.60313e-05
5.32553e-05
5.34433e-05
4.87815e-05
5.70187e-05
4.62375e-05
5.34229e-05
5.34772e-05
5.70558e-05
5.85729e-05
6.29165e-05
5.61091e-05
5.63257e-05
6.03729e-05
6.05176e-05
5.88619e-05
6.31649e-05
5.59907e-05
5.57405e-05
6.01338e-05
5.88178e-05
5.58776e-05
6.03764e-05
5.92015e-05
5.82233e-05
6.10229e-05
5.58223e-05
5.86955e-05
5.89726e-05
6.13818e-05
6.29455e-05
5.68113e-05
6.05032e-05
6.0624e-05
5.72567e-05
5.7054e-05
6.318e-05
5.65535e-05
6.02544e-05
5.88487e-05
5.7013e-05
5.53188e-05
5.92716e-05
5.69305e-05
5.60454e-05
6.09821e-05
5.50307e-05
5.90261e-05
5.51217e-05
5.57244e-05
5.57419e-05
5.5363e-05
4.99852e-05
5.43075e-05
5.41134e-05
4.90174e-05
4.90138e-05
5.50941e-05
5.00604e-05
5.41433e-05
5.30697e-05
4.91119e-05
4.98475e-05
5.35603e-05
4.90705e-05
4.96226e-05
5.39816e-05
5.11873e-05
5.33462e-05
4.9886e-05
4.97064e-05
5.09367e-05
4.98401e-05
5.21681e-05
4.85273e-05
4.85676e-05
4.90253e-05
4.90501e-05
4.99691e-05
5.21139e-05
4.86848e-05
4.97445e-05
4.93596e-05
5.16134e-05
4.93934e-05
4.92549e-05
5.05126e-05
5.12357e-05
5.501e-05
4.95312e-05
5.18839e-05
5.09327e-05
5.38334e-05
5.32588e-05
5.776e-05
5.07247e-05
5.05691e-05
5.52569e-05
5.45963e-05
5.30117e-05
5.66902e-05
5.11815e-05
5.31752e-05
5.5347e-05
5.54098e-05
5.20189e-05
5.44527e-05
5.4536e-05
5.57945e-05
5.76688e-05
5.24166e-05
5.53057e-05
5.46676e-05
5.67452e-05
5.8049e-05
5.69434e-05
5.58178e-05
5.51858e-05
5.58232e-05
5.54611e-05
5.69931e-05
5.69981e-05
5.58021e-05
5.54792e-05
5.55999e-05
5.38571e-05
5.47092e-05
5.52068e-05
5.41796e-05
5.76677e-05
5.42318e-05
5.47753e-05
5.35525e-05
5.38473e-05
5.48317e-05
5.62079e-05
5.20648e-05
5.5016e-05
5.51594e-05
5.11334e-05
5.22091e-05
5.66534e-05
5.3744e-05
5.45052e-05
5.23824e-05
5.07633e-05
5.00288e-05
5.32318e-05
5.22285e-05
5.13605e-05
5.35362e-05
5.12592e-05
5.27946e-05
5.00697e-05
5.10167e-05
5.26759e-05
5.18546e-05
5.24021e-05
5.05786e-05
5.15929e-05
5.03977e-05
5.1037e-05
5.3516e-05
5.29234e-05
5.02926e-05
4.99105e-05
5.02781e-05
5.09387e-05
5.12069e-05
5.11873e-05
5.15094e-05
5.12655e-05
5.38162e-05
5.09093e-05
5.11297e-05
5.14915e-05
5.40437e-05
5.30232e-05
5.57351e-05
5.08141e-05
5.10688e-05
5.33576e-05
5.23203e-05
5.29929e-05
5.42252e-05
5.0951e-05
5.21749e-05
5.36357e-05
5.42896e-05
5.22415e-05
5.24388e-05
5.37574e-05
5.45029e-05
5.65559e-05
5.24057e-05
5.43749e-05
5.40307e-05
5.60523e-05
5.59322e-05
5.55668e-05
5.37214e-05
5.26941e-05
5.38381e-05
5.30583e-05
5.44301e-05
5.47673e-05
5.39841e-05
5.44667e-05
5.40521e-05
5.41861e-05
5.38689e-05
5.3016e-05
5.35168e-05
5.66277e-05
5.54058e-05
5.41486e-05
5.41803e-05
5.37467e-05
5.48537e-05
5.53317e-05
5.37002e-05
5.36041e-05
5.3057e-05
5.21952e-05
5.26989e-05
5.47895e-05
5.45106e-05
5.37312e-05
5.35136e-05
5.21317e-05
5.19719e-05
5.28832e-05
5.2566e-05
5.15846e-05
5.50698e-05
5.34597e-05
5.30192e-05
5.18482e-05
5.15217e-05
5.30573e-05
5.3639e-05
5.36939e-05
5.19891e-05
5.2576e-05
5.18882e-05
5.24405e-05
5.44989e-05
5.43429e-05
5.18991e-05
5.17903e-05
5.17797e-05
5.17577e-05
5.14604e-05
5.23636e-05
5.15367e-05
5.34248e-05
5.37236e-05
5.1368e-05
5.16609e-05
5.14219e-05
5.35331e-05
5.38737e-05
5.48772e-05
5.19908e-05
5.24448e-05
5.28771e-05
5.26594e-05
5.43543e-05
5.45149e-05
5.18895e-05
5.1957e-05
5.28445e-05
5.27651e-05
5.18883e-05
5.26884e-05
5.29706e-05
5.39403e-05
5.47368e-05
5.17753e-05
5.27873e-05
5.29406e-05
5.49793e-05
5.49747e-05
5.48922e-05
5.30562e-05
5.27764e-05
5.18525e-05
5.1587e-05
5.45729e-05
5.45825e-05
5.30326e-05
5.28793e-05
5.18356e-05
5.15991e-05
5.31629e-05
5.16285e-05
5.19791e-05
5.47878e-05
5.45844e-05
5.31445e-05
5.16402e-05
5.19675e-05
5.49968e-05
5.46488e-05
5.12626e-05
5.10495e-05
5.44356e-05
5.12459e-05
5.10107e-05
4.43475e-05
4.43471e-05
4.47059e-05
5.14113e-05
5.43547e-05
5.13989e-05
3.73769e-05
3.73764e-05
3.73767e-05
3.73767e-05
3.73694e-05
3.73756e-05
3.73043e-05
3.73764e-05
3.73695e-05
3.73756e-05
3.73764e-05
3.73043e-05
3.73714e-05
3.72959e-05
3.72959e-05
3.58829e-05
4.08677e-05
3.6601e-05
4.51385e-05
5.51099e-05
6.48883e-05
3.58835e-05
4.08674e-05
3.66009e-05
4.51411e-05
3.60232e-05
3.60232e-05
3.60232e-05
3.44005e-05
3.44005e-05
3.44005e-05
3.44005e-05
3.52763e-05
3.56382e-05
3.60241e-05
3.53761e-05
3.60479e-05
3.42427e-05
3.53827e-05
5.51119e-05
6.48899e-05
3.52764e-05
3.60241e-05
3.56379e-05
3.53761e-05
3.60478e-05
3.53827e-05
3.42432e-05
3.65941e-05
3.65948e-05
3.52782e-05
3.40673e-05
3.40664e-05
3.39695e-05
5.13493e-05
3.46835e-05
5.46194e-05
7.65443e-05
8.08619e-05
3.39704e-05
5.13498e-05
3.46829e-05
5.46228e-05
3.39295e-05