/*--------------------------------*- C++ -*----------------------------------*\
| =========                 |                                                 |
| \\      /  F ield         | OpenFOAM: The Open Source CFD Toolbox           |
|  \\    /   O peration     | Version:  2312                                  |
|   \\  /    A nd           | Website:  www.openfoam.com                      |
|    \\/     M anipulation  |                                                 |
\*---------------------------------------------------------------------------*/
FoamFile
{
    version     2.0;
    format      ascii;
    arch        "LSB;label=32;scalar=64";
    class       volScalarField;
    location    "750";
    object      nut;
}
// * * * * * * * * * * * * * * * * * * * * * * * * * * * * * * * * * * * * * //

dimensions      [0 2 -1 0 0 0 0];

internalField   nonuniform List<scalar> 
172512
(
0.000233969
0.000233549
0.000233549
0.00023345
0.000232529
0.000227583
0.000227583
0.000223835
0.000230489
0.000220163
0.000220162
0.00020903
0.00022776
0.000211546
0.000211544
0.0001937
0.00022439
0.000202555
0.000202552
0.00017963
0.000220508
0.000193694
0.000193691
0.000167269
0.000216261
0.00018521
0.000185206
0.000156525
0.000211779
0.000177178
0.000177173
0.000147151
0.000207168
0.000169639
0.000169635
0.000138902
0.000202509
0.000162568
0.000162563
0.000131572
0.000197856
0.000155911
0.000155906
0.000124915
0.000193244
0.000149612
0.000149607
0.000118782
0.000188654
0.000143634
0.000143629
0.000113137
0.000184124
0.000137923
0.000137919
0.000107905
0.000179681
0.000132436
0.000132432
0.000103031
0.000175315
0.000127165
0.00012716
9.8413e-05
0.000171014
0.000122126
0.000122122
9.42301e-05
0.000166765
0.000117347
0.000117343
9.06404e-05
0.000162569
0.000112865
0.000112861
8.77142e-05
0.000158398
0.000108734
0.00010873
8.53683e-05
0.000154248
0.000105005
0.000105002
8.36532e-05
0.000150129
0.000101693
0.000101689
8.2567e-05
0.00014605
9.88772e-05
9.88743e-05
8.20851e-05
0.000142032
9.65677e-05
9.65656e-05
8.21379e-05
0.000138104
9.47778e-05
9.47766e-05
8.26795e-05
0.000134281
9.35048e-05
9.35038e-05
8.36557e-05
0.000130619
9.27369e-05
9.27369e-05
8.50122e-05
0.000127143
9.2454e-05
9.24544e-05
8.66903e-05
0.000123889
9.26266e-05
9.26281e-05
8.8632e-05
0.000120889
9.32268e-05
9.32287e-05
9.07866e-05
0.000118175
9.42157e-05
9.42185e-05
9.31071e-05
0.000115777
9.556e-05
9.55636e-05
9.55573e-05
0.000113721
9.72226e-05
9.72261e-05
9.81017e-05
0.000112006
9.91625e-05
9.91677e-05
0.000100714
0.000110665
0.000101354
0.000101359
0.000103379
0.000109688
0.000103757
0.000103762
0.000106079
0.000109074
0.000106342
0.00010635
0.000108798
0.000108835
0.000109083
0.000109089
0.000111524
0.000108947
0.000111945
0.000111953
0.00011425
0.000109408
0.000114909
0.000114917
0.000116965
0.000110206
0.000117957
0.000117965
0.000119664
0.000111324
0.000121064
0.000121073
0.000122337
0.000112745
0.000124227
0.000124236
0.000124992
0.000114457
0.00012741
0.000127421
0.000127615
0.000116428
0.000130606
0.000130616
0.000130203
0.000118645
0.000133799
0.00013381
0.000132757
0.000121088
0.000136979
0.000136989
0.000135266
0.000123729
0.000140138
0.000140149
0.000137737
0.00012656
0.000143267
0.000143278
0.000140158
0.000129525
0.000146348
0.000146358
0.000142526
0.000132657
0.0001494
0.000149412
0.000144856
0.000135879
0.000152394
0.000152404
0.000147117
0.000139203
0.000155337
0.00015535
0.000149338
0.000142621
0.000158206
0.000158218
0.000151489
0.000146052
0.000161031
0.000161042
0.000153592
0.000149574
0.000163788
0.000163797
0.000155641
0.000153121
0.000166473
0.000166479
0.000157624
0.000156671
0.000169109
0.000169128
0.00015956
0.000160168
0.000171628
0.000171632
0.000161392
0.000163732
0.000174099
0.000174124
0.000163238
0.000167289
0.000176613
0.000176574
0.000164987
0.000170602
0.000178776
0.00017886
0.000166607
0.000174223
0.000181186
0.000181164
0.000168326
0.00017743
0.000183329
0.000183294
0.000169866
0.000180919
0.000185433
0.000185502
0.00017132
0.000183888
0.000187351
0.000187367
0.000172742
0.000187046
0.000189235
0.000189185
0.000174058
0.000190562
0.000191825
0.000191838
0.000175835
0.000193451
0.000192534
0.000192669
0.000176452
0.000196735
0.000195763
0.000195742
0.000178535
0.0001987
0.000195791
0.000195628
0.000178139
0.000198195
0.000195418
0.000195454
0.000179078
0.000209372
0.000203971
0.000204393
0.000185907
0.000212153
0.000201897
0.000200561
0.000180673
0.000198485
0.000190456
0.000189622
0.000170233
0.000193894
0.000201988
0.000205539
0.00018705
0.00024371
0.000231116
0.000230824
0.000207985
0.000266632
0.000237012
0.000226592
0.000197937
0.000202178
0.000178864
0.000180432
0.00016121
0.000162318
0.000160316
0.000167288
0.000155753
0.000202598
0.000220122
0.000219115
0.000197876
0.000281428
0.000257234
0.000247231
0.000220887
0.000287256
0.00022775
0.000218655
0.000193547
0.000207408
0.00018809
0.000192885
0.00017064
0.000189587
0.000193778
0.000209092
0.000184863
0.000239585
0.000222917
0.000226902
0.000199148
0.000258536
0.000229235
0.000213189
0.000190652
0.000223032
0.00020763
0.000196605
0.000180234
0.000209699
0.000201924
0.000206525
0.000186708
0.000233764
0.000212129
0.00022275
0.000196423
0.00024464
0.000215784
0.000219961
0.000191581
0.000233085
0.000212342
0.000207748
0.000183097
0.000227172
0.000210955
0.000207861
0.00018524
0.000235005
0.000214249
0.000215319
0.000192062
0.000239601
0.00021682
0.000216947
0.000197758
0.000234257
0.000234459
0.00023446
0.000234257
0.000234459
0.000234459
0.000234259
0.000234259
0.000234259
0.000234259
0.000234458
0.000234459
0.000234257
0.000234458
0.000234459
0.000234257
0.00023345
0.00022618
0.000233549
0.000233548
0.000229126
0.000229122
0.00023345
0.00022618
0.000233548
0.000233548
0.000229124
0.000229121
0.000233549
0.000229129
0.000229127
0.00023345
0.000226179
0.000233548
0.000229129
0.000229124
0.000226178
0.000223836
0.000212153
0.00022758
0.000227575
0.000222162
0.000222156
0.000223835
0.000212153
0.000227578
0.000227574
0.000222162
0.000222155
0.000227579
0.000222168
0.000222161
0.000223836
0.00021215
0.000227578
0.000222167
0.000222161
0.000212146
0.000209033
0.000196981
0.000220156
0.00022015
0.000213753
0.000213746
0.000209032
0.000196979
0.000220157
0.000220148
0.000213758
0.000213744
0.000220154
0.000213762
0.00021375
0.000209031
0.000196976
0.000220156
0.000213761
0.000213754
0.00019697
0.000193708
0.000182805
0.000211535
0.000211528
0.000204791
0.000204784
0.000193707
0.000182802
0.000211541
0.000211526
0.0002048
0.000204781
0.000211531
0.000204804
0.000204786
0.000193704
0.000182798
0.000211537
0.000204802
0.000204795
0.000182792
0.000179641
0.000170207
0.000202541
0.000202534
0.000195864
0.000195857
0.000179639
0.000170204
0.000202551
0.000202531
0.000195876
0.000195853
0.000202536
0.000195879
0.000195858
0.000179635
0.000170199
0.000202545
0.000195877
0.000195869
0.000170192
0.000167283
0.000159191
0.000193677
0.00019367
0.000187271
0.000187264
0.00016728
0.000159187
0.000193691
0.000193666
0.000187287
0.00018726
0.000193671
0.000187289
0.000187264
0.000167275
0.000159182
0.000193684
0.000187286
0.000187279
0.000159174
0.00015654
0.00014957
0.00018519
0.000185183
0.000179118
0.000179111
0.000156537
0.000149566
0.000185206
0.000185179
0.000179137
0.000179106
0.000185183
0.000179138
0.000179111
0.000156531
0.000149559
0.000185198
0.000179135
0.000179128
0.000149552
0.000147168
0.00014107
0.000177155
0.000177148
0.000171454
0.000171447
0.000147164
0.000141066
0.000177175
0.000177144
0.000171475
0.000171442
0.000177148
0.000171477
0.000171447
0.000147158
0.000141059
0.000177166
0.000171473
0.000171466
0.000141051
0.000138919
0.000133516
0.000169614
0.000169607
0.000164268
0.000164261
0.000138915
0.000133512
0.000169637
0.000169603
0.000164292
0.000164256
0.000169608
0.000164294
0.000164262
0.000138909
0.000133505
0.000169628
0.00016429
0.000164283
0.000133497
0.00013159
0.000126659
0.000162541
0.000162534
0.000157511
0.000157503
0.000131586
0.000126656
0.000162566
0.000162529
0.000157537
0.000157498
0.000162534
0.000157538
0.000157504
0.000131579
0.000126648
0.000162556
0.000157535
0.000157528
0.00012664
0.000124934
0.000120339
0.000155881
0.000155874
0.000151126
0.000151118
0.000124929
0.000120336
0.000155909
0.00015587
0.000151154
0.000151114
0.000155875
0.000151155
0.00015112
0.000124922
0.000120328
0.000155899
0.000151152
0.000151145
0.000120319
0.000118799
0.000114408
0.000149581
0.000149573
0.000145068
0.00014506
0.000118795
0.000114402
0.00014961
0.00014957
0.000145098
0.000145056
0.000149575
0.000145099
0.000145062
0.000118788
0.000114395
0.0001496
0.000145095
0.000145088
0.000114386
0.000113154
0.000108821
0.000143602
0.000143594
0.000139294
0.000139286
0.000113151
0.000108815
0.000143632
0.00014359
0.000139324
0.000139282
0.000143596
0.000139326
0.000139289
0.000113144
0.000108808
0.000143622
0.000139322
0.000139315
0.0001088
0.000107922
0.000103689
0.00013789
0.000137882
0.000133754
0.000133745
0.000107918
0.000103684
0.000137921
0.000137879
0.000133784
0.000133741
0.000137885
0.000133786
0.000133749
0.000107911
0.000103676
0.000137911
0.000133783
0.000133775
0.000103669
0.000103049
9.91151e-05
0.000132403
0.000132394
0.000128427
0.000128416
0.000103045
9.91105e-05
0.000132434
0.000132391
0.000128456
0.000128413
0.000132398
0.000128458
0.000128422
0.000103038
9.91037e-05
0.000132424
0.000128455
0.000128447
9.9097e-05
9.84305e-05
9.4978e-05
0.000127133
0.000127121
0.000123329
0.000123315
9.84255e-05
9.49731e-05
0.000127161
0.000127119
0.000123356
0.000123314
0.000127128
0.000123359
0.000123325
9.84191e-05
9.49672e-05
0.000127152
0.000123356
0.000123347
9.49606e-05
9.42468e-05
9.14251e-05
0.000122096
0.000122082
0.000118464
0.000118449
9.4241e-05
9.14207e-05
0.000122122
0.00012208
0.000118488
0.000118448
0.000122092
0.000118492
0.00011846
9.42357e-05
9.14155e-05
0.000122113
0.000118489
0.000118479
9.14088e-05
9.06557e-05
8.83688e-05
0.000117318
0.000117303
0.00011391
0.000113894
9.06494e-05
8.83636e-05
0.000117342
0.000117302
0.000113933
0.000113894
0.000117315
0.000113938
0.000113908
9.06456e-05
8.83587e-05
0.000117333
0.000113935
0.000113925
8.83542e-05
8.77279e-05
8.59007e-05
0.000112835
0.00011282
0.000109681
0.000109664
8.77226e-05
8.58957e-05
0.000112858
0.000112819
0.000109702
0.000109665
0.000112834
0.000109707
0.00010968
8.7718e-05
8.58919e-05
0.00011285
0.000109705
0.000109694
8.58873e-05
8.53805e-05
8.40618e-05
0.000108706
0.000108689
0.000105838
0.000105822
8.53758e-05
8.40575e-05
0.000108727
0.000108689
0.000105858
0.000105822
0.000108705
0.000105864
0.000105838
8.53718e-05
8.40535e-05
0.000108719
0.000105862
0.000105851
8.40495e-05
8.3664e-05
8.28528e-05
0.000104977
0.000104961
0.000102443
0.000102428
8.36604e-05
8.28493e-05
0.000104998
0.000104962
0.000102464
0.000102428
0.000104977
0.000102469
0.000102445
8.36562e-05
8.2846e-05
0.00010499
0.000102468
0.000102457
8.2842e-05
8.25771e-05
8.22526e-05
0.000101664
0.00010165
9.95033e-05
9.94912e-05
8.25732e-05
8.22512e-05
0.000101685
0.000101651
9.95239e-05
9.94917e-05
0.000101667
9.953e-05
9.95071e-05
8.25698e-05
8.22481e-05
0.000101678
9.953e-05
9.95182e-05
8.2244e-05
8.20927e-05
8.22003e-05
9.88488e-05
9.88368e-05
9.7067e-05
9.70568e-05
8.20911e-05
8.21978e-05
9.8869e-05
9.88365e-05
9.70872e-05
9.70568e-05
9.8853e-05
9.70934e-05
9.70721e-05
8.20883e-05
8.21946e-05
9.88633e-05
9.70936e-05
9.7082e-05
8.2192e-05
8.21453e-05
8.26422e-05
9.65397e-05
9.65296e-05
9.51489e-05
9.51399e-05
8.21436e-05
8.264e-05
9.65595e-05
9.65295e-05
9.51682e-05
9.51395e-05
9.65449e-05
9.51744e-05
9.51552e-05
8.21404e-05
8.26375e-05
9.65541e-05
9.5175e-05
9.51641e-05
8.26355e-05
8.26856e-05
8.35297e-05
9.47511e-05
9.47421e-05
9.3748e-05
9.37404e-05
8.26835e-05
8.35281e-05
9.47701e-05
9.47423e-05
9.37666e-05
9.37406e-05
9.47571e-05
9.37726e-05
9.37554e-05
8.2681e-05
8.35261e-05
9.47652e-05
9.37738e-05
9.37632e-05
8.35247e-05
8.36599e-05
8.481e-05
9.34788e-05
9.34715e-05
9.28577e-05
9.28512e-05
8.36587e-05
8.48082e-05
9.34966e-05
9.34711e-05
9.28751e-05
9.28512e-05
9.34866e-05
9.28812e-05
9.28656e-05
8.36564e-05
8.48068e-05
9.34935e-05
9.28828e-05
9.28721e-05
8.48052e-05
8.50166e-05
8.64216e-05
9.27131e-05
9.27059e-05
9.24563e-05
9.24505e-05
8.50149e-05
8.64199e-05
9.27299e-05
9.27065e-05
9.24725e-05
9.24511e-05
9.27203e-05
9.24783e-05
9.24655e-05
8.50135e-05
8.64193e-05
9.2726e-05
9.24806e-05
9.24707e-05
8.64188e-05
8.66926e-05
8.83098e-05
9.24308e-05
9.24251e-05
9.25207e-05
9.25154e-05
8.66911e-05
8.83084e-05
9.24462e-05
9.24256e-05
9.25357e-05
9.25165e-05
9.24401e-05
9.25413e-05
9.253e-05
8.66904e-05
8.83082e-05
9.24444e-05
9.25443e-05
9.25339e-05
8.83072e-05
8.86345e-05
9.04188e-05
9.26056e-05
9.26001e-05
9.30178e-05
9.30135e-05
8.86329e-05
9.0418e-05
9.26198e-05
9.26013e-05
9.30314e-05
9.30146e-05
9.26149e-05
9.30374e-05
9.30283e-05
8.86327e-05
9.04182e-05
9.2618e-05
9.30406e-05
9.30308e-05
9.04182e-05
9.07872e-05
9.27059e-05
9.32071e-05
9.32021e-05
9.39144e-05
9.39103e-05
9.07866e-05
9.27041e-05
9.32198e-05
9.32034e-05
9.39266e-05
9.39121e-05
9.3217e-05
9.39326e-05
9.39255e-05
9.07866e-05
9.2705e-05
9.32186e-05
9.39367e-05
9.39265e-05
9.27045e-05
9.3108e-05
9.51282e-05
9.41975e-05
9.41929e-05
9.51748e-05
9.51711e-05
9.31064e-05
9.51271e-05
9.4209e-05
9.41949e-05
9.51856e-05
9.51733e-05
9.4208e-05
9.51918e-05
9.51867e-05
9.31073e-05
9.51282e-05
9.42082e-05
9.51964e-05
9.51863e-05
9.51283e-05
9.55574e-05
9.76528e-05
9.55418e-05
9.55386e-05
9.6764e-05
9.6759e-05
9.55561e-05
9.76515e-05
9.55518e-05
9.55412e-05
9.67734e-05
9.67613e-05
9.55547e-05
9.67784e-05
9.67746e-05
9.55571e-05
9.76534e-05
9.55535e-05
9.67833e-05
9.67727e-05
9.76531e-05
9.81027e-05
0.00010025
9.72092e-05
9.72028e-05
9.86363e-05
9.86338e-05
9.81005e-05
0.00010025
9.7218e-05
9.7205e-05
9.86444e-05
9.86371e-05
9.72182e-05
9.86521e-05
9.86507e-05
9.81019e-05
0.000100252
9.72154e-05
9.8658e-05
9.86474e-05
0.000100252
0.000100711
0.000102906
9.91447e-05
9.91435e-05
0.000100771
0.000100766
0.000100712
0.000102904
9.91524e-05
9.91473e-05
0.000100778
0.00010077
9.91608e-05
0.000100784
0.000100783
0.000100714
0.000102906
9.91567e-05
0.00010079
0.000100779
0.000102906
0.00010338
0.0001056
0.000101342
0.000101336
0.000103127
0.000103121
0.000103377
0.000105597
0.000101349
0.000101339
0.000103132
0.000103124
0.000101353
0.000103138
0.000103138
0.000103379
0.000105599
0.000101348
0.000103144
0.000103132
0.000105599
0.000106079
0.000108308
0.000103744
0.00010374
0.000105665
0.000105662
0.000106078
0.000108308
0.00010375
0.000103743
0.00010567
0.000105667
0.000103757
0.000105678
0.000105682
0.00010608
0.000108312
0.00010375
0.000105687
0.000105675
0.000108312
0.000108795
0.000111038
0.000106328
0.000106325
0.000108374
0.000108369
0.000108795
0.000111035
0.000106333
0.00010633
0.000108378
0.000108373
0.000106345
0.000108385
0.000108386
0.000108798
0.000111038
0.000106338
0.000108392
0.000108379
0.000111037
0.000111527
0.000113761
0.000109072
0.000109066
0.000111208
0.000111202
0.000111524
0.000113758
0.000109076
0.00010907
0.000111211
0.000111207
0.000109084
0.000111218
0.000111222
0.000111526
0.000113762
0.000109076
0.000111227
0.000111213
0.000113762
0.000114249
0.000116479
0.000111934
0.000111929
0.000114149
0.000114143
0.000114247
0.000116477
0.000111937
0.000111934
0.000114152
0.000114148
0.000111949
0.000114159
0.000114163
0.000114251
0.000116481
0.00011194
0.000114168
0.000114154
0.00011648
0.000116965
0.000119182
0.000114899
0.000114892
0.000117177
0.000117171
0.000116962
0.00011918
0.000114901
0.000114898
0.000117179
0.000117176
0.000114912
0.000117187
0.000117191
0.000116966
0.000119184
0.000114903
0.000117196
0.000117182
0.000119183
0.000119663
0.000121865
0.000117946
0.00011794
0.000120276
0.000120266
0.000119661
0.00012186
0.000117948
0.000117946
0.000120277
0.000120272
0.00011796
0.000120282
0.000120286
0.000119665
0.000121865
0.00011795
0.000120292
0.000120277
0.000121863
0.000122339
0.000124523
0.000121058
0.000121047
0.000123423
0.000123415
0.000122334
0.000124521
0.000121058
0.000121054
0.000123423
0.000123422
0.000121068
0.000123432
0.000123436
0.000122339
0.000124526
0.000121059
0.000123442
0.000123427
0.000124524
0.000124991
0.000127158
0.000124218
0.000124209
0.000126608
0.000126596
0.000124989
0.000127153
0.000124217
0.000124216
0.000126607
0.000126605
0.00012423
0.000126613
0.000126617
0.000124994
0.000127159
0.000124221
0.000126626
0.000126609
0.000127157
0.000127616
0.000129755
0.000127405
0.000127392
0.0001298
0.000129787
0.000127611
0.000129751
0.000127405
0.000127401
0.000129799
0.000129796
0.000127414
0.000129806
0.000129809
0.000127618
0.000129756
0.000127405
0.000129817
0.000129801
0.000129754
0.000130204
0.000132319
0.0001306
0.000130587
0.000132997
0.000132983
0.000130201
0.000132315
0.000130599
0.000130595
0.000132995
0.000132992
0.000130609
0.000133002
0.000133005
0.000130206
0.000132321
0.0001306
0.000133014
0.000132997
0.000132318
0.000132758
0.000134841
0.000133794
0.00013378
0.000136182
0.000136167
0.000132754
0.000134836
0.000133792
0.000133789
0.00013618
0.000136175
0.000133801
0.000136186
0.000136187
0.00013276
0.000134843
0.000133794
0.000136197
0.00013618
0.000134839
0.000135269
0.000137321
0.000136974
0.000136959
0.000139345
0.00013933
0.000135264
0.000137316
0.000136972
0.000136968
0.000139343
0.000139339
0.000136979
0.000139349
0.000139352
0.00013527
0.000137324
0.000136972
0.000139361
0.000139345
0.00013732
0.000137738
0.000139759
0.000140132
0.000140117
0.000142487
0.000142469
0.000137733
0.000139753
0.000140129
0.000140126
0.000142485
0.000142479
0.000140139
0.000142489
0.000142489
0.00013774
0.00013976
0.000140133
0.000142501
0.000142484
0.000139755
0.000140163
0.000142138
0.000143264
0.000143247
0.000145576
0.000145558
0.000140157
0.000142132
0.000143262
0.000143256
0.000145575
0.000145569
0.000143266
0.000145579
0.000145579
0.000140164
0.00014214
0.00014326
0.000145592
0.000145574
0.000142134
0.000142529
0.000144479
0.000146343
0.000146327
0.000148642
0.000148623
0.000142524
0.000144473
0.000146342
0.000146336
0.000148641
0.000148634
0.000146347
0.000148644
0.000148644
0.000142531
0.000144481
0.000146341
0.000148658
0.000148641
0.000144476
0.000144859
0.000146756
0.000149398
0.000149378
0.000151644
0.000151627
0.000144852
0.000146751
0.000149397
0.000149389
0.000151644
0.00015164
0.0001494
0.000151649
0.000151645
0.00014486
0.000146758
0.000149397
0.000151662
0.000151642
0.000146752
0.000147122
0.000148988
0.000152387
0.000152372
0.000154598
0.000154583
0.000147117
0.000148983
0.000152387
0.000152382
0.000154597
0.00015459
0.000152388
0.000154604
0.0001546
0.000147124
0.000148988
0.000152384
0.000154614
0.000154598
0.000148984
0.000149342
0.000151161
0.000155331
0.000155314
0.0001575
0.000157474
0.000149335
0.000151149
0.000155332
0.000155325
0.000157499
0.000157486
0.000155333
0.000157495
0.000157494
0.000149342
0.00015116
0.000155332
0.000157509
0.000157492
0.000151153
0.000151497
0.000153265
0.000158206
0.000158184
0.000160314
0.000160301
0.000151487
0.000153264
0.000158206
0.000158196
0.000160315
0.000160313
0.000158201
0.000160326
0.000160319
0.000151496
0.000153271
0.000158198
0.000160338
0.000160318
0.000153263
0.000153594
0.000155339
0.000161022
0.000161007
0.000163102
0.000163083
0.000153592
0.00015533
0.000161023
0.000161017
0.000163099
0.000163083
0.000161024
0.000163104
0.000163098
0.000153598
0.000155333
0.000161025
0.00016311
0.000163099
0.000155331
0.000155648
0.000157335
0.000163781
0.000163764
0.000165805
0.000165781
0.00015564
0.000157325
0.00016378
0.00016377
0.000165811
0.000165801
0.000163782
0.000165805
0.000165798
0.000155644
0.000157337
0.000163781
0.000165823
0.000165799
0.000157326
0.000157634
0.000159281
0.000166472
0.000166449
0.000168453
0.000168437
0.000157624
0.000159277
0.000166474
0.000166456
0.000168456
0.000168445
0.000166464
0.000168463
0.000168457
0.000157633
0.000159279
0.000166463
0.000168469
0.000168456
0.000159277
0.000159563
0.000161138
0.000169098
0.000169083
0.000170991
0.000170977
0.00015956
0.000161131
0.000169105
0.000169104
0.000170989
0.000170982
0.000169102
0.000170997
0.000170979
0.000159567
0.000161145
0.000169105
0.00017101
0.000170982
0.000161126
0.000161407
0.000162984
0.000171623
0.000171606
0.000173507
0.000173451
0.000161398
0.000162954
0.000171619
0.000171602
0.000173519
0.000173486
0.00017161
0.000173474
0.000173495
0.000161406
0.000162968
0.000171611
0.000173509
0.000173507
0.000162976
0.000163241
0.000164752
0.000174111
0.000174072
0.00017597
0.000176001
0.000163216
0.000164789
0.000174122
0.000174101
0.000175963
0.000175961
0.000174112
0.000176037
0.000175987
0.000163231
0.00016476
0.000174121
0.000175992
0.000175972
0.000164751
0.000164999
0.000166393
0.000176584
0.000176586
0.000178219
0.00017817
0.00016503
0.000166349
0.000176579
0.000176552
0.000178235
0.000178237
0.000176566
0.00017819
0.000178205
0.000164998
0.000166406
0.000176553
0.000178264
0.000178224
0.000166377
0.000166602
0.000168126
0.000178757
0.00017874
0.000180622
0.0001806
0.000166567
0.000168125
0.000178775
0.000178816
0.000180621
0.000180587
0.000178797
0.000180615
0.000180589
0.000166635
0.000168109
0.000178822
0.000180609
0.000180595
0.000168107
0.00016838
0.000169654
0.00018125
0.000181181
0.000182752
0.000182731
0.000168357
0.000169641
0.000181253
0.000181165
0.000182755
0.000182721
0.000181152
0.000182776
0.000182791
0.000168326
0.000169631
0.00018115
0.000182751
0.00018278
0.000169663
0.000169806
0.000171178
0.000183225
0.000183276
0.000184938
0.000184965
0.000169837
0.000171221
0.000183213
0.000183238
0.000184942
0.000184981
0.000183339
0.000184982
0.000184902
0.000169826
0.00017124
0.000183331
0.000185015
0.000184919
0.000171161
0.000171396
0.000172563
0.000185468
0.000185417
0.000186831
0.000186742
0.000171384
0.000172461
0.000185493
0.00018549
0.000186848
0.000186802
0.000185356
0.000186791
0.000186856
0.000171427
0.000172507
0.000185376
0.000186838
0.000186862
0.000172539
0.00017272
0.000173983
0.000187371
0.000187305
0.000188842
0.000188795
0.000172647
0.000173996
0.000187375
0.000187319
0.000188849
0.000188743
0.00018743
0.000188774
0.000188712
0.000172666
0.000173936
0.000187439
0.000188745
0.000188727
0.00017393
0.000174118
0.000175469
0.000189208
0.000189252
0.000190996
0.00019121
0.000174157
0.000175641
0.000189206
0.000189182
0.00019097
0.00019117
0.000189133
0.000191287
0.000191245
0.000174096
0.000175637
0.00018914
0.000191248
0.000191232
0.000175638
0.000175724
0.000176765
0.000191678
0.000191742
0.000192661
0.000192195
0.000175797
0.000176356
0.000191674
0.000191772
0.000192723
0.000192367
0.00019183
0.000192208
0.000192279
0.000175832
0.000176487
0.000191825
0.00019233
0.0001923
0.000176431
0.000176821
0.000178115
0.00019294
0.000192551
0.000194807
0.000195047
0.000176386
0.000178443
0.00019299
0.000192704
0.000194803
0.000195059
0.000192583
0.000195095
0.000195032
0.000176518
0.00017842
0.000192616
0.000195129
0.000195045
0.000178388
0.000178228
0.000178248
0.000195378
0.000195702
0.000195707
0.000196013
0.000178606
0.000178477
0.00019537
0.000195657
0.000195698
0.000195874
0.000195678
0.000196082
0.000195967
0.000178561
0.000178322
0.000195681
0.000195962
0.000195952
0.000178363
0.000178009
0.000178671
0.000195543
0.000195741
0.00019475
0.000194562
0.000178256
0.00017796
0.000195534
0.000195559
0.000194705
0.000194259
0.00019569
0.000194563
0.0001945
0.000178081
0.000177724
0.00019567
0.000194298
0.000194488
0.000178094
0.000179666
0.000185216
0.000196558
0.000195549
0.000203069
0.00020303
0.000178816
0.000185292
0.0001965
0.000195499
0.000203144
0.000203518
0.000195685
0.00020309
0.000203243
0.000178726
0.000185911
0.00019578
0.000203537
0.000203304
0.000185592
0.000185508
0.000183699
0.000203766
0.000203883
0.000205248
0.000205554
0.000185679
0.000184073
0.000203848
0.000204378
0.000205283
0.000205561
0.000204038
0.000205638
0.000205117
0.000186303
0.000183443
0.000204075
0.000205402
0.000204886
0.000182997
0.00018148
0.000172255
0.000201622
0.000201894
0.000191722
0.00019171
0.000181721
0.000172061
0.000201546
0.000200797
0.000191705
0.000191016
0.000200627
0.000191745
0.000191412
0.000180896
0.000171005
0.000200276
0.000191073
0.000191374
0.00017153
0.000171141
0.000179265
0.000190459
0.000190426
0.000190128
0.000190576
0.000170888
0.000179921
0.000190442
0.000189598
0.000190508
0.000193404
0.000190006
0.000191083
0.000193725
0.000169653
0.000182706
0.00018992
0.000194386
0.000194665
0.000182717
0.000183567
0.000206393
0.000201024
0.000201515
0.00022778
0.000227544
0.00018425
0.000206202
0.000201387
0.000204703
0.000227612
0.000227957
0.000204811
0.000227357
0.000227813
0.000187143
0.000207048
0.000205616
0.000227843
0.000227746
0.000206858
0.000208121
0.000211958
0.000231938
0.000231475
0.000242971
0.000242245
0.00020777
0.000210762
0.000231625
0.000231099
0.000242254
0.000238441
0.000230925
0.000241476
0.000238395
0.000208119
0.000203931
0.000230708
0.000237139
0.000237168
0.000204158
0.000206422
0.000166537
0.000239646
0.000238308
0.000191031
0.000190466
0.00020523
0.000166121
0.000238581
0.000228805
0.000191245
0.000188963
0.000228593
0.000190421
0.000187996
0.000197848
0.000165592
0.000226526
0.000188692
0.000187947
0.000164669
0.000161098
0.000145445
0.000178717
0.000178489
0.000163524
0.000163682
0.000160842
0.000145636
0.000179257
0.0001801
0.000164441
0.000169086
0.000179236
0.000164571
0.000168465
0.000162106
0.000153779
0.000179708
0.000170078
0.000169492
0.000153569
0.000145966
0.000189716
0.000159108
0.000159315
0.000199613
0.000200847
0.000146391
0.000190806
0.000160087
0.000166063
0.000199486
0.000203554
0.000165676
0.000200941
0.000203913
0.000155711
0.000192141
0.000166867
0.000204106
0.000204302
0.000192138
0.000197242
0.000226171
0.000219241
0.000220526
0.000252341
0.000253378
0.000198409
0.000227673
0.00021863
0.000219106
0.000250795
0.000243793
0.000219597
0.000252325
0.000245714
0.000197901
0.000218999
0.000219429
0.000242954
0.000244337
0.000219807
0.000227563
0.000207293
0.000257131
0.000258368
0.000249681
0.000248405
0.000229132
0.000206031
0.000255507
0.000248066
0.000247893
0.00023508
0.000249911
0.000247549
0.000240478
0.000219939
0.000196661
0.000248518
0.000233772
0.000238169
0.000200614
0.000198735
0.000168857
0.000229782
0.000228378
0.000191619
0.000191333
0.000197314
0.000168878
0.000228571
0.000219621
0.000192121
0.00019509
0.000223575
0.000191649
0.000194311
0.000190108
0.000172066
0.000222007
0.000195326
0.000194784
0.000171939
0.00016732
0.000172582
0.000187502
0.000187535
0.000182735
0.000183721
0.000167578
0.00017351
0.000188377
0.000192687
0.000184465
0.000197762
0.000191603
0.000184968
0.000192004
0.000170661
0.000186125
0.000192266
0.000199601
0.000194456
0.00018125
0.000177019
0.000201852
0.000191979
0.000192171
0.000222896
0.000219369
0.000177282
0.000197282
0.000194816
0.000207846
0.000223644
0.000225074
0.000201402
0.000218666
0.00021973
0.000189902
0.000203807
0.00020385
0.000224532
0.000220552
0.000198741
0.000203631
0.000205491
0.000227637
0.000224145
0.000235508
0.000231068
0.000198922
0.000203128
0.000227683
0.000227514
0.000234752
0.000224359
0.000221809
0.000229224
0.000224074
0.000204356
0.000192484
0.000222451
0.000222006
0.000222314
0.000193553
0.000201204
0.000179476
0.00023229
0.000231106
0.000205507
0.000211859
0.000201156
0.000186944
0.000229158
0.000214763
0.000203211
0.000197716
0.000218345
0.000211843
0.000205329
0.000188117
0.000174597
0.000215761
0.000197913
0.000203305
0.000180946
0.000177846
0.000176843
0.000201118
0.000207225
0.000196098
0.000201759
0.000185308
0.000181318
0.000199449
0.000196225
0.000195033
0.000197703
0.00020394
0.000202631
0.000202235
0.000173527
0.000182852
0.000202193
0.0001989
0.000201919
0.000184566
0.000179222
0.00019418
0.000197416
0.000201028
0.000214789
0.000208892
0.0001811
0.000187618
0.000198143
0.000205481
0.000216532
0.000220729
0.000206535
0.000209611
0.00021744
0.000185879
0.000198329
0.000207517
0.000221163
0.000219147
0.000196119
0.00019525
0.000196406
0.000217763
0.000211782
0.000221622
0.000215546
0.000188577
0.000191003
0.000219385
0.000222431
0.00022307
0.00022437
0.00021873
0.000215416
0.000220539
0.00019875
0.000195886
0.000220438
0.00022449
0.000222066
0.000193623
0.000194921
0.000186547
0.000220946
0.000215922
0.000211415
0.000213915
0.000190964
0.000189762
0.000221827
0.000220272
0.000211086
0.000209777
0.00021677
0.000213194
0.00020784
0.000193728
0.000185299
0.000217685
0.000209159
0.000207504
0.000183652
0.00018593
0.000185193
0.000209768
0.000212951
0.00020784
0.000211617
0.000189479
0.000188771
0.000209273
0.000208356
0.000207361
0.00020722
0.00020677
0.000211157
0.000205248
0.000184829
0.000185543
0.000206241
0.000206584
0.000204714
0.000184138
0.000185682
0.000191263
0.00020792
0.000211426
0.000213992
0.000212896
0.000188601
0.000189744
0.000207465
0.000208197
0.000213982
0.000214028
0.000207056
0.00021306
0.00021447
0.000186352
0.00019104
0.000206501
0.00021414
0.000214455
0.000191671
0.000191683
0.000195924
0.000215573
0.000214071
0.000218406
0.000216323
0.000189922
0.000193983
0.000215598
0.000215161
0.000218331
0.000216857
0.000216123
0.000216486
0.000218765
0.000191185
0.000194368
0.000216169
0.00021702
0.00021874
0.000196064
0.000197559
0.000218514
0.00021666
0.00019598
0.000218414
0.000216781
0.000237728
0.000238235
0.000240511
0.000218958
0.000195881
0.000218905
0.000234728
0.000234779
0.000234733
0.000234733
0.000235111
0.000234805
0.000234701
0.000234742
0.000235111
0.000234806
0.000234742
0.000234701
0.000234859
0.000233567
0.000233568
0.000104728
3.87616e-05
0.000129351
3.98355e-05
2.16916e-05
2.28358e-05
0.000104691
3.87576e-05
0.000129384
3.98323e-05
0.000233969
0.000233969
0.000233969
0.000232943
0.000232943
0.000232943
0.000232943
0.000206273
9.38644e-05
0.000233996
0.00023175
0.000222758
8.7317e-05
0.000233595
2.16909e-05
2.28351e-05
0.000206271
0.000233996
9.38632e-05
0.00023175
0.000222758
0.000233595
8.73208e-05
4.78467e-05
4.78372e-05
0.000231405
4.40453e-05
4.40307e-05
7.2548e-05
4.24352e-05
8.13597e-05
4.37631e-05
2.47743e-05
2.54623e-05
7.25339e-05
4.24302e-05
8.13687e-05
4.37595e-05
0.000232529
0.000232529