/*--------------------------------*- C++ -*----------------------------------*\
| =========                 |                                                 |
| \\      /  F ield         | OpenFOAM: The Open Source CFD Toolbox           |
|  \\    /   O peration     | Version:                                        |
|   \\  /    A nd           | Website:  www.openfoam.com                      |
|    \\/     M anipulation  |                                                 |
\*---------------------------------------------------------------------------*/
FoamFile
{
    version     2.0;
    format      ascii;
    class       volScalarField;
    location    "28100.5";
    object      p;
}
// * * * * * * * * * * * * * * * * * * * * * * * * * * * * * * * * * * * * * //

dimensions      [0 2 -2 0 0 0 0];


internalField   nonuniform List<scalar> 
247096
(
1.10655e-07
1.10658e-07
1.10801e-07
1.10888e-07
1.1092e-07
1.10879e-07
1.10788e-07
1.10634e-07
1.10658e-07
1.10856e-07
1.11033e-07
1.11126e-07
1.11149e-07
1.11119e-07
1.11015e-07
1.10832e-07
1.10801e-07
1.11033e-07
1.11173e-07
1.11215e-07
1.11222e-07
1.11213e-07
1.11163e-07
1.11006e-07
1.10774e-07
1.10888e-07
1.11126e-07
1.11215e-07
1.11227e-07
1.11226e-07
1.11227e-07
1.1121e-07
1.11104e-07
1.10855e-07
1.10655e-07
1.1092e-07
1.11149e-07
1.11222e-07
1.11226e-07
1.11222e-07
1.11226e-07
1.11219e-07
1.11129e-07
1.10886e-07
1.10879e-07
1.11119e-07
1.11213e-07
1.11227e-07
1.11226e-07
1.11227e-07
1.11208e-07
1.11096e-07
1.10846e-07
1.10788e-07
1.11015e-07
1.11163e-07
1.11211e-07
1.11219e-07
1.11208e-07
1.11151e-07
1.10987e-07
1.10762e-07
1.10634e-07
1.10832e-07
1.11006e-07
1.11104e-07
1.1113e-07
1.11096e-07
1.10987e-07
1.1081e-07
1.10774e-07
1.10855e-07
1.10886e-07
1.10846e-07
1.10762e-07
1.07841e-07
1.07817e-07
1.07826e-07
1.07676e-07
1.07689e-07
1.07708e-07
1.07688e-07
1.07875e-07
1.07812e-07
1.07826e-07
1.07697e-07
1.07492e-07
1.0751e-07
1.0751e-07
1.07492e-07
1.07754e-07
1.077e-07
1.07677e-07
1.07494e-07
1.07531e-07
1.07552e-07
1.07552e-07
1.07531e-07
1.07495e-07
1.07818e-07
1.07864e-07
1.07842e-07
1.0769e-07
1.07511e-07
1.07552e-07
1.07575e-07
1.07575e-07
1.07552e-07
1.07511e-07
1.07846e-07
1.07882e-07
1.07817e-07
1.07708e-07
1.07511e-07
1.07552e-07
1.07575e-07
1.07575e-07
1.07552e-07
1.07511e-07
1.07848e-07
1.07705e-07
1.07688e-07
1.07492e-07
1.07531e-07
1.07552e-07
1.07552e-07
1.07531e-07
1.07492e-07
1.07841e-07
1.07891e-07
1.07875e-07
1.07755e-07
1.07495e-07
1.07512e-07
1.07512e-07
1.07495e-07
1.07836e-07
1.0776e-07
1.07874e-07
1.07813e-07
1.07701e-07
1.07818e-07
1.07846e-07
1.07849e-07
1.07842e-07
1.0776e-07
1.07884e-07
1.07864e-07
1.07882e-07
1.07706e-07
1.07891e-07
1.07874e-07
1.06066e-07
1.06057e-07
1.06066e-07
1.05935e-07
1.05935e-07
1.05945e-07
1.05937e-07
1.061e-07
1.06056e-07
1.06066e-07
1.0593e-07
1.05697e-07
1.05705e-07
1.05705e-07
1.05697e-07
1.05953e-07
1.05947e-07
1.05935e-07
1.05697e-07
1.05717e-07
1.05728e-07
1.05728e-07
1.05717e-07
1.05697e-07
1.05998e-07
1.0609e-07
1.06066e-07
1.05935e-07
1.05705e-07
1.05728e-07
1.05741e-07
1.05741e-07
1.05728e-07
1.05705e-07
1.06002e-07
1.06087e-07
1.06057e-07
1.05945e-07
1.05705e-07
1.05728e-07
1.05741e-07
1.05741e-07
1.05728e-07
1.05705e-07
1.06001e-07
1.05954e-07
1.05937e-07
1.05697e-07
1.05717e-07
1.05728e-07
1.05728e-07
1.05717e-07
1.05697e-07
1.06005e-07
1.06095e-07
1.061e-07
1.05953e-07
1.05697e-07
1.05705e-07
1.05705e-07
1.05697e-07
1.05986e-07
1.05977e-07
1.061e-07
1.06057e-07
1.05947e-07
1.05998e-07
1.06003e-07
1.06001e-07
1.06005e-07
1.05976e-07
1.06103e-07
1.0609e-07
1.06087e-07
1.05955e-07
1.06095e-07
1.061e-07
1.04465e-07
1.04456e-07
1.04465e-07
1.04341e-07
1.0434e-07
1.04349e-07
1.04343e-07
1.04496e-07
1.04458e-07
1.04465e-07
1.04337e-07
1.04129e-07
1.04134e-07
1.04134e-07
1.04128e-07
1.04361e-07
1.04355e-07
1.04341e-07
1.04129e-07
1.0414e-07
1.04146e-07
1.04146e-07
1.0414e-07
1.04129e-07
1.04402e-07
1.04488e-07
1.04465e-07
1.0434e-07
1.04134e-07
1.04146e-07
1.04153e-07
1.04153e-07
1.04146e-07
1.04134e-07
1.04406e-07
1.04486e-07
1.04456e-07
1.04349e-07
1.04134e-07
1.04146e-07
1.04153e-07
1.04153e-07
1.04146e-07
1.04134e-07
1.04405e-07
1.0436e-07
1.04343e-07
1.04129e-07
1.0414e-07
1.04146e-07
1.04146e-07
1.0414e-07
1.04129e-07
1.04408e-07
1.04493e-07
1.04496e-07
1.04361e-07
1.04129e-07
1.04134e-07
1.04134e-07
1.04129e-07
1.0439e-07
1.04381e-07
1.04496e-07
1.04458e-07
1.04355e-07
1.04402e-07
1.04406e-07
1.04405e-07
1.04408e-07
1.04381e-07
1.04501e-07
1.04488e-07
1.04486e-07
1.0436e-07
1.04493e-07
1.04496e-07
1.02996e-07
1.02988e-07
1.02996e-07
1.02878e-07
1.02876e-07
1.02883e-07
1.02879e-07
1.03024e-07
1.0299e-07
1.02996e-07
1.02874e-07
1.02681e-07
1.02684e-07
1.02684e-07
1.02681e-07
1.02897e-07
1.02892e-07
1.02878e-07
1.02681e-07
1.02688e-07
1.02692e-07
1.02692e-07
1.02688e-07
1.02681e-07
1.02935e-07
1.03019e-07
1.02996e-07
1.02876e-07
1.02684e-07
1.02692e-07
1.02696e-07
1.02696e-07
1.02692e-07
1.02684e-07
1.02938e-07
1.03017e-07
1.02988e-07
1.02883e-07
1.02684e-07
1.02692e-07
1.02696e-07
1.02696e-07
1.02692e-07
1.02684e-07
1.02936e-07
1.02897e-07
1.02879e-07
1.02681e-07
1.02688e-07
1.02692e-07
1.02692e-07
1.02688e-07
1.02681e-07
1.02939e-07
1.03023e-07
1.03024e-07
1.02897e-07
1.02681e-07
1.02684e-07
1.02684e-07
1.02681e-07
1.02923e-07
1.02916e-07
1.03025e-07
1.0299e-07
1.02892e-07
1.02935e-07
1.02938e-07
1.02936e-07
1.02939e-07
1.02916e-07
1.0303e-07
1.03019e-07
1.03017e-07
1.02897e-07
1.03023e-07
1.03025e-07
1.01627e-07
1.01618e-07
1.01626e-07
1.01513e-07
1.0151e-07
1.01516e-07
1.01512e-07
1.01651e-07
1.01621e-07
1.01626e-07
1.01508e-07
1.01327e-07
1.01329e-07
1.01329e-07
1.01327e-07
1.0153e-07
1.01527e-07
1.01513e-07
1.01327e-07
1.01332e-07
1.01334e-07
1.01334e-07
1.01332e-07
1.01327e-07
1.01567e-07
1.01649e-07
1.01627e-07
1.0151e-07
1.01329e-07
1.01334e-07
1.01337e-07
1.01337e-07
1.01334e-07
1.01329e-07
1.01568e-07
1.01647e-07
1.01618e-07
1.01516e-07
1.01329e-07
1.01334e-07
1.01337e-07
1.01337e-07
1.01334e-07
1.01329e-07
1.01567e-07
1.01531e-07
1.01512e-07
1.01327e-07
1.01332e-07
1.01334e-07
1.01334e-07
1.01332e-07
1.01327e-07
1.0157e-07
1.01652e-07
1.01651e-07
1.0153e-07
1.01327e-07
1.01329e-07
1.01329e-07
1.01327e-07
1.01554e-07
1.01549e-07
1.01654e-07
1.01621e-07
1.01527e-07
1.01567e-07
1.01568e-07
1.01567e-07
1.0157e-07
1.01549e-07
1.01659e-07
1.01649e-07
1.01647e-07
1.01531e-07
1.01652e-07
1.01654e-07
1.00339e-07
1.00331e-07
1.00338e-07
1.0023e-07
1.00226e-07
1.00231e-07
1.00228e-07
1.00362e-07
1.00335e-07
1.00338e-07
1.00224e-07
1.00054e-07
1.00055e-07
1.00055e-07
1.00054e-07
1.00246e-07
1.00244e-07
1.0023e-07
1.00054e-07
1.00058e-07
1.00059e-07
1.00059e-07
1.00058e-07
1.00054e-07
1.00282e-07
1.00361e-07
1.00339e-07
1.00226e-07
1.00055e-07
1.00059e-07
1.00061e-07
1.00061e-07
1.00059e-07
1.00055e-07
1.00283e-07
1.00359e-07
1.00331e-07
1.00231e-07
1.00055e-07
1.00059e-07
1.00061e-07
1.00061e-07
1.00059e-07
1.00055e-07
1.00281e-07
1.00248e-07
1.00228e-07
1.00054e-07
1.00058e-07
1.00059e-07
1.00059e-07
1.00058e-07
1.00054e-07
1.00284e-07
1.00364e-07
1.00362e-07
1.00246e-07
1.00054e-07
1.00055e-07
1.00055e-07
1.00054e-07
1.00269e-07
1.00264e-07
1.00365e-07
1.00335e-07
1.00244e-07
1.00282e-07
1.00283e-07
1.00281e-07
1.00284e-07
1.00264e-07
1.00371e-07
1.00361e-07
1.00359e-07
1.00248e-07
1.00364e-07
1.00365e-07
9.91187e-08
9.91102e-08
9.91175e-08
9.90116e-08
9.90078e-08
9.90123e-08
9.90096e-08
9.91402e-08
9.91143e-08
9.91175e-08
9.90055e-08
9.88442e-08
9.88452e-08
9.88452e-08
9.88442e-08
9.90274e-08
9.90259e-08
9.90116e-08
9.88442e-08
9.88474e-08
9.88477e-08
9.88477e-08
9.88474e-08
9.88442e-08
9.9064e-08
9.91402e-08
9.91187e-08
9.90078e-08
9.88452e-08
9.88477e-08
9.88487e-08
9.88487e-08
9.88477e-08
9.88452e-08
9.9064e-08
9.91382e-08
9.91102e-08
9.90123e-08
9.88452e-08
9.88477e-08
9.88487e-08
9.88487e-08
9.88477e-08
9.88452e-08
9.90622e-08
9.90296e-08
9.90096e-08
9.88442e-08
9.88474e-08
9.88477e-08
9.88477e-08
9.88474e-08
9.88442e-08
9.90647e-08
9.91426e-08
9.91402e-08
9.90274e-08
9.88442e-08
9.88452e-08
9.88452e-08
9.88442e-08
9.90504e-08
9.90455e-08
9.91431e-08
9.91142e-08
9.90259e-08
9.9064e-08
9.9064e-08
9.90622e-08
9.90647e-08
9.90455e-08
9.91494e-08
9.91402e-08
9.91382e-08
9.90296e-08
9.91426e-08
9.91431e-08
9.79429e-08
9.79344e-08
9.79417e-08
9.78375e-08
9.78336e-08
9.78376e-08
9.78352e-08
9.79636e-08
9.79388e-08
9.79417e-08
9.78312e-08
9.76756e-08
9.76763e-08
9.76763e-08
9.76756e-08
9.78533e-08
9.78519e-08
9.78375e-08
9.76755e-08
9.76784e-08
9.76781e-08
9.76781e-08
9.76784e-08
9.76755e-08
9.78901e-08
9.79643e-08
9.79429e-08
9.78335e-08
9.76763e-08
9.76781e-08
9.76784e-08
9.76784e-08
9.76781e-08
9.76763e-08
9.78898e-08
9.79623e-08
9.79343e-08
9.78376e-08
9.76763e-08
9.76781e-08
9.76783e-08
9.76783e-08
9.76781e-08
9.76763e-08
9.78879e-08
9.78555e-08
9.78351e-08
9.76755e-08
9.76784e-08
9.76781e-08
9.76781e-08
9.76784e-08
9.76755e-08
9.789e-08
9.79664e-08
9.79636e-08
9.78533e-08
9.76755e-08
9.76763e-08
9.76763e-08
9.76755e-08
9.78763e-08
9.7871e-08
9.79667e-08
9.79388e-08
9.78519e-08
9.78901e-08
9.78898e-08
9.78879e-08
9.789e-08
9.7871e-08
9.79734e-08
9.79643e-08
9.79622e-08
9.78554e-08
9.79664e-08
9.79667e-08
9.67918e-08
9.67832e-08
9.67906e-08
9.66874e-08
9.66832e-08
9.6687e-08
9.66848e-08
9.68122e-08
9.67879e-08
9.67903e-08
9.66809e-08
9.65281e-08
9.65286e-08
9.65286e-08
9.65281e-08
9.67032e-08
9.67011e-08
9.66872e-08
9.6528e-08
9.65308e-08
9.65301e-08
9.65301e-08
9.65308e-08
9.6528e-08
9.67401e-08
9.6813e-08
9.67917e-08
9.66831e-08
9.65286e-08
9.653e-08
9.65299e-08
9.65299e-08
9.653e-08
9.65286e-08
9.67398e-08
9.68111e-08
9.67831e-08
9.6687e-08
9.65286e-08
9.653e-08
9.65298e-08
9.65298e-08
9.653e-08
9.65286e-08
9.67378e-08
9.67052e-08
9.66847e-08
9.6528e-08
9.65308e-08
9.653e-08
9.653e-08
9.65308e-08
9.6528e-08
9.67397e-08
9.68151e-08
9.68122e-08
9.67032e-08
9.65279e-08
9.65285e-08
9.65285e-08
9.6528e-08
9.67261e-08
9.67208e-08
9.68153e-08
9.67878e-08
9.6701e-08
9.674e-08
9.67397e-08
9.67377e-08
9.67395e-08
9.67203e-08
9.68222e-08
9.6813e-08
9.6811e-08
9.67051e-08
9.68149e-08
9.68151e-08
9.56515e-08
9.56429e-08
9.56503e-08
9.55475e-08
9.55432e-08
9.5547e-08
9.55446e-08
9.56716e-08
9.56474e-08
9.565e-08
9.55409e-08
9.53892e-08
9.53897e-08
9.53897e-08
9.53892e-08
9.55632e-08
9.55624e-08
9.55473e-08
9.53892e-08
9.53921e-08
9.5391e-08
9.5391e-08
9.53921e-08
9.53892e-08
9.56006e-08
9.56729e-08
9.56514e-08
9.55431e-08
9.53897e-08
9.5391e-08
9.53906e-08
9.53906e-08
9.5391e-08
9.53897e-08
9.56001e-08
9.56709e-08
9.56428e-08
9.55469e-08
9.53897e-08
9.5391e-08
9.53905e-08
9.53906e-08
9.5391e-08
9.53897e-08
9.5598e-08
9.55653e-08
9.55447e-08
9.53892e-08
9.5392e-08
9.5391e-08
9.5391e-08
9.53921e-08
9.53892e-08
9.55998e-08
9.56748e-08
9.56718e-08
9.55633e-08
9.53891e-08
9.53896e-08
9.53896e-08
9.53891e-08
9.55863e-08
9.55809e-08
9.5675e-08
9.56476e-08
9.55612e-08
9.56003e-08
9.55999e-08
9.55979e-08
9.55996e-08
9.55804e-08
9.56819e-08
9.56727e-08
9.56707e-08
9.55652e-08
9.56746e-08
9.56747e-08
9.45151e-08
9.45065e-08
9.45139e-08
9.44112e-08
9.4407e-08
9.44107e-08
9.44085e-08
9.45354e-08
9.45113e-08
9.45136e-08
9.44047e-08
9.42532e-08
9.42538e-08
9.42538e-08
9.42533e-08
9.44271e-08
9.44251e-08
9.4411e-08
9.42532e-08
9.42564e-08
9.4255e-08
9.4255e-08
9.42564e-08
9.42532e-08
9.44643e-08
9.45364e-08
9.4515e-08
9.44068e-08
9.42537e-08
9.4255e-08
9.42544e-08
9.42545e-08
9.4255e-08
9.42537e-08
9.44639e-08
9.45344e-08
9.45064e-08
9.44106e-08
9.42537e-08
9.4255e-08
9.42544e-08
9.42544e-08
9.4255e-08
9.42537e-08
9.44618e-08
9.4429e-08
9.44084e-08
9.42532e-08
9.42563e-08
9.4255e-08
9.4255e-08
9.42563e-08
9.42532e-08
9.44635e-08
9.45384e-08
9.45353e-08
9.4427e-08
9.42531e-08
9.42536e-08
9.42536e-08
9.42531e-08
9.445e-08
9.44446e-08
9.45385e-08
9.45112e-08
9.4425e-08
9.44642e-08
9.44638e-08
9.44617e-08
9.44634e-08
9.44441e-08
9.45455e-08
9.45363e-08
9.45343e-08
9.44289e-08
9.45382e-08
9.45383e-08
9.33799e-08
9.33713e-08
9.33787e-08
9.3276e-08
9.32717e-08
9.32755e-08
9.32732e-08
9.34001e-08
9.3376e-08
9.33784e-08
9.32695e-08
9.31182e-08
9.31186e-08
9.31186e-08
9.31182e-08
9.32919e-08
9.32898e-08
9.32758e-08
9.31181e-08
9.31211e-08
9.31199e-08
9.31199e-08
9.31211e-08
9.31181e-08
9.33291e-08
9.34011e-08
9.33797e-08
9.32716e-08
9.31186e-08
9.31199e-08
9.31193e-08
9.31193e-08
9.31199e-08
9.31186e-08
9.33287e-08
9.33992e-08
9.33712e-08
9.32754e-08
9.31186e-08
9.31199e-08
9.31192e-08
9.31193e-08
9.31199e-08
9.31186e-08
9.33266e-08
9.32938e-08
9.32732e-08
9.31181e-08
9.31211e-08
9.31198e-08
9.31199e-08
9.31211e-08
9.31181e-08
9.33283e-08
9.34031e-08
9.34001e-08
9.32918e-08
9.31181e-08
9.31185e-08
9.31185e-08
9.31181e-08
9.33148e-08
9.33094e-08
9.34033e-08
9.33759e-08
9.32898e-08
9.3329e-08
9.33286e-08
9.33265e-08
9.33281e-08
9.33089e-08
9.34103e-08
9.3401e-08
9.33991e-08
9.32937e-08
9.34029e-08
9.3403e-08
9.22449e-08
9.22363e-08
9.22437e-08
9.2141e-08
9.21368e-08
9.21405e-08
9.21382e-08
9.2265e-08
9.22409e-08
9.22434e-08
9.21345e-08
9.19833e-08
9.19837e-08
9.19837e-08
9.19832e-08
9.21568e-08
9.2156e-08
9.21408e-08
9.19832e-08
9.19861e-08
9.1985e-08
9.1985e-08
9.19862e-08
9.19832e-08
9.21943e-08
9.22663e-08
9.22448e-08
9.21367e-08
9.19836e-08
9.1985e-08
9.19843e-08
9.19843e-08
9.1985e-08
9.19837e-08
9.21938e-08
9.22643e-08
9.22362e-08
9.21404e-08
9.19836e-08
9.19849e-08
9.19843e-08
9.19843e-08
9.1985e-08
9.19837e-08
9.21917e-08
9.21589e-08
9.21382e-08
9.19832e-08
9.19861e-08
9.19849e-08
9.19849e-08
9.19861e-08
9.19832e-08
9.21934e-08
9.22682e-08
9.22651e-08
9.21568e-08
9.19831e-08
9.19836e-08
9.19836e-08
9.19831e-08
9.21799e-08
9.21744e-08
9.22683e-08
9.2241e-08
9.21548e-08
9.2194e-08
9.21936e-08
9.21915e-08
9.21932e-08
9.21739e-08
9.22753e-08
9.22661e-08
9.22641e-08
9.21587e-08
9.2268e-08
9.22681e-08
9.111e-08
9.11014e-08
9.11088e-08
9.10061e-08
9.10019e-08
9.10056e-08
9.10034e-08
9.11303e-08
9.11062e-08
9.11085e-08
9.09996e-08
9.08484e-08
9.08488e-08
9.08488e-08
9.08484e-08
9.1022e-08
9.102e-08
9.10059e-08
9.08483e-08
9.08512e-08
9.08501e-08
9.08501e-08
9.08513e-08
9.08483e-08
9.10592e-08
9.11313e-08
9.11099e-08
9.10018e-08
9.08487e-08
9.08501e-08
9.08494e-08
9.08494e-08
9.08501e-08
9.08487e-08
9.10588e-08
9.11293e-08
9.11013e-08
9.10055e-08
9.08487e-08
9.08501e-08
9.08494e-08
9.08494e-08
9.08501e-08
9.08487e-08
9.10568e-08
9.1024e-08
9.10033e-08
9.08483e-08
9.08512e-08
9.085e-08
9.085e-08
9.08512e-08
9.08483e-08
9.10585e-08
9.11333e-08
9.11302e-08
9.10219e-08
9.08483e-08
9.08487e-08
9.08487e-08
9.08483e-08
9.1045e-08
9.10395e-08
9.11334e-08
9.11061e-08
9.10199e-08
9.10591e-08
9.10587e-08
9.10566e-08
9.10583e-08
9.1039e-08
9.11404e-08
9.11312e-08
9.11292e-08
9.10238e-08
9.11331e-08
9.11332e-08
8.99751e-08
8.99665e-08
8.99739e-08
8.98712e-08
8.9867e-08
8.98707e-08
8.98685e-08
8.99954e-08
8.99713e-08
8.99736e-08
8.98647e-08
8.97135e-08
8.97139e-08
8.97139e-08
8.97135e-08
8.98871e-08
8.98851e-08
8.9871e-08
8.97134e-08
8.97163e-08
8.97152e-08
8.97152e-08
8.97164e-08
8.97134e-08
8.99243e-08
8.99964e-08
8.9975e-08
8.98669e-08
8.97138e-08
8.97152e-08
8.97145e-08
8.97145e-08
8.97152e-08
8.97138e-08
8.99239e-08
8.99944e-08
8.99664e-08
8.98706e-08
8.97138e-08
8.97152e-08
8.97145e-08
8.97145e-08
8.97152e-08
8.97138e-08
8.99219e-08
8.98891e-08
8.98684e-08
8.97134e-08
8.97163e-08
8.97152e-08
8.97152e-08
8.97163e-08
8.97134e-08
8.99236e-08
8.99983e-08
8.99953e-08
8.98871e-08
8.97134e-08
8.97138e-08
8.97138e-08
8.97134e-08
8.99101e-08
8.99046e-08
8.99985e-08
8.99712e-08
8.9885e-08
8.99243e-08
8.99239e-08
8.99218e-08
8.99234e-08
8.99042e-08
9.00055e-08
8.99963e-08
8.99944e-08
8.9889e-08
8.99982e-08
8.99983e-08
8.88402e-08
8.88316e-08
8.8839e-08
8.87363e-08
8.87321e-08
8.87358e-08
8.87335e-08
8.88602e-08
8.88362e-08
8.88387e-08
8.87298e-08
8.85785e-08
8.8579e-08
8.85789e-08
8.85785e-08
8.87521e-08
8.87513e-08
8.87361e-08
8.85785e-08
8.85814e-08
8.85803e-08
8.85803e-08
8.85815e-08
8.85786e-08
8.87896e-08
8.88616e-08
8.884e-08
8.87319e-08
8.85789e-08
8.85803e-08
8.85796e-08
8.85796e-08
8.85803e-08
8.8579e-08
8.87891e-08
8.88596e-08
8.88314e-08
8.87357e-08
8.85789e-08
8.85803e-08
8.85796e-08
8.85796e-08
8.85803e-08
8.8579e-08
8.8787e-08
8.87542e-08
8.87334e-08
8.85785e-08
8.85814e-08
8.85803e-08
8.85803e-08
8.85815e-08
8.85785e-08
8.87886e-08
8.88634e-08
8.88602e-08
8.8752e-08
8.85785e-08
8.8579e-08
8.8579e-08
8.85786e-08
8.87752e-08
8.87693e-08
8.88635e-08
8.88361e-08
8.87513e-08
8.87896e-08
8.87891e-08
8.8787e-08
8.87887e-08
8.87698e-08
8.88707e-08
8.88616e-08
8.88596e-08
8.87542e-08
8.88635e-08
8.88636e-08
8.77053e-08
8.76966e-08
8.77041e-08
8.76014e-08
8.75971e-08
8.76009e-08
8.75986e-08
8.77253e-08
8.77013e-08
8.77038e-08
8.75949e-08
8.74437e-08
8.74441e-08
8.74441e-08
8.74436e-08
8.76172e-08
8.76164e-08
8.76012e-08
8.74436e-08
8.74465e-08
8.74454e-08
8.74454e-08
8.74466e-08
8.74437e-08
8.76548e-08
8.77268e-08
8.77051e-08
8.7597e-08
8.7444e-08
8.74454e-08
8.74447e-08
8.74447e-08
8.74454e-08
8.74441e-08
8.76542e-08
8.77247e-08
8.76965e-08
8.76008e-08
8.7444e-08
8.74454e-08
8.74447e-08
8.74447e-08
8.74454e-08
8.74441e-08
8.76521e-08
8.76194e-08
8.75985e-08
8.74436e-08
8.74465e-08
8.74454e-08
8.74454e-08
8.74466e-08
8.74437e-08
8.76538e-08
8.77286e-08
8.77253e-08
8.76171e-08
8.74436e-08
8.7444e-08
8.7444e-08
8.74436e-08
8.76403e-08
8.76349e-08
8.77288e-08
8.77012e-08
8.76164e-08
8.76547e-08
8.76542e-08
8.7652e-08
8.76537e-08
8.76344e-08
8.77358e-08
8.77267e-08
8.77247e-08
8.76192e-08
8.77285e-08
8.77286e-08
8.65704e-08
8.65618e-08
8.65692e-08
8.64665e-08
8.64623e-08
8.6466e-08
8.64637e-08
8.65905e-08
8.65664e-08
8.65689e-08
8.646e-08
8.63088e-08
8.63092e-08
8.63092e-08
8.63088e-08
8.64823e-08
8.64815e-08
8.64663e-08
8.63087e-08
8.63117e-08
8.63105e-08
8.63105e-08
8.63117e-08
8.63088e-08
8.65199e-08
8.65919e-08
8.65703e-08
8.64622e-08
8.63091e-08
8.63105e-08
8.63098e-08
8.63098e-08
8.63105e-08
8.63092e-08
8.65193e-08
8.65899e-08
8.65617e-08
8.64659e-08
8.63092e-08
8.63105e-08
8.63098e-08
8.63098e-08
8.63105e-08
8.63092e-08
8.65172e-08
8.64845e-08
8.64637e-08
8.63087e-08
8.63116e-08
8.63105e-08
8.63105e-08
8.63117e-08
8.63088e-08
8.65189e-08
8.65937e-08
8.65906e-08
8.64824e-08
8.63087e-08
8.63091e-08
8.63091e-08
8.63087e-08
8.65054e-08
8.65e-08
8.65939e-08
8.65665e-08
8.64803e-08
8.65196e-08
8.65192e-08
8.65171e-08
8.65187e-08
8.64995e-08
8.66009e-08
8.65916e-08
8.65897e-08
8.64843e-08
8.65935e-08
8.65936e-08
8.54355e-08
8.54269e-08
8.54343e-08
8.53317e-08
8.53274e-08
8.53312e-08
8.53289e-08
8.54558e-08
8.54317e-08
8.54341e-08
8.53251e-08
8.51739e-08
8.51743e-08
8.51743e-08
8.51739e-08
8.53476e-08
8.53455e-08
8.53315e-08
8.51738e-08
8.51768e-08
8.51756e-08
8.51756e-08
8.51768e-08
8.51739e-08
8.53848e-08
8.54569e-08
8.54354e-08
8.53273e-08
8.51743e-08
8.51756e-08
8.5175e-08
8.5175e-08
8.51756e-08
8.51743e-08
8.53844e-08
8.54549e-08
8.54268e-08
8.53311e-08
8.51743e-08
8.51756e-08
8.51749e-08
8.5175e-08
8.51756e-08
8.51743e-08
8.53823e-08
8.53495e-08
8.53289e-08
8.51739e-08
8.51768e-08
8.51756e-08
8.51756e-08
8.51768e-08
8.51739e-08
8.5384e-08
8.54588e-08
8.54557e-08
8.53475e-08
8.51738e-08
8.51742e-08
8.51742e-08
8.51738e-08
8.53705e-08
8.53651e-08
8.5459e-08
8.54316e-08
8.53455e-08
8.53847e-08
8.53843e-08
8.53822e-08
8.53838e-08
8.53646e-08
8.5466e-08
8.54567e-08
8.54548e-08
8.53494e-08
8.54586e-08
8.54587e-08
8.43006e-08
8.4292e-08
8.42995e-08
8.41968e-08
8.41925e-08
8.41962e-08
8.41939e-08
8.43207e-08
8.42966e-08
8.42992e-08
8.41903e-08
8.4039e-08
8.40394e-08
8.40394e-08
8.4039e-08
8.42125e-08
8.42118e-08
8.41966e-08
8.4039e-08
8.40419e-08
8.40408e-08
8.40408e-08
8.40419e-08
8.4039e-08
8.42501e-08
8.43221e-08
8.43005e-08
8.41924e-08
8.40394e-08
8.40407e-08
8.40401e-08
8.40401e-08
8.40408e-08
8.40395e-08
8.42496e-08
8.43201e-08
8.4292e-08
8.41962e-08
8.40394e-08
8.40407e-08
8.40401e-08
8.40401e-08
8.40408e-08
8.40394e-08
8.42475e-08
8.42147e-08
8.4194e-08
8.4039e-08
8.40419e-08
8.40407e-08
8.40407e-08
8.40419e-08
8.4039e-08
8.42492e-08
8.4324e-08
8.43209e-08
8.42126e-08
8.40389e-08
8.40394e-08
8.40394e-08
8.4039e-08
8.42357e-08
8.42302e-08
8.43241e-08
8.42967e-08
8.42106e-08
8.42498e-08
8.42494e-08
8.42473e-08
8.4249e-08
8.42297e-08
8.43311e-08
8.43219e-08
8.43199e-08
8.42145e-08
8.43238e-08
8.43239e-08
8.31657e-08
8.31571e-08
8.31646e-08
8.30619e-08
8.30576e-08
8.30613e-08
8.3059e-08
8.31858e-08
8.31617e-08
8.31643e-08
8.30554e-08
8.29041e-08
8.29045e-08
8.29045e-08
8.29041e-08
8.30777e-08
8.30769e-08
8.30617e-08
8.29041e-08
8.2907e-08
8.29059e-08
8.29059e-08
8.29071e-08
8.29042e-08
8.31153e-08
8.31873e-08
8.31657e-08
8.30576e-08
8.29045e-08
8.29059e-08
8.29052e-08
8.29052e-08
8.29059e-08
8.29046e-08
8.31147e-08
8.31852e-08
8.31571e-08
8.30613e-08
8.29045e-08
8.29059e-08
8.29052e-08
8.29052e-08
8.29059e-08
8.29046e-08
8.31126e-08
8.30798e-08
8.30591e-08
8.29041e-08
8.2907e-08
8.29058e-08
8.29059e-08
8.2907e-08
8.29042e-08
8.31143e-08
8.31891e-08
8.3186e-08
8.30777e-08
8.29041e-08
8.29045e-08
8.29045e-08
8.29041e-08
8.31008e-08
8.30953e-08
8.31893e-08
8.31619e-08
8.30757e-08
8.31149e-08
8.31145e-08
8.31125e-08
8.31141e-08
8.30949e-08
8.31962e-08
8.3187e-08
8.3185e-08
8.30796e-08
8.31889e-08
8.3189e-08
8.20309e-08
8.20222e-08
8.20297e-08
8.1927e-08
8.19227e-08
8.19264e-08
8.19242e-08
8.20509e-08
8.20269e-08
8.20294e-08
8.19205e-08
8.17693e-08
8.17697e-08
8.17697e-08
8.17692e-08
8.19428e-08
8.1942e-08
8.19269e-08
8.17692e-08
8.17722e-08
8.1771e-08
8.1771e-08
8.17722e-08
8.17693e-08
8.19804e-08
8.20524e-08
8.20308e-08
8.19227e-08
8.17697e-08
8.1771e-08
8.17703e-08
8.17703e-08
8.1771e-08
8.17697e-08
8.19798e-08
8.20504e-08
8.20222e-08
8.19265e-08
8.17697e-08
8.1771e-08
8.17703e-08
8.17703e-08
8.1771e-08
8.17697e-08
8.19777e-08
8.1945e-08
8.19242e-08
8.17692e-08
8.17721e-08
8.1771e-08
8.1771e-08
8.17722e-08
8.17693e-08
8.19794e-08
8.20542e-08
8.20511e-08
8.19429e-08
8.17692e-08
8.17696e-08
8.17696e-08
8.17692e-08
8.19659e-08
8.19605e-08
8.20544e-08
8.2027e-08
8.19408e-08
8.19801e-08
8.19797e-08
8.19776e-08
8.19792e-08
8.196e-08
8.20614e-08
8.20521e-08
8.20501e-08
8.19448e-08
8.2054e-08
8.20541e-08
8.08959e-08
8.08873e-08
8.08945e-08
8.0792e-08
8.07878e-08
8.07915e-08
8.07893e-08
8.0916e-08
8.0892e-08
8.08948e-08
8.07856e-08
8.06343e-08
8.06348e-08
8.06348e-08
8.06343e-08
8.08079e-08
8.08071e-08
8.07921e-08
8.06344e-08
8.06373e-08
8.06361e-08
8.06361e-08
8.06373e-08
8.06344e-08
8.08455e-08
8.09175e-08
8.0896e-08
8.07879e-08
8.06348e-08
8.06361e-08
8.06354e-08
8.06355e-08
8.06361e-08
8.06348e-08
8.0845e-08
8.09155e-08
8.08874e-08
8.07916e-08
8.06348e-08
8.06361e-08
8.06354e-08
8.06355e-08
8.06361e-08
8.06348e-08
8.08429e-08
8.08101e-08
8.07894e-08
8.06344e-08
8.06373e-08
8.06361e-08
8.06361e-08
8.06373e-08
8.06344e-08
8.08446e-08
8.09193e-08
8.09163e-08
8.0808e-08
8.06343e-08
8.06347e-08
8.06347e-08
8.06343e-08
8.08311e-08
8.08256e-08
8.09195e-08
8.08921e-08
8.0806e-08
8.08452e-08
8.08448e-08
8.08427e-08
8.08444e-08
8.08251e-08
8.09265e-08
8.09173e-08
8.09153e-08
8.08099e-08
8.09192e-08
8.09192e-08
7.97611e-08
7.97525e-08
7.97599e-08
7.96572e-08
7.9653e-08
7.96567e-08
7.96544e-08
7.97812e-08
7.97571e-08
7.97596e-08
7.96507e-08
7.94995e-08
7.94999e-08
7.94999e-08
7.94995e-08
7.9673e-08
7.96723e-08
7.96571e-08
7.94994e-08
7.95024e-08
7.95012e-08
7.95012e-08
7.95024e-08
7.94995e-08
7.97106e-08
7.97826e-08
7.9761e-08
7.96529e-08
7.94999e-08
7.95012e-08
7.95006e-08
7.95006e-08
7.95013e-08
7.94999e-08
7.97101e-08
7.97806e-08
7.97524e-08
7.96566e-08
7.94999e-08
7.95012e-08
7.95006e-08
7.95006e-08
7.95013e-08
7.94999e-08
7.9708e-08
7.96752e-08
7.96544e-08
7.94994e-08
7.95024e-08
7.95012e-08
7.95012e-08
7.95024e-08
7.94995e-08
7.97097e-08
7.97845e-08
7.97811e-08
7.9673e-08
7.94995e-08
7.94999e-08
7.94999e-08
7.94995e-08
7.96962e-08
7.96907e-08
7.97846e-08
7.9757e-08
7.96722e-08
7.97106e-08
7.971e-08
7.97079e-08
7.97095e-08
7.96903e-08
7.97916e-08
7.97826e-08
7.97805e-08
7.96751e-08
7.97843e-08
7.97844e-08
7.86262e-08
7.86176e-08
7.8625e-08
7.85224e-08
7.85181e-08
7.85218e-08
7.85195e-08
7.86463e-08
7.86222e-08
7.86248e-08
7.85158e-08
7.83646e-08
7.8365e-08
7.8365e-08
7.83646e-08
7.85381e-08
7.85374e-08
7.85222e-08
7.83646e-08
7.83675e-08
7.83664e-08
7.83664e-08
7.83675e-08
7.83646e-08
7.85757e-08
7.86477e-08
7.86261e-08
7.8518e-08
7.8365e-08
7.83663e-08
7.83657e-08
7.83657e-08
7.83664e-08
7.8365e-08
7.85751e-08
7.86457e-08
7.86175e-08
7.85217e-08
7.8365e-08
7.83663e-08
7.83657e-08
7.83657e-08
7.83664e-08
7.8365e-08
7.8573e-08
7.85402e-08
7.85195e-08
7.83646e-08
7.83675e-08
7.83664e-08
7.83664e-08
7.83675e-08
7.83646e-08
7.85746e-08
7.86495e-08
7.86462e-08
7.85381e-08
7.83646e-08
7.8365e-08
7.8365e-08
7.83646e-08
7.85613e-08
7.85554e-08
7.86495e-08
7.86222e-08
7.85373e-08
7.85757e-08
7.85752e-08
7.85731e-08
7.85748e-08
7.85558e-08
7.86567e-08
7.86477e-08
7.86457e-08
7.85403e-08
7.86495e-08
7.86497e-08
7.74914e-08
7.74828e-08
7.74902e-08
7.73875e-08
7.73833e-08
7.7387e-08
7.73848e-08
7.75117e-08
7.74875e-08
7.74899e-08
7.7381e-08
7.72297e-08
7.72302e-08
7.72302e-08
7.72297e-08
7.74034e-08
7.74014e-08
7.73873e-08
7.72297e-08
7.72326e-08
7.72315e-08
7.72315e-08
7.72326e-08
7.72297e-08
7.74406e-08
7.75126e-08
7.74913e-08
7.73831e-08
7.72301e-08
7.72315e-08
7.72308e-08
7.72308e-08
7.72315e-08
7.72301e-08
7.74402e-08
7.75107e-08
7.74827e-08
7.73869e-08
7.72301e-08
7.72315e-08
7.72308e-08
7.72308e-08
7.72315e-08
7.72301e-08
7.74381e-08
7.74053e-08
7.73847e-08
7.72297e-08
7.72326e-08
7.72314e-08
7.72315e-08
7.72326e-08
7.72297e-08
7.74397e-08
7.75145e-08
7.75116e-08
7.74033e-08
7.72297e-08
7.72301e-08
7.72301e-08
7.72297e-08
7.74264e-08
7.74204e-08
7.75146e-08
7.74875e-08
7.74013e-08
7.74406e-08
7.74402e-08
7.74381e-08
7.74398e-08
7.74209e-08
7.75218e-08
7.75126e-08
7.75107e-08
7.74053e-08
7.75146e-08
7.75148e-08
7.63565e-08
7.63479e-08
7.63553e-08
7.62526e-08
7.62484e-08
7.62521e-08
7.62499e-08
7.63768e-08
7.63526e-08
7.6355e-08
7.62461e-08
7.60949e-08
7.60953e-08
7.60953e-08
7.60949e-08
7.62685e-08
7.62665e-08
7.62524e-08
7.60948e-08
7.60977e-08
7.60966e-08
7.60966e-08
7.60977e-08
7.60948e-08
7.63057e-08
7.63778e-08
7.63564e-08
7.62483e-08
7.60952e-08
7.60966e-08
7.60959e-08
7.60959e-08
7.60966e-08
7.60952e-08
7.63053e-08
7.63758e-08
7.63478e-08
7.6252e-08
7.60952e-08
7.60966e-08
7.60959e-08
7.60959e-08
7.60966e-08
7.60952e-08
7.63032e-08
7.62705e-08
7.62498e-08
7.60948e-08
7.60977e-08
7.60965e-08
7.60965e-08
7.60977e-08
7.60948e-08
7.63049e-08
7.63797e-08
7.63767e-08
7.62685e-08
7.60948e-08
7.60952e-08
7.60952e-08
7.60948e-08
7.62915e-08
7.6286e-08
7.63799e-08
7.63526e-08
7.62664e-08
7.63057e-08
7.63053e-08
7.63032e-08
7.63048e-08
7.62855e-08
7.63869e-08
7.63777e-08
7.63757e-08
7.62704e-08
7.63796e-08
7.63797e-08
7.52216e-08
7.52129e-08
7.52204e-08
7.51177e-08
7.51134e-08
7.51171e-08
7.51148e-08
7.52416e-08
7.52175e-08
7.52201e-08
7.51112e-08
7.49599e-08
7.49603e-08
7.49603e-08
7.49599e-08
7.51335e-08
7.51327e-08
7.51175e-08
7.49599e-08
7.49628e-08
7.49617e-08
7.49617e-08
7.49628e-08
7.496e-08
7.5171e-08
7.5243e-08
7.52215e-08
7.51134e-08
7.49603e-08
7.49617e-08
7.4961e-08
7.4961e-08
7.49617e-08
7.49604e-08
7.51705e-08
7.5241e-08
7.52129e-08
7.51171e-08
7.49603e-08
7.49617e-08
7.4961e-08
7.4961e-08
7.49617e-08
7.49604e-08
7.51684e-08
7.51356e-08
7.51149e-08
7.49599e-08
7.49628e-08
7.49617e-08
7.49617e-08
7.49628e-08
7.496e-08
7.51701e-08
7.52449e-08
7.52418e-08
7.51336e-08
7.49599e-08
7.49603e-08
7.49603e-08
7.49599e-08
7.51566e-08
7.51511e-08
7.5245e-08
7.52177e-08
7.51315e-08
7.51708e-08
7.51704e-08
7.51683e-08
7.51699e-08
7.51507e-08
7.5252e-08
7.52428e-08
7.52409e-08
7.51355e-08
7.52447e-08
7.52448e-08
7.40866e-08
7.4078e-08
7.40852e-08
7.39826e-08
7.39784e-08
7.39822e-08
7.39799e-08
7.41067e-08
7.40826e-08
7.40855e-08
7.39763e-08
7.3825e-08
7.38254e-08
7.38254e-08
7.3825e-08
7.39985e-08
7.39978e-08
7.39828e-08
7.3825e-08
7.38279e-08
7.38268e-08
7.38268e-08
7.38279e-08
7.38251e-08
7.40361e-08
7.41081e-08
7.40866e-08
7.39785e-08
7.38255e-08
7.38268e-08
7.38261e-08
7.38261e-08
7.38268e-08
7.38255e-08
7.40356e-08
7.41061e-08
7.4078e-08
7.39822e-08
7.38254e-08
7.38268e-08
7.38261e-08
7.38261e-08
7.38268e-08
7.38255e-08
7.40335e-08
7.40007e-08
7.39799e-08
7.3825e-08
7.3828e-08
7.38268e-08
7.38268e-08
7.3828e-08
7.3825e-08
7.40351e-08
7.41099e-08
7.41067e-08
7.39986e-08
7.38251e-08
7.38255e-08
7.38255e-08
7.38251e-08
7.40217e-08
7.40158e-08
7.411e-08
7.40826e-08
7.39978e-08
7.40361e-08
7.40356e-08
7.40335e-08
7.40352e-08
7.40163e-08
7.41172e-08
7.41081e-08
7.41061e-08
7.40007e-08
7.411e-08
7.41102e-08
7.29517e-08
7.29431e-08
7.29503e-08
7.28477e-08
7.28436e-08
7.28473e-08
7.2845e-08
7.29718e-08
7.29477e-08
7.29506e-08
7.28414e-08
7.26901e-08
7.26905e-08
7.26905e-08
7.26901e-08
7.28637e-08
7.28629e-08
7.28479e-08
7.26902e-08
7.26931e-08
7.26919e-08
7.26919e-08
7.26931e-08
7.26902e-08
7.29012e-08
7.29732e-08
7.29518e-08
7.28436e-08
7.26906e-08
7.26919e-08
7.26912e-08
7.26912e-08
7.26919e-08
7.26906e-08
7.29007e-08
7.29712e-08
7.29431e-08
7.28473e-08
7.26906e-08
7.26919e-08
7.26912e-08
7.26912e-08
7.26919e-08
7.26906e-08
7.28986e-08
7.28658e-08
7.28451e-08
7.26901e-08
7.26931e-08
7.26919e-08
7.26919e-08
7.26931e-08
7.26901e-08
7.29002e-08
7.2975e-08
7.29718e-08
7.28637e-08
7.26902e-08
7.26906e-08
7.26906e-08
7.26902e-08
7.28869e-08
7.28809e-08
7.29751e-08
7.29477e-08
7.28629e-08
7.29013e-08
7.29007e-08
7.28986e-08
7.29003e-08
7.28814e-08
7.29823e-08
7.29733e-08
7.29712e-08
7.28658e-08
7.29751e-08
7.29753e-08
7.18169e-08
7.18083e-08
7.18157e-08
7.17131e-08
7.17088e-08
7.17125e-08
7.17103e-08
7.18372e-08
7.18131e-08
7.18155e-08
7.17065e-08
7.15553e-08
7.15557e-08
7.15557e-08
7.15553e-08
7.1729e-08
7.17269e-08
7.17129e-08
7.15553e-08
7.15582e-08
7.1557e-08
7.1557e-08
7.15582e-08
7.15553e-08
7.17662e-08
7.18382e-08
7.18168e-08
7.17087e-08
7.15557e-08
7.1557e-08
7.15564e-08
7.15564e-08
7.1557e-08
7.15557e-08
7.17658e-08
7.18363e-08
7.18083e-08
7.17125e-08
7.15557e-08
7.1557e-08
7.15564e-08
7.15564e-08
7.1557e-08
7.15557e-08
7.17637e-08
7.17309e-08
7.17103e-08
7.15553e-08
7.15582e-08
7.1557e-08
7.1557e-08
7.15582e-08
7.15553e-08
7.17654e-08
7.18402e-08
7.18372e-08
7.17289e-08
7.15552e-08
7.15557e-08
7.15557e-08
7.15552e-08
7.1752e-08
7.17465e-08
7.18404e-08
7.1813e-08
7.17269e-08